/*--------------------------------*- C++ -*----------------------------------*\
| =========                 |                                                 |
| \\      /  F ield         | OpenFOAM: The Open Source CFD Toolbox           |
|  \\    /   O peration     | Version:  dev                                   |
|   \\  /    A nd           | Web:      www.OpenFOAM.org                      |
|    \\/     M anipulation  |                                                 |
\*---------------------------------------------------------------------------*/
FoamFile
{
    version     2.0;
    format      ascii;
    class       volVectorField;
    location    "1";
    object      cellDisplacement;
}
// * * * * * * * * * * * * * * * * * * * * * * * * * * * * * * * * * * * * * //

dimensions      [0 1 0 0 0 0 0];

internalField   nonuniform List<vector> 
465
(
(0.331018 0 -0.0726196)
(0.324409 0 -0.0701848)
(0.332507 0 -0.0723185)
(0.325897 0 -0.0700775)
(0.318935 0 -0.0676672)
(0.311558 0 -0.0651096)
(0.333154 0 -0.0717626)
(0.326623 0 -0.0697137)
(0.319682 0 -0.0674751)
(0.312278 0 -0.0650691)
(0.304341 0 -0.0625142)
(0.33302 0 -0.0709884)
(0.326626 0 -0.0691235)
(0.319764 0 -0.0670533)
(0.312392 0 -0.0647994)
(0.30445 0 -0.0623801)
(0.295866 0 -0.0598106)
(0.28656 0 -0.0571034)
(0.332164 0 -0.0700278)
(0.325946 0 -0.068334)
(0.319208 0 -0.0664244)
(0.311914 0 -0.064319)
(0.304013 0 -0.0620348)
(0.29544 0 -0.0595862)
(0.286122 0 -0.0569852)
(0.275972 0 -0.0542404)
(0.264897 0 -0.0513579)
(0.330649 0 -0.0689068)
(0.32463 0 -0.0673684)
(0.318045 0 -0.0656087)
(0.310864 0 -0.063645)
(0.30304 0 -0.0614925)
(0.294516 0 -0.0591644)
(0.285223 0 -0.0566715)
(0.275082 0 -0.054022)
(0.264005 0 -0.0512217)
(0.251895 0 -0.0482727)
(0.328535 0 -0.0676455)
(0.322725 0 -0.0662459)
(0.316313 0 -0.0646235)
(0.309268 0 -0.0627927)
(0.301549 0 -0.0607664)
(0.293104 0 -0.0585561)
(0.283868 0 -0.0561713)
(0.273768 0 -0.0536195)
(0.26272 0 -0.0509056)
(0.250635 0 -0.048032)
(0.237414 0 -0.0449978)
(0.222952 0 -0.0417998)
(0.325881 0 -0.0662589)
(0.320281 0 -0.0649814)
(0.314049 0 -0.0634832)
(0.307156 0 -0.0617753)
(0.299563 0 -0.0598683)
(0.29122 0 -0.0577717)
(0.282067 0 -0.0554934)
(0.272035 0 -0.0530398)
(0.261045 0 -0.0504152)
(0.249012 0 -0.0476214)
(0.235842 0 -0.0446575)
(0.221434 0 -0.0415199)
(0.205679 0 -0.0382009)
(0.322741 0 -0.064757)
(0.317345 0 -0.063586)
(0.311296 0 -0.0621988)
(0.304563 0 -0.0606034)
(0.297109 0 -0.058808)
(0.288886 0 -0.0568198)
(0.279836 0 -0.0546454)
(0.269895 0 -0.0522896)
(0.258987 0 -0.049756)
(0.247032 0 -0.0470456)
(0.233938 0 -0.0441575)
(0.21961 0 -0.0410877)
(0.203945 0 -0.0378293)
(0.186831 0 -0.0343717)
(0.168156 0 -0.0307014)
(0.31917 0 -0.0631457)
(0.313967 0 -0.0620669)
(0.308096 0 -0.0607783)
(0.301526 0 -0.0592853)
(0.294218 0 -0.0575934)
(0.286127 0 -0.055708)
(0.277196 0 -0.0536339)
(0.267364 0 -0.0513748)
(0.256559 0 -0.0489329)
(0.244703 0 -0.046309)
(0.23171 0 -0.0435013)
(0.217487 0 -0.040506)
(0.201935 0 -0.0373164)
(0.184949 0 -0.0339224)
(0.166419 0 -0.0303111)
(0.146227 0 -0.0264649)
(0.315217 0 -0.0614273)
(0.310193 0 -0.0604282)
(0.304493 0 -0.0592269)
(0.298083 0 -0.0578265)
(0.290925 0 -0.0562303)
(0.282973 0 -0.054442)
(0.274173 0 -0.0524645)
(0.264465 0 -0.0503002)
(0.25378 0 -0.0479505)
(0.242042 0 -0.0454152)
(0.22917 0 -0.0426923)
(0.215074 0 -0.0397776)
(0.199659 0 -0.0366646)
(0.182825 0 -0.0333439)
(0.164466 0 -0.029803)
(0.144469 0 -0.0260261)
(0.12272 0 -0.0219937)
(0.0990993 0 -0.0176831)
(0.310933 0 -0.0596015)
(0.306073 0 -0.0586709)
(0.300532 0 -0.0575469)
(0.294277 0 -0.0562302)
(0.287268 0 -0.0547226)
(0.279459 0 -0.0530256)
(0.270797 0 -0.0511409)
(0.261224 0 -0.0490697)
(0.250672 0 -0.0468121)
(0.239069 0 -0.0443674)
(0.226336 0 -0.0417331)
(0.212387 0 -0.0389048)
(0.197131 0 -0.0358761)
(0.180472 0 -0.0326381)
(0.162308 0 -0.029179)
(0.142531 0 -0.025484)
(0.121032 0 -0.0215353)
(0.0976963 0 -0.0173113)
(0.0724041 0 -0.0127869)
(0.306367 0 -0.0576642)
(0.301652 0 -0.0567931)
(0.296258 0 -0.0557377)
(0.290151 0 -0.0544972)
(0.283287 0 -0.0530715)
(0.275622 0 -0.0514609)
(0.267103 0 -0.0496656)
(0.257671 0 -0.0476855)
(0.247263 0 -0.0455202)
(0.235808 0 -0.0431679)
(0.22323 0 -0.0406258)
(0.209446 0 -0.0378895)
(0.194368 0 -0.0349526)
(0.177905 0 -0.0318065)
(0.159958 0 -0.0284403)
(0.140427 0 -0.0248402)
(0.119204 0 -0.0209897)
(0.0961823 0 -0.0168693)
(0.0712497 0 -0.012456)
(0.0442969 0 -0.00772505)
(0.301564 0 -0.0556091)
(0.296978 0 -0.0547902)
(0.291719 0 -0.0537964)
(0.285749 0 -0.0526256)
(0.279026 0 -0.0512764)
(0.271503 0 -0.0497477)
(0.263128 0 -0.0480388)
(0.253843 0 -0.0461486)
(0.243587 0 -0.0440757)
(0.23229 0 -0.0418178)
(0.219879 0 -0.0393717)
(0.206275 0 -0.0367329)
(0.191393 0 -0.033895)
(0.175144 0 -0.0308501)
(0.157435 0 -0.0275879)
(0.138171 0 -0.0240956)
(0.117249 0 -0.0203581)
(0.0945678 0 -0.0163577)
(0.070023 0 -0.0120739)
(0.0435132 0 -0.00748435)
(0.0148717 0 -0.00255304)
(0.296571 0 -0.0534273)
(0.292099 0 -0.0526549)
(0.286962 0 -0.0517172)
(0.281119 0 -0.050611)
(0.27453 0 -0.0493339)
(0.267145 0 -0.0478839)
(0.258914 0 -0.0462592)
(0.249779 0 -0.0444579)
(0.23968 0 -0.0424781)
(0.228549 0 -0.0403168)
(0.216316 0 -0.0379707)
(0.202903 0 -0.0354351)
(0.18823 0 -0.0327039)
(0.172212 0 -0.0297695)
(0.15476 0 -0.0266222)
(0.135781 0 -0.0232507)
(0.115182 0 -0.019641)
(0.0928647 0 -0.0157771)
(0.0687323 0 -0.0116408)
(0.042691 0 -0.00721218)
(0.0145854 0 -0.00245895)
(0.291437 0 -0.0511075)
(0.287064 0 -0.0503776)
(0.282036 0 -0.0494919)
(0.276311 0 -0.0484465)
(0.269847 0 -0.0472383)
(0.262596 0 -0.0458646)
(0.254506 0 -0.0443228)
(0.245522 0 -0.0426104)
(0.235583 0 -0.0407249)
(0.224624 0 -0.0386632)
(0.212575 0 -0.0364215)
(0.199364 0 -0.0339952)
(0.184912 0 -0.0313784)
(0.169137 0 -0.028564)
(0.151956 0 -0.0255432)
(0.133281 0 -0.0223054)
(0.113021 0 -0.0188383)
(0.0910874 0 -0.0151275)
(0.0673879 0 -0.0111568)
(0.0418362 0 -0.00690861)
(0.0142883 0 -0.00235422)
(0.286215 0 -0.0486365)
(0.281927 0 -0.0479461)
(0.276994 0 -0.0471096)
(0.271377 0 -0.0461225)
(0.265031 0 -0.0449813)
(0.257907 0 -0.0436826)
(0.249956 0 -0.0422234)
(0.24112 0 -0.0406009)
(0.231341 0 -0.0388119)
(0.220556 0 -0.0368532)
(0.208698 0 -0.034721)
(0.195695 0 -0.0324106)
(0.181472 0 -0.0299166)
(0.165952 0 -0.0272322)
(0.149053 0 -0.0243495)
(0.130693 0 -0.021259)
(0.110788 0 -0.0179496)
(0.0892526 0 -0.0144086)
(0.066002 0 -0.0106216)
(0.0409564 0 -0.00657355)
(0.013983 0 -0.00223885)
(0.280954 0 -0.045997)
(0.276739 0 -0.0453449)
(0.271892 0 -0.0445562)
(0.266373 0 -0.0436264)
(0.260136 0 -0.0425515)
(0.253133 0 -0.0413279)
(0.245314 0 -0.0399522)
(0.236624 0 -0.0384214)
(0.227006 0 -0.036732)
(0.216396 0 -0.0348808)
(0.204729 0 -0.032864)
(0.191938 0 -0.030677)
(0.17795 0 -0.0283147)
(0.162691 0 -0.0257711)
(0.146083 0 -0.0230389)
(0.128048 0 -0.0201096)
(0.108506 0 -0.0169735)
(0.0873795 0 -0.0136193)
(0.0645886 0 -0.0100348)
(0.0400602 0 -0.00620671)
(0.0136725 0 -0.00211277)
(0.275711 0 -0.0431683)
(0.27156 0 -0.042555)
(0.266789 0 -0.0418144)
(0.261358 0 -0.0409422)
(0.255221 0 -0.0399343)
(0.248332 0 -0.0387871)
(0.240641 0 -0.0374972)
(0.232092 0 -0.0360611)
(0.22263 0 -0.0344758)
(0.212194 0 -0.0327377)
(0.20072 0 -0.0308431)
(0.188141 0 -0.0287879)
(0.17439 0 -0.0265675)
(0.159394 0 -0.0241761)
(0.143081 0 -0.0216075)
(0.125375 0 -0.0188542)
(0.106203 0 -0.0159076)
(0.0854897 0 -0.0127582)
(0.0631637 0 -0.00939522)
(0.0391578 0 -0.00580747)
(0.0133603 0 -0.00197577)
(0.270557 0 -0.0401297)
(0.266455 0 -0.0395552)
(0.261749 0 -0.0388634)
(0.256397 0 -0.0380502)
(0.250352 0 -0.0371114)
(0.24357 0 -0.0360433)
(0.235998 0 -0.0348427)
(0.227585 0 -0.0335061)
(0.218275 0 -0.0320303)
(0.208008 0 -0.0304122)
(0.196723 0 -0.0286482)
(0.184356 0 -0.0267346)
(0.17084 0 -0.024667)
(0.156107 0 -0.0224406)
(0.140087 0 -0.0200498)
(0.12271 0 -0.0174882)
(0.103907 0 -0.0147485)
(0.0836074 0 -0.0118224)
(0.0617454 0 -0.00870104)
(0.0382601 0 -0.00537484)
(0.01305 0 -0.00182755)
(0.26555 0 -0.036852)
(0.261492 0 -0.0363181)
(0.256843 0 -0.0356776)
(0.25156 0 -0.0349262)
(0.2456 0 -0.03406)
(0.238915 0 -0.0330754)
(0.231456 0 -0.0319692)
(0.223172 0 -0.0307382)
(0.214006 0 -0.0293793)
(0.203903 0 -0.0278897)
(0.192801 0 -0.0262661)
(0.180639 0 -0.0245051)
(0.167353 0 -0.0226031)
(0.152878 0 -0.0205558)
(0.137147 0 -0.0183585)
(0.120094 0 -0.0160057)
(0.101653 0 -0.0134913)
(0.0817596 0 -0.0108085)
(0.0603536 0 -0.0079498)
(0.0373796 0 -0.00490738)
(0.0127459 0 -0.00166762)
(0.260765 0 -0.0332999)
(0.256745 0 -0.0328108)
(0.252145 0 -0.0322257)
(0.246925 0 -0.0315408)
(0.24104 0 -0.0307525)
(0.234445 0 -0.0298574)
(0.22709 0 -0.0288525)
(0.218926 0 -0.027735)
(0.209897 0 -0.0265022)
(0.199948 0 -0.0251514)
(0.189021 0 -0.0236798)
(0.177056 0 -0.0220845)
(0.16399 0 -0.0203626)
(0.149763 0 -0.0185103)
(0.13431 0 -0.0165238)
(0.117568 0 -0.0143986)
(0.099477 0 -0.0121297)
(0.0799764 0 -0.00971157)
(0.0590106 0 -0.00713813)
(0.0365302 0 -0.00440311)
(0.0124527 0 -0.00149536)
(0.256289 0 -0.0294339)
(0.2523 0 -0.0289946)
(0.247744 0 -0.0284707)
(0.242578 0 -0.0278586)
(0.236761 0 -0.0271552)
(0.230246 0 -0.0263575)
(0.222986 0 -0.025463)
(0.214931 0 -0.0244691)
(0.206027 0 -0.0233735)
(0.196222 0 -0.022174)
(0.185457 0 -0.0208683)
(0.173676 0 -0.0194541)
(0.160818 0 -0.0179288)
(0.146823 0 -0.0162896)
(0.131631 0 -0.0145334)
(0.115184 0 -0.0126566)
(0.0974221 0 -0.0106554)
(0.0782917 0 -0.00852536)
(0.0577414 0 -0.00626168)
(0.0357273 0 -0.0038595)
(0.0121757 0 -0.00130992)
(0.252219 0 -0.0252065)
(0.248257 0 -0.0248236)
(0.243736 0 -0.024368)
(0.238617 0 -0.0238369)
(0.232858 0 -0.0232275)
(0.226414 0 -0.0225375)
(0.219237 0 -0.0217646)
(0.21128 0 -0.0209068)
(0.202489 0 -0.0199623)
(0.192813 0 -0.0189293)
(0.182195 0 -0.017806)
(0.17058 0 -0.0165907)
(0.15791 0 -0.0152813)
(0.144127 0 -0.013876)
(0.129174 0 -0.0123722)
(0.112995 0 -0.0107673)
(0.0955351 0 -0.00905838)
(0.0767437 0 -0.00724216)
(0.0565745 0 -0.00531504)
(0.0349886 0 -0.00327336)
(0.0119208 0 -0.00111025)
(0.248666 0 -0.0205607)
(0.244725 0 -0.0202422)
(0.240233 0 -0.0198644)
(0.235153 0 -0.0194246)
(0.229443 0 -0.0189209)
(0.223058 0 -0.0183512)
(0.215952 0 -0.017714)
(0.208078 0 -0.0170077)
(0.199384 0 -0.0162311)
(0.189819 0 -0.0153828)
(0.179329 0 -0.0144617)
(0.167859 0 -0.0134664)
(0.155352 0 -0.0123956)
(0.141755 0 -0.011248)
(0.12701 0 -0.0100218)
(0.111066 0 -0.00871528)
(0.0938705 0 -0.00732633)
(0.0753766 0 -0.00585264)
(0.0555423 0 -0.00429167)
(0.0343341 0 -0.00264083)
(0.0116949 0 -0.000895103)
(0.245756 0 -0.0154258)
(0.241831 0 -0.0151842)
(0.237363 0 -0.0148961)
(0.232313 0 -0.0145606)
(0.22664 0 -0.0141767)
(0.220302 0 -0.0137432)
(0.213254 0 -0.0132591)
(0.205446 0 -0.0127234)
(0.19683 0 -0.0121351)
(0.187355 0 -0.0114937)
(0.176968 0 -0.0107982)
(0.165616 0 -0.0100479)
(0.153243 0 -0.0092422)
(0.139796 0 -0.00838008)
(0.125223 0 -0.00746059)
(0.10947 0 -0.00648261)
(0.0924914 0 -0.00544484)
(0.0742418 0 -0.0043458)
(0.0546835 0 -0.00318388)
(0.0337879 0 -0.0019574)
(0.011506 0 -0.000662981)
(0.243638 0 -0.00973178)
(0.239731 0 -0.00957415)
(0.235273 0 -0.00938742)
(0.230241 0 -0.0091713)
(0.224595 0 -0.00892478)
(0.21829 0 -0.00864709)
(0.211281 0 -0.00833755)
(0.203521 0 -0.00799563)
(0.194962 0 -0.0076209)
(0.185551 0 -0.00721297)
(0.175239 0 -0.0067715)
(0.163971 0 -0.00629618)
(0.151695 0 -0.00578663)
(0.138357 0 -0.00524249)
(0.123907 0 -0.00466327)
(0.108294 0 -0.00404841)
(0.0914727 0 -0.00339726)
(0.073401 0 -0.00270904)
(0.0540447 0 -0.0019829)
(0.0333794 0 -0.00121793)
(0.0113643 0 -0.000412214)
(0.242481 0 -0.00337194)
(0.238571 0 -0.00331333)
(0.234125 0 -0.0032465)
(0.229106 0 -0.00317013)
(0.223474 0 -0.00308349)
(0.217187 0 -0.00298616)
(0.210199 0 -0.00287787)
(0.202465 0 -0.00275844)
(0.193935 0 -0.00262775)
(0.18456 0 -0.00248568)
(0.174287 0 -0.00233216)
(0.163065 0 -0.00216712)
(0.150841 0 -0.00199047)
(0.137562 0 -0.0018021)
(0.123179 0 -0.00160191)
(0.107641 0 -0.00138974)
(0.0909051 0 -0.00116539)
(0.0729301 0 -0.000928635)
(0.053684 0 -0.000679219)
(0.0331459 0 -0.000416871)
(0.0112826 0 -0.000141006)
)
;

boundaryField
{
    inlet
    {
        type            cellMotion;
        value           nonuniform 0();
    }
    outlet
    {
        type            cellMotion;
        value           uniform (0 0 0);
    }
    flap
    {
        type            cellMotion;
        value           nonuniform 0();
    }
    upperWall
    {
        type            slip;
    }
    lowerWall
    {
        type            slip;
    }
    frontAndBack
    {
        type            empty;
    }
    procBoundary2to1
    {
        type            processor;
        value           nonuniform List<vector> 
17
(
(0.315145 0 -0.0603393)
(0.310437 0 -0.0583534)
(0.305512 0 -0.056257)
(0.300416 0 -0.0540392)
(0.295193 0 -0.0516867)
(0.289901 0 -0.0491864)
(0.28458 0 -0.0465188)
(0.279283 0 -0.0436596)
(0.27408 0 -0.0405901)
(0.269041 0 -0.0372823)
(0.26423 0 -0.0336957)
(0.259733 0 -0.0297906)
(0.255647 0 -0.0255188)
(0.252082 0 -0.0208219)
(0.249163 0 -0.0156296)
(0.247032 0 -0.00986155)
(0.245879 0 -0.00341495)
)
;
    }
    procBoundary2to4
    {
        type            processor;
        value           nonuniform List<vector> 
11
(
(0.337393 0 -0.0748845)
(0.338814 0 -0.0743636)
(0.339312 0 -0.0735949)
(0.338974 0 -0.0726228)
(0.337885 0 -0.0714837)
(0.336123 0 -0.0702052)
(0.333763 0 -0.0688077)
(0.33087 0 -0.0673047)
(0.327507 0 -0.0657045)
(0.323729 0 -0.0640106)
(0.31959 0 -0.0622227)
)
;
    }
    procBoundary2to5
    {
        type            processor;
        value           nonuniform List<vector> 
34
(
(0.328639 0 -0.0726256)
(0.32214 0 -0.0700043)
(0.317507 0 -0.0676056)
(0.317507 0 -0.0676056)
(0.310233 0 -0.0649025)
(0.303686 0 -0.0624229)
(0.303686 0 -0.0624229)
(0.295794 0 -0.0598263)
(0.295794 0 -0.0598263)
(0.286546 0 -0.0570182)
(0.27644 0 -0.0542679)
(0.27644 0 -0.0542679)
(0.265406 0 -0.0513101)
(0.252797 0 -0.0483409)
(0.252797 0 -0.0483409)
(0.238653 0 -0.0451757)
(0.238653 0 -0.0451757)
(0.224168 0 -0.0419265)
(0.207139 0 -0.0384307)
(0.207139 0 -0.0384307)
(0.188467 0 -0.0346909)
(0.188467 0 -0.0346909)
(0.169678 0 -0.0309745)
(0.1478 0 -0.0268005)
(0.1478 0 -0.0268005)
(0.124258 0 -0.0223645)
(0.124258 0 -0.0223645)
(0.100385 0 -0.0179846)
(0.0734814 0 -0.0130667)
(0.0734814 0 -0.0130667)
(0.0450392 0 -0.0079346)
(0.0450392 0 -0.0079346)
(0.0151455 0 -0.00263655)
(0.0151455 0 -0.00263655)
)
;
    }
}


// ************************************************************************* //
