/*--------------------------------*- C++ -*----------------------------------*\
| =========                 |                                                 |
| \\      /  F ield         | OpenFOAM: The Open Source CFD Toolbox           |
|  \\    /   O peration     | Version:  dev                                   |
|   \\  /    A nd           | Web:      www.OpenFOAM.org                      |
|    \\/     M anipulation  |                                                 |
\*---------------------------------------------------------------------------*/
FoamFile
{
    version     2.0;
    format      ascii;
    class       volVectorField;
    location    "1";
    object      cellDisplacement;
}
// * * * * * * * * * * * * * * * * * * * * * * * * * * * * * * * * * * * * * //

dimensions      [0 1 0 0 0 0 0];

internalField   nonuniform List<vector> 
465
(
(0.297724 0 -0.0707494)
(0.291455 0 -0.0683046)
(0.299444 0 -0.0704476)
(0.293174 0 -0.0682013)
(0.286645 0 -0.0658007)
(0.279799 0 -0.0632672)
(0.300326 0 -0.069876)
(0.29414 0 -0.0678302)
(0.287634 0 -0.0656059)
(0.280763 0 -0.0632261)
(0.273462 0 -0.0607086)
(0.300433 0 -0.0690758)
(0.294393 0 -0.0672242)
(0.287973 0 -0.0651751)
(0.281136 0 -0.0629514)
(0.273831 0 -0.0605719)
(0.265993 0 -0.0580517)
(0.257549 0 -0.0554032)
(0.299829 0 -0.0680829)
(0.293976 0 -0.0664132)
(0.287687 0 -0.0645326)
(0.280934 0 -0.0624628)
(0.273672 0 -0.0602219)
(0.265845 0 -0.0578249)
(0.257386 0 -0.0552837)
(0.248215 0 -0.052607)
(0.238247 0 -0.0498011)
(0.298581 0 -0.0669271)
(0.292939 0 -0.0654233)
(0.286813 0 -0.0637008)
(0.280178 0 -0.0617789)
(0.272996 0 -0.0596741)
(0.265219 0 -0.0574005)
(0.256783 0 -0.0549694)
(0.247616 0 -0.0523894)
(0.237639 0 -0.0496663)
(0.22676 0 -0.0468021)
(0.296751 0 -0.0656319)
(0.291331 0 -0.0642763)
(0.285386 0 -0.062699)
(0.278895 0 -0.0609163)
(0.271823 0 -0.0589425)
(0.264125 0 -0.0567903)
(0.255744 0 -0.0544699)
(0.246615 0 -0.0519891)
(0.23666 0 -0.0493535)
(0.225796 0 -0.0465654)
(0.213929 0 -0.0436242)
(0.200962 0 -0.0405264)
(0.294399 0 -0.0642147)
(0.289203 0 -0.0629894)
(0.283449 0 -0.0615434)
(0.277117 0 -0.0598896)
(0.270175 0 -0.0580399)
(0.262581 0 -0.0560051)
(0.254281 0 -0.053794)
(0.245215 0 -0.0514136)
(0.235311 0 -0.0488686)
(0.224489 0 -0.0461612)
(0.212661 0 -0.0432907)
(0.199733 0 -0.0402535)
(0.185599 0 -0.0370419)
(0.291584 0 -0.0626877)
(0.286604 0 -0.0615756)
(0.281043 0 -0.0602467)
(0.274878 0 -0.0587109)
(0.26808 0 -0.0569773)
(0.260606 0 -0.0550547)
(0.252409 0 -0.0529503)
(0.24343 0 -0.0506699)
(0.2336 0 -0.0482173)
(0.222845 0 -0.0455943)
(0.211081 0 -0.0428001)
(0.198216 0 -0.0398309)
(0.184153 0 -0.0366799)
(0.168787 0 -0.0333365)
(0.152008 0 -0.0297871)
(0.28836 0 -0.0610583)
(0.283586 0 -0.0600437)
(0.278212 0 -0.0588186)
(0.272217 0 -0.0573897)
(0.265569 0 -0.0557637)
(0.258229 0 -0.0539473)
(0.250149 0 -0.0519459)
(0.241274 0 -0.0497642)
(0.231539 0 -0.047405)
(0.220873 0 -0.0448693)
(0.209195 0 -0.0421561)
(0.196418 0 -0.0392616)
(0.18245 0 -0.0361791)
(0.167188 0 -0.0328988)
(0.150527 0 -0.0294075)
(0.132352 0 -0.0256876)
(0.284779 0 -0.0593301)
(0.280195 0 -0.0583993)
(0.275 0 -0.0572654)
(0.269171 0 -0.0559328)
(0.262676 0 -0.0544061)
(0.255476 0 -0.0526895)
(0.247525 0 -0.0507871)
(0.238769 0 -0.0487021)
(0.229145 0 -0.0464364)
(0.218586 0 -0.0439902)
(0.207015 0 -0.0413621)
(0.194348 0 -0.0385482)
(0.180496 0 -0.035542)
(0.165362 0 -0.0323343)
(0.148844 0 -0.0289125)
(0.130834 0 -0.0252604)
(0.111218 0 -0.0213581)
(0.0898798 0 -0.0171821)
(0.280892 0 -0.0575042)
(0.276479 0 -0.0566444)
(0.271452 0 -0.0555906)
(0.265783 0 -0.0543447)
(0.25944 0 -0.052909)
(0.252383 0 -0.0512861)
(0.244567 0 -0.0494785)
(0.23594 0 -0.047488)
(0.226441 0 -0.0453155)
(0.216005 0 -0.0429605)
(0.204558 0 -0.0404211)
(0.19202 0 -0.0376934)
(0.178304 0 -0.0347709)
(0.16332 0 -0.0316449)
(0.146969 0 -0.0283036)
(0.129147 0 -0.0247319)
(0.109747 0 -0.0209115)
(0.0886557 0 -0.0168204)
(0.065757 0 -0.0124327)
(0.276745 0 -0.0555773)
(0.272486 0 -0.0547783)
(0.267612 0 -0.0537948)
(0.262094 0 -0.0526268)
(0.255898 0 -0.0512749)
(0.248985 0 -0.04974)
(0.241308 0 -0.0480231)
(0.232817 0 -0.0461248)
(0.223453 0 -0.0440451)
(0.213152 0 -0.0417829)
(0.201843 0 -0.0393356)
(0.189451 0 -0.0366993)
(0.175891 0 -0.0338676)
(0.161076 0 -0.0308323)
(0.144913 0 -0.0275822)
(0.127303 0 -0.0241036)
(0.108142 0 -0.0203793)
(0.0873256 0 -0.0163894)
(0.0647426 0 -0.0121104)
(0.0402842 0 -0.00751616)
(0.272385 0 -0.0535437)
(0.26826 0 -0.0527971)
(0.263525 0 -0.0518758)
(0.258147 0 -0.0507784)
(0.252093 0 -0.0495038)
(0.24532 0 -0.0480518)
(0.237783 0 -0.0464221)
(0.229433 0 -0.0446141)
(0.22021 0 -0.042627)
(0.210055 0 -0.0404589)
(0.198897 0 -0.0381072)
(0.186664 0 -0.0355674)
(0.173276 0 -0.0328336)
(0.158649 0 -0.0298978)
(0.142693 0 -0.0267497)
(0.125315 0 -0.0233764)
(0.106417 0 -0.0197627)
(0.0858989 0 -0.01589)
(0.0636571 0 -0.0117373)
(0.03959 0 -0.00728118)
(0.0135395 0 -0.00248521)
(0.267852 0 -0.0513948)
(0.263846 0 -0.0506942)
(0.259236 0 -0.0498287)
(0.253989 0 -0.0487957)
(0.248067 0 -0.0475934)
(0.24143 0 -0.0462201)
(0.234033 0 -0.0446746)
(0.225824 0 -0.0429555)
(0.216749 0 -0.0410611)
(0.206745 0 -0.038989)
(0.195748 0 -0.0367362)
(0.183686 0 -0.0342983)
(0.170484 0 -0.0316694)
(0.156059 0 -0.028842)
(0.140328 0 -0.0258065)
(0.1232 0 -0.0225513)
(0.104585 0 -0.0190622)
(0.0843867 0 -0.0153227)
(0.0625089 0 -0.011314)
(0.038857 0 -0.00701498)
(0.0132838 0 -0.00239313)
(0.2632 0 -0.0491214)
(0.259293 0 -0.0484609)
(0.254793 0 -0.0476459)
(0.249663 0 -0.0466728)
(0.243867 0 -0.0455386)
(0.237361 0 -0.044241)
(0.230099 0 -0.0427777)
(0.222033 0 -0.0411467)
(0.213106 0 -0.0393457)
(0.20326 0 -0.0373719)
(0.19243 0 -0.035222)
(0.180548 0 -0.0328915)
(0.167541 0 -0.0303748)
(0.153332 0 -0.0276649)
(0.137839 0 -0.0247529)
(0.120978 0 -0.0216282)
(0.102662 0 -0.0182781)
(0.0828023 0 -0.0146879)
(0.061308 0 -0.0108406)
(0.0380918 0 -0.00671786)
(0.0130174 0 -0.00229056)
(0.258463 0 -0.0467081)
(0.254644 0 -0.0460846)
(0.250242 0 -0.0453169)
(0.245221 0 -0.0444005)
(0.23954 0 -0.0433319)
(0.233158 0 -0.042108)
(0.226028 0 -0.0407259)
(0.218102 0 -0.0391832)
(0.209324 0 -0.0374771)
(0.199637 0 -0.0356045)
(0.18898 0 -0.0335619)
(0.177285 0 -0.0313449)
(0.164482 0 -0.0289482)
(0.150497 0 -0.0263652)
(0.135254 0 -0.0235879)
(0.118672 0 -0.0206066)
(0.100669 0 -0.0174102)
(0.0811614 0 -0.0139853)
(0.060066 0 -0.0103173)
(0.0373016 0 -0.00638992)
(0.0127427 0 -0.00217757)
(0.253686 0 -0.0441358)
(0.249949 0 -0.0435499)
(0.245636 0 -0.0428282)
(0.240712 0 -0.041967)
(0.235138 0 -0.0409626)
(0.228873 0 -0.0398117)
(0.22187 0 -0.0385111)
(0.21408 0 -0.0370579)
(0.20545 0 -0.0354491)
(0.195923 0 -0.0336815)
(0.185439 0 -0.0317514)
(0.173934 0 -0.0296548)
(0.161341 0 -0.0273865)
(0.147588 0 -0.0249405)
(0.132602 0 -0.0223096)
(0.116307 0 -0.0194852)
(0.0986262 0 -0.0164573)
(0.0794818 0 -0.0132145)
(0.0587961 0 -0.00974368)
(0.0364948 0 -0.00603101)
(0.0124627 0 -0.00205412)
(0.248934 0 -0.0413914)
(0.245272 0 -0.0408418)
(0.241031 0 -0.0401643)
(0.236192 0 -0.0393574)
(0.230716 0 -0.0384171)
(0.22456 0 -0.0373398)
(0.217677 0 -0.0361221)
(0.210019 0 -0.0347609)
(0.201533 0 -0.033253)
(0.192165 0 -0.0315952)
(0.181855 0 -0.0297841)
(0.170541 0 -0.0278155)
(0.158158 0 -0.0256849)
(0.14464 0 -0.0233868)
(0.129915 0 -0.0209148)
(0.113912 0 -0.0182613)
(0.0965594 0 -0.0154176)
(0.0777836 0 -0.0123739)
(0.0575132 0 -0.00911885)
(0.0356805 0 -0.00564066)
(0.0121804 0 -0.00192009)
(0.244264 0 -0.0384527)
(0.240656 0 -0.0379366)
(0.236481 0 -0.037304)
(0.23172 0 -0.0365526)
(0.226334 0 -0.035678)
(0.220278 0 -0.0346764)
(0.213508 0 -0.0335445)
(0.205976 0 -0.032279)
(0.19763 0 -0.030877)
(0.188415 0 -0.0293352)
(0.178276 0 -0.0276504)
(0.167152 0 -0.0258188)
(0.154979 0 -0.0238363)
(0.141695 0 -0.0216981)
(0.127231 0 -0.0193985)
(0.111521 0 -0.0169309)
(0.0944961 0 -0.014288)
(0.076089 0 -0.0114613)
(0.0562339 0 -0.00844132)
(0.0348692 0 -0.00521805)
(0.0118995 0 -0.0017752)
(0.239724 0 -0.0352862)
(0.236163 0 -0.034805)
(0.23205 0 -0.0342222)
(0.22736 0 -0.0335295)
(0.222054 0 -0.0327237)
(0.216091 0 -0.0318015)
(0.209427 0 -0.0307597)
(0.202013 0 -0.0295954)
(0.1938 0 -0.0283057)
(0.184734 0 -0.0268876)
(0.17476 0 -0.0253381)
(0.163819 0 -0.0236539)
(0.151853 0 -0.0218314)
(0.138798 0 -0.0198663)
(0.124591 0 -0.0177539)
(0.109169 0 -0.0154886)
(0.092467 0 -0.0130642)
(0.0744232 0 -0.0104735)
(0.0549768 0 -0.00770885)
(0.0340724 0 -0.0047619)
(0.0116239 0 -0.00161905)
(0.235386 0 -0.0318634)
(0.231873 0 -0.0314234)
(0.22782 0 -0.0308929)
(0.223186 0 -0.0302613)
(0.21795 0 -0.0295282)
(0.212071 0 -0.0286904)
(0.205503 0 -0.0277449)
(0.198199 0 -0.0266889)
(0.19011 0 -0.0255198)
(0.181184 0 -0.0242348)
(0.171367 0 -0.0228314)
(0.160603 0 -0.0213068)
(0.148834 0 -0.0196577)
(0.135999 0 -0.0178808)
(0.12204 0 -0.015972)
(0.106896 0 -0.0139268)
(0.0905064 0 -0.0117401)
(0.0728137 0 -0.00940604)
(0.0537625 0 -0.00691838)
(0.0333029 0 -0.00427043)
(0.0113579 0 -0.00145105)
(0.231338 0 -0.0281487)
(0.227864 0 -0.0277556)
(0.223853 0 -0.0272787)
(0.219271 0 -0.0267136)
(0.214098 0 -0.0260594)
(0.208294 0 -0.0253131)
(0.201812 0 -0.0244719)
(0.194609 0 -0.0235334)
(0.186634 0 -0.0224951)
(0.177838 0 -0.0213549)
(0.168167 0 -0.0201105)
(0.157567 0 -0.0187596)
(0.145982 0 -0.0172997)
(0.133356 0 -0.015728)
(0.11963 0 -0.0140413)
(0.104748 0 -0.0122361)
(0.0886529 0 -0.0103082)
(0.0712917 0 -0.0082531)
(0.0526139 0 -0.00606587)
(0.032575 0 -0.00374128)
(0.0111063 0 -0.00127044)
(0.22766 0 -0.0240933)
(0.224214 0 -0.0237504)
(0.22024 0 -0.0233348)
(0.215703 0 -0.0228444)
(0.210586 0 -0.022278)
(0.204847 0 -0.0216328)
(0.198442 0 -0.0209064)
(0.191327 0 -0.0200969)
(0.183455 0 -0.0192023)
(0.174774 0 -0.0182209)
(0.165235 0 -0.0171509)
(0.154785 0 -0.0159906)
(0.143368 0 -0.0147381)
(0.130931 0 -0.0133912)
(0.117418 0 -0.0119476)
(0.102775 0 -0.0104045)
(0.0869497 0 -0.00875896)
(0.0698924 0 -0.00700746)
(0.0515571 0 -0.00514626)
(0.0319047 0 -0.00317146)
(0.0108747 0 -0.00107623)
(0.22445 0 -0.0196433)
(0.221025 0 -0.0193562)
(0.217081 0 -0.0190081)
(0.212585 0 -0.0186046)
(0.207514 0 -0.0181375)
(0.201829 0 -0.0176054)
(0.195489 0 -0.017007)
(0.18845 0 -0.0163409)
(0.180665 0 -0.0156057)
(0.172085 0 -0.0148002)
(0.16266 0 -0.0139231)
(0.152338 0 -0.0129733)
(0.141068 0 -0.0119495)
(0.128796 0 -0.0108501)
(0.115469 0 -0.00967345)
(0.101035 0 -0.00841777)
(0.0854465 0 -0.00708086)
(0.0686559 0 -0.00566028)
(0.050622 0 -0.00415337)
(0.0313107 0 -0.00255736)
(0.0106693 0 -0.000867237)
(0.22182 0 -0.0147349)
(0.218406 0 -0.0145133)
(0.214495 0 -0.0142462)
(0.210038 0 -0.0139395)
(0.204997 0 -0.0135835)
(0.199354 0 -0.0131787)
(0.193064 0 -0.0127242)
(0.186085 0 -0.012219)
(0.17837 0 -0.0116624)
(0.169871 0 -0.0110535)
(0.160538 0 -0.0103916)
(0.150322 0 -0.00967591)
(0.13917 0 -0.00890574)
(0.127033 0 -0.00808016)
(0.113858 0 -0.00719817)
(0.099596 0 -0.0062586)
(0.0842009 0 -0.00526009)
(0.0676293 0 -0.00420109)
(0.0498437 0 -0.00307988)
(0.0308148 0 -0.00189464)
(0.0104975 0 -0.000642037)
(0.219908 0 -0.00928988)
(0.216505 0 -0.00914701)
(0.212612 0 -0.00897652)
(0.208176 0 -0.00877763)
(0.20316 0 -0.00854842)
(0.197546 0 -0.00828888)
(0.191293 0 -0.00799821)
(0.184357 0 -0.00767583)
(0.176691 0 -0.00732127)
(0.16825 0 -0.00693414)
(0.158984 0 -0.00651409)
(0.148843 0 -0.00606079)
(0.137778 0 -0.00557389)
(0.125737 0 -0.00505296)
(0.112672 0 -0.00449754)
(0.0985352 0 -0.00390702)
(0.0832808 0 -0.00328072)
(0.0668687 0 -0.0026178)
(0.0492647 0 -0.00191735)
(0.0304438 0 -0.00117839)
(0.0103686 0 -0.000399025)
(0.218863 0 -0.00321359)
(0.215466 0 -0.00316322)
(0.211582 0 -0.00310328)
(0.207157 0 -0.00303328)
(0.202154 0 -0.00295275)
(0.196556 0 -0.00286177)
(0.190322 0 -0.00276008)
(0.183409 0 -0.00264747)
(0.17577 0 -0.00252382)
(0.167359 0 -0.00238901)
(0.158129 0 -0.00224296)
(0.148029 0 -0.00208559)
(0.13701 0 -0.00191681)
(0.125022 0 -0.00173652)
(0.112017 0 -0.00154459)
(0.0979466 0 -0.00134086)
(0.0827684 0 -0.00112512)
(0.066443 0 -0.000897123)
(0.0489381 0 -0.000656593)
(0.030232 0 -0.000403231)
(0.0102943 0 -0.000136457)
)
;

boundaryField
{
    inlet
    {
        type            cellMotion;
        value           nonuniform 0();
    }
    outlet
    {
        type            cellMotion;
        value           uniform (0 0 0);
    }
    flap
    {
        type            cellMotion;
        value           nonuniform 0();
    }
    upperWall
    {
        type            slip;
    }
    lowerWall
    {
        type            slip;
    }
    frontAndBack
    {
        type            empty;
    }
    procBoundary2to1
    {
        type            processor;
        value           nonuniform List<vector> 
17
(
(0.284715 0 -0.05817)
(0.280418 0 -0.0561937)
(0.275931 0 -0.0541195)
(0.271285 0 -0.0519347)
(0.266532 0 -0.0496302)
(0.261718 0 -0.0471915)
(0.256878 0 -0.0445957)
(0.252064 0 -0.0418253)
(0.247344 0 -0.0388588)
(0.242768 0 -0.0356655)
(0.238404 0 -0.0322133)
(0.234332 0 -0.0284636)
(0.230636 0 -0.0243693)
(0.227414 0 -0.019875)
(0.224777 0 -0.0149142)
(0.222859 0 -0.00940629)
(0.221813 0 -0.00325481)
)
;
    }
    procBoundary2to4
    {
        type            processor;
        value           nonuniform List<vector> 
11
(
(0.303851 0 -0.0730454)
(0.305499 0 -0.0725131)
(0.306223 0 -0.0717152)
(0.306114 0 -0.0707025)
(0.305262 0 -0.0695169)
(0.303751 0 -0.0681911)
(0.301657 0 -0.0667488)
(0.299051 0 -0.0652065)
(0.295997 0 -0.0635742)
(0.292553 0 -0.0618569)
(0.288773 0 -0.0600554)
)
;
    }
    procBoundary2to5
    {
        type            processor;
        value           nonuniform List<vector> 
34
(
(0.295114 0 -0.0707371)
(0.288961 0 -0.0681073)
(0.284986 0 -0.0657341)
(0.284986 0 -0.0657341)
(0.278245 0 -0.0630563)
(0.272565 0 -0.0606182)
(0.272565 0 -0.0606182)
(0.265662 0 -0.0580696)
(0.265662 0 -0.0580696)
(0.257279 0 -0.0553203)
(0.248412 0 -0.0526354)
(0.248412 0 -0.0526354)
(0.238491 0 -0.0497541)
(0.227387 0 -0.0468688)
(0.227387 0 -0.0468688)
(0.214885 0 -0.0437978)
(0.214885 0 -0.0437978)
(0.20191 0 -0.0406488)
(0.186788 0 -0.0372647)
(0.186788 0 -0.0372647)
(0.170156 0 -0.0336464)
(0.170156 0 -0.0336464)
(0.153286 0 -0.0300514)
(0.133698 0 -0.0260134)
(0.133698 0 -0.0260134)
(0.112549 0 -0.0217186)
(0.112549 0 -0.0217186)
(0.0909938 0 -0.0174746)
(0.0666956 0 -0.0127041)
(0.0666956 0 -0.0127041)
(0.0409356 0 -0.00771989)
(0.0409356 0 -0.00771989)
(0.0137822 0 -0.00256674)
(0.0137822 0 -0.00256674)
)
;
    }
}


// ************************************************************************* //
