/*--------------------------------*- C++ -*----------------------------------*\
| =========                 |                                                 |
| \\      /  F ield         | OpenFOAM: The Open Source CFD Toolbox           |
|  \\    /   O peration     | Version:  dev                                   |
|   \\  /    A nd           | Web:      www.OpenFOAM.org                      |
|    \\/     M anipulation  |                                                 |
\*---------------------------------------------------------------------------*/
FoamFile
{
    version     2.0;
    format      ascii;
    class       surfaceScalarField;
    location    "1";
    object      phi;
}
// * * * * * * * * * * * * * * * * * * * * * * * * * * * * * * * * * * * * * //

dimensions      [0 3 -1 0 0 0 0];

internalField   nonuniform List<scalar> 
881
(
0.0769335
0.12423
0.13028
0.108678
0.128074
0.104869
0.134077
0.100824
0.139117
0.142882
0.143645
0.133049
0.139655
0.138055
0.136018
0.142741
0.132357
0.146528
0.149041
0.182934
0.140105
0.177757
0.143221
0.173766
0.146719
0.170369
0.149911
0.167151
0.152244
0.163843
0.153312
0.152834
0.226571
0.148844
0.21983
0.149952
0.214776
0.151762
0.210932
0.153742
0.207817
0.155345
0.205028
0.156087
0.202266
0.155584
0.199323
0.153566
0.149854
0.272559
0.15765
0.265077
0.157424
0.259081
0.157747
0.254459
0.158353
0.250925
0.158867
0.248125
0.158874
0.245712
0.157985
0.243392
0.155876
0.240929
0.152309
0.147135
0.317786
0.164723
0.3111
0.164102
0.305205
0.163632
0.300302
0.163245
0.296398
0.16276
0.293346
0.161915
0.290908
0.160412
0.288813
0.157963
0.286792
0.154323
0.284605
0.149318
0.28204
0.142856
0.134936
0.359486
0.168833
0.355007
0.168573
0.350566
0.168064
0.346479
0.167322
0.34294
0.166289
0.340007
0.164839
0.337617
0.162793
0.335621
0.159952
0.333817
0.156123
0.33198
0.151153
0.329887
0.144951
0.327328
0.137501
0.128888
0.395985
0.169504
0.394533
0.170017
0.392589
0.169999
0.390427
0.169475
0.388275
0.168432
0.386288
0.166818
0.384531
0.164544
0.38298
0.161496
0.381544
0.157556
0.380074
0.152622
0.378396
0.146632
0.376324
0.13958
0.373685
0.131538
0.370334
0.122668
0.113214
0.426727
0.166875
0.428484
0.168253
0.42951
0.168965
0.429972
0.169006
0.430037
0.168359
0.429852
0.166997
0.429516
0.164873
0.429078
0.16193
0.428525
0.158108
0.427792
0.153356
0.426776
0.147652
0.425351
0.141014
0.423385
0.133518
0.420762
0.125309
0.417402
0.116596
0.107654
0.452003
0.161468
0.456663
0.163587
0.4606
0.165021
0.463866
0.165733
0.466537
0.165682
0.468694
0.164834
0.47041
0.163152
0.471734
0.160603
0.472684
0.157158
0.473242
0.152801
0.473359
0.14754
0.472966
0.141417
0.471982
0.134516
0.470335
0.126975
0.467973
0.118983
0.464882
0.110773
0.461093
0.102612
0.0947742
0.472634
0.15398
0.479612
0.156603
0.486026
0.158601
0.491844
0.159909
0.497057
0.160464
0.501672
0.160214
0.505705
0.159116
0.509169
0.157138
0.512069
0.15426
0.514392
0.150482
0.516114
0.145826
0.517195
0.140347
0.517592
0.134134
0.517268
0.127319
0.516201
0.120075
0.514395
0.112609
0.511886
0.105156
0.50874
0.0979595
0.0912653
0.489677
0.145113
0.498291
0.147984
0.506564
0.150323
0.514415
0.152053
0.521777
0.153097
0.5286
0.153389
0.534841
0.152873
0.540468
0.151511
0.545451
0.14928
0.549759
0.146179
0.55336
0.142234
0.556223
0.137497
0.558317
0.132057
0.559622
0.126035
0.560133
0.119589
0.559867
0.112906
0.558866
0.106193
0.557193
0.0996719
0.554936
0.0935663
0.0880291
0.504182
0.135453
0.513803
0.138358
0.523296
0.140825
0.532566
0.142779
0.54152
0.14414
0.550072
0.144836
0.55814
0.144804
0.565654
0.143999
0.572548
0.14239
0.578764
0.13997
0.584251
0.136758
0.588964
0.132798
0.592869
0.12817
0.595946
0.12298
0.598193
0.117369
0.599627
0.111503
0.600289
0.105567
0.60024
0.0997608
0.599563
0.0942881
0.598351
0.0892896
0.0860262
0.517032
0.125427
0.527169
0.128216
0.537342
0.130649
0.547461
0.132656
0.557434
0.134166
0.567161
0.135108
0.576546
0.13542
0.585495
0.135053
0.59392
0.133972
0.601737
0.132161
0.608876
0.129631
0.615273
0.126416
0.620882
0.12258
0.625672
0.118214
0.629631
0.113438
0.632769
0.108397
0.635119
0.103254
0.636734
0.0981863
0.637688
0.0933788
0.638067
0.0889597
0.0861321
0.528887
0.115296
0.539211
0.117889
0.549672
0.120186
0.560198
0.122129
0.570707
0.123657
0.581107
0.124708
0.591304
0.125227
0.601196
0.125165
0.610686
0.124488
0.619681
0.123177
0.628094
0.121232
0.635848
0.118678
0.642884
0.115565
0.649155
0.111967
0.654639
0.107983
0.659331
0.103738
0.663251
0.0993707
0.666442
0.0950368
0.668965
0.0909012
0.670895
0.0870791
0.0846984
0.540198
0.105205
0.550517
0.107569
0.561023
0.109678
0.571662
0.11149
0.582367
0.112953
0.593061
0.114017
0.603657
0.114635
0.614064
0.114764
0.624187
0.114374
0.633932
0.113444
0.643207
0.111971
0.651932
0.109971
0.660036
0.107483
0.667464
0.104564
0.67418
0.101297
0.680169
0.0977826
0.685437
0.094141
0.690011
0.0905045
0.693941
0.087017
0.697289
0.08378
0.0818328
0.551249
0.0952292
0.561468
0.09735
0.571894
0.0992529
0.582483
0.100902
0.593183
0.102256
0.603929
0.103275
0.614649
0.103921
0.625263
0.104158
0.635686
0.103961
0.645831
0.103311
0.655614
0.102204
0.664953
0.100652
0.673776
0.0986815
0.682026
0.0963407
0.689658
0.0936949
0.696648
0.0908273
0.70299
0.0878368
0.708701
0.0848354
0.713818
0.0819461
0.718393
0.0792558
0.0777052
0.562212
0.0853857
0.572302
0.0872613
0.582601
0.0889561
0.593072
0.0904331
0.603671
0.0916603
0.614346
0.0926056
0.625035
0.0932379
0.635673
0.0935299
0.646186
0.0934596
0.656498
0.093013
0.666534
0.0921861
0.676218
0.0909872
0.685485
0.0894385
0.694276
0.0875773
0.702546
0.0854562
0.710265
0.0831429
0.717422
0.0807186
0.724025
0.078276
0.730099
0.0759184
0.735687
0.0737182
0.0725124
0.573234
0.0756606
0.583194
0.077303
0.593357
0.078796
0.603692
0.0801027
0.61416
0.0811977
0.624717
0.0820552
0.635312
0.082651
0.645889
0.0829635
0.656386
0.0829758
0.666737
0.0826771
0.676876
0.0820646
0.68674
0.0811452
0.696266
0.0799366
0.705403
0.0784689
0.714107
0.0767844
0.722347
0.0749379
0.73011
0.0729953
0.737397
0.0710327
0.744227
0.0691351
0.750635
0.0673614
0.0664429
0.584445
0.0660486
0.594282
0.067469
0.604318
0.0687644
0.614523
0.0699031
0.624863
0.070864
0.6353
0.0716264
0.64579
0.0721712
0.656283
0.0724821
0.666726
0.0725461
0.677065
0.0723552
0.687241
0.0719079
0.697199
0.07121
0.706885
0.0702761
0.716252
0.0691305
0.725262
0.0678073
0.733886
0.0663504
0.742108
0.0648131
0.749928
0.0632569
0.75736
0.0617509
0.764432
0.0603417
0.059657
0.595959
0.0565376
0.605692
0.057741
0.615619
0.0588422
0.625714
0.0598144
0.635946
0.0606394
0.646281
0.0613009
0.656679
0.0617842
0.667097
0.0620768
0.677488
0.0621692
0.687806
0.0620556
0.697998
0.0617353
0.708018
0.0612133
0.717819
0.0605017
0.727359
0.0596199
0.736605
0.0585952
0.745529
0.0574627
0.754119
0.0562648
0.76237
0.0550506
0.770294
0.0538751
0.777913
0.0527746
0.0522753
0.607908
0.0471012
0.61756
0.0480935
0.627404
0.0490038
0.637415
0.0498099
0.647566
0.0504971
0.657824
0.0510527
0.668154
0.0514657
0.678517
0.0517268
0.688873
0.0518288
0.699179
0.0517679
0.709392
0.0515438
0.719468
0.0511609
0.729368
0.0506288
0.739055
0.0499631
0.748499
0.0491852
0.757677
0.0483226
0.766574
0.0474086
0.775188
0.0464818
0.783527
0.0455853
0.791608
0.0447473
0.0443993
0.620437
0.0377122
0.630036
0.038499
0.639825
0.0392209
0.649781
0.0398609
0.659879
0.0404083
0.670088
0.0408537
0.680377
0.041189
0.69071
0.0414073
0.701051
0.0415037
0.711363
0.0414753
0.721605
0.0413224
0.731742
0.0410486
0.741737
0.0406615
0.751558
0.0401729
0.761178
0.0395993
0.770577
0.0389619
0.779742
0.038286
0.788668
0.0376012
0.797363
0.0369402
0.805841
0.0363239
0.0360889
0.633711
0.0283397
0.643286
0.0289292
0.65305
0.0294619
0.662983
0.0299355
0.673058
0.0303417
0.683248
0.0306738
0.693523
0.0309259
0.703852
0.031093
0.7142
0.0311718
0.724534
0.0311603
0.734819
0.031059
0.745022
0.0308706
0.75511
0.0306008
0.765056
0.0302583
0.774835
0.0298553
0.784428
0.0294071
0.793824
0.0289325
0.803019
0.028453
0.812016
0.0279936
0.820824
0.0275711
0.0274409
0.647868
0.01895
0.657462
0.0193382
0.667242
0.0196867
0.677186
0.0199981
0.687271
0.0202649
0.697471
0.0204831
0.70776
0.0206489
0.718108
0.0207592
0.728484
0.020812
0.738857
0.0208062
0.749195
0.0207421
0.759469
0.0206218
0.769649
0.020449
0.779709
0.0202295
0.789628
0.0199714
0.799389
0.0196848
0.808982
0.0193824
0.818403
0.0190789
0.827657
0.0187913
0.836753
0.018531
0.0184636
0.663133
0.00950248
0.672787
0.00968641
0.682616
0.00986209
0.692602
0.0100171
0.702725
0.0101483
0.712963
0.0102543
0.723289
0.0103338
0.733676
0.0103855
0.744095
0.0104086
0.754517
0.0104026
0.764913
0.0103678
0.775254
0.0103051
0.785515
0.0102166
0.79567
0.0101051
0.805702
0.00997483
0.815595
0.00983101
0.825341
0.00968041
0.834936
0.00953162
0.844383
0.00939634
0.853681
0.0092892
0.0093244
0.669583
0.679271
0.689135
0.699157
0.709311
0.719574
0.729918
0.740316
0.75074
0.761161
0.77155
0.781879
0.792124
0.802261
0.812271
0.822142
0.831866
0.841446
0.850896
0.860243
)
;

boundaryField
{
    inlet
    {
        type            calculated;
        value           nonuniform 0();
    }
    outlet
    {
        type            calculated;
        value           nonuniform List<scalar> 
15
(
0.596735
0.638013
0.672381
0.700207
0.722573
0.740933
0.756759
0.771272
0.785351
0.79954
0.814209
0.82953
0.84579
0.862881
0.869629
)
;
    }
    flap
    {
        type            calculated;
        value           nonuniform 0();
    }
    upperWall
    {
        type            calculated;
        value           nonuniform List<scalar> 
21
(
0
0
0
0
0
0
0
0
0
-8.42309e-15
7.99291e-20
0
4.42707e-15
0
0
0
0
0
0
0
0
)
;
    }
    lowerWall
    {
        type            calculated;
        value           nonuniform 0();
    }
    frontAndBack
    {
        type            empty;
        value           nonuniform 0();
    }
    procBoundary2to1
    {
        type            processor;
        value           nonuniform List<scalar> 
17
(
-0.465154
-0.480817
-0.494529
-0.507011
-0.51876
-0.53011
-0.541276
-0.552369
-0.563508
-0.574831
-0.586446
-0.598468
-0.611045
-0.624337
-0.638477
-0.653686
-0.660083
)
;
    }
    procBoundary2to4
    {
        type            processor;
        value           nonuniform List<scalar> 
11
(
-0.0808073
-0.112533
-0.14863
-0.19
-0.23532
-0.281374
-0.324867
-0.363604
-0.396664
-0.424106
-0.446604
)
;
    }
    procBoundary2to5
    {
        type            processor;
        value           nonuniform List<scalar> 
34
(
-0.120368
-0.125993
0.0726335
-0.135086
-0.138512
0.09644
-0.145179
0.12848
-0.150019
-0.149288
0.160285
-0.150634
-0.1466
0.196062
-0.144348
0.238138
-0.14029
-0.131795
0.278906
-0.125666
0.324118
-0.119298
-0.109025
0.366169
-0.1035
0.413278
-0.0987885
-0.0903112
0.45667
-0.0875278
0.505047
-0.0852378
0.552193
-0.0843586
)
;
    }
}


// ************************************************************************* //
