/*--------------------------------*- C++ -*----------------------------------*\
| =========                 |                                                 |
| \\      /  F ield         | OpenFOAM: The Open Source CFD Toolbox           |
|  \\    /   O peration     | Version:  dev                                   |
|   \\  /    A nd           | Web:      www.OpenFOAM.org                      |
|    \\/     M anipulation  |                                                 |
\*---------------------------------------------------------------------------*/
FoamFile
{
    version     2.0;
    format      ascii;
    class       pointVectorField;
    location    "1";
    object      pointDisplacement;
}
// * * * * * * * * * * * * * * * * * * * * * * * * * * * * * * * * * * * * * //

dimensions      [0 1 0 0 0 0 0];

internalField   nonuniform List<vector> 
1030
(
(0.333003 0 -0.0738091)
(0.326552 0 -0.0713588)
(0.319863 0 -0.0687654)
(0.334933 0 -0.0735468)
(0.328458 0 -0.0713004)
(0.321688 0 -0.0688841)
(0.314559 0 -0.0663216)
(0.306994 0 -0.0636321)
(0.335947 0 -0.0730103)
(0.329546 0 -0.0709685)
(0.322785 0 -0.0687338)
(0.315614 0 -0.0663307)
(0.307967 0 -0.0637794)
(0.299764 0 -0.0610969)
(0.336116 0 -0.0722427)
(0.329857 0 -0.0703976)
(0.323175 0 -0.0683419)
(0.31603 0 -0.0660997)
(0.308367 0 -0.0636912)
(0.300114 0 -0.0611333)
(0.291194 0 -0.0584402)
(0.281513 0 -0.0556226)
(0.335512 0 -0.0712814)
(0.32944 0 -0.0696191)
(0.322887 0 -0.0677344)
(0.315821 0 -0.0656496)
(0.308194 0 -0.0633839)
(0.299944 0 -0.0609535)
(0.290999 0 -0.0583719)
(0.281276 0 -0.0556498)
(0.270681 0 -0.0527947)
(0.259115 0 -0.049811)
(0.334207 0 -0.0701567)
(0.328349 0 -0.06866)
(0.321959 0 -0.0669346)
(0.31501 0 -0.0649999)
(0.307459 0 -0.0628734)
(0.299254 0 -0.0605701)
(0.290327 0 -0.0581025)
(0.280602 0 -0.0554804)
(0.269992 0 -0.0527112)
(0.258402 0 -0.049799)
(0.245731 0 -0.0467453)
(0.332269 0 -0.0688922)
(0.326637 0 -0.0675425)
(0.32043 0 -0.0659624)
(0.313624 0 -0.0641682)
(0.306182 0 -0.0621749)
(0.298055 0 -0.0599956)
(0.28918 0 -0.0576415)
(0.279488 0 -0.0551218)
(0.268897 0 -0.0524429)
(0.257317 0 -0.0496087)
(0.244653 0 -0.0466203)
(0.2308 0 -0.0434757)
(0.21565 0 -0.0401693)
(0.329764 0 -0.0675052)
(0.324358 0 -0.0662839)
(0.318344 0 -0.0648344)
(0.311699 0 -0.0631695)
(0.304387 0 -0.0613015)
(0.296362 0 -0.0592415)
(0.287567 0 -0.0569989)
(0.277937 0 -0.0545818)
(0.267395 0 -0.0519958)
(0.255857 0 -0.0492443)
(0.24323 0 -0.046328)
(0.229414 0 -0.0432446)
(0.214305 0 -0.0399887)
(0.19779 0 -0.0365514)
(0.326752 0 -0.0660073)
(0.321565 0 -0.0648969)
(0.315745 0 -0.0635633)
(0.309269 0 -0.0620161)
(0.302101 0 -0.0602647)
(0.294197 0 -0.0583179)
(0.285505 0 -0.0561835)
(0.275961 0 -0.0538679)
(0.265494 0 -0.051376)
(0.254023 0 -0.0487104)
(0.24146 0 -0.0458714)
(0.22771 0 -0.0428566)
(0.212671 0 -0.0396604)
(0.196235 0 -0.0362741)
(0.178288 0 -0.0326855)
(0.158709 0 -0.028878)
(0.32329 0 -0.0644056)
(0.318309 0 -0.06339)
(0.312679 0 -0.0621586)
(0.306373 0 -0.0607175)
(0.299357 0 -0.0590736)
(0.291588 0 -0.0572333)
(0.283014 0 -0.0552028)
(0.273576 0 -0.0529869)
(0.263205 0 -0.0505893)
(0.251824 0 -0.0480119)
(0.23935 0 -0.0452543)
(0.22569 0 -0.0423141)
(0.210749 0 -0.0391858)
(0.19442 0 -0.0358609)
(0.176594 0 -0.0323276)
(0.157156 0 -0.0285705)
(0.135987 0 -0.0245704)
(0.31943 0 -0.0627028)
(0.31464 0 -0.0617683)
(0.309191 0 -0.0606263)
(0.303053 0 -0.0592804)
(0.296191 0 -0.057735)
(0.288564 0 -0.0559946)
(0.280121 0 -0.0540632)
(0.270803 0 -0.0519445)
(0.260546 0 -0.0496407)
(0.249275 0 -0.047153)
(0.23691 0 -0.0444805)
(0.223364 0 -0.0416204)
(0.208543 0 -0.0385672)
(0.192347 0 -0.0353129)
(0.17467 0 -0.0318462)
(0.155401 0 -0.0281524)
(0.134424 0 -0.0242134)
(0.111621 0 -0.0200076)
(0.0868669 0 -0.0155085)
(0.315225 0 -0.060899)
(0.310608 0 -0.0600333)
(0.305326 0 -0.0589695)
(0.29935 0 -0.0577089)
(0.292642 0 -0.0562537)
(0.28516 0 -0.0546064)
(0.276855 0 -0.0527695)
(0.267669 0 -0.0507451)
(0.257539 0 -0.0485344)
(0.246395 0 -0.0461375)
(0.234159 0 -0.0435532)
(0.220746 0 -0.0407781)
(0.206068 0 -0.037807)
(0.190027 0 -0.0346319)
(0.172523 0 -0.0312422)
(0.153449 0 -0.0276242)
(0.132694 0 -0.0237609)
(0.110143 0 -0.019632)
(0.0856762 0 -0.0152131)
(0.0591721 0 -0.0104765)
(0.310724 0 -0.058991)
(0.30626 0 -0.0581838)
(0.301133 0 -0.0571886)
(0.295308 0 -0.0560044)
(0.28875 0 -0.0546318)
(0.281413 0 -0.0530715)
(0.27325 0 -0.0513246)
(0.264203 0 -0.0493918)
(0.254212 0 -0.0472732)
(0.243208 0 -0.0449682)
(0.231115 0 -0.0424749)
(0.217854 0 -0.0397896)
(0.203338 0 -0.036907)
(0.187475 0 -0.0338196)
(0.170167 0 -0.0305172)
(0.151312 0 -0.0269871)
(0.130804 0 -0.0232135)
(0.108535 0 -0.0191776)
(0.0843892 0 -0.014857)
(0.0582534 0 -0.0102267)
(0.0299817 0 -0.00525318)
(0.305974 0 -0.0569724)
(0.301644 0 -0.0562157)
(0.296656 0 -0.0552809)
(0.290974 0 -0.0541657)
(0.284557 0 -0.0528692)
(0.277364 0 -0.0513907)
(0.269343 0 -0.0497298)
(0.260441 0 -0.0478861)
(0.250596 0 -0.045859)
(0.239742 0 -0.0436468)
(0.227807 0 -0.0412472)
(0.214713 0 -0.0386564)
(0.200376 0 -0.0358689)
(0.184708 0 -0.0328774)
(0.167617 0 -0.0296726)
(0.149004 0 -0.0262423)
(0.128769 0 -0.0225722)
(0.106807 0 -0.018645)
(0.083012 0 -0.0144404)
(0.0572769 0 -0.00993596)
(0.0294665 0 -0.00510141)
(0 0 0)
(0.30102 0 -0.0548348)
(0.296807 0 -0.054122)
(0.291944 0 -0.0532413)
(0.286392 0 -0.0521892)
(0.280111 0 -0.0509634)
(0.273056 0 -0.0495621)
(0.265177 0 -0.0479841)
(0.256421 0 -0.0462278)
(0.246728 0 -0.0442917)
(0.236032 0 -0.0421737)
(0.224264 0 -0.0398708)
(0.211349 0 -0.0373792)
(0.197206 0 -0.0346933)
(0.181751 0 -0.0318061)
(0.164894 0 -0.0287089)
(0.146543 0 -0.0253905)
(0.126602 0 -0.0218377)
(0.104972 0 -0.0180348)
(0.0815535 0 -0.0139636)
(0.0562462 0 -0.00960396)
(0.028925 0 -0.00492876)
(0 0 0)
(0.295909 0 -0.052567)
(0.291798 0 -0.0518937)
(0.287045 0 -0.0510622)
(0.281612 0 -0.0500684)
(0.275457 0 -0.0489092)
(0.268535 0 -0.047582)
(0.260796 0 -0.0460844)
(0.252186 0 -0.0444144)
(0.242646 0 -0.0425696)
(0.232114 0 -0.0405475)
(0.220522 0 -0.0383448)
(0.207795 0 -0.0359573)
(0.193858 0 -0.0333798)
(0.178629 0 -0.0306056)
(0.162023 0 -0.0276263)
(0.143951 0 -0.0244319)
(0.124323 0 -0.0210103)
(0.103046 0 -0.0173474)
(0.0800248 0 -0.0134269)
(0.0551684 0 -0.00923077)
(0.0283599 0 -0.00473509)
(0 0 0)
(0.290691 0 -0.0501562)
(0.286666 0 -0.0495189)
(0.28201 0 -0.0487333)
(0.276685 0 -0.0477946)
(0.270647 0 -0.0466991)
(0.263851 0 -0.0454437)
(0.256247 0 -0.0440253)
(0.247782 0 -0.0424413)
(0.238397 0 -0.040689)
(0.228032 0 -0.0387652)
(0.216619 0 -0.0366666)
(0.204089 0 -0.0343889)
(0.190367 0 -0.031927)
(0.175375 0 -0.0292746)
(0.159031 0 -0.026424)
(0.141253 0 -0.0233659)
(0.121953 0 -0.0200897)
(0.101044 0 -0.0165825)
(0.0784394 0 -0.01283)
(0.0540523 0 -0.00881636)
(0.0277756 0 -0.00452037)
(0 0 0)
(0.285417 0 -0.0475868)
(0.281463 0 -0.0469833)
(0.276893 0 -0.0462414)
(0.271665 0 -0.0453558)
(0.265735 0 -0.0443226)
(0.259057 0 -0.043138)
(0.251583 0 -0.0417987)
(0.243259 0 -0.0403016)
(0.234029 0 -0.0386437)
(0.223831 0 -0.0368216)
(0.212601 0 -0.0348318)
(0.200272 0 -0.0326701)
(0.18677 0 -0.0303317)
(0.172023 0 -0.0278106)
(0.155951 0 -0.0250998)
(0.138476 0 -0.022191)
(0.119516 0 -0.0190746)
(0.0989888 0 -0.0157393)
(0.0768127 0 -0.0121725)
(0.0529087 0 -0.00836043)
(0.0271777 0 -0.00428449)
(0 0 0)
(0.280137 0 -0.0448383)
(0.276246 0 -0.0442686)
(0.27175 0 -0.04357)
(0.266608 0 -0.0427372)
(0.260777 0 -0.041766)
(0.254211 0 -0.0406526)
(0.246861 0 -0.0393935)
(0.238674 0 -0.0379853)
(0.229594 0 -0.0364249)
(0.219563 0 -0.0347089)
(0.208516 0 -0.0328336)
(0.196389 0 -0.0307952)
(0.183112 0 -0.0285889)
(0.168613 0 -0.0262094)
(0.152819 0 -0.0236504)
(0.135654 0 -0.0209044)
(0.11704 0 -0.017963)
(0.0969018 0 -0.0148163)
(0.0751626 0 -0.0114534)
(0.0517496 0 -0.00786233)
(0.0265723 0 -0.00402715)
(0 0 0)
(0.274913 0 -0.0418895)
(0.271076 0 -0.0413547)
(0.266644 0 -0.0406996)
(0.261579 0 -0.0399202)
(0.255838 0 -0.0390121)
(0.249375 0 -0.0379717)
(0.242141 0 -0.0367952)
(0.234086 0 -0.0354794)
(0.225152 0 -0.0340209)
(0.215283 0 -0.0324165)
(0.204418 0 -0.0306627)
(0.192492 0 -0.0287558)
(0.179439 0 -0.0266915)
(0.16519 0 -0.024465)
(0.149674 0 -0.0220706)
(0.132821 0 -0.0195019)
(0.114556 0 -0.0167515)
(0.094809 0 -0.0138109)
(0.0735089 0 -0.0106707)
(0.0505889 0 -0.00732093)
(0.0259665 0 -0.00374781)
(0 0 0)
(0.269812 0 -0.0387164)
(0.266019 0 -0.0382167)
(0.26164 0 -0.0376065)
(0.256643 0 -0.0368823)
(0.250983 0 -0.0360399)
(0.244615 0 -0.0350755)
(0.237491 0 -0.0339856)
(0.229559 0 -0.0327669)
(0.220766 0 -0.0314163)
(0.211055 0 -0.0299306)
(0.200366 0 -0.0283067)
(0.188637 0 -0.0265411)
(0.175804 0 -0.0246299)
(0.161802 0 -0.022569)
(0.146562 0 -0.0203535)
(0.130017 0 -0.0179777)
(0.112098 0 -0.0154354)
(0.0927391 0 -0.0127195)
(0.071874 0 -0.00982201)
(0.0494419 0 -0.00673456)
(0.0253683 0 -0.00344568)
(0 0 0)
(0.264902 0 -0.0352857)
(0.261143 0 -0.0348235)
(0.256812 0 -0.0342613)
(0.251874 0 -0.0335959)
(0.246287 0 -0.0328232)
(0.240006 0 -0.0319396)
(0.232983 0 -0.0309418)
(0.225167 0 -0.0298269)
(0.216507 0 -0.0285918)
(0.206945 0 -0.0272337)
(0.196425 0 -0.0257496)
(0.184886 0 -0.0241367)
(0.172267 0 -0.0223915)
(0.158504 0 -0.0205105)
(0.143532 0 -0.0184895)
(0.127287 0 -0.0163239)
(0.109705 0 -0.0140084)
(0.090724 0 -0.0115371)
(0.0702826 0 -0.00890359)
(0.0483258 0 -0.0061009)
(0.0247865 0 -0.00311963)
(0 0 0)
(0.260259 0 -0.0315587)
(0.25653 0 -0.0311385)
(0.252239 0 -0.0306292)
(0.247354 0 -0.0300276)
(0.241832 0 -0.0293304)
(0.235629 0 -0.0285343)
(0.228698 0 -0.0276362)
(0.22099 0 -0.0266334)
(0.212452 0 -0.0255234)
(0.20303 0 -0.0243036)
(0.192669 0 -0.0229716)
(0.18131 0 -0.0215247)
(0.168892 0 -0.0199604)
(0.155356 0 -0.0182756)
(0.140639 0 -0.0164668)
(0.124681 0 -0.0145305)
(0.10742 0 -0.0124622)
(0.0887994 0 -0.0102574)
(0.0687626 0 -0.0079108)
(0.0472597 0 -0.0054169)
(0.0242307 0 -0.00276814)
(0 0 0)
(0.255977 0 -0.0274917)
(0.252272 0 -0.0271189)
(0.248015 0 -0.0266684)
(0.243175 0 -0.0261377)
(0.23771 0 -0.0255237)
(0.231576 0 -0.0248235)
(0.224727 0 -0.0240346)
(0.217115 0 -0.0231547)
(0.208688 0 -0.0221817)
(0.199395 0 -0.0211134)
(0.189179 0 -0.0199479)
(0.177984 0 -0.0186831)
(0.165753 0 -0.0173169)
(0.152427 0 -0.0158469)
(0.137946 0 -0.0142705)
(0.122254 0 -0.0125849)
(0.105291 0 -0.0107867)
(0.0870057 0 -0.00887229)
(0.0673453 0 -0.0068377)
(0.0462652 0 -0.00467867)
(0.0237121 0 -0.00238934)
(0 0 0)
(0.252159 0 -0.0230319)
(0.248472 0 -0.0227131)
(0.244243 0 -0.0223294)
(0.239441 0 -0.0218782)
(0.234024 0 -0.0213572)
(0.227949 0 -0.0207638)
(0.221171 0 -0.0200963)
(0.213643 0 -0.0193526)
(0.205314 0 -0.0185312)
(0.196133 0 -0.0176304)
(0.186046 0 -0.0166488)
(0.174998 0 -0.0155848)
(0.162932 0 -0.0144369)
(0.149793 0 -0.0132034)
(0.135524 0 -0.0118824)
(0.120069 0 -0.0104718)
(0.103374 0 -0.00896918)
(0.0853889 0 -0.0073719)
(0.0660666 0 -0.00567703)
(0.0453671 0 -0.00388148)
(0.0232434 0 -0.00198086)
(0 0 0)
(0.248921 0 -0.0181152)
(0.245249 0 -0.0178589)
(0.241043 0 -0.0175523)
(0.236271 0 -0.0171919)
(0.230893 0 -0.016776)
(0.224866 0 -0.0163032)
(0.218147 0 -0.0157719)
(0.210688 0 -0.0151809)
(0.202441 0 -0.014529)
(0.193354 0 -0.0138152)
(0.183374 0 -0.0130384)
(0.172449 0 -0.0121976)
(0.160524 0 -0.0112918)
(0.147544 0 -0.0103199)
(0.133453 0 -0.00928077)
(0.118199 0 -0.0081729)
(0.101732 0 -0.00699473)
(0.0840023 0 -0.00574449)
(0.0649682 0 -0.00442017)
(0.044594 0 -0.00301968)
(0.0228393 0 -0.00153995)
(0 0 0)
(0.246401 0 -0.0126689)
(0.242743 0 -0.0124856)
(0.238554 0 -0.0122669)
(0.233802 0 -0.0120102)
(0.228452 0 -0.0117145)
(0.222462 0 -0.0113789)
(0.215787 0 -0.0110025)
(0.208381 0 -0.0105845)
(0.200195 0 -0.0101241)
(0.19118 0 -0.0096207)
(0.181284 0 -0.00907382)
(0.170455 0 -0.00848288)
(0.158637 0 -0.00784734)
(0.145779 0 -0.0071666)
(0.131828 0 -0.00643999)
(0.11673 0 -0.00566671)
(0.100439 0 -0.00484586)
(0.0829086 0 -0.00397638)
(0.0640997 0 -0.00305709)
(0.0439807 0 -0.00208673)
(0.0225177 0 -0.0010634)
(0 0 0)
(0.24476 0 -0.00660257)
(0.241108 0 -0.00650518)
(0.236928 0 -0.00638758)
(0.23219 0 -0.00625088)
(0.226858 0 -0.00609427)
(0.22089 0 -0.00591699)
(0.214244 0 -0.00571853)
(0.206871 0 -0.00549846)
(0.198726 0 -0.00525647)
(0.189757 0 -0.00499229)
(0.179914 0 -0.0047057)
(0.169146 0 -0.0043965)
(0.157398 0 -0.00406448)
(0.14462 0 -0.0037094)
(0.130758 0 -0.003331)
(0.115762 0 -0.00292895)
(0.0995849 0 -0.00250285)
(0.0821838 0 -0.00205226)
(0.0635216 0 -0.00157663)
(0.0435701 0 -0.00107539)
(0.0223011 0 -0.000547666)
(0 0 0)
(0.244181 0 0)
(0.240527 0 0)
(0.236349 0 0)
(0.231617 0 0)
(0.226292 0 0)
(0.220333 0 0)
(0.213696 0 0)
(0.206335 0 0)
(0.198203 0 0)
(0.189251 0 0)
(0.179427 0 0)
(0.16868 0 0)
(0.156958 0 0)
(0.144207 0 0)
(0.130377 0 0)
(0.115417 0 0)
(0.0992807 0 0)
(0.0819259 0 0)
(0.0633162 0 0)
(0.0434252 0 0)
(0.0222274 0 0)
(0 0 0)
(0.333003 0 -0.0738091)
(0.326552 0 -0.0713588)
(0.319863 0 -0.0687654)
(0.334933 0 -0.0735468)
(0.328458 0 -0.0713004)
(0.321688 0 -0.0688841)
(0.314559 0 -0.0663216)
(0.306994 0 -0.0636321)
(0.335947 0 -0.0730103)
(0.329546 0 -0.0709685)
(0.322785 0 -0.0687338)
(0.315614 0 -0.0663307)
(0.307967 0 -0.0637794)
(0.299764 0 -0.0610969)
(0.336116 0 -0.0722427)
(0.329857 0 -0.0703976)
(0.323175 0 -0.0683419)
(0.31603 0 -0.0660997)
(0.308367 0 -0.0636912)
(0.300114 0 -0.0611333)
(0.291194 0 -0.0584402)
(0.281513 0 -0.0556226)
(0.335512 0 -0.0712814)
(0.32944 0 -0.0696191)
(0.322887 0 -0.0677344)
(0.315821 0 -0.0656496)
(0.308194 0 -0.0633839)
(0.299944 0 -0.0609535)
(0.290999 0 -0.0583719)
(0.281276 0 -0.0556498)
(0.270681 0 -0.0527947)
(0.259115 0 -0.049811)
(0.334207 0 -0.0701567)
(0.328349 0 -0.06866)
(0.321959 0 -0.0669346)
(0.31501 0 -0.0649999)
(0.307459 0 -0.0628734)
(0.299254 0 -0.0605701)
(0.290327 0 -0.0581025)
(0.280602 0 -0.0554804)
(0.269992 0 -0.0527112)
(0.258402 0 -0.049799)
(0.245731 0 -0.0467453)
(0.332269 0 -0.0688922)
(0.326637 0 -0.0675425)
(0.32043 0 -0.0659624)
(0.313624 0 -0.0641682)
(0.306182 0 -0.0621749)
(0.298055 0 -0.0599956)
(0.28918 0 -0.0576415)
(0.279488 0 -0.0551218)
(0.268897 0 -0.0524429)
(0.257317 0 -0.0496087)
(0.244653 0 -0.0466203)
(0.2308 0 -0.0434757)
(0.21565 0 -0.0401693)
(0.329764 0 -0.0675052)
(0.324358 0 -0.0662839)
(0.318344 0 -0.0648344)
(0.311699 0 -0.0631695)
(0.304387 0 -0.0613015)
(0.296362 0 -0.0592415)
(0.287567 0 -0.0569989)
(0.277937 0 -0.0545818)
(0.267395 0 -0.0519958)
(0.255857 0 -0.0492443)
(0.24323 0 -0.046328)
(0.229414 0 -0.0432446)
(0.214305 0 -0.0399887)
(0.19779 0 -0.0365514)
(0.326752 0 -0.0660073)
(0.321565 0 -0.0648969)
(0.315745 0 -0.0635633)
(0.309269 0 -0.0620161)
(0.302101 0 -0.0602647)
(0.294197 0 -0.0583179)
(0.285505 0 -0.0561835)
(0.275961 0 -0.0538679)
(0.265494 0 -0.051376)
(0.254023 0 -0.0487104)
(0.24146 0 -0.0458714)
(0.22771 0 -0.0428566)
(0.212671 0 -0.0396604)
(0.196235 0 -0.0362741)
(0.178288 0 -0.0326855)
(0.158709 0 -0.028878)
(0.32329 0 -0.0644056)
(0.318309 0 -0.06339)
(0.312679 0 -0.0621586)
(0.306373 0 -0.0607175)
(0.299357 0 -0.0590736)
(0.291588 0 -0.0572333)
(0.283014 0 -0.0552028)
(0.273576 0 -0.0529869)
(0.263205 0 -0.0505893)
(0.251824 0 -0.0480119)
(0.23935 0 -0.0452543)
(0.22569 0 -0.0423141)
(0.210749 0 -0.0391858)
(0.19442 0 -0.0358609)
(0.176594 0 -0.0323276)
(0.157156 0 -0.0285705)
(0.135987 0 -0.0245704)
(0.31943 0 -0.0627028)
(0.31464 0 -0.0617683)
(0.309191 0 -0.0606263)
(0.303053 0 -0.0592804)
(0.296191 0 -0.057735)
(0.288564 0 -0.0559946)
(0.280121 0 -0.0540632)
(0.270803 0 -0.0519445)
(0.260546 0 -0.0496407)
(0.249275 0 -0.047153)
(0.23691 0 -0.0444805)
(0.223364 0 -0.0416204)
(0.208543 0 -0.0385672)
(0.192347 0 -0.0353129)
(0.17467 0 -0.0318462)
(0.155401 0 -0.0281524)
(0.134424 0 -0.0242134)
(0.111621 0 -0.0200076)
(0.0868669 0 -0.0155085)
(0.315225 0 -0.060899)
(0.310608 0 -0.0600333)
(0.305326 0 -0.0589695)
(0.29935 0 -0.0577089)
(0.292642 0 -0.0562537)
(0.28516 0 -0.0546064)
(0.276855 0 -0.0527695)
(0.267669 0 -0.0507451)
(0.257539 0 -0.0485344)
(0.246395 0 -0.0461375)
(0.234159 0 -0.0435532)
(0.220746 0 -0.0407781)
(0.206068 0 -0.037807)
(0.190027 0 -0.0346319)
(0.172523 0 -0.0312422)
(0.153449 0 -0.0276242)
(0.132694 0 -0.0237609)
(0.110143 0 -0.019632)
(0.0856762 0 -0.0152131)
(0.0591721 0 -0.0104765)
(0.310724 0 -0.058991)
(0.30626 0 -0.0581838)
(0.301133 0 -0.0571886)
(0.295308 0 -0.0560044)
(0.28875 0 -0.0546318)
(0.281413 0 -0.0530715)
(0.27325 0 -0.0513246)
(0.264203 0 -0.0493918)
(0.254212 0 -0.0472732)
(0.243208 0 -0.0449682)
(0.231115 0 -0.0424749)
(0.217854 0 -0.0397896)
(0.203338 0 -0.036907)
(0.187475 0 -0.0338196)
(0.170167 0 -0.0305172)
(0.151312 0 -0.0269871)
(0.130804 0 -0.0232135)
(0.108535 0 -0.0191776)
(0.0843892 0 -0.014857)
(0.0582534 0 -0.0102267)
(0.0299817 0 -0.00525318)
(0.305974 0 -0.0569724)
(0.301644 0 -0.0562157)
(0.296656 0 -0.0552809)
(0.290974 0 -0.0541657)
(0.284557 0 -0.0528692)
(0.277364 0 -0.0513907)
(0.269343 0 -0.0497298)
(0.260441 0 -0.0478861)
(0.250596 0 -0.045859)
(0.239742 0 -0.0436468)
(0.227807 0 -0.0412472)
(0.214713 0 -0.0386564)
(0.200376 0 -0.0358689)
(0.184708 0 -0.0328774)
(0.167617 0 -0.0296726)
(0.149004 0 -0.0262423)
(0.128769 0 -0.0225722)
(0.106807 0 -0.018645)
(0.083012 0 -0.0144404)
(0.0572769 0 -0.00993596)
(0.0294665 0 -0.00510141)
(0 0 0)
(0.30102 0 -0.0548348)
(0.296807 0 -0.054122)
(0.291944 0 -0.0532413)
(0.286392 0 -0.0521892)
(0.280111 0 -0.0509634)
(0.273056 0 -0.0495621)
(0.265177 0 -0.0479841)
(0.256421 0 -0.0462278)
(0.246728 0 -0.0442917)
(0.236032 0 -0.0421737)
(0.224264 0 -0.0398708)
(0.211349 0 -0.0373792)
(0.197206 0 -0.0346933)
(0.181751 0 -0.0318061)
(0.164894 0 -0.0287089)
(0.146543 0 -0.0253905)
(0.126602 0 -0.0218377)
(0.104972 0 -0.0180348)
(0.0815535 0 -0.0139636)
(0.0562462 0 -0.00960396)
(0.028925 0 -0.00492876)
(0 0 0)
(0.295909 0 -0.052567)
(0.291798 0 -0.0518937)
(0.287045 0 -0.0510622)
(0.281612 0 -0.0500684)
(0.275457 0 -0.0489092)
(0.268535 0 -0.047582)
(0.260796 0 -0.0460844)
(0.252186 0 -0.0444144)
(0.242646 0 -0.0425696)
(0.232114 0 -0.0405475)
(0.220522 0 -0.0383448)
(0.207795 0 -0.0359573)
(0.193858 0 -0.0333798)
(0.178629 0 -0.0306056)
(0.162023 0 -0.0276263)
(0.143951 0 -0.0244319)
(0.124323 0 -0.0210103)
(0.103046 0 -0.0173474)
(0.0800248 0 -0.0134269)
(0.0551684 0 -0.00923077)
(0.0283599 0 -0.00473509)
(0 0 0)
(0.290691 0 -0.0501562)
(0.286666 0 -0.0495189)
(0.28201 0 -0.0487333)
(0.276685 0 -0.0477946)
(0.270647 0 -0.0466991)
(0.263851 0 -0.0454437)
(0.256247 0 -0.0440253)
(0.247782 0 -0.0424413)
(0.238397 0 -0.040689)
(0.228032 0 -0.0387652)
(0.216619 0 -0.0366666)
(0.204089 0 -0.0343889)
(0.190367 0 -0.031927)
(0.175375 0 -0.0292746)
(0.159031 0 -0.026424)
(0.141253 0 -0.0233659)
(0.121953 0 -0.0200897)
(0.101044 0 -0.0165825)
(0.0784394 0 -0.01283)
(0.0540523 0 -0.00881636)
(0.0277756 0 -0.00452037)
(0 0 0)
(0.285417 0 -0.0475868)
(0.281463 0 -0.0469833)
(0.276893 0 -0.0462414)
(0.271665 0 -0.0453558)
(0.265735 0 -0.0443226)
(0.259057 0 -0.043138)
(0.251583 0 -0.0417987)
(0.243259 0 -0.0403016)
(0.234029 0 -0.0386437)
(0.223831 0 -0.0368216)
(0.212601 0 -0.0348318)
(0.200272 0 -0.0326701)
(0.18677 0 -0.0303317)
(0.172023 0 -0.0278106)
(0.155951 0 -0.0250998)
(0.138476 0 -0.022191)
(0.119516 0 -0.0190746)
(0.0989888 0 -0.0157393)
(0.0768127 0 -0.0121725)
(0.0529087 0 -0.00836043)
(0.0271777 0 -0.00428449)
(0 0 0)
(0.280137 0 -0.0448383)
(0.276246 0 -0.0442686)
(0.27175 0 -0.04357)
(0.266608 0 -0.0427372)
(0.260777 0 -0.041766)
(0.254211 0 -0.0406526)
(0.246861 0 -0.0393935)
(0.238674 0 -0.0379853)
(0.229594 0 -0.0364249)
(0.219563 0 -0.0347089)
(0.208516 0 -0.0328336)
(0.196389 0 -0.0307952)
(0.183112 0 -0.0285889)
(0.168613 0 -0.0262094)
(0.152819 0 -0.0236504)
(0.135654 0 -0.0209044)
(0.11704 0 -0.017963)
(0.0969018 0 -0.0148163)
(0.0751626 0 -0.0114534)
(0.0517496 0 -0.00786233)
(0.0265723 0 -0.00402715)
(0 0 0)
(0.274913 0 -0.0418895)
(0.271076 0 -0.0413547)
(0.266644 0 -0.0406996)
(0.261579 0 -0.0399202)
(0.255838 0 -0.0390121)
(0.249375 0 -0.0379717)
(0.242141 0 -0.0367952)
(0.234086 0 -0.0354794)
(0.225152 0 -0.0340209)
(0.215283 0 -0.0324165)
(0.204418 0 -0.0306627)
(0.192492 0 -0.0287558)
(0.179439 0 -0.0266915)
(0.16519 0 -0.024465)
(0.149674 0 -0.0220706)
(0.132821 0 -0.0195019)
(0.114556 0 -0.0167515)
(0.094809 0 -0.0138109)
(0.0735089 0 -0.0106707)
(0.0505889 0 -0.00732093)
(0.0259665 0 -0.00374781)
(0 0 0)
(0.269812 0 -0.0387164)
(0.266019 0 -0.0382167)
(0.26164 0 -0.0376065)
(0.256643 0 -0.0368823)
(0.250983 0 -0.0360399)
(0.244615 0 -0.0350755)
(0.237491 0 -0.0339856)
(0.229559 0 -0.0327669)
(0.220766 0 -0.0314163)
(0.211055 0 -0.0299306)
(0.200366 0 -0.0283067)
(0.188637 0 -0.0265411)
(0.175804 0 -0.0246299)
(0.161802 0 -0.022569)
(0.146562 0 -0.0203535)
(0.130017 0 -0.0179777)
(0.112098 0 -0.0154354)
(0.0927391 0 -0.0127195)
(0.071874 0 -0.00982201)
(0.0494419 0 -0.00673456)
(0.0253683 0 -0.00344568)
(0 0 0)
(0.264902 0 -0.0352857)
(0.261143 0 -0.0348235)
(0.256812 0 -0.0342613)
(0.251874 0 -0.0335959)
(0.246287 0 -0.0328232)
(0.240006 0 -0.0319396)
(0.232983 0 -0.0309418)
(0.225167 0 -0.0298269)
(0.216507 0 -0.0285918)
(0.206945 0 -0.0272337)
(0.196425 0 -0.0257496)
(0.184886 0 -0.0241367)
(0.172267 0 -0.0223915)
(0.158504 0 -0.0205105)
(0.143532 0 -0.0184895)
(0.127287 0 -0.0163239)
(0.109705 0 -0.0140084)
(0.090724 0 -0.0115371)
(0.0702826 0 -0.00890359)
(0.0483258 0 -0.0061009)
(0.0247865 0 -0.00311963)
(0 0 0)
(0.260259 0 -0.0315587)
(0.25653 0 -0.0311385)
(0.252239 0 -0.0306292)
(0.247354 0 -0.0300276)
(0.241832 0 -0.0293304)
(0.235629 0 -0.0285343)
(0.228698 0 -0.0276362)
(0.22099 0 -0.0266334)
(0.212452 0 -0.0255234)
(0.20303 0 -0.0243036)
(0.192669 0 -0.0229716)
(0.18131 0 -0.0215247)
(0.168892 0 -0.0199604)
(0.155356 0 -0.0182756)
(0.140639 0 -0.0164668)
(0.124681 0 -0.0145305)
(0.10742 0 -0.0124622)
(0.0887994 0 -0.0102574)
(0.0687626 0 -0.0079108)
(0.0472597 0 -0.0054169)
(0.0242307 0 -0.00276814)
(0 0 0)
(0.255977 0 -0.0274917)
(0.252272 0 -0.0271189)
(0.248015 0 -0.0266684)
(0.243175 0 -0.0261377)
(0.23771 0 -0.0255237)
(0.231576 0 -0.0248235)
(0.224727 0 -0.0240346)
(0.217115 0 -0.0231547)
(0.208688 0 -0.0221817)
(0.199395 0 -0.0211134)
(0.189179 0 -0.0199479)
(0.177984 0 -0.0186831)
(0.165753 0 -0.0173169)
(0.152427 0 -0.0158469)
(0.137946 0 -0.0142705)
(0.122254 0 -0.0125849)
(0.105291 0 -0.0107867)
(0.0870057 0 -0.00887229)
(0.0673453 0 -0.0068377)
(0.0462652 0 -0.00467867)
(0.0237121 0 -0.00238934)
(0 0 0)
(0.252159 0 -0.0230319)
(0.248472 0 -0.0227131)
(0.244243 0 -0.0223294)
(0.239441 0 -0.0218782)
(0.234024 0 -0.0213572)
(0.227949 0 -0.0207638)
(0.221171 0 -0.0200963)
(0.213643 0 -0.0193526)
(0.205314 0 -0.0185312)
(0.196133 0 -0.0176304)
(0.186046 0 -0.0166488)
(0.174998 0 -0.0155848)
(0.162932 0 -0.0144369)
(0.149793 0 -0.0132034)
(0.135524 0 -0.0118824)
(0.120069 0 -0.0104718)
(0.103374 0 -0.00896918)
(0.0853889 0 -0.0073719)
(0.0660666 0 -0.00567703)
(0.0453671 0 -0.00388148)
(0.0232434 0 -0.00198086)
(0 0 0)
(0.248921 0 -0.0181152)
(0.245249 0 -0.0178589)
(0.241043 0 -0.0175523)
(0.236271 0 -0.0171919)
(0.230893 0 -0.016776)
(0.224866 0 -0.0163032)
(0.218147 0 -0.0157719)
(0.210688 0 -0.0151809)
(0.202441 0 -0.014529)
(0.193354 0 -0.0138152)
(0.183374 0 -0.0130384)
(0.172449 0 -0.0121976)
(0.160524 0 -0.0112918)
(0.147544 0 -0.0103199)
(0.133453 0 -0.00928077)
(0.118199 0 -0.0081729)
(0.101732 0 -0.00699473)
(0.0840023 0 -0.00574449)
(0.0649682 0 -0.00442017)
(0.044594 0 -0.00301968)
(0.0228393 0 -0.00153995)
(0 0 0)
(0.246401 0 -0.0126689)
(0.242743 0 -0.0124856)
(0.238554 0 -0.0122669)
(0.233802 0 -0.0120102)
(0.228452 0 -0.0117145)
(0.222462 0 -0.0113789)
(0.215787 0 -0.0110025)
(0.208381 0 -0.0105845)
(0.200195 0 -0.0101241)
(0.19118 0 -0.0096207)
(0.181284 0 -0.00907382)
(0.170455 0 -0.00848288)
(0.158637 0 -0.00784734)
(0.145779 0 -0.0071666)
(0.131828 0 -0.00643999)
(0.11673 0 -0.00566671)
(0.100439 0 -0.00484586)
(0.0829086 0 -0.00397638)
(0.0640997 0 -0.00305709)
(0.0439807 0 -0.00208673)
(0.0225177 0 -0.0010634)
(0 0 0)
(0.24476 0 -0.00660257)
(0.241108 0 -0.00650518)
(0.236928 0 -0.00638758)
(0.23219 0 -0.00625088)
(0.226858 0 -0.00609427)
(0.22089 0 -0.00591699)
(0.214244 0 -0.00571853)
(0.206871 0 -0.00549846)
(0.198726 0 -0.00525647)
(0.189757 0 -0.00499229)
(0.179914 0 -0.0047057)
(0.169146 0 -0.0043965)
(0.157398 0 -0.00406448)
(0.14462 0 -0.0037094)
(0.130758 0 -0.003331)
(0.115762 0 -0.00292895)
(0.0995849 0 -0.00250285)
(0.0821838 0 -0.00205226)
(0.0635216 0 -0.00157663)
(0.0435701 0 -0.00107539)
(0.0223011 0 -0.000547666)
(0 0 0)
(0.244181 0 0)
(0.240527 0 0)
(0.236349 0 0)
(0.231617 0 0)
(0.226292 0 0)
(0.220333 0 0)
(0.213696 0 0)
(0.206335 0 0)
(0.198203 0 0)
(0.189251 0 0)
(0.179427 0 0)
(0.16868 0 0)
(0.156958 0 0)
(0.144207 0 0)
(0.130377 0 0)
(0.115417 0 0)
(0.0992807 0 0)
(0.0819259 0 0)
(0.0633162 0 0)
(0.0434252 0 0)
(0.0222274 0 0)
(0 0 0)
)
;

boundaryField
{
    inlet
    {
        type            fixedValue;
        value           nonuniform 0();
    }
    outlet
    {
        type            fixedValue;
        value           uniform (0 0 0);
    }
    flap
    {
        type            fixedValue;
        value           nonuniform 0();
    }
    upperWall
    {
        type            slip;
    }
    lowerWall
    {
        type            slip;
    }
    frontAndBack
    {
        type            empty;
    }
    procBoundary2to1
    {
        type            processor;
    }
    procBoundary2to4
    {
        type            processor;
    }
    procBoundary2to5
    {
        type            processor;
    }
}


// ************************************************************************* //
