/*--------------------------------*- C++ -*----------------------------------*\
| =========                 |                                                 |
| \\      /  F ield         | OpenFOAM: The Open Source CFD Toolbox           |
|  \\    /   O peration     | Version:  dev                                   |
|   \\  /    A nd           | Web:      www.OpenFOAM.org                      |
|    \\/     M anipulation  |                                                 |
\*---------------------------------------------------------------------------*/
FoamFile
{
    version     2.0;
    format      ascii;
    class       volVectorField;
    location    "1";
    object      U;
}
// * * * * * * * * * * * * * * * * * * * * * * * * * * * * * * * * * * * * * //

dimensions      [0 1 -1 0 0 0 0];

internalField   nonuniform List<vector> 
465
(
(3.76219 -2.97132e-19 5.35372)
(3.5841 2.16089e-20 5.48164)
(5.00832 9.88539e-21 5.52973)
(4.85982 -1.28634e-19 5.67761)
(4.69727 0 5.76799)
(4.51398 2.16823e-19 5.79833)
(6.34731 0 5.71356)
(6.18565 2.56703e-19 5.8494)
(6.04351 -5.51264e-20 5.94756)
(5.90004 -1.27167e-19 5.99337)
(5.74474 -2.05199e-19 5.98054)
(7.82246 3.30249e-19 5.96911)
(7.60081 -6.3383e-20 6.0423)
(7.43769 2.20598e-19 6.11331)
(7.30511 2.0898e-19 6.15486)
(7.18237 -1.1474e-20 6.15004)
(7.05604 0 6.08926)
(6.91809 0 5.96801)
(9.4017 -2.5363e-19 6.31667)
(9.11844 2.32343e-19 6.29921)
(8.90814 -3.27438e-22 6.30693)
(8.75332 0 6.31293)
(8.63367 -1.66205e-19 6.29435)
(8.53105 0 6.23459)
(8.4315 0 6.12329)
(8.32523 1.94714e-19 5.95509)
(8.20595 0 5.72798)
(10.9678 -4.81745e-19 6.70198)
(10.6751 2.21284e-19 6.61057)
(10.4367 -4.12392e-19 6.54768)
(10.2533 -1.8155e-19 6.49779)
(10.1166 8.44135e-20 6.44237)
(10.0134 -1.29507e-19 6.3639)
(9.92947 -5.47892e-20 6.24841)
(9.85223 -9.75446e-20 6.08639)
(9.7714 -1.55011e-19 5.87244)
(9.67898 0 5.60453)
(12.3895 0 7.03969)
(12.1547 1.06858e-19 6.91584)
(11.9407 0 6.80647)
(11.7596 1.83952e-19 6.70715)
(11.6158 1.63683e-19 6.60846)
(11.5062 1.33763e-19 6.49831)
(11.4234 -2.92632e-21 6.36447)
(11.3573 1.79862e-19 6.19654)
(11.2974 2.20423e-19 5.98713)
(11.2338 0 5.73206)
(11.158 -8.78259e-20 5.43047)
(11.0621 4.74937e-20 5.08472)
(13.58 -2.16143e-19 7.26259)
(13.4506 1.11123e-19 7.14572)
(13.3131 -1.79768e-19 7.025)
(13.1815 9.23327e-21 6.90186)
(13.0656 1.42409e-19 6.77397)
(12.9704 -1.40805e-19 6.63588)
(12.896 -3.83972e-21 6.48022)
(12.8381 0 6.29934)
(12.7902 -8.1298e-20 6.08666)
(12.744 -6.87551e-20 5.83765)
(12.6911 8.44037e-20 5.5505)
(12.623 0 5.22646)
(12.532 0 4.87006)
(14.5079 0 7.33845)
(14.5014 -3.87562e-19 7.25352)
(14.4707 3.82828e-19 7.15005)
(14.426 0 7.03102)
(14.3764 1.40619e-19 6.89741)
(14.3292 1.17327e-19 6.74812)
(14.2886 -1.02284e-20 6.5803)
(14.2553 -1.87615e-19 6.39008)
(14.2273 1.5478e-20 6.17353)
(14.1999 1.47819e-20 5.92763)
(14.1672 5.61604e-20 5.65105)
(14.1223 -1.07199e-19 5.3448)
(14.0582 -2.44168e-20 5.01262)
(13.9688 2.40896e-20 4.66123)
(13.8491 2.55802e-20 4.30025)
(15.1836 -4.1682e-19 7.26585)
(15.2932 5.11322e-19 7.22243)
(15.3747 3.48455e-19 7.15199)
(15.4329 -1.76868e-19 7.05673)
(15.4736 -1.50409e-19 6.9382)
(15.5022 -1.28629e-19 6.79709)
(15.5233 0 6.63311)
(15.5396 4.56311e-21 6.44525)
(15.5515 9.00297e-20 6.23224)
(15.5577 0 5.99315)
(15.5549 -1.14514e-19 5.72804)
(15.5389 7.47621e-20 5.43854)
(15.5048 1.17561e-19 5.1283)
(15.4477 -3.19442e-20 4.80324)
(15.3638 -2.38358e-20 4.47153)
(15.2509 1.04633e-20 4.14306)
(15.6426 4.1353e-19 7.06393)
(15.8468 -2.46758e-20 7.06001)
(16.027 -3.74842e-19 7.0264)
(16.184 -4.7655e-19 6.96368)
(16.3195 4.56041e-19 6.87262)
(16.436 -3.85492e-19 6.75396)
(16.5359 3.66936e-19 6.60826)
(16.6214 1.04535e-19 6.43592)
(16.6934 0 6.23734)
(16.7518 0 6.01324)
(16.7954 -6.75265e-20 5.76503)
(16.8218 -4.81229e-20 5.49522)
(16.8282 -6.34536e-20 5.20779)
(16.8117 0 4.90835)
(16.7696 4.16389e-20 4.60415)
(16.7009 -8.14447e-21 4.30375)
(16.6055 8.10473e-21 4.01641)
(16.4854 9.12723e-21 3.75137)
(15.9306 4.36497e-19 6.76224)
(16.2021 -9.70237e-20 6.78908)
(16.4579 -9.151e-20 6.78774)
(16.696 -3.1671e-19 6.75725)
(16.9151 4.45497e-19 6.6972)
(17.1149 -1.50566e-19 6.60759)
(17.2955 1.09209e-19 6.48881)
(17.4572 -3.23745e-19 6.34151)
(17.5999 0 6.16674)
(17.7235 0 5.96603)
(17.827 1.20913e-19 5.74159)
(17.9092 2.855e-21 5.49658)
(17.9685 9.34575e-20 5.23524)
(18.0033 0 4.96308)
(18.0122 -4.01379e-20 4.68678)
(17.9949 -3.93409e-20 4.41399)
(17.9522 0 4.15287)
(17.8859 -8.31107e-21 3.91167)
(17.7993 6.01676e-21 3.69813)
(16.0942 0 6.39248)
(16.4063 0 6.43901)
(16.7117 4.38991e-19 6.46112)
(17.0071 -2.59962e-19 6.45682)
(17.2896 1.48367e-19 6.42471)
(17.557 0 6.36394)
(17.8073 0 6.27427)
(18.039 0 6.15602)
(18.2508 -9.841e-20 6.01017)
(18.4416 0 5.83834)
(18.6099 0 5.64297)
(18.7545 0 5.42734)
(18.8742 0 5.19574)
(18.968 -6.77791e-20 4.95345)
(19.0351 6.72557e-20 4.70667)
(19.0759 3.79776e-20 4.46237)
(19.0913 0 4.2279)
(19.0834 0 4.0107)
(19.0552 0 3.81785)
(19.0122 -2.70715e-20 3.65586)
(16.173 8.09296e-19 5.9826)
(16.504 -9.88462e-20 6.03865)
(16.8357 0 6.07465)
(17.1648 -4.05086e-19 6.08821)
(17.4879 3.17714e-19 6.07739)
(17.8018 0 6.04075)
(18.1035 0 5.97744)
(18.3902 0 5.88728)
(18.6596 2.83048e-19 5.77083)
(18.9093 -2.2202e-20 5.62942)
(19.1374 -2.1345e-20 5.46521)
(19.342 -3.4603e-21 5.28127)
(19.5216 1.13686e-19 5.08158)
(19.6752 1.7372e-19 4.871)
(19.8023 -2.18322e-19 4.65521)
(19.9031 6.24347e-20 4.44049)
(19.9788 0 4.23351)
(20.0312 -4.66085e-20 4.04103)
(20.0632 -6.93507e-21 3.86954)
(20.0795 1.28706e-20 3.72514)
(20.0825 9.21193e-22 3.61124)
(16.1969 1.04501e-19 5.5536)
(16.5317 -1.80755e-21 5.61169)
(16.8721 7.05469e-19 5.65361)
(17.2154 -6.9379e-19 5.67711)
(17.5585 -2.98478e-19 5.68014)
(17.8982 1.65861e-19 5.66105)
(18.2312 2.19561e-20 5.61865)
(18.5543 4.62906e-19 5.55236)
(18.8643 -4.13457e-19 5.46229)
(19.1584 3.65695e-19 5.34933)
(19.4338 -1.70184e-19 5.21518)
(19.6883 -1.30987e-19 5.06243)
(19.9198 -1.10563e-19 4.89454)
(20.1271 -1.0615e-19 4.71579)
(20.3093 -1.46981e-20 4.53119)
(20.4664 0 4.34634)
(20.5993 0 4.1672)
(20.7097 3.30845e-20 3.99984)
(20.8 1.72794e-20 3.85021)
(20.8739 5.13548e-21 3.72395)
(20.9497 0 3.62451)
(16.1866 -8.1098e-19 5.11913)
(16.5159 9.92025e-19 5.17471)
(16.8535 0 5.21717)
(17.1974 -8.52824e-20 5.24459)
(17.545 7.89812e-20 5.25518)
(17.8938 -1.40804e-19 5.24734)
(18.2405 0 5.21984)
(18.5821 0 5.17191)
(18.9153 0 5.10337)
(19.237 8.26228e-20 5.01471)
(19.5443 -1.78332e-19 4.90718)
(19.8345 -7.63625e-20 4.78282)
(20.1053 0 4.64448)
(20.3549 1.1555e-19 4.49577)
(20.5823 1.93632e-19 4.34099)
(20.7871 -7.82429e-20 4.18497)
(20.9696 0 4.03293)
(21.1311 2.88102e-20 3.89026)
(21.2739 -1.52078e-20 3.7623)
(21.4004 0 3.65418)
(21.5434 0 3.56935)
(16.1547 7.38295e-19 4.68674)
(16.474 -9.60071e-20 4.73763)
(16.8025 9.12891e-20 4.77767)
(17.1389 8.34936e-20 4.80532)
(17.4814 -7.7315e-20 4.81909)
(17.8276 0 4.81767)
(18.1752 5.11543e-19 4.79995)
(18.5213 -3.94669e-19 4.76519)
(18.8631 -2.29093e-19 4.71308)
(19.1976 -9.17698e-20 4.64386)
(19.5219 3.51337e-19 4.55843)
(19.8333 -1.69388e-19 4.45836)
(20.1294 1.35877e-20 4.3459)
(20.4083 1.42004e-20 4.22401)
(20.6686 -1.82684e-19 4.09627)
(20.9095 1.65211e-19 3.96677)
(21.1311 6.86431e-20 3.83997)
(21.3343 -4.64255e-20 3.72053)
(21.5207 8.58436e-20 3.61314)
(21.6921 1.34799e-20 3.52239)
(21.8934 -1.41101e-20 3.45165)
(16.1085 8.49515e-19 4.25981)
(16.4161 -7.84857e-19 4.30536)
(16.7331 -1.80117e-19 4.34174)
(17.0583 0 4.36773)
(17.3904 0 4.3822)
(17.7278 0 4.38409)
(18.0684 -5.17581e-19 4.37255)
(18.4101 1.10313e-18 4.34692)
(18.7503 -4.6583e-19 4.30693)
(19.0865 1.93033e-19 4.25271)
(19.4162 -2.8309e-19 4.18491)
(19.7368 -7.40616e-20 4.10474)
(20.046 1.37077e-20 4.01398)
(20.342 -1.14068e-19 3.91503)
(20.6233 1.12781e-19 3.81079)
(20.8889 0 3.70466)
(21.1386 -1.40569e-19 3.60036)
(21.3729 0 3.50185)
(21.5931 -7.88592e-20 3.41317)
(21.8003 -4.51704e-20 3.33828)
(22.0492 5.45204e-21 3.28039)
(16.0526 -5.0585e-20 3.83936)
(16.3485 0 3.87961)
(16.6533 8.88335e-20 3.91203)
(16.9663 0 3.93565)
(17.2863 -7.89248e-20 3.94962)
(17.6122 0 3.95314)
(17.9422 6.80636e-20 3.94555)
(18.2747 0 3.92636)
(18.6077 0 3.89535)
(18.9389 -3.01593e-19 3.85262)
(19.2664 3.79383e-19 3.79869)
(19.5879 0 3.73452)
(19.9014 0 3.66153)
(20.2052 -1.19192e-19 3.58164)
(20.4979 1.17793e-19 3.49721)
(20.7785 -9.48079e-20 3.41101)
(21.0466 1.05424e-19 3.32611)
(21.3026 -5.86439e-20 3.24579)
(21.5474 6.57669e-20 3.17345)
(21.7815 4.89278e-20 3.11245)
(22.0674 4.81123e-21 3.0657)
(15.9902 8.59608e-19 3.4252)
(16.275 0 3.46046)
(16.5682 -4.45242e-20 3.48902)
(16.8692 0 3.51013)
(17.1772 1.55693e-19 3.52316)
(17.491 7.31849e-20 3.52748)
(17.8095 4.55572e-19 3.52259)
(18.1312 -5.14147e-19 3.50814)
(18.4546 -4.39532e-19 3.48398)
(18.7778 5.35491e-19 3.45023)
(19.0992 8.73884e-20 3.40731)
(19.417 -9.14786e-20 3.35601)
(19.7294 0 3.29749)
(20.035 -1.22974e-19 3.23329)
(20.3326 1.21484e-19 3.16531)
(20.6213 9.25902e-20 3.09579)
(20.9007 -1.15523e-19 3.02723)
(21.171 3.47422e-20 2.96234)
(21.4329 4.62667e-20 2.9039)
(21.6866 2.03485e-21 2.85466)
(22 0 2.81721)
(15.9238 0 3.01651)
(16.1985 -4.65554e-20 3.04708)
(16.481 8.75565e-20 3.07199)
(16.7709 8.28375e-20 3.09068)
(17.0676 -7.67619e-20 3.10261)
(17.3701 4.17563e-19 3.1073)
(17.6775 -4.85291e-19 3.10438)
(17.9885 -4.18261e-19 3.09358)
(18.302 3.58189e-19 3.07484)
(18.6164 1.05755e-19 3.04828)
(18.9304 0 3.01427)
(19.2425 -7.99997e-21 2.97346)
(19.5513 -2.27084e-19 2.92679)
(19.8557 -5.1529e-20 2.8755)
(20.1545 1.82941e-19 2.82112)
(20.447 0 2.76547)
(20.733 1.60858e-19 2.71056)
(21.0125 0 2.65857)
(21.2861 -4.51327e-20 2.61173)
(21.5538 -2.87316e-20 2.57228)
(21.8873 0 2.54243)
(15.8557 4.83366e-20 2.61255)
(16.121 -2.95642e-22 2.63868)
(16.3939 6.3425e-19 2.66016)
(16.6739 -7.46879e-19 2.6765)
(16.9605 0 2.68725)
(17.2528 -4.86558e-19 2.69202)
(17.5502 1.06808e-18 2.69055)
(17.8515 -5.71614e-19 2.68266)
(18.1557 5.54643e-20 2.66832)
(18.4618 -3.04688e-19 2.64766)
(18.7685 1.98365e-19 2.62099)
(19.0746 3.35242e-19 2.58884)
(19.379 -2.37006e-19 2.55199)
(19.6808 6.64876e-20 2.51144)
(19.9791 -5.75958e-20 2.4684)
(20.2732 0 2.42432)
(20.563 -8.04199e-20 2.38081)
(20.8485 0 2.33959)
(21.1303 4.84477e-20 2.30245)
(21.4082 3.09102e-20 2.27114)
(21.7565 0 2.2475)
(15.7878 -1.56347e-18 2.21147)
(16.045 7.77304e-19 2.23339)
(16.3093 0 2.25155)
(16.5806 -4.03018e-20 2.26555)
(16.8583 5.90252e-19 2.27499)
(17.1418 -5.09518e-19 2.27958)
(17.4304 4.48195e-19 2.27912)
(17.7232 -6.82115e-19 2.27351)
(18.0193 2.90644e-19 2.26274)
(18.3179 2.0061e-19 2.24693)
(18.618 -1.97712e-19 2.22634)
(18.9186 1.65587e-19 2.20141)
(19.2187 -1.61607e-19 2.17274)
(19.5177 -1.27754e-19 2.14114)
(19.8147 1.61564e-20 2.10757)
(20.1094 2.51704e-19 2.07315)
(20.4015 -1.28507e-19 2.03916)
(20.6912 3.67399e-21 2.00695)
(20.9788 -6.71173e-20 1.9779)
(21.2643 -1.05402e-20 1.95337)
(21.6233 0 1.93489)
(15.7222 0 1.81339)
(15.9723 0 1.83131)
(16.2293 0 1.84625)
(16.4931 -2.40936e-22 1.85789)
(16.7632 3.73443e-20 1.86593)
(17.0391 -6.95384e-20 1.87013)
(17.3202 -1.88445e-19 1.87037)
(17.6057 1.28663e-19 1.86658)
(17.895 -2.17349e-19 1.85875)
(18.1872 2.14113e-19 1.84699)
(18.4816 -4.74904e-20 1.83153)
(18.7773 -8.46923e-20 1.8127)
(19.0736 0 1.79097)
(19.3699 1.27672e-19 1.76697)
(19.6656 -1.26003e-19 1.74145)
(19.9604 4.28209e-20 1.71526)
(20.254 -9.13429e-20 1.68938)
(20.5466 6.57024e-20 1.66485)
(20.8386 0 1.64271)
(21.1299 0 1.624)
(21.4973 0 1.60992)
(15.6608 -2.28321e-20 1.4133)
(15.9049 0 1.42722)
(16.1558 0 1.43888)
(16.4133 7.76767e-20 1.44801)
(16.6771 -3.64964e-20 1.4544)
(16.9467 0 1.45791)
(17.2216 -9.63195e-20 1.45842)
(17.5011 2.92136e-19 1.4559)
(17.7847 -4.43711e-19 1.45036)
(18.0716 1.60219e-19 1.44188)
(18.3613 2.25805e-19 1.43062)
(18.653 2.75665e-20 1.41685)
(18.9462 -3.03931e-19 1.40093)
(19.2402 1.42389e-19 1.38331)
(19.5346 -1.09509e-19 1.36455)
(19.8293 1.54164e-19 1.3453)
(20.1239 -3.69596e-21 1.32628)
(20.4187 -3.24706e-20 1.30825)
(20.714 0 1.29201)
(21.0096 0 1.27831)
(21.3828 0 1.26818)
(15.6046 2.22982e-20 1.01714)
(15.8438 0 1.02726)
(16.0898 3.16283e-19 1.03577)
(16.3423 -3.48992e-19 1.04249)
(16.601 0 1.04727)
(16.8656 2.6372e-19 1.05004)
(17.1355 -2.28007e-19 1.05073)
(17.4103 2.95389e-20 1.0493)
(17.6894 0 1.04576)
(17.9723 2.48809e-20 1.04016)
(18.2583 2.31204e-20 1.03264)
(18.5468 -4.16016e-20 1.02336)
(18.8375 0 1.01257)
(19.1297 6.28339e-20 1.00061)
(19.4232 -7.72949e-21 0.987847)
(19.7177 -2.86223e-20 0.974738)
(20.0131 -4.08168e-20 0.961785)
(20.3096 0 0.94953)
(20.6074 -9.88365e-21 0.938536)
(20.9066 7.0152e-21 0.92934)
(21.2849 2.70725e-21 0.922697)
(15.5555 0 0.606671)
(15.7911 0 0.61258)
(16.0333 0 0.61752)
(16.282 -1.55575e-19 0.62139)
(16.537 1.61457e-19 0.624114)
(16.7978 0 0.62564)
(17.064 0 0.625936)
(17.3353 -2.88456e-20 0.624985)
(17.611 0 0.622796)
(17.8908 -7.08134e-20 0.619409)
(18.174 1.47235e-19 0.614896)
(18.4602 -7.16349e-21 0.609365)
(18.749 -7.75937e-20 0.602967)
(19.0398 7.83615e-20 0.595891)
(19.3325 -4.67021e-20 0.588368)
(19.6268 -3.66572e-20 0.580669)
(19.9226 -1.01862e-20 0.573101)
(20.2202 -8.07314e-21 0.566011)
(20.5197 5.94212e-21 0.559793)
(20.8212 0 0.554906)
(21.2017 0 0.552256)
(15.3022 0 0.211858)
(15.5339 0 0.214087)
(15.7722 0 0.215957)
(16.0168 9.14187e-21 0.217435)
(16.2676 5.03589e-20 0.218491)
(16.5241 -6.65262e-20 0.219098)
(16.786 0 0.219244)
(17.0527 -5.52075e-20 0.218926)
(17.3239 1.05459e-19 0.218149)
(17.599 -5.03309e-20 0.216925)
(17.8775 -3.17338e-20 0.215278)
(18.1589 8.09891e-20 0.213245)
(18.4428 -3.82066e-20 0.210877)
(18.7288 -8.70045e-22 0.208239)
(19.0166 -1.59441e-20 0.205414)
(19.3061 -9.86002e-22 0.202498)
(19.5971 1.90135e-20 0.199604)
(19.89 -1.0161e-21 0.19687)
(20.185 -5.81982e-21 0.194475)
(20.4828 0 0.192682)
(20.8604 0 0.192286)
)
;

boundaryField
{
    inlet
    {
        type            fixedValue;
        value           nonuniform 0();
    }
    outlet
    {
        type            zeroGradient;
    }
    flap
    {
        type            movingWallVelocity;
        value           nonuniform 0();
    }
    upperWall
    {
        type            noSlip;
    }
    lowerWall
    {
        type            noSlip;
    }
    frontAndBack
    {
        type            empty;
    }
    procBoundary2to1
    {
        type            processor;
        value           nonuniform List<vector> 
17
(
(15.6466 3.33342e-20 6.70887)
(15.779 4.0781e-19 6.32406)
(15.8458 8.77669e-19 5.90917)
(15.8702 0 5.48176)
(15.8671 0 5.0524)
(15.8456 8.56402e-19 4.62652)
(15.8109 -8.24994e-19 4.20633)
(15.7662 -5.30239e-20 3.79229)
(15.7144 -5.25923e-20 3.38408)
(15.6577 -8.13617e-19 2.98095)
(15.5984 8.49808e-19 2.58222)
(15.5383 -7.59601e-19 2.18611)
(15.4796 -8.42233e-19 1.79275)
(15.424 2.3902e-20 1.39732)
(15.3724 -1.17204e-20 1.00557)
(15.327 1.14382e-20 0.599889)
(15.0774 -8.84552e-20 0.209304)
)
;
    }
    procBoundary2to4
    {
        type            processor;
        value           nonuniform List<vector> 
11
(
(3.91285 6.66552e-19 5.16731)
(5.1594 -1.64173e-19 5.33455)
(6.56206 0 5.569)
(8.13254 0 5.93058)
(9.76478 -4.02047e-21 6.38429)
(11.3019 1.29785e-19 6.83029)
(12.6263 -1.2498e-19 7.17632)
(13.686 1.20209e-19 7.37065)
(14.4811 1.18877e-19 7.4005)
(15.0426 -1.15341e-19 7.28002)
(15.4153 0 7.03814)
)
;
    }
    procBoundary2to5
    {
        type            processor;
        value           nonuniform List<vector> 
34
(
(2.57137 -3.10801e-19 5.14494)
(2.3482 1.00698e-20 5.24674)
(3.37802 -2.65344e-19 5.55011)
(3.37802 -2.65344e-19 5.55011)
(3.14527 2.26151e-19 5.5605)
(4.30919 -2.90613e-19 5.76824)
(4.30919 -2.90613e-19 5.76824)
(5.5725 0 5.90564)
(5.5725 0 5.90564)
(5.3811 0 5.76775)
(6.76415 -2.0182e-19 5.78504)
(6.76415 -2.0182e-19 5.78504)
(6.59231 0 5.54064)
(8.0693 1.26559e-19 5.44197)
(8.0693 1.26559e-19 5.44197)
(9.56849 -5.86034e-20 5.28341)
(9.56849 -5.86034e-20 5.28341)
(9.43428 7.55861e-20 4.91254)
(10.9391 -1.70851e-20 4.70044)
(10.9391 -1.70851e-20 4.70044)
(12.4115 8.9169e-21 4.48933)
(12.4115 8.9169e-21 4.48933)
(12.2563 7.47369e-21 4.09573)
(13.6963 0 3.94141)
(13.6963 0 3.94141)
(15.1086 2.50817e-21 3.82856)
(15.1086 2.50817e-21 3.82856)
(14.939 5.06522e-22 3.53862)
(16.3438 6.26013e-21 3.51718)
(16.3438 6.26013e-21 3.51718)
(17.6985 -9.09415e-21 3.51912)
(17.6985 -9.09415e-21 3.51912)
(18.9408 -3.43449e-22 3.52813)
(18.9408 -3.43449e-22 3.52813)
)
;
    }
}


// ************************************************************************* //
