/*--------------------------------*- C++ -*----------------------------------*\
| =========                 |                                                 |
| \\      /  F ield         | OpenFOAM: The Open Source CFD Toolbox           |
|  \\    /   O peration     | Version:  dev                                   |
|   \\  /    A nd           | Web:      www.OpenFOAM.org                      |
|    \\/     M anipulation  |                                                 |
\*---------------------------------------------------------------------------*/
FoamFile
{
    version     2.0;
    format      ascii;
    class       surfaceVectorField;
    location    "1";
    object      Uf;
}
// * * * * * * * * * * * * * * * * * * * * * * * * * * * * * * * * * * * * * //

dimensions      [0 1 -1 0 0 0 0];

internalField   nonuniform List<vector> 
881
(
(3.67529 -1.39117e-19 5.41696)
(4.37656 -1.45772e-19 5.43969)
(4.21313 -5.24701e-20 5.57769)
(4.93579 -5.85088e-20 5.60288)
(5.66857 5.01086e-21 5.62087)
(4.78075 -6.49735e-20 5.72232)
(5.51364 6.14227e-20 5.76244)
(4.60824 1.07338e-19 5.78299)
(5.36121 -2.71873e-20 5.85647)
(5.19762 4.71594e-20 5.89434)
(6.26814 1.27062e-19 5.7808)
(7.07482 1.62881e-19 5.84148)
(6.11646 1.02331e-19 5.89799)
(6.88361 9.88294e-20 5.94561)
(5.97395 -9.06888e-20 5.97024)
(6.73117 8.08732e-20 6.02985)
(5.82487 -1.65882e-19 5.98701)
(6.59312 3.86829e-20 6.07317)
(6.45392 -1.09634e-19 6.06401)
(7.71335 1.35293e-19 6.00536)
(8.60145 4.14116e-20 6.14336)
(7.52101 7.7246e-20 6.07747)
(8.34941 8.2499e-20 6.17107)
(7.3733 2.14844e-19 6.13389)
(8.16304 1.11243e-19 6.21016)
(7.24585 9.97376e-20 6.15247)
(8.01953 1.05886e-19 6.2336)
(7.12166 -5.78809e-21 6.11992)
(7.89834 -8.7809e-20 6.22151)
(6.98987 0 6.02916)
(7.78376 0 6.16083)
(7.66479 0 6.04413)
(9.26163 -1.29194e-20 6.30802)
(10.1743 -3.6618e-19 6.50905)
(9.01495 1.17091e-19 6.30304)
(9.8864 2.26275e-19 6.45499)
(8.83248 -1.65223e-22 6.30991)
(9.66223 -2.04119e-19 6.42749)
(8.69537 -8.2355e-20 6.30374)
(9.49334 -8.9572e-20 6.40541)
(8.58445 -8.38305e-20 6.26475)
(9.3653 -4.23497e-20 6.36815)
(8.48363 0 6.17943)
(9.26241 -6.38977e-20 6.29868)
(8.381 9.65616e-20 6.0399)
(9.17062 -2.70334e-20 6.18486)
(8.26852 9.81203e-20 5.84245)
(9.07871 5.05062e-20 6.01926)
(8.97845 -7.64893e-20 5.79823)
(10.8227 -1.33457e-19 6.65669)
(11.6693 -2.44023e-19 6.8694)
(10.5573 -9.27723e-20 6.57942)
(11.4052 1.64822e-19 6.76237)
(10.3465 -2.98007e-19 6.52297)
(11.1788 -2.08906e-19 6.67668)
(10.1866 -4.9741e-20 6.47034)
(10.9965 -8.79189e-22 6.60228)
(10.0668 -2.1436e-20 6.4035)
(10.8563 1.23527e-19 6.52524)
(9.97343 -9.22326e-20 6.30667)
(10.75 5.45501e-22 6.43079)
(9.89308 -7.59939e-20 6.16808)
(10.6666 -2.91542e-20 6.30585)
(9.81429 -1.26054e-19 5.98028)
(10.5949 3.92801e-20 6.1405)
(9.72793 -7.80842e-20 5.73952)
(10.5244 2.99242e-20 5.92838)
(10.4463 0 5.66639)
(12.273 5.29543e-20 6.97831)
(12.9771 -1.06672e-19 7.14911)
(12.0488 5.3903e-20 6.86164)
(12.7942 1.08988e-19 7.02911)
(11.8514 9.11675e-20 6.75725)
(12.6179 -8.87119e-20 6.91449)
(11.6891 1.74118e-19 6.65825)
(12.4613 9.76259e-20 6.80363)
(11.5626 1.4885e-19 6.55388)
(12.3312 1.53185e-19 6.69059)
(11.4666 6.59832e-20 6.43197)
(12.2288 -1.72648e-21 6.56656)
(11.3923 8.7735e-20 6.28121)
(12.1501 -3.3303e-21 6.42177)
(11.3294 1.99488e-19 6.09268)
(12.0881 9.11052e-20 6.2472)
(11.2679 1.11031e-19 5.86058)
(12.0341 7.17111e-20 6.03588)
(11.1984 -4.36001e-20 5.58238)
(11.9791 -3.39299e-20 5.7835)
(11.1126 -2.06259e-20 5.25881)
(11.9146 -3.3026e-21 5.48873)
(11.8325 2.40545e-20 5.1534)
(13.5158 -5.3965e-20 7.20466)
(14.038 -1.0946e-19 7.2987)
(13.3825 -3.30561e-20 7.08589)
(13.9692 -1.35002e-19 7.19778)
(13.2482 -8.59986e-20 6.96397)
(13.8844 9.78878e-20 7.08583)
(13.1246 7.52535e-20 6.83847)
(13.7957 4.67655e-21 6.96497)
(13.0193 1.76225e-21 6.70552)
(13.7125 1.41526e-19 6.83446)
(12.9346 -7.28825e-20 6.55871)
(13.641 -1.34185e-20 6.69097)
(12.8686 -1.93512e-21 6.39053)
(13.5832 -7.06132e-21 6.52934)
(12.8159 -4.03363e-20 6.19386)
(13.5375 -9.2587e-20 6.34381)
(12.769 -7.5526e-20 5.96311)
(13.4994 -3.35391e-20 6.12911)
(12.7196 7.27931e-21 5.69513)
(13.4626 -2.75291e-20 5.88149)
(12.6591 4.2489e-20 5.38961)
(13.4196 7.04652e-20 5.5994)
(12.5795 0 5.04945)
(13.363 -5.29056e-20 5.28398)
(13.2853 -1.20508e-20 4.9394)
(14.5047 -1.92112e-19 7.29635)
(14.8415 -2.05749e-19 7.30109)
(14.4863 -5.60759e-21 7.20223)
(14.8923 5.61171e-20 7.23662)
(14.4488 1.93045e-19 7.09105)
(14.9169 3.65863e-19 7.14951)
(14.4019 6.97177e-20 6.96479)
(14.9229 -8.72928e-20 7.04233)
(14.3537 1.28891e-19 6.8234)
(14.9179 -3.0131e-21 6.91631)
(14.31 5.38325e-20 6.66492)
(14.9082 -3.77785e-21 6.77121)
(14.2732 -9.82219e-20 6.48597)
(14.898 -5.18048e-21 6.60541)
(14.2427 -8.65141e-20 6.28267)
(14.8891 -9.29917e-20 6.41643)
(14.2152 1.55002e-20 6.05153)
(14.8808 5.22706e-20 6.20167)
(14.1852 3.57119e-20 5.79036)
(14.87 7.48673e-21 5.95914)
(14.1464 -2.49623e-20 5.49901)
(14.8521 -2.80721e-20 5.68821)
(14.0919 -6.57253e-20 5.17982)
(14.8215 -1.78083e-20 5.3902)
(14.0149 -3.13687e-22 4.83803)
(14.7722 4.52382e-20 5.06882)
(13.9098 2.49763e-20 4.48181)
(14.6987 -3.15241e-21 4.73043)
(14.5967 1.59061e-21 4.38391)
(15.2381 4.33361e-20 7.24433)
(15.4102 -6.91616e-21 7.16482)
(15.3338 4.30581e-19 7.18752)
(15.5665 2.46952e-19 7.14074)
(15.4038 8.78558e-20 7.10477)
(15.6967 -8.56413e-21 7.08839)
(15.4535 -1.63749e-19 6.99797)
(15.8037 -3.24339e-19 7.00915)
(15.4884 -1.39608e-19 6.86824)
(15.8911 1.48479e-19 6.9042)
(15.5135 -6.48313e-20 6.71578)
(15.9631 -2.55404e-19 6.77422)
(15.5323 2.26366e-21 6.53994)
(16.0231 1.81099e-19 6.61934)
(15.5466 4.72393e-20 6.33959)
(16.0735 5.39033e-20 6.43923)
(15.5557 4.53472e-20 6.11361)
(16.1151 4.55968e-20 6.23343)
(15.5575 -5.68493e-20 5.86157)
(16.147 0 6.00181)
(15.5482 -2.05235e-20 5.58431)
(16.1672 -9.18954e-20 5.74511)
(15.5231 9.60213e-20 5.28446)
(16.1721 1.41129e-20 5.46539)
(15.4773 4.3275e-20 4.96681)
(16.158 2.87172e-20 5.16648)
(15.4065 -2.7914e-20 4.63838)
(16.1209 -1.61778e-20 4.85413)
(15.3076 -6.80215e-21 4.30822)
(16.0577 8.48068e-21 4.53607)
(15.9666 1.27877e-21 4.22154)
(15.7439 1.96219e-19 7.06199)
(15.7848 4.24868e-19 6.91399)
(15.9364 -1.98389e-19 7.04335)
(16.0222 -6.02216e-20 6.92505)
(16.1052 -4.25269e-19 6.99532)
(16.2397 -2.34981e-19 6.9072)
(16.2516 -1.3908e-20 6.91854)
(16.4367 -3.97652e-19 6.86025)
(16.3778 3.87049e-20 6.81379)
(16.6135 4.50836e-19 6.7844)
(16.4862 -1.19593e-20 6.68171)
(16.7711 -2.69975e-19 6.68004)
(16.5791 2.36761e-19 6.52279)
(16.9109 2.40163e-19 6.54761)
(16.658 5.26654e-20 6.33742)
(17.0339 -1.06425e-19 6.38765)
(16.7234 0 6.12615)
(17.1408 0 6.20087)
(16.7745 -3.35224e-20 5.89005)
(17.2314 0 5.98838)
(16.8095 -5.76456e-20 5.63108)
(17.3046 2.47609e-20 5.75197)
(16.8259 -5.57377e-20 5.35248)
(17.3586 -2.36295e-20 5.49449)
(16.8207 -3.19269e-20 5.05903)
(17.3911 1.39911e-20 5.22003)
(16.7912 2.06944e-20 4.75717)
(17.3998 0 4.93415)
(16.7354 1.68892e-20 4.45481)
(17.383 1.78243e-21 4.64383)
(16.6529 -1.89146e-22 4.16084)
(17.3396 -2.35425e-20 4.35716)
(16.5447 8.61339e-21 3.88455)
(17.2702 4.10429e-21 4.08287)
(17.1767 8.58561e-22 3.82973)
(16.0654 1.72001e-19 6.77555)
(16.0114 2.20999e-19 6.57907)
(16.3291 -9.42901e-20 6.78843)
(16.3029 -4.91257e-20 6.61544)
(16.5763 -2.0317e-19 6.77264)
(16.5832 1.70234e-19 6.6255)
(16.805 6.14424e-20 6.72749)
(16.8496 -2.88698e-19 6.60777)
(17.0147 1.49649e-19 6.65278)
(17.1 2.98479e-19 6.56137)
(17.2051 -2.17142e-20 6.5487)
(17.3332 -7.62472e-20 6.48588)
(17.3764 -1.0591e-19 6.41576)
(17.5482 5.53049e-20 6.38138)
(17.5288 -1.63103e-19 6.25482)
(17.7444 -1.63953e-19 6.24838)
(17.6621 0 6.06715)
(17.9212 -4.85721e-20 6.08786)
(17.7757 6.00239e-20 5.85464)
(18.0779 0 5.90142)
(17.8687 6.22918e-20 5.61996)
(18.2135 6.1235e-20 5.69136)
(17.9394 4.82077e-20 5.3668)
(18.3265 1.44588e-21 5.4609)
(17.9864 4.70267e-20 5.10005)
(18.4156 4.73303e-20 5.21432)
(18.008 -1.99466e-20 4.82578)
(18.4795 -3.34536e-20 4.95698)
(18.0036 -3.97417e-20 4.55118)
(18.5171 1.28686e-20 4.69535)
(17.9733 -1.9779e-20 4.28414)
(18.5285 -1.69311e-21 4.43672)
(17.9184 -4.13386e-21 4.03289)
(18.5145 0 4.18887)
(17.8417 -1.18239e-21 3.80541)
(18.477 -4.20878e-21 3.95964)
(18.4192 3.04689e-21 3.75647)
(16.2491 0 6.41556)
(16.1331 3.99559e-19 6.18981)
(16.5579 2.17644e-19 6.44998)
(16.4545 -4.87991e-20 6.24091)
(16.8584 9.22904e-20 6.459)
(16.7729 2.22276e-19 6.26973)
(17.1476 -5.74802e-20 6.44091)
(17.0849 -3.31501e-19 6.27411)
(17.4227 7.47853e-20 6.39459)
(17.3875 2.31961e-19 6.25237)
(17.6817 0 6.31948)
(17.6778 0 6.20338)
(17.9228 0 6.21563)
(17.9535 0 6.12661)
(18.1448 -4.88305e-20 6.08368)
(18.2124 0 6.02214)
(18.3462 -4.95695e-20 5.92492)
(18.4526 8.95493e-20 5.89074)
(18.5259 0 5.74138)
(18.6725 -1.09584e-20 5.73389)
(18.6824 0 5.53593)
(18.8703 -1.05353e-20 5.55388)
(18.8146 0 5.31234)
(19.0445 -1.7079e-21 5.3539)
(18.9213 -3.36708e-20 5.07539)
(19.1938 5.61118e-20 5.13808)
(19.0016 -5.56457e-22 4.83083)
(19.3171 5.14177e-20 4.91149)
(19.0554 5.27034e-20 4.58524)
(19.4138 -7.36975e-20 4.68007)
(19.0832 1.90961e-20 4.34579)
(19.4842 5.00491e-20 4.45044)
(19.0867 0 4.11987)
(19.5294 0 4.22964)
(19.0684 0 3.91476)
(19.5512 -2.30051e-20 4.02474)
(19.032 -1.3472e-20 3.73722)
(19.5528 -3.42304e-21 3.84258)
(19.539 -7.88511e-21 3.68944)
(16.3372 3.59105e-19 6.0104)
(16.1848 4.61322e-19 5.77073)
(16.6687 -4.9841e-20 6.05651)
(16.5177 -5.09604e-20 5.82771)
(16.9992 -2.0085e-19 6.08139)
(16.8537 3.48273e-19 5.86654)
(17.3253 -4.65141e-20 6.08286)
(17.1898 -5.47607e-19 5.88491)
(17.6439 1.60147e-19 6.05924)
(17.5227 1.35375e-20 5.88083)
(17.9519 0 6.00937)
(17.8494 8.18729e-20 5.85275)
(18.2463 0 5.93273)
(18.1665 1.08378e-20 5.79966)
(18.5245 1.40444e-19 5.82953)
(18.4712 2.28491e-19 5.7212)
(18.7842 1.3128e-19 5.70068)
(18.7607 -6.07408e-20 5.6177)
(19.0232 -2.2057e-20 5.54793)
(19.0323 1.69258e-19 5.49026)
(19.2395 -1.27326e-20 5.37391)
(19.2837 -9.48089e-20 5.34085)
(19.4317 5.47157e-20 5.18212)
(19.5129 -6.5941e-20 5.17228)
(19.5983 1.43507e-19 4.97699)
(19.7182 3.46457e-21 4.98827)
(19.7386 -2.11703e-20 4.76379)
(19.8983 3.6037e-20 4.79341)
(19.8524 -7.87865e-20 4.5485)
(20.0526 -1.18256e-19 4.59303)
(19.9405 3.13983e-20 4.3376)
(20.1812 3.16186e-20 4.39309)
(20.0043 -2.3175e-20 4.1378)
(20.2851 0 4.19991)
(20.0464 -2.7049e-20 3.95573)
(20.3661 -7.62332e-21 4.0199)
(20.07 3.07073e-21 3.79768)
(20.4269 4.71443e-21 3.8593)
(20.0792 6.8407e-21 3.66859)
(20.4716 9.05277e-21 3.72398)
(20.5105 4.66516e-22 3.61738)
(16.363 5.18035e-20 5.5824)
(16.1918 -3.47494e-19 5.33918)
(16.7006 3.48827e-19 5.63248)
(16.5239 4.88852e-19 5.396)
(17.0425 1.14926e-20 5.66527)
(16.8629 3.57194e-19 5.43814)
(17.3858 -4.9777e-19 5.67863)
(17.2065 -3.93393e-19 5.46353)
(17.7273 -6.80431e-20 5.67069)
(17.5519 -1.12147e-19 5.47024)
(18.0638 9.46649e-20 5.64004)
(17.896 1.45283e-20 5.45665)
(18.392 2.40905e-19 5.58579)
(18.2358 1.11181e-20 5.42155)
(18.7086 2.78637e-20 5.50769)
(18.568 2.34412e-19 5.36426)
(19.0108 -2.65638e-20 5.40625)
(18.8895 -2.09375e-19 5.28475)
(19.2956 9.94742e-20 5.28276)
(19.1972 2.25973e-19 5.18373)
(19.5607 -1.50724e-19 5.13936)
(19.4884 -1.74206e-19 5.06267)
(19.8037 -1.20845e-19 4.97908)
(19.7605 -1.04025e-19 4.9239)
(20.0231 -1.08371e-19 4.80577)
(20.0114 -5.59913e-20 4.77056)
(20.2178 -6.08035e-20 4.62409)
(20.2396 3.00908e-21 4.60661)
(20.3874 -7.39443e-21 4.43934)
(20.4441 8.81282e-20 4.43671)
(20.5323 0 4.2573)
(20.6247 -3.86186e-20 4.26609)
(20.6538 1.64476e-20 4.08399)
(20.7821 0 4.10034)
(20.754 2.52255e-20 3.92543)
(20.9177 3.09749e-20 3.9452)
(20.8359 1.11353e-20 3.7874)
(21.0339 1.24485e-21 3.80632)
(20.9032 2.58658e-21 3.67455)
(21.1338 2.60083e-21 3.68908)
(21.2427 0 3.59701)
(16.3499 8.28253e-20 5.14668)
(16.1708 -4.60951e-20 4.90581)
(16.6834 5.00251e-19 5.19576)
(16.4952 4.54849e-19 4.95908)
(17.0242 -4.22815e-20 5.23077)
(16.8283 4.50674e-20 5.00034)
(17.37 -3.83357e-21 5.24985)
(17.1685 -1.94644e-21 5.02787)
(17.7183 -3.00121e-20 5.25131)
(17.5136 1.81067e-21 5.04002)
(18.0661 -7.0968e-20 5.23372)
(17.8611 -7.12984e-20 5.03534)
(18.4103 0 5.19608)
(18.2082 2.52509e-19 5.01265)
(18.7478 0 5.13793)
(18.5521 -1.94813e-19 4.97119)
(19.0754 4.10002e-20 5.05939)
(18.8895 -1.13081e-19 4.91073)
(19.39 -4.70878e-20 4.96136)
(19.2176 -3.46209e-21 4.83164)
(19.6888 -1.27711e-19 4.84546)
(19.5333 8.31067e-20 4.73499)
(19.9693 -3.84463e-20 4.71415)
(19.8339 -1.223e-19 4.62258)
(20.2296 5.73861e-20 4.57064)
(20.1172 6.70663e-21 4.49698)
(20.4681 1.54408e-19 4.41889)
(20.3813 6.5601e-20 4.36147)
(20.6841 5.85523e-20 4.26347)
(20.6249 7.98009e-21 4.22001)
(20.8776 -3.93602e-20 4.10941)
(20.8475 4.18189e-20 4.07705)
(21.0495 1.43201e-20 3.96201)
(21.0493 3.38802e-20 3.93744)
(21.2016 6.81043e-21 3.82664)
(21.2314 -8.2115e-21 3.80623)
(21.3362 -7.64521e-21 3.70852)
(21.3957 3.45586e-20 3.68843)
(21.4568 0 3.612)
(21.5444 6.65299e-21 3.58891)
(21.7161 -6.96409e-21 3.51118)
(16.313 3.24783e-19 4.71197)
(16.1319 7.93217e-19 4.47615)
(16.637 -3.16481e-21 4.75749)
(16.4454 -4.3608e-19 4.52443)
(16.9695 8.74244e-20 4.79139)
(16.7682 -4.27265e-20 4.56269)
(17.3089 3.76189e-21 4.81216)
(17.0991 4.22765e-20 4.58954)
(17.6533 -3.89757e-20 4.8184)
(17.4365 -3.9149e-20 4.60367)
(18.0003 2.53703e-19 4.8089)
(17.7783 0 4.60391)
(18.3472 6.17507e-20 4.78272)
(18.1225 3.54647e-21 4.58925)
(18.6912 -3.12675e-19 4.73935)
(18.4664 3.44727e-19 4.559)
(19.0295 -1.60953e-19 4.67875)
(18.8074 -3.45947e-19 4.51287)
(19.3589 1.28298e-19 4.60148)
(19.1428 4.88075e-20 4.45106)
(19.6768 9.27079e-20 4.50877)
(19.4697 3.819e-20 4.37432)
(19.9806 -7.85436e-20 4.40253)
(19.7857 -1.22281e-19 4.28405)
(20.2682 1.39915e-20 4.28538)
(20.0883 1.35498e-20 4.18228)
(20.5377 -8.3588e-20 4.16057)
(20.3756 -4.91102e-20 4.07168)
(20.7883 -9.85284e-21 4.03194)
(20.6462 -3.685e-20 3.95551)
(21.0195 1.17229e-19 3.90376)
(20.8993 8.36671e-20 3.8375)
(21.2318 1.1459e-20 3.78061)
(21.1348 -3.46442e-20 3.72176)
(21.4265 1.9317e-20 3.66715)
(21.3534 -2.35115e-20 3.61262)
(21.6056 4.99388e-20 3.56802)
(21.5564 4.55639e-21 3.51443)
(21.7719 1.91623e-21 3.48718)
(21.7455 -1.54566e-20 3.4315)
(21.9703 -4.41068e-21 3.36723)
(16.2611 3.94344e-20 4.28239)
(16.0809 4.05156e-19 4.05245)
(16.5733 -4.85108e-19 4.3234)
(16.3827 -3.97399e-19 4.09542)
(16.8944 -9.08286e-20 4.35463)
(16.6937 -4.73128e-20 4.12988)
(17.2231 0 4.37491)
(17.0129 0 4.15473)
(17.5579 0 4.38315)
(17.339 -3.89598e-20 4.16898)
(17.897 -2.56683e-19 4.37838)
(17.6707 0 4.17171)
(18.2382 2.86529e-19 4.35985)
(18.0061 -2.28499e-19 4.16215)
(18.5792 3.24544e-19 4.32709)
(18.3433 5.58618e-19 4.13972)
(18.9174 -1.38923e-19 4.28004)
(18.6799 -2.35897e-19 4.10419)
(19.2504 -4.33728e-20 4.21908)
(19.0137 -5.11114e-20 4.05566)
(19.5756 -1.7934e-19 4.14513)
(19.3422 4.40032e-20 3.99471)
(19.8906 -3.03858e-20 4.05969)
(19.6633 -3.75059e-20 3.92244)
(20.1932 -4.97362e-20 3.96486)
(19.9746 6.94185e-21 3.84045)
(20.4818 -1.36561e-21 3.86327)
(20.2745 -1.16597e-19 3.75088)
(20.7552 5.67621e-20 3.75807)
(20.5614 1.15254e-19 3.65639)
(21.0128 -6.98327e-20 3.65284)
(20.8344 -4.67947e-20 3.56006)
(21.2547 -7.07251e-20 3.55141)
(21.0932 -1.9027e-20 3.46528)
(21.4819 -3.91876e-20 3.45777)
(21.3382 -2.89446e-20 3.37571)
(21.6959 -6.21145e-20 3.37594)
(21.5705 -7.39825e-21 3.29504)
(21.8992 -1.75175e-20 3.30943)
(21.791 1.32958e-21 3.22696)
(22.0582 5.13577e-21 3.17469)
(16.1993 -2.55162e-20 3.85931)
(16.0218 3.98749e-19 3.63511)
(16.4997 4.40288e-20 3.89569)
(16.3122 0 3.67293)
(16.8086 4.47993e-20 3.92375)
(16.6113 2.30036e-20 3.70348)
(17.1251 -3.91276e-20 3.94258)
(16.9184 0 3.72589)
(17.4481 -3.97918e-20 3.95137)
(17.2325 3.69278e-20 3.73943)
(17.7761 3.37526e-20 3.94939)
(17.5524 3.61246e-20 3.74338)
(18.1074 3.43059e-20 3.93604)
(17.8767 2.59289e-19 3.73717)
(18.4401 0 3.91099)
(18.2039 -2.5378e-19 3.72035)
(18.7723 -1.4963e-19 3.87416)
(18.5321 -2.16949e-19 3.69275)
(19.1017 3.64202e-20 3.82587)
(18.8594 1.11696e-19 3.65448)
(19.4262 1.91095e-19 3.76685)
(19.1839 2.3514e-19 3.60601)
(19.7437 0 3.69829)
(19.5035 -4.51521e-20 3.54821)
(20.0524 -5.9175e-20 3.62187)
(19.8165 0 3.48237)
(20.3506 -1.48169e-21 3.53972)
(20.1212 -1.21058e-19 3.41021)
(20.6372 1.22086e-20 3.4544)
(20.4163 1.19615e-19 3.33388)
(20.9115 4.64866e-21 3.36883)
(20.7009 -2.11487e-21 3.25587)
(21.1736 2.39658e-20 3.2862)
(20.9746 -3.62913e-21 3.17899)
(21.4239 3.09245e-21 3.20985)
(21.2376 -1.25514e-20 3.10624)
(21.6637 5.73992e-20 3.14314)
(21.4909 5.61423e-20 3.04069)
(21.8952 2.42103e-20 3.08911)
(21.7347 2.56938e-20 2.98543)
(22.0341 2.43663e-21 2.94338)
(16.1314 4.33627e-19 3.44268)
(15.9574 4.35291e-19 3.22367)
(16.4204 -2.20661e-20 3.47462)
(16.2372 -2.29803e-20 3.25664)
(16.7175 -2.24553e-20 3.49949)
(16.5252 2.06882e-20 3.28342)
(17.0221 7.71812e-20 3.5166)
(16.8207 4.08883e-20 3.30338)
(17.333 1.14786e-19 3.52531)
(17.1231 4.0914e-20 3.3159)
(17.6492 2.62797e-19 3.52506)
(17.4313 2.4312e-19 3.32044)
(17.9693 -2.5505e-20 3.51543)
(17.7443 -8.82122e-21 3.31656)
(18.2918 -4.77137e-19 3.49616)
(18.0608 -4.6682e-19 3.30395)
(18.6151 4.43395e-20 3.46724)
(18.3792 -4.57956e-20 3.2825)
(18.9375 3.13154e-19 3.42894)
(18.6981 3.23384e-19 3.25233)
(19.2571 -1.45192e-21 3.38186)
(19.0159 4.42557e-20 3.21384)
(19.5722 -4.60746e-20 3.32697)
(19.3308 -5.04017e-20 3.16774)
(19.8813 -6.10457e-20 3.26562)
(19.6415 -1.12084e-19 3.11507)
(20.1829 -1.57728e-21 3.19954)
(19.9465 -8.77102e-20 3.05724)
(20.476 1.07137e-19 3.13078)
(20.2447 1.51818e-19 2.99596)
(20.76 -1.07641e-20 3.06174)
(20.5353 4.68897e-20 2.93326)
(21.0348 -4.0929e-20 2.995)
(20.8179 2.10952e-20 2.8714)
(21.3008 4.04667e-20 2.93331)
(21.0928 1.75943e-20 2.81282)
(21.559 2.42921e-20 2.87944)
(21.3604 1.00662e-21 2.76004)
(21.8113 1.02577e-21 2.83593)
(21.6211 -1.32643e-20 2.71556)
(21.9444 0 2.68195)
(16.06 -2.30693e-20 3.03166)
(15.8902 2.38575e-20 2.81727)
(16.3385 1.99055e-20 3.05942)
(16.1603 -2.37118e-20 2.84567)
(16.6248 8.52176e-20 3.08126)
(16.438 3.57372e-19 2.86892)
(16.9181 3.72519e-21 3.0966)
(16.723 -3.26708e-19 2.88648)
(17.2177 1.68305e-19 3.10494)
(17.0147 -3.88754e-20 2.89786)
(17.5227 -3.02205e-20 3.10586)
(17.3122 -2.86361e-20 2.90262)
(17.8319 -4.5205e-19 3.09903)
(17.6146 2.81346e-19 2.90045)
(18.1442 -3.30227e-20 3.08429)
(17.9209 -4.93993e-19 2.89112)
(18.4581 2.32967e-19 3.06167)
(18.2298 2.08869e-19 2.87458)
(18.7724 5.32863e-20 3.03141)
(18.5401 -9.69211e-20 2.85096)
(19.0854 -3.96966e-21 2.99403)
(18.8505 9.79055e-20 2.82059)
(19.3959 -1.1678e-19 2.9503)
(19.1596 1.61517e-19 2.78407)
(19.7025 -1.39908e-19 2.90133)
(19.4663 -2.32086e-19 2.74226)
(20.0041 6.48866e-20 2.84851)
(19.7694 6.82359e-21 2.69626)
(20.2997 9.21124e-20 2.79349)
(20.0679 6.41189e-20 2.64747)
(20.5889 7.98739e-20 2.73821)
(20.3612 0 2.5975)
(20.8716 8.09766e-20 2.68474)
(20.6491 4.16038e-20 2.54818)
(21.1481 -2.24143e-20 2.6353)
(20.9316 0 2.50145)
(21.4192 -3.69864e-20 2.59214)
(21.2092 1.05703e-21 2.45934)
(21.6865 -1.44859e-20 2.55732)
(21.482 7.06254e-22 2.42383)
(21.8227 0 2.39714)
(15.9872 2.42396e-20 2.6255)
(15.8222 -7.47132e-19 2.41483)
(16.2563 3.14143e-19 2.64932)
(16.0835 3.83478e-19 2.4389)
(16.5328 -5.02948e-20 2.66826)
(16.3522 3.21238e-19 2.45877)
(16.8161 -3.7668e-19 2.68183)
(16.6279 -3.98172e-19 2.47399)
(17.1055 -2.41202e-19 2.68962)
(16.9101 2.913e-19 2.48412)
(17.4004 2.84331e-19 2.6913)
(17.198 -4.97889e-19 2.48883)
(17.6997 2.54897e-19 2.68664)
(17.491 7.62103e-19 2.48789)
(18.0025 -2.60618e-19 2.67555)
(17.7882 -6.26149e-19 2.48115)
(18.3077 -1.23178e-19 2.65808)
(18.0884 1.71588e-19 2.4686)
(18.6141 -5.50733e-20 2.63443)
(18.3908 -5.53032e-20 2.45036)
(18.9205 2.66278e-19 2.60504)
(18.6942 2.88205e-21 2.42671)
(19.2258 5.12304e-20 2.57056)
(18.9976 2.51387e-19 2.39814)
(19.5289 -8.63807e-20 2.53187)
(19.2999 -1.99792e-19 2.36534)
(19.8289 4.89659e-21 2.49008)
(19.6003 -2.93847e-20 2.3292)
(20.1251 -2.90038e-20 2.44652)
(19.8979 -2.11932e-20 2.29083)
(20.417 -3.99264e-20 2.40272)
(20.1924 1.24238e-19 2.2515)
(20.7046 -4.04903e-20 2.36034)
(20.4833 -1.04155e-19 2.21266)
(20.9882 2.40562e-20 2.32115)
(20.7709 1.81348e-21 2.17584)
(21.2685 3.97388e-20 2.2869)
(21.0555 -8.75821e-21 2.14264)
(21.5467 1.55866e-20 2.25926)
(21.3372 1.03211e-20 2.11461)
(21.6908 0 2.09356)
(15.9153 -4.03666e-19 2.22233)
(15.7555 -7.91979e-19 2.01502)
(16.176 3.92146e-19 2.24239)
(16.0091 3.93742e-19 2.03498)
(16.4439 -1.99723e-20 2.25849)
(16.2698 0 2.05157)
(16.7184 2.72222e-19 2.27023)
(16.5374 -2.0531e-20 2.06442)
(16.999 4.50132e-20 2.27726)
(16.8114 3.1741e-19 2.07318)
(17.285 -3.47122e-20 2.27935)
(17.0911 -2.92408e-19 2.0776)
(17.5757 -1.12347e-19 2.27634)
(17.376 1.34024e-19 2.0775)
(17.8702 -1.99666e-19 2.26818)
(17.6652 -2.82015e-19 2.0728)
(18.1676 2.45988e-19 2.2549)
(17.958 3.99481e-20 2.06349)
(18.4669 2.9761e-21 2.23672)
(18.2534 2.07274e-19 2.04969)
(18.7672 -1.74704e-20 2.21397)
(18.5507 -1.23574e-19 2.03164)
(19.0676 3.20338e-21 2.18719)
(18.8488 4.20277e-20 2.00972)
(19.3671 -1.44807e-19 2.15706)
(19.1471 -8.1845e-20 1.98448)
(19.6651 -5.63208e-20 2.12448)
(19.4447 -1.68404e-21 1.95662)
(19.961 1.33065e-19 2.09048)
(19.7411 -5.40109e-20 1.927)
(20.2543 6.29941e-20 2.05628)
(20.0358 1.48574e-19 1.89662)
(20.5452 -6.29138e-20 2.02317)
(20.3287 -1.10162e-19 1.8666)
(20.8338 -3.14706e-20 1.99253)
(20.6198 3.43023e-20 1.83813)
(21.1207 -3.89956e-20 1.96573)
(20.9096 -3.39866e-20 1.81244)
(21.4071 -5.31562e-21 1.94407)
(21.198 -5.33725e-21 1.79073)
(21.5611 0 1.77455)
(15.8462 0 1.82227)
(15.6919 -1.12646e-20 1.61642)
(16.0996 0 1.83871)
(15.939 0 1.63238)
(16.3601 -1.19395e-22 1.85202)
(16.193 0 1.64573)
(16.627 1.83867e-20 1.86188)
(16.4537 3.82364e-20 1.65616)
(16.9001 -1.5635e-20 1.86801)
(16.7207 8.7627e-22 1.66341)
(17.1785 -1.28486e-19 1.87025)
(16.9935 -3.52269e-20 1.66729)
(17.4618 -3.11818e-20 1.86849)
(17.2715 -1.43061e-19 1.66769)
(17.7492 -4.29189e-20 1.8627)
(17.5541 2.09405e-19 1.66455)
(18.04 -3.32597e-21 1.85292)
(17.8405 -3.29051e-19 1.65787)
(18.3333 8.43515e-20 1.83933)
(18.1302 1.87517e-19 1.64775)
(18.6284 -6.59459e-20 1.82219)
(18.4222 8.74626e-20 1.63437)
(18.9244 -4.26719e-20 1.80192)
(18.7159 -2.92901e-20 1.61805)
(19.2207 6.33526e-20 1.77907)
(19.0107 -1.50003e-19 1.59919)
(19.5167 1.7763e-21 1.75431)
(19.3059 1.34936e-19 1.57834)
(19.8119 -4.22139e-20 1.72845)
(19.601 -1.17862e-19 1.55614)
(20.106 -2.37443e-20 1.70241)
(19.8956 9.77803e-20 1.53336)
(20.3991 -1.33903e-20 1.6772)
(20.1898 -4.80784e-20 1.51084)
(20.6914 3.30892e-20 1.65386)
(20.4835 1.70998e-20 1.48948)
(20.9834 0 1.63343)
(20.7771 0 1.47021)
(21.276 0 1.61689)
(21.0705 0 1.45389)
(21.4407 0 1.4417)
(15.7818 -1.15205e-20 1.4202)
(15.6331 -5.89212e-22 1.21735)
(16.0292 0 1.433)
(15.8747 0 1.22938)
(16.2834 3.84909e-20 1.44341)
(16.1232 1.56023e-19 1.23947)
(16.5441 2.10935e-20 1.45118)
(16.3783 -1.32768e-19 1.2474)
(16.8108 -1.84067e-20 1.45614)
(16.6396 -1.84915e-20 1.25298)
(17.083 -4.77479e-20 1.45816)
(16.9067 1.30107e-19 1.25611)
(17.3602 9.62742e-20 1.45718)
(17.1791 -1.61327e-19 1.2567)
(17.6418 -7.27743e-20 1.45316)
(17.4563 1.62572e-19 1.25471)
(17.9271 -1.44172e-19 1.44616)
(17.7377 -2.24776e-19 1.25014)
(18.2154 1.9275e-19 1.4363)
(18.0226 9.33682e-20 1.24308)
(18.5061 1.2744e-19 1.42379)
(18.3105 1.25786e-19 1.23365)
(18.7985 -1.36918e-19 1.40896)
(18.6006 -6.5014e-21 1.22209)
(19.0921 -8.24631e-20 1.39219)
(18.8925 -1.53932e-19 1.20869)
(19.3863 1.73908e-20 1.374)
(19.1857 1.03124e-19 1.19384)
(19.6808 2.13347e-20 1.355)
(19.4796 -5.92717e-20 1.17803)
(19.9754 7.58303e-20 1.33586)
(19.7742 6.39376e-20 1.16179)
(20.2701 -1.79772e-20 1.31733)
(20.0692 -2.18926e-20 1.14575)
(20.5651 -1.63551e-20 1.30019)
(20.3648 -1.64409e-20 1.13055)
(20.8609 0 1.28521)
(20.6614 -4.87948e-21 1.11688)
(21.158 0 1.27318)
(20.9587 3.46348e-21 1.10542)
(21.3345 1.33667e-21 1.09726)
(15.7231 1.12513e-20 1.02216)
(15.5804 1.13016e-20 0.815925)
(15.9657 1.56705e-19 1.03148)
(15.8178 0 0.824005)
(16.2149 -1.33773e-20 1.0391)
(16.0619 1.60293e-19 0.830786)
(16.4706 -1.7604e-19 1.04486)
(16.3126 -2.53595e-19 0.836125)
(16.7322 1.30711e-19 1.04865)
(16.5694 7.96378e-20 0.839919)
(16.9995 1.99388e-20 1.05039)
(16.8321 1.33635e-19 0.842099)
(17.2719 -1.00321e-19 1.05002)
(17.1003 -1.15531e-19 0.842612)
(17.5488 1.48921e-20 1.04755)
(17.3733 6.45889e-22 0.841431)
(17.8298 1.23388e-20 1.04299)
(17.6507 0 0.838563)
(18.1142 2.40077e-20 1.03643)
(17.932 -2.22459e-20 0.834057)
(18.4015 -8.98443e-21 1.02803)
(18.2167 8.42756e-20 0.828008)
(18.6911 -2.0963e-20 1.01801)
(18.5041 -2.46072e-20 0.820563)
(18.9825 3.11752e-20 1.00664)
(18.7938 -3.82938e-20 0.811922)
(19.2753 2.78198e-20 0.994276)
(19.0853 7.04976e-20 0.80234)
(19.5693 -1.80923e-20 0.981341)
(19.3784 -2.69662e-20 0.792127)
(19.8642 -3.46739e-20 0.968309)
(19.6728 -3.27435e-20 0.781645)
(20.1601 -2.05607e-20 0.955703)
(19.9684 -2.56954e-20 0.771301)
(20.4572 -4.90485e-21 0.944073)
(20.2654 -3.98578e-21 0.761536)
(20.7559 -1.49175e-21 0.933973)
(20.5641 -2.06981e-21 0.752813)
(21.057 3.29865e-21 0.925958)
(20.8644 3.5513e-21 0.745567)
(21.2438 1.3704e-21 0.740463)
(15.6723 0 0.609599)
(15.4305 0 0.409938)
(15.9111 0 0.615028)
(15.6642 0 0.413977)
(16.1566 -7.70885e-20 0.619438)
(15.9045 0 0.417359)
(16.4084 1.54559e-21 0.622741)
(16.1512 -7.43346e-20 0.420014)
(16.6663 8.14328e-20 0.624871)
(16.404 1.06704e-19 0.421883)
(16.9298 0 0.625788)
(16.6627 -3.28284e-20 0.422928)
(17.1986 -1.43009e-20 0.625465)
(16.9268 0 0.423129)
(17.4721 -1.45428e-20 0.6239)
(17.1958 -4.18557e-20 0.422479)
(17.7498 -3.51169e-20 0.621117)
(17.4693 5.20489e-20 0.420984)
(18.0313 3.73446e-20 0.617171)
(17.7468 -6.07037e-20 0.41867)
(18.316 7.0638e-20 0.612153)
(18.0276 5.88346e-20 0.415586)
(18.6035 -4.21113e-20 0.606192)
(18.3115 3.63521e-20 0.411805)
(18.8933 -2.17791e-22 0.599457)
(18.5978 -5.81494e-20 0.407426)
(19.185 1.63062e-20 0.592159)
(18.8863 3.93521e-20 0.402578)
(19.4785 -4.17176e-20 0.584547)
(19.1766 -3.14131e-20 0.397418)
(19.7735 -2.35213e-20 0.576913)
(19.4684 -1.91416e-20 0.39213)
(20.0702 -9.13762e-21 0.569582)
(19.7619 4.1403e-21 0.386933)
(20.3687 -1.11843e-21 0.562925)
(20.0571 -4.67386e-21 0.382081)
(20.6694 2.99358e-21 0.557369)
(20.3544 2.09763e-22 0.377896)
(20.9727 0 0.553534)
(20.6541 0 0.374846)
(21.0331 0 0.374203)
(15.417 0 0.212963)
(15.6519 0 0.215013)
(15.8934 4.52986e-21 0.216689)
(16.1412 2.95679e-20 0.217958)
(16.3948 -7.57961e-21 0.218792)
(16.654 -3.35488e-20 0.219171)
(16.9183 -2.73704e-20 0.219087)
(17.1873 2.44631e-20 0.218541)
(17.4604 2.8196e-20 0.217542)
(17.7372 -4.11072e-20 0.216108)
(18.0171 2.41849e-20 0.214269)
(18.2998 2.18542e-20 0.21207)
(18.5847 -1.96824e-20 0.209568)
(18.8716 -8.3493e-21 0.206838)
(19.1602 -8.52022e-21 0.203967)
(19.4504 8.93833e-21 0.201062)
(19.7423 9.0793e-21 0.198247)
(20.0362 -3.39974e-21 0.195681)
(20.3326 -2.93212e-21 0.193585)
(20.6326 0 0.192466)
)
;

boundaryField
{
    inlet
    {
        type            calculated;
        value           nonuniform 0();
    }
    outlet
    {
        type            calculated;
        value           nonuniform List<vector> 
15
(
(20.0782 9.21193e-22 3.61124)
(20.96 0 3.62451)
(21.5674 0 3.56935)
(21.9295 -1.41101e-20 3.45165)
(22.0955 5.45204e-21 3.28039)
(22.1218 4.81123e-21 3.0657)
(22.0606 0 2.81721)
(21.9527 0 2.54243)
(21.8255 0 2.2475)
(21.695 0 1.93489)
(21.5712 0 1.60992)
(21.4581 0 1.26818)
(21.362 2.70725e-21 0.922697)
(21.2789 0 0.552256)
(20.9388 0 0.192286)
)
;
    }
    flap
    {
        type            calculated;
        value           nonuniform 0();
    }
    upperWall
    {
        type            calculated;
        value           uniform (0 0 0);
    }
    lowerWall
    {
        type            calculated;
        value           nonuniform 0();
    }
    frontAndBack
    {
        type            empty;
        value           nonuniform 0();
    }
    procBoundary2to1
    {
        type            processor;
        value           nonuniform List<vector> 
17
(
(15.7875 2.33254e-19 6.73533)
(15.9354 2.05653e-19 6.35798)
(16.0081 8.4389e-19 5.94557)
(16.0323 5.17965e-20 5.51738)
(16.0256 -4.01945e-19 5.08548)
(15.9989 7.97971e-19 4.65637)
(15.9585 4.83292e-21 4.23284)
(15.9082 -5.18154e-20 3.81562)
(15.8512 3.99518e-19 3.40446)
(15.7897 -4.10482e-19 2.99857)
(15.726 4.52712e-19 2.59726)
(15.662 -1.15794e-18 2.19868)
(15.5999 -4.24984e-19 1.80298)
(15.5414 7.50528e-22 1.40524)
(15.4875 5.13131e-21 1.01131)
(15.4403 5.77223e-21 0.603249)
(15.1888 -4.46383e-20 0.21057)
)
;
    }
    procBoundary2to4
    {
        type            processor;
        value           nonuniform List<vector> 
11
(
(3.83903 1.9003e-19 5.25947)
(5.08523 -7.7976e-20 5.4311)
(6.45636 0 5.64055)
(7.97922 1.63526e-19 5.94966)
(9.58462 -1.2766e-19 6.35079)
(11.1359 -1.73073e-19 6.7667)
(12.5085 -6.30428e-20 7.1086)
(13.6333 -4.65048e-20 7.31708)
(14.4943 5.99496e-20 7.36974)
(15.1126 -2.64793e-19 7.273)
(15.5281 2.05002e-19 7.05093)
)
;
    }
    procBoundary2to5
    {
        type            processor;
        value           nonuniform List<vector> 
34
(
(3.15838 -3.04064e-19 5.24625)
(2.95751 1.57584e-20 5.36163)
(3.48385 -1.19828e-19 5.51547)
(4.02858 -1.34497e-19 5.65723)
(3.82029 2.2152e-19 5.67768)
(4.41456 -3.44713e-20 5.7834)
(5.0173 -2.4842e-19 5.87273)
(5.66158 -1.03528e-19 5.94342)
(6.30438 0 5.99588)
(6.13941 0 5.86603)
(6.84425 -1.00078e-19 5.87729)
(7.53442 -6.59257e-21 5.8681)
(7.38856 0 5.63192)
(8.14091 6.28054e-20 5.58607)
(8.86367 6.41065e-20 5.52073)
(9.62671 -2.90927e-20 5.44515)
(10.353 -7.30246e-20 5.35451)
(10.2377 6.08342e-20 4.99565)
(11.0031 1.54127e-20 4.89385)
(11.7254 -8.6529e-21 4.78264)
(12.4735 4.43108e-21 4.68089)
(13.1801 1.64056e-20 4.57305)
(13.0425 1.64107e-20 4.19552)
(13.773 1.28607e-20 4.12182)
(14.4637 5.16462e-21 4.04012)
(15.1794 6.67835e-21 3.98663)
(15.8475 5.27065e-21 3.92054)
(15.7023 5.03321e-21 3.64303)
(16.4135 7.70049e-21 3.63482)
(17.0623 5.60429e-21 3.60589)
(17.7468 -1.50498e-21 3.609)
(18.347 -1.74828e-20 3.58605)
(18.9818 -1.38006e-20 3.59247)
(19.5043 2.80766e-22 3.56869)
)
;
    }
}


// ************************************************************************* //
