/*--------------------------------*- C++ -*----------------------------------*\
| =========                 |                                                 |
| \\      /  F ield         | OpenFOAM: The Open Source CFD Toolbox           |
|  \\    /   O peration     | Version:  dev                                   |
|   \\  /    A nd           | Web:      www.OpenFOAM.org                      |
|    \\/     M anipulation  |                                                 |
\*---------------------------------------------------------------------------*/
FoamFile
{
    version     2.0;
    format      ascii;
    class       volVectorField;
    location    "3.79";
    object      cellDisplacement;
}
// * * * * * * * * * * * * * * * * * * * * * * * * * * * * * * * * * * * * * //

dimensions      [0 1 0 0 0 0 0];

internalField   nonuniform List<vector> 
2790
(
(0.000591129 0 -3.64093e-06)
(0.00170738 0 -1.05594e-05)
(0.00270404 0 -1.6862e-05)
(0.00359715 0 -2.27005e-05)
(0.00440059 0 -2.81934e-05)
(0.00512636 0 -3.34305e-05)
(0.00578487 0 -3.84773e-05)
(0.00638511 0 -4.33764e-05)
(0.00693481 0 -4.81474e-05)
(0.00744049 0 -5.27853e-05)
(0.00790744 0 -5.7257e-05)
(0.0083397 0 -6.14943e-05)
(0.00873988 0 -6.5386e-05)
(0.00910895 0 -6.87653e-05)
(0.00944595 0 -7.13935e-05)
(0.00974752 0 -7.29401e-05)
(0.0100074 0 -7.29564e-05)
(0.0102158 0 -7.08454e-05)
(0.0103588 0 -6.58253e-05)
(0.0104176 0 -5.68905e-05)
(0.0103679 0 -4.27711e-05)
(0.0101806 0 -2.18968e-05)
(0.0098219 0 7.63462e-06)
(0.00925666 0 4.80632e-05)
(0.00845312 0 0.000101938)
(0.00739216 0 0.000172001)
(0.006083 0 0.000260823)
(0.00459066 0 0.00036963)
(0.00309004 0 0.000494106)
(0.00201369 0 0.000608206)
(0.000590329 0 -1.09126e-05)
(0.00170506 0 -3.16493e-05)
(0.00270033 0 -5.05418e-05)
(0.00359211 0 -6.80446e-05)
(0.00439426 0 -8.4513e-05)
(0.00511876 0 -0.000100217)
(0.00577601 0 -0.000115355)
(0.006375 0 -0.000130055)
(0.00692349 0 -0.00014438)
(0.00742806 0 -0.000158318)
(0.0078941 0 -0.000171777)
(0.00832579 0 -0.00018456)
(0.00872601 0 -0.000196347)
(0.00909608 0 -0.000206656)
(0.00943556 0 -0.000214797)
(0.00974187 0 -0.000219816)
(0.0100098 0 -0.000220419)
(0.0102312 0 -0.000214886)
(0.0103939 0 -0.00020097)
(0.010482 0 -0.000175792)
(0.0104748 0 -0.000135732)
(0.0103475 0 -7.63423e-05)
(0.010072 0 7.69526e-06)
(0.00961981 0 0.000122516)
(0.008967 0 0.000274828)
(0.00810365 0 0.000471259)
(0.00704944 0 0.000716675)
(0.00588006 0 0.0010097)
(0.00477167 0 0.00132988)
(0.00408858 0 0.00159839)
(0.000588674 0 -1.81508e-05)
(0.00170027 0 -5.26443e-05)
(0.00269268 0 -8.40738e-05)
(0.00358177 0 -0.000113196)
(0.00438131 0 -0.000140602)
(0.00510324 0 -0.000166745)
(0.00575794 0 -0.000191956)
(0.00635442 0 -0.000216456)
(0.00690048 0 -0.000240357)
(0.0074028 0 -0.000263655)
(0.00786696 0 -0.000286212)
(0.00829744 0 -0.000307733)
(0.00869754 0 -0.000327724)
(0.0090693 0 -0.000345441)
(0.00941326 0 -0.000359821)
(0.00972825 0 -0.000369392)
(0.0100111 0 -0.000372164)
(0.0102564 0 -0.000365501)
(0.0104558 0 -0.000345979)
(0.0105985 0 -0.00030923)
(0.0106702 0 -0.00024982)
(0.0106544 0 -0.000161166)
(0.0105331 0 -3.5575e-05)
(0.0102894 0 0.000135465)
(0.00991211 0 0.000360537)
(0.00940402 0 0.000646623)
(0.00879385 0 0.000995476)
(0.00815368 0 0.00139567)
(0.00761794 0 0.00180484)
(0.00740193 0 0.00210975)
(0.000586211 0 -2.53277e-05)
(0.00169314 0 -7.34636e-05)
(0.00268128 0 -0.00011733)
(0.00356633 0 -0.000157982)
(0.00436197 0 -0.000196249)
(0.00508006 0 -0.000232766)
(0.00573093 0 -0.000268003)
(0.00632362 0 -0.000302281)
(0.00686597 0 -0.000335771)
(0.00736482 0 -0.000368495)
(0.00782597 0 -0.000400299)
(0.0082543 0 -0.000430826)
(0.00865373 0 -0.000459469)
(0.00902719 0 -0.000485305)
(0.00937655 0 -0.000507012)
(0.00970255 0 -0.000522765)
(0.0100047 0 -0.000530109)
(0.0102812 0 -0.000525806)
(0.0105289 0 -0.000505682)
(0.0107435 0 -0.000464466)
(0.0109193 0 -0.000395686)
(0.0110504 0 -0.000291666)
(0.0111314 0 -0.000143732)
(0.0111594 0 5.71442e-05)
(0.0111373 0 0.000318947)
(0.0110781 0 0.000645869)
(0.0110102 0 0.00103312)
(0.0109811 0 0.00145752)
(0.0110498 0 0.00186139)
(0.0112588 0 0.00212735)
(0.000582965 0 -3.2412e-05)
(0.00168373 0 -9.40166e-05)
(0.00266622 0 -0.000150165)
(0.00354593 0 -0.000202208)
(0.00433639 0 -0.000251211)
(0.00504937 0 -0.000297993)
(0.00569514 0 -0.000343167)
(0.00628273 0 -0.00038716)
(0.00682007 0 -0.000430223)
(0.0073141 0 -0.000472422)
(0.00777093 0 -0.000513621)
(0.00819587 0 -0.000553453)
(0.00859351 0 -0.000591265)
(0.0089678 0 -0.000626058)
(0.00932211 0 -0.000656397)
(0.0096593 0 -0.000680304)
(0.00998187 0 -0.000695135)
(0.0102921 0 -0.00069743)
(0.0105924 0 -0.000682773)
(0.0108856 0 -0.000645665)
(0.0111755 0 -0.000579473)
(0.0114673 0 -0.000476541)
(0.0117688 0 -0.000328579)
(0.012091 0 -0.000127637)
(0.0124486 0 0.000132011)
(0.0128596 0 0.000450492)
(0.013342 0 0.00081675)
(0.0139025 0 0.00120018)
(0.0145093 0 0.00154017)
(0.0150438 0 0.00173753)
(0.00057897 0 -3.93703e-05)
(0.00167213 0 -0.000114205)
(0.00264764 0 -0.00018242)
(0.00352074 0 -0.000245658)
(0.00430478 0 -0.000305216)
(0.0050114 0 -0.000362099)
(0.00565081 0 -0.000417068)
(0.00623201 0 -0.000470666)
(0.00676296 0 -0.000523235)
(0.00725075 0 -0.000574912)
(0.00770173 0 -0.000625616)
(0.00812166 0 -0.00067502)
(0.0085158 0 -0.000722506)
(0.00888909 0 -0.000767106)
(0.00924636 0 -0.000807423)
(0.00959255 0 -0.000841539)
(0.00993302 0 -0.000866908)
(0.010274 0 -0.000880237)
(0.0106231 0 -0.000877382)
(0.01099 0 -0.000853276)
(0.0113871 0 -0.00080195)
(0.0118299 0 -0.000716743)
(0.0123379 0 -0.000590813)
(0.0129334 0 -0.000418256)
(0.0136396 0 -0.000196103)
(0.0144747 0 7.24011e-05)
(0.0154393 0 0.000373019)
(0.0164941 0 0.000674717)
(0.017521 0 0.000925319)
(0.0182734 0 0.00105412)
(0.000574262 0 -4.61673e-05)
(0.00165846 0 -0.000133926)
(0.0026257 0 -0.000213929)
(0.00349096 0 -0.000288105)
(0.00426739 0 -0.000357977)
(0.00496646 0 -0.000424738)
(0.00559827 0 -0.000489297)
(0.00617178 0 -0.000552323)
(0.00669496 0 -0.000614264)
(0.00717499 0 -0.000675351)
(0.00761844 0 -0.000735592)
(0.00803141 0 -0.000794753)
(0.00841976 0 -0.000852321)
(0.00878928 0 -0.000907462)
(0.00914604 0 -0.000958961)
(0.00949673 0 -0.00100515)
(0.00984909 0 -0.00104385)
(0.0102126 0 -0.00107228)
(0.0105991 0 -0.00108701)
(0.0110236 0 -0.00108395)
(0.0115051 0 -0.00105845)
(0.0120672 0 -0.00100557)
(0.0127376 0 -0.00092053)
(0.0135468 0 -0.000799804)
(0.0145226 0 -0.000642735)
(0.0156802 0 -0.000454058)
(0.017003 0 -0.000247146)
(0.0184121 0 -4.70311e-05)
(0.0197222 0 0.000109446)
(0.0206012 0 0.000180824)
(0.000568882 0 -5.27677e-05)
(0.00164282 0 -0.000153076)
(0.00260059 0 -0.000244524)
(0.00345686 0 -0.000329316)
(0.00422453 0 -0.0004092)
(0.00491491 0 -0.000485549)
(0.00553795 0 -0.000559426)
(0.00610251 0 -0.00063163)
(0.00661653 0 -0.000702727)
(0.00708724 0 -0.000773061)
(0.00752134 0 -0.00084276)
(0.00792517 0 -0.000911724)
(0.00830499 0 -0.000979609)
(0.00866723 0 -0.0010458)
(0.0090188 0 -0.00110938)
(0.00936761 0 -0.00116908)
(0.00972301 0 -0.00122329)
(0.0100966 0 -0.00126999)
(0.0105027 0 -0.00130679)
(0.0109598 0 -0.00133097)
(0.0114907 0 -0.0013396)
(0.012123 0 -0.00132983)
(0.0128892 0 -0.00129922)
(0.0138231 0 -0.00124646)
(0.0149542 0 -0.00117233)
(0.0162946 0 -0.001081)
(0.0178165 0 -0.000981473)
(0.019417 0 -0.000888358)
(0.0208735 0 -0.000820287)
(0.0218101 0 -0.00079313)
(0.000562876 0 -5.91364e-05)
(0.00162534 0 -0.000171553)
(0.00257251 0 -0.000274038)
(0.00341871 0 -0.000369063)
(0.00417658 0 -0.000458592)
(0.00485719 0 -0.000544174)
(0.00547035 0 -0.000627025)
(0.00602476 0 -0.000708077)
(0.0065283 0 -0.000788021)
(0.00698815 0 -0.000867329)
(0.00741104 0 -0.000946268)
(0.00780341 0 -0.00102491)
(0.00817172 0 -0.00110311)
(0.00852268 0 -0.00118054)
(0.00886363 0 -0.00125664)
(0.00920299 0 -0.00133067)
(0.00955079 0 -0.00140168)
(0.00991929 0 -0.00146856)
(0.0103238 0 -0.00153012)
(0.0107832 0 -0.00158516)
(0.0113209 0 -0.00163263)
(0.011965 0 -0.00167186)
(0.0127473 0 -0.00170268)
(0.013701 0 -0.00172567)
(0.0148544 0 -0.00174228)
(0.0162183 0 -0.00175471)
(0.0177634 0 -0.00176549)
(0.0193849 0 -0.00177671)
(0.020857 0 -0.00178834)
(0.0217998 0 -0.00179503)
(0.00055629 0 -6.524e-05)
(0.00160617 0 -0.000189257)
(0.00254169 0 -0.000302311)
(0.00337683 0 -0.000407126)
(0.00412392 0 -0.000505871)
(0.00479381 0 -0.000600267)
(0.00539607 0 -0.000691676)
(0.00593924 0 -0.000781163)
(0.00643106 0 -0.000869548)
(0.00687859 0 -0.000957436)
(0.00728847 0 -0.00104524)
(0.0076671 0 -0.00113323)
(0.00802087 0 -0.00122147)
(0.00835646 0 -0.00130995)
(0.00868114 0 -0.00139852)
(0.00900316 0 -0.00148695)
(0.00933221 0 -0.001575)
(0.00967994 0 -0.00166249)
(0.0100605 0 -0.0017494)
(0.0104911 0 -0.00183602)
(0.0109924 0 -0.00192307)
(0.0115885 0 -0.00201187)
(0.0123066 0 -0.00210425)
(0.0131746 0 -0.0022024)
(0.0142167 0 -0.00230809)
(0.0154437 0 -0.00242126)
(0.0168349 0 -0.00253785)
(0.0183072 0 -0.00264747)
(0.019668 0 -0.00273225)
(0.0205721 0 -0.00276838)
(0.000549173 0 -7.1047e-05)
(0.00158545 0 -0.000206098)
(0.00250837 0 -0.000329195)
(0.00333155 0 -0.000443299)
(0.00406701 0 -0.000550775)
(0.0047253 0 -0.000653504)
(0.00531577 0 -0.000752986)
(0.00584674 0 -0.000850416)
(0.00632573 0 -0.000946738)
(0.00675963 0 -0.00104269)
(0.00715488 0 -0.00113884)
(0.00751766 0 -0.00123562)
(0.0078541 0 -0.00133336)
(0.0081705 0 -0.00143232)
(0.00847363 0 -0.00153272)
(0.00877095 0 -0.00163486)
(0.00907095 0 -0.00173913)
(0.0093835 0 -0.00184616)
(0.00972008 0 -0.00195696)
(0.0100941 0 -0.00207303)
(0.0105207 0 -0.00219655)
(0.0110172 0 -0.0023304)
(0.0116018 0 -0.00247803)
(0.0122932 0 -0.00264295)
(0.0131076 0 -0.00282742)
(0.0140551 0 -0.0030301)
(0.0151292 0 -0.00324224)
(0.0162866 0 -0.00344331)
(0.0174036 0 -0.00359904)
(0.0182142 0 -0.00366683)
(0.000541573 0 -7.65285e-05)
(0.00156332 0 -0.00022199)
(0.0024728 0 -0.000354553)
(0.00328323 0 -0.000477397)
(0.00400629 0 -0.000593066)
(0.00465225 0 -0.000703589)
(0.00523017 0 -0.000810598)
(0.00574813 0 -0.000915405)
(0.00621339 0 -0.00101907)
(0.00663257 0 -0.00112246)
(0.00701182 0 -0.00122628)
(0.00735698 0 -0.00133112)
(0.00767372 0 -0.00143752)
(0.00796774 0 -0.001546)
(0.00824492 0 -0.00165712)
(0.00851147 0 -0.00177157)
(0.00877411 0 -0.00189026)
(0.00904008 0 -0.00201444)
(0.0093172 0 -0.00214583)
(0.00961373 0 -0.0022868)
(0.00993804 0 -0.00244043)
(0.0102982 0 -0.00261059)
(0.0107013 0 -0.00280172)
(0.0111533 0 -0.00301829)
(0.0116588 0 -0.00326346)
(0.0122218 0 -0.00353634)
(0.012847 0 -0.00382726)
(0.0135359 0 -0.00411074)
(0.0142613 0 -0.00433915)
(0.0148934 0 -0.00444713)
(0.000533538 0 -8.16587e-05)
(0.00153993 0 -0.000236859)
(0.00243521 0 -0.000378265)
(0.00323221 0 -0.000509257)
(0.00394225 0 -0.000632536)
(0.00457527 0 -0.000750269)
(0.00514004 0 -0.000864202)
(0.00564435 0 -0.000975755)
(0.00609517 0 -0.00108609)
(0.00649881 0 -0.00119618)
(0.00686105 0 -0.00130686)
(0.00718727 0 -0.00141885)
(0.00748258 0 -0.00153286)
(0.00775189 0 -0.0016496)
(0.00799999 0 -0.00176988)
(0.0082316 0 -0.00189467)
(0.00845132 0 -0.00202521)
(0.00866347 0 -0.00216312)
(0.00887185 0 -0.0023105)
(0.00907931 0 -0.00247005)
(0.00928702 0 -0.00264518)
(0.00949376 0 -0.00283997)
(0.00969515 0 -0.00305904)
(0.00988336 0 -0.00330712)
(0.0100481 0 -0.00358812)
(0.0101806 0 -0.00390317)
(0.0102834 0 -0.0042463)
(0.0103859 0 -0.00459579)
(0.0105577 0 -0.00489927)
(0.0108713 0 -0.00506248)
(0.000525113 0 -8.64151e-05)
(0.00151543 0 -0.00025064)
(0.00239586 0 -0.000400231)
(0.00317885 0 -0.000538741)
(0.00387535 0 -0.000669013)
(0.00449496 0 -0.00079333)
(0.00504614 0 -0.000913542)
(0.00553637 0 -0.00103116)
(0.00597229 0 -0.00114743)
(0.00635986 0 -0.00126341)
(0.00670446 0 -0.00138003)
(0.00701098 0 -0.00149812)
(0.00728385 0 -0.00161849)
(0.00752716 0 -0.00174199)
(0.00774455 0 -0.00186957)
(0.00793919 0 -0.00200234)
(0.00811358 0 -0.00214167)
(0.00826928 0 -0.00228927)
(0.00840638 0 -0.00244725)
(0.00852294 0 -0.0026182)
(0.00861404 0 -0.00280518)
(0.00867079 0 -0.00301171)
(0.00867946 0 -0.00324155)
(0.00862088 0 -0.00349848)
(0.00847111 0 -0.00378596)
(0.00820519 0 -0.0041065)
(0.00780779 0 -0.0044603)
(0.00729894 0 -0.00484003)
(0.00678773 0 -0.00521117)
(0.00656495 0 -0.00545991)
(0.000516337 0 -9.07788e-05)
(0.00148995 0 -0.000263277)
(0.00235496 0 -0.000420366)
(0.00312348 0 -0.000565737)
(0.00380605 0 -0.000702356)
(0.00441193 0 -0.000832605)
(0.00494924 0 -0.000958416)
(0.00542514 0 -0.00108138)
(0.00584595 0 -0.0012028)
(0.00621726 0 -0.00132381)
(0.00654402 0 -0.00144538)
(0.0068306 0 -0.00156843)
(0.00708082 0 -0.0016938)
(0.00729793 0 -0.00182242)
(0.00748449 0 -0.00195526)
(0.0076423 0 -0.00209344)
(0.00777207 0 -0.00223828)
(0.00787306 0 -0.00239132)
(0.00794256 0 -0.00255439)
(0.00797518 0 -0.00272953)
(0.00796201 0 -0.00291896)
(0.00788965 0 -0.00312493)
(0.00773943 0 -0.00334941)
(0.00748693 0 -0.00359378)
(0.00710232 0 -0.0038586)
(0.00655231 0 -0.0041437)
(0.00580608 0 -0.00444955)
(0.00485161 0 -0.00478213)
(0.00374102 0 -0.00515504)
(0.00282262 0 -0.00552524)
(0.00217382 0 -0.00073224)
(0.00348763 0 -0.000654965)
(0.00525102 0 -0.0005449)
(0.00698248 0 -0.000438022)
(0.00847031 0 -0.000345375)
(0.0096481 0 -0.000269255)
(0.0105194 0 -0.000208624)
(0.011118 0 -0.0001613)
(0.0114878 0 -0.000124884)
(0.0116722 0 -9.71437e-05)
(0.0117097 0 -7.6162e-05)
(0.0116325 0 -6.03596e-05)
(0.0114664 0 -4.84765e-05)
(0.0112308 0 -3.95287e-05)
(0.0109398 0 -3.27602e-05)
(0.0106033 0 -2.75971e-05)
(0.0102274 0 -2.3608e-05)
(0.00981509 0 -2.04711e-05)
(0.00936722 0 -1.79475e-05)
(0.00888247 0 -1.58601e-05)
(0.00835784 0 -1.40777e-05)
(0.00778887 0 -1.25025e-05)
(0.00716977 0 -1.10608e-05)
(0.00649343 0 -9.6956e-06)
(0.00575148 0 -8.36164e-06)
(0.0049342 0 -7.02072e-06)
(0.00403036 0 -5.63855e-06)
(0.00302709 0 -4.18185e-06)
(0.00190961 0 -2.61575e-06)
(0.000660707 0 -9.01032e-07)
(0.00415829 0 -0.00202017)
(0.00518391 0 -0.00182052)
(0.00659052 0 -0.0015298)
(0.00799768 0 -0.00123981)
(0.009218 0 -0.000983904)
(0.0101855 0 -0.000771092)
(0.0108966 0 -0.000600137)
(0.0113761 0 -0.000465859)
(0.011659 0 -0.00036202)
(0.0117812 0 -0.000282599)
(0.0117751 0 -0.000222317)
(0.0116679 0 -0.000176772)
(0.0114816 0 -0.000142421)
(0.0112328 0 -0.000116482)
(0.0109336 0 -9.6805e-05)
(0.0105922 0 -8.17518e-05)
(0.0102137 0 -7.00874e-05)
(0.00980039 0 -6.08872e-05)
(0.00935246 0 -5.34628e-05)
(0.00886826 0 -4.73031e-05)
(0.00834457 0 -4.20281e-05)
(0.00777676 0 -3.73539e-05)
(0.00715892 0 -3.30657e-05)
(0.00648391 0 -2.89976e-05)
(0.00574332 0 -2.50165e-05)
(0.00492741 0 -2.10101e-05)
(0.00402497 0 -1.6877e-05)
(0.00302314 0 -1.25186e-05)
(0.00190717 0 -7.83123e-06)
(0.000659869 0 -2.69778e-06)
(0.00737916 0 -0.00289478)
(0.00804478 0 -0.00263856)
(0.00891734 0 -0.00225007)
(0.00979451 0 -0.00184758)
(0.010557 0 -0.0014826)
(0.0111551 0 -0.00117306)
(0.0115801 0 -0.000920727)
(0.0118445 0 -0.000720268)
(0.0119694 0 -0.000563815)
(0.011978 0 -0.000443219)
(0.0118918 0 -0.000351056)
(0.0117294 0 -0.000280987)
(0.011506 0 -0.000227827)
(0.011233 0 -0.000187453)
(0.0109187 0 -0.000156649)
(0.0105684 0 -0.000132946)
(0.0101853 0 -0.000114468)
(0.00977022 0 -9.98051e-05)
(0.00932236 0 -8.78986e-05)
(0.0088394 0 -7.79597e-05)
(0.00831765 0 -6.93985e-05)
(0.00775218 0 -6.17721e-05)
(0.00713691 0 -5.47434e-05)
(0.00646457 0 -4.80501e-05)
(0.0057267 0 -4.14806e-05)
(0.00491356 0 -3.48547e-05)
(0.00401396 0 -2.80084e-05)
(0.00301506 0 -2.0781e-05)
(0.00190217 0 -1.30023e-05)
(0.000658164 0 -4.47972e-06)
(0.011198 0 -0.00332073)
(0.011469 0 -0.00305313)
(0.0117509 0 -0.00264116)
(0.0120177 0 -0.00220103)
(0.0122343 0 -0.00179092)
(0.01238 0 -0.00143528)
(0.0124478 0 -0.00114006)
(0.0124397 0 -0.000901972)
(0.0123624 0 -0.000713766)
(0.0122245 0 -0.000567062)
(0.0120347 0 -0.000453805)
(0.0118006 0 -0.000366884)
(0.011529 0 -0.00030034)
(0.0112246 0 -0.000249348)
(0.0108909 0 -0.000210095)
(0.0105295 0 -0.000179616)
(0.0101408 0 -0.000155636)
(0.0097239 0 -0.000136425)
(0.00927669 0 -0.000120677)
(0.0087959 0 -0.000107408)
(0.00827723 0 -9.58783e-05)
(0.00771537 0 -8.55257e-05)
(0.00710397 0 -7.59195e-05)
(0.00643565 0 -6.67208e-05)
(0.00570187 0 -5.76532e-05)
(0.00489287 0 -4.84782e-05)
(0.00399749 0 -3.89764e-05)
(0.00300298 0 -2.89296e-05)
(0.00189469 0 -1.81055e-05)
(0.000655607 0 -6.23885e-06)
(0.0150003 0 -0.00333352)
(0.0148894 0 -0.00308733)
(0.0146134 0 -0.00270786)
(0.0142916 0 -0.00229265)
(0.0139676 0 -0.00189583)
(0.0136548 0 -0.00154362)
(0.0133534 0 -0.00124516)
(0.0130595 0 -0.00100007)
(0.0127677 0 -0.000803153)
(0.0124731 0 -0.000647377)
(0.0121717 0 -0.000525453)
(0.0118604 0 -0.000430648)
(0.0115368 0 -0.000357139)
(0.0111989 0 -0.000300098)
(0.0108447 0 -0.000255631)
(0.010472 0 -0.000220658)
(0.0100782 0 -0.000192782)
(0.00966039 0 -0.000170154)
(0.00921492 0 -0.00015136)
(0.00873755 0 -0.000135324)
(0.0082233 0 -0.000121224)
(0.00766641 0 -0.000108431)
(0.00706026 0 -9.64534e-05)
(0.0063973 0 -8.49015e-05)
(0.00566895 0 -7.34507e-05)
(0.00486545 0 -6.18167e-05)
(0.00397567 0 -4.9733e-05)
(0.00298694 0 -3.69308e-05)
(0.00188475 0 -2.31203e-05)
(0.000652206 0 -7.96826e-06)
(0.018281 0 -0.00300389)
(0.0178422 0 -0.00280394)
(0.0171019 0 -0.00249604)
(0.016285 0 -0.00215163)
(0.0154973 0 -0.00181383)
(0.0147831 0 -0.00150625)
(0.0141529 0 -0.00123929)
(0.0136006 0 -0.00101512)
(0.0131126 0 -0.000831237)
(0.0126736 0 -0.000682904)
(0.0122689 0 -0.00056463)
(0.011886 0 -0.000471001)
(0.0115146 0 -0.000397121)
(0.0111463 0 -0.000338789)
(0.0107742 0 -0.00029252)
(0.0103924 0 -0.00025549)
(0.00999547 0 -0.000225452)
(0.00957853 0 -0.000200639)
(0.00913652 0 -0.000179676)
(0.00866419 0 -0.000161496)
(0.00815589 0 -0.000145272)
(0.00760543 0 -0.000130358)
(0.00700593 0 -0.000116243)
(0.00634971 0 -0.000102512)
(0.00562812 0 -8.88097e-05)
(0.00483142 0 -7.48206e-05)
(0.00394858 0 -6.02406e-05)
(0.00296702 0 -4.47576e-05)
(0.00187239 0 -2.80302e-05)
(0.000647971 0 -9.66229e-06)
(0.020662 0 -0.00241657)
(0.0199852 0 -0.0022825)
(0.0189145 0 -0.00207185)
(0.0177416 0 -0.00182818)
(0.0166149 0 -0.00158065)
(0.0156019 0 -0.00134742)
(0.014723 0 -0.00113829)
(0.0139726 0 -0.000957171)
(0.0133324 0 -0.0008042)
(0.0127806 0 -0.000677324)
(0.012295 0 -0.000573439)
(0.0118563 0 -0.000489077)
(0.0114484 0 -0.000420839)
(0.0110578 0 -0.000365641)
(0.0106737 0 -0.0003208)
(0.0102872 0 -0.000284057)
(0.00989059 0 -0.00025355)
(0.0094773 0 -0.000227772)
(0.00904103 0 -0.000205517)
(0.00857571 0 -0.000185825)
(0.00807509 0 -0.000167934)
(0.00753263 0 -0.000151233)
(0.00694123 0 -0.000135226)
(0.0062931 0 -0.000119498)
(0.00557958 0 -0.000103686)
(0.00479098 0 -8.74537e-05)
(0.00391636 0 -7.04708e-05)
(0.00294332 0 -5.23892e-05)
(0.00185766 0 -3.28223e-05)
(0.000642919 0 -1.13164e-05)
(0.0219013 0 -0.00166896)
(0.0210997 0 -0.00161146)
(0.0198542 0 -0.00151054)
(0.0184894 0 -0.00138276)
(0.0171761 0 -0.00124256)
(0.0159953 0 -0.00110117)
(0.0149738 0 -0.000966411)
(0.0141077 0 -0.000843046)
(0.0133777 0 -0.000733438)
(0.0127587 0 -0.0006382)
(0.0122254 0 -0.000556808)
(0.0117547 0 -0.000488025)
(0.011327 0 -0.000430269)
(0.0109261 0 -0.000381867)
(0.0105387 0 -0.000341196)
(0.0101537 0 -0.000306776)
(0.00976208 0 -0.000277304)
(0.00935596 0 -0.000251667)
(0.00892822 0 -0.00022893)
(0.00847215 0 -0.00020832)
(0.00798111 0 -0.000189198)
(0.00744829 0 -0.000171032)
(0.00686644 0 -0.000153374)
(0.00622775 0 -0.000135832)
(0.00552358 0 -0.000118052)
(0.00474433 0 -9.9692e-05)
(0.00387919 0 -8.04035e-05)
(0.00291594 0 -5.98104e-05)
(0.00184063 0 -3.74867e-05)
(0.000637073 0 -1.29273e-05)
(0.0218867 0 -0.000861803)
(0.0210807 0 -0.000880389)
(0.019823 0 -0.000888798)
(0.0184398 0 -0.000878671)
(0.0171044 0 -0.000849908)
(0.0158997 0 -0.000806158)
(0.0148545 0 -0.000752394)
(0.0139668 0 -0.000693517)
(0.0132188 0 -0.000633615)
(0.0125865 0 -0.000575677)
(0.0120447 0 -0.000521631)
(0.0115704 0 -0.000472461)
(0.0111434 0 -0.000428458)
(0.0107467 0 -0.000389451)
(0.0103662 0 -0.000354984)
(0.00999032 0 -0.000324457)
(0.00960915 0 -0.000297218)
(0.00921428 0 -0.000272629)
(0.00879817 0 -0.000250095)
(0.00835379 0 -0.000229081)
(0.00787431 0 -0.000209115)
(0.00735279 0 -0.000189776)
(0.00678196 0 -0.000170689)
(0.00615402 0 -0.000151507)
(0.00546043 0 -0.000131897)
(0.00469172 0 -0.000111522)
(0.00383726 0 -9.00257e-05)
(0.00288504 0 -6.70102e-05)
(0.00182139 0 -4.2016e-05)
(0.00063046 0 -1.44921e-05)
(0.0206193 0 -8.71057e-05)
(0.0199245 0 -0.000172037)
(0.0188136 0 -0.000278816)
(0.0175844 0 -0.000376931)
(0.0163909 0 -0.000452484)
(0.0153062 0 -0.000501584)
(0.0143566 0 -0.000526122)
(0.013542 0 -0.000530728)
(0.0128489 0 -0.000520752)
(0.0122581 0 -0.000501115)
(0.0117484 0 -0.000475829)
(0.0113 0 -0.000447831)
(0.0108951 0 -0.000419103)
(0.010518 0 -0.000390876)
(0.0101557 0 -0.000363813)
(0.00979686 0 -0.000338182)
(0.00943194 0 -0.000313995)
(0.00905261 0 -0.000291109)
(0.00865136 0 -0.000269295)
(0.00822117 0 -0.000248282)
(0.00775523 0 -0.000227787)
(0.00724665 0 -0.000207522)
(0.00668825 0 -0.0001872)
(0.00607232 0 -0.000166533)
(0.00539049 0 -0.00014522)
(0.00463344 0 -0.000122939)
(0.00379079 0 -9.93302e-05)
(0.00285077 0 -7.39816e-05)
(0.00180004 0 -4.64053e-05)
(0.000623116 0 -1.60091e-05)
(0.0181988 0 0.000577857)
(0.0177184 0 0.000442252)
(0.0169053 0 0.000255379)
(0.0159932 0 6.71272e-05)
(0.015094 0 -9.61542e-05)
(0.0142604 0 -0.00022403)
(0.0135132 0 -0.000315828)
(0.0128562 0 -0.000375894)
(0.0122834 0 -0.000410447)
(0.0117834 0 -0.000425782)
(0.0113429 0 -0.000427422)
(0.0109478 0 -0.000419769)
(0.010585 0 -0.000406119)
(0.0102422 0 -0.000388833)
(0.00990866 0 -0.000369514)
(0.00957463 0 -0.000349186)
(0.00923162 0 -0.000328459)
(0.00887201 0 -0.00030765)
(0.00848874 0 -0.000286883)
(0.00807514 0 -0.000266148)
(0.00762464 0 -0.000245354)
(0.00713056 0 -0.000224353)
(0.0065859 0 -0.000202954)
(0.00598317 0 -0.000180934)
(0.00531417 0 -0.000158031)
(0.00456985 0 -0.000133943)
(0.00374005 0 -0.000108314)
(0.00281334 0 -8.07202e-05)
(0.00177669 0 -5.06507e-05)
(0.000615082 0 -1.74767e-05)
(0.0148154 0 0.00107293)
(0.0146421 0 0.000904258)
(0.0142681 0 0.000659525)
(0.0138176 0 0.000405964)
(0.0133392 0 0.000179734)
(0.0128597 0 -4.72855e-06)
(0.0123968 0 -0.000145607)
(0.0119612 0 -0.00024724)
(0.011558 0 -0.000316283)
(0.011187 0 -0.00035967)
(0.0108447 0 -0.000383679)
(0.0105249 0 -0.000393504)
(0.0102208 0 -0.000393227)
(0.00992464 0 -0.000385945)
(0.00962894 0 -0.000373916)
(0.00932647 0 -0.000358731)
(0.00901038 0 -0.00034147)
(0.00867421 0 -0.000322833)
(0.00831174 0 -0.000303244)
(0.0079169 0 -0.00028293)
(0.00748354 0 -0.000261978)
(0.00700535 0 -0.000240369)
(0.00647562 0 -0.00021801)
(0.00588713 0 -0.000194742)
(0.00523196 0 -0.000170345)
(0.00450131 0 -0.000144539)
(0.00368535 0 -0.000116976)
(0.00277295 0 -8.72233e-05)
(0.00175149 0 -5.47496e-05)
(0.000606404 0 -1.8894e-05)
(0.0107576 0 0.00135464)
(0.0109854 0 0.00116779)
(0.0111787 0 0.000888925)
(0.0112968 0 0.000601422)
(0.0113171 0 0.000344997)
(0.011248 0 0.000133184)
(0.0111116 0 -3.30668e-05)
(0.0109308 0 -0.000158174)
(0.0107243 0 -0.000248462)
(0.0105045 0 -0.000310511)
(0.0102782 0 -0.000350412)
(0.0100482 0 -0.000373362)
(0.00981402 0 -0.000383609)
(0.00957331 0 -0.000384521)
(0.00932231 0 -0.000378677)
(0.00905659 0 -0.000367992)
(0.00877135 0 -0.000353851)
(0.00846162 0 -0.000337224)
(0.00812224 0 -0.000318764)
(0.00774793 0 -0.000298887)
(0.00733314 0 -0.000277825)
(0.00687202 0 -0.000255676)
(0.00635823 0 -0.000232432)
(0.0057849 0 -0.000207993)
(0.00514441 0 -0.00018218)
(0.00442828 0 -0.000154736)
(0.00362701 0 -0.000125318)
(0.00272985 0 -9.34891e-05)
(0.00172458 0 -5.87e-05)
(0.000597134 0 -2.026e-05)
(0.0064594 0 0.00139856)
(0.0072067 0 0.00119348)
(0.00804932 0 0.000906832)
(0.00875846 0 0.000627462)
(0.00927113 0 0.000382521)
(0.00960016 0 0.000177954)
(0.00978127 0 1.29871e-05)
(0.00985171 0 -0.000115748)
(0.00984273 0 -0.000212789)
(0.00977775 0 -0.000283074)
(0.00967271 0 -0.000331484)
(0.00953788 0 -0.000362407)
(0.00937901 0 -0.000379646)
(0.0091984 0 -0.000386376)
(0.00899601 0 -0.000385151)
(0.00877024 0 -0.000377961)
(0.00851844 0 -0.000366316)
(0.00823718 0 -0.00035133)
(0.00792252 0 -0.000333796)
(0.00757003 0 -0.000314256)
(0.00717487 0 -0.000293054)
(0.00673171 0 -0.000270376)
(0.00623466 0 -0.000246282)
(0.00567721 0 -0.000220723)
(0.00505211 0 -0.000193554)
(0.00435124 0 -0.000164538)
(0.00356542 0 -0.00013334)
(0.0026843 0 -9.95156e-05)
(0.00169612 0 -6.24997e-05)
(0.000587328 0 -2.15738e-05)
(0.00272059 0 0.00116133)
(0.00406535 0 0.000920349)
(0.00544077 0 0.000683706)
(0.00658505 0 0.000478491)
(0.00745949 0 0.000295126)
(0.00809249 0 0.000133051)
(0.00852813 0 -5.59157e-06)
(0.00880964 0 -0.000119775)
(0.00897389 0 -0.000210199)
(0.00904987 0 -0.000278869)
(0.00905872 0 -0.000328592)
(0.00901585 0 -0.000362276)
(0.0089313 0 -0.000382783)
(0.00881106 0 -0.000392717)
(0.00865815 0 -0.000394306)
(0.0084734 0 -0.000389389)
(0.00825608 0 -0.000379431)
(0.00800425 0 -0.000365564)
(0.00771514 0 -0.000348633)
(0.00738521 0 -0.000329243)
(0.00701032 0 -0.000307803)
(0.00658569 0 -0.000284557)
(0.00610592 0 -0.000259613)
(0.0055649 0 -0.000232961)
(0.00495574 0 -0.000204482)
(0.00427069 0 -0.000173953)
(0.00350095 0 -0.000141042)
(0.00263659 0 -0.0001053)
(0.00166629 0 -6.61462e-05)
(0.000577046 0 -2.28344e-05)
(0.000506973 0 -9.48329e-05)
(0.00146286 0 -0.000275007)
(0.00231185 0 -0.000438994)
(0.00306519 0 -0.000590691)
(0.00373323 0 -0.000733119)
(0.00432486 0 -0.000868747)
(0.00484786 0 -0.000999575)
(0.00530906 0 -0.00112724)
(0.00571443 0 -0.00125312)
(0.00606919 0 -0.00137836)
(0.00637786 0 -0.00150398)
(0.00664434 0 -0.0016309)
(0.00687184 0 -0.00175999)
(0.00706285 0 -0.00189214)
(0.00721905 0 -0.00202827)
(0.00734107 0 -0.0021694)
(0.00742826 0 -0.00231663)
(0.00747829 0 -0.00247117)
(0.00748668 0 -0.00263428)
(0.00744619 0 -0.0028072)
(0.00734628 0 -0.00299095)
(0.0071724 0 -0.0031861)
(0.00690596 0 -0.00339224)
(0.00652425 0 -0.00360727)
(0.00600241 0 -0.00382657)
(0.00531554 0 -0.00404108)
(0.00444358 0 -0.00423242)
(0.00338706 0 -0.00436503)
(0.00217455 0 -0.00436227)
(0.000935161 0 -0.0040811)
(0.000496939 0 -9.85848e-05)
(0.0014338 0 -0.000285876)
(0.00226571 0 -0.000456243)
(0.00300334 0 -0.000613689)
(0.0036561 0 -0.000761422)
(0.00423284 0 -0.0009019)
(0.00474098 0 -0.00103718)
(0.00518702 0 -0.00116894)
(0.00557657 0 -0.00129858)
(0.00591447 0 -0.00142727)
(0.00620486 0 -0.00155601)
(0.00645117 0 -0.00168572)
(0.0066561 0 -0.00181722)
(0.00682151 0 -0.00195132)
(0.00694835 0 -0.00208882)
(0.00703646 0 -0.00223051)
(0.00708429 0 -0.00237717)
(0.00708865 0 -0.00252953)
(0.00704434 0 -0.00268818)
(0.00694378 0 -0.00285339)
(0.00677682 0 -0.00302489)
(0.00653063 0 -0.00320148)
(0.00619039 0 -0.00338048)
(0.0057392 0 -0.00355658)
(0.00516382 0 -0.00372089)
(0.00445378 0 -0.00385936)
(0.00361547 0 -0.00394816)
(0.00268366 0 -0.00395005)
(0.00172645 0 -0.00381163)
(0.000828022 0 -0.00344565)
(0.000486349 0 -0.000101968)
(0.00140319 0 -0.000295678)
(0.00221696 0 -0.000471836)
(0.0029381 0 -0.000634448)
(0.00357542 0 -0.000786804)
(0.00413678 0 -0.000931534)
(0.00462972 0 -0.00107063)
(0.0050604 0 -0.0012058)
(0.00543405 0 -0.00133844)
(0.00575516 0 -0.00146973)
(0.00602751 0 -0.00160063)
(0.00625416 0 -0.00173201)
(0.00643737 0 -0.0018646)
(0.00657855 0 -0.00199909)
(0.00667819 0 -0.00213608)
(0.00673563 0 -0.00227609)
(0.00674898 0 -0.00241952)
(0.00671485 0 -0.00256657)
(0.00662825 0 -0.00271711)
(0.00648243 0 -0.00287052)
(0.00626904 0 -0.00302533)
(0.00597849 0 -0.00317883)
(0.00560048 0 -0.00332689)
(0.00512747 0 -0.00346241)
(0.00455739 0 -0.00357463)
(0.0038959 0 -0.00364872)
(0.00316667 0 -0.00366458)
(0.00241029 0 -0.00359426)
(0.00168585 0 -0.00340022)
(0.00106529 0 -0.00301937)
(0.000475233 0 -0.000104951)
(0.0013711 0 -0.000304325)
(0.002166 0 -0.00048558)
(0.00286973 0 -0.000652774)
(0.00349105 0 -0.000809142)
(0.00403716 0 -0.000957375)
(0.00451462 0 -0.00109962)
(0.00492989 0 -0.00123748)
(0.00528779 0 -0.00137237)
(0.00559241 0 -0.0015054)
(0.00584728 0 -0.0016375)
(0.00605516 0 -0.00176943)
(0.00621801 0 -0.00190185)
(0.00633697 0 -0.00203526)
(0.00641226 0 -0.00217004)
(0.00644313 0 -0.00230642)
(0.00642774 0 -0.0024444)
(0.00636309 0 -0.00258366)
(0.00624507 0 -0.00272347)
(0.0060685 0 -0.00286245)
(0.00582748 0 -0.00299828)
(0.00551593 0 -0.00312736)
(0.00513028 0 -0.00324451)
(0.00467136 0 -0.00334238)
(0.00414422 0 -0.00341095)
(0.00356298 0 -0.00343742)
(0.00295384 0 -0.00340588)
(0.00235454 0 -0.00329666)
(0.00181391 0 -0.00308522)
(0.00139429 0 -0.00274051)
(0.000463629 0 -0.000107503)
(0.00133765 0 -0.000311731)
(0.00211297 0 -0.00049735)
(0.00279882 0 -0.000668429)
(0.00340338 0 -0.00082822)
(0.00393392 0 -0.000979308)
(0.0043963 0 -0.00112388)
(0.00479625 0 -0.00126372)
(0.00513876 0 -0.00140008)
(0.00542743 0 -0.00153401)
(0.00566567 0 -0.00166636)
(0.00585604 0 -0.0017978)
(0.00600031 0 -0.00192886)
(0.00609951 0 -0.00205988)
(0.00615385 0 -0.00219099)
(0.00616274 0 -0.00232214)
(0.00612473 0 -0.00245295)
(0.00603762 0 -0.0025827)
(0.00589857 0 -0.00271014)
(0.00570438 0 -0.00283337)
(0.00545188 0 -0.00294968)
(0.00513978 0 -0.00305499)
(0.00476917 0 -0.00314402)
(0.00434444 0 -0.00321006)
(0.00387557 0 -0.00324459)
(0.00337945 0 -0.00323751)
(0.00288074 0 -0.00317733)
(0.00241144 0 -0.00305137)
(0.00201036 0 -0.00284662)
(0.00172345 0 -0.00255365)
(0.000451585 0 -0.000109597)
(0.00130297 0 -0.000317816)
(0.00205812 0 -0.000507022)
(0.00272564 0 -0.000681262)
(0.00331322 0 -0.000843771)
(0.00382761 0 -0.000997124)
(0.00427475 0 -0.00114332)
(0.00465988 0 -0.00128432)
(0.00498754 0 -0.0014214)
(0.00526092 0 -0.00155543)
(0.0054836 0 -0.00168714)
(0.005658 0 -0.00181712)
(0.00578579 0 -0.00194577)
(0.00586806 0 -0.00207324)
(0.00590521 0 -0.00219949)
(0.005897 0 -0.00232417)
(0.00584266 0 -0.00244665)
(0.00574097 0 -0.00256585)
(0.00559057 0 -0.00268022)
(0.00539034 0 -0.00278756)
(0.00514004 0 -0.00288494)
(0.00484133 0 -0.0029686)
(0.00449774 0 -0.00303355)
(0.00411672 0 -0.00307404)
(0.00370991 0 -0.00308338)