/*--------------------------------*- C++ -*----------------------------------*\
| =========                 |                                                 |
| \\      /  F ield         | OpenFOAM: The Open Source CFD Toolbox           |
|  \\    /   O peration     | Version:  dev                                   |
|   \\  /    A nd           | Web:      www.OpenFOAM.org                      |
|    \\/     M anipulation  |                                                 |
\*---------------------------------------------------------------------------*/
FoamFile
{
    version     2.0;
    format      ascii;
    class       volVectorField;
    location    "3";
    object      cellDisplacement;
}
// * * * * * * * * * * * * * * * * * * * * * * * * * * * * * * * * * * * * * //

dimensions      [0 1 0 0 0 0 0];

internalField   nonuniform List<vector> 
465
(
(0.176108 0 -0.0136151)
(0.178298 0 -0.0143001)
(0.184023 0 -0.0152327)
(0.189595 0 -0.016222)
(0.179777 0 -0.0148666)
(0.185075 0 -0.0157805)
(0.190138 0 -0.0167338)
(0.194871 0 -0.0177216)
(0.199169 0 -0.018736)
(0.180655 0 -0.015321)
(0.18553 0 -0.0162036)
(0.190122 0 -0.0171116)
(0.194356 0 -0.0180393)
(0.198156 0 -0.0189792)
(0.201452 0 -0.0199235)
(0.204189 0 -0.0208629)
(0.181017 0 -0.0156669)
(0.185495 0 -0.0165117)
(0.189665 0 -0.0173704)
(0.193468 0 -0.0182372)
(0.19685 0 -0.0191049)
(0.199764 0 -0.0199656)
(0.202175 0 -0.0208104)
(0.204065 0 -0.0216288)
(0.205429 0 -0.0224077)
(0.18094 0 -0.0159115)
(0.185057 0 -0.0167148)
(0.188853 0 -0.017523)
(0.192285 0 -0.01833)
(0.195315 0 -0.0191291)
(0.197913 0 -0.019913)
(0.200058 0 -0.0206735)
(0.201743 0 -0.0214017)
(0.202971 0 -0.0220871)
(0.180491 0 -0.0160609)
(0.184284 0 -0.0168212)
(0.187752 0 -0.0175791)
(0.190865 0 -0.0183287)
(0.193598 0 -0.0190639)
(0.195932 0 -0.0197779)
(0.197856 0 -0.0204638)
(0.199371 0 -0.0211143)
(0.200482 0 -0.0217212)
(0.179723 0 -0.0161199)
(0.183228 0 -0.0168374)
(0.186411 0 -0.0175465)
(0.18925 0 -0.0182418)
(0.19173 0 -0.0189177)
(0.193841 0 -0.0195686)
(0.19558 0 -0.0201886)
(0.19695 0 -0.0207719)
(0.197961 0 -0.0213123)
(0.178679 0 -0.0160919)
(0.181934 0 -0.0167681)
(0.184869 0 -0.0174306)
(0.187471 0 -0.018075)
(0.189735 0 -0.0186966)
(0.191656 0 -0.0192906)
(0.193237 0 -0.0198523)
(0.194483 0 -0.0203771)
(0.195405 0 -0.0208604)
(0.177409 0 -0.0159819)
(0.18044 0 -0.0166174)
(0.183157 0 -0.0172355)
(0.185555 0 -0.0178325)
(0.187632 0 -0.0184043)
(0.18939 0 -0.018947)
(0.190834 0 -0.0194569)
(0.191972 0 -0.0199305)
(0.192816 0 -0.0203643)
(0.175945 0 -0.0157915)
(0.178777 0 -0.0163876)
(0.181303 0 -0.0169637)
(0.183523 0 -0.0175164)
(0.185438 0 -0.0180426)
(0.187055 0 -0.018539)
(0.18838 0 -0.0190026)
(0.189423 0 -0.019431)
(0.190195 0 -0.0198215)
(0.171357 0 -0.0149441)
(0.174316 0 -0.0155214)
(0.176972 0 -0.0160796)
(0.17933 0 -0.0166159)
(0.181394 0 -0.0171275)
(0.183168 0 -0.0176117)
(0.184661 0 -0.018066)
(0.185882 0 -0.0184882)
(0.18684 0 -0.0188764)
(0.187547 0 -0.0192287)
(0.169751 0 -0.014629)
(0.172549 0 -0.0151715)
(0.17505 0 -0.0156933)
(0.17726 0 -0.0161919)
(0.179186 0 -0.016665)
(0.180837 0 -0.0171105)
(0.182222 0 -0.0175265)
(0.183349 0 -0.0179112)
(0.184231 0 -0.0182633)
(0.184879 0 -0.0185814)
(0.168017 0 -0.014232)
(0.170672 0 -0.0147405)
(0.173034 0 -0.0152271)
(0.175114 0 -0.0156898)
(0.176919 0 -0.0161269)
(0.178461 0 -0.0165365)
(0.179749 0 -0.0169173)
(0.180794 0 -0.0172678)
(0.181608 0 -0.0175872)
(0.182201 0 -0.0178747)
(0.166183 0 -0.0137508)
(0.168709 0 -0.0142258)
(0.170949 0 -0.0146784)
(0.172913 0 -0.0151069)
(0.174612 0 -0.0155099)
(0.176057 0 -0.015886)
(0.17726 0 -0.0162341)
(0.178231 0 -0.0165532)
(0.178982 0 -0.0168429)
(0.179525 0 -0.0171025)
(0.164276 0 -0.0131821)
(0.166689 0 -0.013624)
(0.16882 0 -0.0140434)
(0.170681 0 -0.014439)
(0.172286 0 -0.0148096)
(0.173645 0 -0.015154)
(0.174771 0 -0.0154715)
(0.175676 0 -0.0157615)
(0.176371 0 -0.0160237)
(0.176867 0 -0.0162577)
(0.162327 0 -0.0125213)
(0.164638 0 -0.0129303)
(0.166673 0 -0.0133172)
(0.168444 0 -0.0136808)
(0.169964 0 -0.0140201)
(0.171248 0 -0.0143343)
(0.172306 0 -0.0146229)
(0.17315 0 -0.0148855)
(0.173794 0 -0.0151219)
(0.174246 0 -0.0153319)
(0.160366 0 -0.011763)
(0.162588 0 -0.012139)
(0.164537 0 -0.0124934)
(0.166228 0 -0.0128255)
(0.167674 0 -0.0131344)
(0.16889 0 -0.0134195)
(0.169887 0 -0.0136804)
(0.170678 0 -0.0139169)
(0.171275 0 -0.0141289)
(0.171687 0 -0.0143165)
(0.158427 0 -0.0109003)
(0.16057 0 -0.0112426)
(0.162444 0 -0.0115644)
(0.164065 0 -0.011865)
(0.165446 0 -0.0121438)
(0.166602 0 -0.0124004)
(0.167545 0 -0.0126344)
(0.168289 0 -0.0128459)
(0.168843 0 -0.0130347)
(0.16922 0 -0.0132011)
(0.156548 0 -0.00992506)
(0.158622 0 -0.0102326)
(0.16043 0 -0.010521)
(0.161989 0 -0.0107897)
(0.163314 0 -0.0110383)
(0.164418 0 -0.0112665)
(0.165314 0 -0.011474)
(0.166015 0 -0.0116608)
(0.166532 0 -0.0118271)
(0.166877 0 -0.0119731)
(0.154769 0 -0.00882739)
(0.156784 0 -0.00909842)
(0.158536 0 -0.00935212)
(0.160042 0 -0.00958799)
(0.161317 0 -0.00980569)
(0.162375 0 -0.010005)
(0.16323 0 -0.0101858)
(0.163894 0 -0.0103481)
(0.164379 0 -0.0104921)
(0.164695 0 -0.010618)
(0.153136 0 -0.00759575)
(0.1551 0 -0.0078279)
(0.156805 0 -0.00804484)
(0.158266 0 -0.00824618)
(0.1595 0 -0.00843165)
(0.16052 0 -0.00860106)
(0.16134 0 -0.00875439)
(0.161972 0 -0.00889169)
(0.162429 0 -0.00901314)
(0.16272 0 -0.00911893)
(0.1517 0 -0.00621653)
(0.153624 0 -0.00640652)
(0.155289 0 -0.00658384)
(0.156714 0 -0.00674817)
(0.157913 0 -0.0068993)
(0.158901 0 -0.00703709)
(0.159693 0 -0.00716154)
(0.160299 0 -0.00727272)
(0.160732 0 -0.00737078)
(0.161003 0 -0.0074559)
(0.150518 0 -0.00467376)
(0.15241 0 -0.00481725)
(0.154045 0 -0.00495105)
(0.155442 0 -0.00507492)
(0.156614 0 -0.00518869)
(0.157578 0 -0.00529227)
(0.158347 0 -0.00538564)
(0.158933 0 -0.00546888)
(0.159348 0 -0.00554211)
(0.159602 0 -0.00560546)
(0.149655 0 -0.00294871)
(0.151525 0 -0.00304004)
(0.153139 0 -0.00312516)
(0.154516 0 -0.0032039)
(0.15567 0 -0.00327616)
(0.156617 0 -0.00334187)
(0.157369 0 -0.00340102)
(0.157941 0 -0.00345365)
(0.158343 0 -0.00349984)
(0.158585 0 -0.00353967)
(0.149182 0 -0.00101984)
(0.15104 0 -0.00105171)
(0.152644 0 -0.0010814)
(0.15401 0 -0.00110886)
(0.155154 0 -0.00113404)
(0.156092 0 -0.00115693)
(0.156836 0 -0.00117751)
(0.1574 0 -0.0011958)
(0.157795 0 -0.00121183)
(0.158031 0 -0.00122562)
(0.20608 0 -0.0229555)
(0.203569 0 -0.0225647)
(0.203865 0 -0.0228675)
(0.204061 0 -0.023157)
(0.201034 0 -0.0221413)
(0.20131 0 -0.0224069)
(0.201499 0 -0.0226604)
(0.198468 0 -0.0216842)
(0.198725 0 -0.0219188)
(0.198903 0 -0.0221423)
(0.195871 0 -0.0211913)
(0.196108 0 -0.0213997)
(0.196275 0 -0.0215979)
(0.193243 0 -0.02066)
(0.19346 0 -0.0208458)
(0.193613 0 -0.0210222)
(0.190585 0 -0.0200866)
(0.190784 0 -0.0202529)
(0.190923 0 -0.0204102)
(0.187903 0 -0.0194669)
(0.188083 0 -0.019616)
(0.188207 0 -0.0197569)
(0.185202 0 -0.0187957)
(0.185364 0 -0.0189294)
(0.185473 0 -0.0190553)
(0.182492 0 -0.0180675)
(0.182636 0 -0.0181876)
(0.18273 0 -0.0183003)
(0.179787 0 -0.0172759)
(0.179913 0 -0.0173836)
(0.179992 0 -0.0174844)
(0.177101 0 -0.0164134)
(0.177211 0 -0.0165098)
(0.177274 0 -0.0165998)
(0.174453 0 -0.0154708)
(0.174547 0 -0.0155569)
(0.174595 0 -0.0156372)
(0.171869 0 -0.0144399)
(0.171947 0 -0.014516)
(0.171981 0 -0.0145869)
(0.169378 0 -0.01331)
(0.169442 0 -0.013377)
(0.169464 0 -0.0134392)
(0.167014 0 -0.0120683)
(0.167066 0 -0.0121266)
(0.167076 0 -0.0121805)
(0.164815 0 -0.0106998)
(0.164855 0 -0.0107497)
(0.164854 0 -0.0107957)
(0.162824 0 -0.00918734)
(0.162853 0 -0.00922898)
(0.162843 0 -0.0092671)
(0.161093 0 -0.00751071)
(0.161114 0 -0.00754397)
(0.161095 0 -0.00757428)
(0.159681 0 -0.00564608)
(0.159695 0 -0.00567065)
(0.159669 0 -0.00569296)
(0.158656 0 -0.0035651)
(0.158666 0 -0.00358044)
(0.158635 0 -0.00359431)
(0.158098 0 -0.00123439)
(0.158105 0 -0.00123967)
(0.158072 0 -0.00124443)
(0.204211 0 -0.0235744)
(0.201654 0 -0.0230256)
(0.201511 0 -0.0234644)
(0.201013 0 -0.0238421)
(0.20016 0 -0.0241408)
(0.199057 0 -0.0224639)
(0.198947 0 -0.0228504)
(0.198515 0 -0.0231847)
(0.197755 0 -0.0234518)
(0.196664 0 -0.0236438)
(0.195241 0 -0.0237545)
(0.19642 0 -0.0218825)
(0.19633 0 -0.022224)
(0.195944 0 -0.0225201)
(0.195254 0 -0.022758)
(0.194254 0 -0.0229305)
(0.192935 0 -0.0230317)
(0.191295 0 -0.0230572)
(0.189327 0 -0.0230035)
(0.193748 0 -0.0212749)
(0.193665 0 -0.0215775)
(0.193311 0 -0.0218397)
(0.192673 0 -0.0220508)
(0.191742 0 -0.0222042)
(0.190508 0 -0.0222946)
(0.188963 0 -0.0223172)
(0.187097 0 -0.0222683)
(0.184903 0 -0.0221454)
(0.191043 0 -0.0206353)
(0.19096 0 -0.0209038)
(0.190625 0 -0.0211358)
(0.190024 0 -0.0213222)
(0.189146 0 -0.0214574)
(0.187978 0 -0.0215363)
(0.186511 0 -0.0215542)
(0.184732 0 -0.0215074)
(0.182629 0 -0.0213928)
(0.188312 0 -0.019958)
(0.188222 0 -0.0201959)
(0.187896 0 -0.0204008)
(0.18732 0 -0.0205647)
(0.186481 0 -0.0206827)
(0.185366 0 -0.0207499)
(0.18396 0 -0.020762)
(0.182252 0 -0.0207153)
(0.180227 0 -0.0206065)
(0.185559 0 -0.0192351)
(0.185458 0 -0.0194466)
(0.185135 0 -0.0196271)
(0.184575 0 -0.0197706)
(0.183764 0 -0.0198724)
(0.182688 0 -0.0199282)
(0.181333 0 -0.019934)
(0.179683 0 -0.0198862)
(0.177722 0 -0.0197814)
(0.182797 0 -0.0184606)
(0.182682 0 -0.0186482)
(0.182356 0 -0.018807)
(0.181805 0 -0.0189318)
(0.181013 0 -0.0190187)
(0.179967 0 -0.0190638)
(0.17865 0 -0.0190632)
(0.177046 0 -0.0190135)
(0.175139 0 -0.0189115)
(0.180038 0 -0.0176271)
(0.179907 0 -0.0177933)
(0.179574 0 -0.0179323)
(0.179026 0 -0.0180403)
(0.178247 0 -0.0181136)
(0.177221 0 -0.0181486)
(0.175934 0 -0.0181418)
(0.174367 0 -0.01809)
(0.172504 0 -0.0179901)
(0.177299 0 -0.0167264)
(0.17715 0 -0.016873)
(0.176808 0 -0.0169944)
(0.176259 0 -0.0170872)
(0.175486 0 -0.0171481)
(0.174475 0 -0.0171739)
(0.173209 0 -0.0171615)
(0.171672 0 -0.0171078)
(0.169844 0 -0.0170098)
(0.174601 0 -0.0157497)
(0.174434 0 -0.0158784)
(0.174081 0 -0.0159838)
(0.173526 0 -0.0160628)
(0.172756 0 -0.0161127)
(0.171754 0 -0.0161303)
(0.170504 0 -0.0161129)
(0.168989 0 -0.0160577)
(0.167189 0 -0.0159619)
(0.17197 0 -0.0146864)
(0.171784 0 -0.0147989)
(0.171418 0 -0.0148899)
(0.170856 0 -0.0149567)
(0.170084 0 -0.0149967)
(0.169087 0 -0.0150072)
(0.167847 0 -0.0149857)
(0.166349 0 -0.0149297)
(0.164572 0 -0.0148366)
(0.169435 0 -0.013526)
(0.16923 0 -0.0136235)
(0.16885 0 -0.0137012)
(0.168278 0 -0.0137569)
(0.167502 0 -0.0137881)
(0.166506 0 -0.0137926)
(0.165273 0 -0.0137681)
(0.163787 0 -0.0137122)
(0.162027 0 -0.0136228)
(0.167029 0 -0.0122554)
(0.166806 0 -0.0123387)
(0.166411 0 -0.0124042)
(0.165829 0 -0.0124498)
(0.165047 0 -0.0124734)
(0.16405 0 -0.0124731)
(0.16282 0 -0.0124466)
(0.161342 0 -0.0123921)
(0.159595 0 -0.0123074)
(0.164791 0 -0.0108591)
(0.164551 0 -0.0109291)
(0.164141 0 -0.0109833)
(0.163549 0 -0.0110199)
(0.16276 0 -0.011037)
(0.161759 0 -0.0110329)
(0.160531 0 -0.0110059)
(0.159057 0 -0.010954)
(0.15732 0 -0.0108757)
(0.162767 0 -0.00931953)
(0.16251 0 -0.00937679)
(0.162087 0 -0.00942041)
(0.161484 0 -0.00944882)
(0.160688 0 -0.00946053)
(0.159683 0 -0.00945402)
(0.158453 0 -0.00942778)
(0.156983 0 -0.0093803)
(0.155252 0 -0.00931012)
(0.161007 0 -0.00761578)
(0.160736 0 -0.00766066)
(0.160301 0 -0.0076943)
(0.159689 0 -0.00771541)
(0.158885 0 -0.00772277)
(0.157875 0 -0.00771515)
(0.156644 0 -0.00769132)
(0.155175 0 -0.00765008)
(0.153448 0 -0.00759023)
(0.159572 0 -0.00572337)
(0.15929 0 -0.00575597)
(0.158845 0 -0.00578001)
(0.158224 0 -0.00579451)
(0.157414 0 -0.00579856)
(0.1564 0 -0.00579123)
(0.155167 0 -0.0057716)
(0.153697 0 -0.00573878)
(0.151973 0 -0.00569189)
(0.158531 0 -0.00361317)
(0.15824 0 -0.00363322)
(0.157788 0 -0.00364779)
(0.157161 0 -0.00365624)
(0.156346 0 -0.00365799)
(0.155328 0 -0.00365245)
(0.154093 0 -0.00363904)
(0.152623 0 -0.0036172)
(0.1509 0 -0.00358638)
(0.157963 0 -0.00125089)
(0.157669 0 -0.00125773)
(0.157212 0 -0.00126265)
(0.156582 0 -0.00126542)
(0.155764 0 -0.00126584)
(0.154744 0 -0.0012637)
(0.153507 0 -0.0012588)
(0.152037 0 -0.00125095)
(0.150314 0 -0.00123995)
)
;

boundaryField
{
    inlet
    {
        type            cellMotion;
        value           nonuniform 0();
    }
    outlet
    {
        type            cellMotion;
        value           nonuniform 0();
    }
    flap
    {
        type            cellMotion;
        value           nonuniform 0();
    }
    upperWall
    {
        type            slip;
    }
    lowerWall
    {
        type            slip;
    }
    frontAndBack
    {
        type            empty;
    }
    procBoundary1to0
    {
        type            processor;
        value           nonuniform List<vector> 
18
(
(0.174068 0 -0.0153325)
(0.172806 0 -0.0151786)
(0.172806 0 -0.0151786)
(0.16809 0 -0.01435)
(0.166647 0 -0.0140678)
(0.165059 0 -0.0137035)
(0.163355 0 -0.0132548)
(0.161565 0 -0.0127187)
(0.15972 0 -0.0120908)
(0.157851 0 -0.0113661)
(0.155994 0 -0.0105379)
(0.154186 0 -0.00959868)
(0.152469 0 -0.00853913)
(0.150889 0 -0.00734844)
(0.149495 0 -0.00601388)
(0.148347 0 -0.00452057)
(0.147506 0 -0.00285116)
(0.147045 0 -0.000985797)
)
;
    }
    procBoundary1to2
    {
        type            processor;
        value           nonuniform List<vector> 
17
(
(0.182364 0 -0.0219455)
(0.180185 0 -0.0212074)
(0.177865 0 -0.0204323)
(0.17543 0 -0.019616)
(0.172906 0 -0.0187534)
(0.17032 0 -0.0178383)
(0.167702 0 -0.0168639)
(0.165081 0 -0.0158219)
(0.162491 0 -0.0147031)
(0.159969 0 -0.0134965)
(0.157554 0 -0.0121897)
(0.155293 0 -0.0107682)
(0.153235 0 -0.00921493)
(0.151438 0 -0.0075099)
(0.149968 0 -0.00562951)
(0.148898 0 -0.0035457)
(0.148313 0 -0.00122553)
)
;
    }
    procBoundary1to3
    {
        type            processor;
        value           nonuniform List<vector> 9((0.170003 0 -0.0127476) (0.172519 0 -0.0134262) (0.174344 0 -0.0139984) (0.175576 0 -0.0144693) (0.176285 0 -0.0148408) (0.176537 0 -0.0151166) (0.176391 0 -0.0153006) (0.175901 0 -0.0153962) (0.175111 0 -0.0154057));
    }
    procBoundary1to4
    {
        type            processor;
        value           nonuniform List<vector> 
30
(
(0.173081 0 -0.0128044)
(0.182263 0 -0.0145537)
(0.182263 0 -0.0145537)
(0.188364 0 -0.015564)
(0.1949 0 -0.0172656)
(0.1949 0 -0.0172656)
(0.19979 0 -0.0183539)
(0.20293 0 -0.0197695)
(0.20293 0 -0.0197695)
(0.206072 0 -0.0208137)
(0.20633 0 -0.0217862)
(0.20633 0 -0.0217862)
(0.20786 0 -0.022678)
(0.208567 0 -0.0233125)
(0.206393 0 -0.0233036)
(0.206393 0 -0.0233036)
(0.206593 0 -0.023637)
(0.206725 0 -0.0241184)
(0.204016 0 -0.0240752)
(0.204016 0 -0.0240752)
(0.203427 0 -0.024502)
(0.202451 0 -0.024834)
(0.198954 0 -0.0243516)
(0.198954 0 -0.0243516)
(0.197398 0 -0.0244686)
(0.193482 0 -0.0237794)
(0.193482 0 -0.0237794)
(0.191389 0 -0.0237162)
(0.187024 0 -0.0228683)
(0.187024 0 -0.0228683)
)
;
    }
}


// ************************************************************************* //
