/*--------------------------------*- C++ -*----------------------------------*\
| =========                 |                                                 |
| \\      /  F ield         | OpenFOAM: The Open Source CFD Toolbox           |
|  \\    /   O peration     | Version:  dev                                   |
|   \\  /    A nd           | Web:      www.OpenFOAM.org                      |
|    \\/     M anipulation  |                                                 |
\*---------------------------------------------------------------------------*/
FoamFile
{
    version     2.0;
    format      ascii;
    class       surfaceScalarField;
    location    "3";
    object      meshPhi;
}
// * * * * * * * * * * * * * * * * * * * * * * * * * * * * * * * * * * * * * //

dimensions      [0 3 -1 0 0 0 0];

internalField   nonuniform List<scalar> 
882
(
-1.14793e-05
2.21547e-05
-9.67414e-06
1.2243e-05
-7.21637e-06
-4.80545e-06
1.29766e-05
-7.29623e-06
4.01053e-06
-5.14393e-06
-4.26633e-06
-3.04538e-06
-1.148e-05
-1.18279e-06
4.16046e-07
1.68142e-06
-4.33219e-06
-6.40428e-06
-2.54873e-06
-1.39301e-05
-7.80431e-07
-2.06796e-05
8.25554e-07
-2.65694e-05
2.23752e-06
-3.16479e-05
3.45395e-06
4.49899e-06
-1.1884e-05
-7.69779e-07
-1.9031e-05
6.18352e-07
-2.58273e-05
2.03649e-06
-3.21052e-05
3.3658e-06
-3.78263e-05
4.57565e-06
-4.30555e-05
5.65907e-06
-4.79194e-05
6.62918e-06
-5.2608e-05
7.51183e-06
8.32284e-06
-5.68534e-05
-2.79629e-05
3.38471e-06
-3.41654e-05
4.37221e-06
-4.02305e-05
5.43455e-06
-4.60239e-05
6.47923e-06
-5.15048e-05
7.47362e-06
-5.67144e-05
8.40422e-06
-6.1784e-05
9.27348e-06
-6.68578e-05
1.00941e-05
1.08664e-05
-7.14571e-05
-4.67844e-05
8.09486e-06
-5.2072e-05
8.69262e-06
-5.74263e-05
9.40821e-06
-6.27301e-05
1.01722e-05
-6.79378e-05
1.09481e-05
-7.30695e-05
1.17155e-05
-7.81984e-05
1.24677e-05
-8.34166e-05
1.32068e-05
1.39215e-05
-8.81413e-05
-6.85321e-05
1.32847e-05
-7.29717e-05
1.35172e-05
-7.76677e-05
1.3911e-05
-8.25067e-05
1.44121e-05
-8.74345e-05
1.49783e-05
-9.24484e-05
1.55829e-05
-9.75839e-05
1.62115e-05
-0.000102893
1.68577e-05
1.75008e-05
-0.000107738
-9.33094e-05
1.87997e-05
-9.70212e-05
1.87322e-05
-0.000101152
1.88516e-05
-0.000105587
1.91229e-05
-0.000110263
1.95002e-05
-0.000115159
1.99525e-05
-0.000120283
2.04596e-05
-0.000125658
2.10087e-05
2.15712e-05
-0.000130599
-0.000121144
2.44854e-05
-0.000124303
2.41925e-05
-0.000128003
2.41001e-05
-0.000132131
2.4187e-05
-0.000136617
2.44063e-05
-0.000141426
2.47249e-05
-0.000146547
2.51195e-05
-0.00015198
2.55727e-05
2.60498e-05
-0.000157001
-0.000151985
3.01459e-05
-0.000154823
2.97187e-05
-0.000158265
2.94949e-05
-0.000162209
2.94517e-05
-0.00016659
2.95498e-05
-0.000171365
2.97586e-05
-0.000176509
3.00541e-05
-0.000182005
3.04163e-05
3.08063e-05
-0.000187095
-0.000183585
3.61916e-05
-0.000185768
3.56244e-05
-0.000188538
3.51518e-05
-0.000191904
3.48644e-05
-0.0001958
3.47407e-05
-0.000200171
3.47536e-05
-0.000204975
3.48772e-05
-0.000210177
3.50886e-05
-0.000215744
3.53672e-05
3.56708e-05
-0.000220894
-0.0002202
4.14052e-05
-0.000222498
4.08317e-05
-0.000225374
4.03468e-05
-0.000228818
4.00293e-05
-0.000232789
3.98605e-05
-0.000237243
3.98176e-05
-0.000242137
3.98781e-05
-0.000247431
4.00201e-05
-0.00025308
4.0223e-05
4.04432e-05
-0.00025828
-0.000259549
4.61268e-05
-0.00026208
4.55807e-05
-0.000265176
4.51076e-05
-0.000268816
4.47872e-05
-0.000272966
4.46e-05
-0.000277583
4.45249e-05
-0.000282622
4.45406e-05
-0.000288036
4.46264e-05
-0.000293774
4.47618e-05
4.49028e-05
-0.000299012
-0.000301354
5.01448e-05
-0.000304236
4.96567e-05
-0.000307661
4.9221e-05
-0.0003116
4.8921e-05
-0.000316015
4.87368e-05
-0.000320863
4.86479e-05
-0.000326092
4.86341e-05
-0.000331651
4.86752e-05
-0.000337478
4.87512e-05
4.88187e-05
-0.000342741
-0.000345221
5.32545e-05
-0.000348582
5.28473e-05
-0.000352442
5.24704e-05
-0.000356771
5.22092e-05
-0.000361527
5.20445e-05
-0.00036666
5.19565e-05
-0.000372117
5.19256e-05
-0.000377838
5.19325e-05
-0.000383754
5.19579e-05
5.19595e-05
-0.000389027
-0.00039069
5.5259e-05
-0.000394646
5.49469e-05
-0.000399039
5.46432e-05
-0.000403838
5.44339e-05
-0.000408996
5.43006e-05
-0.000414462
5.42244e-05
-0.000420176
5.41867e-05
-0.000426074
5.41693e-05
-0.000432082
5.41538e-05
5.41001e-05
-0.00043736
-0.000437231
5.59717e-05
-0.00044188
5.57603e-05
-0.000446889
5.55372e-05
-0.000452224
5.5387e-05
-0.000457836
5.52923e-05
-0.000463671
5.52355e-05
-0.000469666
5.51992e-05
-0.000475752
5.51664e-05
-0.000481854
5.51202e-05
5.50234e-05
-0.000487135
-0.000484241
5.52202e-05
-0.000489662
5.51068e-05
-0.000495351
5.49648e-05
-0.000501274
5.48751e-05
-0.000507379
5.48218e-05
-0.000513611
5.47887e-05
-0.000519904
5.47599e-05
-0.000526186
5.47197e-05
-0.000532382
5.46529e-05
5.45257e-05
-0.00053766
-0.000531051
5.28504e-05
-0.000537299
5.28246e-05
-0.000543713
5.27577e-05
-0.000550258
5.27246e-05
-0.000556884
5.27112e-05
-0.000563531
5.27029e-05
-0.000570132
5.26853e-05
-0.000576616
5.26447e-05
-0.000582905
5.25673e-05
5.24234e-05
-0.000588174
-0.000576916
4.87301e-05
-0.00058402
4.87753e-05
-0.000591183
4.87715e-05
-0.00059837
4.87862e-05
-0.00060553
4.88072e-05
-0.000612601
4.88217e-05
-0.000619518
4.88171e-05
-0.000626207
4.87814e-05
-0.000632589
4.8703e-05
4.85562e-05
-0.000637853
-0.000621012
4.27551e-05
-0.000628974
4.2849e-05
-0.000636887
4.28913e-05
-0.000644716
4.29407e-05
-0.000652409
4.29868e-05
-0.000659906
4.30189e-05
-0.00066714
4.30264e-05
-0.000674037
4.29994e-05
-0.000680519
4.29283e-05
4.27918e-05
-0.000685785
-0.000662418
3.48552e-05
-0.000671207
3.49708e-05
-0.000679844
3.50382e-05
-0.000688295
3.51054e-05
-0.000696507
3.5164e-05
-0.000704421
3.52056e-05
-0.000711968
3.52219e-05
-0.000719076
3.52051e-05
-0.000725669
3.51477e-05
3.50332e-05
-0.000730951
-0.00070009
2.50026e-05
-0.000709638
2.51099e-05
-0.000718942
2.51783e-05
-0.00072797
2.52433e-05
-0.000736669
2.5299e-05
-0.000744979
2.53392e-05
-0.000752831
2.53582e-05
-0.000760153
2.53506e-05
-0.00076687
2.53112e-05
2.52284e-05
-0.000772192
-0.00073283
1.32246e-05
-0.00074301
1.32916e-05
-0.000752885
1.33356e-05
-0.000762416
1.33767e-05
-0.00077155
1.34117e-05
-0.000780222
1.34374e-05
-0.000788363
1.34507e-05
-0.0007959
1.34489e-05
-0.000802756
1.34292e-05
1.33853e-05
-0.000808142
-0.000759101
-0.00076973
-0.00078003
-0.000789952
-0.000799434
-0.00080841
-0.000816807
-0.000824549
-0.000831558
-0.000837037
4.37209e-06
-7.47042e-05
5.63018e-06
-7.69889e-05
5.97724e-06
6.21437e-06
-7.95654e-05
-9.15332e-05
7.13435e-06
-9.40822e-05
7.48907e-06
7.72672e-06
-9.70296e-05
-0.000111227
8.89347e-06
-0.000113864
9.25133e-06
9.4791e-06
-0.00011694
-0.000134162
1.08925e-05
-0.000136832
1.12497e-05
1.14576e-05
-0.000139915
-0.000160612
1.30913e-05
-0.000163257
1.34451e-05
1.36257e-05
-0.000166217
-0.000190728
1.5426e-05
-0.000193294
1.57746e-05
1.59227e-05
-0.000196014
-0.000224525
1.78135e-05
-0.000226965
1.81555e-05
1.82693e-05
-0.00022935
-0.000261888
2.01551e-05
-0.000264168
2.04901e-05
2.05704e-05
-0.000266151
-0.000302579
2.23417e-05
-0.000304673
2.26692e-05
2.27185e-05
-0.000306209
-0.000346246
2.42595e-05
-0.000348135
2.45783e-05
2.46002e-05
-0.000349201
-0.000392455
2.57943e-05
-0.000394134
2.6103e-05
2.61021e-05
-0.000394722
-0.000440707
2.68361e-05
-0.000442176
2.71336e-05
2.71141e-05
-0.000442278
-0.0004904
2.72779e-05
-0.00049166
2.75624e-05
2.75291e-05
-0.000491278
-0.000540836
2.70184e-05
-0.000541888
2.72871e-05
2.72452e-05
-0.000541044
-0.000591259
2.59674e-05
-0.000592113
2.62166e-05
2.61704e-05
-0.00059084
-0.00064085
2.40456e-05
-0.000641524
2.42704e-05
2.42241e-05
-0.000639862
-0.000688706
2.11872e-05
-0.000689219
2.13819e-05
2.13393e-05
-0.000687212
-0.000733813
1.73439e-05
-0.000734192
1.75017e-05
1.74661e-05
-0.000731887
-0.000775019
1.24891e-05
-0.000775294
1.26023e-05
1.25766e-05
-0.000772743
-0.000810968
6.626e-06
-0.000811181
6.68601e-06
6.67265e-06
-0.000808451
-0.000839895
-0.000840091
-0.000837253
1.3717e-05
-0.000101432
1.68118e-05
-0.000107176
1.83521e-05
-0.000113918
2.0276e-05
2.24768e-05
-0.000121563
2.03513e-05
-0.000127595
2.19126e-05
-0.000134537
2.38424e-05
-0.000142425
2.60388e-05
-0.000151239
2.8523e-05
3.12954e-05
-0.000144506
2.43157e-05
-0.000150473
2.5858e-05
-0.000157273
2.77523e-05
-0.000164948
2.98913e-05
-0.000173521
3.22834e-05
-0.000182906
3.49447e-05
-0.00019297
3.78813e-05
4.1054e-05
-0.000170575
2.86386e-05
-0.000176247
3.01306e-05
-0.000182689
3.19533e-05
-0.000189885
3.40017e-05
-0.000197838
3.62782e-05
-0.000206545
3.87903e-05
-0.000215906
4.15345e-05
-0.000225676
4.44987e-05
4.75362e-05
-0.000199954
3.32066e-05
-0.000205114
3.46282e-05
-0.000210984
3.63557e-05
-0.000217517
3.82893e-05
-0.000224705
4.04281e-05
-0.000232506
4.2776e-05
-0.000240818
4.53296e-05
-0.000249527
4.8076e-05
5.08829e-05
-0.000232715
3.78679e-05
-0.00023718
3.92094e-05
-0.000242289
4.08284e-05
-0.000247983
4.26327e-05
-0.00025424
4.46199e-05
-0.000261009
4.6793e-05
-0.000268201
4.91488e-05
-0.000275692
5.16775e-05
5.42457e-05
-0.00026882
4.24383e-05
-0.000272436
4.36975e-05
-0.000276627
4.52032e-05
-0.000281326
4.6872e-05
-0.000286505
4.87015e-05
-0.000292111
5.06944e-05
-0.000298061
5.28485e-05
-0.000304242
5.51561e-05
5.74788e-05
-0.000308097
4.67053e-05
-0.000310748
4.78865e-05
-0.000313898
4.92815e-05
-0.000317477
5.08162e-05
-0.000321455
5.24883e-05
-0.000325779
5.43008e-05
-0.000330372
5.62529e-05
-0.000335131
5.83389e-05
6.04136e-05
-0.00035026
5.04438e-05
-0.000351869
5.15547e-05
-0.000353893
5.28458e-05
-0.000356259
5.42521e-05
-0.000358939
5.57716e-05
-0.000361885
5.74082e-05
-0.000365024
5.91621e-05
-0.000368264
6.10294e-05
6.28588e-05
-0.000394925
5.34244e-05
-0.000395449
5.44724e-05
-0.000396296
5.56674e-05
-0.00039739
5.69533e-05
-0.000398708
5.8328e-05
-0.000400205
5.9796e-05
-0.000401818
6.13586e-05
-0.000403462
6.30136e-05
6.46053e-05
-0.000441613
5.54203e-05
-0.00044104
5.64097e-05
-0.000440691
5.75157e-05
-0.000440487
5.8689e-05
-0.000440408
5.99272e-05
-0.000440418
6.12353e-05
-0.00044046
6.26156e-05
-0.00044046
6.40673e-05
6.54325e-05
-0.000489757
5.62126e-05
-0.000488105
5.71438e-05
-0.000486572
5.81648e-05
-0.000485072
5.92312e-05
-0.000483594
6.03403e-05
-0.000482108
6.14972e-05
-0.000480566
6.27049e-05
-0.000478903
6.39636e-05
6.51165e-05
-0.000538711
5.55938e-05
-0.000536023
5.64636e-05
-0.000533341
5.73996e-05
-0.000530578
5.83616e-05
-0.000527727
5.93466e-05
-0.000524767
6.03596e-05
-0.000521655
6.14038e-05
-0.000518341
6.24805e-05
6.34369e-05
-0.000587753
5.33749e-05
-0.000584091
5.41751e-05
-0.000580321
5.50214e-05
-0.00057635
5.58776e-05
-0.000572179
5.67405e-05
-0.000567792
5.76145e-05
-0.000563156
5.85032e-05
-0.000558229
5.94081e-05
6.01847e-05
-0.000636086
4.93891e-05
-0.000631527
5.01067e-05
-0.000626745
5.08539e-05
-0.000621643
5.15988e-05
-0.000616227
5.2338e-05
-0.000610488
5.30755e-05
-0.0006044
5.38145e-05
-0.000597932
5.45567e-05
5.51702e-05
-0.000682822
4.34977e-05
-0.000677454
4.41153e-05
-0.000671751
4.47499e-05
-0.000665614
4.53742e-05
-0.000659052
4.59848e-05
-0.00065206
4.65852e-05
-0.000644622
4.71779e-05
-0.000636712
4.77649e-05
4.82313e-05
-0.000726962
3.55972e-05
-0.000720884
3.60943e-05
-0.000714367
3.65991e-05
-0.000707308
3.70901e-05
-0.000699719
3.75644e-05
-0.000691602
3.80243e-05
-0.000682943
3.8472e-05
-0.000673726
3.8909e-05
3.92429e-05
-0.00076737
2.56296e-05
-0.00076069
2.59832e-05
-0.00075348
2.63388e-05
-0.000745632
2.66816e-05
-0.000737161
2.70091e-05
-0.000728072
2.73229e-05
-0.000718358
2.76244e-05
-0.000708008
2.79146e-05
2.81286e-05
-0.000802727
1.35975e-05
-0.000795564
1.37836e-05
-0.000787796
1.39695e-05
-0.000779314
1.41474e-05
-0.000770134
1.43161e-05
-0.000760265
1.44762e-05
-0.000749705
1.46283e-05
-0.000738447
1.47726e-05
1.48763e-05
-0.000831282
-0.000823769
-0.000815606
-0.000806678
-0.000797005
-0.000786596
-0.000775452
-0.000763575
)
;

boundaryField
{
    inlet
    {
        type            calculated;
        value           nonuniform 0();
    }
    outlet
    {
        type            calculated;
        value           nonuniform 0();
    }
    flap
    {
        type            calculated;
        value           nonuniform 0();
    }
    upperWall
    {
        type            calculated;
        value           nonuniform List<scalar> 
22
(
0
0
0
0
0
0
0
6.38407e-15
0
0
0
0
0
0
0
0
0
0
0
0
0
0
)
;
    }
    lowerWall
    {
        type            calculated;
        value           nonuniform 0();
    }
    frontAndBack
    {
        type            empty;
        value           nonuniform 0();
    }
    procBoundary1to0
    {
        type            processor;
        value           nonuniform List<scalar> 
18
(
0.000118507
0.000149706
-3.06393e-05
0.000181336
0.000217938
0.000257023
0.000298385
0.000341655
0.000386394
0.000432094
0.000478181
0.000524011
0.000568869
0.000611962
0.000652404
0.000689191
0.000721172
0.000746879
)
;
    }
    procBoundary1to2
    {
        type            processor;
        value           nonuniform List<scalar> 
17
(
-0.000234587
-0.000257514
-0.000282467
-0.000309632
-0.000338997
-0.000370489
-0.00040396
-0.000439174
-0.000475803
-0.000513431
-0.000551546
-0.000589542
-0.000626718
-0.000662268
-0.000695271
-0.000724684
-0.000749109
)
;
    }
    procBoundary1to3
    {
        type            processor;
        value           nonuniform List<scalar> 9(-3.89581e-05 -3.14774e-05 -2.15977e-05 -9.48479e-06 5.02336e-06 2.20822e-05 4.18672e-05 6.45299e-05 9.00918e-05);
    }
    procBoundary1to4
    {
        type            processor;
        value           nonuniform List<scalar> 
30
(
1.2452e-05
2.88528e-05
8.69211e-06
5.9139e-06
3.18414e-06
2.66062e-06
8.62183e-07
-1.74062e-05
-1.75121e-06
-2.84289e-06
-3.60301e-05
-5.40889e-06
-6.21615e-06
-3.31623e-06
-5.97801e-05
-4.70037e-06
-4.91659e-06
-1.09955e-05
-8.3405e-05
-1.51698e-05
-1.69992e-05
-1.91037e-05
-0.00012161
-2.49569e-05
-2.77111e-05
-0.000160816
-3.43306e-05
-3.75871e-05
-0.000203391
-4.42709e-05
)
;
    }
}


// ************************************************************************* //
