/*--------------------------------*- C++ -*----------------------------------*\
| =========                 |                                                 |
| \\      /  F ield         | OpenFOAM: The Open Source CFD Toolbox           |
|  \\    /   O peration     | Version:  dev                                   |
|   \\  /    A nd           | Web:      www.OpenFOAM.org                      |
|    \\/     M anipulation  |                                                 |
\*---------------------------------------------------------------------------*/
FoamFile
{
    version     2.0;
    format      ascii;
    class       surfaceScalarField;
    location    "3";
    object      phi;
}
// * * * * * * * * * * * * * * * * * * * * * * * * * * * * * * * * * * * * * //

dimensions      [0 3 -1 0 0 0 0];

internalField   nonuniform List<scalar> 
882
(
0.131441
0.232784
0.128382
0.236937
0.135362
0.142178
0.247147
0.124545
0.252028
0.130488
0.258082
0.136131
0.265416
0.141335
0.145931
0.261079
0.120097
0.266477
0.125095
0.272895
0.129718
0.28039
0.133845
0.288981
0.137344
0.298649
0.140085
0.14194
0.274539
0.115201
0.280277
0.119361
0.28689
0.123109
0.294399
0.12634
0.302791
0.128954
0.312022
0.130857
0.322002
0.131963
0.332592
0.132189
0.131054
0.343566
0.287522
0.109988
0.293469
0.113417
0.300158
0.116422
0.307586
0.118915
0.315718
0.120824
0.324495
0.122083
0.333822
0.122638
0.343569
0.122444
0.121093
0.353533
0.300048
0.104559
0.306106
0.107359
0.312789
0.109741
0.320073
0.111633
0.327915
0.112984
0.336248
0.113752
0.344981
0.113907
0.353999
0.113428
0.111967
0.363126
0.312147
0.0989944
0.318244
0.101262
0.324863
0.103123
0.331968
0.104527
0.339512
0.105441
0.347426
0.105839
0.355628
0.105707
0.364018
0.105039
0.10354
0.372446
0.323849
0.0933534
0.329937
0.095172
0.336456
0.0966034
0.343366
0.0976168
0.350617
0.0981907
0.358144
0.0983121
0.365875
0.0979778
0.373723
0.097192
0.0957002
0.381564
0.335192
0.0876799
0.34124
0.0891216
0.347639
0.0902033
0.354349
0.0909061
0.36132
0.0912186
0.368496
0.0911365
0.37581
0.0906639
0.383192
0.0898107
0.0883568
0.390536
0.346226
0.082007
0.352209
0.0831354
0.358477
0.0839339
0.364989
0.0843922
0.371701
0.0845062
0.37856
0.0842776
0.385509
0.0837151
0.392489
0.0828315
0.0814356
0.39941
0.351347
0.0751975
0.356993
0.0763573
0.362898
0.0772276
0.369032
0.0777987
0.375355
0.0780668
0.381828
0.0780327
0.388403
0.0777022
0.395032
0.0770862
0.401665
0.0761991
0.0748744
0.408227
0.361931
0.0698219
0.36754
0.0707454
0.37336
0.0714049
0.379361
0.0717957
0.385509
0.0719181
0.391765
0.0717763
0.398088
0.0713786
0.404438
0.0707372
0.410771
0.0698665
0.0686215
0.417024
0.372351
0.064453
0.377914
0.0651803
0.383648
0.0656694
0.389523
0.0659189
0.395509
0.065932
0.40157
0.065715
0.407672
0.0652776
0.413777
0.0646321
0.419852
0.0637928
0.0626332
0.425841
0.382652
0.0591005
0.388165
0.0596662
0.393815
0.0600189
0.399574
0.0601595
0.405414
0.060093
0.411302
0.059827
0.41721
0.0593715
0.423105
0.0587388
0.428957
0.0579421
0.0568717
0.43472
0.392882
0.0537688
0.398345
0.0542026
0.403917
0.0544477
0.409572
0.0545063
0.415281
0.0543845
0.42102
0.0540905
0.426759
0.0536342
0.432473
0.0530272
0.438137
0.0522816
0.0513023
0.443708
0.403089
0.0484582
0.408508
0.0487856
0.41401
0.0489471
0.419573
0.0489461
0.425172
0.048789
0.430781
0.048484
0.436379
0.0480405
0.44194
0.0474694
0.447444
0.0467813
0.0458944
0.452855
0.413325
0.043165
0.418707
0.0434074
0.424152
0.0435058
0.429639
0.0434637
0.435145
0.0432876
0.440648
0.0429855
0.446127
0.0425661
0.451563
0.0420391
0.456935
0.0414141
0.040621
0.462213
0.423644
0.0378818
0.429
0.0380576
0.434402
0.0381098
0.43983
0.0380421
0.445264
0.0378606
0.450683
0.0375729
0.456069
0.0371867
0.461404
0.0367106
0.466672
0.0361531
0.0354546
0.471844
0.434103
0.0325978
0.439446
0.0327224
0.444822
0.0327427
0.450211
0.0326621
0.455594
0.0324866
0.460953
0.0322226
0.466271
0.0318772
0.471532
0.0314577
0.476722
0.0309715
0.0303685
0.481816
0.444763
0.0272987
0.450111
0.0273849
0.45548
0.0273851
0.460851
0.0273024
0.466206
0.0271421
0.47153
0.0269098
0.476807
0.0266113
0.482022
0.0262531
0.487163
0.0258411
0.025334
0.492206
0.455686
0.0219664
0.46106
0.0220247
0.466444
0.0220146
0.471821
0.0219387
0.477175
0.0218015
0.482491
0.0216075
0.487754
0.0213616
0.492951
0.0210689
0.49807
0.0207344
0.0203252
0.503089
0.466946
0.0165788
0.47237
0.0166176
0.477796
0.0166051
0.483208
0.0165433
0.48859
0.0164355
0.493928
0.0162854
0.499208
0.0160967
0.504419
0.0158731
0.509549
0.0156183
0.0153073
0.51458
0.478616
0.0111097
0.484117
0.0111358
0.489615
0.0111272
0.495091
0.0110853
0.500533
0.0110125
0.505925
0.0109114
0.511255
0.0107844
0.516511
0.0106343
0.521682
0.0104636
0.0102557
0.526749
0.490774
0.00552789
0.496386
0.00554567
0.50199
0.0055455
0.507568
0.0055281
0.513107
0.0054947
0.518593
0.00544662
0.524012
0.00538521
0.529354
0.00531184
0.534608
0.00522781
0.00512499
0.539756
0.494777
0.500347
0.505916
0.511467
0.516985
0.522454
0.527861
0.533194
0.538442
0.543586
0.0652567
0.35858
0.0602113
0.363607
0.059945
0.0603605
0.3687
0.36773
0.0556099
0.37231
0.0553658
0.0557273
0.376945
0.376682
0.0513756
0.380894
0.0511549
0.0514713
0.385151
0.385494
0.0474471
0.3894
0.0472496
0.0475275
0.393345
0.394209
0.0437758
0.397859
0.0436001
0.0438446
0.401543
0.402865
0.0403222
0.406299
0.0401668
0.0403822
0.409761
0.411497
0.0370534
0.414747
0.0369163
0.0371062
0.418023
0.420137
0.0339423
0.423231
0.0338216
0.033988
0.426349
0.428818
0.0309669
0.431779
0.0308609
0.0310053
0.434761
0.437581
0.0281075
0.440427
0.0280147
0.0281385
0.443293
0.446471
0.0253462
0.44922
0.0252658
0.0253721
0.451986
0.455537
0.0226669
0.458205
0.0225981
0.0226907
0.460885
0.464826
0.0200567
0.467427
0.0199975
0.0200771
0.47004
0.474402
0.017502
0.47695
0.0174512
0.017518
0.479509
0.484333
0.0149884
0.486842
0.0149449
0.015
0.489359
0.494697
0.0125025
0.497179
0.012466
0.0125105
0.499669
0.505569
0.0100289
0.508039
0.00999898
0.0100335
0.510517
0.517061
0.00755452
0.519533
0.00753138
0.00755708
0.522011
0.529252
0.00505904
0.531746
0.00504263
0.00505889
0.534247
0.542292
0.0025315
0.544819
0.0025219
0.00252953
0.547352
0.546127
0.548656
0.551189
0.122331
0.386252
0.113025
0.39551
0.115351
0.404414
0.116711
0.117293
0.393727
0.104451
0.402361
0.10672
0.410847
0.108228
0.419011
0.109133
0.426699
0.109429
0.109132
0.401302
0.0964943
0.40936
0.0986643
0.417373
0.100217
0.425219
0.101291
0.432781
0.101872
0.439956
0.101963
0.44666
0.101576
0.100733
0.40898
0.0890574
0.416536
0.0911094
0.424102
0.0926532
0.431586
0.0938101
0.4389
0.0945624
0.445963
0.0949047
0.452705
0.0948391
0.459068
0.094376
0.0935295
0.41676
0.0820577
0.423887
0.0839829
0.431054
0.0854877
0.438191
0.0866756
0.445229
0.087528
0.452102
0.0880354
0.458752
0.0881935
0.465129
0.0880046
0.0874737
0.42465
0.07543
0.431408
0.0772243
0.438227
0.0786698
0.445049
0.0798545
0.45182
0.0807592
0.458486
0.0813724
0.464996
0.0816865
0.471306
0.0816983
0.0814063
0.432658
0.0691191
0.439099
0.0707826
0.445615
0.0721541
0.452159
0.0733107
0.458686
0.074233
0.465151
0.074909
0.471511
0.0753291
0.477725
0.0754869
0.0753766
0.4408
0.0630774
0.446971
0.0646107
0.453225
0.065899
0.459526
0.0670095
0.465835
0.0679237
0.472115
0.0686298
0.478328
0.0691174
0.484438
0.0693785
0.0694043
0.449102
0.0572654
0.455042
0.0586693
0.461072
0.0598673
0.467162
0.0609185
0.47328
0.0618053
0.479393
0.0625161
0.48547
0.0630408
0.491478
0.0633706
0.0634954
0.457598
0.0516507
0.46334
0.0529248
0.469178
0.054027
0.475087
0.055008
0.481039
0.0558517
0.487007
0.0565471
0.492963
0.0570846
0.498878
0.0574553
0.0576483
0.46633
0.0462033
0.471905
0.0473472
0.477581
0.0483489
0.483336
0.0492508
0.489148
0.0500385
0.494992
0.050702
0.500843
0.0512323
0.506676
0.0516208
0.0518568
0.475349
0.0408917
0.480787
0.0419073
0.486328
0.0428051
0.491956
0.0436209
0.497651
0.0443422
0.503391
0.0449602
0.509155
0.0454668
0.51492
0.045854
0.0461113
0.484711
0.0356871
0.490041
0.0365761
0.495476
0.0373678
0.501003
0.0380923
0.506604
0.0387391
0.512262
0.0393008
0.517957
0.03977
0.523669
0.0401399
0.0404004
0.494482
0.0305633
0.499731
0.031326
0.505088
0.0320096
0.51054
0.0326387
0.516073
0.0332046
0.521671
0.0337012
0.527317
0.034122
0.532994
0.0344612
0.0347097
0.504739
0.0254931
0.509934
0.02613
0.51524
0.0267034
0.520644
0.0272335
0.526135
0.0277133
0.531697
0.0281375
0.537317
0.0285009
0.542978
0.0287984
0.0290226
0.515563
0.0204484
0.520735
0.0209591
0.526018
0.0214207
0.531403
0.0218488
0.536878
0.0222379
0.542431
0.0225838
0.548049
0.0228824
0.553716
0.0231297
0.0233194
0.527063
0.0153992
0.53224
0.0157838
0.537531
0.0161317
0.542926
0.0164552
0.548415
0.0167499
0.553986
0.0170127
0.559628
0.0172405
0.565327
0.0174307
0.0175783
0.539339
0.0103116
0.544557
0.0105685
0.54989
0.0108024
0.555328
0.0110196
0.560863
0.0112172
0.566484
0.0113934
0.572179
0.0115463
0.577936
0.0116742
0.0117739
0.552522
0.00514761
0.557815
0.00528062
0.563223
0.00539862
0.56874
0.00550702
0.574355
0.00560549
0.580059
0.00569311
0.585838
0.00576883
0.591683
0.00583175
0.00588033
0.556345
0.561631
0.567036
0.572548
0.578158
0.583855
0.589628
0.595462
)
;

boundaryField
{
    inlet
    {
        type            calculated;
        value           nonuniform 0();
    }
    outlet
    {
        type            calculated;
        value           nonuniform 0();
    }
    flap
    {
        type            calculated;
        value           nonuniform 0();
    }
    upperWall
    {
        type            calculated;
        value           nonuniform List<scalar> 
22
(
0
0
0
0
0
0
0
-6.38407e-15
0
0
0
0
0
0
0
0
0
0
0
0
0
0
)
;
    }
    lowerWall
    {
        type            calculated;
        value           nonuniform 0();
    }
    frontAndBack
    {
        type            empty;
        value           nonuniform 0();
    }
    procBoundary1to0
    {
        type            processor;
        value           nonuniform List<scalar> 
18
(
-0.329522
-0.340556
-0.0805652
-0.345982
-0.356558
-0.366984
-0.377301
-0.38755
-0.397776
-0.408027
-0.418354
-0.428809
-0.439451
-0.450338
-0.461541
-0.473126
-0.485169
-0.489224
)
;
    }
    procBoundary1to2
    {
        type            processor;
        value           nonuniform List<scalar> 
17
(
0.465008
0.471189
0.477377
0.483757
0.490411
0.497387
0.504724
0.512466
0.520662
0.529377
0.538681
0.548662
0.559417
0.571065
0.583739
0.597576
0.601343
)
;
    }
    procBoundary1to3
    {
        type            processor;
        value           nonuniform List<scalar> 9(-0.215942 -0.229718 -0.243304 -0.256626 -0.26964 -0.282307 -0.294619 -0.306584 -0.318211);
    }
    procBoundary1to4
    {
        type            processor;
        value           nonuniform List<scalar> 
30
(
-0.133531
0.218042
-0.139506
-0.147617
0.242384
-0.148663
-0.154608
0.274098
-0.14975
-0.15261
0.309322
-0.142776
-0.142026
-0.0708427
0.349154
-0.0649714
-0.0654514
-0.13247
0.37884
-0.124606
-0.125611
-0.125593
0.412719
-0.117112
-0.116212
0.433784
-0.108274
-0.106897
0.452831
-0.099463
)
;
    }
}


// ************************************************************************* //
