/*--------------------------------*- C++ -*----------------------------------*\
| =========                 |                                                 |
| \\      /  F ield         | OpenFOAM: The Open Source CFD Toolbox           |
|  \\    /   O peration     | Version:  dev                                   |
|   \\  /    A nd           | Web:      www.OpenFOAM.org                      |
|    \\/     M anipulation  |                                                 |
\*---------------------------------------------------------------------------*/
FoamFile
{
    version     2.0;
    format      ascii;
    class       surfaceVectorField;
    location    "3";
    object      Uf;
}
// * * * * * * * * * * * * * * * * * * * * * * * * * * * * * * * * * * * * * //

dimensions      [0 1 -1 0 0 0 0];

internalField   nonuniform List<vector> 
882
(
(9.90888 1.54613e-19 4.85736)
(10.1328 7.69199e-20 5.0174)
(10.2117 3.33586e-19 4.76025)
(10.2838 -3.267e-19 5.42532)
(10.3556 -1.74489e-19 5.13957)
(10.5365 -7.91416e-20 5.53494)
(10.4362 7.68145e-20 4.88627)
(10.4893 -3.63775e-21 4.63466)
(10.6105 7.88064e-20 5.25351)
(10.6541 7.7031e-20 4.9778)
(10.8235 1.96984e-21 5.63059)
(10.8531 4.01439e-20 5.32954)
(11.0807 7.22374e-20 6.0124)
(11.0909 3.65313e-20 5.68564)
(11.3716 7.20627e-20 6.04012)
(10.7096 -3.51771e-21 4.72959)
(10.74 1.49243e-20 4.48586)
(10.8998 3.74556e-20 5.05753)
(10.9194 -7.37525e-20 4.79388)
(11.1245 7.55599e-20 5.38854)
(11.1295 1.08026e-19 5.1048)
(11.387 3.64409e-20 5.71743)
(11.3731 -3.3604e-20 5.41427)
(11.69 0 6.03759)
(11.6526 -6.85422e-20 5.71676)
(12.0349 6.61843e-20 6.34085)
(11.9692 -1.25963e-19 6.00565)
(12.3236 1.94291e-19 6.27308)
(10.9526 -5.72269e-20 4.55305)
(10.9631 -5.26149e-20 4.31869)
(11.1526 -1.32004e-21 4.84416)
(11.1519 -1.41487e-19 4.59361)
(11.3826 -3.98944e-21 5.1335)
(11.3675 1.36734e-19 4.86723)
(11.6442 -1.411e-19 5.41628)
(11.6116 -7.33829e-20 5.13548)
(11.9386 -1.97665e-19 5.6868)
(11.885 -1.96519e-19 5.39351)
(12.2656 6.20812e-21 5.93854)
(12.1877 3.10176e-20 5.63579)
(12.6237 1.27903e-19 6.16426)
(12.5191 2.49141e-19 5.85625)
(13.009 0 6.35765)
(12.8725 -2.32613e-19 6.04825)
(13.2902 8.48859e-21 6.20855)
(13.4178 2.40302e-19 6.49117)
(11.1657 -1.39051e-19 4.3616)
(11.1592 -7.13876e-20 4.13742)
(11.3707 2.89676e-22 4.61895)
(11.3531 -3.05728e-21 4.38174)
(11.6012 6.55571e-20 4.87126)
(11.57 6.77985e-20 4.62185)
(11.8579 -1.3022e-19 5.11432)
(11.8107 -5.92993e-22 4.85412)
(12.1406 3.81885e-20 5.34339)
(12.075 -7.0014e-21 5.07447)
(12.4484 2.80429e-19 5.55338)
(12.3623 3.8833e-20 5.27847)
(12.7789 -1.21937e-19 5.73892)
(12.6709 1.20565e-19 5.46159)
(13.1285 -2.27117e-19 5.89542)
(12.995 -2.0967e-19 5.6191)
(13.3706 3.62454e-20 5.74884)
(13.493 2.5953e-19 6.00274)
(11.3501 6.80362e-20 4.15937)
(11.3292 3.16193e-20 3.94564)
(11.5565 6.62508e-20 4.38626)
(11.5249 6.79476e-20 4.16212)
(11.7842 0 4.60602)
(11.7401 0 4.37248)
(12.0332 1.25545e-19 4.81509)
(11.9748 -3.06426e-20 4.57361)
(12.3027 -6.25528e-21 5.00969)
(12.2284 6.62398e-21 4.76221)
(12.5913 -1.24715e-19 5.18591)
(12.4997 -3.67943e-20 4.93482)
(12.8963 2.93061e-20 5.33989)
(12.7867 -2.87928e-20 5.0881)
(13.2145 5.67598e-20 5.46847)
(13.0846 1.22466e-21 5.21877)
(13.4244 1.16392e-21 5.32555)
(13.5421 1.83353e-20 5.55642)
(11.5076 3.15757e-20 3.94969)
(11.4745 -6.06962e-20 3.74632)
(11.7126 0 4.14938)
(11.6696 0 3.93774)
(11.9353 -3.14321e-20 4.34075)
(11.881 1.48946e-19 4.1219)
(12.1751 -1.52327e-19 4.5209)
(12.1082 -1.22632e-19 4.29623)
(12.4309 -2.47987e-20 4.68686)
(12.3502 -3.55242e-20 4.45811)
(12.7009 6.14451e-20 4.8357)
(12.6058 -1.36926e-19 4.60491)
(12.9829 -5.74776e-20 4.96472)
(12.8729 1.13798e-19 4.7342)
(13.2738 -5.56988e-20 5.07176)
(13.1474 -1.35943e-19 4.84375)
(13.4567 6.83719e-20 4.93294)
(13.5703 -1.79939e-20 5.14502)
(11.6402 -9.29742e-20 3.73521)
(11.597 -9.53499e-20 3.54187)
(11.842 1.52759e-19 3.9108)
(11.7897 0 3.71089)
(12.0582 5.51385e-20 4.07753)
(11.9958 1.52182e-19 3.87209)
(12.288 -2.83725e-21 4.2331)
(12.2146 -1.22157e-19 4.02341)
(12.5301 -1.50522e-19 4.37521)
(12.445 4.72321e-21 4.16278)
(12.7829 -8.27553e-20 4.50173)
(12.6855 -2.31685e-19 4.28826)
(13.0441 3.29401e-20 4.61077)
(12.9344 2.86368e-19 4.39811)
(13.3112 -1.11449e-20 4.70093)
(13.1882 -1.09848e-19 4.49083)
(13.4715 -1.06398e-19 4.56627)
(13.5815 -1.741e-19 4.76279)
(11.75 0 3.51797)
(11.6986 8.72969e-20 3.33417)
(11.9473 -3.84979e-22 3.67229)
(11.8876 -1.12362e-19 3.48327)
(12.1562 -2.98542e-20 3.81769)
(12.0875 5.76871e-20 3.6244)
(12.3758 -1.14155e-19 3.95234)
(12.2975 -1.292e-21 3.75594)
(12.6048 -7.88367e-20 4.07453)
(12.5164 -5.77483e-20 3.87631)
(12.8416 1.47463e-19 4.18272)
(12.743 1.11529e-19 3.98408)
(13.0843 1.39352e-19 4.2756)
(12.9755 2.44336e-19 4.07802)
(13.3307 -2.10241e-19 4.35229)
(13.211 -2.14991e-19 4.15716)
(13.4719 -1.96854e-19 4.22163)
(13.5787 -1.06288e-19 4.40513)
(11.8394 -2.80551e-20 3.29952)
(11.7812 8.97285e-20 3.12467)
(12.0313 -5.2675e-20 3.43512)
(11.9656 -8.76742e-20 3.25609)
(12.2325 8.68454e-20 3.56203)
(12.1589 8.69782e-20 3.3797)
(12.442 5.64039e-20 3.67885)
(12.3601 2.88444e-20 3.49421)
(12.6586 1.37547e-19 3.7843)
(12.5681 2.80524e-20 3.59846)
(12.8809 2.10987e-19 3.87729)
(12.7817 -9.93643e-20 3.6914)
(13.1071 -1.19702e-19 3.95695)
(12.9995 2.90906e-19 3.77219)
(13.3355 -2.01279e-19 4.02273)
(13.2188 -4.43282e-21 3.84021)
(13.4605 -1.8108e-19 3.89576)
(13.5643 -1.35011e-20 4.06829)
(11.7328 -5.50247e-20 2.95473)
(11.6753 7.61932e-20 2.79225)
(11.9105 2.84443e-20 3.08097)
(11.8469 -1.07596e-19 2.91444)
(12.0965 5.56198e-20 3.2001)
(12.0262 1.25e-21 3.03019)
(12.2899 2.75065e-20 3.31096)
(12.2126 2.82144e-20 3.13846)
(12.4897 -2.1027e-22 3.41251)
(12.4052 0 3.23828)
(12.6948 -2.14803e-19 3.50381)
(12.603 1.79817e-19 3.32877)
(12.9039 -1.68762e-20 3.58409)
(12.8048 -4.24728e-19 3.40919)
(13.1155 4.08161e-19 3.65279)
(13.0093 1.78857e-19 3.479)
(13.3281 2.00952e-20 3.70959)
(13.2144 2.08368e-19 3.53778)
(13.4393 -2.23991e-19 3.58596)
(13.5403 -5.88981e-19 3.74915)
(11.7922 2.21646e-20 2.75167)
(11.7299 1.38343e-19 2.59621)
(11.9655 -1.35308e-19 2.86311)
(11.8976 2.03062e-20 2.70426)
(12.1454 -2.68018e-20 2.96772)
(12.0716 7.47634e-20 2.8061)
(12.3311 0 3.06462)
(12.2512 -1.04357e-19 2.90092)
(12.5217 1.84639e-19 3.15302)
(12.4356 2.0241e-19 2.98799)
(12.7162 -3.61532e-20 3.23226)
(12.6238 -2.21415e-20 3.06666)
(12.9133 -2.23262e-19 3.30181)
(12.8148 -2.02957e-19 3.13643)
(13.1119 -2.57489e-20 3.36131)
(13.0074 -5.71858e-22 3.19693)
(13.3108 -3.82233e-20 3.41061)
(13.2 -1.29584e-20 3.24794)
(13.4103 -1.33196e-20 3.28993)
(13.5087 4.43424e-19 3.44515)
(11.8379 1.36314e-19 2.54825)
(11.7718 2.16013e-21 2.39933)
(12.0064 2.35575e-19 2.64645)
(11.9353 5.96449e-20 2.49465)
(12.1803 -4.9128e-21 2.73823)
(12.104 2.06256e-19 2.58411)
(12.3586 1.0338e-19 2.82293)
(12.277 -1.31846e-19 2.66709)
(12.5406 -9.72498e-21 2.89995)
(12.4536 4.04268e-19 2.74303)
(12.7253 -1.93327e-19 2.96882)
(12.633 -4.2489e-19 2.81147)
(12.9117 2.54423e-20 3.0292)
(12.8141 5.69197e-22 2.87208)
(13.0988 1.25151e-20 3.08089)
(12.9962 1.28375e-20 2.92463)
(13.2855 1.25475e-20 3.12382)
(13.1777 -1.21051e-20 2.96901)
(13.3752 1.2528e-20 3.0057)
(13.4709 8.13822e-21 3.15408)
(11.8717 -7.63197e-20 2.34496)
(11.8028 -1.94865e-19 2.20212)
(12.0354 2.97894e-20 2.4313)
(11.962 -2.19338e-21 2.28595)
(12.2033 7.58004e-20 2.5117)
(12.1254 1.03991e-19 2.36434)
(12.3746 1.77059e-19 2.58566)
(12.2921 -1.14466e-21 2.43682)
(12.5486 -2.21472e-20 2.65274)
(12.4615 3.93417e-19 2.50299)
(12.7244 -2.25723e-19 2.71264)
(12.6327 -4.02053e-19 2.56251)
(12.9012 -1.23307e-20 2.76512)
(12.8051 -1.26478e-20 2.61517)
(13.078 -1.24157e-20 2.81008)
(12.9777 1.1923e-20 2.66084)
(13.254 -1.20868e-20 2.84754)
(13.1494 -5.44817e-22 2.69949)
(13.3357 5.87942e-21 2.73158)
(13.4285 -4.38277e-19 2.8741)
(11.8955 -1.18712e-19 2.14213)
(11.8246 -1.99636e-19 2.00487)
(12.0544 7.39381e-20 2.21779)
(11.9796 -4.14816e-20 2.07829)
(12.2166 2.50478e-20 2.28803)
(12.1378 2.71291e-19 2.14674)
(12.3813 2.20987e-19 2.35248)
(12.2986 2.08305e-20 2.20986)
(12.548 3.21135e-21 2.41083)
(12.4613 5.36159e-21 2.26737)
(12.7157 -1.83297e-19 2.46287)
(12.6252 -3.7399e-19 2.31904)
(12.8838 1.22286e-20 2.50847)
(12.7896 1.898e-19 2.36473)
(13.0516 2.40686e-20 2.54758)
(12.9538 -1.1105e-20 2.40438)
(13.2182 1.78706e-20 2.58027)
(13.1168 1.21462e-20 2.43801)
(13.2934 -5.49275e-21 2.46606)
(13.3831 4.27695e-19 2.60358)
(11.911 -1.20331e-19 1.93987)
(11.8389 0 1.80772)
(12.0652 1.61066e-19 2.00587)
(11.9897 -9.7124e-20 1.87166)
(12.222 2.66677e-19 2.06699)
(12.1431 1.0726e-19 1.93112)
(12.3807 -2.00114e-19 2.12295)
(12.2984 3.52411e-19 1.98583)
(12.5407 -3.81552e-19 2.17355)
(12.4549 -3.70154e-19 2.0356)
(12.7012 8.91491e-21 2.21865)
(12.6122 -1.90552e-19 2.08028)
(12.8616 1.65677e-19 2.25818)
(12.7695 3.75181e-19 2.11979)
(13.0213 -2.32956e-20 2.29214)
(12.9263 -1.96909e-19 2.15411)
(13.1797 -1.18133e-20 2.3206)
(13.0818 -1.79025e-19 2.18328)
(13.2497 1.76543e-19 2.20773)
(13.3362 2.32627e-21 2.34102)
(11.9198 2.36778e-20 1.7382)
(11.8472 -9.00178e-20 1.61066)
(12.0697 -1.52009e-19 1.7954)
(11.9941 2.3653e-20 1.66591)
(12.2215 1.95363e-19 1.84826)
(12.143 -1.86059e-19 1.71717)
(12.3747 1.77386e-19 1.89659)
(12.2932 3.87894e-19 1.76427)
(12.5285 -1.74267e-19 1.94024)
(12.4443 -1.89967e-19 1.80706)
(12.6826 1.85349e-19 1.97913)
(12.5957 0 1.84545)
(12.8362 3.05789e-21 2.01324)
(12.7467 8.75735e-21 1.8794)
(12.9889 -3.56456e-19 2.04259)
(12.897 2.75405e-21 1.90893)
(13.14 1.17969e-20 2.06728)
(13.0458 -3.53033e-19 1.93409)
(13.2063 3.71721e-19 1.95528)
(13.2892 1.25317e-19 2.08508)
(11.9235 -8.99213e-20 1.53688)
(11.851 -1.71039e-20 1.41354)
(12.0694 -1.14559e-20 1.58601)
(11.9943 -8.78003e-20 1.46075)
(12.2167 1.18259e-20 1.63134)
(12.1391 1.03497e-20 1.50449)
(12.3648 1.08757e-20 1.67272)
(12.2849 -1.60693e-19 1.54462)
(12.5133 -1.1211e-20 1.71008)
(12.4311 1.64852e-19 1.58105)
(12.6617 -1.80939e-19 1.74335)
(12.5772 1.61638e-19 1.61371)
(12.8093 8.42647e-21 1.77256)
(12.7228 -3.56879e-19 1.64262)
(12.9558 5.9336e-21 1.79774)
(12.8674 1.84493e-19 1.66778)
(13.1007 1.14983e-20 1.81898)
(13.0104 -1.79208e-19 1.68927)
(13.1645 3.58862e-19 1.70745)
(13.2436 5.2231e-19 1.83438)
(11.9237 -1.50055e-20 1.33583)
(11.8518 9.6611e-20 1.21608)
(12.066 -6.53548e-20 1.37749)
(11.9919 -1.6485e-19 1.2558)
(12.2092 -1.66602e-19 1.41587)
(12.1331 -7.23464e-20 1.29255)
(12.3529 -2.59018e-21 1.45088)
(12.2748 -9.17687e-20 1.32623)
(12.4967 3.4198e-19 1.48247)
(12.4168 1.80728e-19 1.35679)
(12.64 -1.9144e-20 1.51061)
(12.5584 3.44618e-19 1.38419)
(12.7825 -1.75947e-19 1.53533)
(12.6993 -3.46978e-19 1.40844)
(12.9237 -5.55768e-21 1.55668)
(12.839 5.30162e-21 1.42959)
(13.0632 1.74825e-19 1.57474)
(12.9771 -5.55339e-21 1.44769)
(13.1257 1.72154e-19 1.46307)
(13.2007 -6.86413e-19 1.58791)
(11.9218 -5.72115e-20 1.13422)
(11.851 9.26746e-20 1.01787)
(12.0609 -1.7193e-19 1.16888)
(11.9882 -1.68759e-19 1.05054)
(12.2005 4.33089e-21 1.20079)
(12.1263 -3.2739e-21 1.08073)
(12.3405 9.63607e-20 1.22988)
(12.2646 8.33057e-20 1.10837)
(12.4802 1.83569e-19 1.25611)
(12.4029 0 1.13345)
(12.6193 8.02069e-21 1.27949)
(12.5407 2.65551e-19 1.15593)
(12.7574 -1.60934e-19 1.30004)
(12.6776 -3.36576e-19 1.17584)
(12.894 5.29752e-21 1.31782)
(12.8133 7.88499e-20 1.19322)
(13.029 -8.12547e-21 1.3329)
(12.9473 2.58593e-21 1.20813)
(13.0914 -5.53786e-21 1.22083)
(13.162 -3.95472e-19 1.34394)
(11.9191 -2.19052e-20 0.932416)
(11.8498 1.58698e-19 0.818386)
(12.0554 4.24553e-21 0.960469)
(11.9847 -2.59992e-19 0.844324)
(12.1921 7.7745e-20 0.98627)
(12.1201 1.67339e-19 0.868278)
(12.3289 -1.55323e-20 1.00978)
(12.2557 -5.83384e-21 0.890206)
(12.4652 8.42367e-20 1.03098)
(12.3911 -5.05227e-21 0.910085)
(12.6008 -8.8137e-20 1.04989)
(12.5258 7.91217e-20 0.927917)
(12.7352 -9.04887e-20 1.06653)
(12.6595 -1.75146e-19 0.943718)
(12.8681 7.60157e-20 1.08095)
(12.7918 8.03204e-20 0.957529)
(12.9994 5.23241e-21 1.09322)
(12.9225 1.21412e-22 0.969402)
(13.0629 8.23505e-20 0.97957)
(13.1285 1.71769e-21 1.10225)
(11.9171 -8.57096e-20 0.72803)
(11.8495 1.60205e-19 0.616961)
(12.0512 -9.24602e-20 0.749745)
(11.9826 -1.69818e-19 0.636399)
(12.1855 8.15328e-20 0.769703)
(12.1161 7.30171e-20 0.65434)
(12.3197 4.90858e-21 0.78788)
(12.2495 5.42812e-21 0.670758)
(12.4533 -1.02366e-20 0.804271)
(12.3826 7.79055e-20 0.685641)
(12.5861 -1.025e-20 0.818885)
(12.5149 -8.00383e-20 0.698993)
(12.7177 1.30509e-22 0.83175)
(12.6461 -5.193e-21 0.710829)
(12.8478 2.46589e-21 0.842906)
(12.7759 -7.55074e-20 0.721178)
(12.9761 7.92401e-20 0.852409)
(12.9041 -9.20518e-22 0.730078)
(13.0417 1.61485e-19 0.737699)
(13.1024 -1.35107e-19 0.859419)
(11.9168 7.37174e-20 0.523495)
(11.8513 3.79211e-20 0.412813)
(12.0492 9.64631e-24 0.539062)
(11.9831 4.33115e-20 0.425881)
(12.1818 -5.05611e-21 0.553373)
(12.1152 0 0.437939)
(12.3141 8.0314e-20 0.566413)
(12.2472 -5.05314e-21 0.448972)
(12.4458 6.24718e-21 0.578181)
(12.3787 8.6396e-20 0.458975)
(12.5765 -7.48055e-20 0.588687)
(12.5094 -7.67463e-20 0.467952)
(12.706 -8.2783e-20 0.597952)
(12.6389 1.20589e-21 0.47592)
(12.8339 -7.89318e-20 0.606006)
(12.767 -4.33423e-20 0.482902)
(12.9599 8.25546e-20 0.612891)
(12.8934 9.06671e-22 0.488929)
(13.0291 4.78205e-21 0.494138)
(13.084 5.23545e-20 0.617997)
(11.9195 6.74859e-21 0.312242)
(11.7575 -5.70957e-20 0.205087)
(12.0509 4.32688e-20 0.321665)
(11.8865 6.32329e-20 0.211798)
(12.1824 0 0.330315)
(12.0159 0 0.217989)
(12.3135 1.23441e-21 0.338186)
(12.1452 0 0.223653)
(12.444 1.20255e-21 0.34528)
(12.2741 5.78815e-23 0.228788)
(12.5735 1.23716e-21 0.351608)
(12.4022 0 0.233398)
(12.7016 4.16267e-20 0.357186)
(12.5293 5.81685e-23 0.23749)
(12.8282 3.85523e-20 0.362037)
(12.655 4.15762e-20 0.241079)
(12.953 -7.9362e-20 0.366199)
(12.7791 -8.27426e-22 0.244178)
(12.9124 -7.89678e-20 0.24687)
(13.0759 -5.03138e-20 0.369259)
(11.7239 9.0475e-22 0.103181)
(11.8508 1.88314e-20 0.106635)
(11.9779 0 0.109815)
(12.1049 -1.20884e-21 0.112718)
(12.2314 -1.17765e-21 0.115343)
(12.3571 -1.21174e-21 0.117693)
(12.4817 3.15366e-23 0.119772)
(12.6048 1.18099e-21 0.121586)
(12.7263 0 0.12315)
(12.8459 -4.41931e-20 0.124271)
(13.527 3.66927e-19 6.27023)
(13.6762 1.87531e-19 6.0424)
(13.5816 1.90307e-19 5.79886)
(13.8619 0 6.07999)
(13.7818 1.0945e-20 5.83834)
(13.9511 0 5.86856)
(14.0499 0 6.10704)
(13.706 1.1106e-20 5.58913)
(13.614 0 5.36692)
(13.8716 1.10679e-20 5.62027)
(13.7935 4.58327e-22 5.39978)
(13.945 0 5.42515)
(14.039 0 5.64393)
(13.7182 -1.0891e-20 5.17247)
(13.6284 -1.75203e-19 4.96774)
(13.8672 -1.08575e-20 5.19876)
(13.7907 1.64173e-19 4.99557)
(13.9276 -3.25001e-19 5.01726)
(14.0175 -7.76824e-21 5.2194)
(13.7159 2.42165e-21 4.78617)
(13.6281 -1.58493e-19 4.59594)
(13.8511 -1.51993e-19 4.80873)
(13.7759 1.88785e-19 4.61986)
(13.9007 -3.30181e-19 4.63868)
(13.9873 -3.17914e-19 4.8269)
(13.7017 3.37011e-20 4.4253)
(13.6157 5.18888e-21 4.2472)
(13.8253 1.22291e-20 4.44491)
(13.7513 9.59098e-21 4.26798)
(13.8657 2.78409e-21 4.28451)
(13.9497 1.34429e-19 4.46106)
(13.6776 -1.64303e-20 4.08585)
(13.5933 -3.54949e-19 3.91799)
(13.7914 0 4.10305)
(13.7184 3.4344e-19 3.9362)
(13.824 3.23756e-19 3.95082)
(13.9057 -7.71069e-21 4.11752)
(13.6453 8.84944e-21 3.76455)
(13.5626 -7.96998e-21 3.6054)
(13.7506 6.75308e-19 3.77975)
(13.6788 1.3454e-20 3.62146)
(13.7768 3.31642e-19 3.63447)
(13.8564 4.45053e-19 3.79276)
(13.6064 -3.13383e-21 3.45872)
(13.5254 3.46789e-19 3.30701)
(13.7045 -3.42288e-19 3.47221)
(13.6338 -6.68266e-19 3.32122)
(13.7253 3.21297e-19 3.33284)
(13.8029 1.18536e-19 3.48396)
(13.5624 -3.26042e-19 3.16608)
(13.4831 -3.22502e-19 3.02074)
(13.6541 2.75321e-24 3.17809)
(13.5848 -7.09679e-21 3.03335)
(13.6706 3.29146e-19 3.04373)
(13.7461 4.36239e-19 3.18873)
(13.5145 2.69923e-21 2.88472)
(13.4374 -1.85745e-20 2.74484)
(13.6007 3.26173e-19 2.8954)
(13.5331 1.35962e-20 2.75602)
(13.614 -3.06648e-19 2.7653)
(13.6872 0 2.90501)
(13.4643 -7.52795e-21 2.61297)
(13.3895 3.2681e-19 2.47773)
(13.5457 -6.31013e-19 2.62246)
(13.4802 -3.2692e-19 2.48763)
(13.5567 -3.16546e-19 2.49588)
(13.6274 -2.97298e-19 2.63111)
(13.4133 4.98743e-21 2.3493)
(13.3412 7.53209e-21 2.21797)
(13.4905 -4.84402e-21 2.35771)
(13.4273 -1.09036e-22 2.2267)
(13.5001 2.2246e-21 2.23402)
(13.5679 -6.77191e-21 2.36545)
(13.3627 2.39525e-21 2.09236)
(13.2936 2.96753e-19 1.9642)
(13.4363 7.10563e-21 2.09978)
(13.3759 -2.96574e-19 1.97186)
(13.4454 2.91076e-19 1.97831)
(13.51 8.07541e-21 2.10667)
(13.314 -4.30417e-21 1.84071)
(13.2482 -2.86336e-19 1.71517)
(13.3844 -1.24346e-20 1.8472)
(13.3272 -1.23124e-20 1.72181)
(13.3939 5.80965e-19 1.72744)
(13.455 3.84368e-19 1.85329)
(13.2683 -2.9783e-19 1.59336)
(13.2064 -8.92094e-19 1.4696)
(13.3361 5.88874e-19 1.59897)
(13.2825 3.04147e-19 1.47528)
(13.3468 8.57376e-19 1.4801)
(13.404 1.78221e-19 1.60428)
(13.2273 -2.86264e-19 1.34853)
(13.1695 -2.94159e-19 1.22631)
(13.2928 5.72867e-19 1.35327)
(13.2433 1.71908e-21 1.23105)
(13.3056 5.76705e-19 1.2351)
(13.3584 5.54511e-19 1.35779)
(13.192 -1.10412e-21 1.10602)
(13.1391 -1.38153e-19 0.983871)
(13.2557 -1.10234e-21 1.10993)
(13.2109 -5.1129e-23 0.987677)
(13.2716 -1.35138e-19 0.990927)
(13.3194 5.11946e-20 1.11367)
(13.1644 -1.38701e-19 0.862356)
(13.1163 -1.42168e-19 0.741123)
(13.2265 -1.35871e-19 0.865404)
(13.1867 1.61323e-21 0.744015)
(13.2462 -6.86267e-21 0.746511)
(13.2888 -1.33061e-19 0.868334)
(13.145 -6.11873e-24 0.620149)
(13.1026 5.06497e-23 0.496194)
(13.2062 1.33993e-19 0.622383)
(13.172 6.53669e-20 0.498126)
(13.2307 7.14405e-20 0.499742)
(13.2674 1.78536e-19 0.624533)
(13.1361 6.65768e-20 0.370493)
(12.9845 -3.1888e-20 0.24823)
(13.1965 1.14364e-21 0.371739)
(13.0526 9.89543e-20 0.249101)
(13.1103 -6.52101e-20 0.24988)
(13.257 -3.80792e-20 0.372945)
(12.9047 1.56353e-22 0.124685)
(12.9636 3.28582e-20 0.12509)
(13.0226 -1.85474e-22 0.125514)
(14.2588 0 5.90152)
(14.3818 1.02526e-20 5.66537)
(14.2202 -1.16394e-20 5.45538)
(14.726 8.29747e-20 5.64939)
(14.5148 -7.19661e-20 5.45953)
(15.0617 9.65679e-21 5.59517)
(14.8408 1.54937e-19 5.43163)
(15.1652 -1.32074e-19 5.36915)
(14.3258 -9.45193e-20 5.2412)
(14.1758 1.77399e-19 5.04448)
(14.6385 -1.72966e-21 5.23446)
(14.4421 -1.7902e-19 5.05198)
(14.9493 1.47769e-20 5.19864)
(14.7399 2.3151e-19 5.03518)
(15.2518 1.40221e-21 5.13331)
(15.0417 -1.44636e-19 4.99152)
(15.5403 1.24852e-19 5.04021)
(15.3321 7.19747e-20 4.9215)
(15.6069 5.42176e-20 4.82703)
(14.2666 9.87671e-20 4.84791)
(14.1263 3.94208e-19 4.66324)
(14.5511 5.36638e-20 4.84622)
(14.3686 -2.43844e-19 4.67223)
(14.8366 7.55792e-20 4.82167)
(14.6407 3.37754e-19 4.66213)
(15.1189 -7.69745e-20 4.77357)
(14.9194 6.6219e-20 4.63061)
(15.3938 0 4.70282)
(15.1916 -2.01988e-19 4.5777)
(15.6572 0 4.61103)
(15.4543 6.44688e-20 4.50454)
(15.9059 2.93239e-21 4.50026)
(15.7061 4.55324e-22 4.41267)
(15.9447 2.99855e-21 4.30403)
(14.2046 5.75268e-20 4.48099)
(14.0724 1.93606e-19 4.30679)
(14.4647 3.77305e-20 4.48236)
(14.2943 -1.61336e-19 4.31648)
(14.7273 3.33178e-19 4.46528)
(14.5442 1.79902e-19 4.31078)
(14.9892 -5.61432e-20 4.42903)
(14.8016 1.46864e-19 4.28767)
(15.2473 -1.41979e-19 4.37407)
(15.0552 -2.11207e-19 4.24695)
(15.4987 6.638e-20 4.30139)
(15.303 6.60548e-20 4.18928)
(15.7407 4.65621e-22 4.21231)
(15.5439 1.8216e-23 4.11562)
(15.9711 -2.81615e-21 4.10853)
(15.7763 0 4.02727)
(15.9981 2.72334e-22 3.92581)
(14.14 -2.25609e-20 4.13633)
(14.0147 -7.06318e-21 3.97112)
(14.3794 -2.09546e-20 4.1397)
(14.2193 -1.86687e-19 3.98112)
(14.6217 -1.01989e-20 4.12794)
(14.4499 -1.67937e-19 3.97854)
(14.8648 -4.25276e-21 4.10033)
(14.6884 3.01393e-19 3.96158)
(15.1063 -4.34036e-21 4.0571)
(14.925 -2.84458e-19 3.92996)
(15.3439 -4.47259e-22 3.99883)
(15.1578 1.33593e-19 3.88404)
(15.5755 -4.56469e-22 3.92636)
(15.3864 -4.57362e-22 3.82441)
(15.7993 3.15864e-21 3.84083)
(15.6094 0 3.75191)
(15.8251 1.29608e-22 3.66764)
(14.0731 -1.67215e-19 3.81046)
(13.9537 1.8265e-19 3.65301)
(14.2947 -3.37686e-19 3.8152)
(14.1435 -3.54231e-19 3.66307)
(14.5195 1.42089e-19 3.80739)
(14.3575 -1.61579e-19 3.66274)
(14.7459 2.73254e-20 3.78636)
(14.5796 3.04026e-19 3.65046)
(14.972 -1.52689e-19 3.75217)
(14.8008 -2.89209e-19 3.62586)
(15.1961 1.36621e-19 3.70516)
(15.0197 1.36878e-19 3.58914)
(15.4164 0 3.64583)
(15.2361 1.18403e-19 3.54064)
(15.6313 -3.09498e-21 3.57495)
(15.449 -1.16188e-19 3.48088)
(15.6568 9.77932e-20 3.41064)
(14.0045 1.09214e-20 3.50057)
(13.8903 1.82119e-19 3.34981)
(14.2106 -1.78199e-19 3.5062)
(14.0673 -1.78496e-19 3.35974)
(14.4203 -4.76306e-21 3.50137)
(14.267 5.03427e-21 3.36105)
(14.6319 -7.09003e-21 3.48544)
(14.4747 1.46911e-19 3.35236)
(14.8443 -2.27371e-21 3.45839)
(14.6823 -2.82037e-19 3.33328)
(15.0558 1.18626e-19 3.42038)
(14.8886 1.35036e-19 3.30389)
(15.265 4.60526e-21 3.3717)
(15.0937 2.57678e-21 3.26439)
(15.4707 -1.76649e-20 3.31286)
(15.2967 -1.12762e-19 3.21509)
(15.4962 2.09195e-19 3.1565)
(13.9346 0 3.20427)
(13.8254 0 3.05926)
(14.1275 5.04253e-21 3.21047)
(13.9912 0 3.06893)
(14.3239 1.5718e-19 3.20789)
(14.1785 -4.76661e-21 3.07141)
(14.5227 -1.25237e-19 3.19596)
(14.3737 1.55502e-19 3.0655)
(14.7227 -1.50943e-19 3.1746)
(14.5693 -2.87749e-19 3.0508)
(14.9228 1.91504e-20 3.14388)
(14.7643 1.3836e-19 3.02734)
(15.1218 -1.15076e-19 3.10395)
(14.959 -1.2165e-19 2.9952)
(15.3185 1.12455e-19 3.05511)
(15.1527 -1.05759e-19 2.95456)
(15.3442 2.21772e-19 2.90574)
(13.8644 0 2.91947)
(13.7598 1.81356e-19 2.77942)
(14.0457 -9.93384e-21 2.92597)
(13.916 5.19044e-21 2.78869)
(14.2306 -1.01454e-20 2.92511)
(14.0925 -5.27292e-21 2.79199)
(14.418 -1.10815e-21 2.91635)
(14.2767 -1.45443e-19 2.78825)
(14.6071 -1.13156e-21 2.89959)
(14.4617 2.79494e-19 2.77708)
(14.797 2.17216e-23 2.87482)
(14.6467 -2.62789e-19 2.75844)
(14.9866 -1.12393e-19 2.84211)
(14.8321 2.45799e-19 2.73235)
(15.1749 -1.06844e-21 2.80166)
(15.0172 -2.3325e-19 2.69892)
(15.2011 1.11534e-20 2.65834)
(13.7946 1.9074e-19 2.64443)
(13.6947 1.80492e-19 2.50865)
(13.9659 1.02012e-20 2.651)
(13.8425 1.60917e-19 2.51741)
(14.1407 -1.40681e-19 2.65141)
(14.0095 2.28053e-21 2.52122)
(14.3182 1.32503e-19 2.64517)
(14.1841 -2.98426e-19 2.51914)
(14.4977 2.38974e-20 2.63214)
(14.3598 2.87546e-19 2.51078)
(14.6784 -2.26117e-20 2.61227)
(14.536 -2.69465e-19 2.49607)
(14.8595 1.32859e-19 2.58558)
(14.713 2.51849e-19 2.47501)
(15.0401 -2.26229e-19 2.55217)
(14.8904 -1.21197e-19 2.44761)
(15.0673 -1.11064e-19 2.41402)
(13.7265 1.50389e-19 2.37762)
(13.6313 -2.82771e-21 2.2455)
(13.889 1.55375e-19 2.38407)
(13.7717 1.56926e-19 2.25365)
(14.0549 -1.53377e-19 2.38537)
(13.9304 1.45161e-19 2.25772)
(14.2237 -1.5284e-19 2.38109)
(14.0967 -1.58093e-19 2.25685)
(14.3947 -1.91153e-22 2.37107)
(14.2643 -1.39086e-19 2.2507)
(14.5673 -1.9521e-22 2.35523)
(14.4326 -1.32624e-22 2.2392)
(14.7408 0 2.33356)
(14.6021 0 2.22229)
(14.9145 -3.41201e-21 2.3061)
(14.7726 1.80656e-21 2.19997)
(14.9432 1.0508e-19 2.17231)
(13.6611 1.68801e-22 2.11771)
(13.5707 -6.28543e-21 1.98857)
(13.8159 1.45606e-19 2.12388)
(13.7048 -1.5737e-19 1.99605)
(13.9741 1.45471e-19 2.12576)
(13.8563 1.51614e-19 2.00015)
(14.1353 -1.44603e-19 2.12295)
(14.0153 -1.46738e-19 2.00014)
(14.2989 -1.42231e-19 2.11533)
(14.1757 -1.38338e-19 1.99572)
(14.4643 6.4294e-23 2.10281)
(14.3372 1.30531e-19 1.9868)
(14.631 1.80981e-21 2.08533)
(14.5002 0 1.97333)
(14.7984 1.10617e-19 2.0629)
(14.6645 1.13474e-19 1.95528)
(14.8294 1.76839e-21 1.93267)
(13.5996 -1.61853e-19 1.86319)
(13.5141 -3.30106e-19 1.73649)
(13.7478 -1.58393e-19 1.86897)
(13.6427 -6.6889e-21 1.74326)
(13.8993 -1.41832e-19 1.87117)
(13.7882 -1.45691e-19 1.74722)
(14.0539 -1.40528e-19 1.86947)
(13.9408 -1.18267e-21 1.74779)
(14.211 1.34904e-19 1.86375)
(14.0952 4.29756e-21 1.7447)
(14.3701 1.33478e-19 1.85393)
(14.2507 1.33709e-19 1.73787)
(14.5309 1.11825e-19 1.83995)
(14.4079 -1.17342e-19 1.72724)
(14.6927 4.44905e-21 1.82179)
(14.5668 2.27745e-19 1.71278)
(14.7267 -1.12216e-19 1.69448)
(13.543 -1.78436e-19 1.61301)
(13.4628 -6.4598e-19 1.48796)
(13.6856 9.57465e-21 1.6183)
(13.5868 3.1188e-19 1.49394)
(13.8315 -4.1211e-21 1.62062)
(13.7271 -5.03097e-21 1.49764)
(13.9804 1.47286e-19 1.61973)
(13.8744 1.43303e-19 1.49856)
(14.1319 0 1.61553)
(14.0235 -1.33614e-19 1.49648)
(14.2856 -1.17546e-19 1.60793)
(14.1739 4.88192e-22 1.49134)
(14.4412 -6.47795e-21 1.59687)
(14.3263 -1.20268e-19 1.48307)
(14.5982 1.15956e-19 1.58233)
(14.4805 1.17922e-19 1.47163)
(14.636 1.6491e-21 1.45701)
(13.4928 -1.70207e-19 1.36532)
(13.418 -2.48164e-19 1.2417)
(13.6307 3.04315e-19 1.37)
(13.5382 8.58658e-20 1.24682)
(13.7718 1.42675e-19 1.37227)
(13.6741 1.46786e-19 1.25013)
(13.9159 -1.38308e-19 1.37195)
(13.817 1.29406e-19 1.25121)
(14.0627 -1.36234e-19 1.36892)
(13.9618 -2.67969e-19 1.24989)
(14.2119 4.99528e-22 1.36314)
(14.108 5.02867e-22 1.2461)
(14.363 1.75178e-21 1.35452)
(14.2563 0 1.23979)
(14.5159 3.44121e-21 1.34305)
(14.4065 -1.06011e-19 1.23091)
(14.5584 1.04217e-19 1.21946)
(13.4501 5.34929e-21 1.11996)
(13.3812 1.55585e-19 0.996348)
(13.5841 -7.70419e-20 1.12396)
(13.4983 -7.83347e-20 1.00056)
(13.7213 1.3282e-19 1.12606)
(13.6308 -1.1395e-21 1.00336)
(13.8615 5.4881e-21 1.1261)
(13.7701 1.36839e-19 1.00445)
(14.0045 -1.34067e-19 1.124)
(13.9114 -1.96693e-19 1.00366)
(14.1499 2.59397e-24 1.11972)
(14.0542 1.19941e-19 1.00095)
(14.2975 -1.08002e-19 1.11318)
(14.1992 -5.80868e-20 0.996274)
(14.4469 -7.54368e-21 1.10436)
(14.3463 -1.122e-19 0.989594)
(14.4953 1.55142e-19 0.980897)
(13.4164 7.63269e-20 0.873298)
(13.3537 7.72482e-20 0.750524)
(13.5474 -2.33562e-21 0.876509)
(13.4685 -2.25411e-21 0.753771)
(13.6816 -2.60834e-22 0.878277)
(13.5983 -1.7753e-21 0.755981)
(13.8187 -6.27626e-20 0.878482)
(13.7349 -6.59105e-20 0.756931)
(13.9587 5.62712e-20 0.877067)
(13.8736 -6.39653e-20 0.756504)
(14.1012 6.45674e-20 0.87398)
(14.0139 1.22972e-19 0.754652)
(14.2459 -6.11284e-20 0.869181)
(14.1563 -5.99941e-20 0.751348)
(14.3926 4.84106e-20 0.862647)
(14.3011 -2.5572e-21 0.746572)
(14.4478 1.02061e-19 0.740306)
(13.393 -5.08661e-22 0.628196)
(13.3368 7.14639e-20 0.502631)
(13.5218 -2.03855e-21 0.630619)
(13.45 -7.02947e-20 0.504834)
(13.6538 -6.79094e-20 0.63202)
(13.578 -9.63321e-22 0.506424)
(13.7888 -6.719e-20 0.632312)
(13.7128 -3.52056e-20 0.507158)
(13.9265 0 0.631453)
(13.8497 0 0.506958)
(14.0669 -4.39349e-22 0.629412)
(13.9883 0 0.505804)
(14.2096 -1.28123e-21 0.626167)
(14.1291 -2.70136e-20 0.503686)
(14.3544 5.00164e-20 0.6217)
(14.2722 2.64375e-20 0.500592)
(14.4175 5.20543e-20 0.496512)
(13.3813 4.66732e-21 0.375097)
(13.2144 7.45802e-20 0.250936)
(13.5088 -7.10267e-20 0.376602)
(13.3256 -7.21691e-20 0.252286)
(13.6394 3.32069e-20 0.377483)
(13.4512 1.70694e-20 0.253164)
(13.773 3.28692e-20 0.37767)
(13.5837 1.61183e-21 0.253556)
(13.9094 0 0.377149)
(13.7183 4.39947e-22 0.253478)
(14.0485 -2.66176e-20 0.375913)
(13.8545 1.4413e-20 0.252918)
(14.19 1.55899e-22 0.37395)
(13.9929 -1.39857e-20 0.251866)
(14.3336 2.7926e-20 0.371254)
(14.1338 2.75268e-20 0.250315)
(14.2767 -1.23073e-20 0.248265)
(13.1435 -2.84976e-22 0.126371)
(13.2677 1.62169e-20 0.127043)
(13.395 -1.48717e-20 0.127486)
(13.5253 -3.15912e-20 0.12767)
(13.6584 1.48812e-20 0.127598)
(13.7941 2.80277e-20 0.127268)
(13.9321 1.31082e-20 0.126674)
(14.0722 -1.27972e-20 0.125816)
)
;

boundaryField
{
    inlet
    {
        type            calculated;
        value           nonuniform 0();
    }
    outlet
    {
        type            calculated;
        value           nonuniform 0();
    }
    flap
    {
        type            calculated;
        value           nonuniform 0();
    }
    upperWall
    {
        type            calculated;
        value           uniform (0 0 0);
    }
    lowerWall
    {
        type            calculated;
        value           nonuniform 0();
    }
    frontAndBack
    {
        type            empty;
        value           nonuniform 0();
    }
    procBoundary1to0
    {
        type            processor;
        value           nonuniform List<vector> 
18
(
(11.5651 3.05016e-20 3.35655)
(11.6577 2.03165e-19 3.15669)
(11.6063 6.11638e-20 2.98675)
(11.5639 5.48552e-20 2.82253)
(11.6262 2.44365e-19 2.63433)
(11.6754 1.04638e-19 2.44436)
(11.7129 0 2.25325)
(11.7405 -2.71891e-19 2.06148)
(11.7598 -1.18681e-19 1.86931)
(11.7724 -2.27804e-20 1.67689)
(11.7796 -1.35933e-19 1.48412)
(11.783 1.42464e-19 1.29102)
(11.784 1.10686e-20 1.09688)
(11.7837 1.65691e-19 0.902172)
(11.7837 1.76652e-19 0.704598)
(11.7848 1.42875e-19 0.506696)
(11.7884 -4.10472e-20 0.302057)
(11.5977 2.02474e-21 0.0994602)
)
;
    }
    procBoundary1to2
    {
        type            processor;
        value           nonuniform List<vector> 
17
(
(16.188 4.28912e-20 3.99205)
(16.0135 3.22352e-21 3.74369)
(15.8395 -3.15867e-21 3.49356)
(15.6716 2.95526e-19 3.24457)
(15.512 1.08142e-19 2.99787)
(15.3611 1.15985e-19 2.75378)
(15.2196 -2.10717e-19 2.51225)
(15.0876 -9.86936e-20 2.27299)
(14.9659 2.11349e-19 2.03562)
(14.855 -1.11999e-19 1.79949)
(14.756 -1.02209e-19 1.56432)
(14.6699 4.79614e-21 1.32874)
(14.5977 1.06037e-19 1.09327)
(14.541 1.49075e-19 0.854372)
(14.501 5.19382e-20 0.616004)
(14.4791 2.15429e-20 0.367824)
(14.2141 -1.18797e-20 0.124693)
)
;
    }
    procBoundary1to3
    {
        type            processor;
        value           nonuniform List<vector> 9((9.71699 -2.58542e-19 4.69831) (10.0167 4.19068e-19 4.63041) (10.2953 -8.31927e-20 4.53224) (10.5503 -7.81465e-20 4.40859) (10.7802 -3.66754e-20 4.26404) (10.9849 -1.44929e-21 4.10278) (11.1645 -6.59322e-20 3.92851) (11.3202 3.35282e-20 3.74438) (11.4532 -9.41815e-20 3.55301));
    }
    procBoundary1to4
    {
        type            processor;
        value           nonuniform List<vector> 
30
(
(9.58394 -4.52759e-19 4.9205)
(9.80146 -5.19929e-19 5.11676)
(10.0247 -5.96001e-19 5.27255)
(10.1789 -7.65319e-20 5.71285)
(10.4768 -7.90102e-20 5.85191)
(10.7608 0 5.94279)
(11.0352 1.49098e-19 6.35735)
(11.3872 1.43881e-19 6.39178)
(11.6987 7.33432e-20 6.38539)
(12.075 1.31389e-19 6.71157)
(12.4213 1.97068e-21 6.6177)
(12.7084 -6.19852e-20 6.50995)
(13.1758 0 6.71191)
(13.4441 3.56219e-19 6.7893)
(13.6244 3.6608e-19 6.54029)