/*--------------------------------*- C++ -*----------------------------------*\
| =========                 |                                                 |
| \\      /  F ield         | OpenFOAM: The Open Source CFD Toolbox           |
|  \\    /   O peration     | Version:  dev                                   |
|   \\  /    A nd           | Web:      www.OpenFOAM.org                      |
|    \\/     M anipulation  |                                                 |
\*---------------------------------------------------------------------------*/
FoamFile
{
    version     2.0;
    format      ascii;
    class       volVectorField;
    location    "1.19";
    object      U;
}
// * * * * * * * * * * * * * * * * * * * * * * * * * * * * * * * * * * * * * //

dimensions      [0 1 -1 0 0 0 0];

internalField   nonuniform List<vector> 
465
(
(9.93279 2.19937e-21 0.0185021)
(9.86421 3.42263e-20 0.0254133)
(9.77137 0 0.029853)
(9.65924 0 0.0344164)
(9.53413 0 0.0391395)
(9.3977 0 0.0440059)
(9.24933 0 0.0491341)
(9.0881 -2.36975e-20 0.0546457)
(8.91333 1.23803e-20 0.0606491)
(8.72433 -1.29391e-20 0.0672519)
(8.52018 0 0.0745725)
(8.29981 0 0.082741)
(8.06198 5.95422e-20 0.0918933)
(7.80536 -6.16488e-20 0.102176)
(7.52844 6.52843e-20 0.113754)
(7.22966 -6.75695e-20 0.126812)
(6.90732 -1.4334e-19 0.14156)
(6.55968 1.48298e-19 0.158224)
(6.18492 -1.96503e-19 0.177033)
(5.78127 3.87641e-20 0.198207)
(5.34713 1.70428e-19 0.221954)
(9.99765 -4.39253e-21 0.0361651)
(9.98968 -4.10263e-20 0.0514486)
(9.9589 9.5034e-21 0.0620477)
(9.90684 1.98966e-20 0.0734419)
(9.83872 -2.06866e-20 0.0857068)
(9.75644 4.32637e-20 0.0987316)
(9.65967 4.53281e-20 0.112733)
(9.54766 2.37194e-20 0.127966)
(9.41985 -1.23128e-20 0.144675)
(9.27565 -1.28407e-20 0.16311)
(9.11426 0 0.183547)
(8.93471 0 0.206296)
(8.73587 1.46575e-20 0.231682)
(8.51644 0 0.260048)
(8.27499 0 0.291771)
(8.00995 0 0.327258)
(7.71963 3.50888e-20 0.366945)
(7.40221 0 0.411284)
(7.0558 3.84975e-20 0.460689)
(6.67838 -6.88745e-19 0.515471)
(6.26802 6.69164e-19 0.575813)
(9.99509 8.77365e-21 0.0363179)
(9.98454 -2.73217e-20 0.0580883)
(9.95628 1.89827e-20 0.0756895)
(9.90929 3.97359e-20 0.0944299)
(9.84734 -4.13061e-20 0.114713)
(9.77241 -4.32063e-20 0.136469)
(9.68445 -9.04472e-20 0.159951)
(9.58283 -2.92129e-22 0.185511)
(9.46708 0 0.213528)
(9.3367 7.68403e-20 0.244403)
(9.19103 0 0.278582)
(9.02925 -2.24602e-19 0.31657)
(8.85038 2.17675e-19 0.358907)
(8.65331 0 0.406177)
(8.43677 7.95324e-21 0.459019)
(8.19939 0 0.518132)
(7.93961 5.60228e-19 0.584266)
(7.65578 -6.51078e-19 0.658233)
(7.34605 -7.58676e-20 0.740827)
(7.0083 0 0.832715)
(6.64029 0 0.93438)
(9.99328 -8.75889e-21 0.0387291)
(9.98012 9.08656e-21 0.0687001)
(9.95163 1.89609e-19 0.0947326)
(9.90581 1.18711e-19 0.121208)
(9.84524 -8.28088e-20 0.149233)
(9.77197 -4.55953e-22 0.179051)
(9.68626 8.9652e-20 0.211025)
(9.58755 -1.41335e-19 0.245644)
(9.47548 1.94991e-19 0.283439)
(9.34971 -5.10763e-20 0.324964)
(9.20974 0 0.370832)
(9.05496 0 0.421729)
(8.88465 0 0.47839)
(8.69795 0 0.541607)
(8.49396 -7.91346e-21 0.612264)
(8.27161 -5.31256e-19 0.691333)
(8.02971 5.13692e-19 0.779868)
(7.76702 7.20742e-20 0.879043)
(7.48213 -7.45228e-20 0.990106)
(7.17323 0 1.11422)
(6.83822 -1.31269e-18 1.25238)
(9.99219 2.79451e-19 0.042711)
(9.97762 -3.63052e-20 0.0795098)
(9.94889 3.76476e-20 0.112714)
(9.90388 -2.36757e-19 0.146009)
(9.84452 -1.64828e-19 0.181069)
(9.77275 2.57469e-19 0.218408)
(9.68894 0 0.258485)
(9.59259 -1.87554e-19 0.301881)
(9.48337 1.94203e-19 0.349223)
(9.36102 -2.04068e-19 0.401162)
(9.22514 -2.14692e-19 0.458428)
(9.07527 4.4005e-19 0.521839)
(8.91084 0 0.592259)
(8.73124 -5.13313e-19 0.670624)
(8.53578 -5.33917e-21 0.757999)
(8.32374 -5.31652e-19 0.855573)
(8.0942 1.08438e-18 0.964629)
(7.84624 -1.14325e-18 1.08661)
(7.57896 1.47314e-18 1.22314)
(7.29109 -1.23956e-18 1.37591)
(6.98089 1.43297e-18 1.54647)
(9.99151 -2.79151e-19 0.0474748)
(9.97636 0 0.0903486)
(9.94771 -1.51099e-19 0.130289)
(9.90355 1.57627e-19 0.170413)
(9.84568 0 0.212566)
(9.77579 -1.71416e-19 0.257426)
(9.69421 0 0.305535)
(9.60052 -9.29471e-20 0.357554)
(9.49448 0 0.41419)
(9.37585 0 0.476183)
(9.24429 1.05149e-19 0.544369)
(9.09941 -4.40947e-19 0.619687)
(8.94081 9.14857e-19 0.703115)
(8.76799 -4.74143e-19 0.795699)
(8.58051 0 0.898661)
(8.37783 0 1.01339)
(8.15927 3.35413e-20 1.14138)
(7.92408 0 1.28427)
(7.67169 -1.46036e-19 1.44399)
(7.40133 -2.43255e-18 1.62267)
(7.11172 2.3379e-18 1.82244)
(9.99115 -2.77959e-19 0.0526175)
(9.9759 -2.88465e-19 0.101197)
(9.94756 -7.53884e-20 0.147514)
(9.90438 -1.57146e-19 0.194265)
(9.84821 -8.18546e-20 0.243267)
(9.7805 0 0.295348)
(9.70148 0 0.351156)
(9.61087 9.26886e-20 0.411435)
(9.50846 9.63054e-20 0.476968)
(9.3941 -4.03282e-19 0.548592)
(9.26742 3.11946e-19 0.627246)
(9.12809 1.08655e-19 0.713958)
(8.97586 4.55351e-19 0.809781)
(8.81036 -4.40026e-19 0.915852)
(8.63129 0 1.03352)
(8.43831 -1.0339e-18 1.16437)
(8.23092 2.08879e-18 1.3101)
(8.00851 -1.09629e-18 1.47251)
(7.77069 0 1.65375)
(7.51701 -2.38102e-18 1.85633)
(7.24659 2.59082e-18 2.08291)
(9.99093 2.77574e-19 0.0579149)
(9.9759 2.52044e-19 0.111965)
(9.94811 -3.37517e-19 0.164327)
(9.90609 4.84501e-22 0.217437)
(9.85182 8.18314e-20 0.273023)
(9.78652 1.69687e-19 0.332041)
(9.7104 -1.76687e-19 0.395249)
(9.62323 3.68679e-19 0.463453)
(9.52489 -9.37384e-20 0.537499)
(9.41528 -7.97971e-19 0.618323)
(9.29406 5.17021e-19 0.706981)
(9.16097 -1.08096e-19 0.804549)
(9.0159 0 0.912126)
(8.85853 -5.81498e-20 1.03094)
(8.68859 0 1.16245)
(8.50595 1.01889e-18 1.30839)
(8.31037 -1.03916e-18 1.47067)
(8.10137 0 1.65127)
(7.87869 -3.48418e-20 1.85253)
(7.64209 -2.39708e-18 2.07728)
(7.391 2.07841e-18 2.32864)
(9.99088 0 0.0632339)
(9.97623 -3.58807e-20 0.122551)
(9.94925 4.11568e-19 0.180647)
(9.90867 1.56123e-19 0.239826)
(9.85655 4.05412e-19 0.301718)
(9.79396 1.69086e-19 0.367379)
(9.72109 1.76359e-19 0.437655)
(9.63777 -3.67784e-19 0.513413)
(9.54396 9.52396e-19 0.595554)
(9.4395 -3.9461e-19 0.685104)
(9.32418 -1.0305e-19 0.783214)
(9.19797 7.51686e-19 0.890998)
(9.06078 -8.84391e-19 1.00961)
(8.91236 9.83084e-19 1.14041)
(8.75238 -1.91164e-18 1.2849)
(8.58086 9.86459e-19 1.44493)
(8.39782 0 1.62256)
(8.20302 0 1.82)
(7.99627 2.23241e-18 2.0398)
(7.77757 -2.17717e-18 2.28506)
(7.54666 2.47335e-18 2.55931)
(9.99109 -5.50255e-19 0.068462)
(9.97687 2.8544e-19 0.132854)
(9.95093 0 0.196375)
(9.9121 3.10027e-19 0.261302)
(9.86238 -1.61656e-19 0.329196)
(9.80283 -3.36271e-19 0.401178)
(9.73357 -1.75189e-19 0.478163)
(9.6545 -1.8216e-19 0.561068)
(9.5657 -3.79224e-19 0.650876)
(9.46684 7.85423e-19 0.748691)
(9.3578 -4.06318e-19 0.855674)
(9.23884 -5.32195e-19 0.972954)
(9.10996 -1.15887e-19 1.1018)
(8.97103 1.01929e-18 1.24372)
(8.82177 1.17297e-19 1.40031)
(8.66222 9.77898e-19 1.57341)
(8.49257 -3.02329e-18 1.76519)
(8.31286 2.00419e-18 1.9781)
(8.12297 6.75085e-20 2.21489)
(7.92324 0 2.47894)
(7.71376 -2.25535e-18 2.77416)
(9.99141 5.49339e-19 0.0735123)
(9.97772 2.83628e-19 0.142794)
(9.95297 0 0.211436)
(9.91605 -4.64073e-19 0.281773)
(9.8689 4.97743e-22 0.355337)
(9.81258 -5.00984e-19 0.433291)
(9.74717 -1.42574e-21 0.5166)
(9.67264 7.22634e-19 0.606212)
(9.58911 -7.50302e-19 0.703214)
(9.49627 3.88107e-19 0.808807)
(9.39411 -8.09963e-19 0.924094)
(9.28298 6.24348e-19 1.05017)
(9.1629 3.24619e-19 1.18843)
(9.03392 -1.12421e-19 1.34054)
(8.89599 -1.04633e-18 1.5082)
(8.74919 2.99302e-18 1.69324)
(8.59375 -2.08887e-18 1.8979)
(8.42995 1.89969e-19 2.12482)
(8.25786 2.02423e-18 2.37694)
(8.07819 -2.12763e-18 2.65786)
(7.89135 -1.35096e-19 2.9719)
(9.99171 3.41663e-20 0.078342)
(9.97871 -6.02869e-19 0.152303)
(9.95531 -7.39068e-20 0.225774)
(9.92043 -7.62998e-20 0.301182)
(9.87603 4.80048e-19 0.380063)
(9.82312 4.98449e-19 0.463626)
(9.76178 1.72637e-19 0.552859)
(9.69204 1.42665e-22 0.648731)
(9.61397 0 0.752419)
(9.52744 -1.92384e-19 0.865194)
(9.43276 -1.99247e-19 0.988118)
(9.3301 8.29613e-19 1.12228)
(9.21936 -1.06709e-18 1.26917)
(9.10081 2.20112e-19 1.43055)
(8.9747 -2.27017e-19 1.60817)
(8.84119 -1.17865e-19 1.80391)
(8.70063 1.21275e-19 2.02008)
(8.55351 -2.11173e-18 2.25946)
(8.40027 4.05673e-18 2.52512)
(8.2416 -1.80857e-18 2.8208)
(8.07834 -1.97278e-18 3.1512)
(9.992 0 0.0829232)
(9.97983 0 0.161313)
(9.95797 0 0.239312)
(9.92534 3.06312e-19 0.319442)
(9.88387 -4.77891e-19 0.403272)
(9.83462 -4.66184e-22 0.492058)
(9.77764 -1.71219e-19 0.586805)
(9.71299 -3.56521e-19 0.688497)
(9.6406 0 0.798364)
(9.56059 5.74341e-19 0.917671)
(9.4736 -1.96082e-19 1.04748)
(9.37961 6.15663e-19 1.18895)
(9.2786 -2.0555e-19 1.34368)
(9.17098 -1.08591e-18 1.51339)
(9.05717 -8.96626e-19 1.69985)
(8.93748 9.18701e-19 1.90501)
(8.81238 -1.65908e-18 2.13122)
(8.68267 3.86784e-18 2.38134)
(8.54921 -1.96999e-18 2.65864)
(8.41256 -5.01536e-19 2.96689)
(8.27399 0 3.31093)
(9.99228 -5.74858e-19 0.0872303)
(9.98104 3.50931e-20 0.169766)
(9.96084 5.10838e-19 0.251978)
(9.93056 2.27455e-19 0.336476)
(9.89213 3.16286e-19 0.424872)
(9.84665 -1.6393e-19 0.518469)
(9.79424 -1.32513e-21 0.618295)
(9.73482 3.52326e-19 0.725351)
(9.66835 0 0.840873)
(9.59528 7.56203e-19 0.96608)
(9.51618 -3.89873e-19 1.10204)
(9.43099 2.02296e-19 1.25004)
(9.33996 1.04248e-18 1.41171)
(9.24366 -8.54359e-19 1.5887)
(9.14254 2.20953e-19 1.78282)
(9.03708 0 1.99607)
(8.92796 1.61915e-18 2.23074)
(8.8162 -1.88335e-18 2.48974)
(8.70303 0 2.7765)
(8.58934 2.44721e-19 3.09486)
(8.4768 0 3.44949)
(9.99258 1.50286e-21 0.0912411)
(9.98234 0 0.177621)
(9.9639 -5.099e-19 0.263728)
(9.93608 2.25594e-19 0.352245)
(9.90076 1.57399e-19 0.444817)
(9.85917 -1.62866e-19 0.542804)
(9.81142 -6.77518e-19 0.647265)
(9.7574 1.3569e-22 0.759197)
(9.69715 -3.61347e-19 0.879804)
(9.63132 -3.75244e-19 1.01028)
(9.56032 0 1.15173)
(9.48409 0 1.30548)
(9.40323 0 1.47315)
(9.31843 4.19815e-19 1.65638)
(9.23016 4.30517e-19 1.85696)
(9.13918 1.773e-18 2.0769)
(9.04636 -1.80526e-18 2.31842)
(8.95285 1.84113e-18 2.58437)
(8.8602 -1.40197e-18 2.87826)
(8.77012 1.41503e-18 3.20393)
(8.68455 -1.89536e-18 3.56578)
(9.96722 0 0.274727)
(9.94202 -4.3545e-19 0.366997)
(9.90997 -1.50274e-19 0.463441)
(9.87239 3.12496e-19 0.565469)
(9.82954 -6.46501e-19 0.674185)
(9.78122 4.09968e-22 0.790563)
(9.72746 6.91505e-19 0.915751)
(9.66915 3.59114e-19 1.05095)
(9.60663 3.69417e-19 1.19731)
(9.53982 2.7157e-21 1.35612)
(9.46967 -7.77263e-19 1.52895)
(9.3969 -4.01095e-19 1.71743)
(9.3221 -4.10934e-19 1.92334)
(9.24635 -4.15832e-19 2.14862)
(9.17062 0 2.39539)
(9.09621 4.297e-19 2.6664)
(9.02501 -1.7537e-18 2.96503)
(8.95965 2.20706e-18 3.29497)
(8.90236 8.74258e-19 3.66026)
(9.94831 -5.61235e-19 0.380714)
(9.9196 -1.45786e-19 0.480704)
(9.88622 3.01863e-19 0.586377)
(9.84858 0 0.69892)
(9.8062 1.5597e-21 0.819299)
(9.75911 0 0.948551)
(9.70853 3.45648e-19 1.08788)
(9.65473 -1.06698e-18 1.23847)
(9.59768 7.28767e-19 1.40157)
(9.53852 7.50098e-19 1.57862)
(9.47802 -7.66494e-19 1.77124)
(9.41691 0 1.98117)
(9.3567 4.02099e-19 2.21023)
(9.29835 0 2.46042)
(9.24326 -8.24009e-19 2.7343)
(9.19391 -4.18717e-19 3.03491)
(9.15332 0 3.36554)
(9.12413 -7.73169e-21 3.72982)
(9.92963 -1.4139e-19 0.496412)
(9.90072 -2.93766e-19 0.605268)
(9.8685 3.02504e-19 0.721194)
(9.83219 3.15179e-19 0.845137)
(9.792 -6.44806e-19 0.977936)
(9.74927 6.66433e-19 1.12075)
(9.70434 -6.83782e-19 1.27485)
(9.65738 0 1.4414)
(9.60941 7.21136e-19 1.62173)
(9.56133 -7.36358e-19 1.8174)
(9.51413 1.13028e-18 2.03)
(9.46953 -3.06143e-18 2.26122)
(9.42845 1.55384e-18 2.51293)
(9.3927 1.96342e-18 2.78741)
(9.36524 7.78376e-19 3.0872)
(9.34883 -1.5892e-18 3.41499)
(9.34656 9.05003e-21 3.77378)
(9.91591 2.84283e-19 0.621866)
(9.88908 -1.88947e-21 0.740717)
(9.85897 6.07003e-19 0.867739)
(9.82588 9.37493e-19 1.0035)
(9.7911 1.24003e-21 1.1491)
(9.75522 -6.59518e-19 1.30589)
(9.71849 0 1.47498)
(9.68188 3.44994e-19 1.65758)
(9.64637 7.07757e-19 1.85512)
(9.61329 -1.80036e-18 2.069)
(9.58411 1.46594e-18 2.30072)
(9.55994 0 2.55197)
(9.54323 0 2.82465)
(9.53694 1.48999e-18 3.12078)
(9.54347 -1.51238e-18 3.44236)
(9.5664 -1.50423e-18 3.7914)
(9.90993 -1.13606e-18 0.757329)
(9.88624 2.91565e-19 0.886836)
(9.86048 -3.02529e-19 1.02491)
(9.83387 6.20527e-19 1.17259)
(9.80716 -1.58982e-18 1.33122)
(9.78065 6.51561e-19 1.50189)
(9.75541 -3.34632e-19 1.6857)
(9.73248 1.01763e-18 1.88386)
(9.71342 -1.03586e-18 2.0976)
(9.69934 0 2.32821)
(9.69172 0 2.57705)
(9.6933 0 2.84558)
(9.70674 -2.15509e-18 3.13531)
(9.73458 1.44261e-18 3.44754)
(9.78051 -2.14106e-18 3.78305)
(9.91375 2.80171e-19 0.902152)
(9.89544 -2.91221e-19 1.04182)
(9.87713 0 1.19085)
(9.85962 3.07916e-19 1.3505)
(9.84326 0 1.52179)
(9.82925 0 1.7057)
(9.81874 -9.80494e-19 1.9032)
(9.81325 1.65789e-18 2.11538)
(9.81383 0 2.3433)
(9.82224 -6.75358e-19 2.58792)
(9.84102 -6.79821e-19 2.85017)
(9.87252 -1.36709e-18 3.13106)
(9.91967 2.74432e-18 3.43111)
(9.98584 -2.0541e-18 3.75002)
(9.92049 -5.7757e-19 1.20358)
(9.91206 5.91497e-19 1.36343)
(9.90572 -6.04262e-19 1.53439)
(9.90272 3.06037e-21 1.71729)
(9.90424 0 1.9129)
(9.91163 -6.40638e-19 2.12214)
(9.92618 0 2.34582)
(9.94969 4.34348e-21 2.58448)
(9.98433 1.97578e-18 2.83859)
(10.0323 0 3.10854)
(10.0965 6.52962e-19 3.39414)
(10.1798 -6.61278e-19 3.69436)
(9.9641 0 1.36978)
(9.96752 0 1.53944)
(9.97519 5.98257e-19 1.72026)
(9.98819 -1.80733e-18 1.91282)
(10.0078 6.13279e-19 2.11782)
(10.0354 0 2.33579)
(10.0728 -7.80402e-21 2.56689)
(10.1219 0 2.81121)
(10.1846 6.27945e-19 3.06856)
(10.2635 -1.27234e-18 3.33821)
(10.3608 0 3.61872)
(10.046 5.74279e-19 1.71449)
(10.0699 5.78202e-21 1.9029)
(10.1011 5.87344e-19 2.10246)
(10.1409 -5.97203e-19 2.31339)
(10.1908 -1.20231e-18 2.53559)
(10.2527 6.01172e-19 2.76879)
(10.3282 3.60075e-22 3.01241)
(10.4193 -6.11914e-19 3.26536)
(10.5278 9.04739e-19 3.52598)
(10.1907 0 2.07614)
(10.2416 0 2.27895)
(10.3028 5.82158e-19 2.49122)
(10.3758 -5.86325e-19 2.71241)
(10.4622 8.79917e-19 2.94167)
(10.5632 8.77872e-19 3.17773)
(10.6803 -8.10288e-21 3.41882)
(10.3367 0 2.23304)
(10.4078 0 2.43465)
(10.4905 0 2.6433)
(10.5858 -5.68284e-19 2.85798)
(10.6948 -5.7025e-19 3.07734)
(10.8184 -5.71099e-19 3.29963)
(10.596 -5.41998e-19 2.56269)
(10.6987 1.38774e-19 2.76284)
(10.8139 1.37803e-19 2.96597)
(10.9423 -3.40259e-20 3.17041)
(10.9207 0 2.84521)
(11.0523 -5.29088e-19 3.03286)
)
;

boundaryField
{
    inlet
    {
        type            fixedValue;
        value           uniform (10 0 0);
    }
    outlet
    {
        type            zeroGradient;
    }
    flap
    {
        type            movingWallVelocity;
        value           nonuniform 0();
    }
    upperWall
    {
        type            noSlip;
    }
    lowerWall
    {
        type            noSlip;
    }
    frontAndBack
    {
        type            empty;
    }
    procBoundary3to0
    {
        type            processor;
        value           nonuniform List<vector> 
34
(
(9.9929 -1.03369e-18 0.0950037)
(9.98374 5.34803e-19 0.184974)
(9.98374 5.34803e-19 0.184974)
(9.97077 -1.35429e-19 0.284952)
(9.97077 -1.35429e-19 0.284952)
(9.95482 -1.38614e-19 0.393249)
(9.95482 -1.38614e-19 0.393249)
(9.9402 0 0.510311)
(9.9402 0 0.510311)
(9.93156 -2.75309e-19 0.63605)
(9.93156 -2.75309e-19 0.63605)
(9.93103 -8.2616e-19 0.770911)
(9.93103 -8.2616e-19 0.770911)
(9.94143 5.49389e-19 0.913459)
(9.93054 -5.61091e-19 1.05394)
(9.93054 -5.61091e-19 1.05394)
(9.9637 2.05471e-21 1.21059)
(9.9637 2.05471e-21 1.21059)
(10.0153 0 1.3694)
(10.0282 5.58963e-19 1.5368)
(10.0282 5.58963e-19 1.5368)
(10.1147 -5.49726e-19 1.69992)
(10.1488 -1.75387e-21 1.88312)
(10.1488 -1.75387e-21 1.88312)
(10.2759 5.47925e-19 2.0392)
(10.2759 5.47925e-19 2.0392)
(10.4256 2.68544e-19 2.1764)
(10.5053 -2.67736e-19 2.36686)
(10.5053 -2.67736e-19 2.36686)
(10.6923 -1.31662e-19 2.4718)
(10.8007 0 2.65767)
(10.8007 0 2.65767)
(11.0154 1.27411e-19 2.71645)
(11.1491 -1.3069e-19 2.88834)
)
;
    }
    procBoundary3to1
    {
        type            processor;
        value           nonuniform List<vector> 9((9.84971 -2.12794e-18 4.14221) (10.0752 -6.84371e-19 4.08695) (10.2854 0 4.00761) (10.479 3.22102e-19 3.90809) (10.6554 -6.0145e-19 3.79208) (10.8147 5.89938e-19 3.66275) (10.9574 0 3.52275) (11.084 -5.46429e-19 3.37423) (11.1956 1.37676e-19 3.21887));
    }
    procBoundary3to4
    {
        type            processor;
        value           nonuniform List<vector> 
19
(
(4.8812 3.61249e-19 0.248463)
(5.82292 -5.32595e-19 0.64172)
(6.23969 -1.55762e-19 1.04607)
(6.4747 0 1.40538)
(6.64626 0 1.73632)
(6.80115 -2.60907e-18 2.04557)
(6.95815 -2.53888e-18 2.33642)
(7.12452 1.88552e-20 2.61013)
(7.30297 2.36827e-18 2.86655)
(7.49414 -2.28918e-18 3.10496)
(7.69728 -2.74272e-19 3.32395)
(7.91134 2.13303e-18 3.5218)
(8.13539 -2.48841e-19 3.69674)
(8.36792 -3.42252e-18 3.84663)
(8.60636 0 3.96987)
(8.8564 0 4.06646)
(9.11035 0 4.13245)
(9.36351 -1.57326e-18 4.16703)
(9.61132 -1.49506e-18 4.16982)
)
;
    }
}


// ************************************************************************* //
