/*--------------------------------*- C++ -*----------------------------------*\
| =========                 |                                                 |
| \\      /  F ield         | OpenFOAM: The Open Source CFD Toolbox           |
|  \\    /   O peration     | Version:  dev                                   |
|   \\  /    A nd           | Web:      www.OpenFOAM.org                      |
|    \\/     M anipulation  |                                                 |
\*---------------------------------------------------------------------------*/
FoamFile
{
    version     2.0;
    format      ascii;
    class       volVectorField;
    location    "0.5";
    object      Force;
}
// * * * * * * * * * * * * * * * * * * * * * * * * * * * * * * * * * * * * * //

dimensions      [1 1 -2 0 0 0 0];

internalField   uniform (0 0 0);

boundaryField
{
    inlet
    {
        type            calculated;
        value           uniform (0 0 0);
    }
    outlet
    {
        type            calculated;
        value           uniform (0 0 0);
    }
    flap
    {
        type            calculated;
        value           nonuniform List<vector> 
33
(
(2.5366 2.61604e-18 -0.097244)
(2.51413 9.22591e-22 -0.192975)
(2.48915 -1.64243e-21 -0.270478)
(2.45876 9.40395e-38 -0.314249)
(2.42195 1.64563e-18 -0.331499)
(2.37712 1.63574e-18 -0.32848)
(2.32366 1.62838e-18 -0.310698)
(2.26154 3.09603e-18 -0.283349)
(2.18747 1.61246e-18 -0.251916)
(2.09604 2.35099e-38 -0.220322)
(1.97933 -1.35016e-18 -0.190365)
(1.82471 3.70413e-19 -0.163268)
(1.60928 5.21377e-19 -0.137836)
(1.28736 2.47184e-18 -0.107142)
(0.741993 1.5596e-18 -0.0586176)
(0.0980442 1.65092e-18 1.06894)
(0.0739308 1.60764e-18 0.852158)
(0.0594128 -2.27385e-19 0.672051)
(0.694665 -2.95223e-18 -0.0261113)
(0.697379 1.02672e-18 -0.0536475)
(0.706032 -1.3958e-21 -0.0764225)
(0.727077 5.83204e-19 -0.0921199)
(0.76284 8.18028e-23 -0.103192)
(0.813034 7.34684e-40 -0.11078)
(0.874799 3.2973e-18 -0.115124)
(0.942535 4.73625e-23 -0.116128)
(1.00922 -1.66162e-18 -0.114277)
(1.06746 1.63459e-21 -0.110413)
(1.11125 7.50088e-19 -0.105477)
(1.13666 2.42283e-18 -0.100957)
(1.14296 1.65254e-18 -0.0981666)
(1.13276 -1.66902e-18 -0.0964459)
(1.10935 -1.71443e-18 -0.0952183)
)
;
    }
    upperWall
    {
        type            calculated;
        value           uniform (0 0 0);
    }
    lowerWall
    {
        type            calculated;
        value           uniform (0 0 0);
    }
    frontAndBack
    {
        type            empty;
    }
}


// ************************************************************************* //
