/*--------------------------------*- C++ -*----------------------------------*\
| =========                 |                                                 |
| \\      /  F ield         | OpenFOAM: The Open Source CFD Toolbox           |
|  \\    /   O peration     | Version:  dev                                   |
|   \\  /    A nd           | Web:      www.OpenFOAM.org                      |
|    \\/     M anipulation  |                                                 |
\*---------------------------------------------------------------------------*/
FoamFile
{
    version     2.0;
    format      ascii;
    class       volVectorField;
    location    "0.5";
    object      Force;
}
// * * * * * * * * * * * * * * * * * * * * * * * * * * * * * * * * * * * * * //

dimensions      [1 1 -2 0 0 0 0];

internalField   uniform (0 0 0);

boundaryField
{
    inlet
    {
        type            calculated;
        value           uniform (0 0 0);
    }
    outlet
    {
        type            calculated;
        value           uniform (0 0 0);
    }
    flap
    {
        type            calculated;
        value           nonuniform List<vector> 
33
(
(3.49206 0 -6.70037)
(3.72576 1.62353e-17 2.25068)
(3.33578 1.47681e-17 -0.271345)
(3.7013 -8.36023e-22 -0.109173)
(3.33293 -5.21055e-22 -0.0754165)
(3.67073 1.504e-19 -0.0216554)
(3.72856 -1.747e-17 -0.0455306)
(3.17357 -1.18408e-18 -0.149431)
(3.88314 1.84694e-17 -0.00911087)
(3.21477 1.22414e-22 -0.0582174)
(3.48686 3.52071e-22 -0.189047)
(2.71521 4.4805e-18 0.660096)
(2.93599 2.08337e-18 -0.27191)
(4.59938 -6.49452e-18 -2.83751)
(10.3731 -6.92162e-17 3.41104)
(-0.0542349 -7.16032e-22 0.313292)
(0.616779 1.11143e-17 0.566107)
(1.05859 1.94692e-17 0.814391)
(0.609127 -1.02856e-38 -1.31881)
(1.05032 -1.50116e-22 0.350497)
(0.835485 -4.8498e-23 -0.0997806)
(0.858125 -1.57048e-17 0.0271339)
(0.981006 -1.6546e-17 7.11373e-06)
(1.03236 -6.97641e-19 -0.0776616)
(1.15088 3.60731e-23 0.0430549)
(1.23382 1.61516e-17 -0.0361478)
(1.46587 -1.8276e-17 -0.0346384)
(1.21383 -2.44503e-19 0.0340016)
(1.64154 1.88108e-17 -0.145277)
(1.11221 1.11402e-17 0.069345)
(1.92693 -1.75825e-22 0.424136)
(2.23256 0 -0.642036)
(4.82013 -4.66972e-21 1.63715)
)
;
    }
    upperWall
    {
        type            calculated;
        value           uniform (0 0 0);
    }
    lowerWall
    {
        type            calculated;
        value           uniform (0 0 0);
    }
    frontAndBack
    {
        type            empty;
    }
}


// ************************************************************************* //
