/*--------------------------------*- C++ -*----------------------------------*\
| =========                 |                                                 |
| \\      /  F ield         | OpenFOAM: The Open Source CFD Toolbox           |
|  \\    /   O peration     | Version:  dev                                   |
|   \\  /    A nd           | Web:      www.OpenFOAM.org                      |
|    \\/     M anipulation  |                                                 |
\*---------------------------------------------------------------------------*/
FoamFile
{
    version     2.0;
    format      ascii;
    class       surfaceScalarField;
    location    "3.7";
    object      meshPhi;
}
// * * * * * * * * * * * * * * * * * * * * * * * * * * * * * * * * * * * * * //

dimensions      [0 3 -1 0 0 0 0];

internalField   nonuniform List<scalar> 
5457
(
-3.47338e-06
-9.0896e-08
-6.56935e-06
-2.56807e-07
-9.17284e-06
-3.93655e-07
-1.12979e-05
-5.00882e-07
-1.29757e-05
-5.81328e-07
-1.42469e-05
-6.38264e-07
-1.51557e-05
-6.75075e-07
-1.57443e-05
-6.95027e-07
-1.60491e-05
-7.01076e-07
-1.60981e-05
-6.95734e-07
-1.59115e-05
-6.80999e-07
-1.55029e-05
-6.58354e-07
-1.48825e-05
-6.28829e-07
-1.40614e-05
-5.93137e-07
-1.30549e-05
-5.51843e-07
-1.18863e-05
-5.05557e-07
-1.05884e-05
-4.55089e-07
-9.20362e-06
-4.01565e-07
-7.78232e-06
-3.46458e-07
-6.37976e-06
-2.91546e-07
-5.00881e-06
-2.36529e-07
-3.7139e-06
-1.81066e-07
-2.5922e-06
-1.29651e-07
-1.6877e-06
-8.7003e-08
-1.0044e-06
-5.41632e-08
-5.28551e-07
-3.05781e-08
-2.31778e-07
-1.50868e-08
-7.53691e-08
-6.11827e-09
-1.48886e-08
-1.86965e-09
-3.07461e-10
-3.48603e-06
-1.81998e-07
-6.59253e-06
-5.14147e-07
-9.20435e-06
-7.88028e-07
-1.13362e-05
-1.00257e-06
-1.30197e-05
-1.16349e-06
-1.42961e-05
-1.27735e-06
-1.52104e-05
-1.35093e-06
-1.58051e-05
-1.3908e-06
-1.61169e-05
-1.40286e-06
-1.61739e-05
-1.39216e-06
-1.59961e-05
-1.36271e-06
-1.55966e-05
-1.31746e-06
-1.49848e-05
-1.25848e-06
-1.4171e-05
-1.18717e-06
-1.31697e-05
-1.10465e-06
-1.20035e-05
-1.01211e-06
-1.07046e-05
-9.11144e-07
-9.31518e-06
-8.04e-07
-7.88562e-06
-6.93601e-07
-6.47065e-06
-5.83461e-07
-5.08715e-06
-4.73242e-07
-3.77739e-06
-3.62333e-07
-2.63776e-06
-2.59334e-07
-1.7182e-06
-1.73794e-07
-1.02289e-06
-1.08023e-07
-5.38289e-07
-6.08526e-08
-2.35951e-07
-2.993e-08
-7.66992e-08
-1.20788e-08
-1.51861e-08
-3.65122e-09
-6.07588e-10
-3.50529e-06
-2.73076e-07
-6.62871e-06
-7.71367e-07
-9.25522e-06
-1.18212e-06
-1.14002e-05
-1.50378e-06
-1.30958e-05
-1.74497e-06
-1.4384e-05
-1.91555e-06
-1.53102e-05
-2.02572e-06
-1.59174e-05
-2.08531e-06
-1.62422e-05
-2.10321e-06
-1.6313e-05
-2.087e-06
-1.6149e-05
-2.04267e-06
-1.57627e-05
-1.9747e-06
-1.51628e-05
-1.88615e-06
-1.43585e-05
-1.77913e-06
-1.33634e-05
-1.6553e-06
-1.21992e-05
-1.51644e-06
-1.08975e-05
-1.36492e-06
-9.50036e-06
-1.2041e-06
-8.05812e-06
-1.03834e-06
-6.62603e-06
-8.72877e-07
-5.2211e-06
-7.0756e-07
-3.88403e-06
-5.4159e-07
-2.71524e-06
-3.87308e-07
-1.77047e-06
-2.59083e-07
-1.05476e-06
-1.60658e-07
-5.55137e-07
-9.02087e-08
-2.4317e-07
-4.41597e-08
-7.89745e-08
-1.76896e-08
-1.56787e-08
-5.2665e-09
-8.71256e-10
-3.53038e-06
-3.63825e-07
-6.67677e-06
-1.02762e-06
-9.3241e-06
-1.57464e-06
-1.14884e-05
-2.00287e-06
-1.32025e-05
-2.32385e-06
-1.45089e-05
-2.55073e-06
-1.54533e-05
-2.6971e-06
-1.60789e-05
-2.77605e-06
-1.64225e-05
-2.79944e-06
-1.65118e-05
-2.77734e-06
-1.63658e-05
-2.71779e-06
-1.59961e-05
-2.62672e-06
-1.54104e-05
-2.50825e-06
-1.46169e-05
-2.36523e-06
-1.36281e-05
-2.19985e-06
-1.24651e-05
-2.0145e-06
-1.11588e-05
-1.81236e-06
-9.75095e-06
-1.59788e-06
-8.29222e-06
-1.37689e-06
-6.8388e-06
-1.15633e-06
-5.40412e-06
-9.3642e-07
-4.02859e-06
-7.16186e-07
-2.82089e-06
-5.11477e-07
-1.84196e-06
-3.41367e-07
-1.09841e-06
-2.11048e-07
-5.78185e-07
-1.18015e-07
-2.53002e-07
-5.74341e-08
-8.20342e-08
-2.28021e-08
-1.63174e-08
-6.67571e-09
-1.09371e-09
-3.56288e-06
-4.54018e-07
-6.73925e-06
-1.28227e-06
-9.41387e-06
-1.96459e-06
-1.16036e-05
-2.49853e-06
-1.3342e-05
-2.89853e-06
-1.46722e-05
-3.18104e-06
-1.56403e-05
-3.36301e-06
-1.62898e-05
-3.46076e-06
-1.66573e-05
-3.48909e-06
-1.67702e-05
-3.46056e-06
-1.66466e-05
-3.38521e-06
-1.62973e-05
-3.27048e-06
-1.57288e-05
-3.12158e-06
-1.49482e-05
-2.94208e-06
-1.39668e-05
-2.7348e-06
-1.28045e-05
-2.50273e-06
-1.14918e-05
-2.24988e-06
-1.007e-05
-1.98182e-06
-8.59012e-06
-1.70586e-06
-7.10913e-06
-1.43069e-06
-5.63615e-06
-1.15698e-06
-4.2117e-06
-8.83716e-07
-2.95469e-06
-6.29989e-07
-1.93242e-06
-4.19339e-07
-1.15352e-06
-2.58348e-07
-6.07189e-07
-1.43791e-07
-2.65317e-07
-6.95289e-08
-8.58293e-08
-2.73447e-08
-1.70858e-08
-7.87586e-09
-1.27684e-09
-3.60264e-06
-5.43408e-07
-6.81574e-06
-1.53459e-06
-9.52381e-06
-2.35084e-06
-1.17446e-05
-2.98925e-06
-1.35127e-05
-3.46719e-06
-1.48718e-05
-3.80436e-06
-1.58687e-05
-4.02109e-06
-1.65468e-05
-4.13687e-06
-1.69427e-05
-4.16937e-06
-1.70833e-05
-4.13365e-06
-1.69859e-05
-4.04174e-06
-1.66601e-05
-3.9026e-06
-1.61114e-05
-3.72255e-06
-1.53451e-05
-3.50594e-06
-1.43716e-05
-3.25626e-06
-1.32094e-05
-2.97717e-06
-1.18884e-05
-2.67354e-06
-1.04494e-05
-2.35209e-06
-8.94386e-06
-2.02161e-06
-7.42952e-06
-1.69253e-06
-5.91074e-06
-1.3662e-06
-4.4283e-06
-1.04167e-06
-3.11289e-06
-7.40982e-07
-2.03933e-06
-4.9175e-07
-1.21862e-06
-3.01818e-07
-6.41443e-07
-1.67173e-07
-2.79867e-07
-8.03195e-08
-9.03047e-08
-3.13084e-08
-1.7971e-08
-8.88779e-09
-1.42783e-09
-3.64942e-06
-6.31734e-07
-6.90568e-06
-1.78383e-06
-9.65292e-06
-2.73216e-06
-1.191e-05
-3.47339e-06
-1.37126e-05
-4.02781e-06
-1.51052e-05
-4.4184e-06
-1.6135e-05
-4.66878e-06
-1.68458e-05
-4.80158e-06
-1.72738e-05
-4.83731e-06
-1.74454e-05
-4.79345e-06
-1.7377e-05
-4.68402e-06
-1.70771e-05
-4.51952e-06
-1.65496e-05
-4.30742e-06
-1.57986e-05
-4.05294e-06
-1.48329e-05
-3.76028e-06
-1.367e-05
-3.43384e-06
-1.23386e-05
-3.07941e-06
-1.08795e-05
-2.70489e-06
-9.34402e-06
-2.32055e-06
-7.79114e-06
-1.9386e-06
-6.2203e-06
-1.56124e-06
-4.6726e-06
-1.18779e-06
-3.29148e-06
-8.42867e-07
-2.16023e-06
-5.57625e-07
-1.29244e-06
-3.40954e-07
-6.80474e-07
-1.87979e-07
-2.96582e-07
-8.97986e-08
-9.54877e-08
-3.47406e-08
-1.89817e-08
-9.74795e-09
-1.5556e-09
-3.7029e-06
-7.18744e-07
-7.00834e-06
-2.02925e-06
-9.79999e-06
-3.10733e-06
-1.2098e-05
-3.94928e-06
-1.39392e-05
-4.57833e-06
-1.53691e-05
-5.02077e-06
-1.64353e-05
-5.30345e-06
-1.71819e-05
-5.45207e-06
-1.76447e-05
-5.48989e-06
-1.78495e-05
-5.43678e-06
-1.7812e-05
-5.30872e-06
-1.75392e-05
-5.11779e-06
-1.70338e-05
-4.87263e-06
-1.62983e-05
-4.57943e-06
-1.534e-05
-4.24317e-06
-1.4175e-05
-3.86909e-06
-1.28314e-05
-3.46394e-06
-1.13493e-05
-3.03687e-06
-9.78047e-06
-2.59965e-06
-8.18475e-06
-2.16621e-06
-6.55705e-06
-1.73985e-06
-4.93892e-06
-1.32041e-06
-3.48688e-06
-9.34595e-07
-2.29319e-06
-6.16434e-07
-1.37425e-06
-3.7559e-07
-7.24246e-07
-2.06245e-07
-3.15651e-07
-9.80713e-08
-1.01516e-07
-3.77297e-08
-2.01544e-08
-1.04997e-08
-1.66683e-09
-3.76271e-06
-8.04209e-07
-7.1229e-06
-2.27014e-06
-9.96364e-06
-3.47518e-06
-1.23066e-05
-4.41527e-06
-1.41899e-05
-5.11674e-06
-1.56601e-05
-5.60914e-06
-1.67653e-05
-5.92253e-06
-1.75497e-05
-6.08559e-06
-1.8049e-05
-6.12425e-06
-1.82884e-05
-6.06068e-06
-1.82824e-05
-5.91281e-06
-1.80372e-05
-5.69429e-06
-1.75537e-05
-5.41503e-06
-1.68332e-05
-5.08225e-06
-1.58813e-05
-4.70183e-06
-1.47131e-05
-4.27994e-06
-1.33555e-05
-3.82439e-06
-1.18483e-05
-3.34559e-06
-1.02434e-05
-2.85682e-06
-8.6017e-06
-2.3737e-06
-6.91406e-06
-1.90083e-06
-5.22264e-06
-1.43879e-06
-3.69666e-06
-1.01589e-06
-2.43743e-06
-6.68234e-07
-1.4643e-06
-4.0595e-07
-7.73388e-07
-2.22231e-07
-3.37635e-07
-1.05344e-07
-1.08674e-07
-4.03927e-08
-2.15624e-08
-1.11878e-08
-1.76966e-09
-3.82848e-06
-8.87943e-07
-7.24849e-06
-2.50592e-06
-1.01424e-05
-3.83463e-06
-1.25335e-05
-4.86985e-06
-1.44616e-05
-5.64112e-06
-1.59743e-05
-6.18131e-06
-1.71202e-05
-6.52363e-06
-1.79437e-05
-6.69964e-06
-1.84801e-05
-6.73781e-06
-1.87542e-05
-6.66256e-06
-1.87796e-05
-6.4937e-06
-1.85612e-05
-6.24649e-06
-1.80989e-05
-5.93216e-06
-1.73922e-05
-5.55905e-06
-1.64457e-05
-5.13408e-06
-1.52731e-05
-4.66445e-06
-1.39004e-05
-4.15911e-06
-1.23668e-05
-3.6298e-06
-1.07245e-05
-3.09125e-06
-9.03516e-06
-2.5607e-06
-7.28647e-06
-2.04421e-06
-5.52126e-06
-1.54332e-06
-3.92045e-06
-1.08737e-06
-2.59397e-06
-7.1374e-07
-1.56423e-06
-4.32689e-07
-8.29513e-07
-2.36434e-07
-3.63651e-07
-1.11923e-07
-1.17478e-07
-4.28752e-08
-2.33378e-08
-1.18587e-08
-1.87119e-09
-3.89986e-06
-9.69829e-07
-7.38423e-06
-2.73616e-06
-1.03346e-05
-4.1848e-06
-1.27765e-05
-5.31163e-06
-1.47513e-05
-6.14971e-06
-1.63078e-05
-6.73527e-06
-1.74953e-05
-7.1046e-06
-1.83581e-05
-7.29202e-06
-1.89315e-05
-7.32842e-06
-1.92395e-05
-7.24033e-06
-1.9295e-05
-7.04943e-06
-1.9102e-05
-6.77257e-06
-1.86592e-05
-6.42238e-06
-1.7965e-05
-6.00844e-06
-1.70227e-05
-5.53882e-06
-1.58449e-05
-5.02189e-06
-1.44567e-05
-4.46782e-06
-1.28969e-05
-3.88965e-06
-1.12175e-05
-3.30359e-06
-9.48102e-06
-2.72832e-06
-7.6724e-06
-2.17145e-06
-5.83524e-06
-1.6356e-06
-4.1606e-06
-1.15063e-06
-2.76625e-06
-7.54357e-07
-1.67767e-06
-4.5691e-07
-8.9568e-07
-2.49608e-07
-3.95708e-07
-1.18243e-07
-1.28853e-07
-4.53724e-08
-2.57296e-08
-1.2571e-08
-1.98221e-09
-3.97655e-06
-1.04985e-06
-7.5293e-06
-2.96065e-06
-1.05387e-05
-4.52503e-06
-1.30331e-05
-5.73943e-06
-1.50559e-05
-6.64095e-06
-1.66569e-05
-7.26923e-06
-1.78861e-05
-7.66356e-06
-1.87877e-05
-7.86087e-06
-1.93969e-05
-7.89432e-06
-1.97371e-05
-7.79243e-06
-1.98208e-05
-7.57867e-06
-1.96509e-05
-7.27149e-06
-1.92256e-05
-6.88499e-06
-1.85422e-05
-6.43008e-06
-1.76032e-05
-5.91615e-06
-1.64202e-05
-5.35283e-06
-1.50174e-05
-4.75157e-06
-1.34332e-05
-4.12677e-06
-1.17193e-05
-3.49596e-06
-9.93848e-06
-2.87911e-06
-8.07351e-06
-2.28534e-06
-6.16853e-06
-1.71842e-06
-4.42277e-06
-1.2082e-06
-2.96071e-06
-7.92202e-07
-1.81091e-06
-4.80226e-07
-9.77131e-07
-2.62853e-07
-4.37365e-07
-1.24951e-07
-1.44554e-07
-4.81901e-08
-2.92573e-08
-1.34238e-08
-2.12046e-09
-4.05843e-06
-1.12811e-06
-7.68308e-06
-3.1795e-06
-1.07531e-05
-4.85491e-06
-1.33011e-05
-6.15224e-06
-1.53724e-05
-7.11346e-06
-1.70179e-05
-7.78163e-06
-1.82881e-05
-8.19892e-06
-1.92274e-05
-8.4047e-06
-1.98705e-05
-8.43423e-06
-2.02407e-05
-8.31786e-06
-2.03498e-05
-8.08075e-06
-2.02005e-05
-7.74298e-06
-1.97903e-05
-7.32016e-06
-1.91162e-05
-6.82467e-06
-1.81799e-05
-6.2673e-06
-1.69925e-05
-5.65905e-06
-1.55776e-05
-5.01275e-06
-1.39728e-05
-4.34408e-06
-1.22295e-05
-3.6718e-06
-1.04101e-05
-3.01691e-06
-8.49509e-06
-2.38992e-06
-6.52866e-06
-1.79567e-06
-4.71612e-06
-1.26353e-06
-3.18732e-06
-8.30138e-07
-1.97377e-06
-5.04863e-07
-1.08246e-06
-2.7776e-07
-4.94991e-07
-1.3307e-07
-1.68115e-07
-5.18824e-08
-3.51415e-08
-1.46291e-08
-2.3263e-09
-4.14563e-06
-1.20494e-06
-7.8452e-06
-3.39325e-06
-1.09765e-05
-5.17435e-06
-1.35782e-05
-6.54919e-06
-1.56978e-05
-7.56602e-06
-1.73873e-05
-8.27108e-06
-1.86974e-05
-8.70928e-06
-1.96727e-05
-8.9223e-06
-2.03475e-05
-8.94724e-06
-2.07448e-05
-8.81608e-06
-2.08764e-05
-8.5556e-06
-2.07447e-05
-8.18747e-06
-2.03472e-05
-7.72891e-06
-1.96809e-05
-7.19381e-06
-1.87473e-05
-6.59448e-06
-1.75573e-05
-5.94342e-06
-1.61342e-05
-5.25483e-06
-1.4515e-05
-4.54565e-06
-1.27501e-05
-3.83565e-06
-1.09011e-05
-3.14664e-06
-8.94558e-06
-2.49025e-06
-6.92648e-06
-1.87219e-06
-5.05325e-06
-1.32093e-06
-3.45989e-06
-8.71833e-07
-2.18049e-06
-5.33819e-07
-1.22534e-06
-2.96667e-07
-5.80209e-07
-1.44306e-07
-2.07251e-07
-5.75473e-08
-4.66983e-08
-1.67196e-08
-2.73883e-09
-4.23286e-06
-1.27393e-06
-8.01256e-06
-3.59263e-06
-1.12089e-05
-5.48243e-06
-1.38638e-05
-6.93382e-06
-1.60313e-05
-8.00185e-06
-1.77639e-05
-8.74103e-06
-1.91128e-05
-9.19839e-06
-2.01222e-05
-9.41775e-06
-2.08263e-05
-9.43782e-06
-2.12478e-05
-9.29194e-06
-2.13986e-05
-9.00838e-06
-2.12816e-05
-8.61048e-06
-2.08946e-05
-8.11707e-06
-2.02351e-05
-7.54367e-06
-1.9305e-05
-6.90421e-06
-1.81154e-05
-6.21273e-06
-1.66896e-05
-5.48487e-06
-1.50642e-05
-4.73872e-06
-1.32886e-05
-3.99493e-06
-1.14227e-05
-3.27578e-06
-9.43978e-06
-2.59373e-06
-7.37952e-06
-1.95498e-06
-5.4538e-06
-1.38671e-06
-3.80011e-06
-9.2284e-07
-2.45462e-06
-5.71952e-07
-1.43083e-06
-3.23794e-07
-7.18714e-07
-1.62301e-07
-2.85294e-07
-6.82072e-08
-7.93693e-08
-2.17954e-08
-4.68718e-09
6.08987e-09
-2.70799e-10
3.08901e-08
-1.73176e-09
9.68263e-08
-6.38466e-09
2.2312e-07
-1.66542e-08
4.22809e-07
-3.47335e-08
6.99627e-07
-6.22101e-08
1.04544e-06
-9.98444e-08
1.43866e-06
-1.47518e-07
1.84428e-06
-2.04378e-07
2.16567e-06
-2.647e-07
2.31165e-06
-3.18847e-07
2.26114e-06
-3.63595e-07
1.99099e-06
-4.00716e-07
1.47604e-06
-4.30246e-07
7.12072e-07
-4.51612e-07
-2.81172e-07
-4.64902e-07
-1.46002e-06
-4.70778e-07
-2.75956e-06
-4.70273e-07
-4.09866e-06
-4.64543e-07
-5.38632e-06
-4.5461e-07
-6.52868e-06
-4.41148e-07
-7.43554e-06
-4.24334e-07
-8.02601e-06
-4.03801e-07
-8.23279e-06
-3.78661e-07
-8.00509e-06
-3.47604e-07
-7.31053e-06
-3.09029e-07
-6.13636e-06
-2.61181e-07
-4.49077e-06
-2.02285e-07
-2.40421e-06
-1.30633e-07
-4.59951e-08
6.21182e-09
-5.48217e-10
3.15572e-08
-3.52115e-09
9.87686e-08
-1.28515e-08
2.27257e-07
-3.33406e-08
4.30285e-07
-6.92886e-08
7.11731e-07
-1.23807e-07
1.06337e-06
-1.98378e-07
1.46304e-06
-2.92738e-07
1.87398e-06
-4.05087e-07
2.20239e-06
-5.24511e-07
2.35248e-06
-6.32124e-07
2.29915e-06
-7.20857e-07
2.02355e-06
-7.94333e-07
1.50013e-06
-8.5305e-07
7.25114e-07
-8.95762e-07
-2.80948e-07
-9.22598e-07
-1.4733e-06
-9.3483e-07
-2.78593e-06
-9.34465e-07
-4.13665e-06
-9.23753e-07
-5.43367e-06
-9.04675e-07
-6.58258e-06
-8.78518e-07
-7.49292e-06
-8.456e-07
-8.08383e-06
-8.05157e-07
-8.28818e-06
-7.55403e-07
-8.0555e-06
-6.93722e-07
-7.35372e-06
-6.16921e-07
-6.1704e-06
-5.21512e-07
-4.514e-06
-4.03963e-07
-2.41547e-06
-2.60885e-07
-9.18547e-08
6.35955e-09
-8.3967e-10
3.23679e-08
-5.36006e-09
1.01089e-07
-1.93033e-08
2.32141e-07
-4.97023e-08
4.39123e-07
-1.02795e-07
7.26218e-07
-1.83103e-07
1.08526e-06
-2.92781e-07
1.49372e-06
-4.31418e-07
1.91392e-06
-5.96274e-07
2.25156e-06
-7.71903e-07
2.40601e-06
-9.30935e-07
2.35045e-06
-1.06217e-06
2.06902e-06
-1.17096e-06
1.53604e-06
-1.25853e-06
7.4826e-07
-1.32293e-06
-2.72799e-07
-1.36423e-06
-1.48115e-06
-1.38418e-06
-2.80945e-06
-1.38562e-06
-4.17434e-06
-1.37173e-06
-5.48306e-06
-1.3453e-06
-6.64055e-06
-1.30812e-06
-7.55601e-06
-1.26058e-06
-8.14851e-06
-1.20148e-06
-8.35109e-06
-1.12814e-06
-8.11353e-06
-1.03666e-06
-7.40409e-06
-9.22307e-07
-6.21066e-06
-7.79909e-07
-4.54203e-06
-6.04231e-07
-2.42966e-06
-3.90254e-07
-1.37406e-07
6.51527e-09
-1.13801e-09
3.32089e-08
-7.20028e-09
1.03473e-07
-2.55764e-08
2.37158e-07
-6.5318e-08
4.48284e-07
-1.34379e-07
7.41484e-07
-2.38538e-07
1.10883e-06
-3.80564e-07
1.52765e-06
-5.59936e-07
1.96001e-06
-7.73101e-07
2.3079e-06
-1.00073e-06
2.46654e-06
-1.20792e-06
2.40967e-06
-1.37953e-06
2.12259e-06
-1.52246e-06
1.57977e-06
-1.63864e-06
7.78551e-07
-1.72539e-06
-2.58497e-07
-1.78264e-06
-1.48408e-06
-1.81241e-06
-2.8295e-06
-1.81814e-06
-4.21011e-06
-1.80372e-06
-5.53212e-06
-1.77253e-06
-6.69971e-06
-1.72674e-06
-7.62169e-06
-1.66667e-06
-8.21696e-06
-1.59066e-06
-8.41861e-06
-1.49516e-06
-8.17665e-06
-1.37503e-06
-7.45962e-06
-1.22406e-06
-6.25571e-06
-1.03548e-06
-4.57402e-06
-8.02434e-07
-2.44642e-06
-5.18333e-07
-1.8251e-07
6.70454e-09
-1.43263e-09
3.41926e-08
-8.97963e-09
1.06268e-07
-3.15001e-08
2.431e-07
-7.98274e-08
4.59211e-07
-1.63388e-07
7.59749e-07
-2.89046e-07
1.13707e-06
-4.60115e-07
1.56835e-06
-6.76001e-07
2.01506e-06
-9.3249e-07
2.37461e-06
-1.20706e-06
2.53767e-06
-1.45841e-06
2.47878e-06
-1.6679e-06
2.18438e-06
-1.84363e-06
1.62916e-06
-1.98819e-06
8.11229e-07
-2.09815e-06
-2.45546e-07
-2.17313e-06
-1.4923e-06
-2.21525e-06
-2.85867e-06
-2.22826e-06
-4.25849e-06
-2.21646e-06
-5.59671e-06
-2.18365e-06
-6.77663e-06
-2.1321e-06
-7.70652e-06
-2.06201e-06
-8.30506e-06
-1.9712e-06
-8.50543e-06
-1.85525e-06
-8.25784e-06
-1.70785e-06
-7.53116e-06
-1.5214e-06
-6.31392e-06
-1.28762e-06
-4.61558e-06
-9.98123e-07
-2.4683e-06
-6.44845e-07
-2.27071e-07
6.92836e-09
-1.70981e-09
3.53139e-08
-1.06265e-08
1.09466e-07
-3.68934e-08
2.49962e-07
-9.28834e-08
4.71865e-07
-1.89257e-07
7.80833e-07
-3.33784e-07
1.16945e-06
-5.3024e-07
1.61463e-06
-7.77993e-07
2.07701e-06
-1.07231e-06
2.44875e-06
-1.38821e-06
2.61538e-06
-1.67928e-06
2.55255e-06
-1.92387e-06
2.24819e-06
-2.13101e-06
1.67731e-06
-2.30374e-06
8.39058e-07
-2.43788e-06
-2.41169e-07
-2.5326e-06
-1.51267e-06
-2.58985e-06
-2.90322e-06
-2.61344e-06
-4.32495e-06
-2.60778e-06
-5.68143e-06
-2.57677e-06
-6.87497e-06
-2.52265e-06
-7.81327e-06
-2.44532e-06
-8.41483e-06
-2.34205e-06
-8.61288e-06
-2.20754e-06
-8.35792e-06
-2.0344e-06
-7.61914e-06
-1.81373e-06
-6.38546e-06
-1.53585e-06
-4.66668e-06
-1.19094e-06
-2.49523e-06
-7.69563e-07
-2.7101e-07
7.17726e-09
-1.95532e-09
3.65295e-08
-1.20717e-08
1.12956e-07
-4.15908e-08
2.57539e-07
-1.04189e-07
4.85888e-07
-2.11541e-07
8.04105e-07
-3.72147e-07
1.20488e-06
-5.90157e-07
1.66468e-06
-8.64928e-07
2.14311e-06
-1.19135e-06
2.52649e-06
-1.54269e-06
2.69465e-06
-1.86882e-06
2.62471e-06
-2.14565e-06
2.30667e-06
-2.38278e-06
1.71615e-06
-2.5835e-06
8.53607e-07
-2.74285e-06
-2.53745e-07
-2.85942e-06
-1.55317e-06
-2.93475e-06
-2.97041e-06
-2.97236e-06
-4.41581e-06
-2.97651e-06
-5.79154e-06
-2.9509e-06
-6.99894e-06
-2.89751e-06
-7.94517e-06
-2.81584e-06
-8.54859e-06
-2.70253e-06
-8.74255e-06
-2.55145e-06
-8.47785e-06
-2.35417e-06
-7.72408e-06
-2.10061e-06
-6.47053e-06
-1.7798e-06
-4.72734e-06
-1.3806e-06
-2.52718e-06
-8.92301e-07
-3.14262e-07
7.42568e-09
-2.15763e-09
3.77385e-08
-1.32598e-08
1.16488e-07
-4.54674e-08
2.65354e-07
-1.13533e-07
5.00495e-07
-2.29951e-07
8.28356e-07
-4.03793e-07
1.24157e-06
-6.39501e-07
1.71594e-06
-9.36439e-07
2.20977e-06
-1.28923e-06
2.60306e-06
-1.67014e-06
2.76943e-06
-2.02665e-06
2.68794e-06
-2.33291e-06
2.35144e-06
-2.59868e-06
1.73657e-06
-2.82726e-06
8.45479e-07
-3.0129e-06
-2.92538e-07
-3.15344e-06
-1.62253e-06
-3.24976e-06
-3.06815e-06
-3.30483e-06
-4.53796e-06
-3.32242e-06
-5.93279e-06
-3.30577e-06
-7.15312e-06
-3.25642e-06
-8.10571e-06
-3.17329e-06
-8.70885e-06
-3.05235e-06
-8.89612e-06
-2.88667e-06
-8.61869e-06
-2.66685e-06
-7.84654e-06
-2.38173e-06
-6.56938e-06
-2.01918e-06
-4.79763e-06
-1.56687e-06
-2.56413e-06
-1.0129e-06
-3.56769e-07
7.62589e-09
-2.30941e-09
3.87608e-08
-1.41608e-08
1.1962e-07
-4.84626e-08
2.72581e-07
-1.2083e-07
5.14362e-07
-2.44403e-07
8.51668e-07
-4.28686e-07
1.27689e-06
-6.78347e-07
1.76494e-06
-9.92782e-07
2.27251e-06
-1.36646e-06
2.67272e-06
-1.77126e-06
2.83265e-06
-2.15368e-06
2.73389e-06
-2.4867e-06
2.37314e-06
-2.77987e-06
1.72859e-06
-3.03623e-06
8.04515e-07
-3.24921e-06
-3.67446e-07
-3.41576e-06
-1.73001e-06
-3.53586e-06
-3.20474e-06
-3.61164e-06
-4.69855e-06
-3.64612e-06
-6.1111e-06
-3.64182e-06
-7.34222e-06
-3.5996e-06
-8.29843e-06
-3.51773e-06
-8.89816e-06
-3.39145e-06
-9.0753e-06
-3.21304e-06
-8.78147e-06
-2.97221e-06
-7.98709e-06
-2.65684e-06
-6.68224e-06
-2.25375e-06
-4.87759e-06
-1.74954e-06
-2.60609e-06
-1.13121e-06
-3.98474e-07
7.69769e-09
-2.41152e-09
3.93083e-08
-1.47817e-08
1.21661e-07
-5.06071e-08
2.77953e-07
-1.26163e-07
5.25522e-07
-2.55077e-07
8.71286e-07
-4.47167e-07
1.30726e-06
-7.07286e-07
1.80722e-06
-1.03491e-06
2.32585e-06
-1.42442e-06
2.72875e-06
-1.8479e-06
2.87618e-06
-2.25207e-06
2.75321e-06
-2.60942e-06
2.36149e-06
-2.92888e-06
1.68149e-06
-3.21297e-06
7.20001e-07
-3.45425e-06
-4.88741e-07
-3.64865e-06
-1.88507e-06
-3.79504e-06
-3.38858e-06
-3.89447e-06
-4.90475e-06
-3.94892e-06
-6.33234e-06
-3.96e-06
-7.57082e-06
-3.92771e-06
-8.52677e-06
-3.84954e-06
-9.11891e-06
-3.71998e-06
-9.28166e-06
-3.53054e-06
-8.96711e-06
-3.27011e-06
-8.14618e-06
-2.92572e-06
-6.80927e-06
-2.48326e-06
-4.96723e-06
-1.92836e-06
-2.653e-06
-1.24706e-06
-4.39319e-07
7.50335e-09
-2.47525e-09
3.89274e-08
-1.51803e-08
1.21581e-07
-5.20571e-08
2.79649e-07
-1.29845e-07
5.31219e-07
-2.62493e-07
8.83464e-07
-4.60035e-07
1.32801e-06
-7.27509e-07
1.83732e-06
-1.06455e-06
2.36351e-06
-1.46555e-06
2.76356e-06
-1.90314e-06
2.89085e-06
-2.32531e-06
2.73543e-06
-2.70474e-06
2.30535e-06
-3.04948e-06
1.58394e-06
-3.36122e-06
5.80899e-07
-3.63161e-06
-6.66785e-07
-3.85539e-06
-2.0971e-06
-4.03018e-06
-3.62786e-06
-4.15571e-06
-5.16342e-06
-4.23273e-06
-6.60204e-06
-4.26172e-06
-7.84318e-06
-4.24171e-06
-8.7938e-06
-4.16931e-06
-9.37322e-06
-4.03821e-06
-9.51648e-06
-3.83918e-06
-9.1763e-06
-3.5604e-06
-8.32408e-06
-3.18811e-06
-6.95049e-06
-2.70742e-06
-5.06647e-06
-2.10309e-06
-2.7048e-06
-1.36028e-06
-4.79235e-07
6.77804e-09
-2.52982e-09
3.6864e-08
-1.54899e-08
1.17819e-07
-5.31474e-08
2.75088e-07
-1.32489e-07
5.27714e-07
-2.67596e-07
8.83276e-07
-4.68638e-07
1.33319e-06
-7.40904e-07
1.84878e-06
-1.08436e-06
2.37878e-06
-1.4935e-06
2.76905e-06
-1.94152e-06
2.86638e-06
-2.3783e-06
2.66907e-06
-2.77762e-06
2.19286e-06
-3.14665e-06
1.42428e-06
-3.48586e-06
3.76148e-07
-3.78588e-06
-9.11717e-07
-4.04015e-06
-2.37506e-06
-4.24488e-06
-3.93023e-06
-4.39835e-06
-5.48083e-06
-4.49989e-06
-6.92511e-06
-4.54874e-06
-8.16296e-06
-4.5428e-06
-9.10209e-06
-4.47773e-06
-9.6627e-06
-4.34645e-06
-9.78068e-06
-4.139e-06
-9.40942e-06
-3.84291e-06
-8.52081e-06
-3.44374e-06
-7.10574e-06
-2.9259e-06
-5.17511e-06
-2.27341e-06
-2.76135e-06
-1.47064e-06
-5.18142e-07
4.93343e-09
-2.63896e-09
3.17354e-08
-1.59751e-08
1.07919e-07
-5.44849e-08
2.60608e-07
-1.35119e-07
5.10019e-07
-2.71859e-07
8.64358e-07
-4.74963e-07
1.31539e-06
-7.5011e-07
1.83412e-06
-1.09793e-06
2.36563e-06
-1.51331e-06
2.7374e-06
-1.96926e-06
2.79117e-06
-2.4173e-06
2.54153e-06
-2.83406e-06
2.01165e-06
-3.22635e-06
1.19082e-06
-3.59271e-06
9.50207e-08
-3.92249e-06
-1.23308e-06
-4.2078e-06
-2.72717e-06
-4.44333e-06
-4.30247e-06
-4.62582e-06
-5.86237e-06
-4.7531e-06
-7.30559e-06
-4.82301e-06
-8.533e-06
-4.83228e-06
-9.45347e-06
-4.77558e-06
-9.98837e-06
-4.64503e-06
-1.00746e-05
-4.42999e-06
-9.66641e-06
-4.1174e-06
-8.73605e-06
-3.69223e-06
-7.27461e-06
-3.1383e-06
-5.29277e-06
-2.43898e-06
-2.82245e-06
-1.57789e-06
-5.55948e-07
5.04696e-10
-2.94472e-09
2.07531e-08
-1.7153e-08
8.78467e-08
-5.7119e-08
2.31005e-07
-1.39322e-07
4.71589e-07
-2.77404e-07
8.18598e-07
-4.81704e-07
1.26511e-06
-7.58491e-07
1.78445e-06
-1.10964e-06
2.32118e-06
-1.53165e-06
2.66264e-06
-1.9948e-06
2.65091e-06
-2.44981e-06
2.33901e-06
-2.88061e-06
1.74932e-06
-3.29532e-06
8.72357e-07
-3.68832e-06
-2.72442e-07
-4.04749e-06
-1.63944e-06
-4.36366e-06
-3.16051e-06
-4.63005e-06
-4.7502e-06
-4.8418e-06
-6.31223e-06
-4.99518e-06
-7.74642e-06
-5.08658e-06
-8.95514e-06
-5.1115e-06
-9.84886e-06
-5.06361e-06
-1.03505e-05
-4.93423e-06
-1.03981e-05
-4.71208e-06
-9.94669e-06
-4.38355e-06
-8.96911e-06
-3.93314e-06
-7.45641e-06
-3.34415e-06
-5.41891e-06
-2.59935e-06
-2.88777e-06
-1.68174e-06
-5.92543e-07
-1.26088e-08
-4.11663e-09
-3.17912e-09
-2.05214e-08
5.01975e-08
-6.33048e-08
1.78418e-07
-1.47806e-07
4.03524e-07
-2.87406e-07
7.35255e-07
-4.92557e-07
1.16921e-06
-7.7021e-07
1.68626e-06
-1.12421e-06
2.21949e-06
-1.55093e-06
2.51056e-06
-2.01696e-06
2.42199e-06
-2.47719e-06
2.04542e-06
-2.92357e-06
1.39245e-06
-3.36153e-06
4.56625e-07
-3.78066e-06
-7.37307e-07
-4.16834e-06
-2.14049e-06
-4.51459e-06
-3.6833e-06
-4.81124e-06
-5.28017e-06
-5.05181e-06
-6.83577e-06
-5.23094e-06
-8.25167e-06
-5.34358e-06
-9.43234e-06
-5.38399e-06
-1.02903e-05
-5.34481e-06
-1.07503e-05
-5.21655e-06
-1.07517e-05
-4.98736e-06
-1.02506e-05
-4.64311e-06
-9.22004e-06
-4.1679e-06
-7.65104e-06
-3.54454e-06
-5.55339e-06
-2.75534e-06
-2.95723e-06
-1.78268e-06
-6.28104e-07
-4.47487e-06
-1.32916e-06
-8.48577e-06
-3.76034e-06
-1.18861e-05
-5.76405e-06
-1.47037e-05
-7.30701e-06
-1.70032e-05
-8.42957e-06
-1.88466e-05
-9.19987e-06
-2.02865e-05
-9.67515e-06
-2.13687e-05
-9.9005e-06
-2.21283e-05
-9.91597e-06
-2.25885e-05
-9.75586e-06
-2.27624e-05
-9.44988e-06
-2.26538e-05
-9.02312e-06
-2.22613e-05
-8.49607e-06
-2.15834e-05
-7.88594e-06
-2.06232e-05
-7.20836e-06
-1.93931e-05
-6.47898e-06
-1.79176e-05
-5.71485e-06
-1.62346e-05
-4.93516e-06
-1.43943e-05
-4.16124e-06
-1.24569e-05
-3.41558e-06
-1.03882e-05
-2.71115e-06
-8.22169e-06
-2.05411e-06
-6.17841e-06
-1.46985e-06
-4.40596e-06
-9.91004e-07
-2.94333e-06
-6.26116e-07
-1.80702e-06
-3.65021e-07
-9.91384e-07
-1.9195e-07
-4.66478e-07
-8.79887e-08
-1.83957e-07
-3.33838e-08
-1.0121e-08
-6.37771e-08
-4.65381e-06
-1.37617e-06
-8.84095e-06
-3.89744e-06
-1.24167e-05
-5.99703e-06
-1.53857e-05
-7.64324e-06
-1.77983e-05
-8.84376e-06
-1.97309e-05
-9.65126e-06
-2.12457e-05
-1.01423e-05
-2.23886e-05
-1.03739e-05
-2.31946e-05
-1.03859e-05
-2.36875e-05
-1.02128e-05
-2.38817e-05
-9.88585e-06
-2.37824e-05
-9.43205e-06
-2.33899e-05
-8.87355e-06
-2.27042e-05
-8.22922e-06
-2.17302e-05
-7.51642e-06
-2.0482e-05
-6.75241e-06
-1.89856e-05
-5.95557e-06
-1.72802e-05
-5.14608e-06
-1.54169e-05
-4.34574e-06
-1.34554e-05
-3.57711e-06
-1.13532e-05
-2.85348e-06
-9.12688e-06
-2.18006e-06
-7.00088e-06
-1.57943e-06
-5.13742e-06
-1.08354e-06
-3.57839e-06
-7.02056e-07
-2.34202e-06
-4.25237e-07
-1.42627e-06
-2.37508e-07
-8.05554e-07
-1.20347e-07
-4.33154e-07
-5.42116e-08
-2.18813e-08
-2.62464e-07
-4.83666e-06
-1.41923e-06
-9.19401e-06
-4.01835e-06
-1.29385e-05
-6.18707e-06
-1.60784e-05
-7.91522e-06
-1.86335e-05
-9.21101e-06
-2.06665e-05
-1.00858e-05
-2.22578e-05
-1.0601e-05
-2.34642e-05
-1.08383e-05
-2.43186e-05
-1.0849e-05
-2.48446e-05
-1.06651e-05
-2.50596e-05
-1.03195e-05
-2.49705e-05
-9.84156e-06
-2.45796e-05
-9.25498e-06
-2.38892e-05
-8.58015e-06
-2.29066e-05
-7.83608e-06
-2.16481e-05
-7.04158e-06
-2.01418e-05
-6.21627e-06
-1.84287e-05
-5.38109e-06
-1.65618e-05
-4.55816e-06
-1.46034e-05
-3.77004e-06
-1.25086e-05
-3.03088e-06
-1.02474e-05
-2.34298e-06
-8.04369e-06
-1.72392e-06
-6.09546e-06
-1.20736e-06
-4.44373e-06
-8.05695e-07
-3.11076e-06
-5.09323e-07
-2.09503e-06
-3.02911e-07
-1.37491e-06
-1.68077e-07
-9.08729e-07
-8.57244e-08
-4.03124e-08
-6.67003e-07
-5.0273e-06
-1.45766e-06
-9.55878e-06
-4.12742e-06
-1.34612e-05
-6.35409e-06
-1.67628e-05
-8.13443e-06
-1.94831e-05
-9.50252e-06
-2.16489e-05
-1.04669e-05
-2.33283e-05
-1.10418e-05
-2.46015e-05
-1.12966e-05
-2.55076e-05
-1.13085e-05
-2.60681e-05
-1.11169e-05
-2.63056e-05
-1.07552e-05
-2.6229e-05
-1.02572e-05
-2.58428e-05
-9.64696e-06
-2.51521e-05
-8.94631e-06
-2.41672e-05
-8.17579e-06
-2.29072e-05
-7.35563e-06
-2.14023e-05
-6.50655e-06
-1.96956e-05
-5.65001e-06
-1.78426e-05
-4.80813e-06
-1.59107e-05
-4.00306e-06
-1.38647e-05
-3.24981e-06
-1.16138e-05
-2.54891e-06
-9.35449e-06
-1.91157e-06
-7.32554e-06
-1.37094e-06
-5.58375e-06
-9.4436e-07
-4.15967e-06
-6.23854e-07
-3.04771e-06
-3.94044e-07
-2.2301e-06
-2.36867e-07
-1.67109e-06
-1.33739e-07
-7.12133e-08
-1.35592e-06
-5.22591e-06
-1.49149e-06
-9.94021e-06
-4.22378e-06
-1.40044e-05
-6.50368e-06
-1.74533e-05
-8.3261e-06
-2.03275e-05
-9.73412e-06
-2.26512e-05
-1.07638e-05
-2.44538e-05
-1.14241e-05
-2.58109e-05
-1.17398e-05
-2.67739e-05
-1.17711e-05
-2.73696e-05
-1.15733e-05
-2.76331e-05
-1.1198e-05
-2.75732e-05
-1.06851e-05
-2.7196e-05
-1.00568e-05
-2.65107e-05
-9.33583e-06
-2.55305e-05
-8.54435e-06
-2.42775e-05
-7.70385e-06
-2.27844e-05
-6.83604e-06
-2.10952e-05
-5.96258e-06
-1.92662e-05
-5.10513e-06
-1.73657e-05
-4.28474e-06
-1.53588e-05
-3.51496e-06
-1.31571e-05
-2.79813e-06
-1.09183e-05
-2.14446e-06
-8.85195e-06
-1.58111e-06
-7.03978e-06
-1.12629e-06
-5.52841e-06
-7.77164e-07
-4.32329e-06
-5.20306e-07
-3.41252e-06
-3.37284e-07
-2.76123e-06
-2.10005e-07
-1.27568e-07
-2.36868e-06
-5.43342e-06
-1.5208e-06
-1.03393e-05
-4.30764e-06
-1.45748e-05
-6.63489e-06
-1.81743e-05
-8.4971e-06
-2.11851e-05
-9.93585e-06
-2.36532e-05
-1.09961e-05
-2.56034e-05
-1.17128e-05
-2.70794e-05
-1.21059e-05
-2.81232e-05
-1.22e-05
-2.87657e-05
-1.20302e-05
-2.90592e-05
-1.1654e-05
-2.90224e-05
-1.11311e-05
-2.86601e-05
-1.04914e-05
-2.79867e-05
-9.75632e-06
-2.70181e-05
-8.94998e-06
-2.57805e-05
-8.0949e-06
-2.43081e-05
-7.21391e-06
-2.26447e-05
-6.32852e-06
-2.08444e-05
-5.45963e-06
-1.89687e-05
-4.6269e-06
-1.6964e-05
-3.84169e-06
-1.47984e-05
-3.10759e-06
-1.26344e-05
-2.43796e-06
-1.06135e-05
-1.85516e-06
-8.80046e-06
-1.37099e-06
-7.23849e-06
-9.86462e-07
-5.95508e-06
-6.95879e-07
-4.95301e-06
-4.84034e-07
-4.20835e-06
-3.32259e-07
-2.29484e-07
-3.73604e-06
-5.65087e-06
-1.54565e-06
-1.07582e-05
-4.37917e-06
-1.51745e-05
-6.74796e-06
-1.8935e-05
-8.64629e-06
-2.20853e-05
-1.01158e-05
-2.46783e-05
-1.11992e-05
-2.67599e-05
-1.19396e-05
-2.83649e-05
-1.23735e-05
-2.95272e-05
-1.25335e-05
-3.02591e-05
-1.24394e-05
-3.06046e-05
-1.2112e-05
-3.05994e-05
-1.1601e-05
-3.0258e-05
-1.09559e-05
-2.96047e-05
-1.02134e-05
-2.86542e-05
-9.39899e-06
-2.744e-05
-8.53544e-06
-2.5997e-05
-7.64767e-06
-2.43678e-05
-6.75646e-06
-2.26026e-05
-5.88171e-06
-2.07563e-05
-5.042e-06
-1.87624e-05
-4.24727e-06
-1.66148e-05
-3.50034e-06
-1.44993e-05
-2.81586e-06
-1.25451e-05
-2.21544e-06
-1.07878e-05
-1.70714e-06
-9.24424e-06
-1.28959e-06
-7.93607e-06
-9.58371e-07
-6.87005e-06
-7.06664e-07
-6.04119e-06
-5.24025e-07
-4.002e-07
-5.48952e-06
-5.87927e-06
-1.56597e-06
-1.11989e-05
-4.43822e-06
-1.58067e-05
-6.84266e-06
-1.97383e-05
-8.77343e-06
-2.30396e-05
-1.02722e-05
-2.57615e-05
-1.13818e-05
-2.79576e-05
-1.21445e-05
-2.96717e-05
-1.25996e-05
-3.09519e-05
-1.27909e-05
-3.18086e-05
-1.27546e-05
-3.22555e-05
-1.25042e-05
-3.23161e-05
-1.2056e-05
-3.20194e-05
-1.14462e-05
-3.13944e-05
-1.07148e-05
-3.04655e-05
-9.89685e-06
-2.92832e-05
-9.03011e-06
-2.78791e-05
-8.14296e-06
-2.62934e-05
-7.25303e-06
-2.4574e-05
-6.37912e-06
-2.27715e-05
-5.53902e-06
-2.08189e-05
-4.74089e-06
-1.87076e-05
-3.98599e-06
-1.66287e-05
-3.28962e-06
-1.4717e-05
-2.67452e-06
-1.30012e-05
-2.14903e-06
-1.1497e-05
-1.70939e-06
-1.02113e-05
-1.34834e-06
-9.13571e-06
-1.06016e-06
-8.26334e-06
-8.38829e-07
-6.79061e-07
-7.65901e-06
-6.1195e-06
-1.58168e-06
-1.16632e-05
-4.48447e-06
-1.64742e-05
-6.91852e-06
-2.05884e-05
-8.87794e-06
-2.40519e-05
-1.04044e-05
-2.69159e-05
-1.15406e-05
-2.9233e-05
-1.23289e-05
-3.1052e-05
-1.28101e-05
-3.2426e-05
-1.30248e-05
-3.33896e-05
-1.30136e-05
-3.39544e-05
-1.28068e-05
-3.41286e-05
-1.24259e-05
-3.39346e-05