/*--------------------------------*- C++ -*----------------------------------*\
| =========                 |                                                 |
| \\      /  F ield         | OpenFOAM: The Open Source CFD Toolbox           |
|  \\    /   O peration     | Version:  dev                                   |
|   \\  /    A nd           | Web:      www.OpenFOAM.org                      |
|    \\/     M anipulation  |                                                 |
\*---------------------------------------------------------------------------*/
FoamFile
{
    version     2.0;
    format      ascii;
    class       surfaceScalarField;
    location    "0.36";
    object      meshPhi;
}
// * * * * * * * * * * * * * * * * * * * * * * * * * * * * * * * * * * * * * //

dimensions      [0 3 -1 0 0 0 0];

internalField   nonuniform List<scalar> 
881
(
2.07848e-06
2.41251e-08
3.50402e-06
6.87257e-08
3.91714e-06
1.07326e-07
3.20102e-06
1.40924e-07
1.39022e-06
1.71341e-07
-1.36759e-06
2.00459e-07
-4.84192e-06
2.30033e-07
-8.74806e-06
2.61465e-07
-1.27744e-05
2.95533e-07
-1.66091e-05
3.32142e-07
-1.99647e-05
3.70159e-07
-2.26012e-05
4.07378e-07
-2.4345e-05
4.40684e-07
-2.51018e-05
4.66435e-07
-2.48633e-05
4.81022e-07
-2.37048e-05
4.8153e-07
-2.17745e-05
4.66366e-07
-1.92747e-05
4.35699e-07
-1.64374e-05
3.9159e-07
-1.34981e-05
3.37761e-07
2.77077e-07
2.14871e-06
4.81016e-08
3.62882e-06
1.36988e-07
4.081e-06
2.13827e-07
3.39126e-06
2.8061e-07
1.59463e-06
3.40982e-07
-1.16073e-06
3.98718e-07
-4.64372e-06
4.57357e-07
-8.56869e-06
5.19745e-07
-1.26227e-05
5.87493e-07
-1.64918e-05
6.60484e-07
-1.98863e-05
7.36509e-07
-2.25636e-05
8.11204e-07
-2.43468e-05
8.78357e-07
-2.51393e-05
9.30663e-07
-2.49302e-05
9.60843e-07
-2.37933e-05
9.62977e-07
-2.18762e-05
9.33767e-07
-1.93814e-05
8.73447e-07
-1.65417e-05
7.86056e-07
-1.35916e-05
6.78981e-07
5.57949e-07
2.23573e-06
7.16352e-08
3.78827e-06
2.03941e-07
4.29916e-06
3.18163e-07
3.65706e-06
4.17259e-07
1.89765e-06
5.06677e-07
-8.30898e-07
5.92069e-07
-4.29783e-06
6.78763e-07
-8.21792e-06
7.71072e-07
-1.22785e-05
8.71497e-07
-1.61656e-05
9.79974e-07
-1.9589e-05
1.09332e-06
-2.23045e-05
1.20514e-06
-2.41338e-05
1.30622e-06
-2.49775e-05
1.38568e-06
-2.4822e-05
1.43261e-06
-2.3738e-05
1.43804e-06
-2.18701e-05
1.39689e-06
-1.9418e-05
1.30929e-06
-1.66123e-05
1.18104e-06
-1.36866e-05
1.02302e-06
8.43375e-07
2.33383e-06
9.44186e-08
3.97369e-06
2.6871e-07
4.56159e-06
4.18956e-07
3.98836e-06
5.49031e-07
2.29045e-06
6.6613e-07
-3.84366e-07
7.77738e-07
-3.80666e-06
8.90944e-07
-7.69317e-06
1.01153e-06
-1.17335e-05
1.14293e-06
-1.56156e-05
1.28521e-06
-1.9051e-05
1.43437e-06
-2.17965e-05
1.58215e-06
-2.36731e-05
1.71657e-06
-2.45799e-05
1.82337e-06
-2.45002e-05
1.88814e-06
-2.35002e-05
1.89896e-06
-2.17191e-05
1.84884e-06
-1.93507e-05
1.7376e-06
-1.66196e-05
1.57244e-06
-1.37566e-05
1.36726e-06
1.13197e-06
2.45748e-06
1.16184e-07
4.20966e-06
3.30522e-07
4.8981e-06
5.14966e-07
4.41624e-06
6.74234e-07
2.80164e-06
8.17184e-07
2.0159e-07
9.53069e-07
-3.15624e-06
1.09069e-06
-6.99132e-06
1.23729e-06
-1.09964e-05
1.39725e-06
-1.48629e-05
1.57091e-06
-1.83048e-05
1.7536e-06
-2.10806e-05
1.93545e-06
-2.30118e-05
2.102e-06
-2.39957e-05
2.23589e-06
-2.40122e-05
2.31948e-06
-2.31219e-05
2.33797e-06
-2.14567e-05
2.28243e-06
-1.92024e-05
2.15211e-06
-1.65752e-05
1.95517e-06
-1.37998e-05
1.70791e-06
1.42092e-06
2.6069e-06
1.36673e-07
4.49592e-06
3.88629e-07
5.30781e-06
6.04989e-07
4.93915e-06
7.91215e-07
3.429e-06
9.57727e-07
9.24247e-07
1.11546e-06
-2.34958e-06
1.27486e-06
-6.11533e-06
1.44458e-06
-1.00699e-05
1.63e-06
-1.3909e-05
1.83181e-06
-1.73502e-05
2.04491e-06
-2.01547e-05
2.25808e-06
-2.21448e-05
2.45475e-06
-2.32165e-05
2.61484e-06
-2.33456e-05
2.71777e-06
-2.25863e-05
2.74603e-06
-2.1062e-05
2.68878e-06
-1.89484e-05
2.54441e-06
-1.6452e-05
2.32165e-06
-1.37878e-05
2.03863e-06
1.70531e-06
2.78197e-06
1.55646e-07
4.83179e-06
4.42332e-07
5.78914e-06
6.87886e-07
5.55455e-06
8.98408e-07
4.16912e-06
1.08576e-06
1.77945e-06
1.26244e-06
-1.39128e-06
1.44045e-06
-5.06994e-06
1.62981e-06
-8.95834e-06
1.83691e-06
-1.27573e-05
2.06288e-06
-1.61891e-05
2.30238e-06
-1.90182e-05
2.5432e-06
-2.10684e-05
2.76704e-06
-2.22344e-05
2.95155e-06
-2.24879e-05
3.07357e-06
-2.18759e-05
3.11318e-06
-2.05122e-05
3.05761e-06
-1.85611e-05
2.90423e-06
-1.62177e-05
2.66182e-06
-1.36853e-05
2.34977e-06
1.97648e-06
2.98246e-06
1.72888e-07
5.21629e-06
4.90999e-07
6.34003e-06
7.62626e-07
6.25913e-06
9.94382e-07
5.01747e-06
1.19944e-06
2.76165e-06
1.39175e-06
-2.87673e-07
1.58475e-06
-3.86181e-06
1.78974e-06
-7.6682e-06
2.0141e-06
-1.14135e-05
2.2595e-06
-1.48257e-05
2.52056e-06
-1.7673e-05
2.78442e-06
-1.97811e-05
3.03147e-06
-2.10438e-05
3.23757e-06
-2.14285e-05
3.37746e-06
-2.09747e-05
3.42911e-06
-1.97857e-05
3.37793e-06
-1.80136e-05
3.22012e-06
-1.58403e-05
2.96408e-06
-1.34572e-05
2.62976e-06
2.22343e-06
3.20807e-06
1.88219e-07
5.64831e-06
5.34098e-07
6.95798e-06
8.28317e-07
7.04881e-06
1.07789e-06
5.96844e-06
1.29717e-06
3.8639e-06
1.50143e-06
9.53278e-07
1.70541e-06
-2.49955e-06
1.92158e-06
-6.20821e-06
2.15825e-06
-9.88603e-06
2.41771e-06
-1.32669e-05
2.69474e-06
-1.61238e-05
2.97614e-06
-1.82847e-05
3.24146e-06
-1.96425e-05
3.46525e-06
-2.01605e-05
3.62067e-06
-1.98705e-05
3.68396e-06
-1.8865e-05
3.63894e-06
-1.7283e-05
3.48051e-06
-1.52934e-05
3.2164e-06
-1.30747e-05
2.86652e-06
2.43473e-06
3.45863e-06
2.01502e-07
6.12669e-06
5.71208e-07
7.6401e-06
8.84238e-07
7.91879e-06
1.1479e-06
7.0154e-06
1.37764e-06
5.07795e-06
1.58989e-06
2.32202e-06
1.80052e-06
-9.93619e-07
2.02308e-06
-4.58926e-06
2.26675e-06
-8.18539e-06
2.53443e-06
-1.15225e-05
2.82124e-06
-1.43787e-05
3.11395e-06
-1.65845e-05
3.3917e-06
-1.80324e-05
3.62828e-06
-1.86817e-05
3.79579e-06
-1.85566e-05
3.86921e-06
-1.77386e-05
3.83102e-06
-1.63539e-05
3.6749e-06
-1.45578e-05
3.40762e-06
-1.25165e-05
3.04862e-06
2.59944e-06
3.73419e-06
2.12654e-07
6.65046e-06
6.02055e-07
8.38328e-06
9.29864e-07
8.86367e-06
1.20364e-06
8.15082e-06
1.43983e-06
6.3944e-06
1.6559e-06
3.80759e-06
1.86871e-06
6.43864e-07
2.09268e-06
-2.82416e-06
2.33777e-06
-6.3246e-06
2.60754e-06
-9.60496e-06
2.89755e-06
-1.24489e-05
3.19482e-06
-1.469e-05
3.47851e-06
-1.62205e-05
3.72217e-06
-1.6996e-05
3.8974e-06
-1.70332e-05
3.9784e-06
-1.64031e-05
3.94669e-06
-1.52196e-05
3.79489e-06
-1.36246e-05
3.52871e-06
-1.17722e-05
3.16672e-06
2.70856e-06
4.03535e-06
2.21655e-07
7.21916e-06
6.26522e-07
9.18431e-06
9.64886e-07
9.87753e-06
1.24457e-06
9.36638e-06
1.48306e-06
7.80285e-06
1.69869e-06
5.39787e-06
1.90911e-06
2.39941e-06
2.12946e-06
-9.27379e-07
2.37039e-06
-4.31864e-06
2.63602e-06
-7.52935e-06
2.9225e-06
-1.0349e-05
3.21734e-06
-1.26145e-05
3.5001e-06
-1.42183e-05
3.74459e-06
-1.51127e-05
3.92246e-06
-1.53074e-05
4.00772e-06
-1.48636e-05
3.98135e-06
-1.38832e-05
3.83513e-06
-1.24954e-05
3.57373e-06
-1.08429e-05
3.21462e-06
2.75608e-06
4.36362e-06
2.28563e-07
7.8332e-06
6.44687e-07
1.00399e-05
9.89219e-07
1.0954e-05
1.27043e-06
1.06531e-05
1.50695e-06
9.29208e-06
1.71786e-06
7.07976e-06
1.92139e-06
4.25841e-06
2.13323e-06
1.08533e-06
2.36452e-06
-2.1841e-06
2.61994e-06
-5.31261e-06
2.89627e-06
-8.09591e-06
3.18172e-06
-1.03745e-05
3.4566e-06
-1.20417e-05
3.69548e-06
-1.30467e-05
3.87061e-06
-1.3393e-05
3.95634e-06
-1.31326e-05
3.93361e-06
-1.23563e-05
3.7937e-06
-1.11815e-05
3.54036e-06
-9.73958e-06
3.18982e-06
2.73954e-06
4.72179e-06
2.33536e-07
8.49443e-06
6.56862e-07
1.09467e-05
1.00301e-06
1.20863e-05
1.28116e-06
1.20014e-05
1.51145e-06
1.08502e-05
1.71344e-06
8.83943e-06
1.90575e-06
6.20548e-06
2.10441e-06
3.1973e-06
2.32091e-06
6.1334e-08
2.56041e-06
-2.9732e-06
2.82033e-06
-5.70849e-06
3.08976e-06
-7.98921e-06
3.3501e-06
-9.70968e-06
3.57707e-06
-1.08168e-05
3.74407e-06
-1.13086e-05
3.82634e-06
-1.12287e-05
3.80531e-06
-1.06575e-05
3.67216e-06
-9.70125e-06
3.4299e-06
-8.48062e-06
3.09347e-06
2.65999e-06
5.08024e-06
9.18649e-06
1.19078e-05
1.00518e-06
1.32728e-05
1.27698e-06
1.34079e-05
1.49652e-06
1.24725e-05
1.68541e-06
1.06713e-05
1.86228e-06
8.23455e-06
2.04329e-06
5.40206e-06
2.24013e-06
2.41079e-06
2.4583e-06
-5.1836e-07
2.6959e-06
-3.19439e-06
2.94304e-06
-5.46654e-06
3.18246e-06
-7.23078e-06
3.39149e-06
-8.43235e-06
3.54513e-06
-9.06439e-06
3.6201e-06
-9.1629e-06
3.59882e-06
-8.79871e-06
3.47281e-06
-8.06763e-06
3.24461e-06
-7.07953e-06
2.92789e-06
2.51972e-06
1.33995e-05
1.50864e-05
1.25577e-06
1.54561e-05
1.46199e-06
1.47158e-05
1.63311e-06
1.30726e-05
1.79016e-06
1.07586e-05
1.94898e-06
8.01234e-06
2.12128e-06
5.06889e-06
2.31284e-06
2.14898e-06
2.52242e-06
-5.56526e-07
2.7413e-06
-2.89642e-06
2.95384e-06
-4.76493e-06
3.13931e-06
-6.1041e-06
3.27483e-06
-6.90239e-06
3.33903e-06
-7.1899e-06
3.31582e-06
-7.03083e-06
3.19747e-06
-6.51401e-06
2.98635e-06
-5.74235e-06
2.6949e-06
2.32036e-06
1.68417e-05
1.75001e-05
1.40539e-06
1.69809e-05
1.55654e-06
1.55397e-05
1.68902e-06
1.34034e-05
1.8212e-06
1.08028e-05
1.96436e-06
7.96596e-06
2.12442e-06
5.11101e-06
2.30084e-06
2.42548e-06
2.48623e-06
5.81972e-08
2.66679e-06
-1.88537e-06
2.82401e-06
-3.3452e-06
2.93745e-06
-4.3054e-06
2.98803e-06
-4.7898e-06
2.96151e-06
-4.85491e-06
2.85121e-06
-4.58097e-06
2.65961e-06
-4.06178e-06
2.39813e-06
2.06471e-06
1.96967e-05
1.94581e-05
1.45365e-06
1.82319e-05
1.55966e-06
1.62952e-05
1.66076e-06
1.38608e-05
1.77068e-06
1.11467e-05
1.89498e-06
8.37127e-06
2.03389e-06
5.718e-06
2.18144e-06
3.33245e-06
2.32582e-06
1.31937e-06
2.45097e-06
-2.59435e-07
2.53907e-06
-1.38378e-06
2.57355e-06
-2.07116e-06
2.54216e-06
-2.37019e-06
2.43947e-06
-2.35228e-06
2.26832e-06
-2.10207e-06
2.03974e-06
1.75453e-06
2.21113e-05
2.11613e-05
1.40059e-06
1.94431e-05
1.46902e-06
1.71975e-05
1.54185e-06
1.462e-05
1.6268e-06
1.19386e-05
1.72451e-06
9.3309e-06
1.83064e-06
6.93768e-06
1.93547e-06
4.86278e-06
2.02544e-06
3.16965e-06
2.08542e-06
1.88298e-06
2.10136e-06
9.91907e-07
2.06302e-06
4.56103e-07
1.96615e-06
2.13413e-07
1.81385e-06
1.88194e-07
1.61689e-06
1.38042e-06
2.42863e-05
2.2866e-05
1.24574e-06
2.08311e-05
1.28046e-06
1.83976e-05
1.32282e-06
1.58266e-05
1.37633e-06
1.32806e-05
1.43826e-06
1.08929e-05
1.5009e-06
8.76723e-06
1.5532e-06
6.96852e-06
1.58266e-06
5.5266e-06
1.57761e-06
4.43779e-06
1.52959e-06
3.67071e-06
1.43523e-06
3.17354e-06
1.2973e-06
2.88144e-06
1.12472e-06
9.22693e-07
2.64667e-05
2.47423e-05
2.25001e-05
9.85615e-07
2.00528e-05
9.93047e-07
1.75894e-05
1.00849e-06
1.52232e-05
1.02695e-06
1.30621e-05
1.03966e-06
1.11708e-05
1.0366e-06
9.58622e-06
1.00824e-06
8.31227e-06
9.47536e-07
7.32718e-06
8.51686e-07
6.59082e-06
7.22644e-07
6.05187e-06
5.66706e-07
3.8764e-07
2.68963e-05
2.46438e-05
5.78611e-07
2.22861e-05
5.46128e-07
1.99586e-05
5.19025e-07
1.77832e-05
4.90711e-07
1.58159e-05
4.53567e-07
1.41062e-05
3.99907e-07
1.26654e-05
3.23624e-07
1.14813e-05
2.22334e-07
1.05261e-05
9.71818e-08
9.76273e-06
-4.75737e-08
-2.07013e-07
2.95146e-05
2.73581e-05
2.51303e-05
-1.43654e-08
2.2964e-05
-8.59349e-08
2.09379e-05
-1.58146e-07
1.91278e-05
-2.38824e-07
1.7546e-05
-3.33797e-07
1.6189e-05
-4.44757e-07
1.50417e-05
-5.71296e-07
1.40803e-05
-7.1093e-07
-8.57507e-07
3.06683e-05
2.86059e-05
2.65723e-05
-7.89047e-07
2.46895e-05
-8.99895e-07
2.30034e-05
-1.01658e-06
2.15082e-05
-1.14172e-06
2.02044e-05
-1.27513e-06
1.90799e-05
-1.41604e-06
-1.55706e-06
3.27151e-05
3.08388e-05
-1.57301e-06
2.90919e-05
-1.71777e-06
2.74987e-05
-1.86084e-06
2.6082e-05
-2.00601e-06
2.48343e-05
-2.154e-06
-2.29614e-06
3.75338e-05
3.58408e-05
3.4227e-05
-2.59186e-06
3.27406e-05
-2.756e-06
3.14072e-05
-2.91464e-06
-3.06276e-06
4.16619e-05
4.02162e-05
3.8862e-05
-3.68439e-06
-3.8442e-06
4.71524e-05
)
;

boundaryField
{
    inlet
    {
        type            calculated;
        value           uniform 0;
    }
    outlet
    {
        type            calculated;
        value           nonuniform 0();
    }
    flap
    {
        type            calculated;
        value           nonuniform 0();
    }
    upperWall
    {
        type            calculated;
        value           nonuniform 0();
    }
    lowerWall
    {
        type            calculated;
        value           uniform 0;
    }
    frontAndBack
    {
        type            empty;
        value           nonuniform 0();
    }
    procBoundary3to0
    {
        type            processor;
        value           nonuniform List<scalar> 
34
(
2.34215e-07
6.59403e-07
-1.02119e-05
9.89079e-07
-1.47172e-05
1.20935e-06
-1.85903e-05
1.31834e-06
-2.18944e-05
1.31675e-06
-2.47791e-05
1.20591e-06
-2.74244e-05
9.86451e-07
9.85813e-07
-2.87823e-05
6.17517e-07
-3.141e-05
1.42666e-07
6.13718e-08
-3.26563e-05
-5.55676e-07
-6.75914e-07
-3.46056e-05
-1.42121e-06
-3.92349e-05
-2.23018e-06
-2.41756e-06
-4.31387e-05
-3.29862e-06
-3.50077e-06
-4.83925e-05
-4.41728e-06
-4.60455e-06
)
;
    }
    procBoundary3to1
    {
        type            processor;
        value           nonuniform List<scalar> 9(2.75607e-06 5.67127e-06 9.14919e-06 1.32562e-05 1.80778e-05 2.36906e-05 3.01601e-05 3.75401e-05 4.5823e-05);
    }
    procBoundary3to4
    {
        type            processor;
        value           nonuniform List<scalar> 
19
(
-1.05481e-05
-1.06343e-05
-1.07417e-05
-1.08474e-05
-1.0943e-05
-1.09998e-05
-1.09854e-05
-1.08668e-05
-1.06151e-05
-1.02094e-05
-9.63899e-06
-8.90434e-06
-8.01527e-06
-6.98805e-06
-5.83465e-06
-4.72298e-06
-3.3107e-06
-1.64054e-06
3.49026e-07
)
;
    }
}


// ************************************************************************* //
