/*--------------------------------*- C++ -*----------------------------------*\
| =========                 |                                                 |
| \\      /  F ield         | OpenFOAM: The Open Source CFD Toolbox           |
|  \\    /   O peration     | Version:  dev                                   |
|   \\  /    A nd           | Web:      www.OpenFOAM.org                      |
|    \\/     M anipulation  |                                                 |
\*---------------------------------------------------------------------------*/
FoamFile
{
    version     2.0;
    format      ascii;
    class       surfaceScalarField;
    location    "0.98";
    object      meshPhi;
}
// * * * * * * * * * * * * * * * * * * * * * * * * * * * * * * * * * * * * * //

dimensions      [0 3 -1 0 0 0 0];

internalField   nonuniform List<scalar> 
5457
(
-5.21816e-05
6.84994e-07
-9.79941e-05
1.941e-06
-0.000136044
3.00841e-06
-0.000166517
3.9035e-06
-0.000188965
4.62922e-06
-0.000202687
5.16502e-06
-0.000207175
5.48145e-06
-0.000202395
5.55383e-06
-0.000188946
5.37227e-06
-0.000168099
4.94599e-06
-0.000141706
4.30656e-06
-0.000111981
3.50651e-06
-8.1231e-05
2.60651e-06
-5.16173e-05
1.67439e-06
-2.49506e-05
7.79447e-07
-2.53837e-06
-2.06712e-08
1.48774e-05
-6.83854e-07
2.70965e-05
-1.18649e-06
3.43826e-05
-1.52319e-06
3.7398e-05
-1.70501e-06
3.57375e-05
-1.71075e-06
3.02272e-05
-1.52425e-06
2.35253e-05
-1.22886e-06
1.69804e-05
-9.22465e-07
1.11885e-05
-6.43958e-07
6.53445e-06
-4.10241e-07
3.19166e-06
-2.30166e-07
1.1455e-06
-1.05299e-07
2.3318e-07
-3.2412e-08
-5.97605e-09
-5.20976e-05
1.36702e-06
-9.79076e-05
3.87532e-06
-0.000136064
6.01124e-06
-0.000166742
7.80744e-06
-0.000189465
9.26734e-06
-0.000203488
1.03462e-05
-0.00020826
1.09893e-05
-0.000203708
1.11494e-05
-0.000190398
1.08009e-05
-0.000169582
9.96043e-06
-0.000143114
8.68948e-06
-0.000113227
7.09071e-06
-8.22465e-05
5.28956e-06
-5.23612e-05
3.42387e-06
-2.54151e-05
1.63014e-06
-2.74327e-06
2.4076e-08
1.48957e-05
-1.30963e-06
2.72912e-05
-2.32314e-06
3.46889e-05
-3.00419e-06
3.77181e-05
-3.37234e-06
3.61123e-05
-3.38958e-06
3.06221e-05
-3.0252e-06
2.38186e-05
-2.43861e-06
1.71919e-05
-1.82721e-06
1.13316e-05
-1.27335e-06
6.62381e-06
-8.09705e-07
3.24078e-06
-4.53377e-07
1.16545e-06
-2.07225e-07
2.35535e-07
-6.41994e-08
-1.09826e-08
-5.19171e-05
2.03813e-06
-9.76468e-05
5.78097e-06
-0.000135854
8.97578e-06
-0.000166705
1.16721e-05
-0.000189702
1.38751e-05
-0.000204068
1.55174e-05
-0.000209207
1.65133e-05
-0.000205
1.67882e-05
-0.000191973
1.63016e-05
-0.000171347
1.50758e-05
-0.000144961
1.31992e-05
-0.000115051
1.08195e-05
-8.39474e-05
8.13037e-06
-5.38589e-05
5.34145e-06
-2.66572e-05
2.65328e-06
-3.70613e-06
2.39041e-07
1.42113e-05
-1.77326e-06
2.6866e-05
-3.30957e-06
3.44831e-05
-4.34869e-06
3.76772e-05
-4.91678e-06
3.62225e-05
-4.96231e-06
3.07976e-05
-4.44042e-06
2.39604e-05
-3.58031e-06
1.72953e-05
-2.67837e-06
1.13916e-05
-1.86166e-06
6.65067e-06
-1.17834e-06
3.25212e-06
-6.55526e-07
1.16843e-06
-2.97822e-07
2.3018e-07
-9.25315e-08
-1.53838e-08
-5.16353e-05
2.69045e-06
-9.71933e-05
7.63611e-06
-0.000135372
1.18694e-05
-0.000166339
1.54576e-05
-0.000189586
1.84089e-05
-0.000204312
2.06346e-05
-0.000209881
2.20136e-05
-0.000206129
2.24396e-05
-0.000193539
2.1858e-05
-0.000173291
2.02939e-05
-0.000147183
1.78596e-05
-0.000117426
1.47461e-05
-8.63511e-05
1.12071e-05
-5.61759e-05
7.52055e-06
-2.87844e-05
3.95278e-06
-5.56362e-06
7.34012e-07
1.26669e-05
-1.96248e-06
2.56466e-05
-4.03404e-06
3.3583e-05
-5.44919e-06
3.70868e-05
-6.24055e-06
3.5876e-05
-6.34332e-06
3.058e-05
-5.69643e-06
2.38042e-05
-4.59391e-06
1.71709e-05
-3.42993e-06
1.12777e-05
-2.37632e-06
6.54379e-06
-1.49544e-06
3.16613e-06
-8.23205e-07
1.11742e-06
-3.67803e-07
2.05862e-07
-1.12566e-07
-1.77507e-08
-5.1248e-05
3.31939e-06
-9.65588e-05
9.42719e-06
-0.000134672
1.46704e-05
-0.00016576
1.91372e-05
-0.000189304
2.28401e-05
-0.000204474
2.5667e-05
-0.00021059
2.74612e-05
-0.000207434
2.80847e-05
-0.000195435
2.74647e-05
-0.000175721
2.56255e-05
-0.000150037
2.26991e-05
-0.000120551
1.89163e-05
-8.95881e-05
1.4583e-05
-5.93739e-05
1.00401e-05
-3.18008e-05
5.61971e-06
-8.27748e-06
1.6091e-06
1.03281e-05
-1.77315e-06
2.37108e-05
-4.39318e-06
3.20549e-05
-6.20647e-06
3.59545e-05
-7.25027e-06
3.50627e-05
-7.44636e-06
2.99606e-05
-6.71673e-06
2.32975e-05
-5.41443e-06
1.67442e-05
-4.02701e-06
1.09194e-05
-2.77311e-06
6.24692e-06
-1.7294e-06
2.93818e-06
-9.36908e-07
9.83981e-07
-4.06715e-07
1.53789e-07
-1.1932e-07
-1.67257e-08
-5.07449e-05
3.9196e-06
-9.57254e-05
1.11397e-05
-0.000133735
1.73595e-05
-0.000164949
2.2691e-05
-0.000188834
2.71503e-05
-0.000204526
3.06003e-05
-0.0002113
3.28494e-05
-0.00020888
3.37266e-05
-0.000197629
3.3137e-05
-0.000178609
3.11001e-05
-0.000153502
2.77618e-05
-0.000124425
2.33855e-05
-9.36792e-05
1.83244e-05
-6.34914e-05
1.29773e-05
-3.57691e-05
7.74016e-06
-1.19463e-05
2.9587e-06
7.06471e-06
-1.10436e-06
2.09074e-05
-4.28357e-06
2.97281e-05
-6.51735e-06
3.40925e-05
-7.84328e-06
3.35898e-05
-8.17148e-06
2.87491e-05
-7.40976e-06
2.22572e-05
-5.9641e-06
1.58434e-05
-4.4066e-06
1.01582e-05
-3.00039e-06
5.63869e-06
-1.83788e-06
2.50423e-06
-9.67075e-07
7.46609e-07
-3.995e-07
7.25243e-08
-1.07193e-07
-1.13754e-08
-5.01173e-05
4.48365e-06
-9.4676e-05
1.27558e-05
-0.000132543
1.99158e-05
-0.000163886
2.60975e-05
-0.000188148
3.13174e-05
-0.000204437
3.54147e-05
-0.000211978
3.8163e-05
-0.000210432
3.93571e-05
-0.000200089
3.88766e-05
-0.000181933
3.67312e-05
-0.00015757
3.30748e-05
-0.000129057
2.81962e-05
-9.86541e-05
2.24886e-05
-6.85768e-05
1.64022e-05
-4.07596e-05
1.03947e-05
-1.66751e-05
4.87168e-06
2.73172e-06
1.41419e-07
1.70569e-05
-3.59956e-06
2.63928e-05
-6.27132e-06
3.12609e-05
-7.90651e-06
3.12011e-05
-8.40607e-06
2.66908e-05
-7.66948e-06
2.04453e-05
-6.14831e-06
1.426e-05
-4.48946e-06
8.81705e-06
-2.99512e-06
4.58863e-06
-1.77261e-06
1.80087e-06
-8.80524e-07
3.9715e-07
-3.29343e-07
-2.86215e-08
-7.17024e-08
-2.03046e-09
-4.9365e-05
5.00498e-06
-9.34111e-05
1.4257e-05
-0.000131089
2.231e-05
-0.000162555
2.93181e-05
-0.000187226
3.52966e-05
-0.000204178
4.00618e-05
-0.000212587
4.33532e-05
-0.00021205
4.49304e-05
-0.000202775
4.4644e-05
-0.000185656
4.24898e-05
-0.000162216
3.86234e-05
-0.000134442
3.33511e-05
-0.000104538
2.71001e-05
-7.46924e-05
2.03638e-05
-4.68675e-05
1.3653e-05
-2.2584e-05
7.43065e-06
-2.82545e-06
2.05552e-06
1.19566e-05
-2.2398e-06
2.1799e-05
-5.35595e-06
2.71681e-05
-7.31941e-06
2.75849e-05
-8.02814e-06
2.348e-05
-7.38079e-06
1.75795e-05
-5.863e-06
1.17574e-05
-4.18532e-06
6.72879e-06
-2.68568e-06
3.00656e-06
-1.48429e-06
8.076e-07
-6.5111e-07
-4.4495e-08
-1.88935e-07
-1.32636e-07
-1.45477e-08
9.53631e-09
-4.84861e-05
5.47792e-06
-9.19278e-05
1.56264e-05
-0.000129364
2.45138e-05
-0.000160938
3.23151e-05
-0.000186037
3.90433e-05
-0.000203705
4.44919e-05
-0.000213073
4.83676e-05
-0.000213668
5.03965e-05
-0.000205614
5.03998e-05
-0.00018971
4.83489e-05
-0.000167381
4.43912e-05
-0.000140537
3.88459e-05
-0.000111321
3.21684e-05
-8.18782e-05
2.48898e-05
-5.41858e-05
1.75633e-05
-2.9807e-05
1.07048e-05
-9.77695e-06
4.72405e-06
5.3904e-06
-1.08019e-07
1.56738e-05
-3.66562e-06
2.14848e-05
-5.96358e-06
2.23904e-05
-6.91031e-06
1.87923e-05
-6.42105e-06
1.33862e-05
-5.00154e-06
8.13322e-06
-3.40663e-06
3.78686e-06
-2.00787e-06
8.87474e-07
-9.38928e-07
-4.18448e-07
-2.74117e-07
-5.2491e-07
1.15445e-08
-2.21176e-07
5.53357e-08
2.08733e-08
-4.74722e-05
5.89807e-06
-9.02111e-05
1.6852e-05
-0.000127348
2.65099e-05
-0.000159004
3.50666e-05
-0.000184537
4.25311e-05
-0.000202963
4.86746e-05
-0.000213365
5.31729e-05
-0.000215205
5.57205e-05
-0.000208521
5.61093e-05
-0.000194009
5.42766e-05
-0.000172989
5.03515e-05
-0.000147278
4.46625e-05
-0.000118959
3.76852e-05
-9.01338e-05
2.99817e-05
-6.27621e-05
2.21426e-05
-3.84483e-05
1.47296e-05
-1.82878e-05
8.20421e-06
-2.85365e-06
2.87507e-06
7.76129e-06
-1.10646e-06
1.39022e-05
-3.73576e-06
1.529e-05
-4.94284e-06
1.23531e-05
-4.68485e-06
7.67591e-06
-3.47693e-06
3.2959e-06
-2.09069e-06
1.45844e-08
-9.29632e-07
-1.65233e-06
-1.39353e-07
-1.74607e-06
2.24793e-07
-9.7272e-07
2.4674e-07
-2.8022e-07
1.26109e-07
3.00291e-08
-4.63139e-05
6.26143e-06
-8.82448e-05
1.79229e-05
-0.000125019
2.82823e-05
-0.000156725
3.75518e-05
-0.000182687
4.57331e-05
-0.000201892
5.25757e-05
-0.000213388
5.7727e-05
-0.000216571
6.085e-05
-0.000211396
6.1704e-05
-0.000198449
6.01968e-05
-0.000178936
5.64374e-05
-0.000154577
5.07466e-05
-0.000127382
4.36085e-05
-9.941e-05
3.56106e-05
-7.25894e-05
2.73806e-05
-4.8546e-05
1.95153e-05
-2.84524e-05
1.25207e-05
-1.29345e-05
6.75257e-06
-2.13862e-06
2.3867e-06
4.2018e-06
-5.58072e-07
6.07635e-06
-2.04823e-06
4.0272e-06
-2.10567e-06
4.26884e-07
-1.24467e-06
-2.65509e-06
-2.26124e-07
-4.38497e-06
5.24724e-07
-4.37778e-06
8.65361e-07
-3.00492e-06
7.95394e-07
-1.32153e-06
4.86165e-07
-3.02276e-07
1.88326e-07
3.64077e-08
-4.5003e-05
6.56231e-06
-8.60183e-05
1.88237e-05
-0.000122368
2.98079e-05
-0.000154085
3.97397e-05
-0.000180453
4.86081e-05
-0.000200438
5.61433e-05
-0.00021306
6.19695e-05
-0.000217657
6.57161e-05
-0.000214103
6.71069e-05
-0.000202876
6.60262e-05
-0.000185067
6.25617e-05
-0.000162291
5.7014e-05
-0.000136465
4.98659e-05
-0.000109594
4.17188e-05
-8.35908e-05
3.323e-05
-6.00741e-05
2.50325e-05
-4.02735e-05
1.76662e-05
-2.48893e-05
1.15291e-05
-1.40967e-05
6.82844e-06
-7.67344e-06
3.59226e-06
-5.25194e-06
1.79305e-06
-6.09678e-06
1.31825e-06
-8.14282e-06
1.66695e-06
-9.38706e-06
2.12408e-06
-9.03922e-06
2.26894e-06
-6.98435e-06
1.99149e-06
-4.03185e-06
1.38181e-06
-1.52575e-06
7.07657e-07
-2.84623e-07
2.39257e-07
4.11552e-08
-4.35294e-05
6.79615e-06
-8.35199e-05
1.95426e-05
-0.000119384
3.10706e-05
-0.000151066
4.16087e-05
-0.000177803
5.11269e-05
-0.000198545
5.93378e-05
-0.000212294
6.58456e-05
-0.000218343
7.02486e-05
-0.000216485
7.22381e-05
-0.000207107
7.16743e-05
-0.00019118
6.86188e-05
-0.000170205
6.33483e-05
-0.000146004
5.63409e-05
-0.000120498
4.8201e-05
-9.55814e-05
3.95958e-05
-7.28758e-05
3.11927e-05
-5.36226e-05
2.35673e-05
-3.8582e-05
1.71459e-05
-2.79607e-05
1.21626e-05
-2.15251e-05
8.65526e-06
-1.8412e-05
6.51029e-06
-1.763e-05
5.49488e-06
-1.75409e-05
5.13914e-06
-1.63639e-05
4.82393e-06
-1.34786e-05
4.17372e-06
-9.17272e-06
3.1472e-06
-4.70992e-06
1.94449e-06
-1.56497e-06
9.08745e-07
-2.24912e-07
2.86733e-07
4.80381e-08
-4.18824e-05
6.96038e-06
-8.07374e-05
2.00736e-05
-0.000116062
3.20634e-05
-0.000147652
4.31489e-05
-0.000174704
5.32708e-05
-0.000196153
6.21257e-05
-0.000210998
6.93012e-05
-0.000218496
7.43717e-05
-0.000218374
7.70018e-05
-0.000210934
7.70268e-05
-0.000197031
7.44816e-05
-0.000178041
6.96144e-05
-0.000155695
6.28859e-05
-0.000131824
5.49016e-05
-0.000108258
4.63306e-05
-8.66225e-05
3.78545e-05
-6.81617e-05
3.00798e-05
-5.36439e-05
2.34571e-05
-4.32954e-05
1.82388e-05
-3.68286e-05
1.44671e-05
-3.279e-05
1.19237e-05
-2.98898e-05
1.0233e-05
-2.70614e-05
8.97768e-06
-2.29487e-05
7.69273e-06
-1.72479e-05
6.10095e-06
-1.07212e-05
4.26057e-06
-4.98564e-06
2.47313e-06
-1.43495e-06
1.11118e-06
-1.13985e-07
3.54603e-07
6.72336e-08
-4.01828e-05
7.10319e-06
-7.77392e-05
2.04933e-05
-0.000112381
3.28143e-05
-0.000143818
4.43596e-05
-0.000171108
5.5036e-05
-0.000193186
6.44935e-05
-0.000209055
7.23107e-05
-0.000217965
7.80486e-05
-0.000219581
8.13462e-05
-0.000214128
8.20112e-05
-0.000202357
8.00576e-05
-0.000185514
7.57096e-05
-0.000165217
6.93944e-05
-0.00014322
6.17052e-05
-0.000121252
5.33091e-05
-0.000100906
4.48873e-05
-8.34146e-05
3.70616e-05
-6.95281e-05
3.03038e-05
-5.94541e-05
2.4879e-05
-5.28149e-05
2.0823e-05
-4.75492e-05
1.78068e-05
-4.20574e-05
1.53095e-05
-3.59691e-05
1.29835e-05
-2.85843e-05
1.05743e-05
-2.00418e-05
7.95921e-06
-1.15466e-05
5.30843e-06
-4.86835e-06
2.98832e-06
-1.12087e-06
1.3467e-06
1.05985e-07
4.78109e-07
1.23928e-07
7.84903e-07
-5.57804e-09
4.95155e-06
5.82383e-09
1.86618e-05
1.66078e-08
4.67985e-05
1.11597e-07
8.74723e-05
4.33518e-07
0.00013251
1.06973e-06
0.000174133
1.94786e-06
0.00020919
3.02177e-06
0.000238352
4.18564e-06
0.000259871
5.28896e-06
0.000272843
5.94622e-06
0.000282495
5.96762e-06
0.0002925
5.58511e-06
0.000303239
4.77743e-06
0.000314336
3.56668e-06
0.000324886
2.09195e-06
0.000333896
3.49959e-07
0.000340333
-1.54262e-06
0.000343113
-3.36835e-06
0.000341263
-5.002e-06
0.000334062
-6.41817e-06
0.000320966
-7.51357e-06
0.00030165
-8.2182e-06
0.000275978
-8.46785e-06
0.000243955
-8.26697e-06
0.000205762
-7.64668e-06
0.000161751
-6.61094e-06
0.000112393
-5.17458e-06
5.81086e-05
-3.35148e-06
-1.18149e-06
8.27508e-07
-4.5525e-09
5.29554e-06
1.47324e-08
1.96204e-05
5.17254e-08
4.82895e-05
2.77044e-07
8.89009e-05
9.20971e-07
0.000133165
2.14923e-06
0.000173573
3.88149e-06
0.000207364
5.96397e-06
0.00023529
8.2157e-06
0.000256426
1.02679e-05
0.0002696
1.14749e-05
0.000279319
1.15514e-05
0.000289659
1.07532e-05
0.000300791
9.16753e-06
0.000312314
6.76471e-06
0.000323335
3.80193e-06
0.000332736
4.14572e-07
0.000339452
-3.2411e-06
0.000342486
-6.84744e-06
0.000340887
-1.00922e-05
0.000333864
-1.28343e-05
0.000320885
-1.49507e-05
0.000301625
-1.63102e-05
0.000275974
-1.68053e-05
0.000243958
-1.64084e-05
0.000205755
-1.51582e-05
0.000161733
-1.30919e-05
0.00011236
-1.02367e-05
5.80717e-05
-6.62497e-06
-2.33405e-06
9.00396e-07
-5.05624e-09
5.79221e-06
1.79136e-08
2.0697e-05
8.92268e-08
4.92348e-05
4.63507e-07
8.83403e-05
1.43791e-06
0.000130061
3.21527e-06
0.000167773
5.72736e-06
0.000199348
8.67818e-06
0.000225643
1.18313e-05
0.000246281
1.46407e-05
0.000259932
1.62337e-05
0.00027036
1.63167e-05
0.000281655
1.50621e-05
0.000293805
1.2706e-05
0.000306249
9.24086e-06
0.00031817
4.86551e-06
0.000328422
-7.32074e-08
0.000335854
-5.31428e-06
0.000339481
-1.05247e-05
0.000338417
-1.52727e-05
0.000331877
-1.92501e-05
0.000319287
-2.22672e-05
0.000300331
-2.41931e-05
0.000274912
-2.48919e-05
0.000243075
-2.42932e-05
0.000205037
-2.24301e-05
0.000161178
-1.93523e-05
0.000111965
-1.51129e-05
5.78525e-05
-9.77204e-06
-3.44061e-06
1.00403e-06
-7.7253e-09
6.31581e-06
1.824e-08
2.14158e-05
1.36599e-07
4.87435e-05
6.77767e-07
8.4735e-05
1.986e-06
0.000122334
4.25034e-06
0.000156287
7.37846e-06
0.00018511
1.09859e-05
0.000209672
1.47907e-05
0.000229799
1.81429e-05
0.000244232
1.9944e-05
0.000256075
1.99097e-05
0.000268868
1.82206e-05
0.000282537
1.51051e-05
0.000296382
1.06897e-05
0.000309556
5.09465e-06
0.000321015
-1.26909e-06
0.000329556
-7.9337e-06
0.000334119
-1.4512e-05
0.000333854
-2.05637e-05
0.000328038
-2.56543e-05
0.000316098
-2.94696e-05
0.000297703
-3.18555e-05
0.000272749
-3.26816e-05
0.000241305
-3.18513e-05
0.000203624
-2.93853e-05
0.000160096
-2.53318e-05
0.000111216
-1.97661e-05
5.74618e-05
-1.27706e-05
-4.49363e-06
1.13369e-06
-1.09679e-08
6.77368e-06
2.56859e-08
2.1601e-05
2.14949e-07
4.68371e-05
9.48807e-07
7.87367e-05
2.57612e-06
0.000111485
5.22974e-06
0.000141267
8.75821e-06
0.000167136
1.27817e-05
0.000189874
1.69735e-05
0.000209489
2.06137e-05
0.00022488
2.24869e-05
0.000238476
2.22156e-05
0.000253056
2.01003e-05
0.00026848
1.62795e-05
0.000284031
1.09637e-05
0.000298742
4.34152e-06
0.000311608
-3.22747e-06
0.00032147
-1.11405e-05
0.000327211
-1.88834e-05
0.000327958
-2.60107e-05
0.00032302
-3.20293e-05
0.000311878
-3.65329e-05
0.000294199
-3.92833e-05
0.000269857
-4.01468e-05
0.000238947
-3.90421e-05
0.000201744
-3.59688e-05
0.000158661
-3.09774e-05
0.000110226
-2.41529e-05
5.69462e-05
-1.5592e-05
-5.4829e-06
1.26051e-06
-1.25644e-08
7.01535e-06
4.64093e-08
2.09992e-05
3.33395e-07
4.34132e-05
1.27085e-06
7.07246e-05
3.16877e-06
9.85088e-05
6.08384e-06
0.000124182
9.81557e-06
0.00014718
1.40252e-05
0.000168141
1.83484e-05
0.000187245
2.20149e-05
0.000203639
2.38097e-05
0.00021907
2.32169e-05
0.000235553
2.06401e-05
0.000252787
1.62097e-05
0.000270114
1.00686e-05
0.000286495
2.55515e-06
0.000300851
-5.96864e-06
0.000312107
-1.49262e-05
0.000319153
-2.36608e-05
0.000321058
-3.16466e-05
0.000317121
-3.83811e-05
0.000306863
-4.34164e-05
0.000289977
-4.64328e-05
0.000266335
-4.72645e-05
0.000236054
-4.58479e-05
0.00019943
-4.21661e-05
0.000156898
-3.62694e-05
0.000109013
-2.82509e-05
5.6314e-05
-1.82205e-05
-6.40283e-06
1.34783e-06
-1.02482e-08
6.92662e-06
8.28479e-08
1.95297e-05
4.86005e-07
3.86805e-05
1.61095e-06
6.13839e-05
3.69889e-06
8.45288e-05
6.73631e-06
0.000106464
1.05023e-05
0.000126882
1.46823e-05
0.000146223
1.891e-05
0.000164817
2.23845e-05
0.000182163
2.3928e-05
0.000199322
2.29738e-05
0.000217611
1.99087e-05
0.000236585
1.49253e-05
0.000255585
8.08759e-06
0.000273586
-1.97991e-07
0.000289433
-9.49114e-06
0.00030205
-1.92528e-05
0.000310382
-2.87846e-05
0.000313472
-3.74482e-05
0.000310587
-4.47079e-05
0.000301252
-5.01075e-05
0.000285183
-5.3283e-05
0.000262293
-5.40317e-05
0.000232709
-5.22709e-05
0.000196743
-4.79808e-05
0.000154847
-4.12118e-05
0.000107604
-3.2064e-05
5.55806e-05
-2.06592e-05
-7.25464e-06
1.36644e-06
-4.12284e-09
6.47964e-06
1.32722e-07
1.73272e-05
6.52546e-07
3.31278e-05
1.91977e-06
5.15907e-05
4.09799e-06
7.06976e-05
7.12372e-06
8.94438e-05
1.07711e-05
0.000107652
1.47317e-05
0.00012559
1.86714e-05
0.000143698
2.18037e-05
0.000161823
2.29731e-05
0.000180446
2.16195e-05
0.000200286
1.80501e-05
0.000220815
1.25298e-05
0.000241283
5.13007e-06
0.000260712
-3.79515e-06
0.000277938
-1.37253e-05
0.000291821
-2.40834e-05
0.000301321
-3.41944e-05
0.000305506
-4.33628e-05
0.000303635
-5.09976e-05
0.000295216
-5.66183e-05
0.000279981
-5.98447e-05
0.000257868
-6.04438e-05
0.00022902
-5.8306e-05
0.000193762
-5.34085e-05
0.000152565
-4.58015e-05
0.000106035
-3.55905e-05
5.47655e-05
-2.29072e-05
-8.03812e-06
1.30594e-06
5.11002e-09
5.73885e-06
1.89388e-07
1.46864e-05
8.05387e-07
2.73731e-05
2.14708e-06
4.22179e-05
4.30952e-06
5.80183e-05
7.20373e-06
7.41759e-05
1.06101e-05
9.05349e-05
1.42275e-05
0.000107264
1.77398e-05
0.000124908
2.04073e-05
0.000143595
2.11056e-05
0.000163372
1.93012e-05
0.000184426
1.52424e-05
0.000206199
9.20673e-06
0.000227871
1.3143e-06
0.00024846
-8.11929e-06
0.00026682
-1.85523e-05
0.000281794
-2.93635e-05
0.00029232
-3.98696e-05
0.000297472
-4.93655e-05
0.000296521
-5.72269e-05
0.000288967
-6.29396e-05
0.000274543
-6.61107e-05
0.0002532
-6.64865e-05
0.000225097
-6.39383e-05
0.000190571
-5.8436e-05
0.000150112
-5.00278e-05
0.000104345
-3.88224e-05
5.38872e-05
-2.49595e-05
-8.75159e-06
1.1759e-06
1.66808e-08
4.82926e-06
2.43733e-07
1.19585e-05
9.18516e-07
2.19952e-05
2.25966e-06
3.39621e-05
4.31003e-06
4.71672e-05
6.97363e-06
6.12602e-05
1.00502e-05
7.61088e-05
1.32492e-05
9.18343e-05
1.62445e-05
0.000109044
1.83512e-05
0.000128069
1.84982e-05
0.000148662
1.61863e-05
0.000170575
1.1646e-05
0.000193234
5.11803e-06
0.000215802
-3.23703e-06
0.000237265
-1.30829e-05
0.000256487
-2.38879e-05
0.000272317
-3.50138e-05
0.00028368
-4.57606e-05
0.000289647
-5.54224e-05
0.000289488
-6.33597e-05
0.000282702
-6.90399e-05
0.000269022
-7.20576e-05
0.00024841
-7.21436e-05
0.000221033
-6.91551e-05
0.000187242
-6.30536e-05
0.00014754
-5.38835e-05
0.000102567
-4.17551e-05
5.29626e-05
-2.68136e-05
-9.39433e-06
9.99259e-07
2.9587e-08
3.89321e-06
2.86426e-07
9.46339e-06
9.70884e-07
1.74171e-05
2.24233e-06
2.72211e-05
4.11266e-06
3.84544e-05
6.48501e-06
5.09332e-05
9.17164e-06
6.45909e-05
1.18909e-05
7.95248e-05
1.43026e-05
9.63529e-05
1.57741e-05
0.000115509
1.53112e-05
0.000136578
1.24372e-05
0.000159024
7.38003e-06
0.000182242
3.73214e-07
0.000205387
-8.40086e-06
0.000227434
-1.85823e-05
0.000247248
-2.9645e-05
0.000263682
-4.09487e-05
0.00027566
-5.1793e-05
0.00028225
-6.14752e-05
0.000282723
-6.9353e-05
0.000276577
-7.48863e-05
0.000263548
-7.76617e-05
0.000243602
-7.73995e-05
0.000216913
-7.3946e-05
0.00018384
-6.72547e-05
0.000144896
-5.7365e-05
0.000100734
-4.43871e-05
5.20075e-05
-2.84694e-05
-9.96644e-06
8.02507e-07
4.29924e-08
3.0551e-06
3.11596e-07
7.43789e-06
9.55299e-07
1.38732e-05
2.10271e-06
2.21122e-05
3.75287e-06
3.19061e-05
5.80459e-06
4.31864e-05
8.06058e-06
5.595e-05
1.02459e-05
7.02784e-05
1.20157e-05
8.67784e-05
1.27793e-05
0.000105925
1.164e-05
0.0001272
8.15595e-06
0.000149901
2.55283e-06
0.000173395
-4.92061e-06
0.000196827
-1.40635e-05
0.000219172
-2.45044e-05
0.000239305
-3.57209e-05
0.000256084
-4.70803e-05
0.000268439
-5.78918e-05
0.000275443
-6.74641e-05
0.000276369
-7.51614e-05
0.000270718
-8.04453e-05
0.000258226
-8.28999e-05
0.000238863
-8.22398e-05
0.000212806
-7.8303e-05
0.000180419
-7.10355e-05
0.000142222
-6.04716e-05
9.88721e-05
-4.67193e-05
5.10362e-05
-2.99282e-05
-1.04687e-05
6.10103e-07
5.62147e-08
2.40774e-06
3.18878e-07
6.00607e-06
8.87186e-07
1.14297e-05
1.88295e-06
1.86023e-05
3.28721e-06
2.74174e-05
4.98723e-06
3.78673e-05
6.77238e-06
4.99938e-05
8.36977e-06
6.38775e-05
9.44494e-06
8.01109e-05
9.44013e-06
9.91718e-05
7.55252e-06
0.00012047
3.41129e-06
0.000143207
-2.74649e-06
0.000166735
-1.06641e-05
0.000190197
-2.01232e-05
0.000212578
-3.07468e-05
0.000232766
-4.20195e-05
0.000249636
-5.33228e-05
0.00026213
-6.39838e-05
0.000269334
-7.33296e-05
0.000270527
-8.07392e-05
0.000265213
-8.56836e-05
0.000253134
-8.775e-05
0.000234259
-8.66511e-05
0.000208768
-8.22196e-05
0.000177026
-7.43947e-05
0.000139551
-6.32048e-05
9.70052e-05
-4.87546e-05
5.00604e-05
-3.11931e-05
-1.09022e-05
4.68656e-07
6.54377e-08
2.0393e-06
3.14456e-07
5.23017e-06
7.94102e-07
1.00863e-05
1.62708e-06
1.66259e-05
2.7577e-06
2.48435e-05
4.05678e-06
3.47669e-05
5.31487e-06
4.64616e-05
6.27113e-06
6.00153e-05
6.62337e-06
7.60744e-05
5.81453e-06
9.50572e-05
3.10022e-06
0.000116253
-1.74806e-06
0.000138856
-8.45243e-06
0.000162218
-1.67768e-05
0.000185487
-2.6491e-05
0.000207667
-3.72176e-05
0.000227668
-4.8452e-05
0.000244388
-5.95951e-05
0.000256792
-6.99982e-05
0.000263983
-7.90134e-05
0.000265255
-8.60414e-05
0.00026012
-9.05685e-05
0.000248325
-9.21905e-05
0.000229839
-9.06214e-05
0.000204841
-8.56909e-05
0.000173692
-7.73324e-05
0.000136909
-6.5568e-05
9.51512e-05
-5.04978e-05
4.90895e-05
-3.22679e-05
-1.12688e-05
5.56594e-07
3.38038e-08
2.16822e-06
3.32443e-07
5.25609e-06
7.12584e-07
9.88681e-06
1.33879e-06
1.6128e-05
2.13558e-06
2.40346e-05
2.96429e-06
3.36695e-05
3.62592e-06
4.50943e-05
3.89062e-06
5.844e-05
3.47294e-06
7.44606e-05
1.78111e-06
9.33835e-05
-1.82137e-06
0.000114364
-7.36505e-06
0.000136694
-1.45714e-05
0.000159716
-2.32486e-05
0.000182594
-3.3147e-05
0.000204356
-4.38921e-05
0.000223943
-5.49938e-05
0.000240285
-6.58765e-05
0.000252378
-7.59205e-05
0.000259353
-8.45085e-05
0.000260523
-9.10689e-05
0.000255415
-9.5109e-05
0.00024378
-9.62368e-05
0.000225588
-9.41714e-05
0.000201014
-8.87408e-05
0.000170414
-7.98732e-05
0.000134297
-6.75844e-05
9.33124e-05
-5.19685e-05
4.81268e-05
-3.31668e-05
-1.15737e-05
-4.01264e-05
7.26014e-06
-7.763e-05
2.09055e-05
-0.000112554
3.34287e-05
-0.00014486
4.52775e-05
-0.000173358
5.64262e-05
-0.000196837
6.64478e-05
-0.000214284
7.4877e-05
-0.000224929
8.12752e-05
-0.000228382
8.52585e-05
-0.000224794
8.66047e-05
-0.000214856
8.5311e-05
-0.000199731
8.15777e-05
-0.000180959
7.57978e-05
-0.000160256
6.85319e-05
-0.000139312
6.04323e-05
-0.000119692
5.21742e-05
-0.000102632
4.43765e-05
-8.88759e-05
3.7524e-05
-7.85833e-05
3.18887e-05
-7.12559e-05
2.7499e-05
-6.42047e-05
2.39303e-05
-5.5446e-05
2.05207e-05
-4.53961e-05
1.7001e-05
-3.42429e-05
1.33802e-05
-2.26484e-05
9.73216e-06
-1.21872e-05
6.32375e-06
-4.59552e-06
3.53695e-06
-5.89977e-07
1.64409e-06
6.45181e-07
6.41677e-07
2.53364e-07
4.71136e-07
-3.96012e-05
7.38546e-06
-7.65297e-05
2.12597e-05
-0.000110952
3.3955e-05
-0.000143303
4.59769e-05
-0.000172468
5.74465e-05
-0.000196975
6.79599e-05
-0.00021573
7.69687e-05
-0.00022797
8.40038e-05
-0.000233263
8.86718e-05
-0.000231686
9.07247e-05
-0.000223868
9.01375e-05
-0.000210872
8.70852e-05
-0.000194123
8.1925e-05
-0.000175231
7.51757e-05
-0.000155799
6.74619e-05
-0.000137315
5.94398e-05
-0.00012096
5.17232e-05
-0.000107438
4.4795e-05
-9.68397e-05
3.89243e-05
-8.85989e-05
3.41473e-05
-7.95952e-05
2.99869e-05
-6.73809e-05
2.56411e-05
-5.31925e-05
2.08901e-05
-3.84044e-05
1.60529e-05
-2.41589e-05
1.14329e-05
-1.21768e-05
7.35152e-06
-3.89127e-06
4.15214e-06
4.56875e-07
2.0022e-06
1.94196e-06
8.04193e-07
2.53886e-07
2.11494e-06
-3.89378e-05
7.44616e-06
-7.53056e-05
2.14503e-05
-0.000109199
3.42849e-05
-0.000141262
4.64426e-05
-0.000170776
5.81204e-05
-0.000196172
6.90113e-05
-0.000216149
7.85356e-05
-0.00022994
8.61696e-05
-0.00023705
9.15028e-05
-0.000237476
9.42552e-05
-0.000231815
9.43816e-05
-0.000221023
9.20362e-05
-0.000206393
8.75312e-05
-0.000189408
8.13472e-05
-0.000171545
7.40729e-05
-0.000154189
6.63294e-05
-0.000138458
5.87148e-05
-0.00012498
5.17018e-05
-0.000113805
4.55648e-05
-0.000104408
4.03687e-05
-9.3633e-05
3.56795e-05
-7.80843e-05
3.05198e-05
-5.97103e-05
2.45863e-05
-4.15675e-05
1.85857e-05
-2.50143e-05
1.30899e-05
-1.17092e-05
8.40814e-06
-2.62736e-06
4.81379e-06
2.39204e-06
2.37045e-06
4.52461e-06
9.24845e-07
1.6641e-07
5.24627e-06
-3.8017e-05
7.43841e-06
-7.36432e-05
2.14405e-05
-0.000106979
3.43082e-05
-0.000138635
4.65354e-05
-0.000168208
5.83523e-05
-0.000194311
6.95421e-05
-0.000215401
7.95245e-05
-0.000230665
8.7716e-05
-0.000239516
9.36795e-05
-0.000241838
9.70854e-05
-0.000238266
9.78838e-05
-0.000229637
9.62285e-05
-0.000217086
9.23776e-05
-0.000201962
8.67663e-05
-0.000185599
7.99481e-05
-0.000169251
7.2503e-05
-0.000153944
6.49867e-05
-0.000140243
5.78586e-05
-0.000128197
5.14083e-05
-0.000117434
4.57412e-05
-0.000105196
4.0518e-05
-8.70737e-05
3.47414e-05
-6.50991e-05
2.79825e-05
-4.3912e-05
2.10355e-05
-2.52549e-05
1.47193e-05
-1.06258e-05
9.45743e-06
-4.82792e-07
5.44372e-06
5.60664e-06
2.64368e-06
8.85055e-06
8.74252e-07
-1.73499e-07
1.05504e-05
-3.68095e-05
7.35853e-06
-7.1414e-05
2.12221e-05
-0.000103972
3.39919e-05
-0.000135066
4.61625e-05
-0.000164446
5.79828e-05
-0.00019106
6.9341e-05
-0.000213253
7.97412e-05
-0.000230018
8.8546e-05
-0.000240486
9.51534e-05
-0.000244454
9.91238e-05
-0.000242801
0.000100502
-0.000236181
9.949e-05
-0.000225539
9.62629e-05
-0.00021209
9.12005e-05
-0.000197027
8.48143e-05
-0.000181473
7.76414e-05
-0.00016634
7.02024e-05
-0.000152125
6.2935e-05
-0.000138896
5.61267e-05
-0.000126411
4.99028e-05
-0.000112222
4.39298e-05
-9.24114e-05
3.74556e-05
-6.85905e-05
3.02881e-05
-4.52329e-05
2.29896e-05
-2.47218e-05
1.62043e-05
-8.59728e-06
1.04281e-05
2.89863e-06
5.92657e-06
1.03978e-05
2.69122e-06
1.51163e-05
5.14302e-07
-9.10776e-07
1.80938e-05
-3.52896e-05
7.20218e-06
-6.85799e-05
2.07833e-05
-0.00010007
3.33189e-05
-0.000130343
4.53005e-05
-0.000159192
5.69733e-05
-0.000185881
6.82652e-05
-0.000209016
7.88426e-05
-0.000227384
8.81787e-05
-0.000239588
9.55464e-05
-0.000245071
0.000100223
-0.000245046
0.000102167
-0.000240189
0.000101721
-0.000231158
9.9054e-05
-0.00021909
9.44732e-05
-0.000205016
8.84531e-05
-0.000189986
8.14966e-05
-0.000174783
7.41091e-05
-0.000159826
6.66963e-05
-0.000145194
5.95324e-05
-0.000130676
5.27499e-05
-0.000113869
4.60092e-05
-9.24689e-05
3.87547e-05
-6.8238e-05
3.11342e-05
-4.42924e-05
2.37403e-05
-2.27405e-05
1.69431e-05
-5.17897e-06
1.09854e-05
7.85879e-06
6.1052e-06
1.70056e-05
2.39173e-06
2.34209e-05
-2.83519e-07
-2.17098e-06
2.78657e-05
-3.34266e-05
6.96533e-06
-6.50872e-05
2.01127e-05
-9.52142e-05
3.22762e-05
-0.000124376
4.39359e-05
-0.000152369
5.53316e-05
-0.000178551
6.63809e-05
-0.000201943
7.68149e-05
-0.000221408
8.62367e-05
-0.000235554
9.41399e-05
-0.000243076
9.97867e-05
-0.000244729
0.000102689
-0.000241305
0.000102902
-0.000233467
0.000100679
-0.000222432
9.6474e-05
-0.000208982
9.07318e-05
-0.000194188
8.39226e-05
-0.000178713
7.65654e-05
-0.000162907
6.90251e-05
-0.000146866
6.15633e-05
-0.000130423
5.43301e-05
-0.000111403
4.70474e-05
-8.84478e-05
3.92371e-05
-6.38394e-05
3.11535e-05
-4.00943e-05
2.35209e-05
-1.8422e-05
1.66894e-05
3.08544e-08
1.07217e-05
1.46221e-05
5.67533e-06
2.56125e-05
1.58074e-06
3.38792e-05
-1.61117e-06
-4.02759e-06
3.98998e-05
-3.11904e-05
6.64851e-06
-6.08778e-05
1.92119e-05
-8.93228e-05
3.08654e-05
-0.000117063
4.20704e-05
-0.000143896
5.30554e-05
-0.000169167
6.37406e-05
-0.000192048
7.38588e-05
-0.000211565
8.30327e-05
-0.000226925
9.09215e-05
-0.000236759
9.71116e-05
-0.000240706
0.000101076
-0.000238931
0.000102377
-0.00023226
0.000100976
-0.000221869
9.72302e-05
-0.000208576
9.16207e-05
-0.000193744
8.48561e-05
-0.000177862
7.75185e-05
-0.000161221
6.98896e-05
-0.00014396
6.22164e-05
-0.000126019
5.46712e-05
-0.000105646
4.70396e-05
-8.17866e-05
3.89152e-05
-5.68662e-05
3.0596e-05
-3.32677e-05
2.2804e-05
-1.17495e-05
1.58543e-05
7.08659e-06
9.78813e-06
2.29307e-05
4.60188e-06
3.57933e-05
2.31503e-07
4.61848e-05
-3.41557e-06
-6.40947e-06
5.41674e-05
-2.85593e-05
6.25448e-06
-5.59068e-05
1.80885e-05
-8.23284e-05
2.90982e-05
-0.000108318
3.97197e-05
-0.000133656
5.01648e-05
-0.0001577
6.03534e-05
-0.000179619
7.00303e-05
-0.00019851
7.88441e-05
-0.000213804
8.64382e-05
-0.000224795
9.2525e-05
-0.000230734
9.68034e-05
-0.000231153
9.8943e-05
-0.000226462
9.87547e-05
-0.000217009
9.60864e-05
-0.000203695
9.10086e-05
-0.000188522
8.43323e-05
-0.00017218
7.69816e-05
-0.000154794
6.93122e-05
-0.000136592
6.15152e-05
-0.000117621
5.37912e-05
-9.65176e-05
4.59781e-05
-7.24705e-05
3.77325e-05
-4.77536e-05
2.93551e-05
-2.44447e-05
2.15367e-05
-3.11323e-06
1.45605e-05
1.58858e-05
8.42693e-06
3.24714e-05
3.10182e-06
4.67985e-05
-1.49144e-06
5.92317e-05
-5.4624e-06
-8.84688e-06
6.92645e-05
-2.55182e-05
5.78828e-06
-5.01446e-05
1.6757e-05
-7.41864e-05
2.6997e-05
-9.80776e-05
3.69126e-05
-0.000121579
4.66974e-05
-0.000144043
5.62671e-05
-0.000164662
6.53782e-05
-0.000182593
7.37055e-05
-0.000197176
8.09113e-05
-0.000207972
8.66979e-05
-0.000214422
9.07869e-05
-0.000216352
9.30462e-05
-0.000213724
9.34409e-05
-0.000206209
9.18603e-05
-0.000193888
8.80583e-05
-0.000178589
8.21827e-05
-0.00016178
7.50513e-05
-0.000143735
6.73599e-05
-0.000124879
5.95024e-05
-0.000105275
5.17094e-05
-8.39241e-05
4.38443e-05
-6.02098e-05
3.5632e-05
-3.61063e-05
2.73524e-05
-1.33624e-05
1.96321e-05
7.62089e-06
1.27167e-05
2.66175e-05
6.58742e-06
4.35998e-05
1.19767e-06
5.87917e-05
-3.52485e-06
7.24986e-05
-7.66706e-06
-1.12016e-05