/*--------------------------------*- C++ -*----------------------------------*\
| =========                 |                                                 |
| \\      /  F ield         | OpenFOAM: The Open Source CFD Toolbox           |
|  \\    /   O peration     | Version:  dev                                   |
|   \\  /    A nd           | Web:      www.OpenFOAM.org                      |
|    \\/     M anipulation  |                                                 |
\*---------------------------------------------------------------------------*/
FoamFile
{
    version     2.0;
    format      ascii;
    class       surfaceScalarField;
    location    "0.98";
    object      phi;
}
// * * * * * * * * * * * * * * * * * * * * * * * * * * * * * * * * * * * * * //

dimensions      [0 3 -1 0 0 0 0];

internalField   nonuniform List<scalar> 
5457
(
0.197892
0.00210526
0.195636
0.00225694
0.193188
0.00245469
0.190497
0.00270258
0.187557
0.00295593
0.184366
0.00320863
0.180918
0.00346653
0.177201
0.00373292
0.1732
0.0040123
0.168898
0.0043097
0.164273
0.00462651
0.159303
0.00496505
0.153967
0.00532785
0.148236
0.0057174
0.142085
0.00613599
0.135483
0.0065856
0.128399
0.00706739
0.120803
0.00758145
0.112662
0.00812696
0.103949
0.00870164
0.0946402
0.00930061
0.0847183
0.00991561
0.0741793
0.0105345
0.0630363
0.0111397
0.0513279
0.0117063
0.039129
0.0121975
0.0265692
0.012559
0.013909
0.0126598
0.00225585
0.011653
0.00225581
0.199666
0.0024357
0.19871
0.00321411
0.197435
0.00373609
0.195868
0.00428141
0.194002
0.00483746
0.191836
0.00539344
0.189364
0.00595621
0.186579
0.00653466
0.183465
0.00713868
0.180006
0.00777559
0.176185
0.00844915
0.171981
0.00916468
0.167373
0.00992775
0.162333
0.0107437
0.156836
0.0116178
0.15085
0.0125548
0.144343
0.0135581
0.13728
0.0146296
0.129624
0.0157692
0.12134
0.0169746
0.112393
0.0182388
0.102753
0.0195492
0.0923967
0.0208858
0.0813132
0.02222
0.0695099
0.0235074
0.0570319
0.0246741
0.0439958
0.0255943
0.0306738
0.0259813
0.0172562
0.0250704
0.019512
0.199523
0.00290921
0.198638
0.00409996
0.197434
0.00494599
0.195963
0.00576369
0.194226
0.00659058
0.192218
0.00741989
0.189937
0.00825592
0.187373
0.00911518
0.184512
0.0100125
0.181341
0.0109538
0.177846
0.0119465
0.174008
0.0129993
0.169806
0.0141208
0.165217
0.0153196
0.160216
0.016604
0.154771
0.0179827
0.14885
0.019463
0.142413
0.0210511
0.135417
0.0227511
0.127816
0.0245638
0.11956
0.0264864
0.110593
0.0285097
0.100857
0.0306161
0.0902896
0.0327844
0.078818
0.0349766
0.066369
0.0371216
0.0528542
0.0391082
0.0380279
0.040807
0.0207697
0.0423284
0.0402816
0.199431
0.0034744
0.198548
0.00498251
0.19736
0.00614062
0.195905
0.00723043
0.194192
0.00831957
0.192218
0.00941218
0.18998
0.0105128
0.187471
0.0116417
0.184679
0.0128175
0.181594
0.0140464
0.178204
0.0153387
0.174495
0.0167058
0.170448
0.0181591
0.166045
0.0197101
0.161264
0.0213701
0.156079
0.0231512
0.150459
0.0250657
0.144366
0.0271284
0.137754
0.0293493
0.130572
0.0317343
0.122757
0.0342919
0.114233
0.0370269
0.104909
0.0399342
0.0946773
0.0430128
0.083382
0.0462693
0.0708003
0.0497016
0.0566265
0.0532809
0.0404459
0.056987
0.0215396
0.0612344
0.0618211
0.199383
0.00408707
0.198492
0.00587322
0.197316
0.00732258
0.195875
0.00868273
0.194182
0.0100289
0.192236
0.0113769
0.19003
0.0127374
0.187557
0.0141321
0.184809
0.0155795
0.181775
0.0170891
0.178444
0.0186732
0.174801
0.0203454
0.170833
0.0221199
0.16652
0.0240107
0.161843
0.0260321
0.156779
0.0281989
0.151299
0.0305292
0.145365
0.033046
0.138932
0.0357677
0.131944
0.0387104
0.124331
0.0418954
0.115995
0.0453549
0.106812
0.0491123
0.0966366
0.0531836
0.085278
0.0576249
0.0724365
0.062541
0.0576876
0.0680285
0.0405728
0.074101
0.0211145
0.0806923
0.0829356
0.19936
0.00472186
0.198461
0.00677111
0.197297
0.00849217
0.195877
0.0101151
0.194209
0.0117129
0.192296
0.0133093
0.190128
0.0149248
0.187695
0.0165821
0.184992
0.0182968
0.182009
0.0200823
0.178732
0.0219539
0.175148
0.0239274
0.171241
0.0260194
0.166994
0.0282463
0.162386
0.0306255
0.157394
0.0331748
0.151984
0.0359226
0.146119
0.0388944
0.139756
0.0421162
0.132828
0.045626
0.125256
0.049457
0.11694
0.0536636
0.10773
0.0583161
0.097428
0.0634806
0.0858108
0.0692386
0.0726137
0.0757356
0.0574242
0.0832163
0.0397209
0.0918033
0.0201892
0.100224
0.103125
0.199351
0.00536525
0.198451
0.00766933
0.197302
0.00964637
0.195907
0.011522
0.194271
0.0133649
0.192394
0.015206
0.190267
0.0170715
0.187883
0.0189848
0.185233
0.0209616
0.182307
0.0230188
0.179091
0.0251742
0.175571
0.0274466
0.171729
0.0298547
0.167547
0.0324175
0.163002
0.0351562
0.158068
0.0380933
0.15271
0.0412639
0.146887
0.0447007
0.140549
0.0484393
0.133621
0.0525421
0.126003
0.0570637
0.117594
0.0620637
0.108251
0.0676519
0.0977531
0.0739736
0.0858204
0.0811673
0.0722096
0.0893435
0.056656
0.0987679
0.0386613
0.109797
0.0192551
0.119629
0.12238
0.199349
0.00600924
0.198456
0.00856096
0.197326
0.0107811
0.19596
0.0128992
0.19436
0.0149807
0.192524
0.0170615
0.190446
0.0191705
0.188118
0.0213319
0.18553
0.0235653
0.182671
0.0258891
0.179526
0.0283247
0.176079
0.0308936
0.172312
0.0336166
0.168203
0.0365158
0.16373
0.0396164
0.158858
0.0429491
0.153554
0.0465518
0.14777
0.0504681
0.141444
0.0547509
0.134499
0.0594736
0.126835
0.0647163
0.118314
0.0705754
0.108771
0.0771862
0.0980271
0.0847118
0.0857989
0.0933908
0.071785
0.103354
0.0558976
0.114653
0.0377555
0.127937
0.0185131
0.138871
0.140893
0.199354
0.00664752
0.198471
0.00944137
0.197364
0.0118924
0.196031
0.0142431
0.194472
0.0165556
0.192685
0.0188687
0.190663
0.0212133
0.188399
0.0236162
0.185881
0.0260993
0.1831
0.0286831
0.180037
0.0313946
0.176674
0.0342576
0.172994
0.037293
0.168973
0.0405278
0.164585
0.0439911
0.159796
0.0477231
0.154563
0.0517689
0.148835
0.0561802
0.142534
0.0610361
0.135582
0.066412
0.127883
0.072403
0.119286
0.079162
0.109592
0.086872
0.0985987
0.0956979
0.0860968
0.105887
0.0717734
0.117673
0.0555828
0.130841
0.0372708
0.146248
0.0181255
0.158016
0.159018
0.199362
0.0072769
0.198496
0.0103034
0.197417
0.0129753
0.196121
0.0155495
0.194609
0.0180839
0.192878
0.0206203
0.19092
0.0231926
0.188727
0.0258293
0.18629
0.0285545
0.183593
0.0313932
0.180622
0.0343747
0.177357
0.0375247
0.173779
0.040868
0.169864
0.0444349
0.165584
0.0482593
0.160898
0.0523957
0.155759
0.0568919
0.150116
0.0618075
0.143894
0.0672424
0.136997
0.0732953
0.129296
0.080091
0.120667
0.0877799
0.110915
0.0966145
0.0997794
0.106825
0.0870897
0.11857
0.0725728
0.132185
0.0561237
0.147286
0.037604
0.164765
0.0184085
0.17721
0.177426
0.199374
0.00789292
0.19853
0.0111427
0.197482
0.0140265
0.196228
0.0168136
0.194769
0.0195599
0.193099
0.0223103
0.191212
0.0251015
0.189099
0.0279634
0.186749
0.0309231
0.184147
0.0340106
0.18128
0.0372518
0.17813
0.0406785
0.174672
0.0443243
0.170884
0.0482169
0.166732
0.0524005
0.162177
0.0569376
0.157175
0.0618791
0.151657
0.0673094
0.145556
0.0733287
0.138783
0.0800534
0.131196
0.0876648
0.122631
0.0963326
0.112938
0.106297
0.101877
0.117876
0.0891844
0.131256
0.0746017
0.146762
0.0579997
0.163885
0.0393187
0.183444
0.0198636
0.196664
0.19729
0.19939
0.00849116
0.198569
0.011958
0.197556
0.0150422
0.19635
0.0180299
0.194948
0.0209779
0.193346
0.0239327
0.191537
0.0269331
0.189511
0.0300106
0.187259
0.0331956
0.184767
0.0365193
0.182019
0.040011
0.178995
0.0437078
0.175676
0.047644
0.172037
0.051851
0.168039
0.0563892
0.16365
0.0613148
0.158826
0.0666887
0.153501
0.0726195
0.147592
0.0792228
0.141012
0.086619
0.13366
0.0950027
0.125345
0.104634
0.115916
0.115714
0.105173
0.128609
0.0927761
0.143645
0.0784533
0.161079
0.0620093
0.180324
0.0433976
0.202054
0.0234745
0.216587
0.220764
0.199408
0.00907012
0.198614
0.0127452
0.19764
0.0160178
0.196486
0.0191936
0.195147
0.0223326
0.193619
0.0254816
0.191894
0.0286803
0.189965
0.0319625
0.187821
0.0353604
0.185452
0.0389067
0.182833
0.0426422
0.17995
0.0465984
0.17679
0.0508064
0.173323
0.0553156
0.169517
0.0601873
0.165339
0.0654829
0.160734
0.0712803
0.155658
0.077681
0.150048
0.0848182
0.143795
0.0928583
0.136811
0.101972
0.128975
0.112456
0.120087
0.124589
0.10998
0.138704
0.0983735
0.155242
0.0849874
0.174458
0.0694737
0.195833
0.0516747
0.21985
0.0313589
0.236902
0.252123
0.199426
0.00962874
0.198664
0.0134996
0.197734
0.0169489
0.196635
0.0203011
0.195364
0.0236195
0.193915
0.0269509
0.192282
0.0303363
0.190458
0.0338107
0.188433
0.0374074
0.186192
0.0411666
0.183717
0.0451317
0.180999
0.0493262
0.178018
0.0537913
0.174745
0.0585881
0.171159
0.0637675
0.167233
0.0694
0.162918
0.0755833
0.158165
0.0824208
0.152937
0.0900321
0.147159
0.0986225
0.140726
0.10839
0.133587
0.11958
0.125605
0.132557
0.116666
0.147631
0.106619
0.165278
0.0953056
0.185764
0.0823178
0.208817
0.0675228
0.234643
0.0482521
0.256172
0.300375
0.199444
0.0101681
0.198714
0.0142199
0.197829
0.0178337
0.196788
0.0213508
0.195586
0.0248364
0.19422
0.028338
0.192682
0.0318974
0.190966
0.0355504
0.189064
0.0393324
0.186957
0.0432941
0.184636
0.0474692
0.18209
0.0518832
0.179298
0.0565899
0.176244
0.0616427
0.172902
0.0671064
0.169247
0.0730474
0.165265
0.0795558
0.160909
0.0867649
0.156131
0.0947971
0.150916
0.103823
0.145215
0.114077
0.139013
0.125766
0.132319
0.139235
0.125126
0.154811
0.117549
0.172845
0.109788
0.193517
0.101929
0.21667
0.0946086
0.241962
0.0838267
0.266953
0.384203
0.00701241
-0.007013
0.0106996
-0.00369002
0.0129184
-0.00222752
0.0135438
-0.000643606
0.0122563
0.00125996
0.00902368
0.0031996
0.00410118
0.00488912
-0.0020984
0.00616844
-0.00918864
0.00706124
-0.0168987
0.00768508
-0.0250054
0.00808719
-0.0333091
0.00828675
-0.0416174
0.00829218
-0.0497362
0.00810416
-0.057478
0.00772951
-0.0646707
0.00718382
-0.0711422
0.00646725
-0.0766915
0.00555029
-0.0811305
0.00444587
-0.0842773
0.00315974
-0.0859316
0.00167342
-0.0858787
-2.80228e-05
-0.0837852
-0.00206317
-0.0792961
-0.00445387
-0.0721063
-0.00715057
-0.0618863
-0.0101772
-0.0480841
-0.0137564
-0.0292287
-0.0188072
-0.00210277
-0.0270759
-0.0335461
0.00163367
-0.0086473
0.0023125
-0.00437183
0.00137757
-0.0013017
-0.00131545
0.00203095
-0.00555996
0.00547694
-0.0111614
0.0087686
-0.0178821
0.0115772
-0.0254873
0.0137434
-0.0337576
0.0153033
-0.0424674
0.0163702
-0.0514246
0.0170247
-0.0604662
0.0173114
-0.0694366
0.0172462
-0.0781563
0.0168089
-0.0864517
0.0160124
-0.0941503
0.0148733
-0.101059
0.0133716
-0.106999
0.0114911
-0.111784
0.00923701
-0.115231
0.00662005
-0.117171
0.00363137
-0.117427
0.000253303
-0.115846
-0.00361417
-0.112274
-0.00799111
-0.106564
-0.0128211
-0.0985825
-0.0181163
-0.0882132
-0.02408
-0.0756986
-0.0312738
-0.063087
-0.0396376
-0.0468579
-0.00170931
-0.00693866
-0.00429958
-0.00178473
-0.00805366
0.00244301
-0.0130054
0.00696437
-0.0190875
0.0115324
-0.0260897
0.01574
-0.033804
0.0192608
-0.0420793
0.0219899
-0.0507921
0.023989
-0.0597949
0.0253486
-0.068961
0.026171
-0.0781668
0.0264997
-0.0872741
0.0263367
-0.0961451
0.0256645
-0.104627
0.0244808
-0.112551
0.0227883
-0.119743
0.0205576
-0.126037
0.0177853
-0.131258
0.0144647
-0.135235
0.0106093
-0.137823
0.00623677
-0.138874
0.00132848
-0.138315
-0.00414301
-0.136104
-0.0101683
-0.132196
-0.0166902
-0.12663
-0.0236406
-0.119606
-0.0310579
-0.111763
-0.0390692
-0.104097
-0.0472543
-0.0541498
-0.00409144
-0.00284795
-0.00912611
0.00324661
-0.0150384
0.00834592
-0.0217984
0.0137067
-0.0292259
0.0189352
-0.0371305
0.0236165
-0.0453965
0.0274988
-0.0539612
0.0305279
-0.0627886
0.0327907
-0.0718182
0.0343546
-0.0809661
0.0352988
-0.0901476
0.0356633
-0.0992513
0.0354229
-0.108162
0.0345595
-0.116741
0.0330455
-0.124827
0.0308634
-0.132261
0.0279857
-0.138879
0.0244033
-0.144513
0.0201032
-0.148991
0.0150987
-0.152179
0.00944208
-0.153969
0.00314223
-0.154331
-0.00375226
-0.153288
-0.0111782
-0.150871
-0.0190691
-0.147205
-0.0272647
-0.142587
-0.0356311
-0.137583
-0.0440261
-0.132825
-0.0519628
-0.0583132
-0.00578996
0.00294123
-0.012719
0.0101723
-0.0203397
0.0159574
-0.0284157
0.0217661
-0.0367161
0.0272134
-0.0451134
0.0319888
-0.0535929
0.0359531
-0.0621846
0.039095
-0.0709153
0.0414974
-0.0797964
0.0432129
-0.0887837
0.0442659
-0.0978142
0.0446752
-0.106806
0.0443962
-0.11565
0.0433869
-0.124219
0.0415996
-0.132366
0.0389993
-0.139935
0.0355477
-0.146764
0.031231
-0.152699
0.0260422
-0.157586
0.0199955
-0.161298
0.0131709
-0.163762
0.00562853
-0.164965
-0.00252149
-0.164949
-0.0111622
-0.163793
-0.0201875
-0.161661
-0.0293559
-0.158855
-0.0383925
-0.155835
-0.0469997
-0.153085
-0.0546643
-0.060487
-0.00704469
0.00998511
-0.0155007
0.0186247
-0.0243384
0.0247862
-0.0332176
0.0306304
-0.0419307
0.035907
-0.0504469
0.0404833
-0.0588454
0.0443293
-0.0672391
0.0474663
-0.075706
0.0499419
-0.0842961
0.0517811
-0.0930059
0.0529556
-0.101789
0.0534393
-0.110577
0.0531653
-0.119275
0.0520665
-0.127761
0.0500706
-0.135898
0.0471239
-0.143538
0.0431803
-0.150524
0.0382142
-0.156714
0.0322351
-0.161976
0.0252665
-0.166186
0.0173966
-0.169274
0.00873791
-0.171229
-0.000539854
-0.172105
-0.010255
-0.172014
-0.0202418
-0.171127
-0.030203
-0.169721
-0.0397546
-0.168175
-0.0485005
-0.166886
-0.0559051
-0.0612729
-0.00805325
0.0180375
-0.0176091
0.0281772
-0.0271573
0.0343263
-0.0363258
0.0397858
-0.0450033
0.0445676
-0.0532819
0.0487432
-0.0613346
0.0523623
-0.0693327
0.0554442
-0.0773955
0.0579839
-0.0855904
0.059955
-0.0939344
0.0612795
-0.102399
0.0618838
-0.110922
0.0616691
-0.119415
0.0605413
-0.127768
0.058407
-0.135846
0.055189
-0.143515
0.0508404
-0.150633
0.0453287
-0.157062
0.0386665
-0.16268
0.0308918
-0.167369
0.0220995
-0.17105
0.0124391
-0.173694
0.00212987
-0.175357
-0.00856054
-0.176182
-0.0193823
-0.176324
-0.0300212
-0.176031
-0.0400057
-0.175621
-0.0488651
-0.175433
-0.0560453
-0.0610342
-0.00881199
0.0268487
-0.0190368
0.0383989
-0.0287618
0.044044
-0.0376898
0.0487026
-0.0458924
0.052756
-0.0536077
0.0564425
-0.0610856
0.0598228
-0.068529
0.0628692
-0.0760758
0.0655113
-0.083798
0.0676571
-0.0917189
0.0691803
-0.0998174
0.0699623
-0.108038
0.06987
-0.116295
0.0687792
-0.124485
0.0665802
-0.13249
0.0631805
-0.140182
0.0585227
-0.147431
0.0525729
-0.154101
0.0453369
-0.160064
0.0368621
-0.165207
0.0272557
-0.169446
0.0166969
-0.172745
0.0054529
-0.175138
-0.00613749
-0.176759
-0.0177269
-0.177766
-0.0289766
-0.178373
-0.0393566
-0.178861
-0.048333
-0.179525
-0.0553341
-0.0600093
-0.00929449
0.0361423
-0.0196819
0.0487834
-0.0289778
0.0533336
-0.0371183
0.0568335
-0.0444386
0.0600643
-0.0513122
0.0633022
-0.0580331
0.0665283
-0.0648051
0.0696243
-0.0717609
0.0724488
-0.0789649
0.0748419
-0.0864367
0.0766323
-0.0941514
0.0776568
-0.102053
0.0777518
-0.110064
0.0767708
-0.118089
0.0745879
-0.126023
0.0711002
-0.133745
0.0662349
-0.141129
0.0599512
-0.148042
0.05225
-0.154357
0.0431834
-0.15996
0.0328702
-0.164757
0.0215118
-0.168689
0.00940859
-0.171757
-0.00304103
-0.174079
-0.0153719
-0.175822
-0.0271963
-0.177174
-0.037964
-0.178384
-0.0470794
-0.179721
-0.0539507
-0.0583647
-0.00944101
0.0455826
-0.0193383
0.0586782
-0.0274977
0.0614877
-0.0343069
0.0636348
-0.0403979
0.0661451
-0.0462246
0.0691167
-0.0520707
0.0723604
-0.0581112
0.0756492
-0.0644522
0.0787727
-0.0711338
0.081505
-0.0781565
0.0836354
-0.0854843
0.0849646
-0.0930636
0.085311
-0.100826
0.0845144
-0.10869
0.0824339
-0.116557
0.0789527
-0.124317
0.073984
-0.131849
0.067477
-0.139025
0.0594256
-0.145718
0.0498811
-0.151804
0.0389673
-0.157174
0.0268981
-0.161737
0.0139941
-0.165439
0.000688273
-0.168378
-0.0124009
-0.170765
-0.0247726
-0.172747
-0.0359422
-0.174551
-0.0452326
-0.176432
-0.0520244
-0.0562273
-0.00911706
0.054699
-0.0176196
0.0671786
-0.0238391
0.0677027
-0.0288453
0.0686342
-0.0334748
0.0707657
-0.0381564
0.0737874
-0.0431131
0.0773043
-0.0484471
0.0809685
-0.0542039
0.084513
-0.0603809
0.087664
-0.0669573
0.0901927
-0.0738937
0.0918812
-0.0811446
0.092542
-0.0886534
0.0920041
-0.0963491
0.0901123
-0.104146
0.0867353
-0.111946
0.0817724
-0.119636
0.0751607
-0.127094
0.0668825
-0.134187
0.0569775
-0.140769
0.0455602
-0.146699
0.0328434
-0.151856
0.0191729
-0.156215
0.00507321
-0.159806
-0.00877856
-0.162787
-0.0217564
-0.165323
-0.0333678
-0.167631
-0.0428831
-0.169965
-0.0496454
-0.053675
-0.00794981
0.0626482
-0.013799
0.0730259
-0.017312
0.0712119
-0.0202573
0.0715735
-0.0234291
0.0739294
-0.0270556
0.0774038
-0.0312198
0.0814563
-0.0359216
0.0856563
-0.0411294
0.0897049
-0.0468128
0.09333
-0.0529392
0.0963006
-0.0594738
0.0983964
-0.0663791
0.0994278
-0.0736116
0.0992178
-0.0811141
0.0975976
-0.0888152
0.0944219
-0.0966303
0.0895764
-0.104462
0.0829857
-0.112194
0.0746131
-0.119687
0.0644737
-0.126779
0.0526611
-0.133309
0.0393882
-0.13915
0.0250349
-0.14422
0.0101678
-0.148464
-0.00450397
-0.152013
-0.0181732
-0.155063
-0.0302803
-0.15782
-0.0400851
-0.160553
-0.0468682
-0.0507457
-0.00489252
0.0675402
-0.00662005
0.0747517
-0.00718963
0.071778
-0.00833284
0.0727113
-0.0103401
0.0759292
-0.013137
0.0801911
-0.0166221
0.0849298
-0.0207305
0.0897511
-0.0254011
0.0943601
-0.0305912
0.0985031
-0.0362601
0.101952
-0.0423717
0.104489
-0.0488963
0.105933
-0.0558073
0.10611
-0.0630616
0.104835
-0.0706035
0.101949
-0.0783663
0.0973282
-0.0862751
0.0908876
-0.0942321
0.082568
-0.102104
0.0723484
-0.109725
0.0602909
-0.116925
0.0466024
-0.123551
0.0316799
-0.129438
0.0160793
-0.134383
0.000470432
-0.138482
-0.0140411
-0.142056
-0.0266697
-0.145254
-0.0368464
-0.14837
-0.0437098
-0.0474394
0.00189119
0.0656485
0.00481461
0.0718266
0.00655192
0.0700373
0.00654273
0.0727152
0.00538165
0.0770831
0.00330524
0.0822582
0.000442601
0.0877812
-0.00311368
0.0932941
-0.00727048
0.0985018
-0.0119647
0.103181
-0.0171606
0.10713
-0.022815
0.110125
-0.0289044
0.112005
-0.0354265
0.112615
-0.0423495
0.111742
-0.049631
0.109217
-0.0572223
0.104909
-0.0650811
0.0987396
-0.0731446
0.0906292
-0.0813025
0.0805091
-0.0894029
0.0683994
-0.0972641
0.0544769
-0.104678
0.0391122
-0.111377
0.0228019
-0.117207
0.00632808
-0.122111
-0.00910476
-0.126304
-0.0224403
-0.130006
-0.0331053
-0.133535
-0.0401385
-0.0437217
0.0156062
0.0500418
0.0217824
0.0656485
0.0231174
0.0686987
0.0234442
0.0723832
0.0229689
0.0775512
0.0215877
0.0836302
0.0193901
0.0899677
0.01648
0.0961912
0.0129295
0.102038
0.00880288
0.107292
0.00413937
0.111777
-0.00105611
0.115303
-0.00671994
0.117651
-0.0127882
0.118666
-0.0192749
0.118213
-0.0261663
0.116095
-0.0334193
0.112152
-0.0410365
0.10635
-0.0490078
0.0985984
-0.0572538
0.0887577
-0.0656432
0.0767965
-0.073989
0.0628355
-0.0821053
0.0472464
-0.0897764
0.0304957
-0.0967805
0.0133594
-0.102726
-0.00312822
-0.107696
-0.0174345
-0.112072
-0.0286917
-0.116125
-0.0360438
-0.0395191
0.20711
0.0106982
0.206396
0.0149226
0.205534
0.0186931
0.204525
0.022368
0.203364
0.0260137
0.202045
0.0296776
0.200564
0.0334025
0.198916
0.037224
0.197089
0.0411841
0.19507
0.045335
0.192856
0.049702
0.190428
0.0543253
0.187774
0.0592526
0.184891
0.0645286
0.181753
0.0702431
0.178338
0.0764572
0.174647
0.0832381
0.170664
0.0907374
0.16636
0.0990888
0.161765
0.108404
0.156916
0.118911
0.151853
0.130811
0.146732
0.144339
0.141805
0.159723
0.137577
0.177061
0.134899
0.196186
0.135184
0.21638
0.14092
0.236224
0.155645
0.252229
0.259685
0.280164
0.212148
0.0112122
0.21146
0.0155971
0.210636
0.0195126
0.209676
0.0233335
0.208578
0.027128
0.207334
0.0309427
0.205939
0.0348219
0.204389
0.0388008
0.202672
0.0429268
0.200786
0.0472443
0.198727
0.0517818
0.196475
0.0565932
0.194027
0.0617116
0.191374
0.0671876
0.188515
0.0731025
0.185452
0.0795177
0.18217
0.0865126
0.178685
0.0942131
0.175039
0.102724
0.17128
0.112151
0.167506
0.12267
0.163884
0.134415
0.160718
0.147487
0.158526
0.161899
0.158152
0.177423
0.160931
0.193398
0.168838
0.208467
0.184653
0.220408
0.209801
0.227081
0.234401
0.235086
0.217314
0.0117041
0.216658
0.0162367
0.21588
0.0202846
0.214979
0.0242374
0.213955
0.0281657
0.212799
0.0321197
0.211505
0.0361417
0.21007
0.0402627
0.20849
0.0445342
0.206762
0.048997
0.204878
0.0536876
0.202836
0.058654
0.200633
0.0639271
0.198264
0.0695651
0.195748
0.0756219
0.193098
0.0821666
0.190315
0.0892911
0.187447
0.0970737
0.184582
0.105579
0.181797
0.114925
0.179261
0.125192
0.177262
0.136396
0.176213
0.148518
0.176743
0.161353
0.179703
0.174449
0.18608
0.187012
0.196571
0.197971
0.210969
0.206009
0.227322
0.210728
0.213008
0.248716
0.222608
0.0121688
0.221993
0.0168349
0.221268
0.0210016
0.220435
0.0250715
0.219493
0.0291187
0.218435
0.033197
0.217259
0.0373428
0.215962
0.0415873
0.214538
0.0459864
0.212987
0.0505746
0.211308
0.0553902
0.209508
0.0604745
0.207587
0.0658631
0.205559
0.0716036
0.203441
0.0777459
0.201252
0.0843567
0.19904
0.0915015
0.196877
0.0992309
0.194863
0.107584
0.193136
0.116643
0.191932
0.126383
0.191573
0.136738
0.192482
0.14759
0.195191
0.158626
0.20024
0.169386
0.208012
0.179232
0.218493
0.187484
0.231315
0.193185
0.246293
0.19575
0.194336
0.264966
0.228035
0.0126021
0.227467
0.0173847
0.226804
0.0216549
0.226048
0.0258273
0.225197
0.0299781
0.224251
0.0341594
0.223212
0.0384057
0.222068
0.0427584
0.220816
0.0472672
0.219466
0.0519527
0.218028
0.0568528
0.216502
0.062022
0.214898
0.067485
0.21325
0.0732648
0.211571
0.0794327
0.209902
0.0860295
0.208318
0.0930853
0.20691
0.100635
0.205798
0.10869
0.205171
0.117262
0.20527
0.126273
0.206371
0.135622
0.208814
0.145128
0.212943
0.15448
0.219034
0.163282
0.227202
0.171054
0.237401
0.177279
0.249338
0.181246
0.262511
0.182576
0.180464
0.276384
0.233596
0.0129997
0.233081
0.0178796
0.232489
0.0222363
0.231821
0.0264943
0.231075
0.0307302
0.230256
0.0349928
0.229363
0.0393196
0.228387
0.0437596
0.227331
0.0483513
0.22621
0.0531023
0.225034
0.0580552
0.223807
0.0632722
0.222558
0.0687531
0.22132
0.0745179
0.220118
0.080645
0.219019
0.0871344
0.218108
0.0939983
0.217489
0.101253
0.217298
0.108876
0.217715
0.116838
0.218935
0.125043
0.221179
0.133365
0.224687
0.141604
0.229667
0.149485
0.236251
0.156685
0.24446
0.162834
0.254193
0.167539
0.265033
0.170403
0.276322
0.171286
0.169168
0.287618
0.239296
0.0133559
0.238841
0.0183128
0.238328
0.0227372
0.237757
0.027062
0.237131
0.0313622
0.236451
0.035685
0.235717
0.0400722
0.234926
0.0445742
0.234086
0.0492178
0.233213
0.0540025
0.232318
0.0589776
0.231422
0.0641919
0.230562
0.0696335
0.229762
0.0753347
0.229077
0.0813423
0.228582
0.087638
0.228357
0.0942268
0.228511
0.1011
0.229167
0.108217
0.230474
0.115526
0.232592
0.122918
0.235694
0.130251
0.239942
0.137343
0.245438
0.143976
0.252228
0.149884
0.260297
0.154756
0.269472
0.158357
0.27934
0.16053
0.289427
0.161197
0.159197
0.299397
0.245139
0.0136648
0.244751
0.018677
0.244325
0.0231491
0.243863
0.0275196
0.243367
0.0318613
0.24284
0.0362238
0.242276
0.0406528
0.241684
0.0451883
0.24108
0.0498466
0.240476
0.0546317
0.239891
0.0595889
0.23936
0.0647475
0.238911
0.070104
0.238578
0.0756858
0.238427
0.0815061
0.238525
0.0875503
0.23895
0.0938081
0.239801
0.100251
0.24119
0.106829
0.243243
0.11347
0.246087
0.120067
0.249842
0.126487
0.254595
0.132579
0.260396
0.138164
0.267266
0.143003
0.275128
0.146886
0.283775
0.149704
0.292907
0.151393
0.302193
0.151908
0.150106
0.311282
0.251129
0.0139202
0.250815
0.0189643
0.250485
0.0234627
0.250141
0.0278568
0.249786
0.0322186
0.249419
0.0366
0.249043
0.0410441
0.248672
0.0455787
0.248325
0.0502165
0.248014
0.0549678
0.247764
0.0598642
0.247609
0.0649255
0.247579
0.0701561
0.247716
0.0755671
0.24808
0.081157
0.248733
0.0869083
0.249754
0.0927949
0.251232
0.0987777
0.253261
0.1048
0.255944
0.110786
0.259371
0.116636
0.26361
0.122241
0.268707
0.127473
0.274708
0.132154
0.28159
0.136113
0.28922
0.139248
0.29742
0.141498
0.30598
0.142828
0.314657
0.143227
0.141633
0.323128
0.257268
0.014115
0.257038
0.0191664
0.256813
0.0236686
0.256597
0.028064
0.25639
0.0324246
0.256198
0.0367995
0.256029
0.041226
0.255899
0.0457275
0.255821
0.0503152
0.255814
0.0549982
0.255904
0.0597975
0.256124
0.0647289
0.256506
0.0697953
0.257096
0.0749954
0.25795
0.0803189
0.259127
0.0857433
0.260697
0.0912342
0.262735
0.0967454
0.26532
0.102218
0.268529
0.107578
0.272416
0.112747
0.277017
0.117635
0.28238
0.122103
0.288513
0.126013
0.29534
0.12928
0.30274
0.131841
0.310578
0.133654
0.318692
0.134709
0.326904
0.13501
0.133596
0.334938
0.263562
0.0142424
0.263422
0.0192755
0.26331
0.0237585
0.26323
0.0281324
0.263184
0.0324675
0.26318
0.0368086
0.263227
0.0411893
0.263342
0.0456288
0.26354
0.0501361
0.263841
0.0547187
0.26427
0.0593903
0.26486
0.0641606
0.265647
0.0690287
0.266675
0.0739859
0.267994
0.0790158
0.269659
0.0840917
0.271727
0.0891754
0.274262
0.0942178
0.277324
0.0991612
0.280966
0.103938
0.285221
0.108491
0.29012
0.112734
0.295684
0.116536
0.301877
0.119817
0.30862
0.122532
0.315822
0.124635
0.32337
0.126102
0.331138
0.126937
0.338994
0.127151
0.125881
0.346705
0.270011
0.0142966
0.269968
0.0192854
0.269976
0.0237259
0.27004
0.0280546
0.270162
0.0323391
0.270353
0.03662
0.270623
0.0409271
0.270988
0.0452767
0.271465
0.0496756
0.272074
0.0541289
0.27284
0.0586442
0.273796
0.0632254
0.274976
0.0678675
0.276422
0.0725577
0.278178
0.0772756
0.28029
0.0819926
0.282807
0.0866697
0.285777
0.0912556
0.289246
0.0956975
0.293248
0.0999403
0.29781
0.103932
0.302949
0.107595
0.308647
0.110836
0.31486
0.113602
0.321524
0.115865
0.32856
0.117595
0.335877
0.118783
0.343373
0.119437
0.350949
0.119572
0.118419
0.35841
0.27662
0.0142728
0.276678
0.0191907
0.276812
0.0235648
0.277025
0.0278242
0.277323
0.0320327
0.277714
0.0362271
0.278212
0.0404344
0.278831
0.0446682
0.279587
0.048933
0.280502
0.0532308
0.2816
0.0575642
0.282911
0.0619326
0.284469
0.0663273
0.28631
0.0707334
0.288472
0.0751277
0.290993
0.0794846
0.293906
0.0837675
0.297254
0.087916
0.301073
0.091885
0.305382
0.0956367
0.310195
0.099122
0.315513
0.10228
0.321305
0.105045
0.327525
0.107382
0.334119
0.10927
0.341019
0.110694
0.348149
0.111651
0.35543
0.112154
0.362782
0.112218
0.111158
0.370042
0.283391
0.0141666
0.283556
0.0189862
0.28382
0.0232701
0.284188
0.0274359
0.284665
0.0315431
0.285262
0.0356257
0.28599
0.0397084
0.286863
0.0438024
0.287897
0.0479097
0.289112
0.052029
0.290533
0.0561582
0.292187
0.0602948
0.294104
0.0644262
0.296312
0.0685396
0.298841
0.0726132
0.301726
0.0766119
0.305001
0.0805023
0.308691
0.0842352
0.312813
0.0877698
0.317379
0.0910753
0.322395
0.0941113
0.327848
0.0968307
0.333706
0.0991897
0.339925
0.101164
0.346457
0.102739
0.353244
0.103907
0.360223
0.104672
0.36733
0.105047
0.374501
0.105045
0.104063
0.381595
0.290328
0.0139744
0.290603
0.0186678
0.291002
0.022837
0.291529
0.0268855
0.292189
0.0308673
0.292992
0.0348141
0.29395
0.0387491
0.295075
0.0426805
0.296383
0.0466093
0.297892
0.0505308
0.299626
0.0544361
0.301607
0.0583269
0.303854
0.0621929
0.306398
0.0660089
0.309267
0.0697561
0.312489
0.0734009
0.31609
0.0769103
0.32008
0.0802532
0.324464
0.0833929
0.329246
0.0862988
0.334423
0.0889395
0.33998
0.091279
0.345886
0.0932882
0.3521
0.0949521
0.358579
0.0962615
0.365272
0.0972144
0.372127
0.097817
0.379091
0.0980828
0.386111
0.0980244
0.097108
0.393067
0.297433
0.0136931
0.297822
0.018232
0.29836
0.0222616
0.299049
0.0261691
0.299893
0.0300036
0.300902
0.0337939
0.302086
0.0375593
0.303461
0.0413048
0.305039
0.0450352
0.30683
0.0487465
0.308858
0.0524173
0.311145
0.0560499
0.313707
0.0596412
0.316569
0.0631574
0.319758
0.0665772
0.323288
0.0698801
0.32717
0.0730366
0.331413
0.0760179
0.336017
0.0787943
0.34098
0.0813414
0.346292
0.0836331
0.351935
0.0856413
0.357878
0.0873491
0.364086
0.0887473
0.370519
0.0898309
0.377134
0.0906016
0.383885
0.0910667
0.390728
0.0912395
0.397621
0.0911315
0.0902726
0.404457
0.304709
0.0133207
0.305215
0.0176764
0.305896
0.02154
0.306752
0.0252814
0.307782
0.0289507
0.308989
0.0325709
0.310392
0.0361471
0.312007
0.0396855
0.313844
0.0431977
0.315914
0.0466799
0.318227
0.0501094
0.320804
0.0534793
0.323668
0.0567855
0.326829
0.0600039
0.330302
0.0631122
0.334099
0.0660901
0.338227
0.0689143
0.34269
0.0715607
0.347484
0.0740053
0.3526
0.0762295
0.358027
0.0782123
0.363741
0.0799321
0.369715
0.0813791
0.375917
0.0825489
0.38231
0.0834399
0.388857
0.0840558
0.39552
0.0844046
0.402261
0.0844988
0.409044
0.0843489
0.0835428
0.415774
0.312162
0.0128549
0.312785
0.017
0.313608
0.0206721
0.314629
0.0242254
0.315842
0.0277109
0.317251
0.0311418
0.318873
0.0345117
0.320721
0.0378295
0.322806
0.0411084
0.325141
0.0443439
0.32773
0.0475211
0.330585
0.0506279
0.333721
0.0536535
0.33715
0.0565796
0.34088
0.059387
0.344917
0.062057
0.349265
0.0645705
0.353922
0.0669079
0.358879
0.0690502
0.364128
0.0709843
0.369651
0.0726938
0.375426
0.0741615
0.381426
0.0753823
0.387622
0.0763555
0.393982
0.0770819
0.400472
0.0775664
0.40706
0.0778174
0.413712
0.0778462
0.420398
0.0776625
0.0769063
0.427035
0.319796
0.0122932
0.320537
0.0162016
0.321499
0.0196616
0.322677
0.0230081
0.32407
0.0262862
0.325686
0.0295023
0.327529
0.0326508
0.329607
0.0357386
0.331932
0.0387755
0.334512
0.0417585
0.337354
0.0446762
0.340465
0.0475158
0.343855
0.0502643
0.34753
0.052906
0.351494
0.0554246
0.355748
0.0578038
0.360292
0.0600279
0.36512
0.0620811
0.370222
0.0639489
0.375585
0.0656226
0.381192
0.0670898
0.38702
0.0683364
0.393044
0.0693608
0.399236
0.0701647
0.405567
0.0707507
0.41201
0.0711243
0.418533
0.0712937
0.425109
0.0712694
0.43171
0.07106
0.0703528
0.438262
0.327613
0.0116346
0.328472
0.0152812
0.329572
0.0185097
0.330907
0.0216292
0.33248
0.0246776
0.334295
0.0276598
0.33635
0.0305728
0.338651
0.0334206
0.341205
0.0362088
0.344019
0.0389349
0.347099
0.0415897
0.350448
0.0441613
0.354072
0.0466369
0.357972
0.049003
0.362149
0.0512455
0.366601
0.0533507
0.371321
0.0553055
0.376302
0.0570978
0.381532
0.0587165
0.386997
0.0601566
0.392679
0.0614087
0.398555
0.0624613
0.404601
0.063315
0.410792
0.0639734
0.417102
0.06444
0.423504
0.0647206
0.429973
0.0648231
0.436483
0.064757
0.44301
0.0645302
0.0638721
0.449489
0.335617
0.0108792
0.336593
0.0142398
0.33783
0.0172159
0.339323
0.0200886
0.341072
0.022889
0.343077
0.0256221
0.345337
0.0282867
0.347851
0.0308846
0.350625
0.0334179
0.353662
0.0358839
0.356965
0.0382747
0.360537
0.04058
0.364378
0.0427884
0.368486
0.0448881
0.372858
0.0468672
0.377489
0.0487143
0.38237
0.0504191
0.387491
0.0519718
0.392837
0.0533644
0.398395
0.0545948
0.404146
0.0556559
0.410068
0.0565381
0.416137
0.0572435
0.422331
0.0577771