/*--------------------------------*- C++ -*----------------------------------*\
| =========                 |                                                 |
| \\      /  F ield         | OpenFOAM: The Open Source CFD Toolbox           |
|  \\    /   O peration     | Version:  dev                                   |
|   \\  /    A nd           | Web:      www.OpenFOAM.org                      |
|    \\/     M anipulation  |                                                 |
\*---------------------------------------------------------------------------*/
FoamFile
{
    version     2.0;
    format      ascii;
    class       volVectorField;
    location    "0.98";
    object      U;
}
// * * * * * * * * * * * * * * * * * * * * * * * * * * * * * * * * * * * * * //

dimensions      [0 1 -1 0 0 0 0];

internalField   nonuniform List<vector> 
2790
(
(9.93113 0 0.0189541)
(9.86209 2.99309e-21 0.0264708)
(9.76664 3.12136e-21 0.0314435)
(9.64873 1.94388e-20 0.0365297)
(9.51567 -2.69772e-20 0.0418132)
(9.36959 0 0.047251)
(9.20992 0 0.0529522)
(9.03579 0 0.0590596)
(8.84648 0 0.0657005)
(8.64125 8.27571e-21 0.07299)
(8.41927 0 0.0810437)
(8.17944 0 0.0899862)
(7.92057 0 0.0999554)
(7.64132 0 0.111102)
(7.34025 8.23432e-20 0.123588)
(7.01585 -6.3756e-20 0.137587)
(6.66655 1.79802e-19 0.153268)
(6.29083 -1.85878e-19 0.170797)
(5.88724 4.87981e-20 0.190332)
(5.45454 -1.54157e-19 0.212011)
(4.99181 2.11899e-19 0.235909)
(4.49858 3.35692e-19 0.26201)
(3.97513 -3.45076e-19 0.290173)
(3.42266 0 0.320074)
(2.84364 1.2474e-19 0.351121)
(2.24212 0 0.382305)
(1.62409 1.06014e-18 0.411815)
(1.00004 -1.07402e-18 0.433095)
(0.318712 0 0.378987)
(-0.140073 0 -0.211207)
(9.99432 5.77399e-21 0.0376339)
(9.9844 5.97943e-21 0.054687)
(9.94971 -1.24143e-20 0.0668677)
(9.89071 -6.40174e-23 0.0798076)
(9.81368 2.67896e-20 0.0937047)
(9.72094 8.40566e-20 0.108373)
(9.61216 -8.72424e-20 0.124)
(9.48665 -6.08594e-20 0.140897)
(9.34378 3.13896e-20 0.15936)
(9.18291 -8.22432e-21 0.179654)
(9.00329 1.7125e-20 0.20204)
(8.80394 -1.34569e-19 0.226808)
(8.5837 1.45952e-19 0.254275)
(8.34128 1.46385e-19 0.284778)
(8.07528 -1.4101e-19 0.318664)
(7.78416 -2.1141e-20 0.356286)
(7.46631 0 0.397954)
(7.12009 3.70429e-19 0.443914)
(6.74387 3.42743e-19 0.494337)
(6.33614 -1.65503e-18 0.549258)
(5.89556 1.67355e-18 0.608452)
(5.42116 9.76311e-19 0.671327)
(4.91244 -3.39824e-19 0.736793)
(4.36965 0 0.803081)
(3.79397 1.8357e-18 0.867419)
(3.18792 -2.00443e-18 0.92546)
(2.55573 -2.06828e-18 0.969958)
(1.907 2.09447e-18 0.985314)
(1.19716 -3.69074e-18 0.930902)
(0.762746 8.38702e-18 0.749997)
(9.99159 0 0.0389233)
(9.97914 9.54393e-20 0.063496)
(9.94693 -2.48469e-20 0.0837079)
(9.89286 -2.58555e-20 0.105028)
(9.82198 -5.38268e-20 0.128006)
(9.73673 5.57555e-20 0.152481)
(9.63701 2.90785e-20 0.178666)
(9.52221 6.04717e-20 0.207002)
(9.39181 1.57895e-19 0.237951)
(9.24531 -1.30652e-19 0.271927)
(9.08212 -2.91244e-19 0.309355)
(8.9014 5.42202e-19 0.350721)
(8.70218 -5.94931e-19 0.396558)
(8.48333 6.75084e-21 0.447435)
(8.2436 3.00117e-19 0.503949)
(7.98163 0 0.566719)
(7.69592 0 0.636326)
(7.38482 6.42047e-19 0.713253)
(7.04661 -7.55919e-19 0.797884)
(6.67956 5.98422e-19 0.890416)
(6.28189 8.3724e-19 0.99066)
(5.85181 1.49213e-18 1.09785)
(5.38765 9.05532e-22 1.21045)
(4.88779 2.30091e-19 1.32587)
(4.35061 0 1.43996)
(3.77433 -4.89573e-19 1.54621)
(3.15559 -5.01698e-19 1.63449)
(2.49066 5.10458e-19 1.68784)
(1.71883 -5.1464e-19 1.68284)
(1.05316 1.09802e-18 1.60447)
(9.9897 0 0.0425392)
(9.97486 1.19052e-19 0.0762664)
(9.94254 -2.47608e-20 0.105937)
(9.88953 -5.16268e-20 0.136022)
(9.82006 5.35057e-20 0.16773)
(9.73664 0 0.201244)
(9.63934 1.74278e-19 0.236914)
(9.52765 -1.80678e-19 0.275333)
(9.40117 0 0.317131)
(9.2596 0 0.362873)
(9.10252 0 0.413138)
(8.92934 2.84245e-19 0.468599)
(8.73935 7.18651e-21 0.529994)
(8.53173 -9.21867e-19 0.598102)
(8.30557 6.35968e-19 0.673752)
(8.05985 -4.15202e-20 0.757821)
(7.79352 0 0.851197)
(7.50524 3.15481e-22 0.954677)
(7.19345 0 1.06895)
(6.85666 1.95649e-19 1.19454)
(6.4931 0 1.33161)
(6.10062 1.0991e-21 1.47965)
(5.67673 1.9744e-18 1.63731)
(5.21825 -2.02596e-18 1.80204)
(4.72092 -3.741e-18 1.96968)
(4.17855 4.29539e-18 2.13391)
(3.58092 4.90949e-19 2.2857)
(2.91605 -4.98453e-18 2.4129)
(2.13027 3.98974e-18 2.50276)
(1.32248 7.51392e-18 2.59677)
(9.98867 2.29929e-20 0.0477139)
(9.97246 -2.14185e-19 0.0891905)
(9.93998 0 0.127058)
(9.8878 0 0.165011)
(9.81959 0 0.204719)
(9.7378 0 0.24671)
(9.64256 5.76968e-20 0.291476)
(9.53334 0 0.339701)
(9.40986 0 0.392103)
(9.27193 -3.26003e-19 0.449343)
(9.11921 5.41116e-19 0.512111)
(8.95126 -2.62696e-19 0.581202)
(8.76755 0 0.657493)
(8.56749 0 0.741917)
(8.35042 0 0.835458)
(8.11562 -6.21195e-19 0.939162)
(7.86245 -7.81327e-19 1.05417)
(7.58999 1.50849e-18 1.18163)
(7.29693 1.4895e-18 1.32249)
(6.98205 -1.72363e-18 1.4776)
(6.6439 1.9899e-19 1.64758)
(6.28034 6.19682e-19 1.83252)
(5.88847 -3.86404e-18 2.03172)
(5.46428 3.51838e-18 2.24339)
(5.00204 0 2.46441)
(4.49321 0 2.69013)
(3.92428 7.13886e-18 2.91419)
(3.27925 5.09996e-19 3.13001)
(2.53768 2.47549e-19 3.31717)
(1.62729 -6.77349e-18 3.5911)
(9.98816 1.83379e-19 0.0536378)
(9.97132 4.75048e-20 0.102145)
(9.93886 9.48775e-23 0.147752)
(9.88768 -3.59033e-19 0.193559)
(9.82108 -1.00692e-22 0.241314)
(9.74128 0 0.291762)
(9.64841 -1.15309e-19 0.345535)
(9.54199 2.4026e-19 0.403393)
(9.42183 -3.7365e-19 0.466113)
(9.28781 2.5805e-19 0.534444)
(9.13964 0 0.609189)
(8.97697 0 0.691257)
(8.79938 -3.62631e-20 0.781647)
(8.60643 -4.71057e-21 0.881416)
(8.39765 0 0.991685)
(8.17251 0 1.11363)
(7.93051 8.48801e-20 1.24857)
(7.6711 1.41387e-18 1.39797)
(7.39343 -1.45347e-18 1.56314)
(7.09633 1.71056e-18 1.74519)
(6.77867 -4.90642e-18 1.94521)
(6.43856 -4.03787e-18 2.16401)
(6.07314 4.19745e-19 2.40187)
(5.67818 -3.45532e-18 2.65818)
(5.24731 3.52188e-18 2.93125)
(4.77184 -7.23887e-18 3.21855)
(4.23861 1.5129e-17 3.5158)
(3.62551 -7.86165e-18 3.82105)
(2.9666 -2.33626e-19 4.08572)
(1.97074 -1.01412e-18 4.51671)
(9.9879 -1.83174e-19 0.0599029)
(9.97096 4.73854e-20 0.115112)
(9.93879 -4.91783e-20 0.168072)
(9.88876 2.04722e-19 0.221477)
(9.82408 -1.4098e-22 0.277023)
(9.74663 1.10239e-19 0.335621)
(9.65653 0 0.398061)
(9.55342 -2.39152e-19 0.465181)
(9.43715 1.23001e-19 0.537818)
(9.30762 1.92852e-19 0.616805)
(9.1646 5.36389e-19 0.703044)
(9.00781 -4.83757e-19 0.79755)
(8.83693 7.20351e-20 0.901424)
(8.6516 -5.96267e-19 1.01581)
(8.45148 6.18664e-19 1.14195)
(8.23627 0 1.28115)
(8.00543 0 1.43486)
(7.75858 -1.39254e-18 1.60477)
(7.4953 1.42992e-18 1.79254)
(7.21459 -2.79936e-18 1.99961)
(6.91539 3.05803e-18 2.22754)
(6.59611 5.94643e-19 2.47786)
(6.2544 0 2.75192)
(5.88644 -4.15907e-19 3.05053)
(5.48571 0 3.37337)
(5.04397 0 3.71952)
(4.55128 0 4.08554)
(3.97441 2.27614e-19 4.47506)
(3.41721 7.06861e-18 4.79561)
(2.34463 -1.52504e-17 5.35475)
(9.98778 -3.4196e-19 0.066289)
(9.97106 -2.36039e-20 0.127973)
(9.93955 -2.94334e-19 0.187921)
(9.89091 -2.87112e-22 0.248606)
(9.82837 2.11889e-19 0.311657)
(9.75357 -3.29621e-19 0.378117)
(9.6666 1.14124e-19 0.448901)
(9.56724 1.18478e-19 0.524924)
(9.45538 0 0.607085)
(9.33092 -3.5811e-22 0.696293)
(9.19368 0 0.793529)
(9.04343 -5.52812e-19 0.899906)
(8.87995 -4.00274e-20 1.01662)
(8.70295 6.27006e-19 1.14489)
(8.51221 -9.5706e-21 1.28602)
(8.3076 1.2779e-18 1.44149)
(8.08865 -1.3127e-18 1.61294)
(7.85498 -8.49523e-20 1.80218)
(7.6064 -8.77942e-20 2.01112)
(7.34218 -1.8266e-19 2.24164)
(7.06136 -3.19844e-18 2.49577)
(6.76262 -3.46263e-18 2.77567)
(6.44378 1.96921e-19 3.0836)
(6.10208 -6.09208e-18 3.42188)
(5.73189 -2.29625e-19 3.79165)
(5.32477 1.34123e-17 4.19278)
(4.87544 -6.87308e-18 4.62113)
(4.33402 7.03839e-18 5.08859)
(3.88341 -6.79246e-18 5.45024)
(2.73936 7.13523e-18 6.11378)
(9.98787 3.87054e-19 0.0726512)
(9.97153 -3.99758e-19 0.140597)
(9.94099 9.78571e-20 0.207187)
(9.89402 1.0148e-19 0.274832)
(9.83383 4.22217e-19 0.345096)
(9.76194 6.28518e-22 0.419109)
(9.67847 1.14132e-19 0.49788)
(9.58326 -1.16905e-19 0.5824)
(9.47625 -3.66329e-19 0.673639)
(9.3574 -1.2712e-19 0.772578)
(9.22652 -1.31374e-19 0.880273)
(9.08342 -6.15945e-19 0.997911)
(8.92801 5.63532e-19 1.12677)
(8.76009 -3.66885e-20 1.26813)
(8.57952 -1.20786e-18 1.42336)
(8.38629 1.24035e-18 1.59408)
(8.18006 1.30213e-18 1.78217)
(7.96055 -1.20916e-18 1.98958)
(7.7276 6.84299e-22 2.2184)
(7.48067 0 2.47089)
(7.21913 1.83813e-19 2.74961)
(6.94201 1.88652e-19 3.0574)
(6.64709 -1.93089e-19 3.39718)
(6.33214 1.94362e-19 3.77235)
(5.99333 2.98838e-19 4.18572)
(5.62224 -4.97714e-20 4.6382)
(5.21802 2.0104e-21 5.12296)
(4.70913 -5.10189e-20 5.66337)
(4.36074 6.38605e-18 6.06058)
(3.14834 -7.09684e-18 6.81405)
(9.988 0 0.078889)
(9.97228 4.22589e-19 0.152873)
(9.94293 -1.46261e-19 0.225789)
(9.89778 3.03275e-19 0.300068)
(9.84011 -2.10339e-19 0.377217)
(9.77143 0 0.458429)
(9.69179 2.25882e-19 0.544795)
(9.60109 0 0.637375)
(9.49933 1.21753e-19 0.737198)
(9.38655 -1.25762e-19 0.845323)
(9.26259 1.30743e-19 0.962892)
(9.12729 6.77171e-19 1.09114)
(8.98065 -4.18149e-19 1.2314)
(8.82256 0 1.38502)
(8.65305 1.27529e-18 1.55342)
(8.47198 -1.222e-18 1.73834)
(8.27924 0 1.94189)
(8.07492 -4.05944e-20 2.16619)
(7.85875 8.49068e-20 2.4135)
(7.63035 4.32172e-20 2.6864)
(7.38934 4.4281e-20 2.98795)
(7.13517 -4.52523e-20 3.32167)
(6.8662 -5.90187e-18 3.69131)
(6.58008 1.18817e-17 4.10091)
(6.27432 -6.19481e-18 4.55461)
(5.941 4.8418e-20 5.05522)
(5.58374 9.71676e-20 5.59255)
(5.10529 -3.77659e-19 6.2037)
(4.84968 0 6.64079)
(3.57113 -4.11155e-19 7.48152)
(9.98817 3.61158e-19 0.0849438)
(9.9732 4.67707e-20 0.164704)
(9.94525 -4.85108e-20 0.243643)
(9.90215 -2.01778e-19 0.32423)
(9.84724 0 0.407902)
(9.78202 2.17376e-19 0.495927)
(9.70651 -2.24275e-19 0.589475)
(9.62066 -2.32568e-19 0.689653)
(9.52454 2.41011e-19 0.797542)
(9.41821 1.25208e-19 0.914268)
(9.30161 1.29074e-19 1.04106)
(9.1747 -6.00691e-22 1.17921)
(9.03744 -1.3863e-19 1.33009)
(8.88986 -1.14653e-18 1.49506)
(8.73218 1.02857e-18 1.67564)
(8.56407 0 1.87369)
(8.38575 0 2.09144)
(8.19762 3.94559e-20 2.33119)
(7.99933 0 2.59541)
(7.79087 -4.256e-20 2.88705)
(7.57196 -4.35178e-20 3.20948)
(7.34237 4.43755e-20 3.56682)
(7.10137 -5.69025e-18 3.96374)
(6.84687 5.60161e-18 4.40509)
(6.57709 6.00416e-18 4.89602)
(6.28389 -1.20399e-17 5.44182)
(5.97639 6.56923e-18 6.03038)
(5.5301 3.66551e-19 6.71321)
(5.35723 7.11006e-19 7.20535)
(4.01537 1.58659e-20 8.14846)
(9.98856 -7.20397e-19 0.0907515)
(9.97431 -3.72067e-19 0.176025)
(9.94786 -9.67808e-20 0.260662)
(9.90713 1.00237e-19 0.347195)
(9.85526 0 0.43702)
(9.79374 0 0.531462)
(9.72266 0 0.631759)
(9.64199 -2.32982e-19 0.739053)
(9.55187 2.38158e-19 0.854477)
(9.45231 7.44462e-19 0.979202)
(9.34343 -6.39659e-19 1.11451)
(9.2253 -6.34561e-22 1.26178)
(9.09788 -1.09651e-18 1.42242)
(8.96148 9.84192e-19 1.59778)
(8.81614 1.38316e-18 1.78948)
(8.66166 -1.04391e-18 1.99947)
(8.49874 -1.53052e-19 2.23006)
(8.32775 -3.95933e-20 2.48368)
(8.14846 -1.60665e-19 2.76308)
(7.96127 2.80797e-18 3.0715)
(7.7662 -2.51765e-18 3.41258)
(7.56326 0 3.7909)
(7.35251 8.42402e-20 4.21193)
(7.13273 5.19304e-19 4.68162)
(6.90268 -5.19841e-19 5.20631)
(6.65356 6.54955e-18 5.79429)
(6.40067 -6.22659e-18 6.43426)
(5.99489 0 7.1917)
(5.89995 -6.92412e-19 7.76589)
(4.5013 5.5184e-18 8.85467)
(9.98902 3.59223e-19 0.0962503)
(9.97558 4.64198e-19 0.18679)
(9.95075 -5.77151e-19 0.276778)
(9.91255 4.98739e-19 0.368858)
(9.86391 -4.13618e-19 0.464447)
(9.80631 0 0.564899)
(9.7399 -2.23422e-19 0.671487)
(9.66469 2.28668e-19 0.78539)
(9.58083 0 0.907788)
(9.48851 2.46424e-19 1.03989)
(9.38774 2.44369e-21 1.18301)
(9.27864 -1.704e-18 1.3386)
(9.1615 2.02566e-18 1.50806)
(9.0368 -9.70276e-19 1.69281)
(8.90434 -2.86104e-19 1.89451)
(8.76421 -1.47515e-19 2.11516)
(8.61734 3.01463e-19 2.35705)
(8.46414 0 2.6228)
(8.30495 -2.21027e-18 2.91542)
(8.14034 2.40368e-18 3.2383)
(7.97073 -2.77308e-18 3.59533)
(7.79658 3.26437e-19 3.99145)
(7.61867 -2.82486e-18 4.43278)
(7.43693 3.23189e-19 4.92643)
(7.25114 9.89912e-19 5.48025)
(7.05259 4.54366e-18 6.106)
(6.8627 -9.96013e-20 6.79676)
(6.51633 -1.21022e-19 7.63039)
(6.50754 -1.96368e-19 8.32441)
(5.06984 -5.38283e-18 9.64919)
(9.98937 -4.46781e-20 0.101418)
(9.97693 -2.3037e-19 0.196935)
(9.95394 3.83942e-19 0.29192)
(9.91838 -8.94384e-19 0.38915)
(9.8731 1.18412e-21 0.4901)
(9.81958 -4.25991e-19 0.596131)
(9.75805 -6.63428e-19 0.70853)
(9.68853 4.55753e-19 0.82851)
(9.61126 -2.35399e-19 0.957273)
(9.52653 0 1.0961)
(9.4342 0 1.24635)
(9.33447 -1.03819e-18 1.40945)
(9.22805 9.32128e-19 1.58674)
(9.11527 0 1.77975)
(8.99611 -1.39312e-19 1.99025)
(8.87108 0 2.22021)
(8.74087 -4.42767e-19 2.47182)
(8.60606 -2.41859e-18 2.74779)
(8.46773 2.30313e-18 3.05135)
(8.32671 -2.81033e-18 3.386)
(8.18385 5.05665e-18 3.75578)
(8.04032 2.22911e-18 4.16584)
(7.89767 0 4.62272)
(7.75727 4.4283e-18 5.13444)
(7.62086 -1.1341e-17 5.7104)
(7.48173 4.99904e-18 6.36553)
(7.36782 0 7.10077)
(7.11485 5.7959e-18 8.0025)
(7.22611 -3.61662e-18 8.85434)
(5.79416 5.89676e-19 10.5958)
(9.98967 -4.44891e-20 0.106247)
(9.97835 4.14222e-19 0.20639)
(9.95736 0 0.306007)
(9.92458 1.99132e-19 0.408002)
(9.88279 2.05717e-19 0.5139)
(9.83353 4.24801e-19 0.625057)
(9.77705 -8.77154e-19 0.742769)
(9.71341 -1.53045e-21 0.868263)
(9.64301 -7.10316e-22 1.00277)
(9.56601 9.65416e-19 1.14765)
(9.48229 -4.96472e-19 1.30433)
(9.3924 1.02623e-18 1.47408)
(9.29702 -7.87106e-19 1.65823)
(9.19644 1.08361e-18 1.85843)
(9.0909 2.82139e-19 2.07645)
(8.98126 -2.79155e-19 2.31424)
(8.86822 -5.78274e-19 2.57394)
(8.75252 2.3654e-18 2.85821)
(8.63556 -2.40042e-18 3.17027)
(8.51877 3.06027e-19 3.51374)
(8.40353 0 3.89265)
(8.29177 2.45895e-18 4.31209)
(8.18617 -1.66225e-20 4.77869)
(8.08974 -2.45432e-18 5.30068)
(8.00714 1.7995e-18 5.88826)
(7.93644 0 6.55776)
(7.91401 0 7.31816)
(7.80279 -2.20896e-18 8.25341)
(8.11 -1.10846e-18 9.25246)
(6.7811 -3.99576e-19 11.8184)
(0.289744 1.08985e-19 -0.222425)
(0.527466 4.21692e-19 -0.0970798)
(0.678104 -3.87153e-19 -0.0344383)
(0.767823 3.58767e-19 -0.00551897)
(0.763155 -4.18349e-21 0.0246373)
(0.642151 -3.37503e-19 0.0598462)
(0.408451 0 0.0917642)
(0.083099 0 0.114967)
(-0.299834 0 0.129369)
(-0.721021 -1.90871e-19 0.137556)
(-1.16632 0 0.140599)
(-1.62182 0 0.138874)
(-2.07585 2.08441e-21 0.132748)
(-2.51737 9.28018e-20 0.122642)
(-2.93659 -2.91289e-20 0.109154)
(-3.32494 -2.64979e-20 0.0927794)
(-3.67381 -6.96667e-20 0.073738)
(-3.97448 -9.69151e-21 0.052121)
(-4.2183 9.54157e-21 0.0279308)
(-4.39602 -7.54144e-21 0.00109118)
(-4.49731 7.43288e-21 -0.0286963)
(-4.51278 0 -0.0626215)
(-4.43887 0 -0.103682)
(-4.24755 0 -0.154869)
(-3.92771 0 -0.216454)
(-3.45678 0 -0.291567)
(-2.78866 1.39203e-20 -0.390222)
(-1.88228 0 -0.537383)
(-0.814404 8.97009e-21 -0.76814)
(0.896434 3.72571e-21 -1.06874)
(0.0235216 1.0967e-19 -0.341556)
(0.129905 0 -0.184646)
(0.122235 0 -0.0906172)
(0.0300066 0 0.00784185)
(-0.148626 0 0.105167)
(-0.41801 0 0.194333)
(-0.766592 0 0.270466)
(-1.17626 -5.05023e-21 0.330309)
(-1.62827 0 0.374573)
(-2.10651 3.81458e-20 0.406144)
(-2.59709 2.8488e-19 0.426335)
(-3.08901 -4.21497e-19 0.435565)
(-3.57351 6.04872e-20 0.434375)
(-4.04162 -8.40416e-21 0.423296)
(-4.48431 -1.09744e-19 0.402916)
(-4.89285 1.06007e-19 0.373615)
(-5.25892 1.80705e-19 0.335484)
(-5.574 7.937e-20 0.288492)
(-5.82942 0 0.232591)
(-6.01675 0 0.167888)
(-6.12676 -1.29293e-20 0.0943119)
(-6.15124 1.27661e-20 0.0102486)
(-6.08678 4.18548e-20 -0.0886384)
(-5.92375 3.2471e-20 -0.200864)
(-5.65618 4.40311e-21 -0.32469)
(-5.27367 0 -0.46287)
(-4.75894 -1.35946e-20 -0.62628)
(-4.11318 -2.17027e-20 -0.837852)
(-3.42202 -2.52201e-20 -1.10397)
(-2.92641 -9.34148e-21 -1.31096)
(-0.0752474 -2.1974e-19 -0.332476)
(-0.168822 0 -0.130951)
(-0.318398 -3.87817e-19 0.0210647)
(-0.52815 -1.80732e-18 0.162532)
(-0.813403 2.76725e-18 0.295423)
(-1.1681 -2.51498e-18 0.416373)
(-1.57978 1.32576e-18 0.519047)
(-2.03337 5.01808e-21 0.599697)
(-2.51499 -7.81541e-20 0.658688)
(-3.01252 -5.90543e-19 0.698154)
(-3.51553 -1.70905e-19 0.71953)
(-4.01571 -1.57834e-19 0.723658)
(-4.50634 -1.35063e-19 0.711193)
(-4.98043 0 0.682551)
(-5.43023 -2.10939e-19 0.638185)
(-5.84788 1.01759e-19 0.578684)
(-6.22559 -1.74746e-19 0.504523)
(-6.55533 -1.55553e-19 0.416086)
(-6.82918 -3.2587e-20 0.313973)
(-7.03943 3.21497e-20 0.19917)
(-7.17815 5.23651e-20 0.0727071)
(-7.23858 0 -0.0654038)
(-7.21506 -4.13485e-20 -0.216507)
(-7.10974 -7.13281e-20 -0.382854)
(-6.91842 7.47465e-21 -0.562158)
(-6.63928 -7.37955e-21 -0.753695)
(-6.2715 -2.31442e-20 -0.961252)
(-5.8321 1.90797e-20 -1.19319)
(-5.39536 1.76416e-20 -1.44128)
(-5.12806 6.36123e-21 -1.6362)
(-0.105743 2.2221e-19 -0.207337)
(-0.343201 -2.90798e-18 0.0390089)
(-0.593971 3.47661e-18 0.216357)
(-0.899766 3.25078e-18 0.385598)
(-1.26267 -3.14409e-18 0.544127)
(-1.67472 -1.68573e-19 0.685864)
(-2.12492 0 0.804887)
(-2.60197 1.26641e-18 0.89832)
(-3.09667 -2.41377e-18 0.966933)
(-3.60055 1.22235e-18 1.01224)
(-4.10633 1.42886e-19 1.03558)
(-4.60827 0 1.03812)
(-5.1008 -1.25577e-19 1.02032)
(-5.57796 0 0.98228)
(-6.03333 -7.60301e-21 0.924132)
(-6.45981 -9.93311e-21 0.8462)
(-6.84984 8.60099e-20 0.748785)
(-7.19568 2.26702e-19 0.632057)
(-7.48976 0 0.496349)
(-7.72449 -2.75836e-20 0.34229)
(-7.89262 -1.24807e-19 0.170718)
(-7.98848 0 -0.0177523)
(-8.00711 0 -0.222701)
(-7.95435 3.45653e-20 -0.442404)
(-7.82943 0 -0.674015)
(-7.63513 4.82325e-20 -0.914063)
(-7.37764 1.78901e-20 -1.16056)
(-7.07627 3.79139e-20 -1.41223)
(-6.7883 0 -1.65624)
(-6.62456 0 -1.8404)
(-0.076705 6.93131e-18 0.0111157)
(-0.412207 -4.20524e-19 0.28306)
(-0.746033 -3.85424e-18 0.477864)
(-1.12402 2.89876e-18 0.664099)
(-1.54168 -2.47189e-18 0.835959)
(-1.9907 1.35003e-18 0.98749)
(-2.46261 -3.10489e-20 1.11398)
(-2.95012 -1.39161e-18 1.21326)
(-3.44787 -1.22666e-18 1.28599)
(-3.95062 6.35471e-19 1.33307)
(-4.45355 -2.97732e-19 1.35526)
(-4.95275 2.51419e-19 1.35332)
(-5.44365 -3.25037e-20 1.32725)
(-5.92091 -6.90973e-19 1.27662)
(-6.37882 2.25829e-19 1.20113)
(-6.81085 7.50643e-21 1.10075)
(-7.20984 0 0.975738)
(-7.5684 -1.49009e-19 0.826517)
(-7.87927 -6.08393e-20 0.65387)
(-8.13542 6.00711e-20 0.459156)
(-8.33054 4.55293e-21 0.244417)
(-8.46011 1.969e-20 0.0122299)
(-8.52034 -2.5057e-21 -0.234653)
(-8.51591 -7.58309e-20 -0.494346)
(-8.4496 6.20144e-21 -0.763976)
(-8.32651 -9.64658e-20 -1.03724)
(-8.1556 0 -1.3076)
(-7.95542 -4.97386e-21 -1.56828)
(-7.7694 0 -1.80541)
(-7.66912 0 -1.97531)
(0.00533556 4.50915e-19 0.285574)
(-0.401712 0 0.585696)
(-0.798424 1.53668e-18 0.791228)
(-1.22732 0 0.984109)
(-1.68008 0 1.15956)
(-2.14899 0 1.31271)
(-2.62873 -1.32977e-18 1.44026)
(-3.1159 1.40585e-18 1.54078)
(-3.60825 1.07548e-18 1.61436)
(-4.10327 -5.17857e-20 1.6612)
(-4.59822 8.75214e-19 1.68141)
(-5.09029 5.28691e-19 1.67502)
(-5.57575 2.43486e-19 1.64153)
(-6.05002 0 1.58009)
(-6.50783 -1.94381e-19 1.48998)
(-6.94318 1.78953e-20 1.37076)
(-7.34944 4.84365e-19 1.22248)
(-7.71959 -1.51246e-19 1.04558)
(-8.04662 0 0.840942)
(-8.32393 0 0.610199)
(-8.54576 9.44897e-20 0.355992)
(-8.70795 0 0.082143)
(-8.80756 -6.34017e-20 -0.206637)
(-8.84654 1.11849e-19 -0.505474)
(-8.8317 0 -0.810342)
(-8.76871 4.22897e-20 -1.11287)
(-8.66736 0 -1.40314)
(-8.54499 -2.75802e-20 -1.67114)
(-8.43408 0 -1.90277)
(-8.37764 -1.07577e-20 -2.06032)
(0.128051 3.16033e-18 0.603912)
(-0.322744 2.42277e-18 0.932588)
(-0.76675 -3.85551e-18 1.14094)
(-1.22735 2.94727e-18 1.33196)
(-1.69715 -4.57103e-20 1.50362)
(-2.17043 -2.84271e-18 1.65293)
(-2.64557 -8.55273e-20 1.77767)
(-3.12261 0 1.87664)
(-3.60196 -1.08215e-18 1.94918)
(-4.08325 1.22678e-18 1.9946)
(-4.56538 0 2.0123)
(-5.04643 -2.63801e-19 2.00154)
(-5.52331 -2.43409e-19 1.96108)
(-5.99203 0 1.88951)
(-6.44772 -1.9015e-19 1.78562)
(-6.88483 1.87197e-19 1.64861)
(-7.29716 -1.52938e-19 1.47826)
(-7.67806 1.46154e-19 1.27506)
(-8.02084 1.15512e-19 1.04013)
(-8.31908 9.80615e-20 0.775591)
(-8.56721 0 0.484837)
(-8.76109 6.85216e-20 0.172904)
(-8.89825 6.33214e-20 -0.153594)
(-8.97749 -8.74818e-20 -0.487364)
(-9.0084 2.61004e-20 -0.822645)
(-8.99707 0 -1.15013)
(-8.95315 2.92231e-21 -1.45717)
(-8.89287 -1.85711e-21 -1.73151)
(-8.84005 -2.2527e-20 -1.95885)
(-8.8161 3.13692e-21 -2.10645)
(0.288713 -3.40629e-21 0.960537)
(-0.184964 -2.42237e-18 1.30878)
(-0.662149 0 1.51239)
(-1.13581 3.36395e-18 1.69477)
(-1.60535 -5.88358e-18 1.85767)
(-2.06831 2.90181e-18 1.99999)
(-2.52722 8.71664e-20 2.11999)
(-2.98512 -3.34498e-19 2.21609)
(-3.44459 0 2.28685)
(-3.90682 0 2.33064)
(-4.37179 0 2.34601)
(-4.83836 0 2.33143)
(-5.30392 6.98867e-19 2.28489)
(-5.76495 -8.69201e-19 2.2044)
(-6.21698 4.09212e-19 2.0883)
(-6.65477 -1.63862e-19 1.93545)
(-7.07249 2.98846e-19 1.74542)
(-7.4638 -1.40702e-19 1.51859)
(-7.82217 -1.15317e-19 1.2563)
(-8.14119 -9.79021e-20 0.960986)
(-8.41509 0 0.636664)
(-8.63944 -7.27746e-21 0.289381)
(-8.81184 4.91247e-20 -0.0725775)
(-8.93146 9.44837e-20 -0.439632)
(-9.00339 -4.67622e-20 -0.803006)
(-9.03706 -4.97564e-20 -1.15322)
(-9.04148 4.04959e-20 -1.47564)
(-9.03209 -2.69825e-20 -1.75629)
(-9.02578 3.57615e-20 -1.98067)
(-9.02713 7.64261e-21 -2.12044)
(0.482515 4.59452e-21 1.34441)
(0.00343169 4.01666e-18 1.70138)
(-0.492858 3.10089e-18 1.89255)
(-0.960301 -3.46589e-18 2.06091)
(-1.41249 0 2.21235)
(-1.85112 3.08581e-18 2.34647)
(-2.28295 -2.87569e-18 2.46129)
(-2.71351 3.40359e-19 2.55445)
(-3.14682 0 2.6237)
(-3.58519 -8.78088e-19 2.66656)
(-4.02926 -1.15732e-18 2.68054)
(-4.47834 -5.01455e-19 2.66326)
(-4.93023 1.79318e-20 2.61202)
(-5.3817 -4.08744e-19 2.52427)
(-5.82866 2.20254e-19 2.39792)
(-6.26616 1.78249e-19 2.23148)
(-6.68867 -1.49217e-19 2.02424)
(-7.09005 0 1.77645)
(-7.46389 5.36199e-20 1.48947)
(-7.80377 4.8072e-20 1.16606)
(-8.10369 6.76036e-20 0.810848)
(-8.35876 -6.11498e-20 0.430816)
(-8.56601 -4.91278e-20 0.0355604)
(-8.72482 2.33718e-20 -0.363485)
(-8.83392 0 -0.753978)
(-8.90725 8.0148e-20 -1.12565)
(-8.95316 -5.88529e-20 -1.463)
(-8.98641 2.52881e-20 -1.75042)
(-9.01848 -7.34556e-21 -1.97316)
(-9.0404 0 -2.10681)
(0.704123 0 1.74482)
(0.234652 -8.01813e-19 2.09798)
(-0.265066 3.14469e-18 2.2692)
(-0.705581 -3.15667e-18 2.41964)
(-1.12344 9.64748e-20 2.55876)
(-1.52449 2.7816e-18 2.68516)
(-1.91935 -2.93208e-18 2.79583)
(-2.31531 -1.35273e-18 2.88729)
(-2.71698 1.32588e-18 2.95617)
(-3.12724 5.75586e-19 2.9994)
(-3.5471 1.15786e-18 3.01355)
(-3.97591 -7.54652e-19 2.9952)
(-4.41177 2.58588e-19 2.9411)
(-4.85171 0 2.84822)
(-5.29199 1.76722e-19 2.714)
(-5.728 -1.73665e-19 2.53656)
(-6.15448 1.30956e-19 2.3149)
(-6.56557 -1.2902e-19 2.04907)
(-6.95504 -1.02403e-19 1.74042)
(-7.31645 0 1.39194)
(-7.64343 5.17472e-20 1.00871)
(-7.93015 0 0.598236)
(-8.17253 5.79929e-20 0.170774)
(-8.36937 -1.00877e-19 -0.260522)
(-8.51257 0 -0.677706)
(-8.62126 -5.30752e-20 -1.07006)
(-8.70359 2.44281e-20 -1.42252)
(-8.77345 -8.62681e-22 -1.71755)
(-8.83818 -8.32957e-21 -1.9399)
(-8.87758 4.85737e-22 -2.06881)
(0.947877 -4.50576e-19 2.14918)
(0.501456 4.02699e-19 2.48525)
(0.0166114 2.0199e-19 2.62961)
(-0.37435 -3.20496e-18 2.76004)
(-0.741364 2.90502e-18 2.88791)
(-1.09274 0 3.00864)
(-1.44198 0 3.11749)
(-1.79703 0 3.20961)
(-2.16251 1.28099e-18 3.28027)
(-2.54107 -1.82694e-18 3.3258)
(-2.93358 -6.14219e-19 3.34213)
(-3.33927 -2.73506e-19 3.32486)
(-3.7564 2.40014e-20 3.27026)
(-4.18233 8.29097e-19 3.17484)
(-4.61369 1.46454e-19 3.03559)
(-5.04629 -1.69128e-19 2.85022)
(-5.47528 -1.39218e-19 2.61741)
(-5.89519 -1.99586e-20 2.33697)
(-6.30007 -2.7814e-19 2.01011)
(-6.68339 -1.37772e-19 1.63979)
(-7.03795 -1.19687e-19 1.23111)
(-7.35635 7.37374e-20 0.791864)
(-7.63228 -1.09542e-19 0.333343)
(-7.86235 4.05844e-20 -0.128584)
(-8.0475 0 -0.574414)
(-8.1886 1.97614e-20 -0.988052)
(-8.30409 0 -1.35649)
(-8.40638 3.53171e-21 -1.66027)
(-8.49994 9.43588e-22 -1.88339)
(-8.55497 -5.2624e-22 -2.00864)
(1.20814 4.52339e-19 2.54182)
(0.797984 -4.11168e-19 2.84784)
(0.348493 -2.0925e-19 2.9593)
(0.0318937 2.08686e-19 3.0702)
(-0.269157 2.04515e-19 3.1901)
(-0.56053 1.16081e-18 3.30879)
(-0.857118 -4.48688e-20 3.41922)
(-1.16606 -2.82442e-18 3.51522)
(-1.49141 5.98468e-20 3.59087)
(-1.83507 1.25467e-18 3.64164)
(-2.19717 0 3.66273)
(-2.57665 4.91535e-19 3.64916)
(-2.97182 -2.36626e-20 3.59682)
(-3.38042 0 3.50187)
(-3.79955 -5.30463e-19 3.36086)
(-4.22553 -2.80301e-19 3.17112)
(-4.65408 4.05757e-19 2.93097)
(-5.08033 0 2.63993)
(-5.4988 1.77165e-19 2.29884)
(-5.90289 1.09868e-19 1.91021)
(-6.28459 -5.92217e-20 1.47882)
(-6.63512 -1.69032e-20 1.01272)
(-6.94683 4.95e-20 0.524575)
(-7.21572 1.18912e-20 0.0324278)
(-7.44293 1.86717e-21 -0.442923)
(-7.61573 0 -0.880458)
(-7.76239 -1.17529e-20 -1.26624)
(-7.89474 -1.54017e-20 -1.58026)
(-8.01515 -9.31421e-23 -1.80524)
(-8.08513 9.84345e-23 -1.92749)
(1.47776 5.69746e-20 2.90277)
(1.1213 1.32619e-20 3.16636)
(0.725589 -4.3547e-19 3.23991)
(0.511324 -2.16096e-19 3.33634)
(0.288536 1.24076e-18 3.45467)
(0.0655247 3.63319e-19 3.57688)
(-0.172992 -1.54328e-18 3.69378)
(-0.431713 -3.57262e-19 3.79771)
(-0.71358 0 3.88238)
(-1.01933 -3.0847e-19 3.94211)
(-1.34801 -5.43222e-19 3.9711)
(-1.69794 5.29774e-19 3.96412)
(-2.06731 -2.55588e-20 3.917)
(-2.45428 -4.25221e-19 3.82582)
(-2.85654 3.45921e-19 3.68662)
(-3.27097 5.97567e-19 3.49639)
(-3.69394 0 3.25314)
(-4.12153 -8.99037e-20 2.95613)
(-4.54923 -6.07594e-20 2.60558)
(-4.97098 1.08163e-19 2.20314)
(-5.37868 8.76955e-20 1.75298)
(-5.76283 -5.73299e-20 1.26338)
(-6.11449 0 0.74809)
(-6.42756 -1.39449e-20 0.225291)
(-6.70062 1.47516e-20 -0.283981)
(-6.90463 0 -0.747826)
(-7.08215 3.37816e-20 -1.15203)
(-7.24461 3.29498e-20 -1.47822)
(-7.39212 1.609e-20 -1.70625)
(-7.47777 0 -1.8257)
(1.72801 4.19476e-19 3.22664)
(1.4562 4.29105e-19 3.42148)
(1.15014 -1.08034e-21 3.45593)
(1.05749 0 3.5418)
(0.925423 4.24025e-19 3.66541)
(0.778196 4.06439e-19 3.79921)
(0.603827 0 3.93096)
(0.396973 3.612e-19 4.05154)
(0.158975 0 4.15115)
(-0.106386 -5.99083e-19 4.22346)
(-0.398924 -3.02013e-19 4.26325)
(-0.715934 -4.87367e-19 4.26515)
(-1.05516 4.758e-19 4.22609)
(-1.41543 0 4.14217)
(-1.79511 -6.88644e-19 4.0084)
(-2.19151 1.2376e-19 3.82161)
(-2.60158 -1.31161e-19 3.57961)
(-3.02255 0 3.28177)
(-3.45165 1.81147e-19 2.92757)
(-3.88425 -6.54508e-20 2.51728)
(-4.31303 8.38443e-21 2.05391)
(-4.72846 1.20815e-20 1.54529)
(-5.12033 1.73077e-22 1.00527)
(-5.47799 -1.71712e-22 0.451801)
(-5.78958 -1.47608e-20 -0.0902596)
(-6.05119 0 -0.586199)
(-6.26166 9.55001e-21 -1.01196)
(-6.45818 -1.99432e-20 -1.35324)
(-6.63637 4.43197e-21 -1.58611)
(-6.74049 2.14842e-22 -1.70238)
(1.96897 6.17555e-18 3.24369)
(1.74038 -5.63752e-18 3.50308)
(1.6249 2.22295e-18 3.59823)
(1.65081 -1.73068e-18 3.67869)
(1.62136 1.69502e-18 3.80993)
(1.5548 -4.00559e-19 3.96533)
(1.44727 3.80666e-19 4.12197)
(1.29933 -6.97309e-19 4.26523)
(1.11265 3.40327e-20 4.38552)
(0.89282 6.31938e-19 4.4761)
(0.641245 2.58731e-19 4.53215)
(0.361986 -5.29595e-19 4.54841)
(0.0502886 2.14363e-19 4.51976)
(-0.279333 -2.09545e-19 4.44428)
(-0.630561 7.53724e-21 4.31788)
(-1.00177 -1.5874e-19 4.1369)
(-1.39023 -4.05149e-19 3.90038)
(-1.7942 5.08253e-20 3.60747)
(-2.21353 -1.26532e-19 3.25606)
(-2.64579 -1.27292e-20 2.84509)
(-3.0848 -4.38824e-20 2.37631)
(-3.52105 6.42193e-22 1.85682)
(-3.94459 1.38779e-20 1.29988)
(-4.34432 3.06867e-20 0.721202)
(-4.70953 -4.76977e-22 0.148103)
(-5.04362 4.87143e-21 -0.385384)
(-5.29424 5.99802e-21 -0.840454)
(-5.53258 3.66036e-20 -1.20069)
(-5.75059 -2.09363e-20 -1.44168)
(-5.87982 -1.31538e-22 -1.55435)
(9.98998 0 0.11081)
(9.97983 0 0.21529)
(9.96095 -3.65212e-19 0.31925)
(9.93109 3.79642e-19 0.425712)
(9.893 0 0.536232)
(9.84823 0 0.652157)
(9.79705 8.40697e-19 0.774778)
(9.73964 1.31293e-21 0.905314)
(9.67647 -6.70091e-19 1.04505)
(9.60747 6.91647e-19 1.19546)
(9.53292 -4.73495e-19 1.3579)
(9.45348 0 1.53353)
(9.36966 -1.00346e-18 1.72369)
(9.28201 7.69961e-19 1.93009)
(9.19097 -2.61936e-19 2.15446)
(9.09746 2.69923e-19 2.39864)
(9.00252 -2.66199e-21 2.66478)
(8.90719 0 2.95541)
(8.81285 0 3.27357)
(8.72166 0 3.62282)
(8.63558 2.29332e-18 4.00694)
(8.55735 4.60063e-18 4.43063)
(8.49099 -2.07293e-20 4.90008)
(8.44129 -1.15233e-18 5.42271)
(8.41639 -4.4721e-18 6.0077)
(8.42153 2.1341e-18 6.66887)
(8.50346 -5.2045e-18 7.41678)
(8.58714 5.04957e-18 8.30876)
(9.39032 -1.86236e-18 9.26213)
(10.2622 1.85212e-18 11.9647)
(9.99032 0 0.115107)
(9.98144 8.5701e-20 0.223644)
(9.96477 -5.33585e-19 0.331642)
(9.93801 -9.19765e-20 0.442241)
(9.90384 0 0.557029)
(9.86382 3.93211e-19 0.677334)
(9.81819 4.07426e-19 0.804419)
(9.76729 -4.19306e-19 0.939491)
(9.71144 0 1.08391)
(9.6507 2.23363e-19 1.23918)
(9.58575 0 1.40661)
(9.51707 -9.42749e-19 1.58726)
(9.44513 2.17192e-18 1.78246)
(9.37075 -1.48354e-18 1.9939)
(9.29461 1.26396e-18 2.22324)
(9.21774 0 2.47222)
(9.14138 -2.36435e-18 2.74283)
(9.0668 7.06925e-22 3.03751)
(8.9957 5.3934e-19 3.35904)
(8.9306 2.71794e-18 3.71052)
(8.87403 2.17745e-18 4.09526)
(8.82948 2.18952e-18 4.51727)
(8.8021 -1.07463e-18 4.98156)
(8.79814 1.08252e-18 5.49353)
(8.82815 1.06313e-18 6.05903)
(8.90258 2.00786e-18 6.68469)
(9.06974 -3.20169e-20 7.37071)
(9.27311 -1.00865e-18 8.12416)
(9.84853 8.82766e-19 8.85899)
(10.5277 -1.54894e-18 9.84598)
(9.9907 -6.43532e-19 0.119067)
(9.98315 0 0.231338)
(9.96878 0 0.343028)
(9.94521 3.56824e-19 0.45738)
(9.91516 3.69108e-19 0.576024)
(9.88015 -3.82869e-19 0.700289)
(9.84038 -3.93564e-19 0.831394)
(9.79622 0 0.970518)
(9.74786 -4.19325e-19 1.11904)
(9.69571 4.30333e-19 1.27847)
(9.64062 -8.86378e-19 1.45006)
(9.58289 9.07386e-19 1.63485)
(9.52323 2.34359e-19 1.83412)
(9.46243 -1.19005e-18 2.0494)
(9.40143 0 2.28228)
(9.34151 -4.92669e-19 2.53436)
(9.2839 0 2.80747)
(9.23013 5.06887e-19 3.10384)
(9.18234 -5.18362e-19 3.42583)
(9.14315 -5.22172e-19 3.77592)
(9.11542 0 4.1567)
(9.10331 2.06366e-18 4.57119)
(9.11242 -1.03169e-18 5.02258)
(9.1494 2.01395e-18 5.51348)
(9.22436 -2.01818e-18 6.04525)
(9.34597 0 6.6162)
(9.54454 -1.89887e-18 7.21521)
(9.77053 0 7.81299)
(10.104 -4.37231e-19 8.3671)
(10.6614 4.54077e-19 9.02711)
(9.9911 6.27229e-19 0.122635)
(9.98496 0 0.238282)
(9.973 0 0.353284)
(9.95272 -3.47618e-19 0.470954)
(9.92688 3.595e-19 0.592968)
(9.89702 0 0.720691)