/*--------------------------------*- C++ -*----------------------------------*\
| =========                 |                                                 |
| \\      /  F ield         | OpenFOAM: The Open Source CFD Toolbox           |
|  \\    /   O peration     | Version:  dev                                   |
|   \\  /    A nd           | Web:      www.OpenFOAM.org                      |
|    \\/     M anipulation  |                                                 |
\*---------------------------------------------------------------------------*/
FoamFile
{
    version     2.0;
    format      ascii;
    class       volScalarField;
    location    "3.55";
    object      p;
}
// * * * * * * * * * * * * * * * * * * * * * * * * * * * * * * * * * * * * * //

dimensions      [0 2 -2 0 0 0 0];

internalField   nonuniform List<scalar> 
465
(
138.326
138.436
137.624
137.725
137.934
136.881
136.973
137.159
137.389
136.098
136.18
136.343
136.537
136.759
135.277
135.349
135.488
135.644
135.818
136.017
134.42
134.482
134.597
134.716
134.839
134.977
135.123
133.529
133.581
133.672
133.753
133.827
133.905
133.979
134.036
134.064
132.609
132.65
132.717
132.761
132.786
132.803
132.807
132.783
132.718
132.599
131.661
131.693
131.735
131.742
131.719
131.678
131.613
131.51
131.357
131.14
130.844
130.452
130.69
130.712
130.731
130.702
130.633
130.535
130.403
130.225
129.987
129.678
129.282
128.782
128.162
127.399
129.7
129.713
129.71
129.646
129.531
129.379
129.184
128.934
128.617
128.22
127.732
127.135
126.413
125.548
124.519
128.697
128.7
128.675
128.579
128.421
128.216
127.961
127.644
127.253
126.777
126.203
125.518
124.706
123.751
122.636
121.341
119.849
127.684
127.679
127.634
127.505
127.307
127.054
126.743
126.363
125.904
125.354
124.704
123.941
123.051
122.02
120.833
119.474
117.929
116.182
114.219
126.669
126.655
126.59
126.433
126.197
125.898
125.536
125.098
124.577
123.961
123.243
122.411
121.454
120.359
119.114
117.707
116.126
114.36
112.397
110.232
107.857
125.656
125.634
125.551
125.366
125.095
124.756
124.346
123.856
123.278
122.605
121.827
120.936
119.922
118.775
117.486
116.044
114.44
112.668
110.719
108.59
106.278
124.651
124.622
124.523
124.313
124.01
123.633
123.18
122.644
122.017
121.292
120.463
119.522
118.462
117.274
115.951
114.485
112.871
111.103
109.177
107.093
123.662
123.627
123.512
123.28
122.948
122.536
122.045
121.468
120.797
120.029
119.156
118.174
117.077
115.857
114.51
113.031
111.416
109.661
107.766
105.731
122.695
122.654
122.525
122.272
121.915
121.473
120.949
120.335
119.628
118.821
117.913
116.898
115.771
114.529
113.167
111.682
110.073
108.339
106.479
104.495
121.757
121.71
121.569
121.299
120.918
120.45
119.897
119.252
118.513
117.676
116.738
115.696
114.548
113.29
111.92
110.437
108.84
107.13
105.308
103.377
120.856
120.804
120.652
120.365
119.965
119.475
118.896
118.225
117.459
116.597
115.635
114.574
113.41
112.143
110.771
109.295
107.714
106.031
104.249
102.37
119.998
119.942
119.78
119.48
119.063
118.552
117.953
117.26
116.473
115.59
114.61
113.534
112.36
111.089
109.719
108.253
106.692
105.038
103.295
101.466
119.192
119.132
118.962
118.649
118.218
117.691
117.073
116.363
115.558
114.659
113.667
112.58
111.401
110.129
108.765
107.312
105.772
104.147
102.442
100.661
118.445
118.381
118.204
117.881
117.437
116.897
116.265
115.54
114.722
113.811
112.808
111.715
110.534
109.264
107.909
106.47
104.951
103.355
101.686
99.9492
117.765
117.698
117.514
117.183
116.729
116.177
115.533
114.797
113.968
113.048
112.039
110.943
109.762
108.497
107.151
105.728
104.229
102.66
101.025
99.3285
117.162
117.092
116.901
116.562
116.099
115.538
114.885
114.14
113.303
112.377
111.364
110.266
109.087
107.828
106.492
105.083
103.605
102.061
100.456
98.7951
116.643
116.57
116.373
116.026
115.556
114.987
114.327
113.575
112.733
111.803
110.788
109.691
108.514
107.262
105.936
104.541
103.081
101.559
99.9807
98.3505
116.219
116.142
115.937
115.583
115.105
114.531
113.865
113.107
112.261
111.328
110.312
109.216
108.044
106.797
105.481
104.098
102.653
101.151
99.5946
97.9901
115.902
115.817
115.603
115.242
114.76
114.181
113.511
112.75
111.901
110.966
109.95
108.856
107.686
106.446
105.137
103.764
102.332
100.845
99.3068
97.7227
115.709
115.597
115.365
114.998
114.514
113.932
113.259
112.497
111.646
110.712
109.696
108.604
107.437
106.201
104.898
103.534
102.111
100.634
99.1082
97.538
115.683
115.517
115.259
114.885
114.397
113.812
113.136
112.371
111.52
110.585
109.57
108.48
107.316
106.083
104.785
103.425
102.009
100.539
99.0221
97.4612
)
;

boundaryField
{
    inlet
    {
        type            zeroGradient;
    }
    outlet
    {
        type            fixedValue;
        value           nonuniform 0();
    }
    flap
    {
        type            zeroGradient;
    }
    upperWall
    {
        type            zeroGradient;
    }
    lowerWall
    {
        type            zeroGradient;
    }
    frontAndBack
    {
        type            empty;
    }
    procBoundary0to1
    {
        type            processor;
        value           nonuniform List<scalar> 
18
(
105.27
103.785
104.849
104.849
103.558
102.392
101.342
100.4
99.5578
98.8094
98.1497
97.5755
97.0831
96.6735
96.3419
96.0973
95.9282
95.8616
)
;
    }
    procBoundary0to3
    {
        type            processor;
        value           nonuniform List<scalar> 
34
(
138.982
139.1
138.667
138.667
138.2
138.2
137.66
137.66
137.019
137.019
136.235
136.235
135.264
135.264
135.385
134.047
134.047
132.41
132.41
132.132
129.943
129.943
129.297
126.472
126.472
123.304
123.304
121.882
118.138
118.138
116.19
112.028
112.028
109.598
)
;
    }
}


// ************************************************************************* //
