/*--------------------------------*- C++ -*----------------------------------*\
| =========                 |                                                 |
| \\      /  F ield         | OpenFOAM: The Open Source CFD Toolbox           |
|  \\    /   O peration     | Version:  dev                                   |
|   \\  /    A nd           | Web:      www.OpenFOAM.org                      |
|    \\/     M anipulation  |                                                 |
\*---------------------------------------------------------------------------*/
FoamFile
{
    version     2.0;
    format      ascii;
    class       volVectorField;
    location    "1.5";
    object      Force;
}
// * * * * * * * * * * * * * * * * * * * * * * * * * * * * * * * * * * * * * //

dimensions      [1 1 -2 0 0 0 0];

internalField   uniform (0 0 0);

boundaryField
{
    inlet
    {
        type            calculated;
        value           uniform (0 0 0);
    }
    outlet
    {
        type            calculated;
        value           uniform (0 0 0);
    }
    flap
    {
        type            calculated;
        value           nonuniform List<vector> 
33
(
(2.72645 4.06177e-18 -0.225119)
(2.66368 1.97607e-18 -0.521376)
(2.53381 0 -0.788928)
(2.34454 -4.52454e-18 -0.975035)
(2.12364 -3.81436e-18 -1.08566)
(1.89684 1.86242e-18 -1.13453)
(1.68142 1.82229e-18 -1.13695)
(1.48781 1.32909e-17 -1.10641)
(1.31685 -8.90766e-18 -1.05314)
(1.16456 8.10163e-18 -0.983669)
(1.02545 -8.91222e-18 -0.90184)
(0.892698 1.02711e-20 -0.808027)
(0.760572 2.95686e-18 -0.701021)
(0.62285 1.72035e-21 -0.577611)
(0.465378 1.16611e-18 -0.432144)
(0.455723 -1.92777e-20 0.483903)
(0.25878 1.03423e-18 0.275134)
(0.0913411 -1.17095e-18 0.0989097)
(-0.0296766 1.1853e-18 0.00247705)
(-0.0290767 -4.41472e-20 0.00564705)
(-0.0280247 1.25951e-18 0.00868291)
(-0.0266875 -1.29938e-18 0.0110105)
(-0.0252482 -2.86204e-22 0.0127992)
(-0.0239021 -1.45413e-18 0.0141694)
(-0.0228122 7.39779e-23 0.0152777)
(-0.0220957 -7.00296e-23 0.0162826)
(-0.0218684 1.32473e-18 0.0173595)
(-0.0221601 -1.51026e-18 0.0186386)
(-0.0228439 3.08374e-18 0.0201071)
(-0.0237562 -1.58903e-18 0.0216886)
(-0.0247078 -8.15006e-22 0.0231634)
(-0.0247552 -7.86813e-22 0.0238144)
(-0.0193256 -2.82967e-18 0.0187302)
)
;
    }
    upperWall
    {
        type            calculated;
        value           uniform (0 0 0);
    }
    lowerWall
    {
        type            calculated;
        value           uniform (0 0 0);
    }
    frontAndBack
    {
        type            empty;
    }
}


// ************************************************************************* //
