/*--------------------------------*- C++ -*----------------------------------*\
| =========                 |                                                 |
| \\      /  F ield         | OpenFOAM: The Open Source CFD Toolbox           |
|  \\    /   O peration     | Version:  dev                                   |
|   \\  /    A nd           | Web:      www.OpenFOAM.org                      |
|    \\/     M anipulation  |                                                 |
\*---------------------------------------------------------------------------*/
FoamFile
{
    version     2.0;
    format      ascii;
    class       volVectorField;
    location    "1.3";
    object      cellDisplacement;
}
// * * * * * * * * * * * * * * * * * * * * * * * * * * * * * * * * * * * * * //

dimensions      [0 1 0 0 0 0 0];

internalField   nonuniform List<vector> 
465
(
(0.51351 0 -0.201769)
(0.503985 0 -0.194159)
(0.513572 0 -0.201316)
(0.503938 0 -0.194254)
(0.493551 0 -0.186825)
(0.482285 0 -0.179093)
(0.512464 0 -0.200032)
(0.502856 0 -0.193536)
(0.49244 0 -0.186598)
(0.48111 0 -0.179288)
(0.468746 0 -0.171663)
(0.510212 0 -0.198023)
(0.500739 0 -0.192085)
(0.490395 0 -0.185645)
(0.47909 0 -0.178772)
(0.466724 0 -0.171522)
(0.453182 0 -0.163941)
(0.438348 0 -0.156061)
(0.50686 0 -0.195383)
(0.497609 0 -0.18998)
(0.487419 0 -0.184028)
(0.476219 0 -0.177592)
(0.463921 0 -0.170729)
(0.450426 0 -0.163482)
(0.435625 0 -0.155885)
(0.419404 0 -0.147962)
(0.401643 0 -0.139725)
(0.502459 0 -0.192189)
(0.493507 0 -0.187293)
(0.483537 0 -0.181808)
(0.472505 0 -0.175801)
(0.460339 0 -0.169324)
(0.446949 0 -0.16242)
(0.432238 0 -0.155121)
(0.416099 0 -0.14745)
(0.398421 0 -0.139423)
(0.379088 0 -0.131043)
(0.497069 0 -0.188501)
(0.488478 0 -0.18408)
(0.478788 0 -0.179041)
(0.467973 0 -0.173444)
(0.455988 0 -0.167346)
(0.442758 0 -0.160787)
(0.428188 0 -0.153795)
(0.412181 0 -0.146392)
(0.394633 0 -0.138593)
(0.375435 0 -0.130404)
(0.354476 0 -0.121822)
(0.331644 0 -0.112836)
(0.490786 0 -0.184381)
(0.482567 0 -0.180387)
(0.473207 0 -0.175768)
(0.462658 0 -0.170566)
(0.450893 0 -0.164832)
(0.437874 0 -0.158618)
(0.42349 0 -0.151935)
(0.407659 0 -0.14481)
(0.390283 0 -0.137254)
(0.371261 0 -0.129276)
(0.35049 0 -0.120874)
(0.327862 0 -0.112038)
(0.303268 0 -0.102752)
(0.483717 0 -0.179881)
(0.475863 0 -0.176264)
(0.466837 0 -0.172026)
(0.456588 0 -0.167194)
(0.445112 0 -0.161827)
(0.432341 0 -0.155949)
(0.418168 0 -0.149569)
(0.402554 0 -0.142727)
(0.385388 0 -0.135426)
(0.366581 0 -0.127675)
(0.346035 0 -0.119473)
(0.323651 0 -0.110814)
(0.299323 0 -0.101682)
(0.272948 0 -0.092055)
(0.244422 0 -0.0819019)
(0.475962 0 -0.175035)
(0.468464 0 -0.171755)
(0.459771 0 -0.16786)
(0.449844 0 -0.163378)
(0.438665 0 -0.15835)
(0.426158 0 -0.152791)
(0.412272 0 -0.14673)
(0.396907 0 -0.140173)
(0.379974 0 -0.133129)
(0.361413 0 -0.125616)
(0.341128 0 -0.117634)
(0.319023 0 -0.109175)
(0.295 0 -0.100225)
(0.268959 0 -0.0907662)
(0.240801 0 -0.0807704)
(0.210428 0 -0.0702051)
(0.467621 0 -0.169871)
(0.46046 0 -0.166886)
(0.452095 0 -0.163303)
(0.442492 0 -0.159143)
(0.431614 0 -0.154431)
(0.419401 0 -0.149184)
(0.405782 0 -0.143415)
(0.39071 0 -0.137148)
(0.374072 0 -0.13038)
(0.355786 0 -0.123116)
(0.335794 0 -0.115369)
(0.314003 0 -0.107131)
(0.290319 0 -0.0983905)
(0.264648 0 -0.0891302)
(0.236897 0 -0.0793267)
(0.206972 0 -0.0689512)
(0.174785 0 -0.0579695)
(0.140249 0 -0.0463429)
(0.45879 0 -0.164402)
(0.451937 0 -0.161676)
(0.443882 0 -0.158371)
(0.43459 0 -0.154503)
(0.424025 0 -0.150089)
(0.412089 0 -0.145128)
(0.398756 0 -0.139646)
(0.383986 0 -0.133663)
(0.367685 0 -0.12718)
(0.349738 0 -0.120189)
(0.330065 0 -0.112691)
(0.308618 0 -0.104694)
(0.285306 0 -0.0961876)
(0.260039 0 -0.0871555)
(0.232729 0 -0.077578)
(0.203289 0 -0.06743)
(0.171635 0 -0.056682)
(0.137686 0 -0.0453005)
(0.101368 0 -0.0332485)
(0.449562 0 -0.158636)
(0.442983 0 -0.156134)
(0.435212 0 -0.153076)
(0.42621 0 -0.149471)
(0.415931 0 -0.145327)
(0.404317 0 -0.140652)
(0.39129 0 -0.135452)
(0.376811 0 -0.129742)
(0.360845 0 -0.123541)
(0.343272 0 -0.116835)
(0.323985 0 -0.109614)
(0.302905 0 -0.101876)
(0.279993 0 -0.0936257)
(0.255161 0 -0.0848501)
(0.228325 0 -0.0755312)
(0.199403 0 -0.0656475)
(0.168316 0 -0.0551738)
(0.13499 0 -0.0440816)
(0.0993559 0 -0.0323397)
(0.0613611 0 -0.0199186)
(0.440028 0 -0.152571)
(0.433688 0 -0.150264)
(0.426176 0 -0.147427)
(0.417447 0 -0.144061)
(0.407451 0 -0.140171)
(0.396133 0 -0.135763)
(0.383429 0 -0.13084)
(0.369296 0 -0.125418)
(0.353646 0 -0.119487)
(0.336427 0 -0.11306)
(0.317556 0 -0.106131)
(0.296913 0 -0.0986841)
(0.27442 0 -0.0907128)
(0.250048 0 -0.0822207)
(0.223714 0 -0.0731921)
(0.195339 0 -0.0636087)
(0.164851 0 -0.0534492)
(0.13218 0 -0.0426898)
(0.0972618 0 -0.0313046)
(0.0600499 0 -0.0192696)
(0.0203848 0 -0.00652198)
(0.430277 0 -0.146196)
(0.424144 0 -0.14406)
(0.416863 0 -0.14142)
(0.408388 0 -0.138275)
(0.398666 0 -0.134626)
(0.387645 0 -0.130474)
(0.375272 0 -0.125826)
(0.361438 0 -0.120666)
(0.346118 0 -0.115012)
(0.329286 0 -0.108879)
(0.310814 0 -0.102246)
(0.290637 0 -0.0951102)
(0.268637 0 -0.0874552)
(0.244743 0 -0.0792724)
(0.218933 0 -0.0705653)
(0.191131 0 -0.0613177)
(0.161266 0 -0.0515117)
(0.129276 0 -0.0411278)
(0.095101 0 -0.0301452)
(0.0586992 0 -0.0185449)
(0.0199234 0 -0.0062726)
(0.420397 0 -0.139492)
(0.41444 0 -0.137507)
(0.407364 0 -0.135047)
(0.39912 0 -0.132106)
(0.389655 0 -0.128682)
(0.378912 0 -0.124774)
(0.36683 0 -0.12038)
(0.353337 0 -0.115498)
(0.338396 0 -0.110141)
(0.321929 0 -0.104301)
(0.303861 0 -0.0979731)
(0.28412 0 -0.0911542)
(0.262638 0 -0.0838395)
(0.239296 0 -0.0760089)
(0.214023 0 -0.0676532)
(0.186812 0 -0.0587764)
(0.157592 0 -0.049363)
(0.126302 0 -0.0393972)
(0.0928911 0 -0.0288626)
(0.0573198 0 -0.017745)
(0.0194533 0 -0.00599831)
(0.410478 0 -0.13243)
(0.404666 0 -0.130582)
(0.39777 0 -0.128287)
(0.389737 0 -0.125537)
(0.380511 0 -0.122329)
(0.370036 0 -0.118658)
(0.358251 0 -0.114523)
(0.345094 0 -0.109921)
(0.330505 0 -0.104854)
(0.314416 0 -0.0993178)
(0.296757 0 -0.0933088)
(0.277463 0 -0.086825)
(0.256465 0 -0.0798615)
(0.233696 0 -0.0724122)
(0.209036 0 -0.0644563)
(0.182424 0 -0.0559847)
(0.15386 0 -0.0470031)
(0.123286 0 -0.0374979)
(0.0906513 0 -0.0274569)
(0.0559235 0 -0.0168702)
(0.0189785 0 -0.00569912)
(0.400608 0 -0.124974)
(0.394917 0 -0.12325)
(0.388177 0 -0.12111)
(0.380333 0 -0.118543)
(0.37133 0 -0.115544)
(0.361109 0 -0.112107)
(0.349611 0 -0.108229)
(0.336774 0 -0.103906)
(0.322535 0 -0.0991377)
(0.306825 0 -0.0939204)
(0.28957 0 -0.0882418)
(0.270729 0 -0.0821133)
(0.250223 0 -0.0755265)
(0.227986 0 -0.0684751)
(0.203957 0 -0.0609535)
(0.178018 0 -0.0529411)
(0.150111 0 -0.0444299)
(0.120254 0 -0.0354278)
(0.0884024 0 -0.0259266)
(0.0545232 0 -0.0159196)
(0.0185033 0 -0.00537473)
(0.390882 0 -0.117073)
(0.385288 0 -0.115468)
(0.378682 0 -0.113476)
(0.371008 0 -0.111087)
(0.362209 0 -0.108294)
(0.352226 0 -0.10509)
(0.341001 0 -0.10147)
(0.328474 0 -0.0974317)
(0.314588 0 -0.0929736)
(0.299222 0 -0.0880744)
(0.282359 0 -0.0827461)
(0.263986 0 -0.0770028)
(0.243979 0 -0.0708212)
(0.22228 0 -0.0641998)
(0.198831 0 -0.0571348)
(0.173578 0 -0.0496223)
(0.146394 0 -0.0416408)
(0.117239 0 -0.0331822)
(0.0861662 0 -0.0242681)
(0.0531324 0 -0.014891)
(0.0180322 0 -0.00502444)
(0.381397 0 -0.108666)
(0.375882 0 -0.107177)
(0.369391 0 -0.105331)
(0.361867 0 -0.10312)
(0.353253 0 -0.100533)
(0.343491 0 -0.097564)
(0.332521 0 -0.0942079)
(0.320279 0 -0.0904596)
(0.306703 0 -0.0863145)
(0.291719 0 -0.0817651)
(0.275288 0 -0.0768247)
(0.25734 0 -0.0714795)
(0.237812 0 -0.0657285)
(0.216643 0 -0.0595694)
(0.193776 0 -0.053)
(0.169167 0 -0.0460203)
(0.142677 0 -0.0386024)
(0.114258 0 -0.0307478)
(0.0839647 0 -0.0224748)
(0.0517668 0 -0.0137813)
(0.0175707 0 -0.00464726)
(0.372261 0 -0.0996773)
(0.366809 0 -0.0983055)
(0.360415 0 -0.0966087)
(0.353024 0 -0.094577)
(0.344578 0 -0.0922018)
(0.335019 0 -0.089476)
(0.324287 0 -0.0863941)
(0.31232 0 -0.0829513)
(0.299058 0 -0.0791439)
(0.284435 0 -0.0749696)
(0.26839 0 -0.0704287)
(0.250858 0 -0.0655074)
(0.231798 0 -0.0602189)
(0.211141 0 -0.0545576)
(0.18883 0 -0.048521)
(0.164811 0 -0.0421067)
(0.139033 0 -0.0353118)
(0.111386 0 -0.0281232)
(0.0818371 0 -0.0205421)
(0.050447 0 -0.012587)
(0.0171255 0 -0.00424196)
(0.363593 0 -0.0900143)
(0.358189 0 -0.0887647)
(0.351878 0 -0.0872227)
(0.344603 0 -0.0853789)
(0.336308 0 -0.0832251)
(0.326934 0 -0.0807547)
(0.316422 0 -0.077962)
(0.304713 0 -0.0748431)
(0.291748 0 -0.0713951)
(0.277472 0 -0.0676174)
(0.261766 0 -0.0634928)
(0.244617 0 -0.0590335)
(0.226024 0 -0.054253)
(0.205863 0 -0.0491333)
(0.184086 0 -0.043676)
(0.160643 0 -0.0378809)
(0.135488 0 -0.0317479)
(0.108584 0 -0.0252785)
(0.0798263 0 -0.0184626)
(0.0491968 0 -0.0113034)
(0.0167035 0 -0.00380676)
(0.355525 0 -0.0795624)
(0.350159 0 -0.078444)
(0.343917 0 -0.0770674)
(0.336743 0 -0.0754242)
(0.328581 0 -0.0735069)
(0.319372 0 -0.0713094)
(0.30906 0 -0.0688266)
(0.297583 0 -0.0660548)
(0.284881 0 -0.0629907)
(0.270893 0 -0.0596313)
(0.255549 0 -0.0559721)
(0.238812 0 -0.0520294)
(0.22062 0 -0.0477916)
(0.200912 0 -0.0432586)
(0.179633 0 -0.0384313)
(0.156733 0 -0.033311)
(0.132167 0 -0.0278989)
(0.105896 0 -0.022197)
(0.0778916 0 -0.0162089)
(0.0480487 0 -0.00992544)
(0.0163124 0 -0.00333934)
(0.348212 0 -0.0681809)
(0.342875 0 -0.067207)
(0.336689 0 -0.0660116)
(0.329601 0 -0.0645872)
(0.321554 0 -0.0629275)
(0.312492 0 -0.0610273)
(0.302356 0 -0.0588824)
(0.291088 0 -0.0564898)
(0.278627 0 -0.0538472)
(0.264914 0 -0.0509534)
(0.249889 0 -0.0478081)
(0.233498 0 -0.0444144)
(0.215684 0 -0.0407716)
(0.19639 0 -0.0368805)
(0.175566 0 -0.0327424)
(0.153162 0 -0.0283594)
(0.129135 0 -0.0237339)
(0.103453 0 -0.0188691)
(0.0760963 0 -0.0137709)
(0.046953 0 -0.00842641)
(0.015949 0 -0.00283373)
(0.341831 0 -0.0556957)
(0.336516 0 -0.0548846)
(0.330377 0 -0.0538917)
(0.32336 0 -0.052711)
(0.31541 0 -0.0513374)
(0.306472 0 -0.049767)
(0.296488 0 -0.0479966)
(0.2854 0 -0.0460241)
(0.273149 0 -0.0438482)
(0.259676 0 -0.0414687)
(0.244923 0 -0.038886)
(0.228833 0 -0.0361016)
(0.21135 0 -0.0331169)
(0.192421 0 -0.0299335)
(0.171994 0 -0.0265536)
(0.150023 0 -0.0229796)
(0.126466 0 -0.0192145)
(0.101287 0 -0.0152613)
(0.0744597 0 -0.0111233)
(0.0459666 0 -0.00680408)
(0.0156544 0 -0.00229184)
(0.336597 0 -0.0418896)
(0.331297 0 -0.0412657)
(0.325193 0 -0.0405039)
(0.318232 0 -0.0396)
(0.310361 0 -0.0385504)
(0.301523 0 -0.0373522)
(0.291662 0 -0.0360036)
(0.280721 0 -0.0345034)
(0.26864 0 -0.0328511)
(0.255363 0 -0.031047)
(0.240832 0 -0.0290921)
(0.224989 0 -0.0269878)
(0.207778 0 -0.0247359)
(0.189148 0 -0.0223385)
(0.169048 0 -0.019798)
(0.147431 0 -0.0171169)
(0.124258 0 -0.0142981)
(0.0994954 0 -0.0113447)
(0.0731194 0 -0.00825994)
(0.0451294 0 -0.00504882)
(0.0153755 0 -0.00169934)
(0.332765 0 -0.0264901)
(0.327475 0 -0.0260856)
(0.321396 0 -0.0255931)
(0.314476 0 -0.0250099)
(0.30666 0 -0.0243339)
(0.297895 0 -0.0235638)
(0.288123 0 -0.0226985)
(0.277289 0 -0.0217376)
(0.265333 0 -0.0206813)
(0.252199 0 -0.0195301)
(0.237829 0 -0.0182851)
(0.222166 0 -0.0169476)
(0.205155 0 -0.0155191)
(0.186743 0 -0.0140015)
(0.16688 0 -0.0123968)
(0.145522 0 -0.0107069)
(0.122628 0 -0.00893417)
(0.0981653 0 -0.00708078)
(0.0721089 0 -0.00514894)
(0.0444456 0 -0.00314078)
(0.0151182 0 -0.00105429)
(0.330657 0 -0.00918566)
(0.325372 0 -0.00904261)
(0.319306 0 -0.00886874)
(0.312407 0 -0.00866319)
(0.304622 0 -0.00842533)
(0.295896 0 -0.00815471)
(0.286173 0 -0.00785111)
(0.275397 0 -0.00751449)
(0.263509 0 -0.007145)
(0.250453 0 -0.00674295)
(0.236171 0 -0.00630882)
(0.220606 0 -0.00584318)
(0.203704 0 -0.00534671)
(0.185411 0 -0.00482016)
(0.165678 0 -0.00426433)
(0.144461 0 -0.00368004)
(0.121719 0 -0.00306816)
(0.097421 0 -0.00242953)
(0.0715431 0 -0.00176499)
(0.0440771 0 -0.00107539)
(0.0149888 0 -0.000360697)
)
;

boundaryField
{
    inlet
    {
        type            cellMotion;
        value           nonuniform 0();
    }
    outlet
    {
        type            cellMotion;
        value           uniform (0 0 0);
    }
    flap
    {
        type            cellMotion;
        value           nonuniform 0();
    }
    upperWall
    {
        type            slip;
    }
    lowerWall
    {
        type            slip;
    }
    frontAndBack
    {
        type            empty;
    }
    procBoundary2to1
    {
        type            processor;
        value           nonuniform List<vector> 
17
(
(0.464471 0 -0.166536)
(0.454984 0 -0.160574)
(0.445234 0 -0.154344)
(0.435306 0 -0.14783)
(0.425286 0 -0.141006)
(0.415258 0 -0.133841)
(0.405306 0 -0.12629)
(0.395519 0 -0.118302)
(0.385993 0 -0.10981)
(0.37683 0 -0.100736)
(0.368145 0 -0.090983)
(0.36007 0 -0.0804333)
(0.352755 0 -0.0689425)
(0.346377 0 -0.0563325)
(0.341146 0 -0.0423813)
(0.337318 0 -0.0268099)
(0.335212 0 -0.00929905)
)
;
    }
    procBoundary2to4
    {
        type            processor;
        value           nonuniform List<vector> 
11
(
(0.522456 0 -0.209017)
(0.522568 0 -0.207925)
(0.521357 0 -0.205999)
(0.518885 0 -0.203373)
(0.515211 0 -0.200151)
(0.51041 0 -0.196417)
(0.504596 0 -0.192248)
(0.497893 0 -0.187706)
(0.490419 0 -0.182836)
(0.482287 0 -0.177672)
(0.473603 0 -0.172236)
)
;
    }
    procBoundary2to5
    {
        type            processor;
        value           nonuniform List<vector> 
34
(
(0.512285 0 -0.201287)
(0.503023 0 -0.19317)
(0.493743 0 -0.186262)
(0.493743 0 -0.186262)
(0.482643 0 -0.178137)
(0.470007 0 -0.171112)
(0.470007 0 -0.171112)
(0.455227 0 -0.163764)
(0.455227 0 -0.163764)
(0.440422 0 -0.155623)
(0.422099 0 -0.147904)
(0.422099 0 -0.147904)
(0.404307 0 -0.139482)
(0.382222 0 -0.131177)
(0.382222 0 -0.131177)
(0.357985 0 -0.122305)
(0.357985 0 -0.122305)
(0.334992 0 -0.113195)
(0.306825 0 -0.103424)
(0.306825 0 -0.103424)
(0.276599 0 -0.0929883)
(0.276599 0 -0.0929883)
(0.247747 0 -0.082714)
(0.213643 0 -0.0711858)
(0.213643 0 -0.0711858)
(0.177747 0 -0.0590315)
(0.177747 0 -0.0590315)
(0.142666 0 -0.047205)
(0.103285 0 -0.0340283)
(0.103285 0 -0.0340283)
(0.0626237 0 -0.0204904)
(0.0626237 0 -0.0204904)
(0.0208339 0 -0.0067462)
(0.0208339 0 -0.0067462)
)
;
    }
}


// ************************************************************************* //
