/*--------------------------------*- C++ -*----------------------------------*\
| =========                 |                                                 |
| \\      /  F ield         | OpenFOAM: The Open Source CFD Toolbox           |
|  \\    /   O peration     | Version:  dev                                   |
|   \\  /    A nd           | Web:      www.OpenFOAM.org                      |
|    \\/     M anipulation  |                                                 |
\*---------------------------------------------------------------------------*/
FoamFile
{
    version     2.0;
    format      ascii;
    class       pointVectorField;
    location    "0.25";
    object      pointDisplacement;
}
// * * * * * * * * * * * * * * * * * * * * * * * * * * * * * * * * * * * * * //

dimensions      [0 1 0 0 0 0 0];

internalField   nonuniform List<vector> 
1028
(
(0.0206963 0 0.00234068)
(0.0209528 0 0.00240081)
(0.0206569 0 0.00234262)
(0.0209014 0 0.00240037)
(0.0211096 0 0.00245258)
(0.0212818 0 0.00249947)
(0.020595 0 0.00233828)
(0.0208296 0 0.00239357)
(0.021029 0 0.00244341)
(0.0211944 0 0.00248796)
(0.0213276 0 0.00252738)
(0.021431 0 0.00256182)
(0.020512 0 0.00232785)
(0.0207385 0 0.00238066)
(0.020931 0 0.00242812)
(0.021091 0 0.00247032)
(0.0212207 0 0.00250737)
(0.0213225 0 0.00253937)
(0.0213994 0 0.0025664)
(0.0214543 0 0.00258841)
(0.0204092 0 0.00231151)
(0.020629 0 0.00236189)
(0.0208158 0 0.002407)
(0.0209715 0 0.00244689)
(0.0210983 0 0.00248165)
(0.0211987 0 0.00251137)
(0.0212752 0 0.00253608)
(0.0213305 0 0.00255577)
(0.0213671 0 0.00257038)
(0.0213856 0 0.00257894)
(0.0202876 0 0.0022894)
(0.0205018 0 0.00233741)
(0.0206838 0 0.00238023)
(0.0208358 0 0.0024179)
(0.0209602 0 0.00245051)
(0.0210591 0 0.00247811)
(0.0211352 0 0.00250077)
(0.0211905 0 0.00251848)
(0.0212273 0 0.00253126)
(0.021246 0 0.00253842)
(0.0201479 0 0.00226159)
(0.0203573 0 0.00230732)
(0.0205353 0 0.00234794)
(0.0206843 0 0.00238351)
(0.0208064 0 0.00241409)
(0.020904 0 0.00243977)
(0.0209793 0 0.0024606)
(0.0210344 0 0.00247664)
(0.0210712 0 0.00248793)
(0.0210898 0 0.00249402)
(0.0199909 0 0.00222811)
(0.0201962 0 0.00227165)
(0.0203708 0 0.00231018)
(0.0205171 0 0.00234377)
(0.0206373 0 0.00237248)
(0.0207336 0 0.0023964)
(0.0208081 0 0.00241563)
(0.0208627 0 0.00243023)
(0.0208992 0 0.00244031)
(0.0209178 0 0.00244554)
(0.0198174 0 0.00218891)
(0.0200192 0 0.00223037)
(0.0201909 0 0.00226693)
(0.0203348 0 0.00229866)
(0.0204532 0 0.00232564)
(0.0205482 0 0.00234798)
(0.0206219 0 0.00236578)
(0.0206759 0 0.00237915)
(0.0207121 0 0.00238822)
(0.0207304 0 0.00239277)
(0.0196285 0 0.00214395)
(0.0198272 0 0.0021834)
(0.0199963 0 0.00221809)
(0.0201381 0 0.00224807)
(0.0202549 0 0.00227346)
(0.0203487 0 0.00229436)
(0.0204214 0 0.0023109)
(0.0204749 0 0.00232321)
(0.0205106 0 0.00233143)
(0.0205287 0 0.00233543)
(0.0194252 0 0.00209307)
(0.0196212 0 0.0021306)
(0.019788 0 0.0021635)
(0.0199279 0 0.00219185)
(0.0200431 0 0.00221576)
(0.0201357 0 0.00223535)
(0.0202076 0 0.00225076)
(0.0202604 0 0.00226214)
(0.0202957 0 0.00226964)
(0.0203134 0 0.0022732)
(0.0189844 0 0.00199593)
(0.0192089 0 0.00203608)
(0.0194024 0 0.00207175)
(0.019567 0 0.00210293)
(0.0197052 0 0.00212973)
(0.019819 0 0.00215226)
(0.0199105 0 0.00217065)
(0.0199815 0 0.00218505)
(0.0200337 0 0.00219561)
(0.0200685 0 0.00220249)
(0.0200859 0 0.00220568)
(0.018759 0 0.00193444)
(0.018981 0 0.00197266)
(0.0191722 0 0.00200652)
(0.0193349 0 0.00203606)
(0.0194714 0 0.00206139)
(0.0195839 0 0.00208262)
(0.0196744 0 0.0020999)
(0.0197445 0 0.00211337)
(0.0197961 0 0.0021232)
(0.0198303 0 0.00212955)
(0.0198474 0 0.00213243)
(0.0185234 0 0.00186611)
(0.0187431 0 0.00190242)
(0.0189322 0 0.00193453)
(0.0190931 0 0.00196249)
(0.0192281 0 0.0019864)
(0.0193394 0 0.00200641)
(0.0194289 0 0.00202265)
(0.0194983 0 0.00203528)
(0.0195491 0 0.00204444)
(0.0195829 0 0.00205032)
(0.0195996 0 0.00205294)
(0.0182796 0 0.0017905)
(0.0184971 0 0.00182493)
(0.0186843 0 0.00185531)
(0.0188436 0 0.00188173)
(0.0189773 0 0.00190429)
(0.0190874 0 0.00192312)
(0.019176 0 0.00193838)
(0.0192446 0 0.0019502)
(0.0192948 0 0.00195876)
(0.0193281 0 0.00196421)
(0.0193444 0 0.00196661)
(0.0180298 0 0.00170712)
(0.0182453 0 0.00173965)
(0.0184308 0 0.00176832)
(0.0185886 0 0.00179321)
(0.0187211 0 0.00181444)
(0.0188302 0 0.00183214)
(0.0189179 0 0.00184644)
(0.0189857 0 0.00185751)
(0.0190354 0 0.00186549)
(0.0190682 0 0.00187056)
(0.0190842 0 0.00187276)
(0.0177768 0 0.00161537)
(0.0179905 0 0.00164596)
(0.0181744 0 0.0016729)
(0.0183309 0 0.00169626)
(0.0184622 0 0.00171617)
(0.0185703 0 0.00173274)
(0.0186572 0 0.00174611)
(0.0187244 0 0.00175645)
(0.0187735 0 0.00176388)
(0.0188058 0 0.00176858)
(0.0188214 0 0.00177061)
(0.0175237 0 0.00151453)
(0.0177356 0 0.00154312)
(0.0179181 0 0.00156828)
(0.0180734 0 0.00159009)
(0.0182036 0 0.00160865)
(0.0183109 0 0.00162408)
(0.018397 0 0.00163653)
(0.0184635 0 0.00164613)
(0.018512 0 0.00165303)
(0.0185439 0 0.00165739)
(0.0185592 0 0.00165925)
(0.0172739 0 0.00140375)
(0.0174843 0 0.00143025)
(0.0176654 0 0.00145356)
(0.0178196 0 0.00147374)
(0.0179488 0 0.00149091)
(0.0180553 0 0.00150519)
(0.0181407 0 0.00151669)
(0.0182066 0 0.00152555)
(0.0182546 0 0.00153191)
(0.0182861 0 0.00153592)
(0.0183011 0 0.00153763)
(0.0170314 0 0.00128203)
(0.0172403 0 0.00130631)
(0.0174203 0 0.00132765)
(0.0175734 0 0.00134613)
(0.0177018 0 0.00136184)
(0.0178075 0 0.00137489)
(0.0178922 0 0.00138541)
(0.0179577 0 0.0013935)
(0.0180052 0 0.00139931)
(0.0180362 0 0.00140297)
(0.018051 0 0.00140452)
(0.0168006 0 0.00114821)
(0.0170083 0 0.00117008)
(0.0171872 0 0.0011893)
(0.0173394 0 0.00120595)
(0.0174671 0 0.00122009)
(0.0175721 0 0.00123184)
(0.0176562 0 0.0012413)
(0.0177212 0 0.00124859)
(0.0177683 0 0.00125382)
(0.017799 0 0.0012571)
(0.0178134 0 0.0012585)
(0.0165867 0 0.00100089)
(0.0167933 0 0.00102012)
(0.0169713 0 0.00103703)
(0.0171227 0 0.00105166)
(0.0172496 0 0.0010641)
(0.0173541 0 0.00107444)
(0.0174377 0 0.00108276)
(0.0175022 0 0.00108917)
(0.017549 0 0.00109376)
(0.0175793 0 0.00109665)
(0.0175935 0 0.00109789)
(0.0163953 0 0.000838444)
(0.016601 0 0.000854737)
(0.0167782 0 0.000869073)
(0.0169289 0 0.000881481)
(0.0170553 0 0.000892031)
(0.0171593 0 0.000900795)
(0.0172425 0 0.000907854)
(0.0173066 0 0.00091329)
(0.0173531 0 0.000917191)
(0.0173832 0 0.000919647)
(0.0173971 0 0.0009207)
(0.0162328 0 0.000658943)
(0.0164378 0 0.000671932)
(0.0166144 0 0.000683366)
(0.0167646 0 0.000693267)
(0.0168906 0 0.000701688)
(0.0169941 0 0.000708685)
(0.017077 0 0.000714323)
(0.0171409 0 0.000718666)
(0.0171871 0 0.000721785)
(0.0172169 0 0.00072375)
(0.0172307 0 0.000724597)
(0.0161065 0 0.000460117)
(0.0163109 0 0.000469337)
(0.0164871 0 0.000477459)
(0.016637 0 0.000484495)
(0.0167626 0 0.000490482)
(0.0168659 0 0.00049546)
(0.0169486 0 0.000499472)
(0.0170122 0 0.000502564)
(0.0170582 0 0.000504785)
(0.0170879 0 0.000506187)
(0.0171016 0 0.000506796)
(0.0160244 0 0.000239277)
(0.0162285 0 0.000244146)
(0.0164044 0 0.000248438)
(0.0165541 0 0.000252158)
(0.0166796 0 0.000255325)
(0.0167827 0 0.000257959)
(0.0168653 0 0.000260083)
(0.0169288 0 0.000261721)
(0.0169747 0 0.000262898)
(0.0170042 0 0.000263642)
(0.0170179 0 0.000263969)
(0.0159954 0 0)
(0.0161994 0 0)
(0.0163753 0 0)
(0.0165249 0 0)
(0.0166503 0 0)
(0.0167534 0 0)
(0.0168359 0 0)
(0.0168994 0 0)
(0.0169452 0 0)
(0.0169748 0 0)
(0.0169884 0 0)
(0.0206963 0 0.00234068)
(0.0209528 0 0.00240081)
(0.0206569 0 0.00234262)
(0.0209014 0 0.00240037)
(0.0211096 0 0.00245258)
(0.0212818 0 0.00249947)
(0.020595 0 0.00233828)
(0.0208296 0 0.00239357)
(0.021029 0 0.00244341)
(0.0211944 0 0.00248796)
(0.0213276 0 0.00252738)
(0.021431 0 0.00256182)
(0.020512 0 0.00232785)
(0.0207385 0 0.00238066)
(0.020931 0 0.00242812)
(0.021091 0 0.00247032)
(0.0212207 0 0.00250737)
(0.0213225 0 0.00253937)
(0.0213994 0 0.0025664)
(0.0214543 0 0.00258841)
(0.0204092 0 0.00231151)
(0.020629 0 0.00236189)
(0.0208158 0 0.002407)
(0.0209715 0 0.00244689)
(0.0210983 0 0.00248165)
(0.0211987 0 0.00251137)
(0.0212752 0 0.00253608)
(0.0213305 0 0.00255577)
(0.0213671 0 0.00257038)
(0.0213856 0 0.00257894)
(0.0202876 0 0.0022894)
(0.0205018 0 0.00233741)
(0.0206838 0 0.00238023)
(0.0208358 0 0.0024179)
(0.0209602 0 0.00245051)
(0.0210591 0 0.00247811)
(0.0211352 0 0.00250077)
(0.0211905 0 0.00251848)
(0.0212273 0 0.00253126)
(0.021246 0 0.00253842)
(0.0201479 0 0.00226159)
(0.0203573 0 0.00230732)
(0.0205353 0 0.00234794)
(0.0206843 0 0.00238351)
(0.0208064 0 0.00241409)
(0.020904 0 0.00243977)
(0.0209793 0 0.0024606)
(0.0210344 0 0.00247664)
(0.0210712 0 0.00248793)
(0.0210898 0 0.00249402)
(0.0199909 0 0.00222811)
(0.0201962 0 0.00227165)
(0.0203708 0 0.00231018)
(0.0205171 0 0.00234377)
(0.0206373 0 0.00237248)
(0.0207336 0 0.0023964)
(0.0208081 0 0.00241563)
(0.0208627 0 0.00243023)
(0.0208992 0 0.00244031)
(0.0209178 0 0.00244554)
(0.0198174 0 0.00218891)
(0.0200192 0 0.00223037)
(0.0201909 0 0.00226693)
(0.0203348 0 0.00229866)
(0.0204532 0 0.00232564)
(0.0205482 0 0.00234798)
(0.0206219 0 0.00236578)
(0.0206759 0 0.00237915)
(0.0207121 0 0.00238822)
(0.0207304 0 0.00239277)
(0.0196285 0 0.00214395)
(0.0198272 0 0.0021834)
(0.0199963 0 0.00221809)
(0.0201381 0 0.00224807)
(0.0202549 0 0.00227346)
(0.0203487 0 0.00229436)
(0.0204214 0 0.0023109)
(0.0204749 0 0.00232321)
(0.0205106 0 0.00233143)
(0.0205287 0 0.00233543)
(0.0194252 0 0.00209307)
(0.0196212 0 0.0021306)
(0.019788 0 0.0021635)
(0.0199279 0 0.00219185)
(0.0200431 0 0.00221576)
(0.0201357 0 0.00223535)
(0.0202076 0 0.00225076)
(0.0202604 0 0.00226214)
(0.0202957 0 0.00226964)
(0.0203134 0 0.0022732)
(0.0189844 0 0.00199593)
(0.0192089 0 0.00203608)
(0.0194024 0 0.00207175)
(0.019567 0 0.00210293)
(0.0197052 0 0.00212973)
(0.019819 0 0.00215226)
(0.0199105 0 0.00217065)
(0.0199815 0 0.00218505)
(0.0200337 0 0.00219561)
(0.0200685 0 0.00220249)
(0.0200859 0 0.00220568)
(0.018759 0 0.00193444)
(0.018981 0 0.00197266)
(0.0191722 0 0.00200652)
(0.0193349 0 0.00203606)
(0.0194714 0 0.00206139)
(0.0195839 0 0.00208262)
(0.0196744 0 0.0020999)
(0.0197445 0 0.00211337)
(0.0197961 0 0.0021232)
(0.0198303 0 0.00212955)
(0.0198474 0 0.00213243)
(0.0185234 0 0.00186611)
(0.0187431 0 0.00190242)
(0.0189322 0 0.00193453)
(0.0190931 0 0.00196249)
(0.0192281 0 0.0019864)
(0.0193394 0 0.00200641)
(0.0194289 0 0.00202265)
(0.0194983 0 0.00203528)
(0.0195491 0 0.00204444)
(0.0195829 0 0.00205032)
(0.0195996 0 0.00205294)
(0.0182796 0 0.0017905)
(0.0184971 0 0.00182493)
(0.0186843 0 0.00185531)
(0.0188436 0 0.00188173)
(0.0189773 0 0.00190429)
(0.0190874 0 0.00192312)
(0.019176 0 0.00193838)
(0.0192446 0 0.0019502)
(0.0192948 0 0.00195876)
(0.0193281 0 0.00196421)
(0.0193444 0 0.00196661)
(0.0180298 0 0.00170712)
(0.0182453 0 0.00173965)
(0.0184308 0 0.00176832)
(0.0185886 0 0.00179321)
(0.0187211 0 0.00181444)
(0.0188302 0 0.00183214)
(0.0189179 0 0.00184644)
(0.0189857 0 0.00185751)
(0.0190354 0 0.00186549)
(0.0190682 0 0.00187056)
(0.0190842 0 0.00187276)
(0.0177768 0 0.00161537)
(0.0179905 0 0.00164596)
(0.0181744 0 0.0016729)
(0.0183309 0 0.00169626)
(0.0184622 0 0.00171617)
(0.0185703 0 0.00173274)
(0.0186572 0 0.00174611)
(0.0187244 0 0.00175645)
(0.0187735 0 0.00176388)
(0.0188058 0 0.00176858)
(0.0188214 0 0.00177061)
(0.0175237 0 0.00151453)
(0.0177356 0 0.00154312)
(0.0179181 0 0.00156828)
(0.0180734 0 0.00159009)
(0.0182036 0 0.00160865)
(0.0183109 0 0.00162408)
(0.018397 0 0.00163653)
(0.0184635 0 0.00164613)
(0.018512 0 0.00165303)
(0.0185439 0 0.00165739)
(0.0185592 0 0.00165925)
(0.0172739 0 0.00140375)
(0.0174843 0 0.00143025)
(0.0176654 0 0.00145356)
(0.0178196 0 0.00147374)
(0.0179488 0 0.00149091)
(0.0180553 0 0.00150519)
(0.0181407 0 0.00151669)
(0.0182066 0 0.00152555)
(0.0182546 0 0.00153191)
(0.0182861 0 0.00153592)
(0.0183011 0 0.00153763)
(0.0170314 0 0.00128203)
(0.0172403 0 0.00130631)
(0.0174203 0 0.00132765)
(0.0175734 0 0.00134613)
(0.0177018 0 0.00136184)
(0.0178075 0 0.00137489)
(0.0178922 0 0.00138541)
(0.0179577 0 0.0013935)
(0.0180052 0 0.00139931)
(0.0180362 0 0.00140297)
(0.018051 0 0.00140452)
(0.0168006 0 0.00114821)
(0.0170083 0 0.00117008)
(0.0171872 0 0.0011893)
(0.0173394 0 0.00120595)
(0.0174671 0 0.00122009)
(0.0175721 0 0.00123184)
(0.0176562 0 0.0012413)
(0.0177212 0 0.00124859)
(0.0177683 0 0.00125382)
(0.017799 0 0.0012571)
(0.0178134 0 0.0012585)
(0.0165867 0 0.00100089)
(0.0167933 0 0.00102012)
(0.0169713 0 0.00103703)
(0.0171227 0 0.00105166)
(0.0172496 0 0.0010641)
(0.0173541 0 0.00107444)
(0.0174377 0 0.00108276)
(0.0175022 0 0.00108917)
(0.017549 0 0.00109376)
(0.0175793 0 0.00109665)
(0.0175935 0 0.00109789)
(0.0163953 0 0.000838444)
(0.016601 0 0.000854737)
(0.0167782 0 0.000869073)
(0.0169289 0 0.000881481)
(0.0170553 0 0.000892031)
(0.0171593 0 0.000900795)
(0.0172425 0 0.000907854)
(0.0173066 0 0.00091329)
(0.0173531 0 0.000917191)
(0.0173832 0 0.000919647)
(0.0173971 0 0.0009207)
(0.0162328 0 0.000658943)
(0.0164378 0 0.000671932)
(0.0166144 0 0.000683366)
(0.0167646 0 0.000693267)
(0.0168906 0 0.000701688)
(0.0169941 0 0.000708685)
(0.017077 0 0.000714323)
(0.0171409 0 0.000718666)
(0.0171871 0 0.000721785)
(0.0172169 0 0.00072375)
(0.0172307 0 0.000724597)
(0.0161065 0 0.000460117)
(0.0163109 0 0.000469337)
(0.0164871 0 0.000477459)
(0.016637 0 0.000484495)
(0.0167626 0 0.000490482)
(0.0168659 0 0.00049546)
(0.0169486 0 0.000499472)
(0.0170122 0 0.000502564)
(0.0170582 0 0.000504785)
(0.0170879 0 0.000506187)
(0.0171016 0 0.000506796)
(0.0160244 0 0.000239277)
(0.0162285 0 0.000244146)
(0.0164044 0 0.000248438)
(0.0165541 0 0.000252158)
(0.0166796 0 0.000255325)
(0.0167827 0 0.000257959)
(0.0168653 0 0.000260083)
(0.0169288 0 0.000261721)
(0.0169747 0 0.000262898)
(0.0170042 0 0.000263642)
(0.0170179 0 0.000263969)
(0.0159954 0 0)
(0.0161994 0 0)
(0.0163753 0 0)
(0.0165249 0 0)
(0.0166503 0 0)
(0.0167534 0 0)
(0.0168359 0 0)
(0.0168994 0 0)
(0.0169452 0 0)
(0.0169748 0 0)
(0.0169884 0 0)
(0.0213914 0 0.00258247)
(0.0212518 0 0.00254113)
(0.0212526 0 0.00254198)
(0.0212487 0 0.00254133)
(0.0210956 0 0.00249613)
(0.0210963 0 0.00249659)
(0.0210924 0 0.00249561)
(0.0209235 0 0.00244719)
(0.0209241 0 0.00244738)
(0.0209201 0 0.0024462)
(0.020736 0 0.00239407)
(0.0207366 0 0.00239407)
(0.0207326 0 0.00239276)
(0.0205341 0 0.00233646)
(0.0205346 0 0.00233633)
(0.0205305 0 0.00233494)
(0.0203187 0 0.00227402)
(0.0203192 0 0.00227379)
(0.020315 0 0.00227238)
(0.020091 0 0.00220635)
(0.0200914 0 0.00220605)
(0.0200872 0 0.00220465)
(0.0198523 0 0.00213298)
(0.0198526 0 0.00213265)
(0.0198484 0 0.00213127)
(0.0196043 0 0.00205339)
(0.0196045 0 0.00205304)
(0.0196003 0 0.00205171)
(0.019349 0 0.00196699)
(0.0193491 0 0.00196663)
(0.0193448 0 0.00196535)
(0.0190885 0 0.00187309)
(0.0190885 0 0.00187273)
(0.0190842 0 0.00187152)
(0.0188256 0 0.00177089)
(0.0188255 0 0.00177055)
(0.0188211 0 0.00176941)
(0.0185632 0 0.0016595)
(0.018563 0 0.00165917)
(0.0185586 0 0.00165812)
(0.0183049 0 0.00153785)
(0.0183046 0 0.00153755)
(0.0183002 0 0.00153658)
(0.0180546 0 0.00140473)
(0.0180543 0 0.00140445)
(0.0180498 0 0.00140357)
(0.0178169 0 0.00125869)
(0.0178165 0 0.00125844)
(0.017812 0 0.00125766)
(0.0175969 0 0.00109805)
(0.0175964 0 0.00109784)
(0.0175919 0 0.00109716)
(0.0174004 0 0.000920842)
(0.0173998 0 0.000920668)
(0.0173953 0 0.000920094)
(0.0172339 0 0.000724715)
(0.0172332 0 0.000724579)
(0.0172287 0 0.000724126)
(0.0171046 0 0.000506884)
(0.017104 0 0.00050679)
(0.0170994 0 0.00050647)
(0.0170209 0 0.000264019)
(0.0170202 0 0.000263971)
(0.0170156 0 0.0002638)
(0.0169914 0 0)
(0.0169907 0 0)
(0.0169861 0 0)
(0.0213914 0 0.00258247)
(0.0212518 0 0.00254113)
(0.0212526 0 0.00254198)
(0.0212487 0 0.00254133)
(0.0210956 0 0.00249613)
(0.0210963 0 0.00249659)
(0.0210924 0 0.00249561)
(0.0209235 0 0.00244719)
(0.0209241 0 0.00244738)
(0.0209201 0 0.0024462)
(0.020736 0 0.00239407)
(0.0207366 0 0.00239407)
(0.0207326 0 0.00239276)
(0.0205341 0 0.00233646)
(0.0205346 0 0.00233633)
(0.0205305 0 0.00233494)
(0.0203187 0 0.00227402)
(0.0203192 0 0.00227379)
(0.020315 0 0.00227238)
(0.020091 0 0.00220635)
(0.0200914 0 0.00220605)
(0.0200872 0 0.00220465)
(0.0198523 0 0.00213298)
(0.0198526 0 0.00213265)
(0.0198484 0 0.00213127)
(0.0196043 0 0.00205339)
(0.0196045 0 0.00205304)
(0.0196003 0 0.00205171)
(0.019349 0 0.00196699)
(0.0193491 0 0.00196663)
(0.0193448 0 0.00196535)
(0.0190885 0 0.00187309)
(0.0190885 0 0.00187273)
(0.0190842 0 0.00187152)
(0.0188256 0 0.00177089)
(0.0188255 0 0.00177055)
(0.0188211 0 0.00176941)
(0.0185632 0 0.0016595)
(0.018563 0 0.00165917)
(0.0185586 0 0.00165812)
(0.0183049 0 0.00153785)
(0.0183046 0 0.00153755)
(0.0183002 0 0.00153658)
(0.0180546 0 0.00140473)
(0.0180543 0 0.00140445)
(0.0180498 0 0.00140357)
(0.0178169 0 0.00125869)
(0.0178165 0 0.00125844)
(0.017812 0 0.00125766)
(0.0175969 0 0.00109805)
(0.0175964 0 0.00109784)
(0.0175919 0 0.00109716)
(0.0174004 0 0.000920842)
(0.0173998 0 0.000920668)
(0.0173953 0 0.000920094)
(0.0172339 0 0.000724715)
(0.0172332 0 0.000724579)
(0.0172287 0 0.000724126)
(0.0171046 0 0.000506884)
(0.017104 0 0.00050679)
(0.0170994 0 0.00050647)
(0.0170209 0 0.000264019)
(0.0170202 0 0.000263971)
(0.0170156 0 0.0002638)
(0.0169914 0 0)
(0.0169907 0 0)
(0.0169861 0 0)
(0.0212329 0 0.00253666)
(0.0210764 0 0.00249083)
(0.0210428 0 0.00248034)
(0.0209912 0 0.00246401)
(0.0209197 0 0.00244152)
(0.020904 0 0.00244141)
(0.0208704 0 0.00243136)
(0.0208189 0 0.002416)
(0.0207477 0 0.002395)
(0.0206551 0 0.00236817)
(0.0205389 0 0.00233539)
(0.0207165 0 0.00238804)
(0.020683 0 0.00237844)
(0.0206316 0 0.00236396)
(0.0205609 0 0.00234431)
(0.020469 0 0.00231926)
(0.0203539 0 0.00228869)
(0.0202135 0 0.00225252)
(0.0200456 0 0.00221077)
(0.0205145 0 0.00233034)
(0.0204811 0 0.00232119)
(0.02043 0 0.00230752)
(0.0203598 0 0.00228908)
(0.0202686 0 0.00226565)
(0.0201546 0 0.00223706)
(0.0200157 0 0.00220321)
(0.0198495 0 0.00216408)
(0.0196541 0 0.00211975)
(0.020299 0 0.00226793)
(0.0202657 0 0.00225922)
(0.020215 0 0.00224632)
(0.0201452 0 0.00222898)
(0.0200548 0 0.002207)
(0.0199418 0 0.0021802)
(0.0198042 0 0.00214846)
(0.0196397 0 0.00211171)
(0.0194463 0 0.00207)
(0.0200712 0 0.00220037)
(0.0200381 0 0.0021921)
(0.0199876 0 0.00217991)
(0.0199183 0 0.0021636)
(0.0198285 0 0.00214294)
(0.0197164 0 0.00211777)
(0.01958 0 0.00208795)
(0.0194171 0 0.00205339)
(0.0192254 0 0.0020141)
(0.0198325 0 0.00212718)
(0.0197995 0 0.00211934)
(0.0197492 0 0.00210785)
(0.0196803 0 0.00209248)
(0.0195911 0 0.00207305)
(0.0194798 0 0.00204939)
(0.0193445 0 0.00202134)
(0.0191829 0 0.00198881)
(0.018993 0 0.00195178)
(0.0195844 0 0.00204782)
(0.0195515 0 0.00204041)
(0.0195015 0 0.00202958)
(0.019433 0 0.00201512)
(0.0193443 0 0.00199685)
(0.0192338 0 0.00197459)
(0.0190994 0 0.00194822)
(0.0189391 0 0.00191759)
(0.0187506 0 0.00188269)
(0.0193289 0 0.00196168)
(0.0192962 0 0.0019547)
(0.0192464 0 0.0019445)
(0.0191782 0 0.00193092)
(0.0190901 0 0.00191375)
(0.0189802 0 0.00189285)
(0.0188467 0 0.00186806)
(0.0186874 0 0.00183926)
(0.0185004 0 0.00180641)
(0.0190684 0 0.00186807)
(0.0190357 0 0.00186151)
(0.0189862 0 0.00185195)
(0.0189183 0 0.00183921)
(0.0188306 0 0.00182312)
(0.0187213 0 0.00180352)
(0.0185886 0 0.00178027)
(0.0184304 0 0.00175325)
(0.0182446 0 0.0017224)
(0.0188053 0 0.00176618)
(0.0187728 0 0.00176006)
(0.0187234 0 0.00175113)
(0.0186559 0 0.00173923)
(0.0185686 0 0.0017242)
(0.0184599 0 0.00170589)
(0.0183279 0 0.00168417)
(0.0181705 0 0.00165889)
(0.0179859 0 0.00163004)
(0.0185429 0 0.00165512)
(0.0185104 0 0.00164943)
(0.0184612 0 0.00164114)
(0.0183939 0 0.00163009)
(0.018307 0 0.00161613)
(0.0181988 0 0.00159911)
(0.0180674 0 0.00157892)
(0.0179109 0 0.00155541)
(0.0177274 0 0.00152857)
(0.0182844 0 0.00153382)
(0.0182521 0 0.00152858)
(0.018203 0 0.00152094)
(0.018136 0 0.00151076)
(0.0180494 0 0.00149789)
(0.0179416 0 0.0014822)
(0.0178109 0 0.00146357)
(0.0176552 0 0.00144189)
(0.0174726 0 0.00141711)
(0.0180341 0 0.00140106)
(0.0180018 0 0.00139629)
(0.0179529 0 0.00138933)
(0.017886 0 0.00138005)
(0.0177997 0 0.00136832)
(0.0176924 0 0.00135401)
(0.0175622 0 0.00133702)
(0.0174071 0 0.00131723)
(0.0172255 0 0.00129461)
(0.0177963 0 0.00125541)
(0.017764 0 0.00125114)
(0.0177153 0 0.0012449)
(0.0176486 0 0.00123658)
(0.0175626 0 0.00122605)
(0.0174556 0 0.00121321)
(0.0173259 0 0.00119795)
(0.0171714 0 0.00118018)
(0.0169906 0 0.00115987)
(0.0175762 0 0.0010952)
(0.017544 0 0.00109146)
(0.0174953 0 0.001086)
(0.0174288 0 0.0010787)
(0.017343 0 0.00106947)
(0.0172364 0 0.00105821)
(0.017107 0 0.00104483)
(0.0169531 0 0.00102925)
(0.016773 0 0.00101144)
(0.0173796 0 0.000918447)
(0.0173475 0 0.000915293)
(0.0172989 0 0.000910676)
(0.0172325 0 0.000904509)
(0.0171469 0 0.000896707)
(0.0170405 0 0.000887187)
(0.0169115 0 0.000875874)
(0.016758 0 0.000862698)
(0.0165784 0 0.00084764)
(0.017213 0 0.000722819)
(0.0171809 0 0.000720314)
(0.0171324 0 0.000716642)
(0.0170661 0 0.000711735)
(0.0169806 0 0.000705525)
(0.0168744 0 0.000697947)
(0.0167456 0 0.000688942)
(0.0165925 0 0.000678456)
(0.0164134 0 0.000666474)
(0.0170837 0 0.000505545)
(0.0170517 0 0.000503772)
(0.0170031 0 0.000501169)
(0.0169369 0 0.00049769)
(0.0168515 0 0.000493285)
(0.0167454 0 0.000487911)
(0.0166168 0 0.000481524)
(0.0164639 0 0.000474089)
(0.0162851 0 0.000465596)
(0.0169999 0 0.000263311)
(0.0169678 0 0.000262376)
(0.0169193 0 0.000261003)
(0.0168531 0 0.000259166)
(0.0167678 0 0.000256841)
(0.0166617 0 0.000254003)
(0.0165332 0 0.000250632)
(0.0163804 0 0.000246708)
(0.0162018 0 0.000242228)
(0.0169704 0 0)
(0.0169383 0 0)
(0.0168898 0 0)
(0.0168236 0 0)
(0.0167383 0 0)
(0.0166322 0 0)
(0.0165037 0 0)
(0.0163509 0 0)
(0.0161724 0 0)
(0.0212329 0 0.00253666)
(0.0210764 0 0.00249083)
(0.0210428 0 0.00248034)
(0.0209912 0 0.00246401)
(0.0209197 0 0.00244152)
(0.020904 0 0.00244141)
(0.0208704 0 0.00243136)
(0.0208189 0 0.002416)
(0.0207477 0 0.002395)
(0.0206551 0 0.00236817)
(0.0205389 0 0.00233539)
(0.0207165 0 0.00238804)
(0.020683 0 0.00237844)
(0.0206316 0 0.00236396)
(0.0205609 0 0.00234431)
(0.020469 0 0.00231926)
(0.0203539 0 0.00228869)
(0.0202135 0 0.00225252)
(0.0200456 0 0.00221077)
(0.0205145 0 0.00233034)
(0.0204811 0 0.00232119)
(0.02043 0 0.00230752)
(0.0203598 0 0.00228908)
(0.0202686 0 0.00226565)
(0.0201546 0 0.00223706)
(0.0200157 0 0.00220321)
(0.0198495 0 0.00216408)
(0.0196541 0 0.00211975)
(0.020299 0 0.00226793)
(0.0202657 0 0.00225922)
(0.020215 0 0.00224632)
(0.0201452 0 0.00222898)
(0.0200548 0 0.002207)
(0.0199418 0 0.0021802)
(0.0198042 0 0.00214846)
(0.0196397 0 0.00211171)
(0.0194463 0 0.00207)
(0.0200712 0 0.00220037)
(0.0200381 0 0.0021921)
(0.0199876 0 0.00217991)
(0.0199183 0 0.0021636)
(0.0198285 0 0.00214294)
(0.0197164 0 0.00211777)
(0.01958 0 0.00208795)
(0.0194171 0 0.00205339)
(0.0192254 0 0.0020141)
(0.0198325 0 0.00212718)
(0.0197995 0 0.00211934)
(0.0197492 0 0.00210785)
(0.0196803 0 0.00209248)
(0.0195911 0 0.00207305)
(0.0194798 0 0.00204939)
(0.0193445 0 0.00202134)
(0.0191829 0 0.00198881)
(0.018993 0 0.00195178)
(0.0195844 0 0.00204782)
(0.0195515 0 0.00204041)
(0.0195015 0 0.00202958)
(0.019433 0 0.00201512)
(0.0193443 0 0.00199685)
(0.0192338 0 0.00197459)
(0.0190994 0 0.00194822)
(0.0189391 0 0.00191759)
(0.0187506 0 0.00188269)
(0.0193289 0 0.00196168)
(0.0192962 0 0.0019547)
(0.0192464 0 0.0019445)
(0.0191782 0 0.00193092)
(0.0190901 0 0.00191375)
(0.0189802 0 0.00189285)
(0.0188467 0 0.00186806)
(0.0186874 0 0.00183926)
(0.0185004 0 0.00180641)
(0.0190684 0 0.00186807)
(0.0190357 0 0.00186151)
(0.0189862 0 0.00185195)
(0.0189183 0 0.00183921)
(0.0188306 0 0.00182312)
(0.0187213 0 0.00180352)
(0.0185886 0 0.00178027)
(0.0184304 0 0.00175325)
(0.0182446 0 0.0017224)
(0.0188053 0 0.00176618)
(0.0187728 0 0.00176006)
(0.0187234 0 0.00175113)
(0.0186559 0 0.00173923)
(0.0185686 0 0.0017242)
(0.0184599 0 0.00170589)
(0.0183279 0 0.00168417)
(0.0181705 0 0.00165889)
(0.0179859 0 0.00163004)
(0.0185429 0 0.00165512)
(0.0185104 0 0.00164943)
(0.0184612 0 0.00164114)
(0.0183939 0 0.00163009)
(0.018307 0 0.00161613)
(0.0181988 0 0.00159911)
(0.0180674 0 0.00157892)
(0.0179109 0 0.00155541)
(0.0177274 0 0.00152857)
(0.0182844 0 0.00153382)
(0.0182521 0 0.00152858)
(0.018203 0 0.00152094)
(0.018136 0 0.00151076)
(0.0180494 0 0.00149789)
(0.0179416 0 0.0014822)
(0.0178109 0 0.00146357)
(0.0176552 0 0.00144189)
(0.0174726 0 0.00141711)
(0.0180341 0 0.00140106)
(0.0180018 0 0.00139629)
(0.0179529 0 0.00138933)
(0.017886 0 0.00138005)
(0.0177997 0 0.00136832)
(0.0176924 0 0.00135401)
(0.0175622 0 0.00133702)
(0.0174071 0 0.00131723)
(0.0172255 0 0.00129461)
(0.0177963 0 0.00125541)
(0.017764 0 0.00125114)
(0.0177153 0 0.0012449)
(0.0176486 0 0.00123658)
(0.0175626 0 0.00122605)
(0.0174556 0 0.00121321)
(0.0173259 0 0.00119795)
(0.0171714 0 0.00118018)
(0.0169906 0 0.00115987)
(0.0175762 0 0.0010952)
(0.017544 0 0.00109146)
(0.0174953 0 0.001086)
(0.0174288 0 0.0010787)
(0.017343 0 0.00106947)
(0.0172364 0 0.00105821)
(0.017107 0 0.00104483)
(0.0169531 0 0.00102925)
(0.016773 0 0.00101144)
(0.0173796 0 0.000918447)
(0.0173475 0 0.000915293)
(0.0172989 0 0.000910676)
(0.0172325 0 0.000904509)
(0.0171469 0 0.000896707)
(0.0170405 0 0.000887187)
(0.0169115 0 0.000875874)
(0.016758 0 0.000862698)
(0.0165784 0 0.00084764)
(0.017213 0 0.000722819)
(0.0171809 0 0.000720314)
(0.0171324 0 0.000716642)
(0.0170661 0 0.000711735)
(0.0169806 0 0.000705525)
(0.0168744 0 0.000697947)
(0.0167456 0 0.000688942)
(0.0165925 0 0.000678456)
(0.0164134 0 0.000666474)
(0.0170837 0 0.000505545)
(0.0170517 0 0.000503772)
(0.0170031 0 0.000501169)
(0.0169369 0 0.00049769)
(0.0168515 0 0.000493285)
(0.0167454 0 0.000487911)
(0.0166168 0 0.000481524)
(0.0164639 0 0.000474089)
(0.0162851 0 0.000465596)
(0.0169999 0 0.000263311)
(0.0169678 0 0.000262376)
(0.0169193 0 0.000261003)
(0.0168531 0 0.000259166)
(0.0167678 0 0.000256841)
(0.0166617 0 0.000254003)
(0.0165332 0 0.000250632)
(0.0163804 0 0.000246708)
(0.0162018 0 0.000242228)
(0.0169704 0 0)
(0.0169383 0 0)
(0.0168898 0 0)
(0.0168236 0 0)
(0.0167383 0 0)
(0.0166322 0 0)
(0.0165037 0 0)
(0.0163509 0 0)
(0.0161724 0 0)
)
;

boundaryField
{
    inlet
    {
        type            fixedValue;
        value           nonuniform 0();
    }
    outlet
    {
        type            fixedValue;
        value           nonuniform 0();
    }
    flap
    {
        type            fixedValue;
        value           nonuniform 0();
    }
    upperWall
    {
        type            slip;
    }
    lowerWall
    {
        type            slip;
    }
    frontAndBack
    {
        type            empty;
    }
    procBoundary1to0
    {
        type            processor;
    }
    procBoundary1to2
    {
        type            processor;
    }
    procBoundary1to3
    {
        type            processor;
    }
    procBoundary1to4
    {
        type            processor;
    }
}


// ************************************************************************* //
