/*--------------------------------*- C++ -*----------------------------------*\
| =========                 |                                                 |
| \\      /  F ield         | OpenFOAM: The Open Source CFD Toolbox           |
|  \\    /   O peration     | Version:  dev                                   |
|   \\  /    A nd           | Web:      www.OpenFOAM.org                      |
|    \\/     M anipulation  |                                                 |
\*---------------------------------------------------------------------------*/
FoamFile
{
    version     2.0;
    format      ascii;
    class       volVectorField;
    location    "3.88";
    object      Force;
}
// * * * * * * * * * * * * * * * * * * * * * * * * * * * * * * * * * * * * * //

dimensions      [1 1 -2 0 0 0 0];

internalField   uniform (0 0 0);

boundaryField
{
    inlet
    {
        type            calculated;
        value           uniform (0 0 0);
    }
    outlet
    {
        type            calculated;
        value           uniform (0 0 0);
    }
    flap
    {
        type            calculated;
        value           nonuniform List<vector> 
33
(
(3.90334 -6.48472e-19 -0.0876482)
(3.87562 -1.55234e-17 -0.158273)
(3.85385 -1.65572e-17 -0.202803)
(3.83728 -2.60371e-18 -0.212588)
(3.82221 1.61209e-17 -0.195501)
(3.80216 -1.29905e-18 -0.157278)
(3.77476 3.54228e-23 -0.103843)
(3.73995 1.58189e-17 -0.041472)
(3.69478 -1.02886e-22 0.0215357)
(3.63402 -2.91572e-22 0.0767204)
(3.54729 6.76014e-23 0.118243)
(3.41916 -3.37104e-23 0.142936)
(3.22264 0 0.150634)
(2.89874 -2.75506e-40 0.142945)
(2.27906 -1.89091e-22 0.115521)
(-0.0185108 -7.66042e-20 0.45409)
(-0.0123017 8.02629e-18 0.26338)
(-0.00540142 1.44706e-22 0.0830068)
(-0.074313 1.28763e-20 0.00163244)
(-0.0736695 -1.57908e-17 0.00281247)
(-0.0725951 2.47965e-20 0.0035092)
(-0.0714609 -4.85092e-20 0.00354538)
(-0.0707188 7.64393e-25 0.00313108)
(-0.0708815 0 0.00240619)
(-0.0723287 -2.42278e-20 0.00145883)
(-0.0750881 -5.62733e-24 0.000351127)
(-0.0787277 1.15196e-26 -0.000846512)
(-0.0824635 -1.67205e-17 -0.00200537)
(-0.0855735 2.29589e-41 -0.00295302)
(-0.0880188 -6.24682e-23 -0.00349965)
(-0.0886837 6.74356e-23 -0.00369178)
(-0.0844481 1.25461e-23 -0.00336136)
(-0.0685618 1.5948e-17 -0.00235231)
)
;
    }
    upperWall
    {
        type            calculated;
        value           uniform (0 0 0);
    }
    lowerWall
    {
        type            calculated;
        value           uniform (0 0 0);
    }
    frontAndBack
    {
        type            empty;
    }
}


// ************************************************************************* //
