/*--------------------------------*- C++ -*----------------------------------*\
| =========                 |                                                 |
| \\      /  F ield         | OpenFOAM: The Open Source CFD Toolbox           |
|  \\    /   O peration     | Version:  dev                                   |
|   \\  /    A nd           | Web:      www.OpenFOAM.org                      |
|    \\/     M anipulation  |                                                 |
\*---------------------------------------------------------------------------*/
FoamFile
{
    version     2.0;
    format      ascii;
    class       surfaceScalarField;
    location    "2.79";
    object      phi;
}
// * * * * * * * * * * * * * * * * * * * * * * * * * * * * * * * * * * * * * //

dimensions      [0 3 -1 0 0 0 0];

internalField   nonuniform List<scalar> 
5457
(
0.197878
0.00209762
0.195562
0.00229298
0.193012
0.00252996
0.190188
0.00280656
0.187094
0.00307846
0.183742
0.0033405
0.180135
0.00360056
0.176268
0.00386626
0.172132
0.00414106
0.167714
0.00442857
0.162998
0.0047312
0.157965
0.0050521
0.15259
0.00539501
0.146849
0.00576233
0.140713
0.0061566
0.13415
0.00658046
0.127129
0.00703597
0.119618
0.00752273
0.111585
0.00804003
0.103003
0.00858738
0.0938429
0.00916067
0.0840892
0.0097521
0.0737379
0.0103485
0.0628026
0.0109323
0.0513192
0.0114805
0.0393654
0.0119515
0.0270967
0.0122671
0.0148536
0.0122421
0.00359288
0.0112603
0.00359277
0.199665
0.00240829
0.19866
0.00327556
0.197294
0.00387621
0.195603
0.00447858
0.193596
0.00507025
0.19128
0.00564488
0.188659
0.00621521
0.18573
0.00679351
0.182489
0.00738756
0.178922
0.00800553
0.175017
0.00865168
0.170755
0.00933269
0.166114
0.0100571
0.161068
0.0108297
0.15559
0.0116557
0.149648
0.0125407
0.143208
0.0134902
0.136235
0.0145078
0.128691
0.0155912
0.120544
0.0167399
0.111755
0.0179509
0.102293
0.019212
0.0921355
0.0205033
0.0812679
0.0217968
0.0696893
0.0230564
0.0574252
0.0242133
0.0445491
0.0251416
0.0311761
0.0256141
0.0171169
0.0253191
0.0207096
0.199521
0.00286274
0.198591
0.0041841
0.1973
0.00514686
0.195711
0.00604897
0.193839
0.00692647
0.191688
0.00778388
0.18926
0.00863639
0.186555
0.00949678
0.18357
0.0103778
0.180295
0.0112912
0.176716
0.0122455
0.172816
0.0132511
0.168576
0.0143189
0.16397
0.0154569
0.158973
0.0166739
0.153553
0.0179791
0.147676
0.0193824
0.141303
0.0208922
0.134392
0.0225101
0.126899
0.024238
0.118772
0.0260794
0.109955
0.0280279
0.100387
0.0300681
0.0899965
0.0321844
0.0786979
0.0343522
0.0663853
0.0365236
0.0529046
0.0386207
0.0379496
0.0405681
0.020531
0.0427372
0.0412405
0.19943
0.00340895
0.198503
0.00508854
0.197229
0.00640084
0.195659
0.00760101
0.193813
0.00875678
0.191697
0.0098875
0.189315
0.011011
0.186669
0.0121412
0.183756
0.0132949
0.180571
0.0144857
0.177102
0.0157298
0.173332
0.0170404
0.169245
0.0184274
0.16482
0.0199033
0.160034
0.0214806
0.154859
0.0231729
0.149263
0.0249944
0.143209
0.026958
0.136652
0.0290762
0.129539
0.0313563
0.12181
0.0338099
0.113385
0.0364517
0.104171
0.0392793
0.0940508
0.0423017
0.0828579
0.0455424
0.0703493
0.0490301
0.0561833
0.0527851
0.0399472
0.0568032
0.0210771
0.0616069
0.0623176
0.199384
0.00400125
0.198449
0.00600141
0.197189
0.00764132
0.195637
0.00913431
0.193814
0.0105636
0.191727
0.0119618
0.189381
0.0133495
0.186776
0.0147436
0.183911
0.0161639
0.180779
0.0176274
0.17737
0.0191542
0.173669
0.0207601
0.169661
0.0224565
0.165327
0.0242593
0.160644
0.0261848
0.155585
0.0282506
0.15012
0.0304761
0.14421
0.0328802
0.137811
0.0354844
0.130864
0.0383094
0.123297
0.0413789
0.115012
0.0447351
0.10588
0.0484094
0.0957498
0.0524292
0.0844224
0.0568673
0.0715994
0.061851
0.0568643
0.0675188
0.0397855
0.0738811
0.0204811
0.080911
0.0827986
0.199362
0.0046158
0.198421
0.00692069
0.197176
0.00886671
0.195648
0.0106433
0.193855
0.0123404
0.191803
0.0140006
0.189498
0.0156462
0.18694
0.0172991
0.184126
0.0189818
0.181047
0.0207149
0.177695
0.0225206
0.174057
0.024417
0.170115
0.0264192
0.165851
0.028546
0.16124
0.0308173
0.156254
0.0332557
0.150862
0.0358854
0.145017
0.0387378
0.138674
0.0418376
0.131768
0.0452209
0.124215
0.048935
0.115911
0.0530387
0.106709
0.0576098
0.0964048
0.0627308
0.0847666
0.0685033
0.0715428
0.075073
0.0563633
0.082697
0.0387954
0.0914482
0.0195047
0.100201
0.102303
0.199354
0.00523876
0.198415
0.0078385
0.197189
0.0100731
0.195688
0.0121251
0.193928
0.0140844
0.191917
0.0159982
0.18966
0.0178943
0.187156
0.0198
0.1844
0.02174
0.181386
0.0237374
0.178102
0.0258183
0.174534
0.0280035
0.170664
0.0303098
0.166472
0.0327601
0.161932
0.0353793
0.157013
0.0381952
0.151676
0.0412394
0.145877
0.0445509
0.13956
0.0481647
0.132647
0.0521411
0.125035
0.0565503
0.116617
0.0614565
0.107254
0.0669719
0.0967167
0.0732661
0.084732
0.0804861
0.0710793
0.0887241
0.0555224
0.0982528
0.0377262
0.109244
0.0186112
0.119316
0.120914
0.199355
0.00586178
0.198425
0.00874754
0.197222
0.0112565
0.195753
0.0135746
0.194034
0.015787
0.192073
0.0179449
0.189874
0.0200845
0.187432
0.022237
0.184746
0.0244287
0.181804
0.0266868
0.178597
0.029039
0.175109
0.0315084
0.171323
0.0341165
0.167216
0.03689
0.162758
0.0398593
0.157915
0.0430582
0.15264
0.0465318
0.146887
0.0503192
0.140593
0.0544701
0.13367
0.059072
0.126014
0.0642104
0.117481
0.0699904
0.107901
0.0765509
0.0970961
0.0840695
0.0848028
0.0927781
0.0707423
0.102783
0.0548467
0.114148
0.0369435
0.127147
0.0180009
0.138259
0.138915
0.19936
0.00648004
0.198445
0.00964215
0.19727
0.012412
0.195841
0.0149846
0.194171
0.0174396
0.192268
0.0198336
0.190132
0.02221
0.187762
0.0246016
0.185153
0.0270389
0.182294
0.0295534
0.179175
0.0321698
0.175784
0.0349167
0.172097
0.0378242
0.16809
0.0409188
0.163731
0.0442398
0.158982
0.0478282
0.153796
0.0517359
0.148119
0.0560115
0.141869
0.0607326
0.134958
0.0659921
0.127286
0.0718869
0.118686
0.0785921
0.108951
0.0862859
0.0979197
0.0951003
0.0853615
0.105336
0.070971
0.117173
0.0547829
0.130335
0.0367571
0.145173
0.0178706
0.157145
0.156786
0.19937
0.00708949
0.198476
0.010516
0.197335
0.0135338
0.195951
0.0163491
0.194335
0.0190383
0.192492
0.0216609
0.190427
0.0242645
0.188137
0.026886
0.185615
0.0295605
0.182853
0.0323207
0.17984
0.0351948
0.176557
0.0382154
0.172987
0.0414147
0.169102
0.0448247
0.164868
0.0484964
0.160238
0.0524795
0.155171
0.0568212
0.149608
0.0615909
0.143464
0.0668898
0.136637
0.072828
0.128992
0.079538
0.120394
0.087193
0.110653
0.0960283
0.0995153
0.106238
0.0867903
0.118061
0.0722475
0.131716
0.0558332
0.14675
0.0375958
0.16341
0.0185426
0.176199
0.175329
0.199385
0.00768497
0.198517
0.0113651
0.197413
0.0146181
0.196079
0.0176634
0.194523
0.0205771
0.192749
0.0234188
0.190762
0.0262392
0.188561
0.0290807
0.186138
0.0319819
0.183487
0.0349764
0.18059
0.0381021
0.177432
0.0413888
0.173998
0.0448676
0.170256
0.0485881
0.16617
0.0526041
0.161704
0.0569663
0.156806
0.0617386
0.151399
0.0670143
0.145414
0.0728887
0.138756
0.079496
0.131267
0.0870346
0.122809
0.0956546
0.113212
0.105628
0.102181
0.117271
0.0895242
0.130719
0.0750283
0.146213
0.0585143
0.163265
0.0400438
0.181882
0.0205144
0.195728
0.195843
0.199404
0.00826225
0.198564
0.0121864
0.197501
0.015662
0.196222
0.0189232
0.194732
0.0220487
0.193036
0.0250986
0.191137
0.0281255
0.189033
0.0311759
0.18672
0.0342928
0.184186
0.0375135
0.18142
0.0408773
0.178409
0.0444141
0.175133
0.0481614
0.171557
0.0521839
0.167653
0.0565302
0.163387
0.0612529
0.158706
0.0664388
0.153538
0.0722002
0.147795
0.0786459
0.1414
0.0859016
0.134232
0.0942113
0.126104
0.103788
0.116858
0.114878
0.106276
0.127855
0.0940672
0.14293
0.079944
0.160339
0.0636511
0.17956
0.045097
0.200437
0.0247567
0.216069
0.2206
0.199426
0.00881927
0.198619
0.0129756
0.197601
0.0166609
0.196381
0.0201241
0.194963
0.0234478
0.193351
0.0266932
0.191548
0.0299148
0.189553
0.0331623
0.187357
0.0364839
0.184953
0.0399198
0.182334
0.0435033
0.179488
0.0472725
0.176389
0.0512776
0.173013
0.0555786
0.169334
0.0602298
0.165306
0.065302
0.160888
0.0708759
0.15603
0.0770753
0.15065
0.0840414
0.144657
0.0919057
0.13796
0.100918
0.130407
0.111349
0.12186
0.12343
0.112143
0.137578
0.100934
0.154143
0.0879026
0.173373
0.0726178
0.194847
0.0546278
0.218428
0.0334207
0.237277
0.254021
0.199449
0.00935405
0.198679
0.0137285
0.197712
0.0176101
0.196555
0.0212614
0.195214
0.0247692
0.193694
0.0281962
0.191995
0.0315991
0.190113
0.035033
0.188045
0.038547
0.185788
0.0421769
0.183336
0.0459615
0.18067
0.0499493
0.177767
0.0541949
0.174616
0.0587482
0.171195
0.0636703
0.167462
0.0690552
0.163369
0.0749874
0.15889
0.081572
0.153978
0.0889688
0.14854
0.0973557
0.142512
0.106956
0.135834
0.118036
0.128392
0.13088
0.120057
0.145919
0.110658
0.163548
0.0999347
0.184101
0.0873593
0.207426
0.0721631
0.233626
0.0515709
0.25787
0.305592
0.199472
0.00986782
0.19874
0.0144446
0.197824
0.0185075
0.196733
0.0223332
0.195472
0.0260113
0.194045
0.0296049
0.192452
0.0331763
0.190688
0.0367849
0.188755
0.0404729
0.186654
0.0442767
0.184374
0.0482459
0.181899
0.0524328
0.179216
0.0568916
0.176308
0.0616719
0.173164
0.0668335
0.169755
0.0724824
0.166044
0.078717
0.162018
0.085615
0.157651
0.0933509
0.152892
0.102128
0.14773
0.112131
0.142176
0.1236
0.136209
0.136857
0.129857
0.152278
0.123207
0.170206
0.116356
0.190957
0.109227
0.214559
0.10163
0.241225
0.0893239
0.270177
0.394915
0.000946577
-0.000946022
0.00332784
-0.00237858
0.0061734
-0.00283697
0.00860281
-0.00241082
0.0102044
-0.00157119
0.0109533
-0.000708994
0.0110451
-4.79007e-05
0.0107231
0.000365301
0.0101869
0.000576329
0.00956708
0.00065235
0.00893966
0.000650054
0.0083405
0.00061706
0.00776106
0.000596411
0.0071782
0.000598804
0.00659036
0.000601613
0.00601192
0.000588735
0.00542664
0.000590976
0.00477149
0.000655368
0.00399973
0.000765927
0.00315744
0.000830086
0.00237722
0.000761516
0.00180958
0.000542457
0.0015638
0.000214334
0.00170024
-0.000173753
0.00223115
-0.000573582
0.00313227
-0.00094866
0.00440673
-0.00132625
0.00611219
-0.0017608
0.00829439
-0.00224049
-0.00257176
0.00113376
-0.0020792
0.00339365
-0.00463563
0.00608058
-0.005515
0.00843081
-0.00474206
0.0100951
-0.0032049
0.0110346
-0.00160893
0.0113704
-0.000340489
0.0112671
0.000510621
0.0108998
0.000982323
0.0104015
0.00118233
0.00985083
0.00122326
0.00928646
0.00119935
0.00870568
0.00119449
0.00809522
0.00122558
0.00747589
0.00123507
0.00688147
0.00119377
0.00629127
0.00118716
0.00562977
0.0013174
0.00485293
0.00153723
0.00400956
0.00166157
0.00320876
0.00154391
0.00253315
0.00119317
0.00197002
0.000746289
0.00145511
0.000304117
0.00104923
-0.000210155
0.000904322
-0.000851116
0.00114187
-0.00161544
0.00187546
-0.0025496
0.00320955
-0.00363277
-0.00453349
0.00140418
-0.00348275
0.00345461
-0.00668304
0.00556506
-0.00761622
0.00723852
-0.00639637
0.00829564
-0.00423198
0.00877377
-0.00204904
0.0087876
-0.000313436
0.00845369
0.000883923
0.00789408
0.00157788
0.00719289
0.00191379
0.00640118
0.00203752
0.00554057
0.0020784
0.00459204
0.00216109
0.00353387
0.00230081
0.00240795
0.0023758
0.00128481
0.00232819
0.000159076
0.00231957
-0.00105289
0.00253058
-0.00242034
0.00289989
-0.00395336
0.00318342
-0.0056005
0.00317334
-0.00724034
0.00280878
-0.00867373
0.00214914
-0.00969404
0.001288
-0.0102438
0.000297689
-0.0102877
-0.000854146
-0.0097724
-0.00218191
-0.00879982
-0.00357703
-0.00760051
-0.00488996
-0.00594176
0.00172639
-0.00520846
0.00353852
-0.00849195
0.00498118
-0.00904943
0.00582123
-0.00721757
0.00607344
-0.00445564
0.0058586
-0.00179903
0.00524835
0.000334025
0.00433343
0.00183448
0.00322904
0.00271497
0.00196335
0.00320796
0.000541223
0.00348223
-0.00104515
0.00368413
-0.00281925
0.00395425
-0.00480891
0.00430845
-0.0070062
0.00458879
-0.00932455
0.00465875
-0.0115719
0.00457452
-0.0135506
0.00451153
-0.0151919
0.00453741
-0.0165256
0.00450696
-0.0175882
0.00421932
-0.0183749
0.0035722
-0.0188523
0.00259695
-0.019007
0.00140712
-0.0188591
0.000108675
-0.0185001
-0.00125926
-0.0180594
-0.00267323
-0.0176383
-0.00405236
-0.0172706
-0.00531511
-0.00630747
0.00183482
-0.00704256
0.00328722
-0.00994095
0.00395725
-0.0097099
0.00383042
-0.00707261
0.00311637
-0.00371523
0.00183241
-0.0004835
0.000120177
0.00207917
-0.00177631
0.00376249
-0.00381693
0.00478493
-0.0060355
0.00545314
-0.0084259
0.0058952
-0.0109103
0.00618874
-0.0133633
0.00642721
-0.0156856
0.00664971
-0.017847
0.00676684
-0.0198462
0.00667117
-0.021638
0.00637515
-0.0231306
0.00600745
-0.0242581
0.00566239
-0.0250295
0.00526945
-0.0255086
0.00468298
-0.0257791
0.00382067
-0.0259191
0.00270848
-0.0259829
0.00143635
-0.0259907
7.63369e-05
-0.0259637
-0.0013316
-0.0259395
-0.0027472
-0.0259461
-0.00409928
-0.0260083
-0.00530975
-0.00621451
0.00159431
-0.00863609
0.00245716
-0.0108003
0.0021304
-0.00937372
0.000734673
-0.00565993
-0.00160976
-0.00134717
-0.00449453
0.00242885
-0.00730827
0.00492141
-0.00995119
0.00643296
-0.012535
0.00739497
-0.0150883
0.00803116
-0.0176053
0.00843449
-0.0200464
0.00865063
-0.0223323
0.00873373
-0.0243843
0.00872143
-0.0261669
0.00856693
-0.0276873
0.00820591
-0.0289701
0.0076679
-0.030017
0.00705895
-0.0308082
0.00645242
-0.0313556
0.00580933
-0.0317203
0.00503347
-0.031988
0.00406763
-0.0322263
0.00291954
-0.0324603
0.001637
-0.0326874
0.000264282
-0.0329037
-0.00115956
-0.0331247
-0.00257514
-0.0333712
-0.00390547
-0.0336794
-0.00505758
-0.00586402
0.000988895
-0.00962416
0.00083135
-0.0106391
-0.00107478
-0.00745863
-0.0044835
-0.00223589
-0.00842743
0.00261731
-0.0118965
0.0059215
-0.0149073
0.0079565
-0.0177053
0.00925493
-0.0203543
0.0100674
-0.0228585
0.0105583
-0.0252061
0.0108038
-0.0273775
0.0108431
-0.0293356
0.0107129
-0.0310326
0.0104387
-0.0324547
0.0100073
-0.0336419
0.00940838
-0.034649
0.00868606
-0.0354998
0.00791566
-0.0361929
0.00714562
-0.036744
0.0063543
-0.0371978
0.00547443
-0.0376083
0.00445871
-0.0380111
0.00329645
-0.0384123
0.00200605
-0.0388062
0.000620211
-0.0391935
-0.000815507
-0.0395866
-0.00222996
-0.0400049
-0.00353908
-0.0404856
-0.00463207
-0.0053553
-8.89244e-05
-0.00953438
-0.00199086
-0.00873373
-0.00602925
-0.00341202
-0.0108508
0.00259898
-0.0150235
0.00680751
-0.0184863
0.00940406
-0.0215631
0.011054
-0.0243477
0.0120603
-0.0268904
0.0126313
-0.0292106
0.0128997
-0.0313163
0.0129305
-0.0332044
0.0127523
-0.0348587
0.0123885
-0.036274
0.0118747
-0.0374719
0.0112241
-0.0384976
0.0104501
-0.0393995
0.00960003
-0.0402038
0.00872699
-0.0409176
0.0078608
-0.0415522
0.00698401
-0.0421343
0.0060451
-0.042693
0.00499939
-0.0432451
0.0038239
-0.0437903
0.00252032
-0.0443238
0.00111694
-0.0448521
-0.000329266
-0.0453856
-0.00174328
-0.0459411
-0.00303451
-0.0465526
-0.00407485
-0.00473286
-0.00179835
-0.00773518
-0.00590096
-0.00462788
-0.0115585
0.00225273
-0.0166089
0.00766081
-0.0207102
0.0109233
-0.0242224
0.0129328
-0.0272632
0.0141125
-0.0299308
0.0147463
-0.0322968
0.0150163
-0.0344021
0.0150249
-0.0362645
0.0148132
-0.0379008
0.0144095
-0.039333
0.013842
-0.0405774
0.01314
-0.0416629
0.0123289
-0.0426301
0.0114339
-0.0435156
0.0104984
-0.0443414
0.00956086
-0.045116
0.00863788
-0.0458468
0.00771112
-0.046549
0.00673712
-0.0472379
0.00567143
-0.0479206
0.00448334
-0.0485954
0.00316546
-0.0492577
0.0017437
-0.0499114
0.000283501
-0.0505645
-0.00113589
-0.051235
-0.00241382
-0.0519516
-0.00341163
-0.00401889
-0.0038847
-0.00384965
-0.0104103
0.00190058
-0.0166741
0.00852281
-0.02166
0.0126561
-0.0258042
0.0150796
-0.029253
0.0163955
-0.0321521
0.0170269
-0.0346261
0.0172368
-0.0367657
0.0171734
-0.0386302
0.0169081
-0.0402684
0.0164712
-0.041718
0.0158799
-0.0430077
0.015153
-0.0441606
0.0143138
-0.0452033
0.0133911
-0.0461676
0.0124152
-0.0470793
0.0114234
-0.0479536
0.010444
-0.0487978
0.00948546
-0.0496182
0.0085289
-0.0504248
0.00753467
-0.051227
0.00645809
-0.0520291
0.00526336
-0.052828
0.00393599
-0.0536147
0.00249609
-0.0543794
0.00100849
-0.0551347
-0.000425174
-0.0559054
-0.00169183
-0.0567108
-0.00265853
-0.00322545
-0.00711802
0.00326913
-0.0150232
0.0098083
-0.0213215
0.0148263
-0.0263768
0.0177193
-0.0304088
0.0191217
-0.03365
0.0196486
-0.0362924
0.0196829
-0.0384871
0.0194465
-0.0403565
0.0190592
-0.0419889
0.0185583
-0.0434422
0.0179437
-0.0447552
0.0172132
-0.0459562
0.016375
-0.0470678
0.0154462
-0.0481097
0.0144525
-0.049102
0.0134247
-0.0500601
0.0123953
-0.0509931
0.0113864
-0.0519062
0.0104027
-0.0528057
0.00942671
-0.0537007
0.00842172
-0.0546001
0.007343
-0.0555078
0.00615015
-0.0564201
0.00482109
-0.0573251
0.00336797
-0.0582076
0.00185252
-0.0590678
0.000391566
-0.0599268
-0.000880461
-0.0608124
-0.00182414
-0.00235645
-0.0105452
0.013815
-0.0193437
0.0186089
-0.0258663
0.0213533
-0.030767
0.0226266
-0.0345014
0.0228648
-0.0373818
0.0225396
-0.0396515
0.021965
-0.0415049
0.021314
-0.0430836
0.0206535
-0.0444841
0.0199759
-0.0457665
0.0192449
-0.046967
0.0184336
-0.0481074
0.0175361
-0.0492027
0.0165619
-0.0502635
0.0155327
-0.0512981
0.0144764
-0.0523115
0.0134227
-0.0533063
0.0123909
-0.0542848
0.011386
-0.0552537
0.0103946
-0.0562244
0.00938527
-0.0572092
0.00831434
-0.0582157
0.00713685
-0.0592417
0.00582095
-0.0602712
0.00436559
-0.0612789
0.00282283
-0.0622442
0.00131467
-0.0631871
1.59439e-05
-0.0641529
-0.000908489
-0.00141483
-0.0146687
0.0284843
-0.0240749
0.0280169
-0.0302924
0.0275745
-0.0347548
0.0270948
-0.038011
0.0261289
-0.0403997
0.024938
-0.042193
0.0237699
-0.0436202
0.0227544
-0.0448525
0.0219007
-0.0459912
0.0211312
-0.0470869
0.0203587
-0.0481628
0.0195289
-0.0492301
0.0186235
-0.0502947
0.0176466
-0.0513588
0.0166157
-0.0524204
0.015555
-0.0534743
0.0144906
-0.0545158
0.0134423
-0.0555432
0.0124184
-0.056563
0.011414
-0.0575904
0.0104063
-0.0586444
0.00935571
-0.0597393
0.00821282
-0.0608767
0.00693332
-0.062039
0.00549714
-0.0631889
0.00393643
-0.0642862
0.00237095
-0.0653262
0.00101053
-0.0663671
8.33619e-05
-0.000396504
-0.0187164
0.0472012
-0.0283493
0.0376514
-0.0340475
0.0332762
-0.0380563
0.031109
-0.0407385
0.0288185
-0.0424945
0.0267031
-0.0436807
0.0249671
-0.0445844
0.0236709
-0.0454094
0.02274
-0.0462432
0.0219811
-0.047107
0.0212401
-0.0480011
0.0204419
-0.0489238
0.0195657
-0.0498751
0.0186173
-0.0508539
0.017613
-0.0518554
0.0165731
-0.052869
0.0155179
-0.0538828
0.0144659
-0.05489
0.0134309
-0.0558956
0.0124194
-0.0569169
0.0114218
-0.05798
0.0104069
-0.0591086
0.00932339
-0.0603131
0.00811373
-0.0615793
0.0067336
-0.0628617
0.00518368
-0.0640965
0.0035657
-0.0652514
0.00212123
-0.0663631
0.00114702
0.000736969
-0.0164417
0.0636435
-0.0274182
0.0486298
-0.0350773
0.0409389
-0.0392731
0.03531
-0.0414737
0.0310262
-0.0426025
0.0278408
-0.0431953
0.0255704
-0.043618
0.024106
-0.0441062
0.0232421
-0.0446849
0.0225754
-0.0453189
0.0218912
-0.045982
0.0211232
-0.0466653
0.0202679
-0.0473719
0.0193425
-0.0481089
0.0183678
-0.0488824
0.0173626
-0.0496928
0.0163416
-0.0505339
0.0153166
-0.0513978
0.0143
-0.0522866
0.0133083
-0.0532162
0.0123459
-0.0542123
0.0113917
-0.0553009
0.0103947
-0.0564981
0.00928768
-0.0577967
0.0080034
-0.0591516
0.00650443
-0.0604788
0.00485404
-0.0617109
0.0033101
-0.0628462
0.00223539
0.00199255
0.207142
0.0103714
0.206434
0.015138
0.205551
0.0193727
0.204498
0.0233668
0.203283
0.0272057
0.201914
0.0309545
0.200388
0.0346852
0.198704
0.0384556
0.196866
0.0423021
0.194871
0.0462685
0.192712
0.0504065
0.190383
0.0547688
0.187875
0.059412
0.185177
0.0643845
0.182275
0.0697531
0.179156
0.0756198
0.175822
0.0820684
0.17226
0.0891943
0.168463
0.0971634
0.164458
0.106146
0.160295
0.116307
0.156072
0.127837
0.151927
0.141014
0.148131
0.156085
0.145143
0.173204
0.143739
0.192368
0.14508
0.213223
0.151049
0.235259
0.165637
0.255588
0.270188
0.290364
0.212183
0.0108579
0.21151
0.0157974
0.210673
0.0201927
0.209678
0.0243424
0.208536
0.0283266
0.207252
0.0322186
0.205823
0.0360955
0.204255
0.0400092
0.20255
0.0439965
0.200709
0.0481046
0.198728
0.0523874
0.1966
0.0569016
0.194325
0.0616973
0.191906
0.0668164
0.189334
0.0723411
0.186611
0.0783591
0.183769
0.0849279
0.180802
0.0921779
0.177749
0.100232
0.174708
0.109201
0.171796
0.119233
0.169211
0.130438
0.167254
0.142986
0.166432
0.156921
0.167544
0.172102
0.171809
0.188111
0.181006
0.204032
0.197919
0.218348
0.224045
0.229463
0.243843
0.25039
0.217352
0.0113206
0.216717
0.0164187
0.215935
0.0209598
0.215013
0.0252461
0.213958
0.0293605
0.212772
0.0333837
0.211457
0.037391
0.210021
0.0414285
0.208473
0.0455329
0.206815
0.0497557
0.205042
0.0541582
0.203148
0.058798
0.201149
0.0637039
0.199061
0.0689158
0.19688
0.0745359
0.194631
0.0806235
0.192355
0.0872204
0.190084
0.0944642
0.187914
0.102417
0.185979
0.11115
0.184468
0.120759
0.18366
0.131262
0.183964
0.1427
0.185971
0.154929
0.190466
0.16762
0.198341
0.180246
0.21029
0.192089
0.226446
0.202194
0.245436
0.210474
0.218138
0.271141
0.22265
0.0117555
0.222059
0.0169969
0.221339
0.0216643
0.2205
0.0260681
0.219543
0.0302974
0.218469
0.0344362
0.217284
0.0385556
0.216003
0.0426916
0.214637
0.0468858
0.213184
0.0511998
0.211639
0.0556985
0.210016
0.0604225
0.208342
0.0653831
0.206628
0.0706381
0.204888
0.0762881
0.203171
0.0823545
0.201525
0.0888812
0.200033
0.0959708
0.198828
0.103637
0.198064
0.111927
0.197977
0.120861
0.19887
0.130388
0.201143
0.140447
0.205286
0.150804
0.211807
0.161113
0.221112
0.170952
0.233402
0.179807
0.248719
0.186881
0.267438
0.191757
0.193731
0.291846
0.228079
0.0121591
0.227539
0.0175244
0.22689
0.0222985
0.226141
0.0268006
0.225291
0.0311273
0.224344
0.0353624
0.223312
0.0395668
0.222212
0.0437735
0.221047
0.0480348
0.219817
0.0524198
0.218527
0.0569821
0.217213
0.061735
0.2159
0.066699
0.214594
0.0719506
0.213342
0.0775501
0.212208
0.0835004
0.211252
0.0898498
0.210593
0.0966435
0.210367
0.103876
0.210742
0.111566
0.211949
0.119668
0.214257
0.128099
0.217992
0.136731
0.223492
0.145323
0.231039
0.153582
0.240863
0.16114
0.253167
0.167511
0.267933
0.17212
0.285033
0.174659
0.174328
0.304437
0.233642
0.0125279
0.233161
0.017994
0.232592
0.0228541
0.231941
0.0274351
0.231211
0.0318385
0.23041
0.0361431
0.229553
0.0404022
0.228649
0.0446575
0.227699
0.0489684
0.226709
0.0533975
0.225712
0.0579715
0.224742
0.0627012
0.223813
0.0676283
0.222955
0.0728135
0.222234
0.0782791
0.221715
0.0840296
0.221475
0.0901005
0.221634
0.0964971
0.22232
0.103204
0.223699
0.1102
0.22597
0.117412
0.229354
0.124733
0.234095
0.132009
0.240403
0.139034
0.248448
0.145552
0.258402
0.151199
0.270305
0.155618
0.283895
0.158536
0.298805
0.159753
0.158235
0.314899
0.239344
0.012857
0.23893
0.0183979
0.23845
0.0233214
0.237909
0.0279605
0.237314
0.0324156
0.236675
0.036761
0.236005
0.0410517
0.235306
0.0453355
0.234587
0.0496691
0.233874
0.0540969
0.233203
0.0586329
0.232596
0.0633021
0.232077
0.068146
0.231697
0.0731968
0.231519
0.0784629
0.231607
0.0839494
0.23205
0.089668
0.232954
0.0956048
0.23444
0.10173
0.236659
0.107993
0.239775
0.11431
0.243959
0.120567
0.249364
0.126622
0.256122
0.132293
0.26437
0.13732
0.274152
0.14143
0.285344
0.144437
0.2977
0.146188
0.310938
0.14652
0.144331
0.324845
0.245191
0.0131393
0.244852
0.0187282
0.244471
0.023691
0.244053
0.0283641
0.243605
0.0328455
0.24314
0.0372069
0.242665
0.0415054
0.242189
0.0457907
0.24173
0.050109
0.24132
0.0544903
0.240987
0.058954
0.240754
0.0635278
0.240658
0.0682384
0.240754
0.0731022
0.2411
0.078121
0.241763
0.0832932
0.242828
0.0886115
0.244394
0.0940493
0.246571
0.099564
0.249483
0.105093
0.253256
0.110552
0.258002
0.115838
0.263822
0.120821
0.270824
0.125308
0.279061
0.129098
0.288463
0.132041
0.298895
0.134017
0.310173
0.134918
0.322057
0.134643
0.132161
0.334232
0.251186
0.0133662
0.250932
0.0189759
0.25066
0.0239528
0.250376
0.028635
0.250087
0.0331177
0.249805
0.0374709
0.249539
0.0417509
0.249304
0.046005
0.249122
0.0502713
0.24902
0.0545746
0.249025
0.0589346
0.249169
0.0633735
0.249493
0.0679088
0.250047
0.0725464
0.25089
0.077281
0.252087
0.0821016
0.253717
0.0869897
0.255864
0.091911
0.258623
0.0968156
0.26209
0.101638
0.266351
0.106304
0.27148
0.110726
0.277562
0.114756
0.284649
0.118237
0.292707
0.121055
0.30165
0.123112
0.311361
0.124317
0.32168
0.124609
0.332399
0.123932
0.121369
0.343197
0.257334
0.0135296
0.257173
0.019132
0.25702
0.0240977
0.256879
0.0287643
0.256758
0.0332238
0.256668
0.0375437
0.256621
0.041778
0.256636
0.0459703
0.256735
0.0501533
0.256943
0.054349
0.257288
0.0585743
0.257804
0.0628449
0.258533
0.0671703
0.259526
0.0715494
0.260835
0.0759722
0.262521
0.0804201
0.26465
0.0848661
0.267297
0.0892727
0.270533
0.0935885
0.27443
0.0977508
0.279047
0.1017
0.284443
0.105346
0.290663
0.108552
0.297696
0.111219
0.305488
0.113277
0.31396
0.114652
0.323002
0.115286
0.332473
0.115148
0.342202
0.114212
0.111675
0.351903
0.263634
0.0136241
0.263575
0.0191893
0.263549
0.0241178
0.26356
0.0287442
0.263614
0.0331564
0.263723
0.0374182
0.263903
0.0415804
0.264172
0.0456828
0.264552
0.0497545
0.265069
0.0538148
0.26575
0.0578773
0.26663
0.061952
0.267748
0.0660417
0.26915
0.0701398
0.270887
0.0742325
0.273011
0.0782977
0.275577
0.0823043
0.278644
0.0862129
0.282266
0.0899751
0.286491
0.0935354
0.291365
0.0968364
0.296927
0.0997975
0.303173
0.10232
0.31007
0.104335
0.317566
0.105795
0.325582
0.106648
0.334017
0.106862
0.342749
0.106425
0.35164
0.105331
0.102877
0.360445
0.27009
0.0136452
0.270138
0.0191422
0.270246
0.024007
0.270414
0.0285682
0.270651
0.0329088
0.270966
0.0370886
0.271376
0.0411541
0.2719
0.0451415
0.27256
0.0490772
0.27338
0.0529778
0.274389
0.0568535
0.275618
0.0607101
0.277104
0.064545
0.278887
0.0683485
0.28101
0.0721048
0.283518
0.0757877
0.286459
0.0793657
0.289874
0.0828023
0.293803
0.0860533
0.298277
0.0890702
0.303324
0.0917988
0.308959
0.0941741
0.315159
0.0961317
0.321882
0.0976243
0.329074
0.0986144
0.336661
0.0990717
0.344553
0.0989807
0.352646
0.0983416
0.360827
0.0971596
0.0948207
0.36889
0.276704
0.0135896
0.276863
0.0189868
0.277109
0.0237609
0.277441
0.0282316
0.277864
0.0324767
0.27839
0.0365512
0.279032
0.0404971
0.279811
0.0443472
0.280746
0.0481259
0.281862
0.0518464
0.283185
0.0555162
0.284743
0.0591391
0.286572
0.0627058
0.288704
0.0662084
0.29117
0.0696327
0.294013
0.0729423
0.29727
0.0761086
0.30097
0.0791046
0.305138
0.0818896
0.309793
0.0844215
0.314947
0.0866536
0.320592
0.0885379
0.326701
0.0900333
0.333229
0.0911063
0.340123
0.0917306
0.347315
0.0918902
0.354724
0.0915809
0.362264
0.0908103
0.369842
0.0895905
0.087384
0.377286
0.283479
0.0134543
0.283753
0.0187206
0.28414
0.0233769
0.284638
0.0277319
0.285251
0.0318577
0.285988
0.0358046
0.286863
0.0396099
0.287893
0.0433034
0.289097
0.0469079
0.290498
0.0504314
0.292119
0.0538822
0.293982
0.057264
0.29612
0.0605579
0.298564
0.0637569
0.30134
0.0668502
0.304479
0.0698005
0.308003
0.0725829
0.311934
0.0751749
0.316285
0.0775414
0.321064
0.0796468
0.326269
0.0814548
0.331882
0.0829321
0.337873
0.0840514
0.344198
0.0847893
0.350807
0.0851306
0.357637
0.0850688
0.36462
0.0846068
0.371681
0.0837571
0.378745
0.0825346
0.0804683
0.385667
0.290419
0.0132371
0.290809
0.0183418
0.291338
0.022854
0.292003
0.0270685
0.292806
0.0310517
0.293754
0.0348497
0.294861
0.0384946
0.296137
0.0420163
0.297597
0.0454352
0.299266
0.0487511
0.301164
0.0519724
0.303315
0.0551027
0.305741
0.0581227
0.308466
0.0610238
0.311518
0.0637936
0.31491
0.0664049
0.318656
0.0688352
0.32277
0.0710618
0.327256
0.0730575
0.332112
0.0747938
0.337328
0.0762435
0.342881
0.0773847
0.34874
0.0781988
0.354864
0.0786718
0.361206
0.0787965
0.367709
0.0785729
0.374315
0.0780085
0.380961
0.077118
0.387586
0.0759176
0.0739941
0.394066
0.297526
0.0129361
0.298034
0.0178498
0.298705
0.0221922
0.299536
0.0262429
0.300527
0.0300616
0.301683
0.0336903
0.303011
0.0371599
0.304523
0.0404967
0.306233
0.0437153
0.30816
0.0468145
0.310322
0.0498005
0.312742
0.0526739
0.315434
0.0554226
0.318414
0.0580376
0.321699
0.0605041
0.3253
0.0628009
0.329226
0.0649085
0.33348
0.0668079
0.338061
0.0684781
0.34296
0.0698968
0.348161
0.0710457
0.353639
0.0719107
0.359364
0.0724798
0.365295
0.0727458
0.371391
0.0727074
0.377601
0.072369
0.383875
0.0717407
0.390162
0.070838
0.396409
0.0696774
0.0678961
0.402512
0.304805
0.0125504
0.30543
0.0172442
0.306244
0.0213926
0.307238
0.0252575
0.308412
0.028892
0.309768
0.0323337
0.311313
0.0356129
0.313053
0.0387508
0.315006
0.041756
0.317182
0.0446314
0.319594
0.0473815
0.322257
0.0500039
0.325184
0.0524901
0.328386
0.0548311
0.331873
0.0570136
0.33565
0.0590208
0.339721
0.0608368
0.344084
0.0624461
0.34873
0.0638331
0.353648
0.0649814
0.358817
0.0658789
0.364213
0.0665184
0.369804
0.0668928
0.375555
0.0669995
0.381427
0.0668413
0.387376
0.0664252
0.39336
0.0657627
0.399335
0.0648694
0.405257
0.063761
0.0621195
0.411038
0.312258
0.012079
0.313001
0.0165256
0.313955
0.0204565
0.315111
0.0241149
0.316464
0.0275471
0.318015
0.0307863
0.319769
0.0338598
0.321733
0.0367859
0.323913
0.0395723
0.326319
0.0422217
0.328959
0.0447364
0.331845
0.047114
0.334983
0.049348
0.338381
0.0514301
0.342043
0.0533493
0.345971
0.0550925
0.350161
0.0566471
0.354606
0.0580015
0.359297
0.0591445
0.364217
0.0600641
0.369345
0.0607535
0.374656
0.0612106
0.38012
0.0614322
0.385705
0.0614188
0.391376
0.0611757
0.397095
0.0607113
0.402825
0.0600379
0.40853
0.0591703
0.414174
0.0581232
0.0566182
0.41968
0.319891
0.0115215
0.32075
0.0156951
0.321843
0.0193861
0.323157
0.0228181
0.324685
0.0260312
0.326425
0.0290543
0.328379
0.0319108
0.330551
0.0346166
0.332944
0.0371791
0.335564
0.0396011
0.338416
0.0418833
0.341505
0.0440238
0.344834
0.0460173
0.348407
0.0478569
0.352222
0.0495337
0.356278
0.0510381
0.360566
0.0523605
0.365077
0.0534926
0.369799
0.0544268
0.374711
0.0551547
0.379794
0.0556736
0.385022
0.0559852
0.390369
0.056089
0.395805
0.0559877
0.401298
0.0556879
0.406816
0.0551989
0.412327
0.0545328
0.4178
0.0537033
0.423205
0.0527241
0.0513519
0.428476
0.327705
0.0108779
0.32868
0.014754
0.329909
0.0181841
0.331378
0.0213714
0.333076
0.0243499
0.334998
0.0271446
0.337143
0.0297748
0.339511
0.0322543
0.342104
0.03459
0.344924
0.0367848
0.34797
0.038839
0.351244
0.0407509
0.354747
0.0425165
0.358476
0.0441302
0.362427
0.0455854
0.366593
0.046875
0.370965
0.0479924
0.37553
0.0489318
0.380273
0.0496887
0.385175
0.0502575
0.390214
0.0506383
0.395367
0.0508358
0.400609
0.0508513
0.405914
0.0506886
0.411252
0.0503552
0.416596
0.0498606
0.421919
0.0492161
0.427195
0.0484346