/*--------------------------------*- C++ -*----------------------------------*\
| =========                 |                                                 |
| \\      /  F ield         | OpenFOAM: The Open Source CFD Toolbox           |
|  \\    /   O peration     | Version:  dev                                   |
|   \\  /    A nd           | Web:      www.OpenFOAM.org                      |
|    \\/     M anipulation  |                                                 |
\*---------------------------------------------------------------------------*/
FoamFile
{
    version     2.0;
    format      ascii;
    class       surfaceScalarField;
    location    "1.65";
    object      meshPhi;
}
// * * * * * * * * * * * * * * * * * * * * * * * * * * * * * * * * * * * * * //

dimensions      [0 3 -1 0 0 0 0];

internalField   nonuniform List<scalar> 
5457
(
-1.45108e-06
-4.65579e-07
-3.68897e-06
-1.23564e-06
-7.36365e-06
-1.68306e-06
-1.28231e-05
-1.79067e-06
-2.00777e-05
-1.58373e-06
-2.87993e-05
-1.10759e-06
-3.83387e-05
-4.25664e-07
-4.78e-05
3.82727e-07
-5.61742e-05
1.22806e-06
-6.25018e-05
2.0191e-06
-6.6042e-05
2.67439e-06
-6.64051e-05
3.13179e-06
-6.36013e-05
3.35622e-06
-5.80205e-05
3.34341e-06
-5.03497e-05
3.11677e-06
-4.14446e-05
2.72212e-06
-3.21884e-05
2.21858e-06
-2.33673e-05
1.66855e-06
-1.55819e-05
1.12871e-06
-9.19314e-06
6.42955e-07
-4.66498e-06
2.65887e-07
-1.93043e-06
3.62008e-08
-3.62192e-07
-7.85534e-08
3.90108e-07
-1.26589e-07
5.98617e-07
-1.2997e-07
5.07069e-07
-1.05785e-07
3.08783e-07
-7.04862e-08
1.30118e-07
-3.73803e-08
3.11321e-08
-1.45199e-08
-2.99256e-09
-1.34595e-06
-9.3954e-07
-3.50029e-06
-2.49449e-06
-7.11107e-06
-3.40087e-06
-1.25322e-05
-3.6247e-06
-1.97878e-05
-3.21606e-06
-2.8561e-05
-2.26458e-06
-3.82064e-05
-8.96191e-07
-4.78209e-05
7.30795e-07
-5.63783e-05
2.43669e-06
-6.28958e-05
4.03734e-06
-6.66045e-05
5.36481e-06
-6.70903e-05
6.2953e-06
-6.43501e-05
6.76027e-06
-5.877e-05
6.7469e-06
-5.10438e-05
6.30104e-06
-4.20415e-05
5.51443e-06
-3.26646e-05
4.50606e-06
-2.37178e-05
3.40192e-06
-1.58187e-05
2.31687e-06
-9.34549e-06
1.34065e-06
-4.74032e-06
5.80508e-07
-1.95533e-06
1.12463e-07
-3.76307e-07
-1.24335e-07
3.83648e-07
-2.2663e-07
5.94825e-07
-2.4027e-07
5.00123e-07
-1.97467e-07
2.98061e-07
-1.30312e-07
1.2251e-07
-6.72211e-08
2.9052e-08
-2.53861e-08
-5.12097e-09
-1.25257e-06
-1.42179e-06
-3.33108e-06
-3.77676e-06
-6.88446e-06
-5.15523e-06
-1.22737e-05
-5.507e-06
-1.95369e-05
-4.90658e-06
-2.83695e-05
-3.48637e-06
-3.81318e-05
-1.43293e-06
-4.79158e-05
1.01776e-06
-5.66798e-05
3.59648e-06
-6.34184e-05
6.02621e-06
-6.73387e-05
8.05341e-06
-6.80005e-05
9.48879e-06
-6.53789e-05
1.02245e-05
-5.98501e-05
1.02377e-05
-5.21085e-05
9.5948e-06
-4.30336e-05
8.43229e-06
-3.35418e-05
6.92856e-06
-2.44559e-05
5.27367e-06
-1.64097e-05
3.64171e-06
-9.7948e-06
2.16973e-06
-5.06291e-06
1.01616e-06
-2.19002e-06
2.93475e-07
-5.54702e-07
-8.30058e-08
2.57395e-07
-2.57349e-07
5.13466e-07
-3.00441e-07
4.47525e-07
-2.56706e-07
2.58702e-07
-1.69475e-07
9.71547e-08
-8.29423e-08
1.90008e-08
-2.80974e-08
-4.85325e-09
-1.18194e-06
-1.91275e-06
-3.20143e-06
-5.08322e-06
-6.70978e-06
-6.94717e-06
-1.20757e-05
-7.44133e-06
-1.93498e-05
-6.66443e-06
-2.82405e-05
-4.78881e-06
-3.81166e-05
-2.05881e-06
-4.80692e-05
1.21452e-06
-5.70456e-05
4.6748e-06
-6.40255e-05
7.95356e-06
-6.81947e-05
1.0712e-05
-6.9084e-05
1.26923e-05
-6.66422e-05
1.3742e-05
-6.12288e-05
1.38249e-05
-5.35305e-05
1.30245e-05
-4.44284e-05
1.15189e-05
-3.48483e-05
9.5439e-06
-2.56278e-05
7.35285e-06
-1.74145e-05
5.1793e-06
-1.06101e-05
3.20787e-06
-5.70544e-06
1.64637e-06
-2.70283e-06
6.4483e-07
-9.60186e-07
1.01215e-07
-4.59924e-08
-1.72457e-07
3.10753e-07
-2.74704e-07
3.27773e-07
-2.62399e-07
1.84325e-07
-1.81198e-07
4.72396e-08
-8.34676e-08
-8.48708e-09
-1.99971e-08
-1.72136e-10
-1.10173e-06
-2.41523e-06
-3.052e-06
-6.42228e-06
-6.50599e-06
-8.7916e-06
-1.18416e-05
-9.44914e-06
-1.91248e-05
-8.51672e-06
-2.808e-05
-6.20362e-06
-3.80887e-05
-2.80813e-06
-4.82438e-05
1.28741e-06
-5.74807e-05
5.63994e-06
-6.47632e-05
9.79149e-06
-6.92534e-05
1.33219e-05
-7.04458e-05
1.59002e-05
-6.82557e-05
1.73225e-05
-6.30193e-05
1.75345e-05
-5.541e-05
1.66316e-05
-4.63071e-05
1.48293e-05
-3.66443e-05
1.24174e-05
-2.7275e-05
9.71075e-06
-1.88651e-05
7.00334e-06
-1.18301e-05
4.529e-06
-6.70296e-06
2.54195e-06
-3.51936e-06
1.22935e-06
-1.62456e-06
4.81092e-07
-5.70423e-07
7.42894e-08
-6.69422e-08
-1.19803e-07
9.89891e-08
-1.79885e-07
6.04724e-08
-1.50038e-07
-3.1433e-08
-6.99081e-08
-6.36665e-08
-3.22337e-09
1.00217e-08
-1.00975e-06
-2.93002e-06
-2.87878e-06
-7.79888e-06
-6.26772e-06
-1.07011e-05
-1.15646e-05
-1.155e-05
-1.88529e-05
-1.04886e-05
-2.78763e-05
-7.76098e-06
-3.80325e-05
-3.71567e-06
-4.84199e-05
1.19865e-06
-5.79649e-05
6.45594e-06
-6.56134e-05
1.15111e-05
-7.04988e-05
1.58639e-05
-7.20748e-05
1.91047e-05
-7.02168e-05
2.09718e-05
-6.52299e-05
2.13877e-05
-5.7768e-05
2.04526e-05
-4.87047e-05
1.84141e-05
-3.8978e-05
1.56111e-05
-2.94566e-05
1.24168e-05
-2.08336e-05
9.18761e-06
-1.35429e-05
6.20903e-06
-8.15067e-06
3.77829e-06
-4.72866e-06
2.11494e-06
-2.62678e-06
1.1106e-06
-1.39279e-06
5.25435e-07
-7.08957e-07
2.06928e-07
-3.30546e-07
3.905e-08
-1.69937e-07
-3.78144e-08
-1.58669e-07
-2.86636e-08
-1.55784e-07
2.11126e-08
2.55853e-08
-9.05042e-07
-3.45817e-06
-2.67977e-06
-9.2163e-06
-5.99181e-06
-1.26811e-05
-1.124e-05
-1.3753e-05
-1.85272e-05
-1.25951e-05
-2.76196e-05
-9.4833e-06
-3.79335e-05
-4.81174e-06
-4.85773e-05
9.09995e-07
-5.84762e-05
7.0818e-06
-6.65578e-05
1.30742e-05
-7.19164e-05
1.82992e-05
-7.39607e-05
2.22687e-05
-7.25229e-05
2.46629e-05
-6.78686e-05
2.53714e-05
-6.0626e-05
2.44907e-05
-5.16602e-05
2.22947e-05
-4.19082e-05
1.91661e-05
-3.22514e-05
1.55307e-05
-2.34143e-05
1.18031e-05
-1.58594e-05
8.3243e-06
-1.0174e-05
5.43514e-06
-6.45659e-06
3.38036e-06
-4.076e-06
2.05647e-06
-2.60076e-06
1.22591e-06
-1.70587e-06
7.37141e-07
-1.07637e-06
4.37252e-07
-6.18029e-07
2.13743e-07
-3.94052e-07
8.55706e-08
-2.93537e-07
6.62131e-08
4.68467e-08
-7.86694e-07
-4.00131e-06
-2.45321e-06
-1.06784e-05
-5.6744e-06
-1.4737e-05
-1.08609e-05
-1.60671e-05
-1.8137e-05
-1.48509e-05
-2.72946e-05
-1.13927e-05
-3.77726e-05
-6.12618e-06
-4.86946e-05
3.848e-07
-5.89887e-05
7.47278e-06
-6.75618e-05
1.4428e-05
-7.34681e-05
2.05735e-05
-7.60691e-05
2.53438e-05
-7.51481e-05
2.83577e-05
-7.0923e-05
2.94632e-05
-6.39891e-05
2.87443e-05
-5.51987e-05
2.64888e-05
-4.54869e-05
2.31165e-05
-3.57426e-05
1.91028e-05
-2.67158e-05
1.4915e-05
-1.89095e-05
1.09508e-05
-1.2926e-05
7.59704e-06
-8.87209e-06
5.1175e-06
-6.13454e-06
3.40991e-06
-4.32152e-06
2.24737e-06
-3.15377e-06
1.50965e-06
-2.25319e-06
1.04302e-06
-1.43171e-06
6.61996e-07
-8.36849e-07
3.43614e-07
-4.82591e-07
1.65224e-07
7.68244e-08
-6.52914e-07
-4.56105e-06
-2.19546e-06
-1.219e-05
-5.30973e-06
-1.68769e-05
-1.04186e-05
-1.85043e-05
-1.76693e-05
-1.72736e-05
-2.6883e-05
-1.35134e-05
-3.75259e-05
-7.69077e-06
-4.87418e-05
-4.1649e-07
-5.94626e-05
7.58069e-06
-6.85761e-05
1.55166e-05
-7.51022e-05
2.26336e-05
-7.83527e-05
2.82854e-05
-7.80537e-05
3.202e-05
-7.43714e-05
3.36384e-05
-6.78588e-05
3.32035e-05
-5.93439e-05
3.10025e-05
-4.97599e-05
2.7482e-05
-4.00068e-05
2.31661e-05
-3.08526e-05
1.85758e-05
-2.28397e-05
1.41615e-05
-1.65779e-05
1.0351e-05
-1.21707e-05
7.42582e-06
-9.01841e-06
5.28532e-06
-6.75754e-06
3.7072e-06
-5.19552e-06
2.61065e-06
-3.97002e-06
1.89735e-06
-2.74149e-06
1.34477e-06
-1.57731e-06
8.03948e-07
-7.19324e-07
3.56661e-07
1.20906e-07
-5.00761e-07
-5.14058e-06
-1.90115e-06
-1.37599e-05
-4.8902e-06
-1.91143e-05
-9.9023e-06
-2.10824e-05
-1.71093e-05
-1.98856e-05
-2.63641e-05
-1.58735e-05
-3.71648e-05
-9.5407e-06
-4.86803e-05
-1.53684e-06
-5.98508e-05
7.35645e-06
-6.95513e-05
1.62874e-05
-7.67685e-05
2.44224e-05
-8.07613e-05
3.10326e-05
-8.11944e-05
3.55898e-05
-7.81776e-05
3.78407e-05
-7.22152e-05
3.78162e-05
-6.41029e-05
3.57985e-05
-5.47646e-05
3.22526e-05
-4.51111e-05
2.77392e-05
-3.59299e-05
2.28283e-05
-2.77985e-05
1.80232e-05
-2.13045e-05
1.37842e-05
-1.65459e-05
1.04039e-05
-1.29589e-05
7.80022e-06
-1.01734e-05
5.75588e-06
-8.05957e-06
4.19958e-06
-6.35424e-06
3.1068e-06
-4.593e-06
2.29188e-06
-2.61692e-06
1.46775e-06
-9.86782e-07
6.51788e-07
1.82942e-07
-3.26189e-07
-5.74295e-06
-1.5634e-06
-1.53963e-05
-4.40687e-06
-2.14605e-05
-9.30065e-06
-2.38154e-05
-1.64415e-05
-2.2705e-05
-2.57168e-05
-1.8497e-05
-3.66604e-05
-1.17076e-05
-4.84713e-05
-3.01785e-06
-6.0106e-05
6.7474e-06
-7.0433e-05
1.66768e-05
-7.84033e-05
2.58618e-05
-8.3224e-05
3.34939e-05
-8.44998e-05
3.89711e-05
-8.2276e-05
4.19795e-05
-7.7004e-05
4.25073e-05
-6.94448e-05
4.08204e-05
-6.05072e-05
3.73944e-05
-5.11022e-05
3.28179e-05
-4.20343e-05
2.77008e-05
-3.39171e-05
2.25952e-05
-2.72648e-05
1.79784e-05
-2.21633e-05
1.41435e-05
-1.81464e-05
1.10558e-05
-1.48182e-05
8.53051e-06
-1.20184e-05
6.466e-06
-9.54625e-06
4.84349e-06
-6.91375e-06
3.54795e-06
-3.81956e-06
2.27073e-06
-1.24498e-06
1.00073e-06
2.53919e-07
-1.25212e-07
-6.36849e-06
-1.17532e-06
-1.70997e-05
-3.85154e-06
-2.39156e-05
-8.60385e-06
-2.67034e-05
-1.56535e-05
-2.57346e-05
-2.49233e-05
-2.13926e-05
-3.59864e-05
-1.42107e-05
-4.80764e-05
-4.89344e-06
-6.01739e-05
5.70038e-06
-7.11466e-05
1.66101e-05
-7.99146e-05
2.68587e-05
-8.5638e-05
3.55644e-05
-8.78635e-05
4.20545e-05
-8.65689e-05
4.59481e-05
-8.21436e-05
4.718e-05
-7.53036e-05
4.5984e-05
-6.69433e-05
4.28369e-05
-5.79728e-05
3.83537e-05
-4.92062e-05
3.318e-05
-4.12805e-05
2.79051e-05
-3.45726e-05
2.29972e-05
-2.91392e-05
1.87256e-05
-2.4687e-05
1.513e-05
-2.08217e-05
1.21123e-05
-1.72436e-05
9.53116e-06
-1.36591e-05
7.2736e-06
-9.63812e-06
5.23621e-06
-5.08e-06
3.24161e-06
-1.54794e-06
1.43489e-06
3.72807e-07
1.06855e-07
-7.01808e-06
-7.28188e-07
-1.88724e-05
-3.21418e-06
-2.64801e-05
-7.80016e-06
-2.9745e-05
-1.473e-05
-2.89743e-05
-2.39627e-05
-2.45656e-05
-3.51125e-05
-1.70644e-05
-4.74502e-05
-7.19316e-06
-5.99876e-05
4.16457e-06
-7.16031e-05
1.60143e-05
-8.1196e-05
2.73241e-05
-8.78846e-05
3.71406e-05
-9.11564e-05
4.47208e-05
-9.09197e-05
4.96111e-05
-8.74993e-05
5.1687e-05
-8.15591e-05
5.1149e-05
-7.39689e-05
4.84612e-05
-6.56386e-05
4.42511e-05
-5.73916e-05
3.91963e-05
-4.98767e-05
3.39224e-05
-4.32557e-05
2.88584e-05
-3.75099e-05
2.42027e-05
-3.25862e-05
2.00782e-05
-2.81432e-05
1.65268e-05
-2.37039e-05
1.34086e-05
-1.87497e-05
1.04796e-05
-1.28728e-05
7.53241e-06
-6.55389e-06
4.56865e-06
-2.1031e-06
2.08848e-06
6.12123e-07
3.76492e-07
-7.69488e-06
-2.10293e-07
-2.0722e-05
-2.4822e-06
-2.916e-05
-6.87577e-06
-3.29425e-05
-1.3655e-05
-3.24261e-05
-2.28122e-05
-2.80231e-05
-3.40046e-05
-2.02864e-05
-4.65454e-05
-9.94518e-06
-5.94827e-05
2.09862e-06
-7.17172e-05
1.48272e-05
-8.21388e-05
2.71672e-05
-8.983e-05
3.81026e-05
-9.422e-05
4.682e-05
-9.51479e-05
5.27957e-05
-9.28769e-05
5.58475e-05
-8.80197e-05
5.61352e-05
-8.14038e-05
5.40976e-05
-7.39289e-05
5.03603e-05
-6.64302e-05
4.56242e-05
-5.95621e-05
4.05477e-05
-5.3205e-05
3.54993e-05
-4.71919e-05
3.05595e-05
-4.17382e-05
2.59131e-05
-3.66069e-05
2.17689e-05
-3.11934e-05
1.80461e-05
-2.47137e-05
1.43989e-05
-1.67238e-05
1.04616e-05
-8.44388e-06
6.35305e-06
-2.93385e-06
2.97077e-06
9.80524e-07
6.55411e-07
-8.31827e-06
3.70533e-07
-2.25306e-05
-1.63186e-06
-3.19416e-05
-5.8052e-06
-3.63401e-05
-1.23997e-05
-3.61304e-05
-2.14377e-05
-3.18047e-05
-3.26194e-05
-2.39184e-05
-4.53052e-05
-1.32005e-05
-5.85865e-05
-5.60201e-07
-7.13918e-05
1.29692e-05
-8.26142e-05
2.6282e-05
-9.13121e-05
3.83152e-05
-9.68661e-05
4.81964e-05
-9.90519e-05
5.53365e-05
-9.80639e-05
5.94892e-05
-9.44587e-05
6.07631e-05
-8.90199e-05
5.95676e-05
-8.26248e-05
5.65195e-05
-7.61049e-05
5.23264e-05
-7.0113e-05
4.76701e-05
-6.42086e-05
4.28394e-05
-5.79948e-05
3.77513e-05
-5.19407e-05
3.26211e-05
-4.59606e-05
2.78325e-05
-3.93703e-05
2.33856e-05
-3.11965e-05
1.88937e-05
-2.10356e-05
1.39094e-05
-1.06727e-05
8.57083e-06
-3.6924e-06
4.02166e-06
1.68713e-06
2.46798e-06
-4.5411e-08
2.47188e-05
-6.51852e-07
0.000110741
-2.38638e-06
0.000241477
-3.30831e-06
0.000312385
-2.87505e-06
0.000306371
-1.53982e-06
0.000279904
7.45906e-07
0.000263939
2.70836e-06
0.000262626
4.00443e-06
0.000270628
4.49165e-06
0.000282293
4.61266e-06
0.000296168
4.19225e-06
0.00031105
3.04384e-06
0.000324955
1.37557e-06
0.000336266
-7.08605e-07
0.000343767
-3.07833e-06
0.000346631
-5.57709e-06
0.000344405
-8.03349e-06
0.000336957
-1.02784e-05
0.000324416
-1.21624e-05
0.000307091
-1.35711e-05
0.000285402
-1.4433e-05
0.000259808
-1.47179e-05
0.000230756
-1.44275e-05
0.000198642
-1.35832e-05
0.000163784
-1.22137e-05
0.000126411
-1.03445e-05
8.66704e-05
-7.99158e-06
4.44861e-05
-5.14987e-06
-1.8186e-06
2.72828e-06
-1.0455e-07
2.74049e-05
-1.34253e-06
0.000117023
-4.51685e-06
0.000245744
-5.9304e-06
0.000311738
-4.88116e-06
0.000303858
-1.93397e-06
0.000277883
2.29503e-06
0.000263062
5.63275e-06
0.000262888
7.81245e-06
0.000271573
9.099e-06
0.000283581
9.26874e-06
0.000297559
8.16128e-06
0.000312505
5.8034e-06
0.000326403
2.45134e-06
0.000337646
-1.70603e-06
0.000345033
-6.41404e-06
0.000347751
-1.13621e-05
0.00034536
-1.62106e-05
0.000337739
-2.0627e-05
0.000325028
-2.43203e-05
0.000307546
-2.70683e-05
0.000285716
-2.8734e-05
0.000260001
-2.92607e-05
0.00023085
-2.86534e-05
0.000198659
-2.69546e-05
0.000163748
-2.42201e-05
0.000126344
-2.04998e-05
8.65984e-05
-1.58254e-05
4.44405e-05
-1.0189e-05
-3.5952e-06
3.17605e-06
-1.9234e-07
3.14724e-05
-2.10743e-06
0.000123085
-6.35665e-06
0.000241217
-8.15056e-06
0.000295864
-6.21197e-06
0.000287274
-1.21283e-06
0.000265729
4.47512e-06
0.000255098
8.72141e-06
0.000257624
1.14583e-05
0.000268104
1.32723e-05
0.000281255
1.33963e-05
0.000295901
1.14761e-05
0.000311306
7.86197e-06
0.000325509
2.84015e-06
0.00033695
-3.33184e-06
0.000344461
-1.02829e-05
0.000347255
-1.75546e-05
0.000344907
-2.4648e-05
0.00033731
-3.10817e-05
0.000324611
-3.64374e-05
0.000307133
-4.03967e-05
0.000285304
-4.27651e-05
0.000259592
-4.34633e-05
0.000230447
-4.24999e-05
0.00019827
-3.99359e-05
0.000163385
-3.58514e-05
0.000126023
-3.0318e-05
8.63431e-05
-2.33827e-05
4.42891e-05
-1.50382e-05
-5.30113e-06
3.91302e-06
-3.57627e-07
3.62041e-05
-3.01263e-06
0.000125128
-7.69054e-06
0.000223792
-9.17737e-06
0.000263907
-6.04849e-06
0.000257135
5.30219e-07
0.0002434
6.74345e-06
0.000239495
1.13817e-05
0.000246164
1.46829e-05
0.000259245
1.66775e-05
0.000274264
1.64853e-05
0.000290215
1.37101e-05
0.000306552
8.82112e-06
0.000321455
2.17524e-06
0.000333447
-5.90817e-06
0.000341413
-1.49506e-05
0.000344597
-2.43554e-05
0.000342587
-3.34785e-05
0.000335287
-4.17117e-05
0.000322851
-4.85289e-05
0.000305605
-5.35269e-05
0.000283977
-5.64636e-05
0.000258439
-5.7241e-05
0.000229448
-5.58699e-05
0.00019741
-5.24266e-05
0.000162658
-4.7011e-05
0.000125432
-3.97125e-05
8.59055e-05
-3.05934e-05
4.40434e-05
-1.96508e-05
-6.91961e-06
5.15153e-06
-6.40727e-07
4.09656e-05
-3.97932e-06
0.000121546
-8.19411e-06
0.000196704
-8.38983e-06
0.000223954
-3.96398e-06
0.000221258
3.02632e-06
0.000216312
9.00343e-06
0.000219497
1.34822e-05
0.000230817
1.70637e-05
0.000246879
1.9066e-05
0.000264129
1.83553e-05
0.000281774
1.4652e-05
0.000299365
8.47702e-06
0.000315245
2.68117e-07
0.000328037
-9.59867e-06
0.000336687
-2.05489e-05
0.000340473
-3.18599e-05
0.000338995
-4.27587e-05
0.000332169
-5.25394e-05
0.000320158
-6.05899e-05
0.000303287
-6.64301e-05
0.000281987
-6.9782e-05
0.000256734
-7.05331e-05
0.000227994
-6.86954e-05
0.000196181
-6.43565e-05
0.000161638
-5.76315e-05
0.000124619
-4.86226e-05
8.53132e-05
-3.74081e-05
4.37141e-05
-2.39941e-05
-8.43893e-06
6.90574e-06
-1.01757e-06
4.407e-05
-4.60625e-06
0.00011071
-7.4459e-06
0.000163119
-5.99475e-06
0.00018193
-8.4576e-07
0.000184656
5.52848e-06
0.000188141
1.08931e-05
0.000197716
1.50716e-05
0.0002133
1.84928e-05
0.000232301
2.01816e-05
0.000251857
1.88421e-05
0.000271358
1.41476e-05
0.000290371
6.68811e-06
0.000307389
-3.00343e-06
0.000321137
-1.45009e-05
0.000330627
-2.71493e-05
0.000335167
-4.01114e-05
0.000334354
-5.24981e-05
0.000328126
-6.35519e-05
0.000316665
-7.25964e-05
0.000300282
-7.90675e-05
0.000279412
-8.2671e-05
0.000254535
-8.32837e-05
0.000226127
-8.09173e-05
0.000194614
-7.5667e-05
0.000160352
-6.76587e-05
0.000123605
-5.69994e-05
8.45811e-05
-4.37877e-05
4.33106e-05
-2.80435e-05
-9.85063e-06
8.84744e-06
-1.39912e-06
4.36272e-05
-4.54853e-06
9.33565e-05
-5.46181e-06
0.000127962
-2.7567e-06
0.000142954
2.11411e-06
0.000151068
7.29174e-06
0.000161359
1.19204e-05
0.000176129
1.58305e-05
0.000195245
1.88339e-05
0.000216777
1.99595e-05
0.000238471
1.7864e-05
0.00025979
1.21305e-05
0.000280248
3.4036e-06
0.00029845
-7.66459e-06
0.000313212
-2.06195e-05
0.00032362
-3.47462e-05
0.000329001
-4.90954e-05
0.000328983
-6.27053e-05
0.000323473
-7.4736e-05
0.000312634
-8.4484e-05
0.000296803
-9.13649e-05
0.00027642
-9.50525e-05
0.000251973
-9.54141e-05
0.000223946
-9.24586e-05
0.000192785
-8.62868e-05
0.00015885
-7.70278e-05
0.000122416
-6.47944e-05
8.3728e-05
-4.97025e-05
4.2846e-05
-3.17827e-05
-1.11497e-05
1.02315e-05
-1.58279e-06
3.90169e-05
-3.73966e-06
7.27758e-05
-2.95563e-06
9.59809e-05
2.83416e-07
0.00011021
4.33599e-06
0.000122689
8.31957e-06
0.000137658
1.21637e-05
0.000156132
1.55731e-05
0.000177874
1.79603e-05
0.000201391
1.83647e-05
0.000224895
1.54074e-05
0.000247839
8.61116e-06
0.000269657
-1.35674e-06
0.000289056
-1.37184e-05
0.000304868
-2.79334e-05
0.000316196
-4.32567e-05
0.000322419
-5.87042e-05
0.000323214
-7.32707e-05
0.00031846
-8.60011e-05
0.00030827
-9.61652e-05
0.000293009
-0.000103235
0.000273133
-0.000106845
0.000249138
-0.000106848
0.000221518
-0.000103248
0.000190731
-9.61453e-05
0.000157149
-8.56689e-05
0.000121071
-7.19527e-05
8.27682e-05
-5.51159e-05
4.23273e-05
-3.51886e-05
-1.23278e-05
1.0236e-05
-1.41618e-06
3.13538e-05
-2.37237e-06
5.30867e-05
-7.26336e-07
6.99798e-05
2.3099e-06
8.44641e-05
5.60104e-06
9.9839e-05
8.77855e-06
0.000117736
1.18441e-05
0.000138567
1.44482e-05
0.000162048
1.59895e-05
0.000186996
1.54561e-05
0.000211965
1.14871e-05
0.000236311
3.62944e-06
0.000259307
-7.46953e-06
0.000279787
-2.10149e-05
0.000296592
-3.63078e-05
0.000308787
-5.25477e-05
0.000315784
-6.87934e-05
0.000317268
-8.39973e-05
0.000313158
-9.71722e-05
0.000303587
-0.000107555
0.000288895
-0.000114624
0.000269538
-0.000118012
0.000246016
-0.000117561
0.000218829
-0.000113271
0.000188439
-0.000105233
0.000155246
-9.35831e-05
0.000119574
-7.84683e-05
8.17053e-05
-6.00093e-05
4.17508e-05
-3.82458e-05
-1.33795e-05
8.83074e-06
-1.02953e-06
2.28155e-05
-1.01014e-06
3.70765e-05
7.30223e-07
5.06583e-05
3.18176e-06
6.51973e-05
5.89438e-06
8.20233e-05
8.56846e-06
0.000101534
1.09332e-05
0.000123724
1.25989e-05
0.000148326
1.30443e-05
0.000174276
1.13623e-05
0.000200339
6.26159e-06
0.000225811
-2.66755e-06
0.000249768
-1.47706e-05
0.000271063
-2.93017e-05
0.000288612
-4.54868e-05
0.00030152
-6.245e-05
0.000309181
-7.92365e-05
0.000311265
-9.47958e-05
0.00030772
-0.000108167
0.000298712
-0.00011858
0.000284562
-0.000125483
0.000265715
-0.000128523
0.000242673
-0.000127539
0.000215935
-0.000122524
0.000185971
-0.000113565
0.000153196
-0.000100797
0.000117957
-8.43653e-05
8.05532e-05
-6.44037e-05
4.11244e-05
-4.09719e-05
-1.43124e-05
6.68169e-06
-5.81757e-07
1.53318e-05
6.59224e-09
2.55524e-05
1.36822e-06
3.7338e-05
3.13852e-06
5.14889e-05
5.36567e-06
6.86449e-05
7.61787e-06
8.88065e-05
9.3345e-06
0.00011171
1.00557e-05
0.000137008
9.27373e-06
0.000163653
6.26899e-06
0.00019044
-3.02684e-08
0.000216647
-1.00321e-05
0.000241278
-2.30865e-05
0.000263147
-3.84354e-05
0.00028121
-5.53094e-05
0.000294627
-7.27939e-05
0.000302795
-8.98929e-05
0.000305387
-0.000105583
0.000302346
-0.000118929
0.000293831
-0.000129172
0.000280167
-0.000135759
0.000261796
-0.000138341
0.000239213
-0.000136758
0.000212921
-0.000130995
0.000183392
-0.000121134
0.00015105
-0.000107305
0.000116261
-8.9653e-05
7.93444e-05
-6.83206e-05
4.04701e-05
-4.33866e-05
-1.51346e-05
4.39846e-06
-1.70759e-07
9.7472e-06
6.34213e-07
1.80151e-05
1.4731e-06
2.87399e-05
2.63211e-06
4.22763e-05
4.30334e-06
5.91317e-05
6.02409e-06
7.93193e-05
7.05842e-06
0.000102516
6.81576e-06
0.000128214
4.77728e-06
0.000155275
3.49369e-07
0.000182485
-7.23347e-06
0.000209087
-1.82904e-05
0.000234076
-3.22278e-05
0.000256279
-4.82692e-05
0.000274659
-6.56438e-05
0.000288387
-8.34267e-05
0.000296881
-0.000100621
0.000299826
-0.000116233
0.000297162
-0.00012936
0.000289044
-0.000139264
0.000275795
-0.000145404
0.000257848
-0.000147438
0.000235693
-0.000145204
0.000209831
-0.000138682
0.000180736
-0.000127945
0.000148839
-0.000113118
0.000114514
-9.43438e-05
7.81029e-05
-7.17725e-05
3.98012e-05
-4.54997e-05
-1.58499e-05
2.48505e-06
8.85049e-08
6.16919e-06
8.45284e-07
1.34346e-05
1.31774e-06
2.3504e-05
2.04635e-06
3.65011e-05
3.09293e-06
5.29108e-05
4.06553e-06
7.28581e-05
4.23965e-06
9.60734e-05
2.92129e-06
0.000121976
-4.3989e-07
0.00014924
-6.32463e-06
0.000176597
-1.52239e-05
0.000203323
-2.73045e-05
0.000228399
-4.20257e-05
0.00025067
-5.86223e-05
0.000269118
-7.63176e-05
0.000282935
-9.41974e-05
0.000291559
-0.000111289
0.000294687
-0.000126635
0.000292259
-0.000139374
0.000284429
-0.000148796
0.000271509
-0.00015438
0.000253924
-0.000155793
0.000232156
-0.000152872
0.000206701
-0.00014559
0.000178032
-0.00013401
0.000146582
-0.000118252
0.000112733
-9.84554e-05
7.68405e-05
-7.4776e-05
3.91232e-05
-4.73245e-05
-1.64638e-05
1.25463e-06
1.74632e-07
4.25584e-06
8.13082e-07
1.08947e-05
1.08091e-06
2.05587e-05
1.53161e-06
3.3277e-05
1.95164e-06
4.94149e-05
1.98752e-06
6.91586e-05
1.04265e-06
9.23123e-05
-1.54664e-06
0.000118321
-6.34349e-06
0.000145608
-1.37105e-05
0.000172834
-2.38938e-05
0.000199421
-3.69317e-05
0.000224328
-5.2329e-05
0.000246407
-6.93363e-05
0.000264673
-8.71772e-05
0.00027835
-0.000104968
0.0002869
-0.000121775
0.000290034
-0.000136691
0.000287696
-0.000148897
0.000280035
-0.000157719
0.000267354
-0.000162659
0.000250065
-0.000163395
0.000228639
-0.000159763
0.000203562
-0.000151729
0.000175305
-0.000139348
0.000144298
-0.000122729
0.00011093
-0.00010201
7.55659e-05
-7.73512e-05
3.8441e-05
-4.88756e-05
-1.69821e-05
9.89603e-07
-7.40012e-08
3.95333e-06
5.45122e-07
1.01584e-05
7.52272e-07
1.94937e-05
9.14345e-07
3.21027e-05
6.78507e-07
4.81874e-05
-3.126e-07
6.78762e-05
-2.54733e-06
9.10347e-05
-6.58307e-06
0.000117045
-1.28839e-05
0.000144143
-2.17176e-05
0.00017104
-3.31894e-05
0.000197267
-4.71526e-05
0.000221753
-6.31124e-05
0.000243371
-8.03778e-05
0.000261194
-9.81881e-05
0.000274495
-0.000115711
0.000282765
-0.000132069
0.00028573
-0.000146404
0.000283341
-0.000157948
0.00027574
-0.000166067
0.000263219
-0.000170288
0.000246176
-0.000170301
0.000225063
-0.000165942
0.000200355
-0.000157168
0.000172511
-0.000144025
0.00014196
-0.000126612
0.000109092
-0.000105064
7.42744e-05
-7.95439e-05
3.77568e-05
-5.0186e-05
-1.74173e-05
9.08585e-07
-8.81815e-06
9.57495e-07
-2.40804e-05
-7.09359e-07
-3.46233e-05
-4.72984e-06
-3.99395e-05
-1.13561e-05
-4.01923e-05
-2.05772e-05
-3.60071e-05
-3.21193e-05
-2.80549e-05
-4.53698e-05
-1.70621e-05
-5.94392e-05
-3.93069e-06
-7.32528e-05
1.03063e-05
-8.56804e-05
2.45276e-05
-9.57314e-05
3.76331e-05
-0.000102721
4.86964e-05
-0.000106358
5.70664e-05
-0.000106771
6.24343e-05
-0.000104473
6.48546e-05
-0.000100231
6.46968e-05
-9.49227e-05
6.25578e-05
-8.93975e-05
5.91442e-05
-8.43226e-05
5.51542e-05
-7.88805e-05
5.07774e-05
-7.23045e-05
4.57079e-05
-6.53071e-05
4.01397e-05
-5.8003e-05
3.46428e-05
-4.96389e-05
2.93241e-05
-3.92244e-05
2.38369e-05
-2.65815e-05
1.7798e-05
-1.39234e-05
1.14169e-05
-5.09068e-06
5.9214e-06
2.40617e-06
-3.73668e-07
1.09769e-06
-9.26382e-06
1.43234e-06
-2.53803e-05
2.38827e-07
-3.69013e-05
-3.32723e-06
-4.33883e-05
-9.75834e-06
-4.45442e-05
-1.89861e-05
-4.07037e-05
-3.06635e-05
-3.27656e-05
-4.42192e-05
-2.16138e-05
-5.88148e-05
-8.1158e-06
-7.34051e-05
6.72289e-06
-8.68593e-05
2.17724e-05
-9.81602e-05
3.59006e-05
-0.000106569
4.8134e-05
-0.000111733
5.77681e-05
-0.000113718
6.4439e-05
-0.000112972
6.8141e-05
-0.000110216
6.91907e-05
-0.000106313
6.81558e-05
-0.000102116
6.57365e-05
-9.83039e-05
6.26503e-05
-9.37003e-05
5.90032e-05
-8.69113e-05
5.41685e-05
-7.88138e-05
4.81912e-05
-6.99036e-05
4.18925e-05
-5.94593e-05
3.55783e-05
-4.67478e-05
2.90084e-05
-3.20215e-05
2.19857e-05
-1.77655e-05
1.48821e-05
-7.53119e-06
8.83256e-06
4.76265e-06
-2.42707e-06
1.29017e-06
-9.7033e-06
1.82869e-06
-2.66027e-05
1.0096e-06
-3.88251e-05
-1.92306e-06
-4.62691e-05
-7.8074e-06
-4.86884e-05
-1.68635e-05
-4.57777e-05
-2.86097e-05
-3.81097e-05
-4.23717e-05
-2.69056e-05
-5.73971e-05
-1.31863e-05
-7.26914e-05
2.1289e-06
-8.71099e-05
1.79004e-05
-9.96201e-05
3.29576e-05
-0.000109449
4.63054e-05
-0.000116184
5.71977e-05
-0.000119825
6.52102e-05
-0.000120746
7.02725e-05
-0.000119612
7.26464e-05
-0.000117257
7.28576e-05
-0.000114538
7.15908e-05
-0.000112196
6.95993e-05
-0.000108913
6.70312e-05
-0.000102013
6.27573e-05
-9.24199e-05
5.637e-05
-8.15423e-05
4.91491e-05
-6.86956e-05
4.17678e-05
-5.366e-05
3.40973e-05
-3.7172e-05
2.61884e-05
-2.17856e-05
1.8521e-05
-1.04212e-05
1.20358e-05
7.49846e-06
-4.08889e-06
1.5164e-06
-1.01272e-05
2.25964e-06
-2.78019e-05
1.67261e-06
-4.06579e-05
-7.63346e-07
-4.87102e-05
-5.83113e-06
-5.21363e-05
-1.42506e-05
-5.06235e-05
-2.58515e-05
-4.39349e-05
-3.97158e-05
-3.29944e-05
-5.50425e-05
-1.92e-05
-7.09326e-05
-3.56189e-06
-8.62077e-05
1.28013e-05
-9.98322e-05
2.86635e-05
-0.000111014
4.30238e-05
-0.000119288
5.51075e-05
-0.000124578
6.44364e-05
-0.000127182
7.08736e-05
-0.000127693
7.46166e-05
-0.000126895
7.61342e-05
-0.000125636
7.60783e-05
-0.00012474
7.52065e-05
-0.000122987
7.3705e-05
-0.000116351
7.02303e-05
-0.000105355
6.39475e-05
-9.21654e-05
5.60149e-05
-7.66509e-05
4.74879e-05
-5.9385e-05
3.87472e-05
-4.14186e-05
3.00636e-05
-2.52382e-05
2.19492e-05
-1.30226e-05
1.51791e-05
1.02955e-05
-5.64202e-06
1.78182e-06
-1.05375e-05
2.77614e-06
-2.8971e-05
2.41609e-06
-4.24799e-05
2.66455e-07
-5.10689e-05
-4.16073e-06
-5.50697e-05
-1.15884e-05
-5.46417e-05
-2.24813e-05
-4.94769e-05
-3.61299e-05
-3.9675e-05
-5.16034e-05
-2.62383e-05
-6.79646e-05
-1.04037e-05
-8.39429e-05
6.41584e-06
-9.85314e-05
2.2916e-05
-0.000110921
3.81358e-05
-0.000120603
5.12813e-05
-0.000127427
6.18275e-05
-0.000131606
6.95732e-05
-0.000133645
7.4643e-05
-0.000134244
7.74291e-05
-0.000134185
7.85103e-05
-0.00013424
7.8551e-05
-0.000133016
7.7506e-05
-0.000126749
7.43122e-05
-0.000115451
6.8556e-05
-0.000100546
6.09045e-05
-8.2762e-05
5.20817e-05
-6.34199e-05
4.26696e-05
-4.41048e-05
3.32973e-05
-2.72005e-05
2.47774e-05
-1.40859e-05
1.77293e-05
1.24544e-05
-5.57216e-06
2.09283e-06
-1.09317e-05
3.38243e-06
-3.01017e-05
3.30479e-06
-4.42579e-05
1.42792e-06
-5.34244e-05
-2.63118e-06
-5.79255e-05
-9.26874e-06
-5.80769e-05
-1.905e-05
-5.40252e-05
-3.19022e-05
-4.57358e-05
-4.71066e-05
-3.35127e-05
-6.36559e-05
-1.82177e-05
-8.01527e-05
-1.29196e-06
-9.54791e-05
1.5661e-05
-0.000108855
3.154e-05
-0.000119712
4.55649e-05
-0.000127833
5.71505e-05
-0.000133346
6.60487e-05
-0.000136647
7.23093e-05
-0.000138311
7.62307e-05
-0.000138981
7.82842e-05
-0.000139196
7.89891e-05
-0.000137065
7.80432e-05
-0.000130161
7.45471e-05
-0.000118864
6.87339e-05
-0.000103763
6.15886e-05
-8.54238e-05
5.3554e-05
-6.49485e-05
4.4662e-05
-4.45972e-05
3.53837e-05
-2.67398e-05
2.66559e-05
-1.23789e-05
1.91996e-05
1.3388e-05
-2.47899e-06
2.45216e-06
-1.1301e-05
4.08337e-06
-3.11719e-05
4.34202e-06
-4.5968e-05
2.81628e-06
-5.57332e-05
-8.77861e-07
-6.08157e-05
-7.03446e-06
-6.14952e-05
-1.59269e-05
-5.80583e-05
-2.77428e-05
-5.07285e-05
-4.20386e-05
-3.9905e-05
-5.80906e-05
-2.61068e-05
-7.47126e-05
-1.0043e-05
-9.0499e-05
6.89122e-06
-0.000104568
2.32131e-05
-0.000116268
3.7879e-05
-0.000125326
5.02545e-05
-0.000131801
6.00688e-05
-0.000135967
6.72987e-05
-0.000138247
7.21469e-05
-0.000139102
7.49689e-05
-0.000138825
7.61605e-05
-0.000135304
7.53475e-05
-0.000126769
7.16455e-05
-0.000114401
6.54977e-05
-9.93393e-05
5.83191e-05
-8.16586e-05
5.07672e-05
-6.17456e-05
4.28211e-05
-4.14924e-05
3.46305e-05
-2.27858e-05
2.65409e-05
-6.84752e-06
1.90404e-05
1.27006e-05
4.79333e-06
2.86318e-06
-1.16399e-05
4.89101e-06
-3.21712e-05
5.54828e-06
-4.75998e-05
4.44756e-06
-5.79837e-05
1.21973e-06
-6.3695e-05
-4.44362e-06
-6.50213e-05
-1.27009e-05
-6.2241e-05
-2.36343e-05
-5.56501e-05
-3.6808e-05
-4.57951e-05
-5.17514e-05
-3.33435e-05
-6.78176e-05
-1.87142e-05
-8.35795e-05
-2.69962e-06
-9.79162e-05
1.33541e-05
-0.000110048
2.82441e-05
-0.000119567
4.1115e-05
-0.000126526
5.15359e-05
-0.00013107
5.94449e-05
-0.000133456
6.49557e-05
-0.000133977
6.83182e-05
-0.000132779
6.98394e-05
-0.000127907
6.91574e-05
-0.000117773
6.54819e-05
-0.000103998
5.93694e-05
-8.82557e-05
5.22706e-05
-7.07157e-05
4.48713e-05
-5.18158e-05
3.73792e-05
-3.25063e-05
3.00007e-05
-1.36795e-05
2.28015e-05
3.55987e-06
1.58954e-05
9.63908e-06
1.70785e-05
3.3335e-06
-1.19519e-05
5.81695e-06
-3.30967e-05
6.93328e-06
-4.91356e-05
6.32896e-06
-6.01461e-05
3.65624e-06
-6.65202e-05
-1.36997e-06
-6.85679e-05
-8.90219e-06
-6.65809e-05
-1.89407e-05
-6.08926e-05
-3.10964e-05
-5.19825e-05
-4.4869e-05
-4.05066e-05
-5.98386e-05
-2.70515e-05
-7.48816e-05
-1.23288e-05
-8.89263e-05
2.71892e-06
-0.000100986
1.71182e-05
-0.000110398
2.98931e-05
-0.000117289
4.05014e-05
-0.000121678
4.87641e-05
-0.000123645
5.46384e-05
-0.000123382
5.82999e-05
-0.000120964
6.00038e-05
-0.000114744
5.94498e-05
-0.000103449
5.59998e-05
-8.87909e-05
5.02364e-05
-7.23818e-05
4.35226e-05
-5.45584e-05
3.6523e-05
-3.5923e-05
2.94241e-05
-1.70207e-05
2.23901e-05
1.70735e-06
1.558e-05
1.96778e-05
9.11918e-06
3.14394e-06
3.46658e-05
3.86425e-06
-1.22305e-05
6.86152e-06
-3.39285e-05
8.49728e-06
-5.05408e-05
8.46117e-06
-6.21749e-05
6.44551e-06
-6.92484e-05
2.18942e-06
-7.20872e-05
-4.45021e-06
-7.09949e-05
-1.34312e-05
-6.63198e-05
-2.44537e-05
-5.85216e-05
-3.70315e-05
-4.81749e-05
-5.06604e-05
-3.58764e-05
-6.44626e-05
-2.23777e-05
-7.75869e-05
-8.52207e-06
-8.90012e-05
4.86582e-06
-9.78217e-05
1.69466e-05
-0.000104112
2.72377e-05
-0.000107811
3.54628e-05
-0.000108857
4.13903e-05
-0.000107445
4.51017e-05