/*--------------------------------*- C++ -*----------------------------------*\
| =========                 |                                                 |
| \\      /  F ield         | OpenFOAM: The Open Source CFD Toolbox           |
|  \\    /   O peration     | Version:  dev                                   |
|   \\  /    A nd           | Web:      www.OpenFOAM.org                      |
|    \\/     M anipulation  |                                                 |
\*---------------------------------------------------------------------------*/
FoamFile
{
    version     2.0;
    format      ascii;
    class       pointVectorField;
    location    "1.65";
    object      pointDisplacement;
}
// * * * * * * * * * * * * * * * * * * * * * * * * * * * * * * * * * * * * * //

dimensions      [0 1 0 0 0 0 0];

internalField   nonuniform List<vector> 
5828
(
(0 0 0)
(0.0240375 0 0)
(0.0453347 0 0)
(0.063278 0 0)
(0.0782126 0 0)
(0.0904684 0 0)
(0.10033 0 0)
(0.108045 0 0)
(0.113826 0 0)
(0.117859 0 0)
(0.120307 0 0)
(0.121311 0 0)
(0.121001 0 0)
(0.119487 0 0)
(0.11687 0 0)
(0.11324 0 0)
(0.10868 0 0)
(0.103269 0 0)
(0.0970823 0 0)
(0.090195 0 0)
(0.0826847 0 0)
(0.0746333 0 0)
(0.0661302 0 0)
(0.0572767 0 0)
(0.048194 0 0)
(0.0390354 0 0)
(0.0300114 0 0)
(0.0214542 0 0)
(0.0139119 0 0)
(0.00853202 0 0)
(1.35579e-09 0 0)
(0 0 0)
(0.0240548 0 -0.00026505)
(0.0453677 0 -0.000503068)
(0.0633267 0 -0.000710864)
(0.0782777 0 -0.000894029)
(0.0905512 0 -0.00105691)
(0.100433 0 -0.00120242)
(0.108169 0 -0.00133243)
(0.113974 0 -0.00144789)
(0.118034 0 -0.00154889)
(0.120511 0 -0.00163546)
(0.121548 0 -0.0017068)
(0.121275 0 -0.00176154)
(0.119804 0 -0.00179819)
(0.117236 0 -0.00181424)
(0.113661 0 -0.00180663)
(0.109165 0 -0.00177168)
(0.103826 0 -0.00170501)
(0.0977225 0 -0.00160146)
(0.090931 0 -0.001455)
(0.0835324 0 -0.00125878)
(0.0756127 0 -0.00100484)
(0.0672663 0 -0.000683741)
(0.0586023 0 -0.000284852)
(0.0497529 0 0.000203421)
(0.040886 0 0.000793296)
(0.0322213 0 0.00149759)
(0.024099 0 0.002326)
(0.0171121 0 0.00327079)
(0.0125482 0 0.00422963)
(0.005369 0 0.00560045)
(0 0 0)
(0.0241061 0 -0.000530545)
(0.0454682 0 -0.00100714)
(0.0634746 0 -0.00142338)
(0.0784744 0 -0.00179044)
(0.0908008 0 -0.00211709)
(0.10074 0 -0.00240921)
(0.10854 0 -0.00267055)
(0.114416 0 -0.0029031)
(0.118555 0 -0.0031068)
(0.12112 0 -0.00327994)
(0.122257 0 -0.00342291)
(0.122097 0 -0.00353508)
(0.120754 0 -0.0036119)
(0.11833 0 -0.00364838)
(0.114921 0 -0.00363863)
(0.110613 0 -0.00357558)
(0.10549 0 -0.00345085)
(0.0996335 0 -0.00325456)
(0.0931267 0 -0.00297517)
(0.0860587 0 -0.00259996)
(0.0785271 0 -0.00211422)
(0.0706403 0 -0.00150044)
(0.0625261 0 -0.000739071)
(0.0543457 0 0.000190551)
(0.0463155 0 0.00130823)
(0.0387157 0 0.00263013)
(0.0319327 0 0.00415876)
(0.0265999 0 0.00585835)
(0.0243118 0 0.00747049)
(0.0188535 0 0.00988374)
(0 0 0)
(0.0241915 0 -0.000795651)
(0.0456353 0 -0.00151071)
(0.0637196 0 -0.00213547)
(0.0787999 0 -0.00268668)
(0.0912137 0 -0.00317767)
(0.101249 0 -0.00361729)
(0.109155 0 -0.00401131)
(0.115148 0 -0.00436299)
(0.119417 0 -0.0046722)
(0.122128 0 -0.00493651)
(0.12343 0 -0.00515686)
(0.123457 0 -0.00533224)
(0.122326 0 -0.00545619)
(0.120143 0 -0.0055217)
(0.117006 0 -0.00552053)
(0.113009 0 -0.00544283)
(0.108242 0 -0.00527689)
(0.102795 0 -0.00500905)
(0.0967569 0 -0.00462309)
(0.090232 0 -0.00410244)
(0.0833387 0 -0.0034285)
(0.0762067 0 -0.00257835)
(0.0689909 0 -0.00152748)
(0.0618892 0 -0.000251296)
(0.0551759 0 0.00126939)
(0.0492405 0 0.00303706)
(0.0446345 0 0.00501683)
(0.0420733 0 0.00711099)
(0.0432978 0 0.00884801)
(0.0405099 0 0.0117539)
(0 0 0)
(0.0243099 0 -0.00106026)
(0.0458674 0 -0.00201296)
(0.0640588 0 -0.00284542)
(0.0792501 0 -0.00358064)
(0.0917852 0 -0.00423638)
(0.101953 0 -0.00482441)
(0.110005 0 -0.00535261)
(0.11616 0 -0.00582609)
(0.12061 0 -0.00624466)
(0.123522 0 -0.00660558)
(0.125053 0 -0.00691025)
(0.125339 0 -0.00715684)
(0.1245 0 -0.00733773)
(0.122647 0 -0.00744458)
(0.119887 0 -0.00746755)
(0.116319 0 -0.00739491)
(0.112043 0 -0.00721275)
(0.10716 0 -0.00690535)
(0.101774 0 -0.00645392)
(0.095998 0 -0.00583846)
(0.0899779 0 -0.00503898)
(0.083876 0 -0.00403279)
(0.0778822 0 -0.002796)
(0.0722548 0 -0.00131126)
(0.0673293 0 0.0004277)
(0.0635783 0 0.00239951)
(0.0617532 0 0.0045058)
(0.0628872 0 0.00651247)
(0.0687203 0 0.00769942)
(0.0692084 0 0.0104857)
(0 0 0)
(0.0244558 0 -0.00132453)
(0.0461539 0 -0.00251423)
(0.0644851 0 -0.00355423)
(0.0798216 0 -0.0044742)
(0.0925115 0 -0.00529589)
(0.102847 0 -0.00603413)
(0.111085 0 -0.00669894)
(0.117446 0 -0.00729651)
(0.122123 0 -0.00782795)
(0.125292 0 -0.00829229)
(0.127114 0 -0.00869017)
(0.127728 0 -0.00901827)
(0.127257 0 -0.00926874)
(0.125822 0 -0.00943268)
(0.123535 0 -0.00949968)
(0.120507 0 -0.0094572)
(0.116848 0 -0.00929022)
(0.112674 0 -0.008983)
(0.108109 0 -0.0085176)
(0.103277 0 -0.007871)
(0.0983491 0 -0.0070249)
(0.0935325 0 -0.0059642)
(0.0890565 0 -0.00467133)
(0.0852398 0 -0.00314361)
(0.0825126 0 -0.00140568)
(0.0814573 0 0.000473429)
(0.0829108 0 0.00232642)
(0.0882944 0 0.0037253)
(0.0995361 0 0.00365645)
(0.103796 0 0.0057315)
(0 0 0)
(0.0246275 0 -0.00158757)
(0.0464927 0 -0.00301419)
(0.0649958 0 -0.00426276)
(0.0805106 0 -0.00536878)
(0.0933878 0 -0.00635822)
(0.103927 0 -0.00724919)
(0.112388 0 -0.00805378)
(0.118994 0 -0.00877837)
(0.123944 0 -0.00942736)
(0.127424 0 -0.0100041)
(0.129598 0 -0.010506)
(0.130604 0 -0.0109277)
(0.130575 0 -0.0112627)
(0.129639 0 -0.0115023)
(0.127918 0 -0.0116366)
(0.125534 0 -0.0116536)
(0.122606 0 -0.0115377)
(0.11927 0 -0.0112756)
(0.115674 0 -0.0108531)
(0.111965 0 -0.0102495)
(0.108334 0 -0.00945027)
(0.105031 0 -0.00845094)
(0.102343 0 -0.00725155)
(0.10064 0 -0.00587134)
(0.100443 0 -0.00437461)
(0.102486 0 -0.00290476)
(0.107752 0 -0.00173346)
(0.117803 0 -0.00145869)
(0.13486 0 -0.00341543)
(0.143175 0 -0.0025801)
(0 0 0)
(0.0248278 0 -0.00184864)
(0.0468883 0 -0.00351139)
(0.0655894 0 -0.00496857)
(0.0813096 0 -0.00626112)
(0.094404 0 -0.00741964)
(0.105178 0 -0.00846558)
(0.113896 0 -0.00941336)
(0.120787 0 -0.0102711)
(0.126058 0 -0.0110455)
(0.129897 0 -0.011741)
(0.132471 0 -0.0123554)
(0.133928 0 -0.0128835)
(0.134407 0 -0.0133197)
(0.134043 0 -0.0136555)
(0.132971 0 -0.0138832)
(0.131328 0 -0.0139937)
(0.129244 0 -0.0139724)
(0.12687 0 -0.0138084)
(0.124375 0 -0.0134917)
(0.121945 0 -0.0130119)
(0.119791 0 -0.0123613)
(0.118196 0 -0.0115482)
(0.11752 0 -0.0105998)
(0.118195 0 -0.0095676)
(0.120841 0 -0.00856963)
(0.126293 0 -0.00782243)
(0.135794 0 -0.00774993)
(0.150885 0 -0.00909668)
(0.173943 0 -0.0134821)
(0.186347 0 -0.0143314)
(0 0 0)
(0.0250542 0 -0.00210733)
(0.0473357 0 -0.00400438)
(0.066259 0 -0.0056691)
(0.0822096 0 -0.00714809)
(0.0955485 0 -0.00847656)
(0.106587 0 -0.00967948)
(0.115595 0 -0.010774)
(0.122809 0 -0.0117711)
(0.128439 0 -0.0126782)
(0.132678 0 -0.0134994)
(0.135698 0 -0.0142354)
(0.137659 0 -0.0148841)
(0.138708 0 -0.01544)
(0.138986 0 -0.0158966)
(0.138642 0 -0.0162483)
(0.137824 0 -0.0164884)
(0.136684 0 -0.0166081)
(0.135382 0 -0.0165983)
(0.134102 0 -0.0164535)
(0.133074 0 -0.0161786)
(0.132546 0 -0.015781)
(0.132836 0 -0.0152864)
(0.134364 0 -0.0147518)
(0.137636 0 -0.01427)
(0.143367 0 -0.0140202)
(0.152516 0 -0.0143094)
(0.166456 0 -0.0156932)
(0.186827 0 -0.0190978)
(0.216046 0 -0.0263697)
(0.232438 0 -0.0292028)
(0 0 0)
(0.0253043 0 -0.0023632)
(0.04783 0 -0.00449244)
(0.0669982 0 -0.00636351)
(0.0832026 0 -0.00802876)
(0.0968112 0 -0.0095281)
(0.108142 0 -0.0108901)
(0.11747 0 -0.0121349)
(0.125039 0 -0.0132761)
(0.131064 0 -0.0143227)
(0.135743 0 -0.0152802)
(0.139258 0 -0.0161517)
(0.141773 0 -0.0169363)
(0.143443 0 -0.0176312)
(0.144428 0 -0.018234)
(0.144879 0 -0.0187402)
(0.144956 0 -0.0191452)
(0.144829 0 -0.0194466)
(0.14468 0 -0.0196439)
(0.144719 0 -0.0197413)
(0.1452 0 -0.019756)
(0.146418 0 -0.0197152)
(0.148733 0 -0.0196679)
(0.152619 0 -0.0197056)
(0.158674 0 -0.0199734)
(0.167679 0 -0.020709)
(0.180744 0 -0.0223272)
(0.199253 0 -0.0254858)
(0.225117 0 -0.0313335)
(0.260497 0 -0.0418087)
(0.280684 0 -0.0468009)
(0 0 0)
(0.0255764 0 -0.00261639)
(0.048368 0 -0.00497591)
(0.0678025 0 -0.00705241)
(0.084283 0 -0.00890406)
(0.0981851 0 -0.0105755)
(0.109833 0 -0.012099)
(0.11951 0 -0.0134978)
(0.127464 0 -0.0147883)
(0.133916 0 -0.0159816)
(0.139075 0 -0.0170869)
(0.143125 0 -0.0181074)
(0.146234 0 -0.0190425)
(0.14857 0 -0.0198942)
(0.150302 0 -0.0206633)
(0.151596 0 -0.0213501)
(0.152625 0 -0.0219554)
(0.153574 0 -0.0224828)
(0.154649 0 -0.0229417)
(0.156086 0 -0.0233493)
(0.158165 0 -0.0237363)
(0.161217 0 -0.024151)
(0.165646 0 -0.0246695)
(0.171995 0 -0.0254249)
(0.180945 0 -0.0266184)
(0.193366 0 -0.0285584)
(0.210455 0 -0.0317513)
(0.233742 0 -0.0369967)
(0.265395 0 -0.0456537)
(0.306659 0 -0.0594614)
(0.330395 0 -0.0666699)
(0 0 0)
(0.025869 0 -0.00286697)
(0.0489463 0 -0.00545495)
(0.0686669 0 -0.00773607)
(0.085444 0 -0.00977435)
(0.0996611 0 -0.0116191)
(0.11165 0 -0.0133065)
(0.1217 0 -0.0148632)
(0.130065 0 -0.016308)
(0.136973 0 -0.0176546)
(0.142639 0 -0.0189148)
(0.147252 0 -0.0200938)
(0.150986 0 -0.0211928)
(0.154023 0 -0.0222187)
(0.156541 0 -0.0231769)
(0.15872 0 -0.0240723)
(0.160748 0 -0.0249125)
(0.162827 0 -0.0257101)
(0.165178 0 -0.0264823)
(0.168061 0 -0.0272602)
(0.171791 0 -0.0280938)
(0.176729 0 -0.029053)
(0.18333 0 -0.0302463)
(0.192192 0 -0.0318466)
(0.204082 0 -0.0341164)
(0.219981 0 -0.0374451)
(0.241197 0 -0.0424401)
(0.26957 0 -0.0500926)
(0.307251 0 -0.061865)
(0.353878 0 -0.0789441)
(0.381017 0 -0.0882502)
(0 0 0)
(0.0261782 0 -0.00311361)
(0.0495577 0 -0.00592709)
(0.0695811 0 -0.00841104)
(0.0866721 0 -0.0106353)
(0.101222 0 -0.0126539)
(0.113571 0 -0.0145068)
(0.124014 0 -0.0162241)
(0.132812 0 -0.0178278)
(0.140198 0 -0.019333)
(0.146391 0 -0.0207546)
(0.15159 0 -0.0221017)
(0.155979 0 -0.0233799)
(0.15975 0 -0.0245993)
(0.163092 0 -0.0257706)
(0.16619 0 -0.026902)
(0.169239 0 -0.0280059)
(0.172469 0 -0.0291078)
(0.176122 0 -0.0302379)
(0.180486 0 -0.0314429)
(0.185885 0 -0.0327863)
(0.192719 0 -0.0343637)
(0.201509 0 -0.036324)
(0.212886 0 -0.038876)
(0.227699 0 -0.0423426)
(0.247057 0 -0.0472047)
(0.272496 0 -0.0542091)
(0.306108 0 -0.0645144)
(0.3497 0 -0.0795363)
(0.400967 0 -0.0996609)
(0.432113 0 -0.111009)
(0 0 0)
(0.0264997 0 -0.00335498)
(0.0501947 0 -0.00638986)
(0.0705347 0 -0.0090739)
(0.0879539 0 -0.0114827)
(0.102852 0 -0.0136748)
(0.115575 0 -0.0156938)
(0.126429 0 -0.0175742)
(0.135677 0 -0.0193406)
(0.143559 0 -0.0210113)
(0.150303 0 -0.0226037)
(0.156111 0 -0.02413)
(0.16118 0 -0.0256015)
(0.165706 0 -0.0270306)
(0.16988 0 -0.0284299)
(0.173905 0 -0.0298161)
(0.177992 0 -0.0312117)
(0.182382 0 -0.0326498)
(0.187341 0 -0.0341745)
(0.193176 0 -0.0358478)
(0.200227 0 -0.0377501)
(0.208934 0 -0.0400046)
(0.219858 0 -0.0427943)
(0.233686 0 -0.046373)
(0.251316 0 -0.0511159)
(0.274003 0 -0.0576002)
(0.303486 0 -0.0667055)
(0.341936 0 -0.0796914)
(0.390688 0 -0.0978227)
(0.445654 0 -0.120646)
(0.483371 0 -0.134488)
(0 0 0)
(0.0268308 0 -0.00359043)
(0.0508519 0 -0.00684209)
(0.0715201 0 -0.00972302)
(0.0892796 0 -0.0123144)
(0.104537 0 -0.0146793)
(0.117649 0 -0.0168661)
(0.128931 0 -0.0189128)
(0.138647 0 -0.0208462)
(0.147043 0 -0.0226891)
(0.154352 0 -0.0244601)
(0.16078 0 -0.0261735)
(0.166533 0 -0.0278458)
(0.171815 0 -0.0294938)
(0.176827 0 -0.0311356)
(0.181782 0 -0.0327957)
(0.186913 0 -0.0345069)
(0.192457 0 -0.0363068)
(0.198696 0 -0.0382519)
(0.205958 0 -0.0404206)
(0.214608 0 -0.0429137)
(0.225111 0 -0.0458799)
(0.238053 0 -0.0495299)
(0.254155 0 -0.054158)
(0.274371 0 -0.060194)
(0.300023 0 -0.0682859)
(0.3329 0 -0.0793955)
(0.375088 0 -0.0948265)
(0.427296 0 -0.115609)
(0.484545 0 -0.140712)
(0.534579 0 -0.15828)
(0 0 0)
(0.0271734 0 -0.00382213)
(0.0515324 0 -0.00728768)
(0.0725417 0 -0.0103639)
(0.0906553 0 -0.0131375)
(0.106289 0 -0.0156765)
(0.119809 0 -0.0180345)
(0.131533 0 -0.0202512)
(0.141729 0 -0.0223554)
(0.15065 0 -0.0243741)
(0.158531 0 -0.0263278)
(0.165586 0 -0.0282354)
(0.172033 0 -0.0301185)
(0.17808 0 -0.0319985)
(0.183941 0 -0.0339004)
(0.189828 0 -0.0358514)
(0.195982 0 -0.0378922)
(0.202658 0 -0.0400725)
(0.210152 0 -0.0424617)
(0.21879 0 -0.0451471)
(0.228953 0 -0.0482473)
(0.241134 0 -0.0519372)
(0.255919 0 -0.0564487)
(0.274037 0 -0.062106)
(0.296448 0 -0.0693755)
(0.324429 0 -0.0789372)
(0.359624 0 -0.09177)
(0.403642 0 -0.109108)
(0.456099 0 -0.131785)
(0.511273 0 -0.159046)
(0.585804 0 -0.182196)
(0 0 0)
(0.0240375 0 0)
(0.0453347 0 0)
(0.063278 0 0)
(0.0782126 0 0)
(0.0904684 0 0)
(0.10033 0 0)
(0.108045 0 0)
(0.113826 0 0)
(0.117859 0 0)
(0.120307 0 0)
(0.121311 0 0)
(0.121001 0 0)
(0.119487 0 0)
(0.11687 0 0)
(0.11324 0 0)
(0.10868 0 0)
(0.103269 0 0)
(0.0970823 0 0)
(0.090195 0 0)
(0.0826847 0 0)
(0.0746333 0 0)
(0.0661302 0 0)
(0.0572767 0 0)
(0.048194 0 0)
(0.0390354 0 0)
(0.0300114 0 0)
(0.0214542 0 0)
(0.0139119 0 0)
(0.00853202 0 0)
(0 0 0)
(0 0 0)
(0.0240548 0 -0.00026505)
(0.0453677 0 -0.000503068)
(0.0633267 0 -0.000710864)
(0.0782777 0 -0.000894029)
(0.0905512 0 -0.00105691)
(0.100433 0 -0.00120242)
(0.108169 0 -0.00133243)
(0.113974 0 -0.00144789)
(0.118034 0 -0.00154889)
(0.120511 0 -0.00163546)
(0.121548 0 -0.0017068)
(0.121275 0 -0.00176154)
(0.119804 0 -0.00179819)
(0.117236 0 -0.00181424)
(0.113661 0 -0.00180663)
(0.109165 0 -0.00177168)
(0.103826 0 -0.00170501)
(0.0977225 0 -0.00160146)
(0.090931 0 -0.001455)
(0.0835324 0 -0.00125878)
(0.0756127 0 -0.00100484)
(0.0672663 0 -0.000683741)
(0.0586023 0 -0.000284852)
(0.0497529 0 0.000203421)
(0.040886 0 0.000793296)
(0.0322213 0 0.00149759)
(0.024099 0 0.002326)
(0.0171121 0 0.00327079)
(0.0125482 0 0.00422963)
(0.005369 0 0.00560045)
(0 0 0)
(0.0241061 0 -0.000530545)
(0.0454682 0 -0.00100714)
(0.0634746 0 -0.00142338)
(0.0784744 0 -0.00179044)
(0.0908008 0 -0.00211709)
(0.10074 0 -0.00240921)
(0.10854 0 -0.00267055)
(0.114416 0 -0.0029031)
(0.118555 0 -0.0031068)
(0.12112 0 -0.00327994)
(0.122257 0 -0.00342291)
(0.122097 0 -0.00353508)
(0.120754 0 -0.0036119)
(0.11833 0 -0.00364838)
(0.114921 0 -0.00363863)
(0.110613 0 -0.00357558)
(0.10549 0 -0.00345085)
(0.0996335 0 -0.00325456)
(0.0931267 0 -0.00297517)
(0.0860587 0 -0.00259996)
(0.0785271 0 -0.00211422)
(0.0706403 0 -0.00150044)
(0.0625261 0 -0.000739071)
(0.0543457 0 0.000190551)
(0.0463155 0 0.00130823)
(0.0387157 0 0.00263013)
(0.0319327 0 0.00415876)
(0.0265999 0 0.00585835)
(0.0243118 0 0.00747049)
(0.0188535 0 0.00988374)
(0 0 0)
(0.0241915 0 -0.000795651)
(0.0456353 0 -0.00151071)
(0.0637196 0 -0.00213547)
(0.0787999 0 -0.00268668)
(0.0912137 0 -0.00317767)
(0.101249 0 -0.00361729)
(0.109155 0 -0.00401131)
(0.115148 0 -0.00436299)
(0.119417 0 -0.0046722)
(0.122128 0 -0.00493651)
(0.12343 0 -0.00515686)
(0.123457 0 -0.00533224)
(0.122326 0 -0.00545619)
(0.120143 0 -0.0055217)
(0.117006 0 -0.00552053)
(0.113009 0 -0.00544283)
(0.108242 0 -0.00527689)
(0.102795 0 -0.00500905)
(0.0967569 0 -0.00462309)
(0.090232 0 -0.00410244)
(0.0833387 0 -0.0034285)
(0.0762067 0 -0.00257835)
(0.0689909 0 -0.00152748)
(0.0618892 0 -0.000251296)
(0.0551759 0 0.00126939)
(0.0492405 0 0.00303706)
(0.0446345 0 0.00501683)
(0.0420733 0 0.00711099)
(0.0432978 0 0.00884801)
(0.0405099 0 0.0117539)
(0 0 0)
(0.0243099 0 -0.00106026)
(0.0458674 0 -0.00201296)
(0.0640588 0 -0.00284542)
(0.0792501 0 -0.00358064)
(0.0917852 0 -0.00423638)
(0.101953 0 -0.00482441)
(0.110005 0 -0.00535261)
(0.11616 0 -0.00582609)
(0.12061 0 -0.00624466)
(0.123522 0 -0.00660558)
(0.125053 0 -0.00691025)
(0.125339 0 -0.00715684)
(0.1245 0 -0.00733773)
(0.122647 0 -0.00744458)
(0.119887 0 -0.00746755)
(0.116319 0 -0.00739491)
(0.112043 0 -0.00721275)
(0.10716 0 -0.00690535)
(0.101774 0 -0.00645392)
(0.095998 0 -0.00583846)
(0.0899779 0 -0.00503898)
(0.083876 0 -0.00403279)
(0.0778822 0 -0.002796)
(0.0722548 0 -0.00131126)
(0.0673293 0 0.0004277)
(0.0635783 0 0.00239951)
(0.0617532 0 0.0045058)
(0.0628872 0 0.00651247)
(0.0687203 0 0.00769942)
(0.0692084 0 0.0104857)
(0 0 0)
(0.0244558 0 -0.00132453)
(0.0461539 0 -0.00251423)
(0.0644851 0 -0.00355423)
(0.0798216 0 -0.0044742)
(0.0925115 0 -0.00529589)
(0.102847 0 -0.00603413)
(0.111085 0 -0.00669894)
(0.117446 0 -0.00729651)
(0.122123 0 -0.00782795)
(0.125292 0 -0.00829229)
(0.127114 0 -0.00869017)
(0.127728 0 -0.00901827)
(0.127257 0 -0.00926874)
(0.125822 0 -0.00943268)
(0.123535 0 -0.00949968)
(0.120507 0 -0.0094572)
(0.116848 0 -0.00929022)
(0.112674 0 -0.008983)
(0.108109 0 -0.0085176)
(0.103277 0 -0.007871)
(0.0983491 0 -0.0070249)
(0.0935325 0 -0.0059642)
(0.0890565 0 -0.00467133)
(0.0852398 0 -0.00314361)
(0.0825126 0 -0.00140568)
(0.0814573 0 0.000473429)
(0.0829108 0 0.00232642)
(0.0882944 0 0.0037253)
(0.0995361 0 0.00365645)
(0.103796 0 0.0057315)
(0 0 0)
(0.0246275 0 -0.00158757)
(0.0464927 0 -0.00301419)
(0.0649958 0 -0.00426276)
(0.0805106 0 -0.00536878)
(0.0933878 0 -0.00635822)
(0.103927 0 -0.00724919)
(0.112388 0 -0.00805378)
(0.118994 0 -0.00877837)
(0.123944 0 -0.00942736)
(0.127424 0 -0.0100041)
(0.129598 0 -0.010506)
(0.130604 0 -0.0109277)
(0.130575 0 -0.0112627)
(0.129639 0 -0.0115023)
(0.127918 0 -0.0116366)
(0.125534 0 -0.0116536)
(0.122606 0 -0.0115377)
(0.11927 0 -0.0112756)
(0.115674 0 -0.0108531)
(0.111965 0 -0.0102495)
(0.108334 0 -0.00945027)
(0.105031 0 -0.00845094)
(0.102343 0 -0.00725155)
(0.10064 0 -0.00587134)
(0.100443 0 -0.00437461)
(0.102486 0 -0.00290476)
(0.107752 0 -0.00173346)
(0.117803 0 -0.00145869)
(0.13486 0 -0.00341543)
(0.143175 0 -0.0025801)
(0 0 0)
(0.0248278 0 -0.00184864)
(0.0468883 0 -0.00351139)
(0.0655894 0 -0.00496857)
(0.0813096 0 -0.00626112)
(0.094404 0 -0.00741964)
(0.105178 0 -0.00846558)
(0.113896 0 -0.00941336)
(0.120787 0 -0.0102711)
(0.126058 0 -0.0110455)
(0.129897 0 -0.011741)
(0.132471 0 -0.0123554)
(0.133928 0 -0.0128835)
(0.134407 0 -0.0133197)
(0.134043 0 -0.0136555)
(0.132971 0 -0.0138832)
(0.131328 0 -0.0139937)
(0.129244 0 -0.0139724)
(0.12687 0 -0.0138084)
(0.124375 0 -0.0134917)
(0.121945 0 -0.0130119)
(0.119791 0 -0.0123613)
(0.118196 0 -0.0115482)
(0.11752 0 -0.0105998)
(0.118195 0 -0.0095676)
(0.120841 0 -0.00856963)
(0.126293 0 -0.00782243)
(0.135794 0 -0.00774993)
(0.150885 0 -0.00909668)
(0.173943 0 -0.0134821)
(0.186347 0 -0.0143314)
(0 0 0)
(0.0250542 0 -0.00210733)
(0.0473357 0 -0.00400438)
(0.066259 0 -0.0056691)
(0.0822096 0 -0.00714809)
(0.0955485 0 -0.00847656)
(0.106587 0 -0.00967948)
(0.115595 0 -0.010774)
(0.122809 0 -0.0117711)
(0.128439 0 -0.0126782)
(0.132678 0 -0.0134994)
(0.135698 0 -0.0142354)
(0.137659 0 -0.0148841)
(0.138708 0 -0.01544)
(0.138986 0 -0.0158966)
(0.138642 0 -0.0162483)
(0.137824 0 -0.0164884)
(0.136684 0 -0.0166081)
(0.135382 0 -0.0165983)
(0.134102 0 -0.0164535)
(0.133074 0 -0.0161786)
(0.132546 0 -0.015781)
(0.132836 0 -0.0152864)
(0.134364 0 -0.0147518)
(0.137636 0 -0.01427)
(0.143367 0 -0.0140202)
(0.152516 0 -0.0143094)
(0.166456 0 -0.0156932)
(0.186827 0 -0.0190978)
(0.216046 0 -0.0263697)
(0.232438 0 -0.0292028)
(0 0 0)
(0.0253043 0 -0.0023632)
(0.04783 0 -0.00449244)
(0.0669982 0 -0.00636351)
(0.0832026 0 -0.00802876)
(0.0968112 0 -0.0095281)
(0.108142 0 -0.0108901)
(0.11747 0 -0.0121349)
(0.125039 0 -0.0132761)
(0.131064 0 -0.0143227)
(0.135743 0 -0.0152802)
(0.139258 0 -0.0161517)
(0.141773 0 -0.0169363)
(0.143443 0 -0.0176312)
(0.144428 0 -0.018234)
(0.144879 0 -0.0187402)
(0.144956 0 -0.0191452)
(0.144829 0 -0.0194466)
(0.14468 0 -0.0196439)
(0.144719 0 -0.0197413)
(0.1452 0 -0.019756)
(0.146418 0 -0.0197152)
(0.148733 0 -0.0196679)
(0.152619 0 -0.0197056)
(0.158674 0 -0.0199734)
(0.167679 0 -0.020709)
(0.180744 0 -0.0223272)
(0.199253 0 -0.0254858)
(0.225117 0 -0.0313335)
(0.260497 0 -0.0418087)
(0.280684 0 -0.0468009)
(0 0 0)
(0.0255764 0 -0.00261639)
(0.048368 0 -0.00497591)
(0.0678025 0 -0.00705241)
(0.084283 0 -0.00890406)
(0.0981851 0 -0.0105755)
(0.109833 0 -0.012099)
(0.11951 0 -0.0134978)
(0.127464 0 -0.0147883)
(0.133916 0 -0.0159816)
(0.139075 0 -0.0170869)
(0.143125 0 -0.0181074)
(0.146234 0 -0.0190425)
(0.14857 0 -0.0198942)
(0.150302 0 -0.0206633)
(0.151596 0 -0.0213501)
(0.152625 0 -0.0219554)
(0.153574 0 -0.0224828)
(0.154649 0 -0.0229417)
(0.156086 0 -0.0233493)
(0.158165 0 -0.0237363)
(0.161217 0 -0.024151)
(0.165646 0 -0.0246695)
(0.171995 0 -0.0254249)
(0.180945 0 -0.0266184)
(0.193366 0 -0.0285584)
(0.210455 0 -0.0317513)
(0.233742 0 -0.0369967)
(0.265395 0 -0.0456537)
(0.306659 0 -0.0594614)
(0.330395 0 -0.0666699)
(0 0 0)
(0.025869 0 -0.00286697)
(0.0489463 0 -0.00545495)
(0.0686669 0 -0.00773607)
(0.085444 0 -0.00977435)
(0.0996611 0 -0.0116191)
(0.11165 0 -0.0133065)
(0.1217 0 -0.0148632)
(0.130065 0 -0.016308)
(0.136973 0 -0.0176546)
(0.142639 0 -0.0189148)
(0.147252 0 -0.0200938)
(0.150986 0 -0.0211928)
(0.154023 0 -0.0222187)
(0.156541 0 -0.0231769)
(0.15872 0 -0.0240723)
(0.160748 0 -0.0249125)
(0.162827 0 -0.0257101)
(0.165178 0 -0.0264823)
(0.168061 0 -0.0272602)
(0.171791 0 -0.0280938)
(0.176729 0 -0.029053)
(0.18333 0 -0.0302463)
(0.192192 0 -0.0318466)
(0.204082 0 -0.0341164)
(0.219981 0 -0.0374451)
(0.241197 0 -0.0424401)
(0.26957 0 -0.0500926)
(0.307251 0 -0.061865)
(0.353878 0 -0.0789441)
(0.381017 0 -0.0882502)
(0 0 0)
(0.0261782 0 -0.00311361)
(0.0495577 0 -0.00592709)
(0.0695811 0 -0.00841104)
(0.0866721 0 -0.0106353)
(0.101222 0 -0.0126539)
(0.113571 0 -0.0145068)
(0.124014 0 -0.0162241)
(0.132812 0 -0.0178278)
(0.140198 0 -0.019333)
(0.146391 0 -0.0207546)
(0.15159 0 -0.0221017)
(0.155979 0 -0.0233799)
(0.15975 0 -0.0245993)
(0.163092 0 -0.0257706)
(0.16619 0 -0.026902)
(0.169239 0 -0.0280059)
(0.172469 0 -0.0291078)
(0.176122 0 -0.0302379)
(0.180486 0 -0.0314429)
(0.185885 0 -0.0327863)
(0.192719 0 -0.0343637)
(0.201509 0 -0.036324)
(0.212886 0 -0.038876)
(0.227699 0 -0.0423426)
(0.247057 0 -0.0472047)
(0.272496 0 -0.0542091)
(0.306108 0 -0.0645144)
(0.3497 0 -0.0795363)
(0.400967 0 -0.0996609)
(0.432113 0 -0.111009)
(0 0 0)
(0.0264997 0 -0.00335498)
(0.0501947 0 -0.00638986)
(0.0705347 0 -0.0090739)
(0.0879539 0 -0.0114827)
(0.102852 0 -0.0136748)
(0.115575 0 -0.0156938)
(0.126429 0 -0.0175742)
(0.135677 0 -0.0193406)
(0.143559 0 -0.0210113)
(0.150303 0 -0.0226037)
(0.156111 0 -0.02413)
(0.16118 0 -0.0256015)
(0.165706 0 -0.0270306)
(0.16988 0 -0.0284299)
(0.173905 0 -0.0298161)
(0.177992 0 -0.0312117)
(0.182382 0 -0.0326498)
(0.187341 0 -0.0341745)
(0.193176 0 -0.0358478)
(0.200227 0 -0.0377501)
(0.208934 0 -0.0400046)
(0.219858 0 -0.0427943)
(0.233686 0 -0.046373)
(0.251316 0 -0.0511159)
(0.274003 0 -0.0576002)
(0.303486 0 -0.0667055)
(0.341936 0 -0.0796914)
(0.390688 0 -0.0978227)
(0.445654 0 -0.120646)
(0.483371 0 -0.134488)
(0 0 0)
(0.0268308 0 -0.00359043)
(0.0508519 0 -0.00684209)
(0.0715201 0 -0.00972302)
(0.0892796 0 -0.0123144)
(0.104537 0 -0.0146793)
(0.117649 0 -0.0168661)
(0.128931 0 -0.0189128)
(0.138647 0 -0.0208462)
(0.147043 0 -0.0226891)
(0.154352 0 -0.0244601)
(0.16078 0 -0.0261735)
(0.166533 0 -0.0278458)
(0.171815 0 -0.0294938)
(0.176827 0 -0.0311356)
(0.181782 0 -0.0327957)
(0.186913 0 -0.0345069)
(0.192457 0 -0.0363068)
(0.198696 0 -0.0382519)
(0.205958 0 -0.0404206)
(0.214608 0 -0.0429137)
(0.225111 0 -0.0458799)
(0.238053 0 -0.0495299)
(0.254155 0 -0.054158)
(0.274371 0 -0.060194)
(0.300023 0 -0.0682859)
(0.3329 0 -0.0793955)
(0.375088 0 -0.0948265)
(0.427296 0 -0.115609)
(0.484545 0 -0.140712)
(0.534579 0 -0.15828)
(0 0 0)
(0.0271734 0 -0.00382213)
(0.0515324 0 -0.00728768)
(0.0725417 0 -0.0103639)
(0.0906553 0 -0.0131375)
(0.106289 0 -0.0156765)
(0.119809 0 -0.0180345)
(0.131533 0 -0.0202512)
(0.141729 0 -0.0223554)
(0.15065 0 -0.0243741)
(0.158531 0 -0.0263278)
(0.165586 0 -0.0282354)
(0.172033 0 -0.0301185)
(0.17808 0 -0.0319985)
(0.183941 0 -0.0339004)
(0.189828 0 -0.0358514)
(0.195982 0 -0.0378922)
(0.202658 0 -0.0400725)
(0.210152 0 -0.0424617)
(0.21879 0 -0.0451471)
(0.228953 0 -0.0482473)
(0.241134 0 -0.0519372)
(0.255919 0 -0.0564487)
(0.274037 0 -0.062106)
(0.296448 0 -0.0693755)
(0.324429 0 -0.0789372)
(0.359624 0 -0.09177)
(0.403642 0 -0.109108)
(0.456099 0 -0.131785)
(0.511273 0 -0.159046)
(0.585804 0 -0.182196)
(0 0 0)
(0.0176236 0 0)
(0.0439149 0 0)
(0.0968098 0 0)
(0.172066 0 0)
(0.247259 0 0)
(0.30458 0 0)
(0.343229 0 0)
(0.368639 0 0)
(0.385227 0 0)
(0.395685 0 0)
(0.401622 0 0)
(0.403994 0 0)
(0.403351 0 0)
(0.400011 0 0)
(0.394159 0 0)
(0.385895 0 0)
(0.375259 0 0)
(0.362256 0 0)
(0.346858 0 0)
(0.32902 0 0)
(0.30868 0 0)
(0.285765 0 0)
(0.260193 0 0)
(0.231879 0 0)
(0.200732 0 0)
(0.166662 0 0)
(0.129577 0 0)
(0.0893961 0 0)
(0.0459723 0 0)
(0 0 0)
(0.00453435 0 -0.00683944)
(0.02177 0 -0.00864514)
(0.048974 0 -0.0117045)
(0.102348 0 -0.015989)
(0.176994 0 -0.0202737)
(0.250804 0 -0.0229498)
(0.306932 0 -0.0238084)
(0.344845 0 -0.0235794)
(0.369815 0 -0.0228133)
(0.386113 0 -0.0217681)
(0.39637 0 -0.0205209)
(0.402168 0 -0.0191959)
(0.404439 0 -0.0178895)
(0.403718 0 -0.0166214)
(0.400317 0 -0.0154062)
(0.394415 0 -0.01425)
(0.38611 0 -0.0131533)
(0.375441 0 -0.0121134)
(0.36241 0 -0.0111252)
(0.34699 0 -0.0101819)
(0.329134 0 -0.00927571)
(0.308778 0 -0.00839815)
(0.28585 0 -0.00754013)
(0.260268 0 -0.00669196)
(0.231945 0 -0.00584322)
(0.200791 0 -0.00498246)
(0.166714 0 -0.00409702)
(0.129623 0 -0.00317262)
(0.0894349 0 -0.00219298)
(0.0460011 0 -0.0011369)
(0 0 0)
(0.015791 0 -0.0143759)
(0.0339604 0 -0.0180022)
(0.0638035 0 -0.0241605)
(0.118527 0 -0.0324331)
(0.191411 0 -0.0403148)
(0.261287 0 -0.0450585)
(0.313974 0 -0.0465431)
(0.349703 0 -0.0460769)
(0.373339 0 -0.0445909)
(0.388759 0 -0.0425185)
(0.398417 0 -0.0401129)
(0.403797 0 -0.0375829)
(0.40576 0 -0.0350689)
(0.404802 0 -0.0326219)
(0.401213 0 -0.0302712)
(0.395161 0 -0.0280293)
(0.386733 0 -0.025898)
(0.375963 0 -0.0238725)
(0.362849 0 -0.0219435)
(0.347361 0 -0.0200985)
(0.329447 0 -0.0183225)
(0.309045 0 -0.0165993)
(0.286078 0 -0.0149115)
(0.260463 0 -0.0132404)
(0.232113 0 -0.0115658)
(0.200936 0 -0.00986532)
(0.166837 0 -0.00811424)
(0.129724 0 -0.00628454)
(0.0895112 0 -0.00434438)
(0.0460455 0 -0.00225222)
(0 0 0)
(0.0341728 0 -0.0231707)
(0.0535036 0 -0.0286057)
(0.0871657 0 -0.0379095)
(0.143509 0 -0.0497219)
(0.213354 0 -0.0602228)
(0.277375 0 -0.0662018)
(0.325036 0 -0.0679515)
(0.357474 0 -0.06715)
(0.379014 0 -0.064958)
(0.39304 0 -0.0619319)
(0.401744 0 -0.0584744)
(0.406449 0 -0.0548709)
(0.407908 0 -0.0512746)
(0.406561 0 -0.0477646)
(0.402663 0 -0.0443836)
(0.396363 0 -0.0411501)
(0.387734 0 -0.0380675)
(0.376799 0 -0.0351299)
(0.363548 0 -0.0323248)
(0.347947 0 -0.029635)
(0.329941 0 -0.0270392)
(0.309462 0 -0.0245145)
(0.286431 0 -0.0220363)
(0.260764 0 -0.0195777)
(0.23237 0 -0.0171096)
(0.201154 0 -0.0145995)
(0.167021 0 -0.0120113)
(0.129873 0 -0.00930432)
(0.0896223 0 -0.00643214)
(0.046109 0 -0.00333423)
(0 0 0)
(0.0588545 0 -0.0337264)
(0.0795983 0 -0.0408818)
(0.11766 0 -0.0532958)
(0.175257 0 -0.0680349)
(0.240718 0 -0.0800974)
(0.297604 0 -0.0864772)
(0.339288 0 -0.0881041)
(0.367687 0 -0.0868224)
(0.386551 0 -0.0838753)
(0.39877 0 -0.0799668)
(0.406225 0 -0.0755736)
(0.410027 0 -0.0710131)
(0.410806 0 -0.0664553)
(0.408929 0 -0.0619972)
(0.404612 0 -0.0576915)
(0.397973 0 -0.0535622)
(0.389068 0 -0.0496138)
(0.377907 0 -0.0458399)
(0.364471 0 -0.0422263)
(0.348717 0 -0.0387515)
(0.330585 0 -0.0353887)
(0.310002 0 -0.0321096)
(0.286885 0 -0.028883)
(0.261146 0 -0.0256752)
(0.232693 0 -0.0224487)
(0.201427 0 -0.0191621)
(0.167248 0 -0.0157687)
(0.130055 0 -0.012216)
(0.089755 0 -0.00844463)
(0.0461832 0 -0.00437656)
(0 0 0)
(0.0891147 0 -0.0463608)
(0.111388 0 -0.0551096)
(0.153907 0 -0.0704753)
(0.211748 0 -0.0872838)
(0.271486 0 -0.0997941)
(0.320551 0 -0.105833)
(0.355822 0 -0.106948)
(0.37976 0 -0.105041)
(0.395575 0 -0.101314)
(0.405704 0 -0.0965816)
(0.411686 0 -0.0913622)
(0.414403 0 -0.0859615)
(0.414351 0 -0.0805619)
(0.411824 0 -0.0752704)
(0.406989 0 -0.0701472)
(0.399932 0 -0.0652199)
(0.390686 0 -0.0604935)
(0.379245 0 -0.0559614)
(0.365578 0 -0.0516094)
(0.349635 0 -0.0474124)
(0.331347 0 -0.043338)
(0.310635 0 -0.0393537)
(0.287412 0 -0.0354233)
(0.261586 0 -0.0315069)
(0.23306 0 -0.02756)
(0.201734 0 -0.0235329)
(0.167501 0 -0.019369)
(0.130255 0 -0.0150055)
(0.0898985 0 -0.0103717)
(0.0462621 0 -0.00537374)
(0 0 0)
(0.124167 0 -0.0612048)
(0.148017 0 -0.0713798)
(0.194497 0 -0.0893319)
(0.251072 0 -0.107155)
(0.303953 0 -0.119068)
(0.344981 0 -0.124166)
(0.373767 0 -0.124426)
(0.393076 0 -0.121727)
(0.405675 0 -0.117232)
(0.413563 0 -0.111759)
(0.417925 0 -0.105812)
(0.419419 0 -0.0996854)
(0.418423 0 -0.0935615)
(0.415148 0 -0.0875501)
(0.409713 0 -0.0817165)
(0.402172 0 -0.0760895)
(0.392529 0 -0.0706734)
(0.380761 0 -0.0654618)
(0.366825 0 -0.0604438)
(0.350663 0 -0.0555897)
(0.332195 0 -0.0508603)
(0.311333 0 -0.0462215)
(0.287987 0 -0.0416336)
(0.262059 0 -0.0370513)
(0.233451 0 -0.0324239)
(0.202059 0 -0.0276949)
(0.167767 0 -0.0227977)
(0.13046 0 -0.0176606)
(0.0900429 0 -0.0122045)
(0.0463404 0 -0.00632113)
(0 0 0)
(0.163262 0 -0.0782141)
(0.188646 0 -0.0896111)
(0.237995 0 -0.109493)
(0.291517 0 -0.127165)
(0.336761 0 -0.137616)
(0.36985 0 -0.141316)
(0.39232 0 -0.140465)
(0.407053 0 -0.13685)
(0.416451 0 -0.131612)
(0.422055 0 -0.125483)
(0.424715 0 -0.11891)
(0.424904 0 -0.112169)
(0.422882 0 -0.105436)
(0.418789 0 -0.0988156)
(0.412695 0 -0.0923778)
(0.404618 0 -0.08615)
(0.394535 0 -0.0801313)
(0.382401 0 -0.074317)
(0.368162 0 -0.0686969)
(0.351756 0 -0.0632444)
(0.333088 0 -0.0579175)
(0.31206 0 -0.0526771)
(0.288577 0 -0.0474804)
(0.262538 0 -0.0422776)
(0.23384 0 -0.037013)
(0.202381 0 -0.031625)
(0.168034 0 -0.0260387)
(0.130662 0 -0.0201712)
(0.090179 0 -0.0139361)
(0.046414 0 -0.00721512)
(0 0 0)
(0.205704 0 -0.0972501)
(0.232434 0 -0.109561)
(0.283065 0 -0.13045)
(0.331696 0 -0.146786)
(0.368811 0 -0.155088)
(0.39423 0 -0.157044)
(0.41074 0 -0.154927)
(0.421178 0 -0.150385)
(0.427527 0 -0.144457)
(0.430884 0 -0.137752)
(0.431828 0 -0.130653)
(0.430675 0 -0.123411)
(0.427586 0 -0.116183)
(0.422629 0 -0.109059)
(0.415832 0 -0.10211)
(0.407183 0 -0.0953677)
(0.396632 0 -0.0888314)
(0.38411 0 -0.0824925)