/*--------------------------------*- C++ -*----------------------------------*\
| =========                 |                                                 |
| \\      /  F ield         | OpenFOAM: The Open Source CFD Toolbox           |
|  \\    /   O peration     | Version:  dev                                   |
|   \\  /    A nd           | Web:      www.OpenFOAM.org                      |
|    \\/     M anipulation  |                                                 |
\*---------------------------------------------------------------------------*/
FoamFile
{
    version     2.0;
    format      ascii;
    class       surfaceScalarField;
    location    "3.16";
    object      phi;
}
// * * * * * * * * * * * * * * * * * * * * * * * * * * * * * * * * * * * * * //

dimensions      [0 3 -1 0 0 0 0];

internalField   nonuniform List<scalar> 
879
(
0.0145905
0.000558616
0.0140403
0.000563777
0.0135323
0.000520352
0.0130797
0.000463146
0.0126648
0.000423331
0.0122472
0.000423451
0.0117832
0.000467023
0.0112524
0.000530591
0.0106783
0.000570705
0.0101327
0.000538856
0.00971103
0.000411779
0.00948509
0.000213037
0.00948455
-1.51392e-05
0.00972672
-0.000260329
0.0102575
-0.000551158
0.011122
-0.000886847
0.0123243
-0.00122631
0.0138678
-0.00156924
0.0157464
-0.00190592
-0.00207215
0.0158735
0.000914378
0.015456
0.000994897
0.0150106
0.000978094
0.0145571
0.00092725
0.0140877
0.000901303
0.013568
0.000949061
0.0129575
0.00108061
0.012243
0.00124505
0.0114611
0.00134928
0.0107017
0.00129158
0.0100708
0.00103291
0.0096167
0.000654255
0.00930331
0.000282621
0.00906014
-3.5273e-05
0.00885296
-0.000364314
0.0087501
-0.000806261
0.00891837
-0.00141861
0.00950716
-0.00218368
0.0105812
-0.00300722
-0.00358534
0.0125808
0.00135189
0.0120531
0.00153614
0.0114406
0.00160298
0.0107546
0.0016241
0.00999427
0.00167033
0.00912693
0.00182263
0.00809532
0.00211557
0.00687451
0.00246608
0.00550514
0.00271558
0.00406838
0.00272197
0.0026558
0.00243589
0.00139227
0.00190516
0.000427788
0.00123168
-0.00013602
0.000510596
-0.000305281
-0.000215221
-0.000147249
-0.000986436
0.000253498
-0.00184327
0.00077656
-0.00273229
0.00131269
-0.00357049
-0.00428241
0.00690386
0.00221752
0.0058758
0.00257771
0.00462346
0.00286787
0.00315533
0.0031033
0.00153786
0.00329688
-0.000118685
0.0034858
-0.00169919
0.00369986
-0.00314114
0.00390869
-0.00442479
0.0039966
-0.00553976
0.00383098
-0.00646205
0.00334897
-0.00715601
0.00258685
-0.0076012
0.00166179
-0.00781543
0.000707191
-0.0078548
-0.000195757
-0.00779541
-0.00106775
-0.00771665
-0.00194575
-0.0076741
-0.00280021
-0.00765203
-0.00361956
-0.00436462
-0.00175162
0.00373141
-0.00332211
0.0041617
-0.00494124
0.00449969
-0.00656255
0.00473596
-0.00812751
0.00487132
-0.00957729
0.00494269
-0.0108611
0.00498801
-0.0119378
0.00498659
-0.0127961
0.00485281
-0.0134554
0.0044848
-0.013952
0.00383694
-0.0143294
0.00295242
-0.0146219
0.00193963
-0.0148455
0.000913454
-0.0150112
-4.95569e-05
-0.0151511
-0.000949526
-0.0153071
-0.00181316
-0.0155002
-0.00263231
-0.0157199
-0.00342665
-0.00413827
-0.0106403
0.0053242
-0.0121708
0.00570573
-0.0136196
0.00596134
-0.0149682
0.0060962
-0.0162061
0.00611913
-0.017316
0.00606013
-0.01827
0.00594695
-0.0190468
0.00576513
-0.0196495
0.00545403
-0.0201139
0.00494432
-0.0204942
0.00420915
-0.0208377
0.00328468
-0.0211635
0.00225129
-0.0214652
0.00119831
-0.0217353
0.00020137
-0.0220022
-0.000703925
-0.0223056
-0.00153288
-0.0226542
-0.00230859
-0.0230446
-0.00306287
-0.00371207
-0.0182163
0.00676194
-0.0195308
0.00703366
-0.0207265
0.00716998
-0.0218071
0.00718881
-0.0227833
0.0071056
-0.0236582
0.00694314
-0.0244229
0.00671706
-0.0250686
0.00641314
-0.025603
0.00598764
-0.0260563
0.00539339
-0.0264679
0.0046132
-0.0268671
0.0036732
-0.0272612
0.00263179
-0.0276427
0.00156348
-0.0280084
0.000548367
-0.0283869
-0.00034622
-0.0288165
-0.00112606
-0.0293017
-0.001848
-0.0298371
-0.00255383
-0.00314566
-0.0244362
0.00803498
-0.0255622
0.00817306
-0.0265719
0.00819272
-0.0274855
0.00811456
-0.0283227
0.00795347
-0.0290937
0.00772265
-0.0297965
0.00742588
-0.0304268
0.00704633
-0.0309893
0.00654994
-0.0315034
0.00590386
-0.0319938
0.00509672
-0.0324787
0.00414803
-0.0329636
0.00310357
-0.0334452
0.0020294
-0.0339217
0.0010066
-0.0344071
0.0001188
-0.0349432
-0.000612322
-0.0355517
-0.00126371
-0.0362196
-0.00191201
-0.0024574
-0.0296123
0.00919046
-0.0306242
0.00919824
-0.0315374
0.00911896
-0.0323791
0.00896861
-0.0331707
0.00875597
-0.0339224
0.00848331
-0.034634
0.00814381
-0.0353023
0.0077181
-0.0359303
0.00717828
-0.0365298
0.00650036
-0.0371163
0.0056769
-0.0377017
0.00472392
-0.0382912
0.00368068
-0.0388861
0.00260908
-0.039487
0.00158981
-0.0400961
0.000707936
-0.040744
1.35892e-05
-0.0414714
-0.000560098
-0.0422701
-0.00113909
-0.00164765
-0.0340399
0.0102769
-0.0349984
0.0101699
-0.0358774
0.010011
-0.0367046
0.00980813
-0.0374997
0.00956219
-0.0382728
0.00926561
-0.0390251
0.00890288
-0.0397552
0.00845214
-0.0404657
0.00788956
-0.0411647
0.00719694
-0.0418631
0.00636954
-0.0425695
0.00542139
-0.0432885
0.00438778
-0.0440211
0.00332704
-0.0447659
0.00231748
-0.0455221
0.0014446
-0.0462953
0.000765256
-0.0471226
0.000243813
-0.0480396
-0.000247517
-0.000705323
-0.0378968
0.0113219
-0.0388336
0.0111197
-0.0397073
0.0108977
-0.0405435
0.0106567
-0.0413619
0.0103917
-0.0421736
0.0100867
-0.042982
0.00971839
-0.0437877
0.00926209
-0.0445932
0.0086963
-0.0454049
0.00800661
-0.0462303
0.00718976
-0.0470754
0.00625813
-0.0479429
0.00524391
-0.0488314
0.00420138
-0.0497358
0.00320526
-0.0506527
0.00234253
-0.0515882
0.00167962
-0.052561
0.0011936
-0.053602
0.000768468
0.000384349
-0.0412367
0.0123295
-0.0421593
0.012055
-0.0430327
0.0117838
-0.0438811
0.0115174
-0.044727
0.0112487
-0.0455843
0.0109534
-0.0464581
0.0105994
-0.0473494
0.0101579
-0.0482606
0.00960914
-0.0491972
0.00894158
-0.0501652
0.00815306
-0.0511693
0.00725427
-0.0522097
0.00627351
-0.0532812
0.00525924
-0.054374
0.00428195
-0.0554806
0.00343054
-0.056603
0.00278141
-0.0577627
0.00233059
-0.0589936
0.00197472
0.00166518
-0.0439912
0.0132868
-0.0448903
0.0129666
-0.0457519
0.012658
-0.0466006
0.0123781
-0.0474654
0.0121246
-0.0483642
0.0118616
-0.0493015
0.0115439
-0.0502768
0.0111379
-0.0512919
0.0106261
-0.0523529
0.0100013
-0.0534671
0.00926289
-0.0546389
0.00841863
-0.0558661
0.00749028
-0.0571369
0.00651692
-0.0584314
0.00556074
-0.0597279
0.00470898
-0.0610153
0.0040486
-0.0623111
0.00360408
-0.0636648
0.00330417
0.00307193
-0.0459547
0.0141697
-0.0468065
0.0138306
-0.047623
0.0134866
-0.0484342
0.0132011
-0.0492837
0.0129848
-0.0501931
0.0127802
-0.0511624
0.0125203
-0.0521859
0.0121661
-0.0532646
0.0117067
-0.0544073
0.011143
-0.055625
0.0104765
-0.0569236
0.0097102
-0.0582996
0.00885631
-0.0597375
0.0079421
-0.0612093
0.0070173
-0.0626787
0.00616079
-0.0641189
0.00546894
-0.0655426
0.00500589
-0.0670067
0.0047443
0.00463134
-0.046785
0.0149581
-0.0475558
0.0146131
-0.048265
0.0142076
-0.048965
0.0139125
-0.0497315
0.0137617
-0.0505891
0.0136467
-0.0515241
0.0134623
-0.0525209
0.0131675
-0.0535803
0.0127681
-0.0547181
0.0122799
-0.0559546
0.0117091
-0.057304
0.0110528
-0.0587677
0.0103104
-0.060332
0.00949411
-0.0619644
0.00863485
-0.0636127
0.00779182
-0.0652258
0.0070626
-0.0668016
0.00656022
-0.0683923
0.00631135
0.00635644
-0.0469727
0.0155433
-0.047728
0.0157247
-0.0484238
0.0153207
-0.0489552
0.0147509
-0.0494521
0.0144207
-0.0500722
0.0143921
-0.0508397
0.0144231
-0.0517073
0.0143368
-0.0526407
0.0141056
-0.0536462
0.0137755
-0.0547588
0.0133916
-0.0560209
0.0129673
-0.0574643
0.0124895
-0.0591017
0.0119381
-0.0609215
0.0113015
-0.0628796
0.0105779
-0.0648919
0.00978667
-0.066857
0.00900794
-0.0687341
0.00841533
-0.0705958
0.00814891
0.00826335
-0.0442169
-0.0454001
-0.0461319
0.0160641
-0.0463836
0.015014
-0.0465173
0.0145653
-0.0468989
0.0147837
-0.0475224
0.0150551
-0.0482555
0.0150765
-0.0490346
0.0148891
-0.0498862
0.014629
-0.0508864
0.0143909
-0.0521158
0.0141928
-0.0536336
0.0140005
-0.0554714
0.0137663
-0.0576249
0.0134426
-0.0600362
0.0129742
-0.0625748
0.0123077
-0.0650558
0.0114691
-0.067354
0.0106914
-0.0695665
0.010337
0.0104196
-0.0388409
-0.0390677
-0.0389706
0.0144786
-0.0393793
0.0152018
-0.0400735
0.0157575
-0.0407317
0.0157409
-0.0412834
0.015445
-0.0418333
0.0151804
-0.0425477
0.0151041
-0.043577
0.0152182
-0.0450354
0.0154521
-0.0470024
0.0157237
-0.0495107
0.0159386
-0.0525026
0.015951
-0.0557865
0.0155741
-0.0590472
0.0147097
-0.0619864
0.0136083
-0.0646538
0.0129798
0.0130321
-0.0121594
-0.0191972
0.0222486
-0.0231974
0.0197652
-0.0252821
0.0178313
-0.0262837
0.0164502
-0.0267905
0.0156884
-0.0272187
0.0155309
-0.0278391
0.0158345
-0.0288263
0.0164323
-0.0303421
0.0172298
-0.0325641
0.018148
-0.035614
0.0189857
-0.0394453
0.0193876
-0.0437109
0.0189552
-0.0477551
0.0176299
-0.0512065
0.0164065
0.016559
0.0549409
0.0417223
0.0302915
0.0292673
0.0206707
0.0260741
0.0129376
0.0234222
0.00711941
0.0213473
0.00303685
0.0199126
0.000259387
0.0192026
-0.00179036
0.0192697
-0.00369726
0.0200423
-0.00598378
0.021257
-0.00908683
0.0224728
-0.0133202
0.0231682
-0.0186481
0.022935
-0.0241174
0.0218506
0.0221236
0.115207
0.102121
0.0900114
0.0355319
0.0789327
0.0324237
0.0689641
0.0298764
0.0602086
0.0279506
0.0527537
0.0267144
0.0465848
0.0261984
0.0414916
0.0263348
0.0370429
0.0269035
0.0326547
0.0275358
0.0277136
0.0278531
0.0217593
0.0277795
0.028727
0.175143
0.163168
0.0443963
0.151715
0.0413242
0.140835
0.038823
0.130615
0.0369238
0.121172
0.0356277
0.112611
0.0348806
0.104942
0.0345544
0.0980035
0.0344534
0.0914406
0.0343926
0.0848107
0.0343837
0.0352836
0.243345
0.232618
0.222161
0.049272
0.212027
0.0470469
0.202286
0.0453551
0.193017
0.0441339
0.184276
0.0432767
0.176059
0.0426495
0.168277
0.0421504
0.160829
0.0418059
0.0421183
0.29566
0.286849
0.0558468
0.278246
0.0539448
0.269901
0.0524624
0.26185
0.0513091
0.254098
0.0503802
0.246629
0.0495952
0.23947
0.0489383
0.0487123
0.351367
0.344463
0.337697
0.0592112
0.331095
0.0578915
0.324661
0.0567925
0.318393
0.055839
0.312321
0.0549836
0.0544608
0.394582
0.38967
0.062784
0.384837
0.0616031
0.38008
0.0605719
0.375401
0.0596343
0.0590279
0.437313
0.434087
0.430863
0.0637706
0.427622
0.0628472
0.0623013
0.471345
0.469454
0.06471
0.0643052
0.50223
0.065146
)
;

boundaryField
{
    inlet
    {
        type            calculated;
        value           nonuniform 0();
    }
    outlet
    {
        type            calculated;
        value           nonuniform List<scalar> 
30
(
0.0177903
0.0120661
0.00198155
-0.00759792
-0.0159742
-0.0234985
-0.030431
-0.0369351
-0.0431068
-0.0490087
-0.0547182
-0.0603006
-0.0650974
-0.0685915
-0.0701425
-0.0725285
-0.0717488
-0.0672927
-0.05476
-0.029709
0.0151287
0.0782264
0.153966
0.232848
0.306544
0.370805
0.424318
0.467419
0.501358
0.527861
)
;
    }
    flap
    {
        type            calculated;
        value           nonuniform 0();
    }
    upperWall
    {
        type            calculated;
        value           nonuniform 0();
    }
    lowerWall
    {
        type            calculated;
        value           uniform 0;
    }
    frontAndBack
    {
        type            empty;
        value           nonuniform 0();
    }
    procBoundary5to2
    {
        type            processor;
        value           nonuniform List<scalar> 
34
(
0.0162762
0.0169192
0.0372388
0.0176779
0.015252
0.0011539
0.0254944
-0.06995
0.0372668
0.032991
-0.129232
0.0432972
0.0391631
-0.187615
0.0480033
-0.254302
0.0553504
0.0520458
-0.304624
0.0582273
-0.358362
0.0628309
0.0608349
-0.399569
0.0641811
-0.440547
0.0659978
0.0648065
-0.473151
0.0655508
-0.502926
0.0653772
-0.527723
0.0649757
)
;
    }
    procBoundary5to4
    {
        type            processor;
        value           nonuniform List<scalar> 
18
(
-0.0151339
-0.0162141
-0.0130032
-0.00775464
0.000252285
0.00906176
0.0167925
0.0231767
0.0284701
0.0329663
0.0368644
0.0402413
0.0430459
0.0450834
0.0460079
-0.0151434
0.0465838
0.0434951
)
;
    }
}


// ************************************************************************* //
