/*--------------------------------*- C++ -*----------------------------------*\
| =========                 |                                                 |
| \\      /  F ield         | OpenFOAM: The Open Source CFD Toolbox           |
|  \\    /   O peration     | Version:  dev                                   |
|   \\  /    A nd           | Web:      www.OpenFOAM.org                      |
|    \\/     M anipulation  |                                                 |
\*---------------------------------------------------------------------------*/
FoamFile
{
    version     2.0;
    format      ascii;
    class       surfaceScalarField;
    location    "3.56";
    object      phi;
}
// * * * * * * * * * * * * * * * * * * * * * * * * * * * * * * * * * * * * * //

dimensions      [0 3 -1 0 0 0 0];

internalField   nonuniform List<scalar> 
879
(
0.0173389
0.000566563
0.016711
0.00063069
0.0160936
0.000620108
0.0155438
0.000552263
0.0150947
0.000451081
0.0147522
0.000344106
0.0144972
0.000255969
0.0143007
0.000196839
0.0141455
0.000154836
0.0140406
0.00010381
0.0140162
2.25555e-05
0.0141012
-8.74615e-05
0.0142986
-0.000200596
0.0145938
-0.000298849
0.014982
-0.000392541
0.01548
-0.000502797
0.0161225
-0.000647735
0.0169568
-0.000839907
0.0180116
-0.00106094
-0.00117273
0.0191346
0.000749999
0.0188591
0.000909107
0.0185484
0.000933496
0.0182452
0.000857912
0.0179719
0.00072646
0.0177284
0.00058911
0.0174947
0.000490647
0.017245
0.000446898
0.0169704
0.000429121
0.0166904
0.00038266
0.0164415
0.000269627
0.0162451
0.000106479
0.0161023
-6.09324e-05
0.0160091
-0.00020939
0.0159596
-0.00034732
0.0159489
-0.000496912
0.0159933
-0.000697277
0.0161567
-0.00100899
0.0165487
-0.00145912
-0.00192191
0.015897
0.00089072
0.0156663
0.00114274
0.0153781
0.00122439
0.0150518
0.00118667
0.014693
0.00108738
0.0142939
0.000989779
0.0138315
0.00095408
0.0132757
0.00100305
0.0126107
0.0010938
0.0118478
0.00114448
0.0110238
0.00109177
0.0102148
0.000912997
0.00951584
0.000634932
0.00896827
0.000334455
0.00857576
4.09073e-05
0.00836205
-0.000287966
0.00834225
-0.000682712
0.00850017
-0.00117257
0.00881793
-0.00178299
-0.00252857
0.0105044
0.0012765
0.010025
0.00162502
0.00944886
0.00180336
0.0087498
0.00188825
0.00790496
0.00193436
0.00692493
0.00197145
0.00586717
0.00201288
0.00481984
0.00205077
0.00385925
0.00205408
0.00302946
0.00197322
0.00235657
0.0017629
0.00185227
0.00141485
0.00150672
0.000977376
0.00130027
0.000537193
0.00119509
0.000141827
0.001143
-0.000240636
0.00111319
-0.000658121
0.00109399
-0.00115902
0.0011195
-0.00181461
-0.00271342
0.00254247
0.00210308
0.00166041
0.00251006
0.000708486
0.00275813
-0.000285331
0.00288465
-0.00127308
0.0029243
-0.00220903
0.00290909
-0.00304687
0.00285182
-0.00374859
0.00275292
-0.00429144
0.00259667
-0.0046743
0.00235508
-0.00492281
0.00200969
-0.00508621
0.00157583
-0.00521816
0.00110625
-0.00534836
0.000663706
-0.00548678
0.000276009
-0.00564647
-8.56817e-05
-0.00583881
-0.00047098
-0.00605297
-0.00095052
-0.00623088
-0.00164281
-0.00252471
-0.00622183
0.00290402
-0.00703046
0.00332174
-0.00782931
0.0035599
-0.00859489
0.00365288
-0.00929966
0.00363133
-0.00991351
0.00352469
-0.0104141
0.00335358
-0.0107895
0.00312885
-0.0110429
0.00284984
-0.0111984
0.0025096
-0.0112994
0.002109
-0.0113943
0.00166837
-0.0115168
0.00122569
-0.011678
0.000821289
-0.0118791
0.000472851
-0.0121276
0.000158079
-0.0124222
-0.000181491
-0.0127337
-0.000644647
-0.0130359
-0.00134676
-0.00214531
-0.0136786
0.00363524
-0.0143427
0.00398894
-0.0149461
0.00416624
-0.0154853
0.00419475
-0.015953
0.00410136
-0.0163399
0.00391349
-0.0166407
0.00365561
-0.0168577
0.00334635
-0.0170047
0.0029967
-0.0171091
0.00261315
-0.0172071
0.00220533
-0.0173323
0.00179126
-0.0175044
0.00139481
-0.017724
0.00103721
-0.0179825
0.000727236
-0.0182818
0.000452676
-0.0186287
0.000160248
-0.0190074
-0.000271603
-0.019411
-0.000949288
-0.00166049
-0.0198249
0.00431874
-0.0203993
0.00456647
-0.0208895
0.00465943
-0.0213086
0.00461668
-0.0216631
0.00445826
-0.0219554
0.00420763
-0.0221887
0.00389025
-0.0223716
0.00352991
-0.0225204
0.00314536
-0.0226587
0.00275059
-0.0228131
0.00235816
-0.0230053
0.0019812
-0.0232449
0.00163139
-0.0235268
0.00131555
-0.0238387
0.00103499
-0.0241732
0.000782558
-0.0245377
0.000519538
-0.0249561
0.000141192
-0.0254437
-0.000467779
-0.00109869
-0.0250289
0.00500408
-0.0255855
0.0051263
-0.0260498
0.00512686
-0.0264446
0.00501425
-0.0267828
0.00479898
-0.0270722
0.00449898
-0.0273204
0.00413975
-0.0275388
0.00374905
-0.027744
0.00335047
-0.027955
0.00296078
-0.0281893
0.002591
-0.0284582
0.00224779
-0.0287629
0.00193326
-0.0290966
0.00164571
-0.0294494
0.00138368
-0.029817
0.00114551
-0.0302078
0.000905227
-0.0306473
0.000575116
-0.0311868
6.56265e-05
-0.000467068
-0.0296178
0.00572702
-0.0302054
0.00571717
-0.0307015
0.00562609
-0.0311338
0.00544949
-0.0315179
0.00518559
-0.0318627
0.00484575
-0.0321772
0.0044557
-0.0324742
0.00404673
-0.0327685
0.00364472
-0.0330733
0.00326488
-0.0333969
0.00291312
-0.0337406
0.00258933
-0.0341003
0.0022901
-0.03447
0.00201187
-0.0348467
0.00175632
-0.035235
0.00152927
-0.0356513
0.00131642
-0.0361297
0.0010479
-0.0367154
0.00064524
0.00023105
-0.0337931
0.00649997
-0.034434
0.00636128
-0.0349928
0.00618812
-0.0355004
0.00596004
-0.0359709
0.00565857
-0.03641
0.00528693
-0.0368253
0.00487243
-0.037229
0.00445113
-0.0376339
0.00404968
-0.0380479
0.00367824
-0.0384713
0.00333504
-0.0388982
0.00301406
-0.0393216
0.00271066
-0.0397387
0.00242554
-0.0401547
0.00216832
-0.0405844
0.00195445
-0.0410541
0.00178107
-0.0416053
0.00159352
-0.0422849
0.00131871
0.00103965
-0.0376448
0.00731741
-0.038342
0.00706176
-0.0389778
0.00682714
-0.0395849
0.00657008
-0.0401705
0.00624671
-0.0407312
0.00584965
-0.0412687
0.00541143
-0.0417941
0.00497731
-0.0423194
0.00457503
-0.0428485
0.00420662
-0.0433749
0.0038601
-0.043887
0.00352404
-0.0443747
0.00319558
-0.0448355
0.0028829
-0.0452767
0.00260554
-0.0457165
0.00238971
-0.0461868
0.00224638
-0.0467365
0.00213764
-0.0474165
0.00199265
0.00185371
-0.0411477
0.00815607
-0.0418816
0.00779894
-0.0425863
0.00753503
-0.0432959
0.00728263
-0.0440017
0.00695502
-0.0446809
0.00653088
-0.0453247
0.00605675
-0.0459442
0.00559761
-0.0465541
0.00518497
-0.0471567
0.00480858
-0.0477404
0.00444248
-0.0482884
0.00406997
-0.0487888
0.00369325
-0.0492409
0.00333168
-0.0496565
0.00301716
-0.0500595
0.00278818
-0.0504899
0.00267178
-0.0510057
0.00264793
-0.0516626
0.00264344
0.00263342
-0.044119
0.00896462
-0.0448278
0.00851106
-0.0455537
0.00826405
-0.0463354
0.0080672
-0.0471341
0.00775625
-0.0478949
0.0072937
-0.0485963
0.00675959
-0.0492574
0.00625957
-0.0499054
0.005833
-0.0505446
0.00544713
-0.0511567
0.00505329
-0.0517171
0.0046283
-0.05221
0.00418351
-0.0526362
0.00375457
-0.0530116
0.00338863
-0.053365
0.00313714
-0.0537431
0.00304492
-0.0542149
0.00311415
-0.0548396
0.00326212
0.00340242
-0.0462404
0.00966214
-0.0468064
0.00908024
-0.0474661
0.0089269
-0.0482722
0.00887612
-0.0491276
0.00861407
-0.0499238
0.00809187
-0.0506248
0.00746202
-0.0512733
0.00690884
-0.0519232
0.00648302
-0.0525816
0.00610492
-0.053216
0.0056863
-0.0537861
0.00519647
-0.0542688
0.00466353
-0.0546652
0.00414771
-0.054996
0.00371549
-0.0552943
0.00343102
-0.0556121
0.00335775
-0.0560306
0.00352716
-0.0566199
0.0038454
0.00416463
-0.0484767
0.0114293
-0.0489918
0.0101805
-0.0492403
0.00933204
-0.0497495
0.00943917
-0.0506053
0.00973483
-0.0515679
0.00957911
-0.0524254
0.00895136
-0.0531222
0.00816018
-0.0537547
0.00754215
-0.054434
0.00716233
-0.0551639
0.00683422
-0.0558776
0.00639865
-0.0565046
0.00582145
-0.0570088
0.005165
-0.0573942
0.00452974
-0.057691
0.00400831
-0.0579402
0.00367571
-0.0581988
0.00361117
-0.0585644
0.00388708
-0.0591442
0.00441896
0.0049357
-0.0491509
-0.0495599
-0.0491002
0.00887565
-0.0492704
0.00961248
-0.0502488
0.0107159
-0.0513998
0.0107325
-0.0523342
0.00988763
-0.052984
0.00881136
-0.0535582
0.00811699
-0.0542912
0.00789539
-0.0551615
0.00770383
-0.0560239
0.00725962
-0.0567535
0.00654901
-0.0572978
0.00570649
-0.0576717
0.00490028
-0.0579256
0.00425818
-0.0581133
0.00385878
-0.0582925
0.00378508
-0.0585714
0.00416018
-0.0591232
0.00496435
0.00572004
-0.0456616
-0.0453033
-0.0468338
0.0122492
-0.0484105
0.0123114
-0.0494613
0.0109403
-0.0499583
0.00930968
-0.0503405
0.00849974
-0.051172
0.00872685
-0.0523285
0.00885963
-0.0534803
0.00840998
-0.0544069
0.00747345
-0.0550384
0.00633513
-0.055418
0.00527646
-0.0556341
0.00447015
-0.0557617
0.00398162
-0.0558562
0.00387427
-0.0560156
0.00431363
-0.0565036
0.00544575
0.00659875
-0.0382102
-0.0411682
0.0152716
-0.0423325
0.0121062
-0.0421469
0.00912526
-0.0417378
0.00809112
-0.04264
0.0096289
-0.0442756
0.0104944
-0.0459106
0.0100435
-0.0471972
0.0087579
-0.0480557
0.00719067
-0.0485678
0.00578502
-0.0488659
0.00476408
-0.0490416
0.00415251
-0.0491469
0.00397417
-0.0492193
0.00437997
-0.0495988
0.00581848
0.00770862
0.0261003
0.0114236
-0.00256226
0.0231121
-0.0143349
0.0198641
-0.0221078
0.0174015
-0.0268062
0.0151919
-0.0296332
0.0128688
-0.0313093
0.0104317
-0.0323235
0.00820194
-0.0331169
0.0065748
-0.0339535
0.00559644
-0.0348022
0.00499624
-0.035543
0.00470945
-0.0359958
0.00482658
-0.0363212
0.00613693
0.00938335
0.0876648
0.0731081
0.0598562
0.030653
0.0479594
0.0270877
0.0371916
0.0236349
0.0272815
0.0203394
0.0181551
0.0173252
0.0100464
0.0146799
0.00324279
0.0123956
-0.00224394
0.010478
-0.00657503
0.00903485
-0.0101109
0.00835607
-0.0124592
0.00847816
0.0135097
0.150728
0.138021
0.0397939
0.125938
0.0357161
0.114399
0.0318755
0.103355
0.0283662
0.0927829
0.0252485
0.0826396
0.0225344
0.0728574
0.0202551
0.0633793
0.0185071
0.0542552
0.0174737
0.0451598
0.0175663
0.0212325
0.223479
0.212006
0.2008
0.0430791
0.189841
0.0393222
0.179101
0.0359841
0.168522
0.0331085
0.158021
0.0307509
0.147513
0.0290091
0.13693
0.0280501
0.12624
0.0282487
0.0303079
0.279023
0.269101
0.0492414
0.259209
0.0458721
0.249315
0.0429975
0.239372
0.0406886
0.229336
0.0390389
0.219203
0.0381758
0.209175
0.0382695
0.0393327
0.338137
0.329673
0.321091
0.0515753
0.31238
0.0493935
0.303547
0.0478664
0.294645
0.0470703
0.285873
0.0470339
0.0475683
0.382334
0.375233
0.056488
0.367984
0.0551092
0.360658
0.0543895
0.353389
0.0542942
0.0546095
0.42748
0.421978
0.416365
0.0599951
0.410721
0.0599305
0.0602352
0.461945
0.457942
0.0639252
0.0643529
0.49587
0.0669751
)
;

boundaryField
{
    inlet
    {
        type            calculated;
        value           nonuniform 0();
    }
    outlet
    {
        type            calculated;
        value           nonuniform List<scalar> 
30
(
0.0191779
0.0172915
0.00941818
0.00129795
-0.006426
-0.0134217
-0.0199022
-0.0260119
-0.0318249
-0.03742
-0.0430999
-0.048237
-0.0524487
-0.0556151
-0.0573886
-0.059922
-0.0599144
-0.0573893
-0.050716
-0.0380034
-0.0165932
0.0374292
0.117157
0.200142
0.277629
0.346339
0.405086
0.453815
0.493239
0.524597
)
;
    }
    flap
    {
        type            calculated;
        value           nonuniform 0();
    }
    upperWall
    {
        type            calculated;
        value           nonuniform 0();
    }
    lowerWall
    {
        type            calculated;
        value           uniform 0;
    }
    frontAndBack
    {
        type            empty;
        value           nonuniform 0();
    }
    procBoundary5to2
    {
        type            processor;
        value           nonuniform List<scalar> 
34
(
0.0129949
0.0105928
0.0482084
0.0063322
0.0092572
0.0318401
0.018622
-0.0422031
0.0313766
0.0267845
-0.103158
0.0386062
0.034421
-0.164131
0.0440547
-0.235252
0.0515653
0.0471876
-0.288987
0.0530403
-0.346483
0.0575848
0.0543311
-0.38925
0.0584867
-0.432805
0.0618075
0.0606044
-0.465842
0.0638844
-0.498306
0.0663516
-0.525829
0.0681972
)
;
    }
    procBoundary5to4
    {
        type            processor;
        value           nonuniform List<scalar> 
18
(
-0.0179025
-0.0193151
-0.0160347
-0.0108871
-0.00336595
0.00542404
0.0129506
0.0191447
0.0243468
0.0288982
0.0330235
0.0368307
0.0403124
0.0433137
0.0455461
-0.0104835
0.0475344
0.0475887
)
;
    }
}


// ************************************************************************* //
