/*--------------------------------*- C++ -*----------------------------------*\
| =========                 |                                                 |
| \\      /  F ield         | OpenFOAM: The Open Source CFD Toolbox           |
|  \\    /   O peration     | Version:  dev                                   |
|   \\  /    A nd           | Web:      www.OpenFOAM.org                      |
|    \\/     M anipulation  |                                                 |
\*---------------------------------------------------------------------------*/
FoamFile
{
    version     2.0;
    format      ascii;
    class       volScalarField;
    location    "0.86";
    object      p;
}
// * * * * * * * * * * * * * * * * * * * * * * * * * * * * * * * * * * * * * //

dimensions      [0 2 -2 0 0 0 0];

internalField   nonuniform List<scalar> 
2790
(
181.182
181.061
181.274
181.814
182.569
183.476
184.526
185.719
187.052
188.519
190.113
191.829
193.661
195.601
197.639
199.763
201.958
204.202
206.471
208.735
210.958
213.099
215.115
216.958
218.58
219.938
221
221.743
222.165
222.339
181.013
180.987
181.221
181.758
182.51
183.415
184.462
185.65
186.978
188.437
190.024
191.732
193.555
195.486
197.515
199.631
201.816
204.053
206.317
208.579
210.804
212.953
214.982
216.843
218.49
219.877
220.968
221.738
222.183
222.512
180.843
180.889
181.139
181.667
182.408
183.303
184.338
185.512
186.823
188.263
189.828
191.512
193.307
195.207
197.203
199.281
201.429
203.625
205.849
208.071
210.261
212.38
214.388
216.242
217.897
219.313
220.459
221.325
221.921
222.388
180.658
180.74
181.002
181.522
182.25
183.132
184.151
185.307
186.595
188.01
189.545
191.195
192.953
194.81
196.758
198.785
200.875
203.011
205.171
207.33
209.458
211.52
213.481
215.301
216.942
218.368
219.553
220.484
221.134
221.465
180.449
180.549
180.82
181.333
182.048
182.913
183.912
185.044
186.303
187.685
189.183
190.79
192.499
194.303
196.191
198.152
200.17
202.23
204.31
206.386
208.432
210.416
212.308
214.072
215.676
217.086
218.271
219.197
219.808
219.886
180.212
180.32
180.596
181.101
181.8
182.644
183.619
184.72
185.946
187.288
188.74
190.297
191.949
193.689
195.507
197.391
199.326
201.295
203.28
205.258
207.204
209.092
210.893
212.577
214.114
215.472
216.615
217.485
218.045
217.95
179.945
180.056
180.331
180.826
181.506
182.327
183.272
184.34
185.525
186.822
188.223
189.72
191.307
192.975
194.713
196.508
198.348
200.215
202.091
203.956
205.786
207.557
209.245
210.821
212.26
213.529
214.592
215.381
215.913
215.795
179.647
179.757
180.028
180.511
181.17
181.963
182.876
183.904
185.045
186.29
187.632
189.064
190.578
192.164
193.812
195.51
197.243
198.995
200.749
202.484
204.18
205.813
207.36
208.798
210.1
211.24
212.187
212.874
213.392
213.361
179.318
179.426
179.689
180.156
180.792
181.555
182.431
183.416
184.507
185.695
186.972
188.332
189.765
191.262
192.811
194.4
196.015
197.64
199.256
200.844
202.384
203.853
205.229
206.488
207.608
208.566
209.346
209.89
210.361
210.457
178.959
179.063
179.315
179.765
180.375
181.104
181.94
182.878
183.914
185.04
186.247
187.528
188.873
190.273
191.714
193.184
194.67
196.153
197.616
199.038
200.398
201.672
202.837
203.868
204.744
205.445
205.975
206.287
206.613
206.769
178.571
178.669
178.908
179.338
179.92
180.613
181.405
182.293
183.27
184.329
185.461
186.657
187.908
189.202
190.527
191.869
193.213
194.541
195.834
197.068
198.22
199.264
200.17
200.911
201.46
201.801
201.945
201.862
201.839
201.828
178.155
178.246
178.471
178.878
179.43
180.085
180.83
181.664
182.579
183.566
184.617
185.723
186.874
188.056
189.256
190.461
191.653
192.812
193.917
194.941
195.856
196.628
197.222
197.598
197.72
197.556
197.113
196.361
195.637
194.986
177.712
177.796
178.004
178.388
178.907
179.521
180.218
180.994
181.843
182.755
183.722
184.733
185.777
186.841
187.91
188.968
189.997
190.974
191.874
192.666
193.314
193.775
193.999
193.932
193.51
192.663
191.356
189.514
187.491
185.332
177.244
177.32
177.511
177.869
178.354
178.925
179.57
180.287
181.067
181.901
182.779
183.691
184.624
185.564
186.495
187.399
188.256
189.04
189.72
190.26
190.614
190.729
190.536
189.954
188.873
187.153
184.65
181.112
176.733
171.134
176.752
176.821
176.993
177.323
177.772
178.299
178.891
179.545
180.254
181.007
181.793
182.603
183.421
184.233
185.021
185.766
186.443
187.025
187.473
187.747
187.791
187.537
186.897
185.753
183.936
181.202
177.207
171.269
162.739
148.136
96.8195
96.56
95.8173
94.3094
91.9585
88.7395
84.6809
79.8428
74.3048
68.1641
61.5379
54.5601
47.3796
40.1608
33.0789
26.3166
20.0583
14.4853
9.76944
6.06616
3.49011
2.09368
1.87777
2.76819
4.59769
7.18642
10.3432
13.3298
13.7144
7.55725
96.9936
96.7133
95.9313
94.3768
91.9777
88.7159
84.6181
79.7413
74.1642
67.984
61.3171
54.2973
47.0745
39.8134
32.6899
25.8868
19.589
13.9762
9.21475
5.44987
2.79204
1.29789
0.966913
1.7107
3.34982
5.67677
8.47341
11.1187
11.5791
6.02607
97.3636
96.9907
96.04
94.3295
91.7958
88.4226
84.2342
79.2833
73.6447
67.4127
60.6998
53.6371
46.3724
39.069
31.9019
25.0538
18.71
13.0506
8.23864
4.41026
1.67143
0.0885621
-0.340353
0.286069
1.77671
3.89374
6.38679
8.73343
9.25454
4.60854
97.8265
97.2541
96.0373
94.087
91.3531
87.8172
83.4972
78.4381
72.708
66.395
59.6071
52.4717
45.1348
37.7576
30.5143
23.5882
17.1652
11.4265
6.53485
2.62156
-0.215462
-1.90678
-2.44632
-1.93438
-0.564617
1.41288
3.73422
5.94431
6.67225
3.29891
98.1625
97.2901
95.7689
93.5472
90.5868
86.8679
82.4011
77.2223
71.392
64.992
58.1248
50.9136
43.5017
36.0487
28.7274
21.721
15.2156
9.39231
4.41478
0.412995
-2.52183
-4.32127
-4.96909
-4.55569
-3.27292
-1.37117
0.880806
3.07134
4.11483
2.11193
98.1065
96.8787
95.0805
92.6092
89.4392
85.548
80.9399
75.6436
69.7116
63.2194
56.2649
48.9672
41.4664
33.9209
26.5034
19.3974
12.7907
6.86699
1.79426
-2.29277
-5.30445
-7.1839
-7.90743
-7.54478
-6.28217
-4.36376
-2.06228
0.235547
1.69579
1.0461
97.4112
95.8661
93.8849
91.2294
87.8991
83.8695
79.1414
73.7402
67.7129
61.1299
54.0859
46.6978
39.1035
31.4611
23.9433
16.734
10.0224
3.99539
-1.17357
-5.34125
-8.41514
-10.352
-11.1202
-10.7641
-9.46036
-7.44352
-4.99097
-2.47798
-0.53174
0.0969183
95.9422
94.2252
92.1977
89.4451
86.0177
81.893
77.0731
71.5827
65.4687
58.7992
51.6663
44.1856
36.4947
28.7513
21.1291
13.8124
6.99216
0.858531
-4.40742
-8.65023
-11.7694
-13.7327
-14.5051
-14.1088
-12.7052
-10.5183
-7.83049
-5.01583
-2.54396
-0.740643
93.7587
92.0898
90.1469
87.3759
83.9083
79.7251
74.8364
69.2695
63.0737
56.3192
49.0977
41.524
33.7354
25.8896
18.1615
10.7367
3.80745
-2.43271
-7.79495
-12.1104
-15.2644
-17.2202
-17.9526
-17.4769
-15.9241
-13.5108
-10.5237
-7.34307
-4.32996
-1.47186
91.1537
89.7428
87.9561
85.2092
81.7327
77.5076
72.5587
66.9184
60.64
53.7975
46.4846
38.8164
30.9301
22.9829
15.1501
7.61869
0.581781
-5.7642
-11.2235
-15.6128
-18.7917
-20.6994
-21.3533
-20.7717
-19.0325
-16.354
-13.0255
-9.4365
-5.88506
-2.10173
88.6098
87.5481
85.9004
83.1703
79.6802
75.4028
70.3817
64.6571
58.2867
51.3484
43.9382
36.172
28.1873
20.1409
12.2071
4.57286
-2.56822
-9.01696
-14.5705
-19.0279
-22.2198
-24.0685
-24.6243
-23.9033
-21.9513
-18.9873
-15.2985
-11.2804
-7.20759
-2.6339
86.5792
85.8451
84.2546
81.4879
77.9415
73.5732
68.4469
62.6115
56.1296
49.0821
41.5667
33.6975
25.6134
17.4706
9.44138
1.71144
-5.52724
-12.0724
-17.7146
-22.237
-25.4421
-27.2317
-27.6715
-26.7837
-24.6052
-21.3534
-17.3086
-12.863
-8.29715
-3.07006
85.3357
84.8936
83.2582
80.3633
76.6833
72.16
66.8771
60.8908
54.2693
47.0952
39.4656
31.4882
23.3049
15.0697
6.95269
-0.8625
-8.18999
-14.8234
-20.5477
-25.134
-28.3606
-30.1031
-30.4112
-29.3277
-26.9237
-23.3981
-19.0234
-14.1756
-9.15431
-3.40978
84.9909
84.8956
83.1141
79.9469
76.0113
71.2514
65.7489
59.5682
52.7821
45.4692
37.7114
29.6201
21.3408
13.0203
4.82623
-3.05855
-10.4653
-17.1778
-22.978
-27.6294
-30.8918
-32.611
-32.7547
-31.4523
-28.8512
-25.0768
-20.4133
-15.2094
-9.77829
-3.6487
85.5702
86.1063
83.9409
80.3191
75.9833
70.8838
65.0881
58.6672
51.688
44.2192
36.3349
28.1489
19.7931
11.4098
3.1589
-4.79823
-12.2763
-19.0567
-24.9258
-29.6434
-32.948
-34.6435
-34.6484
-33.1618
-30.3701
-26.3697
-21.4578
-15.957
-10.1704
-3.77999
176.23
176.289
176.442
176.743
177.154
177.634
178.17
178.759
179.393
180.061
180.752
181.455
182.153
182.831
183.47
184.048
184.538
184.907
185.114
185.111
184.833
184.199
183.1
181.383
178.825
175.074
169.547
160.94
146.511
104.322
175.669
175.72
175.851
176.12
176.491
176.922
177.399
177.92
178.475
179.054
179.645
180.236
180.808
181.347
181.83
182.235
182.53
182.68
182.64
182.356
181.757
180.75
179.214
176.977
173.794
169.287
162.842
153.27
140.451
124.166
175.075
175.116
175.225
175.461
175.79
176.169
176.585
177.034
177.508
177.994
178.482
178.956
179.4
179.794
180.118
180.345
180.443
180.373
180.089
179.531
178.626
177.278
175.365
172.725
169.143
164.341
158.021
149.855
140.809
132.65
174.449
174.479
174.563
174.765
175.051
175.377
175.729
176.104
176.494
176.885
177.267
177.622
177.934
178.183
178.346
178.395
178.298
178.013
177.493
176.678
175.496
173.857
171.648
168.737
164.967
160.176
154.261
147.12
138.906
129.821
173.79
173.809
173.869
174.035
174.276
174.546
174.834
175.133
175.437
175.732
176.005
176.24
176.42
176.523
176.526
176.401
176.114
175.624
174.885
173.838
172.417
170.54
168.115
165.038
161.2
156.497
150.857
144.184
136.418
127.896
173.102
173.108
173.142
173.272
173.467
173.681
173.902
174.125
174.341
174.538
174.703
174.818
174.866
174.826
174.673
174.38
173.912
173.232
172.293
171.043
169.422
167.361
164.785
161.615
157.775
153.195
147.827
141.645
134.682
127.312
172.385
172.378
172.385
172.479
172.626
172.784
172.937
173.082
173.211
173.311
173.367
173.364
173.283
173.103
172.8
172.347
171.712
170.857
169.742
168.319
166.536
164.338
161.664
158.458
154.668
150.253
145.198
139.516
133.257
126.664
171.641
171.621
171.601
171.658
171.758
171.858
171.943
172.011
172.053
172.056
172.006
171.886
171.68
171.366
170.921
170.319
169.529
168.519
167.251
165.685
163.776
161.48
158.753
155.553
151.85
147.622
142.87
137.613
131.886
125.867
170.874
170.84
170.793
170.811
170.864
170.907
170.925
170.916
170.872
170.779
170.626
170.394
170.068
169.627
169.049
168.31
167.382
166.235
164.838
163.155
161.151
158.792
156.045
152.883
149.287
145.248
140.773
135.883
130.607
125.093
170.085
170.037
169.962
169.943
169.949
169.935
169.887
169.802
169.674
169.489
169.235
168.897
168.457
167.897
167.196
166.333
165.282
164.018
162.513
160.739
158.667
156.272
153.531
150.427
146.948
143.096
138.878
134.317
129.439
124.37
169.277
169.216
169.114
169.058
169.017
168.947
168.834
168.676
168.466
168.193
167.843
167.403
166.856
166.186
165.374
164.4
163.243
161.879
160.287
158.443
156.326
153.917
151.202
148.168
144.813
141.139
137.16
132.895
128.368
123.684
168.455
168.381
168.252
168.159
168.072
167.948
167.772
167.543
167.254
166.896
166.456
165.921
165.276
164.506
163.594
162.522
161.272
159.826
158.164
156.27
154.127
151.722
149.045
146.091
142.859
139.357
135.597
131.598
127.379
123.032
167.622
167.535
167.38
167.251
167.12
166.943
166.706
166.409
166.047
165.609
165.084
164.46
163.725
162.864
161.863
160.706
159.379
157.865
156.151
154.222
152.068
149.68
147.051
144.18
141.071
137.73
134.171
130.411
126.466
122.415
166.783
166.683
166.502
166.339
166.165
165.938
165.643
165.282
164.849
164.336
163.733
163.028
162.211
161.269
160.19
158.961
157.569
156.002
154.248
152.299
150.146
147.783
145.209
142.424
139.432
136.243
132.868
129.323
125.623
121.834
165.942
165.83
165.625
165.428
165.214
164.938
164.589
164.167
163.669
163.086
162.411
161.633
160.743
159.729
158.582
157.291
155.847
154.238
152.458
150.499
148.356
146.026
143.51
140.81
137.931
134.882
131.675
128.324
124.842
121.287
165.104
164.981
164.752
164.524
164.271
163.95
163.549
163.071
162.512
161.867
161.126
160.282
159.326
158.25
157.046
155.704
154.216
152.577
150.779
148.819
146.693
144.402
141.945
139.328
136.556
133.638
130.584
127.408
124.121
120.773
164.275
164.141
163.89
163.632
163.343
162.98
162.532
162.001
161.387
160.683
159.884
158.981
157.968
156.839
155.585
154.201
152.681
151.019
149.212
147.257
145.154
142.903
140.506
137.969
135.297
132.499
129.585
126.566
123.454
120.29
163.461
163.316
163.045
162.76
162.436
162.034
161.542
160.964
160.299
159.544
158.692
157.737
156.675
155.499
154.205
152.787
151.242
149.565
147.756
145.812
143.734
141.525
139.187
136.726
134.147
131.459
128.672
125.795
122.838
119.838
162.667
162.513
162.223
161.912
161.557
161.119
160.587
159.966
159.256
158.454
157.555
156.556
155.451
154.236
152.909
151.465
149.901
148.216
146.408
144.479
142.43
140.262
137.981
135.591
133.099
130.512
127.838
125.088
122.27
119.416
161.9
161.737
161.43
161.095
160.712
160.241
159.673
159.014
158.263
157.42
156.481
155.443
154.302
153.055
151.701
150.236
148.659
146.971
145.169
143.257
141.237
139.111
136.883
134.56
132.147
129.651
127.08
124.444
121.749
119.024
161.167
160.996
160.674
160.317
159.908
159.408
158.808
158.113
157.328
156.449
155.475
154.403
153.232
151.959
150.583
149.103
147.519
145.83
144.038
142.144
140.153
138.066
135.89
133.628
131.286
128.873
126.394
123.858
121.273
118.661
160.475
160.297
159.96
159.584
159.152
158.625
157.997
157.272
156.456
155.546
154.542
153.443
152.246
150.952
149.56
148.069
146.48
144.794
143.012
141.138
139.175
137.126
134.996
132.79
130.514
128.174
125.777
123.331
120.841
118.329
159.831
159.646
159.297
158.903
158.45
157.901
157.247
156.497
155.653
154.718
153.689
152.566
151.349
150.038
148.633
147.135
145.544
143.863
142.093
140.239
138.302
136.288
134.201
132.045
129.827
127.552
125.228
122.859
120.454
118.027
159.243
159.052
158.692
158.282
157.811
157.241
156.566
155.793
154.928
153.97
152.92
151.778
150.545
149.221
147.807
146.304
144.714
143.039
141.282
139.445
137.534
135.552
133.503
131.392
129.225
127.007
124.745
122.444
120.111
117.76
158.719
158.523
158.152
157.728
157.241
156.654
155.96
155.169
154.284
153.308
152.241
151.084
149.838
148.504
147.083
145.578
143.99
142.322
140.577
138.758
136.869
134.915
132.9
130.829
128.706
126.537
124.329
122.086
119.814
117.526
158.268
158.067
157.685
157.248
156.747
156.146
155.438
154.631
153.731
152.74
151.659
150.491
149.235
147.894
146.469
144.963
143.378
141.717
139.983
138.179
136.311
134.382
132.396
130.358
128.273
126.146
123.983
121.789
119.569
117.333
157.9
157.691
157.299
156.85
156.337
155.723
155.003
154.183
153.271
152.269
151.178
150
148.738
147.392
145.965
144.459
142.877
141.223
139.499
137.709
135.857
133.949
131.987
129.977
127.922
125.829
123.702
121.547
119.368
117.173
157.625
157.406
157.001
156.543
156.021
155.399
154.669
153.84
152.919
151.909
150.81
149.626
148.359
147.01
145.582
144.077
142.499
140.851
139.136
137.357
135.52
133.629
131.687
129.699
127.669
125.603
123.505
121.381
119.235
117.075
157.46
157.212
156.789
156.323
155.796
155.168
154.432
153.597
152.671
151.655
150.553
149.365
148.095
146.745
145.317
143.814
142.239
140.595
138.885
137.115
135.287
133.407
131.478
129.504
127.491
125.442
123.363
121.258
119.132
116.991
157.442
157.141
156.694
156.22
155.689
155.056
154.316
153.477
152.548
151.53
150.426
149.238
147.968
146.618
145.192
143.692
142.121
140.483
138.78
137.017
135.198
133.327
131.409
129.446
127.445
125.409
123.343
121.253
119.142
117.016
23.4769
43.7979
67.0527
113.507
111.921
109.133
123.694
117.213
111.998
119.783
113.741
109.545
119.94
114.915
110.868
120.636
116.127
112.167
120.608
116.456
112.745
120.322
116.516
113.105
120.013
116.517
113.389
119.689
116.461
113.586
119.348
116.355
113.705
119.001
116.217
113.766
118.656
116.058
113.782
118.317
115.884
113.765
117.986
115.703
113.722
117.666
115.517
113.659
117.358
115.329
113.581
117.062
115.143
113.491
116.781
114.959
113.394
116.514
114.78
113.291
116.263
114.607
113.186
116.03
114.443
113.081
115.815
114.289
112.978
115.623
114.15
112.883
115.453
114.026
112.796
115.316
113.927
112.728
115.199
113.84
112.668
115.138
113.804
112.649
115.075
113.759
112.62
115.123
113.822
112.689
88.2645
88.646
85.4578
81.3631
76.5279
70.9841
64.8321
58.1398
50.9558
43.3347
35.3446
27.0866
18.6801
10.2586
1.96927
-6.03503
-13.5457
-20.362
-26.2703
-31.0299
-34.389
-36.1099
-36.0586
-34.4584
-31.4931
-27.2961
-22.1791
-16.4506
-10.3695
-3.81049
102.985
94.762
88.7122
83.233
77.522
71.4055
64.8733
57.9195
50.5517
42.8045
34.7362
26.4336
18.0058
9.57853
1.29399
-6.69309
-14.1884
-20.994
-26.8975
-31.6664
-35.0661
-36.843
-36.8217
-35.1278
-32.042
-27.7923
-22.5859
-16.7203
-10.4226
-3.76578
104.413
96.0566
90.2011
84.4723
78.2918
71.7905
65.0029
57.8797
50.3996
42.5849
34.4871
26.184
17.7766
9.3853
1.14907
-6.77708
-14.213
-20.9639
-26.819
-31.5488
-34.9158
-36.6924
-36.7344
-35.0628
-31.9995
-27.8006
-22.6331
-16.7444
-10.358
-3.70925
103.439
95.9554
90.1877
84.5234
78.3869
71.8718
65.0487
57.9003
50.4166
42.6218
34.5666
26.3248
17.9933
9.68898
1.54758
-6.27799
-13.6145
-20.2712
-26.0412
-30.7006
-34.0201
-35.7952
-35.9071
-34.3658
-31.3894
-27.2836
-22.2729
-16.5099
-10.2378
-3.73931
104.716
97.2111
90.7751
84.6325
78.3516
71.8441
65.0674
57.9806
50.5765
42.8806
34.9417
26.8296
18.6369
10.4768
2.4818
-5.19801
-12.3941
-18.9207
-24.5768
-29.1491
-32.4241
-34.2194
-34.4327
-33.0799
-30.2834
-26.359
-21.5684
-16.0627
-10.0341
-3.76184
106.31
99.0064
92.0542
85.3509
78.7374
72.0845
65.2807
58.2441
50.9414
43.3826
35.607
27.6767
19.6767
11.7139
3.91521
-3.57415
-10.5911
-16.9566
-22.4782
-26.9561
-30.1962
-32.0371
-32.3892
-31.2643
-28.7755
-25.1092
-20.5747
-15.4093
-9.72982
-3.7556
107.472
100.677
93.6083
86.5885
79.699
72.8506
65.9396
58.8887
51.6526
44.2211
36.6157
28.8859
21.106
13.373
5.80511
-1.46075
-8.27006
-14.4533
-19.8297
-24.2148
-27.4342
-29.346
-29.8705
-29.0135
-26.8692
-23.6009
-19.414
-14.5819
-9.30673
-3.69805
108.395
102.175
95.2694
88.1971
81.1947
74.2235
67.2102
60.1089
52.8915
45.546
38.0826
30.5372
22.9712
15.47
8.14016
1.10736
-5.48558
-11.4819
-16.7156
-21.0191
-24.237
-26.2446
-26.9707
-26.415
-24.6525
-21.8215
-18.1034
-13.6835
-8.77114
-3.56224
109.157
103.493
96.9215
90.0116
83.0783
76.121
69.0926
61.9785
54.7775
47.4929
40.1381
32.7444
25.3639
18.071
10.9599
4.14376
-2.24813
-8.07389
-13.1838
-17.4285
-20.6708
-22.8011
-23.7549
-23.5269
-22.1744
-19.8099
-16.5842
-12.6636
-8.21022
-3.38078
109.757
104.605
98.4576
91.8612
85.1546
78.3588
71.4429
64.4119
57.2869
50.0891
42.8436
35.5857
28.366
21.2523
14.3295
7.69905
1.47666
-4.21075
-9.23007
-13.4495
-16.7486
-19.0312
-20.2388
-20.3614
-19.4412
-17.5669
-14.8616
-11.4643
-7.51052
-3.12152
110.216
105.522
99.8251
93.6234
87.2508
80.7365
74.0557
67.2213
60.2667
53.2258
46.1342
39.0341
31.9787
25.0341
18.2798
11.8083
5.72411
0.140447
-4.82467
-9.05519
-12.4456
-14.911
-16.398
-16.8931
-16.4253
-15.0633
-12.9059
-10.0672
-6.65943
-2.79098
110.567
106.276
101.014
95.2328
89.2481
83.0904
76.7345
70.1933
63.5032
56.7037
49.8356
42.9457
36.0893
29.3325
22.7513
16.4321
10.4703
4.96804
0.0305443
-4.2395
-7.74895
-10.4224
-12.2105
-13.0968
-13.0997
-12.2716
-10.691
-8.45235
-5.65244
-2.39767
110.835
106.896
102.036
96.6648
91.0801
85.3105
79.3284
73.1425
66.7866
60.2999
53.7236
47.1044
40.4974
33.9667
27.585
21.4332
15.599
10.1754
5.25674
0.934802
-2.70741
-5.60206
-7.70311
-8.99149
-9.47759
-9.2005
-8.22338
-6.62592
-4.49571
-1.94055
111.036
107.404
102.907
97.9189
92.7199
87.3377
81.7422
75.9372
69.9518
63.8216
57.5847
51.2844
44.9724
38.7086
32.5608
26.6035
20.9169
15.5854
10.694
6.32494
2.55282
-0.560807
-2.97261
-4.66178
-5.63243
-5.9137
-5.55703
-4.63173
-3.2199
-1.43133
111.185
107.821
103.648
99.007
94.1655
89.1497
83.9284
78.5012
72.8921
67.1321
61.2547
55.2982
49.3088
43.3404
37.454
31.7167
26.2007
20.9816
16.1356
11.736
7.84989
4.53318
1.82653
-0.248364
-1.69112
-2.52345
-2.78812
-2.54677
-1.87763
-0.890425
111.29
108.16
104.273
99.9452
95.4276
90.7474
85.8736
80.8023
75.5534
70.1534
64.6311
59.0192
53.3579
47.694
42.0811
36.5781
31.2487
26.1593
21.3772
16.9674
12.9896
9.49399
6.51842
4.0845
2.19553
0.835203
-0.0326037
-0.463308
-0.531091
-0.341985
111.359
108.434
104.8
100.75
96.5219
92.1434
87.5839
82.8373
77.9201
72.8547
67.6658
62.3811
57.0345
51.6662
46.3222
41.0532
35.9143
30.9629
26.2575
21.8548
17.8072
14.1594
10.9457
8.18682
5.88775
4.036
2.6008
1.53246
0.761901
0.19064
111.399
108.651
105.24
101.436
97.465
93.3545
89.0751
84.6189
79.9995
75.2362
70.3499
65.3639
60.3067
55.2124
50.1198
45.0721
40.1162
35.3011
30.6768
26.2923
22.1927
18.4174
14.9968
11.95
9.28261
6.98504
5.03093
3.37623
1.95811
0.688616
111.414
108.821
105.605
102.018
98.2731
94.3988
90.3664
86.1667
81.8107
77.3151
72.6975
67.9775
63.1788
58.3301
53.4641
48.6173
43.829
39.1409
34.5952
30.2336
26.0949
22.2128
18.614
15.3157
12.3235
9.62971
7.21191
5.03151
3.03273
1.13972
111.409
108.949
105.904
102.507
98.9611
95.2938
91.4777
87.5026
83.3773
79.1161
74.7338
70.2467
65.6747
61.0416
56.375
51.7053
47.0657
42.491
38.017
33.6788
29.5093
25.5373
21.7858
18.2699
14.9948
11.9543
9.12946
6.48677
3.97764
1.53843
111.389
109.043
106.146
102.915
99.5429
96.0559
92.428
88.6482
84.7233
80.6656
76.4874
72.2023
67.8266
63.3802
58.8862
54.37
49.8593
45.3835
40.9724
36.6556
32.4608
28.4126
24.5305
20.8276
17.3086
13.9684
10.7908
7.74719
4.79575
1.88406
111.357
109.108
106.34
103.253
100.032
96.7005
93.2353
89.6241
85.8721
81.9896
77.9872
73.8756
69.6684
65.3822
61.036
56.6512
52.251
47.8598
43.5026
39.2044
34.9885
30.8756
26.8823
23.0197
19.292
15.6951
12.215
8.82746
5.49661
2.17964
111.317
109.151
106.493
103.531
100.438
97.2413
93.9155
90.4487
86.8446
83.112
79.2594
75.2958
71.232
67.0819
62.8613
58.5879
54.2812
49.9616
45.6501
41.3675
37.1336
32.9659
28.8784
24.8805
20.9758
17.1607
13.4237
9.74373
6.09034
2.42855
111.275
109.179
106.615
103.758
100.776
97.6924
94.4848
91.1404
87.6615
84.0556
80.3298
76.4909
72.5481
68.5125
64.3974
60.2176
55.9893
51.7296
47.4562
43.1867
38.9377
34.7239
30.5572
26.4457
22.3923
18.3941
14.4409
10.515
6.59006
2.63707
111.233
109.194
106.708
103.941
101.051
98.0627
94.9541
91.7119
88.3376
84.8373
81.2169
77.4819
73.6394
69.6988
65.6711
61.5687
57.4051
53.1948
48.9528
44.6938
40.4319
36.1797
31.9473
27.7415
23.5647
19.4144
15.2818
11.1516
7.00116
2.80617
111.2
109.207
106.787
104.093
101.279
98.3688
95.3412
92.1828
88.8941
85.4802
81.9459
78.2956
74.535
70.6717
66.715
62.6754
58.5643
54.394
50.1772
45.9265
41.6541
37.3705
33.0845
28.8019
24.5247
20.2505
15.9717
11.6749
7.34019
2.94587
111.169
109.213
106.844
104.209
101.455
98.6067
95.6434
92.5512
89.3301
85.9843
82.5179
78.9342
75.2378
71.4352
67.5341
63.5436
59.4734
55.3341
51.1367
46.8921
42.6109
38.3023
33.9737
29.6302
25.2736
20.9015
16.5071
12.0786
7.59858
3.04831
111.169
109.24
106.91
104.32
101.611
98.8103
95.8956
92.8536
89.6835
86.389
82.9737
79.44
75.7917
72.0343
68.1747
64.2205
60.1804
56.0637
51.8801
47.6395
43.3509
39.0226
34.6614
30.2714
25.8543
21.4077
16.9254
12.3964
7.80497
3.13245
111.158
109.245
106.941
104.381
101.704
98.9338
96.0513
93.0425
89.9062
86.6458
83.2641
79.7634
76.1469
72.4194
68.587
64.6568
60.6365
56.5347
52.3602
48.122
43.8285
39.4872
35.1041
30.6832
26.2257
21.7293
17.1879
12.591
7.92432
3.17202
111.226
109.315
107.026
104.486
101.826
99.0739
96.2092
93.2186
90.1004
86.8577
83.4933
80.0091
76.408
72.6945
68.8743
64.9542
60.9415
56.8445
52.6715
48.4311
44.1313
39.7795
35.3814
30.9408
26.4585
21.9324
17.3559
12.7176
8.00019
3.17715
)
;

boundaryField
{
    inlet
    {
        type            zeroGradient;
    }
    outlet
    {
        type            fixedValue;
        value           uniform 0;
    }
    flap
    {
        type            zeroGradient;
    }
    upperWall
    {
        type            zeroGradient;
    }
    lowerWall
    {
        type            zeroGradient;
    }
    frontAndBack
    {
        type            empty;
    }
}


// ************************************************************************* //
