/*--------------------------------*- C++ -*----------------------------------*\
| =========                 |                                                 |
| \\      /  F ield         | OpenFOAM: The Open Source CFD Toolbox           |
|  \\    /   O peration     | Version:  dev                                   |
|   \\  /    A nd           | Web:      www.OpenFOAM.org                      |
|    \\/     M anipulation  |                                                 |
\*---------------------------------------------------------------------------*/
FoamFile
{
    version     2.0;
    format      ascii;
    class       volVectorField;
    location    "2.76";
    object      Force;
}
// * * * * * * * * * * * * * * * * * * * * * * * * * * * * * * * * * * * * * //

dimensions      [1 1 -2 0 0 0 0];

internalField   uniform (0 0 0);

boundaryField
{
    inlet
    {
        type            calculated;
        value           nonuniform 0();
    }
    outlet
    {
        type            calculated;
        value           nonuniform 0();
    }
    flap
    {
        type            calculated;
        value           nonuniform List<vector> 
33
(
(3.28717 2.09211e-18 -0.20095)
(3.24286 -2.93874e-39 -0.449437)
(3.17144 -2.35099e-38 -0.679305)
(3.0701 4.73657e-21 -0.855011)
(2.94516 9.81001e-18 -0.98412)
(2.80542 -4.70198e-38 -1.07168)
(2.65964 1.74184e-17 -1.1221)
(2.5162 1.1567e-23 -1.13989)
(2.3769 -1.07442e-23 -1.13027)
(2.23902 1.65718e-17 -1.09792)
(2.09668 6.31536e-18 -1.0464)
(1.93808 -2.69988e-21 -0.976083)
(1.74655 -2.50129e-21 -0.883023)
(1.49633 9.99031e-18 -0.755677)
(1.13716 1.64557e-17 -0.574163)
(0.313551 -6.55287e-21 0.61134)
(0.184391 -5.41755e-19 0.362801)
(0.0611492 1.54715e-17 0.122823)
(-0.0101878 0 0.000629043)
(-0.0103377 -2.02908e-23 0.00141544)
(-0.0106479 1.39847e-17 0.00224534)
(-0.0112109 5.71843e-23 0.00305008)
(-0.0121406 5.08779e-23 0.00393921)
(-0.0136041 1.48853e-17 0.00502529)
(-0.0158729 4.75772e-20 0.00647207)
(-0.0193261 -2.56565e-24 0.00849776)
(-0.0243717 7.33619e-20 0.0113334)
(-0.0313543 1.58246e-17 0.015165)
(-0.0407185 1.61092e-17 0.0202753)
(-0.052676 -3.00033e-23 0.0267809)
(-0.0661638 1.99636e-19 0.0341546)
(-0.0771214 2.32484e-19 0.0403186)
(-0.0696222 -1.08627e-21 0.0371892)
)
;
    }
    upperWall
    {
        type            calculated;
        value           nonuniform 0();
    }
    lowerWall
    {
        type            calculated;
        value           uniform (0 0 0);
    }
    frontAndBack
    {
        type            empty;
    }
    procBoundary4to1
    {
        type            processor;
        value           uniform (0 0 0);
    }
    procBoundary4to2
    {
        type            processor;
        value           uniform (0 0 0);
    }
    procBoundary4to3
    {
        type            processor;
        value           uniform (0 0 0);
    }
    procBoundary4to5
    {
        type            processor;
        value           uniform (0 0 0);
    }
}


// ************************************************************************* //
