/*--------------------------------*- C++ -*----------------------------------*\
| =========                 |                                                 |
| \\      /  F ield         | OpenFOAM: The Open Source CFD Toolbox           |
|  \\    /   O peration     | Version:  dev                                   |
|   \\  /    A nd           | Web:      www.OpenFOAM.org                      |
|    \\/     M anipulation  |                                                 |
\*---------------------------------------------------------------------------*/
FoamFile
{
    version     2.0;
    format      ascii;
    class       surfaceScalarField;
    location    "0.44";
    object      phi;
}
// * * * * * * * * * * * * * * * * * * * * * * * * * * * * * * * * * * * * * //

dimensions      [0 3 -1 0 0 0 0];

internalField   nonuniform List<scalar> 
881
(
0.156544
0.114405
0.112701
0.185229
0.106809
0.193928
0.103996
0.203002
0.098604
0.0898598
0.224451
0.104439
0.229459
0.098983
0.236122
0.0919361
0.243549
0.0824268
0.069779
0.277986
0.106809
0.278384
0.0985801
0.281049
0.0892668
0.285294
0.0781762
0.290382
0.0646868
0.295629
0.0483442
0.0289202
0.338249
0.110213
0.336625
0.100199
0.33679
0.089097
0.338517
0.076445
0.341424
0.0617752
0.345089
0.0446761
0.349188
0.0248187
0.35361
0.00182764
-0.0241421
0.394143
0.11165
0.393425
0.100914
0.393647
0.0888709
0.394858
0.0752304
0.39696
0.059669
0.399762
0.0418707
0.403037
0.0215416
0.406345
-0.00148265
0.409076
-0.0268739
-0.0540567
0.438931
0.10999
0.440542
0.0992991
0.442331
0.0870775
0.444415
0.073143
0.446789
0.0572916
0.449328
0.0393297
0.451755
0.0191123
0.453578
-0.00330687
0.454248
-0.0275453
0.453316
-0.0531241
0.450401
-0.079397
-0.105616
0.470818
0.105409
0.474873
0.0952411
0.478542
0.0834054
0.481892
0.0697892
0.484899
0.0542827
0.487419
0.036807
0.489163
0.0173671
0.489706
-0.00385109
0.488639
-0.0264793
0.485624
-0.0501083
0.480419
-0.0741898
0.472881
-0.0980751
-0.121053
0.491083
0.0986954
0.497016
0.0893053
0.502199
0.0782202
0.506613
0.0653726
0.510176
0.0507176
0.51272
0.0342609
0.513982
0.0161046
0.51364
-0.0035105
0.511414
-0.0242528
0.507075
-0.0457678
0.500483
-0.0675956
0.491594
-0.0891839
0.480472
-0.109927
0.467289
-0.129203
-0.146416
0.502423
0.0907841
0.50946
0.0822659
0.515556
0.0721222
0.520616
0.0603115
0.524504
0.046827
0.527042
0.0317221
0.528005
0.0151408
0.527165
-0.00267112
0.524335
-0.0214226
0.519372
-0.0408027
0.512201
-0.0604229
0.502837
-0.0798163
0.491384
-0.0984688
0.478039
-0.115852
0.463085
-0.131456
-0.144819
0.507813
0.0824746
0.515252
0.0748258
0.521689
0.0656831
0.52698
0.0550196
0.530958
0.0428475
0.533443
0.0292367
0.534248
0.0143351
0.53321
-0.00163233
0.530202
-0.0184138
0.525135
-0.0357341
0.517976
-0.0532616
0.508766
-0.0706017
0.49762
-0.0873182
0.484734
-0.102961
0.470377
-0.117091
0.454875
-0.129309
0.438603
-0.139277
-0.146743
0.509803
0.074317
0.517141
0.0674873
0.523499
0.0593238
0.52871
0.0498075
0.5326
0.0389575
0.534994
0.0268426
0.535734
0.0135951
0.534693
-0.000590708
0.53178
-0.0155001
0.526939
-0.03089
0.520154
-0.0464745
0.511475
-0.0619185
0.501014
-0.0768521
0.488951
-0.0908908
0.475524
-0.103657
0.461028
-0.114803
0.445791
-0.12403
0.430171
-0.13111
-0.1359
0.510204
0.0666128
0.517155
0.0605359
0.523189
0.0532894
0.528137
0.0448588
0.531831
0.0352632
0.534111
0.0245634
0.534836
0.0128699
0.533901
0.000345897
0.531231
-0.0128278
0.526783
-0.0264394
0.520552
-0.0402407
0.512585
-0.0539466
0.502981
-0.0672429
0.491898
-0.0798012
0.479546
-0.0912971
0.46618
-0.101428
0.452091
-0.10993
0.43759
-0.116597
0.422996
-0.121292
-0.123942
0.510102
0.05948
0.516548
0.0540899
0.522153
0.0476844
0.52676
0.0402521
0.530214
0.0318099
0.53237
0.0224087
0.533102
0.0121388
0.532317
0.00113277
0.529948
-0.0104569
0.525957
-0.0224449
0.520339
-0.0346194
0.513135
-0.0467375
0.50443
-0.0585321
0.49436
-0.0697233
0.483103
-0.0800326
0.470883
-0.089198
0.457952
-0.0969881
0.444584
-0.103216
0.431059
-0.107753
0.417652
-0.110519
-0.111741
0.510068
0.0529318
0.515991
0.0481674
0.52115
0.0425266
0.525402
0.0360005
0.52861
0.0286031
0.530643
0.0203763
0.53139
0.0113934
0.530765
0.00176071
0.528704
-0.00839367
0.525172
-0.0189086
0.520161
-0.029604
0.513703
-0.0402743
0.50587
-0.050693
0.496777
-0.0606223
0.486577
-0.069824
0.475461
-0.0780723
0.46365
-0.085165
0.451382
-0.0909354
0.438905
-0.0952605
0.426462
-0.0980604
-0.0994988
0.510376
0.046934
0.515805
0.0427396
0.520541
0.0377921
0.524458
0.0320844
0.527435
0.0256279
0.529356
0.0184569
0.530121
0.0106309
0.529648
0.00223584
0.527879
-0.00662149
0.524779
-0.0158043
0.520339
-0.0251586
0.514581
-0.034511
0.507566
-0.0436709
0.499389
-0.0524368
0.49018
-0.0606065
0.480105
-0.0679864
0.469353
-0.0744008
0.458133
-0.0797015
0.446662
-0.0837744
0.435157
-0.0865388
-0.0881099
0.511167
0.0414357
0.516147
0.0377608
0.520499
0.0334414
0.524114
0.0284719
0.526882
0.0228616
0.528703
0.0166385
0.529485
0.00985102
0.529155
0.00256931
0.527656
-0.00511847
0.524954
-0.0130978
0.521038
-0.0212376
0.515926
-0.0293925
0.509665
-0.0374023
0.502335
-0.0450978
0.494046
-0.0523082
0.48494
-0.0588685
0.475179
-0.0646274
0.464946
-0.0694541
0.454431
-0.0732436
0.443826
-0.0759169
-0.0775506
0.512531
0.0363831
0.517112
0.0331817
0.521124
0.0294316
0.52447
0.0251283
0.527055
0.0202795
0.528788
0.0149078
0.529589
0.00905289
0.529391
0.00277201
0.528138
-0.0038619
0.5258
-0.0107543
0.522363
-0.0177951
0.51784
-0.0248626
0.512269
-0.0318233
0.505716
-0.0385354
0.498274
-0.0448558
0.490063
-0.0506453
0.481223
-0.0557743
0.471912
-0.0601282
0.462296
-0.0636118
0.452547
-0.0661493
-0.0677871
0.514547
0.0317233
0.518777
0.0289543
0.522491
0.0257209
0.525602
0.0220196
0.528027
0.0178569
0.529687
0.0132511
0.530509
0.00823465
0.530432
0.00285411
0.529405
-0.00283006
0.527397
-0.00874091
0.524396
-0.0147872
0.520408
-0.0208677
0.515465
-0.0268714
0.50962
-0.0326807
0.502952
-0.0381769
0.495562
-0.0432432
0.487571
-0.0477695
0.479114
-0.0516562
0.470338
-0.0548181
0.461392
-0.0571839
-0.0587773
0.517292
0.0274061
0.521216
0.0250325
0.524671
0.0222691
0.52758
0.0191133
0.52987
0.0155703
0.53147
0.0116551
0.532315
0.00739392
0.532349
0.0028247
0.531528
-0.00200302
0.52982
-0.00702718
0.527213
-0.0121726
0.523709
-0.0173557
0.519332
-0.0224858
0.514128
-0.0274666
0.508163
-0.0321999
0.501521
-0.0365885
0.494305
-0.0405394
0.486633
-0.0439674
0.478629
-0.0467971
0.470428
-0.0489626
-0.0504714
0.520843
0.0233834
0.524505
0.0213728
0.527739
0.0190384
0.530478
0.0163784
0.532655
0.013397
0.534208
0.0101064
0.535079
0.00652783
0.535217
0.00269166
0.534582
-0.00136204
0.533145
-0.00558344
0.530891
-0.009911
0.52782
-0.0142765
0.523952
-0.0186077
0.519323
-0.0228268
0.513988
-0.0268531
0.508019
-0.0306061
0.501503
-0.0340083
0.49454
-0.0369878
0.48724
-0.0394785
0.479719
-0.0414213
-0.042812
0.525282
0.0196092
0.528725
0.0179333
0.531774
0.0159925
0.534371
0.0137854
0.536457
0.0113155
0.537975
0.00859262
0.538875
0.00563361
0.539109
0.00246263
0.538642
-0.00088835
0.537445
-0.00437966
0.535505
-0.0079623
0.532819
-0.0115816
0.529402
-0.0151802
0.525283
-0.0186965
0.520507
-0.0220649
0.515135
-0.02522
0.509241
-0.0280983
0.50291
-0.0306395
0.496238
-0.0327875
0.489328
-0.0344898
-0.0357359
0.530699
0.0160393
0.533962
0.0146741
0.536861
0.0130967
0.539345
0.0113061
0.541359
0.00930527
0.542855
0.00710189
0.543785
0.00470907
0.544108
0.00214567
0.54379
-0.000563221
0.542804
-0.00338675
0.541138
-0.00628723
0.538787
-0.00922165
0.535763
-0.0121447
0.532086
-0.0150084
0.527796
-0.0177613
0.522942
-0.0203515
0.517588
-0.0227278
0.511808
-0.024841
0.505684
-0.026644
0.499308
-0.0280917
-0.0291699
0.537188
0.0126306
0.54031
0.0115563
0.543093
0.0103175
0.54549
0.00891367
0.547453
0.00734702
0.548936
0.00562344
0.549898
0.00375288
0.550301
0.00174955
0.550112
-0.000367638
0.549309
-0.00257553
0.547877
-0.00484591
0.545811
-0.00714586
0.543118
-0.0094406
0.539816
-0.0116939
0.535935
-0.0138669
0.531519
-0.0159199
0.526621
-0.017813
0.521305
-0.0195068
0.515645
-0.020963
0.509721
-0.0221443
-0.0230357
0.544861
0.00934078
0.547879
0.00854197
0.550578
0.00762249
0.552914
0.00658208
0.554844
0.00542235
0.556325
0.00414756
0.557319
0.00276482
0.557791
0.00128424
0.557711
-0.000280804
0.557058
-0.00191377
0.555816
-0.00359444
0.553979
-0.00529926
0.551553
-0.00700289
0.548551
-0.00867913
0.544999
-0.0103004
0.540933
-0.011838
0.5364
-0.0132621
0.531455
-0.0145428
0.526164
-0.01565
0.520597
-0.0165538
-0.0172409
0.553838
0.00612667
0.556791
0.0055926
0.559439
0.00497888
0.56174
0.0042854
0.563654
0.00351322
0.565142
0.00266512
0.566167
0.00174561
0.566698
0.000760789
0.566705
-0.000280903
0.566168
-0.0013683
0.565072
-0.00248804
0.563408
-0.00362508
0.56118
-0.00476289
0.558398
-0.00588429
0.555084
-0.00697151
0.551268
-0.0080056
0.546991
-0.00896644
0.542301
-0.00983307
0.537257
-0.0105837
0.531922
-0.0111946
-0.011647
0.564212
0.00294822
0.567135
0.00267331
0.569759
0.00235808
0.572047
0.00200252
0.573958
0.00160726
0.575454
0.00117389
0.576501
0.000705347
0.577062
0.000206549
0.577106
-0.000317298
0.576608
-0.000862142
0.575553
-0.00142266
0.57393
-0.0019918
0.571741
-0.00256156
0.568994
-0.00312356
0.565707
-0.00366913
0.561907
-0.00418878
0.557631
-0.00467226
0.552927
-0.00510873
0.547853
-0.00548688
0.542478
-0.00579463
-0.00602908
0.56453
0.567207
0.569569
0.571575
0.573188
0.574367
0.575078
0.575292
0.574982
0.574129
0.572716
0.570735
0.568186
0.565076
0.561423
0.557251
0.552598
0.54751
0.542046
0.536277
)
;

boundaryField
{
    inlet
    {
        type            calculated;
        value           nonuniform 0();
    }
    outlet
    {
        type            calculated;
        value           nonuniform List<scalar> 
15
(
0.404563
0.414238
0.423787
0.433286
0.442803
0.452402
0.462143
0.472082
0.482275
0.492766
0.503611
0.514827
0.526354
0.536887
0.530275
)
;
    }
    flap
    {
        type            calculated;
        value           nonuniform 0();
    }
    upperWall
    {
        type            calculated;
        value           nonuniform List<scalar> 
21
(
0
0
0
0
0
0
4.27248e-15
0
0
0
0
0
0
0
0
0
0
0
0
0
0
)
;
    }
    lowerWall
    {
        type            calculated;
        value           nonuniform 0();
    }
    frontAndBack
    {
        type            empty;
        value           nonuniform 0();
    }
    procBoundary2to1
    {
        type            processor;
        value           nonuniform List<scalar> 
17
(
-0.501647
-0.5025
-0.50297
-0.50352
-0.504377
-0.505667
-0.507477
-0.509886
-0.512972
-0.516817
-0.521505
-0.527126
-0.533777
-0.541568
-0.550621
-0.561031
-0.561579
)
;
    }
    procBoundary2to4
    {
        type            processor;
        value           nonuniform List<scalar> 
11
(
-0.147236
-0.177639
-0.222087
-0.280361
-0.341657
-0.395585
-0.437274
-0.466239
-0.484372
-0.494513
-0.499505
)
;
    }
    procBoundary2to5
    {
        type            processor;
        value           nonuniform List<scalar> 
34
(
-0.123718
-0.121899
0.165735
-0.107684
-0.0987871
0.211924
-0.0772032
0.250969
-0.0535949
-0.0338476
0.300553
-0.00625248
0.0197071
0.358045
0.0524097
0.410724
0.0823138
0.110811
0.445209
0.130953
0.462985
0.142392
0.161388
0.452325
0.161031
0.446882
0.155559
0.163398
0.421959
0.15156
0.414523
0.138337
0.408616
0.124848
)
;
    }
}


// ************************************************************************* //
