/*--------------------------------*- C++ -*----------------------------------*\
| =========                 |                                                 |
| \\      /  F ield         | OpenFOAM: The Open Source CFD Toolbox           |
|  \\    /   O peration     | Version:  dev                                   |
|   \\  /    A nd           | Web:      www.OpenFOAM.org                      |
|    \\/     M anipulation  |                                                 |
\*---------------------------------------------------------------------------*/
FoamFile
{
    version     2.0;
    format      ascii;
    class       volVectorField;
    location    "1.39";
    object      Force;
}
// * * * * * * * * * * * * * * * * * * * * * * * * * * * * * * * * * * * * * //

dimensions      [1 1 -2 0 0 0 0];

internalField   uniform (0 0 0);

boundaryField
{
    inlet
    {
        type            calculated;
        value           nonuniform 0();
    }
    outlet
    {
        type            calculated;
        value           nonuniform 0();
    }
    flap
    {
        type            calculated;
        value           nonuniform List<vector> 
33
(
(2.17425 2.66295e-18 -0.215666)
(2.08576 5.24087e-21 -0.514792)
(1.90599 -1.25748e-21 -0.752384)
(1.64528 -3.02359e-21 -0.885954)
(1.3599 8.32746e-18 -0.918459)
(1.08985 -1.95021e-17 -0.879702)
(0.847171 -2.13058e-38 -0.799035)
(0.637991 3.79807e-17 -0.693474)
(0.468987 -4.70198e-38 -0.578791)
(0.341827 -3.04842e-18 -0.470174)
(0.252273 -1.75059e-17 -0.377452)
(0.190327 1.40833e-17 -0.300755)
(0.142696 1.46183e-18 -0.230352)
(0.0951922 1.20282e-17 -0.151679)
(0.0355769 9.93955e-18 -0.0517318)
(0.758766 3.28456e-17 0.447782)
(0.55135 8.48845e-19 0.321627)
(0.302299 -6.9269e-21 0.178133)
(0.0553251 -1.16014e-23 -0.0055617)
(0.0556958 8.79749e-20 -0.0139893)
(0.0552535 1.79347e-19 -0.022151)
(0.0546177 -1.15176e-17 -0.0297802)
(0.0541486 1.17682e-17 -0.0370321)
(0.0539715 2.80098e-39 -0.0440915)
(0.054105 1.13016e-17 -0.0516582)
(0.0547987 1.16524e-21 -0.0604872)
(0.0563978 -1.17549e-38 -0.0710247)
(0.0590685 -2.86358e-19 -0.0834457)
(0.0630164 2.14399e-21 -0.0976004)
(0.0691899 -1.4941e-17 -0.114003)
(0.0787156 -2.18146e-21 -0.13349)
(0.0889592 1.17549e-38 -0.15107)
(0.0853053 4.07707e-17 -0.139401)
)
;
    }
    upperWall
    {
        type            calculated;
        value           nonuniform 0();
    }
    lowerWall
    {
        type            calculated;
        value           uniform (0 0 0);
    }
    frontAndBack
    {
        type            empty;
    }
    procBoundary4to1
    {
        type            processor;
        value           uniform (0 0 0);
    }
    procBoundary4to2
    {
        type            processor;
        value           uniform (0 0 0);
    }
    procBoundary4to3
    {
        type            processor;
        value           uniform (0 0 0);
    }
    procBoundary4to5
    {
        type            processor;
        value           uniform (0 0 0);
    }
}


// ************************************************************************* //
