/*--------------------------------*- C++ -*----------------------------------*\
| =========                 |                                                 |
| \\      /  F ield         | OpenFOAM: The Open Source CFD Toolbox           |
|  \\    /   O peration     | Version:  dev                                   |
|   \\  /    A nd           | Web:      www.OpenFOAM.org                      |
|    \\/     M anipulation  |                                                 |
\*---------------------------------------------------------------------------*/
FoamFile
{
    version     2.0;
    format      ascii;
    class       surfaceScalarField;
    location    "4.37";
    object      phi;
}
// * * * * * * * * * * * * * * * * * * * * * * * * * * * * * * * * * * * * * //

dimensions      [0 3 -1 0 0 0 0];

internalField   nonuniform List<scalar> 
879
(
0.0252726
-0.000110555
0.0250544
0.000208641
0.0246125
0.00043326
0.024055
0.00055003
0.0234898
0.000559311
0.023008
0.000477715
0.0226716
0.000334319
0.0225166
0.000155191
0.0225554
-3.63044e-05
0.0227732
-0.000213188
0.0231397
-0.000359823
0.0236247
-0.000476294
0.0242007
-0.000565528
0.0248421
-0.000629397
0.0255225
-0.000667047
0.0262139
-0.000676845
0.0268912
-0.000661529
0.0275397
-0.000631663
0.0281524
-0.000594735
-0.000524452
0.0267605
-0.000944856
0.0273016
-0.000341982
0.0275918
0.000134402
0.0277163
0.000417964
0.0277817
0.000488014
0.0278744
0.0003809
0.0280467
0.000159902
0.0283156
-0.000113529
0.0286778
-0.000396163
0.029127
-0.000657705
0.0296512
-0.000877376
0.0302287
-0.00104507
0.0308341
-0.00116051
0.0314442
-0.00122751
0.0320389
-0.00124846
0.0325991
-0.00122248
0.0331051
-0.00115176
0.0335435
-0.00105327
0.0339212
-0.000954489
-0.000817086
0.0227604
-0.00185841
0.0235132
-0.0011043
0.0241366
-0.000497794
0.0246392
-9.22147e-05
0.0250442
7.69054e-05
0.0253943
2.65707e-05
0.0257316
-0.000179563
0.0260848
-0.000466707
0.026461
-0.000770173
0.0268542
-0.00104645
0.0272527
-0.00126921
0.0276415
-0.00142537
0.0280045
-0.00151315
0.028326
-0.00153714
0.0285926
-0.00150187
0.0287926
-0.00140797
0.0289137
-0.00125715
0.0289501
-0.00107294
0.0289314
-0.000917972
-0.000839072
0.017399
-0.00264424
0.0180892
-0.00180402
0.0187036
-0.00112104
0.0192486
-0.000644881
0.0197187
-0.000399521
0.0201096
-0.000368759
0.0204227
-0.000495078
0.0206588
-0.000703095
0.0208208
-0.000930122
0.0209162
-0.00113762
0.0209604
-0.00130706
0.020976
-0.00143263
0.0209883
-0.00151536
0.0210192
-0.00155633
0.021081
-0.00155057
0.0211711
-0.0014837
0.0212644
-0.0013349
0.02132
-0.00111185
0.0213214
-0.000901618
-0.000844126
0.0110882
-0.0031603
0.0115608
-0.00228622
0.011982
-0.00155117
0.0123373
-0.00100805
0.0126167
-0.000685412
0.0128161
-0.00057282
0.0129426
-0.000624374
0.0130183
-0.000779301
0.0130736
-0.00098371
0.0131387
-0.00119878
0.0132361
-0.0013984
0.0133765
-0.00156492
0.0135569
-0.0016859
0.013762
-0.00174994
0.0139658
-0.00174147
0.0141355
-0.00163922
0.0142414
-0.00142544
0.014253
-0.00110692
0.0141436
-0.0007745
-0.000728302
0.00416451
-0.0032923
0.00433818
-0.00246946
0.00455404
-0.00177606
0.00479176
-0.00125385
0.00503
-0.000930369
0.0052557
-0.000803533
0.00546912
-0.000840828
0.00568099
-0.000992053
0.00590441
-0.00120576
0.00614776
-0.00143853
0.00641182
-0.0016567
0.00668964
-0.00183497
0.00696694
-0.0019536
0.00722199
-0.00199377
0.00742608
-0.00193287
0.00754464
-0.00174378
0.00754247
-0.00140806
0.00740656
-0.000954624
0.00717324
-0.000523599
-0.000442486
-0.00216091
-0.00319773
-0.00214677
-0.00249317
-0.00202361
-0.00190833
-0.0018163
-0.0014694
-0.0015574
-0.00119622
-0.00127523
-0.001091
-0.000986102
-0.00113331
-0.000695009
-0.00128437
-0.000402704
-0.00149706
-0.000110695
-0.0017273
0.000178814
-0.0019408
0.000462324
-0.00211106
0.000731621
-0.00221363
0.000969584
-0.0022208
0.00114777
-0.00209864
0.0012275
-0.00180974
0.00116798
-0.00133352
0.000954611
-0.00072503
0.000631011
-0.000182553
2.00443e-05
-0.00760315
-0.00297333
-0.00769503
-0.00241082
-0.00766309
-0.00194944
-0.00753598
-0.00160488
-0.00734652
-0.00139283
-0.00712247
-0.0013206
-0.00688087
-0.00137857
-0.00662913
-0.00153768
-0.00636999
-0.00175555
-0.00610553
-0.00198888
-0.00583864
-0.00220265
-0.00557435
-0.00236828
-0.00532295
-0.00245608
-0.00510414
-0.00242899
-0.00494914
-0.00224149
-0.00489865
-0.00184671
-0.00499521
-0.00122215
-0.00526731
-0.000436887
-0.00569749
0.000264936
0.000599875
-0.0126232
-0.00263052
-0.0128305
-0.00221297
-0.0129157
-0.00187344
-0.0129073
-0.00162178
-0.0128336
-0.0014738
-0.0127152
-0.00144482
-0.0125619
-0.00153584
-0.0123774
-0.001724
-0.0121661
-0.00196655
-0.0119355
-0.002217
-0.0116947
-0.00243875
-0.0114534
-0.00260282
-0.0112242
-0.00267676
-0.0110266
-0.00261624
-0.0108912
-0.00236508
-0.0108571
-0.00186756
-0.0109611
-0.00110348
-0.0112233
-0.000158899
-0.0116357
0.000694536
0.0011737
-0.0175647
-0.00217431
-0.0178856
-0.00190151
-0.018085
-0.00168312
-0.0181906
-0.00152469
-0.0182279
-0.00144391
-0.0182116
-0.00146706
-0.0181445
-0.00160715
-0.018026
-0.00184462
-0.0178623
-0.00213023
-0.0176673
-0.00240984
-0.0174555
-0.00264624
-0.0172367
-0.00281524
-0.0170186
-0.00288664
-0.0168149
-0.00280992
-0.0166536
-0.00251489
-0.0165765
-0.00193158
-0.0166281
-0.00103753
-0.0168347
6.32902e-05
-0.0172101
0.001087
0.00172161
-0.0225664
-0.00162746
-0.0229786
-0.00149862
-0.0232687
-0.00140209
-0.0234655
-0.00133636
-0.0235967
-0.00132017
-0.0236738
-0.00139603
-0.0236903
-0.001595
-0.0236371
-0.00190012
-0.0235195
-0.0022481
-0.0233571
-0.00257046
-0.0231687
-0.00283061
-0.0229617
-0.00301623
-0.0227359
-0.00310447
-0.0224992
-0.00303704
-0.0222799
-0.00272288
-0.0221282
-0.0020706
-0.0221012
-0.00105039
-0.0222411
0.000218648
-0.0225725
0.00143521
0.00223279
-0.0275811
-0.00103288
-0.0280463
-0.0010425
-0.0283889
-0.00106847
-0.0286402
-0.00109353
-0.0288358
-0.00113192
-0.0289862
-0.00125169
-0.0290704
-0.00151531
-0.0290632
-0.00190982
-0.0289666
-0.00234516
-0.02881
-0.00272543
-0.0286214
-0.00301555
-0.0284053
-0.00322665
-0.0281511
-0.00335107
-0.0278586
-0.00332018
-0.0275581
-0.00301243
-0.02731
-0.00230615
-0.0271872
-0.0011593
-0.0272521
0.0002988
-0.0275347
0.00173439
0.00270032
-0.0323741
-0.000448741
-0.0328463
-0.000579236
-0.0331959
-0.000727627
-0.0334559
-0.000841783
-0.0336811
-0.000914102
-0.0338855
-0.00105329
-0.0340246
-0.00138075
-0.0340445
-0.00189247
-0.0339416
-0.00244874
-0.0337647
-0.00290091
-0.0335599
-0.00321696
-0.0333276
-0.00345351
-0.0330393
-0.00363209
-0.032681
-0.00366935
-0.0322845
-0.00339831
-0.0319243
-0.00265408
-0.0316939
-0.00137607
-0.0316763
0.000296238
-0.0319065
0.00198111
0.00313062
-0.0366477
6.27794e-05
-0.0370936
-0.000141966
-0.037417
-0.000412756
-0.0376428
-0.000624092
-0.0378683
-0.000695799
-0.038125
-0.000802458
-0.038328
-0.00118223
-0.0383706
-0.00185255
-0.038238
-0.00258202
-0.0380182
-0.00311951
-0.0377924
-0.00343951
-0.0375529
-0.00368786
-0.0372383
-0.00393972
-0.0368109
-0.00408798
-0.0363044
-0.00389433
-0.0358149
-0.00313168
-0.0354618
-0.00171565
-0.0353516
0.00020087
-0.0355274
0.00217327
0.00353672
-0.0401132
0.000468352
-0.0405395
0.000275937
-0.0408281
-0.000132415
-0.0409727
-0.000487258
-0.041167
-0.00050843
-0.041496
-0.000479279
-0.0418019
-0.00088062
-0.0418775
-0.00177961
-0.0416852
-0.00277513
-0.0413911
-0.00341242
-0.0411464
-0.00368117
-0.0409236
-0.00390573
-0.0406012
-0.00425538
-0.0401018
-0.00457879
-0.0394654
-0.00452058
-0.0388217
-0.00376364
-0.0383254
-0.0021987
-0.0381099
4.12708e-08
-0.0382313
0.00231086
0.00392663
-0.0439525
0.000986933
-0.0441893
0.000696874
-0.0446683
0.000746524
-0.0449663
0.000157297
-0.0449612
-0.00050003
-0.0450699
-0.000406675
-0.0455368
-1.81157e-05
-0.0460534
-0.000368308
-0.0461962
-0.00163954
-0.0458766
-0.00309548
-0.0454367
-0.00385127
-0.0451771
-0.00393769
-0.0450173
-0.00406061
-0.0447141
-0.00455175
-0.0441196
-0.00516468
-0.0432946
-0.00533526
-0.0424339
-0.00461241
-0.0417455
-0.00287356
-0.0413963
-0.000334078
-0.0414664
0.00239765
0.00433808
-0.0468916
-0.0462889
-0.0469061
0.00135544
-0.0474328
0.000676036
-0.0472187
-0.000721615
-0.0470597
-0.000572327
-0.0477696
0.000686286
-0.0487007
0.0005586
-0.0489711
-0.00137166
-0.0484004
-0.00366692
-0.0476935
-0.00455707
-0.0474588
-0.00416938
-0.0474787
-0.00403578
-0.0472715
-0.00475214
-0.046572
-0.00585556
-0.0455
-0.00639686
-0.0443671
-0.00573331
-0.0434496
-0.00377736
-0.042942
-0.000826407
-0.0429559
0.00242849
0.00478526
-0.0462025
-0.0483572
-0.0479741
-0.00111175
-0.0468731
-0.00167969
-0.0480657
0.00187366
-0.0498144
0.00230341
-0.0503659
-0.000822549
-0.0493498
-0.00468365
-0.0481405
-0.00576516
-0.0480472
-0.00425962
-0.0484943
-0.00358377
-0.0485155
-0.00472405
-0.0476694
-0.00669298
-0.046241
-0.00781482
-0.0447602
-0.00720202
-0.043583
-0.0049407
-0.0428999
-0.00149402
-0.04286
0.00240574
0.00532211
-0.0426824
-0.0406575
-0.0037106
-0.0440414
0.00525262
-0.047817
0.00607544
-0.0491349
0.000493253
-0.0474437
-0.00637529
-0.0454958
-0.00771172
-0.0460592
-0.00369296
-0.0474797
-0.00215824
-0.0479332
-0.00426372
-0.0468199
-0.0077975
-0.0448546
-0.0097696
-0.0429572
-0.00908708
-0.0415442
-0.00633973
-0.0407077
-0.00231477
-0.0406285
0.00234391
0.00604181
-0.0142502
-0.0287192
-0.0361979
0.0135509
-0.0380365
0.0023301
-0.0362706
-0.0081413
-0.0365247
-0.00745609
-0.0400037
-0.00021061
-0.0432643
0.00110754
-0.0442224
-0.00329859
-0.0425458
-0.00946526
-0.0399765
-0.0123283
-0.0378565
-0.0111947
-0.0364668
-0.0077152
-0.035626
-0.00313955
-0.0355313
0.00226695
0.00711707
0.0638836
0.0420428
0.0139494
0.0199523
-0.0104753
0.0169705
-0.024076
0.0133937
-0.0287528
0.00578966
-0.0279464
-0.00409781
-0.0264392
-0.0109634
-0.0261023
-0.0126543
-0.0263428
-0.0109415
-0.0266066
-0.00743701
-0.0264881
-0.00324182
-0.0264133
0.00221024
0.00895295
0.125077
0.109693
0.0323561
0.0961217
0.0269691
0.0814969
0.02042
0.0628792
0.0145273
0.0417372
0.0101878
0.0220696
0.0070243
0.00676443
0.00437658
-0.00283734
0.00217947
-0.00750784
0.00144523
-0.00876793
0.00348873
0.0131543
0.200808
0.187567
0.173661
0.0343316
0.159126
0.0290701
0.144209
0.0251144
0.128928
0.0223167
0.113016
0.0203011
0.0961721
0.0190388
0.078745
0.0188892
0.0619459
0.0203066
0.0259149
0.253948
0.240672
0.0423544
0.226954
0.0388417
0.212841
0.0364412
0.19818
0.0349765
0.182825
0.0344089
0.166883
0.034848
0.150798
0.036411
0.0392312
0.312022
0.300062
0.287701
0.048814
0.274916
0.0477754
0.261699
0.0476412
0.248201
0.0483642
0.234871
0.0497601
0.0513117
0.353056
0.34254
0.0583059
0.331757
0.0584401
0.320872
0.0592671
0.310176
0.0604767
0.06152
0.40043
0.392192
0.383901
0.067577
0.3757
0.0686981
0.0696257
0.437024
0.431213
0.07453
0.0755651
0.477048
0.0793799
)
;

boundaryField
{
    inlet
    {
        type            calculated;
        value           nonuniform 0();
    }
    outlet
    {
        type            calculated;
        value           nonuniform List<scalar> 
30
(
0.0286956
0.0342325
0.0289721
0.0213451
0.0140463
0.00690585
0.000186802
-0.00625912
-0.0121915
-0.0177401
-0.0230658
-0.0279845
-0.0323193
-0.0359161
-0.0386039
-0.0418601
-0.0433851
-0.0433785
-0.0413295
-0.0365876
-0.0282298
-0.0129495
0.0492056
0.137502
0.222812
0.299989
0.367617
0.425297
0.473256
0.512242
)
;
    }
    flap
    {
        type            calculated;
        value           nonuniform 0();
    }
    upperWall
    {
        type            calculated;
        value           nonuniform 0();
    }
    lowerWall
    {
        type            calculated;
        value           uniform 0;
    }
    frontAndBack
    {
        type            empty;
        value           nonuniform 0();
    }
    procBoundary5to2
    {
        type            processor;
        value           nonuniform List<scalar> 
34
(
0.00136051
8.58422e-05
0.0436646
0.00388503
0.0028229
0.0436821
-0.00211842
-0.0124358
0.0229694
0.0197169
-0.0808612
0.0305252
0.0241693
-0.141665
0.0365408
-0.214103
0.0456534
0.0402138
-0.266573
0.0469618
-0.323491
0.0538314
0.0508122
-0.36323
0.0590001
-0.40848
0.0663704
0.0666939
-0.44282
0.0733928
-0.480615
0.0781188
-0.514044
0.0812066
)
;
    }
    procBoundary5to4
    {
        type            processor;
        value           nonuniform List<scalar> 
18
(
-0.0251725
-0.0259367
-0.0218573
-0.0166236
-0.0105824
-0.00404263
0.00205639
0.00736896
0.0122708
0.0170991
0.0220104
0.0269775
0.0317812
0.0361276
0.0396993
-0.000699768
0.0436571
0.0465098
)
;
    }
}


// ************************************************************************* //
