/*--------------------------------*- C++ -*----------------------------------*\
| =========                 |                                                 |
| \\      /  F ield         | OpenFOAM: The Open Source CFD Toolbox           |
|  \\    /   O peration     | Version:  dev                                   |
|   \\  /    A nd           | Web:      www.OpenFOAM.org                      |
|    \\/     M anipulation  |                                                 |
\*---------------------------------------------------------------------------*/
FoamFile
{
    version     2.0;
    format      ascii;
    class       surfaceScalarField;
    location    "4.89";
    object      meshPhi;
}
// * * * * * * * * * * * * * * * * * * * * * * * * * * * * * * * * * * * * * //

dimensions      [0 3 -1 0 0 0 0];

internalField   nonuniform List<scalar> 
881
(
-2.17298e-05
3.3749e-07
-4.26049e-05
9.85872e-07
-6.29114e-05
1.61204e-06
-8.26968e-05
2.23447e-06
-0.000101149
2.84258e-06
-0.000116996
3.40061e-06
-0.000128887
3.86251e-06
-0.000135707
4.18275e-06
-0.000136808
4.3221e-06
-0.000132103
4.25965e-06
-0.000122085
3.9988e-06
-0.000107749
3.56187e-06
-9.04449e-05
2.98859e-06
-7.16862e-05
2.33057e-06
-5.29564e-05
1.64411e-06
-3.55419e-05
9.82853e-07
-2.04155e-05
3.91607e-07
-8.17872e-06
-9.78023e-08
9.40886e-07
-4.685e-07
7.06508e-06
-7.18658e-07
-8.3059e-07
-2.15058e-05
6.69233e-07
-4.22578e-05
1.95703e-06
-6.25575e-05
3.2055e-06
-8.24364e-05
4.45166e-06
-0.000101064
5.67366e-06
-0.000117142
6.79901e-06
-0.000129285
7.73333e-06
-0.000136345
8.38271e-06
-0.00013764
8.67085e-06
-0.000133063
8.55688e-06
-0.000123094
8.04416e-06
-0.000108726
7.1762e-06
-9.13195e-05
6.0321e-06
-7.24066e-05
4.71529e-06
-5.34938e-05
3.33903e-06
-3.58906e-05
2.01144e-06
-2.05898e-05
8.23082e-07
-8.20921e-06
-1.61444e-07
1.01073e-06
-9.07504e-07
7.17188e-06
-1.41035e-06
-1.63757e-06
-2.12366e-05
9.90167e-07
-4.18235e-05
2.89939e-06
-6.20768e-05
4.75928e-06
-8.20161e-05
6.62536e-06
-0.000100798
8.46374e-06
-0.000117105
1.01644e-05
-0.000129521
1.15829e-05
-0.000136863
1.25746e-05
-0.000138418
1.30283e-05
-0.000134053
1.28837e-05
-0.000124226
1.21397e-05
-0.000109919
1.08593e-05
-9.24926e-05
9.15957e-06
-7.34903e-05
7.19489e-06
-5.44359e-05
5.13527e-06
-3.66588e-05
3.14358e-06
-2.11729e-05
1.35662e-06
-8.61603e-06
-1.27095e-07
7.55006e-07
-1.25401e-06
7.03221e-06
-2.01545e-06
-2.36677e-06
-2.09394e-05
1.29504e-06
-4.13214e-05
3.79794e-06
-6.14809e-05
6.24887e-06
-8.14312e-05
8.72115e-06
-0.000100325
1.11701e-05
-0.000116832
1.34493e-05
-0.000129514
1.53649e-05
-0.000137162
1.67236e-05
-0.000139036
1.73735e-05
-0.000134969
1.72296e-05
-0.000125389
1.62878e-05
-0.000111259
1.46274e-05
-9.3926e-05
1.2401e-05
-7.4933e-05
9.81213e-06
-5.58115e-05
7.08615e-06
-3.79041e-05
4.44012e-06
-2.22433e-05
2.05708e-06
-9.49083e-06
7.0855e-08
7.80464e-08
-1.44452e-06
6.54819e-06
-2.47569e-06
-2.96683e-06
-2.05587e-05
1.57842e-06
-4.06661e-05
4.63722e-06
-6.06866e-05
7.65069e-06
-8.06309e-05
1.07104e-05
-9.96449e-05
1.3762e-05
-0.000116386
1.66236e-05
-0.000129393
1.90511e-05
-0.000137428
2.08014e-05
-0.000139715
2.16813e-05
-0.000136048
2.15795e-05
-0.000126817
2.04848e-05
-0.000112955
1.84897e-05
-9.57911e-05
1.57785e-05
-7.68599e-05
1.26008e-05
-5.77007e-05
9.23554e-06
-3.96659e-05
5.95277e-06
-2.38059e-05
2.98121e-06
-1.08145e-05
4.90426e-07
-9.92777e-07
-1.42278e-06
5.72957e-06
-2.73821e-06
-3.38966e-06
-2.00893e-05
1.83423e-06
-3.98475e-05
5.40041e-06
-5.96787e-05
8.94126e-06
-7.95983e-05
1.25681e-05
-9.87413e-05
1.62151e-05
-0.000115749
1.96629e-05
-0.000129139
2.26175e-05
-0.00013764
2.47848e-05
-0.000140435
2.59328e-05
-0.000137273
2.59233e-05
-0.0001285
2.47317e-05
-0.000115007
2.2459e-05
-9.80965e-05
1.93167e-05
-7.92918e-05
1.5596e-05
-6.0135e-05
1.16265e-05
-4.19879e-05
7.72995e-06
-2.59202e-05
4.18165e-06
-1.26603e-05
1.18749e-06
-2.54013e-06
-1.13222e-06
4.4893e-06
-2.74825e-06
-3.58452e-06
-1.9526e-05
2.05707e-06
-3.88608e-05
6.07257e-06
-5.84534e-05
1.00975e-05
-7.83254e-05
1.42636e-05
-9.76009e-05
1.84924e-05
-0.000114901
2.25268e-05
-0.000128723
2.60252e-05
-0.000137767
2.86449e-05
-0.000141167
3.01107e-05
-0.000138622
3.02522e-05
-0.000130421
2.90291e-05
-0.00011741
2.65462e-05
-0.000100854
2.3037e-05
-8.22564e-05
1.88295e-05
-6.31559e-05
1.42998e-05
-4.49259e-05
9.81918e-06
-2.86602e-05
5.71011e-06
-1.51198e-05
2.21612e-06
-4.66814e-06
-5.17596e-07
2.71482e-06
-2.45106e-06
-3.49956e-06
-1.88601e-05
2.24202e-06
-3.76933e-05
6.63989e-06
-5.69987e-05
1.10987e-05
-7.6798e-05
1.57703e-05
-9.62037e-05
2.05627e-05
-0.000113818
2.51816e-05
-0.00012812
2.92401e-05
-0.000137778
3.23481e-05
-0.000141881
3.41836e-05
-0.000140064
3.45402e-05
-0.000132559
3.33588e-05
-0.000120154
3.0743e-05
-0.000104069
2.69423e-05
-8.5779e-05
2.23156e-05
-6.68105e-05
1.72801e-05
-4.85483e-05
1.22545e-05
-3.21148e-05
7.60925e-06
-1.8302e-05
3.62619e-06
-7.50406e-06
4.755e-07
2.65033e-07
-1.78984e-06
-3.07846e-06
-1.80835e-05
2.38387e-06
-3.63298e-05
7.08895e-06
-5.52963e-05
1.19269e-05
-7.49956e-05
1.7067e-05
-9.45244e-05
2.24011e-05
-0.00011247
2.75995e-05
-0.000127294
3.22308e-05
-0.000137634
3.58579e-05
-0.00014253
3.81128e-05
-0.000141556
3.87514e-05
-0.000134875
3.76904e-05
-0.000123211
3.5027e-05
-0.00010773
3.10208e-05
-8.98706e-05
2.60548e-05
-7.11357e-05
2.05818e-05
-5.29172e-05
1.50627e-05
-3.63729e-05
9.91435e-06
-2.23215e-05
5.45915e-06
-1.11878e-05
1.8939e-06
-3.02641e-06
-7.12516e-07
-2.26598e-06
-1.71902e-05
2.4784e-06
-3.47627e-05
7.40813e-06
-5.33358e-05
1.25631e-05
-7.29033e-05
1.81273e-05
-9.25431e-05
2.39745e-05
-0.000110829
2.974e-05
-0.000126206
3.49498e-05
-0.000137285
3.91214e-05
-0.000143057
4.18425e-05
-0.000143034
4.28312e-05
-0.000137308
4.19768e-05
-0.000126529
3.93605e-05
-0.000111801
3.52439e-05
-9.45154e-05
3.00286e-05
-7.61463e-05
2.4198e-05
-5.80833e-05
1.82518e-05
-4.15159e-05
1.26486e-05
-2.72875e-05
7.74977e-06
-1.58558e-05
3.78093e-06
-7.32522e-06
8.2927e-07
-1.01168e-06
-1.61689e-05
2.52091e-06
-3.2976e-05
7.58415e-06
-5.11018e-05
1.29885e-05
-7.05037e-05
1.89286e-05
-9.0236e-05
2.5255e-05
-0.00010886
3.15685e-05
-0.000124809
3.73553e-05
-0.000136669
4.20904e-05
-0.000143388
4.53192e-05
-0.000144418
4.67232e-05
-0.000139775
4.61613e-05
-0.000130029
4.36896e-05
-0.000116213
3.95644e-05
-9.9662e-05
3.41998e-05
-8.1816e-05
2.8103e-05
-6.40576e-05
2.18081e-05
-4.75901e-05
1.58117e-05
-3.32831e-05
1.05123e-05
-2.1628e-05
6.16589e-06
-1.27774e-05
2.87827e-06
7.33121e-07
-1.50057e-05
2.50712e-06
-3.09485e-05
7.6065e-06
-4.85752e-05
1.31904e-05
-6.7777e-05
1.94561e-05
-8.75754e-05
2.62233e-05
-0.000106523
3.3059e-05
-0.000123047
3.94133e-05
-0.000135712
4.47221e-05
-0.000143432
4.84916e-05
-0.000145603
5.0366e-05
-0.000142163
5.01721e-05
-0.000133597
4.79411e-05
-0.000120859
4.39148e-05
-0.000105218
3.85089e-05
-8.80729e-05
3.22485e-05
-7.0795e-05
2.56982e-05
-5.45834e-05
1.93867e-05
-4.03283e-05
1.37436e-05
-2.85607e-05
9.05606e-06
-1.94714e-05
5.45354e-06
2.99851e-06
-1.36865e-05
2.43338e-06
-2.86635e-05
7.4667e-06
-4.5744e-05
1.31584e-05
-6.47089e-05
1.96969e-05
-8.45391e-05
2.68605e-05
-0.000103782
3.41843e-05
-0.000120864
4.10857e-05
-0.000134339
4.69664e-05
-0.000143091
5.12967e-05
-0.000146465
5.36848e-05
-0.000144329
5.39261e-05
-0.00013708
5.20266e-05
-0.000125585
4.82072e-05
-0.000111035
4.28751e-05
-9.4782e-05
3.65637e-05
-7.81766e-05
2.98597e-05
-6.24065e-05
2.33231e-05
-4.83646e-05
1.74125e-05
-3.6611e-05
1.24376e-05
-2.73745e-05
8.54918e-06
5.78244e-06
-1.21942e-05
2.29605e-06
-2.61017e-05
7.15641e-06
-4.26013e-05
1.28852e-05
-6.12917e-05
1.96441e-05
-8.1111e-05
2.71548e-05
-0.000100605
3.49231e-05
-0.000118208
4.23393e-05
-0.00013247
4.87755e-05
-0.000142254
5.36707e-05
-0.000146864
5.66014e-05
-0.000146103
5.73334e-05
-0.000140283
5.58451e-05
-0.00013018
5.23315e-05
-0.0001169
4.71864e-05
-0.000101733
4.09439e-05
-8.59934e-05
3.42004e-05
-7.08521e-05
2.75368e-05
-5.72022e-05
2.144e-05
-4.5606e-05
1.62452e-05
-3.62995e-05
1.21143e-05
9.03813e-06
-1.06993e-05
-2.33616e-05
-3.91273e-05
1.24099e-05
-5.75126e-05
1.92912e-05
-7.72674e-05
2.71003e-05
-9.69493e-05
3.52628e-05
-0.00011501
4.31522e-05
-0.000130007
5.01165e-05
-0.000140793
5.55673e-05
-0.00014664
5.90555e-05
-0.000147295
6.03202e-05
-0.00014299
5.93125e-05
-0.000134404
5.61987e-05
-0.000122551
5.13498e-05
-0.000108654
4.52912e-05
-9.39749e-05
3.86266e-05
-7.96408e-05
3.19471e-05
-6.65387e-05
2.57525e-05
-5.52329e-05
2.04014e-05
-4.59211e-05
1.60712e-05
1.26932e-05
-3.67947e-05
-5.53539e-05
1.868e-05
-7.57505e-05
2.66744e-05
-9.63033e-05
3.5189e-05
-0.000115445
4.35071e-05
-0.000131703
5.09652e-05
-0.000143884
5.69562e-05
-0.000151213
6.101e-05
-0.000153377
6.28426e-05
-0.00015054
6.23754e-05
-0.000143305
5.97474e-05
-0.000132623
5.53031e-05
-0.000119675
4.95438e-05
-0.000105707
4.30664e-05
-9.18373e-05
3.64721e-05
-7.89393e-05
3.02685e-05
-6.7593e-05
2.48223e-05
-5.79643e-05
2.03257e-05
1.66526e-05
-5.18791e-05
-7.24047e-05
2.59207e-05
-9.35043e-05
3.46691e-05
-0.000113409
4.33729e-05
-0.000130669
5.12834e-05
-0.000144076
5.77909e-05
-0.000152815
6.24064e-05
-0.000156535
6.48248e-05
-0.000155323
6.49419e-05
-0.0001497
6.28659e-05
-0.000140531
5.89121e-05
-0.000128909
5.3555e-05
-0.000116022
4.73664e-05
-0.000102961
4.09404e-05
-9.05629e-05
3.47961e-05
-7.93826e-05
2.93071e-05
-6.95732e-05
2.46742e-05
2.07286e-05
-6.83803e-05
-8.97851e-05
3.37487e-05
-0.00011038
4.27163e-05
-0.000128565
5.10342e-05
-0.000143139
5.80211e-05
-0.000153256
6.31738e-05
-0.00015853
6.61713e-05
-0.000158979
6.68916e-05
-0.000155033
6.54097e-05
-0.000147471
6.20037e-05
-0.000137294
5.71183e-05
-0.000125592
5.12978e-05
-0.000113404
4.51121e-05
-0.000101539
3.90766e-05
-9.05262e-05
3.35758e-05
-8.0549e-05
2.88317e-05
2.46862e-05
-8.51962e-05
-0.000106252
4.15765e-05
-0.000125266
5.01988e-05
-0.000140898
5.76175e-05
-0.000152292
6.32557e-05
-0.000159056
6.67998e-05
-0.000161128
6.81159e-05
-0.000158843
6.72397e-05
-0.000152886
6.44105e-05
-0.000144163
6.0034e-05
-0.000133662
5.46252e-05
-0.000122331
4.87257e-05
-0.00011094
4.283e-05
-0.000100008
3.73242e-05
-8.97939e-05
3.24536e-05
2.80966e-05
-0.000100995
-0.000120659
4.87985e-05
-0.000137208
5.65727e-05
-0.00014969
6.26252e-05
-0.000157802
6.66495e-05
-0.000161381
6.85261e-05
-0.00016065
6.82355e-05
-0.000156202
6.59761e-05
-0.000148838
6.21123e-05
-0.000139448
5.71252e-05
-0.000128875
5.15255e-05
-0.000117824
4.5778e-05
-0.000106782
4.02538e-05
-9.60262e-05
3.51925e-05
3.04404e-05
-0.000114564
-0.000131886
-0.000145252
6.12406e-05
-0.00015449
6.56888e-05
-0.000159389
6.80633e-05
-0.000160005
6.83077e-05
-0.000156876
6.65729e-05
-0.00015068
6.31903e-05
-0.000142221
5.86023e-05
-0.000132245
5.32914e-05
-0.000121368
4.76888e-05
-0.000110011
4.214e-05
-9.83698e-05
3.68651e-05
3.16759e-05
-0.000138656
-0.000148919
6.38378e-05
-0.000154882
6.67224e-05
-0.000156542
6.74135e-05
-0.000154467
6.61223e-05
-0.000149151
6.31524e-05
-0.000141391
5.89073e-05
-0.000131836
5.38628e-05
-0.000121
4.84061e-05
-0.000109235
4.28524e-05
-9.66779e-05
3.74153e-05
3.19287e-05
-0.000140455
-0.000147469
-0.00015006
6.54637e-05
-0.000148714
6.46434e-05
-0.000143885
6.19583e-05
-0.000136577
5.79576e-05
-0.000127283
5.31517e-05
-0.000116409
4.78458e-05
-0.000104274
4.23234e-05
-9.10198e-05
3.67996e-05
3.1142e-05
-0.00013984
-0.000139315
-0.000134752
5.95279e-05
-0.000127595
5.5762e-05
-0.00011842
5.11352e-05
-0.00010746
4.59814e-05
-9.50489e-05
4.05249e-05
-8.13619e-05
3.49901e-05
2.92778e-05
-0.000121404
-0.000114425
5.21877e-05
-0.000105237
4.78704e-05
-9.41214e-05
4.28422e-05
-8.15348e-05
3.74646e-05
-6.76358e-05
3.19771e-05
2.62981e-05
-9.66025e-05
-8.76666e-05
-7.64807e-05
3.84278e-05
-6.37556e-05
3.32157e-05
-4.97607e-05
2.77787e-05
2.21797e-05
-5.42643e-05
-4.16623e-05
-2.76874e-05
2.23907e-05
1.69494e-05
-1.15509e-06
)
;

boundaryField
{
    inlet
    {
        type            calculated;
        value           uniform 0;
    }
    outlet
    {
        type            calculated;
        value           nonuniform 0();
    }
    flap
    {
        type            calculated;
        value           nonuniform 0();
    }
    upperWall
    {
        type            calculated;
        value           nonuniform 0();
    }
    lowerWall
    {
        type            calculated;
        value           uniform 0;
    }
    frontAndBack
    {
        type            empty;
        value           nonuniform 0();
    }
    procBoundary3to0
    {
        type            processor;
        value           nonuniform List<scalar> 
34
(
2.17144e-06
6.79544e-06
2.16357e-05
1.19095e-05
3.4016e-05
1.80119e-05
4.83782e-05
2.50433e-05
6.40993e-05
3.25899e-05
7.99856e-05
4.00412e-05
9.46151e-05
4.67675e-05
5.48005e-05
0.000124411
5.88346e-05
0.000129059
6.05422e-05
6.41283e-05
0.000135947
6.16526e-05
6.16882e-05
0.000125123
5.52349e-05
0.000102657
4.65377e-05
4.30319e-05
6.4925e-05
3.2162e-05
2.75413e-05
1.46922e-05
1.54198e-05
1.04275e-05
)
;
    }
    procBoundary3to1
    {
        type            processor;
        value           nonuniform List<scalar> 9(-8.38912e-05 -8.46168e-05 -8.15398e-05 -7.51213e-05 -6.51665e-05 -5.14937e-05 -3.38917e-05 -1.21954e-05 1.37838e-05);
    }
    procBoundary3to4
    {
        type            processor;
        value           nonuniform List<scalar> 
19
(
9.86305e-06
1.0018e-05
9.98126e-06
9.65636e-06
9.05335e-06
8.08826e-06
6.64801e-06
4.58834e-06
1.73643e-06
-2.08697e-06
-7.03311e-06
-1.31916e-05
-2.05347e-05
-2.88631e-05
-3.7833e-05
-4.88452e-05
-5.95298e-05
-6.98259e-05
-7.86183e-05
)
;
    }
}


// ************************************************************************* //
