/*--------------------------------*- C++ -*----------------------------------*\
| =========                 |                                                 |
| \\      /  F ield         | OpenFOAM: The Open Source CFD Toolbox           |
|  \\    /   O peration     | Version:  dev                                   |
|   \\  /    A nd           | Web:      www.OpenFOAM.org                      |
|    \\/     M anipulation  |                                                 |
\*---------------------------------------------------------------------------*/
FoamFile
{
    version     2.0;
    format      ascii;
    class       volVectorField;
    location    "0.2";
    object      cellDisplacement;
}
// * * * * * * * * * * * * * * * * * * * * * * * * * * * * * * * * * * * * * //

dimensions      [0 1 0 0 0 0 0];

internalField   nonuniform List<vector> 
465
(
(0.0102057 0 5.85075e-05)
(0.0104202 0 5.93221e-05)
(0.0105628 0 5.87534e-05)
(0.0106377 0 5.72465e-05)
(0.0106472 0 5.51074e-05)
(0.0105923 0 5.25468e-05)
(0.0104723 0 4.97093e-05)
(0.0102855 0 4.66927e-05)
(0.0100292 0 4.35612e-05)
(0.00969942 0 4.03547e-05)
(0.00929138 0 3.70939e-05)
(0.00879929 0 3.3785e-05)
(0.00821635 0 3.04222e-05)
(0.00753477 0 2.69884e-05)
(0.00674568 0 2.34566e-05)
(0.0058391 0 1.97889e-05)
(0.00480388 0 1.59359e-05)
(0.00362764 0 1.18348e-05)
(0.00229677 0 7.40651e-06)
(0.000796107 0 2.55152e-06)
(0.0102887 0 0.000176647)
(0.0104838 0 0.000178447)
(0.0106119 0 0.000176361)
(0.0106759 0 0.000171622)
(0.0106771 0 0.000165084)
(0.0106158 0 0.000157343)
(0.0104908 0 0.000148808)
(0.0103001 0 0.000139757)
(0.0100407 0 0.000130376)
(0.00970842 0 0.000120777)
(0.0092984 0 0.00011102)
(0.00880473 0 0.00010112)
(0.00822053 0 9.10587e-05)
(0.00753794 0 8.07847e-05)
(0.00674805 0 7.02163e-05)
(0.00584083 0 5.92401e-05)
(0.00480511 0 4.7708e-05)
(0.00362848 0 3.54317e-05)
(0.00229727 0 2.2175e-05)
(0.000796279 0 7.63946e-06)
(0.0104467 0 0.000298016)
(0.0106057 0 0.000299023)
(0.0107067 0 0.000294357)
(0.01075 0 0.000285762)
(0.0107354 0 0.000274476)
(0.0106618 0 0.000261373)
(0.0105271 0 0.000247064)
(0.0103288 0 0.00023197)
(0.0100633 0 0.000216367)
(0.00972624 0 0.000200426)
(0.00931234 0 0.000184236)
(0.00881556 0 0.000167815)
(0.00822886 0 0.000151128)
(0.00754427 0 0.000134088)
(0.00675278 0 0.000116556)
(0.00584431 0 9.83437e-05)
(0.00480758 0 7.92055e-05)
(0.00363015 0 5.88284e-05)
(0.00229826 0 3.682e-05)
(0.000796616 0 1.26854e-05)
(0.0106655 0 0.000424049)
(0.0107762 0 0.000421778)
(0.0108404 0 0.000413006)
(0.0108554 0 0.000399639)
(0.0108187 0 0.000383075)
(0.0107278 0 0.000364328)
(0.0105795 0 0.000344119)
(0.0103703 0 0.000322951)
(0.0100961 0 0.000301157)
(0.00975208 0 0.000278942)
(0.00933258 0 0.000256406)
(0.00883128 0 0.000233564)
(0.00824095 0 0.000210356)
(0.00755345 0 0.000186655)
(0.00675964 0 0.000162266)
(0.00584932 0 0.000136926)
(0.00481113 0 0.00011029)
(0.00363253 0 8.19227e-05)
(0.00229966 0 5.12782e-05)
(0.000797088 0 1.76675e-05)
(0.0109277 0 0.000555006)
(0.0109835 0 0.000546813)
(0.0110048 0 0.000532261)
(0.0109861 0 0.000513091)
(0.0109228 0 0.000490642)
(0.0108108 0 0.000465919)
(0.0106456 0 0.000439658)
(0.0104229 0 0.000412381)
(0.0101379 0 0.000384433)
(0.00978501 0 0.000356026)
(0.00935839 0 0.000327252)
(0.00885133 0 0.000298111)
(0.00825635 0 0.000268511)
(0.00756512 0 0.000238282)
(0.00676833 0 0.000207172)
(0.00585564 0 0.000174839)
(0.00481559 0 0.000140842)
(0.0036355 0 0.000104626)
(0.00230138 0 6.54943e-05)
(0.000797664 0 2.25667e-05)
(0.0112151 0 0.0006899)
(0.0112145 0 0.000673496)
(0.0111905 0 0.000651655)
(0.0111354 0 0.000625724)
(0.0110428 0 0.000596815)
(0.0109071 0 0.000565804)
(0.0107229 0 0.000533355)
(0.0104847 0 0.000499948)
(0.010187 0 0.000465901)
(0.00982387 0 0.000431402)
(0.00938889 0 0.000396521)
(0.00887504 0 0.000361224)
(0.00827455 0 0.000325386)
(0.00757888 0 0.000288787)
(0.00677854 0 0.000251114)
(0.00586304 0 0.000211948)
(0.00482077 0 0.000170755)
(0.00363891 0 0.00012686)
(0.00230335 0 7.94181e-05)
(0.000798314 0 2.73657e-05)
(0.0115109 0 0.000826728)
(0.0114568 0 0.000800528)
(0.0113882 0 0.000770291)
(0.0112964 0 0.000736874)
(0.0111736 0 0.000701068)
(0.011013 0 0.000663543)
(0.0108083 0 0.000624827)
(0.0105533 0 0.000585312)
(0.0102418 0 0.000545255)
(0.00986737 0 0.000504795)
(0.00942309 0 0.000463961)
(0.00890162 0 0.00042268)
(0.00829494 0 0.000380781)
(0.00759426 0 0.000337993)
(0.0067899 0 0.000293939)
(0.00587121 0 0.000248126)
(0.00482644 0 0.000199926)
(0.00364262 0 0.000148547)
(0.00230546 0 9.30017e-05)
(0.000799007 0 3.20478e-05)
(0.0118009 0 0.000962852)
(0.0116991 0 0.000926126)
(0.0115894 0 0.000886923)
(0.0114625 0 0.000845633)
(0.01131 0 0.00080271)
(0.0111245 0 0.000758585)
(0.010899 0 0.00071362)
(0.0106266 0 0.000668087)
(0.0103006 0 0.000622158)
(0.00991414 0 0.000575909)
(0.00945991 0 0.000529313)
(0.00893024 0 0.000482248)
(0.00831685 0 0.000434493)
(0.00761073 0 0.000385722)
(0.006802 0 0.000335496)
(0.00587986 0 0.000283246)
(0.00483238 0 0.000228252)
(0.00364646 0 0.000169611)
(0.00230762 0 0.000106198)
(0.000799709 0 3.65968e-05)
(0.0120743 0 0.00109541)
(0.0119324 0 0.00104825)
(0.0117865 0 0.00100008)
(0.0116276 0 0.000950912)
(0.0114473 0 0.000900912)
(0.0112379 0 0.000850281)
(0.0109919 0 0.000799207)
(0.0107022 0 0.000747835)
(0.0103615 0 0.000696241)
(0.00996272 0 0.000644424)
(0.00949821 0 0.000592297)
(0.00896 0 0.000539684)
(0.00833958 0 0.000486309)
(0.00762773 0 0.000431791)
(0.00681441 0 0.000375628)
(0.00588863 0 0.000317177)
(0.00483833 0 0.000255629)
(0.00365024 0 0.000189976)
(0.00230972 0 0.000118958)
(0.000800385 0 4.09961e-05)
(0.0123234 0 0.00122167)
(0.0121496 0 0.00116486)
(0.0119734 0 0.00110822)
(0.0117866 0 0.00105155)
(0.0115812 0 0.000994779)
(0.0113496 0 0.000937925)
(0.0110842 0 0.000881022)
(0.0107777 0 0.00082409)
(0.0104227 0 0.000767111)
(0.0100117 0 0.000710007)
(0.00953682 0 0.000652627)
(0.00898997 0 0.000594739)
(0.00836239 0 0.000536014)
(0.00764469 0 0.000476014)
(0.00682666 0 0.000414176)
(0.00589718 0 0.000349787)
(0.00484403 0 0.000281953)
(0.00365379 0 0.000209564)
(0.00231165 0 0.000131235)
(0.000800998 0 4.52293e-05)
(0.0125437 0 0.00133929)
(0.0123459 0 0.00127409)
(0.0121454 0 0.0012099)
(0.0119351 0 0.00114641)
(0.011708 0 0.00108343)
(0.0114565 0 0.00102082)
(0.0111733 0 0.000958498)
(0.0108511 0 0.000896387)
(0.0104824 0 0.000834379)
(0.0100595 0 0.000772327)
(0.00957459 0 0.00071002)
(0.00901922 0 0.00064717)
(0.00838453 0 0.000583396)
(0.00766099 0 0.00051821)
(0.00683827 0 0.000450987)
(0.00590512 0 0.000380949)
(0.00484918 0 0.000307123)
(0.0036569 0 0.000228302)
(0.00231329 0 0.000142983)
(0.000801505 0 4.92804e-05)
(0.0127329 0 0.00144648)
(0.0125182 0 0.00137443)
(0.0122993 0 0.00130389)
(0.0120702 0 0.00123452)
(0.0118248 0 0.00116606)
(0.011556 0 0.00109832)
(0.011257 0 0.00103112)
(0.0109205 0 0.000964297)
(0.010539 0 0.000897689)
(0.010105 0 0.000831082)
(0.00961043 0 0.000764215)
(0.00904684 0 0.000696752)
(0.00840525 0 0.000628263)
(0.00767604 0 0.000558211)
(0.00684876 0 0.000485919)
(0.00591207 0 0.000410545)
(0.0048535 0 0.000331045)
(0.00365936 0 0.000246119)
(0.00231449 0 0.000154156)
(0.000801862 0 5.31345e-05)
(0.012891 0 0.00154201)
(0.0126654 0 0.0014648)
(0.0124332 0 0.00138925)
(0.0121897 0 0.00131508)
(0.0119294 0 0.00124204)
(0.0116462 0 0.0011699)
(0.0113334 0 0.00109844)
(0.0109841 0 0.00102746)
(0.0105912 0 0.000956733)
(0.0101469 0 0.000886012)
(0.00964332 0 0.000814991)
(0.00907198 0 0.000743292)
(0.00842385 0 0.000670447)
(0.00768924 0 0.000595875)
(0.00685765 0 0.00051885)
(0.00591764 0 0.000438474)
(0.00485668 0 0.000353635)
(0.00366094 0 0.000262954)
(0.00231514 0 0.000164719)
(0.000802021 0 5.67783e-05)
(0.0130189 0 0.00162518)
(0.0127873 0 0.0015445)
(0.0125463 0 0.00146535)
(0.0122923 0 0.00138755)
(0.0120205 0 0.00131089)
(0.0117254 0 0.00123516)
(0.0114011 0 0.00116013)
(0.0110408 0 0.00108558)
(0.0106377 0 0.00101126)
(0.0101841 0 0.000936901)
(0.00967234 0 0.000862158)
(0.00909386 0 0.000786627)
(0.00843967 0 0.000709806)
(0.00770005 0 0.000631076)
(0.00686448 0 0.000549671)
(0.00592147 0 0.000464644)
(0.00485842 0 0.000374823)
(0.00366143 0 0.000278754)
(0.00231508 0 0.000174635)
(0.000801934 0 6.02e-05)
(0.0131184 0 0.0016957)
(0.0128846 0 0.00161318)
(0.0126386 0 0.00153181)
(0.0123773 0 0.00145156)
(0.012097 0 0.00137227)
(0.0117927 0 0.00129379)
(0.0114589 0 0.00121591)
(0.0110894 0 0.00113842)
(0.0106775 0 0.00106108)
(0.0102158 0 0.000983572)
(0.00969668 0 0.000905562)
(0.00911176 0 0.000826619)
(0.00845208 0 0.000746217)
(0.00770794 0 0.000663708)
(0.00686881 0 0.000578292)
(0.00592318 0 0.000488978)
(0.00485844 0 0.000394544)
(0.00366061 0 0.000293471)
(0.00231418 0 0.000183875)
(0.000801551 0 6.33888e-05)
(0.0134127 0 0.00183831)
(0.0131935 0 0.00175498)
(0.0129603 0 0.00167205)
(0.0127119 0 0.00158973)
(0.0124462 0 0.0015081)
(0.0121598 0 0.00142711)
(0.0118485 0 0.00134667)
(0.0115071 0 0.00126663)
(0.0111299 0 0.00118679)
(0.0107104 0 0.00110692)
(0.0102416 0 0.00102673)
(0.009716 0 0.000945858)
(0.00912532 0 0.000863874)
(0.0084607 0 0.000780233)
(0.0077125 0 0.000694266)
(0.00687024 0 0.000605144)
(0.00592242 0 0.000511844)
(0.00485641 0 0.000413094)
(0.00365822 0 0.000307324)
(0.00231226 0 0.000192576)
(0.000800806 0 6.63916e-05)
(0.0134598 0 0.00188533)
(0.013246 0 0.00180366)
(0.0130152 0 0.0017216)
(0.0127668 0 0.00163945)
(0.0124989 0 0.00155744)
(0.0122086 0 0.00147563)
(0.0118922 0 0.00139399)
(0.0115449 0 0.00131244)
(0.0111614 0 0.00123082)
(0.0107356 0 0.00114893)
(0.0102607 0 0.0010665)
(0.00972946 0 0.000983174)
(0.00913371 0 0.000898511)
(0.00846475 0 0.000811964)
(0.00771302 0 0.000722848)
(0.00686812 0 0.000630316)
(0.00591859 0 0.000533313)
(0.00485183 0 0.000430532)
(0.00365385 0 0.000320354)
(0.00230905 0 0.000200761)
(0.000799599 0 6.92163e-05)
(0.0130501 0 0.00176176)
(0.0128032 0 0.00168072)
(0.0125349 0 0.0015992)
(0.0122425 0 0.00151734)
(0.0119227 0 0.00143521)
(0.0115711 0 0.00135279)
(0.0111827 0 0.00126997)
(0.0107519 0 0.00118658)
(0.010272 0 0.00110237)
(0.00973599 0 0.00101701)
(0.00913599 0 0.000930056)
(0.00846338 0 0.00084097)
(0.00770876 0 0.000749055)
(0.00686181 0 0.000653449)
(0.00591116 0 0.000553077)
(0.00484427 0 0.000446604)
(0.0036472 0 0.000332369)
(0.00230434 0 0.000208308)
(0.000797858 0 7.182e-05)
(0.0125543 0 0.00163347)
(0.0122613 0 0.00155225)
(0.0119395 0 0.00147025)
(0.011585 0 0.00138754)
(0.0111931 0 0.00130404)
(0.0107584 0 0.00121964)
(0.0102746 0 0.00113411)
(0.00973479 0 0.00104714)
(0.00913136 0 0.0009583)
(0.00845587 0 0.00086705)
(0.00769906 0 0.000772698)
(0.00685073 0 0.000674373)
(0.00589963 0 0.000570987)
(0.00483332 0 0.000461183)
(0.00363793 0 0.000343273)
(0.00229793 0 0.000215155)
(0.000795506 0 7.41806e-05)
(0.0122649 0 0.00158041)
(0.0119423 0 0.00149908)
(0.0115862 0 0.00141659)
(0.011192 0 0.00133291)
(0.0107545 0 0.00124797)
(0.0102678 0 0.00116156)
(0.00972511 0 0.00107338)
(0.00911913 0 0.000983048)
(0.00844156 0 0.000890016)
(0.0076833 0 0.000793599)
(0.00683433 0 0.000692924)
(0.00588353 0 0.000586898)
(0.00481858 0 0.000474149)
(0.00362574 0 0.000352973)
(0.0022896 0 0.000221241)
(0.000792475 0 7.62768e-05)
(0.0115743 0 0.0014399)
(0.0111788 0 0.00135647)
(0.0107396 0 0.00127142)
(0.0102509 0 0.00118453)
(0.00970635 0 0.00109556)
(0.00909867 0 0.00100412)
(0.00841984 0 0.000909692)
(0.00766094 0 0.000811589)
(0.00681211 0 0.000708947)
(0.00586241 0 0.00060067)
(0.00479968 0 0.000485385)
(0.00361036 0 0.000361377)
(0.0022792 0 0.000226508)
(0.000788703 0 7.80882e-05)
(0.0107133 0 0.00128987)
(0.0102236 0 0.00120292)
(0.00967799 0 0.00111353)
(0.00906949 0 0.00102137)
(0.00839023 0 0.000925917)
(0.0076315 0 0.000826512)
(0.00678364 0 0.000722294)
(0.0058359 0 0.000612174)
(0.00477632 0 0.00049478)
(0.00359154 0 0.0003684)
(0.00226656 0 0.000230901)
(0.000784136 0 7.95955e-05)
(0.0101855 0 0.00121659)
(0.00963966 0 0.00112714)
(0.00903118 0 0.00103464)
(0.00835233 0 0.000938546)
(0.0075946 0 0.000838224)
(0.00674856 0 0.00073283)
(0.00580368 0 0.000621285)
(0.00474822 0 0.000502229)
(0.00356909 0 0.000373963)
(0.00225156 0 0.000234368)
(0.000778731 0 8.07807e-05)
(0.00898344 0 0.00104379)
(0.00830584 0 0.000947447)
(0.00754994 0 0.000846591)
(0.0067066 0 0.00074043)
(0.00576551 0 0.000627893)
(0.00471519 0 0.000507638)
(0.00354285 0 0.000377992)
(0.0022341 0 0.000236862)
(0.000772454 0 8.16273e-05)
(0.00825059 0 0.000952498)
(0.00749733 0 0.000851489)
(0.00665759 0 0.000744981)
(0.00572123 0 0.000631893)
(0.0046771 0 0.000510919)
(0.00351273 0 0.000380418)
(0.00221412 0 0.000238341)
(0.000765285 0 8.21206e-05)
(0.00660142 0 0.000746368)
(0.00567078 0 0.000633195)
(0.00463388 0 0.000511992)
(0.00347867 0 0.000381184)
(0.0021916 0 0.000238767)
(0.000757219 0 8.22478e-05)
(0.00561418 0 0.000631709)
(0.00458554 0 0.000510784)
(0.00344072 0 0.000380235)
(0.00216656 0 0.000238107)
(0.000748263 0 8.19979e-05)
(0.00339892 0 0.00037752)
(0.00213906 0 0.000236334)
(0.000738443 0 8.13617e-05)
(0.00210921 0 0.000233421)
(0.0007278 0 8.03321e-05)
(0.000716384 0 7.8901e-05)
)
;

boundaryField
{
    inlet
    {
        type            cellMotion;
        value           nonuniform 0();
    }
    outlet
    {
        type            cellMotion;
        value           uniform (0 0 0);
    }
    flap
    {
        type            cellMotion;
        value           nonuniform 0();
    }
    upperWall
    {
        type            slip;
    }
    lowerWall
    {
        type            slip;
    }
    frontAndBack
    {
        type            empty;
    }
    procBoundary5to2
    {
        type            processor;
        value           nonuniform List<vector> 
34
(
(0.013485 0 0.00192103)
(0.0132772 0 0.00184202)
(0.0132772 0 0.00184202)
(0.0130663 0 0.0017931)
(0.0128219 0 0.00171385)
(0.0128219 0 0.00171385)
(0.0125577 0 0.00166051)
(0.0125577 0 0.00166051)
(0.0122538 0 0.00160203)
(0.0119313 0 0.00152176)
(0.0119313 0 0.00152176)
(0.0115496 0 0.00145755)
(0.0111535 0 0.00137471)
(0.0111535 0 0.00137471)
(0.0106756 0 0.00130334)
(0.0106756 0 0.00130334)
(0.0101368 0 0.00122557)
(0.00959131 0 0.00113636)
(0.00959131 0 0.00113636)
(0.00892642 0 0.00104883)
(0.00892642 0 0.00104883)
(0.00818685 0 0.000953695)
(0.00743689 0 0.000852874)
(0.00743689 0 0.000852874)
(0.0065384 0 0.000744585)
(0.0065384 0 0.000744585)
(0.0055518 0 0.000627441)
(0.00453234 0 0.000507275)
(0.00453234 0 0.000507275)
(0.00335361 0 0.000373048)
(0.00335361 0 0.000373048)
(0.00207725 0 0.000229378)
(0.00207725 0 0.000229378)
(0.000704308 0 7.70748e-05)
)
;
    }
    procBoundary5to4
    {
        type            processor;
        value           nonuniform List<vector> 
18
(
(0.00991256 0 5.56588e-05)
(0.0100221 0 0.000169184)
(0.0102287 0 0.000288881)
(0.0105113 0 0.00041725)
(0.0108441 0 0.000554642)
(0.0112015 0 0.000699334)
(0.0115612 0 0.000848093)
(0.0119054 0 0.000996927)
(0.0122218 0 0.00114179)
(0.0125029 0 0.00127908)
(0.0127452 0 0.00140596)
(0.0129481 0 0.0015204)
(0.0131133 0 0.00162112)
(0.0132433 0 0.00170748)
(0.0133414 0 0.00177933)
(0.0133414 0 0.00177933)
(0.0136175 0 0.00192168)
(0.0136564 0 0.00196608)
)
;
    }
}


// ************************************************************************* //
