/*--------------------------------*- C++ -*----------------------------------*\
| =========                 |                                                 |
| \\      /  F ield         | OpenFOAM: The Open Source CFD Toolbox           |
|  \\    /   O peration     | Version:  dev                                   |
|   \\  /    A nd           | Web:      www.OpenFOAM.org                      |
|    \\/     M anipulation  |                                                 |
\*---------------------------------------------------------------------------*/
FoamFile
{
    version     2.0;
    format      ascii;
    class       surfaceScalarField;
    location    "1.09";
    object      meshPhi;
}
// * * * * * * * * * * * * * * * * * * * * * * * * * * * * * * * * * * * * * //

dimensions      [0 3 -1 0 0 0 0];

internalField   nonuniform List<scalar> 
5457
(
-6.1064e-05
1.13825e-06
-0.000113368
3.17735e-06
-0.00015472
4.79279e-06
-0.000185345
5.99987e-06
-0.00020507
6.82218e-06
-0.000213656
7.26415e-06
-0.000211228
7.32686e-06
-0.000198522
7.02378e-06
-0.00017698
6.3908e-06
-0.000148688
5.48732e-06
-0.000116165
4.39591e-06
-8.20612e-05
3.20392e-06
-4.88831e-05
2.00179e-06
-1.87591e-05
8.76019e-07
6.74165e-06
-1.06964e-07
2.66815e-05
-9.038e-07
4.07391e-05
-1.4946e-06
4.91296e-05
-1.88035e-06
5.24833e-05
-2.07858e-06
5.17433e-05
-2.12002e-06
4.67741e-05
-2.0085e-06
3.84896e-05
-1.74548e-06
2.94753e-05
-1.40265e-06
2.10589e-05
-1.05899e-06
1.38023e-05
-7.47134e-07
8.05145e-06
-4.82759e-07
3.94355e-06
-2.75523e-07
1.42634e-06
-1.28664e-07
2.98027e-07
-4.06881e-08
-7.8216e-09
-6.10996e-05
2.27823e-06
-0.000113497
6.36145e-06
-0.000155032
9.60129e-06
-0.000185918
1.20287e-05
-0.000205948
1.36872e-05
-0.000214832
1.45799e-05
-0.000212645
1.47153e-05
-0.000200087
1.41234e-05
-0.00017857
1.28676e-05
-0.000150184
1.10648e-05
-0.000117467
8.8771e-06
-8.30869e-05
6.48523e-06
-4.9584e-05
4.07345e-06
-1.91233e-05
1.81243e-06
6.69654e-06
-1.64279e-07
2.69168e-05
-1.76918e-06
4.12012e-05
-2.96194e-06
4.9758e-05
-3.74447e-06
5.32109e-05
-4.15193e-06
5.24759e-05
-4.2435e-06
4.75379e-05
-4.02766e-06
3.92378e-05
-3.50775e-06
3.00881e-05
-2.82276e-06
2.1549e-05
-2.13332e-06
1.41735e-05
-1.50805e-06
8.30928e-06
-9.76631e-07
4.09882e-06
-5.58216e-07
1.49813e-06
-2.61098e-07
3.18719e-07
-8.36145e-08
-1.50586e-08
-6.10594e-05
3.41077e-06
-0.000113496
9.52735e-06
-0.000155183
1.43896e-05
-0.000186324
1.8045e-05
-0.000206681
2.05587e-05
-0.000215921
2.19336e-05
-0.000214069
2.21757e-05
-0.000201775
2.13244e-05
-0.000180415
1.94722e-05
-0.000152064
1.67904e-05
-0.000119262
1.35146e-05
-8.46853e-05
9.92442e-06
-5.08985e-05
6.30173e-06
-2.00987e-05
2.8982e-06
6.0869e-06
-8.49824e-08
2.66729e-05
-2.51503e-06
4.12991e-05
-4.32993e-06
5.01558e-05
-5.53168e-06
5.38539e-05
-6.172e-06
5.32974e-05
-6.33601e-06
4.84852e-05
-6.03529e-06
4.01884e-05
-5.27306e-06
3.09284e-05
-4.25367e-06
2.22563e-05
-3.22272e-06
1.47222e-05
-2.28568e-06
8.69113e-06
-1.48442e-06
4.32954e-06
-8.49051e-07
1.60514e-06
-3.96702e-07
3.47419e-07
-1.27913e-07
-2.28985e-08
-6.09294e-05
4.52645e-06
-0.000113332
1.26495e-05
-0.000155111
1.91211e-05
-0.000186472
2.40067e-05
-0.000207156
2.7394e-05
-0.000216794
2.92865e-05
-0.000215361
2.9679e-05
-0.000203455
2.86127e-05
-0.000182409
2.62091e-05
-0.000154257
2.26902e-05
-0.000121514
1.83641e-05
-8.68642e-05
1.36006e-05
-5.28821e-05
8.77596e-06
-2.17837e-05
4.22699e-06
4.7794e-06
2.24157e-07
2.57933e-05
-3.05271e-06
4.08646e-05
-5.51739e-06
5.01542e-05
-7.16956e-06
5.42506e-05
-8.07525e-06
5.40492e-05
-8.34577e-06
4.94606e-05
-7.99347e-06
4.1205e-05
-7.01348e-06
3.18838e-05
-5.6741e-06
2.30912e-05
-4.31147e-06
1.53869e-05
-3.07126e-06
9.1532e-06
-2.00577e-06
4.59282e-06
-1.15097e-06
1.71445e-06
-5.35453e-07
3.68958e-07
-1.71107e-07
-2.97889e-08
-6.07313e-05
5.62224e-06
-0.000113061
1.57184e-05
-0.00015493
2.37794e-05
-0.000186548
2.98947e-05
-0.000207636
3.4176e-05
-0.000217777
3.66218e-05
-0.000216889
3.72136e-05
-0.000205507
3.59912e-05
-0.000184908
3.30977e-05
-0.000157069
2.88006e-05
-0.000124471
2.34777e-05
-8.97922e-05
1.75804e-05
-5.56205e-05
1.15739e-05
-2.41922e-05
5.88318e-06
2.81609e-06
8.4992e-07
2.43589e-05
-3.2971e-06
3.99976e-05
-6.44471e-06
4.98525e-05
-8.5854e-06
5.4481e-05
-9.79698e-06
5.47563e-05
-1.02171e-05
5.04762e-05
-9.85561e-06
4.23034e-05
-8.69157e-06
3.29247e-05
-7.05366e-06
2.39947e-05
-5.37033e-06
1.61111e-05
-3.83565e-06
9.65958e-06
-2.51913e-06
4.86311e-06
-1.45569e-06
1.80275e-06
-6.76925e-07
3.67097e-07
-2.12408e-07
-3.44825e-08
-6.04557e-05
6.69371e-06
-0.000112665
1.87224e-05
-0.000154622
2.83521e-05
-0.000186536
3.57005e-05
-0.0002081
4.09027e-05
-0.000218847
4.39469e-05
-0.000218629
4.47995e-05
-0.000207908
4.34937e-05
-0.000187891
4.0187e-05
-0.000160491
3.51843e-05
-0.000128138
2.8926e-05
-9.34974e-05
2.1941e-05
-5.91596e-05
1.47808e-05
-2.73838e-05
7.95557e-06
1.19304e-07
1.88092e-06
2.22668e-05
-3.15994e-06
3.85727e-05
-7.02428e-06
4.91078e-05
-9.69515e-06
5.43875e-05
-1.12592e-05
5.52537e-05
-1.1877e-05
5.13723e-05
-1.15528e-05
4.33341e-05
-1.02465e-05
3.39135e-05
-8.34419e-06
2.4829e-05
-6.36196e-06
1.67415e-05
-4.54167e-06
1.00784e-05
-2.98266e-06
5.06788e-06
-1.73068e-06
1.83738e-06
-8.07449e-07
3.2689e-07
-2.4835e-07
-3.57017e-08
-6.00933e-05
7.73232e-06
-0.000112128
2.16429e-05
-0.000154169
3.2822e-05
-0.000186417
4.14123e-05
-0.000208527
4.75657e-05
-0.000219982
5.12609e-05
-0.00022056
5.24456e-05
-0.000210645
5.11414e-05
-0.000191356
4.75118e-05
-0.00016453
4.18904e-05
-0.00013254
3.47721e-05
-9.8023e-05
2.67584e-05
-6.35638e-05
1.84822e-05
-3.14382e-05
1.0536e-05
-3.4075e-06
3.41295e-06
1.93908e-05
-2.54285e-06
3.64317e-05
-7.15499e-06
4.7739e-05
-1.03973e-05
5.37699e-05
-1.23617e-05
5.53229e-05
-1.32264e-05
5.19193e-05
-1.29882e-05
4.40668e-05
-1.15882e-05
3.46404e-05
-9.46803e-06
2.54154e-05
-7.22641e-06
1.70974e-05
-5.14207e-06
1.02217e-05
-3.34718e-06
5.06251e-06
-1.92305e-06
1.75006e-06
-8.8868e-07
2.36562e-07
-2.64599e-07
-3.12055e-08
-5.96437e-05
8.73069e-06
-0.00011145
2.44596e-05
-0.000153567
3.71567e-05
-0.000186178
4.69882e-05
-0.0002089
5.41199e-05
-0.00022116
5.85198e-05
-0.000222663
6.01137e-05
-0.0002137
5.89065e-05
-0.000195294
5.50588e-05
-0.000169189
4.89223e-05
-0.000137696
4.10387e-05
-0.000103413
3.20761e-05
-6.89078e-05
2.27429e-05
-3.64645e-05
1.37103e-05
-7.90334e-06
5.5465e-06
1.55684e-05
-1.33844e-06
3.33838e-05
-6.72672e-06
4.55198e-05
-1.05777e-05
5.23683e-05
-1.29854e-05
5.46717e-05
-1.41419e-05
5.18033e-05
-1.40362e-05
4.41808e-05
-1.25934e-05
3.4792e-05
-1.03118e-05
2.54794e-05
-7.87019e-06
1.69553e-05
-5.56843e-06
9.87769e-06
-3.55718e-06
4.66006e-06
-1.97312e-06
1.44588e-06
-8.68437e-07
8.92969e-08
-2.37993e-07
-1.82669e-08
-5.91043e-05
9.68276e-06
-0.000110627
2.71536e-05
-0.000152802
4.13241e-05
-0.000185798
5.23864e-05
-0.000209189
6.0519e-05
-0.000222345
6.56767e-05
-0.000224892
6.77608e-05
-0.000217027
6.67542e-05
-0.000199664
6.2809e-05
-0.000174444
5.6286e-05
-0.0001436
4.77554e-05
-0.000109685
3.79394e-05
-7.52465e-05
2.76224e-05
-4.25709e-05
1.75553e-05
-1.35262e-05
8.37644e-06
1.06042e-05
5.62994e-07
2.91967e-05
-5.61794e-06
4.21721e-05
-1.0105e-05
4.98576e-05
-1.299e-05
5.29265e-05
-1.44753e-05
5.06129e-05
-1.45421e-05
4.32548e-05
-1.31045e-05
3.39526e-05
-1.07197e-05
2.46343e-05
-8.14862e-06
1.60029e-05
-5.70466e-06
8.81238e-06
-3.53144e-06
3.6946e-06
-1.82067e-06
8.51721e-07
-7.00938e-07
-1.08918e-07
-1.4744e-07
5.02252e-09
-5.84677e-05
1.05849e-05
-0.000109644
2.97152e-05
-0.000151854
4.53107e-05
-0.000185246
5.75908e-05
-0.000209352
6.67453e-05
-0.000223484
7.2714e-05
-0.000227187
7.53714e-05
-0.000220564
7.46739e-05
-0.000204413
7.07585e-05
-0.000180262
6.39896e-05
-0.000150247
5.49473e-05
-0.000116856
4.43899e-05
-8.26279e-05
3.31772e-05
-4.98557e-05
2.21417e-05
-2.04307e-05
1.19921e-05
4.28976e-06
3.26932e-06
2.36043e-05
-3.70426e-06
3.73698e-05
-8.83713e-06
4.5847e-05
-1.22163e-05
4.96323e-05
-1.4053e-05
4.78556e-05
-1.43258e-05
4.07849e-05
-1.29413e-05
3.16154e-05
-1.05079e-05
2.23863e-05
-7.87051e-06
1.38255e-05
-5.37153e-06
6.77336e-06
-3.14214e-06
2.07325e-06
-1.40492e-06
-3.10836e-08
-3.6806e-07
-3.28874e-07
9.49946e-09
3.68432e-08
-5.77267e-05
1.14336e-05
-0.000108488
3.21348e-05
-0.000150703
4.91023e-05
-0.000184497
6.25832e-05
-0.000209353
7.27763e-05
-0.000224529
7.96056e-05
-0.000229493
8.29175e-05
-0.000224246
8.26377e-05
-0.000209477
7.88786e-05
-0.000186595
7.19996e-05
-0.000157615
6.25911e-05
-0.000124941
5.14352e-05
-9.10991e-05
3.94428e-05
-5.84033e-05
2.75254e-05
-2.87573e-05
1.64708e-05
-3.57937e-06
6.88196e-06
1.63338e-05
-8.61296e-07
3.07667e-05
-6.62913e-06
3.99071e-05
-1.04978e-05
4.42711e-05
-1.26834e-05
4.29776e-05
-1.31799e-05
3.6234e-05
-1.19024e-05
2.72562e-05
-9.48397e-06
1.8232e-05
-6.83832e-06
1.00135e-05
-4.37295e-06
3.57239e-06
-2.24438e-06
-1.56831e-07
-6.80511e-07
-1.07988e-06
1.02442e-07
-5.12972e-07
2.03245e-07
6.94964e-08
-5.68745e-05
1.22214e-05
-0.000107149
3.43918e-05
-0.000149341
5.26675e-05
-0.000183532
6.73215e-05
-0.000209162
7.85589e-05
-0.000225434
8.62879e-05
-0.000231748
9.03278e-05
-0.000228003
9.05748e-05
-0.000214773
8.71107e-05
-0.000193352
8.02703e-05
-0.000165633
7.0651e-05
-0.000133912
5.90576e-05
-0.000100676
4.64285e-05
-6.82674e-05
3.37429e-05
-3.86175e-05
2.18727e-05
-1.31853e-05
1.1487e-05
7.13123e-06
3.02328e-06
2.20273e-05
-3.34193e-06
3.16218e-05
-7.66953e-06
3.63365e-05
-1.01772e-05
3.54253e-05
-1.08948e-05
2.9095e-05
-9.78092e-06
2.04467e-05
-7.46766e-06
1.18434e-05
-4.90112e-06
4.38759e-06
-2.58328e-06
-7.51749e-07
-7.56126e-07
-2.75444e-06
3.55523e-07
-2.05623e-06
6.51336e-07
-5.8497e-07
3.87051e-07
9.34584e-08
-5.59035e-05
1.29436e-05
-0.000105619
3.64734e-05
-0.000147757
5.59869e-05
-0.000182333
7.17783e-05
-0.00020874
8.40555e-05
-0.000226138
9.27118e-05
-0.000233867
9.75428e-05
-0.000231736
9.84177e-05
-0.000220198
9.53854e-05
-0.00020042
8.87409e-05
-0.000174188
7.90749e-05
-0.000143687
6.72117e-05
-0.000111326
5.41126e-05
-7.94596e-05
4.0803e-05
-5.00698e-05
2.82322e-05
-2.4655e-05
1.71471e-05
-4.19626e-06
8.04007e-06
1.08881e-05
1.1366e-06
2.06516e-05
-3.59456e-06
2.54351e-05
-6.37317e-06
2.47836e-05
-7.29599e-06
1.90138e-05
-6.40498e-06
1.09916e-05
-4.32293e-06
3.2452e-06
-1.99493e-06
-2.79844e-06
-1.64777e-08
-5.78865e-06
1.26067e-06
-5.29309e-06
1.63149e-06
-2.68617e-06
1.22202e-06
-4.75911e-07
5.3793e-07
1.08759e-07
-5.48088e-05
1.35988e-05
-0.000103892
3.83766e-05
-0.000145946
5.90549e-05
-0.000180882
7.5942e-05
-0.00020805
8.92433e-05
-0.000226576
9.88404e-05
-0.000235758
0.00010451
-0.000235326
0.000106094
-0.000225617
0.000103609
-0.000207662
9.73149e-05
-0.000183138
8.77751e-05
-0.000154126
7.58194e-05
-0.000122946
6.2434e-05
-9.19251e-05
4.86767e-05
-6.30931e-05
3.55528e-05
-3.80111e-05
2.38848e-05
-1.77241e-05
1.42319e-05
-2.7576e-06
6.86746e-06
6.84943e-06
1.79805e-06
1.14043e-05
-1.18858e-06
1.09281e-05
-2.29564e-06
5.96695e-06
-1.70052e-06
-9.16667e-07
-2.08949e-08
-7.07459e-06
1.8199e-06
-1.08027e-05
3.16014e-06
-1.07656e-05
3.59326e-06
-7.2498e-06
3.00241e-06
-2.7629e-06
1.78823e-06
-1.60458e-07
7.00045e-07
1.43898e-07
-5.36799e-05
1.42033e-05
-0.000102024
4.01289e-05
-0.000143904
6.18872e-05
-0.000179166
7.9819e-05
-0.000207055
9.4122e-05
-0.000226683
0.000104664
-0.000237325
0.000111213
-0.000238649
0.000113582
-0.000230883
0.000111754
-0.000214927
0.000105957
-0.000192331
9.67193e-05
-0.000165078
8.48611e-05
-0.000135399
7.13829e-05
-0.00010557
5.73659e-05
-7.76306e-05
4.38585e-05
-5.32113e-05
3.17449e-05
-3.34294e-05
2.16534e-05
-1.88933e-05
1.39142e-05
-9.73297e-06
8.56944e-06
-5.64488e-06
5.41555e-06
-5.93964e-06
4.12113e-06
-9.6755e-06
4.31337e-06
-1.46545e-05
5.35807e-06
-1.82283e-05
6.38207e-06
-1.86103e-05
6.71476e-06
-1.48561e-05
6.00781e-06
-8.2537e-06
4.33503e-06
-2.27134e-06
2.35667e-06
3.51903e-07
9.63234e-07
2.67627e-07
1.24406e-06
-1.5847e-08
8.957e-06
-5.29994e-08
3.73023e-05
-2.47227e-07
9.64622e-05
-4.88784e-07
0.000172074
-3.95484e-07
0.000234018
4.53724e-07
0.000266445
2.0085e-06
0.000274499
4.06211e-06
0.000271196
6.23404e-06
0.000264091
8.16686e-06
0.000255995
9.52698e-06
0.00025154
1.02621e-05
0.000253117
1.07362e-05
0.000259783
1.07935e-05
0.000270006
1.03529e-05
0.000281938
9.46863e-06
0.000293736
8.12424e-06
0.000303672
6.39016e-06
0.000310198
4.40664e-06
0.000312052
2.30831e-06
0.00030829
2.58488e-07
0.000298242
-1.57256e-06
0.000281609
-3.1211e-06
0.000258353
-4.26729e-06
0.000228654
-4.94139e-06
0.000192875
-5.1086e-06
0.000151512
-4.76354e-06
0.000105164
-3.92587e-06
5.43499e-05
-2.63426e-06
-9.47465e-07
1.31612e-06
-2.06092e-08
9.72493e-06
-1.212e-07
3.97447e-05
-4.87957e-07
0.000100283
-7.95482e-07
0.000175104
-3.6452e-07
0.000234365
1.43996e-06
0.000263966
4.51412e-06
0.00027026
8.35807e-06
0.000266197
1.23791e-05
0.000259412
1.60273e-05
0.000252194
1.86113e-05
0.000248441
2.0069e-05
0.000250778
2.09432e-05
0.000258152
2.09908e-05
0.000268944
2.01164e-05
0.000281327
1.83509e-05
0.000293476
1.56829e-05
0.000303646
1.22844e-05
0.000310319
8.38972e-06
0.000312224
4.29986e-06
0.00030846
2.78849e-07
0.000298417
-3.35e-06
0.000281774
-6.38458e-06
0.000258489
-8.6185e-06
0.000228749
-9.919e-06
0.000192922
-1.02183e-05
0.000151512
-9.50575e-06
0.000105126
-7.82014e-06
5.4303e-05
-5.23874e-06
-1.8819e-06
1.44976e-06
-3.23758e-08
1.09518e-05
-2.37576e-07
4.27874e-05
-7.86905e-07
0.000102937
-1.05922e-06
0.000173042
-8.43415e-08
0.000225769
2.79049e-06
0.000250791
7.30686e-06
0.000255534
1.26733e-05
0.000251808
1.82382e-05
0.000246659
2.3211e-05
0.000241721
2.67621e-05
0.000239931
2.89405e-05
0.000243972
3.008e-05
0.000252764
3.00068e-05
0.000264652
2.86945e-05
0.000277882
2.60712e-05
0.00029066
2.21711e-05
0.000301282
1.72433e-05
0.000308294
1.15806e-05
0.000310485
5.6294e-06
0.000306954
-2.09739e-07
0.000297115
-5.49783e-06
0.00028065
-9.88794e-06
0.000257521
-1.30976e-05
0.000227918
-1.49367e-05
0.00019222
-1.53063e-05
0.000150941
-1.41902e-05
0.0001047
-1.1645e-05
5.40584e-05
-7.78523e-06
-2.79279e-06
1.66415e-06
-5.41816e-08
1.24325e-05
-3.76705e-07
4.52923e-05
-1.05204e-06
0.000102082
-1.15514e-06
0.000163418
5.33266e-07
0.000206883
4.49673e-06
0.000226835
1.02177e-05
0.000230941
1.67778e-05
0.000228982
2.34886e-05
0.00022669
2.94006e-05
0.000225088
3.37289e-05
0.000226412
3.64618e-05
0.000232972
3.77211e-05
0.000243684
3.74915e-05
0.000257042
3.57043e-05
0.0002714
3.22522e-05
0.000285028
2.72347e-05
0.000296349
2.08996e-05
0.000303951
1.36476e-05
0.000306676
6.0213e-06
0.000303626
-1.43012e-06
0.000294217
-8.1668e-06
0.000278144
-1.37315e-05
0.000255377
-1.77653e-05
0.000226115
-2.00245e-05
0.000190745
-2.03809e-05
0.000149791
-1.88119e-05
0.000103892
-1.53902e-05
5.36271e-05
-1.0265e-05
-3.67682e-06
1.97346e-06
-8.37875e-08
1.39314e-05
-4.8206e-07
4.66195e-05
-1.12715e-06
9.75036e-05
-8.47001e-07
0.000147851
1.66783e-06
0.000181447
6.60174e-06
0.000196815
1.31715e-05
0.000201065
2.04738e-05
0.000201603
2.78454e-05
0.000202627
3.44178e-05
0.000204812
3.93565e-05
0.000209821
4.2375e-05
0.000219312
4.36447e-05
0.000232225
4.32443e-05
0.000247247
4.09661e-05
0.000262881
3.67196e-05
0.000277547
3.06513e-05
0.000289754
2.30438e-05
0.000298133
1.43958e-05
0.000301548
5.32963e-06
0.000299126
-3.49702e-06
0.00029029
-1.145e-05
0.000274747
-1.7982e-05
0.000252475
-2.26651e-05
0.00022368
-2.5207e-05
0.00018876
-2.54521e-05
0.000148255
-2.33718e-05
0.00010282
-1.90523e-05
5.30598e-05
-1.26742e-05
-4.5323e-06
2.35371e-06
-1.2026e-07
1.50763e-05
-5.35721e-07
4.58809e-05
-9.59478e-07
8.87086e-05
-6.16103e-08
0.000127445
3.28033e-06
0.000152209
8.89965e-06
0.00016427
1.58981e-05
0.000169447
2.34795e-05
0.000172732
3.11612e-05
0.000177021
3.82029e-05
0.000183028
4.34882e-05
0.000191764
4.65947e-05
0.000204148
4.78141e-05
0.000219289
4.71481e-05
0.00023603
4.43419e-05
0.000253016
3.93356e-05
0.000268811
3.22953e-05
0.000281981
2.35775e-05
0.000291215
1.37407e-05
0.000295405
3.47697e-06
0.000293699
-6.47332e-06
0.000285529
-1.53972e-05
0.000270611
-2.26745e-05
0.000248929
-2.78181e-05
0.0002207
-3.04938e-05
0.000186331
-3.05214e-05
0.000146378
-2.78661e-05
0.000101515
-2.26256e-05
5.23711e-05
-1.50079e-05
-5.35737e-06
2.75166e-06
-1.567e-07
1.55054e-05
-5.10495e-07
4.25626e-05
-5.24842e-07
7.6144e-05
1.12027e-06
0.000104304
5.1251e-06
0.000122323
1.10555e-05
0.00013257
1.81128e-05
0.000139108
2.56838e-05
0.000144934
3.34584e-05
0.000152163
4.0744e-05
0.000161596
4.61554e-05
0.000173637
4.92154e-05
0.000188618
5.02524e-05
0.000205808
4.91919e-05
0.000224177
4.58063e-05
0.000242482
4.00659e-05
0.000259376
3.21588e-05
0.000273501
2.24919e-05
0.000283595
1.16746e-05
0.00028858
4.54649e-07
0.00028762
-1.03659e-05
0.000280158
-2.00129e-05
0.000265917
-2.78093e-05
0.000244885
-3.32206e-05
0.000217288
-3.58774e-05
0.000183543
-3.55789e-05
0.000144222
-3.22843e-05
0.000100016
-2.6101e-05
5.15821e-05
-1.726e-05
-6.14979e-06
3.06565e-06
-1.77359e-07
1.48799e-05
-3.6719e-07
3.67645e-05
1.55553e-07
6.13306e-05
2.47547e-06
8.11435e-05
6.83726e-06
9.47019e-05
1.27372e-05
0.000104217
1.96061e-05
0.000112104
2.70299e-05
0.000119991
3.47617e-05
0.000129608
4.20685e-05
0.000141797
4.74515e-05
0.000156519
5.03255e-05
0.000173683
5.10012e-05
0.00019263
4.94412e-05
0.000212414
4.54404e-05
0.000231884
3.89923e-05
0.000249765
3.03143e-05
0.000264763
1.98526e-05
0.000275657
8.2557e-06
0.000281397
-3.68792e-06
0.000281162
-1.5133e-05
0.000274403
-2.5262e-05
0.000260847
-3.33565e-05
0.000240489
-3.88464e-05
0.000213559
-4.1335e-05
0.000180486
-4.06048e-05
0.000141852
-3.66102e-05
9.8368e-05
-2.94664e-05
5.07156e-05
-1.9423e-05
-6.90701e-06
3.16567e-06
-1.66136e-07
1.31049e-05
-1.12069e-07
2.93594e-05
9.33486e-07
4.64218e-05
3.68736e-06
6.04581e-05
8.09967e-06
7.13779e-05
1.37629e-05
8.06507e-05
2.03247e-05
8.95359e-05
2.75294e-05
9.8898e-05
3.51271e-05
0.000110224
4.22775e-05
0.000124432
4.74562e-05
0.000141196
4.99905e-05
0.000160057
5.01737e-05
0.000180394
4.80307e-05
0.000201317
4.33816e-05
0.000221737
3.62525e-05
0.000240436
2.68931e-05
0.000256168
1.5781e-05
0.00026775
3.59308e-06
0.000274155
-8.85584e-06
0.000274578
-2.06942e-05
0.000268474
-3.10776e-05
0.000255576
-3.92612e-05
0.000235883
-4.46507e-05
0.000209628
-4.68306e-05
0.000177247
-4.5571e-05
0.000139334
-4.08227e-05
9.66146e-05
-3.27071e-05
4.97941e-05
-2.14882e-05
-7.62629e-06
2.96596e-06
-1.18078e-07
1.04997e-05
1.98818e-07
2.17315e-05
1.61286e-06
3.3383e-05
4.51438e-06
4.37744e-05
8.78445e-06
5.31585e-05
1.41624e-05
6.22553e-05
2.04186e-05
7.16683e-05
2.73591e-05
8.195e-05
3.46918e-05
9.43814e-05
4.15096e-05
0.000109944
4.62985e-05
0.000128135
4.83418e-05
0.000148211
4.79256e-05
0.000169562
4.51246e-05
0.000191326
3.98008e-05
0.00021245
3.20196e-05
0.000231761
2.20633e-05
0.000248052
1.04354e-05
0.000260173
-2.16892e-06
0.000267116
-1.4922e-05
0.000268091
-2.69408e-05
0.000262562
-3.73692e-05
0.000250264
-4.54494e-05
0.000231196
-5.05748e-05
0.000205597
-5.23183e-05
0.000173907
-5.04428e-05
0.000136728
-4.48969e-05
9.4797e-05
-3.58067e-05
4.88391e-05
-2.34467e-05
-8.30478e-06
2.48284e-06
-4.21492e-08
7.66109e-06
4.91295e-07
1.51421e-05
2.06347e-06
2.3313e-05
4.90013e-06
3.1454e-05
8.95619e-06
3.97849e-05
1.40815e-05
4.85924e-05
2.00692e-05
5.81798e-05
2.66913e-05
6.89613e-05
3.3606e-05
8.20489e-05
3.99162e-05
9.84446e-05
4.41365e-05
0.000117545
4.5541e-05
0.000138416
4.44202e-05
0.000160436
4.08968e-05
0.000182748
3.48821e-05
0.000204325
2.64829e-05
0.000224028
1.60126e-05
0.000240682
3.99499e-06
0.000253165
-8.86515e-06
0.000260493
-2.17391e-05
0.00026189
-3.37458e-05
0.000256827
-4.40303e-05
0.000245045
-5.18347e-05
0.000226542
-5.65499e-05
0.00020156
-5.77457e-05
0.00017054
-5.51816e-05
0.000134088
-4.88057e-05
9.29523e-05
-3.87478e-05
4.78697e-05
-2.52891e-05
-8.9396e-06
1.82821e-06
4.60648e-08
5.1571e-06
7.16903e-07
1.02425e-05
2.28113e-06
1.63326e-05
4.96213e-06
2.30405e-05
8.80321e-06
3.05285e-05
1.36899e-05
3.89434e-05
1.93919e-05
4.84981e-05
2.56174e-05
5.95044e-05
3.19892e-05
7.296e-05
3.76325e-05
8.98361e-05
4.11108e-05
0.000109462
4.17328e-05
0.000130792
3.98121e-05
0.000153183
3.55171e-05
0.000175778
2.88089e-05
0.000197565
1.98344e-05
0.000217436
8.93383e-06
0.000234248
-3.35376e-06
0.000246906
-1.63214e-05
0.00025445
-2.91504e-05
0.00025612
-4.09726e-05
0.000251399
-5.09458e-05
0.00024003
-5.83227e-05
0.000222015
-6.25019e-05
0.000197593
-6.30559e-05
0.000167206
-5.97458e-05
0.000131463
-5.25205e-05
9.11122e-05
-4.15123e-05
4.69025e-05
-2.70058e-05
-9.5279e-06
1.15884e-06
1.30698e-07
3.32704e-06
8.67002e-07
7.06279e-06
2.35793e-06
1.19548e-05
4.8958e-06
1.77531e-05
8.53823e-06
2.45875e-05
1.31521e-05
3.26035e-05
1.84839e-05
4.20194e-05
2.42077e-05
5.3095e-05
2.99312e-05
6.67685e-05
3.47707e-05
8.39262e-05
3.73357e-05
0.000103819
3.70339e-05
0.000125355
3.42358e-05
0.000147871
2.91413e-05
0.000170512
2.1755e-05
0.000192284
1.22596e-05
0.000212109
1.01542e-06
0.000228878
-1.14266e-05
0.000241519
-2.43631e-05
0.000249101
-3.69971e-05
0.000250886
-4.84821e-05
0.000246371
-5.79976e-05
0.000235303
-6.48166e-05
0.000217686
-6.83539e-05
0.000193757
-6.81909e-05
0.000163956
-6.40935e-05
0.000128887
-5.60128e-05
8.9302e-05
-4.40826e-05
4.59503e-05
-2.85877e-05
-1.00669e-05
6.46614e-07
1.95343e-07
2.28002e-06
9.88733e-07
5.357e-06
2.42816e-06
9.59326e-06
4.88573e-06
1.48541e-05
8.3169e-06
2.12518e-05
1.25758e-05
2.89694e-05
1.74133e-05
3.82378e-05
2.25204e-05
4.92886e-05
2.75334e-05
6.31406e-05
3.14717e-05
8.05334e-05
3.29198e-05
0.000100528
3.15408e-05
0.000122078
2.78226e-05
0.000144519
2.19305e-05
0.000167002
1.39018e-05
0.000188548
3.95462e-06
0.000208113
-7.53875e-06
0.000224635
-2.00324e-05
0.000237072
-3.28205e-05
0.000244512
-4.51245e-05
0.000246253
-5.61378e-05
0.000241804
-6.50688e-05
0.000230919
-7.12197e-05
0.000213605
-7.40297e-05
0.000190095
-7.30928e-05
0.000160824
-6.81833e-05
0.000126391
-5.92549e-05
8.7541e-05
-4.64417e-05
4.50228e-05
-3.0026e-05
-1.05541e-05
5.23022e-07
2.08133e-07
2.1167e-06
1.2799e-06
4.92718e-06
2.6957e-06
8.83031e-06
5.02616e-06
1.3812e-05
8.15948e-06
1.99926e-05
1.1945e-05
2.757e-05
1.61539e-05
3.67413e-05
2.05338e-05
4.77788e-05
2.4701e-05
6.18875e-05
2.75148e-05
7.94989e-05
2.76916e-05
9.94465e-05
2.52332e-05
0.000120854
2.06273e-05
0.000143047
1.39655e-05
0.000165189
5.34273e-06
0.000186325
-4.98928e-06
0.000205435
-1.66394e-05
0.000221503
-2.90721e-05
0.000233536
-4.15937e-05
0.000240654
-5.34412e-05
0.000242183
-6.38584e-05
0.00023766
-7.20988e-05
0.000226847
-7.74941e-05
0.000209748
-7.95052e-05
0.00018659
-7.7748e-05
0.000157801
-7.20103e-05
0.000123971
-6.22481e-05
8.5831e-05
-4.85949e-05
4.41238e-05
-3.13269e-05
-1.09923e-05
-5.46816e-05
1.47645e-05
-0.000104011
4.17473e-05
-0.000147113
6.45106e-05
-0.000183975
8.3452e-05
-0.00021364
9.87477e-05
-0.000235127
0.000110244
-0.000247681
0.000117709
-0.000250917
0.000120937
-0.000244974
0.000119876
-0.000230646
0.000114717
-0.000209417
0.000105955
-0.000183232
9.43904e-05
-0.000154302
8.10186e-05
-0.000124928
6.69333e-05
-9.72083e-05
5.32128e-05
-7.28879e-05
4.07954e-05
-5.31961e-05
3.03737e-05
-3.88379e-05
2.23323e-05
-2.9995e-05
1.67478e-05
-2.63262e-05
1.34226e-05
-2.6298e-05
1.18839e-05
-2.82891e-05
1.15157e-05
-3.04625e-05
1.16389e-05
-3.03641e-05
1.14814e-05
-2.63916e-05
1.04589e-05
-1.83857e-05
8.39966e-06
-8.76447e-06
5.6406e-06
-1.52652e-06
3.01151e-06
1.23384e-06
1.31559e-06
6.13793e-07
7.55772e-07
-5.5009e-05
1.52619e-05
-0.000104643
4.3178e-05
-0.00014821
6.68399e-05
-0.000186033
8.67633e-05
-0.000217083
0.000103098
-0.000240173
0.000115576
-0.000254545
0.000123973
-0.000259801
0.000128125
-0.000255973
0.000127937
-0.00024374
0.000123544
-0.000224499
0.000115416
-0.000200115
0.000104329
-0.00017273
9.12561e-05
-0.000144617
7.72882e-05
-0.00011788
6.35222e-05
-9.43278e-05
5.09318e-05
-7.52751e-05
4.02668e-05
-6.14824e-05
3.19625e-05
-5.31525e-05
2.61269e-05
-4.98733e-05
2.25726e-05
-4.9243e-05
2.06931e-05
-4.86574e-05
1.95925e-05
-4.67388e-05
1.85113e-05
-4.18133e-05
1.68628e-05
-3.28735e-05
1.42732e-05
-2.0815e-05
1.08208e-05
-8.82801e-06
7.08064e-06
-6.0089e-07
3.89361e-06
2.74785e-06
1.83295e-06
8.07277e-07
3.0592e-06
-5.52422e-05
1.5676e-05
-0.000105162
4.4369e-05
-0.000149119
6.87548e-05
-0.00018775
8.95122e-05
-0.000220192
0.000106932
-0.000244942
0.00012055
-0.000261152
0.000129943
-0.000268534
0.000135061
-0.00026697
0.000135842
-0.000257007
0.000132322
-0.000240002
0.000124954
-0.000217725
0.000114505
-0.000192216
0.000101908
-0.000165693
8.82276e-05
-0.000140249
7.45645e-05
-0.000117705
6.19152e-05
-9.94328e-05
5.10639e-05
-8.6212e-05
4.24886e-05
-7.82451e-05
3.63309e-05
-7.50698e-05
3.24261e-05
-7.36839e-05
3.01134e-05
-6.98832e-05
2.81769e-05
-6.27931e-05
2.56803e-05
-5.24144e-05
2.23543e-05
-3.84885e-05
1.81582e-05
-2.29159e-05
1.34089e-05
-8.99237e-06
8.81674e-06
4.34765e-07
5.11096e-06
4.99939e-06
2.67633e-06
1.3391e-06
6.42701e-06
-5.52877e-05
1.59946e-05
-0.000105357
4.52934e-05
-0.000149595
7.02385e-05
-0.00018883
9.15801e-05
-0.00022261
0.000109873
-0.00024925
0.00012477
-0.000267418
0.000135463
-0.000276998
0.000141687
-0.00027781
0.000143512
-0.000270195
0.000140939
-0.000255591
0.000134417
-0.000235644
0.000124737
-0.00021226
0.000112767
-0.000187558
9.95209e-05
-0.000163591
8.60765e-05
-0.00014216
7.34403e-05
-0.000124633
6.24189e-05
-0.00011177
5.35149e-05
-0.000103747
4.68967e-05
-0.000100089
4.24272e-05
-9.76008e-05
3.94384e-05
-9.05636e-05
3.65949e-05
-7.82107e-05
3.28367e-05
-6.22625e-05
2.79444e-05
-4.36887e-05
2.21977e-05
-2.51649e-05
1.62747e-05
-9.41747e-06
1.09147e-05
1.6082e-06
6.67251e-06
8.00391e-06
3.7949e-06
2.06113e-06
1.11204e-05
-5.51017e-05
1.62083e-05
-0.000105109
4.59218e-05
-0.000149444
7.12716e-05
-0.00018899
9.3011e-05
-0.000223713
0.000111798
-0.00025234
0.000127662
-0.000272959
0.000139896
-0.000285096
0.000147763
-0.000288344
0.000150905
-0.000282995
0.000149285
-0.00027087
0.000143627
-0.000253372
0.000134822
-0.000232232
0.000123582
-0.000209458
0.000110864
-0.000186998
9.77181e-05
-0.000166612
8.51251e-05
-0.000149609
7.39043e-05
-0.000136681
6.45711e-05
-0.000127925
5.73045e-05
-0.000122783
5.19737e-05
-0.000117788
4.78298e-05
-0.000107629
4.37069e-05
-9.15467e-05
3.88746e-05
-7.12302e-05
3.30249e-05
-4.88849e-05
2.63005e-05
-2.76915e-05
1.945e-05
-9.95822e-06
1.33141e-05
3.00745e-06
8.46481e-06
1.15524e-05
5.06069e-06
2.85982e-06
1.65539e-05
-5.46356e-05
1.63069e-05
-0.000104327
4.62248e-05
-0.000148533
7.18025e-05
-0.000188135
9.37971e-05
-0.00022323
0.000112846
-0.00025321
0.000129131
-0.000276438
0.000142399
-0.000291746
0.000151987
-0.000297992
0.000157056
-0.000295091
0.000157009
-0.000285378
0.000152429
-0.000270358
0.000144535
-0.000251405
0.000134084
-0.000230505
0.000121929
-0.000209414
0.0001091
-0.000189835
9.65352e-05
-0.000172993
8.50624e-05
-0.000159458
7.51953e-05
-0.000149201
6.71069e-05
-0.000141499
6.06661e-05
-0.000132469
5.50843e-05
-0.000118501
4.9338e-05
-9.98078e-05
4.3133e-05
-7.74267e-05
3.65113e-05
-5.32298e-05
2.94866e-05
-3.00182e-05
2.23559e-05
-1.02469e-05
1.57468e-05
4.90242e-06
1.02788e-05
1.57255e-05
6.22217e-06
3.44757e-06
2.26664e-05
-5.38392e-05
1.62819e-05
-0.000102911
4.61769e-05
-0.000146722
7.17923e-05
-0.000186142
9.38768e-05
-0.000221245
0.000113048
-0.000251668
0.000129481
-0.000276543
0.000143105
-0.000294624
0.00015354
-0.000304671
0.000160325
-0.000305493
0.000162709
-0.000298681
0.000160276
-0.000286039
0.000153697
-0.000269033
0.000144007
-0.000249802
0.000132395
-0.000229741
0.000119844
-0.000210614
0.000107244
-0.0001935
9.54617e-05
-0.000178838
8.49744e-05
-0.000166483
7.59563e-05
-0.00015564
6.83035e-05
-0.000142444
6.13017e-05
-0.000124254
5.40124e-05
-0.000102616
4.6338e-05
-7.90952e-05
3.86891e-05
-5.4563e-05
3.12288e-05
-3.06392e-05
2.40366e-05
-9.40453e-06
1.73779e-05
7.85379e-06
1.15898e-05
2.10053e-05
6.93581e-06
3.47135e-06
2.99862e-05
-5.26713e-05
1.61325e-05
-0.000100779
4.57731e-05
-0.000143872
7.12138e-05
-0.00018281
9.32e-05
-0.000217663
0.000112333
-0.000248069
0.000128801
-0.000273476
0.000142546
-0.000292939
0.000153246
-0.000306003
0.000160743
-0.000311345
0.000164845
-0.000308788
0.00016497
-0.000299233
0.000160775
-0.00028449
0.000152784
-0.000266566
0.000142035
-0.000246955
0.000129607
-0.000227861
0.000116843
-0.000210069
0.000104709
-0.000193886
9.35615e-05
-0.00017915
8.35873e-05
-0.000165141
7.47489e-05
-0.000148418
6.64312e-05
-0.000126722
5.78075e-05
-0.000102335
4.89287e-05
-7.73726e-05
4.03329e-05
-5.23872e-05
3.22112e-05
-2.8324e-05
2.46524e-05
-6.38243e-06
1.78206e-05
1.24778e-05
1.18288e-05
2.7921e-05
6.74625e-06
2.61771e-06
3.92505e-05
-5.10918e-05
1.58552e-05
-9.78617e-05
4.50079e-05
-0.000139869
7.00612e-05
-0.000177976
9.1749e-05
-0.000212255
0.000110669
-0.000242361
0.000127007
-0.000267774
0.000140725
-0.000287749
0.000151574
-0.000302064
0.000159341
-0.000310345
0.000163993
-0.000311847
0.000165368
-0.000306514
0.000163282
-0.000295488
0.000157864
-0.000279552
0.00014923
-0.000260265
0.000137791
-0.000240695
0.000125017
-0.000221945
0.000112473
-0.000204022
0.0001007
-0.000186891
8.98268e-05
-0.000169986
7.99136e-05
-0.000150369
7.0447e-05
-0.000126161
6.07047e-05
-9.98897e-05
5.08293e-05
-7.36537e-05
4.14379e-05
-4.79388e-05
3.27381e-05
-2.3504e-05
2.47509e-05
-1.05004e-06
1.75449e-05
1.89579e-05
1.11812e-05
3.63733e-05
5.66543e-06
1.0048e-06
4.99745e-05
-4.90471e-05
1.54425e-05
-9.40698e-05
4.38676e-05
-0.000134608
6.83302e-05
-0.000171491
8.95177e-05
-0.000204826
0.000108035
-0.000234272
0.000124072
-0.000259344
0.000137599
-0.000279431
0.000148426
-0.000294134
0.000156348
-0.0003034
0.000161258
-0.000306868
0.000163035
-0.00030486
0.000161822
-0.000297769
0.000157938
-0.000285516
0.000151548
-0.00026826
0.000142503
-0.000248586
0.00013107
-0.000228721
0.000118587
-0.000208943
0.000106228
-0.000189584
9.45523e-05
-0.000170148
8.37193e-05
-0.000148255
7.32812e-05
-0.000122327
6.26257e-05
-9.4831e-05
5.19451e-05
-6.77679e-05
4.18993e-05
-4.15503e-05
3.26998e-05
-1.6714e-05
2.43226e-05
6.2778e-06
1.67691e-05
2.71951e-05
1.00323e-05
4.60071e-05
4.08465e-06
-1.01259e-06
6.10951e-05
-4.65014e-05
1.49042e-05
-8.93132e-05
4.23586e-05
-0.000127969