/*--------------------------------*- C++ -*----------------------------------*\
| =========                 |                                                 |
| \\      /  F ield         | OpenFOAM: The Open Source CFD Toolbox           |
|  \\    /   O peration     | Version:  dev                                   |
|   \\  /    A nd           | Web:      www.OpenFOAM.org                      |
|    \\/     M anipulation  |                                                 |
\*---------------------------------------------------------------------------*/
FoamFile
{
    version     2.0;
    format      ascii;
    class       surfaceScalarField;
    location    "2.51";
    object      meshPhi;
}
// * * * * * * * * * * * * * * * * * * * * * * * * * * * * * * * * * * * * * //

dimensions      [0 3 -1 0 0 0 0];

internalField   nonuniform List<scalar> 
5457
(
-5.85175e-06
1.07934e-07
-7.27957e-06
2.22293e-07
-2.296e-06
1.0593e-07
8.99252e-06
-2.7009e-07
2.52236e-05
-8.70866e-07
4.43343e-05
-1.6252e-06
6.39823e-05
-2.44418e-06
8.18863e-05
-3.23487e-06
9.61113e-05
-3.91222e-06
0.00010529
-4.40823e-06
0.000108751
-4.67943e-06
0.000106536
-4.71047e-06
9.93157e-05
-4.51363e-06
8.82378e-05
-4.12494e-06
7.47007e-05
-3.59754e-06
6.01234e-05
-2.98944e-06
4.57844e-05
-2.35742e-06
3.26988e-05
-1.75163e-06
2.15428e-05
-1.20904e-06
1.26342e-05
-7.51916e-07
6.46387e-06
-4.06467e-07
2.84255e-06
-1.88357e-07
8.07463e-07
-6.69185e-08
-1.87815e-07
-2.1486e-09
-5.11595e-07
2.57658e-08
-4.70794e-07
3.05204e-08
-2.93179e-07
2.35435e-08
-1.22791e-07
1.33421e-08
-2.83026e-08
5.20143e-09
1.07588e-09
-6.24843e-06
2.27541e-07
-7.93482e-06
4.75445e-07
-3.06677e-06
2.54334e-07
8.22797e-06
-4.92627e-07
2.45744e-05
-1.69486e-06
4.38905e-05
-3.20962e-06
6.38107e-05
-4.85844e-06
8.20218e-05
-6.45435e-06
9.65512e-05
-7.82588e-06
0.000105996
-8.83521e-06
0.000109656
-9.39363e-06
0.000107554
-9.46898e-06
0.000100361
-9.08476e-06
8.92315e-05
-8.31202e-06
7.55847e-05
-7.25407e-06
6.08612e-05
-6.03253e-06
4.63626e-05
-4.76489e-06
3.3125e-05
-3.54907e-06
2.18411e-05
-2.4594e-06
1.28482e-05
-1.54148e-06
6.59184e-06
-8.46092e-07
2.90717e-06
-4.0352e-07
8.59433e-07
-1.5529e-07
-1.4833e-07
-2.12718e-08
-4.81804e-07
3.9306e-08
-4.4796e-07
5.27664e-08
-2.76714e-07
4.16184e-08
-1.1414e-07
2.34042e-08
-2.56668e-08
9.03161e-09
1.86186e-09
-6.64395e-06
3.63896e-07
-8.60009e-06
7.73742e-07
-3.87216e-06
4.67379e-07
7.39955e-06
-6.38533e-07
2.38319e-05
-2.43624e-06
4.33292e-05
-4.71075e-06
6.35126e-05
-7.19456e-06
8.20458e-05
-9.60775e-06
9.69221e-05
-1.16912e-05
0.000106703
-1.32358e-05
0.000110653
-1.41057e-05
0.000108771
-1.425e-05
0.000101714
-1.37015e-05
9.06313e-05
-1.2565e-05
7.69482e-05
-1.09944e-05
6.21269e-05
-9.17149e-06
4.74898e-05
-7.27294e-06
3.40915e-05
-5.44711e-06
2.2643e-05
-3.80701e-06
1.34958e-05
-2.42278e-06
7.08744e-06
-1.36856e-06
3.28019e-06
-6.88691e-07
1.1474e-06
-2.99996e-07
6.15431e-08
-8.3407e-08
-3.38985e-07
2.29195e-08
-3.57151e-07
5.63104e-08
-2.2284e-07
4.8719e-08
-8.80176e-08
2.7185e-08
-1.7197e-08
9.94164e-09
1.886e-09
-6.99645e-06
5.20224e-07
-9.21541e-06
1.1275e-06
-4.65081e-06
7.63648e-07
6.55583e-06
-6.8068e-07
2.30215e-05
-3.05976e-06
4.26486e-05
-6.08708e-06
6.30555e-05
-9.40755e-06
8.18943e-05
-1.26495e-05
9.71335e-05
-1.54655e-05
0.000107302
-1.75741e-05
0.00011163
-1.87905e-05
0.000110082
-1.90419e-05
0.000103288
-1.83673e-05
9.2378e-05
-1.69023e-05
7.8769e-05
-1.48506e-05
6.39328e-05
-1.24497e-05
4.92061e-05
-9.93318e-06
3.56591e-05
-7.50171e-06
2.40218e-05
-5.30862e-06
1.466e-05
-3.45006e-06
8.03711e-06
-2.0231e-06
4.04026e-06
-1.08641e-06
1.73877e-06
-5.35855e-07
4.97681e-07
-2.15955e-07
-4.20777e-08
-4.33656e-08
-1.744e-07
2.94818e-08
-1.20407e-07
4.03579e-08
-3.84109e-08
2.34533e-08
1.11663e-09
6.9073e-09
4.93474e-10
-7.42092e-06
7.02232e-07
-9.97017e-06
1.55306e-06
-5.62191e-06
1.16896e-06
5.48136e-06
-5.84756e-07
2.19613e-05
-3.52502e-06
4.17266e-05
-7.29605e-06
6.23924e-05
-1.14564e-05
8.15968e-05
-1.5542e-05
9.7285e-05
-1.9118e-05
0.00010795
-2.18292e-05
0.000112776
-2.34392e-05
0.000111685
-2.38497e-05
0.000105269
-2.31009e-05
9.46314e-05
-2.1355e-05
8.11739e-05
-1.88609e-05
6.63705e-05
-1.5911e-05
5.15693e-05
-1.27952e-05
3.78591e-05
-9.76571e-06
2.59952e-05
-7.01794e-06
1.63666e-05
-4.67604e-06
9.46296e-06
-2.85906e-06
5.19934e-06
-1.6393e-06
2.65493e-06
-8.96961e-07
1.19139e-06
-4.46491e-07
4.45364e-07
-1.82907e-07
1.2872e-07
-4.51358e-08
4.30632e-08
8.33509e-09
3.85511e-08
1.13152e-08
3.28184e-08
3.78472e-10
-2.60504e-09
-7.92534e-06
9.15667e-07
-1.08753e-05
2.06661e-06
-6.79767e-06
1.70837e-06
4.16542e-06
-3.18037e-07
2.06419e-05
-3.79252e-06
4.05501e-05
-8.29135e-06
6.15054e-05
-1.3289e-05
8.11331e-05
-1.82307e-05
9.73547e-05
-2.25949e-05
0.000108624
-2.59515e-05
0.000114072
-2.80104e-05
0.000113566
-2.86435e-05
0.000107651
-2.78857e-05
9.73938e-05
-2.59203e-05
8.41759e-05
-2.30368e-05
6.94684e-05
-1.95805e-05
5.46258e-05
-1.58964e-05
4.07537e-05
-1.22861e-05
2.86397e-05
-8.98677e-06
1.87035e-05
-6.15308e-06
1.14574e-05
-3.92681e-06
6.84611e-06
-2.39256e-06
3.97438e-06
-1.42039e-06
2.21179e-06
-8.03745e-07
1.18921e-06
-4.20259e-07
6.10096e-07
-1.90931e-07
3.0087e-07
-6.48936e-08
1.51886e-07
-1.5612e-08
7.98005e-08
-9.29757e-09
-7.0479e-09
-8.51606e-06
1.16672e-06
-1.19404e-05
2.68539e-06
-8.18936e-06
2.40783e-06
2.59647e-06
1.52308e-07
1.90511e-05
-3.82311e-06
3.91013e-05
-9.02708e-06
6.03687e-05
-1.48528e-05
8.04697e-05
-2.06593e-05
9.73015e-05
-2.58409e-05
0.000109279
-2.98939e-05
0.000115473
-3.24684e-05
0.000115686
-3.33985e-05
0.000110404
-3.27097e-05
0.00010065
-3.05995e-05
8.77755e-05
-2.73924e-05
7.32445e-05
-2.34829e-05
5.84169e-05
-1.92701e-05
4.44107e-05
-1.51052e-05
3.2045e-05
-1.12644e-05
2.17778e-05
-7.9348e-06
1.4137e-05
-5.28089e-06
9.09503e-06
-3.39653e-06
5.79817e-06
-2.14698e-06
3.64017e-06
-1.31684e-06
2.25766e-06
-7.76664e-07
1.33591e-06
-4.29516e-07
7.05307e-07
-2.02905e-07
3.23096e-07
-7.34917e-08
1.43101e-07
-2.62666e-08
-1.26282e-08
-9.20079e-06
1.46115e-06
-1.31771e-05
3.42534e-06
-9.81123e-06
3.29137e-06
7.5482e-07
8.57757e-07
1.71624e-05
-3.57786e-06
3.73492e-05
-9.4594e-06
5.89459e-05
-1.6102e-05
7.95642e-05
-2.27823e-05
9.70782e-05
-2.88128e-05
0.000109862
-3.36165e-05
0.000116926
-3.67782e-05
0.000117996
-3.80881e-05
0.000113494
-3.75572e-05
0.000104381
-3.5389e-05
9.19721e-05
-3.19355e-05
7.77175e-05
-2.7637e-05
6.29838e-05
-2.29451e-05
4.89019e-05
-1.8259e-05
3.63124e-05
-1.38951e-05
2.57156e-05
-1.00726e-05
1.76446e-05
-6.97755e-06
1.20898e-05
-4.70979e-06
8.25367e-06
-3.13047e-06
5.57461e-06
-2.0247e-06
3.71861e-06
-1.27288e-06
2.36159e-06
-7.73258e-07
1.31059e-06
-4.22968e-07
5.86059e-07
-1.8296e-07
2.24896e-07
-6.10548e-08
-2.05536e-08
-9.98726e-06
1.80333e-06
-1.45974e-05
4.29865e-06
-1.16765e-05
4.37783e-06
-1.37712e-06
1.82391e-06
1.49502e-05
-3.0237e-06
3.52619e-05
-9.54811e-06
5.71985e-05
-1.6991e-05
7.83716e-05
-2.45487e-05
9.66348e-05
-3.1454e-05
0.000110318
-3.70537e-05
0.000118368
-4.08686e-05
0.000120438
-4.26451e-05
0.000116867
-4.23707e-05
0.00010855
-4.02467e-05
9.67516e-05
-3.66444e-05
8.29001e-05
-3.204e-05
6.83663e-05
-2.69332e-05
5.42938e-05
-2.17723e-05
4.15425e-05
-1.69157e-05
3.06517e-05
-1.26156e-05
2.21344e-05
-9.07357e-06
1.59918e-05
-6.39176e-06
1.14992e-05
-4.43357e-06
8.14319e-06
-2.98669e-06
5.651e-06
-1.94685e-06
3.72777e-06
-1.23409e-06
2.15311e-06
-7.3001e-07
9.74637e-07
-3.58384e-07
3.27285e-07
-1.26388e-07
-3.33071e-08
-1.08843e-05
2.19745e-06
-1.62139e-05
5.31677e-06
-1.37973e-05
5.68413e-06
-3.81001e-06
3.07249e-06
1.24014e-05
-2.13309e-06
3.2816e-05
-9.25629e-06
5.50901e-05
-1.74703e-05
7.68395e-05
-2.58966e-05
9.59004e-05
-3.36907e-05
0.00011056
-4.01264e-05
0.000119708
-4.46642e-05
0.000122915
-4.70001e-05
0.000120433
-4.7087e-05
0.000113083
-4.51185e-05
0.000102065
-4.14786e-05
8.87745e-05
-3.66678e-05
7.45806e-05
-3.12283e-05
6.06364e-05
-2.56578e-05
4.7822e-05
-2.03545e-05
3.67125e-05
-1.56046e-05
2.77537e-05
-1.16201e-05
2.09482e-05
-8.49755e-06
1.56889e-05
-6.11455e-06
1.14962e-05
-4.26925e-06
8.16337e-06
-2.86199e-06
5.47697e-06
-1.84551e-06
3.24108e-06
-1.12635e-06
1.49486e-06
-5.96664e-07
4.42407e-07
-2.24234e-07
-5.13299e-08
-1.19053e-05
2.64929e-06
-1.80452e-05
6.49463e-06
-1.61903e-05
7.23027e-06
-6.55886e-06
4.6273e-06
9.49848e-06
-8.76617e-07
2.9984e-05
-8.54674e-06
5.25772e-05
-1.7493e-05
7.4905e-05
-2.67683e-05
9.47925e-05
-3.54573e-05
0.000110493
-4.27659e-05
0.000120838
-4.80932e-05
0.000125312
-5.10783e-05
0.000124075
-5.16321e-05
0.000117868
-4.99331e-05
0.000107821
-4.63719e-05
9.5278e-05
-4.14686e-05
8.15982e-05
-3.57979e-05
6.7942e-05
-2.9902e-05
5.52023e-05
-2.4219e-05
4.39881e-05
-1.90675e-05
3.4618e-05
-1.46583e-05
2.70711e-05
-1.10721e-05
2.09265e-05
-8.21728e-06
1.57524e-05
-5.92317e-06
1.13721e-05
-4.08494e-06
7.66534e-06
-2.66801e-06
4.55047e-06
-1.63129e-06
2.08782e-06
-8.77636e-07
5.37754e-07
-3.33841e-07
-6.89382e-08
-1.30689e-05
3.16448e-06
-2.01167e-05
7.84614e-06
-1.88765e-05
9.03286e-06
-9.64346e-06
6.50639e-06
6.21774e-06
7.68156e-07
2.67331e-05
-7.38966e-06
4.96124e-05
-1.70193e-05
7.25014e-05
-2.7112e-05
9.32257e-05
-3.66888e-05
0.000110012
-4.48917e-05
0.000121632
-5.1057e-05
0.000127489
-5.47684e-05
0.000127646
-5.5894e-05
0.000122754
-5.4586e-05
0.000113875
-5.12304e-05
0.000102289
-4.63617e-05
8.93259e-05
-4.05792e-05
7.61532e-05
-3.44626e-05
6.36691e-05
-2.84896e-05
5.25054e-05
-2.30087e-05
4.27792e-05
-1.82133e-05
3.44105e-05
-1.41471e-05
2.72396e-05
-1.07654e-05
2.09353e-05
-7.96573e-06
1.53105e-05
-5.64143e-06
1.03062e-05
-3.7426e-06
6.00548e-06
-2.26647e-06
2.6205e-06
-1.17393e-06
5.53568e-07
-4.18628e-07
-7.47845e-08
-1.43969e-05
3.74684e-06
-2.24559e-05
9.37961e-06
-2.18717e-05
1.10983e-05
-1.30746e-05
8.71416e-06
2.54607e-06
2.80993e-06
2.30415e-05
-5.76684e-06
4.61582e-05
-1.60172e-05
6.95685e-05
-2.68778e-05
9.11093e-05
-3.73133e-05
0.000108991
-4.64094e-05
0.000121937
-5.3446e-05
0.000129268
-5.79515e-05
0.000130951
-5.9747e-05
0.000127541
-5.89505e-05
0.000120022
-5.59312e-05
0.00010961
-5.12315e-05
9.75888e-05
-4.54709e-05
8.51217e-05
-3.92587e-05
7.31068e-05
-3.31079e-05
6.2179e-05
-2.73927e-05
5.21782e-05
-2.22693e-05
4.29113e-05
-1.77207e-05
3.45481e-05
-1.37544e-05
2.69226e-05
-1.03709e-05
1.98285e-05
-7.48607e-06
1.32439e-05
-5.02873e-06
7.41801e-06
-2.99947e-06
2.91387e-06
-1.44889e-06
4.21708e-07
-4.50364e-07
-6.02597e-08
-1.59115e-05
4.40014e-06
-2.50902e-05
1.1103e-05
-2.51841e-05
1.34294e-05
-1.68531e-05
1.12479e-05
-1.51825e-06
5.24859e-06
1.88958e-05
-3.66873e-06
4.21816e-05
-1.44618e-05
6.60469e-05
-2.60229e-05
8.83509e-05
-3.7269e-05
0.000107301
-4.7238e-05
0.000121582
-5.51589e-05
0.000130442
-6.05059e-05
0.000133755
-6.30504e-05
0.000131972
-6.28721e-05
0.00012599
-6.03168e-05
0.000116958
-5.59237e-05
0.000106106
-5.03265e-05
9.45747e-05
-4.41561e-05
8.32587e-05
-3.79557e-05
7.27656e-05
-3.21214e-05
6.25855e-05
-2.67489e-05
5.23563e-05
-2.17309e-05
4.26165e-05
-1.71285e-05
3.34084e-05
-1.30606e-05
2.45551e-05
-9.50004e-06
1.60869e-05
-6.38161e-06
8.46483e-06
-3.70923e-06
2.79725e-06
-1.65177e-06
1.0269e-07
-4.3792e-07
-3.28992e-08
-1.73776e-05
4.98617e-06
-2.78858e-05
1.28042e-05
-2.88472e-05
1.59709e-05
-2.0998e-05
1.41397e-05
-5.99468e-06
8.1082e-06
1.42667e-05
-1.07127e-06
3.76292e-05
-1.23215e-05
6.18522e-05
-2.45005e-05
8.48352e-05
-3.64918e-05
0.000104793
-4.72949e-05
0.000120378
-5.60912e-05
0.000130784
-6.23075e-05
0.000135793
-6.56663e-05
0.000135752
-6.62036e-05
0.000131462
-6.42367e-05
0.000123997
-6.02916e-05
0.000114524
-5.50032e-05
0.000104147
-4.90173e-05
9.3745e-05
-4.29002e-05
8.38824e-05
-3.70671e-05
7.36264e-05
-3.15391e-05
6.23738e-05
-2.60828e-05
5.10382e-05
-2.07917e-05
3.99242e-05
-1.59211e-05
2.89667e-05
-1.15365e-05
1.83311e-05
-7.61941e-06
8.83794e-06
-4.24015e-06
2.20784e-06
-1.71455e-06
-4.06955e-07
-4.01447e-07
2.01447e-09
-1.48394e-06
1.57367e-08
-1.01434e-05
1.27059e-07
-4.08875e-05
4.56238e-07
-0.000101952
7.54267e-07
-0.000171366
2.19693e-07
-0.000215432
-1.79377e-06
-0.000228994
-5.14675e-06
-0.000228927
-9.36974e-06
-0.0002262
-1.58085e-05
-0.000221906
-2.35998e-05
-0.000220054
-2.71256e-05
-0.000227149
-2.42616e-05
-0.000244058
-1.85041e-05
-0.000266801
-1.29963e-05
-0.000290378
-8.28739e-06
-0.000311072
-4.11953e-06
-0.000326765
-5.87148e-07
-0.000336445
2.32601e-06
-0.000339623
4.69255e-06
-0.000336127
6.60312e-06
-0.000326006
8.08739e-06
-0.000309494
9.13388e-06
-0.000286967
9.72167e-06
-0.000258892
9.83907e-06
-0.000225778
9.48868e-06
-0.00018812
8.6847e-06
-0.000146371
7.44738e-06
-0.000100919
5.79776e-06
-5.19486e-05
3.75004e-06
1.32416e-06
-1.62409e-06
3.75938e-08
-1.10842e-05
2.63028e-07
-4.34888e-05
8.54503e-07
-0.000105126
1.20699e-06
-0.000172096
-1.40995e-07
-0.000212629
-4.22636e-06
-0.000224616
-1.07958e-05
-0.000224791
-1.90171e-05
-0.000222402
-2.99833e-05
-0.000219064
-4.22006e-05
-0.000218458
-4.8003e-05
-0.00022667
-4.3694e-05
-0.000244698
-3.40514e-05
-0.000267862
-2.40638e-05
-0.000291407
-1.50955e-05
-0.000311935
-7.20929e-06
-0.000327497
-5.15222e-07
-0.000337066
5.02606e-06
-0.000340145
9.58245e-06
-0.000336552
1.3291e-05
-0.000326334
1.61807e-05
-0.000309726
1.82152e-05
-0.000287108
1.93485e-05
-0.000258953
1.95558e-05
-0.000225773
1.88415e-05
-0.000188069
1.72327e-05
-0.000146292
1.47687e-05
-0.000100835
1.14905e-05
-5.18897e-05
7.42674e-06
2.62072e-06
-1.82366e-06
6.74546e-08
-1.23679e-05
4.30583e-07
-4.61809e-05
1.22371e-06
-0.000105696
1.3438e-06
-0.000165728
-1.06586e-06
-0.000199946
-7.13642e-06
-0.000210133
-1.66164e-05
-0.000211592
-2.84383e-05
-0.000211418
-4.22814e-05
-0.000211072
-5.55786e-05
-0.000213686
-6.10275e-05
-0.00022427
-5.54382e-05
-0.000243546
-4.38001e-05
-0.000266954
-3.11077e-05
-0.000290332
-1.91319e-05
-0.000310702
-8.48076e-06
-0.00032621
6.66162e-07
-0.000335806
8.37145e-06
-0.000338957
1.48228e-05
-0.000335451
2.01301e-05
-0.000325322
2.42801e-05
-0.000308797
2.71946e-05
-0.000286259
2.87964e-05
-0.000258183
2.90452e-05
-0.000225085
2.79445e-05
-0.000187471
2.55318e-05
-0.000145798
2.18626e-05
-0.000100466
1.69961e-05
-5.16808e-05
1.09757e-05
3.87019e-06
-2.06232e-06
1.03476e-07
-1.37198e-05
6.1748e-07
-4.76784e-05
1.50848e-06
-0.000101476
1.15474e-06
-0.000150968
-2.40818e-06
-0.000177807
-9.98343e-06
-0.000186813
-2.12866e-05
-0.000190489
-3.52859e-05
-0.000193989
-5.03049e-05
-0.000198252
-6.25873e-05
-0.000205448
-6.60695e-05
-0.000219114
-5.92845e-05
-0.0002396
-4.70554e-05
-0.000263234
-3.33831e-05
-0.000286542
-1.99169e-05
-0.000306895
-7.62549e-06
-0.000322517
3.19203e-06
-0.000332343
1.25518e-05
-0.000335788
2.05521e-05
-0.000332599
2.72075e-05
-0.000322785
3.24272e-05
-0.000306563
3.6077e-05
-0.00028431
3.80429e-05
-0.000256503
3.82658e-05
-0.000223661
3.67456e-05
-0.000186297
3.35265e-05
-0.000144877
2.86767e-05
-9.98144e-05
2.22715e-05
-5.13309e-05
1.43681e-05
5.06227e-06
-2.36692e-06
1.48397e-07
-1.49778e-05
7.63978e-07
-4.7513e-05
1.51179e-06
-9.30929e-05
5.00928e-07
-0.000131161
-3.96135e-06
-0.00015141
-1.21584e-05
-0.000160053
-2.37039e-05
-0.00016626
-3.76821e-05
-0.000173579
-5.1827e-05
-0.000182637
-6.20677e-05
-0.000194579
-6.38323e-05
-0.000211453
-5.6808e-05
-0.000233336
-4.50418e-05
-0.000257453
-3.15673e-05
-0.000280914
-1.78005e-05
-0.000301406
-4.78482e-06
-0.00031728
7.06173e-06
-0.000327468
1.76174e-05
-0.00033134
2.68237e-05
-0.000328603
3.45603e-05
-0.000319238
4.06388e-05
-0.000303448
4.48601e-05
-0.000281604
4.70702e-05
-0.000254183
4.71892e-05
-0.000221707
4.52098e-05
-0.000184698
4.11794e-05
-0.000143634
3.51756e-05
-9.89418e-05
2.72869e-05
-5.08658e-05
1.75839e-05
6.18978e-06
-2.72148e-06
1.96632e-07
-1.5676e-05
7.83021e-07
-4.48398e-05
1.04467e-06
-8.09572e-05
-7.59413e-07
-0.000108856
-5.64292e-06
-0.00012443
-1.3498e-05
-0.000133608
-2.38942e-05
-0.000142409
-3.60265e-05
-0.000153145
-4.78015e-05
-0.000166285
-5.57174e-05
-0.000182298
-5.65199e-05
-0.000202105
-5.01458e-05
-0.000225437
-3.94888e-05
-0.000250163
-2.68459e-05
-0.000273905
-1.34468e-05
-0.000294649
-2.69538e-07
-0.000310866
1.2155e-05
-0.000321497
2.35346e-05
-0.000325876
3.3634e-05
-0.000323676
4.21885e-05
-0.000314849
4.89086e-05
-0.000299583
5.35291e-05
-0.000278241
5.5856e-05
-0.000251298
5.57871e-05
-0.00021928
5.33057e-05
-0.000182717
4.84589e-05
-0.000142097
4.13303e-05
-9.78671e-05
3.20191e-05
-5.02954e-05
2.06077e-05
7.24721e-06
-3.04426e-06
2.32303e-07
-1.53974e-05
6.50484e-07
-3.95434e-05
2.48022e-07
-6.64303e-05
-2.25445e-06
-8.66015e-05
-7.12165e-06
-9.9608e-05
-1.39889e-05
-0.000109973
-2.24735e-05
-0.000121172
-3.20072e-05
-0.000134682
-4.10035e-05
-0.00015088
-4.67779e-05
-0.00016994
-4.69855e-05
-0.000192076
-4.14429e-05
-0.000216666
-3.19992e-05
-0.000241978
-2.03357e-05
-0.000266042
-7.51618e-06
-0.000287084
5.56324e-06
-0.000303677
1.82869e-05
-0.000314774
3.02076e-05
-0.000319687
4.0929e-05
-0.000318057
5.00556e-05
-0.000309812
5.72059e-05
-0.000295124
6.20548e-05
-0.000274344
6.43711e-05
-0.000247944
6.40302e-05
-0.000216453
6.10046e-05
-0.000180406
5.53382e-05
-0.000140306
4.71175e-05
-9.66167e-05
3.64497e-05
-4.96332e-05
2.34278e-05
8.23054e-06
-3.22602e-06
2.40602e-07
-1.40582e-05
3.94243e-07
-3.25282e-05
-6.12038e-07
-5.16417e-05
-3.47167e-06
-6.67048e-05
-7.92869e-06
-7.87022e-05
-1.35327e-05
-9.03524e-05
-2.00568e-05
-0.00010344
-2.71646e-05
-0.000118966
-3.36806e-05
-0.000137275
-3.76198e-05
-0.000158428
-3.7238e-05
-0.000182201
-3.2236e-05
-0.000207724
-2.37043e-05
-0.000233506
-1.28327e-05
-0.000257853
-5.29689e-07
-0.000279168
1.2388e-05
-0.000296106
2.5255e-05
-0.000307637
3.7507e-05
-0.000313058
4.86212e-05
-0.000311984
5.80982e-05
-0.000304322
6.54819e-05
-0.000290225
7.03976e-05
-0.000270035
7.25815e-05
-0.000244217
7.18891e-05
-0.0002133
6.8281e-05
-0.000177824
6.17957e-05
-0.000138303
5.25197e-05
-9.52194e-05
4.05658e-05
-4.88946e-05
2.60364e-05
9.13721e-06
-3.17718e-06
2.11431e-07
-1.18687e-05
6.63171e-08
-2.50911e-05
-1.32734e-06
-3.85776e-05
-4.14706e-06
-5.06756e-05
-7.94531e-06
-6.23602e-05
-1.23434e-05
-7.49022e-05
-1.72426e-05
-8.92515e-05
-2.24038e-05
-0.000106123
-2.6887e-05
-0.000125802
-2.92459e-05
-0.000148276
-2.8164e-05
-0.000173081
-2.32736e-05
-0.000199201
-1.52058e-05
-0.000225284
-4.81073e-06
-0.000249811
7.15182e-06
-0.000271313
1.99384e-05
-0.000288513
3.28644e-05
-0.000300396
4.52897e-05
-0.000306253
5.66044e-05
-0.000305679
6.62366e-05
-0.000298562
7.3676e-05
-0.000285039
7.85109e-05
-0.000265438
8.04516e-05
-0.000240216
7.9336e-05
-0.000209898
7.51132e-05
-0.000175029
6.78146e-05
-0.000136132
5.75245e-05
-9.37048e-05
4.43594e-05
-4.80949e-05
2.84294e-05
9.966e-06
-2.86398e-06
1.46405e-07
-9.26015e-06
-2.48883e-07
-1.84098e-05
-1.73468e-06
-2.83322e-05
-4.21564e-06
-3.87578e-05
-7.31842e-06
-5.02258e-05
-1.07602e-05
-6.32094e-05
-1.44265e-05
-7.83246e-05
-1.80335e-05
-9.60445e-05
-2.08389e-05
-0.000116544
-2.18029e-05
-0.000139773
-1.99004e-05
-0.000165144
-1.4744e-05
-0.000191558
-6.73472e-06
-0.000217748
3.48916e-06
-0.00024231
1.52958e-05
-0.000263869
2.80062e-05
-0.000281203
4.0939e-05
-0.00029332
5.34126e-05
-0.000299503
6.47649e-05
-0.000299337
7.4383e-05
-0.000292697
8.17221e-05
-0.000279702
8.63459e-05
-0.000260664
8.79458e-05
-0.00023603
8.63454e-05
-0.000206321
8.14836e-05
-0.000172079
7.33834e-05
-0.000133835
6.21252e-05
-9.21018e-05
4.78272e-05
-4.72495e-05
3.06056e-05
1.07169e-05
-2.33432e-06
6.01603e-08
-6.74971e-06
-4.79157e-07
-1.32175e-05
-1.80863e-06
-2.10919e-05
-3.81114e-06
-3.04652e-05
-6.27365e-06
-4.16077e-05
-8.97437e-06
-5.4755e-05
-1.16773e-05
-7.03111e-05
-1.40028e-05
-8.85366e-05
-1.53841e-05
-0.000109493
-1.50669e-05
-0.00013309
-1.22468e-05
-0.000158677
-6.5661e-06
-0.000185121
1.67675e-06
-0.000211219
1.19616e-05
-0.000235648
2.37542e-05
-0.000257103
3.64291e-05
-0.000274418
4.93253e-05
-0.000286622
6.17413e-05
-0.000292997
7.29903e-05
-0.000293124
8.24492e-05
-0.000286867
8.95536e-05
-0.000274332
9.38549e-05
-0.000255813
9.50309e-05
-0.000231743
9.28951e-05
-0.000202633
8.7379e-05
-0.000169025
7.84955e-05
-0.000131453
6.63195e-05
-9.04379e-05
5.09696e-05
-4.63727e-05
3.25668e-05
1.13909e-05
-1.69803e-06
-2.80554e-08
-4.71682e-06
-5.9718e-07
-9.66458e-06
-1.64483e-06
-1.64317e-05
-3.18085e-06
-2.51119e-05
-5.0828e-06
-3.59139e-05
-7.11965e-06
-4.90906e-05
-8.94715e-06
-6.48805e-05
-1.01498e-05
-8.34053e-05
-1.02621e-05
-0.000104609
-8.72203e-06
-0.000128329
-4.92156e-06
-0.00015388
1.42115e-06
-0.000180135
1.00596e-05
-0.000205954
2.05498e-05
-0.000230074
3.2412e-05
-0.000251244
4.50599e-05
-0.000268349
5.78615e-05
-0.000280463
7.01333e-05
-0.000286877
8.11739e-05
-0.000287166
9.03513e-05
-0.000281184
9.71074e-05
-0.000269027
0.000100994
-0.000250969
0.000101678
-0.000227423
9.89668e-05
-0.000198894
9.2791e-05
-0.000165916
8.31489e-05
-0.00012902
7.01093e-05
-8.87384e-05
5.37908e-05
-4.5478e-05
3.43174e-05
1.19899e-05
-1.08933e-06
-9.99597e-08
-3.33101e-06
-6.16479e-07
-7.53751e-06
-1.37596e-06
-1.37477e-05
-2.5063e-06
-2.20565e-05
-3.8808e-06
-3.26761e-05
-5.23127e-06
-4.58633e-05
-6.18096e-06
-6.17954e-05
-6.32281e-06
-8.05205e-05
-5.24674e-06
-0.000101843
-2.52759e-06
-0.000125507
2.27136e-06
-0.00015084
9.3393e-06
-0.000176738
1.84505e-05
-0.000202108
2.92132e-05
-0.000225744
4.11767e-05
-0.000246459
5.37872e-05
-0.000263171
6.64321e-05
-0.000275003
7.84672e-05
-0.000281286
8.92035e-05
-0.00028159
9.79976e-05
-0.00027576
0.00010431
-0.000263876
0.000107703
-0.000246198
0.000107848
-0.000223127
0.000104545
-0.000195153
9.77159e-05
-0.000162791
8.73455e-05
-0.00012657
7.34998e-05
-8.70254e-05
5.62976e-05
-4.45773e-05
3.58632e-05
1.25164e-05
-6.60661e-07
-1.33656e-07
-2.64133e-06
-5.74401e-07
-6.62121e-06
-1.0767e-06
-1.26579e-05
-1.84648e-06
-2.08826e-05
-2.67212e-06
-3.15126e-05
-3.28284e-06
-4.47879e-05
-3.32357e-06
-6.0872e-05
-2.41242e-06
-7.97719e-05
-1.8698e-07
-0.000101132
3.67415e-06
-0.000124591
9.46119e-06
-0.000149544
1.72767e-05
-0.000174932
2.68932e-05
-0.000199686
3.79405e-05
-0.000222667
4.99934e-05
-0.000242755
6.25309e-05
-0.000258922
7.49619e-05
-0.000270318
8.66645e-05
-0.000276306
9.69871e-05
-0.000276477
0.000105307
-0.000270674
0.0001111
-0.000258953
0.000113936
-0.000241568
0.000113506
-0.000218917
0.00010961
-0.000191459
0.000102143
-0.000159686
9.10859e-05
-0.000124128
7.64995e-05
-8.53179e-05
5.84993e-05
-4.36806e-05
3.72116e-05
1.29735e-05
-6.96122e-07
-2.85029e-08
-2.87395e-06
-5.24716e-07
-6.93687e-06
-7.76541e-07
-1.30415e-05
-1.13035e-06
-2.13799e-05
-1.34321e-06
-3.21715e-05
-1.15461e-06
-4.56386e-05
-2.41909e-07
-6.19253e-05
1.73899e-06
-8.09665e-05
5.08686e-06
-0.000102303
1.00585e-05
-0.000125479
1.68426e-05
-0.000149916
2.54074e-05
-0.000174635
3.55087e-05
-0.000198596
4.68084e-05
-0.000220738
5.88986e-05
-0.000240013
7.12938e-05
-0.000255458
8.3434e-05
-0.00026626
9.47189e-05
-0.000271806
0.000104534
-0.000271711
0.000112297
-0.00026582
0.000117501
-0.000254183
0.000119733
-0.000237037
0.000118694
-0.00021476
0.000114185
-0.000187783
0.00010609
-0.000156591
9.43918e-05
-0.000121699
7.9138e-05
-8.36223e-05
6.04256e-05
-4.27939e-05
3.83853e-05
1.33697e-05
-1.90312e-05
5.39038e-06
-3.14326e-05
1.41381e-05
-3.39492e-05
1.83904e-05
-2.65912e-05
1.73361e-05
-1.13895e-05
1.14741e-05
9.41549e-06
2.09818e-06
3.36474e-05
-9.52585e-06
5.9046e-05
-2.22357e-05
8.34961e-05
-3.48949e-05
0.000105173
-4.64815e-05
0.00012265
-5.61383e-05
0.000135039
-6.32437e-05
0.000142031
-6.74729e-05
0.000143881
-6.88167e-05
0.000141317
-6.75566e-05
0.000135362
-6.41959e-05
0.000127149
-5.93617e-05
0.00011777
-5.37018e-05
0.000108112
-4.77973e-05
9.87069e-05
-4.20813e-05
8.81175e-05
-3.64948e-05
7.53236e-05
-3.06412e-05
6.16282e-05
-2.4606e-05
4.77718e-05
-1.88128e-05
3.38915e-05
-1.34619e-05
2.04613e-05
-8.62844e-06
8.86513e-06
-4.52768e-06
1.30518e-06
-1.60373e-06
-1.34982e-06
-1.75142e-07
1.1557e-07
-6.90391e-07
-1.9952e-05
5.73164e-06
-3.37486e-05
1.51614e-05
-3.82755e-05
2.03118e-05
-3.24427e-05
2.03758e-05
-1.76261e-05
1.52398e-05
3.38216e-06
5.91005e-06
2.80628e-05
-6.01346e-06
5.41932e-05
-1.91648e-05
7.96912e-05
-3.24071e-05
0.000102747
-4.47104e-05
0.000121884
-5.51914e-05
0.00013614
-6.31829e-05
0.000145129
-6.83154e-05
0.000149005
-7.05339e-05
0.000148397
-7.0076e-05
0.000144251
-6.74128e-05
0.000137638
-6.31544e-05
0.000129596
-5.79436e-05
0.000121
-5.23663e-05
0.000112356
-4.68732e-05
0.000101772
-4.13478e-05
8.75212e-05
-3.51712e-05
7.12403e-05
-2.8348e-05
5.44269e-05
-2.15391e-05
3.7523e-05
-1.51461e-05
2.14888e-05
-9.37957e-06
8.22649e-06
-4.61794e-06
-8.46192e-08
-1.32281e-06
-3.18606e-06
3.68642e-07
9.30011e-07
-3.29166e-06
-2.07746e-05
6.09572e-06
-3.54781e-05
1.61629e-05
-4.15596e-05
2.18944e-05
-3.79245e-05
2.28415e-05
-2.45933e-05
1.88542e-05
-3.8012e-06
1.02124e-05
2.1245e-05
-1.74402e-06
4.79792e-05
-1.5251e-05
7.4396e-05
-2.89735e-05
9.87221e-05
-4.19029e-05
0.000119446
-5.31428e-05
0.000135537
-6.19874e-05
0.00014653
-6.80215e-05
0.000152482
-7.11433e-05
0.000153915
-7.15448e-05
0.00015168
-6.96555e-05
0.000146772
-6.60564e-05
0.000140172
-6.13779e-05
0.000132727
-5.62076e-05
0.000124983
-5.10245e-05
0.000114872
-4.57501e-05
9.92443e-05
-3.94339e-05
7.99996e-05
-3.18094e-05
6.00665e-05
-2.39247e-05
4.01589e-05
-1.65084e-05
2.18233e-05
-9.89148e-06
7.15881e-06
-4.55375e-06
-2.11087e-06
-8.58807e-07
-6.24313e-06
1.19429e-06
2.09298e-06
-7.2828e-06
-2.16878e-05
6.47568e-06
-3.72232e-05
1.72323e-05
-4.42366e-05
2.35103e-05
-4.23239e-05
2.49899e-05
-3.12959e-05
2.19036e-05
-1.19124e-05
1.44215e-05
1.30533e-05
3.11246e-06
4.02467e-05
-1.04615e-05
6.74096e-05
-2.45538e-05
9.28587e-05
-3.80002e-05
0.00011503
-4.99092e-05
0.000132844
-5.95355e-05
0.000145757
-6.64283e-05
0.000153731
-7.04398e-05
0.000157175
-7.17108e-05
0.000156836
-7.06246e-05
0.000153612
-6.77246e-05
0.000148412
-6.36129e-05
0.000142054
-5.88679e-05
0.000135161
-5.39885e-05
0.000125835
-4.89534e-05
0.000109405
-4.26841e-05
8.75087e-05
-3.46406e-05
6.44897e-05
-2.58885e-05
4.18071e-05
-1.75151e-05
2.1577e-05
-1.01633e-05
5.60794e-06
-4.30688e-06
-4.98317e-06
-1.53661e-07
-1.07979e-05
2.38507e-06
3.77368e-06
-1.34676e-05
-2.27026e-05
6.87178e-06
-3.91989e-05
1.83571e-05
-4.70869e-05
2.52583e-05
-4.62182e-05
2.72526e-05
-3.70444e-05
2.471e-05
-1.99707e-05
1.81483e-05
3.71255e-06
7.96921e-06
3.08401e-05
-4.97874e-06
5.85415e-05
-1.9125e-05
8.4934e-05
-3.29754e-05
0.000108343
-4.54416e-05
0.000127677
-5.57427e-05
0.000142324
-6.34056e-05
0.000152156
-6.82422e-05
0.000157459
-7.0342e-05
0.00015887
-7.00361e-05
0.000157169
-6.7823e-05
0.000153174
-6.42627e-05
0.000147628
-5.98992e-05
0.000141112
-5.51908e-05
0.00013169
-5.00159e-05
0.00011501
-4.35453e-05
9.21825e-05
-3.55261e-05
6.71801e-05
-2.66995e-05
4.24811e-05
-1.79708e-05
2.0656e-05
-1.01332e-05
3.30021e-06
-3.76583e-06
-8.93919e-06
9.02115e-07
-1.68132e-05
4.00326e-06
5.95539e-06
-2.14107e-05
-2.38416e-05
7.28419e-06
-4.143e-05
1.95382e-05
-5.03692e-05
2.71223e-05
-5.0506e-05
2.97344e-05
-4.2516e-05
2.77384e-05
-2.73598e-05
2.17606e-05
-5.83105e-06
1.24717e-05
2.01797e-05
4.99943e-07
4.78221e-05
-1.31089e-05
7.47525e-05
-2.69264e-05
9.91394e-05
-3.97249e-05
0.000119708
-5.0573e-05
0.000135794
-5.88771e-05
0.000147196
-6.44217e-05
0.000154081
-6.72523e-05
0.000156966
-6.76497e-05
0.000156514
-6.6065e-05
0.000153415
-6.30044e-05
0.000148274
-5.89572e-05
0.000141477
-5.43149e-05
0.000130741
-4.88501e-05
0.000113413
-4.19434e-05
9.09797e-05
-3.38133e-05
6.61773e-05
-2.52977e-05
4.12203e-05
-1.69728e-05
1.84773e-05
-9.26282e-06
-2.23668e-07
-2.6656e-06
-1.42885e-05
2.47831e-06
-2.43255e-05
6.17559e-06
8.70911e-06
-3.09157e-05
-2.51256e-05
7.71193e-06
-4.39572e-05
2.07729e-05
-5.41137e-05
2.90977e-05
-5.54712e-05
3.24092e-05
-4.86639e-05
3.10866e-05
-3.48283e-05
2.57294e-05
-1.51569e-05
1.70829e-05
9.11046e-06
5.89964e-06
3.56988e-05
-6.893e-06
6.2339e-05
-2.01575e-05
8.72483e-05
-3.28834e-05
0.00010869
-4.40517e-05
0.000125831
-5.28347e-05
0.000138403
-5.89274e-05
0.000146459
-6.23317e-05
0.000150439
-6.32981e-05
0.000150882
-6.22468e-05
0.000148332
-5.96186e-05
0.000143246
-5.58435e-05
0.00013585
-5.12733e-05
0.000123834
-4.57015e-05
0.000105567
-3.85985e-05
8.33637e-05
-3.03526e-05
5.97722e-05
-2.1999e-05
3.60293e-05
-1.40937e-05
1.36246e-05
-6.82018e-06
-5.8238e-06
-4.03734e-07
-2.15174e-05
4.93759e-06
-3.35863e-05
9.10858e-06
1.21945e-05
-4.20925e-05
-2.65728e-05
8.15193e-06
-4.68148e-05
2.20523e-05
-5.83702e-05
3.11708e-05
-6.11497e-05
3.52596e-05
-5.57839e-05
3.47142e-05
-4.33432e-05
3.01329e-05
-2.51734e-05
2.22466e-05
-2.60763e-06
1.1844e-05
2.23887e-05
-1.48402e-07
4.79548e-05
-1.27237e-05
7.26629e-05
-2.50691e-05
9.44757e-05
-3.62517e-05
0.000112238
-4.53277e-05
0.0001255
-5.18078e-05
0.000134178
-5.55704e-05
0.000138804
-5.69125e-05
0.00013976
-5.62758e-05
0.000137448
-5.401e-05
0.000132226
-5.04912e-05
0.000124293
-4.60557e-05
0.000111692
-4.05549e-05
9.31632e-05
-3.35631e-05
7.13231e-05
-2.55302e-05
4.87497e-05
-1.74611e-05
2.62952e-05
-9.86242e-06
4.9023e-06
-2.90756e-06
-1.44795e-05
3.2638e-06
-3.11529e-05
8.57574e-06
-4.49422e-05
1.30078e-05
1.65694e-05
-5.53228e-05
-2.81974e-05
8.59907e-06
-5.00301e-05
2.33619e-05
-6.31773e-05
3.33184e-05
-6.7593e-05
3.82541e-05
-6.39094e-05
3.85823e-05
-5.31769e-05
3.49006e-05
-3.671e-05
2.79346e-05
-1.59236e-05
1.84764e-05
7.37433e-06
7.39822e-06
3.15081e-05
-4.38673e-06
5.52586e-05
-1.60973e-05
7.67713e-05
-2.69336e-05
9.47556e-05
-3.61048e-05
0.000108299
-4.29384e-05
0.000117065
-4.69956e-05
0.00012183
-4.85546e-05
0.000122935
-4.81884e-05
0.000120622
-4.62182e-05
0.000115224
-4.29562e-05
0.000106966
-3.87334e-05
9.43237e-05
-3.34608e-05
7.63671e-05
-2.68105e-05
5.55494e-05
-1.92194e-05
3.41079e-05
-1.16072e-05
1.27916e-05
-4.42979e-06
-7.62705e-06
2.18232e-06
-2.65316e-05
8.12537e-06
-4.35084e-05
1.33446e-05
-5.84499e-05
1.78578e-05
2.16466e-05
-7.03388e-05
-3.00091e-05
9.04638e-06
-5.36218e-05
2.46815e-05
-6.8562e-05
3.55087e-05
-7.48365e-05
4.13504e-05
-7.30857e-05
4.26389e-05
-6.43405e-05
3.99703e-05
-4.99068e-05
3.40567e-05
-3.12017e-05
2.56832e-05
-9.85475e-06
1.56725e-05
1.25403e-05
4.86839e-06
3.47031e-05
-5.94645e-06
5.5182e-05
-1.60805e-05
7.27708e-05
-2.49036e-05
8.62936e-05