/*--------------------------------*- C++ -*----------------------------------*\
| =========                 |                                                 |
| \\      /  F ield         | OpenFOAM: The Open Source CFD Toolbox           |
|  \\    /   O peration     | Version:  dev                                   |
|   \\  /    A nd           | Web:      www.OpenFOAM.org                      |
|    \\/     M anipulation  |                                                 |
\*---------------------------------------------------------------------------*/
FoamFile
{
    version     2.0;
    format      ascii;
    class       volVectorField;
    location    "1";
    object      cellDisplacement;
}
// * * * * * * * * * * * * * * * * * * * * * * * * * * * * * * * * * * * * * //

dimensions      [0 1 0 0 0 0 0];

internalField   nonuniform List<vector> 
2790
(
(0.00984103 0 -2.999e-05)
(0.0281083 0 -8.59689e-05)
(0.0437234 0 -0.000134993)
(0.0569122 0 -0.000178149)
(0.0679199 0 -0.000216393)
(0.0769615 0 -0.000250383)
(0.0842239 0 -0.000280567)
(0.0898683 0 -0.000307311)
(0.0940396 0 -0.000330037)
(0.0968676 0 -0.00034885)
(0.0984629 0 -0.000363494)
(0.0989224 0 -0.000373509)
(0.0983318 0 -0.000378271)
(0.0967677 0 -0.000376994)
(0.0943004 0 -0.000368721)
(0.0909951 0 -0.000352318)
(0.086914 0 -0.000326464)
(0.082119 0 -0.000289644)
(0.0766727 0 -0.000240131)
(0.0706408 0 -0.000175924)
(0.0640946 0 -9.47578e-05)
(0.057114 0 5.89136e-06)
(0.0497914 0 0.000128793)
(0.0422374 0 0.000276938)
(0.0345882 0 0.000453481)
(0.0270181 0 0.000661696)
(0.0197652 0 0.000904597)
(0.0131791 0 0.00118308)
(0.00779896 0 0.00148806)
(0.00471451 0 0.00176994)
(0.00985418 0 -9.00494e-05)
(0.0281476 0 -0.000258159)
(0.0437877 0 -0.000405436)
(0.0570017 0 -0.000535116)
(0.0680369 0 -0.000650097)
(0.0771091 0 -0.000752351)
(0.0844063 0 -0.000843204)
(0.0900885 0 -0.000924044)
(0.0943014 0 -0.000992664)
(0.0971775 0 -0.00104971)
(0.0988277 0 -0.00109438)
(0.0993496 0 -0.00112532)
(0.0988298 0 -0.00114069)
(0.0973462 0 -0.00113817)
(0.0949703 0 -0.00111493)
(0.0917685 0 -0.00106764)
(0.0878049 0 -0.000992395)
(0.0831431 0 -0.000884746)
(0.0778484 0 -0.000739655)
(0.0719893 0 -0.000551271)
(0.0656404 0 -0.000313002)
(0.0588858 0 -1.75655e-05)
(0.0518236 0 0.000342909)
(0.0445718 0 0.000776672)
(0.0372762 0 0.00129181)
(0.0301195 0 0.00189566)
(0.023348 0 0.00259299)
(0.0173444 0 0.00338089)
(0.0127345 0 0.00422386)
(0.0106426 0 0.00495538)
(0.00988155 0 -0.000150331)
(0.0282289 0 -0.000431053)
(0.0439199 0 -0.000677166)
(0.0571846 0 -0.000893965)
(0.068275 0 -0.00108639)
(0.0774084 0 -0.00125772)
(0.0847757 0 -0.00141001)
(0.0905312 0 -0.00154356)
(0.0948256 0 -0.0016588)
(0.097797 0 -0.00175535)
(0.0995557 0 -0.00183174)
(0.100201 0 -0.00188577)
(0.0998207 0 -0.0019145)
(0.0984959 0 -0.0019142)
(0.0962999 0 -0.00188037)
(0.0933023 0 -0.00180765)
(0.0895699 0 -0.00168985)
(0.08517 0 -0.0015199)
(0.0801733 0 -0.00129002)
(0.0746536 0 -0.000991056)
(0.0686916 0 -0.000612859)
(0.0623797 0 -0.000144426)
(0.055827 0 0.000425771)
(0.0491664 0 0.00110928)
(0.0425705 0 0.00191578)
(0.0362464 0 0.00285172)
(0.0304485 0 0.00391719)
(0.0255382 0 0.00509339)
(0.0222157 0 0.00629931)
(0.0217457 0 0.00725103)
(0.00992283 0 -0.000210628)
(0.0283518 0 -0.000604045)
(0.0441184 0 -0.000949285)
(0.0574576 0 -0.00125347)
(0.0686299 0 -0.00152381)
(0.0778536 0 -0.0017649)
(0.0853177 0 -0.00197957)
(0.0911832 0 -0.00216704)
(0.0956056 0 -0.00233066)
(0.0987196 0 -0.00246889)
(0.10064 0 -0.00257976)
(0.101468 0 -0.0026604)
(0.101295 0 -0.00270696)
(0.100206 0 -0.00271453)
(0.0982778 0 -0.00267719)
(0.0955833 0 -0.00258797)
(0.0921942 0 -0.00243875)
(0.0881819 0 -0.00222033)
(0.0836263 0 -0.00192327)
(0.0786079 0 -0.00153594)
(0.0732157 0 -0.00104587)
(0.0675518 0 -0.00043998)
(0.0617381 0 0.000294606)
(0.0559178 0 0.0011704)
(0.0503099 0 0.0021939)
(0.0451549 0 0.00336428)
(0.0407626 0 0.00466399)
(0.0374741 0 0.00604811)
(0.0358536 0 0.00739459)
(0.0374188 0 0.00830103)
(0.00997718 0 -0.000270921)
(0.0285154 0 -0.000777081)
(0.0443803 0 -0.0012205)
(0.0578154 0 -0.00161182)
(0.0690955 0 -0.00196018)
(0.0784384 0 -0.00227145)
(0.0860324 0 -0.00254992)
(0.0920438 0 -0.00279493)
(0.0966324 0 -0.00300929)
(0.0999333 0 -0.00319206)
(0.102065 0 -0.00334107)
(0.103133 0 -0.00345304)
(0.103233 0 -0.00352342)
(0.102453 0 -0.00354646)
(0.100874 0 -0.00351519)
(0.0985767 0 -0.00342149)
(0.0956374 0 -0.00325595)
(0.0921301 0 -0.00300743)
(0.0881519 0 -0.00266692)
(0.0837902 0 -0.00222096)
(0.0791454 0 -0.00165635)
(0.074333 0 -0.000960043)
(0.0694979 0 -0.000121306)
(0.0647883 0 0.000871507)
(0.0604163 0 0.00201951)
(0.0566826 0 0.00330536)
(0.0539719 0 0.00468512)
(0.0526791 0 0.00607341)
(0.05318 0 0.00732904)
(0.0569382 0 0.0079559)
(0.0100439 0 -0.000331147)
(0.0287034 0 -0.000949707)
(0.0446892 0 -0.00149142)
(0.0582545 0 -0.00197058)
(0.0696687 0 -0.00239766)
(0.0791602 0 -0.00278)
(0.0869118 0 -0.00312163)
(0.0930994 0 -0.00342518)
(0.0978901 0 -0.0036926)
(0.101419 0 -0.00392305)
(0.103808 0 -0.00411439)
(0.105169 0 -0.00426318)
(0.1056 0 -0.00436454)
(0.105195 0 -0.00441223)
(0.104043 0 -0.00439875)
(0.102229 0 -0.00431542)
(0.0998409 0 -0.00415267)
(0.0969648 0 -0.00390008)
(0.0936906 0 -0.00354504)
(0.0901264 0 -0.00307589)
(0.0863857 0 -0.00248062)
(0.0825931 0 -0.00174728)
(0.0789314 0 -0.000871209)
(0.0755779 0 0.000150695)
(0.0727286 0 0.00131161)
(0.0706756 0 0.00258307)
(0.0698457 0 0.00389067)
(0.0707457 0 0.00509728)
(0.0736842 0 0.00604011)
(0.0795767 0 0.00621699)
(0.0101232 0 -0.000390978)
(0.028929 0 -0.00112145)
(0.0450567 0 -0.00176211)
(0.0587718 0 -0.00232942)
(0.0703432 0 -0.00283592)
(0.0800019 0 -0.00329019)
(0.0879406 0 -0.00369666)
(0.0943426 0 -0.00406116)
(0.0993711 0 -0.0043847)
(0.103167 0 -0.00466681)
(0.105859 0 -0.00490556)
(0.107561 0 -0.00509779)
(0.10838 0 -0.00523857)
(0.108415 0 -0.00532158)
(0.10776 0 -0.00533929)
(0.106509 0 -0.005283)
(0.104753 0 -0.00514269)
(0.10261 0 -0.00491212)
(0.100161 0 -0.00457552)
(0.0975272 0 -0.00412347)
(0.0948472 0 -0.00354838)
(0.0922566 0 -0.00284102)
(0.0899281 0 -0.00199952)
(0.0880765 0 -0.00103344)
(0.0869664 0 3.1191e-05)
(0.0868635 0 0.00115092)
(0.0880958 0 0.002241)
(0.0912863 0 0.00311354)
(0.0967027 0 0.00357085)
(0.104678 0 0.00318126)
(0.0102162 0 -0.000450658)
(0.0291895 0 -0.00129209)
(0.045476 0 -0.00203095)
(0.0593597 0 -0.00268624)
(0.0711096 0 -0.00327247)
(0.0809609 0 -0.0037998)
(0.0891159 0 -0.00427472)
(0.0957598 0 -0.00470264)
(0.101058 0 -0.00508559)
(0.105157 0 -0.00542361)
(0.10819 0 -0.00571523)
(0.11028 0 -0.00595807)
(0.111536 0 -0.00614742)
(0.112066 0 -0.00627734)
(0.111973 0 -0.00634082)
(0.111358 0 -0.00633009)
(0.110331 0 -0.00623798)
(0.108997 0 -0.00605461)
(0.107468 0 -0.0057701)
(0.105866 0 -0.00537593)
(0.104369 0 -0.00487199)
(0.10313 0 -0.0042553)
(0.102313 0 -0.00352888)
(0.102145 0 -0.00271109)
(0.102898 0 -0.00184179)
(0.104907 0 -0.00099582)
(0.108403 0 -0.000262425)
(0.113905 0 0.000154082)
(0.121686 0 2.11578e-05)
(0.131702 0 -0.00100148)
(0.0103059 0 -0.000509436)
(0.0294668 0 -0.00146138)
(0.0459433 0 -0.00229884)
(0.060015 0 -0.00304237)
(0.0719641 0 -0.00370908)
(0.0820314 0 -0.00431084)
(0.0904264 0 -0.00485574)
(0.0973379 0 -0.00534963)
(0.102935 0 -0.00579542)
(0.107369 0 -0.00619382)
(0.110778 0 -0.00654391)
(0.113294 0 -0.00684487)
(0.115032 0 -0.00709237)
(0.116106 0 -0.00728125)
(0.116627 0 -0.00740548)
(0.116702 0 -0.00745777)
(0.116472 0 -0.0074373)
(0.116029 0 -0.00733118)
(0.115509 0 -0.0071351)
(0.115059 0 -0.00684626)
(0.114838 0 -0.00646424)
(0.115023 0 -0.00599478)
(0.115843 0 -0.00545741)
(0.117523 0 -0.0048806)
(0.12028 0 -0.00430671)
(0.124498 0 -0.0038368)
(0.130406 0 -0.00358)
(0.138237 0 -0.00371451)
(0.148309 0 -0.00450002)
(0.160216 0 -0.00616921)
(0.0104069 0 -0.00056767)
(0.0297747 0 -0.00162968)
(0.0464557 0 -0.00256541)
(0.0607315 0 -0.00339721)
(0.0728982 0 -0.004145)
(0.0832016 0 -0.00482235)
(0.0918575 0 -0.00543886)
(0.0990591 0 -0.0060012)
(0.10498 0 -0.00651326)
(0.109775 0 -0.00697657)
(0.113589 0 -0.00739038)
(0.116565 0 -0.00775712)
(0.118822 0 -0.00807236)
(0.120481 0 -0.00833228)
(0.121662 0 -0.00853277)
(0.122489 0 -0.00866988)
(0.123093 0 -0.00874057)
(0.123595 0 -0.00873921)
(0.124138 0 -0.00866402)
(0.124913 0 -0.00852289)
(0.126061 0 -0.00831661)
(0.127786 0 -0.00805979)
(0.130304 0 -0.00777633)
(0.133914 0 -0.00751941)
(0.138826 0 -0.00733951)
(0.145315 0 -0.00733223)
(0.153677 0 -0.00763959)
(0.163907 0 -0.00840267)
(0.176212 0 -0.00987165)
(0.189813 0 -0.0121651)
(0.0105172 0 -0.000625422)
(0.0301097 0 -0.0017966)
(0.0470066 0 -0.00282892)
(0.0614978 0 -0.00374825)
(0.0738975 0 -0.00457715)
(0.0844534 0 -0.00533071)
(0.0933872 0 -0.00601999)
(0.100897 0 -0.00665282)
(0.107161 0 -0.00723421)
(0.112339 0 -0.00776682)
(0.11659 0 -0.00825268)
(0.120056 0 -0.008693)
(0.12286 0 -0.0090852)
(0.125132 0 -0.00942758)
(0.127005 0 -0.00971841)
(0.128616 0 -0.00995708)
(0.130095 0 -0.0101417)
(0.131584 0 -0.0102723)
(0.133248 0 -0.0103537)
(0.135252 0 -0.0103917)
(0.137812 0 -0.0104061)
(0.141141 0 -0.0104197)
(0.145426 0 -0.0104572)
(0.151006 0 -0.0105872)
(0.158121 0 -0.0108798)
(0.166942 0 -0.0114164)
(0.177783 0 -0.0123546)
(0.190488 0 -0.013804)
(0.20498 0 -0.0159609)
(0.220076 0 -0.0188278)
(0.010634 0 -0.000682465)
(0.0304518 0 -0.00196086)
(0.0475772 0 -0.00308899)
(0.0623088 0 -0.00409632)
(0.0749568 0 -0.00500668)
(0.0857803 0 -0.00583727)
(0.0950073 0 -0.00660073)
(0.102841 0 -0.00730621)
(0.109466 0 -0.00796006)
(0.115049 0 -0.0085665)
(0.119753 0 -0.009129)
(0.123724 0 -0.00964925)
(0.127094 0 -0.0101268)
(0.13 0 -0.010562)
(0.132582 0 -0.0109557)
(0.134993 0 -0.0113114)
(0.137368 0 -0.0116295)
(0.139858 0 -0.0119146)
(0.142665 0 -0.0121818)
(0.145945 0 -0.0124396)
(0.149907 0 -0.01271)
(0.154815 0 -0.0130344)
(0.160913 0 -0.0134549)
(0.168423 0 -0.0140242)
(0.177691 0 -0.0148445)
(0.188877 0 -0.0159962)
(0.202206 0 -0.0176211)
(0.217424 0 -0.0197939)
(0.234075 0 -0.0226205)
(0.250516 0 -0.0259913)
(0.0107558 0 -0.000738378)
(0.0308117 0 -0.00212225)
(0.0481773 0 -0.00334582)
(0.0631577 0 -0.00444054)
(0.0760658 0 -0.00543239)
(0.0871686 0 -0.00634055)
(0.0967007 0 -0.0071793)
(0.104871 0 -0.00795924)
(0.111869 0 -0.00868813)
(0.117867 0 -0.00937159)
(0.123036 0 -0.0100152)
(0.127527 0 -0.0106215)
(0.131472 0 -0.0111916)
(0.135021 0 -0.0117288)
(0.138317 0 -0.0122356)
(0.141536 0 -0.0127224)
(0.144807 0 -0.0131906)
(0.148309 0 -0.0136525)
(0.152218 0 -0.014122)
(0.156757 0 -0.0146265)
(0.162114 0 -0.0151896)
(0.168541 0 -0.0158547)
(0.176351 0 -0.0166905)
(0.185726 0 -0.0177462)
(0.197044 0 -0.0191366)
(0.210494 0 -0.0209511)
(0.226202 0 -0.0233002)
(0.243884 0 -0.0262209)
(0.262668 0 -0.0296903)
(0.280423 0 -0.0335014)
(0.0108823 0 -0.000793296)
(0.0311866 0 -0.00228103)
(0.0488007 0 -0.00359866)
(0.0640374 0 -0.00477992)
(0.0772141 0 -0.00585298)
(0.0886052 0 -0.00683895)
(0.0984511 0 -0.00775376)
(0.106967 0 -0.00860952)
(0.114346 0 -0.00941552)
(0.120769 0 -0.0101794)
(0.12641 0 -0.0109078)
(0.13142 0 -0.0116045)
(0.135941 0 -0.0122729)
(0.140132 0 -0.0129197)
(0.144149 0 -0.0135513)
(0.148145 0 -0.0141753)
(0.152294 0 -0.0148052)
(0.156778 0 -0.015458)
(0.161766 0 -0.0161499)
(0.16747 0 -0.0169097)
(0.174145 0 -0.0177845)
(0.18199 0 -0.0188121)
(0.191335 0 -0.0200733)
(0.202437 0 -0.0216451)
(0.215549 0 -0.0236188)
(0.230978 0 -0.0261176)
(0.248694 0 -0.0292001)
(0.268535 0 -0.0328937)
(0.289271 0 -0.0370008)
(0.308528 0 -0.0412487)
(0.0110123 0 -0.000847053)
(0.0315727 0 -0.00243664)
(0.0494414 0 -0.0038467)
(0.0649399 0 -0.0051134)
(0.0783914 0 -0.00626706)
(0.0900763 0 -0.00733068)
(0.100241 0 -0.00832189)
(0.109106 0 -0.00925433)
(0.11687 0 -0.0101387)
(0.123718 0 -0.0109848)
(0.12983 0 -0.011801)
(0.135358 0 -0.0125919)
(0.140447 0 -0.0133624)
(0.145273 0 -0.0141246)
(0.14999 0 -0.014887)
(0.154756 0 -0.0156597)
(0.159736 0 -0.0164566)
(0.165128 0 -0.0173027)
(0.171125 0 -0.0182245)
(0.177907 0 -0.0192489)
(0.185746 0 -0.0204333)
(0.194871 0 -0.0218314)
(0.205512 0 -0.0235097)
(0.217989 0 -0.0255737)
(0.23248 0 -0.0281078)
(0.249278 0 -0.0312499)
(0.268245 0 -0.0350437)
(0.289287 0 -0.0395379)
(0.310935 0 -0.0443485)
(0.332125 0 -0.0493079)
(0.00605273 0 -0.00228036)
(0.012709 0 -0.00255697)
(0.0260338 0 -0.00289601)
(0.0453729 0 -0.00327278)
(0.0687307 0 -0.00360521)
(0.0936749 0 -0.0038583)
(0.117904 0 -0.00402029)
(0.139753 0 -0.00405457)
(0.158476 0 -0.00402609)
(0.173852 0 -0.00391699)
(0.186024 0 -0.00377902)
(0.195257 0 -0.00358608)
(0.201849 0 -0.00339436)
(0.206057 0 -0.00317801)
(0.208108 0 -0.0029686)
(0.208176 0 -0.00277619)
(0.206372 0 -0.00256995)
(0.202778 0 -0.00235903)
(0.197437 0 -0.00216779)
(0.19036 0 -0.00196898)
(0.181527 0 -0.00178082)
(0.170928 0 -0.00159873)
(0.158522 0 -0.00142109)
(0.144195 0 -0.00124595)
(0.127936 0 -0.00106903)
(0.109665 0 -0.000891867)
(0.089226 0 -0.000710894)
(0.0665563 0 -0.00052407)
(0.041642 0 -0.000324352)
(0.0143137 0 -0.000111469)
(0.01125 0 -0.00691367)
(0.0183419 0 -0.00772741)
(0.0320143 0 -0.0087612)
(0.0513276 0 -0.00983566)
(0.0743414 0 -0.0107843)
(0.0987567 0 -0.0115113)
(0.122292 0 -0.0119386)
(0.143442 0 -0.0120449)
(0.161522 0 -0.0119231)
(0.176327 0 -0.011589)
(0.188025 0 -0.0111588)
(0.196871 0 -0.0106179)
(0.203153 0 -0.010039)
(0.207106 0 -0.00940537)
(0.208962 0 -0.00879478)
(0.208868 0 -0.00819072)
(0.206939 0 -0.0075824)
(0.203242 0 -0.00697452)
(0.197822 0 -0.00640108)
(0.190687 0 -0.00582743)
(0.181796 0 -0.00527429)
(0.171153 0 -0.00473653)
(0.158711 0 -0.00421158)
(0.14436 0 -0.00369516)
(0.128079 0 -0.00316999)
(0.10978 0 -0.00264544)
(0.0893122 0 -0.00210891)
(0.0666406 0 -0.00155148)
(0.0417137 0 -0.000962312)
(0.0143349 0 -0.00033078)
(0.0211256 0 -0.0117154)
(0.0291928 0 -0.0130816)
(0.0434657 0 -0.0147828)
(0.0626377 0 -0.0164621)
(0.0850695 0 -0.0179438)
(0.10842 0 -0.0190144)
(0.130638 0 -0.0196)
(0.15048 0 -0.0197354)
(0.167311 0 -0.0194659)
(0.181062 0 -0.0189172)
(0.191872 0 -0.0181777)
(0.199975 0 -0.0172982)
(0.205655 0 -0.0163451)
(0.209132 0 -0.0153341)
(0.210612 0 -0.0143399)
(0.21021 0 -0.0133346)
(0.208038 0 -0.0123466)
(0.204147 0 -0.0113758)
(0.198572 0 -0.0104354)
(0.191314 0 -0.00951739)
(0.182323 0 -0.00862193)
(0.171595 0 -0.00774623)
(0.159077 0 -0.00689014)
(0.144682 0 -0.00604235)
(0.128361 0 -0.00518983)
(0.110005 0 -0.00433365)
(0.0895102 0 -0.00345699)
(0.0668056 0 -0.00254319)
(0.041818 0 -0.00157973)
(0.0143709 0 -0.000543236)
(0.0352923 0 -0.0168436)
(0.0446992 0 -0.0187726)
(0.0595688 0 -0.0210302)
(0.0785424 0 -0.0232199)
(0.100078 0 -0.0250974)
(0.1219 0 -0.0263758)
(0.142307 0 -0.0269971)
(0.16031 0 -0.0270566)
(0.175448 0 -0.0266108)
(0.187734 0 -0.0258247)
(0.197286 0 -0.0247845)
(0.20436 0 -0.0235675)
(0.209211 0 -0.022266)
(0.212023 0 -0.0209114)
(0.212963 0 -0.0195515)
(0.212132 0 -0.0181932)
(0.209614 0 -0.0168538)
(0.205446 0 -0.0155422)
(0.199647 0 -0.0142626)
(0.192211 0 -0.0130201)
(0.183077 0 -0.0118055)
(0.172229 0 -0.0106103)
(0.159618 0 -0.0094438)
(0.145145 0 -0.00828408)
(0.128744 0 -0.00712576)
(0.110319 0 -0.00595525)
(0.089769 0 -0.004754)
(0.067008 0 -0.00350152)
(0.0419487 0 -0.00217671)
(0.0144176 0 -0.000748754)
(0.0531965 0 -0.0223955)
(0.0640612 0 -0.0248557)
(0.0794537 0 -0.0275744)
(0.0981729 0 -0.0301651)
(0.118445 0 -0.0322375)
(0.138379 0 -0.0335842)
(0.156558 0 -0.034123)
(0.172342 0 -0.0340064)
(0.185459 0 -0.0333524)
(0.195935 0 -0.0322774)
(0.203976 0 -0.0309383)
(0.20981 0 -0.0294157)
(0.213647 0 -0.0277915)
(0.215638 0 -0.026114)
(0.215912 0 -0.0244228)
(0.214547 0 -0.02274)
(0.211597 0 -0.0210779)
(0.207084 0 -0.0194529)
(0.201002 0 -0.0178594)
(0.19334 0 -0.016317)
(0.184032 0 -0.0148101)
(0.173035 0 -0.013326)
(0.160291 0 -0.0118718)
(0.145711 0 -0.0104275)
(0.129214 0 -0.00897973)
(0.110703 0 -0.00751113)
(0.090079 0 -0.00600032)
(0.0672438 0 -0.00442271)
(0.0421007 0 -0.0027508)
(0.0144721 0 -0.000946412)
(0.0742567 0 -0.0284169)
(0.0864659 0 -0.0313312)
(0.102338 0 -0.0344289)
(0.120589 0 -0.0372645)
(0.139287 0 -0.0393627)
(0.156995 0 -0.0405965)
(0.172665 0 -0.0409398)
(0.185962 0 -0.0405645)
(0.196793 0 -0.0396383)
(0.205263 0 -0.038272)
(0.211624 0 -0.0366349)
(0.216065 0 -0.0348174)
(0.218756 0 -0.0328941)
(0.219816 0 -0.0309202)
(0.219331 0 -0.0289295)
(0.217356 0 -0.026954)
(0.213907 0 -0.0249975)
(0.209 0 -0.0230915)
(0.202595 0 -0.0212227)
(0.194664 0 -0.0194089)
(0.185142 0 -0.0176366)
(0.173968 0 -0.0158943)
(0.161071 0 -0.0141761)
(0.146362 0 -0.0124656)
(0.129753 0 -0.0107455)
(0.111143 0 -0.00899549)
(0.0904284 0 -0.0071909)
(0.0675052 0 -0.00530324)
(0.0422679 0 -0.00329975)
(0.0145317 0 -0.0011354)
(0.0979218 0 -0.0349119)
(0.111328 0 -0.0382114)
(0.127518 0 -0.0415726)
(0.144949 0 -0.0444546)
(0.161786 0 -0.0464072)
(0.176975 0 -0.0473672)
(0.189904 0 -0.0473929)
(0.200526 0 -0.0466839)
(0.208919 0 -0.0454304)
(0.215298 0 -0.0437712)
(0.219884 0 -0.0418452)
(0.22285 0 -0.0397503)
(0.22432 0 -0.0375529)
(0.224384 0 -0.0353125)
(0.223082 0 -0.0330525)
(0.220451 0 -0.0308205)
(0.21647 0 -0.0286132)
(0.211125 0 -0.0264601)
(0.204367 0 -0.0243552)
(0.196141 0 -0.0223018)
(0.186377 0 -0.0202906)
(0.175002 0 -0.0183104)
(0.161933 0 -0.0163499)
(0.147079 0 -0.0143923)
(0.130343 0 -0.0124179)
(0.111621 0 -0.0104035)
(0.0908056 0 -0.00832163)
(0.0677842 0 -0.00614008)
(0.0424447 0 -0.00382162)
(0.0145943 0 -0.00131501)
(0.123714 0 -0.0418603)
(0.138143 0 -0.0454692)
(0.154373 0 -0.0489437)
(0.170575 0 -0.0516667)
(0.18517 0 -0.0532747)
(0.197561 0 -0.0538052)
(0.207582 0 -0.0534088)
(0.215439 0 -0.0523082)
(0.221365 0 -0.0507077)
(0.225626 0 -0.0487475)
(0.228417 0 -0.0465451)
(0.22989 0 -0.0441956)
(0.230117 0 -0.0417504)
(0.22917 0 -0.039279)
(0.227042 0 -0.0367959)
(0.223735 0 -0.0343448)
(0.219205 0 -0.0319312)
(0.213403 0 -0.0295681)
(0.206267 0 -0.0272551)
(0.197726 0 -0.0249905)
(0.187701 0 -0.0227661)
(0.176106 0 -0.02057)
(0.162851 0 -0.0183884)
(0.147839 0 -0.0162031)
(0.130966 0 -0.0139927)
(0.112124 0 -0.0117314)
(0.0911987 0 -0.00938921)
(0.0680724 0 -0.00693072)
(0.0426258 0 -0.00431477)
(0.014658 0 -0.00148467)
(0.151235 0 -0.0492166)
(0.166455 0 -0.0530363)
(0.182304 0 -0.0564327)
(0.196746 0 -0.0587626)
(0.208676 0 -0.0598268)
(0.218025 0 -0.059793)
(0.22505 0 -0.0588976)
(0.230147 0 -0.0573733)
(0.233656 0 -0.0554222)
(0.235856 0 -0.053171)
(0.236901 0 -0.0507121)
(0.236928 0 -0.0481397)
(0.235963 0 -0.045492)
(0.234034 0 -0.0428284)
(0.231102 0 -0.0401701)
(0.227124 0 -0.037542)
(0.222036 0 -0.0349541)
(0.215769 0 -0.0324138)
(0.208244 0 -0.0299213)
(0.199377 0 -0.0274728)
(0.189077 0 -0.0250599)
(0.177252 0 -0.0226702)
(0.163802 0 -0.0202882)
(0.148623 0 -0.0178948)
(0.131606 0 -0.0154666)
(0.112637 0 -0.0129762)
(0.0915966 0 -0.0103911)
(0.0683616 0 -0.00767313)
(0.042806 0 -0.0047779)
(0.0147209 0 -0.00164391)
(0.18015 0 -0.0569074)
(0.195838 0 -0.0608083)
(0.210681 0 -0.0638758)
(0.222701 0 -0.0655509)
(0.231536 0 -0.0658877)
(0.237668 0 -0.0651918)
(0.241704 0 -0.0637605)
(0.244139 0 -0.0618118)
(0.245362 0 -0.059527)
(0.245637 0 -0.0570145)
(0.245079 0 -0.0543446)
(0.243774 0 -0.0515905)
(0.241712 0 -0.0487905)
(0.23886 0 -0.0459812)
(0.235155 0 -0.0431838)
(0.230527 0 -0.0404156)
(0.224892 0 -0.0376858)
(0.218162 0 -0.034999)
(0.210247 0 -0.0323548)
(0.201049 0 -0.0297483)
(0.190471 0 -0.0271708)
(0.17841 0 -0.0246093)
(0.164759 0 -0.0220475)
(0.149409 0 -0.019465)
(0.132244 0 -0.0168375)
(0.113145 0 -0.0141357)
(0.0919883 0 -0.0113253)
(0.068644 0 -0.00836581)
(0.0429804 0 -0.00521002)
(0.0147813 0 -0.0017924)
(0.210184 0 -0.0648483)
(0.225835 0 -0.068637)
(0.238748 0 -0.0710341)
(0.247579 0 -0.0717787)
(0.252952 0 -0.0712474)
(0.255813 0 -0.0698491)
(0.256991 0 -0.0678964)
(0.256964 0 -0.0655605)
(0.256148 0 -0.0629961)
(0.254729 0 -0.0602751)
(0.252774 0 -0.0574518)
(0.250291 0 -0.0545704)
(0.247233 0 -0.0516606)
(0.243534 0 -0.0487471)
(0.239108 0 -0.0458471)
(0.233864 0 -0.042973)
(0.227703 0 -0.0401322)
(0.220526 0 -0.0373277)
(0.212228 0 -0.0345582)
(0.202705 0 -0.0318185)
(0.19185 0 -0.0290992)
(0.179553 0 -0.0263872)
(0.165701 0 -0.0236654)
(0.150178 0 -0.0209128)
(0.132864 0 -0.018104)
(0.113636 0 -0.0152086)
(0.0923635 0 -0.0121906)
(0.0689121 0 -0.00900775)
(0.0431445 0 -0.00561045)
(0.0148376 0 -0.00192987)
(0.241096 0 -0.0729467)
(0.255774 0 -0.0762747)
(0.265467 0 -0.0775495)
(0.270365 0 -0.0771231)
(0.272092 0 -0.0756716)
(0.271805 0 -0.0736092)
(0.270425 0 -0.0712146)
(0.268328 0 -0.0685884)
(0.265823 0 -0.0658266)
(0.262999 0 -0.0629711)
(0.259857 0 -0.0600524)
(0.256356 0 -0.0570949)
(0.252421 0 -0.0541185)
(0.247962 0 -0.0511399)
(0.242878 0 -0.0481719)
(0.237064 0 -0.0452238)
(0.230411 0 -0.0423012)
(0.222808 0 -0.0394059)
(0.214144 0 -0.0365363)
(0.204307 0 -0.0336864)
(0.193182 0 -0.0308471)
(0.180653 0 -0.0280048)
(0.166604 0 -0.0251423)
(0.150911 0 -0.022238)
(0.133452 0 -0.0192658)
(0.114097 0 -0.0161943)
(0.0927127 0 -0.0129865)
(0.0691591 0 -0.00959836)
(0.043294 0 -0.00597879)
(0.0148884 0 -0.0020562)
(0.272501 0 -0.081036)
(0.284369 0 -0.0832327)
(0.289365 0 -0.0828924)
(0.289868 0 -0.0811949)
(0.288141 0 -0.078927)
(0.285233 0 -0.0763754)
(0.281807 0 -0.0736829)
(0.278123 0 -0.0708939)
(0.2743 0 -0.0680359)
(0.270351 0 -0.0651235)
(0.266234 0 -0.062169)
(0.261879 0 -0.059185)
(0.257191 0 -0.0561837)
(0.252067 0 -0.0531764)
(0.246398 0 -0.0501728)
(0.240068 0 -0.0471801)
(0.232963 0 -0.0442026)
(0.224965 0 -0.0412415)
(0.215957 0 -0.0382947)
(0.205821 0 -0.0353566)
(0.194439 0 -0.0324176)
(0.181688 0 -0.0294644)
(0.167448 0 -0.0264795)
(0.151593 0 -0.0234413)
(0.133993 0 -0.0203231)
(0.114517 0 -0.0170928)
(0.093027 0 -0.0137126)
(0.0693785 0 -0.0101375)
(0.0434251 0 -0.0063149)
(0.0149325 0 -0.00217135)
(0.303016 0 -0.0885618)
(0.309088 0 -0.0885357)
(0.308521 0 -0.0863461)
(0.305203 0 -0.0836553)
(0.3008 0 -0.0808816)
(0.296029 0 -0.0781066)
(0.291181 0 -0.0753225)
(0.286348 0 -0.072509)
(0.281545 0 -0.0696565)
(0.276734 0 -0.0667627)
(0.271847 0 -0.0638304)
(0.266797 0 -0.0608663)
(0.261481 0 -0.0578787)
(0.255791 0 -0.0548761)
(0.249613 0 -0.0518663)
(0.242827 0 -0.0488556)
(0.235315 0 -0.0458476)
(0.226958 0 -0.0428434)
(0.217633 0 -0.0398409)
(0.20722 0 -0.0368345)
(0.195595 0 -0.0338149)
(0.182636 0 -0.030769)
(0.168216 0 -0.0276795)
(0.152206 0 -0.0245244)
(0.134475 0 -0.0212769)
(0.114886 0 -0.0179048)
(0.0932986 0 -0.0143695)
(0.069565 0 -0.0106253)
(0.0435345 0 -0.00661891)
(0.0149687 0 -0.00227536)
(0.327461 0 -0.0934589)
(0.327682 0 -0.0906809)
(0.322192 0 -0.0871802)
(0.316236 0 -0.0842226)
(0.310243 0 -0.0815015)
(0.304361 0 -0.078849)
(0.298633 0 -0.0761892)
(0.293048 0 -0.0734891)
(0.28757 0 -0.0707367)
(0.282136 0 -0.0679297)
(0.276668 0 -0.0650715)
(0.271074 0 -0.0621684)
(0.265252 0 -0.0592285)
(0.259093 0 -0.0562599)
(0.252482 0 -0.0532701)
(0.245301 0 -0.050265)
(0.237432 0 -0.0472485)
(0.228753 0 -0.0442217)
(0.219142 0 -0.0411828)
(0.208476 0 -0.0381266)
(0.19663 0 -0.0350442)
(0.183477 0 -0.0319226)
(0.16889 0 -0.0287449)
(0.152738 0 -0.0254893)
(0.134886 0 -0.022129)
(0.115194 0 -0.0186314)
(0.0935204 0 -0.0149579)
(0.0697133 0 -0.0110624)
(0.0436193 0 -0.00689113)
(0.0149961 0 -0.00236837)
(0.011147 0 -0.000900436)
(0.0319728 0 -0.00259134)
(0.0501052 0 -0.00409362)
(0.0658739 0 -0.0054459)
(0.0796088 0 -0.00668071)
(0.0915961 0 -0.00782291)
(0.102088 0 -0.00889183)
(0.111309 0 -0.00990274)
(0.119463 0 -0.0108675)
(0.126747 0 -0.0117994)
(0.133334 0 -0.0127073)
(0.139376 0 -0.013596)
(0.145042 0 -0.0144766)
(0.15049 0 -0.0153592)
(0.155874 0 -0.0162537)
(0.161385 0 -0.0171814)
(0.167167 0 -0.0181544)
(0.173404 0 -0.0191973)
(0.180309 0 -0.0203473)
(0.188074 0 -0.0216402)
(0.196924 0 -0.0231286)
(0.207075 0 -0.0248749)
(0.218717 0 -0.0269441)
(0.232124 0 -0.0294452)
(0.247422 0 -0.0324705)
(0.264707 0 -0.0361407)
(0.28372 0 -0.0405376)
(0.303957 0 -0.0457961)
(0.323499 0 -0.0519145)
(0.340964 0 -0.0599703)
(0.0112866 0 -0.000953742)
(0.0323879 0 -0.00274601)
(0.0507937 0 -0.00434085)
(0.0668424 0 -0.00577939)
(0.0808702 0 -0.00709637)
(0.0931688 0 -0.00831849)
(0.103997 0 -0.00946681)
(0.113581 0 -0.0105584)
(0.122141 0 -0.0116086)
(0.129866 0 -0.0126294)
(0.136918 0 -0.0136291)
(0.143477 0 -0.0146201)
(0.149711 0 -0.015615)
(0.15576 0 -0.016621)
(0.161795 0 -0.0176541)
(0.168001 0 -0.0187368)
(0.174531 0 -0.0198879)
(0.181545 0 -0.0211296)
(0.189261 0 -0.0225057)
(0.197861 0 -0.0240563)
(0.207498 0 -0.025823)
(0.218375 0 -0.0278751)
(0.23066 0 -0.0302824)
(0.244481 0 -0.0331301)
(0.259855 0 -0.0364999)
(0.27663 0 -0.0404699)
(0.294285 0 -0.0450738)
(0.311823 0 -0.0502914)
(0.327589 0 -0.055977)
(0.340301 0 -0.0622249)
(0.0114287 0 -0.00100623)
(0.032811 0 -0.00289851)
(0.051496 0 -0.00458501)
(0.0678302 0 -0.00610933)
(0.082156 0 -0.00750839)
(0.0947693 0 -0.00881062)
(0.105937 0 -0.0100387)
(0.115895 0 -0.0112131)
(0.124859 0 -0.0123497)
(0.13301 0 -0.0134596)
(0.140531 0 -0.014556)
(0.147591 0 -0.01565)
(0.154358 0 -0.0167565)
(0.160982 0 -0.0178875)
(0.16764 0 -0.0190625)
(0.174474 0 -0.0202962)
(0.181654 0 -0.0216158)
(0.189352 0 -0.02305)
(0.197739 0 -0.0246359)
(0.206957 0 -0.0264115)
(0.217139 0 -0.0284184)
(0.228434 0 -0.0307189)
(0.240928 0 -0.0333719)
(0.254618 0 -0.0364336)
(0.269369 0 -0.0399521)
(0.284805 0 -0.0439358)
(0.300258 0 -0.0483469)
(0.314798 0 -0.0530951)
(0.327409 0 -0.0581052)
(0.337012 0 -0.0632679)
(0.0115717 0 -0.0010575)
(0.0332375 0 -0.00304772)
(0.0522046 0 -0.00482433)
(0.0688272 0 -0.00643335)
(0.0834537 0 -0.00791383)
(0.0963808 0 -0.00929568)
(0.107893 0 -0.0106054)
(0.118223 0 -0.0118624)
(0.127574 0 -0.0130825)
(0.136153 0 -0.0142832)
(0.144127 0 -0.0154765)
(0.151666 0 -0.0166744)
(0.158938 0 -0.0178917)
(0.166099 0 -0.0191459)
(0.173304 0 -0.0204541)
(0.180694 0 -0.0218327)
(0.188436 0 -0.0233112)
(0.196681 0 -0.024918)
(0.20556 0 -0.0266844)
(0.215171 0 -0.0286417)
(0.225655 0 -0.0308402)
(0.237036 0 -0.0333124)
(0.249331 0 -0.0361033)
(0.262413 0 -0.0392344)
(0.276035 0 -0.0427143)
(0.289766 0 -0.0465138)
(0.303024 0 -0.0505791)
(0.315115 0 -0.054831)
(0.325275 0 -0.0591653)
(0.33277 0 -0.0634227)
(0.0117137 0 -0.00110705)
(0.0336619 0 -0.00319221)
(0.052911 0 -0.00505656)
(0.0698223 0 -0.00674843)
(0.0847502 0 -0.00830902)
(0.0980005 0 -0.00977061)
(0.109852 0 -0.0111607)
(0.120527 0 -0.0124975)
(0.130262 0 -0.0138019)
(0.139257 0 -0.0150927)
(0.147658 0 -0.0163796)
(0.155644 0 -0.0176782)
(0.16338 0 -0.0190036)
(0.171023 0 -0.0203748)
(0.178698 0 -0.0218053)
(0.18657 0 -0.0233198)
(0.194761 0 -0.0249398)
(0.203405 0 -0.0266931)
(0.212594 0 -0.0286043)
(0.222411 0 -0.0307039)
(0.232919 0 -0.0330251)
(0.244073 0 -0.0355835)
(0.255827 0 -0.0384046)
(0.267997 0 -0.041487)
(0.280314 0 -0.0448191)
(0.292389 0 -0.0483617)
(0.303751 0 -0.052057)
(0.313874 0 -0.0558272)
(0.322203 0 -0.0595513)
(0.328288 0 -0.0631005)
(0.0118538 0 -0.00115468)
(0.0340813 0 -0.00333132)
(0.0536101 0 -0.00528058)
(0.0708077 0 -0.00705295)
(0.0860338 0 -0.00869158)
(0.0995981 0 -0.0102304)
(0.111775 0 -0.0116972)
(0.122793 0 -0.0131128)
(0.1329 0 -0.014501)
(0.142283 0 -0.0158784)
(0.15108 0 -0.017255)
(0.159466 0 -0.0186468)
(0.167631 0 -0.020077)
(0.175688 0 -0.0215552)
(0.183757 0 -0.0230964)
(0.19201 0 -0.0247298)
(0.200527 0 -0.0264679)
(0.209422 0 -0.0283374)
(0.218751 0 -0.0303549)
(0.228557 0 -0.032543)
(0.238835 0 -0.0349163)
(0.24954 0 -0.0374881)
(0.26057 0 -0.0402641)
(0.271735 0 -0.0432333)
(0.282777 0 -0.0463711)
(0.29337 0 -0.0496354)
(0.303151 0 -0.0529734)
(0.311704 0 -0.0562961)
(0.318661 0 -0.0595014)
(0.323779 0 -0.0624989)
(0.01199 0 -0.00119983)
(0.0344897 0 -0.00346338)
(0.0542921 0 -0.00549372)
(0.0717699 0 -0.00734325)
(0.0872864 0 -0.00905682)
(0.101154 0 -0.0106698)
(0.113646 0 -0.0122108)
(0.124997 0 -0.0137028)
(0.135454 0 -0.0151707)
(0.145193 0 -0.0166298)
(0.154345 0 -0.01809)
(0.163103 0 -0.0195718)
(0.171634 0 -0.0210956)
(0.180023 0 -0.0226667)
(0.188416 0 -0.0243066)
(0.196939 0 -0.0260359)
(0.205648 0 -0.0278637)
(0.214635 0 -0.0298119)
(0.223927 0 -0.0318908)
(0.233542 0 -0.0341155)
(0.243453 0 -0.0364944)
(0.253592 0 -0.0390303)
(0.263835 0 -0.0417176)
(0.274004 0 -0.0445382)
(0.283873 0 -0.047463)
(0.293192 0 -0.0504561)
(0.301651 0 -0.0534536)
(0.308951 0 -0.0563756)
(0.314878 0 -0.059154)
(0.319293 0 -0.0617176)
(0.0121201 0 -0.00124185)
(0.0348805 0 -0.00358659)
(0.0549463 0 -0.00569305)
(0.0726941 0 -0.00761532)
(0.0884896 0 -0.00939968)
(0.102644 0 -0.0110825)
(0.115438 0 -0.0126937)
(0.127107 0 -0.0142585)
(0.137888 0 -0.0158012)
(0.147946 0 -0.0173353)
(0.15742 0 -0.0188731)
(0.166501 0 -0.0204368)
(0.175321 0 -0.0220392)
(0.183976 0 -0.0236903)
(0.192593 0 -0.0254084)
(0.201258 0 -0.0272054)
(0.210038 0 -0.0290937)
(0.218988 0 -0.0310868)
(0.228126 0 -0.0331931)
(0.237446 0 -0.0354196)
(0.246906 0 -0.0377682)
(0.256423 0 -0.0402342)
(0.265877 0 -0.0428053)
(0.275108 0 -0.0454603)
(0.283945 0 -0.048175)
(0.29216 0 -0.0509035)
(0.299514 0 -0.0535843)
(0.305823 0 -0.0561638)
(0.310955 0 -0.0585893)
(0.314832 0 -0.0608068)
(0.0122416 0 -0.00128008)
(0.0352466 0 -0.00369894)
(0.0555615 0 -0.00587535)
(0.0735654 0 -0.0078648)
(0.0896248 0 -0.00971474)
(0.104047 0 -0.0114618)
(0.117128 0 -0.0131396)
(0.129103 0 -0.0147731)
(0.14017 0 -0.0163823)
(0.150501 0 -0.0179824)
(0.160253 0 -0.0195889)
(0.169588 0 -0.02122)
(0.178621 0 -0.0228859)
(0.187459 0 -0.0245989)
(0.196202 0 -0.0263722)
(0.204925 0 -0.0282163)
(0.213682 0 -0.0301407)
(0.222508 0 -0.0321535)
(0.231409 0 -0.0342593)
(0.240367 0 -0.0364597)
(0.24933 0 -0.0387516)
(0.258215 0 -0.0411254)
(0.266912 0 -0.043565)
(0.275301 0 -0.0460542)
(0.283218 0 -0.0485594)
(0.290476 0 -0.051034)
(0.296924 0 -0.0534359)
(0.302438 0 -0.055723)
(0.306939 0 -0.0578549)
(0.310384 0 -0.0597914)
(0.0123521 0 -0.00131377)
(0.0355807 0 -0.00379829)
(0.0561258 0 -0.00603719)
(0.0743681 0 -0.00808705)
(0.0906748 0 -0.00999638)
(0.105358 0 -0.0118034)
(0.1187 0 -0.0135408)
(0.130927 0 -0.0152321)
(0.142236 0 -0.016898)
(0.152801 0 -0.0185549)
(0.162774 0 -0.0202179)
(0.172298 0 -0.0219017)
(0.181486 0 -0.0236175)
(0.190438 0 -0.0253759)
(0.199236 0 -0.027187)