/*--------------------------------*- C++ -*----------------------------------*\
| =========                 |                                                 |
| \\      /  F ield         | OpenFOAM: The Open Source CFD Toolbox           |
|  \\    /   O peration     | Version:  dev                                   |
|   \\  /    A nd           | Web:      www.OpenFOAM.org                      |
|    \\/     M anipulation  |                                                 |
\*---------------------------------------------------------------------------*/
FoamFile
{
    version     2.0;
    format      ascii;
    class       volVectorField;
    location    "1";
    object      Force;
}
// * * * * * * * * * * * * * * * * * * * * * * * * * * * * * * * * * * * * * //

dimensions      [1 1 -2 0 0 0 0];

internalField   uniform (0 0 0);

boundaryField
{
    inlet
    {
        type            calculated;
        value           uniform (0 0 0);
    }
    outlet
    {
        type            calculated;
        value           uniform (0 0 0);
    }
    flap
    {
        type            calculated;
        value           nonuniform List<vector> 
33
(
(4.62755 1.88874e-18 -0.237108)
(4.58152 1.8658e-18 -0.568311)
(4.49792 1.81996e-18 -0.893475)
(4.37174 -4.01356e-20 -1.1567)
(4.21581 -1.15232e-17 -1.35705)
(4.04618 0 -1.50122)
(3.87408 1.75028e-18 -1.59958)
(3.70736 1.7274e-18 -1.66083)
(3.54655 1.70362e-18 -1.69144)
(3.39048 -1.17549e-37 -1.6946)
(3.23895 -9.80091e-18 -1.67222)
(3.08572 1.60895e-18 -1.62608)
(2.92003 4.70198e-38 -1.55621)
(2.72599 2.90664e-18 -1.4572)
(2.46975 -1.29255e-18 -1.32292)
(-0.21011 4.48863e-19 -0.392957)
(-0.323573 -4.94918e-20 -0.600612)
(-0.413446 -7.63798e-19 -0.765159)
(-1.90023 -1.35567e-18 0.0985941)
(-1.89889 1.3692e-18 0.236282)
(-1.89488 1.39812e-18 0.37831)
(-1.88961 -1.42623e-18 0.501507)
(-1.88417 -5.53841e-18 0.608526)
(-1.87935 1.48137e-18 0.699759)
(-1.87502 -1.50817e-18 0.776741)
(-1.86971 -4.10528e-18 0.840819)
(-1.8635 -5.67832e-18 0.892683)
(-1.85667 1.57329e-18 0.932356)
(-1.84811 1.60729e-18 0.959342)
(-1.8375 -1.63678e-18 0.97432)
(-1.82463 1.67505e-18 0.979076)
(-1.80892 1.81139e-18 0.974749)
(-1.78968 7.72638e-18 0.967294)
)
;
    }
    upperWall
    {
        type            calculated;
        value           uniform (0 0 0);
    }
    lowerWall
    {
        type            calculated;
        value           uniform (0 0 0);
    }
    frontAndBack
    {
        type            empty;
    }
}


// ************************************************************************* //
