/*--------------------------------*- C++ -*----------------------------------*\
| =========                 |                                                 |
| \\      /  F ield         | OpenFOAM: The Open Source CFD Toolbox           |
|  \\    /   O peration     | Version:  dev                                   |
|   \\  /    A nd           | Web:      www.OpenFOAM.org                      |
|    \\/     M anipulation  |                                                 |
\*---------------------------------------------------------------------------*/
FoamFile
{
    version     2.0;
    format      ascii;
    class       surfaceScalarField;
    location    "1";
    object      meshPhi;
}
// * * * * * * * * * * * * * * * * * * * * * * * * * * * * * * * * * * * * * //

dimensions      [0 3 -1 0 0 0 0];

internalField   nonuniform List<scalar> 
5457
(
-5.37442e-05
7.81817e-07
-0.000100391
2.20583e-06
-0.000138252
3.39243e-06
-0.000167532
4.35716e-06
-0.000187966
5.10631e-06
-0.000199139
5.62306e-06
-0.000200897
5.88241e-06
-0.000193577
5.86566e-06
-0.000178122
5.57082e-06
-0.000156066
5.01684e-06
-0.000129401
4.24624e-06
-0.000100343
3.32265e-06
-7.10738e-05
2.31675e-06
-4.35324e-05
1.30405e-06
-1.92567e-05
3.58011e-07
7.19834e-07
-4.63091e-07
1.58887e-05
-1.11984e-06
2.62254e-05
-1.59316e-06
3.21019e-05
-1.88392e-06
3.42079e-05
-2.01058e-06
3.22973e-05
-1.95977e-06
2.71302e-05
-1.72102e-06
2.1007e-05
-1.37948e-06
1.51025e-05
-1.03281e-06
9.92254e-06
-7.20281e-07
5.78446e-06
-4.59039e-07
2.82294e-06
-2.5797e-07
1.01338e-06
-1.18649e-07
2.07333e-07
-3.76616e-08
-6.93456e-09
-5.37115e-05
1.56144e-06
-0.000100391
4.40723e-06
-0.000138378
6.78291e-06
-0.000167869
8.71985e-06
-0.000188567
1.02279e-05
-0.000200016
1.12694e-05
-0.000202019
1.17991e-05
-0.000194879
1.17815e-05
-0.000179513
1.12065e-05
-0.000157441
1.01098e-05
-0.000130667
8.57491e-06
-0.00010143
6.72703e-06
-7.19292e-05
4.71178e-06
-4.41295e-05
2.68231e-06
-1.9597e-05
7.83851e-07
6.13362e-07
-8.66529e-07
1.5977e-05
-2.18919e-06
2.6461e-05
-3.14552e-06
3.24299e-05
-3.73641e-06
3.45462e-05
-3.99626e-06
3.26782e-05
-3.9012e-06
2.75206e-05
-3.43136e-06
2.13034e-05
-2.75058e-06
1.53223e-05
-2.05664e-06
1.00771e-05
-1.43282e-06
5.88573e-06
-9.12392e-07
2.88142e-06
-5.1244e-07
1.03857e-06
-2.35735e-07
2.1219e-07
-7.52193e-08
-1.30424e-08
-5.35787e-05
2.33027e-06
-0.000100213
6.5805e-06
-0.000138276
1.01365e-05
-0.000167953
1.30462e-05
-0.000188925
1.53243e-05
-0.000200702
1.6914e-05
-0.000203041
1.77429e-05
-0.0001962
1.77537e-05
-0.000181063
1.69285e-05
-0.000159125
1.53182e-05
-0.000132382
1.30438e-05
-0.000103081
1.02871e-05
-7.34312e-05
7.27191e-06
-4.54166e-05
4.23134e-06
-2.06295e-05
1.37965e-06
-1.4881e-07
-1.10727e-06
1.54772e-05
-3.10845e-06
2.61986e-05
-4.56458e-06
3.23678e-05
-5.47446e-06
3.46367e-05
-5.88534e-06
3.28993e-05
-5.76432e-06
2.77883e-05
-5.08185e-06
2.15292e-05
-4.07542e-06
1.55002e-05
-3.04408e-06
1.02008e-05
-2.11685e-06
5.96226e-06
-1.34331e-06
2.92559e-06
-7.50854e-07
1.05811e-06
-3.43809e-07
2.13197e-07
-1.0972e-07
-1.85534e-08
-5.33349e-05
3.07968e-06
-9.98305e-05
8.70183e-06
-0.000137893
1.34181e-05
-0.000167709
1.72938e-05
-0.000188944
2.03502e-05
-0.00020108
2.25122e-05
-0.000203831
2.3675e-05
-0.00019741
2.37547e-05
-0.000182658
2.27258e-05
-0.000161033
2.06508e-05
-0.000134499
1.7685e-05
-0.000105285
1.40639e-05
-7.56074e-05
1.00823e-05
-4.74633e-05
6.04968e-06
-2.24597e-05
2.25191e-06
-1.69904e-06
-1.07587e-06
1.42409e-05
-3.76935e-06
2.52825e-05
-5.74569e-06
3.17585e-05
-6.99937e-06
3.43177e-05
-7.58968e-06
3.27979e-05
-7.47387e-06
2.77878e-05
-6.60843e-06
2.15633e-05
-5.30105e-06
1.55384e-05
-3.95386e-06
1.02205e-05
-2.74254e-06
5.95692e-06
-1.73187e-06
2.90644e-06
-9.59172e-07
1.04076e-06
-4.3268e-07
2.00154e-07
-1.35737e-07
-2.18909e-08
-5.29903e-05
3.805e-06
-9.92779e-05
1.07574e-05
-0.00013731
1.66054e-05
-0.000167277
2.14358e-05
-0.000188831
2.52774e-05
-0.000201416
2.80342e-05
-0.000204697
2.95688e-05
-0.000198833
2.97695e-05
-0.000184609
2.85985e-05
-0.000163439
2.61254e-05
-0.000137237
2.25347e-05
-0.000108203
1.81121e-05
-7.85542e-05
1.32144e-05
-5.03046e-05
8.2231e-06
-2.50734e-05
3.49637e-06
-3.98705e-06
-6.70841e-07
1.23369e-05
-4.06941e-06
2.37837e-05
-6.58879e-06
3.0658e-05
-8.21587e-06
3.35933e-05
-9.02086e-06
3.23627e-05
-8.94921e-06
2.75097e-05
-7.93953e-06
2.13606e-05
-6.36565e-06
1.53741e-05
-4.73186e-06
1.00778e-05
-3.26447e-06
5.82485e-06
-2.04438e-06
2.78815e-06
-1.11558e-06
9.61986e-07
-4.902e-07
1.64076e-07
-1.47692e-07
-2.16521e-08
-5.25344e-05
4.50068e-06
-9.85364e-05
1.27323e-05
-0.000136507
1.96791e-05
-0.000166638
2.54525e-05
-0.000188561
3.00886e-05
-0.00020168
3.34682e-05
-0.000205606
3.54215e-05
-0.000200435
3.58065e-05
-0.000186887
3.45689e-05
-0.000166313
3.17797e-05
-0.000140575
2.76461e-05
-0.000111832
2.24961e-05
-8.22913e-05
1.67436e-05
-5.39763e-05
1.08373e-05
-2.85274e-05
5.206e-06
-7.09853e-06
2.07549e-07
9.65278e-06
-3.9034e-06
2.15676e-05
-6.98745e-06
2.89138e-05
-9.01939e-06
3.22984e-05
-1.00756e-05
3.1426e-05
-1.00893e-05
2.67907e-05
-8.98123e-06
2.07676e-05
-7.1878e-06
1.48668e-05
-5.31061e-06
9.6428e-06
-3.62586e-06
5.46446e-06
-2.23361e-06
2.51466e-06
-1.18711e-06
7.99541e-07
-4.99468e-07
1.00823e-07
-1.39387e-07
-1.67167e-08
-5.19573e-05
5.15864e-06
-9.75866e-05
1.46072e-05
-0.000135463
2.26172e-05
-0.000165768
2.93224e-05
-0.000188105
3.47622e-05
-0.000201837
3.87958e-05
-0.00020652
4.12203e-05
-0.00020218
4.1862e-05
-0.00018946
4.06444e-05
-0.000169637
3.76348e-05
-0.000144507
3.30554e-05
-0.000116184
2.72685e-05
-8.68478e-05
2.07381e-05
-5.85238e-05
1.39732e-05
-3.28865e-05
7.47247e-06
-1.11309e-05
1.65948e-06
6.05605e-06
-3.16302e-06
1.84741e-05
-6.82634e-06
2.63405e-05
-9.29032e-06
3.0224e-05
-1.06318e-05
2.97667e-05
-1.07722e-05
2.54116e-05
-9.61753e-06
1.95802e-05
-7.66143e-06
1.38404e-05
-5.59942e-06
8.76564e-06
-3.75409e-06
4.75808e-06
-2.24409e-06
2.01828e-06
-1.13572e-06
5.3443e-07
-4.40587e-07
1.45243e-08
-1.04986e-07
-6.95171e-09
-5.12576e-05
5.77176e-06
-9.64266e-05
1.63623e-05
-0.000134166
2.53879e-05
-0.000164646
3.30036e-05
-0.000187435
3.92505e-05
-0.000201855
4.39666e-05
-0.000207402
4.6916e-05
-0.000204027
4.78911e-05
-0.000192288
4.67889e-05
-0.000173376
4.36673e-05
-0.000149012
3.87563e-05
-0.000121256
3.24434e-05
-9.22507e-05
2.52355e-05
-6.40072e-05
1.76944e-05
-3.82396e-05
1.03806e-05
-1.61964e-05
3.78345e-06
1.40302e-06
-1.74045e-06
1.43192e-05
-5.98769e-06
2.2716e-05
-8.89992e-06
2.71135e-05
-1.0551e-05
2.71127e-05
-1.08563e-05
2.31085e-05
-9.71431e-06
1.75534e-05
-7.66526e-06
1.20809e-05
-5.49191e-06
7.28323e-06
-3.56339e-06
3.59939e-06
-2.01499e-06
1.25047e-06
-9.2603e-07
1.66535e-07
-3.00284e-07
-8.17277e-08
-4.40457e-08
6.04677e-09
-5.04318e-05
6.33387e-06
-9.50503e-05
1.7979e-05
-0.000132604
2.79604e-05
-0.000163248
3.64553e-05
-0.000186515
4.35057e-05
-0.000201685
4.89282e-05
-0.000208193
5.24545e-05
-0.000205909
5.38443e-05
-0.000195301
5.29663e-05
-0.000177466
4.98563e-05
-0.000154038
4.47409e-05
-0.000127014
3.80276e-05
-9.84944e-05
3.02592e-05
-7.04681e-05
2.20445e-05
-4.46745e-05
1.39963e-05
-2.24176e-05
6.6664e-06
-4.46304e-06
4.69118e-07
8.90363e-06
-4.35275e-06
1.77923e-05
-7.71726e-06
2.2672e-05
-9.68847e-06
2.31504e-05
-1.01865e-05
1.9588e-05
-9.12083e-06
1.44299e-05
-7.06713e-06
9.37675e-06
-4.8776e-06
5.05099e-06
-2.9694e-06
1.92816e-06
-1.49544e-06
2.22677e-07
-5.4106e-07
-2.67914e-07
-8.30333e-08
-1.68611e-07
3.53968e-08
1.94532e-08
-4.94705e-05
6.84029e-06
-9.34398e-05
1.94444e-05
-0.000130751
3.03159e-05
-0.000161538
3.9654e-05
-0.000185297
4.74996e-05
-0.000201265
5.36486e-05
-0.000208818
5.78016e-05
-0.000207744
5.96869e-05
-0.000198417
5.91438e-05
-0.000181829
5.61745e-05
-0.000159518
5.09908e-05
-0.000133405
4.40143e-05
-0.000105549
3.58158e-05
-7.79166e-05
2.70441e-05
-5.22495e-05
1.83609e-05
-2.99005e-05
1.03727e-05
-1.1696e-05
3.55141e-06
2.02665e-06
-1.81378e-06
1.13242e-05
-5.61509e-06
1.66038e-05
-7.90414e-06
1.75634e-05
-8.61625e-06
1.4567e-05
-7.69548e-06
9.98118e-06
-5.74456e-06
5.57167e-06
-3.66211e-06
2.00823e-06
-1.9143e-06
-2.1431e-07
-6.70084e-07
-9.69652e-07
1.21146e-09
-6.98882e-07
1.8528e-07
-2.27274e-07
1.19337e-07
3.05677e-08
-4.83634e-05
7.28671e-06
-9.15767e-05
2.07467e-05
-0.000128581
3.24367e-05
-0.000159482
4.25763e-05
-0.000183733
5.12026e-05
-0.000200532
5.80909e-05
-0.000209197
6.29129e-05
-0.00020944
6.53644e-05
-0.000201538
6.52516e-05
-0.000186369
6.25474e-05
-0.000165364
5.74443e-05
-0.00014036
5.03596e-05
-0.000113365
4.18782e-05
-8.63238e-05
3.26829e-05
-6.09784e-05
2.34851e-05
-3.87101e-05
1.494e-05
-2.04076e-05
7.56845e-06
-6.4752e-06
1.71021e-06
3.10022e-06
-2.49194e-06
8.66516e-06
-5.07767e-06
1.01013e-05
-6.02157e-06
7.84105e-06
-5.3277e-06
4.08754e-06
-3.61473e-06
6.50807e-07
-1.80281e-06
-1.74655e-06
-3.99765e-07
-2.65115e-06
4.21691e-07
-2.1609e-06
6.47219e-07
-1.04623e-06
4.66464e-07
-2.45871e-07
1.94418e-07
3.82666e-08
-4.71018e-05
7.66678e-06
-8.94479e-05
2.18686e-05
-0.00012608
3.42966e-05
-0.000157055
4.51865e-05
-0.000181783
5.45677e-05
-0.000199423
6.21974e-05
-0.000209247
6.7723e-05
-0.000210889
7.0804e-05
-0.000204534
7.121e-05
-0.000190945
6.88902e-05
-0.000171439
6.40166e-05
-0.000147762
5.69872e-05
-0.000121849
4.8388e-05
-9.56146e-05
3.89244e-05
-7.08118e-05
2.93462e-05
-4.88467e-05
2.03618e-05
-3.06432e-05
1.25398e-05
-1.66791e-05
6.26085e-06
-6.99572e-06
1.70715e-06
-1.27645e-06
-1.14282e-06
6.57928e-07
-2.33449e-06
-6.25326e-07
-1.97115e-06
-3.17019e-06
-6.72045e-07
-5.18238e-06
6.58899e-07
-5.92294e-06
1.49513e-06
-5.09539e-06
1.68933e-06
-3.16742e-06
1.32813e-06
-1.24854e-06
7.29243e-07
-2.20314e-07
2.5553e-07
4.38855e-08
-4.56761e-05
7.97563e-06
-8.70409e-05
2.27971e-05
-0.000123232
3.58766e-05
-0.000154234
4.74591e-05
-0.000179407
5.75606e-05
-0.000197878
6.59225e-05
-0.000208876
7.21705e-05
-0.000211971
7.59294e-05
-0.000207254
7.69342e-05
-0.000195386
7.51094e-05
-0.000177565
7.06021e-05
-0.00015543
6.37846e-05
-0.00013084
5.52378e-05
-0.000105661
4.56811e-05
-8.16344e-05
3.58814e-05
-6.02065e-05
2.65876e-05
-4.23342e-05
1.84255e-05
-2.8537e-05
1.18167e-05
-1.89127e-05
6.97171e-06
-1.31505e-05
3.88388e-06
-1.06398e-05
2.41238e-06
-1.06096e-05
2.31435e-06
-1.14518e-05
2.985e-06
-1.14966e-05
3.58942e-06
-1.00859e-05
3.62696e-06
-7.22983e-06
3.02036e-06
-3.84705e-06
1.98999e-06
-1.27716e-06
9.67311e-07
-1.48689e-07
3.11967e-07
5.22995e-08
-4.40769e-05
8.21075e-06
-8.43435e-05
2.35261e-05
-0.000120027
3.71685e-05
-0.000150994
4.93807e-05
-0.000176563
6.01579e-05
-0.000195827
6.92267e-05
-0.000207986
7.61938e-05
-0.000212553
8.06566e-05
-0.000209537
8.23198e-05
-0.000199497
8.10823e-05
-0.000183522
7.70654e-05
-0.000163127
7.0611e-05
-0.000140086
6.22809e-05
-0.000116226
5.28019e-05
-9.32357e-05
4.29547e-05
-7.25741e-05
3.35051e-05
-5.52548e-05
2.5122e-05
-4.18175e-05
1.82734e-05
-3.23779e-05
1.31922e-05
-2.6604e-05
9.87354e-06
-2.33575e-05
8.06091e-06
-2.15999e-05
7.34618e-06
-2.01781e-05
7.15583e-06
-1.77128e-05
6.78742e-06
-1.37732e-05
5.8296e-06
-8.80169e-06
4.31992e-06
-4.12963e-06
2.6146e-06
-1.12681e-06
1.20634e-06
-2.2977e-08
3.93652e-07
7.62866e-08
-4.23969e-05
8.41186e-06
-8.14053e-05
2.41186e-05
-0.000116442
3.81955e-05
-0.000147305
5.09501e-05
-0.000173196
6.23537e-05
-0.000193189
7.20937e-05
-0.00020646
7.97627e-05
-0.000212486
8.49383e-05
-0.0002112
8.73031e-05
-0.000203068
8.67293e-05
-0.000189073
8.33083e-05
-0.000170602
7.73573e-05
-0.000149323
6.94094e-05
-0.000127014
6.01721e-05
-0.000105321
5.04393e-05
-8.5658e-05
4.09901e-05
-6.90764e-05
3.25111e-05
-5.61355e-05
2.55036e-05
-4.69282e-05
2.02185e-05
-4.10615e-05
1.66436e-05
-3.6837e-05
1.43965e-05
-3.29097e-05
1.28944e-05
-2.8683e-05
1.16164e-05
-2.32815e-05
1.00643e-05
-1.66517e-05
7.98447e-06
-9.70355e-06
5.5524e-06
-4.02062e-06
3.22546e-06
-7.88049e-07
1.48856e-06
2.10446e-07
5.46163e-07
1.45498e-07
7.26303e-07
-5.53573e-09
4.68713e-06
2.55006e-09
1.80293e-05
3.05682e-09
4.57359e-05
6.27972e-08
8.5634e-05
3.53106e-07
0.000129201
1.05237e-06
0.000168605
2.1176e-06
0.00020104
3.41372e-06
0.000227666
4.86599e-06
0.000247398
6.246e-06
0.000259723
7.09864e-06
0.000269322
7.38511e-06
0.000279586
7.15302e-06
0.000290792
6.44681e-06
0.000302436
5.33664e-06
0.000313748
3.76441e-06
0.000323589
1.95953e-06
0.000330796
2.49416e-08
0.000334364
-1.98782e-06
0.00033332
-3.84574e-06
0.000326849
-5.42852e-06
0.000314417
-6.71061e-06
0.000295691
-7.60322e-06
0.000270575
-8.04759e-06
0.000239166
-7.99675e-06
0.000201684
-7.47103e-06
0.000158483
-6.5081e-06
0.00011007
-5.12149e-06
5.68929e-05
-3.33252e-06
-1.17792e-06
7.64796e-07
-4.83963e-09
5.01973e-06
7.02666e-09
1.8998e-05
2.37769e-08
4.72647e-05
1.93196e-07
8.70516e-05
8.01261e-07
0.000129797
2.16327e-06
0.000168054
4.23772e-06
0.000199345
6.79005e-06
0.000224934
9.59325e-06
0.000244386
1.21952e-05
0.000256888
1.38285e-05
0.000266611
1.43149e-05
0.000277177
1.38385e-05
0.000288786
1.23918e-05
0.000300873
1.01554e-05
0.000312534
7.12198e-06
0.000322707
3.56018e-06
0.000330199
-2.35528e-07
0.000333949
-4.12906e-06
0.000333061
-7.79296e-06
0.00032675
-1.09316e-05
0.000314418
-1.34058e-05
0.000295749
-1.51226e-05
0.000270642
-1.5969e-05
0.00023921
-1.5865e-05
0.000201696
-1.48213e-05
0.000158459
-1.28939e-05
0.000110024
-1.01351e-05
5.68507e-05
-6.58737e-06
-2.32686e-06
8.32677e-07
-6.0163e-09
5.51227e-06
5.00314e-09
2.01217e-05
4.90478e-08
4.82817e-05
3.79952e-07
8.64947e-05
1.37295e-06
0.000126668
3.36689e-06
0.000162334
6.3152e-06
0.000191657
9.92005e-06
0.00021597
1.38356e-05
0.000235175
1.74516e-05
0.000248222
1.97212e-05
0.000258714
2.02793e-05
0.000270218
1.94897e-05
0.000282725
1.73583e-05
0.000295675
1.40369e-05
0.00030808
9.67747e-06
0.000318929
4.49265e-06
0.000327065
-1.05188e-06
0.000331339
-6.63062e-06
0.000330863
-1.19135e-05
0.000324928
-1.65011e-05
0.000312939
-2.00731e-05
0.000294553
-2.25047e-05
0.000269673
-2.36776e-05
0.000238406
-2.3486e-05
0.000201018
-2.19295e-05
0.000157902
-1.90648e-05
0.000109611
-1.49673e-05
5.66204e-05
-9.71252e-06
-3.42714e-06
9.32382e-07
-9.7127e-09
6.04811e-06
-6.87111e-10
2.0909e-05
8.96219e-08
4.78327e-05
6.28704e-07
8.28925e-05
2.05173e-06
0.000119037
4.62566e-06
0.000151143
8.26886e-06
0.000178069
1.26552e-05
0.000201047
1.73865e-05
0.000220088
2.17053e-05
0.000234081
2.43829e-05
0.000245959
2.49355e-05
0.000258918
2.37581e-05
0.00027276
2.09994e-05
0.000286943
1.66833e-05
0.000300479
1.11142e-05
0.000312291
4.54272e-06
0.000321331
-2.57065e-06
0.000326448
-9.66355e-06
0.000326686
-1.63306e-05
0.00032135
-2.21552e-05
0.000309916
-2.67047e-05
0.000292044
-2.97441e-05
0.000267604
-3.11421e-05
0.00023671
-3.08084e-05
0.000199652
-2.87297e-05
0.000156848
-2.49571e-05
0.000108868
-1.95759e-05
5.62258e-05
-1.26883e-05
-4.47247e-06
1.06155e-06
-1.42615e-08
6.53697e-06
5.70007e-10
2.1165e-05
1.6763e-07
4.59424e-05
9.49386e-07
7.69328e-05
2.78977e-06
0.000108408
5.85743e-06
0.000136626
1.00222e-05
0.000161026
1.4924e-05
0.000182608
2.0152e-05
0.000201463
2.48468e-05
0.000216584
2.76716e-05
0.000230156
2.8121e-05
0.000244826
2.65116e-05
0.00026029
2.31329e-05
0.000275926
1.79636e-05
0.000290816
1.13114e-05
0.000303829
3.56351e-06
0.000313928
-4.8513e-06
0.000320052
-1.32656e-05
0.000321218
-2.11153e-05
0.000316666
-2.79316e-05
0.000305921
-3.32778e-05
0.000288673
-3.68081e-05
0.000264793
-3.83458e-05
0.000234404
-3.78187e-05
0.000197813
-3.51996e-05
0.000155459
-3.05383e-05
0.000107917
-2.39321e-05
5.57254e-05
-1.5499e-05
-5.45932e-06
1.19506e-06
-1.77939e-08
6.83107e-06
1.76034e-08
2.0646e-05
2.95952e-07
4.25867e-05
1.32837e-06
6.90569e-05
3.51707e-06
9.57329e-05
6.94752e-06
0.000120162
1.14364e-05
0.00014215
1.65833e-05
0.000162402
2.19973e-05
0.000181052
2.67927e-05
0.000197304
2.95444e-05
0.000212684
2.97533e-05
0.000229126
2.77173e-05
0.000246286
2.37336e-05
0.000263455
1.78343e-05
0.000279767
1.02551e-05
0.000294115
1.49791e-06
0.000305386
-7.94219e-06
0.000312578
-1.74193e-05
0.000314735
-2.62395e-05
0.000311075
-3.38462e-05
0.000301111
-3.97935e-05
0.000284558
-4.36827e-05
0.000261325
-4.52899e-05
0.000231541
-4.45196e-05
0.000195523
-4.13427e-05
0.000153727
-3.581e-05
0.000106739
-2.80291e-05
5.5113e-05
-1.81347e-05
-6.38348e-06
1.29784e-06
-1.76866e-08
6.81005e-06
5.64961e-08
1.92754e-05
4.75799e-07
3.79952e-05
1.74663e-06
5.99579e-05
4.18887e-06
8.21737e-05
7.8121e-06
0.000103223
1.23888e-05
0.000123036
1.75332e-05
0.000142058
2.2869e-05
0.000160493
2.75139e-05
0.000177771
3.00402e-05
0.000194841
2.99142e-05
0.000212932
2.74565e-05
0.000231692
2.28881e-05
0.000250367
1.63325e-05
0.000268054
8.01128e-06
0.000283692
-1.5712e-06
0.000296144
-1.18258e-05
0.000304396
-2.21075e-05
0.000307525
-3.16736e-05
0.00030478
-3.98964e-05
0.000295649
-4.62724e-05
0.000279856
-5.03843e-05
0.000257336
-5.19707e-05
0.000228228
-5.09038e-05
0.000192859
-4.71516e-05
0.0001517
-4.07661e-05
0.000105353
-3.18629e-05
5.43935e-05
-2.05914e-05
-7.24256e-06
1.33805e-06
-1.23742e-08
6.42974e-06
1.17273e-07
1.7168e-05
6.88736e-07
3.26036e-05
2.15631e-06
5.04728e-05
4.73903e-06
6.89001e-05
8.38179e-06
8.71016e-05
1.28453e-05
0.000105023
1.77859e-05
0.000122933
2.2831e-05
0.000141093
2.71277e-05
0.000159191
2.92975e-05
0.000177695
2.87577e-05
0.000197229
2.58542e-05
0.000217373
2.07568e-05
0.000237376
1.36139e-05
0.000256285
4.69257e-06
0.000273057
-5.53884e-06
0.000286589
-1.64386e-05
0.000295842
-2.73138e-05
0.000299905
-3.74133e-05
0.000298048
-4.60638e-05
0.000289755
-5.2707e-05
0.000274748
-5.69056e-05
0.000252972
-5.83709e-05
0.000224579
-5.69518e-05
0.000189907
-5.26084e-05
0.000149442
-4.53912e-05
0.000103802
-3.5422e-05
5.35884e-05
-2.28623e-05
-8.0344e-06
1.29955e-06
-1.77164e-09
5.73872e-06
1.92681e-07
1.46015e-05
9.00009e-07
2.70033e-05
2.48782e-06
4.14357e-05
5.08379e-06
5.68113e-05
8.6008e-06
7.26827e-05
1.28138e-05
8.9003e-05
1.74064e-05
0.000105921
2.20037e-05
0.000123761
2.57951e-05
0.00014244
2.74931e-05
0.000162047
2.64813e-05
0.000182735
2.30942e-05
0.00020398
1.75152e-05
0.000225036
9.85171e-06
0.000244951
4.13318e-07
0.000262678
-1.032e-05
0.000277131
-2.16942e-05
0.000287271
-3.29795e-05
0.000292186
-4.34172e-05
0.000291148
-5.23076e-05
0.000283644
-5.90603e-05
0.000269399
-6.32172e-05
0.000248362
-6.44684e-05
0.000220694
-6.26449e-05
0.000186744
-5.76972e-05
0.000147011
-4.96731e-05
0.000102127
-3.8698e-05
5.27176e-05
-2.49427e-05
-8.75762e-06
1.18667e-06
1.30153e-08
4.85784e-06
2.70448e-07
1.19325e-05
1.07046e-06
2.17757e-05
2.68676e-06
3.34903e-05
5.18486e-06
4.64776e-05
8.46909e-06
6.04813e-05
1.23312e-05
7.54817e-05
1.64701e-05
9.15488e-05
2.05147e-05
0.000109046
2.36925e-05
0.000128076
2.48196e-05
0.000148433
2.32959e-05
0.000169919
1.93914e-05
0.000191965
1.33193e-05
0.000213798
5.18409e-06
0.000234477
-4.68945e-06
0.000252949
-1.57985e-05
0.000268133
-2.74866e-05
0.000278994
-3.9012e-05
0.000284624
-4.96115e-05
0.000284295
-5.8573e-05
0.000277497
-6.52892e-05
0.000263955
-6.92865e-05
0.000243623
-7.02397e-05
0.000216667
-6.79655e-05
0.000183443
-6.24054e-05
0.00014446
-5.36029e-05
0.000100364
-4.16853e-05
5.17997e-05
-2.683e-05
-9.41152e-06
1.01942e-06
3.0637e-08
3.93311e-06
3.37749e-07
9.48316e-06
1.17111e-06
1.73279e-05
2.73106e-06
2.6993e-05
5.05217e-06
3.81749e-05
8.03718e-06
5.07357e-05
1.14842e-05
6.46718e-05
1.50955e-05
8.00287e-05
1.85083e-05
9.71707e-05
2.10026e-05
0.000116329
2.14733e-05
0.000137125
1.93657e-05
0.000159096
1.4911e-05
0.00018165
8.33182e-06
0.000203993
-2.38351e-07
0.00022518
-1.04652e-05
0.00024416
-2.18373e-05
0.000259859
-3.36997e-05
0.00027125
-4.53126e-05
0.000277428
-5.59165e-05
0.00027767
-6.47991e-05
0.000271468
-7.13472e-05
0.000258545
-7.50796e-05
0.00023886
-7.56608e-05
0.000212581
-7.28974e-05
0.000180068
-6.67223e-05
0.000141838
-5.71744e-05
9.85454e-05
-4.43811e-05
5.08517e-05
-2.85234e-05
-9.99606e-06
8.22916e-07
5.00892e-08
3.09178e-06
3.85122e-07
7.47387e-06
1.19259e-06
1.38716e-05
2.63562e-06
2.20712e-05
4.73291e-06
3.19402e-05
7.38264e-06
4.34324e-05
1.03741e-05
5.6537e-05
1.34098e-05
7.13013e-05
1.61255e-05
8.81061e-05
1.78573e-05
0.000107235
1.75932e-05
0.000128218
1.48271e-05
0.000150418
9.78657e-06
0.000173219
2.70314e-06
0.000195816
-6.26444e-06
0.000217259
-1.67714e-05
0.000236509
-2.8305e-05
0.0002525
-4.02179e-05
0.000264215
-5.17821e-05
0.000270759
-6.22511e-05
0.000271415
-7.09221e-05
0.000265678
-7.71862e-05
0.000253274
-8.05617e-05
0.00023416
-8.07083e-05
0.000208507
-7.74256e-05
0.000176676
-7.06396e-05
0.000139186
-6.0384e-05
9.66998e-05
-4.67844e-05
4.98883e-05
-3.00235e-05
-1.05117e-05
6.22049e-07
7.0167e-08
2.43304e-06
4.0981e-07
6.03695e-06
1.14894e-06
1.14808e-05
2.44648e-06
1.87109e-05
4.29513e-06
2.76807e-05
6.57887e-06
3.84035e-05
9.07401e-06
5.08864e-05
1.14843e-05
6.51794e-05
1.34521e-05
8.16862e-05
1.43513e-05
0.000100705
1.32709e-05
0.000121693
9.78479e-06
0.000143916
4.13432e-06
0.000166741
-3.44206e-06
0.000189359
-1.27641e-05
0.000210826
-2.34797e-05
0.000230115
-3.50798e-05
0.000246175
-4.6931e-05
0.000258006
-5.83247e-05
0.000264728
-6.85356e-05
0.000265631
-7.6879e-05
0.000260219
-8.27587e-05
0.000248219
-8.56989e-05
0.00022959
-8.53597e-05
0.000204501
-8.15369e-05
0.000173311
-7.41508e-05
0.00013654
-6.32298e-05
9.48509e-05
-4.88963e-05
4.89216e-05
-3.13321e-05
-1.09595e-05
4.68729e-07
8.58768e-08
2.0568e-06
4.22414e-07
5.2705e-06
1.07886e-06
1.01879e-05
2.22187e-06
1.68468e-05
3.79581e-06
2.52543e-05
5.66411e-06
3.54533e-05
7.60298e-06
4.74852e-05
9.33255e-06
6.14068e-05
1.05287e-05
7.76869e-05
1.05603e-05
9.65883e-05
8.57212e-06
0.000117456
4.30019e-06
0.00013954
-1.96351e-06
0.000162203
-1.00044e-05
0.000184639
-1.96273e-05
0.000205918
-3.04768e-05
0.000225029
-4.20515e-05
0.000240945
-5.37369e-05
0.000252689
-6.48501e-05
0.000259399
-7.46938e-05
0.000260383
-8.26089e-05
0.000255151
-8.80184e-05
0.000243438
-9.04586e-05
0.0002252
-8.95941e-05
0.000200605
-8.52198e-05
0.000170009
-7.72514e-05
0.000133926
-6.57119e-05
9.30171e-05
-5.07192e-05
4.79612e-05
-3.24521e-05
-1.13406e-05
5.49293e-07
5.99709e-08
2.19125e-06
4.80304e-07
5.32335e-06
1.04853e-06
1.00349e-05
1.98894e-06
1.64096e-05
3.22088e-06
2.45049e-05
4.59674e-06
3.43873e-05
5.90388e-06
4.61065e-05
6.8996e-06
5.97601e-05
7.27391e-06
7.59273e-05
6.34634e-06
9.47197e-05
3.37787e-06
0.000115357
-1.67164e-06
0.000137165
-8.50839e-06
0.000159503
-1.69656e-05
0.000181576
-2.68242e-05
0.000202468
-3.77275e-05
0.000221198
-4.91842e-05
0.000236767
-6.06027e-05
0.000248227
-7.13318e-05
0.000254743
-8.07075e-05
0.000255643
-8.81025e-05
0.000250452
-9.29653e-05
0.00023891
-9.48489e-05
0.000220975
-9.34262e-05
0.00019681
-8.84933e-05
0.000166764
-7.99626e-05
0.000131343
-6.78513e-05
9.12011e-05
-5.22716e-05
4.70106e-05
-3.33968e-05
-1.16602e-05
-4.23571e-05
8.60561e-06
-8.14005e-05
2.46528e-05
-0.000116823
3.90375e-05
-0.000148599
5.2197e-05
-0.000175734
6.41547e-05
-0.000197164
7.45313e-05
-0.000212028
8.28766e-05
-0.000219763
8.87658e-05
-0.000220229
9.18689e-05
-0.000213817
9.20284e-05
-0.000201445
8.9298e-05
-0.000184432
8.39735e-05
-0.00016438
7.65603e-05
-0.000143042
6.77272e-05
-0.000122081
5.82605e-05
-0.00010291
4.89448e-05
-8.65999e-05
4.04724e-05
-7.3732e-05
3.33576e-05
-6.436e-05
2.78647e-05
-5.7985e-05
2.39726e-05
-5.22993e-05
2.118e-05
-4.55629e-05
1.87338e-05
-3.78207e-05
1.61822e-05
-2.89373e-05
1.33022e-05
-1.93471e-05
1.00577e-05
-1.03906e-05
6.75097e-06
-3.72771e-06
3.87882e-06
-2.169e-07
1.8514e-06
7.75175e-07
7.55832e-07
3.24408e-07
4.87491e-07
-4.17213e-05
8.75167e-06
-8.01884e-05
2.50753e-05
-0.000115244
3.97105e-05
-0.00014721
5.3161e-05
-0.000175098
6.55556e-05
-0.000197628
7.65058e-05
-0.000213874
8.54955e-05
-0.000223258
9.20899e-05
-0.00022557
9.59526e-05
-0.000221107
9.68898e-05
-0.000210718
9.49229e-05
-0.000195632
9.03234e-05
-0.000177356
8.35589e-05
-0.000157552
7.52622e-05
-0.000137836
6.61888e-05
-0.000119593
5.71089e-05
-0.000103863
4.87116e-05
-9.12004e-05
4.15068e-05
-8.16292e-05
3.57685e-05
-7.45648e-05
3.14804e-05
-6.7228e-05
2.80635e-05
-5.73883e-05
2.45951e-05
-4.58015e-05
2.0674e-05
-3.33978e-05
1.64189e-05
-2.11054e-05
1.20528e-05
-1.0503e-05
7.96187e-06
-3.04803e-06
4.61358e-06
8.43821e-07
2.29859e-06
2.09032e-06
9.88879e-07
3.83117e-07
2.14914e-06
-4.08948e-05
8.82249e-06
-7.8712e-05
2.52985e-05
-0.000113304
4.01097e-05
-0.000145198
5.37828e-05
-0.000173638
6.65266e-05
-0.000197171
7.79801e-05
-0.000214726
8.7565e-05
-0.000225752
9.48397e-05
-0.000229935
9.94632e-05
-0.00022747
0.000101188
-0.000219161
0.000100018
-0.000206137
9.62022e-05
-0.000189794
9.01588e-05
-0.000171686
8.24828e-05
-0.000153335
7.38846e-05
-0.000136079
6.51046e-05
-0.000120898
5.6811e-05
-0.000108295
4.95064e-05
-9.82817e-05
4.34694e-05
-9.02901e-05
3.8712e-05
-8.14049e-05
3.4692e-05
-6.84358e-05
3.02772e-05
-5.28138e-05
2.49902e-05
-3.70372e-05
1.93882e-05
-2.23058e-05
1.39956e-05
-1.02365e-05
9.20434e-06
-1.89348e-06
5.41063e-06
2.71296e-06
2.7791e-06
4.62107e-06
1.209e-06
3.89157e-07
5.22674e-06
-3.9777e-05
8.81346e-06
-7.67229e-05
2.52918e-05
-0.000110728
4.01512e-05
-0.000142365
5.39329e-05
-0.000171153
6.6917e-05
-0.000195638
7.88271e-05
-0.000214452
8.90156e-05
-0.000227074
9.69638e-05
-0.000233103
0.00010233
-0.000232588
0.000104817
-0.000226367
0.000104427
-0.00021545
0.000101408
-0.000201092
9.61222e-05
-0.000184718
8.91054e-05
-0.000167739
8.10168e-05
-0.00015141
7.25552e-05
-0.000136631
6.43586e-05
-0.000123857
5.69165e-05
-0.000113096
5.05041e-05
-0.000103914
4.51779e-05
-9.36604e-05
4.04947e-05
-7.81391e-05
3.52956e-05
-5.89241e-05
2.89945e-05
-4.00037e-05
2.2265e-05
-2.3011e-05
1.59073e-05
-9.48436e-06
1.04457e-05
2.97974e-09
6.18642e-06
5.72527e-06
3.17304e-06
8.76396e-06
1.26327e-06
1.4499e-07
1.0349e-05
-3.83236e-05
8.71855e-06
-7.40884e-05
2.50389e-05
-0.000107255
3.98033e-05
-0.000138385
5.35504e-05
-0.000167204
6.65841e-05
-0.000192542
7.87827e-05
-0.000212744
8.959e-05
-0.000227072
9.83543e-05
-0.000234876
0.000104516
-0.000236122
0.000107687
-0.000231909
0.000108002
-0.000223051
0.000105758
-0.000210614
0.000101217
-0.000195899
9.48485e-05
-0.000180178
8.72598e-05
-0.000164611
7.90944e-05
-0.000150015
7.09648e-05
-0.000136781
6.33347e-05
-0.000124921
5.64679e-05
-0.000114113
5.04432e-05
-0.000101907
4.48243e-05
-8.45509e-05
3.8722e-05
-6.33236e-05
3.18297e-05
-4.20888e-05
2.46054e-05
-2.31007e-05
1.76707e-05
-7.95653e-06
1.16151e-05
2.96933e-06
6.8134e-06
1.01465e-05
3.32951e-06
1.46795e-05
9.86639e-07
-5.29704e-07
1.75463e-05
-3.64913e-05
8.53317e-06
-7.07255e-05
2.45255e-05
-0.000102737
3.90395e-05
-0.000133064
5.26091e-05
-0.000161481
6.55248e-05
-0.000187189
7.77247e-05
-0.000208724
8.88631e-05
-0.000224999
9.83855e-05
-0.000234808
0.000105539
-0.000237782
0.000109609
-0.000235382
0.000110642
-0.000228445
0.000109104
-0.000217741
0.000105248
-0.0002045
9.94645e-05
-0.000189819
9.23174e-05
-0.000174783
8.43989e-05
-0.000160122
7.62977e-05
-0.00014617
6.84461e-05
-0.000132932
6.11006e-05
-0.000120105
5.43479e-05
-0.000105226
4.77511e-05
-8.60328e-05
4.06399e-05
-6.40653e-05
3.30884e-05
-4.20277e-05
2.56331e-05
-2.18748e-05
1.86225e-05
-5.19944e-06
1.23441e-05
7.34211e-06
7.1196e-06
1.62211e-05
3.11332e-06
2.24917e-05
2.28477e-07
-1.79217e-06
2.68547e-05
-3.42494e-05
8.25528e-06
-6.65732e-05
2.37455e-05
-9.70825e-05
3.78493e-05
-0.00012629
5.10904e-05
-0.000153945
6.37501e-05
-0.000179356
7.57538e-05
-0.000201517
8.68348e-05
-0.000219317
9.65886e-05
-0.000231495
0.000104506
-0.000236894
0.000109832
-0.000236481
0.000112075
-0.000231246
0.000111374
-0.000221958
0.000108091
-0.000209924
0.000102787
-0.000195969
9.59874e-05
-0.000181204
8.82396e-05
-0.000166267
8.01378e-05
-0.000151446
7.2072e-05
-0.000136755
6.42933e-05
-0.000121929
5.69128e-05
-0.000104687
4.95682e-05
-8.36319e-05
4.16834e-05
-6.08926e-05
3.34626e-05
-3.87507e-05
2.56163e-05
-1.83107e-05
1.84937e-05
-6.81892e-07
1.2178e-05
1.3427e-05
6.77062e-06
2.41866e-05
2.34916e-06
3.23798e-05
-1.10712e-06
-3.72052e-06
3.84053e-05
-3.15872e-05
7.88681e-06
-6.1611e-05
2.27047e-05
-9.02587e-05
3.6242e-05
-0.000118008
4.90058e-05
-0.00014459
6.12637e-05
-0.000169285
7.29426e-05
-0.000191247
8.37735e-05
-0.000209514
9.33741e-05
-0.000223398
0.000101419
-0.000231641
0.000107516
-0.000233995
0.000111116
-0.000230791
0.000111776
-0.000222982
0.000109522
-0.000211808
0.000104804
-0.000198137
9.819e-05
-0.000183389
9.04963e-05
-0.000168036
8.23806e-05
-0.000152316
7.41408e-05
-0.000136292
6.60181e-05
-0.000119807
5.81573e-05
-0.000100968
5.02745e-05
-7.86534e-05
4.18839e-05
-5.51931e-05
3.32522e-05
-3.28362e-05
2.5105e-05
-1.23028e-05
1.77701e-05
5.81325e-06
1.13104e-05
2.1181e-05
5.74572e-06
3.38108e-05
1.02836e-06
4.41775e-05
-2.92627e-06
-6.18763e-06
5.22627e-05
-2.85118e-05
7.4331e-06
-5.58531e-05
2.14186e-05
-8.22841e-05
3.42424e-05
-0.000108235
4.63879e-05
-0.000133411
5.81038e-05
-0.000157088
6.93158e-05
-0.000178395
7.97618e-05
-0.000196444
8.90888e-05
-0.000210733
9.69461e-05
-0.000220657
0.000103069
-0.000225528
0.000107167
-0.000224986
0.000108912
-0.000219553
0.000108142
-0.000209608
0.000104724
-0.000196088
9.87599e-05
-0.000181062
9.11745e-05
-0.000165229
8.30094e-05
-0.000148661
7.46512e-05
-0.00013153
6.62849e-05
-0.000113793
5.80968e-05
-9.39333e-05
4.98701e-05
-7.10387e-05
4.11938e-05
-4.7351e-05
3.23516e-05
-2.4913e-05
2.40586e-05
-4.28628e-06
1.66197e-05
1.41757e-05
1.00485e-05
3.039e-05
4.32227e-06
4.45237e-05
-6.2792e-07
5.6964e-05
-4.9135e-06
-8.57835e-06
6.71797e-05
-2.50369e-05
6.90181e-06
-4.93241e-05
1.99088e-05
-7.31896e-05
3.18838e-05
-9.7004e-05
4.32801e-05
-0.000120437
5.43232e-05
-0.000142755
6.49353e-05
-0.000163083
7.48639e-05
-0.000180572
8.37773e-05
-0.00019459
9.13402e-05
-0.000204767
9.72633e-05
-0.000210607
0.000101279
-0.000212029
0.000103284
-0.000209075
0.000103279
-0.000201451
0.000101174
-0.000189195
9.67114e-05
-0.000174149
9.00514e-05
-0.00015782
8.2108e-05
-0.00014046
7.36584e-05
-0.000122473
6.51282e-05
-0.000103847
5.6747e-05
-8.34184e-05
4.83338e-05
-6.04419e-05
3.95539e-05
-3.69449e-05
3.06838e-05
-1.47222e-05
2.23951e-05
5.83297e-06
1.49565e-05
2.45062e-05
8.35455e-06
4.12776e-05
2.55079e-06
5.63759e-05
-2.52012e-06
7.01435e-05
-6.94232e-06
-1.06921e-05