/*--------------------------------*- C++ -*----------------------------------*\
| =========                 |                                                 |
| \\      /  F ield         | OpenFOAM: The Open Source CFD Toolbox           |
|  \\    /   O peration     | Version:  dev                                   |
|   \\  /    A nd           | Web:      www.OpenFOAM.org                      |
|    \\/     M anipulation  |                                                 |
\*---------------------------------------------------------------------------*/
FoamFile
{
    version     2.0;
    format      ascii;
    class       volScalarField;
    location    "1";
    object      p;
}
// * * * * * * * * * * * * * * * * * * * * * * * * * * * * * * * * * * * * * //

dimensions      [0 2 -2 0 0 0 0];

internalField   nonuniform List<scalar> 
2790
(
179.8
179.65
179.821
180.293
180.955
181.759
182.695
183.766
184.966
186.291
187.738
189.302
190.98
192.768
194.66
196.649
198.723
200.871
203.072
205.305
207.539
209.739
211.863
213.861
215.681
217.267
218.566
219.529
220.121
220.368
179.636
179.581
179.773
180.242
180.902
181.703
182.637
183.702
184.897
186.216
187.655
189.211
190.88
192.658
194.539
196.517
198.58
200.716
202.907
205.131
207.36
209.559
211.688
213.698
215.537
217.15
218.481
219.482
220.107
220.559
179.475
179.492
179.701
180.161
180.811
181.603
182.526
183.578
184.756
186.057
187.475
189.007
190.648
192.395
194.241
196.178
198.198
200.286
202.427
204.598
206.774
208.921
211.004
212.977
214.795
216.408
217.771
218.859
219.66
220.375
179.303
179.356
179.578
180.031
180.669
181.449
182.357
183.392
184.55
185.826
187.215
188.714
190.318
192.021
193.817
195.698
197.655
199.673
201.736
203.824
205.911
207.969
209.961
211.85
213.595
215.152
216.486
217.571
218.353
218.845
179.111
179.183
179.416
179.862
180.488
181.253
182.143
183.155
184.285
185.53
186.883
188.34
189.895
191.543
193.277
195.088
196.965
198.894
200.859
202.84
204.812
206.747
208.613
210.374
211.991
213.422
214.621
215.532
216.05
215.851
178.895
178.977
179.215
179.655
180.266
181.012
181.879
182.863
183.961
185.168
186.477
187.884
189.383
190.967
192.627
194.355
196.139
197.965
199.814
201.668
203.501
205.286
206.991
208.58
210.011
211.235
212.185
212.759
212.87
211.731
178.654
178.74
178.979
179.41
180.004
180.728
181.568
182.52
183.581
184.744
186.004
187.354
188.787
190.297
191.874
193.509
195.187
196.896
198.615
200.323
201.997
203.606
205.117
206.491
207.679
208.619
209.227
209.342
208.998
206.857
178.385
178.472
178.709
179.129
179.704
180.403
181.212
182.128
183.147
184.261
185.464
186.75
188.111
189.539
191.024
192.555
194.117
195.695
197.269
198.816
200.31
201.719
203.006
204.125
205.018
205.611
205.805
205.377
204.575
201.461
178.09
178.176
178.406
178.813
179.367
180.038
180.814
181.69
182.661
183.722
184.863
186.079
187.361
188.699
190.083
191.5
192.936
194.372
195.788
197.158
198.453
199.638
200.671
201.498
202.052
202.241
201.964
200.931
199.668
195.625
177.769
177.851
178.074
178.465
178.995
179.636
180.375
181.207
182.128
183.129
184.204
185.344
186.54
187.781
189.057
190.352
191.651
192.935
194.18
195.358
196.437
197.376
198.127
198.626
198.797
198.532
197.734
196.031
194.275
189.313
177.423
177.501
177.712
178.086
178.591
179.198
179.897
180.683
181.549
182.488
183.491
184.55
185.654
186.793
187.953
189.119
190.274
191.395
192.457
193.43
194.275
194.948
195.39
195.529
195.275
194.503
193.121
190.669
188.326
182.366
177.052
177.124
177.324
177.678
178.155
178.728
179.384
180.12
180.928
181.8
182.728
183.702
184.71
185.741
186.779
187.81
188.812
189.762
190.632
191.387
191.985
192.372
192.481
192.229
191.509
190.171
188.125
184.806
181.674
174.446
176.657
176.724
176.91
177.243
177.691
178.227
178.838
179.522
180.269
181.072
181.92
182.805
183.713
184.631
185.544
186.433
187.277
188.05
188.719
189.247
189.585
189.672
189.429
188.759
187.532
185.566
182.747
178.387
174.087
164.943
176.242
176.302
176.473
176.783
177.201
177.697
178.262
178.891
179.575
180.306
181.073
181.865
182.67
183.472
184.255
184.999
185.681
186.271
186.735
187.03
187.1
186.876
186.27
185.163
183.4
180.75
177.034
171.401
165.287
152.748
175.805
175.86
176.015
176.301
176.686
177.142
177.659
178.231
178.85
179.506
180.19
180.888
181.587
182.271
182.922
183.519
184.036
184.442
184.698
184.758
184.559
184.024
183.053
181.508
179.202
175.851
171.163
164.06
155.268
135.75
90.5851
90.4085
90.0315
89.4267
88.5638
87.4139
85.9565
84.1755
82.051
79.5212
76.5766
73.2643
69.6073
65.6475
61.442
57.0614
52.5864
48.1061
43.7136
39.504
35.5719
31.9952
28.7838
25.8982
23.3006
20.9489
18.707
16.019
11.7325
5.06762
90.5894
90.4304
90.0753
89.4904
88.6371
87.4849
86.0233
84.2323
82.0832
79.5375
76.5882
73.2631
69.5898
65.6107
61.3834
56.9792
52.4794
47.9738
43.556
39.3196
35.3536
31.728
28.4592
25.5117
22.8349
20.3683
17.96
15.1347
10.943
4.39883
90.7083
90.5789
90.2384
89.6506
88.7834
87.6223
86.1418
84.3196
82.129
79.5453
76.5647
73.2062
69.4981
65.4826
61.2173
56.7728
52.2311
47.6827
43.2216
38.9403
34.9215
31.227
27.8845
24.8653
22.105
19.5204
16.9454
13.9914
9.91092
3.78798
90.9558
90.8489
90.5108
89.9095
89.0206
87.8245
86.299
84.4217
82.1694
79.5245
76.4846
73.0646
69.2924
65.2098
60.8741
56.356
51.7382
47.1124
42.5743
38.2161
34.1168
30.3338
26.901
23.7973
20.9557
18.2794
15.6033
12.6107
8.71284
3.21375
91.3018
91.2151
90.8709
90.2424
89.3102
88.0588
86.4693
84.521
82.1927
79.4703
76.3518
72.8501
68.9927
64.8212
60.393
55.7792
51.0636
46.339
41.7025
37.2471
33.0506
29.1679
25.634
22.4398
19.5249
16.7881
14.0728
11.1155
7.46617
2.67255
91.7151
91.6488
91.2762
90.5981
89.6055
88.2864
86.6231
84.5948
82.1813
79.3691
76.1561
72.5539
68.5895
64.3048
59.7574
55.02
50.178
45.3264
40.5652
35.9903
31.6825
27.698
24.0692
20.7991
17.839
15.0907
12.4063
9.55889
6.22183
2.16307
92.161
92.0903
91.6657
90.9243
89.8645
88.4754
86.7372
84.6271
82.124
79.214
75.8947
72.1773
68.0884
63.6705
58.9826
54.0994
49.1087
44.1089
39.2033
34.492
30.0614
25.9727
22.2587
18.9298
15.9521
13.2392
10.6485
7.97749
5.00531
1.68445
92.5725
92.4779
91.9877
91.1812
90.0594
88.6075
86.8006
84.6121
82.019
79.007
75.5732
71.7289
67.5008
62.9329
58.0859
53.037
47.8777
42.7101
37.642
32.7792
28.2162
24.0233
20.2386
16.8724
13.9064
11.2729
8.83179
6.39544
3.82971
1.23561
92.8931
92.7616
92.2071
91.3475
90.1804
88.6807
86.8162
84.5558
81.8748
78.7585
75.2039
71.2227
66.8432
62.1108
57.0891
51.8586
46.5144
41.1632
35.918
30.8919
26.1886
21.8903
18.0444
14.6623
11.7403
9.22504
6.98131
4.82957
2.70223
0.814903
93.0766
92.9082
92.3106
91.425
90.238
88.7101
86.8013
84.4763
81.7095
78.4862
74.8045
70.6778
66.1362
61.2281
56.02
50.5956
45.054
39.5064
34.0723
28.8724
24.0208
19.6129
15.7114
12.3393
9.49205
7.12436
5.11785
3.29252
1.62698
0.420901
93.0888
92.9072
92.3119
91.4406
90.2649
88.7291
86.7872
84.4021
81.5481
78.2128
74.3968
70.1166
65.405
60.3131
54.9103
49.2835
43.5354
37.7819
32.1488
26.7659
21.7585
17.2376
13.2862
9.9417
7.18991
4.99639
3.25982
1.79487
0.606797
0.0527478
92.9108
92.7778
92.2574
91.4495
90.3164
88.7887
86.8178
84.3685
81.4197
77.9635
74.0053
69.5648
64.6774
59.3967
53.7947
47.9609
42.0011
36.0354
30.1965
24.6235
19.4543
14.8163
10.8125
7.4977
4.8579
2.8674
1.42562
0.347197
-0.355201
-0.289948
92.5329
92.5795
92.2338
91.5373
90.4691
88.9516
86.9415
84.412
81.353
77.7637
73.6548
69.0485
63.9822
58.511
52.7093
46.6687
40.4967
34.3168
28.2683
22.5004
17.1633
12.3994
8.33138
5.03852
2.53506
0.772144
-0.365076
-1.03898
-1.25459
-0.606871
91.9244
92.4396
92.3827
91.8202
90.8105
89.2783
87.1995
84.5632
81.3716
77.6347
73.3673
68.5921
63.3465
57.6874
51.6909
45.4493
39.0708
32.6795
26.422
20.4567
14.9458
10.0455
5.90164
2.62702
0.262704
-1.27207
-2.09232
-2.3499
-2.08401
-0.896056
90.9022
92.6146
92.9119
92.4667
91.4535
89.826
87.6097
84.8226
81.4731
77.5758
73.1503
68.2133
62.7933
56.9533
50.773
44.3437
37.7714
31.1774
24.7177
18.5585
12.874
7.83088
3.60151
0.327103
-1.92824
-3.24069
-3.72429
-3.56547
-2.83001
-1.15275
175.341
175.389
175.528
175.788
176.139
176.553
177.02
177.533
178.084
178.663
179.259
179.86
180.45
181.012
181.528
181.974
182.323
182.541
182.587
182.409
181.941
181.099
179.771
177.804
174.989
170.994
165.413
156.963
145.086
109.302
174.845
174.886
175.007
175.239
175.554
175.924
176.337
176.788
177.268
177.767
178.274
178.773
179.25
179.687
180.064
180.356
180.534
180.563
180.398
179.986
179.257
178.122
176.465
174.13
170.906
166.473
160.442
151.753
141.037
129.746
174.319
174.352
174.454
174.657
174.935
175.259
175.617
176.004
176.411
176.827
177.241
177.636
177.998
178.308
178.544
178.682
178.69
178.532
178.162
177.525
176.551
175.154
173.22
170.607
167.141
162.593
156.804
149.495
141.736
136.473
173.764
173.79
173.872
174.046
174.285
174.56
174.861
175.182
175.514
175.846
176.165
176.455
176.701
176.883
176.979
176.964
176.805
176.466
175.901
175.057
173.865
172.246
170.101
167.316
163.77
159.341
154.004
147.708
140.595
133.417
173.182
173.2
173.261
173.404
173.603
173.83
174.072
174.325
174.581
174.827
175.051
175.236
175.365
175.421
175.379
175.215
174.896
174.385
173.641
172.611
171.234
169.44
167.151
164.283
160.758
156.51
151.521
145.753
139.153
132.327
172.575
172.583
172.623
172.734
172.893
173.069
173.252
173.437
173.616
173.776
173.904
173.984
173.999
173.93
173.755
173.447
172.977
172.309
171.403
170.212
168.684
166.763
164.386
161.495
158.042
153.988
149.324
144.068
138.269
132.4
171.942
171.941
171.96
172.039
172.156
172.281
172.404
172.521
172.623
172.697
172.73
172.706
172.61
172.421
172.117
171.675
171.064
170.253
169.205
167.881
166.237
164.226
161.805
158.934
155.583
151.736
147.404
142.632
137.479
132.226
171.287
171.276
171.273
171.319
171.395
171.469
171.533
171.581
171.606
171.596
171.535
171.411
171.206
170.902
170.477
169.91
169.172
168.234
167.066
165.634
163.902
161.835
159.402
156.578
153.348
149.709
145.683
141.309
136.636
131.854
170.611
170.591
170.565
170.579
170.612
170.636
170.64
170.621
170.571
170.477
170.326
170.105
169.796
169.384
168.847
168.164
167.313
166.266
164.997
163.48
161.685
159.589
157.168
154.409
151.306
147.866
144.109
140.073
135.799
131.435
169.918
169.887
169.839
169.82
169.812
169.785
169.731
169.646
169.522
169.348
169.11
168.795
168.389
167.875
167.235
166.45
165.498
164.358
163.008
161.425
159.59
157.483
155.091
152.407
149.432
146.177
142.662
138.92
134.987
130.98
169.209
169.168
169.098
169.047
168.997
168.921
168.811
168.661
168.466
168.213
167.892
167.49
166.993
166.386
165.652
164.775
163.737
162.519
161.103
159.474
157.614
155.513
153.161
150.558
147.708
144.623
141.323
137.836
134.193
130.488
168.489
168.438
168.346
168.262
168.172
168.048
167.882
167.671
167.407
167.081
166.682
166.198
165.616
164.924
164.106
163.149
162.037
160.755
159.289
157.626
155.756
153.671
151.368
148.847
146.115
143.186
140.078
136.813
133.418
129.97
167.76
167.699
167.585
167.47
167.341
167.171
166.952
166.681
166.352
165.956
165.484
164.924
164.266
163.497
162.605
161.579
160.404
159.07
157.566
155.883
154.013
151.953
149.701
147.262
144.642
141.855
138.916
135.846
132.665
129.438
167.027
166.955
166.82
166.676
166.508
166.294
166.025
165.698
165.307
164.846
164.306
163.677
162.949
162.112
161.155
160.069
158.843
157.469
155.937
154.243
152.381
150.351
148.153
145.793
143.277
140.618
137.83
134.931
131.936
128.902
166.293
166.211
166.056
165.882
165.679
165.423
165.105
164.725
164.278
163.757
163.154
162.462
161.672
160.774
159.762
158.626
157.358
155.952
154.402
152.704
150.857
148.86
146.716
144.431
142.011
139.469
136.815
134.066
131.235
128.369
165.563
165.472
165.296
165.096
164.858
164.562
164.2
163.771
163.27
162.694
162.035
161.286
160.44
159.49
158.43
157.251
155.95
154.521
152.96
151.265
149.436
147.474
145.384
143.169
140.838
138.4
135.867
133.251
130.564
127.846
164.841
164.741
164.547
164.32
164.051
163.717
163.314
162.839
162.29
161.663
160.953
160.154
159.26
158.264
157.163
155.95
154.623
153.177
151.61
149.923
148.115
146.19
144.15
142.001
139.752
137.409
134.983
132.485
129.925
127.337
164.133
164.024
163.812
163.561
163.262
162.894
162.452
161.936
161.343
160.67
159.915
159.072
158.134
157.1
155.965
154.725
153.377
151.92
150.353
148.676
146.891
145.001
143.01
140.924
138.748
136.49
134.161
131.768
129.32
126.848
163.443
163.326
163.098
162.824
162.498
162.098
161.621
161.066
160.434
159.721
158.926
158.043
157.07
156.003
154.839
153.577
152.215
150.752
149.187
147.523
145.762
143.907
141.961
139.931
137.823
135.643
133.399
131.099
128.751
126.381
162.778
162.653
162.41
162.115
161.763
161.335
160.825
160.237
159.569
158.821
157.99
157.074
156.069
154.975
153.789
152.51
151.137
149.671
148.112
146.462
144.724
142.903
141
139.022
136.974
134.863
132.696
130.479
128.22
125.939
162.143
162.01
161.753
161.44
161.065
160.61
160.072
159.453
158.755
157.975
157.114
156.168
155.138
154.021
152.816
151.524
150.145
148.678
147.127
145.492
143.777
141.987
140.124
138.193
136.2
134.151
132.052
129.908
127.727
125.527
161.543
161.404
161.135
160.803
160.408
159.93
159.367
158.721
157.995
157.189
156.301
155.331
154.279
153.143
151.924
150.623
149.239
147.775
146.232
144.612
142.92
141.159
139.332
137.444
135.5
133.506
131.467
129.388
127.276
125.145
160.986
160.841
160.56
160.213
159.799
159.3
158.715
158.046
157.296
156.467
155.557
154.566
153.496
152.346
151.116
149.808
148.422
146.961
145.427
143.822
142.151
140.417
138.623
136.773
134.873
132.927
130.941
128.919
126.867
124.798
160.479
160.327
160.035
159.674
159.244
158.727
158.123
157.434
156.664
155.814
154.886
153.879
152.794
151.632
150.394
149.081
147.695
146.239
144.714
143.124
141.472
139.762
137.997
136.181
134.32
132.416
130.476
128.503
126.504
124.488
160.027
159.87
159.568
159.194
158.749
158.217
157.596
156.89
156.103
155.237
154.293
153.273
152.176
151.005
149.761
148.446
147.061
145.609
144.093
142.516
140.882
139.193
137.454
135.668
133.84
131.973
130.072
128.142
126.187
124.216
159.639
159.476
159.164
158.778
158.321
157.776
157.141
156.421
155.621
154.742
153.786
152.754
151.649
150.471
149.223
147.906
146.523
145.077
143.569
142.004
140.385
138.715
136.998
135.238
133.438
131.602
129.735
127.84
125.923
123.99
159.323
159.154
158.831
158.433
157.965
157.409
156.762
156.031
155.22
154.33
153.365
152.325
151.213
150.031
148.78
147.463
146.082
144.641
143.141
141.586
139.98
138.326
136.627
134.887
133.11
131.299
129.459
127.594
125.706
123.803
159.089
158.909
158.574
158.168
157.692
157.127
156.472
155.733
154.913
154.016
153.044
151.998
150.882
149.696
148.444
147.127
145.749
144.312
142.819
141.273
139.677
138.037
136.353
134.63
132.872
131.082
129.264
127.422
125.56
123.682
158.953
158.744
158.389
157.976
157.496
156.926
156.266
155.52
154.696
153.794
152.818
151.769
150.65
149.463
148.21
146.895
145.518
144.084
142.596
141.056
139.468
137.836
136.162
134.45
132.704
130.927
129.123
127.296
125.448
123.584
158.949
158.687
158.309
157.888
157.403
156.829
156.164
155.416
154.588
153.684
152.706
151.657
150.537
149.351
148.1
146.786
145.413
143.984
142.5
140.966
139.386
137.761
136.096
134.394
132.658
130.892
129.099
127.283
125.447
123.596
21.7835
46.8063
72.0795
120.197
117.578
113.248
127.809
120.563
115.119
124.257
118.755
115.186
125.629
121.392
118.102
126.946
123.247
120.103
127.367
124.054
121.185
127.482
124.506
121.909
127.469
124.763
122.392
127.339
124.848
122.666
127.115
124.802
122.78
126.823
124.663
122.778
126.487
124.457
122.692
126.121
124.205
122.544
125.737
123.923
122.354
125.346
123.622
122.134
124.956
123.312
121.897
124.572
123
121.65
124.199
122.692
121.4
123.842
122.394
121.153
123.505
122.109
120.914
123.191
121.842
120.687
122.903
121.595
120.476
122.646
121.374
120.285
122.419
121.179
120.116
122.233
121.02
119.979
122.076
120.885
119.863
121.983
120.81
119.8
121.9
120.74
119.743
121.932
120.784
119.791
93.1579
93.8711
93.7711
93.5873
92.4917
90.6387
88.1926
85.1971
81.6584
77.5859
72.9933
67.8969
62.3214
56.3251
49.9887
43.3961
36.6398
29.8536
23.2041
16.8616
11.0107
5.81597
1.48113
-1.83085
-4.02028
-5.10608
-5.24965
-4.68878
-3.49188
-1.37514
105.001
99.1247
97.5367
96.1456
94.1332
91.7147
88.9153
85.66
81.9084
77.6523
72.8952
67.6499
61.9406
55.8175
49.3508
42.6186
35.7155
28.7839
21.9855
15.4875
9.45471
4.09026
-0.376042
-3.76512
-5.92221
-6.84471
-6.68414
-5.70179
-4.0498
-1.55536
108.088
102.108
99.7631
97.9284
95.5637
92.7618
89.619
86.0972
82.1406
77.7187
72.8217
67.4553
61.6409
55.4221
48.8618
42.0381
35.0485
28.0292
21.1311
14.5102
8.33495
2.84857
-1.72985
-5.19488
-7.40527
-8.28983
-7.91135
-6.56095
-4.45516
-1.68665
110.284
104.884
101.57
98.935
96.2052
93.2455
89.9852
86.3353
82.2501
77.7158
72.7265
67.2851
61.4096
55.1392
48.5331
41.6693
34.6459
27.5909
20.6505
13.9839
7.76917
2.23825
-2.38889
-5.9166
-8.21781
-9.15118
-8.73116
-6.99925
-4.65026
-1.82787
113.368
107.993
103.752
100.174
96.8298
93.5077
90.05
86.3036
82.1656
77.5922
72.5734
67.1145
61.2339
54.9679
48.373
41.5255
34.5227
27.4877
20.5654
13.9184
7.73007
2.21676
-2.40261
-5.93115
-8.22093
-9.16462
-8.77634
-7.25435
-4.97899
-1.9935
115.742
110.617
105.892
101.637
97.7192
93.947
90.1577
86.2063
81.9729
77.375
72.3693
66.9442
61.1126
54.9078
48.3831
41.6119
34.6893
27.7346
20.8903
14.3189
8.20306
2.74887
-1.8319
-5.34557
-7.64192
-8.63939
-8.37451
-7.02406
-4.82011
-2.06078
117.337
112.613
107.767
103.147
98.8232
94.6659
90.5339
86.3136
81.9059
77.2269
72.2148
66.8354
61.0835
54.9813
48.575
41.933
35.146
28.3283
21.6175
15.172
9.1697
3.80619
-0.718807
-4.22296
-6.56657
-7.68196
-7.60599
-6.48405
-4.53029
-2.0814
118.482
114.141
109.374
104.621
100.069
95.645
91.2397
86.77
82.1649
77.3579
72.2922
66.9278
61.2468
55.2573
48.993
42.5129
35.9
29.2611
22.7258
16.445
10.5874
5.33572
0.874215
-2.63054
-5.05301
-6.33468
-6.50699
-5.69468
-4.08927
-2.02404
119.291
115.291
110.711
105.99
101.366
96.808
92.2343
87.5882
82.8234
77.8936
72.7561
67.3778
61.7409
55.847
49.7201
43.4081
36.9833
30.542
24.2032
18.1064
12.4078
7.27428
2.87245
-0.648588
-3.1778
-4.66389
-5.13256
-4.68915
-3.49934
-1.88226
119.829
116.13
111.787
107.204
102.629
98.056
93.425
88.6976
83.8465
78.8429
73.6584
68.2705
62.6677
56.8532
50.8476
44.6915
38.4475
32.2005
26.0569
20.1425
14.5981
9.57306
5.21524
1.65591
-1.00773
-2.73035
-3.53197
-3.50038
-2.77664
-1.6562
120.162
116.73
112.636
108.245
103.798
99.3016
94.709
89.993
85.139
80.1312
74.9526
69.5906
64.0406
58.3101
52.4204
46.409
40.3318
34.2641
28.2999
22.5507
17.1409
12.202
7.86305
4.23809
1.4115
-0.576489
-1.74049
-2.15321
-1.93402
-1.34985
120.347
117.152
113.299
109.119
104.843
100.484
95.9991
91.3695
86.5872
81.6448
76.5336
71.2477
65.7884
60.1669
54.4057
48.541
42.6242
36.7227
30.92
25.314
20.0136
15.1331
10.7838
7.06413
4.0468
1.76759
0.216372
-0.666415
-0.98131
-0.965407
120.423
117.438
113.81
109.842
105.757
101.567
97.234
92.7419
88.0868
83.2663
78.2767
73.1163
67.7901
62.3112
56.7026
50.9989
45.2471
39.5081
33.8557
28.3759
23.1632
18.3163
13.931
10.0915
6.86035
4.26951
2.3125
0.940979
0.0706167
-0.504191
120.417
117.619
114.198
110.436
106.543
102.536
98.3769
94.0515
89.5582
84.8973
80.068
75.0711
69.9129
64.607
59.1758
53.6509
48.075
42.5021
36.997
31.6346
26.4965
21.6674
17.2292
13.2537
9.795
6.88148
4.50969
2.64074
1.2043
0.0286431
120.352
117.72
114.488
110.918
107.213
103.389
99.4105
95.264
90.9489
86.4673
81.8199
77.0084
72.0398
66.9269
61.69
56.3575
50.9669
45.5651
40.2083
34.9606
29.8917
25.0736
20.5759
16.4598
12.7714
9.53612
6.75276
4.39041
2.39074
0.617765
120.243
117.76
114.699
111.307
107.779
104.131
100.331
96.3633
92.2297
87.9326
83.4736
78.8551
74.0834
69.1704
64.1338
58.9982
53.7956
48.5661
43.3571
38.2227
33.2215
28.4141
23.8586
19.6066
15.6974
12.153
8.97385
6.13545
3.58947
1.23553
120.103
117.751
114.846
111.617
108.253
104.771
101.14
97.3451
93.3876
89.2706
84.9962
80.5668
75.9883
71.2708
66.4296
61.4856
56.4656
51.4028
46.3366
41.3119
36.377
31.5818
26.9744
22.5974
18.4837
14.6519
11.1031
7.81742
4.7545
1.84682
119.943
117.707
114.941
111.861
108.647
105.319
101.845
98.2121
94.4203
90.4731
86.3728
82.1218
77.725
73.191
68.5328
63.7675
58.9173
54.0095
49.0761
44.1534
39.2808
34.4987
29.846
25.3572
21.059
16.9666
13.0806
9.38438
5.8433
2.41753
119.769
117.636
114.994
112.049
108.972
105.784
102.455
98.9705
95.3315
91.5409
87.6011
83.5139
79.2832
74.9165
70.4241
65.8204
61.1231
56.3542
51.5395
46.7081
41.8911
37.1209
32.4282
27.8403
23.3781
19.0533
14.8652
10.7993
6.82457
2.92237
119.589
117.546
115.016
112.19
109.237
106.175
102.977
99.6284
96.1283
92.4799
88.6853
84.7458
80.6644
76.4469
72.102
67.6408
63.0778
58.4303
53.7186
48.9656
44.1959
39.4345
34.7054
30.0296
25.4226
20.8925
16.4375
12.0435
7.68209
3.3491
119.409
117.444
115.012
112.294
109.451
106.502
103.422
100.194
96.8191
93.2982
89.6334
85.8253
81.8762
77.7904
73.5745
69.2374
64.7902
60.2466
55.6223
50.935
46.2037
41.4474
36.6843
31.9299
27.1954
22.4855
17.7966
13.1148
8.4137
3.69752
119.233
117.336
114.99
112.367
109.621
106.774
103.798
100.678
97.4132
94.0054
90.4553
86.7631
82.9299
78.9589
74.8548
70.6245
66.2762
61.8205
57.2693
52.636
47.9348
43.18
38.3848
33.5604
28.7139
23.8472
18.9551
14.0237
9.02783
3.97607
119.065
117.227
114.956
112.416
109.756
106.997
104.112
101.087
97.9198
94.6111
91.1614
87.5701
83.8375
79.9655
75.9575
71.8182
67.5536
63.1715
58.6807
54.0911
49.4131
44.6568
39.8317
34.945
30.0007
24.9983
19.9312
14.7853
9.53691
4.19569
118.912
117.123
114.917
112.449
109.864
107.181
104.375
101.432
98.3493
95.1264
91.7633
88.2588
84.6125
80.8251
76.8988
72.8364
68.642
64.3211
59.8799
55.3254
50.6649
45.9052
41.0526
36.1112
31.0825
25.9639
20.7477
15.4196
9.9573
4.36934
118.775
117.027
114.876
112.47
109.948
107.33
104.592
101.719
98.7075
95.5574
92.2679
88.8369
85.2635
81.5474
77.6894
73.6911
69.5548
65.2841
60.8831
56.3565
51.7088
46.9446
42.0672
37.0785
31.9778
26.7608
21.4191
15.9383
10.2974
4.5029
118.663
116.948
114.844
112.489
110.02
107.456
104.775
101.96
99.0086
95.9193
92.691
89.3214
85.8084
82.151
78.3492
74.4034
70.3145
66.0845
61.7158
57.2111
52.573
47.8039
42.9051
37.8766
32.7159
27.4175
21.9721
16.3656
10.5777
4.61075
118.569
116.881
114.813
112.5
110.073
107.553
104.917
102.15
99.2461
96.2055
93.0263
89.7056
86.2406
82.6296
78.8722
74.9679
70.9162
66.7177
62.3737
57.8853
53.2537
48.4796
43.5626
38.5013
33.2918
27.9277
22.399
16.6916
10.7868
4.68337
118.519
116.851
114.812
112.532
110.138
107.652
105.052
102.32
99.4541
96.4512
93.31
90.027
86.5989
83.0235
79.3003
75.4277
71.4043
67.2296
62.904
58.4277
53.8006
49.0221
44.0909
39.0041
33.757
28.3423
22.7494
16.964
10.9671
4.75045
118.476
116.819
114.799
112.541
110.17
107.706
105.129
102.422
99.5806
96.6028
93.4866
90.2283
86.8244
83.2724
79.5714
75.7195
71.7143
67.555
63.241
58.7721
54.1473
49.3652
44.4237
39.3191
34.046
28.5963
22.9591
17.1195
11.0595
4.76873
118.522
116.867
114.86
112.618
110.261
107.812
105.249
102.557
99.7308
96.7681
93.6667
90.4228
87.0328
83.4942
79.8054
75.9643
71.9687
67.8169
63.5083
59.0422
54.4171
49.6315
44.6827
39.5667
34.2776
28.8068
23.1426
17.2682
11.1613
4.79239
)
;

boundaryField
{
    inlet
    {
        type            zeroGradient;
    }
    outlet
    {
        type            fixedValue;
        value           uniform 0;
    }
    flap
    {
        type            zeroGradient;
    }
    upperWall
    {
        type            zeroGradient;
    }
    lowerWall
    {
        type            zeroGradient;
    }
    frontAndBack
    {
        type            empty;
    }
}


// ************************************************************************* //
