/*--------------------------------*- C++ -*----------------------------------*\
| =========                 |                                                 |
| \\      /  F ield         | OpenFOAM: The Open Source CFD Toolbox           |
|  \\    /   O peration     | Version:  dev                                   |
|   \\  /    A nd           | Web:      www.OpenFOAM.org                      |
|    \\/     M anipulation  |                                                 |
\*---------------------------------------------------------------------------*/
FoamFile
{
    version     2.0;
    format      ascii;
    class       volScalarField;
    location    "1";
    object      p;
}
// * * * * * * * * * * * * * * * * * * * * * * * * * * * * * * * * * * * * * //

dimensions      [0 2 -2 0 0 0 0];

internalField   nonuniform List<scalar> 
2790
(
190.772
190.654
190.852
191.335
191.998
192.793
193.714
194.761
195.93
197.22
198.625
200.144
201.772
203.507
205.34
207.266
209.272
211.345
213.467
215.614
217.76
219.871
221.908
223.829
225.587
227.132
228.42
229.407
230.063
230.365
190.611
190.587
190.805
191.285
191.946
192.74
193.658
194.7
195.865
197.148
198.546
200.057
201.677
203.402
205.226
207.141
209.136
211.199
213.312
215.452
217.593
219.703
221.744
223.674
225.447
227.014
228.327
229.344
230.028
230.473
190.453
190.502
190.737
191.208
191.859
192.643
193.55
194.58
195.729
196.995
198.373
199.861
201.454
203.149
204.94
206.817
208.772
210.791
212.856
214.946
217.037
219.097
221.093
222.984
224.726
226.276
227.59
228.632
229.368
229.804
190.285
190.371
190.619
191.082
191.721
192.494
193.388
194.401
195.53
196.772
198.123
199.58
201.137
202.791
204.535
206.36
208.256
210.209
212.202
214.215
216.223
218.199
220.109
221.915
223.578
225.052
226.295
227.255
227.864
227.832
190.099
190.204
190.461
190.919
191.547
192.305
193.181
194.172
195.276
196.488
197.805
199.221
200.733
202.335
204.02
205.779
207.6
209.471
211.373
213.287
215.19
217.052
218.843
220.527
222.063
223.403
224.492
225.243
225.586
224.839
189.89
190.004
190.268
190.719
191.332
192.073
192.927
193.892
194.964
196.141
197.416
198.785
200.243
201.784
203.4
205.082
206.817
208.592
210.388
212.185
213.96
215.686
217.33
218.855
220.219
221.367
222.228
222.677
222.724
221.289
189.656
189.775
190.039
190.482
191.079
191.799
192.627
193.562
194.599
195.734
196.962
198.277
199.674
201.145
202.683
204.277
205.915
207.581
209.257
210.922
212.552
214.119
215.59
216.924
218.075
218.98
219.56
219.653
219.43
217.464
189.396
189.516
189.778
190.211
190.789
191.485
192.284
193.185
194.181
195.27
196.444
197.699
199.027
200.421
201.873
203.37
204.899
206.445
207.988
209.506
210.974
212.362
213.634
214.747
215.647
216.266
216.527
216.234
215.766
213.42
189.111
189.229
189.485
189.905
190.464
191.133
191.9
192.762
193.714
194.751
195.867
197.055
198.308
199.618
200.975
202.366
203.777
205.192
206.59
207.947
209.236
210.423
211.471
212.331
212.944
213.236
213.14
212.424
211.698
209.026
188.801
188.916
189.163
189.568
190.104
190.744
191.476
192.296
193.2
194.182
195.234
196.35
197.522
198.74
199.994
201.272
202.556
203.829
205.069
206.251
207.343
208.31
209.107
209.681
209.967
209.883
209.377
208.178
207.121
204.055
188.466
188.577
188.814
189.201
189.713
190.321
191.015
191.791
192.642
193.564
194.548
195.587
196.672
197.793
198.939
200.094
201.243
202.364
203.436
204.427
205.305
206.029
206.548
206.8
206.712
206.191
205.198
203.41
201.882
198.252
188.108
188.213
188.438
188.806
189.292
189.866
190.52
191.247
192.044
192.902
193.814
194.772
195.765
196.783
197.814
198.841
199.846
200.807
201.698
202.487
203.134
203.593
203.805
203.696
203.179
202.144
200.549
198.012
195.761
191.216
187.727
187.827
188.037
188.384
188.842
189.381
189.992
190.669
191.407
192.199
193.036
193.908
194.806
195.717
196.627
197.52
198.375
199.168
199.869
200.442
200.844
201.018
200.894
200.384
199.38
197.74
195.392
191.863
188.443
182.198
187.326
187.419
187.613
187.938
188.367
188.869
189.434
190.059
190.737
191.46
192.218
193.001
193.8
194.6
195.387
196.14
196.84
197.458
197.962
198.311
198.453
198.326
197.844
196.9
195.356
193.02
189.74
184.884
179.54
169.847
186.905
186.99
187.169
187.47
187.867
188.331
188.85
189.42
190.035
190.687
191.365
192.057
192.754
193.441
194.1
194.712
195.252
195.692
195.993
196.112
195.989
195.551
194.7
193.306
191.197
188.111
183.764
177.25
168.923
151.636
102.099
101.916
101.499
100.812
99.8172
98.4865
96.8029
94.7519
92.3132
89.4195
86.0583
82.2824
78.1229
73.6328
68.8826
63.9563
58.9498
53.9638
49.1
44.4596
40.1393
36.2099
32.659
29.4344
26.4935
23.7748
21.1122
17.9007
13.0238
5.6144
102.075
101.91
101.517
100.854
99.8759
98.5535
96.8739
94.8175
92.3555
89.4454
86.0781
82.2855
78.1046
73.5901
68.8134
63.8594
58.8249
53.8113
48.9197
44.2494
39.8914
35.9089
32.2956
29.0039
25.9761
23.1319
20.293
16.9513
12.1472
4.8569
102.15
102.021
101.648
100.99
100.009
98.69
97.0033
94.923
92.4208
89.4688
86.0629
82.2274
78.0011
73.4397
68.6158
63.6143
58.5322
53.472
48.5348
43.8168
39.4018
35.3438
31.6531
28.2871
25.1684
22.1949
19.1786
15.711
11.0289
4.18798
102.36
102.263
101.896
101.234
100.247
98.9085
97.1881
95.0571
92.4888
89.4648
85.9847
82.0707
77.763
73.1179
68.209
63.1225
57.9553
52.8116
47.7943
42.9967
38.4962
34.344
30.561
27.1098
23.9055
20.8342
17.7138
14.2158
9.73877
3.57045
102.702
102.626
102.257
101.581
100.567
99.1867
97.408
95.202
92.545
89.4239
85.8424
81.823
77.4071
72.6523
67.6329
62.4371
57.1617
51.9118
46.7925
41.8967
37.297
33.0417
29.1572
25.6164
22.3386
19.2068
16.0516
12.6028
8.40281
2.99299
103.146
103.09
102.705
101.994
100.932
99.4889
97.6316
95.3313
92.5663
89.3272
85.6206
81.4705
76.9193
72.0264
66.8666
61.5305
56.117
50.732
45.4836
40.4678
35.7581
31.4023
27.426
23.8139
20.4965
17.3607
14.2486
10.9295
7.0743
2.45154
103.667
103.607
103.183
102.422
101.298
99.7787
97.8298
95.4217
92.5349
89.162
85.3122
81.0114
76.3029
71.2485
65.9251
60.4246
54.85
49.3091
43.9123
38.7604
33.9322
29.4785
25.4222
21.7598
18.4375
15.3519
12.3522
9.23412
5.77862
1.94404
104.196
104.106
103.631
102.815
101.627
100.029
97.9834
95.461
92.4437
88.9263
84.9196
80.4521
75.5687
70.3334
64.8259
59.1402
53.3827
47.6658
42.1033
36.8017
31.8481
27.301
23.1852
19.4997
16.2073
13.2221
10.3958
7.54058
4.52786
1.46859
104.65
104.521
104.002
103.142
101.899
100.227
98.0871
95.4494
92.297
88.6274
84.4536
79.8064
74.7338
69.3014
63.5922
57.7037
51.7458
45.836
40.0939
34.6326
29.5491
24.9128
20.7556
17.0735
13.8455
11.0052
8.40481
5.86513
3.32817
1.02294
104.964
104.811
104.275
103.395
102.115
100.381
98.1524
95.4005
92.1101
88.2821
83.9327
79.0951
73.8208
68.1783
62.2535
56.1479
49.9758
43.8602
37.927
32.2977
27.0798
22.3558
18.1684
14.5162
11.3894
8.73076
6.39979
4.21958
2.1827
0.605111
105.096
104.971
104.464
103.599
102.304
100.521
98.2089
95.3415
91.9087
87.915
83.381
78.3434
72.8571
66.9942
60.8438
54.5108
48.1143
41.7828
35.6494
29.8443
24.4866
19.6728
15.4632
11.8725
8.87751
6.42541
4.39883
2.61363
1.09324
0.213751
105.028
105.034
104.625
103.813
102.525
100.7
98.3013
95.3103
91.7246
87.5546
82.8256
77.5789
71.873
65.7833
59.4012
52.8346
46.2069
39.6525
33.3117
27.3243
21.8222
16.9188
12.6941
9.17669
6.33031
4.11318
2.41947
1.05686
0.0618286
-0.151975
104.768
105.087
104.861
104.137
102.863
100.985
98.4814
95.3464
91.5894
87.2288
82.2941
76.8308
70.9011
64.5822
57.9668
51.1648
44.3035
37.5229
30.9704
24.7957
19.1447
14.1476
9.9032
6.45608
3.7765
1.82353
0.480727
-0.440118
-0.908268
-0.492195
104.306
105.287
105.343
104.697
103.409
101.443
98.7952
95.4818
91.5288
86.9619
81.8117
76.1273
69.9739
63.4289
56.5844
49.5501
42.458
35.4528
28.688
22.3223
16.5161
11.4159
7.13763
3.75194
1.26627
-0.404836
-1.39657
-1.86459
-1.81111
-0.805574
103.462
105.918
106.321
105.664
104.253
102.106
99.2458
95.7111
91.5406
86.7635
81.3975
75.4911
69.1205
62.3594
55.2963
48.0387
40.7247
33.503
26.5307
19.9731
14.0068
8.79586
4.47763
1.14931
-1.163
-2.56619
-3.18831
-3.19886
-2.63555
-1.08839
186.458
186.535
186.696
186.972
187.337
187.76
188.23
188.743
189.293
189.871
190.464
191.063
191.654
192.223
192.751
193.216
193.593
193.848
193.942
193.825
193.432
192.681
191.46
189.622
186.962
183.161
177.792
169.645
157.723
122.086
185.979
186.048
186.19
186.439
186.769
187.149
187.567
188.02
188.502
189.002
189.508
190.009
190.491
190.937
191.33
191.644
191.853
191.92
191.804
191.451
190.791
189.736
188.167
185.932
182.818
178.507
172.58
163.996
153.195
141.378
185.471
185.532
185.653
185.874
186.167
186.503
186.867
187.258
187.669
188.089
188.505
188.904
189.274
189.596
189.851
190.012
190.051
189.931
189.608
189.026
188.113
186.781
184.915
182.376
178.981
174.505
168.771
161.512
153.757
148.256
184.936
184.987
185.088
185.278
185.534
185.823
186.132
186.459
186.797
187.135
187.458
187.755
188.01
188.206
188.323
188.331
188.202
187.9
187.379
186.582
185.441
183.874
181.779
179.045
175.544
171.154
165.847
159.581
152.518
145.351
184.375
184.416
184.494
184.653
184.87
185.11
185.363
185.625
185.889
186.142
186.372
186.565
186.706
186.777
186.755
186.614
186.323
185.848
185.142
184.151
182.815
181.061
178.808
175.972
172.471
168.238
163.257
157.496
150.923
144.104
183.789
183.819
183.873
184.001
184.177
184.369
184.564
184.76
184.947
185.116
185.252
185.341
185.368
185.315
185.16
184.874
184.43
183.793
182.919
181.761
180.266
178.372
176.019
173.145
169.699
165.641
160.967
155.7
149.901
144.024
183.179
183.197
183.227
183.323
183.458
183.6
183.737
183.865
183.977
184.061
184.103
184.09
184.005
183.832
183.547
183.125
182.538
181.754
180.734
179.436
177.815
175.823
173.414
170.547
167.189
163.326
158.971
154.173
149.001
143.724
182.548
182.553
182.558
182.621
182.715
182.806
182.885
182.945
182.981
182.981
182.932
182.818
182.625
182.337
181.93
181.381
180.664
179.749
178.603
177.19
175.474
173.418
170.987
168.156
164.909
161.244
157.182
152.77
148.056
143.224
181.897
181.888
181.869
181.899
181.951
181.992
182.011
182.005
181.966
181.884
181.744
181.533
181.238
180.84
180.319
179.653
178.82
177.791
176.54
175.036
173.251
171.156
168.73
165.955
162.826
159.35
155.548
151.459
147.123
142.686
181.228
181.206
181.161
181.158
181.169
181.16
181.121
181.049
180.937
180.774
180.547
180.244
179.851
179.351
178.725
177.955
177.018
175.892
174.554
172.98
171.147
169.035
166.63
163.923
160.915
157.615
154.045
150.237
146.227
142.13
180.545
180.509
180.439
180.403
180.373
180.314
180.219
180.083
179.899
179.658
179.349
178.958
178.473
177.879
177.158
176.294
175.267
174.06
172.651
171.025
169.162
167.05
164.679
162.046
159.155
156.018
152.655
149.093
145.361
141.553
179.849
179.8
179.705
179.636
179.566
179.46
179.309
179.11
178.858
178.544
178.156
177.683
177.113
176.432
175.626
174.679
173.576
172.3
170.837
169.172
167.294
165.193
162.864
160.307
157.53
154.543
151.364
148.016
144.523
140.964
179.143
179.082
178.964
178.863
178.753
178.6
178.396
178.138
177.821
177.436
176.974
176.425
175.777
175.018
174.136
173.118
171.949
170.618
169.113
167.423
165.54
163.458
161.176
158.696
156.025
153.175
150.16
147.001
143.717
140.373
178.433
178.361
178.219
178.087
177.938
177.74
177.485
177.17
176.792
176.341
175.811
175.192
174.473
173.644
172.695
171.615
170.392
169.016
167.48
165.775
163.896
161.84
159.608
157.202
154.631
151.905
149.038
146.045
142.944
139.79
177.721
177.638
177.474
177.311
177.126
176.885
176.581
176.213
175.777
175.266
174.672
173.989
173.207
172.316
171.309
170.176
168.908
167.498
165.94
164.228
162.359
160.333
158.15
155.816
153.338
150.725
147.99
145.145
142.206
139.219
177.013
176.919
176.734
176.542
176.322
176.041
175.69
175.272
174.783
174.216
173.565
172.823
171.984
171.039
169.982
168.804
167.5
166.064
164.492
162.779
160.925
158.931
156.798
154.532
152.139
149.629
147.012
144.3
141.504
138.665
176.312
176.209
176.003
175.784
175.53
175.211
174.818
174.354
173.815
173.197
172.493
171.7
170.811
169.819
168.718
167.504
166.172
164.716
163.135
161.427
159.591
157.629
155.545
153.343
151.029
148.613
146.102
143.508
140.839
138.133
175.625
175.511
175.287
175.041
174.757
174.402
173.97
173.463
172.879
172.214
171.464
170.625
169.692
168.659
167.523
166.279
164.923
163.454
161.869
160.169
158.353
156.425
154.387
152.244
150.003
147.671
145.256
142.767
140.213
137.624
174.956
174.832
174.59
174.32
174.007
173.62
173.151
172.605
171.98
171.274
170.483
169.603
168.632
167.564
166.398
165.13
163.757
162.279
160.695
159.004
157.21
155.314
153.32
151.233
149.058
146.803
144.474
142.079
139.626
137.142
174.31
174.177
173.917
173.625
173.286
172.869
172.368
171.786
171.124
170.381
169.554
168.639
167.635
166.538
165.347
164.06
162.675
161.191
159.61
157.932
156.159
154.295
152.342
150.306
148.191
146.005
143.752
141.442
139.079
136.688
173.694
173.551
173.276
172.963
172.6
172.156
171.625
171.012
170.318
169.542
168.683
167.738
166.706
165.585
164.373
163.071
161.677
160.191
158.615
156.95
155.199
153.364
151.45
149.46
147.4
145.276
143.092
140.856
138.574
136.265
173.112
172.961
172.671
172.34
171.955
171.486
170.929
170.288
169.565
168.761
167.874
166.904
165.848
164.707
163.48
162.166
160.766
159.28
157.711
156.059
154.329
152.522
150.643
148.696
146.685
144.615
142.493
140.323
138.112
135.876
172.571
172.413
172.109
171.761
171.356
170.866
170.286
169.62
168.873
168.044
167.134
166.141
165.066
163.909
162.669
161.347
159.943
158.459
156.897
155.259
153.548
151.768
149.921
148.011
146.044
144.023
141.955
139.843
137.694
135.521
172.078
171.912
171.596
171.232
170.81
170.301
169.701
169.014
168.245
167.396
166.466
165.456
164.365
163.194
161.944
160.616
159.211
157.73
156.176
154.551
152.858
151.101
149.283
147.407
145.478
143.501
141.479
139.418
137.323
135.206
171.639
171.467
171.139
170.761
170.324
169.798
169.18
168.475
167.689
166.822
165.876
164.851
163.747
162.566
161.309
159.977
158.572
157.095
155.548
153.935
152.259
150.523
148.73
146.884
144.988
143.048
141.066
139.049
137
134.929
171.262
171.083
170.744
170.353
169.902
169.363
168.731
168.011
167.21
166.329
165.37
164.333
163.22
162.031
160.769
159.434
158.03
156.557
155.018
153.416
151.754
150.037
148.266
146.445
144.578
142.669
140.722
138.741
136.731
134.701
170.955
170.769
170.418
170.014
169.552
169.001
168.357
167.625
166.812
165.92
164.951
163.905
162.784
161.59
160.324
158.989
157.585
156.116
154.584
152.992
151.343
149.641
147.888
146.088
144.244
142.361
140.441
138.49
136.511
134.512
170.728
170.53
170.166
169.753
169.283
168.724
168.07
167.329
166.507
165.607
164.63
163.578
162.452
161.254
159.987
158.651
157.25
155.785
154.259
152.675
151.037
149.348
147.61
145.828
144.003
142.141
140.244
138.318
136.366
134.393
170.597
170.369
169.985
169.565
169.09
168.525
167.865
167.119
166.292
165.387
164.405
163.349
162.221
161.021
159.752
158.417
157.017
155.555
154.034
152.456
150.825
149.144
147.416
145.645
143.832
141.983
140.101
138.189
136.252
134.293
170.595
170.313
169.906
169.478
168.999
168.429
167.765
167.015
166.185
165.278
164.294
163.238
162.109
160.91
159.643
158.31
156.914
155.457
153.941
152.369
150.746
149.074
147.355
145.594
143.793
141.955
140.085
138.186
136.263
134.317
38.154
60.756
85.0127
132.092
129.858
126.063
140.251
133.691
128.656
136.693
131.555
128.218
137.684
133.681
130.56
138.751
135.209
132.162
138.963
135.734
132.897
138.88
135.933
133.324
138.7
135.985
133.574
138.434
135.907
133.668
138.099
135.732
133.642
137.719
135.49
133.531
137.312
135.205
133.362
136.891
134.892
133.151
136.464
134.563
132.914
136.041
134.227
132.66
135.625
133.891
132.399
135.222
133.561
132.135
134.836
133.24
131.874
134.469
132.933
131.62
134.124
132.642
131.377
133.804
132.371
131.149
133.512
132.122
130.937
133.251
131.9
130.747
133.023
131.704
130.58
132.836
131.547
130.445
132.679
131.414
130.332
132.591
131.345
130.277
132.507
131.275
130.221
132.553
131.334
130.285
105.94
107.817
107.816
107.167
105.497
103.015
99.843
96.0323
91.6135
86.6098
81.0347
74.9282
68.3649
61.411
54.1397
46.6686
39.1464
31.7226
24.5532
17.8048
11.675
6.34529
1.97108
-1.33758
-3.52765
-4.65876
-4.89069
-4.45054
-3.38427
-1.34035
118.76
113.785
111.935
109.907
107.255
104.145
100.549
96.4169
91.7327
86.4993
80.7255
74.4421
67.7075
60.5819
53.139
45.5004
37.8116
30.2088
22.8403
15.9002
9.60162
4.13944
-0.320128
-3.66027
-5.76051
-6.63089
-6.49257
-5.59645
-4.036
-1.55574
122.034
116.516
114.101
111.762
108.702
105.134
101.161
96.7378
91.8197
86.3894
80.4484
74.0194
67.149
59.8956
52.3352
44.5817
36.7669
29.0193
21.499
14.4181
7.98482
2.3885
-2.20596
-5.61178
-7.6813
-8.41977
-7.93087
-6.55582
-4.56294
-1.72665
123.537
118.399
115.206
112.365
109.147
105.492
101.398
96.8311
91.7737
86.2196
80.172
73.6506
66.6965
59.3679
51.7408
43.9219
36.0367
28.2197
20.6326
13.4783
6.95548
1.24803
-3.45225
-6.91591
-9.01021
-9.66245
-8.96837
-7.32927
-4.98815
-1.84455
125.921
120.627
116.517
112.883
109.237
105.397
101.233
96.6301
91.5376
85.9481
79.8707
73.3266
66.3552
59.0141
51.3792
43.5529
35.6588
27.8361
20.2457
13.0787
6.53332
0.807577
-3.89581
-7.36476
-9.46388
-10.152
-9.58106
-7.85949
-5.09766
-1.85469
127.786
122.592
117.908
113.602
109.452
105.279
100.926
96.2497
91.1521
85.5873
79.5475
73.0493
66.1297
58.8442
51.268
43.5003
35.6624
27.8945
20.3568
13.2339
6.72385
1.03074
-3.64132
-7.10017
-9.21679
-9.96247
-9.43914
-7.77024
-5.20944
-2.14282
128.971
124.091
119.181
114.452
109.897
105.381
100.767
95.9335
90.7797
85.2338
79.2591
72.8526
66.04
58.8711
51.4174
43.7734
36.0566
28.405
20.9767
13.9509
7.52157
1.88946
-2.74797
-6.21383
-8.38933
-9.24591
-8.86101
-7.3881
-5.05663
-2.19787
129.789
125.246
120.327
115.395
110.578
105.794
100.934
95.9089
90.6426
85.0677
79.1358
72.8254
66.1449
59.131
51.8465
44.3785
36.8378
29.3568
22.0883
15.2044
8.89121
3.34022
-1.2629
-4.75617
-7.03124
-8.06047
-7.90927
-6.72295
-4.70456
-2.18831
130.352
126.131
121.339
116.377
111.447
106.507
101.474
96.2891
90.9039
85.2695
79.3449
73.1051
66.5476
59.696
52.6007
45.3375
38.0074
30.7336
23.66
16.9483
10.7731
5.31307
0.739023
-2.80271
-5.21434
-6.46896
-6.62066
-5.7976
-4.18145
-2.09417
130.705
126.783
122.196
117.331
112.418
107.44
102.336
97.0683
91.6097
85.9315
80.007
73.8186
67.364
60.6609
53.7497
46.6949
39.5852
32.532
25.667
19.1387
13.1069
7.73473
3.17659
-0.436853
-3.01826
-4.54102
-5.04752
-4.64697
-3.49846
-1.90355
130.898
127.251
122.901
118.209
113.408
108.496
103.422
98.1632
92.7065
87.038
81.1445
75.0184
68.6633
62.0975
55.3575
48.4997
41.6018
34.7627
28.1002
21.7475
15.8484
10.5485
5.98524
2.27404
-0.507299
-2.33258
-3.23395
-3.30155
-2.67142
-1.62081
130.977
127.578
123.47
118.987
114.358
109.585
104.625
99.4602
94.0851
88.4956
82.688
76.6626
70.429
64.0087
57.4377
50.7677
44.0687
37.4284
30.951
24.7546
18.9662
13.7142
9.11924
5.28247
2.27294
0.116378
-1.21105
-1.78306
-1.71344
-1.2512
130.974
127.798
123.923
119.661
115.232
110.644
105.855
100.847
95.6206
90.1756
84.5133
78.6388
72.5654
66.3169
59.9291
53.4508
46.9457
40.4923
34.1832
28.1223
22.4207
17.1905
12.5369
8.54816
5.28542
2.77364
0.995932
-0.107872
-0.63265
-0.795707
130.91
127.935
124.278
120.234
116.016
111.633
107.045
102.235
97.2018
91.9498
86.4817
80.8041
74.9314
68.8877
62.7072
56.4354
50.1302
43.8619
37.7124
31.7728
26.1401
20.9117
16.1787
12.0181
8.48399
5.6004
3.35607
1.70245
0.560154
-0.255491
130.804
128.008
124.553
120.716
116.705
112.532
108.156
103.56
98.7446
93.7137
88.4703
83.021
77.3794
71.5679
65.6177
59.5698
53.4758
47.3979
41.4077
35.5846
30.0127
24.7761
19.9536
15.612
11.7992
8.53807
5.82173
3.61141
1.84052
0.357728
130.666
128.032
124.762
121.118
117.304
113.333
109.166
104.787
100.195
95.394
90.387
85.1796
79.7836
74.2187
68.5121
62.6994
56.8254
50.9437
45.1161
39.4106
33.8993
28.6543
23.743
19.2232
15.1368
11.5052
8.32484
5.56465
3.16859
1.01934
130.508
128.016
124.914
121.448
117.818
114.037
110.069
105.898
101.523
96.9469
92.1726
87.205
82.0538
76.7353
71.2725
65.6956
60.0421
54.3571
48.6928
43.1066
37.6589
32.4108
27.4193
22.7334
18.3896
14.4069
10.7839
7.49554
4.49418
1.6952
130.336
127.971
125.02
121.717
118.255
114.65
110.866
106.889
102.717
98.3514
93.7963
89.0553
84.136
79.0517
73.8213
68.4694
63.0271
57.5314
52.0253
46.556
41.1738
35.9289
30.8688
26.0344
21.4563
17.151
13.1178
9.33585
5.76407
2.34689
130.156
127.904
125.088
121.932
118.623
115.177
111.563
107.762
103.774
99.602
95.2475
90.7138
86.0065
81.1363
76.1183
70.9727
65.7242
60.4029
55.0433
49.6837
44.3648
39.1272
34.0096
29.0452
24.2589
19.6642
15.26
11.0281
6.93217
2.94028
129.974
127.82
125.125
122.102
118.929
115.628
112.165
108.523
104.702
100.703
96.528
92.1793
87.6611
82.9814
78.1523
73.1896
68.1131
62.9464
57.7172
52.4556
47.1939
41.9646
36.798
31.7207
26.752
21.9019
17.1683
12.5346
7.9678
3.45319
129.794
127.725
125.138
122.232
119.182
116.009
112.681
109.181
105.508
101.662
97.6457
93.4599
89.1076
84.5944
79.9296
75.1256
70.1978
65.1646
60.0474
54.8699
49.6571
44.4342
39.2247
34.0489
28.9213
23.8483
18.8266
13.8401
8.85825
3.87781
129.62
127.624
125.132
122.33
119.389
116.328
113.12
109.745
106.201
102.49
98.6123
94.5685
90.3602
85.9906
81.4668
76.7983
71.9968
67.0764
62.0533
56.9457
51.7726
46.5531
41.305
36.0431
30.7774
25.5116
20.2405
14.9484
9.60685
4.21881
129.455
127.523
125.112
122.402
119.555
116.594
113.489
110.223
106.793
103.199
99.4407
95.5193
91.4344
87.1874
82.7832
78.2291
73.5337
68.7072
63.7618
58.711
53.569
48.3499
43.0665
37.7292
32.3443
26.9127
21.4279
15.8744
10.2254
4.48686
129.305
127.426
125.086
122.455
119.69
116.815
113.8
110.628
107.295
103.8
100.145
96.3279
92.3476
88.204
83.9006
79.4422
74.8347
70.0856
65.2036
60.1984
55.0803
49.8591
44.5438
39.141
33.6541
28.0815
22.4156
16.6411
10.733
4.69704
129.172
127.336
125.057
122.493
119.798
116.995
114.056
110.963
107.713
104.303
100.735
97.0049
93.1117
89.0545
84.8346
80.455
75.9197
71.2336
66.4025
61.4333
56.3328
51.1078
45.764
40.305
34.7316
29.0405
23.2231
17.2643
11.1409
4.85739
129.064
127.264
125.034
122.527
119.891
117.149
114.273
111.246
108.064
104.725
101.228
97.5701
93.7487
89.7621
85.6104
81.295
76.8179
72.1823
67.3917
62.4506
57.3633
52.1339
46.7654
41.2593
35.6143
29.8256
23.8839
17.7741
11.4746
4.98565
128.974
127.202
125.012
122.551
119.962
117.267
114.442
111.468
108.341
105.058
101.618
98.0173
94.2526
90.3217
86.2235
81.9581
77.5262
72.9295
68.1698
63.2495
58.1712
52.9368
47.5475
42.0027
36.2998
30.4327
24.3915
18.1615
11.7224
5.07208
128.932
127.181
125.022
122.597
120.044
117.387
114.601
111.669
108.584
105.345
101.948
98.3912
94.6702
90.782
86.7246
82.497
78.0992
73.5316
68.7948
63.8898
58.8176
53.5788
48.1729
42.5983
36.8508
30.9235
24.8059
18.483
11.9349
5.15149
128.891
127.152
125.014
122.613
120.085
117.453
114.693
111.788
108.731
105.52
102.152
98.624
94.9316
91.0714
87.0405
82.8374
78.4616
73.9126
69.1902
64.2945
59.2256
53.983
48.5653
42.9698
37.1916
31.2231
25.0531
18.6664
12.0441
5.17478
128.952
127.215
125.092
122.708
120.196
117.581
114.838
111.949
108.91
105.716
102.366
98.854
95.1778
91.333
87.3164
83.1263
78.7617
74.2217
69.5056
64.6132
59.544
54.297
48.8705
43.2611
37.4636
31.4697
25.2673
18.8393
12.1621
5.2037
)
;

boundaryField
{
    inlet
    {
        type            zeroGradient;
    }
    outlet
    {
        type            fixedValue;
        value           uniform 0;
    }
    flap
    {
        type            zeroGradient;
    }
    upperWall
    {
        type            zeroGradient;
    }
    lowerWall
    {
        type            zeroGradient;
    }
    frontAndBack
    {
        type            empty;
    }
}


// ************************************************************************* //
