/*--------------------------------*- C++ -*----------------------------------*\
| =========                 |                                                 |
| \\      /  F ield         | OpenFOAM: The Open Source CFD Toolbox           |
|  \\    /   O peration     | Version:  dev                                   |
|   \\  /    A nd           | Web:      www.OpenFOAM.org                      |
|    \\/     M anipulation  |                                                 |
\*---------------------------------------------------------------------------*/
FoamFile
{
    version     2.0;
    format      ascii;
    class       surfaceScalarField;
    location    "1";
    object      phi;
}
// * * * * * * * * * * * * * * * * * * * * * * * * * * * * * * * * * * * * * //

dimensions      [0 3 -1 0 0 0 0];

internalField   nonuniform List<scalar> 
5457
(
0.197862
0.00219142
0.195603
0.00230278
0.193165
0.0024729
0.190488
0.00270154
0.187564
0.00293948
0.18439
0.0031793
0.180959
0.00342689
0.177259
0.00368711
0.173276
0.00396189
0.168996
0.00425342
0.1644
0.00456446
0.159474
0.00489402
0.154198
0.00524403
0.148551
0.00561866
0.142508
0.00601827
0.136045
0.0064437
0.129135
0.00689525
0.121754
0.00737218
0.113875
0.00787501
0.105474
0.00840101
0.0965335
0.00894453
0.0870402
0.00950025
0.0769871
0.0100606
0.0663773
0.0106167
0.0552239
0.0111592
0.0435532
0.0116754
0.0314079
0.0121485
0.0188651
0.0125447
0.00623549
0.0126304
0.00623571
0.199684
0.00255987
0.198751
0.00328053
0.197505
0.00375347
0.195967
0.00426459
0.194131
0.00479169
0.191991
0.00532523
0.18954
0.00587356
0.186772
0.0064424
0.183675
0.00703756
0.180237
0.0076637
0.176445
0.00832544
0.172282
0.00902454
0.167729
0.00976526
0.162765
0.0105533
0.157368
0.011391
0.15151
0.0122816
0.145164
0.013227
0.138301
0.0142262
0.130892
0.0152799
0.122906
0.0163871
0.114312
0.0175423
0.105082
0.0187374
0.0951872
0.0199625
0.0846028
0.0212082
0.073293
0.022475
0.0612088
0.0237642
0.0482895
0.0250711
0.0344715
0.0263647
0.0192671
0.0278357
0.025503
0.199544
0.00306905
0.198686
0.00418247
0.197515
0.00495951
0.196077
0.00572823
0.19437
0.0065143
0.192388
0.00731268
0.190127
0.00813115
0.18758
0.00897722
0.184737
0.00985975
0.181588
0.0107853
0.178123
0.011759
0.174325
0.0127895
0.170175
0.0138836
0.165654
0.0150444
0.160741
0.016279
0.155407
0.0175948
0.149622
0.0189974
0.14335
0.0204887
0.136556
0.0220696
0.129199
0.0237443
0.121223
0.0255212
0.112568
0.027399
0.103164
0.0293748
0.0929259
0.0314529
0.0817395
0.0336673
0.069411
0.0360974
0.0556203
0.0388651
0.0399182
0.0420687
0.0214919
0.0462629
0.0469952
0.199452
0.00366935
0.198599
0.00507965
0.197443
0.00615044
0.196021
0.00717589
0.194338
0.00821421
0.192388
0.00926839
0.19017
0.0103462
0.187677
0.0114581
0.184902
0.0126145
0.181836
0.013824
0.17847
0.0150932
0.174793
0.016434
0.170789
0.0178547
0.166443
0.0193605
0.161736
0.0209603
0.156642
0.0226682
0.15113
0.0244944
0.145163
0.0264455
0.138697
0.0285303
0.131681
0.0307596
0.124049
0.0331569
0.115709
0.0357452
0.106545
0.0385463
0.0963964
0.0416085
0.0850653
0.0450043
0.0722818
0.0488856
0.0575828
0.0535673
0.04035
0.0593035
0.0207628
0.065851
0.0677582
0.199404
0.00431722
0.198543
0.00598527
0.197399
0.00732881
0.195993
0.00860853
0.194329
0.00989434
0.192406
0.0111987
0.190218
0.0125312
0.187761
0.0139039
0.185026
0.0153293
0.182005
0.0168176
0.17869
0.0183781
0.175069
0.020022
0.171131
0.0217596
0.166859
0.0236015
0.162234
0.0255589
0.157233
0.0276476
0.151828
0.0298841
0.145977
0.0322851
0.13963
0.0348717
0.132722
0.0376668
0.125172
0.040709
0.116872
0.0440516
0.107671
0.0477544
0.0973644
0.0519221
0.0856592
0.0567153
0.0722351
0.0623143
0.0567588
0.0690468
0.038751
0.0773132
0.0191991
0.0854036
0.0869575
0.19938
0.00498924
0.198512
0.00689751
0.197381
0.0084941
0.195994
0.0100222
0.194354
0.0115507
0.192461
0.0131001
0.190307
0.0146831
0.187887
0.0163128
0.185193
0.0180038
0.182216
0.0197683
0.178946
0.0216172
0.175372
0.0235624
0.171482
0.0256164
0.167258
0.0277953
0.162674
0.0301159
0.157709
0.0325895
0.152338
0.0352383
0.146511
0.038101
0.140167
0.0412093
0.133231
0.0445998
0.125609
0.0483337
0.117169
0.0524969
0.107725
0.0572058
0.0970629
0.0625902
0.0848929
0.0688909
0.0708391
0.0763724
0.0547432
0.0851457
0.036488
0.0955701
0.0175696
0.104323
0.104527
0.19937
0.00567055
0.1985
0.00781128
0.197383
0.0096459
0.196018
0.0114135
0.194408
0.0131787
0.192548
0.014968
0.190434
0.0167965
0.188058
0.0186788
0.185411
0.020632
0.182483
0.0226703
0.179264
0.0248057
0.175741
0.0270522
0.171901
0.029423
0.167723
0.031942
0.16318
0.0346312
0.158243
0.037503
0.152876
0.0405872
0.14703
0.0439346
0.140639
0.0475922
0.13361
0.0516263
0.125829
0.0561153
0.11716
0.0611708
0.107399
0.0669729
0.0962882
0.0737074
0.0835918
0.0815926
0.069026
0.0909423
0.052518
0.101656
0.0342955
0.113794
0.0162257
0.122393
0.120753
0.199369
0.00635176
0.198505
0.00871961
0.197406
0.0107796
0.196069
0.012777
0.194494
0.0147725
0.192675
0.0167959
0.190607
0.0188646
0.188282
0.0209941
0.18569
0.0232056
0.182821
0.025515
0.179661
0.0279352
0.176197
0.0304835
0.172411
0.033176
0.168281
0.0360392
0.163784
0.0391004
0.158878
0.0423844
0.153516
0.0459304
0.147644
0.0497922
0.141191
0.0540364
0.134058
0.0587551
0.12611
0.0640636
0.117177
0.0701076
0.107087
0.077069
0.0955715
0.0852278
0.0823839
0.0947848
0.0673824
0.105947
0.0506576
0.118383
0.0326789
0.131774
0.015404
0.139668
0.136157
0.199375
0.00702644
0.198522
0.00961545
0.197447
0.0118903
0.196143
0.014108
0.194608
0.0163264
0.192837
0.0185774
0.190822
0.0208807
0.188553
0.0232542
0.186022
0.0257197
0.183219
0.0282939
0.180129
0.0309959
0.176734
0.0338465
0.17301
0.0368656
0.168942
0.0400752
0.1645
0.0435135
0.159636
0.0472229
0.154299
0.0512472
0.148426
0.0556499
0.141925
0.0605275
0.134695
0.0659792
0.126614
0.0721442
0.11748
0.0792439
0.107095
0.087459
0.0952415
0.0970854
0.0816931
0.108337
0.0663931
0.12125
0.0496299
0.135148
0.0320124
0.149391
0.0152798
0.156401
0.151436
0.199385
0.00769082
0.198548
0.0104944
0.197499
0.0129743
0.196232
0.0154027
0.194742
0.0178359
0.193024
0.0203074
0.191067
0.0228398
0.18886
0.025454
0.186398
0.0281664
0.183672
0.0309966
0.180662
0.0339771
0.177349
0.0371282
0.173712
0.0404691
0.169725
0.0440297
0.165353
0.0478551
0.160555
0.0519947
0.155268
0.056513
0.149419
0.0614822
0.142927
0.0670089
0.135658
0.0732408
0.127488
0.0803114
0.118247
0.088487
0.107694
0.0980154
0.0956416
0.109141
0.0819302
0.122051
0.0665656
0.136616
0.0499335
0.15178
0.0326594
0.166665
0.0160665
0.172993
0.167503
0.199396
0.00834257
0.19858
0.0113526
0.197561
0.0140277
0.196335
0.0166567
0.194896
0.0192957
0.193236
0.0219794
0.191345
0.0247347
0.189213
0.0275807
0.186834
0.0305315
0.184194
0.0336155
0.181272
0.0368706
0.178055
0.0403148
0.174521
0.0439694
0.170633
0.0478848
0.166355
0.0521028
0.161649
0.0566737
0.156453
0.0616866
0.150681
0.0672371
0.144254
0.0734234
0.137051
0.0804351
0.128907
0.0884513
0.119672
0.097722
0.109147
0.108542
0.0971555
0.121134
0.0835808
0.135626
0.0684496
0.151747
0.0521099
0.168119
0.0350721
0.183701
0.0180996
0.189965
0.185602
0.199412
0.00897776
0.19862
0.0121852
0.197637
0.0150454
0.196457
0.0178648
0.195075
0.0206999
0.193479
0.0235889
0.191659
0.0265597
0.189609
0.0296264
0.187321
0.0328075
0.184775
0.0361416
0.181956
0.039663
0.178851
0.04339
0.175432
0.0473562
0.171668
0.0516158
0.167523
0.0562169
0.162944
0.0612258
0.157883
0.066724
0.152263
0.0728394
0.145977
0.0796955
0.13893
0.0874717
0.130974
0.0964018
0.121963
0.106731
0.111747
0.118758
0.100175
0.132705
0.087153
0.148647
0.072674
0.166224
0.0568919
0.183898
0.0400425
0.200549
0.0221504
0.207856
0.207752
0.19943
0.00959323
0.198667
0.0129883
0.197724
0.0160235
0.196594
0.019023
0.195271
0.0220452
0.193743
0.0251316
0.192002
0.0283078
0.190041
0.0315851
0.187851
0.0349873
0.185414
0.0385601
0.182716
0.0423368
0.179741
0.046336
0.176456
0.0506092
0.172838
0.0552021
0.168859
0.0601657
0.164462
0.0655952
0.159588
0.0715742
0.154177
0.0782305
0.148141
0.0857172
0.141388
0.0942141
0.133815
0.103967
0.125307
0.115235
0.115758
0.128304
0.105069
0.143391
0.0931768
0.160536
0.0800161
0.17938
0.065435
0.198475
0.0491942
0.216786
0.0301933
0.226855
0.237945
0.19945
0.0101871
0.198719
0.0137586
0.197819
0.0169586
0.196743
0.0201279
0.195484
0.0233272
0.19403
0.0266007
0.192375
0.029971
0.190513
0.0334476
0.188433
0.0370589
0.186116
0.0408608
0.18355
0.0448804
0.180722
0.0491375
0.177599
0.0537021
0.174155
0.0586145
0.17037
0.0639212
0.1662
0.0697376
0.161579
0.0761712
0.156461
0.0833281
0.150794
0.0913689
0.144509
0.100487
0.137542
0.110926
0.129836
0.122933
0.121363
0.136773
0.112119
0.152629
0.102129
0.170519
0.0913614
0.190142
0.0794665
0.210365
0.0657476
0.230502
0.0469451
0.245657
0.28489
0.199469
0.0107599
0.198771
0.0144952
0.197915
0.0178492
0.196894
0.0211782
0.195699
0.0245456
0.194321
0.0279958
0.192756
0.031546
0.190998
0.0352071
0.189033
0.0390177
0.186842
0.0430373
0.184418
0.0472843
0.181741
0.0517893
0.178791
0.0566236
0.175555
0.0618215
0.17199
0.0674564
0.168068
0.0736326
0.163751
0.0804641
0.159007
0.0880516
0.153814
0.0965459
0.148139
0.10615
0.14197
0.117083
0.135337
0.129557
0.128325
0.143776
0.12109
0.159855
0.113861
0.17774
0.106884
0.19711
0.100123
0.21712
0.0932826
0.237339
0.0818344
0.257104
0.366725
0.00790519
-0.00790591
0.0125979
-0.00469671
0.0157733
-0.00318869
0.0174211
-0.00167562
0.0172892
9.16369e-05
0.0152922
0.0019524
0.0115899
0.00366076
0.00645449
0.0050996
0.000199591
0.00622341
-0.00684662
0.00702023
-0.0144271
0.00756103
-0.0223275
0.00788348
-0.0303282
0.00798325
-0.0382162
0.00787037
-0.0457729
0.0075397
-0.0528076
0.00701966
-0.0591135
0.00629408
-0.0644869
0.00536615
-0.0687516
0.00426317
-0.0717272
0.00298048
-0.0732342
0.0015189
-0.0730664
-0.000148659
-0.0709148
-0.00212529
-0.0664556
-0.00442601
-0.0594072
-0.00700905
-0.0494692
-0.009893
-0.0361071
-0.0133124
-0.0178041
-0.0182495
0.00870909
-0.0264566
-0.0330279
0.00286852
-0.0107752
0.0049604
-0.00679284
0.00545498
-0.00369727
0.00405063
-0.000299661
0.000874719
0.00322731
-0.00377032
0.00655358
-0.00965816
0.00950822
-0.0165741
0.0119809
-0.0242999
0.0139188
-0.03263
0.015325
-0.0413508
0.0162625
-0.0502477
0.0167637
-0.0591146
0.0168329
-0.0677656
0.0165039
-0.0759965
0.0157536
-0.0836109
0.0146191
-0.0904251
0.0130965
-0.0962388
0.0111726
-0.10087
0.00889229
-0.104153
0.00626904
-0.105929
0.00330651
-0.106041
-1.7516e-05
-0.10435
-0.00379034
-0.100706
-0.00803703
-0.0949863
-0.0126894
-0.0870703
-0.0177641
-0.0768286
-0.0235045
-0.0645144
-0.0305103
-0.052263
-0.0386516
-0.0456611
-0.000323504
-0.0104525
-0.00141219
-0.00570884
-0.00381774
-0.00130635
-0.00760289
0.00345713
-0.0126307
0.0082163
-0.018794
0.0126756
-0.0258949
0.0165714
-0.0337426
0.0197961
-0.042171
0.0223187
-0.0510217
0.0241512
-0.0601245
0.0253464
-0.0693235
0.0259463
-0.0784458
0.025938
-0.0873217
0.0253623
-0.0957892
0.0242043
-0.103654
0.0224687
-0.110759
0.0201902
-0.116938
0.0173437
-0.122001
0.0139542
-0.125799
0.0100718
-0.128207
0.00572529
-0.129101
0.000895503
-0.128414
-0.00445135
-0.126114
-0.0103052
-0.122183
-0.0165814
-0.116675
-0.0232275
-0.109805
-0.030325
-0.102238
-0.0380243
-0.0949967
-0.0458365
-0.0523294
-0.00279907
-0.00765438
-0.00658643
-0.00192659
-0.0112595
0.00335181
-0.0168575
0.00902796
-0.0233383
0.0146614
-0.0305583
0.0198582
-0.0383847
0.0243636
-0.0467041
0.0280859
-0.0554159
0.0310039
-0.0644239
0.033136
-0.0736085
0.0345124
-0.0828493
0.0351705
-0.0920238
0.0350953
-0.100966
0.0342875
-0.109545
0.032766
-0.117589
0.0304975
-0.124926
0.0275157
-0.131422
0.0238322
-0.136906
0.019436
-0.141215
0.0143852
-0.144227
0.0087484
-0.145862
0.0025482
-0.146109
-0.00417976
-0.145005
-0.0113772
-0.142596
-0.0189521
-0.139012
-0.0267678
-0.134567
-0.0347208
-0.129855
-0.0426842
-0.125507
-0.0501289
-0.0559869
-0.00487237
-0.00278307
-0.0107229
0.00391851
-0.0171679
0.00978201
-0.0242108
0.0160458
-0.0317281
0.022147
-0.0396142
0.0277116
-0.0478129
0.0325324
-0.0562939
0.0365402
-0.0650222
0.0397079
-0.07396
0.0420518
-0.0830408
0.0435748
-0.0921638
0.0442768
-0.101241
0.0441552
-0.110135
0.0431635
-0.118706
0.0413203
-0.126818
0.0385944
-0.134295
0.0349809
-0.140996
0.0305251
-0.146789
0.0252261
-0.151529
0.0191296
-0.155093
0.0123221
-0.157428
0.00490102
-0.158543
-0.00304026
-0.158493
-0.011396
-0.157369
-0.0200395
-0.155338
-0.0287556
-0.152712
-0.0372981
-0.149966
-0.0453785
-0.147579
-0.0524614
-0.0577506
-0.00646644
0.00368218
-0.013948
0.0113944
-0.0217893
0.0176094
-0.0298446
0.0240788
-0.0379932
0.0302684
-0.0461923
0.0358829
-0.0544701
0.0407843
-0.0628693
0.0449158
-0.0714214
0.0482378
-0.0801285
0.0507382
-0.0889645
0.0523927
-0.0978618
0.0531571
-0.106739
0.0530146
-0.115494
0.0519005
-0.123984
0.0497933
-0.13209
0.0466853
-0.139666
0.0425444
-0.14655
0.0374011
-0.152622
0.0312952
-0.157761
0.0242713
-0.161853
0.0164236
-0.164838
0.00790258
-0.16672
-0.00113402
-0.167575
-0.0105116
-0.167519
-0.0200585
-0.166736
-0.0294963
-0.16551
-0.0384771
-0.164218
-0.0466201
-0.163238
-0.0533872
-0.0582064
-0.0076154
0.0112963
-0.0163894
0.0201628
-0.0251646
0.026372
-0.0337738
0.0326688
-0.0421498
0.0386218
-0.0503364
0.0440464
-0.0584399
0.0488658
-0.066562
0.0530172
-0.0747876
0.0564435
-0.0831518
0.0590833
-0.0916532
0.0608763
-0.100253
0.06174
-0.108874
0.0616174
-0.117435
0.0604436
-0.125815
0.0581564
-0.133887
0.0547414
-0.141524
0.0501692
-0.148578
0.0444464
-0.154916
0.03763
-0.160424
0.0297812
-0.165005
0.0210138
-0.168591
0.011504
-0.171172
0.00146885
-0.172819
-0.00883495
-0.173679
-0.0191632
-0.173921
-0.0292127
-0.173796
-0.0385561
-0.173613
-0.046753
-0.173684
-0.053263
-0.0577033
-0.00843127
0.0197262
-0.0180284
0.0297548
-0.0272294
0.0355621
-0.0359112
0.0413347
-0.0441118
0.046804
-0.0519779
0.0518935
-0.0596834
0.0565527
-0.0673767
0.0606923
-0.0751701
0.064219
-0.0831202
0.0670156
-0.0912406
0.0689793
-0.0995075
0.0699895
-0.107856
0.0699479
-0.116208
0.0687777
-0.124465
0.0663961
-0.132498
0.0627589
-0.140185
0.0578428
-0.147394
0.0516474
-0.153992
0.0442234
-0.15986
0.0356507
-0.164903
0.0260648
-0.16905
0.0156663
-0.172284
0.00472379
-0.174655
-0.00643512
-0.176309
-0.0174754
-0.177406
-0.0280753
-0.178165
-0.0377521
-0.178848
-0.0460208
-0.179721
-0.0523369
-0.0564726
-0.00891315
0.028638
-0.0187808
0.0396179
-0.027851
0.0446233
-0.0361011
0.0495721
-0.0437294
0.0544174
-0.0509902
0.0591388
-0.058112
0.0636586
-0.0652657
0.06783
-0.0725661
0.0715033
-0.0800707
0.0745037
-0.0877962
0.0766879
-0.0957246
0.0779006
-0.103805
0.0780105
-0.111957
0.0769119
-0.120089
0.0745105
-0.128089
0.0707428
-0.135834
0.0655755
-0.143201
0.0590053
-0.150059
0.051077
-0.15629
0.0418825
-0.161794
0.0315755
-0.166494
0.0203808
-0.170354
0.00860454
-0.173395
-0.00336757
-0.175741
-0.0150957
-0.177561
-0.0262166
-0.179042
-0.036227
-0.180413
-0.0446015
-0.181911
-0.0507871
-0.0546801
-0.0089687
0.0376055
-0.0185064
0.0491519
-0.0268067
0.0529163
-0.0340977
0.0568531
-0.0407881
0.061096
-0.0472166
0.0655544
-0.0536254
0.070054
-0.0601718
0.0743623
-0.0669525
0.0782694
-0.074012
0.0815478
-0.0813567
0.0840163
-0.0889679
0.0854946
-0.0967948
0.0858195
-0.104764
0.0848636
-0.11279
0.0825186
-0.120771
0.0787085
-0.128594
0.0733859
-0.136138
0.0665399
-0.143277
0.0582107
-0.149889
0.0484957
-0.155868
0.0375603
-0.161122
0.0256484
-0.165593
0.0130949
-0.169257
0.00032215
-0.172212
-0.0121081
-0.174657
-0.0237339
-0.17674
-0.0341006
-0.178669
-0.0426254
-0.180663
-0.048743
-0.0524526
-0.00851364
0.0461181
-0.0169502
0.0575855
-0.0237303
0.0596907
-0.0295505
0.0626654
-0.0350119
0.0665478
-0.040464
0.0709957
-0.0461078
0.0756861
-0.0520473
0.0802893
-0.0583279
0.0845366
-0.0649769
0.0881824
-0.0719756
0.0909993
-0.0792956
0.0927977
-0.0868884
0.0933949
-0.0946902
0.0926478
-0.102626
0.0904372
-0.110605
0.0866726
-0.118524
0.0812921
-0.126267
0.0742734
-0.13371
0.0656482
-0.140725
0.0555108
-0.147187
0.044028
-0.152982
0.0314555
-0.158027
0.0181587
-0.162315
0.00463542
-0.165885
-0.00850632
-0.168891
-0.0206911
-0.171491
-0.0314586
-0.173884
-0.0401866
-0.176281
-0.0462964
-0.0498728
-0.00732667
0.053444
-0.0135843
0.0638408
-0.0180352
0.0641372
-0.0220017
0.0666257
-0.0261108
0.070649
-0.0305991
0.0754748
-0.035532
0.0806086
-0.0409357
0.0856815
-0.0467845
0.0903731
-0.0530609
0.094445
-0.059738
0.0976612
-0.0667798
0.099823
-0.074146
0.100744
-0.0817838
0.100268
-0.0896301
0.0982669
-0.0976091
0.0946365
-0.105628
0.0892984
-0.113578
0.0822138
-0.121335
0.0734003
-0.128765
0.0629404
-0.135728
0.0509961
-0.142097
0.0378362
-0.14778
0.02386
-0.152721
0.00959971
-0.156886
-0.00431059
-0.160405
-0.0171367
-0.163466
-0.0283569
-0.16626
-0.0373475
-0.169002
-0.0435066
-0.0469877
-0.0046571
0.0581004
-0.0073472
0.0665291
-0.00893977
0.0657262
-0.0110891
0.0687697
-0.0140259
0.073579
-0.0177212
0.0791619
-0.0220803
0.0849582
-0.0270246
0.0906153
-0.032485
0.0958218
-0.038404
0.100351
-0.0447592
0.104002
-0.0515205
0.106568
-0.0586498
0.107857
-0.0661036
0.107705
-0.0738338
0.105981
-0.0817838
0.102572
-0.0898761
0.0973782
-0.0980125
0.0903409
-0.106076
0.0814588
-0.113935
0.0707982
-0.121441
0.0585072
-0.128451
0.0448577
-0.134839
0.0302649
-0.140484
0.0152681
-0.145261
0.000495639
-0.149268
-0.0130948
-0.15278
-0.0248056
-0.155947
-0.0341367
-0.159004
-0.0404025
-0.043813
0.00112753
0.0569724
0.00293156
0.0647235
0.00390625
0.0647484
0.00308753
0.0695838
0.000961341
0.0756991
-0.00214523
0.082261
-0.00604127
0.0888456
-0.0105699
0.095134
-0.0156432
0.100884
-0.0211968
0.105892
-0.0272179
0.110009
-0.0336789
0.113014
-0.0405378
0.1147
-0.0477586
0.11491
-0.0553096
0.113516
-0.0631617
0.11041
-0.0712551
0.105459
-0.0795084
0.098585
-0.0878215
0.0897668
-0.0960789
0.079055
-0.104133
0.0665658
-0.111812
0.0525473
-0.118924
0.0373932
-0.125278
0.021645
-0.130808
0.00605398
-0.135492
-0.00837702
-0.1395
-0.0207592
-0.14305
-0.0305444
-0.146424
-0.0369817
-0.0403383
0.0135316
0.0434403
0.0189128
0.0593406
0.0198557
0.0638023
0.0195076
0.0699274
0.0180431
0.0771578
0.0155622
0.0847348
0.0122279
0.0921717
0.00818321
0.0991694
0.00351934
0.105538
-0.00170683
0.111106
-0.00741564
0.115704
-0.0135401
0.119124
-0.0200679
0.121212
-0.0269725
0.121799
-0.0342375
0.120766
-0.0418777
0.118036
-0.0498454
0.113416
-0.0580784
0.106809
-0.0664987
0.0981821
-0.0750295
0.0875853
-0.0835346
0.0750755
-0.0918345
0.0608573
-0.0997195
0.0452941
-0.107006
0.0289528
-0.113532
0.0126075
-0.119045
-0.00283117
-0.123622
-0.0161441
-0.12762
-0.0265046
-0.131358
-0.0331985
-0.0365272
0.20714
0.0113216
0.206461
0.0152125
0.20563
0.0187154
0.204637
0.0222016
0.203474
0.0257339
0.202138
0.0293505
0.200628
0.0330679
0.198934
0.0369052
0.197035
0.0409124
0.194922
0.045139
0.192589
0.0495985
0.190011
0.0543435
0.187182
0.0594258
0.184094
0.0648804
0.180705
0.0708172
0.176997
0.0773133
0.172962
0.0844749
0.168599
0.0923932
0.163908
0.101221
0.158903
0.111142
0.153647
0.122326
0.148274
0.134918
0.143029
0.149008
0.138274
0.164598
0.134556
0.181446
0.132673
0.198983
0.13362
0.216166
0.138899
0.232055
0.151875
0.244128
0.249963
0.268637
0.212181
0.0118655
0.211531
0.0158999
0.210737
0.0195437
0.209788
0.0231816
0.20868
0.026869
0.207413
0.0306378
0.205986
0.0345081
0.204386
0.0385115
0.20259
0.0427069
0.200597
0.0471229
0.1984
0.0517788
0.195981
0.0567413
0.193345
0.0620372
0.19047
0.0677274
0.187345
0.0739146
0.183966
0.0806664
0.180349
0.0880672
0.176529
0.0961925
0.17252
0.105212
0.168407
0.11524
0.164332
0.126387
0.160547
0.138686
0.157437
0.152102
0.155546
0.166474
0.155681
0.181296
0.158936
0.195716
0.166708
0.208386
0.181157
0.217603
0.203426
0.221857
0.227763
0.225625
0.217348
0.0123853
0.216733
0.0165526
0.215984
0.0203272
0.21509
0.0241066
0.214048
0.0279384
0.212865
0.0318429
0.211538
0.035851
0.210045
0.0400129
0.208375
0.0443776
0.206529
0.0489617
0.204496
0.0537984
0.202281
0.0589375
0.199883
0.0644123
0.197282
0.0703034
0.194492
0.0766786
0.191528
0.083605
0.188442
0.0911294
0.185267
0.0993472
0.182073
0.108388
0.179009
0.11829
0.176292
0.129088
0.174262
0.140698
0.173347
0.152997
0.174144
0.165658
0.177367
0.178057
0.18369
0.189379
0.193395
0.198673
0.206107
0.204885
0.219976
0.207986
0.209503
0.238236
0.222645
0.0128766
0.222068
0.0171665
0.221369
0.0210607
0.220539
0.0249674
0.219582
0.0289246
0.218498
0.0329498
0.217279
0.0370881
0.215907
0.0413947
0.214386
0.0459021
0.212713
0.0506311
0.210884
0.0556165
0.208911
0.0608945
0.206783
0.0665197
0.204513
0.0725502
0.202125
0.0790431
0.199663
0.0860427
0.197187
0.0935835
0.194738
0.101776
0.192463
0.110646
0.190546
0.12019
0.189248
0.13037
0.188895
0.14103
0.189882
0.151988
0.192672
0.162845
0.197654
0.173057
0.204989
0.182029
0.214509
0.189142
0.225792
0.193596
0.238601
0.195174
0.193453
0.254649
0.228073
0.0133354
0.227539
0.0177362
0.226896
0.0217374
0.226144
0.0257512
0.225285
0.0298124
0.224311
0.0339487
0.223211
0.0382081
0.221984
0.0426351
0.220636
0.0472554
0.219165
0.0521002
0.217573
0.0572006
0.215866
0.0625881
0.214058
0.0683104
0.212175
0.0744128
0.210253
0.0809435
0.208356
0.0879174
0.206534
0.0953845
0.204889
0.103401
0.203587
0.11193
0.202818
0.120944
0.202823
0.130348
0.203868
0.139965
0.206264
0.149568
0.210295
0.158791
0.216108
0.167222
0.223715
0.174406
0.23302
0.179825
0.243645
0.182964
0.255068
0.183746
0.181588
0.266931
0.233634
0.0137584
0.233149
0.0182561
0.232572
0.022347
0.231908
0.0264465
0.231155
0.0305956
0.230303
0.0348275
0.229345
0.0391879
0.228288
0.0437086
0.227135
0.0484165
0.225888
0.0533491
0.224558
0.0585254
0.223164
0.0639718
0.221729
0.0697307
0.22028
0.0758441
0.218872
0.0823313
0.217568
0.0892012
0.216437
0.0964954
0.215612
0.104206
0.21524
0.112284
0.215497
0.120671
0.216586
0.129241
0.218715
0.137815
0.2221
0.146159
0.22688
0.153988
0.233107
0.160974
0.240787
0.166709
0.249743
0.170857
0.259461
0.173237
0.269352
0.17385
0.171828
0.279109
0.239331
0.0141428
0.238902
0.0187186
0.238401
0.0228794
0.237834
0.0270447
0.237196
0.0312627
0.236482
0.0355691
0.23569
0.0400039
0.234826
0.0445923
0.233891
0.0493652
0.232895
0.0543493
0.231866
0.0595525
0.230823
0.065008
0.229786
0.0707552
0.228799
0.0768155
0.227922
0.0831911
0.227216
0.0898886
0.226775
0.0969179
0.226718
0.104244
0.22718
0.111805
0.228317
0.119516
0.230292
0.127247
0.233259
0.134826
0.237334
0.142061
0.242583
0.148716
0.249053
0.154484
0.256666
0.159079
0.265139
0.162369
0.274069
0.164297
0.283058
0.164855
0.163023
0.291859
0.24517
0.0144841
0.244805
0.0191147
0.244391
0.0233229
0.243932
0.0275336
0.243425
0.0317997
0.242865
0.0361564
0.242256
0.0406372
0.241603
0.0452671
0.240913
0.0500723
0.240205
0.0550678
0.239497
0.0602639
0.238811
0.0656908
0.238182
0.0713745
0.237662
0.077322
0.237309
0.0835288
0.23719
0.0899899
0.237403
0.0966877
0.238056
0.103574
0.239266
0.110576
0.241163
0.117601
0.243866
0.124524
0.247466
0.131204
0.252027
0.137476
0.257617
0.143105
0.264217
0.147864
0.271659
0.15162
0.279706
0.154307
0.288092
0.1559
0.296531
0.156407
0.154803
0.304745
0.251156
0.0147747
0.250864
0.0194346
0.25055
0.0236655
0.250212
0.0278998
0.249849
0.0321919
0.249458
0.0365742
0.249045
0.0410751
0.248617
0.0457175
0.248188
0.0505203
0.247775
0.0554957
0.247394
0.0606534
0.247075
0.0660119
0.246861
0.0715844
0.246806
0.0773677
0.246969
0.0833512
0.247424
0.0895195
0.248256
0.0958397
0.249559
0.102254
0.251432
0.108686
0.253975
0.115041
0.257264
0.121217
0.26135
0.127096
0.266301
0.132502
0.272135
0.137249
0.278759
0.141221
0.286019
0.144342
0.293745
0.146567
0.301736
0.147896
0.309779
0.148354
0.146966
0.317608
0.257293
0.0150059
0.257085
0.0196682
0.256881
0.023896
0.256676
0.0281318
0.256467
0.0324282
0.256255
0.036813
0.256046
0.041309
0.255851
0.0459354
0.255685
0.0507061
0.255568
0.0556286
0.255524
0.0607093
0.255585
0.0659575
0.255796
0.0713756
0.256206
0.0769532
0.256877
0.0826708
0.257877
0.0885051
0.259284
0.0944176
0.261174
0.100347
0.263626
0.106217
0.266712
0.111938
0.270479
0.11743
0.274974
0.122579
0.280232
0.127222
0.28621
0.13125
0.292813
0.134599
0.299926
0.137213
0.307408
0.13907
0.315105
0.140186
0.322861
0.140586
0.139375
0.330443
0.263586
0.0151689
0.263472
0.0198048
0.263387
0.0240048
0.263321
0.0282223
0.263272
0.0325029
0.263244
0.0368675
0.263244
0.041333
0.263289
0.0459138
0.263395
0.05062
0.263585
0.0554555
0.263885
0.0604216
0.264332
0.0655198
0.264967
0.0707455
0.265839
0.0760828
0.266999
0.0815057
0.268512
0.0869828
0.270444
0.0924725
0.272859
0.0979163
0.275816
0.103244
0.27936
0.108377
0.283535
0.113238
0.288368
0.117726
0.293845
0.121725
0.299912
0.125163
0.306494
0.128
0.313491
0.130199
0.32079
0.131756
0.328273
0.132689
0.335823
0.133025
0.131949
0.34324
0.27004
0.0152533
0.270028
0.0198356
0.270066
0.023988
0.270142
0.0281687
0.270256
0.0324127
0.270416
0.0367315
0.270636
0.0411371
0.270931
0.0456411
0.27132
0.0502509
0.271826
0.0549668
0.272477
0.0597846
0.273307
0.0647
0.274357
0.0697023
0.275671
0.0747715
0.277297
0.0798793
0.279287
0.0849881
0.281697
0.0900537
0.284578
0.0950227
0.287975
0.0998321
0.291919
0.104417
0.296434
0.108706
0.301529
0.112613
0.307173
0.116063
0.313311
0.119007
0.319877
0.121417
0.326788
0.123272
0.333953
0.124576
0.34128
0.125349
0.348677
0.125616
0.124642
0.355974
0.276658
0.0152489
0.276752
0.0197569
0.276912
0.0238455
0.277133
0.0279676
0.277418
0.032149
0.277777
0.0363941
0.278226
0.0407103
0.278781
0.0451078
0.279459
0.0495924
0.280283
0.0541594
0.281282
0.0587998
0.282489
0.0635045
0.283942
0.0682568
0.285677
0.0730404
0.287731
0.0778258
0.290157
0.08256
0.293002
0.0872036
0.296301
0.0917155
0.300084
0.0960381
0.304372
0.100115
0.309176
0.103887
0.314484
0.107289
0.32026
0.110269
0.326457
0.112794
0.333015
0.114843
0.339866
0.116408
0.346933
0.117495
0.354143
0.118126
0.361426
0.118322
0.117427
0.368632
0.28344
0.01515
0.28364
0.0195673
0.283926
0.0235731
0.284299
0.027611
0.284764
0.0317021
0.285332
0.0358463
0.286016
0.0400463
0.286833
0.0443109
0.2878
0.0486437
0.288942
0.0530335
0.290283
0.057473
0.291848
0.0619503
0.293678
0.0664353
0.295807
0.0709158
0.298269
0.0753656
0.301103
0.0797256
0.304342
0.0839603
0.308015
0.0880369
0.312138
0.0919067
0.316723
0.0955207
0.321766
0.0988307
0.327249
0.101792
0.333138
0.104367
0.339387
0.106531
0.345945
0.108271
0.352753
0.109587
0.359748
0.110487
0.366872
0.110991
0.374065
0.111118
0.110284
0.381199
0.290384
0.0149552
0.290695
0.0192626
0.291114
0.0231636
0.291647
0.0270911
0.2923
0.0310646
0.29308
0.0350824
0.294003
0.0391421
0.295079
0.0432518
0.296328
0.047412
0.297776
0.0516013
0.299445
0.0558165
0.30136
0.0600458
0.303552
0.064252
0.306053
0.068419
0.308899
0.0725221
0.31211
0.0765146
0.315707
0.0803611
0.31971
0.0840292
0.324129
0.0874804
0.328966
0.0906752
0.334211
0.0935758
0.339842
0.0961491
0.345827
0.0983698
0.352125
0.100221
0.358688
0.101695
0.365467
0.102795
0.37241
0.103532
0.379467
0.103923
0.386589
0.103985
0.1032
0.393665
0.297496
0.0146626
0.297923
0.0188365
0.298481
0.0226113
0.299176
0.026404
0.300019
0.0302338
0.301014
0.0341008
0.30217
0.0380011
0.303502
0.0419359
0.30503
0.0458988
0.306776
0.0498685
0.308764
0.05384
0.31102
0.0578
0.313562
0.0617171
0.316416
0.0655699
0.319608
0.0693323
0.323155
0.0729678
0.327071
0.0764436
0.331366
0.0797304
0.336044
0.0827971
0.341099
0.0856128
0.346518
0.0881484
0.352278
0.0903799
0.358348
0.09229
0.36469
0.0938681
0.371263
0.0951115
0.378024
0.0960248
0.384927
0.0966187
0.39193
0.0969096
0.398994
0.0969114
0.0961691
0.406018
0.304779
0.0142703
0.305327
0.018285
0.306027
0.0219114
0.306888
0.0255475
0.307918
0.0292119
0.309123
0.0329055
0.310511
0.0366247
0.312098
0.0403619
0.313905
0.0441043
0.315947
0.0478375
0.318244
0.0515532
0.320817
0.0552351
0.323683
0.0588569
0.326862
0.0623952
0.330372
0.065825
0.334223
0.0691163
0.338424
0.0722409
0.342978
0.0751729
0.347883
0.0778872
0.35313
0.0803604
0.358702
0.0825704
0.364574
0.0844994
0.370719
0.0861364
0.377103
0.0874759
0.383687
0.0885179
0.390434
0.0892682
0.397306
0.0897375
0.404266
0.0899404
0.41128
0.0898891
0.0891851
0.418257
0.312238
0.0137765
0.312908
0.0176058
0.313753
0.0210616
0.31478
0.0245199
0.315996
0.0279992
0.31741
0.0314986
0.31903
0.0350124
0.320871
0.03853
0.322947
0.0420375
0.325271
0.0455217
0.327861
0.0489711
0.330734
0.0523691
0.333903
0.0556929
0.337381
0.0589198
0.34118
0.0620268
0.345307
0.064989
0.349764
0.0677823
0.354548
0.0703849
0.359654
0.0727766
0.365069
0.0749401
0.370775
0.0768591
0.376748
0.0785199
0.38296
0.0799165
0.389381
0.0810469
0.395978
0.0819131
0.402716
0.0825218
0.409562
0.0828829
0.416484
0.0830097
0.423452
0.082913
0.0822455
0.430385
0.319876
0.0131799
0.320669
0.016798
0.321659
0.0200611
0.322853
0.0233211
0.324256
0.0265951
0.325876
0.0298801
0.327724
0.0331687
0.32981
0.0364494
0.332145
0.0397085
0.33474
0.0429325
0.337608
0.0461082
0.340761
0.0492194
0.344211
0.0522459
0.347965
0.0551672
0.352029
0.0579626
0.356405
0.0606113
0.361092
0.0630932
0.366082
0.0653904
0.371366
0.0674868
0.376931
0.0693703
0.382756
0.0710286
0.388818
0.0724514
0.395092
0.0736361
0.401548
0.0745833
0.408157
0.0752965
0.414889
0.0757824
0.421713
0.0760506
0.428601
0.076113
0.435527
0.0759791
0.0753481
0.442419
0.327698
0.0124796
0.328614
0.0158612
0.329749
0.0189102
0.331109
0.0219516
0.332697
0.0250006
0.334522
0.0280528
0.33659
0.0310995
0.338912
0.0341289
0.341495
0.0371278
0.344347
0.0400826
0.347478
0.0429796
0.350895
0.0458031
0.354606
0.0485354
0.358614
0.0511585
0.36292
0.0536543
0.367523
0.0560053
0.372416
0.0581952
0.377592
0.0602095
0.383036
0.0620358
0.388735
0.0636656
0.394667
0.0650902
0.400811
0.0663015
0.407141
0.0672994
0.413631
0.0680864
0.420253
0.0686668
0.42698
0.0690473
0.433786
0.0692368
0.440645
0.069246
0.447532
0.0690836
0.0684903
0.454383
0.335707
0.0116747
0.336746
0.0147954
0.338026
0.0176092
0.339549
0.0204126
0.34132
0.0232185
0.343344
0.0260212
0.345628
0.0288113
0.348176
0.0315772
0.350996
0.0343061
0.354092
0.0369848
0.35747
0.0395998
0.361135
0.0421365
0.365088
0.0445794
0.36933
0.0469127
0.373859
0.049121
0.378669
0.05119
0.383751
0.0531063
0.389095
0.0548586
0.394685
0.0564373
0.400506
0.0578374
0.406537
0.0590521
0.412757
0.0600754
0.41914
0.0609088
0.425662
0.0615561
0.432299