/*--------------------------------*- C++ -*----------------------------------*\
| =========                 |                                                 |
| \\      /  F ield         | OpenFOAM: The Open Source CFD Toolbox           |
|  \\    /   O peration     | Version:  dev                                   |
|   \\  /    A nd           | Web:      www.OpenFOAM.org                      |
|    \\/     M anipulation  |                                                 |
\*---------------------------------------------------------------------------*/
FoamFile
{
    version     2.0;
    format      ascii;
    class       pointVectorField;
    location    "1";
    object      pointDisplacement;
}
// * * * * * * * * * * * * * * * * * * * * * * * * * * * * * * * * * * * * * //

dimensions      [0 1 0 0 0 0 0];

internalField   nonuniform List<vector> 
5828
(
(0 0 0)
(0.019007 0 0)
(0.0359449 0 0)
(0.0503404 0 0)
(0.0624335 0 0)
(0.0724539 0 0)
(0.0806025 0 0)
(0.0870532 0 0)
(0.0919589 0 0)
(0.0954567 0 0)
(0.0976669 0 0)
(0.0986931 0 0)
(0.0986266 0 0)
(0.0975484 0 0)
(0.0955322 0 0)
(0.0926453 0 0)
(0.0889518 0 0)
(0.0845134 0 0)
(0.0793926 0 0)
(0.0736534 0 0)
(0.0673644 0 0)
(0.060601 0 0)
(0.0534495 0 0)
(0.0460115 0 0)
(0.0384102 0 0)
(0.0308009 0 0)
(0.02339 0 0)
(0.0164713 0 0)
(0.0104891 0 0)
(0.00625486 0 0)
(0 0 0)
(0 0 0)
(0.0190195 0 -0.000116236)
(0.03597 0 -0.000221314)
(0.0503781 0 -0.000313563)
(0.0624844 0 -0.00039505)
(0.0725194 0 -0.000467394)
(0.0806844 0 -0.000531695)
(0.0871533 0 -0.000588835)
(0.0920789 0 -0.000638553)
(0.0955993 0 -0.00068034)
(0.0978354 0 -0.00071412)
(0.0988911 0 -0.000739177)
(0.098858 0 -0.000754439)
(0.0978178 0 -0.000758514)
(0.0958447 0 -0.00074968)
(0.0930068 0 -0.000725873)
(0.0893687 0 -0.000684672)
(0.0849933 0 -0.000623281)
(0.079944 0 -0.000538518)
(0.0742862 0 -0.000426732)
(0.0680901 0 -0.000283747)
(0.0614329 0 -0.000104902)
(0.0544034 0 0.000114911)
(0.0471064 0 0.000381156)
(0.0396695 0 0.000699446)
(0.0322523 0 0.00107523)
(0.0250652 0 0.0015131)
(0.0184123 0 0.00201447)
(0.0127673 0 0.00256771)
(0.00897191 0 0.0031082)
(0.00371899 0 0.00388566)
(0 0 0)
(0.0190599 0 -0.000232787)
(0.0360494 0 -0.000443304)
(0.0504954 0 -0.0006282)
(0.0626413 0 -0.000791614)
(0.0727199 0 -0.000936817)
(0.0809342 0 -0.00106596)
(0.0874571 0 -0.00118031)
(0.0924412 0 -0.00127984)
(0.0960282 0 -0.00136418)
(0.098341 0 -0.00143282)
(0.0994839 0 -0.00148431)
(0.0995498 0 -0.00151656)
(0.0986221 0 -0.00152686)
(0.0967766 0 -0.00151187)
(0.0940835 0 -0.00146759)
(0.0906095 0 -0.00138932)
(0.08642 0 -0.00127165)
(0.0815817 0 -0.00110852)
(0.0761644 0 -0.000892962)
(0.0702422 0 -0.000617048)
(0.0638981 0 -0.000272026)
(0.0572282 0 0.000151518)
(0.0503467 0 0.000663372)
(0.0433961 0 0.00127292)
(0.0365533 0 0.00198802)
(0.0300409 0 0.00281333)
(0.0241699 0 0.00374465)
(0.0194574 0 0.00474747)
(0.0168299 0 0.00568125)
(0.0125909 0 0.00697883)
(0 0 0)
(0.0191282 0 -0.000349599)
(0.0361833 0 -0.000665915)
(0.0506922 0 -0.000943891)
(0.0629036 0 -0.00118974)
(0.0730544 0 -0.00140847)
(0.0813483 0 -0.00160326)
(0.0879587 0 -0.0017752)
(0.093041 0 -0.00192513)
(0.0967399 0 -0.00205351)
(0.0991795 0 -0.00215898)
(0.100466 0 -0.00223943)
(0.100696 0 -0.00229189)
(0.0999536 0 -0.0023125)
(0.0983185 0 -0.0022965)
(0.095864 0 -0.0022382)
(0.0926604 0 -0.00213095)
(0.0887769 0 -0.0019671)
(0.0842857 0 -0.00173827)
(0.0792631 0 -0.00143499)
(0.0737902 0 -0.0010464)
(0.0679578 0 -0.000560821)
(0.0618724 0 3.38452e-05)
(0.0556607 0 0.00074971)
(0.0494894 0 0.00159683)
(0.0435683 0 0.00258064)
(0.0381501 0 0.00369821)
(0.0335516 0 0.00492926)
(0.0302645 0 0.00620717)
(0.0292993 0 0.00731117)
(0.0265266 0 0.00884292)
(0 0 0)
(0.0192239 0 -0.000466449)
(0.0363701 0 -0.000888432)
(0.0509652 0 -0.00125933)
(0.0632666 0 -0.00158777)
(0.0735172 0 -0.00188044)
(0.0819201 0 -0.00214174)
(0.0886511 0 -0.00237308)
(0.093871 0 -0.00257564)
(0.0977257 0 -0.00275033)
(0.100341 0 -0.0028955)
(0.101827 0 -0.00300859)
(0.102282 0 -0.00308593)
(0.101796 0 -0.00312278)
(0.100451 0 -0.00311325)
(0.0983261 0 -0.00305033)
(0.0954958 0 -0.00292589)
(0.0920336 0 -0.00273045)
(0.0880201 0 -0.00245432)
(0.0835415 0 -0.00208663)
(0.0786871 0 -0.00161467)
(0.0735587 0 -0.00102551)
(0.0682772 0 -0.00030673)
(0.0629822 0 0.000553613)
(0.0578543 0 0.00156346)
(0.0531361 0 0.00272019)
(0.0491364 0 0.00400395)
(0.0462127 0 0.00536689)
(0.0447848 0 0.00671057)
(0.0458357 0 0.00774611)
(0.0446902 0 0.00924571)
(0 0 0)
(0.0193423 0 -0.000583191)
(0.036601 0 -0.00111056)
(0.0513073 0 -0.00157428)
(0.0637257 0 -0.00198562)
(0.0741037 0 -0.00235277)
(0.0826454 0 -0.0026811)
(0.0895289 0 -0.00297319)
(0.0949213 0 -0.0032307)
(0.0989719 0 -0.00345439)
(0.101808 0 -0.00364273)
(0.103544 0 -0.00379295)
(0.104283 0 -0.00390103)
(0.104119 0 -0.00396159)
(0.10314 0 -0.00396804)
(0.101429 0 -0.00391256)
(0.0990688 0 -0.00378619)
(0.0961408 0 -0.00357881)
(0.0927315 0 -0.00327963)
(0.0889367 0 -0.00287696)
(0.0848585 0 -0.00235823)
(0.0806105 0 -0.00171089)
(0.0763345 0 -0.000924825)
(0.0721937 0 7.49445e-06)
(0.0683714 0 0.00108833)
(0.0651179 0 0.0023048)
(0.0627837 0 0.003616)
(0.0617967 0 0.00493689)
(0.0625545 0 0.00613578)
(0.0658327 0 0.00688769)
(0.0662867 0 0.00815547)
(0 0 0)
(0.0194825 0 -0.000699495)
(0.0368737 0 -0.00133223)
(0.0517157 0 -0.00188923)
(0.0642769 0 -0.00238407)
(0.0748067 0 -0.00282648)
(0.0835135 0 -0.00322255)
(0.0905808 0 -0.00357649)
(0.0961808 0 -0.00389116)
(0.100465 0 -0.00416697)
(0.103565 0 -0.00440256)
(0.1056 0 -0.00459527)
(0.106677 0 -0.004741)
(0.106897 0 -0.00483415)
(0.106352 0 -0.00486783)
(0.105133 0 -0.00483392)
(0.103331 0 -0.00472321)
(0.101039 0 -0.0045266)
(0.0983536 0 -0.00423286)
(0.0953727 0 -0.00382962)
(0.0922174 0 -0.00330671)
(0.0890157 0 -0.00265393)
(0.0859215 0 -0.00186435)
(0.0831214 0 -0.000937941)
(0.0808284 0 0.000115527)
(0.0792972 0 0.00126986)
(0.0788562 0 0.0024673)
(0.0799755 0 0.00358714)
(0.0830832 0 0.00445793)
(0.0886503 0 0.00475522)
(0.0905988 0 0.00566583)
(0 0 0)
(0.0196475 0 -0.000815166)
(0.0371923 0 -0.00155289)
(0.0521889 0 -0.00220317)
(0.0649137 0 -0.00278181)
(0.0756173 0 -0.00330023)
(0.0845149 0 -0.00376585)
(0.0917972 0 -0.00418419)
(0.0976382 0 -0.00455882)
(0.102192 0 -0.00489039)
(0.105596 0 -0.00517794)
(0.107973 0 -0.00541923)
(0.109439 0 -0.00561045)
(0.110099 0 -0.00574615)
(0.110052 0 -0.00581961)
(0.109398 0 -0.00582308)
(0.108235 0 -0.00574815)
(0.10667 0 -0.00558649)
(0.104806 0 -0.00532766)
(0.102751 0 -0.00496076)
(0.100647 0 -0.00447938)
(0.0986445 0 -0.00387851)
(0.0968995 0 -0.00315541)
(0.0956066 0 -0.00231733)
(0.0950102 0 -0.00138766)
(0.0953943 0 -0.000412355)
(0.0970496 0 0.000535441)
(0.100402 0 0.00131434)
(0.105872 0 0.00171878)
(0.113686 0 0.00144597)
(0.117045 0 0.00192467)
(0 0 0)
(0.019828 0 -0.00092996)
(0.0375488 0 -0.00177224)
(0.0527217 0 -0.00251574)
(0.06563 0 -0.00317845)
(0.0765302 0 -0.00377378)
(0.085644 0 -0.00431086)
(0.0931677 0 -0.00479615)
(0.0992782 0 -0.00523368)
(0.104134 0 -0.00562487)
(0.107876 0 -0.00596931)
(0.110637 0 -0.00626561)
(0.112536 0 -0.00651069)
(0.113685 0 -0.00669952)
(0.114192 0 -0.00682606)
(0.114163 0 -0.0068833)
(0.113713 0 -0.00686545)
(0.112955 0 -0.00676484)
(0.111997 0 -0.00657222)
(0.110971 0 -0.0062812)
(0.110027 0 -0.00588883)
(0.109333 0 -0.00539564)
(0.109069 0 -0.00480792)
(0.109445 0 -0.00414303)
(0.110698 0 -0.00343322)
(0.113129 0 -0.00274286)
(0.117033 0 -0.00216556)
(0.122714 0 -0.00184671)
(0.13051 0 -0.00200488)
(0.140477 0 -0.00290996)
(0.145172 0 -0.0028806)
(0 0 0)
(0.0200224 0 -0.00104381)
(0.0379403 0 -0.00199043)
(0.0533099 0 -0.00282724)
(0.0664204 0 -0.00357445)
(0.0775378 0 -0.00424765)
(0.0868898 0 -0.00485762)
(0.0946782 0 -0.00541189)
(0.101084 0 -0.00591529)
(0.106269 0 -0.00637007)
(0.11038 0 -0.00677638)
(0.113558 0 -0.00713419)
(0.115929 0 -0.00744171)
(0.11761 0 -0.0076945)
(0.118718 0 -0.00788779)
(0.119368 0 -0.00801621)
(0.119687 0 -0.00807602)
(0.119795 0 -0.00806158)
(0.119814 0 -0.00796676)
(0.1199 0 -0.00779128)
(0.120212 0 -0.00753652)
(0.120919 0 -0.00720762)
(0.122229 0 -0.00682053)
(0.124384 0 -0.00640643)
(0.12762 0 -0.00600897)
(0.132211 0 -0.00570053)
(0.138451 0 -0.00559291)
(0.146532 0 -0.00582912)
(0.156642 0 -0.00661659)
(0.168642 0 -0.00817527)
(0.174611 0 -0.0085953)
(0 0 0)
(0.0202363 0 -0.0011568)
(0.0383673 0 -0.00220693)
(0.0539468 0 -0.00313638)
(0.0672747 0 -0.00396805)
(0.0786269 0 -0.00471973)
(0.0882358 0 -0.00540373)
(0.0963084 0 -0.00602882)
(0.10303 0 -0.00660085)
(0.108568 0 -0.00712308)
(0.113076 0 -0.00759687)
(0.116702 0 -0.00802345)
(0.119576 0 -0.00840198)
(0.121824 0 -0.00872931)
(0.123569 0 -0.00900261)
(0.124941 0 -0.00921928)
(0.126071 0 -0.00937693)
(0.127089 0 -0.00947293)
(0.128138 0 -0.00950662)
(0.129383 0 -0.00948221)
(0.131003 0 -0.00940818)
(0.133192 0 -0.00929907)
(0.136154 0 -0.00917638)
(0.14015 0 -0.00908259)
(0.14545 0 -0.00907828)
(0.152281 0 -0.00923793)
(0.160906 0 -0.00968063)
(0.171438 0 -0.0105444)
(0.183875 0 -0.012004)
(0.197782 0 -0.0142067)
(0.205032 0 -0.0150826)
(0 0 0)
(0.0204629 0 -0.00126849)
(0.0388174 0 -0.0024208)
(0.0546219 0 -0.00344219)
(0.0681841 0 -0.00435837)
(0.0797866 0 -0.00518899)
(0.0896683 0 -0.00594802)
(0.0980417 0 -0.00664562)
(0.105098 0 -0.00728887)
(0.111008 0 -0.00788232)
(0.115936 0 -0.00842906)
(0.120033 0 -0.00893119)
(0.123435 0 -0.00938866)
(0.126272 0 -0.00980038)
(0.128679 0 -0.0101658)
(0.130798 0 -0.0104854)
(0.132766 0 -0.0107596)
(0.134724 0 -0.010989)
(0.136835 0 -0.0111799)
(0.139273 0 -0.0113408)
(0.142223 0 -0.0114856)
(0.145911 0 -0.0116409)
(0.150564 0 -0.0118394)
(0.156429 0 -0.0121281)
(0.163794 0 -0.0125803)
(0.172888 0 -0.0132796)
(0.183929 0 -0.0143415)
(0.196951 0 -0.0158873)
(0.211724 0 -0.0180397)
(0.227428 0 -0.020852)
(0.236135 0 -0.0221736)
(0 0 0)
(0.0206985 0 -0.00137833)
(0.039286 0 -0.00263161)
(0.0553299 0 -0.00374463)
(0.0691415 0 -0.00474537)
(0.0810078 0 -0.00565536)
(0.0911758 0 -0.0064904)
(0.099864 0 -0.00726213)
(0.107269 0 -0.00797903)
(0.113568 0 -0.00864706)
(0.11893 0 -0.00927093)
(0.123513 0 -0.00985399)
(0.127456 0 -0.0103974)
(0.130897 0 -0.0109023)
(0.13398 0 -0.0113704)
(0.136856 0 -0.0118061)
(0.139675 0 -0.0122131)
(0.142583 0 -0.0125963)
(0.145759 0 -0.012967)
(0.149392 0 -0.0133415)
(0.153675 0 -0.0137401)
(0.158837 0 -0.0141955)
(0.165146 0 -0.0147564)
(0.172842 0 -0.0154761)
(0.182207 0 -0.0164342)
(0.19351 0 -0.0177275)
(0.206926 0 -0.0194618)
(0.222411 0 -0.0217285)
(0.239504 0 -0.0245779)
(0.256937 0 -0.0279532)
(0.26766 0 -0.0297132)
(0 0 0)
(0.0209448 0 -0.00148628)
(0.0397761 0 -0.00283925)
(0.0560683 0 -0.00404309)
(0.0701383 0 -0.00512797)
(0.0822787 0 -0.00611746)
(0.0927433 0 -0.00702916)
(0.101757 0 -0.0078763)
(0.10952 0 -0.00866879)
(0.116218 0 -0.00941422)
(0.122025 0 -0.0101189)
(0.127101 0 -0.0107876)
(0.131592 0 -0.0114229)
(0.135643 0 -0.0120284)
(0.139405 0 -0.0126088)
(0.143036 0 -0.013171)
(0.146695 0 -0.0137231)
(0.150545 0 -0.0142761)
(0.154765 0 -0.0148449)
(0.159549 0 -0.0154512)
(0.165117 0 -0.0161264)
(0.171692 0 -0.0169087)
(0.179548 0 -0.0178557)
(0.188954 0 -0.0190362)
(0.200179 0 -0.0205335)
(0.213506 0 -0.0224523)
(0.229083 0 -0.0248884)
(0.246824 0 -0.0279006)
(0.266097 0 -0.0314513)
(0.28523 0 -0.0353604)
(0.299393 0 -0.0375578)
(0 0 0)
(0.0211996 0 -0.00159223)
(0.0402828 0 -0.00304324)
(0.0568303 0 -0.00433667)
(0.0711656 0 -0.00550497)
(0.0835874 0 -0.00657376)
(0.0943557 0 -0.00756243)
(0.103701 0 -0.0084858)
(0.11183 0 -0.00935529)
(0.118932 0 -0.0101802)
(0.125186 0 -0.0109688)
(0.130758 0 -0.0117267)
(0.135794 0 -0.0124582)
(0.14045 0 -0.0131701)
(0.144887 0 -0.0138707)
(0.14926 0 -0.0145683)
(0.153733 0 -0.015274)
(0.158483 0 -0.0160053)
(0.163698 0 -0.0167832)
(0.169565 0 -0.0176325)
(0.176314 0 -0.0185931)
(0.184184 0 -0.019714)
(0.193423 0 -0.0210551)
(0.204314 0 -0.0226986)
(0.21711 0 -0.0247344)
(0.232071 0 -0.0272717)
(0.249305 0 -0.030402)
(0.26871 0 -0.0341707)
(0.28955 0 -0.0384528)
(0.310198 0 -0.0429677)
(0.331151 0 -0.0455458)
(0 0 0)
(0.0214628 0 -0.00169674)
(0.0408058 0 -0.00324466)
(0.0576157 0 -0.00462694)
(0.0722234 0 -0.00587838)
(0.0849336 0 -0.00702661)
(0.0960124 0 -0.00809283)
(0.105695 0 -0.00909347)
(0.114194 0 -0.0100414)
(0.121705 0 -0.010948)
(0.128411 0 -0.0118233)
(0.134477 0 -0.0126741)
(0.140057 0 -0.0135067)
(0.145313 0 -0.0143305)
(0.150406 0 -0.0151557)
(0.155499 0 -0.0159949)
(0.160758 0 -0.0168622)
(0.166356 0 -0.0177768)
(0.172488 0 -0.0187668)
(0.179349 0 -0.0198638)
(0.187157 0 -0.0211111)
(0.196148 0 -0.0225651)
(0.206538 0 -0.0242878)
(0.218581 0 -0.026366)
(0.232503 0 -0.0288974)
(0.248477 0 -0.0319914)
(0.266504 0 -0.0357444)
(0.286339 0 -0.0402349)
(0.30698 0 -0.0454118)
(0.326926 0 -0.0513941)
(0.362941 0 -0.0535944)
(0 0 0)
(0.019007 0 0)
(0.0359449 0 0)
(0.0503404 0 0)
(0.0624335 0 0)
(0.0724539 0 0)
(0.0806025 0 0)
(0.0870532 0 0)
(0.0919589 0 0)
(0.0954567 0 0)
(0.0976669 0 0)
(0.0986931 0 0)
(0.0986266 0 0)
(0.0975484 0 0)
(0.0955322 0 0)
(0.0926453 0 0)
(0.0889518 0 0)
(0.0845134 0 0)
(0.0793926 0 0)
(0.0736534 0 0)
(0.0673644 0 0)
(0.060601 0 0)
(0.0534495 0 0)
(0.0460115 0 0)
(0.0384102 0 0)
(0.0308009 0 0)
(0.02339 0 0)
(0.0164713 0 0)
(0.0104891 0 0)
(0.00625486 0 0)
(0 0 0)
(0 0 0)
(0.0190195 0 -0.000116236)
(0.03597 0 -0.000221314)
(0.0503781 0 -0.000313563)
(0.0624844 0 -0.00039505)
(0.0725194 0 -0.000467394)
(0.0806844 0 -0.000531695)
(0.0871533 0 -0.000588835)
(0.0920789 0 -0.000638553)
(0.0955993 0 -0.00068034)
(0.0978354 0 -0.00071412)
(0.0988911 0 -0.000739177)
(0.098858 0 -0.000754439)
(0.0978178 0 -0.000758514)
(0.0958447 0 -0.00074968)
(0.0930068 0 -0.000725873)
(0.0893687 0 -0.000684672)
(0.0849933 0 -0.000623281)
(0.079944 0 -0.000538518)
(0.0742862 0 -0.000426732)
(0.0680901 0 -0.000283747)
(0.0614329 0 -0.000104902)
(0.0544034 0 0.000114911)
(0.0471064 0 0.000381156)
(0.0396695 0 0.000699446)
(0.0322523 0 0.00107523)
(0.0250652 0 0.0015131)
(0.0184123 0 0.00201447)
(0.0127673 0 0.00256771)
(0.00897191 0 0.0031082)
(0.00371899 0 0.00388566)
(0 0 0)
(0.0190599 0 -0.000232787)
(0.0360494 0 -0.000443304)
(0.0504954 0 -0.0006282)
(0.0626413 0 -0.000791614)
(0.0727199 0 -0.000936817)
(0.0809342 0 -0.00106596)
(0.0874571 0 -0.00118031)
(0.0924412 0 -0.00127984)
(0.0960282 0 -0.00136418)
(0.098341 0 -0.00143282)
(0.0994839 0 -0.00148431)
(0.0995498 0 -0.00151656)
(0.0986221 0 -0.00152686)
(0.0967766 0 -0.00151187)
(0.0940835 0 -0.00146759)
(0.0906095 0 -0.00138932)
(0.08642 0 -0.00127165)
(0.0815817 0 -0.00110852)
(0.0761644 0 -0.000892962)
(0.0702422 0 -0.000617048)
(0.0638981 0 -0.000272026)
(0.0572282 0 0.000151518)
(0.0503467 0 0.000663372)
(0.0433961 0 0.00127292)
(0.0365533 0 0.00198802)
(0.0300409 0 0.00281333)
(0.0241699 0 0.00374465)
(0.0194574 0 0.00474747)
(0.0168299 0 0.00568125)
(0.0125909 0 0.00697883)
(0 0 0)
(0.0191282 0 -0.000349599)
(0.0361833 0 -0.000665915)
(0.0506922 0 -0.000943891)
(0.0629036 0 -0.00118974)
(0.0730544 0 -0.00140847)
(0.0813483 0 -0.00160326)
(0.0879587 0 -0.0017752)
(0.093041 0 -0.00192513)
(0.0967399 0 -0.00205351)
(0.0991795 0 -0.00215898)
(0.100466 0 -0.00223943)
(0.100696 0 -0.00229189)
(0.0999536 0 -0.0023125)
(0.0983185 0 -0.0022965)
(0.095864 0 -0.0022382)
(0.0926604 0 -0.00213095)
(0.0887769 0 -0.0019671)
(0.0842857 0 -0.00173827)
(0.0792631 0 -0.00143499)
(0.0737902 0 -0.0010464)
(0.0679578 0 -0.000560821)
(0.0618724 0 3.38452e-05)
(0.0556607 0 0.00074971)
(0.0494894 0 0.00159683)
(0.0435683 0 0.00258064)
(0.0381501 0 0.00369821)
(0.0335516 0 0.00492926)
(0.0302645 0 0.00620717)
(0.0292993 0 0.00731117)
(0.0265266 0 0.00884292)
(0 0 0)
(0.0192239 0 -0.000466449)
(0.0363701 0 -0.000888432)
(0.0509652 0 -0.00125933)
(0.0632666 0 -0.00158777)
(0.0735172 0 -0.00188044)
(0.0819201 0 -0.00214174)
(0.0886511 0 -0.00237308)
(0.093871 0 -0.00257564)
(0.0977257 0 -0.00275033)
(0.100341 0 -0.0028955)
(0.101827 0 -0.00300859)
(0.102282 0 -0.00308593)
(0.101796 0 -0.00312278)
(0.100451 0 -0.00311325)
(0.0983261 0 -0.00305033)
(0.0954958 0 -0.00292589)
(0.0920336 0 -0.00273045)
(0.0880201 0 -0.00245432)
(0.0835415 0 -0.00208663)
(0.0786871 0 -0.00161467)
(0.0735587 0 -0.00102551)
(0.0682772 0 -0.00030673)
(0.0629822 0 0.000553613)
(0.0578543 0 0.00156346)
(0.0531361 0 0.00272019)
(0.0491364 0 0.00400395)
(0.0462127 0 0.00536689)
(0.0447848 0 0.00671057)
(0.0458357 0 0.00774611)
(0.0446902 0 0.00924571)
(0 0 0)
(0.0193423 0 -0.000583191)
(0.036601 0 -0.00111056)
(0.0513073 0 -0.00157428)
(0.0637257 0 -0.00198562)
(0.0741037 0 -0.00235277)
(0.0826454 0 -0.0026811)
(0.0895289 0 -0.00297319)
(0.0949213 0 -0.0032307)
(0.0989719 0 -0.00345439)
(0.101808 0 -0.00364273)
(0.103544 0 -0.00379295)
(0.104283 0 -0.00390103)
(0.104119 0 -0.00396159)
(0.10314 0 -0.00396804)
(0.101429 0 -0.00391256)
(0.0990688 0 -0.00378619)
(0.0961408 0 -0.00357881)
(0.0927315 0 -0.00327963)
(0.0889367 0 -0.00287696)
(0.0848585 0 -0.00235823)
(0.0806105 0 -0.00171089)
(0.0763345 0 -0.000924825)
(0.0721937 0 7.49445e-06)
(0.0683714 0 0.00108833)
(0.0651179 0 0.0023048)
(0.0627837 0 0.003616)
(0.0617967 0 0.00493689)
(0.0625545 0 0.00613578)
(0.0658327 0 0.00688769)
(0.0662867 0 0.00815547)
(0 0 0)
(0.0194825 0 -0.000699495)
(0.0368737 0 -0.00133223)
(0.0517157 0 -0.00188923)
(0.0642769 0 -0.00238407)
(0.0748067 0 -0.00282648)
(0.0835135 0 -0.00322255)
(0.0905808 0 -0.00357649)
(0.0961808 0 -0.00389116)
(0.100465 0 -0.00416697)
(0.103565 0 -0.00440256)
(0.1056 0 -0.00459527)
(0.106677 0 -0.004741)
(0.106897 0 -0.00483415)
(0.106352 0 -0.00486783)
(0.105133 0 -0.00483392)
(0.103331 0 -0.00472321)
(0.101039 0 -0.0045266)
(0.0983536 0 -0.00423286)
(0.0953727 0 -0.00382962)
(0.0922174 0 -0.00330671)
(0.0890157 0 -0.00265393)
(0.0859215 0 -0.00186435)
(0.0831214 0 -0.000937941)
(0.0808284 0 0.000115527)
(0.0792972 0 0.00126986)
(0.0788562 0 0.0024673)
(0.0799755 0 0.00358714)
(0.0830832 0 0.00445793)
(0.0886503 0 0.00475522)
(0.0905988 0 0.00566582)
(0 0 0)
(0.0196475 0 -0.000815166)
(0.0371923 0 -0.00155289)
(0.0521889 0 -0.00220317)
(0.0649137 0 -0.00278181)
(0.0756173 0 -0.00330023)
(0.0845149 0 -0.00376585)
(0.0917972 0 -0.00418419)
(0.0976382 0 -0.00455882)
(0.102192 0 -0.00489039)
(0.105596 0 -0.00517794)
(0.107973 0 -0.00541923)
(0.109439 0 -0.00561045)
(0.110099 0 -0.00574615)
(0.110052 0 -0.00581961)
(0.109398 0 -0.00582308)
(0.108235 0 -0.00574815)
(0.10667 0 -0.00558649)
(0.104806 0 -0.00532766)
(0.102751 0 -0.00496076)
(0.100647 0 -0.00447938)
(0.0986445 0 -0.00387851)
(0.0968995 0 -0.00315541)
(0.0956066 0 -0.00231733)
(0.0950102 0 -0.00138766)
(0.0953943 0 -0.000412355)
(0.0970496 0 0.000535441)
(0.100402 0 0.00131434)
(0.105872 0 0.00171878)
(0.113686 0 0.00144597)
(0.117045 0 0.00192467)
(0 0 0)
(0.019828 0 -0.00092996)
(0.0375488 0 -0.00177224)
(0.0527217 0 -0.00251574)
(0.06563 0 -0.00317845)
(0.0765302 0 -0.00377378)
(0.085644 0 -0.00431086)
(0.0931677 0 -0.00479615)
(0.0992782 0 -0.00523368)
(0.104134 0 -0.00562487)
(0.107876 0 -0.00596931)
(0.110637 0 -0.00626561)
(0.112536 0 -0.00651069)
(0.113685 0 -0.00669952)
(0.114192 0 -0.00682606)
(0.114163 0 -0.0068833)
(0.113713 0 -0.00686545)
(0.112955 0 -0.00676484)
(0.111997 0 -0.00657222)
(0.110971 0 -0.0062812)
(0.110027 0 -0.00588883)
(0.109333 0 -0.00539564)
(0.109069 0 -0.00480792)
(0.109445 0 -0.00414303)
(0.110698 0 -0.00343322)
(0.113129 0 -0.00274286)
(0.117033 0 -0.00216556)
(0.122714 0 -0.00184671)
(0.13051 0 -0.00200488)
(0.140477 0 -0.00290996)
(0.145172 0 -0.0028806)
(0 0 0)
(0.0200224 0 -0.00104381)
(0.0379403 0 -0.00199043)
(0.0533099 0 -0.00282724)
(0.0664204 0 -0.00357445)
(0.0775378 0 -0.00424765)
(0.0868898 0 -0.00485762)
(0.0946782 0 -0.00541189)
(0.101084 0 -0.00591529)
(0.106269 0 -0.00637007)
(0.11038 0 -0.00677638)
(0.113558 0 -0.00713419)
(0.115929 0 -0.00744171)
(0.11761 0 -0.0076945)
(0.118718 0 -0.00788779)
(0.119368 0 -0.00801621)
(0.119687 0 -0.00807602)
(0.119795 0 -0.00806158)
(0.119814 0 -0.00796676)
(0.1199 0 -0.00779128)
(0.120212 0 -0.00753652)
(0.120919 0 -0.00720762)
(0.122229 0 -0.00682053)
(0.124384 0 -0.00640643)
(0.12762 0 -0.00600897)
(0.132211 0 -0.00570053)
(0.138451 0 -0.00559291)
(0.146532 0 -0.00582912)
(0.156642 0 -0.00661659)
(0.168642 0 -0.00817527)
(0.174611 0 -0.0085953)
(0 0 0)
(0.0202363 0 -0.0011568)
(0.0383673 0 -0.00220693)
(0.0539468 0 -0.00313638)
(0.0672747 0 -0.00396805)
(0.0786269 0 -0.00471973)
(0.0882358 0 -0.00540373)
(0.0963084 0 -0.00602882)
(0.10303 0 -0.00660085)
(0.108568 0 -0.00712308)
(0.113076 0 -0.00759687)
(0.116702 0 -0.00802345)
(0.119576 0 -0.00840198)
(0.121824 0 -0.00872931)
(0.123569 0 -0.00900261)
(0.124941 0 -0.00921928)
(0.126071 0 -0.00937693)
(0.127089 0 -0.00947293)
(0.128138 0 -0.00950662)
(0.129383 0 -0.00948221)
(0.131003 0 -0.00940818)
(0.133192 0 -0.00929907)
(0.136154 0 -0.00917638)
(0.14015 0 -0.00908259)
(0.14545 0 -0.00907828)
(0.152281 0 -0.00923793)
(0.160906 0 -0.00968063)
(0.171438 0 -0.0105444)
(0.183875 0 -0.012004)
(0.197782 0 -0.0142067)
(0.205032 0 -0.0150826)
(0 0 0)
(0.0204629 0 -0.00126849)
(0.0388174 0 -0.0024208)
(0.0546219 0 -0.00344219)
(0.0681841 0 -0.00435837)
(0.0797866 0 -0.00518899)
(0.0896683 0 -0.00594802)
(0.0980417 0 -0.00664562)
(0.105098 0 -0.00728887)
(0.111008 0 -0.00788232)
(0.115936 0 -0.00842906)
(0.120033 0 -0.00893119)
(0.123435 0 -0.00938866)
(0.126272 0 -0.00980038)
(0.128679 0 -0.0101658)
(0.130798 0 -0.0104854)
(0.132766 0 -0.0107596)
(0.134724 0 -0.010989)
(0.136835 0 -0.0111799)
(0.139273 0 -0.0113408)
(0.142223 0 -0.0114856)
(0.145911 0 -0.0116409)
(0.150564 0 -0.0118394)
(0.156429 0 -0.0121281)
(0.163794 0 -0.0125803)
(0.172888 0 -0.0132796)
(0.183929 0 -0.0143415)
(0.196951 0 -0.0158873)
(0.211724 0 -0.0180397)
(0.227428 0 -0.020852)
(0.236135 0 -0.0221736)
(0 0 0)
(0.0206985 0 -0.00137833)
(0.039286 0 -0.00263161)
(0.0553299 0 -0.00374463)
(0.0691415 0 -0.00474537)
(0.0810078 0 -0.00565536)
(0.0911758 0 -0.0064904)
(0.099864 0 -0.00726213)
(0.107269 0 -0.00797903)
(0.113568 0 -0.00864706)
(0.11893 0 -0.00927093)
(0.123513 0 -0.00985399)
(0.127456 0 -0.0103974)
(0.130897 0 -0.0109023)
(0.13398 0 -0.0113704)
(0.136856 0 -0.0118061)
(0.139675 0 -0.0122131)
(0.142583 0 -0.0125963)
(0.145759 0 -0.012967)
(0.149392 0 -0.0133415)
(0.153675 0 -0.0137401)
(0.158837 0 -0.0141955)
(0.165146 0 -0.0147564)
(0.172842 0 -0.0154761)
(0.182207 0 -0.0164342)
(0.19351 0 -0.0177275)
(0.206926 0 -0.0194618)
(0.222411 0 -0.0217285)
(0.239504 0 -0.0245779)
(0.256937 0 -0.0279532)
(0.26766 0 -0.0297132)
(0 0 0)
(0.0209448 0 -0.00148628)
(0.0397761 0 -0.00283925)
(0.0560683 0 -0.00404309)
(0.0701383 0 -0.00512797)
(0.0822787 0 -0.00611746)
(0.0927433 0 -0.00702916)
(0.101757 0 -0.0078763)
(0.10952 0 -0.00866879)
(0.116218 0 -0.00941422)
(0.122025 0 -0.0101189)
(0.127101 0 -0.0107876)
(0.131592 0 -0.0114229)
(0.135643 0 -0.0120284)
(0.139405 0 -0.0126088)
(0.143036 0 -0.013171)
(0.146695 0 -0.0137231)
(0.150545 0 -0.0142761)
(0.154765 0 -0.0148449)
(0.159549 0 -0.0154512)
(0.165117 0 -0.0161264)
(0.171692 0 -0.0169087)
(0.179548 0 -0.0178557)
(0.188954 0 -0.0190362)
(0.200179 0 -0.0205335)
(0.213506 0 -0.0224523)
(0.229083 0 -0.0248884)
(0.246824 0 -0.0279006)
(0.266097 0 -0.0314513)
(0.28523 0 -0.0353604)
(0.299393 0 -0.0375578)
(0 0 0)
(0.0211996 0 -0.00159223)
(0.0402828 0 -0.00304324)
(0.0568303 0 -0.00433667)
(0.0711656 0 -0.00550497)
(0.0835874 0 -0.00657376)
(0.0943557 0 -0.00756243)
(0.103701 0 -0.0084858)
(0.11183 0 -0.00935529)
(0.118932 0 -0.0101802)
(0.125186 0 -0.0109688)
(0.130758 0 -0.0117267)
(0.135794 0 -0.0124582)
(0.14045 0 -0.0131701)
(0.144887 0 -0.0138707)
(0.14926 0 -0.0145683)
(0.153733 0 -0.015274)
(0.158483 0 -0.0160053)
(0.163698 0 -0.0167832)
(0.169565 0 -0.0176325)
(0.176314 0 -0.0185931)
(0.184184 0 -0.019714)
(0.193423 0 -0.0210551)
(0.204314 0 -0.0226986)
(0.21711 0 -0.0247344)
(0.232071 0 -0.0272717)
(0.249305 0 -0.030402)
(0.26871 0 -0.0341707)
(0.28955 0 -0.0384528)
(0.310198 0 -0.0429677)
(0.331151 0 -0.0455458)
(0 0 0)
(0.0214628 0 -0.00169674)
(0.0408058 0 -0.00324466)
(0.0576157 0 -0.00462694)
(0.0722234 0 -0.00587838)
(0.0849336 0 -0.00702661)
(0.0960124 0 -0.00809283)
(0.105695 0 -0.00909347)
(0.114194 0 -0.0100414)
(0.121705 0 -0.010948)
(0.128411 0 -0.0118233)
(0.134477 0 -0.0126741)
(0.140057 0 -0.0135067)
(0.145313 0 -0.0143305)
(0.150406 0 -0.0151557)
(0.155499 0 -0.0159949)
(0.160758 0 -0.0168622)
(0.166356 0 -0.0177768)
(0.172488 0 -0.0187668)
(0.179349 0 -0.0198638)
(0.187157 0 -0.0211111)
(0.196148 0 -0.0225651)
(0.206538 0 -0.0242878)
(0.218581 0 -0.026366)
(0.232503 0 -0.0288974)
(0.248477 0 -0.0319914)
(0.266504 0 -0.0357444)
(0.286339 0 -0.0402349)
(0.30698 0 -0.0454118)
(0.326926 0 -0.0513941)
(0.362941 0 -0.0535944)
(0 0 0)
(0.00937787 0 0)
(0.0193489 0 0)
(0.0356737 0 0)
(0.0570259 0 0)
(0.0811884 0 0)
(0.105787 0 0)
(0.128833 0 0)
(0.14912 0 0)
(0.166168 0 0)
(0.179941 0 0)
(0.190642 0 0)
(0.198554 0 0)
(0.203953 0 0)
(0.207083 0 0)
(0.208142 0 0)
(0.207274 0 0)
(0.204575 0 0)
(0.200108 0 0)
(0.1939 0 0)
(0.185946 0 0)
(0.17623 0 0)
(0.164728 0 0)
(0.151362 0 0)
(0.136069 0 0)
(0.118805 0 0)
(0.0994498 0 0)
(0.0778959 0 0)
(0.0541045 0 0)
(0.0279882 0 0)
(0 0 0)
(0.00332583 0 -0.00449999)
(0.0120777 0 -0.00486806)
(0.0222386 0 -0.00548191)
(0.0386382 0 -0.00618805)
(0.0598939 0 -0.00687212)
(0.083837 0 -0.00743867)
(0.108132 0 -0.00783214)
(0.130833 0 -0.0080153)
(0.15079 0 -0.00801311)
(0.167539 0 -0.00786474)
(0.181053 0 -0.00761177)
(0.191541 0 -0.00728614)
(0.19928 0 -0.00690991)
(0.20454 0 -0.00650468)
(0.207558 0 -0.00608706)
(0.208529 0 -0.00568287)
(0.20759 0 -0.00528008)
(0.204834 0 -0.00487171)
(0.200322 0 -0.0044758)
(0.194079 0 -0.00409151)
(0.186096 0 -0.00371306)
(0.176355 0 -0.00334775)
(0.164833 0 -0.00299213)
(0.151452 0 -0.00264359)
(0.136148 0 -0.00229518)
(0.118871 0 -0.00194423)
(0.0995025 0 -0.00158942)
(0.0779412 0 -0.00122399)
(0.0541465 0 -0.000840713)
(0.0280144 0 -0.000432466)
(0 0 0)
(0.0112485 0 -0.00906915)
(0.0199626 0 -0.00985603)
(0.0307152 0 -0.0110818)
(0.0473156 0 -0.0124547)
(0.0683017 0 -0.0137526)
(0.0916168 0 -0.014812)
(0.11501 0 -0.0155166)
(0.136705 0 -0.0158312)
(0.155685 0 -0.0157942)
(0.171553 0 -0.0154756)
(0.184319 0 -0.0149623)
(0.194184 0 -0.0143145)
(0.201412 0 -0.0135762)
(0.206261 0 -0.0127819)
(0.208953 0 -0.0119693)
(0.209663 0 -0.0111657)
(0.208515 0 -0.0103641)
(0.205593 0 -0.00957032)
(0.200948 0 -0.00879713)
(0.194602 0 -0.00804571)
(0.186533 0 -0.00731063)
(0.176721 0 -0.00659508)
(0.165138 0 -0.00589643)
(0.151712 0 -0.0052101)
(0.136376 0 -0.00452462)
(0.119063 0 -0.00383501)
(0.0996586 0 -0.00313653)
(0.0780745 0 -0.00241543)
(0.0542526 0 -0.00165949)
(0.0280723 0 -0.000854468)
(0 0 0)
(0.0238725 0 -0.0139102)
(0.0325566 0 -0.0150979)
(0.0441919 0 -0.0169085)
(0.061013 0 -0.0188668)
(0.0815495 0 -0.0206767)
(0.103849 0 -0.022107)
(0.12581 0 -0.0229983)
(0.145933 0 -0.0233497)
(0.163388 0 -0.0232199)
(0.17789 0 -0.0227072)
(0.189489 0 -0.0219282)
(0.198373 0 -0.0209589)
(0.2048 0 -0.0198708)
(0.209005 0 -0.0187155)
(0.211183 0 -0.0175354)
(0.21148 0 -0.0163558)
(0.21 0 -0.0151829)
(0.206813 0 -0.0140303)
(0.201955 0 -0.0129047)
(0.195439 0 -0.0118095)
(0.187235 0 -0.0107418)
(0.17731 0 -0.00969648)
(0.165634 0 -0.00867307)
(0.152135 0 -0.00766553)
(0.136738 0 -0.00666093)
(0.119363 0 -0.00565154)
(0.0999074 0 -0.00462538)
(0.0782804 0 -0.00356434)
(0.0544029 0 -0.00245072)
(0.0281514 0 -0.00126276)
(0 0 0)
(0.0405296 0 -0.0191728)
(0.0492852 0 -0.0207098)
(0.0619069 0 -0.0230492)
(0.0789005 0 -0.0254905)
(0.0987896 0 -0.027677)
(0.119695 0 -0.0293241)
(0.13979 0 -0.0302726)
(0.157886 0 -0.0305491)
(0.173396 0 -0.0302598)
(0.186148 0 -0.0295194)
(0.196236 0 -0.0284588)
(0.20386 0 -0.0271787)
(0.209258 0 -0.0257621)
(0.212631 0 -0.0242723)
(0.214135 0 -0.0227513)
(0.21389 0 -0.0212281)
(0.211974 0 -0.0197173)
(0.208437 0 -0.0182326)
(0.203297 0 -0.0167801)
(0.196553 0 -0.0153655)
(0.188169 0 -0.0139889)
(0.178097 0 -0.0126386)
(0.166298 0 -0.0113136)
(0.152696 0 -0.0100073)
(0.137209 0 -0.00870481)
(0.119751 0 -0.00739349)
(0.100224 0 -0.0060557)
(0.078532 0 -0.00467017)
(0.0545829 0 -0.00321348)
(0.0282471 0 -0.0016565)
(0 0 0)
(0.0606191 0 -0.0249295)
(0.0694627 0 -0.0267414)
(0.0830438 0 -0.0295387)
(0.100114 0 -0.0323526)
(0.119117 0 -0.0347563)
(0.138283 0 -0.0364473)
(0.156162 0 -0.0373145)
(0.171895 0 -0.0374124)
(0.18515 0 -0.036894)
(0.19587 0 -0.0358883)
(0.204204 0 -0.0345334)
(0.210372 0 -0.032954)
(0.214572 0 -0.0312317)
(0.216966 0 -0.0294317)
(0.217676 0 -0.0275982)
(0.216788 0 -0.0257629)
(0.214354 0 -0.0239436)
(0.210399 0 -0.022156)
(0.204923 0 -0.0204076)
(0.197903 0 -0.0187029)
(0.189298 0 -0.017044)
(0.179048 0 -0.0154175)
(0.167095 0 -0.0138177)
(0.153363 0 -0.0122359)
(0.137765 0 -0.0106552)
(0.120209 0 -0.00905859)
(0.100595 0 -0.00742508)
(0.0788211 0 -0.00572992)
(0.0547868 0 -0.00394478)
(0.0283553 0 -0.00203408)
(0 0 0)
(0.0835297 0 -0.0311929)
(0.0924564 0 -0.0332083)
(0.106882 0 -0.0363783)
(0.123835 0 -0.0394269)
(0.141658 0 -0.0418734)
(0.158777 0 -0.0434372)
(0.174154 0 -0.0440786)
(0.187281 0 -0.0438996)
(0.198063 0 -0.0430831)
(0.206577 0 -0.0417812)
(0.213023 0 -0.0401336)
(0.21761 0 -0.0382643)
(0.220501 0 -0.0362558)
(0.221821 0 -0.0341718)
(0.221655 0 -0.0320553)
(0.220057 0 -0.0299406)
(0.217048 0 -0.0278476)
(0.212628 0 -0.0257917)
(0.206774 0 -0.0237834)
(0.199445 0 -0.0218231)
(0.190584 0 -0.0199104)
(0.180126 0 -0.0180338)
(0.167998 0 -0.0161834)
(0.154116 0 -0.0143467)
(0.138389 0 -0.012506)
(0.120721 0 -0.0106413)
(0.101006 0 -0.00872859)
(0.0791377 0 -0.00673968)
(0.0550077 0 -0.00464191)
(0.0284716 0 -0.00239408)
(0 0 0)
(0.108725 0 -0.0379376)
(0.117737 0 -0.040103)
(0.132818 0 -0.0435436)
(0.149353 0 -0.0466592)
(0.165637 0 -0.0489544)
(0.180397 0 -0.0502187)
(0.193029 0 -0.0504986)
(0.203382 0 -0.0499528)
(0.211576 0 -0.0487862)
(0.217811 0 -0.0471672)
(0.222313 0 -0.0452298)
(0.225265 0 -0.0430863)
(0.226797 0 -0.0408143)
(0.227 0 -0.0384755)
(0.225922 0 -0.0361116)
(0.22358 0 -0.0337549)
(0.219967 0 -0.0314287)
(0.215053 0 -0.0291443)
(0.208794 0 -0.0269107)