/*--------------------------------*- C++ -*----------------------------------*\
| =========                 |                                                 |
| \\      /  F ield         | OpenFOAM: The Open Source CFD Toolbox           |
|  \\    /   O peration     | Version:  dev                                   |
|   \\  /    A nd           | Web:      www.OpenFOAM.org                      |
|    \\/     M anipulation  |                                                 |
\*---------------------------------------------------------------------------*/
FoamFile
{
    version     2.0;
    format      ascii;
    class       volVectorField;
    location    "1";
    object      U;
}
// * * * * * * * * * * * * * * * * * * * * * * * * * * * * * * * * * * * * * //

dimensions      [0 1 -1 0 0 0 0];

internalField   nonuniform List<vector> 
2790
(
(9.93118 0 0.0187812)
(9.8611 0 0.0259632)
(9.76598 0 0.0306976)
(9.64963 3.38139e-20 0.0356127)
(9.51875 2.11755e-20 0.0407515)
(9.37524 0 0.0460676)
(9.21842 3.07128e-20 0.0516747)
(9.04739 0 0.0577076)
(8.86142 1.67075e-20 0.0642795)
(8.65977 1.74297e-20 0.0714939)
(8.4416 -3.65218e-20 0.0794585)
(8.20589 1.14083e-19 0.0882902)
(7.95154 -1.58593e-19 0.0981161)
(7.67731 8.24446e-20 0.109073)
(7.38191 -8.68952e-20 0.121309)
(7.064 8.99502e-20 0.134977)
(6.7222 0 0.150239)
(6.35522 0 0.167258)
(5.96182 0 0.186187)
(5.54094 2.16665e-19 0.207143)
(5.09185 2.28416e-19 0.230214)
(4.61428 4.67454e-19 0.255446)
(4.10852 1.22268e-19 0.282818)
(3.57561 0 0.312218)
(3.0175 -2.63386e-19 0.343425)
(2.43723 -2.71688e-19 0.376011)
(1.83889 0 0.409015)
(1.22769 -2.25723e-18 0.438932)
(0.586068 2.22313e-18 0.436955)
(0.023689 -1.19814e-18 0.0782751)
(9.996 0 0.0370349)
(9.98653 0 0.0531488)
(9.95338 0 0.0646427)
(9.8969 -5.40012e-20 0.0770857)
(9.82282 -5.12154e-23 0.0905601)
(9.73323 5.86558e-20 0.104872)
(9.62777 3.07435e-20 0.120228)
(9.50571 -6.35814e-20 0.136912)
(9.36643 -1.66149e-20 0.155175)
(9.20933 -1.73203e-20 0.175252)
(9.03365 0 0.197387)
(8.83847 0 0.221847)
(8.62276 0 0.248923)
(8.38534 3.29296e-19 0.278918)
(8.12496 -3.51259e-19 0.31215)
(7.84025 -2.22972e-20 0.348931)
(7.5298 3.74574e-19 0.389558)
(7.19223 -3.38636e-19 0.434301)
(6.8262 8.16472e-19 0.483352)
(6.4304 -1.69543e-18 0.536754)
(6.00372 8.79625e-19 0.594378)
(5.5454 0 0.655875)
(5.05505 1.19317e-19 0.720587)
(4.5328 0 0.787435)
(3.97923 2.32016e-18 0.854841)
(3.39543 -1.84441e-18 0.920457)
(2.78263 3.79735e-18 0.980312)
(2.14212 -4.36879e-18 1.02595)
(1.4361 -5.40169e-19 1.04195)
(0.859495 -1.16464e-18 0.997501)
(9.99329 1.1942e-20 0.0377906)
(9.9814 1.24033e-20 0.0609177)
(9.95087 7.74802e-20 0.0800266)
(9.89945 -1.07725e-19 0.100535)
(9.83165 -5.62975e-20 0.122822)
(9.74966 1.17112e-19 0.146711)
(9.65337 -1.21891e-19 0.17245)
(9.54214 0 0.200432)
(9.41549 0 0.23104)
(9.27292 0 0.264654)
(9.11382 2.8882e-19 0.301673)
(8.9374 -5.99803e-19 0.342536)
(8.74279 3.11299e-19 0.387729)
(8.52897 3.27232e-19 0.437771)
(8.29483 3.54885e-19 0.493211)
(8.03912 -6.82945e-19 0.554606)
(7.76051 -7.88193e-19 0.622495)
(7.45758 1.49189e-18 0.697377)
(7.12897 -7.98742e-19 0.779666)
(6.77316 0 0.869588)
(6.38858 0 0.967093)
(5.9737 -2.25769e-19 1.0718)
(5.52703 -2.12175e-18 1.18284)
(5.04709 2.42195e-18 1.29868)
(4.53205 0 1.41694)
(3.97924 0 1.53419)
(3.38366 1.0484e-18 1.64559)
(2.73702 0 1.74305)
(1.99553 5.24908e-19 1.8162)
(1.23419 2.28188e-18 1.90437)
(9.99139 0 0.040811)
(9.97708 -1.97804e-19 0.0726136)
(9.94641 -1.03206e-19 0.100776)
(9.89611 1.07614e-19 0.12973)
(9.82976 -1.12092e-19 0.160487)
(9.74957 -5.84551e-20 0.193202)
(9.65562 -6.11734e-20 0.228253)
(9.54746 3.17041e-19 0.266164)
(9.42471 1.333e-19 0.307467)
(9.28705 -5.50289e-19 0.352691)
(9.13404 2.13971e-19 0.402391)
(8.96513 -3.36837e-19 0.457168)
(8.77971 -3.14565e-19 0.517681)
(8.57704 6.49884e-19 0.584648)
(8.35632 0 0.658836)
(8.11667 0 0.74105)
(7.85706 4.57777e-20 0.832096)
(7.57639 0 0.932746)
(7.27349 -1.97802e-19 1.04372)
(6.94707 -2.05703e-19 1.1656)
(6.59551 -1.7215e-18 1.29865)
(6.21696 -1.32547e-18 1.44278)
(5.80917 0 1.59738)
(5.36936 -4.76284e-19 1.76116)
(4.89362 -4.87112e-19 1.93188)
(4.37603 -4.01091e-18 2.10611)
(3.8069 3.53827e-18 2.2796)
(3.17195 0 2.44739)
(2.4522 0 2.58741)
(1.5634 0 2.81705)
(9.99038 2.38075e-20 0.0453816)
(9.97461 1.23517e-19 0.0844754)
(9.94371 5.14561e-20 0.12045)
(9.89425 0 0.156939)
(9.82919 1.11931e-19 0.19544)
(9.75058 0 0.236447)
(9.6586 1.213e-19 0.280436)
(9.55287 -1.8951e-19 0.328)
(9.43307 2.63945e-19 0.379761)
(9.29896 -2.73044e-19 0.436345)
(9.1502 7.13224e-20 0.498408)
(8.9864 -6.32643e-19 0.566651)
(8.8071 6.15276e-19 0.64185)
(8.61179 1.50302e-20 0.724858)
(8.39992 6.71739e-19 0.816603)
(8.17089 7.05053e-19 0.918066)
(7.92401 -1.53166e-18 1.03027)
(7.6585 1.51202e-18 1.15422)
(7.37349 -2.93218e-18 1.29092)
(7.06796 3.45101e-18 1.44131)
(6.74056 -1.67638e-18 1.60611)
(6.38944 -2.1842e-19 1.78569)
(6.01208 -3.61336e-18 1.97996)
(5.60496 3.69115e-18 2.18823)
(5.16298 4.286e-18 2.40897)
(4.67852 -4.34205e-18 2.63944)
(4.14022 0 2.87529)
(3.52828 0 3.11359)
(2.8708 0 3.30213)
(1.89475 2.64484e-19 3.64615)
(9.98985 2.37583e-20 0.0507126)
(9.97332 -2.21622e-19 0.0963819)
(9.94243 0 0.139725)
(9.89396 -1.0727e-19 0.183728)
(9.83046 4.46192e-19 0.230023)
(9.75376 -1.15973e-19 0.279316)
(9.66407 -1.73687e-22 0.332163)
(9.56109 -2.52262e-19 0.389207)
(9.44455 2.61225e-19 0.451152)
(9.31422 1.36099e-19 0.518714)
(9.16985 0 0.592638)
(9.01114 -5.17929e-19 0.673721)
(8.83772 6.49054e-19 0.762837)
(8.64922 -5.97118e-20 0.860955)
(8.44526 1.33565e-18 0.969141)
(8.22541 -1.39276e-18 1.08853)
(7.98922 1.34154e-19 1.2203)
(7.73614 0 1.36568)
(7.46554 1.54655e-18 1.52593)
(7.17662 -4.99216e-18 1.70234)
(6.86827 3.49348e-18 1.89608)
(6.53882 0 2.10808)
(6.18578 0 2.33899)
(5.80539 4.06084e-18 2.58884)
(5.39207 3.25083e-18 2.8568)
(4.93761 -6.97872e-18 3.14071)
(4.43137 -2.33684e-19 3.43467)
(3.84444 7.50575e-18 3.73688)
(3.26142 -7.44456e-18 3.95251)
(2.22401 -2.43015e-19 4.37162)
(9.98959 0 0.0564099)
(9.9728 -2.45436e-19 0.108314)
(9.94225 -1.53622e-19 0.158637)
(9.89494 -1.06964e-19 0.209924)
(9.83322 -1.11543e-19 0.263778)
(9.75876 -2.3138e-19 0.321061)
(9.67175 1.20978e-19 0.382429)
(9.57194 -3.75923e-19 0.448596)
(9.45911 -2.62837e-19 0.520342)
(9.33309 1.08356e-18 0.598472)
(9.19365 -1.12649e-18 0.68381)
(9.04056 5.83261e-19 0.77723)
(8.87353 -3.80482e-20 0.879684)
(8.69229 1.30706e-18 0.992236)
(8.49654 4.99971e-21 1.11606)
(8.28597 2.94042e-20 1.25241)
(8.06028 -3.28709e-20 1.40265)
(7.81908 1.02891e-19 1.56816)
(7.56184 -1.50744e-18 1.75045)
(7.28793 3.91052e-19 1.95114)
(6.9964 3.03852e-18 2.17185)
(6.68573 1.83379e-19 2.41409)
(6.35363 -2.21647e-20 2.67923)
(5.99643 3.04024e-18 2.96817)
(5.60844 4.45953e-19 3.28065)
(5.18102 0 3.61458)
(4.70561 2.26681e-19 3.9612)
(4.13966 2.22744e-19 4.32053)
(3.62486 -7.1186e-18 4.5513)
(2.54232 7.945e-18 5.01684)
(9.98949 2.36409e-20 0.0622436)
(9.97281 3.67951e-19 0.120162)
(9.94289 1.02208e-19 0.177101)
(9.89694 1.06334e-19 0.235377)
(9.83723 -2.21478e-19 0.296525)
(9.76529 4.01104e-22 0.361517)
(9.68132 0 0.431102)
(9.58509 -2.49102e-19 0.506058)
(9.47645 5.19749e-19 0.587235)
(9.35525 -6.71653e-19 0.675515)
(9.22132 0 0.771798)
(9.07446 0 0.877021)
(8.91448 0 0.992209)
(8.74116 1.17616e-18 1.11851)
(8.55428 -2.59105e-18 1.2572)
(8.3536 1.31901e-18 1.40965)
(8.13894 0 1.57736)
(7.90999 -1.34863e-19 1.76191)
(7.6663 2.98042e-18 1.96505)
(7.40727 -2.65555e-19 2.18869)
(7.13206 2.13044e-20 2.43489)
(6.83925 3.0207e-18 2.70571)
(6.52678 0 3.00327)
(6.19113 0 3.32924)
(5.82674 6.73558e-18 3.68397)
(5.4242 -6.87335e-18 4.06524)
(4.97728 0 4.46051)
(4.42634 6.64844e-18 4.87325)
(3.96646 -6.03736e-18 5.11917)
(2.84713 7.64717e-18 5.62157)
(9.98951 0 0.0680659)
(9.97321 0 0.131807)
(9.94418 0 0.195041)
(9.89978 -1.06238e-19 0.259995)
(9.84229 3.3124e-19 0.328147)
(9.77316 2.29868e-19 0.400544)
(9.69256 0 0.478011)
(9.6003 7.45543e-19 0.561383)
(9.49627 -2.56631e-19 0.651574)
(9.38037 0 0.749541)
(9.25249 1.38446e-19 0.856254)
(9.11247 1.01061e-18 0.972709)
(8.96016 -1.18877e-18 1.09999)
(8.79545 -1.16226e-18 1.23933)
(8.61818 2.47828e-18 1.3921)
(8.42815 -1.29766e-18 1.55978)
(8.22526 0 1.744)
(8.00929 4.42282e-20 1.94654)
(7.77983 -5.65897e-21 2.16942)
(7.53634 1.17092e-19 2.41489)
(7.27803 -3.07759e-18 2.68535)
(7.00353 -3.13003e-18 2.98345)
(6.71084 -6.42405e-18 3.31197)
(6.39652 6.47919e-18 3.67342)
(6.05529 1.03078e-19 4.06884)
(5.67667 0 4.49608)
(5.25667 0 4.93868)
(4.71625 0 5.40542)
(4.29975 -7.41996e-18 5.6764)
(3.14501 4.44382e-20 6.22452)
(9.98958 0 0.0737751)
(9.97388 -4.8749e-20 0.143141)
(9.946 5.07181e-20 0.212373)
(9.90337 4.22297e-19 0.283686)
(9.84833 -4.39916e-19 0.358525)
(9.78229 2.28208e-19 0.437996)
(9.70537 -8.03365e-22 0.522985)
(9.61743 2.46029e-19 0.614372)
(9.51839 -2.56166e-19 0.71313)
(9.40824 0 0.820282)
(9.28689 -1.37725e-19 0.936871)
(9.15424 -1.00025e-18 1.06394)
(9.0102 1.17619e-18 1.20263)
(8.85473 0 1.35423)
(8.68775 7.90307e-20 1.52023)
(8.50917 1.38786e-18 1.70222)
(8.31891 -1.25537e-18 1.90196)
(8.11673 0 2.12141)
(7.9024 5.57479e-21 2.3629)
(7.67546 -2.28782e-20 2.62899)
(7.43518 2.89738e-18 2.92251)
(7.18023 2.93899e-18 3.24667)
(6.90855 2.03874e-19 3.60494)
(6.6167 0 4.00069)
(6.29967 0 4.43581)
(5.9458 -7.78765e-19 4.90881)
(5.55338 -7.77312e-19 5.40015)
(5.02282 0 5.92561)
(4.64335 -1.57429e-18 6.23907)
(3.44935 0 6.8542)
(9.98968 4.68409e-20 0.0793057)
(9.97473 -4.8532e-20 0.154073)
(9.94823 0 0.229003)
(9.90761 -2.10614e-19 0.306341)
(9.85525 4.37832e-19 0.387528)
(9.79257 2.27176e-19 0.473722)
(9.71965 -5.9126e-22 0.565854)
(9.63634 7.35741e-19 0.664834)
(9.54265 -2.53308e-19 0.771674)
(9.43862 0 0.887468)
(9.32423 0 1.01334)
(9.19944 -2.81407e-19 1.15038)
(9.06422 0 1.29972)
(8.91858 0 1.46277)
(8.76254 -1.09182e-18 1.6411)
(8.5961 3.76727e-18 1.83641)
(8.41932 -6.78153e-20 2.05061)
(8.23187 -2.87047e-18 2.28586)
(8.03364 1.72855e-19 2.54468)
(7.82441 0 2.83003)
(7.60348 9.0921e-20 3.14517)
(7.3697 -5.79558e-18 3.49398)
(7.121 -5.67235e-19 3.88066)
(6.85408 -2.37214e-21 4.3095)
(6.56411 6.74203e-18 4.78344)
(6.23833 1.4967e-18 5.30256)
(5.87743 7.55112e-19 5.84628)
(5.36142 0 6.43868)
(5.01751 1.54903e-18 6.81993)
(3.77597 0 7.53528)
(9.9898 0 0.0846136)
(9.97572 0 0.164535)
(9.95077 -5.03276e-19 0.244847)
(9.91234 3.14556e-19 0.32786)
(9.86285 -6.53796e-19 0.415034)
(9.80376 -4.53159e-19 0.507575)
(9.73509 4.69693e-19 0.606452)
(9.65671 -1.2173e-18 0.712588)
(9.56868 -2.54696e-19 0.82701)
(9.47114 2.60338e-19 0.950877)
(9.36412 0 1.08541)
(9.24768 1.39851e-18 1.23172)
(9.12179 -8.62082e-19 1.39095)
(8.98653 -1.19165e-18 1.56458)
(8.84206 1.22027e-18 1.75429)
(8.68834 1.56908e-19 1.96181)
(8.5257 1.6108e-19 2.18929)
(8.35389 1.66324e-19 2.43906)
(8.17283 -1.70122e-19 2.71382)
(7.98252 0 3.01683)
(7.78244 0 3.3519)
(7.5717 5.33022e-18 3.7235)
(7.34856 -1.17874e-17 4.13664)
(7.11012 5.73689e-18 4.59665)
(6.85192 -7.21829e-19 5.1078)
(6.56063 -7.19474e-19 5.67294)
(6.23934 -5.64365e-18 6.27382)
(5.75098 4.32588e-18 6.94407)
(5.4466 0 7.42895)
(4.14962 0 8.3016)
(9.98994 -6.96475e-19 0.0896584)
(9.97687 -4.81632e-20 0.174463)
(9.95362 5.0202e-19 0.259838)
(9.91752 -1.04224e-19 0.348174)
(9.87106 -2.15914e-19 0.440958)
(9.81573 -4.50035e-19 0.539452)
(9.75153 2.31385e-19 0.64466)
(9.67832 9.66831e-19 0.757495)
(9.59626 -2.49667e-19 0.878972)
(9.5055 5.17436e-19 1.0103)
(9.40619 1.33849e-18 1.15282)
(9.29854 -1.10132e-18 1.30766)
(9.18245 -2.85225e-19 1.47596)
(9.05801 -2.92166e-19 1.65927)
(8.92571 -1.51113e-19 1.85935)
(8.78543 -1.55189e-19 2.078)
(8.63747 -4.74842e-19 2.31746)
(8.48199 0 2.58029)
(8.31906 -3.28824e-19 2.86936)
(8.14884 -3.34014e-19 3.18817)
(7.97117 0 3.54101)
(7.78564 3.44973e-19 3.93287)
(7.59109 6.92847e-19 4.3695)
(7.38549 0 4.85732)
(7.16539 0 5.40232)
(6.91822 0 6.01112)
(6.65001 0 6.67234)
(6.21475 -5.27861e-18 7.43072)
(5.97019 9.59288e-18 8.06521)
(4.61641 -5.93131e-18 9.20298)
(9.9901 7.41653e-19 0.0944021)
(9.97814 -9.60083e-20 0.183792)
(9.95677 -1.39009e-22 0.273913)
(9.92316 -1.04154e-19 0.367217)
(9.87985 8.62027e-19 0.465226)
(9.8284 4.4611e-19 0.569264)
(9.76883 -2.32802e-19 0.680361)
(9.70104 0 0.799405)
(9.62526 -4.98193e-19 0.927378)
(9.54156 1.02466e-18 1.06556)
(9.45016 -1.05742e-18 1.21535)
(9.35162 0 1.37792)
(9.24567 -1.12598e-18 1.55445)
(9.1324 1.44262e-18 1.74647)
(9.01269 -2.95554e-19 1.95581)
(8.88645 2.1324e-18 2.18441)
(8.75383 -1.85963e-18 2.43453)
(8.61527 3.15424e-19 2.70881)
(8.47128 6.44326e-19 3.01029)
(8.32222 -3.21128e-19 3.34264)
(8.16851 0 3.71048)
(8.01036 0 4.11918)
(7.84751 0 4.57499)
(7.67948 -5.24895e-18 5.08525)
(7.50485 -1.23892e-18 5.65762)
(7.31416 5.18332e-18 6.30276)
(7.11882 -5.02446e-18 7.01983)
(6.77872 6.39679e-18 7.86657)
(6.65112 1.30535e-18 8.69361)
(5.26003 0 10.3091)
(9.99025 0 0.0988154)
(9.97951 0 0.192463)
(9.9602 0 0.286998)
(9.92923 2.06865e-19 0.384925)
(9.88913 -4.29067e-19 0.487779)
(9.84162 -6.67462e-19 0.596936)
(9.78683 0 0.713445)
(9.72474 -4.75567e-19 0.838154)
(9.65557 7.37926e-19 0.972056)
(9.57915 -7.61835e-19 1.11649)
(9.49594 1.31211e-18 1.27286)
(9.40671 -1.07694e-18 1.44236)
(9.31105 0 1.62624)
(9.20937 0 1.82599)
(9.10247 -1.16715e-18 2.04344)
(8.99039 3.88269e-18 2.28071)
(8.87351 -2.99668e-19 2.54009)
(8.75238 -4.65184e-18 2.82408)
(8.6281 4.71286e-18 3.13585)
(8.50121 -1.90221e-18 3.47913)
(8.37272 0 3.85864)
(8.2437 0 4.27983)
(8.11526 1.26739e-18 4.74911)
(7.98899 5.04136e-18 5.27401)
(7.86673 1.19637e-18 5.86304)
(7.74528 -1.10358e-17 6.52937)
(7.64644 4.88852e-18 7.2817)
(7.45943 2.31638e-18 8.18525)
(7.56779 -3.5516e-18 9.18774)
(6.2088 0 11.7458)
(0.345504 0 -0.260749)
(0.641743 -8.92796e-19 -0.148541)
(0.862213 8.1455e-19 -0.0692093)
(1.01385 0 -0.0277199)
(1.07006 0 0.00169842)
(1.00806 3.7029e-19 0.0336394)
(0.832907 -3.76636e-19 0.0660299)
(0.563504 0 0.0937062)
(0.22021 0 0.114367)
(-0.172213 -8.79862e-20 0.12722)
(-0.591755 -8.77821e-20 0.133649)
(-1.02911 -8.17942e-20 0.134895)
(-1.47007 7.46957e-20 0.131116)
(-1.90277 -1.45381e-19 0.122863)
(-2.31632 0 0.110627)
(-2.70025 0 0.0948118)
(-3.04454 0 0.07587)
(-3.34017 1.18197e-20 0.0540866)
(-3.57796 -1.1648e-20 0.0296891)
(-3.74873 3.95285e-20 0.00293739)
(-3.84386 0 -0.0264492)
(-3.85503 3.73984e-21 -0.0599251)
(-3.77799 -3.69576e-21 -0.100391)
(-3.5878 2.48138e-20 -0.150442)
(-3.27356 0 -0.210347)
(-2.81196 0 -0.283018)
(-2.15764 1.01035e-21 -0.378893)
(-1.28173 1.33575e-20 -0.525829)
(-0.281429 1.03035e-20 -0.766692)
(1.45549 -4.18177e-21 -1.07938)
(0.0563496 0 -0.383186)
(0.226846 0 -0.238977)
(0.317895 0 -0.144759)
(0.307478 1.54077e-18 -0.0575824)
(0.186893 -1.52297e-18 0.0362431)
(-0.0324585 7.45609e-19 0.126433)
(-0.336717 -7.5393e-19 0.207646)
(-0.708871 5.44461e-19 0.277595)
(-1.13157 -7.33975e-19 0.333937)
(-1.58885 0 0.375635)
(-2.06672 -1.68485e-19 0.403956)
(-2.55236 7.99624e-20 0.420178)
(-3.03406 0 0.42446)
(-3.50105 -6.53956e-20 0.417369)
(-3.94311 1.33538e-19 0.399351)
(-4.35084 -1.17834e-19 0.370838)
(-4.71483 0 0.332509)
(-5.02625 5.02056e-20 0.284677)
(-5.2766 8.67725e-20 0.227601)
(-5.45698 -9.78918e-20 0.162019)
(-5.55902 8.66238e-20 0.0880486)
(-5.57583 -6.08215e-20 0.00365795)
(-5.50624 0 -0.0954714)
(-5.33949 -1.86118e-20 -0.207748)
(-5.07008 -5.66308e-21 -0.331349)
(-4.68751 4.13974e-20 -0.469109)
(-4.17704 -2.50637e-21 -0.633553)
(-3.54445 -1.72853e-20 -0.850518)
(-2.87589 -2.65215e-20 -1.12162)
(-2.39288 -3.4624e-21 -1.33041)
(-0.0688896 3.96696e-18 -0.424278)
(-0.102221 -3.07418e-18 -0.242518)
(-0.147441 -4.08141e-19 -0.0958284)
(-0.288884 1.54787e-18 0.0468562)
(-0.50956 -1.52407e-18 0.181186)
(-0.815123 0 0.30793)
(-1.18922 -1.28256e-18 0.42297)
(-1.61527 1.12297e-18 0.521244)
(-2.07812 5.45967e-19 0.599283)
(-2.56472 0 0.655749)
(-3.06362 -1.65575e-19 0.691082)
(-3.56449 0 0.706214)
(-4.05766 2.86403e-19 0.701628)
(-4.53425 -8.22159e-19 0.678139)
(-4.98536 9.66362e-21 0.636546)
(-5.40297 1.20029e-19 0.577584)
(-5.7786 3.14341e-19 0.502443)
(-6.10382 -1.93887e-19 0.412167)
(-6.37143 -8.40443e-20 0.307654)
(-6.57379 7.48116e-20 0.190634)
(-6.70311 -6.7547e-20 0.0629138)
(-6.75374 6.00543e-20 -0.0756999)
(-6.72314 0 -0.227339)
(-6.61228 -4.54742e-20 -0.394081)
(-6.41745 0 -0.572838)
(-6.13752 -4.46344e-20 -0.763121)
(-5.7743 8.20492e-21 -0.970378)
(-5.34792 2.6233e-21 -1.20439)
(-4.93301 1.53837e-20 -1.45408)
(-4.68325 7.19237e-21 -1.64796)
(-0.125636 3.55959e-18 -0.361264)
(-0.310395 -3.9211e-18 -0.137664)
(-0.472522 4.08259e-19 0.0429039)
(-0.703602 0 0.216668)
(-1.00624 0 0.383957)
(-1.37407 -1.39786e-18 0.541241)
(-1.79371 1.3135e-18 0.682101)
(-2.25134 -1.80459e-18 0.801131)
(-2.73501 9.20081e-19 0.895019)
(-3.23452 1.0275e-18 0.962501)
(-3.74108 1.63703e-18 1.00369)
(-4.24694 -3.2527e-19 1.01945)
(-4.74416 0 1.01039)
(-5.22546 5.31055e-19 0.977352)
(-5.68295 -8.21909e-21 0.921223)
(-6.10914 -1.13749e-19 0.842739)
(-6.49686 -1.0313e-19 0.74298)
(-6.83768 1.82978e-19 0.623099)
(-7.12433 3.24563e-19 0.483873)
(-7.35058 -3.30815e-19 0.326485)
(-7.50958 6.50706e-20 0.15271)
(-7.59537 -1.42896e-19 -0.0365896)
(-7.60466 -9.83744e-20 -0.241805)
(-7.54626 1.30642e-19 -0.461431)
(-7.41866 0 -0.691858)
(-7.22509 -7.1026e-20 -0.929697)
(-6.97326 6.03609e-20 -1.17422)
(-6.68468 4.14514e-20 -1.42454)
(-6.4163 0 -1.66579)
(-6.26788 -1.04264e-20 -1.84524)
(-0.125832 -4.35675e-18 -0.207149)
(-0.415763 0 0.0543377)
(-0.66659 0 0.25047)
(-0.977009 3.35186e-18 0.44793)
(-1.34148 -3.69555e-20 0.638807)
(-1.75297 -1.5567e-18 0.816244)
(-2.20105 -1.69809e-18 0.973585)
(-2.67539 1.82909e-19 1.10534)
(-3.16766 0 1.20836)
(-3.67051 6.83059e-19 1.28126)
(-4.1773 0 1.32377)
(-4.68233 -5.98181e-19 1.3364)
(-5.17904 1.43168e-18 1.31945)
(-5.66098 -5.4861e-19 1.27337)
(-6.12152 -2.42486e-19 1.19897)
(-6.55326 2.12676e-19 1.09695)
(-6.94978 -1.06789e-19 0.968293)
(-7.30345 -8.68645e-20 0.814499)
(-7.60641 -1.6173e-19 0.637233)
(-7.85324 1.43476e-19 0.438376)
(-8.03933 0 0.220612)
(-8.15975 4.87316e-21 -0.0129743)
(-8.21112 5.131e-21 -0.259816)
(-8.20154 -1.45404e-19 -0.518511)
(-8.13328 -8.71844e-20 -0.785909)
(-8.01196 6.97429e-20 -1.05591)
(-7.84724 -5.35836e-20 -1.32277)
(-7.65915 -8.49929e-21 -1.57969)
(-7.48999 -1.44595e-21 -1.81133)
(-7.40209 9.85883e-21 -1.97458)
(-0.0688275 4.43039e-18 0.0324672)
(-0.43157 8.71576e-19 0.30846)
(-0.758432 4.16198e-19 0.518928)
(-1.13077 3.00144e-18 0.732798)
(-1.53944 -3.16591e-18 0.937711)
(-1.97883 -3.16059e-18 1.12619)
(-2.4415 3.05933e-18 1.29194)
(-2.92098 0 1.42988)
(-3.41234 -3.56386e-19 1.53696)
(-3.91092 -5.00091e-22 1.61159)
(-4.41215 1.32285e-18 1.65313)
(-4.91143 -1.19987e-18 1.66145)
(-5.40363 2.99367e-19 1.63663)
(-5.88284 0 1.5787)
(-6.3437 4.78649e-19 1.48827)
(-6.77909 -7.56253e-21 1.36594)
(-7.18266 -7.81523e-19 1.21258)
(-7.54826 1.83717e-19 1.02962)
(-7.86822 0 0.819184)
(-8.13669 0 0.583712)
(-8.35001 0 0.326239)
(-8.50438 2.06463e-19 0.0509067)
(-8.59655 6.09021e-21 -0.237403)
(-8.6311 7.93574e-20 -0.534274)
(-8.61435 6.77589e-20 -0.835708)
(-8.55307 -6.16497e-21 -1.13361)
(-8.45757 6.08295e-21 -1.41871)
(-8.34597 -3.57535e-20 -1.68092)
(-8.24909 -3.8591e-20 -1.90532)
(-8.20237 0 -2.05539)
(0.0320103 3.98359e-18 0.32666)
(-0.376676 -1.74318e-18 0.619773)
(-0.764271 -4.19164e-19 0.838517)
(-1.18025 0 1.06003)
(-1.61608 -3.18896e-18 1.27041)
(-2.06852 3.17617e-18 1.46257)
(-2.53355 1.92183e-19 1.63049)
(-3.0084 -1.46946e-18 1.76969)
(-3.49102 3.22395e-18 1.87716)
(-3.97899 -2.07611e-18 1.95086)
(-4.46967 3.22038e-19 1.98977)
(-4.95931 3.03026e-19 1.99294)
(-5.44411 0 1.96008)
(-5.91864 4.96633e-19 1.89073)
(-6.37799 -9.59049e-19 1.785)
(-6.81609 2.1428e-19 1.64336)
(-7.2265 3.79808e-19 1.46664)
(-7.60367 -1.59481e-19 1.25625)
(-7.94086 1.22208e-20 1.01448)
(-8.23174 1.87087e-19 0.744551)
(-8.47203 -6.01803e-20 0.450295)
(-8.6585 -2.92572e-20 0.136895)
(-8.78902 1.08335e-19 -0.188872)
(-8.86394 0 -0.51986)
(-8.89312 0 -0.850705)
(-8.88305 4.44169e-20 -1.17218)
(-8.84425 0 -1.47245)
(-8.79308 1.42086e-21 -1.73942)
(-8.75139 3.77559e-20 -1.95852)
(-8.73475 -7.70576e-22 -2.09844)
(0.174887 0 0.674289)
(-0.266601 -2.62213e-18 0.977507)
(-0.695612 2.1268e-20 1.19586)
(-1.13645 6.67992e-18 1.41683)
(-1.58222 -6.51275e-18 1.62567)
(-2.0331 3.24449e-18 1.81581)
(-2.48903 3.9169e-19 1.98165)
(-2.95049 0 2.11895)
(-3.41771 -3.61149e-19 2.22456)
(-3.89001 3.43212e-19 2.29593)
(-4.3662 -3.23016e-19 2.33154)
(-4.84334 0 2.32958)
(-5.31845 0 2.28912)
(-5.78703 4.88522e-19 2.20935)
(-6.24406 -2.48319e-19 2.08986)
(-6.68455 1.97178e-19 1.93092)
(-7.10224 -9.19137e-19 1.73322)
(-7.49118 3.31736e-19 1.4981)
(-7.84523 1.44913e-19 1.22793)
(-8.15811 -1.83169e-19 0.926327)
(-8.42483 1.58033e-19 0.598005)
(-8.64194 -9.2933e-20 0.249259)
(-8.80789 -7.13786e-20 -0.111566)
(-8.92233 -1.43033e-20 -0.475217)
(-8.99254 1.08813e-19 -0.833146)
(-9.02696 -1.19584e-19 -1.17602)
(-9.03563 0 -1.49022)
(-9.03356 -4.04979e-20 -1.76235)
(-9.03558 0 -1.97805)
(-9.04199 0 -2.11032)
(0.352613 4.02397e-18 1.05812)
(-0.110202 -3.5307e-18 1.36627)
(-0.561616 0 1.57619)
(-1.00712 0 1.78991)
(-1.44524 -1.5786e-19 1.99217)
(-1.88031 0 2.17672)
(-2.3163 1.57427e-18 2.33821)
(-2.75633 -1.17042e-18 2.47218)
(-3.20241 3.64912e-19 2.57526)
(-3.65496 1.68772e-18 2.64413)
(-4.11359 1.33573e-18 2.67663)
(-4.57622 1.21006e-18 2.67035)
(-5.04003 5.29744e-19 2.62344)
(-5.5016 -5.20622e-19 2.5348)
(-5.95596 0 2.40349)
(-6.39835 -3.98445e-19 2.22939)
(-6.82299 7.13578e-19 2.01296)
(-7.22366 -1.59166e-19 1.75549)
(-7.59426 6.28717e-20 1.45942)
(-7.92869 1.60567e-19 1.12867)
(-8.2217 -1.01209e-19 0.768735)
(-8.4694 -3.73412e-20 0.387011)
(-8.66983 9.30135e-20 -0.00686927)
(-8.82288 1.51788e-20 -0.401711)
(-8.92999 -9.48367e-20 -0.785655)
(-9.00352 7.52676e-20 -1.14881)
(-9.0526 -2.73254e-21 -1.47668)
(-9.09132 4.32002e-20 -1.75482)
(-9.12896 -1.62524e-20 -1.96886)
(-9.15378 -2.17821e-22 -2.09547)
(0.56344 4.03408e-18 1.45818)
(0.0851343 0 1.7689)
(-0.369281 2.21012e-19 1.96369)
(-0.797359 5.48905e-20 2.16522)
(-1.20983 -3.32035e-18 2.3582)
(-1.61541 3.40046e-18 2.53607)
(-2.02144 -4.06478e-19 2.69315)
(-2.43295 -2.19693e-22 2.82414)
(-2.85281 -1.44162e-18 2.92536)
(-3.28217 1.06648e-18 2.99278)
(-3.72069 -1.28767e-18 3.02324)
(-4.16701 -1.17237e-18 3.01401)
(-4.61843 2.31398e-20 2.96242)
(-5.07188 -4.72268e-19 2.8668)
(-5.52289 2.62373e-20 2.72582)
(-5.96663 3.9862e-19 2.53891)
(-6.3977 -5.1288e-19 2.30623)
(-6.81004 2.05124e-20 2.02896)
(-7.19753 1.37599e-19 1.70965)
(-7.55407 -2.22713e-19 1.35249)
(-7.874 1.29217e-19 0.963564)
(-8.15261 1.77807e-19 0.551)
(-8.38706 0 0.125276)
(-8.57716 -8.49465e-20 -0.300764)
(-8.71802 0 -0.71034)
(-8.8264 0 -1.09326)
(-8.91059 0 -1.43525)
(-8.984 -6.0619e-22 -1.72053)
(-9.05152 2.68885e-20 -1.93457)
(-9.09162 0 -2.05716)
(0.806413 0 1.85577)
(0.312182 -3.60225e-18 2.16745)
(-0.123807 3.4074e-18 2.34113)
(-0.509991 -5.64558e-20 2.52791)
(-0.878578 0 2.71188)
(-1.24185 0 2.88451)
(-1.60906 0 3.03921)
(-1.98608 1.154e-18 3.16959)
(-2.37561 -2.59629e-18 3.27086)
(-2.77877 6.73198e-20 3.33881)
(-3.19506 5.89359e-19 3.36924)
(-3.62322 -2.20833e-20 3.35898)
(-4.06083 5.42927e-19 3.30487)
(-4.50481 0 3.20459)
(-4.95119 4.38981e-19 3.05642)
(-5.3954 0 2.85943)
(-5.8323 -3.25895e-19 2.61341)
(-6.2561 2.77559e-19 2.31932)
(-6.66072 -2.32189e-19 1.97968)
(-7.0398 0 1.59883)
(-7.38696 -1.70127e-19 1.18309)
(-7.69625 -1.37517e-19 0.741193)
(-7.96321 -1.11062e-20 0.284849)
(-8.18596 2.82702e-20 -0.170707)
(-8.36579 -4.83307e-20 -0.607821)
(-8.50558 -3.50584e-20 -1.01128)
(-8.62115 3.43474e-21 -1.36842)
(-8.72484 -1.33229e-21 -1.66217)
(-8.81826 -1.33032e-20 -1.87771)
(-8.8716 1.98005e-22 -1.99765)
(1.08054 0 2.22981)
(0.564547 3.68537e-18 2.54175)
(0.17147 -3.75651e-18 2.68855)
(-0.145579 0 2.86164)
(-0.452738 4.58794e-19 3.04091)
(-0.762378 0 3.21303)
(-1.08379 -1.66317e-18 3.36926)
(-1.42162 3.59016e-18 3.50292)
(-1.77767 -6.39722e-20 3.60753)
(-2.15206 -1.42903e-18 3.67867)
(-2.54397 -6.46448e-19 3.71178)
(-2.95195 -2.44003e-20 3.70308)
(-3.37368 -1.08727e-18 3.64903)
(-3.80616 2.2831e-19 3.54683)
(-4.24584 -2.24116e-19 3.3944)
(-4.68863 1.74335e-19 3.19046)
(-5.12982 3.0396e-19 2.93441)
(-5.56397 -3.00284e-19 2.62686)
(-5.985 3.2646e-19 2.27011)
(-6.38625 4.10337e-20 1.86837)
(-6.76059 -4.06417e-20 1.42807)
(-7.10106 0 0.958522)
(-7.40218 0 0.472789)
(-7.66129 6.8088e-20 -0.0122891)
(-7.87948 4.86124e-20 -0.477951)
(-8.0484 1.44594e-20 -0.904245)
(-8.19274 6.73135e-22 -1.27789)
(-8.32379 -6.63944e-22 -1.58157)
(-8.44066 3.48054e-21 -1.79996)
(-8.50613 -1.93942e-22 -1.91831)
(1.38553 0 2.55512)
(0.839524 -3.82426e-18 2.86421)
(0.514541 3.91048e-18 2.97974)
(0.297515 0 3.14962)
(0.0662482 -9.42507e-19 3.33372)
(-0.180851 0 3.51276)
(-0.451532 -2.11993e-18 3.6764)
(-0.746986 2.82594e-18 3.81823)
(-1.06707 -1.5437e-18 3.93051)
(-1.41041 -6.8154e-19 4.00833)
(-1.77554 -6.64534e-19 4.04733)
(-2.16083 5.65516e-19 4.04325)
(-2.56392 -1.87621e-20 3.99218)
(-2.98183 0 3.89105)
(-3.41145 0 3.73764)
(-3.84941 0 3.53036)
(-4.29171 0 3.2681)
(-4.73339 0 2.95099)
(-5.16867 -2.17679e-19 2.58091)
(-5.59098 -1.57781e-19 2.16175)
(-5.99291 0 1.69986)
(-6.36669 9.39605e-20 1.20514)
(-6.70528 -6.54605e-20 0.691514)
(-7.00367 -3.3122e-20 0.176074)
(-7.261 -1.6239e-20 -0.32165)
(-7.45846 1.87832e-20 -0.772936)
(-7.63087 2.84451e-21 -1.16436)
(-7.78811 4.21054e-24 -1.4798)
(-7.92755 0 -1.70232)
(-8.00497 0 -1.81981)
(1.6981 4.31806e-18 2.82333)
(1.14593 -8.47383e-18 3.11884)
(0.910653 3.53944e-18 3.1947)
(0.822299 0 3.37349)
(0.678501 4.79391e-19 3.57539)
(0.498501 4.61495e-19 3.7736)
(0.279654 4.34962e-19 3.95549)
(0.0284095 0 4.11166)
(-0.253937 3.62302e-19 4.23609)
(-0.564045 -1.40807e-18 4.32382)
(-0.899751 -6.66858e-19 4.37183)
(-1.25942 0 4.37576)
(-1.64043 -5.24119e-19 4.33073)
(-2.03966 -2.215e-19 4.23375)
(-2.45437 2.17234e-19 4.08273)
(-2.88225 3.46879e-19 3.87611)
(-3.3203 0 3.61199)
(-3.76422 0 3.2899)
(-4.20895 -4.34231e-20 2.91117)
(-4.64873 9.18394e-20 2.47927)
(-5.0765 -4.4004e-20 1.99993)
(-5.48377 -7.28722e-20 1.48288)
(-5.86121 5.5861e-20 0.942086)
(-6.19939 1.72854e-20 0.395599)
(-6.49059 1.61643e-20 -0.13306)
(-6.73686 1.73147e-22 -0.614686)
(-6.93784 -2.55121e-21 -1.02723)
(-7.12253 -3.15042e-22 -1.35702)
(-7.28555 0 -1.58501)
(-7.37584 0 -1.70186)
(2.01501 4.88261e-18 2.75896)
(1.4586 4.94196e-19 3.16078)
(1.37364 -1.51076e-18 3.32306)
(1.41448 1.92648e-20 3.52385)
(1.36478 4.97991e-19 3.75544)
(1.25691 4.68324e-19 3.98317)
(1.09812 -8.52016e-19 4.19164)
(0.896195 8.32045e-19 4.37083)
(0.655839 -3.62041e-19 4.51506)
(0.380976 3.74033e-19 4.61991)
(0.0707958 0 4.68157)
(-0.260179 -5.73436e-19 4.69523)
(-0.615419 2.80793e-19 4.65804)
(-0.991131 0 4.56739)
(-1.3848 -3.98985e-19 4.42229)
(-1.79567 -1.02226e-20 4.22053)
(-2.22206 -6.53902e-20 3.95899)
(-2.66027 6.44263e-20 3.63667)
(-3.10607 0 3.25458)
(-3.55528 1.57512e-19 2.81606)
(-4.00208 -2.38014e-20 2.32541)
(-4.43808 -3.54359e-20 1.7914)
(-4.85285 -4.31474e-21 1.22751)
(-5.23499 1.5355e-20 0.65321)
(-5.57644 -1.43643e-20 0.0937968)
(-5.88032 -2.33141e-20 -0.423227)
(-6.11322 -5.69181e-22 -0.863607)
(-6.32883 0 -1.21111)
(-6.51924 0 -1.44658)
(-6.62503 0 -1.56265)
(9.9904 0 0.102956)
(9.98094 0 0.200578)
(9.96386 0 0.299279)
(9.93569 1.98236e-19 0.401599)
(9.89887 -6.55091e-22 0.509028)
(9.85546 2.12646e-19 0.622956)
(9.80573 0 0.744444)
(9.74977 4.56318e-19 0.874343)
(9.68758 -9.40557e-19 1.01372)
(9.61881 -4.87561e-19 1.16394)
(9.54445 1.99774e-18 1.32632)
(9.46504 -2.05468e-18 1.50207)
(9.38015 5.27456e-19 1.69251)
(9.29089 -5.39021e-19 1.89914)
(9.19741 2.77678e-19 2.12371)
(9.10017 5.62752e-19 2.36851)
(8.99987 0 2.63569)
(8.89733 -2.92542e-18 2.9276)
(8.79408 1.77748e-18 3.24737)
(8.69088 -5.93062e-19 3.59876)
(8.58944 2.39226e-18 3.98625)
(8.49173 1.2266e-20 4.41489)
(8.40084 -2.36508e-18 4.89067)
(8.32049 2.37096e-18 5.42013)
(8.25666 0 6.01083)
(8.21502 1.15522e-18 6.67427)
(8.23256 1.0974e-18 7.42042)
(8.26084 -2.08475e-18 8.2973)
(8.95963 2.20147e-18 9.2517)
(9.7848 -7.60013e-19 11.8992)
(9.9906 0 0.106825)
(9.98248 -8.90922e-20 0.208128)
(9.96775 9.25746e-20 0.310734)
(9.94257 0 0.417215)
(9.90928 -7.97831e-19 0.528938)
(9.8702 0 0.64723)
(9.82587 0 0.773187)
(9.77636 8.82373e-19 0.907778)
(9.72125 -6.63733e-23 1.05216)
(9.6604 -1.7027e-21 1.2076)
(9.5953 0 1.37531)
(9.52593 0 1.55657)
(9.45228 5.09969e-19 1.7527)
(9.37571 5.22311e-19 1.96517)
(9.29593 -2.12905e-18 2.19577)
(9.21401 3.79202e-18 2.4467)
(9.13092 -2.20357e-18 2.7199)
(9.04793 -2.23467e-18 3.01754)
(8.9663 2.82738e-18 3.34261)
(8.88746 1.13707e-18 3.69873)
(8.81378 -2.83986e-18 4.08972)
(8.74805 -1.57456e-20 4.51968)
(8.69531 1.11824e-18 4.99345)
(8.66083 -2.25083e-18 5.51529)
(8.65402 2.17688e-18 6.08955)
(8.68676 -1.11776e-18 6.72076)
(8.80205 -1.07021e-18 7.40715)
(8.96009 1.01153e-18 8.15117)
(9.47435 9.31186e-19 8.86873)
(10.1036 -8.92401e-19 9.80385)
(9.9909 -4.17954e-20 0.110341)
(9.98417 1.29829e-19 0.215019)
(9.97176 4.4865e-19 0.321228)
(9.94965 1.86671e-19 0.431562)
(9.92018 1.28353e-21 0.547237)
(9.8858 -1.11984e-21 0.669462)
(9.84717 8.2712e-19 0.799389)
(9.80415 -4.28384e-19 0.9382)
(9.7562 -8.82731e-19 1.0871)
(9.70372 4.52978e-19 1.24712)
(9.64801 -1.3979e-18 1.41945)
(9.58889 4.78673e-19 1.60547)
(9.52698 -4.92377e-19 1.80641)
(9.46309 1.00103e-18 2.02368)
(9.39727 -5.09053e-19 2.25906)
(9.3311 0 2.5145)
(9.26588 5.25635e-19 2.79175)
(9.20293 0 3.09286)
(9.14303 0 3.42049)
(9.08876 -2.71105e-18 3.77786)
(9.04277 2.7265e-18 4.16769)
(9.00865 1.08197e-18 4.59278)
(8.99226 -2.16647e-18 5.0561)
(8.99945 0 5.55902)
(9.0402 -1.04228e-18 6.1015)
(9.12428 -2.92776e-20 6.67988)
(9.2793 -2.53425e-18 7.28023)
(9.46225 4.33048e-19 7.87081)
(9.74804 6.23332e-20 8.40467)
(10.2361 1.89587e-18 9.01076)
(9.99126 -4.06126e-20 0.113434)
(9.98599 4.20315e-20 0.221188)
(9.97594 -7.00073e-19 0.330666)
(9.95698 0 0.444453)
(9.93155 3.74678e-19 0.563637)
(9.9022 -2.08058e-21 0.689318)
(9.86942 -1.13097e-21 0.822745)
(9.8328 -8.27472e-19 0.96528)
(9.79223 8.51292e-19 1.11807)
(9.74847 0 1.28197)
(9.70215 4.51364e-19 1.45816)
(9.65359 4.62805e-19 1.64806)
(9.60362 -3.2239e-21 1.85283)
(9.55253 -9.64575e-19 2.07378)