/*--------------------------------*- C++ -*----------------------------------*\
| =========                 |                                                 |
| \\      /  F ield         | OpenFOAM: The Open Source CFD Toolbox           |
|  \\    /   O peration     | Version:  dev                                   |
|   \\  /    A nd           | Web:      www.OpenFOAM.org                      |
|    \\/     M anipulation  |                                                 |
\*---------------------------------------------------------------------------*/
FoamFile
{
    version     2.0;
    format      ascii;
    class       volVectorField;
    location    "1";
    object      U;
}
// * * * * * * * * * * * * * * * * * * * * * * * * * * * * * * * * * * * * * //

dimensions      [0 1 -1 0 0 0 0];

internalField   nonuniform List<vector> 
2790
(
(9.93105 4.60044e-20 0.0189203)
(9.8621 4.7619e-20 0.0263889)
(9.76682 -6.20247e-21 0.0313194)
(9.64927 -2.58168e-20 0.0363651)
(9.51678 3.35739e-20 0.0415954)
(9.37145 0 0.0469731)
(9.2127 -2.91998e-20 0.0526236)
(9.03958 -4.0823e-23 0.0586883)
(8.8514 0 0.0652849)
(8.64746 -3.31352e-20 0.0725211)
(8.42689 3.42868e-20 0.0805076)
(8.18864 6.76424e-20 0.08937)
(7.93155 1.85085e-21 0.099248)
(7.65428 -7.78696e-20 0.110293)
(7.35541 0 0.122669)
(7.03342 0 0.136555)
(6.68673 -2.22865e-20 0.152147)
(6.31377 0 0.16962)
(5.91294 0 0.189085)
(5.48288 2.04618e-19 0.21066)
(5.02299 -4.25026e-19 0.234509)
(4.53276 -2.20588e-19 0.260661)
(4.01199 3.48786e-19 0.288938)
(3.4618 -4.78168e-19 0.319045)
(2.88458 4.99861e-19 0.350484)
(2.28408 -5.12312e-19 0.382345)
(1.66587 0 0.41296)
(1.03971 -2.68325e-19 0.436491)
(0.362473 -8.07243e-19 0.395551)
(-0.138934 8.50767e-19 -0.186901)
(9.9944 -4.59772e-20 0.0375243)
(9.98474 -1.42643e-19 0.0544342)
(9.95037 0 0.0664915)
(9.89185 2.57371e-20 0.0793166)
(9.81547 -8.035e-20 0.0930586)
(9.72354 0 0.107548)
(9.61576 -1.45034e-20 0.123028)
(9.49133 -1.50995e-20 0.13981)
(9.34962 6.31797e-20 0.158154)
(9.19008 -6.53452e-20 0.178303)
(9.01192 0 0.200508)
(8.81419 1.33489e-20 0.225064)
(8.59578 1.48042e-19 0.2523)
(8.35537 -1.54177e-19 0.282558)
(8.09157 0 0.316182)
(7.80289 0 0.353532)
(7.48768 6.59684e-20 0.394987)
(7.14438 0 0.440869)
(6.77114 -9.57715e-20 0.49127)
(6.3661 9.99101e-20 0.546098)
(5.92832 0 0.605256)
(5.45706 8.74199e-19 0.668376)
(4.95134 -1.01317e-18 0.734413)
(4.41109 0 0.801619)
(3.83742 0 0.867392)
(3.23247 0 0.927645)
(2.59991 2.57662e-18 0.975498)
(1.94829 -1.8264e-18 0.996218)
(1.23338 2.61654e-19 0.953063)
(0.781287 8.36426e-19 0.787894)
(9.99166 -9.17456e-20 0.0387316)
(9.97951 5.94243e-23 0.0630662)
(9.94764 0 0.0830789)
(9.89406 -1.0276e-19 0.104223)
(9.82385 5.33619e-20 0.126948)
(9.73939 -9.55263e-23 0.151117)
(9.64063 2.89749e-20 0.177054)
(9.52688 3.0158e-20 0.205203)
(9.39763 3.13643e-20 0.235954)
(9.25242 0 0.269689)
(9.09059 0 0.30682)
(8.91137 -2.93647e-19 0.347825)
(8.71383 2.94153e-19 0.393269)
(8.49685 -3.09347e-19 0.443742)
(8.25916 3.19381e-19 0.499823)
(7.99943 0 0.562124)
(7.7161 6.14094e-19 0.631305)
(7.40774 -1.36394e-18 0.708014)
(7.07258 1.70574e-18 0.792623)
(6.70837 -8.84447e-19 0.885097)
(6.31343 0 0.98527)
(5.88635 1.93244e-18 1.09273)
(5.4252 -1.54546e-18 1.20617)
(4.92807 4.5904e-19 1.32309)
(4.39324 1.90953e-18 1.43955)
(3.81859 1.97798e-18 1.54949)
(3.20035 -4.50222e-18 1.64343)
(2.53404 -5.08538e-19 1.70547)
(1.75923 4.09773e-18 1.71473)
(1.08256 -1.47823e-17 1.66076)
(9.98977 2.74871e-19 0.042262)
(9.97524 -9.47347e-20 0.0756464)
(9.94321 4.93855e-20 0.105044)
(9.89071 5.14094e-20 0.134898)
(9.82199 -5.34047e-20 0.166259)
(9.73936 5.52218e-20 0.199354)
(9.64295 1.15288e-19 0.234688)
(9.53228 6.00828e-20 0.272853)
(9.40695 -2.82409e-19 0.314376)
(9.26664 3.24581e-19 0.359796)
(9.11091 0 0.409684)
(8.93914 0 0.464675)
(8.75068 -9.17001e-21 0.52553)
(8.5448 0 0.593084)
(8.32056 -1.98832e-20 0.668155)
(8.07692 6.66942e-19 0.751601)
(7.81268 1.36431e-19 0.84434)
(7.52677 -8.06089e-19 0.947352)
(7.21792 -9.37898e-20 1.06146)
(6.8841 1.56647e-18 1.18701)
(6.52334 -1.40971e-18 1.32407)
(6.13374 -2.10679e-19 1.47241)
(5.71279 0 1.63104)
(5.25721 -4.07208e-18 1.79762)
(4.7626 3.70174e-18 1.96827)
(4.22264 -3.82854e-18 2.13715)
(3.62696 3.40356e-18 2.29608)
(2.9632 -7.44545e-18 2.43402)
(2.1799 7.43375e-18 2.53877)
(1.36193 1.60276e-18 2.66075)
(9.98879 -3.6586e-19 0.0473557)
(9.97281 1.89461e-19 0.0883943)
(9.9405 0 0.125914)
(9.88887 0 0.163558)
(9.82154 0 0.202821)
(9.74054 -1.10845e-19 0.244304)
(9.64609 -2.3068e-19 0.288657)
(9.53789 1.79284e-19 0.336543)
(9.41559 0 0.388581)
(9.27894 -6.4867e-20 0.445418)
(9.12763 0 0.507741)
(8.96114 0 0.57629)
(8.77893 -9.08692e-21 0.651933)
(8.58054 0 0.735662)
(8.36532 1.9776e-20 0.828499)
(8.13252 -4.10139e-20 0.931493)
(7.88127 1.37421e-18 1.04574)
(7.61083 -1.41548e-18 1.17246)
(7.3204 1.84306e-19 1.31289)
(7.00843 0 1.46788)
(6.6731 -1.17165e-21 1.6379)
(6.31239 4.11143e-19 1.82318)
(5.92347 3.85342e-18 2.0234)
(5.50242 -3.06964e-18 2.23712)
(5.04344 0 2.4615)
(4.53786 4.61449e-19 2.69228)
(3.9724 4.74516e-19 2.92389)
(3.33071 0 3.1509)
(2.59747 4.75706e-19 3.35044)
(1.67677 7.76215e-18 3.6519)
(9.98837 1.82652e-19 0.0532043)
(9.9716 -1.88824e-19 0.101195)
(9.93925 -2.4549e-19 0.146376)
(9.88866 -1.53134e-19 0.19176)
(9.823 -1.06141e-19 0.238966)
(9.74394 -1.10352e-19 0.288848)
(9.65181 1.81428e-22 0.342144)
(9.54642 -1.19445e-19 0.399561)
(9.42747 0 0.461813)
(9.29474 2.58866e-19 0.529657)
(9.148 2.04173e-19 0.603885)
(8.98682 -5.20638e-19 0.685344)
(8.81074 1.8134e-20 0.774997)
(8.61942 0 0.873955)
(8.41242 -1.95262e-20 0.983403)
(8.1892 4.07367e-20 1.10456)
(7.94917 -3.82699e-22 1.23868)
(7.69169 0 1.38716)
(7.41629 -1.64566e-18 1.5516)
(7.12197 1.50301e-18 1.73337)
(6.80717 -3.90777e-19 1.93344)
(6.46995 -4.05524e-19 2.1526)
(6.10752 2.5144e-18 2.3914)
(5.71587 2.08185e-20 2.64966)
(5.28886 -7.47764e-18 2.92614)
(4.8176 3.58031e-18 3.21851)
(4.28911 7.30833e-18 3.52282)
(3.68059 1.18438e-20 3.8384)
(3.03415 -7.8239e-18 4.11139)
(2.02838 0 4.56583)
(9.98826 -3.41153e-19 0.0593978)
(9.97116 -7.04355e-20 0.114025)
(9.93909 2.44999e-19 0.166465)
(9.88978 1.02319e-19 0.219323)
(9.826 -1.05849e-19 0.274227)
(9.74923 2.1996e-19 0.33222)
(9.65986 1.14449e-19 0.394118)
(9.55776 0 0.460688)
(9.44265 0 0.532749)
(9.31437 1.28063e-19 0.611163)
(9.17276 -4.6809e-19 0.696818)
(9.01744 3.03153e-20 0.79065)
(8.84802 3.13741e-20 0.893701)
(8.66427 6.13049e-19 1.00718)
(8.46589 1.93978e-20 1.13238)
(8.25245 1.29149e-18 1.27069)
(8.02363 -2.75142e-18 1.4235)
(7.77882 1.37672e-18 1.59239)
(7.51763 0 1.77919)
(7.23957 1.84535e-19 1.98577)
(6.94331 1.92098e-19 2.21366)
(6.62713 0 2.46434)
(6.28861 -2.8528e-18 2.73926)
(5.92402 3.31894e-18 3.03949)
(5.52747 8.5186e-19 3.36537)
(5.09081 -4.36514e-19 3.71627)
(4.60384 2.17599e-19 4.08845)
(4.03178 -1.09109e-19 4.48686)
(3.48833 -6.78732e-18 4.81187)
(2.40688 7.71285e-18 5.38871)
(9.98828 5.73428e-22 0.0657119)
(9.9712 -1.40463e-19 0.12677)
(9.93974 -4.88018e-20 0.186088)
(9.89193 3.04885e-19 0.246098)
(9.8302 -1.05336e-19 0.308435)
(9.75598 0 0.374249)
(9.66974 0 0.444421)
(9.57135 0 0.519791)
(9.46055 0 0.601277)
(9.33725 -2.54804e-19 0.689816)
(9.20137 -5.30845e-19 0.786389)
(9.05261 4.09851e-19 0.892031)
(8.89061 -3.56569e-20 1.00784)
(8.71523 -1.84946e-20 1.1351)
(8.52622 1.22971e-18 1.27523)
(8.32332 -1.2642e-18 1.4297)
(8.10628 0 1.6001)
(7.87466 1.36562e-18 1.7882)
(7.62816 -1.40045e-18 1.99603)
(7.36647 -1.82137e-19 2.22582)
(7.08859 -3.18901e-18 2.47969)
(6.79307 -3.06705e-18 2.75982)
(6.47785 -3.1666e-18 3.06858)
(6.13985 2.81506e-18 3.40824)
(5.7739 -4.13882e-19 3.78039)
(5.37229 -6.67476e-18 4.18567)
(4.92936 6.51246e-18 4.61923)
(4.39258 2.15323e-21 5.09432)
(3.95471 -2.12236e-19 5.4579)
(2.80299 -7.3473e-18 6.13425)
(9.98836 3.39777e-19 0.0720099)
(9.97163 3.51544e-19 0.139299)
(9.94111 1.46101e-19 0.205138)
(9.89499 -1.01047e-19 0.271975)
(9.83554 2.10576e-19 0.341474)
(9.76416 -2.17852e-19 0.414802)
(9.6814 2.26289e-19 0.492884)
(9.58712 0 0.576665)
(9.48107 -4.89347e-19 0.667148)
(9.36325 5.05055e-19 0.765323)
(9.23359 0 0.872238)
(9.09198 6.14131e-19 0.989037)
(8.93818 -5.61951e-19 1.1169)
(8.77193 -7.28308e-20 1.25718)
(8.59311 -1.21397e-18 1.41136)
(8.40161 2.48335e-18 1.58104)
(8.19719 9.62551e-21 1.76795)
(7.97964 1.35072e-18 1.97404)
(7.74878 -2.74636e-18 2.20157)
(7.50432 8.8301e-20 2.45311)
(7.24562 1.8323e-19 2.73132)
(6.97159 1.85974e-19 3.03904)
(6.68047 -3.25622e-18 3.37944)
(6.36979 3.1122e-18 3.75587)
(6.03548 0 4.17109)
(5.66979 2.47326e-20 4.62683)
(5.27245 -6.40546e-18 5.11596)
(4.76826 6.52369e-18 5.66335)
(4.43093 7.88569e-19 6.06154)
(3.21204 -2.1551e-19 6.82554)
(9.98849 3.60585e-19 0.0781872)
(9.97239 3.73054e-19 0.151482)
(9.9431 0 0.223518)
(9.89881 -1.00402e-19 0.296862)
(9.84187 -3.14152e-19 0.373208)
(9.77372 2.16842e-19 0.453703)
(9.69484 -2.25646e-19 0.539309)
(9.60503 -2.33402e-19 0.631081)
(9.50416 -2.41951e-19 0.730103)
(9.3923 4.23093e-22 0.837405)
(9.26933 0 0.954059)
(9.13536 0 1.08129)
(8.9903 1.11949e-18 1.22043)
(8.83384 -1.07811e-18 1.37289)
(8.666 1.19734e-18 1.54022)
(8.48672 -1.20901e-18 1.72407)
(8.29587 3.95985e-20 1.92634)
(8.09343 -2.63003e-18 2.14917)
(7.8793 -1.68163e-20 2.39502)
(7.65337 2.67565e-18 2.66678)
(7.41519 2.84689e-18 2.96759)
(7.16401 2.71402e-18 3.30095)
(6.89865 1.86067e-19 3.67079)
(6.61703 5.81791e-21 4.08131)
(6.31613 0 4.53643)
(5.98803 -2.40531e-20 5.03942)
(5.63786 0 5.58034)
(5.16448 0 6.19819)
(4.91922 -7.6918e-19 6.63651)
(3.63532 6.86688e-18 7.48874)
(9.98868 -7.64299e-19 0.0841617)
(9.9734 -7.44162e-19 0.163221)
(9.94553 4.34379e-19 0.241155)
(9.90322 1.00419e-19 0.320675)
(9.84901 5.20784e-19 0.403499)
(9.7844 -2.15768e-19 0.490771)
(9.70967 0 0.583499)
(9.62467 2.32606e-19 0.682825)
(9.52936 9.63737e-19 0.789893)
(9.42386 -3.72277e-19 0.90577)
(9.30815 -5.17295e-19 1.03154)
(9.18237 3.98959e-19 1.16848)
(9.04651 1.10659e-18 1.31806)
(8.90047 -1.13619e-18 1.48181)
(8.74433 1.17999e-18 1.66126)
(8.57805 -1.13359e-18 1.85816)
(8.40167 -1.16937e-19 2.07455)
(8.21531 0 2.31272)
(8.01899 -4.10104e-20 2.57533)
(7.81295 0 2.86558)
(7.59691 4.28674e-20 3.18706)
(7.37033 0 3.5438)
(7.13285 8.85072e-20 3.94052)
(6.8828 -5.67571e-21 4.38227)
(6.61805 0 4.87413)
(6.33017 3.58735e-19 5.42168)
(6.02984 0 6.01308)
(5.58915 0 6.70226)
(5.42757 0 7.19619)
(4.08153 6.64909e-18 8.15418)
(9.98884 3.58718e-19 0.0898841)
(9.97456 2.78328e-19 0.174433)
(9.94831 9.53137e-20 0.257965)
(9.90819 0 0.343319)
(9.85693 -2.07577e-19 0.432231)
(9.79606 0 0.525873)
(9.72576 0 0.625306)
(9.64585 -2.30344e-19 0.731724)
(9.55642 -2.39245e-19 0.846312)
(9.45768 -4.9547e-19 0.970155)
(9.34974 -2.65848e-21 1.10437)
(9.23266 1.71769e-18 1.25027)
(9.10648 -9.51313e-19 1.40946)
(8.97139 -1.40152e-19 1.58349)
(8.82753 -1.16208e-18 1.77397)
(8.67496 1.11464e-18 1.98273)
(8.5139 2.29517e-19 2.21189)
(8.34458 0 2.46385)
(8.16726 -1.19721e-19 2.74146)
(7.9823 0 3.04817)
(7.78986 1.2427e-19 3.38802)
(7.59001 0 3.76555)
(7.38281 5.40517e-18 4.186)
(7.16727 -1.39787e-20 4.65551)
(6.94226 3.124e-19 5.18063)
(6.6988 -5.87186e-18 5.7699)
(6.45333 0 6.41195)
(6.05396 -4.0159e-18 7.17505)
(5.97259 5.43644e-18 7.75096)
(4.5712 -3.71492e-19 8.85845)
(9.98894 4.46259e-20 0.0953378)
(9.97579 -4.61359e-20 0.185045)
(9.95133 -8.62501e-19 0.273859)
(9.91356 -9.87658e-20 0.364706)
(9.86542 -2.06015e-19 0.459305)
(9.80847 2.14144e-19 0.55889)
(9.74282 1.58167e-23 0.664585)
(9.66826 6.88716e-19 0.777607)
(9.58503 -4.72991e-19 0.899151)
(9.49344 0 1.03031)
(9.39367 0 1.17225)
(9.2857 -1.04701e-18 1.32637)
(9.16966 -1.40321e-19 1.49429)
(9.04602 2.35754e-18 1.67759)
(8.91497 5.538e-21 1.87793)
(8.77672 -1.16949e-18 2.09721)
(8.63172 -1.50909e-19 2.33764)
(8.48033 2.61895e-18 2.6017)
(8.32312 1.6586e-19 2.89242)
(8.16046 -2.55602e-18 3.21337)
(7.99303 1.59218e-19 3.56885)
(7.82202 -3.25916e-19 3.96394)
(7.64766 3.2766e-19 4.40432)
(7.46981 4.61937e-18 4.89719)
(7.28895 -4.96478e-18 5.45086)
(7.09631 0 6.07727)
(6.91421 0 6.76922)
(6.5753 -1.28025e-18 7.6073)
(6.58277 0 8.30189)
(5.14458 -6.31421e-19 9.64743)
(9.98912 7.54526e-19 0.100508)
(9.97707 3.21195e-19 0.195007)
(9.95451 7.63159e-19 0.288768)
(9.91929 3.96376e-19 0.384758)
(9.87445 0 0.484636)
(9.82161 6.37255e-19 0.589724)
(9.76079 -4.39925e-19 0.701223)
(9.69176 -2.28771e-19 0.820336)
(9.61498 2.34666e-19 0.948229)
(9.53086 7.28779e-19 1.08601)
(9.4396 -2.50035e-19 1.23493)
(9.34109 1.03499e-18 1.39649)
(9.23562 -7.95989e-19 1.57223)
(9.12384 0 1.76373)
(9.006 0 1.97269)
(8.88255 0 2.20108)
(8.75421 0 2.45115)
(8.62143 2.25957e-18 2.72544)
(8.48502 4.97134e-21 3.02707)
(8.34576 -4.97846e-18 3.35969)
(8.2048 2.51418e-18 3.72763)
(8.06428 3.1958e-19 4.1363)
(7.9251 -3.20529e-19 4.5919)
(7.78833 6.39392e-19 5.10235)
(7.65668 6.05238e-19 5.6775)
(7.52342 1.21511e-18 6.33246)
(7.41747 4.73909e-18 7.06779)
(7.17277 -5.90321e-18 7.97211)
(7.30205 0 8.82233)
(5.87311 -3.90577e-18 10.5829)
(9.98955 -1.41593e-18 0.105347)
(9.97849 -4.57994e-19 0.204294)
(9.95784 -2.85409e-19 0.302633)
(9.9254 3.93336e-19 0.403376)
(9.88408 6.11858e-19 0.508115)
(9.83553 -8.44431e-19 0.618278)
(9.77965 2.18045e-19 0.735125)
(9.71632 -2.26216e-19 0.859792)
(9.64621 2.33629e-19 0.993392)
(9.56983 -2.41089e-19 1.13709)
(9.48725 -2.48538e-19 1.29225)
(9.39843 0 1.46042)
(9.30388 -2.63278e-19 1.64305)
(9.20429 0 1.84166)
(9.10001 0 2.058)
(8.99168 0 2.29403)
(8.88032 2.87705e-19 2.55202)
(8.76658 0 2.83457)
(8.65145 2.97531e-19 3.14475)
(8.53636 -2.12139e-18 3.48616)
(8.42303 -3.02795e-19 3.863)
(8.31399 -1.004e-20 4.28063)
(8.21151 -2.456e-18 4.74556)
(8.11864 0 5.26594)
(8.04065 -7.13315e-18 5.85212)
(7.97557 3.5355e-18 6.52057)
(7.96076 0 7.27992)
(7.85773 1.1184e-18 8.21554)
(8.18193 -3.99556e-18 9.2106)
(6.86115 3.7564e-18 11.7872)
(0.284196 0 -0.236314)
(0.549144 4.10143e-19 -0.123877)
(0.750231 -7.48892e-19 -0.0624804)
(0.903518 3.50613e-19 -0.0329636)
(0.978991 0 -0.00589304)
(0.939831 8.1564e-20 0.0285419)
(0.7865 0 0.0629157)
(0.535479 0 0.0911437)
(0.208748 1.16622e-19 0.110924)
(-0.164895 -5.34712e-21 0.12232)
(-0.564063 2.261e-19 0.127714)
(-0.980093 -1.61211e-21 0.128426)
(-1.39978 0 0.124571)
(-1.8125 0 0.116761)
(-2.20877 0 0.105593)
(-2.57975 -2.55734e-20 0.0914785)
(-2.91677 2.51847e-20 0.0745932)
(-3.21085 -1.03802e-20 0.0550176)
(-3.45324 1.02176e-20 0.0328614)
(-3.63473 0 0.0081754)
(-3.74531 -3.79261e-20 -0.0191245)
(-3.77597 7.19808e-21 -0.0501152)
(-3.72389 0 -0.0878309)
(-3.56205 1.87838e-20 -0.135368)
(-3.27886 -1.41404e-20 -0.19285)
(-2.84993 -2.24868e-21 -0.262804)
(-2.22958 -1.38977e-20 -0.354753)
(-1.38667 1.09005e-20 -0.494968)
(-0.424803 6.89617e-22 -0.7243)
(1.26675 0 -1.03027)
(0.0372784 0 -0.372037)
(0.179068 0 -0.233881)
(0.234765 0 -0.152027)
(0.213435 -1.05104e-18 -0.0643732)
(0.0958413 1.35875e-18 0.0333517)
(-0.107357 -8.2301e-20 0.124885)
(-0.392256 6.41361e-19 0.205038)
(-0.741907 -1.28716e-18 0.271476)
(-1.13828 5.96508e-19 0.322774)
(-1.56622 0 0.359573)
(-2.01293 -4.34724e-19 0.384289)
(-2.46687 2.16391e-19 0.398325)
(-2.91846 0 0.401986)
(-3.35865 0 0.395977)
(-3.77856 -1.09609e-19 0.3808)
(-4.16959 2.61889e-19 0.356684)
(-4.52292 9.01335e-20 0.323586)
(-4.83009 -1.29252e-19 0.28153)
(-5.08257 -3.95627e-20 0.230631)
(-5.27137 -1.0298e-19 0.171028)
(-5.38793 -1.53049e-20 0.10273)
(-5.42419 3.86934e-20 0.0240857)
(-5.37451 -4.65656e-20 -0.0691989)
(-5.23236 -2.0956e-20 -0.176184)
(-4.99014 2.29241e-20 -0.294977)
(-4.63538 -4.30039e-21 -0.427762)
(-4.152 1.44375e-20 -0.58536)
(-3.54531 -1.21409e-20 -0.792671)
(-2.89928 1.57123e-20 -1.05577)
(-2.43371 6.70688e-21 -1.25842)
(-0.0570442 0 -0.396967)
(-0.112373 -1.62745e-18 -0.218026)
(-0.205559 1.13084e-18 -0.0811712)
(-0.365233 -3.53116e-19 0.0570766)
(-0.589224 1.68231e-18 0.188013)
(-0.8839 -2.62989e-18 0.309949)
(-1.23758 1.30406e-18 0.417515)
(-1.63617 -5.77884e-19 0.506141)
(-2.06617 1.32096e-18 0.57417)
(-2.51662 -6.13804e-19 0.62218)
(-2.97789 1.451e-19 0.651947)
(-3.44154 -1.37771e-19 0.664622)
(-3.90026 -2.52009e-19 0.660669)
(-4.34692 2.49191e-19 0.640661)
(-4.77369 -1.07521e-19 0.605108)
(-5.17277 3.82141e-21 0.554386)
(-5.53631 8.78401e-20 0.488781)
(-5.85638 -3.73316e-21 0.40874)
(-6.12498 1.13109e-19 0.314903)
(-6.33388 1.01265e-19 0.208213)
(-6.47563 5.88515e-20 0.0897259)
(-6.54328 -5.20973e-20 -0.0405321)
(-6.53072 9.07054e-20 -0.18384)
(-6.44065 0 -0.342299)
(-6.268 -8.25971e-21 -0.514299)
(-6.0101 8.15444e-21 -0.698391)
(-5.66736 0 -0.898558)
(-5.25916 -1.80452e-20 -1.12464)
(-4.8578 -1.73528e-20 -1.36783)
(-4.61495 -6.98154e-21 -1.55775)
(-0.0929364 0 -0.310751)
(-0.301732 4.05384e-19 -0.0891987)
(-0.506991 3.74751e-19 0.0806795)
(-0.758885 0 0.243366)
(-1.06678 1.01086e-18 0.399933)
(-1.42432 -1.16765e-18 0.543946)
(-1.82176 -4.0643e-20 0.669249)
(-2.24865 -1.29675e-18 0.771975)
(-2.69581 1.87093e-18 0.851022)
(-3.15568 -6.10825e-19 0.907029)
(-3.62174 0 0.941367)
(-4.08817 -3.94966e-19 0.955006)
(-4.54923 5.26051e-19 0.948254)
(-4.99912 4.67517e-19 0.921304)
(-5.4312 -1.59383e-20 0.874417)
(-5.83833 -2.08185e-19 0.807749)
(-6.21326 -9.09865e-20 0.721409)
(-6.54808 0 0.615594)
(-6.83483 -7.29889e-20 0.490681)
(-7.06595 0 0.34736)
(-7.23468 0 0.186498)
(-7.33521 -2.34654e-20 0.00868351)
(-7.36218 -2.11653e-20 -0.185772)
(-7.32108 0 -0.395583)
(-7.21092 0 -0.617798)
(-7.03414 0 -0.848399)
(-6.79746 0 -1.08582)
(-6.52152 2.00552e-20 -1.32972)
(-6.26177 5.5654e-22 -1.56655)
(-6.11695 -5.76584e-22 -1.74391)
(-0.0792546 0 -0.137471)
(-0.394929 -4.00633e-19 0.124033)
(-0.681673 2.23622e-18 0.306328)
(-1.01035 -2.85639e-18 0.486479)
(-1.37802 0 0.657709)
(-1.77756 2.32101e-18 0.81289)
(-2.20163 -1.31118e-18 0.946939)
(-2.64337 -1.12738e-19 1.05661)
(-3.09724 -1.26447e-18 1.14097)
(-3.55893 -5.88656e-19 1.20054)
(-4.02437 -1.14424e-18 1.23596)
(-4.48952 2.73209e-20 1.24757)
(-4.94983 -2.23118e-19 1.2352)
(-5.40016 2.4931e-19 1.19841)
(-5.8348 0 1.13697)
(-6.2472 3.83128e-19 1.05073)
(-6.63047 -2.69891e-19 0.939633)
(-6.97713 -1.48778e-19 0.804003)
(-7.27961 1.40909e-19 0.644756)
(-7.53099 5.6217e-20 0.463366)
(-7.72519 -1.32156e-19 0.261761)
(-7.85751 2.53328e-20 0.0422783)
(-7.9239 1.9345e-20 -0.192525)
(-7.92871 -8.75034e-20 -0.440622)
(-7.8746 7.07982e-21 -0.699177)
(-7.76626 -1.29048e-20 -0.961632)
(-7.61277 -3.42601e-20 -1.22193)
(-7.43346 0 -1.47384)
(-7.26994 0 -1.7028)
(-7.18426 0 -1.86544)
(-0.00945704 0 0.107941)
(-0.407074 -7.97954e-19 0.390996)
(-0.759017 -2.9908e-18 0.585528)
(-1.14326 2.88213e-18 0.774097)
(-1.55085 -2.41749e-18 0.950089)
(-1.97516 5.61299e-18 1.10808)
(-2.41177 -2.64975e-18 1.24436)
(-2.8573 1.36105e-18 1.35615)
(-3.30932 -1.27405e-18 1.44226)
(-3.76631 -1.17951e-18 1.50294)
(-4.22613 -1.16783e-18 1.53809)
(-4.68597 2.68441e-19 1.54725)
(-5.14227 5.01847e-19 1.52966)
(-5.59043 -2.30782e-19 1.48432)
(-6.02535 0 1.41053)
(-6.44109 -1.93856e-19 1.30778)
(-6.83114 0 1.1758)
(-7.18877 8.27804e-20 1.01488)
(-7.50691 -6.17279e-20 0.826032)
(-7.7789 -1.21285e-19 0.611004)
(-7.99893 1.58434e-19 0.372248)
(-8.16275 4.81147e-20 0.11328)
(-8.26735 0 -0.161378)
(-8.31361 1.30878e-19 -0.446871)
(-8.30898 5.24506e-20 -0.738974)
(-8.25847 0 -1.02942)
(-8.1718 5.15661e-21 -1.30873)
(-8.06661 0 -1.56721)
(-7.9736 -3.8514e-22 -1.79019)
(-7.9284 4.05639e-22 -1.94059)
(0.100045 0 0.390631)
(-0.351693 3.94484e-18 0.705042)
(-0.753582 -2.26467e-18 0.904123)
(-1.17427 3.63903e-19 1.09246)
(-1.60372 -3.54311e-19 1.2658)
(-2.03719 0 1.42089)
(-2.47357 -1.27225e-19 1.5551)
(-2.91284 1.29747e-18 1.66589)
(-3.35549 -9.70143e-19 1.75175)
(-3.80196 1.18413e-18 1.81219)
(-4.25146 1.16883e-18 1.8463)
(-4.70221 -2.68711e-19 1.85276)
(-5.15141 2.31955e-19 1.83006)
(-5.59513 -9.1314e-19 1.77662)
(-6.02871 2.27129e-19 1.6912)
(-6.44671 0 1.57289)
(-6.84304 0 1.42123)
(-7.21139 1.46939e-19 1.23648)
(-7.54509 4.88161e-21 1.01975)
(-7.83768 5.32636e-20 0.773201)
(-8.08345 -2.48434e-19 0.500066)
(-8.27818 0 0.205071)
(-8.4193 6.79774e-20 -0.105496)
(-8.50522 -4.88307e-20 -0.42467)
(-8.5449 -5.45366e-20 -0.745817)
(-8.54429 -1.11271e-20 -1.06021)
(-8.51285 3.11092e-20 -1.35564)
(-8.46675 2.24518e-21 -1.62005)
(-8.42808 1.1857e-21 -1.83871)
(-8.41269 -9.02126e-21 -1.97951)
(0.245957 4.45393e-19 0.714008)
(-0.237938 3.14989e-18 1.05182)
(-0.675969 -7.57718e-19 1.24749)
(-1.11457 -3.68858e-19 1.42857)
(-1.54857 0 1.59432)
(-1.9765 -4.4434e-20 1.74331)
(-2.40087 -2.64747e-18 1.87315)
(-2.82478 2.70994e-18 1.98126)
(-3.25114 -3.20514e-19 2.0659)
(-3.68174 0 2.12566)
(-4.11673 -2.85581e-19 2.15866)
(-4.55511 0 2.16273)
(-4.99464 2.45844e-19 2.13559)
(-5.43201 -2.07707e-19 2.07506)
(-5.86301 6.27974e-19 1.9794)
(-6.28253 -1.93369e-19 1.84733)
(-6.68487 -1.617e-19 1.67817)
(-7.0639 -1.46596e-19 1.47208)
(-7.41321 1.28032e-19 1.23024)
(-7.72644 0 0.955081)
(-7.99786 5.23193e-20 0.650453)
(-8.22296 4.21012e-20 0.322062)
(-8.3991 -1.28973e-19 -0.0222836)
(-8.52514 -1.21282e-20 -0.373312)
(-8.6049 1.1919e-20 -0.721607)
(-8.64795 3.8292e-21 -1.05792)
(-8.66312 -3.76994e-21 -1.36831)
(-8.66543 -3.31714e-20 -1.63894)
(-8.67018 0 -1.85493)
(-8.67785 9.03469e-21 -1.9884)
(0.424662 -3.99422e-18 1.06748)
(-0.0735894 2.34567e-18 1.41834)
(-0.533776 -5.3503e-18 1.60296)
(-0.971399 3.03142e-18 1.77125)
(-1.39299 0 1.92631)
(-1.80134 2.92891e-18 2.06748)
(-2.20283 -2.85861e-18 2.19217)
(-2.60317 1.33832e-18 2.29756)
(-3.00699 -4.58307e-20 2.38125)
(-3.41691 -2.446e-18 2.44077)
(-3.83373 -8.87028e-19 2.47331)
(-4.25692 -2.65406e-19 2.47589)
(-4.68471 2.26844e-19 2.4455)
(-5.11416 4.09131e-19 2.3794)
(-5.54145 -4.10926e-19 2.27532)
(-5.9618 -1.66863e-19 2.13157)
(-6.3698 1.61617e-19 1.94721)
(-6.75954 0 1.72225)
(-7.12484 -2.33011e-19 1.45791)
(-7.45939 1.49585e-19 1.15685)
(-7.75725 8.55369e-20 0.823477)
(-8.01336 -6.55811e-21 0.464256)
(-8.22444 4.22585e-20 0.0880091)
(-8.38931 -2.48936e-21 -0.294223)
(-8.50546 -1.83724e-20 -0.668733)
(-8.58706 -4.18549e-20 -1.0258)
(-8.64237 2.21677e-21 -1.35092)
(-8.68531 3.10049e-20 -1.62853)
(-8.7258 -1.26317e-20 -1.84346)
(-8.75211 -3.83018e-21 -1.97145)
(0.631421 3.99391e-18 1.43997)
(0.134001 -2.36274e-18 1.79227)
(-0.332839 -3.09622e-18 1.95834)
(-0.74929 3.51184e-20 2.10972)
(-1.14159 -4.96866e-20 2.25285)
(-1.51715 5.78257e-20 2.38622)
(-1.88593 2.92181e-18 2.50628)
(-2.25538 1.35993e-18 2.61002)
(-2.63112 -4.79994e-20 2.69409)
(-3.01615 -9.50692e-19 2.75462)
(-3.41155 0 2.78802)
(-3.81701 2.66887e-19 2.79058)
(-4.23101 9.54098e-19 2.75866)
(-4.65093 -1.34483e-18 2.68895)
(-5.07326 0 2.57866)
(-5.49357 3.56943e-19 2.42569)
(-5.90681 3.03656e-19 2.22881)
(-6.30737 0 1.98784)
(-6.68921 2.85552e-19 1.70393)
(-7.04596 -6.53624e-20 1.37984)
(-7.37116 3.55048e-20 1.02022)
(-7.65874 -3.5152e-20 0.632018)
(-7.90403 9.25648e-20 0.225084)
(-8.10463 -7.05261e-20 -0.187268)
(-8.25836 0 -0.588593)
(-8.37448 4.99826e-20 -0.96619)
(-8.46521 1.58245e-21 -1.30651)
(-8.54307 -1.66344e-20 -1.59223)
(-8.61386 1.25661e-20 -1.80765)
(-8.65586 3.93722e-21 -1.93172)
(0.861334 -4.43944e-19 1.81943)
(0.377912 0 2.16078)
(-0.0775708 0 2.30116)
(-0.450863 9.98901e-20 2.43313)
(-0.797407 9.8593e-20 2.56493)
(-1.12785 0 2.69233)
(-1.45529 -3.68974e-19 2.80993)
(-1.78771 1.38111e-18 2.914)
(-2.13065 -2.64791e-18 3.00034)
(-2.48707 9.57086e-19 3.06382)
(-2.85802 -1.49149e-20 3.10008)
(-3.24313 -1.84397e-20 3.1047)
(-3.64102 -4.87177e-19 3.0735)
(-4.04936 2.27583e-20 3.00263)
(-4.46498 2.24655e-19 2.88881)
(-4.88386 1.82087e-19 2.72953)
(-5.30136 -5.98241e-19 2.52325)
(-5.7122 0 2.26952)
(-6.11046 0 1.96924)
(-6.48945 -1.39976e-20 1.625)
(-6.84191 0 1.24151)
(-7.16071 -1.03381e-19 0.82624)
(-7.44004 -9.26953e-20 0.390184)
(-7.67687 2.21492e-20 -0.0515021)
(-7.87136 -6.69903e-21 -0.480988)
(-8.01964 1.58561e-21 -0.880654)
(-8.14234 -1.55947e-21 -1.23726)
(-8.25108 1.51308e-20 -1.53247)
(-8.34847 7.08346e-22 -1.74982)
(-8.40433 7.70377e-22 -1.87125)
(1.1098 3.55943e-18 2.19187)
(0.65228 -4.04022e-19 2.50935)
(0.228406 5.16364e-20 2.61728)
(-0.0776358 -1.03521e-19 2.72963)
(-0.363183 4.07033e-19 2.85263)
(-0.637819 -1.16236e-18 2.9772)
(-0.9164 1.8974e-18 3.09596)
(-1.20655 0 3.20378)
(-1.51276 3.34785e-19 3.29522)
(-1.83731 -3.12011e-19 3.36442)
(-2.18084 5.79752e-19 3.40619)
(-2.54271 -1.04463e-18 3.41548)
(-2.92162 1.44238e-18 3.38772)
(-3.31557 -8.82658e-19 3.3186)
(-3.72177 3.80667e-19 3.20439)
(-4.13665 3.31968e-19 3.04217)
(-4.55611 4.29567e-19 2.83008)
(-4.97541 -1.32515e-19 2.5673)
(-5.38891 4.58899e-20 2.25421)
(-5.78977 -1.78638e-19 1.89297)
(-6.17024 -3.6014e-20 1.48825)
(-6.52242 1.03631e-19 1.04814)
(-6.83925 0 0.58464)
(-7.11573 9.5292e-20 0.113554)
(-7.35058 0 -0.346415)
(-7.52901 8.2964e-22 -0.770446)
(-7.68118 -4.0367e-21 -1.14453)
(-7.81833 0 -1.45083)
(-7.94023 -7.425e-22 -1.67146)
(-8.00907 -7.39666e-22 -1.79121)
(1.37113 5.62937e-20 2.54003)
(0.953339 4.13525e-19 2.81905)
(0.580028 3.77658e-19 2.8886)
(0.36834 3.41292e-18 2.98556)
(0.156681 -5.44013e-18 3.10522)
(-0.053265 8.17159e-19 3.23198)
(-0.276741 -3.82997e-19 3.35661)
(-0.519938 0 3.47264)
(-0.785994 6.61765e-19 3.57335)
(-1.07576 -6.43252e-19 3.65189)
(-1.38892 5.79313e-19 3.70232)
(-1.72431 0 3.71927)
(-2.0807 -4.82829e-19 3.698)
(-2.45644 6.36976e-19 3.6339)
(-2.84917 -5.82932e-19 3.52274)
(-3.2558 -3.33756e-19 3.36132)
(-3.67291 0 3.14749)
(-4.09672 0 2.88006)
(-4.52239 1.83773e-19 2.55862)
(-4.94342 3.2913e-20 2.18465)
(-5.35195 -3.25303e-20 1.76254)
(-5.73936 7.28184e-20 1.30058)
(-6.09665 0 0.810722)
(-6.41491 -1.55337e-20 0.30896)
(-6.68717 8.85791e-21 -0.182958)
(-6.90496 1.63124e-21 -0.635088)
(-7.08555 3.43137e-21 -1.02867)
(-7.25079 -2.63427e-22 -1.34813)
(-7.39695 0 -1.5734)
(-7.47903 4.69604e-21 -1.692)
(1.61807 -3.88499e-18 2.86304)
(1.26818 -3.50002e-18 3.07413)
(0.976279 3.12561e-18 3.10005)
(0.881643 0 3.18393)
(0.75652 1.68493e-18 3.30627)
(0.619772 -1.64675e-18 3.44309)
(0.457147 3.8723e-19 3.58265)
(0.262151 0 3.71559)
(0.0387934 -3.41728e-19 3.83081)
(-0.213636 3.1731e-19 3.92259)
(-0.493577 -2.93232e-19 3.98457)
(-0.799004 5.11464e-19 4.0117)
(-1.12868 -7.28289e-19 4.00005)
(-1.48151 2.23888e-19 3.94444)
(-1.85544 0 3.8399)
(-2.24775 -4.68928e-19 3.68313)
(-2.65572 2.7263e-19 3.47192)
(-3.07706 -3.92862e-19 3.205)
(-3.5084 -1.34825e-19 2.88072)
(-3.94416 1.59594e-19 2.49947)
(-4.37676 -2.91824e-20 2.06478)
(-4.79717 -8.38339e-21 1.58456)
(-5.19441 2.42454e-20 1.07027)
(-5.55573 -3.4028e-20 0.538757)
(-5.87166 -9.10174e-21 0.0149215)
(-6.14476 -2.02713e-21 -0.470631)
(-6.35597 6.46935e-22 -0.888692)
(-6.55146 1.79306e-20 -1.22403)
(-6.72415 0 -1.45552)
(-6.82121 8.1246e-21 -1.57297)
(1.85885 -6.65078e-18 2.8593)
(1.53339 5.15445e-18 3.15609)
(1.42025 -1.76812e-18 3.24561)
(1.44176 0 3.31745)
(1.41687 0 3.44342)
(1.35961 4.03152e-19 3.60028)
(1.26305 0 3.76396)
(1.12506 0 3.91955)
(0.949976 3.40668e-19 4.05605)
(0.739947 0 4.16708)
(0.498256 -5.84343e-19 4.24645)
(0.223882 -2.65854e-19 4.2889)
(-0.0793269 0 4.28905)
(-0.404326 0 4.24364)
(-0.753537 -3.67904e-19 4.1478)
(-1.12426 4.88384e-19 3.99851)
(-1.51417 4.66528e-19 3.79467)
(-1.92299 3.23667e-19 3.53394)
(-2.34966 1.07382e-20 3.213)
(-2.78984 -1.87165e-19 2.83114)
(-3.23672 -2.60817e-20 2.39066)
(-3.68244 -5.86246e-20 1.89942)
(-4.11721 -3.08732e-20 1.36715)
(-4.52821 9.5211e-21 0.810443)
(-4.90405 0 0.254204)
(-5.24105 6.89481e-22 -0.27195)
(-5.4884 3.18544e-23 -0.720764)
(-5.71943 -1.87919e-20 -1.07508)
(-5.92527 9.4147e-23 -1.31547)
(-6.04168 -1.29567e-20 -1.43144)
(9.99011 -1.86514e-21 0.109891)
(9.98001 0 0.213064)
(9.96132 0 0.315684)
(9.93183 -3.78024e-19 0.420837)
(9.89423 -3.91556e-19 0.530113)
(9.85011 4.05179e-19 0.645031)
(9.79941 -4.17456e-19 0.766869)
(9.74216 -8.61995e-19 0.896635)
(9.67916 0 1.03538)
(9.61095 0 1.18439)
(9.53744 -2.35746e-19 1.34517)
(9.45885 0 1.51923)
(9.37589 0 1.70789)
(9.28916 -1.02573e-18 1.9126)
(9.19927 1.0472e-18 2.13518)
(9.10705 -1.07261e-18 2.3775)
(9.01349 -1.09752e-18 2.64176)
(8.91968 2.49677e-18 2.93058)
(8.8271 -2.83196e-19 3.24688)
(8.7376 -2.86285e-19 3.59399)
(8.65353 5.68045e-19 3.97591)
(8.57772 0 4.3975)
(8.51394 2.26737e-18 4.86486)
(8.46763 -1.15095e-18 5.3855)
(8.44706 1.11957e-18 5.96855)
(8.45734 0 6.62789)
(8.54601 1.00094e-18 7.37393)
(8.63656 -2.03761e-18 8.26454)
(9.45078 8.21485e-19 9.21392)
(10.3393 -2.23549e-18 11.9364)
(9.99068 -4.31789e-20 0.114141)
(9.9816 -4.2663e-20 0.22133)
(9.96503 -8.96586e-23 0.327903)
(9.93874 9.1875e-20 0.437103)
(9.90506 3.70839e-22 0.550594)
(9.86545 1.95688e-19 0.669921)
(9.8202 8.12078e-19 0.796305)
(9.76945 -4.15988e-19 0.930635)
(9.71392 -4.30229e-19 1.07394)
(9.65402 4.44759e-19 1.22762)
(9.58979 -2.27119e-19 1.3933)
(9.52184 2.33881e-19 1.57239)
(9.45084 9.63841e-19 1.76607)
(9.37731 -9.84734e-19 1.97575)
(9.30221 0 2.20321)
(9.22657 0 2.45028)
(9.15127 -2.62947e-19 2.71898)
(9.07788 1.85632e-18 3.01176)
(9.00836 -2.15014e-18 3.33129)
(8.94481 0 3.6805)
(8.89016 1.62014e-18 4.06297)
(8.84777 2.17909e-18 4.48274)
(8.82261 3.21192e-18 4.9446)
(8.8217 -2.1654e-18 5.45414)
(8.85554 1.03205e-18 6.01722)
(8.93449 -2.99616e-18 6.6405)
(9.10739 2.99003e-18 7.32415)
(9.31699 0 8.07534)
(9.90039 0 8.80725)
(10.5943 1.53196e-18 9.80066)
(9.99122 -1.2825e-18 0.118036)
(9.98335 6.61604e-19 0.228965)
(9.96902 0 0.339121)
(9.94598 0 0.451978)
(9.91626 0 0.569346)
(9.88138 -7.61246e-19 0.692681)
(9.84194 -3.93379e-19 0.823083)
(9.79806 8.10865e-19 0.961412)
(9.75029 8.36283e-19 1.10874)
(9.69888 -8.57155e-19 1.2665)
(9.64417 -8.8345e-19 1.43629)
(9.58713 1.12866e-18 1.61947)
(9.52831 -9.2851e-19 1.81713)
(9.46829 9.48035e-19 2.03064)
(9.40819 -1.45137e-18 2.26159)
(9.34919 9.86412e-19 2.51175)
(9.2924 1.50565e-18 2.78296)
(9.23974 -2.03273e-18 3.07733)
(9.19329 5.0987e-19 3.39712)
(9.15539 0 3.74484)
(9.12942 -1.54824e-18 4.12333)
(9.11926 -1.04912e-18 4.53544)
(9.1304 -1.03435e-18 4.98416)
(9.17002 -2.02344e-18 5.47228)
(9.24826 -2.12075e-20 6.00122)
(9.37376 9.7233e-19 6.56933)
(9.57725 -2.54672e-20 7.16544)
(9.80903 5.53742e-20 7.76003)
(10.1488 -4.90139e-19 8.31035)
(10.7201 4.50378e-19 8.97119)
(9.99165 6.24035e-19 0.121514)
(9.98531 -1.36786e-18 0.23584)
(9.9734 8.33984e-20 0.349236)
(9.95346 0 0.465358)
(9.9277 1.78814e-19 0.586153)