/*--------------------------------*- C++ -*----------------------------------*\
| =========                 |                                                 |
| \\      /  F ield         | OpenFOAM: The Open Source CFD Toolbox           |
|  \\    /   O peration     | Version:  dev                                   |
|   \\  /    A nd           | Web:      www.OpenFOAM.org                      |
|    \\/     M anipulation  |                                                 |
\*---------------------------------------------------------------------------*/
FoamFile
{
    version     2.0;
    format      ascii;
    class       volVectorField;
    location    "1.52";
    object      cellDisplacement;
}
// * * * * * * * * * * * * * * * * * * * * * * * * * * * * * * * * * * * * * //

dimensions      [0 1 0 0 0 0 0];

internalField   nonuniform List<vector> 
465
(
(0.371312 0 -0.0091114)
(0.376604 0 -0.00851898)
(0.378539 0 -0.00792161)
(0.377603 0 -0.00734239)
(0.374072 0 -0.00678887)
(0.368107 0 -0.00626348)
(0.359791 0 -0.00576606)
(0.349154 0 -0.00529489)
(0.336193 0 -0.00484727)
(0.320876 0 -0.00441989)
(0.303154 0 -0.00400902)
(0.282961 0 -0.00361059)
(0.260222 0 -0.00322027)
(0.234856 0 -0.00283342)
(0.206775 0 -0.00244506)
(0.175888 0 -0.00204975)
(0.142106 0 -0.00164143)
(0.105336 0 -0.00121325)
(0.0655082 0 -0.000757385)
(0.0223907 0 -0.000262518)
(0.372719 0 -0.0268298)
(0.377718 0 -0.025075)
(0.379441 0 -0.0233423)
(0.378343 0 -0.0216606)
(0.374685 0 -0.0200498)
(0.368618 0 -0.0185172)
(0.360219 0 -0.0170629)
(0.349514 0 -0.0156824)
(0.336497 0 -0.0143681)
(0.321134 0 -0.0131108)
(0.303373 0 -0.0118997)
(0.283148 0 -0.0107234)
(0.260383 0 -0.00956905)
(0.234995 0 -0.00842333)
(0.206894 0 -0.00727161)
(0.17599 0 -0.00609793)
(0.142191 0 -0.00488449)
(0.105405 0 -0.00361101)
(0.0655563 0 -0.00225447)
(0.0224108 0 -0.000781424)
(0.37545 0 -0.0434434)
(0.37989 0 -0.040656)
(0.381203 0 -0.0379054)
(0.379787 0 -0.0352303)
(0.375879 0 -0.03266)
(0.36961 0 -0.0302066)
(0.361048 0 -0.0278712)
(0.35021 0 -0.0256474)
(0.337083 0 -0.0235241)
(0.321629 0 -0.0214872)
(0.303793 0 -0.01952)
(0.283505 0 -0.0176044)
(0.260687 0 -0.0157205)
(0.235255 0 -0.0138468)
(0.207116 0 -0.0119597)
(0.176178 0 -0.0100335)
(0.142347 0 -0.00803956)
(0.105528 0 -0.00594483)
(0.0656416 0 -0.00371194)
(0.0224453 0 -0.00128648)
(0.379381 0 -0.0588932)
(0.383034 0 -0.0552244)
(0.383752 0 -0.0515731)
(0.381875 0 -0.0480109)
(0.3776 0 -0.0445772)
(0.371037 0 -0.0412894)
(0.362235 0 -0.0381496)
(0.351202 0 -0.0351503)
(0.337914 0 -0.0322777)
(0.322327 0 -0.0295137)
(0.30438 0 -0.0268369)
(0.284001 0 -0.0242234)
(0.261108 0 -0.0216467)
(0.235611 0 -0.0190783)
(0.207417 0 -0.0164865)
(0.176431 0 -0.0138367)
(0.142554 0 -0.01109)
(0.105689 0 -0.00820169)
(0.0657505 0 -0.00512115)
(0.022488 0 -0.00177444)
(0.384361 0 -0.073195)
(0.387027 0 -0.0687421)
(0.386992 0 -0.0643004)
(0.384526 0 -0.0599563)
(0.379782 0 -0.0557565)
(0.372842 0 -0.0517225)
(0.363733 0 -0.0478573)
(0.352448 0 -0.0441527)
(0.338953 0 -0.040593)
(0.323195 0 -0.037157)
(0.305107 0 -0.0338195)
(0.284611 0 -0.0305517)
(0.261619 0 -0.0273217)
(0.236041 0 -0.0240945)
(0.207777 0 -0.0208313)
(0.176729 0 -0.0174894)
(0.142796 0 -0.0140207)
(0.105874 0 -0.0103701)
(0.0658737 0 -0.00647461)
(0.0225352 0 -0.00224258)
(0.390183 0 -0.0863206)
(0.391716 0 -0.0811833)
(0.390804 0 -0.076058)
(0.387645 0 -0.0710352)
(0.382347 0 -0.0661658)
(0.374958 0 -0.0614739)
(0.365485 0 -0.056963)
(0.3539 0 -0.0526244)
(0.340158 0 -0.0484411)
(0.324196 0 -0.0443898)
(0.305939 0 -0.0404421)
(0.285303 0 -0.0365656)
(0.262197 0 -0.0327236)
(0.236522 0 -0.0288756)
(0.208176 0 -0.0249763)
(0.177056 0 -0.0209761)
(0.143057 0 -0.0168191)
(0.106071 0 -0.0124402)
(0.0660032 0 -0.00776593)
(0.022584 0 -0.00268857)
(0.396626 0 -0.0982555)
(0.39693 0 -0.092535)
(0.395053 0 -0.0868295)
(0.391125 0 -0.0812286)
(0.385207 0 -0.0757839)
(0.377315 0 -0.0705218)
(0.36743 0 -0.0654445)
(0.355506 0 -0.0605431)
(0.341485 0 -0.0558)
(0.325291 0 -0.0511906)
(0.306843 0 -0.0466843)
(0.28605 0 -0.0422458)
(0.262813 0 -0.0378345)
(0.23703 0 -0.0334052)
(0.208593 0 -0.0289066)
(0.177392 0 -0.0242839)
(0.143322 0 -0.0194741)
(0.106269 0 -0.0144037)
(0.0661319 0 -0.00898987)
(0.0226319 0 -0.00311058)
(0.403461 0 -0.109)
(0.402489 0 -0.102796)
(0.399596 0 -0.0966111)
(0.39485 0 -0.090529)
(0.388268 0 -0.0846002)
(0.379834 0 -0.0788541)
(0.369504 0 -0.0732882)
(0.357212 0 -0.067894)
(0.342886 0 -0.0626542)
(0.326441 0 -0.0575437)
(0.307784 0 -0.0525306)
(0.286819 0 -0.0475772)
(0.263442 0 -0.0426402)
(0.237544 0 -0.0376703)
(0.209009 0 -0.03261)
(0.177722 0 -0.027402)
(0.143578 0 -0.0219769)
(0.106458 0 -0.0162541)
(0.066254 0 -0.0101423)
(0.0226771 0 -0.00350718)
(0.410461 0 -0.118566)
(0.408211 0 -0.111977)
(0.404289 0 -0.10541)
(0.398704 0 -0.0989394)
(0.391432 0 -0.092613)
(0.382436 0 -0.0864693)
(0.37164 0 -0.0804895)
(0.358963 0 -0.0746699)
(0.344315 0 -0.0689951)
(0.327604 0 -0.0634395)
(0.308727 0 -0.0579707)
(0.287581 0 -0.0525495)
(0.264057 0 -0.0471305)
(0.238044 0 -0.041662)
(0.209405 0 -0.0360769)
(0.178028 0 -0.0303218)
(0.143811 0 -0.0243207)
(0.106628 0 -0.0179861)
(0.0663652 0 -0.0112203)
(0.022719 0 -0.0038775)
(0.417411 0 -0.126974)
(0.413926 0 -0.120101)
(0.408989 0 -0.113245)
(0.402569 0 -0.106474)
(0.394601 0 -0.0998264)
(0.385026 0 -0.093339)
(0.373761 0 -0.087016)
(0.360689 0 -0.0808367)
(0.345714 0 -0.0747876)
(0.32873 0 -0.0688436)
(0.309628 0 -0.0629715)
(0.288297 0 -0.0571312)
(0.264624 0 -0.0512765)
(0.238506 0 -0.0453573)
(0.209771 0 -0.0393006)
(0.178294 0 -0.0330373)
(0.144009 0 -0.0265007)
(0.106771 0 -0.0195963)
(0.0664642 0 -0.0122225)
(0.0227589 0 -0.00422123)
(0.424113 0 -0.134249)
(0.419442 0 -0.12716)
(0.413537 0 -0.120101)
(0.406313 0 -0.113112)
(0.39768 0 -0.106231)
(0.38754 0 -0.0994738)
(0.3758 0 -0.0928668)
(0.362336 0 -0.0863904)
(0.347034 0 -0.0800266)
(0.329778 0 -0.0737496)
(0.310451 0 -0.0675258)
(0.288935 0 -0.0613149)
(0.265108 0 -0.0550694)
(0.238851 0 -0.0487353)
(0.210022 0 -0.0422499)
(0.178489 0 -0.0355296)
(0.144149 0 -0.0285017)
(0.106869 0 -0.0210732)
(0.0665516 0 -0.013144)
(0.0228106 0 -0.00454045)
(0.430362 0 -0.140404)
(0.424608 0 -0.133188)
(0.417801 0 -0.125999)
(0.409825 0 -0.118869)
(0.400562 0 -0.111829)
(0.389894 0 -0.104894)
(0.377701 0 -0.098076)
(0.363858 0 -0.0913647)
(0.348238 0 -0.0847427)
(0.330718 0 -0.0781848)
(0.311171 0 -0.0716579)
(0.289474 0 -0.0651217)
(0.265499 0 -0.0585282)
(0.239119 0 -0.0518218)
(0.210198 0 -0.0449373)
(0.178604 0 -0.0377975)
(0.144216 0 -0.0303211)
(0.1069 0 -0.022413)
(0.0665321 0 -0.0139668)
(0.0227836 0 -0.00481687)
(0.435984 0 -0.145456)
(0.429293 0 -0.138224)
(0.421686 0 -0.130996)
(0.413028 0 -0.123806)
(0.403185 0 -0.116677)
(0.392023 0 -0.109627)
(0.379408 0 -0.10266)
(0.365207 0 -0.0957718)
(0.349285 0 -0.0889449)
(0.331512 0 -0.0821557)
(0.311757 0 -0.0753721)
(0.289888 0 -0.0685543)
(0.265775 0 -0.0616546)
(0.239285 0 -0.0546168)
(0.210283 0 -0.0473755)
(0.178636 0 -0.0398549)
(0.144213 0 -0.0319709)
(0.106876 0 -0.0236265)
(0.0664964 0 -0.0147138)
(0.0227588 0 -0.00506774)
(0.440887 0 -0.149487)
(0.433399 0 -0.142326)
(0.425099 0 -0.135139)
(0.415842 0 -0.127958)
(0.405479 0 -0.120807)
(0.393869 0 -0.1137)
(0.380869 0 -0.106642)
(0.366338 0 -0.0996291)
(0.350137 0 -0.0926467)
(0.33213 0 -0.0856726)
(0.31218 0 -0.0786763)
(0.290154 0 -0.0716188)
(0.265916 0 -0.0644533)
(0.23933 0 -0.057124)
(0.210261 0 -0.0495657)
(0.178573 0 -0.0417035)
(0.144129 0 -0.0334524)
(0.106791 0 -0.0247149)
(0.066427 0 -0.0153833)
(0.0227282 0 -0.00529296)
(0.444984 0 -0.152565)
(0.436847 0 -0.145552)
(0.42797 0 -0.138478)
(0.4182 0 -0.131371)
(0.407388 0 -0.124255)
(0.395383 0 -0.117144)
(0.382039 0 -0.110046)
(0.367212 0 -0.102956)
(0.35076 0 -0.0958637)
(0.332541 0 -0.0887481)
(0.312418 0 -0.0815803)
(0.290251 0 -0.074323)
(0.265905 0 -0.0669305)
(0.23924 0 -0.059348)
(0.21012 0 -0.0515113)
(0.178406 0 -0.0433462)
(0.14396 0 -0.0347682)
(0.106641 0 -0.0256803)
(0.0663181 0 -0.015976)
(0.0226848 0 -0.00549173)
(0.456397 0 -0.161462)
(0.448293 0 -0.154816)
(0.439643 0 -0.148024)
(0.430294 0 -0.141124)
(0.420096 0 -0.134147)
(0.408897 0 -0.127118)
(0.396549 0 -0.120051)
(0.382903 0 -0.112957)
(0.367813 0 -0.105833)
(0.351135 0 -0.0986701)
(0.332728 0 -0.0914503)
(0.31245 0 -0.0841467)
(0.290162 0 -0.0767237)
(0.265724 0 -0.0691372)
(0.238998 0 -0.061334)
(0.209844 0 -0.0532511)
(0.178123 0 -0.0448158)
(0.143696 0 -0.0359446)
(0.106419 0 -0.0265421)
(0.0661641 0 -0.0165038)
(0.0226262 0 -0.00566797)
(0.459239 0 -0.162586)
(0.450752 0 -0.156282)
(0.441724 0 -0.149776)
(0.43201 0 -0.143109)
(0.421468 0 -0.136314)
(0.409952 0 -0.129419)
(0.397314 0 -0.122442)
(0.383409 0 -0.115394)
(0.368092 0 -0.108276)
(0.35122 0 -0.10108)
(0.332649 0 -0.0937923)
(0.31224 0 -0.086387)
(0.289851 0 -0.0788311)
(0.265342 0 -0.0710824)
(0.238574 0 -0.0630896)
(0.209407 0 -0.0547916)
(0.177701 0 -0.0461175)
(0.143317 0 -0.0369858)
(0.106111 0 -0.0273032)
(0.0659553 0 -0.0169683)
(0.022548 0 -0.00582208)
(0.443005 0 -0.150824)
(0.433036 0 -0.144434)
(0.422241 0 -0.137865)
(0.41048 0 -0.131146)
(0.397613 0 -0.124299)
(0.3835 0 -0.117335)
(0.367999 0 -0.11026)
(0.350968 0 -0.103068)
(0.332266 0 -0.095747)
(0.311753 0 -0.0882743)
(0.289289 0 -0.0806191)
(0.264734 0 -0.0727415)
(0.237949 0 -0.0645923)
(0.208793 0 -0.0561129)
(0.177128 0 -0.0472345)
(0.142815 0 -0.0378783)
(0.10571 0 -0.0279539)
(0.0656874 0 -0.0173635)
(0.022449 0 -0.00595215)
(0.422363 0 -0.138821)
(0.410433 0 -0.132313)
(0.3974 0 -0.125628)
(0.383132 0 -0.118783)
(0.367491 0 -0.111784)
(0.350341 0 -0.10463)
(0.331543 0 -0.097309)
(0.310958 0 -0.089802)
(0.288449 0 -0.0820804)
(0.263876 0 -0.0741069)
(0.2371 0 -0.0658348)
(0.207985 0 -0.0572081)
(0.17639 0 -0.0481609)
(0.142178 0 -0.0386174)
(0.105208 0 -0.0284908)
(0.0653556 0 -0.0176875)
(0.0223276 0 -0.00605759)
(0.40977 0 -0.132935)
(0.396633 0 -0.126441)
(0.382265 0 -0.119745)
(0.366533 0 -0.112852)
(0.349306 0 -0.105766)
(0.33045 0 -0.0984758)
(0.309828 0 -0.0909658)
(0.287305 0 -0.0832098)
(0.262745 0 -0.075173)
(0.236011 0 -0.0668115)
(0.206965 0 -0.0580721)
(0.175473 0 -0.0488922)
(0.141396 0 -0.0391995)
(0.104598 0 -0.0289113)
(0.0649556 0 -0.0179389)
(0.0221825 0 -0.00613801)
(0.38087 0 -0.120229)
(0.365095 0 -0.113469)
(0.347835 0 -0.106477)
(0.32896 0 -0.0992474)
(0.308338 0 -0.0917642)
(0.285836 0 -0.0840045)
(0.261323 0 -0.0759363)
(0.234662 0 -0.0675185)
(0.205721 0 -0.0587012)
(0.174366 0 -0.0494251)
(0.140461 0 -0.0396219)
(0.103874 0 -0.0292136)
(0.0644839 0 -0.0181166)
(0.0220127 0 -0.00619318)
(0.345904 0 -0.10677)
(0.327052 0 -0.0996264)
(0.306467 0 -0.0921975)
(0.284025 0 -0.0844636)
(0.259593 0 -0.076395)
(0.233042 0 -0.0679537)
(0.204241 0 -0.0590931)
(0.173059 0 -0.0497577)
(0.139366 0 -0.0398833)
(0.103031 0 -0.0293968)
(0.0639379 0 -0.0182203)
(0.0218174 0 -0.00622305)
(0.324711 0 -0.0996173)
(0.304203 0 -0.0922684)
(0.281856 0 -0.0845884)
(0.257544 0 -0.0765494)
(0.231139 0 -0.0681167)
(0.202516 0 -0.0592472)
(0.171547 0 -0.0498892)
(0.138105 0 -0.0399829)
(0.102065 0 -0.0294605)
(0.0633157 0 -0.0182498)
(0.0215962 0 -0.0062277)
(0.279322 0 -0.0843813)
(0.255168 0 -0.0764014)
(0.228948 0 -0.0680086)
(0.200541 0 -0.059164)
(0.169824 0 -0.0498199)
(0.136676 0 -0.0399212)
(0.100975 0 -0.0294051)
(0.0626166 0 -0.0182055)
(0.021349 0 -0.00620734)
(0.252463 0 -0.0759538)
(0.226465 0 -0.0676314)
(0.198314 0 -0.0588454)
(0.16789 0 -0.0495515)
(0.135078 0 -0.0396992)
(0.0997617 0 -0.0292315)
(0.0618408 0 -0.0180882)
(0.021076 0 -0.0061623)
(0.195836 0 -0.0582937)
(0.165747 0 -0.049086)
(0.133313 0 -0.0393189)
(0.0984258 0 -0.0289413)
(0.0609899 0 -0.0178989)
(0.0207779 0 -0.00609299)
(0.163401 0 -0.0484262)
(0.131386 0 -0.0387825)
(0.0969716 0 -0.0285362)
(0.0600663 0 -0.0176388)
(0.0204557 0 -0.00599991)
(0.0954041 0 -0.0280182)
(0.0590738 0 -0.0173093)
(0.0201107 0 -0.00588357)
(0.0580173 0 -0.0169118)
(0.0197449 0 -0.00574452)
(0.0193601 0 -0.00558318)
)
;

boundaryField
{
    inlet
    {
        type            cellMotion;
        value           nonuniform 0();
    }
    outlet
    {
        type            cellMotion;
        value           uniform (0 0 0);
    }
    flap
    {
        type            cellMotion;
        value           nonuniform 0();
    }
    upperWall
    {
        type            slip;
    }
    lowerWall
    {
        type            slip;
    }
    frontAndBack
    {
        type            empty;
    }
    procBoundary5to2
    {
        type            processor;
        value           nonuniform List<vector> 
34
(
(0.460988 0 -0.162904)
(0.45228 0 -0.156996)
(0.45228 0 -0.156996)
(0.443449 0 -0.15121)
(0.433327 0 -0.145132)
(0.433327 0 -0.145132)
(0.421802 0 -0.139209)
(0.421802 0 -0.139209)
(0.40847 0 -0.133037)
(0.395287 0 -0.126755)
(0.395287 0 -0.126755)
(0.378931 0 -0.120251)
(0.363156 0 -0.113644)
(0.363156 0 -0.113644)
(0.343505 0 -0.106654)
(0.343505 0 -0.106654)
(0.321935 0 -0.0992298)
(0.301538 0 -0.0919829)
(0.301538 0 -0.0919829)
(0.276426 0 -0.0838496)
(0.276426 0 -0.0838496)
(0.249436 0 -0.0752143)
(0.223695 0 -0.0669901)
(0.223695 0 -0.0669901)
(0.193119 0 -0.0575148)
(0.193119 0 -0.0575148)
(0.160863 0 -0.0475777)
(0.129306 0 -0.0380935)
(0.129306 0 -0.0380935)
(0.0937334 0 -0.0273907)
(0.0937334 0 -0.0273907)
(0.0569042 0 -0.0164484)
(0.0569042 0 -0.0164484)
(0.0189595 0 -0.00540029)
)
;
    }
    procBoundary5to4
    {
        type            processor;
        value           nonuniform List<vector> 
18
(
(0.361871 0 -0.00966191)
(0.363681 0 -0.0284489)
(0.367195 0 -0.0460702)
(0.372225 0 -0.0624194)
(0.378543 0 -0.0774969)
(0.385867 0 -0.0913152)
(0.393907 0 -0.103845)
(0.402373 0 -0.115091)
(0.410978 0 -0.125066)
(0.419464 0 -0.133788)
(0.427599 0 -0.141288)
(0.435135 0 -0.147559)
(0.441876 0 -0.152634)
(0.447705 0 -0.156582)
(0.452533 0 -0.159479)
(0.452533 0 -0.159479)
(0.464102 0 -0.167921)
(0.46732 0 -0.168638)
)
;
    }
}


// ************************************************************************* //
