/*--------------------------------*- C++ -*----------------------------------*\
| =========                 |                                                 |
| \\      /  F ield         | OpenFOAM: The Open Source CFD Toolbox           |
|  \\    /   O peration     | Version:  dev                                   |
|   \\  /    A nd           | Web:      www.OpenFOAM.org                      |
|    \\/     M anipulation  |                                                 |
\*---------------------------------------------------------------------------*/
FoamFile
{
    version     2.0;
    format      ascii;
    class       volVectorField;
    location    "3.61";
    object      Force;
}
// * * * * * * * * * * * * * * * * * * * * * * * * * * * * * * * * * * * * * //

dimensions      [1 1 -2 0 0 0 0];

internalField   uniform (0 0 0);

boundaryField
{
    inlet
    {
        type            calculated;
        value           nonuniform 0();
    }
    outlet
    {
        type            calculated;
        value           nonuniform 0();
    }
    flap
    {
        type            calculated;
        value           nonuniform List<vector> 
33
(
(3.82881 1.78029e-17 -0.088896)
(3.80326 1.68825e-17 -0.159031)
(3.78368 1.40858e-17 -0.207302)
(3.76857 2.54991e-18 -0.222204)
(3.75397 2.54947e-18 -0.212814)
(3.73439 1.48624e-17 -0.187417)
(3.70681 1.48096e-17 -0.153889)
(3.66872 -1.25047e-18 -0.117304)
(3.61611 -2.97097e-22 -0.0809775)
(3.54424 1.60554e-17 -0.0466969)
(3.44589 -1.25617e-22 -0.0152881)
(3.30858 1.61266e-17 0.0107316)
(3.10693 3.95617e-23 0.0283493)
(2.78214 1.62783e-17 0.0359858)
(2.16794 1.61904e-17 0.0319783)
(-0.00293706 -2.22712e-20 0.528512)
(-0.00347295 -8.04823e-18 0.331055)
(-0.00253112 -8.31867e-23 0.126246)
(-0.0132559 1.29144e-41 0.000263166)
(-0.0124356 1.57726e-17 0.000334005)
(-0.0112969 -1.56361e-23 0.000314605)
(-0.0101824 1.14804e-23 0.000198067)
(-0.00956739 1.64352e-17 6.60471e-05)
(-0.00997435 -4.50612e-26 -1.8431e-05)
(-0.0118417 -3.94523e-21 -2.9924e-05)
(-0.0152487 1.55118e-23 1.18245e-05)
(-0.019736 1.27042e-23 5.66275e-05)
(-0.0245112 -4.09732e-21 6.16635e-05)
(-0.0289594 -1.24722e-24 2.40189e-05)
(-0.033266 1.24342e-24 9.09645e-05)
(-0.0364725 0 0.000132466)
(-0.0355258 1.63599e-17 0.000333666)
(-0.0262667 1.33653e-23 0.000520717)
)
;
    }
    upperWall
    {
        type            calculated;
        value           nonuniform 0();
    }
    lowerWall
    {
        type            calculated;
        value           uniform (0 0 0);
    }
    frontAndBack
    {
        type            empty;
    }
    procBoundary4to1
    {
        type            processor;
        value           uniform (0 0 0);
    }
    procBoundary4to2
    {
        type            processor;
        value           uniform (0 0 0);
    }
    procBoundary4to3
    {
        type            processor;
        value           uniform (0 0 0);
    }
    procBoundary4to5
    {
        type            processor;
        value           uniform (0 0 0);
    }
}


// ************************************************************************* //
