/*--------------------------------*- C++ -*----------------------------------*\
| =========                 |                                                 |
| \\      /  F ield         | OpenFOAM: The Open Source CFD Toolbox           |
|  \\    /   O peration     | Version:  dev                                   |
|   \\  /    A nd           | Web:      www.OpenFOAM.org                      |
|    \\/     M anipulation  |                                                 |
\*---------------------------------------------------------------------------*/
FoamFile
{
    version     2.0;
    format      ascii;
    class       volVectorField;
    location    "1.17";
    object      U;
}
// * * * * * * * * * * * * * * * * * * * * * * * * * * * * * * * * * * * * * //

dimensions      [0 1 -1 0 0 0 0];

internalField   nonuniform List<vector> 
465
(
(9.82491 7.36969e-19 4.18802)
(10.0529 -1.42305e-18 4.13421)
(10.167 6.96613e-19 4.48997)
(10.3125 -1.38997e-20 4.85883)
(10.2657 6.90804e-19 4.05625)
(10.3945 0 4.38295)
(10.5515 -1.34342e-18 4.71669)
(10.7396 0 5.05238)
(10.9606 4.96554e-19 5.38327)
(10.4622 -6.65392e-19 3.95802)
(10.6014 -3.24239e-19 4.2566)
(10.7656 9.84221e-19 4.55772)
(10.9561 -1.58343e-19 4.85669)
(11.1735 1.61241e-19 5.14773)
(11.417 0 5.42447)
(11.6853 3.07486e-19 5.6797)
(10.6417 6.33228e-19 3.84316)
(10.7881 -7.84642e-20 4.11523)
(10.9561 7.97096e-20 4.38671)
(11.1461 6.22023e-19 4.65346)
(11.3578 -6.16648e-19 4.91072)
(11.5898 0 5.15349)
(11.8403 -3.0348e-19 5.37673)
(12.1018 0 5.57505)
(12.4037 -2.94946e-19 5.74872)
(10.8043 -1.23387e-18 3.71477)
(10.9553 0 3.96233)
(11.1247 -6.08884e-19 4.2072)
(11.3123 -6.1259e-19 4.44586)
(11.5172 6.07786e-19 4.67449)
(11.7379 -2.98878e-19 4.88923)
(11.9722 0 5.08654)
(12.2144 0 5.26279)
(12.4896 2.92282e-19 5.41763)
(10.9504 1.19489e-18 3.57544)
(11.1039 0 3.80057)
(11.273 5.98712e-19 4.02171)
(11.457 -2.95093e-19 4.23591)
(11.6548 5.81929e-19 4.44019)
(11.8648 2.77414e-19 4.63167)
(12.0849 -3.00488e-19 4.80782)
(12.3104 2.88758e-19 4.96629)
(12.564 -2.87202e-19 5.10682)
(11.0805 -5.4598e-19 3.42727)
(11.2351 0 3.63199)
(11.4027 0 3.83197)
(11.5825 2.90218e-19 4.02486)
(11.7734 -2.81535e-19 4.20833)
(11.9736 5.80979e-19 4.38029)
(12.1813 -2.85921e-19 4.53893)
(12.3927 -3.37089e-22 4.68272)
(12.6285 -1.11114e-18 4.81163)
(11.1957 -1.41518e-19 3.27191)
(11.3502 0 3.45809)
(11.5155 8.37319e-19 3.63921)
(11.6909 -8.48878e-19 3.81342)
(11.875 -2.82035e-19 3.97896)
(12.0664 -5.53496e-19 4.13428)
(12.2634 5.66004e-19 4.27812)
(12.4629 -2.78529e-19 4.40945)
(12.6841 0 4.52849)
(11.2966 0 3.11063)
(11.4503 -5.41768e-19 3.27998)
(11.613 -2.64677e-19 3.44424)
(11.7839 8.29065e-19 3.60197)
(11.9618 -5.42134e-19 3.75186)
(12.1453 1.36871e-18 3.89276)
(12.3331 -9.57154e-19 4.02379)
(12.5225 4.16172e-19 4.14428)
(12.7317 9.38397e-19 4.2546)
(11.3844 2.62641e-19 2.94441)
(11.5367 -2.68026e-19 3.09845)
(11.6965 5.28188e-19 3.24756)
(11.8631 -8.05721e-19 3.39062)
(12.0352 0 3.52666)
(12.2118 2.60995e-19 3.65484)
(12.3915 -6.75083e-19 3.77456)
(12.5723 2.30568e-22 3.88536)
(12.7715 1.33862e-19 3.98773)
(11.3165 0 2.6303)
(11.46 0 2.77404)
(11.6106 2.57624e-19 2.91408)
(11.7674 5.1446e-19 3.04946)
(11.9298 2.51576e-19 3.17933)
(12.0967 -5.2698e-19 3.30294)
(12.267 0 3.41972)
(12.4399 -1.16587e-18 3.52923)
(12.6133 1.18933e-18 3.63118)
(12.8041 1.31167e-19 3.72612)
(11.3819 0 2.46941)
(11.5245 -4.96496e-19 2.60012)
(11.673 7.53504e-19 2.72727)
(11.8269 -5.09705e-19 2.8501)
(11.9853 -7.56033e-19 2.96796)
(12.1474 3.8688e-19 3.08028)
(12.3123 1.274e-19 3.18666)
(12.4791 1.1408e-18 3.2868)
(12.6462 -1.03513e-18 3.38052)
(12.8297 -1.20765e-18 3.46837)
(11.4374 -4.79764e-19 2.30457)
(11.5787 4.90028e-19 2.42311)
(11.7252 0 2.53831)
(11.8761 0 2.64955)
(12.0308 -2.42329e-19 2.75635)
(12.1886 6.25638e-19 2.85828)
(12.3485 -1.11258e-18 2.95504)
(12.5099 1.99966e-18 3.04644)
(12.6715 -1.01209e-18 3.13236)
(12.8487 1.25804e-19 3.21338)
(11.484 0 2.13623)
(11.6239 -4.69901e-19 2.24335)
(11.7681 7.12487e-21 2.34736)
(11.9162 7.52682e-21 2.44782)
(12.0674 -1.12378e-19 2.54431)
(12.2212 4.88677e-19 2.63655)
(12.3767 9.64674e-19 2.72431)
(12.5334 -1.39769e-19 2.80745)
(12.6901 -9.89266e-19 2.88591)
(12.8618 8.50268e-19 2.96026)
(11.5224 2.25994e-19 1.96471)
(11.6607 -4.63681e-19 2.06104)
(11.8028 0 2.15454)
(11.9481 -3.47058e-19 2.24485)
(12.0961 1.4069e-18 2.33167)
(12.2461 -1.89062e-18 2.41477)
(12.3977 -1.02504e-19 2.49399)
(12.5501 1.0821e-18 2.56925)
(12.7025 0 2.6405)
(12.8692 -8.92284e-19 2.7083)
(11.5535 2.22878e-19 1.79025)
(11.6901 5.5695e-19 1.87633)
(11.83 -4.54969e-19 1.95985)
(11.9727 3.37685e-19 2.04055)
(12.1177 -2.32524e-19 2.11819)
(12.2644 -1.15083e-19 2.19259)
(12.4123 3.51521e-22 2.26365)
(12.5609 5.81932e-20 2.33131)
(12.7094 -9.28353e-19 2.39554)
(12.8718 1.00866e-18 2.45688)
(11.5781 0 1.61306)
(11.713 3.2403e-19 1.68932)
(11.8508 -5.52787e-19 1.76331)
(11.991 1.10665e-19 1.83482)
(12.1332 7.74787e-19 1.90367)
(12.2768 -7.93556e-19 1.96974)
(12.4213 -7.84459e-19 2.03293)
(12.5665 -4.22559e-20 2.09321)
(12.7115 9.79477e-19 2.15056)
(12.87 -5.75582e-20 2.2055)
(11.597 -4.23382e-19 1.43317)
(11.7302 0 1.49998)
(11.8659 1.07379e-19 1.5648)
(12.0038 -1.08248e-19 1.62746)
(12.1433 0 1.68783)
(12.2841 8.70523e-19 1.74582)
(12.4257 -8.89613e-19 1.80136)
(12.5677 0 1.85443)
(12.7096 -5.5892e-20 1.90502)
(12.8645 0 1.9536)
(11.6109 1.0223e-19 1.25078)
(11.7424 -4.10963e-19 1.30841)
(11.8762 5.24332e-19 1.36433)
(12.0119 0 1.41841)
(12.149 -1.05974e-19 1.47054)
(12.2872 0 1.52066)
(12.4261 -5.37828e-20 1.56872)
(12.5653 0 1.61471)
(12.7043 8.6556e-19 1.65861)
(12.856 -1.78217e-18 1.70087)
(11.6205 -9.98872e-20 1.06551)
(11.7505 0 1.11418)
(11.8824 -1.01821e-19 1.16141)
(12.0161 4.07444e-19 1.2071)
(12.151 -3.6456e-19 1.25117)
(12.2869 0 1.29356)
(12.4233 8.86458e-19 1.33425)
(12.5599 -9.0494e-19 1.37323)
(12.6964 2.6595e-20 1.41049)
(12.8453 2.68037e-20 1.44641)
(11.6265 -3.85926e-19 0.877989)
(11.755 4.81976e-21 0.917847)
(11.8853 3.98512e-19 0.956532)
(12.017 -4.99104e-20 0.993969)
(12.15 4.50815e-19 1.0301)
(12.2837 -8.12756e-19 1.06488)
(12.4179 4.12416e-19 1.09829)
(12.5523 4.61105e-19 1.13032)
(12.6865 -1.26887e-18 1.16098)
(12.8328 8.42805e-19 1.1906)
(11.6297 4.72137e-20 0.6866)
(11.7567 -3.79597e-19 0.717729)
(11.8855 3.88093e-19 0.74794)
(12.0156 4.35478e-19 0.777177)
(12.1468 -4.44391e-19 0.805397)
(12.2786 0 0.832571)
(12.4109 0 0.858683)
(12.5433 -3.99279e-19 0.883725)
(12.6756 4.07938e-19 0.907699)
(12.8197 0 0.930872)
(11.6305 3.19856e-19 0.493945)
(11.7562 -7.43789e-19 0.516403)
(11.8835 3.77921e-19 0.538211)
(12.0121 -3.76722e-19 0.559331)
(12.1417 2.89683e-20 0.579733)
(12.2719 3.64289e-19 0.599397)
(12.4024 0 0.618311)
(12.533 0 0.636472)
(12.6635 -3.91943e-19 0.653881)
(12.8056 8.07129e-19 0.670743)
(11.6295 2.02588e-19 0.294516)
(11.7541 0 0.30812)
(11.8802 -2.28533e-20 0.321313)
(12.0075 0 0.334073)
(12.1358 2.32926e-20 0.346385)
(12.2646 2.34909e-20 0.358241)
(12.3937 0 0.369638)
(12.523 -1.19286e-20 0.380576)
(12.6521 0 0.391062)
(12.7927 -2.10112e-19 0.401241)
(11.4373 -1.08879e-19 0.0981788)
(11.5577 1.04914e-21 0.103171)
(11.6799 2.34261e-20 0.108019)
(11.8036 9.07304e-20 0.112713)
(11.9284 0 0.117244)
(12.054 -9.11709e-20 0.121607)
(12.1801 9.31641e-20 0.125799)
(12.3064 1.16593e-20 0.129818)
(12.4327 9.33092e-20 0.133658)
(12.5705 -8.94339e-20 0.137373)
(12.5746 -1.24228e-19 5.82359)
(12.6441 0 5.48579)
(12.7887 0 5.54496)
(12.9099 1.88619e-18 5.59797)
(12.7055 0 5.1698)
(12.838 -1.97184e-18 5.22563)
(12.949 -2.65093e-20 5.2766)
(12.7597 1.94627e-18 4.8703)
(12.8824 1.18979e-19 4.92322)
(12.9855 5.80669e-20 4.97224)
(12.8069 1.88156e-18 4.58337)
(12.9219 -1.89297e-18 4.63358)
(13.0185 5.76923e-20 4.68063)
(12.8476 -8.83241e-20 4.306)
(12.9562 -8.58541e-20 4.35358)
(13.0476 -1.82699e-18 4.39856)
(12.8817 -1.76185e-18 4.03584)
(12.985 1.82794e-18 4.08079)
(13.0722 -5.56673e-20 4.12358)
(12.9094 0 3.77105)
(13.0083 0 3.81334)
(13.0919 0 3.8538)
(12.9309 1.83016e-18 3.51018)
(13.0261 -2.73016e-20 3.54978)
(13.1065 2.69263e-20 3.58781)
(12.9464 -5.40015e-20 3.25211)
(13.0383 2.67342e-20 3.28897)
(13.1161 -2.63737e-20 3.32447)
(12.9563 -4.65934e-20 2.99593)
(13.0453 -1.68704e-18 3.03001)
(13.1208 2.58851e-20 3.0629)
(12.961 1.69201e-18 2.74092)
(13.0475 0 2.77219)
(13.1208 -2.53427e-20 2.80241)
(12.961 0 2.48646)
(13.0453 0 2.51488)
(13.1167 0 2.54238)
(12.9569 -1.57714e-18 2.23205)
(13.0391 1.57979e-18 2.25761)
(13.1089 2.42991e-20 2.28234)
(12.9494 -1.54217e-18 1.97711)
(13.0298 1.54427e-18 1.99978)
(13.0981 -2.37675e-20 2.02173)
(12.9391 1.52228e-18 1.72135)
(13.0178 -1.4948e-18 1.74112)
(13.0847 1.49384e-18 1.76025)
(12.9268 -1.15586e-20 1.46383)
(13.004 0 1.48065)
(13.0696 -1.4371e-18 1.49694)
(12.9128 -1.42649e-18 1.20497)
(12.9887 1.43864e-18 1.21886)
(13.0532 -3.99116e-27 1.2323)
(12.8985 -7.1246e-19 0.94211)
(12.9731 7.01736e-19 0.952963)
(13.0367 -5.41156e-21 0.963461)
(12.8831 4.50236e-21 0.678927)
(12.9568 -6.84261e-19 0.686819)
(13.0196 -1.05572e-20 0.694439)
(12.8694 3.36199e-19 0.406126)
(12.9421 2.59223e-21 0.410787)
(13.0041 7.7153e-21 0.415276)
(12.6457 1.63255e-19 0.139108)
(12.7172 -1.65806e-19 0.140738)
(12.7781 -2.51934e-21 0.142326)
(13.1255 -2.2585e-18 5.68565)
(13.147 1.07377e-18 5.36613)
(13.3565 2.51519e-19 5.4421)
(13.585 0 5.50023)
(13.8068 -4.7294e-19 5.53854)
(13.1694 0 5.06133)
(13.3661 -1.17069e-18 5.14182)
(13.5848 9.68702e-19 5.21086)
(13.8044 -5.05233e-22 5.26683)
(14.0128 0 5.31019)
(14.2065 0 5.34226)
(13.1914 -1.02221e-18 4.76807)
(13.3771 1.06529e-18 4.8498)
(13.586 9.29099e-19 4.92393)
(13.7997 -8.868e-19 4.98919)
(14.0083 8.39649e-19 5.04593)
(14.2099 -8.27032e-19 5.09515)
(14.4032 0 5.13794)
(14.5863 0 5.17534)
(13.2115 1.00951e-18 4.48349)
(13.3882 -9.90901e-19 4.56461)
(13.5882 0 4.64054)
(13.7952 0 4.71025)
(14.0008 -1.33433e-20 4.774)
(14.2038 -8.06511e-19 4.83261)
(14.4041 7.5739e-19 4.88699)
(14.6006 -7.15784e-19 4.93801)
(14.7919 7.90581e-19 4.98647)
(13.2286 6.30036e-20 4.20534)
(13.3978 0 4.28458)
(13.5902 8.52624e-19 4.36028)
(13.7908 -8.67905e-19 4.43149)
(13.9922 1.30556e-20 4.49836)
(14.1937 8.00487e-19 4.56157)
(14.3958 -7.51934e-19 4.62189)
(14.5981 0 4.68008)
(14.7997 4.33319e-20 4.73678)
(13.2421 -1.23676e-19 3.93185)
(13.405 0 4.00831)
(13.5907 -8.42128e-19 4.08238)
(13.7855 8.56665e-19 4.15317)
(13.9824 0 4.2207)
(14.181 1.24574e-20 4.28549)
(14.3824 -7.1953e-19 4.34821)
(14.5863 2.48479e-20 4.40946)
(14.7924 -1.75436e-20 4.46976)
(13.2515 1.21532e-19 3.66169)
(13.4089 0 3.73468)
(13.5887 0 3.80612)
(13.7782 0 3.87515)
(13.9707 0 3.9417)
(14.1661 7.60042e-19 4.00613)
(14.3654 -8.06253e-19 4.06894)
(14.5688 4.47573e-20 4.13062)
(14.776 6.652e-19 4.19162)
(13.2565 -5.95928e-20 3.39384)
(13.4091 9.09491e-19 3.46281)
(13.5838 -1.76569e-18 3.53086)
(13.7684 2.21616e-20 3.59716)
(13.9567 8.20594e-19 3.66155)
(14.1487 7.74739e-19 3.72428)
(14.3453 -1.47758e-18 3.78569)
(14.5469 1.32044e-18 3.84612)
(14.7534 -6.81596e-19 3.90596)
(13.2571 -2.92824e-20 3.12747)
(13.4055 -8.93463e-19 3.192)
(13.5755 1.98942e-20 3.25606)
(13.7557 8.55644e-19 3.31887)
(13.9401 0 3.38023)
(14.1286 7.28265e-19 3.44029)
(14.3223 -2.14756e-20 3.49926)
(14.5215 2.16914e-20 3.55737)
(14.7263 -1.3248e-18 3.61489)
(13.2536 2.86636e-20 2.86194)
(13.3981 2.77075e-20 2.92169)
(13.5639 0 2.98129)
(13.74 -1.27525e-20 3.04003)
(13.9206 7.73368e-19 3.09766)
(14.1057 -8.23631e-21 3.15428)
(14.2964 -1.39137e-18 3.21004)
(14.4931 2.05422e-20 3.26506)
(14.6956 6.18858e-20 3.3195)
(13.2463 8.92194e-19 2.5967)
(13.3873 -4.24434e-20 2.6514)
(13.5492 -8.44543e-19 2.70619)
(13.7215 1.25657e-20 2.76038)
(13.8984 7.50676e-22 2.81374)
(14.0802 0 2.86632)
(14.2677 -2.2019e-20 2.91822)
(14.4616 0 2.96952)
(14.6617 -4.01245e-20 3.02029)
(13.2356 -8.73708e-19 2.33132)
(13.3734 8.57311e-19 2.38077)
(13.5317 1.2818e-20 2.43047)
(13.7003 -1.22912e-20 2.47978)
(13.8739 7.48905e-19 2.52846)
(14.0522 -7.34315e-19 2.57653)
(14.2367 -2.17664e-20 2.62407)
(14.4276 6.76157e-19 2.6711)
(14.625 -6.4421e-19 2.71767)
(13.2221 -8.28156e-19 2.06526)
(13.357 3.96895e-20 2.10932)
(13.5119 7.97894e-19 2.15372)
(13.6772 6.0387e-21 2.19788)
(13.8475 -2.89731e-21 2.24158)
(14.0227 0 2.2848)
(14.2041 2.12783e-20 2.32759)
(14.3921 6.2392e-19 2.36995)
(14.5866 -1.82423e-20 2.41188)
(13.2063 8.10026e-19 1.79826)
(13.3386 -8.58978e-19 1.8368)
(13.4905 -7.78186e-19 1.87574)
(13.6527 7.61175e-19 1.91455)
(13.82 4.26078e-21 1.95301)
(13.9923 -1.09227e-20 1.99112)
(14.1707 6.61196e-19 2.02888)
(14.3558 -1.30258e-18 2.06628)
(14.5476 6.21848e-19 2.10329)
(13.1891 1.6464e-18 1.52933)
(13.319 -1.57996e-18 1.56224)
(13.4682 7.81609e-19 1.59555)
(13.6275 -2.88886e-21 1.6288)
(13.792 -2.77741e-21 1.66181)
(13.9616 6.76e-19 1.69455)
(14.1373 -6.64198e-19 1.72702)
(14.3197 1.96154e-20 1.7592)
(14.5089 -6.12002e-19 1.79106)
(13.1708 7.86032e-19 1.25903)
(13.2986 -7.83873e-19 1.28623)
(13.4453 -1.17415e-20 1.3138)
(13.6021 1.41438e-21 1.34137)
(13.7641 2.72199e-21 1.36875)
(13.9311 1.0446e-20 1.39595)
(14.1043 0 1.42293)
(14.2841 0 1.44968)
(14.4708 -6.30378e-23 1.47622)
(13.1525 4.0202e-19 0.98439)
(13.2784 -3.82605e-19 1.00574)
(13.4229 5.73163e-21 1.0274)
(13.5774 3.48665e-19 1.04908)
(13.7371 -3.46404e-19 1.07064)
(13.9019 0 1.09208)
(14.0727 -3.20328e-19 1.11336)
(14.2503 2.86237e-19 1.13445)
(14.4346 3.20691e-19 1.15537)
(13.1342 -3.7423e-19 0.709605)
(13.2584 5.42364e-21 0.72512)
(13.4009 3.61084e-19 0.740885)
(13.5535 0 0.75666)
(13.7112 0 0.772371)
(13.8739 3.21063e-19 0.788013)
(14.0428 -3.00924e-19 0.803558)
(14.2184 -2.7245e-19 0.818979)
(14.4007 2.6823e-19 0.834271)
(13.1172 3.67557e-19 0.424299)
(13.2401 -3.63705e-19 0.433669)
(13.3811 3.45864e-19 0.443189)
(13.5319 -3.3958e-19 0.452664)
(13.6879 0 0.462057)
(13.849 -3.13138e-19 0.47138)
(14.0162 3.02854e-19 0.480635)
(14.19 4.49379e-21 0.489818)
(14.3707 0 0.498937)
(12.8894 -2.84818e-21 0.145636)
(13.01 8.76656e-20 0.149162)
(13.1484 -8.6057e-20 0.152735)
(13.2968 0 0.156273)
(13.4504 0 0.159764)
(13.609 0 0.163218)
(13.7737 0 0.166643)
(13.945 -4.39277e-21 0.170043)
(14.123 0 0.173433)
)
;

boundaryField
{
    inlet
    {
        type            fixedValue;
        value           nonuniform 0();
    }
    outlet
    {
        type            zeroGradient;
    }
    flap
    {
        type            movingWallVelocity;
        value           nonuniform 0();
    }
    upperWall
    {
        type            noSlip;
    }
    lowerWall
    {
        type            noSlip;
    }
    frontAndBack
    {
        type            empty;
    }
    procBoundary1to0
    {
        type            processor;
        value           nonuniform List<vector> 
18
(
(11.1526 1.36739e-19 2.93768)
(11.2404 -2.62376e-19 2.78664)
(11.2404 -2.62376e-19 2.78664)
(11.1805 -2.55793e-19 2.48386)
(11.2459 -2.4901e-21 2.33596)
(11.3018 4.93095e-22 2.18335)
(11.3491 -4.68638e-19 2.02655)
(11.3885 2.25719e-19 1.86598)
(11.4208 -2.20836e-19 1.70197)
(11.4466 2.13605e-19 1.5348)
(11.4668 -6.27901e-19 1.3646)
(11.482 0 1.1916)
(11.493 0 1.01553)
(11.5003 -3.86286e-19 0.837057)
(11.5047 0 0.654626)
(11.5067 0 0.470889)
(11.5068 1.76235e-19 0.280529)
(11.3189 4.35133e-20 0.0930549)
)
;
    }
    procBoundary1to2
    {
        type            processor;
        value           nonuniform List<vector> 
17
(
(14.9766 2.40069e-19 5.03297)
(14.9999 -6.39166e-19 4.79252)
(15.0003 -6.60146e-19 4.5296)
(14.9869 6.54629e-19 4.25233)
(14.9647 0 3.96554)
(14.9366 -6.40893e-19 3.67208)
(14.9043 -6.71921e-19 3.37351)
(14.8682 -6.04158e-19 3.07059)
(14.829 -5.77016e-19 2.7638)
(14.7879 1.15338e-18 2.45342)
(14.7462 7.31421e-20 2.13995)
(14.7048 -6.18924e-19 1.82262)
(14.6643 0 1.50252)
(14.6258 2.79794e-19 1.17613)
(14.59 0 0.849434)
(14.5583 0 0.507992)
(14.308 0 0.176815)
)
;
    }
    procBoundary1to3
    {
        type            processor;
        value           nonuniform List<vector> 9((9.7582 0 3.82662) (9.96584 1.88796e-20 3.79478) (10.1622 6.83538e-19 3.74027) (10.3458 -6.67958e-19 3.66572) (10.5157 0 3.57397) (10.6712 4.63811e-19 3.46762) (10.8124 0 3.349) (10.9393 3.58327e-20 3.22008) (11.0525 -1.38914e-19 3.08252));
    }
    procBoundary1to4
    {
        type            processor;
        value           nonuniform List<vector> 
30
(
(9.58391 0 4.21408)
(9.91957 2.93232e-18 4.5725)
(9.91957 2.93232e-18 4.5725)
(10.0481 -7.47874e-19 4.978)
(10.494 1.36605e-18 5.23572)
(10.494 1.36605e-18 5.23572)
(10.7145 6.63972e-19 5.61313)
(11.2152 1.49931e-19 5.70165)
(11.2152 1.49931e-19 5.70165)
(11.5026 -3.2038e-19 5.99688)
(11.9684 0 5.90551)
(11.9684 0 5.90551)
(12.3037 -2.99682e-19 6.10547)
(12.4962 -1.26395e-19 6.19003)
(12.7349 -9.70607e-19 5.88691)
(12.7349 -9.70607e-19 5.88691)
(12.8692 8.49331e-19 5.94212)
(13.1061 -6.56334e-19 6.0225)
(13.349 -1.39582e-18 5.75063)
(13.349 -1.39582e-18 5.75063)
(13.5838 9.57009e-19 5.78698)
(13.7979 -4.62481e-19 5.79331)
(14.0069 -4.38257e-19 5.55799)
(14.0069 -4.38257e-19 5.55799)
(14.18 -3.99895e-19 5.56071)
(14.383 4.77519e-20 5.36449)
(14.383 4.77519e-20 5.36449)
(14.5396 0 5.37842)
(14.7571 4.28256e-19 5.20835)
(14.7571 4.28256e-19 5.20835)
)
;
    }
}


// ************************************************************************* //
