/*--------------------------------*- C++ -*----------------------------------*\
| =========                 |                                                 |
| \\      /  F ield         | OpenFOAM: The Open Source CFD Toolbox           |
|  \\    /   O peration     | Version:  dev                                   |
|   \\  /    A nd           | Web:      www.OpenFOAM.org                      |
|    \\/     M anipulation  |                                                 |
\*---------------------------------------------------------------------------*/
FoamFile
{
    version     2.0;
    format      ascii;
    class       pointVectorField;
    location    "0.28";
    object      pointDisplacement;
}
// * * * * * * * * * * * * * * * * * * * * * * * * * * * * * * * * * * * * * //

dimensions      [0 1 0 0 0 0 0];

internalField   nonuniform List<vector> 
1062
(
(0.0140897 0 0)
(0.0130212 0 0)
(0.0117843 0 0)
(0.0103796 0 0)
(0.00881823 0 0)
(0.00713031 0 0)
(0.00538085 0 0)
(0.00370054 0 0)
(0.00236709 0 0)
(0 0 0)
(0.0142338 0 0.000131074)
(0.0132023 0 0.000178256)
(0.012012 0 0.000238791)
(0.0106661 0 0.000315791)
(0.00917859 0 0.00041271)
(0.0075836 0 0.000532942)
(0.0059508 0 0.000678481)
(0.00441439 0 0.00084562)
(0.00324011 0 0.00101051)
(0.00157134 0 0.00136932)
(0.0146565 0 0.000248498)
(0.0137321 0 0.00033742)
(0.0126762 0 0.000450779)
(0.0114982 0 0.000593711)
(0.0102197 0 0.000771386)
(0.00888255 0 0.000987761)
(0.00756272 0 0.00124241)
(0.00639057 0 0.00152239)
(0.00558463 0 0.00178076)
(0.00452432 0 0.00223019)
(0.0153296 0 0.000340054)
(0.0145718 0 0.000460649)
(0.0137228 0 0.000612814)
(0.0128002 0 0.000802069)
(0.0118332 0 0.00103294)
(0.0108688 0 0.00130669)
(0.00997998 0 0.00161658)
(0.00927157 0 0.00193833)
(0.00888162 0 0.00221132)
(0.00842813 0 0.00261801)
(0.0162087 0 0.00039645)
(0.0156604 0 0.000535581)
(0.0150684 0 0.000708737)
(0.0144573 0 0.000920334)
(0.0138613 0 0.00117253)
(0.0133262 0 0.00146228)
(0.0129095 0 0.00177628)
(0.0126735 0 0.00208289)
(0.0126658 0 0.00232122)
(0.0127043 0 0.00263091)
(0.0172369 0 0.000412392)
(0.0169213 0 0.000555784)
(0.0166099 0 0.000731203)
(0.0163319 0 0.000941073)
(0.0161223 0 0.00118463)
(0.0160187 0 0.00145505)
(0.0160544 0 0.00173524)
(0.0162421 0 0.00199289)
(0.0165446 0 0.00217684)
(0.0169485 0 0.00239565)
(0.0183507 0 0.000386986)
(0.0182704 0 0.000521085)
(0.0182365 0 0.000681657)
(0.0182802 0 0.00086892)
(0.0184327 0 0.00107966)
(0.0187194 0 0.00130501)
(0.0191463 0 0.0015279)
(0.0196793 0 0.00172105)
(0.0202127 0 0.0018479)
(0.0208889 0 0.00199593)
(0.0194863 0 0.000323501)
(0.0196247 0 0.000436983)
(0.0198418 0 0.000569049)
(0.0201674 0 0.000717978)
(0.0206264 0 0.000879058)
(0.0212303 0 0.00104336)
(0.021961 0 0.00119684)
(0.0227473 0 0.00132054)
(0.0234358 0 0.00139335)
(0.0243151 0 0.00147587)
(0.0205856 0 0.000228631)
(0.0209107 0 0.000313424)
(0.0213339 0 0.000407839)
(0.0218808 0 0.000508732)
(0.0225685 0 0.000610866)
(0.0233958 0 0.000706732)
(0.0243267 0 0.000787011)
(0.025267 0 0.000842186)
(0.0260373 0 0.000865623)
(0.0270372 0 0.000886557)
(0.0216004 0 0.000111428)
(0.0220701 0 0.000163208)
(0.0226431 0 0.000215745)
(0.0233385 0 0.000265014)
(0.0241652 0 0.000305983)
(0.025112 0 0.000333327)
(0.0261325 0 0.000342957)
(0.0271247 0 0.000334479)
(0.0279053 0 0.00031422)
(0.0289291 0 0.000280303)
(0.0224966 0 -1.79352e-05)
(0.0230641 0 2.72527e-07)
(0.0237266 0 1.14495e-05)
(0.0244955 0 1.118e-05)
(0.0253708 0 -4.96724e-06)
(0.0263339 0 -4.00555e-05)
(0.0273358 0 -9.34731e-05)
(0.0282808 0 -0.000157824)
(0.0290038 0 -0.0002158)
(0.0299578 0 -0.000295603)
(0.0232547 0 -0.000149406)
(0.0238746 0 -0.000161979)
(0.0245704 0 -0.000187528)
(0.0253444 0 -0.000230437)
(0.026188 0 -0.000294391)
(0.027077 0 -0.000380632)
(0.027965 0 -0.000485167)
(0.0287738 0 -0.00059502)
(0.0293768 0 -0.000684445)
(0.0301713 0 -0.000807787)
(0.0238692 0 -0.000274146)
(0.0245026 0 -0.000312117)
(0.0251855 0 -0.000366656)
(0.0259114 0 -0.000441701)
(0.0266632 0 -0.000540124)
(0.0274119 0 -0.000661996)
(0.0281153 0 -0.000801702)
(0.0287181 0 -0.000943551)
(0.0291467 0 -0.00105638)
(0.029695 0 -0.00121428)
(0.0243466 0 -0.000385343)
(0.024964 0 -0.000441748)
(0.0256022 0 -0.000515751)
(0.026247 0 -0.000610382)
(0.0268742 0 -0.000727484)
(0.0274504 0 -0.000866396)
(0.027936 0 -0.00102165)
(0.0282949 0 -0.00117854)
(0.0285085 0 -0.00130487)
(0.0287409 0 -0.00147663)
(0.0247006 0 -0.000478656)
(0.0252836 0 -0.000546064)
(0.0258608 0 -0.000629709)
(0.0264132 0 -0.000731207)
(0.0269125 0 -0.000850861)
(0.0273236 0 -0.000986928)
(0.0276084 0 -0.00113472)
(0.0277396 0 -0.00128472)
(0.0277323 0 -0.0014136)
(0.0275351 0 -0.00159716)
(0.0249516 0 -0.000553039)
(0.025491 0 -0.000624675)
(0.0260035 0 -0.000709349)
(0.0264687 0 -0.000806891)
(0.0268594 0 -0.000915367)
(0.0271441 0 -0.00103032)
(0.0272919 0 -0.00114377)
(0.027283 0 -0.00124275)
(0.0271366 0 -0.0013027)
(0.0262906 0 -0.00162758)
(0.0140897 0 0)
(0.0130212 0 0)
(0.0117843 0 0)
(0.0103796 0 0)
(0.00881823 0 0)
(0.00713031 0 0)
(0.00538085 0 0)
(0.00370054 0 0)
(0.00236709 0 0)
(0 0 0)
(0.0142338 0 0.000131074)
(0.0132023 0 0.000178256)
(0.012012 0 0.000238791)
(0.0106661 0 0.000315791)
(0.00917859 0 0.00041271)
(0.0075836 0 0.000532942)
(0.0059508 0 0.000678481)
(0.00441439 0 0.00084562)
(0.00324011 0 0.00101051)
(0.00157134 0 0.00136932)
(0.0146565 0 0.000248498)
(0.0137321 0 0.00033742)
(0.0126762 0 0.000450779)
(0.0114982 0 0.000593711)
(0.0102197 0 0.000771386)
(0.00888255 0 0.000987761)
(0.00756272 0 0.00124241)
(0.00639057 0 0.00152239)
(0.00558463 0 0.00178076)
(0.00452432 0 0.00223019)
(0.0153296 0 0.000340054)
(0.0145718 0 0.000460649)
(0.0137228 0 0.000612814)
(0.0128002 0 0.000802069)
(0.0118332 0 0.00103294)
(0.0108688 0 0.00130669)
(0.00997998 0 0.00161658)
(0.00927157 0 0.00193833)
(0.00888162 0 0.00221132)
(0.00842813 0 0.00261801)
(0.0162087 0 0.00039645)
(0.0156604 0 0.000535581)
(0.0150684 0 0.000708737)
(0.0144573 0 0.000920334)
(0.0138613 0 0.00117253)
(0.0133262 0 0.00146228)
(0.0129095 0 0.00177628)
(0.0126735 0 0.00208289)
(0.0126658 0 0.00232122)
(0.0127043 0 0.00263091)
(0.0172369 0 0.000412392)
(0.0169213 0 0.000555784)
(0.0166099 0 0.000731203)
(0.0163319 0 0.000941073)
(0.0161223 0 0.00118463)
(0.0160187 0 0.00145505)
(0.0160544 0 0.00173524)
(0.0162421 0 0.00199289)
(0.0165446 0 0.00217684)
(0.0169485 0 0.00239565)
(0.0183507 0 0.000386986)
(0.0182704 0 0.000521085)
(0.0182365 0 0.000681657)
(0.0182802 0 0.00086892)
(0.0184327 0 0.00107966)
(0.0187194 0 0.00130501)
(0.0191463 0 0.0015279)
(0.0196793 0 0.00172105)
(0.0202127 0 0.0018479)
(0.0208889 0 0.00199593)
(0.0194863 0 0.000323501)
(0.0196247 0 0.000436983)
(0.0198418 0 0.000569049)
(0.0201674 0 0.000717978)
(0.0206264 0 0.000879058)
(0.0212303 0 0.00104336)
(0.021961 0 0.00119684)
(0.0227473 0 0.00132054)
(0.0234358 0 0.00139335)
(0.0243151 0 0.00147587)
(0.0205856 0 0.000228631)
(0.0209107 0 0.000313424)
(0.0213339 0 0.000407839)
(0.0218808 0 0.000508732)
(0.0225685 0 0.000610866)
(0.0233958 0 0.000706732)
(0.0243267 0 0.000787011)
(0.025267 0 0.000842186)
(0.0260373 0 0.000865623)
(0.0270372 0 0.000886557)
(0.0216004 0 0.000111428)
(0.0220701 0 0.000163208)
(0.0226431 0 0.000215745)
(0.0233385 0 0.000265014)
(0.0241652 0 0.000305983)
(0.025112 0 0.000333327)
(0.0261325 0 0.000342957)
(0.0271247 0 0.000334479)
(0.0279053 0 0.00031422)
(0.0289291 0 0.000280303)
(0.0224966 0 -1.79352e-05)
(0.0230641 0 2.72527e-07)
(0.0237266 0 1.14495e-05)
(0.0244955 0 1.118e-05)
(0.0253708 0 -4.96724e-06)
(0.0263339 0 -4.00555e-05)
(0.0273358 0 -9.34731e-05)
(0.0282808 0 -0.000157824)
(0.0290038 0 -0.0002158)
(0.0299578 0 -0.000295603)
(0.0232547 0 -0.000149406)
(0.0238746 0 -0.000161979)
(0.0245704 0 -0.000187528)
(0.0253444 0 -0.000230437)
(0.026188 0 -0.000294391)
(0.027077 0 -0.000380632)
(0.027965 0 -0.000485167)
(0.0287738 0 -0.00059502)
(0.0293768 0 -0.000684445)
(0.0301713 0 -0.000807787)
(0.0238692 0 -0.000274146)
(0.0245026 0 -0.000312117)
(0.0251855 0 -0.000366656)
(0.0259114 0 -0.000441701)
(0.0266632 0 -0.000540124)
(0.0274119 0 -0.000661996)
(0.0281153 0 -0.000801702)
(0.0287181 0 -0.000943551)
(0.0291467 0 -0.00105638)
(0.029695 0 -0.00121428)
(0.0243466 0 -0.000385343)
(0.024964 0 -0.000441748)
(0.0256022 0 -0.000515751)
(0.026247 0 -0.000610382)
(0.0268742 0 -0.000727484)
(0.0274504 0 -0.000866396)
(0.027936 0 -0.00102165)
(0.0282949 0 -0.00117854)
(0.0285085 0 -0.00130487)
(0.0287409 0 -0.00147663)
(0.0247006 0 -0.000478656)
(0.0252836 0 -0.000546064)
(0.0258608 0 -0.000629709)
(0.0264132 0 -0.000731207)
(0.0269125 0 -0.000850861)
(0.0273236 0 -0.000986928)
(0.0276084 0 -0.00113472)
(0.0277396 0 -0.00128472)
(0.0277323 0 -0.0014136)
(0.0275351 0 -0.00159716)
(0.0249516 0 -0.000553039)
(0.025491 0 -0.000624675)
(0.0260035 0 -0.000709349)
(0.0264687 0 -0.000806891)
(0.0268594 0 -0.000915367)
(0.0271441 0 -0.00103032)
(0.0272919 0 -0.00114377)
(0.027283 0 -0.00124275)
(0.0271366 0 -0.0013027)
(0.0262906 0 -0.00162758)
(0 0 0)
(0.00260699 0 0)
(0.00418566 0 0)
(0.00614672 0 0)
(0.00816379 0 0)
(0.0100702 0 0)
(0.0117895 0 0)
(0.0132936 0 0)
(0.0145798 0 0)
(0.0156575 0 0)
(0.0165409 0 0)
(0.00154686 0 -0.00150484)
(0.00346312 0 -0.00119856)
(0.00491646 0 -0.00106843)
(0.0067442 0 -0.000912474)
(0.00864288 0 -0.000762773)
(0.0104503 0 -0.000630244)
(0.012089 0 -0.000517552)
(0.0135287 0 -0.000423951)
(0.014764 0 -0.000347346)
(0.0158018 0 -0.000285232)
(0.016654 0 -0.00023514)
(0.00442472 0 -0.00257459)
(0.00577276 0 -0.00218518)
(0.00693352 0 -0.00196923)
(0.00842161 0 -0.00170052)
(0.0100032 0 -0.00143456)
(0.0115378 0 -0.00119407)
(0.0129509 0 -0.000986555)
(0.0142084 0 -0.000812354)
(0.0152986 0 -0.000668626)
(0.0162218 0 -0.000551323)
(0.0169843 0 -0.000456202)
(0.00826781 0 -0.00324436)
(0.00903605 0 -0.00286184)
(0.00984896 0 -0.00261098)
(0.0108975 0 -0.00228565)
(0.0120443 0 -0.00195184)
(0.0131903 0 -0.00164183)
(0.014274 0 -0.00136898)
(0.0152605 0 -0.00113643)
(0.016132 0 -0.000942232)
(0.0168809 0 -0.00078212)
(0.0175053 0 -0.000651134)
(0.0125158 0 -0.00356298)
(0.0127937 0 -0.00323016)
(0.0132532 0 -0.00297832)
(0.0138401 0 -0.00264211)
(0.0145113 0 -0.00228626)
(0.0152175 0 -0.00194709)
(0.0159181 0 -0.00164219)
(0.0165827 0 -0.00137772)
(0.01719 0 -0.00115351)
(0.0177251 0 -0.000966188)
(0.0181781 0 -0.000811108)
(0.0167677 0 -0.00361217)
(0.0166516 0 -0.00332871)
(0.0167827 0 -0.00309499)
(0.0169365 0 -0.00277917)
(0.0171491 0 -0.00243751)
(0.0174192 0 -0.00210454)
(0.0177301 0 -0.00179889)
(0.01806 0 -0.00152865)
(0.0183869 0 -0.00129547)
(0.0186911 0 -0.00109747)
(0.0189561 0 -0.000931054)
(0.0207349 0 -0.00344496)
(0.0203014 0 -0.00320142)
(0.0201452 0 -0.002998)
(0.0199237 0 -0.00272398)
(0.0197334 0 -0.0024234)
(0.0196119 0 -0.00212467)
(0.0195647 0 -0.00184452)
(0.0195796 0 -0.00159142)
(0.0196368 0 -0.0013684)
(0.0197142 0 -0.00117519)
(0.0197907 0 -0.00100968)
(0.0241964 0 -0.00308005)
(0.0235063 0 -0.00288824)
(0.0231163 0 -0.00272736)
(0.022597 0 -0.00251195)
(0.0220847 0 -0.00227227)
(0.0216445 0 -0.00202853)
(0.0212982 0 -0.00179382)
(0.0210429 0 -0.00157585)
(0.0208622 0 -0.00137853)
(0.0207342 0 -0.00120308)
(0.0206359 0 -0.00104907)
(0.0269528 0 -0.00255419)
(0.0260897 0 -0.00243383)
(0.0255347 0 -0.00232788)
(0.0248104 0 -0.00218427)
(0.0240738 0 -0.002019)
(0.0234049 0 -0.00184384)
(0.0228362 0 -0.00166771)
(0.0223719 0 -0.00149714)
(0.022 0 -0.00133649)
(0.0217008 0 -0.00118837)
(0.0214516 0 -0.00105398)
(0.0288727 0 -0.00192825)
(0.0279413 0 -0.00189482)
(0.0273035 0 -0.00185194)
(0.0264774 0 -0.00178719)
(0.0256229 0 -0.00170257)
(0.0248236 0 -0.001602)
(0.0241173 0 -0.00149057)
(0.0235133 0 -0.00137355)
(0.0230047 0 -0.00125562)
(0.0225757 0 -0.00114055)
(0.0222064 0 -0.00103101)
(0.0299222 0 -0.00128364)
(0.0290277 0 -0.00133695)
(0.0283945 0 -0.00135706)
(0.027572 0 -0.00136952)
(0.0267056 0 -0.00136328)
(0.0258732 0 -0.00133539)
(0.0251131 0 -0.00128769)
(0.024439 0 -0.00122436)
(0.0238495 0 -0.0011503)
(0.0233343 0 -0.00107013)
(0.0228782 0 -0.000987712)
(0.0301474 0 -0.0006988)
(0.0293936 0 -0.000825706)
(0.0288486 0 -0.000899591)
(0.0281274 0 -0.000978136)
(0.027345 0 -0.00103927)
(0.0265659 0 -0.00107446)
(0.0258265 0 -0.00108294)
(0.0251446 0 -0.00106798)
(0.0245252 0 -0.00103448)
(0.0239649 0 -0.000987532)
(0.0234544 0 -0.000931777)
(0.0296799 0 -0.000240091)
(0.0291601 0 -0.00041625)
(0.0287736 0 -0.000527233)
(0.0282329 0 -0.000652753)
(0.0276085 0 -0.000762745)
(0.0269483 0 -0.000844839)
(0.0262865 0 -0.000896518)
(0.0256456 0 -0.000920192)
(0.0250379 0 -0.000920374)
(0.0244671 0 -0.000902134)
(0.0239308 0 -0.000870304)
(0.0287242 0 4.31936e-05)
(0.0285195 0 -0.000143876)
(0.0283403 0 -0.000272768)
(0.0280263 0 -0.000421352)
(0.0275991 0 -0.000556411)
(0.0270928 0 -0.000664739)
(0.0265413 0 -0.00074305)
(0.0259723 0 -0.000792769)
(0.0254047 0 -0.000817462)
(0.0248493 0 -0.000821486)
(0.02431 0 -0.000809252)
(0.027516 0 0.00016807)
(0.0277399 0 -2.3153e-05)
(0.0277757 0 -0.000153135)
(0.0276787 0 -0.000297543)
(0.0274389 0 -0.000430715)
(0.0270838 0 -0.000542818)
(0.026648 0 -0.000630186)
(0.026162 0 -0.000692585)
(0.0256494 0 -0.000731837)
(0.0251256 0 -0.00075087)
(0.0245993 0 -0.00075308)
(0.0262729 0 0.000196818)
(0.0271426 0 -0.000124677)
(0.0273104 0 -0.00018452)
(0.0273467 0 -0.00027894)
(0.0272358 0 -0.000380881)
(0.0269973 0 -0.00047628)
(0.0266603 0 -0.00055739)
(0.026253 0 -0.000620702)
(0.0257984 0 -0.000665455)
(0.0253139 0 -0.000692622)
(0.0248105 0 -0.000704166)
(0 0 0)
(0.00260699 0 0)
(0.00418566 0 0)
(0.00614672 0 0)
(0.00816379 0 0)
(0.0100702 0 0)
(0.0117895 0 0)
(0.0132936 0 0)
(0.0145798 0 0)
(0.0156575 0 0)
(0.0165409 0 0)
(0.00154686 0 -0.00150484)
(0.00346312 0 -0.00119856)
(0.00491646 0 -0.00106843)
(0.0067442 0 -0.000912474)
(0.00864288 0 -0.000762773)
(0.0104503 0 -0.000630244)
(0.012089 0 -0.000517552)
(0.0135287 0 -0.000423951)
(0.014764 0 -0.000347346)
(0.0158018 0 -0.000285232)
(0.016654 0 -0.00023514)
(0.00442472 0 -0.00257459)
(0.00577276 0 -0.00218518)
(0.00693352 0 -0.00196923)
(0.00842161 0 -0.00170052)
(0.0100032 0 -0.00143456)
(0.0115378 0 -0.00119407)
(0.0129509 0 -0.000986555)
(0.0142084 0 -0.000812354)
(0.0152986 0 -0.000668626)
(0.0162218 0 -0.000551323)
(0.0169843 0 -0.000456202)
(0.00826781 0 -0.00324436)
(0.00903605 0 -0.00286184)
(0.00984896 0 -0.00261098)
(0.0108975 0 -0.00228565)
(0.0120443 0 -0.00195184)
(0.0131903 0 -0.00164183)
(0.014274 0 -0.00136898)
(0.0152605 0 -0.00113643)
(0.016132 0 -0.000942232)
(0.0168809 0 -0.00078212)
(0.0175053 0 -0.000651134)
(0.0125158 0 -0.00356298)
(0.0127937 0 -0.00323016)
(0.0132532 0 -0.00297832)
(0.0138401 0 -0.00264211)
(0.0145113 0 -0.00228626)
(0.0152175 0 -0.00194709)
(0.0159181 0 -0.00164219)
(0.0165827 0 -0.00137772)
(0.01719 0 -0.00115351)
(0.0177251 0 -0.000966188)
(0.0181781 0 -0.000811108)
(0.0167677 0 -0.00361217)
(0.0166516 0 -0.00332871)
(0.0167827 0 -0.00309499)
(0.0169365 0 -0.00277917)
(0.0171491 0 -0.00243751)
(0.0174192 0 -0.00210454)
(0.0177301 0 -0.00179889)
(0.01806 0 -0.00152865)
(0.0183869 0 -0.00129547)
(0.0186911 0 -0.00109747)
(0.0189561 0 -0.000931054)
(0.0207349 0 -0.00344496)
(0.0203014 0 -0.00320142)
(0.0201452 0 -0.002998)
(0.0199237 0 -0.00272398)
(0.0197334 0 -0.0024234)
(0.0196119 0 -0.00212467)
(0.0195647 0 -0.00184452)
(0.0195796 0 -0.00159142)
(0.0196368 0 -0.0013684)
(0.0197142 0 -0.00117519)
(0.0197907 0 -0.00100968)
(0.0241964 0 -0.00308005)
(0.0235063 0 -0.00288824)
(0.0231163 0 -0.00272736)
(0.022597 0 -0.00251195)
(0.0220847 0 -0.00227227)
(0.0216445 0 -0.00202853)
(0.0212982 0 -0.00179382)
(0.0210429 0 -0.00157585)
(0.0208622 0 -0.00137853)
(0.0207342 0 -0.00120308)
(0.0206359 0 -0.00104907)
(0.0269528 0 -0.00255419)
(0.0260897 0 -0.00243383)
(0.0255347 0 -0.00232788)
(0.0248104 0 -0.00218427)
(0.0240738 0 -0.002019)
(0.0234049 0 -0.00184384)
(0.0228362 0 -0.00166771)
(0.0223719 0 -0.00149714)
(0.022 0 -0.00133649)
(0.0217008 0 -0.00118837)
(0.0214516 0 -0.00105398)
(0.0288727 0 -0.00192825)
(0.0279413 0 -0.00189482)
(0.0273035 0 -0.00185194)
(0.0264774 0 -0.00178719)
(0.0256229 0 -0.00170257)
(0.0248236 0 -0.001602)
(0.0241173 0 -0.00149057)
(0.0235133 0 -0.00137355)
(0.0230047 0 -0.00125562)
(0.0225757 0 -0.00114055)
(0.0222064 0 -0.00103101)
(0.0299222 0 -0.00128364)
(0.0290277 0 -0.00133695)
(0.0283945 0 -0.00135706)
(0.027572 0 -0.00136952)
(0.0267056 0 -0.00136328)
(0.0258732 0 -0.00133539)
(0.0251131 0 -0.00128769)
(0.024439 0 -0.00122436)
(0.0238495 0 -0.0011503)
(0.0233343 0 -0.00107013)
(0.0228782 0 -0.000987712)
(0.0301474 0 -0.0006988)
(0.0293936 0 -0.000825706)
(0.0288486 0 -0.000899591)
(0.0281274 0 -0.000978136)
(0.027345 0 -0.00103927)
(0.0265659 0 -0.00107446)
(0.0258265 0 -0.00108294)
(0.0251446 0 -0.00106798)
(0.0245252 0 -0.00103448)
(0.0239649 0 -0.000987532)
(0.0234544 0 -0.000931777)
(0.0296799 0 -0.000240091)
(0.0291601 0 -0.00041625)
(0.0287736 0 -0.000527233)
(0.0282329 0 -0.000652753)
(0.0276085 0 -0.000762745)
(0.0269483 0 -0.000844839)
(0.0262865 0 -0.000896518)
(0.0256456 0 -0.000920192)
(0.0250379 0 -0.000920374)
(0.0244671 0 -0.000902134)
(0.0239308 0 -0.000870304)
(0.0287242 0 4.31935e-05)
(0.0285195 0 -0.000143876)
(0.0283403 0 -0.000272768)
(0.0280263 0 -0.000421352)
(0.0275991 0 -0.000556411)
(0.0270928 0 -0.000664739)
(0.0265413 0 -0.00074305)
(0.0259723 0 -0.000792769)
(0.0254047 0 -0.000817462)
(0.0248493 0 -0.000821486)
(0.02431 0 -0.000809252)
(0.027516 0 0.00016807)
(0.0277399 0 -2.3153e-05)
(0.0277757 0 -0.000153135)
(0.0276787 0 -0.000297543)
(0.0274389 0 -0.000430715)
(0.0270838 0 -0.000542818)
(0.026648 0 -0.000630186)
(0.026162 0 -0.000692585)
(0.0256494 0 -0.000731837)
(0.0251256 0 -0.00075087)
(0.0245993 0 -0.00075308)
(0.0262729 0 0.000196818)
(0.0271426 0 -0.000124677)
(0.0273104 0 -0.00018452)
(0.0273467 0 -0.00027894)
(0.0272358 0 -0.000380881)
(0.0269973 0 -0.00047628)
(0.0266603 0 -0.00055739)
(0.026253 0 -0.000620702)
(0.0257984 0 -0.000665455)
(0.0253139 0 -0.000692622)
(0.0248105 0 -0.000704166)
(0.0251199 0 -0.000609719)
(0.0256133 0 -0.000680186)
(0.0260651 0 -0.000759538)
(0.0264571 0 -0.000845919)
(0.0267672 0 -0.000935319)
(0.0269732 0 -0.00102073)
(0.0270574 0 -0.00109066)
(0.0270157 0 -0.0011273)
(0.0268685 0 -0.0011042)
(0.0266634 0 -0.000987131)
(0.0252202 0 -0.00065015)
(0.0256699 0 -0.00071574)
(0.0260699 0 -0.00078609)
(0.0264057 0 -0.000858295)
(0.0266619 0 -0.000927391)
(0.0268261 0 -0.000986089)
(0.0268936 0 -0.0010244)
(0.0268723 0 -0.00102948)
(0.0267867 0 -0.000985619)
(0.0266874 0 -0.000882776)
(0.0252651 0 -0.000676524)
(0.0256768 0 -0.00073527)
(0.0260349 0 -0.00079529)
(0.0263297 0 -0.000853305)
(0.0265519 0 -0.000904537)
(0.0266966 0 -0.000942801)
(0.0267662 0 -0.000960796)
(0.0267721 0 -0.000950306)
(0.0267355 0 -0.000901929)
(0.0266933 0 -0.000819568)
(0.0252651 0 -0.000691493)
(0.0256449 0 -0.00074267)
(0.0259704 0 -0.000792514)
(0.0262357 0 -0.000837905)
(0.0264368 0 -0.000874864)
(0.0265734 0 -0.000898728)
(0.0266505 0 -0.000904503)
(0.0266791 0 -0.000887242)
(0.026676 0 -0.000842557)
(0.0266644 0 -0.000779508)
(0.0255811 0 -0.000741173)
(0.0258813 0 -0.000781845)
(0.0261259 0 -0.000816861)
(0.0263138 0 -0.000843121)
(0.0264473 0 -0.000857324)
(0.0265319 0 -0.000856298)
(0.0265772 0 -0.000837449)
(0.0265956 0 -0.000799502)
(0.0266007 0 -0.00075181)
(0.0260003 0 -0.000793226)
(0.0261797 0 -0.000811779)
(0.0263119 0 -0.000819811)
(0.0264025 0 -0.000815491)
(0.0264591 0 -0.000797747)
(0.0264908 0 -0.000766829)
(0.0265052 0 -0.000730701)
(0.0261633 0 -0.000786284)
(0.0262579 0 -0.000780784)
(0.0263217 0 -0.000765278)
(0.0263613 0 -0.000740599)
(0.026381 0 -0.000713061)
(0.0261639 0 -0.000737805)
(0.026208 0 -0.000718299)
(0.0262307 0 -0.000697141)
(0.0251199 0 -0.000609719)
(0.0256133 0 -0.000680186)
(0.0260651 0 -0.000759538)
(0.0264571 0 -0.000845919)
(0.0267672 0 -0.000935319)
(0.0269732 0 -0.00102073)
(0.0270574 0 -0.00109066)
(0.0270157 0 -0.0011273)
(0.0268685 0 -0.0011042)
(0.0266634 0 -0.000987131)
(0.0252202 0 -0.00065015)
(0.0256699 0 -0.00071574)
(0.0260699 0 -0.00078609)
(0.0264057 0 -0.000858295)
(0.0266619 0 -0.000927391)
(0.0268261 0 -0.000986089)
(0.0268936 0 -0.0010244)
(0.0268723 0 -0.00102948)
(0.0267867 0 -0.000985619)
(0.0266874 0 -0.000882776)
(0.0252651 0 -0.000676524)
(0.0256768 0 -0.00073527)
(0.0260349 0 -0.00079529)
(0.0263297 0 -0.000853305)
(0.0265519 0 -0.000904537)
(0.0266966 0 -0.000942801)
(0.0267662 0 -0.000960796)
(0.0267721 0 -0.000950306)
(0.0267355 0 -0.000901929)
(0.0266933 0 -0.000819568)
(0.0252651 0 -0.000691493)
(0.0256449 0 -0.00074267)
(0.0259704 0 -0.000792514)
(0.0262357 0 -0.000837905)
(0.0264368 0 -0.000874864)
(0.0265734 0 -0.000898728)
(0.0266505 0 -0.000904503)
(0.0266791 0 -0.000887242)
(0.026676 0 -0.000842557)
(0.0266644 0 -0.000779508)
(0.0255811 0 -0.000741173)
(0.0258813 0 -0.000781845)
(0.0261259 0 -0.000816861)
(0.0263138 0 -0.000843121)
(0.0264473 0 -0.000857324)
(0.0265319 0 -0.000856298)
(0.0265772 0 -0.000837449)
(0.0265956 0 -0.000799502)
(0.0266007 0 -0.00075181)
(0.0260003 0 -0.000793226)
(0.0261797 0 -0.000811779)
(0.0263119 0 -0.000819811)
(0.0264025 0 -0.000815491)
(0.0264591 0 -0.000797747)
(0.0264908 0 -0.000766829)
(0.0265052 0 -0.000730701)
(0.0261633 0 -0.000786284)
(0.0262579 0 -0.000780784)
(0.0263217 0 -0.000765278)
(0.0263613 0 -0.000740599)
(0.026381 0 -0.000713061)
(0.0261639 0 -0.000737805)
(0.026208 0 -0.000718299)
(0.0262307 0 -0.000697141)
(0.0262873 0 -0.00105676)
(0.0262828 0 -0.000359644)
(0.0265389 0 -0.000803813)
(0.0265378 0 -0.00060869)
(0.0266626 0 -0.000428787)
(0.0266338 0 -0.000760692)
(0.0266342 0 -0.000647801)
(0.0266897 0 -0.000528023)
(0.0266735 0 -0.000737694)
(0.0266747 0 -0.00066742)
(0.0266978 0 -0.000586508)
(0.0266592 0 -0.000723152)
(0.0266609 0 -0.00067609)
(0.0266703 0 -0.00061994)
(0.0266023 0 -0.000711793)
(0.0266042 0 -0.000678729)
(0.0266075 0 -0.000638535)
(0.0265103 0 -0.000701502)
(0.0265124 0 -0.00067748)
(0.0265126 0 -0.000647909)
(0.026388 0 -0.000691288)
(0.0263901 0 -0.000673393)
(0.0263887 0 -0.000651152)
(0.0262386 0 -0.000680617)
(0.0262408 0 -0.000667033)
(0.0262384 0 -0.00065001)
(0.0260648 0 -0.00066924)
(0.0260669 0 -0.000658764)
(0.0260639 0 -0.000645537)
(0.0262873 0 -0.00105676)
(0.0262828 0 -0.000359644)
(0.0265389 0 -0.000803813)
(0.0265378 0 -0.00060869)
(0.0266626 0 -0.000428787)
(0.0266338 0 -0.000760692)
(0.0266342 0 -0.000647801)
(0.0266897 0 -0.000528023)
(0.0266735 0 -0.000737694)
(0.0266747 0 -0.00066742)
(0.0266978 0 -0.000586508)
(0.0266592 0 -0.000723152)
(0.0266609 0 -0.00067609)
(0.0266703 0 -0.00061994)
(0.0266023 0 -0.000711793)
(0.0266042 0 -0.000678729)
(0.0266075 0 -0.000638535)
(0.0265103 0 -0.000701502)
(0.0265124 0 -0.00067748)
(0.0265126 0 -0.000647909)
(0.026388 0 -0.000691288)
(0.0263901 0 -0.000673393)
(0.0263887 0 -0.000651152)
(0.0262386 0 -0.000680617)
(0.0262408 0 -0.000667033)
(0.0262384 0 -0.00065001)
(0.0260648 0 -0.00066924)
(0.0260669 0 -0.000658764)
(0.0260639 0 -0.000645537)
(0.0268757 0 -0.0003145)
(0.0270385 0 -0.000291193)
(0.0271029 0 -0.000323734)
(0.0270494 0 -0.000383734)
(0.0268822 0 -0.000452322)
(0.0266176 0 -0.00051788)
(0.0262755 0 -0.000573908)
(0.0258748 0 -0.000617214)
(0.0254311 0 -0.000646838)
(0.0267957 0 -0.000427137)
(0.0268942 0 -0.000382191)
(0.0269345 0 -0.000382618)
(0.0268929 0 -0.000411417)
(0.0267612 0 -0.000454848)
(0.0265435 0 -0.000502543)
(0.0262506 0 -0.000547352)
(0.0258954 0 -0.000584883)
(0.0254896 0 -0.000612862)
(0.0267468 0 -0.000504601)
(0.0267948 0 -0.000454208)
(0.0268053 0 -0.000438372)
(0.0267576 0 -0.000446874)
(0.0266404 0 -0.00047079)
(0.0264509 0 -0.000502348)
(0.0261929 0 -0.000535281)
(0.0258733 0 -0.000565136)
(0.0255002 0 -0.000589053)
(0.0266892 0 -0.000556246)
(0.0267032 0 -0.000508672)
(0.0266891 0 -0.00048553)
(0.026631 0 -0.000481773)
(0.026518 0 -0.000491873)
(0.0263447 0 -0.000510419)
(0.0261106 0 -0.000532583)
(0.0258181 0 -0.00055447)
(0.0254721 0 -0.000573217)
(0.0266102 0 -0.000589522)
(0.0266024 0 -0.000548041)
(0.0265706 0 -0.000522919)
(0.0265027 0 -0.000512338)
(0.0263896 0 -0.000513227)
(0.0262254 0 -0.00052205)
(0.0260074 0 -0.000535304)
(0.0257355 0 -0.000549869)
(0.0254115 0 -0.000563229)
(0.0265062 0 -0.000610075)
(0.0264851 0 -0.000575216)
(0.026441 0 -0.000550958)
(0.0263654 0 -0.000537119)
(0.026251 0 -0.000532236)
(0.0260921 0 -0.00053416)
(0.0258852 0 -0.000540483)
(0.0256286 0 -0.00054885)
(0.0253222 0 -0.000557201)
(0.0263771 0 -0.000621709)
(0.0263478 0 -0.000592876)
(0.0262958 0 -0.000570761)
(0.0262148 0 -0.000555857)
(0.026099 0 -0.000547636)
(0.0259435 0 -0.0005449)
(0.0257444 0 -0.000546079)
(0.0254992 0 -0.00054948)
(0.0252067 0 -0.000553503)
(0.0262238 0 -0.000626881)
(0.0261896 0 -0.000603159)
(0.0261326 0 -0.000583597)
(0.0260481 0 -0.000568877)
(0.0259314 0 -0.000558958)
(0.0257783 0 -0.000553244)
(0.025585 0 -0.000550766)
(0.0253486 0 -0.000550357)
(0.025067 0 -0.000550833)
(0.0260475 0 -0.000627183)
(0.0260104 0 -0.000607658)
(0.0259503 0 -0.000590622)
(0.0258637 0 -0.000576734)
(0.0257467 0 -0.000566171)
(0.0255956 0 -0.000558689)
(0.0254069 0 -0.000553727)
(0.0251774 0 -0.000550511)
(0.0249047 0 -0.000548199)
(0.0258496 0 -0.000623692)
(0.0258107 0 -0.000607557)
(0.0257488 0 -0.000592816)
(0.0256611 0 -0.00058003)
(0.0255442 0 -0.00056946)
(0.025395 0 -0.000561052)
(0.02521 0 -0.000554496)
(0.0249861 0 -0.000549297)
(0.0247207 0 -0.000544882)
(0.0254404 0 -0.000579369)
(0.0253239 0 -0.000569137)
(0.0251763 0 -0.00056034)
(0.0249944 0 -0.000552832)
(0.0247753 0 -0.000546304)
(0.024516 0 -0.000540373)
(0.0249402 0 -0.000556712)
(0.024761 0 -0.000548684)
(0.0245457 0 -0.000541297)
(0.0242915 0 -0.000534322)
(0.0242985 0 -0.000534208)
(0.0240487 0 -0.000526539)
(0.0268757 0 -0.0003145)
(0.0270385 0 -0.000291193)
(0.0271029 0 -0.000323734)
(0.0270494 0 -0.000383734)
(0.0268822 0 -0.000452322)
(0.0266176 0 -0.00051788)
(0.0262755 0 -0.000573908)
(0.0258748 0 -0.000617214)
(0.0254311 0 -0.000646838)
(0.0267957 0 -0.000427137)
(0.0268942 0 -0.000382191)
(0.0269345 0 -0.000382618)
(0.0268929 0 -0.000411417)
(0.0267612 0 -0.000454848)
(0.0265435 0 -0.000502543)
(0.0262506 0 -0.000547352)
(0.0258954 0 -0.000584883)
(0.0254896 0 -0.000612862)
(0.0267468 0 -0.000504601)
(0.0267948 0 -0.000454208)
(0.0268053 0 -0.000438372)
(0.0267576 0 -0.000446874)
(0.0266404 0 -0.00047079)
(0.0264509 0 -0.000502348)
(0.0261929 0 -0.000535281)
(0.0258733 0 -0.000565136)
(0.0255002 0 -0.000589053)
(0.0266892 0 -0.000556246)
(0.0267032 0 -0.000508672)
(0.0266891 0 -0.00048553)
(0.026631 0 -0.000481773)
(0.026518 0 -0.000491873)
(0.0263447 0 -0.000510419)
(0.0261106 0 -0.000532583)
(0.0258181 0 -0.00055447)
(0.0254721 0 -0.000573217)
(0.0266102 0 -0.000589522)
(0.0266024 0 -0.000548041)
(0.0265706 0 -0.000522919)
(0.0265027 0 -0.000512338)
(0.0263896 0 -0.000513227)
(0.0262254 0 -0.00052205)
(0.0260074 0 -0.000535304)
(0.0257355 0 -0.000549869)
(0.0254115 0 -0.000563229)
(0.0265062 0 -0.000610075)
(0.0264851 0 -0.000575216)
(0.026441 0 -0.000550958)
(0.0263654 0 -0.000537119)
(0.026251 0 -0.000532236)
(0.0260921 0 -0.00053416)
(0.0258852 0 -0.000540483)
(0.0256286 0 -0.00054885)
(0.0253222 0 -0.000557201)
(0.0263771 0 -0.000621709)
(0.0263478 0 -0.000592876)
(0.0262958 0 -0.000570761)
(0.0262148 0 -0.000555857)
(0.026099 0 -0.000547636)
(0.0259435 0 -0.0005449)
(0.0257444 0 -0.000546079)
(0.0254992 0 -0.00054948)
(0.0252067 0 -0.000553503)
(0.0262238 0 -0.000626881)
(0.0261896 0 -0.000603159)
(0.0261326 0 -0.000583597)
(0.0260481 0 -0.000568877)
(0.0259314 0 -0.000558958)
(0.0257783 0 -0.000553244)
(0.025585 0 -0.000550766)
(0.0253486 0 -0.000550357)
(0.025067 0 -0.000550833)
(0.0260475 0 -0.000627183)
(0.0260104 0 -0.000607658)
(0.0259503 0 -0.000590622)
(0.0258637 0 -0.000576734)
(0.0257467 0 -0.000566171)
(0.0255956 0 -0.000558689)
(0.0254069 0 -0.000553727)
(0.0251774 0 -0.000550511)
(0.0249047 0 -0.000548199)
(0.0258496 0 -0.000623692)
(0.0258107 0 -0.000607557)
(0.0257488 0 -0.000592816)
(0.0256611 0 -0.00058003)
(0.0255442 0 -0.00056946)
(0.025395 0 -0.000561052)
(0.02521 0 -0.000554496)
(0.0249861 0 -0.000549297)
(0.0247207 0 -0.000544882)
(0.0254404 0 -0.000579369)
(0.0253239 0 -0.000569137)
(0.0251763 0 -0.00056034)
(0.0249944 0 -0.000552832)
(0.0247753 0 -0.000546304)
(0.024516 0 -0.000540373)
(0.0249402 0 -0.000556712)
(0.024761 0 -0.000548684)
(0.0245457 0 -0.000541297)
(0.0242915 0 -0.000534322)
(0.0242985 0 -0.000534208)
(0.0240487 0 -0.000526539)
)
;

boundaryField
{
    inlet
    {
        type            fixedValue;
        value           nonuniform 0();
    }
    outlet
    {
        type            fixedValue;
        value           nonuniform 0();
    }
    flap
    {
        type            fixedValue;
        value           nonuniform List<vector> 
68
(
(0 0 0)
(0.00157134 0 0.00136932)
(0.00157134 0 0.00136932)
(0 0 0)
(0.00452432 0 0.00223019)
(0.00452432 0 0.00223019)
(0.00842813 0 0.00261801)
(0.00842813 0 0.00261801)
(0.0127043 0 0.00263091)
(0.0127043 0 0.00263091)
(0.0169485 0 0.00239565)
(0.0169485 0 0.00239565)
(0.0208889 0 0.00199593)
(0.0208889 0 0.00199593)
(0.0243151 0 0.00147587)
(0.0243151 0 0.00147587)
(0.0270372 0 0.000886557)
(0.0270372 0 0.000886557)
(0.0289291 0 0.000280303)
(0.0289291 0 0.000280303)
(0.0299578 0 -0.000295603)
(0.0299578 0 -0.000295603)
(0.0301713 0 -0.000807787)
(0.0301713 0 -0.000807787)
(0.029695 0 -0.00121428)
(0.029695 0 -0.00121428)
(0.0287409 0 -0.00147663)
(0.0287409 0 -0.00147663)
(0.0275351 0 -0.00159716)
(0.0275351 0 -0.00159716)
(0.0262906 0 -0.00162758)
(0.0262906 0 -0.00162758)
(0.0262873 0 -0.00105676)
(0.0262873 0 -0.00105676)
(0.0262828 0 -0.000359644)
(0.0262828 0 -0.000359644)
(0.0262729 0 0.000196818)
(0.0262729 0 0.000196818)
(0 0 0)
(0 0 0)
(0.00154686 0 -0.00150484)
(0.00154686 0 -0.00150484)
(0.00442472 0 -0.00257459)
(0.00442472 0 -0.00257459)
(0.00826781 0 -0.00324436)
(0.00826781 0 -0.00324436)
(0.0125158 0 -0.00356298)
(0.0125158 0 -0.00356298)
(0.0167677 0 -0.00361217)
(0.0167677 0 -0.00361217)
(0.0207349 0 -0.00344496)
(0.0207349 0 -0.00344496)