/*--------------------------------*- C++ -*----------------------------------*\
| =========                 |                                                 |
| \\      /  F ield         | OpenFOAM: The Open Source CFD Toolbox           |
|  \\    /   O peration     | Version:  dev                                   |
|   \\  /    A nd           | Web:      www.OpenFOAM.org                      |
|    \\/     M anipulation  |                                                 |
\*---------------------------------------------------------------------------*/
FoamFile
{
    version     2.0;
    format      ascii;
    class       volVectorField;
    location    "0.46";
    object      U;
}
// * * * * * * * * * * * * * * * * * * * * * * * * * * * * * * * * * * * * * //

dimensions      [0 1 -1 0 0 0 0];

internalField   nonuniform List<vector> 
465
(
(3.67878 1.08179e-21 0.284809)
(3.09828 -1.89573e-19 0.305778)
(2.50536 2.9715e-19 0.323034)
(1.91107 -2.75875e-19 0.332645)
(1.33127 1.4292e-19 0.327745)
(0.789891 2.97825e-19 0.297429)
(0.32533 -3.04782e-19 0.228547)
(-0.00646864 0 0.115363)
(-0.0271487 6.46856e-19 -0.0432307)
(4.56408 -2.37612e-19 0.714964)
(3.99582 3.06725e-19 0.758277)
(3.41018 3.21904e-20 0.790855)
(2.8169 0 0.805979)
(2.22861 6.34221e-19 0.794035)
(1.66052 -4.34628e-19 0.741838)
(1.12985 0 0.633935)
(0.644061 0 0.460569)
(0.332889 1.60291e-19 0.201097)
(5.01704 -4.66542e-19 1.17482)
(4.48716 -6.8669e-20 1.25144)
(3.93389 3.7651e-19 1.31199)
(3.36287 1.31816e-19 1.34678)
(2.78076 -6.88935e-20 1.34336)
(2.19357 -1.28709e-18 1.28695)
(1.60567 1.17414e-18 1.16367)
(1.0028 0 0.97295)
(0.512063 1.72829e-22 0.714478)
(5.28748 -4.5757e-19 1.59499)
(4.79054 4.70628e-19 1.7072)
(4.26536 6.22372e-20 1.80157)
(3.71317 -1.29769e-19 1.86679)
(3.13525 -1.08183e-18 1.88934)
(2.53125 2.23337e-18 1.8545)
(1.90038 -1.29562e-18 1.75027)
(1.22253 -2.2418e-18 1.58068)
(0.62672 2.33681e-18 1.34636)
(5.47735 4.47892e-19 1.98947)
(5.00331 -4.60062e-19 2.13785)
(4.49718 8.5563e-19 2.26947)
(3.95672 -1.00272e-18 2.37252)
(3.37933 -1.05655e-18 2.43323)
(2.76117 1.22124e-18 2.43715)
(2.10053 -8.52984e-19 2.37231)
(1.37859 1.09358e-18 2.24131)
(0.717823 0 2.03972)
(5.63656 -5.37656e-20 2.3676)
(5.17762 -5.61129e-20 2.55334)
(4.68314 1.77229e-19 2.72554)
(4.14858 0 2.87252)
(3.56855 -1.02854e-18 2.98018)
(2.93746 9.23005e-19 3.0335)
(2.25424 -7.02021e-20 3.01851)
(1.50397 -2.37113e-18 2.93192)
(0.798118 2.39073e-18 2.75922)
(5.79139 9.04695e-19 2.73428)
(5.34329 -8.171e-19 2.95901)
(4.8562 -1.0306e-21 3.17501)
(4.32393 5.89776e-20 3.37104)
(3.73918 -9.97415e-19 3.53263)
(3.09504 1.02458e-18 3.64311)
(2.39063 9.75994e-19 3.68502)
(1.61532 -1.12938e-18 3.6466)
(0.871979 0 3.4979)
(5.95659 -8.26431e-19 3.09157)
(5.51836 1.7051e-18 3.35725)
(5.03764 -9.3555e-19 3.62037)
(4.50657 -5.81417e-20 3.87028)
(3.91639 0 4.09231)
(3.25852 1.00042e-18 4.26782)
(2.53064 -9.98004e-19 4.37461)
(1.72506 -1.0677e-18 4.39128)
(0.942865 -3.61357e-21 4.26703)
(6.14114 7.50414e-19 3.43918)
(5.71454 -8.17272e-19 3.74785)
(5.24213 -8.59544e-19 4.06156)
(4.71423 8.79657e-19 4.37058)
(4.12002 0 4.66043)
(3.44827 0 4.91076)
(2.69321 0 5.09422)
(1.84688 0 5.17887)
(1.01622 -3.33606e-20 5.08769)
(6.35075 7.20283e-20 3.77477)
(5.94008 0 4.1282)
(5.48089 0 4.49579)
(4.96147 8.641e-19 4.86958)
(4.36786 -8.71799e-19 5.23618)
(3.68447 9.12741e-19 5.57449)
(2.89937 -9.41236e-19 5.8525)
(1.99897 1.00692e-18 6.02685)
(1.10117 -2.03191e-18 5.98802)
(6.58902 -2.33341e-20 4.09417)
(6.20097 -7.61997e-19 4.49334)
(5.76296 7.89651e-19 4.91742)
(5.26114 7.91142e-19 5.36145)
(4.67751 -8.22753e-19 5.81499)
(3.98988 -1.29904e-20 6.25847)
(3.17604 0 6.6574)
(2.20786 -9.71359e-19 6.9569)
(1.21289 9.65303e-19 7.00632)
(6.85788 -3.42987e-19 4.3918)
(6.50098 3.60576e-19 4.83612)
(6.09514 -1.18392e-20 5.31761)
(5.62461 3.03043e-21 5.83588)
(5.06718 -1.48495e-20 6.38623)
(4.39201 8.27227e-22 6.95524)
(3.56083 0 7.51207)
(2.51597 8.6295e-19 7.99506)
(1.37889 -8.81992e-19 8.20255)
(7.15735 -1.07215e-20 4.66108)
(6.84138 0 5.14754)
(6.48127 -5.29338e-21 5.68418)
(6.06076 -1.07258e-20 6.27682)
(5.55483 -3.3359e-19 6.93003)
(4.92408 3.64987e-19 7.64394)
(4.10893 7.24797e-19 8.4053)
(2.99855 -7.36957e-19 9.16738)
(1.65583 -7.69648e-19 9.6867)
(7.48509 3.20105e-19 4.89501)
(7.22015 -3.25566e-19 5.41736)
(6.92077 5.25791e-21 6.00209)
(6.57305 1.0593e-20 6.66203)
(6.15382 -3.31586e-19 7.41397)
(5.62167 6.52269e-19 8.28001)
(4.90047 -3.21498e-19 9.28793)
(3.80215 5.16218e-22 10.4702)
(2.17687 0 11.6981)
(7.83601 9.31011e-21 5.0867)
(7.63096 0 5.63519)
(7.40622 0 6.25496)
(7.15437 0 6.96474)
(6.86262 0 7.79277)
(6.50617 -2.65042e-19 8.78509)
(6.03364 2.11093e-20 10.0266)
(5.24085 2.37937e-19 11.7262)
(3.29242 0 14.7939)
(-0.0682726 -2.40745e-19 0.200504)
(-0.51503 -1.06962e-19 0.367806)
(-1.23787 1.01913e-19 0.438644)
(-2.07015 0 0.46957)
(-2.97672 0 0.478855)
(-3.93042 0 0.475866)
(-4.91127 5.96413e-20 0.464793)
(-5.90319 -4.12962e-20 0.447671)
(-6.89213 -3.0857e-20 0.425538)
(-7.86482 0 0.398933)
(-0.289797 2.66631e-20 0.579685)
(-0.842245 -2.61924e-20 0.841335)
(-1.59835 -2.55851e-20 0.987445)
(-2.432 0 1.07699)
(-3.32878 -2.60824e-20 1.12877)
(-4.26661 2.70903e-20 1.15418)
(-5.22769 -2.85307e-20 1.1593)
(-6.19702 1.49806e-20 1.14742)
(-7.1611 0 1.12028)
(-8.1069 0 1.07868)
(-0.325084 -4.99172e-20 1.1689)
(-0.931828 3.50537e-20 1.48759)
(-1.71225 -4.28598e-19 1.68079)
(-2.53153 0 1.80664)
(-3.39439 7.88627e-20 1.88061)
(-4.28665 -2.6872e-20 1.91466)
(-5.19577 2.67812e-19 1.91619)
(-6.11009 -2.63517e-19 1.88968)
(-7.01826 1.36619e-19 1.83763)
(-7.9088 -1.3301e-19 1.7612)
(-0.280364 1.07482e-19 1.86513)
(-0.891083 2.66523e-20 2.19181)
(-1.67758 5.12548e-20 2.39128)
(-2.46809 -4.30635e-19 2.52519)
(-3.2845 3.63114e-19 2.60345)
(-4.11926 0 2.63595)
(-4.96566 0 2.62946)
(-5.81601 2.92588e-19 2.58828)
(-6.66176 2.51876e-20 2.51471)
(-7.49334 -2.727e-19 2.40958)
(-0.19678 -9.30074e-19 2.60622)
(-0.777956 4.10703e-19 2.90932)
(-1.54676 -3.65667e-19 3.08925)
(-2.2904 0 3.21278)
(-3.04827 0 3.28376)
(-3.81674 0 3.30872)
(-4.59382 0 3.29218)
(-5.37516 -2.70948e-19 3.23684)
(-6.15467 1.9342e-19 3.14377)
(-6.92443 -3.091e-19 3.01263)
(-0.0954631 -9.08084e-19 3.34283)
(-0.623925 -9.07076e-19 3.60621)
(-1.35005 8.20989e-19 3.75417)
(-2.02759 5.78394e-20 3.85772)
(-2.71422 -5.94154e-20 3.91508)
(-3.40703 0 3.92944)
(-4.1075 -6.4923e-20 3.90245)
(-4.81369 0 3.83454)
(-5.52142 7.04804e-20 3.72499)
(-6.22398 3.98922e-19 3.57181)
(0.0103084 9.62252e-19 4.03129)
(-0.448185 -9.20664e-19 4.24978)
(-1.10653 0 4.36246)
(-1.69892 -2.75576e-20 4.4433)
(-2.30112 5.95642e-20 4.48551)
(-2.9079 0 4.48917)
(-3.52316 6.51885e-20 4.45309)
(-4.14661 0 4.37532)
(-4.77534 -7.63162e-20 4.2529)
(-5.4037 -1.59778e-19 4.0819)
(0.112376 -4.82826e-19 4.63275)
(-0.26229 4.81114e-19 4.81027)
(-0.828854 -4.82687e-19 4.89103)
(-1.31814 -3.04049e-20 4.95168)
(-1.82272 -5.29145e-19 4.98123)
(-2.33258 5.14197e-19 4.977)
(-2.85339 7.09966e-20 4.93511)
(-3.38564 0 4.85131)
(-3.92726 7.68437e-20 4.72032)
(-4.47348 1.66558e-19 4.53625)
(0.206893 -5.34709e-19 5.11503)
(-0.0720175 5.06792e-19 5.26281)
(-0.525684 -1.63233e-20 5.31974)
(-0.895909 -3.31355e-20 5.36651)
(-1.29058 0 5.38886)
(-1.69276 5.41815e-19 5.38198)
(-2.10991 -6.33157e-20 5.3393)
(-2.54243 -5.52054e-19 5.25433)
(-2.9887 0 5.11977)
(-3.44466 -4.47986e-19 4.92796)
(0.293361 -5.55276e-19 5.45477)
(0.120824 1.42979e-20 5.58854)
(-0.203363 5.43063e-19 5.63232)
(-0.441241 3.33167e-20 5.67392)
(-0.715513 0 5.69664)
(-1.0004 5.99157e-19 5.69396)
(-1.30547 -1.13995e-18 5.65667)
(-1.63039 5.75454e-19 5.57631)
(-1.97364 -4.28407e-20 5.44382)
(-2.3315 3.76372e-19 5.25005)
(0.372959 5.58971e-19 5.63821)
(0.315932 5.41851e-19 5.77475)
(0.132585 -5.43321e-19 5.81654)
(0.0376867 -5.9205e-19 5.86308)
(-0.108273 1.15493e-18 5.8953)
(-0.26825 -1.12502e-18 5.90474)
(-0.454672 5.6591e-19 5.8797)
(-0.665746 -4.1622e-20 5.81002)
(-0.899645 -7.64438e-22 5.68539)
(-1.1525 3.89037e-19 5.49553)
(0.447778 0 5.66046)
(0.511316 4.32173e-21 5.81306)
(0.478449 0 5.86429)
(0.531947 -5.85082e-19 5.92633)
(0.519907 8.56182e-19 5.97819)
(0.489374 -3.33728e-19 6.00857)
(0.425794 3.33611e-19 6.00387)
(0.332963 1.12127e-19 5.95251)
(0.212352 -3.46101e-19 5.84213)
(0.0689656 0 5.66158)
(0.524681 0 5.52161)
(0.709068 8.65411e-21 5.69696)
(0.836534 0 5.77174)
(1.03461 1.77649e-20 5.85999)
(1.159 1.82651e-20 5.94162)
(1.25607 -1.89803e-20 6.0009)
(1.31446 1.99402e-20 6.02299)
(1.33925 3.10085e-19 5.99484)
(1.33359 -2.99395e-19 5.90387)
(1.30253 0 5.73828)
(0.612432 -5.69367e-19 5.21885)
(0.91687 -8.68408e-21 5.42139)
(1.20837 0 5.53752)
(1.54504 8.68851e-21 5.66348)
(1.80337 2.99067e-19 5.78581)
(2.02253 4.03957e-20 5.88338)
(2.19787 -6.72974e-19 5.9395)
(2.33568 -2.7631e-20 5.94002)
(2.44113 3.40054e-19 5.87247)
(2.51972 1.96844e-19 5.72497)
(0.71746 -4.98975e-19 4.72369)
(1.14531 -1.36638e-19 4.99852)
(1.59638 1.32924e-19 5.18248)
(2.06249 -8.66471e-21 5.35068)
(2.44809 0 5.52054)
(2.78033 -1.53589e-19 5.66412)
(3.06321 1.68868e-19 5.76015)
(3.30579 2.03974e-20 5.79376)
(3.51487 0 5.75313)
(3.69662 1.93464e-19 5.62675)
(8.21571 1.29175e-19 5.23429)
(8.0787 -1.57154e-19 5.79623)
(7.9408 1.65602e-20 6.43247)
(7.80481 -1.28712e-19 7.16358)
(7.67751 1.30494e-19 8.02126)
(7.5776 1.03798e-19 9.05802)
(7.58511 -9.14089e-20 10.3657)
(8.19617 -1.17125e-20 12.0802)
(8.64332 -3.24017e-22 14.961)
(8.60992 1.3014e-19 5.3302)
(8.5431 1.64118e-20 5.89025)
(8.49401 1.19521e-19 6.51993)
(8.47466 -2.35783e-19 7.23558)
(8.50786 1.01859e-19 8.05914)
(8.63678 0 9.01861)
(8.90778 0 10.1444)
(9.62378 2.18872e-20 11.3774)
(10.237 1.4937e-20 12.4551)
(9.00712 -1.45114e-20 5.37286)
(9.00655 1.41749e-20 5.91629)
(9.03734 -2.82354e-20 6.51845)
(9.11412 -1.28043e-20 7.18788)
(9.25866 3.51121e-20 7.93176)
(9.50314 -2.26284e-20 8.74964)
(9.84776 0 9.62532)
(10.4216 -1.00376e-20 10.5069)
(11.1303 0 11.2069)
(9.39617 -1.09059e-19 5.3634)
(9.45351 1.873e-21 5.87879)
(9.54945 6.60964e-20 6.43965)
(9.6968 1.24841e-20 7.04806)
(9.9112 -1.25084e-21 7.70266)
(10.2145 1.26616e-21 8.39515)
(10.609 0 9.10851)
(11.1572 -1.34168e-20 9.8373)
(11.9383 1.35375e-20 10.4948)
(9.87359 -4.85252e-20 5.78635)
(10.0205 2.42104e-20 6.29957)
(10.2191 1.05464e-20 6.84443)
(10.4814 -9.47124e-21 7.41676)
(10.8232 1.62125e-20 8.00863)
(11.2527 0 8.60571)
(11.7895 0 9.20098)
(12.5235 0 9.73606)
(10.6816 -2.51814e-20 6.59476)
(10.9752 9.25895e-21 7.09135)
(11.3372 -4.31075e-20 7.59332)
(11.7738 2.75996e-20 8.08644)
(12.2837 -8.4097e-21 8.55751)
(12.9478 0 8.97476)
(11.7622 0 7.16033)
(12.1897 0 7.5655)
(12.6707 8.24746e-21 7.94203)
(13.2776 0 8.27534)
(12.9753 4.0318e-21 7.3624)
(13.5319 2.63985e-21 7.63005)
(10.2531 6.86815e-20 12.9035)
(6.81258 0 9.98289)
(0.65089 -3.51926e-19 6.34902)
(10.7538 -8.27546e-20 10.7315)
(10.0398 0 8.99616)
(8.49121 0 7.32169)
(11.6262 -5.76919e-21 10.8253)
(11.7498 3.38497e-20 10.1378)
(11.4287 -2.46566e-20 9.25415)
(12.419 0 10.552)
(12.7134 -2.55858e-21 10.366)
(12.7656 -1.70318e-20 9.97237)
(12.9514 2.21224e-22 9.86531)
(13.2938 9.2615e-22 9.87319)
(13.5091 7.41688e-21 9.76226)
(13.3342 -2.16177e-22 9.11351)
(13.6841 1.51837e-21 9.19564)
(13.9584 0 9.21635)
(13.6298 0 8.40182)
(13.9623 1.01232e-22 8.49879)
(14.2394 0 8.56303)
(13.8522 0 7.73469)
(14.1581 5.21129e-21 7.82084)
(14.4176 -2.19348e-20 7.88808)
(14.2899 3.33512e-22 7.17948)
(14.5274 -7.30045e-21 7.23629)
(-1.26298 -6.65579e-20 3.46031)
(1.19678 6.4261e-20 4.08943)
(1.97107 -4.69629e-20 4.54783)
(2.58305 3.93498e-21 4.86928)
(3.10095 2.56256e-22 5.13448)
(3.54282 1.45019e-19 5.34252)
(3.92564 -1.49956e-19 5.48569)
(4.26494 -2.87649e-22 5.55633)
(4.57049 0 5.54565)
(6.197 6.06094e-21 5.21896)
(4.64268 -6.13757e-21 4.22364)
(3.77958 -1.45798e-20 4.06089)
(3.68277 -7.30585e-20 4.28954)
(3.96723 6.39719e-20 4.6156)
(4.36791 6.90911e-20 4.90377)
(4.78514 -6.26233e-20 5.11137)
(5.1894 -1.86956e-20 5.22915)
(5.57264 0 5.25338)
(10.254 -1.63837e-20 7.502)
(8.75481 0 6.08425)
(7.2858 0 5.12753)
(6.26837 6.87372e-21 4.62248)
(5.78106 -3.69242e-21 4.48563)
(5.70279 0 4.56587)
(5.87941 4.19486e-21 4.71427)
(6.19206 -4.37697e-21 4.83613)
(6.56588 0 4.88414)
(12.3667 1.54346e-20 8.79088)
(11.5321 0 7.56104)
(10.4485 -2.30144e-20 6.50614)
(9.39343 2.30287e-20 5.69047)
(8.53724 0 5.12517)
(7.95892 3.57686e-21 4.79284)
(7.67583 -3.26381e-20 4.63919)
(7.65015 3.2086e-20 4.58404)
(7.81276 0 4.54829)
(13.5914 0 9.13768)
(13.3118 0 8.29074)
(12.7557 0 7.4281)
(12.0527 -3.30085e-20 6.64106)
(11.3211 3.5414e-20 5.96584)
(10.656 -1.5554e-20 5.42056)
(10.1318 -4.30886e-22 5.00604)
(9.79313 -2.85419e-20 4.70182)
(9.64799 3.19437e-20 4.46912)
(14.2936 0 8.96329)
(14.3908 0 8.46507)
(14.2745 -3.37605e-20 7.85546)
(13.9756 4.31633e-20 7.21773)
(13.5558 0 6.59711)
(13.0838 -1.25628e-20 6.02226)
(12.6237 1.56103e-20 5.50912)
(12.2294 5.40888e-23 5.06012)
(11.939 3.73941e-21 4.66497)
(14.6749 1.24695e-20 8.51223)
(14.9904 -3.60816e-20 8.26371)
(15.1795 4.89997e-20 7.87951)
(15.2141 -2.75121e-20 7.41511)
(15.1126 -3.93593e-20 6.90998)
(14.9159 3.39636e-20 6.39333)
(14.6679 -2.42436e-22 5.88537)
(14.4088 1.3365e-20 5.39661)
(14.1741 -1.68117e-20 4.92843)
(14.8704 1.19123e-20 7.92554)
(15.2863 1.9368e-20 7.82799)
(15.6539 -2.04931e-20 7.60975)
(15.9175 3.40174e-20 7.29739)
(16.0672 5.74406e-21 6.91678)
(16.1217 -6.67433e-20 6.49058)
(16.1062 3.52462e-20 6.03702)
(16.046 0 5.56848)
(15.966 7.31813e-22 5.09111)
(14.96 4.16224e-21 7.2983)
(15.4019 -2.81413e-21 7.27541)
(15.8502 4.22912e-21 7.15983)
(16.2436 -2.86607e-20 6.95815)
(16.5582 2.25983e-20 6.68272)
(16.7976 -3.47697e-21 6.34701)
(16.9728 3.70269e-20 5.96365)
(17.0965 4.71953e-21 5.54288)
(17.1829 -1.87187e-20 5.09156)
(15.4144 1.72558e-20 6.68694)
(15.8795 -1.68661e-20 6.62394)
(16.3263 0 6.49062)
(16.7274 0 6.29016)
(17.0785 3.39665e-21 6.02811)
(17.3816 0 5.71094)
(17.64 -3.41173e-20 5.34497)
(17.8594 3.44785e-20 4.93536)
(16.6945 0 5.81433)
(17.0951 0 5.60442)
(17.4651 0 5.3403)
(17.8023 -9.33026e-22 5.02453)
(18.1062 3.26554e-20 4.65982)
(17.3434 -7.81128e-20 4.90977)
(17.7115 4.13729e-20 4.63503)
(18.0541 0 4.31171)
(17.8208 -2.96441e-22 3.93315)
)
;

boundaryField
{
    inlet
    {
        type            fixedValue;
        value           nonuniform 0();
    }
    outlet
    {
        type            zeroGradient;
    }
    flap
    {
        type            movingWallVelocity;
        value           nonuniform List<vector> 
33
(
(1.07658e-17 -2.77556e-14 2.73106e-16)
(-2.12319e-15 -5.55112e-14 -2.75922e-14)
(-2.84997e-15 0 -2.67111e-14)
(5.15489e-17 0 4.19749e-16)
(0 0 0)
(-6.86607e-15 0 -5.46485e-14)
(0 -2.77556e-14 0)
(0 0 0)
(0 0 0)
(-9.20641e-15 -2.77556e-14 -1.10545e-13)
(0 0 0)
(0 0 0)
(-6.58101e-15 -2.77556e-14 -1.10838e-13)
(2.14866e-17 0 3.85527e-16)
(-6.108e-15 -2.77556e-14 -1.10685e-13)
(6.29829e-15 0 -3.58459e-16)
(0 0 0)
(6.34048e-15 -2.77556e-14 -3.63293e-16)
(-2.79991e-16 2.3449e-33 -7.19792e-15)
(-1.15236e-15 0 -1.48643e-14)
(2.93885e-15 2.03468e-33 2.74408e-14)
(-3.36474e-15 0 -2.73415e-14)
(-7.24201e-15 -2.77556e-14 -5.63638e-14)
(-2.16345e-16 1.85788e-32 -1.71918e-15)
(-1.89958e-16 0 -1.61249e-15)
(1.56535e-16 -9.26942e-33 1.46556e-15)
(-1.23531e-16 0 -1.30349e-15)
(0 0 0)
(-8.10599e-15 -2.77556e-14 -1.10427e-13)
(5.90378e-17 0 9.03232e-16)
(0 0 0)
(0 0 0)
(-6.20875e-15 -2.77556e-14 -1.12214e-13)
)
;
    }
    upperWall
    {
        type            noSlip;
    }
    lowerWall
    {
        type            noSlip;
    }
    frontAndBack
    {
        type            empty;
    }
    procBoundary4to1
    {
        type            processor;
        value           nonuniform List<vector> 
30
(
(9.76809 -1.30794e-20 5.30617)
(9.76809 -1.30794e-20 5.30617)
(10.2607 -1.16941e-20 5.64828)
(10.4463 1.04512e-20 6.1119)
(10.4463 1.04512e-20 6.1119)
(11.0842 -9.44765e-21 6.31119)
(11.3948 0 6.73827)
(11.3948 0 6.73827)
(12.1103 -2.37448e-20 6.7237)
(12.5224 1.87725e-20 7.05766)
(12.5224 1.87725e-20 7.05766)
(13.2098 -2.39652e-23 6.8131)
(13.7201 1.73284e-20 7.0265)
(14.0111 -2.61973e-20 7.10984)
(14.0111 -2.61973e-20 7.10984)
(14.3709 -8.95105e-21 6.58078)
(14.5868 9.51405e-21 6.62494)
(14.986 -4.73123e-22 6.68274)
(14.986 -4.73123e-22 6.68274)
(15.3677 -4.33309e-21 6.10745)
(15.8149 0 6.06553)
(16.2655 0 5.96825)
(16.2655 0 5.96825)
(16.5472 -7.79727e-21 5.31158)
(16.9539 -7.58788e-21 5.13528)
(16.9539 -7.58788e-21 5.13528)
(17.1084 -2.91424e-20 4.4636)
(17.4739 0 4.22088)
(17.4739 0 4.22088)
(17.4946 -2.91401e-22 3.55451)
)
;
    }
    procBoundary4to2
    {
        type            processor;
        value           nonuniform List<vector> 
11
(
(6.96 0 4.83552)
(8.09462 6.91462e-20 4.47161)
(9.67416 -2.78455e-20 4.25981)
(11.7714 -1.57473e-20 4.30287)
(13.9913 -9.68134e-22 4.4744)
(15.8891 1.70185e-20 4.60532)
(17.2471 -6.56639e-21 4.61285)
(18.0471 1.33302e-21 4.48547)
(18.3782 9.83485e-22 4.24845)
(18.3687 2.89229e-20 3.94075)
(18.1444 0 3.6004)
)
;
    }
    procBoundary4to3
    {
        type            processor;
        value           nonuniform List<vector> 
19
(
(4.23919 1.3122e-20 0.262387)
(5.108 -1.40146e-20 0.665659)
(5.51946 -2.18046e-19 1.08938)
(5.75532 0 1.47369)
(5.92102 -4.19997e-19 1.83355)
(6.06361 -4.10881e-19 2.17735)
(6.20567 -5.0147e-20 2.50924)
(6.35884 4.39979e-19 2.83084)
(6.52967 -4.26202e-19 3.14172)
(6.72184 4.67476e-20 3.43978)
(6.93729 -3.32556e-19 3.72163)
(7.17684 3.30398e-19 3.98301)
(7.43992 -1.55228e-20 4.21917)
(7.72426 5.01873e-21 4.4252)
(8.02589 0 4.5964)
(8.35051 0 4.73252)
(8.6876 1.28089e-19 4.82771)
(9.02934 1.21271e-19 4.88032)
(9.36766 -1.81687e-19 4.88996)
)
;
    }
    procBoundary4to5
    {
        type            processor;
        value           nonuniform List<vector> 
18
(
(-8.80793 0 0.368122)
(-9.0212 1.85932e-20 1.0228)
(-8.76962 -3.21009e-20 1.66069)
(-8.29989 0 2.27273)
(-7.67451 -3.01565e-19 2.84207)
(-6.91234 -3.41748e-19 3.37214)
(-6.02347 0 3.85772)
(-5.01696 3.70254e-19 4.29269)
(-3.9038 -3.54192e-19 4.67076)
(-2.69824 7.6772e-19 4.98539)
(-1.41918 0 5.22964)
(-0.0916669 0 5.40047)
(1.25158 0 5.4873)
(2.57708 3.5191e-19 5.48661)
(3.85674 2.38686e-19 5.40385)
(4.84905 2.17244e-20 5.44341)
(4.84905 2.17244e-20 5.44341)
(5.93412 -2.10671e-20 5.17809)
)
;
    }
}


// ************************************************************************* //
