/*--------------------------------*- C++ -*----------------------------------*\
| =========                 |                                                 |
| \\      /  F ield         | OpenFOAM: The Open Source CFD Toolbox           |
|  \\    /   O peration     | Version:  dev                                   |
|   \\  /    A nd           | Web:      www.OpenFOAM.org                      |
|    \\/     M anipulation  |                                                 |
\*---------------------------------------------------------------------------*/
FoamFile
{
    version     2.0;
    format      ascii;
    class       pointVectorField;
    location    "0.83";
    object      pointDisplacement;
}
// * * * * * * * * * * * * * * * * * * * * * * * * * * * * * * * * * * * * * //

dimensions      [0 1 0 0 0 0 0];

internalField   nonuniform List<vector> 
1034
(
(0 0 0)
(0.0203588 0 -0.00124301)
(0.0387477 0 -0.00238167)
(0 0 0)
(0.0203588 0 -0.00124301)
(0.0387477 0 -0.00238167)
(0 0 0)
(0.0205309 0 -0.00131419)
(0.0390987 0 -0.00251933)
(0.055325 0 -0.0036047)
(0 0 0)
(0.0207103 0 -0.00138428)
(0.0394638 0 -0.00265518)
(0.0558849 0 -0.00380134)
(0.0702741 0 -0.00485081)
(0 0 0)
(0.0208943 0 -0.00145261)
(0.039837 0 -0.00278757)
(0.0564487 0 -0.00399258)
(0.0710428 0 -0.00509759)
(0.0839159 0 -0.00612792)
(0 0 0)
(0.021074 0 -0.00151808)
(0.040205 0 -0.00291465)
(0.0570077 0 -0.00417639)
(0.0718018 0 -0.00533479)
(0.0848899 0 -0.00641609)
(0.0965201 0 -0.00743967)
(0 0 0)
(0.0212537 0 -0.00158047)
(0.0405623 0 -0.00303509)
(0.057546 0 -0.00435018)
(0.0725285 0 -0.00555842)
(0.0858128 0 -0.00668666)
(0.0976524 0 -0.00775527)
(0.108271 0 -0.00878082)
(0 0 0)
(0.0214245 0 -0.00163847)
(0.0408927 0 -0.00314634)
(0.0580393 0 -0.00451023)
(0.0731948 0 -0.00576405)
(0.0866602 0 -0.00693521)
(0.0986913 0 -0.00804489)
(0.10951 0 -0.00910994)
(0.119314 0 -0.0101439)
(0.128273 0 -0.0111577)
(0 0 0)
(0.02157 0 -0.00169023)
(0.0411809 0 -0.00324607)
(0.0584752 0 -0.00465409)
(0.0737874 0 -0.00594905)
(0.0874175 0 -0.00715893)
(0.099621 0 -0.00830536)
(0.110618 0 -0.00940546)
(0.120603 0 -0.0104729)
(0.129743 0 -0.0115187)
(0.138188 0 -0.0125519)
(0 0 0)
(0.0216881 0 -0.00173512)
(0.0414207 0 -0.003333)
(0.0588445 0 -0.00477987)
(0.0742952 0 -0.00611109)
(0.0880715 0 -0.00735499)
(0.100427 0 -0.00853352)
(0.11158 0 -0.00966391)
(0.121719 0 -0.0107598)
(0.13101 0 -0.0118322)
(0.139596 0 -0.01289)
(0.147605 0 -0.0139404)
(0.155143 0 -0.0149892)
(0 0 0)
(0.0217765 0 -0.00177253)
(0.0416066 0 -0.00340586)
(0.0591391 0 -0.00488575)
(0.0747082 0 -0.00624784)
(0.0886103 0 -0.00752066)
(0.101096 0 -0.00872626)
(0.11238 0 -0.00988186)
(0.122648 0 -0.011001)
(0.13206 0 -0.0120945)
(0.140756 0 -0.013171)
(0.148856 0 -0.0142372)
(0.156461 0 -0.0152983)
(0.163659 0 -0.0163585)
(0.170518 0 -0.0174204)
(0 0 0)
(0.0218333 0 -0.00180183)
(0.041734 0 -0.00346339)
(0.059352 0 -0.00496993)
(0.0750177 0 -0.00635704)
(0.0890239 0 -0.00765323)
(0.101618 0 -0.00888051)
(0.113009 0 -0.010056)
(0.12338 0 -0.011193)
(0.132886 0 -0.0123021)
(0.14166 0 -0.0133914)
(0.149819 0 -0.0144673)
(0.157458 0 -0.0155345)
(0.164658 0 -0.0165964)
(0.171483 0 -0.0176549)
(0.177983 0 -0.0187111)
(0 0 0)
(0.0218568 0 -0.00182248)
(0.0417993 0 -0.00350449)
(0.0594779 0 -0.00503078)
(0.0752173 0 -0.00643662)
(0.0893051 0 -0.00775028)
(0.101984 0 -0.00899355)
(0.113459 0 -0.0101833)
(0.123907 0 -0.0113326)
(0.13348 0 -0.0124515)
(0.142306 0 -0.013548)
(0.150495 0 -0.0146278)
(0.158139 0 -0.0156952)
(0.165314 0 -0.0167529)
(0.172081 0 -0.0178024)
(0.178484 0 -0.0188442)
(0.184557 0 -0.0198774)
(0.190315 0 -0.0208997)
(0 0 0)
(0.0218461 0 -0.00183395)
(0.0418002 0 -0.0035281)
(0.0595132 0 -0.00506677)
(0.0753021 0 -0.00648462)
(0.0894483 0 -0.00780946)
(0.102188 0 -0.00906271)
(0.113724 0 -0.0102609)
(0.124225 0 -0.0114166)
(0.13384 0 -0.0125398)
(0.142691 0 -0.0136377)
(0.150886 0 -0.0147157)
(0.158511 0 -0.0157777)
(0.165638 0 -0.0168258)
(0.172325 0 -0.0178612)
(0.178615 0 -0.0188837)
(0.18454 0 -0.0198921)
(0.190116 0 -0.020884)
(0.195352 0 -0.0218562)
(0.20025 0 -0.0228049)
(0 0 0)
(0.0218 0 -0.00183563)
(0.0417344 0 -0.00353305)
(0.0594545 0 -0.00507619)
(0.0752681 0 -0.00649884)
(0.0894491 0 -0.00782817)
(0.102228 0 -0.00908505)
(0.1138 0 -0.0102855)
(0.124332 0 -0.0114419)
(0.133965 0 -0.0125634)
(0.142819 0 -0.0136571)
(0.150996 0 -0.0147279)
(0.158581 0 -0.0157791)
(0.165641 0 -0.0168126)
(0.172234 0 -0.0178291)
(0.1784 0 -0.0188282)
(0.18417 0 -0.0198085)
(0.189565 0 -0.0207676)
(0.194596 0 -0.0217024)
(0.199268 0 -0.0226095)
(0.20358 0 -0.0234851)
(0.207531 0 -0.0243251)
(0 0 0)
(0.021718 0 -0.00182696)
(0.0416008 0 -0.00351822)
(0.0593003 0 -0.00505743)
(0.0751136 0 -0.00647724)
(0.0893058 0 -0.00780398)
(0.1021 0 -0.00905785)
(0.113687 0 -0.0102543)
(0.124227 0 -0.0114052)
(0.133857 0 -0.0125193)
(0.142694 0 -0.0136032)
(0.150835 0 -0.0146614)
(0.158363 0 -0.0156969)
(0.165343 0 -0.0167112)
(0.17183 0 -0.0177048)
(0.177865 0 -0.018677)
(0.18348 0 -0.0196264)
(0.188698 0 -0.0205507)
(0.193533 0 -0.0214472)
(0.197994 0 -0.0223127)
(0.202087 0 -0.0231439)
(0.205814 0 -0.0239375)
(0 0 0)
(0.0216003 0 -0.00180746)
(0.0414 0 -0.00348267)
(0.0590514 0 -0.00500909)
(0.0748395 0 -0.00641803)
(0.08902 0 -0.00773476)
(0.101809 0 -0.00897868)
(0.11339 0 -0.0101646)
(0.123918 0 -0.0113039)
(0.133527 0 -0.0124047)
(0.142329 0 -0.0134733)
(0.150418 0 -0.0145138)
(0.157875 0 -0.0155288)
(0.164764 0 -0.0165197)
(0.171138 0 -0.0174866)
(0.17704 0 -0.0184289)
(0.182503 0 -0.0193451)
(0.18755 0 -0.0202331)
(0.1922 0 -0.0210905)
(0.196467 0 -0.0219145)
(0.200359 0 -0.0227022)
(0.203886 0 -0.0234512)
(0 0 0)
(0.0214481 0 -0.00177672)
(0.0411338 0 -0.00342555)
(0.0587103 0 -0.00492992)
(0.0744494 0 -0.00631954)
(0.0885963 0 -0.0076185)
(0.101359 0 -0.00884529)
(0.112915 0 -0.010014)
(0.123414 0 -0.0111353)
(0.132985 0 -0.012217)
(0.141737 0 -0.0132648)
(0.149762 0 -0.0142826)
(0.157138 0 -0.0152725)
(0.163929 0 -0.0162359)
(0.170187 0 -0.0171727)
(0.175956 0 -0.0180823)
(0.18127 0 -0.0189633)
(0.186155 0 -0.0198137)
(0.190632 0 -0.0206314)
(0.194719 0 -0.021414)
(0.19843 0 -0.0221592)
(0 0 0)
(0.0212633 0 -0.00173435)
(0.0408057 0 -0.00334609)
(0.0582818 0 -0.00481872)
(0.0739491 0 -0.00618022)
(0.088042 0 -0.00745332)
(0.10076 0 -0.00865548)
(0.112273 0 -0.0098)
(0.122727 0 -0.0108969)
(0.132246 0 -0.0119535)
(0.140937 0 -0.012975)
(0.148888 0 -0.013965)
(0.156176 0 -0.0149255)
(0.162864 0 -0.0158574)
(0.169005 0 -0.0167609)
(0.174643 0 -0.0176351)
(0.179814 0 -0.0184789)
(0.184546 0 -0.0192905)
(0.188863 0 -0.0200679)
(0.192785 0 -0.0208092)
(0.19633 0 -0.0215127)
(0 0 0)
(0.0210485 0 -0.00168003)
(0.0404206 0 -0.00324358)
(0.0577726 0 -0.00467442)
(0.0733473 0 -0.00599861)
(0.0873673 0 -0.00723741)
(0.100023 0 -0.00840715)
(0.111479 0 -0.00952026)
(0.121875 0 -0.0105861)
(0.13133 0 -0.0116114)
(0.139949 0 -0.0126011)
(0.147819 0 -0.0135582)
(0.155014 0 -0.0144847)
(0.161598 0 -0.0153814)
(0.167624 0 -0.0162482)
(0.173135 0 -0.0170845)
(0.178169 0 -0.0178891)
(0.182758 0 -0.0186605)
(0.186927 0 -0.0193971)
(0.190698 0 -0.0200971)
(0.194093 0 -0.0207591)
(0 0 0)
(0.0208072 0 -0.00161346)
(0.0399848 0 -0.0031174)
(0.0571916 0 -0.00449601)
(0.072655 0 -0.00577332)
(0.0865855 0 -0.006969)
(0.0991651 0 -0.00809818)
(0.11055 0 -0.00917239)
(0.120876 0 -0.0102002)
(0.130259 0 -0.0111879)
(0.1388 0 -0.0121399)
(0.146583 0 -0.0130591)
(0.153683 0 -0.013947)
(0.160163 0 -0.0148044)
(0.166075 0 -0.0156312)
(0.171464 0 -0.0164269)
(0.17637 0 -0.0171902)
(0.180825 0 -0.01792)
(0.184857 0 -0.0186148)
(0.188491 0 -0.0192731)
(0.19175 0 -0.0198939)
(0 0 0)
(0.0205435 0 -0.00153438)
(0.0395063 0 -0.00296695)
(0.0565497 0 -0.00428251)
(0.0718857 0 -0.00550298)
(0.0857127 0 -0.00664634)
(0.0982035 0 -0.00772647)
(0.109508 0 -0.00875392)
(0.119755 0 -0.00973652)
(0.129059 0 -0.01068)
(0.137516 0 -0.0115883)
(0.14521 0 -0.012464)
(0.152215 0 -0.0133085)
(0.158591 0 -0.0141225)
(0.164394 0 -0.0149057)
(0.169668 0 -0.0156577)
(0.174453 0 -0.0163776)
(0.178785 0 -0.017064)
(0.182692 0 -0.0177158)
(0.1862 0 -0.0183318)
(0.189336 0 -0.0189112)
(0 0 0)
(0.0202625 0 -0.00144254)
(0.0389942 0 -0.00279166)
(0.0558598 0 -0.00403298)
(0.0710556 0 -0.00518624)
(0.084768 0 -0.00626767)
(0.0971602 0 -0.00728982)
(0.108375 0 -0.00826224)
(0.118538 0 -0.00919199)
(0.127758 0 -0.0100842)
(0.136129 0 -0.0109424)
(0.143733 0 -0.0117689)
(0.150643 0 -0.0125649)
(0.15692 0 -0.0133308)
(0.162618 0 -0.0140666)
(0.167784 0 -0.0147717)
(0.172458 0 -0.0154453)
(0.176675 0 -0.0160863)
(0.180468 0 -0.0166936)
(0.183863 0 -0.0172661)
(0.186888 0 -0.0178035)
(0 0 0)
(0.0199699 0 -0.00133768)
(0.0384594 0 -0.00259097)
(0.055137 0 -0.00374648)
(0.0701835 0 -0.00482171)
(0.0837732 0 -0.00583113)
(0.0960604 0 -0.00678591)
(0.107181 0 -0.00769455)
(0.117256 0 -0.00856336)
(0.126389 0 -0.00939685)
(0.134673 0 -0.0101981)
(0.142189 0 -0.0109691)
(0.149007 0 -0.0117109)
(0.155189 0 -0.0124239)
(0.160789 0 -0.0131079)
(0.165853 0 -0.0137623)
(0.170425 0 -0.0143864)
(0.174539 0 -0.0149792)
(0.178228 0 -0.0155399)
(0.181521 0 -0.0160675)
(0.184447 0 -0.0165618)
(0 0 0)
(0.0196722 0 -0.00121958)
(0.0379142 0 -0.00236431)
(0.0543984 0 -0.00342202)
(0.0692908 0 -0.00440795)
(0.0827537 0 -0.00533475)
(0.0949324 0 -0.00621223)
(0.105957 0 -0.0070478)
(0.115941 0 -0.00784698)
(0.124988 0 -0.00861368)
(0.133187 0 -0.00935057)
(0.140617 0 -0.0100593)
(0.147348 0 -0.0107407)
(0.153441 0 -0.0113951)
(0.15895 0 -0.0120222)
(0.163922 0 -0.0126215)
(0.168399 0 -0.0131923)
(0.17242 0 -0.0137338)
(0.176016 0 -0.0142452)
(0.179218 0 -0.0147256)
(0.182055 0 -0.015175)
(0 0 0)
(0.0193768 0 -0.00108795)
(0.0373724 0 -0.00211107)
(0.0536635 0 -0.00305854)
(0.0684017 0 -0.00394338)
(0.0817376 0 -0.00477642)
(0.0938081 0 -0.00556604)
(0.104737 0 -0.0063186)
(0.114633 0 -0.0070388)
(0.123597 0 -0.00772995)
(0.131714 0 -0.00839429)
(0.139063 0 -0.00903316)
(0.145713 0 -0.00964722)
(0.151723 0 -0.0102366)
(0.157149 0 -0.0108011)
(0.162038 0 -0.0113401)
(0.166432 0 -0.0118531)
(0.170369 0 -0.0123392)
(0.173883 0 -0.0127977)
(0.177004 0 -0.013228)
(0.179763 0 -0.0136299)
(0 0 0)
(0.0190919 0 -0.000942521)
(0.0368497 0 -0.00183058)
(0.0529544 0 -0.00265492)
(0.0675436 0 -0.00342633)
(0.080757 0 -0.00415381)
(0.0927235 0 -0.00484433)
(0.10356 0 -0.00550319)
(0.113374 0 -0.00613426)
(0.122259 0 -0.00674027)
(0.130301 0 -0.00732302)
(0.137575 0 -0.00788356)
(0.144151 0 -0.00842236)
(0.150088 0 -0.00893947)
(0.15544 0 -0.00943458)
(0.160255 0 -0.0099072)
(0.164575 0 -0.0103567)
(0.168439 0 -0.0107824)
(0.171882 0 -0.0111837)
(0.174933 0 -0.0115599)
(0.177625 0 -0.0119109)
(0 0 0)
(0.0188269 0 -0.000782961)
(0.036364 0 -0.00152213)
(0.052296 0 -0.00220993)
(0.0667474 0 -0.00285495)
(0.0798479 0 -0.00346438)
(0.0917188 0 -0.00404379)
(0.102472 0 -0.00459739)
(0.11221 0 -0.00512827)
(0.121024 0 -0.00563856)
(0.128999 0 -0.00612964)
(0.136208 0 -0.00660229)
(0.142719 0 -0.00705681)
(0.148592 0 -0.00749314)
(0.15388 0 -0.00791097)
(0.158632 0 -0.00830982)
(0.162889 0 -0.00868911)
(0.166692 0 -0.00904823)
(0.170074 0 -0.00938658)
(0.173066 0 -0.00970363)
(0.175702 0 -0.00999935)
(0 0 0)
(0.0185928 0 -0.000608929)
(0.0359357 0 -0.00118493)
(0.0517168 0 -0.00172223)
(0.0660483 0 -0.00222725)
(0.0790508 0 -0.00270537)
(0.0908391 0 -0.00316077)
(0.10152 0 -0.00359661)
(0.111193 0 -0.00401516)
(0.119948 0 -0.00441799)
(0.127866 0 -0.00480609)
(0.13502 0 -0.00517999)
(0.141478 0 -0.00553983)
(0.147298 0 -0.0058855)
(0.152534 0 -0.00621669)
(0.157234 0 -0.00653296)
(0.161441 0 -0.00683379)
(0.165193 0 -0.00711866)
(0.168526 0 -0.00738705)
(0.171471 0 -0.00763851)
(0.174061 0 -0.007873)
(0 0 0)
(0.0184026 0 -0.000420051)
(0.0355893 0 -0.000818159)
(0.0512502 0 -0.00119042)
(0.0654869 0 -0.00154111)
(0.0784122 0 -0.00187383)
(0.0901357 0 -0.00219137)
(0.100761 0 -0.00249581)
(0.110384 0 -0.00278868)
(0.119092 0 -0.00307098)
(0.126966 0 -0.00334335)
(0.134079 0 -0.00360608)
(0.140496 0 -0.00385922)
(0.146276 0 -0.00410264)
(0.151473 0 -0.00433607)
(0.156134 0 -0.00455914)
(0.160303 0 -0.00477146)
(0.164018 0 -0.00497261)
(0.167314 0 -0.00516219)
(0.170224 0 -0.00533984)
(0.172779 0 -0.00550552)
(0 0 0)
(0.0182728 0 -0.000215956)
(0.0353545 0 -0.000420963)
(0.050936 0 -0.000613053)
(0.0651106 0 -0.000794366)
(0.0779856 0 -0.000966704)
(0.089667 0 -0.00113147)
(0.100256 0 -0.0012897)
(0.109846 0 -0.00144216)
(0.118525 0 -0.00158934)
(0.126371 0 -0.00173153)
(0.133457 0 -0.00186886)
(0.139848 0 -0.00200135)
(0.145603 0 -0.00212888)
(0.150775 0 -0.00225129)
(0.155412 0 -0.00236838)
(0.159556 0 -0.0024799)
(0.163248 0 -0.00258562)
(0.166521 0 -0.00268532)
(0.169409 0 -0.00277879)
(0.171943 0 -0.00286598)
(0 0 0)
(0.018231 0 0)
(0.0352747 0 0)
(0.0508276 0 0)
(0.0649797 0 0)
(0.0778365 0 0)
(0.0895027 0 0)
(0.100078 0 0)
(0.109657 0 0)
(0.118325 0 0)
(0.126161 0 0)
(0.133238 0 0)
(0.13962 0 0)
(0.145366 0 0)
(0.150529 0 0)
(0.155157 0 0)
(0.159293 0 0)
(0.162976 0 0)
(0.166241 0 0)
(0.169121 0 0)
(0.171648 0 0)
(0 0 0)
(0.0205309 0 -0.00131419)
(0.0390987 0 -0.00251933)
(0.055325 0 -0.0036047)
(0 0 0)
(0.0207103 0 -0.00138428)
(0.0394638 0 -0.00265518)
(0.0558849 0 -0.00380134)
(0.0702741 0 -0.00485081)
(0 0 0)
(0.0208943 0 -0.00145261)
(0.039837 0 -0.00278757)
(0.0564487 0 -0.00399258)
(0.0710428 0 -0.00509759)
(0.0839159 0 -0.00612792)
(0 0 0)
(0.021074 0 -0.00151808)
(0.040205 0 -0.00291465)
(0.0570077 0 -0.00417639)
(0.0718018 0 -0.00533479)
(0.0848899 0 -0.00641609)
(0.0965201 0 -0.00743967)
(0 0 0)
(0.0212537 0 -0.00158047)
(0.0405623 0 -0.00303509)
(0.057546 0 -0.00435018)
(0.0725285 0 -0.00555842)
(0.0858128 0 -0.00668666)
(0.0976524 0 -0.00775527)
(0.108271 0 -0.00878082)
(0 0 0)
(0.0214245 0 -0.00163847)
(0.0408927 0 -0.00314634)
(0.0580393 0 -0.00451023)
(0.0731948 0 -0.00576405)
(0.0866602 0 -0.00693521)
(0.0986913 0 -0.00804489)
(0.10951 0 -0.00910994)
(0.119314 0 -0.0101439)
(0.128273 0 -0.0111577)
(0 0 0)
(0.02157 0 -0.00169023)
(0.0411809 0 -0.00324607)
(0.0584752 0 -0.00465409)
(0.0737874 0 -0.00594905)
(0.0874175 0 -0.00715893)
(0.099621 0 -0.00830536)
(0.110618 0 -0.00940546)
(0.120603 0 -0.0104729)
(0.129743 0 -0.0115187)
(0.138188 0 -0.0125519)
(0 0 0)
(0.0216881 0 -0.00173512)
(0.0414207 0 -0.003333)
(0.0588445 0 -0.00477987)
(0.0742952 0 -0.00611109)
(0.0880715 0 -0.00735499)
(0.100427 0 -0.00853352)
(0.11158 0 -0.00966391)
(0.121719 0 -0.0107598)
(0.13101 0 -0.0118322)
(0.139596 0 -0.01289)
(0.147605 0 -0.0139404)
(0.155143 0 -0.0149892)
(0 0 0)
(0.0217765 0 -0.00177253)
(0.0416066 0 -0.00340586)
(0.0591391 0 -0.00488575)
(0.0747082 0 -0.00624784)
(0.0886103 0 -0.00752066)
(0.101096 0 -0.00872626)
(0.11238 0 -0.00988186)
(0.122648 0 -0.011001)
(0.13206 0 -0.0120945)
(0.140756 0 -0.013171)
(0.148856 0 -0.0142372)
(0.156461 0 -0.0152983)
(0.163659 0 -0.0163585)
(0.170518 0 -0.0174204)
(0 0 0)
(0.0218333 0 -0.00180183)
(0.041734 0 -0.00346339)
(0.059352 0 -0.00496993)
(0.0750177 0 -0.00635704)
(0.0890239 0 -0.00765323)
(0.101618 0 -0.00888051)
(0.113009 0 -0.010056)
(0.12338 0 -0.011193)
(0.132886 0 -0.0123021)
(0.14166 0 -0.0133914)
(0.149819 0 -0.0144673)
(0.157458 0 -0.0155345)
(0.164658 0 -0.0165964)
(0.171483 0 -0.0176549)
(0.177983 0 -0.0187111)
(0 0 0)
(0.0218568 0 -0.00182248)
(0.0417993 0 -0.00350449)
(0.0594779 0 -0.00503078)
(0.0752173 0 -0.00643662)
(0.0893051 0 -0.00775028)
(0.101984 0 -0.00899355)
(0.113459 0 -0.0101833)
(0.123907 0 -0.0113326)
(0.13348 0 -0.0124515)
(0.142306 0 -0.013548)
(0.150495 0 -0.0146278)
(0.158139 0 -0.0156952)
(0.165314 0 -0.0167529)
(0.172081 0 -0.0178024)
(0.178484 0 -0.0188442)
(0.184557 0 -0.0198774)
(0.190315 0 -0.0208997)
(0 0 0)
(0.0218461 0 -0.00183395)
(0.0418002 0 -0.0035281)
(0.0595132 0 -0.00506677)
(0.0753021 0 -0.00648462)
(0.0894483 0 -0.00780946)
(0.102188 0 -0.00906271)
(0.113724 0 -0.0102609)
(0.124225 0 -0.0114166)
(0.13384 0 -0.0125398)
(0.142691 0 -0.0136377)
(0.150886 0 -0.0147157)
(0.158511 0 -0.0157777)
(0.165638 0 -0.0168258)
(0.172325 0 -0.0178612)
(0.178615 0 -0.0188837)
(0.18454 0 -0.0198921)
(0.190116 0 -0.020884)
(0.195352 0 -0.0218562)
(0.20025 0 -0.0228049)
(0 0 0)
(0.0218 0 -0.00183563)
(0.0417344 0 -0.00353305)
(0.0594545 0 -0.00507619)
(0.0752681 0 -0.00649884)
(0.0894491 0 -0.00782817)
(0.102228 0 -0.00908505)
(0.1138 0 -0.0102855)
(0.124332 0 -0.0114419)
(0.133965 0 -0.0125634)
(0.142819 0 -0.0136571)
(0.150996 0 -0.0147279)
(0.158581 0 -0.0157791)
(0.165641 0 -0.0168126)
(0.172234 0 -0.0178291)
(0.1784 0 -0.0188282)
(0.18417 0 -0.0198085)
(0.189565 0 -0.0207676)
(0.194596 0 -0.0217024)
(0.199268 0 -0.0226095)
(0.20358 0 -0.0234851)
(0.207531 0 -0.0243251)
(0 0 0)
(0.021718 0 -0.00182696)
(0.0416008 0 -0.00351822)
(0.0593003 0 -0.00505743)
(0.0751136 0 -0.00647724)
(0.0893058 0 -0.00780398)
(0.1021 0 -0.00905785)
(0.113687 0 -0.0102543)
(0.124227 0 -0.0114052)
(0.133857 0 -0.0125193)
(0.142694 0 -0.0136032)
(0.150835 0 -0.0146614)
(0.158363 0 -0.0156969)
(0.165343 0 -0.0167112)
(0.17183 0 -0.0177048)
(0.177865 0 -0.018677)
(0.18348 0 -0.0196264)
(0.188698 0 -0.0205507)
(0.193533 0 -0.0214472)
(0.197994 0 -0.0223127)
(0.202087 0 -0.0231439)
(0.205814 0 -0.0239375)
(0 0 0)
(0.0216003 0 -0.00180746)
(0.0414 0 -0.00348267)
(0.0590514 0 -0.00500909)
(0.0748395 0 -0.00641803)
(0.08902 0 -0.00773476)
(0.101809 0 -0.00897868)
(0.11339 0 -0.0101646)
(0.123918 0 -0.0113039)
(0.133527 0 -0.0124047)
(0.142329 0 -0.0134733)
(0.150418 0 -0.0145138)
(0.157875 0 -0.0155288)
(0.164764 0 -0.0165197)
(0.171138 0 -0.0174866)
(0.17704 0 -0.0184289)
(0.182503 0 -0.0193451)
(0.18755 0 -0.0202331)
(0.1922 0 -0.0210905)
(0.196467 0 -0.0219145)
(0.200359 0 -0.0227022)
(0.203886 0 -0.0234512)
(0 0 0)
(0.0214481 0 -0.00177672)
(0.0411338 0 -0.00342555)
(0.0587103 0 -0.00492992)
(0.0744494 0 -0.00631954)
(0.0885963 0 -0.0076185)
(0.101359 0 -0.00884529)
(0.112915 0 -0.010014)
(0.123414 0 -0.0111353)
(0.132985 0 -0.012217)
(0.141737 0 -0.0132648)
(0.149762 0 -0.0142826)
(0.157138 0 -0.0152725)
(0.163929 0 -0.0162359)
(0.170187 0 -0.0171727)
(0.175956 0 -0.0180823)
(0.18127 0 -0.0189633)
(0.186155 0 -0.0198137)
(0.190632 0 -0.0206314)
(0.194719 0 -0.021414)
(0.19843 0 -0.0221592)
(0 0 0)
(0.0212633 0 -0.00173435)
(0.0408057 0 -0.00334609)
(0.0582818 0 -0.00481872)
(0.0739491 0 -0.00618022)
(0.088042 0 -0.00745332)
(0.10076 0 -0.00865548)
(0.112273 0 -0.0098)
(0.122727 0 -0.0108969)
(0.132246 0 -0.0119535)
(0.140937 0 -0.012975)
(0.148888 0 -0.013965)
(0.156176 0 -0.0149255)
(0.162864 0 -0.0158574)
(0.169005 0 -0.0167609)
(0.174643 0 -0.0176351)
(0.179814 0 -0.0184789)
(0.184546 0 -0.0192905)
(0.188863 0 -0.0200679)
(0.192785 0 -0.0208092)
(0.19633 0 -0.0215127)
(0 0 0)
(0.0210485 0 -0.00168003)
(0.0404206 0 -0.00324358)
(0.0577726 0 -0.00467442)
(0.0733473 0 -0.00599861)
(0.0873673 0 -0.00723741)
(0.100023 0 -0.00840715)
(0.111479 0 -0.00952026)
(0.121875 0 -0.0105861)
(0.13133 0 -0.0116114)
(0.139949 0 -0.0126011)
(0.147819 0 -0.0135582)
(0.155014 0 -0.0144847)
(0.161598 0 -0.0153814)
(0.167624 0 -0.0162482)
(0.173135 0 -0.0170845)
(0.178169 0 -0.0178891)
(0.182758 0 -0.0186605)
(0.186927 0 -0.0193971)
(0.190698 0 -0.0200971)
(0.194093 0 -0.0207591)
(0 0 0)
(0.0208072 0 -0.00161346)
(0.0399848 0 -0.0031174)
(0.0571916 0 -0.00449601)
(0.072655 0 -0.00577332)
(0.0865855 0 -0.006969)
(0.0991651 0 -0.00809818)
(0.11055 0 -0.00917239)
(0.120876 0 -0.0102002)
(0.130259 0 -0.0111879)
(0.1388 0 -0.0121399)
(0.146583 0 -0.0130591)
(0.153683 0 -0.013947)
(0.160163 0 -0.0148044)
(0.166075 0 -0.0156312)
(0.171464 0 -0.0164269)
(0.17637 0 -0.0171902)
(0.180825 0 -0.01792)
(0.184857 0 -0.0186148)
(0.188491 0 -0.0192731)
(0.19175 0 -0.0198939)
(0 0 0)
(0.0205435 0 -0.00153438)
(0.0395063 0 -0.00296695)
(0.0565497 0 -0.00428251)
(0.0718857 0 -0.00550298)
(0.0857127 0 -0.00664634)
(0.0982035 0 -0.00772647)
(0.109508 0 -0.00875392)
(0.119755 0 -0.00973652)
(0.129059 0 -0.01068)
(0.137516 0 -0.0115883)
(0.14521 0 -0.012464)
(0.152215 0 -0.0133085)
(0.158591 0 -0.0141225)
(0.164394 0 -0.0149057)
(0.169668 0 -0.0156577)
(0.174453 0 -0.0163776)
(0.178785 0 -0.017064)
(0.182692 0 -0.0177158)
(0.1862 0 -0.0183318)
(0.189336 0 -0.0189112)
(0 0 0)
(0.0202625 0 -0.00144254)
(0.0389942 0 -0.00279166)
(0.0558598 0 -0.00403298)
(0.0710556 0 -0.00518624)
(0.084768 0 -0.00626767)
(0.0971602 0 -0.00728982)
(0.108375 0 -0.00826224)
(0.118538 0 -0.00919199)
(0.127758 0 -0.0100842)
(0.136129 0 -0.0109424)
(0.143733 0 -0.0117689)
(0.150643 0 -0.0125649)
(0.15692 0 -0.0133308)
(0.162618 0 -0.0140666)
(0.167784 0 -0.0147717)
(0.172458 0 -0.0154453)
(0.176675 0 -0.0160863)
(0.180468 0 -0.0166936)
(0.183863 0 -0.0172661)
(0.186888 0 -0.0178035)
(0 0 0)
(0.0199699 0 -0.00133768)
(0.0384594 0 -0.00259097)
(0.055137 0 -0.00374648)
(0.0701835 0 -0.00482171)
(0.0837732 0 -0.00583113)
(0.0960604 0 -0.00678591)
(0.107181 0 -0.00769455)
(0.117256 0 -0.00856336)
(0.126389 0 -0.00939685)
(0.134673 0 -0.0101981)
(0.142189 0 -0.0109691)
(0.149007 0 -0.0117109)
(0.155189 0 -0.0124239)
(0.160789 0 -0.0131079)
(0.165853 0 -0.0137623)
(0.170425 0 -0.0143864)
(0.174539 0 -0.0149792)
(0.178228 0 -0.0155399)
(0.181521 0 -0.0160675)
(0.184447 0 -0.0165618)
(0 0 0)
(0.0196722 0 -0.00121958)
(0.0379142 0 -0.00236431)
(0.0543984 0 -0.00342202)
(0.0692908 0 -0.00440795)
(0.0827537 0 -0.00533475)
(0.0949324 0 -0.00621223)
(0.105957 0 -0.0070478)
(0.115941 0 -0.00784698)
(0.124988 0 -0.00861368)
(0.133187 0 -0.00935057)
(0.140617 0 -0.0100593)
(0.147348 0 -0.0107407)
(0.153441 0 -0.0113951)
(0.15895 0 -0.0120222)
(0.163922 0 -0.0126215)
(0.168399 0 -0.0131923)
(0.17242 0 -0.0137338)
(0.176016 0 -0.0142452)
(0.179218 0 -0.0147256)
(0.182055 0 -0.015175)
(0 0 0)
(0.0193768 0 -0.00108795)
(0.0373724 0 -0.00211107)
(0.0536635 0 -0.00305854)
(0.0684017 0 -0.00394338)
(0.0817376 0 -0.00477642)
(0.0938081 0 -0.00556604)
(0.104737 0 -0.0063186)
(0.114633 0 -0.0070388)
(0.123597 0 -0.00772995)
(0.131714 0 -0.00839429)
(0.139063 0 -0.00903316)
(0.145713 0 -0.00964722)
(0.151723 0 -0.0102366)
(0.157149 0 -0.0108011)
(0.162038 0 -0.0113401)
(0.166432 0 -0.0118531)
(0.170369 0 -0.0123392)
(0.173883 0 -0.0127977)
(0.177004 0 -0.013228)
(0.179763 0 -0.0136299)
(0 0 0)
(0.0190919 0 -0.000942521)
(0.0368497 0 -0.00183058)
(0.0529544 0 -0.00265492)
(0.0675436 0 -0.00342633)
(0.080757 0 -0.00415381)
(0.0927235 0 -0.00484433)
(0.10356 0 -0.00550319)
(0.113374 0 -0.00613426)
(0.122259 0 -0.00674027)
(0.130301 0 -0.00732302)
(0.137575 0 -0.00788356)
(0.144151 0 -0.00842236)
(0.150088 0 -0.00893947)
(0.15544 0 -0.00943458)
(0.160255 0 -0.0099072)
(0.164575 0 -0.0103567)
(0.168439 0 -0.0107824)
(0.171882 0 -0.0111837)
(0.174933 0 -0.0115599)
(0.177625 0 -0.0119109)
(0 0 0)
(0.0188269 0 -0.000782961)
(0.036364 0 -0.00152213)
(0.052296 0 -0.00220993)
(0.0667474 0 -0.00285495)
(0.0798479 0 -0.00346438)
(0.0917188 0 -0.00404379)
(0.102472 0 -0.00459739)
(0.11221 0 -0.00512827)
(0.121024 0 -0.00563856)
(0.128999 0 -0.00612964)
(0.136208 0 -0.00660229)
(0.142719 0 -0.00705681)
(0.148592 0 -0.00749314)
(0.15388 0 -0.00791097)
(0.158632 0 -0.00830982)
(0.162889 0 -0.00868911)
(0.166692 0 -0.00904823)
(0.170074 0 -0.00938658)
(0.173066 0 -0.00970363)
(0.175702 0 -0.00999935)
(0 0 0)
(0.0185928 0 -0.000608929)
(0.0359357 0 -0.00118493)
(0.0517168 0 -0.00172223)
(0.0660483 0 -0.00222725)
(0.0790508 0 -0.00270537)
(0.0908391 0 -0.00316077)
(0.10152 0 -0.00359661)
(0.111193 0 -0.00401516)
(0.119948 0 -0.00441799)
(0.127866 0 -0.00480609)
(0.13502 0 -0.00517999)
(0.141478 0 -0.00553983)
(0.147298 0 -0.0058855)
(0.152534 0 -0.00621669)
(0.157234 0 -0.00653296)
(0.161441 0 -0.00683379)
(0.165193 0 -0.00711866)
(0.168526 0 -0.00738705)
(0.171471 0 -0.00763851)
(0.174061 0 -0.007873)
(0 0 0)
(0.0184026 0 -0.000420051)
(0.0355893 0 -0.000818159)
(0.0512502 0 -0.00119042)
(0.0654869 0 -0.00154111)
(0.0784122 0 -0.00187383)
(0.0901357 0 -0.00219137)
(0.100761 0 -0.00249581)
(0.110384 0 -0.00278868)
(0.119092 0 -0.00307098)
(0.126966 0 -0.00334335)
(0.134079 0 -0.00360608)
(0.140496 0 -0.00385922)
(0.146276 0 -0.00410264)
(0.151473 0 -0.00433607)
(0.156134 0 -0.00455914)
(0.160303 0 -0.00477146)
(0.164018 0 -0.00497261)
(0.167314 0 -0.00516219)
(0.170224 0 -0.00533984)
(0.172779 0 -0.00550552)
(0 0 0)
(0.0182728 0 -0.000215956)
(0.0353545 0 -0.000420963)
(0.050936 0 -0.000613053)
(0.0651106 0 -0.000794366)
(0.0779856 0 -0.000966704)
(0.089667 0 -0.00113147)
(0.100256 0 -0.0012897)
(0.109846 0 -0.00144216)
(0.118525 0 -0.00158934)
(0.126371 0 -0.00173153)
(0.133457 0 -0.00186886)
(0.139848 0 -0.00200135)
(0.145603 0 -0.00212888)
(0.150775 0 -0.00225129)
(0.155412 0 -0.00236838)
(0.159556 0 -0.0024799)
(0.163248 0 -0.00258562)
(0.166521 0 -0.00268532)
(0.169409 0 -0.00277879)
(0.171943 0 -0.00286598)
(0 0 0)
(0.018231 0 0)
(0.0352747 0 0)
(0.0508276 0 0)
(0.0649797 0 0)
(0.0778365 0 0)
(0.0895027 0 0)
(0.100078 0 0)
(0.109657 0 0)
(0.118325 0 0)
(0.126161 0 0)
(0.133238 0 0)
(0.13962 0 0)
(0.145366 0 0)
(0.150529 0 0)
(0.155157 0 0)
(0.159293 0 0)
(0.162976 0 0)
(0.166241 0 0)
(0.169121 0 0)
(0.171648 0 0)
)
;

boundaryField
{
    inlet
    {
        type            fixedValue;
        value           uniform (0 0 0);
    }
    outlet
    {
        type            fixedValue;
        value           nonuniform 0();
    }
    flap
    {
        type            fixedValue;
        value           nonuniform 0();
    }
    upperWall
    {
        type            slip;
    }
    lowerWall
    {
        type            slip;
    }
    frontAndBack
    {
        type            empty;
    }
    procBoundary0to1
    {
        type            processor;
    }
    procBoundary0to3
    {
        type            processor;
    }
}


// ************************************************************************* //
