/*--------------------------------*- C++ -*----------------------------------*\
| =========                 |                                                 |
| \\      /  F ield         | OpenFOAM: The Open Source CFD Toolbox           |
|  \\    /   O peration     | Version:  dev                                   |
|   \\  /    A nd           | Web:      www.OpenFOAM.org                      |
|    \\/     M anipulation  |                                                 |
\*---------------------------------------------------------------------------*/
FoamFile
{
    version     2.0;
    format      ascii;
    class       surfaceVectorField;
    location    "1.08";
    object      Uf;
}
// * * * * * * * * * * * * * * * * * * * * * * * * * * * * * * * * * * * * * //

dimensions      [0 1 -1 0 0 0 0];

internalField   nonuniform List<vector> 
881
(
(2.97872 3.26576e-19 3.80149)
(3.65704 1.69777e-19 3.77956)
(3.47808 1.61277e-19 4.02966)
(4.17718 0 4.0122)
(4.98085 -9.53674e-21 4.0468)
(3.98725 0 4.24808)
(4.735 -2.14916e-21 4.26454)
(3.79271 2.55884e-19 4.44267)
(4.52669 -2.61662e-19 4.47327)
(4.32419 2.61944e-19 4.64694)
(5.5624 -1.19288e-20 4.30144)
(6.52453 6.25468e-20 4.46261)
(5.29688 -2.65219e-19 4.49194)
(6.16014 -2.21164e-21 4.57822)
(5.08041 -2.67852e-19 4.68)
(5.88345 -1.68604e-20 4.73487)
(4.87787 0 4.83589)
(5.65734 0 4.89251)
(5.45087 0 5.02266)
(7.14923 7.407e-20 4.73916)
(8.20238 -5.68691e-20 5.01853)
(6.77163 2.53209e-19 4.82167)
(7.74322 1.30272e-19 5.01137)
(6.48405 2.57709e-19 4.94844)
(7.37941 1.39632e-19 5.07216)
(6.25384 0 5.08096)
(7.09492 -5.37485e-20 5.16985)
(6.05044 0 5.18972)
(6.86434 3.94693e-21 5.27222)
(5.85123 0 5.25639)
(6.6624 4.86069e-20 5.35313)
(6.46894 -1.67152e-19 5.39517)
(8.82365 -3.49616e-21 5.29043)
(9.84289 -3.89308e-19 5.61399)
(8.37748 1.31879e-20 5.26126)
(9.37504 2.57464e-19 5.52286)
(8.0156 -1.7618e-19 5.29334)
(8.96789 -1.21531e-19 5.49137)
(7.72994 -5.08652e-20 5.3615)
(8.63129 -5.52585e-20 5.50801)
(7.50065 5.30935e-20 5.4368)
(8.36009 -8.97664e-20 5.55204)
(7.30468 -1.18529e-19 5.494)
(8.13931 3.20789e-19 5.59952)
(7.12207 -1.3585e-19 5.5147)
(7.95055 -2.47418e-19 5.62899)
(6.93772 -2.94168e-20 5.48692)
(7.77672 1.10699e-19 5.62369)
(7.60396 -6.58468e-20 5.57212)
(10.4191 -1.36021e-19 5.8487)
(11.3012 -1.45593e-19 6.13908)
(9.99103 1.26672e-19 5.7536)
(10.9099 -1.05477e-19 6.02124)
(9.60916 3.78871e-22 5.70591)
(10.5345 2.20265e-19 5.93742)
(9.28663 -9.43677e-20 5.69841)
(10.1962 -3.40405e-21 5.88946)
(9.02358 1.76811e-19 5.71508)
(9.9065 -1.92994e-19 5.87075)
(8.80987 2.00173e-19 5.73558)
(9.66655 1.07173e-19 5.86784)
(8.63026 -1.66334e-21 5.74)
(9.46903 7.59236e-20 5.86391)
(8.46879 7.66495e-20 5.71201)
(9.30199 7.71584e-20 5.84225)
(8.3116 1.05288e-19 5.64008)
(9.15223 -1.19881e-19 5.7887)
(9.00763 -4.22382e-20 5.69297)
(11.8128 -1.15097e-19 6.31614)
(12.5063 3.46574e-19 6.52394)
(11.476 -1.71377e-20 6.20808)
(12.2409 -5.75163e-19 6.42392)
(11.1453 2.2067e-19 6.12263)
(11.9592 2.4246e-20 6.33267)
(10.8404 -1.00662e-19 6.06259)
(11.6803 1.05852e-19 6.25642)
(10.574 -2.69951e-19 6.02403)
(11.4209 1.75333e-19 6.19677)
(10.3503 -1.95331e-20 5.99694)
(11.192 -4.17195e-19 6.14988)
(10.1655 1.56646e-19 5.96754)
(10.9975 4.53922e-19 6.10718)
(10.0106 -1.20695e-19 5.9212)
(10.8349 -1.31783e-19 6.05723)
(9.87406 -2.73033e-19 5.84496)
(10.6972 1.70383e-19 5.98791)
(9.74445 -6.65283e-20 5.7289)
(10.575 9.1611e-20 5.88842)
(9.61165 4.98183e-20 5.56644)
(10.4584 8.8644e-20 5.75043)
(10.3383 -3.50173e-20 5.56838)
(12.9506 -1.05298e-19 6.63666)
(13.4469 -1.06532e-19 6.7418)
(12.7426 -5.45757e-19 6.55288)
(13.3211 -1.26512e-19 6.68362)
(12.5146 -9.57988e-20 6.46991)
(13.1636 -4.00748e-19 6.6165)
(12.2827 3.87589e-19 6.3931)
(12.987 3.04306e-19 6.54604)
(12.0617 3.6718e-20 6.3244)
(12.805 1.96039e-19 6.47614)
(11.8626 5.09436e-20 6.26156)
(12.6297 -1.1735e-20 6.40781)
(11.6908 1.69603e-19 6.1984)
(12.4703 1.61576e-19 6.33873)
(11.5458 1.61094e-19 6.1259)
(12.3313 -3.8606e-19 6.26349)
(11.423 5.46284e-19 6.03408)
(12.2127 1.94738e-19 6.17465)
(11.3145 2.51139e-19 5.91363)
(12.1106 1.55222e-19 6.06413)
(11.2114 3.41445e-21 5.7572)
(12.0187 -4.20572e-20 5.92456)
(11.1043 -2.6329e-20 5.56014)
(11.9291 -7.58742e-20 5.75031)
(11.8335 -1.11408e-19 5.53829)
(13.8292 -1.27449e-19 6.79262)
(14.1463 -5.75605e-19 6.79642)
(13.7562 2.82145e-20 6.75135)
(14.1497 1.20037e-19 6.78689)
(13.6524 -5.05285e-21 6.69662)
(14.1194 -1.01709e-20 6.75896)
(13.5275 1.09944e-19 6.63267)
(14.0615 1.8596e-19 6.71584)
(13.3927 1.5055e-19 6.56261)
(13.984 -2.61983e-19 6.66059)
(13.2583 9.84335e-20 6.48756)
(13.8958 1.66924e-19 6.59527)
(13.1328 -3.97778e-19 6.40615)
(13.8055 -1.46386e-19 6.52035)
(13.0209 -3.62431e-19 6.31459)
(13.7197 -5.78813e-21 6.43436)
(12.9238 -2.05919e-19 6.20737)
(13.6422 6.90375e-22 6.33402)
(12.839 -1.42503e-19 6.07829)
(13.5737 -9.93326e-20 6.21491)
(12.7613 -1.22812e-19 5.92166)
(13.5121 -1.21535e-19 6.07233)
(12.6837 -1.63987e-19 5.73334)
(13.4528 6.43356e-20 5.90225)
(12.5983 -8.55647e-20 5.51164)
(13.3897 -8.62453e-20 5.70226)
(12.497 6.67354e-20 5.25798)
(13.3156 0 5.47238)
(13.2235 5.31532e-21 5.21564)
(14.4747 -3.36453e-19 6.79266)
(14.6441 -8.89091e-19 6.70946)
(14.5229 8.34474e-20 6.79721)
(14.7536 2.03188e-19 6.74398)
(14.5406 1.8172e-19 6.78138)
(14.8355 3.80145e-19 6.75718)
(14.532 -1.86536e-19 6.74718)
(14.891 -4.57507e-19 6.74975)
(14.503 -2.54317e-19 6.69666)
(14.9232 7.51588e-20 6.72288)
(14.4605 -7.80857e-20 6.63133)
(14.9366 -2.23981e-19 6.67782)
(14.4113 2.53414e-19 6.55166)
(14.9366 1.43855e-19 6.6154)
(14.3611 3.6771e-19 6.45679)
(14.9283 1.36293e-19 6.53568)
(14.3132 1.12261e-19 6.34463)
(14.916 3.30412e-19 6.43779)
(14.2688 -7.73545e-20 6.21224)
(14.902 -1.03628e-19 6.32003)
(14.2264 6.7496e-20 6.0566)
(14.8868 -2.43477e-19 6.18036)
(14.1822 1.46836e-19 5.87537)
(14.8687 2.2546e-19 6.01692)
(14.1309 0 5.6678)
(14.8445 5.3657e-20 5.82883)
(14.0664 -6.40061e-20 5.43543)
(14.8093 -5.33303e-20 5.61686)
(13.9822 -1.0948e-19 5.18269)
(14.7578 -6.51785e-20 5.38405)
(14.685 -5.7633e-20 5.13615)
(14.9277 -3.57894e-19 6.66069)
(14.9845 -6.5479e-19 6.51086)
(15.0726 5.04274e-19 6.70477)
(15.1726 7.31444e-19 6.57878)
(15.1941 -2.58489e-19 6.72715)
(15.3427 9.57238e-20 6.62671)
(15.2922 -1.99938e-19 6.72768)
(15.4932 -3.70679e-19 6.65342)
(15.3686 1.12525e-19 6.70671)
(15.6238 1.79972e-19 6.65827)
(15.4262 -3.52746e-21 6.66483)
(15.7354 -2.93582e-19 6.64114)
(15.4687 2.32822e-20 6.60252)
(15.8298 2.90272e-19 6.60214)
(15.4998 9.35964e-20 6.51987)
(15.9096 -1.26037e-19 6.54136)
(15.5226 1.17033e-19 6.41648)
(15.9772 1.14826e-19 6.45872)
(15.5389 -2.71454e-19 6.29157)
(16.0345 -1.06414e-19 6.3539)
(15.5491 -8.92103e-20 6.14431)
(16.0825 -8.61099e-20 6.22654)
(15.5518 1.33072e-19 5.97428)
(16.1209 7.95954e-20 6.07653)
(15.5442 3.59701e-22 5.78212)
(16.1481 5.50963e-20 5.90443)
(15.5225 -5.43228e-20 5.57003)
(16.1616 -5.47582e-20 5.71202)
(15.4824 -1.20835e-20 5.34235)
(16.158 -3.6293e-20 5.5027)
(15.4202 -7.08535e-23 5.10566)
(16.134 -4.42672e-20 5.28181)
(15.3334 1.21494e-20 4.86867)
(16.087 2.2231e-20 5.05668)
(16.0159 2.00029e-20 4.83622)
(15.2317 4.33905e-19 6.42703)
(15.2087 4.32922e-19 6.23166)
(15.4461 3.25433e-19 6.49963)
(15.4491 1.60426e-20 6.32059)
(15.6467 -9.35153e-21 6.55268)
(15.6815 -3.68455e-19 6.39294)
(15.8311 7.84093e-21 6.58447)
(15.903 4.47484e-19 6.44635)
(15.9985 -2.2744e-19 6.59384)
(16.1116 -8.27908e-20 6.47898)
(16.1485 -3.6523e-21 6.58017)
(16.3058 -2.23601e-19 6.48948)
(16.2818 1.45476e-19 6.54317)
(16.4849 2.77642e-19 6.47699)
(16.3996 -1.09729e-19 6.48276)
(16.6489 -2.48461e-19 6.44099)
(16.5031 -1.11202e-19 6.39898)
(16.798 -2.28296e-21 6.38126)
(16.5934 8.40353e-20 6.29195)
(16.9327 -1.05246e-19 6.29784)
(16.6708 8.50817e-20 6.16207)
(17.053 -4.51795e-21 6.19107)
(16.7347 0 6.01021)
(17.1587 0 6.06173)
(16.7838 0 5.83809)
(17.2487 0 5.91132)
(16.8159 -3.65843e-20 5.64863)
(17.3215 0 5.7423)
(16.8286 -6.89068e-20 5.44626)
(17.3752 -8.41758e-20 5.5584)
(16.8198 -2.2484e-20 5.23706)
(17.4079 1.22836e-19 5.36478)
(16.7882 3.03763e-20 5.02855)
(17.4183 -5.26462e-21 5.16801)
(16.7341 2.69525e-20 4.82927)
(17.4061 2.88164e-20 4.97579)
(17.3722 6.86439e-21 4.7964)
(15.4266 1.27918e-20 6.12178)
(15.3508 4.24075e-19 5.89916)
(15.6857 -6.87714e-19 6.21108)
(15.622 -4.17655e-19 5.99788)
(15.94 8.36802e-20 6.28447)
(15.8933 -2.77816e-19 6.08384)
(16.1868 3.65462e-19 6.33946)
(16.162 3.12284e-20 6.1544)
(16.4235 -7.59397e-20 6.37393)
(16.4254 3.31322e-19 6.20711)
(16.6481 5.50198e-20 6.38629)
(16.681 -2.91946e-19 6.23989)
(16.8592 -1.16234e-19 6.37542)
(16.9267 6.82238e-19 6.2511)
(17.0559 -1.42904e-19 6.34066)
(17.1607 -3.31989e-19 6.23957)
(17.2375 5.6305e-21 6.28178)
(17.3816 1.0457e-19 6.20463)
(17.4035 -1.9816e-19 6.19903)
(17.5883 -1.18229e-20 6.1461)
(17.5534 -9.19702e-20 6.09315)
(17.7796 -1.00892e-19 6.06435)
(17.6863 0 5.96555)
(17.9543 0 5.9604)
(17.801 0 5.81849)
(18.1113 0 5.83603)
(17.8961 -4.72844e-20 5.65522)
(18.2492 0 5.69395)
(17.9703 1.09951e-19 5.48022)
(18.3665 -5.36011e-20 5.53794)
(18.0225 1.43639e-19 5.29914)
(18.4621 1.29821e-19 5.3729)
(18.0523 -8.0339e-21 5.11872)
(18.5354 -1.59163e-20 5.2048)
(18.0605 7.81927e-21 4.94641)
(18.5867 -2.33016e-20 5.04043)
(18.0491 5.9581e-22 4.78991)
(18.6172 -9.5218e-21 4.88704)
(18.6311 2.10308e-20 4.75196)
(15.5456 0 5.77069)
(15.4375 0 5.53466)
(15.8294 0 5.86649)
(15.7234 3.31968e-19 5.63461)
(16.1156 -3.38025e-19 5.95012)
(16.0152 -3.74978e-19 5.7251)
(16.4016 -9.90739e-21 6.01899)
(16.3107 -4.31572e-19 5.80375)
(16.6848 1.22714e-19 6.07061)
(16.6074 2.59161e-19 5.86806)
(16.9625 3.32365e-19 6.10286)
(16.9028 -2.19858e-19 5.91565)
(17.2321 4.80939e-19 6.11404)
(17.1943 5.61961e-19 5.94454)
(17.4915 -8.61291e-20 6.10295)
(17.4794 -1.40652e-19 5.95312)
(17.7386 8.92931e-20 6.06892)
(17.7556 9.49428e-20 5.94031)
(17.9717 9.01459e-20 6.01192)
(18.0207 -1.17615e-19 5.90557)
(18.189 -7.84372e-21 5.93255)
(18.2725 7.93961e-20 5.84902)
(18.389 0 5.83222)
(18.5092 -1.62937e-19 5.77148)
(18.5701 0 5.71317)
(18.7287 9.59935e-21 5.6746)
(18.7309 -5.00649e-21 5.57862)
(18.9295 2.42647e-21 5.56095)
(18.8703 -3.69643e-20 5.43279)
(19.1101 -3.55578e-21 5.43404)
(18.9875 -3.22342e-20 5.28088)
(19.2693 -1.9125e-20 5.29833)
(19.0827 -3.2102e-20 5.12894)
(19.407 -3.323e-20 5.15918)
(19.1567 -4.19186e-20 4.98355)
(19.5233 -4.35613e-20 5.0226)
(19.2116 1.09176e-20 4.85152)
(19.6197 1.04281e-21 4.89497)
(19.2507 2.08356e-20 4.73847)
(19.6992 -1.90876e-22 4.78278)
(19.7795 1.88035e-21 4.68998)
(15.614 3.33653e-19 5.39331)
(15.4872 0 5.15297)
(15.908 -3.80837e-20 5.48819)
(15.7772 4.36806e-19 5.24866)
(16.2093 -4.69784e-19 5.57399)
(16.0765 -2.98645e-20 5.33728)
(16.5159 -1.69663e-19 5.64846)
(16.3836 -3.53644e-19 5.41697)
(16.8254 -8.25374e-20 5.70917)
(16.6966 -4.04152e-21 5.48551)
(17.1353 0 5.75388)
(17.0133 0 5.54065)
(17.443 -6.22701e-20 5.78069)
(17.3314 0 5.58036)
(17.7457 4.0064e-20 5.7881)
(17.6483 -1.27664e-19 5.60295)
(18.0407 -1.13555e-19 5.77512)
(17.9612 1.59939e-19 5.6071)
(18.3255 -1.32832e-19 5.74136)
(18.2675 -2.22159e-19 5.59203)
(18.5976 -7.5275e-20 5.68712)
(18.5645 8.96154e-20 5.55755)
(18.8548 -1.5622e-19 5.6135)
(18.8497 -2.46429e-19 5.50418)
(19.0949 1.24384e-20 5.52243)
(19.1206 8.81689e-20 5.43324)
(19.3162 4.43941e-21 5.41677)
(19.3753 7.02062e-20 5.34689)
(19.5173 1.52067e-20 5.30027)
(19.6119 4.47384e-21 5.24817)
(19.6976 -2.02143e-20 5.17756)
(19.8293 -7.01805e-20 5.14097)
(19.8569 -4.48108e-20 5.05395)
(20.0269 7.46632e-20 5.02997)
(19.9961 -2.46056e-22 4.93526)
(20.2048 -1.11701e-20 4.9204)
(20.1171 -1.07813e-20 4.82749)
(20.3643 -3.96852e-20 4.81786)
(20.2226 -2.15578e-20 4.73566)
(20.5072 -1.18442e-20 4.72807)
(20.6692 -2.64575e-22 4.65484)
(15.6486 9.67229e-20 5.00268)
(15.5113 0 4.76315)
(15.9439 4.54946e-19 5.0922)
(15.7994 5.14256e-20 4.85176)
(16.2491 9.60253e-20 5.17482)
(16.0983 3.64109e-19 4.93479)
(16.5627 -1.90832e-19 5.24878)
(16.407 -6.02022e-19 5.01092)
(16.8832 8.06469e-20 5.31201)
(16.7244 9.73558e-20 5.07843)
(17.2085 0 5.36246)
(17.0488 1.66894e-20 5.13538)
(17.5362 -6.45156e-20 5.39831)
(17.3783 5.49906e-19 5.17993)
(17.8638 -1.01941e-20 5.41803)
(17.7107 -2.65877e-19 5.21052)
(18.1886 5.60026e-20 5.42053)
(18.0436 1.13676e-19 5.22587)
(18.5077 0 5.40519)
(18.3742 0 5.2251)
(18.8185 -7.96958e-20 5.37204)
(18.6999 0 5.20786)
(19.1182 -1.66405e-21 5.32181)
(19.018 -8.1259e-20 5.17438)
(19.4044 1.48333e-19 5.256)
(19.3259 8.9503e-21 5.12562)
(19.6751 7.19388e-20 5.17698)
(19.6212 7.65168e-20 5.06327)
(19.9285 -8.19162e-20 5.08791)
(19.9021 5.71446e-20 4.98985)
(20.1638 2.48195e-20 4.99273)
(20.1671 -1.3532e-19 4.9086)
(20.3805 1.11326e-19 4.89601)
(20.4153 7.19038e-20 4.82347)
(20.5792 -5.12029e-20 4.80279)
(20.6466 -4.99866e-20 4.73893)
(20.7613 -4.13367e-20 4.71834)
(20.8619 -2.40287e-20 4.65981)
(20.9292 1.05122e-20 4.64711)
(21.062 1.06082e-20 4.59109)
(21.2988 -2.25294e-21 4.53652)
(15.66 -4.75432e-20 4.60639)
(15.5169 -4.96462e-20 4.37017)
(15.9517 -4.83021e-20 4.6885)
(15.8001 3.19844e-19 4.45062)
(16.2541 -3.32056e-19 4.76505)
(16.0942 -6.65863e-19 4.52637)
(16.5665 -3.20792e-19 4.8348)
(16.399 3.57893e-21 4.59653)
(16.8879 3.34696e-20 4.89613)
(16.7136 3.23807e-19 4.65987)
(17.2167 5.70196e-19 4.94735)
(17.0369 -2.85346e-19 4.71487)
(17.5511 3.5981e-19 4.98686)
(17.3676 5.64393e-19 4.75997)
(17.889 -1.46363e-19 5.01332)
(17.7039 -4.51205e-19 4.79383)
(18.228 5.85263e-20 5.0257)
(18.0437 3.01406e-19 4.81537)
(18.5656 0 5.02336)
(18.3849 5.42753e-20 4.82378)
(18.8991 0 5.00614)
(18.725 -1.85692e-19 4.81867)
(19.2259 -7.19394e-20 4.97451)
(19.0615 9.44966e-20 4.80011)
(19.5434 -6.61048e-20 4.92958)
(19.3919 -7.33439e-20 4.76877)
(19.8495 6.1836e-20 4.87321)
(19.714 -6.30061e-20 4.72595)
(20.1424 6.12836e-21 4.80796)
(20.0257 5.62046e-20 4.67365)
(20.4207 -9.08372e-20 4.73709)
(20.3254 -9.91688e-20 4.61449)
(20.684 -9.14291e-20 4.66442)
(20.6123 4.28611e-20 4.55173)
(20.9323 -2.22629e-20 4.59422)
(20.8858 9.97951e-21 4.48909)
(21.1668 2.88982e-20 4.53102)
(21.1465 1.94958e-20 4.43065)
(21.3892 0 4.47876)
(21.3943 6.84616e-21 4.38069)
(21.695 1.65569e-20 4.34286)
(15.6546 3.19444e-19 4.20848)
(15.5085 -3.85544e-19 3.97653)
(15.9403 -2.93136e-19 4.28252)
(15.7853 3.44945e-19 4.04866)
(16.2367 -3.35395e-19 4.35183)
(16.0728 -3.69275e-19 4.11667)
(16.5435 6.58438e-19 4.41556)
(16.3709 6.89224e-20 4.17989)
(16.8601 9.3334e-21 4.47257)
(16.6792 9.39049e-19 4.23757)
(17.1853 -3.08735e-19 4.52151)
(16.9968 -6.10443e-19 4.28859)
(17.5179 -2.47338e-19 4.56106)
(17.3227 6.88106e-20 4.33164)
(17.8562 -6.79832e-21 4.59012)
(17.6557 -2.52406e-19 4.36564)
(18.1984 3.02047e-19 4.60785)
(17.9942 2.48936e-19 4.38973)
(18.5423 -1.31512e-19 4.6137)
(18.3364 2.62267e-21 4.40328)
(18.8856 -9.40691e-20 4.60749)
(18.6804 -1.90616e-19 4.40594)
(19.2261 9.63651e-20 4.58949)
(19.024 2.73707e-19 4.39774)
(19.5613 -7.02263e-20 4.56056)
(19.3651 -1.55029e-19 4.37916)
(19.8893 -7.10963e-20 4.52212)
(19.7017 7.04604e-20 4.35122)
(20.2082 -4.89013e-20 4.47622)
(20.0318 0 4.31547)
(20.5167 3.54092e-20 4.42548)
(20.354 1.08893e-22 4.27401)
(20.8141 1.47667e-19 4.37303)
(20.6673 8.64865e-20 4.22948)
(21.1002 5.28046e-20 4.32241)
(20.9711 6.29831e-20 4.18491)
(21.3759 -2.85085e-21 4.27743)
(21.2658 -3.52104e-20 4.14369)
(21.6424 2.03124e-20 4.24154)
(21.5505 3.96617e-20 4.1094)
(21.9021 -1.13965e-20 4.08553)
(15.6366 -3.74997e-19 3.8108)
(15.489 -3.67379e-19 3.58331)
(15.9153 2.81888e-19 3.87682)
(15.759 -3.4665e-19 3.64736)
(16.2045 3.65663e-20 3.93866)
(16.0394 6.74678e-19 3.70772)
(16.5038 3.38713e-19 3.99576)
(16.3299 -3.30758e-19 3.76388)
(16.813 3.35257e-19 4.04738)
(16.6303 6.40305e-19 3.81539)
(17.1312 -2.37065e-19 4.09249)
(16.9402 -2.35032e-19 3.86151)
(17.4575 7.02331e-20 4.13002)
(17.2587 3.30568e-21 3.90119)
(17.7907 0 4.15909)
(17.5848 6.35896e-20 3.93355)
(18.1293 -5.33621e-20 4.17907)
(17.9174 0 3.95794)
(18.4717 -5.41108e-20 4.18954)
(18.2553 -5.44446e-20 3.97388)
(18.8161 1.77735e-19 4.19036)
(18.5967 0 3.98111)
(19.1605 2.40464e-20 4.18175)
(18.9401 1.83538e-19 3.97968)
(19.503 -1.51062e-20 4.16436)
(19.2837 -4.95229e-21 3.96997)
(19.8419 1.44725e-19 4.13933)
(19.6258 7.09931e-20 3.95279)
(20.1755 5.02085e-20 4.10827)
(19.9648 -5.72297e-20 3.92937)
(20.5026 5.08157e-20 4.07328)
(20.2995 1.0779e-19 3.9014)
(20.8225 0 4.03688)
(20.6288 -4.42506e-20 3.87097)
(21.1349 -2.55093e-20 4.00195)
(20.9525 -3.51419e-20 3.84054)
(21.4404 7.08239e-21 3.97164)
(21.2705 9.28155e-21 3.81286)
(21.7402 5.03271e-21 3.9489)
(21.5819 -8.84461e-21 3.79084)
(21.9713 -1.42812e-20 3.77773)
(15.6087 -3.38753e-19 3.41398)
(15.4606 7.28613e-19 3.1907)
(15.8805 3.47455e-20 3.47229)
(15.724 -3.33139e-19 3.24701)
(16.1621 3.18981e-19 3.52688)
(15.9973 5.76084e-20 3.30005)
(16.4536 -4.15633e-20 3.57736)
(16.2801 -4.17817e-20 3.34937)
(16.7545 7.32826e-20 3.62328)
(16.5726 -3.36162e-19 3.39471)
(17.0645 6.77922e-21 3.66392)
(16.8743 5.40628e-19 3.43562)
(17.3828 -4.71937e-21 3.69843)
(17.1845 -3.44585e-19 3.47139)
(17.7083 6.4903e-20 3.7261)
(17.5025 2.46241e-19 3.50126)
(18.0402 0 3.74646)
(17.8275 -2.9827e-19 3.52467)
(18.377 0 3.75919)
(18.1585 2.06673e-19 3.54127)
(18.7175 2.42928e-21 3.76424)
(18.4943 -2.53441e-19 3.55093)
(19.0601 1.57499e-19 3.7618)
(18.8335 3.95261e-20 3.5537)
(19.4032 8.18248e-20 3.75243)
(19.1749 6.60264e-20 3.54994)
(19.7455 -1.33816e-19 3.73702)
(19.517 -1.51821e-19 3.54029)
(20.0857 -1.32959e-21 3.71688)
(19.8588 -8.67231e-22 3.52576)
(20.4227 1.31524e-20 3.69367)
(20.199 8.75245e-22 3.50768)
(20.7559 -8.05011e-20 3.66941)
(20.5371 -8.65951e-20 3.48773)
(21.0851 -3.95997e-22 3.64643)
(20.8726 2.06261e-21 3.46787)
(21.4108 -6.74355e-21 3.62724)
(21.2056 3.6103e-20 3.45028)
(21.7339 -2.8746e-20 3.61431)
(21.5351 -2.92594e-20 3.4373)
(21.951 1.76551e-20 3.43183)
(15.5731 7.57435e-19 3.01784)
(15.4253 7.96274e-19 2.79852)
(15.8381 -3.18013e-19 3.06879)
(15.6824 -1.2473e-20 2.84738)
(16.1125 -3.10615e-19 3.11647)
(15.9489 -3.95934e-19 2.89343)
(16.3963 -3.37951e-19 3.16057)
(16.2245 0 2.93622)
(16.6893 1.25125e-19 3.20081)
(16.5094 -1.39418e-20 2.97555)
(16.991 1.98657e-19 3.23679)
(16.8032 1.88616e-19 3.01127)
(17.3009 -9.92565e-20 3.26786)
(17.1054 -2.82871e-19 3.04294)
(17.6184 -1.15275e-19 3.29342)
(17.4153 1.85853e-19 3.06986)
(17.9425 -9.65229e-20 3.31306)
(17.7325 -2.48974e-19 3.09155)
(18.2723 -4.41663e-20 3.32659)
(18.0561 6.74176e-21 3.10778)
(18.6068 -2.21129e-19 3.334)
(18.3852 -9.05868e-21 3.11847)
(18.9448 -5.47833e-20 3.33549)
(18.7188 8.2254e-20 3.12371)
(19.2851 -1.69579e-19 3.33153)
(19.0559 -9.45462e-20 3.12382)
(19.6267 -1.83404e-20 3.32286)
(19.3954 -7.71105e-20 3.11932)
(19.9685 1.39299e-21 3.31052)
(19.7365 1.26753e-21 3.11104)
(20.3098 -9.99958e-20 3.29585)
(20.0784 4.78876e-20 3.10003)
(20.6501 -3.9652e-21 3.28045)
(20.4205 -1.32297e-19 3.08763)
(20.9894 3.87149e-20 3.26615)
(20.7625 1.29031e-19 3.07539)
(21.3279 1.41381e-20 3.25496)
(21.1048 -1.53248e-20 3.06502)
(21.6667 1.33646e-20 3.24886)
(21.4461 -2.34366e-21 3.05834)
(21.8798 3.10317e-21 3.05787)
(15.5318 2.35721e-20 2.62228)
(15.3849 3.91691e-19 2.40632)
(15.7903 -8.41366e-20 2.66616)
(15.6361 0 2.44799)
(16.0581 -8.55365e-20 2.70724)
(15.8964 -3.68113e-19 2.48729)
(16.3347 3.32924e-19 2.7452)
(16.1655 3.18056e-19 2.52381)
(16.6202 4.69251e-20 2.77992)
(16.4433 3.40052e-19 2.55737)
(16.9142 -2.95826e-19 2.81123)
(16.7298 9.47064e-21 2.58798)
(17.2164 0 2.83866)
(17.0247 -2.68156e-19 2.61539)
(17.5261 5.75118e-20 2.86168)
(17.3273 -3.07308e-20 2.63907)
(17.8427 -1.48277e-19 2.87994)
(17.6371 2.79502e-19 2.65859)
(18.1655 4.29653e-20 2.89333)
(17.9537 -4.28667e-19 2.67376)
(18.4936 3.00431e-19 2.90186)
(18.2763 3.06468e-19 2.68454)
(18.8262 4.48517e-20 2.90575)
(18.6041 -8.37065e-20 2.69104)
(19.1625 0 2.90536)
(18.9364 1.18982e-19 2.69352)
(19.5015 -5.853e-20 2.90133)
(19.2724 -7.47758e-20 2.69243)
(19.8425 4.80393e-20 2.89447)
(19.6114 -5.96933e-20 2.68842)
(20.1851 1.81762e-20 2.88585)
(19.9529 1.0947e-19 2.68234)
(20.5289 -1.29454e-21 2.87674)
(20.2965 -5.30241e-20 2.67524)
(20.8739 7.63021e-20 2.86857)
(20.6422 5.25549e-20 2.66832)
(21.2205 -3.24061e-20 2.86288)
(20.99 1.08995e-20 2.66291)
(21.5696 -1.70255e-20 2.86124)
(21.3392 -1.71067e-20 2.66038)
(21.7847 0 2.66285)
(15.4865 3.76165e-19 2.22605)
(15.3409 3.77992e-19 2.01332)
(15.7393 -2.83556e-19 2.26306)
(15.5868 0 2.04799)
(16.0009 3.13578e-20 2.29774)
(15.8414 7.09425e-21 2.08075)
(16.2711 3.24936e-19 2.32979)
(16.1046 -4.58302e-21 2.11122)
(16.5499 3.08562e-19 2.35913)
(16.3762 3.63602e-20 2.1392)
(16.837 4.37943e-20 2.38574)
(16.6563 3.1519e-19 2.16473)
(17.1321 -3.04768e-19 2.40934)
(16.9447 -2.43106e-19 2.18778)
(17.4349 1.90675e-19 2.42948)
(17.2407 -2.36134e-19 2.20802)
(17.7447 6.35131e-21 2.44588)
(17.5441 6.75877e-19 2.22504)
(18.061 -1.73268e-19 2.45842)
(17.8544 -3.37908e-19 2.23862)
(18.3831 -7.99222e-20 2.46715)
(18.1711 -9.67684e-20 2.24875)
(18.7106 -1.17346e-20 2.47224)
(18.4937 -8.89089e-20 2.25557)
(19.0426 4.61388e-20 2.47403)
(18.8215 2.00984e-19 2.25929)
(19.3785 -7.62833e-20 2.47301)
(19.154 -1.1217e-19 2.26028)
(19.7179 0 2.46985)
(19.4906 0 2.25906)
(20.0604 3.94108e-20 2.46536)
(19.831 -2.67353e-20 2.25628)
(20.4058 -2.26885e-23 2.46055)
(20.1751 8.40384e-20 2.25276)
(20.7542 -1.37263e-20 2.4565)
(20.5226 -5.86089e-20 2.24942)
(21.106 2.71542e-20 2.4544)
(20.8741 1.35875e-21 2.24727)
(21.4619 0 2.45545)
(21.2286 0 2.24735)
(21.6821 0 2.25144)
(15.4384 0 1.82972)
(15.2948 0 1.6186)
(15.686 2.98407e-19 1.86006)
(15.5359 -3.26613e-19 1.64639)
(15.9422 -2.94837e-20 1.88855)
(15.7855 6.65943e-19 1.67271)
(16.2068 -3.01959e-19 1.9149)
(16.0436 -6.35151e-19 1.69726)
(16.4797 3.71477e-20 1.93901)
(16.3098 1.31966e-20 1.71975)
(16.7608 3.24794e-20 1.96093)
(16.5844 2.7463e-19 1.74023)
(17.0498 -1.72735e-19 1.98058)
(16.8672 1.58562e-21 1.75886)
(17.3465 2.42788e-19 1.99766)
(17.1576 -2.10143e-19 1.77548)
(17.6504 3.4361e-19 2.01184)
(17.4554 4.61334e-19 1.78966)
(17.9611 -2.64372e-19 2.02302)
(17.7604 -1.8337e-20 1.80117)
(18.2781 -1.06185e-19 2.03125)
(18.0722 -3.39323e-19 1.81005)
(18.6009 1.23554e-19 2.03671)
(18.3903 5.16296e-20 1.81644)
(18.9291 4.47958e-20 2.03967)
(18.7142 1.97756e-19 1.82052)
(19.2622 -3.61223e-20 2.04052)
(19.0435 -7.49086e-20 1.82257)
(19.5998 -2.69049e-20 2.03976)
(19.3779 0 1.82297)
(19.9417 1.68385e-20 2.03803)
(19.7172 -1.17904e-21 1.82224)
(20.2879 2.67718e-20 2.03608)
(20.0612 6.70789e-20 1.82098)
(20.6384 -4.432e-20 2.03474)
(20.41 -7.39279e-22 1.81989)
(20.9937 -2.6495e-20 2.03489)
(20.7638 -1.89284e-20 1.81972)
(21.3546 0 2.03743)
(21.1221 1.38316e-20 1.82119)
(21.581 0 1.8257)
(15.3895 -3.28267e-19 1.42877)
(15.248 0 1.22121)
(15.6325 2.87137e-20 1.45241)
(15.4848 -3.35771e-19 1.24215)
(15.8839 7.25356e-20 1.47466)
(15.7301 3.51673e-19 1.262)
(16.1437 -3.25552e-19 1.49525)
(15.9838 -2.8474e-19 1.28055)
(16.4117 2.51656e-19 1.51405)
(16.2456 -4.22122e-20 1.29754)
(16.6877 2.48903e-19 1.53116)
(16.5155 2.82256e-19 1.313)
(16.9716 -3.22106e-20 1.54666)
(16.7936 -3.23987e-20 1.32717)
(17.2631 0 1.5603)
(17.0795 0 1.33994)
(17.5621 9.9661e-20 1.57176)
(17.3728 1.05367e-19 1.35093)
(17.8682 -8.85785e-20 1.58096)
(17.6734 9.52833e-20 1.35997)
(18.1809 -1.85392e-19 1.58798)
(17.9811 -3.1311e-19 1.36712)
(18.4999 1.24966e-19 1.59297)
(18.2955 -1.39759e-20 1.3725)
(18.8249 8.04405e-20 1.59613)
(18.6162 4.69768e-20 1.37622)
(19.1555 -3.95139e-20 1.59776)
(18.943 1.52948e-20 1.3785)
(19.4915 2.62626e-20 1.59822)
(19.2756 -2.82488e-20 1.37961)
(19.8328 4.88565e-20 1.598)
(19.6138 5.47077e-20 1.37994)
(20.1793 4.00391e-20 1.59766)
(19.9577 1.268e-21 1.37993)
(20.5313 2.552e-20 1.59781)
(20.3073 2.62903e-21 1.38008)
(20.8892 2.18271e-20 1.59911)
(20.663 2.32843e-20 1.38097)
(21.2534 1.41305e-20 1.60228)
(21.0243 4.53863e-21 1.38317)
(21.4873 -2.1852e-21 1.388)
(15.3405 0 1.03003)
(15.2015 5.18397e-21 0.819777)
(15.5796 -1.94026e-20 1.04714)
(15.4349 -1.60872e-19 0.833831)
(15.827 -1.29262e-21 1.06326)
(15.6767 1.43022e-19 0.847141)
(16.0828 1.21292e-21 1.07821)
(15.9268 2.78487e-20 0.859592)
(16.3466 -1.78294e-20 1.09189)
(16.1849 -1.34327e-19 0.871032)
(16.6185 0 1.10439)
(16.451 -2.53698e-21 0.88146)
(16.8982 0 1.1158)
(16.7253 5.72017e-21 0.891027)
(17.1856 1.0599e-19 1.12594)
(17.0076 1.16791e-19 0.899688)
(17.4807 1.01107e-19 1.13456)
(17.2973 5.66775e-20 0.907203)
(17.783 -1.26757e-19 1.1416)
(17.5945 4.42364e-20 0.913454)
(18.0923 -1.43303e-19 1.14715)
(17.899 -5.59074e-20 0.918477)
(18.4083 -9.53238e-20 1.1513)
(18.2106 -7.36645e-20 0.92234)
(18.7307 -1.9289e-20 1.15419)
(18.5289 -3.57194e-20 0.925129)
(19.0594 2.77578e-20 1.15602)
(18.8537 7.35214e-20 0.926981)
(19.3942 -7.42809e-22 1.15706)
(19.1848 -1.22428e-21 0.928092)
(19.7349 6.78019e-21 1.15766)
(19.5223 1.20096e-21 0.928714)
(20.0818 -3.73166e-20 1.15821)
(19.866 -3.28565e-20 0.929151)
(20.435 -2.71956e-22 1.15915)
(20.2163 -1.56154e-20 0.929753)
(20.7949 5.6323e-21 1.16095)
(20.5734 1.42274e-20 0.930905)
(21.1622 -1.41571e-20 1.16415)
(20.937 -1.52575e-20 0.932978)
(21.4027 1.55423e-21 0.936788)
(15.2932 -1.56465e-19 0.614996)
(15.0554 2.9577e-22 0.412442)
(15.5292 -8.10318e-22 0.625089)
(15.2857 -1.60628e-19 0.41951)
(15.7735 1.75654e-19 0.634583)
(15.5242 1.58308e-19 0.426196)
(16.0259 -1.07976e-19 0.64339)
(15.7709 5.20197e-22 0.432452)
(16.2865 -1.21617e-19 0.651455)
(16.0257 -1.1975e-19 0.438211)
(16.5551 3.22869e-21 0.658824)
(16.2882 5.20702e-21 0.443444)
(16.8315 1.23346e-19 0.66553)
(16.5591 5.87887e-21 0.448216)
(17.1158 6.74291e-20 0.671488)
(16.838 1.2001e-19 0.452529)
(17.4078 -1.51396e-21 0.676579)
(17.1242 -5.30221e-20 0.456285)
(17.7073 1.18961e-19 0.680767)
(17.4179 7.57674e-20 0.459419)
(18.0141 1.5624e-20 0.684082)
(17.7191 4.51828e-20 0.461938)
(18.3278 -1.34459e-20 0.686581)
(18.0275 -6.34817e-20 0.463873)
(18.6484 5.7139e-20 0.68835)
(18.3428 2.27762e-20 0.465268)
(18.9756 4.50928e-20 0.689517)
(18.6648 1.90149e-20 0.466197)
(19.3094 7.29182e-22 0.690254)
(18.9934 4.40225e-20 0.466763)
(19.6498 -3.87938e-20 0.690778)
(19.3286 -2.81661e-20 0.467102)
(19.9969 -1.09371e-20 0.691347)
(19.6705 -7.41724e-22 0.467384)
(20.3509 -1.02078e-21 0.692279)
(20.0193 0 0.467827)
(20.7123 -6.27921e-21 0.693967)
(20.3753 -7.0771e-21 0.468738)
(21.0813 -1.7046e-21 0.697088)
(20.7389 -5.33227e-21 0.470602)
(21.205 3.6843e-21 0.474972)
(15.0424 -3.16773e-22 0.215501)
(15.2751 -4.33358e-21 0.219225)
(15.5159 -1.82864e-20 0.222729)
(15.7649 -8.98678e-21 0.225982)
(16.022 7.93176e-21 0.228958)
(16.2869 8.05886e-21 0.231657)
(16.5596 0 0.23409)
(16.8401 0 0.236238)
(17.1282 2.36056e-20 0.238071)
(17.4238 6.64643e-22 0.239568)
(17.7266 -3.39196e-20 0.240732)
(18.0364 -2.82134e-20 0.241579)
(18.3531 -1.62708e-20 0.24214)
(18.6764 1.74102e-20 0.242461)
(19.0063 1.58311e-20 0.242606)
(19.3429 1.05618e-20 0.242654)
(19.6863 1.07102e-20 0.242712)
(20.0369 -6.28441e-21 0.242925)
(20.3955 -6.37403e-21 0.243519)
(20.763 0 0.245093)
)
;

boundaryField
{
    inlet
    {
        type            calculated;
        value           nonuniform 0();
    }
    outlet
    {
        type            calculated;
        value           nonuniform List<vector> 
15
(
(19.2775 0 4.68681)
(20.3163 3.81045e-21 4.694)
(21.0864 -4.44762e-21 4.61522)
(21.6029 0 4.45593)
(21.903 3.35534e-20 4.22654)
(22.0371 -5.70178e-20 3.94015)
(22.0572 2.88866e-20 3.61016)
(22.0082 6.12667e-21 3.24782)
(21.9235 0 2.86212)
(21.8241 0 2.45739)
(21.723 0 2.03983)
(21.6255 0 1.60479)
(21.5387 -4.42633e-21 1.16646)
(21.4583 7.27947e-21 0.699316)
(21.1426 0 0.24631)
)
;
    }
    flap
    {
        type            calculated;
        value           nonuniform 0();
    }
    upperWall
    {
        type            calculated;
        value           uniform (0 0 0);
    }
    lowerWall
    {
        type            calculated;
        value           nonuniform 0();
    }
    frontAndBack
    {
        type            empty;
        value           nonuniform 0();
    }
    procBoundary2to1
    {
        type            processor;
        value           nonuniform List<vector> 
17
(
(15.0061 3.56772e-19 6.33709)
(15.1656 4.72256e-19 6.01927)
(15.2667 0 5.66526)
(15.3287 0 5.29135)
(15.3638 0 4.90764)
(15.3794 0 4.5197)
(15.3799 3.81808e-19 4.13046)
(15.3684 -7.60575e-19 3.74125)
(15.3471 -2.41313e-20 3.35251)
(15.3178 7.44946e-19 2.96412)
(15.2824 4.79539e-20 2.57605)
(15.2426 7.28167e-19 2.18708)
(15.1995 0 1.79782)
(15.155 0 1.40396)
(15.1098 0 1.01208)
(15.0655 5.21229e-21 0.604384)
(14.8179 -5.09593e-21 0.21159)
)
;
    }
    procBoundary2to4
    {
        type            processor;
        value           nonuniform List<vector> 
11
(
(3.13361 -1.01347e-20 3.53297)
(4.39583 -1.69802e-19 3.75849)
(5.92386 1.41309e-19 4.15527)
(7.63926 1.47287e-19 4.73947)
(9.34369 -1.31998e-19 5.39424)
(10.8686 -3.89085e-19 5.988)
(12.1331 -1.49722e-19 6.43863)
(13.1236 2.92122e-19 6.71404)
(13.8638 -6.42316e-19 6.81607)
(14.3943 -5.21902e-19 6.76631)
(14.7608 -6.60653e-19 6.59577)
)
;
    }
    procBoundary2to5
    {
        type            processor;
        value           nonuniform List<vector> 
34
(
(2.51572 8.57583e-19 3.5781)
(2.34067 4.82104e-19 3.80788)
(2.7981 1.60506e-19 4.02281)
(3.28612 0 4.23734)
(3.07018 5.27613e-19 4.39494)
(3.57788 2.60532e-19 4.58574)
(4.10845 0 4.77172)
(4.66777 -3.05305e-21 4.94368)
(5.24322 -3.1214e-21 5.1083)
(5.02199 8.64103e-21 5.14115)
(5.64219 0 5.27065)
(6.26984 3.46516e-20 5.38709)
(6.05579 -6.40741e-20 5.32248)
(6.7413 -6.50709e-20 5.40409)
(7.42219 1.04369e-19 5.46773)
(8.14819 5.85048e-20 5.51709)
(8.85832 3.58695e-20 5.5484)
(8.69646 -1.07787e-19 5.35118)
(9.46701 -9.14582e-20 5.3542)
(10.2059 -8.23935e-20 5.33987)
(10.9846 -2.75915e-20 5.321)
(11.7234 0 5.28851)
(11.5911 6.61825e-20 5.00454)
(12.372 2.05873e-20 4.97749)
(13.1067 -9.12014e-20 4.93865)
(13.873 -3.86227e-20 4.9172)
(14.5868 1.86904e-20 4.88163)
(14.4613 -6.73648e-21 4.63118)
(15.2218 -1.4054e-20 4.64146)
(15.9214 -7.60641e-21 4.63015)
(16.6594 6.80144e-21 4.64811)
(17.3219 5.90417e-22 4.63824)
(18.0218 -4.35774e-21 4.65562)
(18.6275 -4.89646e-21 4.63944)
)
;
    }
}

