/*--------------------------------*- C++ -*----------------------------------*\
| =========                 |                                                 |
| \\      /  F ield         | OpenFOAM: The Open Source CFD Toolbox           |
|  \\    /   O peration     | Version:  dev                                   |
|   \\  /    A nd           | Web:      www.OpenFOAM.org                      |
|    \\/     M anipulation  |                                                 |
\*---------------------------------------------------------------------------*/
FoamFile
{
    version     2.0;
    format      ascii;
    class       surfaceScalarField;
    location    "1.31";
    object      phi;
}
// * * * * * * * * * * * * * * * * * * * * * * * * * * * * * * * * * * * * * //

dimensions      [0 3 -1 0 0 0 0];

internalField   nonuniform List<scalar> 
5457
(
0.197481
0.00256655
0.195015
0.00250318
0.192538
0.00250264
0.189974
0.00257771
0.187305
0.00267335
0.18452
0.00278037
0.181604
0.00290242
0.178543
0.00304123
0.175319
0.0032007
0.171915
0.0033769
0.168315
0.0035722
0.164494
0.00379423
0.160427
0.00404284
0.156085
0.00432046
0.151437
0.0046306
0.146446
0.00497773
0.14107
0.0053671
0.13526
0.00580435
0.128962
0.00629467
0.122113
0.00684906
0.114638
0.00747643
0.106458
0.00818393
0.0974774
0.00898458
0.0875873
0.00989399
0.0766551
0.0109355
0.0645126
0.0121452
0.0509299
0.0135845
0.0355464
0.0153846
0.0175586
0.0179883
0.0175588
0.199342
0.00327292
0.198218
0.00366358
0.196946
0.0038007
0.195533
0.00400483
0.193959
0.00425189
0.192209
0.00452507
0.190276
0.00482221
0.188149
0.0051489
0.185815
0.00551046
0.183259
0.00590619
0.180462
0.00634128
0.177405
0.00682427
0.174065
0.00735758
0.170417
0.00794718
0.16643
0.00860056
0.162067
0.0093269
0.157287
0.0101376
0.152039
0.0110461
0.146267
0.0120646
0.139902
0.013213
0.132866
0.0145151
0.125056
0.0159975
0.11635
0.0176944
0.106594
0.0196534
0.0955798
0.0219535
0.0829945
0.0247333
0.0683499
0.0282311
0.050836
0.0328995
0.028541
0.0402836
0.0461
0.199205
0.00411619
0.198161
0.00474506
0.196961
0.00502596
0.195638
0.00534209
0.194178
0.00571601
0.192568
0.00613078
0.190797
0.00658053
0.188855
0.00707138
0.186735
0.00760615
0.184418
0.00819591
0.181884
0.00884751
0.179119
0.0095617
0.176104
0.0103473
0.172815
0.0112147
0.169223
0.0121753
0.165293
0.0132424
0.160987
0.0144342
0.156253
0.0157734
0.151029
0.0172857
0.145246
0.0189957
0.138818
0.0209447
0.131619
0.0232008
0.123482
0.0258353
0.114195
0.0289443
0.103454
0.0326974
0.0907857
0.0374049
0.0753497
0.0436694
0.0557981
0.0524522
0.0307886
0.0652933
0.0768887
0.199113
0.00505095
0.198075
0.00582057
0.196889
0.0062377
0.195576
0.00666961
0.194132
0.0071648
0.192546
0.00771248
0.190806
0.00830785
0.188902
0.00895543
0.186825
0.00965882
0.184561
0.0104327
0.182096
0.0112845
0.179416
0.0122146
0.176503
0.0132347
0.173336
0.0143603
0.169886
0.0156064
0.166126
0.016989
0.162017
0.0185324
0.157516
0.020268
0.152557
0.0222416
0.147058
0.0244943
0.140925
0.0270789
0.13403
0.0300996
0.126175
0.0336941
0.117082
0.0380404
0.106342
0.0434406
0.093382
0.0503684
0.0773013
0.059753
0.0562027
0.0735522
0.0300874
0.0914085
0.106976
0.199066
0.00603261
0.19802
0.00690444
0.196844
0.00743997
0.195542
0.0079864
0.194112
0.00859958
0.192543
0.0092767
0.190825
0.0100143
0.188945
0.0108161
0.186891
0.0116886
0.184653
0.0126432
0.182221
0.013688
0.17958
0.0148284
0.176713
0.0160757
0.173597
0.0174542
0.170203
0.018982
0.166503
0.0206739
0.162462
0.0225624
0.158036
0.0246878
0.153164
0.0271093
0.147759
0.0298981
0.141704
0.0331357
0.134867
0.0369398
0.127036
0.0415293
0.117889
0.0471909
0.106971
0.0543612
0.0935423
0.0637996
0.0767962
0.0765025
0.054708
0.0956429
0.0284351
0.117682
0.135411
0.199042
0.00703826
0.19799
0.00799467
0.196823
0.00863227
0.195536
0.00928886
0.194124
0.0100168
0.192577
0.0108205
0.190881
0.0116978
0.189026
0.012652
0.187
0.0136907
0.184792
0.0148245
0.182388
0.0160627
0.179775
0.0174134
0.176935
0.01889
0.173847
0.0205192
0.170486
0.0223239
0.166818
0.0243264
0.162804
0.026565
0.158392
0.0290923
0.15353
0.0319674
0.148129
0.0352972
0.142054
0.0392115
0.13515
0.043848
0.12719
0.0494933
0.117825
0.0565591
0.106601
0.0655871
0.0927868
0.0776154
0.0754166
0.0938754
0.0524637
0.118599
0.0264594
0.143687
0.16187
0.199033
0.00805354
0.197977
0.00908831
0.19682
0.00981535
0.195549
0.010575
0.194158
0.0114139
0.192634
0.0123412
0.190965
0.0133553
0.189139
0.0144593
0.187144
0.0156616
0.184968
0.016973
0.182598
0.0184042
0.180016
0.0199669
0.177201
0.021679
0.17414
0.0235563
0.170812
0.0256322
0.167175
0.0279476
0.163187
0.0305401
0.158789
0.0334824
0.153908
0.0368432
0.148463
0.0407402
0.142325
0.0453502
0.135304
0.050872
0.127165
0.057637
0.11756
0.066168
0.105962
0.0771883
0.0917363
0.0918405
0.0739857
0.111626
0.0503418
0.142247
0.0245052
0.169526
0.186374
0.199033
0.00906864
0.197977
0.0101819
0.196832
0.0109868
0.195581
0.011842
0.194213
0.0127881
0.192716
0.0138353
0.191078
0.0149824
0.189286
0.0162331
0.187328
0.017596
0.185192
0.0190818
0.182865
0.0207025
0.180327
0.0224757
0.177559
0.0244204
0.174544
0.0265472
0.171251
0.0289041
0.16764
0.0315422
0.163666
0.0345011
0.159273
0.0378659
0.154374
0.0417368
0.148884
0.0462269
0.142677
0.0515571
0.135542
0.0580094
0.127235
0.0659485
0.117407
0.0760014
0.105557
0.0890422
0.0909009
0.106497
0.0728889
0.129636
0.0487071
0.16643
0.0226323
0.195604
0.209006
0.199039
0.010077
0.197992
0.0112665
0.196866
0.0121402
0.19564
0.0130843
0.194302
0.0141336
0.192838
0.0152968
0.191237
0.0165726
0.189485
0.0179668
0.18757
0.0194878
0.185481
0.0211443
0.183204
0.0229496
0.18072
0.0249308
0.178006
0.0271075
0.175035
0.0294925
0.171779
0.0321394
0.168201
0.0351016
0.164248
0.0384407
0.159871
0.0422331
0.154989
0.0466123
0.149483
0.051729
0.143221
0.0578184
0.136003
0.0652281
0.127568
0.0743864
0.117559
0.0860156
0.105487
0.10112
0.0905537
0.121433
0.0722661
0.147921
0.0472849
0.19141
0.0206442
0.222248
0.229651
0.199052
0.0110726
0.198022
0.0123348
0.196918
0.0132707
0.195722
0.0142975
0.194418
0.0154454
0.192993
0.0167201
0.191436
0.0181198
0.18973
0.019655
0.187862
0.0213326
0.185823
0.0231573
0.183595
0.0251486
0.181161
0.0273353
0.178501
0.0297394
0.175581
0.0323872
0.172377
0.0353208
0.168862
0.0385975
0.164972
0.042316
0.160637
0.0465566
0.155788
0.0514543
0.150302
0.0572104
0.144032
0.064086
0.136792
0.0724688
0.128296
0.0828834
0.118199
0.0961162
0.105953
0.113371
0.0908291
0.136563
0.0718616
0.166888
0.0456342
0.217632
0.0181713
0.249712
0.247823
0.199069
0.0120508
0.19806
0.0133823
0.196982
0.0143756
0.195818
0.0154794
0.194551
0.0167207
0.193168
0.0181025
0.191653
0.0196253
0.189993
0.0212986
0.188177
0.0231254
0.186194
0.025114
0.18402
0.027293
0.181648
0.0296785
0.17906
0.0322984
0.176225
0.0351963
0.173107
0.0384155
0.169661
0.0420232
0.165844
0.0461175
0.161577
0.0508104
0.156793
0.0562297
0.151384
0.0626143
0.145184
0.0702834
0.138011
0.0796425
0.129587
0.0913069
0.119527
0.106176
0.10731
0.125592
0.091914
0.151966
0.0718898
0.186915
0.045013
0.244505
0.0169617
0.27776
0.264784
0.199088
0.0130096
0.198102
0.0144062
0.197053
0.0154524
0.195923
0.0166277
0.194696
0.0179572
0.193356
0.0194424
0.191886
0.0210872
0.190278
0.0228908
0.188526
0.0248556
0.186612
0.0270016
0.184519
0.0293572
0.182233
0.0319343
0.179731
0.0347717
0.176981
0.0379189
0.173951
0.0414214
0.17059
0.0453636
0.166868
0.049822
0.162727
0.0549381
0.158068
0.0608779
0.152786
0.0678899
0.146741
0.0763254
0.139747
0.0866361
0.131541
0.0995126
0.121737
0.115978
0.109695
0.137632
0.0942657
0.167399
0.0741228
0.207063
0.0487416
0.269884
0.0213554
0.305143
0.286136
0.199109
0.0139471
0.19815
0.0154032
0.197134
0.0164968
0.196043
0.0177376
0.194861
0.0191498
0.19357
0.0207337
0.19216
0.0224899
0.19062
0.0244157
0.188939
0.0265155
0.187104
0.0288106
0.185099
0.0313336
0.182898
0.034105
0.18048
0.0371604
0.17782
0.0405518
0.174897
0.0443187
0.171675
0.0485644
0.168094
0.0533843
0.164107
0.0589108
0.159626
0.0653471
0.154548
0.0729588
0.148763
0.082106
0.142083
0.093315
0.134271
0.107325
0.124934
0.125312
0.113452
0.149111
0.0990923
0.181756
0.0805487
0.225608
0.058889
0.291545
0.0339913
0.330038
0.320119
0.199136
0.0148578
0.198209
0.0163674
0.197232
0.0175029
0.196186
0.0188035
0.195053
0.0202933
0.19382
0.0219691
0.192478
0.0238257
0.19101
0.0258693
0.189402
0.0281031
0.187643
0.0305441
0.185717
0.0332312
0.183603
0.0361891
0.18129
0.0394436
0.178766
0.0430484
0.175987
0.0470718
0.172918
0.0516108
0.169508
0.0567748
0.165718
0.0626844
0.161484
0.069568
0.156702
0.0777315
0.151272
0.0875291
0.145061
0.0995232
0.13785
0.114535
0.129334
0.133827
0.11927
0.15917
0.107171
0.193849
0.0920644
0.240711
0.0770984
0.306509
0.0576206
0.34951
0.377727
0.19916
0.0157433
0.198266
0.0173002
0.197326
0.0184721
0.196322
0.0198271
0.195237
0.0213907
0.194057
0.0231519
0.192772
0.0251054
0.191366
0.0272621
0.189829
0.0296206
0.188145
0.0322032
0.186307
0.0350414
0.184307
0.0381595
0.182122
0.0415991
0.179726
0.0454158
0.177078
0.0496933
0.174165
0.0544997
0.170962
0.0599573
0.167408
0.0662218
0.163443
0.073519
0.158999
0.0821633
0.153998
0.0925222
0.148361
0.105155
0.141959
0.120935
0.134749
0.141034
0.126682
0.167232
0.117816
0.202706
0.108784
0.249733
0.104871
0.310413
0.0994595
0.35491
0.477168
0.00397596
-0.00398137
0.00768081
-0.00374674
0.0116234
-0.00406091
0.0165343
-0.00500095
0.0222461
-0.00566741
0.0280185
-0.00567314
0.0334646
-0.00537349
0.0387257
-0.00522481
0.0438996
-0.00516033
0.0489676
-0.00506638
0.0539186
-0.00495632
0.0587102
-0.00480204
0.063295
-0.0045994
0.0676299
-0.00435271
0.0716835
-0.00407351
0.0754383
-0.00377574
0.0788916
-0.00347393
0.0820536
-0.0031812
0.0849453
-0.00290848
0.0876001
-0.00266849
0.0900704
-0.00248032
0.0924321
-0.00236765
0.0947889
-0.00235828
0.0972733
-0.00248137
0.100043
-0.00276205
0.103288
-0.00323316
0.107241
-0.00393658
0.112182
-0.00492124
0.11844
-0.00623464
-0.00794539
0.00244806
-0.00643588
0.00593268
-0.00728534
0.0103923
-0.00866897
0.0157469
-0.0104738
0.0214333
-0.0113152
0.0268008
-0.0109369
0.0316926
-0.0101893
0.0362094
-0.00970408
0.0404762
-0.00941352
0.0445296
-0.0091188
0.0483767
-0.00880945
0.0519802
-0.00841647
0.0552939
-0.00792804
0.0582713
-0.00734807
0.0608707
-0.00669287
0.0630645
-0.00599041
0.0648503
-0.0052803
0.0662613
-0.00461118
0.067371
-0.0040348
0.0682918
-0.00360278
0.0691652
-0.00336353
0.0701447
-0.00335277
0.0713786
-0.00359336
0.0730127
-0.00411214
0.0751958
-0.00493731
0.0780949
-0.00612007
0.0818977
-0.00772303
0.0868092
-0.00981277
0.0930807
-0.0124826
-0.0159081
0.00163648
-0.00807818
0.0045831
-0.0102961
0.00893722
-0.0131913
0.0138764
-0.015535
0.0186132
-0.0160075
0.022752
-0.0149721
0.0263349
-0.0136998
0.0294766
-0.0128114
0.0322795
-0.0122048
0.0347952
-0.0116353
0.0370384
-0.0110602
0.0389966
-0.0103867
0.040641
-0.00958797
0.041946
-0.00867121
0.042905
-0.00767178
0.0435442
-0.00665022
0.0439298
-0.00568606
0.0441635
-0.00486357
0.0443686
-0.00425614
0.0446723
-0.00391962
0.0451972
-0.00389781
0.0460626
-0.00422331
0.0473881
-0.00491957
0.0492907
-0.00601103
0.051869
-0.00750729
0.0552039
-0.00944227
0.0593572
-0.0118597
0.0643953
-0.0148306
0.0704351
-0.0184986
-0.0232344
0.0013164
-0.00940039
0.00407601
-0.0131258
0.00826462
-0.0175382
0.0123407
-0.0196988
0.0156821
-0.019295
0.0183021
-0.0175024
0.0204025
-0.0157414
0.0221035
-0.0144853
0.0234764
-0.0135697
0.0245917
-0.0127536
0.0254555
-0.0119334
0.0260716
-0.0110161
0.0264424
-0.00997511
0.0265853
-0.00883251
0.026543
-0.00764927
0.0263834
-0.00651091
0.0261992
-0.00552154
0.0260959
-0.00477844
0.026175
-0.00435103
0.0265278
-0.004285
0.0272375
-0.00461635
0.0283932
-0.00538358
0.030073
-0.00659958
0.0323241
-0.00825774
0.0351631
-0.0103374
0.0385804
-0.0128464
0.0425472
-0.0158094
0.0470345
-0.0192972
0.0520294
-0.0234697
-0.0289028
0.00127232
-0.0106827
0.00419443
-0.0161241
0.00804009
-0.0215101
0.0108321
-0.0225297
0.0125315
-0.0209399
0.0135735
-0.0184791
0.0142406
-0.0163678
0.0146395
-0.0148655
0.0148246
-0.0137502
0.0148497
-0.0127835
0.0147239
-0.0118185
0.0144622
-0.0107691
0.0140879
-0.00961786
0.0136387
-0.00840209
0.013171
-0.00720125
0.012759
-0.00611885
0.0124817
-0.0052635
0.0124154
-0.00472977
0.0126278
-0.00457865
0.0131795
-0.00484862
0.0141284
-0.00557339
0.0155194
-0.0067785
0.017375
-0.00845461
0.0196905
-0.0105681
0.022434
-0.0130712
0.0255412
-0.0159398
0.0289228
-0.0191733
0.0324634
-0.0228169
0.0360287
-0.027011
-0.0324606
0.00152948
-0.0122306
0.00468942
-0.0193626
0.0077228
-0.0246259
0.00893549
-0.0237413
0.00901132
-0.0209721
0.00862506
-0.0180553
0.00807242
-0.0157922
0.0074478
-0.0142293
0.00678781
-0.0130878
0.00610587
-0.0121071
0.00540449
-0.0111288
0.00469404
-0.0100743
0.00399673
-0.00893832
0.00334935
-0.00777375
0.0027998
-0.00667135
0.0024009
-0.00573955
0.00220605
-0.0050874
0.00226505
-0.00480583
0.0026247
-0.00495282
0.0033274
-0.00556254
0.00440533
-0.00665867
0.00586636
-0.00824259
0.00769345
-0.0102803
0.00984711
-0.0127158
0.0122651
-0.0154789
0.0148532
-0.0185135
0.0174775
-0.0217794
0.0199577
-0.0252756
0.0220775
-0.0291067
-0.0339301
0.00226533
-0.0145238
0.00521758
-0.0223855
0.00691624
-0.0263611
0.00647509
-0.0232778
0.00511653
-0.0195876
0.00358165
-0.0165077
0.0021443
-0.0143472
0.000862954
-0.0129427
-0.000280494
-0.0119435
-0.0013082
-0.0110848
-0.0022388
-0.01021
-0.00307909
-0.00925004
-0.00381934
-0.00821625
-0.00444151
-0.00717084
-0.0049168
-0.00621565
-0.00521305
-0.00546258
-0.00529544
-0.00502325
-0.00512729
-0.00499038
-0.00467489
-0.00541897
-0.00391149
-0.00633634
-0.00283065
-0.00774597
-0.00144888
-0.00962648
0.000201608
-0.0119284
0.00206599
-0.0145733
0.00405658
-0.0174584
0.00604754
-0.0204893
0.00788164
-0.0235948
0.00936236
-0.0267346
0.0102322
-0.0299522
-0.0336945
0.00348213
-0.0180409
0.00534908
-0.0243041
0.00536218
-0.0263753
0.00340356
-0.0212912
0.000939261
-0.0171129
-0.00134603
-0.0142276
-0.00324728
-0.0124509
-0.00479976
-0.0113915
-0.00608928
-0.0106552
-0.00717666
-0.0100027
-0.00809973
-0.00929804
-0.00887962
-0.00848595
-0.00951993
-0.00759411
-0.0100165
-0.0066935
-0.0103618
-0.00588981
-0.0105369
-0.00530639
-0.01052
-0.00505785
-0.010286
-0.00524007
-0.00980851
-0.00590938
-0.0090722
-0.0070821
-0.00808255
-0.00874108
-0.00686696
-0.0108432
-0.00547271
-0.0133193
-0.00397112
-0.0160671
-0.00245884
-0.0189587
-0.00106822
-0.0218642
3.43327e-05
-0.0246782
0.000655606
-0.0273338
0.000553882
-0.0298261
-0.0324009
0.0047547
-0.022831
0.00469954
-0.0242781
0.00292768
-0.0245859
-0.000195342
-0.0181409
-0.00326856
-0.0140364
-0.00580396
-0.0117062
-0.00777627
-0.0104927
-0.0093093
-0.0098666
-0.0105116
-0.00945767
-0.0114654
-0.00905461
-0.0122208
-0.00855327
-0.0128082
-0.00791369
-0.0132524
-0.00716772
-0.0135649
-0.00640003
-0.0137515
-0.00572244
-0.0138093
-0.00526708
-0.0137247
-0.00515944
-0.0134779
-0.00550173
-0.0130473
-0.00635201
-0.0124201
-0.00771769
-0.0116031
-0.00956244
-0.0106256
-0.0118207
-0.00954058
-0.0144
-0.00842505
-0.0171739
-0.00738105
-0.01999
-0.00654315
-0.0226857
-0.00607269
-0.0251291
-0.00613329
-0.0272509
-0.00691161
-0.0290233
-0.0306299
0.00527503
-0.0281337
0.00289897
-0.0219178
-0.000354976
-0.0213111
-0.00403339
-0.0144346
-0.00712732
-0.0109352
-0.00951154
-0.00933466
-0.0112733
-0.00874879
-0.0125521
-0.00860178
-0.0134735
-0.00854537
-0.0141296
-0.0084064
-0.0145855
-0.00810815
-0.0148862
-0.00762767
-0.0150701
-0.007001
-0.0151664
-0.0063223
-0.0151909
-0.0057167
-0.0151497
-0.00532622
-0.0150367
-0.00528869
-0.0148355
-0.00571691
-0.0145225
-0.00667594
-0.0140786
-0.00816885
-0.0135025
-0.0101418
-0.0128178
-0.0125043
-0.0120764
-0.0151359
-0.0113559
-0.0178847
-0.0107579
-0.0205743
-0.0104076
-0.0230189
-0.0104464
-0.0250702
-0.0110114
-0.0266633
-0.0122445
-0.0277658
-0.0286325
0.00405832
-0.0322061
-0.000305525
-0.0175707
-0.00417954
-0.0174248
-0.00768951
-0.0108945
-0.010356
-0.00824933
-0.0122937
-0.00739888
-0.0135898
-0.00746684
-0.0143934
-0.00781402
-0.0148575
-0.00809397
-0.0150836
-0.00819097
-0.0151403
-0.00806321
-0.0150871
-0.00769546
-0.0149729
-0.00713195
-0.0148363
-0.00647693
-0.0147027
-0.00586835
-0.0145868
-0.00545936
-0.0144892
-0.00540173
-0.0143943
-0.00582481
-0.0142724
-0.0068076
-0.0140903
-0.0083571
-0.0138271
-0.010407
-0.0134912
-0.0128379
-0.0131256
-0.015495
-0.0128046
-0.0181951
-0.012626
-0.0207385
-0.0127021
-0.022925
-0.0131528
-0.0245991
-0.0140943
-0.0256991
-0.0156263
-0.0262094
-0.0265068
0.000265855
-0.0324699
-0.00479153
-0.0125449
-0.00807876
-0.0141474
-0.0107473
-0.00820056
-0.0127081
-0.00625848
-0.013976
-0.00611815
-0.0145587
-0.00688816
-0.014668
-0.00771677
-0.0145242
-0.00825115
-0.0142214
-0.00850632
-0.0138098
-0.00848801
-0.013353
-0.00816709
-0.0129126
-0.00758883
-0.0125347
-0.00687237
-0.0122516
-0.00616882
-0.0120861
-0.00564119
-0.0120456
-0.00545673
-0.0121164
-0.00576579
-0.0122616
-0.00667102
-0.0124271
-0.00819646
-0.0125633
-0.0102717
-0.0126488
-0.012749
-0.0127069
-0.0154294
-0.0128031
-0.0180874
-0.0130313
-0.020495
-0.0134943
-0.0224438
-0.0142931
-0.0237794
-0.0155264
-0.0244429
-0.0172641
-0.0244474
-0.0242926
-0.00510067
-0.027347
-0.00888909
-0.00880439
-0.0111565
-0.0119251
-0.0127347
-0.00662135
-0.0139295
-0.00503905
-0.0143716
-0.00565655
-0.0139717
-0.00728277
-0.0131732
-0.008521
-0.0123205
-0.00911486
-0.0114321
-0.00940769
-0.0104998
-0.0094345
-0.00960002
-0.00908202
-0.00881328
-0.00839193
-0.00818822
-0.00751439
-0.00776132
-0.00661236
-0.00756412
-0.00585381
-0.00761351
-0.00542073
-0.00789995
-0.00549001
-0.00838327
-0.00619504
-0.0089908
-0.00759253
-0.0096338
-0.00962829
-0.0102463
-0.0121319
-0.0108127
-0.0148544
-0.0113779
-0.0175098
-0.0120309
-0.0198263
-0.0128724
-0.0215834
-0.0139931
-0.0226376
-0.0154749
-0.0229381
-0.0173743
-0.0225238
-0.0219969
-0.00817723
-0.0191239
-0.0105218
-0.00649734
-0.0122864
-0.0102351
-0.0130047
-0.00594031
-0.0137165
-0.00432897
-0.0132518
-0.00611213
-0.0115219
-0.00900774
-0.00961355
-0.0104321
-0.00806477
-0.0106723
-0.00661181
-0.0108731
-0.00512377
-0.0109369
-0.00374575
-0.0104754
-0.00259668
-0.00955717
-0.00171467
-0.00841279
-0.00113591
-0.00720695
-0.000907797
-0.00609634
-0.00106335
-0.00527742
-0.00160413
-0.00495864
-0.00248708
-0.00531816
-0.00362585
-0.0064561
-0.00489838
-0.00835415
-0.0061799
-0.0108448
-0.00739347
-0.0136313
-0.00853901
-0.0163511
-0.00968832
-0.0186605
-0.0109448
-0.0203077
-0.0124001
-0.021161
-0.0141279
-0.0211873
-0.0161845
-0.0204431
-0.0196064
-0.00181129
-0.0172538
-0.00572581
-0.00256647
-0.00839736
-0.007609
-0.00975656
-0.00462404
-0.0107192
-0.00338738
-0.00921206
-0.00762588
-0.00592968
-0.012293
-0.0031818
-0.0131849
-0.00142508
-0.0124377
0.000389015
-0.0126991
0.00244189
-0.0130039
0.00429332
-0.0123421
0.00577462
-0.0110543
0.00690697
-0.00956093
0.00765766
-0.00797259
0.00794452
-0.00639655
0.00770567
-0.00504959
0.00692663
-0.00418772
0.0056383
-0.00403458
0.00391751
-0.00473637
0.00190441
-0.00633826
-0.000217051
-0.0087167
-0.00228684
-0.0115511
-0.00422153
-0.0144026
-0.00603344
-0.0168317
-0.00781482
-0.0185068
-0.00967036
-0.0192838
-0.0116869
-0.0191476
-0.013933
-0.0181731
-0.0170898
0.206835
0.0166157
0.205958
0.018217
0.205038
0.019423
0.204054
0.0208334
0.202988
0.0224698
0.201834
0.0243098
0.200579
0.0263564
0.199212
0.0286167
0.197724
0.0310893
0.196101
0.0338017
0.194334
0.0367805
0.192407
0.0400567
0.190298
0.0436772
0.187982
0.0477014
0.185457
0.0521911
0.1827
0.0572309
0.179675
0.0629605
0.176344
0.0695344
0.172667
0.0771807
0.168615
0.0862028
0.164154
0.0969727
0.159261
0.110042
0.154
0.126191
0.148534
0.146497
0.143147
0.172615
0.13917
0.206675
0.139501
0.24939
0.15307
0.296827
0.187802
0.320153
0.297193
0.367751
0.211876
0.0174711
0.211024
0.0191101
0.210132
0.0203477
0.209175
0.0218134
0.208147
0.0235134
0.20704
0.0254215
0.205843
0.0275502
0.204546
0.0299026
0.203133
0.0324846
0.201589
0.0353213
0.199906
0.0384357
0.198066
0.0418659
0.196069
0.0456432
0.193905
0.0498347
0.191557
0.0545104
0.188991
0.0597712
0.186203
0.0657251
0.183186
0.0725317
0.179904
0.0804455
0.176372
0.089721
0.17262
0.100714
0.168732
0.11392
0.164919
0.129997
0.161595
0.149815
0.159663
0.174541
0.1614
0.20493
0.171387
0.239389
0.199582
0.26861
0.250054
0.269649
0.253071
0.294145
0.217047
0.0183007
0.216228
0.0199718
0.215373
0.0212368
0.214463
0.022749
0.21349
0.024503
0.212447
0.026472
0.211321
0.0286743
0.210096
0.0311175
0.208758
0.0338055
0.207301
0.0367553
0.205726
0.0399835
0.204025
0.0435362
0.202184
0.0474528
0.200199
0.0517896
0.198052
0.056627
0.195743
0.0620533
0.19328
0.068164
0.19065
0.0751404
0.18787
0.083208
0.184997
0.0925801
0.182129
0.103571
0.179461
0.116579
0.177355
0.132093
0.176467
0.150694
0.178119
0.172881
0.18493
0.198108
0.200995
0.223307
0.230161
0.23942
0.265009
0.234768
0.214111
0.303938
0.222352
0.0190953
0.221574
0.0207933
0.220766
0.0220804
0.219913
0.0236294
0.219005
0.025431
0.218027
0.0274607
0.216968
0.0297334
0.21582
0.0322568
0.21458
0.0350295
0.21325
0.038063
0.211815
0.0413907
0.210268
0.0450538
0.2086
0.0490895
0.206822
0.0535366
0.204934
0.0584854
0.202937
0.0640222
0.200845
0.0702307
0.198676
0.0772882
0.19649
0.0853755
0.194385
0.0946705
0.192527
0.105417
0.1912
0.117896
0.190884
0.132399
0.192382
0.149185
0.197173
0.168079
0.207525
0.187743
0.225953
0.204861
0.252662
0.212686
0.282276
0.205123
0.183199
0.313157
0.227792
0.0198472
0.227065
0.0215644
0.226309
0.022873
0.225513
0.0244558
0.224673
0.0262935
0.223771
0.0283768
0.222797
0.0307101
0.221758
0.0332898
0.220647
0.0361257
0.219454
0.0392353
0.218162
0.0426567
0.216785
0.0464017
0.215337
0.0505073
0.21381
0.0550324
0.212206
0.0600597
0.210559
0.0656409
0.208899
0.0718645
0.20726
0.0789054
0.205739
0.0868782
0.204477
0.0959178
0.203696
0.106186
0.203745
0.117838
0.20516
0.130974
0.208804
0.145531
0.215957
0.160913
0.228194
0.17549
0.246745
0.186289
0.270241
0.189165
0.293853
0.181481
0.162376
0.314647
0.233368
0.0205508
0.232698
0.02228
0.232001
0.0236072
0.231273
0.0252145
0.230513
0.027078
0.229709
0.0291985
0.228851
0.0315768
0.227932
0.0342071
0.226945
0.0371012
0.225887
0.0402742
0.224774
0.043745
0.223612
0.0475355
0.2224
0.0516899
0.221142
0.0562595
0.219869
0.0613033
0.218623
0.066859
0.217431
0.0730317
0.216366
0.0799473
0.215557
0.0876694
0.215173
0.0962866
0.215474
0.105873
0.216834
0.116468
0.219777
0.128023
0.225061
0.140238
0.23366
0.152302
0.246541
0.162592
0.263905
0.168903
0.283781
0.169261
0.302535
0.162698
0.146644
0.31824
0.239086
0.0211983
0.238477
0.0229342
0.237855
0.0242685
0.237215
0.0258863
0.236549
0.02777
0.235847
0.02992
0.235101
0.0323351
0.234305
0.0350074
0.233463
0.037938
0.232583
0.0411393
0.231674
0.0446319
0.230729
0.048454
0.229771
0.0526197
0.228827
0.0571742
0.22792
0.0621805
0.227093
0.0676591
0.2264
0.0736994
0.225945
0.08038
0.225866
0.0877308
0.226352
0.0957849
0.227672
0.104541
0.230157
0.113971
0.234287
0.123884
0.240725
0.133792
0.250123
0.142894
0.262844
0.149857
0.278405
0.153322
0.295093
0.152548
0.310639
0.147126
0.13374
0.323517
0.244951
0.0217784
0.244416
0.0235153
0.24388
0.0248441
0.243333
0.0264673
0.24276
0.0283703
0.242163
0.0305384
0.241543
0.0329695
0.240901
0.0356578
0.240235
0.038604
0.239547
0.0418194
0.238841
0.0453219
0.23814
0.0491326
0.237472
0.0532603
0.236854
0.0577647
0.236324
0.0626817
0.235942
0.068015
0.235774
0.0738425
0.235934
0.0801983
0.23657
0.0870769
0.237874
0.0944659
0.240069
0.102332
0.243473
0.110554
0.248551
0.118796
0.255734
0.126599
0.265354
0.133265
0.27737
0.13783
0.291055
0.139622
0.30522
0.138364
0.318443
0.133879
0.122783
0.329378
0.250967
0.0222802
0.250512
0.0240174
0.250065
0.0253315
0.249616
0.0269514
0.249153
0.0288621
0.248687
0.0310277
0.248214
0.033459
0.247728
0.036154
0.247237
0.0390992
0.246755
0.0422989
0.246288
0.0457794
0.245855
0.0495498
0.245483
0.053611
0.245203
0.0580205
0.245069
0.0627889
0.245142
0.0679163
0.2455
0.0734613
0.246258
0.0794192
0.247565
0.0857517
0.249576
0.0924402
0.252509
0.0993858
0.256702
0.106347
0.262441
0.113044
0.26995
0.11908
0.279367
0.123838
0.290414
0.126772
0.302436
0.127587
0.314634
0.126152
0.326082
0.122414
0.11318
0.335668
0.257131
0.0226996
0.256768
0.0244271
0.25642
0.0257208
0.256082
0.027325
0.255753
0.0292222
0.255426
0.0313796
0.255094
0.0338097
0.254772
0.0364889
0.254478
0.0393994
0.254219
0.0425594
0.253996
0.0459969
0.253844
0.0496928
0.253791
0.0536499
0.253865
0.0579282
0.254131
0.0625011
0.254658
0.0673663
0.255522
0.0725749
0.25684
0.0780803
0.258733
0.0838415
0.261352
0.0898059
0.264945
0.0957782
0.269707
0.10157
0.275789
0.106947
0.283359
0.111497
0.292349
0.114836
0.302395
0.116714
0.313015
0.116955
0.323651
0.115502
0.333712
0.112339
0.104567
0.342313
0.263452
0.0230265
0.263199
0.024727
0.262961
0.026
0.262739
0.0275832
0.26254
0.029453
0.262355
0.0315918
0.26219
0.0339954
0.26206
0.0366343
0.261968
0.0395011
0.261925
0.042606
0.261961
0.0459596
0.262107
0.0495415
0.262376
0.0533719
0.262814
0.0574791
0.263486
0.0618142
0.264442
0.0663919
0.265772
0.0712257
0.267586
0.0762464
0.269997
0.0814138
0.273177
0.08661
0.277265
0.091675
0.282366
0.0964531
0.288634
0.100665
0.296076
0.104041
0.304501
0.106399
0.313625
0.107577
0.323107
0.10746
0.332525
0.106071
0.341467
0.103384
0.0967633
0.349259
0.269941
0.023243
0.269794
0.0249199
0.269671
0.0261649
0.269582
0.0277095
0.269525
0.0295421
0.269502
0.0316432
0.269519
0.0340019
0.269575
0.0365967
0.269689
0.0393991
0.269887
0.0424146
0.27019
0.0456587
0.270622
0.0491075
0.271211
0.0527778
0.272012
0.0566704
0.273069
0.060748
0.274437
0.0650127
0.276207
0.0694417
0.278465
0.0739732
0.281346
0.0785179
0.284959
0.0829817
0.289372
0.0872457
0.294711
0.0910971
0.301012
0.0943484
0.308167
0.0968723
0.316014
0.0985393
0.324343
0.0992347
0.332886
0.0989046
0.341345
0.0975987
0.34942
0.095296
0.0896184
0.356553
0.276584
0.0233483
0.276557
0.0249928
0.276567
0.0261962
0.276627
0.0276869
0.276727
0.029476
0.276864
0.0315351
0.277053
0.0338379
0.277311
0.0363597
0.277655
0.0390699
0.278095
0.0419843
0.27866
0.0450997
0.27938
0.0483883
0.280287
0.0518694
0.281427
0.0555258
0.28285
0.0593193
0.28462
0.0632351
0.286793
0.067261
0.28945
0.0713062
0.292706
0.0752508
0.296626
0.0790496
0.301294
0.0825629
0.306751
0.0856228
0.312934
0.0881499
0.319749
0.0900432
0.327073
0.0912023
0.334733
0.0915615
0.342501
0.091124
0.350172
0.0899147
0.35756
0.087895
0.0829971
0.36417
0.283394
0.0233338
0.283511
0.0249206
0.283667
0.0260806
0.283868
0.027524
0.284119
0.0292584
0.28443
0.0312553
0.284811
0.0334827
0.28528
0.035913
0.285848
0.0385192
0.286534
0.0413115
0.287367
0.044276
0.288373
0.0473867
0.289587
0.0506565
0.291053
0.0540582
0.292824
0.057545
0.294944
0.0611107
0.297461
0.0647392
0.300461
0.0683
0.304022
0.0716826
0.308202
0.0748611
0.313029
0.0777235
0.318469
0.0801677
0.324467
0.0821367
0.330951
0.0835453
0.33781
0.0843307
0.344898
0.0844603
0.352048
0.0839613
0.359098
0.0828526
0.365908
0.0810716
0.0768154
0.372079
0.290382
0.0231826
0.290644
0.0247018
0.290948
0.0258164
0.291303
0.0272062
0.291721
0.0288753
0.29221
0.0307972
0.292788
0.0329322
0.293471
0.0352543
0.294269
0.037741
0.295205
0.0403912
0.296301
0.0431914
0.297584
0.0461112
0.299093
0.0491522
0.300866
0.0522864
0.302948
0.0554633
0.305365
0.0586913
0.308188
0.0619128
0.311496
0.0649886
0.315314
0.0678598
0.319666
0.0705022
0.324541
0.0728389
0.3299
0.0747965
0.335702
0.0763214
0.341878
0.0773568
0.348329
0.0778665
0.354931
0.0778466
0.361567
0.0773128
0.368132
0.0762761
0.374484
0.0747069
0.0710065
0.380283
0.297546
0.0228847
0.297955
0.0243339
0.298419
0.0253907
0.298945
0.0267166
0.299533
0.0283215
0.300205
0.0301572
0.300986
0.03218
0.301885
0.0343802
0.302913
0.0367343
0.304092
0.0392299
0.305449
0.041848
0.307003
0.0445674
0.308788
0.0473749
0.310848
0.0502307
0.3132
0.0531131
0.315891
0.0560013
0.319
0.0588024
0.322555
0.061431
0.326548
0.0638647
0.330981
0.0660646
0.335844
0.0679682
0.341104
0.0695267
0.346717
0.0706971
0.352618
0.0714449
0.358715
0.0717576
0.364914
0.0716369
0.371133
0.0710824
0.377289
0.0701077
0.383267
0.0687177
0.0654971
0.388767
0.304892
0.0224269
0.305455
0.0238102
0.306082
0.0248004
0.306781
0.0260533
0.307551
0.0275844
0.308417
0.0293226
0.309405
0.0312211
0.310521
0.0332901
0.311773
0.0355047
0.313194
0.0378278
0.314807
0.0402515
0.316616
0.0427709
0.318658
0.0453425
0.320972
0.0479228
0.323578
0.0505123
0.326528
0.0530531
0.32987
0.0554622
0.333591
0.0577099
0.337687
0.0597675
0.342159
0.0615898
0.346989
0.0631323
0.352146
0.0643618
0.357589
0.0652454
0.363245
0.0657797
0.369036
0.0659568
0.374908
0.0657539
0.380798
0.0651825
0.386617
0.0642783
0.392276
0.0630477
0.0602345
0.397531
0.312411
0.0218106
0.313143
0.0231137
0.313944
0.0240352
0.314819
0.025212
0.31578
0.0266556
0.316848
0.0282844
0.318042
0.0300566
0.319375
0.0319831
0.320857
0.0340452
0.32251
0.0361954
0.324358
0.0384207
0.326407
0.0407356
0.328684
0.0430775
0.331226
0.0453885
0.334071
0.0476738
0.337246
0.0498831
0.340754
0.0519569
0.344592
0.0538726
0.348761
0.0555987
0.353252
0.0570981
0.358041
0.058339
0.363097
0.0592996
0.368378
0.0599578
0.373827
0.0603229
0.379381
0.060394
0.384992
0.060134
0.390601
0.0595644
0.396137
0.0587328
0.401537
0.0576382
0.0551751
0.40659
0.320115
0.0210279
0.321031
0.0222312
0.322008
0.0230902
0.323062
0.0241896
0.32422
0.0255289
0.325497
0.0270367
0.3269
0.0286817
0.328442
0.0304666
0.330148
0.0323625
0.332024
0.03434
0.334083
0.0363796
0.336353
0.0384804
0.338858
0.0405853
0.341621
0.0426357
0.34467
0.0446317
0.348018
0.0465411
0.351661
0.0483179
0.3556
0.0499366
0.359827
0.051373
0.364326
0.0525983
0.369075
0.0535877
0.374042
0.0543286
0.379181
0.0548143
0.384453
0.0550441
0.38982
0.0550203
0.395218
0.054728
0.400594
0.0541804
0.405901
0.0534183
0.411088
0.052442
0.050283
0.415975
0.328016
0.0200639
0.329112
0.0211648
0.330272
0.0219605
0.331514
0.0229771
0.332877
0.0241949
0.334362
0.0255798
0.33597
0.0271001
0.337725
0.0287358
0.339637
0.0304738
0.341713
0.0322844
0.343976
0.0341337
0.34646
0.0360122
0.349182
0.0378764
0.352149
0.0396795
0.355376
0.0414125
0.358876
0.0430482
0.362643
0.0445552
0.366672
0.0459107