/*--------------------------------*- C++ -*----------------------------------*\
| =========                 |                                                 |
| \\      /  F ield         | OpenFOAM: The Open Source CFD Toolbox           |
|  \\    /   O peration     | Version:  dev                                   |
|   \\  /    A nd           | Web:      www.OpenFOAM.org                      |
|    \\/     M anipulation  |                                                 |
\*---------------------------------------------------------------------------*/
FoamFile
{
    version     2.0;
    format      ascii;
    class       pointVectorField;
    location    "1.31";
    object      pointDisplacement;
}
// * * * * * * * * * * * * * * * * * * * * * * * * * * * * * * * * * * * * * //

dimensions      [0 1 0 0 0 0 0];

internalField   nonuniform List<vector> 
5828
(
(0 0 0)
(0.0253128 0 0)
(0.0477167 0 0)
(0.0665688 0 0)
(0.0822347 0 0)
(0.0950633 0 0)
(0.105374 0 0)
(0.11344 0 0)
(0.119491 0 0)
(0.123726 0 0)
(0.126317 0 0)
(0.127416 0 0)
(0.127158 0 0)
(0.125661 0 0)
(0.123029 0 0)
(0.119355 0 0)
(0.114725 0 0)
(0.109217 0 0)
(0.102907 0 0)
(0.0958659 0 0)
(0.0881707 0 0)
(0.0799042 0 0)
(0.0711542 0 0)
(0.0620176 0 0)
(0.0526077 0 0)
(0.0430655 0 0)
(0.0335837 0 0)
(0.0244701 0 0)
(0.0162918 0 0)
(0.0104123 0 0)
(1.31291e-09 0 0)
(0 0 0)
(0.0253305 0 -0.000288232)
(0.04775 0 -0.000546304)
(0.0666191 0 -0.000770888)
(0.0823027 0 -0.000968475)
(0.0951482 0 -0.00114368)
(0.105477 0 -0.00129984)
(0.113565 0 -0.00143942)
(0.119641 0 -0.0015638)
(0.123903 0 -0.00167447)
(0.126524 0 -0.00177019)
(0.127657 0 -0.0018492)
(0.127438 0 -0.0019112)
(0.125984 0 -0.00195451)
(0.123402 0 -0.00197683)
(0.119785 0 -0.00197519)
(0.11522 0 -0.00194582)
(0.109788 0 -0.00188413)
(0.103565 0 -0.00178454)
(0.0966248 0 -0.00164002)
(0.0890468 0 -0.00144385)
(0.0809198 0 -0.00118767)
(0.0723383 0 -0.000859808)
(0.0634098 0 -0.000446828)
(0.0542627 0 6.75215e-05)
(0.045062 0 0.000702724)
(0.0360314 0 0.0014826)
(0.0275047 0 0.00243646)
(0.0200952 0 0.00358742)
(0.0153972 0 0.00483196)
(0.00751121 0 0.00705908)
(0 0 0)
(0.0253819 0 -0.000577302)
(0.0478498 0 -0.00109433)
(0.0667663 0 -0.00154436)
(0.0824993 0 -0.00193925)
(0.0953994 0 -0.00228935)
(0.105788 0 -0.00260251)
(0.113942 0 -0.00288268)
(0.12009 0 -0.00313244)
(0.124433 0 -0.00335355)
(0.127143 0 -0.00354501)
(0.128377 0 -0.00370484)
(0.128272 0 -0.00383149)
(0.126949 0 -0.00392155)
(0.124514 0 -0.00397064)
(0.121067 0 -0.0039731)
(0.116697 0 -0.00392172)
(0.111489 0 -0.00380781)
(0.105528 0 -0.00362105)
(0.0988913 0 -0.00334871)
(0.0916646 0 -0.00297686)
(0.0839504 0 -0.00248912)
(0.075865 0 -0.00186544)
(0.0675419 0 -0.00108234)
(0.059147 0 -0.00011177)
(0.0509064 0 0.00107754)
(0.0431501 0 0.00251642)
(0.0363471 0 0.00422532)
(0.0311928 0 0.00618977)
(0.0295962 0 0.00809027)
(0.0246935 0 0.0112352)
(0 0 0)
(0.0254671 0 -0.000866192)
(0.048015 0 -0.00164216)
(0.0670077 0 -0.00231791)
(0.0828215 0 -0.00291164)
(0.0958137 0 -0.00343881)
(0.106303 0 -0.00391082)
(0.114565 0 -0.00433366)
(0.120833 0 -0.00471106)
(0.125309 0 -0.00504383)
(0.128167 0 -0.00533292)
(0.12957 0 -0.00557793)
(0.129656 0 -0.00577488)
(0.128548 0 -0.00591876)
(0.126359 0 -0.00600354)
(0.123192 0 -0.00602145)
(0.119143 0 -0.00596241)
(0.114305 0 -0.00581437)
(0.10877 0 -0.00556336)
(0.102633 0 -0.00519359)
(0.0959902 0 -0.00468463)
(0.0889561 0 -0.00401264)
(0.0816816 0 -0.00315509)
(0.074345 0 -0.00208577)
(0.0671621 0 -0.000773361)
(0.0604293 0 0.000812302)
(0.0545948 0 0.00268609)
(0.0503834 0 0.00480683)
(0.0487216 0 0.0070442)
(0.0515073 0 0.00879878)
(0.0500968 0 0.0120125)
(0 0 0)
(0.0255856 0 -0.00115399)
(0.0482442 0 -0.00218809)
(0.0673449 0 -0.00308929)
(0.083273 0 -0.00388293)
(0.0963909 0 -0.00458888)
(0.107018 0 -0.00522136)
(0.115429 0 -0.00578909)
(0.121863 0 -0.00629721)
(0.126522 0 -0.0067472)
(0.129589 0 -0.00714085)
(0.131227 0 -0.00747794)
(0.131577 0 -0.00775353)
(0.130768 0 -0.00796139)
(0.128918 0 -0.00809464)
(0.126138 0 -0.00814425)
(0.122532 0 -0.00809797)
(0.118201 0 -0.00794138)
(0.113249 0 -0.00765764)
(0.107789 0 -0.00722999)
(0.101947 0 -0.00663712)
(0.095855 0 -0.00585217)
(0.0896891 0 -0.00485109)
(0.0836831 0 -0.0036122)
(0.0781255 0 -0.002115)
(0.0734133 0 -0.000352789)
(0.0700878 0 0.00165199)
(0.0690273 0 0.00377901)
(0.0715686 0 0.0056979)
(0.0795946 0 0.00651907)
(0.0819073 0 0.00909442)
(0 0 0)
(0.0257366 0 -0.00144048)
(0.0485355 0 -0.00273173)
(0.0677742 0 -0.00385797)
(0.0838482 0 -0.00485149)
(0.0971243 0 -0.00573678)
(0.107924 0 -0.00653122)
(0.116524 0 -0.00724619)
(0.123167 0 -0.0078887)
(0.128062 0 -0.00846209)
(0.131393 0 -0.00896801)
(0.133327 0 -0.00940556)
(0.134011 0 -0.00977021)
(0.133579 0 -0.0100547)
(0.132156 0 -0.0102526)
(0.129864 0 -0.010355)
(0.126816 0 -0.0103481)
(0.123127 0 -0.0102167)
(0.118912 0 -0.00994356)
(0.114303 0 -0.00951073)
(0.109454 0 -0.00889972)
(0.104539 0 -0.00808915)
(0.0997556 0 -0.00705629)
(0.0953887 0 -0.00579058)
(0.0918094 0 -0.00429444)
(0.0895104 0 -0.00259726)
(0.0892035 0 -0.000797681)
(0.091817 0 0.000894576)
(0.0989173 0 0.00195224)
(0.112613 0 0.00118462)
(0.118688 0 0.00266919)
(0 0 0)
(0.0259196 0 -0.00172558)
(0.0488861 0 -0.00327261)
(0.0682909 0 -0.00462335)
(0.0845412 0 -0.00581691)
(0.0980072 0 -0.00688244)
(0.109013 0 -0.00784074)
(0.117841 0 -0.00870593)
(0.124736 0 -0.00948709)
(0.129912 0 -0.0101892)
(0.133559 0 -0.0108145)
(0.135848 0 -0.0113623)
(0.136932 0 -0.0118288)
(0.136953 0 -0.0122075)
(0.136044 0 -0.0124915)
(0.134334 0 -0.0126717)
(0.131951 0 -0.0127354)
(0.129024 0 -0.0126683)
(0.125689 0 -0.0124561)
(0.12209 0 -0.0120802)
(0.118409 0 -0.0115267)
(0.114869 0 -0.0107862)
(0.111705 0 -0.00984618)
(0.109254 0 -0.00871359)
(0.107969 0 -0.00742472)
(0.108415 0 -0.00605215)
(0.111436 0 -0.00477591)
(0.118161 0 -0.00394405)
(0.130166 0 -0.00423403)
(0.149755 0 -0.0071197)
(0.159526 0 -0.00696443)
(0 0 0)
(0.026124 0 -0.00200893)
(0.0492885 0 -0.00381101)
(0.0688913 0 -0.00538644)
(0.0853476 0 -0.00678079)
(0.0990342 0 -0.00802813)
(0.11028 0 -0.00915289)
(0.119372 0 -0.010172)
(0.126559 0 -0.011097)
(0.132061 0 -0.0119345)
(0.136073 0 -0.0126876)
(0.138771 0 -0.0133566)
(0.140317 0 -0.0139394)
(0.140864 0 -0.014432)
(0.140548 0 -0.0148256)
(0.139507 0 -0.0151108)
(0.137885 0 -0.0152788)
(0.135824 0 -0.0153172)
(0.133486 0 -0.0152171)
(0.131042 0 -0.0149663)
(0.128692 0 -0.014556)
(0.126696 0 -0.0139888)
(0.125351 0 -0.0132731)
(0.125041 0 -0.0124396)
(0.126291 0 -0.0115631)
(0.129779 0 -0.0107807)
(0.136397 0 -0.0103418)
(0.147489 0 -0.0107404)
(0.164675 0 -0.0128087)
(0.190429 0 -0.0183045)
(0.203987 0 -0.0197039)
(0 0 0)
(0.0263482 0 -0.00229039)
(0.0497404 0 -0.0043473)
(0.0695716 0 -0.00614795)
(0.0862623 0 -0.0077442)
(0.100199 0 -0.00917536)
(0.111716 0 -0.0104696)
(0.121106 0 -0.0116469)
(0.128623 0 -0.0127213)
(0.134493 0 -0.0137014)
(0.138915 0 -0.0145917)
(0.142072 0 -0.0153935)
(0.144136 0 -0.0161068)
(0.145265 0 -0.0167298)
(0.145606 0 -0.0172538)
(0.145309 0 -0.0176725)
(0.144535 0 -0.0179819)
(0.143442 0 -0.0181733)
(0.142209 0 -0.0182426)
(0.141042 0 -0.0181885)
(0.14016 0 -0.0180097)
(0.139855 0 -0.0177231)
(0.140489 0 -0.0173648)
(0.142496 0 -0.0169946)
(0.146468 0 -0.0167315)
(0.153177 0 -0.0167782)
(0.163649 0 -0.0174828)
(0.179289 0 -0.0194506)
(0.201893 0 -0.0236995)
(0.234158 0 -0.0323012)
(0.251646 0 -0.035569)
(0 0 0)
(0.0265992 0 -0.00256945)
(0.0502418 0 -0.00487955)
(0.0703242 0 -0.00690468)
(0.0872744 0 -0.00870317)
(0.101487 0 -0.0103195)
(0.113304 0 -0.0117859)
(0.123022 0 -0.0131251)
(0.130904 0 -0.0143541)
(0.137179 0 -0.0154842)
(0.142052 0 -0.016521)
(0.145711 0 -0.0174671)
(0.148339 0 -0.0183258)
(0.150104 0 -0.0190974)
(0.151162 0 -0.0197764)
(0.151679 0 -0.0203609)
(0.151827 0 -0.0208501)
(0.151788 0 -0.021243)
(0.151752 0 -0.0215396)
(0.151949 0 -0.0217491)
(0.152641 0 -0.0218881)
(0.154152 0 -0.0219907)
(0.156891 0 -0.0221206)
(0.16135 0 -0.0223731)
(0.168191 0 -0.0229168)
(0.178272 0 -0.0240237)
(0.192753 0 -0.0261442)
(0.213118 0 -0.0300041)
(0.241513 0 -0.0368704)
(0.280536 0 -0.0490302)
(0.30189 0 -0.0544195)
(0 0 0)
(0.026873 0 -0.00284499)
(0.0507864 0 -0.0054055)
(0.0711407 0 -0.0076535)
(0.0883728 0 -0.00965381)
(0.102886 0 -0.0114562)
(0.115027 0 -0.0130967)
(0.1251 0 -0.014601)
(0.133376 0 -0.0159898)
(0.140089 0 -0.0172773)
(0.145448 0 -0.0184704)
(0.149652 0 -0.019575)
(0.152891 0 -0.0205964)
(0.15534 0 -0.0215375)
(0.157172 0 -0.0223986)
(0.158561 0 -0.0231804)
(0.159686 0 -0.0238841)
(0.160755 0 -0.0245203)
(0.161983 0 -0.0250994)
(0.163618 0 -0.02564)
(0.16596 0 -0.0261786)
(0.169372 0 -0.0267721)
(0.174303 0 -0.0275118)
(0.181312 0 -0.0285363)
(0.191118 0 -0.030064)
(0.204697 0 -0.0324496)
(0.223301 0 -0.0362393)
(0.2487 0 -0.0423502)
(0.283433 0 -0.0523353)
(0.329234 0 -0.0683971)
(0.354113 0 -0.0759577)
(0 0 0)
(0.0271664 0 -0.00311641)
(0.0513691 0 -0.00592415)
(0.0720141 0 -0.00839311)
(0.0895481 0 -0.0105946)
(0.104383 0 -0.0125837)
(0.116871 0 -0.0144005)
(0.127325 0 -0.0160748)
(0.136025 0 -0.0176302)
(0.143206 0 -0.0190827)
(0.149084 0 -0.0204422)
(0.15387 0 -0.0217194)
(0.157758 0 -0.0229203)
(0.160927 0 -0.024049)
(0.163566 0 -0.0251122)
(0.165862 0 -0.0261164)
(0.168011 0 -0.0270712)
(0.170236 0 -0.0279936)
(0.172779 0 -0.0289078)
(0.175902 0 -0.0298434)
(0.179936 0 -0.0308544)
(0.185289 0 -0.0320269)
(0.19245 0 -0.0334824)
(0.202038 0 -0.035404)
(0.214851 0 -0.0380709)
(0.231967 0 -0.0419187)
(0.254858 0 -0.0476381)
(0.28569 0 -0.0563828)
(0.327129 0 -0.0699179)
(0.379347 0 -0.090017)
(0.407839 0 -0.0998698)
(0 0 0)
(0.0274776 0 -0.00338379)
(0.0519867 0 -0.00643569)
(0.0729397 0 -0.0091238)
(0.090794 0 -0.0115259)
(0.10597 0 -0.0137026)
(0.118828 0 -0.0156983)
(0.129689 0 -0.0175477)
(0.138836 0 -0.0192762)
(0.146509 0 -0.0209004)
(0.152931 0 -0.0224347)
(0.158322 0 -0.0238934)
(0.162878 0 -0.0252847)
(0.166794 0 -0.0266174)
(0.170269 0 -0.0279043)
(0.173502 0 -0.029158)
(0.176713 0 -0.0303985)
(0.180124 0 -0.0316465)
(0.183996 0 -0.0329374)
(0.188624 0 -0.0343204)
(0.194365 0 -0.0358687)
(0.201659 0 -0.0376932)
(0.211036 0 -0.0399503)
(0.223173 0 -0.042869)
(0.23895 0 -0.0467922)
(0.259594 0 -0.0522591)
(0.286855 0 -0.0601265)
(0.323145 0 -0.071739)
(0.371043 0 -0.0889863)
(0.428851 0 -0.112964)
(0.46257 0 -0.125812)
(0 0 0)
(0.0278049 0 -0.0036471)
(0.0526355 0 -0.00694006)
(0.0739119 0 -0.00984544)
(0.0921026 0 -0.0124475)
(0.107638 0 -0.0148124)
(0.120885 0 -0.0169888)
(0.13217 0 -0.019015)
(0.141779 0 -0.0209188)
(0.149959 0 -0.02272)
(0.156942 0 -0.0244359)
(0.162952 0 -0.0260841)
(0.1682 0 -0.0276789)
(0.172888 0 -0.0292341)
(0.177224 0 -0.0307672)
(0.181414 0 -0.0322943)
(0.185687 0 -0.0338432)
(0.190289 0 -0.0354476)
(0.195489 0 -0.0371524)
(0.201612 0 -0.0390254)
(0.209037 0 -0.0411605)
(0.218224 0 -0.0436902)
(0.22975 0 -0.0468088)
(0.244341 0 -0.050792)
(0.262967 0 -0.056052)
(0.287001 0 -0.0632311)
(0.31832 0 -0.0733039)
(0.359531 0 -0.087795)
(0.413047 0 -0.108642)
(0.475305 0 -0.136115)
(0.517783 0 -0.153298)
(0 0 0)
(0.028144 0 -0.00390481)
(0.0533078 0 -0.00743443)
(0.0749192 0 -0.010554)
(0.093459 0 -0.0133542)
(0.109367 0 -0.0159067)
(0.123016 0 -0.0182644)
(0.134735 0 -0.0204674)
(0.144818 0 -0.0225484)
(0.153521 0 -0.0245318)
(0.161081 0 -0.0264374)
(0.16773 0 -0.0282868)
(0.173688 0 -0.0300992)
(0.17916 0 -0.0318913)
(0.184357 0 -0.033683)
(0.1895 0 -0.0355001)
(0.194832 0 -0.0373791)
(0.200615 0 -0.0393656)
(0.207125 0 -0.0415134)
(0.214698 0 -0.0439048)
(0.223746 0 -0.0466581)
(0.234744 0 -0.0499272)
(0.248291 0 -0.0539368)
(0.265165 0 -0.0590112)
(0.286403 0 -0.0656252)
(0.313381 0 -0.0744735)
(0.348067 0 -0.0866462)
(0.393143 0 -0.103807)
(0.450546 0 -0.127783)
(0.515702 0 -0.15822)
(0.573027 0 -0.181704)
(0 0 0)
(0.0284935 0 -0.00415753)
(0.0540021 0 -0.00792028)
(0.0759605 0 -0.0112519)
(0.0948615 0 -0.0142491)
(0.111156 0 -0.0169895)
(0.125221 0 -0.0195299)
(0.13739 0 -0.0219139)
(0.147966 0 -0.0241784)
(0.15721 0 -0.0263506)
(0.165365 0 -0.0284553)
(0.172668 0 -0.030516)
(0.179339 0 -0.0325538)
(0.185594 0 -0.0345917)
(0.191655 0 -0.0366565)
(0.197757 0 -0.0387838)
(0.204142 0 -0.041013)
(0.211076 0 -0.0433979)
(0.218854 0 -0.0460082)
(0.227828 0 -0.0489407)
(0.23842 0 -0.0523318)
(0.251116 0 -0.0563576)
(0.266521 0 -0.0612644)
(0.285432 0 -0.0674137)
(0.308859 0 -0.0753099)
(0.338147 0 -0.0856899)
(0.375214 0 -0.0997071)
(0.422306 0 -0.118986)
(0.480317 0 -0.145176)
(0.543945 0 -0.178113)
(0.628161 0 -0.210529)
(0 0 0)
(0.0253128 0 0)
(0.0477167 0 0)
(0.0665688 0 0)
(0.0822347 0 0)
(0.0950633 0 0)
(0.105374 0 0)
(0.11344 0 0)
(0.119491 0 0)
(0.123726 0 0)
(0.126317 0 0)
(0.127416 0 0)
(0.127158 0 0)
(0.125661 0 0)
(0.123029 0 0)
(0.119355 0 0)
(0.114725 0 0)
(0.109217 0 0)
(0.102907 0 0)
(0.0958659 0 0)
(0.0881707 0 0)
(0.0799042 0 0)
(0.0711542 0 0)
(0.0620176 0 0)
(0.0526077 0 0)
(0.0430655 0 0)
(0.0335837 0 0)
(0.0244701 0 0)
(0.0162918 0 0)
(0.0104123 0 0)
(0 0 0)
(0 0 0)
(0.0253305 0 -0.000288232)
(0.04775 0 -0.000546304)
(0.0666191 0 -0.000770888)
(0.0823027 0 -0.000968475)
(0.0951482 0 -0.00114368)
(0.105477 0 -0.00129984)
(0.113565 0 -0.00143942)
(0.119641 0 -0.0015638)
(0.123903 0 -0.00167447)
(0.126524 0 -0.00177019)
(0.127657 0 -0.0018492)
(0.127438 0 -0.0019112)
(0.125984 0 -0.00195451)
(0.123402 0 -0.00197683)
(0.119785 0 -0.00197519)
(0.11522 0 -0.00194582)
(0.109788 0 -0.00188413)
(0.103565 0 -0.00178454)
(0.0966248 0 -0.00164002)
(0.0890468 0 -0.00144385)
(0.0809198 0 -0.00118767)
(0.0723383 0 -0.000859808)
(0.0634098 0 -0.000446828)
(0.0542627 0 6.75215e-05)
(0.045062 0 0.000702724)
(0.0360314 0 0.0014826)
(0.0275047 0 0.00243646)
(0.0200952 0 0.00358742)
(0.0153972 0 0.00483196)
(0.00751121 0 0.00705908)
(0 0 0)
(0.0253819 0 -0.000577302)
(0.0478498 0 -0.00109433)
(0.0667663 0 -0.00154436)
(0.0824993 0 -0.00193925)
(0.0953994 0 -0.00228935)
(0.105788 0 -0.00260251)
(0.113942 0 -0.00288268)
(0.12009 0 -0.00313244)
(0.124433 0 -0.00335355)
(0.127143 0 -0.00354501)
(0.128377 0 -0.00370484)
(0.128272 0 -0.00383149)
(0.126949 0 -0.00392155)
(0.124514 0 -0.00397064)
(0.121067 0 -0.0039731)
(0.116697 0 -0.00392172)
(0.111489 0 -0.00380781)
(0.105528 0 -0.00362105)
(0.0988913 0 -0.00334871)
(0.0916646 0 -0.00297686)
(0.0839504 0 -0.00248912)
(0.075865 0 -0.00186544)
(0.0675419 0 -0.00108234)
(0.059147 0 -0.00011177)
(0.0509064 0 0.00107754)
(0.0431501 0 0.00251642)
(0.0363471 0 0.00422532)
(0.0311928 0 0.00618977)
(0.0295962 0 0.00809027)
(0.0246935 0 0.0112352)
(0 0 0)
(0.0254671 0 -0.000866192)
(0.048015 0 -0.00164216)
(0.0670077 0 -0.00231791)
(0.0828215 0 -0.00291164)
(0.0958137 0 -0.00343881)
(0.106303 0 -0.00391082)
(0.114565 0 -0.00433366)
(0.120833 0 -0.00471106)
(0.125309 0 -0.00504383)
(0.128167 0 -0.00533292)
(0.12957 0 -0.00557793)
(0.129656 0 -0.00577488)
(0.128548 0 -0.00591876)
(0.126359 0 -0.00600354)
(0.123192 0 -0.00602145)
(0.119143 0 -0.00596241)
(0.114305 0 -0.00581437)
(0.10877 0 -0.00556336)
(0.102633 0 -0.00519359)
(0.0959902 0 -0.00468463)
(0.0889561 0 -0.00401264)
(0.0816816 0 -0.00315509)
(0.074345 0 -0.00208577)
(0.0671621 0 -0.000773361)
(0.0604293 0 0.000812302)
(0.0545948 0 0.00268609)
(0.0503834 0 0.00480683)
(0.0487216 0 0.0070442)
(0.0515073 0 0.00879878)
(0.0500968 0 0.0120125)
(0 0 0)
(0.0255856 0 -0.00115399)
(0.0482442 0 -0.00218809)
(0.0673449 0 -0.00308929)
(0.083273 0 -0.00388293)
(0.0963909 0 -0.00458888)
(0.107018 0 -0.00522136)
(0.115429 0 -0.00578909)
(0.121863 0 -0.00629721)
(0.126522 0 -0.0067472)
(0.129589 0 -0.00714085)
(0.131227 0 -0.00747794)
(0.131577 0 -0.00775353)
(0.130768 0 -0.00796139)
(0.128918 0 -0.00809464)
(0.126138 0 -0.00814425)
(0.122532 0 -0.00809797)
(0.118201 0 -0.00794138)
(0.113249 0 -0.00765764)
(0.107789 0 -0.00722999)
(0.101947 0 -0.00663712)
(0.095855 0 -0.00585217)
(0.0896891 0 -0.00485109)
(0.0836831 0 -0.0036122)
(0.0781255 0 -0.002115)
(0.0734133 0 -0.000352789)
(0.0700878 0 0.00165199)
(0.0690273 0 0.00377901)
(0.0715686 0 0.0056979)
(0.0795946 0 0.00651907)
(0.0819073 0 0.00909442)
(0 0 0)
(0.0257366 0 -0.00144048)
(0.0485355 0 -0.00273173)
(0.0677742 0 -0.00385797)
(0.0838482 0 -0.00485149)
(0.0971243 0 -0.00573678)
(0.107924 0 -0.00653122)
(0.116524 0 -0.00724619)
(0.123167 0 -0.0078887)
(0.128062 0 -0.00846209)
(0.131393 0 -0.00896801)
(0.133327 0 -0.00940556)
(0.134011 0 -0.00977021)
(0.133579 0 -0.0100547)
(0.132156 0 -0.0102526)
(0.129864 0 -0.010355)
(0.126816 0 -0.0103481)
(0.123127 0 -0.0102167)
(0.118912 0 -0.00994356)
(0.114303 0 -0.00951073)
(0.109454 0 -0.00889972)
(0.104539 0 -0.00808915)
(0.0997556 0 -0.00705629)
(0.0953887 0 -0.00579058)
(0.0918094 0 -0.00429444)
(0.0895104 0 -0.00259726)
(0.0892035 0 -0.000797681)
(0.091817 0 0.000894576)
(0.0989173 0 0.00195224)
(0.112613 0 0.00118462)
(0.118688 0 0.00266919)
(0 0 0)
(0.0259196 0 -0.00172558)
(0.0488861 0 -0.00327261)
(0.0682909 0 -0.00462335)
(0.0845412 0 -0.00581691)
(0.0980072 0 -0.00688244)
(0.109013 0 -0.00784074)
(0.117841 0 -0.00870593)
(0.124736 0 -0.00948709)
(0.129912 0 -0.0101892)
(0.133559 0 -0.0108145)
(0.135848 0 -0.0113623)
(0.136932 0 -0.0118288)
(0.136953 0 -0.0122075)
(0.136044 0 -0.0124915)
(0.134334 0 -0.0126717)
(0.131951 0 -0.0127354)
(0.129024 0 -0.0126683)
(0.125689 0 -0.0124561)
(0.12209 0 -0.0120802)
(0.118409 0 -0.0115267)
(0.114869 0 -0.0107862)
(0.111705 0 -0.00984618)
(0.109254 0 -0.00871359)
(0.107969 0 -0.00742472)
(0.108415 0 -0.00605215)
(0.111436 0 -0.00477591)
(0.118161 0 -0.00394405)
(0.130166 0 -0.00423403)
(0.149755 0 -0.0071197)
(0.159526 0 -0.00696443)
(0 0 0)
(0.026124 0 -0.00200893)
(0.0492885 0 -0.00381101)
(0.0688913 0 -0.00538644)
(0.0853476 0 -0.00678079)
(0.0990342 0 -0.00802813)
(0.11028 0 -0.00915289)
(0.119372 0 -0.010172)
(0.126559 0 -0.011097)
(0.132061 0 -0.0119345)
(0.136073 0 -0.0126876)
(0.138771 0 -0.0133566)
(0.140317 0 -0.0139394)
(0.140864 0 -0.014432)
(0.140548 0 -0.0148256)
(0.139507 0 -0.0151108)
(0.137885 0 -0.0152788)
(0.135824 0 -0.0153172)
(0.133486 0 -0.0152171)
(0.131042 0 -0.0149663)
(0.128692 0 -0.014556)
(0.126696 0 -0.0139888)
(0.125351 0 -0.0132731)
(0.125041 0 -0.0124396)
(0.126291 0 -0.0115631)
(0.129779 0 -0.0107807)
(0.136397 0 -0.0103418)
(0.147489 0 -0.0107404)
(0.164675 0 -0.0128087)
(0.190429 0 -0.0183045)
(0.203987 0 -0.0197039)
(0 0 0)
(0.0263482 0 -0.00229039)
(0.0497404 0 -0.0043473)
(0.0695716 0 -0.00614795)
(0.0862623 0 -0.0077442)
(0.100199 0 -0.00917536)
(0.111716 0 -0.0104696)
(0.121106 0 -0.0116469)
(0.128623 0 -0.0127213)
(0.134493 0 -0.0137014)
(0.138915 0 -0.0145917)
(0.142072 0 -0.0153935)
(0.144136 0 -0.0161068)
(0.145265 0 -0.0167298)
(0.145606 0 -0.0172538)
(0.145309 0 -0.0176725)
(0.144535 0 -0.0179819)
(0.143442 0 -0.0181733)
(0.142209 0 -0.0182426)
(0.141042 0 -0.0181885)
(0.14016 0 -0.0180097)
(0.139855 0 -0.0177231)
(0.140489 0 -0.0173648)
(0.142496 0 -0.0169946)
(0.146468 0 -0.0167315)
(0.153177 0 -0.0167782)
(0.163649 0 -0.0174828)
(0.179289 0 -0.0194506)
(0.201893 0 -0.0236995)
(0.234158 0 -0.0323012)
(0.251646 0 -0.035569)
(0 0 0)
(0.0265992 0 -0.00256945)
(0.0502418 0 -0.00487955)
(0.0703242 0 -0.00690468)
(0.0872744 0 -0.00870317)
(0.101487 0 -0.0103195)
(0.113304 0 -0.0117859)
(0.123022 0 -0.0131251)
(0.130904 0 -0.0143541)
(0.137179 0 -0.0154842)
(0.142052 0 -0.016521)
(0.145711 0 -0.0174671)
(0.148339 0 -0.0183258)
(0.150104 0 -0.0190974)
(0.151162 0 -0.0197764)
(0.151679 0 -0.0203609)
(0.151827 0 -0.0208501)
(0.151788 0 -0.021243)
(0.151752 0 -0.0215396)
(0.151949 0 -0.0217491)
(0.152641 0 -0.0218881)
(0.154152 0 -0.0219907)
(0.156891 0 -0.0221206)
(0.16135 0 -0.0223731)
(0.168191 0 -0.0229168)
(0.178272 0 -0.0240237)
(0.192753 0 -0.0261442)
(0.213118 0 -0.0300041)
(0.241513 0 -0.0368704)
(0.280536 0 -0.0490302)
(0.30189 0 -0.0544195)
(0 0 0)
(0.026873 0 -0.00284499)
(0.0507864 0 -0.0054055)
(0.0711407 0 -0.0076535)
(0.0883728 0 -0.00965381)
(0.102886 0 -0.0114562)
(0.115027 0 -0.0130967)
(0.1251 0 -0.014601)
(0.133376 0 -0.0159898)
(0.140089 0 -0.0172773)
(0.145448 0 -0.0184704)
(0.149652 0 -0.019575)
(0.152891 0 -0.0205964)
(0.15534 0 -0.0215375)
(0.157172 0 -0.0223986)
(0.158561 0 -0.0231804)
(0.159686 0 -0.0238841)
(0.160755 0 -0.0245203)
(0.161983 0 -0.0250994)
(0.163618 0 -0.02564)
(0.16596 0 -0.0261786)
(0.169372 0 -0.0267721)
(0.174303 0 -0.0275118)
(0.181312 0 -0.0285363)
(0.191118 0 -0.030064)
(0.204697 0 -0.0324496)
(0.223301 0 -0.0362393)
(0.2487 0 -0.0423502)
(0.283433 0 -0.0523353)
(0.329234 0 -0.0683971)
(0.354113 0 -0.0759577)
(0 0 0)
(0.0271664 0 -0.00311641)
(0.0513691 0 -0.00592415)
(0.0720141 0 -0.00839311)
(0.0895481 0 -0.0105946)
(0.104383 0 -0.0125837)
(0.116871 0 -0.0144005)
(0.127325 0 -0.0160748)
(0.136025 0 -0.0176302)
(0.143206 0 -0.0190827)
(0.149084 0 -0.0204422)
(0.15387 0 -0.0217194)
(0.157758 0 -0.0229203)
(0.160927 0 -0.024049)
(0.163566 0 -0.0251122)
(0.165862 0 -0.0261164)
(0.168011 0 -0.0270712)
(0.170236 0 -0.0279936)
(0.172779 0 -0.0289078)
(0.175902 0 -0.0298434)
(0.179936 0 -0.0308544)
(0.185289 0 -0.0320269)
(0.19245 0 -0.0334824)
(0.202038 0 -0.035404)
(0.214851 0 -0.0380709)
(0.231967 0 -0.0419187)
(0.254858 0 -0.0476381)
(0.28569 0 -0.0563828)
(0.327129 0 -0.0699179)
(0.379347 0 -0.090017)
(0.407839 0 -0.0998698)
(0 0 0)
(0.0274776 0 -0.00338379)
(0.0519867 0 -0.00643569)
(0.0729397 0 -0.0091238)
(0.090794 0 -0.0115259)
(0.10597 0 -0.0137026)
(0.118828 0 -0.0156983)
(0.129689 0 -0.0175477)
(0.138836 0 -0.0192762)
(0.146509 0 -0.0209004)
(0.152931 0 -0.0224347)
(0.158322 0 -0.0238934)
(0.162878 0 -0.0252847)
(0.166794 0 -0.0266174)
(0.170269 0 -0.0279043)
(0.173502 0 -0.029158)
(0.176713 0 -0.0303985)
(0.180124 0 -0.0316465)
(0.183996 0 -0.0329374)
(0.188624 0 -0.0343204)
(0.194365 0 -0.0358687)
(0.201659 0 -0.0376932)
(0.211036 0 -0.0399503)
(0.223173 0 -0.042869)
(0.23895 0 -0.0467922)
(0.259594 0 -0.0522591)
(0.286855 0 -0.0601265)
(0.323145 0 -0.071739)
(0.371043 0 -0.0889863)
(0.428851 0 -0.112964)
(0.46257 0 -0.125812)
(0 0 0)
(0.0278049 0 -0.0036471)
(0.0526355 0 -0.00694006)
(0.0739119 0 -0.00984544)
(0.0921026 0 -0.0124475)
(0.107638 0 -0.0148124)
(0.120885 0 -0.0169888)
(0.13217 0 -0.019015)
(0.141779 0 -0.0209188)
(0.149959 0 -0.02272)
(0.156942 0 -0.0244359)
(0.162952 0 -0.0260841)
(0.1682 0 -0.0276789)
(0.172888 0 -0.0292341)
(0.177224 0 -0.0307672)
(0.181414 0 -0.0322943)
(0.185687 0 -0.0338432)
(0.190289 0 -0.0354476)
(0.195489 0 -0.0371524)
(0.201612 0 -0.0390254)
(0.209037 0 -0.0411605)
(0.218224 0 -0.0436902)
(0.22975 0 -0.0468088)
(0.244341 0 -0.050792)
(0.262967 0 -0.056052)
(0.287001 0 -0.0632311)
(0.31832 0 -0.0733039)
(0.359531 0 -0.087795)
(0.413047 0 -0.108642)
(0.475305 0 -0.136115)
(0.517783 0 -0.153298)
(0 0 0)
(0.028144 0 -0.00390481)
(0.0533078 0 -0.00743443)
(0.0749192 0 -0.010554)
(0.093459 0 -0.0133542)
(0.109367 0 -0.0159067)
(0.123016 0 -0.0182644)
(0.134735 0 -0.0204674)
(0.144818 0 -0.0225484)
(0.153521 0 -0.0245318)
(0.161081 0 -0.0264374)
(0.16773 0 -0.0282868)
(0.173688 0 -0.0300992)
(0.17916 0 -0.0318913)
(0.184357 0 -0.033683)
(0.1895 0 -0.0355001)
(0.194832 0 -0.0373791)
(0.200615 0 -0.0393656)
(0.207125 0 -0.0415134)
(0.214698 0 -0.0439048)
(0.223746 0 -0.0466581)
(0.234744 0 -0.0499272)
(0.248291 0 -0.0539368)
(0.265165 0 -0.0590112)
(0.286403 0 -0.0656252)
(0.313381 0 -0.0744735)
(0.348067 0 -0.0866462)
(0.393143 0 -0.103807)
(0.450546 0 -0.127783)
(0.515702 0 -0.15822)
(0.573027 0 -0.181704)
(0 0 0)
(0.0284935 0 -0.00415753)
(0.0540021 0 -0.00792028)
(0.0759605 0 -0.0112519)
(0.0948615 0 -0.0142491)
(0.111156 0 -0.0169895)
(0.125221 0 -0.0195299)
(0.13739 0 -0.0219139)
(0.147966 0 -0.0241784)
(0.15721 0 -0.0263506)
(0.165365 0 -0.0284553)
(0.172668 0 -0.030516)
(0.179339 0 -0.0325538)
(0.185594 0 -0.0345917)
(0.191655 0 -0.0366565)
(0.197757 0 -0.0387838)
(0.204142 0 -0.041013)
(0.211076 0 -0.0433979)
(0.218854 0 -0.0460082)
(0.227828 0 -0.0489407)
(0.23842 0 -0.0523318)
(0.251116 0 -0.0563576)
(0.266521 0 -0.0612644)
(0.285432 0 -0.0674137)
(0.308859 0 -0.0753099)
(0.338147 0 -0.0856899)
(0.375214 0 -0.0997071)
(0.422306 0 -0.118986)
(0.480317 0 -0.145176)
(0.543945 0 -0.178113)
(0.628161 0 -0.210529)
(1.00198e-09 0 0)
(0.0231938 0 0)
(0.0568448 0 0)
(0.12379 0 0)
(0.215354 0 0)
(0.299481 0 0)
(0.357785 0 0)
(0.394249 0 0)
(0.416985 0 0)
(0.431162 0 0)
(0.439608 0 0)
(0.44383 0 0)
(0.444624 0 0)
(0.442444 0 0)
(0.437554 0 0)
(0.430105 0 0)
(0.420173 0 0)
(0.407784 0 0)
(0.392929 0 0)
(0.375575 0 0)
(0.355673 0 0)
(0.333159 0 0)
(0.307959 0 0)
(0.27999 0 0)
(0.249165 0 0)
(0.215398 0 0)
(0.178599 0 0)
(0.13868 0 0)
(0.0955641 0 0)
(0.0490969 0 0)
(0 0 0)
(0.00592015 0 -0.00896148)
(0.0279773 0 -0.0105306)
(0.0624371 0 -0.0141426)
(0.129607 0 -0.0190799)
(0.220159 0 -0.0238181)
(0.302668 0 -0.0263721)
(0.359808 0 -0.0269172)
(0.395608 0 -0.0264593)
(0.417957 0 -0.0254087)
(0.431899 0 -0.0240508)
(0.440192 0 -0.0226053)
(0.444304 0 -0.0211436)
(0.445015 0 -0.0197096)
(0.442769 0 -0.0183266)
(0.437826 0 -0.0170063)
(0.430333 0 -0.0157522)
(0.420366 0 -0.0145633)
(0.407947 0 -0.0134348)
(0.393068 0 -0.0123595)
(0.375694 0 -0.0113303)
(0.355775 0 -0.0103397)
(0.333248 0 -0.00937775)
(0.308037 0 -0.00843329)
(0.280059 0 -0.00749584)
(0.249227 0 -0.00655426)
(0.215454 0 -0.00559614)
(0.178649 0 -0.00460754)
(0.138725 0 -0.00357247)
(0.0956033 0 -0.00247258)
(0.0491273 0 -0.00128374)
(0 0 0)
(0.0201392 0 -0.0177485)
(0.0418543 0 -0.0214414)
(0.0786962 0 -0.0286588)
(0.146592 0 -0.038274)
(0.234321 0 -0.0470756)
(0.31223 0 -0.0517375)
(0.365914 0 -0.0527002)
(0.399709 0 -0.0517176)
(0.420893 0 -0.0496708)
(0.434119 0 -0.0470655)
(0.441942 0 -0.0442846)
(0.445717 0 -0.0414663)
(0.446171 0 -0.0386956)
(0.443723 0 -0.0360181)
(0.438618 0 -0.0334565)
(0.430994 0 -0.0310187)
(0.420918 0 -0.028703)
(0.408411 0 -0.0265004)
(0.393458 0 -0.0243973)
(0.376022 0 -0.0223804)
(0.356052 0 -0.0204363)
(0.333484 0 -0.0185455)
(0.308239 0 -0.0166854)
(0.280233 0 -0.0148365)
(0.249377 0 -0.0129771)
(0.215584 0 -0.011083)
(0.178761 0 -0.00912684)
(0.138818 0 -0.00707735)
(0.0956749 0 -0.00489852)
(0.04917 0 -0.00254307)
(0 0 0)
(0.0417348 0 -0.02757)
(0.0635732 0 -0.0332619)
(0.103977 0 -0.0441026)
(0.172795 0 -0.0579862)
(0.256045 0 -0.0698861)
(0.327083 0 -0.0758987)
(0.375591 0 -0.0769913)
(0.406308 0 -0.0754223)
(0.425667 0 -0.0724257)
(0.437749 0 -0.068688)
(0.444806 0 -0.0647059)
(0.448024 0 -0.0606651)
(0.448053 0 -0.0566842)
(0.445272 0 -0.0528282)
(0.439899 0 -0.0491307)
(0.432058 0 -0.0456031)
(0.421804 0 -0.0422446)
(0.409151 0 -0.0390422)
(0.394076 0 -0.0359756)
(0.376538 0 -0.0330273)
(0.356483 0 -0.0301817)
(0.333848 0 -0.0274087)
(0.30855 0 -0.0246728)
(0.280498 0 -0.0219485)
(0.249604 0 -0.0192047)
(0.215778 0 -0.0164061)
(0.178925 0 -0.0135129)
(0.138954 0 -0.0104793)
(0.0957783 0 -0.00725286)
(0.0492313 0 -0.00376467)
(0 0 0)
(0.0694173 0 -0.0389763)
(0.0919145 0 -0.0465832)
(0.136718 0 -0.0611294)
(0.206189 0 -0.0786812)
(0.283301 0 -0.0924768)
(0.345913 0 -0.0989427)
(0.388164 0 -0.0997847)
(0.415057 0 -0.0975291)
(0.432079 0 -0.0936132)
(0.442668 0 -0.0888663)
(0.448697 0 -0.0838101)
(0.451156 0 -0.0786771)
(0.450604 0 -0.0736118)
(0.447363 0 -0.0686947)
(0.441623 0 -0.0639688)
(0.433481 0 -0.0594481)
(0.422983 0 -0.0551348)
(0.41013 0 -0.0510112)
(0.39489 0 -0.0470479)
(0.377209 0 -0.0432257)
(0.357036 0 -0.0395242)
(0.334312 0 -0.0359104)
(0.308942 0 -0.0323418)
(0.280829 0 -0.0287826)
(0.249883 0 -0.0251928)
(0.216012 0 -0.0215267)
(0.179121 0 -0.0177326)
(0.139113 0 -0.0137517)
(0.0958969 0 -0.00951632)
(0.0492998 0 -0.00493799)
(0 0 0)
(0.102089 0 -0.052287)
(0.12586 0 -0.061862)
(0.175493 0 -0.0801496)
(0.244605 0 -0.10044)
(0.313991 0 -0.114768)
(0.367352 0 -0.120818)
(0.402856 0 -0.121034)
(0.425513 0 -0.117987)
(0.439869 0 -0.113186)
(0.448702 0 -0.107538)
(0.453486 0 -0.101532)
(0.455014 0 -0.0954369)
(0.45374 0 -0.0894149)
(0.449928 0 -0.0835566)
(0.443728 0 -0.0779143)
(0.435212 0 -0.0725003)
(0.424406 0 -0.0673107)
(0.411304 0 -0.0623359)
(0.395861 0 -0.0575452)
(0.37801 0 -0.0529121)
(0.357695 0 -0.0484047)
(0.334854 0 -0.0439933)
(0.30939 0 -0.0396388)
(0.281198 0 -0.0352904)
(0.250189 0 -0.0308983)
(0.216265 0 -0.0264071)
(0.179327 0 -0.0217544)
(0.139276 0 -0.0168694)
(0.0960154 0 -0.0116711)
(0.0493656 0 -0.00605345)
(0 0 0)
(0.138826 0 -0.0677367)
(0.164632 0 -0.0794158)
(0.218867 0 -0.101192)
(0.285822 0 -0.122906)
(0.346245 0 -0.13649)
(0.390179 0 -0.141419)
(0.418906 0 -0.140673)
(0.437197 0 -0.136751)
(0.448733 0 -0.131127)
(0.455637 0 -0.124663)
(0.459013 0 -0.117828)
(0.459471 0 -0.110898)
(0.457361 0 -0.104049)
(0.452883 0 -0.0973695)
(0.446143 0 -0.0909095)
(0.437191 0 -0.0846918)
(0.426027 0 -0.0787048)
(0.412629 0 -0.0729471)
(0.396945 0 -0.0674001)
(0.378901 0 -0.0620253)
(0.358428 0 -0.0567826)
(0.335448 0 -0.0516377)
(0.309868 0 -0.0465491)
(0.281585 0 -0.0414594)
(0.250502 0 -0.0363104)
(0.216518 0 -0.0310379)
(0.179529 0 -0.0255703)
(0.139432 0 -0.019826)
(0.0961258 0 -0.0137126)
(0.0494253 0 -0.00710876)
(0 0 0)
(0.179106 0 -0.08556)
(0.207559 0 -0.099359)
(0.265327 0 -0.123939)
(0.327881 0 -0.145519)
(0.378567 0 -0.157277)
(0.413358 0 -0.160571)
(0.435609 0 -0.158635)
(0.449647 0 -0.153789)
(0.458347 0 -0.147403)
(0.46323 0 -0.140215)
(0.465094 0 -0.13267)
(0.464382 0 -0.125032)
(0.461346 0 -0.117467)
(0.456126 0 -0.110074)
(0.448786 0 -0.102893)
(0.439346 0 -0.0959583)
(0.427785 0 -0.089273)
(0.414058 0 -0.0828257)
(0.398102 0 -0.0765996)
(0.379838 0 -0.0705537)
(0.359185 0 -0.0646457)
(0.336054 0 -0.0588325)
(0.310349 0 -0.0530646)
(0.281966 0 -0.0472829)
(0.250803 0 -0.0414231)
(0.216754 0 -0.0354139)
(0.179713 0 -0.0291757)
(0.13957 0 -0.0226181)
(0.0962216 0 -0.0156383)
(0.0494764 0 -0.00810264)
(0 0 0)
(0.222671 0 -0.105808)
(0.253932 0 -0.121557)
(0.313206 0 -0.147738)
(0.369154 0 -0.167623)
(0.409802 0 -0.176739)
(0.436043 0 -0.178051)
(0.45236 0 -0.174823)
(0.462441 0 -0.169087)
(0.468385 0 -0.161999)
(0.471228 0 -0.154182)
(0.471523 0 -0.146032)
(0.469577 0 -0.137797)
(0.465556 0 -0.129622)
(0.459544 0 -0.121614)
(0.451566 0 -0.113828)
(0.441603 0 -0.106288)
(0.429613 0 -0.0990067)
(0.415533 0 -0.0919659)