/*--------------------------------*- C++ -*----------------------------------*\
| =========                 |                                                 |
| \\      /  F ield         | OpenFOAM: The Open Source CFD Toolbox           |
|  \\    /   O peration     | Version:  dev                                   |
|   \\  /    A nd           | Web:      www.OpenFOAM.org                      |
|    \\/     M anipulation  |                                                 |
\*---------------------------------------------------------------------------*/
FoamFile
{
    version     2.0;
    format      ascii;
    class       surfaceScalarField;
    location    "0.92";
    object      meshPhi;
}
// * * * * * * * * * * * * * * * * * * * * * * * * * * * * * * * * * * * * * //

dimensions      [0 3 -1 0 0 0 0];

internalField   nonuniform List<scalar> 
5457
(
-4.64701e-05
4.18191e-07
-8.78404e-05
1.21198e-06
-0.000123145
1.95491e-06
-0.0001526
2.66833e-06
-0.00017572
3.34802e-06
-0.000191692
3.96337e-06
-0.000199799
4.47059e-06
-0.000199686
4.82477e-06
-0.000191538
4.98921e-06
-0.000176159
4.94186e-06
-0.000154927
4.68109e-06
-0.00012963
4.22038e-06
-0.000102277
3.59397e-06
-7.48749e-05
2.8554e-06
-4.92053e-05
2.06444e-06
-2.66634e-05
1.28136e-06
-8.16447e-06
5.60111e-07
5.87731e-06
-5.76765e-08
1.55022e-05
-5.46467e-07
2.11467e-05
-8.98183e-07
2.23471e-05
-1.07161e-06
1.97878e-05
-1.03402e-06
1.58097e-05
-8.65685e-07
1.1608e-05
-6.66099e-07
7.72931e-06
-4.73797e-07
4.53939e-06
-3.06148e-07
2.2211e-06
-1.73634e-07
7.9555e-07
-8.01955e-08
1.59711e-07
-2.50961e-08
-4.6999e-09
-4.63395e-05
8.30825e-07
-8.76644e-05
2.4098e-06
-0.000123033
3.89211e-06
-0.00015265
5.32034e-06
-0.000176008
6.68426e-06
-0.000192258
7.91988e-06
-0.000200647
8.94298e-06
-0.000200783
9.6657e-06
-0.000192818
1.00101e-05
-0.000177538
9.92967e-06
-0.000156315
9.41772e-06
-0.000130938
8.50493e-06
-0.000103431
7.26158e-06
-7.58265e-05
5.79136e-06
-4.99321e-05
4.21326e-06
-2.71685e-05
2.64802e-06
-8.47296e-06
1.20426e-06
5.72809e-06
-3.40679e-08
1.5464e-05
-1.01515e-06
2.11383e-05
-1.72068e-06
2.2413e-05
-2.07316e-06
1.99058e-05
-2.00999e-06
1.58736e-05
-1.68263e-06
1.16366e-05
-1.29007e-06
7.73427e-06
-9.13745e-07
4.53312e-06
-5.87147e-07
2.21286e-06
-3.30618e-07
7.89475e-07
-1.51415e-07
1.55047e-07
-4.69949e-08
-7.92933e-09
-4.61131e-05
1.23118e-06
-8.73107e-05
3.57455e-06
-0.000122678
5.78255e-06
-0.000152414
7.91906e-06
-0.000175997
9.96878e-06
-0.000192555
1.18365e-05
-0.000201297
1.33941e-05
-0.000201792
1.45075e-05
-0.000194154
1.50587e-05
-0.000179141
1.49743e-05
-0.000158102
1.42381e-05
-0.000132812
1.29011e-05
-0.000105296
1.10705e-05
-7.75987e-05
8.89469e-06
-5.15465e-05
6.54992e-06
-2.85826e-05
4.21624e-06
-9.67057e-06
2.05693e-06
4.74343e-06
1.98901e-07
1.4675e-05
-1.27813e-06
2.05139e-05
-2.34384e-06
2.19661e-05
-2.89011e-06
1.95847e-05
-2.82772e-06
1.55978e-05
-2.36962e-06
1.14064e-05
-1.80982e-06
7.54718e-06
-1.27338e-06
4.39379e-06
-8.09344e-07
2.12656e-06
-4.48623e-07
7.48857e-07
-2.0146e-07
1.39149e-07
-6.12027e-08
-9.57323e-09
-4.57909e-05
1.61279e-06
-8.67703e-05
4.6879e-06
-0.000122053
7.59772e-06
-0.000151843
1.04277e-05
-0.000175615
1.31586e-05
-0.000192484
1.56661e-05
-0.000201628
1.77759e-05
-0.000202581
1.9306e-05
-0.000195418
2.00999e-05
-0.000180853
2.00573e-05
-0.000160195
1.91523e-05
-0.000135195
1.7448e-05
-0.000107859
1.50822e-05
-8.02265e-05
1.22478e-05
-5.41268e-05
9.17518e-06
-3.10195e-05
6.10122e-06
-1.1895e-05
3.24345e-06
2.77123e-06
7.72408e-07
1.29727e-05
-1.20298e-06
1.90977e-05
-2.63905e-06
2.08253e-05
-3.40257e-06
1.86616e-05
-3.38103e-06
1.48479e-05
-2.8393e-06
1.08109e-05
-2.15822e-06
7.08948e-06
-1.50451e-06
4.06515e-06
-9.41175e-07
1.92077e-06
-5.08313e-07
6.50149e-07
-2.19367e-07
1.06276e-07
-6.30861e-08
-8.61409e-09
-4.53575e-05
1.97065e-06
-8.60332e-05
5.7353e-06
-0.00012118
9.31453e-06
-0.000151011
1.28167e-05
-0.000175
1.62199e-05
-0.000192244
1.93696e-05
-0.000201892
2.20475e-05
-0.000203434
2.40251e-05
-0.000196902
2.51068e-05
-0.000182954
2.51648e-05
-0.000162843
2.41623e-05
-0.000138284
2.21663e-05
-0.000111255
1.93377e-05
-8.37824e-05
1.59119e-05
-5.76922e-05
1.217e-05
-3.44552e-05
8.4017e-06
-1.50961e-05
4.8748e-06
-1.28439e-07
1.80395e-06
1.04105e-05
-6.7046e-07
1.68931e-05
-2.4895e-06
1.89781e-05
-3.49958e-06
1.71288e-05
-3.5701e-06
1.35839e-05
-3.00771e-06
9.79741e-06
-2.26789e-06
6.31436e-06
-1.55679e-06
3.51243e-06
-9.49136e-07
1.57224e-06
-4.90845e-07
4.8188e-07
-1.97013e-07
5.45316e-08
-4.99308e-08
-4.61864e-09
-4.48034e-05
2.29938e-06
-8.50832e-05
6.70183e-06
-0.000120041
1.09116e-05
-0.000149899
1.50613e-05
-0.000174128
1.91259e-05
-0.000191806
2.29211e-05
-0.000202049
2.61861e-05
-0.000204308
2.86477e-05
-0.000198558
3.00709e-05
-0.000185395
3.02986e-05
-0.000166007
2.92787e-05
-0.000142054
2.70784e-05
-0.000115474
2.38761e-05
-8.82716e-05
1.9942e-05
-6.22714e-05
1.56043e-05
-3.89527e-05
1.12028e-05
-1.93698e-05
7.04943e-06
-4.07928e-06
3.40075e-06
6.84264e-06
4.31603e-07
1.37385e-05
-1.78084e-06
1.62588e-05
-3.06946e-06
1.48274e-05
-3.29423e-06
1.16589e-05
-2.79139e-06
8.23868e-06
-2.07378e-06
5.11776e-06
-1.38181e-06
2.66553e-06
-8.00039e-07
1.05321e-06
-3.78275e-07
2.4245e-07
-1.28664e-07
-1.22574e-08
-2.1006e-08
2.13295e-09
-4.41211e-05
2.59258e-06
-8.39054e-05
7.57106e-06
-0.000118621
1.23673e-05
-0.000148488
1.71365e-05
-0.000172971
2.18486e-05
-0.000191132
2.6291e-05
-0.000202059
3.01628e-05
-0.000205155
3.31474e-05
-0.000200337
3.4971e-05
-0.000188128
3.54453e-05
-0.000169644
3.44994e-05
-0.000146475
3.21955e-05
-0.000120502
2.87231e-05
-9.3696e-05
2.43778e-05
-6.78863e-05
1.95302e-05
-4.4569e-05
1.45673e-05
-2.48126e-05
9.84333e-06
-9.21186e-06
5.65281e-06
2.10649e-06
2.20235e-06
9.44075e-06
-4.0819e-07
1.24615e-05
-2.00584e-06
1.15636e-05
-2.45507e-06
8.90679e-06
-2.10881e-06
6.00042e-06
-1.51416e-06
3.4003e-06
-9.36464e-07
1.47031e-06
-4.68367e-07
3.5396e-07
-1.60324e-07
-5.59354e-08
-1.34131e-08
-8.42774e-08
2.17982e-08
1.05123e-08
-4.33114e-05
2.84458e-06
-8.25013e-05
8.32708e-06
-0.000116912
1.36561e-05
-0.000146763
1.90078e-05
-0.000171507
2.43458e-05
-0.000190192
2.94309e-05
-0.000201877
3.39241e-05
-0.000205921
3.74676e-05
-0.000202175
3.975e-05
-0.000191087
4.05516e-05
-0.000173689
3.97783e-05
-0.000151493
3.74839e-05
-0.000126308
3.3862e-05
-0.000100055
2.92253e-05
-7.45645e-05
2.39747e-05
-5.13533e-05
1.85372e-05
-3.15065e-05
1.33107e-05
-1.56527e-05
8.62744e-06
-3.96713e-06
4.72263e-06
3.79565e-06
1.71709e-06
7.3663e-06
-2.20281e-07
7.13475e-06
-9.7201e-07
5.16389e-06
-8.93934e-07
2.96544e-06
-5.40943e-07
1.1023e-06
-1.91967e-07
-7.67791e-08
5.60263e-08
-4.96657e-07
1.60029e-07
-3.83267e-07
1.41122e-07
-1.49389e-07
7.29921e-08
1.89483e-08
-4.23724e-05
3.05075e-06
-8.08691e-05
8.95596e-06
-0.000114907
1.47542e-05
-0.000144707
2.0642e-05
-0.000169708
2.65768e-05
-0.000188942
3.22925e-05
-0.000201442
3.74162e-05
-0.000206527
4.15539e-05
-0.000203982
4.43549e-05
-0.000194172
4.55645e-05
-0.000178038
4.50656e-05
-0.00015701
4.28989e-05
-0.000132814
3.92567e-05
-0.000107308
3.4461e-05
-8.23093e-05
2.89317e-05
-5.93445e-05
2.31279e-05
-3.9517e-05
1.74823e-05
-2.35033e-05
1.23631e-05
-1.15276e-05
8.03992e-06
-3.3843e-06
4.65367e-06
7.82663e-07
2.34946e-06
1.3814e-06
1.20868e-06
3.21072e-07
8.91525e-07
-9.09506e-07
8.65667e-07
-1.75103e-06
8.51484e-07
-1.90392e-06
7.57187e-07
-1.4224e-06
5.60708e-07
-6.96564e-07
3.17803e-07
-1.98174e-07
1.24924e-07
2.60887e-08
-4.12917e-05
3.20606e-06
-7.89878e-05
9.44376e-06
-0.000112585
1.56422e-05
-0.000142291
2.20162e-05
-0.000167534
2.85136e-05
-0.000187327
3.48433e-05
-0.000200683
4.06015e-05
-0.000206882
4.5362e-05
-0.000205649
4.8734e-05
-0.000197261
5.04268e-05
-0.000182567
5.03013e-05
-0.0001629
4.83808e-05
-0.000139903
4.48496e-05
-0.000115359
4.003e-05
-9.10555e-05
3.43517e-05
-6.85242e-05
2.8302e-05
-4.88726e-05
2.23406e-05
-3.28199e-05
1.68599e-05
-2.06545e-05
1.21615e-05
-1.22105e-05
8.41317e-06
-7.39941e-06
5.71891e-06
-5.75444e-06
4.09692e-06
-5.60887e-06
3.24122e-06
-5.53532e-06
2.68028e-06
-5.0137e-06
2.15324e-06
-3.85453e-06
1.58842e-06
-2.31386e-06
1.00293e-06
-9.55444e-07
4.95739e-07
-2.26869e-07
1.71346e-07
3.14438e-08
-4.00582e-05
3.30563e-06
-7.68369e-05
9.77794e-06
-0.000109921
1.63036e-05
-0.000139489
2.31102e-05
-0.000164944
3.01302e-05
-0.00018529
3.70489e-05
-0.000199526
4.34342e-05
-0.000206893
4.88272e-05
-0.000207057
5.2806e-05
-0.000200216
5.50511e-05
-0.000187119
5.53929e-05
-0.000168999
5.38312e-05
-0.000147414
5.05417e-05
-0.000124061
4.58402e-05
-0.000100668
4.01521e-05
-7.87745e-05
3.39796e-05
-5.94978e-05
2.78109e-05
-4.35687e-05
2.20593e-05
-3.13248e-05
1.70434e-05
-2.26526e-05
1.29538e-05
-1.71279e-05
9.84076e-06
-1.41622e-05
7.63808e-06
-1.24343e-05
6.08928e-06
-1.06629e-05
4.82632e-06
-8.4252e-06
3.635e-06
-5.7243e-06
2.48411e-06
-3.0676e-06
1.44663e-06
-1.13623e-06
6.59805e-07
-2.36602e-07
2.09967e-07
3.54415e-08
-3.86678e-05
3.34577e-06
-7.44107e-05
9.94902e-06
-0.000106907
1.67238e-05
-0.00013628
2.39036e-05
-0.000161903
3.13984e-05
-0.000182775
3.88695e-05
-0.000197884
4.586e-05
-0.000206441
5.18829e-05
-0.000208058
5.64923e-05
-0.000202861
5.93435e-05
-0.000191497
6.02333e-05
-0.000175091
5.91348e-05
-0.000155118
5.62077e-05
-0.000133188
5.17586e-05
-0.000110942
4.62042e-05
-8.98936e-05
4.00404e-05
-7.11869e-05
3.37734e-05
-5.55547e-05
2.78381e-05
-4.335e-05
2.25666e-05
-3.44787e-05
1.81566e-05
-2.81142e-05
1.45882e-05
-2.34996e-05
1.16985e-05
-1.97672e-05
9.30282e-06
-1.5909e-05
7.18185e-06
-1.16724e-05
5.19906e-06
-7.32854e-06
3.38302e-06
-3.62057e-06
1.86713e-06
-1.23369e-06
8.0699e-07
-2.29804e-07
2.43112e-07
3.91557e-08
-3.71125e-05
3.32291e-06
-7.17013e-05
9.94776e-06
-0.000103533
1.6891e-05
-0.000132649
2.43811e-05
-0.00015838
3.22956e-05
-0.000179722
4.02718e-05
-0.000195664
4.78326e-05
-0.000205398
5.44727e-05
-0.000208488
5.97214e-05
-0.000204994
6.32057e-05
-0.000195465
6.47003e-05
-0.000180915
6.41551e-05
-0.000162725
6.16996e-05
-0.000142423
5.76229e-05
-0.000121554
5.23291e-05
-0.000101564
4.63016e-05
-8.35949e-05
4.00441e-05
-6.83877e-05
3.40036e-05
-5.62901e-05
2.85228e-05
-4.71831e-05
2.38014e-05
-3.97985e-05
1.97392e-05
-3.319e-05
1.60671e-05
-2.70648e-05
1.26971e-05
-2.08305e-05
9.60248e-06
-1.44726e-05
6.75419e-06
-8.54971e-06
4.24773e-06
-3.95594e-06
2.26346e-06
-1.25349e-06
9.48272e-07
-2.06195e-07
2.78255e-07
4.46578e-08
-3.53818e-05
3.23326e-06
-6.86972e-05
9.76527e-06
-9.9797e-05
1.67962e-05
-0.000128586
2.45334e-05
-0.000154348
3.28064e-05
-0.000176078
4.12308e-05
-0.000192779
4.93165e-05
-0.000203635
5.65425e-05
-0.000208173
6.24148e-05
-0.00020639
6.65396e-05
-0.00019875
6.86732e-05
-0.000186158
6.87403e-05
-0.000169882
6.68366e-05
-0.000151359
6.32231e-05
-0.000132038
5.82878e-05
-0.000113279
5.24984e-05
-9.61807e-05
4.63469e-05
-8.14661e-05
4.02751e-05
-6.9457e-05
3.46224e-05
-6.00014e-05
2.95921e-05
-5.13986e-05
2.50047e-05
-4.25268e-05
2.04941e-05
-3.3751e-05
1.60809e-05
-2.50326e-05
1.19603e-05
-1.66346e-05
8.23858e-06
-9.34569e-06
5.07067e-06
-4.08544e-06
2.65596e-06
-1.19895e-06
1.10735e-06
-1.57472e-07
3.30699e-07
5.73204e-08
-3.3593e-05
3.14443e-06
-6.54631e-05
9.507e-06
-9.56745e-05
1.6472e-05
-0.000124063
2.43523e-05
-0.000149766
3.2926e-05
-0.000171778
4.1737e-05
-0.000189134
5.02883e-05
-0.000201018
5.80479e-05
-0.000206932
6.45082e-05
-0.000206819
6.92618e-05
-0.000201069
7.20433e-05
-0.000190479
7.27494e-05
-0.000176193
7.14414e-05
-0.000159538
6.83513e-05
-0.000141865
6.38479e-05
-0.000124438
5.83781e-05
-0.00010829
5.24139e-05
-9.40812e-05
4.63754e-05
-8.2086e-05
4.05924e-05
-7.21155e-05
3.52611e-05
-6.21251e-05
3.01369e-05
-5.08723e-05
2.47822e-05
-3.9387e-05
1.93237e-05
-2.82812e-05
1.41924e-05
-1.80952e-05
9.64442e-06
-9.73796e-06
5.87828e-06
-4.02491e-06
3.0808e-06
-1.04572e-06
1.31338e-06
-3.27201e-08
4.2293e-07
9.27973e-08
6.24792e-07
-3.36477e-09
3.65999e-06
1.62976e-08
1.29834e-05
6.31087e-08
3.14452e-05
2.21642e-07
5.84924e-05
5.82701e-07
9.07937e-05
1.17773e-06
0.000124668
1.95168e-06
0.000157667
2.85056e-06
0.000189058
3.82155e-06
0.000215658
4.62056e-06
0.000235335
4.86185e-06
0.000251447
4.55849e-06
0.000266522
3.8205e-06
0.000280866
2.6287e-06
0.000294244
1.12139e-06
0.000306098
-5.58744e-07
0.000315752
-2.34288e-06
0.000322436
-4.09102e-06
0.00032539
-5.69388e-06
0.000323932
-7.06562e-06
0.000317418
-8.08483e-06
0.000305319
-8.72448e-06
0.000287305
-9.00563e-06
0.000263204
-8.91132e-06
0.000232996
-8.44352e-06
0.000196823
-7.61991e-06
0.000154967
-6.45998e-06
0.00010783
-4.98096e-06
5.57962e-05
-3.19318e-06
-1.11915e-06
6.62114e-07
-6.76897e-10
3.89084e-06
3.84226e-08
1.35343e-05
1.47538e-07
3.22217e-05
4.84806e-07
5.9217e-05
1.19445e-06
9.11488e-05
2.34249e-06
0.000124407
3.84355e-06
0.000156675
5.57908e-06
0.00018727
7.40574e-06
0.000213584
8.89932e-06
0.000233226
9.4099e-06
0.00024924
8.76409e-06
0.000264483
7.23631e-06
0.000279035
4.93485e-06
0.000292646
1.99355e-06
0.000304802
-1.35071e-06
0.000314759
-4.85592e-06
0.000321712
-8.27018e-06
0.000324896
-1.13978e-05
0.000323596
-1.4053e-05
0.000317192
-1.60561e-05
0.000305186
-1.73315e-05
0.000287239
-1.7882e-05
0.00026318
-1.76887e-05
0.00023299
-1.67539e-05
0.000196818
-1.51157e-05
0.000154952
-1.28119e-05
0.000107804
-9.87621e-06
5.57683e-05
-6.32913e-06
-2.21744e-06
7.16613e-07
1.47103e-09
4.17764e-06
6.08334e-08
1.40341e-05
2.41648e-07
3.25005e-05
7.62085e-07
5.86432e-05
1.80136e-06
8.92401e-05
3.43748e-06
0.000120975
5.56767e-06
0.000151795
8.00635e-06
0.000181111
1.05225e-05
0.000206818
1.25377e-05
0.000226451
1.32316e-05
0.00024263
1.22485e-05
0.000258327
9.93174e-06
0.000273484
6.56532e-06
0.000287733
2.31581e-06
0.000300513
-2.5347e-06
0.000311074
-7.62105e-06
0.00031862
-1.25917e-05
0.000322337
-1.71169e-05
0.000321479
-2.09329e-05
0.000315444
-2.38407e-05
0.000303757
-2.57059e-05
0.00028608
-2.6488e-05
0.000262239
-2.61729e-05
0.000232226
-2.47748e-05
0.000196206
-2.2344e-05
0.000154479
-1.89333e-05
0.000107468
-1.45907e-05
5.55838e-05
-9.34681e-06
-3.27352e-06
7.78217e-07
3.4244e-09
4.41412e-06
8.49932e-08
1.41945e-05
3.4239e-07
3.1835e-05
1.03749e-06
5.6282e-05
2.37272e-06
8.46619e-05
4.41021e-06
0.000114123
7.02475e-06
0.000142954
9.96945e-06
0.000170657
1.29742e-05
0.000195465
1.53219e-05
0.000215146
1.60283e-05
0.000231864
1.46981e-05
0.000248299
1.16816e-05
0.000264358
7.32672e-06
0.000279591
1.88601e-06
0.000293334
-4.2806e-06
0.000304816
-1.07534e-05
0.000313212
-1.7083e-05
0.000317701
-2.28472e-05
0.000317544
-2.77104e-05
0.000312124
-3.14175e-05
0.000300978
-3.3796e-05
0.000283773
-3.47569e-05
0.00026033
-3.42894e-05
0.000230667
-3.24318e-05
0.000194963
-2.92356e-05
0.000153536
-2.47642e-05
0.000106822
-1.90778e-05
5.52489e-05
-1.22164e-05
-4.27706e-06
8.38597e-07
6.70499e-09
4.55702e-06
1.14912e-07
1.39962e-05
4.54049e-07
3.04018e-05
1.3121e-06
5.26759e-05
2.88944e-06
7.83757e-05
5.21782e-06
0.000105167
8.15059e-06
0.000131668
1.13929e-05
0.000157506
1.46402e-05
0.000181223
1.7136e-05
0.000200937
1.77244e-05
0.000218393
1.59853e-05
0.000235789
1.23307e-05
0.000252917
7.12774e-06
0.000269281
6.57972e-07
0.000284202
-6.66547e-06
0.000296835
-1.43251e-05
0.000306292
-2.17964e-05
0.000311742
-2.8608e-05
0.000312447
-3.43608e-05
0.000307795
-3.87443e-05
0.000297317
-4.15412e-05
0.000280692
-4.26329e-05
0.000257765
-4.20016e-05
0.000228566
-3.96912e-05
0.00019329
-3.57586e-05
0.000152269
-3.02765e-05
0.000105959
-2.33153e-05
5.48049e-05
-1.49236e-05
-5.22299e-06
8.79911e-07
1.15958e-08
4.5517e-06
1.47693e-07
1.33956e-05
5.65104e-07
2.82749e-05
1.55845e-06
4.81252e-05
3.3025e-06
7.09325e-05
5.79905e-06
9.48962e-05
8.88267e-06
0.000118922
1.22376e-05
0.000142758
1.54921e-05
0.000165316
1.79151e-05
0.000185042
1.82883e-05
0.000203262
1.61173e-05
0.000221708
1.18466e-05
0.000240023
5.90619e-06
0.000257606
-1.40567e-06
0.000273755
-9.67504e-06
0.000287601
-1.83151e-05
0.000298238
-2.6745e-05
0.000304789
-3.44161e-05
0.000306468
-4.08693e-05
0.000302676
-4.57818e-05
0.000292954
-4.88955e-05
0.000276994
-5.00612e-05
0.000254665
-4.9249e-05
0.000226013
-4.64929e-05
0.000191248
-4.18572e-05
0.000150721
-3.54215e-05
0.000104903
-2.72648e-05
5.42615e-05
-1.74433e-05
-6.10253e-06
8.89419e-07
1.75451e-08
4.3851e-06
1.78907e-07
1.2451e-05
6.60577e-07
2.56378e-05
1.74595e-06
4.29831e-05
3.57606e-06
6.28884e-05
6.12709e-06
8.40601e-05
9.20342e-06
0.000105672
1.24856e-05
0.000127506
1.55635e-05
0.000148894
1.77035e-05
0.000168637
1.77416e-05
0.000187591
1.51452e-05
0.000207018
1.03178e-05
0.000226495
3.72723e-06
0.00024531
-4.28241e-06
0.000262671
-1.32815e-05
0.000277712
-2.26911e-05
0.000289507
-3.18702e-05
0.000297164
-4.02214e-05
0.000299864
-4.72207e-05
0.000296978
-5.25139e-05
0.000288063
-5.58359e-05
0.000272823
-5.70074e-05
0.000251146
-5.59831e-05
0.000223097
-5.27873e-05
0.000188903
-4.74848e-05
0.000148934
-4.01589e-05
0.000103681
-3.08948e-05
5.36306e-05
-1.97553e-05
-6.90849e-06
8.63691e-07
2.33278e-08
4.08121e-06
2.05675e-07
1.12581e-05
7.3521e-07
2.26922e-05
1.86684e-06
3.7591e-05
3.70317e-06
5.47763e-05
6.19254e-06
7.33581e-05
9.1127e-06
9.27462e-05
1.21501e-05
0.000112728
1.48974e-05
0.000132986
1.66095e-05
0.000152709
1.62036e-05
0.000172327
1.31654e-05
0.000192608
7.85445e-06
0.000213104
7.19418e-07
0.00023304
-7.86429e-06
0.000251533
-1.74281e-05
0.000267694
-2.74055e-05
0.000280567
-3.71247e-05
0.000289247
-4.59643e-05
0.000292925
-5.33668e-05
0.00029094
-5.89146e-05
0.00028283
-6.2332e-05
0.000268318
-6.34425e-05
0.000247313
-6.21775e-05
0.000219895
-5.85492e-05
0.000186312
-5.26183e-05
0.000146949
-4.44689e-05
0.000102317
-3.41901e-05
5.29244e-05
-2.18497e-05
-7.63743e-06
8.06432e-07
2.84955e-08
3.67649e-06
2.26231e-07
9.90561e-06
7.83728e-07
1.96339e-05
1.91418e-06
3.22975e-05
3.67812e-06
4.7088e-05
5.99468e-06
6.33897e-05
8.63347e-06
8.0812e-05
1.12911e-05
9.91776e-05
1.35717e-05
0.000118407
1.47551e-05
0.000138049
1.38321e-05
0.000158199
1.03334e-05
0.000179174
4.59268e-06
0.000200495
-2.98471e-06
0.000221369
-1.20243e-05
0.000240848
-2.20141e-05
0.000257981
-3.23762e-05
0.000271805
-4.24554e-05
0.000281391
-5.16035e-05
0.000285937
-5.92519e-05
0.000284772
-6.49392e-05
0.000277415
-6.83647e-05
0.000263604
-6.93566e-05
0.00024326
-6.78265e-05
0.000216481
-6.37743e-05
0.00018353
-5.72544e-05
0.000144807
-4.83492e-05
0.000100839
-3.7149e-05
5.21558e-05
-2.37259e-05
-8.28926e-06
7.23735e-07
3.31638e-08
3.21303e-06
2.39826e-07
8.50995e-06
7.97549e-07
1.6692e-05
1.87214e-06
2.74366e-05
3.48899e-06
4.02143e-05
5.54585e-06
5.46018e-05
7.81261e-06
7.03721e-05
9.98875e-06
8.73893e-05
1.1699e-05
0.000105734
1.22802e-05
0.000125241
1.07986e-05
0.000145759
6.8363e-06
0.000167247
6.99208e-07
0.00018918
-7.24137e-06
0.000210758
-1.66207e-05
0.000231006
-2.69109e-05
0.000248918
-3.75181e-05
0.000263513
-4.78019e-05
0.000273848
-5.71058e-05
0.000279111
-6.48527e-05
0.000278635
-7.05704e-05
0.000271944
-7.39362e-05
0.000258778
-7.47605e-05
0.000239065
-7.29449e-05
0.000212915
-6.84787e-05
0.000180601
-6.1409e-05
0.00014254
-5.18137e-05
9.92703e-05
-3.97833e-05
5.13387e-05
-2.5392e-05
-8.86712e-06
6.27714e-07
3.67941e-08
2.74475e-06
2.43703e-07
7.20532e-06
7.69778e-07
1.40933e-05
1.73555e-06
2.32782e-05
3.14128e-06
3.44351e-05
4.87484e-06
4.72985e-05
6.70816e-06
6.17474e-05
8.33933e-06
7.76863e-05
9.41556e-06
9.5307e-05
9.34168e-06
0.000114627
7.2786e-06
0.000135346
2.84942e-06
0.000157159
-3.66816e-06
0.000179488
-1.19186e-05
0.000201519
-2.15428e-05
0.000222279
-3.20247e-05
0.000240738
-4.27647e-05
0.000255888
-5.31218e-05
0.000266782
-6.24496e-05
0.000272595
-7.01718e-05
0.000272669
-7.5818e-05
0.000266538
-7.90512e-05
0.000253938
-7.96618e-05
0.000234805
-7.75432e-05
0.000209256
-7.26744e-05
0.000177574
-6.50936e-05
0.000140184
-5.48734e-05
9.76346e-05
-4.21018e-05
5.04864e-05
-2.68542e-05
-9.37328e-06
5.36602e-07
3.88034e-08
2.33126e-06
2.34214e-07
6.10839e-06
6.97179e-07
1.20014e-05
1.51391e-06
1.99989e-05
2.66528e-06
2.99243e-05
4.0339e-06
4.16372e-05
5.39395e-06
5.50757e-05
6.44441e-06
7.0193e-05
6.84707e-06
8.72422e-05
6.07584e-06
0.000106342
3.40421e-06
0.000127111
-1.50549e-06
0.000149061
-8.39721e-06
0.000171575
-1.69205e-05
0.000193828
-2.67208e-05
0.00021485
-3.72976e-05
0.000233611
-4.80596e-05
0.000249089
-5.83723e-05
0.000260333
-6.76071e-05
0.000266521
-7.51979e-05
0.000266998
-8.06791e-05
0.000261302
-8.37076e-05
0.000249175
-8.4062e-05
0.000230554
-8.16257e-05
0.000205565
-7.63672e-05
0.000174494
-6.83151e-05
0.000137771
-5.75345e-05
9.59539e-05
-4.41099e-05
4.96099e-05
-2.81162e-05
-9.80909e-06
4.59439e-07
3.99009e-08
2.02123e-06
2.11622e-07
5.31654e-06
5.85323e-07
1.0522e-05
1.22847e-06
1.76921e-05
2.10104e-06
2.67568e-05
3.07657e-06
3.76584e-05
3.93134e-06
5.037e-05
4.37176e-06
6.48905e-05
4.07087e-06
8.15067e-05
2.56605e-06
0.000100384
-7.50486e-07
0.00012108
-6.15695e-06
0.000143
-1.34105e-05
0.000165505
-2.2169e-05
0.000187765
-3.20815e-05
0.000208822
-4.26641e-05
0.000227649
-5.33435e-05
0.000243227
-6.35051e-05
0.000254612
-7.25423e-05
0.000260987
-7.99061e-05
0.000261706
-8.51403e-05
0.000256312
-8.79023e-05
0.000244552
-8.79639e-05
0.000226368
-8.51995e-05
0.000201886
-7.95666e-05
0.000171396
-7.10834e-05
0.00013533
-5.98066e-05
9.42463e-05
-4.58156e-05
4.87178e-05
-2.91836e-05
-1.01766e-05
4.16506e-07
3.86979e-08
1.87741e-06
1.78214e-07
4.93333e-06
4.45354e-07
9.75865e-06
8.97498e-07
1.6436e-05
1.46929e-06
2.49671e-05
2.02148e-06
3.53464e-05
2.33524e-06
4.7573e-05
2.13472e-06
6.16708e-05
1.11725e-06
7.79789e-05
-1.13746e-06
9.66611e-05
-5.13716e-06
0.000117197
-1.10559e-05
0.000138949
-1.86471e-05
0.000161272
-2.75941e-05
0.000183346
-3.75515e-05
0.000204224
-4.80555e-05
0.000222894
-5.85583e-05
0.000238354
-6.84728e-05
0.000249673
-7.72198e-05
0.000256048
-8.42725e-05
0.000256845
-8.91896e-05
0.000251617
-9.16332e-05
0.000240115
-9.13725e-05
0.000222284
-8.82739e-05
0.000198252
-8.22846e-05
0.000168308
-7.34118e-05
0.000132881
-6.17025e-05
9.25263e-05
-4.72296e-05
4.78176e-05
-3.00636e-05
-1.04785e-05
5.63946e-07
2.17508e-09
2.10888e-06
1.36739e-07
5.15584e-06
2.79453e-07
9.86154e-06
5.05082e-07
1.63207e-05
7.34059e-07
2.45773e-05
8.1949e-07
3.46604e-05
5.51004e-07
4.65862e-05
-3.20693e-07
6.04131e-05
-2.06599e-06
7.65448e-05
-5.09064e-06
9.50547e-05
-9.80191e-06
0.000115344
-1.62223e-05
0.000136809
-2.41076e-05
0.000158796
-3.31855e-05
0.000180502
-4.31144e-05
0.000201001
-5.34565e-05
0.000219305
-6.36941e-05
0.000234436
-7.32724e-05
0.000245488
-8.16445e-05
0.00025168
-8.83103e-05
0.000252395
-9.28476e-05
0.000247199
-9.49276e-05
0.000235849
-9.43193e-05
0.000218294
-9.0883e-05
0.000194659
-8.45554e-05
0.000165227
-7.53322e-05
0.000130424
-6.32501e-05
9.07957e-05
-4.83744e-05
4.69117e-05
-3.07715e-05
-1.07203e-05
-3.31872e-05
3.1104e-06
-6.46353e-05
9.33445e-06
-9.47288e-05
1.60786e-05
-0.000123589
2.3876e-05
-0.000150114
3.26277e-05
-0.000173143
4.1763e-05
-0.000191713
5.07129e-05
-0.000204995
5.89465e-05
-0.000212447
6.59474e-05
-0.00021397
7.12947e-05
-0.000209901
7.47063e-05
-0.000200966
7.60531e-05
-0.000188211
7.53671e-05
-0.000172885
7.28511e-05
-0.00015628
6.88428e-05
-0.000139597
6.37576e-05
-0.000123813
5.80347e-05
-0.000109538
5.20757e-05
-9.69915e-05
4.61986e-05
-8.59416e-05
4.05869e-05
-7.40633e-05
3.49582e-05
-5.99846e-05
2.88143e-05
-4.54135e-05
2.23729e-05
-3.16943e-05
1.63034e-05
-1.96288e-05
1.10129e-05
-1.01625e-05
6.72499e-06
-3.92809e-06
3.59081e-06
-7.5319e-07
1.60601e-06
3.1917e-07
5.70232e-07
1.51225e-07
3.34315e-07
-3.24017e-05
3.07013e-06
-6.29969e-05
9.20145e-06
-9.22367e-05
1.57516e-05
-0.000120732
2.32784e-05
-0.000147508
3.19429e-05
-0.000171125
4.12677e-05
-0.000190547
5.05466e-05
-0.000204963
5.91848e-05
-0.000213796
6.66636e-05
-0.000216901
7.25481e-05
-0.000214572
7.65456e-05
-0.000207453
7.85097e-05
-0.00019647
7.8449e-05
-0.000182755
7.65304e-05
-0.000167504
7.30468e-05
-0.000151815
6.83743e-05
-0.000136579
6.29197e-05
-0.000122346
5.70709e-05
-0.000109288
5.11338e-05
-9.71825e-05
4.52962e-05
-8.3625e-05
3.92748e-05
-6.70608e-05
3.24907e-05
-4.97737e-05
2.51976e-05
-3.38952e-05
1.83089e-05
-2.03937e-05
1.23866e-05
-1.0135e-05
7.65402e-06
-3.48568e-06
4.21269e-06
-3.41035e-08
1.99076e-06
1.2617e-06
7.50612e-07
1.63855e-07
1.55604e-06
-3.14863e-05
2.98044e-06
-6.12657e-05
8.96403e-06
-8.96503e-05
1.53817e-05
-0.00011741
2.26715e-05
-0.000144031
3.10486e-05
-0.000168026
4.02963e-05
-0.00018813
4.97627e-05
-0.000203534
5.87217e-05
-0.000213619
6.65944e-05
-0.000218183
7.29379e-05
-0.000217495
7.74542e-05
-0.00021211
7.99875e-05
-0.000202837
8.05208e-05
-0.000190684
7.91769e-05
-0.000176731
7.62032e-05
-0.000161961
7.19401e-05
-0.000147169
6.67645e-05
-0.000132857
6.10458e-05
-0.000119203
5.50894e-05
-0.000106094
4.9121e-05
-9.13255e-05
4.29396e-05
-7.27387e-05
3.58026e-05
-5.3007e-05
2.78236e-05
-3.53276e-05
2.02301e-05
-2.06351e-05
1.37855e-05
-9.65284e-06
8.66298e-06
-2.46886e-06
4.91521e-06
1.49566e-06
2.4167e-06
3.29944e-06
9.13548e-07
9.15335e-08
4.0487e-06
-3.03277e-05
2.84181e-06
-5.91328e-05
8.57753e-06
-8.66772e-05
1.48025e-05
-0.000113615
2.19082e-05
-0.000139721
3.00157e-05
-0.000163784
3.89887e-05
-0.000184362
4.8395e-05
-0.00020057
5.75362e-05
-0.000211722
6.57075e-05
-0.000217534
7.24094e-05
-0.000218302
7.73544e-05
-0.000214482
8.03803e-05
-0.000206763
8.14357e-05
-0.000196038
8.06066e-05
-0.000183249
7.81043e-05
-0.000169261
7.42318e-05
-0.000154779
6.93352e-05
-0.000140275
6.37631e-05
-0.000125991
5.78265e-05
-0.000112005
5.17981e-05
-9.65986e-05
4.55907e-05
-7.68413e-05
3.84236e-05
-5.52252e-05
3.01828e-05
-3.59798e-05
2.21069e-05
-2.01857e-05
1.51862e-05
-8.41704e-06
9.69309e-06
-4.98265e-07
5.6271e-06
4.25435e-06
2.81145e-06
6.91072e-06
9.86504e-07
-1.44442e-07
8.45155e-06
-2.88953e-05
2.65166e-06
-5.64599e-05
8.03903e-06
-8.29727e-05
1.3966e-05
-0.000109002
2.0816e-05
-0.000134385
2.86752e-05
-0.000158216
3.73618e-05
-0.000179082
4.65297e-05
-0.000195968
5.56507e-05
-0.000207964
6.40018e-05
-0.000214707
7.09501e-05
-0.00021667
7.62029e-05
-0.000214183
7.96168e-05
-0.000207799
8.10997e-05
-0.000198297
8.07064e-05
-0.000186477
7.86177e-05
-0.000173101
7.51021e-05
-0.000158801
7.04788e-05
-0.000144033
6.5073e-05
-0.000129102
5.91897e-05
-0.000114229
5.31044e-05
-9.8048e-05
4.67184e-05
-7.79367e-05
3.94871e-05
-5.57674e-05
3.14524e-05
-3.5516e-05
2.35046e-05
-1.8729e-05
1.64461e-05
-6.04237e-06
1.0665e-05
2.79858e-06
6.25984e-06
8.58565e-06
3.09737e-06
1.23818e-05
9.09176e-07
-5.81112e-07
1.4956e-05
-2.71593e-05
2.4087e-06
-5.31855e-05
7.34399e-06
-7.83831e-05
1.28711e-05
-0.00010327
1.93575e-05
-0.000127682
2.68799e-05
-0.000150927
3.52486e-05
-0.000171827
4.41187e-05
-0.000189307
5.30652e-05
-0.000202088
6.14538e-05
-0.000209546
6.85532e-05
-0.000212396
7.40039e-05
-0.000210982
7.76922e-05
-0.000205648
7.94979e-05
-0.000197101
7.94457e-05
-0.000186008
7.76961e-05
-0.000173069
7.44921e-05
-0.000158857
7.0133e-05
-0.00014381
6.49185e-05
-0.000128258
5.91344e-05
-0.000112447
5.30332e-05
-9.50813e-05
4.64763e-05
-7.47313e-05
3.91086e-05
-5.31009e-05
3.12611e-05
-3.29377e-05
2.37273e-05
-1.56814e-05
1.69954e-05
-2.11568e-06
1.12738e-05
7.77887e-06
6.68308e-06
1.47754e-05
3.19554e-06
1.98758e-05
6.27319e-07
-1.23582e-06
2.36203e-05
-2.50904e-05
2.1128e-06
-4.92549e-05
6.49398e-06
-7.28279e-05
1.15199e-05
-9.62799e-05
1.75389e-05
-0.000119429
2.46133e-05
-0.000141654
3.25557e-05
-0.000162073
4.10341e-05
-0.000179701
4.96454e-05
-0.000193297
5.78806e-05
-0.000201734
6.50833e-05
-0.000205422
7.0765e-05
-0.00020478
7.46788e-05
-0.000200137
7.66885e-05
-0.000192251
7.6869e-05
-0.000181617
7.53712e-05
-0.000168952
7.24195e-05
-0.000154774
6.83124e-05
-0.000139495
6.33185e-05
-0.000123451
5.76999e-05
-0.000106893
5.16952e-05
-8.86803e-05
4.51982e-05
-6.80782e-05
3.7914e-05
-4.69876e-05
3.02292e-05
-2.74971e-05
2.29835e-05
-1.0423e-05
1.66009e-05
3.67897e-06
1.11377e-05
1.46809e-05
6.59709e-06
2.30323e-05
2.94126e-06
2.95262e-05
7.03805e-08
-2.13467e-06
3.44871e-05
-2.26546e-05
1.76448e-06
-4.46179e-05
5.49171e-06
-6.62422e-05
9.92023e-06
-8.79514e-05
1.53731e-05
-0.000109553
2.1898e-05
-0.000130431
2.93072e-05
-0.000149815
3.72721e-05
-0.000166837
4.53901e-05
-0.000180701
5.32323e-05
-0.000190255
6.03216e-05
-0.000195137
6.61971e-05
-0.000195325
7.04219e-05
-0.000191268
7.27206e-05
-0.000183731
7.31103e-05
-0.000173232
7.17452e-05
-0.000160697
6.89609e-05
-0.000146538
6.50889e-05
-0.000131127
6.03419e-05
-0.000114808
5.49557e-05
-9.78586e-05
4.91577e-05
-7.94257e-05
4.28776e-05
-5.89856e-05
3.58823e-05
-3.84229e-05
2.8561e-05
-1.95738e-05
2.16766e-05
-2.8903e-06
1.55802e-05
1.14102e-05
1.03197e-05
2.33345e-05
5.8813e-06
3.30768e-05
2.18973e-06
4.11463e-05
-8.60973e-07
-3.3377e-06
4.7566e-05
-1.98269e-05
1.36739e-06
-3.92302e-05
4.34683e-06
-5.85814e-05
8.089e-06
-7.82456e-05
1.28885e-05
-9.80153e-05
1.87721e-05
-0.000117289
2.55504e-05
-0.000135299
3.29023e-05
-0.000151232
4.04367e-05
-0.000164466
4.7736e-05
-0.000174318
5.44105e-05
-0.000180144
6.01058e-05
-0.000181466
6.44525e-05
-0.000178488
6.71602e-05
-0.000171445
6.79996e-05
-0.000160946
6.68961e-05
-0.00014837
6.42539e-05
-0.000134242
6.05774e-05
-0.000118812
5.6092e-05
-0.000102448
5.0986e-05
-8.54421e-05
4.54785e-05
-6.72009e-05
3.95292e-05
-4.73887e-05
3.29627e-05
-2.76557e-05
2.61336e-05
-9.48331e-06
1.97013e-05
6.81272e-06
1.39596e-05
2.11344e-05
8.93821e-06
3.35838e-05
4.61784e-06
4.44118e-05
9.3566e-07
5.39905e-05
-2.20088e-06
-4.82659e-06
6.19152e-05
-1.6603e-05
9.28649e-07
-3.30787e-05
3.07986e-06
-4.98297e-05
6.05738e-06
-6.71552e-05
1.01257e-05
-8.48153e-05
1.52889e-05
-0.000102215
2.13531e-05
-0.000118598
2.80051e-05
-0.00013319
3.48702e-05
-0.000145322
4.15552e-05
-0.000154509
4.76869e-05
-0.00016023
5.29262e-05
-0.00016222
5.70223e-05
-0.000160389
5.97937e-05
-0.00015448
6.1039e-05
-0.000144615
6.05282e-05
-0.000132124
5.8341e-05
-0.000118043
5.49383e-05
-0.000102672
5.06998e-05
-8.64571e-05
4.58873e-05
-6.96547e-05
4.07172e-05
-5.19093e-05
3.51665e-05
-3.30196e-05
2.91133e-05
-1.43015e-05
2.28569e-05
3.08488e-06
1.69411e-05
1.8915e-05
1.16068e-05
3.31318e-05
6.87634e-06
4.58327e-05
2.73303e-06
5.72881e-05
-8.7214e-07
6.78045e-05