/*--------------------------------*- C++ -*----------------------------------*\
| =========                 |                                                 |
| \\      /  F ield         | OpenFOAM: The Open Source CFD Toolbox           |
|  \\    /   O peration     | Version:  dev                                   |
|   \\  /    A nd           | Web:      www.OpenFOAM.org                      |
|    \\/     M anipulation  |                                                 |
\*---------------------------------------------------------------------------*/
FoamFile
{
    version     2.0;
    format      ascii;
    class       surfaceVectorField;
    location    "2.64";
    object      Uf;
}
// * * * * * * * * * * * * * * * * * * * * * * * * * * * * * * * * * * * * * //

dimensions      [0 1 -1 0 0 0 0];

internalField   nonuniform List<vector> 
5457
(
(9.9115 -1.3789e-20 0.0226383)
(9.97173 0 0.0375742)
(9.81371 -2.76795e-20 0.0288384)
(9.92888 3.37572e-23 0.0428961)
(9.70395 -6.3203e-21 0.033788)
(9.85925 8.80813e-25 0.0500065)
(9.58032 7.23225e-21 0.0387939)
(9.77063 6.45649e-24 0.058491)
(9.44319 -8.20898e-21 0.0438656)
(9.66767 0 0.0673248)
(9.2931 -7.90488e-21 0.0490496)
(9.55115 -2.28301e-23 0.0764291)
(9.13012 0 0.0544788)
(9.42072 0 0.0860258)
(8.95399 0 0.0602876)
(9.27606 -1.76229e-20 0.096329)
(8.76419 0 0.0665973)
(9.1169 -2.7801e-20 0.107523)
(8.56 0 0.0735241)
(8.94272 7.68008e-20 0.119787)
(8.34051 2.17629e-20 0.0811912)
(8.75276 -4.49803e-20 0.133309)
(8.10467 -2.22264e-21 0.0897349)
(8.54608 2.66505e-20 0.148297)
(7.85121 -2.31838e-20 0.0993067)
(8.32154 -6.6624e-20 0.16498)
(7.57874 -2.27993e-20 0.11008)
(8.07786 -4.73743e-20 0.183609)
(7.28567 3.77831e-20 0.122242)
(7.81363 1.6973e-19 0.20447)
(6.97028 2.97784e-20 0.135988)
(7.52722 -4.94738e-20 0.227839)
(6.63078 -1.19894e-20 0.151533)
(7.21671 9.45314e-20 0.253981)
(6.26529 2.92954e-20 0.169115)
(6.88031 -1.11368e-19 0.283197)
(5.87194 1.4771e-20 0.18897)
(6.51619 3.19486e-22 0.315759)
(5.44888 3.433e-20 0.211313)
(6.12229 -3.09776e-20 0.351851)
(4.99449 6.82425e-20 0.236329)
(5.69671 1.04839e-21 0.391549)
(4.50748 3.37959e-20 0.264151)
(5.23768 6.79993e-20 0.43475)
(3.98712 3.86897e-20 0.294802)
(4.74379 -7.13018e-20 0.481068)
(3.43356 3.77026e-20 0.328105)
(4.21413 -7.28202e-20 0.529692)
(2.84813 0 0.363507)
(3.64853 0 0.579149)
(2.23391 3.4478e-19 0.399613)
(3.04768 -6.48201e-19 0.626785)
(1.59731 -3.03868e-21 0.432319)
(2.41346 1.00194e-18 0.667518)
(0.95226 -3.47061e-19 0.446269)
(1.74933 -3.45429e-19 0.689752)
(0.332087 0 0.32532)
(1.04313 0 0.660621)
(0.490395 -1.45549e-18 0.364879)
(10.0022 1.37718e-20 0.04566)
(10.0025 5.20559e-20 0.0365962)
(9.97106 2.76372e-20 0.0601081)
(9.98861 1.35261e-20 0.0565399)
(9.9216 6.31336e-21 0.0723951)
(9.95127 -2.10909e-20 0.0725054)
(9.85583 -7.2153e-21 0.0852539)
(9.89518 1.46026e-20 0.0895636)
(9.77417 8.17983e-21 0.0986689)
(9.82384 1.52943e-20 0.107376)
(9.67706 7.87712e-21 0.112697)
(9.7382 8.02748e-21 0.125841)
(9.56463 -1.79467e-20 0.127618)
(9.63813 0 0.145329)
(9.43676 -4.55959e-20 0.143733)
(9.52344 -1.59096e-22 0.166233)
(9.29304 5.08935e-20 0.161321)
(9.39393 -1.86592e-20 0.188909)
(9.13289 2.96502e-20 0.180665)
(9.24921 8.6361e-20 0.21372)
(8.95548 -3.88477e-20 0.202063)
(9.08862 -3.99782e-20 0.241056)
(8.75982 -3.93775e-20 0.225842)
(8.91132 8.43783e-20 0.271338)
(8.54473 -9.04574e-20 0.252358)
(8.71631 -2.19395e-19 0.305024)
(8.30891 1.48879e-19 0.282013)
(8.50241 4.61233e-20 0.342613)
(8.05082 7.87557e-20 0.315247)
(8.26835 1.91469e-19 0.384683)
(7.76872 1.76295e-20 0.352491)
(8.01264 -1.07655e-19 0.431869)
(7.46071 -8.28459e-21 0.394169)
(7.73343 1.08164e-19 0.484758)
(7.12486 -1.3872e-19 0.440711)
(7.42891 -1.25728e-19 0.543937)
(6.75918 -4.60236e-20 0.492499)
(7.09722 -2.50273e-19 0.610017)
(6.36158 -6.34013e-20 0.549785)
(6.73622 -2.51214e-19 0.68351)
(5.92998 2.75951e-21 0.612627)
(6.3437 5.40835e-19 0.764745)
(5.46244 -3.8601e-20 0.680767)
(5.91737 3.41685e-20 0.853733)
(4.95732 -1.83611e-19 0.753478)
(5.45492 -5.12315e-22 0.949976)
(4.41346 -1.10457e-19 0.829311)
(4.95404 -1.83355e-19 1.05225)
(3.83024 -6.54364e-19 0.905631)
(4.41241 1.22166e-18 1.1582)
(3.20751 1.83292e-20 0.977719)
(3.8272 -6.31814e-19 1.26358)
(2.54558 6.57516e-19 1.03683)
(3.19435 -6.24954e-19 1.36073)
(1.84278 0 1.06803)
(2.50731 -1.48593e-18 1.43527)
(1.07234 -1.48773e-18 1.04334)
(1.72326 1.31808e-18 1.46877)
(1.019 -1.08658e-18 1.40097)
(9.99518 5.111e-20 0.0501015)
(10.0003 8.5057e-23 0.0386492)
(9.96788 -3.59102e-20 0.0722517)
(9.98387 0 0.0685472)
(9.92231 -1.21006e-20 0.0925779)
(9.94778 -4.91394e-20 0.0933155)
(9.86172 3.71281e-20 0.113805)
(9.89482 -2.2017e-20 0.118291)
(9.78687 1.50044e-20 0.136087)
(9.82737 -1.5399e-20 0.144202)
(9.69806 0 0.159558)
(9.74639 3.16823e-20 0.171151)
(9.59543 1.77871e-20 0.184603)
(9.65199 3.34042e-20 0.199605)
(9.47888 2.64618e-20 0.211648)
(9.54408 -3.46611e-20 0.230082)
(9.34817 1.87009e-20 0.241126)
(9.42256 2.73275e-20 0.263084)
(9.20278 1.44757e-20 0.273498)
(9.28713 2.26818e-23 0.299147)
(9.04204 8.54232e-20 0.309258)
(9.13728 -1.4868e-20 0.338842)
(8.8651 -1.00902e-19 0.348945)
(8.97233 1.63013e-19 0.382777)
(8.67096 -7.82346e-20 0.393148)
(8.7915 -2.56843e-19 0.431615)
(8.45845 9.1228e-20 0.442529)
(8.59382 9.13753e-20 0.486082)
(8.22628 0 0.497841)
(8.37822 1.92747e-19 0.547017)
(7.97292 -1.35003e-20 0.559857)
(8.14353 -1.98873e-19 0.61537)
(7.69665 -1.30681e-20 0.629336)
(7.88826 -1.32848e-20 0.692082)
(7.39558 -2.39231e-19 0.707044)
(7.61081 0 0.778094)
(7.0677 -4.55801e-19 0.79372)
(7.30951 -2.35506e-19 0.874397)
(6.71084 3.63848e-19 0.889963)
(6.9823 -2.80408e-19 0.981924)
(6.32254 5.64541e-19 0.996104)
(6.627 5.72726e-19 1.10147)
(5.90012 7.11873e-20 1.11202)
(6.24115 5.30487e-19 1.23351)
(5.44063 -3.6748e-21 1.23691)
(5.82165 -4.74122e-19 1.37794)
(4.94078 1.16292e-18 1.36905)
(5.36485 7.14779e-20 1.5339)
(4.3964 1.22919e-18 1.50533)
(4.86609 2.26162e-18 1.69946)
(3.80131 -1.27035e-18 1.64056)
(4.31865 -1.34623e-18 1.87123)
(3.14482 -2.76408e-18 1.76674)
(3.71216 -2.37782e-18 2.04397)
(2.40492 -1.80216e-19 1.87596)
(3.03176 -2.09887e-19 2.2106)
(1.5303 1.63818e-18 1.97998)
(2.22782 -1.24313e-18 2.37331)
(1.36361 5.69608e-18 2.5583)
(9.99055 -5.10732e-20 0.0576862)
(9.99885 -5.20289e-20 0.0426688)
(9.96348 -1.42499e-20 0.0890817)
(9.98046 0 0.0804645)
(9.91878 -5.85232e-20 0.118348)
(9.94415 9.8132e-20 0.113747)
(9.8592 -7.44038e-20 0.14797)
(9.89224 -7.3069e-20 0.146561)
(9.78587 2.19074e-21 0.178601)
(9.8262 -1.22063e-19 0.180314)
(9.69915 6.51502e-20 0.210659)
(9.74689 -6.39004e-20 0.215435)
(9.59923 -2.03016e-20 0.244692)
(9.65465 6.62099e-20 0.252497)
(9.48613 -3.26819e-20 0.281274)
(9.54951 5.15961e-20 0.29211)
(9.35971 8.17001e-21 0.321006)
(9.43142 3.62365e-20 0.334905)
(9.21961 -2.9584e-20 0.364531)
(9.30016 -8.56766e-20 0.381577)
(9.0653 6.57849e-20 0.412524)
(9.15535 -1.00262e-21 0.432841)
(8.89619 -1.7125e-22 0.465712)
(8.99649 1.66141e-19 0.489451)
(8.71152 -8.12937e-20 0.524896)
(8.82298 8.76092e-20 0.552239)
(8.5104 1.94578e-19 0.590971)
(8.63411 -3.63592e-19 0.622128)
(8.29186 -1.25713e-20 0.664956)
(8.42905 3.80918e-19 0.700165)
(8.05477 -1.95702e-19 0.74795)
(8.20695 -5.98343e-19 0.787531)
(7.79784 0 0.841075)
(7.96674 4.11573e-19 0.885479)
(7.51955 0 0.945498)
(7.70721 0 0.995324)
(7.21817 -6.09223e-20 1.06238)
(7.42708 -5.1342e-19 1.11846)
(6.89177 -5.91414e-20 1.19283)
(7.12456 4.69437e-19 1.25625)
(6.53808 5.37683e-19 1.33777)
(6.79775 0 1.41001)
(6.15423 -2.66463e-20 1.49774)
(6.44447 5.30197e-19 1.58096)
(5.7365 -3.92947e-19 1.67263)
(6.06149 -6.76681e-19 1.7699)
(5.28005 1.1931e-18 1.86154)
(5.64448 5.31992e-21 1.97704)
(4.77798 -3.3302e-19 2.06267)
(5.18747 1.18403e-18 2.20198)
(4.21961 -2.45506e-18 2.27345)
(4.68154 -1.20858e-18 2.44383)
(3.58803 1.61836e-19 2.49096)
(4.1134 1.16285e-18 2.70179)
(2.85521 -1.24475e-18 2.71276)
(3.46446 -3.59285e-18 2.97658)
(1.99572 3.05158e-18 2.97137)
(2.71128 -3.01665e-20 3.26371)
(1.7247 4.92521e-18 3.67774)
(9.98814 0 0.0661392)
(9.99816 0 0.0477115)
(9.96065 1.14386e-19 0.105449)
(9.97857 1.20497e-19 0.0925735)
(9.9167 8.01958e-20 0.142559)
(9.94215 5.62342e-20 0.133846)
(9.85816 -1.21696e-19 0.179753)
(9.89126 4.38909e-20 0.174363)
(9.78617 -1.87068e-19 0.218102)
(9.82671 3.0329e-20 0.215788)
(9.70121 -6.04079e-20 0.258276)
(9.74913 -9.55007e-20 0.258854)
(9.60353 1.3789e-19 0.300942)
(9.65907 3.27284e-20 0.304249)
(9.4932 1.20274e-19 0.346779)
(9.55663 6.92148e-20 0.352682)
(9.37009 -5.97671e-20 0.396514)
(9.44171 5.43967e-20 0.404921)
(9.23392 -5.55978e-20 0.45092)
(9.3142 -1.13496e-19 0.461789)
(9.08432 1.02263e-19 0.510793)
(9.17379 1.88912e-20 0.524115)
(8.9208 2.52591e-19 0.576995)
(9.02011 8.22872e-20 0.592773)
(8.74281 -2.02229e-19 0.650481)
(8.85271 1.6893e-19 0.66874)
(8.54968 -1.65103e-19 0.732318)
(8.67104 -3.62373e-19 0.753101)
(8.34067 -2.20791e-19 0.823716)
(8.47445 1.88193e-19 0.847058)
(8.11502 2.49256e-20 0.926009)
(8.26234 -3.9961e-19 0.951975)
(7.87178 4.05307e-19 1.04063)
(8.03396 4.11788e-19 1.06936)
(7.60988 -5.21213e-19 1.16912)
(7.78844 2.65553e-20 1.20083)
(7.32797 3.07394e-20 1.31307)
(7.5249 -5.13044e-19 1.3482)
(7.02443 5.22048e-19 1.47403)
(7.24199 5.29461e-19 1.51328)
(6.69737 0 1.65361)
(6.93805 9.73026e-19 1.69786)
(6.34426 -1.3442e-19 1.85329)
(6.61127 2.00751e-18 1.90396)
(5.96127 -2.70413e-19 2.07423)
(6.25883 -1.03515e-18 2.13361)
(5.54303 8.89769e-21 2.31714)
(5.87651 -9.49042e-19 2.38855)
(5.08176 2.91857e-19 2.58234)
(5.45834 1.2429e-18 2.67041)
(4.56557 2.40448e-18 2.87054)
(4.99527 7.77235e-21 2.98096)
(3.97737 -2.5586e-18 3.18444)
(4.47465 2.38744e-18 3.32282)
(3.28805 -2.49411e-18 3.52096)
(3.87369 -4.67551e-18 3.70409)
(2.50728 2.05153e-18 3.91603)
(3.22624 2.41871e-18 4.08703)
(2.13473 -9.51405e-21 4.70385)
(9.98692 1.22718e-19 0.074995)
(9.99787 0 0.0532716)
(9.95914 6.10468e-20 0.121619)
(9.97771 1.35942e-20 0.104813)
(9.91609 1.96637e-20 0.16632)
(9.94145 -1.11516e-19 0.153552)
(9.85891 1.95672e-19 0.211107)
(9.89173 7.30245e-20 0.20154)
(9.78862 1.1956e-19 0.257213)
(9.82893 7.19908e-22 0.250457)
(9.7058 4.42516e-23 0.305457)
(9.75347 -6.28892e-20 0.301223)
(9.61076 -3.52713e-20 0.356614)
(9.66605 -3.30356e-20 0.354655)
(9.50355 3.04795e-21 0.411477)
(9.56673 3.43734e-20 0.41161)
(9.38406 -2.27728e-21 0.470889)
(9.4554 8.22423e-22 0.472969)
(9.2521 -3.66827e-20 0.535732)
(9.33204 7.54328e-20 0.539645)
(9.10738 0 0.60691)
(9.19646 -3.11813e-19 0.612561)
(8.94957 0 0.685416)
(9.04835 1.61749e-19 0.692699)
(8.77821 0 0.772352)
(8.88741 -1.9198e-19 0.781178)
(8.59278 0 0.868932)
(8.71319 1.76069e-19 0.879224)
(8.39274 0 0.97651)
(8.5252 -1.4391e-21 0.988162)
(8.17752 0 1.09662)
(8.32298 6.0025e-21 1.1095)
(7.94647 2.69593e-20 1.23095)
(8.10602 4.29976e-19 1.24494)
(7.69885 2.66888e-20 1.38137)
(7.87371 -3.8991e-19 1.39638)
(7.43375 4.97179e-22 1.54991)
(7.62541 5.53253e-20 1.56596)
(7.1499 9.85766e-19 1.73861)
(7.36038 -5.63552e-20 1.75598)
(6.84568 2.99414e-18 1.94966)
(7.07723 1.03149e-18 1.96876)
(6.519 1.07513e-18 2.18554)
(6.77436 2.00676e-18 2.20702)
(6.16657 -1.71236e-18 2.44883)
(6.44965 -7.76879e-19 2.47396)
(5.78347 2.97213e-19 2.74216)
(6.09955 -9.41305e-19 2.77293)
(5.36253 9.52382e-19 3.06823)
(5.71901 1.22768e-18 3.10764)
(4.89314 1.8312e-21 3.43009)
(5.30036 -2.1657e-18 3.48225)
(4.3617 2.86515e-19 3.83407)
(4.83423 4.35554e-18 3.9004)
(3.73664 9.2449e-20 4.27211)
(4.28793 1.36758e-19 4.3789)
(3.05633 2.70516e-19 4.76998)
(3.77857 -2.28642e-18 4.826)
(2.59087 8.40311e-20 5.61759)
(9.9864 -1.08908e-19 0.0840386)
(9.99784 0 0.0590502)
(9.95866 -1.61538e-19 0.137595)
(9.97753 -9.36593e-20 0.117044)
(9.9166 -5.45248e-20 0.189562)
(9.94168 -4.17376e-20 0.172823)
(9.86101 -1.23397e-19 0.241702)
(9.89324 2.88479e-20 0.227989)
(9.79277 -1.83012e-19 0.295289)
(9.83244 -6.07699e-20 0.28415)
(9.71253 -9.54417e-20 0.351262)
(9.75954 -1.71712e-22 0.34232)
(9.6206 3.78373e-20 0.41054)
(9.67516 3.23546e-20 0.403475)
(9.51699 3.15483e-20 0.474052)
(9.57941 6.89923e-20 0.468638)
(9.40165 7.97992e-20 0.542734)
(9.47216 -7.11853e-20 0.538763)
(9.27446 -2.06342e-19 0.617548)
(9.35351 1.12852e-19 0.61482)
(9.13525 -1.42221e-19 0.699497)
(9.22339 -3.12054e-19 0.69782)
(8.98378 -3.60065e-20 0.789692)
(9.08153 1.61883e-19 0.788851)
(8.8197 -1.00234e-20 0.889375)
(8.92771 -1.50197e-19 0.889156)
(8.64263 1.71921e-19 0.999886)
(8.76166 1.7623e-19 1.00009)
(8.45215 4.67894e-21 1.12269)
(8.58304 -3.66774e-19 1.1231)
(8.24784 4.42444e-19 1.25948)
(8.39146 -4.7172e-21 1.25981)
(8.02925 1.60727e-21 1.41216)
(8.18658 7.98054e-19 1.41211)
(7.79587 -3.55293e-19 1.58287)
(7.96803 -4.42618e-19 1.5821)
(7.54716 -3.0144e-21 1.774)
(7.73534 5.4837e-20 1.77217)
(7.2823 3.50458e-21 1.98815)
(7.48819 9.43807e-19 1.98507)
(7.00001 5.78086e-20 2.22812)
(7.22565 6.79052e-20 2.22375)
(6.69856 1.26e-19 2.49729)
(6.94645 -9.71386e-21 2.4916)
(6.37547 -7.80692e-21 2.79948)
(6.64914 9.69037e-19 2.79278)
(6.02693 1.95453e-21 3.13898)
(6.33113 1.98917e-18 3.13195)
(5.64728 -1.89893e-18 3.52076)
(5.98866 1.19578e-20 3.51453)
(5.22799 2.15641e-18 3.94935)
(5.61591 -4.0043e-18 3.94686)
(4.76057 4.21459e-18 4.43248)
(5.20902 4.2271e-18 4.4315)
(4.20886 -1.99862e-18 4.95525)
(4.71731 -8.02604e-21 4.99675)
(3.6278 -2.3349e-18 5.52361)
(4.35866 -2.14971e-18 5.4816)
(3.0806 -1.55497e-19 6.4187)
(9.98632 1.35648e-20 0.0930985)
(9.99797 -1.0844e-19 0.064866)
(9.95889 2.72541e-20 0.153298)
(9.97783 -8.586e-20 0.129144)
(9.9179 4.30701e-20 0.212194)
(9.94264 -1.24015e-19 0.191624)
(9.86407 8.97964e-20 0.271376)
(9.89562 5.75757e-20 0.253632)
(9.79823 1.23277e-19 0.332129)
(9.83713 6.03554e-20 0.316698)
(9.72098 1.28279e-19 0.395509)
(9.76718 1.25231e-19 0.38194)
(9.63256 6.41814e-20 0.46259)
(9.6862 6.51215e-20 0.450503)
(9.53301 -3.62387e-20 0.53441)
(9.59439 6.7578e-20 0.523527)
(9.42233 -3.50149e-20 0.611961)
(9.49171 -3.56349e-20 0.602011)
(9.30053 0 0.696266)
(9.37834 -1.47601e-19 0.686968)
(9.16752 0 0.788426)
(9.25429 1.52227e-19 0.779496)
(9.0231 4.26368e-20 0.889659)
(9.11935 0 0.880795)
(8.86707 4.13118e-20 1.00132)
(8.97337 3.54554e-19 0.992205)
(8.69917 -3.711e-19 1.12487)
(8.81627 -6.89961e-19 1.11518)
(8.51914 -3.71151e-19 1.2619)
(8.64783 1.33289e-20 1.25129)
(8.32668 3.62342e-19 1.41424)
(8.4678 3.64361e-19 1.40229)
(8.1215 3.36672e-19 1.58398)
(8.27597 -4.06022e-19 1.57021)
(7.9033 -2.54677e-20 1.77346)
(8.07219 3.73572e-19 1.75734)
(7.67173 1.0128e-18 1.98542)
(7.8562 8.36545e-19 1.96633)
(7.42638 1.00031e-18 2.22292)
(7.62786 9.13514e-20 2.20025)
(7.16649 1.54013e-21 2.48938)
(7.38674 -4.64305e-20 2.4626)
(6.89085 8.3922e-19 2.78901)
(7.13214 -9.71673e-21 2.75744)
(6.59782 2.97121e-18 3.1267)
(6.86322 2.65966e-18 3.08975)
(6.28479 1.99974e-18 3.50802)
(6.57848 9.97539e-20 3.46537)
(5.94799 -2.09033e-18 3.93952)
(6.27554 1.80874e-18 3.89084)
(5.58085 -1.95362e-18 4.42676)
(5.94983 -3.978e-18 4.37424)
(5.17986 3.17451e-20 4.978)
(5.60505 -1.91373e-18 4.9157)
(4.70323 6.26679e-20 5.57132)
(5.16468 1.90241e-18 5.55891)
(4.20787 1.24174e-19 6.18636)
(4.9552 6.31408e-20 6.06482)
(3.59217 8.28401e-21 7.12251)
(9.98653 -2.07534e-19 0.102043)
(9.99819 9.49743e-20 0.0705945)
(9.95969 -2.37945e-19 0.168641)
(9.97845 6.39195e-21 0.140992)
(9.91995 -1.05927e-19 0.234137)
(9.94419 -1.37641e-19 0.209873)
(9.86816 2.81717e-20 0.299998)
(9.89888 -2.81843e-20 0.278334)
(9.80512 6.34966e-20 0.367566)
(9.84301 -1.19232e-19 0.347912)
(9.73122 6.0971e-20 0.438028)
(9.77632 -1.60504e-22 0.419906)
(9.64665 6.85616e-20 0.512571)
(9.69904 6.38765e-20 0.495562)
(9.55156 6.64427e-20 0.592297)
(9.61152 -1.34662e-19 0.576058)
(9.44607 -1.50144e-19 0.678242)
(9.51388 1.39315e-19 0.662434)
(9.33023 9.57621e-21 0.771498)
(9.40634 -1.47738e-19 0.755763)
(9.20402 1.4986e-19 0.873253)
(9.28895 1.5238e-19 0.857231)
(9.06733 3.17622e-19 0.984822)
(9.1615 -3.1628e-19 0.96813)
(8.92006 -3.9283e-19 1.10765)
(9.02404 6.79116e-19 1.08987)
(8.76211 -2.95361e-19 1.24329)
(8.87663 -7.33102e-19 1.22398)
(8.59339 7.54572e-19 1.39348)
(8.71916 3.57415e-19 1.37215)
(8.41371 -4.14749e-19 1.56018)
(8.55153 7.43426e-19 1.53628)
(8.22297 -3.60021e-19 1.74561)
(8.37372 -3.90563e-19 1.7185)
(8.02109 1.242e-18 1.95235)
(8.18574 -3.80451e-19 1.92129)
(7.80792 -9.15889e-20 2.18339)
(7.98763 1.65179e-18 2.14751)
(7.58332 -9.57222e-19 2.4422)
(7.77942 -1.74799e-18 2.40055)
(7.34705 -5.53933e-20 2.73279)
(7.5611 -4.92866e-20 2.68435)
(7.09858 1.82845e-18 3.06)
(7.33257 0 3.00353)
(6.83713 -2.14307e-19 3.42965)
(7.09363 1.86927e-18 3.36377)
(6.56127 -8.10065e-20 3.84848)
(6.84383 -2.01812e-18 3.77192)
(6.26893 -5.80786e-20 4.32402)
(6.58232 1.92592e-18 4.23555)
(5.95514 -3.93881e-18 4.86237)
(6.30476 -1.88397e-18 4.76416)
(5.6201 -2.10154e-20 5.47261)
(6.02376 -1.93991e-18 5.35454)
(5.21657 1.9174e-18 6.12725)
(5.63129 1.68197e-18 6.06916)
(4.78887 -5.53706e-20 6.77732)
(5.56096 0 6.59094)
(4.11976 3.6482e-18 7.75276)
(9.98691 3.0738e-19 0.110764)
(9.99843 3.04315e-19 0.0761626)
(9.96093 1.03854e-19 0.183513)
(9.97923 1.31947e-19 0.152477)
(9.92273 -5.7718e-20 0.255261)
(9.94623 8.255e-20 0.227438)
(9.87328 -1.7744e-19 0.327408)
(9.90298 -5.65401e-20 0.301958)
(9.81328 -1.80738e-19 0.401429)
(9.84991 -1.78708e-19 0.377673)
(9.74297 3.89588e-21 0.478649)
(9.78659 -6.29015e-20 0.45609)
(9.66257 -1.42873e-19 0.560288)
(9.71328 1.92489e-19 0.53849)
(9.57235 -5.71662e-20 0.647466)
(9.63042 -3.35341e-19 0.626017)
(9.47254 1.3707e-19 0.741281)
(9.53824 2.0855e-19 0.719758)
(9.36322 0 0.842911)
(9.43704 -1.44626e-19 0.820887)
(9.24438 -3.21432e-19 0.953621)
(9.32683 7.32588e-20 0.930689)
(9.11601 6.0311e-20 1.07478)
(9.20749 -8.46156e-20 1.05049)
(8.97819 3.1804e-19 1.2079)
(9.07919 6.10019e-19 1.18173)
(8.83096 -6.41877e-20 1.35464)
(8.94216 -3.74771e-19 1.32601)
(8.67434 3.51295e-19 1.51686)
(8.7964 -6.52618e-20 1.48516)
(8.50831 7.53563e-19 1.69661)
(8.64199 3.68401e-19 1.66117)
(8.33298 -4.09541e-19 1.89628)
(8.47907 4.0826e-19 1.85629)
(8.14848 5.20378e-20 2.11862)
(8.30789 -7.81676e-19 2.07311)
(7.95496 -3.87802e-20 2.36688)
(8.12874 8.15133e-19 2.31474)
(7.7526 -8.23509e-19 2.64484)
(7.94198 -8.07225e-19 2.58481)
(7.54156 6.59208e-21 2.95702)
(7.74798 1.23164e-22 2.88762)
(7.32197 5.33879e-20 3.30887)
(7.54717 -2.60414e-20 3.22833)
(7.09392 5.28912e-20 3.70691)
(7.34008 3.78798e-21 3.61323)
(6.85718 0 4.15888)
(7.12714 -5.30015e-20 4.04993)
(6.61103 1.1147e-19 4.67345)
(6.9091 1.70941e-18 4.54704)
(6.35157 1.12225e-19 5.25708)
(6.68118 -1.70507e-18 5.11595)
(6.08093 -2.10503e-19 5.92025)
(6.46523 0 5.74998)
(5.74827 -2.14064e-19 6.63237)
(6.11991 -6.65895e-21 6.53175)
(5.37136 3.9434e-18 7.31957)
(6.1753 0 7.07645)
(4.66618 2.03292e-19 8.33926)
(9.98732 1.257e-19 0.119191)
(9.99867 -3.02079e-19 0.0815555)
(9.96242 1.09696e-19 0.197792)
(9.9801 -1.55993e-19 0.163501)
(9.92609 8.10181e-20 0.275434)
(9.94868 -5.34189e-20 0.244168)
(9.8792 -6.0154e-20 0.353505)
(9.90785 1.13782e-19 0.3244)
(9.82232 -5.86554e-20 0.43363)
(9.85767 -5.94398e-20 0.405937)
(9.75577 1.30337e-19 0.517244)
(9.79782 -3.40485e-22 0.490417)
(9.67983 -9.0881e-21 0.605554)
(9.72873 1.28437e-19 0.579133)
(9.59487 -6.04121e-20 0.699676)
(9.6509 -6.70989e-20 0.673196)
(9.50117 -7.90645e-20 0.800785)
(9.56459 -6.80686e-20 0.77374)
(9.39886 -6.79585e-20 0.910168)
(9.47007 -1.76943e-21 0.882054)
(9.28796 3.07912e-19 1.02915)
(9.36746 -1.48049e-19 0.999527)
(9.16855 4.75901e-19 1.15912)
(9.25679 4.63255e-19 1.12749)
(9.04083 -9.72765e-20 1.30161)
(9.13828 4.63775e-20 1.26735)
(8.90501 -3.71802e-19 1.4584)
(9.01222 -2.50764e-19 1.42081)
(8.76123 -4.25539e-20 1.63145)
(8.87882 -4.38205e-22 1.5898)
(8.60968 2.33236e-20 1.82289)
(8.73835 3.52449e-19 1.77638)
(8.45066 2.27707e-20 2.03523)
(8.59115 3.21413e-19 1.98288)
(8.28455 -3.91622e-22 2.27136)
(8.43767 -7.87864e-19 2.21202)
(8.11183 3.13443e-20 2.53475)
(8.27849 -3.87958e-22 2.46703)
(7.93306 2.46045e-20 2.82952)
(8.11435 7.89702e-19 2.75181)
(7.74885 -3.27131e-20 3.16055)
(7.94605 -5.32931e-20 3.071)
(7.55997 -7.55493e-20 3.53381)
(7.77456 7.05834e-19 3.43011)
(7.3673 -1.02428e-19 3.95652)
(7.60121 -9.821e-20 3.83603)
(7.17174 1.65597e-18 4.43725)
(7.42728 -1.4188e-21 4.2971)
(6.97378 -8.62412e-20 4.98615)
(7.25489 1.13261e-19 4.823)
(6.77018 -1.82858e-18 5.61073)
(7.07881 -2.26847e-19 5.42765)
(6.5632 2.03373e-19 6.32426)
(6.92961 -1.4969e-18 6.10231)
(6.30205 2.0616e-19 7.09557)
(6.63603 1.69108e-18 6.94825)
(5.96595 -3.71024e-18 7.83834)
(6.80514 6.75436e-19 7.53587)
(5.24572 -3.61413e-18 8.91725)
(9.98782 -5.81315e-19 0.127267)
(9.99894 -4.0237e-19 0.0867398)
(9.96419 -3.1704e-19 0.211363)
(9.98114 5.16038e-20 0.173974)
(9.93004 -1.7439e-20 0.294531)
(9.95152 5.343e-20 0.25993)
(9.88592 1.11279e-19 0.378218)
(9.91328 1.69797e-19 0.34556)
(9.8323 0 0.464116)
(9.86617 -5.83547e-20 0.43264)
(9.7697 0 0.553698)
(9.81 0 0.522788)
(9.69855 6.70656e-20 0.648184)
(9.74542 0 0.617318)
(9.61921 -7.47355e-20 0.748716)
(9.673 1.30908e-19 0.717389)
(9.53195 1.03161e-20 0.856533)
(9.59286 -1.52255e-21 0.824197)
(9.43695 -8.40695e-20 0.973006)
(9.5053 7.30101e-20 0.939091)
(9.3344 1.63629e-20 1.09952)
(9.41056 -2.21688e-19 1.0635)
(9.22447 2.74909e-20 1.23746)
(9.30897 2.31255e-19 1.1988)
(9.10743 -1.11361e-19 1.38838)
(9.20076 -2.76183e-19 1.34638)
(8.98358 1.24462e-19 1.55413)
(9.08617 -3.86074e-20 1.50799)
(8.85327 3.99429e-19 1.73673)
(8.96569 4.27853e-20 1.68562)
(8.71692 6.51258e-19 1.93841)
(8.83979 3.53157e-19 1.88137)
(8.57504 -5.00683e-19 2.16172)
(8.70901 2.558e-19 2.09764)
(8.42823 -7.81044e-19 2.40971)
(8.57405 -7.4406e-19 2.33724)
(8.27732 7.65541e-19 2.68599)
(8.4357 7.4176e-19 2.6035)
(8.12332 7.08991e-19 2.99494)
(8.2951 -8.61408e-20 2.90047)
(7.96733 6.92672e-19 3.34177)
(8.1537 -8.5794e-19 3.23306)
(7.81084 6.8161e-19 3.73284)
(8.01301 5.9948e-20 3.60709)
(7.65559 2.78329e-21 4.17607)
(7.87513 -1.41468e-19 4.02988)
(7.5034 -1.54562e-18 4.68098)
(7.74237 -1.37085e-19 4.51064)
(7.35603 -3.01545e-20 5.25938)
(7.61817 -4.83262e-19 5.06016)
(7.21118 1.19643e-19 5.92107)
(7.49737 -2.39292e-19 5.69534)
(7.0696 7.04752e-20 6.68454)
(7.41803 -1.5013e-18 6.40831)
(6.88602 2.16327e-18 7.52143)
(7.18811 1.48848e-18 7.31451)
(6.59456 4.65763e-19 8.35835)
(7.46537 -5.76734e-19 7.97729)
(5.88763 1.47918e-19 9.52394)
(9.98845 2.39022e-19 0.134929)
(9.99925 2.12807e-19 0.0916548)
(9.96625 4.2246e-19 0.224135)
(9.98244 2.21234e-19 0.183831)
(9.93436 2.43022e-19 0.312461)
(9.95462 1.08558e-19 0.274679)
(9.89315 -4.20308e-21 0.401455)
(9.91894 8.44562e-20 0.365375)
(9.84303 -5.73259e-20 0.492776)
(9.8751 -1.16352e-19 0.457667)
(9.78469 0 0.587869)
(9.82291 -1.20246e-19 0.553049)
(9.71866 6.6079e-20 0.688011)
(9.76315 -6.71137e-22 0.652873)
(9.64527 2.02073e-19 0.794419)
(9.69638 1.94397e-19 0.758432)
(9.56471 6.24305e-20 0.908375)
(9.62269 -2.00324e-19 0.870975)
(9.47729 -6.91675e-20 1.03127)
(9.54239 1.3836e-19 0.991845)
(9.38335 0 1.16451)
(9.45587 -7.17431e-20 1.12245)
(9.28327 -7.96676e-20 1.30951)
(9.36367 2.24695e-19 1.26417)
(9.17735 -2.00151e-19 1.46786)
(9.26605 -3.08638e-19 1.41851)
(9.06597 -1.19471e-19 1.64142)
(9.16337 2.76779e-19 1.58721)
(8.94969 0 1.83225)
(9.0563 -3.25551e-19 1.77222)
(8.82915 -4.37603e-20 2.04261)
(8.94548 5.89718e-19 1.97566)
(8.70509 3.26565e-21 2.27514)
(8.83164 4.67265e-20 2.20001)
(8.57834 7.94579e-19 2.53293)
(8.71579 4.84134e-20 2.44814)
(8.45003 -1.14913e-19 2.81968)
(8.59898 -6.89883e-19 2.72339)
(8.32174 -1.65973e-18 3.13991)
(8.48268 6.02229e-20 3.0298)
(8.19523 -1.48997e-18 3.49911)
(8.36909 -9.02519e-19 3.37246)
(8.07262 -7.67192e-19 3.90395)
(8.26043 -1.24142e-19 3.75745)
(7.95663 -2.81915e-19 4.36292)
(8.15954 -6.43129e-19 4.19238)
(7.8502 9.29193e-19 4.88665)
(8.0699 -3.61068e-19 4.68722)
(7.75651 -6.91209e-19 5.48882)
(7.9967 1.48699e-18 5.25394)
(7.6753 -1.85641e-18 6.18284)
(7.93603 -1.4982e-18 5.91235)
(7.60504 0 6.99484)
(7.93192 0 6.65949)
(7.51371 -1.25071e-18 7.90567)
(7.78724 5.66236e-19 7.61724)
(7.29373 -8.35155e-19 8.89986)
(8.17961 -6.6802e-19 8.39429)
(6.63963 -8.46077e-20 10.1965)
(9.98924 1.95218e-19 0.142118)
(9.99958 1.99805e-19 0.0962387)
(9.96854 -9.50357e-20 0.236084)
(9.98401 2.04669e-19 0.193032)
(9.93883 -5.05965e-20 0.329205)
(9.95796 -8.08016e-20 0.288452)
(9.90055 -3.15303e-20 0.423135)
(9.92476 8.36728e-20 0.383834)
(9.85418 -1.79394e-19 0.51946)
(9.88437 -5.7795e-20 0.480902)
(9.80038 -1.18906e-19 0.61958)
(9.83646 -6.01411e-20 0.581046)
(9.73971 1.30969e-19 0.724858)
(9.7817 -1.25017e-19 0.685676)
(9.67246 -2.14559e-19 0.836598)
(9.72072 2.57628e-19 0.796202)
(9.59893 -1.19323e-19 0.956098)
(9.65367 -2.04196e-19 0.913901)
(9.51946 1.32778e-19 1.08473)
(9.58091 2.08919e-19 1.04009)
(9.4345 1.57361e-19 1.22388)
(9.50297 -2.8561e-19 1.17614)
(9.34455 -1.13815e-20 1.375)
(9.42046 2.9707e-19 1.32344)
(9.25005 1.76289e-19 1.53973)
(9.33365 -4.77049e-21 1.48353)
(9.15153 6.37763e-20 1.71991)
(9.24319 8.64176e-20 1.65818)
(9.04972 2.75041e-19 1.91756)
(9.14986 -8.66026e-20 1.84925)
(8.94542 6.76303e-19 2.13499)
(9.05443 6.7367e-19 2.05891)
(8.8396 9.32895e-20 2.37486)
(8.95786 9.02356e-20 2.2896)
(8.73347 -1.44333e-18 2.64029)
(8.86142 2.71091e-21 2.54418)
(8.62842 -5.11577e-19 2.9349)
(8.76667 -1.43806e-18 2.82601)
(8.52652 8.16721e-19 3.26325)
(8.6753 8.23364e-19 3.13894)
(8.43037 4.66596e-19 3.63097)
(8.59004 8.9655e-20 3.48801)
(8.34284 4.85627e-21 4.04496)
(8.51413 3.23809e-20 3.8795)
(8.26766 -7.24947e-19 4.51406)
(8.45126 -1.23539e-18 4.32109)
(8.20931 1.8506e-19 5.04984)
(8.4062 1.88942e-18 4.82308)
(8.17291 7.06746e-19 5.66779)
(8.38646 6.84646e-19 5.39829)
(8.16208 3.49685e-19 6.38575)
(8.39125 3.4778e-19 6.06843)
(8.17498 5.64457e-19 7.23837)
(8.46955 0 6.83837)
(8.20283 1.14388e-18 8.22455)
(8.4419 1.00223e-18 7.82559)
(8.11873 1.31739e-19 9.46963)
(8.97626 -1.34637e-18 8.74579)
(7.56949 -2.0264e-19 10.9676)
(9.99015 2.09346e-19 0.148783)
(9.99993 -1.2626e-20 0.100439)
(9.97109 2.13282e-19 0.247199)
(9.98572 6.07151e-19 0.201529)
(9.94357 5.66716e-20 0.344774)
(9.96153 5.01726e-20 0.301245)
(9.90831 5.47388e-20 0.443207)
(9.93095 4.66776e-21 0.400898)
(9.86588 6.14944e-20 0.544064)
(9.8942 2.07025e-22 0.502244)
(9.81682 -6.73261e-20 0.648736)
(9.85077 -1.62669e-19 0.606694)
(9.7616 7.93854e-21 0.758648)
(9.80116 -1.27285e-19 0.715679)
(9.70063 2.60858e-19 0.875161)
(9.74609 1.29995e-19 0.830649)
(9.63428 1.30606e-19 0.99957)
(9.68586 -1.1335e-19 0.952892)
(9.56301 -2.17083e-19 1.13322)
(9.62083 0 1.0837)
(9.48732 -1.38035e-19 1.27748)
(9.55177 -2.1816e-19 1.22443)
(9.40775 2.99729e-19 1.43381)
(9.47922 -6.24329e-20 1.37646)
(9.3249 -9.35104e-20 1.60385)
(9.40353 2.30376e-19 1.54135)
(9.23947 -6.64468e-20 1.78942)
(9.32564 -3.18807e-19 1.72079)
(9.15233 3.20804e-19 1.9925)
(9.2463 3.19257e-19 1.91664)
(9.06448 8.18233e-20 2.21539)
(9.16646 8.43291e-20 2.13101)
(8.97711 0 2.46068)
(9.0875 6.18264e-19 2.3663)
(8.89184 0 2.73146)
(9.01075 -7.83411e-19 2.62522)
(8.81051 -8.93752e-20 3.03125)
(8.93838 0 2.91106)
(8.73547 9.11821e-20 3.36439)
(8.87253 5.48072e-19 3.2275)
(8.67001 -3.46525e-19 3.73645)
(8.81607 -6.18792e-19 3.57924)
(8.61807 -1.21143e-18 4.15435)
(8.7732 -5.35268e-19 3.97242)
(8.58449 1.36637e-18 4.62698)
(8.74881 -6.99138e-19 4.41454)
(8.5757 2.40019e-18 5.16607)
(8.74908 2.10159e-18 4.9154)
(8.59959 3.2697e-19 5.78806)
(8.78418 6.0209e-19 5.48766)
(8.66599 0 6.514)
(8.85812 -2.19506e-18 6.15205)
(8.77802 4.45676e-19 7.38355)
(9.02442 1.052e-18 6.91961)
(8.96146 -1.07644e-18 8.41948)
(9.14754 8.72239e-19 7.88672)
(9.14369 -1.62061e-18 10.0483)
(9.94802 -1.09456e-18 8.88538)
(9.79134 3.59942e-19 11.742)
(0.0429768 -2.07929e-21 -0.0380462)
(0.0278645 -6.0968e-21 -0.0351954)
(0.161987 4.71384e-22 -0.0549331)
(0.080206 0 -0.0881859)
(0.317892 1.12599e-21 -0.0512785)
(0.220675 2.70045e-21 -0.099918)
(0.46201 5.83007e-22 -0.0363716)
(0.375639 -6.27479e-21 -0.0819867)
(0.56311 -3.57916e-21 -0.0196025)
(0.506867 1.47869e-21 -0.053155)
(0.615341 -1.64778e-21 -0.00653034)
(0.593364 -5.33449e-22 -0.0265451)
(0.630842 -4.85969e-22 0.0013892)
(0.635764 2.892e-21 -0.00786532)
(0.62594 6.42968e-23 0.0050343)
(0.647497 -3.3472e-21 0.00263586)
(0.612821 2.27518e-22 0.00600797)
(0.642959 8.83425e-22 0.00719184)
(0.59804 -1.38166e-21 0.00569147)
(0.632088 -3.37824e-23 0.00838554)
(0.58437 -7.41762e-22 0.00500318)
(0.619871 1.46983e-21 0.0080194)
(0.572256 1.843e-21 0.0046577)
(0.608177 0 0.00732429)
(0.559924 9.55264e-22 0.0051228)
(0.596756 4.65653e-21 0.00761472)
(0.54481 -9.26466e-22 0.00608021)
(0.583938 -2.77909e-21 0.00943047)
(0.526891 0 0.00661616)
(0.568168 -1.97464e-21 0.0112701)
(0.509084 -9.7563e-22 0.00656978)
(0.550304 1.95291e-21 0.0112932)
(0.492474 -9.82814e-22 0.00706104)
(0.532657 -5.35402e-23 0.0106081)
(0.473322 0 0.00894828)
(0.515446 0 0.0122588)
(0.447375 -8.52218e-22 0.0112673)
(0.495462 -8.90093e-22 0.0166057)
(0.415872 -8.59723e-22 0.011851)
(0.469377 8.4527e-22 0.0201748)
(0.38615 0 0.00916252)
(0.439048 3.73306e-22 0.0190724)
(0.367754 0 0.00327929)
(0.411559 -1.77611e-21 0.01187)
(0.36782 -5.72262e-22 -0.00449698)
(0.393698 -2.83259e-22 7.18913e-05)
(0.388235 -9.28419e-22 -0.0123704)
(0.386923 -6.02512e-22 -0.0129993)
(0.426185 -2.33513e-23 -0.0191582)
(0.393937 2.81996e-22 -0.0243359)
(0.479121 3.15354e-22 -0.0254905)
(0.416897 -1.63785e-22 -0.0340886)
(0.54861 -1.67895e-22 -0.0328757)
(0.453714 -8.5902e-23 -0.0449166)
(0.638339 -1.33244e-22 -0.041662)
(0.506407 1.13196e-22 -0.0582148)
(0.750732 6.71863e-24 -0.0500892)
(0.580926 1.51254e-22 -0.0732297)
(0.701682 3.20532e-23 -0.0846557)
(0.0320506 -4.96375e-21 -0.0912099)
(0.0249369 -4.82439e-21 -0.0706717)
(0.134606 2.68783e-21 -0.143019)
(0.0481039 -4.76313e-21 -0.167986)
(0.28615 -1.35344e-20 -0.142679)
(0.176289 7.18363e-21 -0.195769)
(0.436094 9.69436e-21 -0.109253)
(0.318448 -4.05635e-21 -0.163467)
(0.551212 1.55203e-21 -0.0676602)
(0.443313 9.59071e-22 -0.109819)
(0.621373 2.62418e-21 -0.0327764)
(0.52954 3.35528e-21 -0.059432)
(0.654537 7.57057e-22 -0.00961685)
(0.574919 -2.2403e-22 -0.0231843)
(0.664384 -2.4585e-21 0.00295238)
(0.59004 -2.45837e-21 -0.00184256)
(0.662066 6.40946e-22 0.00835135)
(0.586856 -1.06907e-21 0.00849441)
(0.654147 2.89705e-21 0.0097793)