/*--------------------------------*- C++ -*----------------------------------*\
| =========                 |                                                 |
| \\      /  F ield         | OpenFOAM: The Open Source CFD Toolbox           |
|  \\    /   O peration     | Version:  dev                                   |
|   \\  /    A nd           | Web:      www.OpenFOAM.org                      |
|    \\/     M anipulation  |                                                 |
\*---------------------------------------------------------------------------*/
FoamFile
{
    version     2.0;
    format      ascii;
    class       volVectorField;
    location    "0.7";
    object      U;
}
// * * * * * * * * * * * * * * * * * * * * * * * * * * * * * * * * * * * * * //

dimensions      [0 1 -1 0 0 0 0];

internalField   nonuniform List<vector> 
465
(
(6.3601 1.24065e-20 5.92313)
(6.50215 0 5.7673)
(7.41968 -3.12622e-21 5.76449)
(7.58709 8.54464e-21 5.63327)
(7.74367 3.66553e-21 5.43257)
(7.88292 -5.90141e-20 5.16188)
(8.59975 1.97069e-21 5.62552)
(8.71616 -7.25004e-21 5.48466)
(8.85942 2.96416e-20 5.29157)
(9.00949 2.96252e-20 5.03696)
(9.15341 4.17363e-20 4.71646)
(10.0592 -1.00278e-21 5.61026)
(10.0481 0 5.40562)
(10.1031 0 5.17968)
(10.1996 -1.79322e-21 4.91454)
(10.3165 1.8475e-21 4.59843)
(10.4373 -3.99776e-20 4.22471)
(10.5487 -2.50808e-21 3.79082)
(11.7853 1.9387e-20 5.75241)
(11.6534 -1.16627e-20 5.46022)
(11.5931 0 5.16831)
(11.5916 2.23181e-20 4.86011)
(11.6323 -2.86255e-20 4.52162)
(11.6979 -3.24975e-20 4.14256)
(11.7721 0 3.71693)
(11.8401 -1.94136e-20 3.24321)
(11.8883 -6.27746e-20 2.72458)
(13.5575 6.79985e-21 5.9682)
(13.393 1.03645e-20 5.61343)
(13.2722 1.83688e-20 5.26064)
(13.1971 -6.2047e-20 4.90079)
(13.1629 2.2158e-20 4.52417)
(13.1604 0 4.12202)
(13.1779 0 3.68793)
(13.2025 3.47813e-20 3.21891)
(13.2219 -3.43506e-20 2.71607)
(13.225 0 2.18493)
(15.123 -2.72022e-21 6.14126)
(15.0194 -1.35321e-20 5.76659)
(14.9247 2.6479e-20 5.38404)
(14.8476 -1.48592e-20 4.99113)
(14.7924 2.25009e-20 4.58377)
(14.7584 -4.7871e-20 4.1574)
(14.7414 2.53341e-20 3.70801)
(14.7349 0 3.23339)
(14.731 0 2.73398)
(14.7224 0 2.21328)
(14.7037 -1.33088e-19 1.67755)
(14.6731 9.66448e-20 1.13435)
(16.3295 6.49816e-21 6.19589)
(16.3387 -4.8127e-21 5.8359)
(16.3315 -3.23215e-21 5.45572)
(16.3171 0 5.05669)
(16.3025 3.70521e-20 4.6387)
(16.2916 -3.65663e-20 4.20088)
(16.2855 0 3.74223)
(16.2831 0 3.26233)
(16.2815 5.03743e-20 2.76218)
(16.2775 -5.30164e-20 2.24462)
(16.2686 1.15656e-19 1.7141)
(16.2534 -6.11842e-20 1.17576)
(16.2336 0 0.633869)
(17.1383 2.57885e-22 6.10768)
(17.2684 -6.25761e-21 5.78235)
(17.3696 1.55429e-20 5.42671)
(17.4486 -1.51493e-20 5.04363)
(17.5111 2.87991e-20 4.6351)
(17.5616 -2.84081e-20 4.20254)
(17.6033 3.9444e-20 3.74716)
(17.6376 4.55959e-21 3.2703)
(17.6644 -9.15714e-20 2.77398)
(17.6831 9.97822e-20 2.26128)
(17.6927 -1.4608e-19 1.73627)
(17.6923 -4.59074e-20 1.20363)
(17.6814 0 0.668084)
(17.6556 0 0.134429)
(17.6058 4.5696e-20 -0.388742)
(17.5877 3.49211e-21 5.88885)
(17.8185 -1.58917e-21 5.60549)
(18.018 -4.23506e-22 5.28561)
(18.1893 -1.82587e-20 4.93216)
(18.3353 1.42458e-20 4.54774)
(18.4592 9.74064e-21 4.13479)
(18.5634 0 3.69575)
(18.6495 0 3.23319)
(18.7181 0 2.75012)
(18.7692 -3.48846e-20 2.25023)
(18.8023 -3.34331e-20 1.73806)
(18.8159 1.22012e-19 1.21889)
(18.8085 3.69487e-20 0.698914)
(18.7751 3.55631e-20 0.18505)
(18.7055 3.29116e-20 -0.313389)
(18.5981 -5.15041e-21 -0.784608)
(17.7544 -3.41425e-21 5.57131)
(18.0532 -1.61256e-21 5.32858)
(18.3244 -1.06746e-21 5.04719)
(18.5676 3.70138e-21 4.72931)
(18.7831 3.12498e-21 4.37731)
(18.9716 -3.69047e-21 3.99377)
(19.1338 0 3.58154)
(19.27 0 3.14383)
(19.3802 -5.27872e-20 2.68431)
(19.4639 3.60575e-20 2.20734)
(19.52 3.11353e-21 1.71807)
(19.5466 -4.15579e-21 1.2226)
(19.5416 -3.58348e-20 0.728363)
(19.502 -3.44893e-20 0.243847)
(19.4178 -3.19616e-20 -0.222005)
(19.2902 1.95302e-20 -0.658998)
(19.1177 -5.37202e-21 -1.05587)
(18.9005 2.31952e-20 -1.40065)
(17.7241 5.12234e-20 5.19269)
(18.0578 -1.47894e-21 4.98478)
(18.3698 1.06519e-20 4.73925)
(18.6575 -8.93716e-21 4.45732)
(18.919 -3.05366e-21 4.14073)
(19.1527 1.44336e-20 3.79169)
(19.3575 -4.84417e-20 3.41298)
(19.532 2.82449e-20 3.00791)
(19.6751 1.51651e-20 2.58047)
(19.7851 2.57396e-20 2.13536)
(19.8603 0 1.67821)
(19.8986 -2.17249e-20 1.21558)
(19.8976 2.20884e-20 0.755364)
(19.8559 2.16694e-20 0.306787)
(19.7673 -2.19813e-20 -0.121822)
(19.6325 -1.99531e-20 -0.521846)
(19.4524 3.98326e-20 -0.883794)
(19.2293 -5.87216e-20 -1.1976)
(18.9682 -2.43e-20 -1.45345)
(17.5726 7.34717e-21 4.78654)
(17.9145 4.49078e-21 4.60655)
(18.2406 2.94953e-21 4.39195)
(18.547 1.01073e-20 4.14318)
(18.8305 -1.28862e-20 3.86131)
(19.088 0 3.54807)
(19.3169 1.12187e-21 3.20587)
(19.5145 0 2.83783)
(19.6784 3.25276e-21 2.44784)
(19.8061 -4.36556e-20 2.04065)
(19.8953 3.14222e-20 1.62194)
(19.9438 2.11946e-20 1.19829)
(19.9494 -2.15381e-20 0.777432)
(19.911 -5.28307e-21 0.368281)
(19.8268 0 -0.0213365)
(19.6967 1.80372e-20 -0.383925)
(19.523 3.69737e-20 -0.711607)
(19.3091 1.31642e-20 -0.996039)
(19.0605 0 -1.22919)
(18.7873 -1.00117e-20 -1.40411)
(17.3564 6.05591e-20 4.37717)
(17.6891 -6.86111e-21 4.21927)
(18.0103 0 4.03058)
(18.3161 -1.57257e-20 3.81107)
(18.6025 9.13698e-21 3.56133)
(18.8659 2.01975e-20 3.28265)
(19.1027 -6.86278e-21 2.97703)
(19.3095 -8.77545e-21 2.64724)
(19.483 2.76791e-20 2.29686)
(19.6202 -2.19226e-20 1.93032)
(19.7185 1.88986e-20 1.55299)
(19.7756 -9.44002e-21 1.17108)
(19.7896 1.29358e-20 0.791779)
(19.7597 -1.5381e-20 0.423094)
(19.6863 -2.0672e-21 0.0722327)
(19.5695 1.10213e-20 -0.254081)
(19.412 -3.461e-20 -0.54919)
(19.2177 0 -0.806184)
(18.9918 -2.71477e-21 -1.01848)
(18.7433 1.16548e-20 -1.18055)
(18.4067 7.96603e-22 -1.29001)
(17.1122 0 3.97899)
(17.4265 6.73677e-21 3.83912)
(17.7321 0 3.67232)
(18.0255 2.00403e-20 3.47838)
(18.3026 -4.92693e-20 3.25764)
(18.5597 2.41244e-20 3.01105)
(18.793 0 2.74026)
(18.9988 2.46241e-21 2.44766)
(19.1736 3.52578e-21 2.1364)
(19.314 -1.17158e-20 1.81043)
(19.4175 2.29681e-20 1.47452)
(19.4817 -1.71624e-20 1.13433)
(19.505 8.6639e-21 0.796242)
(19.4867 -6.47131e-21 0.467136)
(19.4281 -1.03824e-20 0.153587)
(19.3296 0 -0.138392)
(19.1938 0 -0.403061)
(19.0245 0 -0.634614)
(18.8267 -7.93968e-21 -0.82759)
(18.608 0 -0.977454)
(18.3105 2.90658e-21 -1.08229)
(16.8606 0 3.59867)
(17.1531 0 3.47425)
(17.4388 0 3.32651)
(17.7142 -9.66119e-22 3.15518)
(17.976 -8.0856e-21 2.96049)
(18.2204 0 2.74318)
(18.4438 0 2.50463)
(18.6427 -1.38424e-20 2.24686)
(18.8135 5.45042e-21 1.97259)
(18.9533 3.93622e-21 1.68522)
(19.0592 -2.83641e-21 1.3889)
(19.1292 5.93733e-21 1.08856)
(19.1617 6.00718e-21 0.789694)
(19.1562 1.18385e-21 0.498116)
(19.1135 0 0.219752)
(19.0354 -3.64098e-21 -0.0402442)
(18.9233 0 -0.276656)
(18.7809 0 -0.484586)
(18.6126 6.41245e-21 -0.659451)
(18.4248 1.33355e-21 -0.797423)
(18.1676 -7.19618e-22 -0.896761)
(16.6123 1.02038e-20 3.23807)
(16.8831 9.03318e-21 3.12751)
(17.148 0 2.99684)
(17.4043 6.01036e-21 2.84583)
(17.6487 -3.98716e-20 2.67466)
(17.8781 3.9171e-20 2.48395)
(18.0891 -7.95419e-21 2.27485)
(18.2784 1.91633e-20 2.04906)
(18.443 -1.39936e-20 1.80889)
(18.5799 -7.01507e-21 1.55725)
(18.6866 1.57128e-20 1.29768)
(18.7612 -8.88218e-21 1.03435)
(18.8022 5.77079e-21 0.771893)
(18.8093 -3.79378e-21 0.515239)
(18.7826 -6.68237e-22 0.269448)
(18.7244 3.56186e-21 0.0391327)
(18.6356 0 -0.171074)
(18.5194 0 -0.35697)
(18.3796 3.49377e-21 -0.514676)
(18.2215 1.29731e-21 -0.640898)
(18.0027 -2.07306e-21 -0.733948)
(16.3728 -8.88786e-20 2.89664)
(16.6233 -1.45783e-21 2.79883)
(16.8687 7.70475e-20 2.68376)
(17.1066 -5.32415e-20 2.55126)
(17.3341 1.31715e-20 2.40146)
(17.5485 -4.64579e-21 2.23492)
(17.7468 3.61254e-20 2.05259)
(17.9261 -7.76499e-21 1.85591)
(18.0837 -4.76413e-21 1.64684)
(18.2169 5.02832e-21 1.42781)
(18.3235 8.55576e-21 1.20182)
(18.4017 -7.88068e-21 0.972338)
(18.4503 -1.37258e-21 0.743247)
(18.4688 -1.96252e-22 0.518706)
(18.4572 6.53155e-22 0.302981)
(18.4173 0 0.100164)
(18.3499 -2.21978e-22 -0.085717)
(18.2578 0 -0.251008)
(18.1441 -2.61452e-21 -0.392374)
(18.0134 -2.37324e-21 -0.506956)
(17.8301 3.11022e-22 -0.593118)
(16.1451 8.87104e-20 2.57283)
(16.3774 9.82735e-21 2.48688)
(16.6051 -8.26053e-21 2.3862)
(16.8262 0 2.27066)
(17.0382 6.1476e-22 2.1404)
(17.2387 1.08326e-20 1.99585)
(17.4252 9.15826e-21 1.83786)
(17.595 -2.31267e-20 1.66761)
(17.7458 3.02244e-20 1.48676)
(17.8752 -2.53314e-20 1.29734)
(17.9813 4.00585e-21 1.10184)
(18.0625 1.17922e-20 0.903139)
(18.1176 0 0.704469)
(18.146 0 0.509304)
(18.1478 0 0.321236)
(18.1241 2.69464e-21 0.143875)
(18.076 -2.43411e-21 -0.0193746)
(18.0054 3.05795e-22 -0.165319)
(17.9152 -3.01073e-22 -0.291079)
(17.809 2.57358e-22 -0.394159)
(17.6575 0 -0.473001)
(15.9317 8.38403e-20 2.26478)
(16.1478 -1.57621e-19 2.18993)
(16.3598 7.43949e-20 2.1026)
(16.566 0 2.00268)
(16.7642 4.68693e-20 1.8903)
(16.9523 -5.26929e-20 1.76585)
(17.1281 -2.93913e-20 1.63001)
(17.2893 7.49166e-20 1.48379)
(17.4339 -3.43063e-20 1.32855)
(17.5597 7.17525e-21 1.16599)
(17.6652 -6.01132e-21 0.998174)
(17.7487 3.95136e-21 0.827469)
(17.8092 0 0.656536)
(17.8462 -9.99056e-21 0.488269)
(17.8597 4.83187e-21 0.325689)
(17.85 -3.79984e-21 0.171891)
(17.8188 -2.77247e-21 0.0297542)
(17.7671 1.91397e-21 -0.0979552)
(17.6975 0 -0.208771)
(17.6129 2.47285e-22 -0.300522)
(17.4896 6.94504e-23 -0.371758)
(15.7344 1.16449e-20 1.97041)
(15.9363 7.88518e-20 1.90596)
(16.1346 0 1.83103)
(16.3278 0 1.74553)
(16.5139 0 1.6496)
(16.6911 0 1.54353)
(16.8575 3.87534e-20 1.42792)
(17.0112 -4.92963e-21 1.30359)
(17.1502 -4.63837e-21 1.17165)
(17.2728 -1.92664e-20 1.03352)
(17.3774 -2.84053e-20 0.890873)
(17.4628 1.38479e-20 0.745664)
(17.5279 -3.52012e-20 0.60007)
(17.5722 2.91213e-21 0.456468)
(17.5956 1.24437e-21 0.31738)
(17.5982 1.36127e-20 0.185389)
(17.5814 -9.82234e-22 0.0629615)
(17.5461 -2.61917e-21 -0.0475527)
(17.4943 -1.87656e-21 -0.144046)
(17.4286 -5.5599e-22 -0.224651)
(17.3299 1.60851e-22 -0.28805)
(15.5549 -1.1167e-20 1.68798)
(15.7445 -1.68177e-19 1.63331)
(15.931 7.72626e-20 1.56995)
(16.1129 -6.48877e-20 1.49784)
(16.2886 -2.44885e-21 1.41708)
(16.4564 5.72899e-20 1.32794)
(16.6147 -1.21221e-20 1.23088)
(16.7618 0 1.12659)
(16.896 0 1.01598)
(17.0157 7.75241e-21 0.900176)
(17.1196 1.39363e-20 0.780559)
(17.2064 5.56943e-21 0.658712)
(17.2753 0 0.536397)
(17.3257 0 0.41555)
(17.3573 1.81377e-20 0.298252)
(17.3705 -1.6582e-20 0.186632)
(17.3659 8.2402e-21 0.0827516)
(17.3447 2.5943e-21 -0.0114416)
(17.3082 7.66181e-22 -0.0941561)
(17.2587 -7.54172e-22 -0.163805)
(17.1813 -1.57031e-22 -0.219232)
(15.3948 0 1.41483)
(15.574 5.17835e-21 1.36938)
(15.7505 6.77987e-20 1.31686)
(15.9228 -1.3718e-19 1.25721)
(16.0896 7.23825e-20 1.19053)
(16.2495 -7.13833e-21 1.11702)
(16.4009 -4.1775e-20 1.03707)
(16.5423 4.59508e-21 0.951214)
(16.6723 4.38459e-21 0.860184)
(16.7895 3.6669e-20 0.76489)
(16.8926 -7.16566e-21 0.666427)
(16.9806 3.06112e-20 0.566059)
(17.0526 -2.35505e-20 0.465192)
(17.108 0 0.36538)
(17.1466 1.3598e-20 0.268316)
(17.1685 -1.33876e-20 0.175726)
(17.1743 0 0.0892879)
(17.1647 -2.92251e-21 0.0105833)
(17.1412 2.8754e-21 -0.0588734)
(17.1055 0 -0.117736)
(17.046 3.89171e-22 -0.16502)
(15.2557 0 1.15023)
(15.4262 -5.06941e-21 1.11357)
(15.5942 -6.82424e-20 1.0713)
(15.7586 1.4244e-19 1.02338)
(15.918 -1.25769e-19 0.969889)
(16.0712 1.20908e-19 0.910989)
(16.2169 -4.61077e-21 0.846975)
(16.3536 -4.8102e-20 0.778276)
(16.4801 0 0.705458)
(16.5952 0 0.629232)
(16.6976 0 0.550452)
(16.7864 4.33245e-22 0.470105)
(16.8609 0 0.389286)
(16.9203 5.03758e-21 0.309193)
(16.9645 -1.15545e-20 0.231169)
(16.9936 1.06532e-20 0.15661)
(17.0079 2.6759e-21 0.0868235)
(17.0081 0 0.0230289)
(16.9952 1.37954e-21 -0.0335461)
(16.9709 1.34241e-21 -0.0817906)
(16.9264 3.2318e-22 -0.120894)
(15.1389 -8.56061e-20 0.889296)
(15.3024 8.3952e-20 0.861008)
(15.4637 0 0.828455)
(15.6216 5.80222e-20 0.791614)
(15.7751 -1.26093e-19 0.750535)
(15.9229 5.95825e-20 0.705347)
(16.0639 0 0.656271)
(16.1968 -4.43288e-20 0.603626)
(16.3205 4.35389e-20 0.547836)
(16.4337 0 0.489434)
(16.5355 2.62178e-20 0.429059)
(16.625 -3.65906e-20 0.367453)
(16.7014 0 0.305443)
(16.764 -4.92185e-21 0.243923)
(16.8124 4.0893e-21 0.183869)
(16.8471 2.90427e-21 0.126327)
(16.8683 -8.73971e-21 0.0723498)
(16.8763 -3.48686e-21 0.0229483)
(16.8719 3.20681e-21 -0.0209461)
(16.8567 -3.50061e-21 -0.058503)
(16.824 -4.52562e-22 -0.0891064)
(15.0458 -8.93737e-20 0.635393)
(15.2039 0 0.615264)
(15.3599 0 0.592126)
(15.5129 -6.20486e-20 0.565964)
(15.6618 6.50532e-20 0.536811)
(15.8055 3.59697e-21 0.504758)
(15.9429 4.96535e-20 0.469958)
(16.0729 -4.87517e-20 0.432632)
(16.1943 1.72213e-20 0.393075)
(16.3062 -1.95002e-20 0.351657)
(16.4075 3.99967e-21 0.308824)
(16.4974 1.334e-20 0.265096)
(16.5751 -1.31139e-20 0.221071)
(16.6402 -9.64563e-21 0.17738)
(16.6921 9.48777e-21 0.134646)
(16.731 0 0.0935274)
(16.7573 0 0.0548056)
(16.7712 -2.90152e-21 0.0192821)
(16.7734 1.78685e-21 -0.0123546)
(16.7652 5.43441e-22 -0.0394969)
(16.7414 2.78385e-22 -0.0616208)
(14.9772 -4.17082e-20 0.375704)
(15.1314 2.25342e-21 0.363492)
(15.2837 3.79058e-20 0.349485)
(15.4331 -3.27696e-20 0.333673)
(15.5787 3.2152e-20 0.316075)
(15.7193 -3.51621e-21 0.296745)
(15.8541 0 0.275772)
(15.9818 1.45487e-21 0.253284)
(16.1016 2.2358e-20 0.229453)
(16.2122 4.1531e-22 0.204497)
(16.313 -1.82824e-21 0.178676)
(16.4029 -3.02999e-20 0.152299)
(16.4813 1.31526e-20 0.125727)
(16.5478 0 0.0993449)
(16.6018 0 0.0735176)
(16.6434 -9.08731e-22 0.0486492)
(16.6725 7.21677e-22 0.0252644)
(16.6893 2.15062e-21 0.00392506)
(16.6945 0 -0.0149408)
(16.6891 0 -0.0309001)
(16.6686 0 -0.0433603)
(14.6879 0 0.12683)
(14.8358 0 0.122517)
(14.9816 0 0.11755)
(15.1242 0 0.111928)
(15.2627 0 0.105656)
(15.3961 0 0.0987505)
(15.5232 0 0.0912439)
(15.643 -1.42536e-21 0.083181)
(15.7544 -4.89948e-21 0.0746224)
(15.8564 2.53838e-21 0.0656446)
(15.948 0 0.0563412)
(16.0283 1.75436e-21 0.0468232)
(16.0967 0 0.0372211)
(16.1524 2.41934e-21 0.0276792)
(16.1953 -2.37922e-21 0.018348)
(16.2251 8.89809e-22 0.00941656)
(16.242 5.57295e-22 0.00112469)
(16.2467 -2.312e-21 -0.00634056)
(16.2398 0 -0.0128493)
(16.2226 -7.21263e-23 -0.0182294)
(16.1884 7.08743e-23 -0.0221385)
)
;

boundaryField
{
    inlet
    {
        type            fixedValue;
        value           nonuniform 0();
    }
    outlet
    {
        type            zeroGradient;
    }
    flap
    {
        type            movingWallVelocity;
        value           nonuniform 0();
    }
    upperWall
    {
        type            noSlip;
    }
    lowerWall
    {
        type            noSlip;
    }
    frontAndBack
    {
        type            empty;
    }
    procBoundary2to1
    {
        type            processor;
        value           nonuniform List<vector> 
17
(
(17.3719 6.55399e-20 5.36238)
(17.2186 1.20676e-20 4.93214)
(17.0161 6.91277e-20 4.50488)
(16.7928 -5.2273e-21 4.09265)
(16.5643 1.81233e-19 3.70041)
(16.3384 7.95263e-20 3.32907)
(16.1195 -9.57164e-20 2.97765)
(15.9105 9.04752e-20 2.64441)
(15.7135 9.21107e-20 2.32745)
(15.5306 1.92312e-19 2.02462)
(15.3635 5.70944e-21 1.73415)
(15.2141 0 1.45334)
(15.0838 0 1.18139)
(14.9742 0 0.913401)
(14.8865 -9.11528e-20 0.652572)
(14.822 0 0.386153)
(14.5387 2.31641e-20 0.130505)
)
;
    }
    procBoundary2to4
    {
        type            processor;
        value           nonuniform List<vector> 
11
(
(6.19103 2.32402e-20 6.00589)
(7.25542 6.59729e-21 5.82953)
(8.53969 -3.78998e-21 5.73159)
(10.1621 8.39967e-21 5.81784)
(11.9943 -2.45021e-21 6.06179)
(13.7562 0 6.33157)
(15.2218 -1.02551e-21 6.50794)
(16.2927 9.90992e-22 6.53245)
(16.9727 4.04589e-21 6.39877)
(17.3235 -9.43391e-21 6.13252)
(17.4291 -5.09868e-20 5.77352)
)
;
    }
    procBoundary2to5
    {
        type            processor;
        value           nonuniform List<vector> 
34
(
(5.28898 1.38408e-20 6.03637)
(5.37131 1.37975e-20 5.84897)
(6.61719 -2.8474e-20 5.54134)
(6.61719 -2.8474e-20 5.54134)
(6.70724 -3.68623e-20 5.24704)
(8.00203 7.45453e-20 4.82149)
(8.00203 7.45453e-20 4.82149)
(9.28268 -6.51127e-20 4.32852)
(9.28268 -6.51127e-20 4.32852)
(9.39117 1.09651e-20 3.87348)
(10.6395 -8.02045e-20 3.29783)
(10.6395 -8.02045e-20 3.29783)
(10.6995 -8.47788e-20 2.75086)
(11.9052 -8.48529e-20 2.1694)
(11.9052 -8.48529e-20 2.1694)
(13.204 8.03989e-20 1.63514)
(13.204 8.03989e-20 1.63514)
(13.1561 -3.73138e-20 1.07884)
(14.6341 3.27707e-20 0.589944)
(14.6341 3.27707e-20 0.589944)
(16.208 2.6407e-20 0.0910603)
(16.208 2.6407e-20 0.0910603)
(16.1733 2.14683e-20 -0.446276)
(17.5281 -3.57479e-20 -0.888571)
(17.5281 -3.57479e-20 -0.888571)
(18.4489 1.10215e-19 -1.21552)
(18.4489 1.10215e-19 -1.21552)
(18.2556 0 -1.59214)
(18.6424 -2.49161e-20 -1.68135)
(18.6424 -2.49161e-20 -1.68135)
(18.68 0 -1.64246)
(18.68 0 -1.64246)
(18.4168 0 -1.51744)
(18.4168 0 -1.51744)
)
;
    }
}


// ************************************************************************* //
