/*--------------------------------*- C++ -*----------------------------------*\
| =========                 |                                                 |
| \\      /  F ield         | OpenFOAM: The Open Source CFD Toolbox           |
|  \\    /   O peration     | Version:  dev                                   |
|   \\  /    A nd           | Web:      www.OpenFOAM.org                      |
|    \\/     M anipulation  |                                                 |
\*---------------------------------------------------------------------------*/
FoamFile
{
    version     2.0;
    format      ascii;
    class       surfaceScalarField;
    location    "0.46";
    object      phi;
}
// * * * * * * * * * * * * * * * * * * * * * * * * * * * * * * * * * * * * * //

dimensions      [0 3 -1 0 0 0 0];

internalField   nonuniform List<scalar> 
879
(
0.208068
-0.00654299
0.00174576
0.213091
-0.00696986
0.213184
0.00163437
0.00968331
0.218228
-0.00739026
0.218344
0.00149975
0.218204
0.00980724
0.0174469
0.223487
-0.00780101
0.223625
0.0013419
0.22354
0.00987532
0.223264
0.0177091
0.0250444
0.228869
-0.00819863
0.229031
0.00116088
0.229003
0.00988521
0.228819
0.017879
0.228501
0.0253496
0.0324345
0.234379
-0.00857929
0.234562
0.000957279
0.234594
0.00983474
0.234505
0.0179529
0.234319
0.0255235
0.234056
0.0326869
0.0395478
0.240018
-0.00893889
0.240221
0.000732257
0.240315
0.00972254
0.240325
0.0179275
0.240273
0.0255621
0.240182
0.0327679
0.24007
0.0396509
0.239959
0.0462923
0.0527574
0.245789
-0.00927304
0.246012
0.000487553
0.246167
0.00954816
0.246278
0.0178005
0.246365
0.025462
0.246447
0.0326745
0.246546
0.0395436
0.246681
0.0461502
0.246874
0.0525587
0.05882
0.251696
-0.00957711
0.251935
0.000225492
0.252152
0.00931203
0.252365
0.0175712
0.252591
0.0252215
0.25285
0.0324042
0.253161
0.0392242
0.253543
0.0457612
0.254018
0.052078
0.254608
0.0582249
0.25534
0.0642421
0.0701631
0.257742
-0.00984626
0.257995
-5.10131e-05
0.258271
0.00901559
0.258585
0.01724
0.258952
0.0248403
0.259388
0.0319568
0.25991
0.0386928
0.260537
0.0451265
0.26129
0.0513189
0.262192
0.0573185
0.263267
0.0631643
0.26454
0.0688876
0.26604
0.0745121
0.0800544
0.26393
-0.0100755
0.264193
-0.000338471
0.264526
0.00866125
0.26494
0.0168086
0.265446
0.0243202
0.266056
0.0313342
0.266787
0.037952
0.267656
0.04425
0.268682
0.050287
0.269886
0.0561098
0.271291
0.0617554
0.272923
0.0672532
0.274808
0.0726246
0.276976
0.077885
0.0830422
0.270263
-0.0102597
0.270532
-0.000632798
0.27092
0.00825245
0.27143
0.0162802
0.272071
0.0236644
0.272852
0.0305404
0.273787
0.037007
0.274891
0.0431382
0.27618
0.048991
0.277675
0.0546099
0.279396
0.0600302
0.281367
0.0652791
0.283613
0.0703764
0.286161
0.0753353
0.289039
0.0801625
0.292278
0.0848588
0.0894205
0.276746
-0.0103938
0.277016
-0.000929368
0.277453
0.00779358
0.278055
0.0156595
0.278826
0.0228782
0.279772
0.0295815
0.280904
0.0358651
0.282233
0.0418005
0.283775
0.0474424
0.285546
0.0528333
0.287566
0.0580065
0.289854
0.0629874
0.292433
0.0677943
0.295328
0.0724386
0.298562
0.0769256
0.302165
0.081255
0.306162
0.0854218
0.310584
0.0894161
0.093224
0.283381
-0.0104727
0.283648
-0.00122305
0.284129
0.00729002
0.284817
0.0149523
0.285711
0.0219683
0.286814
0.0284654
0.288132
0.0345359
0.289676
0.0402485
0.291456
0.0456555
0.293487
0.0507971
0.295784
0.055705
0.298364
0.0604029
0.301248
0.0649077
0.304454
0.0692295
0.308005
0.0733727
0.311922
0.0773361
0.316227
0.081114
0.320945
0.0846963
0.326098
0.0880693
0.331708
0.0912156
0.0941133
0.290173
-0.0104911
0.290431
-0.00150828
0.290949
0.00674799
0.291716
0.0141658
0.292725
0.0209429
0.293975
0.0272019
0.295469
0.0330311
0.297213
0.0384961
0.299215
0.0436465
0.301486
0.0485208
0.304037
0.0531487
0.306884
0.0575524
0.310041
0.0617477
0.313523
0.065744
0.317349
0.0695448
0.321533
0.0731489
0.326094
0.0765504
0.331048
0.0797398
0.33641
0.0827043
0.342196
0.0854273
0.297126
-0.0104442
0.297369
-0.00177909
0.297918
0.00617451
0.298755
0.0133081
0.29987
0.0198117
0.301256
0.0258023
0.302912
0.0313638
0.304841
0.0365586
0.307046
0.0414337
0.309536
0.0460254
0.312318
0.0503618
0.315403
0.054464
0.318801
0.0583465
0.322523
0.0620181
0.326583
0.0654826
0.33099
0.0687386
0.335757
0.0717808
0.340894
0.0746007
0.346407
0.0771871
0.0795247
0.304244
-0.0103268
0.304465
-0.0020292
0.305037
0.00557726
0.305936
0.0123883
0.307145
0.0185853
0.308655
0.024279
0.310459
0.0295486
0.312555
0.0344529
0.314946
0.0390363
0.317632
0.0433331
0.32062
0.0473697
0.323914
0.051166
0.327521
0.0547358
0.331449
0.0580876
0.335703
0.0612251
0.340291
0.0641476
0.345218
0.0668509
0.350489
0.0693276
0.356104
0.0715684
0.0735605
0.311531
-0.0101342
0.311723
-0.00225205
0.31231
0.00496446
0.313261
0.0114164
0.314553
0.0172755
0.316173
0.0226457
0.318109
0.0276011
0.320356
0.0321969
0.322911
0.0364747
0.325771
0.0404667
0.328939
0.0441977
0.332415
0.0476867
0.3362
0.0509468
0.340299
0.0539863
0.344712
0.0568091
0.349442
0.0594154
0.354488
0.061802
0.359849
0.0639634
0.365522
0.0658922
0.0675779
0.318991
-0.00986154
0.319148
-0.00244091
0.319742
0.00434476
0.320734
0.0104029
0.322097
0.0158946
0.323812
0.0209165
0.325864
0.0255375
0.328244
0.0298087
0.330942
0.0337692
0.333955
0.0374488
0.337277
0.040871
0.340907
0.0440534
0.344842
0.047009
0.34908
0.0497459
0.353619
0.0522682
0.358455
0.054577
0.363585
0.0566704
0.369001
0.0585447
0.374696
0.0601944
0.0616112
0.326629
-0.00950393
0.326744
-0.00258892
0.327335
0.00372705
0.328357
0.00935852
0.329779
0.0144552
0.331575
0.019106
0.333727
0.0233742
0.33622
0.0273069
0.339043
0.0309402
0.342185
0.0343017
0.345639
0.0374134
0.349398
0.040292
0.353455
0.0429499
0.357804
0.0453951
0.362438
0.0476322
0.367351
0.0496631
0.372533
0.0514869
0.377974
0.0531015
0.383663
0.0545036
0.0556867
0.334448
-0.00905666
0.334515
-0.00268918
0.335094
0.00312032
0.336136
0.00829434
0.337603
0.0129702
0.339466
0.0172289
0.341702
0.0211276
0.344291
0.0247095
0.347218
0.0280073
0.350468
0.0310466
0.354031
0.0338478
0.357895
0.0364264
0.362049
0.0387943
0.366484
0.0409595
0.371189
0.042927
0.376152
0.0446991
0.381362
0.0462763
0.386805
0.0476576
0.392466
0.0488413
0.0498229
0.342454
-0.00851494
0.342466
-0.00273486
0.343025
0.0025335
0.344075
0.00722124
0.345575
0.0114525
0.34749
0.0152996
0.349793
0.0188139
0.352461
0.022034
0.355473
0.0249894
0.358813
0.0277036
0.362464
0.0301949
0.366411
0.0324781
0.370641
0.0345642
0.37514
0.0364611
0.379893
0.038174
0.384887
0.0397059
0.390106
0.041058
0.395534
0.0422303
0.401153
0.0432225
0.0440315
0.350652
-0.00787404
0.350602
-0.00271936
0.351131
0.00197524
0.35218
0.0061499
0.3537
0.00991441
0.355653
0.0133323
0.358009
0.0164484
0.360738
0.0192969
0.363819
0.0219041
0.367229
0.0242908
0.37095
0.0264737
0.374962
0.0284661
0.379249
0.0302785
0.383794
0.0319183
0.388579
0.0333909
0.393588
0.0346994
0.398802
0.0358459
0.404204
0.0368311
0.409773
0.0376557
0.0383173
0.359046
-0.00712935
0.358927
-0.00263656
0.35942
0.00145367
0.360456
0.00509053
0.361984
0.00836805
0.363963
0.0113404
0.366356
0.0140458
0.369133
0.016514
0.372265
0.0187676
0.37573
0.020825
0.379503
0.0227008
0.383564
0.024407
0.387892
0.025953
0.392468
0.0273459
0.397273
0.0285908
0.402285
0.029691
0.407487
0.030649
0.412856
0.031466
0.418373
0.0321432
0.0326793
0.367641
-0.00627674
0.367449
-0.0024814
0.367897
0.000976175
0.368912
0.00405279
0.370437
0.00682473
0.372428
0.00933631
0.374846
0.0116196
0.377655
0.0136992
0.380826
0.0155945
0.38433
0.0173207
0.388143
0.0188905
0.392239
0.0203144
0.396596
0.0216004
0.401193
0.0227551
0.406006
0.0237832
0.411016
0.0246879
0.416201
0.0254716
0.421537
0.0261362
0.427005
0.026683
0.0271111
0.376444
-0.00531347
0.376176
-0.00225094
0.376573
0.000549341
0.377556
0.00304634
0.379068
0.00529588
0.381059
0.00733272
0.383488
0.009183
0.386317
0.0108664
0.389512
0.0123984
0.393043
0.0137912
0.396882
0.0150554
0.401002
0.0161995
0.405379
0.0172305
0.409988
0.0181538
0.414806
0.0189736
0.41981
0.0196929
0.424978
0.0203139
0.430285
0.0208384
0.43571
0.0212678
0.0216016
0.385464
-0.00424083
0.385121
-0.00194615
0.385463
0.000177619
0.386408
0.0020782
0.387897
0.00378991
0.389878
0.00533948
0.392307
0.00674716
0.395144
0.0080273
0.398351
0.00919115
0.401898
0.0102481
0.405753
0.0112061
0.409888
0.012072
0.414276
0.012851
0.418893
0.0135477
0.423712
0.0141653
0.428711
0.0147063
0.433864
0.0151726
0.43915
0.0155658
0.444544
0.0158871
0.0161363
0.39472
-0.00307494
0.3943
-0.00156418
0.394574
-0.000126726
0.395469
0.00116006
0.396925
0.00231802
0.398886
0.00336804
0.401304
0.00432331
0.404137
0.0051926
0.407347
0.00598292
0.4109
0.00670051
0.414763
0.00735074
0.418907
0.0079382
0.423303
0.00846664
0.427924
0.00893906
0.432746
0.00935782
0.437742
0.00972472
0.442889
0.0100411
0.448163
0.0103082
0.453539
0.0105268
0.0106969
0.404293
-0.00190522
0.403791
-0.00110138
0.403989
-0.000354911
0.404824
0.000302552
0.406231
0.000895741
0.408152
0.00143668
0.41054
0.00193073
0.413352
0.00238151
0.416546
0.0027922
0.420088
0.00316574
0.423944
0.00350474
0.428083
0.00381147
0.432475
0.00408781
0.437095
0.00433527
0.441914
0.00455507
0.446909
0.00474813
0.452053
0.00491517
0.457323
0.00505678
0.462696
0.00517349
0.00526529
0.413366
0.412225
0.411839
0.412119
0.413
0.414427
0.416354
0.418737
0.421534
0.424709
0.428225
0.43205
0.436154
0.440507
0.445081
0.449849
0.454785
0.459863
0.465058
)
;

boundaryField
{
    inlet
    {
        type            calculated;
        value           nonuniform List<scalar> 
30
(
-0.20766
-0.212683
-0.217828
-0.223097
-0.228493
-0.23402
-0.239681
-0.245479
-0.251417
-0.257499
-0.263728
-0.270107
-0.276641
-0.283333
-0.290186
-0.297206
-0.304395
-0.311758
-0.3193
-0.327023
-0.334934
-0.343036
-0.351334
-0.359832
-0.368536
-0.377451
-0.386582
-0.395933
-0.40551
-0.415319
)
;
    }
    outlet
    {
        type            calculated;
        value           nonuniform 0();
    }
    flap
    {
        type            calculated;
        value           nonuniform 0();
    }
    upperWall
    {
        type            calculated;
        value           nonuniform List<scalar> 
20
(
0
0
0
0
0
-5.52317e-15
0
-5.30362e-20
0
0
0
0
0
0
0
0
0
0
-7.9242e-15
0
)
;
    }
    lowerWall
    {
        type            calculated;
        value           nonuniform 0();
    }
    frontAndBack
    {
        type            empty;
        value           nonuniform 0();
    }
    procBoundary0to1
    {
        type            processor;
        value           nonuniform List<scalar> 
18
(
0.337799
0.348417
0.08789
0.352307
0.362065
0.371502
0.38066
0.389585
0.398329
0.406945
0.41549
0.424016
0.432581
0.441231
0.450023
0.458996
0.468149
0.470347
)
;
    }
    procBoundary0to3
    {
        type            processor;
        value           nonuniform List<scalar> 
34
(
0.00611661
-0.00183059
0.208135
-0.00950663
0.212991
-0.0170971
0.21784
-0.0246135
0.222821
-0.0320161
0.228072
-0.0392378
0.233737
-0.0461883
-0.0526752
0.239871
-0.0590988
0.247149
-0.0649766
-0.071065
0.256239
-0.0760142
-0.0818148
0.267799
-0.0855253
0.279458
-0.0880992
-0.0930559
0.295913
-0.0938396
-0.0981039
0.315463
-0.096828
-0.100206
)
;
    }
}


// ************************************************************************* //
