/*--------------------------------*- C++ -*----------------------------------*\
| =========                 |                                                 |
| \\      /  F ield         | OpenFOAM: The Open Source CFD Toolbox           |
|  \\    /   O peration     | Version:  dev                                   |
|   \\  /    A nd           | Web:      www.OpenFOAM.org                      |
|    \\/     M anipulation  |                                                 |
\*---------------------------------------------------------------------------*/
FoamFile
{
    version     2.0;
    format      ascii;
    class       surfaceVectorField;
    location    "0.97";
    object      Uf;
}
// * * * * * * * * * * * * * * * * * * * * * * * * * * * * * * * * * * * * * //

dimensions      [0 1 -1 0 0 0 0];

internalField   nonuniform List<vector> 
881
(
(9.91039 -2.52897e-20 0.0225948)
(9.9629 1.55711e-22 0.0377143)
(9.81225 1.34584e-20 0.0286554)
(9.92279 4.6879e-21 0.0427288)
(9.70243 1.78659e-20 0.0336052)
(9.85796 -4.86935e-21 0.0497291)
(9.57839 -2.68003e-22 0.038761)
(9.77011 -2.37501e-20 0.0583856)
(9.44 4.05468e-21 0.0441202)
(9.66561 -3.54558e-21 0.0676617)
(9.28739 2.30026e-20 0.0497195)
(9.54662 -6.64916e-20 0.0774513)
(9.12034 6.98096e-21 0.0556848)
(9.41268 4.60555e-20 0.0879522)
(8.93831 -7.88906e-21 0.0621397)
(9.26293 7.91365e-21 0.0993571)
(8.74062 8.92257e-21 0.0691911)
(9.0967 3.35299e-20 0.111821)
(8.52645 -5.43045e-21 0.076945)
(8.91334 -3.46569e-20 0.125495)
(8.29486 4.48314e-20 0.0855155)
(8.71206 5.45775e-20 0.140543)
(8.0448 1.59568e-20 0.0950253)
(8.49191 -8.60853e-21 0.157146)
(7.7751 -3.90158e-20 0.105605)
(8.25181 -3.97066e-20 0.175493)
(7.48451 0 0.117394)
(7.99059 -1.65622e-19 0.195778)
(7.17175 4.64551e-20 0.13054)
(7.70698 1.71239e-19 0.218199)
(6.83548 -3.17107e-21 0.145195)
(7.39966 5.68926e-20 0.24295)
(6.47443 -4.64822e-20 0.161507)
(7.06731 -2.38707e-20 0.270204)
(6.08742 0 0.179609)
(6.70865 1.96738e-19 0.300095)
(5.67345 0 0.199615)
(6.3225 2.07464e-19 0.332683)
(5.23183 2.8778e-20 0.221606)
(5.90785 -4.24518e-19 0.36793)
(5.46402 7.00345e-22 0.40566)
(10.0014 3.00509e-20 0.0457337)
(9.99382 2.413e-20 0.0371017)
(9.96982 -1.38438e-20 0.0598614)
(9.98267 1.8749e-20 0.0564627)
(9.92011 -4.68571e-20 0.0722061)
(9.95001 -3.25474e-20 0.072207)
(9.85365 -2.6624e-20 0.0855474)
(9.89453 -5.42904e-20 0.0896338)
(9.77034 -7.53066e-20 0.0998242)
(9.8215 2.83378e-20 0.108365)
(9.67023 -4.12842e-20 0.115051)
(9.73323 -7.38238e-20 0.128227)
(9.55321 4.62928e-20 0.131479)
(9.62952 -1.01137e-22 0.149533)
(9.4189 4.98028e-20 0.149374)
(9.50968 9.61042e-20 0.172646)
(9.26672 -1.12907e-20 0.168972)
(9.37313 -6.61928e-20 0.197876)
(9.09599 2.6932e-20 0.190513)
(9.21935 -4.34317e-20 0.225531)
(8.90583 8.351e-24 0.214256)
(9.04767 6.83823e-20 0.255944)
(8.69528 -6.48354e-20 0.240479)
(8.85725 -2.1737e-19 0.28948)
(8.46324 -1.68493e-19 0.269473)
(8.64713 -1.31047e-21 0.32653)
(8.20849 1.14014e-20 0.301534)
(8.41622 -2.53818e-21 0.367498)
(7.92974 1.79752e-19 0.336962)
(8.16335 1.71284e-19 0.412799)
(7.62566 3.4833e-20 0.376043)
(7.88724 -1.10576e-20 0.462848)
(7.29489 2.23061e-19 0.41902)
(7.58657 2.33181e-20 0.518035)
(6.93614 4.04502e-19 0.466057)
(7.26002 1.96787e-19 0.578682)
(6.54823 -2.27016e-19 0.517193)
(6.90626 2.07505e-19 0.644991)
(6.13016 -4.46069e-19 0.572311)
(6.52404 -3.19555e-19 0.716981)
(6.11225 8.15069e-20 0.79443)
(9.99436 1.27273e-20 0.0504158)
(9.99151 0 0.0394895)
(9.96658 -1.09438e-21 0.0720935)
(9.97794 1.12197e-19 0.068585)
(9.9207 -4.04002e-20 0.0925247)
(9.94651 -1.30075e-20 0.0930211)
(9.85941 2.32797e-21 0.114561)
(9.89412 5.41104e-20 0.118538)
(9.78297 2.78576e-20 0.138287)
(9.82496 1.01227e-22 0.145809)
(9.69134 -3.12227e-20 0.163753)
(9.74143 5.88362e-20 0.174809)
(9.58444 5.14991e-20 0.191293)
(9.64353 3.04892e-20 0.20591)
(9.46197 -2.28718e-20 0.221291)
(9.5307 1.44135e-19 0.239596)
(9.32352 -9.7951e-20 0.254117)
(9.40251 -1.32736e-19 0.276312)
(9.16852 0 0.290158)
(9.25854 3.45472e-20 0.316502)
(8.99626 -1.54035e-19 0.329843)
(9.09833 0 0.360654)
(8.8059 -1.50073e-19 0.373637)
(8.92121 -1.42075e-19 0.409304)
(8.59651 1.64682e-19 0.422033)
(8.72644 3.22194e-19 0.463026)
(8.367 1.60386e-19 0.475542)
(8.51314 -1.65973e-19 0.522425)
(8.11621 -2.26306e-20 0.534686)
(8.28036 0 0.58813)
(7.8429 -2.19375e-20 0.599978)
(8.02705 1.08253e-20 0.660785)
(7.54574 -4.8456e-23 0.671886)
(7.75208 -3.92629e-19 0.741024)
(7.22336 0 0.750768)
(7.45425 4.29002e-19 0.829415)
(6.87439 1.06686e-19 0.836805)
(7.1323 8.01272e-19 0.926396)
(6.49749 2.14417e-19 0.929932)
(6.78491 -1.76183e-18 1.03219)
(6.41066 1.00815e-19 1.14673)
(9.98975 1.01559e-19 0.0582145)
(9.99008 0 0.043815)
(9.96223 9.7636e-20 0.0889843)
(9.97456 9.55764e-23 0.0806036)
(9.91721 8.28508e-20 0.118391)
(9.94294 0 0.113465)
(9.8569 5.07732e-20 0.14912)
(9.89153 2.71422e-20 0.147001)
(9.78197 3.22054e-20 0.181727)
(9.82376 -2.83454e-20 0.182542)
(9.69247 1.20034e-19 0.2165)
(9.74193 1.17246e-19 0.220354)
(9.58834 1.25237e-19 0.25391)
(9.64623 1.50484e-22 0.260879)
(9.46941 2.92016e-20 0.294476)
(9.53619 1.27485e-19 0.304681)
(9.33543 2.76078e-21 0.338711)
(9.41146 -3.3004e-20 0.352309)
(9.18599 3.39469e-20 0.387154)
(9.27177 1.23556e-22 0.404314)
(9.02064 9.51396e-21 0.440396)
(9.11677 -1.43805e-19 0.461309)
(8.83877 3.38307e-19 0.499078)
(8.94604 1.20654e-19 0.523965)
(8.63972 -1.6749e-20 0.563878)
(8.75902 2.33757e-21 0.593005)
(8.42272 -3.23738e-19 0.635511)
(8.55509 -2.61343e-21 0.669193)
(8.18693 3.36403e-20 0.714719)
(8.33358 3.37613e-19 0.753338)
(7.93142 -3.66512e-19 0.802257)
(8.09377 -3.37024e-19 0.846281)
(7.65518 4.94969e-20 0.898853)
(7.83481 3.15483e-19 0.948879)
(7.3571 1.23644e-18 1.00515)
(7.55583 -4.18539e-19 1.06195)
(7.03597 -1.10606e-18 1.1216)
(7.25581 -3.72651e-20 1.1862)
(6.69046 -1.84889e-18 1.24842)
(6.93362 -9.52369e-19 1.32217)
(6.58788 -1.14632e-19 1.47009)
(9.98737 -1.01467e-19 0.0668548)
(9.98934 0 0.0491432)
(9.95945 -9.75485e-20 0.105404)
(9.97269 -1.98922e-19 0.0928011)
(9.91514 -5.51779e-20 0.142713)
(9.94097 -1.03453e-19 0.133599)
(9.85581 -5.31129e-20 0.181319)
(9.89048 -8.25792e-23 0.175023)
(9.78223 5.94988e-20 0.222174)
(9.82414 -1.68372e-19 0.21864)
(9.69453 -4.86816e-21 0.265799)
(9.74408 -1.68699e-23 0.265019)
(9.59265 4.7027e-21 0.312757)
(9.65055 6.08725e-20 0.314709)
(9.47645 6.23692e-20 0.36364)
(9.54314 -2.53019e-19 0.36834)
(9.34574 -3.50595e-20 0.419044)
(9.42154 1.97076e-19 0.426535)
(9.20024 -1.80201e-19 0.479599)
(9.28553 -1.02864e-19 0.489932)
(9.0396 -2.81111e-20 0.546003)
(9.13488 1.06426e-19 0.559242)
(8.8634 -2.17432e-19 0.619014)
(8.96927 -1.65281e-19 0.635249)
(8.67116 1.6233e-20 0.699437)
(8.78828 -3.21584e-19 0.718793)
(8.46234 6.64777e-19 0.788127)
(8.59147 3.27006e-19 0.81076)
(8.23638 -4.39428e-20 0.885988)
(8.37837 3.37895e-19 0.912093)
(7.99265 3.5542e-19 0.993957)
(8.14847 -3.81232e-19 1.0238)
(7.73044 -1.63458e-19 1.11298)
(7.90122 7.31425e-19 1.14691)
(7.44896 -1.6873e-18 1.24395)
(7.63598 -8.01788e-19 1.28246)
(7.14728 1.01366e-19 1.38763)
(7.352 -7.91221e-19 1.43143)
(6.82426 7.95241e-19 1.54457)
(7.04838 2.52729e-18 1.59468)
(6.7239 -1.65637e-18 1.77284)
(9.98617 -1.01142e-19 0.0758882)
(9.98899 -1.79099e-19 0.0549778)
(9.95796 -2.02857e-19 0.121641)
(9.9718 -3.73248e-20 0.105129)
(9.91446 -4.62701e-20 0.166625)
(9.94025 2.56244e-20 0.153374)
(9.85642 -1.18606e-19 0.213114)
(9.89085 1.07883e-19 0.202462)
(9.78451 -2.24718e-19 0.262229)
(9.82619 -1.12206e-19 0.25395)
(9.69893 6.68697e-20 0.314653)
(9.74824 -1.75269e-19 0.308648)
(9.59962 -2.02648e-19 0.37103)
(9.65723 2.42949e-19 0.367237)
(9.48646 -1.10287e-19 0.432009)
(9.55283 -3.16714e-19 0.430414)
(9.35929 1.24057e-19 0.498251)
(9.43474 3.2845e-19 0.498855)
(9.21789 1.87471e-19 0.57047)
(9.30279 -1.36049e-19 0.573267)
(9.06201 -3.53151e-20 0.649464)
(9.15681 1.96111e-21 0.654447)
(8.89132 -2.72159e-19 0.736099)
(8.99657 3.11229e-19 0.743279)
(8.70545 0 0.831291)
(8.82173 -2.66218e-19 0.840704)
(8.504 0 0.936015)
(8.63195 0 0.947707)
(8.28658 -1.09636e-20 1.05131)
(8.42687 0 1.06534)
(8.05275 1.2232e-20 1.17826)
(8.20613 -6.86269e-19 1.19473)
(7.80204 6.96316e-20 1.318)
(7.96935 7.17413e-19 1.33708)
(7.53385 9.5297e-20 1.47164)
(7.71606 4.67869e-20 1.49362)
(7.24746 1.68199e-18 1.64025)
(7.44567 4.85466e-20 1.66556)
(6.94193 2.19346e-20 1.82473)
(7.15743 3.19207e-18 1.85407)
(6.85027 -3.27074e-18 2.06022)
(9.98564 -1.12782e-19 0.0851106)
(9.98887 -2.59858e-22 0.061034)
(9.95744 1.92601e-19 0.137702)
(9.97154 2.4715e-19 0.117455)
(9.9149 1.81476e-19 0.190053)
(9.94047 1.54873e-19 0.17273)
(9.85839 1.10097e-19 0.244187)
(9.89237 5.38767e-20 0.229201)
(9.78847 -6.39174e-20 0.301285)
(9.82963 5.61632e-20 0.288321)
(9.70536 8.60263e-21 0.362186)
(9.75408 -1.16815e-19 0.351068)
(9.60903 1.18753e-19 0.427636)
(9.66598 4.7754e-22 0.41826)
(9.49936 1.33623e-19 0.498346)
(9.565 1.88313e-19 0.490663)
(9.37622 6.02047e-20 0.575034)
(9.4509 -6.37447e-20 0.568995)
(9.23946 -3.19352e-19 0.658488)
(9.32354 -6.76588e-20 0.654021)
(9.08888 3.53693e-19 0.749596)
(9.1828 -2.48768e-19 0.746616)
(8.92421 3.08053e-19 0.849316)
(9.02849 6.61453e-19 0.847754)
(8.74516 -2.62088e-19 0.958658)
(8.86036 -3.42131e-19 0.958471)
(8.55143 0 1.07869)
(8.67816 6.29965e-19 1.07984)
(8.34269 -6.86192e-19 1.21055)
(8.48156 -6.4826e-19 1.213)
(8.11865 3.95562e-20 1.35549)
(8.2703 -6.65875e-19 1.3592)
(7.87893 6.85431e-19 1.51478)
(8.04409 7.08171e-19 1.51981)
(7.62308 0 1.68975)
(7.80254 0 1.69621)
(7.35048 1.60012e-18 1.88171)
(7.54518 0 1.88986)
(7.06028 -1.77416e-19 2.09199)
(7.27129 3.71791e-20 2.10222)
(6.97986 -1.43456e-19 2.33483)
(9.98554 3.64339e-19 0.0943539)
(9.98894 1.78968e-19 0.0671323)
(9.95766 2.07676e-19 0.153491)
(9.97173 -1.20165e-20 0.129653)
(9.91622 2.52069e-20 0.212876)
(9.94139 2.30767e-19 0.191601)
(9.86147 0 0.274367)
(9.89481 -1.6019e-19 0.255135)
(9.79383 0 0.339168)
(9.83422 5.54702e-20 0.321613)
(9.71353 -1.22757e-19 0.408246)
(9.76137 -1.15755e-19 0.392114)
(9.62056 7.33802e-20 0.482446)
(9.67651 1.19782e-19 0.46758)
(9.51483 -1.35264e-20 0.562538)
(9.57937 1.66531e-21 0.548849)
(9.39624 -1.91831e-19 0.649282)
(9.46972 -2.59881e-19 0.636681)
(9.26467 0 0.743531)
(9.34745 0 0.731883)
(9.11998 7.39992e-20 0.84625)
(9.21251 0 0.835401)
(8.96196 -5.23945e-21 0.95849)
(9.06475 4.9099e-22 0.948295)
(8.7904 5.65691e-19 1.08135)
(8.90397 5.6275e-19 1.07169)
(8.60503 -3.75917e-20 1.21597)
(8.73004 1.2478e-20 1.20674)
(8.40562 -6.28499e-19 1.36362)
(8.54266 -1.29373e-18 1.35467)
(8.19189 2.28414e-20 1.52564)
(8.34155 1.32879e-18 1.51687)
(7.96355 1.21359e-20 1.70352)
(8.12649 -6.94432e-19 1.69484)
(7.72019 0 1.89876)
(7.8972 1.41095e-18 1.89014)
(7.46127 -1.56354e-18 2.11294)
(7.65322 1.00298e-20 2.10447)
(7.18593 6.53662e-20 2.34774)
(7.39385 -3.04444e-18 2.33961)
(7.11802 1.59323e-18 2.59754)
(9.98573 -2.00913e-19 0.10349)
(9.9891 0 0.0731471)
(9.95839 1.61221e-20 0.168917)
(9.97225 -1.97316e-19 0.141623)
(9.91825 3.75452e-20 0.234999)
(9.94289 4.49653e-22 0.209904)
(9.86548 -1.00609e-19 0.30354)
(9.89805 -5.37778e-20 0.280159)
(9.8004 -6.35222e-20 0.375746)
(9.83986 1.66024e-19 0.353694)
(9.72321 1.3119e-19 0.452676)
(9.76997 -1.15835e-19 0.431631)
(9.63396 4.59632e-20 0.535268)
(9.68867 3.60083e-19 0.515014)
(9.53258 -2.49401e-19 0.624345)
(9.59573 -1.86945e-19 0.604758)
(9.41899 -6.3561e-20 0.720711)
(9.49094 1.28052e-19 0.701657)
(9.29314 0 0.825269)
(9.37423 -2.6735e-19 0.806558)
(9.15491 -7.35586e-20 0.93906)
(9.24561 2.7552e-19 0.920467)
(9.00417 5.77602e-19 1.06322)
(9.10498 -1.43839e-19 1.04453)
(8.84076 1.13525e-21 1.19892)
(8.95218 4.5086e-20 1.17994)
(8.66452 -1.26419e-18 1.34741)
(8.78719 -8.48477e-20 1.32793)
(8.47521 7.01823e-19 1.51005)
(8.60975 -6.45602e-19 1.48986)
(8.27254 5.85045e-19 1.68833)
(8.41957 1.32066e-18 1.66725)
(8.05628 7.31822e-19 1.88386)
(8.21647 -6.87001e-19 1.86168)
(7.82612 1.40677e-18 2.0984)
(8.00025 1.38161e-18 2.0749)
(7.5815 -1.50382e-18 2.33381)
(7.7705 1.44193e-18 2.30892)
(7.32152 -1.473e-18 2.59215)
(7.52644 -2.91533e-18 2.56589)
(7.26698 2.63211e-22 2.84821)
(9.98614 0 0.112418)
(9.98921 1.18108e-20 0.0789938)
(9.95959 -2.08948e-19 0.183888)
(9.97305 -2.3226e-19 0.153254)
(9.92095 -9.20031e-20 0.256336)
(9.94496 -1.28349e-19 0.227547)
(9.87038 2.17157e-19 0.331596)
(9.90206 1.59744e-19 0.304176)
(9.8081 1.08494e-19 0.410885)
(9.84647 -1.09662e-19 0.384443)
(9.73432 1.21743e-19 0.495319)
(9.77981 3.60354e-22 0.469472)
(9.64911 1.17476e-19 0.585915)
(9.70236 1.1969e-19 0.560395)
(9.55244 1.9612e-19 0.683553)
(9.61394 0 0.658198)
(9.44427 -8.23287e-20 0.789067)
(9.51437 -1.90825e-19 0.763702)
(9.3246 1.69679e-20 0.903405)
(9.40366 -2.68996e-19 0.87778)
(9.19339 1.98793e-19 1.02768)
(9.28184 2.74399e-19 1.0015)
(9.05051 -6.74119e-19 1.1631)
(9.14886 2.81915e-19 1.13609)
(8.89587 -4.33638e-20 1.31092)
(9.0047 -6.6822e-19 1.28282)
(8.72942 5.27309e-19 1.47248)
(8.84926 1.21774e-18 1.44295)
(8.55094 0 1.64928)
(8.68232 -7.40533e-20 1.61805)
(8.36013 2.14273e-20 1.84294)
(8.50385 -6.41167e-19 1.80975)
(8.15685 -1.18711e-20 2.05518)
(8.31363 2.11843e-20 2.01968)
(7.94085 1.41708e-18 2.28798)
(8.11142 9.4871e-20 2.24979)
(7.71153 -8.64518e-21 2.54363)
(7.8969 1.25023e-19 2.50243)
(7.46795 -1.41683e-18 2.82458)
(7.66932 4.7001e-20 2.78018)
(7.42758 1.44423e-18 3.08595)
(9.98662 -2.25118e-19 0.121042)
(9.98922 1.18166e-20 0.0846377)
(9.9612 -1.49446e-19 0.198288)
(9.97402 1.16172e-20 0.164405)
(9.9243 1.29243e-19 0.276782)
(9.94749 2.57831e-20 0.244415)
(9.87612 -1.72272e-19 0.358429)
(9.9067 -1.57546e-19 0.327099)
(9.81688 -2.15879e-19 0.444454)
(9.85394 -4.39361e-19 0.413749)
(9.74678 3.89048e-22 0.536017)
(9.79073 1.14286e-19 0.505501)
(9.66591 5.89366e-23 0.634211)
(9.71737 -2.75556e-22 0.60357)
(9.57428 -3.90429e-19 0.739954)
(9.63378 2.4516e-19 0.708995)
(9.4719 -3.79037e-19 0.8541)
(9.5398 -6.36998e-19 0.822604)
(9.35885 -2.8418e-21 0.977638)
(9.4355 -1.34492e-21 0.945294)
(9.23513 3.57612e-19 1.11176)
(9.32093 -6.80483e-19 1.0782)
(9.10069 2.74255e-19 1.25776)
(9.19608 1.61456e-18 1.22264)
(8.95544 6.20665e-19 1.41694)
(9.06116 -4.33409e-19 1.37995)
(8.79932 5.98807e-19 1.59073)
(8.91585 1.35623e-18 1.55146)
(8.63228 -7.23031e-19 1.78079)
(8.7599 8.27071e-20 1.73881)
(8.45419 -6.34184e-19 1.98884)
(8.59387 -8.43381e-20 1.94378)
(8.26485 1.28877e-19 2.21673)
(8.4174 8.74588e-20 2.16811)
(8.064 -1.19932e-18 2.46672)
(8.23018 -2.61579e-18 2.41401)
(7.85114 1.77577e-19 2.74146)
(8.032 -4.3564e-20 2.68408)
(7.62542 2.92649e-18 3.04392)
(7.82222 1.21119e-18 2.98132)
(7.59995 5.1084e-20 3.3092)
(9.98717 2.48545e-19 0.129295)
(9.98926 0 0.0900523)
(9.96305 1.87163e-19 0.212011)
(9.97511 4.38157e-19 0.175)
(9.92809 -2.6472e-19 0.296237)
(9.95029 1.51105e-19 0.260424)
(9.88249 -4.30032e-19 0.383933)
(9.91181 2.09189e-19 0.348836)
(9.82649 -9.89643e-20 0.476326)
(9.86207 -7.15108e-22 0.441508)
(9.7603 1.11609e-19 0.574628)
(9.80251 6.84087e-22 0.539605)
(9.68403 2.49188e-19 0.679988)
(9.73345 2.34287e-19 0.644403)
(9.59776 -1.59882e-20 0.793347)
(9.65496 2.93802e-21 0.756966)
(9.50159 -2.48899e-19 0.915575)
(9.56695 -2.53128e-19 0.878134)
(9.39559 -6.90065e-19 1.04771)
(9.46947 1.30807e-19 1.00885)
(9.27981 6.11174e-19 1.19101)
(9.36258 -8.13372e-19 1.1503)
(9.1543 8.77762e-19 1.34686)
(9.24633 5.68314e-19 1.30386)
(9.019 3.26816e-19 1.51662)
(9.12107 6.58304e-20 1.47096)
(8.87377 8.23824e-19 1.70179)
(8.98636 4.53559e-19 1.65307)
(8.71875 7.21244e-19 1.90409)
(8.8421 8.14154e-20 1.85172)
(8.55411 6.42007e-19 2.12539)
(8.68909 6.37593e-19 2.06877)
(8.37963 -2.68798e-18 2.36777)
(8.52701 1.28274e-18 2.30629)
(8.19498 -1.43933e-18 2.63372)
(8.35574 -5.1908e-18 2.56672)
(7.99985 1.00196e-18 2.92618)
(8.17507 3.92706e-18 2.85279)
(7.7936 -1.68012e-18 3.24862)
(7.98454 -1.26905e-18 3.16786)
(7.78368 -2.78244e-18 3.51595)
(9.98783 1.97649e-19 0.137131)
(9.98937 0 0.0951893)
(9.9651 3.96147e-19 0.224995)
(9.97634 4.88504e-20 0.185001)
(9.93221 6.26438e-19 0.314628)
(9.95333 -4.97396e-20 0.27551)
(9.88937 6.349e-19 0.408023)
(9.91734 4.19851e-19 0.369303)
(9.8368 9.90638e-20 0.506415)
(9.8708 2.18572e-19 0.467635)
(9.7747 1.27501e-19 0.61105)
(9.81503 -2.26096e-19 0.571695)
(9.70325 -1.6039e-20 0.723107)
(9.75047 3.51198e-19 0.682774)
(9.62265 -2.38627e-19 0.843541)
(9.67735 -2.42758e-19 0.801945)
(9.53307 1.32968e-19 0.973261)
(9.59561 -2.49851e-19 0.930076)
(9.43456 -6.54402e-21 1.11337)
(9.50533 3.88593e-19 1.06819)
(9.32715 -8.36657e-19 1.26517)
(9.40651 -2.66152e-19 1.21754)
(9.21094 -2.52215e-19 1.43009)
(9.29931 -2.83138e-19 1.37951)
(9.08598 1.98014e-19 1.60961)
(9.18401 5.40223e-21 1.5556)
(8.95222 -2.94699e-19 1.80525)
(9.06027 6.90809e-20 1.74738)
(8.80984 3.84325e-21 2.01871)
(8.92845 -7.60105e-20 1.95634)
(8.65918 1.28664e-18 2.25201)
(8.78898 7.80781e-20 2.18429)
(8.50024 -1.27941e-18 2.50754)
(8.6418 -5.00644e-20 2.43364)
(8.33282 2.53888e-19 2.78798)
(8.48731 -1.33746e-18 2.70705)
(8.15674 1.62226e-18 3.09646)
(8.32517 2.66137e-18 3.00736)
(7.9717 -2.38157e-18 3.43687)
(8.15537 1.3335e-19 3.33819)
(7.9778 -4.01812e-18 3.70399)
(9.98859 -1.4799e-19 0.144505)
(9.98955 -2.3263e-20 0.100009)
(9.96734 -3.99412e-19 0.237191)
(9.97768 -1.21296e-19 0.194363)
(9.93666 -2.47377e-19 0.331886)
(9.95659 -2.0175e-19 0.289618)
(9.89673 -5.15847e-22 0.430621)
(9.92321 -1.56679e-19 0.388431)
(9.84775 -1.14746e-19 0.534635)
(9.88001 -1.07801e-19 0.492052)
(9.78992 7.69093e-21 0.645176)
(9.82823 -2.24747e-19 0.601672)
(9.72352 1.14436e-19 0.763424)
(9.7684 4.63901e-19 0.71856)
(9.64886 -2.54066e-19 0.890349)
(9.70092 7.74683e-22 0.843785)
(9.56615 1.56023e-20 1.02693)
(9.62574 -2.49315e-19 0.978261)
(9.47547 1.19259e-19 1.17435)
(9.5429 1.31074e-19 1.12312)
(9.37681 2.87927e-19 1.33395)
(9.45244 -9.34151e-22 1.27969)
(9.27029 -2.0977e-20 1.50719)
(9.35464 1.09159e-18 1.44934)
(9.15601 -1.23285e-19 1.69558)
(9.24959 -9.7962e-19 1.63362)
(9.03419 2.86712e-19 1.90069)
(9.13722 1.4715e-19 1.83408)
(8.90507 0 2.12417)
(9.0184 0 2.05221)
(8.76897 -1.26319e-18 2.36815)
(8.89301 -1.1997e-18 2.28986)
(8.62618 -1.19267e-19 2.63529)
(8.76143 -3.21047e-20 2.54959)
(8.47679 1.10313e-18 2.9284)
(8.62433 1.1134e-18 2.83421)
(8.3209 1.15589e-18 3.25075)
(8.48162 0 3.14666)
(8.1586 -1.51935e-18 3.60657)
(8.33379 1.15123e-18 3.49069)
(8.18106 -2.33916e-18 3.87106)
(9.98942 1.91193e-21 0.151381)
(9.96974 7.47411e-20 0.248552)
(9.94134 -1.10046e-19 0.347948)
(9.96 1.92148e-19 0.302716)
(9.90444 -2.63029e-19 0.451644)
(9.92933 -2.57106e-19 0.406166)
(9.85923 -2.19953e-19 0.560876)
(9.88959 -8.5995e-21 0.514673)
(9.80591 2.43528e-19 0.676871)
(9.84202 9.61448e-20 0.629428)
(9.74483 3.426e-19 0.800782)
(9.78717 -8.02645e-20 0.751633)
(9.67639 1.67274e-21 0.93361)
(9.72565 2.25036e-19 0.882344)
(9.60081 -1.28008e-19 1.07643)
(9.65733 8.70419e-22 1.02257)
(9.51815 8.74325e-21 1.23049)
(9.58215 -1.29478e-19 1.17355)
(9.42848 8.18583e-19 1.39718)
(9.50031 1.34538e-19 1.33664)
(9.33194 1.05804e-19 1.57794)
(9.41214 1.32543e-18 1.51322)
(9.22871 -6.95436e-19 1.7743)
(9.31763 -5.67405e-19 1.70484)
(9.11922 -1.41816e-19 1.98779)
(9.21722 -6.78079e-19 1.91293)
(9.00388 -1.214e-18 2.22008)
(9.11185 -1.35702e-19 2.13903)
(8.883 4.31294e-20 2.47342)
(9.0012 -9.48889e-19 2.3851)
(8.75701 1.212e-18 2.7505)
(8.88605 1.24743e-18 2.6537)
(8.62636 0 3.05425)
(8.76706 1.15095e-18 2.94766)
(8.49158 0 3.38802)
(8.64483 -1.16465e-18 3.26994)
(8.35324 3.21336e-19 3.75612)
(8.52009 0 3.62427)
(8.39373 2.90087e-20 4.01548)
(9.94629 3.92538e-20 0.363081)
(9.91258 7.15042e-21 0.471429)
(9.93596 -1.01214e-19 0.423044)
(9.87137 3.19783e-19 0.585549)
(9.89989 2.03666e-19 0.536165)
(9.82288 -2.39992e-19 0.706625)
(9.85682 1.16718e-20 0.655747)
(9.76754 -2.03466e-19 0.835768)
(9.80742 -2.50723e-20 0.7829)
(9.70577 2.25095e-19 0.974034)
(9.75233 2.31582e-19 0.918678)
(9.63774 0 1.1226)
(9.69129 -4.51758e-19 1.06424)
(9.56352 0 1.28278)
(9.62422 -2.33721e-19 1.2209)
(9.48327 6.54587e-19 1.45595)
(9.55148 7.16864e-19 1.38999)
(9.39719 6.38557e-19 1.64354)
(9.47332 7.75964e-19 1.5729)
(9.30569 -5.48096e-19 1.84702)
(9.38999 -1.25606e-19 1.77108)
(9.20939 -6.76581e-19 2.06786)
(9.30246 -5.49774e-19 1.98582)
(9.10878 1.48516e-19 2.30783)
(9.21126 -7.97931e-21 2.21877)
(9.00423 2.80128e-19 2.56921)
(9.11635 2.84171e-19 2.472)
(8.89629 1.18489e-18 2.85466)
(9.01872 -1.09331e-18 2.74801)
(8.78581 -2.91322e-20 3.16703)
(8.91924 2.29978e-18 3.0494)
(8.67381 -1.18288e-18 3.50963)
(8.81899 -2.60429e-18 3.37902)
(8.56141 -3.05413e-19 3.88663)
(8.71893 1.12981e-18 3.74046)
(8.62118 -1.71997e-18 4.13816)
(9.9213 1.01895e-19 0.489935)
(9.8843 -1.13204e-19 0.608564)
(9.91066 1.97535e-19 0.55604)
(9.84094 2.31792e-19 0.734286)
(9.87234 -2.10694e-19 0.680008)
(9.79168 4.2212e-19 0.868179)
(9.82869 2.28386e-19 0.811609)
(9.73689 -4.64673e-19 1.01139)
(9.78026 0 0.951959)
(9.67668 -6.91116e-19 1.16519)
(9.72663 -2.59942e-20 1.10236)
(9.61117 5.02834e-19 1.33091)
(9.66786 -2.39777e-19 1.26415)
(9.54056 8.41578e-19 1.50988)
(9.60435 5.03707e-19 1.43863)
(9.46524 -7.8707e-21 1.70346)
(9.53642 -1.12905e-19 1.62709)
(9.38593 -1.26615e-19 1.91299)
(9.46483 -1.29823e-19 1.83077)
(9.3033 1.35609e-19 2.13997)
(9.39054 0 2.051)
(9.21787 1.30443e-19 2.38623)
(9.31376 -1.16421e-19 2.28952)
(9.13017 -1.12067e-18 2.65405)
(9.2349 -2.61524e-19 2.54842)
(9.04103 3.19073e-20 2.94593)
(9.1552 -2.17083e-18 2.83002)
(8.95159 -3.11801e-19 3.26445)
(9.07594 2.46424e-18 3.1366)
(8.8633 -2.58597e-19 3.61266)
(8.99818 -1.16797e-18 3.4707)
(8.77801 -2.99427e-19 3.99441)
(8.92346 1.42978e-18 3.83551)
(8.85521 -1.44795e-18 4.23474)
(9.89773 9.54875e-20 0.629662)
(9.85977 -2.12193e-19 0.759566)
(9.88834 1.93233e-19 0.701935)
(9.8168 -2.05348e-19 0.897734)
(9.85069 -6.09384e-19 0.837493)
(9.7691 4.49811e-19 1.0454)
(9.80901 0 0.98193)
(9.71681 4.36529e-19 1.20391)
(9.76286 2.36553e-19 1.13664)
(9.66012 -2.38139e-19 1.37456)
(9.71249 4.35423e-19 1.30296)
(9.5994 -4.7602e-19 1.55857)
(9.65839 -6.84065e-19 1.48206)
(9.53533 -2.38055e-19 1.75717)
(9.60115 2.13754e-19 1.67505)
(9.46868 0 1.97164)
(9.54181 -7.0121e-19 1.8831)
(9.40003 -2.58531e-19 2.20348)
(9.48097 0 2.10764)
(9.33001 -5.18481e-19 2.4546)
(9.41879 -5.01758e-19 2.35042)
(9.25944 -1.33155e-18 2.72715)
(9.35614 2.2911e-19 2.61335)
(9.18954 3.00118e-19 3.02333)
(9.29465 -1.07623e-18 2.89843)
(9.12168 1.60915e-18 3.34533)
(9.23586 2.12165e-18 3.20767)
(9.05764 5.4477e-19 3.69574)
(9.18079 -1.77375e-18 3.54315)
(8.99996 2.73991e-19 4.07773)
(9.13182 2.0782e-18 3.90731)
(9.09287 -7.73079e-19 4.30289)
(9.879 -2.17397e-19 0.782118)
(9.84244 -3.96723e-19 0.924062)
(9.87312 -2.14682e-19 0.860282)
(9.80191 -2.18113e-19 1.07566)
(9.83826 0 1.00831)
(9.75762 2.35724e-19 1.23827)
(9.79974 -1.27681e-20 1.16676)
(9.70994 -2.28974e-20 1.41308)
(9.75798 2.36711e-19 1.33687)
(9.65949 2.39495e-20 1.60118)
(9.71366 -4.57885e-19 1.51965)
(9.60708 -2.60733e-19 1.80369)
(9.66752 6.90158e-19 1.71607)
(9.55335 -7.02441e-19 2.02192)
(9.62054 -4.93421e-19 1.92738)
(9.49885 -2.48494e-19 2.25741)
(9.57309 -2.31097e-19 2.1551)
(9.44435 2.63003e-19 2.51191)
(9.52558 2.19453e-19 2.40077)
(9.39103 4.97483e-19 2.78727)
(9.47929 5.08812e-19 2.66594)
(9.34042 7.7679e-19 3.08533)
(9.43609 -7.21932e-19 2.95225)
(9.29419 -1.3292e-18 3.40788)
(9.39755 7.82319e-19 3.26143)
(9.25447 -2.24569e-19 3.7569)
(9.36505 -2.34989e-18 3.59499)
(9.22408 1.02399e-18 4.13456)
(9.34153 2.10352e-18 3.95452)
(9.3306 -5.52392e-19 4.3417)
(9.86849 1.92937e-19 0.946875)
(9.83531 2.1062e-19 1.10184)
(9.86807 0 1.03077)
(9.7993 -1.12375e-20 1.26784)
(9.83739 -1.85453e-19 1.19228)
(9.76103 -2.09967e-19 1.44594)
(9.80456 -1.24494e-20 1.36533)
(9.72119 2.25823e-19 1.63711)
(9.77031 0 1.55081)
(9.6805 4.52543e-19 1.84244)
(9.73534 1.20319e-20 1.74969)
(9.63957 -9.96576e-21 2.0633)
(9.70048 -2.02553e-19 1.96324)
(9.59911 2.47828e-19 2.30114)
(9.66625 -1.64824e-20 2.19289)
(9.56016 4.70261e-19 2.55739)
(9.63344 7.07517e-19 2.43988)
(9.52415 -7.38711e-19 2.83348)
(9.6036 -4.58304e-19 2.70534)
(9.49273 -7.24478e-19 3.13087)
(9.57858 -5.08308e-19 2.99059)
(9.46785 -2.4685e-19 3.45095)
(9.55994 1.58687e-21 3.29698)
(9.45184 1.15001e-20 3.79499)
(9.54952 -1.08155e-20 3.62544)
(9.4476 5.03668e-19 4.16416)
(9.55029 4.96828e-19 3.97678)
(9.56543 2.4961e-19 4.35169)
(9.86948 -4.06731e-19 1.12356)
(9.84198 -1.86474e-19 1.29216)
(9.81329 2.03038e-19 1.47266)
(9.8519 6.01495e-19 1.38793)
(9.78404 -2.19389e-19 1.66594)
(9.82765 -6.02873e-19 1.57523)
(9.75488 -6.60207e-19 1.87311)
(9.80368 1.91788e-19 1.77564)
(9.72657 -2.09848e-19 2.09544)
(9.78077 -6.57405e-19 1.99034)
(9.70008 4.53162e-19 2.33416)
(9.75976 1.39264e-20 2.22049)
(9.67668 -2.41931e-19 2.5903)
(9.74173 6.67006e-19 2.46702)
(9.65789 -2.21269e-19 2.86494)
(9.72826 -4.70648e-19 2.73075)
(9.64545 2.34186e-19 3.15919)
(9.7211 -2.06147e-19 3.01271)
(9.64135 2.43337e-19 3.47395)
(9.72187 4.52359e-19 3.31379)
(9.64796 4.83912e-19 3.80984)
(9.7326 1.80704e-20 3.63441)
(9.66805 2.37006e-19 4.16721)
(9.756 2.45876e-19 3.9747)
(9.79485 -2.35314e-19 4.33453)
(9.86581 -2.25916e-19 1.49294)
(9.84692 -1.81017e-19 1.68741)
(9.88482 -8.11794e-19 1.59269)
(9.82919 1.95773e-19 1.89536)
(9.87172 6.19972e-19 1.79357)
(9.81353 -4.29283e-19 2.11783)
(9.86083 -4.19739e-19 2.0081)
(9.80112 2.31986e-19 2.35577)
(9.85315 4.00548e-19 2.23719)
(9.79326 4.35814e-19 2.60991)
(9.84991 -1.83927e-19 2.48151)
(9.79145 -4.56223e-19 2.881)
(9.85255 0 2.74165)
(9.79742 1.51698e-20 3.16984)
(9.86269 -4.57512e-19 3.01828)
(9.81318 2.22466e-19 3.47685)
(9.88202 6.80643e-19 3.31188)
(9.84093 -2.26996e-19 3.80206)
(9.91257 -1.13474e-20 3.62241)
(9.88319 -2.37137e-19 4.14516)
(9.95666 -2.19844e-19 3.94948)
(10.0167 2.06193e-19 4.2923)
(9.90932 9.91088e-21 1.7012)
(9.90309 -1.05233e-20 1.90866)
(9.90021 4.30977e-19 2.12979)
(9.94059 -4.03538e-19 2.01589)
(9.90185 -2.51372e-20 2.36529)
(9.9462 6.35368e-19 2.24239)
(9.90929 -6.31495e-19 2.61566)
(9.95744 -4.45423e-19 2.48291)
(9.92394 0 2.88139)
(9.97563 0 2.73778)
(9.94749 2.21435e-19 3.16286)
(10.0023 0 3.00733)
(9.98182 4.42874e-19 3.4601)
(10.039 2.19947e-19 3.29164)
(10.029 -3.70077e-21 3.7727)
(10.0878 2.24527e-19 3.59031)
(10.0911 2.33861e-19 4.09982)
(10.1505 -2.25455e-19 3.90257)
(10.2293 4.55069e-19 4.22722)
(9.98654 -1.9503e-19 2.13078)
(10.0019 2.06317e-19 2.36234)
(10.024 2.01658e-19 2.6074)
(10.0636 2.05194e-19 2.47111)
(10.0543 0 2.86615)
(10.0965 -3.96001e-19 2.71922)
(10.0943 -2.02518e-21 3.13862)
(10.1387 1.55442e-21 2.98018)
(10.1458 -3.77307e-21 3.42451)
(10.1916 -2.02854e-21 3.25373)
(10.2104 -1.98522e-21 3.72306)
(10.2568 -2.07846e-19 3.53922)
(10.2901 0 4.03312)
(10.3361 0 3.83562)
(10.431 5.15365e-20 4.14148)
(10.1366 -4.06982e-19 2.58523)
(10.1815 -3.95126e-19 2.83561)
(10.2143 -4.06236e-19 2.68626)
(10.2367 1.55644e-21 3.09773)
(10.2707 1.9642e-19 2.93735)
(10.3037 -2.10838e-19 3.37103)
(10.3383 0 3.19899)
(10.3839 -2.05982e-19 3.65456)
(10.4183 -2.11021e-19 3.47036)
(10.4787 5.28046e-20 3.94697)
(10.512 -1.98322e-19 3.75026)
(10.6207 5.28094e-20 4.03717)
(10.3044 1.99653e-19 2.79025)
(10.3734 1.9496e-19 3.04095)
(10.4542 0 3.30078)
(10.478 4.71748e-20 3.12839)
(10.5481 -2.03243e-19 3.56866)
(10.571 -4.80614e-20 3.385)
(10.6561 -1.98278e-19 3.84321)
(10.6773 -9.13669e-21 3.64812)
(10.7977 -1.93384e-19 3.91618)
(10.5965 -2.05141e-21 3.21489)
(10.7022 1.50992e-19 3.46682)
(10.8213 -4.23792e-21 3.72354)
(10.8312 1.98965e-19 3.53071)
(10.9614 -3.8333e-19 3.78026)
(10.9739 -1.89865e-19 3.58955)
)
;

boundaryField
{
    inlet
    {
        type            calculated;
        value           uniform (10 0 0);
    }
    outlet
    {
        type            calculated;
        value           nonuniform 0();
    }
    flap
    {
        type            calculated;
        value           nonuniform 0();
    }
    upperWall
    {
        type            calculated;
        value           nonuniform 0();
    }
    lowerWall
    {
        type            calculated;
        value           uniform (0 0 0);
    }
    frontAndBack
    {
        type            empty;
        value           nonuniform 0();
    }
    procBoundary3to0
    {
        type            processor;
        value           nonuniform List<vector> 
34
(
(9.98979 -1.8208e-21 0.104482)
(9.9791 -4.34453e-20 0.203053)
(9.97231 7.86778e-20 0.259259)
(9.96373 3.76334e-19 0.315203)
(9.95165 2.28862e-19 0.377265)
(9.94289 -1.85947e-19 0.438679)
(9.93028 -8.55887e-20 0.506946)
(9.92164 1.92358e-19 0.574074)
(9.91138 2.92603e-19 0.648547)
(9.90464 1.98158e-19 0.721277)
(9.89855 1.99256e-19 0.801696)
(9.89607 3.85726e-19 0.879722)
(9.89522 1.86656e-19 0.965921)
(9.89854 -1.86027e-19 1.04901)
(9.87576 -4.05875e-19 1.2128)
(9.88514 4.03774e-19 1.31093)
(9.89928 2.13335e-19 1.40448)
(9.91792 -3.88033e-19 1.50659)
(9.94158 -3.86719e-19 1.60282)
(9.93939 3.95638e-19 1.80293)
(9.97676 -7.14746e-21 1.91242)
(10.02 -1.22063e-20 2.01328)
(10.0385 0 2.23583)
(10.1005 -1.38403e-21 2.34686)
(10.1676 -1.90513e-19 2.44621)
(10.2459 -1.89276e-19 2.54944)
(10.3278 9.22398e-20 2.63933)
(10.3973 2.94156e-19 2.87952)
(10.5033 1.42756e-19 2.96916)
(10.6099 2.53365e-20 3.04296)
(10.7142 -4.92603e-20 3.28444)
(10.8454 0 3.35043)
(10.9731 1.80124e-19 3.39949)
(11.1114 -9.20322e-19 3.63097)
)
;
    }
    procBoundary3to1
    {
        type            processor;
        value           nonuniform List<vector> 9((9.45875 -2.6009e-19 4.55917) (9.70493 7.28968e-19 4.5458) (9.9428 2.42573e-19 4.50518) (10.1705 9.0084e-19 4.44006) (10.3865 -2.77008e-19 4.35304) (10.5897 1.05321e-19 4.24652) (10.7791 -7.66813e-20 4.12266) (10.9544 -1.9316e-19 3.98337) (11.1152 -1.87237e-19 3.83035));
    }
    procBoundary3to4
    {
        type            processor;
        value           nonuniform List<vector> 
19
(
(4.76227 2.78785e-20 0.245607)
(5.68125 -2.73949e-20 0.631066)
(6.0913 1.0772e-19 1.02975)
(6.31898 -2.62218e-18 1.38542)
(6.47836 -2.16156e-19 1.71497)
(6.61587 1.016e-19 2.02577)
(6.75119 1.00334e-19 2.32175)
(6.8929 -1.22545e-19 2.6049)
(7.0448 6.18633e-20 2.87567)
(7.20866 3.61264e-20 3.13357)
(7.38538 2.79753e-18 3.37735)
(7.57509 -2.75245e-18 3.60498)
(7.77697 -2.75108e-18 3.81386)