/*--------------------------------*- C++ -*----------------------------------*\
| =========                 |                                                 |
| \\      /  F ield         | OpenFOAM: The Open Source CFD Toolbox           |
|  \\    /   O peration     | Version:  dev                                   |
|   \\  /    A nd           | Web:      www.OpenFOAM.org                      |
|    \\/     M anipulation  |                                                 |
\*---------------------------------------------------------------------------*/
FoamFile
{
    version     2.0;
    format      ascii;
    class       volVectorField;
    location    "4.23";
    object      cellDisplacement;
}
// * * * * * * * * * * * * * * * * * * * * * * * * * * * * * * * * * * * * * //

dimensions      [0 1 0 0 0 0 0];

internalField   nonuniform List<vector> 
465
(
(0.00309561 0 7.18113e-06)
(0.00892059 0 2.15174e-05)
(0.00312671 0 6.00692e-06)
(0.00901256 0 1.80647e-05)
(0.0142249 0 3.08004e-05)
(0.00315679 0 4.60961e-06)
(0.00910164 0 1.39516e-05)
(0.0143722 0 2.40587e-05)
(0.0190486 0 3.58156e-05)
(0.00318523 0 2.99698e-06)
(0.00918618 0 9.20698e-06)
(0.0145125 0 1.62706e-05)
(0.0192462 0 2.49169e-05)
(0.0234624 0 3.56451e-05)
(0.00321146 0 1.18157e-06)
(0.00926449 0 3.86721e-06)
(0.0146431 0 7.50976e-06)
(0.0194308 0 1.26526e-05)
(0.0237039 0 1.9653e-05)
(0.0275296 0 2.86933e-05)
(0.0032349 0 -8.18871e-07)
(0.00933496 0 -2.01554e-06)
(0.0147614 0 -2.13639e-06)
(0.0195991 0 -8.35031e-07)
(0.0239248 0 2.0783e-06)
(0.0278063 0 6.65865e-06)
(0.0313033 0 1.28078e-05)
(0.003255 0 -2.98125e-06)
(0.00939601 0 -8.37334e-06)
(0.0148652 0 -1.2555e-05)
(0.0197478 0 -1.53842e-05)
(0.0241213 0 -1.68424e-05)
(0.0280532 0 -1.70223e-05)
(0.0316033 0 -1.61281e-05)
(0.0348252 0 -1.44971e-05)
(0.0377673 0 -1.25251e-05)
(0.00327126 0 -5.27712e-06)
(0.00944619 0 -1.51227e-05)
(0.014952 0 -2.36083e-05)
(0.019874 0 -3.07997e-05)
(0.0242896 0 -3.68492e-05)
(0.0282661 0 -4.19949e-05)
(0.0318629 0 -4.65691e-05)
(0.0351328 0 -5.10124e-05)
(0.0381231 0 -5.58651e-05)
(0.040876 0 -6.19171e-05)
(0.0032832 0 -7.6729e-06)
(0.00948416 0 -2.21652e-05)
(0.0150197 0 -3.51348e-05)
(0.0199749 0 -4.68541e-05)
(0.0244265 0 -5.76428e-05)
(0.0284412 0 -6.78775e-05)
(0.0320778 0 -7.80083e-05)
(0.0353882 0 -8.85757e-05)
(0.0384188 0 -0.000100224)
(0.0412106 0 -0.000113739)
(0.0438 0 -0.000130036)
(0.0462191 0 -0.000150095)
(0.00329046 0 -1.01402e-05)
(0.00950887 0 -2.94183e-05)
(0.0150669 0 -4.70003e-05)
(0.0200484 0 -6.33597e-05)
(0.0245294 0 -7.89773e-05)
(0.0285758 0 -9.43587e-05)
(0.0322453 0 -0.000110059)
(0.0355889 0 -0.000126705)
(0.0386516 0 -0.000145008)
(0.0414735 0 -0.000165791)
(0.0440897 0 -0.000189982)
(0.0465317 0 -0.000218621)
(0.0488277 0 -0.00025302)
(0.0509999 0 -0.000294219)
(0.00329282 0 -1.26365e-05)
(0.00951957 0 -3.67574e-05)
(0.015092 0 -5.90011e-05)
(0.0200927 0 -8.0033e-05)
(0.0245962 0 -0.000100485)
(0.0286672 0 -0.000120979)
(0.0323624 0 -0.000142161)
(0.0357315 0 -0.000164725)
(0.0388185 0 -0.000189427)
(0.0416619 0 -0.000217105)
(0.0442957 0 -0.00024868)
(0.0467497 0 -0.000285164)
(0.0490497 0 -0.000327677)
(0.0512168 0 -0.000377317)
(0.0532674 0 -0.00043539)
(0.00328993 0 -1.51039e-05)
(0.00951531 0 -4.40124e-05)
(0.0150937 0 -7.08602e-05)
(0.0201057 0 -9.64899e-05)
(0.0246242 0 -0.00012167)
(0.0287126 0 -0.000147126)
(0.0324262 0 -0.000173578)
(0.0358133 0 -0.00020177)
(0.0389166 0 -0.00023248)
(0.0417733 0 -0.000266542)
(0.044416 0 -0.000304846)
(0.0468732 0 -0.000348336)
(0.0491688 0 -0.000398011)
(0.0513229 0 -0.00045488)
(0.0533513 0 -0.000520003)
(0.0552664 0 -0.000594439)
(0.0570775 0 -0.000679159)
(0.00328161 0 -1.74924e-05)
(0.00949553 0 -5.10381e-05)
(0.015071 0 -8.23425e-05)
(0.0200863 0 -0.000112407)
(0.0246124 0 -0.000142121)
(0.0287109 0 -0.000172297)
(0.0324355 0 -0.000203714)
(0.0358333 0 -0.000237145)
(0.0389453 0 -0.000273377)
(0.0418078 0 -0.000313221)
(0.0444518 0 -0.000357513)
(0.0469045 0 -0.000407118)
(0.0491887 0 -0.000462914)
(0.0513233 0 -0.000525779)
(0.0533235 0 -0.00059658)
(0.0552014 0 -0.000676145)
(0.0569655 0 -0.000765216)
(0.0586213 0 -0.000864477)
(0.0601721 0 -0.00097439)
(0.00326776 0 -1.97505e-05)
(0.00945999 0 -5.76835e-05)
(0.0150236 0 -9.32039e-05)
(0.0200342 0 -0.000127451)
(0.0245603 0 -0.000161415)
(0.0286616 0 -0.00019598)
(0.0323902 0 -0.000231966)
(0.0357915 0 -0.000270163)
(0.0389055 0 -0.000311346)
(0.0417667 0 -0.00035629)
(0.0444053 0 -0.000405767)
(0.0468471 0 -0.000460549)
(0.049114 0 -0.000521394)
(0.0512241 0 -0.000589033)
(0.0531922 0 -0.000664154)
(0.0550298 0 -0.000747378)
(0.0567455 0 -0.00083923)
(0.0583454 0 -0.000940117)
(0.0598331 0 -0.00105027)
(0.0612104 0 -0.00116977)
(0.0624776 0 -0.00129842)
(0.00324842 0 -2.18252e-05)
(0.00940873 0 -6.37947e-05)
(0.0149516 0 -0.000103196)
(0.0199493 0 -0.000141282)
(0.024468 0 -0.000179125)
(0.0285651 0 -0.000217661)
(0.0322909 0 -0.000257739)
(0.0356893 0 -0.000300148)
(0.0387988 0 -0.00034564)
(0.0416527 0 -0.00039494)
(0.04428 0 -0.000448751)
(0.0467056 0 -0.000507745)
(0.0489505 0 -0.000572559)
(0.0510324 0 -0.000643781)
(0.0529656 0 -0.000721933)
(0.0547615 0 -0.000807451)
(0.0564289 0 -0.000900663)
(0.0579743 0 -0.00100177)
(0.0594021 0 -0.0011108)
(0.0607152 0 -0.00122763)
(0.0619153 0 -0.00135191)
(0.00322373 0 -2.3664e-05)
(0.00934216 0 -6.92173e-05)
(0.0148555 0 -0.00011207)
(0.0198326 0 -0.000153561)
(0.0243366 0 -0.000194826)
(0.0284228 0 -0.000236836)
(0.0321395 0 -0.00028045)
(0.0355289 0 -0.000326445)
(0.0386281 0 -0.000375541)
(0.0414693 0 -0.000428407)
(0.0440805 0 -0.000485667)
(0.0464856 0 -0.000547895)
(0.0487051 0 -0.000615613)
(0.0507561 0 -0.000689272)
(0.0526528 0 -0.000769245)
(0.0544066 0 -0.000855808)
(0.0560266 0 -0.000949124)
(0.0575198 0 -0.00104922)
(0.0588915 0 -0.00115599)
(0.0601454 0 -0.00126915)
(0.00319396 0 -2.52148e-05)
(0.00926099 0 -7.37996e-05)
(0.0147365 0 -0.00011958)
(0.0196855 0 -0.000163957)
(0.0241681 0 -0.000208105)
(0.028237 0 -0.000253012)
(0.0319387 0 -0.000299536)
(0.0353137 0 -0.000348431)
(0.0383977 0 -0.000400375)
(0.0412216 0 -0.000455976)
(0.0438126 0 -0.00051578)
(0.0461939 0 -0.000580266)
(0.0483854 0 -0.000649845)
(0.0504038 0 -0.000724847)
(0.0522633 0 -0.000805516)
(0.0539755 0 -0.000891991)
(0.0555497 0 -0.0009843)
(0.0569937 0 -0.00108235)
(0.0583133 0 -0.0011859)
(0.0595134 0 -0.00129458)
(0.00315947 0 -2.64278e-05)
(0.00916629 0 -7.7395e-05)
(0.0145961 0 -0.000125491)
(0.01951 0 -0.000172148)
(0.0239649 0 -0.00021856)
(0.0280109 0 -0.000265717)
(0.0316923 0 -0.000314461)
(0.0350481 0 -0.000365514)
(0.0381125 0 -0.000419507)
(0.0409154 0 -0.000476984)
(0.0434831 0 -0.000538415)
(0.045838 0 -0.00060419)
(0.0479997 0 -0.00067462)
(0.0499848 0 -0.000749929)
(0.0518072 0 -0.000830248)
(0.0534788 0 -0.000915609)
(0.0550094 0 -0.00100593)
(0.0564072 0 -0.00110103)
(0.0576789 0 -0.00120058)
(0.05883 0 -0.00130416)
(0.00312078 0 -2.72557e-05)
(0.00905945 0 -7.98647e-05)
(0.0144366 0 -0.000129576)
(0.0193091 0 -0.00017783)
(0.0237306 0 -0.000225814)
(0.0277485 0 -0.000274506)
(0.0314051 0 -0.00032472)
(0.0347376 0 -0.000377141)
(0.0377788 0 -0.000432347)
(0.0405577 0 -0.000490821)
(0.0430996 0 -0.000552957)
(0.0454265 0 -0.000619065)
(0.0475575 0 -0.000689368)
(0.049509 0 -0.000764)
(0.0512951 0 -0.000843001)
(0.0529277 0 -0.000926314)
(0.0544172 0 -0.00101378)
(0.055772 0 -0.00110515)
(0.0569997 0 -0.00120005)
(0.0581065 0 -0.00129804)
(0.00307848 0 -2.7655e-05)
(0.00894219 0 -8.108e-05)
(0.0142605 0 -0.000131627)
(0.0190862 0 -0.000180716)
(0.0234695 0 -0.000229513)
(0.027455 0 -0.000278964)
(0.0310829 0 -0.000329847)
(0.0343887 0 -0.000382803)
(0.037404 0 -0.000438356)
(0.0401565 0 -0.000496927)
(0.042671 0 -0.000558843)
(0.0449688 0 -0.000624342)
(0.0470688 0 -0.000693571)
(0.0489872 0 -0.00076659)
(0.0507381 0 -0.000843368)
(0.0523338 0 -0.000923781)
(0.0537847 0 -0.00100762)
(0.0551 0 -0.00109458)
(0.0562875 0 -0.00118428)
(0.0573544 0 -0.00127625)
(0.0030333 0 -2.75863e-05)
(0.00881656 0 -8.09244e-05)
(0.0140712 0 -0.000131454)
(0.0188456 0 -0.00018055)
(0.0231866 0 -0.000229334)
(0.0271363 0 -0.000278712)
(0.0307324 0 -0.000329415)
(0.034009 0 -0.000382034)
(0.0369962 0 -0.000437039)
(0.0397209 0 -0.000494793)
(0.042207 0 -0.000555562)
(0.0444754 0 -0.000619521)
(0.0465447 0 -0.000686755)
(0.0484309 0 -0.000757264)
(0.0501482 0 -0.000830962)
(0.0517091 0 -0.000907682)
(0.0531243 0 -0.000987176)
(0.0544034 0 -0.00106912)
(0.0555546 0 -0.00115312)
(0.0565855 0 -0.00123873)
(0.00298609 0 -2.70156e-05)
(0.00868495 0 -7.92958e-05)
(0.0138722 0 -0.000128889)
(0.0185921 0 -0.0001771)
(0.022888 0 -0.000224991)
(0.0267991 0 -0.000273412)
(0.0303614 0 -0.000323041)
(0.033607 0 -0.000374417)
(0.0365649 0 -0.000427953)
(0.039261 0 -0.00048396)
(0.0417184 0 -0.00054265)
(0.0439577 0 -0.000604143)
(0.045997 0 -0.000668477)
(0.0478524 0 -0.000735604)
(0.0495382 0 -0.000805403)
(0.0510667 0 -0.000877674)
(0.0524491 0 -0.000952153)
(0.0536952 0 -0.00102851)
(0.0548138 0 -0.00110636)
(0.0558126 0 -0.00118527)
(0.00293778 0 -2.59143e-05)
(0.00855007 0 -7.61085e-05)
(0.0136678 0 -0.000123789)
(0.0183313 0 -0.000170169)
(0.0225803 0 -0.000216235)
(0.0264515 0 -0.00026277)
(0.0299787 0 -0.000310392)
(0.0331925 0 -0.000359582)
(0.0361206 0 -0.000410704)
(0.038788 0 -0.000464017)
(0.0412171 0 -0.000519684)
(0.0434281 0 -0.000577785)
(0.0454389 0 -0.000638318)
(0.0472653 0 -0.000701204)
(0.0489216 0 -0.000766297)
(0.0504204 0 -0.000833384)
(0.051773 0 -0.000902195)
(0.0529895 0 -0.000972406)
(0.0540789 0 -0.00104365)
(0.0550493 0 -0.00111553)
(0.00288944 0 -2.42606e-05)
(0.00841498 0 -7.12956e-05)
(0.0134629 0 -0.00011604)
(0.0180695 0 -0.000159598)
(0.0222712 0 -0.000202863)
(0.0261022 0 -0.000246541)
(0.0295942 0 -0.000291186)
(0.0327762 0 -0.000337219)
(0.0356749 0 -0.000384953)
(0.0383143 0 -0.0004346)
(0.0407163 0 -0.000486287)
(0.0429004 0 -0.000540056)
(0.0448843 0 -0.00059588)
(0.0466839 0 -0.00065366)
(0.0483133 0 -0.000713238)
(0.0497853 0 -0.000774399)
(0.0511112 0 -0.000836878)
(0.0523013 0 -0.000900371)
(0.0533649 0 -0.000964538)
(0.0543104 0 -0.00102901)
(0.00284228 0 -2.20399e-05)
(0.00828312 0 -6.48107e-05)
(0.0132628 0 -0.000105563)
(0.0178138 0 -0.000145271)
(0.0219693 0 -0.000184723)
(0.025761 0 -0.00022454)
(0.0292189 0 -0.000265202)
(0.0323703 0 -0.000307075)
(0.0352409 0 -0.000350418)
(0.0378538 0 -0.000395404)
(0.0402302 0 -0.000442125)
(0.0423895 0 -0.000490601)
(0.0443489 0 -0.000540784)
(0.0461242 0 -0.000592569)
(0.0477295 0 -0.000645796)
(0.0491775 0 -0.000700258)
(0.0504799 0 -0.000755709)
(0.0516469 0 -0.000811869)
(0.0526881 0 -0.000868432)
(0.053612 0 -0.000925074)
(0.00279764 0 -1.92457e-05)
(0.00815837 0 -5.66318e-05)
(0.0130737 0 -9.23134e-05)
(0.0175722 0 -0.00012712)
(0.0216842 0 -0.000161721)
(0.0254392 0 -0.000196643)
(0.0288651 0 -0.000232291)
(0.0319881 0 -0.000268967)
(0.0348327 0 -0.000306886)
(0.0374214 0 -0.000346182)
(0.0397748 0 -0.00038692)
(0.0419117 0 -0.000429103)
(0.0438494 0 -0.000472675)
(0.0456033 0 -0.000517531)
(0.0471875 0 -0.000563522)
(0.0486149 0 -0.000610458)
(0.0498971 0 -0.000658119)
(0.0510444 0 -0.000706257)
(0.0520666 0 -0.000754608)
(0.0529722 0 -0.000802893)
(0.00275706 0 -1.58813e-05)
(0.00804516 0 -4.67643e-05)
(0.0129024 0 -7.62925e-05)
(0.0173538 0 -0.000105135)
(0.0214269 0 -0.000133831)
(0.0251491 0 -0.000162805)
(0.0285466 0 -0.000192381)
(0.0316445 0 -0.0002228)
(0.0344663 0 -0.000254228)
(0.0370339 0 -0.000286767)
(0.0393673 0 -0.00032046)
(0.0414852 0 -0.0003553)
(0.0434043 0 -0.000391232)
(0.0451402 0 -0.000428161)
(0.0467069 0 -0.000465956)
(0.0481171 0 -0.000504454)
(0.0493825 0 -0.000543468)
(0.0505136 0 -0.000582792)
(0.0515201 0 -0.000622206)
(0.0524108 0 -0.000661482)
(0.00272235 0 -1.19612e-05)
(0.0079487 0 -3.52465e-05)
(0.012757 0 -5.75531e-05)
(0.017169 0 -7.9375e-05)
(0.0212098 0 -0.000101112)
(0.0249048 0 -0.000123076)
(0.0282789 0 -0.000145507)
(0.0313563 0 -0.000168581)
(0.0341595 0 -0.000192418)
(0.0367099 0 -0.00021709)
(0.0390273 0 -0.000242623)
(0.0411299 0 -0.000269007)
(0.0430343 0 -0.000296194)
(0.0447559 0 -0.000324108)
(0.0463087 0 -0.000352644)
(0.0477055 0 -0.000381676)
(0.0489578 0 -0.000411059)
(0.0500763 0 -0.000440634)
(0.0510707 0 -0.000470234)
(0.05195 0 -0.000499685)
(0.00269576 0 -7.51315e-06)
(0.00787525 0 -2.21559e-05)
(0.0126472 0 -3.62111e-05)
(0.0170302 0 -4.99846e-05)
(0.0210473 0 -6.37239e-05)
(0.0247225 0 -7.76231e-05)
(0.0280796 0 -9.18307e-05)
(0.0311421 0 -0.000106455)
(0.0339319 0 -0.00012157)
(0.0364701 0 -0.000137218)
(0.038776 0 -0.000153415)
(0.0408678 0 -0.000170151)
(0.0427618 0 -0.000187393)
(0.0444734 0 -0.00020509)
(0.0460166 0 -0.000223175)
(0.0474039 0 -0.000241563)
(0.0486472 0 -0.000260163)
(0.049757 0 -0.000278871)
(0.0507431 0 -0.00029758)
(0.0516143 0 -0.000316178)
(0.00268024 0 -2.58164e-06)
(0.00783295 0 -7.61769e-06)
(0.0125847 0 -1.24593e-05)
(0.0169519 0 -1.72103e-05)
(0.0209562 0 -2.19553e-05)
(0.0246207 0 -2.67606e-05)
(0.0279687 0 -3.16768e-05)
(0.0310232 0 -3.67411e-05)
(0.0338059 0 -4.19786e-05)
(0.0363376 0 -4.74037e-05)
(0.0386374 0 -5.30212e-05)
(0.0407234 0 -5.88273e-05)
(0.042612 0 -6.48104e-05)
(0.0443184 0 -7.09523e-05)
(0.0458565 0 -7.72288e-05)
(0.0472389 0 -8.36107e-05)
(0.0484775 0 -9.0065e-05)
(0.0495827 0 -9.65557e-05)
(0.0505644 0 -0.000103045)
(0.0514315 0 -0.000109494)
)
;

boundaryField
{
    inlet
    {
        type            cellMotion;
        value           uniform (0 0 0);
    }
    outlet
    {
        type            cellMotion;
        value           nonuniform 0();
    }
    flap
    {
        type            cellMotion;
        value           nonuniform 0();
    }
    upperWall
    {
        type            slip;
    }
    lowerWall
    {
        type            slip;
    }
    frontAndBack
    {
        type            empty;
    }
    procBoundary0to1
    {
        type            processor;
        value           nonuniform List<vector> 
18
(
(0.063635 0 -0.00143577)
(0.0630049 0 -0.00148305)
(0.0612858 0 -0.00138823)
(0.0612858 0 -0.00138823)
(0.0605996 0 -0.00140787)
(0.0598674 0 -0.00141122)
(0.0591001 0 -0.00139855)
(0.0583089 0 -0.00136997)
(0.0575053 0 -0.00132545)
(0.0567016 0 -0.00126479)
(0.0559111 0 -0.00118763)
(0.0551485 0 -0.00109344)
(0.0544298 0 -0.000981488)
(0.0537728 0 -0.000850851)
(0.0531974 0 -0.000700409)
(0.0527258 0 -0.000528829)
(0.0523828 0 -0.000334565)
(0.052196 0 -0.000115867)
)
;
    }
    procBoundary0to3
    {
        type            processor;
        value           nonuniform List<vector> 
34
(
(0.00306432 0 8.13173e-06)
(0.00882828 0 2.43301e-05)
(0.0140735 0 3.65304e-05)
(0.0140735 0 3.65304e-05)
(0.0188421 0 4.53554e-05)
(0.0188421 0 4.53554e-05)
(0.0232052 0 5.00041e-05)
(0.0232052 0 5.00041e-05)
(0.0272284 0 4.89431e-05)
(0.0272284 0 4.89431e-05)
(0.0309684 0 3.99968e-05)
(0.0309684 0 3.99968e-05)
(0.0344706 0 2.04878e-05)
(0.0344706 0 2.04878e-05)
(0.0373568 0 2.9303e-05)
(0.040473 0 -1.07899e-05)
(0.040473 0 -1.07899e-05)
(0.0434302 0 -6.9813e-05)
(0.0434302 0 -6.9813e-05)
(0.0458197 0 -8.06487e-05)
(0.0485008 0 -0.000175146)
(0.0485008 0 -0.000175146)
(0.0506696 0 -0.000206608)
(0.0530662 0 -0.000343625)
(0.0530662 0 -0.000343625)
(0.055216 0 -0.000503003)
(0.055216 0 -0.000503003)
(0.0570719 0 -0.000581534)
(0.0587905 0 -0.000775077)
(0.0587905 0 -0.000775077)
(0.0604077 0 -0.000883039)
(0.0616188 0 -0.00109525)
(0.0616188 0 -0.00109525)
(0.06296 0 -0.00122715)
)
;
    }
}


// ************************************************************************* //
