/*--------------------------------*- C++ -*----------------------------------*\
| =========                 |                                                 |
| \\      /  F ield         | OpenFOAM: The Open Source CFD Toolbox           |
|  \\    /   O peration     | Version:  dev                                   |
|   \\  /    A nd           | Web:      www.OpenFOAM.org                      |
|    \\/     M anipulation  |                                                 |
\*---------------------------------------------------------------------------*/
FoamFile
{
    version     2.0;
    format      ascii;
    class       surfaceScalarField;
    location    "2.86";
    object      meshPhi;
}
// * * * * * * * * * * * * * * * * * * * * * * * * * * * * * * * * * * * * * //

dimensions      [0 3 -1 0 0 0 0];

internalField   nonuniform List<scalar> 
5457
(
2.10569e-05
-1.98272e-07
4.11775e-05
-5.94041e-07
6.06005e-05
-1.01317e-06
7.94331e-05
-1.47498e-06
9.70122e-05
-1.97229e-06
0.00011226
-2.47487e-06
0.000124018
-2.93854e-06
0.000131291
-3.31648e-06
0.000133431
-3.56738e-06
0.000130259
-3.65904e-06
0.000122097
-3.57431e-06
0.000109728
-3.3137e-06
9.42801e-05
-2.89487e-06
7.70803e-05
-2.35257e-06
5.94847e-05
-1.73477e-06
4.27221e-05
-1.09461e-06
2.77819e-05
-4.83862e-07
1.533e-05
5.31466e-08
5.67011e-06
4.85461e-07
-1.22382e-06
7.98551e-07
-4.95818e-06
9.55366e-07
-5.9132e-06
9.30279e-07
-5.47368e-06
7.89005e-07
-4.39429e-06
6.1333e-07
-3.09271e-06
4.38487e-07
-1.87638e-06
2.83106e-07
-9.32092e-07
1.59359e-07
-3.3581e-07
7.31317e-08
-6.93025e-08
2.43244e-08
4.42748e-09
2.08516e-05
-3.91001e-07
4.08534e-05
-1.17354e-06
6.02594e-05
-2.00691e-06
7.91661e-05
-2.92979e-06
9.68928e-05
-3.92658e-06
0.000112336
-4.93554e-06
0.000124315
-5.86976e-06
0.000131809
-6.63625e-06
0.000134141
-7.1504e-06
0.00013111
-7.34646e-06
0.000123026
-7.18903e-06
0.000110667
-6.67849e-06
9.5165e-05
-5.84847e-06
7.78584e-05
-4.76768e-06
6.01223e-05
-3.53267e-06
4.32044e-05
-2.25034e-06
2.81137e-05
-1.02522e-06
1.55339e-05
5.35517e-08
5.77985e-06
9.22367e-07
-1.15564e-06
1.5502e-06
-4.94849e-06
1.86759e-06
-5.94304e-06
1.82564e-06
-5.47993e-06
1.54937e-06
-4.38595e-06
1.20241e-06
-3.07615e-06
8.57989e-07
-1.85853e-06
5.52412e-07
-9.18011e-07
3.09716e-07
-3.27653e-07
1.41257e-07
-6.61387e-08
4.64982e-08
8.2069e-09
2.05944e-05
-5.73981e-07
4.04261e-05
-1.72663e-06
5.97672e-05
-2.96294e-06
7.87094e-05
-4.34074e-06
9.65582e-05
-5.8349e-06
0.00011219
-7.35171e-06
0.000124405
-8.76336e-06
0.000132159
-9.93156e-06
0.00013475
-1.07267e-05
0.000131947
-1.10481e-05
0.000124043
-1.084e-05
0.000111803
-1.01002e-05
9.6351e-05
-8.87959e-06
7.90275e-05
-7.28041e-06
6.12202e-05
-5.44474e-06
4.41938e-05
-3.53227e-06
2.89709e-05
-1.69972e-06
1.62496e-05
-8.12482e-08
6.36257e-06
1.22621e-06
-6.86031e-07
2.17313e-06
-4.59606e-06
2.66082e-06
-5.67565e-06
2.61912e-06
-5.25237e-06
2.22543e-06
-4.20177e-06
1.72321e-06
-2.93656e-06
1.22538e-06
-1.76307e-06
7.85049e-07
-8.62563e-07
4.37222e-07
-3.02524e-07
1.97587e-07
-5.8085e-08
6.41957e-08
1.09635e-08
2.03003e-05
-7.42601e-07
3.99123e-05
-2.23968e-06
5.9133e-05
-3.85903e-06
7.80549e-05
-5.67785e-06
9.59768e-05
-7.66242e-06
0.000111767
-9.68888e-06
0.000124213
-1.1587e-05
0.000132251
-1.3172e-05
0.000135155
-1.42708e-05
0.000132668
-1.47474e-05
0.000125056
-1.45227e-05
0.000113061
-1.35887e-05
9.77873e-05
-1.20141e-05
8.05672e-05
-9.93329e-06
6.27894e-05
-7.52901e-06
4.5728e-05
-5.01113e-06
3.04132e-05
-2.58705e-06
1.7555e-05
-4.35658e-07
7.50757e-06
1.31191e-06
2.83758e-07
2.58565e-06
-3.79895e-06
3.25961e-06
-5.02294e-06
3.24456e-06
-4.72357e-06
2.7641e-06
-3.79055e-06
2.13544e-06
-2.63555e-06
1.51059e-06
-1.5628e-06
9.59731e-07
-7.49371e-07
5.2837e-07
-2.5409e-07
2.35245e-07
-4.41177e-08
7.49804e-08
1.22893e-08
1.99188e-05
-8.91829e-07
3.92395e-05
-2.699e-06
5.82899e-05
-4.67489e-06
7.71652e-05
-6.91598e-06
9.51588e-05
-9.37996e-06
0.00011113
-1.19129e-05
0.000123853
-1.43033e-05
0.000132245
-1.63216e-05
0.000135553
-1.77516e-05
0.000133488
-1.84212e-05
0.000126278
-1.82276e-05
0.000114633
-1.71549e-05
9.96341e-05
-1.52822e-05
8.25983e-05
-1.27705e-05
6.49087e-05
-9.8416e-06
4.78453e-05
-6.7527e-06
3.24453e-05
-3.76007e-06
1.94321e-05
-1.08634e-06
9.18891e-06
1.10224e-06
1.74939e-06
2.71248e-06
-2.55782e-06
3.59304e-06
-3.99347e-06
3.63914e-06
-3.88953e-06
3.11456e-06
-3.14359e-06
2.40142e-06
-2.16358e-06
1.68769e-06
-1.24913e-06
1.05975e-06
-5.71515e-07
5.73191e-07
-1.78736e-07
2.49228e-07
-2.36808e-08
7.69574e-08
1.18814e-08
1.94411e-05
-1.0174e-06
3.83969e-05
-3.093e-06
5.72262e-05
-5.39337e-06
7.60263e-05
-8.03318e-06
9.40883e-05
-1.09607e-05
0.000110262
-1.39928e-05
0.000123306
-1.68798e-05
0.000132118
-1.93496e-05
0.000135917
-2.11425e-05
0.000134378
-2.20502e-05
0.000127685
-2.1945e-05
0.000116505
-2.08003e-05
0.000101889
-1.86986e-05
8.51302e-05
-1.58207e-05
6.76005e-05
-1.24239e-05
5.05805e-05
-8.80889e-06
3.51166e-05
-5.27839e-06
2.19483e-05
-2.09971e-06
1.14882e-05
5.25591e-07
3.79851e-06
2.48092e-06
-7.87899e-07
3.59227e-06
-2.51024e-06
3.74167e-06
-2.68206e-06
3.2255e-06
-2.20648e-06
2.48165e-06
-1.4841e-06
1.72928e-06
-8.02726e-07
1.06811e-06
-3.21531e-07
5.62807e-07
-7.44518e-08
2.35813e-07
3.23968e-09
6.90293e-08
9.63677e-09
1.88663e-05
-1.11517e-06
3.73801e-05
-3.40936e-06
5.59344e-05
-5.99443e-06
7.46252e-05
-9.00276e-06
9.27441e-05
-1.23742e-05
0.000109135
-1.58986e-05
0.00012254
-1.92885e-05
0.000131837
-2.22291e-05
0.000136212
-2.44195e-05
0.000135301
-2.56153e-05
0.000129243
-2.56621e-05
0.000118652
-2.45184e-05
0.000104539
-2.22655e-05
8.81636e-05
-1.90988e-05
7.08817e-05
-1.53045e-05
5.39663e-05
-1.12216e-05
3.84744e-05
-7.19512e-06
2.51715e-05
-3.5352e-06
1.44946e-05
-4.80797e-07
6.53294e-06
1.82608e-06
1.61358e-06
3.19395e-06
-4.82712e-07
3.49598e-06
-1.02935e-06
3.05081e-06
-9.24808e-07
2.34015e-06
-5.59603e-07
1.60969e-06
-2.04311e-07
9.69557e-07
5.32401e-09
4.9074e-07
5.80394e-08
1.93489e-07
3.56182e-08
5.14275e-08
5.77891e-09
1.81901e-05
-1.18066e-06
3.61787e-05
-3.63527e-06
5.4402e-05
-6.45888e-06
7.29503e-05
-9.8014e-06
9.11122e-05
-1.35936e-05
0.000107728
-1.7599e-05
0.000121527
-2.14936e-05
0.000131363
-2.4922e-05
0.000136394
-2.75442e-05
0.000136214
-2.90803e-05
0.000130908
-2.9347e-05
0.000121035
-2.82847e-05
0.000107554
-2.59687e-05
9.16834e-05
-2.26018e-05
7.47534e-05
-1.84917e-05
5.80286e-05
-1.40118e-05
4.25729e-05
-9.54601e-06
2.9175e-05
-5.44214e-06
1.8296e-05
-1.97463e-06
1.00547e-05
6.86704e-07
4.75268e-06
2.33744e-06
2.18364e-06
2.84862e-06
1.14111e-06
2.54909e-06
7.48206e-07
1.94766e-06
6.35248e-07
1.31052e-06
5.5408e-07
7.55547e-07
4.04923e-07
3.55357e-07
2.12156e-07
1.2401e-07
7.00406e-08
2.60472e-08
9.41007e-10
1.74049e-05
-1.20988e-06
3.4779e-05
-3.76001e-06
5.26139e-05
-6.77141e-06
7.09865e-05
-1.041e-05
8.91743e-05
-1.45947e-05
0.000106015
-1.90634e-05
0.000120229
-2.34583e-05
0.00013065
-2.73868e-05
0.000136409
-3.04721e-05
0.000137055
-3.23993e-05
0.000132617
-3.29555e-05
0.000123594
-3.20592e-05
0.000110885
-2.97758e-05
9.56549e-05
-2.63095e-05
7.91967e-05
-2.19801e-05
6.27675e-05
-1.71851e-05
4.74387e-05
-1.23436e-05
3.40131e-05
-7.84246e-06
2.29721e-05
-3.99028e-06
1.44625e-05
-9.82229e-07
8.72636e-06
9.73824e-07
5.56598e-06
1.75563e-06
3.88225e-06
1.6884e-06
2.83789e-06
1.28539e-06
2.10008e-06
8.24234e-07
1.45721e-06
4.26697e-07
8.58504e-07
1.61302e-07
3.74323e-07
3.23389e-08
1.01084e-07
-4.24295e-09
-4.11926e-09
1.65029e-05
-1.19883e-06
3.31728e-05
-3.77342e-06
5.05595e-05
-6.91721e-06
6.87178e-05
-1.08087e-05
8.69079e-05
-1.53521e-05
0.000103965
-2.02602e-05
0.000118603
-2.51446e-05
0.000129643
-2.95792e-05
0.000136189
-3.31528e-05
0.000137747
-3.55176e-05
0.000134287
-3.64299e-05
0.000126242
-3.57844e-05
0.000114446
-3.36317e-05
0.000100006
-3.01725e-05
8.41669e-05
-2.57327e-05
6.81627e-05
-2.07228e-05
5.30631e-05
-1.5585e-05
3.96904e-05
-1.0741e-05
2.85535e-05
-6.53774e-06
1.98139e-05
-3.19867e-06
1.35969e-05
-9.21418e-07
9.70269e-06
1.93896e-07
7.20247e-06
4.54204e-07
5.32806e-06
3.49612e-07
3.79841e-06
1.56856e-07
2.4612e-06
-5.37992e-09
1.33097e-06
-7.91953e-08
5.2628e-07
-7.31044e-08
1.23496e-07
-3.58419e-08
-8.68428e-09
1.54743e-05
-1.14417e-06
3.13491e-05
-3.66647e-06
4.82287e-05
-6.88318e-06
6.61297e-05
-1.09804e-05
8.42906e-05
-1.58434e-05
0.000101543
-2.11605e-05
0.000116602
-2.65156e-05
0.000128279
-3.14531e-05
0.000135655
-3.55316e-05
0.000138195
-3.83723e-05
0.000135811
-3.97031e-05
0.000128866
-3.93929e-05
0.00011812
-3.74695e-05
0.000104617
-3.41218e-05
8.95561e-05
-2.96785e-05
7.41354e-05
-2.45614e-05
5.93962e-05
-1.92261e-05
4.61714e-05
-1.41141e-05
3.50102e-05
-9.60572e-06
2.60899e-05
-5.95689e-06
1.93511e-05
-3.34522e-06
1.4564e-05
-1.83123e-06
1.10455e-05
-1.14186e-06
8.14425e-06
-8.40994e-07
5.64962e-06
-6.68395e-07
3.49421e-06
-5.17506e-07
1.77443e-06
-3.47875e-07
6.47382e-07
-1.81958e-07
1.32508e-07
-6.49669e-08
-1.21483e-08
1.43086e-05
-1.04248e-06
2.92943e-05
-3.43048e-06
4.56105e-05
-6.65803e-06
6.32093e-05
-1.09111e-05
8.13017e-05
-1.60497e-05
9.87173e-05
-2.17381e-05
0.000114176
-2.75359e-05
0.000126488
-3.29628e-05
0.000134714
-3.75509e-05
0.000138284
-4.08942e-05
0.000137055
-4.2695e-05
0.000131322
-4.27963e-05
0.000121757
-4.11976e-05
0.000109334
-3.80682e-05
9.52011e-05
-3.37307e-05
8.05204e-05
-2.8613e-05
6.6295e-05
-2.31815e-05
5.33404e-05
-1.78896e-05
4.22321e-05
-1.31374e-05
3.31735e-05
-9.20829e-06
2.58681e-05
-6.25156e-06
2.00213e-05
-4.27555e-06
1.52706e-05
-3.05584e-06
1.11454e-05
-2.24249e-06
7.5289e-06
-1.61134e-06
4.46361e-06
-1.07772e-06
2.13617e-06
-6.24265e-07
7.17125e-07
-2.84657e-07
1.22847e-07
-8.87206e-08
-1.41389e-08
1.29911e-05
-8.90002e-07
2.699e-05
-3.05652e-06
4.2693e-05
-6.23201e-06
5.99432e-05
-1.05905e-05
7.7919e-05
-1.59571e-05
9.545e-05
-2.19724e-05
0.000111269
-2.81756e-05
0.000124192
-3.40669e-05
0.000133264
-3.91562e-05
0.000137884
-4.30141e-05
0.000137862
-4.53185e-05
0.000133425
-4.58867e-05
0.00012516
-4.4695e-05
0.000113953
-4.1888e-05
0.000100891
-3.77687e-05
8.70917e-05
-3.27603e-05
7.35209e-05
-2.73353e-05
6.09616e-05
-2.19536e-05
4.99875e-05
-1.70257e-05
4.08174e-05
-1.28521e-05
3.28939e-05
-9.54443e-06
2.58321e-05
-7.05167e-06
1.96499e-05
-5.21088e-06
1.41323e-05
-3.78912e-06
9.2818e-06
-2.6203e-06
5.27014e-06
-1.65146e-06
2.36651e-06
-8.90779e-07
7.1547e-07
-3.75398e-07
8.61598e-08
-1.06189e-07
-1.46629e-08
1.1506e-05
-6.83426e-07
2.44163e-05
-2.53708e-06
3.94683e-05
-5.5995e-06
5.63245e-05
-1.00154e-05
7.41273e-05
-1.55592e-05
9.17102e-05
-2.18499e-05
0.000107827
-2.84106e-05
0.000121311
-3.47284e-05
0.000131195
-4.02957e-05
0.000136854
-4.46618e-05
0.000138055
-4.74836e-05
0.00013496
-4.85555e-05
0.000128078
-4.78316e-05
0.000118202
-4.5432e-05
0.000106338
-4.16335e-05
9.35462e-05
-3.68423e-05
8.0748e-05
-3.15266e-05
6.86879e-05
-2.61465e-05
5.79172e-05
-2.11151e-05
4.86454e-05
-1.67399e-05
4.00512e-05
-1.30855e-05
3.16524e-05
-1.00359e-05
2.38898e-05
-7.50263e-06
1.68746e-05
-5.3996e-06
1.07501e-05
-3.63969e-06
5.82313e-06
-2.2078e-06
2.42055e-06
-1.13556e-06
6.15896e-07
-4.53156e-07
4.43114e-09
-1.19834e-07
-1.47229e-08
9.99977e-06
-4.88777e-07
2.1652e-05
-1.97357e-06
3.59103e-05
-4.78782e-06
5.23373e-05
-9.17341e-06
6.99053e-05
-1.48475e-05
8.74628e-05
-2.13591e-05
0.000103791
-2.82225e-05
0.000117752
-3.49172e-05
0.000128382
-4.09234e-05
0.000135036
-4.57744e-05
0.000137444
-4.9111e-05
0.000135702
-5.07074e-05
0.000130244
-5.04942e-05
0.000121776
-4.85677e-05
0.000111209
-4.51769e-05
9.95262e-05
-4.07011e-05
8.75937e-05
-3.55936e-05
7.61098e-05
-3.03057e-05
6.55904e-05
-2.5245e-05
5.62157e-05
-2.07173e-05
4.69157e-05
-1.67337e-05
3.71138e-05
-1.31095e-05
2.7697e-05
-9.83835e-06
1.91623e-05
-7.00764e-06
1.18066e-05
-4.62983e-06
6.05591e-06
-2.72889e-06
2.25316e-06
-1.35192e-06
3.64261e-07
-5.11712e-07
-1.86365e-07
-1.25016e-07
-6.11174e-09
-4.47085e-07
3.46223e-10
-2.52374e-06
-2.15484e-09
-8.88436e-06
-1.31044e-08
-2.21909e-05
-6.17587e-08
-4.36502e-05
-1.83398e-07
-7.21386e-05
-4.10412e-07
-0.000104988
-7.4819e-07
-0.000139687
-1.16198e-06
-0.000174673
-1.55731e-06
-0.000205522
-1.80652e-06
-0.000229334
-1.72019e-06
-0.000249085
-1.19968e-06
-0.00026696
-3.06119e-07
-0.000283132
8.77647e-07
-0.000297353
2.22405e-06
-0.000309183
3.66668e-06
-0.00031815
5.15617e-06
-0.000323622
6.50051e-06
-0.000324982
7.62408e-06
-0.000321751
8.5252e-06
-0.000313558
9.15303e-06
-0.000300074
9.43173e-06
-0.000281065
9.37054e-06
-0.00025646
9.01184e-06
-0.000226308
8.35875e-06
-0.000190752
7.42458e-06
-0.000150014
6.22228e-06
-0.00010439
4.76026e-06
-5.40678e-05
3.03748e-06
1.0624e-06
-4.69796e-07
4.44856e-10
-2.65028e-06
-4.90149e-09
-9.20266e-06
-3.20517e-08
-2.27122e-05
-1.34215e-07
-4.42271e-05
-3.84436e-07
-7.2504e-05
-8.35088e-07
-0.000104894
-1.49611e-06
-0.00013896
-2.28126e-06
-0.000173136
-3.03306e-06
-0.000203647
-3.48607e-06
-0.000227486
-3.25111e-06
-0.000247161
-2.21347e-06
-0.000265142
-4.6373e-07
-0.000281503
1.846e-06
-0.000295988
4.5147e-06
-0.000308108
7.36591e-06
-0.000317304
1.0243e-05
-0.000322977
1.28841e-05
-0.000324531
1.51196e-05
-0.000321473
1.68919e-05
-0.000313393
1.80948e-05
-0.000299963
1.86321e-05
-0.000280992
1.85292e-05
-0.000256409
1.78222e-05
-0.000226265
1.65307e-05
-0.000190708
1.46831e-05
-0.000149963
1.23048e-05
-0.000104322
9.41222e-06
-5.40006e-05
6.00384e-06
2.09894e-06
-5.03262e-07
1.39471e-09
-2.81029e-06
-7.38064e-09
-9.53048e-06
-5.51354e-08
-2.30554e-05
-2.17907e-07
-4.41569e-05
-5.96679e-07
-7.14845e-05
-1.2593e-06
-0.000102556
-2.20074e-06
-0.000135155
-3.28277e-06
-0.000167885
-4.30927e-06
-0.000197584
-4.8803e-06
-0.000221258
-4.45601e-06
-0.000241033
-2.88097e-06
-0.000259392
-3.12753e-07
-0.000276288
3.04449e-06
-0.000291397
6.94721e-06
-0.000304157
1.11067e-05
-0.000313948
1.52553e-05
-0.000320167
1.90984e-05
-0.000322228
2.23813e-05
-0.000319598
2.49464e-05
-0.000311847
2.66645e-05
-0.000298681
2.7453e-05
-0.000279929
2.73145e-05
-0.000255528
2.62752e-05
-0.000225537
2.43725e-05
-0.000190115
2.16493e-05
-0.000149496
1.81428e-05
-0.000103977
1.38765e-05
-5.37975e-05
8.84949e-06
3.0928e-06
-5.39412e-07
2.29449e-09
-2.9543e-06
-1.13322e-08
-9.73457e-06
-8.31605e-08
-2.29647e-05
-3.14397e-07
-4.30883e-05
-8.20936e-07
-6.87352e-05
-1.67106e-06
-9.77184e-05
-2.82315e-06
-0.000128167
-4.10473e-06
-0.000158978
-5.28109e-06
-0.000187457
-5.85908e-06
-0.000210845
-5.19774e-06
-0.000230949
-3.07676e-06
-0.000249952
2.6634e-07
-0.000267686
4.58192e-06
-0.000283729
9.5898e-06
-0.000297433
1.49161e-05
-0.000308138
2.02123e-05
-0.000315211
2.5132e-05
-0.000318046
2.93538e-05
-0.000316078
3.26211e-05
-0.000308881
3.48013e-05
-0.000296192
3.58225e-05
-0.000277842
3.56397e-05
-0.000253788
3.4283e-05
-0.000224105
3.18013e-05
-0.000188964
2.82492e-05
-0.000148613
2.3674e-05
-0.000103363
1.81059e-05
-5.34733e-05
1.15445e-05
4.03374e-06
-5.70855e-07
1.80921e-09
-3.06487e-06
-1.97897e-08
-9.79976e-06
-1.19491e-07
-2.24759e-05
-4.216e-07
-4.12303e-05
-1.04726e-06
-6.47554e-05
-2.04546e-06
-9.12173e-05
-3.33573e-06
-0.000119157
-4.71049e-06
-0.000147749
-5.89149e-06
-0.000174776
-6.35602e-06
-0.000197864
-5.39181e-06
-0.000218422
-2.73559e-06
-0.000238214
1.32385e-06
-0.000256947
6.4961e-06
-0.000274098
1.24707e-05
-0.000288933
1.88121e-05
-0.000300738
2.511e-05
-0.000308838
3.0965e-05
-0.000312602
3.60005e-05
-0.000311455
3.98905e-05
-0.00030497
4.2478e-05
-0.000292891
4.36871e-05
-0.000275064
4.34467e-05
-0.000251465
4.17859e-05
-0.000222189
3.87595e-05
-0.000187425
3.44303e-05
-0.000147438
2.88537e-05
-0.000102554
2.20654e-05
-5.30529e-05
1.40663e-05
4.91377e-06
-5.9306e-07
6.61611e-10
-3.1196e-06
-3.12704e-08
-9.67123e-06
-1.63245e-07
-2.15399e-05
-5.33635e-07
-3.86268e-05
-1.25475e-06
-5.97666e-05
-2.34464e-06
-8.35311e-05
-3.68638e-06
-0.00010886
-5.03886e-06
-0.000135137
-6.09329e-06
-0.000160632
-6.33073e-06
-0.000183409
-5.00516e-06
-0.000204466
-1.82941e-06
-0.000225093
2.87888e-06
-0.000244876
8.79916e-06
-0.000263197
1.55989e-05
-0.00027924
2.27986e-05
-0.000292227
2.99419e-05
-0.000301441
3.65845e-05
-0.000306212
4.22998e-05
-0.000305976
4.67297e-05
-0.000300305
4.96648e-05
-0.000288925
5.10058e-05
-0.000271702
5.06905e-05
-0.000248638
4.87373e-05
-0.000219847
4.52017e-05
-0.000185538
4.01511e-05
-0.000145996
3.36462e-05
-0.000101563
2.57274e-05
-5.25401e-05
1.6397e-05
5.72657e-06
-6.0692e-07
-6.41018e-10
-3.10533e-06
-4.42384e-08
-9.31871e-06
-2.1093e-07
-2.01654e-05
-6.40458e-07
-3.54081e-05
-1.42064e-06
-5.40972e-05
-2.53222e-06
-7.52165e-05
-3.82702e-06
-9.80292e-05
-5.04285e-06
-0.000122069
-5.85819e-06
-0.000146069
-5.77237e-06
-0.000168528
-4.04061e-06
-0.000190061
-3.67785e-07
-0.000211478
4.91747e-06
-0.000232262
1.14757e-05
-0.000251717
1.89629e-05
-0.000268944
2.68651e-05
-0.000283099
3.46952e-05
-0.000293428
4.19792e-05
-0.000299225
4.82431e-05
-0.000299927
5.31118e-05
-0.000295101
5.63208e-05
-0.000284456
5.77441e-05
-0.000267882
5.73368e-05
-0.000245402
5.5103e-05
-0.00021715
5.10946e-05
-0.000183356
4.53806e-05
-0.000144323
3.80248e-05
-0.000100412
2.90711e-05
-5.19431e-05
1.85232e-05
6.46737e-06
-6.09373e-07
-2.41121e-09
-3.01139e-06
-5.87942e-08
-8.74535e-06
-2.57758e-07
-1.8431e-05
-7.25975e-07
-3.18e-05
-1.51551e-06
-4.81593e-05
-2.57075e-06
-6.68546e-05
-3.72209e-06
-8.73815e-05
-4.70091e-06
-0.000109384
-5.18609e-06
-0.000132006
-4.70144e-06
-0.000154142
-2.5339e-06
-0.000176068
1.60808e-06
-0.000198162
7.39835e-06
-0.000219815
1.44869e-05
-0.000240273
2.25285e-05
-0.000258582
3.09952e-05
-0.000273821
3.9363e-05
-0.00028519
4.71365e-05
-0.000291962
5.38199e-05
-0.000293562
5.90155e-05
-0.000289545
6.24232e-05
-0.000279627
6.38929e-05
-0.000263712
6.33791e-05
-0.000241837
6.08762e-05
-0.000214158
5.6431e-05
-0.000180922
5.01115e-05
-0.00014245
4.19829e-05
-9.91203e-05
3.20912e-05
-5.12714e-05
2.04415e-05
7.13506e-06
-5.96306e-07
-4.71358e-09
-2.83821e-06
-7.35575e-08
-7.99564e-06
-2.9537e-07
-1.64846e-05
-7.70137e-07
-2.80933e-05
-1.5111e-06
-4.23837e-05
-2.43341e-06
-5.89748e-05
-3.35463e-06
-7.75229e-05
-4.01458e-06
-9.77645e-05
-4.10318e-06
-0.000119172
-3.16618e-06
-0.000140975
-5.46996e-07
-0.000163179
4.03394e-06
-0.000185795
1.02619e-05
-0.000208138
1.77832e-05
-0.000229398
2.62532e-05
-0.000248602
3.51545e-05
-0.000264773
4.39296e-05
-0.000277046
5.20542e-05
-0.000284679
5.90343e-05
-0.000287073
6.44499e-05
-0.00028379
6.79873e-05
-0.000274556
6.94719e-05
-0.00025928
6.88385e-05
-0.000238012
6.60767e-05
-0.000210923
6.12285e-05
-0.000178276
5.43591e-05
-0.000140405
4.55331e-05
-9.77068e-05
3.47974e-05
-5.0536e-05
2.21585e-05
7.7321e-06
-5.67247e-07
-7.49081e-09
-2.60349e-06
-8.60785e-08
-7.1504e-06
-3.13098e-07
-1.4514e-05
-7.53717e-07
-2.45895e-05
-1.38825e-06
-3.71523e-05
-2.11297e-06
-5.19994e-05
-2.74043e-06
-6.89058e-05
-3.02197e-06
-8.76978e-05
-2.66111e-06
-0.000108081
-1.23547e-06
-0.00012954
1.84058e-06
-0.000151881
6.82884e-06
-0.000174838
1.34388e-05
-0.000197669
2.13171e-05
-0.000219507
3.01123e-05
-0.000239365
3.9321e-05
-0.000256244
4.83807e-05
-0.000269236
5.67441e-05
-0.00027757
6.39108e-05
-0.000280632
6.94516e-05
-0.000277983
7.30474e-05
-0.000269364
7.45043e-05
-0.000254685
7.37346e-05
-0.000234005
7.0722e-05
-0.000207505
6.55021e-05
-0.000175461
5.81358e-05
-0.000138221
4.86852e-05
-9.6194e-05
3.71971e-05
-4.97489e-05
2.3679e-05
8.26023e-06
-5.24486e-07
-1.05736e-08
-2.33843e-06
-9.29794e-08
-6.31091e-06
-3.00108e-07
-1.27096e-05
-6.63709e-07
-2.15441e-05
-1.14181e-06
-3.27413e-05
-1.62035e-06
-4.62129e-05
-1.91103e-06
-6.18268e-05
-1.77424e-06
-7.94783e-05
-9.26404e-07
-9.90253e-05
1.01502e-06
-0.000120135
4.55567e-06
-0.000142471
9.92969e-06
-0.000165574
1.68796e-05
-0.000188672
2.50545e-05
-0.000210857
3.40923e-05
-0.000231125
4.35007e-05
-0.000248469
5.27267e-05
-0.000261962
6.12184e-05
-0.000270812
6.84682e-05
-0.000274393
7.40461e-05
-0.000272264
7.76284e-05
-0.000264169
7.90082e-05
-0.000250024
7.8082e-05
-0.000229893
7.48241e-05
-0.000203965
6.92617e-05
-0.000172526
6.14493e-05
-0.000135933
5.14452e-05
-9.4604e-05
3.92947e-05
-4.89209e-05
2.50057e-05
8.72038e-06
-4.71961e-07
-1.3804e-08
-2.08346e-06
-9.02266e-08
-5.58374e-06
-2.48152e-07
-1.12385e-05
-4.97176e-07
-1.91495e-05
-7.81311e-07
-2.93363e-05
-9.79684e-07
-4.17844e-05
-9.02828e-07
-5.64376e-05
-3.16366e-07
-7.32363e-05
1.04957e-06
-9.21202e-05
3.53273e-06
-0.000112877
7.55342e-06
-0.000135085
1.33058e-05
-0.000158157
2.05602e-05
-0.000181304
2.89725e-05
-0.000203602
3.81749e-05
-0.000224043
4.76875e-05
-0.000241616
5.69712e-05
-0.000255386
6.54815e-05
-0.000264553
7.2715e-05
-0.000268485
7.82449e-05
-0.00026674
8.17458e-05
-0.000259063
8.30023e-05
-0.000245372
8.18992e-05
-0.000225738
7.83999e-05
-0.000200354
7.25222e-05
-0.000169511
6.43125e-05
-0.00013357
5.38236e-05
-9.29567e-05
4.1098e-05
-4.8062e-05
2.61437e-05
9.11441e-06
-4.16868e-07
-1.66448e-08
-1.89058e-06
-7.3722e-08
-5.07855e-06
-1.54145e-07
-1.02417e-05
-2.6023e-07
-1.75429e-05
-3.21797e-07
-2.70545e-05
-2.10008e-07
-3.88038e-05
2.6497e-07
-5.27906e-05
1.33343e-06
-6.89868e-05
3.2488e-06
-8.73605e-05
6.29717e-06
-0.000107766
1.08101e-05
-0.000129745
1.69332e-05
-0.000152631
2.44562e-05
-0.000175633
3.30461e-05
-0.000197827
4.23362e-05
-0.00021821
5.1862e-05
-0.00023578
6.11032e-05
-0.000249606
6.95317e-05
-0.000258887
7.66564e-05
-0.000262995
8.20587e-05
-0.000261488
8.54153e-05
-0.000254113
8.65061e-05
-0.000240791
8.52067e-05
-0.000221593
8.14699e-05
-0.000196715
7.53028e-05
-0.000166449
6.67425e-05
-0.000131158
5.58348e-05
-9.127e-05
4.26183e-05
-4.71812e-05
2.71004e-05
9.44494e-06
-3.92057e-07
-1.51743e-08
-1.84374e-06
-3.77191e-08
-4.92647e-06
-1.47578e-08
-9.86796e-06
5.09551e-08
-1.68519e-05
2.45299e-07
-2.59818e-05
7.04125e-07
-3.7313e-05
1.61358e-06
-5.08764e-05
3.19394e-06
-6.6665e-05
5.67664e-06
-8.46578e-05
9.30011e-06
-0.000104726
1.43104e-05
-0.000126396
2.07915e-05
-0.000148965
2.85432e-05
-0.00017165
3.72492e-05
-0.000193539
4.65501e-05
-0.000213651
5.60016e-05
-0.000230999
6.51076e-05
-0.000244666
7.33627e-05
-0.000253865
8.02942e-05
-0.000257974
8.54964e-05
-0.000256558
8.86519e-05
-0.000249367
8.95393e-05
-0.000236323
8.80268e-05
-0.000217497
8.40569e-05
-0.000193082
7.76255e-05
-0.000163369
6.87594e-05
-0.000128719
5.7496e-05
-8.95595e-05
4.38691e-05
-4.62868e-05
2.78846e-05
9.71515e-06
-5.80112e-07
4.03365e-08
-2.18328e-06
4.61464e-08
-5.36225e-06
2.03461e-07
-1.03154e-05
4.84891e-07
-1.72188e-05
9.80576e-07
-2.61924e-05
1.82749e-06
-3.73165e-05
3.20547e-06
-5.06401e-05
5.32021e-06
-6.61658e-05
8.37117e-06
-8.38891e-05
1.25664e-05
-0.000103644
1.80815e-05
-0.000124931
2.49049e-05
-0.000147066
3.28369e-05
-0.000169273
4.15928e-05
-0.000190672
5.08244e-05
-0.000210309
6.01159e-05
-0.000227227
6.89991e-05
-0.000240533
7.69955e-05
-0.00024946
8.36557e-05
-0.000253402
8.8591e-05
-0.000251935
9.14936e-05
-0.000244814
9.21431e-05
-0.000231961
9.0402e-05
-0.000213444
8.6203e-05
-0.000189454
7.95303e-05
-0.000160273
7.03992e-05
-0.000126258
5.8838e-05
-8.78291e-05
4.48744e-05
-4.5382e-05
2.85123e-05
9.93076e-06
9.09202e-06
-3.60793e-07
1.9756e-05
-1.52771e-06
3.33254e-05
-3.95022e-06
4.97387e-05
-8.08817e-06
6.76777e-05
-1.37835e-05
8.57947e-05
-2.04691e-05
0.000102866
-2.75817e-05
0.000117748
-3.45983e-05
0.000129463
-4.09942e-05
0.000137327
-4.62963e-05
0.000141027
-5.01334e-05
0.000140602
-5.22622e-05
0.000136421
-5.25916e-05
0.000129124
-5.11908e-05
0.000119559
-4.8277e-05
0.000108652
-4.41998e-05
9.7227e-05
-3.93884e-05
8.59554e-05
-3.42762e-05
7.53285e-05
-2.92589e-05
6.54962e-05
-2.46352e-05
5.51286e-05
-2.03612e-05
4.35199e-05
-1.61761e-05
3.20411e-05
-1.21541e-05
2.16646e-05
-8.57768e-06
1.28645e-05
-5.57731e-06
6.16748e-06
-3.21407e-06
1.88633e-06
-1.53785e-06
-1.55011e-07
-5.29683e-07
-6.91961e-07
-6.47297e-08
7.78115e-08
-4.25482e-07
8.2569e-06
-2.40893e-07
1.78796e-05
-1.16319e-06
3.02041e-05
-3.24204e-06
4.58132e-05
-6.95113e-06
6.36439e-05
-1.24037e-05
8.19984e-05
-1.91414e-05
9.94972e-05
-2.64509e-05
0.00011502
-3.37292e-05
0.000127595
-4.04582e-05
0.000136526
-4.61653e-05
0.000141462
-5.04724e-05
0.000142388
-5.31223e-05
0.000139595
-5.4004e-05
0.000133643
-5.31574e-05
0.000125299
-5.07657e-05
0.000115398
-4.71453e-05
0.000104702
-4.26958e-05
9.38419e-05
-3.78276e-05
8.32788e-05
-3.29201e-05
7.315e-05
-2.82697e-05
6.19467e-05
-2.37898e-05
4.87471e-05
-1.91198e-05
3.53544e-05
-1.43796e-05
2.33217e-05
-1.00738e-05
1.32807e-05
-6.47499e-06
5.79281e-06
-3.66748e-06
1.06676e-06
-1.68579e-06
-1.23002e-06
-4.68498e-07
-1.92458e-06
1.49121e-07
4.06147e-07
-1.95325e-06
7.36823e-06
-8.65136e-08
1.61219e-05
-7.397e-07
2.73339e-05
-2.57395e-06
4.16906e-05
-5.91973e-06
5.88244e-05
-1.09256e-05
7.7174e-05
-1.74301e-05
9.49992e-05
-2.48039e-05
0.000111055
-3.22818e-05
0.000124387
-3.92764e-05
0.000134288
-4.53266e-05
0.000140387
-5.00523e-05
0.000142611
-5.31883e-05
0.000141175
-5.46039e-05
0.000136559
-5.43088e-05
0.000129436
-5.24547e-05
0.000120545
-4.93235e-05
0.000110581
-4.52779e-05
0.000100135
-4.07008e-05
8.96569e-05
-3.59585e-05
7.93333e-05
-3.13567e-05
6.76733e-05
-2.68299e-05
5.31506e-05
-2.18569e-05
3.78934e-05
-1.64728e-05
2.43431e-05
-1.14717e-05
1.31622e-05
-7.31811e-06
4.88927e-06
-4.08202e-06
-4.20433e-07
-1.77251e-06
-3.22577e-06
-2.87097e-07
-4.38588e-06
5.63142e-07
1.02135e-06
-4.83203e-06
6.29081e-06
1.00359e-07
1.40957e-05
-2.13291e-07
2.44021e-05
-1.77489e-06
3.76065e-05
-4.86143e-06
5.35729e-05
-9.48349e-06
7.13647e-05
-1.55432e-05
8.92752e-05
-2.26981e-05
0.00010574
-3.02414e-05
0.000119689
-3.74304e-05
0.000130415
-4.3746e-05
0.000137545
-4.88204e-05
0.000140952
-5.23849e-05
0.000140775
-5.42884e-05
0.000137414
-5.45138e-05
0.000131444
-5.31849e-05
0.000123506
-5.05468e-05
0.000114228
-4.69222e-05
0.000104167
-4.26642e-05
9.37725e-05
-3.81229e-05
8.33406e-05
-3.36096e-05
7.16372e-05
-2.91099e-05
5.63942e-05
-2.40505e-05
3.96207e-05
-1.83208e-05
2.46519e-05
-1.27743e-05
1.23528e-05
-8.08678e-06
3.21794e-06
-4.4246e-06
-2.88417e-06
-1.76162e-06
-6.49625e-06
4.85337e-08
-8.49681e-06
1.20871e-06
1.9566e-06
-9.72364e-06
5.0039e-06
3.20651e-07
1.16475e-05
4.1306e-07
2.09494e-05
-7.9914e-07
3.31768e-05
-3.59093e-06
4.80115e-05
-7.92131e-06
6.47967e-05
-1.3585e-05
8.23138e-05
-2.03199e-05
9.89717e-05
-2.7669e-05
0.000113378
-3.49209e-05
0.00012473
-4.14208e-05
0.000132709
-4.67593e-05
0.000137128
-5.06739e-05
0.000138052
-5.29951e-05
0.000135803
-5.36852e-05
0.000130855
-5.28407e-05
0.000123766
-5.0671e-05
0.000115097
-4.74625e-05
0.000105367
-4.35348e-05
9.50099e-05
-3.92082e-05
8.43844e-05
-3.4769e-05
7.24244e-05
-3.01687e-05
5.70552e-05
-2.49915e-05
3.98289e-05
-1.92653e-05
2.39026e-05
-1.36366e-05
1.05764e-05
-8.67553e-06
4.53076e-07
-4.64876e-06
-6.6306e-06
-1.61132e-06
-1.12973e-05
5.55902e-07
-1.44299e-05
2.07013e-06
3.15578e-06
-1.66813e-05
3.48848e-06
5.73345e-07
8.74873e-06
1.13625e-06
1.6818e-05
3.41301e-07
2.7949e-05
-2.07469e-06
4.17457e-05
-6.06783e-06
5.74745e-05
-1.14004e-05
7.41963e-05
-1.77459e-05
9.06866e-05
-2.47471e-05
0.000105354
-3.18552e-05
0.000117117
-3.839e-05
0.000125728
-4.38877e-05
0.000130954
-4.80653e-05
0.000132764
-5.07175e-05
0.000131426
-5.17926e-05
0.000127317
-5.13654e-05
0.000120937
-4.96167e-05
0.000112783
-4.68026e-05
0.000103318
-4.3205e-05
9.29422e-05
-3.91067e-05
8.19774e-05
-3.47565e-05
6.9323e-05
-3.00595e-05
5.38503e-05
-2.47256e-05
3.70507e-05
-1.90165e-05
2.11211e-05
-1.35492e-05
7.26012e-06
-8.67697e-06
-3.78838e-06
-4.54797e-06
-1.19512e-05
-1.25237e-06
-1.78224e-05
1.24981e-06
-2.22341e-05
3.12015e-06
4.54073e-06
-2.56274e-05
1.72911e-06
8.56733e-07
5.37333e-06
1.95063e-06
1.19836e-05
1.63583e-06
2.17877e-05
-3.35315e-07
3.43963e-05
-3.90816e-06
4.90472e-05
-8.85022e-06
6.4817e-05
-1.48224e-05
8.07272e-05
-2.14474e-05
9.53778e-05
-2.82611e-05
0.000107444
-3.46866e-05
0.000116545
-4.02581e-05
0.000122348
-4.46184e-05
0.000124771
-4.75018e-05
0.000124102
-4.88624e-05
0.000120602
-4.87642e-05
0.000114765
-4.73671e-05
0.000107023
-4.49117e-05
9.77767e-05
-4.16396e-05
8.73879e-05
-3.77967e-05
7.61349e-05
-3.36058e-05
6.29945e-05
-2.89855e-05
4.73735e-05
-2.36854e-05
3.09733e-05
-1.80202e-05
1.55314e-05
-1.26639e-05
1.7431e-06
-7.94101e-06
-9.853e-06
-3.89321e-06
-1.90735e-05
-5.22562e-07
-2.62311e-05
2.20149e-06
-3.19636e-05
4.361e-06
6.07064e-06
-3.65068e-05
-2.89453e-07
1.16819e-06
1.49577e-06
2.84866e-06
6.41602e-06
3.07172e-06
1.46678e-05
1.60878e-06
2.58573e-05
-1.47267e-06
3.92392e-05
-5.93792e-06
5.3895e-05
-1.14532e-05
6.88636e-05
-1.76319e-05
8.30682e-05
-2.40482e-05
9.52894e-05
-3.0239e-05
0.000104866
-3.57972e-05
0.000111159
-4.03026e-05
0.00011404
-4.34028e-05
0.000113768
-4.49889e-05
0.000110584
-4.51022e-05
0.000105109
-4.39608e-05
9.7681e-05
-4.18182e-05
8.86368e-05
-3.88609e-05
7.83093e-05
-3.53e-05
6.69699e-05
-3.13385e-05
5.38133e-05
-2.69174e-05
3.83817e-05
-2.18297e-05
2.2377e-05
-1.63958e-05
7.41019e-06
-1.12524e-05
-6.08934e-06
-6.68907e-06
-1.78826e-05
-2.73714e-06
-2.79276e-05
6.21638e-07
-3.6327e-05
3.44085e-06
-4.34729e-05
5.796e-06
7.75026e-06
-4.93186e-05
-2.57901e-06
1.50384e-06
-2.90645e-06
3.81925e-06
8.63026e-08
4.63118e-06
6.55602e-06
3.73314e-06
1.60978e-05
1.20748e-06
2.79746e-05
-2.70816e-06
4.12798e-05
-7.6843e-06
5.50474e-05
-1.33401e-05
6.83344e-05
-1.92661e-05
8.02168e-05
-2.50644e-05
8.9945e-05
-3.03836e-05
9.67085e-05
-3.48633e-05
0.000100214
-3.81877e-05
0.000100323
-4.00948e-05
9.72549e-05
-4.04476e-05
9.19317e-05
-3.94966e-05
8.47309e-05
-3.76009e-05
7.58809e-05
-3.49367e-05
6.57055e-05
-3.16693e-05
5.44736e-05
-2.79871e-05
4.15909e-05
-2.38525e-05
2.6729e-05
-1.91037e-05
1.14169e-05
-1.40378e-05
-2.98385e-06
-9.22222e-06
-1.61553e-05
-4.90826e-06
-2.79631e-05
-1.11776e-06
-3.84466e-05
2.16516e-06
-4.77685e-05
4.9911e-06
-5.62099e-05
7.43195e-06
9.51389e-06
-6.33407e-05
-5.14581e-06
1.85844e-06
-7.84586e-06
4.84735e-06
-7.02341e-06
6.29028e-06
-2.56941e-06
6.00509e-06
5.09388e-06
4.09036e-06
1.52329e-05
7.86846e-07
2.6954e-05
-3.58156e-06
3.93106e-05
-8.64567e-06
5.138e-05
-1.40184e-05
6.23664e-05
-1.93241e-05
7.15573e-05
-2.42196e-05
7.8362e-05
-2.84244e-05
8.23772e-05
-3.17125e-05
8.31344e-05
-3.38567e-05
8.04837e-05
-3.46207e-05
7.52894e-05
-3.4027e-05