/*--------------------------------*- C++ -*----------------------------------*\
| =========                 |                                                 |
| \\      /  F ield         | OpenFOAM: The Open Source CFD Toolbox           |
|  \\    /   O peration     | Version:  dev                                   |
|   \\  /    A nd           | Web:      www.OpenFOAM.org                      |
|    \\/     M anipulation  |                                                 |
\*---------------------------------------------------------------------------*/
FoamFile
{
    version     2.0;
    format      ascii;
    class       volVectorField;
    location    "4.78";
    object      Force;
}
// * * * * * * * * * * * * * * * * * * * * * * * * * * * * * * * * * * * * * //

dimensions      [1 1 -2 0 0 0 0];

internalField   uniform (0 0 0);

boundaryField
{
    inlet
    {
        type            calculated;
        value           uniform (0 0 0);
    }
    outlet
    {
        type            calculated;
        value           uniform (0 0 0);
    }
    flap
    {
        type            calculated;
        value           nonuniform List<vector> 
33
(
(3.43404 1.4966e-22 -0.186334)
(3.39228 -4.54478e-22 -0.414343)
(3.33317 1.81719e-17 -0.624343)
(3.25087 5.43319e-21 -0.782002)
(3.14987 -2.6391e-22 -0.894439)
(3.03609 -1.73387e-17 -0.969054)
(2.91399 5.65078e-23 -1.01367)
(2.78653 -3.90412e-21 -1.03411)
(2.6525 -7.62541e-18 -1.03377)
(2.50952 -1.65967e-17 -1.01346)
(2.35473 -2.35099e-38 -0.972611)
(2.17937 9.68445e-18 -0.910198)
(1.96605 5.76991e-18 -0.823189)
(1.68152 -1.48266e-17 -0.70148)
(1.2564 8.7943e-23 -0.523079)
(0.294082 7.90747e-21 0.693613)
(0.186312 9.12793e-18 0.4435)
(0.0736074 -2.71055e-21 0.177945)
(-0.0788843 1.36632e-17 0.00431543)
(-0.0783996 1.33448e-40 0.0095363)
(-0.077143 0 0.0143598)
(-0.0751571 1.45884e-17 0.0178898)
(-0.0725224 1.52001e-17 0.0203284)
(-0.0693773 1.52335e-17 0.0218043)
(-0.0658804 -1.0111e-23 0.0225021)
(-0.0621802 2.39643e-23 0.0226041)
(-0.0583971 3.14004e-17 0.0222442)
(-0.0545108 1.62375e-23 0.0214652)
(-0.0506226 1.6134e-17 0.02035)
(-0.047021 1.63508e-17 0.0191088)
(-0.0432038 7.8488e-24 0.0176282)
(-0.0348434 1.77611e-17 0.0141882)
(-0.0142331 2.21506e-22 0.00539944)
)
;
    }
    upperWall
    {
        type            calculated;
        value           uniform (0 0 0);
    }
    lowerWall
    {
        type            calculated;
        value           uniform (0 0 0);
    }
    frontAndBack
    {
        type            empty;
    }
}


// ************************************************************************* //
