/*--------------------------------*- C++ -*----------------------------------*\
| =========                 |                                                 |
| \\      /  F ield         | OpenFOAM: The Open Source CFD Toolbox           |
|  \\    /   O peration     | Version:  dev                                   |
|   \\  /    A nd           | Web:      www.OpenFOAM.org                      |
|    \\/     M anipulation  |                                                 |
\*---------------------------------------------------------------------------*/
FoamFile
{
    version     2.0;
    format      ascii;
    class       volScalarField;
    location    "0.75";
    object      p;
}
// * * * * * * * * * * * * * * * * * * * * * * * * * * * * * * * * * * * * * //

dimensions      [0 2 -2 0 0 0 0];

internalField   nonuniform List<scalar> 
465
(
6.80871
-1.14854
7.36785
-0.426076
-8.34254
-16.2781
8.16172
0.580653
-7.09969
-14.7846
-22.3534
9.26755
1.90314
-5.5263
-12.9365
-20.2178
-27.2354
-33.8296
10.8546
3.66776
-3.53736
-10.6893
-17.6909
-24.4202
-30.7321
-36.4595
-41.4177
13.1168
6.05274
-0.97855
-7.91681
-14.6775
-21.1527
-27.2125
-32.7076
-37.4737
-41.3383
16.1419
9.18089
2.28843
-4.47871
-11.0442
-17.3117
-23.1658
-28.4743
-33.0925
-36.8697
-39.6605
-41.3395
19.8393
13.0194
6.27828
-0.325113
-6.71701
-12.8082
-18.4944
-23.6576
-28.1702
-31.9004
-34.7219
-36.525
-37.2291
23.9853
17.3822
10.847
4.44155
-1.76074
-7.67478
-13.2039
-18.2411
-22.6725
-26.3816
-29.2573
-31.2022
-32.1416
-32.0306
-30.854
28.3126
22.0056
15.7453
9.5939
3.62335
-2.08496
-7.44067
-12.3458
-16.6972
-20.3909
-23.3278
-25.4203
-26.5992
-26.8182
-26.0547
-24.3025
32.5814
26.6293
20.7011
14.8565
9.16377
3.69918
-1.45354
-6.20471
-10.461
-14.1291
-17.12
-19.3547
-20.7695
-21.3197
-20.9818
-19.751
-17.6781
-14.8739
36.6177
31.0482
25.4836
19.9787
14.5958
9.40477
4.48162
-0.0927084
-4.23446
-7.86015
-10.8904
-13.2544
-14.8945
-15.7698
-15.8597
-15.1652
-13.7165
-11.6158
-8.98869
40.3201
35.1319
29.9348
24.7771
19.7145
14.8091
10.1286
5.74458
1.73125
-1.83771
-4.89224
-7.36974
-9.21899
-10.4039
-10.9069
-10.7318
-9.90633
-8.51158
-6.66133
-4.46685
43.6462
38.8179
33.9706
29.1465
24.3943
19.7682
15.3271
11.1338
7.25258
3.74774
0.680232
-1.89537
-3.93438
-5.40547
-6.29392
-6.60487
-6.36677
-5.64091
-4.51868
-3.11255
-1.56089
46.5931
42.0922
37.5647
33.0471
28.5815
24.2146
19.9974
15.9836
12.2288
8.78815
5.71416
3.0538
0.845601
-0.883472
-2.12107
-2.87249
-3.16391
-3.04565
-2.58782
-1.88769
-1.0711
49.1798
44.9699
40.7271
36.4829
32.2734
28.1387
24.1223
20.2703
16.6301
13.2486
10.1708
7.43681
5.07959
3.12228
1.57546
0.43455
-0.322771
-0.739137
-0.871387
-0.795618
-0.62095
51.4347
47.4798
43.4865
39.4817
35.4964
31.5649
27.7243
24.0138
20.4737
17.144
14.063
11.2646
8.77726
6.62069
4.80419
3.32417
2.16218
1.28305
0.638154
0.167767
-0.215987
53.3885
49.6551
45.8782
42.0809
38.2895
34.5335
30.8443
27.2555
23.8012
20.5155
17.4309
14.5764
11.9761
9.6472
7.5979
5.82567
4.31562
3.03929
1.95415
1.01102
0.142317
55.0712
51.529
47.9385
44.3195
40.6946
37.0887
33.529
30.0437
26.6621
23.4133
20.3247
17.4213
14.7237
12.2469
9.99811
7.97578
6.16799
4.55146
3.09095
1.74367
0.455255
56.5113
53.1328
49.7019
46.2352
42.7521
39.2741
35.8241
32.4264
29.1061
25.8878
22.7951
19.8496
17.0688
14.4658
12.0472
9.81222
7.75131
5.84551
4.06601
2.37449
0.725486
57.7336
54.4945
51.199
47.8615
44.4985
41.1283
37.7708
34.4468
31.1776
27.9846
24.888
21.9063
19.0549
16.3451
13.783
11.3683
9.09354
6.94307
4.8929
2.91057
0.956029
58.7623
55.6404
52.4589
49.2298
45.9675
42.6877
39.4074
36.1448
32.9181
29.7459
26.6456
23.6334
20.7226
17.9233
15.241
12.676
10.2222
7.86671
5.58945
3.36303
1.15139
59.6147
56.5902
53.5031
50.3639
47.1847
43.9795
40.7629
37.5506
34.3587
31.2033
28.0997
25.0619
22.1018
19.2283
16.4467
13.7573
11.1553
8.6301
6.16458
3.73545
1.3112
60.3134
57.3681
54.3577
51.2914
48.1797
45.0348
41.8697
38.6981
35.5341
32.392
29.2854
26.2267
23.2264
20.2928
17.4304
14.6401
11.9179
9.25471
6.63606
4.04167
1.44364
60.8609
57.9778
55.0278
52.0185
48.9597
45.8619
42.7369
39.5969
36.4546
33.3226
30.2133
27.1379
24.1059
21.1247
18.1988
15.329
12.5121
9.74037
7.0011
4.27683
1.54357
61.2897
58.4531
55.5478
52.5809
49.5611
46.4981
43.4025
40.2854
37.1586
34.0335
30.9214
27.8328
24.7763
21.759
18.7849
15.8551
12.9667
10.1128
7.28221
4.4592
1.62236
61.5656
58.7598
55.8843
52.9456
49.9517
46.9118
43.8358
40.7341
37.6175
34.4972
31.3835
28.2863
25.2138
22.1727
19.1668
16.197
13.2609
10.352
7.45951
4.5694
1.66395
61.7611
58.9701
56.1086
53.1827
50.2002
47.17
44.1015
41.005
37.8911
34.7703
31.6529
28.5485
25.4651
22.4092
19.3845
16.3921
13.4292
10.4892
7.56056
4.62651
1.66084
)
;

boundaryField
{
    inlet
    {
        type            zeroGradient;
    }
    outlet
    {
        type            fixedValue;
        value           uniform 0;
    }
    flap
    {
        type            zeroGradient;
    }
    upperWall
    {
        type            zeroGradient;
    }
    lowerWall
    {
        type            zeroGradient;
    }
    frontAndBack
    {
        type            empty;
    }
    procBoundary2to1
    {
        type            processor;
        value           nonuniform List<scalar> 
17
(
42.1453
45.4577
48.4193
51.0362
53.33
55.328
57.0585
58.5484
59.8229
60.9044
61.8142
62.5679
63.1861
63.6703
64.0518
64.2963
64.4763
)
;
    }
    procBoundary2to4
    {
        type            processor;
        value           nonuniform List<scalar> 
11
(
14.5391
14.9613
15.5737
16.5077
17.9783
20.177
23.1322
26.6915
30.6045
34.6127
38.5061
)
;
    }
    procBoundary2to5
    {
        type            processor;
        value           nonuniform List<scalar> 
34
(
6.51302
-1.53776
-9.24832
-9.24832
-17.3809
-24.1044
-24.1044
-29.6605
-29.6605
-36.5357
-39.8177
-39.8177
-44.9963
-45.4109
-45.4109
-44.1331
-44.1331
-45.7137
-41.8186
-41.8186
-36.7925
-36.7925
-35.2145
-28.6134
-28.6134
-21.6313
-21.6313
-18.1498
-11.4427
-11.4427
-5.93353
-5.93353
-2.08031
-2.08031
)
;
    }
}


// ************************************************************************* //
