/*--------------------------------*- C++ -*----------------------------------*\
| =========                 |                                                 |
| \\      /  F ield         | OpenFOAM: The Open Source CFD Toolbox           |
|  \\    /   O peration     | Version:  dev                                   |
|   \\  /    A nd           | Web:      www.OpenFOAM.org                      |
|    \\/     M anipulation  |                                                 |
\*---------------------------------------------------------------------------*/
FoamFile
{
    version     2.0;
    format      ascii;
    class       pointVectorField;
    location    "1.46";
    object      pointDisplacement;
}
// * * * * * * * * * * * * * * * * * * * * * * * * * * * * * * * * * * * * * //

dimensions      [0 1 0 0 0 0 0];

internalField   nonuniform List<vector> 
1030
(
(0 0 0)
(0.0240595 0 0)
(0.0453825 0 0)
(0.0633586 0 0)
(0.0783295 0 0)
(0.0906215 0 0)
(0.10052 0 0)
(0.108274 0 0)
(0.114095 0 0)
(0.118166 0 0)
(0.120655 0 0)
(0.121705 0 0)
(0.121443 0 0)
(0.119978 0 0)
(0.117411 0 0)
(0.113832 0 0)
(0.109324 0 0)
(0.103964 0 0)
(0.0978273 0 0)
(0.0909881 0 0)
(0.0835226 0 0)
(0.075512 0 0)
(0 0 0)
(0.0240758 0 -0.00023484)
(0.0454143 0 -0.000445812)
(0.0634064 0 -0.000630161)
(0.0783939 0 -0.000792828)
(0.0907035 0 -0.000937359)
(0.100622 0 -0.00106616)
(0.108398 0 -0.00118086)
(0.114242 0 -0.00128266)
(0.118339 0 -0.00137163)
(0.120857 0 -0.00144739)
(0.121941 0 -0.00150948)
(0.121717 0 -0.00155655)
(0.120295 0 -0.00158684)
(0.117777 0 -0.00159822)
(0.114254 0 -0.00158796)
(0.109809 0 -0.00155264)
(0.104522 0 -0.00148807)
(0.0984691 0 -0.00138934)
(0.0917266 0 -0.00125062)
(0.0843735 0 -0.00106507)
(0.0764953 0 -0.000824771)
(0 0 0)
(0.0241248 0 -0.000470167)
(0.0455111 0 -0.000892657)
(0.0635513 0 -0.001262)
(0.0785886 0 -0.00158812)
(0.0909509 0 -0.00187812)
(0.100926 0 -0.00213678)
(0.108765 0 -0.00236728)
(0.11468 0 -0.00257063)
(0.118856 0 -0.00274848)
(0.121463 0 -0.00290163)
(0.122648 0 -0.00302794)
(0.122538 0 -0.00312472)
(0.121245 0 -0.00318851)
(0.118873 0 -0.00321528)
(0.115515 0 -0.0031999)
(0.11126 0 -0.00313568)
(0.10619 0 -0.00301463)
(0.100387 0 -0.00282737)
(0.0939317 0 -0.00256288)
(0.086912 0 -0.00220824)
(0.0794249 0 -0.00174893)
(0 0 0)
(0.0242061 0 -0.000705211)
(0.0456716 0 -0.00133908)
(0.0637913 0 -0.00189348)
(0.0789109 0 -0.00238346)
(0.0913598 0 -0.00281956)
(0.101429 0 -0.00320901)
(0.109372 0 -0.00355678)
(0.115403 0 -0.00386474)
(0.119712 0 -0.0041353)
(0.122468 0 -0.00436937)
(0.12382 0 -0.00456412)
(0.123898 0 -0.00471581)
(0.122818 0 -0.00481941)
(0.120687 0 -0.00486947)
(0.117604 0 -0.00485901)
(0.113663 0 -0.00477848)
(0.108952 0 -0.00461674)
(0.10356 0 -0.0043609)
(0.0975799 0 -0.00399591)
(0.0911086 0 -0.00350414)
(0.0842634 0 -0.00286725)
(0 0 0)
(0.0243184 0 -0.000939289)
(0.0458934 0 -0.00178381)
(0.0641234 0 -0.00252287)
(0.0793573 0 -0.00317682)
(0.091926 0 -0.00375956)
(0.102125 0 -0.00428067)
(0.110212 0 -0.00474743)
(0.116405 0 -0.00516344)
(0.120897 0 -0.00553104)
(0.123858 0 -0.00585054)
(0.125441 0 -0.00611939)
(0.125779 0 -0.00633319)
(0.124992 0 -0.00648528)
(0.123193 0 -0.00656974)
(0.120489 0 -0.00657877)
(0.11698 0 -0.00650036)
(0.112762 0 -0.00632117)
(0.107939 0 -0.00602634)
(0.102615 0 -0.00559879)
(0.0969026 0 -0.00501829)
(0.0909394 0 -0.00426467)
(0 0 0)
(0.0244608 0 -0.00117273)
(0.0461745 0 -0.00222755)
(0.0645454 0 -0.00315128)
(0.0799246 0 -0.00396893)
(0.092644 0 -0.00469831)
(0.103008 0 -0.00535234)
(0.111278 0 -0.00594026)
(0.117677 0 -0.00646704)
(0.122399 0 -0.00693543)
(0.125619 0 -0.00734576)
(0.127493 0 -0.00769583)
(0.12816 0 -0.00798123)
(0.127746 0 -0.00819501)
(0.126369 0 -0.00833007)
(0.124143 0 -0.00837745)
(0.121178 0 -0.00832458)
(0.117582 0 -0.00815724)
(0.113471 0 -0.00786044)
(0.10897 0 -0.00741743)
(0.104211 0 -0.00680804)
(0.0993545 0 -0.0060138)
(0 0 0)
(0.0246324 0 -0.00140579)
(0.046513 0 -0.00267085)
(0.0650504 0 -0.00377946)
(0.0806019 0 -0.00476074)
(0.0935054 0 -0.00563743)
(0.104071 0 -0.00642648)
(0.112563 0 -0.00713849)
(0.119209 0 -0.00777985)
(0.124207 0 -0.00835404)
(0.127737 0 -0.00886185)
(0.12996 0 -0.00930182)
(0.131022 0 -0.0096702)
(0.131057 0 -0.00996142)
(0.130187 0 -0.0101661)
(0.128533 0 -0.0102737)
(0.126218 0 -0.0102737)
(0.123359 0 -0.0101518)
(0.120093 0 -0.00989535)
(0.116569 0 -0.00949097)
(0.112937 0 -0.00892104)
(0.109388 0 -0.0081723)
(0 0 0)
(0.0248313 0 -0.00163754)
(0.0469048 0 -0.003112)
(0.0656328 0 -0.00440523)
(0.0813831 0 -0.00555147)
(0.094504 0 -0.00657799)
(0.105306 0 -0.00750479)
(0.114057 0 -0.00834438)
(0.120989 0 -0.00910481)
(0.126308 0 -0.00979066)
(0.130195 0 -0.0104034)
(0.132821 0 -0.0109428)
(0.134337 0 -0.0114062)
(0.134884 0 -0.0117885)
(0.134593 0 -0.0120799)
(0.133594 0 -0.0122717)
(0.132026 0 -0.012356)
(0.13002 0 -0.0123199)
(0.127725 0 -0.012153)
(0.125312 0 -0.0118466)
(0.122964 0 -0.0113905)
(0.120899 0 -0.0107805)
(0 0 0)
(0.0250546 0 -0.00186705)
(0.0473453 0 -0.0035493)
(0.0662895 0 -0.0050265)
(0.0822662 0 -0.00633864)
(0.0956317 0 -0.00751684)
(0.1067 0 -0.00858362)
(0.115742 0 -0.00955405)
(0.122997 0 -0.0104381)
(0.128675 0 -0.0112416)
(0.132963 0 -0.0119669)
(0.136039 0 -0.0126156)
(0.138063 0 -0.0131869)
(0.139181 0 -0.0136757)
(0.139536 0 -0.014075)
(0.139272 0 -0.0143788)
(0.138536 0 -0.0145806)
(0.137483 0 -0.0146731)
(0.136269 0 -0.0146474)
(0.135085 0 -0.0145005)
(0.134153 0 -0.0142353)
(0.13372 0 -0.0138595)
(0 0 0)
(0.0253002 0 -0.00209396)
(0.0478303 0 -0.00398214)
(0.0670141 0 -0.00564239)
(0.0832413 0 -0.00712023)
(0.0968762 0 -0.00845079)
(0.108237 0 -0.00965944)
(0.1176 0 -0.0107638)
(0.12521 0 -0.011776)
(0.131282 0 -0.0127036)
(0.136013 0 -0.0135511)
(0.139586 0 -0.0143212)
(0.142166 0 -0.0150143)
(0.143909 0 -0.0156273)
(0.144975 0 -0.0161584)
(0.145514 0 -0.0166025)
(0.145679 0 -0.0169537)
(0.14565 0 -0.0172131)
(0.145608 0 -0.0173796)
(0.145757 0 -0.0174565)
(0.146349 0 -0.0174592)
(0.147669 0 -0.0174121)
(0 0 0)
(0.0255665 0 -0.00231843)
(0.048357 0 -0.00441082)
(0.0678019 0 -0.00625335)
(0.0843022 0 -0.00789697)
(0.0982297 0 -0.00938093)
(0.109908 0 -0.0107336)
(0.119619 0 -0.0119753)
(0.127613 0 -0.0131203)
(0.134113 0 -0.0141789)
(0.139326 0 -0.0151587)
(0.143435 0 -0.0160623)
(0.146612 0 -0.0168906)
(0.149023 0 -0.0176442)
(0.150842 0 -0.0183259)
(0.152234 0 -0.018935)
(0.153362 0 -0.0194694)
(0.154421 0 -0.0199361)
(0.155622 0 -0.0203447)
(0.157182 0 -0.0207066)
(0.159377 0 -0.0210493)
(0.162538 0 -0.0214197)
(0 0 0)
(0.0258522 0 -0.00254054)
(0.0489219 0 -0.00483548)
(0.0686476 0 -0.00685955)
(0.0854416 0 -0.00866913)
(0.0996833 0 -0.0103076)
(0.111701 0 -0.0118066)
(0.121785 0 -0.0131889)
(0.130189 0 -0.0144713)
(0.137146 0 -0.015667)
(0.142866 0 -0.0167858)
(0.147538 0 -0.017831)
(0.151344 0 -0.018807)
(0.154463 0 -0.019719)
(0.157074 0 -0.0205719)
(0.159356 0 -0.02137)
(0.161496 0 -0.0221203)
(0.163692 0 -0.0228326)
(0.166173 0 -0.0235261)
(0.169191 0 -0.0242273)
(0.173044 0 -0.0249778)
(0.178094 0 -0.0258441)
(0 0 0)
(0.0261535 0 -0.0027591)
(0.049518 0 -0.00525391)
(0.0695407 0 -0.00745783)
(0.0866458 0 -0.00943274)
(0.10122 0 -0.0112262)
(0.113597 0 -0.0128729)
(0.124072 0 -0.0143985)
(0.132906 0 -0.015822)
(0.140341 0 -0.0171599)
(0.146591 0 -0.0184239)
(0.151851 0 -0.0196206)
(0.156316 0 -0.0207585)
(0.160177 0 -0.0218466)
(0.163613 0 -0.0228912)
(0.166809 0 -0.0239001)
(0.169978 0 -0.0248904)
(0.173335 0 -0.0258808)
(0.177119 0 -0.0268985)
(0.181615 0 -0.0279861)
(0.187144 0 -0.0292012)
(0.194087 0 -0.0306274)
(0 0 0)
(0.0264665 0 -0.00297296)
(0.0501379 0 -0.00566394)
(0.0704703 0 -0.00804507)
(0.087901 0 -0.0101839)
(0.102823 0 -0.0121321)
(0.115575 0 -0.0139274)
(0.126456 0 -0.0155985)
(0.135739 0 -0.0171675)
(0.143673 0 -0.0186538)
(0.150472 0 -0.0200709)
(0.156345 0 -0.0214298)
(0.16149 0 -0.0227413)
(0.166101 0 -0.0240159)
(0.17037 0 -0.0252658)
(0.174497 0 -0.0265058)
(0.178706 0 -0.0277599)
(0.183229 0 -0.0290562)
(0.18832 0 -0.0304317)
(0.194283 0 -0.0319424)
(0.201463 0 -0.0336639)
(0.210262 0 -0.0356986)
(0 0 0)
(0.0267886 0 -0.00318157)
(0.0507765 0 -0.00606455)
(0.0714299 0 -0.00862055)
(0.0892005 0 -0.0109224)
(0.104484 0 -0.0130251)
(0.117623 0 -0.0149698)
(0.128927 0 -0.0167885)
(0.138676 0 -0.0185074)
(0.147121 0 -0.0201472)
(0.154483 0 -0.0217229)
(0.160973 0 -0.0232492)
(0.166801 0 -0.0247407)
(0.172166 0 -0.026212)
(0.177273 0 -0.0276808)
(0.182336 0 -0.0291696)
(0.187584 0 -0.0307072)
(0.193257 0 -0.0323296)
(0.199624 0 -0.0340842)
(0.207009 0 -0.0360426)
(0.215778 0 -0.038297)
(0.226345 0 -0.0409675)
(0 0 0)
(0.0271219 0 -0.00338675)
(0.0514415 0 -0.00645972)
(0.0724325 0 -0.00919026)
(0.0905539 0 -0.0116551)
(0.106208 0 -0.0139126)
(0.119749 0 -0.0160081)
(0.131491 0 -0.0179771)
(0.141715 0 -0.0198479)
(0.15068 0 -0.0216439)
(0.158611 0 -0.0233833)
(0.165728 0 -0.0250837)
(0.172248 0 -0.0267643)
(0.178381 0 -0.0284454)
(0.18433 0 -0.0301467)
(0.190319 0 -0.0318962)
(0.19659 0 -0.0337321)
(0.203388 0 -0.0356967)
(0.210991 0 -0.0378477)
(0.219733 0 -0.0402677)
(0.229991 0 -0.0430644)
(0.242182 0 -0.0463737)
(0 0 0)
(0.0240595 0 0)
(0.0453825 0 0)
(0.0633586 0 0)
(0.0783295 0 0)
(0.0906215 0 0)
(0.10052 0 0)
(0.108274 0 0)
(0.114095 0 0)
(0.118166 0 0)
(0.120655 0 0)
(0.121705 0 0)
(0.121443 0 0)
(0.119978 0 0)
(0.117411 0 0)
(0.113832 0 0)
(0.109324 0 0)
(0.103964 0 0)
(0.0978273 0 0)
(0.0909881 0 0)
(0.0835226 0 0)
(0.075512 0 0)
(0 0 0)
(0.0240758 0 -0.00023484)
(0.0454143 0 -0.000445812)
(0.0634064 0 -0.000630161)
(0.0783939 0 -0.000792828)
(0.0907035 0 -0.000937359)
(0.100622 0 -0.00106616)
(0.108398 0 -0.00118086)
(0.114242 0 -0.00128266)
(0.118339 0 -0.00137163)
(0.120857 0 -0.00144739)
(0.121941 0 -0.00150948)
(0.121717 0 -0.00155655)
(0.120295 0 -0.00158684)
(0.117777 0 -0.00159822)
(0.114254 0 -0.00158796)
(0.109809 0 -0.00155264)
(0.104522 0 -0.00148807)
(0.0984691 0 -0.00138934)
(0.0917266 0 -0.00125062)
(0.0843735 0 -0.00106507)
(0.0764953 0 -0.000824771)
(0 0 0)
(0.0241248 0 -0.000470167)
(0.0455111 0 -0.000892657)
(0.0635513 0 -0.001262)
(0.0785886 0 -0.00158812)
(0.0909509 0 -0.00187812)
(0.100926 0 -0.00213678)
(0.108765 0 -0.00236728)
(0.11468 0 -0.00257063)
(0.118856 0 -0.00274848)
(0.121463 0 -0.00290163)
(0.122648 0 -0.00302794)
(0.122538 0 -0.00312472)
(0.121245 0 -0.00318851)
(0.118873 0 -0.00321528)
(0.115515 0 -0.0031999)
(0.11126 0 -0.00313568)
(0.10619 0 -0.00301463)
(0.100387 0 -0.00282737)
(0.0939317 0 -0.00256288)
(0.086912 0 -0.00220824)
(0.0794249 0 -0.00174893)
(0 0 0)
(0.0242061 0 -0.000705211)
(0.0456716 0 -0.00133908)
(0.0637913 0 -0.00189348)
(0.0789109 0 -0.00238346)
(0.0913598 0 -0.00281956)
(0.101429 0 -0.00320901)
(0.109372 0 -0.00355678)
(0.115403 0 -0.00386474)
(0.119712 0 -0.0041353)
(0.122468 0 -0.00436937)
(0.12382 0 -0.00456412)
(0.123898 0 -0.00471581)
(0.122818 0 -0.00481941)
(0.120687 0 -0.00486947)
(0.117604 0 -0.00485901)
(0.113663 0 -0.00477848)
(0.108952 0 -0.00461674)
(0.10356 0 -0.0043609)
(0.0975799 0 -0.00399591)
(0.0911086 0 -0.00350414)
(0.0842634 0 -0.00286725)
(0 0 0)
(0.0243184 0 -0.000939289)
(0.0458934 0 -0.00178381)
(0.0641234 0 -0.00252287)
(0.0793573 0 -0.00317682)
(0.091926 0 -0.00375956)
(0.102125 0 -0.00428067)
(0.110212 0 -0.00474743)
(0.116405 0 -0.00516344)
(0.120897 0 -0.00553104)
(0.123858 0 -0.00585054)
(0.125441 0 -0.00611939)
(0.125779 0 -0.00633319)
(0.124992 0 -0.00648528)
(0.123193 0 -0.00656974)
(0.120489 0 -0.00657877)
(0.11698 0 -0.00650036)
(0.112762 0 -0.00632117)
(0.107939 0 -0.00602634)
(0.102615 0 -0.00559879)
(0.0969026 0 -0.00501829)
(0.0909394 0 -0.00426467)
(0 0 0)
(0.0244608 0 -0.00117273)
(0.0461745 0 -0.00222755)
(0.0645454 0 -0.00315128)
(0.0799246 0 -0.00396893)
(0.092644 0 -0.00469831)
(0.103008 0 -0.00535234)
(0.111278 0 -0.00594026)
(0.117677 0 -0.00646704)
(0.122399 0 -0.00693543)
(0.125619 0 -0.00734576)
(0.127493 0 -0.00769583)
(0.12816 0 -0.00798123)
(0.127746 0 -0.00819501)
(0.126369 0 -0.00833007)
(0.124143 0 -0.00837745)
(0.121178 0 -0.00832458)
(0.117582 0 -0.00815724)
(0.113471 0 -0.00786044)
(0.10897 0 -0.00741743)
(0.104211 0 -0.00680804)
(0.0993545 0 -0.0060138)
(0 0 0)
(0.0246324 0 -0.00140579)
(0.046513 0 -0.00267085)
(0.0650504 0 -0.00377946)
(0.0806019 0 -0.00476074)
(0.0935054 0 -0.00563743)
(0.104071 0 -0.00642648)
(0.112563 0 -0.00713849)
(0.119209 0 -0.00777985)
(0.124207 0 -0.00835404)
(0.127737 0 -0.00886185)
(0.12996 0 -0.00930182)
(0.131022 0 -0.0096702)
(0.131057 0 -0.00996142)
(0.130187 0 -0.0101661)
(0.128533 0 -0.0102737)
(0.126218 0 -0.0102737)
(0.123359 0 -0.0101518)
(0.120093 0 -0.00989535)
(0.116569 0 -0.00949097)
(0.112937 0 -0.00892104)
(0.109388 0 -0.0081723)
(0 0 0)
(0.0248313 0 -0.00163754)
(0.0469048 0 -0.003112)
(0.0656328 0 -0.00440523)
(0.0813831 0 -0.00555147)
(0.094504 0 -0.00657799)
(0.105306 0 -0.00750479)
(0.114057 0 -0.00834438)
(0.120989 0 -0.00910481)
(0.126308 0 -0.00979066)
(0.130195 0 -0.0104034)
(0.132821 0 -0.0109428)
(0.134337 0 -0.0114062)
(0.134884 0 -0.0117885)
(0.134593 0 -0.0120799)
(0.133594 0 -0.0122717)
(0.132026 0 -0.012356)
(0.13002 0 -0.0123199)
(0.127725 0 -0.012153)
(0.125312 0 -0.0118466)
(0.122964 0 -0.0113905)
(0.120899 0 -0.0107805)
(0 0 0)
(0.0250546 0 -0.00186705)
(0.0473453 0 -0.0035493)
(0.0662895 0 -0.0050265)
(0.0822662 0 -0.00633864)
(0.0956317 0 -0.00751684)
(0.1067 0 -0.00858362)
(0.115742 0 -0.00955405)
(0.122997 0 -0.0104381)
(0.128675 0 -0.0112416)
(0.132963 0 -0.0119669)
(0.136039 0 -0.0126156)
(0.138063 0 -0.0131869)
(0.139181 0 -0.0136757)
(0.139536 0 -0.014075)
(0.139272 0 -0.0143788)
(0.138536 0 -0.0145806)
(0.137483 0 -0.0146731)
(0.136269 0 -0.0146474)
(0.135085 0 -0.0145005)
(0.134153 0 -0.0142353)
(0.13372 0 -0.0138595)
(0 0 0)
(0.0253002 0 -0.00209396)
(0.0478303 0 -0.00398214)
(0.0670141 0 -0.00564239)
(0.0832413 0 -0.00712023)
(0.0968762 0 -0.00845079)
(0.108237 0 -0.00965944)
(0.1176 0 -0.0107638)
(0.12521 0 -0.011776)
(0.131282 0 -0.0127036)
(0.136013 0 -0.0135511)
(0.139586 0 -0.0143212)
(0.142166 0 -0.0150143)
(0.143909 0 -0.0156273)
(0.144975 0 -0.0161584)
(0.145514 0 -0.0166025)
(0.145679 0 -0.0169537)
(0.14565 0 -0.0172131)
(0.145608 0 -0.0173796)
(0.145757 0 -0.0174565)
(0.146349 0 -0.0174592)
(0.147669 0 -0.0174121)
(0 0 0)
(0.0255665 0 -0.00231843)
(0.048357 0 -0.00441082)
(0.0678019 0 -0.00625335)
(0.0843022 0 -0.00789697)
(0.0982297 0 -0.00938093)
(0.109908 0 -0.0107336)
(0.119619 0 -0.0119753)
(0.127613 0 -0.0131203)
(0.134113 0 -0.0141789)
(0.139326 0 -0.0151587)
(0.143435 0 -0.0160623)
(0.146612 0 -0.0168906)
(0.149023 0 -0.0176442)
(0.150842 0 -0.0183259)
(0.152234 0 -0.018935)
(0.153362 0 -0.0194694)
(0.154421 0 -0.0199361)
(0.155622 0 -0.0203447)
(0.157182 0 -0.0207066)
(0.159377 0 -0.0210493)
(0.162538 0 -0.0214197)
(0 0 0)
(0.0258522 0 -0.00254054)
(0.0489219 0 -0.00483548)
(0.0686476 0 -0.00685955)
(0.0854416 0 -0.00866913)
(0.0996833 0 -0.0103076)
(0.111701 0 -0.0118066)
(0.121785 0 -0.0131889)
(0.130189 0 -0.0144713)
(0.137146 0 -0.015667)
(0.142866 0 -0.0167858)
(0.147538 0 -0.017831)
(0.151344 0 -0.018807)
(0.154463 0 -0.019719)
(0.157074 0 -0.0205719)
(0.159356 0 -0.02137)
(0.161496 0 -0.0221203)
(0.163692 0 -0.0228326)
(0.166173 0 -0.0235261)
(0.169191 0 -0.0242273)
(0.173044 0 -0.0249778)
(0.178094 0 -0.0258441)
(0 0 0)
(0.0261535 0 -0.0027591)
(0.049518 0 -0.00525391)
(0.0695407 0 -0.00745783)
(0.0866458 0 -0.00943274)
(0.10122 0 -0.0112262)
(0.113597 0 -0.0128729)
(0.124072 0 -0.0143985)
(0.132906 0 -0.015822)
(0.140341 0 -0.0171599)
(0.146591 0 -0.0184239)
(0.151851 0 -0.0196206)
(0.156316 0 -0.0207585)
(0.160177 0 -0.0218466)
(0.163613 0 -0.0228912)
(0.166809 0 -0.0239001)
(0.169978 0 -0.0248904)
(0.173335 0 -0.0258808)
(0.177119 0 -0.0268985)
(0.181615 0 -0.0279861)
(0.187144 0 -0.0292012)
(0.194087 0 -0.0306274)
(0 0 0)
(0.0264665 0 -0.00297296)
(0.0501379 0 -0.00566394)
(0.0704703 0 -0.00804507)
(0.087901 0 -0.0101839)
(0.102823 0 -0.0121321)
(0.115575 0 -0.0139274)
(0.126456 0 -0.0155985)
(0.135739 0 -0.0171675)
(0.143673 0 -0.0186538)
(0.150472 0 -0.0200709)
(0.156345 0 -0.0214298)
(0.16149 0 -0.0227413)
(0.166101 0 -0.0240159)
(0.17037 0 -0.0252658)
(0.174497 0 -0.0265058)
(0.178706 0 -0.0277599)
(0.183229 0 -0.0290562)
(0.18832 0 -0.0304317)
(0.194283 0 -0.0319424)
(0.201463 0 -0.0336639)
(0.210262 0 -0.0356986)
(0 0 0)
(0.0267886 0 -0.00318157)
(0.0507765 0 -0.00606455)
(0.0714299 0 -0.00862055)
(0.0892005 0 -0.0109224)
(0.104484 0 -0.0130251)
(0.117623 0 -0.0149698)
(0.128927 0 -0.0167885)
(0.138676 0 -0.0185074)
(0.147121 0 -0.0201472)
(0.154483 0 -0.0217229)
(0.160973 0 -0.0232492)
(0.166801 0 -0.0247407)
(0.172166 0 -0.026212)
(0.177273 0 -0.0276808)
(0.182336 0 -0.0291696)
(0.187584 0 -0.0307072)
(0.193257 0 -0.0323296)
(0.199624 0 -0.0340842)
(0.207009 0 -0.0360426)
(0.215778 0 -0.038297)
(0.226345 0 -0.0409675)
(0 0 0)
(0.0271219 0 -0.00338675)
(0.0514415 0 -0.00645972)
(0.0724325 0 -0.00919026)
(0.0905539 0 -0.0116551)
(0.106208 0 -0.0139126)
(0.119749 0 -0.0160081)
(0.131491 0 -0.0179771)
(0.141715 0 -0.0198479)
(0.15068 0 -0.0216439)
(0.158611 0 -0.0233833)
(0.165728 0 -0.0250837)
(0.172248 0 -0.0267643)
(0.178381 0 -0.0284454)
(0.18433 0 -0.0301467)
(0.190319 0 -0.0318962)
(0.19659 0 -0.0337321)
(0.203388 0 -0.0356967)
(0.210991 0 -0.0378477)
(0.219733 0 -0.0402677)
(0.229991 0 -0.0430644)
(0.242182 0 -0.0463737)
(0.0521387 0 -0.00685456)
(0.0734851 0 -0.0097603)
(0.0919683 0 -0.0123886)
(0.108006 0 -0.0148022)
(0.121965 0 -0.0170515)
(0.134159 0 -0.0191745)
(0.144874 0 -0.0212017)
(0.154376 0 -0.0231602)
(0.162896 0 -0.0250711)
(0.170658 0 -0.0269561)
(0.177882 0 -0.0288367)
(0.184783 0 -0.0307363)
(0.191575 0 -0.0326813)
(0.198487 0 -0.0347059)
(0.205765 0 -0.0368536)
(0.213656 0 -0.0391733)
(0.22245 0 -0.0417336)
(0.232471 0 -0.0446233)
(0.244087 0 -0.0479587)
(0.257723 0 -0.0518918)
(0.0745703 0 -0.0103258)
(0.0934284 0 -0.0131176)
(0.109865 0 -0.0156895)
(0.124259 0 -0.018096)
(0.136924 0 -0.0203773)
(0.148147 0 -0.0225668)
(0.158201 0 -0.024694)
(0.167316 0 -0.0267817)
(0.175726 0 -0.0288565)
(0.183655 0 -0.0309433)
(0.19132 0 -0.0330693)
(0.198945 0 -0.035267)
(0.206761 0 -0.0375754)
(0.215009 0 -0.0400409)
(0.223937 0 -0.0427192)
(0.233837 0 -0.045687)
(0.245023 0 -0.0490387)
(0.257836 0 -0.0528923)
(0.272678 0 -0.0574049)
(0.0949275 0 -0.0138377)
(0.111779 0 -0.0165696)
(0.126618 0 -0.019135)
(0.13976 0 -0.021576)
(0.151497 0 -0.023929)
(0.162099 0 -0.0262259)
(0.17181 0 -0.028494)
(0.180866 0 -0.0307626)
(0.189493 0 -0.0330605)
(0.197909 0 -0.0354175)
(0.206338 0 -0.0378702)
(0.215015 0 -0.0404623)
(0.22417 0 -0.0432418)
(0.234047 0 -0.0462689)
(0.244934 0 -0.0496268)
(0.257122 0 -0.05341)
(0.270919 0 -0.0577347)
(0.28666 0 -0.062746)
(0.113727 0 -0.017435)
(0.129013 0 -0.0201577)
(0.142632 0 -0.0227577)
(0.15488 0 -0.0252741)
(0.166035 0 -0.0277428)
(0.176343 0 -0.0301946)
(0.186036 0 -0.0326594)
(0.19534 0 -0.0351682)
(0.204474 0 -0.0377544)
(0.213666 0 -0.040459)
(0.223143 0 -0.0433277)
(0.233119 0 -0.0464078)
(0.24384 0 -0.0497657)
(0.255571 0 -0.0534829)
(0.268567 0 -0.0576489)
(0.283087 0 -0.0623712)
(0.299387 0 -0.0677739)
(0.131416 0 -0.0211538)
(0.145517 0 -0.0239126)
(0.158278 0 -0.0265933)
(0.169981 0 -0.0292341)
(0.180871 0 -0.0318677)
(0.19118 0 -0.0345263)
(0.201131 0 -0.0372425)
(0.210943 0 -0.0400528)
(0.220841 0 -0.0430001)
(0.231039 0 -0.04613)
(0.241741 0 -0.0494913)
(0.253185 0 -0.0531518)
(0.265591 0 -0.0571834)
(0.279179 0 -0.061669)
(0.294144 0 -0.0666981)
(0.310664 0 -0.0723707)
(0.14839 0 -0.0250307)
(0.161658 0 -0.027873)
(0.173895 0 -0.0306828)
(0.185346 0 -0.0334942)
(0.196242 0 -0.0363409)
(0.2068 0 -0.0392573)
(0.217241 0 -0.042282)
(0.227776 0 -0.0454572)
(0.238604 0 -0.0488268)
(0.249926 0 -0.0524425)
(0.261944 0 -0.0563637)
(0.274842 0 -0.0606535)
(0.288799 0 -0.0653843)
(0.303937 0 -0.0706218)
(0.320362 0 -0.076439)
(0.177732 0 -0.0320701)
(0.189717 0 -0.0350521)
(0.201161 0 -0.0380779)
(0.21228 0 -0.0411831)
(0.223286 0 -0.0444067)
(0.234381 0 -0.0477899)
(0.245744 0 -0.0513737)
(0.257563 0 -0.0552077)
(0.269998 0 -0.0593401)
(0.283204 0 -0.0638262)
(0.297314 0 -0.0687233)
(0.312377 0 -0.0740701)
(0.328429 0 -0.0799109)
(0.193931 0 -0.036518)
(0.205882 0 -0.0397115)
(0.217508 0 -0.0429906)
(0.22901 0 -0.0463937)
(0.240576 0 -0.0499591)
(0.25237 0 -0.0537252)
(0.264556 0 -0.0577354)
(0.277255 0 -0.0620266)
(0.290597 0 -0.0666454)
(0.304657 0 -0.0716286)
(0.319424 0 -0.0769896)
(0.334868 0 -0.0827423)
(0.222424 0 -0.0446492)
(0.234349 0 -0.0482091)
(0.246292 0 -0.0519267)
(0.258407 0 -0.0558385)
(0.270833 0 -0.0599806)
(0.283653 0 -0.064377)
(0.296963 0 -0.0690628)
(0.310789 0 -0.0740535)
(0.325072 0 -0.0793413)
(0.339734 0 -0.0849138)
(0.251468 0 -0.0536551)
(0.2638 0 -0.0576754)
(0.276343 0 -0.0619032)
(0.289146 0 -0.0663506)
(0.30227 0 -0.0710378)
(0.315698 0 -0.0759626)
(0.329356 0 -0.0811044)
(0.343149 0 -0.0864384)
(0.268504 0 -0.0591989)
(0.281042 0 -0.0634644)
(0.293699 0 -0.0679088)
(0.306499 0 -0.0725364)
(0.319412 0 -0.0773359)
(0.33237 0 -0.0822847)
(0.345281 0 -0.0873528)
(0.297288 0 -0.0690174)
(0.309669 0 -0.0735385)
(0.322009 0 -0.0781765)
(0.334249 0 -0.0829072)
(0.346303 0 -0.0876974)
(0.323599 0 -0.0784976)
(0.335129 0 -0.0829964)
(0.346364 0 -0.0875062)
(0.0521387 0 -0.00685456)
(0.0734851 0 -0.0097603)
(0.0919683 0 -0.0123886)
(0.108006 0 -0.0148022)
(0.121965 0 -0.0170515)
(0.134159 0 -0.0191745)
(0.144874 0 -0.0212017)
(0.154376 0 -0.0231602)
(0.162896 0 -0.0250711)
(0.170658 0 -0.0269561)
(0.177882 0 -0.0288367)
(0.184783 0 -0.0307363)
(0.191575 0 -0.0326813)
(0.198487 0 -0.0347059)
(0.205765 0 -0.0368536)
(0.213656 0 -0.0391733)
(0.22245 0 -0.0417336)
(0.232471 0 -0.0446233)
(0.244087 0 -0.0479587)
(0.257723 0 -0.0518918)
(0.0745703 0 -0.0103258)
(0.0934284 0 -0.0131176)
(0.109865 0 -0.0156895)
(0.124259 0 -0.018096)
(0.136924 0 -0.0203773)
(0.148147 0 -0.0225668)
(0.158201 0 -0.024694)
(0.167316 0 -0.0267817)
(0.175726 0 -0.0288565)
(0.183655 0 -0.0309433)
(0.19132 0 -0.0330693)
(0.198945 0 -0.035267)
(0.206761 0 -0.0375754)
(0.215009 0 -0.0400409)
(0.223937 0 -0.0427192)
(0.233837 0 -0.045687)
(0.245023 0 -0.0490387)
(0.257836 0 -0.0528923)
(0.272678 0 -0.0574049)
(0.0949275 0 -0.0138377)
(0.111779 0 -0.0165696)
(0.126618 0 -0.019135)
(0.13976 0 -0.021576)
(0.151497 0 -0.023929)
(0.162099 0 -0.0262259)
(0.17181 0 -0.028494)
(0.180866 0 -0.0307626)
(0.189493 0 -0.0330605)
(0.197909 0 -0.0354175)
(0.206338 0 -0.0378702)
(0.215015 0 -0.0404623)
(0.22417 0 -0.0432418)
(0.234047 0 -0.0462689)
(0.244934 0 -0.0496268)
(0.257122 0 -0.05341)
(0.270919 0 -0.0577347)
(0.28666 0 -0.062746)
(0.113727 0 -0.017435)
(0.129013 0 -0.0201577)
(0.142632 0 -0.0227577)
(0.15488 0 -0.0252741)
(0.166035 0 -0.0277428)
(0.176343 0 -0.0301946)
(0.186036 0 -0.0326594)
(0.19534 0 -0.0351682)
(0.204474 0 -0.0377544)
(0.213666 0 -0.040459)
(0.223143 0 -0.0433277)
(0.233119 0 -0.0464078)
(0.24384 0 -0.0497657)
(0.255571 0 -0.0534829)
(0.268567 0 -0.0576489)
(0.283087 0 -0.0623712)
(0.299387 0 -0.0677739)
(0.131416 0 -0.0211538)
(0.145517 0 -0.0239126)
(0.158278 0 -0.0265933)
(0.169981 0 -0.0292341)
(0.180871 0 -0.0318677)
(0.19118 0 -0.0345263)
(0.201131 0 -0.0372425)
(0.210943 0 -0.0400528)
(0.220841 0 -0.0430001)
(0.231039 0 -0.04613)
(0.241741 0 -0.0494913)
(0.253185 0 -0.0531518)
(0.265591 0 -0.0571834)
(0.279179 0 -0.061669)
(0.294144 0 -0.0666981)
(0.310664 0 -0.0723707)
(0.14839 0 -0.0250307)
(0.161658 0 -0.027873)
(0.173895 0 -0.0306828)
(0.185346 0 -0.0334942)
(0.196242 0 -0.0363409)
(0.2068 0 -0.0392573)
(0.217241 0 -0.042282)
(0.227776 0 -0.0454572)
(0.238604 0 -0.0488268)
(0.249926 0 -0.0524425)
(0.261944 0 -0.0563637)
(0.274842 0 -0.0606535)
(0.288799 0 -0.0653843)
(0.303937 0 -0.0706218)
(0.320362 0 -0.076439)
(0.177732 0 -0.0320701)
(0.189717 0 -0.0350521)
(0.201161 0 -0.0380779)
(0.21228 0 -0.0411831)
(0.223286 0 -0.0444067)
(0.234381 0 -0.0477899)
(0.245744 0 -0.0513737)
(0.257563 0 -0.0552077)
(0.269998 0 -0.0593401)
(0.283204 0 -0.0638262)
(0.297314 0 -0.0687233)
(0.312377 0 -0.0740701)
(0.328429 0 -0.0799109)
(0.193931 0 -0.036518)
(0.205882 0 -0.0397115)
(0.217508 0 -0.0429906)
(0.22901 0 -0.0463937)
(0.240576 0 -0.0499591)
(0.25237 0 -0.0537252)
(0.264556 0 -0.0577354)
(0.277255 0 -0.0620266)
(0.290597 0 -0.0666454)
(0.304657 0 -0.0716286)
(0.319424 0 -0.0769896)
(0.334868 0 -0.0827423)
(0.222424 0 -0.0446492)
(0.234349 0 -0.0482091)
(0.246292 0 -0.0519267)
(0.258407 0 -0.0558385)
(0.270833 0 -0.0599806)
(0.283653 0 -0.064377)
(0.296963 0 -0.0690628)
(0.310789 0 -0.0740535)
(0.325072 0 -0.0793413)
(0.339734 0 -0.0849138)
(0.251468 0 -0.0536551)
(0.2638 0 -0.0576754)
(0.276343 0 -0.0619032)
(0.289146 0 -0.0663506)
(0.30227 0 -0.0710378)
(0.315698 0 -0.0759626)
(0.329356 0 -0.0811044)
(0.343149 0 -0.0864384)
(0.268504 0 -0.0591989)
(0.281042 0 -0.0634644)
(0.293699 0 -0.0679088)
(0.306499 0 -0.0725364)
(0.319412 0 -0.0773359)
(0.33237 0 -0.0822847)
(0.345281 0 -0.0873528)
(0.297288 0 -0.0690174)
(0.309669 0 -0.0735385)
(0.322009 0 -0.0781765)
(0.334249 0 -0.0829072)
(0.346303 0 -0.0876974)
(0.323599 0 -0.0784976)
(0.335129 0 -0.0829964)
(0.346364 0 -0.0875062)
)
;

boundaryField
{
    inlet
    {
        type            fixedValue;
        value           uniform (0 0 0);
    }
    outlet
    {
        type            fixedValue;
        value           nonuniform 0();
    }
    flap
    {
        type            fixedValue;
        value           nonuniform 0();
    }
    upperWall
    {
        type            slip;
    }
    lowerWall
    {
        type            slip;
    }
    frontAndBack
    {
        type            empty;
    }
    procBoundary3to0
    {
        type            processor;
    }
    procBoundary3to1
    {
        type            processor;
    }
    procBoundary3to4
    {
        type            processor;
    }
}


// ************************************************************************* //
