/*--------------------------------*- C++ -*----------------------------------*\
| =========                 |                                                 |
| \\      /  F ield         | OpenFOAM: The Open Source CFD Toolbox           |
|  \\    /   O peration     | Version:  dev                                   |
|   \\  /    A nd           | Web:      www.OpenFOAM.org                      |
|    \\/     M anipulation  |                                                 |
\*---------------------------------------------------------------------------*/
FoamFile
{
    version     2.0;
    format      ascii;
    class       surfaceScalarField;
    location    "2.31";
    object      meshPhi;
}
// * * * * * * * * * * * * * * * * * * * * * * * * * * * * * * * * * * * * * //

dimensions      [0 3 -1 0 0 0 0];

internalField   nonuniform List<scalar> 
865
(
1.99131e-05
-1.30962e-06
1.3793e-05
-9.33585e-07
9.0315e-06
-6.30495e-07
5.49583e-06
-3.98901e-07
3.01402e-06
-2.31944e-07
1.40297e-06
-1.19503e-07
4.86597e-07
-5.03215e-08
9.90595e-08
-1.42406e-08
-2.18159e-09
2.03548e-05
-2.67225e-06
1.41509e-05
-1.91128e-06
9.31239e-06
-1.29592e-06
5.70654e-06
-8.23891e-07
3.16225e-06
-4.82389e-07
1.49546e-06
-2.51491e-07
5.3051e-07
-1.08199e-07
1.12196e-07
-3.17477e-08
-5.06551e-09
2.12764e-05
-4.14753e-06
1.49122e-05
-2.98464e-06
9.91106e-06
-2.03798e-06
6.14582e-06
-1.3051e-06
3.46007e-06
-7.69345e-07
1.67858e-06
-4.04971e-07
6.19719e-07
-1.78043e-07
1.40627e-07
-5.4836e-08
-9.63259e-09
2.27183e-05
-5.79151e-06
1.61168e-05
-4.20136e-06
1.08681e-05
-2.89553e-06
6.85162e-06
-1.87359e-06
3.93009e-06
-1.11488e-06
1.95491e-06
-5.90784e-07
7.53095e-07
-2.62328e-07
1.87477e-07
-8.41816e-08
-1.66173e-08
2.47213e-05
-7.6574e-06
1.7801e-05
-5.60751e-06
1.2219e-05
-3.90548e-06
7.86708e-06
-2.55822e-06
4.61532e-06
-1.54185e-06
2.34644e-06
-8.23878e-07
9.34603e-07
-3.66583e-07
2.54356e-07
-1.20767e-07
-2.64859e-08
2.73454e-05
-9.79208e-06
2.00242e-05
-7.24302e-06
1.40212e-05
-5.1012e-06
9.24173e-06
-3.388e-06
5.56346e-06
-2.07478e-06
2.89174e-06
-1.12326e-06
1.1794e-06
-5.01501e-07
3.42025e-07
-1.67323e-07
-3.93888e-08
3.06601e-05
-1.22378e-05
2.28541e-05
-9.1452e-06
1.63396e-05
-6.51063e-06
1.10351e-05
-4.38462e-06
6.82565e-06
-2.73595e-06
3.63456e-06
-1.51197e-06
1.51311e-06
-6.85309e-07
4.50556e-07
-2.30504e-07
-5.51821e-08
3.47495e-05
-1.50307e-05
2.63757e-05
-1.13528e-05
1.92384e-05
-8.16619e-06
1.32971e-05
-5.56563e-06
8.44418e-06
-3.53435e-06
4.61713e-06
-2.00367e-06
1.96612e-06
-9.3601e-07
5.7566e-07
-3.18745e-07
-7.36367e-08
3.96881e-05
-1.81897e-05
3.06744e-05
-1.38948e-05
2.27956e-05
-1.01031e-05
1.60726e-05
-6.9582e-06
1.04334e-05
-4.47464e-06
5.85156e-06
-2.5923e-06
2.54286e-06
-1.25226e-06
7.02279e-07
-4.31825e-07
-9.28782e-08
4.55116e-05
-2.17089e-05
3.57982e-05
-1.67769e-05
2.7078e-05
-1.23437e-05
1.94087e-05
-8.59229e-06
1.2796e-05
-5.57252e-06
7.30699e-06
-3.2696e-06
3.19306e-06
-1.61177e-06
7.9959e-07
-5.52963e-07
-1.07304e-07
5.21928e-05
-2.55522e-05
4.17277e-05
-1.99706e-05
3.20859e-05
-1.48728e-05
2.33202e-05
-1.04762e-05
1.55267e-05
-6.84907e-06
8.89746e-06
-4.02657e-06
3.79727e-06
-1.96685e-06
8.21412e-07
-6.43758e-07
-1.07002e-07
5.96202e-05
-2.96455e-05
4.83451e-05
-2.34104e-05
3.76967e-05
-1.76236e-05
2.77062e-05
-1.25531e-05
1.85035e-05
-8.26013e-06
1.04165e-05
-4.80035e-06
4.1729e-06
-2.23905e-06
7.16918e-07
-6.54512e-07
-8.0506e-08
6.75581e-05
-3.3858e-05
5.54008e-05
-2.69779e-05
4.36226e-05
-2.04701e-05
3.22412e-05
-1.46741e-05
2.13568e-05
-9.63904e-06
1.15299e-05
-5.4461e-06
4.13504e-06
-2.33974e-06
4.52404e-07
-5.52334e-07
-2.13418e-08
7.56049e-05
-3.79843e-05
6.24774e-05
-3.04838e-05
4.93965e-05
-2.32182e-05
3.63682e-05
-1.66103e-05
2.35325e-05
-1.07334e-05
1.18915e-05
-5.77153e-06
3.58318e-06
-2.19233e-06
2.55749e-08
-3.36133e-07
7.60108e-08
8.32207e-05
-4.17811e-05
6.9007e-05
-3.36926e-05
5.44011e-05
-2.56253e-05
3.94413e-05
-1.81037e-05
2.45339e-05
-1.13066e-05
1.13263e-05
-5.62415e-06
2.5635e-06
-1.73387e-06
-5.55176e-07
-1.17435e-09
2.60874e-07
-2.76735e-06
6.495e-08
-1.81225e-05
3.78125e-07
-6.23485e-05
1.00294e-06
-0.000120179
9.82907e-07
-0.000154118
-2.19742e-07
-0.000161888
-1.81565e-06
-0.000164579
-2.93986e-06
-0.00017289
-3.3307e-06
-0.000187786
-3.32088e-06
-3.0344e-06
-3.13509e-06
1.3495e-07
-1.98145e-05
7.39566e-07
-6.48964e-05
1.79657e-06
-0.000120768
1.56446e-06
-0.000152276
-6.54334e-07
-0.000159711
-3.63611e-06
-0.000163146
-5.8397e-06
-0.000172094
-6.58999e-06
-0.000187344
-6.47555e-06
-5.85389e-06
-3.58716e-06
2.10727e-07
-2.14623e-05
1.04137e-06
-6.53561e-05
2.22275e-06
-0.000115805
1.5878e-06
-0.000143377
-1.53257e-06
-0.000151146
-5.47339e-06
-0.000156428
-8.29165e-06
-0.000166808
-9.30241e-06
-0.000182923
-9.08489e-06
-8.10547e-06
-3.99949e-06
2.91751e-07
-2.2204e-05
1.19957e-06
-6.22731e-05
2.00695e-06
-0.000104757
6.55572e-07
-0.000127956
-3.00392e-06
-0.000136685
-7.10557e-06
-0.000144364
-9.89659e-06
-0.000156688
-1.09514e-05
-0.00017411
-1.06714e-05
-9.34979e-06
-4.37397e-06
3.67642e-07
-2.20651e-05
1.21813e-06
-5.66873e-05
1.37265e-06
-9.05913e-05
-7.69085e-07
-0.000109666
-4.57768e-06
-0.000119448
-8.26141e-06
-0.000129513
-1.06195e-05
-0.000143852
-1.14524e-05
-0.000162749
-1.0997e-05
-9.35919e-06
-4.65591e-06
4.16252e-07
-2.103e-05
1.09372e-06
-4.92895e-05
5.89097e-07
-7.50426e-05
-2.0973e-06
-9.06911e-05
-5.75667e-06
-0.000101555
-8.78557e-06
-0.000113871
-1.05328e-05
-0.000130104
-1.09879e-05
-0.000150336
-1.02616e-05
-8.30648e-06
-4.76119e-06
4.2275e-07
-1.90633e-05
8.18409e-07
-4.07869e-05
-2.31314e-07
-5.96494e-05
-3.06537e-06
-7.28741e-05
-6.26358e-06
-8.47854e-05
-8.56591e-06
-9.89656e-05
-9.6978e-06
-0.000116712
-9.74752e-06
-0.000137942
-8.70304e-06
-6.33268e-06
-4.61309e-06
3.84715e-07
-1.62454e-05
4.46114e-07
-3.20151e-05
-9.34632e-07
-4.58283e-05
-3.52368e-06
-5.76403e-05
-6.04179e-06
-7.03786e-05
-7.65363e-06
-8.58063e-05
-8.25207e-06
-0.000104522
-7.87688e-06
-0.000126395
-6.388e-06
-3.44876e-06
-4.18442e-06
3.08761e-07
-1.29342e-05
7.26331e-08
-2.3975e-05
-1.36557e-06
-3.45835e-05
-3.44371e-06
-4.56429e-05
-5.23481e-06
-5.88188e-05
-6.2499e-06
-7.48957e-05
-6.37008e-06
-9.41276e-05
-5.49511e-06
-0.00011635
-3.40032e-06
2.39186e-07
-3.51812e-06
2.08356e-07
-9.65772e-06
-2.12153e-07
-1.74635e-05
-1.44758e-06
-2.62359e-05
-2.91461e-06
-3.67976e-05
-4.06426e-06
-5.00409e-05
-4.56878e-06
-6.63481e-05
-4.19056e-06
-8.57869e-05
-2.70079e-06
-0.000108129
1.43951e-07
4.60174e-06
-2.71491e-06
1.01519e-07
-6.87945e-06
-3.66271e-07
-1.27834e-05
-1.232e-06
-2.05231e-05
-2.11595e-06
-3.06525e-05
-2.72325e-06
-4.37526e-05
-2.72787e-06
-6.00579e-05
-1.77462e-06
-7.95156e-05
4.3953e-07
-0.000101842
4.15394e-06
9.53748e-06
-1.89757e-06
4.70572e-09
-4.82543e-06
-4.03355e-07
-9.76394e-06
-8.60421e-07
-1.69268e-05
-1.23746e-06
-2.67273e-05
-1.31788e-06
-3.96425e-05
-7.43754e-07
-5.58591e-05
8.92471e-07
-7.52655e-05
3.92544e-06
-9.75304e-05
8.59368e-06
1.49735e-05
-1.18629e-06
-6.66741e-08
-3.50623e-06
-3.60156e-07
-8.04058e-06
-4.57718e-07
-1.49784e-05
-3.67761e-07
-2.46566e-05
1.34281e-07
-3.74697e-05
1.40064e-06
-5.36101e-05
3.83557e-06
-7.29712e-05
7.77719e-06
-9.51919e-05
1.34616e-05
2.08673e-05
-7.14771e-07
-8.85799e-08
-2.88933e-06
-2.48348e-07
-7.39953e-06
-1.32459e-08
-1.44029e-05
5.38271e-07
-2.41792e-05
1.6871e-06
-3.70488e-05
3.75041e-06
-5.32011e-05
7.08997e-06
-7.25681e-05
1.20298e-05
-9.47954e-05
1.88006e-05
2.72416e-05
-7.93095e-07
8.50054e-08
-3.25372e-06
8.24017e-09
-7.97175e-06
6.05882e-07
-1.51919e-05
1.69156e-06
-2.52048e-05
3.55675e-06
-3.82716e-05
6.48898e-06
-5.45464e-05
1.0803e-05
-7.39993e-05
1.68042e-05
-9.61948e-05
2.46434e-05
9.327e-05
-4.4991e-05
7.72545e-05
-3.63481e-05
6.02886e-05
-2.74337e-05
4.26046e-05
-1.89378e-05
2.51781e-05
-1.12415e-05
1.03996e-05
-4.98282e-06
1.26885e-06
-9.25924e-07
-1.60677e-06
7.09247e-07
7.31927e-07
-6.71981e-07
0.000100873
-4.73094e-05
8.30274e-05
-3.81623e-05
6.36927e-05
-2.83848e-05
4.35316e-05
-1.89662e-05
2.42422e-05
-1.053e-05
8.63513e-06
-3.87839e-06
-6.5771e-07
3.16405e-07
-3.7444e-06
2.08397e-06
2.33724e-06
-3.60631e-06
0.00010658
-4.84861e-05
8.66752e-05
-3.89068e-05
6.50163e-05
-2.82923e-05
4.27407e-05
-1.81224e-05
2.21883e-05
-9.16868e-06
6.09571e-06
-2.26085e-06
-3.58993e-06
2.12904e-06
-7.43469e-06
4.1926e-06
4.78479e-06
-8.0458e-06
0.000109362
8.78279e-05
-3.8172e-05
6.41096e-05
-2.70906e-05
4.02203e-05
-1.63549e-05
1.89406e-05
-7.0814e-06
2.47948e-06
-1.89989e-09
-7.92703e-06
4.6546e-06
-1.31277e-05
7.1684e-06
8.28608e-06
-1.51919e-05
8.5044e-05
6.04933e-05
3.58588e-05
-1.34036e-05
1.42052e-05
-4.13453e-06
-2.6577e-06
3.08672e-06
-1.40505e-05
8.05802e-06
-2.09335e-05
1.10912e-05
1.28043e-05
-2.47255e-05
2.87092e-05
7.30946e-06
-9.90315e-06
7.33031e-06
-2.24044e-05
1.25624e-05
-3.10081e-05
1.61054e-05
1.8381e-05
-3.65454e-05
-2.01221e-05
-3.35568e-05
-4.36849e-05
2.24125e-05
2.51611e-05
-5.07939e-05
-5.93462e-05
-6.78845e-05
-6.32489e-07
7.76783e-08
-6.65855e-07
-5.31847e-09
-1.41949e-08
-9.2373e-07
-3.10425e-06
8.94198e-07
-3.01958e-06
7.6176e-07
6.6153e-07
-3.3299e-06
-7.97034e-06
2.22808e-06
-8.0995e-06
2.23969e-06
2.09672e-06
-8.57523e-06
-1.59908e-05
4.1583e-06
-1.64597e-05
4.35237e-06
4.2476e-06
-1.71115e-05
-2.66594e-05
6.6363e-06
-2.77404e-05
7.02735e-06
7.02733e-06
-2.87762e-05
-3.968e-05
9.64505e-06
-4.15282e-05
1.02296e-05
1.03754e-05
-4.31929e-05
-5.50304e-05
1.32324e-05
-5.76655e-05
1.39875e-05
1.42889e-05
-6.01225e-05
-7.31278e-05
-7.64245e-05
1.83966e-05
1.88261e-05
-7.9675e-05
-9.78245e-05
-0.000101947
-2.01527e-06
2.39615e-07
-5.06646e-06
7.64891e-07
-1.03312e-05
1.80337e-06
-1.81815e-05
3.51132e-06
-2.89224e-05
6.13306e-06
-4.27744e-05
9.94301e-06
-5.98601e-05
1.52267e-05
-8.01812e-05
2.22681e-05
3.11307e-05
-4.92659e-06
1.82748e-06
-8.60413e-06
2.59488e-06
-1.45364e-05
4.09586e-06
-2.30506e-05
6.40458e-06
-3.44343e-05
9.74935e-06
-4.88907e-05
1.43805e-05
-6.65207e-05
2.05508e-05
-8.73259e-05
2.85067e-05
3.82501e-05
-1.05079e-05
4.9008e-06
-1.47399e-05
5.83279e-06
-2.12987e-05
7.73183e-06
-3.0449e-05
1.05903e-05
-4.24259e-05
1.45956e-05
-5.73996e-05
1.99558e-05
-7.54419e-05
2.68791e-05
-9.65175e-05
3.55606e-05
4.5885e-05
-1.92651e-05
9.46131e-06
-2.38828e-05
1.05931e-05
-3.09432e-05
1.28636e-05
-4.06325e-05
1.62106e-05
-5.31017e-05
2.07848e-05
-6.84579e-05
2.67522e-05
-8.67317e-05
3.42712e-05
-0.000107837
4.34801e-05
5.41579e-05
-3.12497e-05
1.53831e-05
-3.6218e-05
1.68238e-05
-4.36719e-05
1.94851e-05
-5.37579e-05
2.32815e-05
-6.65657e-05
2.8331e-05
-8.21381e-05
3.47723e-05
-0.000100448
4.27273e-05
-0.000121362
5.22844e-05
6.31501e-05
-4.62265e-05
2.25317e-05
-5.16521e-05
2.44035e-05
-5.94726e-05
2.74918e-05
-6.98329e-05
3.17087e-05
-8.28143e-05
3.71584e-05
-9.8422e-05
4.39509e-05
-0.000116579
5.21882e-05
-0.00013711
6.19305e-05
7.28244e-05
-6.3948e-05
3.08451e-05
-6.99857e-05
3.32239e-05
-7.82058e-05
3.6764e-05
-8.87731e-05
4.1372e-05
-0.000101782
4.71519e-05
-0.000117245
5.41938e-05
-0.000135065
6.25786e-05
-0.000155022
7.23511e-05
8.31221e-05
-8.43759e-05
4.03598e-05
-9.11034e-05
4.32357e-05
-9.97628e-05
4.72151e-05
-0.000110498
5.218e-05
-0.000123417
5.8214e-05
-0.000138561
6.54073e-05
-0.000155839
7.38163e-05
-0.000175017
8.34678e-05
9.39728e-05
-0.00010764
-0.000115097
5.43624e-05
-0.000124197
5.88021e-05
-0.000135027
6.40852e-05
-0.000147716
7.02823e-05
-0.000162364
7.75082e-05
-0.00017887
8.58202e-05
-0.00019705
9.52205e-05
0.000105324
-0.000141706
-0.000151421
-0.000162457
-0.000174827
8.33051e-05
-0.000188747
9.04946e-05
-0.00020423
9.85592e-05
-0.000221179
0.000107579
0.000117152
-0.000204439
-0.000217778
-0.000232135
0.000111947
-0.000247561
0.00012054
0.000129419
-0.000262195
-0.000276246
0.000141949
)
;

boundaryField
{
    inlet
    {
        type            calculated;
        value           nonuniform 0();
    }
    outlet
    {
        type            calculated;
        value           nonuniform 0();
    }
    flap
    {
        type            calculated;
        value           uniform 0;
    }
    upperWall
    {
        type            calculated;
        value           nonuniform 0();
    }
    lowerWall
    {
        type            calculated;
        value           uniform 0;
    }
    frontAndBack
    {
        type            empty;
        value           nonuniform 0();
    }
    procBoundary4to1
    {
        type            processor;
        value           nonuniform List<scalar> 
30
(
-4.7613e-05
-0.000106396
-3.43599e-05
-2.39217e-05
-5.23789e-05
-8.29033e-06
2.60235e-07
3.03721e-06
1.3281e-05
1.85011e-05
4.80163e-05
3.0074e-05
3.32301e-05
1.7482e-05
9.38774e-05
2.31645e-05
2.37886e-05
5.08748e-05
0.000133339
6.59138e-05
7.1015e-05
7.68316e-05
0.000192064
9.63967e-05
0.000103919
0.000248516
0.000124934
0.000133553
0.000306216
0.000153611
)
;
    }
    procBoundary4to2
    {
        type            processor;
        value           nonuniform List<scalar> 
11
(
-0.000119699
-0.000130645
-0.000143596
-0.000158617
-0.000175629
-0.000194552
-0.000215333
-0.000237993
-0.000262612
-0.000289302
-0.00031756
)
;
    }
    procBoundary4to3
    {
        type            processor;
        value           nonuniform List<scalar> 
19
(
-2.73709e-05
-2.79e-05
-2.89736e-05
-3.06303e-05
-3.29142e-05
-3.58797e-05
-3.95917e-05
-4.41204e-05
-4.95252e-05
-5.58295e-05
-6.30011e-05
-7.09187e-05
-7.93301e-05
-8.78222e-05
-9.58627e-05
-0.0001068
-0.000115066
-0.00012122
-0.000123781
)
;
    }
    procBoundary4to5
    {
        type            processor;
        value           nonuniform List<scalar> 
18
(
-0.000205654
-0.000205685
-0.000202061
-0.000194317
-0.00018418
-0.000172818
-0.000161215
-0.00015024
-0.000140514
-0.000132398
-0.000126072
-0.000121644
-0.000119146
-0.000118526
-0.000119569
3.40178e-05
-0.00010309
-0.000110517
)
;
    }
}


// ************************************************************************* //
