/*--------------------------------*- C++ -*----------------------------------*\
| =========                 |                                                 |
| \\      /  F ield         | OpenFOAM: The Open Source CFD Toolbox           |
|  \\    /   O peration     | Version:  dev                                   |
|   \\  /    A nd           | Web:      www.OpenFOAM.org                      |
|    \\/     M anipulation  |                                                 |
\*---------------------------------------------------------------------------*/
FoamFile
{
    version     2.0;
    format      ascii;
    class       surfaceScalarField;
    location    "1.8";
    object      meshPhi;
}
// * * * * * * * * * * * * * * * * * * * * * * * * * * * * * * * * * * * * * //

dimensions      [0 3 -1 0 0 0 0];

internalField   nonuniform List<scalar> 
879
(
2.58365e-05
-3.2375e-06
-9.09966e-06
2.6578e-05
-3.4437e-06
5.00097e-05
-9.68455e-06
-1.48033e-05
2.7374e-05
-3.649e-06
5.15195e-05
-1.02673e-05
7.21798e-05
-1.57084e-05
-2.01253e-05
2.8204e-05
-3.85043e-06
5.31182e-05
-1.08406e-05
7.44504e-05
-1.66016e-05
9.31412e-05
-2.12915e-05
-2.5188e-05
2.90665e-05
-4.04644e-06
5.478e-05
-1.13996e-05
7.68405e-05
-1.74756e-05
9.61722e-05
-2.24372e-05
0.000113565
-2.65696e-05
-3.00889e-05
2.99593e-05
-4.23518e-06
5.6502e-05
-1.19387e-05
7.93186e-05
-1.83211e-05
9.93527e-05
-2.35494e-05
0.00011737
-2.79137e-05
0.00013394
-3.16305e-05
-3.48596e-05
3.08772e-05
-4.41308e-06
5.82747e-05
-1.2448e-05
8.18732e-05
-1.91225e-05
0.000102628
-2.46069e-05
0.000121323
-2.91954e-05
0.000138515
-3.31062e-05
0.000154628
-3.64987e-05
0.000169962
-3.94956e-05
-4.22104e-05
3.18115e-05
-4.57646e-06
6.00827e-05
-1.29173e-05
8.4482e-05
-1.98648e-05
0.000105978
-2.55922e-05
0.000125363
-3.03972e-05
0.000143224
-3.44992e-05
0.000159967
-3.80552e-05
0.000175883
-4.11844e-05
0.000191033
-4.39905e-05
-4.65793e-05
3.27554e-05
-4.72296e-06
6.19149e-05
-1.33403e-05
8.7131e-05
-2.05386e-05
0.000109384
-2.64924e-05
0.000129475
-3.1501e-05
0.000148
-3.5783e-05
0.000165384
-3.94941e-05
0.00018191
-4.27505e-05
0.000197686
-4.56494e-05
0.000212747
-4.82821e-05
0.0002271
-5.07404e-05
-5.31327e-05
3.37036e-05
-4.84986e-06
6.37621e-05
-1.37089e-05
8.98072e-05
-2.113e-05
0.000112823
-2.72867e-05
0.000133619
-3.2479e-05
0.000152803
-3.69269e-05
0.000170811
-4.07853e-05
0.000187935
-4.41671e-05
0.000204326
-4.71595e-05
0.000220049
-4.98449e-05
0.00023511
-5.2307e-05
0.000249406
-5.46206e-05
0.000262804
-5.68788e-05
-5.91929e-05
3.46463e-05
-4.95304e-06
6.56034e-05
-1.40108e-05
9.24793e-05
-2.162e-05
0.000116259
-2.79525e-05
0.000137758
-3.33089e-05
0.000157596
-3.79083e-05
0.000176217
-4.19038e-05
0.000193919
-4.54034e-05
0.000210885
-4.84874e-05
0.000227198
-5.12315e-05
0.000242855
-5.37059e-05
0.000257829
-5.59717e-05
0.000272027
-5.8106e-05
0.00028529
-6.01663e-05
-6.22022e-05
3.55728e-05
-5.02929e-06
6.74195e-05
-1.42379e-05
9.51222e-05
-2.19971e-05
0.000119666
-2.84752e-05
0.000141866
-3.39704e-05
0.000162346
-3.87003e-05
0.000181559
-4.28167e-05
0.000199812
-4.64252e-05
0.000217312
-4.96008e-05
0.000234154
-5.24103e-05
0.000250338
-5.49118e-05
0.000265842
-5.71541e-05
0.000280592
-5.91954e-05
0.000294518
-6.10883e-05
0.000307423
-6.28372e-05
0.000319081
-6.44493e-05
-6.59456e-05
3.64748e-05
-5.07596e-06
6.91983e-05
-1.43823e-05
9.77204e-05
-2.2248e-05
0.000123017
-2.88352e-05
0.000145905
-3.44387e-05
0.000167009
-3.92757e-05
0.000186793
-4.34965e-05
0.000205572
-4.72037e-05
0.000223562
-5.04678e-05
0.000240873
-5.33468e-05
0.000257511
-5.58907e-05
0.000273457
-5.81379e-05
0.000288653
-6.01316e-05
0.000303003
-6.19103e-05
0.000316425
-6.34769e-05
0.000328746
-6.48541e-05
0.000339737
-6.60221e-05
0.000349203
-6.68842e-05
-6.74271e-05
3.73423e-05
-5.08956e-06
7.0919e-05
-1.44336e-05
0.000100248
-2.23574e-05
0.000126282
-2.90153e-05
0.000149843
-3.46953e-05
0.000171556
-3.96129e-05
0.000191888
-4.39169e-05
0.000211161
-4.77086e-05
0.000229598
-5.10545e-05
0.000247319
-5.40073e-05
0.000264342
-5.66075e-05
0.000280651
-5.88854e-05
0.000296194
-6.08781e-05
0.00031088
-6.26081e-05
0.000324621
-6.40796e-05
0.000337279
-6.53172e-05
0.000348749
-6.63169e-05
0.000358891
-6.70281e-05
0.000367494
-6.74138e-05
0.000374357
-6.74543e-05
-6.72579e-05
3.81707e-05
-5.06909e-06
7.2571e-05
-1.43886e-05
0.000102687
-2.23179e-05
0.000129445
-2.90026e-05
0.00015366
-3.47226e-05
0.00017596
-3.96908e-05
0.000196815
-4.4054e-05
0.00021655
-4.79118e-05
0.000235394
-5.13293e-05
0.000253473
-5.43552e-05
0.000270816
-5.70237e-05
0.000287414
-5.93541e-05
0.000303218
-6.13815e-05
0.000318147
-6.31244e-05
0.000332127
-6.45843e-05
0.000345052
-6.57853e-05
0.000356813
-6.67317e-05
0.000367327
-6.73979e-05
0.000376588
-6.77648e-05
0.000384366
-6.7826e-05
3.89606e-05
-5.01279e-06
7.41538e-05
-1.42419e-05
0.000105031
-2.21205e-05
0.00013249
-2.87849e-05
0.00015734
-3.45054e-05
0.000180205
-3.94909e-05
0.000201554
-4.3888e-05
0.000221719
-4.77911e-05
0.000240934
-5.12637e-05
0.000259327
-5.43555e-05
0.000276929
-5.70971e-05
0.000293748
-5.94978e-05
0.000309739
-6.15847e-05
0.00032483
-6.33847e-05
0.000338965
-6.48977e-05
0.000352065
-6.61399e-05
0.000364052
-6.71226e-05
0.000374892
-6.78401e-05
0.000384613
-6.82894e-05
-6.84554e-05
3.97093e-05
-4.91904e-06
7.56619e-05
-1.39887e-05
0.000107274
-2.17577e-05
0.000135415
-2.83528e-05
0.000160877
-3.40332e-05
0.000184287
-3.89989e-05
0.000206106
-4.3397e-05
0.000226667
-4.73241e-05
0.000246217
-5.08353e-05
0.000264883
-5.39768e-05
0.000282692
-5.67826e-05
0.000299662
-5.92613e-05
0.00031577
-6.14263e-05
0.000330949
-6.33042e-05
0.000345155
-6.49046e-05
0.000358342
-6.62376e-05
0.000370464
-6.73181e-05
0.000381511
-6.81533e-05
0.000391511
-6.87522e-05
-6.90797e-05
4.04153e-05
-4.78639e-06
7.71006e-05
-1.36267e-05
0.000109421
-2.12263e-05
0.000138224
-2.76985e-05
0.000164279
-3.32929e-05
0.000188206
-3.82026e-05
0.000210479
-4.25667e-05
0.000231419
-4.64876e-05
0.000251264
-5.00171e-05
0.000270154
-5.31892e-05
0.000288122
-5.60392e-05
0.000305179
-5.85824e-05
0.000321322
-6.08278e-05
0.000336516
-6.2793e-05
0.000350725
-6.44937e-05
0.000363925
-6.59415e-05
0.000376091
-6.71499e-05
0.000387224
-6.81314e-05
0.000397342
-6.88989e-05
-6.93965e-05
4.10849e-05
-4.61514e-06
7.84769e-05
-1.31529e-05
0.000111485
-2.05199e-05
0.000140927
-2.68167e-05
0.000167564
-3.22773e-05
0.000191994
-3.70903e-05
0.000214703
-4.13865e-05
0.000236005
-4.52618e-05
0.000256107
-4.87747e-05
0.000275163
-5.19527e-05
0.000293227
-5.4824e-05
0.000310316
-5.74092e-05
0.000326439
-5.97189e-05
0.000341587
-6.17662e-05
0.00035574
-6.35645e-05
0.000368884
-6.51261e-05
0.00038101
-6.64639e-05
0.000392126
-6.75913e-05
0.000402257
-6.85223e-05
-6.9182e-05
4.17345e-05
-4.40626e-06
7.9803e-05
-1.25685e-05
0.000113486
-1.96361e-05
0.000143556
-2.57011e-05
0.000170765
-3.09794e-05
0.000195696
-3.56495e-05
0.000218813
-3.98371e-05
0.000240437
-4.36265e-05
0.00026076
-4.708e-05
0.000279937
-5.02291e-05
0.000298048
-5.30948e-05
0.000315128
-5.56966e-05
0.000331195
-5.80449e-05
0.000346253
-6.01509e-05
0.000360295
-6.20257e-05
0.00037332
-6.36808e-05
0.000385328
-6.51277e-05
0.000396335
-6.6379e-05
0.000406367
-6.74479e-05
-6.82521e-05
4.23754e-05
-4.15747e-06
8.11102e-05
-1.18706e-05
0.000115457
-1.85726e-05
0.000146152
-2.43455e-05
0.000173923
-2.93882e-05
0.000199339
-3.38638e-05
0.000222835
-3.78939e-05
0.000244735
-4.15583e-05
0.000265249
-4.49137e-05
0.000284527
-4.7994e-05
0.000302663
-5.08183e-05
0.000319709
-5.34012e-05
0.000335691
-5.5753e-05
0.000350624
-5.78828e-05
0.000364514
-5.98001e-05
0.000377368
-6.15143e-05
0.000389195
-6.3035e-05
0.000400014
-6.43727e-05
0.000409851
-6.55385e-05
-6.64551e-05
4.30225e-05
-3.86892e-06
8.24276e-05
-1.10565e-05
0.00011743
-1.73223e-05
0.000148742
-2.27392e-05
0.000177057
-2.74885e-05
0.00020293
-3.1719e-05
0.000226787
-3.55431e-05
0.000248949
-3.90384e-05
0.00026964
-4.22548e-05
0.000289013
-4.52232e-05
0.000307168
-4.7962e-05
0.000324167
-5.04832e-05
0.000340048
-5.27957e-05
0.000354835
-5.49069e-05
0.000368546
-5.68241e-05
0.000381195
-5.85543e-05
0.000392798
-6.01052e-05
0.000403377
-6.14848e-05
0.000412961
-6.27015e-05
-6.36874e-05
4.36847e-05
-3.53851e-06
8.37562e-05
-1.01202e-05
0.000119407
-1.58768e-05
0.000151324
-2.08725e-05
0.000180173
-2.52696e-05
0.000206495
-2.92032e-05
0.000230714
-3.27733e-05
0.000253148
-3.60499e-05
0.000274022
-3.90785e-05
0.000293494
-4.18871e-05
0.000311672
-4.44922e-05
0.000328626
-4.69042e-05
0.000344405
-4.91299e-05
0.000359043
-5.1175e-05
0.000372567
-5.30446e-05
0.000384998
-5.47439e-05
0.00039636
-5.62782e-05
0.000406677
-5.76532e-05
0.000415982
-5.8875e-05
-5.98874e-05
4.4343e-05
-3.16384e-06
8.50772e-05
-9.05713e-06
0.000121379
-1.42307e-05
0.000153906
-1.87396e-05
0.000183301
-2.27247e-05
0.000210091
-2.63037e-05
0.000234691
-2.95645e-05
0.000257414
-3.25689e-05
0.000278488
-3.53572e-05
0.000298078
-3.7954e-05
0.000316296
-4.0374e-05
0.000333223
-4.26253e-05
0.000348918
-4.47135e-05
0.000363423
-4.66422e-05
0.000376773
-4.84149e-05
0.000388998
-5.00348e-05
0.000400128
-5.15053e-05
0.000410193
-5.28301e-05
0.000419226
-5.40134e-05
-5.5011e-05
4.49919e-05
-2.74543e-06
8.6397e-05
-7.86748e-06
0.000123369
-1.23817e-05
0.000156531
-1.63334e-05
0.000186498
-1.98407e-05
0.000213783
-2.30029e-05
0.000238792
-2.58948e-05
0.000261834
-2.85692e-05
0.00028314
-3.10605e-05
0.000302879
-3.339e-05
0.000321173
-3.55696e-05
0.00033811
-3.76062e-05
0.000353756
-3.95034e-05
0.000368165
-4.12635e-05
0.000381379
-4.28885e-05
0.000393436
-4.438e-05
0.000404371
-4.57399e-05
0.00041422
-4.69703e-05
0.000423021
-4.80736e-05
-4.90168e-05
4.56521e-05
-2.28314e-06
8.77503e-05
-6.54976e-06
0.000125421
-1.03253e-05
0.000159249
-1.36451e-05
0.000189824
-1.6604e-05
0.000217641
-1.92823e-05
0.000243098
-2.17409e-05
0.000266503
-2.40228e-05
0.000288087
-2.61561e-05
0.000308026
-2.81582e-05
0.000326447
-3.00388e-05
0.000343449
-3.18028e-05
0.000359106
-3.34527e-05
0.000373478
-3.49896e-05
0.000386617
-3.64142e-05
0.000398568
-3.7727e-05
0.000409371
-3.89286e-05
0.000419069
-4.00201e-05
0.000427704
-4.10025e-05
-4.18521e-05
4.63485e-05
-1.77666e-06
8.91783e-05
-5.10223e-06
0.000127588
-8.05678e-06
0.000162123
-1.06661e-05
0.000193349
-1.30017e-05
0.000221745
-1.51241e-05
0.000247702
-1.70797e-05
0.000271525
-1.89013e-05
0.00029345
-2.06105e-05
0.000313655
-2.22203e-05
0.000332277
-2.37381e-05
0.000349421
-2.51671e-05
0.000365168
-2.65089e-05
0.000379588
-2.77637e-05
0.000392738
-2.89314e-05
0.00040467
-3.00116e-05
0.000415431
-3.10042e-05
0.000425067
-3.19094e-05
0.000433625
-3.27274e-05
-3.34416e-05
4.71092e-05
-1.22568e-06
9.07293e-05
-3.52339e-06
0.000129931
-5.57236e-06
0.000165225
-7.38944e-06
0.000197155
-9.02245e-06
0.000226188
-1.05122e-05
0.000252708
-1.189e-05
0.000277021
-1.3178e-05
0.000299365
-1.43908e-05
0.000319924
-1.55372e-05
0.000338841
-1.6622e-05
0.000356227
-1.76473e-05
0.000372171
-1.86135e-05
0.000386748
-1.95206e-05
0.000400021
-2.0368e-05
0.000412048
-2.1155e-05
0.000422881
-2.18811e-05
0.000432569
-2.25459e-05
0.000441164
-2.31492e-05
-2.36804e-05
4.79702e-05
-6.30018e-07
9.24658e-05
-1.81245e-06
0.00013253
-2.86992e-06
0.000168647
-3.81081e-06
0.000201344
-4.65918e-06
0.000231082
-5.43566e-06
0.000258243
-6.15604e-06
0.000283133
-6.83158e-06
0.000305994
-7.46964e-06
0.000327015
-8.07464e-06
0.000346344
-8.64889e-06
0.000364098
-9.19334e-06
0.000380371
-9.70813e-06
0.000395242
-1.0193e-05
0.000408779
-1.06474e-05
0.000421043
-1.10709e-05
0.00043209
-1.1463e-05
0.000441971
-1.18232e-05
0.000450739
-1.21513e-05
-1.24422e-05
4.90001e-05
9.44736e-05
0.000135465
0.000172447
0.000205948
0.000236426
0.000264267
0.000289782
0.000313216
0.000334763
0.000354576
0.000372775
0.000389458
0.000404708
0.000418596
0.000431184
0.000442528
0.000452684
0.000461702
)
;

boundaryField
{
    inlet
    {
        type            calculated;
        value           uniform 0;
    }
    outlet
    {
        type            calculated;
        value           nonuniform 0();
    }
    flap
    {
        type            calculated;
        value           nonuniform 0();
    }
    upperWall
    {
        type            calculated;
        value           nonuniform List<scalar> 
20
(
0
0
0
0
0
0
1.21334e-14
1.1748e-14
0
0
0
0
0
0
0
0
0
0
0
0
)
;
    }
    lowerWall
    {
        type            calculated;
        value           nonuniform 0();
    }
    frontAndBack
    {
        type            empty;
        value           nonuniform 0();
    }
    procBoundary0to1
    {
        type            processor;
        value           nonuniform List<scalar> 
18
(
0.000378496
0.000389735
-6.76488e-05
0.000392901
0.000400141
0.000406218
0.000411271
0.000415389
0.000418754
0.000421657
0.00042443
0.00042742
0.000430985
0.000435494
0.000441324
0.000448878
0.000458599
0.000469786
)
;
    }
    procBoundary0to3
    {
        type            processor;
        value           nonuniform List<scalar> 
34
(
3.03277e-06
8.51835e-06
4.86572e-05
1.38945e-05
7.01256e-05
1.89439e-05
9.03808e-05
2.37828e-05
0.000110073
2.8499e-05
0.000129675
3.3147e-05
0.00014955
3.77221e-05
4.0339e-05
0.000184493
4.47699e-05
0.000205373
4.9062e-05
5.15869e-05
0.000240483
5.55965e-05
5.83024e-05
0.000274955
6.17068e-05
0.000297207
6.42627e-05
6.63737e-05
0.00032914
6.72484e-05
6.82721e-05
0.000356784
6.7649e-05
6.75874e-05
)
;
    }
}


// ************************************************************************* //
