/*--------------------------------*- C++ -*----------------------------------*\
| =========                 |                                                 |
| \\      /  F ield         | OpenFOAM: The Open Source CFD Toolbox           |
|  \\    /   O peration     | Version:  dev                                   |
|   \\  /    A nd           | Web:      www.OpenFOAM.org                      |
|    \\/     M anipulation  |                                                 |
\*---------------------------------------------------------------------------*/
FoamFile
{
    version     2.0;
    format      ascii;
    class       surfaceVectorField;
    location    "1.8";
    object      Uf;
}
// * * * * * * * * * * * * * * * * * * * * * * * * * * * * * * * * * * * * * //

dimensions      [0 1 -1 0 0 0 0];

internalField   nonuniform List<vector> 
879
(
(9.99369 -2.69315e-19 0.111122)
(9.99722 0 0.075812)
(9.98952 -1.32983e-20 0.149002)
(9.99439 2.62306e-19 0.11502)
(9.99757 0 0.0783092)
(9.98394 4.90655e-19 0.189156)
(9.99081 2.60527e-19 0.153896)
(9.97934 -2.76055e-19 0.228657)
(9.99515 0 0.118538)
(9.99793 -7.1604e-21 0.0805281)
(9.98611 -5.30434e-19 0.194938)
(9.99216 7.43287e-21 0.15826)
(9.97329 -5.0869e-19 0.271328)
(9.98237 -5.24349e-19 0.235144)
(9.96893 -3.23509e-20 0.313071)
(9.99592 5.79371e-22 0.121631)
(9.99831 -4.04184e-22 0.0824495)
(9.98831 8.82878e-21 0.200032)
(9.99352 -2.29293e-19 0.162053)
(9.97754 -3.20264e-20 0.27841)
(9.98545 2.93424e-21 0.240787)
(9.96391 1.40774e-19 0.358515)
(9.97439 -6.44661e-20 0.320543)
(9.96091 2.67821e-19 0.402667)
(9.9967 -2.3763e-19 0.12427)
(9.99868 -2.00401e-19 0.0840525)
(9.99057 -2.33316e-19 0.204386)
(9.99491 1.9623e-19 0.165227)
(9.9819 -3.08997e-20 0.284448)
(9.98861 2.3471e-19 0.245507)
(9.97102 6.80107e-20 0.366191)
(9.98 2.08904e-19 0.326764)
(9.9583 2.64434e-20 0.4508)
(9.96963 -2.16184e-19 0.410312)
(9.95796 6.2345e-20 0.497173)
(9.9975 2.47008e-19 0.126419)
(9.99906 -3.97855e-21 0.085314)
(9.99287 6.76395e-19 0.207934)
(9.99632 2.47121e-19 0.167734)
(9.98637 4.80417e-19 0.289352)
(9.99183 4.49215e-19 0.249229)
(9.9783 -8.52518e-20 0.372375)
(9.98573 1.2652e-20 0.331635)
(9.96904 -1.77935e-19 0.45816)
(9.97851 -3.22812e-19 0.416223)
(9.95896 -8.5431e-21 0.547678)
(9.97062 3.23149e-19 0.504)
(9.96245 -2.67504e-19 0.59589)
(9.99831 -2.21506e-21 0.128042)
(9.99943 1.31758e-20 0.0862116)
(9.99521 1.59472e-20 0.210612)
(9.99773 -2.08184e-19 0.169524)
(9.9909 -3.37247e-20 0.293031)
(9.99507 -2.77624e-21 0.251877)
(9.98568 -2.33076e-19 0.376956)
(9.9915 -2.40567e-19 0.335057)
(9.97988 1.94572e-19 0.463513)
(9.98745 -2.3317e-19 0.420294)
(9.9739 5.50497e-20 0.553652)
(9.98333 1.93659e-19 0.508572)
(9.96815 -4.72046e-19 0.648263)
(9.97952 5.54933e-20 0.600782)
(9.96314 -4.99746e-20 0.74819)
(9.97647 -1.48894e-19 0.697769)
(9.97471 1.50299e-19 0.800311)
(9.99912 -1.99427e-19 0.129106)
(9.99979 -1.62257e-20 0.0867264)
(9.99755 -2.25587e-19 0.212363)
(9.99914 6.31431e-21 0.17056)
(9.99545 -2.16611e-19 0.295405)
(9.9983 -2.23765e-19 0.253393)
(9.99306 -2.40609e-19 0.379845)
(9.99726 -2.71957e-19 0.336959)
(9.99072 -2.32054e-19 0.466771)
(9.99635 4.40821e-20 0.422446)
(9.98879 1.93587e-19 0.5571)
(9.99596 -2.32488e-19 0.510804)
(9.98768 3.86749e-19 0.651673)
(9.99645 4.32564e-19 0.602879)
(9.9879 5.72845e-20 0.751267)
(9.99827 1.98809e-19 0.699454)
(9.99003 2.86215e-19 0.856583)
(10.002 -8.82877e-21 0.801238)
(10.0081 1.56194e-19 0.90887)
(9.99992 1.94791e-19 0.129584)
(10.0001 5.70322e-19 0.0868424)
(9.99988 6.26162e-21 0.213147)
(10.0005 2.01288e-19 0.170811)
(9.99996 -2.80868e-19 0.296425)
(10.0015 0 0.253736)
(10.0004 2.18672e-20 0.38098)
(10.003 -6.73847e-20 0.337288)
(10.0015 4.23064e-20 0.467858)
(10.0051 2.90716e-19 0.422609)
(10.0035 1.51986e-20 0.557933)
(10.0084 4.3725e-20 0.51061)
(10.0069 2.39042e-19 0.65199)
(10.0131 1.85912e-19 0.602087)
(10.0123 1.30702e-19 0.750738)
(10.0197 -1.19071e-19 0.697762)
(10.02 -1.42129e-19 0.854813)
(10.0286 2.52866e-19 0.798274)
(10.0309 -2.63515e-19 0.964778)
(10.0406 -3.95008e-19 0.904181)
(10.0456 1.38173e-19 1.08111)
(10.0562 -1.29815e-19 1.01595)
(10.0762 -2.48338e-19 1.134)
(10.0007 5.74645e-19 0.129455)
(10.0005 3.77111e-19 0.086542)
(10.0022 1.93218e-19 0.212933)
(10.0019 1.58372e-20 0.170245)
(10.0044 2.18478e-19 0.296045)
(10.0047 0 0.252864)
(10.0076 2.10392e-19 0.380298)
(10.0086 1.42533e-20 0.33599)
(10.012 2.91011e-19 0.466694)
(10.0138 -5.25855e-20 0.420719)
(10.0179 2.19525e-19 0.556063)
(10.0206 3.44098e-19 0.507922)
(10.0258 -1.82493e-19 0.649132)
(10.0293 -4.52732e-19 0.598346)
(10.036 6.79858e-21 0.746541)
(10.0405 -1.79694e-19 0.692641)
(10.0492 -7.00185e-21 0.848851)
(10.0545 1.25684e-19 0.791374)
(10.0659 -2.57846e-19 0.956533)
(10.0719 -2.49131e-19 0.895024)
(10.087 -5.2714e-19 1.06997)
(10.0934 1.1283e-19 1.00397)
(10.113 -2.53485e-19 1.18951)
(10.1197 -3.96483e-19 1.11853)
(10.145 6.81474e-19 1.31538)
(10.1516 9.41101e-21 1.23895)
(10.19 6.73967e-19 1.36536)
(10.0015 -1.97853e-19 0.128693)
(10.0008 -7.15603e-19 0.08581)
(10.0045 -1.82388e-19 0.211677)
(10.0033 -3.70785e-19 0.168833)
(10.0088 -2.09411e-19 0.294216)
(10.0078 0 0.250735)
(10.0147 -2.55965e-19 0.377749)
(10.014 1.85252e-19 0.333027)
(10.0223 3.56008e-21 0.463233)
(10.0221 1.48312e-19 0.416745)
(10.032 -3.48562e-19 0.551449)
(10.0324 1.08005e-19 0.502714)
(10.0441 -4.49138e-19 0.643063)
(10.045 -2.39101e-19 0.591625)
(10.059 -5.73292e-20 0.738643)
(10.0606 1.60716e-19 0.684063)
(10.0773 -1.23193e-19 0.838678)
(10.0794 2.24749e-19 0.78053)
(10.0996 1.31498e-19 0.943557)
(10.102 -3.52593e-19 0.881425)
(10.1265 2.48085e-19 1.05357)
(10.129 2.51764e-19 0.987041)
(10.1587 -1.27313e-19 1.16896)
(10.161 1.24114e-19 1.0976)
(10.197 -5.77172e-22 1.28985)
(10.1989 1.1097e-19 1.21325)
(10.2424 -8.53613e-21 1.41627)
(10.2433 3.31672e-21 1.33402)
(10.2951 1.11442e-19 1.45984)
(10.0023 -8.90681e-19 0.127282)
(10.0011 -3.81105e-19 0.0846399)
(10.0067 -1.80831e-19 0.209355)
(10.0045 -2.02786e-20 0.166563)
(10.013 4.06014e-19 0.290912)
(10.0108 1.1477e-20 0.247339)
(10.0215 5.9986e-19 0.373312)
(10.0193 2.36001e-20 0.328383)
(10.0322 2.55314e-19 0.457455)
(10.0302 1.07334e-20 0.410665)
(10.0455 2.19328e-19 0.54407)
(10.0437 5.36605e-20 0.494959)
(10.0616 3.8807e-19 0.633765)
(10.0601 1.66705e-19 0.581906)
(10.081 4.5057e-19 0.727044)
(10.0797 -4.09501e-20 0.672033)
(10.1042 -1.10691e-20 0.824328)
(10.103 -4.14917e-20 0.765773)
(10.1316 -2.29557e-19 0.92592)
(10.1304 2.08727e-19 0.86345)
(10.1639 1.24655e-19 1.03203)
(10.1625 -1.13101e-19 0.965274)
(10.2016 3.69202e-19 1.14279)
(10.1998 -1.02768e-19 1.07139)
(10.2456 1.15099e-19 1.25826)
(10.243 3.60519e-19 1.18184)
(10.2966 1.26638e-19 1.37834)
(10.2927 -2.44945e-19 1.29658)
(10.3554 6.27768e-19 1.5029)
(10.3497 -1.03318e-19 1.41546)
(10.4227 2.47022e-19 1.63157)
(10.4146 5.02883e-19 1.53821)
(10.4883 -1.28491e-19 1.66431)
(10.003 5.13112e-19 0.125214)
(10.0014 3.51967e-19 0.0830268)
(10.0088 1.77124e-19 0.205962)
(10.0058 1.70757e-19 0.163426)
(10.0171 -3.80704e-19 0.286123)
(10.0136 3.39372e-20 0.242661)
(10.028 -5.80919e-19 0.366968)
(10.0243 -2.28467e-19 0.322037)
(10.0417 -1.96038e-19 0.449337)
(10.0379 -2.25631e-19 0.402461)
(10.0584 0 0.533911)
(10.0545 2.43567e-20 0.484655)
(10.0783 -2.74304e-19 0.621244)
(10.0744 0 0.569209)
(10.1019 -5.4643e-19 0.711778)
(10.0979 -2.73812e-19 0.656589)
(10.1296 1.84361e-19 0.805864)
(10.1254 -2.27762e-19 0.747168)
(10.1617 3.28677e-19 0.903731)
(10.1572 4.03419e-19 0.841203)
(10.1989 -3.4697e-19 1.0055)
(10.1938 -2.24185e-19 0.938827)
(10.2416 -1.12898e-19 1.11125)
(10.2358 -1.15491e-20 1.04011)
(10.2906 -7.95843e-21 1.22091)
(10.2837 -1.09526e-19 1.14502)
(10.3465 -4.822e-19 1.33436)
(10.338 -3.4534e-19 1.25342)
(10.4098 -2.34575e-19 1.45136)
(10.3994 -4.79086e-19 1.36512)
(10.4813 1.19758e-19 1.5715)
(10.4683 3.48113e-19 1.47979)
(10.5614 -2.44957e-19 1.69411)
(10.5454 0 1.59687)
(10.6507 -4.799e-19 1.81848)
(10.6311 -2.04822e-20 1.71564)
(10.7255 -1.23282e-20 1.83531)
(10.0037 0 0.122484)
(10.0016 0 0.0809671)
(10.0108 2.28965e-20 0.201484)
(10.007 0 0.159414)
(10.021 1.8845e-19 0.279832)
(10.0163 2.27342e-20 0.236691)
(10.0343 1.3609e-19 0.358704)
(10.0291 1.65443e-19 0.313988)
(10.0508 1.55427e-21 0.438884)
(10.0452 -2.2891e-19 0.392142)
(10.0706 2.42868e-20 0.520999)
(10.0647 4.85051e-20 0.471826)
(10.0941 0 0.605548)
(10.0879 -1.91636e-19 0.553576)
(10.1216 5.35809e-20 0.692919)
(10.1149 4.91148e-20 0.637804)
(10.1533 -2.72864e-21 0.783395)
(10.1462 3.13889e-21 0.724824)
(10.1897 -1.64283e-19 0.877142)
(10.182 -5.48736e-20 0.814832)
(10.2313 1.20292e-19 0.974214)
(10.2228 -3.17909e-19 0.907896)
(10.2785 -7.88388e-21 1.0746)
(10.269 4.41184e-19 1.00402)
(10.3318 -4.55576e-19 1.1782)
(10.3209 -2.31413e-19 1.1031)
(10.3917 -3.4149e-19 1.28478)
(10.3791 -2.27777e-19 1.20498)
(10.4588 1.16985e-19 1.39409)
(10.444 -1.70842e-19 1.30937)
(10.5335 2.26281e-19 1.50565)
(10.5161 -1.49155e-19 1.4159)
(10.6162 2.31175e-19 1.61882)
(10.5958 2.16845e-19 1.52403)
(10.7072 4.60612e-19 1.73284)
(10.6832 2.28782e-19 1.63307)
(10.8066 2.00798e-19 1.84685)
(10.7784 -8.24853e-21 1.74221)
(10.9145 -7.21274e-22 1.95986)
(10.8816 2.17492e-19 1.85054)
(10.9927 5.04452e-20 1.9571)
(10.0044 0 0.119091)
(10.0018 2.42695e-21 0.0784654)
(10.0127 0 0.19592)
(10.008 -7.5128e-21 0.154537)
(10.0247 0 0.272043)
(10.0189 5.1883e-21 0.229442)
(10.0402 -2.11029e-19 0.348533)
(10.0336 1.91983e-19 0.304247)
(10.0593 -1.797e-19 0.426119)
(10.0521 1.20586e-19 0.379725)
(10.0821 -1.73884e-19 0.505376)
(10.0743 1.81876e-19 0.456506)
(10.1089 -1.40734e-19 0.586749)
(10.1005 1.29294e-20 0.535067)
(10.1399 -2.7208e-21 0.67057)
(10.1308 -1.85715e-19 0.615767)
(10.1753 -5.0389e-20 0.757067)
(10.1655 -1.47636e-19 0.698871)
(10.2156 -2.12644e-19 0.846345)
(10.2049 -4.94149e-20 0.784516)
(10.261 1.09064e-20 0.938398)
(10.2493 3.83562e-20 0.87271)
(10.312 2.1278e-19 1.03316)
(10.2991 3.18665e-19 0.963401)
(10.369 3.01349e-21 1.13047)
(10.3545 1.02519e-19 1.05646)
(10.4323 -5.23161e-20 1.23008)
(10.416 5.08454e-21 1.15166)
(10.5024 -4.44974e-19 1.33164)
(10.4838 -1.59576e-19 1.24869)
(10.5795 -1.59935e-19 1.43469)
(10.5582 -3.36447e-19 1.34713)
(10.6639 2.14055e-19 1.53863)
(10.6396 1.15737e-20 1.44648)
(10.7557 -2.52773e-19 1.64272)
(10.7279 -2.02052e-19 1.54612)
(10.8549 8.44277e-21 1.74614)
(10.8232 -5.84753e-20 1.64527)
(10.9614 2.7037e-19 1.84797)
(10.9253 4.8909e-20 1.74309)
(10.005 -5.32293e-21 0.115046)
(10.002 3.02471e-19 0.0755247)
(10.0145 -2.10112e-21 0.189289)
(10.0091 -2.85439e-21 0.148806)
(10.0281 2.03233e-19 0.262773)
(10.0213 3.01757e-22 0.220932)
(10.0457 5.31922e-19 0.336475)
(10.0378 3.07418e-20 0.292838)
(10.0672 4.91904e-19 0.411074)
(10.0584 3.59151e-19 0.365244)
(10.0929 3.73205e-19 0.487095)
(10.0832 -3.55082e-20 0.438749)
(10.1226 -3.37127e-20 0.564926)
(10.1121 2.1536e-19 0.513764)
(10.1568 -3.34545e-19 0.644848)
(10.1454 -5.88105e-20 0.590588)
(10.1956 -1.46581e-19 0.727041)
(10.1832 -1.4306e-19 0.669451)
(10.2392 2.08596e-19 0.811555)
(10.2258 -5.04238e-20 0.750442)
(10.288 3.54401e-19 0.898328)
(10.2734 3.06467e-19 0.833512)
(10.3423 2.05641e-19 0.987255)
(10.3262 -4.46183e-20 0.918566)
(10.4023 1.04919e-19 1.07814)
(10.3845 5.58554e-20 1.00544)
(10.4683 -1.04736e-19 1.1707)
(10.4486 2.02445e-19 1.09388)
(10.5407 -4.73527e-20 1.26456)
(10.5186 -1.0712e-19 1.18356)
(10.6195 -1.61253e-19 1.35926)
(10.5948 2.60009e-19 1.27405)
(10.7048 -4.15934e-19 1.45425)
(10.6771 -2.23792e-19 1.36489)
(10.7967 -2.49376e-21 1.54887)
(10.7657 -9.11002e-20 1.45552)
(10.8951 -1.73269e-20 1.64236)
(10.8604 1.65638e-19 1.54524)
(10.961 -1.3434e-19 1.63329)
(10.0056 3.03403e-19 0.110355)
(10.0021 1.44548e-20 0.0721507)
(10.0162 -3.69434e-22 0.181606)
(10.01 4.96843e-21 0.142234)
(10.0313 -1.76424e-19 0.252051)
(10.0235 -5.1473e-21 0.21119)
(10.0508 -1.44932e-19 0.32257)
(10.0417 -1.70502e-19 0.279804)
(10.0746 -1.83573e-19 0.393805)
(10.0643 -1.65374e-19 0.348755)
(10.1027 -1.96895e-19 0.466237)
(10.0913 -2.02599e-19 0.418627)
(10.1352 1.89104e-19 0.540187)
(10.1228 2.16382e-20 0.489765)
(10.1722 1.37731e-19 0.615889)
(10.1587 3.51988e-20 0.562401)
(10.214 -4.42346e-20 0.693491)
(10.1992 1.12222e-19 0.636731)
(10.2606 4.99905e-20 0.772989)
(10.2446 -4.50913e-20 0.712811)
(10.3122 -1.0339e-19 0.854278)
(10.2949 9.62208e-20 0.790548)
(10.3692 -1.98767e-19 0.937219)
(10.3503 -3.38656e-19 0.869808)
(10.4317 1.56058e-19 1.02159)
(10.411 -5.09563e-20 0.950399)
(10.4998 2.00687e-19 1.10708)
(10.4771 1.54958e-20 1.03205)
(10.5738 2.08217e-19 1.19334)
(10.5488 0 1.11445)
(10.6536 1.96834e-19 1.27993)
(10.626 2.08579e-19 1.19719)
(10.7392 1.09877e-19 1.36634)
(10.7087 -1.8502e-20 1.27985)
(10.8307 8.11496e-20 1.45198)
(10.797 3.04711e-20 1.36189)
(10.9278 4.59165e-20 1.53619)
(10.8907 -3.22745e-20 1.44274)
(10.9895 1.74429e-19 1.52175)
(10.0062 -2.91339e-19 0.10503)
(10.0022 -2.99982e-19 0.0683525)
(10.0177 0 0.172897)
(10.0108 -1.13661e-21 0.134845)
(10.0342 0 0.239917)
(10.0256 -3.51555e-21 0.200252)
(10.0554 -1.91435e-19 0.306869)
(10.0453 -1.49416e-19 0.265186)
(10.0813 -1.84977e-19 0.374384)
(10.0697 -2.00532e-19 0.330309)
(10.1117 2.23586e-20 0.442898)
(10.0988 1.03105e-20 0.396222)
(10.1466 -1.36439e-19 0.512658)
(10.1325 2.22216e-20 0.463191)
(10.1862 9.12678e-21 0.583855)
(10.1706 -1.77446e-19 0.531367)
(10.2304 1.11216e-19 0.656603)
(10.2136 1.84096e-19 0.60091)
(10.2796 2.33462e-21 0.730868)
(10.2613 1.50452e-19 0.671842)
(10.3337 -1.45353e-19 0.806512)
(10.3139 2.54072e-20 0.744053)
(10.3929 -1.86941e-19 0.88336)
(10.3715 -1.01092e-20 0.817387)
(10.4573 -1.95636e-19 0.961181)
(10.4341 -1.93327e-19 0.891644)
(10.527 -1.90745e-19 1.03968)
(10.5017 1.39414e-21 0.966558)
(10.602 0 1.1185)
(10.5744 0 1.04182)
(10.6823 -1.2386e-20 1.19725)
(10.6522 -9.30146e-20 1.11705)
(10.7678 -1.00302e-19 1.27547)
(10.735 8.10053e-20 1.19186)
(10.8584 -8.60375e-20 1.35264)
(10.8226 -8.83164e-20 1.26579)
(10.9539 9.95329e-20 1.42819)
(10.9149 0 1.33832)
(11.0116 -1.82266e-19 1.40892)
(10.0066 -1.17018e-21 0.0990907)
(10.0023 1.36493e-19 0.0641502)
(10.0191 -4.7557e-21 0.163191)
(10.0115 1.3981e-19 0.126656)
(10.0369 -1.57575e-19 0.226408)
(10.0274 -3.60493e-21 0.18814)
(10.0597 -1.58966e-19 0.289414)
(10.0487 -7.55663e-21 0.249014)
(10.0875 6.30289e-22 0.352868)
(10.0746 -5.36177e-21 0.309942)
(10.12 1.01839e-20 0.417186)
(10.1056 -1.46458e-19 0.371616)
(10.157 -2.02531e-20 0.482512)
(10.1413 0 0.434202)
(10.1986 2.68373e-21 0.548956)
(10.1814 1.34483e-19 0.497698)
(10.245 2.24447e-19 0.616604)
(10.2263 3.28157e-20 0.562205)
(10.2963 1.74094e-19 0.685422)
(10.276 3.19278e-20 0.627756)
(10.3524 1.64532e-19 0.755268)
(10.3305 -2.30543e-20 0.694264)
(10.4134 -1.66078e-20 0.825954)
(10.3897 1.87002e-19 0.761577)
(10.4793 9.18966e-21 0.897248)
(10.4537 -1.09202e-19 0.829494)
(10.5501 1.97491e-19 0.968864)
(10.5225 1.14249e-19 0.897756)
(10.6257 -9.55186e-20 1.04047)
(10.5959 8.92459e-20 0.966057)
(10.706 2.80341e-21 1.1117)
(10.6738 -4.88156e-21 1.03406)
(10.791 9.3493e-20 1.18213)
(10.7562 4.84808e-21 1.10138)
(10.8804 0 1.25133)
(10.8429 -4.50649e-20 1.16764)
(10.974 -2.89482e-19 1.31881)
(10.9336 -1.34963e-19 1.23239)
(11.028 -1.05782e-19 1.29519)
(10.007 2.8096e-19 0.0925589)
(10.0023 -1.26496e-19 0.0595913)
(10.0204 1.40073e-19 0.15248)
(10.0121 7.11219e-21 0.117669)
(10.0395 1.50215e-19 0.211532)
(10.0292 -1.4055e-19 0.17479)
(10.0638 1.50013e-19 0.270272)
(10.052 2.96222e-19 0.231324)
(10.0931 -1.56838e-19 0.329352)
(10.0792 2.61167e-21 0.287837)
(10.1273 -1.56523e-19 0.389206)
(10.1115 1.43572e-19 0.344973)
(10.1662 1.5918e-19 0.449892)
(10.1489 1.55034e-19 0.402898)
(10.2097 1.65263e-19 0.511386)
(10.1908 1.58893e-19 0.461498)
(10.2579 -1.65057e-19 0.573725)
(10.2375 5.75166e-21 0.520772)
(10.3109 -1.70627e-19 0.636905)
(10.2888 -8.72972e-20 0.58077)
(10.3685 0 0.700826)
(10.3448 1.27895e-21 0.641458)
(10.4309 9.20573e-20 0.765311)
(10.4053 7.81752e-21 0.702701)
(10.4978 -1.37736e-21 0.830131)
(10.4703 2.51654e-19 0.764301)
(10.5693 3.05169e-21 0.895009)
(10.5397 -2.60384e-20 0.826007)
(10.6451 1.82551e-19 0.959631)
(10.6134 -1.67079e-20 0.887531)
(10.7252 -2.84236e-21 1.02366)
(10.6913 4.93915e-20 0.948557)
(10.8094 -1.37546e-19 1.08672)
(10.7731 -1.80938e-19 1.00875)
(10.8974 -1.83707e-19 1.14843)
(10.8585 -4.63077e-20 1.06777)
(10.9889 5.38414e-20 1.20841)
(10.9475 -5.00608e-20 1.12525)
(11.0396 1.889e-19 1.18084)
(10.0073 -4.06415e-19 0.0854579)
(10.0022 -1.43101e-19 0.0547101)
(10.0215 -2.81423e-19 0.140741)
(10.0126 -9.36232e-21 0.107881)
(10.0419 1.14921e-20 0.195276)
(10.0308 -5.82599e-21 0.16018)
(10.0676 1.43738e-19 0.24956)
(10.0548 1.06448e-20 0.212178)
(10.0981 3.11449e-19 0.304063)
(10.0832 -1.47134e-19 0.264203)
(10.1336 4.63442e-19 0.359146)
(10.1168 1.64807e-19 0.316529)
(10.1741 1.54711e-19 0.414885)
(10.1555 6.93131e-21 0.369393)
(10.2193 -5.16719e-21 0.471211)
(10.199 1.20279e-21 0.422807)
(10.2691 8.55867e-20 0.528096)
(10.2471 -3.05559e-22 0.476697)
(10.3234 8.93623e-20 0.585544)
(10.2998 7.50637e-20 0.531066)
(10.3823 9.31613e-21 0.643492)
(10.3569 1.14096e-20 0.585895)
(10.4456 1.71859e-19 0.701783)
(10.4184 2.82471e-20 0.641068)
(10.5132 2.26476e-19 0.760198)
(10.484 8.11934e-20 0.696396)
(10.5849 -4.64115e-20 0.818476)
(10.5538 8.71728e-20 0.75165)
(10.6607 -1.53629e-19 0.876326)
(10.6275 5.52362e-20 0.806567)
(10.7403 -1.33515e-19 0.933444)
(10.705 -1.71453e-19 0.860863)
(10.8234 -8.72302e-20 0.989509)
(10.7859 -4.54991e-21 0.914249)
(10.9099 9.10812e-20 1.0442)
(10.8701 8.47238e-20 0.966424)
(10.9994 8.86709e-20 1.09718)
(10.9572 9.10985e-20 1.01709)
(11.047 8.52133e-20 1.06597)
(10.0077 2.64244e-19 0.0778016)
(10.0023 1.32788e-19 0.0494704)
(10.0226 2.73139e-19 0.128031)
(10.0132 5.34001e-21 0.0973517)
(10.0438 -6.63658e-21 0.177721)
(10.0321 1.41752e-19 0.144524)
(10.0706 -2.88404e-19 0.227363)
(10.0569 -1.47729e-19 0.191703)
(10.1024 -2.96573e-19 0.27712)
(10.0865 -1.43262e-19 0.23897)
(10.1392 -3.0424e-19 0.327155)
(10.1213 -1.4739e-19 0.286266)
(10.1809 -1.50675e-19 0.377624)
(10.1613 -1.60882e-19 0.333824)
(10.2275 6.19474e-21 0.428541)
(10.206 1.04724e-20 0.381807)
(10.2785 -1.10587e-20 0.479857)
(10.2553 -4.48893e-21 0.430164)
(10.334 -5.07993e-21 0.531542)
(10.3091 -3.55028e-20 0.478843)
(10.3938 3.08716e-20 0.583526)
(10.3671 2.98979e-20 0.527797)
(10.4577 -6.49775e-20 0.635666)
(10.4292 -5.75862e-20 0.576919)
(10.5257 -6.19875e-20 0.687761)
(10.4952 -4.57025e-20 0.62604)
(10.5974 1.91743e-19 0.739578)
(10.5651 -1.95047e-20 0.674954)
(10.6729 3.70166e-20 0.790861)
(10.6386 2.10949e-19 0.723429)
(10.7517 -3.88761e-20 0.841341)
(10.7154 -8.90955e-20 0.771223)
(10.8338 1.72196e-19 0.890747)
(10.7954 6.25171e-21 0.818085)
(10.9187 8.47294e-20 0.938806)
(10.8782 8.74699e-20 0.863764)
(11.0061 8.75554e-20 0.985257)
(10.9636 0 0.908016)
(11.0511 4.37923e-21 0.950618)
(10.0081 -1.32986e-19 0.0696058)
(10.0025 0 0.0438115)
(10.0235 -1.28506e-19 0.114504)
(10.0139 -3.63588e-21 0.0861799)
(10.0454 -4.37655e-21 0.159062)
(10.0332 -4.02996e-21 0.128024)
(10.073 1.14684e-21 0.203721)
(10.0586 -4.3556e-21 0.169999)
(10.106 9.78117e-21 0.248433)
(10.0893 2.0864e-19 0.212077)
(10.144 -2.67889e-22 0.293212)
(10.1253 7.35568e-20 0.254114)
(10.1869 4.94798e-21 0.338238)
(10.1663 -4.68986e-21 0.296263)
(10.2345 -5.23301e-22 0.383593)
(10.212 8.11528e-20 0.338693)
(10.2866 -2.96467e-20 0.429239)
(10.2623 -2.79107e-20 0.381397)
(10.3429 4.66109e-22 0.475113)
(10.3168 -7.59487e-20 0.424309)
(10.4033 -6.10597e-20 0.521131)
(10.3754 -5.48797e-20 0.467362)
(10.4676 -3.77414e-20 0.567158)
(10.438 -4.18156e-21 0.510451)
(10.5357 -2.03437e-21 0.613019)
(10.5042 1.5543e-19 0.553427)
(10.6073 1.90213e-22 0.65851)
(10.574 -8.05971e-20 0.596112)
(10.6822 8.14124e-20 0.703412)
(10.6471 -7.68091e-20 0.638307)
(10.7602 -4.2712e-20 0.747498)
(10.7233 3.45008e-21 0.679808)
(10.841 -8.08991e-20 0.790541)
(10.8022 -1.61259e-19 0.720404)
(10.9243 3.4717e-22 0.832315)
(10.8836 1.29521e-21 0.75989)
(11.0098 -8.55401e-20 0.872613)
(10.9672 0 0.798068)
(11.0526 -6.00653e-21 0.834762)
(10.0085 1.32513e-19 0.060879)
(10.0026 1.14761e-19 0.0377447)
(10.0243 1.23925e-19 0.100237)
(10.0144 2.13677e-20 0.0743653)
(10.0468 -4.00967e-21 0.139397)
(10.0343 -4.15864e-21 0.11065)
(10.0752 2.09365e-19 0.178689)
(10.0603 -8.03681e-21 0.1471)
(10.1091 2.73587e-19 0.218019)
(10.0919 1.50865e-19 0.183669)
(10.1482 6.87936e-20 0.257365)
(10.1288 -4.8905e-21 0.22022)
(10.192 7.37515e-20 0.296854)
(10.1707 1.70359e-20 0.256822)
(10.2405 5.28331e-20 0.336563)
(10.2172 3.58272e-21 0.293597)
(10.2932 -7.55631e-20 0.376462)
(10.2681 5.17748e-20 0.330549)
(10.3502 -1.32825e-19 0.416484)
(10.3233 -1.47035e-19 0.367623)
(10.411 3.6546e-21 0.456539)
(10.3823 3.22082e-20 0.404743)
(10.4755 1.94437e-19 0.496503)
(10.4451 4.1445e-20 0.441813)
(10.5436 7.46486e-20 0.536226)
(10.5115 4.33539e-20 0.478701)
(10.6149 -1.5981e-19 0.575534)
(10.5811 -4.01742e-20 0.515258)
(10.6893 -1.56996e-19 0.614243)
(10.6537 -8.27626e-20 0.551318)
(10.7663 -1.18417e-19 0.652164)
(10.729 -1.10159e-21 0.586712)
(10.8459 -7.67872e-20 0.689111)
(10.8069 -7.948e-20 0.621267)
(10.9276 9.38317e-22 0.724904)
(10.8869 7.8442e-20 0.654817)
(11.0112 8.17729e-20 0.759375)
(10.9688 0 0.687206)
(11.0523 -3.41689e-20 0.718295)
(10.0088 5.47307e-22 0.0516135)
(10.0027 1.69458e-21 0.0312912)
(10.0252 -1.1003e-19 0.0851821)
(10.015 -1.13337e-19 0.0618317)
(10.0483 -8.30842e-21 0.118692)
(10.0354 -6.07519e-20 0.0923254)
(10.0774 -6.73934e-20 0.152342)
(10.0621 5.39964e-20 0.123046)
(10.112 -1.35393e-19 0.186042)
(10.0944 4.50994e-21 0.153888)
(10.1519 -5.79378e-20 0.219758)
(10.132 -1.26691e-20 0.184742)
(10.1965 -5.5045e-20 0.253559)
(10.1745 -4.87726e-20 0.215637)
(10.2456 2.60926e-21 0.287492)
(10.2217 -1.56126e-19 0.246638)
(10.2989 -2.19312e-20 0.321533)
(10.2732 -6.4773e-20 0.277747)
(10.3562 2.27425e-20 0.355623)
(10.3287 -7.43555e-20 0.308913)
(10.4174 7.104e-20 0.389675)
(10.3881 1.47307e-19 0.340068)
(10.482 -1.13868e-19 0.423585)
(10.451 -7.39877e-20 0.371124)
(10.5499 -7.46881e-20 0.457223)
(10.5172 -7.68061e-20 0.40197)
(10.6208 3.90473e-20 0.490446)
(10.5865 7.24706e-20 0.432483)
(10.6945 7.75154e-20 0.523101)
(10.6586 -3.48942e-20 0.462527)
(10.7707 3.8957e-20 0.555037)
(10.7332 3.95559e-20 0.491967)
(10.849 8.01785e-20 0.586102)
(10.81 7.50926e-20 0.520664)
(10.9293 7.75058e-20 0.616153)
(10.8888 7.97174e-20 0.548487)
(11.0111 -1.19243e-19 0.645059)
(10.9692 0 0.575314)
(11.0509 -4.3789e-20 0.601038)
(10.0092 -1.15352e-19 0.0417704)
(10.0029 -1.74828e-19 0.0243922)
(10.0262 -6.25651e-20 0.0692758)
(10.0157 0 0.0484991)
(10.0499 3.68264e-21 0.096939)
(10.0369 -2.94356e-21 0.0730265)
(10.0796 1.27542e-19 0.124793)
(10.0642 1.06129e-20 0.0978745)
(10.1148 1.3037e-19 0.152729)
(10.0971 -5.10715e-20 0.122824)
(10.1552 -3.38231e-21 0.180704)
(10.1352 -2.83658e-20 0.147804)
(10.2004 -1.52787e-19 0.208743)
(10.1782 -3.23772e-21 0.172834)
(10.25 -2.25206e-19 0.236859)
(10.2258 -4.25965e-21 0.197939)
(10.3037 -1.18605e-19 0.265023)
(10.2777 -4.08225e-20 0.223106)
(10.3614 5.3893e-20 0.293181)
(10.3335 8.6086e-20 0.248293)
(10.4226 -1.8855e-21 0.321259)
(10.3931 -3.21312e-20 0.273439)
(10.4872 -3.58843e-20 0.349166)
(10.456 -2.0886e-21 0.298469)
(10.5549 7.45379e-20 0.376798)
(10.5221 3.49102e-20 0.323296)
(10.6254 -3.64367e-21 0.404039)
(10.591 7.41721e-20 0.347819)
(10.6984 -7.3992e-20 0.430771)
(10.6625 -1.82948e-19 0.371933)
(10.7737 7.67891e-20 0.456872)
(10.7364 3.61184e-20 0.395531)
(10.8509 7.46661e-20 0.482226)
(10.8122 1.84368e-19 0.418506)
(10.9298 0 0.506722)
(10.8898 -1.24198e-21 0.440758)
(11.01 7.76871e-20 0.530262)
(10.9688 -1.45779e-19 0.462194)
(11.0489 1.14909e-19 0.482734)
(10.0098 -5.60396e-20 0.0312526)
(10.0032 8.73514e-22 0.0168661)
(10.0275 6.10786e-20 0.0524506)
(10.0169 -3.51614e-21 0.0342305)
(10.0518 4.23182e-21 0.0740235)
(10.0388 5.35823e-20 0.0527305)
(10.0821 -1.72763e-19 0.0957847)
(10.0667 -4.71401e-20 0.0715934)
(10.1179 -2.13766e-19 0.117631)
(10.1 -5.90363e-20 0.090507)
(10.1587 -2.81342e-20 0.139551)
(10.1385 -8.2106e-20 0.109469)
(10.2043 1.49159e-19 0.161553)
(10.1819 1.13482e-19 0.128501)
(10.2543 1.84946e-19 0.183627)
(10.2299 1.00254e-19 0.147594)
(10.3083 1.69536e-19 0.20574)
(10.282 5.41135e-20 0.166725)
(10.3661 -2.48794e-21 0.227841)
(10.338 1.02344e-19 0.185856)
(10.4273 -3.23001e-20 0.249869)
(10.3976 -8.65097e-20 0.20494)
(10.4918 7.07103e-20 0.271746)
(10.4605 5.26922e-20 0.223917)
(10.5592 3.45452e-20 0.29339)
(10.5263 -3.19486e-20 0.242721)
(10.6292 -1.10238e-19 0.314708)
(10.5949 3.36381e-20 0.261276)
(10.7016 -6.96816e-20 0.335607)
(10.6659 -1.44677e-19 0.279504)
(10.776 1.46779e-19 0.355994)
(10.7391 2.68495e-21 0.297325)
(10.8522 1.06311e-19 0.375779)
(10.814 1.28428e-19 0.314661)
(10.9299 -1.51241e-19 0.39488)
(10.8906 6.84546e-20 0.33144)
(11.0088 -1.07587e-19 0.413222)
(10.9684 -1.51358e-19 0.347593)
(11.0472 -1.559e-20 0.363063)
(10.011 5.45828e-20 0.019927)
(10.0041 5.98142e-20 0.00817598)
(10.0295 -1.09017e-20 0.0351121)
(10.0195 -3.6022e-21 0.0189902)
(10.0542 4.5992e-22 0.0509685)
(10.0423 -7.36781e-21 0.0315587)
(10.0849 6.95544e-20 0.0669079)
(10.0705 4.15819e-22 0.0442827)
(10.1211 7.60588e-20 0.0828373)
(10.104 6.20011e-20 0.0570036)
(10.1623 6.37642e-20 0.098794)
(10.1428 -2.1685e-20 0.0698115)
(10.2082 6.32361e-20 0.114789)
(10.1864 1.76954e-20 0.08271)
(10.2584 -3.42399e-20 0.130808)
(10.2345 7.94602e-22 0.0956665)
(10.3126 -1.48782e-20 0.146825)
(10.2867 -3.4265e-20 0.108651)
(10.3704 1.58477e-20 0.162808)
(10.3428 1.7642e-20 0.121633)
(10.4317 9.85406e-22 0.178714)
(10.4023 -5.5989e-22 0.13458)
(10.496 -5.29535e-20 0.194492)
(10.465 4.99917e-20 0.14745)
(10.5631 -3.28971e-20 0.210085)
(10.5306 -6.98526e-20 0.160197)
(10.6327 -1.77531e-21 0.225429)
(10.5988 3.49717e-20 0.172768)
(10.7045 -7.02528e-20 0.240462)
(10.6693 -2.54076e-21 0.185111)
(10.7782 -1.63001e-20 0.255118)
(10.7418 -3.6025e-20 0.197173)
(10.8535 8.94588e-20 0.269336)
(10.816 -3.29815e-20 0.208902)
(10.9302 6.84909e-20 0.28306)
(10.8917 7.18305e-20 0.22025)
(11.0079 -5.67158e-20 0.296238)
(10.9685 -9.84844e-21 0.231171)
(11.0462 -6.41688e-20 0.241628)
(10.0146 0 0.00588705)
(9.99761 0 -0.0036292)
(10.0338 0 0.014083)
(10.0079 -1.66947e-21 0.00292904)
(10.0588 -7.37754e-21 0.0234864)
(10.0242 1.71703e-21 0.00969087)
(10.0898 -7.0998e-21 0.0331026)
(10.0456 -5.59668e-21 0.016173)
(10.1261 -3.84886e-20 0.0428042)
(10.0725 1.81985e-21 0.0226629)
(10.1675 -6.87378e-20 0.0526099)
(10.1052 -2.74703e-20 0.0292584)
(10.2134 -4.6387e-20 0.0624976)
(10.143 -3.50199e-20 0.0359357)
(10.2636 7.15733e-22 0.0724288)
(10.1857 3.00853e-21 0.042659)
(10.3177 -7.56393e-22 0.0823702)
(10.2328 -3.0138e-21 0.0494056)
(10.3755 7.72064e-22 0.0922915)
(10.284 -2.80602e-20 0.0561575)
(10.4365 4.9819e-20 0.102161)
(10.3389 1.67201e-20 0.0628946)
(10.5005 3.2553e-20 0.111942)
(10.3973 2.56176e-20 0.0695936)
(10.5673 -5.22524e-23 0.121596)
(10.4588 1.61144e-20 0.0762281)
(10.6364 3.42036e-20 0.131084)
(10.5231 1.14067e-22 0.0827703)
(10.7076 3.27116e-20 0.140364)
(10.5899 3.431e-20 0.0891916)
(10.7807 -5.32053e-20 0.149397)
(10.6589 -4.1251e-22 0.0954636)
(10.8553 -5.12203e-20 0.158146)
(10.7298 -5.25451e-20 0.101559)
(10.9311 -8.81472e-21 0.166576)
(10.8022 8.38002e-21 0.107452)
(11.0079 -1.74503e-20 0.174657)
(10.8759 -4.76277e-22 0.11312)
(10.9506 -1.72541e-20 0.118543)
(9.99562 -1.71539e-21 -0.00116045)
(9.99908 1.09966e-22 0.000825928)
(10.01 3.50852e-21 0.00357073)
(10.0274 3.56922e-21 0.00651258)
(10.0509 1.30377e-20 0.00957912)
(10.0801 7.10952e-21 0.0127667)
(10.1146 1.5767e-20 0.0160523)
(10.154 -8.33371e-22 0.0194092)
(10.1981 -3.11093e-20 0.0228164)
(10.2464 -1.16317e-20 0.0262566)
(10.2986 -8.12511e-21 0.0297132)
(10.3544 8.74134e-21 0.033169)
(10.4135 1.62841e-20 0.036606)
(10.4754 2.37554e-22 0.040006)
(10.5399 2.51633e-22 0.043351)
(10.6066 2.652e-22 0.0466232)
(10.6752 8.75361e-21 0.0498061)
(10.7455 1.69753e-20 0.0528842)
(10.817 -2.71161e-22 0.0558439)
)
;

boundaryField
{
    inlet
    {
        type            calculated;
        value           nonuniform List<vector> 
30
(
(10 0 0)
(10 0 0)
(10 0 0)
(10 0 0)
(10 0 0)
(10 0 0)
(10 0 0)
(10 0 0)
(10 0 0)
(10 0 0)
(10 0 0)
(10 0 0)
(10 0 0)
(10 0 0)
(10 0 0)
(10 0 0)
(10 0 0)
(10 0 0)
(10 0 0)
(10 0 0)
(10 0 0)
(10 0 0)
(10 0 0)
(10 0 0)
(10 0 0)
(10 0 0)
(10 0 0)
(10 0 0)
(10 0 0)
(10 0 0)
)
;
    }
    outlet
    {
        type            calculated;
        value           nonuniform 0();
    }
    flap
    {
        type            calculated;
        value           nonuniform 0();
    }
    upperWall
    {
        type            calculated;
        value           uniform (0 0 0);
    }
    lowerWall
    {
        type            calculated;
        value           nonuniform 0();
    }
    frontAndBack
    {
        type            empty;
        value           nonuniform 0();
    }
    procBoundary0to1
    {
        type            processor;
        value           nonuniform List<vector> 
18
(
(11.0309 2.47955e-20 2.07074)
(11.0751 -1.11879e-19 1.94729)
(11.0342 2.3813e-20 1.83873)
(10.9997 -2.04454e-19 1.73391)
(11.0303 1.27682e-19 1.61827)
(11.0539 -2.30407e-21 1.50155)
(11.0714 -1.84761e-19 1.38412)
(11.0837 2.7713e-19 1.26626)
(11.0916 -9.11965e-20 1.14817)
(11.0958 8.45923e-20 1.02986)
(11.0971 2.44903e-21 0.911247)
(11.0964 2.04404e-19 0.79238)
(11.0942 -2.7738e-19 0.672708)
(11.0914 1.52862e-19 0.55276)
(11.0886 7.50709e-20 0.430741)
(11.0864 3.83661e-20 0.308826)
(11.0853 -2.64233e-20 0.182364)
(10.8895 -8.38992e-21 0.0586738)
)
;
    }
    procBoundary0to3
    {
        type            processor;
        value           nonuniform List<vector> 
34
(
(9.9969 2.71906e-19 0.0730755)
(9.98836 -2.76751e-19 0.14364)
(9.9819 -2.58471e-19 0.182756)
(9.97642 2.30922e-19 0.221395)
(9.96913 5.03815e-20 0.263283)
(9.9636 -1.77254e-19 0.304445)
(9.95699 1.43922e-19 0.349456)
(9.95239 3.10496e-19 0.393405)
(9.94778 1.66564e-19 0.441556)
(9.94547 -6.69271e-20 0.488197)
(9.94412 -2.81728e-19 0.539266)
(9.94537 -3.49154e-19 0.588297)
(9.94849 -6.30098e-20 0.641859)
(9.95442 -2.62381e-19 0.692795)