/*--------------------------------*- C++ -*----------------------------------*\
| =========                 |                                                 |
| \\      /  F ield         | OpenFOAM: The Open Source CFD Toolbox           |
|  \\    /   O peration     | Version:  dev                                   |
|   \\  /    A nd           | Web:      www.OpenFOAM.org                      |
|    \\/     M anipulation  |                                                 |
\*---------------------------------------------------------------------------*/
FoamFile
{
    version     2.0;
    format      ascii;
    class       volVectorField;
    location    "3.86";
    object      Force;
}
// * * * * * * * * * * * * * * * * * * * * * * * * * * * * * * * * * * * * * //

dimensions      [1 1 -2 0 0 0 0];

internalField   uniform (0 0 0);

boundaryField
{
    inlet
    {
        type            calculated;
        value           nonuniform 0();
    }
    outlet
    {
        type            calculated;
        value           nonuniform 0();
    }
    flap
    {
        type            calculated;
        value           nonuniform List<vector> 
33
(
(3.90499 1.71312e-17 -0.0893079)
(3.87662 1.55387e-17 -0.164838)
(3.85371 -1.76324e-38 -0.212555)
(3.8357 -7.5483e-23 -0.223848)
(3.81933 -5.3999e-22 -0.205974)
(3.79852 3.57677e-23 -0.164621)
(3.77111 1.5813e-17 -0.106162)
(3.73711 1.63969e-22 -0.0375378)
(3.69346 3.16824e-19 0.0323338)
(3.63502 2.92095e-22 0.0941976)
(3.55131 -1.21408e-18 0.140922)
(3.42639 6.24026e-22 0.168038)
(3.23238 5.99711e-22 0.174966)
(2.9094 -1.64465e-17 0.16422)
(2.28835 -4.35217e-22 0.131908)
(-0.021543 -7.53576e-20 0.452663)
(-0.0141621 8.79912e-20 0.263926)
(-0.00594982 8.12839e-18 0.0833876)
(-0.0739853 -3.42561e-24 0.00169653)
(-0.0733606 -1.138e-23 0.00292139)
(-0.0723117 1.60323e-17 0.00367852)
(-0.0712072 7.367e-25 0.0037407)
(-0.0705003 -7.92397e-25 0.00331176)
(-0.0707186 3.15685e-41 0.00253224)
(-0.0722562 1.99657e-41 0.00149519)
(-0.0751331 -1.7928e-41 0.00026619)
(-0.0788865 -1.0762e-42 -0.00108214)
(-0.082687 1.67536e-17 -0.0024071)
(-0.0857931 2.87452e-20 -0.00350101)
(-0.0882013 -1.65179e-17 -0.00413199)
(-0.0888015 1.63365e-17 -0.00433935)
(-0.0844534 -2.84243e-20 -0.00395116)
(-0.068621 4.59177e-41 -0.00283655)
)
;
    }
    upperWall
    {
        type            calculated;
        value           nonuniform 0();
    }
    lowerWall
    {
        type            calculated;
        value           uniform (0 0 0);
    }
    frontAndBack
    {
        type            empty;
    }
    procBoundary4to1
    {
        type            processor;
        value           uniform (0 0 0);
    }
    procBoundary4to2
    {
        type            processor;
        value           uniform (0 0 0);
    }
    procBoundary4to3
    {
        type            processor;
        value           uniform (0 0 0);
    }
    procBoundary4to5
    {
        type            processor;
        value           uniform (0 0 0);
    }
}


// ************************************************************************* //
