/*--------------------------------*- C++ -*----------------------------------*\
| =========                 |                                                 |
| \\      /  F ield         | OpenFOAM: The Open Source CFD Toolbox           |
|  \\    /   O peration     | Version:  dev                                   |
|   \\  /    A nd           | Web:      www.OpenFOAM.org                      |
|    \\/     M anipulation  |                                                 |
\*---------------------------------------------------------------------------*/
FoamFile
{
    version     2.0;
    format      ascii;
    class       volVectorField;
    location    "1.68";
    object      Force;
}
// * * * * * * * * * * * * * * * * * * * * * * * * * * * * * * * * * * * * * //

dimensions      [1 1 -2 0 0 0 0];

internalField   uniform (0 0 0);

boundaryField
{
    inlet
    {
        type            calculated;
        value           nonuniform 0();
    }
    outlet
    {
        type            calculated;
        value           nonuniform 0();
    }
    flap
    {
        type            calculated;
        value           nonuniform List<vector> 
33
(
(2.51595 -2.62612e-22 -0.184251)
(2.47187 1.68505e-17 -0.465994)
(2.3413 4.88423e-21 -0.736754)
(2.12618 1.39558e-17 -0.933277)
(1.86261 1.46937e-39 -1.04553)
(1.59156 5.58712e-21 -1.08321)
(1.34189 1.88128e-17 -1.06592)
(1.12905 1.79628e-22 -1.01437)
(0.953926 2.37794e-23 -0.944338)
(0.811317 1.70656e-17 -0.864922)
(0.694381 2.75434e-23 -0.780682)
(0.593682 1.48847e-21 -0.690967)
(0.499143 1.46747e-17 -0.591834)
(0.399975 0 -0.476197)
(0.281799 1.1068e-17 -0.335132)
(0.596718 -3.92376e-20 0.492256)
(0.382352 1.15127e-17 0.313908)
(0.165273 9.06193e-18 0.137313)
(-0.0386297 2.91889e-20 0.00288144)
(-0.0379269 1.18561e-17 0.00712781)
(-0.036703 1.21372e-17 0.0115863)
(-0.0350264 1.22452e-17 0.0153997)
(-0.0330299 -6.2374e-24 0.0185893)
(-0.0308559 1.28625e-17 0.0210662)
(-0.0286426 1.04957e-19 0.0228133)
(-0.0264641 2.02687e-19 0.0238476)
(-0.024394 1.4168e-17 0.0242253)
(-0.0224841 1.84251e-19 0.0240416)
(-0.0207792 -1.74303e-19 0.02343)
(-0.0193637 -5.87747e-39 0.0226122)
(-0.0180754 2.98465e-40 0.0215694)
(-0.0157046 2.0246e-17 0.0192728)
(-0.00446068 6.99401e-22 0.00486299)
)
;
    }
    upperWall
    {
        type            calculated;
        value           nonuniform 0();
    }
    lowerWall
    {
        type            calculated;
        value           uniform (0 0 0);
    }
    frontAndBack
    {
        type            empty;
    }
    procBoundary4to1
    {
        type            processor;
        value           uniform (0 0 0);
    }
    procBoundary4to2
    {
        type            processor;
        value           uniform (0 0 0);
    }
    procBoundary4to3
    {
        type            processor;
        value           uniform (0 0 0);
    }
    procBoundary4to5
    {
        type            processor;
        value           uniform (0 0 0);
    }
}


// ************************************************************************* //
