/*--------------------------------*- C++ -*----------------------------------*\
| =========                 |                                                 |
| \\      /  F ield         | OpenFOAM: The Open Source CFD Toolbox           |
|  \\    /   O peration     | Version:  dev                                   |
|   \\  /    A nd           | Web:      www.OpenFOAM.org                      |
|    \\/     M anipulation  |                                                 |
\*---------------------------------------------------------------------------*/
FoamFile
{
    version     2.0;
    format      ascii;
    class       volScalarField;
    location    "1.68";
    object      p;
}
// * * * * * * * * * * * * * * * * * * * * * * * * * * * * * * * * * * * * * //

dimensions      [0 2 -2 0 0 0 0];

internalField   nonuniform List<scalar> 
465
(
101.021
103.282
105.56
107.811
109.976
111.98
113.735
115.136
116.034
100.789
103.03
105.294
107.535
109.699
111.715
113.498
114.952
116.016
100.095
102.232
104.38
106.497
108.527
110.399
112.017
113.242
113.69
99.0878
101.053
103
104.88
106.624
108.133
109.243
109.748
108.206
97.8155
99.5554
101.232
102.78
104.103
105.05
105.322
104.814
100.234
96.3199
97.7932
99.1441
100.285
101.082
101.328
100.53
98.9956
91.036
94.6351
95.811
96.7968
97.4805
97.6873
97.1678
95.179
92.7746
81.719
92.7923
93.6505
94.2476
94.4478
94.0373
92.7516
89.5488
86.4772
72.9625
90.8225
91.3523
91.5512
91.2627
90.2371
88.2262
83.8607
80.2828
65.0283
88.7568
88.9559
88.7582
87.9909
86.3726
83.6959
78.2627
74.2437
57.8913
86.6252
86.4988
85.9155
84.6904
82.5129
79.2261
72.8378
68.3145
51.3403
84.4564
84.0159
83.0656
81.4109
78.7136
74.8508
67.6263
62.3897
45.0206
82.2774
81.5398
80.247
78.1957
75.0203
70.5969
62.6645
56.3706
38.4438
80.1134
79.1008
77.4957
75.0861
71.485
66.5295
58.0385
50.2831
30.9787
77.9899
76.729
74.8486
72.1304
68.1814
62.777
53.9394
44.5289
21.8067
2.06208
2.07294
2.07338
2.06124
2.02453
1.95738
1.875
1.79356
1.71975
1.65461
2.04776
2.05448
2.05154
2.03858
1.99982
1.9312
1.84868
1.76812
1.69571
1.63202
2.02555
2.02828
2.0189
2.00205
1.95868
1.88824
1.8072
1.72976
1.6609
1.60081
1.99541
1.99483
1.97609
1.9527
1.90389
1.83322
1.75645
1.68503
1.62238
1.56823
1.95624
1.95408
1.92379
1.89321
1.84105
1.77384
1.70497
1.64265
1.58906
1.54309
1.90714
1.90607
1.86397
1.82829
1.77741
1.71821
1.65999
1.60823
1.56491
1.52879
1.84761
1.85145
1.80044
1.76433
1.71992
1.67199
1.62487
1.58251
1.54751
1.52071
1.77775
1.7919
1.73788
1.7071
1.67164
1.63333
1.59479
1.56002
1.53273
1.51525
1.69792
1.72979
1.67847
1.656
1.62831
1.59633
1.56276
1.53353
1.51415
1.5075
1.60956
1.66416
1.61921
1.60468
1.58212
1.55385
1.52369
1.49894
1.48762
1.49354
1.5176
1.58842
1.55326
1.54616
1.52875
1.50054
1.47145
1.45243
1.45246
1.47429
1.42933
1.49129
1.47598
1.47858
1.4648
1.43583
1.4044
1.38929
1.40335
1.44692
1.33702
1.36685
1.3845
1.40418
1.38982
1.35178
1.31407
1.30415
1.33899
1.41433
1.16948
1.19898
1.28217
1.32218
1.30007
1.24437
1.19587
1.19318
1.2593
1.38386
0.349026
1.02384
1.19098
1.26271
1.21059
1.11962
1.04943
1.05036
1.16098
1.36785
75.8849
74.4025
72.286
69.3198
65.1293
59.4461
50.6296
40.1068
10.2165
73.8074
72.138
69.8382
66.7095
62.4304
56.7777
48.6604
39.8068
34.6984
71.7922
69.9778
67.5582
64.3688
60.1795
54.9141
48.2381
41.5957
39.7952
69.8622
67.9481
65.4746
62.3224
58.3575
53.6005
47.9968
41.7636
36.6352
66.0674
63.5993
60.5548
56.8659
52.5636
47.6449
42.0662
36.9547
59.0276
55.6227
51.7408
47.4295
42.7352
38.3185
51.0882
47.2971
43.2613
39.3142
43.6318
40.1129
-75.6883
-48.9693
-21.2465
28.1567
24.31
21.1745
30.7051
22.5016
17.8566
28.2054
23.1804
20.1901
31.4843
27.8507
25.0588
33.9696
30.8834
28.3402
35.5427
32.9173
30.738
36.8526
34.6056
32.7283
36.0034
34.3583
4.04834
2.75379
1.32006
1.18192
1.0065
0.85913
0.767425
0.793144
1.00801
15.1733
5.70806
2.09047
1.62941
1.56086
1.30338
1.04131
1.00197
1.34053
13.4498
7.68488
4.8558
3.85147
3.18986
2.49568
1.94682
1.69695
1.72518
16.7441
12.5657
9.52041
7.49433
6.00628
4.81106
3.90755
3.31616
2.97613
21.5565
17.6663
14.2249
11.4821
9.39074
7.76772
6.50588
5.55863
4.87217
25.2349
21.7442
18.3025
15.3098
12.9054
10.9805
9.42125
8.16932
7.18225
28.104
25.0521
21.8164
18.8239
16.2946
14.1872
12.4161
10.9322
9.70441
30.4548
27.7646
24.786
21.9094
19.3776
17.1927
15.2982
13.6587
12.2542
32.3619
29.9667
27.2471
24.5414
22.0845
19.9014
17.9568
16.2286
14.7062
31.7638
29.2854
26.767
24.4245
22.2924
20.3494
18.5832
16.9908
26.4331
24.3787
22.4704
20.7024
19.0769
24.3341
22.5885
20.9569
22.6372
)
;

boundaryField
{
    inlet
    {
        type            zeroGradient;
    }
    outlet
    {
        type            fixedValue;
        value           nonuniform 0();
    }
    flap
    {
        type            zeroGradient;
    }
    upperWall
    {
        type            zeroGradient;
    }
    lowerWall
    {
        type            zeroGradient;
    }
    frontAndBack
    {
        type            empty;
    }
    procBoundary4to1
    {
        type            processor;
        value           nonuniform List<scalar> 
30
(
68.0363
68.0363
64.3426
61.9249
61.9249
57.7041
54.5775
54.5775
50.5447
47.1766
47.1766
43.932
40.8136
37.9653
37.9653
37.142
35.6846
33.9121
33.9121
33.2454
30.9826
28.6468
28.6468
28.152
26.188
26.188
25.9639
24.2564
24.2564
24.1311
)
;
    }
    procBoundary4to2
    {
        type            processor;
        value           nonuniform List<scalar> 
11
(
1.80141
2.76037
4.36833
6.40892
8.69969
11.0645
13.3787
15.5683
17.5949
19.4433
21.1129
)
;
    }
    procBoundary4to3
    {
        type            processor;
        value           nonuniform List<scalar> 
19
(
98.8122
98.6013
98.0019
97.1417
96.0585
94.7842
93.3453
91.7658
90.0701
88.2829
86.4282
84.5296
82.6094
80.6886
78.789
76.8896
74.9942
73.1323
71.3234
)
;
    }
    procBoundary4to5
    {
        type            processor;
        value           nonuniform List<scalar> 
18
(
1.59899
1.57789
1.55029
1.52335
1.50568
1.50081
1.5035
1.50943
1.51438
1.51564
1.51363
1.50829
1.50477
1.5143
1.55735
1.39045
1.39045
1.782
)
;
    }
}


// ************************************************************************* //
