/*--------------------------------*- C++ -*----------------------------------*\
| =========                 |                                                 |
| \\      /  F ield         | OpenFOAM: The Open Source CFD Toolbox           |
|  \\    /   O peration     | Version:  dev                                   |
|   \\  /    A nd           | Web:      www.OpenFOAM.org                      |
|    \\/     M anipulation  |                                                 |
\*---------------------------------------------------------------------------*/
FoamFile
{
    version     2.0;
    format      ascii;
    class       pointVectorField;
    location    "3.38";
    object      pointDisplacement;
}
// * * * * * * * * * * * * * * * * * * * * * * * * * * * * * * * * * * * * * //

dimensions      [0 1 0 0 0 0 0];

internalField   nonuniform List<vector> 
5828
(
(0 0 0)
(0.00619329 0 0)
(0.0117853 0 0)
(0.0166287 0 0)
(0.0207765 0 0)
(0.0242803 0 0)
(0.0271878 0 0)
(0.0295427 0 0)
(0.0313839 0 0)
(0.0327465 0 0)
(0.0336615 0 0)
(0.0341563 0 0)
(0.0342553 0 0)
(0.0339802 0 0)
(0.0333507 0 0)
(0.0323855 0 0)
(0.0311028 0 0)
(0.0295213 0 0)
(0.0276617 0 0)
(0.0255479 0 0)
(0.0232086 0 0)
(0.0206789 0 0)
(0.0180024 0 0)
(0.0152325 0 0)
(0.0124351 0 0)
(0.00969069 0 0)
(0.00709711 0 0)
(0.00477383 0 0)
(0.00287016 0 0)
(0.00158897 0 0)
(0 0 0)
(0 0 0)
(0.00619736 0 2.14282e-06)
(0.0117937 0 4.38785e-06)
(0.0166415 0 6.93024e-06)
(0.0207938 0 9.98317e-06)
(0.0243026 0 1.37356e-05)
(0.0272157 0 1.83682e-05)
(0.0295768 0 2.40647e-05)
(0.0314252 0 3.10202e-05)
(0.0327959 0 3.94474e-05)
(0.0337203 0 4.95809e-05)
(0.0342259 0 6.16804e-05)
(0.0343372 0 7.60321e-05)
(0.0340762 0 9.29483e-05)
(0.0334629 0 0.000112764)
(0.032516 0 0.00013583)
(0.0312539 0 0.000162503)
(0.0296955 0 0.000193131)
(0.0278615 0 0.000228034)
(0.0257758 0 0.000267474)
(0.0234669 0 0.000311634)
(0.0209697 0 0.000360579)
(0.0183275 0 0.000414221)
(0.0155933 0 0.000472284)
(0.0128328 0 0.000534265)
(0.0101263 0 0.000599371)
(0.00757157 0 0.000666417)
(0.0052887 0 0.000733548)
(0.00342791 0 0.000797511)
(0.00219095 0 0.000851488)
(0.000810536 0 0.000926292)
(0 0 0)
(0.00621041 0 4.21502e-06)
(0.0118196 0 8.63472e-06)
(0.0166802 0 1.36456e-05)
(0.0208462 0 1.96687e-05)
(0.0243698 0 2.70771e-05)
(0.0272994 0 3.6227e-05)
(0.0296792 0 4.74802e-05)
(0.0315488 0 6.12206e-05)
(0.0329438 0 7.78662e-05)
(0.0338961 0 9.7878e-05)
(0.0344337 0 0.000121766)
(0.0345818 0 0.000150092)
(0.0343629 0 0.000183468)
(0.0337976 0 0.000222552)
(0.0329051 0 0.000268032)
(0.0317044 0 0.00032061)
(0.0302147 0 0.000380967)
(0.028457 0 0.000449727)
(0.0264549 0 0.000527403)
(0.0242366 0 0.000614338)
(0.0218364 0 0.000710636)
(0.0192965 0 0.000816076)
(0.0166689 0 0.000930029)
(0.0140181 0 0.00105135)
(0.0114235 0 0.00117824)
(0.00898238 0 0.00130799)
(0.00681463 0 0.00143639)
(0.00506957 0 0.00155639)
(0.00394249 0 0.00165451)
(0.00264197 0 0.00176999)
(0 0 0)
(0.00623199 0 6.1476e-06)
(0.0118623 0 1.26027e-05)
(0.0167444 0 1.99357e-05)
(0.0209328 0 2.87651e-05)
(0.0244809 0 3.96383e-05)
(0.0274378 0 5.30767e-05)
(0.0298483 0 6.96093e-05)
(0.031753 0 8.97965e-05)
(0.0331881 0 0.000114247)
(0.0341864 0 0.000143632)
(0.0347767 0 0.000178692)
(0.0349853 0 0.000220244)
(0.0348356 0 0.000269177)
(0.0343491 0 0.000326445)
(0.0335462 0 0.000393048)
(0.0324465 0 0.000470004)
(0.03107 0 0.000558304)
(0.0294379 0 0.000658848)
(0.0275739 0 0.000772366)
(0.0255054 0 0.000899333)
(0.0232655 0 0.00103985)
(0.0208948 0 0.00119348)
(0.0184431 0 0.00135913)
(0.0159726 0 0.00153482)
(0.0135603 0 0.00171742)
(0.0113012 0 0.00190228)
(0.00931242 0 0.0020824)
(0.00773815 0 0.00224684)
(0.00676248 0 0.002377)
(0.00558904 0 0.00252023)
(0 0 0)
(0.00626183 0 7.87424e-06)
(0.0119214 0 1.61594e-05)
(0.016833 0 2.55984e-05)
(0.0210526 0 3.69924e-05)
(0.0246345 0 5.10484e-05)
(0.027629 0 6.84384e-05)
(0.0300819 0 8.98425e-05)
(0.0320347 0 0.000115979)
(0.033525 0 0.000147626)
(0.0345864 0 0.000185641)
(0.0352493 0 0.000230969)
(0.0355409 0 0.000284647)
(0.0354861 0 0.000347809)
(0.0351078 0 0.000421666)
(0.0344278 0 0.000507492)
(0.0334667 0 0.00060658)
(0.0322457 0 0.000720191)
(0.0307866 0 0.000849464)
(0.029113 0 0.000995305)
(0.0272513 0 0.00115828)
(0.0252333 0 0.00133844)
(0.0230968 0 0.00153509)
(0.0208883 0 0.00174655)
(0.0186659 0 0.00196983)
(0.0165022 0 0.00220028)
(0.0144877 0 0.00243096)
(0.0127335 0 0.00265192)
(0.0113762 0 0.00284876)
(0.0105881 0 0.00299959)
(0.00956745 0 0.00315985)
(0 0 0)
(0.00629955 0 9.33252e-06)
(0.0119961 0 1.91801e-05)
(0.016945 0 3.0444e-05)
(0.0212038 0 4.40881e-05)
(0.0248284 0 6.09606e-05)
(0.0278702 0 8.18651e-05)
(0.0303764 0 0.000107612)
(0.0323899 0 0.000139053)
(0.0339494 0 0.000177111)
(0.03509 0 0.000222796)
(0.0358436 0 0.000277221)
(0.0362391 0 0.000341607)
(0.0363031 0 0.000417281)
(0.0360602 0 0.000505667)
(0.0355338 0 0.000608257)
(0.0347463 0 0.000726567)
(0.03372 0 0.000862081)
(0.0324782 0 0.00101613)
(0.0310442 0 0.00118974)
(0.0294436 0 0.00138353)
(0.027706 0 0.0015975)
(0.0258663 0 0.00183065)
(0.0239659 0 0.00208069)
(0.0220564 0 0.0023436)
(0.0202041 0 0.00261312)
(0.018492 0 0.00288002)
(0.017022 0 0.00313139)
(0.0159201 0 0.00334977)
(0.015346 0 0.00351134)
(0.0144872 0 0.00367551)
(0 0 0)
(0.00634467 0 1.04653e-05)
(0.0120855 0 2.15508e-05)
(0.0170789 0 3.4299e-05)
(0.0213846 0 4.9813e-05)
(0.02506 0 6.90596e-05)
(0.0281582 0 9.29514e-05)
(0.0307278 0 0.000122404)
(0.0328133 0 0.000158376)
(0.0344548 0 0.0002019)
(0.0356893 0 0.000254104)
(0.0365502 0 0.000316225)
(0.0370684 0 0.000389618)
(0.0372725 0 0.00047575)
(0.0371891 0 0.000576197)
(0.0368439 0 0.000692604)
(0.0362611 0 0.000826638)
(0.0354647 0 0.000979955)
(0.0344802 0 0.00115403)
(0.0333312 0 0.00134994)
(0.0320414 0 0.00156831)
(0.0306394 0 0.00180911)
(0.0291559 0 0.00207111)
(0.0276261 0 0.00235146)
(0.0260917 0 0.00264523)
(0.0246102 0 0.00294484)
(0.0232559 0 0.00323897)
(0.0221168 0 0.00351192)
(0.0213039 0 0.00374357)
(0.0209638 0 0.00390875)
(0.0202612 0 0.00406921)
(0 0 0)
(0.00639663 0 1.12219e-05)
(0.0121883 0 2.31706e-05)
(0.017233 0 3.70102e-05)
(0.0215925 0 5.3956e-05)
(0.0253262 0 7.50684e-05)
(0.028489 0 0.000101343)
(0.0311311 0 0.000133772)
(0.0332986 0 0.00017339)
(0.0350336 0 0.000221305)
(0.0363747 0 0.000278717)
(0.0373574 0 0.000346943)
(0.0380146 0 0.000427412)
(0.0383772 0 0.00052167)
(0.0384741 0 0.000631374)
(0.0383338 0 0.000758249)
(0.0379823 0 0.000904018)
(0.0374449 0 0.00107045)
(0.0367496 0 0.00125906)
(0.0359216 0 0.00147085)
(0.0349853 0 0.00170659)
(0.0339672 0 0.00196626)
(0.0328946 0 0.00224843)
(0.0317958 0 0.00254987)
(0.0307015 0 0.00286523)
(0.0296529 0 0.00318612)
(0.028712 0 0.00349949)
(0.0279525 0 0.00378734)
(0.0274642 0 0.00402726)
(0.027378 0 0.0041927)
(0.0268284 0 0.00434995)
(0 0 0)
(0.00645476 0 1.15591e-05)
(0.0123034 0 2.39535e-05)
(0.0174053 0 3.84474e-05)
(0.0218248 0 5.6339e-05)
(0.0256235 0 7.87545e-05)
(0.028858 0 0.000106744)
(0.0315806 0 0.000141348)
(0.0338389 0 0.000183642)
(0.0356771 0 0.000234768)
(0.0371357 0 0.000295957)
(0.0382522 0 0.000368549)
(0.0390619 0 0.000453994)
(0.0395981 0 0.000553837)
(0.0398917 0 0.000669745)
(0.0399731 0 0.000803411)
(0.0398719 0 0.000956486)
(0.0396159 0 0.00113076)
(0.0392331 0 0.0013277)
(0.038753 0 0.00154836)
(0.0382032 0 0.00179357)
(0.0376082 0 0.00206327)
(0.0369925 0 0.00235605)
(0.0363793 0 0.0026687)
(0.0357903 0 0.00299577)
(0.035244 0 0.00332873)
(0.0347807 0 0.00365388)
(0.0344575 0 0.00395149)
(0.0343385 0 0.00419706)
(0.0345338 0 0.00436214)
(0.0341454 0 0.00452588)
(0 0 0)
(0.00651833 0 1.1442e-05)
(0.0124291 0 2.38301e-05)
(0.0175935 0 3.85065e-05)
(0.0220785 0 5.68203e-05)
(0.0259479 0 7.99344e-05)
(0.0292603 0 0.000108925)
(0.0320698 0 0.000144847)
(0.0344263 0 0.000188784)
(0.0363756 0 0.000241874)
(0.0379604 0 0.000305327)
(0.0392202 0 0.000380455)
(0.0401926 0 0.000468669)
(0.0409124 0 0.000571416)
(0.0414125 0 0.000690235)
(0.041726 0 0.000826741)
(0.0418871 0 0.000982502)
(0.0419278 0 0.00115913)
(0.0418774 0 0.00135803)
(0.0417676 0 0.00158025)
(0.0416288 0 0.00182651)
(0.0414862 0 0.00209675)
(0.0413633 0 0.00238975)
(0.0412793 0 0.00270269)
(0.0412484 0 0.00303046)
(0.0412743 0 0.00336512)
(0.0413638 0 0.00369376)
(0.0415451 0 0.00399577)
(0.0418562 0 0.0042444)
(0.0423744 0 0.00440807)
(0.0421868 0 0.00458839)
(0 0 0)
(0.00658652 0 1.08444e-05)
(0.012564 0 2.27492e-05)
(0.0177954 0 3.71108e-05)
(0.0223503 0 5.52971e-05)
(0.026295 0 7.84775e-05)
(0.0296903 0 0.000107724)
(0.0325922 0 0.000144076)
(0.0350523 0 0.000188591)
(0.0371188 0 0.00024236)
(0.0388362 0 0.000306527)
(0.040246 0 0.000382319)
(0.0413864 0 0.000471018)
(0.0422934 0 0.000573895)
(0.0430052 0 0.000692323)
(0.0435592 0 0.000827776)
(0.0439914 0 0.000981648)
(0.0443375 0 0.00115526)
(0.0446303 0 0.00134974)
(0.0449035 0 0.00156599)
(0.0451892 0 0.00180453)
(0.0455158 0 0.00206527)
(0.0459079 0 0.00234727)
(0.0463831 0 0.00264829)
(0.0469503 0 0.00296418)
(0.0476059 0 0.0032883)
(0.0483243 0 0.00360969)
(0.0490955 0 0.0039085)
(0.0499186 0 0.0041555)
(0.0508162 0 0.00431393)
(0.0509059 0 0.00450585)
(0 0 0)
(0.0066585 0 9.74965e-06)
(0.0127064 0 2.06783e-05)
(0.0180082 0 3.4213e-05)
(0.0226367 0 5.17074e-05)
(0.0266605 0 7.43078e-05)
(0.0301424 0 0.000103052)
(0.0331404 0 0.000138936)
(0.0357081 0 0.000182954)
(0.0378958 0 0.00023612)
(0.03975 0 0.000299458)
(0.0413121 0 0.000374036)
(0.0426207 0 0.000460943)
(0.0437172 0 0.000561276)
(0.0446445 0 0.000676215)
(0.0454423 0 0.000806923)
(0.0461481 0 0.000954452)
(0.0467999 0 0.00111974)
(0.0474346 0 0.00130355)
(0.0480889 0 0.00150639)
(0.0487978 0 0.00172846)
(0.0495936 0 0.00196948)
(0.0505039 0 0.00222862)
(0.0515485 0 0.00250428)
(0.0527355 0 0.00279366)
(0.0540559 0 0.00309209)
(0.0554706 0 0.00339188)
(0.0569304 0 0.00367627)
(0.0583676 0 0.00391475)
(0.0597194 0 0.00406315)
(0.0601873 0 0.00425513)
(0 0 0)
(0.00673335 0 8.15074e-06)
(0.0128543 0 1.76041e-05)
(0.0182293 0 2.97952e-05)
(0.0229341 0 4.6031e-05)
(0.0270394 0 6.74053e-05)
(0.0306105 0 9.48945e-05)
(0.033707 0 0.00012942)
(0.0363845 0 0.000171886)
(0.0386953 0 0.000223206)
(0.0406867 0 0.000284216)
(0.0423993 0 0.000355769)
(0.0438757 0 0.00043877)
(0.0451632 0 0.000534101)
(0.0463053 0 0.000642617)
(0.0473426 0 0.000765083)
(0.0483155 0 0.000902128)
(0.0492644 0 0.0010542)
(0.0502291 0 0.00122152)
(0.0512494 0 0.00140404)
(0.0523639 0 0.00160136)
(0.0536089 0 0.00181276)
(0.0550166 0 0.00203714)
(0.0566119 0 0.00227314)
(0.058408 0 0.00251908)
(0.0603986 0 0.00277278)
(0.0625494 0 0.00303111)
(0.0647784 0 0.00328446)
(0.0669418 0 0.00350602)
(0.0688515 0 0.00364374)
(0.0698734 0 0.00383246)
(0 0 0)
(0.00681015 0 6.05022e-06)
(0.0130061 0 1.3533e-05)
(0.018456 0 2.38699e-05)
(0.0232385 0 3.82896e-05)
(0.027427 0 5.78062e-05)
(0.0310885 0 8.33082e-05)
(0.0342844 0 0.000115616)
(0.0370721 0 0.000155519)
(0.0395053 0 0.000203796)
(0.0416311 0 0.000261085)
(0.0434916 0 0.000327976)
(0.0451348 0 0.000405156)
(0.0466096 0 0.000493229)
(0.0479593 0 0.000592663)
(0.0492263 0 0.000703781)
(0.0504529 0 0.000826705)
(0.0516812 0 0.000961298)
(0.0529534 0 0.00110711)
(0.0543115 0 0.00126333)
(0.0557967 0 0.00142875)
(0.0574489 0 0.00160175)
(0.0593047 0 0.00178044)
(0.0613953 0 0.00196283)
(0.0637426 0 0.0021473)
(0.0663524 0 0.00233324)
(0.0692058 0 0.00252214)
(0.072215 0 0.00271622)
(0.0751936 0 0.00290516)
(0.0778034 0 0.00303897)
(0.0797964 0 0.00325524)
(0 0 0)
(0.00688796 0 3.46013e-06)
(0.0131597 0 8.4904e-06)
(0.0186853 0 1.64791e-05)
(0.0235463 0 2.85463e-05)
(0.0278183 0 4.56014e-05)
(0.0315702 0 6.84218e-05)
(0.0348652 0 9.77039e-05)
(0.0377617 0 0.000134094)
(0.0403145 0 0.000178207)
(0.0425707 0 0.000230514)
(0.0445757 0 0.000291319)
(0.0463807 0 0.000360992)
(0.0480341 0 0.000439844)
(0.0495797 0 0.000527935)
(0.051061 0 0.000625115)
(0.0525214 0 0.000730952)
(0.0540038 0 0.000844665)
(0.0555511 0 0.000965052)
(0.0572062 0 0.00109042)
(0.0590112 0 0.00121853)
(0.061007 0 0.00134654)
(0.0632325 0 0.00147111)
(0.065722 0 0.00158854)
(0.0685034 0 0.0016953)
(0.0715931 0 0.00178908)
(0.0749876 0 0.00187154)
(0.0786266 0 0.00195386)
(0.0823406 0 0.00205889)
(0.085735 0 0.00218524)
(0.089803 0 0.00257633)
(0 0 0)
(0.00696631 0 3.87029e-07)
(0.0133145 0 2.47858e-06)
(0.0189161 0 7.62224e-06)
(0.0238557 0 1.68107e-05)
(0.0282112 0 3.08182e-05)
(0.0320531 0 5.0291e-05)
(0.035446 0 7.57813e-05)
(0.0384492 0 0.00010777)
(0.0411181 0 0.000146677)
(0.043501 0 0.0001928)
(0.0456464 0 0.00024619)
(0.0476062 0 0.000306866)
(0.0494277 0 0.000374789)
(0.0511554 0 0.000449621)
(0.0528329 0 0.00053073)
(0.0545035 0 0.000617126)
(0.0562097 0 0.000707376)
(0.0579937 0 0.000799516)
(0.0598968 0 0.000890949)
(0.0619594 0 0.000978342)
(0.0642201 0 0.0010575)
(0.0667144 0 0.00112327)
(0.0694732 0 0.00116949)
(0.0725199 0 0.00118882)
(0.0758661 0 0.00117266)
(0.0795013 0 0.00111116)
(0.0833674 0 0.000993)
(0.087313 0 0.000798759)
(0.0910509 0 0.000444948)
(0.0998252 0 0.00184571)
(0 0 0)
(0.00619329 0 0)
(0.0117853 0 0)
(0.0166287 0 0)
(0.0207765 0 0)
(0.0242803 0 0)
(0.0271878 0 0)
(0.0295427 0 0)
(0.0313839 0 0)
(0.0327465 0 0)
(0.0336615 0 0)
(0.0341563 0 0)
(0.0342553 0 0)
(0.0339802 0 0)
(0.0333507 0 0)
(0.0323855 0 0)
(0.0311028 0 0)
(0.0295213 0 0)
(0.0276617 0 0)
(0.0255479 0 0)
(0.0232086 0 0)
(0.0206789 0 0)
(0.0180024 0 0)
(0.0152325 0 0)
(0.0124351 0 0)
(0.00969069 0 0)
(0.00709711 0 0)
(0.00477383 0 0)
(0.00287016 0 0)
(0.00158897 0 0)
(0 0 0)
(0 0 0)
(0.00619736 0 2.14282e-06)
(0.0117937 0 4.38785e-06)
(0.0166415 0 6.93024e-06)
(0.0207938 0 9.98317e-06)
(0.0243026 0 1.37356e-05)
(0.0272157 0 1.83682e-05)
(0.0295768 0 2.40647e-05)
(0.0314252 0 3.10202e-05)
(0.0327959 0 3.94474e-05)
(0.0337203 0 4.95809e-05)
(0.0342259 0 6.16804e-05)
(0.0343372 0 7.60321e-05)
(0.0340762 0 9.29483e-05)
(0.0334629 0 0.000112764)
(0.032516 0 0.00013583)
(0.0312539 0 0.000162503)
(0.0296955 0 0.000193131)
(0.0278615 0 0.000228034)
(0.0257758 0 0.000267474)
(0.0234669 0 0.000311634)
(0.0209697 0 0.000360579)
(0.0183275 0 0.000414221)
(0.0155933 0 0.000472284)
(0.0128328 0 0.000534265)
(0.0101263 0 0.000599371)
(0.00757157 0 0.000666417)
(0.0052887 0 0.000733548)
(0.00342791 0 0.000797511)
(0.00219095 0 0.000851488)
(0.000810536 0 0.000926292)
(0 0 0)
(0.00621041 0 4.21502e-06)
(0.0118196 0 8.63472e-06)
(0.0166802 0 1.36456e-05)
(0.0208462 0 1.96687e-05)
(0.0243698 0 2.70771e-05)
(0.0272994 0 3.6227e-05)
(0.0296792 0 4.74802e-05)
(0.0315488 0 6.12206e-05)
(0.0329438 0 7.78662e-05)
(0.0338961 0 9.7878e-05)
(0.0344337 0 0.000121766)
(0.0345818 0 0.000150092)
(0.0343629 0 0.000183468)
(0.0337976 0 0.000222552)
(0.0329051 0 0.000268032)
(0.0317044 0 0.00032061)
(0.0302147 0 0.000380967)
(0.028457 0 0.000449727)
(0.0264549 0 0.000527403)
(0.0242366 0 0.000614338)
(0.0218364 0 0.000710636)
(0.0192965 0 0.000816076)
(0.0166689 0 0.000930029)
(0.0140181 0 0.00105135)
(0.0114235 0 0.00117824)
(0.00898238 0 0.00130799)
(0.00681463 0 0.00143639)
(0.00506957 0 0.00155639)
(0.00394249 0 0.00165451)
(0.00264197 0 0.00176999)
(0 0 0)
(0.00623199 0 6.1476e-06)
(0.0118623 0 1.26027e-05)
(0.0167444 0 1.99357e-05)
(0.0209328 0 2.87651e-05)
(0.0244809 0 3.96383e-05)
(0.0274378 0 5.30767e-05)
(0.0298483 0 6.96093e-05)
(0.031753 0 8.97965e-05)
(0.0331881 0 0.000114247)
(0.0341864 0 0.000143632)
(0.0347767 0 0.000178692)
(0.0349853 0 0.000220244)
(0.0348356 0 0.000269177)
(0.0343491 0 0.000326445)
(0.0335462 0 0.000393048)
(0.0324465 0 0.000470004)
(0.03107 0 0.000558304)
(0.0294379 0 0.000658848)
(0.0275739 0 0.000772366)
(0.0255054 0 0.000899333)
(0.0232655 0 0.00103985)
(0.0208948 0 0.00119348)
(0.0184431 0 0.00135913)
(0.0159726 0 0.00153482)
(0.0135603 0 0.00171742)
(0.0113012 0 0.00190228)
(0.00931242 0 0.0020824)
(0.00773815 0 0.00224684)
(0.00676248 0 0.002377)
(0.00558904 0 0.00252023)
(0 0 0)
(0.00626183 0 7.87424e-06)
(0.0119214 0 1.61594e-05)
(0.016833 0 2.55984e-05)
(0.0210526 0 3.69924e-05)
(0.0246345 0 5.10484e-05)
(0.027629 0 6.84384e-05)
(0.0300819 0 8.98425e-05)
(0.0320347 0 0.000115979)
(0.033525 0 0.000147626)
(0.0345864 0 0.000185641)
(0.0352493 0 0.000230969)
(0.0355409 0 0.000284647)
(0.0354861 0 0.000347809)
(0.0351078 0 0.000421666)
(0.0344278 0 0.000507492)
(0.0334667 0 0.00060658)
(0.0322457 0 0.000720191)
(0.0307866 0 0.000849464)
(0.029113 0 0.000995305)
(0.0272513 0 0.00115828)
(0.0252333 0 0.00133844)
(0.0230968 0 0.00153509)
(0.0208883 0 0.00174655)
(0.0186659 0 0.00196983)
(0.0165022 0 0.00220028)
(0.0144877 0 0.00243096)
(0.0127335 0 0.00265192)
(0.0113762 0 0.00284876)
(0.0105881 0 0.00299959)
(0.00956745 0 0.00315985)
(0 0 0)
(0.00629955 0 9.33252e-06)
(0.0119961 0 1.91801e-05)
(0.016945 0 3.0444e-05)
(0.0212038 0 4.40881e-05)
(0.0248284 0 6.09606e-05)
(0.0278702 0 8.18651e-05)
(0.0303764 0 0.000107612)
(0.0323899 0 0.000139053)
(0.0339494 0 0.000177111)
(0.03509 0 0.000222796)
(0.0358436 0 0.000277221)
(0.0362391 0 0.000341607)
(0.0363031 0 0.000417281)
(0.0360602 0 0.000505667)
(0.0355338 0 0.000608257)
(0.0347463 0 0.000726567)
(0.03372 0 0.000862081)
(0.0324782 0 0.00101613)
(0.0310442 0 0.00118974)
(0.0294436 0 0.00138353)
(0.027706 0 0.0015975)
(0.0258663 0 0.00183065)
(0.0239659 0 0.00208069)
(0.0220564 0 0.0023436)
(0.0202041 0 0.00261312)
(0.018492 0 0.00288002)
(0.017022 0 0.00313139)
(0.0159201 0 0.00334977)
(0.015346 0 0.00351134)
(0.0144872 0 0.00367551)
(0 0 0)
(0.00634467 0 1.04653e-05)
(0.0120855 0 2.15508e-05)
(0.0170789 0 3.4299e-05)
(0.0213846 0 4.9813e-05)
(0.02506 0 6.90596e-05)
(0.0281582 0 9.29514e-05)
(0.0307278 0 0.000122404)
(0.0328133 0 0.000158376)
(0.0344548 0 0.0002019)
(0.0356893 0 0.000254104)
(0.0365502 0 0.000316225)
(0.0370684 0 0.000389618)
(0.0372725 0 0.00047575)
(0.0371891 0 0.000576197)
(0.0368439 0 0.000692604)
(0.0362611 0 0.000826638)
(0.0354647 0 0.000979955)
(0.0344802 0 0.00115403)
(0.0333312 0 0.00134994)
(0.0320414 0 0.00156831)
(0.0306394 0 0.00180911)
(0.0291559 0 0.00207111)
(0.0276261 0 0.00235146)
(0.0260917 0 0.00264523)
(0.0246102 0 0.00294484)
(0.0232559 0 0.00323897)
(0.0221168 0 0.00351192)
(0.0213039 0 0.00374357)
(0.0209638 0 0.00390875)
(0.0202612 0 0.00406921)
(0 0 0)
(0.00639663 0 1.12219e-05)
(0.0121883 0 2.31706e-05)
(0.017233 0 3.70102e-05)
(0.0215925 0 5.3956e-05)
(0.0253262 0 7.50684e-05)
(0.028489 0 0.000101343)
(0.0311311 0 0.000133772)
(0.0332986 0 0.00017339)
(0.0350336 0 0.000221305)
(0.0363747 0 0.000278717)
(0.0373574 0 0.000346943)
(0.0380146 0 0.000427412)
(0.0383772 0 0.00052167)
(0.0384741 0 0.000631374)
(0.0383338 0 0.000758249)
(0.0379823 0 0.000904018)
(0.0374449 0 0.00107045)
(0.0367496 0 0.00125906)
(0.0359216 0 0.00147085)
(0.0349853 0 0.00170659)
(0.0339672 0 0.00196626)
(0.0328946 0 0.00224843)
(0.0317958 0 0.00254987)
(0.0307015 0 0.00286523)
(0.0296529 0 0.00318612)
(0.028712 0 0.00349949)
(0.0279525 0 0.00378734)
(0.0274642 0 0.00402726)
(0.027378 0 0.0041927)
(0.0268284 0 0.00434995)
(0 0 0)
(0.00645476 0 1.15591e-05)
(0.0123034 0 2.39535e-05)
(0.0174053 0 3.84474e-05)
(0.0218248 0 5.6339e-05)
(0.0256235 0 7.87545e-05)
(0.028858 0 0.000106744)
(0.0315806 0 0.000141348)
(0.0338389 0 0.000183642)
(0.0356771 0 0.000234768)
(0.0371357 0 0.000295957)
(0.0382522 0 0.000368549)
(0.0390619 0 0.000453994)
(0.0395981 0 0.000553837)
(0.0398917 0 0.000669745)
(0.0399731 0 0.000803411)
(0.0398719 0 0.000956486)
(0.0396159 0 0.00113076)
(0.0392331 0 0.0013277)
(0.038753 0 0.00154836)
(0.0382032 0 0.00179357)
(0.0376082 0 0.00206327)
(0.0369925 0 0.00235605)
(0.0363793 0 0.0026687)
(0.0357903 0 0.00299577)
(0.035244 0 0.00332873)
(0.0347807 0 0.00365388)
(0.0344575 0 0.00395149)
(0.0343385 0 0.00419706)
(0.0345338 0 0.00436214)
(0.0341454 0 0.00452588)
(0 0 0)
(0.00651833 0 1.1442e-05)
(0.0124291 0 2.38301e-05)
(0.0175935 0 3.85065e-05)
(0.0220785 0 5.68203e-05)
(0.0259479 0 7.99344e-05)
(0.0292603 0 0.000108925)
(0.0320698 0 0.000144847)
(0.0344263 0 0.000188784)
(0.0363756 0 0.000241874)
(0.0379604 0 0.000305327)
(0.0392202 0 0.000380455)
(0.0401926 0 0.000468669)
(0.0409124 0 0.000571416)
(0.0414125 0 0.000690235)
(0.041726 0 0.000826741)
(0.0418871 0 0.000982502)
(0.0419278 0 0.00115913)
(0.0418774 0 0.00135803)
(0.0417676 0 0.00158025)
(0.0416288 0 0.00182651)
(0.0414862 0 0.00209675)
(0.0413633 0 0.00238975)
(0.0412793 0 0.00270269)
(0.0412484 0 0.00303046)
(0.0412743 0 0.00336512)
(0.0413638 0 0.00369376)
(0.0415451 0 0.00399577)
(0.0418562 0 0.0042444)
(0.0423744 0 0.00440807)
(0.0421868 0 0.00458839)
(0 0 0)
(0.00658652 0 1.08444e-05)
(0.012564 0 2.27492e-05)
(0.0177954 0 3.71108e-05)
(0.0223503 0 5.52971e-05)
(0.026295 0 7.84775e-05)
(0.0296903 0 0.000107724)
(0.0325922 0 0.000144076)
(0.0350523 0 0.000188591)
(0.0371188 0 0.00024236)
(0.0388362 0 0.000306527)
(0.040246 0 0.000382319)
(0.0413864 0 0.000471018)
(0.0422934 0 0.000573895)
(0.0430052 0 0.000692323)
(0.0435592 0 0.000827776)
(0.0439914 0 0.000981648)
(0.0443375 0 0.00115526)
(0.0446303 0 0.00134974)
(0.0449035 0 0.00156599)
(0.0451892 0 0.00180453)
(0.0455158 0 0.00206527)
(0.0459079 0 0.00234727)
(0.0463831 0 0.00264829)
(0.0469503 0 0.00296418)
(0.0476059 0 0.0032883)
(0.0483243 0 0.00360969)
(0.0490955 0 0.0039085)
(0.0499186 0 0.0041555)
(0.0508162 0 0.00431393)
(0.0509059 0 0.00450585)
(0 0 0)
(0.0066585 0 9.74965e-06)
(0.0127064 0 2.06783e-05)
(0.0180082 0 3.4213e-05)
(0.0226367 0 5.17074e-05)
(0.0266605 0 7.43078e-05)
(0.0301424 0 0.000103052)
(0.0331404 0 0.000138936)
(0.0357081 0 0.000182954)
(0.0378958 0 0.00023612)
(0.03975 0 0.000299458)
(0.0413121 0 0.000374036)
(0.0426207 0 0.000460943)
(0.0437172 0 0.000561276)
(0.0446445 0 0.000676215)
(0.0454423 0 0.000806923)
(0.0461481 0 0.000954452)
(0.0467999 0 0.00111974)
(0.0474346 0 0.00130355)
(0.0480889 0 0.00150639)
(0.0487978 0 0.00172846)
(0.0495936 0 0.00196948)
(0.0505039 0 0.00222862)
(0.0515485 0 0.00250428)
(0.0527355 0 0.00279366)
(0.0540559 0 0.00309209)
(0.0554706 0 0.00339188)
(0.0569304 0 0.00367627)
(0.0583676 0 0.00391475)
(0.0597194 0 0.00406315)
(0.0601873 0 0.00425513)
(0 0 0)
(0.00673335 0 8.15074e-06)
(0.0128543 0 1.76041e-05)
(0.0182293 0 2.97952e-05)
(0.0229341 0 4.6031e-05)
(0.0270394 0 6.74053e-05)
(0.0306105 0 9.48945e-05)
(0.033707 0 0.00012942)
(0.0363845 0 0.000171886)
(0.0386953 0 0.000223206)
(0.0406867 0 0.000284216)
(0.0423993 0 0.000355769)
(0.0438757 0 0.00043877)
(0.0451632 0 0.000534101)
(0.0463053 0 0.000642617)
(0.0473426 0 0.000765083)
(0.0483155 0 0.000902128)
(0.0492644 0 0.0010542)
(0.0502291 0 0.00122152)
(0.0512494 0 0.00140404)
(0.0523639 0 0.00160136)
(0.0536089 0 0.00181276)
(0.0550166 0 0.00203714)
(0.0566119 0 0.00227314)
(0.058408 0 0.00251908)
(0.0603986 0 0.00277278)
(0.0625494 0 0.00303111)
(0.0647784 0 0.00328446)
(0.0669418 0 0.00350602)
(0.0688515 0 0.00364374)
(0.0698734 0 0.00383246)
(0 0 0)
(0.00681015 0 6.05022e-06)
(0.0130061 0 1.3533e-05)
(0.018456 0 2.38699e-05)
(0.0232385 0 3.82896e-05)
(0.027427 0 5.78062e-05)
(0.0310885 0 8.33082e-05)
(0.0342844 0 0.000115616)
(0.0370721 0 0.000155519)
(0.0395053 0 0.000203796)
(0.0416311 0 0.000261085)
(0.0434916 0 0.000327976)
(0.0451348 0 0.000405156)
(0.0466096 0 0.000493229)
(0.0479593 0 0.000592663)
(0.0492263 0 0.000703781)
(0.0504529 0 0.000826705)
(0.0516812 0 0.000961298)
(0.0529534 0 0.00110711)
(0.0543115 0 0.00126333)
(0.0557967 0 0.00142875)
(0.0574489 0 0.00160175)
(0.0593047 0 0.00178044)
(0.0613953 0 0.00196283)
(0.0637426 0 0.0021473)
(0.0663524 0 0.00233324)
(0.0692058 0 0.00252214)
(0.072215 0 0.00271622)
(0.0751936 0 0.00290516)
(0.0778034 0 0.00303897)
(0.0797964 0 0.00325524)
(0 0 0)
(0.00688796 0 3.46013e-06)
(0.0131597 0 8.4904e-06)
(0.0186853 0 1.64791e-05)
(0.0235463 0 2.85463e-05)
(0.0278183 0 4.56014e-05)
(0.0315702 0 6.84218e-05)
(0.0348652 0 9.77039e-05)
(0.0377617 0 0.000134094)
(0.0403145 0 0.000178207)
(0.0425707 0 0.000230514)
(0.0445757 0 0.000291319)
(0.0463807 0 0.000360992)
(0.0480341 0 0.000439844)
(0.0495797 0 0.000527935)
(0.051061 0 0.000625115)
(0.0525214 0 0.000730952)
(0.0540038 0 0.000844665)
(0.0555511 0 0.000965052)
(0.0572062 0 0.00109042)
(0.0590112 0 0.00121853)
(0.061007 0 0.00134654)
(0.0632325 0 0.00147111)
(0.065722 0 0.00158854)
(0.0685034 0 0.0016953)
(0.0715931 0 0.00178908)
(0.0749876 0 0.00187154)
(0.0786266 0 0.00195386)
(0.0823406 0 0.00205889)
(0.085735 0 0.00218524)
(0.089803 0 0.00257633)
(0 0 0)
(0.00696631 0 3.87029e-07)
(0.0133145 0 2.47858e-06)
(0.0189161 0 7.62224e-06)
(0.0238557 0 1.68107e-05)
(0.0282112 0 3.08182e-05)
(0.0320531 0 5.0291e-05)
(0.035446 0 7.57813e-05)
(0.0384492 0 0.00010777)
(0.0411181 0 0.000146677)
(0.043501 0 0.0001928)
(0.0456464 0 0.00024619)
(0.0476062 0 0.000306866)
(0.0494277 0 0.000374789)
(0.0511554 0 0.000449621)
(0.0528329 0 0.00053073)
(0.0545035 0 0.000617126)
(0.0562097 0 0.000707376)
(0.0579937 0 0.000799516)
(0.0598968 0 0.000890949)
(0.0619594 0 0.000978342)
(0.0642201 0 0.0010575)
(0.0667144 0 0.00112327)
(0.0694732 0 0.00116949)
(0.0725199 0 0.00118882)
(0.0758661 0 0.00117266)
(0.0795013 0 0.00111116)
(0.0833674 0 0.000993)
(0.087313 0 0.000798759)
(0.0910509 0 0.000444948)
(0.0998252 0 0.00184571)
(0 0 0)
(0.00171488 0 0)
(0.00328898 0 0)
(0.00573256 0 0)
(0.0088355 0 0)
(0.0123884 0 0)
(0.0161931 0 0)
(0.0200728 0 0)
(0.0238783 0 0)
(0.0274917 0 0)
(0.0308242 0 0)
(0.0338133 0 0)
(0.0364178 0 0)
(0.0386114 0 0)
(0.0403778 0 0)
(0.0417066 0 0)
(0.0425902 0 0)
(0.0430217 0 0)
(0.0429931 0 0)
(0.0424942 0 0)
(0.041512 0 0)
(0.0400302 0 0)
(0.0380288 0 0)
(0.0354844 0 0)
(0.0323698 0 0)
(0.0286546 0 0)
(0.0243049 0 0)
(0.0192845 0 0)
(0.0135553 0 0)
(0.00707613 0 0)
(0 0 0)
(0.000748654 0 -0.000891782)
(0.00231407 0 -0.000875683)
(0.00387949 0 -0.00088327)
(0.0063076 0 -0.000888564)
(0.00938893 0 -0.000890406)
(0.0129137 0 -0.00088656)
(0.0166841 0 -0.000875381)
(0.0205245 0 -0.000856281)
(0.0242875 0 -0.000829656)
(0.027857 0 -0.000796604)
(0.0311461 0 -0.000758584)
(0.0340937 0 -0.000717152)
(0.0366598 0 -0.000673766)
(0.0388187 0 -0.000629653)
(0.0405542 0 -0.000585754)
(0.0418559 0 -0.000542734)
(0.0427161 0 -0.00050102)
(0.0431275 0 -0.000460844)
(0.0430817 0 -0.000422284)
(0.0425682 0 -0.000385296)
(0.0415737 0 -0.000349746)
(0.0400813 0 -0.00031543)
(0.038071 0 -0.000282085)
(0.035519 0 -0.000249394)
(0.0323979 0 -0.00021699)
(0.028677 0 -0.000184445)
(0.0243223 0 -0.000151266)
(0.0192974 0 -0.000116878)
(0.0135639 0 -8.05977e-05)
(0.00708042 0 -4.15971e-05)
(0 0 0)
(0.00254101 0 -0.00174084)
(0.00406752 0 -0.00173798)
(0.00562299 0 -0.00175768)
(0.00801402 0 -0.00177173)
(0.011035 0 -0.00177712)
(0.0144775 0 -0.00176976)
(0.0181461 0 -0.00174691)
(0.0218692 0 -0.00170785)
(0.025505 0 -0.00165372)
(0.0289432 0 -0.00158692)
(0.0321027 0 -0.00151045)
(0.0349267 0 -0.00142744)
(0.0373783 0 -0.00134077)
(0.0394338 0 -0.00125285)
(0.0410775 0 -0.00116549)
(0.0422988 0 -0.00107995)
(0.0430894 0 -0.000997064)
(0.043441 0 -0.000917249)
(0.0433442 0 -0.000840643)
(0.0427874 0 -0.000767147)
(0.041756 0 -0.00069649)
(0.0402324 0 -0.000628261)
(0.0381957 0 -0.000561936)
(0.0356212 0 -0.000496888)
(0.0324808 0 -0.000432383)
(0.0287432 0 -0.000367575)
(0.0243738 0 -0.000301484)
(0.0193356 0 -0.000232964)
(0.0135894 0 -0.000160659)
(0.00709338 0 -8.29205e-05)
(0 0 0)
(0.00542342 0 -0.00257227)
(0.00690005 0 -0.00258686)
(0.00845749 0 -0.00262257)
(0.0108006 0 -0.00264858)
(0.0137292 0 -0.00265879)
(0.0170389 0 -0.00264741)
(0.0205402 0 -0.00261124)
(0.0240697 0 -0.00255019)
(0.0274955 0 -0.00246667)
(0.0307175 0 -0.00236468)
(0.033664 0 -0.00224893)
(0.0362855 0 -0.00212408)
(0.0385501 0 -0.00199436)
(0.0404368 0 -0.00186327)
(0.041931 0 -0.00173332)
(0.0430214 0 -0.00160629)
(0.0436986 0 -0.00148329)
(0.0439529 0 -0.0013649)
(0.0437729 0 -0.00125126)
(0.0431453 0 -0.00114221)
(0.0420539 0 -0.00103731)
(0.0404794 0 -0.00093596)
(0.0383994 0 -0.000837376)
(0.0357881 0 -0.000740624)
(0.0326162 0 -0.00064462)
(0.0288513 0 -0.000548106)
(0.0244579 0 -0.000449628)
(0.0193979 0 -0.000347483)
(0.0136311 0 -0.000239659)
(0.00711457 0 -0.000123702)
(0 0 0)
(0.00931537 0 -0.00340021)
(0.0107447 0 -0.00343069)
(0.0123134 0 -0.00348359)
(0.0146003 0 -0.00352224)
(0.0174076 0 -0.00353623)
(0.0205362 0 -0.00351815)
(0.0238062 0 -0.00346512)
(0.0270676 0 -0.00337852)
(0.0302031 0 -0.00326264)
(0.0331275 0 -0.00312335)
(0.0357822 0 -0.00296719)
(0.0381276 0 -0.00280023)
(0.0401383 0 -0.00262794)
(0.0417968 0 -0.00245471)
(0.0430887 0 -0.00228357)
(0.0440023 0 -0.00211658)
(0.0445265 0 -0.00195507)
(0.0446491 0 -0.00179967)
(0.0443567 0 -0.0016505)
(0.0436332 0 -0.00150727)
(0.0424603 0 -0.00136942)
(0.0408166 0 -0.00123611)
(0.0386778 0 -0.00110632)
(0.0360164 0 -0.000978826)
(0.0328015 0 -0.000852203)
(0.0289994 0 -0.000724803)
(0.0245731 0 -0.000594711)
(0.0194832 0 -0.00045969)
(0.0136883 0 -0.000317091)
(0.00714362 0 -0.000163683)
(0 0 0)
(0.0141388 0 -0.00422909)
(0.015527 0 -0.00427881)
(0.0171148 0 -0.00434853)
(0.0193366 0 -0.00439757)
(0.0219923 0 -0.00441091)
(0.0248901 0 -0.00438041)
(0.027864 0 -0.00430454)
(0.0307838 0 -0.00418721)
(0.033552 0 -0.00403504)
(0.0361018 0 -0.00385584)
(0.0383926 0 -0.0036581)
(0.0403955 0 -0.00344896)
(0.0420931 0 -0.00323492)
(0.0434717 0 -0.00302116)
(0.0445159 0 -0.00281074)
(0.0452128 0 -0.00260589)
(0.0455493 0 -0.002408)
(0.0455106 0 -0.00221767)
(0.04508 0 -0.00203493)
(0.0442386 0 -0.00185935)
(0.0429653 0 -0.00169019)
(0.0412361 0 -0.00152643)
(0.0390246 0 -0.0013668)
(0.0363009 0 -0.00120982)
(0.0330327 0 -0.00105372)
(0.0291842 0 -0.000896497)
(0.0247169 0 -0.000735799)
(0.0195898 0 -0.000568877)
(0.0137597 0 -0.000392475)
(0.00717991 0 -0.000202618)
(0 0 0)
(0.0198096 0 -0.00507174)
(0.0211739 0 -0.00514224)
(0.0227861 0 -0.00522604)
(0.024928 0 -0.00527918)
(0.027394 0 -0.00528313)
(0.0300056 0 -0.00523094)
(0.0326152 0 -0.00512365)
(0.035115 0 -0.00496807)
(0.0374372 0 -0.00477426)
(0.039542 0 -0.00455244)
(0.041407 0 -0.00431251)
(0.0430148 0 -0.00406239)
(0.0443537 0 -0.00380873)
(0.0454108 0 -0.00355684)
(0.04617 0 -0.00330972)
(0.0466177 0 -0.00306962)
(0.0467386 0 -0.00283804)
(0.046514 0 -0.00261534)
(0.0459241 0 -0.00240142)
(0.0449464 0 -0.00219568)