/*--------------------------------*- C++ -*----------------------------------*\
| =========                 |                                                 |
| \\      /  F ield         | OpenFOAM: The Open Source CFD Toolbox           |
|  \\    /   O peration     | Version:  dev                                   |
|   \\  /    A nd           | Web:      www.OpenFOAM.org                      |
|    \\/     M anipulation  |                                                 |
\*---------------------------------------------------------------------------*/
FoamFile
{
    version     2.0;
    format      ascii;
    class       volScalarField;
    location    "2";
    object      p;
}
// * * * * * * * * * * * * * * * * * * * * * * * * * * * * * * * * * * * * * //

dimensions      [0 2 -2 0 0 0 0];

internalField   nonuniform List<scalar> 
2790
(
77.7835
77.6146
77.7259
78.0592
78.5231
79.0883
79.7543
80.5234
81.3958
82.3714
83.4511
84.6366
85.93
87.3332
88.848
90.4755
92.2161
94.0686
96.0299
98.0937
100.25
102.482
104.766
107.071
109.352
111.554
113.605
115.42
116.896
117.877
77.6331
77.5588
77.6902
78.0216
78.4837
79.0476
79.7113
80.4769
81.3447
82.3149
83.388
84.5658
85.8503
87.2432
88.7462
90.3603
92.0859
93.9218
95.8647
97.909
100.045
102.257
104.523
106.813
109.086
111.287
113.35
115.189
116.701
117.771
77.4951
77.4944
77.6437
77.9675
78.4214
78.9782
79.6335
80.3886
81.244
82.1993
83.2551
84.4126
85.6732
87.0382
88.5086
90.0847
91.7659
93.55
95.4329
97.4079
99.4644
101.587
103.753
105.932
108.084
110.152
112.063
113.713
114.937
115.167
77.357
77.3952
77.5584
77.8763
78.3212
78.8691
79.5137
80.2554
81.0943
82.03
83.0626
84.1927
85.421
86.7479
88.1734
89.6966
91.3153
93.0259
94.8224
96.6959
98.6334
100.616
102.62
104.608
106.533
108.323
109.875
111.004
111.5
109.643
77.2099
77.269
77.4447
77.7594
78.1951
78.7318
79.3626
80.087
80.9048
81.8153
82.8181
83.9131
85.1003
86.3792
87.7482
89.205
90.7457
92.3645
94.0531
95.7994
97.587
99.3927
101.185
102.919
104.531
105.926
106.947
107.28
106.858
102.254
77.0494
77.1202
77.3045
77.6157
78.0406
78.5631
79.1766
79.8799
80.6722
81.5525
82.5199
83.5735
84.7122
85.9344
87.2372
88.6165
90.0667
91.5793
93.1429
94.742
96.3555
97.9543
99.4981
100.93
102.167
103.078
103.464
102.838
101.552
94.2698
76.8734
76.9507
77.1396
77.446
77.8587
78.3648
78.9582
79.6371
80.4002
81.2458
82.1725
83.1787
84.2622
85.42
86.6479
87.9401
89.2886
90.6825
92.1071
93.5428
94.9634
96.3327
97.6011
98.6974
99.5173
99.897
99.6092
97.9643
95.978
86.517
76.6807
76.7616
76.9515
77.2515
77.6507
78.1383
78.7089
79.3602
80.0903
80.8971
81.7783
82.7316
83.7539
84.8405
85.986
87.1826
88.4201
89.6849
90.9591
92.219
93.4324
94.5561
95.5306
96.2709
96.6532
96.4838
95.5336
92.8839
90.3586
79.3261
76.4711
76.5534
76.7419
77.0336
77.4177
77.8849
78.4302
79.051
79.7448
80.5089
81.3403
82.2359
83.1915
84.2012
85.2577
86.3517
87.4706
88.5982
89.7132
90.7874
91.7836
92.6513
93.3214
93.6964
93.6362
92.9196
91.3407
87.7415
84.7828
72.6783
76.2446
76.3271
76.512
76.7936
77.161
77.6059
78.1237
78.7114
79.3659
80.0839
80.8619
81.6957
82.5799
83.5076
84.47
85.4558
86.4501
87.4342
88.3834
89.2657
90.0384
90.6445
91.0063
91.0151
90.5175
89.2667
87.0954
82.6127
79.2415
66.3653
76.0016
76.0834
76.263
76.5328
76.8821
77.3031
77.7914
78.3435
78.9561
79.6253
80.3466
81.115
81.9242
82.766
83.63
84.5032
85.3686
86.2049
86.9845
87.6712
88.2178
88.561
88.6155
88.2628
87.3383
85.5696
82.8317
77.5241
73.6586
60.0833
75.743
75.8233
75.9961
76.2528
76.5825
76.9781
77.435
77.9498
78.5183
79.136
79.798
80.4984
81.2296
81.9823
82.7449
83.5025
84.2363
84.9225
85.5306
86.0211
86.3422
86.4253
86.1781
85.4729
84.1347
81.8653
78.5662
72.4761
67.912
53.4725
75.4693
75.5476
75.7126
75.9548
76.2638
76.6326
77.0568
77.5324
78.0549
78.6193
79.2199
79.8499
80.501
81.1627
81.8219
82.4623
83.0634
83.599
84.0361
84.3322
84.4317
84.2611
83.722
82.6776
80.942
78.1891
74.3119
67.4634
61.8532
46.0864
75.1817
75.2575
75.4137
75.6404
75.9275
76.2684
76.6586
77.0936
77.5687
78.0783
78.6159
79.1742
79.7437
80.3131
80.8682
81.391
81.8595
82.2459
82.5148
82.621
82.5057
82.0915
81.2746
79.9094
77.7975
74.5845
70.1119
62.53
55.3934
37.3111
74.881
74.9541
75.1008
75.311
75.5754
75.8875
76.2426
76.636
77.0626
77.5163
77.9901
78.4758
78.9633
79.4402
79.8912
80.2975
80.6356
80.8759
80.9814
80.9048
80.5849
79.9411
78.8652
77.2049
74.7497
71.1253
66.0938
57.8858
48.8439
26.2619
-1.31303
-1.31022
-1.33028
-1.40049
-1.53221
-1.69465
-1.85117
-1.98598
-2.0959
-2.18164
-2.24384
-2.28145
-2.2927
-2.27697
-2.23409
-2.16142
-2.05464
-1.9132
-1.74294
-1.54976
-1.33383
-1.09451
-0.837154
-0.573679
-0.318715
-0.0895833
0.0922914
0.204612
0.226638
0.144204
-1.3163
-1.31578
-1.3399
-1.41345
-1.54678
-1.70839
-1.86334
-1.99696
-2.10629
-2.19202
-2.25459
-2.29263
-2.304
-2.28838
-2.24648
-2.17513
-2.06809
-1.92433
-1.75241
-1.5598
-1.34403
-1.10175
-0.83877
-0.569029
-0.306719
-0.0676276
0.123461
0.241497
0.26333
0.159237
-1.32101
-1.3229
-1.35406
-1.43459
-1.57163
-1.73228
-1.8847
-2.01641
-2.12479
-2.21035
-2.27317
-2.31147
-2.32248
-2.30641
-2.26577
-2.19634
-2.08827
-1.9398
-1.76491
-1.57414
-1.36069
-1.11426
-0.840548
-0.559832
-0.293461
-0.0520044
0.14208
0.254281
0.263755
0.140249
-1.32632
-1.33034
-1.371
-1.46153
-1.6036
-1.76307
-1.91235
-2.04171
-2.14888
-2.23403
-2.29697
-2.33556
-2.34563
-2.32784
-2.28811
-2.22116
-2.10989
-1.951
-1.76897
-1.58181
-1.37518
-1.13295
-0.860505
-0.579215
-0.310643
-0.0705956
0.11735
0.225604
0.230096
0.104765
-1.33149
-1.3368
-1.38901
-1.49166
-1.639
-1.79696
-1.94295
-2.07002
-2.176
-2.26069
-2.32375
-2.36256
-2.37043
-2.34638
-2.3006
-2.23881
-2.13977
-1.98371
-1.79111
-1.58972
-1.37791
-1.14232
-0.88326
-0.61573
-0.358456
-0.131497
0.0448975
0.148869
0.15316
0.0592183
-1.3352
-1.3403
-1.40576
-1.52152
-1.67358
-1.82994
-1.97311
-2.09853
-2.20443
-2.28811
-2.34959
-2.38933
-2.40308
-2.38233
-2.32925
-2.25191
-2.14403
-1.99453
-1.81152
-1.61184
-1.39998
-1.1716
-0.927989
-0.67964
-0.441496
-0.231133
-0.0655714
0.0344096
0.0508335
0.0138893
-1.33546
-1.33803
-1.41817
-1.54681
-1.70273
-1.85903
-2.00206
-2.12681
-2.23598
-2.3271
-2.39268
-2.42895
-2.4356
-2.41108
-2.35575
-2.27197
-2.15712
-2.00859
-1.8331
-1.64108
-1.43693
-1.22066
-0.995235
-0.76905
-0.553631
-0.361053
-0.204654
-0.102488
-0.0601034
-0.0298309
-1.32864
-1.32651
-1.42271
-1.56483
-1.72726
-1.88637
-2.03587
-2.17072
-2.28412
-2.37543
-2.44166
-2.47791
-2.48142
-2.45141
-2.38981
-2.29916
-2.17953
-2.03194
-1.86254
-1.67915
-1.48622
-1.28578
-1.08145
-0.879721
-0.688352
-0.513673
-0.364465
-0.253184
-0.174158
-0.0725429
-1.30842
-1.3036
-1.42019
-1.58017
-1.75478
-1.92733
-2.08578
-2.22623
-2.34656
-2.44272
-2.51016
-2.54443
-2.54296
-2.50564
-2.4354
-2.33631
-2.21136
-2.06402
-1.90006
-1.72581
-1.54581
-1.36324
-1.18176
-1.00584
-0.839181
-0.683057
-0.539966
-0.414118
-0.290875
-0.115305
-1.26598
-1.27256
-1.41925
-1.60472
-1.79892
-1.98398
-2.15449
-2.30551
-2.43341
-2.53397
-2.60198
-2.63261
-2.62345
-2.57561
-2.49379
-2.38426
-2.25264
-2.10406
-1.94412
-1.77837
-1.61145
-1.44724
-1.28933
-1.14029
-0.999976
-0.864742
-0.728816
-0.585684
-0.412719
-0.159805
-1.19713
-1.24187
-1.43164
-1.64835
-1.86436
-2.06825
-2.25348
-2.41542
-2.55027
-2.65389
-2.72075
-2.74532
-2.72506
-2.66252
-2.56514
-2.44223
-2.30184
-2.15004
-1.99208
-1.83303
-1.6778
-1.53107
-1.39665
-1.27594
-1.16545
-1.05553
-0.931303
-0.77182
-0.544884
-0.208584
-1.11092
-1.22163
-1.46806
-1.72209
-1.96686
-2.19218
-2.39183
-2.56231
-2.70133
-2.80554
-2.86901
-2.88469
-2.84909
-2.76646
-2.64827
-2.50806
-2.3562
-2.19888
-2.0404
-1.88535
-1.73919
-1.60779
-1.49606
-1.40542
-1.33013
-1.25408
-1.15026
-0.979713
-0.695972
-0.265169
-1.01193
-1.23323
-1.549
-1.84726
-2.12349
-2.36804
-2.57683
-2.75
-2.8885
-2.99019
-3.04797
-3.0518
-2.99596
-2.88643
-2.74065
-2.57839
-2.41229
-2.2472
-2.08549
-1.93105
-1.79021
-1.67073
-1.5799
-1.52108
-1.48822
-1.45895
-1.38981
-1.22045
-0.878587
-0.334381
-0.946074
-1.31313
-1.70713
-2.05099
-2.35386
-2.60761
-2.81363
-2.97912
-3.11008
-3.20579
-3.25653
-3.24672
-3.16571
-3.02073
-2.83854
-2.6489
-2.46641
-2.29196
-2.12437
-1.96668
-1.82645
-1.71412
-1.6408
-1.61439
-1.63166
-1.66593
-1.65632
-1.50582
-1.10773
-0.423137
-1.35872
-1.52556
-1.99278
-2.35436
-2.66657
-2.90824
-3.09076
-3.23416
-3.35101
-3.44085
-3.48863
-3.46865
-3.3596
-3.1682
-2.93742
-2.71491
-2.51562
-2.33145
-2.15591
-1.99133
-1.84664
-1.73531
-1.67371
-1.67745
-1.75104
-1.86772
-1.94694
-1.8475
-1.40684
-0.542
74.5625
74.6324
74.7688
74.9615
75.2019
75.4839
75.8025
76.1529
76.5294
76.9255
77.3338
77.7453
78.1491
78.5323
78.8785
79.168
79.376
79.472
79.4175
79.1636
78.6474
77.7869
76.4715
74.5457
71.794
67.8462
62.3999
53.8891
43.2946
11.6865
74.2224
74.2887
74.4139
74.588
74.8032
75.0536
75.3341
75.6395
75.964
76.3006
76.6414
76.9768
77.2954
77.5835
77.8241
77.9967
78.0759
78.0301
77.8202
77.3967
76.6964
75.6377
74.1115
71.9669
68.9998
64.8827
59.345
51.2876
42.1526
35.5985
73.8632
73.9256
74.0389
74.1934
74.3823
74.5999
74.841
75.1002
75.3714
75.6473
75.9195
76.178
76.4109
76.6039
76.7397
76.7973
76.7508
76.5685
76.211
75.6295
74.7623
73.5306
71.8326
69.5323
66.457
62.3664
57.1462
50.4565
43.617
40.9267
73.4855
73.5437
73.6444
73.7785
73.9401
74.124
74.3248
74.5369
74.7539
74.9684
75.1715
75.353
75.5005
75.5994
75.6324
75.5781
75.4108
75.099
74.6042
73.8795
72.8663
71.4921
69.6679
67.2808
64.2027
60.2913
55.5411
49.8862
43.4696
37.7265
73.0901
73.1437
73.2313
73.3443
73.4779
73.6273
73.7871
73.9515
74.1138
74.2665
74.4007
74.5058
74.5691
74.576
74.5092
74.3477
74.0661
73.6337
73.0141
72.1638
71.0284
69.5452
67.6414
65.2301
62.2266
58.5561
54.2282
49.2189
43.4374
37.8679
72.6779
72.7266
72.8007
72.8919
72.9969
73.1113
73.2297
73.3461
73.4537
73.545
73.611
73.6408
73.6219
73.5397
73.3774
73.1145
72.7264
72.184
71.4542
70.4972
69.2647
67.706
65.7645
63.378
60.495
57.0802
53.147
48.7228
43.8252
39.0586
72.25
72.2936
72.3538
72.4229
72.4989
72.578
72.6548
72.7232
72.7765
72.8072
72.8063
72.7628
72.6643
72.4968
72.2442
71.8869
71.4013
70.7609
69.9365
68.892
67.587
65.9834
64.0389
61.712
58.9745
55.8158
52.2574
48.3457
44.1198
39.8913
71.8079
71.8461
71.892
71.9388
71.9856
72.0294
72.0648
72.0855
72.0852
72.0567
71.9907
71.8766
71.702
71.4537
71.117
70.6731
70.0997
69.3741
68.4708
67.3577
66.0036
64.3812
62.4605
60.2158
57.6346
54.7205
51.4975
48.0074
44.2882
40.5343
71.3529
71.3856
71.417
71.4414
71.4591
71.4678
71.4622
71.4361
71.3833
71.2972
71.1686
70.987
70.7404
70.4168
70.0029
69.4806
68.8298
68.032
67.0649
65.9014
64.5191
62.899
61.0213
58.8719
56.4483
53.7607
50.8332
47.7027
44.4089
41.0894
70.887
70.9139
70.9307
70.9327
70.9217
70.8956
70.8498
70.778
70.6744
70.5329
70.3445
70.099
69.7851
69.3922
68.9082
68.3163
67.5989
66.7416
65.7252
64.5279
63.1345
61.5332
59.7118
57.6639
55.3931
52.9128
50.2465
47.4273
44.4923
41.5423
70.4121
70.4329
70.4352
70.415
70.3757
70.3157
70.2306
70.1145
69.9623
69.7678
69.5226
69.2174
68.8415
68.3855
67.8391
67.1863
66.413
65.5081
64.4558
63.2393
61.849
60.2787
58.5215
56.5764
54.4505
52.1586
49.7227
47.1716
44.5378
41.8979
69.9303
69.945
69.9328
69.8908
69.8237
69.7308
69.6077
69.4492
69.2506
69.0058
68.7075
68.3472
67.9146
67.402
66.8007
66.0962
65.277
64.3354
63.2591
62.0357
60.6598
59.1286
57.4397
55.5954
53.605
51.4832
49.2498
46.9299
44.5509
42.1728
69.444
69.4525
69.426
69.3626
69.2685
69.1438
68.9844
68.7855
68.543
68.2512
67.9038
67.4929
67.0092
66.4465
65.7976
65.0502
64.195
63.2265
62.1363
60.916
59.5626
58.0757
56.4563
54.7092
52.8442
50.875
48.8196
46.6994
44.5374
42.3808
68.9557
68.9579
68.9175
68.8332
68.7131
68.558
68.3642
68.1272
67.8435
67.5081
67.1156
66.6587
66.1296
65.5235
64.834
64.0517
63.1693
62.1831
61.0877
59.8777
58.5523
57.1128
55.5624
53.9073
52.1572
50.3247
48.4256
46.4783
44.5018
42.5336
68.4682
68.4642
68.4101
68.3056
68.1604
67.9766
67.7505
67.4779
67.1558
66.7805
66.3469
65.8486
65.2798
64.6367
63.9136
63.1036
62.2019
61.2058
60.1118
58.9177
57.6239
56.233
54.7496
53.1806
51.5352
49.8248
48.0631
46.2658
44.4483
42.6409
67.9843
67.9744
67.9069
67.7825
67.6139
67.4032
67.1469
66.8412
66.4837
66.0719
65.6014
65.0667
64.4637
63.7894
63.0393
62.2085
61.2939
60.2937
59.2067
58.0325
56.7725
55.4301
54.0106
52.5214
50.9708
49.3691
47.7282
46.061
44.3806
42.7111
67.5073
67.4915
67.411
67.2675
67.0769
66.8413
66.557
66.2207
65.831
65.3862
64.8828
64.3167
63.6849
62.9848
62.2133
61.3673
60.4452
59.4461
58.3702
57.2186
55.9934
54.6982
53.3388
51.9229
50.4581
48.9531
47.4181
45.8642
44.302
42.7513
67.0408
67.0185
66.9254
66.7645
66.5531
66.2942
65.9841
65.6198
65.201
64.7272
64.1951
63.6022
62.9461
62.2252
61.4373
60.5811
59.6557
58.6616
57.5998
56.4724
55.2821
54.0322
52.7288
51.3799
49.9921
48.5728
47.1308
45.6755
44.2157
42.7675
66.5883
66.5589
66.4534
66.2765
66.0462
65.7658
65.4318
65.0423
64.598
64.0985
63.5419
62.926
62.2499
61.5123
60.7126
59.8501
58.9253
57.939
56.8931
55.7904
54.634
53.4273
52.1763
50.8881
49.569
48.2254
46.865
45.4956
44.1245
42.765
66.1534
66.1163
65.9985
65.8073
65.56
65.2597
64.9039
64.4922
64.0255
63.5037
62.9258
62.2908
61.5984
60.8482
60.0402
59.1749
58.2532
57.2768
56.2481
55.1699
54.0458
52.8796
51.6769
50.4436
49.1856
47.9089
46.62
45.3253
44.0311
42.7483
65.7393
65.6945
65.5651
65.3612
65.0982
64.7797
64.4046
63.9733
63.4868
62.9457
62.3499
61.6992
60.9938
60.2342
59.4211
58.5554
57.639
56.6738
55.6625
54.6084
53.5148
52.386
51.227
50.0429
48.8393
47.6215
46.395
45.1653
43.9377
42.7212
65.3494
65.2975
65.1577
64.942
64.6645
64.3297
63.9375
63.4889
62.9853
62.4279
61.8172
61.1537
60.4383
59.672
58.8561
57.9921
57.0822
56.1288
55.1349
54.1037
53.0387
51.944
50.8242
49.6841
48.5285
47.3622
46.1901
45.0168
43.8469
42.6877
64.9879
64.9297
64.7804
64.5534
64.2628
63.9135
63.5063
63.0427
62.5246
61.9534
61.3304
60.6568
59.9338
59.1629
58.3461
57.4851
56.5826
55.6411
54.6639
53.654
52.6152
51.5513
50.4665
49.3652
48.2518
47.1304
46.0053
44.8807
43.7603
42.6502
64.6592
64.5954
64.4371
64.1995
63.8971
63.535
63.1149
62.6385
62.108
61.5255
60.8926
60.211
59.4824
58.7089
57.8924
57.0354
56.1406
55.2108
54.2491
53.2589
52.2436
51.2071
50.1532
49.0858
48.0089
46.9263
45.8417
44.7587
43.6807
42.6127
64.3684
64.2989
64.1319
63.8843
63.5713
63.1983
62.767
62.2797
61.7389
61.147
60.5062
59.8184
59.0859
58.3108
57.4957
56.643
55.7557
54.8368
53.8893
52.9167
51.9222
50.9096
49.8824
48.8442
47.7985
46.7489
45.6986
44.6509
43.6085
42.5758
64.1205
64.0452
63.8692
63.612
63.2898
62.9076
62.4671
61.9709
61.4218
60.8225
60.1756
59.4833
58.7482
57.9726
57.1593
56.3111
55.4308
54.5217
53.5868
52.6295
51.6529
50.6607
49.6561
48.6425
47.6231
46.6011
45.5795
44.5611
43.5485
42.5454
63.9217
63.8391
63.6527
63.3862
63.0557
62.6654
62.2171
61.7134
61.1576
60.5525
59.901
59.2054
58.4686
57.6931
56.8819
56.0378
55.1639
54.2632
53.339
52.3944
51.4328
50.4573
49.4712
48.4775
47.4793
46.4795
45.4809
44.4859
43.4969
42.5169
63.7797
63.6852
63.4871
63.2134
62.8773
62.4812
62.0268
61.5174
60.9565
60.3471
59.6921
58.9942
58.2563
57.4811
56.6718
55.8312
54.9624
54.0686
53.1529
52.2185
51.2685
50.3062
49.3346
48.3566
47.375
46.3925
45.4118
44.4352
43.465
42.5037
63.707
63.5817
63.3654
63.0861
62.747
62.3473
61.889
61.3761
60.8123
60.2005
59.5437
58.8448
58.1067
57.3323
56.5246
55.6867
54.8218
53.9329
53.0232
52.0958
51.1539
50.2005
49.2386
48.271
47.3003
46.3293
45.3604
44.3957
43.4374
42.4876
63.7332
63.555
63.3159
63.0305
62.6879
62.2844
61.8227
61.3071
60.7411
60.1278
59.47
58.7706
58.0325
57.2589
56.4526
55.6169
54.7547
53.8692
52.9636
52.0409
51.1042
50.1566
49.2009
48.2399
47.2761
46.3121
45.3503
44.3928
43.4416
42.4983
-77.7992
-49.4479
-21.0918
27.7818
24.1098
20.4797
31.0337
22.2729
16.8945
28.4164
22.7197
19.1758
31.6828
27.5341
24.3341
34.1728
30.6917
27.8283
35.7054
32.7721
30.3433
36.9495
34.4636
32.392
37.9837
35.8343
34.0352
38.8129
36.9269
35.3447
39.4753
37.8037
36.398
40.0043
38.5094
37.2493
40.4245
39.0767
37.938
40.7556
39.5316
38.4953
41.0141
39.895
38.9457
41.2134
40.1838
39.3088
41.3642
40.4113
39.6001
41.4756
40.5888
39.8326
41.5552
40.7255
40.0167
41.6095
40.8291
40.1614
41.6439
40.9061
40.2739
41.6633
40.9624
40.3608
41.6714
41.0021
40.4268
41.6729
41.0306
40.4777
41.6686
41.0491
40.5152
41.6657
41.0652
40.5466
41.6586
41.0732
40.5674
41.663
41.0892
40.5925
41.6578
41.0922
40.6026
41.6809
41.1241
40.6386
3.29107
-0.544675
-2.50146
-2.88254
-3.1985
-3.36662
-3.47017
-3.55786
-3.64645
-3.72856
-3.77604
-3.74488
-3.59462
-3.33166
-3.03025
-2.76864
-2.55494
-2.3615
-2.17588
-2.00149
-1.84809
-1.73094
-1.672
-1.69777
-1.82715
-2.04114
-2.24271
-2.237
-1.76221
-0.692243
12.5683
1.56425
-2.25313
-2.82147
-2.95042
-3.11998
-3.31611
-3.51276
-3.70065
-3.86246
-3.96338
-3.95155
-3.77452
-3.4499
-3.1004
-2.82535
-2.60806
-2.40098
-2.19767
-2.00879
-1.84424
-1.71633
-1.6495
-1.68597
-1.8687
-2.19331
-2.54163
-2.62391
-2.0587
-0.772744
11.1979
4.24688
0.861492
-0.455977
-1.283
-2.02105
-2.63437
-3.10653
-3.46619
-3.73228
-3.89479
-3.92157
-3.78836
-3.52369
-3.20108
-2.8841
-2.60076
-2.35097
-2.13599
-1.95572
-1.79965
-1.66421
-1.58246
-1.62843
-1.87672
-2.33341
-2.84602
-2.88687
-2.11021
-0.709547
14.9972
9.97531
6.22483
3.69272
1.86943
0.447882
-0.663115
-1.51417
-2.16027
-2.63892
-2.96022
-3.11784
-3.11212
-2.97204
-2.75319
-2.51462
-2.29368
-2.09847
-1.92702
-1.77756
-1.64988
-1.55786
-1.54417
-1.6749
-2.00301
-2.4987
-2.8327
-2.61471
-1.779
-0.530791
20.3172
15.7896
11.6525
8.3196
5.78289
3.81809
2.26123
1.02482
0.0519541
-0.69779
-1.2479
-1.61085
-1.80177
-1.85123
-1.80606
-1.71501
-1.61144
-1.51013
-1.41847
-1.34434
-1.29805
-1.29801
-1.37638
-1.56975
-1.88144
-2.21522
-2.32226
-2.01496
-1.30703
-0.366922
24.3414
20.3705
16.3247
12.7573
9.87711
7.56091
5.66197
4.09891
2.82503
1.80375
1.00592
0.409147
-0.00907519
-0.278988
-0.43914
-0.528929
-0.579801
-0.612822
-0.642703
-0.681944
-0.743022
-0.841258
-0.995191
-1.21553
-1.4775
-1.67816
-1.68271
-1.42087
-0.904163
-0.264504
27.4233
24.0073
20.2752
16.7725
13.7901
11.2891
9.16805
7.36687
5.85208
4.59402
3.56442
2.73904
2.09414
1.60166
1.22938
0.944612
0.718624
0.528835
0.357901
0.191713
0.0180639
-0.174233
-0.393293
-0.635043
-0.867014
-1.01439
-1.01398
-0.84621
-0.525994
-0.154837
29.8959
26.9182
23.537
20.2271
17.29
14.7377
12.5076
10.5607
8.87657
7.43437
6.21115
5.1857
4.3366
3.63933
3.06703
2.59263
2.19116
1.84144
1.52614
1.23101
0.94467
0.659216
0.372343
0.0928133
-0.152182
-0.31761
-0.377309
-0.332962
-0.203348
-0.0592731
31.8585
29.2266
26.1792
23.1121
20.3047
17.7927
15.5401
13.525
11.7379
10.1669
8.79624
7.60968
6.58955
5.71573
4.96656
4.32002
3.7551
3.25304
2.79794
2.37665
1.97903
1.5989
1.2356
0.896761
0.600538
0.37151
0.217681
0.128764
0.0854476
0.0394758
33.421
31.0716
28.3227
25.5037
22.862
20.4415
18.2227
16.1953
14.3581
12.7066
11.2321
9.92345
8.76728
7.7481
6.84911
6.05279
5.34195
4.70069
4.11508
3.57348
3.06702
2.59021
2.14185
1.72623
1.35327
1.03492
0.770622
0.547432
0.347452
0.137807
34.6799
32.5647
30.0749
27.4873
25.0191
22.7143
20.5622
18.5596
16.711
15.0177
13.476
12.0798
10.8199
9.68532
8.66331
7.74032
6.90271
6.13748
5.43283
4.77864
4.16698
3.59258
3.05317
2.54973
2.08601
1.66612
1.28578
0.932361
0.589948
0.235445
35.7011
33.7825
31.5156
29.1364
26.8359
24.6552
22.5875
20.6335
18.8007
17.0942
15.5146
14.0596
12.7239
11.5004
10.3797
9.35166
8.4059
7.53207
6.72035
5.96208
5.25016
4.57934
3.94632
3.34965
2.78906
2.26372
1.76786
1.29028
0.816947
0.330691
36.5326
34.7809
32.7061
30.5122
28.3679
26.3103
24.3348
22.4433
20.6447
18.946
17.3509
15.8603
14.4721
13.182
11.9835
10.8697
9.83282
8.86486
7.95781
7.10433
6.29815
5.53408
4.80809
4.11708
3.45837
2.82841
2.22084
1.62574
1.03079
0.42233
37.2108
35.6023
33.6937
31.6636
29.6621
27.7224
25.8402
24.018
22.265
20.5891
18.9955
17.4876
16.0656
14.7272
13.4688
12.2858
11.1731
10.1245
9.13335
8.19367
7.29999
6.44734
5.63129
4.84784
4.09292
3.36163
2.64744
1.94145
1.2327
0.509655
37.7646
36.2792
34.515
32.6294
30.757
28.9275
27.1363
25.3858
23.6847
22.0413
20.4617
18.9504
17.5093
16.1381
14.835
13.5972
12.4219
11.3047
10.24
9.22302
8.24911
7.3136
6.412
5.53992
4.69265
3.8647
3.04956
2.23908
1.42345
0.59246
38.2163
36.8375
35.1989
33.4405
31.6841
29.956
28.2515
26.5721
24.9258
23.321
21.7639
20.2594
18.8109
17.4194
16.0838
14.8034
13.5774
12.4024
11.274
10.1884
9.14174
8.12975
7.14815
6.1925
5.25784
4.33857
3.42836
2.51966
1.60357
0.670776
38.584
37.2977
35.7685
34.1222
32.4694
30.8339
29.2104
27.5995
26.0087
24.4456
22.9164
21.4262
19.979
18.5768
17.2193
15.9068
14.6402
13.417
12.2339
11.088
9.97592
8.89398
7.83837
6.80484
5.78843
4.78364
3.78442
2.7837
1.77333
0.7447
38.8825
37.6764
36.2427
34.6949
33.1345
31.5827
30.0339
28.4881
26.9515
25.4312
23.9331
22.4624
21.0229
19.6173
18.2461
16.9107
15.612
14.3486
13.1188
11.9204
10.7503
9.60537
8.4822
7.37686
6.28461
5.20029
4.11815
3.03154
1.93296
0.814368
39.1238
37.9874
36.637
35.1759
33.6973
32.2208
30.7403
29.255
27.7703
26.2925
24.8271
23.3788
21.9515
20.5479
19.1697
17.8186
16.4953
15.1994
13.9301
12.686
11.4647
10.2635
9.07933
7.90837
6.74627
5.58844
4.42948
3.26307
2.08228
0.879554
39.3179
38.242
36.9643
35.5791
34.173
32.7638
31.3452
29.9156
28.4796
27.0428
25.6102
24.186
22.7739
21.3766
19.9965
18.6351
17.2933
15.9714
14.6691
13.3857
12.1193
10.8681
9.62941
8.39909
7.17333
5.94826
4.71868
3.47852
2.22144
0.940303
39.4732
38.4496
37.2352
35.9165
34.5743
33.2248
31.8617
30.4829
29.0919
27.6939
26.2933
24.8937
23.4985
22.1104
20.7317
19.3643
18.0091
16.6665
15.3371
14.0204
12.7147
11.42
10.1333
8.84931
7.5654
6.27904
4.98496
3.67717
2.3499
0.996419
39.5968
38.6186
37.459
36.1983
34.912
33.6153
32.3017
30.9685
29.6187
28.2567
26.8864
25.5109
24.1332
22.7558
21.3812
20.0114
18.6468
17.2881
15.9372
14.5927
13.253
11.9197
10.5904
9.25894
7.92324
6.58165
5.229
3.85956
2.46809
1.04817
39.6946
38.7553
37.643
36.4325
35.1949
33.9444
32.6745
31.3819
30.0691
28.74
27.3978
26.0453
24.6849
23.3191
21.9502
20.5801
19.2092
17.8388
16.4704
15.1026
13.7344
12.3673
10.9996
9.62641
8.24558
6.85479
5.44931
4.0242
2.57466
1.09452
39.7723
38.8662
37.7945
36.6271
35.4315
34.2211
32.9892
31.7323
30.4524
29.1527
27.8361
26.505
25.1613
23.8073
22.4448
21.0755
19.7012
18.3231
16.9403
15.5524
14.1606
12.765
11.3637
9.95406
8.5339
7.09993
5.64744
4.17259
2.67115
1.13681
39.8326
38.9545
37.9171
36.7863
35.6264
34.4501
33.2508
32.0248
30.7734
29.4996
28.2057
26.8937
25.5654
24.2228
22.8668
21.499
20.1232
18.7398
17.3454
15.9409
14.5292
13.1095
11.6798
10.2384
8.78394
7.31245
5.81897
4.30065
2.75388
1.17249
39.8824
39.0274
38.0184
36.9181
35.7879
34.6403
33.4684
32.2684
31.0413
29.7895
28.5152
27.22
25.9053
24.5729
23.2233
21.8581
20.4819
19.0946
17.6912
16.2737
14.8458
13.4065
11.9529
10.4842
9.00058
7.49768
5.96935
4.41344
2.82745
1.20481
39.9188
39.0823
38.0961
37.0201
35.9139
34.7893
33.6396
32.4607
31.2533
30.0196
28.7614
27.4801
26.1769
24.8532
23.5094
22.147
20.7705
19.3793
17.969
16.5418
15.1011
13.6458
12.1731
10.682
9.17399
7.6453
6.08869
4.50206
2.88395
1.22834
39.9543
39.1317
38.163
37.1058
36.0179
34.9109
33.7783
32.6157
31.4236
30.2039
28.9583
27.6878
26.3936
25.0767
23.7379
22.3785
21.0013
19.6064
18.1913
16.7575
15.307
13.8389
12.3515
10.8434
9.31526
7.76472
6.18606
4.57578
2.93149
1.24808
39.9731
39.1593
38.2021
37.1576
36.0823
34.9873
33.8662
32.7146
31.5328
30.3227
29.0855
27.8224
26.5341
25.2218
23.8865
22.5298
21.1522
19.7543
18.3364
16.8988
15.4417
13.9649
12.4677
10.949
9.40764
7.84215
6.24856
4.62202
2.95887
1.25545
40.0083
39.1931
38.2415
37.2049
36.1367
35.0481
33.933
32.7871
31.6106
30.4052
29.1723
27.9127
26.6272
25.3168
23.9827
22.6262
21.2473
19.8469
18.4264
16.9856
15.5239
14.0412
12.537
11.0102
9.46026
7.88593
6.28316
4.64619
2.96962
1.24547
)
;

boundaryField
{
    inlet
    {
        type            zeroGradient;
    }
    outlet
    {
        type            fixedValue;
        value           uniform 0;
    }
    flap
    {
        type            zeroGradient;
    }
    upperWall
    {
        type            zeroGradient;
    }
    lowerWall
    {
        type            zeroGradient;
    }
    frontAndBack
    {
        type            empty;
    }
}


// ************************************************************************* //
