/*--------------------------------*- C++ -*----------------------------------*\
| =========                 |                                                 |
| \\      /  F ield         | OpenFOAM: The Open Source CFD Toolbox           |
|  \\    /   O peration     | Version:  dev                                   |
|   \\  /    A nd           | Web:      www.OpenFOAM.org                      |
|    \\/     M anipulation  |                                                 |
\*---------------------------------------------------------------------------*/
FoamFile
{
    version     2.0;
    format      ascii;
    class       surfaceScalarField;
    location    "2";
    object      phi;
}
// * * * * * * * * * * * * * * * * * * * * * * * * * * * * * * * * * * * * * //

dimensions      [0 3 -1 0 0 0 0];

internalField   nonuniform List<scalar> 
5457
(
0.19745
0.00254448
0.19491
0.0025343
0.192322
0.00258176
0.189623
0.00269367
0.1868
0.00281782
0.18385
0.00294506
0.180766
0.00308035
0.177534
0.00322815
0.174143
0.00338952
0.170577
0.0035668
0.166815
0.00376436
0.16284
0.0039799
0.15863
0.00421661
0.154156
0.00448194
0.149387
0.00477702
0.14429
0.00510619
0.138824
0.00547357
0.13294
0.00588995
0.126582
0.00636204
0.119692
0.00689313
0.112199
0.00749354
0.104024
0.00817411
0.0950761
0.00894674
0.0852482
0.00982594
0.0744136
0.0108326
0.0624152
0.0119967
0.0490466
0.0133673
0.0340073
0.0150386
0.0166411
0.0173657
0.016641
0.199307
0.00323151
0.198109
0.00372663
0.196726
0.00395932
0.195175
0.00423957
0.193448
0.0045393
0.191539
0.00484922
0.189439
0.00517588
0.187143
0.00552068
0.184642
0.00588924
0.181922
0.00628645
0.178971
0.00671835
0.175769
0.00718656
0.172294
0.00769849
0.16852
0.00826383
0.164418
0.00888742
0.159954
0.00957885
0.155088
0.0103478
0.149772
0.0112117
0.143952
0.0121874
0.137559
0.0132886
0.130516
0.0145375
0.122726
0.0159631
0.114072
0.0175997
0.104404
0.0194921
0.0935198
0.0217143
0.0811241
0.0243907
0.0667545
0.0277354
0.0496327
0.0321595
0.0278098
0.0391882
0.0444507
0.199171
0.0040551
0.198052
0.00483927
0.196744
0.00526236
0.195288
0.00569027
0.193679
0.00614244
0.19191
0.00661336
0.189974
0.00710747
0.187864
0.0076265
0.185573
0.00817874
0.183089
0.00877064
0.180403
0.00940653
0.177495
0.0100993
0.174341
0.0108601
0.170919
0.0116939
0.167202
0.0126129
0.163158
0.013632
0.158745
0.0147689
0.153921
0.0160422
0.148633
0.0174806
0.142806
0.0191184
0.136354
0.0209912
0.129157
0.0231594
0.121059
0.0256955
0.111857
0.028692
0.101258
0.032311
0.0888032
0.0368442
0.0736814
0.0428557
0.0545856
0.0512544
0.0300633
0.0637102
0.0745139
0.199079
0.00497023
0.197966
0.00594624
0.196672
0.00655131
0.195229
0.00712791
0.193637
0.00772911
0.19189
0.00835474
0.189985
0.00900772
0.187914
0.00969341
0.185671
0.0104207
0.183244
0.0111972
0.180624
0.0120294
0.177794
0.0129342
0.174735
0.0139257
0.171427
0.0150105
0.167845
0.0162041
0.16396
0.0175264
0.159737
0.0190007
0.155127
0.0206586
0.150073
0.0225403
0.144501
0.0246938
0.138317
0.0271768
0.131395
0.0300807
0.123549
0.0335394
0.114516
0.0377234
0.103902
0.0429231
0.0911496
0.0495941
0.0753796
0.0586242
0.054756
0.0718768
0.0291116
0.0893541
0.103625
0.199032
0.00593241
0.197911
0.00706194
0.196626
0.00782998
0.195194
0.00855431
0.193617
0.00930135
0.191888
0.0100777
0.190004
0.010887
0.187957
0.0117367
0.185739
0.0126363
0.183341
0.013595
0.18075
0.0146231
0.177954
0.0157347
0.174935
0.0169512
0.17167
0.0182844
0.168137
0.0197474
0.164305
0.0213682
0.16014
0.023175
0.155595
0.0252114
0.150609
0.0275322
0.145102
0.0302047
0.138965
0.0333152
0.132069
0.0369769
0.124208
0.0413984
0.115077
0.0468525
0.104238
0.0537589
0.0909731
0.0628574
0.0744812
0.0751143
0.0528661
0.0934907
0.0269769
0.115243
0.130602
0.199007
0.00691984
0.197878
0.00818481
0.196607
0.00909598
0.19519
0.00996532
0.193629
0.0108562
0.191921
0.0117799
0.19006
0.0127431
0.188038
0.0137551
0.185845
0.0148262
0.183473
0.0159672
0.180908
0.0171901
0.178136
0.0185109
0.175142
0.0199527
0.171905
0.0215306
0.168398
0.0232644
0.164589
0.0251883
0.160434
0.0273399
0.155891
0.0297628
0.150905
0.0325245
0.145381
0.0357331
0.139194
0.0395043
0.132192
0.0439786
0.124158
0.0494315
0.114753
0.0562554
0.103537
0.0649723
0.0898006
0.0765916
0.072572
0.0923412
0.0500917
0.11597
0.0243642
0.14097
0.154966
0.198995
0.00791899
0.197864
0.00930974
0.196605
0.0103501
0.195204
0.0113599
0.193663
0.012391
0.191979
0.0134585
0.190144
0.0145728
0.188149
0.015745
0.185986
0.0169864
0.183644
0.018309
0.181109
0.0197273
0.178361
0.0212629
0.175392
0.0229294
0.172185
0.024747
0.168705
0.026755
0.164917
0.028988
0.16078
0.031488
0.156234
0.0343174
0.15121
0.0375568
0.145621
0.0413271
0.139341
0.0457873
0.132184
0.0511352
0.12392
0.0576946
0.114202
0.0659704
0.102514
0.0766586
0.0882417
0.0908616
0.0704738
0.110107
0.0473209
0.139121
0.0217495
0.16654
0.176716
0.198996
0.00891735
0.197867
0.0104324
0.196618
0.0115935
0.195236
0.0127357
0.193719
0.0139019
0.192062
0.0151095
0.190257
0.0163715
0.188296
0.0177012
0.186169
0.0191105
0.183865
0.0206119
0.181371
0.0222232
0.178668
0.0239699
0.175741
0.0258637
0.172571
0.0279268
0.169122
0.0302152
0.165354
0.0327686
0.161223
0.0356301
0.156669
0.0388825
0.151603
0.0426312
0.145946
0.0469903
0.139565
0.0521715
0.132251
0.0584501
0.123761
0.0661837
0.113738
0.0759912
0.101678
0.0887162
0.0868123
0.105725
0.0685665
0.128351
0.0449929
0.162694
0.0195412
0.191991
0.196257
0.199004
0.0099071
0.197885
0.0115458
0.196653
0.0128203
0.195296
0.0140864
0.193808
0.015383
0.192184
0.0167268
0.190417
0.0181325
0.188496
0.0196168
0.186411
0.0211915
0.184153
0.0228688
0.181709
0.0246687
0.17906
0.0266228
0.176182
0.0287492
0.173048
0.0310707
0.16963
0.033645
0.16589
0.0365212
0.161771
0.0397624
0.157219
0.0434456
0.152154
0.0477065
0.146454
0.0526972
0.139981
0.0586486
0.132533
0.0658998
0.123844
0.0748726
0.113547
0.0862866
0.101136
0.101125
0.0858308
0.121029
0.0671658
0.147015
0.0432159
0.186643
0.0180607
0.217146
0.214319
0.199018
0.0108837
0.197915
0.0126425
0.196706
0.0140234
0.195379
0.0154071
0.193926
0.016829
0.192341
0.0183049
0.190618
0.0198495
0.188743
0.0214852
0.186707
0.0232236
0.184499
0.0250749
0.182102
0.0270659
0.179501
0.0292278
0.176674
0.0315834
0.173588
0.0341676
0.170217
0.037028
0.166532
0.0402197
0.162465
0.0438425
0.157944
0.0479798
0.152893
0.052768
0.147188
0.0584112
0.140672
0.0651699
0.133149
0.0734251
0.12432
0.0837016
0.113831
0.0967748
0.101125
0.113829
0.0855528
0.1366
0.0664795
0.166087
0.0423096
0.210813
0.0176817
0.241775
0.232002
0.199035
0.0118428
0.197954
0.0137176
0.196772
0.015199
0.195479
0.0166943
0.194064
0.0182367
0.192522
0.0198402
0.190841
0.0215229
0.189012
0.0233072
0.187028
0.0252025
0.184876
0.0272243
0.182534
0.0294084
0.179992
0.0317732
0.177234
0.0343481
0.174228
0.0371839
0.170938
0.0403311
0.167316
0.0438555
0.163314
0.0478587
0.158849
0.0524588
0.153846
0.0577828
0.148194
0.0640736
0.141716
0.0716549
0.134213
0.0809313
0.125388
0.092528
0.11484
0.107323
0.102082
0.126587
0.0863567
0.152325
0.066808
0.185636
0.0428563
0.234766
0.0189229
0.26571
0.250926
0.199054
0.0127828
0.197998
0.0147683
0.196846
0.0163442
0.195589
0.0179453
0.194215
0.0196031
0.192717
0.0213308
0.191082
0.0231504
0.189305
0.0250766
0.187382
0.0271193
0.185297
0.0293058
0.183033
0.0316718
0.180577
0.0342319
0.177904
0.0370276
0.174982
0.0401155
0.171777
0.0435491
0.168237
0.0474098
0.164329
0.0517823
0.159981
0.056821
0.15509
0.0626877
0.149541
0.0696334
0.143189
0.0780156
0.135833
0.0882912
0.127167
0.101197
0.1168
0.117691
0.104229
0.13916
0.0884853
0.168069
0.0687545
0.205368
0.045673
0.25785
0.0225073
0.28888
0.273436
0.199075
0.013702
0.198046
0.0157918
0.196927
0.0174561
0.195709
0.0191564
0.194381
0.0209237
0.192934
0.0227701
0.19136
0.0247158
0.189653
0.0267759
0.187801
0.0289641
0.185795
0.0313077
0.183619
0.0338459
0.181249
0.0366036
0.178662
0.039621
0.175829
0.0429577
0.172727
0.0466628
0.169326
0.0508254
0.16556
0.0555641
0.161362
0.0610349
0.156639
0.0674248
0.151281
0.075004
0.145166
0.0841398
0.138083
0.0953813
0.129773
0.109511
0.119898
0.127569
0.107809
0.151251
0.0927382
0.183143
0.0740662
0.224045
0.0532385
0.278684
0.0310586
0.311065
0.304497
0.199102
0.0145948
0.198105
0.0167825
0.197026
0.0185287
0.195854
0.0203216
0.194577
0.0221921
0.19319
0.0241495
0.191686
0.0262103
0.190054
0.0283996
0.188279
0.0307313
0.186352
0.0332293
0.184258
0.0359371
0.181976
0.0388859
0.179494
0.0421082
0.176796
0.0456636
0.173846
0.049625
0.1706
0.0540853
0.166994
0.0591858
0.162987
0.0650582
0.15851
0.0719164
0.153447
0.0800807
0.147684
0.0899132
0.141051
0.102022
0.133391
0.117177
0.124348
0.136616
0.11349
0.162114
0.100661
0.195977
0.0855173
0.239197
0.0702836
0.293928
0.0513227
0.330033
0.355823
0.199127
0.0154625
0.198162
0.0177411
0.197122
0.0195625
0.195996
0.0214406
0.194771
0.0234084
0.193441
0.0254705
0.191998
0.0276442
0.19043
0.0299586
0.188728
0.0324242
0.186879
0.0350719
0.184874
0.0379378
0.182708
0.041052
0.180355
0.044464
0.177792
0.0482343
0.174986
0.052442
0.171897
0.0571878
0.168491
0.0626069
0.164723
0.0688421
0.160521
0.0761334
0.155817
0.0847993
0.150516
0.0952255
0.144543
0.108005
0.137748
0.12398
0.129998
0.144372
0.121473
0.170646
0.112575
0.204884
0.103976
0.247809
0.0994616
0.298455
0.0938032
0.3357
0.449631
0.000834309
-0.000833665
0.00265403
-0.00180716
0.0048295
-0.00211717
0.00700481
-0.00206958
0.00883234
-0.0017416
0.0103414
-0.00147541
0.0117065
-0.00135796
0.0130397
-0.0013275
0.0143914
-0.00133827
0.0157537
-0.0013442
0.0171018
-0.00133023
0.0183944
-0.00127582
0.0195992
-0.00119016
0.0207036
-0.00109465
0.0216705
-0.000963944
0.0224484
-0.000782933
0.0230235
-0.00058857
0.0234376
-0.000435744
0.0237229
-0.00031436
0.0238563
-0.000168897
0.0238202
-4.52012e-06
0.0236699
0.000105808
0.0235319
9.10343e-05
0.0235669
-8.36537e-05
0.0239482
-0.000430479
0.0248356
-0.000936509
0.0263344
-0.00154726
0.0285163
-0.0022293
0.0314321
-0.00296185
-0.00352136
0.000657395
-0.00149042
0.00245848
-0.00359409
0.00503914
-0.00463571
0.00761423
-0.00453783
0.00972197
-0.00376605
0.0114022
-0.00312427
0.0128583
-0.00280783
0.0142171
-0.00268029
0.0155191
-0.00262654
0.0167765
-0.00258297
0.0179644
-0.0025
0.0190591
-0.00235399
0.0200579
-0.00217472
0.0209622
-0.00198964
0.0217524
-0.00175167
0.0223787
-0.00141466
0.0228177
-0.00104124
0.0231128
-0.000752728
0.0233054
-0.000536168
0.0233647
-0.000263723
0.0232235
9.61509e-05
0.0228854
0.000399683
0.0224412
0.000488388
0.0219704
0.000338849
0.0214946
-3.61432e-06
0.0211388
-0.00062958
0.0211117
-0.00156837
0.0216392
-0.00280399
0.023084
-0.00445258
-0.00650601
0.000489705
-0.00197937
0.00209188
-0.00517909
0.00445094
-0.00692827
0.00662728
-0.00661127
0.00833208
-0.00539633
0.00963983
-0.00440428
0.0106938
-0.00385476
0.0115841
-0.00356296
0.0123425
-0.0033701
0.0129764
-0.00319751
0.013471
-0.00297606
0.0138208
-0.00268746
0.0140413
-0.00238131
0.0141569
-0.00209631
0.0141615
-0.00175411
0.0139838
-0.00124261
0.013568
-0.000639158
0.012976
-0.000182465
0.0122323
0.000178641
0.011201
0.000732535
0.00974165
0.0015155
0.00786899
0.00222867
0.00574065
0.00257052
0.00362556
0.00240624
0.00186277
0.00171081
0.000623809
0.000561062
0.000268427
-0.00126076
0.00138178
-0.00396413
0.00403566
-0.00715206
-0.0103418
0.000547145
-0.00252532
0.00201944
-0.00663028
0.00396471
-0.00880498
0.00549259
-0.0080465
0.006576
-0.00641797
0.00732227
-0.00512642
0.00780141
-0.00432412
0.00804946
-0.00379982
0.00808715
-0.00339058
0.00792375
-0.00301354
0.00756972
-0.00260305
0.00702971
-0.00213099
0.00630605
-0.00164396
0.00543543
-0.00121697
0.00446647
-0.000783034
0.00324362
-2.52402e-05
0.00136065
0.00123036
-0.00144986
0.00260689
-0.00480132
0.00350191
-0.00788976
0.00378678
-0.0102881
0.0038748
-0.0120906
0.00398842
-0.0134598
0.00389449
-0.0143512
0.00325079
-0.0145791
0.00189121
-0.0138846
-0.000181058
-0.0122351
-0.00295729
-0.00998628
-0.00625925
-0.00757576
-0.00960775
-0.0125623
0.000728594
-0.00325179
0.00204127
-0.0079179
0.00339648
-0.0100939
0.00414195
-0.00871428
0.00448272
-0.00671016
0.00451929
-0.0051418
0.00426538
-0.00405742
0.00371101
-0.00323038
0.00286174
-0.00252145
0.00175459
-0.00188449
0.000430081
-0.00125887
-0.00112476
-0.000559353
-0.00308273
0.00032776
-0.00561566
0.00132471
-0.00857039
0.00217397
-0.0114444
0.00284363
-0.0138091
0.00358228
-0.0156955
0.00447294
-0.0174357
0.0052149
-0.0191974
0.00551545
-0.0208142
0.00545367
-0.0220262
0.0051589
-0.0226884
0.00451261
-0.0227768
0.00329351
-0.022318
0.00138588
-0.0213399
-0.00120578
-0.0200458
-0.00429773
-0.018774
-0.00757668
-0.0178085
-0.0106179
-0.0129255
0.000959889
-0.00420812
0.00195283
-0.00888319
0.00252579
-0.0106076
0.00236944
-0.00849705
0.00184148
-0.00614439
0.0010101
-0.00429035
-0.000167942
-0.00286379
-0.00174562
-0.00163467
-0.00372044
-0.000524923
-0.00608531
0.000503186
-0.00878569
0.00146182
-0.0116172
0.00228936
-0.0142483
0.00297292
-0.0164977
0.00358301
-0.0184968
0.00417571
-0.0204133
0.00475563
-0.0222183
0.00537525
-0.0238017
0.00603704
-0.0251636
0.00655081
-0.0263819
0.00670208
-0.0274276
0.00646291
-0.0281676
0.00585883
-0.0285118
0.00481404
-0.0284749
0.00321218
-0.0281384
0.00100404
-0.0276318
-0.00175799
-0.0271132
-0.00486177
-0.0267514
-0.00798341
-0.0267336
-0.0106796
-0.0124729
0.00114168
-0.00534461
0.00156428
-0.00927814
0.00112837
-0.0101232
-8.43762e-05
-0.00723888
-0.00167488
-0.00452353
-0.00362421
-0.00232058
-0.00600652
-0.000463115
-0.00878655
0.00116572
-0.0117271
0.00243853
-0.014524
0.00332337
-0.017013
0.00397161
-0.0192189
0.00451306
-0.0212226
0.00499082
-0.0230724
0.00544212
-0.0247879
0.00589434
-0.0263934
0.00635732
-0.0278737
0.0068446
-0.0291711
0.0073164
-0.0302673
0.00762241
-0.0311982
0.00760284
-0.0319665
0.00719628
-0.0325285
0.00638232
-0.0328632
0.00510745
-0.0330055
0.00331142
-0.0330295
0.000983966
-0.0330352
-0.00179674
-0.0331126
-0.00482888
-0.0333512
-0.00778875
-0.0338842
-0.0101901
-0.0116259
0.00111105
-0.00644917
0.000653621
-0.00879584
-0.0010952
-0.00833771
-0.00352774
-0.00477339
-0.00628227
-0.00174364
-0.00938655
0.000804746
-0.0125836
0.00275438
-0.0154874
0.00409137
-0.0180367
0.00501132
-0.0203512
0.00566127
-0.0224766
0.00611812
-0.0244082
0.00646281
-0.0261596
0.00675679
-0.0277497
0.00704197
-0.0292004
0.00734876
-0.0305335
0.00768743
-0.0317398
0.00804104
-0.0327876
0.00834751
-0.0336716
0.00848339
-0.0344225
0.00832514
-0.0350628
0.00780335
-0.0355963
0.00687892
-0.0360366
0.0055081
-0.0364211
0.00365437
-0.0368032
0.00132329
-0.0372395
-0.00140368
-0.0377708
-0.00434102
-0.038436
-0.00716659
-0.0393093
-0.00935948
-0.0105719
0.000642433
-0.00708456
-0.00108507
-0.00704809
-0.00423813
-0.00515876
-0.00784771
-0.00114017
-0.0115282
0.00195826
-0.0148491
0.00414652
-0.0176931
0.00561977
-0.020228
0.00664874
-0.0225354
0.00734222
-0.0246299
0.00777902
-0.0265176
0.00802697
-0.0282003
0.00816385
-0.0296897
0.00826114
-0.0310059
0.00836832
-0.0321768
0.00852404
-0.0332278
0.00873646
-0.0341639
0.00896844
-0.0349764
0.00914469
-0.0356745
0.00915996
-0.0362912
0.00891494
-0.0368627
0.00834337
-0.0374188
0.00739983
-0.0379906
0.00604193
-0.0386133
0.00423705
-0.039319
0.00198763
-0.0401245
-0.000640194
-0.041027
-0.00348076
-0.0420185
-0.00621729
-0.0431133
-0.0083066
-0.00940973
-0.000499308
-0.00657849
-0.00369341
-0.00383887
-0.00813718
-0.000697136
-0.0123209
0.00306084
-0.0158304
0.00548566
-0.0187921
0.00712793
-0.0214271
0.00827608
-0.0237895
0.00903374
-0.025899
0.00947502
-0.0277683
0.00967107
-0.0294029
0.00968265
-0.0308051
0.00958454
-0.0319906
0.00946189
-0.0329955
0.00938381
-0.0338567
0.00939034
-0.034606
0.00948466
-0.0352648
0.00961973
-0.0358425
0.00970853
-0.0363594
0.00965693
-0.0368532
0.00938353
-0.0373698
0.00883013
-0.0379543
0.00795084
-0.0386492
0.00670047
-0.0394888
0.00503821
-0.040487
0.00294605
-0.0416245
0.00045652
-0.0428526
-0.00229378
-0.0441126
-0.00499839
-0.0453587
-0.00710162
-0.00820425
-0.00240127
-0.00417144
-0.00696932
0.000739738
-0.0118258
0.00417218
-0.015669
0.00691773
-0.0188752
0.00870722
-0.0216909
0.00996176
-0.0241767
0.0107826
-0.0263551
0.0112343
-0.0282389
0.0113818
-0.0298429
0.0112976
-0.0311826
0.0110432
-0.0322653
0.0106858
-0.033109
0.010321
-0.0337592
0.010045
-0.0342732
0.00991012
-0.0347015
0.00991273
-0.0350759
0.00998767
-0.0354156
0.0100356
-0.0357455
0.00996845
-0.0361076
0.00972196
-0.036556
0.00925046
-0.0371481
0.00851105
-0.0379355
0.00745311
-0.0389539
0.00601972
-0.0402058
0.00415947
-0.0416446
0.00185597
-0.0431736
-0.000804816
-0.0446736
-0.00353857
-0.0460355
-0.00577991
-0.00701036
-0.00478689
0.000619834
-0.0100163
0.00597619
-0.0143944
0.00856011
-0.0179278
0.010463
-0.0209967
0.0117902
-0.0236779
0.0126597
-0.0259814
0.0131058
-0.0279236
0.0131981
-0.0295308
0.0130116
-0.0308279
0.0126168
-0.0318346
0.0120706
-0.0325608
0.0114307
-0.0330257
0.0108014
-0.0332832
0.0103138
-0.0334191
0.0100522
-0.0335102
0.0100043
-0.033596
0.010068
-0.0336927
0.0101209
-0.0338201
0.0100788
-0.0340214
0.00990104
-0.0343604
0.00956295
-0.0349087
0.00902908
-0.0357298
0.00824108
-0.0368652
0.00711966
-0.0383161
0.00557333
-0.0400201
0.00352177
-0.04183
0.000966269
-0.0435552
-0.00185265
-0.0450113
-0.00436318
-0.00589299
-0.00737071
0.00799345
-0.0120187
0.0106289
-0.0159072
0.0124567
-0.0192744
0.0138409
-0.0222063
0.0147355
-0.0247115
0.0151809
-0.0267778
0.0151908
-0.0284258
0.0148669
-0.0297032
0.0143112
-0.0306526
0.0135881
-0.0312933
0.0127316
-0.031628
0.0117837
-0.0316712
0.0108599
-0.0314919
0.0101458
-0.0312178
0.00978459
-0.030962
0.00974939
-0.030763
0.0098643
-0.0306121
0.00995956
-0.0305087
0.00995962
-0.0304919
0.00986347
-0.0306392
0.0096851
-0.0310446
0.00940574
-0.0317934
0.00895818
-0.0329405
0.00823271
-0.0344905
0.00708763
-0.0363745
0.00536888
-0.0384289
0.00298288
-0.0403704
5.05993e-05
-0.0418791
-0.00289311
-0.00497523
-0.00952181
0.0175169
-0.0127018
0.0138125
-0.0163882
0.0161501
-0.0196429
0.0171058
-0.0224211
0.0175268
-0.0247271
0.0175025
-0.026499
0.016981
-0.0277775
0.0161658
-0.0286504
0.0152059
-0.0291896
0.0141486
-0.0294191
0.012981
-0.02932
0.0117025
-0.0288783
0.0104332
-0.028178
0.00945667
-0.027433
0.00904604
-0.0268237
0.00914138
-0.0263612
0.00939766
-0.0259671
0.00955589
-0.0255905
0.00956822
-0.0252578
0.00951118
-0.0250658
0.0094693
-0.0251475
0.00946013
-0.0256297
0.00941004
-0.0265996
0.00917005
-0.0280774
0.00853098
-0.0299838
0.00723946
-0.0321161
0.00507853
-0.034134
0.00203114
-0.0355724
-0.0014925
-0.00452461
-0.00343347
0.0209515
-0.00843014
0.0188125
-0.0154628
0.0231892
-0.0189697
0.0206224
-0.0216875
0.0202573
-0.0237806
0.0196109
-0.0251163
0.0183345
-0.0258548
0.0169244
-0.0261785
0.015551
-0.0262003
0.0141913
-0.0259458
0.0127456
-0.0253506
0.0111244
-0.0243073
0.00940427
-0.0228939
0.00805381
-0.0215367
0.00769506
-0.020566
0.00817196
-0.0198898
0.00871762
-0.0192772
0.00893426
-0.0185779
0.00885495
-0.0177833
0.00869804
-0.0170165
0.00867994
-0.016472
0.00888947
-0.0163401
0.0092491
-0.0167686
0.00956719
-0.0178265
0.00955568
-0.0194262
0.00880452
-0.0212582
0.00687495
-0.0228585
0.00359498
-0.0237016
-0.000686354
-0.0050306
0.206799
0.016317
0.20585
0.0186842
0.204829
0.0205775
0.203722
0.0225396
0.202519
0.0246031
0.201214
0.026766
0.199796
0.0290522
0.19826
0.0314838
0.196602
0.0340725
0.19481
0.036856
0.192874
0.039868
0.190778
0.0431454
0.188502
0.0467418
0.18602
0.0507221
0.183326
0.0551463
0.180392
0.0601342
0.177184
0.0658301
0.173647
0.0723944
0.169743
0.0800534
0.165462
0.0890946
0.160765
0.0999344
0.155614
0.113168
0.150033
0.12957
0.144372
0.150042
0.13923
0.175797
0.135925
0.208201
0.137383
0.246368
0.150664
0.285192
0.18106
0.305317
0.290394
0.340302
0.21184
0.0171542
0.210914
0.019604
0.209919
0.0215662
0.208842
0.0236093
0.207677
0.0257588
0.20642
0.0280134
0.205059
0.0304022
0.203592
0.0329393
0.202008
0.0356447
0.200297
0.038557
0.198449
0.0417091
0.196445
0.0451452
0.194285
0.0489011
0.19196
0.0530518
0.189443
0.057671
0.186715
0.0628732
0.183757
0.0688022
0.180554
0.0756116
0.177096
0.0835268
0.173398
0.0928061
0.16948
0.103865
0.16543
0.117231
0.161609
0.133403
0.158591
0.153072
0.157409
0.176993
0.160547
0.205079
0.172442
0.234492
0.200803
0.256852
0.247075
0.25906
0.250496
0.286982
0.217008
0.0179673
0.216114
0.0204919
0.215156
0.0225183
0.214125
0.0246336
0.213018
0.0268573
0.211826
0.0291948
0.210539
0.0316764
0.209149
0.0343167
0.207646
0.0371361
0.206024
0.0401672
0.204286
0.0434375
0.202427
0.0469987
0.200431
0.0508943
0.198292
0.0551927
0.195993
0.0599758
0.193529
0.065346
0.190902
0.0714405
0.18813
0.0783971
0.185245
0.0864245
0.18228
0.0957834
0.179348
0.106809
0.176769
0.119823
0.175
0.135186
0.174778
0.15331
0.177659
0.174129
0.186387
0.196372
0.204419
0.216484
0.233486
0.227806
0.266663
0.225901
0.21403
0.303141
0.222311
0.0187469
0.221459
0.0213376
0.220551
0.0234199
0.219579
0.0255992
0.218537
0.0278907
0.217415
0.0303065
0.216202
0.0328765
0.214894
0.0356115
0.21349
0.0385254
0.211998
0.041646
0.210407
0.0450174
0.208709
0.0486879
0.206899
0.0527
0.204976
0.0571141
0.202947
0.0620081
0.200814
0.0674852
0.1986
0.0736636
0.196342
0.080666
0.194118
0.0886591
0.192016
0.0978949
0.190285
0.10855
0.189302
0.120818
0.189565
0.134939
0.192058
0.150835
0.198411
0.167796
0.210771
0.184035
0.230707
0.196572
0.25687
0.201668
0.28528
0.197511
0.183438
0.315885
0.22775
0.0194836
0.22695
0.022131
0.2261
0.0242634
0.22519
0.0265032
0.224216
0.0288562
0.223171
0.0313415
0.22205
0.0339857
0.220855
0.0367915
0.219586
0.0397792
0.218239
0.0429788
0.2168
0.046443
0.215284
0.0501929
0.2137
0.0542764
0.212044
0.0587654
0.21033
0.0637222
0.208584
0.0692348
0.206847
0.0754063
0.205189
0.0823309
0.203699
0.0901575
0.202567
0.0990337
0.202099
0.109024
0.202649
0.120278
0.204856
0.132747
0.20972
0.14599
0.218567
0.158971
0.232622
0.170005
0.251941
0.17728
0.274599
0.179034
0.297765
0.174365
0.161316
0.319901
0.233325
0.0201723
0.232581
0.0228689
0.231793
0.0250448
0.230956
0.0273328
0.230067
0.0297368
0.229123
0.032277
0.22812
0.0349764
0.227056
0.0378418
0.225924
0.0408951
0.224726
0.0441606
0.223476
0.0476779
0.222183
0.0514718
0.22085
0.0555993
0.219489
0.0601189
0.218135
0.0650731
0.216821
0.070548
0.215615
0.0766153
0.214605
0.0833444
0.21391
0.0908568
0.213794
0.0991536
0.214536
0.108287
0.216529
0.118293
0.220433
0.128854
0.2271
0.139339
0.237377
0.148716
0.251525
0.155883
0.268925
0.159907
0.288023
0.159961
0.30683
0.155579
0.144011
0.324149
0.239041
0.020806
0.238361
0.0235421
0.237649
0.0257497
0.236903
0.0280718
0.236117
0.0305148
0.235286
0.0330986
0.234403
0.0358475
0.23347
0.0387621
0.232494
0.0418554
0.231484
0.0451535
0.230452
0.0486929
0.229398
0.0525108
0.228338
0.0566459
0.22731
0.0611369
0.226348
0.0660281
0.225505
0.0713876
0.224871
0.0772476
0.224528
0.0836873
0.224666
0.0907204
0.22554
0.0982814
0.227394
0.106436
0.23066
0.115036
0.23591
0.123613
0.243742
0.131519
0.254425
0.13805
0.267718
0.142611
0.282987
0.144662
0.299156
0.143816
0.314967
0.13979
0.129642
0.329352
0.244905
0.0213727
0.244306
0.0241343
0.243685
0.026364
0.243033
0.0287159
0.242351
0.031189
0.241636
0.0338036
0.240889
0.0365834
0.240114
0.0395238
0.239319
0.0426359
0.238515
0.0459401
0.237711
0.0494793
0.236919
0.0532853
0.236174
0.0573761
0.235511
0.0617865
0.234968
0.0665619
0.234629
0.0717192
0.234572
0.0773
0.234907
0.0833495
0.235865
0.0897599
0.237633
0.0965134
0.240466
0.103605
0.244784
0.110725
0.251001
0.117406
0.259341
0.123192
0.269719
0.127685
0.281846
0.1305
0.295218
0.131308
0.309103
0.129952
0.322662
0.12625
0.117425
0.334894
0.250919
0.0218632
0.250406
0.0246408
0.249878
0.0268847
0.249335
0.0292513
0.248773
0.0317422
0.248192
0.0343758
0.247597
0.0371668
0.246997
0.0401102
0.246401
0.0432172
0.245818
0.0465064
0.245263
0.0500164
0.244761
0.0537688
0.244351
0.0577682
0.24407
0.062053
0.243968
0.0666515
0.244135
0.0715415
0.244648
0.0767796
0.245662
0.0823302
0.247362
0.0880549
0.24991
0.0939628
0.253587
0.0999296
0.258705
0.105612
0.265434
0.110687
0.273755
0.114883
0.283537
0.117916
0.294532
0.11952
0.30631
0.119546
0.318364
0.117915
0.330131
0.114499
0.106827
0.340742
0.257086
0.0222686
0.256668
0.0250513
0.256248
0.0272977
0.255827
0.0296642
0.255396
0.0321652
0.254958
0.0348037
0.254531
0.0375825
0.254123
0.0405057
0.25374
0.0435852
0.253393
0.0468358
0.253107
0.050284
0.252911
0.053946
0.252847
0.0578131
0.252951
0.0619317
0.253291
0.0662969
0.253958
0.0708625
0.255044
0.0756836
0.256687
0.0806794
0.259026
0.0857099
0.262261
0.090723
0.266618
0.0955721
0.272217
0.100018
0.279068
0.103843
0.287116
0.106844
0.296236
0.108808
0.306193
0.109576
0.316658
0.109095
0.327258
0.10733
0.337586
0.104184
0.097479
0.346945
0.263413
0.0225756
0.263106
0.0253497
0.262802
0.0275949
0.262504
0.0299552
0.262214
0.0324468
0.26194
0.0350677
0.261695
0.0378165
0.26149
0.0406986
0.261331
0.0437294
0.261237
0.0469128
0.261234
0.050269
0.261352
0.0538085
0.261636
0.0575092
0.262129
0.0614193
0.262908
0.0655008
0.26406
0.0696965
0.265679
0.0740531
0.267883
0.0784655
0.270812
0.0827744
0.274619
0.0869106
0.279405
0.0907843
0.28519
0.0942345
0.291958
0.0970823
0.299645
0.0991656
0.308114
0.100349
0.317148
0.100554
0.326512
0.0997442
0.335951
0.0979034
0.345132
0.0950165
0.0891373
0.353483
0.269894
0.0227804
0.269704
0.0255321
0.269529
0.0277628
0.269371
0.0301054
0.269238
0.0325722
0.269141
0.0351554
0.269089
0.0378583
0.269091
0.0406844
0.269171
0.0436352
0.269347
0.0467201
0.269629
0.0499693
0.270062
0.0533569
0.270699
0.056853
0.271588
0.0605114
0.272792
0.0642781
0.274389
0.0680823
0.276501
0.0719272
0.279235
0.0757207
0.282663
0.0793387
0.286847
0.0827209
0.291834
0.0857943
0.297639
0.0884302
0.304231
0.0904949
0.311527
0.0918766
0.319383
0.0925025
0.327623
0.092324
0.336081
0.0912969
0.344559
0.0894372
0.352798
0.0867896
0.0816103
0.360333
0.27654
0.0228728
0.276477
0.0255876
0.27644
0.0277921
0.276434
0.0301041
0.276468
0.0325312
0.276553
0.0350616
0.276709
0.0376925
0.276941
0.0404406
0.277263
0.0432996
0.277703
0.0462658
0.278277
0.0493787
0.279029
0.0525864
0.280016
0.0558475
0.281289
0.0592204
0.282904
0.062645
0.284944
0.0660258
0.287513
0.0693432
0.290668
0.0725526
0.294429
0.0755686
0.298828
0.0783151
0.3039
0.0807188
0.309642
0.0826882
0.316012
0.0841287
0.322905
0.0849882
0.330193
0.0852223
0.337767
0.0847586
0.34549
0.0835842
0.353171
0.0817667
0.360624
0.0793469
0.0747578
0.367484
0.283356
0.0228409
0.283428
0.0255071
0.283537
0.027676
0.283688
0.0299466
0.283903
0.0323091
0.284192
0.0347646
0.284561
0.0373151
0.285024
0.0399666
0.285595
0.0427167
0.286297
0.0455499
0.28717
0.0484906
0.288247
0.0514929
0.28957
0.0545074
0.291215
0.0575591
0.293243
0.0606005
0.295698
0.063555
0.298627
0.0663999
0.302066
0.0691011
0.30604
0.0715845
0.310567
0.0737812
0.315653
0.0756287
0.321278
0.0770621
0.32739
0.0780187
0.333899
0.0784834
0.340706
0.0784213
0.347719
0.077753
0.354805
0.0765068
0.361816
0.0747656
0.368622
0.0725502
0.068467
0.374919
0.290344
0.0226741
0.290553
0.0252908
0.290817
0.0274045
0.291148
0.0296088
0.291554
0.0318973
0.292049
0.0342625
0.292636
0.0367204
0.293331
0.0392618
0.294155
0.0418826
0.295124
0.0445688
0.296291
0.0473104
0.297699
0.0500708
0.299376
0.052815
0.301385
0.0555352
0.30377
0.0582005
0.306546
0.0607659
0.30974
0.0631928
0.313389
0.0654414
0.317508
0.0674571
0.322098
0.0691846
0.327149
0.0705736
0.33263
0.0715796
0.338477
0.0721733
0.344628
0.0723352
0.351023
0.0720318
0.35755
0.0712338
0.364088
0.069976
0.37054
0.0683228
0.376807
0.0662924
0.0626483
0.382631
0.297502
0.0223687
0.297863
0.0249225
0.298293
0.0269671
0.298812
0.0290843
0.299416
0.0312877
0.300117
0.0335549
0.300926
0.0359051
0.301855
0.0383255
0.30293
0.040798
0.304185
0.0433043
0.305664
0.0458205
0.307402
0.0483206
0.30942
0.0507851
0.311744
0.0531981
0.314406
0.0555263
0.317429
0.0577314
0.320835
0.0597768
0.324642
0.0616256
0.328856
0.0632366
0.333464
0.0645719
0.338447
0.0655865
0.34377
0.0662567
0.349371
0.0665736
0.355208
0.0665014
0.361226
0.066019
0.367323
0.065143
0.373401
0.0639066
0.379382
0.0623494
0.385195
0.0604885
0.0572299
0.390619
0.30483
0.0219253
0.305357
0.024387
0.305968
0.0263494
0.306673
0.0283737
0.307482
0.030474
0.308395
0.032637
0.309425
0.0348696
0.310601
0.0371437
0.311955
0.039438
0.313514
0.0417372
0.315302
0.0440237
0.317335
0.046279
0.319631
0.0484797
0.322216
0.0506028
0.325115
0.052618
0.328345
0.0544928
0.331919
0.0561956
0.335844
0.0576942
0.34012
0.0589561
0.344718
0.0599715
0.349601
0.0607017
0.354754
0.0611038
0.360144
0.061186
0.365715
0.0609344
0.371397
0.0603426
0.377113
0.0594341
0.382793
0.0582339
0.388377
0.0567742
0.393805
0.0550693
0.0521525
0.398888
0.312346
0.0213292
0.313039
0.0236856
0.313829
0.025554
0.314733
0.027465
0.315751
0.0294514
0.316886
0.0314987
0.318164
0.0335874
0.319614
0.0356899
0.321251
0.037796
0.323089
0.0398947
0.325142
0.0419644
0.327431
0.0439837
0.329974
0.0459301
0.332791
0.0477799
0.335896
0.049507
0.339299
0.0510839
0.343007
0.0524838
0.347017
0.0536804
0.351323
0.054649
0.355893
0.0554004
0.360686
0.0559093
0.365689
0.0561028
0.370882
0.0559966
0.376202
0.0556197
0.381585
0.0549662
0.386974
0.0540521
0.392316
0.0529004
0.397561
0.0515386
0.402662
0.0499782
0.0473671
0.407454
0.320039
0.0205812
0.320906
0.0228118
0.32189
0.0245641
0.323005
0.0263454
0.324247
0.028207
0.325625
0.0301177
0.327165
0.0320454
0.328876
0.0339776
0.330767
0.0359025
0.332854
0.0378045
0.335154
0.0396617
0.337682
0.0414531
0.340451
0.0431578
0.343473
0.0447543
0.346757
0.04622
0.350307
0.0475321
0.354121
0.0486688
0.358192
0.04961
0.362503
0.0503389
0.367036
0.0508696
0.37176
0.0511878
0.376639
0.0512281
0.381643
0.0509982
0.386732
0.0505371
0.391856
0.04985
0.396968
0.0489497
0.402022
0.0478559
0.406979
0.0465919
0.411801
0.0451668
0.0428316
0.416344
0.327917
0.0196792
0.328979
0.0217427
0.33018
0.0233584
0.331512
0.0250104
0.332984
0.0267329
0.334606
0.0284941
0.336389
0.0302629
0.338341
0.0320252
0.340475
0.0337687
0.342803
0.0354762
0.345337
0.0371272
0.348089
0.0387018
0.351065
0.0401811
0.354274
0.0415462
0.357717
0.0427779
0.361392
0.0438579
0.365294
0.0447692
0.369411
0.0454969
0.373724
0.0460296