/*--------------------------------*- C++ -*----------------------------------*\
| =========                 |                                                 |
| \\      /  F ield         | OpenFOAM: The Open Source CFD Toolbox           |
|  \\    /   O peration     | Version:  dev                                   |
|   \\  /    A nd           | Web:      www.OpenFOAM.org                      |
|    \\/     M anipulation  |                                                 |
\*---------------------------------------------------------------------------*/
FoamFile
{
    version     2.0;
    format      ascii;
    class       volVectorField;
    location    "4.94";
    object      U;
}
// * * * * * * * * * * * * * * * * * * * * * * * * * * * * * * * * * * * * * //

dimensions      [0 1 -1 0 0 0 0];

internalField   nonuniform List<vector> 
2790
(
(9.93334 -2.75492e-20 0.0185023)
(9.86607 2.85174e-20 0.0255377)
(9.77431 3.72115e-21 0.0300647)
(9.66258 -7.75132e-21 0.0347304)
(9.53745 4.03307e-21 0.0395886)
(9.4006 1.68896e-20 0.0445953)
(9.25131 0 0.0498747)
(9.08856 0 0.0555794)
(8.91157 0 0.0618355)
(8.7195 0 0.0687523)
(8.51132 0 0.076447)
(8.28583 0 0.0850537)
(8.04167 -4.67937e-20 0.094717)
(7.77734 4.83948e-20 0.105597)
(7.49122 -5.15679e-20 0.117884)
(7.1816 5.33199e-20 0.131776)
(6.84658 -1.41057e-20 0.147462)
(6.48432 2.9649e-20 0.165135)
(6.09303 0 0.184994)
(5.67108 -3.27456e-20 0.20722)
(5.21704 -1.3883e-19 0.23195)
(4.72992 -1.43267e-19 0.259249)
(4.20932 -3.0491e-19 0.289079)
(3.65568 3.92936e-19 0.321256)
(3.07053 -3.314e-19 0.355371)
(2.45684 3.39546e-19 0.390628)
(1.81933 0 0.425444)
(1.1662 0 0.455002)
(0.47644 7.21968e-19 0.440823)
(-0.137642 3.81413e-19 -0.139084)
(9.99692 -2.74521e-20 0.0362349)
(9.9892 -2.8483e-20 0.0518495)
(9.95861 4.44887e-20 0.0627099)
(9.90618 -1.54238e-20 0.0744171)
(9.83742 0 0.0870817)
(9.75423 -1.68314e-20 0.100513)
(9.65614 -3.52985e-20 0.11495)
(9.54231 3.65485e-20 0.130738)
(9.41204 -3.85735e-20 0.148164)
(9.26461 3.99017e-20 0.167472)
(9.09911 0 0.188939)
(8.91438 -8.84735e-20 0.212889)
(8.70915 9.28754e-20 0.23966)
(8.48195 1.94405e-19 0.269612)
(8.23122 -2.13472e-19 0.303165)
(7.9553 2.14016e-19 0.340766)
(7.65221 -4.31758e-19 0.38279)
(7.31996 -3.31597e-20 0.429552)
(6.95662 3.04721e-19 0.481332)
(6.5603 3.22263e-20 0.538299)
(6.12917 0 0.600398)
(5.66169 -5.70861e-19 0.667247)
(5.15666 5.87719e-19 0.738015)
(4.61347 7.67949e-20 0.811247)
(4.03226 -1.60318e-19 0.884579)
(3.41418 0 0.954174)
(2.76158 0 1.01348)
(2.0808 1.40235e-18 1.04886)
(1.33214 -1.75293e-18 1.02997)
(0.812272 -2.61926e-18 0.880513)
(9.9942 -5.47987e-20 0.0365357)
(9.98391 0 0.0587104)
(9.95576 -2.96153e-20 0.0767197)
(9.90818 -3.09465e-20 0.0959859)
(9.84542 3.21018e-20 0.116909)
(9.76948 -3.37163e-20 0.139311)
(9.68013 3.49236e-20 0.163499)
(9.57661 7.35687e-20 0.189977)
(9.45839 -7.61083e-20 0.219175)
(9.32487 0 0.251477)
(9.17527 -1.68191e-19 0.287346)
(9.00862 1.73785e-19 0.327326)
(8.82381 -1.82884e-19 0.371984)
(8.61954 1.84342e-19 0.421907)
(8.39441 1.25617e-20 0.477781)
(8.14706 3.97911e-19 0.540399)
(7.87576 -3.82646e-19 0.61049)
(7.57846 -5.23909e-19 0.688648)
(7.25317 3.59605e-19 0.775414)
(6.89784 -5.12023e-19 0.871213)
(6.51028 -5.44672e-19 0.976162)
(6.08819 -2.08524e-18 1.08988)
(5.62925 1.29638e-18 1.21129)
(5.13102 1.06569e-18 1.33837)
(4.59089 1.73347e-19 1.46773)
(4.00568 -1.28952e-18 1.5939)
(3.37024 -3.31742e-19 1.70818)
(2.67779 -3.3834e-19 1.79601)
(1.86782 3.08654e-18 1.84133)
(1.13318 -2.92703e-18 1.82435)
(9.99236 1.16539e-19 0.0391675)
(9.97959 7.11147e-21 0.0695602)
(9.95126 -1.4761e-20 0.0961769)
(9.90477 0 0.123426)
(9.84347 -6.41737e-20 0.152316)
(9.76934 0 0.182998)
(9.68228 1.40046e-19 0.215941)
(9.58174 -1.09526e-19 0.251819)
(9.46733 7.58245e-20 0.29121)
(9.3386 1.60068e-19 0.334648)
(9.19495 -1.6539e-19 0.382781)
(9.03563 -1.96711e-19 0.436357)
(8.85982 1.77845e-19 0.496159)
(8.6665 -3.77299e-19 0.562985)
(8.45454 3.70563e-19 0.63772)
(8.22296 2.61e-20 0.721445)
(7.97065 -1.09057e-19 0.815297)
(7.69597 5.7238e-20 0.920267)
(7.39713 -9.03883e-19 1.03725)
(7.0723 -1.59078e-20 1.16707)
(6.71938 1.16668e-18 1.3103)
(6.33586 -1.36787e-19 1.46698)
(5.91874 1.39886e-19 1.63644)
(5.46423 0 1.81697)
(4.96724 0 2.00556)
(4.42055 -3.12664e-19 2.19748)
(3.81268 -1.94822e-18 2.38601)
(3.12911 2.95145e-18 2.56207)
(2.31607 -4.96506e-18 2.71841)
(1.43446 4.97806e-18 2.90479)
(9.99143 1.22899e-19 0.0433631)
(9.97714 -1.41516e-20 0.080588)
(9.9485 -1.17815e-19 0.114542)
(9.90284 1.84348e-19 0.148829)
(9.84288 6.41902e-20 0.184927)
(9.77045 0 0.223333)
(9.68538 -6.97118e-20 0.264643)
(9.58731 1.09648e-19 0.309615)
(9.47597 -1.50967e-19 0.358929)
(9.35094 1.59211e-19 0.41323)
(9.21171 -1.23176e-19 0.473295)
(9.05771 -3.25997e-19 0.540014)
(8.88828 3.58718e-19 0.614318)
(8.7027 3.81362e-19 0.697174)
(8.50006 -3.54693e-19 0.789618)
(8.27952 -4.1535e-19 0.892881)
(8.04042 -3.32985e-19 1.00838)
(7.7817 8.9435e-19 1.13751)
(7.50195 1.06558e-18 1.28153)
(7.19972 -1.09733e-18 1.44172)
(6.87321 -1.22185e-21 1.61915)
(6.52001 0 1.81455)
(6.13698 -2.7844e-19 2.02811)
(5.71977 0 2.25916)
(5.26213 0 2.50604)
(4.75479 3.0651e-19 2.76614)
(4.18383 4.67644e-18 3.03627)
(3.53124 -5.03109e-18 3.31435)
(2.78166 -3.18657e-19 3.58115)
(1.78525 1.02493e-18 3.98689)
(9.99103 -1.0912e-19 0.0483179)
(9.97588 1.12817e-19 0.091683)
(9.94718 1.17673e-19 0.132522)
(9.90248 -6.11859e-20 0.173804)
(9.84414 -2.55028e-19 0.217135)
(9.77374 0 0.263262)
(9.69103 0 0.312869)
(9.59581 -7.22082e-20 0.366755)
(9.48792 0 0.42569)
(9.36692 1.58211e-19 0.490444)
(9.23239 -2.04451e-19 0.56191)
(9.08385 3.44835e-19 0.6411)
(8.92079 -3.55648e-19 0.729068)
(8.74267 -1.46246e-21 0.826921)
(8.54881 -7.02066e-23 0.935867)
(8.33851 8.19987e-19 1.05728)
(8.11126 -8.44398e-19 1.19274)
(7.86638 8.3797e-19 1.34395)
(7.60288 -1.14904e-18 1.51257)
(7.31967 1.21498e-21 1.70031)
(7.01532 -1.25859e-19 1.90883)
(6.68773 -2.58249e-19 2.13962)
(6.33395 2.16718e-18 2.39387)
(5.94974 -2.21225e-18 2.67235)
(5.52887 -2.83486e-19 2.97535)
(5.06216 0 3.3026)
(4.53662 -4.47527e-18 3.65339)
(3.92811 9.29449e-18 4.0327)
(3.28928 -4.85777e-18 4.38417)
(2.19193 -5.50219e-18 4.99233)
(9.99097 1.35895e-20 0.053624)
(9.9754 -9.85715e-20 0.102831)
(9.94691 1.46474e-19 0.150157)
(9.90341 6.09803e-20 0.198159)
(9.84694 6.40649e-20 0.248456)
(9.77887 6.69002e-20 0.30199)
(9.69897 -2.76135e-19 0.359542)
(9.6071 7.08245e-20 0.421952)
(9.50313 -1.36945e-21 0.490082)
(9.38675 4.69706e-19 0.564825)
(9.25754 -6.51824e-19 0.647187)
(9.1151 2.95535e-19 0.738275)
(8.95906 3.56395e-19 0.839233)
(8.78898 -3.67144e-19 0.951276)
(8.60439 -7.87228e-19 1.07576)
(8.40476 1.60564e-18 1.21422)
(8.1897 -8.834e-19 1.36838)
(7.95871 5.46659e-20 1.54014)
(7.71106 1.13801e-19 1.73153)
(7.44599 -1.77657e-18 1.94468)
(7.16244 1.941e-18 2.18184)
(6.85876 2.53868e-18 2.44532)
(6.53244 -2.0762e-18 2.73735)
(6.17974 0 3.06008)
(5.79517 4.69151e-18 3.41571)
(5.37078 -4.4699e-18 3.80618)
(4.89711 -4.81546e-18 4.23122)
(4.33679 4.96139e-18 4.70437)
(3.83469 7.14181e-20 5.11012)
(2.64462 -1.48016e-19 5.89184)
(9.99104 0 0.0590461)
(9.97545 2.24022e-19 0.113921)
(9.94751 -1.16863e-19 0.167359)
(9.90538 -1.82136e-19 0.221747)
(9.85096 6.35935e-20 0.278723)
(9.78548 0 0.33936)
(9.70875 0 0.404524)
(9.62062 1.43562e-19 0.4751)
(9.52105 7.65874e-20 0.55201)
(9.40982 -3.08727e-19 0.636262)
(9.28657 0 0.728982)
(9.15097 2.24384e-22 0.831354)
(9.00279 3.52347e-19 0.944583)
(8.84164 3.7117e-19 1.06998)
(8.66719 -7.54948e-19 1.20904)
(8.47905 1.22911e-20 1.36342)
(8.27703 8.267e-19 1.53502)
(8.06073 1.03861e-20 1.72596)
(7.82958 -8.8067e-19 1.93853)
(7.58317 0 2.17524)
(7.32069 1.9089e-18 2.43886)
(7.04112 -2.66009e-19 2.73255)
(6.74254 2.00608e-18 3.05959)
(6.42172 0 3.42336)
(6.07441 -2.59824e-19 3.82753)
(5.69388 0 4.2758)
(5.27637 0 4.76645)
(4.76272 -1.35246e-19 5.32484)
(4.40493 -4.11551e-18 5.76104)
(3.12869 4.75522e-18 6.68637)
(9.99103 0 0.0644479)
(9.97591 -2.23689e-19 0.1248)
(9.94889 0 0.184026)
(9.9083 1.8179e-19 0.244485)
(9.8561 -1.89133e-19 0.307833)
(9.79349 1.30736e-19 0.375239)
(9.72023 0 0.447651)
(9.63625 -2.85127e-19 0.525989)
(9.54156 3.68368e-19 0.611224)
(9.43592 0 0.704449)
(9.31911 2.4175e-19 0.806901)
(9.19106 -2.89462e-19 0.919845)
(9.05151 6.95946e-19 1.04455)
(8.90014 -1.48425e-18 1.18243)
(8.73672 7.67009e-19 1.33507)
(8.561 7.68798e-19 1.50424)
(8.37297 -8.01349e-19 1.692)
(8.17239 -1.67962e-18 1.90069)
(7.9589 1.71983e-18 2.13288)
(7.73229 -1.73958e-18 2.39137)
(7.49199 3.68172e-18 2.67936)
(7.23762 1.88458e-18 3.00078)
(6.96807 1.19858e-19 3.36003)
(6.68069 0 3.7615)
(6.3724 2.5361e-19 4.20993)
(6.03717 -3.99064e-18 4.71053)
(5.67847 4.09898e-18 5.25842)
(5.20767 -3.9343e-18 5.89506)
(4.98843 1.31688e-19 6.34984)
(3.63193 4.28866e-18 7.39488)
(9.99104 2.01047e-19 0.0697482)
(9.97661 -2.08197e-19 0.135329)
(9.9508 2.31053e-19 0.200045)
(9.912 2.40402e-19 0.266273)
(9.86228 -2.50668e-19 0.335664)
(9.80279 1.29981e-19 0.409467)
(9.73339 -1.35269e-19 0.48872)
(9.654 2.82982e-19 0.574382)
(9.56463 -4.38175e-19 0.667469)
(9.46502 -3.06002e-19 0.769123)
(9.35512 7.12688e-19 0.880631)
(9.23508 3.33625e-19 1.00335)
(9.10473 -1.36659e-18 1.13867)
(8.96382 1.46287e-18 1.28807)
(8.81223 -7.54952e-19 1.45323)
(8.64991 0 1.63602)
(8.47679 -1.59839e-18 1.83857)
(8.29292 1.62374e-18 2.06347)
(8.0984 -1.30621e-20 2.31356)
(7.89308 1.65942e-18 2.59194)
(7.67669 -1.80154e-18 2.90219)
(7.44898 0 3.24875)
(7.20997 -8.86781e-20 3.6371)
(6.9581 -1.45224e-20 4.07278)
(6.69105 0 4.56127)
(6.40283 -1.4658e-19 5.10944)
(6.10476 -5.98614e-20 5.70833)
(5.6737 0 6.41872)
(5.57997 8.72138e-19 6.89452)
(4.14948 0 8.04768)
(9.99115 2.608e-20 0.0748783)
(9.97752 1.94052e-19 0.145421)
(9.95308 -2.88286e-19 0.215329)
(9.91629 -1.80124e-19 0.287011)
(9.86926 3.73406e-19 0.362095)
(9.81311 0 0.441897)
(9.74784 1.34865e-19 0.527543)
(9.67338 1.39509e-19 0.620055)
(9.58968 1.45617e-19 0.720488)
(9.49658 0 0.829997)
(9.39414 0 0.94988)
(9.28259 -7.33567e-19 1.08158)
(9.16192 7.5468e-19 1.22658)
(9.03206 -7.01331e-19 1.38647)
(8.89298 7.19458e-19 1.56298)
(8.7449 0 1.75811)
(8.58768 1.56239e-18 1.97403)
(8.42155 -3.18256e-18 2.21345)
(8.24715 7.61066e-22 2.47951)
(8.06452 1.7009e-18 2.77564)
(7.87385 -1.69503e-18 3.10587)
(7.67493 -1.74729e-18 3.47495)
(7.46829 3.52037e-18 3.88903)
(7.25395 -3.56579e-18 4.35502)
(7.03065 3.78058e-18 4.87938)
(6.79169 -3.45495e-18 5.47101)
(6.55637 4.25642e-19 6.11741)
(6.16605 0 6.89975)
(6.18344 -8.47124e-19 7.41385)
(4.68718 6.92767e-18 8.68364)
(9.99133 -6.37953e-19 0.0797801)
(9.97858 0 0.155017)
(9.95566 0 0.229803)
(9.92107 3.57066e-19 0.306606)
(9.87691 -3.71589e-19 0.387022)
(9.82432 -2.56695e-19 0.472409)
(9.76341 0 0.563986)
(9.6941 -6.8784e-22 0.662845)
(9.61642 0 0.770066)
(9.53027 0 0.8868)
(9.43574 3.10714e-19 1.01436)
(9.33314 4.04927e-19 1.15422)
(9.22262 -6.61961e-19 1.30797)
(9.10428 0 1.47724)
(8.97823 -8.82196e-20 1.66384)
(8.84497 -7.34857e-19 1.86988)
(8.70451 -7.62241e-19 2.09762)
(8.55717 1.54498e-18 2.34978)
(8.40387 -9.85567e-20 2.6297)
(8.24506 -1.00653e-19 2.94114)
(8.08149 0 3.28859)
(7.91359 0 3.67727)
(7.74188 0 4.11359)
(7.56756 0 4.60554)
(7.39107 -2.13667e-19 5.16116)
(7.20472 0 5.79189)
(7.03567 -4.10902e-19 6.48431)
(6.69475 0 7.3382)
(6.81381 2.82353e-18 7.9225)
(5.26606 -9.3101e-18 9.34778)
(9.99155 2.79452e-20 0.0844154)
(9.97974 -2.46091e-19 0.164067)
(9.95845 0 0.243406)
(9.9262 -1.19518e-19 0.324975)
(9.88508 1.22762e-19 0.410344)
(9.83626 2.55965e-19 0.500894)
(9.77986 0 0.597927)
(9.71593 -1.37826e-19 0.702598)
(9.64454 0 0.816002)
(9.56563 0 0.939295)
(9.47937 -6.13657e-19 1.07379)
(9.38614 6.30374e-19 1.22099)
(9.28622 -8.20742e-20 1.38252)
(9.17981 0 1.56005)
(9.06723 8.74561e-20 1.75544)
(8.9492 0 1.97085)
(8.82606 -1.47617e-18 2.20868)
(8.69828 8.60947e-20 2.47167)
(8.56694 3.08455e-18 2.76322)
(8.43294 -3.03999e-18 3.08732)
(8.29757 1.59129e-18 3.44877)
(8.16219 -1.60231e-18 3.85326)
(8.02806 1.811e-18 4.30766)
(7.89703 0 4.82059)
(7.77121 3.49523e-18 5.40176)
(7.64289 -3.09463e-18 6.06577)
(7.54658 0 6.80243)
(7.27504 0 7.72484)
(7.49815 2.47139e-18 8.42323)
(5.92869 -2.74875e-18 10.0903)
(9.99181 4.21861e-19 0.0887535)
(9.98101 1.63776e-19 0.172526)
(9.96147 5.65728e-20 0.25609)
(9.93168 -1.179e-19 0.342061)
(9.89376 -1.21948e-19 0.431985)
(9.84885 0 0.527263)
(9.79713 -5.25797e-19 0.629265)
(9.73878 2.71756e-19 0.739192)
(9.67384 0 0.858155)
(9.60237 0 0.987309)
(9.52467 -7.56087e-19 1.12795)
(9.44115 6.21782e-19 1.28161)
(9.35217 -1.60144e-19 1.44992)
(9.25803 0 1.63458)
(9.15936 6.84244e-19 1.83744)
(9.05689 -8.72919e-19 2.06064)
(8.95129 -1.61708e-18 2.30668)
(8.84352 1.1902e-18 2.57841)
(8.73474 9.42162e-20 2.87917)
(8.62632 1.51507e-18 3.21301)
(8.5201 -1.53131e-18 3.58489)
(8.41829 -3.79002e-19 4.0007)
(8.32359 -3.60787e-18 4.4678)
(8.23873 3.03714e-18 4.99537)
(8.16785 -3.74873e-19 5.59442)
(8.10529 2.07367e-18 6.28226)
(8.09238 -5.31474e-18 7.05621)
(7.92468 1.3829e-18 8.03333)
(8.27633 4.49094e-18 8.88844)
(6.74616 -1.77077e-18 10.9693)
(9.99206 0 0.0927722)
(9.98235 0 0.18034)
(9.96471 0 0.267781)
(9.93758 1.17082e-19 0.357784)
(9.90304 -1.21117e-19 0.451866)
(9.86218 2.50958e-19 0.551437)
(9.8153 2.60037e-19 0.657913)
(9.76266 8.09003e-19 0.772546)
(9.70431 -4.19361e-19 0.896449)
(9.64046 1.44078e-19 1.03074)
(9.57146 2.98017e-19 1.17673)
(9.49776 -6.165e-19 1.33596)
(9.4199 9.48299e-19 1.51005)
(9.33827 0 1.70067)
(9.2538 -1.66238e-19 1.90967)
(9.16716 1.72431e-19 2.13912)
(9.07926 -1.22593e-18 2.39154)
(8.99163 1.77736e-19 2.66981)
(8.90566 2.8959e-18 2.97718)
(8.82317 -1.4649e-18 3.31763)
(8.74665 3.63677e-19 3.69602)
(8.67913 9.51902e-21 4.11825)
(8.62458 3.68985e-19 4.59166)
(8.58733 7.00011e-19 5.12563)
(8.57479 6.74657e-19 5.73175)
(8.58577 1.30983e-18 6.42782)
(8.66861 0 7.2197)
(8.6512 -3.22893e-18 8.21318)
(9.18834 3.03694e-18 9.21976)
(7.81776 -3.73356e-19 12.0995)
(0.109287 0 -0.0874251)
(0.269056 -8.52661e-21 -0.110253)
(0.469124 7.75573e-21 -0.0912757)
(0.662042 -6.85115e-21 -0.0699659)
(0.830495 -3.10999e-21 -0.0539063)
(0.976056 6.41147e-21 -0.0432079)
(1.10515 1.63678e-21 -0.0364255)
(1.2218 0 -0.0319917)
(1.32867 0 -0.0287205)
(1.42746 9.97153e-22 -0.0257807)
(1.51823 0 -0.0226376)
(1.60028 0 -0.0188624)
(1.67234 0 -0.0142808)
(1.73271 -1.16448e-21 -0.00913784)
(1.7802 -1.21664e-23 -0.00405952)
(1.81538 3.46761e-21 0.00026769)
(1.83988 0 0.00336676)
(1.85563 -1.67262e-21 0.00491658)
(1.86597 -5.39878e-22 0.0049418)
(1.8743 0 0.00383907)
(1.88307 0 0.00202534)
(1.89463 0 -0.000149364)
(1.90998 1.58471e-21 -0.00233563)
(1.92904 -1.39854e-21 -0.00415846)
(1.95085 -1.19848e-21 -0.00532417)
(1.97372 0 -0.00577113)
(1.99625 0 -0.00562498)
(2.01727 0 -0.00508771)
(2.03632 6.96333e-24 -0.00437385)
(2.0571 -1.19062e-22 -0.0038165)
(0.0936109 0 -0.201957)
(0.236477 3.29501e-20 -0.244212)
(0.440934 -5.9337e-20 -0.208877)
(0.63898 2.73676e-20 -0.168077)
(0.818586 -2.21907e-20 -0.137499)
(0.980032 2.51598e-20 -0.11728)
(1.12496 -1.6414e-21 -0.104841)
(1.25665 -4.29919e-22 -0.0972098)
(1.37823 7.63885e-21 -0.092007)
(1.49241 -8.74314e-21 -0.087514)
(1.60051 -4.19724e-21 -0.0825675)
(1.70256 -4.38629e-21 -0.0762491)
(1.79828 -4.57685e-21 -0.0681369)
(1.8876 -6.00097e-23 -0.0584316)
(1.96961 0 -0.04786)
(2.04344 -6.44191e-25 -0.037363)
(2.10896 -1.64468e-23 -0.0278182)
(2.1664 -1.71874e-23 -0.0202154)
(2.21675 0 -0.0153125)
(2.262 -4.06639e-21 -0.0131693)
(2.304 -9.17757e-22 -0.0133997)
(2.34435 9.04713e-22 -0.0152581)
(2.38357 -1.5756e-21 -0.0177538)
(2.42135 1.06496e-21 -0.0199559)
(2.45731 1.23908e-21 -0.0211893)
(2.49082 5.0269e-23 -0.021209)
(2.52132 2.17345e-22 -0.0201215)
(2.54835 0 -0.0181943)
(2.57157 1.38042e-23 -0.0157134)
(2.59332 9.81433e-23 -0.0127919)
(0.0638765 1.21351e-22 -0.340738)
(0.165809 3.17746e-20 -0.38196)
(0.362254 -1.36374e-20 -0.332399)
(0.544353 1.24582e-20 -0.274487)
(0.711048 5.96357e-21 -0.22977)
(0.860641 0 -0.199613)
(0.993798 -2.63899e-20 -0.180364)
(1.11323 4.13409e-20 -0.168409)
(1.22248 8.43898e-22 -0.160571)
(1.32484 -1.14734e-20 -0.154274)
(1.42254 8.39673e-21 -0.147616)
(1.51587 -4.38703e-21 -0.139456)
(1.60609 9.16066e-21 -0.129124)
(1.69303 4.73977e-21 -0.116759)
(1.77641 0 -0.102994)
(1.85568 0 -0.0888595)
(1.93075 0 -0.0755081)
(2.00149 4.39355e-21 -0.0641355)
(2.06753 -1.2949e-20 -0.0557703)
(2.12885 2.07018e-21 -0.050738)
(2.18537 -3.74103e-21 -0.0486269)
(2.23696 3.68766e-21 -0.0484123)
(2.2835 1.66782e-21 -0.0487519)
(2.32465 -6.57389e-22 -0.0485318)
(2.36025 -1.77774e-21 -0.0470937)
(2.39012 -3.99126e-21 -0.0442659)
(2.41412 0 -0.0402466)
(2.43221 -2.19964e-21 -0.0353677)
(2.44466 0 -0.0298615)
(2.45187 0 -0.0233567)
(0.0338263 -7.12451e-20 -0.477327)
(0.0826275 5.93661e-20 -0.497076)
(0.278317 5.27517e-20 -0.435041)
(0.444293 -1.21484e-19 -0.36264)
(0.593487 4.10001e-20 -0.306508)
(0.725226 0 -0.267894)
(0.839784 2.61324e-20 -0.242865)
(0.940264 -2.643e-20 -0.227357)
(1.03033 0 -0.21763)
(1.11373 -2.03158e-20 -0.210527)
(1.19374 -1.17902e-20 -0.203468)
(1.2714 -8.41441e-21 -0.194971)
(1.34759 9.21666e-21 -0.184411)
(1.42327 -1.83856e-20 -0.171617)
(1.49828 0 -0.156997)
(1.57205 0 -0.141637)
(1.64412 0 -0.126812)
(1.71413 0 -0.113615)
(1.78112 -1.24953e-22 -0.102883)
(1.84409 -8.33781e-21 -0.0948564)
(1.90195 1.9757e-21 -0.0890709)
(1.9536 5.53023e-21 -0.084586)
(1.99823 0 -0.0802829)
(2.03522 5.10977e-21 -0.0752376)
(2.0642 3.08968e-21 -0.0689211)
(2.08499 3.55022e-21 -0.0612338)
(2.09761 3.59764e-21 -0.0524491)
(2.10231 2.09531e-21 -0.0430429)
(2.10011 1.36551e-22 -0.0334589)
(2.08887 -4.44154e-22 -0.023828)
(0.00467001 7.6821e-21 -0.610771)
(-0.0112174 0 -0.591952)
(0.192659 1.25395e-20 -0.519962)
(0.339415 -3.33035e-20 -0.435627)
(0.468766 8.96065e-20 -0.369571)
(0.578559 -9.32768e-20 -0.323222)
(0.669542 4.99366e-20 -0.293222)
(0.746461 0 -0.2754)
(0.81393 0 -0.264669)
(0.876172 0 -0.257412)
(0.936505 8.49444e-21 -0.250832)
(0.996402 8.93381e-21 -0.243071)
(1.0569 9.24349e-21 -0.233345)
(1.11856 -9.47428e-21 -0.221443)
(1.18152 9.36688e-21 -0.207564)
(1.24576 -9.4558e-21 -0.192374)
(1.31019 1.87615e-20 -0.176992)
(1.37374 4.52092e-21 -0.162442)
(1.43497 -4.78392e-23 -0.149399)
(1.49236 1.67475e-20 -0.138052)
(1.5445 -4.05836e-21 -0.128046)
(1.5902 -7.24786e-21 -0.118645)
(1.62853 1.56952e-21 -0.109001)
(1.65895 -1.40544e-21 -0.0984605)
(1.68132 0 -0.0867241)
(1.69567 4.178e-21 -0.0738816)
(1.70216 7.57511e-23 -0.0603794)
(1.70108 0 -0.0469115)
(1.69321 1.34675e-21 -0.0341955)
(1.67424 4.1936e-22 -0.0228955)
(-0.021667 -4.71506e-20 -0.740357)
(-0.113442 -1.00437e-20 -0.667333)
(0.103568 8.72047e-20 -0.588599)
(0.228891 -4.13901e-20 -0.491109)
(0.335005 0 -0.414052)
(0.418239 2.73169e-21 -0.361718)
(0.481912 -2.78789e-20 -0.329386)
(0.533593 2.61821e-20 -0.310487)
(0.578288 7.49291e-21 -0.299631)
(0.620142 -4.16567e-20 -0.29311)
(0.662045 -4.20926e-20 -0.287932)
(0.705594 -9.00438e-21 -0.281949)
(0.751761 1.31431e-22 -0.274111)
(0.800935 0 -0.263984)
(0.853232 9.70975e-21 -0.251606)
(0.908152 -1.92434e-20 -0.237461)
(0.964745 2.35549e-22 -0.222327)
(1.02193 9.38085e-21 -0.207032)
(1.07802 0 -0.192216)
(1.13133 0 -0.178146)
(1.18035 0 -0.164611)
(1.22375 7.66217e-21 -0.151075)
(1.26043 0 -0.136924)
(1.28964 -1.06892e-20 -0.121705)
(1.31086 -1.39187e-21 -0.105226)
(1.32363 -4.19059e-21 -0.0876693)
(1.32764 -3.25098e-21 -0.0695016)
(1.32259 1.16178e-22 -0.0514823)
(1.30872 1.3281e-21 -0.0346391)
(1.27845 0 -0.020187)
(-0.0432226 -6.29349e-20 -0.864507)
(-0.223395 2.12551e-20 -0.723695)
(0.0108188 -8.67187e-21 -0.638603)
(0.109482 -3.81623e-20 -0.524301)
(0.186301 3.82935e-20 -0.44019)
(0.239966 -4.91904e-20 -0.384601)
(0.276702 1.00942e-19 -0.350845)
(0.304595 -5.25221e-20 -0.332441)
(0.329063 -7.64582e-21 -0.323399)
(0.353934 -6.33866e-23 -0.319434)
(0.38155 8.77403e-21 -0.31721)
(0.413372 0 -0.314359)
(0.449948 -2.89651e-20 -0.309659)
(0.491372 1.92157e-20 -0.302501)
(0.537532 1.95408e-20 -0.292687)
(0.587553 -1.0166e-20 -0.280423)
(0.640211 -2.92722e-20 -0.266319)
(0.694113 -9.92192e-21 -0.251107)
(0.747556 0 -0.235284)
(0.79884 -9.10195e-21 -0.219034)
(0.846229 1.26779e-20 -0.202188)
(0.887894 -1.17084e-20 -0.184451)
(0.922504 1.68087e-21 -0.165471)
(0.949026 -9.81276e-21 -0.145029)
(0.9667 2.6831e-21 -0.123096)
(0.974869 -1.03152e-20 -0.0998499)
(0.972742 0 -0.0756496)
(0.959143 -1.21371e-22 -0.0510517)
(0.93207 -2.68722e-21 -0.027655)
(0.884926 0 -0.0101731)
(-0.0586518 4.97982e-20 -0.980682)
(-0.338512 -5.3005e-20 -0.75904)
(-0.0892526 1.60161e-20 -0.666544)
(-0.0262586 0 -0.536288)
(0.0187512 -3.54756e-20 -0.446567)
(0.04205 4.057e-20 -0.390055)
(0.0534349 -1.57287e-21 -0.35836)
(0.0610615 -7.06534e-21 -0.34361)
(0.0700586 -3.2796e-20 -0.339009)
(0.0832001 4.09942e-20 -0.339717)
(0.101893 -1.83045e-20 -0.342102)
(0.127047 2.50112e-22 -0.343666)
(0.158586 -1.90935e-20 -0.343095)
(0.19618 -3.96821e-20 -0.339642)
(0.239221 -2.01193e-20 -0.332843)
(0.286484 2.01589e-20 -0.322667)
(0.336579 -1.01324e-20 -0.309577)
(0.38767 4.99303e-20 -0.294249)
(0.438122 0 -0.277157)
(0.486156 9.11903e-21 -0.258506)
(0.529938 -8.60947e-21 -0.238191)
(0.567706 0 -0.21603)
(0.597919 -1.52474e-20 -0.191917)
(0.619336 -6.77063e-22 -0.165808)
(0.630944 1.03799e-20 -0.137741)
(0.631775 9.88513e-21 -0.107574)
(0.619363 5.16756e-22 -0.0752476)
(0.59212 -5.34911e-21 -0.0418235)
(0.554331 0 -0.0116486)
(0.503468 -1.01953e-21 0.00728882)
(-0.0695347 2.28143e-20 -1.08799)
(-0.457343 8.17525e-21 -0.76963)
(-0.199856 -2.93878e-20 -0.666047)
(-0.18187 -4.101e-21 -0.521758)
(-0.171957 2.93328e-20 -0.431207)
(-0.177947 1.1528e-21 -0.379161)
(-0.18822 -6.31712e-21 -0.355083)
(-0.195865 7.2282e-21 -0.34786)
(-0.197141 2.57003e-20 -0.350242)
(-0.190966 -6.98228e-20 -0.357198)
(-0.177104 -1.74254e-20 -0.365183)
(-0.155529 1.91089e-20 -0.371816)
(-0.126872 6.05137e-20 -0.375792)
(-0.0917846 -2.10176e-20 -0.376268)
(-0.0511859 2.14827e-20 -0.372563)
(-0.00610176 2.16165e-20 -0.36428)
(0.0413888 2.15322e-20 -0.35178)
(0.089238 -4.16045e-20 -0.33595)
(0.136 -2.56973e-20 -0.317322)
(0.180067 4.92332e-21 -0.296002)
(0.219564 0 -0.271869)
(0.25263 4.13365e-21 -0.244828)
(0.277558 -4.98726e-21 -0.214937)
(0.293068 1.19532e-20 -0.1823)
(0.298084 -1.00942e-20 -0.147002)
(0.291855 -5.58821e-22 -0.109255)
(0.276454 5.52942e-22 -0.0699711)
(0.252537 5.36881e-21 -0.0312972)
(0.220102 3.4445e-23 0.00232806)
(0.185464 9.89646e-22 0.0242539)
(-0.0753478 -1.83838e-20 -1.18399)
(-0.57174 4.03246e-20 -0.740626)
(-0.329485 -2.78356e-20 -0.62807)
(-0.362881 -3.02543e-20 -0.47862)
(-0.389584 3.0636e-20 -0.398843)
(-0.420645 -4.03332e-21 -0.358983)
(-0.447085 6.46437e-21 -0.345933)
(-0.464789 0 -0.348704)
(-0.472086 8.21764e-21 -0.359693)
(-0.469482 0 -0.373897)
(-0.457793 -1.94681e-20 -0.388003)
(-0.437879 -1.98824e-20 -0.399797)
(-0.410796 0 -0.408117)
(-0.377457 2.11144e-20 -0.412238)
(-0.33861 -3.24675e-20 -0.411302)
(-0.295801 3.55435e-22 -0.404626)
(-0.251241 -3.23687e-20 -0.392445)
(-0.206782 2.1188e-20 -0.375784)
(-0.163755 2.06773e-20 -0.355423)
(-0.123432 2.10346e-20 -0.331389)
(-0.0874699 2.00754e-20 -0.303337)
(-0.057824 -1.88393e-20 -0.271156)
(-0.0362523 3.35293e-20 -0.235185)
(-0.0238141 0 -0.196084)
(-0.020347 0 -0.154703)
(-0.0244906 -1.18699e-20 -0.111883)
(-0.0361456 -8.26414e-21 -0.0684063)
(-0.0554995 -1.51736e-22 -0.0260296)
(-0.0812003 -3.64285e-21 0.0107751)
(-0.103135 -1.24995e-21 0.0365115)
(-0.0712219 -8.12177e-21 -1.24725)
(-0.672406 1.01967e-20 -0.654822)
(-0.493137 0 -0.552468)
(-0.572694 -1.71532e-22 -0.415509)
(-0.632709 -3.10816e-21 -0.352746)
(-0.683496 5.13043e-20 -0.330624)
(-0.720622 -4.79924e-20 -0.332708)
(-0.743497 0 -0.347959)
(-0.753014 -1.73318e-20 -0.369005)
(-0.75113 0 -0.391201)
(-0.739543 1.95173e-20 -0.411679)
(-0.719785 0 -0.428457)
(-0.693307 0 -0.440794)
(-0.660748 -2.26095e-20 -0.448389)
(-0.622414 2.22283e-20 -0.449999)
(-0.580508 -2.34003e-20 -0.444306)
(-0.537723 0 -0.431592)
(-0.495949 0 -0.413517)
(-0.455946 1.73768e-20 -0.391258)
(-0.418311 -1.55168e-20 -0.364673)
(-0.384395 -1.9995e-20 -0.332998)
(-0.356179 1.87647e-20 -0.29608)
(-0.335285 -1.93887e-20 -0.254794)
(-0.322182 -1.65491e-20 -0.210516)
(-0.316363 3.48372e-21 -0.164411)
(-0.317665 2.126e-20 -0.117245)
(-0.325854 9.48795e-21 -0.06993)
(-0.341324 -1.66381e-22 -0.024433)
(-0.361727 -2.35084e-22 0.015394)
(-0.377161 1.25053e-21 0.0444177)
(-0.069294 -1.32641e-21 -1.22437)
(-0.757078 -8.96062e-21 -0.525231)
(-0.689507 9.34188e-21 -0.437313)
(-0.813158 1.3481e-21 -0.329785)
(-0.899445 4.46505e-20 -0.295989)
(-0.962072 -4.36651e-20 -0.298547)
(-1.00292 0 -0.319143)
(-1.02563 -3.38443e-20 -0.348522)
(-1.03329 5.0497e-20 -0.380237)
(-1.02908 -1.94598e-20 -0.410359)
(-1.01537 0 -0.436949)
(-0.994031 0 -0.458226)
(-0.966793 -2.27718e-20 -0.474093)
(-0.933353 -2.35235e-20 -0.484982)
(-0.894113 -1.21545e-20 -0.489119)
(-0.851423 -2.49809e-20 -0.483967)
(-0.808989 1.1866e-20 -0.469879)
(-0.768877 0 -0.449792)
(-0.730844 -2.27999e-20 -0.425697)
(-0.694389 0 -0.397109)
(-0.660527 5.38109e-21 -0.362447)
(-0.631518 -5.31516e-21 -0.321371)
(-0.609239 0 -0.27529)
(-0.594339 1.67104e-20 -0.226144)
(-0.586719 0 -0.175403)
(-0.585854 1.25987e-21 -0.124097)
(-0.591318 1.12895e-20 -0.0733757)
(-0.603505 -5.44271e-22 -0.0251434)
(-0.62005 4.17308e-21 0.0176604)
(-0.63162 0 0.0496952)
(-0.0892612 -6.80425e-21 -1.0772)
(-0.840726 8.943e-21 -0.353629)
(-0.92563 9.64151e-23 -0.284989)
(-1.08206 5.65828e-22 -0.224141)
(-1.18434 -4.03355e-21 -0.233397)
(-1.24799 5.58871e-21 -0.268727)
(-1.28403 3.07039e-20 -0.309286)
(-1.30078 -1.33708e-20 -0.352982)
(-1.30218 0 -0.395424)
(-1.29254 1.94604e-20 -0.432758)
(-1.27448 2.18648e-20 -0.464846)
(-1.24947 -4.40066e-20 -0.489845)
(-1.21946 2.27279e-20 -0.508265)
(-1.18436 3.57139e-20 -0.522343)
(-1.14261 3.7225e-20 -0.529394)
(-1.09704 3.70903e-20 -0.524353)
(-1.05347 1.3527e-20 -0.507545)
(-1.0144 6.30333e-21 -0.484516)
(-0.977816 -1.24173e-20 -0.458819)
(-0.941402 2.53953e-20 -0.429231)
(-0.905924 -1.28343e-20 -0.392448)
(-0.874634 -5.7243e-21 -0.347475)
(-0.850411 0 -0.296389)
(-0.83425 -1.99777e-20 -0.242114)
(-0.825522 -9.70384e-22 -0.18681)
(-0.823059 -2.74574e-20 -0.131771)
(-0.826329 1.23081e-21 -0.0781051)
(-0.835675 0 -0.0273008)
(-0.849186 -1.04402e-20 0.0184939)
(-0.858043 0 0.0533285)
(-0.166835 -9.93181e-21 -0.808716)
(-0.968092 0 -0.131816)
(-1.20451 -1.54731e-21 -0.0881149)
(-1.37667 -1.79776e-21 -0.0939695)
(-1.48244 1.90962e-20 -0.175651)
(-1.52958 7.65105e-21 -0.254517)
(-1.54865 -1.81845e-20 -0.306615)
(-1.55461 -3.45828e-20 -0.362826)
(-1.546 1.75818e-20 -0.417951)
(-1.52802 2.12734e-20 -0.460205)
(-1.50354 -2.20784e-20 -0.495786)
(-1.47287 2.25491e-20 -0.523567)
(-1.44005 4.91857e-20 -0.54339)
(-1.40342 1.23423e-21 -0.560729)
(-1.3577 -3.82768e-20 -0.57183)
(-1.30658 1.29201e-20 -0.566435)
(-1.2604 1.63239e-21 -0.544593)
(-1.22268 0 -0.517064)
(-1.18802 0 -0.49028)
(-1.15101 -5.24018e-20 -0.461365)
(-1.11246 -2.09474e-21 -0.423455)
(-1.07787 0 -0.3743)
(-1.05174 -2.40297e-20 -0.317412)
(-1.03488 -2.0661e-21 -0.257535)
(-1.02562 -2.05725e-20 -0.197773)
(-1.02205 1.50837e-20 -0.139464)
(-1.02352 -1.10369e-20 -0.0832605)
(-1.03049 -9.72822e-21 -0.029979)
(-1.04137 1.04487e-20 0.0187704)
(-1.04812 -2.88497e-23 0.0562309)
(-0.354975 -7.35124e-20 -0.723951)
(-1.28585 7.15609e-20 0.176457)
(-1.51656 -1.24969e-20 0.261)
(-1.70893 0 0.0646051)
(-1.78738 3.6649e-21 -0.175689)
(-1.77539 7.19351e-21 -0.273457)
(-1.76224 -7.40479e-21 -0.299575)
(-1.76341 0 -0.37758)
(-1.74401 2.03955e-20 -0.455111)
(-1.71407 -4.14125e-20 -0.490931)
(-1.6855 2.20096e-20 -0.526529)
(-1.65149 -2.41219e-20 -0.560734)
(-1.61685 -2.44164e-20 -0.58061)
(-1.58027 -2.53929e-20 -0.599649)
(-1.52964 -1.38472e-20 -0.616921)
(-1.46958 2.82704e-20 -0.611446)
(-1.41947 -4.99953e-20 -0.580819)
(-1.38511 3.63835e-20 -0.546115)
(-1.35454 -2.21765e-20 -0.519313)
(-1.31682 2.00918e-20 -0.494013)
(-1.27332 2.31174e-20 -0.456357)
(-1.23396 1.18864e-22 -0.402135)
(-1.20578 2.71892e-20 -0.337967)
(-1.18884 2.05682e-20 -0.271696)
(-1.17976 2.08089e-20 -0.207583)
(-1.17551 -4.95356e-22 -0.146554)
(-1.17542 4.90791e-22 -0.0882324)
(-1.18028 3.1495e-20 -0.0325474)
(-1.18888 -1.32116e-20 0.0191357)
(-1.19395 4.53739e-21 0.059144)
(9.99232 4.0015e-19 0.0965338)
(9.98371 -4.13958e-19 0.187619)
(9.96803 0 0.278631)
(9.94372 3.35144e-19 0.372353)
(9.91276 -3.47246e-19 0.470281)
(9.87609 -2.42145e-19 0.573802)
(9.83422 -1.17053e-21 0.684336)
(9.78752 -2.58278e-19 0.803184)
(9.73613 -4.00232e-19 0.931474)
(9.68032 1.38308e-19 1.07029)
(9.62037 -7.10224e-19 1.22091)
(9.55692 5.82307e-19 1.38489)
(9.49066 -1.50809e-19 1.56382)
(9.42211 0 1.7593)
(9.35237 3.15736e-19 1.97313)
(9.28224 0 2.20735)
(9.21291 -1.3164e-18 2.46438)
(9.14619 1.33677e-18 2.74698)
(9.08388 1.35067e-18 3.05826)
(9.0283 -2.72287e-18 3.40197)
(8.98256 2.38001e-18 3.78267)
(8.95065 1.70607e-18 4.20595)
(8.93747 0 4.67844)
(8.94945 -1.30112e-18 5.20871)
(8.99786 6.31551e-19 5.80715)
(9.08821 5.44547e-19 6.48836)
(9.27646 1.0197e-18 7.26118)
(9.45886 -1.48175e-19 8.19567)
(10.463 -1.74602e-18 9.17087)
(11.5213 0 12.285)
(9.99264 -3.89986e-19 0.100042)
(9.98519 5.21518e-20 0.194372)
(9.97156 -3.646e-19 0.288635)
(9.95021 1.07258e-19 0.385735)
(9.92299 2.25378e-19 0.487185)
(9.89074 -1.30698e-21 0.594303)
(9.85407 0 0.708445)
(9.81348 -2.48057e-19 0.830949)
(9.76931 0 0.962997)
(9.72175 2.66026e-19 1.10566)
(9.67102 0 1.26017)
(9.61803 2.79294e-19 1.42801)
(9.56354 -8.63817e-19 1.6107)
(9.50828 1.18118e-18 1.80979)
(9.45346 -1.0554e-18 2.02699)
(9.40002 3.05826e-19 2.26427)
(9.34946 0 2.52388)
(9.30383 0 2.80835)
(9.26524 1.59436e-18 3.12047)
(9.23652 -1.60743e-18 3.46365)
(9.22127 -1.59049e-18 3.84192)
(9.22426 -1.2783e-18 4.26002)
(9.2514 -6.13083e-19 4.72329)
(9.31081 -6.14659e-19 5.23806)
(9.41594 -5.6591e-19 5.81119)
(9.57764 -2.14837e-18 6.44992)
(9.85127 1.04686e-19 7.15403)
(10.1629 1.32627e-18 7.93594)
(10.8956 -1.13057e-18 8.70098)
(11.7692 -2.31416e-19 9.85784)
(9.993 -3.5302e-19 0.103227)
(9.98678 4.1576e-19 0.200483)
(9.97534 4.57035e-19 0.297653)
(9.957 5.0491e-22 0.397762)
(9.93359 2.68974e-22 0.502356)
(9.90601 -1.12844e-19 0.612678)