/*--------------------------------*- C++ -*----------------------------------*\
| =========                 |                                                 |
| \\      /  F ield         | OpenFOAM: The Open Source CFD Toolbox           |
|  \\    /   O peration     | Version:  dev                                   |
|   \\  /    A nd           | Web:      www.OpenFOAM.org                      |
|    \\/     M anipulation  |                                                 |
\*---------------------------------------------------------------------------*/
FoamFile
{
    version     2.0;
    format      ascii;
    class       surfaceVectorField;
    location    "2.59";
    object      Uf;
}
// * * * * * * * * * * * * * * * * * * * * * * * * * * * * * * * * * * * * * //

dimensions      [0 1 -1 0 0 0 0];

internalField   nonuniform List<vector> 
881
(
(9.91178 1.07001e-20 0.0224423)
(9.97174 1.40768e-21 0.0373303)
(9.81491 1.28738e-22 0.0284947)
(9.92964 -3.2644e-21 0.0423489)
(9.70664 1.66805e-21 0.0333066)
(9.86135 1.7025e-21 0.049173)
(9.58496 0 0.0381877)
(9.77456 -7.12326e-21 0.0574007)
(9.45016 0 0.0431349)
(9.67385 1.12277e-23 0.0660001)
(9.30278 0 0.0481824)
(9.5599 7.77366e-21 0.0748576)
(9.14292 -8.72795e-21 0.0534665)
(9.43241 -8.26613e-23 0.0841837)
(8.97029 6.3913e-22 0.0591275)
(9.29113 -8.73184e-21 0.0942088)
(8.78436 8.72287e-21 0.0652857)
(9.13573 6.22307e-20 0.105123)
(8.58439 0 0.0720563)
(8.96565 -3.69524e-20 0.117103)
(8.36945 -2.10829e-20 0.0795635)
(8.78012 3.91788e-20 0.130338)
(8.13844 1.47779e-21 0.0879441)
(8.57818 -5.61573e-20 0.145041)
(7.89011 2.03552e-20 0.0973476)
(8.35869 6.45477e-20 0.161439)
(7.62303 2.07164e-20 0.107941)
(8.12035 -4.3872e-20 0.17978)
(7.33561 -4.59186e-21 0.119917)
(7.86168 1.81101e-20 0.200338)
(7.02609 2.96245e-20 0.133491)
(7.58102 -1.12325e-19 0.223418)
(6.69261 -7.45607e-20 0.148896)
(7.27658 1.56301e-19 0.249337)
(6.33318 -7.87984e-20 0.166371)
(6.94642 -9.48732e-22 0.278406)
(5.9458 -2.03551e-20 0.186171)
(6.58847 -2.76496e-20 0.310917)
(5.52849 3.90625e-21 0.208544)
(6.20064 -6.19281e-20 0.347117)
(5.78084 6.39457e-20 0.387152)
(10.0028 -1.24996e-20 0.0450631)
(10.0026 3.91518e-20 0.0360969)
(9.97277 -1.59634e-21 0.0590718)
(9.98958 4.8867e-21 0.0554561)
(9.92497 -7.26741e-21 0.0709466)
(9.95367 -6.78346e-21 0.0708419)
(9.86132 -6.97313e-21 0.0834359)
(9.8995 -2.12505e-20 0.0873783)
(9.78215 7.92716e-21 0.0964914)
(9.8305 -1.4822e-20 0.104722)
(9.68786 7.54317e-21 0.110131)
(9.74748 3.86564e-20 0.122698)
(9.57867 -2.3328e-22 0.124639)
(9.65038 1.62345e-20 0.141642)
(9.45441 5.41755e-20 0.140335)
(9.53906 -1.69355e-20 0.161979)
(9.31468 1.47464e-20 0.157502)
(9.41331 5.33553e-20 0.184089)
(9.15885 3.57599e-21 0.176418)
(9.27266 -5.54422e-20 0.208329)
(8.98609 2.40268e-21 0.197385)
(9.11646 2.95109e-20 0.235085)
(8.79539 9.02667e-21 0.220734)
(8.94386 4.11946e-20 0.264782)
(8.58556 -1.57205e-21 0.246823)
(8.75384 -1.27035e-19 0.297884)
(8.35525 -4.54157e-20 0.276046)
(8.54523 -4.51923e-20 0.334895)
(8.1029 -9.18302e-20 0.308839)
(8.31666 9.57409e-20 0.376377)
(7.82679 1.88583e-20 0.345683)
(8.06661 -8.75569e-20 0.422963)
(7.52502 2.27384e-19 0.38706)
(7.79338 1.03137e-19 0.475325)
(7.19554 4.99722e-20 0.433447)
(7.49507 1.50856e-19 0.53414)
(6.83619 -6.96897e-20 0.485279)
(7.16962 -7.10807e-20 0.600075)
(6.44472 0 0.5429)
(6.81484 -5.92474e-20 0.67374)
(6.42835 -5.02731e-19 0.755595)
(9.9958 5.58857e-20 0.049108)
(10.0004 5.32628e-20 0.0378805)
(9.96963 -5.46159e-22 0.0705397)
(9.98487 6.17005e-20 0.0669311)
(9.92572 -2.10597e-20 0.0901782)
(9.95019 -1.35537e-20 0.0908373)
(9.86724 -2.89594e-20 0.110788)
(9.89913 2.84023e-20 0.115031)
(9.79485 1.69429e-20 0.132478)
(9.834 -2.95575e-20 0.140251)
(9.70882 4.69124e-20 0.155309)
(9.75563 -3.06508e-23 0.166486)
(9.60932 -1.09878e-21 0.179661)
(9.66414 4.8701e-20 0.194141)
(9.49629 -1.647e-20 0.206)
(9.55954 -6.71977e-20 0.223782)
(9.36942 -1.88169e-20 0.23477)
(9.44167 -7.08361e-20 0.255953)
(9.22819 -2.80063e-20 0.266424)
(9.31019 -8.71835e-22 0.29118)
(9.07189 6.84844e-20 0.301457)
(9.16457 -9.62728e-22 0.330021)
(8.89969 -9.78226e-20 0.340415)
(9.00415 7.5621e-20 0.373092)
(8.71056 -1.69268e-19 0.383893)
(8.82811 -2.56457e-19 0.421065)
(8.50331 9.83953e-20 0.432549)
(8.6355 3.52083e-19 0.474674)
(8.27663 9.6988e-20 0.487125)
(8.4252 -8.54126e-20 0.534745)
(8.02897 -4.06321e-23 0.548436)
(8.19596 -1.0213e-22 0.60222)
(7.7586 2.73753e-20 0.617337)
(7.94639 -1.79986e-19 0.678122)
(7.46363 2.63716e-20 0.694692)
(7.67486 2.11897e-19 0.763513)
(7.14193 -6.02994e-20 0.781345)
(7.37956 4.22799e-19 0.859493)
(6.79119 -5.68604e-19 0.87804)
(7.05848 -4.64783e-19 0.967142)
(6.7093 -5.02579e-19 1.08744)
(9.99116 5.91936e-20 0.0562866)
(9.999 5.28815e-20 0.0416289)
(9.96521 4.71351e-20 0.0866929)
(9.98146 3.30632e-21 0.0783159)
(9.92214 3.67354e-20 0.115003)
(9.94653 -2.03175e-20 0.110468)
(9.86464 2.66461e-20 0.143767)
(9.89644 2.08503e-22 0.142243)
(9.79376 -4.59345e-20 0.173585)
(9.83269 1.48164e-20 0.175074)
(9.70981 2.69034e-21 0.204771)
(9.75602 -6.15522e-20 0.209255)
(9.61301 -1.95756e-20 0.237862)
(9.66669 -3.21238e-20 0.245276)
(9.50336 -1.21634e-19 0.273484)
(9.56479 -8.45457e-20 0.283807)
(9.38068 -5.16145e-20 0.312256)
(9.45027 -1.07658e-21 0.325528)
(9.24461 2.62164e-20 0.354806)
(9.32285 -5.60926e-20 0.37111)
(9.09463 7.54345e-21 0.401807)
(9.18217 8.49063e-20 0.421256)
(8.93012 -8.87347e-20 0.453998)
(9.02772 -1.04797e-21 0.476735)
(8.7503 2.75419e-19 0.512187)
(8.8589 -8.62957e-20 0.538395)
(8.55428 1.60991e-19 0.577264)
(8.67499 3.54258e-19 0.60716)
(8.34105 -1.81167e-19 0.650245)
(8.4751 -1.84183e-19 0.68406)
(8.10947 -1.82979e-19 0.732269)
(8.25833 -1.21021e-20 0.770298)
(7.8582 1.07681e-20 0.824558)
(8.0237 -1.80213e-19 0.867202)
(7.58574 6.11677e-19 0.928389)
(7.76994 2.11228e-19 0.976189)
(7.29037 5.13075e-21 1.04508)
(7.49566 3.40657e-20 1.09877)
(6.97008 -3.99681e-19 1.17594)
(7.19923 -4.70078e-19 1.23652)
(6.87871 4.16614e-19 1.39103)
(9.98875 -3.92882e-21 0.0643361)
(9.99832 -4.36268e-20 0.0463962)
(9.96237 -6.46371e-20 0.102401)
(9.97959 -5.83422e-20 0.0898989)
(9.91998 -5.64353e-20 0.138298)
(9.94447 -4.05595e-20 0.129802)
(9.86344 -1.13453e-20 0.174384)
(9.89528 9.82547e-20 0.169023)
(9.79388 -2.26895e-21 0.211682)
(9.83297 1.21508e-22 0.209266)
(9.71172 -9.58297e-20 0.250752)
(9.75807 -6.13227e-20 0.251152)
(9.61713 -9.80563e-20 0.292241)
(9.6709 -6.85767e-22 0.295284)
(9.51016 3.7584e-20 0.336882)
(9.57162 3.26273e-20 0.342421)
(9.3907 -6.46004e-21 0.385412)
(9.46018 6.98177e-20 0.393355)
(9.25848 5.13505e-21 0.438585)
(9.33642 -7.37451e-20 0.448882)
(9.11311 7.4903e-20 0.4972)
(9.20005 7.62327e-20 0.509826)
(8.95411 0 0.562139)
(9.0507 1.98278e-20 0.577083)
(8.7809 0 0.634371)
(8.88791 -1.67277e-19 0.651654)
(8.59279 0 0.714953)
(8.71116 1.7798e-19 0.73463)
(8.38903 -1.22403e-20 0.805086)
(8.51971 7.06973e-22 0.827194)
(8.16882 -1.20147e-20 0.906164)
(8.31289 -1.20494e-20 0.930719)
(7.93123 2.64614e-20 1.01972)
(8.0901 3.74517e-19 1.04681)
(7.67512 -3.69027e-19 1.1474)
(7.85041 -4.10935e-19 1.17721)
(7.39918 -4.49087e-19 1.29093)
(7.59283 4.59545e-20 1.32379)
(7.1019 3.58242e-19 1.45218)
(7.31605 -4.55205e-19 1.48856)
(7.01862 3.58939e-19 1.67375)
(9.98754 -9.83269e-20 0.0727918)
(9.99803 -1.92649e-19 0.0516766)
(9.96084 -3.3893e-20 0.117939)
(9.97871 9.6406e-20 0.101628)
(9.91924 1.1698e-19 0.161189)
(9.9437 -5.39298e-20 0.14879)
(9.86397 1.07827e-19 0.204598)
(9.89558 5.65193e-20 0.195224)
(9.7961 -6.0118e-20 0.249391)
(9.83497 -3.97154e-22 0.242665)
(9.71606 3.49771e-20 0.296306)
(9.7622 1.22002e-19 0.292004)
(9.62405 1.30701e-19 0.346082)
(9.67757 -6.32151e-20 0.343986)
(9.52011 6.55805e-20 0.399532)
(9.58131 3.35499e-20 0.399446)
(9.40418 0 0.4575)
(9.4734 3.45684e-20 0.459265)
(9.27608 0 0.520854)
(9.35374 0 0.524347)
(9.13552 2.017e-20 0.590509)
(9.22212 -1.14145e-19 0.595623)
(8.98215 -1.50618e-19 0.667476)
(9.07826 2.95622e-19 0.674095)
(8.81552 1.64072e-20 0.752882)
(8.92182 -3.30893e-19 0.760891)
(8.63511 1.7589e-19 0.847943)
(8.75246 1.7273e-19 0.857267)
(8.4403 6.9604e-22 0.953998)
(8.56963 5.01086e-24 0.964556)
(8.23054 3.80563e-19 1.07262)
(8.37274 5.82126e-21 1.08423)
(8.00524 -7.44515e-20 1.20563)
(8.16139 -5.85309e-21 1.21808)
(7.76359 1.04997e-20 1.35502)
(7.93503 -5.87776e-20 1.36818)
(7.50461 3.32791e-20 1.52289)
(7.69304 3.29317e-19 1.53676)
(7.22718 -4.43981e-19 1.71159)
(7.43437 4.41151e-19 1.72619)
(7.15797 -8.50811e-19 1.93921)
(9.987 7.43817e-21 0.0814441)
(9.99796 1.04751e-19 0.057186)
(9.96029 7.32973e-20 0.133311)
(9.97847 -1.08666e-19 0.113364)
(9.91964 -1.12163e-19 0.183601)
(9.94388 -2.69227e-20 0.167363)
(9.86591 -5.28515e-20 0.234086)
(9.89705 -2.82703e-20 0.220723)
(9.80004 1.84123e-19 0.286088)
(9.83839 -2.893e-20 0.275113)
(9.7225 2.03599e-20 0.340517)
(9.76804 9.22493e-20 0.331629)
(9.6335 -1.58689e-19 0.398224)
(9.68635 -1.27176e-19 0.391158)
(9.53309 2.53114e-21 0.460106)
(9.59354 -9.90896e-20 0.454614)
(9.42126 3.39799e-20 0.5271)
(9.48968 1.36612e-22 0.522953)
(9.29788 -1.16129e-19 0.600173)
(9.3747 0 0.597167)
(9.16276 1.68257e-19 0.680343)
(9.24848 -1.14423e-19 0.678284)
(9.01563 1.05099e-19 0.768725)
(9.11077 2.95556e-19 0.767402)
(8.85618 -1.664e-19 0.866576)
(8.96135 -5.11054e-19 0.865745)
(8.68407 -6.01151e-21 0.975274)
(8.80001 1.16204e-20 0.974692)
(8.49884 5.22122e-21 1.09629)
(8.62648 3.50447e-19 1.09575)
(8.30004 -3.8085e-19 1.23131)
(8.44029 3.70485e-19 1.23052)
(8.08728 8.50328e-21 1.38236)
(8.24104 -7.73839e-19 1.3809)
(7.86013 2.66143e-19 1.55175)
(8.0285 1.20591e-18 1.54917)
(7.61794 7.38483e-19 1.74198)
(7.80242 -8.76429e-19 1.73795)
(7.35985 2.03103e-20 1.95576)
(7.56215 8.33014e-19 1.95002)
(7.30692 -7.93358e-19 2.18845)
(9.98684 -1.52494e-20 0.0901266)
(9.99802 1.32628e-20 0.0627629)
(9.96046 -2.07265e-19 0.148408)
(9.97865 -1.15758e-19 0.124968)
(9.92095 5.70002e-20 0.205402)
(9.94481 1.06365e-19 0.185432)
(9.86899 -4.34306e-21 0.262675)
(9.8995 -5.49966e-20 0.245409)
(9.80539 -1.18601e-19 0.321599)
(9.843 -1.15637e-19 0.306479)
(9.73068 -5.93983e-20 0.383234)
(9.77536 -7.65133e-24 0.369869)
(9.64506 -6.70328e-20 0.448543)
(9.69693 -6.26509e-20 0.436604)
(9.54865 -9.97647e-20 0.518498)
(9.60799 -1.31783e-19 0.507682)
(9.44145 -3.3872e-20 0.594111)
(9.50863 3.33581e-20 0.584121)
(9.32343 -1.86337e-22 0.67644)
(9.39887 -7.08945e-20 0.666992)
(9.19441 1.9693e-20 0.76659)
(9.27866 -3.73048e-20 0.757423)
(9.05422 -3.33924e-19 0.865758)
(9.14778 -2.90559e-19 0.856589)
(8.90267 -3.24861e-19 0.975289)
(9.00613 -8.17224e-21 0.965774)
(8.7396 3.73387e-19 1.0967)
(8.8536 3.32267e-19 1.08644)
(8.56477 7.16371e-19 1.23163)
(8.69012 3.55562e-19 1.22025)
(8.37783 -3.87409e-20 1.38189)
(8.51545 5.57397e-21 1.369)
(8.1785 4.51215e-19 1.54961)
(8.32926 -3.93168e-19 1.53466)
(7.96663 3.65175e-20 1.73738)
(8.13151 4.40839e-20 1.71965)
(7.74201 -7.60689e-19 1.94807)
(7.92215 3.14466e-20 1.92684)
(7.50414 7.02788e-22 2.1848)
(7.70122 5.32686e-20 2.15948)
(7.46828 8.64469e-19 2.42104)
(9.98695 -8.95858e-20 0.0987107)
(9.99819 -3.00689e-19 0.0682922)
(9.96118 2.02532e-19 0.163124)
(9.97918 1.08651e-19 0.136313)
(9.92302 -8.86556e-21 0.22649)
(9.94634 2.6802e-20 0.202904)
(9.87306 -1.67523e-19 0.290255)
(9.90279 -2.78664e-20 0.269178)
(9.81202 5.13136e-21 0.355805)
(9.8487 -4.96809e-23 0.336635)
(9.74041 -4.39591e-21 0.424315)
(9.78406 1.80487e-19 0.406575)
(9.65853 -1.28672e-19 0.49685)
(9.70922 -1.24928e-19 0.48015)
(9.5665 4.28219e-21 0.574456)
(9.62451 -1.30807e-19 0.55844)
(9.46441 -5.41205e-21 0.658207)
(9.53008 2.71584e-19 0.642515)
(9.35228 -1.07501e-19 0.749252)
(9.42599 -1.40583e-19 0.733511)
(9.23001 -3.51818e-19 0.848784)
(9.31229 -3.71531e-20 0.832662)
(9.09747 3.96917e-20 0.958058)
(9.18888 -6.16749e-19 0.941217)
(8.95462 6.54826e-19 1.07848)
(9.05574 6.15808e-19 1.06048)
(8.8014 3.14954e-19 1.21165)
(8.91282 3.15629e-19 1.19199)
(8.63775 -3.60692e-19 1.3594)
(8.76014 -3.39718e-19 1.33752)
(8.46354 -3.54757e-19 1.52367)
(8.59778 -7.09713e-21 1.49904)
(8.27864 -7.94435e-19 1.7067)
(8.42559 0 1.67865)
(8.08306 3.73145e-20 1.9112)
(8.24368 -8.38942e-21 1.87886)
(7.877 8.47175e-19 2.14037)
(8.05213 8.05071e-19 2.10264)
(7.66051 9.25528e-19 2.39781)
(7.85154 -7.53187e-19 2.35364)
(7.64208 1.6996e-18 2.63587)
(9.98728 -9.49668e-20 0.107086)
(9.99845 8.55075e-20 0.0736815)
(9.96237 -6.88199e-20 0.177351)
(9.97998 -1.26153e-20 0.14729)
(9.92577 6.68571e-21 0.246765)
(9.94835 -2.69185e-20 0.219688)
(9.87804 1.40222e-19 0.316706)
(9.90676 5.57148e-20 0.291926)
(9.81983 1.78756e-19 0.388561)
(9.85533 -5.65687e-20 0.365439)
(9.75168 5.44021e-20 0.463587)
(9.79398 1.79134e-19 0.441577)
(9.67389 -1.27167e-19 0.542951)
(9.72308 -1.24145e-19 0.521605)
(9.58664 1.43511e-19 0.627759)
(9.64297 -1.29679e-19 0.606681)
(9.49006 1.29526e-19 0.719139)
(9.55387 4.72056e-19 0.697912)
(9.38423 -6.85354e-20 0.818309)
(9.45585 -6.85631e-20 0.796486)
(9.26921 -3.11313e-19 0.926553)
(9.34903 -1.44208e-19 0.903706)
(9.14498 -2.15727e-20 1.04519)
(9.23361 -6.08907e-19 1.02089)
(9.01156 2.71889e-19 1.17565)
(9.10962 7.04025e-19 1.14941)
(8.86895 -3.48918e-19 1.31963)
(8.97699 -3.65865e-19 1.29085)
(8.71726 1.84785e-20 1.47905)
(8.83588 -1.00783e-20 1.44706)
(8.55663 3.48479e-19 1.656)
(8.6866 3.53398e-19 1.62007)
(8.38714 7.86499e-19 1.85285)
(8.52927 0 1.81216)
(8.20899 7.70689e-19 2.0724)
(8.36425 7.88935e-19 2.02595)
(8.02257 -8.11721e-19 2.31802)
(8.19171 7.41048e-21 2.26449)
(7.82851 4.33549e-20 2.59372)
(8.01252 -2.10017e-20 2.53162)
(7.82763 -7.66941e-19 2.83179)
(9.98776 1.66058e-19 0.115165)
(9.99878 1.95501e-19 0.0788704)
(9.96389 2.89586e-20 0.191002)
(9.98097 1.75551e-19 0.157822)
(9.92902 2.37165e-20 0.266134)
(9.95068 -5.18977e-20 0.235709)
(9.88371 -1.43325e-19 0.341908)
(9.91122 -2.74409e-20 0.313559)
(9.8286 -5.18811e-20 0.419708)
(9.86267 -3.78916e-22 0.392766)
(9.76422 -4.91291e-21 0.500869)
(9.80487 -5.93351e-20 0.474723)
(9.69088 -1.26764e-19 0.586644)
(9.73816 -6.13317e-20 0.560794)
(9.60878 2.09144e-19 0.678197)
(9.66299 6.25988e-20 0.652203)
(9.51809 2.65068e-19 0.776692)
(9.57959 2.02281e-19 0.7501)
(9.41894 -1.45466e-19 0.883381)
(9.48804 -1.37255e-19 0.855706)
(9.31156 -4.49185e-19 0.999601)
(9.38857 -1.88151e-21 0.970316)
(9.19615 1.3655e-19 1.12675)
(9.28158 -3.76559e-19 1.0953)
(9.07274 5.05035e-20 1.26636)
(9.16718 6.6014e-19 1.23218)
(8.94142 -2.22232e-20 1.42012)
(9.0454 -2.44459e-19 1.38259)
(8.80245 3.30015e-19 1.59001)
(8.91655 6.70113e-21 1.54833)
(8.65621 0 1.77822)
(8.78105 0 1.7315)
(8.50307 1.14896e-20 1.9873)
(8.63933 0 1.93449)
(8.34342 1.73149e-20 2.22009)
(8.49201 -1.13587e-20 2.1601)
(8.17782 7.99952e-19 2.48008)
(8.33957 -3.98857e-20 2.41147)
(8.00731 -8.33785e-19 2.77151)
(8.18301 7.87578e-19 2.69241)
(8.02374 -8.33852e-19 3.00768)
(9.98833 2.04641e-19 0.122895)
(9.99915 0 0.0838204)
(9.96562 9.00103e-20 0.204012)
(9.9821 2.2531e-19 0.167855)
(9.93261 -1.02642e-19 0.284524)
(9.95329 -2.6327e-20 0.250906)
(9.88989 1.161e-19 0.365763)
(9.91616 1.08306e-19 0.333998)
(9.83808 -8.88189e-21 0.449125)
(9.87071 1.13982e-19 0.418517)
(9.77768 -1.1585e-19 0.536011)
(9.81665 -1.77432e-19 0.5059)
(9.70904 1.30283e-19 0.627747)
(9.75435 3.05256e-19 0.59758)
(9.63242 5.80573e-20 0.725546)
(9.68436 -1.26407e-19 0.694832)
(9.54802 -2.0588e-19 0.830611)
(9.60693 1.30637e-19 0.798852)
(9.45604 8.50508e-21 0.944197)
(9.52224 -2.75359e-19 0.910888)
(9.3568 6.53705e-20 1.06765)
(9.43064 2.83471e-19 1.0322)
(9.2506 1.62401e-19 1.20245)
(9.33248 -5.61115e-22 1.16419)
(9.13764 3.52612e-19 1.35022)
(9.22798 6.11304e-19 1.30851)
(9.01815 -2.11992e-19 1.51268)
(9.11748 -5.04379e-19 1.46682)
(8.89253 -3.24174e-19 1.69177)
(9.00141 -6.90736e-21 1.6409)
(8.76132 0 1.88977)
(8.88027 -6.67709e-19 1.83285)
(8.62516 -2.2984e-20 2.10932)
(8.75475 -4.34908e-21 2.04515)
(8.48483 -6.89166e-20 2.35341)
(8.62565 6.76952e-19 2.28063)
(8.34115 -4.55739e-20 2.62559)
(8.49408 -7.53762e-22 2.54263)
(8.19538 7.77968e-19 2.93012)
(8.36122 -8.22044e-19 2.83494)
(8.22859 1.51439e-18 3.16236)
(9.989 2.47621e-20 0.130227)
(9.99956 0 0.0884855)
(9.9676 1.03921e-19 0.216325)
(9.98338 -1.75013e-19 0.177329)
(9.93662 1.87371e-19 0.301856)
(9.95619 3.1119e-19 0.2652)
(9.89672 1.06299e-19 0.388178)
(9.92157 -2.65704e-20 0.353136)
(9.84844 -5.99365e-20 0.476718)
(9.87944 5.61627e-20 0.44258)
(9.79223 2.52374e-19 0.568918)
(9.82934 -1.16994e-19 0.535004)
(9.72847 4.1164e-20 0.666146)
(9.77165 1.83775e-19 0.631863)
(9.65753 -4.96939e-20 0.769655)
(9.70704 -3.79325e-19 0.734453)
(9.5797 5.4825e-20 0.880685)
(9.63576 3.2674e-19 0.844012)
(9.49529 8.22994e-21 1.0005)
(9.5582 -1.36972e-19 0.961807)
(9.40459 2.13355e-19 1.13045)
(9.47482 4.20716e-19 1.08911)
(9.30794 4.5738e-19 1.27205)
(9.3858 -2.13807e-19 1.22735)
(9.20574 -2.61025e-19 1.42697)
(9.29154 2.30996e-19 1.37818)
(9.09846 -2.93166e-19 1.59695)
(9.19266 -7.04959e-19 1.54327)
(8.98667 -3.58278e-19 1.78393)
(9.08974 3.224e-19 1.72441)
(8.87101 -6.66399e-19 1.9902)
(8.98339 -7.49978e-19 1.92372)
(8.75234 7.0208e-19 2.21841)
(8.87456 7.84075e-20 2.14367)
(8.63183 7.40099e-19 2.47165)
(8.76415 1.38455e-18 2.38704)
(8.51077 -7.84277e-19 2.75357)
(8.65385 -6.48416e-19 2.65726)
(8.39064 -7.54018e-20 3.06842)
(8.54526 -5.61005e-19 2.95827)
(8.44007 1.45282e-18 3.29471)
(9.98975 -2.03039e-19 0.137111)
(9.99996 1.19297e-20 0.0928388)
(9.96978 4.22053e-20 0.227865)
(9.9847 -1.44911e-20 0.186187)
(9.94098 9.05905e-20 0.318036)
(9.95929 2.65643e-20 0.278519)
(9.90408 -7.52203e-20 0.409042)
(9.92729 -1.88688e-19 0.370896)
(9.85952 -4.01914e-21 0.502368)
(9.88856 1.11756e-19 0.464864)
(9.80771 -1.80495e-19 0.599472)
(9.84256 5.70528e-20 0.56193)
(9.74906 -2.46451e-19 0.701725)
(9.78972 -1.21325e-19 0.663529)
(9.68399 8.69735e-21 0.810399)
(9.73072 -1.24435e-19 0.770966)
(9.61291 1.27651e-19 0.926752)
(9.66583 1.29684e-19 0.88548)
(9.53624 2.84192e-19 1.05208)
(9.59561 -2.65289e-19 1.00834)
(9.45435 -1.56974e-20 1.18775)
(9.52061 4.19085e-19 1.14088)
(9.3676 -4.34702e-19 1.33528)
(9.44096 -5.71063e-19 1.28456)
(9.27651 -2.25331e-19 1.49633)
(9.35726 -7.55481e-20 1.44096)
(9.18177 -7.63063e-20 1.67261)
(9.27032 -7.73364e-20 1.61171)
(9.08412 -8.17923e-20 1.86609)
(9.18079 -7.70109e-20 1.7986)
(8.98441 3.72977e-21 2.07905)
(9.08951 1.56893e-19 2.00377)
(8.88369 7.72429e-19 2.31408)
(8.99769 -1.60241e-19 2.22965)
(8.78335 -2.04514e-20 2.57425)
(8.90637 1.51232e-18 2.47891)
(8.68518 -4.24732e-19 2.86328)
(8.8175 -6.95682e-19 2.75495)
(8.59115 9.77202e-19 3.18538)
(8.73331 -1.43541e-18 3.06172)
(8.65593 1.39701e-18 3.40377)
(9.99047 2.00222e-19 0.14352)
(9.97202 -2.92925e-20 0.238586)
(9.94549 -2.57064e-19 0.333021)
(9.96261 -4.2743e-19 0.29083)
(9.91158 4.00366e-21 0.428305)
(9.93333 1.45634e-19 0.387273)
(9.8708 1.7191e-19 0.525995)
(9.89803 1.08736e-19 0.485345)
(9.82356 1.13273e-19 0.627559)
(9.85624 8.96309e-21 0.586598)
(9.77025 7.52881e-22 0.734359)
(9.80843 0 0.692462)
(9.71133 6.73999e-22 0.847659)
(9.75526 -1.14912e-19 0.804229)
(9.64726 -2.6958e-19 0.968716)
(9.69707 1.03279e-22 0.92312)
(9.57853 -1.2046e-19 1.09885)
(9.63446 -1.46015e-19 1.0504)
(9.5056 -1.50228e-19 1.23945)
(9.568 3.9816e-19 1.18745)
(9.42895 -2.05008e-19 1.39203)
(9.49793 -2.41696e-20 1.33571)
(9.34924 7.26982e-20 1.55817)
(9.42509 2.11686e-19 1.49672)
(9.26728 -7.801e-20 1.73955)
(9.35037 -5.59087e-19 1.67201)
(9.18398 1.64451e-19 1.93813)
(9.27448 2.79634e-19 1.86338)
(9.10042 -1.01837e-20 2.15618)
(9.19852 6.82455e-19 2.07292)
(9.01787 5.94429e-19 2.39619)
(9.1239 -8.43658e-19 2.30299)
(8.93789 8.24207e-19 2.66112)
(9.05195 8.4298e-19 2.5562)
(8.86264 -1.71005e-18 2.95458)
(8.98479 6.14839e-19 2.8357)
(8.79474 -1.0101e-18 3.28073)
(8.92503 -2.20241e-18 3.14527)
(8.87556 7.00465e-19 3.48932)
(9.9505 -8.76623e-21 0.347045)
(9.91976 2.54612e-19 0.446298)
(9.93998 -3.87984e-20 0.402739)
(9.88294 -6.04764e-20 0.54799)
(9.90835 2.82131e-21 0.504626)
(9.84048 -1.08779e-19 0.653618)
(9.87099 -5.93956e-20 0.609723)
(9.7928 -1.19942e-19 0.764535)
(9.82848 -5.55932e-22 0.719478)
(9.7404 -1.16014e-19 0.881988)
(9.78148 1.0736e-19 0.835146)
(9.68376 1.29253e-19 1.00722)
(9.73038 1.17877e-19 0.957931)
(9.62339 3.90649e-19 1.14155)
(9.67582 8.49375e-21 1.0891)
(9.55985 5.31958e-19 1.28637)
(9.61833 -1.0895e-19 1.23003)
(9.49377 4.08161e-19 1.44316)
(9.55835 4.01836e-19 1.38212)
(9.42596 -4.3967e-19 1.61341)
(9.49693 1.39704e-19 1.5468)
(9.35735 -1.94561e-19 1.79876)
(9.43497 -7.14091e-19 1.72558)
(9.28898 8.15283e-19 2.00112)
(9.37329 7.83096e-19 1.92018)
(9.22214 -1.67879e-19 2.22266)
(9.31324 4.54788e-19 2.1326)
(9.15838 -6.05524e-19 2.4658)
(9.25629 -6.13635e-19 2.36506)
(9.09953 6.29398e-19 2.73333)
(9.20434 -1.49367e-19 2.62007)
(9.04796 1.49921e-19 3.02854)
(9.15966 1.22124e-18 2.90044)
(9.00682 -4.72559e-19 3.35536)
(9.12496 -1.07054e-18 3.20959)
(9.10388 0 3.55159)
(9.92852 -2.96627e-19 0.462977)
(9.89583 3.57884e-21 0.5683)
(9.91917 -5.22522e-20 0.522261)
(9.85832 5.18587e-20 0.677567)
(9.88638 5.40082e-20 0.630795)
(9.81645 2.32886e-19 0.792121)
(9.84935 1.04467e-19 0.743975)
(9.77075 3.47276e-19 0.913185)
(9.80875 3.42564e-19 0.863016)
(9.72176 -6.1881e-21 1.04199)
(9.76493 1.20471e-19 0.989115)
(9.67001 -5.0422e-19 1.17985)
(9.71858 -3.56042e-19 1.12355)
(9.61613 -2.42311e-19 1.32812)
(9.67024 -3.84379e-19 1.26762)
(9.56091 1.26569e-19 1.48817)
(9.62059 5.00221e-19 1.42266)
(9.50527 -1.40924e-19 1.66145)
(9.5708 -2.97841e-21 1.59001)
(9.45023 2.86081e-19 1.84952)
(9.52175 -3.97752e-19 1.77113)
(9.39695 4.13913e-19 2.05419)
(9.47437 9.49027e-19 1.96764)
(9.3469 2.3931e-21 2.27747)
(9.43024 -5.36574e-19 2.1814)
(9.30193 -1.47394e-19 2.52163)
(9.39092 1.39846e-19 2.41436)
(9.26422 4.4912e-19 2.78924)
(9.35872 -7.00134e-19 2.66884)
(9.23635 -9.12853e-21 3.08319)
(9.33616 1.15677e-18 2.94739)
(9.22171 -5.96364e-19 3.40695)
(9.32603 -6.06826e-19 3.25289)
(9.33244 8.18908e-19 3.58876)
(9.90919 0 0.586681)
(9.87683 1.08196e-19 0.699137)
(9.90236 -9.79179e-20 0.649577)
(9.84102 2.17824e-19 0.816831)
(9.87101 -3.00337e-19 0.765655)
(9.80228 1.09366e-19 0.940958)
(9.837 4.28308e-19 0.887514)
(9.76114 -2.39377e-19 1.07274)
(9.80063 -2.17802e-19 1.01634)
(9.71818 -2.33322e-19 1.21344)
(9.76264 -4.62586e-19 1.15336)
(9.67417 3.7765e-19 1.36432)
(9.72366 1.14442e-19 1.29979)
(9.63003 3.67484e-19 1.52669)
(9.68455 3.78559e-19 1.45683)
(9.58674 -2.66016e-19 1.7019)
(9.64653 1.1867e-19 1.62579)
(9.54538 2.79542e-19 1.89145)
(9.61044 -3.8745e-19 1.80806)
(9.50726 -2.10842e-20 2.09699)
(9.57738 5.37803e-19 2.00512)
(9.474 -3.98767e-19 2.32029)
(9.54907 -6.78245e-19 2.21859)
(9.44764 -4.23263e-19 2.56337)
(9.52727 2.6955e-19 2.45014)
(9.43061 1.16946e-20 2.82852)
(9.51436 -1.34451e-18 2.70179)
(9.42576 5.60738e-19 3.11821)
(9.51307 1.09751e-18 2.97578)
(9.43669 8.33812e-19 3.43525)
(9.52645 0 3.27434)
(9.55871 3.23906e-19 3.60006)
(9.89606 -5.17686e-19 0.718031)
(9.86644 -8.20092e-20 0.838302)
(9.89339 -3.19676e-19 0.784289)
(9.83478 9.12052e-20 0.964895)
(9.86603 1.20499e-19 0.90838)
(9.80162 -4.4725e-19 1.09899)
(9.83719 9.05591e-20 1.03929)
(9.76762 -1.05532e-19 1.24178)
(9.80769 -3.37703e-19 1.17818)
(9.73366 1.15223e-19 1.39438)
(9.77824 8.26827e-21 1.32611)
(9.70072 1.23314e-19 1.55805)
(9.74978 3.38857e-19 1.48419)
(9.66982 -4.81632e-21 1.73407)
(9.72351 1.23436e-19 1.6537)
(9.6421 -1.24712e-19 1.92381)
(9.70029 -1.25827e-19 1.83593)
(9.619 -1.31668e-19 2.12871)
(9.68139 -1.22974e-19 2.03214)
(9.60232 3.75884e-21 2.35027)
(9.66863 -4.93966e-19 2.24366)
(9.59415 -6.67218e-19 2.59022)
(9.66389 5.01275e-19 2.47191)
(9.59701 -2.49954e-19 2.85044)
(9.66953 -7.96657e-19 2.71858)
(9.61393 5.31012e-19 3.13293)
(9.68834 2.95404e-19 2.9854)
(9.64866 -5.28943e-19 3.43972)
(9.72352 -2.44785e-19 3.27392)
(9.77914 -2.86234e-19 3.58586)
(9.89251 -1.10555e-19 0.856317)
(9.86796 1.1981e-19 0.984739)
(9.89565 1.83135e-19 0.925393)
(9.84286 2.02531e-19 1.12044)
(9.87437 2.20619e-19 1.0577)
(9.81794 -2.20887e-19 1.26448)
(9.85344 -2.14893e-19 1.19765)
(9.79411 2.37516e-19 1.41789)
(9.8336 9.94269e-20 1.34619)
(9.77236 3.39233e-19 1.58184)
(9.81575 2.13172e-20 1.50435)
(9.75372 0 1.75755)
(9.80102 0 1.67337)
(9.73943 -1.23986e-19 1.94618)
(9.79043 -2.2571e-19 1.85437)
(9.73102 -4.9375e-19 2.14892)
(9.78537 3.34557e-19 2.04833)
(9.73037 1.12339e-20 2.36699)
(9.7877 8.75251e-20 2.2563)
(9.73963 3.76681e-19 2.6018)
(9.79921 -5.57848e-19 2.47945)
(9.76126 -2.46168e-19 2.85483)
(9.82232 9.51846e-19 2.71914)
(9.79833 -4.97769e-19 3.12742)
(9.8598 -4.88434e-19 2.97646)
(9.8545 5.93015e-21 3.42081)
(9.91465 -1.43216e-20 3.25227)
(9.99073 7.15265e-19 3.54741)
(9.90168 2.86702e-19 1.00025)
(9.88467 -2.08114e-19 1.13679)
(9.86885 1.1407e-19 1.28124)
(9.89965 -1.06825e-19 1.21147)
(9.8551 -1.22438e-19 1.43454)
(9.88933 6.25147e-19 1.35973)
(9.84432 -3.26995e-19 1.59778)
(9.88183 -5.43713e-19 1.51709)
(9.83763 -2.31335e-19 1.77204)
(9.87832 4.24072e-19 1.68459)
(9.8364 2.43266e-19 1.95828)
(9.87999 1.98762e-19 1.86312)
(9.84221 9.33366e-19 2.15739)
(9.88834 6.8831e-19 2.05347)
(9.85688 -4.94369e-19 2.37032)
(9.90504 2.79719e-20 2.25641)
(9.88251 2.33402e-20 2.59819)
(9.93174 -9.63894e-19 2.47284)
(9.9215 7.13979e-19 2.84198)
(9.97101 1.20025e-18 2.70372)
(9.97677 4.94245e-21 3.10237)
(10.0254 -2.03623e-20 2.94955)
(10.0517 7.0857e-19 3.37981)
(10.0976 2.36045e-20 3.2105)
(10.191 2.54488e-19 3.48666)
(9.91997 4.17812e-19 1.29177)
(9.91603 1.93511e-19 1.44409)
(9.94481 4.1662e-19 1.36658)
(9.91588 2.25961e-19 1.60568)
(9.94733 -2.15358e-19 1.52225)
(9.92076 8.66386e-19 1.77737)
(9.95469 4.33747e-19 1.68718)
(9.93212 6.54325e-19 1.95994)
(9.96813 2.63358e-20 1.86204)
(9.95146 -2.38519e-19 2.15405)
(9.98919 1.12461e-20 2.04749)
(9.98045 -4.48255e-19 2.36038)
(10.0193 -4.58405e-19 2.24409)
(10.0211 2.31655e-19 2.57969)
(10.0599 -2.12102e-19 2.45239)
(10.0758 4.54882e-19 2.81249)
(10.1138 6.59819e-19 2.67289)
(10.1471 -1.96072e-21 3.05883)
(10.1832 1.26565e-20 2.90559)
(10.238 -4.45411e-19 3.31852)
(10.2701 -4.36784e-19 3.15016)
(10.3776 1.96702e-19 3.40604)
(9.9762 -2.48869e-21 1.44644)
(9.98631 -3.1492e-21 1.6054)
(10.0023 -4.27791e-19 1.77343)
(10.0295 1.94045e-19 1.68103)
(10.0255 -6.33782e-19 1.95113)
(10.054 -4.27312e-19 1.85113)
(10.0574 -2.12221e-19 2.13901)
(10.0868 -4.16393e-19 2.03057)
(10.0995 -2.17021e-19 2.33746)
(10.1291 0 2.21971)
(10.1537 2.23098e-19 2.54684)
(10.1824 -1.60472e-20 2.41863)
(10.2222 2.08802e-19 2.76721)
(10.2493 2.32921e-19 2.62743)
(10.3073 -4.30813e-19 2.99817)
(10.3313 -2.20969e-19 2.84585)
(10.4112 2.19882e-19 3.23903)
(10.4304 -1.02751e-20 3.07313)
(10.5489 4.33066e-19 3.30829)
(10.0815 1.96247e-19 1.76022)
(10.1158 -2.04063e-19 1.93202)
(10.1591 -1.99895e-19 2.11263)
(10.1804 1.81447e-19 2.00308)
(10.213 2.06707e-19 2.30212)
(10.2337 3.86955e-19 2.18372)
(10.2792 -7.80759e-21 2.50043)
(10.2983 -1.8281e-19 2.37221)
(10.3595 -2.05726e-19 2.70732)
(10.3762 -2.0522e-19 2.56842)
(10.4558 2.10822e-19 2.92212)
(10.4687 1.97456e-19 2.77188)
(10.5699 2.06305e-19 3.14381)
(10.5773 2.11022e-19 2.9816)
(10.7038 9.53606e-20 3.19629)
(10.2558 7.83333e-19 2.07541)
(10.3201 -1.14095e-20 2.255)
(10.3322 2.58996e-20 2.13668)
(10.3966 -3.85514e-19 2.44142)
(10.4066 -5.86193e-19 2.31405)
(10.4866 2.07459e-19 2.63424)
(10.4936 9.68563e-21 2.4972)
(10.5917 1.9746e-19 2.83265)
(10.5943 2.98048e-19 2.68549)
(10.7132 9.76206e-20 3.03542)
(10.7101 1.86439e-19 2.87782)
(10.8421 4.1553e-21 3.07277)
(10.42 -5.62391e-19 2.19689)
(10.505 -1.82433e-19 2.371)
(10.6028 1.01274e-19 2.54963)
(10.6008 9.24099e-20 2.41521)
(10.7145 2.87026e-19 2.73184)
(10.7079 -8.10464e-20 2.5885)
(10.8411 9.09491e-20 2.91635)
(10.8287 4.15213e-19 2.76395)
(10.964 -4.00913e-20 2.9402)
(10.7075 -9.46e-20 2.45513)
(10.824 4.93595e-20 2.62163)
(10.9538 2.81571e-19 2.78879)
(10.9331 5.58608e-20 2.64194)
(11.0699 7.87144e-20 2.8007)
(11.0516 -1.52364e-19 2.65464)
)
;

boundaryField
{
    inlet
    {
        type            calculated;
        value           uniform (10 0 0);
    }
    outlet
    {
        type            calculated;
        value           nonuniform 0();
    }
    flap
    {
        type            calculated;
        value           nonuniform 0();
    }
    upperWall
    {
        type            calculated;
        value           nonuniform 0();
    }
    lowerWall
    {
        type            calculated;
        value           uniform (0 0 0);
    }
    frontAndBack
    {
        type            empty;
        value           nonuniform 0();
    }
    procBoundary3to0
    {
        type            processor;
        value           nonuniform List<vector> 
34
(
(10.0003 1.21621e-20 0.0968887)
(9.98611 3.97863e-19 0.194396)
(9.97456 -1.67853e-20 0.248628)
(9.96633 -6.48658e-19 0.302459)
(9.95589 -6.75142e-19 0.360068)
(9.94697 -4.88657e-19 0.416921)
(9.93758 -2.35486e-19 0.47812)
(9.93042 4.76253e-20 0.538064)
(9.92312 -5.34993e-20 0.602887)
(9.91895 -4.81969e-19 0.665857)
(9.91589 -2.78298e-19 0.734035)
(9.91633 3.86191e-19 0.799675)
(9.91906 6.86798e-19 0.870654)
(9.92565 6.84569e-19 0.938311)
(9.91196 9.03645e-20 1.07128)
(9.92678 1.93957e-19 1.14776)
(9.94591 -3.82647e-19 1.21938)
(9.97068 -3.83916e-19 1.29593)
(9.99938 -1.90012e-19 1.36663)
(10.0116 3.83729e-19 1.51971)
(10.055 5.86351e-19 1.59686)
(10.102 1.47884e-20 1.66614)
(10.1369 1.89443e-19 1.83058)
(10.2021 5.85241e-19 1.90297)
(10.2691 5.8227e-19 1.96543)
(10.3466 -1.94556e-19 2.02786)
(10.424 -3.84507e-19 2.07934)
(10.5065 -2.7921e-19 2.24523)
(10.6037 2.12999e-21 2.29052)
(10.6973 -8.26596e-20 2.3239)
(10.8091 -1.84301e-19 2.4826)
(10.9202 -1.78302e-19 2.50376)
(11.0238 -3.22728e-19 2.5135)
(11.1606 4.16948e-20 2.65606)
)
;
    }
    procBoundary3to1
    {
        type            processor;
        value           nonuniform List<vector> 9((9.93415 4.93506e-19 3.73615) (10.1503 7.00204e-19 3.6745) (10.3518 -2.19413e-19 3.59097) (10.5365 4.23986e-19 3.48868) (10.7035 0 3.37095) (10.8524 3.40326e-19 3.24099) (10.9835 -4.2291e-19 3.10158) (11.0974 2.16857e-19 2.95512) (11.1949 4.33432e-20 2.80357));
    }
    procBoundary3to4
    {
        type            processor;
        value           nonuniform List<vector> 
19
(
(5.07938 2.86216e-20 0.233725)