/*--------------------------------*- C++ -*----------------------------------*\
| =========                 |                                                 |
| \\      /  F ield         | OpenFOAM: The Open Source CFD Toolbox           |
|  \\    /   O peration     | Version:  dev                                   |
|   \\  /    A nd           | Web:      www.OpenFOAM.org                      |
|    \\/     M anipulation  |                                                 |
\*---------------------------------------------------------------------------*/
FoamFile
{
    version     2.0;
    format      ascii;
    class       volVectorField;
    location    "2.43";
    object      cellDisplacement;
}
// * * * * * * * * * * * * * * * * * * * * * * * * * * * * * * * * * * * * * //

dimensions      [0 1 0 0 0 0 0];

internalField   nonuniform List<vector> 
2790
(
(0.0118251 0 -5.4083e-05)
(0.0337166 0 -0.000154607)
(0.052304 0 -0.000242211)
(0.0678841 0 -0.000318988)
(0.0807852 0 -0.000386947)
(0.0912912 0 -0.000447464)
(0.0996475 0 -0.000501424)
(0.106069 0 -0.000549135)
(0.110745 0 -0.000590858)
(0.113838 0 -0.000626572)
(0.115491 0 -0.000656129)
(0.115829 0 -0.000680504)
(0.114962 0 -0.000695954)
(0.112989 0 -0.00070288)
(0.109998 0 -0.000700127)
(0.106071 0 -0.000686173)
(0.101283 0 -0.000659238)
(0.095709 0 -0.000617347)
(0.0894209 0 -0.000558032)
(0.0824928 0 -0.000478409)
(0.0750018 0 -0.000375147)
(0.067032 0 -0.000244445)
(0.0586781 0 -8.20241e-05)
(0.0500503 0 0.000116809)
(0.0412829 0 0.000357069)
(0.032542 0 0.000644492)
(0.0240956 0 0.000988153)
(0.016328 0 0.00139347)
(0.00987609 0 0.00185814)
(0.00620429 0 0.00231502)
(0.0118416 0 -0.00016248)
(0.0337661 0 -0.000464534)
(0.0523843 0 -0.000727915)
(0.0679943 0 -0.000958785)
(0.0809283 0 -0.00116327)
(0.0914702 0 -0.00134551)
(0.0998656 0 -0.00150823)
(0.10633 0 -0.00165225)
(0.111054 0 -0.00177843)
(0.114202 0 -0.0018867)
(0.115916 0 -0.00197614)
(0.116322 0 -0.00204508)
(0.115532 0 -0.0020922)
(0.113648 0 -0.00211456)
(0.110758 0 -0.00210838)
(0.106945 0 -0.00206915)
(0.102286 0 -0.00199162)
(0.0968604 0 -0.00187019)
(0.0907427 0 -0.00169764)
(0.0840111 0 -0.00146564)
(0.0767485 0 -0.00116457)
(0.0690462 0 -0.0007835)
(0.0610097 0 -0.000310126)
(0.0527661 0 0.000269063)
(0.0444784 0 0.000968135)
(0.0363135 0 0.0018051)
(0.0285506 0 0.00279286)
(0.0216331 0 0.00393348)
(0.016341 0 0.00520071)
(0.0143963 0 0.00634584)
(0.0118746 0 -0.000270935)
(0.0338655 0 -0.000774686)
(0.0525448 0 -0.00121432)
(0.068214 0 -0.00159965)
(0.0812134 0 -0.00194124)
(0.0918272 0 -0.00224598)
(0.100301 0 -0.00251872)
(0.106851 0 -0.00276034)
(0.111671 0 -0.00297266)
(0.114927 0 -0.00315563)
(0.116763 0 -0.00330754)
(0.117305 0 -0.003424)
(0.116672 0 -0.00350694)
(0.114964 0 -0.00354985)
(0.112275 0 -0.00354658)
(0.108689 0 -0.00348992)
(0.104288 0 -0.00337123)
(0.0991572 0 -0.00318245)
(0.0933773 0 -0.00291197)
(0.0870349 0 -0.00254687)
(0.0802222 0 -0.00207243)
(0.073043 0 -0.00147206)
(0.0656184 0 -0.000727453)
(0.058096 0 0.000181227)
(0.0506909 0 0.0012721)
(0.0436517 0 0.00256229)
(0.0373115 0 0.00405363)
(0.0321146 0 0.00573218)
(0.0287974 0 0.00750965)
(0.0296826 0 0.0088893)
(0.0119231 0 -0.000379492)
(0.0340143 0 -0.00108519)
(0.0527837 0 -0.00169951)
(0.0685394 0 -0.00223894)
(0.0816364 0 -0.00271767)
(0.0923575 0 -0.00314523)
(0.100947 0 -0.00352931)
(0.107623 0 -0.00386965)
(0.112585 0 -0.00416996)
(0.116002 0 -0.00443032)
(0.118018 0 -0.00464892)
(0.118767 0 -0.00482227)
(0.118365 0 -0.00494803)
(0.116919 0 -0.00501969)
(0.114527 0 -0.00502953)
(0.11128 0 -0.00496832)
(0.107259 0 -0.00482346)
(0.102565 0 -0.00458748)
(0.097285 0 -0.00424423)
(0.0915195 0 -0.00377798)
(0.0853753 0 -0.00317083)
(0.0789752 0 -0.00240325)
(0.072465 0 -0.0014548)
(0.0660149 0 -0.000303377)
(0.059858 0 0.00106802)
(0.0543242 0 0.00266327)
(0.049928 0 0.00445576)
(0.0472774 0 0.00636591)
(0.0469447 0 0.00825138)
(0.0512206 0 0.00934902)
(0.0119862 0 -0.000488011)
(0.0341938 0 -0.00139533)
(0.0530833 0 -0.00218476)
(0.0689678 0 -0.0028794)
(0.0821952 0 -0.00349635)
(0.0930595 0 -0.00404788)
(0.101799 0 -0.00454134)
(0.108639 0 -0.004982)
(0.113789 0 -0.00537312)
(0.117416 0 -0.00571482)
(0.11967 0 -0.00600538)
(0.120687 0 -0.00624137)
(0.120589 0 -0.00641854)
(0.119486 0 -0.00652986)
(0.117484 0 -0.0065667)
(0.114684 0 -0.00651958)
(0.111176 0 -0.0063756)
(0.107054 0 -0.00612002)
(0.102427 0 -0.00573725)
(0.097413 0 -0.00521187)
(0.0921354 0 -0.00452485)
(0.0867379 0 -0.00365643)
(0.0813931 0 -0.00258761)
(0.0763525 0 -0.00130874)
(0.0718635 0 0.00018943)
(0.0682903 0 0.0018985)
(0.0661631 0 0.00376008)
(0.0664503 0 0.00558594)
(0.0699231 0 0.0071073)
(0.0780842 0 0.0074263)
(0.0120636 0 -0.000595873)
(0.0344191 0 -0.00170401)
(0.0534574 0 -0.00266992)
(0.0694969 0 -0.00352045)
(0.0828841 0 -0.00427672)
(0.0939161 0 -0.00495344)
(0.102842 0 -0.00555863)
(0.109894 0 -0.00610314)
(0.115276 0 -0.00658924)
(0.119163 0 -0.00701759)
(0.12171 0 -0.00738682)
(0.123057 0 -0.00769356)
(0.12333 0 -0.00793278)
(0.122648 0 -0.00809707)
(0.121121 0 -0.00817719)
(0.118862 0 -0.00816474)
(0.115979 0 -0.00804785)
(0.112563 0 -0.0078059)
(0.10873 0 -0.00742332)
(0.104633 0 -0.00689061)
(0.100414 0 -0.00618946)
(0.0962439 0 -0.00530358)
(0.0923268 0 -0.00422032)
(0.0889201 0 -0.00293553)
(0.0863814 0 -0.00146846)
(0.0852082 0 0.000125609)
(0.0858523 0 0.00176772)
(0.0892647 0 0.00320497)
(0.0967919 0 0.00393405)
(0.109361 0 0.00302291)
(0.0121548 0 -0.000702976)
(0.034687 0 -0.00201079)
(0.0539001 0 -0.00315221)
(0.0701194 0 -0.00415837)
(0.0836942 0 -0.00505439)
(0.0949264 0 -0.00585794)
(0.104075 0 -0.00658071)
(0.111375 0 -0.00723279)
(0.11703 0 -0.00781847)
(0.121223 0 -0.00833934)
(0.124114 0 -0.00879475)
(0.125847 0 -0.00918167)
(0.126558 0 -0.00949502)
(0.126368 0 -0.00972748)
(0.125393 0 -0.00986864)
(0.123765 0 -0.00991418)
(0.121595 0 -0.00984958)
(0.119006 0 -0.00966038)
(0.116122 0 -0.00933191)
(0.113088 0 -0.00884981)
(0.110092 0 -0.00820602)
(0.10732 0 -0.00738866)
(0.105069 0 -0.00640868)
(0.103581 0 -0.00526877)
(0.103265 0 -0.00401027)
(0.104647 0 -0.00272407)
(0.108473 0 -0.00159805)
(0.115363 0 -0.000886487)
(0.127098 0 -0.00130758)
(0.14423 0 -0.00381813)
(0.0122589 0 -0.000809177)
(0.0349938 0 -0.00231524)
(0.0544063 0 -0.0036312)
(0.0708297 0 -0.00479274)
(0.0846184 0 -0.00582902)
(0.0960804 0 -0.00676089)
(0.105482 0 -0.00760287)
(0.113062 0 -0.00836578)
(0.119028 0 -0.00905553)
(0.123568 0 -0.00967493)
(0.126848 0 -0.0102245)
(0.129019 0 -0.0107019)
(0.130224 0 -0.0111028)
(0.130594 0 -0.0114212)
(0.13026 0 -0.0116506)
(0.129346 0 -0.011781)
(0.127983 0 -0.0118018)
(0.126316 0 -0.0117047)
(0.124499 0 -0.0114806)
(0.122662 0 -0.0111115)
(0.121051 0 -0.0106061)
(0.119876 0 -0.00996048)
(0.119422 0 -0.00919092)
(0.120043 0 -0.00833651)
(0.122233 0 -0.00748047)
(0.126466 0 -0.00673293)
(0.133579 0 -0.00635634)
(0.144469 0 -0.00673095)
(0.160365 0 -0.00857259)
(0.181895 0 -0.0129166)
(0.0123757 0 -0.000914832)
(0.0353381 0 -0.00261839)
(0.0549739 0 -0.00410865)
(0.0716253 0 -0.00542606)
(0.0856536 0 -0.00660386)
(0.0973733 0 -0.00766614)
(0.107058 0 -0.00863005)
(0.114949 0 -0.00950785)
(0.121262 0 -0.010307)
(0.126187 0 -0.0110316)
(0.129899 0 -0.0116841)
(0.132556 0 -0.0122632)
(0.134306 0 -0.0127657)
(0.135292 0 -0.0131872)
(0.135663 0 -0.0135267)
(0.135536 0 -0.013769)
(0.135054 0 -0.0139076)
(0.134397 0 -0.0139442)
(0.133727 0 -0.0138722)
(0.133219 0 -0.0136862)
(0.133111 0 -0.0133962)
(0.133671 0 -0.0130197)
(0.135205 0 -0.0125888)
(0.138126 0 -0.0121693)
(0.142931 0 -0.0118703)
(0.150299 0 -0.0118892)
(0.160901 0 -0.012493)
(0.175987 0 -0.014232)
(0.19604 0 -0.017721)
(0.221595 0 -0.0239754)
(0.0125042 0 -0.00101973)
(0.0357169 0 -0.00291963)
(0.0555976 0 -0.00458368)
(0.072499 0 -0.00605717)
(0.0867902 0 -0.00737752)
(0.0987926 0 -0.00857208)
(0.108786 0 -0.00966065)
(0.117019 0 -0.0106573)
(0.123708 0 -0.0115711)
(0.129052 0 -0.0124076)
(0.133234 0 -0.0131719)
(0.136418 0 -0.0138638)
(0.138758 0 -0.0144816)
(0.140402 0 -0.0150218)
(0.141517 0 -0.0154879)
(0.142238 0 -0.0158707)
(0.142726 0 -0.0161689)
(0.143151 0 -0.0163811)
(0.143711 0 -0.0165132)
(0.144612 0 -0.0165716)
(0.146111 0 -0.0165772)
(0.148501 0 -0.0165615)
(0.152124 0 -0.0165766)
(0.157512 0 -0.0167397)
(0.165121 0 -0.0171724)
(0.175697 0 -0.0181247)
(0.190047 0 -0.0199453)
(0.209215 0 -0.0232042)
(0.233513 0 -0.0285229)
(0.262611 0 -0.0366298)
(0.0126421 0 -0.00112308)
(0.0361238 0 -0.00321673)
(0.056268 0 -0.00505283)
(0.0734381 0 -0.00668152)
(0.0880118 0 -0.00814443)
(0.100318 0 -0.00947221)
(0.110643 0 -0.0106874)
(0.11924 0 -0.0118062)
(0.126331 0 -0.0128394)
(0.132121 0 -0.0137932)
(0.136805 0 -0.0146781)
(0.140549 0 -0.0154939)
(0.143516 0 -0.0162418)
(0.145876 0 -0.0169244)
(0.147783 0 -0.0175407)
(0.149396 0 -0.0180899)
(0.150904 0 -0.0185801)
(0.152458 0 -0.0190059)
(0.154308 0 -0.0193923)
(0.156679 0 -0.0197546)
(0.159848 0 -0.020126)
(0.164157 0 -0.0205632)
(0.169988 0 -0.0211405)
(0.177842 0 -0.0219851)
(0.18839 0 -0.023307)
(0.202264 0 -0.0253531)
(0.220504 0 -0.0285814)
(0.243691 0 -0.0334797)
(0.272143 0 -0.0406897)
(0.304254 0 -0.0504836)
(0.0127878 0 -0.00122464)
(0.0365548 0 -0.00350908)
(0.0569788 0 -0.00551519)
(0.0744342 0 -0.00729798)
(0.0893077 0 -0.00890326)
(0.101935 0 -0.010365)
(0.112611 0 -0.0117087)
(0.121594 0 -0.0129529)
(0.12911 0 -0.0141106)
(0.13538 0 -0.0151933)
(0.140595 0 -0.0162077)
(0.144927 0 -0.0171581)
(0.148552 0 -0.0180492)
(0.151657 0 -0.0188901)
(0.154385 0 -0.0196761)
(0.156913 0 -0.0204134)
(0.159455 0 -0.0211199)
(0.162194 0 -0.0218031)
(0.165372 0 -0.0224882)
(0.169244 0 -0.0232068)
(0.174112 0 -0.0240078)
(0.180362 0 -0.0249701)
(0.18843 0 -0.0262003)
(0.198827 0 -0.0278472)
(0.21225 0 -0.0301507)
(0.229525 0 -0.033446)
(0.251536 0 -0.0381779)
(0.278734 0 -0.0448156)
(0.311122 0 -0.0538757)
(0.345784 0 -0.0651487)
(0.0129412 0 -0.00132471)
(0.0370086 0 -0.00379748)
(0.0577276 0 -0.00597206)
(0.0754842 0 -0.00790832)
(0.0906737 0 -0.00965619)
(0.10364 0 -0.011253)
(0.114685 0 -0.0127271)
(0.124073 0 -0.0141003)
(0.132039 0 -0.0153881)
(0.138809 0 -0.0166052)
(0.144566 0 -0.0177552)
(0.149504 0 -0.0188492)
(0.1538 0 -0.0198928)
(0.157652 0 -0.0209007)
(0.161222 0 -0.0218751)
(0.164703 0 -0.0228288)
(0.168303 0 -0.0237805)
(0.172232 0 -0.0247494)
(0.176741 0 -0.0257701)
(0.182111 0 -0.0268878)
(0.188661 0 -0.0281656)
(0.196843 0 -0.029716)
(0.207081 0 -0.0316573)
(0.219975 0 -0.0341853)
(0.236207 0 -0.0375583)
(0.256755 0 -0.0421858)
(0.282278 0 -0.048465)
(0.313334 0 -0.0568885)
(0.349293 0 -0.0676905)
(0.38623 0 -0.0802923)
(0.0131009 0 -0.00142301)
(0.037481 0 -0.00408109)
(0.0585078 0 -0.00642209)
(0.0765784 0 -0.00851069)
(0.0920973 0 -0.0104009)
(0.105415 0 -0.0121333)
(0.116842 0 -0.0137392)
(0.126651 0 -0.0152439)
(0.135079 0 -0.0166645)
(0.142348 0 -0.0180159)
(0.148659 0 -0.0193066)
(0.154217 0 -0.020553)
(0.159211 0 -0.0217656)
(0.163826 0 -0.0229547)
(0.168247 0 -0.0241331)
(0.172676 0 -0.0253186)
(0.177329 0 -0.026536)
(0.182436 0 -0.0278153)
(0.188257 0 -0.0291996)
(0.195093 0 -0.0307491)
(0.203293 0 -0.0325457)
(0.213284 0 -0.0347073)
(0.225591 0 -0.0374029)
(0.240769 0 -0.0408335)
(0.259664 0 -0.0453345)
(0.28303 0 -0.0512724)
(0.311631 0 -0.0591011)
(0.345965 0 -0.0692731)
(0.384835 0 -0.0817082)
(0.42401 0 -0.0956846)
(0.013264 0 -0.00151863)
(0.0379648 0 -0.00435746)
(0.0593081 0 -0.00686147)
(0.0777023 0 -0.00910008)
(0.0935597 0 -0.0111312)
(0.107237 0 -0.0129987)
(0.119054 0 -0.0147362)
(0.129295 0 -0.0163742)
(0.138192 0 -0.0179302)
(0.145971 0 -0.0194208)
(0.152857 0 -0.0208628)
(0.159047 0 -0.0222699)
(0.164741 0 -0.0236593)
(0.170109 0 -0.0250369)
(0.175371 0 -0.02643)
(0.180737 0 -0.0278614)
(0.186426 0 -0.0293605)
(0.192673 0 -0.0309652)
(0.199748 0 -0.032728)
(0.207981 0 -0.0347267)
(0.217726 0 -0.0370565)
(0.229416 0 -0.0398521)
(0.243549 0 -0.0432899)
(0.260769 0 -0.0476232)
(0.281843 0 -0.0531948)
(0.30737 0 -0.0603536)
(0.338164 0 -0.0696161)
(0.37444 0 -0.0813858)
(0.414646 0 -0.0954274)
(0.456239 0 -0.111409)
(0.008897 0 -0.00319562)
(0.0202624 0 -0.00391607)
(0.0457323 0 -0.0049886)
(0.0866627 0 -0.00624208)
(0.137457 0 -0.00736841)
(0.187617 0 -0.00812469)
(0.229615 0 -0.00847146)
(0.261681 0 -0.00843856)
(0.285205 0 -0.00822746)
(0.302044 0 -0.00789761)
(0.313647 0 -0.00749676)
(0.321077 0 -0.00705396)
(0.325083 0 -0.00658848)
(0.32618 0 -0.00611299)
(0.32471 0 -0.00563388)
(0.320884 0 -0.00518965)
(0.314808 0 -0.00477025)
(0.306531 0 -0.00437356)
(0.296064 0 -0.00399738)
(0.283385 0 -0.00363904)
(0.268451 0 -0.00329548)
(0.251203 0 -0.00296333)
(0.231572 0 -0.00263897)
(0.209477 0 -0.00231855)
(0.184834 0 -0.00199791)
(0.157553 0 -0.00167256)
(0.127546 0 -0.00133752)
(0.0947228 0 -0.0009872)
(0.059007 0 -0.000615247)
(0.0201963 0 -0.000212687)
(0.0156936 0 -0.00979359)
(0.0282647 0 -0.0119811)
(0.0547461 0 -0.0151298)
(0.0958422 0 -0.0187787)
(0.145697 0 -0.0219716)
(0.194221 0 -0.0240166)
(0.234574 0 -0.0248963)
(0.265372 0 -0.0247992)
(0.288009 0 -0.0241688)
(0.304201 0 -0.0231986)
(0.315328 0 -0.0220254)
(0.322402 0 -0.0207311)
(0.326141 0 -0.0193704)
(0.327036 0 -0.0179784)
(0.325414 0 -0.0166127)
(0.321467 0 -0.0153234)
(0.315294 0 -0.0141011)
(0.306939 0 -0.0129417)
(0.296408 0 -0.0118395)
(0.283676 0 -0.0107872)
(0.268699 0 -0.00977615)
(0.251415 0 -0.00879675)
(0.231752 0 -0.00783858)
(0.209631 0 -0.00689045)
(0.184966 0 -0.00594029)
(0.157665 0 -0.00497489)
(0.127639 0 -0.00397966)
(0.0947956 0 -0.00293807)
(0.0590573 0 -0.00183141)
(0.0202166 0 -0.000633151)
(0.0286413 0 -0.0168934)
(0.0436355 0 -0.0206818)
(0.0718075 0 -0.0257897)
(0.113109 0 -0.0315162)
(0.16107 0 -0.0363202)
(0.206561 0 -0.0392773)
(0.243934 0 -0.0403764)
(0.272431 0 -0.0401508)
(0.293393 0 -0.0390926)
(0.308353 0 -0.0375123)
(0.318568 0 -0.0356208)
(0.324958 0 -0.0335396)
(0.328179 0 -0.031351)
(0.328687 0 -0.0291451)
(0.326769 0 -0.0270025)
(0.322586 0 -0.0249523)
(0.316224 0 -0.0229982)
(0.307717 0 -0.0211374)
(0.297061 0 -0.0193621)
(0.284226 0 -0.0176618)
(0.269163 0 -0.0160232)
(0.251809 0 -0.0144315)
(0.232087 0 -0.0128702)
(0.209916 0 -0.0113217)
(0.185207 0 -0.00976657)
(0.157868 0 -0.00818364)
(0.127805 0 -0.00654927)
(0.0949254 0 -0.00483669)
(0.0591459 0 -0.00301551)
(0.0202514 0 -0.00104253)
(0.047282 0 -0.0248988)
(0.0653466 0 -0.0303141)
(0.0956628 0 -0.0373214)
(0.136888 0 -0.044681)
(0.182086 0 -0.0505267)
(0.223432 0 -0.053912)
(0.25689 0 -0.0550024)
(0.28234 0 -0.0545161)
(0.301008 0 -0.0529967)
(0.314256 0 -0.0508216)
(0.323191 0 -0.0482592)
(0.32861 0 -0.0454482)
(0.331104 0 -0.0425266)
(0.331063 0 -0.0396149)
(0.328716 0 -0.0367766)
(0.324192 0 -0.0340446)
(0.317557 0 -0.0314292)
(0.308827 0 -0.0289288)
(0.297989 0 -0.0265349)
(0.285005 0 -0.0242342)
(0.269819 0 -0.02201)
(0.252361 0 -0.0198428)
(0.232554 0 -0.0177113)
(0.21031 0 -0.0155918)
(0.185538 0 -0.0134585)
(0.158144 0 -0.0112829)
(0.128029 0 -0.00903315)
(0.0950978 0 -0.00667284)
(0.0592611 0 -0.00416081)
(0.0202955 0 -0.00143833)
(0.0709603 0 -0.0340866)
(0.0923683 0 -0.0410936)
(0.124922 0 -0.0498192)
(0.165443 0 -0.0582909)
(0.207028 0 -0.0645669)
(0.243525 0 -0.0678975)
(0.27257 0 -0.0687568)
(0.294466 0 -0.0678788)
(0.310405 0 -0.065854)
(0.321583 0 -0.0630882)
(0.328956 0 -0.0599018)
(0.333191 0 -0.0564428)
(0.334795 0 -0.0528925)
(0.334066 0 -0.0493585)
(0.331177 0 -0.045906)
(0.326222 0 -0.04257)
(0.319237 0 -0.0393637)
(0.310224 0 -0.0362867)
(0.299154 0 -0.03333)
(0.285978 0 -0.0304783)
(0.270634 0 -0.027712)
(0.253045 0 -0.0250083)
(0.233128 0 -0.0223412)
(0.210791 0 -0.0196822)
(0.18594 0 -0.0169997)
(0.158475 0 -0.0142586)
(0.128296 0 -0.0114195)
(0.0953002 0 -0.00843748)
(0.0593942 0 -0.00526143)
(0.0203454 0 -0.00181841)
(0.0990512 0 -0.0446073)
(0.123798 0 -0.0531295)
(0.15812 0 -0.0631786)
(0.197133 0 -0.0721777)
(0.234419 0 -0.0783029)
(0.265744 0 -0.081233)
(0.290075 0 -0.0816126)
(0.308135 0 -0.0802163)
(0.321084 0 -0.0776424)
(0.329991 0 -0.0743313)
(0.335603 0 -0.0705439)
(0.338514 0 -0.0665287)
(0.339103 0 -0.0624317)
(0.33758 0 -0.0583581)
(0.334061 0 -0.0543716)
(0.3286 0 -0.0505074)
(0.321205 0 -0.0467798)
(0.311856 0 -0.0431891)
(0.300511 0 -0.0397257)
(0.287108 0 -0.0363731)
(0.271576 0 -0.0331096)
(0.253831 0 -0.0299093)
(0.233783 0 -0.0267428)
(0.211337 0 -0.0235773)
(0.186392 0 -0.0203762)
(0.158844 0 -0.0170985)
(0.12859 0 -0.0136983)
(0.0955207 0 -0.0101229)
(0.0595372 0 -0.00631235)
(0.0203981 0 -0.00218095)
(0.130932 0 -0.05647)
(0.158752 0 -0.066349)
(0.194094 0 -0.0772461)
(0.230675 0 -0.0861594)
(0.263108 0 -0.0916358)
(0.289043 0 -0.0938193)
(0.308552 0 -0.0935101)
(0.322681 0 -0.0914918)
(0.332573 0 -0.0883627)
(0.339083 0 -0.0845069)
(0.342855 0 -0.0802007)
(0.34437 0 -0.0757009)
(0.343868 0 -0.0711379)
(0.341481 0 -0.0666054)
(0.337268 0 -0.062163)
(0.331245 0 -0.0578442)
(0.323392 0 -0.0536633)
(0.313668 0 -0.0496207)
(0.302013 0 -0.0457064)
(0.288355 0 -0.0419031)
(0.27261 0 -0.0381874)
(0.254689 0 -0.0345312)
(0.234494 0 -0.0309023)
(0.211924 0 -0.0272642)
(0.186873 0 -0.0235763)
(0.159235 0 -0.0197926)
(0.128897 0 -0.0158611)
(0.0957486 0 -0.0117225)
(0.059683 0 -0.00730936)
(0.0204512 0 -0.00252446)
(0.165991 0 -0.0695727)
(0.196411 0 -0.0805664)
(0.231784 0 -0.0917587)
(0.264923 0 -0.0999667)
(0.292022 0 -0.104352)
(0.312486 0 -0.105517)
(0.327222 0 -0.104364)
(0.337516 0 -0.101677)
(0.344345 0 -0.0979638)
(0.348473 0 -0.0935933)
(0.350446 0 -0.0888623)
(0.35055 0 -0.0839619)
(0.348926 0 -0.0790134)
(0.345636 0 -0.0741007)
(0.340693 0 -0.0692776)
(0.334072 0 -0.0645752)
(0.325729 0 -0.0600068)
(0.315601 0 -0.0555724)
(0.303611 0 -0.0512619)
(0.289675 0 -0.0470573)
(0.273701 0 -0.0429343)
(0.255588 0 -0.038863)
(0.235233 0 -0.034809)
(0.212529 0 -0.030733)
(0.187365 0 -0.0265909)
(0.159629 0 -0.0223326)
(0.129204 0 -0.0179011)
(0.0959734 0 -0.0132313)
(0.059825 0 -0.00824911)
(0.0205021 0 -0.00284774)
(0.203642 0 -0.0837373)
(0.236028 0 -0.0955287)
(0.270186 0 -0.106372)
(0.298821 0 -0.11327)
(0.320205 0 -0.116202)
(0.335253 0 -0.116163)
(0.345432 0 -0.114092)
(0.352025 0 -0.110689)
(0.355955 0 -0.106418)
(0.357882 0 -0.101629)
(0.35813 0 -0.096546)
(0.356854 0 -0.0913246)
(0.354115 0 -0.0860691)
(0.349918 0 -0.080852)
(0.34423 0 -0.0757204)
(0.336996 0 -0.0707021)
(0.328145 0 -0.065809)
(0.317595 0 -0.0610407)
(0.305255 0 -0.0563869)
(0.291028 0 -0.0518293)
(0.274812 0 -0.047343)
(0.256498 0 -0.0428971)
(0.235975 0 -0.0384551)
(0.213131 0 -0.033976)
(0.187849 0 -0.0294129)
(0.160011 0 -0.0247122)
(0.129498 0 -0.0198129)
(0.0961856 0 -0.014645)
(0.0599571 0 -0.00912899)
(0.0205488 0 -0.0031499)
(0.243369 0 -0.0987515)
(0.276901 0 -0.110935)
(0.308267 0 -0.120664)
(0.331342 0 -0.125689)
(0.346779 0 -0.126906)
(0.356591 0 -0.12556)
(0.362506 0 -0.122557)
(0.365739 0 -0.118481)
(0.36712 0 -0.113754)
(0.367043 0 -0.108628)
(0.365682 0 -0.103273)
(0.363097 0 -0.0978099)
(0.359285 0 -0.0923234)
(0.354201 0 -0.0868742)
(0.347777 0 -0.0815027)
(0.339931 0 -0.0762326)
(0.330569 0 -0.0710744)
(0.319593 0 -0.0660272)
(0.306897 0 -0.0610808)
(0.292372 0 -0.0562168)
(0.275908 0 -0.0514101)
(0.257389 0 -0.0466291)
(0.236694 0 -0.0418357)
(0.213706 0 -0.0369881)
(0.188305 0 -0.0320375)
(0.160367 0 -0.0269271)
(0.129767 0 -0.0215928)
(0.0963765 0 -0.0159607)
(0.0600741 0 -0.00994718)
(0.0205893 0 -0.0034303)
(0.284763 0 -0.114418)
(0.318237 0 -0.126403)
(0.344836 0 -0.134105)
(0.361429 0 -0.136789)
(0.3709 0 -0.136161)
(0.375838 0 -0.133522)
(0.378006 0 -0.12967)
(0.37842 0 -0.125065)
(0.377586 0 -0.119987)
(0.375728 0 -0.114616)
(0.372908 0 -0.109072)
(0.369116 0 -0.103445)
(0.364296 0 -0.0978011)
(0.35837 0 -0.0921886)
(0.351239 0 -0.0866413)
(0.342798 0 -0.0811795)
(0.332936 0 -0.0758122)
(0.321538 0 -0.070538)
(0.308488 0 -0.0653468)
(0.293667 0 -0.0602208)
(0.276956 0 -0.0551351)
(0.258232 0 -0.0500577)
(0.237366 0 -0.0449484)
(0.214235 0 -0.0397665)
(0.188717 0 -0.0344617)
(0.160682 0 -0.0289744)
(0.129999 0 -0.0232383)
(0.0965382 0 -0.0171767)
(0.0601711 0 -0.0107025)
(0.0206223 0 -0.00368858)
(0.3275 0 -0.130556)
(0.358839 0 -0.141341)
(0.378414 0 -0.146012)
(0.387963 0 -0.146079)
(0.391849 0 -0.14368)
(0.39267 0 -0.139946)
(0.3918 0 -0.135442)
(0.389868 0 -0.13045)
(0.38715 0 -0.125137)
(0.383755 0 -0.119624)
(0.379647 0 -0.11398)
(0.374769 0 -0.108266)
(0.369031 0 -0.102534)
(0.362324 0 -0.0968226)
(0.35453 0 -0.0911591)
(0.345525 0 -0.0855611)
(0.335183 0 -0.0800363)
(0.323379 0 -0.0745833)
(0.309985 0 -0.0691923)
(0.294875 0 -0.0638463)
(0.277923 0 -0.0585209)
(0.259002 0 -0.0531849)
(0.237968 0 -0.0477928)
(0.214696 0 -0.04231)
(0.189068 0 -0.0366845)
(0.160943 0 -0.0308528)
(0.130185 0 -0.0247482)
(0.0966638 0 -0.0182921)
(0.0602443 0 -0.0113946)
(0.0206462 0 -0.00392463)
(0.370997 0 -0.146825)
(0.396588 0 -0.154711)
(0.40718 0 -0.155527)
(0.410077 0 -0.153118)
(0.409405 0 -0.149296)
(0.407036 0 -0.144784)
(0.403767 0 -0.139863)
(0.399936 0 -0.134658)
(0.395656 0 -0.129238)
(0.390942 0 -0.123673)
(0.385731 0 -0.118013)
(0.379907 0 -0.112286)
(0.373356 0 -0.106531)
(0.365949 0 -0.10078)
(0.357552 0 -0.095056)
(0.348028 0 -0.0893739)
(0.337241 0 -0.0837405)
(0.325055 0 -0.0781546)
(0.311337 0 -0.0726072)
(0.295952 0 -0.067082)
(0.278771 0 -0.0615559)
(0.259673 0 -0.0560018)
(0.238484 0 -0.050371)
(0.215072 0 -0.0446197)
(0.189346 0 -0.038707)
(0.161139 0 -0.0325624)
(0.130315 0 -0.026122)
(0.0967475 0 -0.019307)
(0.0602908 0 -0.0120235)
(0.02066 0 -0.00413851)
(0.413172 0 -0.162104)
(0.428001 0 -0.16479)
(0.4301 0 -0.16191)
(0.427721 0 -0.1576)
(0.423612 0 -0.152877)
(0.418825 0 -0.147979)
(0.413728 0 -0.142922)
(0.408433 0 -0.137701)
(0.402936 0 -0.132325)
(0.397166 0 -0.126816)
(0.39104 0 -0.121213)
(0.384423 0 -0.115539)
(0.377178 0 -0.109822)
(0.369163 0 -0.104087)
(0.360233 0 -0.0983531)
(0.350245 0 -0.0926347)
(0.339054 0 -0.0869379)
(0.32652 0 -0.081262)
(0.312502 0 -0.0755988)
(0.296862 0 -0.069933)
(0.279465 0 -0.0642423)
(0.260175 0 -0.0584982)
(0.238844 0 -0.0526633)
(0.215333 0 -0.0466853)
(0.189538 0 -0.0405234)
(0.161268 0 -0.0341051)
(0.130379 0 -0.0273608)
(0.0967861 0 -0.0202227)
(0.0603094 0 -0.0125901)
(0.0206627 0 -0.00433041)
(0.447266 0 -0.172893)
(0.452159 0 -0.169852)
(0.44688 0 -0.164126)
(0.44074 0 -0.159117)
(0.434321 0 -0.154341)
(0.427912 0 -0.149565)
(0.421571 0 -0.144678)
(0.415255 0 -0.139639)
(0.408882 0 -0.134442)
(0.402343 0 -0.129102)
(0.395516 0 -0.123643)
(0.388267 0 -0.118089)
(0.380452 0 -0.112467)
(0.371925 0 -0.106797)
(0.362537 0 -0.1011)
(0.352142 0 -0.0953883)
(0.340593 0 -0.0896684)
(0.327745 0 -0.0839406)
(0.313457 0 -0.0781977)
(0.297585 0 -0.0724258)
(0.279991 0 -0.0666036)
(0.260534 0 -0.0607028)
(0.23907 0 -0.0546867)
(0.21546 0 -0.0485091)
(0.189573 0 -0.0421218)
(0.161253 0 -0.035463)
(0.130356 0 -0.028458)
(0.0967769 0 -0.0210376)
(0.0603074 0 -0.0130972)
(0.0206542 0 -0.00450086)
(0.0134315 0 -0.00161292)
(0.0384636 0 -0.00463059)
(0.0601368 0 -0.00729704)
(0.0788679 0 -0.00968574)
(0.0950777 0 -0.0118588)
(0.109126 0 -0.0138629)
(0.121357 0 -0.0157383)
(0.132047 0 -0.0175142)
(0.141428 0 -0.0192103)
(0.149738 0 -0.0208472)
(0.157209 0 -0.0224471)
(0.164027 0 -0.0240191)
(0.170411 0 -0.0255886)
(0.176555 0 -0.0271724)
(0.182663 0 -0.0287935)
(0.188954 0 -0.0304829)
(0.195648 0 -0.0322753)
(0.202997 0 -0.0342183)
(0.211269 0 -0.0363716)
(0.220818 0 -0.0388309)
(0.231965 0 -0.0416917)
(0.24519 0 -0.0451195)
(0.260902 0 -0.049281)
(0.27979 0 -0.0544684)
(0.302343 0 -0.0609622)
(0.329163 0 -0.0691666)
(0.360726 0 -0.0795661)
(0.396666 0 -0.0925897)
(0.434419 0 -0.108387)
(0.46875 0 -0.12743)
(0.0136057 0 -0.00170702)
(0.0389822 0 -0.0049035)
(0.0610006 0 -0.00773323)
(0.0800874 0 -0.0102742)
(0.0966677 0 -0.0125918)
(0.111116 0 -0.0147372)
(0.123774 0 -0.0167541)
(0.13492 0 -0.0186709)
(0.144798 0 -0.0205121)
(0.153648 0 -0.0222999)
(0.161704 0 -0.0240599)
(0.169176 0 -0.0258103)
(0.176268 0 -0.0275725)
(0.183187 0 -0.0293718)
(0.190115 0 -0.0312268)
(0.197312 0 -0.0331848)
(0.204989 0 -0.0352827)
(0.213388 0 -0.0375725)
(0.222794 0 -0.0401256)
(0.233515 0 -0.0430331)
(0.245934 0 -0.0464229)
(0.260394 0 -0.0504289)
(0.277383 0 -0.0552647)
(0.297329 0 -0.0611563)
(0.320578 0 -0.0683628)
(0.347527 0 -0.0772524)
(0.37803 0 -0.0881287)
(0.410642 0 -0.100986)
(0.441646 0 -0.115012)
(0.466299 0 -0.128738)
(0.0137841 0 -0.00179974)
(0.0395133 0 -0.00517278)
(0.061887 0 -0.00816446)
(0.0813419 0 -0.0108577)
(0.098306 0 -0.0133207)
(0.113159 0 -0.0156076)
(0.126246 0 -0.0177633)
(0.13786 0 -0.0198236)
(0.148241 0 -0.0218132)
(0.157647 0 -0.02376)
(0.166303 0 -0.025688)
(0.174424 0 -0.0276212)
(0.182196 0 -0.0295763)
(0.189851 0 -0.0315887)
(0.197599 0 -0.0336898)
(0.205664 0 -0.0359203)
(0.214249 0 -0.0383194)
(0.223616 0 -0.0409516)
(0.234032 0 -0.0438906)
(0.245789 0 -0.0472306)
(0.259207 0 -0.0510902)
(0.274598 0 -0.0556057)
(0.29237 0 -0.0609782)
(0.312704 0 -0.067364)
(0.335841 0 -0.0749987)
(0.361714 0 -0.0840821)
(0.389506 0 -0.0946192)
(0.417137 0 -0.106156)
(0.441639 0 -0.117812)
(0.460411 0 -0.128797)
(0.0139629 0 -0.00188975)
(0.0400468 0 -0.00543478)
(0.0627826 0 -0.00858538)
(0.0826145 0 -0.011429)
(0.0999693 0 -0.0140363)
(0.115231 0 -0.0164644)
(0.128762 0 -0.0187635)
(0.140855 0 -0.0209697)
(0.151753 0 -0.0231116)
(0.161711 0 -0.0252192)
(0.170944 0 -0.0273131)
(0.179683 0 -0.029425)
(0.188132 0 -0.0315795)
(0.196504 0 -0.0338086)
(0.205021 0 -0.0361526)
(0.213884 0 -0.0386479)
(0.2233 0 -0.0413399)
(0.23352 0 -0.0442968)
(0.244778 0 -0.047587)
(0.257365 0 -0.051314)
(0.271485 0 -0.0555651)
(0.287474 0 -0.0604939)
(0.305507 0 -0.0662304)
(0.325635 0 -0.0728904)
(0.347848 0 -0.0806103)
(0.371695 0 -0.0894132)
(0.395956 0 -0.0990464)
(0.418852 0 -0.109019)
(0.438544 0 -0.118754)
(0.453348 0 -0.127679)
(0.0141406 0 -0.00197639)
(0.0405764 0 -0.00568733)
(0.0636831 0 -0.00899458)
(0.083903 0 -0.011987)
(0.101653 0 -0.0147368)
(0.117339 0 -0.0173069)
(0.131318 0 -0.0197495)
(0.143876 0 -0.0220987)
(0.155283 0 -0.0243918)
(0.165769 0 -0.0266551)
(0.17558 0 -0.0289192)
(0.184932 0 -0.0312133)
(0.194022 0 -0.0335637)
(0.203075 0 -0.0360079)
(0.21229 0 -0.0385824)
(0.221877 0 -0.0413319)
(0.232024 0 -0.0442995)
(0.242943 0 -0.0475448)
(0.254886 0 -0.0511502)
(0.268045 0 -0.055191)
(0.282602 0 -0.0597543)
(0.298792 0 -0.0649624)
(0.316616 0 -0.070885)
(0.335987 0 -0.0775816)
(0.35668 0 -0.0850875)
(0.377973 0 -0.0932664)
(0.398758 0 -0.101825)
(0.417825 0 -0.110408)
(0.433992 0 -0.118622)
(0.44614 0 -0.126006)
(0.0143187 0 -0.00205956)
(0.0411257 0 -0.00593292)
(0.0646046 0 -0.00939205)
(0.0851955 0 -0.0125269)
(0.103338 0 -0.0154156)
(0.119442 0 -0.0181235)
(0.133857 0 -0.020704)
(0.146888 0 -0.0231982)
(0.158799 0 -0.0256419)
(0.169812 0 -0.0280616)
(0.180174 0 -0.0304918)
(0.190097 0 -0.0329607)
(0.199795 0 -0.0355025)
(0.209471 0 -0.0381518)
(0.219321 0 -0.0409464)
(0.229529 0 -0.0439262)
(0.240288 0 -0.047142)
(0.251764 0 -0.0506407)
(0.264207 0 -0.054509)
(0.27769 0 -0.0587857)
(0.292386 0 -0.0635573)
(0.30841 0 -0.0689051)
(0.325623 0 -0.0748408)
(0.343825 0 -0.081369)
(0.362628 0 -0.0884314)
(0.381342 0 -0.0958553)
(0.399161 0 -0.103414)
(0.415226 0 -0.110834)
(0.428759 0 -0.117829)
(0.439039 0 -0.124045)
(0.0144908 0 -0.00213775)
(0.0416583 0 -0.00616439)
(0.0655064 0 -0.00976777)
(0.0864704 0 -0.0130398)
(0.104997 0 -0.0160618)
(0.121522 0 -0.0189057)
(0.136385 0 -0.0216246)
(0.149877 0 -0.0242595)
(0.162265 0 -0.0268472)
(0.173774 0 -0.029417)
(0.18466 0 -0.032007)
(0.195128 0 -0.034646)
(0.205379 0 -0.0373681)
(0.215608 0 -0.0402064)
(0.226011 0 -0.0432026)
(0.236737 0 -0.0463877)
(0.247975 0 -0.0498141)
(0.259872 0 -0.0535267)
(0.272587 0 -0.0575845)
(0.286164 0 -0.0620169)
(0.300733 0 -0.0668945)
(0.316279 0 -0.0722501)
(0.332571 0 -0.0780486)
(0.349342 0 -0.0842514)
(0.366203 0 -0.0907707)
(0.38262 0 -0.0974629)
(0.397986 0 -0.104141)
(0.411696 0 -0.110596)
(0.423215 0 -0.116604)
(0.4321 0 -0.121911)
(0.0146491 0 -0.00220892)
(0.0421662 0 -0.00637861)
(0.0663847 0 -0.0101192)
(0.0877221 0 -0.0135225)
(0.106643 0 -0.0166744)
(0.123577 0 -0.0196481)
(0.138855 0 -0.0224959)
(0.152789 0 -0.0252646)
(0.165642 0 -0.0279917)
(0.177629 0 -0.0307062)
(0.189003 0 -0.033448)
(0.199966 0 -0.036246)
(0.210706 0 -0.0391315)
(0.221431 0 -0.0421455)
(0.232276 0 -0.045312)
(0.243426 0 -0.0486766)
(0.255008 0 -0.0522729)
(0.267142 0 -0.0561396)
(0.279927 0 -0.060315)
(0.293411 0 -0.0648303)
(0.307614 0 -0.0697139)
(0.322417 0 -0.0749539)
(0.337587 0 -0.0805008)
(0.352881 0 -0.0863066)
(0.367956 0 -0.0922818)
(0.38239 0 -0.0983008)
(0.395741 0 -0.104216)
(0.407579 0 -0.109866)
(0.417531 0 -0.115073)
(0.425324 0 -0.119661)
(0.0148235 0 -0.00227703)
(0.0426733 0 -0.00657726)
(0.0672296 0 -0.0104416)
(0.0889325 0 -0.0139676)
(0.108228 0 -0.0172397)
(0.125561 0 -0.020336)
(0.141262 0 -0.0233096)
(0.155616 0 -0.0262043)
(0.168889 0 -0.0290585)
(0.181325 0 -0.0319095)
(0.193151 0 -0.0347914)
(0.204557 0 -0.037734)
(0.215728 0 -0.0407676)
(0.226856 0 -0.0439305)
(0.238055 0 -0.0472419)
(0.249516 0 -0.0507504)
(0.261303 0 -0.054471)
(0.273508 0 -0.0584327)
(0.286216 0 -0.0626689)
(0.299408 0 -0.0671847)
(0.313017 0 -0.0719726)
(0.326922 0 -0.0770105)
(0.340938 0 -0.0822565)
(0.354832 0 -0.0876505)
(0.368311 0 -0.0931072)
(0.381046 0 -0.0985189)
(0.392743 0 -0.103782)
(0.403074 0 -0.108758)
(0.411768 0 -0.113305)
(0.418676 0 -0.117311)
(0.0149804 0 -0.00233617)
(0.043136 0 -0.00675084)
(0.068026 0 -0.0107287)
(0.0900886 0 -0.0143678)
(0.10976 0 -0.017753)
(0.127478 0 -0.020963)
(0.143554 0 -0.0240477)
(0.158301 0 -0.0270578)
(0.171986 0 -0.0300328)
(0.184827 0 -0.0330067)
(0.197048 0 -0.0360127)
(0.208842 0 -0.0390825)
(0.220379 0 -0.0422443)
(0.23182 0 -0.0455278)
(0.243298 0 -0.0489596)
(0.254945 0 -0.0525701)
(0.266804 0 -0.0563678)
(0.278949 0 -0.0603742)
(0.291405 0 -0.0646009)
(0.304114 0 -0.0690343)
(0.31702 0 -0.0736653)
(0.330005 0 -0.0784659)
(0.342903 0 -0.0833912)
(0.355509 0 -0.0883807)
(0.367587 0 -0.0933585)
(0.378892 0 -0.0982373)
(0.389197 0 -0.10293)
(0.398276 0 -0.107329)
(0.405948 0 -0.111333)
(0.41212 0 -0.114862)
(0.0151214 0 -0.00238575)
(0.0435852 0 -0.00690223)