/*--------------------------------*- C++ -*----------------------------------*\
| =========                 |                                                 |
| \\      /  F ield         | OpenFOAM: The Open Source CFD Toolbox           |
|  \\    /   O peration     | Version:  dev                                   |
|   \\  /    A nd           | Web:      www.OpenFOAM.org                      |
|    \\/     M anipulation  |                                                 |
\*---------------------------------------------------------------------------*/
FoamFile
{
    version     2.0;
    format      ascii;
    class       surfaceScalarField;
    location    "2.43";
    object      phi;
}
// * * * * * * * * * * * * * * * * * * * * * * * * * * * * * * * * * * * * * //

dimensions      [0 3 -1 0 0 0 0];

internalField   nonuniform List<scalar> 
5457
(
0.197635
0.0023803
0.195197
0.00244664
0.19263
0.00256672
0.18988
0.00274261
0.186943
0.0029234
0.183823
0.00310272
0.180517
0.00328605
0.177021
0.00347779
0.173325
0.00368131
0.169415
0.00389945
0.165274
0.00413605
0.160882
0.00439227
0.156218
0.00467084
0.151252
0.00497628
0.145954
0.00531146
0.140289
0.00568032
0.134217
0.00608742
0.127693
0.00653752
0.120671
0.00703523
0.113096
0.00758528
0.104912
0.00819202
0.0960588
0.0088592
0.086473
0.00958983
0.0760893
0.0103865
0.064845
0.0112461
0.0526842
0.0121619
0.0395681
0.0131167
0.0255344
0.014034
0.0108428
0.0146917
0.0108428
0.199472
0.0029239
0.198368
0.00355951
0.197002
0.00393358
0.195397
0.00433921
0.193552
0.00475461
0.191469
0.00516812
0.189149
0.00558641
0.18659
0.00601788
0.183786
0.00647033
0.180725
0.00694894
0.177398
0.00745835
0.173782
0.0080091
0.169852
0.00860697
0.165585
0.00925377
0.160952
0.00995855
0.155917
0.0107299
0.150442
0.0115782
0.14448
0.0125143
0.137979
0.0135486
0.130881
0.0146936
0.12312
0.0159617
0.114619
0.0173656
0.105294
0.0189194
0.0950406
0.0206427
0.0837358
0.0225528
0.0712253
0.0246736
0.0572994
0.0270434
0.041598
0.0297357
0.0229399
0.03335
0.0337827
0.199332
0.00360744
0.198307
0.00459387
0.197018
0.00522296
0.195514
0.00583587
0.193797
0.00645815
0.191865
0.00708147
0.189722
0.00770942
0.187367
0.008354
0.184792
0.00902901
0.181989
0.009741
0.178945
0.0104969
0.175644
0.011311
0.172065
0.0121919
0.168186
0.0131436
0.163978
0.01418
0.159409
0.0153137
0.15444
0.0165634
0.149023
0.0179462
0.143105
0.0194791
0.136622
0.0211879
0.129493
0.0230985
0.121625
0.0252406
0.112898
0.0276507
0.10316
0.0303836
0.0921936
0.0335211
0.0796696
0.0371989
0.0650912
0.0416226
0.0477185
0.0471088
0.0261289
0.0549398
0.0599117
0.199239
0.00438471
0.198218
0.00562377
0.196945
0.00649724
0.195456
0.0073176
0.19376
0.00813962
0.191861
0.00896245
0.189759
0.00979084
0.187452
0.0106414
0.184935
0.0115297
0.1822
0.0124644
0.179236
0.0134558
0.17603
0.014517
0.172568
0.0156593
0.168829
0.0168933
0.164786
0.0182364
0.160408
0.0197067
0.155661
0.0213269
0.150501
0.0231206
0.144875
0.0251182
0.138714
0.0273603
0.131932
0.02989
0.124417
0.032762
0.116014
0.0360579
0.10652
0.0398807
0.0956593
0.0443844
0.0830032
0.0498566
0.0678206
0.0568062
0.0490405
0.0658894
0.0261884
0.0777922
0.0861002
0.199191
0.00520982
0.198161
0.0066642
0.196895
0.00776364
0.195417
0.00878841
0.193737
0.00980487
0.191863
0.0108188
0.18979
0.0118431
0.187513
0.0128984
0.185029
0.0139964
0.182332
0.0151495
0.179411
0.0163705
0.176254
0.0176733
0.172847
0.0190715
0.16917
0.0205804
0.165198
0.0222224
0.160897
0.0240231
0.156236
0.026003
0.151179
0.0281929
0.145665
0.0306464
0.13962
0.0334174
0.132953
0.0365664
0.12554
0.0401814
0.11721
0.044394
0.10771
0.0493839
0.0966797
0.0554176
0.0836711
0.0628671
0.0680188
0.0724597
0.0483452
0.0855637
0.0250771
0.101061
0.111177
0.199169
0.00605761
0.198131
0.00771264
0.196875
0.00902017
0.195413
0.0102435
0.193754
0.0114498
0.191901
0.0126523
0.189854
0.0138695
0.187608
0.0151237
0.185159
0.0164277
0.1825
0.0177963
0.179619
0.0192439
0.176505
0.020786
0.173143
0.0224388
0.169512
0.0242207
0.165586
0.0261619
0.161333
0.0282915
0.156718
0.0306336
0.151695
0.0332322
0.146205
0.0361502
0.140174
0.0394606
0.133501
0.0432495
0.126037
0.0476533
0.1176
0.0528366
0.107939
0.0590494
0.0966534
0.0667063
0.0831824
0.0763404
0.0670192
0.0886243
0.0467878
0.105796
0.0235219
0.124327
0.1347
0.199162
0.00691344
0.198123
0.0087617
0.196881
0.0102629
0.19544
0.0116772
0.193808
0.0130683
0.191984
0.014457
0.189969
0.0158635
0.18776
0.0173115
0.185351
0.0188179
0.182735
0.0203991
0.179899
0.0220712
0.176832
0.0238511
0.173516
0.0257584
0.169928
0.0278179
0.166041
0.0300619
0.161828
0.0325196
0.157246
0.035232
0.152235
0.0382598
0.146742
0.0416579
0.140686
0.0455294
0.133947
0.049999
0.126377
0.0552313
0.117771
0.06145
0.107834
0.0689914
0.0962142
0.0783297
0.0823384
0.0902191
0.0655931
0.105372
0.0447865
0.126604
0.0217589
0.147355
0.156459
0.199163
0.00776894
0.198129
0.00980569
0.196905
0.0114887
0.19549
0.0130846
0.193891
0.0146536
0.192105
0.0162233
0.190131
0.0178163
0.187965
0.0194558
0.185602
0.0211615
0.183033
0.0229526
0.180248
0.0248469
0.177234
0.0268628
0.173971
0.0290243
0.17043
0.0313667
0.166589
0.0339158
0.162421
0.0367029
0.157873
0.0397963
0.152884
0.0432647
0.147389
0.0471682
0.141297
0.0516352
0.13448
0.0568273
0.126788
0.0629327
0.118001
0.0702444
0.107805
0.0791937
0.0957886
0.0903505
0.0814678
0.104543
0.064157
0.122685
0.0428443
0.147918
0.0201353
0.170065
0.176594
0.199168
0.00861952
0.198145
0.0108398
0.196941
0.0126946
0.195557
0.0144621
0.193994
0.0162018
0.192251
0.0179471
0.190323
0.0197221
0.188207
0.0215496
0.185897
0.0234506
0.183385
0.0254483
0.180659
0.0275623
0.177706
0.0298118
0.174508
0.0322246
0.171037
0.0348454
0.167262
0.0377027
0.163146
0.0408337
0.158641
0.0443173
0.15369
0.0482317
0.148209
0.0526653
0.142099
0.0577589
0.135238
0.0637005
0.127455
0.0707267
0.118489
0.0792189
0.10805
0.0896399
0.0957222
0.102684
0.0809398
0.11933
0.0631979
0.14043
0.0415996
0.169519
0.0190487
0.192617
0.195643
0.199178
0.00946082
0.198171
0.0118582
0.196993
0.0138753
0.195642
0.0158063
0.194119
0.0177101
0.192423
0.019624
0.190548
0.0215741
0.188491
0.0235836
0.186246
0.0256743
0.183802
0.0278746
0.181148
0.0302051
0.178269
0.0326847
0.175144
0.0353499
0.17175
0.0382457
0.168055
0.0414087
0.164008
0.0448953
0.15957
0.048771
0.154682
0.053136
0.149247
0.0581162
0.143165
0.063856
0.136299
0.0705799
0.128467
0.0785702
0.119424
0.0882715
0.108814
0.100258
0.096252
0.115252
0.0810982
0.134489
0.0630613
0.158471
0.0413932
0.19119
0.0189281
0.215083
0.214572
0.199194
0.0102875
0.19821
0.0128545
0.197063
0.0150245
0.195752
0.0171113
0.194274
0.0191729
0.19263
0.0212482
0.190815
0.0233661
0.188823
0.0255511
0.186647
0.0278285
0.184276
0.0302266
0.181702
0.0327651
0.17891
0.0354697
0.175871
0.0383885
0.172565
0.0415565
0.168969
0.045014
0.16503
0.0488477
0.160693
0.0531234
0.155896
0.0579493
0.150552
0.0634762
0.144556
0.0698671
0.137759
0.0773916
0.129954
0.0863877
0.120928
0.0973082
0.110333
0.110863
0.0976805
0.127912
0.082368
0.149808
0.06422
0.176624
0.0427134
0.2127
0.0204086
0.23739
0.234981
0.199213
0.0110957
0.198257
0.0138237
0.197147
0.0161376
0.195879
0.0183725
0.194453
0.0205849
0.192867
0.0228146
0.191115
0.0250938
0.189192
0.0274492
0.187088
0.0299093
0.1848
0.0324948
0.18232
0.0352298
0.179628
0.0381526
0.1767
0.0413135
0.173512
0.0447474
0.170034
0.0485006
0.166222
0.0526716
0.162018
0.0573422
0.157358
0.0626256
0.152166
0.0686847
0.146333
0.0757147
0.139706
0.0840339
0.132086
0.0940212
0.123231
0.106175
0.112842
0.121263
0.100392
0.140372
0.0853905
0.164818
0.0675497
0.194471
0.0466865
0.233567
0.0246032
0.259476
0.259585
0.199234
0.0118841
0.198309
0.014763
0.197238
0.0172115
0.196019
0.0195859
0.194648
0.0219411
0.193125
0.0243174
0.191443
0.0267514
0.189596
0.0292705
0.187581
0.0318999
0.185395
0.0346592
0.183023
0.0375852
0.180441
0.0407233
0.177635
0.044114
0.174583
0.0478009
0.171245
0.0518458
0.167585
0.0563418
0.163556
0.0613848
0.159093
0.0671042
0.154119
0.0736747
0.14853
0.0813185
0.1422
0.0903792
0.134947
0.10129
0.126538
0.114598
0.116647
0.131166
0.10489
0.152139
0.0909361
0.178781
0.0742149
0.2112
0.0551136
0.252674
0.0335505
0.281042
0.293136
0.199258
0.0126495
0.198367
0.015669
0.19734
0.0182424
0.196173
0.020747
0.194865
0.0232358
0.193412
0.0257497
0.191808
0.0283303
0.190049
0.0310032
0.188135
0.033788
0.186055
0.0367161
0.183793
0.0398285
0.181332
0.043171
0.178664
0.0467749
0.175768
0.0506956
0.172604
0.055015
0.169138
0.0598161
0.165329
0.0652061
0.161123
0.0713248
0.156446
0.0783666
0.151202
0.0865776
0.145304
0.0962928
0.138619
0.10799
0.130948
0.122284
0.122018
0.14011
0.111719
0.162451
0.0998484
0.190662
0.0858817
0.225176
0.0708114
0.267751
0.0509455
0.300911
0.344082
0.199283
0.0133918
0.198426
0.0165419
0.197443
0.0192305
0.196329
0.0218556
0.195082
0.0244689
0.193697
0.0271139
0.19217
0.0298325
0.190501
0.0326456
0.188685
0.035577
0.186707
0.0386695
0.184561
0.0419533
0.182241
0.0454752
0.179726
0.0492807
0.176993
0.0534253
0.174015
0.0579953
0.170764
0.0630739
0.167206
0.0687744
0.163299
0.0752442
0.158977
0.0827018
0.154178
0.0913916
0.148825
0.101661
0.142866
0.113965
0.136188
0.128978
0.128773
0.147541
0.120763
0.170475
0.11228
0.199158
0.103579
0.233887
0.0966996
0.274637
0.0878226
0.309791
0.431904
0.000634159
-0.000632374
0.00250497
-0.00186019
0.00499254
-0.00245099
0.00730232
-0.00224408
0.00892226
-0.00155738
0.00990664
-0.000954383
0.0105612
-0.000649347
0.0111202
-0.000557883
0.0116858
-0.000558031
0.012283
-0.000583511
0.0129069
-0.000607177
0.0135451
-0.000618894
0.0141482
-0.00058241
0.0146465
-0.000478209
0.0150187
-0.000355095
0.0153214
-0.000290415
0.0155947
-0.00026723
0.0157802
-0.00018654
0.0157935
-2.20709e-05
0.0156483
0.000128847
0.0154777
0.00014714
0.0154742
-2.64232e-05
0.0157815
-0.000342832
0.0164171
-0.000675796
0.0173431
-0.000969777
0.0186055
-0.00130903
0.0203268
-0.00176991
0.0225982
-0.00232126
0.0254531
-0.00290549
-0.00337153
0.000528501
-0.00115889
0.00229586
-0.00361592
0.00492446
-0.00504132
0.00742048
-0.00467453
0.00928365
-0.00336079
0.0105455
-0.0021885
0.0114457
-0.00154456
0.0121854
-0.00129569
0.0128718
-0.00123612
0.0135313
-0.00122873
0.0141758
-0.00123445
0.0148196
-0.00124316
0.0154307
-0.00117261
0.0159391
-0.000966552
0.0163242
-0.000723145
0.0166603
-0.000614368
0.0170066
-0.000607559
0.0173113
-0.000492517
0.0174255
-0.000145101
0.0172887
0.000249263
0.017025
0.00038732
0.0168049
0.0001638
0.0167125
-0.000285873
0.0167597
-0.000763046
0.016909
-0.00116281
0.0171074
-0.00155394
0.0174562
-0.00216716
0.0182118
-0.0031266
0.0196416
-0.00438572
-0.00583069
0.000455687
-0.00161232
0.00207747
-0.00522484
0.00436902
-0.00729385
0.00641864
-0.00666247
0.00790683
-0.00479618
0.00890102
-0.00315851
0.00956602
-0.00220351
0.010052
-0.00177744
0.0104453
-0.00161939
0.0107513
-0.00151917
0.0109838
-0.00144894
0.0111812
-0.00142067
0.0113231
-0.00129346
0.0113152
-0.000938599
0.0111064
-0.000497435
0.010799
-0.000295001
0.010485
-0.000287691
0.0100592
-6.8007e-05
0.00932617
0.000579138
0.00821648
0.00134275
0.00674006
0.00184051
0.00500414
0.00187015
0.00328869
0.00139451
0.0019948
0.00049121
0.0013614
-0.000572704
0.00147318
-0.00171181
0.00238048
-0.00312256
0.00398652
-0.00478204
0.00599159
-0.00644099
-0.00808642
0.000584582
-0.00219435
0.00214954
-0.00677588
0.00396736
-0.00907373
0.00534422
-0.00798516
0.00621082
-0.0056192
0.00670362
-0.00363031
0.00691731
-0.0024089
0.00694419
-0.00179665
0.00683589
-0.0014987
0.00656686
-0.00123328
0.00611611
-0.000979247
0.0055312
-0.000815347
0.00490877
-0.000649833
0.00400085
-1.07511e-05
0.00246191
0.00105822
0.000229781
0.00194902
-0.00236617
0.00231405
-0.0047147
0.00227936
-0.00650185
0.00235779
-0.00782814
0.00265325
-0.00884398
0.00283365
-0.00955673
0.00255392
-0.00987767
0.00168102
-0.00974817
0.000322715
-0.00911173
-0.0012518
-0.00803667
-0.00283235
-0.0068151
-0.00439165
-0.00571807
-0.00592796
-0.00481597
-0.00739284
-0.00877264
0.000807556
-0.002999
0.00225255
-0.00820636
0.0034464
-0.0102325
0.00398203
-0.00847572
0.00404593
-0.00564866
0.00382986
-0.00339588
0.00334636
-0.00191479
0.00261102
-0.00105047
0.00167566
-0.000548766
0.000489136
-2.86421e-05
-0.00125784
0.000787544
-0.00362938
0.00157712
-0.00629718
0.00203928
-0.00876981
0.00248172
-0.01081
0.00311503
-0.0126102
0.00376103
-0.0143086
0.00401828
-0.0158851
0.0038549
-0.0171374
0.00360195
-0.0179062
0.00340686
-0.0181756
0.00308095
-0.0180229
0.00237302
-0.0175772
0.00120166
-0.0169885
-0.000304119
-0.0163464
-0.00193575
-0.0157055
-0.00351798
-0.015167
-0.00497696
-0.0148215
-0.00632173
-0.0147031
-0.00756045
-0.008629
0.000984081
-0.00397984
0.00208783
-0.0092958
0.00243498
-0.0105491
0.00192731
-0.00793257
0.000958092
-0.00465293
-0.000317702
-0.00210383
-0.0020238
-0.000196447
-0.00427854
0.00121748
-0.00692131
0.0021102
-0.00956784
0.00263684
-0.0118966
0.00313671
-0.0139618
0.00366365
-0.0159948
0.00409366
-0.0179647
0.0044713
-0.0197324
0.00489915
-0.0211995
0.00523982
-0.0224148
0.0052396
-0.0234382
0.00487763
-0.0241957
0.00435177
-0.0245734
0.00376994
-0.0245577
0.00304405
-0.024257
0.00204498
-0.0238361
0.000748054
-0.0234185
-0.00075898
-0.0230739
-0.00232125
-0.0228425
-0.00379324
-0.0227617
-0.00510376
-0.0228724
-0.00625851
-0.0232124
-0.00726905
-0.00806727
0.000905154
-0.0048815
0.00137093
-0.00974833
0.000512073
-0.00966546
-0.00139948
-0.00599437
-0.00387395
-0.00215814
-0.00682033
0.000857233
-0.00978508
0.00278149
-0.0123877
0.00383474
-0.0147524
0.00449197
-0.0170345
0.00493838
-0.0191832
0.00530621
-0.0211531
0.00565505
-0.0229821
0.00594389
-0.0246678
0.00617645
-0.026121
0.00636863
-0.0272811
0.00641158
-0.0281906
0.00615515
-0.0289069
0.00559353
-0.0294133
0.0048511
-0.0296624
0.00400508
-0.0296643
0.00302557
-0.0295054
0.00185976
-0.0293015
0.000512421
-0.0291458
-0.000950823
-0.0290941
-0.00241283
-0.0291775
-0.00375274
-0.0294214
-0.0049049
-0.0298524
-0.0058742
-0.0305022
-0.00666695
-0.00724753
0.000440166
-0.00531808
-0.000240756
-0.00905596
-0.00281263
-0.00707458
-0.00642714
-0.00236041
-0.0101812
0.00161191
-0.0134021
0.00409163
-0.0160841
0.00547698
-0.0185448
0.00631074
-0.0208243
0.0067889
-0.0229355
0.00706909
-0.0248818
0.00727332
-0.0266513
0.00744593
-0.028249
0.00756257
-0.0296652
0.00761178
-0.0308545
0.00757395
-0.0317964
0.00736502
-0.0325312
0.00689603
-0.0331107
0.00617301
-0.0335432
0.005277
-0.0338159
0.00426465
-0.0339453
0.0031355
-0.0339894
0.00187852
-0.0340252
0.00051766
-0.0341257
-0.000885465
-0.0343371
-0.00224021
-0.0346827
-0.00344899
-0.0351825
-0.00444915
-0.0358586
-0.00524387
-0.0367343
-0.00583817
-0.00624408
-0.00056681
-0.00474779
-0.00300469
-0.00660887
-0.00744081
-0.00262473
-0.0119988
0.00221167
-0.0156906
0.00531666
-0.0186819
0.00709557
-0.0213176
0.00812616
-0.0236593
0.00866779
-0.0257594
0.00890643
-0.0276538
0.0089828
-0.0293581
0.00899807
-0.0308777
0.0089866
-0.0322255
0.00893093
-0.0334013
0.00880624
-0.0343864
0.00857465
-0.0351817
0.00817167
-0.0358264
0.00754686
-0.0363647
0.00671163
-0.0368143
0.0057205
-0.0371778
0.00461575
-0.0374713
0.00341048
-0.0377325
0.00211545
-0.038011
0.00076668
-0.0383587
-0.000571691
-0.0388111
-0.00182544
-0.0393848
-0.00291596
-0.0400962
-0.00378087
-0.0409672
-0.00441761
-0.0420174
-0.00483402
-0.00509506
-0.00211299
-0.00263165
-0.00679996
-0.00191502
-0.0123506
0.00293547
-0.0167756
0.00664708
-0.0202626
0.00881454
-0.0232018
0.0100466
-0.0257125
0.0106503
-0.0278671
0.0108376
-0.029725
0.0107814
-0.0313427
0.0106193
-0.0327623
0.0104377
-0.0340137
0.0102585
-0.0351178
0.0100549
-0.0360804
0.0097869
-0.0369002
0.0094096
-0.0375921
0.00887464
-0.038193
0.00815396
-0.0387411
0.00726022
-0.0392572
0.00623099
-0.0397504
0.00509729
-0.0402333
0.0038758
-0.0407275
0.00258636
-0.0412575
0.00126835
-0.0418496
-1.23136e-05
-0.0425274
-0.00118416
-0.0433049
-0.0021781
-0.0441951
-0.00293262
-0.0452242
-0.00343226
-0.0464159
-0.00368748
-0.00382217
-0.0045758
0.00194675
-0.0111724
0.00468644
-0.0166157
0.00838558
-0.0208044
0.0108438
-0.0242071
0.0122266
-0.0270102
0.0128609
-0.0293161
0.0129693
-0.0312035
0.0127399
-0.0327532
0.0123479
-0.0340473
0.0119316
-0.0351561
0.0115658
-0.036128
0.0112502
-0.0369899
0.010936
-0.0377531
0.0105676
-0.0384271
0.0100982
-0.0390344
0.00949266
-0.0396112
0.00873685
-0.0401928
0.00784251
-0.0408017
0.00683476
-0.0414495
0.00573405
-0.0421437
0.00455321
-0.0428924
0.00331284
-0.0436989
0.00204767
-0.0445557
0.000812824
-0.0454636
-0.000311621
-0.046433
-0.00124707
-0.0474783
-0.00192825
-0.0486358
-0.00231751
-0.0499468
-0.00242065
-0.00243069
-0.00793998
0.00988867
-0.015084
0.0118339
-0.0202587
0.0135654
-0.0242845
0.0148764
-0.0275324
0.015483
-0.0301298
0.0154687
-0.0321541
0.0150062
-0.0336957
0.014296
-0.0348631
0.0135316
-0.0357736
0.0128596
-0.0365311
0.0123418
-0.0372009
0.011939
-0.0378104
0.0115638
-0.0383694
0.0111432
-0.0388913
0.0106341
-0.0394051
0.0100168
-0.0399511
0.00928871
-0.0405674
0.00845959
-0.0412795
0.00754218
-0.0420997
0.0065438
-0.0430291
0.00546659
-0.0440594
0.00432188
-0.0451723
0.0031344
-0.0463356
0.00194569
-0.0475137
0.000832223
-0.0486903
-0.000107732
-0.0498808
-0.000777581
-0.0511421
-0.00109798
-0.0525605
-0.00104538
-0.000905189
-0.0117265
0.0216164
-0.018633
0.0187429
-0.0234192
0.018356
-0.027247
0.0187103
-0.0302988
0.0185428
-0.0326065
0.0177864
-0.0342442
0.016656
-0.0353309
0.0153968
-0.036016
0.0142325
-0.0364631
0.0133237
-0.0368159
0.0127124
-0.0371528
0.0122939
-0.0374854
0.0119139
-0.0378082
0.0114819
-0.038133
0.0109722
-0.0384974
0.010391
-0.038955
0.009752
-0.0395578
0.00906318
-0.0403412
0.0083211
-0.0413193
0.00751204
-0.0424863
0.00661841
-0.043815
0.0056301
-0.0452602
0.00455454
-0.0467646
0.00342064
-0.0482649
0.00229948
-0.0497071
0.00129824
-0.0510711
0.00054769
-0.0524206
0.000210804
-0.0539005
0.000392256
0.000699921
-0.0141758
0.035793
-0.0210574
0.0256268
-0.0256931
0.0229957
-0.0295355
0.0225587
-0.0324065
0.0214217
-0.0343469
0.0197367
-0.0354857
0.0178066
-0.0359969
0.0159218
-0.0360869
0.014338
-0.0359829
0.0132361
-0.0358841
0.0126304
-0.0358717
0.0122986
-0.0359069
0.0119656
-0.0359436
0.0115335
-0.0359832
0.0110244
-0.0360756
0.0104927
-0.0362981
0.00997987
-0.0367305
0.00949624
-0.0374327
0.00901908
-0.0384331
0.008503
-0.0397253
0.007896
-0.0412681
0.00715333
-0.0429892
0.00625141
-0.0447974
0.0052005
-0.0465876
0.00405766
-0.0482602
0.0029357
-0.0497649
0.00201475
-0.0511468
0.00155296
-0.0525613
0.0017654
0.00228801
-0.00769242
0.043486
-0.0168075
0.0347442
-0.02506
0.0312523
-0.0299357
0.0274405
-0.0328796
0.0243733
-0.0345041
0.0213708
-0.0351396
0.0184537
-0.0350648
0.0158603
-0.0345526
0.0138409
-0.0339005
0.0125998
-0.0334008
0.0121467
-0.0331336
0.0120474
-0.0329279
0.0117753
-0.0326634
0.0112829
-0.0323298
0.0107025
-0.0319945
0.0101659
-0.0317623
0.00975245
-0.0317445
0.00947893
-0.032035
0.00930532
-0.0326952
0.00915401
-0.0337487
0.00893538
-0.0351811
0.00856684
-0.0369324
0.00797932
-0.0388935
0.00713421
-0.0409124
0.0060456
-0.0428242
0.00481333
-0.0445132
0.0036671
-0.0459654
0.00296643
-0.0472674
0.00302699
0.00392283
0.206956
0.014122
0.20612
0.0173964
0.205162
0.0201956
0.204076
0.0229371
0.202859
0.0256711
0.201508
0.028444
0.200024
0.031291
0.198407
0.0342336
0.196651
0.0373045
0.194745
0.0405484
0.19268
0.0439941
0.190453
0.0476845
0.188041
0.05168
0.185434
0.0560256
0.182615
0.0608139
0.17955
0.0661426
0.176223
0.0721101
0.172603
0.0788749
0.168663
0.0866545
0.164363
0.0957055
0.15969
0.106349
0.154656
0.119017
0.149335
0.134318
0.144069
0.152824
0.139279
0.175281
0.135938
0.202514
0.136226
0.233612
0.145516
0.265355
0.169284
0.286026
0.283078
0.31811
0.211997
0.0148363
0.21119
0.0182234
0.210269
0.0211256
0.209226
0.023977
0.20806
0.0268238
0.206772
0.0297105
0.205363
0.0326735
0.203828
0.0357384
0.202161
0.0389415
0.200356
0.0423234
0.198406
0.045918
0.19631
0.0497595
0.194064
0.0539105
0.191647
0.0584332
0.189042
0.0634146
0.186242
0.068944
0.183237
0.0751209
0.18001
0.0821103
0.176575
0.0901008
0.172944
0.0993484
0.169194
0.110114
0.165422
0.122808
0.161952
0.137808
0.159353
0.155442
0.158492
0.17616
0.161399
0.199624
0.171784
0.22324
0.195811
0.241336
0.234846
0.246994
0.248023
0.269901
0.217168
0.0155252
0.216397
0.0190152
0.215523
0.0220117
0.214536
0.0249633
0.213438
0.0279104
0.212228
0.030899
0.210904
0.0339701
0.209463
0.0371484
0.207901
0.040472
0.20622
0.0439727
0.204423
0.047687
0.202501
0.0516571
0.200453
0.0559395
0.19826
0.0606137
0.195921
0.0657457
0.193458
0.071406
0.190861
0.0777203
0.188146
0.0848314
0.185346
0.0929093
0.182566
0.102138
0.179937
0.112756
0.177695
0.125069
0.17636
0.139164
0.17664
0.155182
0.17981
0.173011
0.188153
0.191299
0.204171
0.207237
0.228375
0.217141
0.255932
0.21944
0.215717
0.288237
0.222474
0.0161783
0.221746
0.0197656
0.220922
0.0228487
0.220002
0.0258853
0.218983
0.0289209
0.217858
0.0320051
0.216631
0.0351693
0.215303
0.0384444
0.213874
0.0418678
0.212348
0.0454652
0.210724
0.04928
0.208999
0.0533557
0.207171
0.0577452
0.205247
0.0625214
0.203238
0.0677442
0.20116
0.0734785
0.199045
0.0798345
0.19693
0.0869487
0.194889
0.0949557
0.193078
0.103956
0.191682
0.114163
0.191088
0.125681
0.191887
0.138387
0.194882
0.15221
0.201387
0.166528
0.212948
0.179758
0.230146
0.190054
0.251694
0.195603
0.275928
0.195211
0.187577
0.304068
0.22791
0.0167928
0.22723
0.0204696
0.226467
0.0236253
0.225625
0.0267309
0.224696
0.0298434
0.223676
0.0330094
0.222566
0.0362537
0.221368
0.0396112
0.22009
0.0431111
0.218735
0.046785
0.217305
0.0506775
0.215805
0.0548257
0.214239
0.0592858
0.212626
0.0641144
0.21099
0.0693658
0.209355
0.0751049
0.207779
0.0814058
0.206318
0.0884086
0.205106
0.0961702
0.204329
0.104737
0.204225
0.114274
0.205258
0.124662
0.208008
0.135657
0.213244
0.146998
0.221923
0.157873
0.234608
0.167092
0.251028
0.17365
0.270103
0.176539
0.290511
0.174808
0.166706
0.311385
0.23348
0.0173659
0.232859
0.0211156
0.232171
0.0243277
0.231418
0.0274886
0.230591
0.0306658
0.229687
0.033901
0.228705
0.0372135
0.227654
0.0406327
0.226547
0.0441841
0.225387
0.0479091
0.22418
0.0518496
0.222934
0.0560391
0.221667
0.0605255
0.2204
0.0653579
0.219174
0.0705735
0.218033
0.0762332
0.21703
0.0824003
0.216274
0.0891608
0.215937
0.0965062
0.216204
0.104471
0.217362
0.113122
0.219868
0.122167
0.224231
0.13131
0.231021
0.140227
0.240663
0.148251
0.253144
0.154632
0.268065
0.158745
0.284609
0.160007
0.301575
0.15785
0.150135
0.31815
0.239196
0.0178856
0.238645
0.0216931
0.238039
0.024949
0.23738
0.028154
0.236661
0.0313817
0.235882
0.0346677
0.235049
0.038027
0.234169
0.0414861
0.233255
0.045067
0.23231
0.0488182
0.231345
0.0527792
0.23038
0.0569695
0.229437
0.0614385
0.228551
0.0662178
0.227767
0.071336
0.22714
0.0768438
0.226753
0.082776
0.226744
0.0891621
0.227271
0.0959747
0.228521
0.10322
0.230832
0.110814
0.234583
0.118425
0.240106
0.1258
0.247686
0.132663
0.25742
0.138533
0.269153
0.142916
0.282517
0.145397
0.296904
0.145632
0.31146
0.143302
0.136219
0.32538
0.245051
0.0183494
0.24458
0.0221919
0.244068
0.0254788
0.243513
0.0287165
0.242915
0.0319773
0.242278
0.0352948
0.241607
0.0386795
0.240916
0.0421531
0.24021
0.0457438
0.239497
0.0494979
0.238798
0.0534434
0.238138
0.0575951
0.237542
0.0620024
0.237061
0.0666699
0.236739
0.0716348
0.236642
0.0769212
0.236892
0.0825111
0.237608
0.0884349
0.238935
0.0946404
0.241106
0.101045
0.244419
0.107502
0.249084
0.113766
0.255258
0.119637
0.263063
0.12487
0.272498
0.129112
0.283366
0.132061
0.295337
0.133439
0.307985
0.132994
0.320683
0.130612
0.12427
0.332638
0.251055
0.0187484
0.250675
0.0226021
0.250264
0.0259094
0.249822
0.029167
0.249358
0.0324416
0.248875
0.0357682
0.248384
0.0391542
0.247893
0.0426218
0.24741
0.0461992
0.246952
0.049925
0.24654
0.0538219
0.246199
0.0579023
0.245973
0.0621955
0.245906
0.0667074
0.24605
0.0714657
0.246499
0.0764501
0.247363
0.0816298
0.248758
0.0870262
0.25085
0.0925385
0.253837
0.0980521
0.257883
0.103454
0.26309
0.108564
0.26954
0.113195
0.277285
0.117135
0.286261
0.120147
0.296283
0.12205
0.30708
0.122653
0.318302
0.121782
0.329479
0.119443
0.113808
0.339946
0.257215
0.0190712
0.256927
0.0229216
0.256627
0.0262307
0.256313
0.0294923
0.255992
0.0327646
0.255678
0.0360746
0.255381
0.0394369
0.255103
0.0428793
0.254855
0.0464209
0.254662
0.0500887
0.254549
0.0539036
0.254546
0.0578722
0.254696
0.0620143
0.255041
0.0663323
0.255664
0.0708165
0.256657
0.075434
0.25811
0.0801571
0.260154
0.0849664
0.262916
0.0897637
0.266503
0.0944572
0.271008
0.0989443
0.276503
0.103069
0.28303
0.106673
0.290574
0.109597
0.299036
0.111693
0.308268
0.112827
0.318068
0.11286
0.328117
0.111741
0.338057
0.109509
0.104495
0.347375
0.26353
0.0193104
0.263341
0.0231434
0.26316
0.026435
0.262986
0.0296795
0.262827
0.0329273
0.262691
0.0362061
0.262591
0.0395252
0.262537
0.0429144
0.262538
0.0463962
0.262619
0.0499801
0.262813
0.0536799
0.263155
0.0574995
0.26368
0.061458
0.264452
0.0655307
0.265562
0.0696798
0.267083
0.0738894
0.269091
0.0781288
0.271685
0.0823547
0.274942
0.0864923
0.278933
0.0904559
0.283728
0.094142
0.289366
0.0974287
0.295845
0.100194
0.303113
0.102332
0.311071
0.10374
0.319607
0.104296
0.328539
0.103934
0.337605
0.102681
0.346546
0.100574
0.0961007
0.354943
0.269999
0.0194621
0.269924
0.0232536
0.26987
0.0265145
0.269842
0.0297229
0.269856
0.0329198
0.269913
0.036147
0.27002
0.039409
0.270193
0.0427262
0.27045
0.0461173
0.270821
0.0495845
0.271329
0.0531441
0.27201
0.0567898
0.272926
0.060513
0.274144
0.0642843
0.275721
0.0680761
0.277715
0.0718715
0.280186
0.0756369
0.2832
0.0793228
0.286818
0.0828591
0.291094
0.0861677
0.296066
0.089161
0.301742
0.0917461
0.30809
0.0938436
0.315046
0.0953756
0.322547
0.0962394
0.330483
0.0963631
0.338669
0.0957516
0.34691
0.0944433
0.355026
0.0924611
0.0884579
0.36267
0.276626
0.0195225
0.276671
0.0232468
0.27676
0.0264536
0.276894
0.0296072
0.277083
0.0327401
0.277336
0.035895
0.27766
0.0390782
0.278071
0.0423027
0.278593
0.0455768
0.279252
0.0489041
0.280081
0.0522908
0.281125
0.0557191
0.28244
0.0591712
0.284072
0.0626259
0.286058
0.0660648
0.288445
0.0694611
0.291286
0.0727756
0.294632
0.075959
0.298525
0.0789507
0.302995
0.081684
0.308058
0.0840869
0.313695
0.0861012
0.319862
0.0876705
0.326528
0.088707
0.333623
0.0891426
0.341015
0.0889709
0.348558
0.0882101
0.356113
0.0868889
0.363546
0.0850299
0.0814367
0.370567
0.283426
0.0194769
0.283593
0.0231208
0.283825
0.0262518
0.284131
0.0293226
0.284505
0.0323781
0.284959
0.0354454
0.28551
0.0385241
0.28617
0.0416334
0.286965
0.0447679
0.287924
0.0479262
0.289087
0.0511067
0.290492
0.0542912
0.29217
0.0574687
0.294156
0.0606166
0.296487
0.0637104
0.299206
0.0667208
0.302352
0.0696099
0.305961
0.0723324
0.310059
0.0748376
0.314657
0.0770727
0.319743
0.0789891
0.32529
0.0805437
0.331283
0.0816691
0.337683
0.0823021
0.344391
0.082431
0.351297
0.082063
0.358295
0.0812114
0.365277
0.0799057
0.37214
0.0781669
0.0749347
0.378641
0.290394
0.0193199
0.290686
0.0228716
0.291073
0.0258982
0.291557
0.0288624
0.292125
0.0318263
0.292791
0.0347863
0.293578
0.0377382
0.2945
0.0407064
0.295579
0.0436785
0.296844
0.0466465
0.298325
0.0496089
0.300046
0.05255
0.302041
0.0554532
0.30434
0.0582968
0.306975
0.0610557
0.309976
0.0637004
0.313372
0.0661959
0.317186
0.0685021
0.321433
0.0705765
0.326101
0.0723917
0.331165
0.073913
0.336621
0.075076
0.342451
0.0758307
0.348582
0.0761639
0.354931
0.0760772
0.361416
0.075575
0.36795
0.0746742
0.374451
0.0734032
0.380836
0.0717811
0.0688693
0.386899
0.297523
0.0190554
0.297961
0.0224795
0.298518
0.0253779
0.299183
0.0282253
0.299953
0.0310743
0.300846
0.0339047
0.301875
0.0367146
0.303059
0.0395211
0.304415
0.0423156
0.305964
0.0450874
0.307733
0.0478275
0.309745
0.0505218
0.312029
0.0531531
0.314608
0.0557007
0.317506
0.0581402
0.320746
0.0604442
0.324346
0.0625813
0.328316
0.0645178
0.332661
0.0662188
0.337364
0.0676778
0.342401
0.0688638
0.347765
0.0697008
0.353417
0.0701699
0.359291
0.0702834
0.365322
0.0700407
0.371442
0.0694503
0.377583
0.0685305
0.383676
0.0673075
0.389657
0.0657984
0.0631735
0.39535
0.304838
0.0186684
0.305439
0.0219273
0.306167
0.0246892
0.307015
0.0274084
0.307996
0.0301159
0.309116
0.0327996
0.310384
0.0354558
0.311817
0.0380904
0.313434
0.040697
0.315252
0.0432639
0.317292
0.0457791
0.319575
0.0482282
0.322121
0.0505948
0.324949
0.0528591
0.328077
0.0549991
0.331518
0.0569901
0.335282
0.0588055
0.339371
0.060418
0.343779
0.0618013
0.348495
0.0629521
0.353499
0.0638491
0.358759
0.0644304
0.364236
0.0646855
0.369878
0.064635
0.37563
0.0642826
0.381438
0.0636391
0.387242
0.0627227
0.39299
0.0615571
0.39863
0.0601572
0.0577914
0.404009
0.312351
0.0181346
0.313114
0.0212161
0.314016
0.0238298
0.315055
0.0264036
0.316241
0.0289564
0.31758
0.0314795
0.319081
0.0339679
0.320758
0.0364212
0.322626
0.0388325
0.324699
0.04119
0.326994
0.0434805
0.329526
0.0456899
0.332311
0.0478021
0.335362
0.0497994
0.33869
0.0516621
0.342302
0.053369
0.346201
0.0548984
0.350382
0.0562292
0.354835
0.0573419
0.359547
0.058233
0.364498
0.0588889
0.369654
0.0592671
0.374971
0.0593616
0.380408
0.0591925
0.38592
0.058767
0.391458
0.0580975
0.396978
0.0572013
0.402433
0.0560998
0.407784
0.0548059
0.0526758
0.412898
0.320048
0.0174481
0.320976
0.0203422
0.322057
0.0227956
0.323289
0.0252093
0.32468
0.0275954
0.326237
0.0299464
0.327966
0.0322564
0.329878
0.0345211
0.331986
0.0367326
0.3343
0.0388794
0.336834
0.0409483
0.339597
0.0429255
0.3426
0.0447963
0.345851
0.0465445
0.349356
0.0481533
0.353115
0.0496051
0.357126
0.0508829
0.361381
0.0519705
0.365866
0.052854
0.370566
0.0535294
0.37546
0.0539894
0.380514
0.0542081
0.385688
0.0541828
0.390947
0.0539307
0.396251
0.053461
0.40156
0.0527866
0.406838
0.0519236
0.412047
0.0508911
0.417153
0.0497002
0.0477864
0.422042
0.327926
0.0166095
0.329025
0.0193016
0.330287
0.0215829
0.331714
0.0238239
0.33331
0.026033
0.335082
0.0282027
0.337034
0.0303263
0.339175
0.0323973
0.341513
0.034407
0.344057
0.0363444
0.346815
0.0381969
0.349793
0.0399517
0.352997
0.0415951
0.356429
0.0431131
0.360092
0.0444916
0.363981
0.0457165
0.368089
0.0467747
0.372406
0.0476542
0.376916
0.0483455
0.381601
0.0488443
0.38644
0.049148