/*--------------------------------*- C++ -*----------------------------------*\
| =========                 |                                                 |
| \\      /  F ield         | OpenFOAM: The Open Source CFD Toolbox           |
|  \\    /   O peration     | Version:  dev                                   |
|   \\  /    A nd           | Web:      www.OpenFOAM.org                      |
|    \\/     M anipulation  |                                                 |
\*---------------------------------------------------------------------------*/
FoamFile
{
    version     2.0;
    format      ascii;
    class       surfaceScalarField;
    location    "4";
    object      phi;
}
// * * * * * * * * * * * * * * * * * * * * * * * * * * * * * * * * * * * * * //

dimensions      [0 3 -1 0 0 0 0];

internalField   nonuniform List<scalar> 
879
(
0.207452
0.00541269
0.0107703
0.212493
0.00559942
0.212121
0.0111408
0.0164525
0.217658
0.00576576
0.217326
0.0114704
0.216841
0.0169354
0.0222436
0.22295
0.00590971
0.222662
0.011755
0.222245
0.0173511
0.221705
0.0227816
0.028109
0.22837
0.00602936
0.228132
0.011991
0.227786
0.0176942
0.227343
0.0232228
0.226812
0.0286391
0.0339942
0.233923
0.00612296
0.233736
0.012175
0.233468
0.0179597
0.233129
0.0235609
0.232726
0.0290402
0.232272
0.0344477
0.0398258
0.239612
0.0061889
0.23948
0.0123038
0.239293
0.0181433
0.239062
0.0237904
0.238795
0.0293057
0.238504
0.0347378
0.238202
0.0401279
0.237903
0.0455104
0.0509142
0.245438
0.0062258
0.245364
0.0123748
0.245263
0.0182411
0.245145
0.0239064
0.245019
0.0294299
0.244898
0.0348586
0.244794
0.0402316
0.244723
0.0455815
0.244703
0.0509346
0.0563126
0.251406
0.0062325
0.251392
0.0123857
0.25138
0.0182501
0.251378
0.0239052
0.251398
0.0294086
0.25145
0.0348054
0.251549
0.0401325
0.25171
0.0454203
0.251952
0.0506927
0.252297
0.0559687
0.252768
0.0612615
0.0665794
0.257519
0.00620811
0.257566
0.0123349
0.257644
0.0181678
0.257763
0.023784
0.257931
0.0292389
0.25816
0.0345753
0.258463
0.0398281
0.258858
0.0450252
0.259363
0.0501881
0.26
0.0553327
0.260792
0.0604696
0.261769
0.0656039
0.262961
0.0707364
0.0758636
0.263779
0.006152
0.263888
0.0122212
0.26406
0.0179929
0.2643
0.0235411
0.264617
0.0289191
0.265024
0.0341673
0.265533
0.0393182
0.266161
0.0443971
0.266926
0.0494231
0.267849
0.0544096
0.268955
0.0593642
0.270271
0.0642894
0.271825
0.0691832
0.273651
0.0740388
0.0788449
0.27019
0.00606383
0.270363
0.012044
0.270627
0.0177244
0.270989
0.023176
0.271457
0.0284491
0.27204
0.0335819
0.272753
0.0386042
0.273611
0.0435391
0.27463
0.0484032
0.275833
0.0532073
0.277241
0.0579566
0.278879
0.0626515
0.280776
0.0672875
0.28296
0.0718558
0.285463
0.0763429
0.288318
0.080731
0.0849976
0.276756
0.00594354
0.276991
0.0118033
0.277349
0.0173627
0.277832
0.0226892
0.278449
0.0278303
0.279207
0.0328214
0.28012
0.0376901
0.281201
0.0424568
0.282468
0.0471361
0.283939
0.0517364
0.285634
0.0562611
0.287578
0.0607086
0.289793
0.0650727
0.292307
0.0693433
0.295145
0.0735057
0.298335
0.0775418
0.301904
0.0814293
0.305879
0.0851427
0.0886532
0.283479
0.00579135
0.283777
0.0114996
0.284227
0.0169087
0.28483
0.0220823
0.285592
0.027065
0.286522
0.0318896
0.287629
0.0365811
0.288927
0.0411577
0.290431
0.0456318
0.292157
0.0500101
0.294124
0.0542942
0.296351
0.0584812
0.29886
0.062564
0.301673
0.0665314
0.30481
0.0703689
0.308294
0.0740586
0.312145
0.0775795
0.31638
0.0809081
0.321015
0.0840189
0.326061
0.0868848
0.0894783
0.290364
0.00560777
0.290724
0.0111338
0.291264
0.0163641
0.291984
0.021358
0.292888
0.0261573
0.293983
0.0307918
0.295278
0.0352843
0.296783
0.0396509
0.298512
0.0439021
0.300478
0.0480431
0.302698
0.0520742
0.305188
0.0559915
0.307965
0.0597874
0.311046
0.0634509
0.314448
0.0669676
0.318186
0.0703209
0.322274
0.0734917
0.326724
0.0764591
0.331543
0.0792012
0.336733
0.0816956
0.297413
0.00539352
0.297834
0.0107076
0.298461
0.0157313
0.299295
0.0205199
0.300337
0.0251118
0.301591
0.0295345
0.303065
0.0338081
0.304767
0.0379471
0.306707
0.0419603
0.308898
0.0458514
0.311352
0.0496201
0.314081
0.053262
0.317099
0.0567694
0.320418
0.0601316
0.324051
0.0633353
0.328007
0.0663655
0.332293
0.0692053
0.336916
0.0718369
0.341876
0.074242
0.0764029
0.304632
0.00514957
0.30511
0.0102228
0.305823
0.0150134
0.306766
0.0195721
0.307939
0.0239344
0.309345
0.0281249
0.310989
0.0321619
0.312876
0.0360579
0.315014
0.0398203
0.317412
0.0434519
0.32008
0.0469519
0.323026
0.0503156
0.326259
0.0535356
0.329788
0.0566022
0.33362
0.0595034
0.33776
0.062226
0.34221
0.0647556
0.34697
0.0670774
0.352035
0.0691768
0.0710402
0.312023
0.00487705
0.312557
0.00968183
0.313351
0.0142139
0.314398
0.0185196
0.315697
0.0226314
0.317247
0.0265714
0.31905
0.0303558
0.32111
0.0339954
0.323431
0.0374966
0.32602
0.0408615
0.328882
0.0440887
0.332023
0.047174
0.335447
0.0501105
0.339159
0.0528894
0.343162
0.0555005
0.347456
0.0579323
0.352038
0.060173
0.356905
0.0622109
0.362047
0.0640346
0.065634
0.319591
0.00457722
0.320179
0.00908705
0.32105
0.0133364
0.322196
0.0173676
0.323613
0.0212096
0.325298
0.0248824
0.32725
0.0284001
0.32947
0.0317722
0.331961
0.0350038
0.334723
0.0380968
0.337761
0.0410496
0.341076
0.0438582
0.344668
0.0465167
0.348539
0.0490175
0.352688
0.0513517
0.357109
0.0535102
0.361798
0.0554835
0.366747
0.0572623
0.371943
0.0588383
0.0602045
0.327341
0.00425143
0.327979
0.00844115
0.328923
0.0123852
0.330163
0.0161215
0.331691
0.0196762
0.333502
0.0230667
0.335593
0.0263054
0.337962
0.0294003
0.340607
0.0323559
0.343527
0.0351736
0.346723
0.0378519
0.350192
0.0403873
0.353933
0.0427747
0.357941
0.0450077
0.362213
0.0470791
0.366741
0.0489816
0.371516
0.0507079
0.376526
0.0522511
0.381758
0.0536054
0.0547663
0.335275
0.003901
0.335962
0.00774677
0.336975
0.0113641
0.338303
0.0147869
0.339936
0.0180381
0.341864
0.0211329
0.344084
0.0240818
0.346588
0.0268916
0.349375
0.0295663
0.352439
0.0321067
0.355777
0.0345117
0.359383
0.0367783
0.363254
0.0389022
0.367382
0.0408782
0.371759
0.0427008
0.376375
0.0443641
0.381219
0.0458628
0.386277
0.0471921
0.391533
0.0483481
0.0493286
0.3434
0.00352721
0.344132
0.00700642
0.345211
0.0102771
0.346622
0.013369
0.348352
0.0163021
0.35039
0.0190891
0.352728
0.0217388
0.355358
0.0242571
0.358274
0.026647
0.361468
0.0289094
0.364933
0.0310432
0.368663
0.033046
0.372649
0.0349143
0.376881
0.0366441
0.381349
0.0382311
0.38604
0.0396711
0.390941
0.0409602
0.396037
0.0420952
0.40131
0.043074
0.0438956
0.35172
0.00313112
0.352495
0.00622222
0.353636
0.00912747
0.355125
0.0118727
0.356946
0.0144744
0.359086
0.016943
0.361534
0.0192855
0.36428
0.0215066
0.367314
0.0236089
0.370626
0.0255931
0.374208
0.0274582
0.378048
0.0292024
0.382137
0.030823
0.386462
0.0323168
0.39101
0.0336808
0.395767
0.0349118
0.400718
0.0360075
0.405845
0.0369658
0.411132
0.0377857
0.0384676
0.36024
0.00271341
0.361057
0.00539567
0.362257
0.00791808
0.36382
0.0103023
0.365726
0.0125609
0.367961
0.0147014
0.370511
0.0167295
0.373364
0.0186488
0.376507
0.0204613
0.379928
0.0221675
0.383616
0.0237667
0.387557
0.0252573
0.39174
0.0266374
0.396149
0.0279046
0.40077
0.0290568
0.405588
0.0300918
0.410584
0.0310083
0.415743
0.0318051
0.421044
0.0324821
0.0330404
0.368965
0.002274
0.369824
0.00452703
0.371082
0.00665075
0.372714
0.00866129
0.374701
0.0105662
0.377026
0.0123702
0.379671
0.0140774
0.382624
0.0156908
0.385868
0.0172116
0.389391
0.0186402
0.393177
0.0199758
0.397213
0.0212174
0.401484
0.0223634
0.405972
0.0234123
0.410663
0.0243625
0.41554
0.0252127
0.420583
0.0259622
0.425775
0.0266105
0.431096
0.027158
0.0276062
0.377903
0.00181118
0.378805
0.00361432
0.38012
0.00532634
0.381819
0.00695313
0.383882
0.00849507
0.38629
0.00995473
0.389025
0.0113353
0.392071
0.0126389
0.395411
0.0138661
0.399029
0.0150169
0.402909
0.0160908
0.407035
0.0170869
0.41139
0.0180041
0.415958
0.0188414
0.420719
0.0195977
0.425656
0.0202723
0.43075
0.0208648
0.435982
0.0213752
0.441332
0.0218043
0.0221534
0.387062
0.00131904
0.388014
0.00265123
0.389387
0.00394327
0.391153
0.0051784
0.39329
0.00634929
0.395779
0.00745802
0.3986
0.00850711
0.401735
0.00949742
0.405166
0.010429
0.408875
0.0113016
0.412846
0.0121148
0.41706
0.0128679
0.421499
0.0135602
0.426145
0.0141909
0.430979
0.0147595
0.435982
0.0152654
0.441134
0.0157087
0.446416
0.0160896
0.451809
0.0164086
0.0166672
0.396462
0.000777932
0.397467
0.00163469
0.398893
0.00250697
0.40072
0.00334187
0.402927
0.00413286
0.405493
0.00488385
0.408396
0.00559609
0.411618
0.00626906
0.415138
0.00690222
0.418938
0.00749518
0.423
0.00804753
0.427304
0.00855878
0.431831
0.00902839
0.436561
0.00945588
0.441475
0.00984087
0.446553
0.0101831
0.451775
0.0104827
0.45712
0.0107399
0.46257
0.0109551
0.0111294
0.406186
9.012e-05
0.40725
0.000559042
0.408727
0.00101831
0.410613
0.00144626
0.412884
0.00185256
0.415518
0.00224115
0.418495
0.00261147
0.421794
0.00296233
0.425396
0.00329306
0.429282
0.00360328
0.433431
0.00389266
0.437823
0.00416083
0.442439
0.00440746
0.447257
0.00463225
0.452258
0.00483498
0.457421
0.00501554
0.462725
0.00517393
0.46815
0.00531032
0.473676
0.00542499
0.00551847
0.415397
0.415944
0.416951
0.418387
0.42023
0.422462
0.425065
0.42802
0.431306
0.434902
0.438789
0.442944
0.447345
0.451972
0.456802
0.461813
0.466982
0.472287
0.477708
)
;

boundaryField
{
    inlet
    {
        type            calculated;
        value           nonuniform List<scalar> 
30
(
-0.20766
-0.212683
-0.217828
-0.223097
-0.228493
-0.23402
-0.239681
-0.245479
-0.251417
-0.257499
-0.263728
-0.270107
-0.276641
-0.283333
-0.290186
-0.297206
-0.304395
-0.311758
-0.3193
-0.327023
-0.334934
-0.343036
-0.351334
-0.359832
-0.368536
-0.377451
-0.386582
-0.395933
-0.40551
-0.415319
)
;
    }
    outlet
    {
        type            calculated;
        value           nonuniform 0();
    }
    flap
    {
        type            calculated;
        value           nonuniform 0();
    }
    upperWall
    {
        type            calculated;
        value           nonuniform List<scalar> 
20
(
0
0
0
0
0
0
0
0
0
-9.82269e-15
9.58559e-15
-1.1357e-20
0
0
0
0
0
0
0
0
)
;
    }
    lowerWall
    {
        type            calculated;
        value           nonuniform 0();
    }
    frontAndBack
    {
        type            empty;
        value           nonuniform 0();
    }
    procBoundary0to1
    {
        type            processor;
        value           nonuniform List<scalar> 
18
(
0.331522
0.342292
0.0839201
0.347169
0.357398
0.367453
0.377372
0.387196
0.39697
0.406741
0.416558
0.426469
0.436528
0.446782
0.457292
0.468104
0.479283
0.483222
)
;
    }
    procBoundary0to3
    {
        type            processor;
        value           nonuniform List<scalar> 
34
(
-0.00520767
-0.0103629
0.207043
-0.0159081
0.211574
-0.0216159
0.216212
-0.0274575
0.221053
-0.033385
0.226203
-0.039332
0.231778
-0.0452112
-0.0506347
0.237625
-0.0563632
0.244754
-0.061732
-0.0672043
0.253394
-0.0719268
-0.0773037
0.264402
-0.0809769
0.275784
-0.0835852
-0.0882382
0.29156
-0.0891162
-0.0930555
0.310282
-0.0919296
-0.0949385
)
;
    }
}


// ************************************************************************* //
