/*--------------------------------*- C++ -*----------------------------------*\
| =========                 |                                                 |
| \\      /  F ield         | OpenFOAM: The Open Source CFD Toolbox           |
|  \\    /   O peration     | Version:  dev                                   |
|   \\  /    A nd           | Web:      www.OpenFOAM.org                      |
|    \\/     M anipulation  |                                                 |
\*---------------------------------------------------------------------------*/
FoamFile
{
    version     2.0;
    format      ascii;
    class       pointVectorField;
    location    "4";
    object      pointDisplacement;
}
// * * * * * * * * * * * * * * * * * * * * * * * * * * * * * * * * * * * * * //

dimensions      [0 1 0 0 0 0 0];

internalField   nonuniform List<vector> 
1034
(
(0 0 0)
(0.00227223 0 9.08971e-05)
(0.00435 0 0.000175512)
(0 0 0)
(0.00227223 0 9.08971e-05)
(0.00435 0 0.000175512)
(0 0 0)
(0.00228334 0 9.43158e-05)
(0.00437233 0 0.000182058)
(0.00622705 0 0.000262659)
(0 0 0)
(0.00229346 0 9.73613e-05)
(0.00439283 0 0.000187881)
(0.00625861 0 0.000270919)
(0.00791776 0 0.0003483)
(0 0 0)
(0.00230219 0 9.99972e-05)
(0.00441075 0 0.000192914)
(0.00628661 0 0.000278035)
(0.00795696 0 0.000357181)
(0.00944616 0 0.000431788)
(0 0 0)
(0.00230922 0 0.000102202)
(0.0044255 0 0.000197118)
(0.00631015 0 0.000283956)
(0.00799056 0 0.000364521)
(0.0094911 0 0.000440231)
(0.0108336 0 0.000512184)
(0 0 0)
(0.00231424 0 0.000103958)
(0.00443647 0 0.000200459)
(0.00632838 0 0.000288639)
(0.00801742 0 0.000370273)
(0.00952794 0 0.000446751)
(0.0108816 0 0.000519149)
(0.0120979 0 0.000588278)
(0 0 0)
(0.00231697 0 0.000105249)
(0.00444314 0 0.000202912)
(0.00634053 0 0.000292051)
(0.00803655 0 0.000374401)
(0.00955544 0 0.00045132)
(0.0109187 0 0.000523851)
(0.0121456 0 0.000592779)
(0.0132533 0 0.000658666)
(0.0142576 0 0.000721888)
(0 0 0)
(0.00231715 0 0.000106066)
(0.004445 0 0.000204457)
(0.0063459 0 0.000294169)
(0.00804706 0 0.000376884)
(0.00957253 0 0.00045392)
(0.0109436 0 0.000526288)
(0.0121791 0 0.00059474)
(0.0132961 0 0.000659813)
(0.0143096 0 0.000721855)
(0.015234 0 0.00078108)
(0 0 0)
(0.00231455 0 0.000106402)
(0.00444161 0 0.000205083)
(0.00634387 0 0.000294978)
(0.00804819 0 0.000377709)
(0.0095783 0 0.000454549)
(0.0109551 0 0.000526469)
(0.0121974 0 0.000594192)
(0.0133215 0 0.000658232)
(0.0143423 0 0.000718917)
(0.0152736 0 0.000776449)
(0.0161274 0 0.0008309)
(0.0169138 0 0.000882166)
(0 0 0)
(0.00230897 0 0.000106253)
(0.00443261 0 0.000204785)
(0.0063339 0 0.000294475)
(0.00803925 0 0.000376877)
(0.00957197 0 0.000453213)
(0.0109526 0 0.000524414)
(0.0121995 0 0.000591174)
(0.0133287 0 0.000653985)
(0.0143547 0 0.000713167)
(0.0152907 0 0.000768904)
(0.016148 0 0.000821254)
(0.0169365 0 0.000870148)
(0.0176646 0 0.000915425)
(0.0183397 0 0.00095686)
(0 0 0)
(0.00230028 0 0.00010562)
(0.00441771 0 0.000203564)
(0.00631558 0 0.000292663)
(0.00801972 0 0.000374397)
(0.00955292 0 0.000449931)
(0.0109353 0 0.000520157)
(0.0121846 0 0.000585738)
(0.0133168 0 0.000647146)
(0.0143457 0 0.00070469)
(0.015284 0 0.000758548)
(0.0161426 0 0.000808778)
(0.016931 0 0.000855337)
(0.0176574 0 0.000898099)
(0.0183286 0 0.000936884)
(0.0189507 0 0.000971462)
(0 0 0)
(0.00228837 0 0.000104505)
(0.0043967 0 0.000201425)
(0.00628861 0 0.000289551)
(0.00798922 0 0.000370286)
(0.00952072 0 0.000444733)
(0.0109027 0 0.000513742)
(0.0121525 0 0.000577945)
(0.0132854 0 0.000637796)
(0.0143151 0 0.000693595)
(0.0152536 0 0.000745517)
(0.0161115 0 0.00079363)
(0.0168979 0 0.000837913)
(0.0176206 0 0.000878275)
(0.0182864 0 0.000914581)
(0.0189008 0 0.000946656)
(0.0194684 0 0.000974307)
(0.0199927 0 0.000997345)
(0 0 0)
(0.00227317 0 0.000102914)
(0.00436946 0 0.000198379)
(0.00625282 0 0.000285159)
(0.00794755 0 0.000364569)
(0.00947517 0 0.000437654)
(0.0108547 0 0.000505216)
(0.0121028 0 0.000567859)
(0.0132345 0 0.000626016)
(0.014263 0 0.000679981)
(0.0151998 0 0.000729931)
(0.0160551 0 0.000775946)
(0.0168378 0 0.000818027)
(0.0175554 0 0.000856118)
(0.0182145 0 0.000890123)
(0.0188203 0 0.000919921)
(0.0193774 0 0.000945378)
(0.0198893 0 0.000966367)
(0.0203587 0 0.000982774)
(0.0207877 0 0.000994515)
(0 0 0)
(0.00225468 0 0.000100856)
(0.00433597 0 0.000194443)
(0.0062082 0 0.000279507)
(0.00789472 0 0.000357278)
(0.00941629 0 0.000428733)
(0.0107912 0 0.00049463)
(0.0120359 0 0.000555541)
(0.0131645 0 0.000611883)
(0.0141899 0 0.000663941)
(0.0151233 0 0.000711896)
(0.0159744 0 0.000755841)
(0.016752 0 0.000795801)
(0.0174633 0 0.000831752)
(0.0181146 0 0.000863637)
(0.0187113 0 0.000891378)
(0.0192576 0 0.000914894)
(0.0197573 0 0.000934114)
(0.0202131 0 0.000948984)
(0.0206274 0 0.000959474)
(0.0210019 0 0.00096559)
(0.0213382 0 0.000967369)
(0 0 0)
(0.00223296 0 9.83405e-05)
(0.00429637 0 0.000189635)
(0.00615491 0 0.000272624)
(0.00783092 0 0.000348446)
(0.00934435 0 0.000418013)
(0.0107128 0 0.000482035)
(0.011952 0 0.000541054)
(0.0130759 0 0.000595467)
(0.0140966 0 0.000645554)
(0.015025 0 0.000691499)
(0.0158708 0 0.000733409)
(0.016642 0 0.00077133)
(0.017346 0 0.000805267)
(0.0179889 0 0.000835198)
(0.018576 0 0.000861088)
(0.0191116 0 0.000882899)
(0.0195993 0 0.000900605)
(0.0200423 0 0.000914198)
(0.0204429 0 0.000923699)
(0.0208033 0 0.000929159)
(0.0211254 0 0.000930637)
(0 0 0)
(0.00220815 0 9.53796e-05)
(0.00425087 0 0.000183977)
(0.00609327 0 0.000264538)
(0.00775659 0 0.000338109)
(0.00925987 0 0.000405536)
(0.01062 0 0.00046748)
(0.0118521 0 0.000524452)
(0.0129696 0 0.000576829)
(0.0139842 0 0.000624886)
(0.0149064 0 0.000668809)
(0.0157456 0 0.000708716)
(0.0165096 0 0.000744673)
(0.0172057 0 0.000776713)
(0.0178397 0 0.000804843)
(0.018417 0 0.000829063)
(0.0189419 0 0.000849374)
(0.0194182 0 0.000865787)
(0.019849 0 0.000878333)
(0.0202371 0 0.00088707)
(0.0205847 0 0.000892067)
(0.0208942 0 0.000893415)
(0 0 0)
(0.00218044 0 9.19855e-05)
(0.00419985 0 0.00017749)
(0.00602379 0 0.000255277)
(0.00767235 0 0.000326302)
(0.00916362 0 0.000391341)
(0.0105138 0 0.000451008)
(0.0117372 0 0.00050578)
(0.0128469 0 0.000556017)
(0.0138541 0 0.000601985)
(0.0147691 0 0.00064387)
(0.0156007 0 0.000681801)
(0.0163569 0 0.000715861)
(0.0170445 0 0.000746104)
(0.0176694 0 0.000772565)
(0.0182369 0 0.000795271)
(0.0187514 0 0.000814255)
(0.0192168 0 0.000829558)
(0.0196363 0 0.000841241)
(0.0200127 0 0.000849387)
(0.0203489 0 0.000854076)
(0 0 0)
(0.00215009 0 8.81702e-05)
(0.0041438 0 0.000170196)
(0.00594716 0 0.000244869)
(0.00757906 0 0.000313054)
(0.00905664 0 0.00037546)
(0.0103953 0 0.000432652)
(0.0116087 0 0.000485072)
(0.0127093 0 0.000533061)
(0.0137082 0 0.000576875)
(0.0146149 0 0.0006167)
(0.0154384 0 0.000652671)
(0.0161861 0 0.000684886)
(0.0168649 0 0.000713414)
(0.0174807 0 0.000738313)
(0.0180386 0 0.000759633)
(0.0185431 0 0.000777431)
(0.0189981 0 0.00079177)
(0.0194071 0 0.000802732)
(0.019773 0 0.000810419)
(0.0200987 0 0.000814919)
(0 0 0)
(0.00211744 0 8.39448e-05)
(0.00408333 0 0.000162112)
(0.00586424 0 0.000233336)
(0.00747782 0 0.000298391)
(0.00894019 0 0.000357917)
(0.0102659 0 0.000412432)
(0.0114682 0 0.000462344)
(0.0125588 0 0.000507972)
(0.0135483 0 0.000549558)
(0.0144462 0 0.000587289)
(0.0152609 0 0.000621301)
(0.0159999 0 0.000651703)
(0.0166698 0 0.000678577)
(0.0172765 0 0.000701995)
(0.017825 0 0.000722027)
(0.01832 0 0.000738746)
(0.0187653 0 0.000752232)
(0.0191645 0 0.000762581)
(0.0195208 0 0.000769906)
(0.0198371 0 0.000774302)
(0 0 0)
(0.00208287 0 7.93182e-05)
(0.00401919 0 0.000153255)
(0.00577607 0 0.000220695)
(0.00736991 0 0.000282326)
(0.00881583 0 0.000338724)
(0.0101276 0 0.000390355)
(0.0113177 0 0.000437593)
(0.0123975 0 0.000480734)
(0.0133771 0 0.000520008)
(0.0142656 0 0.000555593)
(0.0150712 0 0.000587629)
(0.0158013 0 0.000616228)
(0.0164623 0 0.000641482)
(0.01706 0 0.000663474)
(0.0175995 0 0.000682285)
(0.0180854 0 0.000698)
(0.0185217 0 0.00071071)
(0.018912 0 0.000720519)
(0.0192594 0 0.000727546)
(0.0195673 0 0.000731885)
(0 0 0)
(0.00204685 0 7.42965e-05)
(0.00395224 0 0.000143631)
(0.00568386 0 0.000206952)
(0.00725687 0 0.000264863)
(0.00868537 0 0.000317875)
(0.00998232 0 0.000366405)
(0.0111596 0 0.000410792)
(0.0122279 0 0.000451307)
(0.013197 0 0.000488164)
(0.0140758 0 0.000521534)
(0.0148722 0 0.000551553)
(0.0155933 0 0.000578335)
(0.0162456 0 0.000601976)
(0.0168346 0 0.000622566)
(0.0173655 0 0.000640192)
(0.0178429 0 0.000654945)
(0.0182708 0 0.000666923)
(0.0186529 0 0.000676233)
(0.0189924 0 0.000682993)
(0.0192927 0 0.000687295)
(0 0 0)
(0.00200992 0 6.88819e-05)
(0.00388349 0 0.000133244)
(0.00558903 0 0.000192104)
(0.00714045 0 0.00024599)
(0.00855087 0 0.000295346)
(0.00983243 0 0.000340544)
(0.0109963 0 0.000381886)
(0.0120528 0 0.000419616)
(0.0130113 0 0.000453932)
(0.0138803 0 0.000484992)
(0.0146674 0 0.000512928)
(0.0153797 0 0.00053785)
(0.0160234 0 0.000559856)
(0.0166041 0 0.000579037)
(0.0171269 0 0.000595482)
(0.0175963 0 0.000609285)
(0.0180165 0 0.000620542)
(0.0183911 0 0.000629361)
(0.0187235 0 0.000635858)
(0.019017 0 0.000640118)
(0 0 0)
(0.00197265 0 6.3072e-05)
(0.00381406 0 0.000122083)
(0.00549316 0 0.000176134)
(0.00702266 0 0.000225676)
(0.00841468 0 0.000271093)
(0.00968059 0 0.000312709)
(0.010831 0 0.00035079)
(0.0118756 0 0.000385553)
(0.0128233 0 0.000417177)
(0.0136825 0 0.000445806)
(0.0144605 0 0.000471563)
(0.0151642 0 0.000494553)
(0.0157997 0 0.000514869)
(0.0163725 0 0.000532601)
(0.0168878 0 0.000547836)
(0.0173499 0 0.000560665)
(0.0177631 0 0.000571184)
(0.0181309 0 0.000579493)
(0.0184568 0 0.000585703)
(0.0187444 0 0.00058989)
(0 0 0)
(0.00193572 0 5.68584e-05)
(0.00374521 0 0.000110131)
(0.00539804 0 0.000159008)
(0.00690573 0 0.000203869)
(0.00827946 0 0.000245042)
(0.00952982 0 0.000282803)
(0.0106668 0 0.000317382)
(0.0116996 0 0.000348969)
(0.0126369 0 0.000377719)
(0.0134865 0 0.000403764)
(0.0142558 0 0.000427213)
(0.0149513 0 0.000448163)
(0.015579 0 0.000466701)
(0.0161445 0 0.00048291)
(0.0166528 0 0.000496873)
(0.0171082 0 0.000508675)
(0.017515 0 0.000518404)
(0.0178768 0 0.000526155)
(0.0181971 0 0.000532029)
(0.0184793 0 0.000536092)
(0 0 0)
(0.00189987 0 5.02266e-05)
(0.00367838 0 9.73545e-05)
(0.00530569 0 0.000140673)
(0.00679221 0 0.000180494)
(0.00814818 0 0.000217091)
(0.00938346 0 0.000250695)
(0.0105074 0 0.0002815)
(0.0115289 0 0.000309666)
(0.0124562 0 0.000335329)
(0.0132967 0 0.0003586)
(0.0140577 0 0.000379575)
(0.0147456 0 0.000398341)
(0.0153662 0 0.000414974)
(0.015925 0 0.00042955)
(0.0164269 0 0.000442143)
(0.0168764 0 0.000452829)
(0.0172775 0 0.000461688)
(0.017634 0 0.000468805)
(0.0179492 0 0.000474269)
(0.0182268 0 0.000478136)
(0 0 0)
(0.00186595 0 4.31544e-05)
(0.00361515 0 8.37084e-05)
(0.00521838 0 0.000121056)
(0.00668492 0 0.000155449)
(0.00802417 0 0.000187105)
(0.00924529 0 0.000216215)
(0.0103571 0 0.000242936)
(0.011368 0 0.0002674)
(0.0122859 0 0.000289719)
(0.0131182 0 0.000309985)
(0.0138716 0 0.00032828)
(0.0145525 0 0.000344675)
(0.0151667 0 0.000359237)
(0.0157195 0 0.00037203)
(0.0162158 0 0.000383117)
(0.01666 0 0.000392565)
(0.0170562 0 0.000400441)
(0.0174081 0 0.000406819)
(0.017719 0 0.000411775)
(0.0179926 0 0.000415355)
(0 0 0)
(0.00183489 0 3.56118e-05)
(0.00355736 0 6.91304e-05)
(0.00513866 0 0.000100062)
(0.00658709 0 0.000128599)
(0.00791121 0 0.000154912)
(0.00911955 0 0.000179149)
(0.0102204 0 0.000201432)
(0.0112219 0 0.000221867)
(0.0121314 0 0.000240539)
(0.0129563 0 0.000257523)
(0.013703 0 0.000272883)
(0.0143778 0 0.000286676)
(0.0149865 0 0.000298955)
(0.0155341 0 0.000309771)
(0.0160256 0 0.000319177)
(0.0164653 0 0.000327225)
(0.0168573 0 0.000333971)
(0.0172053 0 0.000339474)
(0.0175126 0 0.000343798)
(0.017783 0 0.000346977)
(0 0 0)
(0.00180782 0 2.75599e-05)
(0.0035071 0 5.35415e-05)
(0.00506953 0 7.75678e-05)
(0.00650242 0 9.97785e-05)
(0.0078136 0 0.000120298)
(0.00901104 0 0.000139234)
(0.0101026 0 0.000156675)
(0.011096 0 0.000172699)
(0.0119986 0 0.000187369)
(0.0128172 0 0.000200739)
(0.0135584 0 0.000212855)
(0.0142282 0 0.00022376)
(0.0148322 0 0.000233492)
(0.0153756 0 0.000242091)
(0.0158632 0 0.000249593)
(0.0162993 0 0.000256038)
(0.0166879 0 0.000261469)
(0.0170328 0 0.000265931)
(0.0173373 0 0.000269469)
(0.017605 0 0.000272112)
(0 0 0)
(0.00178607 0 1.89507e-05)
(0.00346689 0 3.68447e-05)
(0.00501445 0 5.34268e-05)
(0.00643518 0 6.87872e-05)
(0.00773629 0 8.30066e-05)
(0.00892527 0 9.61544e-05)
(0.0100097 0 0.000108289)
(0.0109969 0 0.00011946)
(0.011894 0 0.000129709)
(0.0127079 0 0.000139069)
(0.0134448 0 0.000147571)
(0.0141108 0 0.000155241)
(0.0147113 0 0.000162105)
(0.0152516 0 0.000168187)
(0.0157362 0 0.000173511)
(0.0161696 0 0.000178103)
(0.0165558 0 0.000181991)
(0.0168984 0 0.000185204)
(0.0172008 0 0.000187775)
(0.0174666 0 0.000189719)
(0 0 0)
(0.00177133 0 9.72735e-06)
(0.00343985 0 1.89249e-05)
(0.00497766 0 2.74634e-05)
(0.00639048 0 3.53868e-05)
(0.00768506 0 4.27345e-05)
(0.00886858 0 4.95406e-05)
(0.00994835 0 5.58336e-05)
(0.0109316 0 6.16373e-05)
(0.0118253 0 6.69717e-05)
(0.0126361 0 7.18532e-05)
(0.0133703 0 7.62961e-05)
(0.0140339 0 8.03129e-05)
(0.0146323 0 8.39156e-05)
(0.0151705 0 8.71156e-05)
(0.0156533 0 8.99248e-05)
(0.0160851 0 9.23556e-05)
(0.0164697 0 9.44216e-05)
(0.0168109 0 9.61372e-05)
(0.0171119 0 9.75181e-05)
(0.0173766 0 9.85728e-05)
(0 0 0)
(0.00176622 0 0)
(0.00343029 0 0)
(0.00496462 0 0)
(0.00637464 0 0)
(0.00766691 0 0)
(0.0088485 0 0)
(0.00992663 0 0)
(0.0109085 0 0)
(0.011801 0 0)
(0.0126107 0 0)
(0.013344 0 0)
(0.0140067 0 0)
(0.0146043 0 0)
(0.0151419 0 0)
(0.0156241 0 0)
(0.0160552 0 0)
(0.0164394 0 0)
(0.01678 0 0)
(0.0170806 0 0)
(0.0173449 0 0)
(0 0 0)
(0.00228334 0 9.43158e-05)
(0.00437233 0 0.000182058)
(0.00622705 0 0.000262659)
(0 0 0)
(0.00229346 0 9.73613e-05)
(0.00439283 0 0.000187881)
(0.00625861 0 0.000270919)
(0.00791776 0 0.0003483)
(0 0 0)
(0.00230219 0 9.99972e-05)
(0.00441075 0 0.000192914)
(0.00628661 0 0.000278035)
(0.00795696 0 0.000357181)
(0.00944616 0 0.000431788)
(0 0 0)
(0.00230922 0 0.000102202)
(0.0044255 0 0.000197118)
(0.00631015 0 0.000283956)
(0.00799056 0 0.000364521)
(0.0094911 0 0.000440231)
(0.0108336 0 0.000512184)
(0 0 0)
(0.00231424 0 0.000103958)
(0.00443647 0 0.000200459)
(0.00632838 0 0.000288639)
(0.00801742 0 0.000370273)
(0.00952794 0 0.000446751)
(0.0108816 0 0.000519149)
(0.0120979 0 0.000588278)
(0 0 0)
(0.00231697 0 0.000105249)
(0.00444314 0 0.000202912)
(0.00634053 0 0.000292051)
(0.00803655 0 0.000374401)
(0.00955544 0 0.00045132)
(0.0109187 0 0.000523851)
(0.0121456 0 0.000592779)
(0.0132533 0 0.000658666)
(0.0142576 0 0.000721888)
(0 0 0)
(0.00231715 0 0.000106066)
(0.004445 0 0.000204457)
(0.0063459 0 0.000294169)
(0.00804706 0 0.000376884)
(0.00957253 0 0.00045392)
(0.0109436 0 0.000526288)
(0.0121791 0 0.00059474)
(0.0132961 0 0.000659813)
(0.0143096 0 0.000721855)
(0.015234 0 0.00078108)
(0 0 0)
(0.00231455 0 0.000106402)
(0.00444161 0 0.000205083)
(0.00634387 0 0.000294978)
(0.00804819 0 0.000377709)
(0.0095783 0 0.000454549)
(0.0109551 0 0.000526469)
(0.0121974 0 0.000594192)
(0.0133215 0 0.000658232)
(0.0143423 0 0.000718917)
(0.0152736 0 0.000776449)
(0.0161274 0 0.0008309)
(0.0169138 0 0.000882166)
(0 0 0)
(0.00230897 0 0.000106253)
(0.00443261 0 0.000204785)
(0.0063339 0 0.000294475)
(0.00803925 0 0.000376877)
(0.00957197 0 0.000453213)
(0.0109526 0 0.000524414)
(0.0121995 0 0.000591174)
(0.0133287 0 0.000653985)
(0.0143547 0 0.000713167)
(0.0152907 0 0.000768904)
(0.016148 0 0.000821254)
(0.0169365 0 0.000870148)
(0.0176646 0 0.000915425)
(0.0183397 0 0.00095686)
(0 0 0)
(0.00230028 0 0.00010562)
(0.00441771 0 0.000203564)
(0.00631558 0 0.000292663)
(0.00801972 0 0.000374397)
(0.00955292 0 0.000449931)
(0.0109353 0 0.000520157)
(0.0121846 0 0.000585738)
(0.0133168 0 0.000647146)
(0.0143457 0 0.00070469)
(0.015284 0 0.000758548)
(0.0161426 0 0.000808778)
(0.016931 0 0.000855337)
(0.0176574 0 0.000898099)
(0.0183286 0 0.000936884)
(0.0189507 0 0.000971462)
(0 0 0)
(0.00228837 0 0.000104505)
(0.0043967 0 0.000201425)
(0.00628861 0 0.000289551)
(0.00798922 0 0.000370286)
(0.00952072 0 0.000444733)
(0.0109027 0 0.000513742)
(0.0121525 0 0.000577945)
(0.0132854 0 0.000637796)
(0.0143151 0 0.000693595)
(0.0152536 0 0.000745517)
(0.0161115 0 0.00079363)
(0.0168979 0 0.000837913)
(0.0176206 0 0.000878275)
(0.0182864 0 0.000914581)
(0.0189008 0 0.000946656)
(0.0194684 0 0.000974307)
(0.0199927 0 0.000997345)
(0 0 0)
(0.00227317 0 0.000102914)
(0.00436946 0 0.000198379)
(0.00625282 0 0.000285159)
(0.00794755 0 0.000364569)
(0.00947517 0 0.000437654)
(0.0108547 0 0.000505216)
(0.0121028 0 0.000567859)
(0.0132345 0 0.000626016)
(0.014263 0 0.000679981)
(0.0151998 0 0.000729931)
(0.0160551 0 0.000775946)
(0.0168378 0 0.000818027)
(0.0175554 0 0.000856118)
(0.0182145 0 0.000890123)
(0.0188203 0 0.000919921)
(0.0193774 0 0.000945378)
(0.0198893 0 0.000966367)
(0.0203587 0 0.000982774)
(0.0207877 0 0.000994515)
(0 0 0)
(0.00225468 0 0.000100856)
(0.00433597 0 0.000194443)
(0.0062082 0 0.000279507)
(0.00789472 0 0.000357278)
(0.00941629 0 0.000428733)
(0.0107912 0 0.00049463)
(0.0120359 0 0.000555541)
(0.0131645 0 0.000611883)
(0.0141899 0 0.000663941)
(0.0151233 0 0.000711896)
(0.0159744 0 0.000755841)
(0.016752 0 0.000795801)
(0.0174633 0 0.000831752)
(0.0181146 0 0.000863637)
(0.0187113 0 0.000891378)
(0.0192576 0 0.000914894)
(0.0197573 0 0.000934114)
(0.0202131 0 0.000948984)
(0.0206274 0 0.000959474)
(0.0210019 0 0.00096559)
(0.0213382 0 0.000967369)
(0 0 0)
(0.00223296 0 9.83405e-05)
(0.00429637 0 0.000189635)
(0.00615491 0 0.000272624)
(0.00783092 0 0.000348446)
(0.00934435 0 0.000418013)
(0.0107128 0 0.000482035)
(0.011952 0 0.000541054)
(0.0130759 0 0.000595467)
(0.0140966 0 0.000645554)
(0.015025 0 0.000691499)
(0.0158708 0 0.000733409)
(0.016642 0 0.00077133)
(0.017346 0 0.000805267)
(0.0179889 0 0.000835198)
(0.018576 0 0.000861088)
(0.0191116 0 0.000882899)
(0.0195993 0 0.000900605)
(0.0200423 0 0.000914198)
(0.0204429 0 0.000923699)
(0.0208033 0 0.000929159)
(0.0211254 0 0.000930637)
(0 0 0)
(0.00220815 0 9.53796e-05)
(0.00425087 0 0.000183977)
(0.00609327 0 0.000264538)
(0.00775659 0 0.000338109)
(0.00925987 0 0.000405536)
(0.01062 0 0.00046748)
(0.0118521 0 0.000524452)
(0.0129696 0 0.000576829)
(0.0139842 0 0.000624886)
(0.0149064 0 0.000668809)
(0.0157456 0 0.000708716)
(0.0165096 0 0.000744673)
(0.0172057 0 0.000776713)
(0.0178397 0 0.000804843)
(0.018417 0 0.000829063)
(0.0189419 0 0.000849374)
(0.0194182 0 0.000865787)
(0.019849 0 0.000878333)
(0.0202371 0 0.00088707)
(0.0205847 0 0.000892067)
(0.0208942 0 0.000893415)
(0 0 0)
(0.00218044 0 9.19855e-05)
(0.00419985 0 0.00017749)
(0.00602379 0 0.000255277)
(0.00767235 0 0.000326302)
(0.00916362 0 0.000391341)
(0.0105138 0 0.000451008)
(0.0117372 0 0.00050578)
(0.0128469 0 0.000556017)
(0.0138541 0 0.000601985)
(0.0147691 0 0.00064387)
(0.0156007 0 0.000681801)
(0.0163569 0 0.000715861)
(0.0170445 0 0.000746104)
(0.0176694 0 0.000772565)
(0.0182369 0 0.000795271)
(0.0187514 0 0.000814255)
(0.0192168 0 0.000829558)
(0.0196363 0 0.000841241)
(0.0200127 0 0.000849387)
(0.0203489 0 0.000854076)
(0 0 0)
(0.00215009 0 8.81702e-05)
(0.0041438 0 0.000170196)
(0.00594716 0 0.000244869)
(0.00757906 0 0.000313054)
(0.00905664 0 0.00037546)
(0.0103953 0 0.000432652)
(0.0116087 0 0.000485072)
(0.0127093 0 0.000533061)
(0.0137082 0 0.000576875)
(0.0146149 0 0.0006167)
(0.0154384 0 0.000652671)
(0.0161861 0 0.000684886)
(0.0168649 0 0.000713414)
(0.0174807 0 0.000738313)
(0.0180386 0 0.000759633)
(0.0185431 0 0.000777431)
(0.0189981 0 0.00079177)
(0.0194071 0 0.000802732)
(0.019773 0 0.000810419)
(0.0200987 0 0.000814919)
(0 0 0)
(0.00211744 0 8.39448e-05)
(0.00408333 0 0.000162112)
(0.00586424 0 0.000233336)
(0.00747782 0 0.000298391)
(0.00894019 0 0.000357917)
(0.0102659 0 0.000412432)
(0.0114682 0 0.000462344)
(0.0125588 0 0.000507972)
(0.0135483 0 0.000549558)
(0.0144462 0 0.000587289)
(0.0152609 0 0.000621301)
(0.0159999 0 0.000651703)
(0.0166698 0 0.000678577)
(0.0172765 0 0.000701995)
(0.017825 0 0.000722027)
(0.01832 0 0.000738746)
(0.0187653 0 0.000752232)
(0.0191645 0 0.000762581)
(0.0195208 0 0.000769906)
(0.0198371 0 0.000774302)
(0 0 0)
(0.00208287 0 7.93182e-05)
(0.00401919 0 0.000153255)
(0.00577607 0 0.000220695)
(0.00736991 0 0.000282326)
(0.00881583 0 0.000338724)
(0.0101276 0 0.000390355)
(0.0113177 0 0.000437593)
(0.0123975 0 0.000480734)
(0.0133771 0 0.000520008)
(0.0142656 0 0.000555593)
(0.0150712 0 0.000587629)
(0.0158013 0 0.000616228)
(0.0164623 0 0.000641482)
(0.01706 0 0.000663474)
(0.0175995 0 0.000682285)
(0.0180854 0 0.000698)
(0.0185217 0 0.00071071)
(0.018912 0 0.000720519)
(0.0192594 0 0.000727546)
(0.0195673 0 0.000731885)
(0 0 0)
(0.00204685 0 7.42965e-05)
(0.00395224 0 0.000143631)
(0.00568386 0 0.000206952)
(0.00725687 0 0.000264863)
(0.00868537 0 0.000317875)
(0.00998232 0 0.000366405)
(0.0111596 0 0.000410792)
(0.0122279 0 0.000451307)
(0.013197 0 0.000488164)
(0.0140758 0 0.000521534)
(0.0148722 0 0.000551553)
(0.0155933 0 0.000578335)
(0.0162456 0 0.000601976)
(0.0168346 0 0.000622566)
(0.0173655 0 0.000640192)
(0.0178429 0 0.000654945)
(0.0182708 0 0.000666923)
(0.0186529 0 0.000676233)
(0.0189924 0 0.000682993)
(0.0192927 0 0.000687295)
(0 0 0)
(0.00200992 0 6.88819e-05)
(0.00388349 0 0.000133244)
(0.00558903 0 0.000192104)
(0.00714045 0 0.00024599)
(0.00855087 0 0.000295346)
(0.00983243 0 0.000340544)
(0.0109963 0 0.000381886)
(0.0120528 0 0.000419616)
(0.0130113 0 0.000453932)
(0.0138803 0 0.000484992)
(0.0146674 0 0.000512928)
(0.0153797 0 0.00053785)
(0.0160234 0 0.000559856)
(0.0166041 0 0.000579037)
(0.0171269 0 0.000595482)
(0.0175963 0 0.000609285)
(0.0180165 0 0.000620542)
(0.0183911 0 0.000629361)
(0.0187235 0 0.000635858)
(0.019017 0 0.000640118)
(0 0 0)
(0.00197265 0 6.3072e-05)
(0.00381406 0 0.000122083)
(0.00549316 0 0.000176134)
(0.00702266 0 0.000225676)
(0.00841468 0 0.000271093)
(0.00968059 0 0.000312709)
(0.010831 0 0.00035079)
(0.0118756 0 0.000385553)
(0.0128233 0 0.000417177)
(0.0136825 0 0.000445806)
(0.0144605 0 0.000471563)
(0.0151642 0 0.000494553)
(0.0157997 0 0.000514869)
(0.0163725 0 0.000532601)
(0.0168878 0 0.000547836)
(0.0173499 0 0.000560665)
(0.0177631 0 0.000571184)
(0.0181309 0 0.000579493)
(0.0184568 0 0.000585703)
(0.0187444 0 0.00058989)
(0 0 0)
(0.00193572 0 5.68584e-05)
(0.00374521 0 0.000110131)
(0.00539804 0 0.000159008)
(0.00690573 0 0.000203869)
(0.00827946 0 0.000245042)
(0.00952982 0 0.000282803)
(0.0106668 0 0.000317382)
(0.0116996 0 0.000348969)
(0.0126369 0 0.000377719)
(0.0134865 0 0.000403764)
(0.0142558 0 0.000427213)
(0.0149513 0 0.000448163)
(0.015579 0 0.000466701)
(0.0161445 0 0.00048291)
(0.0166528 0 0.000496873)
(0.0171082 0 0.000508675)
(0.017515 0 0.000518404)
(0.0178768 0 0.000526155)
(0.0181971 0 0.000532029)
(0.0184793 0 0.000536092)
(0 0 0)
(0.00189987 0 5.02266e-05)
(0.00367838 0 9.73545e-05)
(0.00530569 0 0.000140673)
(0.00679221 0 0.000180494)
(0.00814818 0 0.000217091)
(0.00938346 0 0.000250695)
(0.0105074 0 0.0002815)
(0.0115289 0 0.000309666)
(0.0124562 0 0.000335329)
(0.0132967 0 0.0003586)
(0.0140577 0 0.000379575)
(0.0147456 0 0.000398341)
(0.0153662 0 0.000414974)
(0.015925 0 0.00042955)
(0.0164269 0 0.000442143)
(0.0168764 0 0.000452829)
(0.0172775 0 0.000461688)
(0.017634 0 0.000468805)
(0.0179492 0 0.000474269)
(0.0182268 0 0.000478136)
(0 0 0)
(0.00186595 0 4.31544e-05)
(0.00361515 0 8.37084e-05)
(0.00521838 0 0.000121056)
(0.00668492 0 0.000155449)
(0.00802417 0 0.000187105)
(0.00924529 0 0.000216215)
(0.0103571 0 0.000242936)
(0.011368 0 0.0002674)
(0.0122859 0 0.000289719)
(0.0131182 0 0.000309985)
(0.0138716 0 0.00032828)
(0.0145525 0 0.000344675)
(0.0151667 0 0.000359237)
(0.0157195 0 0.00037203)
(0.0162158 0 0.000383117)
(0.01666 0 0.000392565)
(0.0170562 0 0.000400441)
(0.0174081 0 0.000406819)
(0.017719 0 0.000411775)
(0.0179926 0 0.000415355)
(0 0 0)
(0.00183489 0 3.56118e-05)
(0.00355736 0 6.91304e-05)
(0.00513866 0 0.000100062)
(0.00658709 0 0.000128599)
(0.00791121 0 0.000154912)
(0.00911955 0 0.000179149)
(0.0102204 0 0.000201432)
(0.0112219 0 0.000221867)
(0.0121314 0 0.000240539)
(0.0129563 0 0.000257523)
(0.013703 0 0.000272883)
(0.0143778 0 0.000286676)
(0.0149865 0 0.000298955)
(0.0155341 0 0.000309771)
(0.0160256 0 0.000319177)
(0.0164653 0 0.000327225)
(0.0168573 0 0.000333971)
(0.0172053 0 0.000339474)
(0.0175126 0 0.000343798)
(0.017783 0 0.000346977)
(0 0 0)
(0.00180782 0 2.75599e-05)
(0.0035071 0 5.35415e-05)
(0.00506953 0 7.75678e-05)
(0.00650242 0 9.97785e-05)
(0.0078136 0 0.000120298)
(0.00901104 0 0.000139234)
(0.0101026 0 0.000156675)
(0.011096 0 0.000172699)
(0.0119986 0 0.000187369)
(0.0128172 0 0.000200739)
(0.0135584 0 0.000212855)
(0.0142282 0 0.00022376)
(0.0148322 0 0.000233492)
(0.0153756 0 0.000242091)
(0.0158632 0 0.000249593)
(0.0162993 0 0.000256038)
(0.0166879 0 0.000261469)
(0.0170328 0 0.000265931)
(0.0173373 0 0.000269469)
(0.017605 0 0.000272112)
(0 0 0)
(0.00178607 0 1.89507e-05)
(0.00346689 0 3.68447e-05)
(0.00501445 0 5.34268e-05)
(0.00643518 0 6.87872e-05)
(0.00773629 0 8.30066e-05)
(0.00892527 0 9.61544e-05)
(0.0100097 0 0.000108289)
(0.0109969 0 0.00011946)
(0.011894 0 0.000129709)
(0.0127079 0 0.000139069)
(0.0134448 0 0.000147571)
(0.0141108 0 0.000155241)
(0.0147113 0 0.000162105)
(0.0152516 0 0.000168187)
(0.0157362 0 0.000173511)
(0.0161696 0 0.000178103)
(0.0165558 0 0.000181991)
(0.0168984 0 0.000185204)
(0.0172008 0 0.000187775)
(0.0174666 0 0.000189719)
(0 0 0)
(0.00177133 0 9.72735e-06)
(0.00343985 0 1.89249e-05)
(0.00497766 0 2.74634e-05)
(0.00639048 0 3.53868e-05)
(0.00768506 0 4.27345e-05)
(0.00886858 0 4.95406e-05)
(0.00994835 0 5.58336e-05)
(0.0109316 0 6.16373e-05)
(0.0118253 0 6.69717e-05)
(0.0126361 0 7.18532e-05)
(0.0133703 0 7.62961e-05)
(0.0140339 0 8.03129e-05)
(0.0146323 0 8.39156e-05)
(0.0151705 0 8.71156e-05)
(0.0156533 0 8.99248e-05)
(0.0160851 0 9.23556e-05)
(0.0164697 0 9.44216e-05)
(0.0168109 0 9.61372e-05)
(0.0171119 0 9.75181e-05)
(0.0173766 0 9.85728e-05)
(0 0 0)
(0.00176622 0 0)
(0.00343029 0 0)
(0.00496462 0 0)
(0.00637464 0 0)
(0.00766691 0 0)
(0.0088485 0 0)
(0.00992663 0 0)
(0.0109085 0 0)
(0.011801 0 0)
(0.0126107 0 0)
(0.013344 0 0)
(0.0140067 0 0)
(0.0146043 0 0)
(0.0151419 0 0)
(0.0156241 0 0)
(0.0160552 0 0)
(0.0164394 0 0)
(0.01678 0 0)
(0.0170806 0 0)
(0.0173449 0 0)
)
;

boundaryField
{
    inlet
    {
        type            fixedValue;
        value           uniform (0 0 0);
    }
    outlet
    {
        type            fixedValue;
        value           nonuniform 0();
    }
    flap
    {
        type            fixedValue;
        value           nonuniform 0();
    }
    upperWall
    {
        type            slip;
    }
    lowerWall
    {
        type            slip;
    }
    frontAndBack
    {
        type            empty;
    }
    procBoundary0to1
    {
        type            processor;
    }
    procBoundary0to3
    {
        type            processor;
    }
}


// ************************************************************************* //
