/*--------------------------------*- C++ -*----------------------------------*\
| =========                 |                                                 |
| \\      /  F ield         | OpenFOAM: The Open Source CFD Toolbox           |
|  \\    /   O peration     | Version:  dev                                   |
|   \\  /    A nd           | Web:      www.OpenFOAM.org                      |
|    \\/     M anipulation  |                                                 |
\*---------------------------------------------------------------------------*/
FoamFile
{
    version     2.0;
    format      ascii;
    class       surfaceVectorField;
    location    "4";
    object      Uf;
}
// * * * * * * * * * * * * * * * * * * * * * * * * * * * * * * * * * * * * * //

dimensions      [0 1 -1 0 0 0 0];

internalField   nonuniform List<vector> 
879
(
(9.98967 -1.26326e-21 0.201828)
(9.9929 0 0.137158)
(9.98136 -6.52169e-23 0.272409)
(9.99082 1.22701e-21 0.209231)
(9.99331 5.68657e-22 0.141865)
(9.97308 1.00066e-20 0.347603)
(9.98339 9.91718e-21 0.281742)
(9.9652 8.80564e-21 0.422878)
(9.99203 9.47016e-21 0.215895)
(9.99374 9.38918e-21 0.146052)
(9.97663 8.68477e-21 0.358628)
(9.98549 -1.2815e-21 0.290037)
(9.95429 1.0004e-20 0.5036)
(9.97026 1.15352e-21 0.435232)
(9.94679 9.9978e-21 0.583665)
(9.99327 -1.63025e-21 0.221738)
(9.99419 6.8754e-22 0.149669)
(9.9803 -8.99011e-21 0.368274)
(9.98766 -1.07011e-20 0.297195)
(9.96153 1.1528e-21 0.516998)
(9.97545 1.18143e-21 0.44586)
(9.93737 2.22864e-20 0.669717)
(9.9562 -9.13142e-21 0.5977)
(9.93179 1.05231e-20 0.754256)
(9.99455 -8.60867e-21 0.22669)
(9.99465 -8.53225e-21 0.152672)
(9.98405 -2.73555e-22 0.376426)
(9.98986 -8.75297e-21 0.303126)
(9.96893 -9.35801e-21 0.528268)
(9.98074 8.6607e-21 0.454626)
(9.9496 -2.11661e-20 0.684018)
(9.96577 -1.04006e-20 0.609201)
(9.92647 -1.17477e-20 0.845142)
(9.94681 -4.11775e-21 0.768375)
(9.92508 2.31771e-21 0.933527)
(9.99584 -8.68188e-21 0.230684)
(9.99511 0 0.155015)
(9.98786 4.09353e-22 0.382975)
(9.9921 -4.02993e-22 0.307745)
(9.97644 7.57906e-21 0.537262)
(9.98608 4.11995e-22 0.461405)
(9.96199 7.06065e-21 0.695327)
(9.97542 7.03312e-21 0.618007)
(9.94493 1.02892e-20 0.858605)
(9.96194 -1.83823e-22 0.779042)
(9.92573 -1.13714e-22 1.02843)
(9.94687 2.37752e-21 0.945849)
(9.93066 -1.33592e-22 1.11969)
(9.99715 8.47701e-21 0.233658)
(9.99559 0 0.156662)
(9.99169 -3.9953e-22 0.387821)
(9.99433 8.72267e-21 0.310975)
(9.98399 -1.43276e-22 0.543842)
(9.99142 -9.04388e-21 0.466086)
(9.97443 -3.91907e-22 0.703471)
(9.98508 1.67532e-20 0.623972)
(9.96344 -8.28458e-21 0.868102)
(9.97706 -8.22245e-21 0.786083)
(9.95149 2.35603e-21 1.03901)
(9.9686 -8.9539e-21 0.953703)
(9.93914 -2.48971e-21 1.2174)
(9.9602 3.46764e-21 1.12804)
(9.927 -2.26286e-21 1.40442)
(9.95227 -1.35772e-21 1.31022)
(9.94547 -2.25239e-21 1.50132)
(9.99845 2.56046e-22 0.23556)
(9.99606 2.37152e-22 0.157578)
(9.99551 -1.43264e-22 0.390877)
(9.99656 1.36103e-23 0.312752)
(9.99151 8.27689e-21 0.547889)
(9.99673 -8.28495e-21 0.468574)
(9.98681 8.71899e-21 0.708304)
(9.99466 5.28557e-22 0.626974)
(9.98183 -8.90814e-21 0.873461)
(9.99203 2.73127e-22 0.789351)
(9.97705 -7.80993e-21 1.04457)
(9.99009 7.71521e-21 0.956926)
(9.97304 4.62577e-21 1.22277)
(9.98934 1.13954e-21 1.13083)
(9.97045 -1.34557e-21 1.4091)
(9.99022 3.51157e-21 1.3121)
(9.96999 2.63044e-21 1.60457)
(9.99339 -3.1272e-22 1.50172)
(9.99965 2.74435e-21 1.70059)
(9.99974 -1.26954e-23 0.236343)
(9.99653 2.42885e-22 0.157735)
(9.99929 -8.3309e-21 0.392069)
(9.99875 8.17965e-21 0.31302)
(9.99894 -1.62133e-20 0.549306)
(10.0019 -1.33423e-21 0.468791)
(9.99902 -8.11973e-21 0.709706)
(10.0041 -5.08676e-22 0.626916)
(9.99994 1.73e-20 0.874547)
(10.0067 0 0.788735)
(10.0022 1.68761e-20 1.04497)
(10.0111 9.08063e-21 0.955395)
(10.0063 0 1.22201)
(10.0178 -1.04162e-21 1.12794)
(10.013 4.56803e-21 1.40663)
(10.0272 1.67026e-24 1.30733)
(10.0229 -1.95116e-22 1.59973)
(10.04 1.29521e-21 1.49443)
(10.0369 -4.53997e-21 1.80208)
(10.0569 -2.15274e-22 1.69003)
(10.056 -4.87311e-21 2.01441)
(10.0789 0 1.89479)
(10.1069 -4.87193e-21 2.10931)
(10.001 8.63569e-21 0.23597)
(9.997 7.99692e-21 0.157112)
(10.003 1.53355e-20 0.391338)
(10.0009 4.06024e-22 0.311738)
(10.0062 1.47486e-20 0.548014)
(10.007 1.43228e-20 0.466678)
(10.011 7.80765e-21 0.707586)
(10.0132 3.69993e-22 0.623727)
(10.0176 -8.41141e-21 0.87126)
(10.021 0 0.784156)
(10.0267 -9.27263e-21 1.04009)
(10.0316 -1.62867e-20 0.949034)
(10.0386 -1.04015e-21 1.21504)
(10.0454 -3.0822e-21 1.11932)
(10.0541 -3.34944e-21 1.39696)
(10.063 2.05941e-21 1.29587)
(10.074 1.27404e-21 1.58661)
(10.0849 -9.60494e-21 1.47945)
(10.0989 4.43331e-21 1.78467)
(10.1119 6.67489e-21 1.6707)
(10.13 0 1.99168)
(10.1449 -4.30548e-21 1.87017)
(10.1681 5.36284e-21 2.20809)
(10.1849 -4.37026e-21 2.07827)
(10.2146 4.63254e-21 2.43424)
(10.2329 7.58375e-21 2.29533)
(10.2902 -6.2503e-22 2.5215)
(10.0022 -4.38545e-22 0.234417)
(9.99746 2.11326e-21 0.155693)
(10.0066 -6.21687e-22 0.388642)
(10.003 -9.30496e-21 0.308877)
(10.0133 -4.09673e-22 0.543962)
(10.012 7.53306e-21 0.462197)
(10.0225 -7.62469e-21 0.701887)
(10.0221 -7.81314e-21 0.617365)
(10.0347 -8.07356e-21 0.863546)
(10.0348 0 0.775575)
(10.0502 -9.94086e-21 1.02991)
(10.0512 -3.72623e-22 0.937814)
(10.0697 9.23515e-23 1.20184)
(10.0718 -2.06411e-21 1.10495)
(10.0936 -4.35221e-21 1.38009)
(10.0971 2.12057e-21 1.27774)
(10.1228 -4.07012e-21 1.5653)
(10.1276 -6.39074e-21 1.45683)
(10.158 -2.27821e-21 1.758)
(10.164 2.1847e-21 1.64274)
(10.2001 -8.78134e-21 1.95861)
(10.2073 -2.03358e-22 1.8359)
(10.2501 -2.0929e-21 2.16741)
(10.2582 -2.06371e-22 2.03656)
(10.3091 2.20062e-21 2.38454)
(10.3178 2.27579e-21 2.24488)
(10.3783 4.63195e-21 2.60999)
(10.3872 -2.21435e-21 2.46085)
(10.4677 4.65394e-21 2.68429)
(10.0034 -6.98144e-21 0.231664)
(9.9979 -6.22169e-21 0.153472)
(10.01 -9.40196e-22 0.383957)
(10.005 -2.61371e-21 0.304422)
(10.02 -5.66145e-23 0.537122)
(10.0167 1.63204e-21 0.45533)
(10.0336 0 0.692583)
(10.0305 3.56272e-21 0.607814)
(10.051 7.88492e-21 0.851389)
(10.0479 -3.63987e-21 0.762987)
(10.0728 7.69191e-21 1.01442)
(10.0699 4.17736e-21 0.92175)
(10.0993 1.34688e-23 1.18244)
(10.0969 -3.7508e-21 1.08488)
(10.1311 3.17719e-23 1.3561)
(10.1294 7.73159e-21 1.25302)
(10.169 1.5325e-23 1.53593)
(10.1679 1.57004e-23 1.42673)
(10.2136 4.30821e-21 1.72232)
(10.213 -3.95502e-21 1.60641)
(10.2658 8.57729e-21 1.91556)
(10.2656 2.92838e-22 1.79234)
(10.3265 4.26774e-21 2.11578)
(10.3264 4.3719e-21 1.98466)
(10.3967 -2.24411e-21 2.32297)
(10.3963 2.06011e-21 2.18339)
(10.4775 -2.19023e-21 2.53694)
(10.4764 -2.2436e-21 2.38835)
(10.57 0 2.75735)
(10.5676 0 2.59922)
(10.6754 -9.07785e-21 2.98361)
(10.671 0 2.81549)
(10.7877 -9.0761e-21 3.0364)
(10.0045 -1.75178e-21 0.227706)
(9.99833 4.84399e-21 0.150447)
(10.0133 2.82928e-23 0.377276)
(10.0068 4.85463e-21 0.298373)
(10.0265 5.34169e-21 0.52749)
(10.0211 -3.37227e-21 0.446081)
(10.0441 -1.65122e-22 0.679683)
(10.0385 1.98118e-22 0.595089)
(10.0665 -7.43323e-21 0.834818)
(10.0603 3.31613e-21 0.746426)
(10.0941 -7.54726e-21 0.993686)
(10.0875 -7.38736e-21 0.900904)
(10.1272 4.15515e-21 1.15695)
(10.1205 -1.67163e-22 1.0592)
(10.1663 7.71455e-21 1.32517)
(10.1596 7.90376e-21 1.22189)
(10.2122 -4.05186e-21 1.49874)
(10.2054 3.76399e-21 1.38939)
(10.2654 -8.06613e-21 1.67797)
(10.2585 -1.86366e-22 1.56201)
(10.3267 -4.01302e-21 1.863)
(10.3194 -1.8908e-22 1.73992)
(10.3969 2.11038e-21 2.05384)
(10.389 3.94415e-21 1.92315)
(10.4769 2.05962e-21 2.25035)
(10.468 -5.94521e-21 2.11158)
(10.5676 0 2.45221)
(10.5572 1.00545e-20 2.30493)
(10.6699 0 2.65893)
(10.6576 -8.80572e-23 2.50277)
(10.7849 0 2.86983)
(10.7698 -6.22828e-21 2.70447)
(10.9135 1.11296e-21 3.08399)
(10.8949 0 2.90921)
(11.0566 2.74995e-21 3.30028)
(11.0335 -1.53495e-20 3.11595)
(11.1866 9.20329e-22 3.32346)
(10.0056 1.16188e-20 0.222548)
(9.99873 -2.92804e-21 0.146622)
(10.0164 1.37476e-21 0.368607)
(10.0086 1.91987e-21 0.290742)
(10.0326 -8.63629e-21 0.515086)
(10.0253 -1.50356e-20 0.434474)
(10.054 3.76527e-21 0.663225)
(10.046 -3.52786e-21 0.579232)
(10.0811 3.36023e-21 0.813899)
(10.0718 1.74233e-20 0.725959)
(10.114 1.71361e-22 0.967808)
(10.1038 -3.68085e-21 0.875379)
(10.1531 3.67206e-21 1.12553)
(10.1424 1.08259e-20 1.02808)
(10.199 3.85628e-21 1.2875)
(10.1876 -3.6301e-21 1.18454)
(10.2521 7.72102e-21 1.45405)
(10.2401 3.8339e-21 1.34508)
(10.313 7.88e-21 1.62536)
(10.3002 -7.2012e-21 1.50993)
(10.3824 7.96101e-21 1.80146)
(10.3686 1.53203e-20 1.67914)
(10.4609 -4.30189e-21 1.98228)
(10.4458 -1.62009e-21 1.85265)
(10.5493 2.24668e-21 2.16755)
(10.5326 -1.01248e-20 2.03026)
(10.6484 9.96905e-21 2.35687)
(10.6296 6.47285e-21 2.21159)
(10.7588 -6.46096e-21 2.54965)
(10.7374 5.86688e-21 2.39614)
(10.8814 -6.22695e-21 2.74514)
(10.8567 -6.4046e-21 2.58321)
(11.0169 -1.6863e-20 2.9424)
(10.9882 0 2.77195)
(11.1658 -1.72328e-20 3.14028)
(11.1323 -1.68596e-20 2.96133)
(11.3287 1.6425e-20 3.33744)
(11.2896 -2.57016e-22 3.15015)
(11.506 -1.29739e-22 3.53236)
(11.4604 1.0763e-21 3.33703)
(11.6448 -7.54382e-22 3.52045)
(10.0066 -1.28378e-20 0.216203)
(9.99912 -2.00514e-21 0.142011)
(10.0193 -1.48925e-20 0.357978)
(10.0103 1.2413e-21 0.281553)
(10.0382 -9.80011e-21 0.499956)
(10.0292 2.66613e-21 0.420551)
(10.0632 1.04637e-20 0.64328)
(10.0529 6.26889e-24 0.56031)
(10.0946 1.02044e-20 0.788736)
(10.0825 -2.76356e-21 0.701685)
(10.1324 7.23734e-21 0.936938)
(10.1189 0 0.845315)
(10.1771 3.34578e-21 1.08837)
(10.1625 1.40706e-20 0.991705)
(10.229 -3.64981e-21 1.24339)
(10.2132 -1.41994e-20 1.14124)
(10.2886 -1.14468e-20 1.40222)
(10.2716 3.53595e-21 1.29416)
(10.3563 4.20242e-22 1.56496)
(10.338 -1.50383e-20 1.45061)
(10.4327 5.50286e-21 1.73156)
(10.4128 7.91571e-21 1.61056)
(10.5184 -7.58501e-21 1.90185)
(10.4967 -1.12841e-20 1.77387)
(10.6139 -5.79878e-21 2.07549)
(10.5901 -1.11276e-20 1.94027)
(10.7199 2.27256e-21 2.25202)
(10.6934 1.31154e-20 2.10934)
(10.8368 5.92857e-21 2.4308)
(10.8072 8.01197e-21 2.28051)
(10.9652 -2.64921e-23 2.61105)
(10.932 -1.71468e-20 2.45307)
(11.1057 0 2.79183)
(11.0682 1.54874e-20 2.62617)
(11.2585 5.16801e-22 2.97203)
(11.216 9.5893e-22 2.79882)
(11.4239 -1.59873e-20 3.15042)
(11.3758 3.63785e-23 2.9699)
(11.602 4.29331e-22 3.32561)
(11.5475 -1.62454e-20 3.13815)
(10.0075 1.24238e-20 0.208693)
(9.99948 -5.59864e-21 0.13663)
(10.022 1.92229e-20 0.345429)
(10.0118 9.3176e-21 0.270844)
(10.0434 1.27034e-20 0.482165)
(10.0327 3.75176e-21 0.404372)
(10.0717 -1.35438e-20 0.619943)
(10.0593 6.25628e-21 0.538411)
(10.1069 -1.32118e-20 0.759466)
(10.0923 -7.10712e-21 0.673731)
(10.1493 7.00432e-21 0.901262)
(10.1327 0 0.810887)
(10.1989 -3.90098e-21 1.04573)
(10.1807 1.03037e-20 0.950304)
(10.2562 -6.83353e-21 1.19315)
(10.2364 -1.07342e-20 1.09228)
(10.3215 -1.43425e-22 1.34367)
(10.3 2.34351e-22 1.23701)
(10.3952 -7.35999e-21 1.4973)
(10.3718 -3.6976e-21 1.38452)
(10.4776 -9.28204e-21 1.65394)
(10.4522 -1.77752e-20 1.53476)
(10.5693 -1.49233e-20 1.81333)
(10.5416 2.28824e-20 1.68752)
(10.6707 8.23341e-21 1.97511)
(10.6404 -2.03029e-20 1.84247)
(10.7821 1.89867e-20 2.13876)
(10.7489 3.1915e-20 1.99916)
(10.904 -1.56265e-20 2.30364)
(10.8674 -1.46237e-20 2.15701)
(11.0368 -1.26101e-21 2.46896)
(10.9962 -1.75336e-20 2.31532)
(11.1806 1.64663e-20 2.63383)
(11.1355 1.58613e-20 2.47327)
(11.3356 4.66712e-22 2.79721)
(11.2856 4.48134e-23 2.62993)
(11.5019 -2.31078e-22 2.95799)
(11.4463 -1.48226e-20 2.78428)
(11.6176 5.36309e-22 2.93521)
(10.0083 -8.77008e-21 0.200051)
(9.99982 -4.92053e-21 0.130504)
(10.0245 -6.53315e-21 0.331017)
(10.0132 -1.37372e-21 0.25866)
(10.0482 -2.84833e-21 0.461797)
(10.0359 -1.24742e-20 0.386012)
(10.0794 1.28403e-20 0.593335)
(10.065 -5.78327e-21 0.513645)
(10.1182 6.42577e-21 0.726252)
(10.1012 9.70583e-21 0.642246)
(10.1645 3.38344e-21 0.860997)
(10.1451 3.14484e-21 0.772293)
(10.2186 3.301e-21 0.997894)
(10.1971 6.56342e-21 0.904137)
(10.2806 -3.49167e-21 1.13715)
(10.257 6.47519e-21 1.03801)
(10.3508 -3.40698e-21 1.27884)
(10.3252 -1.67538e-20 1.17403)
(10.4296 -1.43688e-20 1.42292)
(10.4017 1.33958e-20 1.31218)
(10.5171 1.5169e-20 1.56924)
(10.4868 -4.16032e-20 1.45235)
(10.6138 1.73648e-20 1.7175)
(10.5808 2.93127e-20 1.5943)
(10.7198 3.95364e-21 1.8673)
(10.6839 2.84647e-21 1.73766)
(10.8355 -2.50989e-21 2.01812)
(10.7963 1.657e-20 1.88199)
(10.9611 -1.65775e-20 2.16932)
(10.9183 -1.5199e-20 2.0267)
(11.0968 0 2.32015)
(11.0499 8.87828e-22 2.17112)
(11.2426 -9.60586e-22 2.46977)
(11.1912 1.33541e-20 2.31449)
(11.3985 -1.5617e-20 2.61724)
(11.3421 -1.593e-20 2.45596)
(11.5644 -1.40379e-20 2.76157)
(11.5026 -1.46764e-20 2.59462)
(11.6724 5.18845e-22 2.72952)
(10.0091 2.64881e-21 0.190315)
(10.0001 3.20794e-21 0.123658)
(10.0267 -7.47539e-21 0.314806)
(10.0144 -5.93601e-21 0.245057)
(10.0525 -1.5475e-20 0.43895)
(10.0389 8.48508e-21 0.365556)
(10.0864 -8.99039e-21 0.563594)
(10.0702 -1.83901e-20 0.486134)
(10.1282 6.34266e-21 0.68928)
(10.1091 1.22154e-20 0.607397)
(10.1781 6.40345e-21 0.816383)
(10.1562 -9.0301e-21 0.729752)
(10.236 9.81767e-21 0.945161)
(10.2116 3.25859e-21 0.853481)
(10.3022 -7.10878e-21 1.07576)
(10.2753 3.48291e-21 0.978756)
(10.3766 4.64692e-22 1.20819)
(10.3473 -2.31525e-20 1.10564)
(10.4596 -1.45059e-20 1.34238)
(10.4277 2.67802e-20 1.23408)
(10.5514 -2.71137e-20 1.47813)
(10.5166 -2.78965e-20 1.36392)
(10.652 1.44377e-20 1.61512)
(10.6143 -1.5353e-21 1.4949)
(10.7617 1.57707e-20 1.75294)
(10.7208 2.60369e-20 1.62665)
(10.8805 3.57593e-21 1.89107)
(10.8362 -1.52928e-20 1.75871)
(11.0087 2.69235e-21 2.0289)
(10.9606 -1.09522e-20 1.89055)
(11.1461 1.45672e-20 2.16575)
(11.0939 1.48026e-20 2.02152)
(11.2927 -1.97798e-21 2.30083)
(11.2361 1.4549e-20 2.15093)
(11.4484 -1.49665e-20 2.43333)
(11.387 -1.48932e-20 2.27803)
(11.613 2.30162e-22 2.56236)
(11.5463 -1.38551e-20 2.40202)
(11.7137 2.79906e-20 2.52208)
(10.0098 -5.60176e-21 0.179527)
(10.0004 1.15963e-21 0.116124)
(10.0287 1.04115e-20 0.296872)
(10.0156 4.02678e-21 0.230095)
(10.0564 5.48924e-21 0.413735)
(10.0414 5.99132e-22 0.343099)
(10.0926 3.33599e-21 0.530872)
(10.0748 -8.89917e-21 0.456012)
(10.1372 -3.53475e-21 0.64875)
(10.1161 6.33207e-21 0.569363)
(10.1901 -1.22454e-20 0.767677)
(10.1659 -1.2523e-20 0.683493)
(10.2514 -3.22586e-21 0.887852)
(10.2243 0 0.798623)
(10.321 -1.29508e-20 1.00936)
(10.2912 1.20673e-20 0.914876)
(10.399 3.80866e-21 1.1322)
(10.3664 -2.22745e-20 1.03227)
(10.4855 1.30569e-20 1.25623)
(10.45 2.59339e-20 1.15072)
(10.5806 -1.70051e-21 1.38123)
(10.5421 -1.44087e-20 1.27004)
(10.6843 1.03435e-20 1.5069)
(10.6427 -1.1324e-20 1.38997)
(10.7967 -5.78219e-21 1.63281)
(10.7517 1.21343e-20 1.51015)
(10.9178 -3.01711e-20 1.75848)
(10.8692 1.04999e-20 1.63013)
(11.0475 1.45087e-21 1.88334)
(10.9951 -1.40855e-20 1.74941)
(11.1857 1.47839e-20 2.00675)
(11.1292 1.40408e-20 1.86741)
(11.3323 1.32145e-21 2.12804)
(11.2714 -1.18104e-20 1.98351)
(11.4869 -1.37545e-20 2.24646)
(11.4214 -1.25248e-20 2.09705)
(11.6493 1.45817e-20 2.36129)
(11.5789 -5.3615e-22 2.20734)
(11.7434 2.82196e-20 2.31369)
(10.0104 1.10135e-20 0.167735)
(10.0007 2.92322e-21 0.107931)
(10.0304 -6.0229e-21 0.277295)
(10.0166 8.24151e-21 0.213837)
(10.0597 -1.41365e-20 0.386271)
(10.0437 -6.03046e-21 0.31874)
(10.098 -5.82341e-21 0.495329)
(10.0788 -1.34266e-22 0.423418)
(10.145 -2.87862e-21 0.604869)
(10.1222 -2.95293e-21 0.528328)
(10.2006 2.28094e-23 0.71514)
(10.1744 2.91038e-21 0.633749)
(10.2647 1.56669e-20 0.826287)
(10.2353 1.16619e-20 0.739852)
(10.3372 2.51151e-21 0.938357)
(10.3048 3.74849e-21 0.846713)
(10.4182 3.94447e-22 1.0513)
(10.3827 -7.66446e-22 0.954319)
(10.5075 -2.20191e-21 1.16498)
(10.469 5.97661e-22 1.06256)
(10.6052 -2.42635e-20 1.27915)
(10.5635 -1.32034e-20 1.17125)
(10.7113 -9.48865e-21 1.39351)
(10.6662 -1.14274e-20 1.28012)
(10.8255 2.88108e-20 1.50766)
(10.7771 -1.43657e-21 1.38882)
(10.948 2.69727e-20 1.62114)
(10.8959 2.7085e-20 1.49695)
(11.0784 -1.18658e-21 1.73344)
(11.0225 -1.46076e-20 1.60403)
(11.2167 -1.31982e-20 1.844)
(11.1568 1.20343e-20 1.70956)
(11.3625 -2.59912e-20 1.9522)
(11.2984 -2.75727e-20 1.81298)
(11.5154 1.01284e-21 2.05743)
(11.4469 -5.10196e-22 1.91373)
(11.6752 1.34345e-20 2.15906)
(11.602 9.64255e-22 2.01123)
(11.7633 3.93369e-20 2.10491)
(10.0109 9.94348e-23 0.154987)
(10.0009 -1.02557e-20 0.0991127)
(10.032 8.22599e-21 0.256156)
(10.0174 -1.02385e-20 0.196346)
(10.0627 8.31121e-21 0.356676)
(10.0457 1.35109e-20 0.292578)
(10.1028 2.80343e-21 0.457128)
(10.0823 2.85131e-21 0.38849)
(10.1518 2.97777e-21 0.557848)
(10.1275 2.77213e-21 0.484473)
(10.2097 1.48337e-20 0.659031)
(10.1817 2.95644e-21 0.580751)
(10.2761 -5.42913e-22 0.760779)
(10.2448 1.19434e-20 0.677447)
(10.3511 3.9531e-22 0.863104)
(10.3164 2.15358e-21 0.774602)
(10.4343 -5.52864e-22 0.965934)
(10.3965 5.70834e-22 0.872178)
(10.5259 -1.06678e-20 1.06912)
(10.4848 -1.4035e-20 0.970055)
(10.6256 -5.69568e-23 1.17242)
(10.5811 3.08511e-21 1.06804)
(10.7333 -3.18387e-21 1.27553)
(10.6854 -1.60941e-21 1.16588)
(10.8488 -3.20169e-21 1.3781)
(10.7975 1.2119e-20 1.26324)
(10.9719 -1.55049e-20 1.47971)
(10.917 -2.1654e-22 1.35976)
(11.1025 -1.06043e-21 1.57989)
(11.0439 -3.80753e-20 1.45502)
(11.2402 -2.69324e-21 1.67815)
(11.1777 2.59488e-20 1.54856)
(11.3847 -1.47346e-21 1.77397)
(11.3181 -1.41207e-20 1.63993)
(11.5355 -5.62308e-22 1.86682)
(11.4648 4.87746e-22 1.72862)
(11.6922 2.74988e-20 1.95619)
(11.6173 -9.1685e-23 1.81417)
(11.775 4.03093e-20 1.89609)
(10.0114 -2.08186e-20 0.141328)
(10.0011 -3.73467e-22 0.0896969)
(10.0333 -4.8019e-21 0.233536)
(10.0182 -1.07172e-20 0.177683)
(10.0653 7.91414e-21 0.325068)
(10.0474 1.06564e-20 0.264706)
(10.1069 2.81892e-21 0.416428)
(10.0853 -2.62775e-21 0.351361)
(10.1577 2.75012e-21 0.50789)
(10.132 1.34396e-20 0.437975)
(10.2174 0 0.599601)
(10.1879 -1.08555e-20 0.524718)
(10.2858 1.47056e-20 0.691626)
(10.2528 -2.74443e-21 0.611671)
(10.3627 2.33701e-21 0.783952)
(10.3262 2.30381e-20 0.69885)
(10.4478 -1.32366e-20 0.876493)
(10.408 -2.33938e-20 0.786197)
(10.541 5.53971e-23 0.969089)
(10.4978 -6.92678e-23 0.873589)
(10.6421 1.49379e-21 1.06152)
(10.5955 -1.38024e-21 0.960838)
(10.7509 1.40672e-20 1.1535)
(10.7009 0 1.0477)
(10.8671 1.51773e-20 1.2447)
(10.8136 1.48044e-20 1.13389)
(10.9904 -2.33376e-20 1.33475)
(10.9334 -1.04892e-20 1.21906)
(11.1206 -1.04047e-20 1.42325)
(11.06 -1.25675e-20 1.30286)
(11.2573 1.42365e-20 1.50975)
(11.1929 1.1843e-22 1.3849)
(11.4001 -1.21111e-20 1.59384)
(11.3319 9.87232e-22 1.46477)
(11.5485 9.68284e-22 1.67506)
(11.4765 -1.30983e-20 1.54208)
(11.7021 1.30351e-20 1.75299)
(11.6262 2.56473e-20 1.61642)
(11.7804 2.47933e-20 1.68741)
(10.0118 9.96681e-21 0.126801)
(10.0013 2.79967e-21 0.0797084)
(10.0345 5.13566e-21 0.209508)
(10.0189 5.02841e-21 0.157897)
(10.0675 -1.43553e-22 0.291558)
(10.049 2.60927e-21 0.235208)
(10.1104 8.25636e-21 0.373379)
(10.088 -5.23677e-21 0.312156)
(10.1627 -4.99882e-22 0.455186)
(10.136 1.8616e-20 0.388998)
(10.2239 -1.3663e-20 0.537084)
(10.1932 -3.47757e-20 0.465852)
(10.2939 5.79882e-21 0.619103)
(10.2595 1.19252e-20 0.542767)
(10.3723 -3.32228e-21 0.701214)
(10.3343 8.53917e-21 0.619735)
(10.4589 -9.90076e-21 0.783321)
(10.4174 -2.40019e-20 0.696689)
(10.5533 -1.54003e-21 0.865269)
(10.5084 1.40749e-20 0.773506)
(10.6554 -2.90988e-21 0.94685)
(10.6071 -1.56375e-21 0.850008)
(10.7648 7.59113e-22 1.02781)
(10.713 1.27971e-20 0.925975)
(10.8812 -1.14849e-20 1.10785)
(10.8261 6.31005e-22 1.00115)
(11.0044 5.41113e-22 1.18665)
(10.9457 -2.46726e-20 1.07524)
(11.1338 -1.79031e-21 1.26387)
(11.0717 1.24721e-20 1.14793)
(11.2692 -1.34526e-20 1.33912)
(11.2036 -1.24817e-20 1.21889)
(11.4101 -2.8382e-23 1.41206)
(11.341 1.79078e-22 1.28779)
(11.556 1.21823e-20 1.48232)
(11.4833 -1.99637e-22 1.3543)
(11.7064 3.76892e-20 1.54956)
(11.6302 1.23777e-20 1.4181)
(11.781 2.54116e-20 1.47887)
(10.0121 -2.25789e-21 0.111436)
(10.0015 -2.55757e-21 0.0691617)
(10.0355 2.43995e-21 0.184133)
(10.0195 2.49996e-21 0.137022)
(10.0695 -2.60797e-21 0.256244)
(10.0503 0 0.204152)
(10.1135 5.38345e-21 0.328119)
(10.0903 -2.60682e-21 0.270981)
(10.1669 -1.65e-20 0.399914)
(10.1394 5.43081e-21 0.337688)
(10.2295 -8.55454e-21 0.471694)
(10.1978 -1.7818e-20 0.404338)
(10.3007 1.47305e-20 0.543467)
(10.2652 2.41476e-20 0.470951)
(10.3803 -1.26473e-20 0.615187)
(10.3411 -1.05842e-20 0.537504)
(10.4679 5.61832e-22 0.686757)
(10.4252 -1.13013e-20 0.603924)
(10.5632 1.40461e-20 0.758031)
(10.517 1.28947e-20 0.670093)
(10.6659 1.4527e-20 0.828817)
(10.6162 1.45173e-21 0.735849)
(10.7756 1.26651e-20 0.89889)
(10.7226 1.10211e-20 0.800998)
(10.8919 -1.28795e-20 0.967994)
(10.8356 -1.34956e-22 0.865315)
(11.0146 -1.24468e-20 1.03585)
(10.9549 -1.20404e-20 0.928552)
(11.1431 1.51685e-21 1.10216)
(11.0801 -7.12397e-22 0.990446)
(11.277 1.4804e-21 1.16663)
(11.2107 7.94969e-22 1.05072)
(11.4159 2.31834e-24 1.22895)
(11.3464 1.15033e-20 1.10911)
(11.5593 2.26273e-24 1.28884)
(11.4865 -1.13674e-20 1.16534)
(11.7066 -1.93785e-22 1.34602)
(11.6307 -1.82474e-22 1.21916)
(11.7783 -1.93747e-22 1.27033)
(10.0125 2.32651e-21 0.0952497)
(10.0017 4.63981e-21 0.0580527)
(10.0365 0 0.157451)
(10.0201 -2.30743e-21 0.115063)
(10.0713 0 0.219204)
(10.0516 0 0.171581)
(10.1162 -2.55498e-21 0.280761)
(10.0925 0 0.227925)
(10.1707 4.07373e-21 0.342212)
(10.1425 -1.33469e-21 0.28417)
(10.2342 1.56868e-20 0.403582)
(10.2018 7.8115e-21 0.340328)
(10.3064 -1.7883e-21 0.464862)
(10.2701 9.27462e-21 0.3964)
(10.3869 -9.20593e-21 0.526001)
(10.3468 -6.15613e-22 0.452354)
(10.4752 1.33392e-21 0.586906)
(10.4316 -1.81404e-20 0.508115)
(10.5711 -7.24739e-24 0.647443)
(10.524 9.26144e-21 0.563572)
(10.6741 -2.13615e-21 0.707445)
(10.6236 0 0.618584)
(10.7839 -2.08859e-21 0.766719)
(10.73 -7.85072e-22 0.672982)
(10.8999 7.23775e-22 0.825047)
(10.8428 -6.87744e-22 0.726579)
(11.0219 -1.96508e-23 0.882196)
(10.9616 4.00557e-23 0.779168)
(11.1493 -1.45148e-21 0.937924)
(11.0859 1.10113e-20 0.830534)
(11.2817 1.10622e-20 0.991985)
(11.2153 -1.23598e-20 0.880456)
(11.4187 -1.45041e-22 1.04414)
(11.3492 1.1781e-20 0.928717)
(11.5596 -1.15542e-20 1.09415)
(11.4873 -3.89104e-22 0.975104)
(11.7041 -1.82438e-22 1.14181)
(11.6289 -1.14894e-20 1.01942)
(11.7736 1.11673e-20 1.06148)
(10.0128 -1.16936e-22 0.0782213)
(10.0019 3.40883e-21 0.0463375)
(10.0375 -2.30641e-21 0.129475)
(10.0209 -2.36475e-21 0.0919676)
(10.0731 0 0.180509)
(10.0531 -2.29295e-21 0.137513)
(10.1188 1.24918e-21 0.231455)
(10.0947 -4.66012e-21 0.183072)
(10.174 2.49505e-21 0.282324)
(10.1454 4.82186e-21 0.228565)
(10.2383 1.24525e-21 0.333103)
(10.2055 2.48356e-21 0.27397)
(10.3113 1.04745e-20 0.383763)
(10.2745 0 0.319282)
(10.3924 -9.76924e-21 0.434246)
(10.3518 5.2078e-22 0.364463)
(10.4813 -1.00156e-20 0.48446)
(10.4371 -3.66449e-22 0.40944)
(10.5775 9.26568e-21 0.534285)
(10.5298 9.40609e-21 0.454114)
(10.6806 1.38372e-21 0.58358)
(10.6296 -2.07856e-20 0.498365)
(10.7902 6.49597e-22 0.632183)
(10.7359 1.12897e-20 0.542056)
(10.9058 -1.38804e-21 0.679916)
(10.8484 -3.74453e-23 0.585032)
(11.027 1.13404e-20 0.726592)
(10.9666 -3.1916e-23 0.62713)
(11.1534 -1.64456e-22 0.772019)
(11.0901 1.60865e-21 0.66818)
(11.2844 -1.16181e-20 0.816002)
(11.2182 1.02489e-20 0.708009)
(11.4195 1.15292e-20 0.858355)
(11.3506 -1.07122e-20 0.746449)
(11.5582 -3.24596e-22 0.8989)
(11.4868 5.62016e-22 0.783338)
(11.7001 1.38978e-22 0.937472)
(11.6262 -3.89593e-22 0.818526)
(11.7683 1.16115e-20 0.851879)
(10.0133 1.09171e-21 0.0602695)
(10.0023 1.12472e-21 0.0338707)
(10.0388 -2.35655e-21 0.100137)
(10.0219 -1.0934e-21 0.0675766)
(10.0751 -7.06651e-21 0.140038)
(10.0549 -1.21007e-22 0.101906)
(10.1215 -1.00032e-21 0.179932)
(10.0972 -3.64718e-21 0.136436)
(10.1774 4.80953e-21 0.219779)
(10.1485 -4.02953e-22 0.170918)
(10.2424 1.20734e-21 0.259567)
(10.2092 4.75723e-21 0.205339)
(10.3159 -1.01938e-20 0.299269)
(10.2787 -4.20537e-21 0.239698)
(10.3974 1.01509e-20 0.338825)
(10.3565 -1.07977e-20 0.273951)
(10.4866 1.95274e-20 0.37815)
(10.4421 2.43904e-20 0.308024)
(10.583 -2.13778e-20 0.417141)
(10.535 -7.5483e-22 0.341837)
(10.6861 -1.0633e-20 0.45568)
(10.6348 -2.1334e-20 0.375292)
(10.7955 1.05831e-20 0.493635)
(10.741 4.99891e-21 0.408285)
(10.9106 1.35133e-21 0.530865)
(10.8532 3.13586e-23 0.440698)
(11.0311 -9.99824e-21 0.567222)
(10.9708 1.01457e-21 0.472406)
(11.1564 1.22757e-20 0.602556)
(11.0934 -1.06681e-20 0.503285)
(11.286 1.11726e-20 0.636719)
(11.2205 2.26849e-20 0.533205)
(11.4195 -2.19417e-20 0.669569)
(11.3516 -2.17684e-20 0.562045)
(11.5564 4.9533e-22 0.700972)
(11.4861 -5.51074e-22 0.589687)
(11.696 1.13622e-20 0.730807)
(11.6236 1.14557e-20 0.616023)
(11.7636 1.09673e-20 0.640957)
(10.0143 -1.12214e-21 0.0412879)
(10.0032 1.04651e-21 0.0201746)
(10.0406 1.19108e-21 0.0698649)
(10.0243 1.01511e-21 0.0418113)
(10.0774 3.37983e-21 0.0988717)
(10.0583 2.82e-21 0.0648948)
(10.1243 -3.03389e-21 0.127881)
(10.101 4.34901e-23 0.0881372)
(10.1808 -4.55578e-22 0.156801)
(10.1527 -5.00864e-21 0.111332)
(10.2462 -7.89495e-22 0.185645)
(10.2137 -9.76728e-22 0.134537)
(10.3201 -4.82616e-21 0.214395)
(10.2835 4.44573e-21 0.157742)
(10.402 3.79457e-21 0.243001)
(10.3616 -4.78549e-21 0.180891)
(10.4915 3.61335e-21 0.271399)
(10.4473 4.0998e-21 0.203918)
(10.5879 -7.13153e-22 0.299516)
(10.5403 -3.7668e-22 0.22676)
(10.6909 -5.31823e-21 0.32727)
(10.6401 4.55766e-21 0.249349)
(10.8 -5.80939e-21 0.354569)
(10.7461 -5.32083e-21 0.271611)
(10.9147 -3.13683e-22 0.381314)
(10.8579 -8.7562e-22 0.293464)
(11.0346 3.25381e-22 0.407404)
(10.9749 -5.11164e-21 0.314825)
(11.159 -8.78445e-25 0.432733)
(11.0968 -3.22929e-22 0.335608)
(11.2875 -1.1061e-20 0.4572)
(11.223 0 0.355727)
(11.4197 1.42551e-22 0.480706)
(11.353 -1.11404e-20 0.375102)
(11.555 1.06761e-20 0.503161)
(11.4862 1.11006e-20 0.393655)
(11.6928 1.10511e-20 0.524481)
(11.6223 5.1609e-21 0.411316)
(11.7606 5.65851e-21 0.428024)
(10.0176 3.22697e-21 0.0192367)
(9.99812 1.06942e-21 0.00288275)
(10.0448 2.67917e-21 0.0353774)
(10.0154 2.1825e-21 0.014528)
(10.0821 -5.97959e-22 0.0526051)
(10.0441 5.5192e-22 0.026498)
(10.1294 -1.97825e-21 0.0700577)
(10.081 -5.95825e-22 0.0382439)
(10.1862 -5.54016e-21 0.0875763)
(10.1269 -5.92274e-22 0.0499836)
(10.2518 4.38756e-21 0.105151)
(10.1823 -4.69176e-21 0.0618021)
(10.3259 4.48506e-21 0.122736)
(10.2468 8.96468e-21 0.0736662)
(10.4078 -4.47049e-21 0.140269)
(10.3198 -4.26455e-21 0.085523)
(10.4972 1.26537e-23 0.157686)
(10.4007 -1.18412e-21 0.0973298)
(10.5936 5.02345e-21 0.174929)
(10.4889 1.8064e-21 0.10905)
(10.6964 4.55385e-21 0.191938)
(10.5842 3.8178e-21 0.120644)
(10.8052 -2.66033e-22 0.208652)
(10.6858 2.38934e-21 0.132072)
(10.9194 -5.78973e-21 0.225004)
(10.7935 -1.30281e-21 0.143289)
(11.0386 -5.77408e-21 0.240931)
(10.9066 -3.09975e-21 0.15425)
(11.1623 -3.21787e-22 0.256367)
(11.0246 -2.85936e-21 0.164911)
(11.29 -8.38064e-23 0.27125)
(11.147 2.51883e-21 0.175226)
(11.4211 8.66085e-23 0.285522)
(11.2732 -1.98192e-22 0.185155)
(11.5552 5.45091e-21 0.299128)
(11.4029 -2.42038e-21 0.194657)
(11.6917 -3.61776e-22 0.312022)
(11.5354 5.3662e-21 0.203698)
(11.6703 -8.05739e-21 0.212246)
(10.0029 0 0.00344756)
(10.017 1.15782e-24 0.00801889)
(10.0421 5.55498e-22 0.0133172)
(10.0775 8.24012e-22 0.0188356)
(10.1227 2.75534e-22 0.0244865)
(10.1772 0 0.0302569)
(10.2405 0 0.0361173)
(10.3123 -8.97609e-22 0.0420315)
(10.392 6.53986e-22 0.0479681)
(10.4792 5.72563e-22 0.0538991)
(10.5733 1.6014e-21 0.0597978)
(10.6738 1.32754e-21 0.0656367)
(10.7802 1.45242e-21 0.0713882)
(10.8921 -1.1432e-22 0.0770242)
(11.0088 5.11172e-23 0.0825176)
(11.1298 2.40113e-21 0.0878419)
(11.2546 -2.7662e-21 0.0929722)
(11.3826 -2.50542e-21 0.0978857)
(11.5134 -2.51767e-21 0.102562)
)
;

boundaryField
{
    inlet
    {
        type            calculated;
        value           nonuniform List<vector> 
30
(
(10 0 0)
(10 0 0)
(10 0 0)
(10 0 0)
(10 0 0)
(10 0 0)
(10 0 0)
(10 0 0)
(10 0 0)
(10 0 0)
(10 0 0)
(10 0 0)
(10 0 0)
(10 0 0)
(10 0 0)
(10 0 0)
(10 0 0)
(10 0 0)
(10 0 0)
(10 0 0)
(10 0 0)
(10 0 0)
(10 0 0)
(10 0 0)
(10 0 0)
(10 0 0)
(10 0 0)
(10 0 0)
(10 0 0)
(10 0 0)
)
;
    }
    outlet
    {
        type            calculated;
        value           nonuniform 0();
    }
    flap
    {
        type            calculated;
        value           nonuniform 0();
    }
    upperWall
    {
        type            calculated;
        value           uniform (0 0 0);
    }
    lowerWall
    {
        type            calculated;
        value           nonuniform 0();
    }
    frontAndBack
    {
        type            empty;
        value           nonuniform 0();
    }
    procBoundary0to1
    {
        type            processor;
        value           nonuniform List<vector> 
18
(
(11.6979 -3.34317e-20 3.72336)
(11.7928 1.58821e-20 3.49612)
(11.7312 1.64696e-20 3.30223)
(11.6794 1.81797e-22 3.11493)
(11.74 2.45722e-23 2.9017)
(11.7859 2.24645e-22 2.68704)
(11.819 4.22231e-20 2.47176)
(11.8411 -1.02876e-22 2.25647)
(11.8543 3.99479e-20 2.04155)
(11.8603 -1.98909e-22 1.82722)
(11.8608 5.06911e-20 1.61344)
(11.8573 2.44705e-20 1.40023)
(11.8515 -1.88563e-22 1.18692)
(11.8446 2.32002e-20 0.973927)
(11.838 1.74245e-22 0.758968)
(11.8328 1.07425e-20 0.544596)
(11.8302 -1.09339e-20 0.324162)
(11.6465 -2.57948e-21 0.106983)
)
;
    }
    procBoundary0to3
    {
        type            processor;
        value           nonuniform List<vector> 
34
(
(9.99251 1.03938e-20 0.131984)
(9.97942 -1.22426e-21 0.262141)
(9.96968 -2.5736e-21 0.335338)
(9.96032 7.25667e-21 0.408941)
(9.94726 1.88398e-20 0.488236)
(9.93762 2.00047e-20 0.567274)
(9.92539 1.99348e-20 0.652614)
(9.91701 3.1923e-20 0.736884)
(9.90822 1.91963e-20 0.827919)
(9.90342 -2.54385e-21 0.91694)
(9.89999 -7.54275e-21 1.01301)
(9.90101 -9.91058e-21 1.10598)
(9.9049 -1.48499e-20 1.20606)
(9.91373 -1.71439e-20 1.30179)
(9.89668 2.37489e-21 1.4933)
(9.91578 1.23533e-20 1.60117)
(9.94057 1.71115e-20 1.70235)
(9.9725 1.45442e-20 1.8101)
(10.0099 7.42842e-21 1.90953)
(10.0251 -1.47613e-20 2.12929)
(10.0813 1.30828e-22 2.23733)
(10.1422 1.0122e-20 2.33406)
(10.1859 -5.87905e-22 2.56943)
(10.2707 -1.79781e-21 2.6703)