/*--------------------------------*- C++ -*----------------------------------*\
| =========                 |                                                 |
| \\      /  F ield         | OpenFOAM: The Open Source CFD Toolbox           |
|  \\    /   O peration     | Version:  dev                                   |
|   \\  /    A nd           | Web:      www.OpenFOAM.org                      |
|    \\/     M anipulation  |                                                 |
\*---------------------------------------------------------------------------*/
FoamFile
{
    version     2.0;
    format      ascii;
    class       volScalarField;
    location    "3.18";
    object      p;
}
// * * * * * * * * * * * * * * * * * * * * * * * * * * * * * * * * * * * * * //

dimensions      [0 2 -2 0 0 0 0];

internalField   nonuniform List<scalar> 
465
(
4.44911
4.27066
4.09396
3.91847
3.74387
3.57008
3.39711
3.22481
3.05182
2.87469
2.6884
2.48794
2.27006
2.03378
1.77934
1.50661
1.21436
0.901121
0.565741
0.207218
4.44375
4.26654
4.09069
3.91577
3.74147
3.5678
3.39506
3.22355
3.05217
2.87712
2.69268
2.49321
2.27539
2.03881
1.78417
1.5112
1.21829
0.903568
0.56573
0.202672
4.43392
4.25837
4.08383
3.90983
3.73597
3.56242
3.38992
3.21989
3.05187
2.88117
2.70047
2.50282
2.2844
2.04584
1.78924
1.51383
1.21782
0.900258
0.560097
0.194948
4.42205
4.24706
4.07337
3.90051
3.72766
3.55491
3.38312
3.21429
3.04884
2.88141
2.70344
2.5074
2.2895
2.05007
1.79126
1.51286
1.21332
0.89242
0.550165
0.186947
4.41173
4.23421
4.05909
3.8857
3.71314
3.54134
3.37166
3.2057
3.04268
2.87708
2.70068
2.50613
2.28928
2.0494
1.7885
1.50718
1.20414
0.879708
0.535956
0.179144
4.40036
4.21813
4.03998
3.86533
3.69302
3.52275
3.35554
3.1922
3.03108
2.86684
2.69183
2.49897
2.28362
2.04402
1.78169
1.49779
1.19125
0.862814
0.518312
0.171361
4.38616
4.19702
4.01463
3.83794
3.66562
3.49701
3.33238
3.17167
3.01262
2.85003
2.67681
2.48613
2.27299
2.03478
1.77174
1.48555
1.17548
0.842542
0.49805
0.163352
4.36463
4.16756
3.98053
3.80176
3.62953
3.46275
3.30092
3.14315
2.98669
2.8265
2.65593
2.4683
2.25826
2.02246
1.7599
1.47189
1.15786
0.819752
0.475741
0.155064
4.33073
4.12626
3.93528
3.75515
3.58361
3.41908
3.26043
3.1061
2.95303
2.79626
2.62947
2.44603
2.24016
2.00794
1.74748
1.45826
1.13948
0.795323
0.451748
0.146492
4.27959
4.0699
3.87677
3.69668
3.52685
3.36526
3.21036
3.06019
2.9115
2.7594
2.59775
2.41986
2.21949
1.99212
1.73522
1.4462
1.12222
0.770245
0.426341
0.137592
4.20714
3.99579
3.80328
3.62527
3.45849
3.30073
3.15031
3.00514
2.86195
2.71593
2.56096
2.39019
2.19686
1.97577
1.72367
1.43642
1.10833
0.746969
0.400184
0.128365
4.11048
3.90208
3.71371
3.54026
3.37811
3.22517
3.08002
2.94078
2.80431
2.66589
2.51933
2.35749
2.17302
1.95989
1.71392
1.42943
1.09819
0.72769
0.376176
0.119096
3.98822
3.78798
3.60784
3.44175
3.28583
3.13859
2.99942
2.86704
2.73859
2.6094
2.47315
2.32228
2.14869
1.94537
1.70694
1.42616
1.09237
0.712678
0.354782
0.110214
3.84087
3.654
3.48664
3.33092
3.18256
3.04149
2.90875
2.7841
2.66504
2.54686
2.423
2.28534
2.12493
1.93348
1.70428
1.42859
1.09363
0.705435
0.339191
0.102251
3.67073
3.50186
3.35257
3.21038
3.0702
2.935
2.80876
2.69272
2.58469
2.4797
2.37071
2.24898
2.10445
1.92723
1.70889
1.43947
1.10467
0.708676
0.331447
0.0960904
3.65963
3.47756
3.33144
3.20788
3.08304
2.9502
2.81932
2.69933
2.59328
2.49882
2.41014
2.31943
2.21714
2.09188
1.93153
1.72528
1.46219
1.12765
0.723483
0.331268
0.0924752
3.45985
3.26535
3.14372
3.05784
2.95511
2.82486
2.69444
2.58031
2.48655
2.40943
2.34131
2.27317
2.19468
2.09288
1.95261
1.75954
1.50174
1.16657
0.754553
0.343379
0.0919617
2.89974
2.91048
2.84581
2.70344
2.565
2.45539
2.37672
2.32143
2.27857
2.23763
2.18757
2.11384
1.99729
1.81837
1.56363
1.2256
0.808213
0.377428
0.096145
2.7716
2.54753
2.39488
2.30277
2.25489
2.234
2.22458
2.2162
2.19937
2.1591
2.07134
1.90831
1.65315
1.30722
0.887294
0.441307
0.107243
2.51001
2.3758
2.28095
2.22457
2.19933
2.19523
2.20643
2.22191
2.22126
2.17134
2.03279
1.78405
1.43106
1.00242
0.539299
0.126637
2.3455
2.24609
2.20565
2.21276
2.25372
2.30803
2.34479
2.32291
2.20125
1.95439
1.58464
1.12932
0.649766
0.141195
2.50415
2.44032
2.43324
2.45961
2.48656
2.47044
2.36379
2.13004
1.75946
1.27889
0.742337
0.0872371
3.05912
2.92846
2.84981
2.7885
2.70127
2.54227
2.27455
1.88205
1.37441
0.774046
-0.0345244
3.54124
3.32923
3.10939
2.83895
2.48227
2.01896
1.44498
0.759135
-0.16828
4.12921
3.72987
3.30251
2.81305
2.23801
1.5644
0.781612
-0.220524
3.94974
3.29454
2.57705
1.78106
0.896284
-0.156865
3.92859
3.04769
2.1123
1.1158
0.00689315
2.54805
1.42427
0.236203
1.79324
0.495668
0.757301
)
;

boundaryField
{
    inlet
    {
        type            zeroGradient;
    }
    outlet
    {
        type            fixedValue;
        value           uniform 0;
    }
    flap
    {
        type            zeroGradient;
    }
    upperWall
    {
        type            zeroGradient;
    }
    lowerWall
    {
        type            zeroGradient;
    }
    frontAndBack
    {
        type            empty;
    }
    procBoundary5to2
    {
        type            processor;
        value           nonuniform List<scalar> 
34
(
3.14752
2.93444
2.93444
2.97499
2.93994
2.93994
2.68524
2.68524
2.74656
2.51136
2.51136
2.87076
2.64256
2.64256
3.26815
3.26815
4.10219
3.78705
3.78705
4.53979
4.53979
5.17762
4.56689
4.56689
4.77063
4.77063
4.69409
3.63682
3.63682
3.06192
3.06192
2.19332
2.19332
1.00332
)
;
    }
    procBoundary5to4
    {
        type            processor;
        value           nonuniform List<scalar> 
18
(
4.63023
4.62303
4.61114
4.59855
4.59061
4.5858
4.58228
4.57326
4.55145
4.50983
4.44238
4.34469
4.21466
4.05346
3.86647
3.86647
3.85292
3.68001
)
;
    }
}


// ************************************************************************* //
