/*--------------------------------*- C++ -*----------------------------------*\
| =========                 |                                                 |
| \\      /  F ield         | OpenFOAM: The Open Source CFD Toolbox           |
|  \\    /   O peration     | Version:  dev                                   |
|   \\  /    A nd           | Web:      www.OpenFOAM.org                      |
|    \\/     M anipulation  |                                                 |
\*---------------------------------------------------------------------------*/
FoamFile
{
    version     2.0;
    format      ascii;
    class       surfaceVectorField;
    location    "0.19";
    object      Uf;
}
// * * * * * * * * * * * * * * * * * * * * * * * * * * * * * * * * * * * * * //

dimensions      [0 1 -1 0 0 0 0];

internalField   nonuniform List<vector> 
882
(
(10.1409 -1.1726e-20 5.34746)
(10.4298 2.11871e-20 5.48761)
(10.5095 3.07693e-20 5.19103)
(10.6456 8.24071e-21 5.91062)
(10.7143 -1.67163e-20 5.57829)
(10.9709 1.79441e-20 5.97923)
(10.7947 -8.04069e-21 5.28539)
(10.8363 0 4.99924)
(11.0408 -6.96317e-21 5.6511)
(11.0672 -8.02936e-21 5.3358)
(11.3415 3.04548e-20 6.02236)
(11.3461 -5.41149e-21 5.67549)
(11.7053 3.01643e-20 6.39335)
(11.6798 4.76654e-20 6.01355)
(12.0751 1.3953e-21 6.3429)
(11.1108 0 5.05277)
(11.1197 0 4.78059)
(11.3752 -6.53487e-21 5.36358)
(11.3667 6.56097e-21 5.06855)
(11.6879 1.21117e-20 5.67029)
(11.6563 -1.31999e-20 5.35148)
(12.0545 1.80819e-20 5.96679)
(11.993 7.27096e-21 5.62443)
(12.4794 -3.02931e-21 6.24487)
(12.3807 -4.91341e-21 5.88075)
(12.9656 -2.2045e-21 6.49406)
(12.822 -7.05785e-21 6.11208)
(13.3184 2.91093e-21 6.30828)
(11.3784 6.71794e-21 4.79884)
(11.3599 0 4.5428)
(11.6513 -2.3658e-22 5.05893)
(11.6147 6.71144e-21 4.78568)
(11.9658 -1.83189e-20 5.30797)
(11.9062 -1.81486e-20 5.0176)
(12.3248 -1.63997e-20 5.5403)
(12.237 -1.16442e-20 5.23388)
(12.7304 -9.02612e-21 5.74887)
(12.6089 3.55525e-21 5.42874)
(13.183 -1.76958e-21 5.92536)
(13.0225 -8.78777e-22 5.59529)
(13.6811 1.84692e-21 6.06037)
(13.4771 1.14276e-21 5.72572)
(14.2207 -4.3078e-22 6.14542)
(13.9648 -3.5724e-22 5.81147)
(14.5448 1.31053e-22 5.84661)
(14.7959 -6.74903e-22 6.17165)
(11.5995 0 4.53142)
(11.5587 0 4.29254)
(11.8736 -1.15955e-20 4.74592)
(11.8148 5.62859e-21 4.49469)
(12.1822 -1.13115e-20 4.9447)
(12.1016 4.25728e-21 4.6818)
(12.5269 8.91457e-21 5.12283)
(12.4205 0 4.84977)
(12.9078 1.20264e-20 5.27459)
(12.7717 7.13635e-21 4.99382)
(13.3241 2.1051e-21 5.39353)
(13.1544 -1.15771e-21 5.10856)
(13.7728 -1.11598e-21 5.4727)
(13.5669 -6.76232e-23 5.18818)
(14.2496 0 5.50609)
(14.0019 1.65122e-22 5.22664)
(14.5076 -3.98329e-23 5.21999)
(14.7486 -4.26056e-22 5.49594)
(11.7775 5.76449e-21 4.25692)
(11.7187 -6.24814e-21 4.03537)
(12.047 2.19534e-20 4.43134)
(11.9711 1.10273e-20 4.2015)
(12.3447 1.59148e-20 4.58714)
(12.2488 5.38942e-21 4.35002)
(12.6707 -1.81711e-21 4.72028)
(12.5518 -6.99893e-22 4.47754)
(13.0244 -6.41387e-21 4.82628)
(12.8796 -7.70163e-21 4.5803)
(13.4038 -3.40957e-21 4.90034)
(13.2306 -1.17979e-21 4.65424)
(13.8056 1.26385e-21 4.93755)
(13.6025 2.47033e-21 4.69524)
(14.2256 1.24392e-22 4.93389)
(13.9888 1.9807e-22 4.69918)
(14.4295 -8.50366e-25 4.66364)
(14.6583 8.56004e-22 4.89881)
(11.916 -8.49842e-22 3.98046)
(11.8434 -1.17823e-20 3.7758)
(12.177 -5.97877e-21 4.12027)
(12.0885 5.8389e-22 3.91062)
(12.4605 -1.16915e-20 4.23995)
(12.3539 -6.54417e-21 4.02648)
(12.7657 -6.73013e-21 4.33633)
(12.6389 1.24541e-21 4.12069)
(13.0913 -2.29645e-21 4.40606)
(12.9424 -9.68301e-21 4.19041)
(13.435 4.88553e-21 4.44573)
(13.2624 5.27045e-21 4.23275)
(13.7936 1.37691e-21 4.45201)
(13.5963 1.75793e-21 4.2449)
(14.1628 6.74122e-23 4.42241)
(13.9387 -1.14687e-21 4.22423)
(14.3228 4.00959e-23 4.16944)
(14.5382 -1.16043e-22 4.37085)
(12.0194 -1.03157e-20 3.70596)
(11.9363 -5.5146e-21 3.51734)
(12.2693 1.14595e-23 3.81637)
(12.1719 1.46801e-20 3.62539)
(12.5366 6.70974e-21 3.90617)
(12.4232 4.19004e-21 3.71403)
(12.8202 -1.78582e-21 3.97299)
(12.6893 -2.32896e-21 3.78121)
(13.1183 -1.92103e-21 4.01443)
(12.9686 -5.51636e-21 3.82493)
(13.4285 2.07313e-21 4.0282)
(13.2591 -1.11544e-21 3.84321)
(13.7478 -8.47564e-22 4.0122)
(13.5583 1.7147e-21 3.83429)
(14.0725 -1.17604e-21 3.96503)
(13.8616 -1.20447e-21 3.79664)
(14.1969 -1.54432e-22 3.72975)
(14.3986 7.1898e-24 3.90324)
(12.0921 2.01282e-20 3.43632)
(12.0015 4.82257e-21 3.26262)
(12.3294 1.89778e-20 3.52213)
(12.226 1.33891e-21 3.34811)
(12.5797 -5.09674e-21 3.58758)
(12.4624 3.81183e-21 3.41438)
(12.8417 -6.15243e-21 3.63098)
(12.7095 -4.44233e-21 3.45998)
(13.1136 -4.68575e-21 3.65075)
(12.9657 1.5074e-21 3.48358)
(13.393 -1.47273e-21 3.64545)
(13.2289 -3.06648e-21 3.48395)
(13.6772 1.33274e-21 3.61389)
(13.4968 1.96389e-21 3.4601)
(13.963 -1.5817e-22 3.55547)
(13.7656 0 3.41128)
(14.059 1.77668e-22 3.33757)
(14.2472 8.89369e-23 3.48803)
(12.1384 -1.4437e-20 3.17358)
(12.0428 9.90421e-21 3.01352)
(12.3623 -1.4231e-20 3.23907)
(12.2554 -1.02853e-20 3.08022)
(12.5956 4.45429e-21 3.28497)
(12.4768 -3.5475e-21 3.12839)
(12.837 3.41314e-21 3.31015)
(12.7056 2.12083e-21 3.15705)
(13.0845 3.17776e-21 3.31366)
(12.94 4.98579e-21 3.16539)
(13.336 4.70016e-22 3.29472)
(13.1784 -1.75143e-21 3.15278)
(13.5892 6.00986e-22 3.2528)
(13.4184 6.15559e-22 3.11879)
(13.8413 3.42815e-22 3.18786)
(13.6571 -6.62069e-23 3.06324)
(13.9148 -1.49623e-22 2.98657)
(14.0897 1.76043e-22 3.11811)
(11.9601 5.72891e-21 2.85242)
(11.8707 2.00037e-20 2.70318)
(12.1626 1.4168e-20 2.91904)
(12.064 3.49685e-22 2.77127)
(12.3729 6.56675e-22 2.96799)
(12.2646 9.12955e-21 2.82255)
(12.5897 -5.94932e-21 2.99842)
(12.4713 -1.22977e-20 2.85627)
(12.8116 3.73189e-21 3.0097)
(12.6827 4.01086e-21 2.87186)
(13.0369 -7.2446e-23 3.00133)
(12.8972 5.61625e-23 2.86893)
(13.2635 -1.60213e-21 2.97304)
(13.1132 -5.68677e-23 2.84728)
(13.4895 -6.78127e-23 2.92476)
(13.3287 3.26021e-22 2.80689)
(13.7126 -5.69415e-22 2.85682)
(13.5412 -9.66081e-22 2.74795)
(13.7684 7.06168e-22 2.67113)
(13.9306 2.89096e-22 2.78719)
(11.977 1.45176e-20 2.62106)
(11.8852 1.06519e-20 2.48192)
(12.1686 -4.82241e-21 2.67343)
(12.0688 -3.18546e-22 2.53659)
(12.3656 -4.15713e-21 2.70907)
(12.2575 -8.20846e-21 2.57535)
(12.5669 -2.08253e-21 2.7275)
(12.4502 6.70729e-25 2.59773)
(12.7708 2.5305e-22 2.72841)
(12.6455 1.89044e-21 2.60347)
(12.976 7.16111e-23 2.7117)
(12.842 -3.23151e-21 2.5925)
(13.1806 1.9178e-21 2.67742)
(13.038 8.80066e-22 2.56492)
(13.3829 -5.94102e-22 2.62584)
(13.232 1.45181e-23 2.521)
(13.5811 2.28439e-22 2.5575)
(13.422 -8.47824e-22 2.46118)
(13.6233 1.25924e-21 2.38625)
(13.7734 -3.95726e-22 2.48972)
(11.9792 -4.54032e-21 2.39628)
(11.8864 -5.03859e-21 2.26619)
(12.1601 -3.80194e-21 2.43699)
(12.0605 4.63774e-21 2.30976)
(12.3445 -3.94561e-21 2.4621)
(12.2379 -8.32767e-21 2.33849)
(12.5312 4.08198e-21 2.4714)
(12.4175 7.9377e-21 2.35213)
(12.7188 -1.67877e-21 2.46484)
(12.5981 -1.74415e-21 2.35067)
(12.906 -2.3989e-21 2.44259)
(12.7783 1.53845e-21 2.33425)
(13.0913 -1.06932e-21 2.40493)
(12.9568 -6.73185e-22 2.30319)
(13.2731 -2.4562e-22 2.35235)
(13.1322 2.30548e-21 2.25794)
(13.4501 9.44389e-23 2.28552)
(13.3028 -2.24727e-21 2.1991)
(13.4822 8.73845e-22 2.12752)
(13.6206 -4.36661e-22 2.22083)
(11.9698 4.36238e-21 2.17833)
(11.8773 -3.99104e-21 2.05625)
(12.1404 0 2.2096)
(12.0421 0 2.09073)
(12.313 3.8585e-21 2.22652)
(12.2089 0 2.11152)
(12.4864 1.98017e-21 2.22905)
(12.3765 3.85741e-21 2.11859)
(12.6594 1.55427e-21 2.21736)
(12.5439 -8.10619e-23 2.11206)
(12.8308 3.30942e-21 2.19178)
(12.7097 2.1017e-22 2.09226)
(12.9992 2.78739e-21 2.15278)
(12.8728 1.63878e-21 2.05963)
(13.1634 2.50066e-22 2.10093)
(13.032 3.94447e-21 2.01473)
(13.3222 -1.53198e-21 2.03701)
(13.1861 -3.72224e-21 1.95824)
(13.3471 8.72978e-22 1.89103)
(13.4745 5.39822e-22 1.97625)
(11.9516 -8.46593e-21 1.96717)
(11.8605 -4.57045e-21 1.85208)
(12.1126 0 1.99088)
(12.0166 3.88876e-21 1.87916)
(12.2743 0 2.00153)
(12.1736 0 1.89379)
(12.4358 1.74948e-21 1.99924)
(12.3304 0 1.89605)
(12.5957 -1.45632e-21 1.98429)
(12.4858 3.4191e-21 1.8862)
(12.7532 -1.50047e-21 1.95714)
(12.639 -3.16336e-21 1.86464)
(12.907 2.82679e-21 1.91833)
(12.7888 1.35046e-22 1.83192)
(13.0561 -1.33662e-22 1.86852)
(12.9342 1.27848e-21 1.78863)
(13.1995 -1.34527e-21 1.80849)
(13.0742 -2.33085e-22 1.7355)
(13.2196 -2.10854e-21 1.67336)
(13.3364 4.00499e-22 1.75224)
(11.9273 8.08945e-21 1.76249)
(11.8383 2.97064e-22 1.65342)
(12.0794 3.88749e-21 1.78022)
(11.9864 7.61515e-21 1.67452)
(12.2313 0 1.7862)
(12.1345 -2.0423e-21 1.68445)
(12.382 1.71036e-21 1.78065)
(12.2816 -1.84926e-21 1.68335)
(12.5305 1.66966e-21 1.76393)
(12.4266 -3.06803e-21 1.67156)
(12.6759 -1.4856e-21 1.73656)
(12.5687 3.97831e-21 1.64954)
(12.8171 -1.45032e-21 1.69913)
(12.707 -4.52943e-23 1.61785)
(12.9534 1.17206e-21 1.65231)
(12.8406 0 1.57713)
(13.0838 -9.49567e-22 1.59688)
(12.9687 1.17179e-21 1.52808)
(13.1011 -3.27853e-21 1.47149)
(13.2079 8.79149e-22 1.54553)
(11.8991 -1.93053e-22 1.5638)
(11.813 -4.08378e-21 1.45981)
(12.0432 1.53138e-21 1.57686)
(11.9538 -1.70112e-21 1.47614)
(12.1863 -3.93885e-21 1.57948)
(12.094 1.5486e-21 1.48254)
(12.3276 -6.74375e-21 1.57192)
(12.2325 -3.57845e-21 1.47925)
(12.4661 -7.00446e-22 1.55461)
(12.3684 -5.69525e-21 1.46663)
(12.601 5.45203e-21 1.52808)
(12.501 3.31701e-21 1.44514)
(12.7315 1.43975e-21 1.49293)
(12.6295 1.1236e-21 1.41537)
(12.8569 0 1.44981)
(12.7531 -3.36957e-22 1.37793)
(12.9765 -1.1464e-21 1.39945)
(12.8711 -7.86173e-23 1.33347)
(12.9927 -1.14615e-21 1.28274)
(13.0898 4.24164e-21 1.35323)
(11.8692 -5.62641e-21 1.37042)
(11.7864 1.75608e-21 1.27066)
(12.0061 -1.68557e-21 1.37989)
(11.9208 -9.01943e-21 1.28318)
(12.1415 1.91275e-21 1.38019)
(12.054 1.23013e-20 1.28704)
(12.2746 -2.50776e-21 1.37164)
(12.185 -9.94628e-21 1.28249)
(12.4045 -1.57592e-21 1.35467)
(12.3132 3.21025e-21 1.2699)
(12.5305 -1.11519e-21 1.32979)
(12.4376 -1.52282e-21 1.24974)
(12.6519 -6.95691e-22 1.29758)
(12.5578 -7.10516e-22 1.22254)
(12.7681 -4.17371e-22 1.25868)
(12.673 1.52792e-22 1.18889)
(12.8786 -7.85994e-23 1.21373)
(12.7827 1.11057e-21 1.1494)
(12.8952 -1.25263e-21 1.10472)
(12.983 -2.4784e-21 1.17278)
(11.8395 -1.72389e-21 1.18167)
(11.7604 3.56746e-21 1.08523)
(11.9701 5.3115e-21 1.18841)
(11.8891 -1.05713e-20 1.09473)
(12.0988 1.52816e-22 1.18725)
(12.0163 8.7779e-21 1.09683)
(12.2248 -4.08456e-21 1.1785)
(12.141 -6.00258e-21 1.09177)
(12.3474 3.26363e-21 1.16258)
(12.2625 4.12688e-21 1.0799)
(12.4659 -1.10832e-21 1.13998)
(12.3801 -7.16161e-22 1.06166)
(12.5797 1.58144e-22 1.11123)
(12.4934 -6.09646e-22 1.03754)
(12.6883 1.71694e-21 1.07691)
(12.6016 1.71794e-21 1.00808)
(12.7913 -4.42473e-23 1.0376)
(12.7044 2.57091e-21 0.973801)
(12.8096 -2.39148e-21 0.935299)
(12.8883 -9.91835e-22 1.002)
(11.8115 -5.50006e-21 0.996444)
(11.7364 3.46055e-21 0.902675)
(11.9367 -7.01412e-21 1.00116)
(11.8604 -7.17637e-21 0.909796)
(12.0598 2.46933e-21 0.999214)
(11.9825 0 0.910745)
(12.1799 2.41057e-21 0.990902)
(12.1019 1.68306e-21 0.90575)
(12.2963 5.1359e-23 0.976602)
(12.2179 -1.46264e-21 0.895134)
(12.4086 -2.04196e-22 0.956757)
(12.3299 8.22499e-22 0.879284)
(12.5161 9.89445e-22 0.931846)
(12.4375 1.41881e-21 0.858633)
(12.6185 2.59238e-21 0.902368)
(12.5401 -1.20392e-22 0.833638)
(12.7153 2.5926e-22 0.868843)
(12.6373 1.12479e-22 0.804762)
(12.7365 4.63907e-23 0.772499)
(12.8064 -4.9513e-22 0.838623)
(11.7868 1.73992e-21 0.814258)
(11.7159 -1.57227e-21 0.722048)
(11.9075 7.9671e-24 0.817491)
(11.836 1.73712e-21 0.727283)
(12.0259 -8.04839e-22 0.81528)
(11.954 2.42775e-21 0.727565)
(12.1411 -2.28333e-21 0.807886)
(12.0691 -8.04461e-22 0.723093)
(12.2526 -6.71505e-22 0.795638)
(12.1807 -1.12687e-21 0.714142)
(12.3598 2.48513e-21 0.778918)
(12.2883 2.51973e-21 0.70104)
(12.4623 2.82577e-22 0.758135)
(12.3913 1.6252e-21 0.684148)
(12.5596 -2.65844e-21 0.733711)
(12.4894 -1.47824e-21 0.663845)
(12.6516 -1.01124e-22 0.706081)
(12.5822 -2.615e-21 0.640515)
(12.6768 2.25286e-21 0.614562)
(12.7379 6.25933e-22 0.681271)
(11.7666 -1.5727e-21 0.633022)
(11.7002 -7.54209e-21 0.5423)
(11.8838 4.21482e-21 0.63521)
(11.8173 3.41104e-21 0.546018)
(11.9985 2.42659e-21 0.633146)
(11.932 1.70808e-21 0.545992)
(12.1099 3.78923e-22 0.627047)
(12.0439 0 0.542384)
(12.2175 2.14217e-21 0.617185)
(12.1521 1.72202e-23 0.53541)
(12.3207 1.638e-21 0.603868)
(12.2562 1.42404e-21 0.525327)
(12.4193 -1.80881e-22 0.587428)
(12.3558 1.20362e-21 0.512417)
(12.5128 -1.43557e-21 0.5682)
(12.4506 -1.41084e-21 0.496971)
(12.601 -2.45435e-22 0.546532)
(12.5401 -2.48303e-21 0.479281)
(12.6312 2.28426e-21 0.459651)
(12.6837 -4.5147e-21 0.527127)
(11.7523 -2.43409e-21 0.453654)
(11.6901 -3.80908e-21 0.362315)
(11.8669 8.44496e-22 0.45509)
(11.805 1.68011e-21 0.364769)
(11.9788 -7.77556e-22 0.453464)
(11.9175 -1.53636e-21 0.364687)
(12.0873 -3.70859e-22 0.448938)
(12.027 5.71206e-22 0.362183)
(12.192 -7.18312e-22 0.441713)
(12.1328 -1.92978e-22 0.357412)
(12.2924 9.77448e-22 0.43202)
(12.2346 -3.56065e-22 0.350553)
(12.3881 -5.876e-23 0.420101)
(12.3318 1.32449e-21 0.341802)
(12.4788 -2.48446e-21 0.406205)
(12.4242 -1.35059e-21 0.331364)
(12.5642 7.17991e-23 0.390584)
(12.5115 -1.1645e-21 0.319441)
(12.6002 1.26269e-21 0.30625)
(12.6443 8.09074e-22 0.376622)
(11.7442 4.0319e-22 0.270921)
(11.6015 4.20226e-22 0.180815)
(11.857 -7.57914e-22 0.2718)
(11.714 3.92512e-22 0.182145)
(11.9671 -1.54516e-22 0.270803)
(11.8242 -3.94676e-22 0.182156)
(12.0738 7.52752e-22 0.268035)
(11.9315 3.93578e-22 0.180913)
(12.1767 1.77559e-22 0.263626)
(12.0351 -3.30013e-22 0.178501)
(12.2752 0 0.257724)
(12.1347 1.9539e-23 0.175015)
(12.3691 0 0.250481)
(12.2298 1.96137e-23 0.170562)
(12.458 0 0.242054)
(12.32 4.68661e-22 0.165249)
(12.5417 1.81945e-23 0.232605)
(12.4052 -2.95498e-22 0.159183)
(12.4917 2.99158e-22 0.152482)
(12.6201 -8.25295e-24 0.224151)
(11.5708 4.11409e-22 0.0908809)
(11.6807 7.63885e-22 0.0913348)
(11.7881 1.67993e-22 0.0910942)
(11.8922 -7.1491e-22 0.0902017)
(11.9924 -4.92322e-22 0.0887091)
(12.0884 3.98871e-23 0.0866734)
(12.1798 4.99711e-22 0.0841544)
(12.2662 1.65786e-22 0.081211)
(12.3475 -1.18158e-23 0.0779065)
(12.4235 1.92532e-22 0.0749323)
(14.8719 -8.86031e-22 5.83403)
(14.9987 -8.35978e-22 5.46796)
(14.79 3.19668e-22 5.19219)
(15.2535 9.11818e-22 5.41845)
(15.0596 -1.38094e-21 5.14667)
(15.2875 2.26592e-21 5.08621)
(15.5117 1.30719e-21 5.33446)
(14.8738 -1.94145e-22 4.86247)
(14.6734 5.64381e-22 4.62596)
(15.0921 -5.08976e-23 4.80543)
(14.9051 -1.16001e-21 4.5735)
(15.1004 4.69194e-23 4.50858)
(15.3121 -3.43461e-23 4.71745)
(14.7241 -4.07068e-22 4.32963)
(14.5338 -9.84796e-23 4.12582)
(14.9115 -1.08967e-21 4.26886)
(14.7334 1.07125e-23 4.06989)
(14.9012 -8.64818e-22 4.00356)
(15.0994 1.1593e-21 4.18017)
(14.5594 3.67644e-22 3.85964)
(14.3799 1.46424e-22 3.68305)
(14.7207 2.61229e-22 3.79783)
(14.5523 3.33391e-22 3.6261)
(14.6969 -8.75846e-23 3.56048)
(14.8817 -3.01436e-22 3.71089)
(14.3866 1.42766e-22 3.44385)
(14.2182 1.07555e-22 3.28985)
(14.5259 -1.90917e-23 3.38285)
(14.3677 -7.65949e-24 3.2336)
(14.4929 -6.05333e-23 3.17012)
(14.6645 -3.31444e-22 3.29931)
(14.2111 -4.24678e-23 3.07461)
(14.0538 4.02454e-22 2.93932)
(14.332 -4.34912e-23 3.0157)
(14.184 1.26656e-22 2.88496)
(14.2928 -2.83867e-22 2.82456)
(14.4518 -3.61722e-23 2.93663)
(14.0368 5.7713e-22 2.74524)
(13.8905 -4.33832e-22 2.62539)
(14.1422 -1.12421e-22 2.68927)
(14.0045 1.17292e-21 2.57373)
(14.0995 -3.87538e-23 2.51701)
(14.2463 -3.13163e-22 2.61532)
(13.8668 2.27008e-22 2.44993)
(13.7311 -1.23733e-21 2.34275)
(13.9592 1.26278e-21 2.39744)
(13.8315 1.2159e-21 2.29431)
(13.915 -8.65152e-22 2.24164)
(14.0502 2.84785e-22 2.32896)
(13.7033 -1.81617e-22 2.1836)
(13.5779 -3.59247e-22 2.08675)
(13.7848 -9.35781e-22 2.13492)
(13.6669 9.15844e-23 2.04186)
(13.7409 -1.10295e-21 1.99343)
(13.865 -1.18459e-21 2.07207)
(13.5481 -8.4759e-23 1.94182)
(13.4327 2.74891e-22 1.85332)
(13.6205 -6.44435e-23 1.89714)
(13.5121 -2.4431e-22 1.81217)
(13.578 -1.23507e-21 1.76805)
(13.6916 0 1.83994)
(13.4025 1.1752e-22 1.72077)
(13.2967 1.96721e-21 1.63891)
(13.4674 -1.43079e-21 1.68016)
(13.3682 -1.37544e-21 1.60159)
(13.4274 1.77614e-21 1.56179)
(13.5309 -1.2483e-21 1.62854)
(13.2676 4.78741e-22 1.51708)
(13.1711 5.36349e-21 1.44041)
(13.3262 1.86781e-21 1.48056)
(13.236 -3.01888e-21 1.40695)
(13.2897 3.32521e-21 1.37142)
(13.3835 3.89966e-21 1.43439)
(13.1442 1.84705e-21 1.32784)
(13.0568 1.92057e-21 1.25508)
(13.1976 -1.60287e-21 1.29537)
(13.1161 -6.49868e-23 1.22547)
(13.1653 -1.83515e-21 1.19413)
(13.2497 1.77354e-22 1.25452)
(13.0331 -1.71462e-23 1.15044)
(12.9545 -1.98437e-21 1.08052)
(13.0821 -2.80364e-22 1.12196)
(13.0093 1.70944e-21 1.05471)
(13.0547 -3.74245e-22 1.02747)
(13.13 -2.35693e-21 1.08627)
(12.9348 -2.26813e-22 0.982683)
(12.865 5.92099e-23 0.914536)
(12.9803 1.63774e-21 0.958126)
(12.916 -1.86224e-21 0.892476)
(12.9584 3.62675e-21 0.869251)
(13.0247 2.00913e-21 0.927455)
(12.8501 -1.59214e-21 0.822293)
(12.7887 6.49279e-23 0.755201)
(12.8927 1.07546e-22 0.801586)
(12.8369 -1.79358e-21 0.736847)
(12.8767 1.79742e-21 0.717563)
(12.9343 2.24413e-21 0.775792)
(12.7793 -1.19267e-22 0.667913)
(12.7265 -3.94761e-21 0.600633)
(12.8197 -1.07715e-22 0.651002)
(12.7723 8.24184e-23 0.585939)
(12.8103 3.33386e-21 0.570516)
(12.8591 -3.01383e-22 0.629976)
(12.7233 -3.76468e-21 0.516707)
(12.6791 -3.91625e-21 0.449243)
(12.762 3.56504e-21 0.503537)
(12.7232 8.43408e-23 0.438185)
(12.7597 3.57707e-21 0.426603)
(12.7996 4.04352e-21 0.487193)
(12.6827 0 0.369138)
(12.6468 -1.4779e-23 0.299115)
(12.7201 5.4626e-23 0.359684)
(12.6897 0 0.291673)
(12.7252 2.80562e-23 0.283857)
(12.7566 3.06594e-22 0.347957)
(12.6576 -1.49503e-23 0.219594)
(12.537 -1.023e-23 0.149002)
(12.6942 -2.75064e-23 0.213829)
(12.5788 -2.2794e-22 0.145137)
(12.6133 -2.12099e-22 0.141123)
(12.7299 -7.49911e-23 0.206704)
(12.4598 -2.28145e-22 0.073307)
(12.4953 -4.16879e-22 0.0712481)
(12.5297 -2.10852e-22 0.0687303)
(15.7039 -2.51996e-21 4.9182)
(15.7623 1.63015e-21 4.4908)
(15.4542 1.54862e-21 4.33983)
(16.2134 3.56224e-21 4.22808)
(15.8284 4.36625e-21 4.12006)
(16.6512 0 3.88909)
(16.2382 3.38314e-21 3.83456)
(16.6398 -8.85707e-21 3.47686)
(15.4808 4.2218e-21 3.961)
(15.2025 3.13159e-21 3.83822)
(15.8615 4.26975e-21 3.71816)
(15.5187 -5.25224e-22 3.63138)
(16.2312 -5.33483e-21 3.41407)
(15.8639 2.47188e-21 3.37181)
(16.5775 2.6233e-21 3.04587)
(16.2026 -1.09715e-21 3.05409)
(16.8879 1.45527e-21 2.61531)
(16.5106 4.91115e-21 2.67845)
(16.7768 -1.85424e-21 2.24783)
(15.2058 -1.67369e-21 3.50209)
(14.9546 -7.5825e-22 3.40168)
(15.5275 -2.45292e-21 3.27831)
(15.2228 1.04839e-22 3.20861)
(15.8388 7.09105e-21 3.00506)
(15.5142 -3.30313e-21 2.97279)
(16.1301 1.35865e-21 2.68007)
(15.7994 1.07493e-20 2.69001)
(16.3912 1.99546e-21 2.30472)
(16.0587 2.10003e-21 2.36043)
(16.6117 1.03907e-20 1.8826)
(16.283 9.57348e-21 1.98643)
(16.7814 1.29357e-20 1.41957)
(16.4648 -6.29323e-21 1.57212)
(16.5961 1.22313e-20 1.1238)
(14.9414 1.06069e-21 3.10291)
(14.7144 -4.50159e-22 3.01988)
(15.2145 -6.72394e-22 2.89773)
(14.9431 1.58996e-21 2.84114)
(15.4775 1.76198e-23 2.65235)
(15.1903 -2.31748e-21 2.62748)
(15.7231 1.19539e-20 2.36509)
(15.4316 3.46801e-22 2.37571)
(15.9431 9.91208e-21 2.0371)
(15.6507 7.3114e-21 2.08602)
(16.1293 -7.12399e-21 1.67126)
(15.8401 4.52048e-23 1.76037)
(16.2735 -7.45625e-21 1.27212)
(15.9944 -3.90732e-22 1.402)
(16.3683 -3.32045e-23 0.846166)
(16.107 5.67063e-21 1.01578)
(16.1715 -6.43544e-21 0.608356)
(14.6896 2.12988e-23 2.75378)
(14.4842 1.17915e-22 2.6841)
(14.9228 0 2.56659)
(14.6805 0 2.51982)
(15.1465 -2.12414e-21 2.34655)
(14.8916 0 2.32684)
(15.3547 -4.74453e-21 2.09246)
(15.0972 -1.99996e-21 2.10277)
(15.5412 -2.70809e-21 1.80533)
(15.2834 -3.02998e-21 1.84788)
(15.6992 7.16947e-21 1.48746)
(15.4446 -1.29771e-22 1.56376)
(15.8225 1.31276e-20 1.14241)
(15.5763 7.69136e-21 1.253)
(15.905 -5.93181e-22 0.77519)
(15.6734 6.39291e-24 0.919393)
(15.7309 5.29644e-21 0.568047)
(14.4519 8.11266e-23 2.44654)
(14.266 8.11247e-23 2.38697)
(14.6524 0 2.27656)
(14.4356 -1.4978e-22 2.23693)
(14.844 1.75481e-22 2.07962)
(14.6172 -1.23387e-23 2.06322)
(15.0219 -2.16004e-22 1.85487)
(14.7936 3.97379e-22 1.86402)
(15.181 -4.60527e-22 1.6032)
(14.9532 2.11265e-22 1.63966)
(15.3162 2.15443e-22 1.32647)
(15.0914 -2.49066e-22 1.39146)
(15.4224 -5.74333e-21 1.0275)
(15.2048 4.68229e-22 1.1215)
(15.4947 5.90901e-21 0.71018)
(15.2893 -6.69453e-21 0.832734)
(15.3408 8.5577e-21 0.529159)
(14.2291 -1.49775e-22 2.17433)
(14.0607 5.00363e-22 2.12225)
(14.4028 -1.41135e-22 2.02068)
(14.2084 2.07e-23 1.98605)
(14.5681 2.04984e-22 1.84481)
(14.3659 1.27182e-22 1.83022)
(14.7213 8.4911e-22 1.64614)
(14.5185 2.22865e-22 1.65344)
(14.8584 4.38308e-22 1.42545)
(14.6565 -1.34619e-22 1.45603)
(14.9751 -9.39896e-24 1.18427)
(14.7761 5.11229e-22 1.23912)
(15.0674 -3.33651e-22 0.924827)
(14.8747 -1.35653e-22 1.00436)
(15.1313 -4.50904e-21 0.650183)
(14.949 -2.17181e-22 0.754117)
(14.9955 -3.6148e-21 0.49152)
(14.0218 6.71734e-22 1.93138)
(13.8693 5.12365e-22 1.88468)
(14.1734 3.02983e-22 1.79314)
(13.9989 1.63164e-22 1.76176)
(14.3173 1.43185e-22 1.63652)
(14.1366 -3.60545e-22 1.62254)
(14.4505 -8.17935e-22 1.46114)
(14.2699 -5.71708e-23 1.46602)
(14.5696 -1.25102e-22 1.2677)
(14.3904 -8.37605e-22 1.29256)
(14.6713 3.96693e-22 1.05746)
(14.4949 5.67493e-22 1.10308)
(14.7524 -1.67246e-23 0.832191)
(14.5814 -2.75885e-22 0.898961)
(14.8095 7.77062e-22 0.594326)
(14.6474 1.17582e-22 0.682066)
(14.69 1.46692e-21 0.454874)
(13.8301 0 1.71282)
(13.6922 7.07816e-22 1.66977)
(13.9637 -4.88845e-22 1.58906)
(13.8069 0 1.55953)
(14.0901 -5.41795e-22 1.45008)
(13.9285 6.3848e-23 1.43573)
(14.2069 -5.85457e-23 1.29562)
(14.046 -1.91089e-22 1.29763)
(14.3115 -2.06194e-22 1.12631)
(14.1522 -1.42463e-23 1.14557)
(14.4011 -1.44825e-22 0.943179)
(14.2445 -4.88335e-22 0.980338)
(14.473 -1.48284e-22 0.747685)
(14.3214 6.69734e-23 0.803065)
(14.5247 7.91444e-22 0.541752)
(14.3807 -2.22329e-22 0.61525)
(14.4201 3.12555e-22 0.418857)
(13.6543 7.24792e-22 1.51451)
(13.5297 3.21908e-22 1.47371)
(13.773 5.52035e-22 1.40437)
(13.6322 8.45714e-22 1.37553)
(13.8851 3.90625e-22 1.28158)
(13.7406 4.83253e-23 1.26606)
(13.9887 -1.64713e-22 1.14602)
(13.8453 -5.16008e-22 1.14477)
(14.0815 -3.28088e-22 0.998227)
(13.9399 -2.52296e-22 1.01197)
(14.1613 -3.20824e-22 0.839061)
(14.0223 -4.44715e-22 0.868332)
(14.2259 0 0.669701)
(14.0914 -9.83651e-23 0.714783)
(14.2732 -7.68361e-22 0.491688)
(14.1453 1.00994e-22 0.552533)
(14.1822 -1.07284e-21 0.38315)
(13.4944 4.33163e-22 1.33295)
(13.3822 -5.83448e-22 1.2932)
(13.6009 3.22302e-22 1.2356)
(13.4746 5.50551e-22 1.20651)
(13.7014 -8.94866e-22 1.12776)
(13.5722 -5.29259e-22 1.11041)
(13.7941 -6.12e-22 1.00936)
(13.6664 -6.14443e-24 1.00454)
(13.8774 -3.6735e-22 0.880891)
(13.7517 3.35971e-22 0.88919)
(13.9493 -2.24184e-22 0.743066)
(13.8262 -1.22693e-22 0.764932)
(14.008 -2.27266e-24 0.596843)
(13.8889 4.53009e-23 0.632526)
(14.0518 -1.826e-22 0.44346)
(13.9386 9.20038e-23 0.492951)
(13.9735 -9.53627e-23 0.347465)
(13.3504 -4.8341e-22 1.16514)
(13.2497 5.17445e-22 1.12545)
(13.4469 -3.19073e-22 1.07984)
(13.3339 3.56007e-22 1.04967)
(13.5379 3.58135e-22 0.985852)
(13.4227 -6.61228e-22 0.966101)
(13.6219 9.34861e-22 0.883166)
(13.5085 -6.96298e-23 0.874479)
(13.6974 5.73798e-22 0.77219)
(13.5861 6.71395e-22 0.775065)
(13.763 1.38561e-22 0.653533)
(13.6542 2.14244e-22 0.668352)
(13.817 1.36009e-22 0.527974)
(13.712 1.44761e-22 0.554962)
(13.858 1.8802e-22 0.396511)
(13.7583 -1.81382e-22 0.435687)
(13.7917 1.14533e-22 0.311537)
(13.2224 1.38206e-21 1.00846)
(13.1325 1.63188e-22 0.96801)
(13.3107 9.09632e-24 0.934548)
(13.21 -1.27811e-22 0.902642)
(13.3939 -1.11329e-21 0.853473)
(13.2917 -6.76881e-22 0.830862)
(13.4709 -3.4281e-22 0.765259)
(13.3706 -7.36648e-22 0.752487)
(13.5402 3.23825e-22 0.670262)
(13.4422 -3.73905e-22 0.667754)
(13.6007 2.225e-22 0.568985)
(13.5051 -7.30622e-23 0.577073)
(13.651 -1.97613e-22 0.462063)
(13.5589 2.8268e-22 0.480955)
(13.6899 -3.09072e-22 0.350299)
(13.6025 -4.70011e-22 0.38004)
(13.6348 1.02682e-23 0.275133)
(13.1103 -1.33132e-21 0.860772)
(13.0308 -9.79772e-22 0.818722)
(13.192 -8.38372e-22 0.797672)
(13.1029 1.19476e-23 0.763331)
(13.269 -2.89913e-22 0.728718)
(13.1789 0 0.702721)
(13.3403 -7.72107e-22 0.653956)
(13.2523 -5.62909e-22 0.636769)
(13.4047 -7.87351e-22 0.573686)
(13.319 7.88365e-22 0.565684)
(13.4612 -1.14078e-23 0.488324)
(13.3779 -7.37124e-22 0.489806)
(13.5085 1.07799e-23 0.398384)
(13.4286 -3.88386e-23 0.409547)
(13.5457 -1.71822e-22 0.304508)
(13.4701 -9.34921e-23 0.325419)
(13.5015 3.13174e-22 0.23806)
(13.0143 3.73994e-22 0.719849)
(12.9449 -6.70971e-22 0.675682)
(13.0908 8.70363e-22 0.667077)
(13.0127 2.91411e-22 0.629905)
(13.1629 -2.69012e-22 0.60959)
(13.0842 7.74668e-22 0.579952)
(13.2296 9.96355e-22 0.547445)
(13.1532 -2.75419e-22 0.525756)
(13.2901 8.69391e-22 0.480893)
(13.2162 1.04026e-21 0.467491)
(13.3434 -7.81445e-22 0.410269)
(13.2719 3.94556e-22 0.405431)
(13.3885 -1.53777e-22 0.335985)
(13.3201 -7.37189e-22 0.339905)
(13.4244 3.86815e-22 0.258546)
(13.36 7.70909e-22 0.271314)
(13.3908 -2.42323e-22 0.200157)
(12.9348 -8.19829e-22 0.584452)
(12.8752 -1.22352e-21 0.537138)
(13.0071 1.97702e-22 0.541616)
(12.9397 -1.01581e-21 0.500681)
(13.0754 7.9311e-22 0.495072)
(13.0076 7.92821e-22 0.460997)
(13.1386 -2.55583e-22 0.444878)
(13.0734 -6.16418e-22 0.418042)
(13.1961 5.67056e-22 0.391237)
(13.1334 -4.74145e-22 0.371956)
(13.2469 4.56422e-22 0.334414)
(13.1867 1.36445e-21 0.322954)
(13.2903 1.69066e-22 0.274731)
(13.2331 -4.01555e-22 0.271293)
(13.3252 1.55616e-22 0.212582)
(13.2718 5.83166e-22 0.217282)
(13.3022 -1.68734e-22 0.161301)
(12.8721 -1.42899e-21 0.45186)
(12.8222 -6.55611e-22 0.401477)
(12.9413 -4.32554e-22 0.418679)
(12.8842 -2.22206e-22 0.374144)
(13.0066 -6.16189e-22 0.382703)
(12.9496 3.61282e-22 0.344444)
(13.0672 -8.40133e-22 0.343983)
(13.0129 -4.99224e-22 0.31236)
(13.1224 2.97757e-22 0.302676)
(13.0708 -3.67969e-22 0.277995)
(13.1714 5.28192e-22 0.258984)
(13.1223 5.40879e-22 0.241508)
(13.2135 0 0.213151)
(13.1674 4.09122e-22 0.203089)
(13.2478 2.67721e-22 0.165471)
(13.2053 -1.89802e-22 0.162966)
(13.2355 9.54156e-24 0.121406)
(12.8267 5.69162e-22 0.322629)
(12.786 3.00945e-22 0.267072)
(12.8938 5.76319e-22 0.298886)
(12.8464 2.15086e-22 0.248744)
(12.957 4.94912e-22 0.273182)
(12.9101 7.31985e-22 0.228898)
(13.0158 -1.78936e-23 0.245557)
(12.9717 -6.88012e-23 0.207477)
(13.0694 -1.41998e-22 0.216125)
(13.0282 -5.37926e-22 0.184554)
(13.1172 4.22162e-22 0.185033)
(13.0786 3.92229e-22 0.160243)
(13.1583 2.28626e-22 0.152451)
(13.1227 2.059e-22 0.134674)
(13.1922 -4.56161e-22 0.118579)
(13.1601 -2.85784e-22 0.10799)
(13.1901 -1.93047e-22 0.0803605)
(12.7986 -5.85883e-23 0.191407)
(12.6724 4.26469e-24 0.132379)
(12.8642 3.62142e-22 0.177143)
(12.7309 0 0.123208)
(12.926 1.62549e-22 0.161712)
(12.7925 3.70748e-22 0.11319)
(12.9836 -5.90621e-22 0.145132)
(12.8521 -2.07012e-22 0.102355)
(13.0362 -1.4582e-23 0.12748)
(12.9066 -4.63293e-22 0.0907777)
(13.0832 1.75248e-22 0.108852)
(12.9551 2.6084e-22 0.0785197)
(13.1238 -3.07151e-22 0.0893485)
(12.9974 -1.65123e-22 0.065644)
(13.1574 -1.87598e-23 0.0690871)
(13.0332 -1.20134e-23 0.0522236)
(13.0617 -7.13766e-23 0.0383478)
(12.5957 6.38705e-23 0.0633943)
(12.6586 0 0.0584637)
(12.7177 0 0.0531349)
(12.7725 -7.25921e-23 0.0474137)
(12.8222 -1.9991e-22 0.0413346)
(12.8663 -7.81879e-23 0.0349354)
(12.904 1.33758e-22 0.0282551)
(12.9348 -6.44604e-23 0.0213383)
)
;

boundaryField
{
    inlet
    {
        type            calculated;
        value           nonuniform 0();
    }
    outlet
    {
        type            calculated;
        value           nonuniform 0();
    }
    flap
    {
        type            calculated;
        value           nonuniform 0();
    }
    upperWall
    {
        type            calculated;
        value           uniform (0 0 0);
    }
    lowerWall
    {
        type            calculated;
        value           nonuniform 0();
    }
    frontAndBack
    {
        type            empty;
        value           nonuniform 0();
    }
    procBoundary1to0
    {
        type            processor;
        value           nonuniform List<vector> 
18
(
(11.8689 5.42131e-21 3.3319)
(11.9253 1.54268e-20 3.08974)
(11.8399 1.13508e-20 2.92937)
(11.7665 1.65207e-20 2.76912)
(11.792 2.47127e-20 2.55265)
(11.803 -1.40537e-20 2.34041)
(11.8023 2.09631e-23 2.13295)
(11.7925 -1.31814e-20 1.93049)
(11.7761 4.20742e-21 1.73298)
(11.7552 -4.003e-21 1.5402)
(11.7318 -7.92321e-21 1.35166)
(11.7078 1.87826e-21 1.16687)
(11.6849 1.72879e-21 0.9849)
(11.6644 1.77407e-21 0.805422)
(11.6476 -5.15609e-21 0.626444)
(11.6358 -3.40676e-21 0.449051)
(11.6294 -1.25354e-21 0.268092)
(11.4591 9.48768e-24 0.0897034)
)
;
    }
    procBoundary1to2
    {
        type            processor;
        value           nonuniform List<vector> 
17
(
(16.4077 -6.22399e-22 0.401804)
(15.9417 -6.08909e-21 0.392253)
(15.529 1.9087e-20 0.379513)
(15.1635 -9.55228e-21 0.364259)
(14.8399 8.8857e-22 0.346955)
(14.5537 1.03839e-21 0.327825)
(14.3011 -1.3838e-21 0.30697)
(14.0789 5.86248e-22 0.284474)
(13.8846 3.51275e-22 0.260387)
(13.716 -1.14298e-22 0.234686)
(13.5716 1.27506e-22 0.207484)
(13.4502 1.32412e-22 0.178573)
(13.351 -4.88364e-22 0.148442)
(13.2736 6.41053e-22 0.116292)
(13.2182 -3.53586e-22 0.0836518)
(13.1833 -1.53524e-22 0.0482072)
(12.9579 -9.52907e-23 0.0142404)
)
;
    }
    procBoundary1to3
    {
        type            processor;
        value           nonuniform List<vector> 9((9.89423 -8.43445e-20 5.20191) (10.2625 6.26299e-20 5.08459) (10.5951 3.59704e-20 4.92873) (10.8891 -3.51842e-20 4.74209) (11.1433 8.12793e-21 4.53203) (11.3581 -1.46084e-20 4.30521) (11.5353 1.33345e-20 4.06739) (11.6774 -2.55644e-20 3.82343) (11.7875 -5.51746e-21 3.57724));
    }
    procBoundary1to4
    {
        type            processor;
        value           nonuniform List<vector> 
30
(
(9.73451 -7.85773e-20 5.4596)
(10.0181 -9.36299e-20 5.64929)
(10.3078 -6.131e-20 5.78529)