/*--------------------------------*- C++ -*----------------------------------*\
| =========                 |                                                 |
| \\      /  F ield         | OpenFOAM: The Open Source CFD Toolbox           |
|  \\    /   O peration     | Version:  dev                                   |
|   \\  /    A nd           | Web:      www.OpenFOAM.org                      |
|    \\/     M anipulation  |                                                 |
\*---------------------------------------------------------------------------*/
FoamFile
{
    version     2.0;
    format      ascii;
    class       volVectorField;
    location    "0.22";
    object      cellDisplacement;
}
// * * * * * * * * * * * * * * * * * * * * * * * * * * * * * * * * * * * * * //

dimensions      [0 1 0 0 0 0 0];

internalField   nonuniform List<vector> 
2790
(
(0.000898997 0 4.8476e-07)
(0.00258993 0 1.41297e-06)
(0.004082 0 2.27843e-06)
(0.00539264 0 3.11278e-06)
(0.00653789 0 3.94428e-06)
(0.00753214 0 4.7999e-06)
(0.00838819 0 5.70726e-06)
(0.00911734 0 6.69648e-06)
(0.00972947 0 7.80214e-06)
(0.0102331 0 9.06548e-06)
(0.0106355 0 1.05372e-05)
(0.0109425 0 1.22806e-05)
(0.0111591 0 1.43762e-05)
(0.0112887 0 1.69273e-05)
(0.0113336 0 2.00667e-05)
(0.0112948 0 2.39668e-05)
(0.0111721 0 2.88509e-05)
(0.0109637 0 3.50087e-05)
(0.0106665 0 4.28157e-05)
(0.0102759 0 5.27571e-05)
(0.00978602 0 6.54568e-05)
(0.00918991 0 8.17125e-05)
(0.00848044 0 0.000102531)
(0.00765151 0 0.000129166)
(0.00670059 0 0.000163139)
(0.00563325 0 0.000206208)
(0.00447151 0 0.000260169)
(0.00326957 0 0.000326112)
(0.0021469 0 0.000401724)
(0.00137855 0 0.000471201)
(0.00089928 0 1.45093e-06)
(0.0025908 0 4.22896e-06)
(0.00408354 0 6.8186e-06)
(0.00539496 0 9.31415e-06)
(0.00654116 0 1.17998e-05)
(0.00753657 0 1.43556e-05)
(0.00839404 0 1.70636e-05)
(0.00912495 0 2.00127e-05)
(0.00973924 0 2.33052e-05)
(0.0102455 0 2.70622e-05)
(0.0106512 0 3.14325e-05)
(0.0109624 0 3.66017e-05)
(0.011184 0 4.28048e-05)
(0.0113199 0 5.03423e-05)
(0.0113728 0 5.96003e-05)
(0.011344 0 7.10772e-05)
(0.0112339 0 8.54168e-05)
(0.0110416 0 0.000103451)
(0.0107648 0 0.000126253)
(0.0104005 0 0.000155201)
(0.00994445 0 0.000192054)
(0.00939191 0 0.000239035)
(0.00873865 0 0.000298912)
(0.00798229 0 0.000375053)
(0.00712498 0 0.00047139)
(0.00617823 0 0.000592135)
(0.00517131 0 0.000740837)
(0.00416627 0 0.000917609)
(0.00328453 0 0.00111105)
(0.00275711 0 0.00127414)
(0.00089986 0 2.40663e-06)
(0.00259259 0 7.01387e-06)
(0.00408666 0 1.13067e-05)
(0.00539963 0 1.54404e-05)
(0.00654769 0 1.95529e-05)
(0.00754537 0 2.37754e-05)
(0.00840564 0 2.82412e-05)
(0.00913999 0 3.30947e-05)
(0.00975853 0 3.85001e-05)
(0.0102701 0 4.46521e-05)
(0.0106822 0 5.17877e-05)
(0.0110013 0 6.02012e-05)
(0.0112329 0 7.02634e-05)
(0.0113812 0 8.24453e-05)
(0.0114494 0 9.73488e-05)
(0.01144 0 0.000115745)
(0.0113544 0 0.000138625)
(0.011193 0 0.000167254)
(0.0109556 0 0.000203252)
(0.0106415 0 0.000248672)
(0.0102497 0 0.00030609)
(0.0097794 0 0.000378701)
(0.00923144 0 0.000470355)
(0.00860961 0 0.000585523)
(0.0079233 0 0.000729017)
(0.00719183 0 0.000905177)
(0.00645088 0 0.00111584)
(0.00576158 0 0.0013556)
(0.00522042 0 0.0016009)
(0.0049661 0 0.00178624)
(0.000900723 0 3.34445e-06)
(0.00259523 0 9.74574e-06)
(0.00409125 0 1.57062e-05)
(0.0054065 0 2.14388e-05)
(0.0065573 0 2.71325e-05)
(0.00755832 0 3.29656e-05)
(0.00842269 0 3.91183e-05)
(0.00916208 0 4.57842e-05)
(0.00978681 0 5.31817e-05)
(0.010306 0 6.15676e-05)
(0.0107275 0 7.12519e-05)
(0.0110582 0 8.26165e-05)
(0.0113041 0 9.61383e-05)
(0.0114701 0 0.000112418)
(0.0115605 0 0.000132215)
(0.0115787 0 0.000156493)
(0.0115277 0 0.000186474)
(0.0114099 0 0.000223701)
(0.0112276 0 0.000270114)
(0.0109832 0 0.000328123)
(0.0106796 0 0.000400681)
(0.0103212 0 0.000491325)
(0.00991463 0 0.000604113)
(0.00947054 0 0.000743403)
(0.00900546 0 0.000913241)
(0.00854445 0 0.00111601)
(0.00812378 0 0.00134966)
(0.00779179 0 0.00160235)
(0.00760266 0 0.00184297)
(0.00759614 0 0.00200621)
(0.000901849 0 4.25721e-06)
(0.00259867 0 1.24032e-05)
(0.00409723 0 1.99815e-05)
(0.00541542 0 2.72587e-05)
(0.00656975 0 3.44702e-05)
(0.00757508 0 4.18368e-05)
(0.00844474 0 4.95795e-05)
(0.00919062 0 5.7933e-05)
(0.00982331 0 6.71596e-05)
(0.0103522 0 7.75637e-05)
(0.0107857 0 8.95088e-05)
(0.0111312 0 0.000103438)
(0.0113952 0 0.000119896)
(0.0115835 0 0.000139562)
(0.0117015 0 0.000163283)
(0.011754 0 0.000192117)
(0.0117456 0 0.000227381)
(0.0116809 0 0.000270707)
(0.011565 0 0.000324099)
(0.0114037 0 0.000389975)
(0.011204 0 0.000471189)
(0.0109752 0 0.000570986)
(0.0107297 0 0.000692814)
(0.0104838 0 0.000839907)
(0.0102589 0 0.00101442)
(0.0100818 0 0.00121585)
(0.0099829 0 0.0014382)
(0.00998935 0 0.00166573)
(0.0101081 0 0.00186701)
(0.0102929 0 0.00198967)
(0.000903212 0 5.13804e-06)
(0.00260282 0 1.49661e-05)
(0.00410442 0 2.40989e-05)
(0.00542614 0 3.28519e-05)
(0.00658472 0 4.15019e-05)
(0.00759522 0 5.03062e-05)
(0.00847121 0 5.95193e-05)
(0.00922484 0 6.94081e-05)
(0.009867 0 8.02661e-05)
(0.0104075 0 9.24292e-05)
(0.0108551 0 0.000106292)
(0.0112178 0 0.000122328)
(0.0115029 0 0.000141111)
(0.0117171 0 0.000163343)
(0.0118668 0 0.000189881)
(0.0119583 0 0.000221774)
(0.0119978 0 0.000260298)
(0.0119922 0 0.000306989)
(0.011949 0 0.000363665)
(0.0118773 0 0.00043243)
(0.0117878 0 0.000515628)
(0.0116938 0 0.000615711)
(0.0116117 0 0.000734938)
(0.0115617 0 0.000874846)
(0.0115667 0 0.00103533)
(0.0116509 0 0.00121317)
(0.011834 0 0.00139993)
(0.0121198 0 0.00157948)
(0.0124733 0 0.00172606)
(0.0127861 0 0.00180545)
(0.000904775 0 5.98064e-06)
(0.00260757 0 1.74156e-05)
(0.00411264 0 2.80277e-05)
(0.00543839 0 3.8175e-05)
(0.0066018 0 4.81703e-05)
(0.0076182 0 5.83008e-05)
(0.00850138 0 6.88466e-05)
(0.0092638 0 8.00967e-05)
(0.00991667 0 9.2363e-05)
(0.0104702 0 0.000105996)
(0.0109336 0 0.000121398)
(0.0113155 0 0.000139044)
(0.0116238 0 0.000159494)
(0.0118662 0 0.000183419)
(0.0120501 0 0.000211617)
(0.0121831 0 0.000245033)
(0.0122731 0 0.000284778)
(0.0123286 0 0.000332132)
(0.0123596 0 0.00038853)
(0.0123773 0 0.000455519)
(0.0123952 0 0.000534649)
(0.0124292 0 0.000627279)
(0.0124978 0 0.000734227)
(0.012622 0 0.000855233)
(0.0128232 0 0.000988179)
(0.0131196 0 0.00112805)
(0.0135185 0 0.00126581)
(0.0140023 0 0.00138782)
(0.014506 0 0.0014769)
(0.0148859 0 0.00151687)
(0.000906492 0 6.77939e-06)
(0.00261279 0 1.97353e-05)
(0.00412165 0 3.17406e-05)
(0.00545181 0 4.31902e-05)
(0.00662053 0 5.44264e-05)
(0.00764338 0 6.57594e-05)
(0.00853444 0 7.74872e-05)
(0.00930644 0 8.99104e-05)
(0.00997093 0 0.000103347)
(0.0105385 0 0.000118144)
(0.0110188 0 0.000134693)
(0.0114211 0 0.000153439)
(0.0117539 0 0.000174895)
(0.0120256 0 0.000199653)
(0.0122447 0 0.00022839)
(0.0124198 0 0.000261875)
(0.01256 0 0.000300959)
(0.0126754 0 0.000346553)
(0.0127771 0 0.000399583)
(0.0128781 0 0.000460899)
(0.0129931 0 0.000531133)
(0.0131388 0 0.000610479)
(0.0133337 0 0.000698353)
(0.0135969 0 0.000792968)
(0.0139456 0 0.00089083)
(0.0143904 0 0.000986251)
(0.0149263 0 0.00107122)
(0.01552 0 0.00113622)
(0.0160899 0 0.00117297)
(0.0164823 0 0.00118038)
(0.000908307 0 7.52952e-06)
(0.00261829 0 2.19112e-05)
(0.00413117 0 3.5215e-05)
(0.00546601 0 4.78664e-05)
(0.00664037 0 6.02306e-05)
(0.00767008 0 7.26346e-05)
(0.00856948 0 8.53858e-05)
(0.00935159 0 9.87875e-05)
(0.0100283 0 0.000113151)
(0.0106105 0 0.000128808)
(0.0111083 0 0.000146115)
(0.0115315 0 0.000165469)
(0.0118891 0 0.000187305)
(0.0121902 0 0.000212099)
(0.012444 0 0.000240368)
(0.0126599 0 0.000272652)
(0.0128478 0 0.000309487)
(0.0130186 0 0.000351362)
(0.0131841 0 0.000398642)
(0.0133578 0 0.000451458)
(0.0135541 0 0.000509545)
(0.013789 0 0.000572048)
(0.0140788 0 0.000637244)
(0.0144388 0 0.000702299)
(0.0148804 0 0.000763095)
(0.015406 0 0.000814299)
(0.016001 0 0.000850006)
(0.0166229 0 0.000865394)
(0.0171864 0 0.000860031)
(0.0175489 0 0.000843615)
(0.00091016 0 8.22716e-06)
(0.00262392 0 2.3932e-05)
(0.00414091 0 3.8433e-05)
(0.00548057 0 5.21796e-05)
(0.00666074 0 6.5554e-05)
(0.00769754 0 7.88933e-05)
(0.00860554 0 9.25073e-05)
(0.00939804 0 0.000106693)
(0.0100872 0 0.000121746)
(0.0106842 0 0.000137968)
(0.0111997 0 0.000155671)
(0.0116436 0 0.000175182)
(0.0120256 0 0.000196839)
(0.0123551 0 0.000220983)
(0.0126419 0 0.000247945)
(0.0128957 0 0.000278014)
(0.0131269 0 0.000311401)
(0.0133465 0 0.000348168)
(0.0135664 0 0.000388149)
(0.0137992 0 0.000430823)
(0.0140582 0 0.000475176)
(0.014357 0 0.000519543)
(0.0147083 0 0.000561443)
(0.0151224 0 0.000597527)
(0.0156041 0 0.000623722)
(0.0161488 0 0.000635753)
(0.0167357 0 0.000630311)
(0.0173203 0 0.000607114)
(0.017825 0 0.000572024)
(0.0181317 0 0.0005413)
(0.000911982 0 8.86945e-06)
(0.00262946 0 2.57896e-05)
(0.00415053 0 4.13818e-05)
(0.00549502 0 5.61135e-05)
(0.00668105 0 7.03781e-05)
(0.00772499 0 8.45168e-05)
(0.00864165 0 9.88356e-05)
(0.00944455 0 0.000113619)
(0.0101461 0 0.000129137)
(0.0107578 0 0.000145655)
(0.0112905 0 0.000163428)
(0.0117545 0 0.000182705)
(0.0121596 0 0.000203716)
(0.0125158 0 0.000226661)
(0.0128327 0 0.000251679)
(0.0131205 0 0.000278819)
(0.0133894 0 0.000307981)
(0.01365 0 0.000338855)
(0.0139133 0 0.000370822)
(0.0141907 0 0.000402858)
(0.0144933 0 0.000433412)
(0.0148311 0 0.00046032)
(0.0152127 0 0.000480746)
(0.0156428 0 0.000491297)
(0.01612 0 0.000488402)
(0.0166341 0 0.000469118)
(0.017162 0 0.000432581)
(0.0176638 0 0.000382194)
(0.0180779 0 0.000328327)
(0.0183189 0 0.000290694)
(0.000913703 0 9.4545e-06)
(0.00263471 0 2.74787e-05)
(0.00415972 0 4.40536e-05)
(0.0055089 0 5.96589e-05)
(0.00670068 0 7.46944e-05)
(0.00775165 0 8.94998e-05)
(0.00867683 0 0.000104373)
(0.00948994 0 0.000119578)
(0.0102036 0 0.000135359)
(0.0108295 0 0.000151934)
(0.0113786 0 0.000169501)
(0.0118614 0 0.000188225)
(0.012288 0 0.000208231)
(0.0126684 0 0.000229577)
(0.0130121 0 0.000252231)
(0.0133292 0 0.000276025)
(0.0136294 0 0.000300605)
(0.0139225 0 0.00032536)
(0.0142184 0 0.000349352)
(0.0145263 0 0.000371227)
(0.0148546 0 0.000389149)
(0.0152099 0 0.00040077)
(0.0155959 0 0.00040327)
(0.016012 0 0.000393575)
(0.0164516 0 0.000368844)
(0.0169007 0 0.000327357)
(0.0173364 0 0.000269968)
(0.0177272 0 0.000202203)
(0.0180333 0 0.000136674)
(0.0182055 0 9.45523e-05)
(0.000915248 0 9.98129e-06)
(0.00263946 0 2.89968e-05)
(0.00416811 0 4.64451e-05)
(0.00552175 0 6.28135e-05)
(0.00671904 0 7.85032e-05)
(0.00777677 0 9.3849e-05)
(0.00871014 0 0.000109135)
(0.00953303 0 0.000124606)
(0.0102582 0 0.000140471)
(0.0108974 0 0.000156904)
(0.0114619 0 0.000174042)
(0.011962 0 0.000191973)
(0.012408 0 0.00021072)
(0.0128097 0 0.000230222)
(0.0131765 0 0.000250297)
(0.0135178 0 0.000270607)
(0.0138429 0 0.000290609)
(0.0141604 0 0.000309497)
(0.0144785 0 0.000326147)
(0.0148044 0 0.000339068)
(0.0151436 0 0.000346378)
(0.0154992 0 0.000345834)
(0.0158707 0 0.000334936)
(0.016253 0 0.000311196)
(0.0166356 0 0.000272605)
(0.0170016 0 0.000218392)
(0.0173294 0 0.000150204)
(0.0175958 0 7.38682e-05)
(0.0177822 0 1.884e-06)
(0.0178784 0 -4.4112e-05)
(0.000916541 0 1.04496e-05)
(0.00264349 0 3.03438e-05)
(0.00417538 0 4.85569e-05)
(0.00553309 0 6.55803e-05)
(0.00673551 0 8.18129e-05)
(0.0077996 0 9.7581e-05)
(0.0087407 0 0.000113154)
(0.00957276 0 0.000128751)
(0.0103086 0 0.00014455)
(0.0109602 0 0.000160682)
(0.0115386 0 0.000177225)
(0.0120543 0 0.000194198)
(0.0125174 0 0.00021154)
(0.0129372 0 0.000229088)
(0.0133231 0 0.000246552)
(0.0136838 0 0.000263474)
(0.0140275 0 0.000279197)
(0.0143618 0 0.000292821)
(0.0146932 0 0.000303174)
(0.0150269 0 0.000308798)
(0.0153657 0 0.00030797)
(0.0157098 0 0.000298781)
(0.0160554 0 0.000279288)
(0.0163945 0 0.000247783)
(0.0167138 0 0.000203183)
(0.0169952 0 0.000145545)
(0.017218 0 7.67127e-05)
(0.0173638 0 1.31788e-06)
(0.0174271 0 -7.09052e-05)
(0.017433 0 -0.000119388)
(0.000917505 0 1.086e-05)
(0.00264657 0 3.15225e-05)
(0.00418119 0 5.03934e-05)
(0.00554248 0 6.79678e-05)
(0.00674955 0 8.46383e-05)
(0.00781946 0 0.00010072)
(0.00876765 0 0.000116467)
(0.00960815 0 0.000132074)
(0.0103538 0 0.000147687)
(0.0110165 0 0.000163396)
(0.0116074 0 0.000179232)
(0.0121367 0 0.000195155)
(0.0126142 0 0.000211036)
(0.0130492 0 0.000226642)
(0.0134503 0 0.00024161)
(0.0138256 0 0.000255418)
(0.0141823 0 0.000267366)
(0.014527 0 0.000276554)
(0.0148645 0 0.000281876)
(0.0151981 0 0.000282041)
(0.0155288 0 0.000275634)
(0.0158546 0 0.000261232)
(0.0161698 0 0.000237587)
(0.0164649 0 0.000203895)
(0.0167262 0 0.000160131)
(0.0169364 0 0.000107376)
(0.017077 0 4.79841e-05)
(0.0171321 0 -1.47224e-05)
(0.0170979 0 -7.69992e-05)
(0.0170099 0 -0.000128136)
(0.00140525 0 -0.000421259)
(0.00227661 0 -0.000369004)
(0.0035223 0 -0.000301626)
(0.00484664 0 -0.000238928)
(0.00610855 0 -0.000185971)
(0.00724721 0 -0.000143145)
(0.00824195 0 -0.000109324)
(0.0090917 0 -8.2994e-05)
(0.0098041 0 -6.26837e-05)
(0.0103899 0 -4.71112e-05)
(0.0108603 0 -3.52194e-05)
(0.011225 0 -2.61633e-05)
(0.011492 0 -1.92804e-05)
(0.0116674 0 -1.4058e-05)
(0.0117555 0 -1.01022e-05)
(0.0117588 0 -7.11247e-06)
(0.0116781 0 -4.86018e-06)
(0.0115127 0 -3.17181e-06)
(0.0112606 0 -1.91587e-06)
(0.0109185 0 -9.92806e-07)
(0.0104816 0 -3.27274e-07)
(0.00994409 0 1.37696e-07)
(0.0092989 0 4.45141e-07)
(0.00853768 0 6.27522e-07)
(0.00765085 0 7.0927e-07)
(0.00662754 0 7.0875e-07)
(0.00545552 0 6.39796e-07)
(0.00412126 0 5.1299e-07)
(0.00260982 0 3.36814e-07)
(0.000904671 0 1.18817e-07)
(0.00272824 0 -0.00114647)
(0.003413 0 -0.00101725)
(0.0044394 0 -0.000842543)
(0.00556907 0 -0.00067412)
(0.00667119 0 -0.000528641)
(0.00768295 0 -0.000409249)
(0.00857866 0 -0.000313986)
(0.00935186 0 -0.000239257)
(0.0100054 0 -0.000181267)
(0.0105461 0 -0.000136588)
(0.0109818 0 -0.00010233)
(0.0113199 0 -7.61498e-05)
(0.0115663 0 -5.61922e-05)
(0.0117259 0 -4.10092e-05)
(0.0118016 0 -2.94823e-05)
(0.0117952 0 -2.0753e-05)
(0.0117069 0 -1.41656e-05)
(0.0115356 0 -9.22058e-06)
(0.0112787 0 -5.53802e-06)
(0.0109328 0 -2.82948e-06)
(0.0104928 0 -8.76137e-07)
(0.00995291 0 4.87896e-07)
(0.00930576 0 1.38817e-06)
(0.00854298 0 1.91954e-06)
(0.00765489 0 2.1535e-06)
(0.00663056 0 2.14386e-06)
(0.00545772 0 1.93117e-06)
(0.00412277 0 1.54646e-06)
(0.00261073 0 1.01462e-06)
(0.000904982 0 3.5779e-07)
(0.00489213 0 -0.00161134)
(0.00535378 0 -0.00145473)
(0.0060603 0 -0.0012281)
(0.00687544 0 -0.000998385)
(0.00770468 0 -0.00079302)
(0.00849262 0 -0.000620323)
(0.00920996 0 -0.00048001)
(0.00984327 0 -0.000368384)
(0.0103881 0 -0.000280776)
(0.0108446 0 -0.000212639)
(0.0112152 0 -0.000159976)
(0.0115029 0 -0.000119453)
(0.0117104 0 -8.83759e-05)
(0.0118395 0 -6.46097e-05)
(0.0118916 0 -4.64837e-05)
(0.0118665 0 -3.27026e-05)
(0.0117635 0 -2.22676e-05)
(0.0115805 0 -1.44122e-05)
(0.0113144 0 -8.54966e-06)
(0.010961 0 -4.23163e-06)
(0.0105152 0 -1.11622e-06)
(0.00997047 0 1.05688e-06)
(0.00931948 0 2.48554e-06)
(0.0085536 0 3.31974e-06)
(0.00766301 0 3.67287e-06)
(0.00663665 0 3.63041e-06)
(0.00546216 0 3.2569e-06)
(0.00412582 0 2.60176e-06)
(0.00261255 0 1.7046e-06)
(0.000905601 0 6.00684e-07)
(0.00749909 0 -0.0018095)
(0.00773458 0 -0.00165616)
(0.00809888 0 -0.00142446)
(0.00855641 0 -0.00117899)
(0.00906032 0 -0.00095149)
(0.00957173 0 -0.000754588)
(0.0100627 0 -0.000590843)
(0.0105147 0 -0.000458055)
(0.0109161 0 -0.000352154)
(0.01126 0 -0.000268658)
(0.0115425 0 -0.000203361)
(0.0117614 0 -0.0001526)
(0.0119149 0 -0.000113321)
(0.0120018 0 -8.30466e-05)
(0.0120205 0 -5.97981e-05)
(0.0119692 0 -4.20169e-05)
(0.0118453 0 -2.84849e-05)
(0.0116456 0 -1.82557e-05)
(0.0113662 0 -1.05972e-05)
(0.0110022 0 -4.94498e-06)
(0.0105477 0 -8.65207e-07)
(0.00999607 0 1.97492e-06)
(0.00933948 0 3.82984e-06)
(0.00856907 0 4.89347e-06)
(0.00767483 0 5.313e-06)
(0.00664552 0 5.19978e-06)
(0.00546861 0 4.63803e-06)
(0.00413024 0 3.69228e-06)
(0.00261519 0 2.41425e-06)
(0.000906492 0 8.49955e-07)
(0.0101946 0 -0.00177745)
(0.0102255 0 -0.00164495)
(0.0102761 0 -0.00144006)
(0.0103921 0 -0.00121478)
(0.0105722 0 -0.000998366)
(0.0107983 0 -0.000804985)
(0.0110484 0 -0.000639649)
(0.0113025 0 -0.000502326)
(0.0115438 0 -0.000390523)
(0.0117597 0 -0.000300779)
(0.0119404 0 -0.000229488)
(0.0120784 0 -0.000173303)
(0.0121678 0 -0.000129301)
(0.0122038 0 -9.5026e-05)
(0.012182 0 -6.84614e-05)
(0.0120984 0 -4.79813e-05)
(0.0119487 0 -3.22895e-05)
(0.0117283 0 -2.03621e-05)
(0.0114322 0 -1.13951e-05)
(0.0110547 0 -4.76083e-06)
(0.0105893 0 2.89269e-08)
(0.0100288 0 3.35217e-06)
(0.00936509 0 5.5004e-06)
(0.0085889 0 6.69739e-06)
(0.00768997 0 7.11394e-06)
(0.00665685 0 6.87982e-06)
(0.00547683 0 6.09341e-06)
(0.00413587 0 4.83015e-06)
(0.00261853 0 3.1504e-06)
(0.000907617 0 1.10783e-06)
(0.0127011 0 -0.00156548)
(0.012565 0 -0.00146483)
(0.0123608 0 -0.00130667)
(0.0121899 0 -0.00112591)
(0.0120873 0 -0.000945034)
(0.0120546 0 -0.00077714)
(0.0120785 0 -0.000628625)
(0.0121409 0 -0.000501525)
(0.012223 0 -0.000395295)
(0.0123083 0 -0.000308045)
(0.0123828 0 -0.000237328)
(0.012435 0 -0.000180601)
(0.0124551 0 -0.000135481)
(0.0124353 0 -9.98542e-05)
(0.0123686 0 -7.1914e-05)
(0.0122487 0 -5.01532e-05)
(0.0120696 0 -3.33371e-05)
(0.0118254 0 -2.04667e-05)
(0.01151 0 -1.07421e-05)
(0.0111167 0 -3.52729e-06)
(0.0106386 0 1.67971e-06)
(0.0100677 0 5.27273e-06)
(0.00939551 0 7.55895e-06)
(0.00861243 0 8.77629e-06)
(0.00770792 0 9.10775e-06)
(0.00667027 0 8.69306e-06)
(0.00548655 0 7.63844e-06)
(0.00414249 0 6.0253e-06)
(0.00262245 0 3.91866e-06)
(0.000908933 0 1.37613e-06)
(0.0148212 0 -0.00122822)
(0.014568 0 -0.0011675)
(0.0141847 0 -0.0010671)
(0.0138036 0 -0.000944349)
(0.0134833 0 -0.000813638)
(0.0132419 0 -0.000685548)
(0.0130755 0 -0.000566832)
(0.0129701 0 -0.000461072)
(0.012908 0 -0.000369562)
(0.0128714 0 -0.000292112)
(0.0128441 0 -0.000227677)
(0.0128119 0 -0.000174801)
(0.0127626 0 -0.000131902)
(0.0126857 0 -9.74415e-05)
(0.0125722 0 -7.00108e-05)
(0.0124139 0 -4.83748e-05)
(0.0122034 0 -3.14783e-05)
(0.0119335 0 -1.84386e-05)
(0.0115969 0 -8.52831e-06)
(0.0111864 0 -1.15527e-06)
(0.010694 0 4.15761e-06)
(0.0101115 0 7.79124e-06)
(0.0094298 0 1.0047e-05)
(0.00863896 0 1.11612e-05)
(0.00772813 0 1.13171e-05)
(0.00668534 0 1.06557e-05)
(0.00549742 0 9.28428e-06)
(0.00414988 0 7.285e-06)
(0.00262679 0 4.72314e-06)
(0.000910388 0 1.65619e-06)
(0.0164403 0 -0.000828557)
(0.0161266 0 -0.000809751)
(0.0156458 0 -0.000768646)
(0.0151387 0 -0.00070694)
(0.0146763 0 -0.0006314)
(0.0142881 0 -0.000549507)
(0.0139794 0 -0.0004675)
(0.0137417 0 -0.000389794)
(0.0135605 0 -0.000319072)
(0.013419 0 -0.000256638)
(0.0133011 0 -0.000202812)
(0.0131914 0 -0.000157282)
(0.0130765 0 -0.000119375)
(0.0129444 0 -8.82423e-05)
(0.0127847 0 -6.2991e-05)
(0.012588 0 -4.27577e-05)
(0.0123454 0 -2.67526e-05)
(0.0120489 0 -1.42784e-05)
(0.0116903 0 -4.73579e-06)
(0.0112614 0 2.38029e-06)
(0.0107539 0 7.48858e-06)
(0.0101589 0 1.09313e-05)
(0.00946694 0 1.29846e-05)
(0.00866768 0 1.38681e-05)
(0.00774997 0 1.37544e-05)
(0.00670158 0 1.27769e-05)
(0.0055091 0 1.10374e-05)
(0.00415777 0 8.6135e-06)
(0.00263142 0 5.56626e-06)
(0.000911929 0 1.94882e-06)
(0.0175271 0 -0.000430749)
(0.0172072 0 -0.000446885)
(0.0167044 0 -0.000456552)
(0.016151 0 -0.0004495)
(0.0156208 0 -0.000425799)
(0.0151501 0 -0.000389469)
(0.0147511 0 -0.000345439)
(0.0144217 0 -0.000298155)
(0.0141517 0 -0.000251063)
(0.0139275 0 -0.000206537)
(0.0137344 0 -0.000166014)
(0.013558 0 -0.000130203)
(0.0133846 0 -9.92968e-05)
(0.0132019 0 -7.31492e-05)
(0.0129987 0 -5.14145e-05)
(0.012765 0 -3.36468e-05)
(0.0124911 0 -1.93672e-05)
(0.0121681 0 -8.10711e-06)
(0.0117872 0 5.67598e-07)
(0.0113397 0 7.04353e-06)
(0.0108166 0 1.16553e-05)
(0.0102086 0 1.46861e-05)
(0.00950586 0 1.63701e-05)
(0.00869774 0 1.68981e-05)
(0.00777277 0 1.64214e-05)
(0.00671848 0 1.50584e-05)
(0.00552118 0 1.28992e-05)
(0.0041659 0 1.00118e-05)
(0.00263614 0 6.44859e-06)
(0.000913499 0 2.25418e-06)
(0.018125 0 -8.40585e-05)
(0.0178388 0 -0.000121698)
(0.017373 0 -0.000166865)
(0.0168393 0 -0.000201786)
(0.0163061 0 -0.000220785)
(0.0158111 0 -0.000224165)
(0.0153714 0 -0.000214886)
(0.0149904 0 -0.000196702)
(0.0146632 0 -0.000173176)
(0.0143803 0 -0.00014724)
(0.0141299 0 -0.000121081)
(0.0138995 0 -9.61805e-05)
(0.0136768 0 -7.34494e-05)
(0.0134498 0 -5.33607e-05)
(0.0132075 0 -3.60796e-05)
(0.0129396 0 -2.15683e-05)
(0.012636 0 -9.666e-06)
(0.0122876 0 -1.47054e-07)
(0.0118849 0 7.23949e-06)
(0.0114189 0 1.27441e-05)
(0.0108802 0 1.66011e-05)
(0.0102591 0 1.90199e-05)
(0.00954546 0 2.01815e-05)
(0.00872827 0 2.02371e-05)
(0.00779587 0 1.93094e-05)
(0.0067355 0 1.74947e-05)
(0.00553328 0 1.48661e-05)
(0.00417397 0 1.14776e-05)
(0.00264081 0 7.3688e-06)
(0.000915039 0 2.57185e-06)
(0.0183214 0 0.000189212)
(0.0180905 0 0.00014303)
(0.0177004 0 7.80412e-05)
(0.0172348 0 1.54818e-05)
(0.0167489 0 -3.45041e-05)
(0.0162773 0 -6.87447e-05)
(0.0158389 0 -8.80014e-05)
(0.0154419 0 -9.48851e-05)
(0.0150865 0 -9.25624e-05)
(0.0147678 0 -8.40443e-05)
(0.0144779 0 -7.18636e-05)
(0.0142073 0 -5.79738e-05)
(0.0139454 0 -4.3784e-05)
(0.0136815 0 -3.02416e-05)
(0.0134054 0 -1.79316e-05)
(0.013107 0 -7.17155e-06)
(0.0127764 0 1.90851e-06)
(0.0124042 0 9.30194e-06)
(0.0119809 0 1.50778e-05)
(0.0114971 0 1.93464e-05)
(0.0109432 0 2.22349e-05)
(0.0103092 0 2.38721e-05)
(0.00958464 0 2.4378e-05)
(0.00875841 0 2.38579e-05)
(0.00781855 0 2.23997e-05)
(0.00675211 0 2.0073e-05)
(0.00554498 0 1.69295e-05)
(0.00418169 0 1.30052e-05)
(0.00264523 0 8.32368e-06)
(0.000916489 0 2.90075e-06)
(0.0182117 0 0.000389894)
(0.0180465 0 0.000342188)
(0.017756 0 0.000268435)
(0.0173901 0 0.000190546)
(0.016986 0 0.000121214)
(0.0165715 0 6.60082e-05)
(0.016166 0 2.59739e-05)
(0.0157809 0 -2.89218e-07)
(0.0154213 0 -1.52485e-05)
(0.0150869 0 -2.16132e-05)
(0.014774 0 -2.18974e-05)
(0.014476 0 -1.82145e-05)
(0.014185 0 -1.22308e-05)
(0.013892 0 -5.18976e-06)
(0.0135879 0 2.02799e-06)
(0.0132633 0 8.83252e-06)
(0.0129089 0 1.48554e-05)
(0.0125151 0 1.98891e-05)
(0.0120728 0 2.38382e-05)
(0.0115723 0 2.66806e-05)
(0.0110039 0 2.84392e-05)
(0.0103574 0 2.91611e-05)
(0.00962234 0 2.89028e-05)
(0.00878728 0 2.77208e-05)
(0.00784013 0 2.56648e-05)
(0.00676776 0 2.27742e-05)
(0.00555586 0 1.90763e-05)
(0.00418877 0 1.45861e-05)
(0.00264923 0 9.30822e-06)
(0.000917787 0 3.23923e-06)
(0.017885 0 0.000525813)
(0.0177957 0 0.000478296)
(0.0176201 0 0.000401947)
(0.017371 0 0.000318235)
(0.0170667 0 0.000240054)
(0.0167282 0 0.000173635)
(0.0163747 0 0.000121)
(0.0160203 0 8.17514e-05)
(0.015674 0 5.42497e-05)
(0.0153397 0 3.63558e-05)
(0.0150172 0 2.5873e-05)
(0.0147034 0 2.0805e-05)
(0.0143926 0 1.94596e-05)
(0.014078 0 2.04793e-05)
(0.0137518 0 2.28238e-05)
(0.0134055 0 2.57287e-05)
(0.0130306 0 2.86551e-05)
(0.012618 0 3.124e-05)
(0.0121585 0 3.32522e-05)
(0.0116426 0 3.45553e-05)
(0.0110608 0 3.50777e-05)
(0.0104026 0 3.479e-05)
(0.00965754 0 3.36873e-05)
(0.00881405 0 3.1777e-05)
(0.00785992 0 2.90699e-05)
(0.00678189 0 2.55736e-05)
(0.00556551 0 2.12892e-05)
(0.00419491 0 1.62088e-05)
(0.00265262 0 1.03159e-05)
(0.000918872 0 3.58512e-06)
(0.0174374 0 0.000601702)
(0.0174388 0 0.00055331)
(0.0173841 0 0.000478607)
(0.0172511 0 0.000397516)
(0.0170461 0 0.000320148)
(0.0167867 0 0.000251612)
(0.0164919 0 0.000194165)
(0.0161775 0 0.00014823)
(0.0158551 0 0.000113069)
(0.0155316 0 8.72951e-05)
(0.0152099 0 6.92483e-05)
(0.0148894 0 5.72669e-05)
(0.0145669 0 4.98272e-05)
(0.0142374 0 4.56192e-05)
(0.0138947 0 4.35723e-05)
(0.0135313 0 4.28464e-05)
(0.0131395 0 4.28049e-05)
(0.0127107 0 4.29813e-05)
(0.0122362 0 4.30451e-05)
(0.0117067 0 4.27693e-05)
(0.0111125 0 4.20038e-05)
(0.0104437 0 4.06522e-05)
(0.00968927 0 3.86539e-05)
(0.00883792 0 3.59705e-05)
(0.00787728 0 3.25746e-05)
(0.006794 0 2.84424e-05)
(0.00557351 0 2.3548e-05)
(0.00419981 0 1.78598e-05)
(0.00265521 0 1.13386e-05)
(0.000919677 0 3.93577e-06)
(0.0170114 0 0.000616163)
(0.0171062 0 0.000564162)
(0.0171478 0 0.000499015)
(0.0171033 0 0.000430911)
(0.0169771 0 0.000363711)
(0.016785 0 0.000301005)
(0.0165443 0 0.000245418)
(0.0162708 0 0.00019831)
(0.0159766 0 0.000159936)
(0.01567 0 0.000129772)
(0.015356 0 0.000106816)
(0.0150359 0 8.98865e-05)
(0.0147083 0 7.77625e-05)
(0.0143698 0 6.93073e-05)
(0.0140155 0 6.35278e-05)
(0.0136392 0 5.9596e-05)
(0.0132339 0 5.68466e-05)
(0.0127918 0 5.47622e-05)
(0.0123045 0 5.29508e-05)
(0.011763 0 5.11227e-05)
(0.0111581 0 4.90683e-05)
(0.0104795 0 4.66369e-05)
(0.00971668 0 4.37209e-05)
(0.00885816 0 4.02408e-05)
(0.00789159 0 3.61345e-05)
(0.00680357 0 3.13481e-05)
(0.00557947 0 2.58297e-05)
(0.00420318 0 1.95237e-05)
(0.00265682 0 1.23676e-05)
(0.000920139 0 4.28819e-06)
(0.000918103 0 1.12141e-05)
(0.0026486 0 3.25414e-05)
(0.00418526 0 5.19942e-05)
(0.00554962 0 7.0028e-05)
(0.00676081 0 8.70459e-05)
(0.00783602 0 0.000103349)
(0.00879071 0 0.000119173)
(0.00963893 0 0.000134692)
(0.0103935 0 0.000150021)
(0.0110663 0 0.000165216)
(0.0116681 0 0.000180266)
(0.0122092 0 0.000195086)
(0.012699 0 0.000209499)
(0.0131464 0 0.000223228)
(0.0135593 0 0.000235874)
(0.0139452 0 0.000246901)
(0.0143104 0 0.000255626)
(0.0146601 0 0.000261224)
(0.0149982 0 0.000262739)
(0.0153263 0 0.00025914)
(0.0156441 0 0.000249403)
(0.0159484 0 0.000232656)
(0.016233 0 0.000208382)
(0.0164884 0 0.000176693)
(0.0167026 0 0.000138666)
(0.016862 0 9.67765e-05)
(0.0169534 0 5.54806e-05)
(0.0169679 0 2.23686e-05)
(0.0169068 0 9.85421e-06)
(0.0167902 0 3.79843e-05)
(0.000918214 0 1.1516e-05)
(0.00264931 0 3.34033e-05)
(0.0041873 0 5.33423e-05)
(0.00555394 0 7.17768e-05)
(0.00676867 0 8.90545e-05)
(0.00784856 0 0.000105494)
(0.00880908 0 0.000121309)
(0.00966423 0 0.000136654)
(0.0104268 0 0.00015162)
(0.0111084 0 0.00016623)
(0.0117199 0 0.000180445)
(0.0122711 0 0.000194145)
(0.012771 0 0.000207128)
(0.0132281 0 0.000219097)
(0.0136498 0 0.000229652)
(0.0140428 0 0.000238282)
(0.0144125 0 0.000244375)
(0.0147632 0 0.00024723)
(0.0150976 0 0.000246099)
(0.0154167 0 0.000240249)
(0.0157191 0 0.000229069)
(0.0160015 0 0.000212211)
(0.0162579 0 0.000189795)
(0.0164804 0 0.000162652)
(0.0166599 0 0.000132591)
(0.0167875 0 0.000102751)
(0.0168568 0 7.78366e-05)
(0.0168671 0 6.46385e-05)
(0.0168275 0 7.16132e-05)
(0.016758 0 0.000108686)
(0.000917719 0 1.17641e-05)
(0.00264831 0 3.41106e-05)
(0.00418683 0 5.44244e-05)
(0.00555499 0 7.31641e-05)
(0.00677232 0 9.06546e-05)
(0.00785614 0 0.000107146)
(0.00882165 0 0.000122878)
(0.00968279 0 0.000137981)
(0.0104522 0 0.000152526)
(0.0111415 0 0.000166515)
(0.011761 0 0.000179885)
(0.0123204 0 0.000192501)
(0.0128284 0 0.000204151)
(0.0132927 0 0.000214542)
(0.0137204 0 0.000223299)
(0.0141173 0 0.000229972)
(0.0144884 0 0.000234047)
(0.0148369 0 0.00023498)
(0.0151651 0 0.000232243)
(0.0154732 0 0.000225398)
(0.0157598 0 0.000214202)
(0.0160218 0 0.000198727)
(0.0162542 0 0.000179529)
(0.0164512 0 0.000157864)
(0.0166071 0 0.000135755)
(0.0167168 0 0.000116254)
(0.0167787 0 0.000103373)
(0.0167968 0 0.000101723)
(0.016781 0 0.000116553)
(0.0167464 0 0.000154528)
(0.00091652 0 1.19575e-05)
(0.00264533 0 3.46598e-05)
(0.00418331 0 5.52592e-05)
(0.00555218 0 7.41943e-05)
(0.00677128 0 9.18104e-05)
(0.00785792 0 0.000108326)
(0.0088275 0 0.000123906)
(0.00969359 0 0.000138716)
(0.0104687 0 0.000152806)
(0.0111642 0 0.000166161)
(0.0117903 0 0.000178709)
(0.0123562 0 0.000190311)
(0.0128701 0 0.00020076)
(0.0133395 0 0.000209786)
(0.0137707 0 0.000217062)
(0.0141692 0 0.000222214)
(0.0145391 0 0.000224846)
(0.0148834 0 0.000224574)
(0.0152037 0 0.00022108)
(0.0155002 0 0.000214181)
(0.0157716 0 0.000203921)
(0.0160159 0 0.000190639)
(0.0162292 0 0.00017515)
(0.0164073 0 0.000158859)
(0.0165471 0 0.000143695)
(0.0166471 0 0.00013216)
(0.0167085 0 0.000127198)
(0.016736 0 0.000131916)
(0.0167382 0 0.00014947)
(0.0167268 0 0.00018294)
(0.000914524 0 1.20961e-05)
(0.00264013 0 3.50513e-05)
(0.00417635 0 5.58454e-05)
(0.00554486 0 7.48988e-05)
(0.00676488 0 9.25364e-05)
(0.00785341 0 0.000109005)
(0.00882581 0 0.000124431)
(0.00969573 0 0.000138903)
(0.0104752 0 0.000152525)
(0.0111757 0 0.000165256)
(0.0118069 0 0.00017703)
(0.0123776 0 0.000187713)
(0.0128957 0 0.000197115)
(0.0133681 0 0.000205005)
(0.0138008 0 0.000211114)
(0.0141988 0 0.000215154)
(0.0145658 0 0.000216846)
(0.0149045 0 0.000215957)
(0.0152164 0 0.000212346)
(0.0155017 0 0.000206027)
(0.0157597 0 0.000197232)
(0.0159887 0 0.000186482)
(0.0161864 0 0.000174696)
(0.0163505 0 0.000163157)
(0.01648 0 0.000153507)
(0.0165749 0 0.00014767)
(0.0166378 0 0.00014769)
(0.0166732 0 0.000155519)
(0.0166881 0 0.000172769)
(0.0166909 0 0.000200194)
(0.00091165 0 1.21804e-05)
(0.00263245 0 3.52869e-05)
(0.0041656 0 5.61873e-05)
(0.00553256 0 7.52819e-05)
(0.00675239 0 9.28796e-05)
(0.00784193 0 0.000109208)
(0.00881609 0 0.00012443)
(0.00968843 0 0.000138595)
(0.010471 0 0.000151749)
(0.011175 0 0.00016388)
(0.01181 0 0.000174947)
(0.012384 0 0.000184822)
(0.0129045 0 0.000193342)
(0.0133783 0 0.000200323)
(0.0138109 0 0.000205557)
(0.014207 0 0.000208844)
(0.01457 0 0.000210013)
(0.0149024 0 0.000208958)
(0.0152057 0 0.000205678)
(0.0154805 0 0.000200327)
(0.0157267 0 0.000193246)
(0.0159431 0 0.000185033)
(0.0161284 0 0.000176565)
(0.0162823 0 0.000168937)
(0.0164047 0 0.000163447)
(0.0164969 0 0.000161489)
(0.0165616 0 0.000164413)
(0.016603 0 0.000173329)
(0.0166263 0 0.000188849)
(0.0166375 0 0.000210675)
(0.000907823 0 1.22112e-05)
(0.00262209 0 3.53698e-05)
(0.00415071 0 5.62908e-05)
(0.00551485 0 7.53538e-05)
(0.00673333 0 9.28516e-05)
(0.00782272 0 0.000108999)
(0.00879772 0 0.000123941)
(0.00967138 0 0.000137766)
(0.0104553 0 0.000150486)
(0.0111615 0 0.000162106)
(0.0117992 0 0.000172534)
(0.012375 0 0.000181721)
(0.0128966 0 0.00018952)
(0.0133704 0 0.000195803)
(0.0138016 0 0.000200423)
(0.0141947 0 0.00020326)
(0.0145529 0 0.000204235)
(0.0148788 0 0.000203342)
(0.0151739 0 0.000200681)
(0.0154391 0 0.000196488)
(0.0156747 0 0.000191165)
(0.0158806 0 0.000185278)
(0.0160565 0 0.000179595)
(0.0162028 0 0.000175019)
(0.0163203 0 0.00017253)
(0.0164107 0 0.000173091)
(0.0164769 0 0.000177526)
(0.0165223 0 0.000186381)