/*--------------------------------*- C++ -*----------------------------------*\
| =========                 |                                                 |
| \\      /  F ield         | OpenFOAM: The Open Source CFD Toolbox           |
|  \\    /   O peration     | Version:  dev                                   |
|   \\  /    A nd           | Web:      www.OpenFOAM.org                      |
|    \\/     M anipulation  |                                                 |
\*---------------------------------------------------------------------------*/
FoamFile
{
    version     2.0;
    format      ascii;
    class       volVectorField;
    location    "0.22";
    object      Force;
}
// * * * * * * * * * * * * * * * * * * * * * * * * * * * * * * * * * * * * * //

dimensions      [1 1 -2 0 0 0 0];

internalField   uniform (0 0 0);

boundaryField
{
    inlet
    {
        type            calculated;
        value           uniform (0 0 0);
    }
    outlet
    {
        type            calculated;
        value           uniform (0 0 0);
    }
    flap
    {
        type            calculated;
        value           nonuniform List<vector> 
33
(
(2.35556 7.73841e-19 -0.0777269)
(2.32418 -7.74979e-19 -0.11937)
(2.29936 1.6479e-17 -0.129489)
(2.27277 1.61863e-17 -0.11292)
(2.24595 -1.72192e-39 -0.0829171)
(2.21779 1.59822e-17 -0.0499014)
(2.1846 -1.03858e-22 -0.0198021)
(2.13951 4.65019e-23 -0.00105716)
(2.07593 -2.08132e-23 0.00784807)
(1.98845 2.06989e-23 0.00741642)
(1.86524 1.11921e-23 0.00300136)
(1.69746 1.63056e-17 0.00281517)
(1.45913 1.62839e-17 0.00577039)
(1.08731 1.62749e-17 0.0100616)
(0.382903 1.63387e-17 0.00973577)
(-0.00394776 -6.40013e-23 1.78052)
(-0.00577702 9.64586e-24 1.56996)
(-0.00266425 8.04052e-18 1.26152)
(1.81328 5.27836e-23 -0.0567144)
(1.8425 -5.41539e-23 -0.0942514)
(1.872 2.38639e-22 -0.105141)
(1.90736 1.66143e-17 -0.0955996)
(1.94935 6.52249e-19 -0.0723765)
(1.99845 3.3432e-19 -0.0441758)
(2.05127 1.66625e-17 -0.0190877)
(2.10335 1.34147e-23 -0.000427584)
(2.14849 1.74177e-23 0.00791275)
(2.18553 -1.7222e-23 0.0065953)
(2.20966 -1.63143e-17 0.00337563)
(2.21673 -4.68488e-20 -0.000872096)
(2.2016 1.63836e-17 0.00306176)
(2.1584 1.09429e-23 0.0095208)
(2.08968 8.83756e-20 0.0102385)
)
;
    }
    upperWall
    {
        type            calculated;
        value           uniform (0 0 0);
    }
    lowerWall
    {
        type            calculated;
        value           uniform (0 0 0);
    }
    frontAndBack
    {
        type            empty;
    }
}


// ************************************************************************* //
