/*--------------------------------*- C++ -*----------------------------------*\
| =========                 |                                                 |
| \\      /  F ield         | OpenFOAM: The Open Source CFD Toolbox           |
|  \\    /   O peration     | Version:  dev                                   |
|   \\  /    A nd           | Web:      www.OpenFOAM.org                      |
|    \\/     M anipulation  |                                                 |
\*---------------------------------------------------------------------------*/
FoamFile
{
    version     2.0;
    format      ascii;
    class       volScalarField;
    location    "0.22";
    object      p;
}
// * * * * * * * * * * * * * * * * * * * * * * * * * * * * * * * * * * * * * //

dimensions      [0 2 -2 0 0 0 0];

internalField   nonuniform List<scalar> 
2790
(
68.1592
68.0429
68.26
68.7905
69.5355
70.4507
71.5316
72.7801
74.1941
75.7691
77.4999
79.3807
81.4035
83.5583
85.8316
88.2065
90.6621
93.1729
95.7091
98.2364
100.716
103.107
105.363
107.441
109.299
110.899
112.213
113.223
113.924
114.323
67.9705
67.9529
68.1941
68.723
69.4648
70.377
71.4536
72.6963
74.1033
75.6703
77.3925
79.264
81.2773
83.4227
85.6873
88.0545
90.5042
93.0118
95.5481
98.0798
100.569
102.974
105.251
107.356
109.244
110.88
112.23
113.277
114.01
114.462
67.7782
67.8313
68.0918
68.6113
69.3407
70.2406
71.3029
72.5283
73.9152
75.4594
77.1562
78.9999
80.9834
83.0973
85.3295
87.6644
90.0831
92.5623
95.0747
97.5887
100.069
102.475
104.766
106.897
108.827
110.516
111.93
113.044
113.838
114.359
67.5641
67.6499
67.9228
68.4335
69.1486
70.0326
71.0759
72.2783
73.6381
75.1511
76.8125
78.6167
80.5568
82.6238
84.8062
87.0896
89.4561
91.8845
94.3496
96.8225
99.2704
101.657
103.944
106.089
108.05
109.788
111.263
112.445
113.297
113.881
67.3182
67.4188
67.7
68.2033
68.9024
69.7661
70.7847
71.9573
73.2817
74.7541
76.3693
78.1218
80.0048
82.0096
84.1251
86.3381
88.6319
90.9871
93.3812
95.7881
98.1787
100.521
102.779
104.915
106.889
108.66
110.187
111.43
112.341
113.003
67.0358
67.1426
67.4263
67.92
68.5997
69.4383
70.4264
71.5625
72.8442
74.2673
75.8266
77.5165
79.3299
81.2583
83.2913
85.4159
87.617
89.8769
92.1752
94.4892
96.7933
99.0595
101.257
103.353
105.31
107.089
108.647
109.941
110.914
111.683
66.7153
66.8232
67.1042
67.5852
68.2428
69.0521
70.0045
71.0981
72.33
73.6957
75.1898
76.8063
78.5379
80.3762
82.3107
84.3292
86.4172
88.5586
90.735
92.9263
95.1108
97.2645
99.3619
101.375
103.273
105.02
106.577
107.902
108.926
109.825
66.3561
66.4623
66.7363
67.2014
67.8338
68.6099
69.5217
70.567
71.7424
73.043
74.4629
75.9957
77.6339
79.3686
81.1893
83.0837
85.0381
87.0369
89.0633
91.0994
93.1262
95.1238
97.0716
98.9477
100.729
102.387
103.891
105.204
106.246
107.267
65.9589
66.0611
66.3249
66.7711
67.3752
68.1144
68.9811
69.9727
71.0854
72.3135
73.6509
75.0905
76.6241
78.2423
79.9341
81.6869
83.4868
85.3183
87.1652
89.0104
90.8367
92.6269
94.3645
96.0334
97.6187
99.1048
100.473
101.702
102.702
103.81
65.5245
65.6215
65.8723
66.2967
66.8697
67.5685
68.3859
69.319
70.3631
71.5123
72.7595
74.097
75.5157
77.0054
78.5541
80.1484
81.7733
83.4127
85.0495
86.6661
88.2449
89.7692
91.2238
92.5967
93.8804
95.0728
96.1752
97.1986
98.0566
99.1921
65.0544
65.1451
65.3809
65.781
66.3201
66.9755
67.7399
68.61
69.5806
70.6449
71.795
73.0224
74.3169
75.6671
77.0597
78.4796
79.9104
81.3337
82.7303
84.0798
85.3616
86.5555
87.6435
88.6118
89.4549
90.1811
90.8165
91.4249
91.9659
93.048
64.5506
64.6341
64.8531
65.2267
65.7295
66.3388
67.047
67.8502
68.7428
69.717
70.7643
71.8747
73.037
74.2381
75.463
76.6947
77.9139
79.0993
80.2274
81.273
82.2086
83.0059
83.6362
84.074
84.3021
84.3241
84.1802
84.0022
83.8715
84.7657
64.0149
64.0906
64.2914
64.6367
65.1012
65.662
66.3112
67.0444
67.8552
68.7352
69.6746
70.6624
71.6858
72.73
73.7778
74.8096
75.8028
76.7318
77.5674
78.2766
78.8218
79.1599
79.2423
79.0159
78.4271
77.436
76.0454
74.4108
72.7839
72.959
63.4496
63.517
63.6986
64.0141
64.4386
64.9489
65.5368
66.1974
66.9236
67.706
68.5338
69.3946
70.2741
71.1555
72.0193
72.8427
73.5992
74.2581
74.7831
75.1316
75.2519
75.0808
74.5393
73.5276
71.92
69.5641
66.2931
62.0551
56.9917
54.3234
62.857
62.9158
63.0774
63.3619
63.7449
64.2033
64.7282
65.3143
65.9537
66.6362
67.3497
68.0806
68.8129
69.5278
70.2032
70.8131
71.3268
71.7078
71.9124
71.8868
71.5636
70.8555
69.6459
67.7732
65.0045
60.9909
55.1802
46.725
34.0011
19.0869
-92.6331
-93.3832
-94.7238
-96.7435
-99.4637
-102.844
-106.755
-110.949
-115.05
-118.55
-120.842
-121.282
-119.286
-114.46
-106.708
-96.3322
-84.0155
-70.6886
-57.3407
-44.8298
-33.7488
-24.3886
-16.4449
-9.68249
-4.50657
-0.973338
1.20179
2.25965
2.38162
1.71109
-92.644
-93.4574
-94.841
-96.9213
-99.7267
-103.223
-107.281
-111.652
-115.947
-119.645
-122.118
-122.701
-120.797
-116.009
-108.248
-97.8188
-85.4114
-71.9605
-58.4609
-45.7823
-34.5357
-25.0315
-16.9368
-10.0502
-4.81565
-1.22574
1.00109
2.10582
2.27266
1.69179
-93.1428
-94.0837
-95.5721
-97.7792
-100.738
-104.423
-108.711
-113.348
-117.936
-121.932
-124.68
-125.482
-123.711
-118.945
-111.086
-100.462
-87.7939
-74.0465
-60.239
-47.2639
-35.7514
-26.0125
-17.6696
-10.5804
-5.24088
-1.56215
0.740477
1.91265
2.1444
1.67337
-94.3025
-95.3415
-96.9317
-99.2956
-102.464
-106.421
-111.045
-116.08
-121.107
-125.552
-128.715
-129.849
-128.278
-123.531
-115.49
-104.518
-91.396
-77.145
-62.831
-49.3843
-37.4593
-27.3496
-18.6387
-11.2865
-5.80854
-2.01358
0.388086
1.64981
1.96906
1.62883
-96.15
-97.2182
-98.8908
-101.431
-104.859
-109.169
-114.24
-119.804
-125.419
-130.465
-134.182
-135.757
-134.447
-129.706
-121.387
-109.916
-96.1577
-81.2096
-66.2052
-52.125
-39.6485
-29.0185
-19.8118
-12.1649
-6.51151
-2.57028
-0.0452821
1.32798
1.75621
1.56387
-98.5954
-99.6288
-101.378
-104.119
-107.86
-112.606
-118.236
-124.467
-130.824
-136.632
-141.05
-143.173
-142.173
-137.402
-128.69
-116.562
-101.986
-86.1575
-70.2941
-55.4344
-42.2795
-30.9483
-21.1517
-13.2164
-7.34326
-3.2268
-0.556116
0.948698
1.50553
1.47514
-101.421
-102.392
-104.237
-107.213
-111.322
-116.585
-122.879
-129.908
-137.157
-143.882
-149.143
-151.911
-151.25
-146.398
-137.171
-124.238
-108.689
-91.8295
-74.9724
-59.2133
-45.2374
-33.0603
-22.6547
-14.4114
-8.28895
-3.97327
-1.13725
0.516933
1.22019
1.36267
-104.319
-105.247
-107.226
-110.477
-115.007
-120.858
-127.909
-135.848
-144.119
-151.9
-158.136
-161.634
-161.319
-156.319
-146.463
-132.611
-115.982
-97.9913
-80.0576
-63.3122
-48.3634
-35.2649
-24.3029
-15.7219
-9.32854
-4.79639
-1.77956
0.038726
0.903723
1.22664
-106.945
-107.887
-110.045
-113.606
-118.597
-125.086
-132.957
-141.887
-151.279
-160.23
-167.548
-171.845
-171.846
-166.62
-156.051
-141.228
-123.496
-104.347
-85.313
-67.5165
-51.4729
-37.5119
-26.0594
-17.1136
-10.4373
-5.67942
-2.47166
-0.478397
0.560582
1.06817
-108.998
-110.007
-112.37
-116.259
-121.727
-128.871
-137.581
-147.529
-158.086
-168.267
-176.73
-181.869
-182.129
-176.604
-165.305
-149.555
-130.81
-110.576
-90.4607
-71.5319
-54.4368
-39.7924
-27.8493
-18.5409
-11.5857
-6.60249
-3.20015
-1.02558
0.196
0.889116
-110.257
-111.336
-113.898
-118.105
-124.03
-131.796
-141.302
-152.218
-163.896
-175.286
-184.879
-190.825
-191.31
-185.511
-173.595
-157.069
-137.472
-116.332
-95.1258
-75.1447
-57.2267
-41.975
-29.5901
-19.9526
-12.7403
-7.54321
-3.94988
-1.59275
-0.184083
0.692189
-110.51
-111.643
-114.387
-118.879
-125.197
-133.489
-143.664
-155.394
-168.022
-180.456
-191.036
-197.679
-198.414
-192.478
-180.334
-163.304
-143.009
-121.079
-99.0046
-78.2043
-59.655
-43.9326
-31.1995
-21.2956
-13.8658
-8.47758
-4.70437
-2.16881
-0.572998
0.480963
-109.621
-110.768
-113.684
-118.432
-125.08
-133.786
-144.457
-156.764
-170.054
-183.238
-194.586
-201.782
-202.78
-196.823
-184.692
-167.505
-146.835
-124.376
-101.77
-80.488
-61.5601
-45.553
-32.6022
-22.5193
-14.9277
-9.38156
-5.44668
-2.74202
-0.96349
0.259921
-107.487
-108.674
-111.789
-116.766
-123.697
-132.72
-143.714
-156.338
-169.957
-183.506
-195.22
-202.671
-203.795
-197.969
-186.032
-169.061
-148.462
-125.94
-103.227
-81.8332
-62.8198
-46.7484
-33.7368
-23.5811
-15.896
-10.2336
-6.16139
-3.30165
-1.34893
0.0336399
-104.254
-105.602
-108.922
-114.047
-121.223
-130.484
-141.63
-154.31
-167.897
-181.33
-192.848
-200.119
-201.254
-195.764
-184.365
-167.963
-147.837
-125.684
-103.28
-82.1507
-63.3608
-47.462
-34.5608
-24.4493
-16.7472
-11.0163
-6.83597
-3.83925
-1.7246
-0.194495
62.2278
62.2776
62.4181
62.6702
63.01
63.4144
63.8741
64.3831
64.9328
65.5121
66.1079
66.7051
67.2861
67.8301
68.3123
68.7036
68.9689
69.0662
68.944
68.5376
67.7639
66.5117
64.6266
61.8833
57.9332
52.1959
43.5927
29.8386
3.54303
-69.3778
61.5549
61.5952
61.7136
61.9316
62.2264
62.5745
62.9663
63.3953
63.8522
64.3249
64.7992
65.2589
65.6847
66.0537
66.3389
66.508
66.5221
66.3341
65.8857
65.1031
63.8906
62.119
59.6075
56.0909
51.1587
44.1328
33.8021
18.0935
-4.66629
-37.4363
60.8434
60.8739
60.9694
61.1523
61.4005
61.6908
62.013
62.3601
62.7222
63.0863
63.4374
63.7579
64.0272
64.2207
64.3092
64.2579
64.0249
63.5592
62.7977
61.6613
60.0473
57.8198
54.7934
50.7084
45.1948
37.7338
27.6532
14.2458
-1.78654
-19.9706
60.0948
60.1153
60.1873
60.3342
60.5349
60.7663
61.0179
61.282
61.5483
61.8032
62.0307
62.2124
62.3262
62.3465
62.2424
61.9774
61.5076
60.7799
59.7295
58.2756
56.3166
53.7216
50.3215
45.8971
40.1716
32.8193
23.5138
11.9031
-2.09476
-18.9184
59.3109
59.3212
59.3694
59.4799
59.6325
59.8044
59.9849
60.1659
60.3365
60.4827
60.5879
60.6328
60.5948
60.4471
60.1582
59.6906
58.9999
58.0331
56.7262
55.0015
52.7639
49.8967
46.2568
41.6723
35.943
28.8476
20.1606
9.60765
-3.03572
-17.549
58.4939
58.494
58.5183
58.5921
58.6965
58.809
58.9186
59.0171
59.0932
59.1325
59.1182
59.0304
58.8462
58.5385
58.0757
57.4206
56.5297
55.3517
53.8262
51.8817
49.434
46.3839
42.616
37.9993
32.39
25.6366
17.5964
8.14616
-2.75261
-14.6703
57.6465
57.6365
57.637
57.6742
57.7307
57.7844
57.8241
57.8415
57.8253
57.7609
57.6312
57.4165
57.0938
56.6366
56.0137
55.1894
54.122
52.7639
51.0601
48.9477
46.3548
43.2008
39.3966
34.847
29.455
23.13
15.8035
7.44777
-1.91582
-11.9562
56.7717
56.7517
56.7287
56.73
56.7394
56.7354
56.707
56.6457
56.5402
56.3763
56.1369
55.8027
55.3512
54.7568
53.9898
53.0165
51.7986
50.2929
48.4513
46.2201
43.5408
40.3507
36.5842
32.1763
27.0673
21.2099
14.5792
7.18268
-0.948192
-9.54973
55.8731
55.8434
55.7975
55.7636
55.7272
55.6673
55.573
55.4361
55.2456
54.9875
54.6453
54.2003
53.6312
52.9135
52.0198
50.9191
49.5772
47.9562
46.0152
43.7103
40.9957
37.8247
34.1517
29.9356
25.1433
19.755
13.7699
7.21244
0.124128
-7.27428
54.9547
54.9156
54.8476
54.7797
54.6991
54.5856
54.4284
54.2199
53.9493
53.6033
53.1661
52.6202
51.9455
51.1196
50.1174
48.9113
47.4714
45.7658
43.7607
41.4217
38.7142
35.6054
32.0657
28.0718
23.609
18.6754
13.2845
7.46975
1.27745
-5.11362
54.0206
53.9727
53.8835
53.7832
53.6605
53.496
53.2796
53.0039
52.6589
52.2321
51.7087
51.0725
50.3051
49.3863
48.2939
47.0039
45.491
43.729
41.6911
39.3512
36.6847
33.6701
30.2903
26.5346
22.4011
17.8987
13.0491
7.88832
2.46161
-3.0886
53.0758
53.0194
52.9103
52.7793
52.6169
52.4047
52.1331
51.7953
51.3822
50.8822
50.2819
49.5664
48.7195
47.7232
46.5584
45.2049
43.6419
41.8486
39.8045
37.491
34.8916
31.9938
28.7896
25.2775
21.4637
17.3633
13.0012
8.41294
3.64016
-1.20374
52.1251
52.0609
51.9331
51.7735
51.5741
51.3177
50.9954
50.6011
50.1265
49.5614
48.8936
48.1101
47.1967
46.1379
44.9177
43.5195
41.9269
40.1239
38.0958
35.8299
33.3167
30.5501
27.5291
24.258
20.748
17.0172
13.0912
9.00309
4.79007
0.542385
51.174
51.1026
50.9576
50.7716
50.5382
50.2415
49.8731
49.428
48.899
48.2769
47.5513
46.7108
45.7434
44.6362
43.3762
41.9503
40.3459
38.5514
36.5568
34.3547
31.9405
29.3133
26.4764
23.4383
20.2126
16.8184
13.2803
9.62838
5.89511
2.15226
50.228
50.1502
49.9895
49.7794
49.5153
49.1821
48.7727
48.2827
47.7062
47.0353
46.2613
45.3745
44.365
43.2225
41.9368
40.4979
38.8967
37.1253
35.1779
33.0509
30.7435
28.2584
25.6022
22.7852
19.8222
16.7321
13.5377
10.2657
6.94397
3.62975
49.2931
49.2095
49.0348
48.8031
48.5114
48.1459
47.7004
47.1715
46.5544
45.8427
45.0292
44.106
43.0655
41.8995
40.6003
39.161
37.5753
35.8386
33.9481
31.9034
29.7065
27.3626
24.8798
22.2697
19.5472
16.7301
13.8392
10.8976
7.92931
4.97986
48.3754
48.2866
48.0996
47.8488
47.5327
47.1391
46.6624
46.1004
45.4494
44.7044
43.8598
42.9095
41.8477
40.6685
39.3665
37.937
36.3766
34.683
32.8561
30.8976
28.8115
26.6046
24.2859
21.8673
19.3631
16.7898
14.1659
11.5114
8.8467
6.20825
47.481
47.3878
47.1901
46.9226
46.5855
46.1676
45.6645
45.0749
44.3963
43.6252
42.7572
41.7881
40.7136
39.53
38.2338
36.8225
35.2946
33.6501
31.8905
30.0192
28.0417
25.9654
23.8
21.5568
19.2494
16.8927
14.5031
12.0977
9.6939
7.3209
46.6163
46.5194
46.3126
46.0308
45.6757
45.2374
44.7124
44.1005
43.4002
42.6092
41.7247
40.7439
39.6643
38.4835
37.2001
35.8132
34.323
32.731
31.0401
29.255
27.3818
25.4285
23.4043
21.3205
19.1893
17.0242
14.8395
12.6499
10.4702
8.32394
45.7878
45.6879
45.4734
45.1796
44.8094
44.3543
43.8116
43.182
42.4652
41.6601
40.7651
39.7789
38.7001
37.5281
36.2627
34.9046
33.4552
31.9173
30.2948
28.5929
26.8183
24.9789
23.0839
21.1435
19.1691
17.1726
15.1666
13.1636
11.1762
9.22346
45.0022
44.8998
44.679
44.3751
43.9926
43.5238
42.9673
42.3243
41.5957
40.7813
39.8809
38.8941
37.8211
36.6623
35.4187
34.0921
32.685
31.201
29.6447
28.0217
26.3389
24.604
22.8257
21.0135
19.1777
17.3289
15.4779
13.6358
11.8131
10.0253
44.2661
44.1618
43.9357
43.6237
43.2311
42.7517
42.1845
41.5318
40.7953
39.9758
39.074
38.0908
37.0271
35.8845
34.665
33.3711
32.0064
30.5747
29.0813
27.5319
25.9333
24.293
22.6191
20.9205
19.2062
17.4859
15.7689
14.0648
12.3826
10.735
43.5864
43.4804
43.2502
42.9315
42.5309
42.0432
41.4682
40.8089
40.0677
39.2463
38.3464
37.3695
36.3176
35.193
33.9986
32.7375
31.4137
30.0317
28.5967
27.1147
25.5922
24.0364
22.455
20.8558
19.2473
17.6378
16.0358
14.4494
12.8865
11.3575
42.9701
42.8628
42.629
42.3047
41.8977
41.4037
40.8233
40.1598
39.4165
38.5957
37.6999
36.7313
35.6926
34.5869
33.4174
32.1879
30.9027
29.5666
28.1848
26.7634
25.3086
23.8272
22.3263
20.8133
19.2957
17.781
16.2766
14.7898
13.3274
11.898
42.4244
42.3158
42.0787
41.7495
41.3373
40.8386
40.2544
39.5886
38.8448
38.0263
37.1359
36.1765
35.1515
34.0642
32.9184
31.7183
30.4684
29.1736
27.8392
26.471
25.0752
23.6581
22.2263
20.7866
19.3459
17.9109
16.4883
15.0846
13.7056
12.3586
41.9572
41.8469
41.606
41.2721
40.8556
40.3536
39.7672
39.1005
38.3577
37.5425
36.6583
35.7083
34.6964
33.6264
32.5022
31.3284
30.1097
28.8509
27.5574
26.2347
24.8889
23.526
22.1521
20.7735
19.3965
18.0273
16.672
15.3362
14.0255
12.7459
41.577
41.4639
41.2174
40.878
40.4573
39.9524
39.3641
38.697
37.9556
37.1439
36.2656
35.3245
34.3245
33.2696
32.1644
31.0131
29.8207
28.5921
27.3325
26.0474
24.7425
23.4235
22.0963
20.7668
19.4407
18.1238
16.8217
15.5396
14.2825
13.0554
41.2946
41.1747
40.9205
40.5766
40.1535
39.6468
39.0574
38.3902
37.6503
36.8417
35.9686
35.0347
34.0444
33.0019
31.9117
30.7784
29.6069
28.402
27.169
25.9132
24.64
23.355
22.0637
20.7716
19.4844
18.2073
16.9456
15.7041
14.4876
13.3006
41.1259
40.9798
40.7088
40.3601
39.936
39.4284
38.8387
38.1721
37.434
36.6286
35.7598
34.8318
33.8489
32.8156
31.7364
30.616
29.4591
28.2708
27.0561
25.8203
24.5687
23.3067
22.0396
20.7728
19.5115
18.2609
17.026
15.8114
14.6215
13.4603
41.112
40.9137
40.6179
40.262
39.8347
39.3244
38.7326
38.0652
37.3273
36.5231
35.6565
34.7318
33.7533
32.7255
31.653
30.5404
29.3925
28.2143
27.0107
25.7869
24.548
23.2994
22.0461
20.7934
19.5465
18.3103
17.0897
15.8892
14.7131
13.565
-177.113
-156.056
-125.482
-60.274
-66.0531
-72.2324
-39.3567
-52.3217
-62.8322
-37.5321
-49.3992
-58.1854
-31.9648
-41.4939
-49.2273
-26.253
-34.2597
-41.1216
-21.7527
-28.5826
-34.4771
-17.8814
-23.6747
-28.656
-14.3643
-19.285
-23.4951
-11.1784
-15.3795
-18.9551
-8.30456
-11.9091
-14.9633
-5.71186
-8.81994
-11.4453
-3.37372
-6.06775
-8.33933
-1.26745
-3.61521
-5.59336
0.627424
-1.42989
-3.16348
2.32934
0.516248
-1.01267
3.8548
2.24747
0.890416
5.21866
3.78494
2.5726
6.43428
5.14718
4.05691
7.51371
6.35043
5.36324
8.46762
7.40885
6.50868
9.30573
8.33496
7.50813
10.036
9.139
8.37377
10.6664
9.83094
9.11701
11.201
10.4162
9.74468
11.6487
10.9048
10.2674
12.0047
11.293
10.6829
12.2862
11.5983
11.0076
12.4686
11.7974
11.2211
12.5904
11.9305
11.3606
-99.3787
-102.304
-105.74
-110.696
-118.036
-127.424
-138.516
-150.955
-164.12
-176.955
-187.803
-194.608
-195.728
-190.681
-179.992
-164.38
-145.031
-123.619
-101.911
-81.4106
-63.1534
-47.6688
-35.0545
-25.1094
-17.4704
-11.7222
-7.46543
-4.3516
-2.08851
-0.422106
-84.943
-94.7504
-100.406
-106.724
-114.655
-124.065
-134.818
-146.656
-158.997
-170.835
-180.7
-186.877
-187.91
-183.246
-173.222
-158.452
-140.077
-119.718
-99.0713
-79.5572
-62.1439
-47.3207
-35.1767
-25.5267
-18.0379
-12.3293
-8.03323
-4.82662
-2.4327
-0.642317
-77.4332
-89.4962
-96.4147
-103.233
-111.389
-120.714
-130.982
-141.973
-153.197
-163.776
-172.473
-177.85
-178.59
-174.013
-164.419
-150.428
-133.16
-114.125
-94.867
-76.6627
-60.3733
-46.434
-34.9261
-25.6896
-18.4334
-12.8209
-8.52455
-5.25291
-2.74979
-0.849978
-69.9343
-82.1934
-91.3121
-99.527
-108.013
-117.068
-126.723
-136.803
-146.851
-156.106
-163.576
-167.856
-167.805
-162.971
-153.634
-140.455
-124.485
-107.053
-89.4841
-72.8656
-57.9314
-45.0573
-34.322
-25.5991
-18.6481
-13.1848
-8.92753
-5.62064
-3.03265
-1.03981
-59.9209
-72.0206
-82.8792
-92.7951
-102.195
-111.444
-120.743
-130.038
-138.977
-146.91
-152.965
-155.91
-154.842
-149.71
-140.812
-128.73
-114.368
-98.8306
-83.2027
-68.3743
-54.9555
-43.2705
-33.4036
-25.2691
-18.6821
-13.4148
-9.23411
-5.92253
-3.27581
-1.20792
-50.4054
-61.4307
-72.6361
-83.3121
-93.2542
-102.674
-111.732
-120.374
-128.296
-134.942
-139.52
-141.17
-139.441
-134.462
-126.444
-115.836
-103.373
-89.9373
-76.3906
-63.4477
-51.6133
-41.173
-32.2236
-24.7229
-18.5422
-13.5095
-9.43974
-6.1536
-3.47513
-1.3515
-42.1771
-51.6499
-62.1428
-72.5509
-82.2959
-91.4153
-99.9793
-107.878
-114.816
-120.318
-123.735
-124.591
-122.787
-118.418
-111.6
-102.676
-92.2209
-80.9182
-69.4385
-58.3509
-48.0747
-38.8669
-30.8389
-23.9892
-18.2406
-13.4721
-9.54343
-6.31142
-3.62811
-1.46897
-35.0045
-42.9592
-52.2542
-61.757
-70.7435
-79.129
-86.9108
-93.9453
-99.955
-104.559
-107.289
-107.895
-106.403
-102.852
-97.3219
-90.0721
-81.536
-72.2294
-62.6674
-53.3016
-44.482
-36.4417
-29.3032
-23.0985
-17.793
-13.3097
-9.5475
-6.39604
-3.73386
-1.55986
-28.7775
-35.4322
-43.4277
-51.7649
-59.7208
-67.1489
-74.0076
-80.1507
-85.3394
-89.2841
-91.6731
-92.3442
-91.3109
-88.5998
-84.2781
-78.5409
-71.705
-64.1539
-56.2809
-48.4443
-40.9361
-33.9662
-27.6624
-22.08
-17.2173
-13.0323
-9.45716
-6.40972
-3.79302
-1.62462
-23.4008
-28.9944
-35.7895
-42.9568
-49.843
-56.2844
-62.2266
-67.5404
-72.0324
-75.488
-77.7012
-78.5395
-77.9709
-76.0157
-72.7377
-68.2819
-62.8773
-56.8074
-50.3721
-43.8551
-37.4989
-31.49
-25.9544
-20.9614
-16.5326
-12.6526
-9.27989
-6.3566
-3.80749
-1.66441
-18.7445
-23.4861
-29.2552
-35.3762
-41.2852
-46.8257
-51.9448
-56.5365
-60.4485
-63.5208
-65.6114
-66.6038
-66.4337
-65.1097
-62.6882
-59.2776
-55.0433
-50.1945
-44.9599
-39.5635
-34.2052
-29.0478
-24.2104
-19.7685
-15.7585
-12.1842
-9.02489
-6.24231
-3.78024
-1.68091
-14.6916
-18.7492
-23.6709
-28.9056
-33.976
-38.7428
-43.1603
-47.1441
-50.575
-53.3307
-55.3068
-56.4028
-56.5433
-55.7227
-53.9849
-51.4108
-48.1202
-44.2675
-40.0269
-35.5745
-31.0741
-26.6653
-22.4569
-18.5251
-14.9144
-11.642
-8.70254
-6.07357
-3.71505
-1.67619
-11.1498
-14.6541
-18.8824
-23.3825
-27.7524
-31.872
-35.7041
-39.1823
-42.2124
-44.6986
-46.5592
-47.7103
-48.0794
-47.6493
-46.4496
-44.5395
-42.0058
-38.9626
-35.542
-31.8824
-28.1164
-24.3622
-20.7168
-17.2532
-14.0194
-11.0411
-8.32389
-5.85785
-3.61632
-1.6526
-8.04518
-11.0973
-14.7579
-18.6525
-22.4422
-26.025
-29.3716
-32.4296
-35.1237
-37.3773
-39.1241
-40.2953
-40.8267
-40.6943
-39.9149
-38.5301
-36.6027
-34.2167
-31.4721
-28.4768
-25.3378
-22.1539
-19.0097
-15.9727
-13.0915
-10.3962
-7.90025
-5.60303
-3.48883
-1.61267
-5.31777
-7.99711
-11.1906
-14.5856
-17.8952
-21.033
-23.9764
-26.684
-29.0952
-31.1472
-32.7855
-33.9536
-34.5973
-34.6893
-34.2365
-33.2668
-31.825
-29.9725
-27.7849
-25.3458
-22.741
-20.0521
-17.352
-14.7015
-12.1472
-9.72153
-7.44278
-5.31713
-3.3376
-1.55905
-2.91856
-5.2882
-8.0953
-11.0767
-13.9881
-16.7563
-19.3639
-21.7781
-23.9496
-25.8267
-27.3638
-28.5148
-29.2339
-29.4937
-29.2937
-28.6516
-27.5987
-26.1795
-24.4507
-22.4769
-20.3263
-18.0658
-15.7575
-13.4549
-11.2018
-9.0305
-6.96227
-5.0081
-3.16769
-1.49441
-0.807013
-2.91775
-5.40363
-8.04137
-10.6214
-13.0815
-15.4083
-17.576
-19.5439
-21.2691
-22.713
-23.8387
-24.607
-24.9907
-24.9857
-24.6019
-23.8604
-22.793
-21.4421
-19.8571
-18.092
-16.2014
-14.2373
-12.2465
-10.2687
-8.33532
-6.46891
-4.68359
-2.98412
-1.42137
1.05082
-0.842387
-3.06008
-5.41118
-7.71462
-9.91712
-12.0086
-13.9683
-15.7627
-17.3558
-18.7145
-19.8104
-20.6095
-21.084
-21.2285
-21.048
-20.5557
-19.7741
-18.7342
-17.4738
-16.0354
-14.4631
-12.8003
-11.0873
-9.35977
-7.6471
-5.97212
-4.35085
-2.79171
-1.34243
2.68357
0.973824
-1.01919
-3.13051
-5.20243
-7.18895
-9.08246
-10.8665
-12.513
-13.9917
-15.2743
-16.3369
-17.1512
-17.6922
-17.9517
-17.931
-17.6382
-17.0885
-16.3044
-15.3148
-14.1527
-12.8537
-11.4536
-9.98698
-8.48529
-6.97572
-5.4805
-4.01663
-2.59504
-1.25997
4.11556
2.56093
0.756576
-1.15373
-3.03146
-4.83653
-6.56332
-8.19861
-9.7189
-11.0983
-12.3129
-13.3416
-14.161
-14.7493
-15.0966
-15.2015
-15.0681
-14.7065
-14.1327
-13.3685
-12.4396
-11.3744
-10.2025
-8.95321
-7.6541
-6.32991
-5.00183
-3.68711
-2.39837
-1.17617
5.36744
3.94406
2.2983
0.556657
-1.15804
-2.81055
-4.39678
-5.90608
-7.31858
-8.61211
-9.76596
-10.7617
-11.5796
-12.2008
-12.6147
-12.8179
-12.8117
-12.6023
-12.2011
-11.6242
-10.8915
-10.0257
-9.05106
-7.99241
-6.87372
-5.71729
-4.54301
-3.36792
-2.20563
-1.09303
6.45686
5.14446
3.63194
2.03173
0.453812
-1.07051
-2.53833
-3.94103
-5.26164
-6.48097
-7.581
-8.54546
-9.35763
-10.0012
-10.4652
-10.7451
-10.8401
-10.7538
-10.4939
-10.0721
-9.50391
-8.80736
-8.00238
-7.10982
-6.15054
-5.1445
-4.11018
-3.06412
-2.02037
-1.01237
7.39837
6.17949
4.77857
3.29662
1.83314
0.416211
-0.952155
-2.26495
-3.50754
-4.66315
-5.71593
-6.65149
-7.45541
-8.11341
-8.61489
-8.95425
-9.12961
-9.14238
-8.99758
-8.70381
-8.27284
-7.71908
-7.05888
-6.30985
-5.49006
-4.61737
-3.70882
-2.78026
-1.84588
-0.935821
8.20497
7.06433
5.75635
4.3727
3.00437
1.67687
0.391507
-0.845984
-2.02282
-3.12418
-4.13601
-5.04543
-5.83987
-6.50675
-7.03588
-7.42124
-7.65999
-7.75213
-7.7007
-7.51181
-7.19449
-6.76023
-6.2225
-5.5962
-4.89704
-4.14101
-3.34379
-2.52046
-1.68509
-0.864853
8.88533
7.80948
6.57803
5.27523
3.98519
2.73137
1.51454
0.339439
-0.782626
-1.83839
-2.81525
-3.70159
-4.48625
-5.15803
-5.70727
-6.12777
-6.41607
-6.57116
-6.59461
-6.49073
-6.2664
-5.93086
-5.49528
-4.97235
-4.37582
-3.72004
-3.01947
-2.28841
-1.54067
-0.800736
9.45022
8.42687
7.25735
6.01982
4.79296
3.59867
2.43731
1.31285
0.235426
-0.782922
-1.73072
-2.59737
-3.37283
-4.04698
-4.61073
-5.05788
-5.38457
-5.58906
-5.67187
-5.63595
-5.48659
-5.23126
-4.87934
-4.44176
-3.93067
-3.35903
-2.74025
-2.08788
-1.4154
-0.744903
9.89999
8.91808
7.79709
6.61072
5.43347
4.28598
3.16831
2.08385
1.04184
0.0533919
-0.870907
-1.72124
-2.48836
-3.16302
-3.7367
-4.20328
-4.55864
-4.80059
-4.9289
-4.94556
-4.85468
-4.66241
-4.37677
-4.00732
-3.56491
-3.06138
-2.50924
-1.92135
-1.31087
-0.697873
10.2483
9.29678
8.2117
7.06307
5.92232
4.80927
3.72375
2.66876
1.65288
0.686537
-0.220312
-1.05844
-1.81913
-2.49388
-3.07484
-3.55584
-3.93256
-4.2024
-4.36469
-4.42069
-4.37369
-4.22892
-3.99338
-3.67562
-3.28553
-2.83407
-2.33298
-1.79458
-1.23162
-0.662231
10.48
9.5485
8.48736
7.36443
6.24854
5.15884
4.09515
3.06023
2.06225
1.11118
0.216602
-0.612504
-1.36749
-2.04052
-2.62468
-3.114
-3.504
-3.79186
-3.97653
-4.05883
-4.04145
-3.92897
-3.7277
-3.44548
-3.0915
-2.67606
-2.21032
-1.70607
-1.17565
-0.635607
10.6228
9.69568
8.64556
7.53546
6.4315
5.35263
4.29895
3.27319
2.28329
1.33893
0.449337
-0.376993
-1.13208
-1.80768
-2.39608
-2.89154
-3.28984
-3.58818
-3.7854
-3.88208
-3.88065
-3.78534
-3.60207
-3.3383
-3.00285
-2.60564
-2.15744
-1.6696
-1.15361
-0.622262
)
;

boundaryField
{
    inlet
    {
        type            zeroGradient;
    }
    outlet
    {
        type            fixedValue;
        value           uniform 0;
    }
    flap
    {
        type            zeroGradient;
    }
    upperWall
    {
        type            zeroGradient;
    }
    lowerWall
    {
        type            zeroGradient;
    }
    frontAndBack
    {
        type            empty;
    }
}


// ************************************************************************* //
