/*--------------------------------*- C++ -*----------------------------------*\
| =========                 |                                                 |
| \\      /  F ield         | OpenFOAM: The Open Source CFD Toolbox           |
|  \\    /   O peration     | Version:  dev                                   |
|   \\  /    A nd           | Web:      www.OpenFOAM.org                      |
|    \\/     M anipulation  |                                                 |
\*---------------------------------------------------------------------------*/
FoamFile
{
    version     2.0;
    format      ascii;
    class       surfaceScalarField;
    location    "0.22";
    object      phi;
}
// * * * * * * * * * * * * * * * * * * * * * * * * * * * * * * * * * * * * * //

dimensions      [0 3 -1 0 0 0 0];

internalField   nonuniform List<scalar> 
5457
(
0.198406
0.00159234
0.196522
0.00188365
0.194317
0.00220411
0.191754
0.00256257
0.188831
0.00292345
0.185549
0.00328316
0.181901
0.00364894
0.177876
0.00402699
0.173456
0.00442078
0.168626
0.00483185
0.163368
0.00526024
0.157665
0.00570439
0.151505
0.00616118
0.144879
0.00662609
0.137786
0.00709349
0.130229
0.00755705
0.122219
0.00801011
0.113773
0.00844574
0.104915
0.00885655
0.09568
0.00923412
0.0861106
0.00956825
0.0762633
0.00984613
0.0662102
0.010052
0.0560417
0.0101677
0.0458669
0.0101742
0.0358107
0.0100557
0.0260057
0.00980476
0.0165789
0.00942663
0.00761789
0.00896098
0.00761787
0.199963
0.00162792
0.199262
0.00258327
0.198143
0.00332259
0.196636
0.00406949
0.194737
0.00482295
0.192442
0.00557865
0.189745
0.00634803
0.18663
0.00714325
0.18308
0.0079726
0.179072
0.00884107
0.174583
0.00975078
0.169588
0.0107009
0.164063
0.0116872
0.157988
0.0127024
0.151345
0.0137363
0.144126
0.0147766
0.136327
0.0158091
0.127953
0.0168185
0.119021
0.0177881
0.109555
0.0186987
0.099594
0.0195284
0.0891882
0.0202507
0.0784039
0.0208352
0.0673228
0.0212479
0.0560411
0.0214552
0.0446664
0.02143
0.0333092
0.0211617
0.0220695
0.0206662
0.0109838
0.0200466
0.0186017
0.199813
0.00181314
0.19917
0.00322531
0.198117
0.0043754
0.196702
0.0054845
0.19493
0.00659546
0.192796
0.00771295
0.190294
0.00885114
0.187412
0.0100269
0.184132
0.0112538
0.180434
0.0125414
0.176291
0.0138954
0.171675
0.0153177
0.166559
0.0168052
0.160912
0.0183502
0.154708
0.0199401
0.147927
0.0215586
0.140549
0.0231859
0.132568
0.0247998
0.123979
0.0263754
0.114793
0.0278846
0.105025
0.0292952
0.0947046
0.0305696
0.0838744
0.0316643
0.0725898
0.0325317
0.0609208
0.0331236
0.0489515
0.0333988
0.0367771
0.0333358
0.0244998
0.0329433
0.0122065
0.0323398
0.0308082
0.199731
0.00208075
0.199088
0.00386706
0.198053
0.00540952
0.196661
0.00687619
0.194924
0.00833346
0.192838
0.00979956
0.190398
0.0112923
0.187594
0.0128323
0.184412
0.0144377
0.180833
0.0161223
0.176834
0.0178961
0.172389
0.0197639
0.16747
0.021725
0.162049
0.0237723
0.156096
0.0258932
0.149586
0.0280693
0.142493
0.0302779
0.1348
0.0324926
0.126491
0.0346837
0.117557
0.0368172
0.107997
0.0388541
0.0978172
0.0407487
0.0870328
0.0424477
0.0756733
0.0438903
0.0637846
0.0450116
0.0514343
0.0457487
0.0387182
0.0460517
0.0257722
0.0458892
0.0127881
0.0453239
0.0435963
0.199693
0.00238659
0.199042
0.00451658
0.198025
0.0064261
0.196659
0.00824152
0.194957
0.0100359
0.192918
0.0118398
0.190535
0.0136763
0.187799
0.0155692
0.184698
0.0175407
0.181213
0.0196089
0.177323
0.0217873
0.173005
0.024084
0.16823
0.0265005
0.162972
0.0290316
0.157201
0.0316649
0.150888
0.034382
0.144007
0.0371592
0.13653
0.0399687
0.128434
0.0427787
0.119698
0.0455532
0.110301
0.04825
0.100229
0.0508188
0.0894773
0.0531987
0.0780506
0.0553162
0.0659757
0.0570858
0.0533117
0.0584122
0.040165
0.0591981
0.0267099
0.0593442
0.0132147
0.058819
0.056811
0.199676
0.00270874
0.199024
0.00516806
0.198028
0.00742133
0.196696
0.00957254
0.195039
0.0116937
0.193055
0.0138243
0.19074
0.0159929
0.188083
0.0182271
0.185073
0.0205525
0.181692
0.0229913
0.177921
0.0255605
0.173735
0.0282714
0.169108
0.0311283
0.164013
0.0341277
0.15842
0.0372587
0.152298
0.0405038
0.145617
0.0438401
0.138345
0.0472405
0.130449
0.0506743
0.121895
0.0541063
0.112649
0.0574949
0.102678
0.0607884
0.0919548
0.063921
0.0804635
0.0668067
0.0682128
0.0693359
0.0552526
0.071372
0.0416962
0.0727543
0.027744
0.0732962
0.0137072
0.0728557
0.0705181
0.199672
0.003035
0.199026
0.00581318
0.198056
0.00839062
0.196765
0.0108626
0.195161
0.0132983
0.193243
0.015743
0.191006
0.0182306
0.188442
0.0207924
0.185539
0.0234577
0.182279
0.0262523
0.178645
0.029197
0.174611
0.0323062
0.170154
0.035587
0.165244
0.0390385
0.159851
0.0426518
0.153944
0.0464114
0.147487
0.0502967
0.140444
0.0542835
0.132773
0.0583446
0.12443
0.062449
0.115364
0.0665592
0.105526
0.0706261
0.0948638
0.074582
0.0833386
0.0783311
0.0709348
0.0817391
0.057683
0.0846234
0.0436879
0.086749
0.029157
0.0878271
0.0144184
0.0875942
0.0849366
0.199675
0.00335787
0.199043
0.00644438
0.198104
0.00932874
0.196861
0.0121054
0.195318
0.0148416
0.193475
0.0175862
0.191329
0.020378
0.188871
0.023252
0.186089
0.026241
0.182968
0.0293744
0.179491
0.0326765
0.175633
0.0361652
0.171371
0.0398507
0.166675
0.0437348
0.161516
0.0478115
0.15586
0.0520682
0.149668
0.0564881
0.1429
0.0610518
0.135506
0.0657381
0.12743
0.0705236
0.11861
0.0753789
0.108973
0.0802624
0.0984436
0.0851102
0.0869513
0.0898226
0.0744437
0.0942462
0.060912
0.0981547
0.0464256
0.101235
0.0311716
0.103081
0.0154755
0.10329
0.100412
0.199684
0.00367237
0.199071
0.00705534
0.198169
0.0102303
0.196979
0.0132949
0.195505
0.0163159
0.193747
0.0193448
0.191702
0.0224243
0.189362
0.0255932
0.186717
0.0288875
0.183752
0.0323402
0.180451
0.0359791
0.176792
0.0398255
0.172752
0.0438926
0.168302
0.0481855
0.163413
0.0527015
0.158049
0.0574319
0.152173
0.062365
0.145737
0.0674876
0.138687
0.0727873
0.130959
0.0782513
0.122474
0.0838629
0.113141
0.0895947
0.102855
0.0953955
0.0915036
0.101173
0.0789801
0.106769
0.0652065
0.111928
0.0501754
0.116266
0.0340103
0.119246
0.0170121
0.120288
0.117424
0.199696
0.00397494
0.199109
0.00764087
0.198248
0.01109
0.197117
0.0144253
0.195719
0.0177142
0.194054
0.0210102
0.192119
0.0243596
0.18991
0.0278042
0.187415
0.0313836
0.184623
0.0351339
0.181517
0.0390861
0.17808
0.0432648
0.174287
0.0476865
0.170114
0.0523596
0.165531
0.057285
0.160505
0.0624586
0.154996
0.0678743
0.148956
0.0735269
0.142329
0.0794144
0.135041
0.085538
0.127005
0.0918989
0.118108
0.0984911
0.108214
0.105289
0.0971608
0.112225
0.0847666
0.119163
0.0708456
0.125848
0.0552524
0.131859
0.0379696
0.136529
0.0192214
0.139037
0.136646
0.19971
0.0042629
0.199153
0.00819671
0.198339
0.0119033
0.197272
0.0154914
0.195956
0.0190301
0.194392
0.0225749
0.192578
0.0261747
0.190508
0.0298745
0.188177
0.0337168
0.185572
0.0377405
0.182679
0.0419799
0.179483
0.0464625
0.175963
0.051208
0.172096
0.0562277
0.167855
0.0615265
0.163209
0.0671048
0.158121
0.0729626
0.152545
0.0791033
0.146422
0.0855369
0.139679
0.0922808
0.132219
0.0993585
0.123915
0.106794
0.114603
0.1146
0.104067
0.122761
0.0920318
0.131197
0.0781639
0.139716
0.0620952
0.147928
0.0435278
0.155096
0.0224554
0.160109
0.159101
0.199727
0.00453416
0.199202
0.00871934
0.198439
0.0126657
0.197441
0.0164883
0.196214
0.0202579
0.194757
0.0240319
0.193071
0.0278615
0.191152
0.0317945
0.188994
0.0358757
0.186589
0.040147
0.183926
0.0446451
0.180989
0.0494002
0.177764
0.0544346
0.17423
0.0597629
0.170364
0.0653929
0.16614
0.0713296
0.161524
0.0775787
0.156475
0.0841522
0.15094
0.0910719
0.144848
0.0983729
0.138102
0.106104
0.130571
0.114324
0.12207
0.123101
0.11234
0.132491
0.101013
0.142524
0.0875765
0.153152
0.0713449
0.164159
0.0515058
0.174935
0.0274114
0.184203
0.186512
0.199745
0.00478709
0.199257
0.00920588
0.198547
0.0133738
0.197623
0.0174117
0.196488
0.0213927
0.195145
0.0253754
0.193594
0.0294132
0.191834
0.033556
0.18986
0.037851
0.187666
0.042342
0.185245
0.0470681
0.182584
0.0520617
0.179673
0.0573473
0.176495
0.0629416
0.173034
0.0688553
0.169267
0.0750967
0.16517
0.0816766
0.160708
0.0886142
0.155838
0.0959421
0.150499
0.103712
0.144606
0.111996
0.138037
0.120893
0.13061
0.130528
0.122047
0.141054
0.111922
0.152648
0.0995648
0.165509
0.083913
0.179811
0.0633325
0.195515
0.0356011
0.211935
0.222114
0.199764
0.00502039
0.199315
0.00965398
0.198663
0.0140246
0.197815
0.0182583
0.196778
0.0224302
0.195553
0.0266004
0.194143
0.0308239
0.192547
0.0351523
0.190765
0.0396346
0.188792
0.0443163
0.186623
0.0492382
0.184252
0.0544342
0.18167
0.0599304
0.178868
0.0657449
0.175834
0.07189
0.172555
0.0783764
0.169014
0.0852182
0.165189
0.0924394
0.161051
0.100081
0.156556
0.108206
0.151644
0.116908
0.14622
0.126317
0.140136
0.136612
0.133153
0.148036
0.124868
0.160934
0.114575
0.175802
0.10097
0.193415
0.0814825
0.215003
0.0506925
0.242725
0.272806
0.199785
0.00523306
0.199375
0.0100617
0.198783
0.0146154
0.198016
0.0190249
0.197079
0.023367
0.195976
0.027703
0.194711
0.0320891
0.193286
0.0365782
0.191701
0.0412206
0.189956
0.046063
0.188048
0.0511472
0.185976
0.0565081
0.183735
0.0621724
0.181322
0.0681587
0.178733
0.07448
0.175963
0.0811474
0.173006
0.0881759
0.169854
0.0955917
0.166496
0.103439
0.162915
0.111787
0.159083
0.120739
0.154956
0.130444
0.150455
0.141112
0.145449
0.153043
0.139696
0.166686
0.132737
0.182761
0.123607
0.202546
0.109924
0.228686
0.0834518
0.269197
0.356258
-0.0120999
0.0120999
-0.0260253
0.0139253
-0.0410681
0.0150426
-0.0570257
0.0159572
-0.0736285
0.0166021
-0.0905233
0.0168939
-0.107262
0.0167377
-0.123302
0.0160381
-0.138012
0.0147079
-0.150691
0.012678
-0.160604
0.00991032
-0.167019
0.00641342
-0.169273
0.00225299
-0.166828
-0.00244706
-0.159357
-0.00747143
-0.146928
-0.0124301
-0.130005
-0.016923
-0.109397
-0.0206077
-0.0861584
-0.0232387
-0.0614601
-0.0246976
-0.0364319
-0.0250272
-0.011944
-0.0244867
0.0113409
-0.0232834
0.033006
-0.0216634
0.0527774
-0.0197695
0.0706517
-0.0178723
0.0866924
-0.0160386
0.101039
-0.0143446
0.113911
-0.0128695
-0.012161
-0.0138748
0.0259747
-0.0286899
0.0287404
-0.0443479
0.0307003
-0.0607618
0.0323708
-0.0777139
0.0335534
-0.0948772
0.0340563
-0.111815
0.0336741
-0.127983
0.0322048
-0.142742
0.0294652
-0.155378
0.0253111
-0.165133
0.0196635
-0.171261
0.0125402
-0.173084
0.00407483
-0.170074
-0.00545832
-0.161959
-0.0155879
-0.148849
-0.0255406
-0.131248
-0.0345242
-0.10999
-0.0418665
-0.0861254
-0.0471026
-0.0607917
-0.0500305
-0.0350681
-0.0507499
-0.00989784
-0.0496556
0.0139186
-0.0470984
0.0360535
-0.0437966
0.0563663
-0.0400805
0.0748236
-0.0363277
0.0914827
-0.0326956
0.106473
-0.0293322
0.119973
-0.026367
-0.0243184
-0.014607
0.0405816
-0.0299752
0.0441085
-0.045947
0.0466719
-0.0625486
0.0489719
-0.0796272
0.0506314
-0.096893
0.0513212
-0.113926
0.0507057
-0.130184
0.0484616
-0.145018
0.0442974
-0.157692
0.0379828
-0.167418
0.0293883
-0.173417
0.0185372
-0.174985
0.005641
-0.171556
-0.00888816
-0.16289
-0.0242555
-0.149175
-0.0392559
-0.130996
-0.0527042
-0.109243
-0.0636193
-0.0849975
-0.0713477
-0.0593945
-0.0756328
-0.0335039
-0.0766395
-0.00826303
-0.0748953
0.015566
-0.070926
0.0376376
-0.0658665
0.0578493
-0.0602904
0.0761802
-0.0546567
0.092691
-0.0492043
0.107512
-0.0441506
0.120817
-0.0396695
-0.0362643
-0.0149942
0.0555758
-0.0306181
0.0597323
-0.0467135
0.062767
-0.0633727
0.0656307
-0.0804938
0.0677519
-0.0978183
0.0686447
-0.114937
0.0678233
-0.131301
0.0648237
-0.146233
0.0592282
-0.158957
0.0507042
-0.168629
0.039059
-0.174411
0.0243176
-0.17556
0.00678848
-0.171513
-0.0129362
-0.162119
-0.033651
-0.14768
-0.0536956
-0.128871
-0.0715137
-0.10664
-0.0858502
-0.0820854
-0.0959018
-0.0563305
-0.101387
-0.0304246
-0.102544
-0.00529847
-0.10002
0.0183738
-0.0945968
0.0402167
-0.0877078
0.0601822
-0.080254
0.0782487
-0.0727211
0.0944801
-0.0654336
0.109009
-0.058677
0.12201
-0.0526683
-0.047884
-0.0150365
0.0706123
-0.0305833
0.0752791
-0.0465454
0.0787289
-0.0630504
0.0821354
-0.0800227
0.0847235
-0.097221
0.0858421
-0.11424
0.0848408
-0.130518
0.0811002
-0.145351
0.07406
-0.15792
0.0632711
-0.167331
0.0484686
-0.172693
0.0296772
-0.173236
0.00733037
-0.168424
-0.0177495
-0.158228
-0.0438479
-0.143083
-0.0688412
-0.123754
-0.0908439
-0.10123
-0.108374
-0.0766077
-0.120524
-0.050977
-0.127017
-0.0253359
-0.128184
-0.000642321
-0.124713
0.0225871
-0.117825
0.0439935
-0.109113
0.0635281
-0.0997869
0.0811651
-0.0903562
0.0969715
-0.081238
0.111081
-0.0727843
0.123671
-0.0652554
-0.0590903
-0.0145948
0.085207
-0.0296265
0.0903107
-0.045078
0.0941802
-0.0610802
0.0981373
-0.0775654
0.101208
-0.0943021
0.102578
-0.110891
0.101428
-0.126766
0.0969745
-0.141209
0.0885007
-0.153365
0.0754258
-0.162299
0.0574002
-0.167064
0.0344416
-0.166863
0.00712737
-0.161202
-0.023412
-0.150223
-0.0548278
-0.134507
-0.0845576
-0.114893
-0.110458
-0.0923861
-0.130881
-0.0680522
-0.144857
-0.0429257
-0.152143
-0.0179347
-0.153174
0.00596494
-0.148611
0.0283968
-0.140255
0.0491221
-0.129836
0.0680034
-0.118666
0.0850144
-0.107365
0.100225
-0.0964468
0.11377
-0.0863269
0.125825
-0.0773077
-0.0697792
-0.0135353
0.0987423
-0.0274929
0.104268
-0.0419277
0.108615
-0.056947
0.113156
-0.0724817
0.116742
-0.0883114
0.118407
-0.10405
0.117165
-0.119143
0.112066
-0.132868
0.102223
-0.144344
0.0869003
-0.152592
0.0656463
-0.156617
0.0384659
-0.155569
0.00607735
-0.149032
-0.02995
-0.137381
-0.0664798
-0.121346
-0.100593
-0.101805
-0.130001
-0.0797299
-0.152956
-0.0561267
-0.16846
-0.031962
-0.176307
-0.00811884
-0.177017
0.014645
-0.171374
0.0359535
-0.161562
0.0557018
-0.149583
0.0736792
-0.136642
0.089847
-0.123531
0.104276
-0.110874
0.1171
-0.0991481
0.128489
-0.0886947
-0.079846
-0.011773
0.110515
-0.02401
0.116505
-0.0368201
0.121425
-0.0502736
0.126609
-0.0643
0.130768
-0.0786956
0.132802
-0.0930999
0.131569
-0.106984
0.125949
-0.119634
0.114872
-0.130151
0.0974154
-0.137503
0.0729964
-0.140657
0.0416189
-0.138689
0.00410755
-0.131317
-0.037323
-0.119206
-0.078592
-0.103224
-0.116576
-0.0842269
-0.148998
-0.0630853
-0.174098
-0.0407211
-0.190824
-0.017988
-0.19904
0.00416243
-0.199166
0.0253332
-0.192543
0.0452803
-0.181508
0.0637619
-0.168063
0.0805711
-0.153449
0.095669
-0.138627
0.109126
-0.124329
0.121069
-0.111089
0.131663
-0.0992858
-0.0891876
-0.00929085
0.119806
-0.0191326
0.126347
-0.0296545
0.131946
-0.0408958
0.13785
-0.0527912
0.142663
-0.0651628
0.145172
-0.0776882
0.144093
-0.0898807
0.13814
-0.101058
0.126048
-0.110311
0.106666
-0.116542
0.079226
-0.118684
0.0437596
-0.115734
0.00115631
-0.107662
-0.0453967
-0.0954276
-0.0908272
-0.0799947
-0.132009
-0.062116
-0.166877
-0.0424698
-0.193744
-0.021916
-0.211378
-0.00123379
-0.219721
0.0188408
-0.21924
0.038088
-0.21179
0.0563563
-0.199775
0.0732679
-0.184973
0.0886394
-0.168819
0.10244
-0.152426
0.114736
-0.136623
0.125647
-0.121998
0.135322
-0.108958
-0.0977097
-0.00614414
0.12595
-0.0129505
0.133153
-0.020523
0.139519
-0.0288923
0.146219
-0.0380065
0.151776
-0.0477211
0.154886
-0.0577632
0.154134
-0.0677076
0.148083
-0.0769292
0.135268
-0.0845447
0.11428
-0.0893982
0.0840779
-0.0903491
0.0447091
-0.0863798
-0.00281436
-0.0779214
-0.0538564
-0.0660715
-0.102678
-0.0518014
-0.14628
-0.0356629
-0.183016
-0.0181155
-0.211291
5.33456e-05
-0.229546
0.0180801
-0.237748
0.0357047
-0.236864
0.0528529
-0.228937
0.0690941
-0.216015
0.0841238
-0.200002
0.0977917
-0.182485
0.110075
-0.164707
0.121034
-0.14758
0.130773
-0.131735
0.139419
-0.117602
-0.105331
-0.00245549
0.128406
-0.00566602
0.136364
-0.00969972
0.143552
-0.0145879
0.151107
-0.0203
0.157488
-0.0267216
0.161307
-0.0336358
0.161047
-0.0406949
0.155141
-0.0473643
0.141936
-0.0528501
0.119765
-0.0560249
0.0872512
-0.0555178
0.0442006
-0.0505321
-0.00780143
-0.0422762
-0.0621135
-0.0315626
-0.113393
-0.019171
-0.158672
-0.00528929
-0.196898
0.00948924
-0.22607
0.0245413
-0.244598
0.0397041
-0.25291
0.0548006
-0.25196
0.0694504
-0.243585
0.0833184
-0.229882
0.0961687
-0.21285
0.107885
-0.1942
0.11845
-0.17527
0.127914
-0.157042
0.136362
-0.14018
0.143889
-0.125127
-0.111987
0.0016225
0.126783
0.00245002
0.135536
0.00239121
0.143611
0.00145369
0.152044
-0.000341184
0.159282
-0.0029076
0.163873
-0.00608235
0.164221
-0.00959876
0.158656
-0.0130632
0.145399
-0.0158816
0.122582
-0.0169602
0.0883284
-0.0145321
0.041771
-0.0087845
-0.0135503
-0.00138888
-0.0695102
0.00729553
-0.122078
0.0171555
-0.168533
0.0279622
-0.207705
0.0394042
-0.237512
0.0514198
-0.256613
0.0636387
-0.265128
0.0757876
-0.264108
0.0875781
-0.255375
0.0987642
-0.241067
0.109175
-0.22326
0.118727
-0.20375
0.127408
-0.183949
0.13525
-0.164883
0.142311
-0.147239
0.148654
-0.131467
-0.117633
0.00607427
0.120709
0.0112409
0.130369
0.0153147
0.139537
0.0185205
0.148838
0.0209003
0.156902
0.0225054
0.162267
0.0234578
0.163268
0.023969
0.158144
0.0243523
0.145014
0.0252459
0.121687
0.0278438
0.085729
0.032484
0.0371295
0.0376377
-0.0187053
0.0429438
-0.0748175
0.048732
-0.127867
0.0555959
-0.175398
0.0633031
-0.215413
0.0716203
-0.24583
0.0803694
-0.265362
0.0892889
-0.274048
0.0981677
-0.272986
0.106817
-0.264023
0.115081
-0.24933
0.122855
-0.231033
0.130086
-0.210979
0.13676
-0.190622
0.142894
-0.171014
0.148508
-0.152852
0.153626
-0.136582
-0.122247
0.0110186
0.10969
0.0207052
0.120683
0.0288695
0.131372
0.0362392
0.141468
0.0428211
0.15032
0.0486206
0.156466
0.0537725
0.158115
0.058488
0.153427
0.0631055
0.140395
0.0682293
0.116561
0.0741138
0.0798431
0.0796971
0.031545
0.0840021
-0.0230115
0.0875997
-0.0784161
0.091189
-0.131457
0.0953367
-0.179546
0.100045
-0.220122
0.105145
-0.25093
0.11048
-0.270698
0.115905
-0.279472
0.12132
-0.2784
0.126653
-0.269355
0.13185
-0.254526
0.136871
-0.236053
0.141693
-0.2158
0.146302
-0.195229
0.150687
-0.175396
0.154833
-0.156995
0.158715
-0.140462
-0.125828
0.0170185
0.0926717
0.0309638
0.106737
0.0428627
0.119473
0.0543173
0.130013
0.064896
0.13974
0.0746414
0.14672
0.0837769
0.148979
0.0925355
0.144667
0.101191
0.131739
0.109898
0.107853
0.118018
0.0717213
0.124355
0.0252071
0.128393
-0.0270512
0.130878
-0.0809015
0.132807
-0.133387
0.134757
-0.181497
0.136794
-0.222159
0.138816
-0.252952
0.140768
-0.272649
0.142659
-0.281363
0.144552
-0.280292
0.146517
-0.271319
0.14861
-0.256617
0.15086
-0.238302
0.15327
-0.218208
0.15582
-0.197778
0.158472
-0.178046
0.161167
-0.159689
0.163836
-0.143128
-0.128396
0.207459
0.00543123
0.207078
0.0104411
0.206528
0.0151636
0.205818
0.0197339
0.204954
0.0242301
0.203943
0.0287145
0.202789
0.0332441
0.201495
0.0378726
0.200065
0.0426513
0.198502
0.0476274
0.196807
0.0528433
0.194983
0.0583338
0.193031
0.0641256
0.190954
0.0702368
0.188756
0.0766793
0.186441
0.0834628
0.184017
0.0906009
0.181491
0.0981177
0.178876
0.106055
0.176182
0.11448
0.173428
0.123494
0.170633
0.13324
0.167823
0.143922
0.165039
0.155827
0.162352
0.169373
0.159926
0.185186
0.158237
0.204235
0.159257
0.227666
0.175735
0.252719
0.266358
0.265635
0.212502
0.00560964
0.212159
0.010782
0.211666
0.0156549
0.211032
0.0203668
0.210264
0.0249972
0.20937
0.0296088
0.208355
0.0342589
0.207227
0.0390018
0.20599
0.0438888
0.204652
0.0489673
0.203217
0.0542793
0.201693
0.0598592
0.200087
0.0657324
0.19841
0.0719153
0.196673
0.0784173
0.194892
0.0852447
0.193087
0.0924067
0.191284
0.0999213
0.189517
0.107822
0.187832
0.116165
0.186293
0.125033
0.184988
0.134544
0.184056
0.144854
0.183718
0.156165
0.184374
0.168717
0.186816
0.182744
0.192755
0.198297
0.205374
0.215046
0.226087
0.232007
0.248111
0.244334
0.217668
0.00576618
0.217367
0.0110806
0.216937
0.0160836
0.216386
0.0209163
0.215723
0.0256593
0.214957
0.0303753
0.214094
0.0351215
0.213145
0.0399519
0.212117
0.0449176
0.21102
0.0500655
0.209864
0.0554364
0.208661
0.0610635
0.207425
0.0669699
0.206172
0.0731691
0.204924
0.0796667
0.203706
0.0864637
0.202551
0.0935622
0.201503
0.100971
0.200616
0.108709
0.199966
0.116816
0.199655
0.125345
0.199826
0.134373
0.20069
0.14399
0.202564
0.154291
0.205933
0.165348
0.21151
0.177167
0.220187
0.189619
0.232691
0.202542
0.24864
0.216058
0.227431
0.269321
0.222961
0.00589887
0.222706
0.0113329
0.222344
0.0164442
0.221883
0.0213757
0.221333
0.0262082
0.220704
0.0310042
0.220005
0.0358205
0.219247
0.0407104
0.218442
0.0457239
0.217601
0.0509069
0.21674
0.0562985
0.215876
0.0619294
0.215027
0.0678201
0.214217
0.07398
0.213476
0.0804095
0.212837
0.087103
0.212347
0.0940534
0.212061
0.101257
0.212053
0.108719
0.212417
0.116452
0.213279
0.124483
0.21481
0.132843
0.217238
0.141562
0.220871
0.150658
0.226104
0.160115
0.233409
0.169862
0.243277
0.179752
0.256317
0.189502
0.27357
0.198805
0.205342
0.295658
0.228383
0.00600589
0.228178
0.0115356
0.227888
0.0167319
0.227523
0.0217386
0.227094
0.0266363
0.226611
0.0314869
0.226085
0.0363463
0.22553
0.0412665
0.224958
0.0462962
0.224387
0.0514794
0.223834
0.0568528
0.22332
0.0624445
0.22287
0.0682711
0.222514
0.0743374
0.222287
0.0806378
0.222232
0.0871589
0.222403
0.0938837
0.222865
0.100796
0.223702
0.107882
0.22502
0.115135
0.226953
0.122551
0.229671
0.130125
0.23339
0.137844
0.238373
0.145676
0.244935
0.153553
0.253441
0.161356
0.264307
0.168886
0.278023
0.175786
0.295118
0.181711
0.185647
0.314813
0.233938
0.00608558
0.233785
0.0116856
0.233572
0.0169422
0.233309
0.0219995
0.233007
0.0269372
0.232677
0.0318161
0.232333
0.0366907
0.231988
0.0416115
0.23166
0.0466254
0.231366
0.051774
0.231129
0.0570912
0.230973
0.0626015
0.230928
0.0683175
0.231027
0.0742391
0.231312
0.080354
0.231831
0.0866411
0.232643
0.0930732
0.233818
0.0996211
0.235445
0.106256
0.23763
0.112951
0.240502
0.119679
0.244221
0.126407
0.248974
0.133092
0.254979
0.139671
0.262485
0.146048
0.271761
0.152081
0.283077
0.15757
0.296631
0.162233
0.312531
0.165811
0.167869
0.330309
0.239627
0.00613653
0.239529
0.0117801
0.239398
0.0170715
0.239242
0.0221537
0.239072
0.0271055
0.238901
0.0319859
0.238744
0.0368477
0.238616
0.0417393
0.238536
0.0467056
0.238526
0.0517855
0.238608
0.0570096
0.238812
0.0623986
0.23917
0.067961
0.239719
0.0736912
0.240504
0.0795711
0.241574
0.0855714
0.242993
0.0916561
0.24483
0.0977847
0.247172
0.103915
0.25012
0.110005
0.253791
0.116008
0.258323
0.121876
0.26387
0.127545
0.270603
0.132939
0.278699
0.137953
0.288328
0.142452
0.299628
0.14627
0.312661
0.1492
0.327434
0.151038
0.151566
0.343737
0.245454
0.00615755
0.245414
0.0118171
0.245367
0.0171166
0.245321
0.0221976
0.245288
0.027137
0.24528
0.031992
0.245315
0.0368131
0.245407
0.0416465
0.245579
0.0465343
0.245852
0.0515125
0.246254
0.0566087
0.246814
0.0618398
0.247566
0.0672097
0.248551
0.0727081
0.249812
0.0783108
0.251403
0.0839822
0.253382
0.0896783
0.255818
0.0953496
0.25879
0.100944
0.262389
0.106407
0.266714
0.111684
0.271879
0.116712
0.278002
0.121423
0.285205
0.125736
0.293604
0.129554
0.303296
0.132761
0.314341
0.135225
0.326743
0.136798
0.340455
0.137327
0.136711
0.35531
0.251423
0.00614774
0.251442
0.0117948
0.251481
0.0170754
0.251547
0.0221286
0.251653
0.0270292
0.251812
0.0318319
0.25204
0.0365849
0.252354
0.0413319
0.252777
0.0461119
0.253331
0.050958
0.254046
0.0558944
0.254953
0.0609346
0.256085
0.0660784
0.257483
0.071311
0.259192
0.0766034
0.261261
0.0819145
0.263746
0.0871943
0.26671
0.0923869
0.270222
0.0974334
0.274357
0.102273
0.279198
0.106844
0.28483
0.111081
0.291339
0.114915
0.298805
0.118271
0.307296
0.121064
0.316856
0.123201
0.327497
0.124584
0.339186
0.12511
0.351833
0.12468
0.123255
0.365289
0.257536
0.00610651
0.257615
0.0117121
0.257741
0.0169465
0.257922
0.0219453
0.258168
0.0267808
0.258494
0.031505
0.258914
0.0361635
0.259449
0.0407972
0.260118
0.0454422
0.260948
0.0501284
0.261966
0.054877
0.263204
0.0596979
0.264695
0.0645875
0.26648
0.0695274
0.2686
0.0744851
0.2711
0.0794153
0.274031
0.0842641
0.277448
0.0889717
0.281407
0.0934753
0.28597
0.0977115
0.291197
0.101617
0.297151
0.105128
0.303887
0.10818
0.311452
0.110707
0.319876
0.11264
0.329168
0.11391
0.339306
0.114447
0.350231
0.114186
0.361842
0.113069
0.111092
0.374005
0.263796
0.00603356
0.263936
0.0115686
0.26415
0.0167294
0.264445
0.0216476
0.264832
0.0263922
0.265322
0.0310126
0.265933
0.0355515
0.266683
0.0400469
0.267593
0.044532
0.268688
0.0490337
0.269995
0.0535702
0.271545
0.0581486
0.273371
0.0627624
0.275509
0.0673902
0.277998
0.0719971
0.280878
0.0765358
0.284193
0.0809503
0.287987
0.085179
0.292305
0.0891585
0.297192
0.0928253
0.302692
0.0961182
0.308843
0.098978
0.315677
0.101347
0.323213
0.103172
0.331455
0.104399
0.340386
0.10498
0.349964
0.104869
0.360118
0.104032
0.370747
0.10244
0.100109
0.381731
0.270207
0.00592893
0.270407
0.0113645
0.270709
0.0164247
0.271117
0.0212363
0.271642
0.0258652
0.272295
0.0303578
0.273092
0.0347536
0.27405
0.039088
0.27519
0.0433911
0.276537
0.0476872
0.278115
0.0519918
0.279955
0.0563095
0.282086
0.0606316
0.284542
0.0649351
0.287356
0.0691837
0.290564
0.0733294
0.294199
0.0773158
0.298298
0.081082
0.302891
0.084566
0.308011
0.0877068
0.313683
0.0904473
0.319927
0.0927345
0.326756
0.0945201
0.334167
0.0957613
0.342146
0.0964206
0.35066
0.0964665
0.359655
0.0958749
0.369057
0.0946306
0.37877
0.0927274
0.0901933
0.388686
0.276772
0.00579297
0.277032
0.0111005
0.277419
0.0160336
0.277939
0.0207138
0.278598
0.0252032
0.279409
0.0295453
0.280385
0.0337767
0.281542
0.0379296
0.282901
0.0420318
0.284483
0.0461048
0.286313
0.0501619
0.288417
0.0542058
0.290822
0.0582264
0.293558
0.0622
0.296653
0.0660899
0.300134
0.0698488
0.304029
0.0734216
0.308363
0.0767495
0.313156
0.0797735
0.318427
0.082437
0.324187
0.0846884
0.330441
0.0864817
0.337185
0.0877775
0.344403
0.0885441
0.352067
0.0887572
0.360135
0.0883995
0.368548
0.0874623
0.377233
0.0859458
0.386102
0.0838588
0.0812365
0.395059
0.283494
0.00562632
0.283812
0.0107779
0.284284
0.0155583
0.284911
0.0200831
0.285701
0.0244108
0.286663
0.0285815
0.287809
0.0326291
0.289154
0.036583
0.290717
0.0404684
0.292516
0.0443045
0.294575
0.0481028
0.296916
0.0518647
0.299564
0.0555794
0.302541
0.0592232
0.305871
0.0627603
0.309576
0.0661449
0.313673
0.0693247
0.31818
0.072244
0.323106
0.074848
0.328459
0.0770853
0.334237
0.0789106
0.340435
0.0802852
0.347035
0.0811779
0.354014
0.0815669
0.361333
0.0814385
0.368946
0.0807869
0.376795
0.0796144
0.384809
0.0779322
0.392909
0.0757589
0.0731331
0.401013
0.290378
0.0054299
0.290752
0.0103985
0.291305
0.0150017
0.292036
0.0193485
0.29295
0.0234937
0.294055
0.0274742
0.295361
0.0313209
0.296882
0.0350608
0.298632
0.0387166
0.300631
0.0423057
0.302895
0.0458381
0.305445
0.0493143
0.308301
0.0527234
0.311482
0.0560426
0.315005
0.0592377
0.318885
0.0622656
0.323133
0.0650771
0.327757
0.0676209
0.332759
0.0698469
0.338136
0.0717094
0.343878
0.0731694
0.349969
0.0741947
0.356386
0.0747623
0.363095
0.0748583
0.370057
0.0744772
0.377223
0.0736219
0.384535
0.0723028
0.39193
0.070538
0.399337
0.068352
0.065785
0.406685
0.297425
0.00520489
0.297854
0.00996479
0.298484
0.0143673
0.299314
0.018515
0.300345
0.0224586
0.301585
0.026232
0.30304
0.0298632
0.304723
0.0333768
0.306645
0.0367934
0.308821
0.0401288
0.311267
0.0433917
0.313998
0.0465824
0.317031
0.0496905
0.320379
0.0526943
0.324055
0.0555622
0.328067
0.0582541
0.33242
0.0607249
0.337113
0.0629278
0.342143
0.0648179
0.347498
0.0663553
0.353161
0.0675065
0.359111
0.0682458
0.365317
0.0685568
0.371744
0.0684322
0.378349
0.0678727
0.385084
0.0668872
0.391896
0.0654916
0.398726
0.0637082
0.405513
0.0615649
0.0591011
0.412198
0.304642
0.00495264
0.305122
0.00947929
0.305825
0.0136593
0.306748
0.0175884
0.30789
0.0213132
0.309254
0.0248645
0.310847
0.0282679
0.312676
0.0315455
0.314752
0.034716
0.317086
0.0377939
0.319689
0.0407872
0.322575
0.043696
0.325755
0.0465108
0.329237
0.0492118
0.333029
0.05177
0.337135
0.0541489
0.341552
0.0563077
0.346276
0.0582045
0.351295
0.0597994
0.356592
0.061058
0.362147
0.0619523
0.367932
0.0624618
0.373914
0.0625756
0.380055
0.0622914
0.386314
0.0616146
0.392643
0.060558
0.398995
0.0591408
0.405315
0.0573877
0.411553
0.0553275
0.0529982
0.417656
0.31203
0.00467469
0.312559
0.00894501
0.313331
0.0128821
0.31434
0.0165746
0.315584
0.0200652
0.317064
0.0233817
0.318782
0.026547
0.320744
0.0295813
0.322957
0.0325016
0.325428
0.035321
0.328167
0.0380472
0.331182
0.0406804
0.334479
0.0432122
0.338066
0.045625
0.341943
0.0478928
0.346109
0.0499827
0.350558
0.0518585
0.35528
0.0534828
0.360258
0.0548209
0.365473
0.0558433
0.370899
0.0565268
0.376506
0.0568555
0.38226
0.0568227
0.388122
0.0564298
0.394051
0.0556853
0.400005
0.0546045
0.405938
0.0532082
0.411804
0.0515218
0.417558
0.049574
0.0474006
0.423156
0.319595
0.00437263
0.320169
0.00836505
0.321006
0.0120404
0.322095
0.0154801
0.323434
0.0187228
0.325018
0.0217935
0.326849
0.0247128
0.328929
0.0274987
0.331262
0.0301667
0.333852
0.032729
0.336705
0.0351927
0.339826
0.0375587
0.343218
0.0398197
0.346882
0.0419603
0.350816
0.0439576
0.355016
0.0457827
0.359471
0.0474034
0.364166
0.0487871
0.369083
0.0499036
0.374199
0.050728
0.379484
0.0512412
0.384909
0.0514311
0.390438
0.0512941
0.396034
0.0508342
0.401657
0.050062
0.407268
0.0489937
0.412826
0.0476507
0.41829
0.046058
0.42362
0.0442433
0.0422395
0.428781
0.327341
0.00404808
0.327957
0.00774256
0.328853
0.0111389
0.330017
0.0143111
0.331441
0.0172941
0.333121
0.0201099
0.335054
0.0227769
0.337238
0.0253112
0.339676
0.0277268
0.342367
0.030035
0.345316
0.0322427
0.348522
0.0343512
0.351986
0.0363545
0.355705
0.0382397
0.359675
0.0399865
0.363887
0.04157
0.368328
0.0429621
0.37298
0.0441345
0.377822
0.0450613
0.382829
0.0457214
0.387971
0.0460992
0.393216
0.0461858
0.39853
0.0459798
0.403878
0.0454868
0.409221
0.0447184
0.414524
0.0436911
0.419749
0.0424258
0.424861
0.0409463
0.429825
0.0392788
0.037453
0.434611
0.335272
0.0037026
0.335928
0.00708055
0.336878
0.010182
0.33811
0.0130737
0.339613
0.0157867
0.341379
0.0183402
0.343402
0.0207502
0.345678
0.0230312
0.348206
0.0251958
0.350984
0.0272544
0.354011
0.0292136
0.357286
0.0310751
0.360804
0.0328345
0.364562
0.0344806
0.368551
0.0359964
0.372759
0.0373604
0.377172
0.0385483
0.38177
0.0395358
0.38653
0.0403008
0.391425
0.0408258
0.396426
0.0410981
0.401501
0.0411109
0.406616
0.0408646
0.411736
0.0403657
0.416829
0.0396259
0.421858
0.0386614
0.426792
0.0374918
0.431599
0.0361394
0.436249
0.0346282
0.032985
0.440717
0.343393
0.0033376
0.344085
0.00638172
0.345087
0.00917387
0.346381
0.0117735
0.347955
0.0142076
0.349798