/*--------------------------------*- C++ -*----------------------------------*\
| =========                 |                                                 |
| \\      /  F ield         | OpenFOAM: The Open Source CFD Toolbox           |
|  \\    /   O peration     | Version:  dev                                   |
|   \\  /    A nd           | Web:      www.OpenFOAM.org                      |
|    \\/     M anipulation  |                                                 |
\*---------------------------------------------------------------------------*/
FoamFile
{
    version     2.0;
    format      ascii;
    class       pointVectorField;
    location    "0.22";
    object      pointDisplacement;
}
// * * * * * * * * * * * * * * * * * * * * * * * * * * * * * * * * * * * * * //

dimensions      [0 1 0 0 0 0 0];

internalField   nonuniform List<vector> 
5828
(
(0 0 0)
(0.00185672 0 0)
(0.00354956 0 0)
(0.00504201 0 0)
(0.00635256 0 0)
(0.00749793 0 0)
(0.00849302 0 0)
(0.0093511 0 0)
(0.0100838 0 0)
(0.0107015 0 0)
(0.0112129 0 0)
(0.0116256 0 0)
(0.0119459 0 0)
(0.0121789 0 0)
(0.0123283 0 0)
(0.0123967 0 0)
(0.0123853 0 0)
(0.0122935 0 0)
(0.0121194 0 0)
(0.0118588 0 0)
(0.0115055 0 0)
(0.0110507 0 0)
(0.0104828 0 0)
(0.00978772 0 0)
(0.00894926 0 0)
(0.00795174 0 0)
(0.00678633 0 0)
(0.00546638 0 0)
(0.00406584 0 0)
(0.00283384 0 0)
(0 0 0)
(0 0 0)
(0.0018568 0 1.17524e-05)
(0.00354985 0 2.27095e-05)
(0.00504256 0 3.28235e-05)
(0.00635344 0 4.23455e-05)
(0.00749921 0 5.1484e-05)
(0.00849481 0 6.0416e-05)
(0.00935353 0 6.92971e-05)
(0.0100871 0 7.82696e-05)
(0.0107057 0 8.74703e-05)
(0.0112183 0 9.70374e-05)
(0.0116325 0 0.000107118)
(0.0119548 0 0.000117877)
(0.0121901 0 0.00012951)
(0.0123426 0 0.000142255)
(0.0124149 0 0.000156414)
(0.0124084 0 0.00017238)
(0.0123231 0 0.00019068)
(0.0121573 0 0.000212026)
(0.0119078 0 0.000237401)
(0.0115694 0 0.000268176)
(0.0111347 0 0.00030627)
(0.0105944 0 0.000354379)
(0.0099373 0 0.000416275)
(0.00915188 0 0.000497148)
(0.00822901 0 0.000603914)
(0.00716921 0 0.000745131)
(0.00599845 0 0.000929429)
(0.00480306 0 0.00115874)
(0.00381677 0 0.00140366)
(0.00226961 0 0.00203104)
(0 0 0)
(0.00185731 0 2.34655e-05)
(0.00355095 0 4.53431e-05)
(0.00504441 0 6.55363e-05)
(0.00635622 0 8.45456e-05)
(0.00750317 0 0.000102786)
(0.00850027 0 0.000120609)
(0.00936086 0 0.000138324)
(0.0100967 0 0.000156212)
(0.0107183 0 0.000174544)
(0.0112345 0 0.00019359)
(0.0116533 0 0.000213638)
(0.0119811 0 0.000235007)
(0.0122236 0 0.000258073)
(0.012385 0 0.00028329)
(0.0124686 0 0.000311229)
(0.0124766 0 0.000342626)
(0.01241 0 0.000378454)
(0.0122687 0 0.000420019)
(0.0120514 0 0.000469094)
(0.0117557 0 0.000528115)
(0.0113785 0 0.000600433)
(0.010916 0 0.000690658)
(0.0103655 0 0.000805052)
(0.00972668 0 0.000951911)
(0.00900633 0 0.00114163)
(0.00822526 0 0.00138565)
(0.00743144 0 0.0016922)
(0.00671955 0 0.00205311)
(0.00625523 0 0.00240786)
(0.00575846 0 0.00306332)
(0 0 0)
(0.00185817 0 3.50899e-05)
(0.00355281 0 6.78046e-05)
(0.00504749 0 9.79973e-05)
(0.00636083 0 0.000126413)
(0.00750971 0 0.00015367)
(0.00850925 0 0.00018029)
(0.00937289 0 0.00020673)
(0.0101126 0 0.000233406)
(0.0107389 0 0.000260713)
(0.011261 0 0.000289044)
(0.011687 0 0.000318813)
(0.012024 0 0.000350475)
(0.0122779 0 0.000384554)
(0.0124536 0 0.000421679)
(0.0125553 0 0.000462626)
(0.0125864 0 0.000508382)
(0.0125493 0 0.000560221)
(0.0124462 0 0.000619822)
(0.0122787 0 0.000689407)
(0.0120484 0 0.000771947)
(0.0117579 0 0.000871396)
(0.011411 0 0.000992974)
(0.0110153 0 0.00114341)
(0.0105843 0 0.00133099)
(0.0101412 0 0.00156491)
(0.00972437 0 0.00185298)
(0.00939085 0 0.0021954)
(0.00921223 0 0.0025702)
(0.00924126 0 0.00290393)
(0.0095549 0 0.00343293)
(0 0 0)
(0.00185937 0 4.65684e-05)
(0.00355537 0 8.99817e-05)
(0.00505171 0 0.00013004)
(0.00636713 0 0.000167728)
(0.00751864 0 0.000203858)
(0.00852148 0 0.000239117)
(0.00938927 0 0.000274104)
(0.0101341 0 0.000309358)
(0.0107668 0 0.000345388)
(0.0112969 0 0.000382695)
(0.0117328 0 0.000421798)
(0.0120819 0 0.000463259)
(0.0123509 0 0.000507712)
(0.0125455 0 0.000555902)
(0.012671 0 0.000608728)
(0.012732 0 0.000667301)
(0.0127329 0 0.000733019)
(0.0126783 0 0.000807657)
(0.012573 0 0.000893482)
(0.0124232 0 0.000993384)
(0.0122369 0 0.001111)
(0.0120255 0 0.00125079)
(0.0118059 0 0.00141797)
(0.0116022 0 0.00161803)
(0.0114485 0 0.00185547)
(0.0113889 0 0.00213083)
(0.0114722 0 0.00243495)
(0.0117271 0 0.00273896)
(0.0121011 0 0.00298092)
(0.012892 0 0.00330687)
(0 0 0)
(0.00186088 0 5.78405e-05)
(0.00355857 0 0.000111756)
(0.00505695 0 0.00016149)
(0.00637494 0 0.000208257)
(0.00752969 0 0.000253057)
(0.00853662 0 0.000296733)
(0.00940951 0 0.000340015)
(0.0101607 0 0.000383555)
(0.0108013 0 0.000427961)
(0.011341 0 0.000473825)
(0.0117888 0 0.000521744)
(0.0121527 0 0.000572353)
(0.0124398 0 0.000626352)
(0.012657 0 0.000684536)
(0.0128103 0 0.000747834)
(0.0129061 0 0.000817354)
(0.0129505 0 0.000894429)
(0.0129504 0 0.000980668)
(0.0129139 0 0.001078)
(0.0128507 0 0.0011887)
(0.0127735 0 0.00131534)
(0.0126991 0 0.00146061)
(0.0126499 0 0.00162694)
(0.012655 0 0.00181556)
(0.01275 0 0.00202502)
(0.0129732 0 0.00224858)
(0.0133525 0 0.00247082)
(0.0138737 0 0.00266459)
(0.0144174 0 0.00279313)
(0.0153798 0 0.00290773)
(0 0 0)
(0.00186263 0 6.88459e-05)
(0.00356228 0 0.000133008)
(0.00506303 0 0.000192172)
(0.00638399 0 0.000247768)
(0.00754251 0 0.000300977)
(0.00855417 0 0.000352785)
(0.00943299 0 0.000404041)
(0.0101915 0 0.0004555)
(0.0108411 0 0.00050785)
(0.011392 0 0.000561752)
(0.0118534 0 0.000617858)
(0.0122338 0 0.00067684)
(0.0125413 0 0.000739413)
(0.0127832 0 0.000806362)
(0.0129671 0 0.00087856)
(0.0131002 0 0.000956995)
(0.0131906 0 0.00104278)
(0.013247 0 0.00113714)
(0.0132796 0 0.00124141)
(0.013301 0 0.0013569)
(0.0133265 0 0.00148471)
(0.0133751 0 0.00162538)
(0.0134703 0 0.00177822)
(0.0136397 0 0.00194031)
(0.0139122 0 0.00210518)
(0.0143117 0 0.00226129)
(0.0148419 0 0.00239152)
(0.0154575 0 0.00247617)
(0.0160182 0 0.0025052)
(0.016922 0 0.00245113)
(0 0 0)
(0.00186457 0 7.95271e-05)
(0.00356637 0 0.000153627)
(0.00506972 0 0.000221921)
(0.00639396 0 0.000286045)
(0.00755665 0 0.000347346)
(0.00857358 0 0.000406944)
(0.00945896 0 0.000465795)
(0.0102256 0 0.000524738)
(0.0108851 0 0.000584529)
(0.0114481 0 0.000645874)
(0.0119242 0 0.000709454)
(0.0123225 0 0.000775944)
(0.0126515 0 0.000846035)
(0.0129195 0 0.000920442)
(0.0131348 0 0.000999916)
(0.0133058 0 0.00108524)
(0.0134417 0 0.00117719)
(0.0135526 0 0.00127651)
(0.0136501 0 0.00138379)
(0.0137476 0 0.00149929)
(0.0138611 0 0.00162263)
(0.014009 0 0.00175237)
(0.0142117 0 0.00188527)
(0.0144904 0 0.00201555)
(0.0148623 0 0.00213396)
(0.0153338 0 0.00222762)
(0.0158873 0 0.00228167)
(0.0164624 0 0.00228573)
(0.0169338 0 0.00224949)
(0.0175885 0 0.00210729)
(0 0 0)
(0.00186659 0 8.98314e-05)
(0.00357064 0 0.00017351)
(0.00507675 0 0.000250586)
(0.00640449 0 0.000322891)
(0.00757164 0 0.000391921)
(0.00859419 0 0.000458919)
(0.00948657 0 0.000524935)
(0.0102618 0 0.000590876)
(0.0109319 0 0.00065755)
(0.0115076 0 0.00072569)
(0.011999 0 0.000795979)
(0.0124157 0 0.000869068)
(0.0127666 0 0.000945588)
(0.0130608 0 0.00102615)
(0.013307 0 0.00111132)
(0.0135146 0 0.00120164)
(0.0136933 0 0.0012975)
(0.0138539 0 0.00139914)
(0.0140082 0 0.00150642)
(0.0141694 0 0.00161867)
(0.0143522 0 0.00173432)
(0.0145719 0 0.00185051)
(0.0148437 0 0.00196258)
(0.0151797 0 0.00206359)
(0.0155846 0 0.00214411)
(0.0160493 0 0.00219298)
(0.0165419 0 0.00220008)
(0.0170006 0 0.00216304)
(0.0173334 0 0.00210081)
(0.0177019 0 0.00194345)
(0 0 0)
(0.00186859 0 9.97124e-05)
(0.0035749 0 0.000192566)
(0.00508381 0 0.000278037)
(0.00641515 0 0.000358134)
(0.00758692 0 0.000434493)
(0.00861531 0 0.000508463)
(0.00951496 0 0.000581175)
(0.0102991 0 0.000653594)
(0.01098 0 0.000726559)
(0.0115686 0 0.000800814)
(0.0120755 0 0.000877025)
(0.0125105 0 0.000955797)
(0.0128831 0 0.00103768)
(0.0132025 0 0.00112314)
(0.0134781 0 0.00121257)
(0.0137194 0 0.00130622)
(0.0139365 0 0.00140414)
(0.0141401 0 0.00150608)
(0.0143413 0 0.00161133)
(0.0145521 0 0.00171849)
(0.0147847 0 0.00182528)
(0.0150501 0 0.00192818)
(0.0153575 0 0.0020222)
(0.0157104 0 0.00210084)
(0.0161034 0 0.00215646)
(0.016517 0 0.00218162)
(0.0169141 0 0.00217181)
(0.0172404 0 0.00213046)
(0.0174399 0 0.00207665)
(0.017549 0 0.00195036)
(0 0 0)
(0.00187047 0 0.000109129)
(0.00357894 0 0.000210718)
(0.00509058 0 0.000304162)
(0.00642552 0 0.000391631)
(0.00760194 0 0.000474887)
(0.00863624 0 0.000555374)
(0.00954322 0 0.000634289)
(0.0103364 0 0.00071264)
(0.011028 0 0.000791287)
(0.0116295 0 0.000870967)
(0.0121516 0 0.000952319)
(0.0126044 0 0.00103588)
(0.0129975 0 0.00112211)
(0.0133406 0 0.00121133)
(0.013643 0 0.00130374)
(0.0139143 0 0.00139934)
(0.0141644 0 0.00149787)
(0.0144033 0 0.00159871)
(0.0146411 0 0.00170073)
(0.0148878 0 0.00180214)
(0.0151523 0 0.00190035)
(0.0154418 0 0.00199184)
(0.0157596 0 0.00207216)
(0.016103 0 0.00213621)
(0.0164605 0 0.00217909)
(0.0168093 0 0.00219749)
(0.0171151 0 0.00219202)
(0.0173374 0 0.00216969)
(0.0174484 0 0.00214505)
(0.0174218 0 0.00211877)
(0 0 0)
(0.0018721 0 0.000118048)
(0.00358251 0 0.000227899)
(0.00509674 0 0.000328865)
(0.00643514 0 0.000423262)
(0.00761613 0 0.000512962)
(0.00865624 0 0.000599489)
(0.00957046 0 0.000684097)
(0.0103724 0 0.000767825)
(0.0110746 0 0.00085154)
(0.0116886 0 0.000935967)
(0.0122253 0 0.0010217)
(0.0126948 0 0.00110921)
(0.013107 0 0.00119885)
(0.0134714 0 0.00129081)
(0.0137976 0 0.00138512)
(0.0140947 0 0.00148157)
(0.014372 0 0.00157966)
(0.0146386 0 0.00167849)
(0.0149032 0 0.00177674)
(0.0151733 0 0.00187247)
(0.0154553 0 0.00196315)
(0.0157524 0 0.00204568)
(0.016064 0 0.00211654)
(0.0163837 0 0.00217235)
(0.016698 0 0.0022107)
(0.0169863 0 0.00223147)
(0.017223 0 0.00223827)
(0.0173843 0 0.002239)
(0.0174606 0 0.00224244)
(0.017466 0 0.00228258)
(0 0 0)
(0.00187336 0 0.000126438)
(0.00358541 0 0.000244051)
(0.00510194 0 0.000352066)
(0.00644359 0 0.000452925)
(0.00762891 0 0.000548598)
(0.00867462 0 0.000640677)
(0.00959582 0 0.00073046)
(0.0104063 0 0.000819008)
(0.0111185 0 0.000907189)
(0.0117444 0 0.000995701)
(0.0122946 0 0.0010851)
(0.0127795 0 0.00117577)
(0.0132089 0 0.00126799)
(0.0135923 0 0.00136181)
(0.0139388 0 0.00145713)
(0.0142573 0 0.00155356)
(0.0145561 0 0.00165046)
(0.0148433 0 0.00174679)
(0.0151258 0 0.00184114)
(0.0154095 0 0.00193166)
(0.0156978 0 0.00201609)
(0.0159915 0 0.00209193)
(0.0162872 0 0.00215666)
(0.0165771 0 0.00220831)
(0.0168486 0 0.0022461)
(0.017086 0 0.00227134)
(0.0172736 0 0.00228789)
(0.0174019 0 0.00230159)
(0.0174723 0 0.00231619)
(0.0175489 0 0.00237171)
(0 0 0)
(0.00187414 0 0.000134272)
(0.00358738 0 0.000259125)
(0.00510586 0 0.000373695)
(0.0064504 0 0.000480536)
(0.00763974 0 0.000581699)
(0.00869069 0 0.000678834)
(0.00961846 0 0.000773273)
(0.0104369 0 0.00086609)
(0.0111586 0 0.000958146)
(0.0117953 0 0.00105011)
(0.012358 0 0.00114249)
(0.0128567 0 0.00123562)
(0.0133014 0 0.00132967)
(0.013701 0 0.0014246)
(0.0140644 0 0.0015202)
(0.0143998 0 0.00161597)
(0.0147149 0 0.00171118)
(0.0150163 0 0.00180476)
(0.0153097 0 0.00189533)
(0.0155991 0 0.00198124)
(0.015886 0 0.00206061)
(0.0161693 0 0.00213154)
(0.0164445 0 0.00219235)
(0.0167036 0 0.002242)
(0.016936 0 0.00228047)
(0.0171303 0 0.00230905)
(0.0172778 0 0.00233006)
(0.0173771 0 0.0023458)
(0.0174353 0 0.00235675)
(0.0175482 0 0.00236234)
(0 0 0)
(0.00187431 0 0.000141528)
(0.0035882 0 0.000273078)
(0.00510815 0 0.000393695)
(0.00645515 0 0.000506025)
(0.00764807 0 0.000612189)
(0.00870381 0 0.000713882)
(0.00963762 0 0.000812461)
(0.0104633 0 0.000909007)
(0.0111937 0 0.00100437)
(0.0118403 0 0.00109919)
(0.012414 0 0.00119393)
(0.012925 0 0.00128887)
(0.0133826 0 0.00138409)
(0.0137958 0 0.0014795)
(0.0141727 0 0.00157479)
(0.0145211 0 0.00166943)
(0.0148477 0 0.00176262)
(0.0151581 0 0.00185335)
(0.0154566 0 0.00194037)
(0.015746 0 0.00202224)
(0.0160265 0 0.00209748)
(0.0162959 0 0.00216472)
(0.0165495 0 0.00222291)
(0.0167798 0 0.00227155)
(0.0169782 0 0.0023109)
(0.017136 0 0.00234181)
(0.0172475 0 0.00236509)
(0.0173122 0 0.00238041)
(0.0173375 0 0.0023864)
(0.0173533 0 0.00237446)
(0 0 0)
(0.00187375 0 0.000148253)
(0.00358763 0 0.000285995)
(0.00510847 0 0.000412184)
(0.00645743 0 0.000529549)
(0.00765343 0 0.000640262)
(0.00871343 0 0.000746053)
(0.00965268 0 0.000848297)
(0.010485 0 0.000948078)
(0.0112231 0 0.00104623)
(0.0118786 0 0.00114337)
(0.0124621 0 0.00123992)
(0.0129835 0 0.00133609)
(0.0134521 0 0.00143194)
(0.0138762 0 0.00152729)
(0.0142638 0 0.00162181)
(0.0146216 0 0.00171493)
(0.0149557 0 0.00180589)
(0.0152708 0 0.00189374)
(0.0155703 0 0.00197738)
(0.0158558 0 0.00205565)
(0.016127 0 0.0021274)
(0.0163812 0 0.00219168)
(0.016614 0 0.00224788)
(0.0168191 0 0.00229585)
(0.0169896 0 0.00233602)
(0.0171192 0 0.00236918)
(0.0172034 0 0.0023962)
(0.0172413 0 0.00241776)
(0.017238 0 0.00243533)
(0.017075 0 0.00241602)
(0 0 0)
(0.00185672 0 0)
(0.00354956 0 0)
(0.00504201 0 0)
(0.00635256 0 0)
(0.00749793 0 0)
(0.00849302 0 0)
(0.0093511 0 0)
(0.0100838 0 0)
(0.0107015 0 0)
(0.0112129 0 0)
(0.0116256 0 0)
(0.0119459 0 0)
(0.0121789 0 0)
(0.0123283 0 0)
(0.0123967 0 0)
(0.0123853 0 0)
(0.0122935 0 0)
(0.0121194 0 0)
(0.0118588 0 0)
(0.0115055 0 0)
(0.0110507 0 0)
(0.0104828 0 0)
(0.00978772 0 0)
(0.00894926 0 0)
(0.00795174 0 0)
(0.00678633 0 0)
(0.00546638 0 0)
(0.00406584 0 0)
(0.00283384 0 0)
(0 0 0)
(0 0 0)
(0.0018568 0 1.17524e-05)
(0.00354985 0 2.27095e-05)
(0.00504256 0 3.28235e-05)
(0.00635344 0 4.23455e-05)
(0.00749921 0 5.1484e-05)
(0.00849481 0 6.0416e-05)
(0.00935353 0 6.92971e-05)
(0.0100871 0 7.82696e-05)
(0.0107057 0 8.74703e-05)
(0.0112183 0 9.70374e-05)
(0.0116325 0 0.000107118)
(0.0119548 0 0.000117877)
(0.0121901 0 0.00012951)
(0.0123426 0 0.000142255)
(0.0124149 0 0.000156414)
(0.0124084 0 0.00017238)
(0.0123231 0 0.00019068)
(0.0121573 0 0.000212026)
(0.0119078 0 0.000237401)
(0.0115694 0 0.000268176)
(0.0111347 0 0.00030627)
(0.0105944 0 0.000354379)
(0.0099373 0 0.000416275)
(0.00915188 0 0.000497148)
(0.00822901 0 0.000603914)
(0.00716921 0 0.000745131)
(0.00599845 0 0.000929429)
(0.00480306 0 0.00115874)
(0.00381677 0 0.00140366)
(0.00226961 0 0.00203104)
(0 0 0)
(0.00185731 0 2.34655e-05)
(0.00355095 0 4.53431e-05)
(0.00504441 0 6.55363e-05)
(0.00635622 0 8.45456e-05)
(0.00750317 0 0.000102786)
(0.00850027 0 0.000120609)
(0.00936086 0 0.000138324)
(0.0100967 0 0.000156212)
(0.0107183 0 0.000174544)
(0.0112345 0 0.00019359)
(0.0116533 0 0.000213638)
(0.0119811 0 0.000235007)
(0.0122236 0 0.000258073)
(0.012385 0 0.00028329)
(0.0124686 0 0.000311229)
(0.0124766 0 0.000342626)
(0.01241 0 0.000378454)
(0.0122687 0 0.000420019)
(0.0120514 0 0.000469094)
(0.0117557 0 0.000528115)
(0.0113785 0 0.000600433)
(0.010916 0 0.000690658)
(0.0103655 0 0.000805052)
(0.00972668 0 0.000951911)
(0.00900633 0 0.00114163)
(0.00822526 0 0.00138565)
(0.00743144 0 0.0016922)
(0.00671955 0 0.00205311)
(0.00625523 0 0.00240786)
(0.00575846 0 0.00306332)
(0 0 0)
(0.00185817 0 3.50899e-05)
(0.00355281 0 6.78046e-05)
(0.00504749 0 9.79973e-05)
(0.00636083 0 0.000126413)
(0.00750971 0 0.00015367)
(0.00850925 0 0.00018029)
(0.00937289 0 0.00020673)
(0.0101126 0 0.000233406)
(0.0107389 0 0.000260713)
(0.011261 0 0.000289044)
(0.011687 0 0.000318813)
(0.012024 0 0.000350475)
(0.0122779 0 0.000384554)
(0.0124536 0 0.000421679)
(0.0125553 0 0.000462626)
(0.0125864 0 0.000508382)
(0.0125493 0 0.000560221)
(0.0124462 0 0.000619822)
(0.0122787 0 0.000689407)
(0.0120484 0 0.000771947)
(0.0117579 0 0.000871396)
(0.011411 0 0.000992974)
(0.0110153 0 0.00114341)
(0.0105843 0 0.00133099)
(0.0101412 0 0.00156491)
(0.00972437 0 0.00185298)
(0.00939085 0 0.0021954)
(0.00921223 0 0.0025702)
(0.00924126 0 0.00290393)
(0.0095549 0 0.00343293)
(0 0 0)
(0.00185937 0 4.65684e-05)
(0.00355537 0 8.99817e-05)
(0.00505171 0 0.00013004)
(0.00636713 0 0.000167728)
(0.00751864 0 0.000203858)
(0.00852148 0 0.000239117)
(0.00938927 0 0.000274104)
(0.0101341 0 0.000309358)
(0.0107668 0 0.000345388)
(0.0112969 0 0.000382695)
(0.0117328 0 0.000421798)
(0.0120819 0 0.000463259)
(0.0123509 0 0.000507712)
(0.0125455 0 0.000555902)
(0.012671 0 0.000608728)
(0.012732 0 0.000667301)
(0.0127329 0 0.000733019)
(0.0126783 0 0.000807657)
(0.012573 0 0.000893482)
(0.0124232 0 0.000993384)
(0.0122369 0 0.001111)
(0.0120255 0 0.00125079)
(0.0118059 0 0.00141797)
(0.0116022 0 0.00161803)
(0.0114485 0 0.00185547)
(0.0113889 0 0.00213083)
(0.0114722 0 0.00243495)
(0.0117271 0 0.00273896)
(0.0121011 0 0.00298092)
(0.012892 0 0.00330687)
(0 0 0)
(0.00186088 0 5.78405e-05)
(0.00355857 0 0.000111756)
(0.00505695 0 0.00016149)
(0.00637494 0 0.000208257)
(0.00752969 0 0.000253057)
(0.00853662 0 0.000296733)
(0.00940951 0 0.000340015)
(0.0101607 0 0.000383555)
(0.0108013 0 0.000427961)
(0.011341 0 0.000473825)
(0.0117888 0 0.000521744)
(0.0121527 0 0.000572353)
(0.0124398 0 0.000626352)
(0.012657 0 0.000684536)
(0.0128103 0 0.000747834)
(0.0129061 0 0.000817354)
(0.0129505 0 0.000894429)
(0.0129504 0 0.000980668)
(0.0129139 0 0.001078)
(0.0128507 0 0.0011887)
(0.0127735 0 0.00131534)
(0.0126991 0 0.00146061)
(0.0126499 0 0.00162694)
(0.012655 0 0.00181556)
(0.01275 0 0.00202502)
(0.0129732 0 0.00224858)
(0.0133525 0 0.00247082)
(0.0138737 0 0.00266459)
(0.0144174 0 0.00279313)
(0.0153798 0 0.00290773)
(0 0 0)
(0.00186263 0 6.88459e-05)
(0.00356228 0 0.000133008)
(0.00506303 0 0.000192172)
(0.00638399 0 0.000247768)
(0.00754251 0 0.000300977)
(0.00855417 0 0.000352785)
(0.00943299 0 0.000404041)
(0.0101915 0 0.0004555)
(0.0108411 0 0.00050785)
(0.011392 0 0.000561752)
(0.0118534 0 0.000617858)
(0.0122338 0 0.00067684)
(0.0125413 0 0.000739413)
(0.0127832 0 0.000806362)
(0.0129671 0 0.00087856)
(0.0131002 0 0.000956995)
(0.0131906 0 0.00104278)
(0.013247 0 0.00113714)
(0.0132796 0 0.00124141)
(0.013301 0 0.0013569)
(0.0133265 0 0.00148471)
(0.0133751 0 0.00162538)
(0.0134703 0 0.00177822)
(0.0136397 0 0.00194031)
(0.0139122 0 0.00210518)
(0.0143117 0 0.00226129)
(0.0148419 0 0.00239152)
(0.0154575 0 0.00247617)
(0.0160182 0 0.0025052)
(0.016922 0 0.00245113)
(0 0 0)
(0.00186457 0 7.95271e-05)
(0.00356637 0 0.000153627)
(0.00506972 0 0.000221921)
(0.00639396 0 0.000286045)
(0.00755665 0 0.000347346)
(0.00857358 0 0.000406944)
(0.00945896 0 0.000465795)
(0.0102256 0 0.000524738)
(0.0108851 0 0.000584529)
(0.0114481 0 0.000645874)
(0.0119242 0 0.000709454)
(0.0123225 0 0.000775944)
(0.0126515 0 0.000846035)
(0.0129195 0 0.000920442)
(0.0131348 0 0.000999916)
(0.0133058 0 0.00108524)
(0.0134417 0 0.00117719)
(0.0135526 0 0.00127651)
(0.0136501 0 0.00138379)
(0.0137476 0 0.00149929)
(0.0138611 0 0.00162263)
(0.014009 0 0.00175237)
(0.0142117 0 0.00188527)
(0.0144904 0 0.00201555)
(0.0148623 0 0.00213396)
(0.0153338 0 0.00222762)
(0.0158873 0 0.00228167)
(0.0164624 0 0.00228573)
(0.0169338 0 0.00224949)
(0.0175885 0 0.00210729)
(0 0 0)
(0.00186659 0 8.98314e-05)
(0.00357064 0 0.00017351)
(0.00507675 0 0.000250586)
(0.00640449 0 0.000322891)
(0.00757164 0 0.000391921)
(0.00859419 0 0.000458919)
(0.00948657 0 0.000524935)
(0.0102618 0 0.000590876)
(0.0109319 0 0.00065755)
(0.0115076 0 0.00072569)
(0.011999 0 0.000795979)
(0.0124157 0 0.000869068)
(0.0127666 0 0.000945588)
(0.0130608 0 0.00102615)
(0.013307 0 0.00111132)
(0.0135146 0 0.00120164)
(0.0136933 0 0.0012975)
(0.0138539 0 0.00139914)
(0.0140082 0 0.00150642)
(0.0141694 0 0.00161867)
(0.0143522 0 0.00173432)
(0.0145719 0 0.00185051)
(0.0148437 0 0.00196258)
(0.0151797 0 0.00206359)
(0.0155846 0 0.00214411)
(0.0160493 0 0.00219298)
(0.0165419 0 0.00220008)
(0.0170006 0 0.00216304)
(0.0173334 0 0.00210081)
(0.0177019 0 0.00194345)
(0 0 0)
(0.00186859 0 9.97124e-05)
(0.0035749 0 0.000192566)
(0.00508381 0 0.000278037)
(0.00641515 0 0.000358134)
(0.00758692 0 0.000434493)
(0.00861531 0 0.000508463)
(0.00951496 0 0.000581175)
(0.0102991 0 0.000653594)
(0.01098 0 0.000726559)
(0.0115686 0 0.000800814)
(0.0120755 0 0.000877025)
(0.0125105 0 0.000955797)
(0.0128831 0 0.00103768)
(0.0132025 0 0.00112314)
(0.0134781 0 0.00121257)
(0.0137194 0 0.00130622)
(0.0139365 0 0.00140414)
(0.0141401 0 0.00150608)
(0.0143413 0 0.00161133)
(0.0145521 0 0.00171849)
(0.0147847 0 0.00182528)
(0.0150501 0 0.00192818)
(0.0153575 0 0.0020222)
(0.0157104 0 0.00210084)
(0.0161034 0 0.00215646)
(0.016517 0 0.00218162)
(0.0169141 0 0.00217181)
(0.0172404 0 0.00213046)
(0.0174399 0 0.00207665)
(0.017549 0 0.00195036)
(0 0 0)
(0.00187047 0 0.000109129)
(0.00357894 0 0.000210718)
(0.00509058 0 0.000304162)
(0.00642552 0 0.000391631)
(0.00760194 0 0.000474887)
(0.00863624 0 0.000555374)
(0.00954322 0 0.000634289)
(0.0103364 0 0.00071264)
(0.011028 0 0.000791287)
(0.0116295 0 0.000870967)
(0.0121516 0 0.000952319)
(0.0126044 0 0.00103588)
(0.0129975 0 0.00112211)
(0.0133406 0 0.00121133)
(0.013643 0 0.00130374)
(0.0139143 0 0.00139934)
(0.0141644 0 0.00149787)
(0.0144033 0 0.00159871)
(0.0146411 0 0.00170073)
(0.0148878 0 0.00180214)
(0.0151523 0 0.00190035)
(0.0154418 0 0.00199184)
(0.0157596 0 0.00207216)
(0.016103 0 0.00213621)
(0.0164605 0 0.00217909)
(0.0168093 0 0.00219749)
(0.0171151 0 0.00219202)
(0.0173374 0 0.00216969)
(0.0174484 0 0.00214505)
(0.0174218 0 0.00211877)
(0 0 0)
(0.0018721 0 0.000118048)
(0.00358251 0 0.000227899)
(0.00509674 0 0.000328865)
(0.00643514 0 0.000423262)
(0.00761613 0 0.000512962)
(0.00865624 0 0.000599489)
(0.00957046 0 0.000684097)
(0.0103724 0 0.000767825)
(0.0110746 0 0.00085154)
(0.0116886 0 0.000935967)
(0.0122253 0 0.0010217)
(0.0126948 0 0.00110921)
(0.013107 0 0.00119885)
(0.0134714 0 0.00129081)
(0.0137976 0 0.00138512)
(0.0140947 0 0.00148157)
(0.014372 0 0.00157966)
(0.0146386 0 0.00167849)
(0.0149032 0 0.00177674)
(0.0151733 0 0.00187247)
(0.0154553 0 0.00196315)
(0.0157524 0 0.00204568)
(0.016064 0 0.00211654)
(0.0163837 0 0.00217235)
(0.016698 0 0.0022107)
(0.0169863 0 0.00223147)
(0.017223 0 0.00223827)
(0.0173843 0 0.002239)
(0.0174606 0 0.00224244)
(0.017466 0 0.00228258)
(0 0 0)
(0.00187336 0 0.000126438)
(0.00358541 0 0.000244051)
(0.00510194 0 0.000352066)
(0.00644359 0 0.000452925)
(0.00762891 0 0.000548598)
(0.00867462 0 0.000640677)
(0.00959582 0 0.00073046)
(0.0104063 0 0.000819008)
(0.0111185 0 0.000907189)
(0.0117444 0 0.000995701)
(0.0122946 0 0.0010851)
(0.0127795 0 0.00117577)
(0.0132089 0 0.00126799)
(0.0135923 0 0.00136181)
(0.0139388 0 0.00145713)
(0.0142573 0 0.00155356)
(0.0145561 0 0.00165046)
(0.0148433 0 0.00174679)
(0.0151258 0 0.00184114)
(0.0154095 0 0.00193166)
(0.0156978 0 0.00201609)
(0.0159915 0 0.00209193)
(0.0162872 0 0.00215666)
(0.0165771 0 0.00220831)
(0.0168486 0 0.0022461)
(0.017086 0 0.00227134)
(0.0172736 0 0.00228789)
(0.0174019 0 0.00230159)
(0.0174723 0 0.00231619)
(0.0175489 0 0.00237171)
(0 0 0)
(0.00187414 0 0.000134272)
(0.00358738 0 0.000259125)
(0.00510586 0 0.000373695)
(0.0064504 0 0.000480536)
(0.00763974 0 0.000581699)
(0.00869069 0 0.000678834)
(0.00961846 0 0.000773273)
(0.0104369 0 0.00086609)
(0.0111586 0 0.000958146)
(0.0117953 0 0.00105011)
(0.012358 0 0.00114249)
(0.0128567 0 0.00123562)
(0.0133014 0 0.00132967)
(0.013701 0 0.0014246)
(0.0140644 0 0.0015202)
(0.0143998 0 0.00161597)
(0.0147149 0 0.00171118)
(0.0150163 0 0.00180476)
(0.0153097 0 0.00189533)
(0.0155991 0 0.00198124)
(0.015886 0 0.00206061)
(0.0161693 0 0.00213154)
(0.0164445 0 0.00219235)
(0.0167036 0 0.002242)
(0.016936 0 0.00228047)
(0.0171303 0 0.00230905)
(0.0172778 0 0.00233006)
(0.0173771 0 0.0023458)
(0.0174353 0 0.00235675)
(0.0175482 0 0.00236234)
(0 0 0)
(0.00187431 0 0.000141528)
(0.0035882 0 0.000273078)
(0.00510815 0 0.000393695)
(0.00645515 0 0.000506025)
(0.00764807 0 0.000612189)
(0.00870381 0 0.000713882)
(0.00963762 0 0.000812461)
(0.0104633 0 0.000909007)
(0.0111937 0 0.00100437)
(0.0118403 0 0.00109919)
(0.012414 0 0.00119393)
(0.012925 0 0.00128887)
(0.0133826 0 0.00138409)
(0.0137958 0 0.0014795)
(0.0141727 0 0.00157479)
(0.0145211 0 0.00166943)
(0.0148477 0 0.00176262)
(0.0151581 0 0.00185335)
(0.0154566 0 0.00194037)
(0.015746 0 0.00202224)
(0.0160265 0 0.00209748)
(0.0162959 0 0.00216472)
(0.0165495 0 0.00222291)
(0.0167798 0 0.00227155)
(0.0169782 0 0.0023109)
(0.017136 0 0.00234181)
(0.0172475 0 0.00236509)
(0.0173122 0 0.00238041)
(0.0173375 0 0.0023864)
(0.0173533 0 0.00237446)
(0 0 0)
(0.00187375 0 0.000148253)
(0.00358763 0 0.000285995)
(0.00510847 0 0.000412184)
(0.00645743 0 0.000529549)
(0.00765343 0 0.000640262)
(0.00871343 0 0.000746053)
(0.00965268 0 0.000848297)
(0.010485 0 0.000948078)
(0.0112231 0 0.00104623)
(0.0118786 0 0.00114337)
(0.0124621 0 0.00123992)
(0.0129835 0 0.00133609)
(0.0134521 0 0.00143194)
(0.0138762 0 0.00152729)
(0.0142638 0 0.00162181)
(0.0146216 0 0.00171493)
(0.0149557 0 0.00180589)
(0.0152708 0 0.00189374)
(0.0155703 0 0.00197738)
(0.0158558 0 0.00205565)
(0.016127 0 0.0021274)
(0.0163812 0 0.00219168)
(0.016614 0 0.00224788)
(0.0168191 0 0.00229585)
(0.0169896 0 0.00233602)
(0.0171192 0 0.00236918)
(0.0172034 0 0.0023962)
(0.0172413 0 0.00241776)
(0.017238 0 0.00243533)
(0.017075 0 0.00241602)
(0 0 0)
(0.00297045 0 0)
(0.00438477 0 0)
(0.00593797 0 0)
(0.00736626 0 0)
(0.00859293 0 0)
(0.0096142 0 0)
(0.0104502 0 0)
(0.0111257 0 0)
(0.0116638 0 0)
(0.012083 0 0)
(0.0123979 0 0)
(0.0126191 0 0)
(0.0127537 0 0)
(0.0128065 0 0)
(0.0127799 0 0)
(0.0126744 0 0)
(0.0124889 0 0)
(0.0122211 0 0)
(0.011867 0 0)
(0.0114215 0 0)
(0.0108785 0 0)
(0.0102305 0 0)
(0.00946876 0 0)
(0.00858335 0 0)
(0.00756304 0 0)
(0.00639524 0 0)
(0.0050659 0 0)
(0.00355952 0 0)
(0.00185897 0 0)
(0 0 0)
(0.00204189 0 -0.0014795)
(0.00390267 0 -0.000832102)
(0.00511047 0 -0.00061085)
(0.00647081 0 -0.000397233)
(0.00775041 0 -0.000230143)
(0.00886916 0 -0.000109359)
(0.00981376 0 -2.54739e-05)
(0.0105955 0 3.12218e-05)
(0.0112327 0 6.85437e-05)
(0.0117434 0 9.2267e-05)
(0.0121429 0 0.000106508)
(0.0124434 0 0.000114155)
(0.0126539 0 0.000117219)
(0.0127806 0 0.000117102)
(0.0128274 0 0.000114785)
(0.0127962 0 0.000110954)
(0.0126872 0 0.000106088)
(0.012499 0 0.000100519)
(0.012229 0 9.44756e-05)
(0.0118731 0 8.81089e-05)
(0.0114263 0 8.15135e-05)
(0.0108823 0 7.47406e-05)
(0.0102334 0 6.78072e-05)
(0.00947092 0 6.07016e-05)
(0.00858496 0 5.33865e-05)
(0.00756422 0 4.58002e-05)
(0.00639607 0 3.78561e-05)
(0.00506646 0 2.94397e-05)
(0.00355986 0 2.04049e-05)
(0.0018591 0 1.05663e-05)
(0 0 0)
(0.00544796 0 -0.00191669)
(0.0062589 0 -0.00125865)
(0.00700128 0 -0.000938923)
(0.0078962 0 -0.000614372)
(0.00879888 0 -0.000349144)
(0.00963483 0 -0.000150913)
(0.0103737 0 -9.77378e-06)
(0.0110076 0 8.73513e-05)
(0.0115385 0 0.000152055)
(0.0119724 0 0.00019341)
(0.0123161 0 0.000218148)
(0.0125756 0 0.000231134)
(0.0127557 0 0.000235843)
(0.0128595 0 0.000234743)
(0.0128889 0 0.000229589)
(0.0128444 0 0.000221624)
(0.012725 0 0.000211725)
(0.0125287 0 0.000200508)
(0.0122523 0 0.000188396)
(0.0118915 0 0.00017567)
(0.0114407 0 0.000162507)
(0.0108934 0 0.000149001)
(0.010242 0 0.000135181)
(0.00947748 0 0.000121019)
(0.0085899 0 0.00010644)
(0.00756788 0 9.13199e-05)
(0.00639873 0 7.54844e-05)
(0.00506831 0 5.87054e-05)
(0.00356106 0 4.06911e-05)
(0.0018597 0 2.10719e-05)
(0 0 0)
(0.00924042 0 -0.00165412)
(0.00920351 0 -0.00117863)
(0.00945394 0 -0.000887698)
(0.00981667 0 -0.00057272)
(0.0102585 0 -0.000299404)
(0.0107303 0 -8.50355e-05)
(0.0111934 0 7.33776e-05)
(0.0116223 0 0.000185398)
(0.012002 0 0.00026133)
(0.0123243 0 0.000310136)
(0.0125852 0 0.000338964)
(0.0127829 0 0.000353267)
(0.0129164 0 0.000357102)
(0.0129849 0 0.000353456)
(0.0129872 0 0.00034451)
(0.0129217 0 0.000331845)
(0.0127859 0 0.000316598)
(0.0125768 0 0.000299574)
(0.0122903 0 0.000281335)
(0.0119213 0 0.000262255)
(0.011464 0 0.000242568)
(0.0109116 0 0.000222396)
(0.010256 0 0.000201769)
(0.00948819 0 0.000180639)
(0.00859797 0 0.000158888)
(0.00757386 0 0.000136327)
(0.00640304 0 0.000112695)
(0.00507132 0 8.76513e-05)
(0.00356299 0 6.07586e-05)
(0.00186067 0 3.14656e-05)
(0 0 0)
(0.0126661 0 -0.000966329)
(0.0120563 0 -0.000722943)
(0.0119104 0 -0.000528071)
(0.0118212 0 -0.000300346)
(0.0118445 0 -8.71705e-05)
(0.0119644 0 9.09475e-05)
(0.0121461 0 0.000229225)
(0.0123561 0 0.000330503)
(0.0125679 0 0.000400512)
(0.0127621 0 0.000445458)
(0.0129253 0 0.000470984)
(0.0130484 0 0.00048181)
(0.0131245 0 0.000481691)
(0.0131487 0 0.000473542)
(0.0131165 0 0.000459584)
(0.013024 0 0.000441483)
(0.0128671 0 0.000420465)
(0.0126411 0 0.000397418)
(0.0123411 0 0.000372968)
(0.0119613 0 0.000347535)
(0.0114954 0 0.000321377)
(0.010936 0 0.000294624)
(0.0102748 0 0.000267295)
(0.00950257 0 0.000239312)
(0.00860878 0 0.00021051)
(0.00758183 0 0.000180634)
(0.00640878 0 0.000149335)
(0.00507529 0 0.000116158)
(0.00356551 0 8.0525e-05)
(0.00186192 0 4.17046e-05)
(0 0 0)
(0.0152385 0 -0.000119237)
(0.0143749 0 -7.37838e-05)
(0.0139886 0 7.85836e-06)
(0.0136031 0 0.000119881)
(0.0133251 0 0.000240277)
(0.013169 0 0.000351895)
(0.0131131 0 0.000445201)
(0.0131263 0 0.000516785)
(0.0131789 0 0.000567059)
(0.0132461 0 0.000598388)
(0.0133089 0 0.000613874)
(0.0133528 0 0.000616649)
(0.0133665 0 0.000609523)
(0.0133413 0 0.000594872)
(0.0132701 0 0.000574628)
(0.0131465 0 0.000550304)
(0.0129647 0 0.00052306)
(0.0127188 0 0.000493755)
(0.0124027 0 0.000463004)
(0.0120101 0 0.000431223)
(0.0115337 0 0.00039866)
(0.0109659 0 0.000365429)
(0.0102979 0 0.000331522)
(0.0095201 0 0.000296825)
(0.00862192 0 0.000261119)
(0.00759148 0 0.000224079)
(0.00641569 0 0.000185269)
(0.00508002 0 0.000144122)
(0.0035685 0 9.99183e-05)
(0.00186338 0 5.17515e-05)
(0 0 0)
(0.0168101 0 0.000710261)
(0.0159753 0 0.000606759)
(0.0155106 0 0.000590494)
(0.0149978 0 0.000595244)
(0.0145586 0 0.00062185)
(0.0142292 0 0.00065986)
(0.0140051 0 0.000698699)
(0.0138656 0 0.000731155)
(0.0137852 0 0.000753528)
(0.0137401 0 0.000764718)
(0.0137096 0 0.000765226)
(0.013677 0 0.00075636)
(0.0136284 0 0.000739702)
(0.0135526 0 0.00071683)
(0.0134404 0 0.000689167)
(0.0132836 0 0.000657914)
(0.0130747 0 0.000624033)