/*--------------------------------*- C++ -*----------------------------------*\
| =========                 |                                                 |
| \\      /  F ield         | OpenFOAM: The Open Source CFD Toolbox           |
|  \\    /   O peration     | Version:  dev                                   |
|   \\  /    A nd           | Web:      www.OpenFOAM.org                      |
|    \\/     M anipulation  |                                                 |
\*---------------------------------------------------------------------------*/
FoamFile
{
    version     2.0;
    format      ascii;
    class       volVectorField;
    location    "0.47";
    object      Force;
}
// * * * * * * * * * * * * * * * * * * * * * * * * * * * * * * * * * * * * * //

dimensions      [1 1 -2 0 0 0 0];

internalField   uniform (0 0 0);

boundaryField
{
    inlet
    {
        type            calculated;
        value           uniform (0 0 0);
    }
    outlet
    {
        type            calculated;
        value           uniform (0 0 0);
    }
    flap
    {
        type            calculated;
        value           nonuniform List<vector> 
33
(
(2.79781 1.77709e-18 -0.193958)
(2.72134 -3.56176e-18 -0.365422)
(2.65879 -4.50153e-22 -0.463862)
(2.60842 3.18761e-22 -0.488632)
(2.5729 1.01381e-22 -0.466723)
(2.54481 -3.53741e-18 -0.415567)
(2.51857 5.32597e-23 -0.344701)
(2.48869 1.35912e-17 -0.25963)
(2.44994 -2.27752e-38 -0.164419)
(2.39766 -8.32587e-19 -0.066666)
(2.32341 -1.27863e-23 0.0234986)
(2.21333 -9.48203e-23 0.0952787)
(2.0377 1.002e-22 0.136337)
(1.7239 1.5123e-17 0.139746)
(1.07166 -4.4081e-39 0.0939568)
(-0.0909135 7.84233e-18 1.23916)
(-0.0907381 -8.05036e-18 1.05796)
(-0.0587272 0 0.790888)
(0.786814 7.69708e-23 -0.0545679)
(0.802389 -1.14199e-18 -0.109499)
(0.816678 -1.54558e-17 -0.142977)
(0.840374 1.61379e-17 -0.156791)
(0.87898 1.78223e-17 -0.158271)
(0.936767 1.26317e-18 -0.151121)
(1.01215 1.72354e-17 -0.135998)
(1.09693 -7.26336e-19 -0.111801)
(1.1794 -1.36404e-38 -0.0769525)
(1.24453 1.75123e-17 -0.0329467)
(1.27988 -2.75506e-40 0.0142195)
(1.28083 1.71578e-17 0.0557778)
(1.25171 8.36912e-19 0.0838276)
(1.20463 -8.11525e-19 0.0961464)
(1.15276 1.82147e-22 0.0939497)
)
;
    }
    upperWall
    {
        type            calculated;
        value           uniform (0 0 0);
    }
    lowerWall
    {
        type            calculated;
        value           uniform (0 0 0);
    }
    frontAndBack
    {
        type            empty;
    }
}


// ************************************************************************* //
