/*--------------------------------*- C++ -*----------------------------------*\
| =========                 |                                                 |
| \\      /  F ield         | OpenFOAM: The Open Source CFD Toolbox           |
|  \\    /   O peration     | Version:  dev                                   |
|   \\  /    A nd           | Web:      www.OpenFOAM.org                      |
|    \\/     M anipulation  |                                                 |
\*---------------------------------------------------------------------------*/
FoamFile
{
    version     2.0;
    format      ascii;
    class       volVectorField;
    location    "1.02";
    object      Force;
}
// * * * * * * * * * * * * * * * * * * * * * * * * * * * * * * * * * * * * * //

dimensions      [1 1 -2 0 0 0 0];

internalField   uniform (0 0 0);

boundaryField
{
    inlet
    {
        type            calculated;
        value           uniform (0 0 0);
    }
    outlet
    {
        type            calculated;
        value           uniform (0 0 0);
    }
    flap
    {
        type            calculated;
        value           nonuniform List<vector> 
33
(
(5.05898 2.72948e-17 -0.546951)
(4.84551 -8.6934e-22 -1.10856)
(4.62262 6.98444e-18 -1.53539)
(4.38973 -3.08287e-17 -1.80158)
(4.18433 5.95669e-18 -1.94429)
(4.01493 -5.92475e-21 -2.01231)
(3.86842 -1.15958e-17 -2.03945)
(3.74067 2.29221e-37 -2.02727)
(3.63119 -2.75196e-17 -1.97941)
(3.53159 -4.0181e-21 -1.90988)
(3.4293 -4.7416e-22 -1.82705)
(3.31021 2.57293e-17 -1.73317)
(3.16018 -1.51362e-17 -1.62569)
(2.95781 6.87804e-22 -1.49632)
(2.6506 -2.73076e-22 -1.33776)
(-0.159853 -4.79892e-21 -0.315636)
(-0.261372 -7.91233e-19 -0.520841)
(-0.378532 1.12886e-18 -0.737794)
(-1.76417 1.31478e-24 0.187632)
(-1.79633 1.25516e-17 0.418659)
(-1.79661 -2.29589e-41 0.602621)
(-1.7915 1.42172e-17 0.73883)
(-1.78758 1.48625e-17 0.833778)
(-1.78617 -1.53385e-17 0.897969)
(-1.78866 -5.49615e-18 0.944949)
(-1.79745 1.60632e-17 0.977205)
(-1.81162 2.18762e-17 0.991765)
(-1.82577 1.64919e-17 0.991938)
(-1.83602 -1.65981e-17 0.983994)
(-1.8423 1.47913e-22 0.971127)
(-1.84365 1.70822e-17 0.954962)
(-1.83668 1.8202e-17 0.936753)
(-1.81568 5.51468e-18 0.924497)
)
;
    }
    upperWall
    {
        type            calculated;
        value           uniform (0 0 0);
    }
    lowerWall
    {
        type            calculated;
        value           uniform (0 0 0);
    }
    frontAndBack
    {
        type            empty;
    }
}


// ************************************************************************* //
