/*--------------------------------*- C++ -*----------------------------------*\
| =========                 |                                                 |
| \\      /  F ield         | OpenFOAM: The Open Source CFD Toolbox           |
|  \\    /   O peration     | Version:  dev                                   |
|   \\  /    A nd           | Web:      www.OpenFOAM.org                      |
|    \\/     M anipulation  |                                                 |
\*---------------------------------------------------------------------------*/
FoamFile
{
    version     2.0;
    format      ascii;
    class       volVectorField;
    location    "1.02";
    object      Force;
}
// * * * * * * * * * * * * * * * * * * * * * * * * * * * * * * * * * * * * * //

dimensions      [1 1 -2 0 0 0 0];

internalField   uniform (0 0 0);

boundaryField
{
    inlet
    {
        type            calculated;
        value           uniform (0 0 0);
    }
    outlet
    {
        type            calculated;
        value           uniform (0 0 0);
    }
    flap
    {
        type            calculated;
        value           nonuniform List<vector> 
33
(
(4.65944 2.03841e-22 -0.274321)
(4.5995 -5.94162e-18 -0.636104)
(4.50034 1.86063e-17 -0.982944)
(4.36081 1.83187e-17 -1.25766)
(4.19431 1.80368e-17 -1.46395)
(4.01625 1.13722e-17 -1.60763)
(3.83926 1.74645e-17 -1.69738)
(3.67306 -7.02645e-23 -1.74402)
(3.51626 -1.05072e-17 -1.75867)
(3.36339 -9.40395e-38 -1.74847)
(3.20983 -1.63709e-17 -1.71594)
(3.04745 3.90656e-22 -1.66055)
(2.86441 8.8368e-18 -1.57929)
(2.64218 2.95634e-22 -1.46284)
(2.34116 6.42925e-22 -1.29971)
(-0.0880742 -1.36782e-20 -0.160393)
(-0.212567 -5.97442e-19 -0.381024)
(-0.339372 5.20019e-22 -0.605322)
(-1.63111 0 0.0967715)
(-1.6305 1.35144e-17 0.226666)
(-1.62472 4.1039e-39 0.35693)
(-1.61593 -1.41483e-17 0.467609)
(-1.6065 -4.79887e-18 0.562661)
(-1.59846 -3.0122e-38 0.642145)
(-1.59335 -4.84118e-18 0.706748)
(-1.58989 7.05297e-38 0.75768)
(-1.58706 2.04437e-17 0.797065)
(-1.5843 -2.22143e-21 0.827223)
(-1.58076 1.59436e-17 0.84932)
(-1.57647 -2.50095e-22 0.86394)
(-1.57097 2.97199e-22 0.871634)
(-1.56234 2.53994e-21 0.871522)
(-1.5456 2.73397e-17 0.865119)
)
;
    }
    upperWall
    {
        type            calculated;
        value           uniform (0 0 0);
    }
    lowerWall
    {
        type            calculated;
        value           uniform (0 0 0);
    }
    frontAndBack
    {
        type            empty;
    }
}


// ************************************************************************* //
