/*--------------------------------*- C++ -*----------------------------------*\
| =========                 |                                                 |
| \\      /  F ield         | OpenFOAM: The Open Source CFD Toolbox           |
|  \\    /   O peration     | Version:  dev                                   |
|   \\  /    A nd           | Web:      www.OpenFOAM.org                      |
|    \\/     M anipulation  |                                                 |
\*---------------------------------------------------------------------------*/
FoamFile
{
    version     2.0;
    format      ascii;
    class       surfaceScalarField;
    location    "1.02";
    object      phi;
}
// * * * * * * * * * * * * * * * * * * * * * * * * * * * * * * * * * * * * * //

dimensions      [0 3 -1 0 0 0 0];

internalField   nonuniform List<scalar> 
5457
(
0.197855
0.00213844
0.195577
0.00227718
0.193117
0.00246444
0.190425
0.00270381
0.187492
0.00294879
0.184319
0.00319164
0.180899
0.00343905
0.177217
0.00369863
0.173258
0.00397284
0.169004
0.00426265
0.164436
0.0045706
0.159533
0.00490047
0.154271
0.0052543
0.148625
0.00563419
0.142567
0.00604255
0.13607
0.00648149
0.1291
0.00695305
0.121627
0.00745829
0.113616
0.0079972
0.105036
0.00856796
0.0958621
0.00916452
0.086076
0.00977909
0.075668
0.0104028
0.0646414
0.0110229
0.0530197
0.0116191
0.0408597
0.0121583
0.0282653
0.0125934
0.0154481
0.0128166
0.00321944
0.0122285
0.00321938
0.19964
0.0024923
0.198666
0.00324943
0.197383
0.00375198
0.195817
0.00428114
0.193962
0.00481939
0.191817
0.005356
0.189373
0.00590161
0.186622
0.00646767
0.183548
0.00706023
0.180138
0.00768142
0.176375
0.00833719
0.172237
0.00903594
0.167702
0.00978128
0.162746
0.010578
0.157343
0.0114315
0.151461
0.0123471
0.145068
0.0133289
0.138129
0.0143821
0.130605
0.0155068
0.122459
0.0167024
0.113651
0.0179636
0.104147
0.019276
0.0939207
0.0206234
0.0829525
0.0219873
0.07123
0.023339
0.0587675
0.024619
0.0456394
0.0257204
0.0320378
0.0264177
0.0181077
0.0261583
0.021327
0.199496
0.00298898
0.198594
0.00414953
0.197383
0.00496808
0.195913
0.0057619
0.194189
0.00655984
0.192203
0.00736117
0.189946
0.00817758
0.187413
0.00901926
0.184591
0.00989559
0.181469
0.0108131
0.178028
0.0117816
0.174251
0.012811
0.170117
0.0139072
0.165605
0.0150783
0.160688
0.0163334
0.155337
0.0176819
0.149517
0.0191321
0.143191
0.0206932
0.136314
0.0223691
0.12884
0.0241642
0.120713
0.0260818
0.11187
0.0281111
0.102249
0.0302395
0.0917752
0.0324566
0.0803605
0.0347509
0.0678937
0.0370839
0.054238
0.039375
0.0391122
0.0415427
0.0213899
0.0438804
0.0427168
0.199406
0.00357607
0.198506
0.00504696
0.197308
0.00617021
0.195855
0.00722641
0.194154
0.0082771
0.192199
0.00933508
0.189985
0.0104115
0.187506
0.0115166
0.184755
0.0126611
0.181718
0.0138593
0.17838
0.0151236
0.174728
0.0164615
0.170745
0.0178829
0.166413
0.0193991
0.161709
0.0210229
0.156606
0.0227681
0.151074
0.0246479
0.145075
0.026676
0.138566
0.0288639
0.131492
0.0312257
0.123787
0.0337769
0.115367
0.0365234
0.106131
0.0394693
0.0959581
0.0426253
0.0846849
0.046021
0.0720566
0.0497101
0.0577105
0.0537197
0.0411921
0.0580603
0.0218813
0.0631909
0.064598
0.199359
0.00420957
0.198448
0.00595471
0.197263
0.00736001
0.195826
0.00867385
0.194144
0.00997502
0.192214
0.0112849
0.190031
0.0126145
0.187589
0.0139771
0.18488
0.015386
0.18189
0.0168593
0.178608
0.0184105
0.17502
0.0200481
0.171111
0.0217848
0.166864
0.0236347
0.162259
0.0256142
0.15727
0.027741
0.151867
0.0300337
0.146017
0.0325108
0.139672
0.035194
0.132774
0.0381106
0.125248
0.0412925
0.116995
0.0447689
0.107877
0.0485803
0.0977228
0.0527751
0.0863302
0.05741
0.073403
0.0626349
0.0584724
0.0686488
0.0410016
0.0755302
0.0212157
0.0829763
0.0858135
0.199334
0.00486731
0.198416
0.00686961
0.197245
0.00853491
0.195829
0.0101002
0.194172
0.0116484
0.192272
0.0132048
0.190124
0.0147828
0.187722
0.0163986
0.185054
0.0180693
0.182111
0.0198136
0.178881
0.0216464
0.175349
0.0235798
0.171499
0.025628
0.167314
0.0278092
0.162772
0.0301428
0.157847
0.0326497
0.15251
0.0353545
0.146722
0.0382822
0.140431
0.0414696
0.133575
0.0449536
0.126072
0.0487851
0.117807
0.0530248
0.108634
0.0577463
0.0983351
0.0630688
0.0866459
0.0690953
0.0733133
0.0759646
0.0579341
0.084026
0.0399303
0.0935329
0.0201514
0.102755
0.105965
0.199324
0.00553455
0.198406
0.00778359
0.19725
0.00969388
0.195857
0.011504
0.194229
0.013293
0.192364
0.0150894
0.190257
0.0169105
0.187901
0.0187748
0.185284
0.0207027
0.182396
0.0227141
0.179223
0.0248254
0.175752
0.0270515
0.171966
0.0294086
0.167843
0.0319221
0.163358
0.0346144
0.158486
0.0375067
0.153192
0.0406315
0.147433
0.0440246
0.141154
0.0477336
0.134286
0.0518086
0.126727
0.0563327
0.118344
0.0613978
0.108993
0.06709
0.0984705
0.0735853
0.0864627
0.0810985
0.0726738
0.0897502
0.056902
0.0997954
0.0386739
0.11176
0.0191028
0.122325
0.125067
0.199322
0.00620238
0.198412
0.00868948
0.197275
0.010834
0.195909
0.0128806
0.194316
0.0149022
0.192493
0.016932
0.190435
0.0189902
0.188132
0.0210977
0.185575
0.0232777
0.18275
0.0255522
0.179644
0.027939
0.176241
0.0304551
0.172525
0.0331211
0.16847
0.035968
0.16405
0.0390211
0.159237
0.0423053
0.153991
0.0458606
0.148257
0.0497423
0.141977
0.0539984
0.135076
0.0586957
0.127444
0.0639526
0.118942
0.0698893
0.109377
0.0766465
0.0985618
0.084394
0.086243
0.0934119
0.0720547
0.103935
0.0559402
0.115907
0.03759
0.130108
0.0182629
0.141652
0.14333
0.199327
0.00686463
0.198428
0.00958299
0.197314
0.0119511
0.19598
0.0142244
0.194428
0.0164708
0.192653
0.0187266
0.190651
0.021015
0.18841
0.0233592
0.18592
0.025786
0.183168
0.028319
0.180138
0.0309772
0.176815
0.0337809
0.173178
0.0367558
0.169203
0.0399345
0.164865
0.0433476
0.160126
0.0470297
0.154941
0.0510297
0.149255
0.0554124
0.143001
0.0602367
0.136078
0.0656041
0.128382
0.0716359
0.119788
0.0784718
0.110075
0.0863509
0.0990015
0.0954595
0.086384
0.106023
0.0719219
0.118392
0.0555328
0.132293
0.0370338
0.148605
0.017875
0.160809
0.161205
0.199336
0.00751639
0.198453
0.0104605
0.197365
0.0130412
0.196068
0.0155308
0.194561
0.0179935
0.192841
0.020467
0.190901
0.0229777
0.188731
0.0255514
0.186317
0.0282191
0.183647
0.031005
0.180705
0.0339286
0.177475
0.0370155
0.173934
0.0402957
0.170058
0.0438035
0.165819
0.0475757
0.161178
0.0516569
0.156078
0.0561146
0.150467
0.0610078
0.144276
0.0664123
0.137399
0.0724661
0.129711
0.0793108
0.121052
0.0871183
0.111261
0.0961317
0.100079
0.106632
0.0872711
0.118824
0.072618
0.13304
0.0560212
0.148886
0.0373911
0.167233
0.0182432
0.179956
0.179448
0.199347
0.00815567
0.198486
0.0113152
0.197429
0.0140989
0.196174
0.0167958
0.194719
0.019465
0.19306
0.0221465
0.191189
0.0248709
0.189095
0.0276683
0.186765
0.0305699
0.184187
0.0335994
0.181347
0.0367807
0.178224
0.0401437
0.174797
0.0437229
0.17104
0.0475553
0.166924
0.0516826
0.162405
0.0561629
0.157433
0.0610725
0.15195
0.0664755
0.145866
0.0724806
0.139091
0.0792267
0.131505
0.0868822
0.122916
0.0956945
0.113172
0.105864
0.10205
0.117745
0.0892497
0.131616
0.074552
0.147731
0.0578799
0.165554
0.0392027
0.185908
0.0198376
0.19932
0.199285
0.199363
0.00877823
0.198526
0.0121433
0.197505
0.0151211
0.196295
0.0180146
0.194897
0.0208795
0.193305
0.0237593
0.191509
0.0266894
0.189498
0.0297037
0.187261
0.0328277
0.184789
0.0360896
0.182062
0.039521
0.179064
0.0431496
0.175771
0.0470179
0.172156
0.0511664
0.168192
0.0556393
0.163828
0.0605151
0.159024
0.0658632
0.153723
0.0717622
0.147834
0.0783536
0.141254
0.0857925
0.133875
0.0942467
0.125549
0.104006
0.116061
0.11534
0.105219
0.128575
0.092737
0.144089
0.0783668
0.162094
0.061948
0.181968
0.0434251
0.204428
0.0236134
0.219131
0.222899
0.199382
0.0093799
0.198572
0.0129442
0.197589
0.0161043
0.196431
0.0191813
0.195094
0.0222318
0.193574
0.0253005
0.19186
0.0284269
0.189943
0.0316445
0.187813
0.0349809
0.185454
0.0384681
0.182853
0.0421361
0.179997
0.0460157
0.176856
0.0501622
0.173408
0.0546132
0.169624
0.0594169
0.165466
0.064664
0.160886
0.0704305
0.155818
0.0768162
0.150206
0.0839508
0.143958
0.0920266
0.13694
0.101249
0.129061
0.11187
0.120132
0.124255
0.10997
0.138725
0.0983316
0.155717
0.0849611
0.175457
0.0694975
0.197426
0.0518493
0.222074
0.031684
0.239296
0.254583
0.199402
0.00995967
0.198622
0.0137137
0.197682
0.0170437
0.19658
0.0202918
0.19531
0.023517
0.193867
0.0267644
0.192243
0.0300747
0.19043
0.033482
0.188411
0.0370235
0.186175
0.0407248
0.183718
0.0446099
0.181017
0.0487281
0.17805
0.0531353
0.174799
0.0578647
0.171229
0.0629829
0.167311
0.0685747
0.163011
0.0747194
0.158267
0.0815478
0.153016
0.0891871
0.147216
0.0978129
0.140767
0.107683
0.133593
0.119027
0.125606
0.132227
0.116662
0.147656
0.106641
0.165727
0.0953796
0.18671
0.0824592
0.210341
0.0679
0.23663
0.0487801
0.258415
0.303363
0.19942
0.0105196
0.198672
0.0144496
0.197776
0.017938
0.19673
0.0213458
0.195528
0.0247337
0.194166
0.0281474
0.192636
0.0316283
0.190927
0.0352169
0.189023
0.0389514
0.186923
0.0428475
0.184616
0.0469344
0.18208
0.0512781
0.1793
0.0559233
0.176261
0.0609066
0.172933
0.066309
0.169285
0.0722167
0.165294
0.0787012
0.16093
0.0859006
0.156136
0.0939681
0.150902
0.103033
0.145202
0.113369
0.138984
0.125228
0.132265
0.13893
0.125078
0.154828
0.117555
0.173238
0.109892
0.194365
0.102231
0.217997
0.0951978
0.243661
0.0846353
0.268977
0.387999
0.00738463
-0.00738528
0.0122295
-0.00484805
0.0161191
-0.00389967
0.0189934
-0.00289492
0.0203831
-0.00142025
0.0199467
0.000401226
0.0177122
0.00220043
0.013957
0.00372453
0.00899821
0.00493097
0.00314578
0.00582849
-0.0032826
0.00640951
-0.0100452
0.00674607
-0.0169732
0.00691208
-0.0239038
0.00691611
-0.030661
0.00674512
-0.0370725
0.00640294
-0.0429552
0.00587876
-0.0481213
0.00516756
-0.0523853
0.00427143
-0.0555644
0.00319261
-0.0574917
0.00194703
-0.0579628
0.00049656
-0.0566739
-0.00125826
-0.0532707
-0.00336774
-0.0474631
-0.00576816
-0.0389507
-0.00846967
-0.0271943
-0.0117109
-0.0106954
-0.0164512
0.0134325
-0.0240785
-0.0302432
0.00291618
-0.0103022
0.00529877
-0.00723403
0.00659321
-0.00520458
0.00626589
-0.00258859
0.00423595
0.000579223
0.000788519
0.00381415
-0.00380989
0.00676565
-0.00936042
0.00924528
-0.0156738
0.0112172
-0.022551
0.0126818
-0.0298453
0.0136847
-0.0374183
0.0143025
-0.0450825
0.0145601
-0.0526671
0.014486
-0.0600055
0.0140711
-0.0669163
0.0133049
-0.0732253
0.0121836
-0.0787505
0.010694
-0.0833102
0.00883826
-0.0867236
0.00661935
-0.0888153
0.00405822
-0.0894174
0.00112382
-0.088364
-0.00228114
-0.0854986
-0.00619789
-0.0806773
-0.0105502
-0.0737544
-0.0153501
-0.0645782
-0.0208418
-0.0534086
-0.0275733
-0.0420744
-0.0353633
-0.0421427
5.71787e-05
-0.0103601
-0.000557258
-0.00662322
-0.00232061
-0.00345198
-0.00537834
0.000448343
-0.00948518
0.00465678
-0.0144994
0.00879584
-0.0202939
0.0125289
-0.0267209
0.0156439
-0.0336533
0.0181234
-0.0409853
0.0199903
-0.0486103
0.0212904
-0.0564255
0.0221007
-0.0642983
0.0224164
-0.0720735
0.022246
-0.0796083
0.021593
-0.0867389
0.0204263
-0.0933012
0.0187412
-0.0991264
0.0165198
-0.104046
0.0137648
-0.107893
0.0104786
-0.110496
0.00667996
-0.111731
0.00238423
-0.111518
-0.00246443
-0.109801
-0.00788062
-0.106539
-0.0137733
-0.101759
-0.0200876
-0.0956504
-0.0269054
-0.0888406
-0.0343359
-0.0822645
-0.0418904
-0.0482232
-0.00217645
-0.00818449
-0.00536891
-0.00343457
-0.00949673
0.000665037
-0.0144171
0.00534886
-0.0200177
0.0102303
-0.0261634
0.0149119
-0.0327336
0.0190705
-0.0396595
0.0225433
-0.0468916
0.0253305
-0.0544015
0.0274771
-0.062135
0.0290043
-0.0700105
0.0299585
-0.0779381
0.0303269
-0.0857918
0.0300837
-0.0934351
0.0292228
-0.100725
0.0277065
-0.107505
0.0255157
-0.113611
0.0226255
-0.118879
0.019038
-0.123152
0.0147644
-0.126282
0.00982726
-0.128161
0.00428724
-0.128758
-0.00183819
-0.12809
-0.00851394
-0.126182
-0.0156433
-0.123145
-0.0230829
-0.11927
-0.0307364
-0.115106
-0.0384531
-0.111244
-0.0457032
-0.0514356
-0.00402194
-0.00416343
-0.00920071
0.00174025
-0.0150459
0.0064997
-0.0213932
0.0116776
-0.028076
0.0168889
-0.0349432
0.0217528
-0.0419428
0.0260445
-0.0490923
0.0296685
-0.0564141
0.0326286
-0.063927
0.0349675
-0.0716231
0.0366805
-0.0794447
0.0377618
-0.0873199
0.0381842
-0.0951523
0.0378995
-0.102818
0.0368742
-0.11018
0.0350571
-0.117087
0.0324169
-0.123389
0.0289265
-0.128927
0.0245806
-0.133562
0.0194109
-0.137174
0.0134562
-0.139671
0.00680652
-0.14104
-0.000440872
-0.14132
-0.00820006
-0.14058
-0.0163466
-0.138967
-0.024655
-0.136774
-0.0328853
-0.134441
-0.0407395
-0.132416
-0.0476799
-0.0528705
-0.00544288
0.00127852
-0.0121673
0.00846068
-0.0193369
0.0136594
-0.0266871
0.0190112
-0.0340038
0.0241846
-0.0412137
0.0289399
-0.0483441
0.0331522
-0.055485
0.0367871
-0.0627199
0.0398412
-0.0700986
0.0423243
-0.077638
0.0441998
-0.0853072
0.045412
-0.0930521
0.0459104
-0.100792
0.0456217
-0.108413
0.0444808
-0.115791
0.0424228
-0.122779
0.039398
-0.12924
0.0353858
-0.135035
0.0303789
-0.140031
0.0244172
-0.144121
0.0175624
-0.14722
0.00992734
-0.149295
0.00166133
-0.150399
-0.00706339
-0.150652
-0.0160571
-0.150201
-0.0250662
-0.149308
-0.0337356
-0.148327
-0.0416745
-0.147622
-0.048337
-0.0530798
-0.00653127
0.00780884
-0.0144754
0.0164009
-0.0225459
0.0217208
-0.0304125
0.0268633
-0.0379283
0.0316824
-0.0451248
0.0361168
-0.0521184
0.0401257
-0.0590535
0.0437018
-0.0660499
0.0468167
-0.0731785
0.0494318
-0.0804712
0.0514723
-0.0879193
0.0528405
-0.0954788
0.0534506
-0.103077
0.0532017
-0.110611
0.0519987
-0.117965
0.0497652
-0.125014
0.0464384
-0.131624
0.0419932
-0.137669
0.0364266
-0.143021
0.0297784
-0.147573
0.0221291
-0.15124
0.0136154
-0.153987
0.00443432
-0.155857
-0.00516176
-0.156976
-0.0149027
-0.157492
-0.0245112
-0.157631
-0.0335537
-0.157689
-0.0415717
-0.157971
-0.0480083
-0.0523901
-0.00738016
0.015188
-0.0161656
0.0251827
-0.0246452
0.0301923
-0.0325333
0.0347391
-0.039827
0.0389609
-0.0466837
0.0429568
-0.0533024
0.0467266
-0.0598623
0.050243
-0.0664976
0.0534323
-0.0732893
0.0562032
-0.0802741
0.058437
-0.0874542
0.0600007
-0.0947917
0.0607683
-0.102219
0.0606104
-0.109647
0.0594109
-0.116972
0.0570769
-0.12408
0.0535375
-0.130846
0.0487557
-0.137146
0.0427281
-0.142857
0.0354972
-0.14787
0.0271565
-0.1521
0.0178649
-0.155499
0.00785878
-0.158085
-0.0025459
-0.159966
-0.0129869
-0.161299
-0.0231398
-0.162278
-0.0325332
-0.163155
-0.0406515
-0.164194
-0.0469227
-0.051014
-0.00798665
0.0231738
-0.0171565
0.0343494
-0.0254968
0.0385256
-0.0328941
0.0421261
-0.0395656
0.0456197
-0.0457966
0.0491732
-0.0518427
0.0527568
-0.0578921
0.056275
-0.0640762
0.0595978
-0.0704742
0.0625816
-0.0771194
0.0650624
-0.0840105
0.0668716
-0.091111
0.0678489
-0.0983624
0.0678431
-0.105688
0.0667196
-0.112993
0.0643691
-0.120174
0.0607086
-0.127113
0.0556901
-0.133689
0.049305
-0.13978
0.0415953
-0.145273
0.0326628
-0.150073
0.022683
-0.15411
0.0119205
-0.157364
0.000736719
-0.159918
-0.0103988
-0.161955
-0.0210656
-0.163632
-0.0308164
-0.165166
-0.0390737
-0.166799
-0.0452443
-0.049109
-0.00830037
0.0314732
-0.0172834
0.0433296
-0.0248409
0.0460773
-0.0312289
0.0485056
-0.0369272
0.0513071
-0.042308
0.0545414
-0.0476387
0.0580731
-0.0530932
0.0617133
-0.0587831
0.0652701
-0.0647673
0.0685469
-0.0710627
0.071338
-0.0776592
0.0734481
-0.0845232
0.074693
-0.0916049
0.0749058
-0.0988375
0.0739354
-0.106138
0.071656
-0.113411
0.0679711
-0.120545
0.0628193
-0.127421
0.056181
-0.133911
0.0480916
-0.139891
0.0386548
-0.145249
0.0280589
-0.149902
0.0165967
-0.153823
0.00468508
-0.157039
-0.00715043
-0.159701
-0.0183668
-0.16197
-0.0285075
-0.164047
-0.0369552
-0.166154
-0.0430919
-0.0467908
-0.00822246
0.0396949
-0.0162288
0.0513335
-0.0222601
0.0521037
-0.0271701
0.0534083
-0.0316389
0.0557664
-0.036042
0.0589331
-0.0406072
0.0626248
-0.0454566
0.0665474
-0.050656
0.0704525
-0.0562259
0.0740984
-0.0621663
0.0772592
-0.0684634
0.0797254
-0.0750909
0.0813008
-0.0820065
0.0818027
-0.0891531
0.0810652
-0.0964583
0.0789473
-0.103835
0.0753379
-0.11118
0.0701586
-0.118372
0.0633732
-0.125281
0.0550051
-0.131772
0.0451569
-0.137724
0.0340275
-0.143035
0.0219304
-0.147632
0.00930877
-0.151484
-0.00326711
-0.154711
-0.0151048
-0.157499
-0.0256808
-0.160033
-0.0343797
-0.162532
-0.0405488
-0.0441343
-0.00746331
0.0471576
-0.0133781
0.0572463
-0.0171492
0.0558705
-0.0202859
0.0565387
-0.0234674
0.0589394
-0.0269258
0.0623809
-0.0307743
0.0664607
-0.035052
0.0708104
-0.0397695
0.0751537
-0.0449207
0.0792317
-0.0504972
0.0828169
-0.0564874
0.0856963
-0.0628704
0.0876644
-0.0696117
0.0885257
-0.0766642
0.0881011
-0.083967
0.0862363
-0.0914459
0.0828066
-0.0990068
0.0777138
-0.106534
0.0708993
-0.113893
0.0623691
-0.120945
0.0522188
-0.127548
0.0406467
-0.133566
0.0279697
-0.138869
0.0146371
-0.143351
0.0012458
-0.147097
-0.0113247
-0.15036
-0.0223804
-0.153298
-0.0314007
-0.156136
-0.0376678
-0.0411814
-0.0051727
0.0523297
-0.00765421
0.059726
-0.00887514
0.0570877
-0.0103788
0.0580365
-0.0124477
0.0610004
-0.0150861
0.0650092
-0.0182765
0.069639
-0.0220005
0.0745203
-0.026234
0.0793711
-0.03096
0.0839404
-0.0361597
0.0879984
-0.0418248
0.0913425
-0.0479399
0.0937607
-0.0544779
0.0950458
-0.0614015
0.0950085
-0.0686642
0.0934855
-0.0762107
0.090343
-0.0839643
0.0854616
-0.0918185
0.0787525
-0.0996406
0.0701956
-0.107278
0.0598663
-0.114557
0.04794
-0.121284
0.034717
-0.127291
0.0206697
-0.132515
0.00649892
-0.13691
-0.00689612
-0.140647
-0.0186065
-0.143967
-0.0280414
-0.14712
-0.0344727
-0.0379437
2.4012e-05
0.0523052
0.00167496
0.0580732
0.00261243
0.0561465
0.0022744
0.0583689
0.00112537
0.0621417
-0.000754231
0.066879
-0.00331208
0.072185
-0.00648741
0.0776818
-0.0102338
0.0831018
-0.0145255
0.0882153
-0.0193233
0.0927787
-0.0246296
0.0966306
-0.0304344
0.0995474
-0.0367139
0.101308
-0.043439
0.101718
-0.0505794
0.100613
-0.0581067
0.0978606
-0.0659713
0.0933205
-0.0740833
0.0868635
-0.0823176
0.0784338
-0.0905232
0.0680812
-0.0985091
0.0559403
-0.106057
0.0422846
-0.11297
0.0276066
-0.119076
0.0126338
-0.12418
-0.00175984
-0.128406
-0.0143448
-0.132121
-0.0242878
-0.135597
-0.030955
-0.0344062
0.0110525
0.0412521
0.0159886
0.0531351
0.0165947
0.0555367
0.0168532
0.0581048
0.0166133
0.062374
0.0155651
0.0679175
0.0137369
0.0740016
0.011196
0.0802091
0.00800578
0.0862767
0.00420748
0.0919972
-0.000191885
0.0971611
-0.00514851
0.10157
-0.0105988
0.104981
-0.0165441
0.107237
-0.0229673
0.108126
-0.029851
0.107484
-0.0372076
0.105208
-0.0450245
0.101132
-0.0532347
0.0950726
-0.0617327
0.0869356
-0.0704046
0.0767619
-0.0790868
0.0646364
-0.0875526
0.0507692
-0.0955265
0.0356039
-0.102675
0.0198098
-0.108699
0.00429629
-0.1136
-0.00940909
-0.117797
-0.0200529
-0.121651
-0.0270608
-0.030525
0.207087
0.0110699
0.206354
0.0151676
0.205481
0.0188079
0.204465
0.0223689
0.203302
0.025912
0.201988
0.0294831
0.200513
0.0331274
0.198864
0.0368928
0.197034
0.0408073
0.195023
0.0448826
0.192816
0.0491618
0.1904
0.0537105
0.18776
0.0585738
0.184876
0.0637954
0.181742
0.0694436
0.178336
0.0756189
0.174627
0.0824035
0.170622
0.0898956
0.166324
0.0982543
0.16172
0.107624
0.156846
0.118228
0.151762
0.130295
0.146625
0.144049
0.141729
0.159708
0.137585
0.177369
0.135077
0.196864
0.135671
0.217397
0.141842
0.237488
0.157183
0.253637
0.261058
0.284125
0.212126
0.0116034
0.211419
0.0158573
0.210581
0.0196393
0.209613
0.0233426
0.208511
0.027029
0.207269
0.030746
0.205877
0.0345457
0.204323
0.0384742
0.202607
0.0425503
0.200724
0.046791
0.198663
0.0512461
0.196418
0.0559727
0.193978
0.0610269
0.191328
0.0664535
0.188465
0.0723096
0.185384
0.078699
0.182081
0.0857005
0.178588
0.0933804
0.174939
0.101893
0.171157
0.111394
0.167354
0.122015
0.163722
0.133908
0.160577
0.147175
0.158446
0.161822
0.1582
0.177601
0.161226
0.193828
0.169547
0.20907
0.186047
0.220986
0.212255
0.227429
0.234585
0.238729
0.217292
0.0121134
0.21662
0.0165115
0.215826
0.0204248
0.214913
0.0242574
0.213883
0.0280725
0.212726
0.0319242
0.21143
0.035868
0.209991
0.0399408
0.208411
0.0441593
0.206681
0.048548
0.204797
0.0531541
0.202753
0.0580366
0.200549
0.0632468
0.198186
0.0688266
0.195657
0.0748446
0.192974
0.0813822
0.190181
0.0884902
0.187309
0.0962463
0.184414
0.104779
0.181607
0.114191
0.179066
0.124542
0.177072
0.135884
0.176064
0.148163
0.176699
0.161171
0.179862
0.174424
0.186593
0.187087
0.197625
0.198033
0.212734
0.205876
0.229922
0.210242
0.212095
0.252414
0.222589
0.012594
0.221957
0.017124
0.221215
0.0211578
0.220368
0.0251043
0.219418
0.029032
0.218355
0.0330065
0.217171
0.0370782
0.215865
0.0412747
0.214439
0.0456153
0.212888
0.0501274
0.21121
0.0548583
0.209402
0.059866
0.207476
0.0651909
0.205438
0.0708772
0.203297
0.0769938
0.201089
0.0835939
0.198871
0.0907073
0.196694
0.0984194
0.194654
0.106812
0.192917
0.115918
0.191713
0.125734
0.191377
0.136202
0.192365
0.147155
0.195237
0.15828
0.200558
0.169089
0.20873
0.178904
0.219732
0.187025
0.233139
0.192467
0.248758
0.194623
0.192644
0.26821
0.228017
0.0130425
0.22743
0.01769
0.22675
0.0218265
0.225983
0.0258689
0.225125
0.0298979
0.224164
0.0339832
0.223105
0.0381611
0.221953
0.042456
0.220703
0.0468944
0.219356
0.0515044
0.217909
0.0563327
0.216376
0.0614229
0.214764
0.0668226
0.213088
0.0725692
0.211385
0.0787064
0.209704
0.0852807
0.208112
0.0923017
0.206688
0.0998414
0.205562
0.107932
0.204929
0.116543
0.205037
0.125615
0.206199
0.135025
0.208763
0.144571
0.213088
0.153937
0.219459
0.162704
0.227984
0.170369
0.238596
0.176407
0.25098
0.18008
0.264619
0.180984
0.178295
0.278969
0.233577
0.0134564
0.233044
0.0182004
0.232439
0.022418
0.231765
0.0265406
0.231007
0.0306619
0.23016
0.0348432
0.22924
0.0391021
0.228257
0.043466
0.227209
0.0479717
0.226088
0.0526556
0.224899
0.0575497
0.223665
0.0626824
0.222395
0.0681144
0.221125
0.0738565
0.219906
0.0799378
0.218793
0.0864013
0.217867
0.0932325
0.217227
0.100481
0.217025
0.108131
0.217449
0.116114
0.21871
0.124345
0.221044
0.132678
0.224689
0.140911
0.229857
0.148754
0.236684
0.155863
0.245178
0.161864
0.255225
0.166354
0.266394
0.168907
0.277994
0.169382
0.166721
0.289569
0.239276
0.0138297
0.238806
0.0186457
0.238285
0.0229253
0.237707
0.0271141
0.237059
0.0313133
0.236346
0.0355687
0.235585
0.0398819
0.234788
0.0442862
0.233954
0.0488337
0.233074
0.0535647
0.232169
0.0584837
0.231257
0.0636208
0.230365
0.069029
0.229543
0.0746973
0.228839
0.0806564
0.228326
0.0869253
0.228082
0.0934825
0.228218
0.100346
0.228877
0.107471
0.230212
0.114775
0.232389
0.12216
0.235583
0.129473
0.239958
0.136522
0.245616
0.143082
0.252595
0.148873
0.260877
0.153572
0.270283
0.156941
0.280375
0.158811
0.290649
0.159106
0.156618
0.300751
0.24512
0.0141551
0.244719
0.0190196
0.244287
0.0233417
0.243811
0.0275835
0.243285
0.031842
0.242724
0.0361403
0.242144
0.0404788
0.241548
0.0449036
0.240935
0.0494727
0.240319
0.054208
0.239723
0.0591071
0.239165
0.0642062
0.238687
0.0695299
0.238336
0.0750691
0.238163
0.0808451
0.238245
0.0868549
0.238657
0.0930787
0.239504
0.099503
0.240908
0.106068
0.242993
0.112688
0.245893
0.119255
0.249729
0.125628
0.254587
0.131654
0.260512
0.137146
0.267522
0.141853
0.275534
0.145551
0.284334
0.148135
0.293598
0.149542
0.302972
0.14973
0.147503
0.312085
0.25111
0.0144258
0.250785
0.0193161
0.250445
0.0236633
0.250079
0.0279412
0.249692
0.0322298
0.249302
0.0365387
0.248916
0.0408801
0.248534
0.0453058
0.248168
0.0498618
0.247844
0.0545581
0.247576
0.0594014
0.247393
0.064415
0.24734
0.0696061
0.247458
0.0749717
0.247804
0.0805162
0.248446
0.0862262
0.249458
0.0920763
0.250936
0.0980311
0.252981
0.104026
0.255694
0.109975
0.259168
0.115777
0.263469
0.12132
0.268641
0.126473
0.274729
0.131049
0.28171
0.134864
0.289437
0.137816
0.29772
0.139846
0.306333
0.140924
0.315021
0.141039
0.139083
0.323439
0.257251
0.0146346
0.257007
0.0195288
0.256766
0.0238836
0.256525
0.0281713
0.256296
0.0324567
0.25609
0.0367518
0.255907
0.041076
0.255757
0.0454733
0.255662
0.0499791
0.255638
0.0546055
0.255706
0.0593579
0.255902
0.0642441
0.256264
0.0692667
0.256836
0.0744205
0.257673
0.0796968
0.258837
0.0850759
0.260398
0.0905258
0.262437
0.0960002
0.265034
0.101434
0.268266
0.106745
0.272186
0.111856
0.276827
0.116676
0.282238
0.121057
0.288429
0.124852
0.295313
0.127974
0.302759
0.130364
0.310623
0.131978
0.31873
0.132812
0.326893
0.132872
0.131153
0.33482
0.263546
0.0147745
0.263391
0.0196501
0.263261
0.0239898
0.26316
0.0282588
0.263098
0.0325147
0.263081
0.0367728
0.263113
0.041054
0.263208
0.0453939
0.263385
0.0498216
0.263665
0.0543478
0.264072
0.0589738
0.26464
0.0636995
0.265406
0.0685221
0.266415
0.0734317
0.267717
0.0784124
0.269367
0.0834401
0.271426
0.0884787
0.273957
0.0934775
0.277023
0.0983739
0.280677
0.103095
0.28495
0.107584
0.28987
0.111755
0.29546
0.115464
0.301679
0.118629
0.308441
0.121208
0.315647
0.123154
0.323174
0.124447
0.33089
0.125093
0.338654
0.125106
0.123583
0.346222
0.269998
0.0148392
0.269939
0.0196717
0.269931
0.023972
0.269977
0.0281964
0.270086
0.0323984
0.270264
0.0365955
0.270518
0.0408077
0.270861
0.0450632
0.271315
0.0493849
0.271901
0.0537814
0.272645
0.0582505
0.273579
0.0627872
0.274738
0.0673834
0.276164
0.072025
0.277901
0.0766918
0.279997
0.0813586
0.2825
0.0859879
0.28546
0.0905261
0.288925
0.094916
0.292927
0.0990985
0.297491
0.103023
0.302634
0.106613
0.308336
0.109761
0.314546
0.112417
0.321197
0.114555
0.328202
0.116146
0.335463
0.117184
0.342874
0.117679
0.350327
0.11765
0.116288
0.35762
0.276609
0.0148236
0.276654
0.019587
0.276773
0.0238232
0.276972
0.0279783
0.277257
0.032103
0.277635
0.0362152
0.278115
0.0403325
0.278711
0.0444769
0.279443
0.0486663
0.280335
0.0529068
0.28141
0.0571937
0.282698
0.0615175
0.284234
0.0658664
0.286054
0.0702231
0.288197
0.0745643
0.290698
0.0788714
0.293591
0.0831068
0.296922
0.0872048
0.300727
0.0911186
0.305023
0.0948088
0.309824
0.0982268
0.31513
0.10131
0.320907
0.103987
0.327101
0.106223
0.333655
0.108001
0.340496
0.109304
0.347544
0.110135
0.354716
0.110507
0.361926
0.110438
0.10921
0.369004
0.283382
0.0147226
0.283536
0.0193905
0.283789
0.0235378
0.284145
0.0275996
0.28461
0.0316238
0.285192
0.0356276
0.285901
0.0396252
0.286751
0.0436333
0.287761
0.0476663
0.288953
0.0517283
0.29035
0.055812
0.29198
0.0599041
0.293873
0.0639905
0.29606
0.0680517
0.29857
0.0720691
0.301429
0.0760255
0.304675
0.0798719
0.30834
0.0835493
0.312439
0.0870267
0.316983
0.0902712
0.321974
0.0932415
0.3274
0.0958886
0.333224
0.0981668
0.339398
0.100052
0.34587
0.10153
0.352579
0.102596
0.359457
0.103256
0.366438
0.103526
0.373455
0.10342
0.102303
0.380362
0.290322
0.0145323
0.290589
0.0190775
0.290979
0.0231117
0.291496
0.0270562
0.292145
0.0309573
0.292934
0.0348301
0.293871
0.0386849
0.294974
0.0425338
0.296259
0.0463885
0.297744
0.0502533
0.299451
0.0541172
0.301408
0.0579611
0.303636
0.0617763
0.306155
0.0655463
0.308992
0.0692442
0.312182
0.0728476
0.315752
0.0763122
0.319712
0.079598
0.324065
0.0826802
0.328816
0.085527
0.333958
0.0881057
0.339474
0.0903783
0.345331
0.092315
0.351484
0.0939013
0.357888
0.095129
0.364488
0.0959977
0.37123
0.0965155
0.378058
0.0966978
0.384919
0.0965588
0.0955367
0.391687
0.297431
0.0142491
0.297814
0.0186447
0.298344
0.0225417
0.299025
0.0263456
0.299861
0.0301006
0.300857
0.0338205
0.302024
0.0375121
0.303374
0.0411827
0.304927
0.044839
0.306697
0.0484897
0.308698
0.0521245
0.310957
0.0557124
0.313495
0.0592491
0.316327
0.0627253
0.319478
0.0661043
0.322973
0.0693616
0.326824
0.0724705
0.331031
0.0753984
0.335598
0.0781195
0.34052
0.0806108
0.345787
0.0828451
0.351378
0.0847931
0.357261
0.0864374
0.363396
0.0877695
0.369743
0.0887854
0.376255
0.0894878
0.382886
0.0898858
0.38959
0.0899944
0.396323
0.089826
0.0888857
0.402975
0.304712
0.0138702
0.305214
0.0180898
0.305886
0.0218263
0.306731
0.0254667
0.307755
0.0290521
0.308964
0.0325949
0.310359
0.0361061
0.311947
0.0395891
0.313751
0.0430352
0.31579
0.0464534
0.318077
0.049842
0.320626
0.0531705
0.323455
0.0564278
0.326583
0.0596045
0.330023
0.0626723
0.333785
0.0656069
0.337878
0.0683849
0.3423
0.0709816
0.34705
0.0733749
0.352118
0.0755477
0.35749
0.0774786
0.363144
0.0791452
0.369048
0.0805377
0.375169
0.0816522
0.381469
0.082488
0.387909
0.0830498
0.394449
0.0833468
0.401051
0.083393
0.407678
0.0831995
0.082332
0.414232
0.31217
0.0133929
0.312793
0.0174103
0.313608
0.0209641
0.314617
0.02442
0.315826
0.0278142
0.31724
0.0311599
0.318858
0.0344727
0.320686
0.0377525
0.322736
0.0409802
0.325031
0.0441568
0.327588
0.0472852
0.330414
0.0503476
0.333517
0.0533289
0.336912
0.0562141
0.340607
0.0589817
0.344608
0.0616107
0.348916
0.0640811
0.353528
0.0663733
0.358436
0.0684694
0.36363
0.0703573
0.369093
0.0720209
0.3748
0.0734425
0.380724
0.0746172
0.386835
0.0755449
0.393097
0.0762272
0.399479
0.0766698
0.405944
0.0768818
0.412462
0.076876
0.418999
0.0766623
0.075861
0.42547
0.319809
0.012815
0.320554
0.0166043
0.321513
0.0199535
0.322687
0.0232049
0.324077
0.0263912
0.325685
0.029526
0.327517
0.0326218
0.32958
0.0356759
0.331879
0.038672
0.334425
0.0416049
0.337233
0.0444738
0.340311
0.0472683
0.343666
0.0499741
0.347305
0.052576
0.351232
0.0550562
0.355447
0.057397
0.359948
0.0595816
0.364728
0.0615944
0.369776
0.0634213
0.37508
0.0650546
0.380622
0.066482
0.386379
0.0676894
0.392323
0.0686754
0.398427
0.0694426
0.404661
0.069994
0.410995
0.0703357
0.4174
0.0704768
0.423846
0.0704285
0.430307
0.0701999
0.0694604
0.436707
0.32763
0.0121354
0.328499
0.0156712
0.329603
0.0187947
0.330939
0.0218226
0.332508
0.0247855
0.334309
0.0276949
0.336349
0.0305584
0.338634
0.0333726
0.341167
0.0361251
0.343953
0.0388084
0.347
0.0414184
0.350316
0.0439471
0.353904
0.0463822
0.357767
0.0487102
0.361904
0.0509163
0.366313
0.0529859
0.370987
0.0549051
0.375918
0.0566617
0.381092
0.0582447
0.386495
0.0596499
0.39211
0.0608682
0.397912
0.061888
0.403877
0.0627104
0.40998
0.0633396
0.416193
0.0637796
0.422491
0.0640367
0.428846
0.0641193
0.435235
0.0640376
0.441632
0.0637998
0.0631195
0.447971
0.335639
0.011354
0.33663
0.014612
0.337876
0.0174895
0.339373
0.0202763
0.341117
0.023
0.343108
0.0256691
0.345351
0.0282875
0.347849
0.0308515
0.350604
0.0333518
0.353617
0.0357806
0.356891
0.0381319
0.36043
0.0403982
0.364234
0.0425694
0.368303
0.0446337
0.372634
0.0465791
0.37722
0.0483937
0.382053
0.0500666
0.387121
0.0515879
0.39241
0.0529498
0.397905
0.0541504
0.403588
0.0551833