/*--------------------------------*- C++ -*----------------------------------*\
| =========                 |                                                 |
| \\      /  F ield         | OpenFOAM: The Open Source CFD Toolbox           |
|  \\    /   O peration     | Version:  dev                                   |
|   \\  /    A nd           | Web:      www.OpenFOAM.org                      |
|    \\/     M anipulation  |                                                 |
\*---------------------------------------------------------------------------*/
FoamFile
{
    version     2.0;
    format      ascii;
    class       surfaceVectorField;
    location    "3.32";
    object      Uf;
}
// * * * * * * * * * * * * * * * * * * * * * * * * * * * * * * * * * * * * * //

dimensions      [0 1 -1 0 0 0 0];

internalField   nonuniform List<vector> 
881
(
(-1.88815 -2.65969e-21 0.395655)
(0.231603 -8.52315e-22 0.870277)
(-0.334217 2.82154e-22 0.598117)
(1.81633 -1.68214e-21 1.11455)
(4.38151 -6.82811e-22 1.81794)
(0.858049 -5.86336e-21 0.78147)
(3.40754 1.05625e-21 1.45739)
(-0.0504467 1.00548e-21 0.518995)
(2.505 6.60506e-22 1.17345)
(1.53651 0 0.927162)
(6.0282 4.85854e-22 2.12266)
(8.21933 9.57927e-22 2.74901)
(5.06606 -1.12104e-22 1.75534)
(7.32047 2.33072e-22 2.34047)
(4.15285 -3.53505e-22 1.44857)
(6.44307 6.09426e-22 1.9934)
(3.28048 -6.236e-22 1.18651)
(5.5843 -6.25794e-22 1.69378)
(4.77373 -6.52881e-22 1.4388)
(9.56121 5.75499e-22 2.98656)
(11.2651 9.05112e-22 3.5307)
(8.74079 8.91822e-22 2.59105)
(10.544 0 3.10977)
(7.93041 2.87178e-22 2.24585)
(9.81291 8.80945e-22 2.73684)
(7.13565 -3.16051e-22 1.94218)
(9.08259 -2.66459e-21 2.40723)
(6.36577 -3.868e-22 1.6756)
(8.36252 5.99668e-22 2.11524)
(5.62622 -7.8385e-22 1.44459)
(7.65951 -1.96023e-21 1.85732)
(6.97824 8.23681e-22 1.63186)
(12.286 4.36252e-22 3.67812)
(13.516 -1.25946e-22 4.12064)
(11.6549 -1.98303e-22 3.2786)
(12.9977 0 3.71474)
(11.0081 -2.11686e-21 2.91885)
(12.4494 1.64987e-22 3.34336)
(10.3556 -1.85161e-21 2.59608)
(11.8825 -1.31947e-21 3.00599)
(9.70434 -9.58114e-22 2.30738)
(11.3059 7.27614e-22 2.70018)
(9.0598 -4.588e-22 2.05043)
(10.7264 -6.93681e-22 2.42409)
(8.42745 1.22048e-21 1.82317)
(10.1491 1.98911e-22 2.17643)
(7.81272 4.53149e-22 1.62322)
(9.57923 1.11837e-21 1.95565)
(9.02193 -1.57077e-21 1.75947)
(14.2548 -5.75939e-22 4.17865)
(15.0673 1.83505e-21 4.51135)
(13.8215 5.11811e-22 3.79959)
(14.7452 -3.74147e-21 4.13975)
(13.3561 1.43104e-21 3.44871)
(14.3815 2.17115e-21 3.78989)
(12.8684 1.47136e-21 3.12625)
(13.9861 -2.00711e-21 3.46384)
(12.3659 1.1486e-21 2.83132)
(13.5675 6.50557e-22 3.16189)
(11.8549 -1.39993e-23 2.56293)
(13.1326 8.11587e-22 2.88374)
(11.3411 1.56081e-22 2.31999)
(12.687 6.55935e-22 2.62899)
(10.8299 -8.35809e-22 2.10101)
(12.2362 4.71718e-22 2.39679)
(10.3259 -2.07292e-21 1.90382)
(11.7851 2.24573e-22 2.18571)
(11.3377 6.08537e-22 1.9937)
(15.575 -1.15913e-21 4.48965)
(16.0459 4.02955e-21 4.71735)
(15.325 -2.05277e-21 4.14705)
(15.895 -2.7842e-21 4.39126)
(15.0341 -1.19004e-21 3.82144)
(15.6982 1.82974e-21 4.0759)
(14.7107 -3.04534e-21 3.51504)
(15.4634 -2.4969e-21 3.77478)
(14.3621 2.95914e-22 3.2288)
(15.1976 -8.96209e-22 3.48988)
(13.9945 1.52433e-21 2.96309)
(14.9071 2.56505e-22 3.22226)
(13.6135 9.69847e-22 2.71781)
(14.5974 5.56293e-22 2.97247)
(13.2244 1.67687e-21 2.49229)
(14.2736 -4.05069e-22 2.74052)
(12.8314 3.05866e-21 2.28527)
(13.9402 1.46076e-22 2.52583)
(12.4383 1.01414e-21 2.09507)
(13.6011 1.74658e-22 2.32733)
(12.0477 4.33237e-23 1.91994)
(13.2593 -1.19049e-21 2.14366)
(12.9171 9.90864e-22 1.97354)
(16.3756 2.65007e-21 4.6312)
(16.5871 2.43034e-22 4.76741)
(16.2802 1.13439e-21 4.33307)
(16.5726 -3.87382e-21 4.4905)
(16.1419 7.07885e-22 4.04252)
(16.514 7.39698e-22 4.21586)
(15.967 -2.34857e-22 3.76283)
(16.4166 5.67855e-21 3.94748)
(15.7616 -9.6961e-22 3.49616)
(16.2856 6.61735e-22 3.68822)
(15.531 -8.28406e-22 3.24389)
(16.1261 0 3.44003)
(15.2802 -9.06724e-22 3.00678)
(15.9427 -8.47976e-22 3.20423)
(15.0139 -2.1216e-21 2.78498)
(15.7397 -1.44616e-21 2.98158)
(14.7359 -3.06613e-21 2.57812)
(15.521 -1.33009e-21 2.77228)
(14.4498 -2.17365e-21 2.38545)
(15.2901 -9.82892e-22 2.57608)
(14.1579 -2.70318e-22 2.20613)
(15.0498 -2.15619e-22 2.39251)
(13.8619 6.52328e-22 2.0395)
(14.802 1.51199e-21 2.22109)
(14.5481 2.65953e-22 2.06163)
(16.7881 -6.36111e-21 4.63421)
(16.8185 -8.68541e-22 4.69725)
(16.8122 -4.42184e-21 4.38193)
(16.903 -5.96101e-21 4.46722)
(16.7964 5.6795e-21 4.13025)
(16.9491 6.79056e-21 4.23378)
(16.7448 6.7914e-21 3.88277)
(16.9598 -7.60706e-21 4.00077)
(16.6617 1.75942e-21 3.64217)
(16.9385 1.1432e-20 3.77126)
(16.5511 0 3.41045)
(16.8885 -8.34878e-21 3.54761)
(16.4172 -1.38554e-21 3.18897)
(16.8133 1.8407e-21 3.3316)
(16.2635 -5.68005e-22 2.97856)
(16.7162 -1.38591e-22 3.12449)
(16.0935 8.67564e-22 2.77959)
(16.6003 -6.02e-22 2.92708)
(15.91 1.12254e-21 2.59209)
(16.4684 1.25025e-21 2.73981)
(15.7151 1.58425e-21 2.41597)
(16.3228 1.99033e-21 2.56288)
(15.5106 1.13096e-21 2.25125)
(16.1653 -8.70665e-22 2.39645)
(15.2975 6.98909e-22 2.09824)
(15.9971 2.03638e-23 2.2409)
(15.0765 -1.02484e-21 1.9577)
(15.8193 -1.61978e-21 2.09691)
(15.6323 -9.91132e-22 1.96561)
(16.9334 -3.45147e-22 4.53383)
(16.8486 8.05586e-22 4.54281)
(17.0413 5.17855e-21 4.32388)
(16.998 -1.77492e-20 4.35373)
(17.1154 -6.49381e-21 4.11011)
(17.1164 2.16793e-20 4.15804)
(17.1578 -3.32749e-21 3.89582)
(17.2052 -3.69129e-21 3.95905)
(17.1711 1.56771e-21 3.68378)
(17.2658 2.38581e-21 3.75964)
(17.1579 -6.72675e-21 3.47619)
(17.3004 -1.32096e-20 3.56219)
(17.121 3.22721e-21 3.27473)
(17.3111 6.0135e-21 3.36865)
(17.0631 -9.86927e-23 3.08068)
(17.3001 1.3748e-21 3.18055)
(16.9868 -2.53077e-22 2.89492)
(17.2697 -1.22422e-22 2.99906)
(16.8942 2.12206e-21 2.71806)
(17.222 1.10815e-22 2.82506)
(16.7873 -5.5248e-22 2.55058)
(17.1586 -1.73855e-21 2.65924)
(16.6673 -2.12578e-21 2.39302)
(17.081 -5.50382e-22 2.50227)
(16.5354 -2.31748e-21 2.24612)
(16.9904 -1.58243e-21 2.3549)
(16.3924 -1.53696e-21 2.11093)
(16.8876 1.87766e-23 2.21813)
(16.239 -6.07471e-22 1.98883)
(16.7734 3.83552e-22 2.09323)
(16.6485 -9.1238e-23 1.98176)
(16.9108 -1.6588e-20 4.36341)
(16.7608 1.80221e-22 4.33511)
(17.0716 -1.80047e-21 4.1897)
(16.9477 -1.56222e-20 4.17973)
(17.2056 2.51905e-20 4.00978)
(17.111 3.33229e-22 4.01635)
(17.3136 2.02625e-21 3.8265)
(17.2509 2.31167e-20 3.84767)
(17.3967 -1.23599e-20 3.64235)
(17.3678 -1.23173e-20 3.67617)
(17.4563 -6.07963e-22 3.45948)
(17.4625 6.57701e-21 3.50402)
(17.4941 4.26999e-21 3.27967)
(17.5363 1.2678e-21 3.33313)
(17.5119 1.43138e-21 3.10437)
(17.5904 0 3.1651)
(17.5112 2.46806e-22 2.93478)
(17.6263 1.46475e-21 3.00127)
(17.4938 -3.84713e-21 2.77187)
(17.6452 -1.24451e-21 2.84278)
(17.4609 -1.75871e-21 2.6165)
(17.6484 -2.81671e-21 2.69064)
(17.4137 3.87766e-23 2.46957)
(17.637 5.72489e-21 2.54579)
(17.3532 8.41541e-22 2.33211)
(17.6118 -3.09319e-21 2.40927)
(17.28 2.1057e-21 2.20534)
(17.5736 3.3254e-21 2.28224)
(17.1951 1.03352e-21 2.09071)
(17.5232 3.49408e-22 2.16608)
(17.0993 1.26662e-21 1.98979)
(17.4614 -5.14312e-22 2.06228)
(16.9939 -2.24899e-22 1.90408)
(17.3893 9.27218e-22 1.97239)
(17.308 -1.42885e-21 1.8977)
(16.794 1.54145e-21 4.15025)
(16.6121 2.06882e-20 4.09736)
(16.9839 -1.38408e-20 4.00612)
(16.8173 -1.88131e-20 3.96892)
(17.1537 -2.35319e-21 3.85483)
(17.0051 -1.59249e-20 3.83217)
(17.3031 9.27658e-21 3.6987)
(17.175 -1.28008e-21 3.68924)
(17.4324 6.63534e-21 3.53986)
(17.3269 8.31213e-21 3.54221)
(17.5422 8.64427e-21 3.38026)
(17.461 1.16248e-20 3.39299)
(17.6331 -3.04956e-21 3.2216)
(17.5776 -3.05275e-21 3.2433)
(17.7063 0 3.06539)
(17.6773 0 3.09469)
(17.7626 0 2.91292)
(17.7609 -4.08969e-21 2.94856)
(17.8031 -9.0997e-23 2.76536)
(17.8292 6.04314e-21 2.80614)
(17.8286 4.70531e-21 2.6238)
(17.8829 -1.8562e-21 2.66859)
(17.84 2.73336e-21 2.48934)
(17.9227 4.91922e-21 2.53702)
(17.8381 -6.95042e-22 2.36317)
(17.9493 -4.84063e-21 2.4126)
(17.8234 1.61226e-21 2.2466)
(17.9633 1.57518e-21 2.29659)
(17.7969 -1.21672e-21 2.14106)
(17.9655 -1.43932e-21 2.19038)
(17.7593 -8.9423e-22 2.04805)
(17.9564 -9.27886e-23 2.0954)
(17.712 -2.42303e-22 1.96893)
(17.9373 3.84477e-22 2.01309)
(17.6562 -1.12026e-21 1.90465)
(17.9091 -6.51627e-22 1.94464)
(17.8733 -4.68459e-22 1.89076)
(16.6311 7.6481e-22 3.91375)
(16.4373 2.30486e-20 3.8448)
(16.8343 -2.1014e-20 3.79339)
(16.6487 -6.11942e-22 3.73784)
(17.0227 -1.51909e-20 3.66568)
(16.8476 -1.93939e-20 3.62278)
(17.1955 -2.50781e-21 3.53252)
(17.033 2.27254e-21 3.50133)
(17.3527 1.33318e-20 3.39569)
(17.2046 1.51734e-20 3.37521)
(17.4941 0 3.25689)
(17.362 0 3.24603)
(17.62 0 3.11771)
(17.5054 -1.4921e-20 3.11536)
(17.7309 -4.0944e-21 2.97956)
(17.6349 1.43547e-20 2.98463)
(17.8272 1.85545e-21 2.84378)
(17.7507 -4.18959e-21 2.85518)
(17.9094 4.41748e-21 2.71158)
(17.8532 4.21897e-21 2.72827)
(17.978 -1.80369e-21 2.58415)
(17.9429 1.87341e-21 2.6051)
(18.0337 -2.60583e-21 2.4627)
(18.0201 4.1529e-22 2.48685)
(18.077 -2.66128e-21 2.34846)
(18.0854 2.80391e-21 2.37473)
(18.1084 -1.50272e-21 2.24276)
(18.1392 -2.50234e-21 2.27004)
(18.1286 -3.21764e-22 2.14702)
(18.1821 -1.53674e-21 2.17411)
(18.1386 1.23701e-21 2.06261)
(18.2149 2.95871e-21 2.08832)
(18.1392 0 1.99084)
(18.2382 1.11788e-21 2.01403)
(18.1317 0 1.93265)
(18.2532 -1.0992e-21 1.95238)
(18.1171 5.83679e-22 1.88848)
(18.261 -1.46867e-21 1.9042)
(18.2627 1.54702e-21 1.86981)
(16.4505 2.22002e-20 3.66601)
(16.2552 1.70571e-21 3.58621)
(16.6575 1.48971e-21 3.56489)
(16.4663 -1.89465e-22 3.49667)
(16.8536 -2.01627e-21 3.45663)
(16.6682 -1.71681e-20 3.39947)
(17.038 2.00651e-20 3.34274)
(16.8601 5.32509e-20 3.29599)
(17.2102 1.86919e-21 3.22476)
(17.0413 -1.5164e-20 3.18764)
(17.37 -1.4937e-20 3.10416)
(17.2115 0 3.07583)
(17.5173 -9.13934e-22 2.98235)
(17.3705 -1.38494e-20 2.96193)
(17.6521 1.46885e-20 2.86066)
(17.518 8.80999e-21 2.84724)
(17.7746 -1.98316e-21 2.74038)
(17.6542 -9.99432e-21 2.73304)
(17.8851 1.66793e-21 2.62273)
(17.7793 7.78129e-21 2.62054)
(17.9839 4.19037e-21 2.5089)
(17.8933 1.85979e-21 2.51092)
(18.0713 5.91504e-21 2.40012)
(17.9966 -4.7844e-21 2.40538)
(18.1476 3.10977e-21 2.29762)
(18.0894 5.62495e-21 2.30512)
(18.2134 -2.55913e-21 2.20271)
(18.1722 2.64915e-21 2.2114)
(18.2693 1.72244e-21 2.11673)
(18.2454 0 2.1255)
(18.3159 2.87793e-21 2.04101)
(18.3097 9.34531e-23 2.04874)
(18.3542 5.54901e-23 1.97677)
(18.3657 8.84489e-22 1.9824)
(18.3851 -2.59559e-21 1.92504)
(18.4143 -1.43882e-21 1.92762)
(18.4095 -5.47942e-22 1.88649)
(18.4565 -1.02672e-21 1.88535)
(18.4279 7.08618e-22 1.86108)
(18.493 1.24381e-21 1.85625)
(18.5307 -3.69299e-22 1.84007)
(16.2666 -2.1183e-20 3.41371)
(16.0748 -5.07596e-20 3.32613)
(16.4726 -1.89067e-20 3.3285)
(16.2824 -4.20658e-20 3.25103)
(16.6703 3.77894e-20 3.2365)
(16.4833 2.55024e-20 3.1688)
(16.8592 1.87666e-20 3.13898)
(16.6765 5.51879e-20 3.08056)
(17.0385 -1.74332e-20 3.03721)
(16.8616 -5.18012e-20 2.9875)
(17.2081 1.43428e-21 2.93247)
(17.0379 1.2646e-21 2.89081)
(17.3675 -4.43477e-21 2.82604)
(17.2052 1.59864e-20 2.7917)
(17.5168 -1.60373e-20 2.71915)
(17.3633 9.02977e-21 2.69136)
(17.6558 -4.16865e-22 2.61299)
(17.512 -3.27896e-20 2.59095)
(17.7847 8.11105e-21 2.50875)
(17.6514 3.00924e-20 2.49163)
(17.9037 -7.19358e-21 2.4076)
(17.7814 -1.36079e-20 2.39454)
(18.0128 -5.33821e-21 2.31072)
(17.9023 -3.51077e-21 2.30083)
(18.1125 5.23151e-21 2.21933)
(18.0143 0 2.21167)
(18.203 5.34177e-21 2.13467)
(18.1176 -3.84169e-22 2.12826)
(18.285 -1.68196e-21 2.05802)
(18.2127 0 2.05184)
(18.3589 -1.97782e-21 1.99064)
(18.3001 -1.71991e-21 1.98364)
(18.4257 -5.67895e-22 1.93373)
(18.3805 1.23829e-21 1.92487)
(18.4861 1.90531e-22 1.88834)
(18.4546 -3.20406e-22 1.8767)
(18.5409 7.64074e-22 1.85538)
(18.5233 1.49253e-22 1.84014)
(18.5908 2.53679e-22 1.83531)
(18.5871 6.82539e-22 1.81611)
(18.6612 4.9128e-22 1.80498)
(16.0863 -7.23576e-20 3.16016)
(15.9002 -5.19468e-20 3.06663)
(16.2888 1.85088e-21 3.08837)
(16.103 -2.1647e-20 3.00371)
(16.4851 4.26267e-20 3.01024)
(16.3007 1.39032e-21 2.93425)
(16.6746 -1.45987e-20 2.92681)
(16.4928 4.0003e-20 2.85915)
(16.8567 -3.38896e-20 2.83916)
(16.6785 -3.74714e-20 2.77941)
(17.031 1.58201e-20 2.74841)
(16.8573 1.68982e-20 2.69603)
(17.1971 2.99337e-20 2.65567)
(17.0288 3.23725e-21 2.61008)
(17.3548 -7.15603e-21 2.56208)
(17.1928 1.5431e-20 2.52261)
(17.504 -3.01643e-21 2.46874)
(17.3491 -3.44641e-20 2.43469)
(17.6447 8.86392e-21 2.37678)
(17.4975 2.89344e-20 2.34741)
(17.777 -1.00672e-20 2.28731)
(17.6381 -9.66334e-21 2.26184)
(17.901 1.87773e-21 2.20146)
(17.771 7.54562e-21 2.17906)
(18.0169 -5.74738e-21 2.12039)
(17.8963 -7.67063e-21 2.1002)
(18.125 -5.86867e-21 2.04529)
(18.0142 2.86192e-21 2.02639)
(18.2259 0 1.97736)
(18.1251 -7.78888e-21 1.95878)
(18.32 1.51368e-21 1.91779)
(18.2296 4.76854e-21 1.89856)
(18.408 1.54457e-21 1.86776)
(18.3282 -1.87072e-21 1.84688)
(18.4908 -3.61463e-22 1.82835)
(18.4215 1.29638e-21 1.80487)
(18.569 4.71951e-23 1.8006)
(18.5105 -2.55331e-21 1.77361)
(18.6433 8.83254e-22 1.78529)
(18.5955 5.69025e-22 1.75414)
(18.6985 1.12813e-22 1.74725)
(15.9127 -7.08082e-22 2.90684)
(15.7334 5.24263e-20 2.80854)
(16.1107 -2.26468e-20 2.84652)
(15.9307 -3.50621e-22 2.756)
(16.3041 -2.19254e-21 2.78037)
(16.1245 -2.24359e-20 2.69755)
(16.4924 1.83842e-20 2.70924)
(16.3141 2.1964e-20 2.6339)
(16.6748 1.32832e-20 2.63405)
(16.4988 1.07319e-21 2.56586)
(16.851 4.31941e-21 2.55573)
(16.6781 3.21261e-20 2.49431)
(17.0205 -1.19074e-20 2.47529)
(16.8515 -2.96043e-20 2.42014)
(17.1832 -1.13758e-20 2.39374)
(17.0188 1.49976e-20 2.34431)
(17.3388 -3.22001e-21 2.31209)
(17.1798 -2.78066e-20 2.26777)
(17.4873 1.08552e-20 2.23139)
(17.3342 8.43866e-21 2.19152)
(17.6287 7.98063e-21 2.15267)
(17.482 2.3107e-21 2.11656)
(17.763 -1.87488e-21 2.07702)
(17.6233 7.90939e-21 2.04389)
(17.8905 9.07157e-22 2.00552)
(17.7582 -6.80188e-22 1.97457)
(18.0115 1.15132e-21 1.93928)
(17.8868 5.32027e-21 1.90966)
(18.1263 -3.2052e-21 1.87944)
(18.0096 -1.87576e-20 1.85025)
(18.2354 1.45111e-21 1.82712)
(18.127 1.42365e-20 1.79743)
(18.3395 -2.20601e-21 1.78346)
(18.2395 -7.57373e-21 1.7523)
(18.4394 -8.52828e-22 1.74955)
(18.3477 1.58941e-21 1.71597)
(18.5358 -2.08889e-21 1.72647)
(18.4526 1.41369e-23 1.68951)
(18.6295 -3.22807e-22 1.7152)
(18.5544 -8.71325e-22 1.67402)
(18.6804 -7.12626e-22 1.67049)
(15.7473 5.40297e-20 2.65437)
(15.5753 9.21563e-22 2.55211)
(15.9405 3.82805e-22 2.60391)
(15.7672 1.58542e-23 2.50847)
(16.1304 1.27544e-21 2.54818)
(15.9568 0 2.45954)
(16.3164 4.71352e-21 2.48786)
(16.1433 3.95248e-20 2.4059)
(16.4979 1.96452e-20 2.4237)
(16.3261 -1.82349e-20 2.3482)
(16.6746 -1.1799e-21 2.35652)
(16.5048 -1.22054e-21 2.28718)
(16.8458 -3.07587e-21 2.28718)
(16.6789 -3.11893e-20 2.22362)
(17.0115 -8.36824e-22 2.21658)
(16.848 2.84104e-20 2.15834)
(17.1713 -1.67156e-20 2.14563)
(17.012 -1.34317e-20 2.0922)
(17.3252 -1.78048e-22 2.07529)
(17.1705 2.62879e-21 2.02608)
(17.473 2.10567e-21 2.00652)
(17.3235 0 1.9609)
(17.615 9.33946e-21 1.94032)
(17.4711 2.15409e-21 1.8976)
(17.7512 3.7157e-21 1.87769)
(17.6132 7.35324e-21 1.83714)
(17.8818 -1.45091e-20 1.81968)
(17.7502 -7.06553e-21 1.7805)
(18.0074 -1.66789e-21 1.76735)
(17.8822 -1.12334e-20 1.72869)
(18.1282 5.49959e-21 1.72175)
(18.0098 1.40814e-20 1.68274)
(18.245 -3.91196e-21 1.68396)
(18.1334 -6.52598e-21 1.64368)
(18.3585 2.51221e-21 1.65504)
(18.2537 1.52704e-22 1.61256)
(18.4694 1.28357e-21 1.63609)
(18.3715 2.30622e-21 1.59041)
(18.5787 -9.24427e-22 1.62814)
(18.4871 -1.77182e-21 1.57832)
(18.632 -2.38478e-22 1.57737)
(15.5913 -5.43869e-20 2.40288)
(15.4269 -1.04527e-19 2.2973)
(15.7796 -3.75077e-22 2.36094)
(15.6136 4.8863e-20 2.26127)
(15.9657 3.82599e-20 2.31428)
(15.7989 4.32912e-20 2.22059)
(16.149 1.73625e-20 2.26346)
(15.9821 3.54092e-20 2.1757)
(16.329 -4.00077e-20 2.20911)
(16.1627 -2.58478e-20 2.12715)
(16.5052 -3.12637e-20 2.15191)
(16.3402 -7.11249e-20 2.07553)
(16.6772 -3.17488e-22 2.0926)
(16.5142 1.1782e-21 2.0215)
(16.8447 1.64807e-20 2.03197)
(16.6842 1.33691e-20 1.96579)
(17.0073 6.00101e-21 1.97082)
(16.8501 3.19985e-21 1.90913)
(17.1651 2.86627e-21 1.91003)
(17.0116 1.42093e-20 1.85232)
(17.3179 0 1.85046)
(17.1685 -1.11225e-20 1.79617)
(17.4658 0 1.79302)
(17.321 0 1.74154)
(17.6089 -3.34437e-21 1.73864)
(17.469 7.79774e-21 1.6893)
(17.7473 -3.61372e-21 1.68828)
(17.6126 -1.96335e-20 1.64035)
(17.8816 4.30657e-21 1.64292)
(17.7523 9.37117e-21 1.59562)
(18.012 2.2609e-21 1.60354)
(17.8883 -8.81278e-23 1.55604)
(18.1392 -2.52359e-21 1.57115)
(18.0212 2.32776e-21 1.52258)
(18.264 -1.19041e-22 1.54676)
(18.1516 1.453e-21 1.49621)
(18.387 -7.33149e-22 1.53142)
(18.2802 1.21366e-21 1.47792)
(18.5094 -7.48368e-22 1.52615)
(18.4075 -3.3307e-23 1.46871)
(18.5684 0 1.46968)
(15.4456 -2.33901e-21 2.15238)
(15.2894 -5.14885e-20 2.04385)
(15.6292 9.37249e-20 2.11777)
(15.4711 9.72925e-20 2.01436)
(15.8115 4.05419e-20 2.07901)
(15.6522 -2.26614e-21 1.98082)
(15.992 -7.44459e-21 2.03655)
(15.8321 -4.15301e-20 1.94359)
(16.1701 -5.66788e-20 1.9909)
(16.0103 7.29218e-20 1.9031)
(16.3454 -3.95701e-20 1.94263)
(16.1863 -1.08832e-19 1.85985)
(16.5174 1.4919e-20 1.89237)
(16.3596 1.60529e-20 1.81439)
(16.6859 0 1.8408)
(16.53 1.53092e-20 1.76733)
(16.8506 1.13535e-20 1.78863)
(16.6971 -1.28714e-20 1.71931)
(17.0113 4.67962e-22 1.73661)
(16.8608 2.42384e-20 1.67102)
(17.168 -1.13788e-20 1.68554)
(17.0208 -1.13943e-20 1.62319)
(17.3206 7.80912e-21 1.63622)
(17.1771 0 1.57658)
(17.4693 -8.25225e-21 1.58951)
(17.3299 7.98832e-21 1.53196)
(17.6143 -7.00819e-21 1.54626)
(17.4792 -1.48053e-20 1.49014)
(17.7558 5.08016e-21 1.50737)
(17.6252 1.14206e-20 1.45197)
(17.8944 -7.07919e-23 1.47374)
(17.7684 -6.17149e-21 1.41829)
(18.0305 6.42224e-21 1.44631)
(17.9092 2.75373e-21 1.38998)
(18.1649 2.8219e-21 1.42601)
(18.0483 3.07595e-21 1.36794)
(18.2984 1.95719e-21 1.41381)
(18.1864 -1.31951e-22 1.35306)
(18.4321 7.31257e-22 1.41069)
(18.3238 7.32349e-22 1.34629)
(18.4985 0 1.34864)
(15.3115 4.70996e-20 1.90251)
(15.1637 4.05803e-22 1.7914)
(15.4906 1.27963e-21 1.87421)
(15.3409 9.44196e-20 1.76751)
(15.6693 -8.54377e-20 1.84232)
(15.5181 -9.36176e-20 1.74015)
(15.8468 3.81152e-20 1.8072)
(15.6947 -4.12102e-20 1.70962)
(16.0228 2.37206e-20 1.76926)
(15.8705 5.97831e-20 1.67625)
(16.1969 -5.47576e-20 1.72897)
(16.0447 -3.65509e-20 1.64044)
(16.3686 1.64718e-20 1.68686)
(16.2172 -1.46049e-20 1.60266)
(16.5376 2.77799e-21 1.6435)
(16.3875 3.1122e-20 1.56341)
(16.7037 -5.32856e-22 1.5995)
(16.5554 -2.62174e-20 1.52325)
(16.8667 1.29139e-20 1.55554)
(16.7206 2.57082e-20 1.48275)
(17.0264 0 1.51228)
(16.883 1.19063e-20 1.44256)
(17.183 0 1.47047)
(17.0425 -7.81557e-21 1.40333)
(17.3364 1.8032e-21 1.43084)
(17.1992 -8.17271e-21 1.36575)
(17.4868 3.46075e-21 1.39418)
(17.3532 9.86203e-21 1.33054)
(17.6346 2.94203e-22 1.36127)
(17.5047 -1.5729e-21 1.29843)
(17.7801 -3.49155e-21 1.33294)
(17.654 -1.44624e-21 1.2702)
(17.924 -6.77961e-22 1.31004)
(17.8017 -1.60321e-22 1.24661)
(18.0668 1.34486e-22 1.2934)
(17.9483 -2.21679e-21 1.22848)
(18.2094 -1.40345e-21 1.28392)
(18.0947 -3.6669e-21 1.21662)
(18.3529 0 1.28249)
(18.241 7.29629e-22 1.21186)
(18.4278 -6.67702e-23 1.21517)
(15.1899 4.66719e-20 1.65319)
(15.0511 2.08983e-22 1.53946)
(15.365 1.58795e-21 1.63033)
(15.2242 4.79269e-20 1.52036)
(15.5402 -4.95382e-20 1.60444)
(15.3977 -4.62968e-20 1.49837)
(15.715 -2.13646e-20 1.57577)
(15.5714 1.87933e-20 1.4737)
(15.8889 2.82596e-22 1.54466)
(15.7447 -3.77181e-20 1.44661)
(16.0616 4.07241e-21 1.5115)
(15.9173 1.98601e-20 1.41744)
(16.2327 -6.56983e-22 1.47672)
(16.0888 -1.61341e-20 1.38654)
(16.4019 2.75069e-21 1.4408)
(16.2588 1.58161e-20 1.35435)
(16.5689 -5.40175e-22 1.40426)
(16.427 -2.64666e-20 1.32131)
(16.7335 2.49951e-20 1.36766)
(16.5933 1.41083e-20 1.28793)
(16.8957 4.3581e-21 1.3316)
(16.7576 2.24386e-20 1.25475)
(17.0555 -1.61798e-20 1.29671)
(16.9196 -1.02673e-21 1.22231)
(17.2128 -3.37533e-22 1.26363)
(17.0796 -1.76142e-20 1.19122)
(17.3678 4.96841e-21 1.23305)
(17.2375 8.21356e-21 1.1621)
(17.521 -3.35845e-21 1.20567)
(17.3936 -2.67669e-23 1.13559)
(17.6725 1.9362e-21 1.18221)
(17.5482 -3.76238e-21 1.11235)
(17.823 -1.68236e-21 1.16342)
(17.7018 7.00564e-21 1.09307)
(17.9732 -6.06878e-21 1.15006)
(17.8549 -1.18335e-21 1.07845)
(18.1239 -1.5783e-21 1.1429)
(18.0084 -2.31599e-21 1.06922)
(18.276 2.30556e-22 1.14275)
(18.1626 1.03976e-21 1.06609)
(18.3598 -1.09073e-23 1.06994)
(15.0823 3.72611e-22 1.40327)
(14.9528 -2.59533e-20 1.28739)
(15.2538 1.0686e-21 1.38512)
(15.1222 2.38549e-20 1.27244)
(15.4258 2.21736e-20 1.36444)
(15.2926 -2.26239e-20 1.25512)
(15.598 3.35363e-21 1.34144)
(15.4636 2.19712e-20 1.2356)
(15.7699 -1.90057e-20 1.31639)
(15.6347 -1.90252e-20 1.21408)
(15.9412 0 1.28959)
(15.8056 0 1.19082)
(16.1116 0 1.2614)
(15.976 0 1.16612)
(16.2807 -1.31322e-20 1.2322)
(16.1456 1.34949e-20 1.14031)
(16.4482 -1.24008e-20 1.20244)
(16.314 -2.75889e-20 1.11376)
(16.6141 1.12986e-20 1.17257)
(16.4811 2.60409e-21 1.08689)
(16.7783 1.74755e-20 1.1431)
(16.6467 1.04947e-20 1.06012)
(16.9406 -2.10442e-21 1.11456)
(16.8108 7.15601e-21 1.03395)
(17.1011 -9.45397e-21 1.08751)
(16.9733 -9.46759e-21 1.00884)
(17.2601 3.28074e-21 1.06252)
(17.1345 -7.22331e-21 0.985343)
(17.4177 -3.62888e-22 1.0402)
(17.2944 8.81383e-21 0.963983)
(17.5744 1.16984e-21 1.02118)
(17.4534 -3.79815e-21 0.945329)
(17.7306 7.70491e-21 1.00609)
(17.612 5.0872e-21 0.929963)
(17.8871 2.68124e-21 0.995601)
(17.7708 1.81238e-21 0.918487)
(18.0447 2.92754e-22 0.990381)
(17.9304 0 0.911516)
(18.2043 8.12719e-22 0.991153)
(18.0912 -1.16519e-22 0.909676)
(18.2974 5.44753e-23 0.913779)
(14.9898 -3.06922e-21 1.15354)
(14.8701 -2.65907e-20 1.03445)
(15.1582 6.6948e-22 1.1395)
(15.0365 2.33198e-20 1.0231)
(15.3274 -2.38782e-20 1.12342)
(15.2042 -2.28769e-20 1.00989)
(15.4973 0 1.10546)
(15.3728 6.40324e-22 0.994934)
(15.6674 0 1.08584)
(15.542 0 0.97839)
(15.8374 0 1.06478)
(15.7115 0 0.960454)
(16.007 1.35102e-20 1.04256)
(15.8808 0 0.941353)
(16.1758 -3.61828e-22 1.0195)
(16.0499 1.47491e-20 0.92135)
(16.3438 -1.29175e-20 0.995951)
(16.2183 -2.75831e-20 0.900738)
(16.5106 1.59698e-21 0.972283)
(16.3859 1.28947e-20 0.879839)
(16.6762 0 0.948907)
(16.5526 0 0.859003)
(16.8405 0 0.926255)
(16.7182 -9.46507e-21 0.838605)
(17.0037 -7.23382e-21 0.904786)
(16.8828 9.28151e-21 0.819045)
(17.1658 -1.93123e-21 0.88498)
(17.0466 -8.37073e-21 0.800743)
(17.3272 5.58152e-21 0.867339)
(17.2096 8.67187e-21 0.784139)
(17.4881 0 0.852383)
(17.3723 -3.02291e-21 0.769695)
(17.6492 -8.77204e-22 0.840651)
(17.535 0 0.757887)
(17.8111 -8.95644e-22 0.832698)
(17.6984 -3.36111e-21 0.749209)
(17.9745 -4.16645e-22 0.829087)
(17.8631 1.53083e-21 0.744169)
(18.1405 -4.25571e-22 0.830433)
(18.0296 -2.82489e-22 0.743275)
(18.2432 -1.45662e-22 0.747186)
(14.9141 -7.30548e-22 0.90038)
(14.8044 0 0.779786)
(15.0798 2.76493e-22 0.88991)
(14.9683 -5.70094e-22 0.771615)
(15.2468 1.68757e-21 0.877874)
(15.1338 7.12448e-22 0.762057)
(15.4147 6.55347e-22 0.864389)
(15.3006 -2.85113e-22 0.751199)
(15.5833 0 0.849606)
(15.4682 0 0.739154)
(15.7521 0 0.833705)
(15.6365 1.68702e-20 0.726063)
(15.9209 9.22639e-22 0.816897)
(15.805 -1.65321e-20 0.712092)
(16.0895 -1.21577e-20 0.799421)
(15.9735 9.44144e-22 0.697435)
(16.2576 -2.07348e-21 0.781544)
(16.1419 -1.34055e-20 0.682309)
(16.425 1.15625e-20 0.763559)
(16.3098 1.1577e-20 0.666953)
(16.5917 -9.47764e-21 0.745781)
(16.4773 0 0.65163)
(16.7577 -3.92035e-22 0.728549)
(16.6441 -1.44024e-20 0.636622)
(16.9229 8.52278e-21 0.712224)
(16.8103 1.71676e-20 0.622231)
(17.0876 2.09324e-21 0.697184)
(16.9761 -6.75209e-21 0.608777)
(17.2519 1.29156e-22 0.683826)
(17.1416 6.68866e-21 0.596595)
(17.4164 -3.09199e-21 0.672566)
(17.3071 -5.41253e-22 0.58604)
(17.5814 -2.46801e-21 0.663836)
(17.4732 -3.08004e-21 0.57748)
(17.7476 -9.94558e-22 0.658085)
(17.6402 -9.06487e-23 0.571303)
(17.9158 1.70421e-21 0.655771)
(17.809 -4.96789e-22 0.567914)
(18.0869 2.31389e-22 0.657419)
(17.9801 1.0678e-21 0.567731)
(18.1996 -1.4923e-22 0.571388)
(14.8563 1.78313e-22 0.648531)
(14.757 0 0.522384)
(15.02 -1.53643e-22 0.641335)
(14.9191 3.59727e-22 0.517073)
(15.1852 -1.28658e-21 0.633026)
(15.083 -1.77798e-22 0.510839)
(15.3516 -9.64208e-22 0.623683)
(15.2483 -6.55105e-22 0.503737)
(15.5189 1.6888e-20 0.61341)
(15.4148 -8.98052e-21 0.495842)
(15.6868 7.10353e-22 0.602333)
(15.5821 2.63511e-20 0.487244)
(15.855 -1.6918e-20 0.590599)
(15.7499 -1.66895e-20 0.478054)
(16.0234 0 0.578377)
(15.9181 0 0.468401)
(16.1916 0 0.565856)
(16.0863 -5.9893e-21 0.458427)
(16.3595 0 0.553245)
(16.2545 1.20832e-20 0.448293)
(16.527 -4.71219e-21 0.540769)
(16.4224 -1.09096e-20 0.438176)
(16.6941 2.85378e-21 0.528673)
(16.59 2.96379e-22 0.428266)
(16.8609 2.07617e-21 0.517216)
(16.7574 8.9307e-21 0.418765)
(17.0275 -2.35188e-21 0.506674)
(16.9246 -6.84369e-21 0.409891)
(17.1942 6.17188e-21 0.497335)
(17.0919 9.876e-22 0.401874)
(17.3613 -4.65587e-22 0.489508)
(17.2595 6.86467e-21 0.394957)
(17.5293 -7.04963e-22 0.483514)
(17.4279 -3.82892e-21 0.389396)
(17.699 4.36443e-22 0.479693)
(17.5977 1.72929e-21 0.385469)
(17.8709 -1.17807e-21 0.478402)
(17.7695 -1.35841e-21 0.38347)
(18.0463 9.55289e-22 0.480054)
(17.944 8.09418e-22 0.383704)
(18.1678 1.43987e-22 0.386606)
(14.8177 1.76688e-22 0.386491)
(14.6039 -6.0474e-21 0.261183)
(14.98 3.46946e-22 0.382166)
(14.7634 1.80846e-22 0.258532)
(15.144 4.79052e-22 0.377174)
(14.9246 -5.09274e-21 0.255413)
(15.3093 -8.67378e-21 0.371563)
(15.0874 5.31356e-21 0.251853)
(15.4757 -1.11574e-22 0.365395)
(15.2514 -4.77878e-21 0.247889)
(15.6429 9.52755e-21 0.358746)
(15.4162 4.69613e-21 0.243567)
(15.8107 2.53307e-22 0.351705)
(15.5818 1.26072e-23 0.238944)
(15.9787 -5.99639e-21 0.344373)
(15.7477 0 0.234084)
(16.1469 5.97026e-21 0.336866)
(15.9138 -6.54074e-21 0.22906)
(16.3151 1.43971e-21 0.329309)
(16.0799 1.52403e-20 0.223954)
(16.4831 -6.03839e-21 0.321839)
(16.2459 -1.39814e-20 0.218856)
(16.6509 6.31315e-21 0.314606)
(16.4117 4.09486e-21 0.213864)
(16.8187 1.57638e-22 0.307768)
(16.5773 2.22746e-21 0.209082)
(16.9866 -3.59765e-21 0.301493)
(16.7429 -9.64954e-22 0.204621)
(17.1548 1.55852e-21 0.295962)
(16.9086 -3.09115e-21 0.200601)
(17.3236 3.66498e-21 0.291366)
(17.0748 4.97527e-21 0.19715)
(17.4937 -1.46903e-21 0.287915)
(17.242 -1.31008e-21 0.194407)
(17.6657 -3.48435e-23 0.285845)
(17.4107 -4.0898e-22 0.192532)
(17.8403 6.27204e-22 0.285441)
(17.5817 4.01186e-22 0.191728)
(18.0183 -2.3889e-22 0.287169)
(17.7557 -1.50491e-22 0.192305)
(17.9795 1.47494e-22 0.195115)
(14.5446 -6.18988e-21 0.131975)
(14.7029 -5.26866e-21 0.130583)
(14.863 -3.84146e-22 0.128947)
(15.0243 9.54045e-21 0.127084)
(15.1867 -7.57774e-23 0.125014)
(15.3499 -4.94524e-21 0.122763)
(15.5135 -2.48286e-22 0.120363)
(15.6774 -4.08595e-22 0.117848)
(15.8414 2.44765e-21 0.115261)
(16.0052 1.19177e-22 0.112644)
(16.1689 -4.01909e-21 0.110047)
(16.3324 -4.7674e-23 0.107524)
(16.4958 1.1509e-21 0.10513)
(16.6591 -4.02134e-22 0.102928)
(16.8228 2.15181e-22 0.100981)
(16.9871 2.67088e-23 0.0993619)
(17.1527 -2.44822e-22 0.0981501)
(17.3203 1.75989e-23 0.0974453)
(17.4908 -3.82858e-22 0.0973897)
(17.6656 0 0.0983265)
)
;

boundaryField
{
    inlet
    {
        type            calculated;
        value           nonuniform 0();
    }
    outlet
    {
        type            calculated;
        value           nonuniform List<vector> 
15
(
(18.44 -5.68787e-22 1.85151)
(18.6355 -1.64918e-22 1.82847)
(18.7143 1.16359e-21 1.78083)
(18.7212 -9.48228e-22 1.71266)
(18.6874 -4.71229e-22 1.6271)
(18.6323 0 1.52624)
(18.5671 0 1.41161)
(18.4985 0 1.28399)
(18.4309 -1.35183e-22 1.14462)
(18.3671 1.07645e-22 0.993221)
(18.3103 0 0.83251)
(18.2621 -2.94895e-22 0.659379)
(18.2263 0 0.481732)
(18.2005 2.91487e-22 0.288688)
(17.8469 0 0.0991279)
)
;
    }
    flap
    {
        type            calculated;
        value           nonuniform 0();
    }
    upperWall
    {
        type            calculated;
        value           uniform (0 0 0);
    }
    lowerWall
    {
        type            calculated;
        value           nonuniform 0();
    }
    frontAndBack
    {
        type            empty;
        value           nonuniform 0();
    }
    procBoundary2to1
    {
        type            processor;
        value           nonuniform List<vector> 
17
(
(16.5846 -1.05276e-22 4.28479)
(16.4139 -3.30335e-21 4.02487)
(16.2334 2.66512e-20 3.75848)
(16.0534 5.50671e-20 3.49094)
(15.8786 -1.04231e-19 3.22467)
(15.711 -5.66677e-20 2.96058)
(15.5517 1.07158e-19 2.69894)
(15.4015 -5.2855e-20 2.43965)
(15.2614 -5.07256e-20 2.18249)
(15.1323 4.17383e-22 1.92694)
(15.0154 2.01986e-22 1.67278)
(14.9119 2.54785e-24 1.41873)
(14.8229 -5.29027e-20 1.16542)
(14.75 -2.76783e-20 0.909195)
(14.6944 5.1941e-23 0.654554)
(14.6574 1.33226e-20 0.390114)
(14.3881 -6.02936e-21 0.133112)
)
;
    }
    procBoundary2to4
    {
        type            processor;
        value           nonuniform List<vector> 
11
(
(-1.54179 -9.252e-22 0.447474)
(2.848 -1.1899e-21 1.50405)
(7.02036 -1.0917e-21 2.55765)
(10.3766 3.29047e-21 3.43674)
(12.8879 -1.78767e-22 4.11737)
(14.6442 -2.51212e-21 4.58325)
(15.775 2.28491e-21 4.84512)
(16.4216 -1.29558e-20 4.93219)
(16.7206 -1.31764e-21 4.88258)
(16.7903 8.10252e-22 4.73605)
(16.7234 -8.95735e-24 4.52782)
)
;
    }
    procBoundary2to5
    {
        type            processor;
        value           nonuniform List<vector> 
34
(
(-1.97436 1.99597e-21 0.555077)
(-2.08504 -1.51122e-21 0.50086)
(-1.99351 1.75926e-21 0.332304)
(-0.767369 2.02778e-21 0.378542)
(-1.24387 -4.67502e-22 0.314221)
(-0.765637 0 0.398263)
(0.876204 -6.23446e-22 0.75231)
(2.48207 -1.18129e-21 0.96248)
(4.01839 -2.57439e-21 1.22117)
(3.32166 -1.23602e-21 1.03904)
(4.9225 -2.95452e-22 1.24708)
(6.32358 3.03121e-22 1.43699)
(5.70132 1.21008e-21 1.26984)
(7.22067 -9.47063e-22 1.44761)
(8.48181 -1.43364e-21 1.58485)
(9.833 -5.17681e-22 1.72572)
(10.8975 -1.38686e-22 1.81841)
(10.4665 5.07196e-22 1.65769)
(11.6611 2.25321e-22 1.75843)
(12.5756 -2.08523e-22 1.81611)
(13.5629 -3.22647e-22 1.88531)
(14.2888 0 1.9144)
(14.0246 -1.3508e-21 1.78026)
(14.848 -1.04602e-21 1.83089)