/*--------------------------------*- C++ -*----------------------------------*\
| =========                 |                                                 |
| \\      /  F ield         | OpenFOAM: The Open Source CFD Toolbox           |
|  \\    /   O peration     | Version:  dev                                   |
|   \\  /    A nd           | Web:      www.OpenFOAM.org                      |
|    \\/     M anipulation  |                                                 |
\*---------------------------------------------------------------------------*/
FoamFile
{
    version     2.0;
    format      ascii;
    class       surfaceScalarField;
    location    "4.03";
    object      phi;
}
// * * * * * * * * * * * * * * * * * * * * * * * * * * * * * * * * * * * * * //

dimensions      [0 3 -1 0 0 0 0];

internalField   nonuniform List<scalar> 
879
(
0.0223332
0.000475135
0.0217133
0.000617638
0.0210421
0.00066906
0.0203881
0.000652189
0.0197997
0.000586956
0.0193083
0.000490329
0.0189304
0.000377287
0.0186688
0.000261618
0.0185145
0.000154751
0.0184553
6.02913e-05
0.018486
-2.92203e-05
0.0186093
-0.000121262
0.0188272
-0.000215437
0.0191335
-0.00030336
0.0195106
-0.000373939
0.0199424
-0.000428184
0.0204308
-0.00048463
0.0210027
-0.000567771
0.0216762
-0.00066902
-0.000671531
0.024347
0.000339307
0.0242826
0.000679837
0.0241126
0.000836994
0.0239077
0.000855249
0.023718
0.000775156
0.0235733
0.000633964
0.0234845
0.000465521
0.0234461
0.000299907
0.0234417
0.000159688
0.0234514
5.1674e-05
0.0234597
-3.60109e-05
0.0234661
-0.000125641
0.0234818
-0.000228657
0.0235147
-0.0003334
0.0235637
-0.000419729
0.0236183
-0.000479227
0.0236702
-0.000532648
0.0237395
-0.000632904
0.0238915
-0.000816598
-0.000981689
0.0209632
-6.54713e-05
0.0211719
0.000468845
0.0212532
0.00075354
0.0212593
0.000847282
0.0212235
0.000809443
0.0211603
0.000696097
0.0210694
0.00055582
0.020939
0.000430312
0.0207487
0.000350392
0.0204788
0.000322691
0.0201219
0.000322382
0.0196895
0.000308825
0.019211
0.00025233
0.0187294
0.000150998
0.0182849
2.80355e-05
0.0179023
-9.30392e-05
0.0175878
-0.000214309
0.0173592
-0.000400154
0.0172729
-0.000725914
-0.00117756
0.0157487
-0.000497737
0.0159982
0.000217034
0.0160768
0.00067277
0.0160242
0.000897962
0.0158503
0.000981846
0.0155421
0.00100316
0.0150877
0.00100957
0.014499
0.00101899
0.0138195
0.00103032
0.0131105
0.00103271
0.012428
0.00100648
0.0118124
0.000926447
0.0112906
0.00077657
0.0108786
0.00056583
0.0105813
0.000328547
0.0103807
0.000111156
0.0102177
-4.75054e-05
0.0100583
-0.000236642
0.00992712
-0.000590239
-0.00125958
0.00886176
-0.000624194
0.00881196
0.000264484
0.00863425
0.00084827
0.00833573
0.00119453
0.00792437
0.00139161
0.0074259
0.00150048
0.00687864
0.00155617
0.00632437
0.00157315
0.00580034
0.00155479
0.00533413
0.0014999
0.00493878
0.00140335
0.00460945
0.00125778
0.00432655
0.00106192
0.00406664
0.000828584
0.00381431
0.000584084
0.00356989
0.000359113
0.00334885
0.000177374
0.00308327
3.30806e-05
0.00278341
-0.000285916
-0.00102529
0.000751972
-0.000537606
0.000671776
0.000342268
0.000542368
0.000975414
0.000342128
0.00139277
8.35741e-05
0.00164853
-0.000209443
0.0017923
-0.000512835
0.00185887
-0.000808772
0.00186894
-0.0010873
0.00183373
-0.001346
0.00175956
-0.00159021
0.00164905
-0.00183242
0.00150197
-0.00208751
0.00131945
-0.00236541
0.00110932
-0.00266728
0.000889143
-0.00299013
0.000685494
-0.00333051
0.000521584
-0.00365579
0.000362517
-0.00396909
3.1852e-05
-0.000602233
-0.00620768
-0.000374793
-0.00629409
0.000426206
-0.00635631
0.00103532
-0.0064318
0.0014662
-0.0065348
0.00174983
-0.00666695
0.0019232
-0.00682531
0.00201649
-0.0070067
0.00205014
-0.0072095
0.0020369
-0.00743334
0.00198433
-0.00767853
0.0018957
-0.00794571
0.00177111
-0.00823491
0.00161107
-0.00854473
0.00142196
-0.00887384
0.00122143
-0.00922445
0.00103963
-0.00959884
0.000899805
-0.00998366
0.000751492
-0.0103674
0.000420098
-0.00010404
-0.011958
-0.000137098
-0.0120864
0.000552053
-0.0121564
0.00110299
-0.0122136
0.00152129
-0.0122893
0.00182375
-0.0124008
0.00203342
-0.0125548
0.00216973
-0.0127508
0.00224587
-0.0129839
0.00227037
-0.0132473
0.00224861
-0.0135336
0.00218344
-0.0138367
0.00207618
-0.0141534
0.00193007
-0.0144841
0.00175552
-0.0148347
0.00157521
-0.0152142
0.00142257
-0.0156257
0.00131513
-0.0160609
0.00119085
-0.0165373
0.000901008
0.000486888
-0.0169603
0.000196957
-0.0171773
0.000766412
-0.0173281
0.00125142
-0.0174575
0.00164855
-0.0176008
0.00196518
-0.0177792
0.00221051
-0.0180004
0.00239007
-0.0182612
0.00250648
-0.018553
0.00256248
-0.0188656
0.00256204
-0.0191904
0.00250962
-0.0195224
0.00241014
-0.019862
0.00227194
-0.0202153
0.00211165
-0.0205949
0.00195795
-0.0210149
0.00184612
-0.0214829
0.0017869
-0.0219999
0.00171203
-0.022585
0.00149061
0.00117308
-0.0216141
0.000635084
-0.0219481
0.00109778
-0.022216
0.00151685
-0.0224569
0.00188723
-0.0227036
0.00221004
-0.0229765
0.00248207
-0.0232817
0.00269438
-0.0236141
0.00283858
-0.023964
0.00291267
-0.0243226
0.00292146
-0.0246847
0.00287309
-0.0250497
0.00277698
-0.0254216
0.00264618
-0.0258092
0.00250205
-0.0262248
0.00237664
-0.026679
0.00230385
-0.0271763
0.00228797
-0.0277209
0.0022608
-0.0283363
0.00211052
0.00188997
-0.0261518
0.00118369
-0.0266078
0.0015512
-0.026998
0.0019045
-0.0273543
0.00224129
-0.0277075
0.00256135
-0.0280778
0.00285104
-0.0284706
0.00308628
-0.0288795
0.00324716
-0.0292949
0.00332827
-0.0297102
0.00333752
-0.0301237
0.00328796
-0.0305375
0.00319262
-0.0309558
0.00306684
-0.0313852
0.00293417
-0.0318339
0.00282839
-0.0323095
0.00278297
-0.0328182
0.00280047
-0.033371
0.00281782
-0.0339952
0.00273921
0.00261319
-0.0306456
0.00183128
-0.0312098
0.0021127
-0.0317051
0.00239732
-0.0321571
0.00269098
-0.0325977
0.00300011
-0.0330498
0.0033017
-0.0335173
0.00355286
-0.0339901
0.00371967
-0.0344563
0.0037947
-0.0349106
0.00379251
-0.0353546
0.00373336
-0.0357934
0.00363319
-0.0362315
0.00350726
-0.036674
0.00337934
-0.0371271
0.00328458
-0.0375987
0.00325803
-0.038099
0.00330459
-0.0386451
0.00336808
-0.0392628
0.00336143
0.00331398
-0.0349517
0.00253513
-0.0355881
0.00274639
-0.03615
0.00295674
-0.0366549
0.00319364
-0.0371426
0.00348598
-0.0376434
0.00380098
-0.0381585
0.00406712
-0.03867
0.00423083
-0.0391603
0.00428518
-0.0396253
0.00425822
-0.0400726
0.00418192
-0.0405118
0.00407422
-0.040949
0.0039467
-0.0413875
0.00382056
-0.0418318
0.00373192
-0.0422898
0.0037195
-0.0427758
0.00379435
-0.0433117
0.00390814
-0.0439201
0.00397441
0.00399196
-0.0387769
0.00324201
-0.0394505
0.00341728
-0.0400407
0.00354448
-0.0405517
0.00370237
-0.0410439
0.00397641
-0.0415647
0.00432037
-0.0421102
0.0046117
-0.0426462
0.00476645
-0.0431445
0.00478366
-0.043603
0.00471747
-0.044039
0.00461923
-0.0444696
0.00450655
-0.0449014
0.00438068
-0.0453343
0.00425611
-0.0457691
0.00416982
-0.0462132
0.00416698
-0.0466843
0.00426935
-0.0472105
0.00443845
-0.0478123
0.00458079
0.00466608
-0.041789
0.0038997
-0.04249
0.00411567
-0.0430889
0.00414092
-0.0435612
0.0041725
-0.0440169
0.00443032
-0.044541
0.00484306
-0.0451164
0.0051862
-0.0456774
0.00532716
-0.046177
0.00528343
-0.0466172
0.00515839
-0.0470326
0.00503587
-0.0474516
0.00492734
-0.0478802
0.00481143
-0.0483114
0.00468999
-0.0487403
0.00460176
-0.0491724
0.00460245
-0.049629
0.00472978
-0.0501462
0.00495983
-0.0507477
0.00518685
0.00534424
-0.0448275
0.0040233
-0.0454161
0.00448554
-0.0462306
0.00492754
-0.0468791
0.00478696
-0.0472733
0.00456446
-0.0476513
0.00480655
-0.0481936
0.005384
-0.0488451
0.00583676
-0.0494722
0.00595396
-0.0499923
0.00580375
-0.0504181
0.00558497
-0.0508199
0.00543893
-0.0512471
0.00535633
-0.0517008
0.00526734
-0.0521601
0.00515202
-0.0526099
0.00505467
-0.0530525
0.00504865
-0.0535135
0.00519463
-0.0540422
0.00549291
-0.0546785
0.00582789
0.00606888
-0.0467084
-0.0470538
-0.0481524
0.00602352
-0.0489169
0.00554897
-0.0491193
0.00476479
-0.0492916
0.00497708
-0.0498619
0.005953
-0.0506518
0.00662582
-0.0513853
0.00668721
-0.0519219
0.00634054
-0.0523017
0.00596558
-0.0526676
0.0058061
-0.0531069
0.00579752
-0.0536043
0.005767
-0.0541109
0.00566142
-0.0545947
0.0055416
-0.0550535
0.00551103
-0.0555154
0.00566061
-0.0560469
0.00602879
-0.0567216
0.0065075
0.00684836
-0.0480752
-0.0494296
-0.0493228
0.00465593
-0.0489744
0.00462704
-0.0496472
0.00662457
-0.0507298
0.00770767
-0.0516466
0.00760373
-0.0521827
0.00687698
-0.0524456
0.00622929
-0.052728
0.00608991
-0.0531919
0.00626328
-0.0537721
0.00634948
-0.0543648
0.00625692
-0.0549114
0.00609146
-0.0554051
0.00600844
-0.0558756
0.00613524
-0.056404
0.00656175
-0.0571277
0.00723619
0.00773926
-0.0471364
-0.0450979
0.00258695
-0.0462898
0.0078153
-0.0481294
0.00954667
-0.0494267
0.00890085
-0.0499548
0.00740544
-0.0499618
0.00623716
-0.0500629
0.0061924
-0.0505899
0.00679222
-0.0513284
0.00709035
-0.0520719
0.0070033
-0.0527299
0.00675275
-0.0532968
0.00657906
-0.0538052
0.0066479
-0.0543327
0.00709394
-0.0551157
0.00802441
0.00882918
-0.0251806
-0.0354062
-0.0404994
0.0146394
-0.0428443
0.0112457
-0.0434227
0.00798424
-0.0429181
0.00573357
-0.0427527
0.00602847
-0.0436116
0.00765303
-0.0447688
0.00824997
-0.0458507
0.0080881
-0.0467665
0.00767195
-0.0475373
0.00735368
-0.0482092
0.00732419
-0.048805
0.00769451
-0.0496274
0.00885222
0.0102969
0.0384974
0.0228119
0.00794741
0.0228493
-0.00584399
0.019526
-0.0166307
0.0168167
-0.0235793
0.0146037
-0.0280633
0.0127364
-0.0311319
0.0111597
-0.0333975
0.00994103
-0.0352077
0.00916781
-0.0367362
0.00885712
-0.037915
0.00887825
-0.038692
0.00963474
0.0127614
0.100253
0.0849508
0.0348293
0.0705005
0.0312686
0.0570469
0.0280594
0.0446127
0.0251732
0.0331325
0.022643
0.022584
0.0204931
0.0130177
0.0187381
0.0045044
0.017375
-0.00309226
0.01648
-0.00910246
0.0156506
0.0203307
0.175949
0.161799
0.148067
0.0417934
0.134731
0.038512
0.121776
0.0356012
0.10919
0.0330823
0.096967
0.0309657
0.0850866
0.0292601
0.0735559
0.0280159
0.0616144
0.0275979
0.030354
0.233986
0.221631
0.0508707
0.209391
0.0478439
0.197254
0.0452228
0.185197
0.0430269
0.173176
0.0412861
0.161106
0.0400912
0.148927
0.0397829
0.040954
0.299947
0.2893
0.278599
0.0559271
0.267832
0.0537984
0.256975
0.0521486
0.246017
0.0510545
0.235142
0.0506643
0.0509638
0.35029
0.341358
0.0627355
0.332275
0.061236
0.323083
0.0602521
0.313945
0.0598088
0.0597249
0.404364
0.397331
0.390156
0.0674335
0.382937
0.0670341
0.0668814
0.446559
0.44132
0.07228
0.0722598
0.489255
0.0758194
)
;

boundaryField
{
    inlet
    {
        type            calculated;
        value           nonuniform 0();
    }
    outlet
    {
        type            calculated;
        value           nonuniform List<scalar> 
30
(
0.0223524
0.0242063
0.0174735
0.0100138
0.0025538
-0.00438745
-0.0108609
-0.0171235
-0.0232665
-0.0290484
-0.0347136
-0.0399588
-0.0445932
-0.0484815
-0.0514209
-0.055398
-0.0574958
-0.0580132
-0.0562001
-0.0510894
-0.0411506
-0.0166656
0.0515974
0.138334
0.225139
0.305191
0.375788
0.435949
0.485703
0.525798
)
;
    }
    flap
    {
        type            calculated;
        value           nonuniform 0();
    }
    upperWall
    {
        type            calculated;
        value           nonuniform 0();
    }
    lowerWall
    {
        type            calculated;
        value           uniform 0;
    }
    frontAndBack
    {
        type            empty;
        value           nonuniform 0();
    }
    procBoundary5to2
    {
        type            processor;
        value           nonuniform List<scalar> 
34
(
0.00371199
0.00482818
0.0458434
0.00825263
0.00690096
0.048597
0.00319334
0.00601553
0.0217504
0.0180398
-0.0555114
0.0316529
0.0269311
-0.116314
0.0389106
-0.190537
0.0494185
0.0454201
-0.246471
0.0542797
-0.310546
0.0614716
0.0584947
-0.359066
0.0647071
-0.411205
0.069581
0.0682739
-0.45166
0.0725406
-0.492557
0.0755897
-0.527598
0.0776271
)
;
    }
    procBoundary5to4
    {
        type            processor;
        value           nonuniform List<scalar> 
18
(
-0.0228106
-0.0242136
-0.0205608
-0.0153189
-0.00873779
-0.000841094
0.00604228
0.0117177
0.0166236
0.0211733
0.0256004
0.0299952
0.0342451
0.0380673
0.0411286
-0.0037084
0.0445097
0.0470167
)
;
    }
}


// ************************************************************************* //
