/*--------------------------------*- C++ -*----------------------------------*\
| =========                 |                                                 |
| \\      /  F ield         | OpenFOAM: The Open Source CFD Toolbox           |
|  \\    /   O peration     | Version:  dev                                   |
|   \\  /    A nd           | Web:      www.OpenFOAM.org                      |
|    \\/     M anipulation  |                                                 |
\*---------------------------------------------------------------------------*/
FoamFile
{
    version     2.0;
    format      ascii;
    class       pointVectorField;
    location    "4.3";
    object      pointDisplacement;
}
// * * * * * * * * * * * * * * * * * * * * * * * * * * * * * * * * * * * * * //

dimensions      [0 1 0 0 0 0 0];

internalField   nonuniform List<vector> 
5828
(
(0 0 0)
(0.00953972 0 0)
(0.0181321 0 0)
(0.0255515 0 0)
(0.0318901 0 0)
(0.0372362 0 0)
(0.0416699 0 0)
(0.0452628 0 0)
(0.0480789 0 0)
(0.0501745 0 0)
(0.0515995 0 0)
(0.0523977 0 0)
(0.0526075 0 0)
(0.0522635 0 0)
(0.0513965 0 0)
(0.0500351 0 0)
(0.0482064 0 0)
(0.0459379 0 0)
(0.0432589 0 0)
(0.0402014 0 0)
(0.0368015 0 0)
(0.0331019 0 0)
(0.0291555 0 0)
(0.0250291 0 0)
(0.0208065 0 0)
(0.0165922 0 0)
(0.0125183 0 0)
(0.00875676 0 0)
(0.0055456 0 0)
(0.00327764 0 0)
(0 0 0)
(0 0 0)
(0.00954512 0 -8.35763e-06)
(0.0181435 0 -1.56878e-05)
(0.0255691 0 -2.16242e-05)
(0.0319143 0 -2.60883e-05)
(0.0372677 0 -2.89841e-05)
(0.0417095 0 -3.01813e-05)
(0.0453117 0 -2.95055e-05)
(0.0481382 0 -2.67315e-05)
(0.0502459 0 -2.15773e-05)
(0.0516847 0 -1.36965e-05)
(0.0524987 0 -2.67247e-06)
(0.0527268 0 1.19894e-05)
(0.0524037 0 3.08662e-05)
(0.0515608 0 5.46166e-05)
(0.0502267 0 8.39873e-05)
(0.0484292 0 0.000119825)
(0.046196 0 0.000163075)
(0.0435567 0 0.000214769)
(0.0405443 0 0.000276)
(0.037195 0 0.00034787)
(0.0335516 0 0.000431591)
(0.0296672 0 0.000528569)
(0.0256092 0 0.000640399)
(0.0214628 0 0.000768715)
(0.0173344 0 0.000915058)
(0.01336 0 0.00108067)
(0.00971701 0 0.00126531)
(0.0066502 0 0.00146369)
(0.00454754 0 0.00165313)
(0.00194734 0 0.00198802)
(0 0 0)
(0.00956322 0 -1.67902e-05)
(0.0181797 0 -3.15287e-05)
(0.0256239 0 -4.34883e-05)
(0.031989 0 -5.2519e-05)
(0.0373641 0 -5.8436e-05)
(0.0418302 0 -6.09858e-05)
(0.0454596 0 -5.98286e-05)
(0.0483173 0 -5.4524e-05)
(0.0504607 0 -4.45209e-05)
(0.0519406 0 -2.91417e-05)
(0.0528018 0 -7.57237e-06)
(0.053084 0 2.11543e-05)
(0.052823 0 5.81682e-05)
(0.0520514 0 0.000104754)
(0.050799 0 0.000162358)
(0.049094 0 0.000232627)
(0.0469655 0 0.000317394)
(0.0444443 0 0.000418653)
(0.0415657 0 0.000538532)
(0.0383672 0 0.000679018)
(0.0348913 0 0.000842249)
(0.0311907 0 0.00103065)
(0.0273348 0 0.00124694)
(0.0234124 0 0.00149356)
(0.0195335 0 0.00177203)
(0.0158414 0 0.00208252)
(0.0125244 0 0.00242079)
(0.00983253 0 0.00277117)
(0.00812739 0 0.00308726)
(0.00600917 0 0.00354564)
(0 0 0)
(0.00959365 0 -2.5369e-05)
(0.0182404 0 -4.76677e-05)
(0.0257157 0 -6.58201e-05)
(0.0321138 0 -7.96184e-05)
(0.0375249 0 -8.88025e-05)
(0.042031 0 -9.30111e-05)
(0.0457057 0 -9.17559e-05)
(0.0486147 0 -8.44016e-05)
(0.050817 0 -7.0154e-05)
(0.0523644 0 -4.80339e-05)
(0.0533033 0 -1.6869e-05)
(0.0536748 0 2.47357e-05)
(0.0535159 0 7.8417e-05)
(0.0528618 0 0.000146019)
(0.0517437 0 0.000229596)
(0.050191 0 0.000331492)
(0.0482348 0 0.000454317)
(0.0459071 0 0.000600883)
(0.0432458 0 0.000774023)
(0.0402928 0 0.000976368)
(0.0370925 0 0.00121075)
(0.0336963 0 0.00148018)
(0.0301723 0 0.00178744)
(0.0266112 0 0.00213399)
(0.0231245 0 0.00251933)
(0.0198616 0 0.00294001)
(0.0170178 0 0.00338428)
(0.0148334 0 0.00382329)
(0.01362 0 0.00419332)
(0.0120284 0 0.00465841)
(0 0 0)
(0.00963592 0 -3.41589e-05)
(0.0183247 0 -6.42375e-05)
(0.025843 0 -8.88284e-05)
(0.0322868 0 -0.000107686)
(0.0377478 0 -0.000120496)
(0.0423093 0 -0.000126811)
(0.0460463 0 -0.00012602)
(0.0490262 0 -0.000117321)
(0.0513096 0 -9.97159e-05)
(0.0529501 0 -7.19665e-05)
(0.053996 0 -3.26019e-05)
(0.0544902 0 2.01314e-05)
(0.0544713 0 8.83175e-05)
(0.0539769 0 0.000174233)
(0.0530415 0 0.000280386)
(0.0516972 0 0.000409708)
(0.0499769 0 0.000565409)
(0.0479147 0 0.000750822)
(0.0455493 0 0.000969154)
(0.0429274 0 0.00122361)
(0.0400985 0 0.00151741)
(0.0371161 0 0.00185344)
(0.034045 0 0.00223314)
(0.0309716 0 0.00265559)
(0.0280039 0 0.00311723)
(0.0252831 0 0.00360931)
(0.0230046 0 0.00411142)
(0.0213943 0 0.0045838)
(0.0207048 0 0.00495552)
(0.0195793 0 0.00537692)
(0 0 0)
(0.0096896 0 -4.32174e-05)
(0.0184317 0 -8.13558e-05)
(0.0260045 0 -0.000112699)
(0.0325062 0 -0.000136991)
(0.0380303 0 -0.000153887)
(0.0426618 0 -0.000162884)
(0.0464773 0 -0.000163282)
(0.0495464 0 -0.000154144)
(0.0519319 0 -0.000134327)
(0.0536892 0 -0.000102378)
(0.0548684 0 -5.65779e-05)
(0.0555151 0 5.0419e-06)
(0.055671 0 8.48717e-05)
(0.0553752 0 0.00018553)
(0.0546661 0 0.000309873)
(0.0535807 0 0.000461215)
(0.0521538 0 0.000643117)
(0.0504228 0 0.000859182)
(0.0484283 0 0.00111289)
(0.0462182 0 0.00140766)
(0.0438452 0 0.00174646)
(0.0413665 0 0.00213114)
(0.0388468 0 0.00256134)
(0.0363669 0 0.00303359)
(0.0340268 0 0.00354055)
(0.031942 0 0.00406779)
(0.0302896 0 0.0045881)
(0.02928 0 0.00505535)
(0.0291133 0 0.00539922)
(0.0283913 0 0.00577041)
(0 0 0)
(0.00975408 0 -5.25934e-05)
(0.0185602 0 -9.91231e-05)
(0.0261984 0 -0.000137591)
(0.0327695 0 -0.000167761)
(0.0383692 0 -0.000189294)
(0.0430842 0 -0.00020166)
(0.0469934 0 -0.000204113)
(0.0501685 0 -0.000195615)
(0.0526743 0 -0.000174901)
(0.0545686 0 -0.000140435)
(0.0559038 0 -9.03314e-05)
(0.0567298 0 -2.24915e-05)
(0.0570921 0 6.55962e-05)
(0.0570319 0 0.000176796)
(0.0565909 0 0.00031421)
(0.0558101 0 0.000481286)
(0.054728 0 0.000681689)
(0.0533856 0 0.000919106)
(0.0518266 0 0.00119707)
(0.0501004 0 0.00151867)
(0.0482607 0 0.00188611)
(0.0463648 0 0.00229992)
(0.0444772 0 0.00275797)
(0.0426726 0 0.00325424)
(0.0410387 0 0.00377734)
(0.0396677 0 0.00430867)
(0.0386904 0 0.00481743)
(0.0382891 0 0.00525498)
(0.038634 0 0.00555565)
(0.0382759 0 0.00588305)
(0 0 0)
(0.00982861 0 -6.23263e-05)
(0.0187086 0 -0.00011762)
(0.0264224 0 -0.000163632)
(0.0330736 0 -0.000200184)
(0.0387603 0 -0.000226975)
(0.0435715 0 -0.000243485)
(0.0475871 0 -0.000248925)
(0.0508813 0 -0.000242236)
(0.0535225 0 -0.000222117)
(0.0555719 0 -0.000187033)
(0.0570856 0 -0.000135083)
(0.0581166 0 -6.40634e-05)
(0.0587133 0 2.85654e-05)
(0.0589209 0 0.000145724)
(0.0587844 0 0.000290547)
(0.058348 0 0.00046643)
(0.0576551 0 0.000676915)
(0.0567499 0 0.00092552)
(0.0556792 0 0.00121551)
(0.0544949 0 0.00154944)
(0.0532523 0 0.0019285)
(0.0520084 0 0.00235186)
(0.0508234 0 0.00281563)
(0.0497617 0 0.0033115)
(0.0488934 0 0.0038252)
(0.0482906 0 0.00433532)
(0.0480283 0 0.00481004)
(0.0482462 0 0.00520167)
(0.0490925 0 0.00545007)
(0.0490843 0 0.00573319)
(0 0 0)
(0.00991227 0 -7.24442e-05)
(0.0188752 0 -0.000136904)
(0.0266737 0 -0.000190916)
(0.0334149 0 -0.000234395)
(0.0391991 0 -0.000267122)
(0.0441157 0 -0.000288569)
(0.0482466 0 -0.00029794)
(0.0516717 0 -0.000294331)
(0.0544637 0 -0.000276514)
(0.0566863 0 -0.000242938)
(0.0583984 0 -0.000191744)
(0.059656 0 -0.000120791)
(0.0605106 0 -2.75993e-05)
(0.061011 0 9.06485e-05)
(0.0612071 0 0.000236898)
(0.061147 0 0.000414281)
(0.0608783 0 0.00062599)
(0.0604489 0 0.000875109)
(0.0599072 0 0.00116447)
(0.0593085 0 0.0014959)
(0.0587122 0 0.0018695)
(0.0581736 0 0.00228313)
(0.0577468 0 0.00273145)
(0.0574834 0 0.00320465)
(0.0574318 0 0.00368699)
(0.057635 0 0.00415563)
(0.0581245 0 0.00457951)
(0.0589875 0 0.00491386)
(0.0603288 0 0.00510361)
(0.060661 0 0.00534064)
(0 0 0)
(0.010004 0 -8.29631e-05)
(0.0190578 0 -0.00015701)
(0.0269493 0 -0.000219496)
(0.0337893 0 -0.000270475)
(0.0396783 0 -0.000309801)
(0.0447057 0 -0.000336963)
(0.0489611 0 -0.000351345)
(0.0525307 0 -0.000352247)
(0.0554878 0 -0.000338509)
(0.0578981 0 -0.000308651)
(0.0598228 0 -0.000260863)
(0.061321 0 -0.000193165)
(0.0624486 0 -0.000103382)
(0.0632595 0 1.10121e-05)
(0.0638078 0 0.00015264)
(0.0641455 0 0.000324166)
(0.0643247 0 0.000528203)
(0.0643978 0 0.000767099)
(0.0644164 0 0.001043)
(0.0644356 0 0.00135722)
(0.0645172 0 0.00170879)
(0.0647197 0 0.00209418)
(0.0650911 0 0.00250713)
(0.065669 0 0.00293728)
(0.0664788 0 0.00336885)
(0.0675295 0 0.00377955)
(0.0688126 0 0.00414044)
(0.0703512 0 0.00440981)
(0.072185 0 0.00453693)
(0.0728528 0 0.00472481)
(0 0 0)
(0.0101027 0 -9.38862e-05)
(0.0192541 0 -0.000177944)
(0.0272454 0 -0.000249385)
(0.0341906 0 -0.000308443)
(0.0401887 0 -0.000354994)
(0.0453334 0 -0.00038871)
(0.0497242 0 -0.000409301)
(0.0534491 0 -0.00041617)
(0.0565814 0 -0.000408257)
(0.0591877 0 -0.000384193)
(0.0613325 0 -0.000342383)
(0.0630788 0 -0.000281099)
(0.064488 0 -0.000198586)
(0.0656195 0 -9.28396e-05)
(0.0665302 0 3.83145e-05)
(0.0672761 0 0.000196912)
(0.067914 0 0.000384795)
(0.0685016 0 0.000603382)
(0.0690973 0 0.000853648)
(0.0697545 0 0.00113623)
(0.0705299 0 0.00144982)
(0.0714885 0 0.00178965)
(0.0726785 0 0.00214858)
(0.0741247 0 0.00251682)
(0.0758324 0 0.00288007)
(0.0777783 0 0.00321866)
(0.0799075 0 0.00350732)
(0.0821625 0 0.00370806)
(0.0844963 0 0.0037729)
(0.0855117 0 0.00390618)
(0 0 0)
(0.0102069 0 -0.000105203)
(0.0194614 0 -0.000199686)
(0.0275585 0 -0.000280554)
(0.0346125 0 -0.000348225)
(0.0407224 0 -0.000402659)
(0.0459922 0 -0.000443842)
(0.0505271 0 -0.000471781)
(0.0544144 0 -0.000485998)
(0.0577265 0 -0.000485545)
(0.0605311 0 -0.000469188)
(0.0628997 0 -0.000435814)
(0.0649006 0 -0.000384122)
(0.0665979 0 -0.000312712)
(0.0680543 0 -0.000220156)
(0.0693296 0 -0.000104943)
(0.0704842 0 3.4192e-05)
(0.0715794 0 0.000198172)
(0.0726772 0 0.000387394)
(0.0738412 0 0.000601515)
(0.0751299 0 0.000839686)
(0.0765954 0 0.00110038)
(0.0783035 0 0.00137846)
(0.080307 0 0.00166604)
(0.0826235 0 0.00195443)
(0.0852458 0 0.00223237)
(0.0881256 0 0.00248506)
(0.0911652 0 0.00269351)
(0.0942055 0 0.00282638)
(0.0970747 0 0.00283644)
(0.0984963 0 0.00292362)
(0 0 0)
(0.0103153 0 -0.00011689)
(0.0196767 0 -0.000222186)
(0.0278829 0 -0.000312916)
(0.0350481 0 -0.000389674)
(0.041274 0 -0.000452676)
(0.0466747 0 -0.000502238)
(0.0513591 0 -0.000538562)
(0.0554116 0 -0.00056137)
(0.058903 0 -0.000569844)
(0.0619075 0 -0.000563116)
(0.0645041 0 -0.000540602)
(0.0667628 0 -0.000501424)
(0.0687489 0 -0.000444635)
(0.0705273 0 -0.000369394)
(0.0721616 0 -0.00027499)
(0.0737158 0 -0.000161053)
(0.0752545 0 -2.76978e-05)
(0.076843 0 0.000124313)
(0.078547 0 0.000293394)
(0.0804308 0 0.000477023)
(0.0825526 0 0.000672355)
(0.0849756 0 0.000874204)
(0.087751 0 0.00107465)
(0.0908998 0 0.0012659)
(0.0944134 0 0.00144051)
(0.0982344 0 0.00159094)
(0.102237 0 0.00170885)
(0.106161 0 0.00177619)
(0.109663 0 0.00174621)
(0.111694 0 0.00181203)
(0 0 0)
(0.0104266 0 -0.000128912)
(0.0198971 0 -0.000245373)
(0.028213 0 -0.000346356)
(0.0354911 0 -0.000432674)
(0.0418376 0 -0.000504892)
(0.047373 0 -0.000563641)
(0.0522077 0 -0.000609289)
(0.0564242 0 -0.000641755)
(0.0600947 0 -0.000660559)
(0.0633015 0 -0.000665335)
(0.0661261 0 -0.00065587)
(0.0686385 0 -0.000631714)
(0.0709065 0 -0.000592501)
(0.072997 0 -0.000538059)
(0.0749763 0 -0.000468511)
(0.0769105 0 -0.000384442)
(0.0788666 0 -0.000287063)
(0.0809118 0 -0.000178383)
(0.0831134 0 -6.13696e-05)
(0.0855375 0 5.99216e-05)
(0.0882511 0 0.000180636)
(0.0913125 0 0.000295239)
(0.0947694 0 0.00039564)
(0.0986543 0 0.000473751)
(0.102966 0 0.000525052)
(0.107656 0 0.000549576)
(0.112602 0 0.000554579)
(0.117497 0 0.000548229)
(0.121804 0 0.000495774)
(0.12502 0 0.000597526)
(0 0 0)
(0.0105393 0 -0.000141221)
(0.0201198 0 -0.000269154)
(0.0285451 0 -0.00038074)
(0.0359367 0 -0.000477066)
(0.0424063 0 -0.000559067)
(0.0480775 0 -0.000627697)
(0.0530611 0 -0.000683513)
(0.0574396 0 -0.000726635)
(0.0612888 0 -0.000757053)
(0.0646956 0 -0.000774889)
(0.0677423 0 -0.000780249)
(0.0704999 0 -0.000773191)
(0.0730376 0 -0.000753943)
(0.0754238 0 -0.000723033)
(0.0777259 0 -0.000681411)
(0.0800113 0 -0.000630612)
(0.0823474 0 -0.000572936)
(0.0848018 0 -0.000511618)
(0.0874417 0 -0.000451007)
(0.0903331 0 -0.000396719)
(0.0935435 0 -0.000355637)
(0.0971248 0 -0.000334397)
(0.101124 0 -0.000342211)
(0.105578 0 -0.000389099)
(0.110491 0 -0.000480664)
(0.115834 0 -0.000615558)
(0.121516 0 -0.000775813)
(0.127264 0 -0.000911882)
(0.132493 0 -0.000992162)
(0.138387 0 -0.000685247)
(0 0 0)
(0.010653 0 -0.000153848)
(0.020344 0 -0.000293585)
(0.0288777 0 -0.000416141)
(0.0363824 0 -0.000522954)
(0.0429775 0 -0.000615357)
(0.0487857 0 -0.000694586)
(0.0539167 0 -0.000761404)
(0.0584551 0 -0.000816174)
(0.0624808 0 -0.000859363)
(0.0660834 0 -0.000891599)
(0.0693448 0 -0.000913341)
(0.0723368 0 -0.000925141)
(0.0751293 0 -0.000927819)
(0.0777912 0 -0.000922581)
(0.0803899 0 -0.00091116)
(0.0829923 0 -0.00089598)
(0.0856646 0 -0.000880333)
(0.0884722 0 -0.000868557)
(0.0914793 0 -0.000866223)
(0.094748 0 -0.000880287)
(0.0983373 0 -0.000919206)
(0.102296 0 -0.000992029)
(0.10666 0 -0.00110948)
(0.111451 0 -0.00128411)
(0.116665 0 -0.00152845)
(0.122265 0 -0.0018545)
(0.128152 0 -0.00227284)
(0.134069 0 -0.00279255)
(0.139584 0 -0.00350453)
(0.151778 0 -0.00201628)
(0 0 0)
(0.00953972 0 0)
(0.0181321 0 0)
(0.0255515 0 0)
(0.0318901 0 0)
(0.0372362 0 0)
(0.0416699 0 0)
(0.0452628 0 0)
(0.0480789 0 0)
(0.0501745 0 0)
(0.0515995 0 0)
(0.0523977 0 0)
(0.0526075 0 0)
(0.0522635 0 0)
(0.0513965 0 0)
(0.0500351 0 0)
(0.0482064 0 0)
(0.0459379 0 0)
(0.0432589 0 0)
(0.0402014 0 0)
(0.0368015 0 0)
(0.0331019 0 0)
(0.0291555 0 0)
(0.0250291 0 0)
(0.0208065 0 0)
(0.0165922 0 0)
(0.0125183 0 0)
(0.00875676 0 0)
(0.0055456 0 0)
(0.00327764 0 0)
(0 0 0)
(0 0 0)
(0.00954512 0 -8.35763e-06)
(0.0181435 0 -1.56878e-05)
(0.0255691 0 -2.16242e-05)
(0.0319143 0 -2.60883e-05)
(0.0372677 0 -2.89841e-05)
(0.0417095 0 -3.01813e-05)
(0.0453117 0 -2.95055e-05)
(0.0481382 0 -2.67315e-05)
(0.0502459 0 -2.15773e-05)
(0.0516847 0 -1.36965e-05)
(0.0524987 0 -2.67247e-06)
(0.0527268 0 1.19894e-05)
(0.0524037 0 3.08662e-05)
(0.0515608 0 5.46166e-05)
(0.0502267 0 8.39873e-05)
(0.0484292 0 0.000119825)
(0.046196 0 0.000163075)
(0.0435567 0 0.000214769)
(0.0405443 0 0.000276)
(0.037195 0 0.00034787)
(0.0335516 0 0.000431591)
(0.0296672 0 0.000528569)
(0.0256092 0 0.000640399)
(0.0214628 0 0.000768715)
(0.0173344 0 0.000915058)
(0.01336 0 0.00108067)
(0.00971701 0 0.00126531)
(0.0066502 0 0.00146369)
(0.00454754 0 0.00165313)
(0.00194734 0 0.00198802)
(0 0 0)
(0.00956322 0 -1.67902e-05)
(0.0181797 0 -3.15287e-05)
(0.0256239 0 -4.34883e-05)
(0.031989 0 -5.2519e-05)
(0.0373641 0 -5.8436e-05)
(0.0418302 0 -6.09858e-05)
(0.0454596 0 -5.98286e-05)
(0.0483173 0 -5.4524e-05)
(0.0504607 0 -4.45209e-05)
(0.0519406 0 -2.91417e-05)
(0.0528018 0 -7.57237e-06)
(0.053084 0 2.11543e-05)
(0.052823 0 5.81682e-05)
(0.0520514 0 0.000104754)
(0.050799 0 0.000162358)
(0.049094 0 0.000232627)
(0.0469655 0 0.000317394)
(0.0444443 0 0.000418653)
(0.0415657 0 0.000538532)
(0.0383672 0 0.000679018)
(0.0348913 0 0.000842249)
(0.0311907 0 0.00103065)
(0.0273348 0 0.00124694)
(0.0234124 0 0.00149356)
(0.0195335 0 0.00177203)
(0.0158414 0 0.00208252)
(0.0125244 0 0.00242079)
(0.00983253 0 0.00277117)
(0.00812739 0 0.00308726)
(0.00600917 0 0.00354564)
(0 0 0)
(0.00959365 0 -2.5369e-05)
(0.0182404 0 -4.76677e-05)
(0.0257157 0 -6.58201e-05)
(0.0321138 0 -7.96184e-05)
(0.0375249 0 -8.88025e-05)
(0.042031 0 -9.30111e-05)
(0.0457057 0 -9.17559e-05)
(0.0486147 0 -8.44016e-05)
(0.050817 0 -7.0154e-05)
(0.0523644 0 -4.80339e-05)
(0.0533033 0 -1.6869e-05)
(0.0536748 0 2.47357e-05)
(0.0535159 0 7.8417e-05)
(0.0528618 0 0.000146019)
(0.0517437 0 0.000229596)
(0.050191 0 0.000331492)
(0.0482348 0 0.000454317)
(0.0459071 0 0.000600883)
(0.0432458 0 0.000774023)
(0.0402928 0 0.000976368)
(0.0370925 0 0.00121075)
(0.0336963 0 0.00148018)
(0.0301723 0 0.00178744)
(0.0266112 0 0.00213399)
(0.0231245 0 0.00251933)
(0.0198616 0 0.00294001)
(0.0170178 0 0.00338428)
(0.0148334 0 0.00382329)
(0.01362 0 0.00419332)
(0.0120284 0 0.00465841)
(0 0 0)
(0.00963592 0 -3.41589e-05)
(0.0183247 0 -6.42375e-05)
(0.025843 0 -8.88284e-05)
(0.0322868 0 -0.000107686)
(0.0377478 0 -0.000120496)
(0.0423093 0 -0.000126811)
(0.0460463 0 -0.00012602)
(0.0490262 0 -0.000117321)
(0.0513096 0 -9.97159e-05)
(0.0529501 0 -7.19665e-05)
(0.053996 0 -3.26019e-05)
(0.0544902 0 2.01314e-05)
(0.0544713 0 8.83175e-05)
(0.0539769 0 0.000174233)
(0.0530415 0 0.000280386)
(0.0516972 0 0.000409708)
(0.0499769 0 0.000565409)
(0.0479147 0 0.000750822)
(0.0455493 0 0.000969154)
(0.0429274 0 0.00122361)
(0.0400985 0 0.00151741)
(0.0371161 0 0.00185344)
(0.034045 0 0.00223314)
(0.0309716 0 0.00265559)
(0.0280039 0 0.00311723)
(0.0252831 0 0.00360931)
(0.0230046 0 0.00411142)
(0.0213943 0 0.0045838)
(0.0207048 0 0.00495552)
(0.0195793 0 0.00537692)
(0 0 0)
(0.0096896 0 -4.32174e-05)
(0.0184317 0 -8.13558e-05)
(0.0260045 0 -0.000112699)
(0.0325062 0 -0.000136991)
(0.0380303 0 -0.000153887)
(0.0426618 0 -0.000162884)
(0.0464773 0 -0.000163282)
(0.0495464 0 -0.000154144)
(0.0519319 0 -0.000134327)
(0.0536892 0 -0.000102378)
(0.0548684 0 -5.65779e-05)
(0.0555151 0 5.0419e-06)
(0.055671 0 8.48717e-05)
(0.0553752 0 0.00018553)
(0.0546661 0 0.000309873)
(0.0535807 0 0.000461215)
(0.0521538 0 0.000643117)
(0.0504228 0 0.000859182)
(0.0484283 0 0.00111289)
(0.0462182 0 0.00140766)
(0.0438452 0 0.00174646)
(0.0413665 0 0.00213114)
(0.0388468 0 0.00256134)
(0.0363669 0 0.00303359)
(0.0340268 0 0.00354055)
(0.031942 0 0.00406779)
(0.0302896 0 0.0045881)
(0.02928 0 0.00505535)
(0.0291133 0 0.00539922)
(0.0283913 0 0.00577041)
(0 0 0)
(0.00975408 0 -5.25934e-05)
(0.0185602 0 -9.91231e-05)
(0.0261984 0 -0.000137591)
(0.0327695 0 -0.000167761)
(0.0383692 0 -0.000189294)
(0.0430842 0 -0.00020166)
(0.0469934 0 -0.000204113)
(0.0501685 0 -0.000195615)
(0.0526743 0 -0.000174901)
(0.0545686 0 -0.000140435)
(0.0559038 0 -9.03314e-05)
(0.0567298 0 -2.24915e-05)
(0.0570921 0 6.55962e-05)
(0.0570319 0 0.000176796)
(0.0565909 0 0.00031421)
(0.0558101 0 0.000481286)
(0.054728 0 0.000681689)
(0.0533856 0 0.000919106)
(0.0518266 0 0.00119707)
(0.0501004 0 0.00151867)
(0.0482607 0 0.00188611)
(0.0463648 0 0.00229992)
(0.0444772 0 0.00275797)
(0.0426726 0 0.00325424)
(0.0410387 0 0.00377734)
(0.0396677 0 0.00430867)
(0.0386904 0 0.00481743)
(0.0382891 0 0.00525498)
(0.038634 0 0.00555565)
(0.0382759 0 0.00588305)
(0 0 0)
(0.00982861 0 -6.23263e-05)
(0.0187086 0 -0.00011762)
(0.0264224 0 -0.000163632)
(0.0330736 0 -0.000200184)
(0.0387603 0 -0.000226975)
(0.0435715 0 -0.000243485)
(0.0475871 0 -0.000248925)
(0.0508813 0 -0.000242236)
(0.0535225 0 -0.000222117)
(0.0555719 0 -0.000187033)
(0.0570856 0 -0.000135083)
(0.0581166 0 -6.40634e-05)
(0.0587133 0 2.85654e-05)
(0.0589209 0 0.000145724)
(0.0587844 0 0.000290547)
(0.058348 0 0.00046643)
(0.0576551 0 0.000676915)
(0.0567499 0 0.00092552)
(0.0556792 0 0.00121551)
(0.0544949 0 0.00154944)
(0.0532523 0 0.0019285)
(0.0520084 0 0.00235186)
(0.0508234 0 0.00281563)
(0.0497617 0 0.0033115)
(0.0488934 0 0.0038252)
(0.0482906 0 0.00433532)
(0.0480283 0 0.00481004)
(0.0482462 0 0.00520167)
(0.0490925 0 0.00545007)
(0.0490843 0 0.00573319)
(0 0 0)
(0.00991227 0 -7.24442e-05)
(0.0188752 0 -0.000136904)
(0.0266737 0 -0.000190916)
(0.0334149 0 -0.000234395)
(0.0391991 0 -0.000267122)
(0.0441157 0 -0.000288569)
(0.0482466 0 -0.00029794)
(0.0516717 0 -0.000294331)
(0.0544637 0 -0.000276514)
(0.0566863 0 -0.000242938)
(0.0583984 0 -0.000191744)
(0.059656 0 -0.000120791)
(0.0605106 0 -2.75993e-05)
(0.061011 0 9.06485e-05)
(0.0612071 0 0.000236898)
(0.061147 0 0.000414281)
(0.0608783 0 0.00062599)
(0.0604489 0 0.000875109)
(0.0599072 0 0.00116447)
(0.0593085 0 0.0014959)
(0.0587122 0 0.0018695)
(0.0581736 0 0.00228313)
(0.0577468 0 0.00273145)
(0.0574834 0 0.00320465)
(0.0574318 0 0.00368699)
(0.057635 0 0.00415563)
(0.0581245 0 0.00457951)
(0.0589875 0 0.00491386)
(0.0603288 0 0.00510361)
(0.060661 0 0.00534064)
(0 0 0)
(0.010004 0 -8.29631e-05)
(0.0190578 0 -0.00015701)
(0.0269493 0 -0.000219496)
(0.0337893 0 -0.000270475)
(0.0396783 0 -0.000309801)
(0.0447057 0 -0.000336963)
(0.0489611 0 -0.000351345)
(0.0525307 0 -0.000352247)
(0.0554878 0 -0.000338509)
(0.0578981 0 -0.000308651)
(0.0598228 0 -0.000260863)
(0.061321 0 -0.000193165)
(0.0624486 0 -0.000103382)
(0.0632595 0 1.10121e-05)
(0.0638078 0 0.00015264)
(0.0641455 0 0.000324166)
(0.0643247 0 0.000528203)
(0.0643978 0 0.000767099)
(0.0644164 0 0.001043)
(0.0644356 0 0.00135722)
(0.0645172 0 0.00170879)
(0.0647197 0 0.00209418)
(0.0650911 0 0.00250713)
(0.065669 0 0.00293728)
(0.0664788 0 0.00336885)
(0.0675295 0 0.00377955)
(0.0688126 0 0.00414044)
(0.0703512 0 0.00440981)
(0.072185 0 0.00453693)
(0.0728528 0 0.00472481)
(0 0 0)
(0.0101027 0 -9.38862e-05)
(0.0192541 0 -0.000177944)
(0.0272454 0 -0.000249385)
(0.0341906 0 -0.000308443)
(0.0401887 0 -0.000354994)
(0.0453334 0 -0.00038871)
(0.0497242 0 -0.000409301)
(0.0534491 0 -0.00041617)
(0.0565814 0 -0.000408257)
(0.0591877 0 -0.000384193)
(0.0613325 0 -0.000342383)
(0.0630788 0 -0.000281099)
(0.064488 0 -0.000198586)
(0.0656195 0 -9.28396e-05)
(0.0665302 0 3.83145e-05)
(0.0672761 0 0.000196912)
(0.067914 0 0.000384795)
(0.0685016 0 0.000603382)
(0.0690973 0 0.000853648)
(0.0697545 0 0.00113623)
(0.0705299 0 0.00144982)
(0.0714885 0 0.00178965)
(0.0726785 0 0.00214858)
(0.0741247 0 0.00251682)
(0.0758324 0 0.00288007)
(0.0777783 0 0.00321866)
(0.0799075 0 0.00350732)
(0.0821625 0 0.00370806)
(0.0844963 0 0.0037729)
(0.0855117 0 0.00390618)
(0 0 0)
(0.0102069 0 -0.000105203)
(0.0194614 0 -0.000199686)
(0.0275585 0 -0.000280554)
(0.0346125 0 -0.000348225)
(0.0407224 0 -0.000402659)
(0.0459922 0 -0.000443842)
(0.0505271 0 -0.000471781)
(0.0544144 0 -0.000485998)
(0.0577265 0 -0.000485545)
(0.0605311 0 -0.000469188)
(0.0628997 0 -0.000435814)
(0.0649006 0 -0.000384122)
(0.0665979 0 -0.000312712)
(0.0680543 0 -0.000220156)
(0.0693296 0 -0.000104943)
(0.0704842 0 3.4192e-05)
(0.0715794 0 0.000198172)
(0.0726772 0 0.000387394)
(0.0738412 0 0.000601515)
(0.0751299 0 0.000839686)
(0.0765954 0 0.00110038)
(0.0783035 0 0.00137846)
(0.080307 0 0.00166604)
(0.0826235 0 0.00195443)
(0.0852458 0 0.00223237)
(0.0881256 0 0.00248506)
(0.0911652 0 0.00269351)
(0.0942055 0 0.00282638)
(0.0970747 0 0.00283644)
(0.0984963 0 0.00292362)
(0 0 0)
(0.0103153 0 -0.00011689)
(0.0196767 0 -0.000222186)
(0.0278829 0 -0.000312916)
(0.0350481 0 -0.000389674)
(0.041274 0 -0.000452676)
(0.0466747 0 -0.000502238)
(0.0513591 0 -0.000538562)
(0.0554116 0 -0.00056137)
(0.058903 0 -0.000569844)
(0.0619075 0 -0.000563116)
(0.0645041 0 -0.000540602)
(0.0667628 0 -0.000501424)
(0.0687489 0 -0.000444635)
(0.0705273 0 -0.000369394)
(0.0721616 0 -0.00027499)
(0.0737158 0 -0.000161053)
(0.0752545 0 -2.76978e-05)
(0.076843 0 0.000124313)
(0.078547 0 0.000293394)
(0.0804308 0 0.000477023)
(0.0825526 0 0.000672355)
(0.0849756 0 0.000874204)
(0.087751 0 0.00107465)
(0.0908998 0 0.0012659)
(0.0944134 0 0.00144051)
(0.0982344 0 0.00159094)
(0.102237 0 0.00170885)
(0.106161 0 0.00177619)
(0.109663 0 0.00174621)
(0.111694 0 0.00181203)
(0 0 0)
(0.0104266 0 -0.000128912)
(0.0198971 0 -0.000245373)
(0.028213 0 -0.000346356)
(0.0354911 0 -0.000432674)
(0.0418376 0 -0.000504892)
(0.047373 0 -0.000563641)
(0.0522077 0 -0.000609289)
(0.0564242 0 -0.000641755)
(0.0600947 0 -0.000660559)
(0.0633015 0 -0.000665335)
(0.0661261 0 -0.00065587)
(0.0686385 0 -0.000631714)
(0.0709065 0 -0.000592501)
(0.072997 0 -0.000538059)
(0.0749763 0 -0.000468511)
(0.0769105 0 -0.000384442)
(0.0788666 0 -0.000287063)
(0.0809118 0 -0.000178383)
(0.0831134 0 -6.13696e-05)
(0.0855375 0 5.99216e-05)
(0.0882511 0 0.000180636)
(0.0913125 0 0.000295239)
(0.0947694 0 0.00039564)
(0.0986543 0 0.000473751)
(0.102966 0 0.000525052)
(0.107656 0 0.000549576)
(0.112602 0 0.000554579)
(0.117497 0 0.000548229)
(0.121804 0 0.000495774)
(0.12502 0 0.000597526)
(0 0 0)
(0.0105393 0 -0.000141221)
(0.0201198 0 -0.000269154)
(0.0285451 0 -0.00038074)
(0.0359367 0 -0.000477066)
(0.0424063 0 -0.000559067)
(0.0480775 0 -0.000627697)
(0.0530611 0 -0.000683513)
(0.0574396 0 -0.000726635)
(0.0612888 0 -0.000757053)
(0.0646956 0 -0.000774889)
(0.0677423 0 -0.000780249)
(0.0704999 0 -0.000773191)
(0.0730376 0 -0.000753943)
(0.0754238 0 -0.000723033)
(0.0777259 0 -0.000681411)
(0.0800113 0 -0.000630612)
(0.0823474 0 -0.000572936)
(0.0848018 0 -0.000511618)
(0.0874417 0 -0.000451007)
(0.0903331 0 -0.000396719)
(0.0935435 0 -0.000355637)
(0.0971248 0 -0.000334397)
(0.101124 0 -0.000342211)
(0.105578 0 -0.000389099)
(0.110491 0 -0.000480664)
(0.115834 0 -0.000615558)
(0.121516 0 -0.000775813)
(0.127264 0 -0.000911882)
(0.132493 0 -0.000992162)
(0.138387 0 -0.000685247)
(0 0 0)
(0.010653 0 -0.000153848)
(0.020344 0 -0.000293585)
(0.0288777 0 -0.000416141)
(0.0363824 0 -0.000522954)
(0.0429775 0 -0.000615357)
(0.0487857 0 -0.000694586)
(0.0539167 0 -0.000761404)
(0.0584551 0 -0.000816174)
(0.0624808 0 -0.000859363)
(0.0660834 0 -0.000891599)
(0.0693448 0 -0.000913341)
(0.0723368 0 -0.000925141)
(0.0751293 0 -0.000927819)
(0.0777912 0 -0.000922581)
(0.0803899 0 -0.00091116)
(0.0829923 0 -0.00089598)
(0.0856646 0 -0.000880333)
(0.0884722 0 -0.000868557)
(0.0914793 0 -0.000866223)
(0.094748 0 -0.000880287)
(0.0983373 0 -0.000919206)
(0.102296 0 -0.000992029)
(0.10666 0 -0.00110948)
(0.111451 0 -0.00128411)
(0.116665 0 -0.00152845)
(0.122265 0 -0.0018545)
(0.128152 0 -0.00227284)
(0.134069 0 -0.00279255)
(0.139584 0 -0.00350453)
(0.151778 0 -0.00201627)
(0 0 0)
(0.00379822 0 0)
(0.00697255 0 0)
(0.0116971 0 0)
(0.0175045 0 0)
(0.0239613 0 0)
(0.0306814 0 0)
(0.0373425 0 0)
(0.0436972 0 0)
(0.0495686 0 0)
(0.0548394 0 0)
(0.0594378 0 0)
(0.063325 0 0)
(0.0664834 0 0)
(0.0689087 0 0)
(0.0706033 0 0)
(0.0715706 0 0)
(0.0718116 0 0)
(0.0713231 0 0)
(0.0700973 0 0)
(0.0681203 0 0)
(0.0653719 0 0)
(0.0618258 0 0)
(0.057449 0 0)
(0.0522031 0 0)
(0.0460437 0 0)
(0.0389222 0 0)
(0.0307856 0 0)
(0.0215787 0 0)
(0.01124 0 0)
(0 0 0)
(0.00178555 0 -0.00196318)
(0.00504368 0 -0.00181991)
(0.00816255 0 -0.00180841)
(0.0128134 0 -0.00178469)
(0.0185416 0 -0.00175823)
(0.0249151 0 -0.00172739)
(0.031547 0 -0.00168821)
(0.0381164 0 -0.001638)
(0.0443796 0 -0.00157676)
(0.0501631 0 -0.00150621)
(0.055352 0 -0.00142883)
(0.0598761 0 -0.00134718)
(0.0636969 0 -0.00126351)
(0.066797 0 -0.00117953)
(0.0691718 0 -0.00109642)
(0.0708232 0 -0.00101535)
(0.071754 0 -0.000937196)
(0.0719641 0 -0.000862078)
(0.0714496 0 -0.000789879)
(0.070202 0 -0.000720509)
(0.0682068 0 -0.000653801)
(0.0654432 0 -0.000589384)
(0.0618843 0 -0.000526785)
(0.0574969 0 -0.00046542)
(0.0522419 0 -0.000404615)
(0.0460748 0 -0.000343595)
(0.0389464 0 -0.000281472)
(0.0308036 0 -0.000217212)
(0.0215908 0 -0.000149594)
(0.0112462 0 -7.7125e-05)
(0 0 0)
(0.00567387 0 -0.00365755)
(0.00858788 0 -0.003533)
(0.0116029 0 -0.00353688)
(0.0160766 0 -0.00351393)
(0.0215936 0 -0.00347727)
(0.0277331 0 -0.00342548)
(0.0341092 0 -0.00335243)
(0.0404085 0 -0.00325429)
(0.0464012 0 -0.00313288)
(0.0519246 0 -0.00299254)
(0.0568713 0 -0.00283867)
(0.0611752 0 -0.0026765)
(0.0647998 0 -0.00251049)
(0.0677275 0 -0.00234401)
(0.0699526 0 -0.00217909)
(0.071476 0 -0.00201824)
(0.0722987 0 -0.0018634)
(0.0724175 0 -0.00171452)
(0.0718261 0 -0.00157128)
(0.0705139 0 -0.00143357)
(0.0684647 0 -0.00130112)
(0.0656561 0 -0.00117316)
(0.0620595 0 -0.00104876)
(0.0576403 0 -0.000926749)
(0.0523584 0 -0.000805798)
(0.0461681 0 -0.000684366)
(0.0390192 0 -0.000560694)
(0.0308579 0 -0.000432728)
(0.0216274 0 -0.000298042)
(0.0112649 0 -0.000153667)
(0 0 0)
(0.0114743 0 -0.00516464)
(0.0140668 0 -0.00511425)
(0.017 0 -0.00515989)
(0.0212602 0 -0.005164)
(0.0264846 0 -0.00513611)
(0.0322681 0 -0.00507362)
(0.0382351 0 -0.00497063)
(0.0441003 0 -0.00482627)
(0.0496591 0 -0.0046457)
(0.0547653 0 -0.00443682)
(0.0593233 0 -0.00420825)
(0.0632741 0 -0.00396799)
(0.0665836 0 -0.00372253)
(0.0692343 0 -0.00347681)
(0.0712198 0 -0.00323404)
(0.0725385 0 -0.00299716)
(0.0731866 0 -0.00276853)
(0.0731575 0 -0.00254848)
(0.0724413 0 -0.00233638)
(0.0710243 0 -0.00213227)
(0.0688875 0 -0.00193596)
(0.0660055 0 -0.00174613)
(0.0623474 0 -0.00156146)
(0.0578764 0 -0.00138019)
(0.0525504 0 -0.00120036)
(0.046322 0 -0.00101969)
(0.0391395 0 -0.00083557)
(0.0309475 0 -0.000644966)
(0.0216879 0 -0.000444273)
(0.0112958 0 -0.00022908)
(0 0 0)
(0.018791 0 -0.00657521)
(0.0211599 0 -0.00660293)
(0.0240472 0 -0.00669877)
(0.028095 0 -0.00674163)
(0.0329749 0 -0.00673079)
(0.0382956 0 -0.00665947)
(0.0437214 0 -0.00652527)
(0.0490148 0 -0.00633377)
(0.0540003 0 -0.00609408)
(0.0585546 0 -0.00581795)
(0.0625983 0 -0.00551729)
(0.0660813 0 -0.00520264)
(0.0689729 0 -0.00488209)
(0.071256 0 -0.00456179)
(0.0729238 0 -0.00424667)
(0.0739697 0 -0.00393925)
(0.074384 0 -0.00364124)
(0.0741571 0 -0.00335405)
(0.0732745 0 -0.00307716)
(0.0717172 0 -0.0028103)
(0.0694623 0 -0.00255285)
(0.066481 0 -0.00230354)
(0.0627397 0 -0.00206082)
(0.0581984 0 -0.00182226)
(0.0528125 0 -0.00158538)
(0.0465323 0 -0.00134714)
(0.0393039 0 -0.00110416)
(0.03107 0 -0.000852457)
(0.0217704 0 -0.000587291)
(0.011338 0 -0.000302854)
(0 0 0)
(0.0273734 0 -0.00796356)
(0.0295951 0 -0.00804747)
(0.0324678 0 -0.00818764)
(0.0363068 0 -0.0082646)
(0.0407921 0 -0.00826483)
(0.0455633 0 -0.0081787)
(0.0503497 0 -0.0080092)
(0.0549611 0 -0.00776735)
(0.0592582 0 -0.00746721)
(0.0631489 0 -0.00712458)
(0.0665739 0 -0.00675451)
(0.0694948 0 -0.00636979)
(0.0718831 0 -0.00597926)
(0.073722 0 -0.00558945)
(0.0750039 0 -0.0052064)
(0.0757174 0 -0.00483302)
(0.0758481 0 -0.00447089)
(0.0753812 0 -0.00412163)
(0.0742967 0 -0.00378507)
(0.0725701 0 -0.00346035)
(0.0701723 0 -0.00314612)
(0.0670701 0 -0.00284103)
(0.0632263 0 -0.0025431)
(0.0585983 0 -0.00224977)
(0.0531384 0 -0.00195815)
(0.0467939 0 -0.00166447)
(0.0395084 0 -0.00136467)
(0.0312224 0 -0.00105384)
(0.0218731 0 -0.000726172)
(0.0113904 0 -0.000374519)
(0 0 0)
(0.0370386 0 -0.00937004)
(0.0391568 0 -0.0094826)
(0.0420258 0 -0.00965335)
(0.0456371 0 -0.00974796)
(0.0496759 0 -0.00974359)