/*--------------------------------*- C++ -*----------------------------------*\
| =========                 |                                                 |
| \\      /  F ield         | OpenFOAM: The Open Source CFD Toolbox           |
|  \\    /   O peration     | Version:  dev                                   |
|   \\  /    A nd           | Web:      www.OpenFOAM.org                      |
|    \\/     M anipulation  |                                                 |
\*---------------------------------------------------------------------------*/
FoamFile
{
    version     2.0;
    format      ascii;
    class       volVectorField;
    location    "4.3";
    object      U;
}
// * * * * * * * * * * * * * * * * * * * * * * * * * * * * * * * * * * * * * //

dimensions      [0 1 -1 0 0 0 0];

internalField   nonuniform List<vector> 
2790
(
(9.93547 1.21009e-21 0.0194522)
(9.86772 0 0.028112)
(9.77054 0 0.0341662)
(9.64723 1.31858e-21 0.0402921)
(9.50511 0 0.0466365)
(9.34633 -1.40925e-21 0.0531849)
(9.17016 0 0.0600725)
(8.97554 0 0.0674598)
(8.76157 3.13989e-21 0.075486)
(8.52735 0 0.0842791)
(8.27176 0 0.0939693)
(7.9935 -3.53143e-21 0.104692)
(7.69114 0 0.116588)
(7.36315 0 0.1298)
(7.00796 8.01273e-21 0.144464)
(6.62407 0 0.160704)
(6.21009 8.75029e-21 0.178614)
(5.76494 0 0.198236)
(5.28799 0 0.219533)
(4.77931 0 0.242351)
(4.23995 -6.34358e-20 0.266379)
(3.67228 2.18927e-20 0.2911)
(3.08026 0 0.315731)
(2.46985 -2.38118e-20 0.339181)
(1.84923 0 0.360105)
(1.22758 0 0.378018)
(0.633415 -5.29732e-20 0.396978)
(-0.160184 5.43298e-20 0.113658)
(-0.277098 -5.52052e-20 -0.294727)
(-0.0680838 -1.13842e-19 -0.368867)
(9.99331 -2.41697e-21 0.0394033)
(9.97977 1.24178e-21 0.0596889)
(9.93924 -7.66218e-21 0.0750318)
(9.87152 9.212e-21 0.0910204)
(9.78268 -5.41895e-21 0.107994)
(9.67497 1.4045e-21 0.125847)
(9.54786 2.90468e-21 0.144841)
(9.4004 0 0.165324)
(9.23174 -3.12313e-21 0.187607)
(9.04102 0 0.211975)
(8.82717 0 0.238715)
(8.58891 -3.49594e-21 0.268117)
(8.3248 -6.60545e-20 0.300466)
(8.0333 1.21659e-19 0.336028)
(7.71279 -7.09101e-20 0.375022)
(7.36166 0 0.417585)
(6.97837 -8.64423e-21 0.46372)
(6.56162 0 0.513233)
(6.1105 -1.52031e-19 0.565631)
(5.6247 1.56588e-19 0.620025)
(5.10486 2.05094e-20 0.675009)
(4.55284 -6.44286e-20 0.72853)
(3.97219 -4.05303e-19 0.777731)
(3.36866 3.94949e-19 0.818789)
(2.75111 -3.40752e-19 0.846698)
(2.13321 4.00633e-19 0.854659)
(1.53788 1.55394e-19 0.831026)
(0.95516 -5.33162e-20 0.69104)
(0.516436 9.30185e-19 0.441104)
(0.124321 1.14013e-19 -0.263018)
(9.99039 2.41577e-21 0.042311)
(9.97393 -2.47527e-21 0.0717992)
(9.93542 0 0.0970965)
(9.87232 0 0.123439)
(9.78947 1.63037e-20 0.1515)
(9.6892 -1.11752e-20 0.181254)
(9.57127 2.0394e-20 0.213042)
(9.4349 -1.7918e-20 0.247356)
(9.27942 -6.2183e-21 0.284673)
(9.10411 -5.8412e-20 0.325459)
(8.90809 5.33542e-20 0.370186)
(8.69028 6.97711e-21 0.419341)
(8.44943 -1.09572e-19 0.473409)
(8.18416 1.20008e-19 0.532857)
(7.893 1.11083e-19 0.598082)
(7.57439 -2.62488e-19 0.669364)
(7.22678 1.35881e-19 0.746779)
(6.84867 -3.56211e-20 0.830094)
(6.43879 -3.37403e-19 0.9186)
(5.9962 3.08862e-19 1.01093)
(5.52062 2.45523e-19 1.10486)
(5.01268 -2.97941e-19 1.19703)
(4.47432 3.9443e-19 1.28263)
(3.90938 0 1.35499)
(3.32432 -4.76221e-20 1.40487)
(2.72911 0 1.41885)
(2.13823 -2.03335e-19 1.37464)
(1.55228 9.4404e-19 1.21605)
(0.969513 -8.61282e-19 0.920608)
(0.583827 1.12971e-19 0.428842)
(9.98867 -2.40529e-21 0.0477926)
(9.96992 -4.94831e-21 0.08803)
(9.93126 1.52799e-20 0.124618)
(9.86938 5.32247e-21 0.161642)
(9.78821 -2.70104e-20 0.200355)
(9.69003 0 0.241118)
(9.57486 -4.64573e-20 0.284448)
(9.44209 4.16972e-20 0.331)
(9.2912 4.36919e-20 0.381434)
(9.12168 -4.4754e-20 0.436399)
(8.9329 0 0.496553)
(8.72406 0 0.562571)
(8.49424 0 0.635139)
(8.24241 0 0.714922)
(7.96747 1.56374e-20 0.802527)
(7.66823 3.24367e-20 0.898421)
(7.34344 2.3921e-19 1.00285)
(6.99185 -2.45053e-19 1.1157)
(6.61221 3.33328e-19 1.23627)
(6.20338 -3.81069e-19 1.36306)
(5.76443 -6.03172e-19 1.49342)
(5.29491 -1.33059e-18 1.62322)
(4.79499 6.88201e-19 1.74637)
(4.2658 -8.95623e-20 1.85416)
(3.70967 -7.4889e-19 1.93443)
(3.12984 7.69914e-19 1.97009)
(2.53004 1.99623e-19 1.93638)
(1.9071 -1.03204e-19 1.79149)
(1.22825 1.06236e-19 1.51501)
(0.692329 1.56323e-18 1.06318)
(9.98785 9.6267e-21 0.0547896)
(9.96785 -9.88464e-21 0.104364)
(9.92908 1.01461e-20 0.15087)
(9.86826 5.23648e-21 0.197579)
(9.78875 0 0.246157)
(9.69266 0 0.297336)
(9.58005 0 0.351775)
(9.45044 -4.79302e-20 0.410228)
(9.30336 6.15509e-20 0.473466)
(9.13841 1.15761e-19 0.542257)
(8.95507 -1.18924e-19 0.617377)
(8.75272 0 0.699622)
(8.53065 0 0.789802)
(8.28807 0 0.888717)
(8.02416 -3.08678e-20 0.99711)
(7.73805 -3.22761e-20 1.11559)
(7.42879 -2.69754e-19 1.24456)
(7.09541 -7.33667e-20 1.38403)
(6.73688 3.60736e-19 1.53347)
(6.352 6.84198e-19 1.6914)
(5.9395 7.99579e-21 1.85513)
(5.4981 5.6841e-19 2.02028)
(5.02641 5.98341e-19 2.18021)
(4.52308 -6.12998e-19 2.32539)
(3.98643 1.55924e-18 2.44253)
(3.41411 -1.50858e-18 2.5138)
(2.8025 -9.8214e-20 2.51618)
(2.14598 0 2.41789)
(1.4023 -1.04873e-19 2.20203)
(0.771338 5.52747e-20 1.82705)
(9.98747 0 0.0624639)
(9.96696 -9.86838e-21 0.120695)
(9.92843 1.01208e-20 0.176602)
(9.86891 0 0.232888)
(9.79141 0 0.2913)
(9.69784 1.10988e-20 0.352797)
(9.58829 0 0.41816)
(9.4623 0 0.488224)
(9.3195 1.22711e-20 0.56386)
(9.15953 -1.27528e-20 0.645947)
(8.98193 5.10467e-23 0.735372)
(8.78619 0 0.833043)
(8.5717 -2.28735e-19 0.939881)
(8.3378 2.34599e-19 1.0568)
(8.0838 2.77543e-19 1.18466)
(7.80902 3.35376e-21 1.3242)
(7.51266 -2.29868e-19 1.47594)
(7.19385 -4.85123e-19 1.64007)
(6.85169 -7.92787e-20 1.81625)
(6.48491 5.9075e-19 2.00323)
(6.09191 6.21366e-19 2.19853)
(5.67076 7.97744e-19 2.39794)
(5.21884 8.55377e-22 2.59502)
(4.7328 0 2.7804)
(4.20813 -1.52642e-18 2.94112)
(3.63867 1.47519e-18 3.06001)
(3.01648 -9.52941e-20 3.11609)
(2.3356 1.59151e-18 3.08292)
(1.55301 -1.58692e-18 2.94427)
(0.853948 1.77879e-18 2.65518)
(9.98735 0 0.070405)
(9.96682 -4.91621e-21 0.136946)
(9.92894 2.02391e-20 0.201788)
(9.87099 -4.16307e-20 0.267309)
(9.79582 -2.16328e-20 0.335217)
(9.7052 4.41252e-20 0.406632)
(9.59919 3.45011e-20 0.482474)
(9.47742 -1.42062e-19 0.563676)
(9.33955 8.51473e-20 0.651208)
(9.18526 1.26275e-20 0.746049)
(9.01416 -9.22971e-20 0.849188)
(8.82579 1.35191e-19 0.961631)
(8.6196 2.54781e-19 1.0844)
(8.39498 -4.3845e-19 1.2185)
(8.15135 2.41077e-19 1.3649)
(7.88806 2.53317e-19 1.52446)
(7.60434 -2.59636e-19 1.69784)
(7.29926 5.4577e-19 1.8854)
(6.97181 -1.05565e-18 2.08706)
(6.62062 5.80382e-19 2.30196)
(6.24377 5.33853e-19 2.52802)
(5.83865 4.67421e-19 2.76162)
(5.40166 9.98438e-22 2.99701)
(4.92788 -8.36514e-20 3.22568)
(4.41097 1.40165e-18 3.43583)
(3.84249 -1.43855e-18 3.61146)
(3.21175 9.39897e-20 3.73274)
(2.51306 -9.60002e-20 3.77499)
(1.70753 1.60546e-18 3.71843)
(0.950297 -1.78277e-18 3.51211)
(9.98738 -4.77456e-21 0.0783766)
(9.96721 1.46953e-20 0.152957)
(9.93033 -3.02323e-20 0.22629)
(9.87422 2.07008e-20 0.300643)
(9.80171 5.35372e-20 0.377672)
(9.71444 -9.92552e-20 0.458609)
(9.61248 1.02465e-19 0.5445)
(9.49549 3.58562e-20 0.636376)
(9.36319 8.35408e-22 0.735291)
(9.2153 -2.38849e-19 0.842316)
(9.0515 2.49135e-20 0.958534)
(8.87136 -1.36481e-19 1.08505)
(8.6744 1.94048e-19 1.22297)
(8.46005 -2.90422e-19 1.37342)
(8.22777 2.38306e-19 1.53745)
(7.97687 4.9978e-19 1.71607)
(7.70654 6.09858e-21 1.91015)
(7.41577 6.28211e-21 2.12028)
(7.10328 -6.19038e-19 2.34665)
(6.76753 7.11194e-20 2.58887)
(6.40622 9.36515e-22 2.84553)
(6.01609 7.71567e-20 3.11383)
(5.59267 7.9844e-20 3.38914)
(5.1298 1.63943e-19 3.6642)
(4.61966 -8.40776e-20 3.92868)
(4.05232 1.32181e-18 4.16804)
(3.41509 -1.35656e-18 4.36299)
(2.7013 9.46471e-20 4.4883)
(1.8793 -4.90017e-20 4.51695)
(1.06378 1.53285e-19 4.38905)
(9.98751 0 0.0862287)
(9.96797 -9.7438e-21 0.168573)
(9.9324 0 0.249983)
(9.87842 0 0.332744)
(9.80888 -2.12811e-20 0.418484)
(9.72535 0 0.508511)
(9.62789 -9.08949e-20 0.603978)
(9.51621 9.32311e-20 0.706003)
(9.39008 0 0.815724)
(9.24928 1.27307e-22 0.934295)
(9.09354 1.81587e-19 1.06289)
(8.9225 -4.27156e-19 1.2027)
(8.73572 2.19828e-19 1.35494)
(8.5327 -2.01195e-19 1.52083)
(8.3129 2.35361e-19 1.70156)
(8.07556 -6.09245e-20 1.8983)
(7.81983 4.46572e-19 2.11215)
(7.54467 -5.21425e-19 2.344)
(7.24857 -6.7336e-20 2.59442)
(6.92966 4.92758e-19 2.86355)
(6.58524 -5.03244e-19 3.15082)
(6.2115 0 3.45452)
(5.80318 -1.2396e-18 3.77139)
(5.35306 2.46713e-18 4.09586)
(4.85179 9.26748e-20 4.4193)
(4.28787 -1.26693e-18 4.72879)
(3.6466 -1.49461e-18 5.0055)
(2.91798 1.44604e-18 5.22267)
(2.07864 0 5.34349)
(1.19744 -9.81667e-20 5.29485)
(9.98772 0 0.0938584)
(9.96901 2.92012e-20 0.183664)
(9.93501 -9.92803e-21 0.272741)
(9.88345 -6.17655e-20 0.36347)
(9.81717 5.28947e-20 0.457473)
(9.73773 5.46959e-20 0.556116)
(9.6452 -4.4901e-20 0.660638)
(9.53932 1.16414e-20 0.77224)
(9.41991 0 0.892134)
(9.28684 2.48301e-20 1.02155)
(9.13988 -2.05592e-19 1.16175)
(8.97874 2.10512e-19 1.31401)
(8.80305 0 1.47964)
(8.61239 0 1.65999)
(8.4062 -4.69206e-19 1.85637)
(8.18372 5.40556e-19 2.07018)
(7.94415 -4.38148e-19 2.30275)
(7.68633 4.48072e-19 2.55531)
(7.40865 6.67955e-20 2.82891)
(7.10896 0 3.12437)
(6.78423 0 3.44204)
(6.43016 0 3.78153)
(6.04083 -1.20144e-18 4.14126)
(5.60804 1.22805e-18 4.51775)
(5.12079 -7.82687e-20 4.90464)
(4.56545 -1.30884e-18 5.29115)
(3.92435 1.34284e-18 5.65943)
(3.18095 0 5.98141)
(2.31847 0 6.20922)
(1.35711 9.38294e-20 6.25082)
(9.98797 0 0.101191)
(9.97026 0 0.198119)
(9.93808 9.96968e-21 0.294448)
(9.88918 0 0.392685)
(9.82643 3.17489e-20 0.494472)
(9.75141 -1.06542e-20 0.60122)
(9.66419 -5.58059e-20 0.714238)
(9.56455 0 0.834802)
(9.45239 9.55768e-20 0.964189)
(9.32761 -9.78767e-20 1.1037)
(9.19009 -2.52585e-20 1.25467)
(9.0396 -2.10207e-19 1.41845)
(8.87585 1.88198e-19 1.59646)
(8.69851 1.96243e-19 1.79016)
(8.50705 -2.57667e-19 2.00104)
(8.30082 -2.95005e-20 2.23067)
(8.07902 4.91605e-19 2.48067)
(7.84051 -1.00786e-18 2.75264)
(7.58364 6.02242e-20 3.04819)
(7.30618 5.32339e-19 3.36889)
(7.00491 -1.17041e-18 3.71616)
(6.67527 1.20154e-18 4.09109)
(6.31084 5.94457e-21 4.4941)
(5.90256 -1.18492e-18 4.92435)
(5.43785 7.70728e-20 5.37862)
(4.90022 0 5.84957)
(4.2675 0 6.32203)
(3.51253 -2.63689e-18 6.7686)
(2.61922 1.32564e-21 7.13106)
(1.55459 2.80021e-18 7.29199)
(9.98827 0 0.108169)
(9.97169 2.89281e-20 0.211845)
(9.94151 -2.96904e-20 0.314995)
(9.8955 0 0.420265)
(9.83654 6.30147e-20 0.529331)
(9.76623 -3.23198e-20 0.643641)
(9.68466 5.49199e-23 0.764562)
(9.59166 0 0.893431)
(9.48718 9.48088e-20 1.03159)
(9.37123 -9.7058e-20 1.18039)
(9.24373 5.01977e-20 1.34122)
(9.10456 0 1.51554)
(8.95354 -1.87509e-19 1.70483)
(8.7904 4.67616e-19 1.91066)
(8.61475 -1.69094e-19 2.1347)
(8.42607 4.97989e-19 2.37871)
(8.22366 -4.78567e-19 2.64456)
(8.00647 6.19219e-19 2.93428)
(7.77301 -5.69729e-19 3.25003)
(7.52111 0 3.59418)
(7.24769 -9.36628e-19 3.9693)
(6.94823 -1.32484e-19 4.37809)
(6.61624 -1.11551e-18 4.82332)
(6.24223 1.07048e-18 5.30735)
(5.81243 -1.16323e-18 5.83134)
(5.30723 0 6.39353)
(4.69872 0 6.98516)
(3.94428 2.4276e-18 7.58483)
(3.01688 -2.56477e-18 8.12997)
(1.81451 -2.64046e-18 8.47482)
(9.98859 -9.34766e-21 0.114749)
(9.97325 -9.61913e-21 0.224766)
(9.94525 4.00962e-23 0.334288)
(9.90233 -4.06271e-20 0.446098)
(9.84738 2.07879e-20 0.561914)
(9.78203 -2.14637e-20 0.683214)
(9.70641 1.1076e-20 0.811414)
(9.62039 -1.02615e-19 0.947899)
(9.524 1.05116e-19 1.09405)
(9.4173 0 1.25129)
(9.30034 -2.49418e-20 1.42104)
(9.17308 2.30942e-19 1.60482)
(9.03545 -2.10044e-19 1.8042)
(8.88733 -1.90742e-19 2.02084)
(8.72847 1.94341e-19 2.25654)
(8.55853 4.60325e-19 2.51325)
(8.37701 -4.69749e-19 2.79309)
(8.18308 -5.45723e-19 3.09846)
(7.97554 2.83238e-20 3.43206)
(7.75261 1.04535e-18 3.79702)
(7.51162 -5.82719e-19 4.19704)
(7.24862 -9.89929e-19 4.63649)
(6.95769 1.08251e-21 5.12061)
(6.6299 2.25175e-18 5.65549)
(6.25147 -1.10874e-18 6.24792)
(5.80096 0 6.90458)
(5.24517 0 7.62916)
(4.52267 3.66775e-20 8.41793)
(3.57768 1.87079e-20 9.22476)
(2.19024 0 9.89856)
(9.98895 1.65783e-23 0.120895)
(9.97493 9.55375e-21 0.236819)
(9.94925 9.83391e-21 0.352245)
(9.90957 -3.03458e-20 0.470087)
(9.85883 4.14635e-20 0.592104)
(9.79867 5.46567e-23 0.719803)
(9.72924 -7.70566e-20 0.854634)
(9.65049 1.01417e-19 0.99802)
(9.56251 -2.32307e-20 1.15138)
(9.46545 -1.9182e-19 1.31616)
(9.35944 1.96174e-19 1.49384)
(9.24457 -2.54058e-20 1.68596)
(9.12091 2.08747e-19 1.89415)
(8.98848 -2.40099e-19 2.12016)
(8.84724 -2.72926e-20 2.36588)
(8.69706 -4.51954e-19 2.6334)
(8.53771 4.89591e-19 2.92506)
(8.36874 0 3.24356)
(8.1894 -6.04396e-20 3.59203)
(7.99853 -3.11434e-20 3.97427)
(7.79428 0 4.39491)
(7.57385 0 4.85984)
(7.33284 1.06173e-18 5.3766)
(7.06432 -9.11906e-21 5.95501)
(6.75701 -1.05336e-18 6.60809)
(6.39167 0 7.35323)
(5.93552 -1.02454e-18 8.21335)
(5.31411 1.06044e-18 9.22137)
(4.42951 -2.93729e-20 10.4027)
(2.80524 0 11.7679)
(9.98932 0 0.126578)
(9.97669 0 0.247951)
(9.95344 -9.74058e-21 0.368794)
(9.91716 -1.00534e-20 0.492142)
(9.87078 5.17054e-23 0.619788)
(9.81597 1.06252e-20 0.753263)
(9.75295 -1.09259e-20 0.894042)
(9.6817 0 1.04357)
(9.60239 1.15553e-20 1.2033)
(9.51526 -9.49631e-20 1.37468)
(9.42054 -9.81183e-20 1.55923)
(9.31844 -1.06215e-21 1.7585)
(9.20919 -1.06956e-21 1.97417)
(9.09297 2.10265e-19 2.208)
(8.96997 2.71816e-20 2.46196)
(8.84033 4.43623e-19 2.73824)
(8.70416 -4.80705e-19 3.0393)
(8.56146 -2.86773e-20 3.36803)
(8.41209 4.72376e-19 3.72785)
(8.25574 -4.79993e-19 4.12298)
(8.09173 -4.85979e-19 4.55872)
(7.91893 -4.93683e-19 5.04196)
(7.73547 4.5409e-19 5.58189)
(7.53821 -5.00336e-19 6.19118)
(7.32183 0 6.88785)
(7.07654 9.42752e-19 7.69896)
(6.78542 -9.70746e-19 8.66761)
(6.39588 -8.80898e-19 9.87425)
(5.83097 9.11681e-19 11.4901)
(3.94857 -1.1517e-19 14.5444)
(0.143009 2.26761e-21 -0.156153)
(0.339134 -4.52035e-21 -0.147932)
(0.547144 2.08426e-21 -0.122162)
(0.73701 -2.01681e-21 -0.0965922)
(0.895872 1.53216e-21 -0.0745582)
(1.02403 -1.46556e-21 -0.0557977)
(1.12499 2.77725e-21 -0.0395516)
(1.20123 -1.31698e-21 -0.0252628)
(1.25405 0 -0.0126758)
(1.2845 0 -0.00185237)
(1.29438 1.39258e-22 0.00669355)
(1.28757 1.3765e-22 0.0123295)
(1.2689 0 0.0149969)
(1.24408 2.79628e-22 0.0150466)
(1.21872 -2.74374e-22 0.0131621)
(1.1973 1.39205e-22 0.010114)
(1.1827 -1.38711e-22 0.00655293)
(1.17625 0 0.00291994)
(1.17867 6.70736e-23 -0.00046937)
(1.1893 0 -0.00336457)
(1.20678 6.18945e-23 -0.00569747)
(1.22976 5.81096e-23 -0.00754956)
(1.25702 0 -0.00900369)
(1.28746 -7.07928e-23 -0.0100535)
(1.32004 2.2237e-23 -0.0106171)
(1.35361 -5.0985e-23 -0.0106441)
(1.38697 1.55425e-23 -0.0102648)
(1.41928 0 -0.00982008)
(1.45044 -2.42489e-23 -0.00947065)
(1.48559 8.37329e-24 -0.00846942)
(0.108557 1.74698e-20 -0.32143)
(0.300607 -7.54381e-23 -0.317249)
(0.495488 -1.5804e-20 -0.271276)
(0.675125 7.56971e-21 -0.222906)
(0.830429 4.01574e-22 -0.18065)
(0.962343 -2.84586e-21 -0.144328)
(1.07419 -1.78096e-22 -0.112378)
(1.16837 2.87854e-21 -0.0835887)
(1.24623 -2.34126e-21 -0.0572686)
(1.30843 4.27953e-21 -0.0333799)
(1.35559 2.35762e-21 -0.0125412)
(1.38778 -4.10511e-22 0.00412258)
(1.4059 0 0.0150222)
(1.41461 2.75622e-22 0.0194748)
(1.41992 -5.61209e-22 0.0183105)
(1.42637 6.90614e-22 0.0133719)
(1.43664 1.38439e-22 0.00650425)
(1.45164 -6.85703e-22 -0.00100811)
(1.47116 7.36784e-22 -0.00820662)
(1.49462 -2.61286e-22 -0.0143675)
(1.52108 -6.17269e-23 -0.0191543)
(1.54919 -5.795e-23 -0.0226166)
(1.57762 -2.10211e-22 -0.0250192)
(1.60538 2.45319e-22 -0.0266088)
(1.63175 0 -0.0274379)
(1.65617 3.50483e-23 -0.0274103)
(1.67799 2.41128e-23 -0.0265385)
(1.69655 -2.36509e-23 -0.0251704)
(1.71177 2.21539e-23 -0.0236502)
(1.72722 -6.3524e-24 -0.0204389)
(0.0762418 1.67833e-20 -0.499558)
(0.237318 0 -0.493045)
(0.395931 2.37171e-22 -0.426194)
(0.543888 -4.06495e-22 -0.35582)
(0.672581 -1.9675e-22 -0.294434)
(0.783677 5.47e-21 -0.241694)
(0.880155 -5.3307e-21 -0.195322)
(0.963986 -3.0923e-22 -0.15359)
(1.03636 0 -0.115446)
(1.09814 2.82104e-22 -0.0806297)
(1.15 -2.46746e-21 -0.0497642)
(1.19302 -1.66041e-21 -0.0241134)
(1.22889 2.15001e-22 -0.00541933)
(1.25752 1.90104e-21 0.00457217)
(1.28042 0 0.0059984)
(1.3007 -1.41245e-21 0.00109334)
(1.32047 1.11039e-21 -0.00727873)
(1.34099 1.37954e-22 -0.0167441)
(1.36208 0 -0.0257517)
(1.38322 0 -0.0332785)
(1.40353 -4.90586e-22 -0.0386972)
(1.42197 4.80889e-22 -0.0417935)
(1.43744 1.07723e-22 -0.0427385)
(1.44919 -2.93356e-22 -0.0418756)
(1.45698 0 -0.0394735)
(1.4609 0 -0.0356904)
(1.46116 1.13206e-22 -0.0308466)
(1.45798 0 -0.0258688)
(1.45232 0 -0.0221929)
(1.44595 1.63376e-23 -0.0192427)
(0.0493373 -1.56588e-20 -0.649493)
(0.170541 0 -0.631186)
(0.286961 1.33617e-20 -0.542222)
(0.399359 -1.21791e-20 -0.453669)
(0.495898 3.50712e-22 -0.378077)
(0.57977 0 -0.313886)
(0.653793 3.19059e-22 -0.257996)
(0.719621 0 -0.208134)
(0.778176 3.94247e-21 -0.1629)
(0.830649 -4.41135e-21 -0.121641)
(0.877433 -4.38154e-21 -0.08485)
(0.918961 4.02357e-21 -0.054308)
(0.955747 -2.74222e-22 -0.0320002)
(0.987959 2.81237e-21 -0.0189803)
(1.01539 -2.21176e-21 -0.0148818)
(1.03816 0 -0.0176139)
(1.05663 0 -0.0241137)
(1.07068 -1.12484e-21 -0.0315573)
(1.07997 8.24626e-22 -0.0379193)
(1.08452 2.69281e-22 -0.0420438)
(1.08499 7.57151e-22 -0.0435525)
(1.08268 -4.8985e-22 -0.042776)
(1.07913 0 -0.040512)
(1.07578 3.98433e-22 -0.0375934)
(1.07381 -1.75685e-22 -0.0344605)
(1.07386 1.47059e-22 -0.0310163)
(1.07555 -1.1358e-22 -0.0268829)
(1.07692 1.66454e-23 -0.0223331)
(1.07588 -1.63299e-23 -0.0193288)
(1.06726 -4.96026e-23 -0.0199231)
(0.0257244 0 -0.768943)
(0.100503 1.3489e-20 -0.731536)
(0.172453 -1.30765e-20 -0.62112)
(0.248349 -3.82049e-22 -0.519464)
(0.309627 -3.52461e-22 -0.434418)
(0.362007 0 -0.362757)
(0.408132 0 -0.301027)
(0.449385 0 -0.246538)
(0.486679 5.56009e-21 -0.197861)
(0.522119 -8.74299e-21 -0.154371)
(0.556209 -8.68139e-21 -0.11572)
(0.587748 4.84072e-21 -0.0826483)
(0.615205 0 -0.0567302)
(0.637804 -1.12195e-21 -0.0394165)
(0.655434 -5.72288e-22 -0.030732)
(0.668321 0 -0.028762)
(0.677061 1.16089e-21 -0.0305753)
(0.682689 -2.2839e-21 -0.0336177)
(0.68661 2.8333e-22 -0.0364378)
(0.690242 -2.52033e-22 -0.0385374)
(0.69463 7.98095e-22 -0.039892)
(0.700188 4.77143e-22 -0.0406027)
(0.706735 -9.03078e-22 -0.0407268)
(0.7137 3.15808e-23 -0.0401996)
(0.720255 3.65742e-22 -0.0387582)
(0.725012 -1.4752e-22 -0.0358343)
(0.726939 -5.11121e-23 -0.0306564)
(0.727181 2.22337e-22 -0.0235111)
(0.722174 0 -0.0177291)
(0.700905 3.33162e-23 -0.020312)
(0.00682317 0 -0.854966)
(0.0278051 -1.26187e-20 -0.79159)
(0.0567718 1.2459e-20 -0.661535)
(0.096038 1.095e-20 -0.550549)
(0.120799 -2.06439e-20 -0.458908)
(0.139523 1.06566e-20 -0.382499)
(0.154239 0 -0.317218)
(0.166475 -8.50181e-21 -0.259839)
(0.177133 1.2779e-20 -0.208837)
(0.188761 -8.78584e-21 -0.163708)
(0.202208 0 -0.124138)
(0.217654 -5.0393e-21 -0.0908177)
(0.234506 3.99876e-22 -0.0650735)
(0.251612 4.46267e-21 -0.047642)
(0.268065 5.7565e-22 -0.0380489)
(0.283397 -2.96228e-21 -0.0347231)
(0.297695 4.69263e-21 -0.0356051)
(0.311421 -2.32106e-21 -0.0387677)
(0.325139 -1.14638e-21 -0.0427135)
(0.339145 1.12301e-21 -0.0463444)
(0.35326 0 -0.0488852)
(0.366859 0 -0.0498973)
(0.379047 9.2584e-22 -0.0492461)
(0.388885 -8.40688e-22 -0.0469819)
(0.395385 2.20586e-22 -0.0430998)
(0.397507 4.84227e-22 -0.0372863)
(0.39443 0 -0.0290805)
(0.386457 -3.52163e-22 -0.0190827)
(0.373607 1.07625e-22 -0.0114497)
(0.353244 0 -0.0152347)
(-0.0069546 -1.25298e-20 -0.903533)
(-0.0469028 2.41754e-20 -0.809411)
(-0.0559287 -2.31143e-20 -0.665263)
(-0.053916 2.15558e-20 -0.548217)
(-0.064648 -1.09759e-20 -0.45247)
(-0.0788071 -6.13534e-22 -0.374109)
(-0.0944814 0 -0.308653)
(-0.108612 -1.14036e-21 -0.253409)
(-0.118721 0 -0.206248)
(-0.123303 -4.4991e-21 -0.165653)
(-0.122218 -3.84295e-21 -0.130644)
(-0.115001 -4.58545e-21 -0.101213)
(-0.102357 3.92435e-21 -0.078041)
(-0.0857885 -1.79284e-21 -0.0617427)
(-0.0669605 2.32099e-21 -0.0522768)
(-0.0472912 1.19701e-21 -0.0486622)
(-0.0276734 6.0731e-22 -0.0492126)
(-0.00852681 6.05736e-22 -0.052038)
(0.00999931 0 -0.0554634)
(0.0275616 1.14078e-21 -0.0581947)
(0.0437787 -1.11738e-21 -0.0594191)
(0.0581334 5.33347e-22 -0.058754)
(0.0700275 -4.7763e-22 -0.0561456)
(0.0787851 0 -0.0516769)
(0.0836269 0 -0.0452894)
(0.0836073 -3.17061e-22 -0.0365871)
(0.0777298 0 -0.0252444)
(0.0652154 1.79973e-22 -0.012636)
(0.0466519 -1.07945e-22 -0.004019)
(0.0320723 3.71879e-23 -0.00461695)
(-0.0200452 2.41767e-20 -0.911367)
(-0.120587 -2.34812e-20 -0.784554)
(-0.164423 -1.09293e-20 -0.633195)
(-0.201386 1.0676e-20 -0.514981)
(-0.245161 3.15713e-22 -0.420023)
(-0.287295 -9.59862e-21 -0.344793)
(-0.324724 9.39158e-21 -0.284706)
(-0.355015 9.23275e-21 -0.23593)
(-0.377347 1.40681e-22 -0.195381)
(-0.391734 -8.41035e-21 -0.161058)
(-0.398054 -5.6384e-22 -0.132017)
(-0.396617 4.68802e-21 -0.108006)
(-0.388427 -9.34843e-21 -0.0891841)
(-0.375084 4.65938e-21 -0.0757291)
(-0.358455 0 -0.067507)
(-0.340244 -1.21921e-21 -0.0638744)
(-0.321642 -6.06408e-22 -0.0636808)
(-0.303302 -6.04718e-22 -0.0654572)
(-0.285565 0 -0.0677008)
(-0.268725 6.01614e-22 -0.069168)
(-0.253184 1.12484e-21 -0.0690331)
(-0.239489 -1.63488e-21 -0.0668653)
(-0.228355 0 -0.062508)
(-0.220617 0 -0.0558869)
(-0.217213 -4.15154e-22 -0.046813)
(-0.21908 1.96558e-22 -0.0349437)
(-0.227271 -1.26998e-22 -0.0203147)
(-0.243128 0 -0.00495509)
(-0.264629 0 0.00595071)
(-0.281201 -3.72111e-23 0.00954657)
(-0.0353259 -4.65547e-23 -0.877116)
(-0.192637 0 -0.721676)
(-0.272698 -2.14016e-20 -0.56763)
(-0.348552 2.14203e-20 -0.450488)
(-0.421834 0 -0.362856)
(-0.485973 9.07402e-21 -0.297446)
(-0.539285 -1.95842e-20 -0.247672)
(-0.581712 9.30061e-21 -0.208478)
(-0.6136 -1.00001e-20 -0.17664)
(-0.635568 3.90853e-21 -0.150186)
(-0.64839 -9.37044e-21 -0.128099)
(-0.652995 4.65107e-21 -0.109999)
(-0.650609 4.268e-21 -0.095817)
(-0.642801 1.72807e-22 -0.0855232)
(-0.631304 -6.71487e-21 -0.079006)
(-0.617624 3.06354e-21 -0.0759618)
(-0.602746 6.34237e-22 -0.0757199)
(-0.587183 2.52271e-21 -0.0771653)
(-0.571273 -2.4703e-21 -0.0789094)
(-0.555505 -6.00509e-22 -0.0796476)
(-0.540614 -6.046e-22 -0.0784486)
(-0.527528 0 -0.0747922)
(-0.51728 -5.10279e-22 -0.0684437)
(-0.51092 9.96956e-22 -0.0592818)
(-0.509336 3.71052e-22 -0.0471605)
(-0.513281 -7.38636e-22 -0.0319244)
(-0.52375 2.77211e-22 -0.0139146)
(-0.541637 -4.25131e-22 0.00448475)
(-0.56374 1.01783e-23 0.0183747)
(-0.578239 -1.00151e-23 0.0251074)
(-0.0516507 2.35803e-20 -0.802207)
(-0.266863 -2.29446e-20 -0.612144)
(-0.387771 -1.70681e-22 -0.460315)
(-0.500591 -1.05994e-20 -0.356691)
(-0.600074 1.00558e-20 -0.285563)
(-0.683545 1.21957e-21 -0.235704)
(-0.751258 5.98601e-22 -0.199769)
(-0.804339 1.08768e-20 -0.172779)
(-0.844413 -1.00773e-20 -0.151444)
(-0.873218 0 -0.133852)
(-0.89232 0 -0.11917)
(-0.903019 0 -0.107198)
(-0.906558 6.06444e-22 -0.0978769)
(-0.904369 0 -0.0910885)
(-0.898025 1.4893e-23 -0.0867932)
(-0.888854 6.44141e-22 -0.0850409)
(-0.877629 1.96368e-21 -0.0855959)
(-0.864701 -2.5423e-21 -0.0875662)
(-0.850434 0 -0.089496)
(-0.835605 -1.26166e-21 -0.0898831)
(-0.821383 1.83925e-21 -0.0876659)
(-0.80904 0 -0.0823235)
(-0.799721 5.73648e-22 -0.0736993)
(-0.794315 -9.82514e-22 -0.0617957)
(-0.793425 9.16299e-22 -0.0466356)
(-0.797579 -1.7457e-22 -0.0282859)
(-0.807978 1.71216e-22 -0.0073422)
(-0.825408 9.25977e-22 0.0137961)
(-0.846903 -3.1182e-22 0.0308071)
(-0.859707 0 0.0407554)
(-0.0650754 2.35332e-20 -0.669235)
(-0.344284 0 -0.446742)
(-0.515235 -2.07508e-20 -0.315884)
(-0.66473 2.12658e-20 -0.236735)
(-0.790536 0 -0.189055)
(-0.892069 -1.11561e-20 -0.160404)
(-0.971966 9.69856e-21 -0.142542)
(-1.03358 -1.84464e-21 -0.13039)
(-1.08013 -8.7583e-21 -0.121006)
(-1.11443 9.73656e-21 -0.112948)
(-1.13874 1.25795e-21 -0.105931)
(-1.15454 1.26619e-21 -0.100274)
(-1.16295 -1.27703e-21 -0.0961172)
(-1.16524 0 -0.0932221)
(-1.16305 -3.25695e-21 -0.0915413)
(-1.15773 1.91914e-21 -0.0915137)
(-1.14986 6.66291e-22 -0.0934171)
(-1.13949 0 -0.0965374)
(-1.12691 -6.59085e-22 -0.0991746)
(-1.11307 6.33864e-22 -0.0994839)
(-1.0995 -6.62144e-22 -0.0963011)
(-1.08772 6.41878e-22 -0.0892643)
(-1.07882 -5.72549e-22 -0.0784557)
(-1.0735 -1.08672e-21 -0.0640633)
(-1.07219 3.23594e-24 -0.0462232)
(-1.07547 -8.69535e-22 -0.0250882)
(-1.08485 0 -0.00136416)
(-1.10144 -5.04367e-22 0.02272)
(-1.1221 3.14774e-22 0.0432244)
(-1.13376 -9.64936e-23 0.056407)
(-0.0798599 5.24233e-22 -0.46932)
(-0.431218 4.27203e-20 -0.240833)
(-0.668163 -2.02232e-20 -0.138974)
(-0.855857 -1.10187e-20 -0.0923055)
(-1.00487 9.59731e-21 -0.0764221)
(-1.11958 1.05919e-20 -0.0751522)
(-1.2069 -9.73391e-21 -0.0790278)
(-1.27302 -1.02122e-20 -0.083618)
(-1.32272 9.94099e-21 -0.0871292)
(-1.35978 0 -0.0889399)
(-1.38704 -6.44033e-21 -0.0895664)
(-1.40604 -1.42181e-21 -0.0902447)
(-1.41746 6.36947e-21 -0.0915296)
(-1.42234 0 -0.0928546)
(-1.4226 2.68122e-21 -0.0939248)
(-1.41988 -2.62167e-21 -0.0957079)
(-1.41448 -6.65498e-22 -0.0992937)
(-1.40583 2.074e-21 -0.104188)
(-1.39386 -3.38172e-21 -0.108191)
(-1.37975 6.71542e-22 -0.108847)
(-1.36553 1.3149e-21 -0.104877)
(-1.35302 -2.64669e-21 -0.096247)
(-1.34333 6.13752e-22 -0.0834144)
(-1.33699 -3.67751e-23 -0.0667655)
(-1.33435 -5.96771e-22 -0.0464761)
(-1.33614 8.68043e-22 -0.0226895)
(-1.34413 1.57383e-22 0.00388369)
(-1.35984 -7.02951e-22 0.0311682)
(-1.37966 -1.27624e-23 0.0553405)
(-1.39057 1.09149e-22 0.0716208)
(-0.13905 0 -0.168018)
(-0.614765 0 0.0904308)
(-0.923821 -5.82831e-22 0.110434)
(-1.12618 -7.97066e-21 0.0813284)
(-1.27057 8.83615e-21 0.0445403)
(-1.37558 0 0.0109599)
(-1.45481 6.22861e-22 -0.0161298)
(-1.51643 6.4706e-21 -0.0369817)
(-1.56391 1.8997e-22 -0.053012)
(-1.59949 -1.04299e-20 -0.0644796)
(-1.62641 -1.04804e-20 -0.0721735)
(-1.64612 5.1864e-21 -0.0787878)
(-1.65828 0 -0.085756)
(-1.66338 2.71224e-21 -0.0916878)
(-1.66392 8.92913e-23 -0.0953985)
(-1.66233 -1.99061e-21 -0.0986535)
(-1.6585 0 -0.104052)
(-1.65066 6.91342e-22 -0.111453)
(-1.63806 0 -0.117674)
(-1.62224 0 -0.119127)
(-1.6061 6.96712e-22 -0.114393)
(-1.59194 -7.75203e-22 -0.104069)
(-1.58082 0 -0.0891915)
(-1.57305 1.32626e-21 -0.070352)
(-1.56886 1.10162e-21 -0.047674)
(-1.56916 0 -0.0212005)
(-1.57592 0 0.00842904)
(-1.59093 5.47771e-22 0.0392055)
(-1.61024 0 0.0671565)
(-1.62081 -1.18812e-22 0.0863751)
(-0.247315 6.61658e-21 0.417099)
(-0.81586 -6.12992e-21 0.497676)
(-1.19037 -6.64701e-21 0.370966)
(-1.40135 6.00542e-21 0.235856)
(-1.53807 8.99642e-21 0.148472)
(-1.63213 -8.77907e-21 0.0867435)
(-1.69969 -1.24853e-21 0.0392891)
(-1.75016 0 0.00396126)
(-1.78854 -5.38912e-21 -0.0231341)
(-1.81835 5.25462e-21 -0.0429378)
(-1.8416 0 -0.0560299)
(-1.86008 5.44243e-21 -0.0672131)
(-1.87142 -2.57288e-21 -0.0800899)
(-1.87455 -2.67603e-21 -0.091325)
(-1.8733 2.79401e-21 -0.0972028)
(-1.87195 -4.11833e-21 -0.100801)
(-1.86977 0 -0.107768)
(-1.86268 -7.30851e-22 -0.11862)
(-1.84862 0 -0.128259)
(-1.8299 1.55175e-21 -0.130964)
(-1.81095 -1.5277e-21 -0.125197)
(-1.79481 4.44793e-21 -0.112799)
(-1.78228 -7.49556e-22 -0.0957023)
(-1.7732 -5.79302e-22 -0.0746696)
(-1.76762 5.97188e-22 -0.0496073)
(-1.76661 -5.85695e-22 -0.0203398)
(-1.77243 1.14067e-21 0.012604)
(-1.78709 -1.25642e-22 0.0471832)
(-1.80638 3.23144e-22 0.0790421)
(-1.81703 1.3456e-22 0.101094)
(-0.44353 -1.46617e-21 1.22614)
(-1.10135 1.13914e-21 1.12255)
(-1.55417 1.43304e-21 0.657466)
(-1.72321 -1.40667e-21 0.336188)
(-1.80152 -4.79565e-22 0.231499)
(-1.86604 0 0.155357)
(-1.9154 6.24536e-22 0.078709)
(-1.95229 6.72162e-22 0.0315093)
(-1.98067 4.83104e-21 0.000133516)
(-2.00059 -5.37907e-21 -0.0258463)
(-2.01748 -5.53565e-21 -0.0425416)
(-2.03439 8.8444e-21 -0.0558127)
(-2.045 -3.37618e-21 -0.0752874)
(-2.04422 -6.97164e-22 -0.0935621)
(-2.03872 0 -0.10075)
(-2.03734 6.99627e-22 -0.102115)
(-2.03826 2.94443e-21 -0.109827)
(-2.03284 -6.23248e-22 -0.125667)
(-2.0166 -3.86008e-21 -0.140758)
(-1.99347 -1.40271e-24 -0.145254)
(-1.97085 -3.31043e-21 -0.137712)
(-1.95275 3.21857e-21 -0.122483)
(-1.93918 -7.11544e-22 -0.102896)
(-1.92913 -6.80538e-22 -0.0797047)
(-1.92241 6.62423e-22 -0.0522906)
(-1.9203 -6.497e-22 -0.0201002)
(-1.92552 -9.45851e-22 0.016448)
(-1.9403 -7.73206e-22 0.0551668)
(-1.96023 -4.01746e-22 0.0911214)
(-1.97143 0 0.11599)
(9.98972 1.77669e-20 0.131869)
(9.97856 -9.1112e-21 0.25831)
(9.95787 1.87075e-20 0.384174)
(9.92518 0 0.5126)
(9.88339 9.89693e-21 0.645414)
(9.83423 0 0.78416)
(9.77794 7.31447e-20 0.930327)
(9.71459 -1.71329e-19 1.08538)
(9.64441 7.68569e-20 1.25076)
(9.56774 -1.81178e-19 1.42795)
(9.48493 1.85195e-19 1.61844)
(9.39632 1.79058e-19 1.8238)
(9.30229 -1.13265e-20 2.04569)
(9.20323 -1.99842e-19 2.28591)
(9.09956 1.92597e-19 2.54643)
(8.99175 -2.22353e-19 2.82943)
(8.88028 0 3.13744)
(8.76571 4.10383e-20 3.47337)
(8.64863 2.80231e-20 3.84074)
(8.52968 0 4.24389)
(8.40966 -7.02874e-21 4.68832)
(8.28953 0 5.1812)
(8.17069 7.30787e-21 5.73217)
(8.05526 1.40414e-20 6.35464)
(7.94706 0 7.06796)
(7.85346 1.41627e-20 7.90165)
(7.7954 0 8.90347)
(7.8272 0 10.1581)
(8.49073 0 11.7702)
(8.97445 1.05253e-19 14.6927)
(9.99015 -8.65856e-21 0.136773)
(9.98055 -1.77066e-20 0.267901)
(9.96257 2.27333e-20 0.39837)
(9.93364 -3.73451e-20 0.531414)
(9.89666 3.8262e-20 0.668883)
(9.85337 -7.88028e-20 0.812327)
(9.80408 9.08034e-20 0.963239)
(9.7489 0 1.12308)
(9.68817 1.06856e-20 1.2933)
(9.62229 -8.75477e-20 1.47534)
(9.55175 1.00621e-19 1.6707)
(9.47703 1.18317e-22 1.88091)
(9.39868 -1.88405e-19 2.1076)
(9.31728 1.8043e-19 2.35253)
(9.23352 -1.96957e-19 2.61762)
(9.14819 2.49254e-20 2.905)
(9.0622 2.04897e-19 3.21709)
(8.97665 -1.31514e-20 3.5567)
(8.89287 -4.22103e-19 3.9272)
(8.81252 4.30766e-19 4.33269)
(8.73782 6.83268e-21 4.77829)
(8.67186 -6.67036e-21 5.27053)
(8.61915 0 5.81795)
(8.58681 -4.34222e-19 6.43189)
(8.58682 4.29717e-20 7.12759)
(8.64073 6.5628e-19 7.92545)
(8.79203 -3.73128e-19 8.85107)
(9.07038 1.78577e-19 9.93389)
(9.79403 -1.37449e-19 11.122)
(10.4518 0 12.2847)
(9.9906 -4.20515e-21 0.141205)
(9.98263 4.30675e-21 0.276563)
(9.96747 2.20642e-20 0.411167)
(9.94246 1.81473e-20 0.548323)
(9.91047 3.71177e-20 0.6899)
(9.87327 7.63754e-20 0.837446)