/*--------------------------------*- C++ -*----------------------------------*\
| =========                 |                                                 |
| \\      /  F ield         | OpenFOAM: The Open Source CFD Toolbox           |
|  \\    /   O peration     | Version:  dev                                   |
|   \\  /    A nd           | Web:      www.OpenFOAM.org                      |
|    \\/     M anipulation  |                                                 |
\*---------------------------------------------------------------------------*/
FoamFile
{
    version     2.0;
    format      ascii;
    class       pointVectorField;
    location    "0.08";
    object      pointDisplacement;
}
// * * * * * * * * * * * * * * * * * * * * * * * * * * * * * * * * * * * * * //

dimensions      [0 1 0 0 0 0 0];

internalField   nonuniform List<vector> 
5828
(
(0 0 0)
(0.000228464 0 0)
(0.000436897 0 0)
(0.000620715 0 0)
(0.000782024 0 0)
(0.000922749 0 0)
(0.00104463 0 0)
(0.00114924 0 0)
(0.00123796 0 0)
(0.00131206 0 0)
(0.00137261 0 0)
(0.00142058 0 0)
(0.00145678 0 0)
(0.00148194 0 0)
(0.00149663 0 0)
(0.00150134 0 0)
(0.00149643 0 0)
(0.00148218 0 0)
(0.00145875 0 0)
(0.00142616 0 0)
(0.00138429 0 0)
(0.00133281 0 0)
(0.00127111 0 0)
(0.00119815 0 0)
(0.00111232 0 0)
(0.00101122 0 0)
(0.000891783 0 0)
(0.000751324 0 0)
(0.000592182 0 0)
(0.000438328 0 0)
(0 0 0)
(0 0 0)
(0.000228499 0 2.90542e-06)
(0.00043698 0 5.61074e-06)
(0.000620849 0 8.09914e-06)
(0.000782215 0 1.04268e-05)
(0.000923007 0 1.2639e-05)
(0.00104497 0 1.47727e-05)
(0.00114967 0 1.68577e-05)
(0.00123851 0 1.89187e-05)
(0.00131274 0 2.09757e-05)
(0.00137346 0 2.30446e-05)
(0.00142162 0 2.51381e-05)
(0.00145807 0 2.72652e-05)
(0.00148351 0 2.9432e-05)
(0.00149855 0 3.16414e-05)
(0.00150367 0 3.38935e-05)
(0.00149928 0 3.61858e-05)
(0.00148566 0 3.85152e-05)
(0.00146302 0 4.08809e-05)
(0.00143143 0 4.32911e-05)
(0.00139086 0 4.57752e-05)
(0.00134114 0 4.84061e-05)
(0.00128187 0 5.13412e-05)
(0.00121242 0 5.48896e-05)
(0.00113182 0 5.96235e-05)
(0.00103878 0 6.65388e-05)
(0.000932017 0 7.72381e-05)
(0.000811562 0 9.39476e-05)
(0.000682795 0 0.000118613)
(0.000567771 0 0.000148377)
(0.000392296 0 0.0002504)
(0 0 0)
(0.000228634 0 5.79832e-06)
(0.000437252 0 1.11972e-05)
(0.000621269 0 1.61629e-05)
(0.000782804 0 2.08074e-05)
(0.000923794 0 2.5221e-05)
(0.00104599 0 2.94772e-05)
(0.00115097 0 3.36358e-05)
(0.00124016 0 3.77458e-05)
(0.00131479 0 4.18468e-05)
(0.001376 0 4.59709e-05)
(0.00142474 0 5.01432e-05)
(0.00146189 0 5.43819e-05)
(0.00148818 0 5.86991e-05)
(0.00150423 0 6.31005e-05)
(0.00151059 0 6.75858e-05)
(0.0015077 0 7.21493e-05)
(0.00149593 0 7.67824e-05)
(0.00147558 0 8.14781e-05)
(0.0014469 0 8.6241e-05)
(0.00141008 0 9.11059e-05)
(0.00136531 0 9.61703e-05)
(0.00131282 0 0.000101652)
(0.00125291 0 0.000107984)
(0.00118621 0 0.000115949)
(0.0011139 0 0.000126871)
(0.00103848 0 0.000142759)
(0.000964881 0 0.000166119)
(0.000902121 0 0.000198457)
(0.000863364 0 0.000234715)
(0.000861047 0 0.000323369)
(0 0 0)
(0.000228857 0 8.66587e-06)
(0.000437702 0 1.67344e-05)
(0.000621963 0 2.41547e-05)
(0.000783775 0 3.1094e-05)
(0.000925089 0 3.76871e-05)
(0.00104767 0 4.40433e-05)
(0.00115312 0 5.02518e-05)
(0.00124285 0 5.63858e-05)
(0.00131815 0 6.25044e-05)
(0.00138015 0 6.86555e-05)
(0.00142985 0 7.48764e-05)
(0.00146814 0 8.11946e-05)
(0.0014958 0 8.76282e-05)
(0.0015135 0 9.41855e-05)
(0.00152184 0 0.000100866)
(0.00152136 0 0.000107658)
(0.00151254 0 0.000114545)
(0.00149581 0 0.000121505)
(0.00147163 0 0.000128522)
(0.00144052 0 0.000135601)
(0.00140313 0 0.000142793)
(0.00136038 0 0.000150242)
(0.00131366 0 0.000158247)
(0.00126519 0 0.000167344)
(0.00121847 0 0.000178377)
(0.00117889 0 0.00019247)
(0.00115401 0 0.000210659)
(0.00115191 0 0.000232682)
(0.00117281 0 0.000254075)
(0.00127826 0 0.000292021)
(0 0 0)
(0.000229162 0 1.14951e-05)
(0.000438317 0 2.2197e-05)
(0.000622911 0 3.20378e-05)
(0.000785101 0 4.12385e-05)
(0.000926858 0 4.99774e-05)
(0.00104997 0 5.83991e-05)
(0.00115604 0 6.66218e-05)
(0.00124653 0 7.47419e-05)
(0.00132273 0 8.28378e-05)
(0.00138581 0 9.09727e-05)
(0.0014368 0 9.91961e-05)
(0.00147664 0 0.000107545)
(0.00150613 0 0.000116042)
(0.00152604 0 0.0001247)
(0.00153704 0 0.000133517)
(0.00153974 0 0.000142475)
(0.00153475 0 0.000151546)
(0.00152269 0 0.000160688)
(0.00150422 0 0.000169848)
(0.00148015 0 0.000178971)
(0.00145153 0 0.000188008)
(0.00141983 0 0.000196928)
(0.00138718 0 0.000205722)
(0.00135672 0 0.000214396)
(0.00133289 0 0.000222902)
(0.00132169 0 0.000230983)
(0.0013299 0 0.000237881)
(0.00136171 0 0.000242114)
(0.00140864 0 0.00024229)
(0.00154029 0 0.000226467)
(0 0 0)
(0.000229542 0 1.42732e-05)
(0.000439081 0 2.75602e-05)
(0.000624089 0 3.97757e-05)
(0.000786751 0 5.11931e-05)
(0.000929059 0 6.2033e-05)
(0.00105282 0 7.24745e-05)
(0.00115968 0 8.26634e-05)
(0.00125111 0 9.2719e-05)
(0.00132843 0 0.000102738)
(0.00139284 0 0.000112799)
(0.00144542 0 0.000122963)
(0.00148714 0 0.000133276)
(0.00151889 0 0.000143768)
(0.00154147 0 0.000154453)
(0.00155565 0 0.000165328)
(0.00156214 0 0.000176372)
(0.00156168 0 0.000187544)
(0.00155502 0 0.000198777)
(0.001543 0 0.000209979)
(0.00152665 0 0.000221027)
(0.00150725 0 0.000231754)
(0.00148651 0 0.00024193)
(0.00146674 0 0.000251226)
(0.00145102 0 0.000259132)
(0.00144329 0 0.000264835)
(0.00144801 0 0.000267067)
(0.00146892 0 0.000264085)
(0.00150576 0 0.000254359)
(0.00154764 0 0.000239668)
(0.00163323 0 0.000192007)
(0 0 0)
(0.000229985 0 1.69877e-05)
(0.000439975 0 3.28e-05)
(0.000625468 0 4.73333e-05)
(0.000788681 0 6.09121e-05)
(0.000931638 0 7.37977e-05)
(0.00105617 0 8.6202e-05)
(0.00116395 0 9.82978e-05)
(0.00125646 0 0.000110226)
(0.00133509 0 0.000122102)
(0.00140104 0 0.000134017)
(0.00145546 0 0.000146045)
(0.00149936 0 0.00015824)
(0.00153368 0 0.000170639)
(0.0015593 0 0.000183259)
(0.00157707 0 0.000196098)
(0.0015878 0 0.000209132)
(0.00159231 0 0.000222308)
(0.00159148 0 0.000235541)
(0.00158627 0 0.000248708)
(0.0015778 0 0.000261627)
(0.00156738 0 0.00027404)
(0.00155665 0 0.000285578)
(0.0015476 0 0.000295703)
(0.00154255 0 0.000303628)
(0.00154397 0 0.000308231)
(0.00155387 0 0.000308024)
(0.00157261 0 0.000301396)
(0.00159703 0 0.000287689)
(0.00161865 0 0.00027033)
(0.00163784 0 0.000225809)
(0 0 0)
(0.00023048 0 1.96272e-05)
(0.000440974 0 3.78936e-05)
(0.000627012 0 5.46777e-05)
(0.000790845 0 7.03524e-05)
(0.000934529 0 8.52181e-05)
(0.00105993 0 9.95182e-05)
(0.00116873 0 0.000113451)
(0.00126247 0 0.000127178)
(0.00134255 0 0.000140831)
(0.00141023 0 0.000154517)
(0.00146668 0 0.000168318)
(0.00151297 0 0.000182299)
(0.0015501 0 0.000196501)
(0.00157903 0 0.000210948)
(0.00160065 0 0.00022564)
(0.00161587 0 0.000240549)
(0.0016256 0 0.000255621)
(0.00163077 0 0.000270761)
(0.0016324 0 0.000285826)
(0.00163159 0 0.000300608)
(0.00162956 0 0.000314809)
(0.00162765 0 0.000328011)
(0.00162724 0 0.000339635)
(0.00162962 0 0.000348902)
(0.00163562 0 0.000354835)
(0.0016451 0 0.000356366)
(0.0016562 0 0.000352714)
(0.00166512 0 0.000344259)
(0.00166796 0 0.000334174)
(0.00164997 0 0.000315023)
(0 0 0)
(0.000231014 0 2.21805e-05)
(0.000442053 0 4.28198e-05)
(0.00062868 0 6.17779e-05)
(0.000793188 0 7.94738e-05)
(0.000937663 0 9.62449e-05)
(0.001064 0 0.000112364)
(0.00117392 0 0.000128055)
(0.00126899 0 0.000143497)
(0.00135063 0 0.000158838)
(0.00142016 0 0.000174197)
(0.00147878 0 0.000189669)
(0.00152762 0 0.000205325)
(0.00156772 0 0.000221213)
(0.00160009 0 0.000237363)
(0.00162571 0 0.000253777)
(0.00164554 0 0.000270432)
(0.00166052 0 0.000287275)
(0.00167165 0 0.000304213)
(0.00167992 0 0.000321102)
(0.00168637 0 0.00033774)
(0.00169202 0 0.000353841)
(0.00169785 0 0.000369025)
(0.00170462 0 0.0003828)
(0.00171269 0 0.000394582)
(0.00172166 0 0.000403759)
(0.00173009 0 0.000409879)
(0.00173538 0 0.000412971)
(0.00173461 0 0.000413926)
(0.00172776 0 0.000414384)
(0.00169931 0 0.000420251)
(0 0 0)
(0.000231571 0 2.46373e-05)
(0.000443181 0 4.75587e-05)
(0.000630429 0 6.8605e-05)
(0.000795649 0 8.82388e-05)
(0.000940962 0 0.000106832)
(0.00106829 0 0.000124686)
(0.0011794 0 0.000142045)
(0.00127586 0 0.000159109)
(0.00135915 0 0.000176039)
(0.00143061 0 0.000192967)
(0.00149149 0 0.000209994)
(0.00154294 0 0.000227202)
(0.00158608 0 0.000244645)
(0.00162196 0 0.000262357)
(0.00165159 0 0.000280347)
(0.00167597 0 0.000298599)
(0.0016961 0 0.000317066)
(0.00171296 0 0.000335665)
(0.00172753 0 0.000354271)
(0.00174072 0 0.00037271)
(0.00175338 0 0.000390746)
(0.00176615 0 0.000408085)
(0.00177932 0 0.00042438)
(0.00179263 0 0.000439274)
(0.00180507 0 0.000452489)
(0.00181476 0 0.000463971)
(0.00181927 0 0.000474053)
(0.00181688 0 0.000483374)
(0.0018093 0 0.000491806)
(0.00178532 0 0.00051282)
(0 0 0)
(0.000232136 0 2.69882e-05)
(0.000444327 0 5.20919e-05)
(0.000632211 0 7.51324e-05)
(0.000798165 0 9.66129e-05)
(0.000944344 0 0.000116938)
(0.0010727 0 0.000136434)
(0.00118502 0 0.000155366)
(0.00128293 0 0.000173951)
(0.00136791 0 0.000192362)
(0.00144134 0 0.000210741)
(0.0015045 0 0.000229201)
(0.00155859 0 0.000247826)
(0.00160476 0 0.00026668)
(0.00164408 0 0.0002858)
(0.00167763 0 0.000305204)
(0.00170641 0 0.000324881)
(0.00173144 0 0.000344797)
(0.00175369 0 0.000364885)
(0.00177407 0 0.000385048)
(0.00179344 0 0.000405151)
(0.00181246 0 0.000425024)
(0.00183156 0 0.000444467)
(0.00185077 0 0.000463268)
(0.00186959 0 0.000481234)
(0.00188686 0 0.000498242)
(0.00190082 0 0.000514285)
(0.00190957 0 0.000529427)
(0.00191205 0 0.000543489)
(0.00190977 0 0.000555015)
(0.00190003 0 0.000575516)
(0 0 0)
(0.000232692 0 2.92244e-05)
(0.000445458 0 5.64024e-05)
(0.000633978 0 8.13357e-05)
(0.000800671 0 0.000104565)
(0.000947725 0 0.000126524)
(0.00107713 0 0.000147563)
(0.00119068 0 0.000167966)
(0.00129003 0 0.000187963)
(0.0013767 0 0.00020774)
(0.00145209 0 0.000227449)
(0.00151752 0 0.000247207)
(0.0015742 0 0.000267108)
(0.00162331 0 0.000287217)
(0.00166597 0 0.000307579)
(0.00170323 0 0.000328216)
(0.00173615 0 0.000349127)
(0.00176573 0 0.000370289)
(0.0017929 0 0.000391654)
(0.00181856 0 0.000413152)
(0.00184345 0 0.000434689)
(0.00186817 0 0.000456155)
(0.00189304 0 0.000477427)
(0.00191802 0 0.000498384)
(0.00194261 0 0.00051891)
(0.00196584 0 0.000538887)
(0.00198633 0 0.000558117)
(0.00200258 0 0.000576141)
(0.00201353 0 0.000591873)
(0.00201924 0 0.000603148)
(0.00202347 0 0.000614855)
(0 0 0)
(0.000233221 0 3.13379e-05)
(0.00044654 0 6.04749e-05)
(0.000635679 0 8.71929e-05)
(0.000803098 0 0.000112066)
(0.000951018 0 0.000135556)
(0.00108145 0 0.000158033)
(0.00119622 0 0.000179798)
(0.00129701 0 0.000201094)
(0.00138534 0 0.000222118)
(0.00146266 0 0.000243026)
(0.00153027 0 0.000263945)
(0.00158945 0 0.00028497)
(0.00164136 0 0.000306172)
(0.00168714 0 0.000327598)
(0.00172786 0 0.000349276)
(0.00176457 0 0.000371212)
(0.00179824 0 0.000393391)
(0.0018298 0 0.000415782)
(0.00186008 0 0.000438336)
(0.00188979 0 0.000460993)
(0.00191947 0 0.000483682)
(0.00194942 0 0.000506333)
(0.00197965 0 0.000528866)
(0.00200984 0 0.000551189)
(0.00203932 0 0.000573132)
(0.00206711 0 0.000594319)
(0.00209194 0 0.000613908)
(0.00211225 0 0.000630272)
(0.00212603 0 0.000640959)
(0.00214415 0 0.000649499)
(0 0 0)
(0.000233704 0 3.33214e-05)
(0.000447536 0 6.42958e-05)
(0.000637262 0 9.26846e-05)
(0.00080538 0 0.000119093)
(0.000954139 0 0.000144004)
(0.00108557 0 0.00016781)
(0.00120153 0 0.000190825)
(0.0013037 0 0.000213302)
(0.00139365 0 0.000235447)
(0.0014728 0 0.000257423)
(0.0015425 0 0.000279358)
(0.00160402 0 0.000301352)
(0.00165853 0 0.000323477)
(0.00170718 0 0.000345784)
(0.00175104 0 0.000368301)
(0.00179112 0 0.000391038)
(0.00182838 0 0.000413987)
(0.00186372 0 0.000437124)
(0.00189791 0 0.000460416)
(0.00193163 0 0.000483816)
(0.00196539 0 0.000507277)
(0.00199952 0 0.000530743)
(0.00203411 0 0.000554148)
(0.00206905 0 0.000577392)
(0.00210398 0 0.000600281)
(0.00213827 0 0.000622408)
(0.00217084 0 0.000642937)
(0.00219961 0 0.000660288)
(0.00222054 0 0.000671904)
(0.00224354 0 0.000679993)
(0 0 0)
(0.000234123 0 3.51687e-05)
(0.000448413 0 6.78528e-05)
(0.000638676 0 9.77938e-05)
(0.000807448 0 0.000125623)
(0.000957002 0 0.000151845)
(0.00108939 0 0.000176867)
(0.00120648 0 0.000201015)
(0.00130997 0 0.000224553)
(0.00140144 0 0.000247691)
(0.00148232 0 0.000270598)
(0.00155396 0 0.000293404)
(0.00161764 0 0.00031621)
(0.00167452 0 0.000339088)
(0.00172574 0 0.000362088)
(0.00177235 0 0.000385237)
(0.00181535 0 0.000408546)
(0.00185565 0 0.000432007)
(0.0018941 0 0.000455598)
(0.00193143 0 0.000479286)
(0.00196829 0 0.000503026)
(0.00200514 0 0.000526768)
(0.00204233 0 0.000550446)
(0.00208002 0 0.000573974)
(0.00211823 0 0.000597224)
(0.00215679 0 0.000619991)
(0.00219535 0 0.000641935)
(0.0022331 0 0.000662515)
(0.00226813 0 0.000680845)
(0.00229574 0 0.000695017)
(0.00232941 0 0.000711644)
(0 0 0)
(0.000234463 0 3.68907e-05)
(0.000449139 0 7.1166e-05)
(0.00063988 0 0.000102548)
(0.000809252 0 0.000131692)
(0.000959548 0 0.000159121)
(0.00109284 0 0.000185253)
(0.00121099 0 0.000210426)
(0.00131573 0 0.000234911)
(0.00140862 0 0.000258923)
(0.00149111 0 0.000282632)
(0.00156454 0 0.000306171)
(0.00163018 0 0.000329637)
(0.00168919 0 0.000353103)
(0.00174267 0 0.000376614)
(0.00179166 0 0.000400196)
(0.00183711 0 0.000423853)
(0.00187989 0 0.000447574)
(0.0019208 0 0.00047133)
(0.00196053 0 0.000495079)
(0.00199963 0 0.000518763)
(0.00203855 0 0.000542311)
(0.0020776 0 0.000565625)
(0.00211693 0 0.00058857)
(0.00215656 0 0.000610959)
(0.00219636 0 0.000632519)
(0.002236 0 0.000652858)
(0.00227481 0 0.000671419)
(0.00231141 0 0.000687408)
(0.00234264 0 0.000699108)
(0.00241254 0 0.000743351)
(0 0 0)
(0.000228464 0 0)
(0.000436897 0 0)
(0.000620715 0 0)
(0.000782024 0 0)
(0.000922749 0 0)
(0.00104463 0 0)
(0.00114924 0 0)
(0.00123796 0 0)
(0.00131206 0 0)
(0.00137261 0 0)
(0.00142058 0 0)
(0.00145678 0 0)
(0.00148194 0 0)
(0.00149663 0 0)
(0.00150134 0 0)
(0.00149643 0 0)
(0.00148218 0 0)
(0.00145875 0 0)
(0.00142616 0 0)
(0.00138429 0 0)
(0.00133281 0 0)
(0.00127111 0 0)
(0.00119815 0 0)
(0.00111232 0 0)
(0.00101122 0 0)
(0.000891783 0 0)
(0.000751324 0 0)
(0.000592182 0 0)
(0.000438328 0 0)
(0 0 0)
(0 0 0)
(0.000228499 0 2.90542e-06)
(0.00043698 0 5.61074e-06)
(0.000620849 0 8.09914e-06)
(0.000782215 0 1.04268e-05)
(0.000923007 0 1.2639e-05)
(0.00104497 0 1.47727e-05)
(0.00114967 0 1.68577e-05)
(0.00123851 0 1.89187e-05)
(0.00131274 0 2.09757e-05)
(0.00137346 0 2.30446e-05)
(0.00142162 0 2.51381e-05)
(0.00145807 0 2.72652e-05)
(0.00148351 0 2.9432e-05)
(0.00149855 0 3.16414e-05)
(0.00150367 0 3.38935e-05)
(0.00149928 0 3.61858e-05)
(0.00148566 0 3.85152e-05)
(0.00146302 0 4.08809e-05)
(0.00143143 0 4.32911e-05)
(0.00139086 0 4.57752e-05)
(0.00134114 0 4.84061e-05)
(0.00128187 0 5.13412e-05)
(0.00121242 0 5.48896e-05)
(0.00113182 0 5.96235e-05)
(0.00103878 0 6.65388e-05)
(0.000932017 0 7.72381e-05)
(0.000811562 0 9.39476e-05)
(0.000682795 0 0.000118613)
(0.000567771 0 0.000148377)
(0.000392296 0 0.0002504)
(0 0 0)
(0.000228634 0 5.79832e-06)
(0.000437252 0 1.11972e-05)
(0.000621269 0 1.61629e-05)
(0.000782804 0 2.08074e-05)
(0.000923794 0 2.5221e-05)
(0.00104599 0 2.94772e-05)
(0.00115097 0 3.36358e-05)
(0.00124016 0 3.77458e-05)
(0.00131479 0 4.18468e-05)
(0.001376 0 4.59709e-05)
(0.00142474 0 5.01432e-05)
(0.00146189 0 5.43819e-05)
(0.00148818 0 5.86991e-05)
(0.00150423 0 6.31005e-05)
(0.00151059 0 6.75858e-05)
(0.0015077 0 7.21493e-05)
(0.00149593 0 7.67824e-05)
(0.00147558 0 8.14781e-05)
(0.0014469 0 8.6241e-05)
(0.00141008 0 9.11059e-05)
(0.00136531 0 9.61703e-05)
(0.00131282 0 0.000101652)
(0.00125291 0 0.000107984)
(0.00118621 0 0.000115949)
(0.0011139 0 0.000126871)
(0.00103848 0 0.000142759)
(0.000964881 0 0.000166119)
(0.000902121 0 0.000198457)
(0.000863364 0 0.000234715)
(0.000861047 0 0.000323369)
(0 0 0)
(0.000228857 0 8.66587e-06)
(0.000437702 0 1.67344e-05)
(0.000621963 0 2.41547e-05)
(0.000783775 0 3.1094e-05)
(0.000925089 0 3.76871e-05)
(0.00104767 0 4.40433e-05)
(0.00115312 0 5.02518e-05)
(0.00124285 0 5.63858e-05)
(0.00131815 0 6.25044e-05)
(0.00138015 0 6.86555e-05)
(0.00142985 0 7.48764e-05)
(0.00146814 0 8.11946e-05)
(0.0014958 0 8.76282e-05)
(0.0015135 0 9.41855e-05)
(0.00152184 0 0.000100866)
(0.00152136 0 0.000107658)
(0.00151254 0 0.000114545)
(0.00149581 0 0.000121505)
(0.00147163 0 0.000128522)
(0.00144052 0 0.000135601)
(0.00140313 0 0.000142793)
(0.00136038 0 0.000150242)
(0.00131366 0 0.000158247)
(0.00126519 0 0.000167344)
(0.00121847 0 0.000178377)
(0.00117889 0 0.00019247)
(0.00115401 0 0.000210659)
(0.00115191 0 0.000232682)
(0.00117281 0 0.000254075)
(0.00127826 0 0.000292021)
(0 0 0)
(0.000229162 0 1.14951e-05)
(0.000438317 0 2.2197e-05)
(0.000622911 0 3.20378e-05)
(0.000785101 0 4.12385e-05)
(0.000926858 0 4.99774e-05)
(0.00104997 0 5.83991e-05)
(0.00115604 0 6.66218e-05)
(0.00124653 0 7.47419e-05)
(0.00132273 0 8.28378e-05)
(0.00138581 0 9.09727e-05)
(0.0014368 0 9.91961e-05)
(0.00147664 0 0.000107545)
(0.00150613 0 0.000116042)
(0.00152604 0 0.0001247)
(0.00153704 0 0.000133517)
(0.00153974 0 0.000142475)
(0.00153475 0 0.000151546)
(0.00152269 0 0.000160688)
(0.00150422 0 0.000169848)
(0.00148015 0 0.000178971)
(0.00145153 0 0.000188008)
(0.00141983 0 0.000196928)
(0.00138718 0 0.000205722)
(0.00135672 0 0.000214396)
(0.00133289 0 0.000222902)
(0.00132169 0 0.000230983)
(0.0013299 0 0.000237881)
(0.00136171 0 0.000242114)
(0.00140864 0 0.00024229)
(0.00154029 0 0.000226467)
(0 0 0)
(0.000229542 0 1.42732e-05)
(0.000439081 0 2.75602e-05)
(0.000624089 0 3.97757e-05)
(0.000786751 0 5.11931e-05)
(0.000929059 0 6.2033e-05)
(0.00105282 0 7.24745e-05)
(0.00115968 0 8.26634e-05)
(0.00125111 0 9.2719e-05)
(0.00132843 0 0.000102738)
(0.00139284 0 0.000112799)
(0.00144542 0 0.000122963)
(0.00148714 0 0.000133276)
(0.00151889 0 0.000143768)
(0.00154147 0 0.000154453)
(0.00155565 0 0.000165328)
(0.00156214 0 0.000176372)
(0.00156168 0 0.000187544)
(0.00155502 0 0.000198777)
(0.001543 0 0.000209979)
(0.00152665 0 0.000221027)
(0.00150725 0 0.000231754)
(0.00148651 0 0.00024193)
(0.00146674 0 0.000251226)
(0.00145102 0 0.000259132)
(0.00144329 0 0.000264835)
(0.00144801 0 0.000267067)
(0.00146892 0 0.000264085)
(0.00150576 0 0.000254359)
(0.00154764 0 0.000239668)
(0.00163323 0 0.000192007)
(0 0 0)
(0.000229985 0 1.69877e-05)
(0.000439975 0 3.28e-05)
(0.000625468 0 4.73333e-05)
(0.000788681 0 6.09121e-05)
(0.000931638 0 7.37977e-05)
(0.00105617 0 8.6202e-05)
(0.00116395 0 9.82978e-05)
(0.00125646 0 0.000110226)
(0.00133509 0 0.000122102)
(0.00140104 0 0.000134017)
(0.00145546 0 0.000146045)
(0.00149936 0 0.00015824)
(0.00153368 0 0.000170639)
(0.0015593 0 0.000183259)
(0.00157707 0 0.000196098)
(0.0015878 0 0.000209132)
(0.00159231 0 0.000222308)
(0.00159148 0 0.000235541)
(0.00158627 0 0.000248708)
(0.0015778 0 0.000261627)
(0.00156738 0 0.00027404)
(0.00155665 0 0.000285578)
(0.0015476 0 0.000295703)
(0.00154255 0 0.000303628)
(0.00154397 0 0.000308231)
(0.00155387 0 0.000308024)
(0.00157261 0 0.000301396)
(0.00159703 0 0.000287689)
(0.00161865 0 0.00027033)
(0.00163784 0 0.000225809)
(0 0 0)
(0.00023048 0 1.96272e-05)
(0.000440974 0 3.78936e-05)
(0.000627012 0 5.46777e-05)
(0.000790845 0 7.03524e-05)
(0.000934529 0 8.52181e-05)
(0.00105993 0 9.95182e-05)
(0.00116873 0 0.000113451)
(0.00126247 0 0.000127178)
(0.00134255 0 0.000140831)
(0.00141023 0 0.000154517)
(0.00146668 0 0.000168318)
(0.00151297 0 0.000182299)
(0.0015501 0 0.000196501)
(0.00157903 0 0.000210948)
(0.00160065 0 0.00022564)
(0.00161587 0 0.000240549)
(0.0016256 0 0.000255621)
(0.00163077 0 0.000270761)
(0.0016324 0 0.000285826)
(0.00163159 0 0.000300608)
(0.00162956 0 0.000314809)
(0.00162765 0 0.000328011)
(0.00162724 0 0.000339635)
(0.00162962 0 0.000348902)
(0.00163562 0 0.000354835)
(0.0016451 0 0.000356366)
(0.0016562 0 0.000352714)
(0.00166512 0 0.000344259)
(0.00166796 0 0.000334174)
(0.00164997 0 0.000315023)
(0 0 0)
(0.000231014 0 2.21805e-05)
(0.000442053 0 4.28198e-05)
(0.00062868 0 6.17779e-05)
(0.000793188 0 7.94738e-05)
(0.000937663 0 9.62449e-05)
(0.001064 0 0.000112364)
(0.00117392 0 0.000128055)
(0.00126899 0 0.000143497)
(0.00135063 0 0.000158838)
(0.00142016 0 0.000174197)
(0.00147878 0 0.000189669)
(0.00152762 0 0.000205325)
(0.00156772 0 0.000221213)
(0.00160009 0 0.000237363)
(0.00162571 0 0.000253777)
(0.00164554 0 0.000270432)
(0.00166052 0 0.000287275)
(0.00167165 0 0.000304213)
(0.00167992 0 0.000321102)
(0.00168637 0 0.00033774)
(0.00169202 0 0.000353841)
(0.00169785 0 0.000369025)
(0.00170462 0 0.0003828)
(0.00171269 0 0.000394582)
(0.00172166 0 0.000403759)
(0.00173009 0 0.000409879)
(0.00173538 0 0.000412971)
(0.00173461 0 0.000413926)
(0.00172776 0 0.000414384)
(0.00169931 0 0.000420251)
(0 0 0)
(0.000231571 0 2.46373e-05)
(0.000443181 0 4.75587e-05)
(0.000630429 0 6.8605e-05)
(0.000795649 0 8.82388e-05)
(0.000940962 0 0.000106832)
(0.00106829 0 0.000124686)
(0.0011794 0 0.000142045)
(0.00127586 0 0.000159109)
(0.00135915 0 0.000176039)
(0.00143061 0 0.000192967)
(0.00149149 0 0.000209994)
(0.00154294 0 0.000227202)
(0.00158608 0 0.000244645)
(0.00162196 0 0.000262357)
(0.00165159 0 0.000280347)
(0.00167597 0 0.000298599)
(0.0016961 0 0.000317066)
(0.00171296 0 0.000335665)
(0.00172753 0 0.000354271)
(0.00174072 0 0.00037271)
(0.00175338 0 0.000390746)
(0.00176615 0 0.000408085)
(0.00177932 0 0.00042438)
(0.00179263 0 0.000439274)
(0.00180507 0 0.000452489)
(0.00181476 0 0.000463971)
(0.00181927 0 0.000474053)
(0.00181688 0 0.000483374)
(0.0018093 0 0.000491806)
(0.00178532 0 0.00051282)
(0 0 0)
(0.000232136 0 2.69882e-05)
(0.000444327 0 5.20919e-05)
(0.000632211 0 7.51324e-05)
(0.000798165 0 9.66129e-05)
(0.000944344 0 0.000116938)
(0.0010727 0 0.000136434)
(0.00118502 0 0.000155366)
(0.00128293 0 0.000173951)
(0.00136791 0 0.000192362)
(0.00144134 0 0.000210741)
(0.0015045 0 0.000229201)
(0.00155859 0 0.000247826)
(0.00160476 0 0.00026668)
(0.00164408 0 0.0002858)
(0.00167763 0 0.000305204)
(0.00170641 0 0.000324881)
(0.00173144 0 0.000344797)
(0.00175369 0 0.000364885)
(0.00177407 0 0.000385048)
(0.00179344 0 0.000405151)
(0.00181246 0 0.000425024)
(0.00183156 0 0.000444467)
(0.00185077 0 0.000463268)
(0.00186959 0 0.000481234)
(0.00188686 0 0.000498242)
(0.00190082 0 0.000514285)
(0.00190957 0 0.000529427)
(0.00191205 0 0.000543489)
(0.00190977 0 0.000555015)
(0.00190003 0 0.000575516)
(0 0 0)
(0.000232692 0 2.92244e-05)
(0.000445458 0 5.64024e-05)
(0.000633978 0 8.13357e-05)
(0.000800671 0 0.000104565)
(0.000947725 0 0.000126524)
(0.00107713 0 0.000147563)
(0.00119068 0 0.000167966)
(0.00129003 0 0.000187963)
(0.0013767 0 0.00020774)
(0.00145209 0 0.000227449)
(0.00151752 0 0.000247207)
(0.0015742 0 0.000267108)
(0.00162331 0 0.000287217)
(0.00166597 0 0.000307579)
(0.00170323 0 0.000328216)
(0.00173615 0 0.000349127)
(0.00176573 0 0.000370289)
(0.0017929 0 0.000391654)
(0.00181856 0 0.000413152)
(0.00184345 0 0.000434689)
(0.00186817 0 0.000456155)
(0.00189304 0 0.000477427)
(0.00191802 0 0.000498384)
(0.00194261 0 0.00051891)
(0.00196584 0 0.000538887)
(0.00198633 0 0.000558117)
(0.00200258 0 0.000576141)
(0.00201353 0 0.000591873)
(0.00201924 0 0.000603148)
(0.00202347 0 0.000614855)
(0 0 0)
(0.000233221 0 3.13379e-05)
(0.00044654 0 6.04749e-05)
(0.000635679 0 8.71929e-05)
(0.000803098 0 0.000112066)
(0.000951018 0 0.000135556)
(0.00108145 0 0.000158033)
(0.00119622 0 0.000179798)
(0.00129701 0 0.000201094)
(0.00138534 0 0.000222118)
(0.00146266 0 0.000243026)
(0.00153027 0 0.000263945)
(0.00158945 0 0.00028497)
(0.00164136 0 0.000306172)
(0.00168714 0 0.000327598)
(0.00172786 0 0.000349276)
(0.00176457 0 0.000371212)
(0.00179824 0 0.000393391)
(0.0018298 0 0.000415782)
(0.00186008 0 0.000438336)
(0.00188979 0 0.000460993)
(0.00191947 0 0.000483682)
(0.00194942 0 0.000506333)
(0.00197965 0 0.000528866)
(0.00200984 0 0.000551189)
(0.00203932 0 0.000573132)
(0.00206711 0 0.000594319)
(0.00209194 0 0.000613908)
(0.00211225 0 0.000630272)
(0.00212603 0 0.000640959)
(0.00214415 0 0.000649499)
(0 0 0)
(0.000233704 0 3.33214e-05)
(0.000447536 0 6.42958e-05)
(0.000637262 0 9.26846e-05)
(0.00080538 0 0.000119093)
(0.000954139 0 0.000144004)
(0.00108557 0 0.00016781)
(0.00120153 0 0.000190825)
(0.0013037 0 0.000213302)
(0.00139365 0 0.000235447)
(0.0014728 0 0.000257423)
(0.0015425 0 0.000279358)
(0.00160402 0 0.000301352)
(0.00165853 0 0.000323477)
(0.00170718 0 0.000345784)
(0.00175104 0 0.000368301)
(0.00179112 0 0.000391038)
(0.00182838 0 0.000413987)
(0.00186372 0 0.000437124)
(0.00189791 0 0.000460416)
(0.00193163 0 0.000483816)
(0.00196539 0 0.000507277)
(0.00199952 0 0.000530743)
(0.00203411 0 0.000554148)
(0.00206905 0 0.000577392)
(0.00210398 0 0.000600281)
(0.00213827 0 0.000622408)
(0.00217084 0 0.000642937)
(0.00219961 0 0.000660288)
(0.00222054 0 0.000671904)
(0.00224354 0 0.000679993)
(0 0 0)
(0.000234123 0 3.51687e-05)
(0.000448413 0 6.78528e-05)
(0.000638676 0 9.77938e-05)
(0.000807448 0 0.000125623)
(0.000957002 0 0.000151845)
(0.00108939 0 0.000176867)
(0.00120648 0 0.000201015)
(0.00130997 0 0.000224553)
(0.00140144 0 0.000247691)
(0.00148232 0 0.000270598)
(0.00155396 0 0.000293404)
(0.00161764 0 0.00031621)
(0.00167452 0 0.000339088)
(0.00172574 0 0.000362088)
(0.00177235 0 0.000385237)
(0.00181535 0 0.000408546)
(0.00185565 0 0.000432007)
(0.0018941 0 0.000455598)
(0.00193143 0 0.000479286)
(0.00196829 0 0.000503026)
(0.00200514 0 0.000526768)
(0.00204233 0 0.000550446)
(0.00208002 0 0.000573974)
(0.00211823 0 0.000597224)
(0.00215679 0 0.000619991)
(0.00219535 0 0.000641935)
(0.0022331 0 0.000662515)
(0.00226813 0 0.000680845)
(0.00229574 0 0.000695017)
(0.00232941 0 0.000711644)
(0 0 0)
(0.000234463 0 3.68907e-05)
(0.000449139 0 7.1166e-05)
(0.00063988 0 0.000102548)
(0.000809252 0 0.000131692)
(0.000959548 0 0.000159121)
(0.00109284 0 0.000185253)
(0.00121099 0 0.000210426)
(0.00131573 0 0.000234911)
(0.00140862 0 0.000258923)
(0.00149111 0 0.000282632)
(0.00156454 0 0.000306171)
(0.00163018 0 0.000329637)
(0.00168919 0 0.000353103)
(0.00174267 0 0.000376614)
(0.00179166 0 0.000400196)
(0.00183711 0 0.000423853)
(0.00187989 0 0.000447574)
(0.0019208 0 0.00047133)
(0.00196053 0 0.000495079)
(0.00199963 0 0.000518763)
(0.00203855 0 0.000542311)
(0.0020776 0 0.000565625)
(0.00211693 0 0.00058857)
(0.00215656 0 0.000610959)
(0.00219636 0 0.000632519)
(0.002236 0 0.000652858)
(0.00227481 0 0.000671419)
(0.00231141 0 0.000687408)
(0.00234264 0 0.000699108)
(0.00241254 0 0.000743351)
(0 0 0)
(0.000430024 0 0)
(0.000583584 0 0)
(0.000741182 0 0)
(0.000879718 0 0)
(0.000997306 0 0)
(0.00109688 0 0)
(0.00118159 0 0)
(0.00125382 0 0)
(0.00131513 0 0)
(0.00136648 0 0)
(0.00140843 0 0)
(0.00144125 0 0)
(0.00146502 0 0)
(0.00147966 0 0)
(0.00148502 0 0)
(0.00148082 0 0)
(0.00146666 0 0)
(0.00144209 0 0)
(0.0014065 0 0)
(0.0013592 0 0)
(0.00129938 0 0)
(0.00122609 0 0)
(0.00113825 0 0)
(0.00103464 0 0)
(0.000913884 0 0)
(0.000774448 0 0)
(0.000614629 0 0)
(0.000432549 0 0)
(0.000226158 0 0)
(0 0 0)
(0.00037437 0 -0.000222416)
(0.000556505 0 -0.000111525)
(0.000672294 0 -7.56288e-05)
(0.000800104 0 -4.32148e-05)
(0.000918986 0 -1.91306e-05)
(0.00102415 0 -2.38792e-06)
(0.00111587 0 8.91075e-06)
(0.0011955 0 1.63831e-05)
(0.00126435 0 2.12035e-05)
(0.00132331 0 2.41818e-05)
(0.00137297 0 2.58698e-05)
(0.00141366 0 2.6645e-05)
(0.0014455 0 2.67686e-05)
(0.00146849 0 2.64244e-05)
(0.00148252 0 2.57433e-05)
(0.00148737 0 2.48193e-05)
(0.00148275 0 2.37206e-05)
(0.00146825 0 2.24957e-05)
(0.00144339 0 2.11792e-05)
(0.00140757 0 1.97945e-05)
(0.00136007 0 1.83564e-05)
(0.00130008 0 1.68726e-05)
(0.00122665 0 1.53447e-05)
(0.0011387 0 1.3769e-05)
(0.00103499 0 1.21368e-05)
(0.000914153 0 1.04338e-05)
(0.000774649 0 8.6406e-06)
(0.000614771 0 6.73124e-06)
(0.000432638 0 4.67254e-06)
(0.000226197 0 2.42238e-06)
(0 0 0)
(0.000841851 0 -0.000260305)
(0.000846317 0 -0.000154016)
(0.000886979 0 -0.000105758)
(0.00094979 0 -5.89418e-05)
(0.00102267 0 -2.20561e-05)
(0.00109721 0 4.76401e-06)
(0.00116877 0 2.34796e-05)
(0.00123498 0 3.6154e-05)
(0.00129462 0 4.44497e-05)
(0.00134706 0 4.95961e-05)
(0.00139194 0 5.24755e-05)
(0.00142899 0 5.37169e-05)
(0.00145801 0 5.37697e-05)
(0.00147875 0 5.29583e-05)
(0.00149096 0 5.15183e-05)
(0.00149433 0 4.96221e-05)
(0.00148848 0 4.73954e-05)
(0.00147297 0 4.49292e-05)
(0.00144727 0 4.22881e-05)
(0.00141074 0 3.95161e-05)
(0.00136266 0 3.6641e-05)
(0.00130218 0 3.36768e-05)
(0.00122834 0 3.06261e-05)
(0.00114004 0 2.74808e-05)
(0.00103605 0 2.42229e-05)
(0.000914973 0 2.08242e-05)
(0.000775266 0 1.72454e-05)
(0.000615214 0 1.34347e-05)
(0.000432928 0 9.32591e-06)
(0.000226342 0 4.83487e-06)
(0 0 0)
(0.00125396 0 -0.000178431)
(0.00114952 0 -0.00011539)
(0.0011305 0 -7.76183e-05)
(0.00113352 0 -3.655e-05)
(0.00115882 0 -1.00711e-06)
(0.00119861 0 2.67745e-05)
(0.00124551 0 4.72281e-05)
(0.00129418 0 6.16016e-05)
(0.00134117 0 7.12068e-05)
(0.00138424 0 7.71705e-05)
(0.00142201 0 8.03899e-05)
(0.00145353 0 8.15554e-05)
(0.00147816 0 8.11898e-05)
(0.00149536 0 7.96879e-05)
(0.00150468 0 7.73467e-05)
(0.00150566 0 7.43888e-05)
(0.00149784 0 7.09798e-05)
(0.00148069 0 6.72414e-05)
(0.00145361 0 6.32604e-05)
(0.00141594 0 5.90965e-05)
(0.0013669 0 5.47865e-05)
(0.00130562 0 5.03486e-05)
(0.00123111 0 4.57847e-05)
(0.00114225 0 4.10814e-05)
(0.00103779 0 3.62109e-05)
(0.00091632 0 3.11303e-05)
(0.000776281 0 2.57806e-05)
(0.000615944 0 2.00842e-05)
(0.000433404 0 1.39419e-05)
(0.000226579 0 7.22807e-06)
(0 0 0)
(0.00150883 0 -3.93707e-05)
(0.00137807 0 -2.58623e-05)
(0.00133302 0 -7.62516e-06)
(0.00130315 0 1.6947e-05)
(0.00129669 0 4.17856e-05)
(0.00130937 0 6.34552e-05)
(0.00133444 0 8.06713e-05)
(0.00136595 0 9.33692e-05)
(0.00139947 0 0.000102034)
(0.00143193 0 0.000107324)
(0.00146123 0 0.000109898)
(0.00148593 0 0.000110335)
(0.00150499 0 0.000109121)
(0.00151761 0 0.000106646)
(0.00152314 0 0.00010322)
(0.00152097 0 9.90834e-05)
(0.00151052 0 9.4421e-05)
(0.00149116 0 8.93701e-05)
(0.00146224 0 8.40299e-05)
(0.00142302 0 7.84685e-05)