/*--------------------------------*- C++ -*----------------------------------*\
| =========                 |                                                 |
| \\      /  F ield         | OpenFOAM: The Open Source CFD Toolbox           |
|  \\    /   O peration     | Version:  dev                                   |
|   \\  /    A nd           | Web:      www.OpenFOAM.org                      |
|    \\/     M anipulation  |                                                 |
\*---------------------------------------------------------------------------*/
FoamFile
{
    version     2.0;
    format      ascii;
    class       pointVectorField;
    location    "0.08";
    object      pointDisplacement;
}
// * * * * * * * * * * * * * * * * * * * * * * * * * * * * * * * * * * * * * //

dimensions      [0 1 0 0 0 0 0];

internalField   nonuniform List<vector> 
5828
(
(0 0 0)
(0.000233795 0 0)
(0.000447166 0 0)
(0.000635478 0 0)
(0.000800931 0 0)
(0.000945529 0 0)
(0.00107108 0 0)
(0.00117923 0 0)
(0.00127142 0 0)
(0.00134895 0 0)
(0.00141298 0 0)
(0.00146451 0 0)
(0.00150444 0 0)
(0.00153353 0 0)
(0.00155245 0 0)
(0.00156176 0 0)
(0.00156193 0 0)
(0.00155337 0 0)
(0.00153637 0 0)
(0.00151117 0 0)
(0.00147788 0 0)
(0.00143648 0 0)
(0.00138672 0 0)
(0.00132794 0 0)
(0.00125879 0 0)
(0.00117675 0 0)
(0.00107753 0 0)
(0.000954947 0 0)
(0.000804223 0 0)
(0.000642043 0 0)
(0 0 0)
(0 0 0)
(0.000233822 0 4.24221e-06)
(0.000447231 0 8.17863e-06)
(0.000635586 0 1.1773e-05)
(0.000801088 0 1.5097e-05)
(0.000945744 0 1.82065e-05)
(0.00107137 0 2.11438e-05)
(0.00117959 0 2.39396e-05)
(0.00127188 0 2.6614e-05)
(0.00134954 0 2.91775e-05)
(0.00141371 0 3.16305e-05)
(0.00146541 0 3.39637e-05)
(0.00150555 0 3.61571e-05)
(0.00153489 0 3.818e-05)
(0.0015541 0 3.99898e-05)
(0.00156376 0 4.1533e-05)
(0.00156437 0 4.27456e-05)
(0.00155632 0 4.35575e-05)
(0.00153995 0 4.39002e-05)
(0.00151554 0 4.37211e-05)
(0.00148327 0 4.30094e-05)
(0.00144323 0 4.18378e-05)
(0.00139538 0 4.04313e-05)
(0.00133943 0 3.92751e-05)
(0.00127477 0 3.92843e-05)
(0.00120028 0 4.20645e-05)
(0.00111436 0 5.02771e-05)
(0.00101573 0 6.79559e-05)
(0.000906895 0 9.97203e-05)
(0.000805763 0 0.000143798)
(0.000680082 0 0.000344117)
(0 0 0)
(0.000233931 0 8.47013e-06)
(0.000447452 0 1.63299e-05)
(0.00063593 0 2.35069e-05)
(0.000801575 0 3.01446e-05)
(0.0009464 0 3.63544e-05)
(0.00107223 0 4.22212e-05)
(0.0011807 0 4.78067e-05)
(0.00127329 0 5.31519e-05)
(0.0013513 0 5.8278e-05)
(0.00141589 0 6.31874e-05)
(0.00146811 0 6.78625e-05)
(0.00150885 0 7.22657e-05)
(0.00153892 0 7.63374e-05)
(0.00155901 0 7.99956e-05)
(0.00156971 0 8.31352e-05)
(0.00157157 0 8.56305e-05)
(0.00156504 0 8.73412e-05)
(0.00155052 0 8.8125e-05)
(0.00152841 0 8.7862e-05)
(0.00149905 0 8.6497e-05)
(0.00146284 0 8.41062e-05)
(0.00142022 0 8.10028e-05)
(0.00137181 0 7.78902e-05)
(0.0013186 0 7.60729e-05)
(0.00126235 0 7.77109e-05)
(0.00120647 0 8.60252e-05)
(0.00115759 0 0.000105083)
(0.00112718 0 0.000137926)
(0.00112716 0 0.000179285)
(0.00128053 0 0.000286804)
(0 0 0)
(0.000234111 0 1.26683e-05)
(0.000447818 0 2.44239e-05)
(0.000636498 0 3.5159e-05)
(0.000802377 0 4.5088e-05)
(0.000947481 0 5.43782e-05)
(0.00107364 0 6.31573e-05)
(0.00118252 0 7.15185e-05)
(0.00127559 0 7.95245e-05)
(0.00135418 0 8.72091e-05)
(0.00141948 0 9.45782e-05)
(0.00147253 0 0.000101609)
(0.00151426 0 0.000108251)
(0.00154551 0 0.000114418)
(0.00156701 0 0.000119995)
(0.0015794 0 0.000124832)
(0.00158327 0 0.000128744)
(0.00157916 0 0.000131523)
(0.00156758 0 0.000132947)
(0.00154905 0 0.000132808)
(0.00152414 0 0.000130956)
(0.00149358 0 0.00012737)
(0.00145834 0 0.000122259)
(0.00141993 0 0.000116194)
(0.00138069 0 0.00011025)
(0.00134443 0 0.000106074)
(0.00131726 0 0.000105717)
(0.00130807 0 0.00011083)
(0.00132657 0 0.000120779)
(0.00137123 0 0.000130283)
(0.00155001 0 0.000112582)
(0 0 0)
(0.000234356 0 1.68206e-05)
(0.000448316 0 3.24297e-05)
(0.000637272 0 4.66844e-05)
(0.000803471 0 5.98699e-05)
(0.000948956 0 7.22092e-05)
(0.00107558 0 8.38728e-05)
(0.001185 0 9.49864e-05)
(0.00127873 0 0.000105636)
(0.00135812 0 0.000115869)
(0.00142436 0 0.000125698)
(0.00147854 0 0.000135101)
(0.00152162 0 0.000144016)
(0.00155447 0 0.000152341)
(0.00157786 0 0.000159934)
(0.00159251 0 0.000166606)
(0.00159906 0 0.000172126)
(0.00159814 0 0.000176221)
(0.00159036 0 0.00017859)
(0.00157639 0 0.000178921)
(0.001557 0 0.00017693)
(0.00153315 0 0.000172413)
(0.00150617 0 0.000165324)
(0.00147798 0 0.000155858)
(0.00145139 0 0.000144517)
(0.00143046 0 0.000132081)
(0.00142059 0 0.000119362)
(0.00142764 0 0.000106616)
(0.00145439 0 9.29213e-05)
(0.00149161 0 7.77891e-05)
(0.00155702 0 2.12376e-05)
(0 0 0)
(0.00023466 0 2.09113e-05)
(0.000448932 0 4.03169e-05)
(0.000638232 0 5.80395e-05)
(0.000804827 0 7.44344e-05)
(0.000950785 0 8.97798e-05)
(0.00107797 0 0.00010429)
(0.00118808 0 0.000118122)
(0.00128263 0 0.000131389)
(0.001363 0 0.000144154)
(0.00143041 0 0.000156441)
(0.00148598 0 0.000168229)
(0.00153072 0 0.000179455)
(0.00156552 0 0.000190009)
(0.00159122 0 0.000199731)
(0.0016086 0 0.000208408)
(0.00161837 0 0.000215772)
(0.00162124 0 0.000221501)
(0.00161793 0 0.000225222)
(0.0016092 0 0.000226525)
(0.00159594 0 0.000224977)
(0.00157922 0 0.000220161)
(0.00156043 0 0.000211713)
(0.00154141 0 0.000199376)
(0.00152457 0 0.000183049)
(0.00151287 0 0.000162817)
(0.00150939 0 0.000138988)
(0.00151605 0 0.000112234)
(0.00153095 0 8.42884e-05)
(0.00154582 0 6.01162e-05)
(0.001545 0 2.5134e-05)
(0 0 0)
(0.000235013 0 2.49253e-05)
(0.000449649 0 4.80564e-05)
(0.000639348 0 6.91822e-05)
(0.000806409 0 8.87273e-05)
(0.00095292 0 0.000107025)
(0.00108077 0 0.000124332)
(0.00119168 0 0.000140841)
(0.0012872 0 0.000156689)
(0.00136871 0 0.000171961)
(0.00143748 0 0.000186694)
(0.00149467 0 0.000200878)
(0.00154131 0 0.000214452)
(0.00157836 0 0.000227307)
(0.00160671 0 0.000239279)
(0.00162719 0 0.000250145)
(0.00164058 0 0.000259619)
(0.00164768 0 0.00026735)
(0.00164927 0 0.000272919)
(0.00164618 0 0.000275836)
(0.00163933 0 0.000275551)
(0.00162976 0 0.000271454)
(0.00161869 0 0.0002629)
(0.00160754 0 0.000249238)
(0.00159788 0 0.000229875)
(0.00159119 0 0.000204431)
(0.00158838 0 0.000173095)
(0.00158899 0 0.000137375)
(0.0015905 0 0.000101469)
(0.00158964 0 7.3744e-05)
(0.00157556 0 4.83178e-05)
(0 0 0)
(0.000235405 0 2.88479e-05)
(0.000450444 0 5.56195e-05)
(0.00064059 0 8.00714e-05)
(0.000808171 0 0.000102696)
(0.000955304 0 0.00012388)
(0.00108391 0 0.000143924)
(0.00119571 0 0.000163056)
(0.0012923 0 0.000181441)
(0.00137509 0 0.000199185)
(0.00144538 0 0.000216344)
(0.00150436 0 0.000232922)
(0.00155311 0 0.000248871)
(0.00159263 0 0.000264093)
(0.00162387 0 0.00027843)
(0.00164771 0 0.000291669)
(0.00166501 0 0.000303526)
(0.0016766 0 0.000313648)
(0.00168333 0 0.000321604)
(0.00168605 0 0.000326873)
(0.00168566 0 0.000328841)
(0.00168308 0 0.000326787)
(0.00167926 0 0.000319887)
(0.00167509 0 0.000307228)
(0.00167126 0 0.000287886)
(0.00166802 0 0.000261124)
(0.00166487 0 0.000226872)
(0.00166041 0 0.000186671)
(0.00165313 0 0.000145241)
(0.00164397 0 0.000112224)
(0.00162524 0 7.36392e-05)
(0 0 0)
(0.000235822 0 3.26646e-05)
(0.000451295 0 6.29785e-05)
(0.000641922 0 9.06666e-05)
(0.000810066 0 0.000116287)
(0.000957874 0 0.000140281)
(0.00108729 0 0.000162992)
(0.00120007 0 0.000184682)
(0.00129782 0 0.000205546)
(0.001382 0 0.000225715)
(0.00145392 0 0.000245266)
(0.00151482 0 0.000264224)
(0.00156582 0 0.000282559)
(0.00160796 0 0.000300194)
(0.00164224 0 0.000316994)
(0.00166959 0 0.000332767)
(0.00169093 0 0.000347257)
(0.00170713 0 0.000360142)
(0.00171907 0 0.000371016)
(0.00172761 0 0.000379387)
(0.00173358 0 0.000384655)
(0.00173778 0 0.000386098)
(0.00174089 0 0.00038286)
(0.00174336 0 0.000373957)
(0.00174524 0 0.000358329)
(0.00174599 0 0.000335006)
(0.00174437 0 0.000303498)
(0.00173871 0 0.000264579)
(0.00172811 0 0.000221772)
(0.00171521 0 0.000184165)
(0.00168802 0 0.000121083)
(0 0 0)
(0.000236252 0 3.63613e-05)
(0.000452174 0 7.01061e-05)
(0.000643303 0 0.000100929)
(0.00081204 0 0.000129451)
(0.000960559 0 0.000156167)
(0.00109083 0 0.000181462)
(0.00120465 0 0.000205633)
(0.00130363 0 0.000228906)
(0.00138925 0 0.000251438)
(0.00146289 0 0.000273332)
(0.00152579 0 0.000294635)
(0.00157911 0 0.000315347)
(0.00162395 0 0.000335414)
(0.00166134 0 0.000354738)
(0.00169225 0 0.000373165)
(0.00171764 0 0.000390489)
(0.00173843 0 0.000406443)
(0.0017555 0 0.000420694)
(0.0017697 0 0.000432832)
(0.00178183 0 0.000442355)
(0.00179258 0 0.000448658)
(0.00180243 0 0.000451013)
(0.00181157 0 0.000448576)
(0.00181975 0 0.000440407)
(0.00182613 0 0.000425578)
(0.00182929 0 0.000403402)
(0.00182759 0 0.000373942)
(0.00182016 0 0.00033914)
(0.00180921 0 0.000305846)
(0.00177601 0 0.000230013)
(0 0 0)
(0.00023668 0 3.99245e-05)
(0.000453052 0 7.69761e-05)
(0.000644691 0 0.000110819)
(0.000814034 0 0.000142138)
(0.000963287 0 0.000171476)
(0.00109445 0 0.000199261)
(0.00120932 0 0.000225825)
(0.00130957 0 0.000251423)
(0.00139669 0 0.000276241)
(0.00147207 0 0.000300409)
(0.00153701 0 0.000324002)
(0.00159268 0 0.000347049)
(0.00164022 0 0.000369534)
(0.00168069 0 0.000391397)
(0.00171512 0 0.000412538)
(0.00174446 0 0.000432816)
(0.00176968 0 0.000452044)
(0.00179166 0 0.000469992)
(0.00181125 0 0.00048638)
(0.00182921 0 0.000500874)
(0.00184617 0 0.000513078)
(0.00186255 0 0.000522529)
(0.00187845 0 0.000528706)
(0.00189361 0 0.000531041)
(0.00190729 0 0.000528983)
(0.00191834 0 0.000522128)
(0.0019255 0 0.000510514)
(0.00192798 0 0.000495283)
(0.00192662 0 0.000480218)
(0.00191171 0 0.000443598)
(0 0 0)
(0.000237091 0 4.33411e-05)
(0.0004539 0 8.35633e-05)
(0.000646042 0 0.000120302)
(0.000815991 0 0.000154301)
(0.00096598 0 0.000186151)
(0.00109803 0 0.00021632)
(0.00121398 0 0.000245174)
(0.0013155 0 0.000272999)
(0.00140412 0 0.00030001)
(0.00148125 0 0.000326364)
(0.0015482 0 0.000352165)
(0.0016062 0 0.000377476)
(0.00165638 0 0.000402319)
(0.00169985 0 0.000426682)
(0.00173763 0 0.000450523)
(0.00177074 0 0.000473774)
(0.00180012 0 0.000496344)
(0.00182667 0 0.000518122)
(0.00185124 0 0.000538986)
(0.00187456 0 0.000558804)
(0.00189726 0 0.000577439)
(0.00191974 0 0.000594768)
(0.0019422 0 0.000610685)
(0.00196452 0 0.000625125)
(0.00198626 0 0.000638083)
(0.00200673 0 0.000649648)
(0.0020251 0 0.000660044)
(0.00204051 0 0.00066966)
(0.0020519 0 0.000678464)
(0.00208086 0 0.000714866)
(0 0 0)
(0.000237468 0 4.65987e-05)
(0.000454686 0 8.98435e-05)
(0.000647309 0 0.000129342)
(0.000817847 0 0.000165894)
(0.000968562 0 0.000200135)
(0.0011015 0 0.00023257)
(0.00121851 0 0.000263601)
(0.00132129 0 0.000293541)
(0.00141138 0 0.000322634)
(0.00149022 0 0.000351063)
(0.00155914 0 0.000378964)
(0.00161936 0 0.000406433)
(0.00167207 0 0.00043353)
(0.00171837 0 0.000460292)
(0.0017593 0 0.000486736)
(0.00179588 0 0.000512869)
(0.00182906 0 0.000538693)
(0.00185973 0 0.000564221)
(0.00188873 0 0.000589485)
(0.00191679 0 0.00061455)
(0.00194453 0 0.000639539)
(0.00197242 0 0.000664647)
(0.00200074 0 0.000690164)
(0.00202957 0 0.000716479)
(0.00205877 0 0.000744041)
(0.00208798 0 0.000773213)
(0.00211646 0 0.000803879)
(0.0021427 0 0.000834536)
(0.00216318 0 0.000860324)
(0.0021902 0 0.000903931)
(0 0 0)
(0.000237795 0 4.96854e-05)
(0.000455378 0 9.5794e-05)
(0.000648446 0 0.000137907)
(0.000819542 0 0.000176874)
(0.000970953 0 0.000213374)
(0.00110474 0 0.00024795)
(0.00122278 0 0.00028103)
(0.00132678 0 0.000312959)
(0.0014183 0 0.000344005)
(0.00149878 0 0.00037438)
(0.00156956 0 0.000404246)
(0.0016319 0 0.000433731)
(0.00168697 0 0.000462933)
(0.00173588 0 0.000491933)
(0.00177968 0 0.0005208)
(0.00181937 0 0.00054961)
(0.0018559 0 0.000578448)
(0.00189016 0 0.00060743)
(0.00192293 0 0.000636716)
(0.00195496 0 0.000666533)
(0.00198686 0 0.000697196)
(0.00201911 0 0.000729132)
(0.00205208 0 0.000762894)
(0.00208597 0 0.000799142)
(0.00212082 0 0.000838546)
(0.00215637 0 0.000881483)
(0.00219182 0 0.000927305)
(0.00222497 0 0.000972739)
(0.00225069 0 0.00100915)
(0.00228517 0 0.00104686)
(0 0 0)
(0.000238054 0 5.25898e-05)
(0.000455943 0 0.000101393)
(0.000649405 0 0.000145964)
(0.000821014 0 0.000187201)
(0.000973078 0 0.000225821)
(0.00110768 0 0.000262398)
(0.0012267 0 0.000297392)
(0.00133185 0 0.00033117)
(0.00142471 0 0.000364026)
(0.00150674 0 0.000396196)
(0.00157927 0 0.000427868)
(0.00164355 0 0.000459196)
(0.00170077 0 0.000490311)
(0.00175203 0 0.000521329)
(0.00179837 0 0.000552366)
(0.00184077 0 0.000583548)
(0.00188016 0 0.000615021)
(0.00191738 0 0.000646975)
(0.0019532 0 0.000679653)
(0.00198833 0 0.000713373)
(0.00202333 0 0.00074855)
(0.00205869 0 0.000785702)
(0.00209476 0 0.00082545)
(0.00213174 0 0.000868473)
(0.00216965 0 0.000915375)
(0.00220821 0 0.000966375)
(0.00224652 0 0.00102062)
(0.00228236 0 0.00107476)
(0.00231054 0 0.00111983)
(0.00235147 0 0.00118883)
(0 0 0)
(0.00023823 0 5.53285e-05)
(0.000456351 0 0.00010667)
(0.000650144 0 0.000153555)
(0.000822211 0 0.000196926)
(0.000974876 0 0.000237535)
(0.00111023 0 0.000275984)
(0.00123017 0 0.00031276)
(0.00133641 0 0.000348252)
(0.00143054 0 0.000382776)
(0.001514 0 0.00041659)
(0.00158814 0 0.000449902)
(0.0016542 0 0.000482889)
(0.00171335 0 0.000515705)
(0.00176669 0 0.000548496)
(0.00181522 0 0.000581406)
(0.00185991 0 0.000614595)
(0.00190164 0 0.000648245)
(0.00194122 0 0.00068258)
(0.00197935 0 0.000717872)
(0.00201668 0 0.000754458)
(0.00205373 0 0.000792745)
(0.00209089 0 0.000833198)
(0.00212842 0 0.000876309)
(0.00216641 0 0.000922521)
(0.00220471 0 0.000972069)
(0.00224282 0 0.00102468)
(0.00227963 0 0.0010791)
(0.0023131 0 0.0011323)
(0.00233938 0 0.00117757)
(0.0023841 0 0.00127704)
(0 0 0)
(0.000233795 0 0)
(0.000447166 0 0)
(0.000635478 0 0)
(0.000800931 0 0)
(0.000945529 0 0)
(0.00107108 0 0)
(0.00117923 0 0)
(0.00127142 0 0)
(0.00134895 0 0)
(0.00141298 0 0)
(0.00146451 0 0)
(0.00150444 0 0)
(0.00153353 0 0)
(0.00155245 0 0)
(0.00156176 0 0)
(0.00156193 0 0)
(0.00155337 0 0)
(0.00153637 0 0)
(0.00151117 0 0)
(0.00147788 0 0)
(0.00143648 0 0)
(0.00138672 0 0)
(0.00132794 0 0)
(0.00125879 0 0)
(0.00117675 0 0)
(0.00107753 0 0)
(0.000954947 0 0)
(0.000804223 0 0)
(0.000642043 0 0)
(0 0 0)
(0 0 0)
(0.000233822 0 4.24221e-06)
(0.000447231 0 8.17863e-06)
(0.000635586 0 1.1773e-05)
(0.000801088 0 1.5097e-05)
(0.000945744 0 1.82065e-05)
(0.00107137 0 2.11438e-05)
(0.00117959 0 2.39396e-05)
(0.00127188 0 2.6614e-05)
(0.00134954 0 2.91775e-05)
(0.00141371 0 3.16305e-05)
(0.00146541 0 3.39637e-05)
(0.00150555 0 3.61571e-05)
(0.00153489 0 3.818e-05)
(0.0015541 0 3.99898e-05)
(0.00156376 0 4.1533e-05)
(0.00156437 0 4.27456e-05)
(0.00155632 0 4.35575e-05)
(0.00153995 0 4.39002e-05)
(0.00151554 0 4.37211e-05)
(0.00148327 0 4.30094e-05)
(0.00144323 0 4.18378e-05)
(0.00139538 0 4.04313e-05)
(0.00133943 0 3.92751e-05)
(0.00127477 0 3.92843e-05)
(0.00120028 0 4.20645e-05)
(0.00111436 0 5.02771e-05)
(0.00101573 0 6.79559e-05)
(0.000906895 0 9.97203e-05)
(0.000805763 0 0.000143798)
(0.000680082 0 0.000344117)
(0 0 0)
(0.000233931 0 8.47013e-06)
(0.000447452 0 1.63299e-05)
(0.00063593 0 2.35069e-05)
(0.000801575 0 3.01446e-05)
(0.0009464 0 3.63544e-05)
(0.00107223 0 4.22212e-05)
(0.0011807 0 4.78067e-05)
(0.00127329 0 5.31519e-05)
(0.0013513 0 5.8278e-05)
(0.00141589 0 6.31874e-05)
(0.00146811 0 6.78625e-05)
(0.00150885 0 7.22657e-05)
(0.00153892 0 7.63374e-05)
(0.00155901 0 7.99956e-05)
(0.00156971 0 8.31352e-05)
(0.00157157 0 8.56305e-05)
(0.00156504 0 8.73412e-05)
(0.00155052 0 8.8125e-05)
(0.00152841 0 8.7862e-05)
(0.00149905 0 8.6497e-05)
(0.00146284 0 8.41062e-05)
(0.00142022 0 8.10028e-05)
(0.00137181 0 7.78902e-05)
(0.0013186 0 7.60729e-05)
(0.00126235 0 7.77109e-05)
(0.00120647 0 8.60252e-05)
(0.00115759 0 0.000105083)
(0.00112718 0 0.000137926)
(0.00112716 0 0.000179285)
(0.00128053 0 0.000286804)
(0 0 0)
(0.000234111 0 1.26683e-05)
(0.000447818 0 2.44239e-05)
(0.000636498 0 3.5159e-05)
(0.000802377 0 4.5088e-05)
(0.000947481 0 5.43782e-05)
(0.00107364 0 6.31573e-05)
(0.00118252 0 7.15185e-05)
(0.00127559 0 7.95245e-05)
(0.00135418 0 8.72091e-05)
(0.00141948 0 9.45782e-05)
(0.00147253 0 0.000101609)
(0.00151426 0 0.000108251)
(0.00154551 0 0.000114418)
(0.00156701 0 0.000119995)
(0.0015794 0 0.000124832)
(0.00158327 0 0.000128744)
(0.00157916 0 0.000131523)
(0.00156758 0 0.000132947)
(0.00154905 0 0.000132808)
(0.00152414 0 0.000130956)
(0.00149358 0 0.00012737)
(0.00145834 0 0.000122259)
(0.00141993 0 0.000116194)
(0.00138069 0 0.00011025)
(0.00134443 0 0.000106074)
(0.00131726 0 0.000105717)
(0.00130807 0 0.00011083)
(0.00132657 0 0.000120779)
(0.00137123 0 0.000130283)
(0.00155001 0 0.000112582)
(0 0 0)
(0.000234356 0 1.68206e-05)
(0.000448316 0 3.24297e-05)
(0.000637272 0 4.66844e-05)
(0.000803471 0 5.98699e-05)
(0.000948956 0 7.22092e-05)
(0.00107558 0 8.38728e-05)
(0.001185 0 9.49864e-05)
(0.00127873 0 0.000105636)
(0.00135812 0 0.000115869)
(0.00142436 0 0.000125698)
(0.00147854 0 0.000135101)
(0.00152162 0 0.000144016)
(0.00155447 0 0.000152341)
(0.00157786 0 0.000159934)
(0.00159251 0 0.000166606)
(0.00159906 0 0.000172126)
(0.00159814 0 0.000176221)
(0.00159036 0 0.00017859)
(0.00157639 0 0.000178921)
(0.001557 0 0.00017693)
(0.00153315 0 0.000172413)
(0.00150617 0 0.000165324)
(0.00147798 0 0.000155858)
(0.00145139 0 0.000144517)
(0.00143046 0 0.000132081)
(0.00142059 0 0.000119362)
(0.00142764 0 0.000106616)
(0.00145439 0 9.29213e-05)
(0.00149161 0 7.77891e-05)
(0.00155702 0 2.12376e-05)
(0 0 0)
(0.00023466 0 2.09113e-05)
(0.000448932 0 4.03169e-05)
(0.000638232 0 5.80395e-05)
(0.000804827 0 7.44344e-05)
(0.000950785 0 8.97798e-05)
(0.00107797 0 0.00010429)
(0.00118808 0 0.000118122)
(0.00128263 0 0.000131389)
(0.001363 0 0.000144154)
(0.00143041 0 0.000156441)
(0.00148598 0 0.000168229)
(0.00153072 0 0.000179455)
(0.00156552 0 0.000190009)
(0.00159122 0 0.000199731)
(0.0016086 0 0.000208408)
(0.00161837 0 0.000215772)
(0.00162124 0 0.000221501)
(0.00161793 0 0.000225222)
(0.0016092 0 0.000226525)
(0.00159594 0 0.000224977)
(0.00157922 0 0.000220161)
(0.00156043 0 0.000211713)
(0.00154141 0 0.000199376)
(0.00152457 0 0.000183049)
(0.00151287 0 0.000162817)
(0.00150939 0 0.000138988)
(0.00151605 0 0.000112234)
(0.00153095 0 8.42884e-05)
(0.00154582 0 6.01162e-05)
(0.001545 0 2.5134e-05)
(0 0 0)
(0.000235013 0 2.49253e-05)
(0.000449649 0 4.80564e-05)
(0.000639348 0 6.91822e-05)
(0.000806409 0 8.87273e-05)
(0.00095292 0 0.000107025)
(0.00108077 0 0.000124332)
(0.00119168 0 0.000140841)
(0.0012872 0 0.000156689)
(0.00136871 0 0.000171961)
(0.00143748 0 0.000186694)
(0.00149467 0 0.000200878)
(0.00154131 0 0.000214452)
(0.00157836 0 0.000227307)
(0.00160671 0 0.000239279)
(0.00162719 0 0.000250145)
(0.00164058 0 0.000259619)
(0.00164768 0 0.00026735)
(0.00164927 0 0.000272919)
(0.00164618 0 0.000275836)
(0.00163933 0 0.000275551)
(0.00162976 0 0.000271454)
(0.00161869 0 0.0002629)
(0.00160754 0 0.000249238)
(0.00159788 0 0.000229875)
(0.00159119 0 0.000204431)
(0.00158838 0 0.000173095)
(0.00158899 0 0.000137375)
(0.0015905 0 0.000101469)
(0.00158964 0 7.3744e-05)
(0.00157556 0 4.83178e-05)
(0 0 0)
(0.000235405 0 2.88479e-05)
(0.000450444 0 5.56195e-05)
(0.00064059 0 8.00714e-05)
(0.000808171 0 0.000102696)
(0.000955304 0 0.00012388)
(0.00108391 0 0.000143924)
(0.00119571 0 0.000163056)
(0.0012923 0 0.000181441)
(0.00137509 0 0.000199185)
(0.00144538 0 0.000216344)
(0.00150436 0 0.000232922)
(0.00155311 0 0.000248871)
(0.00159263 0 0.000264093)
(0.00162387 0 0.00027843)
(0.00164771 0 0.000291669)
(0.00166501 0 0.000303526)
(0.0016766 0 0.000313648)
(0.00168333 0 0.000321604)
(0.00168605 0 0.000326873)
(0.00168566 0 0.000328841)
(0.00168308 0 0.000326787)
(0.00167926 0 0.000319887)
(0.00167509 0 0.000307228)
(0.00167126 0 0.000287886)
(0.00166802 0 0.000261124)
(0.00166487 0 0.000226872)
(0.00166041 0 0.000186671)
(0.00165313 0 0.000145241)
(0.00164397 0 0.000112224)
(0.00162524 0 7.36393e-05)
(0 0 0)
(0.000235822 0 3.26646e-05)
(0.000451295 0 6.29785e-05)
(0.000641922 0 9.06666e-05)
(0.000810066 0 0.000116287)
(0.000957874 0 0.000140281)
(0.00108729 0 0.000162992)
(0.00120007 0 0.000184682)
(0.00129782 0 0.000205546)
(0.001382 0 0.000225715)
(0.00145392 0 0.000245266)
(0.00151482 0 0.000264224)
(0.00156582 0 0.000282559)
(0.00160796 0 0.000300194)
(0.00164224 0 0.000316994)
(0.00166959 0 0.000332767)
(0.00169093 0 0.000347257)
(0.00170713 0 0.000360142)
(0.00171907 0 0.000371016)
(0.00172761 0 0.000379387)
(0.00173358 0 0.000384655)
(0.00173778 0 0.000386098)
(0.00174089 0 0.00038286)
(0.00174336 0 0.000373957)
(0.00174524 0 0.000358329)
(0.00174599 0 0.000335006)
(0.00174437 0 0.000303498)
(0.00173871 0 0.000264579)
(0.00172811 0 0.000221772)
(0.00171521 0 0.000184165)
(0.00168802 0 0.000121083)
(0 0 0)
(0.000236252 0 3.63613e-05)
(0.000452174 0 7.01061e-05)
(0.000643303 0 0.000100929)
(0.00081204 0 0.000129451)
(0.000960559 0 0.000156167)
(0.00109083 0 0.000181462)
(0.00120465 0 0.000205633)
(0.00130363 0 0.000228906)
(0.00138925 0 0.000251438)
(0.00146289 0 0.000273332)
(0.00152579 0 0.000294635)
(0.00157911 0 0.000315347)
(0.00162395 0 0.000335414)
(0.00166134 0 0.000354738)
(0.00169225 0 0.000373165)
(0.00171764 0 0.000390489)
(0.00173843 0 0.000406443)
(0.0017555 0 0.000420694)
(0.0017697 0 0.000432832)
(0.00178183 0 0.000442355)
(0.00179258 0 0.000448658)
(0.00180243 0 0.000451013)
(0.00181157 0 0.000448576)
(0.00181975 0 0.000440407)
(0.00182613 0 0.000425578)
(0.00182929 0 0.000403402)
(0.00182759 0 0.000373942)
(0.00182016 0 0.00033914)
(0.00180921 0 0.000305846)
(0.00177601 0 0.000230013)
(0 0 0)
(0.00023668 0 3.99245e-05)
(0.000453052 0 7.69761e-05)
(0.000644691 0 0.000110819)
(0.000814034 0 0.000142138)
(0.000963287 0 0.000171476)
(0.00109445 0 0.000199261)
(0.00120932 0 0.000225825)
(0.00130957 0 0.000251423)
(0.00139669 0 0.000276241)
(0.00147207 0 0.000300409)
(0.00153701 0 0.000324002)
(0.00159268 0 0.000347049)
(0.00164022 0 0.000369534)
(0.00168069 0 0.000391397)
(0.00171512 0 0.000412538)
(0.00174446 0 0.000432816)
(0.00176968 0 0.000452044)
(0.00179166 0 0.000469992)
(0.00181125 0 0.00048638)
(0.00182921 0 0.000500874)
(0.00184617 0 0.000513078)
(0.00186255 0 0.000522529)
(0.00187845 0 0.000528706)
(0.00189361 0 0.000531041)
(0.00190729 0 0.000528983)
(0.00191834 0 0.000522128)
(0.0019255 0 0.000510514)
(0.00192798 0 0.000495283)
(0.00192662 0 0.000480218)
(0.00191171 0 0.000443598)
(0 0 0)
(0.000237091 0 4.33411e-05)
(0.0004539 0 8.35633e-05)
(0.000646042 0 0.000120302)
(0.000815991 0 0.000154301)
(0.00096598 0 0.000186151)
(0.00109803 0 0.00021632)
(0.00121398 0 0.000245174)
(0.0013155 0 0.000272999)
(0.00140412 0 0.00030001)
(0.00148125 0 0.000326364)
(0.0015482 0 0.000352165)
(0.0016062 0 0.000377476)
(0.00165638 0 0.000402319)
(0.00169985 0 0.000426682)
(0.00173763 0 0.000450523)
(0.00177074 0 0.000473774)
(0.00180012 0 0.000496344)
(0.00182667 0 0.000518122)
(0.00185124 0 0.000538986)
(0.00187456 0 0.000558804)
(0.00189726 0 0.000577439)
(0.00191974 0 0.000594768)
(0.0019422 0 0.000610685)
(0.00196452 0 0.000625125)
(0.00198626 0 0.000638083)
(0.00200673 0 0.000649648)
(0.0020251 0 0.000660044)
(0.00204051 0 0.00066966)
(0.0020519 0 0.000678464)
(0.00208086 0 0.000714866)
(0 0 0)
(0.000237468 0 4.65987e-05)
(0.000454686 0 8.98435e-05)
(0.000647309 0 0.000129342)
(0.000817847 0 0.000165894)
(0.000968562 0 0.000200135)
(0.0011015 0 0.00023257)
(0.00121851 0 0.000263601)
(0.00132129 0 0.000293541)
(0.00141138 0 0.000322634)
(0.00149022 0 0.000351063)
(0.00155914 0 0.000378964)
(0.00161936 0 0.000406433)
(0.00167207 0 0.00043353)
(0.00171837 0 0.000460292)
(0.0017593 0 0.000486736)
(0.00179588 0 0.000512869)
(0.00182906 0 0.000538693)
(0.00185973 0 0.000564221)
(0.00188873 0 0.000589485)
(0.00191679 0 0.00061455)
(0.00194453 0 0.000639539)
(0.00197242 0 0.000664647)
(0.00200074 0 0.000690164)
(0.00202957 0 0.000716479)
(0.00205877 0 0.000744041)
(0.00208798 0 0.000773213)
(0.00211646 0 0.000803879)
(0.0021427 0 0.000834536)
(0.00216318 0 0.000860324)
(0.0021902 0 0.000903931)
(0 0 0)
(0.000237795 0 4.96854e-05)
(0.000455378 0 9.5794e-05)
(0.000648446 0 0.000137907)
(0.000819542 0 0.000176874)
(0.000970953 0 0.000213374)
(0.00110474 0 0.00024795)
(0.00122278 0 0.00028103)
(0.00132678 0 0.000312959)
(0.0014183 0 0.000344005)
(0.00149878 0 0.00037438)
(0.00156956 0 0.000404246)
(0.0016319 0 0.000433731)
(0.00168697 0 0.000462933)
(0.00173588 0 0.000491933)
(0.00177968 0 0.0005208)
(0.00181937 0 0.00054961)
(0.0018559 0 0.000578448)
(0.00189016 0 0.00060743)
(0.00192293 0 0.000636716)
(0.00195496 0 0.000666533)
(0.00198686 0 0.000697196)
(0.00201911 0 0.000729132)
(0.00205208 0 0.000762894)
(0.00208597 0 0.000799142)
(0.00212082 0 0.000838546)
(0.00215637 0 0.000881483)
(0.00219182 0 0.000927305)
(0.00222497 0 0.000972739)
(0.00225069 0 0.00100915)
(0.00228517 0 0.00104686)
(0 0 0)
(0.000238054 0 5.25898e-05)
(0.000455943 0 0.000101393)
(0.000649405 0 0.000145964)
(0.000821014 0 0.000187201)
(0.000973078 0 0.000225821)
(0.00110768 0 0.000262398)
(0.0012267 0 0.000297392)
(0.00133185 0 0.00033117)
(0.00142471 0 0.000364026)
(0.00150674 0 0.000396196)
(0.00157927 0 0.000427868)
(0.00164355 0 0.000459196)
(0.00170077 0 0.000490311)
(0.00175203 0 0.000521329)
(0.00179837 0 0.000552366)
(0.00184077 0 0.000583548)
(0.00188016 0 0.000615021)
(0.00191738 0 0.000646975)
(0.0019532 0 0.000679653)
(0.00198833 0 0.000713373)
(0.00202333 0 0.00074855)
(0.00205869 0 0.000785702)
(0.00209476 0 0.00082545)
(0.00213174 0 0.000868473)
(0.00216965 0 0.000915375)
(0.00220821 0 0.000966375)
(0.00224652 0 0.00102062)
(0.00228236 0 0.00107476)
(0.00231054 0 0.00111983)
(0.00235147 0 0.00118883)
(0 0 0)
(0.00023823 0 5.53285e-05)
(0.000456351 0 0.00010667)
(0.000650144 0 0.000153555)
(0.000822211 0 0.000196926)
(0.000974876 0 0.000237535)
(0.00111023 0 0.000275984)
(0.00123017 0 0.00031276)
(0.00133641 0 0.000348252)
(0.00143054 0 0.000382776)
(0.001514 0 0.00041659)
(0.00158814 0 0.000449902)
(0.0016542 0 0.000482889)
(0.00171335 0 0.000515705)
(0.00176669 0 0.000548496)
(0.00181522 0 0.000581406)
(0.00185991 0 0.000614595)
(0.00190164 0 0.000648245)
(0.00194122 0 0.00068258)
(0.00197935 0 0.000717872)
(0.00201668 0 0.000754458)
(0.00205373 0 0.000792745)
(0.00209089 0 0.000833198)
(0.00212842 0 0.000876309)
(0.00216641 0 0.000922521)
(0.00220471 0 0.000972069)
(0.00224282 0 0.00102468)
(0.00227963 0 0.0010791)
(0.0023131 0 0.0011323)
(0.00233938 0 0.00117757)
(0.0023841 0 0.00127704)
(0 0 0)
(0.000645938 0 0)
(0.00081002 0 0)
(0.000960388 0 0)
(0.00108161 0 0)
(0.00117902 0 0)
(0.00125911 0 0)
(0.00132635 0 0)
(0.00138337 0 0)
(0.00143156 0 0)
(0.00147161 0 0)
(0.00150378 0 0)
(0.00152806 0 0)
(0.00154433 0 0)
(0.00155233 0 0)
(0.00155173 0 0)
(0.00154215 0 0)
(0.00152308 0 0)
(0.00149395 0 0)
(0.0014541 0 0)
(0.00140275 0 0)
(0.00133902 0 0)
(0.0012619 0 0)
(0.00117025 0 0)
(0.00106278 0 0)
(0.000938055 0 0)
(0.000794465 0 0)
(0.00063023 0 0)
(0.000443386 0 0)
(0.000231779 0 0)
(0 0 0)
(0.000673982 0 -0.000347819)
(0.000807526 0 -0.000142271)
(0.000911329 0 -9.51934e-05)
(0.00102026 0 -5.75716e-05)
(0.00111777 0 -3.16642e-05)
(0.00120202 0 -1.36936e-05)
(0.00127466 0 -6.37105e-07)
(0.00133749 0 9.24267e-06)
(0.00139174 0 1.68608e-05)
(0.00143808 0 2.27119e-05)
(0.00147682 0 2.71003e-05)
(0.00150801 0 3.02492e-05)
(0.00153153 0 3.2346e-05)
(0.00154719 0 3.35578e-05)
(0.00155469 0 3.40348e-05)
(0.00155369 0 3.39097e-05)
(0.00154377 0 3.32965e-05)
(0.00152441 0 3.22906e-05)
(0.00149504 0 3.09696e-05)
(0.00145499 0 2.93945e-05)
(0.00140348 0 2.76113e-05)
(0.00133961 0 2.56523e-05)
(0.00126237 0 2.35379e-05)
(0.00117062 0 2.12772e-05)
(0.00106307 0 1.88687e-05)
(0.000938273 0 1.63009e-05)
(0.000794625 0 1.35518e-05)
(0.000630341 0 1.05884e-05)
(0.000443454 0 7.3653e-06)
(0.000231808 0 3.8231e-06)
(0 0 0)
(0.00126999 0 -0.000284897)
(0.0011257 0 -0.000174443)
(0.00112869 0 -0.000126646)
(0.00115979 0 -8.17204e-05)
(0.001208 0 -4.58041e-05)
(0.00126255 0 -1.77148e-05)
(0.00131721 0 4.49747e-06)
(0.00136882 0 2.22155e-05)
(0.00141573 0 3.62855e-05)
(0.001457 0 4.72506e-05)
(0.00149207 0 5.5519e-05)
(0.00152046 0 6.14455e-05)
(0.00154178 0 6.53602e-05)
(0.00155567 0 6.75731e-05)
(0.00156172 0 6.83689e-05)
(0.00155951 0 6.80012e-05)
(0.00154858 0 6.66891e-05)
(0.00152838 0 6.46164e-05)
(0.0014983 0 6.19323e-05)
(0.00145766 0 5.87543e-05)
(0.00140565 0 5.51706e-05)
(0.00134136 0 5.12434e-05)
(0.00126377 0 4.7011e-05)
(0.00117173 0 4.24901e-05)
(0.00106394 0 3.76769e-05)
(0.000938938 0 3.25475e-05)
(0.000795121 0 2.70574e-05)
(0.000630694 0 2.11401e-05)
(0.000443683 0 1.47048e-05)
(0.000231921 0 7.63277e-06)
(0 0 0)
(0.0015461 0 -0.000107548)
(0.00136827 0 -0.000119253)
(0.0013253 0 -9.90491e-05)
(0.00130737 0 -6.95376e-05)
(0.00131614 0 -3.78414e-05)
(0.00134231 0 -7.8228e-06)
(0.00137732 0 1.88699e-05)
(0.00141528 0 4.16391e-05)
(0.0014525 0 6.03728e-05)
(0.00148665 0 7.52135e-05)
(0.00151629 0 8.64532e-05)
(0.00154043 0 9.44688e-05)
(0.00155833 0 9.96741e-05)
(0.00156941 0 0.000102485)
(0.00157314 0 0.000103294)
(0.00156899 0 0.000102457)
(0.00155643 0 0.000100279)
(0.00153486 0 9.7021e-05)
(0.00150364 0 9.28913e-05)
(0.00146203 0 8.80553e-05)
(0.0014092 0 8.26368e-05)
(0.00134423 0 7.6722e-05)
(0.00126607 0 7.03637e-05)
(0.00117355 0 6.35831e-05)
(0.00106536 0 5.63717e-05)
(0.000940029 0 4.86918e-05)
(0.000795935 0 4.04753e-05)
(0.000631274 0 3.1622e-05)
(0.000444058 0 2.19953e-05)
(0.000232107 0 1.14169e-05)
(0 0 0)
(0.00155239 0 -1.15083e-05)
(0.0014879 0 -5.67076e-05)
(0.00145101 0 -5.48749e-05)
(0.00142417 0 -3.91735e-05)
(0.00141653 0 -1.39215e-05)
(0.00142556 0 1.49896e-05)
(0.00144555 0 4.34071e-05)
(0.00147122 0 6.89657e-05)
(0.00149858 0 9.05478e-05)
(0.00152482 0 0.00010781)
(0.00154805 0 0.000120857)
(0.00156692 0 0.000130038)
(0.00158045 0 0.000135808)
(0.00158789 0 0.000138655)
(0.00158855 0 0.000139051)
(0.00158182 0 0.000137423)
(0.00156708 0 0.000134147)
(0.00154368 0 0.000129535)
(0.0015109 0 0.000123843)
(0.00146798 0 0.000117271)
(0.00141405 0 0.000109968)
(0.00134815 0 0.000102039)
(0.00126921 0 9.3543e-05)
(0.00117604 0 8.4503e-05)