/*--------------------------------*- C++ -*----------------------------------*\
| =========                 |                                                 |
| \\      /  F ield         | OpenFOAM: The Open Source CFD Toolbox           |
|  \\    /   O peration     | Version:  dev                                   |
|   \\  /    A nd           | Web:      www.OpenFOAM.org                      |
|    \\/     M anipulation  |                                                 |
\*---------------------------------------------------------------------------*/
FoamFile
{
    version     2.0;
    format      ascii;
    class       pointVectorField;
    location    "2.95";
    object      pointDisplacement;
}
// * * * * * * * * * * * * * * * * * * * * * * * * * * * * * * * * * * * * * //

dimensions      [0 1 0 0 0 0 0];

internalField   nonuniform List<vector> 
1028
(
(0.186065 0 -0.0160579)
(0.193221 0 -0.0171789)
(0.189308 0 -0.016943)
(0.196059 0 -0.0180681)
(0.202782 0 -0.0192685)
(0.209345 0 -0.0205415)
(0.19169 0 -0.0176847)
(0.198003 0 -0.0187959)
(0.204184 0 -0.0199647)
(0.210109 0 -0.0211847)
(0.21564 0 -0.0224459)
(0.220631 0 -0.023736)
(0.19333 0 -0.0182901)
(0.199202 0 -0.0193745)
(0.204861 0 -0.0204989)
(0.210199 0 -0.021654)
(0.215106 0 -0.0228297)
(0.219479 0 -0.0240147)
(0.223225 0 -0.0251969)
(0.226272 0 -0.0263633)
(0.194334 0 -0.0187665)
(0.199778 0 -0.0198138)
(0.204946 0 -0.0208844)
(0.209756 0 -0.0219695)
(0.214129 0 -0.02306)
(0.21799 0 -0.0241452)
(0.221277 0 -0.0252138)
(0.223946 0 -0.0262532)
(0.225974 0 -0.0272486)
(0.22724 0 -0.0280754)
(0.194791 0 -0.01912)
(0.199825 0 -0.0201226)
(0.204547 0 -0.0211352)
(0.208895 0 -0.02215)
(0.212813 0 -0.0231585)
(0.216248 0 -0.0241509)
(0.21916 0 -0.025117)
(0.221524 0 -0.0260457)
(0.223331 0 -0.0269245)
(0.224475 0 -0.0276473)
(0.194775 0 -0.0193565)
(0.199432 0 -0.0203106)
(0.203754 0 -0.0212642)
(0.2077 0 -0.0222105)
(0.211229 0 -0.0231415)
(0.214307 0 -0.0240487)
(0.216908 0 -0.0249231)
(0.219021 0 -0.0257554)
(0.220645 0 -0.0265356)
(0.221685 0 -0.0271724)
(0.194353 0 -0.0194821)
(0.198667 0 -0.0203863)
(0.202635 0 -0.0212815)
(0.206231 0 -0.0221621)
(0.209429 0 -0.0230209)
(0.212205 0 -0.0238505)
(0.214546 0 -0.0246432)
(0.216449 0 -0.0253915)
(0.217917 0 -0.0260876)
(0.218866 0 -0.0266523)
(0.193582 0 -0.0195017)
(0.197587 0 -0.0203559)
(0.201243 0 -0.0211946)
(0.204536 0 -0.0220131)
(0.207449 0 -0.0228052)
(0.209969 0 -0.0235643)
(0.212089 0 -0.0242844)
(0.213812 0 -0.0249592)
(0.215146 0 -0.0255829)
(0.216014 0 -0.0260863)
(0.192507 0 -0.0194187)
(0.196238 0 -0.020224)
(0.199622 0 -0.021009)
(0.202652 0 -0.0217694)
(0.205319 0 -0.0224999)
(0.207618 0 -0.0231953)
(0.20955 0 -0.0238505)
(0.211118 0 -0.0244607)
(0.212334 0 -0.0250216)
(0.213127 0 -0.0254723)
(0.191177 0 -0.0192367)
(0.194662 0 -0.0199944)
(0.197806 0 -0.0207283)
(0.200607 0 -0.0214344)
(0.203062 0 -0.0221084)
(0.205171 0 -0.022746)
(0.206938 0 -0.0233431)
(0.208372 0 -0.0238963)
(0.209483 0 -0.0244021)
(0.210208 0 -0.0248069)
(0.186033 0 -0.0182238)
(0.189632 0 -0.0189581)
(0.192898 0 -0.0196695)
(0.19583 0 -0.0203547)
(0.198429 0 -0.0210101)
(0.200698 0 -0.0216319)
(0.202641 0 -0.0222169)
(0.204265 0 -0.0227619)
(0.20558 0 -0.0232642)
(0.206597 0 -0.0237215)
(0.20726 0 -0.0240859)
(0.184504 0 -0.0178909)
(0.187905 0 -0.0185828)
(0.190975 0 -0.0192497)
(0.193719 0 -0.0198886)
(0.196141 0 -0.0204963)
(0.198247 0 -0.02107)
(0.200045 0 -0.0216069)
(0.201543 0 -0.0221048)
(0.202752 0 -0.0225615)
(0.203683 0 -0.0229755)
(0.204288 0 -0.0233042)
(0.182802 0 -0.0174595)
(0.186026 0 -0.0181099)
(0.188922 0 -0.0187337)
(0.191499 0 -0.0193284)
(0.193765 0 -0.0198915)
(0.195728 0 -0.0204204)
(0.197397 0 -0.0209133)
(0.198783 0 -0.0213682)
(0.199897 0 -0.0217837)
(0.200752 0 -0.0221588)
(0.201303 0 -0.0224556)
(0.180962 0 -0.0169274)
(0.184026 0 -0.017537)
(0.186768 0 -0.0181192)
(0.189197 0 -0.0186717)
(0.191324 0 -0.0191924)
(0.19316 0 -0.0196796)
(0.194715 0 -0.0201316)
(0.196001 0 -0.0205471)
(0.197031 0 -0.0209251)
(0.197815 0 -0.021265)
(0.198316 0 -0.021533)
(0.179014 0 -0.0162913)
(0.181936 0 -0.0168607)
(0.184539 0 -0.0174021)
(0.186837 0 -0.017914)
(0.188842 0 -0.0183945)
(0.190565 0 -0.0188423)
(0.192019 0 -0.0192562)
(0.193216 0 -0.0196351)
(0.194168 0 -0.0199786)
(0.194888 0 -0.0202863)
(0.195342 0 -0.020528)
(0.176991 0 -0.0155464)
(0.179787 0 -0.0160758)
(0.182267 0 -0.0165773)
(0.184449 0 -0.0170496)
(0.186344 0 -0.0174916)
(0.187967 0 -0.0179019)
(0.189331 0 -0.0182797)
(0.190448 0 -0.0186245)
(0.19133 0 -0.0189358)
(0.191991 0 -0.0192136)
(0.192401 0 -0.0194311)
(0.174928 0 -0.0146869)
(0.17761 0 -0.015176)
(0.179982 0 -0.0156378)
(0.18206 0 -0.0160715)
(0.183859 0 -0.0164758)
(0.185393 0 -0.01685)
(0.186676 0 -0.0171934)
(0.187721 0 -0.0175057)
(0.188541 0 -0.0177867)
(0.189147 0 -0.0180365)
(0.189517 0 -0.0182313)
(0.172861 0 -0.0137053)
(0.175443 0 -0.0141534)
(0.177719 0 -0.0145754)
(0.179705 0 -0.0149705)
(0.181419 0 -0.0153378)
(0.182874 0 -0.0156766)
(0.184086 0 -0.0159867)
(0.185066 0 -0.0162677)
(0.185828 0 -0.0165196)
(0.186385 0 -0.0167427)
(0.186717 0 -0.016916)
(0.17083 0 -0.0125926)
(0.173324 0 -0.0129985)
(0.175515 0 -0.0133799)
(0.177421 0 -0.013736)
(0.17906 0 -0.0140662)
(0.180445 0 -0.01437)
(0.181593 0 -0.0146471)
(0.182516 0 -0.0148975)
(0.183227 0 -0.0151212)
(0.183739 0 -0.0153184)
(0.184036 0 -0.0154709)
(0.168877 0 -0.0113379)
(0.171295 0 -0.0116998)
(0.173412 0 -0.012039)
(0.175248 0 -0.0123551)
(0.176821 0 -0.0126475)
(0.178147 0 -0.0129159)
(0.179239 0 -0.0131601)
(0.180111 0 -0.01338)
(0.180777 0 -0.0135759)
(0.181249 0 -0.0137479)
(0.181514 0 -0.0138803)
(0.167052 0 -0.00992849)
(0.169404 0 -0.0102436)
(0.171458 0 -0.0105385)
(0.173234 0 -0.0108128)
(0.174751 0 -0.011066)
(0.176024 0 -0.0112979)
(0.177068 0 -0.0115084)
(0.177897 0 -0.0116974)
(0.178524 0 -0.0118653)
(0.178961 0 -0.0120122)
(0.179199 0 -0.012125)
(0.165406 0 -0.00834927)
(0.167703 0 -0.00861396)
(0.169704 0 -0.00886126)
(0.171431 0 -0.00909093)
(0.172901 0 -0.00930264)
(0.174131 0 -0.00949619)
(0.175134 0 -0.00967149)
(0.175927 0 -0.0098286)
(0.17652 0 -0.00996771)
(0.176928 0 -0.0100891)
(0.177143 0 -0.0101819)
(0.164 0 -0.00658249)
(0.166253 0 -0.00679181)
(0.168212 0 -0.00698717)
(0.169899 0 -0.00716842)
(0.171332 0 -0.00733527)
(0.172526 0 -0.00748758)
(0.173497 0 -0.0076253)
(0.17426 0 -0.00774847)
(0.174826 0 -0.00785727)
(0.17521 0 -0.00795189)
(0.175406 0 -0.00802412)
(0.1629 0 -0.00460735)
(0.16512 0 -0.00475489)
(0.167048 0 -0.00489251)
(0.168705 0 -0.00502009)
(0.17011 0 -0.00513744)
(0.171278 0 -0.00524443)
(0.172225 0 -0.00534104)
(0.172966 0 -0.0054273)
(0.173512 0 -0.00550333)
(0.173877 0 -0.00556927)
(0.174059 0 -0.00561949)
(0.16218 0 -0.0023997)
(0.16438 0 -0.0024772)
(0.166288 0 -0.00254947)
(0.167927 0 -0.00261644)
(0.169314 0 -0.00267801)
(0.170465 0 -0.0027341)
(0.171397 0 -0.0027847)
(0.172124 0 -0.00282983)
(0.172658 0 -0.00286954)
(0.173011 0 -0.00290391)
(0.173183 0 -0.00293004)
(0.161925 0 0)
(0.164118 0 0)
(0.166019 0 0)
(0.167652 0 0)
(0.169032 0 0)
(0.170178 0 0)
(0.171105 0 0)
(0.171826 0 0)
(0.172356 0 0)
(0.172705 0 0)
(0.172874 0 0)
(0.186065 0 -0.0160579)
(0.193221 0 -0.0171789)
(0.189308 0 -0.016943)
(0.196059 0 -0.0180681)
(0.202782 0 -0.0192685)
(0.209345 0 -0.0205415)
(0.19169 0 -0.0176847)
(0.198003 0 -0.0187959)
(0.204184 0 -0.0199647)
(0.210109 0 -0.0211847)
(0.21564 0 -0.0224459)
(0.220631 0 -0.023736)
(0.19333 0 -0.0182901)
(0.199202 0 -0.0193745)
(0.204861 0 -0.0204989)
(0.210199 0 -0.021654)
(0.215106 0 -0.0228297)
(0.219479 0 -0.0240147)
(0.223225 0 -0.0251969)
(0.226272 0 -0.0263633)
(0.194334 0 -0.0187665)
(0.199778 0 -0.0198138)
(0.204946 0 -0.0208844)
(0.209756 0 -0.0219695)
(0.214129 0 -0.02306)
(0.21799 0 -0.0241452)
(0.221277 0 -0.0252138)
(0.223946 0 -0.0262532)
(0.225974 0 -0.0272486)
(0.22724 0 -0.0280754)
(0.194791 0 -0.01912)
(0.199825 0 -0.0201226)
(0.204547 0 -0.0211352)
(0.208895 0 -0.02215)
(0.212813 0 -0.0231585)
(0.216248 0 -0.0241509)
(0.21916 0 -0.025117)
(0.221524 0 -0.0260457)
(0.223331 0 -0.0269245)
(0.224475 0 -0.0276473)
(0.194775 0 -0.0193565)
(0.199432 0 -0.0203106)
(0.203754 0 -0.0212642)
(0.2077 0 -0.0222105)
(0.211229 0 -0.0231415)
(0.214307 0 -0.0240487)
(0.216908 0 -0.0249231)
(0.219021 0 -0.0257554)
(0.220645 0 -0.0265356)
(0.221685 0 -0.0271724)
(0.194353 0 -0.0194821)
(0.198667 0 -0.0203863)
(0.202635 0 -0.0212815)
(0.206231 0 -0.0221621)
(0.209429 0 -0.0230209)
(0.212205 0 -0.0238505)
(0.214546 0 -0.0246432)
(0.216449 0 -0.0253915)
(0.217917 0 -0.0260876)
(0.218866 0 -0.0266523)
(0.193582 0 -0.0195017)
(0.197587 0 -0.0203559)
(0.201243 0 -0.0211946)
(0.204536 0 -0.0220131)
(0.207449 0 -0.0228052)
(0.209969 0 -0.0235643)
(0.212089 0 -0.0242844)
(0.213812 0 -0.0249592)
(0.215146 0 -0.0255829)
(0.216014 0 -0.0260863)
(0.192507 0 -0.0194187)
(0.196238 0 -0.020224)
(0.199622 0 -0.021009)
(0.202652 0 -0.0217694)
(0.205319 0 -0.0224999)
(0.207618 0 -0.0231953)
(0.20955 0 -0.0238505)
(0.211118 0 -0.0244607)
(0.212334 0 -0.0250216)
(0.213127 0 -0.0254723)
(0.191177 0 -0.0192367)
(0.194662 0 -0.0199944)
(0.197806 0 -0.0207283)
(0.200607 0 -0.0214344)
(0.203062 0 -0.0221084)
(0.205171 0 -0.022746)
(0.206938 0 -0.0233431)
(0.208372 0 -0.0238963)
(0.209483 0 -0.0244021)
(0.210208 0 -0.0248069)
(0.186033 0 -0.0182238)
(0.189632 0 -0.0189581)
(0.192898 0 -0.0196695)
(0.19583 0 -0.0203547)
(0.198429 0 -0.0210101)
(0.200698 0 -0.0216319)
(0.202641 0 -0.0222169)
(0.204265 0 -0.0227619)
(0.20558 0 -0.0232642)
(0.206597 0 -0.0237215)
(0.20726 0 -0.0240859)
(0.184504 0 -0.0178909)
(0.187905 0 -0.0185828)
(0.190975 0 -0.0192497)
(0.193719 0 -0.0198886)
(0.196141 0 -0.0204963)
(0.198247 0 -0.02107)
(0.200045 0 -0.0216069)
(0.201543 0 -0.0221048)
(0.202752 0 -0.0225615)
(0.203683 0 -0.0229755)
(0.204288 0 -0.0233042)
(0.182802 0 -0.0174595)
(0.186026 0 -0.0181099)
(0.188922 0 -0.0187337)
(0.191499 0 -0.0193284)
(0.193765 0 -0.0198915)
(0.195728 0 -0.0204204)
(0.197397 0 -0.0209133)
(0.198783 0 -0.0213682)
(0.199897 0 -0.0217837)
(0.200752 0 -0.0221588)
(0.201303 0 -0.0224556)
(0.180962 0 -0.0169274)
(0.184026 0 -0.017537)
(0.186768 0 -0.0181192)
(0.189197 0 -0.0186717)
(0.191324 0 -0.0191924)
(0.19316 0 -0.0196796)
(0.194715 0 -0.0201316)
(0.196001 0 -0.0205471)
(0.197031 0 -0.0209251)
(0.197815 0 -0.021265)
(0.198316 0 -0.021533)
(0.179014 0 -0.0162913)
(0.181936 0 -0.0168607)
(0.184539 0 -0.0174021)
(0.186837 0 -0.017914)
(0.188842 0 -0.0183945)
(0.190565 0 -0.0188423)
(0.192019 0 -0.0192562)
(0.193216 0 -0.0196351)
(0.194168 0 -0.0199786)
(0.194888 0 -0.0202863)
(0.195342 0 -0.020528)
(0.176991 0 -0.0155464)
(0.179787 0 -0.0160758)
(0.182267 0 -0.0165773)
(0.184449 0 -0.0170496)
(0.186344 0 -0.0174916)
(0.187967 0 -0.0179019)
(0.189331 0 -0.0182797)
(0.190448 0 -0.0186245)
(0.19133 0 -0.0189358)
(0.191991 0 -0.0192136)
(0.192401 0 -0.0194311)
(0.174928 0 -0.0146869)
(0.17761 0 -0.015176)
(0.179982 0 -0.0156378)
(0.18206 0 -0.0160715)
(0.183859 0 -0.0164758)
(0.185393 0 -0.01685)
(0.186676 0 -0.0171934)
(0.187721 0 -0.0175057)
(0.188541 0 -0.0177867)
(0.189147 0 -0.0180365)
(0.189517 0 -0.0182313)
(0.172861 0 -0.0137053)
(0.175443 0 -0.0141534)
(0.177719 0 -0.0145754)
(0.179705 0 -0.0149705)
(0.181419 0 -0.0153378)
(0.182874 0 -0.0156766)
(0.184086 0 -0.0159867)
(0.185066 0 -0.0162677)
(0.185828 0 -0.0165196)
(0.186385 0 -0.0167427)
(0.186717 0 -0.016916)
(0.17083 0 -0.0125926)
(0.173324 0 -0.0129985)
(0.175515 0 -0.0133799)
(0.177421 0 -0.013736)
(0.17906 0 -0.0140662)
(0.180445 0 -0.01437)
(0.181593 0 -0.0146471)
(0.182516 0 -0.0148975)
(0.183227 0 -0.0151212)
(0.183739 0 -0.0153184)
(0.184036 0 -0.0154709)
(0.168877 0 -0.0113379)
(0.171295 0 -0.0116998)
(0.173412 0 -0.012039)
(0.175248 0 -0.0123551)
(0.176821 0 -0.0126475)
(0.178147 0 -0.0129159)
(0.179239 0 -0.0131601)
(0.180111 0 -0.01338)
(0.180777 0 -0.0135759)
(0.181249 0 -0.0137479)
(0.181514 0 -0.0138803)
(0.167052 0 -0.00992849)
(0.169404 0 -0.0102436)
(0.171458 0 -0.0105385)
(0.173234 0 -0.0108128)
(0.174751 0 -0.011066)
(0.176024 0 -0.0112979)
(0.177068 0 -0.0115084)
(0.177897 0 -0.0116974)
(0.178524 0 -0.0118653)
(0.178961 0 -0.0120122)
(0.179199 0 -0.012125)
(0.165406 0 -0.00834927)
(0.167703 0 -0.00861396)
(0.169704 0 -0.00886126)
(0.171431 0 -0.00909093)
(0.172901 0 -0.00930264)
(0.174131 0 -0.00949619)
(0.175134 0 -0.00967149)
(0.175927 0 -0.0098286)
(0.17652 0 -0.00996771)
(0.176928 0 -0.0100891)
(0.177143 0 -0.0101819)
(0.164 0 -0.00658249)
(0.166253 0 -0.00679181)
(0.168212 0 -0.00698717)
(0.169899 0 -0.00716842)
(0.171332 0 -0.00733527)
(0.172526 0 -0.00748758)
(0.173497 0 -0.0076253)
(0.17426 0 -0.00774847)
(0.174826 0 -0.00785727)
(0.17521 0 -0.00795189)
(0.175406 0 -0.00802412)
(0.1629 0 -0.00460735)
(0.16512 0 -0.00475489)
(0.167048 0 -0.00489251)
(0.168705 0 -0.00502009)
(0.17011 0 -0.00513744)
(0.171278 0 -0.00524443)
(0.172225 0 -0.00534104)
(0.172966 0 -0.0054273)
(0.173512 0 -0.00550333)
(0.173877 0 -0.00556927)
(0.174059 0 -0.00561949)
(0.16218 0 -0.0023997)
(0.16438 0 -0.0024772)
(0.166288 0 -0.00254947)
(0.167927 0 -0.00261644)
(0.169314 0 -0.00267801)
(0.170465 0 -0.0027341)
(0.171397 0 -0.0027847)
(0.172124 0 -0.00282983)
(0.172658 0 -0.00286954)
(0.173011 0 -0.00290391)
(0.173183 0 -0.00293004)
(0.161925 0 0)
(0.164118 0 0)
(0.166019 0 0)
(0.167652 0 0)
(0.169032 0 0)
(0.170178 0 0)
(0.171105 0 0)
(0.171826 0 0)
(0.172356 0 0)
(0.172705 0 0)
(0.172874 0 0)
(0.227843 0 -0.0286267)
(0.225035 0 -0.0281259)
(0.22535 0 -0.0284897)
(0.22558 0 -0.0289194)
(0.222205 0 -0.027592)
(0.222505 0 -0.0279102)
(0.222736 0 -0.0282855)
(0.219346 0 -0.0270228)
(0.219628 0 -0.0273033)
(0.219854 0 -0.0276335)
(0.216457 0 -0.0264154)
(0.216719 0 -0.0266639)
(0.216933 0 -0.0269562)
(0.213534 0 -0.0257658)
(0.213777 0 -0.0259871)
(0.213976 0 -0.0262467)
(0.21058 0 -0.0250696)
(0.210802 0 -0.0252673)
(0.210984 0 -0.0254987)
(0.207599 0 -0.0243217)
(0.2078 0 -0.0244987)
(0.207962 0 -0.0247053)
(0.204595 0 -0.0235162)
(0.204776 0 -0.0236749)
(0.204918 0 -0.0238597)
(0.20158 0 -0.0226463)
(0.201739 0 -0.0227887)
(0.201861 0 -0.0229538)
(0.198563 0 -0.0217045)
(0.198703 0 -0.0218322)
(0.198803 0 -0.0219798)
(0.195562 0 -0.0206822)
(0.195682 0 -0.0207966)
(0.195762 0 -0.0209285)
(0.192595 0 -0.0195692)
(0.192696 0 -0.0196714)
(0.192754 0 -0.0197886)
(0.189685 0 -0.0183546)
(0.189768 0 -0.0184454)
(0.189804 0 -0.0185487)
(0.186862 0 -0.0170252)
(0.186927 0 -0.0171055)
(0.186942 0 -0.0171962)
(0.184159 0 -0.0155665)
(0.184207 0 -0.0156367)
(0.184204 0 -0.015716)
(0.181617 0 -0.0139629)
(0.181651 0 -0.0140233)
(0.181632 0 -0.0140914)
(0.179285 0 -0.0121949)
(0.179306 0 -0.012246)
(0.179271 0 -0.0123032)
(0.177214 0 -0.0102393)
(0.177223 0 -0.010281)
(0.177175 0 -0.0103274)
(0.175465 0 -0.00806849)
(0.175465 0 -0.00810063)
(0.175406 0 -0.00813622)
(0.174108 0 -0.00565018)
(0.174102 0 -0.00567234)
(0.174034 0 -0.00569673)
(0.173227 0 -0.00294595)
(0.173216 0 -0.00295739)
(0.173142 0 -0.00296991)
(0.172916 0 0)
(0.172903 0 0)
(0.172828 0 0)
(0.227843 0 -0.0286267)
(0.225035 0 -0.0281259)
(0.22535 0 -0.0284897)
(0.22558 0 -0.0289194)
(0.222205 0 -0.027592)
(0.222505 0 -0.0279102)
(0.222736 0 -0.0282855)
(0.219346 0 -0.0270228)
(0.219628 0 -0.0273033)
(0.219854 0 -0.0276335)
(0.216457 0 -0.0264154)
(0.216719 0 -0.0266639)
(0.216933 0 -0.0269562)
(0.213534 0 -0.0257658)
(0.213777 0 -0.0259871)
(0.213976 0 -0.0262467)
(0.21058 0 -0.0250696)
(0.210802 0 -0.0252673)
(0.210984 0 -0.0254987)
(0.207599 0 -0.0243217)
(0.2078 0 -0.0244987)
(0.207962 0 -0.0247053)
(0.204595 0 -0.0235162)
(0.204776 0 -0.0236749)
(0.204918 0 -0.0238597)
(0.20158 0 -0.0226463)
(0.201739 0 -0.0227887)
(0.201861 0 -0.0229538)
(0.198563 0 -0.0217045)
(0.198703 0 -0.0218322)
(0.198803 0 -0.0219798)
(0.195562 0 -0.0206822)
(0.195682 0 -0.0207966)
(0.195762 0 -0.0209285)
(0.192595 0 -0.0195692)
(0.192696 0 -0.0196714)
(0.192754 0 -0.0197886)
(0.189685 0 -0.0183546)
(0.189768 0 -0.0184454)
(0.189804 0 -0.0185487)
(0.186862 0 -0.0170252)
(0.186927 0 -0.0171055)
(0.186942 0 -0.0171962)
(0.184159 0 -0.0155665)
(0.184207 0 -0.0156367)
(0.184204 0 -0.015716)
(0.181617 0 -0.0139629)
(0.181651 0 -0.0140233)
(0.181632 0 -0.0140914)
(0.179285 0 -0.0121949)
(0.179306 0 -0.012246)
(0.179271 0 -0.0123032)
(0.177214 0 -0.0102393)
(0.177223 0 -0.010281)
(0.177175 0 -0.0103274)
(0.175465 0 -0.00806849)
(0.175465 0 -0.00810063)
(0.175406 0 -0.00813622)
(0.174108 0 -0.00565018)
(0.174102 0 -0.00567234)
(0.174034 0 -0.00569673)
(0.173227 0 -0.00294595)
(0.173216 0 -0.00295739)
(0.173142 0 -0.00296991)
(0.172916 0 0)
(0.172903 0 0)
(0.172828 0 0)
(0.225587 0 -0.0294769)
(0.222784 0 -0.028773)
(0.22245 0 -0.0292589)
(0.2217 0 -0.0296535)
(0.220539 0 -0.0299402)
(0.219924 0 -0.0280624)
(0.219655 0 -0.0284913)
(0.219006 0 -0.0288429)
(0.217975 0 -0.0291029)
(0.216564 0 -0.029262)
(0.214776 0 -0.0293148)
(0.217013 0 -0.0273353)
(0.216787 0 -0.0277148)
(0.216211 0 -0.0280275)
(0.215279 0 -0.028261)
(0.213989 0 -0.0284067)
(0.212336 0 -0.0284587)
(0.210316 0 -0.0284128)
(0.207927 0 -0.0282665)
(0.214055 0 -0.0265831)
(0.213854 0 -0.0269194)
(0.213331 0 -0.027197)
(0.212475 0 -0.0274051)
(0.211278 0 -0.0275358)
(0.209734 0 -0.0275832)
(0.207833 0 -0.0275427)
(0.205569 0 -0.027411)
(0.202929 0 -0.0271854)
(0.211054 0 -0.0257977)
(0.210867 0 -0.0260961)
(0.210379 0 -0.0263419)
(0.209579 0 -0.026526)
(0.208455 0 -0.0266412)
(0.206998 0 -0.0266818)
(0.205195 0 -0.0266429)
(0.203036 0 -0.026521)
(0.200505 0 -0.0263127)
(0.208019 0 -0.0249716)
(0.207834 0 -0.0252362)
(0.207368 0 -0.0254533)
(0.206608 0 -0.025615)
(0.20554 0 -0.0257148)
(0.204151 0 -0.0257472)
(0.202428 0 -0.0257077)
(0.200356 0 -0.0255922)
(0.197919 0 -0.025397)
(0.204958 0 -0.0240971)
(0.204768 0 -0.0243316)
(0.204313 0 -0.0245225)
(0.203579 0 -0.0246633)
(0.202552 0 -0.0247481)
(0.201217 0 -0.0247718)
(0.199558 0 -0.02473)
(0.197559 0 -0.0246186)
(0.1952 0 -0.0244337)
(0.20188 0 -0.0231655)
(0.20168 0 -0.0233731)
(0.201227 0 -0.0235403)
(0.20051 0 -0.0236617)
(0.199512 0 -0.0237323)
(0.198218 0 -0.0237473)
(0.196609 0 -0.0237023)
(0.194669 0 -0.0235934)
(0.192377 0 -0.0234167)
(0.198799 0 -0.0221678)
(0.198582 0 -0.0223509)
(0.198127 0 -0.0224968)
(0.197419 0 -0.0226007)
(0.196441 0 -0.0226581)
(0.195176 0 -0.0226645)
(0.193607 0 -0.0226161)
(0.191715 0 -0.0225089)
(0.189478 0 -0.022339)
(0.195732 0 -0.021095)
(0.195496 0 -0.0212555)
(0.195033 0 -0.0213821)
(0.194327 0 -0.0214701)
(0.193362 0 -0.0215153)
(0.192119 0 -0.0215139)
(0.19058 0 -0.021462)
(0.188726 0 -0.0213562)
(0.186534 0 -0.0211924)
(0.192699 0 -0.0199358)
(0.192443 0 -0.0200763)
(0.191969 0 -0.0201852)
(0.191261 0 -0.0202587)
(0.190301 0 -0.020293)
(0.189072 0 -0.0202845)
(0.187556 0 -0.0202298)
(0.185732 0 -0.0201254)
(0.183576 0 -0.0199677)
(0.189724 0 -0.0186781)
(0.189448 0 -0.0188006)
(0.188961 0 -0.0188937)
(0.188247 0 -0.0189543)
(0.187289 0 -0.018979)
(0.186069 0 -0.0189645)
(0.184568 0 -0.0189076)
(0.182767 0 -0.0188053)
(0.180641 0 -0.018654)
(0.186839 0 -0.0173092)
(0.186543 0 -0.0174151)
(0.186041 0 -0.0174941)
(0.185318 0 -0.0175432)
(0.184358 0 -0.0175596)
(0.183142 0 -0.0175403)
(0.181652 0 -0.0174823)
(0.179868 0 -0.017383)
(0.177765 0 -0.0172389)
(0.184079 0 -0.015814)
(0.183762 0 -0.0159047)
(0.183245 0 -0.0159709)
(0.182512 0 -0.01601)
(0.181547 0 -0.0160194)
(0.180332 0 -0.0159965)
(0.178848 0 -0.0159388)
(0.177076 0 -0.0158436)
(0.174991 0 -0.015708)
(0.181485 0 -0.0141753)
(0.181149 0 -0.0142519)
(0.180616 0 -0.0143064)
(0.179871 0 -0.0143368)
(0.178899 0 -0.0143406)
(0.177682 0 -0.0143156)
(0.176202 0 -0.0142595)
(0.174439 0 -0.0141702)
(0.172367 0 -0.0140448)
(0.179105 0 -0.0123733)
(0.178749 0 -0.0124364)
(0.178201 0 -0.0124803)
(0.177444 0 -0.012503)
(0.176465 0 -0.0125026)
(0.175244 0 -0.012477)
(0.173765 0 -0.0124244)
(0.172007 0 -0.0123427)
(0.169945 0 -0.0122298)
(0.176992 0 -0.010384)
(0.176619 0 -0.0104343)
(0.176056 0 -0.0104684)
(0.175288 0 -0.0104846)
(0.1743 0 -0.0104813)
(0.173075 0 -0.0104568)
(0.171595 0 -0.0104096)
(0.16984 0 -0.010338)
(0.167785 0 -0.01024)
(0.175208 0 -0.00817938)
(0.17482 0 -0.00821731)
(0.174244 0 -0.00824232)
(0.173466 0 -0.0082531)
(0.172471 0 -0.00824836)
(0.171241 0 -0.00822683)
(0.169759 0 -0.00818724)
(0.168005 0 -0.00812836)
(0.165955 0 -0.00804862)
(0.173825 0 -0.00572621)
(0.173425 0 -0.00575181)
(0.17284 0 -0.00576826)
(0.172054 0 -0.00577462)
(0.171052 0 -0.00576998)
(0.169818 0 -0.00575345)
(0.168333 0 -0.00572414)
(0.16658 0 -0.0056812)
(0.164532 0 -0.00562354)
(0.172926 0 -0.00298501)
(0.172519 0 -0.00299802)
(0.171927 0 -0.0030062)
(0.171135 0 -0.00300906)
(0.170129 0 -0.0030061)
(0.168892 0 -0.00299688)
(0.167405 0 -0.00298091)
(0.165651 0 -0.00295777)
(0.163605 0 -0.00292689)
(0.172608 0 0)
(0.172199 0 0)
(0.171604 0 0)
(0.170811 0 0)
(0.169803 0 0)
(0.168564 0 0)
(0.167077 0 0)
(0.165323 0 0)
(0.163277 0 0)
(0.225587 0 -0.0294769)
(0.222784 0 -0.028773)
(0.22245 0 -0.0292589)
(0.2217 0 -0.0296535)
(0.220539 0 -0.0299402)
(0.219924 0 -0.0280624)
(0.219655 0 -0.0284913)
(0.219006 0 -0.0288429)
(0.217975 0 -0.0291029)
(0.216564 0 -0.029262)
(0.214776 0 -0.0293148)
(0.217013 0 -0.0273353)
(0.216787 0 -0.0277148)
(0.216211 0 -0.0280275)
(0.215279 0 -0.028261)
(0.213989 0 -0.0284067)
(0.212336 0 -0.0284587)
(0.210316 0 -0.0284128)
(0.207927 0 -0.0282665)
(0.214055 0 -0.0265831)
(0.213854 0 -0.0269194)
(0.213331 0 -0.027197)
(0.212475 0 -0.0274051)
(0.211278 0 -0.0275358)
(0.209734 0 -0.0275832)
(0.207833 0 -0.0275427)
(0.205569 0 -0.027411)
(0.202929 0 -0.0271854)
(0.211054 0 -0.0257977)
(0.210867 0 -0.0260961)
(0.210379 0 -0.0263419)
(0.209579 0 -0.026526)
(0.208455 0 -0.0266412)
(0.206998 0 -0.0266818)
(0.205195 0 -0.0266429)
(0.203036 0 -0.026521)
(0.200505 0 -0.0263127)
(0.208019 0 -0.0249716)
(0.207834 0 -0.0252362)
(0.207368 0 -0.0254533)
(0.206608 0 -0.025615)
(0.20554 0 -0.0257148)
(0.204151 0 -0.0257472)
(0.202428 0 -0.0257077)
(0.200356 0 -0.0255922)
(0.197919 0 -0.025397)
(0.204958 0 -0.0240971)
(0.204768 0 -0.0243316)
(0.204313 0 -0.0245225)
(0.203579 0 -0.0246633)
(0.202552 0 -0.0247481)
(0.201217 0 -0.0247718)
(0.199558 0 -0.02473)
(0.197559 0 -0.0246186)
(0.1952 0 -0.0244337)
(0.20188 0 -0.0231655)
(0.20168 0 -0.0233731)
(0.201227 0 -0.0235403)
(0.20051 0 -0.0236617)
(0.199512 0 -0.0237323)
(0.198218 0 -0.0237473)
(0.196609 0 -0.0237023)
(0.194669 0 -0.0235934)
(0.192377 0 -0.0234167)
(0.198799 0 -0.0221678)
(0.198582 0 -0.0223509)
(0.198127 0 -0.0224968)
(0.197419 0 -0.0226007)
(0.196441 0 -0.0226581)
(0.195176 0 -0.0226645)
(0.193607 0 -0.0226161)
(0.191715 0 -0.0225089)
(0.189478 0 -0.022339)
(0.195732 0 -0.021095)
(0.195496 0 -0.0212555)
(0.195033 0 -0.0213821)
(0.194327 0 -0.0214701)
(0.193362 0 -0.0215153)
(0.192119 0 -0.0215139)
(0.19058 0 -0.021462)
(0.188726 0 -0.0213562)
(0.186534 0 -0.0211924)
(0.192699 0 -0.0199358)
(0.192443 0 -0.0200763)
(0.191969 0 -0.0201852)
(0.191261 0 -0.0202587)
(0.190301 0 -0.020293)
(0.189072 0 -0.0202845)
(0.187556 0 -0.0202298)
(0.185732 0 -0.0201254)
(0.183576 0 -0.0199677)
(0.189724 0 -0.0186781)
(0.189448 0 -0.0188006)
(0.188961 0 -0.0188937)
(0.188247 0 -0.0189543)
(0.187289 0 -0.018979)
(0.186069 0 -0.0189645)
(0.184568 0 -0.0189076)
(0.182767 0 -0.0188053)
(0.180641 0 -0.018654)
(0.186839 0 -0.0173092)
(0.186543 0 -0.0174151)
(0.186041 0 -0.0174941)
(0.185318 0 -0.0175432)
(0.184358 0 -0.0175596)
(0.183142 0 -0.0175403)
(0.181652 0 -0.0174823)
(0.179868 0 -0.017383)
(0.177765 0 -0.0172389)
(0.184079 0 -0.015814)
(0.183762 0 -0.0159047)
(0.183245 0 -0.0159709)
(0.182512 0 -0.01601)
(0.181547 0 -0.0160194)
(0.180332 0 -0.0159965)
(0.178848 0 -0.0159388)
(0.177076 0 -0.0158436)
(0.174991 0 -0.015708)
(0.181485 0 -0.0141753)
(0.181149 0 -0.0142519)
(0.180616 0 -0.0143064)
(0.179871 0 -0.0143368)
(0.178899 0 -0.0143406)
(0.177682 0 -0.0143156)
(0.176202 0 -0.0142595)
(0.174439 0 -0.0141702)
(0.172367 0 -0.0140448)
(0.179105 0 -0.0123733)
(0.178749 0 -0.0124364)
(0.178201 0 -0.0124803)
(0.177444 0 -0.012503)
(0.176465 0 -0.0125026)
(0.175244 0 -0.012477)
(0.173765 0 -0.0124244)
(0.172007 0 -0.0123427)
(0.169945 0 -0.0122298)
(0.176992 0 -0.010384)
(0.176619 0 -0.0104343)
(0.176056 0 -0.0104684)
(0.175288 0 -0.0104846)
(0.1743 0 -0.0104813)
(0.173075 0 -0.0104568)
(0.171595 0 -0.0104096)
(0.16984 0 -0.010338)
(0.167785 0 -0.01024)
(0.175208 0 -0.00817938)
(0.17482 0 -0.00821731)
(0.174244 0 -0.00824232)
(0.173466 0 -0.0082531)
(0.172471 0 -0.00824836)
(0.171241 0 -0.00822683)
(0.169759 0 -0.00818724)
(0.168005 0 -0.00812836)
(0.165955 0 -0.00804862)
(0.173825 0 -0.00572621)
(0.173425 0 -0.00575181)
(0.17284 0 -0.00576826)
(0.172054 0 -0.00577462)
(0.171052 0 -0.00576998)
(0.169818 0 -0.00575345)
(0.168333 0 -0.00572414)
(0.16658 0 -0.0056812)
(0.164532 0 -0.00562354)
(0.172926 0 -0.00298501)
(0.172519 0 -0.00299802)
(0.171927 0 -0.0030062)
(0.171135 0 -0.00300906)
(0.170129 0 -0.0030061)
(0.168892 0 -0.00299688)
(0.167405 0 -0.00298091)
(0.165651 0 -0.00295777)
(0.163605 0 -0.00292689)
(0.172608 0 0)
(0.172199 0 0)
(0.171604 0 0)
(0.170811 0 0)
(0.169803 0 0)
(0.168564 0 0)
(0.167077 0 0)
(0.165323 0 0)
(0.163277 0 0)
)
;

boundaryField
{
    inlet
    {
        type            fixedValue;
        value           nonuniform 0();
    }
    outlet
    {
        type            fixedValue;
        value           nonuniform 0();
    }
    flap
    {
        type            fixedValue;
        value           nonuniform 0();
    }
    upperWall
    {
        type            slip;
    }
    lowerWall
    {
        type            slip;
    }
    frontAndBack
    {
        type            empty;
    }
    procBoundary1to0
    {
        type            processor;
    }
    procBoundary1to2
    {
        type            processor;
    }
    procBoundary1to3
    {
        type            processor;
    }
    procBoundary1to4
    {
        type            processor;
    }
}


// ************************************************************************* //
