/*--------------------------------*- C++ -*----------------------------------*\
| =========                 |                                                 |
| \\      /  F ield         | OpenFOAM: The Open Source CFD Toolbox           |
|  \\    /   O peration     | Version:  dev                                   |
|   \\  /    A nd           | Web:      www.OpenFOAM.org                      |
|    \\/     M anipulation  |                                                 |
\*---------------------------------------------------------------------------*/
FoamFile
{
    version     2.0;
    format      ascii;
    class       surfaceScalarField;
    location    "1.74";
    object      meshPhi;
}
// * * * * * * * * * * * * * * * * * * * * * * * * * * * * * * * * * * * * * //

dimensions      [0 3 -1 0 0 0 0];

internalField   nonuniform List<scalar> 
879
(
1.44662e-05
-4.63908e-06
-1.31298e-05
1.47605e-05
-4.91869e-06
2.81452e-05
-1.39166e-05
-2.15942e-05
1.50962e-05
-5.19258e-06
2.87789e-05
-1.46981e-05
4.10588e-05
-2.28122e-05
-2.98627e-05
1.54462e-05
-5.4581e-06
2.94666e-05
-1.5456e-05
4.20477e-05
-2.40051e-05
5.36814e-05
-3.14453e-05
-3.80865e-05
1.58113e-05
-5.71331e-06
3.0182e-05
-1.61859e-05
4.31058e-05
-2.51564e-05
5.50609e-05
-3.29834e-05
6.62884e-05
-3.99965e-05
-4.63056e-05
1.61923e-05
-5.95607e-06
3.09278e-05
-1.68812e-05
4.42046e-05
-2.62562e-05
5.65193e-05
-3.44546e-05
6.81053e-05
-4.18196e-05
7.8942e-05
-4.84872e-05
-5.44098e-05
1.65884e-05
-6.18192e-06
3.1702e-05
-1.75294e-05
4.53428e-05
-2.72836e-05
5.80211e-05
-3.58306e-05
6.99895e-05
-4.35294e-05
8.12425e-05
-5.05289e-05
9.15563e-05
-5.68182e-05
0.000100515
-6.22542e-05
-6.65612e-05
1.69978e-05
-6.38656e-06
3.2502e-05
-1.81184e-05
4.65169e-05
-2.82214e-05
5.95685e-05
-3.70944e-05
7.19251e-05
-4.51091e-05
8.36022e-05
-5.24281e-05
9.44116e-05
-5.90513e-05
0.000103992
-6.48517e-05
0.000111831
-6.96606e-05
-7.32191e-05
1.74209e-05
-6.56783e-06
3.33309e-05
-1.86434e-05
4.7733e-05
-2.90629e-05
6.11666e-05
-3.8233e-05
7.39139e-05
-4.65343e-05
8.60113e-05
-5.41412e-05
9.72975e-05
-6.10735e-05
0.000107448
-6.72341e-05
0.000116074
-7.24569e-05
0.00012267
-7.65687e-05
0.000126683
-7.93445e-05
-8.05371e-05
1.78602e-05
-6.72304e-06
3.41924e-05
-1.9096e-05
4.89945e-05
-2.97924e-05
6.28131e-05
-3.92201e-05
7.59485e-05
-4.77708e-05
8.84647e-05
-5.56367e-05
0.000100229
-6.28544e-05
0.000110959
-6.93493e-05
0.000120293
-7.49828e-05
0.000127869
-7.9587e-05
0.000133248
-8.29634e-05
0.000136143
-8.50122e-05
0.000136339
-8.57013e-05
-8.49876e-05
1.83157e-05
-6.84743e-06
3.50839e-05
-1.94609e-05
5.0296e-05
-3.03861e-05
6.45086e-05
-4.00335e-05
7.80372e-05
-4.88006e-05
9.09699e-05
-5.68909e-05
0.000103205
-6.43578e-05
0.000114505
-7.11497e-05
0.000124564
-7.71602e-05
0.000133041
-8.22411e-05
0.000139578
-8.62296e-05
0.000144033
-8.90303e-05
0.000146265
-9.06069e-05
0.00014634
-9.10626e-05
-9.0487e-05
1.8787e-05
-6.93765e-06
3.60078e-05
-1.97313e-05
5.1645e-05
-3.08361e-05
6.62617e-05
-4.06592e-05
8.0185e-05
-4.95991e-05
9.35264e-05
-5.78685e-05
0.000106224
-6.55431e-05
0.000118085
-7.25936e-05
0.000128852
-7.89385e-05
0.000138229
-8.44558e-05
0.000145928
-8.90106e-05
0.000151787
-9.25193e-05
0.000155721
-9.49559e-05
0.000157915
-9.63611e-05
0.00015844
-9.68922e-05
0.000157238
-9.6672e-05
-9.57693e-05
1.92759e-05
-6.99094e-06
3.69683e-05
-1.98986e-05
5.3046e-05
-3.11269e-05
6.80729e-05
-4.10724e-05
8.23931e-05
-5.01374e-05
9.61428e-05
-5.85434e-05
0.000109294
-6.63798e-05
0.000121699
-7.364e-05
0.000133147
-8.02656e-05
0.000143396
-8.61637e-05
0.000152208
-9.12225e-05
0.000159433
-9.53711e-05
0.000165024
-9.85893e-05
0.000169055
-0.0001009
0.000171759
-0.000102408
0.000173255
-0.000103229
0.000173876
-0.000103549
0.000173951
-0.000103594
-0.000103413
1.9782e-05
-7.00265e-06
3.79629e-05
-1.99486e-05
5.44986e-05
-3.12394e-05
6.99492e-05
-4.12562e-05
8.46718e-05
-5.03961e-05
9.88265e-05
-5.88875e-05
0.00011242
-6.68339e-05
0.000125347
-7.42491e-05
0.000137445
-8.10963e-05
0.000148521
-8.73072e-05
0.000158377
-9.27906e-05
0.000166895
-9.74935e-05
0.000174038
-0.000101396
0.000179851
-0.000104505
0.000184502
-0.000106903
0.000188169
-0.000108699
0.00019125
-0.000110022
0.000194013
-0.000111025
0.00019662
-0.000111869
0.000199054
-0.000112603
-0.000112661
2.03074e-05
-6.97233e-06
3.89976e-05
-1.98794e-05
5.60095e-05
-3.11648e-05
7.18967e-05
-4.11925e-05
8.70278e-05
-5.03515e-05
0.000101585
-5.88732e-05
0.000115609
-6.68732e-05
0.000129034
-7.43829e-05
0.000141744
-8.13857e-05
0.00015359
-8.78352e-05
0.00016441
-9.36556e-05
0.000174117
-9.88102e-05
0.000182677
-0.00010328
0.000190119
-0.000107058
0.000196579
-0.000110213
0.000202238
-0.000112827
0.000207365
-0.000115002
0.000212235
-0.000116882
0.000217201
-0.00011863
0.000222031
-0.000120174
2.08554e-05
-6.89722e-06
4.00766e-05
-1.96823e-05
5.75829e-05
-3.08894e-05
7.39201e-05
-4.0863e-05
8.94681e-05
-4.99813e-05
0.00010443
-5.84783e-05
0.000118872
-6.64716e-05
0.000132765
-7.40066e-05
0.000146044
-8.10942e-05
0.000158596
-8.77015e-05
0.000170287
-9.3765e-05
0.000181055
-9.92569e-05
0.000190866
-0.000104156
0.00019974
-0.000108456
0.000207784
-0.0001122
0.000215158
-0.000115453
0.000222086
-0.000118306
0.000228842
-0.00012088
0.00023574
-0.000123315
-0.000125395
2.14264e-05
-6.77423e-06
4.12007e-05
-1.93485e-05
5.92216e-05
-3.03999e-05
7.60287e-05
-4.02538e-05
9.2002e-05
-4.92674e-05
0.000107367
-5.76731e-05
0.000122216
-6.55992e-05
0.000136554
-7.30974e-05
0.000150354
-8.01905e-05
0.000163537
-8.68648e-05
0.000175997
-9.30715e-05
0.000187674
-9.87763e-05
0.000198541
-0.000103959
0.000208615
-0.000108618
0.000217986
-0.000112783
0.000226789
-0.000116504
0.00023521
-0.000119851
0.000243471
-0.000122909
0.000251806
-0.000125763
-0.00012819
2.20193e-05
-6.60017e-06
4.23741e-05
-1.88732e-05
6.0931e-05
-2.96877e-05
7.82219e-05
-3.9344e-05
9.46328e-05
-4.81869e-05
0.000110401
-5.64368e-05
0.000125652
-6.42292e-05
0.000140419
-7.16272e-05
0.000154688
-7.86483e-05
0.000168413
-8.52911e-05
0.000181514
-9.1525e-05
0.000193932
-9.73139e-05
0.000205652
-0.000102643
0.000216699
-0.000107514
0.000227143
-0.000111946
0.000237091
-0.00011597
0.000246682
-0.000119635
0.00025608
-0.000122999
0.000265428
-0.000126116
-0.000128801
2.26356e-05
-6.37428e-06
4.35943e-05
-1.82462e-05
6.27114e-05
-2.87391e-05
8.05037e-05
-3.81209e-05
9.73678e-05
-4.67198e-05
0.000113553
-5.4751e-05
0.000129198
-6.234e-05
0.000144361
-6.95572e-05
0.000159038
-7.64247e-05
0.000173203
-8.29407e-05
0.000186807
-8.90894e-05
0.000199809
-9.48485e-05
0.000212204
-0.000100205
0.000224013
-0.000105155
0.000235286
-0.000109707
0.000246103
-0.000113879
0.000256566
-0.000117704
0.000266789
-0.000121218
0.000276871
-0.000124457
-0.000127284
2.32795e-05
-6.09694e-06
4.48615e-05
-1.74652e-05
6.4566e-05
-2.75436e-05
8.28889e-05
-3.65744e-05
0.000100221
-4.48524e-05
0.000116825
-5.25868e-05
0.000132845
-5.98967e-05
0.000148353
-6.68491e-05
0.00016337
-7.34765e-05
0.000177887
-7.97821e-05
0.000191883
-8.57573e-05
0.000205338
-9.1388e-05
0.000218245
-9.66598e-05
0.000230621
-0.000101565
0.000242499
-0.000106106
0.000253935
-0.000110291
0.000265001
-0.000114138
0.000275775
-0.000117668
0.000286327
-0.000120904
-0.000123756
2.3951e-05
-5.76314e-06
4.61876e-05
-1.65262e-05
6.65086e-05
-2.60963e-05
8.53811e-05
-3.46853e-05
0.000103183
-4.25586e-05
0.000120189
-4.99114e-05
0.000136553
-5.68623e-05
0.000152366
-6.34765e-05
0.00016767
-6.97882e-05
0.000182476
-7.58074e-05
0.00019678
-8.15279e-05
0.000210571
-8.69379e-05
0.000223848
-9.20245e-05
0.000236618
-9.6778e-05
0.000248904
-0.000101194
0.000260744
-0.000105275
0.000272181
-0.000109028
0.00028327
-0.000112464
0.000294057
-0.000115595
-0.000118368
2.46589e-05
-5.37555e-06
4.75819e-05
-1.54267e-05
6.85277e-05
-2.43804e-05
8.79454e-05
-3.24261e-05
0.000106212
-3.98079e-05
0.000123605
-4.67015e-05
0.000140297
-5.32187e-05
0.000156393
-5.94245e-05
0.000171952
-6.53512e-05
0.000186998
-7.10097e-05
0.00020154
-7.63972e-05
0.000215574
-8.15037e-05
0.000229101
-8.63171e-05
0.000242125
-9.08263e-05
0.000254659
-9.50234e-05
0.000266723
-9.89044e-05
0.000278345
-0.000102469
0.000289556
-0.000105722
0.000300387
-0.000108667
-0.00011128
2.53994e-05
-4.92903e-06
4.90172e-05
-1.4151e-05
7.05792e-05
-2.23776e-05
9.0537e-05
-2.9782e-05
0.000109269
-3.65852e-05
0.000127053
-4.2942e-05
0.000144072
-4.8953e-05
0.000160443
-5.46783e-05
0.000176237
-6.01486e-05
0.00019149
-6.53754e-05
0.000206217
-7.03574e-05
0.000220424
-7.50859e-05
0.000234112
-7.95492e-05
0.000247282
-8.37356e-05
0.00025994
-8.76347e-05
0.000272096
-9.12387e-05
0.000283762
-9.45428e-05
0.000294954
-9.75446e-05
0.000305688
-0.000100245
-0.00010264
2.614e-05
-4.41554e-06
5.04481e-05
-1.26856e-05
7.26286e-05
-2.00793e-05
9.31344e-05
-2.67471e-05
0.000112342
-3.2882e-05
0.000130528
-3.86189e-05
0.000147881
-4.40462e-05
0.000164529
-4.92171e-05
0.000180551
-5.41599e-05
0.000195991
-5.88854e-05
0.000210873
-6.33929e-05
0.000225208
-6.76748e-05
0.000238998
-7.17198e-05
0.000252243
-7.55158e-05
0.000264943
-7.90513e-05
0.000277102
-8.23163e-05
0.00028872
-8.53029e-05
0.000299803
-8.80053e-05
0.000310358
-9.04204e-05
-9.25619e-05
2.68605e-05
-3.83657e-06
5.18554e-05
-1.10317e-05
7.46643e-05
-1.74821e-05
9.5731e-05
-2.33124e-05
0.000115428
-2.86854e-05
0.000134031
-3.37153e-05
0.000151733
-3.84772e-05
0.000168668
-4.30169e-05
0.000184923
-4.73589e-05
0.00020055
-5.15126e-05
0.000215578
-5.54775e-05
0.000230022
-5.92467e-05
0.000243887
-6.28096e-05
0.000257172
-6.61543e-05
0.000269874
-6.92691e-05
0.000281991
-7.21431e-05
0.000293518
-7.47667e-05
0.000304453
-7.71326e-05
0.000314796
-7.92357e-05
-8.10987e-05
2.75628e-05
-3.19296e-06
5.32405e-05
-9.18996e-06
7.66851e-05
-1.45828e-05
9.83255e-05
-1.94698e-05
0.000118528
-2.39823e-05
0.000137567
-2.82129e-05
0.00015564
-3.22227e-05
0.000172883
-3.60491e-05
0.000189391
-3.97122e-05
0.000205222
-4.32197e-05
0.000220409
-4.65709e-05
0.000234972
-4.97596e-05
0.000248916
-5.27761e-05
0.000262241
-5.56096e-05
0.000274944
-5.82488e-05
0.000287018
-6.06829e-05
0.000298456
-6.29024e-05
0.000309252
-6.48992e-05
0.000319401
-6.66678e-05
-6.82337e-05
2.82527e-05
-2.48534e-06
5.46094e-05
-7.16056e-06
7.86958e-05
-1.13786e-05
0.000100923
-1.52122e-05
0.00012165
-1.87601e-05
0.000141149
-2.20927e-05
0.000159621
-2.52564e-05
0.000177205
-2.82798e-05
0.000194001
-3.11782e-05
0.000210071
-3.39574e-05
0.000225454
-3.66164e-05
0.00024017
-3.91498e-05
0.000254229
-4.15496e-05
0.000267631
-4.38061e-05
0.000280371
-4.59097e-05
0.000292443
-4.78508e-05
0.000303837
-4.96206e-05
0.000314544
-5.12117e-05
0.000324561
-5.26186e-05
-5.38649e-05
2.89373e-05
-1.71427e-06
5.59726e-05
-4.94407e-06
8.07075e-05
-7.86782e-06
0.000103535
-1.05332e-05
0.000124808
-1.30063e-05
0.000144798
-1.53345e-05
0.000163705
-1.75493e-05
0.000181674
-1.967e-05
0.000198808
-2.17069e-05
0.000215172
-2.36637e-05
0.00023081
-2.55395e-05
0.000245744
-2.733e-05
0.000259985
-2.90292e-05
0.000273534
-3.06298e-05
0.000286387
-3.21244e-05
0.000298535
-3.35056e-05
0.000309971
-3.47664e-05
0.000320683
-3.59011e-05
0.000330666
-3.6905e-05
-3.77957e-05
2.96277e-05
-8.80566e-07
5.73474e-05
-2.54188e-06
8.274e-05
-4.05014e-06
0.000106184
-5.42881e-06
0.000128028
-6.71101e-06
0.000148542
-7.92069e-06
0.00016793
-9.07379e-06
0.00018634
-1.01801e-05
0.000203877
-1.12448e-05
0.000220612
-1.22697e-05
0.000236587
-1.32541e-05
0.00025183
-1.41957e-05
0.000266351
-1.5091e-05
0.000280153
-1.59361e-05
0.00029323
-1.67268e-05
0.000305575
-1.74589e-05
0.000317178
-1.81286e-05
0.000328027
-1.87324e-05
0.000338117
-1.9268e-05
-1.9744e-05
3.03558e-05
5.87625e-05
8.4806e-05
0.000108861
0.000131275
0.000152322
0.00017221
0.000191089
0.000209067
0.000226217
0.000242586
0.0002582
0.000273072
0.000287203
0.000300588
0.00031322
0.000325086
0.000336175
0.00034648
)
;

boundaryField
{
    inlet
    {
        type            calculated;
        value           uniform 0;
    }
    outlet
    {
        type            calculated;
        value           nonuniform 0();
    }
    flap
    {
        type            calculated;
        value           nonuniform 0();
    }
    upperWall
    {
        type            calculated;
        value           nonuniform List<scalar> 
20
(
0
0
0
0
0
0
0
0
0
0
-1.06892e-14
2.92433e-20
0
0
9.47791e-15
0
0
-8.67611e-15
0
0
)
;
    }
    lowerWall
    {
        type            calculated;
        value           nonuniform 0();
    }
    frontAndBack
    {
        type            empty;
        value           nonuniform 0();
    }
    procBoundary0to1
    {
        type            processor;
        value           nonuniform List<scalar> 
18
(
0.000199975
0.000225121
-0.000120904
0.000242173
0.000259437
0.000274065
0.000286313
0.000296316
0.000304337
0.000310742
0.000315961
0.000320449
0.000324664
0.000329054
0.000334055
0.000340101
0.000347631
0.000356186
)
;
    }
    procBoundary0to3
    {
        type            processor;
        value           nonuniform List<scalar> 
34
(
4.36934e-06
1.23867e-05
2.76544e-05
2.04031e-05
4.02468e-05
2.82823e-05
5.24979e-05
3.61397e-05
6.46486e-05
4.39946e-05
7.67554e-05
5.17791e-05
8.87319e-05
5.93708e-05
6.29349e-05
0.000107306
6.92475e-05
0.0001171
7.5141e-05
7.50544e-05
0.000127559
7.99881e-05
7.7561e-05
0.000133593
8.27092e-05
0.000143928
8.87871e-05
8.60353e-05
0.000154605
9.43586e-05
9.25716e-05
0.000173528
0.000102958
0.000101909
)
;
    }
}


// ************************************************************************* //
