/*--------------------------------*- C++ -*----------------------------------*\
| =========                 |                                                 |
| \\      /  F ield         | OpenFOAM: The Open Source CFD Toolbox           |
|  \\    /   O peration     | Version:  dev                                   |
|   \\  /    A nd           | Web:      www.OpenFOAM.org                      |
|    \\/     M anipulation  |                                                 |
\*---------------------------------------------------------------------------*/
FoamFile
{
    version     2.0;
    format      ascii;
    class       volVectorField;
    location    "1.53";
    object      Force;
}
// * * * * * * * * * * * * * * * * * * * * * * * * * * * * * * * * * * * * * //

dimensions      [1 1 -2 0 0 0 0];

internalField   uniform (0 0 0);

boundaryField
{
    inlet
    {
        type            calculated;
        value           nonuniform 0();
    }
    outlet
    {
        type            calculated;
        value           nonuniform 0();
    }
    flap
    {
        type            calculated;
        value           nonuniform List<vector> 
33
(
(1.81348 2.19955e-18 -0.18071)
(1.73165 -3.97911e-21 -0.451203)
(1.51963 2.14352e-17 -0.663305)
(1.20219 2.14428e-17 -0.747842)
(0.861475 -1.88079e-37 -0.707799)
(0.563982 -4.07401e-18 -0.584657)
(0.342977 -8.79447e-22 -0.43027)
(0.197522 -2.21726e-17 -0.286171)
(0.107327 2.80947e-21 -0.171163)
(0.0537624 1.78154e-17 -0.0886144)
(0.0223358 8.0073e-22 -0.0319034)
(0.00139033 -2.02096e-20 0.0110421)
(-0.0174897 1.17549e-38 0.0526697)
(-0.0390978 3.59645e-21 0.10145)
(-0.0651682 8.35653e-18 0.161101)
(0.762885 5.51796e-20 0.331431)
(0.558006 1.57947e-17 0.239282)
(0.303895 1.04976e-17 0.131513)
(0.043848 -3.45213e-20 -0.00423202)
(0.0436157 3.58623e-23 -0.0115219)
(0.042734 9.40862e-18 -0.0189301)
(0.0414867 1.25822e-22 -0.0261179)
(0.0399607 -1.26093e-22 -0.0333513)
(0.038455 9.41441e-18 -0.0407246)
(0.0374965 9.80864e-18 -0.0484035)
(0.0373593 1.46937e-39 -0.0566272)
(0.038005 0 -0.0656761)
(0.0392774 -5.87747e-39 -0.0756865)
(0.0413492 -2.5936e-19 -0.086644)
(0.0449723 -3.27565e-21 -0.0992832)
(0.0508315 1.7211e-17 -0.115071)
(0.0577343 3.85365e-19 -0.131402)
(0.0552105 6.78061e-21 -0.115197)
)
;
    }
    upperWall
    {
        type            calculated;
        value           nonuniform 0();
    }
    lowerWall
    {
        type            calculated;
        value           uniform (0 0 0);
    }
    frontAndBack
    {
        type            empty;
    }
    procBoundary4to1
    {
        type            processor;
        value           uniform (0 0 0);
    }
    procBoundary4to2
    {
        type            processor;
        value           uniform (0 0 0);
    }
    procBoundary4to3
    {
        type            processor;
        value           uniform (0 0 0);
    }
    procBoundary4to5
    {
        type            processor;
        value           uniform (0 0 0);
    }
}


// ************************************************************************* //
