/*--------------------------------*- C++ -*----------------------------------*\
| =========                 |                                                 |
| \\      /  F ield         | OpenFOAM: The Open Source CFD Toolbox           |
|  \\    /   O peration     | Version:  dev                                   |
|   \\  /    A nd           | Web:      www.OpenFOAM.org                      |
|    \\/     M anipulation  |                                                 |
\*---------------------------------------------------------------------------*/
FoamFile
{
    version     2.0;
    format      ascii;
    class       volVectorField;
    location    "1.53";
    object      Force;
}
// * * * * * * * * * * * * * * * * * * * * * * * * * * * * * * * * * * * * * //

dimensions      [1 1 -2 0 0 0 0];

internalField   uniform (0 0 0);

boundaryField
{
    inlet
    {
        type            calculated;
        value           nonuniform 0();
    }
    outlet
    {
        type            calculated;
        value           nonuniform 0();
    }
    flap
    {
        type            calculated;
        value           nonuniform List<vector> 
33
(
(2.67945 2.03894e-17 -0.220573)
(2.61865 2.00255e-17 -0.521353)
(2.48075 5.03129e-22 -0.797508)
(2.27495 -4.58562e-22 -0.99029)
(2.03563 -3.64995e-22 -1.10104)
(1.79455 -1.09974e-17 -1.14464)
(1.57029 -5.12195e-21 -1.14061)
(1.37071 9.22104e-18 -1.10553)
(1.19509 1.74936e-17 -1.04999)
(1.041 7.5735e-18 -0.979815)
(0.905885 6.79993e-18 -0.898538)
(0.784015 -2.17234e-21 -0.806521)
(0.667429 5.21226e-18 -0.701366)
(0.545378 -4.291e-18 -0.57687)
(0.400408 -3.15395e-18 -0.423848)
(0.5502 -1.93236e-17 0.512315)
(0.345249 1.09063e-17 0.320602)
(0.140738 -2.93874e-39 0.132334)
(-0.0768544 1.18457e-23 0.00641716)
(-0.0759124 -5.77178e-24 0.0151669)
(-0.073994 1.23225e-17 0.0239303)
(-0.0713096 1.24672e-17 0.0311426)
(-0.0681538 0 0.0369868)
(-0.0647721 1.34493e-17 0.0414489)
(-0.0613346 5.96192e-23 0.0446736)
(-0.0579145 1.40912e-17 0.0468562)
(-0.0546351 2.83611e-17 0.0481803)
(-0.0515742 -5.87747e-39 0.0487588)
(-0.0487121 1.29581e-22 0.0485921)
(-0.0460463 -1.16677e-24 0.0477123)
(-0.0433363 -3.46051e-19 0.0459895)
(-0.0387642 -3.10253e-19 0.0418492)
(-0.024765 3.03136e-17 0.0262047)
)
;
    }
    upperWall
    {
        type            calculated;
        value           nonuniform 0();
    }
    lowerWall
    {
        type            calculated;
        value           uniform (0 0 0);
    }
    frontAndBack
    {
        type            empty;
    }
    procBoundary4to1
    {
        type            processor;
        value           uniform (0 0 0);
    }
    procBoundary4to2
    {
        type            processor;
        value           uniform (0 0 0);
    }
    procBoundary4to3
    {
        type            processor;
        value           uniform (0 0 0);
    }
    procBoundary4to5
    {
        type            processor;
        value           uniform (0 0 0);
    }
}


// ************************************************************************* //
