/*--------------------------------*- C++ -*----------------------------------*\
| =========                 |                                                 |
| \\      /  F ield         | OpenFOAM: The Open Source CFD Toolbox           |
|  \\    /   O peration     | Version:  dev                                   |
|   \\  /    A nd           | Web:      www.OpenFOAM.org                      |
|    \\/     M anipulation  |                                                 |
\*---------------------------------------------------------------------------*/
FoamFile
{
    version     2.0;
    format      ascii;
    class       surfaceScalarField;
    location    "0.45";
    object      meshPhi;
}
// * * * * * * * * * * * * * * * * * * * * * * * * * * * * * * * * * * * * * //

dimensions      [0 3 -1 0 0 0 0];

internalField   nonuniform List<scalar> 
882
(
-6.42135e-07
4.77928e-06
-1.86331e-06
5.15371e-06
-1.64174e-06
-1.50072e-06
9.09414e-06
-3.25055e-06
9.11683e-06
-2.88016e-06
9.18456e-06
-2.59787e-06
9.27306e-06
-2.38264e-06
-2.21992e-06
1.42914e-05
-4.80535e-06
1.40139e-05
-4.30097e-06
1.38446e-05
-3.89477e-06
1.37731e-05
-3.57505e-06
1.38073e-05
-3.32675e-06
1.39686e-05
-3.13926e-06
-3.0065e-06
2.04918e-05
-6.52259e-06
1.99514e-05
-5.90295e-06
1.95838e-05
-5.38975e-06
1.93825e-05
-4.9789e-06
1.93559e-05
-4.65602e-06
1.95239e-05
-4.40998e-06
1.99108e-05
-4.23254e-06
2.05428e-05
-4.11752e-06
-4.05096e-06
2.13345e-05
2.78082e-05
-8.38784e-06
2.70439e-05
-7.6724e-06
2.65125e-05
-7.07013e-06
2.62087e-05
-6.58321e-06
2.61371e-05
-6.19742e-06
2.63104e-05
-5.90087e-06
2.67489e-05
-5.68396e-06
2.74713e-05
-5.53878e-06
-5.44753e-06
2.83541e-05
3.63333e-05
-1.03764e-05
3.53844e-05
-9.58361e-06
3.47236e-05
-8.91047e-06
3.4344e-05
-8.36347e-06
3.4245e-05
-7.92756e-06
3.44319e-05
-7.58988e-06
3.49133e-05
-7.33964e-06
3.56959e-05
-7.16752e-06
-7.05255e-06
3.66302e-05
4.61308e-05
-1.24526e-05
4.50379e-05
-1.1597e-05
4.42855e-05
-1.08719e-05
4.38595e-05
-1.0282e-05
4.37526e-05
-9.80981e-06
4.39622e-05
-9.44129e-06
4.44876e-05
-9.16457e-06
4.53259e-05
-8.96931e-06
-8.83157e-06
4.63112e-05
5.72146e-05
-1.45387e-05
5.60334e-05
-1.36531e-05
5.52363e-05
-1.29017e-05
5.47999e-05
-1.22888e-05
5.47097e-05
-1.17955e-05
5.4956e-05
-1.1407e-05
5.55304e-05
-1.11111e-05
5.64227e-05
-1.08966e-05
-1.07372e-05
5.7453e-05
6.95509e-05
-1.65578e-05
6.83635e-05
-1.56855e-05
6.75836e-05
-1.49388e-05
6.71819e-05
-1.4325e-05
6.71395e-05
-1.38265e-05
6.74418e-05
-1.34293e-05
6.80747e-05
-1.31212e-05
6.90224e-05
-1.28914e-05
-1.27114e-05
7.00937e-05
8.30802e-05
-1.84506e-05
8.19968e-05
-1.76297e-05
8.131e-05
-1.69208e-05
8.09965e-05
-1.6328e-05
8.10389e-05
-1.58393e-05
8.14211e-05
-1.54435e-05
8.21262e-05
-1.513e-05
8.31344e-05
-1.48886e-05
-1.46892e-05
8.42453e-05
9.89391e-05
-2.09693e-05
9.77726e-05
-2.01893e-05
9.69025e-05
-1.9444e-05
9.63846e-05
-1.87924e-05
9.62141e-05
-1.82356e-05
9.63804e-05
-1.7768e-05
9.68696e-05
-1.73819e-05
9.76637e-05
-1.70685e-05
9.8741e-05
-1.68186e-05
-1.66013e-05
9.98931e-05
0.00011453
-2.24676e-05
0.000113658
-2.17649e-05
0.00011306
-2.10941e-05
0.000112767
-2.05008e-05
0.000112786
-1.99859e-05
0.000113113
-1.9546e-05
0.000113737
-1.91751e-05
0.000114639
-1.88659e-05
0.000115796
-1.86102e-05
-1.83767e-05
0.000116994
0.00013127
-2.37478e-05
0.000130724
-2.3122e-05
0.000130424
-2.25208e-05
0.000130394
-2.1985e-05
0.00013064
-2.15142e-05
0.000131161
-2.11051e-05
0.000131944
-2.07528e-05
0.000132973
-2.04508e-05
0.000134224
-2.01918e-05
-1.99444e-05
0.000135474
0.000149058
-2.47398e-05
0.000148869
-2.41911e-05
0.0001489
-2.36578e-05
0.000149166
-2.31789e-05
0.000149672
-2.27528e-05
0.000150415
-2.23763e-05
0.000151383
-2.20446e-05
0.000152558
-2.17522e-05
0.000153916
-2.14924e-05
-2.1234e-05
0.000155227
0.000167747
-2.5377e-05
0.000167956
-2.49044e-05
0.000168352
-2.44378e-05
0.000168948
-2.40148e-05
0.000169744
-2.36333e-05
0.000170736
-2.32901e-05
0.000171911
-2.29807e-05
0.00017325
-2.27e-05
0.00017473
-2.24422e-05
-2.21765e-05
0.000176112
0.000187169
-2.55941e-05
0.000187815
-2.51951e-05
0.000188611
-2.47932e-05
0.000189565
-2.44247e-05
0.000190678
-2.40874e-05
0.000191943
-2.37779e-05
0.000193346
-2.34922e-05
0.000194868
-2.32256e-05
0.000196484
-2.29729e-05
-2.27044e-05
0.000197947
0.000207125
-2.53274e-05
0.000208242
-2.49982e-05
0.000209466
-2.46584e-05
0.000210807
-2.43425e-05
0.00021226
-2.40484e-05
0.000213819
-2.37728e-05
0.000215468
-2.35122e-05
0.000217187
-2.32623e-05
0.000218952
-2.30186e-05
-2.27525e-05
0.000220506
0.000227383
-2.45159e-05
0.000228995
-2.42515e-05
0.000230671
-2.39701e-05
0.000232417
-2.37046e-05
0.000234229
-2.34525e-05
0.000236098
-2.32111e-05
0.000238007
-2.29771e-05
0.000239938
-2.27467e-05
0.000241863
-2.25161e-05
-2.22585e-05
0.000243517
0.000247668
-2.31022e-05
0.000249791
-2.28967e-05
0.000251932
-2.26698e-05
0.000254095
-2.24517e-05
0.000256277
-2.22404e-05
0.000258466
-2.20333e-05
0.000260647
-2.18275e-05
0.000262797
-2.16198e-05
0.000264892
-2.14069e-05
-2.11643e-05
0.000266653
0.000267661
-2.10351e-05
0.000270296
-2.08819e-05
0.000272904
-2.07048e-05
0.000275488
-2.05311e-05
0.000278042
-2.0359e-05
0.000280555
-2.01862e-05
0.00028301
-2.00103e-05
0.000285385
-1.98286e-05
0.000287654
-1.96384e-05
-1.94179e-05
0.000289527
0.000286989
-1.82714e-05
0.000290123
-1.81633e-05
0.000293186
-1.80311e-05
0.000296181
-1.78986e-05
0.0002991
-1.7764e-05
0.000301931
-1.76256e-05
0.000304656
-1.74813e-05
0.000307253
-1.73291e-05
0.000309697
-1.71667e-05
-1.69755e-05
0.000311685
0.000305217
-1.4779e-05
0.000308819
-1.47085e-05
0.000312311
-1.46161e-05
0.000315692
-1.45213e-05
0.000318955
-1.44225e-05
0.000322087
-1.43185e-05
0.00032507
-1.42077e-05
0.00032788
-1.40884e-05
0.000330493
-1.39591e-05
-1.38049e-05
0.000332593
0.000321843
-1.05398e-05
0.000325861
-1.04995e-05
0.000329733
-1.0442e-05
0.000333459
-1.03814e-05
0.00033703
-1.03169e-05
0.000340433
-1.02473e-05
0.000343649
-1.01717e-05
0.000346654
-1.0089e-05
0.000349423
-9.99802e-06
-9.88827e-06
0.000351629
0.000336293
-5.55394e-06
0.00034064
-5.53669e-06
0.000344818
-5.50943e-06
0.000348825
-5.48016e-06
0.000352651
-5.44834e-06
0.000356279
-5.41344e-06
0.000359691
-5.37489e-06
0.000362861
-5.33217e-06
0.000365764
-5.28473e-06
-5.22694e-06
0.000368062
0.000347965
0.000352531
0.00035692
0.000361125
0.000365132
0.000368925
0.000372482
0.000375778
0.000378784
0.000381154
-2.01886e-06
2.90877e-05
-2.70778e-06
2.96499e-05
-2.73319e-06
-2.76576e-06
3.03341e-05
3.74008e-05
-3.50014e-06
3.79929e-05
-3.52656e-06
-3.55325e-06
3.86817e-05
4.71072e-05
-4.37892e-06
4.76915e-05
-4.40668e-06
-4.42702e-06
4.83296e-05
5.82671e-05
-5.32041e-06
5.88317e-05
-5.34967e-06
-5.36319e-06
5.9396e-05
7.09187e-05
-6.29581e-06
7.14517e-05
-6.32665e-06
-6.33337e-06
7.19183e-05
8.50761e-05
-7.27281e-06
8.5568e-05
-7.30528e-06
-7.30563e-06
8.59177e-05
0.000100727
-8.21713e-06
0.000101171
-8.2512e-06
-8.24591e-06
0.000101389
0.00011783
-9.09367e-06
0.000118222
-9.12927e-06
-9.11921e-06
0.000118298
0.000136315
-9.86733e-06
0.000136654
-9.90429e-06
-9.89042e-06
0.00013658
0.000156076
-1.05034e-05
0.000156362
-1.05415e-05
-1.05247e-05
0.000156137
0.000176974
-1.09679e-05
0.000177209
-1.10067e-05
-1.0988e-05
0.000176832
0.000198827
-1.12276e-05
0.000199014
-1.12667e-05
-1.12467e-05
0.000198489
0.000221411
-1.12503e-05
0.000221555
-1.1289e-05
-1.12685e-05
0.000220886
0.000244453
-1.10052e-05
0.000244559
-1.10429e-05
-1.10226e-05
0.000243752
0.000267624
-1.04637e-05
0.000267698
-1.04994e-05
-1.048e-05
0.000266761
0.000290538
-9.59988e-06
0.000290585
-9.63267e-06
-9.61494e-06
0.000289528
0.000312739
-8.39227e-06
0.000312763
-8.42101e-06
-8.40557e-06
0.000311596
0.000333692
-6.82473e-06
0.000333699
-6.84821e-06
-6.83576e-06
0.000332434
0.000352773
-4.88845e-06
0.000352768
-4.90536e-06
-4.89658e-06
0.000351419
0.000369248
-2.58399e-06
0.000369241
-2.59297e-06
-2.58843e-06
0.000367827
0.000382377
0.000382375
0.00038092
-5.72214e-06
3.98209e-05
-7.30314e-06
4.14778e-05
-7.60847e-06
4.35861e-05
-8.00013e-06
-8.48621e-06
4.93814e-05
-9.05552e-06
5.09465e-05
-9.35843e-06
5.29428e-05
-9.7429e-06
5.53803e-05
-1.02214e-05
5.82358e-05
-1.0801e-05
-1.14798e-05
6.03069e-05
-1.09332e-05
6.16954e-05
-1.12321e-05
6.34871e-05
-1.1606e-05
6.56943e-05
-1.2068e-05
6.8311e-05
-1.26218e-05
7.12996e-05
-1.32726e-05
7.45993e-05
-1.40225e-05
-1.48577e-05
7.26509e-05
-1.28803e-05
7.38148e-05
-1.31751e-05
7.53547e-05
-1.35364e-05
7.72666e-05
-1.3979e-05
7.95436e-05
-1.45058e-05
8.2174e-05
-1.51201e-05
8.5113e-05
-1.58214e-05
8.82752e-05
-1.66075e-05
-1.74179e-05
8.64389e-05
-1.48335e-05
8.73372e-05
-1.51256e-05
8.85813e-05
-1.54744e-05
9.01605e-05
-1.58966e-05
9.2068e-05
-1.63947e-05
9.42845e-05
-1.69717e-05
9.67704e-05
-1.76282e-05
9.94796e-05
-1.83624e-05
-1.9119e-05
0.000101673
-1.67249e-05
0.000102272
-1.70164e-05
0.000103185
-1.7354e-05
0.000104397
-1.77564e-05
0.000105902
-1.82257e-05
0.000107681
-1.87652e-05
0.000109701
-1.93763e-05
0.000111918
-2.0059e-05
-2.0758e-05
0.000118325
-1.84838e-05
0.000118599
-1.87768e-05
0.000119154
-1.91051e-05
0.000119971
-1.94889e-05
0.000121046
-1.99301e-05
0.000122361
-2.04323e-05
0.000123889
-2.09979e-05
0.000125593
-2.16277e-05
-2.22652e-05
0.000136336
-2.00391e-05
0.000136268
-2.0335e-05
0.000136444
-2.06554e-05
0.000136843
-2.10219e-05
0.000137463
-2.14359e-05
0.000138291
-2.19015e-05
0.000139303
-2.24214e-05
0.000140466
-2.29972e-05
-2.3571e-05
0.000155615
-2.13197e-05
0.000155191
-2.16187e-05
0.000154973
-2.19322e-05
0.000154939
-2.2282e-05
0.000155086
-2.26698e-05
0.000155406
-2.30993e-05
0.000155878
-2.35737e-05
0.000156475
-2.40951e-05
-2.46046e-05
0.000176029
-2.2256e-05
0.000175245
-2.25569e-05
0.000174625
-2.28629e-05
0.000174145
-2.31963e-05
0.000173806
-2.3558e-05
0.000173602
-2.3952e-05
0.000173516
-2.43815e-05
0.000173526
-2.48488e-05
-2.52947e-05
0.000197406
-2.27795e-05
0.000196261
-2.30796e-05
0.000195236
-2.33767e-05
0.000194305
-2.36927e-05
0.000193473
-2.40282e-05
0.000192735
-2.43869e-05
0.000192079
-2.47721e-05
0.000191486
-2.51861e-05
-2.55704e-05
0.000219529
-2.28241e-05
0.000218027
-2.31193e-05
0.000216599
-2.34048e-05
0.000215219
-2.37015e-05
0.000213891
-2.40099e-05
0.000212616
-2.43333e-05
0.000211383
-2.46748e-05
0.000210179
-2.50367e-05
-2.53622e-05
0.00024213
-2.23267e-05
0.000240281
-2.26116e-05
0.000238458
-2.28816e-05
0.000236634
-2.31564e-05
0.000234816
-2.34361e-05
0.000233005
-2.37238e-05
0.000231198
-2.40221e-05
0.000229381
-2.43334e-05
-2.46035e-05
0.000264887
-2.12285e-05
0.000262703
-2.14967e-05
0.000260499
-2.17464e-05
0.000258243
-2.19958e-05
0.000255946
-2.22447e-05
0.000253611
-2.24957e-05
0.000251237
-2.27514e-05
0.000248816
-2.30136e-05
-2.32322e-05
0.000287416
-1.94769e-05
0.000284915
-1.9721e-05
0.000282347
-1.99449e-05
0.000279678
-2.01647e-05
0.000276921
-2.03801e-05
0.000274081
-2.05934e-05
0.00027116
-2.08065e-05
0.000268152
-2.10214e-05
-2.11927e-05
0.000309265
-1.70277e-05
0.00030647
-1.72397e-05
0.000303562
-1.74316e-05
0.000300505
-1.76172e-05
0.000297315
-1.77962e-05
0.000293998
-1.79702e-05
0.000290559
-1.81409e-05
0.000286995
-1.831e-05
-1.84384e-05
0.000329904
-1.38481e-05
0.000326841
-1.40195e-05
0.000323624
-1.41729e-05
0.000320214
-1.43194e-05
0.000316627
-1.44585e-05
0.000312874
-1.45916e-05
0.00030896
-1.47199e-05
0.000304885
-1.48446e-05
-1.49349e-05
0.000348715
-9.91997e-06
0.000345417
-1.00422e-05
0.000341929
-1.01504e-05
0.000338209
-1.02527e-05
0.000334275
-1.03485e-05
0.00033014
-1.04389e-05
0.00032581
-1.05246e-05
0.000321288
-1.06064e-05
-1.06628e-05
0.000364981
-5.24413e-06
0.000361488
-5.30852e-06
0.000357774
-5.36506e-06
0.0003538
-5.41803e-06
0.000349582
-5.46722e-06
0.000345136
-5.51303e-06
0.00034047
-5.55585e-06
0.000335589
-5.59593e-06
-5.6226e-06
0.000377968
0.000374325
0.000370445
0.000366285
0.000361865
0.000357198
0.000352297
0.00034717
)
;

boundaryField
{
    inlet
    {
        type            calculated;
        value           nonuniform 0();
    }
    outlet
    {
        type            calculated;
        value           nonuniform 0();
    }
    flap
    {
        type            calculated;
        value           nonuniform 0();
    }
    upperWall
    {
        type            calculated;
        value           uniform 0;
    }
    lowerWall
    {
        type            calculated;
        value           nonuniform 0();
    }
    frontAndBack
    {
        type            empty;
        value           nonuniform 0();
    }
    procBoundary1to0
    {
        type            processor;
        value           nonuniform List<scalar> 
18
(
-7.10416e-05
-8.44648e-05
1.92894e-05
-9.99769e-05
-0.00011534
-0.000131744
-0.000149134
-0.00016737
-0.000186294
-0.000205716
-0.000225413
-0.000245122
-0.000264538
-0.000283303
-0.000301003
-0.000317159
-0.000331223
-0.000342624
)
;
    }
    procBoundary1to2
    {
        type            processor;
        value           nonuniform List<scalar> 
17
(
9.12533e-05
0.000102037
0.000113972
0.000127094
0.000141373
0.000156754
0.000173148
0.000190431
0.000208432
0.000226938
0.000245684
0.000264347
0.00028255
0.000299849
0.000315731
0.000329617
0.000340913
)
;
    }
    procBoundary1to3
    {
        type            processor;
        value           nonuniform List<scalar> 9(-5.68276e-07 -4.50078e-06 -9.18569e-06 -1.47155e-05 -2.12116e-05 -2.87816e-05 -3.75175e-05 -4.74922e-05 -5.86944e-05);
    }
    procBoundary1to4
    {
        type            processor;
        value           nonuniform List<scalar> 
30
(
-3.81339e-07
1.2664e-06
5.95418e-07
6.19682e-07
5.49954e-06
1.40868e-06
1.3438e-06
9.37938e-06
2.09979e-06
2.01539e-06
1.42805e-05
2.92381e-06
2.87919e-06
1.43924e-06
2.19929e-05
2.04235e-06
2.07687e-06
4.3277e-06
3.14721e-05
6.0205e-06
6.40021e-06
6.86614e-06
4.61358e-05
9.06538e-06
9.72827e-06
6.14449e-05
1.22456e-05
1.30787e-05
7.80967e-05
1.57003e-05
)
;
    }
}


// ************************************************************************* //
