/*--------------------------------*- C++ -*----------------------------------*\
| =========                 |                                                 |
| \\      /  F ield         | OpenFOAM: The Open Source CFD Toolbox           |
|  \\    /   O peration     | Version:  dev                                   |
|   \\  /    A nd           | Web:      www.OpenFOAM.org                      |
|    \\/     M anipulation  |                                                 |
\*---------------------------------------------------------------------------*/
FoamFile
{
    version     2.0;
    format      ascii;
    class       volVectorField;
    location    "4.96";
    object      cellDisplacement;
}
// * * * * * * * * * * * * * * * * * * * * * * * * * * * * * * * * * * * * * //

dimensions      [0 1 0 0 0 0 0];

internalField   nonuniform List<vector> 
2790
(
(0.0103454 0 -3.58436e-05)
(0.0295274 0 -0.000102613)
(0.045883 0 -0.000160853)
(0.0596543 0 -0.000211968)
(0.071102 0 -0.000257064)
(0.0804573 0 -0.000296922)
(0.0879209 0 -0.000332302)
(0.0936729 0 -0.000362802)
(0.0978751 0 -0.000388746)
(0.100666 0 -0.000410043)
(0.102165 0 -0.000426405)
(0.102481 0 -0.000437406)
(0.101709 0 -0.000442462)
(0.0999344 0 -0.000440473)
(0.0972338 0 -0.000430518)
(0.0936797 0 -0.000411453)
(0.0893401 0 -0.000381892)
(0.0842814 0 -0.000340229)
(0.0785722 0 -0.000284725)
(0.0722929 0 -0.000214058)
(0.0655131 0 -0.000124967)
(0.0583026 0 -1.52259e-05)
(0.0507634 0 0.000117367)
(0.0430137 0 0.000275649)
(0.0351918 0 0.000462472)
(0.0274735 0 0.000680735)
(0.0200976 0 0.000933246)
(0.0134137 0 0.00122145)
(0.00796332 0 0.00153853)
(0.00485268 0 0.00183768)
(0.0103605 0 -0.000107644)
(0.0295711 0 -0.000308193)
(0.0459538 0 -0.000483164)
(0.0597534 0 -0.000636795)
(0.0712309 0 -0.000772408)
(0.0806195 0 -0.000892283)
(0.0881187 0 -0.000999052)
(0.0939091 0 -0.001091)
(0.0981554 0 -0.00116944)
(0.100996 0 -0.00123405)
(0.102552 0 -0.00128398)
(0.102931 0 -0.00131799)
(0.102232 0 -0.0013345)
(0.100539 0 -0.00132999)
(0.0979309 0 -0.00130187)
(0.0944821 0 -0.0012468)
(0.0902618 0 -0.00116066)
(0.0853373 0 -0.00103868)
(0.0797735 0 -0.000875312)
(0.0736633 0 -0.00066607)
(0.0670921 0 -0.000404871)
(0.0601144 0 -8.32252e-05)
(0.0528331 0 0.000306557)
(0.0453874 0 0.000771275)
(0.0379224 0 0.0013182)
(0.0306227 0 0.00195347)
(0.0237368 0 0.00268069)
(0.0176479 0 0.00349685)
(0.0130011 0 0.00437077)
(0.0109579 0 0.00513666)
(0.0103914 0 -0.00017975)
(0.0296588 0 -0.000514738)
(0.0460952 0 -0.000807115)
(0.0599507 0 -0.00106406)
(0.0714873 0 -0.00129111)
(0.0809425 0 -0.00149174)
(0.0885106 0 -0.0016683)
(0.0943761 0 -0.00182235)
(0.0987103 0 -0.00195445)
(0.10165 0 -0.0020639)
(0.103317 0 -0.00214927)
(0.103823 0 -0.00220859)
(0.103267 0 -0.00224013)
(0.101736 0 -0.00223683)
(0.0993115 0 -0.00219534)
(0.096071 0 -0.00211028)
(0.0920871 0 -0.00197511)
(0.0874309 0 -0.00178223)
(0.0821688 0 -0.00152232)
(0.0763937 0 -0.0011886)
(0.070199 0 -0.000772042)
(0.0636699 0 -0.000260544)
(0.0569088 0 0.000358042)
(0.0500598 0 0.00109385)
(0.0433017 0 0.00195503)
(0.036846 0 0.00294604)
(0.0309563 0 0.00406432)
(0.0259945 0 0.00528977)
(0.0226702 0 0.00654039)
(0.0223474 0 0.00752572)
(0.0104386 0 -0.00025191)
(0.0297912 0 -0.000721532)
(0.0463064 0 -0.00113153)
(0.0602453 0 -0.00149222)
(0.0718686 0 -0.00181143)
(0.0814135 0 -0.00209347)
(0.0890851 0 -0.00234094)
(0.0950709 0 -0.00255876)
(0.0995369 0 -0.00274652)
(0.102624 0 -0.00290331)
(0.104458 0 -0.0030272)
(0.10515 0 -0.00311523)
(0.104801 0 -0.00316341)
(0.103508 0 -0.003167)
(0.101355 0 -0.00311989)
(0.0984223 0 -0.00301476)
(0.0947882 0 -0.00284316)
(0.0905329 0 -0.00259565)
(0.0857255 0 -0.00226077)
(0.0804564 0 -0.00182762)
(0.0748324 0 -0.00128491)
(0.0689525 0 -0.000619043)
(0.0629391 0 0.000182761)
(0.0569379 0 0.00113244)
(0.0511804 0 0.00223455)
(0.0459109 0 0.00348631)
(0.0414545 0 0.00486655)
(0.038173 0 0.00632455)
(0.0366178 0 0.00773431)
(0.0384656 0 0.008672)
(0.0105025 0 -0.000324098)
(0.029966 0 -0.000927551)
(0.0465832 0 -0.00145471)
(0.0606327 0 -0.00191904)
(0.0723701 0 -0.00233089)
(0.082035 0 -0.00269514)
(0.0898448 0 -0.00301717)
(0.0959863 0 -0.00330093)
(0.100625 0 -0.00354698)
(0.103907 0 -0.00375444)
(0.105959 0 -0.00392108)
(0.106897 0 -0.00404316)
(0.106823 0 -0.00411473)
(0.105844 0 -0.00413375)
(0.104046 0 -0.00409174)
(0.101517 0 -0.0039799)
(0.0983393 0 -0.00378835)
(0.0945988 0 -0.00350608)
(0.0903796 0 -0.00312091)
(0.0857801 0 -0.00262016)
(0.0809111 0 -0.00199093)
(0.075891 0 -0.00121996)
(0.0708731 0 -0.000297285)
(0.0660066 0 0.000789253)
(0.0615101 0 0.00203971)
(0.0576904 0 0.00343452)
(0.0549677 0 0.00492487)
(0.0537796 0 0.00641483)
(0.0545198 0 0.00775682)
(0.0587494 0 0.00840988)
(0.010566 0 -0.000395802)
(0.0301655 0 -0.00113306)
(0.0469224 0 -0.00177799)
(0.0611114 0 -0.00234646)
(0.0729871 0 -0.00284974)
(0.0827991 0 -0.00329688)
(0.090778 0 -0.0036944)
(0.0971089 0 -0.00404609)
(0.10196 0 -0.00435317)
(0.105478 0 -0.00461503)
(0.107797 0 -0.00482939)
(0.109036 0 -0.00499235)
(0.109305 0 -0.00509867)
(0.10871 0 -0.00514403)
(0.107349 0 -0.00512034)
(0.105313 0 -0.00501823)
(0.102694 0 -0.00482714)
(0.0995875 0 -0.00453562)
(0.0960897 0 -0.00413183)
(0.0923004 0 -0.00360126)
(0.0883481 0 -0.00293245)
(0.0843594 0 -0.00211258)
(0.0805341 0 -0.0011384)
(0.0770577 0 -6.69952e-06)
(0.0741358 0 0.00127457)
(0.072073 0 0.00267675)
(0.0713027 0 0.00412431)
(0.0724628 0 0.00545713)
(0.0759228 0 0.00648974)
(0.0826746 0 0.00664812)
(0.0106446 0 -0.000467173)
(0.0304047 0 -0.00133831)
(0.0473217 0 -0.00210108)
(0.0616643 0 -0.00277385)
(0.0737039 0 -0.00336946)
(0.0837003 0 -0.00390132)
(0.0918794 0 -0.00437622)
(0.0984331 0 -0.00479859)
(0.103532 0 -0.00517034)
(0.10733 0 -0.00549134)
(0.109963 0 -0.00575956)
(0.111555 0 -0.00597119)
(0.112222 0 -0.00612102)
(0.112078 0 -0.00620481)
(0.111226 0 -0.00621457)
(0.109767 0 -0.00614096)
(0.107799 0 -0.00597345)
(0.10542 0 -0.00569958)
(0.102767 0 -0.00531347)
(0.0999316 0 -0.00479811)
(0.0970604 0 -0.00414536)
(0.0943051 0 -0.00334668)
(0.0918424 0 -0.00239885)
(0.0898978 0 -0.00131167)
(0.0887768 0 -0.000115456)
(0.0887821 0 0.00114191)
(0.0902276 0 0.00238024)
(0.093906 0 0.00337804)
(0.100245 0 0.00388079)
(0.109735 0 0.00334436)
(0.0107363 0 -0.000538045)
(0.0306789 0 -0.00154202)
(0.047777 0 -0.00242204)
(0.0622972 0 -0.00319948)
(0.074525 0 -0.0038898)
(0.0847297 0 -0.0045079)
(0.0931372 0 -0.00506227)
(0.0999441 0 -0.00555824)
(0.105326 0 -0.00599853)
(0.109441 0 -0.00638383)
(0.112431 0 -0.00671256)
(0.114424 0 -0.0069813)
(0.115539 0 -0.00718422)
(0.115904 0 -0.00731961)
(0.115628 0 -0.00737934)
(0.114819 0 -0.00735495)
(0.113591 0 -0.00723732)
(0.112051 0 -0.00701598)
(0.11033 0 -0.0066827)
(0.108558 0 -0.00622825)
(0.106884 0 -0.00564593)
(0.105523 0 -0.00494095)
(0.104622 0 -0.00411136)
(0.104438 0 -0.0031771)
(0.10526 0 -0.00217876)
(0.107522 0 -0.00120836)
(0.111536 0 -0.000364831)
(0.117803 0 0.000135907)
(0.127084 0 -7.73462e-05)
(0.139425 0 -0.00147996)
(0.0108397 0 -0.000608619)
(0.030986 0 -0.00174493)
(0.0482871 0 -0.00274212)
(0.0630037 0 -0.00362295)
(0.0754377 0 -0.00440786)
(0.0858725 0 -0.00511322)
(0.0945328 0 -0.00574881)
(0.10162 0 -0.00632103)
(0.107314 0 -0.00683355)
(0.111779 0 -0.00728827)
(0.115161 0 -0.00768435)
(0.117597 0 -0.00801941)
(0.119218 0 -0.0082901)
(0.120145 0 -0.00849115)
(0.120501 0 -0.00861812)
(0.120406 0 -0.00866426)
(0.119984 0 -0.00862235)
(0.119359 0 -0.00848507)
(0.118669 0 -0.00824666)
(0.118067 0 -0.00790355)
(0.117729 0 -0.00745617)
(0.117842 0 -0.00690932)
(0.118627 0 -0.00628041)
(0.120395 0 -0.00560992)
(0.123388 0 -0.00494176)
(0.128018 0 -0.00438105)
(0.134777 0 -0.00409712)
(0.143829 0 -0.00426824)
(0.15611 0 -0.00534992)
(0.171217 0 -0.00772654)
(0.0109536 0 -0.000678752)
(0.0313224 0 -0.00194664)
(0.0488327 0 -0.00306007)
(0.063765 0 -0.00404453)
(0.0764357 0 -0.00492532)
(0.0871228 0 -0.00571945)
(0.0960593 0 -0.00643848)
(0.103451 0 -0.00709003)
(0.109484 0 -0.00767876)
(0.114329 0 -0.00820841)
(0.118138 0 -0.00867891)
(0.121055 0 -0.0090895)
(0.12322 0 -0.00943912)
(0.124745 0 -0.00971866)
(0.125781 0 -0.00993019)
(0.126453 0 -0.0100685)
(0.126895 0 -0.0101292)
(0.127247 0 -0.0101085)
(0.127656 0 -0.0100042)
(0.128291 0 -0.00981828)
(0.129384 0 -0.00956666)
(0.131092 0 -0.00925451)
(0.133685 0 -0.00891381)
(0.137462 0 -0.00859375)
(0.142802 0 -0.00838218)
(0.149962 0 -0.00836923)
(0.159513 0 -0.00877003)
(0.171617 0 -0.00978213)
(0.186902 0 -0.0118444)
(0.204552 0 -0.0152283)
(0.0110759 0 -0.000747914)
(0.0316841 0 -0.00214579)
(0.0494219 0 -0.00337479)
(0.0645872 0 -0.00446398)
(0.0775098 0 -0.00544118)
(0.088468 0 -0.00632534)
(0.0977008 0 -0.00712993)
(0.105418 0 -0.00786381)
(0.111813 0 -0.00853232)
(0.117064 0 -0.00914233)
(0.121325 0 -0.00969389)
(0.124749 0 -0.0101881)
(0.127479 0 -0.0106243)
(0.129651 0 -0.0109998)
(0.131402 0 -0.0113129)
(0.132879 0 -0.0115639)
(0.134226 0 -0.0117522)
(0.135601 0 -0.0118796)
(0.137164 0 -0.0119488)
(0.139115 0 -0.0119718)
(0.141657 0 -0.0119637)
(0.145016 0 -0.0119503)
(0.149507 0 -0.0119821)
(0.155393 0 -0.0121105)
(0.163129 0 -0.012455)
(0.17303 0 -0.0131345)
(0.185464 0 -0.0143396)
(0.200772 0 -0.0163256)
(0.218948 0 -0.019411)
(0.238844 0 -0.0237619)
(0.0112058 0 -0.000816295)
(0.0320707 0 -0.002343)
(0.0500486 0 -0.00368563)
(0.0654574 0 -0.0048784)
(0.0786447 0 -0.00595188)
(0.0898887 0 -0.00692672)
(0.0994343 0 -0.00781845)
(0.107494 0 -0.00863736)
(0.114277 0 -0.00939236)
(0.119957 0 -0.0100882)
(0.12469 0 -0.0107269)
(0.128644 0 -0.0113128)
(0.131966 0 -0.0118469)
(0.134807 0 -0.0123308)
(0.137292 0 -0.0127596)
(0.139598 0 -0.0131425)
(0.141875 0 -0.0134818)
(0.144298 0 -0.0137857)
(0.14703 0 -0.0140601)
(0.150325 0 -0.0143344)
(0.154353 0 -0.014623)
(0.159401 0 -0.0149705)
(0.165778 0 -0.0154367)
(0.173869 0 -0.0161113)
(0.18399 0 -0.0170941)
(0.196657 0 -0.0185699)
(0.212053 0 -0.02069)
(0.230612 0 -0.0237418)
(0.251552 0 -0.027846)
(0.273431 0 -0.0330773)
(0.0113414 0 -0.000883679)
(0.0324619 0 -0.00253662)
(0.0506928 0 -0.00399189)
(0.0663698 0 -0.00528864)
(0.079835 0 -0.00645859)
(0.0913781 0 -0.00752485)
(0.101252 0 -0.00850546)
(0.109675 0 -0.00941257)
(0.11686 0 -0.0102575)
(0.122976 0 -0.0110429)
(0.128195 0 -0.0117738)
(0.132692 0 -0.0124586)
(0.136619 0 -0.0130994)
(0.140128 0 -0.0136991)
(0.143373 0 -0.014261)
(0.14652 0 -0.0147931)
(0.149731 0 -0.0153025)
(0.153216 0 -0.0158096)
(0.157137 0 -0.0163234)
(0.161729 0 -0.0168744)
(0.167222 0 -0.0174975)
(0.173941 0 -0.0182553)
(0.182177 0 -0.0192123)
(0.192382 0 -0.0204894)
(0.204836 0 -0.0221875)
(0.220116 0 -0.0245185)
(0.238442 0 -0.027643)
(0.260083 0 -0.0317994)
(0.283692 0 -0.0369053)
(0.307424 0 -0.0429385)
(0.0114823 0 -0.000949632)
(0.0328698 0 -0.00272657)
(0.0513638 0 -0.00429372)
(0.0673165 0 -0.00569354)
(0.0810688 0 -0.00695978)
(0.0929208 0 -0.00811764)
(0.103134 0 -0.0091884)
(0.111929 0 -0.010185)
(0.119517 0 -0.0111196)
(0.126079 0 -0.0119983)
(0.131801 0 -0.0128297)
(0.136851 0 -0.01362)
(0.141389 0 -0.0143752)
(0.145574 0 -0.0151014)
(0.149575 0 -0.0158069)
(0.153556 0 -0.0165013)
(0.157708 0 -0.0172016)
(0.162218 0 -0.0179257)
(0.167287 0 -0.018698)
(0.173138 0 -0.0195522)
(0.180048 0 -0.0205409)
(0.188316 0 -0.0217305)
(0.198326 0 -0.0232207)
(0.210409 0 -0.0251154)
(0.225048 0 -0.0275837)
(0.242606 0 -0.0307918)
(0.263488 0 -0.0349537)
(0.287716 0 -0.040219)
(0.313675 0 -0.0463184)
(0.339344 0 -0.0531723)
(0.0116297 0 -0.00101442)
(0.0332908 0 -0.00291227)
(0.0520514 0 -0.00458868)
(0.0682858 0 -0.00608998)
(0.08233 0 -0.00745163)
(0.0945032 0 -0.00870307)
(0.105065 0 -0.00986504)
(0.114236 0 -0.0109522)
(0.122236 0 -0.0119792)
(0.129255 0 -0.0129552)
(0.135481 0 -0.0138908)
(0.141076 0 -0.0147899)
(0.146221 0 -0.0156657)
(0.151074 0 -0.0165253)
(0.155817 0 -0.0173828)
(0.160611 0 -0.0182487)
(0.165674 0 -0.0191507)
(0.17116 0 -0.0201032)
(0.177308 0 -0.0211443)
(0.184338 0 -0.0223137)
(0.192559 0 -0.0236815)
(0.202235 0 -0.0253142)
(0.213782 0 -0.0273349)
(0.227476 0 -0.0298485)
(0.243842 0 -0.0330574)
(0.263102 0 -0.0371124)
(0.285714 0 -0.0422731)
(0.311316 0 -0.048597)
(0.338408 0 -0.0557499)
(0.366316 0 -0.0638363)
(0.00628062 0 -0.00230961)
(0.0134348 0 -0.00263861)
(0.0284195 0 -0.00309653)
(0.05121 0 -0.00365713)
(0.0796777 0 -0.00419648)
(0.110448 0 -0.00462693)
(0.140085 0 -0.00492312)
(0.166138 0 -0.00503664)
(0.187659 0 -0.00502479)
(0.204741 0 -0.00493237)
(0.217771 0 -0.00475045)
(0.227256 0 -0.00454561)
(0.233683 0 -0.00429086)
(0.237414 0 -0.00400513)
(0.238761 0 -0.00373014)
(0.237947 0 -0.00345699)
(0.235121 0 -0.00318816)
(0.230385 0 -0.00292602)
(0.223767 0 -0.0026726)
(0.215284 0 -0.00242525)
(0.204917 0 -0.00218877)
(0.192627 0 -0.0019537)
(0.178366 0 -0.00173269)
(0.162034 0 -0.00151722)
(0.14356 0 -0.00130352)
(0.122858 0 -0.0010883)
(0.0998427 0 -0.000868147)
(0.0744228 0 -0.000639287)
(0.0465163 0 -0.000397448)
(0.0159628 0 -0.00013686)
(0.0115795 0 -0.0070096)
(0.0192665 0 -0.00799621)
(0.0348031 0 -0.00941143)
(0.05776 0 -0.0110329)
(0.0859799 0 -0.0125959)
(0.116171 0 -0.0138361)
(0.144976 0 -0.0146327)
(0.170141 0 -0.0149366)
(0.190898 0 -0.014876)
(0.20732 0 -0.014558)
(0.219814 0 -0.0140193)
(0.228881 0 -0.0133804)
(0.234966 0 -0.0126205)
(0.238442 0 -0.0118044)
(0.239595 0 -0.0109992)
(0.238627 0 -0.0101988)
(0.235679 0 -0.00940884)
(0.230848 0 -0.00863775)
(0.224155 0 -0.00789379)
(0.215611 0 -0.00716407)
(0.205202 0 -0.00647094)
(0.19287 0 -0.00579293)
(0.178563 0 -0.00514302)
(0.162199 0 -0.00450675)
(0.143698 0 -0.00387429)
(0.122974 0 -0.00323628)
(0.0999367 0 -0.00258274)
(0.0744956 0 -0.00190257)
(0.0465657 0 -0.00118319)
(0.0159819 0 -0.000407502)
(0.0216344 0 -0.011921)
(0.0305459 0 -0.0136357)
(0.0470767 0 -0.0160226)
(0.0702601 0 -0.0186163)
(0.0980302 0 -0.02106)
(0.127048 0 -0.0229453)
(0.154238 0 -0.0240655)
(0.177754 0 -0.0244443)
(0.197045 0 -0.0242638)
(0.212219 0 -0.02366)
(0.22371 0 -0.0227613)
(0.231978 0 -0.0216819)
(0.23744 0 -0.020464)
(0.240432 0 -0.0191666)
(0.241208 0 -0.01787)
(0.239944 0 -0.0165811)
(0.236762 0 -0.0153043)
(0.231744 0 -0.0140541)
(0.22491 0 -0.0128556)
(0.216247 0 -0.0116879)
(0.205736 0 -0.0105714)
(0.19332 0 -0.00948868)
(0.17894 0 -0.00843582)
(0.162515 0 -0.00739969)
(0.143962 0 -0.00636655)
(0.123192 0 -0.00532185)
(0.100113 0 -0.00424965)
(0.0746305 0 -0.00313201)
(0.0466555 0 -0.00194848)
(0.0160158 0 -0.000671203)
(0.0360976 0 -0.0172931)
(0.0468166 0 -0.0198298)
(0.0644773 0 -0.0230989)
(0.0879665 0 -0.026579)
(0.114929 0 -0.0296749)
(0.142172 0 -0.0319457)
(0.167097 0 -0.0332007)
(0.188368 0 -0.0335342)
(0.205635 0 -0.0331419)
(0.219086 0 -0.0322072)
(0.229197 0 -0.030933)
(0.236365 0 -0.0294347)
(0.240954 0 -0.0277855)
(0.243269 0 -0.0260579)
(0.24351 0 -0.0243086)
(0.241827 0 -0.0225719)
(0.238313 0 -0.0208455)
(0.233029 0 -0.0191668)
(0.225981 0 -0.0175546)
(0.217146 0 -0.0159953)
(0.206489 0 -0.0144903)
(0.193954 0 -0.0130276)
(0.17947 0 -0.0115968)
(0.162958 0 -0.0101829)
(0.144331 0 -0.00876863)
(0.123496 0 -0.00733499)
(0.100356 0 -0.00586061)
(0.0748143 0 -0.00432126)
(0.046776 0 -0.00268919)
(0.0160604 0 -0.000926457)
(0.0545303 0 -0.0233328)
(0.067333 0 -0.0267103)
(0.0861851 0 -0.0307832)
(0.109893 0 -0.0349733)
(0.135636 0 -0.0384725)
(0.160553 0 -0.0408388)
(0.182719 0 -0.0420114)
(0.201277 0 -0.0421525)
(0.216101 0 -0.0414718)
(0.227513 0 -0.0401908)
(0.23597 0 -0.0385365)
(0.241804 0 -0.0366399)
(0.245333 0 -0.0345775)
(0.246814 0 -0.0324485)
(0.246389 0 -0.0302833)
(0.244188 0 -0.0281437)
(0.240263 0 -0.0260263)
(0.234647 0 -0.0239745)
(0.227328 0 -0.0219924)
(0.218272 0 -0.0200733)
(0.207432 0 -0.018212)
(0.194743 0 -0.0163967)
(0.18013 0 -0.0146135)
(0.163509 0 -0.0128448)
(0.144787 0 -0.0110702)
(0.123869 0 -0.0092668)
(0.100653 0 -0.00740828)
(0.0750364 0 -0.00546471)
(0.0469196 0 -0.0034017)
(0.0161127 0 -0.00117196)
(0.0765163 0 -0.0301779)
(0.0913973 0 -0.0343374)
(0.111466 0 -0.0391216)
(0.135035 0 -0.0437557)
(0.159086 0 -0.0473736)
(0.18121 0 -0.0495791)
(0.200225 0 -0.0504586)
(0.21573 0 -0.0502456)
(0.227878 0 -0.049204)
(0.237064 0 -0.0475682)
(0.243683 0 -0.0455384)
(0.248031 0 -0.0432637)
(0.250381 0 -0.0408377)
(0.250904 0 -0.0383232)
(0.249731 0 -0.0357941)
(0.246936 0 -0.0332998)
(0.242539 0 -0.0308503)
(0.236537 0 -0.0284673)
(0.228902 0 -0.0261556)
(0.219586 0 -0.0239109)
(0.208529 0 -0.0217252)
(0.19566 0 -0.0195855)
(0.180895 0 -0.0174757)
(0.164144 0 -0.0153759)
(0.145311 0 -0.0132628)
(0.124294 0 -0.0111097)
(0.100989 0 -0.00888637)
(0.075286 0 -0.00655753)
(0.0470793 0 -0.00408286)
(0.0161702 0 -0.00140658)
(0.101667 0 -0.0378818)
(0.118565 0 -0.0427636)
(0.139623 0 -0.048084)
(0.162492 0 -0.0528484)
(0.184248 0 -0.0562447)
(0.203216 0 -0.0580583)
(0.218782 0 -0.0584572)
(0.231075 0 -0.057786)
(0.240434 0 -0.0563263)
(0.247288 0 -0.0543094)
(0.251976 0 -0.051911)
(0.254757 0 -0.0492775)
(0.255858 0 -0.0465181)
(0.255383 0 -0.0436816)
(0.253419 0 -0.040849)
(0.249983 0 -0.0380539)
(0.245066 0 -0.0353125)
(0.238639 0 -0.0326387)
(0.230652 0 -0.0300359)
(0.221045 0 -0.0274999)
(0.209746 0 -0.0250212)
(0.196674 0 -0.0225857)
(0.181738 0 -0.0201755)
(0.164842 0 -0.0177685)
(0.145884 0 -0.0153391)
(0.124757 0 -0.0128576)
(0.101352 0 -0.0102896)
(0.0755532 0 -0.00759568)
(0.0472486 0 -0.00473005)
(0.0162305 0 -0.00162939)
(0.12959 0 -0.0464202)
(0.148308 0 -0.0519239)
(0.169939 0 -0.0575489)
(0.191347 0 -0.0620773)
(0.210199 0 -0.0649259)
(0.225623 0 -0.0661066)
(0.237611 0 -0.0658995)
(0.246659 0 -0.0646962)
(0.253225 0 -0.0627844)
(0.257745 0 -0.0603805)
(0.260498 0 -0.0576298)
(0.261726 0 -0.0546819)
(0.26158 0 -0.0516325)
(0.260109 0 -0.0485371)
(0.257331 0 -0.0454501)
(0.25323 0 -0.0424023)
(0.247767 0 -0.0394108)
(0.240887 0 -0.0364856)
(0.232525 0 -0.0336287)
(0.222607 0 -0.0308351)
(0.211046 0 -0.0280943)
(0.197754 0 -0.0253913)
(0.182633 0 -0.0227066)
(0.16558 0 -0.0200167)
(0.146486 0 -0.0172937)
(0.125242 0 -0.0145052)
(0.101729 0 -0.0116138)
(0.0758285 0 -0.00857583)
(0.0474214 0 -0.00534112)
(0.0162915 0 -0.00183961)
(0.15988 0 -0.0557064)
(0.180081 0 -0.0616825)
(0.201551 0 -0.0672821)
(0.220656 0 -0.071197)
(0.236021 0 -0.073203)
(0.247609 0 -0.0735533)
(0.256023 0 -0.0726622)
(0.261892 0 -0.0708939)
(0.265754 0 -0.068523)
(0.268035 0 -0.0657485)
(0.268966 0 -0.0626939)
(0.268731 0 -0.0594888)
(0.267389 0 -0.0562068)
(0.264938 0 -0.0528979)
(0.261353 0 -0.0496028)
(0.256582 0 -0.0463473)
(0.250562 0 -0.0431466)
(0.243219 0 -0.0400082)
(0.23447 0 -0.0369325)
(0.224226 0 -0.0339139)
(0.212393 0 -0.0309412)
(0.198871 0 -0.0279984)
(0.183555 0 -0.0250651)
(0.166336 0 -0.0221163)
(0.147101 0 -0.0191224)
(0.125732 0 -0.016049)
(0.102108 0 -0.0128556)
(0.0761027 0 -0.00949542)
(0.0475918 0 -0.00591436)
(0.0163511 0 -0.00203665)
(0.192136 0 -0.0656141)
(0.213319 0 -0.0718538)
(0.233557 0 -0.0769853)
(0.249473 0 -0.079908)
(0.260852 0 -0.0808313)
(0.268483 0 -0.0802411)
(0.273401 0 -0.0786268)
(0.276251 0 -0.0762984)
(0.277624 0 -0.0735074)
(0.277873 0 -0.0704113)
(0.277168 0 -0.0671171)
(0.275585 0 -0.0637108)
(0.273123 0 -0.0602496)
(0.26974 0 -0.0567745)
(0.265375 0 -0.0533162)
(0.25995 0 -0.0498953)
(0.25338 0 -0.0465245)
(0.245574 0 -0.0432091)
(0.236434 0 -0.0399486)
(0.225861 0 -0.0367363)
(0.21375 0 -0.0335606)
(0.199993 0 -0.0304051)
(0.184477 0 -0.0272483)
(0.167089 0 -0.0240644)
(0.147708 0 -0.0208225)
(0.126213 0 -0.017486)
(0.102476 0 -0.0140126)
(0.0763673 0 -0.0103525)
(0.0477547 0 -0.00644855)
(0.0164075 0 -0.00222006)
(0.225998 0 -0.0760108)
(0.2474 0 -0.0821954)
(0.265027 0 -0.0863086)
(0.276799 0 -0.0878609)
(0.283836 0 -0.0875433)
(0.287592 0 -0.0859968)
(0.289182 0 -0.0836725)
(0.289353 0 -0.0808582)
(0.288575 0 -0.0777263)
(0.287072 0 -0.0743876)
(0.284922 0 -0.0709149)
(0.282129 0 -0.0673639)
(0.278645 0 -0.0637756)
(0.274398 0 -0.0601807)
(0.269299 0 -0.0566022)
(0.263251 0 -0.053056)
(0.25615 0 -0.0495518)
(0.247893 0 -0.0460939)
(0.23837 0 -0.0426805)
(0.227472 0 -0.0393044)
(0.215084 0 -0.0359535)
(0.201092 0 -0.0326111)
(0.185377 0 -0.0292555)
(0.167819 0 -0.0258598)
(0.148293 0 -0.0223922)
(0.126672 0 -0.0188148)
(0.102825 0 -0.0150833)
(0.0766143 0 -0.0111459)
(0.047905 0 -0.00694284)
(0.016459 0 -0.00238957)
(0.26115 0 -0.0867595)
(0.281411 0 -0.0923253)
(0.294702 0 -0.0947547)
(0.301503 0 -0.0946393)
(0.304089 0 -0.0930426)
(0.304278 0 -0.0906348)
(0.303032 0 -0.0877368)
(0.301001 0 -0.084556)
(0.298448 0 -0.0811876)
(0.295474 0 -0.0776906)
(0.292085 0 -0.0741065)
(0.288234 0 -0.0704686)
(0.283843 0 -0.0668038)
(0.278815 0 -0.063134)
(0.273042 0 -0.0594761)
(0.266413 0 -0.0558416)
(0.258812 0 -0.0522387)
(0.250125 0 -0.0486703)
(0.240234 0 -0.045134)
(0.22902 0 -0.0416221)
(0.216363 0 -0.0381225)
(0.202141 0 -0.0346181)
(0.18623 0 -0.0310871)
(0.168505 0 -0.0275023)
(0.148838 0 -0.0238311)
(0.127095 0 -0.0200344)
(0.103142 0 -0.0160669)
(0.0768365 0 -0.0118749)
(0.0480384 0 -0.00739679)
(0.016504 0 -0.00254502)
(0.297095 0 -0.0976184)
(0.313684 0 -0.101539)
(0.320915 0 -0.101645)
(0.322348 0 -0.0997787)
(0.320985 0 -0.0971068)
(0.318249 0 -0.0940509)
(0.314846 0 -0.0907901)
(0.311103 0 -0.0873995)
(0.30714 0 -0.0839106)
(0.30297 0 -0.0803442)
(0.298551 0 -0.0767181)
(0.293803 0 -0.0730501)
(0.288625 0 -0.0693573)
(0.282908 0 -0.065655)
(0.276532 0 -0.0619556)
(0.269373 0 -0.058267)
(0.261311 0 -0.054597)
(0.252223 0 -0.0509479)
(0.241986 0 -0.0473168)
(0.230473 0 -0.0436952)
(0.217558 0 -0.0400715)
(0.203115 0 -0.0364288)
(0.187016 0 -0.0327451)
(0.169132 0 -0.0289931)
(0.149329 0 -0.0251396)
(0.127471 0 -0.0211452)
(0.103419 0 -0.0169634)
(0.0770273 0 -0.0125394)
(0.0481507 0 -0.00781031)
(0.0165412 0 -0.0026864)
(0.332172 0 -0.107831)
(0.341181 0 -0.108546)
(0.341771 0 -0.10615)
(0.338752 0 -0.102943)
(0.334421 0 -0.0996023)
(0.32961 0 -0.0962422)
(0.324642 0 -0.092855)
(0.319635 0 -0.0894221)
(0.3146 0 -0.0859324)
(0.309497 0 -0.0823844)
(0.304251 0 -0.0787836)
(0.298764 0 -0.0751393)
(0.292925 0 -0.0714633)
(0.286616 0 -0.0677674)
(0.279713 0 -0.0640616)
(0.27208 0 -0.0603489)
(0.2636 0 -0.0566404)
(0.254146 0 -0.052938)
(0.24359 0 -0.049238)
(0.231799 0 -0.0455309)
(0.218643 0 -0.0418062)
(0.203992 0 -0.0380472)
(0.187717 0 -0.0342322)
(0.169683 0 -0.030334)
(0.149753 0 -0.0263192)
(0.12779 0 -0.022148)
(0.103648 0 -0.0177733)
(0.077181 0 -0.0131398)
(0.0482387 0 -0.00818363)
(0.0165695 0 -0.00281379)
(0.360624 0 -0.114841)
(0.362178 0 -0.111692)
(0.356688 0 -0.107401)
(0.350631 0 -0.103799)
(0.344463 0 -0.100479)
(0.338369 0 -0.0972378)
(0.332401 0 -0.0939817)
(0.326548 0 -0.0906721)
(0.320766 0 -0.0872941)
(0.314982 0 -0.0838455)
(0.30911 0 -0.080331)
(0.303044 0 -0.0767592)
(0.29667 0 -0.0731405)
(0.289871 0 -0.0694862)
(0.282526 0 -0.0658077)
(0.274492 0 -0.062105)
(0.26564 0 -0.0583835)
(0.255861 0 -0.0546528)
(0.245019 0 -0.050908)
(0.232973 0 -0.0471369)
(0.219594 0 -0.0433326)
(0.204753 0 -0.0394781)
(0.188314 0 -0.0355523)
(0.170143 0 -0.0315279)
(0.150099 0 -0.0273719)
(0.128041 0 -0.0230443)
(0.103822 0 -0.0184978)
(0.0772924 0 -0.0136768)
(0.0482991 0 -0.00851722)
(0.0165878 0 -0.00292736)
(0.011767 0 -0.00107748)
(0.0337116 0 -0.00309567)
(0.0527637 0 -0.00488249)
(0.0692928 0 -0.00648591)
(0.0836505 0 -0.00794501)
(0.0961546 0 -0.00929148)
(0.107064 0 -0.0105455)
(0.116618 0 -0.011725)
(0.125042 0 -0.0128482)
(0.132521 0 -0.0139246)
(0.139246 0 -0.0149654)
(0.145402 0 -0.0159826)
(0.151157 0 -0.016986)
(0.156674 0 -0.0179865)
(0.162153 0 -0.0190057)
(0.16775 0 -0.0200551)
(0.173667 0 -0.021162)
(0.18008 0 -0.0223509)
(0.187247 0 -0.0236717)
(0.195364 0 -0.0251638)
(0.204736 0 -0.0269057)
(0.215639 0 -0.0289786)
(0.228402 0 -0.0314976)
(0.243331 0 -0.0345939)
(0.260782 0 -0.0384503)
(0.280913 0 -0.04324)
(0.303848 0 -0.0492113)
(0.328725 0 -0.0564696)
(0.353834 0 -0.0652495)
(0.37699 0 -0.0767125)
(0.0119117 0 -0.00114046)
(0.0341511 0 -0.00327933)
(0.0535034 0 -0.00517686)
(0.0703399 0 -0.00688356)
(0.08502 0 -0.0084411)
(0.0978607 0 -0.00988229)
(0.109128 0 -0.0112304)
(0.119082 0 -0.0125076)
(0.127942 0 -0.0137312)
(0.13589 0 -0.0149122)
(0.143125 0 -0.0160642)
(0.149846 0 -0.0172051)
(0.156201 0 -0.0183413)
(0.162385 0 -0.0194926)
(0.168573 0 -0.0206773)
(0.174937 0 -0.0219147)
(0.181662 0 -0.0232325)
(0.188947 0 -0.0246643)
(0.197029 0 -0.0262617)
(0.206129 0 -0.0280784)
(0.216457 0 -0.030176)
(0.228328 0 -0.0326594)
(0.241926 0 -0.0356154)
(0.257551 0 -0.0391934)
(0.275326 0 -0.0435309)
(0.295207 0 -0.0487724)
(0.316821 0 -0.0550458)
(0.338825 0 -0.0622785)
(0.359176 0 -0.0702645)
(0.375764 0 -0.078766)
(0.0120615 0 -0.00120278)
(0.0346017 0 -0.00346079)
(0.0542595 0 -0.00546795)
(0.0714113 0 -0.00727763)
(0.0864202 0 -0.00893375)
(0.0996062 0 -0.0104708)
(0.111246 0 -0.0119154)
(0.121603 0 -0.0132916)
(0.130894 0 -0.0146167)
(0.139307 0 -0.0159042)
(0.147057 0 -0.0171732)
(0.154323 0 -0.0184378)
(0.161266 0 -0.0197096)
(0.168089 0 -0.0210139)
(0.17494 0 -0.0223642)
(0.182007 0 -0.0237871)
(0.189484 0 -0.0253163)
(0.197568 0 -0.026991)
(0.206432 0 -0.02885)
(0.216308 0 -0.03096)
(0.227362 0 -0.0333767)
(0.239852 0 -0.0362002)
(0.25386 0 -0.039499)
(0.269598 0 -0.0434078)
(0.286908 0 -0.0479868)
(0.305532 0 -0.0533156)
(0.32469 0 -0.0593456)
(0.343057 0 -0.0658866)
(0.359206 0 -0.0727201)
(0.37165 0 -0.0795911)
(0.0122142 0 -0.00126389)
(0.035057 0 -0.00363861)
(0.0550235 0 -0.00575357)
(0.072496 0 -0.00766528)
(0.0878371 0 -0.00941934)
(0.101373 0 -0.0110525)
(0.113383 0 -0.0125931)
(0.124144 0 -0.0140688)
(0.133867 0 -0.015497)
(0.142744 0 -0.0168929)
(0.150997 0 -0.0182799)
(0.158782 0 -0.0196678)
(0.166293 0 -0.0210781)
(0.173702 0 -0.0225295)
(0.181173 0 -0.0240443)
(0.1889 0 -0.0256539)
(0.197032 0 -0.0273827)
(0.205768 0 -0.0292772)
(0.21525 0 -0.0313722)
(0.225682 0 -0.0337318)
(0.237203 0 -0.0364119)
(0.249945 0 -0.0394832)
(0.263953 0 -0.0430087)
(0.279218 0 -0.0470597)
(0.295437 0 -0.0516411)
(0.312178 0 -0.0567469)
(0.328635 0 -0.0622574)
(0.343851 0 -0.0680145)
(0.356854 0 -0.0738418)
(0.366577 0 -0.0794498)
(0.0123666 0 -0.00132291)
(0.035508 0 -0.00381025)
(0.0557858 0 -0.00603108)
(0.0735837 0 -0.00804329)
(0.0892565 0 -0.00989362)
(0.103142 0 -0.011622)
(0.115531 0 -0.0132594)
(0.126693 0 -0.0148348)
(0.136827 0 -0.0163638)
(0.14616 0 -0.0178695)
(0.154888 0 -0.0193707)
(0.163172 0 -0.020881)
(0.171216 0 -0.0224273)
(0.179171 0 -0.0240247)
(0.187201 0 -0.0256969)
(0.195486 0 -0.0274768)
(0.20416 0 -0.0293876)
(0.213401 0 -0.0314739)
(0.223343 0 -0.0337731)
(0.234114 0 -0.0363324)
(0.245812 0 -0.0392006)
(0.258476 0 -0.0424223)
(0.272067 0 -0.0460367)
(0.286423 0 -0.0500575)
(0.301202 0 -0.0544613)
(0.315944 0 -0.0591945)
(0.33002 0 -0.0641517)
(0.342738 0 -0.0692)
(0.353381 0 -0.0741639)
(0.361279 0 -0.078801)
(0.0125201 0 -0.00137979)
(0.0359761 0 -0.00397746)
(0.0565613 0 -0.0063005)
(0.0746637 0 -0.00840828)
(0.0906626 0 -0.0103522)
(0.104891 0 -0.0121734)
(0.117657 0 -0.0139073)
(0.129209 0 -0.0155796)
(0.139751 0 -0.0172088)
(0.149519 0 -0.0188215)
(0.158682 0 -0.0204322)
(0.167436 0 -0.0220625)
(0.175969 0 -0.023738)
(0.18441 0 -0.0254728)
(0.192919 0 -0.02729)
(0.201663 0 -0.0292219)
(0.210773 0 -0.0312949)
(0.220378 0 -0.0335424)
(0.230587 0 -0.0359993)
(0.241475 0 -0.0386986)
(0.253087 0 -0.0416758)
(0.265379 0 -0.044949)
(0.278243 0 -0.04853)
(0.291468 0 -0.0524057)
(0.304747 0 -0.056542)
(0.317669 0 -0.0608741)
(0.329754 0 -0.0653087)
(0.340493 0 -0.0697299)
(0.349378 0 -0.0739755)
(0.356007 0 -0.0778711)
(0.012672 0 -0.00143402)
(0.0364334 0 -0.00413647)
(0.057318 0 -0.00655637)
(0.0757202 0 -0.00875579)
(0.0920385 0 -0.0107895)
(0.106619 0 -0.0127026)
(0.119749 0 -0.0145296)
(0.131661 0 -0.0162939)
(0.142594 0 -0.0180211)
(0.152764 0 -0.0197343)
(0.162343 0 -0.0214515)
(0.171532 0 -0.0231973)
(0.180495 0 -0.0249923)
(0.189347 0 -0.0268496)
(0.198263 0 -0.0287989)
(0.207367 0 -0.0308625)
(0.216781 0 -0.0330674)
(0.226595 0 -0.0354381)
(0.236892 0 -0.038003)
(0.24769 0 -0.0407797)
(0.258979 0 -0.0437864)
(0.27068 0 -0.0470254)
(0.282669 0 -0.0504948)
(0.294738 0 -0.0541711)
(0.306608 0 -0.0580112)
(0.317945 0 -0.0619514)
(0.328395 0 -0.0659159)
(0.337562 0 -0.0697894)
(0.345106 0 -0.0734438)
(0.350814 0 -0.0767656)
(0.0128175 0 -0.00148442)
(0.0368717 0 -0.00428455)
(0.0580474 0 -0.00679567)
(0.0767375 0 -0.00908136)
(0.0933672 0 -0.0112014)
(0.108287 0 -0.0132018)
(0.121766 0 -0.0151164)
(0.134035 0 -0.0169703)
(0.145327 0 -0.0187892)
(0.155867 0 -0.0205976)
(0.165835 0 -0.0224165)
(0.175407 0 -0.0242676)
(0.184736 0 -0.0261694)
(0.193928 0 -0.0281349)
(0.203161 0 -0.0301963)
(0.212517 0 -0.0323662)
(0.222105 0 -0.0346698)
(0.231982 0 -0.0371223)
(0.242186 0 -0.0397412)
(0.252712 0 -0.0425343)
(0.263528 0 -0.0455102)
(0.274547 0 -0.0486641)
(0.285632 0 -0.0519816)
(0.296593 0 -0.0554332)
(0.307195 0 -0.0589744)
(0.317192 0 -0.0625556)
(0.326284 0 -0.0660948)
(0.334183 0 -0.0694926)
(0.340694 0 -0.0726667)
(0.345696 0 -0.0755348)
(0.0129543 0 -0.00153021)
(0.0372862 0 -0.00441961)
(0.0587432 0 -0.00701521)
(0.0777272 0 -0.00938315)
(0.0946456 0 -0.0115826)
(0.109875 0 -0.0136633)
(0.123691 0 -0.0156613)
(0.136294 0 -0.0175985)
(0.147917 0 -0.0195014)
(0.158801 0 -0.0213992)
(0.16911 0 -0.02331)
(0.179009 0 -0.0252543)
(0.188635 0 -0.027248)
(0.198105 0 -0.0293078)
(0.207557 0 -0.0314565)
(0.21705 0 -0.0337027)
(0.226677 0 -0.0360668)
(0.236469 0 -0.0385574)
(0.246451 0 -0.0411852)
(0.256603 0 -0.0439539)
(0.266878 0 -0.0468617)
(0.277181 0 -0.0498975)
(0.287385 0 -0.0530407)
(0.297323 0 -0.0562601)
(0.306827 0 -0.0595225)
(0.315672 0 -0.062769)
(0.323623 0 -0.0659234)
(0.330505 0 -0.0689207)
(0.336199 0 -0.0717)
(0.340632 0 -0.0742016)
(0.0130819 0 -0.00157093)
(0.0376735 0 -0.00454014)
(0.059397 0 -0.0072121)
(0.0786565 0 -0.0096544)
(0.0958538 0 -0.0119264)
(0.111381 0 -0.0140819)
(0.125502 0 -0.016155)
(0.138409 0 -0.0181676)
(0.150337 0 -0.0201472)
(0.161528 0 -0.0221252)
(0.172126 0 -0.0241152)
(0.182292 0 -0.0261383)
(0.192152 0 -0.0282086)
(0.201811 0 -0.03034)
(0.211366 0 -0.032546)
(0.220891 0 -0.0348385)
(0.23045 0 -0.0372302)
(0.240069 0 -0.0397273)
(0.249752 0 -0.0423336)
(0.259472 0 -0.0450472)