/*--------------------------------*- C++ -*----------------------------------*\
| =========                 |                                                 |
| \\      /  F ield         | OpenFOAM: The Open Source CFD Toolbox           |
|  \\    /   O peration     | Version:  dev                                   |
|   \\  /    A nd           | Web:      www.OpenFOAM.org                      |
|    \\/     M anipulation  |                                                 |
\*---------------------------------------------------------------------------*/
FoamFile
{
    version     2.0;
    format      ascii;
    class       surfaceScalarField;
    location    "4.96";
    object      meshPhi;
}
// * * * * * * * * * * * * * * * * * * * * * * * * * * * * * * * * * * * * * //

dimensions      [0 3 -1 0 0 0 0];

internalField   nonuniform List<scalar> 
5457
(
-1.23238e-05
2.3139e-07
-2.58151e-05
7.00369e-07
-4.14413e-05
1.21328e-06
-5.9135e-05
1.79173e-06
-7.77308e-05
2.41663e-06
-9.54971e-05
3.0398e-06
-0.000110593
3.60056e-06
-0.000121423
4.03647e-06
-0.000126865
4.29686e-06
-0.000126411
4.35243e-06
-0.000120217
4.19506e-06
-0.000109042
3.84018e-06
-9.41066e-05
3.32384e-06
-7.68971e-05
2.69524e-06
-5.89568e-05
2.01141e-06
-4.16961e-05
1.33046e-06
-2.62451e-05
7.02712e-07
-1.33675e-05
1.65798e-07
-3.44491e-06
-2.57782e-07
3.51625e-06
-5.60697e-07
7.12717e-06
-7.19824e-07
7.81011e-06
-7.21184e-07
7.0195e-06
-6.21264e-07
5.56213e-06
-4.88033e-07
3.89739e-06
-3.51683e-07
2.36653e-06
-2.28517e-07
1.18103e-06
-1.29343e-07
4.29088e-07
-5.95711e-08
9.03043e-08
-1.96985e-08
-3.54924e-09
-1.20079e-05
4.55399e-07
-2.53127e-05
1.38168e-06
-4.08965e-05
2.40192e-06
-5.86681e-05
3.5593e-06
-7.74397e-05
4.81468e-06
-9.54501e-05
6.06945e-06
-0.000110821
7.19968e-06
-0.000121923
8.08217e-06
-0.000127602
8.61644e-06
-0.000127321
8.74035e-06
-0.000121216
8.43599e-06
-0.000110043
7.73329e-06
-9.50301e-05
6.70472e-06
-7.76812e-05
5.44792e-06
-5.95623e-05
4.07712e-06
-4.21099e-05
2.71015e-06
-2.6477e-05
1.44872e-06
-1.34437e-05
3.69223e-07
-3.40735e-06
-4.82285e-07
3.60166e-06
-1.09025e-06
7.26723e-06
-1.41217e-06
7.97777e-06
-1.42158e-06
7.14535e-06
-1.22591e-06
5.65234e-06
-9.61661e-07
3.9562e-06
-6.92102e-07
2.40013e-06
-4.49027e-07
1.19657e-06
-2.53585e-07
4.33995e-07
-1.16366e-07
9.10316e-08
-3.82552e-08
-6.75173e-09
-1.16568e-05
6.67049e-07
-2.47381e-05
2.03004e-06
-4.02409e-05
3.54494e-06
-5.80557e-05
5.27624e-06
-7.69762e-05
7.1636e-06
-9.52181e-05
9.05601e-06
-0.000110872
1.07647e-05
-0.000122278
1.2108e-05
-0.000128247
1.29362e-05
-0.000128212
1.31502e-05
-0.000122281
1.27203e-05
-0.000111199
1.16884e-05
-9.61964e-05
1.0161e-05
-7.87796e-05
8.28657e-06
-6.05311e-05
6.23762e-06
-4.29119e-05
4.18974e-06
-2.70993e-05
2.29627e-06
-1.38911e-05
6.72831e-07
-3.69655e-06
-6.10481e-07
3.43919e-06
-1.52877e-06
7.21517e-06
-2.02202e-06
7.98632e-06
-2.0524e-06
7.15962e-06
-1.77392e-06
5.66823e-06
-1.39053e-06
3.97004e-06
-9.99516e-07
2.41002e-06
-6.47234e-07
1.20183e-06
-3.64414e-07
4.35173e-07
-1.6638e-07
9.04559e-08
-5.42912e-08
-9.38105e-09
-1.12995e-05
8.61192e-07
-2.41287e-05
2.63014e-06
-3.95064e-05
4.61718e-06
-5.73141e-05
6.90837e-06
-7.63296e-05
9.42143e-06
-9.47584e-05
1.19542e-05
-0.000110677
1.42554e-05
-0.000122395
1.60817e-05
-0.000128695
1.72303e-05
-0.000128975
1.7566e-05
-0.000123314
1.70445e-05
-0.000112434
1.57166e-05
-9.75508e-05
1.37178e-05
-8.01671e-05
1.12492e-05
-6.18711e-05
8.54238e-06
-4.41403e-05
5.8275e-06
-2.81727e-05
3.30868e-06
-1.47835e-05
1.14114e-06
-4.39444e-06
-5.79421e-07
2.93812e-06
-1.81731e-06
6.87837e-06
-2.49617e-06
7.75667e-06
-2.56786e-06
7.0012e-06
-2.22929e-06
5.56294e-06
-1.74804e-06
3.90377e-06
-1.25473e-06
2.37132e-06
-8.10112e-07
1.18178e-06
-4.53853e-07
4.26261e-07
-2.05477e-07
8.66792e-08
-6.60903e-08
-1.1063e-08
-1.085e-05
1.03166e-06
-2.33513e-05
3.16534e-06
-3.85558e-05
5.59436e-06
-5.63345e-05
8.42503e-06
-7.54464e-05
1.15519e-05
-9.40877e-05
1.47245e-05
-0.000110322
1.76317e-05
-0.000122427
1.99654e-05
-0.000129147
2.14672e-05
-0.000129845
2.19651e-05
-0.00012456
2.13981e-05
-0.000113977
1.98223e-05
-9.92896e-05
1.73997e-05
-8.19944e-05
1.43772e-05
-6.36849e-05
1.10418e-05
-4.58513e-05
7.67945e-06
-2.97113e-05
4.54493e-06
-1.61029e-05
1.83376e-06
-5.47004e-06
-3.31104e-07
2.11121e-06
-1.90112e-06
6.26898e-06
-2.78471e-06
7.30886e-06
-2.92511e-06
6.67485e-06
-2.55789e-06
5.33328e-06
-2.00879e-06
3.75023e-06
-1.4404e-06
2.27558e-06
-9.26919e-07
1.12831e-06
-5.15958e-07
4.01502e-07
-2.30673e-07
7.718e-08
-7.21386e-08
-1.1365e-08
-1.02986e-05
1.17318e-06
-2.23933e-05
3.62142e-06
-3.73729e-05
6.45536e-06
-5.50972e-05
9.79976e-06
-7.43082e-05
1.35261e-05
-9.31895e-05
1.73372e-05
-0.000109788
2.08624e-05
-0.00012235
2.37287e-05
-0.000129582
2.56225e-05
-0.0001308
2.63321e-05
-0.000126
2.57762e-05
-0.00011582
2.40121e-05
-0.00010142
2.12248e-05
-8.42836e-05
1.76999e-05
-6.60073e-05
1.37755e-05
-4.80919e-05
9.79295e-06
-3.17739e-05
6.05739e-06
-1.79181e-05
2.80524e-06
-7.00008e-06
1.89565e-07
8.79103e-07
-1.7262e-06
5.31149e-06
-2.83774e-06
6.57303e-06
-3.08088e-06
6.11675e-06
-2.72381e-06
4.92487e-06
-2.14438e-06
3.46743e-06
-1.535e-06
2.09602e-06
-9.83028e-07
1.02788e-06
-5.43239e-07
3.55062e-07
-2.39529e-07
5.98427e-08
-7.20572e-08
-1.02032e-08
-9.64245e-06
1.28035e-06
-2.12488e-05
3.98264e-06
-3.59473e-05
7.1757e-06
-5.35858e-05
1.10029e-05
-7.28947e-05
1.53135e-05
-9.20398e-05
1.97625e-05
-0.000109047
2.39185e-05
-0.000122134
2.7346e-05
-0.000129966
2.96755e-05
-0.000131812
3.06537e-05
-0.000127612
3.0175e-05
-0.000117951
2.82923e-05
-0.000103944
2.52062e-05
-8.70542e-05
2.12382e-05
-6.88748e-05
1.67744e-05
-5.09166e-05
1.22084e-05
-3.44309e-05
7.89412e-06
-2.03121e-05
4.10853e-06
-9.07882e-06
1.03644e-06
-8.60016e-07
-1.24014e-06
3.90506e-06
-2.60621e-06
5.45776e-06
-2.99278e-06
5.24954e-06
-2.69377e-06
4.27176e-06
-2.12924e-06
2.99931e-06
-1.5178e-06
1.79123e-06
-9.62015e-07
8.58518e-07
-5.24737e-07
2.80937e-07
-2.27871e-07
3.44572e-08
-6.59421e-08
-7.92795e-09
-8.87632e-06
1.34772e-06
-1.99087e-05
4.234e-06
-3.42712e-05
7.73321e-06
-5.17935e-05
1.2006e-05
-7.1193e-05
1.68787e-05
-9.06183e-05
2.19586e-05
-0.000108073
2.67541e-05
-0.000121748
3.07692e-05
-0.000130268
3.35791e-05
-0.000132848
3.48866e-05
-0.00012937
3.45587e-05
-0.000120353
3.26388e-05
-0.000106858
2.93367e-05
-9.03195e-05
2.49999e-05
-7.23204e-05
2.00577e-05
-5.43782e-05
1.49543e-05
-3.77582e-05
1.00916e-05
-2.33841e-05
5.78808e-06
-1.18216e-05
2.26026e-06
-3.23214e-06
-3.89859e-07
1.9214e-06
-2.03764e-06
3.84454e-06
-2.61349e-06
3.97325e-06
-2.43048e-06
3.2977e-06
-1.93772e-06
2.28904e-06
-1.37238e-06
1.31623e-06
-8.51061e-07
5.91274e-07
-4.48916e-07
1.69564e-07
-1.88574e-07
2.08525e-09
-5.21357e-08
-4.77073e-09
-7.99112e-06
1.37053e-06
-1.8358e-05
4.36203e-06
-3.23282e-05
8.10729e-06
-4.97049e-05
1.27831e-05
-6.91835e-05
1.81901e-05
-8.88963e-05
2.38884e-05
-0.000106828
2.93282e-05
-0.000121147
3.39549e-05
-0.000130437
3.72894e-05
-0.000133857
3.89895e-05
-0.000131223
3.88904e-05
-0.000122987
3.70221e-05
-0.000110142
3.35973e-05
-9.40796e-05
2.89784e-05
-7.63672e-05
2.3631e-05
-5.85226e-05
1.80482e-05
-4.18277e-05
1.2678e-05
-2.72363e-05
7.8799e-06
-1.5354e-05
3.90289e-06
-6.38286e-06
8.70722e-07
-7.93639e-07
-1.0836e-06
1.59009e-06
-1.89524e-06
2.16506e-06
-1.89097e-06
1.91179e-06
-1.53776e-06
1.28084e-06
-1.08097e-06
6.38177e-07
-6.42337e-07
2.04246e-07
-3.1009e-07
1.01865e-08
-1.14702e-07
-3.57306e-08
-2.6611e-08
-2.52467e-10
-6.97805e-06
1.34387e-06
-1.65828e-05
4.35348e-06
-3.01007e-05
8.27908e-06
-4.72988e-05
1.33117e-05
-6.68404e-05
1.92219e-05
-8.68395e-05
2.55214e-05
-0.000105268
3.16057e-05
-0.000120275
3.68642e-05
-0.000130409
4.07648e-05
-0.000134771
4.29198e-05
-0.000133105
4.31295e-05
-0.000125791
4.14036e-05
-0.000113751
3.79522e-05
-9.83134e-05
3.3148e-05
-8.1019e-05
2.74827e-05
-6.33844e-05
2.14914e-05
-4.67047e-05
1.56676e-05
-3.19635e-05
1.04109e-05
-1.98e-05
6.00191e-06
-1.04619e-05
2.58657e-06
-4.40169e-06
3.02408e-07
-1.45846e-06
-7.93556e-07
-3.05571e-07
-1.03286e-06
1.46021e-08
-8.91497e-07
-8.11527e-08
-6.18042e-07
-2.57259e-07
-3.27189e-07
-3.0105e-07
-1.09254e-07
-1.97013e-07
-5.82111e-09
-7.51032e-08
1.32865e-08
6.41531e-09
-5.8256e-06
1.26279e-06
-1.45712e-05
4.19625e-06
-2.75808e-05
8.23286e-06
-4.45641e-05
1.35709e-05
-6.4145e-05
1.99454e-05
-8.44196e-05
2.68206e-05
-0.000103351
3.35404e-05
-0.000119076
3.94428e-05
-0.000130115
4.39472e-05
-0.00013551
4.66179e-05
-0.000134932
4.72152e-05
-0.000128685
4.57246e-05
-0.000117611
4.23481e-05
-0.000102966
3.74645e-05
-8.62479e-05
3.15811e-05
-6.89663e-05
2.52666e-05
-5.24264e-05
1.90573e-05
-3.76363e-05
1.33908e-05
-2.52676e-05
8.57939e-06
-1.56109e-05
4.79269e-06
-9.05222e-06
2.16394e-06
-5.43393e-06
7.33867e-07
-3.54863e-06
1.80701e-07
-2.47793e-06
3.68896e-08
-1.84384e-06
4.91707e-08
-1.37214e-06
1.13524e-07
-8.97932e-07
1.55133e-07
-4.28664e-07
1.3216e-07
-1.03456e-07
6.49391e-08
1.4934e-08
-4.51604e-06
1.12223e-06
-1.23019e-05
3.87737e-06
-2.47562e-05
7.95241e-06
-4.14891e-05
1.35423e-05
-6.10783e-05
2.0337e-05
-8.1606e-05
2.77548e-05
-0.000101033
3.50931e-05
-0.000117489
4.16437e-05
-0.000129473
4.67794e-05
-0.000135977
5.00162e-05
-0.000136598
5.10738e-05
-0.000131553
4.99107e-05
-0.000121608
4.67139e-05
-0.000107938
4.18614e-05
-9.19802e-05
3.58706e-05
-7.52222e-05
2.93325e-05
-5.89807e-05
2.28213e-05
-4.42787e-05
1.6812e-05
-3.1814e-05
1.16436e-05
-2.1921e-05
7.50794e-06
-1.4851e-05
4.52802e-06
-1.04197e-05
2.71701e-06
-7.61612e-06
1.77475e-06
-5.5949e-06
1.26821e-06
-4.01677e-06
9.44314e-07
-2.68788e-06
7.03013e-07
-1.53707e-06
4.93469e-07
-6.29878e-07
2.93998e-07
-9.06376e-08
1.21e-07
2.31137e-08
-3.0286e-06
9.17768e-07
-9.74795e-06
3.38634e-06
-2.16102e-05
7.42667e-06
-3.80596e-05
1.3215e-05
-5.76195e-05
2.03815e-05
-7.8365e-05
2.83015e-05
-9.82635e-05
3.62314e-05
-0.000115446
4.34202e-05
-0.000128391
4.91962e-05
-0.000136054
5.30345e-05
-0.000137963
5.46181e-05
-0.00013425
5.38716e-05
-0.00012559
5.09586e-05
-0.000113079
4.62504e-05
-9.80799e-05
4.027e-05
-8.20417e-05
3.36227e-05
-6.62821e-05
2.69085e-05
-5.18388e-05
2.06367e-05
-3.94215e-05
1.51745e-05
-2.93952e-05
1.07311e-05
-2.18114e-05
7.40485e-06
-1.64159e-05
5.16876e-06
-1.24728e-05
3.75814e-06
-9.27007e-06
2.80112e-06
-6.5216e-06
2.06299e-06
-4.11803e-06
1.44432e-06
-2.11679e-06
9.11234e-07
-6.99521e-07
4.76666e-07
1.477e-08
1.7667e-07
2.9853e-08
-1.34364e-06
6.4565e-07
-6.88857e-06
2.71557e-06
-1.81396e-05
6.65068e-06
-3.42743e-05
1.25851e-05
-5.37583e-05
2.00696e-05
-7.46696e-05
2.84419e-05
-9.49934e-05
3.69225e-05
-0.00011287
4.47229e-05
-0.000126768
5.11339e-05
-0.000135609
5.55956e-05
-0.00013887
5.77564e-05
-0.000136592
5.75033e-05
-0.000129359
5.49724e-05
-0.000118178
5.05222e-05
-0.000104335
4.4672e-05
-8.92264e-05
3.80352e-05
-7.4149e-05
3.12302e-05
-6.01491e-05
2.47908e-05
-4.79446e-05
1.91092e-05
-3.79075e-05
1.44136e-05
-2.9814e-05
1.07632e-05
-2.33005e-05
8.06992e-06
-1.79719e-05
6.11364e-06
-1.33213e-05
4.61084e-06
-9.15084e-06
3.36847e-06
-5.4472e-06
2.29758e-06
-2.43562e-06
1.3813e-06
-4.86528e-07
6.74259e-07
2.7289e-07
2.48111e-07
4.56295e-08
3.02971e-07
4.06734e-07
-3.86337e-06
2.02228e-06
-1.43228e-05
5.67288e-06
-3.01247e-05
1.16419e-05
-4.94779e-05
1.93966e-05
-7.04816e-05
2.8165e-05
-9.11567e-05
3.71442e-05
-0.000109666
4.55185e-05
-0.000124477
5.25479e-05
-0.000134491
5.76404e-05
-0.000139132
6.0412e-05
-0.000138367
6.07176e-05
-0.000132682
5.86612e-05
-0.000122991
5.45806e-05
-0.000110493
4.89849e-05
-9.65161e-05
4.24834e-05
-8.23263e-05
3.57036e-05
-6.8959e-05
2.92009e-05
-5.71296e-05
2.33873e-05
-4.72024e-05
1.8503e-05
-3.86142e-05
1.4558e-05
-3.08339e-05
1.13861e-05
-2.38569e-05
8.8098e-06
-1.74639e-05
6.65989e-06
-1.15846e-05
4.80674e-06
-6.35512e-06
3.1933e-06
-2.23896e-06
1.84236e-06
1.56947e-07
8.62742e-07
7.61178e-07
3.67703e-07
8.16408e-08
8.06439e-07
-4.60678e-09
4.9105e-06
-3.02289e-08
1.86478e-05
-1.0517e-07
4.85308e-05
-2.00983e-07
9.43106e-05
-1.82205e-07
0.000146244
1.45759e-07
0.000192678
8.05337e-07
0.000228675
1.73211e-06
0.000256466
2.80946e-06
0.000276864
3.53581e-06
0.000290214
3.77274e-06
0.00030182
3.48183e-06
0.000315077
2.66411e-06
0.000329482
1.62133e-06
0.000343939
3.04322e-07
0.000357196
-1.32146e-06
0.000367852
-3.09299e-06
0.000374596
-4.87137e-06
0.000376382
-6.56296e-06
0.000372393
-8.02183e-06
0.000362106
-9.17094e-06
0.000345281
-9.9405e-06
0.000321871
-1.02816e-05
0.000292066
-1.02253e-05
0.00025619
-9.74575e-06
0.000214635
-8.84635e-06
0.000167818
-7.54036e-06
0.000116161
-5.84312e-06
5.99305e-05
-3.7646e-06
-1.32487e-06
8.56028e-07
-9.89738e-09
5.23437e-06
-6.29572e-08
1.9624e-05
-2.04148e-07
5.0243e-05
-3.63748e-07
9.60298e-05
-2.57219e-07
0.000146839
4.17126e-07
0.000191553
1.72084e-06
0.000226025
3.51064e-06
0.000252814
5.43921e-06
0.000273179
6.81798e-06
0.000287079
7.26029e-06
0.000299143
6.65006e-06
0.000312906
5.12457e-06
0.000327824
3.03634e-06
0.000342779
3.83316e-07
0.000356464
-2.8238e-06
0.000367476
-6.31143e-06
0.000374479
-9.78394e-06
0.000376415
-1.30708e-05
0.000372503
-1.59243e-05
0.000362214
-1.81591e-05
0.000345346
-1.9682e-05
0.000321905
-2.03878e-05
0.00029207
-2.0274e-05
0.000256164
-1.93178e-05
0.000214583
-1.75306e-05
0.000167749
-1.49388e-05
0.000116088
-1.15727e-05
5.98774e-05
-7.45267e-06
-2.62162e-06
9.29337e-07
-1.80984e-08
5.68184e-06
-1.03014e-07
2.08077e-05
-3.0938e-07
5.17034e-05
-4.93011e-07
9.60043e-05
-2.1969e-07
0.000143481
8.77558e-07
0.000184521
2.81474e-06
0.000216421
5.29396e-06
0.000241947
7.79311e-06
0.000262445
9.64911e-06
0.000277441
1.02142e-05
0.000290742
9.26422e-06
0.000305738
7.0758e-06
0.000321821
3.95005e-06
0.000337833
-6.01256e-09
0.000352434
-4.69454e-06
0.000364212
-9.76177e-06
0.000371823
-1.47808e-05
0.000374214
-1.95168e-05
0.000370649
-2.36625e-05
0.000360645
-2.69266e-05
0.000344002
-2.91506e-05
0.000320753
-3.01946e-05
0.000291086
-3.00095e-05
0.00025533
-2.85797e-05
0.00021389
-2.59248e-05
0.000167197
-2.20837e-05
0.000115689
-1.71006e-05
5.96565e-05
-1.10067e-05
-3.86988e-06
1.01624e-06
-2.80047e-08
6.17261e-06
-1.46714e-07
2.18464e-05
-3.99451e-07
5.20525e-05
-5.3595e-07
9.29931e-05
-1.11143e-08
0.000135165
1.58182e-06
0.00017128
4.09856e-06
0.00020014
7.01591e-06
0.000224374
9.80564e-06
0.000245108
1.18785e-05
0.000261625
1.24011e-05
0.000276903
1.10492e-05
0.000293793
8.19832e-06
0.000311584
4.10477e-06
0.000329109
-1.05526e-06
0.000344997
-7.06266e-06
0.000357849
-1.35251e-05
0.000366373
-1.99446e-05
0.000369558
-2.60056e-05
0.000366669
-3.1313e-05
0.000357261
-3.55073e-05
0.000341133
-3.83451e-05
0.000318324
-3.96593e-05
0.000289046
-3.9372e-05
0.000253641
-3.74649e-05
0.000212528
-3.39629e-05
0.000166151
-2.89152e-05
0.000114964
-2.23785e-05
5.92751e-05
-1.43949e-05
-5.05845e-06
1.11399e-06
-3.74935e-08
6.68926e-06
-1.84657e-07
2.26071e-05
-4.33001e-07
5.11223e-05
-4.11999e-07
8.7319e-05
4.42024e-07
0.000123264
2.46973e-06
0.000154242
5.38461e-06
0.000180111
8.52635e-06
0.00020306
1.14059e-05
0.00022403
1.34306e-05
0.000242257
1.37068e-05
0.000259817
1.18949e-05
0.000278906
8.35132e-06
0.000298698
3.36484e-06
0.000317953
-2.83485e-06
0.000335318
-9.98952e-06
0.000349439
-1.768e-05
0.000359099
-2.5364e-05
0.000363302
-3.26029e-05
0.000361311
-3.89185e-05
0.000352682
-4.39e-05
0.000337235
-4.72448e-05
0.000315022
-4.87528e-05
0.000286274
-4.83228e-05
0.000251351
-4.59294e-05
0.000210686
-4.16002e-05
0.000164742
-3.53921e-05
0.000113992
-2.73729e-05
5.87665e-05
-1.7595e-05
-6.17937e-06
1.22437e-06
-4.88683e-08
7.15632e-06
-2.12336e-07
2.27686e-05
-3.88115e-07
4.84802e-05
-9.52956e-08
7.91053e-05
1.13286e-06
0.000108817
3.43737e-06
0.000135086
6.47702e-06
0.000158335
9.63038e-06
0.000180207
1.24073e-05
0.00020144
1.41905e-05
0.000221358
1.4084e-05
0.000241214
1.17758e-05
0.000262469
7.55708e-06
0.000284217
1.75425e-06
0.000305201
-5.37113e-06
0.000324109
-1.35541e-05
0.000339615
-2.23194e-05
0.00035053
-3.10917e-05
0.000355857
-3.93222e-05
0.000354871
-4.6477e-05
0.000347134
-5.2096e-05
0.000332479
-5.58305e-05
0.000310973
-5.74489e-05
0.000282863
-5.68291e-05
0.000248525
-5.39373e-05
0.000208411
-4.88006e-05
0.000163003
-4.14816e-05
0.000112793
-3.20571e-05
5.81399e-05
-2.05894e-05
-7.22638e-06
1.35176e-06
-6.24714e-08
7.46707e-06
-2.20347e-07
2.2048e-05
-2.53815e-07
4.40473e-05
3.64616e-07
6.90056e-05
1.92145e-06
9.32148e-05
4.33097e-06
0.000115581
7.25952e-06
0.000136723
1.02047e-05
0.000157742
1.26937e-05
0.000179208
1.41074e-05
0.000200605
1.35561e-05
0.000222531
1.07207e-05
0.000245704
5.8685e-06
0.00026918
-6.84836e-07
0.000291762
-8.67619e-06
0.000312144
-1.77732e-05
0.000329009
-2.74563e-05
0.000341164
-3.71207e-05
0.000347624
-4.6154e-05
0.000347669
-5.39735e-05
0.000340867
-6.00775e-05
0.00032706
-6.40801e-05
0.000306325
-6.57221e-05
0.000278923
-6.4863e-05
0.000245246
-6.14592e-05
0.000205763
-5.55357e-05
0.000160974
-4.71582e-05
0.000111394
-3.64108e-05
5.74093e-05
-2.3365e-05
-8.19487e-06
1.4732e-06
-7.24709e-08
7.45805e-06
-1.81589e-07
2.02935e-05
-1.16378e-08
3.82221e-05
8.97742e-07
5.80875e-05
2.64059e-06
7.78949e-05
4.99313e-06
9.73018e-05
7.64846e-06
0.000116836
1.02163e-05
0.000137161
1.22937e-05
0.000158745
1.32511e-05
0.00018127
1.22056e-05
0.000204843
8.80348e-06
0.000229575
3.31155e-06
0.000254504
-3.95177e-06
0.000278453
-1.27217e-05
0.000300117
-2.26006e-05
0.000318185
-3.30433e-05
0.00033147
-4.34172e-05
0.000338986
-5.30697e-05
0.000340016
-6.1382e-05
0.000334129
-6.78201e-05
0.000321172
-7.19698e-05
0.000301229
-7.35489e-05
0.000274571
-7.24009e-05
0.000241603
-6.84721e-05
0.000202808
-6.17841e-05
0.000158703
-5.24033e-05
0.000109826
-4.04197e-05
5.65901e-05
-2.59127e-05
-9.08176e-06
1.5379e-06
-7.1201e-08
6.97937e-06
-8.05335e-08
1.7615e-05
3.08546e-07
3.17578e-05
1.39386e-06
4.75238e-05
3.13908e-06
6.40712e-05
5.29652e-06
8.13457e-05
7.58478e-06
9.96433e-05
9.69188e-06
0.000119371
1.12773e-05
0.000140942
1.17085e-05
0.000164226
1.01062e-05
0.000188985
6.09111e-06
0.000214866
-4.86502e-08
0.0002409
-7.98218e-06
0.000265905
-1.7433e-05
0.000288582
-2.79678e-05
0.00030763
-3.90181e-05
0.00032186
-4.99304e-05
0.000330288
-6.00277e-05
0.000332195
-6.86679e-05
0.000327151
-7.52951e-05
0.000315
-7.9475e-05
0.000295831
-8.0908e-05
0.000269921
-7.94238e-05
0.000237682
-7.49594e-05
0.00019961
-6.75313e-05
0.000156237
-5.72054e-05
0.00010812
-4.40754e-05
5.56984e-05
-2.82275e-05
-9.88546e-06
1.49933e-06
-5.44739e-08
6.07073e-06
5.48554e-08
1.44784e-05
6.00043e-07
2.55474e-05
1.71584e-06
3.83083e-05
3.31855e-06
5.25521e-05
5.19224e-06
6.82803e-05
7.08179e-06
8.56058e-05
8.70575e-06
0.000104808
9.72786e-06
0.000126256
9.5475e-06
0.000149971
7.3185e-06
0.000175481
2.66269e-06
0.000202104
-4.11689e-06
0.000228867
-1.26776e-05
0.000254587
-2.27228e-05
0.000277972
-3.37947e-05
0.000297729
-4.53088e-05
0.000312673
-5.65995e-05
0.00032182
-6.69782e-05
0.000324452
-7.57913e-05
0.000320133
-8.24713e-05
0.000308708
-8.65716e-05
0.000290262
-8.77808e-05
0.000265076
-8.59175e-05
0.000233565
-8.09101e-05
0.000196231
-7.27693e-05
0.000153621
-6.15588e-05
0.000106305
-4.73744e-05
5.47498e-05
-3.03079e-05
-1.06057e-05
1.34429e-06
-2.37302e-08
4.95724e-06
1.85349e-07
1.14853e-05
7.79382e-07
2.03095e-05
1.80707e-06
3.10185e-05
3.1916e-06
4.36527e-05
4.74538e-06
5.82263e-05
6.2235e-06
7.4804e-05
7.33464e-06
9.35614e-05
7.72118e-06
0.000114819
6.84073e-06
0.000138694
3.91922e-06
0.000164577
-1.3961e-06
0.000191578
-8.80373e-06
0.000218716
-1.79456e-05
0.000244814
-2.85017e-05
0.000268592
-3.99974e-05
0.000288769
-5.18391e-05
0.000304168
-6.33588e-05
0.000313812
-7.38673e-05
0.000316984
-8.27098e-05
0.000313245
-8.93167e-05
0.000302436
-9.32367e-05
0.000284638
-9.41517e-05
0.000260129
-9.18721e-05
0.000229325
-8.63186e-05
0.00019273
-7.74955e-05
0.000150898
-6.54631e-05
0.000104412
-5.03179e-05
5.37592e-05
-3.21557e-05
-1.12432e-05
1.09532e-06
1.64219e-08
3.87383e-06
2.8739e-07
9.05146e-06
8.37508e-07
1.63897e-05
1.71099e-06
2.57704e-05
2.84927e-06
3.73097e-05
4.06337e-06
5.10496e-05
5.09464e-06
6.70785e-05
5.62966e-06
8.54845e-05
5.3123e-06
0.000106533
3.65588e-06
0.000130376
-1.68042e-08
0.000156337
-6.0116e-06
0.000183409
-1.40304e-05
0.000210608
-2.37019e-05
0.000236769
-3.46847e-05
0.000260633
-4.64932e-05
0.000280938
-5.85327e-05
0.000296525
-7.01419e-05
0.00030643
-8.064e-05
0.00030994
-8.93805e-05
0.000306617
-9.57997e-05
0.000296296
-9.94489e-05
0.000279054
-0.000100008
0.00025516
-9.72814e-05
0.000225026
-9.11836e-05
0.000189155
-8.17122e-05
0.000148104
-6.89228e-05
0.000102465
-5.29109e-05
5.27399e-05
-3.3775e-05
-1.17998e-05
8.0675e-07
5.86925e-08
3.01729e-06
3.46051e-07
7.37514e-06
8.01427e-07
1.38462e-05
1.50133e-06
2.2442e-05
2.37083e-06
3.33029e-05
3.20339e-06
4.65074e-05
3.72355e-06
6.21606e-05
3.61045e-06
8.03187e-05
2.52645e-06
0.000101185
3.4246e-08
0.000124878
-4.43843e-06
0.000150701
-1.11271e-05
0.000177595
-1.9731e-05
0.00020458
-2.98712e-05
0.000230519
-4.11919e-05
0.000254185
-5.32029e-05
0.000274339
-6.53148e-05
0.00028985
-7.68829e-05
0.000299778
-8.72419e-05
0.000303419
-9.5761e-05
0.00030034
-0.00010189
0.000290371
-0.000105189
0.00027358
-0.000105339
0.000250229
-0.000102143
0.000220719
-9.5508e-05
0.000185549
-8.54256e-05
0.000145273
-7.19457e-05
0.000100487
-5.51613e-05
5.17035e-05
-3.51719e-05
-1.2278e-05
5.81333e-07
8.85528e-08
2.57513e-06
3.67382e-07
6.5967e-06
7.0549e-07
1.26818e-05
1.22715e-06
2.09107e-05
1.78452e-06
3.14247e-05
2.1649e-06
4.43455e-05
2.0956e-06
5.97878e-05
1.27045e-06
7.78008e-05
-6.19829e-07
9.85369e-05
-3.98156e-06
0.00012203
-9.29822e-06
0.000147555
-1.66903e-05
0.000174068
-2.58377e-05
0.0002006
-3.63719e-05
0.000226054
-4.79319e-05
0.000249256
-6.00402e-05
0.000269001
-7.21126e-05
0.000284185
-8.35177e-05
0.000293906
-9.36202e-05
0.000297478
-0.00010181
0.000294471
-0.000107558
0.000284716
-0.000110438
0.000268269
-0.000110137
0.000245382
-0.000106456
0.000216445
-9.92976e-05
0.000181946
-8.86454e-05
0.000142432
-7.4543e-05
9.84966e-05
-5.70795e-05
5.06599e-05
-3.63543e-05
-1.26807e-05
6.91847e-07
2.35106e-08
2.86645e-06
4.0573e-07
6.9151e-06
6.06027e-07
1.29411e-05
8.78124e-07
2.10893e-05
1.04203e-06
3.15104e-05
8.86352e-07
4.43546e-05
1.50595e-07
5.97375e-05
-1.44397e-06
7.76934e-05
-4.17404e-06
9.83688e-05
-8.44511e-06
0.000121641
-1.46442e-05
0.000146732
-2.27208e-05
0.00017269
-3.23479e-05
0.000198559
-4.31962e-05
0.000223291
-5.48949e-05
0.000245771
-6.69868e-05
0.000264851
-7.89034e-05
0.000279465
-9.00281e-05
0.000288751
-9.9762e-05
0.000292056
-0.00010753
0.000288961
-0.000112822
0.000279289
-0.000115225
0.000263089
-0.000114435
0.000240598
-0.000110258
0.00021219
-0.00010259
0.000178338
-9.1408e-05
0.000139578
-7.67477e-05
9.64961e-05
-5.86931e-05
4.96132e-05
-3.73414e-05
-1.30153e-05
1.50968e-06
2.83641e-07
-1.26199e-06
1.55088e-06
-1.0716e-05
4.7316e-06
-2.6515e-05
1.04394e-05
-4.64315e-05
1.83268e-05
-6.8249e-05
2.7443e-05
-8.9984e-05
3.68658e-05
-0.000109773
4.57727e-05
-0.000126034
5.33991e-05
-0.000137615
5.9123e-05
-0.000143875
6.25343e-05
-0.000144703
6.34579e-05
-0.000140507
6.19639e-05
-0.000132137
5.83604e-05
-0.000120738
5.31392e-05
-0.000107602
4.68989e-05
-9.3989e-05
4.02642e-05
-8.09519e-05
3.38013e-05
-6.92199e-05
2.79419e-05
-5.91403e-05
2.29371e-05
-4.97415e-05
1.87354e-05
-4.02079e-05
1.5071e-05
-3.09625e-05
1.18001e-05
-2.21965e-05
8.89547e-06
-1.40271e-05
6.3201e-06
-6.84572e-06
4.07465e-06
-1.43363e-06
2.2451e-06
1.42474e-06
9.81309e-07
1.88521e-06
3.74396e-07
2.05772e-07
8.1493e-07
2.25476e-06
1.87186e-07
6.43708e-07
1.24181e-06
-7.20192e-06
4.0496e-06
-2.19677e-05
9.25813e-06
-4.18746e-05
1.69203e-05
-6.41612e-05
2.62344e-05
-8.65906e-05
3.60565e-05
-0.000107338
4.54485e-05
-0.000124807
5.36381e-05
-0.000137819
5.99825e-05
-0.000145684
6.40499e-05
-0.000148218
6.5634e-05
-0.000145738
6.47713e-05
-0.000139004
6.17364e-05
-0.000129084
5.69921e-05
-0.000117202
5.11209e-05
-0.000104567
4.47411e-05
-9.22118e-05
3.8416e-05
-8.08758e-05
3.25873e-05
-7.08855e-05
2.75259e-05
-6.08644e-05
2.31284e-05
-4.95251e-05
1.89909e-05
-3.77247e-05
1.4969e-05
-2.63062e-05
1.12197e-05
-1.5656e-05
7.84359e-06
-6.49778e-06
4.91792e-06
1.48765e-07
2.58979e-06
3.5721e-06
1.00268e-06
4.25537e-06
1.662e-07
-1.86961e-07
3.67566e-06
2.94549e-06
5.26591e-08
2.0926e-06
8.82302e-07
-4.48265e-06
3.48231e-06
-1.76036e-05
8.30694e-06
-3.66265e-05
1.54766e-05
-5.90746e-05
2.4615e-05
-8.21273e-05
3.46845e-05
-0.000103741
4.45128e-05
-0.000122349
5.32191e-05
-0.000136749
6.01546e-05
-0.000146217
6.48689e-05
-0.000150497
6.71306e-05
-0.000149813
6.69413e-05
-0.000144831
6.45371e-05
-0.000136524
6.03499e-05
-0.000126035
5.49345e-05
-0.000114513
4.88918e-05
-0.000102946
4.27805e-05
-9.20773e-05
3.70447e-05
-8.22712e-05
3.19816e-05
-7.19296e-05
2.7495e-05
-5.87747e-05
2.29786e-05
-4.4061e-05
1.81814e-05
-2.97861e-05
1.35324e-05
-1.65668e-05
9.33527e-06
-5.46234e-06
5.72807e-06
2.48875e-06
2.89593e-06
6.84322e-06
9.46345e-07
8.32457e-06
-1.67116e-07
-7.47241e-07
8.42349e-06
3.777e-06
-1.17648e-07
3.67043e-06
4.0594e-07
-2.09816e-06
2.77479e-06
-1.38728e-05
7.37711e-06
-3.13399e-05
1.41579e-05
-5.31058e-05
2.28541e-05
-7.64811e-05
3.28202e-05
-9.88589e-05
4.29404e-05
-0.000118491
5.21108e-05
-0.000134185
5.9586e-05
-0.000145189
6.49127e-05
-0.000151178
6.78432e-05
-0.000152282
6.83405e-05
-0.000149075
6.65986e-05
-0.000142422
6.30139e-05
-0.000133368
5.81095e-05
-0.000122992
5.24589e-05
-0.000112224
4.66056e-05
-0.000101789
4.09919e-05
-9.21354e-05
3.59324e-05
-8.17029e-05
3.13546e-05
-6.71458e-05
2.6573e-05
-4.97064e-05
2.12223e-05
-3.25395e-05
1.57825e-05
-1.67923e-05
1.07711e-05
-3.80025e-06
6.49901e-06
5.65558e-06
3.15156e-06
1.14384e-05
7.74812e-07
1.44043e-05
-7.15357e-07
-1.63789e-06
1.58427e-05
4.7719e-06
-3.27496e-07
5.59403e-06
-1.88641e-07
6.53666e-07
1.85439e-06
-1.02123e-05
6.19438e-06
-2.63406e-05
1.27171e-05
-4.67632e-05
2.10434e-05
-6.97109e-05
3.06665e-05
-9.25718e-05
4.07914e-05
-0.000113084
5.03061e-05
-0.000129902
5.82483e-05
-0.000142307
6.41202e-05
-0.000149893
6.76841e-05
-0.000152684
6.88482e-05
-0.000151165
6.7763e-05
-0.000146097
6.47882e-05
-0.000138422
6.04111e-05
-0.000129119
5.51749e-05
-0.000119046
4.95943e-05
-0.000108877
4.40948e-05
-9.90538e-05
3.8976e-05
-8.7941e-05
3.41021e-05
-7.24414e-05
2.89208e-05
-5.35446e-05
2.32733e-05
-3.42301e-05
1.75061e-05
-1.63196e-05
1.2019e-05
-1.41127e-06
7.18696e-06
9.81792e-06
3.2852e-06
1.74407e-05
4.08802e-07
2.23385e-05
-1.54739e-06
-2.90019e-06
2.54605e-05
5.96508e-06
-5.79799e-07
7.90881e-06
-9.09472e-07
4.01566e-06
7.20065e-07
-5.89085e-06
4.69209e-06
-2.10276e-05
1.08982e-05
-4.02103e-05
1.89276e-05
-6.21242e-05
2.82225e-05
-8.4885e-05
3.81559e-05
-0.000106013
4.78169e-05
-0.000123715
5.61255e-05
-0.000137309
6.24635e-05
-0.000146302
6.65964e-05
-0.000150579
6.83724e-05
-0.00015056
6.78976e-05
-0.00014689
6.54985e-05
-0.000140427
6.16247e-05
-0.000132039
5.67928e-05
-0.000122483
5.14799e-05
-0.000112344
4.60797e-05
-0.000101941
4.08614e-05
-8.93703e-05
3.56267e-05
-7.27383e-05
2.99225e-05
-5.34028e-05
2.38837e-05
-3.34573e-05
1.79828e-05
-1.44374e-05
1.24494e-05
2.11493e-06
7.42201e-06
1.52312e-05
3.1253e-06
2.4915e-05
-2.65205e-07
3.19343e-05
-2.76363e-06
-4.61294e-06
3.68873e-05
7.3863e-06
-8.75437e-07
1.0671e-05
-1.75927e-06
8.04382e-06
-6.32421e-07
-6.59623e-07
2.87305e-06
-1.47084e-05
8.64779e-06
-3.28445e-05
1.62937e-05
-5.36693e-05
2.52422e-05
-7.57567e-05
3.48693e-05
-9.70232e-05
4.44479e-05
-0.000115395
5.30395e-05
-0.000130004
5.98926e-05
-0.000140136
6.45744e-05
-0.000145595
6.68663e-05
-0.000146799
6.69161e-05
-0.000144222
6.50151e-05
-0.000138719
6.15778e-05
-0.000131036
5.71164e-05
-0.000121817
5.20569e-05
-0.000111549
4.6758e-05
-0.000100449
4.14712e-05
-8.65771e-05
3.60038e-05
-6.87079e-05
2.99326e-05
-4.88576e-05
2.34984e-05
-2.89778e-05
1.73427e-05
-9.84002e-06
1.17304e-05
7.57171e-06
6.67677e-06
2.23013e-05
2.24107e-06
3.40246e-05
-1.49376e-06
4.31748e-05
-4.49348e-06
-6.87706e-06
4.99785e-05
9.05883e-06
-1.21308e-06
1.39252e-05
-2.73425e-06
1.28007e-05
-2.19618e-06
5.54677e-06
7.46428e-07
-7.13926e-06
5.97735e-06
-2.4054e-05
1.31113e-05
-4.37524e-05
2.15886e-05
-6.481e-05
3.07713e-05
-8.56175e-05
4.00171e-05
-0.000104352
4.86296e-05
-0.000119877
5.59336e-05
-0.000131032
6.12793e-05
-0.000137499
6.42403e-05
-0.000139563
6.48205e-05
-0.000137652
6.32731e-05
-0.00013281
6.01564e-05
-0.000125619
5.60189e-05
-0.000116602
5.11993e-05
-0.000106176
4.60188e-05
-9.45302e-05
4.07207e-05
-7.99486e-05
3.51367e-05
-6.14066e-05
2.88883e-05
-4.1179e-05
2.22703e-05
-2.12787e-05
1.59496e-05
-2.19292e-06
1.01867e-05
1.55022e-05
5.01465e-06
3.12527e-05
4.63836e-07
4.46823e-05
-3.47858e-06
5.59491e-05
-6.85583e-06
-9.75133e-06
6.47834e-05
1.10032e-05
-1.59065e-06
1.77111e-05
-3.82845e-06
1.83405e-05
-3.96139e-06
1.27931e-05
-1.67093e-06
1.75139e-06
2.91208e-06
-1.36279e-05
9.41116e-06
-3.19263e-05
1.72836e-05
-5.16881e-05
2.59054e-05
-7.14828e-05
3.46475e-05
-8.99137e-05
4.29223e-05
-0.000105819
5.0193e-05
-0.000117901
5.59279e-05
-0.000125576
5.96947e-05
-0.000128492
6.1146e-05
-0.000126964
6.01674e-05
-0.000122439
5.73459e-05
-0.000115552
5.34567e-05
-0.000106636
4.88603e-05
-9.60889e-05
4.38104e-05
-8.41015e-05
3.85549e-05
-6.92508e-05
3.29576e-05
-5.07049e-05
2.669e-05
-3.06537e-05
2.0053e-05
-1.09087e-05
1.36996e-05
8.07588e-06
7.89204e-06
2.58242e-05
2.6539e-06
4.20307e-05
-2.00971e-06
5.65899e-05
-6.12937e-06
6.96298e-05
-9.76933e-06
-1.29906e-05
8.03379e-05
1.32374e-05
-2.004e-06
2.20637e-05
-5.03013e-06
2.47141e-05
-5.9103e-06
2.11355e-05
-4.35498e-06
1.20231e-05
-5.13116e-07
-1.5046e-06
5.24044e-06
-1.80731e-05
1.23839e-05
-3.62524e-05
2.03217e-05
-5.46551e-05
2.84566e-05
-7.2067e-05
3.62211e-05
-8.73942e-05
4.30969e-05
-9.9718e-05
4.87037e-05
-0.000108344
5.27637e-05
-0.00011249
5.49968e-05
-0.000111819
5.50609e-05
-0.00010758
5.30097e-05
-0.000100817
4.94829e-05
-9.18706e-05
4.50574e-05
-8.12363e-05
4.01249e-05
-6.90752e-05
3.4948e-05
-5.42966e-05
2.94128e-05
-3.62168e-05
2.32478e-05
-1.6744e-05
1.67278e-05
2.49948e-06
1.04672e-05
2.10774e-05
4.72556e-06
3.86257e-05
-4.82677e-07
5.49423e-05
-5.17168e-06
7.00378e-05