/*--------------------------------*- C++ -*----------------------------------*\
| =========                 |                                                 |
| \\      /  F ield         | OpenFOAM: The Open Source CFD Toolbox           |
|  \\    /   O peration     | Version:  dev                                   |
|   \\  /    A nd           | Web:      www.OpenFOAM.org                      |
|    \\/     M anipulation  |                                                 |
\*---------------------------------------------------------------------------*/
FoamFile
{
    version     2.0;
    format      ascii;
    class       surfaceScalarField;
    location    "0.47";
    object      phi;
}
// * * * * * * * * * * * * * * * * * * * * * * * * * * * * * * * * * * * * * //

dimensions      [0 3 -1 0 0 0 0];

internalField   nonuniform List<scalar> 
879
(
-0.185999
0.0184853
-0.203446
0.0174385
-0.21956
0.0161054
-0.234034
0.0144671
-0.246544
0.0125034
-0.256751
0.010202
-0.264317
0.00756222
-0.268918
0.00459823
-0.270248
0.00133041
-0.268001
-0.0022451
-0.261933
-0.00606376
-0.251912
-0.0100159
-0.237826
-0.0140776
-0.219526
-0.0182917
-0.196748
-0.022767
-0.16896
-0.0277761
-0.134727
-0.0342204
-0.0899702
-0.0447433
-0.0258418
-0.0641135
-0.11286
-0.189981
0.0362818
-0.206716
0.0341653
-0.222091
0.0314723
-0.235791
0.0281592
-0.247481
0.0241864
-0.256813
0.0195292
-0.26344
0.0141857
-0.267029
0.00818496
-0.267281
0.00158178
-0.263969
-0.00555468
-0.25695
-0.0130784
-0.246121
-0.0208393
-0.231381
-0.0288105
-0.212591
-0.0370722
-0.189519
-0.045829
-0.16169
-0.0555933
-0.128077
-0.06782
-0.0867611
-0.0860459
-0.0339946
-0.116865
-0.175782
-0.184626
0.0528407
-0.200221
0.0497518
-0.214554
0.0457969
-0.227309
0.0409069
-0.238149
0.0350195
-0.246721
0.0280959
-0.252672
0.020133
-0.255663
0.0111746
-0.255404
0.00132176
-0.251671
-0.00928542
-0.244351
-0.0203947
-0.233372
-0.031812
-0.218675
-0.0435007
-0.200168
-0.0555701
-0.177693
-0.068293
-0.150959
-0.0823159
-0.11949
-0.0992766
-0.0827886
-0.122733
-0.0409545
-0.158685
-0.21442
-0.175026
0.0681451
-0.18952
0.0642376
-0.202897
0.0591666
-0.21483
0.0528314
-0.224958
0.0451414
-0.232908
0.0360402
-0.238304
0.025525
-0.240794
0.013663
-0.240081
0.000608808
-0.235984
-0.0133811
-0.228453
-0.0279221
-0.217474
-0.0427845
-0.20304
-0.0579273
-0.185114
-0.0734875
-0.163622
-0.0897747
-0.138477
-0.10745
-0.109709
-0.128032
-0.0778487
-0.15458
-0.0449261
-0.191593
-0.240304
-0.162322
0.0821776
-0.175694
0.0776015
-0.188092
0.0715564
-0.199171
0.0639028
-0.208554
0.0545178
-0.215844
0.0433253
-0.220649
0.0303254
-0.222609
0.015621
-0.221451
-0.000549204
-0.217039
-0.0177918
-0.209385
-0.035572
-0.198553
-0.0536109
-0.18459
-0.0718826
-0.167507
-0.0905622
-0.147301
-0.109971
-0.124056
-0.130683
-0.0981906
-0.153885
-0.0708891
-0.181868
-0.0448813
-0.217586
-0.258784
-0.146787
0.0948926
-0.15898
0.0897859
-0.170336
0.0829044
-0.180504
0.0740632
-0.189094
0.0631009
-0.19569
0.0499167
-0.199883
0.0345136
-0.201307
0.0170427
-0.199705
-0.00215151
-0.195003
-0.0224919
-0.187308
-0.0432634
-0.176764
-0.0641495
-0.16347
-0.0851694
-0.147465
-0.106559
-0.128791
-0.128634
-0.107653
-0.15181
-0.0847149
-0.17681
-0.0615
-0.205069
-0.0407938
-0.238278
-0.272487
-0.128559
0.106228
-0.139502
0.100721
-0.149747
0.0931415
-0.158943
0.0832517
-0.166693
0.0708434
-0.172563
0.0557818
-0.176125
0.0380714
-0.17701
0.0179253
-0.174974
-0.00418857
-0.17002
-0.0274439
-0.162373
-0.0509075
-0.152262
-0.0742552
-0.139825
-0.0975989
-0.12511
-0.121265
-0.108175
-0.14556
-0.0892818
-0.170692
-0.0692232
-0.196857
-0.0496237
-0.224656
-0.0330507
-0.254836
-0.282797
-0.107788
0.11611
-0.117403
0.110329
-0.126463
0.102194
-0.134629
0.0914094
-0.141502
0.0777101
-0.146635
0.0609095
-0.149571
0.0410031
-0.149933
0.0182848
-0.147482
-0.00664005
-0.142321
-0.0326029
-0.134817
-0.0584084
-0.125285
-0.0837822
-0.113881
-0.108996
-0.100635
-0.134503
-0.0855932
-0.160592
-0.0690276
-0.187247
-0.0517712
-0.214101
-0.0353925
-0.241021
-0.0221546
-0.26806
-0.290511
-0.0846837
0.124451
-0.0928792
0.118516
-0.10067
0.109977
-0.107741
0.0984727
-0.113707
0.0836699
-0.11811
0.0653067
-0.120447
0.0433362
-0.120323
0.0181578
-0.117495
-0.00946841
-0.112199
-0.0378974
-0.104963
-0.0656418
-0.0961656
-0.0925743
-0.0859507
-0.119204
-0.0743091
-0.146137
-0.0612571
-0.173635
-0.0470517
-0.201441
-0.0325005
-0.228641
-0.0190384
-0.254471
-0.00860964
-0.278475
-0.296152
-0.0595616
0.131137
-0.0662183
0.125165
-0.072625
0.116376
-0.0785046
0.104345
-0.0835044
0.0886632
-0.0871755
0.0689724
-0.088966
0.0451226
-0.0884202
0.0176095
-0.0852767
-0.0126126
-0.0799717
-0.0432013
-0.0731883
-0.0724222
-0.0653137
-0.100444
-0.0564283
-0.128083
-0.0464823
-0.156075
-0.0354487
-0.184659
-0.023591
-0.213289
-0.0116372
-0.240583
-0.000837633
-0.265257
0.00712046
-0.286419
-0.300108
-0.0328572
0.136028
-0.0378215
0.130122
-0.0426796
0.121226
-0.0472065
0.108865
-0.0511016
0.0925519
-0.0539657
0.0718311
-0.0552569
0.0464098
-0.0543562
0.0167063
-0.0510163
-0.0159532
-0.045966
-0.0482505
-0.0399083
-0.078477
-0.0331827
-0.107165
-0.0257658
-0.135494
-0.0175782
-0.164254
-0.00853123
-0.193697
0.00107841
-0.222888
0.0105256
-0.250019
0.0187968
-0.273516
0.024678
-0.292287
-0.302819
-0.00513343
0.138993
-0.00824001
0.133222
-0.0113471
0.124326
-0.0142855
0.111796
-0.016832
0.0950922
-0.0187055
0.0736995
-0.0195071
0.0472074
-0.0182817
0.0154785
-0.0149879
-0.0192477
-0.0106099
-0.0526275
-0.00562002
-0.0834641
-0.000238487
-0.112542
0.00558069
-0.141307
0.0120024
-0.170669
0.0190501
-0.200736
0.0264002
-0.230228
0.0335539
-0.257161
0.0397596
-0.279709
0.0439315
-0.296445
-0.30439
0.022817
0.139926
0.0216963
0.134335
0.0205095
0.125506
0.0193892
0.11291
0.0184933
0.0959821
0.0180561
0.0741316
0.0185763
0.0466835
0.0203648
0.0136878
0.0228657
-0.0217493
0.0258418
-0.0556027
0.0291805
-0.0868001
0.0328248
-0.116182
0.0368763
-0.145353
0.0415555
-0.175341
0.0467901
-0.205962
0.0522761
-0.235704
0.0575283
-0.262402
0.0618724
-0.284041
0.0644527
-0.299012
-0.304835
0.0503012
0.13881
0.0511939
0.133436
0.051981
0.124712
0.0527785
0.112106
0.0537235
0.0950314
0.055038
0.0728123
0.0568801
0.0448378
0.0588254
0.0117403
0.0604128
-0.0233374
0.0618935
-0.0570825
0.063472
-0.088376
0.0653754
-0.118081
0.0678233
-0.147795
0.0709531
-0.178463
0.0746387
-0.209639
0.0785191
-0.239575
0.0820855
-0.265958
0.084739
-0.286683
0.0858202
-0.30008
-0.304142
0.0767152
0.135712
0.0795602
0.130584
0.0822635
0.122002
0.0849267
0.109437
0.0876455
0.0923071
0.0904697
0.0699835
0.0931678
0.0421363
0.0951969
0.00970911
0.096201
-0.024342
0.0964546
-0.0573352
0.096498
-0.0884169
0.0968756
-0.118455
0.0979593
-0.148873
0.0998375
-0.180334
0.10227
-0.212064
0.104796
-0.242091
0.106875
-0.268026
0.107982
-0.287778
0.10763
-0.299715
-0.302296
0.10111
0.132278
0.106295
0.130521
0.111178
0.125694
0.115847
0.117327
0.120363
0.104915
0.124735
0.0879298
0.128813
0.0659007
0.132128
0.0388182
0.134012
0.00782293
0.134272
-0.0246028
0.133413
-0.0564754
0.132249
-0.0872494
0.131543
-0.117745
0.131739
-0.149064
0.132824
-0.181412
0.134389
-0.21362
0.135846
-0.243539
0.136628
-0.268797
0.136278
-0.287416
0.13448
-0.297904
-0.299139
0.127187
0.134282
0.141019
0.118951
0.147434
0.110906
0.153521
0.0988217
0.159183
0.0822633
0.164127
0.060952
0.167811
0.0351318
0.169634
0.00599819
0.169537
-0.0245067
0.16815
-0.0550874
0.166476
-0.0855727
0.165402
-0.116667
0.16532
-0.148976
0.166029
-0.182114
0.166941
-0.214524
0.167386
-0.243974
0.166827
-0.268227
0.164934
-0.285511
0.161578
-0.294534
-0.294564
0.169541
0.177378
0.184706
0.0914875
0.19132
0.0756455
0.196846
0.0554212
0.200758
0.0312172
0.20259
0.00416442
0.20249
-0.0244066
0.201266
-0.0538618
0.199997
-0.0843019
0.199465
-0.11613
0.199796
-0.149302
0.200526
-0.182837
0.200924
-0.214914
0.200331
-0.24337
0.198329
-0.266214
0.194768
-0.281938
0.189722
-0.289476
-0.288441
0.213906
0.221006
0.0685416
0.22682
0.0496027
0.230883
0.0271517
0.232989
0.00205768
0.23358
-0.0249984
0.233547
-0.0538271
0.233763
-0.0845152
0.234596
-0.116958
0.235766
-0.150466
0.236584
-0.183648
0.236315
-0.214637
0.234442
-0.241488
0.230756
-0.262517
0.225324
-0.276494
0.218431
-0.282569
-0.28065
0.25078
0.256402
0.260603
0.0229492
0.263493
-0.000833338
0.265664
-0.0271697
0.26774
-0.0559015
0.270021
-0.0867935
0.272308
-0.11924
0.274001
-0.152153
0.274384
-0.184024
0.272896
-0.21314
0.269268
-0.23785
0.263538
-0.256776
0.255993
-0.268936
0.247102
-0.273664
-0.271102
0.296191
0.300084
0.303902
-0.0309876
0.307684
-0.0596816
0.311125
-0.0902312
0.31366
-0.121771
0.314635
-0.153122
0.3135
-0.182883
0.309953
-0.209584
0.303983
-0.231869
0.295842
-0.248624
0.285987
-0.259069
0.275016
-0.262678
-0.259782
0.350564
0.354119
-0.0632348
0.356631
-0.0927401
0.357498
-0.122633
0.356203
-0.151821
0.352417
-0.17909
0.346064
-0.203223
0.33732
-0.223115
0.326575
-0.237868
0.314378
-0.246859
0.30139
-0.249676
-0.246789
0.402368
0.40229
0.40017
-0.120509
0.395685
-0.147329
0.3887
-0.172097
0.379296
-0.193811
0.36776
-0.211568
0.354545
-0.224641
0.34023
-0.232531
0.325484
-0.234915
-0.232358
0.43746
0.429856
-0.139719
0.419923
-0.162156
0.407845
-0.181724
0.39397
-0.197682
0.378774
-0.209433
0.362825
-0.216568
0.346764
-0.218839
-0.216855
0.456723
0.444639
0.430688
-0.167764
0.415246
-0.182229
0.398785
-0.19296
0.381847
-0.199617
0.365023
-0.202001
-0.200721
0.447821
0.431666
-0.166063
0.414707
-0.175989
0.397448
-0.182344
0.380422
-0.18496
-0.184406
0.443949
0.427158
0.410151
-0.165322
0.393403
-0.168196
-0.168306
0.420662
0.404541
-0.152059
-0.152723
0.414403
-0.137857
)
;

boundaryField
{
    inlet
    {
        type            calculated;
        value           nonuniform 0();
    }
    outlet
    {
        type            calculated;
        value           nonuniform List<scalar> 
30
(
0.0870336
0.028943
-0.00230032
-0.0190276
-0.026385
-0.0270756
-0.0227264
-0.0144252
-0.00295405
0.0110915
0.0274036
0.0455163
0.0649124
0.0851412
0.105798
0.131337
0.157017
0.183614
0.210654
0.237569
0.263712
0.288411
0.311069
0.331276
0.348905
0.364125
0.37732
0.388976
0.399555
0.409427
)
;
    }
    flap
    {
        type            calculated;
        value           nonuniform 0();
    }
    upperWall
    {
        type            calculated;
        value           nonuniform 0();
    }
    lowerWall
    {
        type            calculated;
        value           uniform 0;
    }
    frontAndBack
    {
        type            empty;
        value           nonuniform 0();
    }
    procBoundary5to2
    {
        type            processor;
        value           nonuniform List<scalar> 
34
(
0.124759
0.12342
-0.161315
0.110719
0.103063
-0.20596
0.0835362
-0.244103
0.0618594
0.0439773
-0.291946
0.0187028
-0.00472729
-0.346527
-0.0350241
-0.400862
-0.0647396
-0.0926586
-0.442718
-0.115246
-0.466685
-0.129751
-0.150064
-0.46272
-0.152856
-0.460066
-0.149934
-0.159186
-0.437001
-0.148968
-0.429679
-0.136766
-0.423444
-0.123821
)
;
    }
    procBoundary5to4
    {
        type            processor;
        value           nonuniform List<scalar> 
18
(
0.167505
0.172176
0.168059
0.159713
0.148281
0.134064
0.117216
0.0978981
0.0763351
0.052868
0.0279585
0.00216125
-0.0237564
-0.0491924
-0.0736232
-0.137871
-0.0955238
-0.119674
)
;
    }
}


// ************************************************************************* //
