/*--------------------------------*- C++ -*----------------------------------*\
| =========                 |                                                 |
| \\      /  F ield         | OpenFOAM: The Open Source CFD Toolbox           |
|  \\    /   O peration     | Version:  dev                                   |
|   \\  /    A nd           | Web:      www.OpenFOAM.org                      |
|    \\/     M anipulation  |                                                 |
\*---------------------------------------------------------------------------*/
FoamFile
{
    version     2.0;
    format      ascii;
    class       volVectorField;
    location    "0.64";
    object      cellDisplacement;
}
// * * * * * * * * * * * * * * * * * * * * * * * * * * * * * * * * * * * * * //

dimensions      [0 1 0 0 0 0 0];

internalField   nonuniform List<vector> 
2790
(
(0.00602448 0 -5.96596e-06)
(0.0172592 0 -1.70992e-05)
(0.0269665 0 -2.6748e-05)
(0.0352612 0 -3.50143e-05)
(0.0422653 0 -4.19703e-05)
(0.0480897 0 -4.7643e-05)
(0.0528347 0 -5.20056e-05)
(0.0565893 0 -5.4997e-05)
(0.0594322 0 -5.65044e-05)
(0.0614328 0 -5.63443e-05)
(0.0626525 0 -5.4306e-05)
(0.0631457 0 -5.01258e-05)
(0.0629603 0 -4.3486e-05)
(0.0621385 0 -3.39637e-05)
(0.0607192 0 -2.11071e-05)
(0.0587385 0 -4.39002e-06)
(0.0562307 0 1.67962e-05)
(0.0532306 0 4.31453e-05)
(0.0497745 0 7.5438e-05)
(0.0459025 0 0.000114542)
(0.0416607 0 0.000161412)
(0.0371036 0 0.000217086)
(0.0322972 0 0.000282704)
(0.0273228 0 0.000359514)
(0.0222831 0 0.000448865)
(0.0173102 0 0.000552125)
(0.0125778 0 0.000670347)
(0.00832153 0 0.000803148)
(0.0048819 0 0.000945301)
(0.0028894 0 0.00107457)
(0.00603242 0 -1.79187e-05)
(0.0172827 0 -5.13614e-05)
(0.0270052 0 -8.03557e-05)
(0.0353156 0 -0.000105212)
(0.0423363 0 -0.00012615)
(0.048179 0 -0.000143257)
(0.0529445 0 -0.000156452)
(0.0567225 0 -0.000165563)
(0.059592 0 -0.000170264)
(0.0616228 0 -0.000169999)
(0.0628774 0 -0.000164152)
(0.0634105 0 -0.000151944)
(0.0632711 0 -0.000132459)
(0.0625018 0 -0.000104413)
(0.0611426 0 -6.64916e-05)
(0.0592304 0 -1.71477e-05)
(0.0568008 0 4.54078e-05)
(0.0538894 0 0.000123209)
(0.0505335 0 0.000218538)
(0.0467745 0 0.000333918)
(0.0426599 0 0.000472096)
(0.0382458 0 0.000636014)
(0.0335998 0 0.000828814)
(0.0288055 0 0.0010538)
(0.0239679 0 0.00131429)
(0.019224 0 0.00161326)
(0.0147576 0 0.00195198)
(0.0108244 0 0.00232603)
(0.00778282 0 0.00271393)
(0.00623591 0 0.00304343)
(0.00604813 0 -2.99294e-05)
(0.0173291 0 -8.58016e-05)
(0.0270818 0 -0.000134276)
(0.0354229 0 -0.000175884)
(0.0424766 0 -0.000211003)
(0.0483555 0 -0.000239803)
(0.0531614 0 -0.000262143)
(0.0569859 0 -0.000277769)
(0.0599083 0 -0.000286195)
(0.0619993 0 -0.000286458)
(0.063323 0 -0.000277597)
(0.0639355 0 -0.000258342)
(0.0638879 0 -0.000227321)
(0.0632231 0 -0.000182304)
(0.0619834 0 -0.00012126)
(0.0602077 0 -4.17102e-05)
(0.0579336 0 5.92012e-05)
(0.0551985 0 0.000184708)
(0.0520421 0 0.000338412)
(0.0485078 0 0.000524254)
(0.0446457 0 0.000746446)
(0.0405153 0 0.00100933)
(0.0361877 0 0.00131729)
(0.0317494 0 0.00167447)
(0.0273084 0 0.00208429)
(0.0230042 0 0.00254839)
(0.0190279 0 0.00306433)
(0.0156618 0 0.00361902)
(0.0132648 0 0.00416844)
(0.0123657 0 0.00459859)
(0.00607171 0 -4.20288e-05)
(0.0173987 0 -0.000120514)
(0.0271963 0 -0.000188675)
(0.0355831 0 -0.000247288)
(0.0426858 0 -0.000296899)
(0.0486183 0 -0.000337812)
(0.0534842 0 -0.000369789)
(0.0573777 0 -0.000392559)
(0.0603789 0 -0.000405593)
(0.0625589 0 -0.000407402)
(0.0639853 0 -0.000396831)
(0.064715 0 -0.000372088)
(0.0647994 0 -0.000331195)
(0.0642878 0 -0.000271773)
(0.0632238 0 -0.00019088)
(0.0616486 0 -8.52469e-05)
(0.0596026 0 4.88557e-05)
(0.0571262 0 0.000215609)
(0.054262 0 0.000419622)
(0.0510565 0 0.000665859)
(0.0475631 0 0.000959492)
(0.0438465 0 0.00130555)
(0.0399831 0 0.00170861)
(0.0360646 0 0.00217222)
(0.0322034 0 0.00269788)
(0.0285389 0 0.00328342)
(0.0252485 0 0.00391996)
(0.0226106 0 0.00458011)
(0.0210083 0 0.00519963)
(0.0208669 0 0.00564074)
(0.00610317 0 -5.42425e-05)
(0.0174913 0 -0.000155576)
(0.0273481 0 -0.000243691)
(0.0357948 0 -0.000319643)
(0.0429621 0 -0.000384147)
(0.0489653 0 -0.00043775)
(0.0539093 0 -0.000480014)
(0.0578939 0 -0.000510737)
(0.0609957 0 -0.000528992)
(0.0632911 0 -0.000533636)
(0.0648516 0 -0.000523121)
(0.0657339 0 -0.000495152)
(0.0659916 0 -0.000447202)
(0.0656799 0 -0.000376865)
(0.0648444 0 -0.000280568)
(0.0635298 0 -0.000154431)
(0.0617801 0 5.87622e-06)
(0.0596396 0 0.000205148)
(0.0571542 0 0.000448587)
(0.0543738 0 0.000741687)
(0.0513544 0 0.00109002)
(0.0481679 0 0.00149851)
(0.044896 0 0.00197089)
(0.0416354 0 0.00250881)
(0.0385017 0 0.00311035)
(0.0356346 0 0.00376749)
(0.033199 0 0.00446222)
(0.031412 0 0.00515581)
(0.0306751 0 0.0057691)
(0.0313131 0 0.00615711)
(0.00614253 0 -6.65901e-05)
(0.0176065 0 -0.000191046)
(0.0275364 0 -0.000299425)
(0.0360563 0 -0.000393121)
(0.0433032 0 -0.000472967)
(0.0493911 0 -0.000539494)
(0.0544287 0 -0.000592724)
(0.0585209 0 -0.000632381)
(0.0617459 0 -0.000657132)
(0.0641853 0 -0.000666268)
(0.0659099 0 -0.000658032)
(0.0669783 0 -0.000629582)
(0.0674508 0 -0.000578395)
(0.0673832 0 -0.000501498)
(0.0668262 0 -0.000395154)
(0.0658288 0 -0.000255177)
(0.0644396 0 -7.69516e-05)
(0.0627074 0 0.000144544)
(0.0606828 0 0.000414639)
(0.0584185 0 0.000738795)
(0.0559685 0 0.00112257)
(0.0534169 0 0.00157)
(0.0508494 0 0.00208291)
(0.0483643 0 0.00265995)
(0.0460755 0 0.00329453)
(0.044115 0 0.00397195)
(0.0426326 0 0.00466532)
(0.0417887 0 0.00533088)
(0.0419319 0 0.00588016)
(0.0433123 0 0.00617441)
(0.00618988 0 -7.90854e-05)
(0.0177439 0 -0.000226959)
(0.0277602 0 -0.000355932)
(0.0363633 0 -0.000467472)
(0.0436958 0 -0.000563028)
(0.0498828 0 -0.000643121)
(0.0550355 0 -0.000708209)
(0.0592555 0 -0.000758071)
(0.0626263 0 -0.000791252)
(0.0652333 0 -0.000806807)
(0.0671446 0 -0.000802807)
(0.0684276 0 -0.000776902)
(0.0691473 0 -0.000726273)
(0.0693614 0 -0.000647707)
(0.0691251 0 -0.000537414)
(0.0684926 0 -0.000391171)
(0.0675181 0 -0.000204431)
(0.0662563 0 2.76489e-05)
(0.0647634 0 0.000310023)
(0.0630993 0 0.000647365)
(0.0613212 0 0.00104488)
(0.059493 0 0.00150611)
(0.0577245 0 0.00202943)
(0.0561122 0 0.00260994)
(0.0547627 0 0.00323611)
(0.0537922 0 0.00388706)
(0.0533269 0 0.00452894)
(0.0534867 0 0.00511538)
(0.0544644 0 0.00556049)
(0.0565122 0 0.00573747)
(0.00624542 0 -9.17369e-05)
(0.0179029 0 -0.000263329)
(0.0280068 0 -0.000412872)
(0.0367031 0 -0.000542572)
(0.0441421 0 -0.000654508)
(0.0504435 0 -0.000749302)
(0.0557254 0 -0.000827209)
(0.0600875 0 -0.000888098)
(0.0636204 0 -0.000931186)
(0.0664126 0 -0.000955258)
(0.0685339 0 -0.000958182)
(0.070059 0 -0.00093817)
(0.071054 0 -0.000892287)
(0.0715814 0 -0.00081734)
(0.0717011 0 -0.000709677)
(0.0714724 0 -0.000565287)
(0.0709565 0 -0.000380049)
(0.0702144 0 -0.000149676)
(0.0693089 0 0.000130045)
(0.0683059 0 0.000462881)
(0.0672774 0 0.000851584)
(0.066274 0 0.00129903)
(0.0653779 0 0.00180313)
(0.0647133 0 0.00235324)
(0.0643745 0 0.00293341)
(0.0644509 0 0.00351838)
(0.0650297 0 0.00407076)
(0.0661865 0 0.00454122)
(0.0679727 0 0.00485601)
(0.0705967 0 0.00490786)
(0.00630969 0 -0.000104548)
(0.0180722 0 -0.000299869)
(0.0282721 0 -0.000470193)
(0.0370816 0 -0.000618825)
(0.0446398 0 -0.000747829)
(0.0510633 0 -0.000857606)
(0.0564801 0 -0.000949171)
(0.060999 0 -0.00102239)
(0.0647138 0 -0.00107711)
(0.0677106 0 -0.00111199)
(0.070066 0 -0.0011252)
(0.071855 0 -0.00111469)
(0.0731497 0 -0.00107796)
(0.0740173 0 -0.00101213)
(0.0745223 0 -0.000913899)
(0.0747287 0 -0.000779637)
(0.0747059 0 -0.00060606)
(0.0745215 0 -0.000389783)
(0.0742445 0 -0.000127706)
(0.0739459 0 0.000182617)
(0.0736993 0 0.000542332)
(0.0735799 0 0.000950346)
(0.0736409 0 0.00140442)
(0.073973 0 0.00189378)
(0.074696 0 0.00239547)
(0.0758567 0 0.00288268)
(0.0774898 0 0.00331756)
(0.0796021 0 0.00365323)
(0.0821789 0 0.00382722)
(0.0852876 0 0.00375913)
(0.00637365 0 -0.000117372)
(0.0182512 0 -0.000336562)
(0.028562 0 -0.000528182)
(0.037495 0 -0.000696154)
(0.0451736 0 -0.000842407)
(0.0517262 0 -0.000967773)
(0.0572954 0 -0.00107413)
(0.0619872 0 -0.0011615)
(0.0658975 0 -0.0012297)
(0.0691146 0 -0.00127768)
(0.0717199 0 -0.00130403)
(0.0737893 0 -0.00130653)
(0.0754023 0 -0.00128338)
(0.0766302 0 -0.00123216)
(0.0775419 0 -0.00115014)
(0.0782033 0 -0.00103405)
(0.0786959 0 -0.000882015)
(0.0790928 0 -0.000691806)
(0.0794691 0 -0.000461786)
(0.0799001 0 -0.000191113)
(0.0804626 0 0.0001195)
(0.081233 0 0.000466971)
(0.0822853 0 0.000844781)
(0.0836641 0 0.00124423)
(0.0854832 0 0.00164048)
(0.0877529 0 0.00200591)
(0.0904525 0 0.00230596)
(0.0935165 0 0.00249971)
(0.0968366 0 0.0025377)
(0.100346 0 0.00236442)
(0.00643843 0 -0.000130219)
(0.018439 0 -0.000373493)
(0.0288715 0 -0.0005867)
(0.0379309 0 -0.00077432)
(0.0457372 0 -0.000938099)
(0.0524331 0 -0.00108019)
(0.0581643 0 -0.00120241)
(0.0630391 0 -0.0013052)
(0.0671559 0 -0.00138863)
(0.0706047 0 -0.00145192)
(0.0734638 0 -0.00149337)
(0.0758224 0 -0.00151211)
(0.0777641 0 -0.00150665)
(0.0793635 0 -0.0014752)
(0.0806945 0 -0.00141591)
(0.0818328 0 -0.00132668)
(0.0828497 0 -0.00120531)
(0.0838354 0 -0.00105212)
(0.0848716 0 -0.000867296)
(0.0860367 0 -0.000651716)
(0.0874106 0 -0.000408058)
(0.0890717 0 -0.00014141)
(0.0910925 0 0.000139988)
(0.0935346 0 0.000425561)
(0.0964584 0 0.000693847)
(0.0998457 0 0.00092)
(0.103625 0 0.00107631)
(0.107652 0 0.00113159)
(0.111704 0 0.0010496)
(0.115564 0 0.000792759)
(0.00650397 0 -0.000143066)
(0.0186333 0 -0.000410547)
(0.0291965 0 -0.000645585)
(0.0383835 0 -0.00085284)
(0.0463253 0 -0.001035)
(0.0531747 0 -0.00119457)
(0.0590753 0 -0.0013336)
(0.0641406 0 -0.00145302)
(0.0684719 0 -0.00155335)
(0.0721499 0 -0.00163323)
(0.0752664 0 -0.0016921)
(0.0779218 0 -0.00173015)
(0.0801967 0 -0.00174614)
(0.0821705 0 -0.00173904)
(0.0839231 0 -0.00170797)
(0.0855384 0 -0.0016526)
(0.0870866 0 -0.00157129)
(0.0886509 0 -0.00146441)
(0.0903346 0 -0.00133599)
(0.0922147 0 -0.00118845)
(0.0943743 0 -0.00102647)
(0.0968944 0 -0.000857079)
(0.0998496 0 -0.000689952)
(0.103308 0 -0.000536247)
(0.107301 0 -0.000413497)
(0.111785 0 -0.000339997)
(0.116649 0 -0.000332291)
(0.121677 0 -0.000406547)
(0.126511 0 -0.000583812)
(0.130734 0 -0.000896603)
(0.00656943 0 -0.000155867)
(0.0188309 0 -0.000447576)
(0.0295237 0 -0.00070447)
(0.0388493 0 -0.000931781)
(0.0469388 0 -0.00113297)
(0.0539419 0 -0.0013105)
(0.0600159 0 -0.00146717)
(0.0652767 0 -0.00160424)
(0.0698182 0 -0.00172227)
(0.0737278 0 -0.00182054)
(0.0771126 0 -0.00189975)
(0.080066 0 -0.00195994)
(0.0826729 0 -0.00200072)
(0.0850169 0 -0.00202192)
(0.0871815 0 -0.00202365)
(0.0892518 0 -0.00200656)
(0.0913121 0 -0.00197182)
(0.0934375 0 -0.00191983)
(0.095738 0 -0.0018566)
(0.0982895 0 -0.00178681)
(0.101179 0 -0.00171723)
(0.104489 0 -0.0016568)
(0.108296 0 -0.00161656)
(0.112675 0 -0.00160817)
(0.117643 0 -0.00164501)
(0.123146 0 -0.00173715)
(0.129059 0 -0.00188638)
(0.135131 0 -0.00208598)
(0.140872 0 -0.00233159)
(0.145581 0 -0.00266535)
(0.00663327 0 -0.000168554)
(0.0190297 0 -0.000484435)
(0.0298591 0 -0.000763399)
(0.0393247 0 -0.00101115)
(0.0475622 0 -0.00123141)
(0.0547241 0 -0.00142744)
(0.0609734 0 -0.00160242)
(0.0664271 0 -0.00175791)
(0.0711776 0 -0.00189437)
(0.0753275 0 -0.00201334)
(0.078977 0 -0.00211469)
(0.0822238 0 -0.00219932)
(0.085155 0 -0.00226759)
(0.0878571 0 -0.00232021)
(0.0904158 0 -0.00235832)
(0.0929172 0 -0.00238366)
(0.0954477 0 -0.00239888)
(0.0981021 0 -0.00240774)
(0.100967 0 -0.00241549)
(0.10412 0 -0.00242921)
(0.107652 0 -0.00245789)
(0.111644 0 -0.00251241)
(0.116171 0 -0.00260537)
(0.121312 0 -0.00274974)
(0.127077 0 -0.00295637)
(0.133417 0 -0.00322952)
(0.14023 0 -0.00355803)
(0.147289 0 -0.00390562)
(0.154068 0 -0.00421417)
(0.159547 0 -0.00452295)
(0.00669278 0 -0.000181032)
(0.0192275 0 -0.000521108)
(0.0301989 0 -0.000822114)
(0.0398018 0 -0.00109024)
(0.0481882 0 -0.00132981)
(0.0555115 0 -0.00154476)
(0.0619361 0 -0.00173863)
(0.0675789 0 -0.00191327)
(0.0725429 0 -0.00206975)
(0.0769287 0 -0.00221017)
(0.080834 0 -0.00233494)
(0.0843649 0 -0.00244577)
(0.0876065 0 -0.00254348)
(0.0906476 0 -0.00262971)
(0.0935747 0 -0.00270656)
(0.0964736 0 -0.00277682)
(0.0994326 0 -0.00284451)
(0.10256 0 -0.0029167)
(0.105915 0 -0.0029974)
(0.109579 0 -0.00309592)
(0.113639 0 -0.00322318)
(0.11817 0 -0.00339186)
(0.123239 0 -0.00361631)
(0.128919 0 -0.00391206)
(0.135204 0 -0.00429024)
(0.142048 0 -0.00475788)
(0.149375 0 -0.00530692)
(0.157015 0 -0.00588999)
(0.164558 0 -0.00636336)
(0.171122 0 -0.00661293)
(0.00328349 0 -0.00121417)
(0.00630487 0 -0.00124606)
(0.0117909 0 -0.00125959)
(0.0191264 0 -0.00126552)
(0.0276244 0 -0.00126356)
(0.0366374 0 -0.00124962)
(0.04564 0 -0.00122281)
(0.0542427 0 -0.00118455)
(0.0621776 0 -0.00113719)
(0.0692749 0 -0.0010833)
(0.0754387 0 -0.00102774)
(0.0806221 0 -0.000967288)
(0.0848287 0 -0.000905522)
(0.0880725 0 -0.000844143)
(0.0903716 0 -0.000784108)
(0.0917432 0 -0.000725959)
(0.0922007 0 -0.000670253)
(0.0917492 0 -0.000616038)
(0.0903865 0 -0.000563131)
(0.0881091 0 -0.000510393)
(0.0849028 0 -0.000461492)
(0.0807345 0 -0.000414572)
(0.075569 0 -0.000368686)
(0.0693669 0 -0.000323841)
(0.06208 0 -0.000278745)
(0.053649 0 -0.000233088)
(0.044013 0 -0.000186233)
(0.033107 0 -0.000137344)
(0.020865 0 -8.54518e-05)
(0.00720451 0 -2.935e-05)
(0.00637 0 -0.00359447)
(0.00939323 0 -0.00369233)
(0.014784 0 -0.00374404)
(0.0219702 0 -0.00377032)
(0.0302704 0 -0.00377045)
(0.0390375 0 -0.00373051)
(0.0477745 0 -0.00365047)
(0.0561126 0 -0.00353594)
(0.0637956 0 -0.00339434)
(0.0706624 0 -0.00323238)
(0.0766112 0 -0.00305816)
(0.0816033 0 -0.0028766)
(0.0856484 0 -0.0026926)
(0.0887553 0 -0.00251028)
(0.0909391 0 -0.00233217)
(0.0922138 0 -0.00215962)
(0.0925907 0 -0.00199486)
(0.0920722 0 -0.00183402)
(0.0906553 0 -0.00167738)
(0.088332 0 -0.00152437)
(0.0850854 0 -0.00137943)
(0.080885 0 -0.00123987)
(0.0756916 0 -0.00110284)
(0.0694665 0 -0.000967596)
(0.062162 0 -0.000832967)
(0.0537149 0 -0.000696661)
(0.0440643 0 -0.000556727)
(0.033145 0 -0.000410646)
(0.0208892 0 -0.000255525)
(0.00721305 0 -8.77725e-05)
(0.0121003 0 -0.00586118)
(0.0152383 0 -0.00603933)
(0.0205209 0 -0.00614867)
(0.0274659 0 -0.00621119)
(0.0353779 0 -0.00621221)
(0.0436641 0 -0.00614389)
(0.0518911 0 -0.00600947)
(0.0597241 0 -0.00581951)
(0.066925 0 -0.00558647)
(0.0733387 0 -0.00532004)
(0.0788807 0 -0.00503193)
(0.0835172 0 -0.00473314)
(0.0872526 0 -0.00443147)
(0.0900952 0 -0.00413304)
(0.0920551 0 -0.00384159)
(0.0931407 0 -0.00355843)
(0.0933575 0 -0.00328501)
(0.0927077 0 -0.00302135)
(0.0911819 0 -0.0027647)
(0.0887685 0 -0.00251798)
(0.0854455 0 -0.00228077)
(0.0811833 0 -0.00205176)
(0.0759399 0 -0.00182568)
(0.0696697 0 -0.00160183)
(0.0623257 0 -0.00137945)
(0.053846 0 -0.00115402)
(0.0441666 0 -0.000922477)
(0.0332206 0 -0.000680582)
(0.020937 0 -0.000423559)
(0.00722979 0 -0.000145504)
(0.0201459 0 -0.00804177)
(0.0234554 0 -0.00829554)
(0.0286322 0 -0.00846575)
(0.03524 0 -0.00856307)
(0.0425941 0 -0.00855903)
(0.0502224 0 -0.0084573)
(0.0577464 0 -0.00826617)
(0.0648778 0 -0.00800177)
(0.0714042 0 -0.00768184)
(0.0771813 0 -0.0073154)
(0.0821415 0 -0.00691964)
(0.0862658 0 -0.00651085)
(0.0895601 0 -0.0060987)
(0.0920262 0 -0.00569156)
(0.0936668 0 -0.00529419)
(0.0944815 0 -0.0049073)
(0.0944698 0 -0.00453121)
(0.0936317 0 -0.00417053)
(0.0919507 0 -0.0038224)
(0.0894053 0 -0.00348552)
(0.085971 0 -0.00315944)
(0.0816175 0 -0.00284175)
(0.0763 0 -0.00252926)
(0.0699636 0 -0.0022208)
(0.0625643 0 -0.00191375)
(0.0540373 0 -0.0016014)
(0.0443156 0 -0.00128056)
(0.0333313 0 -0.000945026)
(0.0210071 0 -0.000588223)
(0.00725425 0 -0.000202085)
(0.0301338 0 -0.0101695)
(0.0336363 0 -0.0104833)
(0.0387021 0 -0.0107043)
(0.0448689 0 -0.0108171)
(0.0515621 0 -0.0108021)
(0.0583998 0 -0.0106621)
(0.0650683 0 -0.0104106)
(0.0713426 0 -0.0100716)
(0.0770132 0 -0.00966032)
(0.0819874 0 -0.00919703)
(0.0862242 0 -0.0086975)
(0.0897196 0 -0.00818517)
(0.092467 0 -0.00767075)
(0.0944654 0 -0.007164)
(0.0957083 0 -0.00667051)
(0.0961834 0 -0.00618855)
(0.095887 0 -0.00572089)
(0.0948087 0 -0.00527016)
(0.0929295 0 -0.00483675)
(0.0902192 0 -0.0044154)
(0.0866493 0 -0.00400597)
(0.0821817 0 -0.00360416)
(0.0767655 0 -0.00321147)
(0.0703403 0 -0.00282133)
(0.0628699 0 -0.00243112)
(0.054283 0 -0.00203457)
(0.0445067 0 -0.00162777)
(0.0334746 0 -0.00120165)
(0.0210979 0 -0.000748059)
(0.00728568 0 -0.00025701)
(0.0417153 0 -0.0122659)
(0.045392 0 -0.0126187)
(0.0503016 0 -0.0128682)
(0.0559526 0 -0.0129779)
(0.0619044 0 -0.0129364)
(0.0678448 0 -0.0127467)
(0.0735345 0 -0.0124261)
(0.0788042 0 -0.0120058)
(0.0834856 0 -0.0115026)
(0.0875517 0 -0.0109454)
(0.0909754 0 -0.0103539)
(0.0937492 0 -0.00974763)
(0.0958676 0 -0.00914019)
(0.0973285 0 -0.00854392)
(0.0981022 0 -0.00795962)
(0.098182 0 -0.00739116)
(0.0975535 0 -0.00683953)
(0.0961957 0 -0.00630647)
(0.0940814 0 -0.0057917)
(0.0911768 0 -0.0052923)
(0.0874475 0 -0.00480677)
(0.0828439 0 -0.00433146)
(0.077313 0 -0.00386445)
(0.070798 0 -0.0033977)
(0.0632467 0 -0.00292871)
(0.0545785 0 -0.00245254)
(0.0447334 0 -0.0019621)
(0.0336484 0 -0.00144897)
(0.0212081 0 -0.00090209)
(0.00732318 0 -0.000309932)
(0.0545624 0 -0.0143322)
(0.0583606 0 -0.0147039)
(0.0630353 0 -0.0149548)
(0.0681169 0 -0.015042)
(0.0732517 0 -0.0149548)
(0.0782019 0 -0.0146994)
(0.0828077 0 -0.0142988)
(0.086965 0 -0.0137891)
(0.090589 0 -0.0131988)
(0.0936736 0 -0.0125539)
(0.0962128 0 -0.0118768)
(0.0982024 0 -0.011186)
(0.099635 0 -0.0104949)
(0.100502 0 -0.00981746)
(0.100762 0 -0.00915248)
(0.10041 0 -0.00850633)
(0.0994159 0 -0.00787957)
(0.0977499 0 -0.0072728)
(0.0953758 0 -0.00668534)
(0.0922535 0 -0.00611494)
(0.0883395 0 -0.00555937)
(0.0835835 0 -0.0050162)
(0.0779301 0 -0.00447949)
(0.0713127 0 -0.00394354)
(0.0636623 0 -0.00340192)
(0.0549136 0 -0.00285127)
(0.045003 0 -0.00228219)
(0.0338538 0 -0.00168693)
(0.0213384 0 -0.00105088)
(0.00736614 0 -0.000361022)
(0.0683732 0 -0.0163595)
(0.0722235 0 -0.0167333)
(0.0765847 0 -0.0169622)
(0.0810211 0 -0.0170025)
(0.0852523 0 -0.0168458)
(0.0891243 0 -0.0165059)
(0.0925658 0 -0.016014)
(0.0955511 0 -0.0154124)
(0.098066 0 -0.014736)
(0.100129 0 -0.0140097)
(0.101748 0 -0.0132557)
(0.102922 0 -0.0124908)
(0.103639 0 -0.0117273)
(0.10388 0 -0.0109776)
(0.103612 0 -0.0102459)
(0.102806 0 -0.00953306)
(0.101427 0 -0.00884071)
(0.099433 0 -0.0081691)
(0.0967817 0 -0.00751729)
(0.093425 0 -0.00688314)
(0.0893123 0 -0.00626398)
(0.084388 0 -0.00565644)
(0.0785925 0 -0.0050554)
(0.0718638 0 -0.00445609)
(0.0641189 0 -0.0038491)
(0.0552762 0 -0.00322714)
(0.045278 0 -0.00258451)
(0.0340536 0 -0.00191177)
(0.0214705 0 -0.00119234)
(0.00741308 0 -0.000409794)
(0.0828768 0 -0.0183362)
(0.0867027 0 -0.0186975)
(0.0906574 0 -0.018881)
(0.0943431 0 -0.0188448)
(0.0975647 0 -0.0185908)
(0.100271 0 -0.0181467)
(0.102489 0 -0.0175537)
(0.10427 0 -0.0168592)
(0.105661 0 -0.0161012)
(0.106697 0 -0.0153022)
(0.107396 0 -0.0144819)
(0.107754 0 -0.013655)
(0.107754 0 -0.0128317)
(0.10737 0 -0.0120234)
(0.106567 0 -0.0112354)
(0.105302 0 -0.0104667)
(0.103529 0 -0.00971874)
(0.101199 0 -0.0089915)
(0.0982615 0 -0.00828385)
(0.0946614 0 -0.0075936)
(0.0903414 0 -0.00691779)
(0.0852408 0 -0.00625259)
(0.0792951 0 -0.00559296)
(0.0724372 0 -0.00493329)
(0.0645937 0 -0.00426636)
(0.0556606 0 -0.00358014)
(0.0455666 0 -0.00286852)
(0.034258 0 -0.00212232)
(0.021603 0 -0.00132482)
(0.00746271 0 -0.000455619)
(0.0978413 0 -0.0202512)
(0.101557 0 -0.0205862)
(0.104975 0 -0.0206939)
(0.10776 0 -0.0205438)
(0.109843 0 -0.0201618)
(0.111301 0 -0.0195955)
(0.11226 0 -0.018896)
(0.11284 0 -0.0181127)
(0.113129 0 -0.0172821)
(0.113169 0 -0.0164222)
(0.11298 0 -0.0155489)
(0.112552 0 -0.0146737)
(0.11186 0 -0.0138042)
(0.110871 0 -0.0129505)
(0.109546 0 -0.0121178)
(0.107829 0 -0.0113043)
(0.105667 0 -0.0105108)
(0.103003 0 -0.00973732)
(0.0997783 0 -0.00898244)
(0.0959325 0 -0.00824393)
(0.0914021 0 -0.00751863)
(0.0861212 0 -0.00680248)
(0.0800213 0 -0.00609034)
(0.0730311 0 -0.00537619)
(0.0650773 0 -0.00465279)
(0.0560479 0 -0.00390821)
(0.0458598 0 -0.00313314)
(0.0344588 0 -0.00231839)
(0.0217344 0 -0.00144814)
(0.00751824 0 -0.000498795)
(0.113077 0 -0.022101)
(0.116563 0 -0.0223872)
(0.119239 0 -0.0223705)
(0.120914 0 -0.0220579)
(0.121714 0 -0.0215175)
(0.121863 0 -0.0208185)
(0.121567 0 -0.0200164)
(0.12099 0 -0.0191562)
(0.120239 0 -0.0182679)
(0.119352 0 -0.017363)
(0.118338 0 -0.0164526)
(0.117182 0 -0.0155442)
(0.115845 0 -0.014643)
(0.11429 0 -0.0137571)
(0.112471 0 -0.0128916)
(0.110324 0 -0.0120442)
(0.107788 0 -0.0112154)
(0.104801 0 -0.010405)
(0.101296 0 -0.00961147)
(0.0972088 0 -0.00883256)
(0.0924699 0 -0.00806501)
(0.0870093 0 -0.00730463)
(0.0807543 0 -0.00654616)
(0.07363 0 -0.00578335)
(0.065561 0 -0.0050089)
(0.0564318 0 -0.0042108)
(0.0461517 0 -0.00337775)
(0.0346633 0 -0.00250013)
(0.0218617 0 -0.00156194)
(0.00756569 0 -0.000538357)
(0.128424 0 -0.0238865)
(0.131463 0 -0.0240716)
(0.133064 0 -0.0238497)
(0.133365 0 -0.0233189)
(0.132758 0 -0.0226012)
(0.131589 0 -0.0217759)
(0.130104 0 -0.02089)
(0.128469 0 -0.0199753)
(0.126786 0 -0.0190511)
(0.125074 0 -0.0181212)
(0.12333 0 -0.0171916)
(0.121526 0 -0.0162664)
(0.119613 0 -0.0153485)
(0.117542 0 -0.0144432)
(0.115272 0 -0.0135566)
(0.112728 0 -0.0126861)
(0.109844 0 -0.011832)
(0.106552 0 -0.0109939)
(0.102782 0 -0.0101702)
(0.0984623 0 -0.00935865)
(0.0935216 0 -0.00855603)
(0.0878855 0 -0.00775807)
(0.0814779 0 -0.00695947)
(0.0742202 0 -0.00615379)
(0.0660333 0 -0.00533357)
(0.0568042 0 -0.00448734)
(0.046436 0 -0.00360186)
(0.0348633 0 -0.00266695)
(0.0219823 0 -0.00166635)
(0.00760725 0 -0.000574426)
(0.143686 0 -0.0255904)
(0.14582 0 -0.0255518)
(0.14586 0 -0.0250099)
(0.144542 0 -0.0242239)
(0.1425 0 -0.0233441)
(0.140111 0 -0.0224284)
(0.137591 0 -0.0214973)
(0.135055 0 -0.0205618)
(0.132591 0 -0.0196293)
(0.130192 0 -0.0186974)
(0.127838 0 -0.017768)
(0.125487 0 -0.0168428)
(0.123085 0 -0.0159239)
(0.120572 0 -0.0150137)
(0.117903 0 -0.0141174)
(0.115004 0 -0.0132344)
(0.111804 0 -0.0123646)
(0.108231 0 -0.0115074)
(0.104212 0 -0.0106616)
(0.0996741 0 -0.00982478)
(0.0945411 0 -0.00899387)
(0.0887364 0 -0.00816465)
(0.0821807 0 -0.00733178)
(0.074792 0 -0.00648869)
(0.066484 0 -0.00562736)
(0.0571552 0 -0.00473742)
(0.0467068 0 -0.0038052)
(0.0350529 0 -0.00281849)
(0.0220915 0 -0.00176095)
(0.00764176 0 -0.000606904)
(0.158314 0 -0.0270906)
(0.158703 0 -0.0265854)
(0.156705 0 -0.0256365)
(0.153733 0 -0.0246421)
(0.150442 0 -0.0236819)
(0.147092 0 -0.02275)
(0.1438 0 -0.0218326)
(0.14061 0 -0.0209204)
(0.137563 0 -0.020011)
(0.134642 0 -0.0191015)
(0.131811 0 -0.0181919)
(0.129023 0 -0.0172829)
(0.126221 0 -0.0163764)
(0.123345 0 -0.0154746)
(0.120337 0 -0.0145806)
(0.117127 0 -0.0136951)
(0.113645 0 -0.0128186)
(0.109818 0 -0.0119505)
(0.105572 0 -0.0110899)
(0.10083 0 -0.0102346)
(0.0955161 0 -0.00938165)
(0.0895513 0 -0.00852699)
(0.0828539 0 -0.00766531)
(0.0753394 0 -0.00678998)
(0.0669181 0 -0.00589278)
(0.0574919 0 -0.00496332)
(0.0469612 0 -0.00398877)
(0.0352285 0 -0.00295533)
(0.0221835 0 -0.00184572)
(0.00766485 0 -0.000635487)
(0.170225 0 -0.027826)
(0.168296 0 -0.0266017)
(0.16449 0 -0.0254353)
(0.160386 0 -0.0244669)
(0.15634 0 -0.0235914)
(0.152436 0 -0.0227486)
(0.148694 0 -0.0219106)
(0.145117 0 -0.0210663)
(0.141701 0 -0.0202127)
(0.138423 0 -0.0193494)
(0.135248 0 -0.0184778)
(0.13213 0 -0.0175999)
(0.129012 0 -0.0167179)
(0.125838 0 -0.0158345)
(0.122548 0 -0.0149525)
(0.119073 0 -0.0140733)
(0.115346 0 -0.0131979)
(0.111293 0 -0.0123262)
(0.10684 0 -0.0114574)
(0.101913 0 -0.0105898)
(0.0964315 0 -0.00972069)
(0.0903171 0 -0.00884603)
(0.0834865 0 -0.00796071)
(0.0758532 0 -0.00705813)
(0.067326 0 -0.00613003)
(0.0578076 0 -0.00516608)
(0.0471969 0 -0.0041537)
(0.0353901 0 -0.00307839)
(0.0222728 0 -0.00192238)
(0.00769102 0 -0.000661543)
(0.00675693 0 -0.000193664)
(0.0194235 0 -0.000557934)
(0.030535 0 -0.00088114)
(0.0402827 0 -0.00117013)
(0.0488202 0 -0.00142944)
(0.0563093 0 -0.001664)
(0.0629112 0 -0.00187756)
(0.0687454 0 -0.00207239)
(0.073922 0 -0.00225034)
(0.0785346 0 -0.00241283)
(0.0826926 0 -0.00256245)
(0.0865 0 -0.00270124)
(0.090038 0 -0.00283011)
(0.093399 0 -0.00295183)
(0.0966684 0 -0.00306934)
(0.0999291 0 -0.00318621)
(0.103284 0 -0.00330916)
(0.106817 0 -0.00344458)
(0.11058 0 -0.00359775)
(0.114654 0 -0.00377936)
(0.119114 0 -0.00400155)
(0.124023 0 -0.0042782)
(0.129431 0 -0.00462509)
(0.135387 0 -0.0050607)
(0.14184 0 -0.00559643)
(0.148726 0 -0.00625208)
(0.155929 0 -0.00705399)
(0.163209 0 -0.00805368)
(0.170113 0 -0.00938534)
(0.17628 0 -0.0115068)
(0.0068239 0 -0.000206417)
(0.0196254 0 -0.000595073)
(0.0308765 0 -0.000940851)
(0.0407642 0 -0.00125092)
(0.0494561 0 -0.00153073)
(0.0571168 0 -0.00178576)
(0.0638976 0 -0.00201984)
(0.0699235 0 -0.00223587)
(0.0753063 0 -0.00243616)
(0.0801459 0 -0.00262259)
(0.0845545 0 -0.00279858)
(0.0886216 0 -0.00296594)
(0.0924374 0 -0.00312718)
(0.0960957 0 -0.00328567)
(0.0996774 0 -0.00344508)
(0.103273 0 -0.00361058)
(0.106969 0 -0.00378871)
(0.110824 0 -0.00398473)
(0.114903 0 -0.00420695)
(0.119272 0 -0.00446599)
(0.12399 0 -0.00477412)
(0.129097 0 -0.00514515)
(0.134618 0 -0.00559464)
(0.140551 0 -0.00613984)
(0.146807 0 -0.00679289)
(0.15328 0 -0.00757671)
(0.15978 0 -0.00852192)
(0.166022 0 -0.00967937)
(0.171617 0 -0.0111408)
(0.176117 0 -0.0130492)
(0.00689133 0 -0.000219093)
(0.0198274 0 -0.000631975)
(0.0312151 0 -0.00100017)
(0.0412434 0 -0.0013314)
(0.0500891 0 -0.00163207)
(0.0579156 0 -0.00190775)
(0.0648715 0 -0.00216272)
(0.0710841 0 -0.00240039)
(0.0766678 0 -0.00262363)
(0.081727 0 -0.00283507)
(0.0863657 0 -0.00303783)
(0.0906739 0 -0.00323421)
(0.0947479 0 -0.00342827)
(0.0986732 0 -0.00362348)
(0.102531 0 -0.00382427)
(0.106406 0 -0.00403653)
(0.11036 0 -0.00426523)
(0.114457 0 -0.00451747)
(0.118753 0 -0.00480173)
(0.123297 0 -0.00512812)
(0.128126 0 -0.00550805)
(0.133259 0 -0.00595385)
(0.138686 0 -0.00647884)
(0.144366 0 -0.00709678)
(0.1502 0 -0.00782084)
(0.156048 0 -0.00866915)
(0.161716 0 -0.00966775)
(0.166929 0 -0.010845)
(0.171353 0 -0.012236)
(0.174683 0 -0.0139136)
(0.00695739 0 -0.000231571)
(0.020025 0 -0.000668316)
(0.0315453 0 -0.00105862)
(0.041711 0 -0.00141087)
(0.050705 0 -0.00173215)
(0.0586906 0 -0.00202837)
(0.0658141 0 -0.00230422)
(0.0722048 0 -0.00256357)
(0.0779783 0 -0.00280978)
(0.0832402 0 -0.00304598)
(0.0880911 0 -0.00327545)
(0.0926227 0 -0.00350136)
(0.0969246 0 -0.00372761)
(0.101079 0 -0.00395825)
(0.105163 0 -0.004198)
(0.109248 0 -0.00445239)
(0.113395 0 -0.00472716)
(0.117655 0 -0.00502926)
(0.122074 0 -0.00536676)
(0.126685 0 -0.00574878)
(0.131506 0 -0.00618524)
(0.136533 0 -0.00668642)
(0.141734 0 -0.00726273)
(0.147045 0 -0.00792484)
(0.152362 0 -0.00868315)
(0.157559 0 -0.00955368)
(0.162433 0 -0.0105453)
(0.166743 0 -0.0116645)
(0.170274 0 -0.0129282)
(0.17282 0 -0.0143725)
(0.00702042 0 -0.000243727)
(0.0202136 0 -0.000703748)
(0.031861 0 -0.00111568)
(0.0421588 0 -0.00148855)
(0.0512935 0 -0.00183006)
(0.0594296 0 -0.00214652)
(0.0667121 0 -0.002443)
(0.0732699 0 -0.00272378)
(0.0792195 0 -0.00299264)
(0.084666 0 -0.00325306)
(0.0897074 0 -0.00350861)
(0.0944341 0 -0.00376286)
(0.0989305 0 -0.0040198)
(0.103274 0 -0.00428369)
(0.107535 0 -0.00455931)
(0.111778 0 -0.004852)
(0.116053 0 -0.00516751)
(0.120406 0 -0.00551237)
(0.124868 0 -0.00589381)
(0.129459 0 -0.00631965)
(0.13418 0 -0.00679804)
(0.139014 0 -0.00733702)
(0.143915 0 -0.00794445)
(0.148811 0 -0.00862766)
(0.153611 0 -0.00939538)
(0.158177 0 -0.0102522)
(0.162334 0 -0.0111954)
(0.165925 0 -0.0122288)
(0.1688 0 -0.0133571)
(0.170829 0 -0.0145839)
(0.00707886 0 -0.000255427)
(0.0203892 0 -0.000737891)
(0.0321559 0 -0.00117074)
(0.0425784 0 -0.00156363)
(0.0518452 0 -0.00192481)
(0.0601213 0 -0.00226096)
(0.0675517 0 -0.00257758)
(0.0742643 0 -0.00287926)
(0.0803743 0 -0.00317013)
(0.0859857 0 -0.00345389)
(0.0911943 0 -0.00373439)
(0.0960873 0 -0.00401542)
(0.100744 0 -0.00430099)
(0.105238 0 -0.00459541)
(0.109631 0 -0.00490333)
(0.11398 0 -0.00522979)
(0.118329 0 -0.0055802)
(0.122712 0 -0.00596038)
(0.127152 0 -0.00637653)
(0.131656 0 -0.00683502)
(0.136216 0 -0.00734212)
(0.140805 0 -0.00790373)
(0.145376 0 -0.00852598)
(0.149855 0 -0.00921275)
(0.15415 0 -0.00996638)
(0.15814 0 -0.0107845)
(0.161706 0 -0.0116651)
(0.164733 0 -0.012606)
(0.167125 0 -0.0136029)
(0.168803 0 -0.014644)
(0.00713127 0 -0.000266529)
(0.0205477 0 -0.00077034)
(0.032424 0 -0.00122317)
(0.0429618 0 -0.00163525)
(0.0523506 0 -0.00201531)
(0.0607554 0 -0.0023704)
(0.0683203 0 -0.00270635)
(0.0751729 0 -0.00302809)
(0.0814265 0 -0.00333998)
(0.0871828 0 -0.00364595)
(0.0925342 0 -0.00394986)
(0.0975649 0 -0.00425571)
(0.10235 0 -0.00456743)
(0.106955 0 -0.00488923)
(0.111439 0 -0.00522548)
(0.115849 0 -0.00558082)
(0.120223 0 -0.00596007)
(0.124586 0 -0.00636823)
(0.128954 0 -0.00681036)
(0.133326 0 -0.00729137)
(0.137685 0 -0.00781576)
(0.142009 0 -0.00838844)
(0.146244 0 -0.00901186)
(0.150314 0 -0.00968575)
(0.154143 0 -0.0104092)
(0.157641 0 -0.0111794)
(0.160722 0 -0.0119921)
(0.163308 0 -0.0128415)
(0.165336 0 -0.0137186)
(0.166765 0 -0.0146072)
(0.00717633 0 -0.000276883)
(0.0206855 0 -0.000800663)
(0.0326596 0 -0.00127229)
(0.0433013 0 -0.00170249)
(0.0528006 0 -0.00210041)
(0.0613214 0 -0.00247344)
(0.069007 0 -0.00282769)
(0.0759832 0 -0.00316832)
(0.0823616 0 -0.00349987)
(0.088242 0 -0.00382653)
(0.0937126 0 -0.00415209)
(0.0988534 0 -0.00448049)
(0.103735 0 -0.00481552)
(0.108418 0 -0.00516124)
(0.112954 0 -0.00552162)
(0.117386 0 -0.00590079)
(0.121745 0 -0.00630289)
(0.12605 0 -0.00673202)
(0.13031 0 -0.00719214)
(0.13452 0 -0.00768691)
(0.138665 0 -0.00821956)
(0.142713 0 -0.00879257)
(0.146611 0 -0.00940475)
(0.150301 0 -0.0100551)
(0.153721 0 -0.0107414)
(0.156805 0 -0.0114596)
(0.159491 0 -0.0122042)
(0.161728 0 -0.0129676)
(0.163476 0 -0.0137393)
(0.164717 0 -0.014504)
(0.00721281 0 -0.000286332)
(0.0207989 0 -0.000828411)