/*--------------------------------*- C++ -*----------------------------------*\
| =========                 |                                                 |
| \\      /  F ield         | OpenFOAM: The Open Source CFD Toolbox           |
|  \\    /   O peration     | Version:  dev                                   |
|   \\  /    A nd           | Web:      www.OpenFOAM.org                      |
|    \\/     M anipulation  |                                                 |
\*---------------------------------------------------------------------------*/
FoamFile
{
    version     2.0;
    format      ascii;
    class       volVectorField;
    location    "0.53";
    object      cellDisplacement;
}
// * * * * * * * * * * * * * * * * * * * * * * * * * * * * * * * * * * * * * //

dimensions      [0 1 0 0 0 0 0];

internalField   nonuniform List<vector> 
465
(
(0.0045549 0 -1.25876e-06)
(0.0130712 0 -3.57058e-06)
(0.0204774 0 -5.46204e-06)
(0.0268592 0 -6.89393e-06)
(0.0323034 0 -7.82544e-06)
(0.0368884 0 -8.20509e-06)
(0.0406842 0 -7.9662e-06)
(0.0437531 0 -7.02319e-06)
(0.0461498 0 -5.2681e-06)
(0.0479223 0 -2.5658e-06)
(0.0491123 0 1.25317e-06)
(0.049757 0 6.39804e-06)
(0.0498885 0 1.3121e-05)
(0.0495351 0 2.1723e-05)
(0.0487206 0 3.25623e-05)
(0.0474669 0 4.60833e-05)
(0.0457936 0 6.28175e-05)
(0.0437198 0 8.34045e-05)
(0.0412649 0 0.000108618)
(0.03845 0 0.000139396)
(0.0352999 0 0.000176889)
(0.00455944 0 -3.79044e-06)
(0.0130849 0 -1.07546e-05)
(0.0205004 0 -1.64596e-05)
(0.0268922 0 -2.07905e-05)
(0.0323475 0 -2.36274e-05)
(0.0369448 0 -2.48185e-05)
(0.0407548 0 -2.4167e-05)
(0.04384 0 -2.14199e-05)
(0.0462556 0 -1.62585e-05)
(0.0480499 0 -8.28464e-06)
(0.0492652 0 3.00165e-06)
(0.049939 0 1.82188e-05)
(0.0501046 0 3.81109e-05)
(0.0497911 0 6.35639e-05)
(0.0490229 0 9.56215e-05)
(0.047823 0 0.00013559)
(0.0462123 0 0.000185022)
(0.0442111 0 0.000245773)
(0.0418406 0 0.000320081)
(0.0391237 0 0.000410639)
(0.0360873 0 0.000520712)
(0.00456843 0 -6.36345e-06)
(0.0131119 0 -1.80635e-05)
(0.020546 0 -2.76714e-05)
(0.0269576 0 -3.50043e-05)
(0.0324346 0 -3.98707e-05)
(0.0370564 0 -4.20271e-05)
(0.0408943 0 -4.11555e-05)
(0.0440118 0 -3.68476e-05)
(0.0464648 0 -2.85889e-05)
(0.0483025 0 -1.57411e-05)
(0.049568 0 2.50072e-06)
(0.0502997 0 2.71362e-05)
(0.0505327 0 5.9364e-05)
(0.0502985 0 0.000100608)
(0.0496221 0 0.000152493)
(0.0485287 0 0.000217119)
(0.0470419 0 0.000296923)
(0.0451845 0 0.000394802)
(0.0429807 0 0.000514205)
(0.040457 0 0.000659226)
(0.0376447 0 0.000834721)
(0.00458189 0 -9.00248e-06)
(0.0131523 0 -2.55718e-05)
(0.020614 0 -3.92256e-05)
(0.0270549 0 -4.97258e-05)
(0.0325642 0 -5.68223e-05)
(0.0372223 0 -6.01933e-05)
(0.0411016 0 -5.94159e-05)
(0.0442667 0 -5.39447e-05)
(0.0467752 0 -4.30943e-05)
(0.0486774 0 -2.60255e-05)
(0.050017 0 -1.67282e-06)
(0.050834 0 3.1301e-05)
(0.0511662 0 7.44852e-05)
(0.0510457 0 0.00012964)
(0.0505032 0 0.000198943)
(0.0495655 0 0.000285142)
(0.0482591 0 0.000391318)
(0.0466108 0 0.000521117)
(0.0446487 0 0.000678798)
(0.0424043 0 0.000869305)
(0.0399145 0 0.00109831)
(0.00459972 0 -1.17293e-05)
(0.0132058 0 -3.33453e-05)
(0.0207038 0 -5.12356e-05)
(0.0271833 0 -6.51249e-05)
(0.0327349 0 -7.47218e-05)
(0.0374405 0 -7.9645e-05)
(0.041374 0 -7.93882e-05)
(0.0446016 0 -7.32941e-05)
(0.0471827 0 -6.05361e-05)
(0.0491693 0 -4.0133e-05)
(0.050603 0 -1.07759e-05)
(0.05153 0 2.90303e-05)
(0.0519908 0 8.11692e-05)
(0.0520184 0 0.000147734)
(0.0516488 0 0.000231319)
(0.0509117 0 0.000334975)
(0.0498373 0 0.000462203)
(0.0484567 0 0.000617035)
(0.0468031 0 0.000804062)
(0.0449135 0 0.00102842)
(0.042831 0 0.00129571)
(0.00462178 0 -1.45621e-05)
(0.0132718 0 -4.14394e-05)
(0.0208143 0 -6.37974e-05)
(0.0273412 0 -8.13458e-05)
(0.0329446 0 -9.37736e-05)
(0.0377083 0 -0.000100664)
(0.0417078 0 -0.000101453)
(0.0450113 0 -9.54021e-05)
(0.0476809 0 -8.15701e-05)
(0.0497662 0 -5.88967e-05)
(0.0513134 0 -2.59588e-05)
(0.052375 0 1.88922e-05)
(0.0529916 0 7.76916e-05)
(0.0532008 0 0.000152768)
(0.0530401 0 0.000246877)
(0.0525442 0 0.000363205)
(0.0517478 0 0.000505362)
(0.0506871 0 0.000677389)
(0.0494005 0 0.000883711)
(0.0479306 0 0.00112902)
(0.0463261 0 0.00141805)
(0.00464782 0 -1.75153e-05)
(0.0133495 0 -4.98975e-05)
(0.0209444 0 -7.69865e-05)
(0.0275266 0 -9.85028e-05)
(0.0331905 0 -0.000114141)
(0.0380219 0 -0.000123475)
(0.0420982 0 -0.000125917)
(0.0454894 0 -0.000120685)
(0.0482593 0 -0.00010677)
(0.0504578 0 -8.29836e-05)
(0.0521402 0 -4.80981e-05)
(0.0533573 0 -2.44286e-07)
(0.0541535 0 6.26436e-05)
(0.0545705 0 0.000142944)
(0.054649 0 0.000243398)
(0.0544282 0 0.000367108)
(0.0539479 0 0.000517498)
(0.0532492 0 0.000698259)
(0.0523759 0 0.000913212)
(0.0513758 0 0.00116608)
(0.0503022 0 0.00146007)
(0.00467752 0 -2.05987e-05)
(0.0134381 0 -5.87497e-05)
(0.0210923 0 -9.08558e-05)
(0.027737 0 -0.000116677)
(0.0334692 0 -0.000135942)
(0.0383769 0 -0.000148243)
(0.0425394 0 -0.000153004)
(0.0460286 0 -0.000149444)
(0.0489093 0 -0.000136558)
(0.0512376 0 -0.000113085)
(0.0530694 0 -7.78267e-05)
(0.0544591 0 -2.91601e-05)
(0.0554542 0 3.50556e-05)
(0.0561002 0 0.000117089)
(0.0564415 0 0.000219494)
(0.056522 0 0.000345075)
(0.0563862 0 0.000496816)
(0.0560801 0 0.000677756)
(0.0556524 0 0.000890773)
(0.0551554 0 0.00113825)
(0.0546455 0 0.00142155)
(0.00471048 0 -2.38176e-05)
(0.0135362 0 -6.80121e-05)
(0.0212558 0 -0.000105434)
(0.0279694 0 -0.000135914)
(0.0337767 0 -0.000159242)
(0.0387679 0 -0.000175063)
(0.0430246 0 -0.000182844)
(0.0466208 0 -0.000181852)
(0.0496234 0 -0.000171137)
(0.0520927 0 -0.000149532)
(0.0540859 0 -0.000115687)
(0.0556598 0 -6.82546e-05)
(0.0568681 0 -5.52947e-06)
(0.0577585 0 7.47116e-05)
(0.0583792 0 0.000174676)
(0.0587783 0 0.000296694)
(0.0590047 0 0.000443105)
(0.0591089 0 0.000616078)
(0.0591439 0 0.000817338)
(0.0591652 0 0.00104777)
(0.0592309 0 0.00130684)
(0.00474622 0 -2.71723e-05)
(0.0136425 0 -7.76867e-05)
(0.0214326 0 -0.000120727)
(0.0282204 0 -0.000156224)
(0.0341082 0 -0.000184059)
(0.0391889 0 -0.000203959)
(0.0435464 0 -0.000215472)
(0.0472568 0 -0.00021795)
(0.0503894 0 -0.000210546)
(0.0530079 0 -0.000192224)
(0.0551722 0 -0.000161772)
(0.0569394 0 -0.000117793)
(0.0583674 0 -5.90426e-05)
(0.0595114 0 1.60092e-05)
(0.0604203 0 0.000109362)
(0.061146 0 0.000222734)
(0.0617412 0 0.000357684)
(0.06226 0 0.000515397)
(0.0627587 0 0.000696359)
(0.063295 0 0.000899978)
(0.063927 0 0.00112404)
(0.00478419 0 -3.06588e-05)
(0.0137553 0 -8.77613e-05)
(0.0216201 0 -0.000136715)
(0.0284861 0 -0.00017758)
(0.0344588 0 -0.000210358)
(0.0396336 0 -0.000234888)
(0.0440966 0 -0.000250829)
(0.0479262 0 -0.000257655)
(0.0511943 0 -0.000254664)
(0.0539672 0 -0.00024099)
(0.0563074 0 -0.000215631)
(0.0582748 0 -0.000177457)
(0.0599267 0 -0.00012525)
(0.0613231 0 -5.81625e-05)
(0.0625212 0 2.48153e-05)
(0.0635722 0 0.000125048)
(0.0645315 0 0.000243246)
(0.0654557 0 0.000379592)
(0.0664035 0 0.000533365)
(0.0674334 0 0.000702648)
(0.0686023 0 0.000883914)
(0.00482383 0 -3.42683e-05)
(0.0138729 0 -9.82101e-05)
(0.0218154 0 -0.000153355)
(0.0287627 0 -0.000199923)
(0.0348232 0 -0.000238059)
(0.040095 0 -0.000267742)
(0.0446666 0 -0.000288769)
(0.0486185 0 -0.00030077)
(0.0520248 0 -0.000303218)
(0.0549543 0 -0.00029546)
(0.0574718 0 -0.000276747)
(0.0596394 0 -0.000246266)
(0.0615167 0 -0.000203203)
(0.0631625 0 -0.000146804)
(0.0646389 0 -7.69657e-05)
(0.066005 0 6.39958e-06)
(0.0673132 0 0.000103592)
(0.0686209 0 0.000213883)
(0.0699884 0 0.000335431)
(0.0714737 0 0.000465225)
(0.0731313 0 0.000598833)
(0.00486451 0 -3.79878e-05)
(0.0139936 0 -0.000108995)
(0.0220156 0 -0.000170584)
(0.0290458 0 -0.00022316)
(0.035196 0 -0.000267037)
(0.0405664 0 -0.000302353)
(0.0452478 0 -0.000329069)
(0.049323 0 -0.000346993)
(0.0528678 0 -0.000355802)
(0.0559532 0 -0.000355084)
(0.0586458 0 -0.000344374)
(0.0610096 0 -0.000323209)
(0.063106 0 -0.000291197)
(0.0649955 0 -0.000248101)
(0.0667373 0 -0.000193947)
(0.0683951 0 -0.000129741)
(0.070028 0 -5.66776e-05)
(0.0716857 0 2.44076e-05)
(0.0734305 0 0.000110617)
(0.0753185 0 0.0001981)
(0.0774003 0 0.000281867)
(0.00490562 0 -4.18004e-05)
(0.0141154 0 -0.000120064)
(0.0222177 0 -0.000188319)
(0.0293314 0 -0.000247172)
(0.0355715 0 -0.000297126)
(0.0410406 0 -0.000338498)
(0.0458317 0 -0.000371431)
(0.050029 0 -0.00039593)
(0.0537104 0 -0.000411894)
(0.0569482 0 -0.000419164)
(0.0598107 0 -0.00041758)
(0.062363 0 -0.000407038)
(0.0646679 0 -0.000387569)
(0.0667864 0 -0.000359435)
(0.0687785 0 -0.000323246)
(0.0707036 0 -0.000280098)
(0.0726245 0 -0.000232518)
(0.0745885 0 -0.0001822)
(0.0766581 0 -0.000132561)
(0.0788843 0 -8.80162e-05)
(0.0813125 0 -5.3847e-05)
(0.00494654 0 -4.56859e-05)
(0.0142367 0 -0.000131356)
(0.0224187 0 -0.000206458)
(0.0296153 0 -0.000271811)
(0.0359445 0 -0.000328126)
(0.0415111 0 -0.00037591)
(0.0464097 0 -0.000415503)
(0.0507264 0 -0.000447114)
(0.0545402 0 -0.000470873)
(0.0579246 0 -0.000486886)
(0.060949 0 -0.000495292)
(0.0636791 0 -0.000496338)
(0.066178 0 -0.000490458)
(0.0685069 0 -0.000478373)
(0.0707251 0 -0.000461191)
(0.0728911 0 -0.000440516)
(0.0750549 0 -0.000418653)
(0.0772777 0 -0.000399168)
(0.0796131 0 -0.000385593)
(0.0821054 0 -0.000382594)
(0.0847934 0 -0.00039555)
(0.0226187 0 -0.000225184)
(0.0298979 0 -0.000297321)
(0.0363154 0 -0.000360322)
(0.0419784 0 -0.000414903)
(0.0469829 0 -0.000461607)
(0.0514162 0 -0.000500856)
(0.0553583 0 -0.000533014)
(0.0588835 0 -0.000558448)
(0.0620615 0 -0.000577587)
(0.0649582 0 -0.000591009)
(0.0676364 0 -0.000599514)
(0.0701561 0 -0.000604222)
(0.0725751 0 -0.000606663)
(0.074948 0 -0.000608854)
(0.077323 0 -0.000613297)
(0.0797598 0 -0.000624185)
(0.0823026 0 -0.000645329)
(0.0849894 0 -0.000681447)
(0.0878502 0 -0.000737826)
(0.0301766 0 -0.000323775)
(0.0366813 0 -0.000393804)
(0.0424389 0 -0.000455565)
(0.0475467 0 -0.000509815)
(0.052093 0 -0.000557193)
(0.0561582 0 -0.000598292)
(0.0598171 0 -0.000633727)
(0.063139 0 -0.0006642)
(0.0661893 0 -0.000690583)
(0.0690298 0 -0.000713991)
(0.0717187 0 -0.000735871)
(0.0743113 0 -0.000758082)
(0.0768591 0 -0.000782975)
(0.0794097 0 -0.000813493)
(0.0820107 0 -0.000853466)
(0.0847005 0 -0.000906962)
(0.0875091 0 -0.000978592)
(0.0904569 0 -0.00107335)
(0.0370333 0 -0.000428109)
(0.042882 0 -0.00049733)
(0.0480887 0 -0.000559433)
(0.0527421 0 -0.000615275)
(0.056923 0 -0.000665666)
(0.0607057 0 -0.000711452)
(0.0641591 0 -0.000753575)
(0.0673474 0 -0.000793153)
(0.0703305 0 -0.000831555)
(0.0731645 0 -0.000870474)
(0.0759014 0 -0.000911989)
(0.0785889 0 -0.000958634)
(0.0812704 0 -0.00101347)
(0.083985 0 -0.00108011)
(0.0867635 0 -0.00116253)
(0.0896277 0 -0.00126505)
(0.0925883 0 -0.00139222)
(0.0433003 0 -0.000539824)
(0.0486001 0 -0.000610004)
(0.0533536 0 -0.00067453)
(0.0576413 0 -0.00073442)
(0.0615368 0 -0.000790731)
(0.0651079 0 -0.000844601)
(0.0684173 0 -0.000897346)
(0.0715227 0 -0.000950522)
(0.0744772 0 -0.00100598)
(0.0773292 0 -0.00106592)
(0.0801221 0 -0.00113291)
(0.0828939 0 -0.00120995)
(0.0856765 0 -0.00130043)
(0.0884935 0 -0.00140802)
(0.0913588 0 -0.00153663)
(0.0942752 0 -0.00169028)
(0.0490724 0 -0.00066099)
(0.0539178 0 -0.000734311)
(0.0583023 0 -0.000803754)
(0.0622986 0 -0.000870585)
(0.0659729 0 -0.000936087)
(0.0693859 0 -0.00100172)
(0.0725929 0 -0.00106916)
(0.0756438 0 -0.00114035)
(0.078583 0 -0.00121748)
(0.0814493 0 -0.00130307)
(0.0842755 0 -0.00139995)
(0.0870871 0 -0.0015112)
(0.0899015 0 -0.00164011)
(0.0927263 0 -0.00179006)
(0.0955584 0 -0.00196454)
(0.0544257 0 -0.000793892)
(0.0588964 0 -0.000872794)
(0.0629806 0 -0.000949972)
(0.0667431 0 -0.00102679)
(0.0702421 0 -0.00110479)
(0.0735305 0 -0.00118574)
(0.0766548 0 -0.00127157)
(0.0796553 0 -0.00136443)
(0.0825665 0 -0.00146666)
(0.0854162 0 -0.00158085)
(0.0882248 0 -0.00170972)
(0.0910048 0 -0.00185611)
(0.0937594 0 -0.0020229)
(0.0964822 0 -0.00221297)
(0.0635737 0 -0.00102778)
(0.0674091 0 -0.00111542)
(0.0709769 0 -0.00120508)
(0.0743273 0 -0.00129856)
(0.0775038 0 -0.00139776)
(0.0805426 0 -0.00150468)
(0.083474 0 -0.00162146)
(0.0863217 0 -0.00175036)
(0.0891024 0 -0.00189374)
(0.0918245 0 -0.00205396)
(0.0944892 0 -0.00223335)
(0.0970897 0 -0.00243426)
(0.0679638 0 -0.0012007)
(0.0715835 0 -0.00130113)
(0.0749778 0 -0.00140595)
(0.0781878 0 -0.00151711)
(0.0812448 0 -0.00163633)
(0.0841758 0 -0.0017655)
(0.0870015 0 -0.00190656)
(0.0897353 0 -0.00206147)
(0.0923835 0 -0.00223209)
(0.0949456 0 -0.00242019)
(0.0974154 0 -0.00262744)
(0.0754804 0 -0.00150668)
(0.0787085 0 -0.00162835)
(0.0817663 0 -0.00175802)
(0.08468 0 -0.00189737)
(0.0874678 0 -0.00204803)
(0.0901411 0 -0.00221154)
(0.0927048 0 -0.00238927)
(0.0951574 0 -0.0025824)
(0.0974913 0 -0.00279176)
(0.0821099 0 -0.00186805)
(0.084992 0 -0.00201537)
(0.0877294 0 -0.00217308)
(0.0903323 0 -0.00234237)
(0.0928051 0 -0.00252416)
(0.0951467 0 -0.00271915)
(0.097351 0 -0.0029277)
(0.0851203 0 -0.00211782)
(0.0877991 0 -0.00228033)
(0.0903264 0 -0.00245302)
(0.0927066 0 -0.00263642)
(0.09494 0 -0.00283088)
(0.0970226 0 -0.00303642)
(0.0901412 0 -0.00254306)
(0.0924301 0 -0.00272601)
(0.0945604 0 -0.00291799)
(0.0965302 0 -0.00311872)
(0.0940281 0 -0.00298087)
(0.0958944 0 -0.00317542)
)
;

boundaryField
{
    inlet
    {
        type            cellMotion;
        value           uniform (0 0 0);
    }
    outlet
    {
        type            cellMotion;
        value           nonuniform 0();
    }
    flap
    {
        type            cellMotion;
        value           nonuniform 0();
    }
    upperWall
    {
        type            slip;
    }
    lowerWall
    {
        type            slip;
    }
    frontAndBack
    {
        type            empty;
    }
    procBoundary3to0
    {
        type            processor;
        value           nonuniform List<vector> 
34
(
(0.00498731 0 -4.97043e-05)
(0.0143575 0 -0.000143033)
(0.0143575 0 -0.000143033)
(0.0228159 0 -0.000244632)
(0.0228159 0 -0.000244632)
(0.0304444 0 -0.000350915)
(0.0304444 0 -0.000350915)
(0.0373653 0 -0.000463065)
(0.0373653 0 -0.000463065)
(0.0436864 0 -0.00058275)
(0.0436864 0 -0.00058275)
(0.0494977 0 -0.000711939)
(0.0494977 0 -0.000711939)
(0.0548692 0 -0.000852653)
(0.0594146 0 -0.000940712)
(0.0594146 0 -0.000940712)
(0.0640702 0 -0.00110303)
(0.0640702 0 -0.00110303)
(0.068402 0 -0.00128149)
(0.0720572 0 -0.00139161)
(0.0720572 0 -0.00139161)
(0.0758404 0 -0.00159961)
(0.079067 0 -0.00172995)
(0.079067 0 -0.00172995)
(0.0822804 0 -0.00196472)
(0.0822804 0 -0.00196472)
(0.0850772 0 -0.00220393)
(0.0876921 0 -0.00236914)
(0.0876921 0 -0.00236914)
(0.089795 0 -0.00261238)
(0.0919952 0 -0.00279305)
(0.0919952 0 -0.00279305)
(0.0933627 0 -0.00302016)
(0.0951345 0 -0.0032074)
)
;
    }
    procBoundary3to1
    {
        type            processor;
        value           nonuniform List<vector> 9((0.0983824 0 -0.00216689) (0.0991581 0 -0.00242926) (0.099606 0 -0.00265848) (0.0997707 0 -0.00285426) (0.0996913 0 -0.00301745) (0.0994074 0 -0.0031498) (0.0989478 0 -0.00325277) (0.0983365 0 -0.00332779) (0.097594 0 -0.00337611));
    }
    procBoundary3to4
    {
        type            processor;
        value           nonuniform List<vector> 
19
(
(0.0318447 0 0.000222509)
(0.0327645 0 0.000654263)
(0.0345817 0 0.00104642)
(0.0372241 0 0.00137219)
(0.0406068 0 0.00161182)
(0.0446439 0 0.00175511)
(0.0492153 0 0.00179727)
(0.0541838 0 0.00174025)
(0.0594005 0 0.00159182)
(0.0647111 0 0.00136404)
(0.0699623 0 0.00107159)
(0.0750086 0 0.000730261)
(0.0797181 0 0.000355935)
(0.0839788 0 -3.58647e-05)
(0.0877054 0 -0.000430099)
(0.0909041 0 -0.000819886)
(0.0935518 0 -0.00119631)
(0.0956428 0 -0.00154864)
(0.0972324 0 -0.001873)
)
;
    }
}


// ************************************************************************* //
