/*--------------------------------*- C++ -*----------------------------------*\
| =========                 |                                                 |
| \\      /  F ield         | OpenFOAM: The Open Source CFD Toolbox           |
|  \\    /   O peration     | Version:  dev                                   |
|   \\  /    A nd           | Web:      www.OpenFOAM.org                      |
|    \\/     M anipulation  |                                                 |
\*---------------------------------------------------------------------------*/
FoamFile
{
    version     2.0;
    format      ascii;
    class       volVectorField;
    location    "3.5";
    object      Force;
}
// * * * * * * * * * * * * * * * * * * * * * * * * * * * * * * * * * * * * * //

dimensions      [1 1 -2 0 0 0 0];

internalField   uniform (0 0 0);

boundaryField
{
    inlet
    {
        type            calculated;
        value           uniform (0 0 0);
    }
    outlet
    {
        type            calculated;
        value           uniform (0 0 0);
    }
    flap
    {
        type            calculated;
        value           nonuniform List<vector> 
33
(
(3.74897 6.21414e-19 -0.0751934)
(3.73854 6.09464e-21 -0.166312)
(3.73006 1.0219e-20 -0.252749)
(3.71814 -2.4893e-18 -0.322082)
(3.69535 -4.70198e-38 -0.37578)
(3.65938 1.66739e-18 -0.415569)
(3.61018 -1.6597e-18 -0.44411)
(3.54775 6.47836e-18 -0.463084)
(3.46956 9.40395e-38 -0.474095)
(3.37106 4.58051e-18 -0.477253)
(3.24592 1.63453e-18 -0.470665)
(3.0822 -4.20944e-18 -0.452755)
(2.85654 -2.28874e-18 -0.421145)
(2.51825 1.57728e-18 -0.369453)
(1.93657 3.78702e-19 -0.282148)
(0.104011 4.66073e-19 0.681973)
(0.0640286 -2.88309e-19 0.425755)
(0.0234461 7.74178e-19 0.165563)
(-0.0288708 1.53451e-18 0.00057908)
(-0.0287139 9.9237e-21 0.00118041)
(-0.028424 1.56021e-18 0.00174579)
(-0.0280553 -4.84657e-23 0.00216693)
(-0.0277864 1.90549e-20 0.00249595)
(-0.0278736 -1.59312e-18 0.00278972)
(-0.0285703 -3.2013e-18 0.00311841)
(-0.0299808 1.60685e-18 0.00353537)
(-0.031817 1.61212e-18 0.00402576)
(-0.0335004 -2.49822e-25 0.00450608)
(-0.0345411 -4.65234e-20 0.00488378)
(-0.0349275 -4.72944e-20 0.00520588)
(-0.033991 -5.87747e-39 0.00531438)
(-0.0298401 0 0.00494834)
(-0.0196783 1.7674e-18 0.0033361)
)
;
    }
    upperWall
    {
        type            calculated;
        value           uniform (0 0 0);
    }
    lowerWall
    {
        type            calculated;
        value           uniform (0 0 0);
    }
    frontAndBack
    {
        type            empty;
    }
}


// ************************************************************************* //
