/*--------------------------------*- C++ -*----------------------------------*\
| =========                 |                                                 |
| \\      /  F ield         | OpenFOAM: The Open Source CFD Toolbox           |
|  \\    /   O peration     | Version:  dev                                   |
|   \\  /    A nd           | Web:      www.OpenFOAM.org                      |
|    \\/     M anipulation  |                                                 |
\*---------------------------------------------------------------------------*/
FoamFile
{
    version     2.0;
    format      ascii;
    class       volVectorField;
    location    "2.5";
    object      cellDisplacement;
}
// * * * * * * * * * * * * * * * * * * * * * * * * * * * * * * * * * * * * * //

dimensions      [0 1 0 0 0 0 0];

internalField   nonuniform List<vector> 
2790
(
(0.011308 0 -4.76935e-05)
(0.0322521 0 -0.000136397)
(0.050049 0 -0.000213834)
(0.0649751 0 -0.00028157)
(0.0773402 0 -0.000341453)
(0.0874061 0 -0.00039469)
(0.0954048 0 -0.000441628)
(0.101542 0 -0.000482783)
(0.105998 0 -0.000518351)
(0.108926 0 -0.000548277)
(0.110463 0 -0.000572291)
(0.110729 0 -0.000589891)
(0.109831 0 -0.000600368)
(0.107864 0 -0.000602942)
(0.10492 0 -0.000597753)
(0.101076 0 -0.000580861)
(0.0964055 0 -0.000551856)
(0.0909819 0 -0.000509)
(0.0848763 0 -0.00045013)
(0.0781618 0 -0.000372748)
(0.0709155 0 -0.000274034)
(0.0632217 0 -0.000150857)
(0.0551756 0 1.77974e-07)
(0.0468884 0 0.000182598)
(0.0384872 0 0.000400259)
(0.0301626 0 0.000658594)
(0.0221652 0 0.000961402)
(0.0148637 0 0.00131162)
(0.00886392 0 0.00170294)
(0.00545239 0 0.00207454)
(0.0113239 0 -0.000143254)
(0.0323014 0 -0.000409708)
(0.0501284 0 -0.000642499)
(0.0650833 0 -0.000846092)
(0.0774813 0 -0.0010262)
(0.0875823 0 -0.00118657)
(0.0956184 0 -0.001328)
(0.101798 0 -0.00145218)
(0.1063 0 -0.00155972)
(0.109281 0 -0.00165047)
(0.110878 0 -0.00172366)
(0.111212 0 -0.00177781)
(0.11039 0 -0.00181076)
(0.108506 0 -0.00181971)
(0.105656 0 -0.00180144)
(0.101922 0 -0.00175267)
(0.0973764 0 -0.00166865)
(0.0920944 0 -0.00154393)
(0.086151 0 -0.00137217)
(0.0796225 0 -0.0011461)
(0.0725907 0 -0.000857557)
(0.0651464 0 -0.000497444)
(0.0573945 0 -5.58688e-05)
(0.0494665 0 0.000477205)
(0.0414876 0 0.00111466)
(0.0336521 0 0.00186695)
(0.0262454 0 0.00273943)
(0.0196479 0 0.00373198)
(0.0146224 0 0.00481766)
(0.0125967 0 0.0057787)
(0.0113552 0 -0.000239288)
(0.0323993 0 -0.000684397)
(0.0502853 0 -0.00107173)
(0.0652958 0 -0.00141135)
(0.0777599 0 -0.0017121)
(0.0879304 0 -0.00198064)
(0.0960401 0 -0.00221737)
(0.102303 0 -0.00242574)
(0.106898 0 -0.00260672)
(0.109984 0 -0.00276014)
(0.1117 0 -0.00288486)
(0.112167 0 -0.00297854)
(0.111496 0 -0.00303771)
(0.109785 0 -0.0030577)
(0.107126 0 -0.00303178)
(0.103608 0 -0.00295816)
(0.0993094 0 -0.00282791)
(0.0943092 0 -0.00263232)
(0.0886875 0 -0.0023614)
(0.0825272 0 -0.00200383)
(0.0759177 0 -0.00154696)
(0.0689595 0 -0.000976903)
(0.0617678 0 -0.000278417)
(0.0545041 0 0.000562651)
(0.0473467 0 0.00156169)
(0.0405187 0 0.00272802)
(0.0343487 0 0.00406119)
(0.0291983 0 0.00555086)
(0.0258096 0 0.00710633)
(0.0261484 0 0.00832403)
(0.0114011 0 -0.000335401)
(0.0325285 0 -0.000959148)
(0.0505029 0 -0.00150141)
(0.0656107 0 -0.0019779)
(0.0781756 0 -0.00239986)
(0.0884475 0 -0.00277451)
(0.0966655 0 -0.0031071)
(0.103052 0 -0.00340088)
(0.107786 0 -0.00365705)
(0.111027 0 -0.00387551)
(0.112917 0 -0.00405501)
(0.113582 0 -0.00419253)
(0.113135 0 -0.00428361)
(0.111677 0 -0.00432245)
(0.109305 0 -0.00430198)
(0.106111 0 -0.00421569)
(0.102178 0 -0.00405368)
(0.0975959 0 -0.00380538)
(0.0924518 0 -0.00345809)
(0.0868387 0 -0.0029976)
(0.0808587 0 -0.00240842)
(0.0746292 0 -0.00167419)
(0.0682796 0 -0.000776837)
(0.0619788 0 0.00030008)
(0.0559576 0 0.00156661)
(0.0505083 0 0.00302538)
(0.0460636 0 0.00465471)
(0.0431251 0 0.0063915)
(0.0421989 0 0.00810024)
(0.0455131 0 0.00915856)
(0.0114616 0 -0.00043106)
(0.0327043 0 -0.00123289)
(0.0507956 0 -0.00193139)
(0.0660257 0 -0.00254534)
(0.0787128 0 -0.00308913)
(0.0891202 0 -0.00357127)
(0.0974909 0 -0.00400199)
(0.104042 0 -0.00438366)
(0.108958 0 -0.00471814)
(0.112404 0 -0.00500552)
(0.114526 0 -0.00524492)
(0.115452 0 -0.00543279)
(0.115298 0 -0.00556399)
(0.114174 0 -0.00563195)
(0.112179 0 -0.00562875)
(0.109409 0 -0.0055455)
(0.105957 0 -0.00537087)
(0.101922 0 -0.00509408)
(0.097402 0 -0.0047007)
(0.092502 0 -0.00417488)
(0.0873374 0 -0.00349999)
(0.0820397 0 -0.00265877)
(0.0767969 0 -0.00163947)
(0.0717825 0 -0.00042705)
(0.0672666 0 0.00098006)
(0.0635651 0 0.00257273)
(0.061179 0 0.00429458)
(0.060867 0 0.00600066)
(0.0632378 0 0.0074818)
(0.0699164 0 0.00796712)
(0.0115363 0 -0.000526186)
(0.0329236 0 -0.00150529)
(0.0511582 0 -0.0023593)
(0.0665359 0 -0.00311056)
(0.0793762 0 -0.00377691)
(0.0899528 0 -0.00437059)
(0.0985092 0 -0.00490199)
(0.105262 0 -0.00537443)
(0.110403 0 -0.00579093)
(0.114101 0 -0.00615175)
(0.116506 0 -0.0064572)
(0.117752 0 -0.00670325)
(0.11796 0 -0.00688445)
(0.117244 0 -0.00699383)
(0.11571 0 -0.007023)
(0.113462 0 -0.00696212)
(0.110593 0 -0.00679769)
(0.107227 0 -0.00652223)
(0.103472 0 -0.00612025)
(0.0994462 0 -0.00557604)
(0.0952839 0 -0.0048744)
(0.091141 0 -0.00400128)
(0.0872013 0 -0.00294511)
(0.083705 0 -0.00170486)
(0.0810111 0 -0.000301762)
(0.0794642 0 0.0012307)
(0.07953 0 0.00281278)
(0.0820907 0 0.00422312)
(0.0881083 0 0.00509532)
(0.0985242 0 0.00463049)
(0.0116244 0 -0.000620676)
(0.0331831 0 -0.00177605)
(0.0515863 0 -0.00278486)
(0.0671367 0 -0.00367334)
(0.0801584 0 -0.00446282)
(0.0909337 0 -0.00516865)
(0.099707 0 -0.00580305)
(0.106695 0 -0.0063689)
(0.1121 0 -0.00687126)
(0.116091 0 -0.00730987)
(0.118829 0 -0.00768815)
(0.120449 0 -0.00800112)
(0.121078 0 -0.00824343)
(0.120837 0 -0.00840832)
(0.119841 0 -0.00848766)
(0.118208 0 -0.00847281)
(0.116041 0 -0.0083519)
(0.113455 0 -0.00811206)
(0.110591 0 -0.00774375)
(0.10758 0 -0.00723318)
(0.104565 0 -0.00656633)
(0.101774 0 -0.00574444)
(0.0993827 0 -0.00475849)
(0.0976735 0 -0.00362009)
(0.0969942 0 -0.00236385)
(0.0978403 0 -0.00107558)
(0.100763 0 0.000112462)
(0.106425 0 0.000957835)
(0.116204 0 0.000909003)
(0.130554 0 -0.000815164)
(0.0117256 0 -0.000714846)
(0.0334813 0 -0.0020461)
(0.0520777 0 -0.00320972)
(0.0678255 0 -0.00423599)
(0.0810552 0 -0.00514976)
(0.0920587 0 -0.00596913)
(0.101074 0 -0.00670569)
(0.108329 0 -0.00736773)
(0.114032 0 -0.00796078)
(0.118365 0 -0.00848731)
(0.121484 0 -0.00894675)
(0.123529 0 -0.00933663)
(0.124636 0 -0.00965254)
(0.124934 0 -0.00988841)
(0.124545 0 -0.0100368)
(0.123601 0 -0.0100916)
(0.122227 0 -0.0100444)
(0.12052 0 -0.00987639)
(0.118662 0 -0.00958817)
(0.116804 0 -0.00917055)
(0.11511 0 -0.00861449)
(0.113795 0 -0.00792244)
(0.113104 0 -0.00710515)
(0.113413 0 -0.00620474)
(0.115025 0 -0.00526586)
(0.118448 0 -0.00439928)
(0.124436 0 -0.0038287)
(0.133523 0 -0.003821)
(0.147123 0 -0.00503972)
(0.165298 0 -0.00821769)
(0.0118393 0 -0.000808535)
(0.0338158 0 -0.00231497)
(0.0526279 0 -0.00363321)
(0.0685958 0 -0.00479766)
(0.0820569 0 -0.00583667)
(0.0933063 0 -0.00677063)
(0.102593 0 -0.00761208)
(0.110153 0 -0.00837474)
(0.116195 0 -0.00906402)
(0.120907 0 -0.00968483)
(0.124442 0 -0.0102328)
(0.126957 0 -0.0107099)
(0.128593 0 -0.0111124)
(0.129485 0 -0.0114356)
(0.129761 0 -0.0116719)
(0.129573 0 -0.0118211)
(0.129055 0 -0.0118751)
(0.128336 0 -0.0118239)
(0.127578 0 -0.0116631)
(0.126974 0 -0.0113951)
(0.126722 0 -0.0110218)
(0.127053 0 -0.0105558)
(0.128249 0 -0.0100218)
(0.130654 0 -0.00946925)
(0.134783 0 -0.0090109)
(0.14109 0 -0.00877267)
(0.150257 0 -0.0090068)
(0.163123 0 -0.0101033)
(0.180397 0 -0.0126424)
(0.202105 0 -0.0173488)
(0.0119631 0 -0.00090108)
(0.0341807 0 -0.00258081)
(0.0532284 0 -0.00405242)
(0.0694363 0 -0.00535453)
(0.0831497 0 -0.00651906)
(0.0946703 0 -0.00756922)
(0.104258 0 -0.00852115)
(0.11215 0 -0.00938821)
(0.118558 0 -0.010178)
(0.123672 0 -0.0108952)
(0.127656 0 -0.0115387)
(0.13068 0 -0.0121135)
(0.132886 0 -0.0126159)
(0.134423 0 -0.013044)
(0.135433 0 -0.0133946)
(0.136058 0 -0.0136637)
(0.13646 0 -0.0138509)
(0.136799 0 -0.013955)
(0.137215 0 -0.0139682)
(0.137955 0 -0.0139092)
(0.139234 0 -0.0137885)
(0.141311 0 -0.0136315)
(0.144533 0 -0.0134907)
(0.149246 0 -0.013429)
(0.155952 0 -0.013574)
(0.165325 0 -0.0141407)
(0.177847 0 -0.0153637)
(0.194587 0 -0.0177502)
(0.215476 0 -0.0217309)
(0.240344 0 -0.0279422)
(0.0120957 0 -0.000992297)
(0.0345725 0 -0.00284313)
(0.0538735 0 -0.00446667)
(0.0703394 0 -0.00590578)
(0.0843243 0 -0.00719602)
(0.0961373 0 -0.0083636)
(0.106047 0 -0.00942758)
(0.114293 0 -0.0104022)
(0.121092 0 -0.0112969)
(0.126636 0 -0.0121177)
(0.131112 0 -0.0128694)
(0.13468 0 -0.013553)
(0.137491 0 -0.0141681)
(0.13971 0 -0.0147175)
(0.141495 0 -0.0152024)
(0.142973 0 -0.0156141)
(0.14434 0 -0.0159642)
(0.145766 0 -0.0162553)
(0.147434 0 -0.0164933)
(0.149578 0 -0.0166978)
(0.152459 0 -0.0168977)
(0.156358 0 -0.017132)
(0.161651 0 -0.0174714)
(0.168777 0 -0.0180198)
(0.178217 0 -0.0189182)
(0.19064 0 -0.0204067)
(0.206702 0 -0.0227957)
(0.227196 0 -0.0265677)
(0.251742 0 -0.0320794)
(0.279372 0 -0.0396988)
(0.0122369 0 -0.00108245)
(0.0349896 0 -0.00310266)
(0.0545608 0 -0.00487716)
(0.0713018 0 -0.00645304)
(0.0855759 0 -0.00786955)
(0.0977008 0 -0.00915593)
(0.107952 0 -0.0103341)
(0.116573 0 -0.0114197)
(0.123784 0 -0.012424)
(0.129787 0 -0.0133552)
(0.134779 0 -0.0142229)
(0.138913 0 -0.0150244)
(0.142352 0 -0.015763)
(0.14528 0 -0.0164481)
(0.147853 0 -0.0170813)
(0.150234 0 -0.0176648)
(0.152599 0 -0.0182059)
(0.155147 0 -0.0187185)
(0.158091 0 -0.0192203)
(0.16167 0 -0.0197379)
(0.166176 0 -0.0203155)
(0.171919 0 -0.0210088)
(0.179331 0 -0.0219174)
(0.18884 0 -0.0231572)
(0.201085 0 -0.0249336)
(0.216604 0 -0.0274734)
(0.236297 0 -0.0311762)
(0.260391 0 -0.0363835)
(0.288444 0 -0.0434151)
(0.318456 0 -0.052296)
(0.0123856 0 -0.0011713)
(0.0354284 0 -0.0033587)
(0.0552838 0 -0.00528277)
(0.0723143 0 -0.00699483)
(0.0868924 0 -0.00853775)
(0.0993448 0 -0.00994381)
(0.109955 0 -0.0112382)
(0.118967 0 -0.0124377)
(0.126607 0 -0.0135554)
(0.133084 0 -0.0146011)
(0.138599 0 -0.0155876)
(0.143317 0 -0.0165161)
(0.147419 0 -0.0173948)
(0.151075 0 -0.0182295)
(0.154461 0 -0.0190293)
(0.157758 0 -0.0198043)
(0.161125 0 -0.0205584)
(0.164805 0 -0.0213216)
(0.169029 0 -0.0221215)
(0.174035 0 -0.0229906)
(0.180171 0 -0.0239979)
(0.187752 0 -0.0252104)
(0.197215 0 -0.0267433)
(0.209109 0 -0.0287635)
(0.223984 0 -0.0314709)
(0.242569 0 -0.0351656)
(0.265672 0 -0.040243)
(0.293175 0 -0.0469247)
(0.324468 0 -0.055407)
(0.356618 0 -0.0654263)
(0.0125388 0 -0.00125809)
(0.0358819 0 -0.00360917)
(0.0560321 0 -0.00568028)
(0.0733629 0 -0.00752687)
(0.088255 0 -0.00919534)
(0.101046 0 -0.0107209)
(0.112028 0 -0.0121326)
(0.121444 0 -0.0134481)
(0.129524 0 -0.0146828)
(0.136497 0 -0.0158519)
(0.142555 0 -0.016965)
(0.147871 0 -0.0180285)
(0.152645 0 -0.0190568)
(0.157028 0 -0.0200505)
(0.161227 0 -0.02103)
(0.165423 0 -0.0220074)
(0.169808 0 -0.0230001)
(0.174606 0 -0.024036)
(0.180096 0 -0.0251632)
(0.186512 0 -0.0264191)
(0.194189 0 -0.0278786)
(0.203531 0 -0.0296477)
(0.214941 0 -0.0318452)
(0.229038 0 -0.0346788)
(0.246323 0 -0.0383548)
(0.267683 0 -0.043243)
(0.293577 0 -0.0496468)
(0.324032 0 -0.0578128)
(0.358013 0 -0.0676745)
(0.392298 0 -0.0788682)
(0.0126953 0 -0.00134256)
(0.0363463 0 -0.0038534)
(0.0567997 0 -0.00606865)
(0.0744396 0 -0.00804782)
(0.0896529 0 -0.00984073)
(0.102799 0 -0.0114884)
(0.114166 0 -0.0130192)
(0.123994 0 -0.0144527)
(0.13253 0 -0.0158079)
(0.140006 0 -0.0171042)
(0.146605 0 -0.0183479)
(0.152517 0 -0.0195505)
(0.157949 0 -0.020731)
(0.163074 0 -0.0218985)
(0.168082 0 -0.023069)
(0.173168 0 -0.0242632)
(0.178543 0 -0.0255074)
(0.184444 0 -0.0268374)
(0.191128 0 -0.0283012)
(0.19887 0 -0.0299579)
(0.208014 0 -0.031894)
(0.218933 0 -0.0342185)
(0.232132 0 -0.0370989)
(0.248072 0 -0.0407147)
(0.267408 0 -0.0453462)
(0.290846 0 -0.0513436)
(0.318615 0 -0.0589731)
(0.35077 0 -0.0685206)
(0.385982 0 -0.0797572)
(0.42266 0 -0.0927049)
(0.0075417 0 -0.00279553)
(0.0170223 0 -0.00335741)
(0.0380442 0 -0.00418849)
(0.0714023 0 -0.00516716)
(0.113322 0 -0.00608599)
(0.15651 0 -0.00674278)
(0.194691 0 -0.00708401)
(0.225448 0 -0.00717841)
(0.248911 0 -0.00703821)
(0.266245 0 -0.00679625)
(0.278638 0 -0.00648169)
(0.287002 0 -0.00612219)
(0.29202 0 -0.00573679)
(0.294186 0 -0.00534306)
(0.293837 0 -0.00496048)
(0.291189 0 -0.00457205)
(0.286384 0 -0.00418669)
(0.279482 0 -0.00383358)
(0.270489 0 -0.00350068)
(0.259392 0 -0.0031843)
(0.246154 0 -0.00288144)
(0.23072 0 -0.00258907)
(0.213024 0 -0.00230399)
(0.192987 0 -0.00202282)
(0.170528 0 -0.00174191)
(0.145558 0 -0.00145733)
(0.11799 0 -0.00116471)
(0.0877342 0 -0.00085916)
(0.054714 0 -0.000535107)
(0.0187437 0 -0.000184783)
(0.0136048 0 -0.00857736)
(0.024082 0 -0.0102711)
(0.0460535 0 -0.0127512)
(0.0796692 0 -0.0155847)
(0.120989 0 -0.0181729)
(0.162952 0 -0.0200176)
(0.199784 0 -0.0209425)
(0.229347 0 -0.021106)
(0.251893 0 -0.0207015)
(0.268562 0 -0.0199835)
(0.28045 0 -0.0190576)
(0.28843 0 -0.0180036)
(0.293157 0 -0.016874)
(0.295101 0 -0.0157174)
(0.294587 0 -0.014602)
(0.29181 0 -0.0134642)
(0.286901 0 -0.0123655)
(0.279913 0 -0.0113376)
(0.270851 0 -0.0103639)
(0.259698 0 -0.00943589)
(0.246414 0 -0.00854537)
(0.230942 0 -0.00768386)
(0.213212 0 -0.00684221)
(0.193148 0 -0.00601062)
(0.170665 0 -0.00517851)
(0.145673 0 -0.00433434)
(0.118085 0 -0.0034653)
(0.0878082 0 -0.00255695)
(0.0547647 0 -0.00159288)
(0.0187636 0 -0.00055011)
(0.0252667 0 -0.0148238)
(0.0378687 0 -0.0177945)
(0.0613393 0 -0.0218067)
(0.0952835 0 -0.026279)
(0.135434 0 -0.0302157)
(0.175065 0 -0.0328692)
(0.209349 0 -0.0341318)
(0.236731 0 -0.0342274)
(0.257609 0 -0.0335416)
(0.273008 0 -0.0323557)
(0.28393 0 -0.0308505)
(0.291176 0 -0.0291503)
(0.295341 0 -0.0273275)
(0.296865 0 -0.0254923)
(0.296022 0 -0.0236748)
(0.292993 0 -0.0218712)
(0.287882 0 -0.0201441)
(0.280729 0 -0.0185025)
(0.271534 0 -0.0169382)
(0.260272 0 -0.0154412)
(0.246898 0 -0.0139998)
(0.231351 0 -0.0126012)
(0.213559 0 -0.011231)
(0.193442 0 -0.00987373)
(0.170912 0 -0.0085126)
(0.145881 0 -0.00712904)
(0.118254 0 -0.00570238)
(0.0879392 0 -0.00420919)
(0.0548533 0 -0.00262282)
(0.0187979 0 -0.000905865)
(0.0422201 0 -0.021852)
(0.0575201 0 -0.0261393)
(0.0827343 0 -0.0315747)
(0.11696 0 -0.0373976)
(0.155248 0 -0.0422644)
(0.191646 0 -0.0453295)
(0.222571 0 -0.0466521)
(0.247067 0 -0.0465809)
(0.265661 0 -0.0455491)
(0.2793 0 -0.0438898)
(0.288875 0 -0.0418319)
(0.295089 0 -0.0395343)
(0.29847 0 -0.0370957)
(0.29939 0 -0.0346312)
(0.298079 0 -0.0321805)
(0.294687 0 -0.0297949)
(0.289284 0 -0.0274991)
(0.281894 0 -0.0253015)
(0.272507 0 -0.0231972)
(0.261087 0 -0.0211752)
(0.247583 0 -0.0192214)
(0.231927 0 -0.0173194)
(0.214045 0 -0.0154505)
(0.193851 0 -0.0135943)
(0.171255 0 -0.0117283)
(0.146165 0 -0.0098277)
(0.118484 0 -0.00786452)
(0.0881147 0 -0.00580705)
(0.0549698 0 -0.00361916)
(0.018842 0 -0.00124992)
(0.0639107 0 -0.0298645)
(0.0820721 0 -0.0354103)
(0.109276 0 -0.042218)
(0.143288 0 -0.0489865)
(0.178981 0 -0.0542741)
(0.211544 0 -0.0573994)
(0.238551 0 -0.0585341)
(0.259668 0 -0.0581426)
(0.275552 0 -0.0566956)
(0.287075 0 -0.0545524)
(0.295013 0 -0.0519651)
(0.299966 0 -0.0491082)
(0.302389 0 -0.0461289)
(0.302561 0 -0.0430987)
(0.300674 0 -0.0401154)
(0.296823 0 -0.0372113)
(0.291051 0 -0.0344074)
(0.283361 0 -0.0317109)
(0.273729 0 -0.0291175)
(0.262108 0 -0.0266156)
(0.248437 0 -0.0241893)
(0.232644 0 -0.0218191)
(0.214645 0 -0.019483)
(0.194353 0 -0.0171563)
(0.171673 0 -0.0148115)
(0.146509 0 -0.0124181)
(0.118759 0 -0.0099416)
(0.0883227 0 -0.00734277)
(0.0551058 0 -0.00457683)
(0.0188924 0 -0.00158044)
(0.089769 0 -0.0389724)
(0.110817 0 -0.0457349)
(0.139781 0 -0.0536918)
(0.172935 0 -0.0609858)
(0.205346 0 -0.0662072)
(0.233598 0 -0.0690142)
(0.256355 0 -0.069724)
(0.273816 0 -0.068875)
(0.286738 0 -0.0669519)
(0.295925 0 -0.0643165)
(0.302037 0 -0.0612221)
(0.305585 0 -0.0578645)
(0.306926 0 -0.0543974)
(0.30626 0 -0.0509055)
(0.303707 0 -0.0474619)
(0.299323 0 -0.0441044)
(0.293119 0 -0.0408527)
(0.285077 0 -0.0377133)
(0.275156 0 -0.0346814)
(0.263297 0 -0.0317451)
(0.249429 0 -0.0288867)
(0.233471 0 -0.0260847)
(0.215335 0 -0.023314)
(0.194927 0 -0.0205463)
(0.172147 0 -0.0177501)
(0.146895 0 -0.0148897)
(0.119066 0 -0.0119249)
(0.0885518 0 -0.00880969)
(0.0552536 0 -0.0054915)
(0.0189465 0 -0.00189586)
(0.119209 0 -0.0491934)
(0.142961 0 -0.0570774)
(0.173059 0 -0.0658131)
(0.204571 0 -0.0731616)
(0.233108 0 -0.07789)
(0.256746 0 -0.0800553)
(0.27511 0 -0.0801435)
(0.288812 0 -0.0787284)
(0.298675 0 -0.0762847)
(0.305427 0 -0.0731555)
(0.309643 0 -0.0695991)
(0.311731 0 -0.0658146)
(0.311925 0 -0.0619358)
(0.310353 0 -0.0580478)
(0.307073 0 -0.0542121)
(0.302101 0 -0.0504649)
(0.295419 0 -0.0468248)
(0.286984 0 -0.0432971)
(0.276739 0 -0.0398767)
(0.264612 0 -0.0365509)
(0.250522 0 -0.0333009)
(0.234379 0 -0.0301036)
(0.216088 0 -0.0269315)
(0.195549 0 -0.0237535)
(0.172658 0 -0.0205342)
(0.147308 0 -0.0172339)
(0.11939 0 -0.0138073)
(0.0887913 0 -0.0102022)
(0.0554062 0 -0.00635957)
(0.0190015 0 -0.0021949)
(0.151666 0 -0.0604762)
(0.177774 0 -0.0693166)
(0.208164 0 -0.0783879)
(0.237054 0 -0.0852458)
(0.261228 0 -0.0891089)
(0.280067 0 -0.0903762)
(0.294032 0 -0.0896958)
(0.30401 0 -0.0876418)
(0.310841 0 -0.0846546)
(0.3152 0 -0.0810621)
(0.317558 0 -0.0771093)
(0.318182 0 -0.0729654)
(0.317211 0 -0.068746)
(0.314702 0 -0.0645283)
(0.310662 0 -0.0603656)
(0.30507 0 -0.0562903)
(0.297877 0 -0.052319)
(0.289022 0 -0.0484559)
(0.278429 0 -0.0446955)
(0.266013 0 -0.0410244)
(0.251682 0 -0.0374229)
(0.235337 0 -0.0338667)
(0.216878 0 -0.0303267)
(0.196197 0 -0.0267692)
(0.173184 0 -0.023156)
(0.14773 0 -0.0194437)
(0.119718 0 -0.0155827)
(0.0890311 0 -0.0115158)
(0.0555572 0 -0.00717811)
(0.0190553 0 -0.00247651)
(0.186628 0 -0.0727145)
(0.214589 0 -0.0822657)
(0.244185 0 -0.0911344)
(0.269448 0 -0.0969714)
(0.288792 0 -0.09963)
(0.302758 0 -0.0998143)
(0.312423 0 -0.0982717)
(0.318822 0 -0.0955455)
(0.3228 0 -0.0920404)
(0.324929 0 -0.0880472)
(0.325523 0 -0.0837646)
(0.324733 0 -0.0793295)
(0.322616 0 -0.0748378)
(0.319172 0 -0.0703557)
(0.314365 0 -0.0659283)
(0.308139 0 -0.0615836)
(0.300422 0 -0.057336)
(0.291131 0 -0.0531884)
(0.280175 0 -0.0491347)
(0.267456 0 -0.045161)
(0.252872 0 -0.0412472)
(0.236316 0 -0.0373681)
(0.217679 0 -0.0334932)
(0.196848 0 -0.0295872)
(0.173709 0 -0.0256096)
(0.148146 0 -0.0215138)
(0.120037 0 -0.0172468)
(0.0892618 0 -0.012747)
(0.0557006 0 -0.00794485)
(0.0191058 0 -0.00273991)
(0.223651 0 -0.0857562)
(0.25276 0 -0.0956737)
(0.280168 0 -0.103687)
(0.300766 0 -0.107988)
(0.31492 0 -0.109181)
(0.32407 0 -0.108182)
(0.329651 0 -0.105751)
(0.332794 0 -0.102393)
(0.334229 0 -0.0984436)
(0.334343 0 -0.094124)
(0.333312 0 -0.0895828)
(0.331196 0 -0.0849255)
(0.327986 0 -0.080228)
(0.323637 0 -0.0755442)
(0.318078 0 -0.0709115)
(0.311225 0 -0.0663532)
(0.302983 0 -0.0618812)
(0.293252 0 -0.0574973)
(0.281928 0 -0.0531948)
(0.268901 0 -0.0489597)
(0.254058 0 -0.0447713)
(0.237284 0 -0.0406042)
(0.218465 0 -0.0364272)
(0.197481 0 -0.0322035)
(0.174214 0 -0.0278908)
(0.14854 0 -0.0234403)
(0.120336 0 -0.0187961)
(0.0894745 0 -0.0138933)
(0.0558309 0 -0.00865818)
(0.0191509 0 -0.00298453)
(0.262368 0 -0.0994287)
(0.291546 0 -0.1092)
(0.314996 0 -0.115575)
(0.329977 0 -0.117897)
(0.338756 0 -0.117467)
(0.343303 0 -0.11528)
(0.345274 0 -0.112049)
(0.345637 0 -0.108169)
(0.344881 0 -0.103873)
(0.343223 0 -0.0993113)
(0.340735 0 -0.0945874)
(0.337407 0 -0.0897775)
(0.333183 0 -0.0849388)
(0.327982 0 -0.0801134)
(0.321705 0 -0.0753313)
(0.314245 0 -0.0706116)
(0.305492 0 -0.0659639)
(0.295329 0 -0.0613889)
(0.283641 0 -0.0568799)
(0.270307 0 -0.0524225)
(0.255205 0 -0.0479956)
(0.238214 0 -0.0435742)
(0.219212 0 -0.0391269)
(0.198076 0 -0.0346157)
(0.17468 0 -0.0299972)
(0.148899 0 -0.0252209)
(0.120604 0 -0.0202287)
(0.0896612 0 -0.0149529)
(0.0559431 0 -0.00931704)
(0.019189 0 -0.00321005)
(0.302451 0 -0.113541)
(0.329842 0 -0.122317)
(0.347264 0 -0.126177)
(0.355972 0 -0.126239)
(0.359478 0 -0.124193)
(0.360061 0 -0.120987)
(0.359086 0 -0.117134)
(0.357165 0 -0.112875)
(0.35457 0 -0.108347)
(0.351394 0 -0.103636)
(0.347633 0 -0.0988087)
(0.343228 0 -0.0939156)
(0.338088 0 -0.0889978)
(0.332104 0 -0.0840873)
(0.325159 0 -0.079208)
(0.317128 0 -0.0743753)
(0.307888 0 -0.0695969)
(0.29731 0 -0.0648732)
(0.285269 0 -0.060197)
(0.271638 0 -0.0555543)
(0.256283 0 -0.0509228)
(0.239078 0 -0.0462795)
(0.219899 0 -0.0415927)
(0.198613 0 -0.0368235)
(0.175093 0 -0.0319279)
(0.14921 0 -0.0268545)
(0.120829 0 -0.0215434)
(0.0898144 0 -0.0159252)
(0.0560327 0 -0.00992096)
(0.0192187 0 -0.00341631)
(0.343321 0 -0.127766)
(0.365691 0 -0.134107)
(0.375185 0 -0.134695)
(0.377675 0 -0.132544)
(0.376762 0 -0.129182)
(0.374262 0 -0.125246)
(0.370996 0 -0.120998)
(0.367257 0 -0.116531)
(0.363165 0 -0.111897)
(0.358727 0 -0.107137)
(0.353887 0 -0.102286)
(0.348551 0 -0.0973763)
(0.342604 0 -0.0924379)
(0.33592 0 -0.0874947)
(0.328367 0 -0.0825659)
(0.31981 0 -0.0776644)
(0.310115 0 -0.0727967)
(0.299148 0 -0.0679627)
(0.286773 0 -0.0631559)
(0.27286 0 -0.058363)
(0.257262 0 -0.0535577)
(0.239851 0 -0.0487231)
(0.220503 0 -0.043827)
(0.199076 0 -0.038828)
(0.175437 0 -0.0336833)
(0.149459 0 -0.0283412)
(0.121003 0 -0.0227404)
(0.0899277 0 -0.01681)
(0.056096 0 -0.01047)
(0.0192387 0 -0.00360339)
(0.383067 0 -0.141137)
(0.395778 0 -0.143022)
(0.397416 0 -0.140355)
(0.394867 0 -0.136497)
(0.390711 0 -0.132329)
(0.385925 0 -0.128035)
(0.380907 0 -0.123646)
(0.375779 0 -0.119157)
(0.370523 0 -0.11455)
(0.365083 0 -0.109838)
(0.359365 0 -0.105041)
(0.353255 0 -0.100179)
(0.346623 0 -0.0952737)
(0.339333 0 -0.0903461)
(0.331246 0 -0.0854119)
(0.32222 0 -0.0804825)
(0.312114 0 -0.075564)
(0.300789 0 -0.0706563)
(0.288107 0 -0.0657538)
(0.27394 0 -0.0608468)
(0.25812 0 -0.0559069)
(0.24051 0 -0.0509099)
(0.221007 0 -0.0458341)
(0.199448 0 -0.0406318)
(0.175698 0 -0.0352649)
(0.149636 0 -0.029682)
(0.121117 0 -0.0238203)
(0.0899954 0 -0.017608)
(0.0561299 0 -0.0109645)
(0.0192484 0 -0.00377154)
(0.415488 0 -0.150657)
(0.418869 0 -0.147341)
(0.413555 0 -0.142181)
(0.407478 0 -0.137732)
(0.401196 0 -0.133545)
(0.394939 0 -0.129387)
(0.388756 0 -0.125155)
(0.382657 0 -0.120818)
(0.376564 0 -0.116361)
(0.370379 0 -0.111788)
(0.363988 0 -0.107114)
(0.357265 0 -0.102357)
(0.350075 0 -0.0975346)
(0.34228 0 -0.0926663)
(0.333738 0 -0.0877668)
(0.324304 0 -0.0828469)
(0.313836 0 -0.0779126)
(0.302191 0 -0.0729646)
(0.28923 0 -0.0679976)
(0.274813 0 -0.0630011)
(0.258791 0 -0.0579569)
(0.241023 0 -0.0528339)
(0.221394 0 -0.0476107)
(0.199721 0 -0.042239)
(0.175865 0 -0.0366756)
(0.149733 0 -0.0308793)
(0.121166 0 -0.0247851)
(0.0900133 0 -0.0183206)
(0.0561324 0 -0.0114056)
(0.0192479 0 -0.00392127)
(0.012858 0 -0.00142649)
(0.0368291 0 -0.00409633)
(0.0575988 0 -0.0064557)
(0.0755619 0 -0.0085682)
(0.0911213 0 -0.0104881)
(0.104636 0 -0.0122601)
(0.116391 0 -0.0139111)
(0.126644 0 -0.0154658)
(0.135641 0 -0.0169441)
(0.143621 0 -0.0183685)
(0.150772 0 -0.0197491)
(0.157301 0 -0.0211025)
(0.163408 0 -0.0224469)
(0.169275 0 -0.0237974)
(0.175076 0 -0.0251671)
(0.181038 0 -0.0265896)
(0.187384 0 -0.0280984)
(0.194345 0 -0.0297339)
(0.202159 0 -0.0315457)
(0.21113 0 -0.0336085)
(0.221623 0 -0.0360276)
(0.233957 0 -0.0389086)
(0.248642 0 -0.0424389)
(0.266047 0 -0.0467922)
(0.286845 0 -0.0522854)
(0.311333 0 -0.0591816)
(0.33963 0 -0.0678023)
(0.37131 0 -0.0784879)
(0.404506 0 -0.0915847)
(0.435131 0 -0.107931)
(0.0130273 0 -0.00151032)
(0.0373317 0 -0.00433935)
(0.0584321 0 -0.00684372)
(0.0767324 0 -0.00909092)
(0.0926492 0 -0.0111389)
(0.106543 0 -0.0130351)
(0.118701 0 -0.0148095)
(0.129391 0 -0.016489)
(0.138873 0 -0.0180987)
(0.147375 0 -0.0196584)
(0.155095 0 -0.0211837)
(0.162244 0 -0.0226941)
(0.16902 0 -0.0242083)
(0.175606 0 -0.0257444)
(0.182208 0 -0.0273284)
(0.189029 0 -0.0289892)
(0.196309 0 -0.0307717)
(0.204261 0 -0.0327162)
(0.213127 0 -0.0348798)
(0.223241 0 -0.0373563)
(0.234864 0 -0.040229)
(0.248398 0 -0.0436448)
(0.264146 0 -0.0477411)
(0.282538 0 -0.052733)
(0.303946 0 -0.0588703)
(0.328321 0 -0.0663309)
(0.355438 0 -0.0753568)
(0.384104 0 -0.0860025)
(0.411267 0 -0.0977243)
(0.432997 0 -0.109439)
(0.0131991 0 -0.00159248)
(0.0378438 0 -0.00457805)
(0.0592839 0 -0.00722584)
(0.0779283 0 -0.00960685)
(0.0942166 0 -0.0117852)
(0.108504 0 -0.0138076)
(0.121077 0 -0.0157072)
(0.132221 0 -0.0175157)
(0.142192 0 -0.0192596)
(0.151209 0 -0.0209558)
(0.159494 0 -0.022629)
(0.167257 0 -0.0243001)
(0.174694 0 -0.0259895)
(0.181985 0 -0.0277169)
(0.189358 0 -0.0295185)
(0.197002 0 -0.0314231)
(0.205135 0 -0.0334725)
(0.213993 0 -0.035722)
(0.223798 0 -0.0382275)
(0.234861 0 -0.0410853)
(0.247399 0 -0.0443752)
(0.261773 0 -0.0482435)
(0.278151 0 -0.0527968)
(0.296891 0 -0.0582404)
(0.318009 0 -0.0647178)
(0.341185 0 -0.0723157)
(0.365728 0 -0.0810602)
(0.389916 0 -0.0906369)
(0.411311 0 -0.100398)
(0.42771 0 -0.109755)
(0.0133735 0 -0.00167285)
(0.0383635 0 -0.0048119)
(0.0601519 0 -0.00760131)
(0.0791641 0 -0.0101171)
(0.0958302 0 -0.0124254)
(0.110502 0 -0.0145725)
(0.123494 0 -0.0165971)
(0.135094 0 -0.0185352)
(0.145541 0 -0.0204107)
(0.155083 0 -0.0222492)
(0.163936 0 -0.0240746)
(0.1723 0 -0.0259084)
(0.180368 0 -0.0277724)
(0.188347 0 -0.029696)
(0.196432 0 -0.0317092)
(0.204834 0 -0.0338519)
(0.213746 0 -0.0361631)
(0.223377 0 -0.0386942)
(0.233986 0 -0.0415208)
(0.245754 0 -0.0447048)
(0.258952 0 -0.0483513)
(0.273774 0 -0.0525615)
(0.290336 0 -0.0574337)
(0.308788 0 -0.0631059)
(0.328868 0 -0.0696179)
(0.350034 0 -0.0769451)
(0.371338 0 -0.0849329)
(0.391327 0 -0.0932231)
(0.40851 0 -0.10141)
(0.421398 0 -0.109017)
(0.0135486 0 -0.00175078)
(0.0388838 0 -0.00503883)
(0.0610239 0 -0.00796653)
(0.0804067 0 -0.0106146)
(0.0974494 0 -0.0130489)
(0.112508 0 -0.0153192)
(0.125925 0 -0.0174709)
(0.137985 0 -0.0195393)
(0.148916 0 -0.0215489)
(0.158971 0 -0.0235291)
(0.168361 0 -0.0255031)
(0.177302 0 -0.0274984)
(0.185982 0 -0.0295373)
(0.194602 0 -0.0316525)
(0.203347 0 -0.0338729)
(0.212412 0 -0.0362366)
(0.221999 0 -0.0387918)
(0.232281 0 -0.0415819)
(0.243494 0 -0.0446818)
(0.255755 0 -0.048138)
(0.269315 0 -0.0520549)
(0.284225 0 -0.0564912)
(0.300512 0 -0.061516)
(0.318142 0 -0.0671979)
(0.336657 0 -0.0734814)
(0.355442 0 -0.0802711)
(0.373661 0 -0.0873811)
(0.390303 0 -0.0945432)
(0.404389 0 -0.101468)
(0.414936 0 -0.107763)
(0.013721 0 -0.00182507)
(0.0393943 0 -0.00525529)
(0.0618883 0 -0.00831761)
(0.0816461 0 -0.0110948)
(0.0990694 0 -0.0136533)
(0.114527 0 -0.0160469)
(0.128366 0 -0.0183233)
(0.140866 0 -0.0205183)
(0.152263 0 -0.0226589)
(0.162816 0 -0.0247784)
(0.172734 0 -0.0269006)
(0.182223 0 -0.0290543)
(0.191472 0 -0.0312634)
(0.200669 0 -0.0335579)
(0.209999 0 -0.0359721)
(0.219636 0 -0.0385399)
(0.229769 0 -0.0413089)
(0.240563 0 -0.044325)
(0.252174 0 -0.0476416)
(0.264713 0 -0.0513072)
(0.278337 0 -0.0553971)
(0.293 0 -0.0599365)
(0.308641 0 -0.0649593)
(0.325048 0 -0.0704583)
(0.341758 0 -0.076346)
(0.35825 0 -0.0825215)
(0.373867 0 -0.0888198)
(0.387901 0 -0.0950366)
(0.399667 0 -0.100936)
(0.408564 0 -0.106227)
(0.0138927 0 -0.00189566)
(0.039919 0 -0.00546362)
(0.0627604 0 -0.00865435)
(0.0828703 0 -0.011553)
(0.100672 0 -0.0142318)
(0.116517 0 -0.0167439)
(0.130768 0 -0.0191412)
(0.143706 0 -0.0214608)
(0.155562 0 -0.0237304)
(0.16659 0 -0.0259853)
(0.177003 0 -0.0282508)
(0.187 0 -0.0305541)
(0.196766 0 -0.0329232)
(0.206476 0 -0.0353854)
(0.216298 0 -0.0379717)
(0.226424 0 -0.0407255)
(0.236972 0 -0.0436751)
(0.248112 0 -0.0468709)
(0.259936 0 -0.050348)
(0.27252 0 -0.054145)
(0.28594 0 -0.0583104)
(0.30007 0 -0.0628353)
(0.314768 0 -0.0677175)
(0.329783 0 -0.0729177)
(0.344745 0 -0.0783604)
(0.359209 0 -0.0839401)
(0.372681 0 -0.08952)
(0.384666 0 -0.0949453)
(0.394678 0 -0.100017)
(0.402349 0 -0.104529)
(0.0140591 0 -0.00196133)
(0.0404235 0 -0.00565731)
(0.0635971 0 -0.00896713)
(0.0840616 0 -0.0119829)
(0.102241 0 -0.0147776)
(0.118477 0 -0.0174052)
(0.133127 0 -0.0199183)
(0.146472 0 -0.0223545)
(0.158769 0 -0.0247493)
(0.170251 0 -0.0271328)
(0.18112 0 -0.0295328)
(0.191576 0 -0.0319761)
(0.201798 0 -0.0344901)
(0.211948 0 -0.0371028)
(0.22218 0 -0.0398413)
(0.232665 0 -0.0427462)
(0.243506 0 -0.0458418)
(0.254837 0 -0.0491693)
(0.266692 0 -0.052746)
(0.279116 0 -0.0565996)
(0.29209 0 -0.0607431)
(0.305467 0 -0.0651537)
(0.319103 0 -0.0698155)
(0.332761 0 -0.0746817)
(0.346127 0 -0.0796776)
(0.35884 0 -0.0847059)
(0.370566 0 -0.0896682)
(0.380916 0 -0.0944248)
(0.389553 0 -0.0988175)
(0.39628 0 -0.102717)
(0.0142174 0 -0.00202103)
(0.0409039 0 -0.00583391)
(0.06442 0 -0.0092569)
(0.0852318 0 -0.0123823)
(0.103759 0 -0.0152829)
(0.120361 0 -0.0180172)
(0.135394 0 -0.0206391)
(0.149147 0 -0.0231889)
(0.161855 0 -0.0257004)
(0.173748 0 -0.028203)
(0.185034 0 -0.0307258)
(0.195894 0 -0.0332953)
(0.206502 0 -0.0359372)
(0.217013 0 -0.0386785)
(0.227563 0 -0.0415445)
(0.238306 0 -0.0445697)
(0.24932 0 -0.047774)
(0.260674 0 -0.0511778)
(0.272388 0 -0.0547919)
(0.284456 0 -0.0586249)
(0.296821 0 -0.0626721)
(0.30937 0 -0.066915)
(0.321945 0 -0.0713235)
(0.334337 0 -0.0758477)
(0.346289 0 -0.0804194)
(0.357527 0 -0.0849574)
(0.367792 0 -0.0893761)
(0.376809 0 -0.0935616)
(0.38436 0 -0.0974026)
(0.390328 0 -0.10081)
(0.0143648 0 -0.00207368)
(0.041349 0 -0.00598992)
(0.0651926 0 -0.00951566)
(0.0863394 0 -0.0127407)
(0.105205 0 -0.0157389)
(0.122173 0 -0.0185743)
(0.137563 0 -0.0212959)
(0.151686 0 -0.0239483)
(0.164786 0 -0.0265679)
(0.177046 0 -0.0291771)
(0.18869 0 -0.0318077)
(0.1999 0 -0.0344872)
(0.210842 0 -0.0372422)
(0.221633 0 -0.0400889)
(0.232414 0 -0.0430558)
(0.243305 0 -0.0461673)
(0.254342 0 -0.0494303)
(0.265569 0 -0.052856)
(0.276987 0 -0.0564474)
(0.288581 0 -0.0602056)
(0.300284 0 -0.0641191)
(0.31199 0 -0.0681642)
(0.323551 0 -0.0723058)
(0.334789 0 -0.0764954)
(0.345501 0 -0.0806731)
(0.355492 0 -0.0847767)
(0.364545 0 -0.0887237)
(0.372463 0 -0.0924241)