/*--------------------------------*- C++ -*----------------------------------*\
| =========                 |                                                 |
| \\      /  F ield         | OpenFOAM: The Open Source CFD Toolbox           |
|  \\    /   O peration     | Version:  dev                                   |
|   \\  /    A nd           | Web:      www.OpenFOAM.org                      |
|    \\/     M anipulation  |                                                 |
\*---------------------------------------------------------------------------*/
FoamFile
{
    version     2.0;
    format      ascii;
    class       volVectorField;
    location    "2.5";
    object      U;
}
// * * * * * * * * * * * * * * * * * * * * * * * * * * * * * * * * * * * * * //

dimensions      [0 1 -1 0 0 0 0];

internalField   nonuniform List<vector> 
2790
(
(9.94002 0 0.0185341)
(9.86807 -2.49714e-20 0.0256494)
(9.77022 2.60929e-20 0.0302236)
(9.65592 2.72927e-20 0.0348591)
(9.52983 7.1649e-21 0.0395964)
(9.39251 -2.23878e-20 0.0443777)
(9.24347 1.56389e-20 0.0493026)
(9.08233 -8.90355e-23 0.0545208)
(8.90873 3.42337e-20 0.0601691)
(8.72208 0 0.06636)
(8.52152 0 0.0732065)
(8.30604 4.48292e-20 0.0808378)
(8.07447 -4.12955e-20 0.0894022)
(7.82543 4.39503e-20 0.0990613)
(7.55735 -4.55712e-20 0.109987)
(7.26858 1.20677e-20 0.122378)
(6.95728 1.02557e-19 0.136473)
(6.62143 -7.93266e-20 0.152537)
(6.25888 1.13652e-19 0.170853)
(5.86745 -2.37036e-19 0.191712)
(5.44493 6.12422e-20 0.215413)
(4.98926 0 0.242245)
(4.49858 0 0.272484)
(3.97157 7.18705e-20 0.30635)
(3.40742 0 0.34388)
(2.8062 1.5579e-19 0.38476)
(2.16973 -1.60681e-19 0.427879)
(1.5024 6.58582e-19 0.469017)
(0.805283 -6.54725e-19 0.492125)
(0.274776 0 0.344931)
(10.0049 0 0.0361329)
(9.99385 2.49394e-20 0.0519392)
(9.95846 -2.6046e-20 0.0628828)
(9.90458 -1.35786e-20 0.0744376)
(9.83584 -7.10992e-20 0.0866991)
(9.75311 1.48877e-20 0.0994418)
(9.65617 4.68343e-20 0.112843)
(9.54475 -4.87416e-20 0.127244)
(9.41861 -1.70626e-20 0.142965)
(9.27727 1.78541e-20 0.160271)
(9.12 0 0.179432)
(8.94588 -4.90969e-21 0.200756)
(8.75385 0 0.224601)
(8.54267 8.4482e-23 0.251367)
(8.31081 -1.83123e-19 0.281484)
(8.05655 1.77345e-19 0.315414)
(7.77809 -2.02323e-19 0.353674)
(7.47338 2.35221e-19 0.39682)
(7.1402 0 0.445415)
(6.77617 0 0.499986)
(6.37879 6.11976e-20 0.56097)
(5.9455 5.18011e-19 0.62864)
(5.47367 -5.32996e-19 0.703027)
(4.96082 1.06312e-18 0.783803)
(4.40455 -1.16182e-18 0.869972)
(3.80205 -1.07197e-18 0.959358)
(3.15001 1.08808e-18 1.04787)
(2.44291 0 1.12804)
(1.64216 -2.56452e-18 1.19429)
(0.942833 3.08063e-18 1.20935)
(10.0023 8.98405e-20 0.0361299)
(9.98883 1.86848e-20 0.0586949)
(9.95616 4.23841e-23 0.0768805)
(9.90741 -4.08155e-20 0.0959133)
(9.84486 8.51748e-20 0.116185)
(9.76957 5.96414e-20 0.137445)
(9.68149 -1.5504e-19 0.159926)
(9.58035 -6.53113e-20 0.184124)
(9.46603 1.36049e-19 0.210516)
(9.33812 -2.31852e-19 0.239518)
(9.196 1.48246e-19 0.271569)
(9.03893 1.9506e-20 0.307171)
(8.86598 1.65007e-19 0.346899)
(8.67612 2.56136e-21 0.391424)
(8.46806 -1.78874e-19 0.44149)
(8.24032 0 0.4979)
(7.99127 0 0.561532)
(7.71904 -1.04167e-19 0.633346)
(7.42156 0 0.714355)
(7.09651 -8.12047e-19 0.80557)
(6.74129 9.54019e-19 0.907924)
(6.35299 0 1.02215)
(5.92824 0 1.14864)
(5.46313 2.73217e-19 1.28736)
(4.95291 -2.29943e-18 1.43764)
(4.39075 4.1295e-18 1.59774)
(3.76635 -4.54424e-18 1.76483)
(3.06381 2.45769e-18 1.93522)
(2.2281 -3.06042e-19 2.11553)
(1.34691 -3.35825e-19 2.34439)
(10.0005 -1.01749e-19 0.0383896)
(9.98449 1.05508e-19 0.0693699)
(9.95167 0 0.0962539)
(9.90399 0 0.123197)
(9.84281 0 0.151192)
(9.76929 0 0.180286)
(9.6835 6.19748e-20 0.210901)
(9.58529 1.30156e-19 0.243714)
(9.47463 -3.38681e-19 0.27935)
(9.35126 1.76389e-19 0.318379)
(9.21471 1.86352e-19 0.361411)
(9.06442 -1.73845e-19 0.409127)
(8.89967 0 0.4623)
(8.71966 0 0.521821)
(8.52344 5.57286e-21 0.588695)
(8.30994 0 0.664043)
(8.0779 4.45174e-19 0.7491)
(7.82591 -3.56893e-19 0.845228)
(7.55232 8.70638e-19 0.953912)
(7.25526 -9.78888e-20 1.07673)
(6.93252 -8.20061e-19 1.21527)
(6.58136 0 1.37109)
(6.19834 2.33265e-18 1.54554)
(5.77894 -4.55176e-18 1.73971)
(5.31706 2.20159e-18 1.95447)
(4.80366 2.87267e-19 2.19059)
(4.22508 -4.69346e-18 2.44975)
(3.56161 4.71524e-18 2.73683)
(2.78499 2.96996e-19 3.05104)
(1.7623 6.28912e-19 3.54604)
(9.99949 0 0.0422317)
(9.982 -9.91974e-20 0.0802382)
(9.9488 0 0.11459)
(9.90181 5.42294e-20 0.148544)
(9.8419 -1.69267e-19 0.183516)
(9.76993 0 0.219867)
(9.68605 0 0.258212)
(9.59024 0 0.299347)
(9.48249 2.03039e-19 0.343977)
(9.36259 -2.45951e-19 0.392782)
(9.23021 2.2307e-19 0.446496)
(9.08489 -2.68278e-19 0.50594)
(8.92608 3.25265e-19 0.572041)
(8.75316 -3.35861e-19 0.645847)
(8.56539 -5.54394e-21 0.728538)
(8.36199 -2.30954e-20 0.82146)
(8.1421 -4.86458e-20 0.926125)
(7.90473 8.18916e-19 1.04422)
(7.6487 -9.4863e-19 1.17764)
(7.37266 0 1.32846)
(7.07498 -1.16385e-19 1.49896)
(6.75348 0 1.69157)
(6.40522 1.52067e-18 1.90885)
(6.02583 2.87799e-20 2.15342)
(5.60946 2.66536e-20 2.42843)
(5.14745 -1.91488e-18 2.73776)
(4.62712 4.48328e-18 3.08703)
(4.02521 -4.20222e-18 3.49116)
(3.38524 -1.3619e-19 3.90864)
(2.24056 -6.17504e-19 4.66462)
(9.99904 0 0.0468553)
(9.98069 0 0.0911854)
(9.9473 0 0.132579)
(9.90115 0 0.173515)
(9.84283 1.12712e-19 0.215489)
(9.77275 0 0.259094)
(9.69107 1.22684e-19 0.305105)
(9.59792 1.2814e-19 0.354408)
(9.4933 -6.69293e-20 0.407781)
(9.37706 7.01618e-20 0.465996)
(9.24896 -1.84899e-19 0.529903)
(9.10865 3.0425e-19 0.600447)
(8.95573 -2.82358e-19 0.678694)
(8.78977 -4.51407e-21 0.765838)
(8.6102 3.47657e-19 0.863221)
(8.41643 2.29421e-20 0.972368)
(8.20787 0 1.09501)
(7.98384 0 1.23311)
(7.74353 1.0474e-19 1.38889)
(7.48606 1.75284e-18 1.56487)
(7.21036 -1.57303e-18 1.76392)
(6.91495 1.89469e-18 1.98935)
(6.59783 -1.69077e-18 2.24497)
(6.25535 2.49078e-19 2.5349)
(5.8829 4.1469e-18 2.86438)
(5.47404 -8.41777e-18 3.24024)
(5.02063 -1.40753e-20 3.66946)
(4.48803 8.16653e-18 4.17881)
(4.02857 -3.88254e-18 4.65214)
(2.77501 -2.73362e-19 5.6303)
(9.99891 -1.1859e-20 0.0518531)
(9.98022 -1.23519e-20 0.102199)
(9.94695 -2.58482e-20 0.150271)
(9.90185 2.14292e-19 0.197922)
(9.84542 -5.60594e-20 0.246625)
(9.7776 -5.87457e-22 0.297208)
(9.69847 -5.86199e-22 0.350585)
(9.60834 -2.55954e-19 0.407714)
(9.50728 1.99351e-19 0.469445)
(9.39519 2.79703e-19 0.536638)
(9.27194 -6.53998e-19 0.610249)
(9.13725 2.63717e-19 0.691332)
(8.99084 -3.98103e-19 0.781056)
(8.83242 9.53895e-19 0.880733)
(8.6616 -1.38246e-18 0.991853)
(8.47798 7.16593e-19 1.1161)
(8.28116 2.3414e-20 1.2554)
(8.07073 0 1.41192)
(7.84623 1.01582e-19 1.58815)
(7.60715 -1.05561e-19 1.78699)
(7.35286 -2.21959e-19 2.01178)
(7.08261 2.26495e-19 2.26658)
(6.79538 0 2.55631)
(6.48919 -3.89373e-18 2.88658)
(6.16084 3.93687e-18 3.26399)
(5.80603 3.75107e-18 3.69746)
(5.42456 -8.56982e-21 4.19271)
(4.95925 -7.87072e-18 4.79256)
(4.69319 1.11596e-17 5.28014)
(3.34258 -8.24191e-18 6.43177)
(9.99895 -3.65471e-19 0.0569883)
(9.98027 -1.22532e-20 0.113151)
(9.94746 -5.13144e-20 0.167557)
(9.90364 1.06415e-19 0.221597)
(9.84929 3.90929e-19 0.276736)
(9.78399 -1.16479e-19 0.334042)
(9.7078 1.21308e-19 0.394527)
(9.62117 0 0.459173)
(9.5242 1.31991e-19 0.528889)
(9.41689 -1.37672e-19 0.604622)
(9.29914 3.61296e-19 0.687422)
(9.17081 -2.98772e-19 0.77845)
(9.03169 3.92744e-20 0.878965)
(8.88157 2.76755e-22 0.990369)
(8.72024 6.85641e-19 1.11427)
(8.5475 -6.83366e-19 1.25248)
(8.36317 -7.6713e-19 1.40708)
(8.16708 7.64025e-19 1.58044)
(7.95911 -5.08063e-20 1.77527)
(7.73911 1.04198e-19 1.99479)
(7.50687 -1.72307e-18 2.24277)
(7.26223 -9.52383e-20 2.52379)
(7.00506 -1.80713e-18 2.84352)
(6.73533 3.48628e-18 3.20889)
(6.45182 -3.75644e-18 3.62761)
(6.15109 -5.81929e-20 4.1097)
(5.8433 0 4.65702)
(5.43895 0 5.33397)
(5.35831 6.7758e-18 5.80915)
(3.92222 -7.86206e-18 7.08983)
(9.99903 7.52337e-19 0.0621379)
(9.98053 -1.46155e-19 0.123926)
(9.94853 -2.03481e-19 0.184333)
(9.9063 -2.66267e-19 0.244446)
(9.85413 -1.12036e-19 0.305736)
(9.79154 3.469e-19 0.369467)
(9.71867 -1.20117e-19 0.43673)
(9.63598 -2.5264e-19 0.508517)
(9.54361 5.24499e-19 0.585791)
(9.4416 -1.35274e-19 0.669578)
(9.32991 -5.00163e-19 0.761008)
(9.20851 2.95553e-19 0.861325)
(9.07735 6.22331e-19 0.97188)
(8.93629 -6.80658e-19 1.09416)
(8.78528 6.74615e-19 1.22984)
(8.6243 -7.15328e-19 1.38085)
(8.45337 2.25196e-20 1.54941)
(8.27257 -2.91915e-21 1.73801)
(8.08207 -4.89915e-20 1.94959)
(7.88214 1.59354e-18 2.18762)
(7.67303 -1.60018e-18 2.45625)
(7.45511 -1.07509e-19 2.76043)
(7.22911 0 3.10631)
(6.99626 0 3.50163)
(6.75768 3.56269e-18 3.95511)
(6.51047 -3.50599e-18 4.47795)
(6.27582 -2.14098e-19 5.06568)
(5.9258 4.09714e-19 5.80874)
(6.01148 5.36234e-18 6.26172)
(4.50209 -2.94753e-19 7.63733)
(9.99919 -3.75007e-19 0.0672275)
(9.98105 -1.4487e-19 0.134425)
(9.95014 2.03406e-19 0.200494)
(9.90974 -1.58962e-19 0.266377)
(9.85992 1.09423e-19 0.33354)
(9.80025 -2.3057e-19 0.40336)
(9.73097 0 0.477008)
(9.65255 -1.2519e-19 0.555513)
(9.56516 -1.30413e-19 0.639882)
(9.46888 2.72203e-19 0.7312)
(9.36376 1.44038e-19 0.830667)
(9.24987 -7.35823e-19 0.939593)
(9.12725 1.22128e-18 1.0594)
(8.9959 -5.51818e-19 1.19163)
(8.85593 8.20262e-20 1.33804)
(8.70749 6.87949e-19 1.50064)
(8.55081 -7.27845e-19 1.68172)
(8.38622 2.88475e-21 1.88392)
(8.21417 -1.52315e-18 2.11032)
(8.03528 1.57939e-18 2.36461)
(7.85036 -5.05481e-20 2.65125)
(7.66038 0 2.97549)
(7.46677 3.3361e-18 3.34378)
(7.27158 -6.72392e-18 3.76431)
(7.07788 6.72064e-18 4.24651)
(6.8832 -3.33898e-18 4.80331)
(6.71972 2.06422e-19 5.42289)
(6.41956 -3.9425e-19 6.22317)
(6.64763 -6.67929e-19 6.6604)
(5.0801 0 8.1104)
(9.99947 0 0.0721717)
(9.98191 3.87492e-19 0.14454)
(9.95229 4.03091e-19 0.215945)
(9.91391 3.15706e-19 0.287284)
(9.86673 -3.29363e-19 0.360026)
(9.81029 2.28166e-19 0.435596)
(9.74485 0 0.515228)
(9.67096 -2.47209e-19 0.60001)
(9.58884 -1.28581e-19 0.690981)
(9.49864 2.69345e-19 0.789269)
(9.40049 -1.38724e-19 0.896133)
(9.29456 -1.45368e-19 1.01295)
(9.18099 1.4985e-19 1.14117)
(9.05991 -1.55433e-19 1.28239)
(8.93158 -8.13167e-20 1.43841)
(8.79631 0 1.6113)
(8.65458 0 1.80341)
(8.50695 0 2.01749)
(8.35417 0 2.25671)
(8.19713 0 2.52489)
(8.03726 1.54863e-18 2.82673)
(7.87626 1.47189e-18 3.1678)
(7.71606 -1.96153e-19 3.55474)
(7.55932 0 3.99603)
(7.41077 -3.13945e-18 4.50154)
(7.26792 6.1742e-18 5.08649)
(7.17317 -3.01336e-18 5.73261)
(6.92223 0 6.5825)
(7.26868 1.3739e-18 7.02502)
(5.6644 0 8.54811)
(9.99978 -2.31845e-20 0.0768996)
(9.98294 -3.11946e-19 0.154185)
(9.95476 -5.154e-20 0.230613)
(9.91856 -2.09688e-19 0.307069)
(9.87426 1.09294e-19 0.385053)
(9.8213 -4.53408e-19 0.466024)
(9.75998 3.54826e-19 0.551248)
(9.69093 2.4637e-19 0.641854)
(9.61442 3.84339e-19 0.738916)
(9.53064 -5.30716e-19 0.843594)
(9.43979 1.36232e-19 0.957189)
(9.34215 -5.74107e-19 1.08111)
(9.23804 4.41528e-19 1.21686)
(9.12771 3.06971e-19 1.36605)
(9.01153 4.79974e-19 1.53053)
(8.88998 -1.80838e-18 1.71238)
(8.76376 1.5163e-18 1.91398)
(8.63367 0 2.13812)
(8.50085 1.77145e-19 2.38809)
(8.36633 0 2.66773)
(8.2321 0 2.98184)
(8.10075 -9.07716e-20 3.33628)
(7.97487 -2.82287e-18 3.73798)
(7.85743 2.64667e-18 4.19561)
(7.7547 2.92989e-18 4.71935)
(7.66368 -2.8943e-18 5.32701)
(7.63573 2.65961e-18 5.99699)
(7.43932 -2.60256e-18 6.88905)
(7.88465 4.41519e-18 7.37022)
(6.27603 -6.36656e-18 8.99191)
(10.0001 0 0.0813883)
(9.98399 3.35441e-19 0.163316)
(9.95736 -7.48437e-19 0.244447)
(9.92345 4.1515e-19 0.325673)
(9.88209 0 0.408536)
(9.83276 -1.00687e-22 0.494522)
(9.77579 1.23644e-22 0.584908)
(9.71186 -2.42577e-19 0.680855)
(9.64132 -2.51985e-19 0.783471)
(9.56433 0 0.893945)
(9.48117 0 1.01361)
(9.39222 0 1.14387)
(9.29794 0 1.28623)
(9.19871 -1.51524e-19 1.44236)
(9.09506 7.81537e-19 1.6141)
(8.98765 3.27549e-19 1.80353)
(8.87735 -1.57819e-19 2.01302)
(8.76525 7.27337e-21 2.24536)
(8.65287 -1.38413e-18 2.50392)
(8.54146 1.58518e-18 2.79253)
(8.43339 -1.42711e-18 3.11591)
(8.33198 -1.73183e-19 3.48005)
(8.24061 -2.50201e-18 3.89219)
(8.16331 6.71734e-18 4.36142)
(8.10752 -3.46386e-18 4.89824)
(8.06941 0 5.52233)
(8.10778 -1.21266e-18 6.21406)
(7.97918 2.20639e-18 7.13847)
(8.51325 1.65445e-18 7.69989)
(6.95148 -3.36978e-18 9.4825)
(10.0004 -2.2924e-20 0.085625)
(9.98516 -2.38467e-20 0.17189)
(9.96021 5.46286e-19 0.257394)
(9.92874 -4.13724e-19 0.343049)
(9.89046 -1.07316e-19 0.430419)
(9.8449 2.22995e-19 0.521004)
(9.79242 2.32806e-19 0.616088)
(9.73383 -2.41773e-19 0.716861)
(9.66947 2.49375e-19 0.824469)
(9.59947 7.78377e-19 0.940121)
(9.52425 -1.07375e-18 1.06516)
(9.44432 5.53581e-19 1.20097)
(9.36015 0 1.34903)
(9.27228 1.47277e-19 1.51102)
(9.18142 0 1.6888)
(9.0884 1.41559e-18 1.88442)
(8.99427 -1.28327e-18 2.10016)
(8.90036 -1.31765e-18 2.33876)
(8.80845 1.16937e-18 2.6036)
(8.72054 -1.71577e-19 2.89859)
(8.63916 0 3.2282)
(8.56779 2.74148e-18 3.59823)
(8.51067 -3.75299e-19 4.01608)
(8.47372 -7.2582e-19 4.49134)
(8.46568 -3.21387e-18 5.03495)
(8.48292 0 5.66724)
(8.58907 1.16734e-18 6.37562)
(8.55023 0 7.31496)
(9.17628 -1.63775e-18 7.99408)
(7.74014 1.78459e-18 10.0589)
(10.0007 -2.2787e-20 0.0895719)
(9.98649 7.09253e-20 0.179848)
(9.96335 3.44088e-19 0.269391)
(9.93446 1.0277e-19 0.359128)
(9.89944 -2.13454e-19 0.450635)
(9.8578 -1.11615e-19 0.54541)
(9.80997 0 0.644734)
(9.75685 -2.39341e-19 0.749823)
(9.69873 2.46746e-19 0.861871)
(9.63577 -2.56973e-19 0.982083)
(9.56859 2.63763e-19 1.11177)
(9.49782 -8.21048e-19 1.2523)
(9.42394 5.62782e-19 1.40514)
(9.34761 -7.2886e-19 1.57197)
(9.26967 5.96016e-19 1.7546)
(9.19115 3.04417e-19 1.95501)
(9.11332 0 2.1754)
(9.03756 0 2.41836)
(8.96585 0 2.68715)
(8.90124 0 2.9857)
(8.84654 1.31145e-18 3.31831)
(8.80513 1.64706e-18 3.69041)
(8.7822 -2.56132e-18 4.1091)
(8.78511 2.53963e-18 4.58389)
(8.82434 2.41175e-18 5.12594)
(8.89932 -1.10672e-18 5.75474)
(9.07524 -1.97874e-18 6.46668)
(9.1531 3.66711e-18 7.38867)
(9.88528 -1.92678e-18 8.18887)
(8.71062 -4.92983e-19 10.7848)
(0.0272612 0 -0.0239946)
(0.082043 8.97137e-21 -0.0477253)
(0.220124 0 -0.0494577)
(0.37807 0 -0.0389651)
(0.511261 4.85564e-21 -0.0244412)
(0.600225 -2.80187e-21 -0.012711)
(0.650171 -8.50532e-22 -0.00557213)
(0.676309 0 -0.00236879)
(0.692288 3.90439e-22 -0.00166461)
(0.70587 -4.0122e-22 -0.00196421)
(0.719487 0 -0.00251046)
(0.73357 -4.32347e-22 -0.00291632)
(0.747056 4.30406e-22 -0.00241693)
(0.757119 -1.25285e-21 -0.000760658)
(0.761633 -3.51145e-22 0.000929072)
(0.762171 -1.00015e-23 0.00137007)
(0.762265 3.50578e-22 0.0012635)
(0.762045 -1.52037e-21 0.00255019)
(0.757302 1.60413e-22 0.0053853)
(0.745238 0 0.00754661)
(0.728816 0 0.00672134)
(0.716904 0 0.00219788)
(0.719637 0 -0.00482277)
(0.741661 0 -0.0121742)
(0.78156 1.19074e-24 -0.0183741)
(0.836183 -1.17494e-24 -0.024416)
(0.905789 9.77251e-23 -0.0326674)
(0.994615 -7.55178e-24 -0.0434153)
(1.10636 7.44578e-24 -0.0548096)
(1.27183 0 -0.0630765)
(0.0225325 4.74803e-20 -0.0444585)
(0.0445642 8.1987e-21 -0.114464)
(0.184615 -1.79998e-21 -0.13634)
(0.350252 -2.68515e-20 -0.115982)
(0.500632 -1.06325e-20 -0.0809277)
(0.610212 1.0119e-21 -0.0500964)
(0.679363 -7.1152e-21 -0.0296324)
(0.72111 -2.81625e-22 -0.0189562)
(0.748139 0 -0.014798)
(0.768261 0 -0.0135226)
(0.7848 -7.48669e-22 -0.0135719)
(0.799603 -6.31905e-22 -0.0141169)
(0.813304 -8.83944e-22 -0.0127168)
(0.824303 2.57704e-21 -0.0081641)
(0.830231 1.51719e-21 -0.00361213)
(0.831913 -2.91261e-21 -0.00300808)
(0.833265 7.00709e-22 -0.00458058)
(0.836701 1.46554e-24 -0.00258527)
(0.839809 6.50371e-22 0.00460361)
(0.834616 0 0.0121383)
(0.818975 -1.94203e-22 0.0135108)
(0.800946 9.83635e-22 0.00586204)
(0.784676 -1.33323e-22 -0.00825978)
(0.774473 0 -0.0241243)
(0.775282 0 -0.0375389)
(0.786273 0 -0.0473649)
(0.800762 -2.83095e-22 -0.0575683)
(0.824412 -5.16789e-22 -0.0732442)
(0.871346 0 -0.0971258)
(0.967683 0 -0.125277)
(0.0165904 -9.55917e-21 -0.0630828)
(0.00183479 5.14547e-20 -0.17503)
(0.121275 -6.15483e-20 -0.214864)
(0.262945 -4.70795e-20 -0.18375)
(0.394234 6.76636e-20 -0.130008)
(0.489618 1.28476e-20 -0.0824268)
(0.546699 0 -0.0506308)
(0.57603 2.8278e-22 -0.033545)
(0.589012 0 -0.026012)
(0.593066 0 -0.0224948)
(0.591169 7.456e-22 -0.0212927)
(0.584589 -2.02408e-21 -0.0222808)
(0.574929 4.14602e-21 -0.0210711)
(0.562994 1.38566e-21 -0.0136704)
(0.544179 -4.19386e-21 -0.00513477)
(0.517388 4.38028e-21 -0.00443418)
(0.48513 -1.45503e-21 -0.0102982)
(0.455264 0 -0.0120796)
(0.421899 -6.1386e-22 -0.00282439)
(0.37623 -1.71776e-21 0.0127636)
(0.31567 3.95894e-22 0.0247343)
(0.237689 4.40709e-22 0.0271691)
(0.15292 -1.34178e-22 0.019593)
(0.074863 0 0.00465102)
(0.0296423 0 -0.0121668)
(0.0289932 1.91704e-23 -0.0343068)
(0.0523644 1.82209e-22 -0.0715336)
(0.11587 5.27057e-23 -0.121289)
(0.205835 4.10737e-22 -0.174669)
(0.299539 0 -0.230421)
(0.0119263 -4.3642e-22 -0.0854217)
(-0.0319069 -7.02244e-20 -0.227349)
(0.0644235 3.00271e-20 -0.275119)
(0.17613 0 -0.232253)
(0.276935 -4.82574e-20 -0.16325)
(0.345236 3.02221e-20 -0.10286)
(0.377217 -7.70899e-22 -0.0619707)
(0.381575 5.97955e-21 -0.0394297)
(0.367652 -6.17152e-21 -0.0290491)
(0.342418 8.64935e-22 -0.0229601)
(0.309575 2.71618e-21 -0.0185627)
(0.264739 -4.75166e-21 -0.0180422)
(0.209073 -4.8626e-21 -0.0180895)
(0.154146 -3.66937e-22 -0.00920232)
(0.0812918 -3.40406e-21 0.00899263)
(-0.0167409 -6.35381e-21 0.0245969)
(-0.160333 0 0.0321034)
(-0.313712 0 0.0376806)
(-0.4179 6.37032e-22 0.0521829)
(-0.477243 1.68484e-21 0.0693673)
(-0.521897 1.94356e-21 0.0773464)
(-0.556335 -1.63081e-21 0.0683766)
(-0.574984 2.80693e-22 0.0414816)
(-0.570593 0 0.00164534)
(-0.538148 0 -0.0464633)
(-0.480261 3.01569e-23 -0.0967174)
(-0.414711 2.33231e-22 -0.145325)
(-0.351745 4.51454e-22 -0.192674)
(-0.299997 -4.10096e-22 -0.240529)
(-0.272405 -2.42338e-22 -0.288016)
(-0.0026173 0 -0.114589)
(-0.0688378 -1.02886e-19 -0.272168)
(0.00611052 3.2178e-20 -0.31575)
(0.0833307 -4.65492e-20 -0.258332)
(0.144354 4.70234e-20 -0.175631)
(0.173372 0 -0.105083)
(0.16557 1.07402e-20 -0.0562265)
(0.128572 -8.3352e-21 -0.0274967)
(0.0657381 0 -0.0125969)
(-0.0149047 1.73203e-22 -0.00172697)
(-0.10677 0 0.0126905)
(-0.233472 8.20374e-21 0.0265744)
(-0.390896 -9.89408e-21 0.0373119)
(-0.545144 3.14585e-21 0.0565255)
(-0.653399 6.39767e-21 0.0810978)
(-0.744326 3.05443e-21 0.0970898)
(-0.838246 -1.54495e-21 0.09648)
(-0.925897 -3.21483e-21 0.0862502)
(-0.988785 -1.2285e-22 0.0786896)
(-1.0222 -1.29234e-21 0.0756911)
(-1.02957 -6.02004e-21 0.0681557)
(-1.01571 3.09691e-21 0.0467355)
(-0.985935 0 0.00939875)
(-0.949283 0 -0.0388884)
(-0.904364 6.59321e-22 -0.0898221)
(-0.859549 -1.43047e-22 -0.138714)
(-0.819456 -2.6163e-22 -0.184414)
(-0.788214 -3.71864e-22 -0.228142)
(-0.770902 -3.12766e-22 -0.271218)
(-0.767541 3.46315e-22 -0.308211)
(-0.0403309 1.64746e-19 -0.151232)
(-0.121466 -5.02719e-22 -0.305391)
(-0.0654808 0 -0.332353)
(-0.0300784 0 -0.254599)
(-0.0211743 0 -0.15634)
(-0.0498603 -2.80469e-20 -0.0732134)
(-0.12893 2.96169e-20 -0.0110064)
(-0.250649 -3.3831e-21 0.030532)
(-0.403 0 0.0547809)
(-0.561532 0 0.0717346)
(-0.696066 3.76811e-22 0.0880285)
(-0.81428 -8.62382e-21 0.0999148)
(-0.935172 5.35519e-21 0.105581)
(-1.04976 -6.81585e-21 0.111688)
(-1.14514 -3.47459e-21 0.122344)
(-1.22175 6.8513e-21 0.129381)
(-1.28496 -3.3777e-21 0.122982)
(-1.33521 6.13764e-21 0.105283)
(-1.36769 0 0.0855475)
(-1.37875 -5.31817e-21 0.0670437)
(-1.36869 8.48813e-21 0.045103)
(-1.34259 -3.42767e-21 0.0141292)
(-1.30866 -2.19048e-21 -0.0269394)
(-1.27471 1.72927e-21 -0.0749188)
(-1.24081 -6.55862e-22 -0.123903)
(-1.21243 -3.85571e-22 -0.169754)
(-1.19108 -8.9778e-24 -0.211516)
(-1.17982 3.75761e-22 -0.250663)
(-1.18018 3.0607e-22 -0.288668)
(-1.1851 -1.03898e-22 -0.318964)
(-0.106893 2.23516e-20 -0.184806)
(-0.195743 -3.53144e-20 -0.318834)
(-0.160409 0 -0.314585)
(-0.180559 0 -0.203477)
(-0.24686 1.09159e-20 -0.0825723)
(-0.375612 -2.73156e-20 0.0177205)
(-0.540327 1.90724e-20 0.0859184)
(-0.688911 9.99927e-21 0.121122)
(-0.830997 -1.37193e-22 0.136173)
(-0.970193 -3.29885e-21 0.142314)
(-1.0981 2.26241e-21 0.148473)
(-1.2127 3.69232e-22 0.154645)
(-1.31833 6.81668e-21 0.157357)
(-1.41302 3.09645e-21 0.157996)
(-1.49138 -1.41226e-22 0.158125)
(-1.55136 3.70958e-21 0.153168)
(-1.59557 3.53585e-21 0.137587)
(-1.62676 -3.49072e-21 0.112635)
(-1.64433 0 0.0841011)
(-1.64687 1.10643e-20 0.0547918)
(-1.63519 -4.39736e-21 0.0229085)
(-1.6136 4.33566e-21 -0.014225)
(-1.58844 2.12395e-21 -0.0571534)
(-1.56343 5.00355e-22 -0.103681)
(-1.54196 -6.37745e-23 -0.149725)
(-1.52649 -3.86069e-22 -0.191881)
(-1.51874 6.00091e-22 -0.22951)
(-1.52122 -4.05564e-22 -0.264209)
(-1.53252 0 -0.297217)
(-1.54168 1.44057e-22 -0.322027)
(-0.197081 2.55888e-20 -0.198572)
(-0.287362 0 -0.298092)
(-0.287339 0 -0.239637)
(-0.384774 0 -0.0933562)
(-0.547509 2.1251e-20 0.0461255)
(-0.714503 -3.92766e-20 0.136484)
(-0.867695 -4.71153e-21 0.182328)
(-1.0166 8.46187e-21 0.204466)
(-1.15594 -1.103e-21 0.212411)
(-1.28535 5.28716e-21 0.212638)
(-1.40203 1.84833e-20 0.211013)
(-1.50614 1.35997e-21 0.208889)
(-1.59854 -6.60019e-21 0.204528)
(-1.67814 1.16059e-20 0.197537)
(-1.74233 1.22823e-22 0.187492)
(-1.79046 -4.08021e-21 0.171494)
(-1.82494 3.86668e-21 0.146915)
(-1.84831 -3.81821e-21 0.115093)
(-1.86133 7.1851e-21 0.0798135)
(-1.86388 2.02251e-21 0.0432174)
(-1.85704 4.06554e-21 0.00489761)
(-1.84394 -3.91447e-21 -0.0361813)
(-1.82876 -3.59725e-21 -0.0800751)
(-1.81447 -2.21094e-21 -0.124986)
(-1.80431 -9.40168e-23 -0.167929)
(-1.79973 1.07282e-21 -0.206446)
(-1.80283 -5.97938e-22 -0.240136)
(-1.81568 4.04288e-22 -0.270674)
(-1.83458 6.32863e-22 -0.299117)
(-1.8463 -1.38838e-22 -0.31962)
(-0.29981 -4.83706e-20 -0.178713)
(-0.387962 1.51001e-19 -0.221968)
(-0.446892 -1.5192e-19 -0.104922)
(-0.62592 0 0.0689346)
(-0.805671 4.33044e-20 0.184849)
(-0.972116 -3.83597e-20 0.248313)
(-1.13124 -2.29516e-21 0.27995)
(-1.27806 -1.55421e-21 0.290406)
(-1.4099 4.65327e-21 0.288269)
(-1.528 -1.13127e-20 0.280081)
(-1.63275 -1.55003e-20 0.270127)
(-1.72462 -6.78027e-21 0.259382)
(-1.80431 -7.79197e-21 0.24679)
(-1.87159 0 0.231452)
(-1.92576 0 0.212264)
(-1.96708 0 0.187222)
(-1.99743 0 0.155194)
(-2.01899 6.71738e-21 0.117573)
(-2.03282 -6.97952e-21 0.0770512)
(-2.03941 -3.01108e-21 0.0353197)
(-2.03981 -2.17485e-21 -0.00735218)
(-2.03628 1.31217e-21 -0.0510346)
(-2.03146 3.58203e-21 -0.0952462)
(-2.02808 3.69006e-21 -0.138531)
(-2.02826 -3.32758e-22 -0.178771)
(-2.03321 -9.2917e-23 -0.214136)
(-2.04529 9.19532e-23 -0.244363)
(-2.0663 2.82657e-23 -0.271102)
(-2.09081 -6.64889e-22 -0.295418)
(-2.10411 0 -0.312434)
(-0.398796 0 -0.113529)
(-0.490973 0 -0.0827338)
(-0.620631 0 0.0885652)
(-0.81862 0 0.23359)
(-1.00876 0 0.319541)
(-1.18546 -1.87669e-20 0.364181)
(-1.34505 1.67936e-20 0.379521)
(-1.48503 2.04268e-21 0.375663)
(-1.60653 -2.12854e-21 0.361292)
(-1.71183 1.78135e-20 0.342879)
(-1.80292 1.35151e-20 0.323884)
(-1.88166 8.14691e-21 0.304866)
(-1.94962 -2.05764e-20 0.284651)
(-2.00727 -1.06832e-21 0.261847)
(-2.05456 -5.16803e-21 0.235043)
(-2.0921 2.09365e-20 0.202869)
(-2.12144 -4.95147e-21 0.165018)
(-2.14437 3.20871e-21 0.122846)
(-2.16198 -2.17212e-21 0.078404)
(-2.17495 -7.88675e-21 0.0330817)
(-2.18422 -4.59629e-21 -0.0125579)
(-2.19124 -7.34357e-21 -0.0580282)
(-2.1975 0 -0.102385)
(-2.20463 -3.34159e-21 -0.144351)
(-2.21441 1.57889e-22 -0.182519)
(-2.22779 -2.6936e-21 -0.215443)
(-2.24737 1.20371e-22 -0.242824)
(-2.27487 -3.8565e-23 -0.266117)
(-2.30359 -2.322e-21 -0.286552)
(-2.31782 -1.15111e-23 -0.300489)
(-0.474129 0 0.0566845)
(-0.586514 0 0.154112)
(-0.75242 0 0.290987)
(-0.974375 0 0.401869)
(-1.18052 0 0.462455)
(-1.36104 1.14302e-20 0.484061)
(-1.51533 -9.08148e-21 0.478819)
(-1.64467 6.44207e-21 0.457331)
(-1.75221 -6.14965e-21 0.428701)
(-1.84202 0 0.399171)
(-1.91803 -8.49779e-21 0.371508)
(-1.98361 -1.10391e-20 0.345461)
(-2.04081 2.13664e-20 0.319067)
(-2.09026 1.09289e-20 0.290316)
(-2.13225 0 0.257661)
(-2.16748 -2.29278e-20 0.220213)
(-2.19728 -1.1551e-20 0.178153)
(-2.22317 1.12603e-21 0.132795)
(-2.24626 0 0.0858119)
(-2.26724 7.85646e-21 0.0383224)
(-2.28686 7.6867e-21 -0.00910834)
(-2.30579 -4.82816e-23 -0.0558011)
(-2.32443 -7.09814e-22 -0.100536)
(-2.34263 -4.8045e-22 -0.141938)
(-2.36183 4.75391e-22 -0.1789)
(-2.38291 8.3008e-21 -0.210344)
(-2.40876 -4.70275e-21 -0.235722)
(-2.44133 3.75545e-21 -0.256024)
(-2.47314 -4.45873e-22 -0.272646)
(-2.48776 9.97203e-22 -0.283614)
(-0.477922 -3.89318e-20 0.373121)
(-0.628536 5.49949e-20 0.395666)
(-0.860055 -7.10064e-20 0.50072)
(-1.10636 8.023e-20 0.581248)
(-1.32135 -6.29725e-21 0.611037)
(-1.50022 0 0.603767)
(-1.64506 0 0.573485)
(-1.76005 6.73408e-21 0.531738)
(-1.85021 -2.07951e-20 0.487671)
(-1.92178 0 0.4472)
(-1.98075 2.50417e-20 0.412261)
(-2.03194 -1.27066e-20 0.381152)
(-2.07792 -2.60944e-20 0.350582)
(-2.11919 2.07386e-20 0.317807)
(-2.1559 6.59805e-21 0.281256)
(-2.18876 5.81586e-21 0.240453)
(-2.21903 1.77195e-20 0.195933)
(-2.24835 -1.50051e-21 0.148973)
(-2.27782 1.11028e-20 0.10096)
(-2.308 -7.29136e-21 0.0527253)
(-2.33934 -7.66037e-21 0.0046031)
(-2.37181 1.31346e-20 -0.0429002)
(-2.40465 7.9957e-22 -0.0886038)
(-2.43621 0 -0.130893)
(-2.46562 -8.3614e-21 -0.16829)
(-2.49438 -5.81685e-21 -0.199676)
(-2.52569 -5.82765e-22 -0.22427)
(-2.56212 -3.74979e-21 -0.242137)
(-2.59615 2.79777e-21 -0.254461)
(-2.61084 -9.8415e-22 -0.261626)
(-0.4225 3.81907e-19 0.81137)
(-0.665075 -5.82351e-20 0.669334)
(-0.961428 -5.61588e-20 0.730303)
(-1.22099 9.32438e-20 0.770612)
(-1.43784 -2.48638e-20 0.762109)
(-1.60916 -3.97565e-21 0.719949)
(-1.73938 8.17093e-21 0.660197)
(-1.83452 -1.32962e-20 0.595449)
(-1.90195 3.33273e-20 0.534966)
(-1.95065 0 0.484314)
(-1.98929 -2.82179e-20 0.444319)
(-2.02391 -1.44161e-21 0.411011)
(-2.05699 1.4842e-20 0.378858)
(-2.08838 -6.66775e-21 0.344268)
(-2.11767 -2.33434e-20 0.305877)
(-2.14552 0 0.263798)
(-2.17352 1.42869e-20 0.218993)
(-2.20389 -8.89623e-21 0.172687)
(-2.23828 -1.84841e-21 0.125855)
(-2.27717 9.69125e-21 0.0789035)
(-2.32061 -9.39183e-21 0.0317482)
(-2.36765 8.9111e-21 -0.0155195)
(-2.41626 3.78018e-22 -0.0620845)
(-2.4635 -6.36089e-23 -0.106372)
(-2.50643 8.03682e-21 -0.146484)
(-2.54451 0 -0.180221)
(-2.58123 1.09397e-20 -0.205599)
(-2.62052 -4.50095e-21 -0.221373)
(-2.65606 -3.17213e-21 -0.228012)
(-2.67098 0 -0.229215)
(-0.230941 -6.09267e-19 1.31848)
(-0.667509 1.5104e-19 0.992632)
(-1.02908 2.58068e-20 0.997229)
(-1.30194 -4.91851e-20 0.979306)
(-1.52347 -4.78945e-21 0.918228)
(-1.68426 1.13481e-20 0.831203)
(-1.79459 -2.13785e-20 0.735431)
(-1.86388 0 0.643933)
(-1.90266 -1.18876e-20 0.56584)
(-1.92323 -2.30987e-21 0.506395)
(-1.9379 1.53647e-20 0.464919)
(-1.9541 0 0.433416)
(-1.97266 0 0.402581)
(-1.99135 0 0.368069)
(-2.00857 3.35867e-20 0.329512)
(-2.02497 1.68846e-20 0.288137)
(-2.04294 -3.00206e-20 0.245554)
(-2.06588 0 0.202949)
(-2.09686 -2.20254e-20 0.160604)
(-2.13737 -4.25989e-21 0.117984)
(-2.1873 1.06761e-20 0.0741206)
(-2.24489 -1.62191e-20 0.0282556)
(-2.30644 0 -0.0192739)
(-2.36698 -1.26058e-20 -0.0667247)
(-2.42208 -1.02242e-20 -0.111271)
(-2.46974 5.36097e-23 -0.149498)
(-2.51115 -1.1833e-20 -0.177538)
(-2.55006 4.50143e-21 -0.191679)
(-2.58304 3.17342e-21 -0.191229)
(-2.59652 -9.53524e-22 -0.184212)
(0.325142 3.83443e-19 1.78552)
(-0.286479 -1.35401e-19 1.34172)
(-0.921894 1.3759e-20 1.37256)
(-1.26708 0 1.22935)
(-1.517 -1.81436e-20 1.08233)
(-1.67207 3.16954e-20 0.933035)
(-1.7637 -1.81189e-20 0.792138)
(-1.80859 1.66128e-20 0.670057)
(-1.82046 2.35536e-21 0.574407)
(-1.81448 1.8313e-20 0.50998)
(-1.80753 -1.73856e-21 0.47378)
(-1.80905 -9.93648e-21 0.449531)
(-1.8162 3.06938e-20 0.421552)
(-1.82188 0 0.386776)
(-1.82265 -1.77408e-20 0.347538)
(-1.81927 -1.68775e-20 0.307099)
(-1.81526 1.17796e-20 0.268195)
(-1.81567 3.16903e-22 0.232223)
(-1.82583 3.07358e-20 0.198698)
(-1.84967 1.42872e-21 0.165498)
(-1.88884 -2.33556e-20 0.129845)
(-1.94235 5.36163e-22 0.0895053)
(-2.00669 -7.57127e-22 0.0438916)
(-2.07573 1.28295e-20 -0.00533519)
(-2.14215 1.02248e-20 -0.054505)
(-2.20011 0 -0.0986784)
(-2.24789 6.05655e-21 -0.131923)
(-2.2881 4.17921e-21 -0.147735)
(-2.31981 1.69829e-24 -0.143391)
(-2.33338 9.54476e-22 -0.129899)
(10.0012 0 0.0932641)
(9.98793 -3.62582e-19 0.187285)
(9.9667 -8.48515e-19 0.280597)
(9.94055 9.79942e-20 0.374129)
(9.90897 -4.06903e-19 0.469466)
(9.87148 2.12192e-19 0.568103)
(9.8286 -2.19214e-19 0.671285)
(9.78122 2.26846e-19 0.780259)
(9.72966 2.36148e-19 0.896273)
(9.67418 -3.73239e-22 1.0205)
(9.61547 5.02205e-19 1.15417)
(9.55426 5.21354e-19 1.29866)
(9.49109 -5.33086e-19 1.45545)
(9.42676 0 1.62614)
(9.36227 1.12878e-18 1.81246)
(9.29881 -2.59596e-18 2.0163)
(9.2379 8.83216e-19 2.23978)
(9.18095 0 2.4853)
(9.13022 2.99568e-19 2.75579)
(9.08922 0 3.05498)
(9.06126 0 3.38707)
(9.05025 0 3.75707)
(9.0622 -2.34066e-18 4.17123)
(9.10517 6.29181e-20 4.63813)
(9.19139 4.46993e-20 5.16791)
(9.32579 5.08857e-18 5.77687)
(9.57232 -3.6608e-18 6.46727)
(9.7943 1.71313e-18 7.31972)
(10.8129 2.76854e-18 8.12)
(11.7968 -7.65859e-19 11.019)
(10.0017 0 0.0967031)
(9.98941 3.0615e-19 0.19421)
(9.97017 -4.12281e-19 0.291016)
(9.94687 -9.49714e-20 0.388035)
(9.91883 -1.95744e-19 0.486863)
(9.88572 6.13336e-19 0.588988)
(9.84803 0 0.695615)
(9.80658 -2.91188e-22 0.808012)
(9.76182 -9.08926e-19 0.927457)
(9.71413 2.32868e-19 1.05508)
(9.66421 2.42007e-19 1.19205)
(9.61279 -2.48593e-19 1.3397)
(9.56052 1.81725e-21 1.4995)
(9.50834 -2.59767e-19 1.67296)
(9.45744 -5.37598e-19 1.86168)
(9.40921 2.72775e-19 2.06744)
(9.36519 -8.36147e-19 2.2922)
(9.32721 1.13393e-18 2.5382)
(9.29775 -8.63043e-19 2.80798)
(9.28007 1.14979e-18 3.10476)
(9.27801 0 3.43249)
(9.29634 1.11723e-18 3.79548)
(9.34162 -1.11159e-18 4.19881)
(9.42223 0 4.64916)
(9.5513 -3.84499e-20 5.15411)
(9.73799 0 5.7238)
(10.0385 0 6.35713)
(10.3527 -1.4641e-18 7.07547)
(11.058 -1.2985e-18 7.74405)
(11.8103 -8.06819e-19 8.85312)
(10.0022 -2.05157e-20 0.0998284)
(9.99098 -2.77182e-19 0.200531)
(9.97385 -4.42451e-20 0.300509)
(9.9536 9.2208e-20 0.400674)
(9.92928 9.76625e-20 0.502624)
(9.90072 -3.97683e-19 0.607837)
(9.86838 -4.09165e-19 0.717483)
(9.83297 0 0.832822)
(9.79516 -2.19127e-19 0.955126)