/*--------------------------------*- C++ -*----------------------------------*\
| =========                 |                                                 |
| \\      /  F ield         | OpenFOAM: The Open Source CFD Toolbox           |
|  \\    /   O peration     | Version:  dev                                   |
|   \\  /    A nd           | Web:      www.OpenFOAM.org                      |
|    \\/     M anipulation  |                                                 |
\*---------------------------------------------------------------------------*/
FoamFile
{
    version     2.0;
    format      ascii;
    class       volVectorField;
    location    "0.93";
    object      cellDisplacement;
}
// * * * * * * * * * * * * * * * * * * * * * * * * * * * * * * * * * * * * * //

dimensions      [0 1 0 0 0 0 0];

internalField   nonuniform List<vector> 
465
(
(0.272244 0 -0.0614735)
(0.266343 0 -0.059336)
(0.274046 0 -0.061181)
(0.26815 0 -0.0592228)
(0.262042 0 -0.0571306)
(0.255673 0 -0.0549237)
(0.275048 0 -0.0606496)
(0.269239 0 -0.0588729)
(0.263158 0 -0.0569398)
(0.256767 0 -0.0548711)
(0.25001 0 -0.0526833)
(0.275313 0 -0.0599175)
(0.269649 0 -0.0583165)
(0.263656 0 -0.0565414)
(0.257301 0 -0.0546132)
(0.250542 0 -0.0525491)
(0.243318 0 -0.0503628)
(0.235562 0 -0.0480653)
(0.274906 0 -0.0590179)
(0.269426 0 -0.057581)
(0.263563 0 -0.0559578)
(0.257291 0 -0.0541681)
(0.250574 0 -0.0522283)
(0.24336 0 -0.0501523)
(0.235589 0 -0.0479508)
(0.227187 0 -0.0456317)
(0.218075 0 -0.0432004)
(0.273891 0 -0.0579782)
(0.268618 0 -0.0566906)
(0.262914 0 -0.0552095)
(0.256758 0 -0.0535525)
(0.25012 0 -0.0517348)
(0.242953 0 -0.0497693)
(0.235202 0 -0.0476663)
(0.226801 0 -0.0454336)
(0.217676 0 -0.0430765)
(0.207739 0 -0.040597)
(0.272331 0 -0.05682)
(0.267274 0 -0.0556653)
(0.261746 0 -0.0543143)
(0.25573 0 -0.052782)
(0.249197 0 -0.0510816)
(0.242106 0 -0.0492246)
(0.234406 0 -0.0472205)
(0.226037 0 -0.0450765)
(0.216928 0 -0.0427976)
(0.207 0 -0.0403862)
(0.196167 0 -0.0378419)
(0.184334 0 -0.035162)
(0.270284 0 -0.0555593)
(0.265442 0 -0.0545209)
(0.260099 0 -0.0532871)
(0.254237 0 -0.0518699)
(0.247828 0 -0.0502803)
(0.240836 0 -0.0485281)
(0.233212 0 -0.0466216)
(0.2249 0 -0.0445671)
(0.215835 0 -0.042369)
(0.205941 0 -0.0400296)
(0.195136 0 -0.0375485)
(0.183331 0 -0.0349228)
(0.170427 0 -0.0321456)
(0.267804 0 -0.0542071)
(0.263172 0 -0.0532691)
(0.258014 0 -0.0521395)
(0.252312 0 -0.0508273)
(0.246041 0 -0.049341)
(0.239163 0 -0.0476887)
(0.231634 0 -0.0458771)
(0.223402 0 -0.0439116)
(0.214402 0 -0.0417959)
(0.204565 0 -0.0395317)
(0.193813 0 -0.0371184)
(0.18206 0 -0.0345531)
(0.169212 0 -0.0318298)
(0.155168 0 -0.0289392)
(0.139824 0 -0.0258692)
(0.264945 0 -0.0527703)
(0.260509 0 -0.0519182)
(0.255532 0 -0.0508803)
(0.249992 0 -0.0496628)
(0.243864 0 -0.0482719)
(0.237112 0 -0.0467139)
(0.229693 0 -0.0449938)
(0.221556 0 -0.0431158)
(0.212641 0 -0.041083)
(0.202882 0 -0.0388963)
(0.192204 0 -0.0365549)
(0.180525 0 -0.0340557)
(0.167754 0 -0.031393)
(0.153796 0 -0.0285581)
(0.138548 0 -0.0255391)
(0.1219 0 -0.0223202)
(0.261753 0 -0.0512521)
(0.2575 0 -0.0504731)
(0.252694 0 -0.0495153)
(0.247313 0 -0.0483827)
(0.24133 0 -0.0470794)
(0.23471 0 -0.0456096)
(0.227411 0 -0.0439771)
(0.219383 0 -0.0421848)
(0.210569 0 -0.0402347)
(0.200905 0 -0.0381271)
(0.19032 0 -0.035861)
(0.178734 0 -0.033433)
(0.166062 0 -0.0308376)
(0.152212 0 -0.0280664)
(0.137084 0 -0.0251084)
(0.120574 0 -0.0219488)
(0.10257 0 -0.0185696)
(0.0829576 0 -0.0149493)
(0.258277 0 -0.049653)
(0.254188 0 -0.0489355)
(0.249542 0 -0.0480476)
(0.244313 0 -0.0469908)
(0.238474 0 -0.0457676)
(0.231989 0 -0.0443804)
(0.224815 0 -0.0428314)
(0.216906 0 -0.0411225)
(0.208205 0 -0.0392545)
(0.198651 0 -0.0372274)
(0.188175 0 -0.0350395)
(0.176701 0 -0.0326873)
(0.164147 0 -0.0301655)
(0.150424 0 -0.027466)
(0.135439 0 -0.0245783)
(0.119091 0 -0.0214889)
(0.101273 0 -0.018181)
(0.0818742 0 -0.0146346)
(0.0607789 0 -0.0108258)
(0.254559 0 -0.0479699)
(0.250617 0 -0.0473046)
(0.246117 0 -0.0464775)
(0.241032 0 -0.0454888)
(0.235332 0 -0.0443389)
(0.228981 0 -0.0430288)
(0.221937 0 -0.0415594)
(0.214153 0 -0.0399316)
(0.205574 0 -0.0381452)
(0.196141 0 -0.0361996)
(0.185788 0 -0.0340926)
(0.174441 0 -0.0318206)
(0.162022 0 -0.0293783)
(0.148447 0 -0.0267582)
(0.133625 0 -0.0239502)
(0.117459 0 -0.0209419)
(0.0998495 0 -0.0177177)
(0.0806907 0 -0.0142593)
(0.059873 0 -0.0105449)
(0.0372858 0 -0.00655012)
(0.250638 0 -0.0461973)
(0.246827 0 -0.0455766)
(0.24246 0 -0.0448032)
(0.237509 0 -0.0438756)
(0.231942 0 -0.0427931)
(0.225723 0 -0.0415554)
(0.218809 0 -0.0401623)
(0.211153 0 -0.0386135)
(0.202704 0 -0.0369083)
(0.193401 0 -0.0350452)
(0.183182 0 -0.0330218)
(0.171976 0 -0.0308343)
(0.159707 0 -0.0284775)
(0.146296 0 -0.0259442)
(0.131654 0 -0.0232251)
(0.115691 0 -0.0203086)
(0.0983117 0 -0.0171806)
(0.0794155 0 -0.0138241)
(0.0588998 0 -0.0102196)
(0.0366614 0 -0.00634505)
(0.012547 0 -0.00216744)
(0.246558 0 -0.0443279)
(0.24286 0 -0.0437459)
(0.238613 0 -0.0430202)
(0.233786 0 -0.0421483)
(0.228345 0 -0.0411284)
(0.222253 0 -0.0399592)
(0.215468 0 -0.0386395)
(0.207942 0 -0.0371682)
(0.199626 0 -0.0355439)
(0.19046 0 -0.0337646)
(0.180384 0 -0.0318276)
(0.169329 0 -0.029729)
(0.157224 0 -0.0274637)
(0.14399 0 -0.0250248)
(0.129545 0 -0.0224037)
(0.113803 0 -0.0195898)
(0.096672 0 -0.0165702)
(0.0780588 0 -0.0133296)
(0.0578669 0 -0.00985027)
(0.0360001 0 -0.00611265)
(0.0123158 0 -0.00208701)
(0.242358 0 -0.0423518)
(0.23876 0 -0.0418041)
(0.234619 0 -0.0411217)
(0.229905 0 -0.0403013)
(0.224582 0 -0.0393403)
(0.218612 0 -0.0382366)
(0.211952 0 -0.0369883)
(0.204557 0 -0.0355936)
(0.196375 0 -0.0340506)
(0.187351 0 -0.0323568)
(0.177425 0 -0.0305093)
(0.16653 0 -0.0285043)
(0.154598 0 -0.0263365)
(0.141554 0 -0.0239998)
(0.127319 0 -0.0214861)
(0.111811 0 -0.0187857)
(0.0949455 0 -0.0158869)
(0.0766328 0 -0.012776)
(0.0567832 0 -0.00943722)
(0.0353078 0 -0.00585318)
(0.0120742 0 -0.00199738)
(0.23808 0 -0.0402567)
(0.234569 0 -0.0397409)
(0.230524 0 -0.0390989)
(0.225912 0 -0.0383271)
(0.220698 0 -0.0374224)
(0.214843 0 -0.0363822)
(0.208305 0 -0.0352042)
(0.201038 0 -0.033886)
(0.192992 0 -0.0324252)
(0.184111 0 -0.0308193)
(0.174338 0 -0.029065)
(0.16361 0 -0.0271585)
(0.151858 0 -0.025095)
(0.139013 0 -0.0228685)
(0.124999 0 -0.0204717)
(0.109738 0 -0.0178958)
(0.0931501 0 -0.0151304)
(0.0751517 0 -0.0121633)
(0.0556595 0 -0.00898053)
(0.034591 0 -0.00556675)
(0.0118245 0 -0.00189862)
(0.233777 0 -0.0380308)
(0.230336 0 -0.0375442)
(0.226373 0 -0.0369403)
(0.221853 0 -0.0362152)
(0.21674 0 -0.0353655)
(0.210993 0 -0.0343881)
(0.204572 0 -0.0332802)
(0.19743 0 -0.0320393)
(0.189517 0 -0.0306627)
(0.18078 0 -0.0291476)
(0.171163 0 -0.0274908)
(0.160604 0 -0.0256886)
(0.149038 0 -0.0237364)
(0.136398 0 -0.0216287)
(0.122612 0 -0.0193589)
(0.107607 0 -0.0169191)
(0.0913058 0 -0.0143001)
(0.0736321 0 -0.0114911)
(0.0545077 0 -0.00847991)
(0.0338574 0 -0.00525326)
(0.0115693 0 -0.00179072)
(0.229486 0 -0.035656)
(0.226108 0 -0.035198)
(0.222217 0 -0.0346317)
(0.21778 0 -0.0339528)
(0.212758 0 -0.0331578)
(0.207113 0 -0.0322434)
(0.200802 0 -0.0312068)
(0.19378 0 -0.030045)
(0.185998 0 -0.0287555)
(0.177403 0 -0.0273352)
(0.167941 0 -0.0257812)
(0.157552 0 -0.0240897)
(0.146175 0 -0.0222567)
(0.133743 0 -0.020277)
(0.120189 0 -0.0181449)
(0.105444 0 -0.0158533)
(0.0894357 0 -0.0133942)
(0.0720922 0 -0.0107581)
(0.0533419 0 -0.00793468)
(0.0331156 0 -0.00491236)
(0.0113116 0 -0.00167357)
(0.225256 0 -0.03311)
(0.221936 0 -0.0326831)
(0.21811 0 -0.0321554)
(0.213746 0 -0.0315236)
(0.208808 0 -0.0307844)
(0.203256 0 -0.0299347)
(0.197048 0 -0.0289715)
(0.190141 0 -0.027892)
(0.182484 0 -0.0266935)
(0.174029 0 -0.0253732)
(0.164719 0 -0.0239281)
(0.154499 0 -0.022355)
(0.143309 0 -0.02065)
(0.131085 0 -0.0188086)
(0.117764 0 -0.0168257)
(0.10328 0 -0.0146953)
(0.0875652 0 -0.0124102)
(0.070553 0 -0.00996268)
(0.0521772 0 -0.00734361)
(0.0323752 0 -0.00454337)
(0.0110546 0 -0.00154696)
(0.221156 0 -0.0303753)
(0.217888 0 -0.0299801)
(0.214113 0 -0.0294915)
(0.209812 0 -0.0289082)
(0.204947 0 -0.028227)
(0.199481 0 -0.0274447)
(0.193369 0 -0.0265585)
(0.186569 0 -0.0255656)
(0.179033 0 -0.0244636)
(0.17071 0 -0.0232497)
(0.161549 0 -0.0219212)
(0.151493 0 -0.0204752)
(0.140486 0 -0.0189082)
(0.128467 0 -0.0172165)
(0.115375 0 -0.0153955)
(0.101148 0 -0.0134402)
(0.0857228 0 -0.0113446)
(0.0690373 0 -0.00910195)
(0.0510309 0 -0.00670484)
(0.0316469 0 -0.00414523)
(0.0108021 0 -0.00141056)
(0.217246 0 -0.0274252)
(0.214014 0 -0.0270613)
(0.210285 0 -0.0266142)
(0.20604 0 -0.0260825)
(0.201242 0 -0.0254628)
(0.195852 0 -0.0247523)
(0.189829 0 -0.0239482)
(0.183128 0 -0.023048)
(0.175704 0 -0.0220493)
(0.167507 0 -0.0209497)
(0.158486 0 -0.0197469)
(0.148588 0 -0.0184383)
(0.137757 0 -0.0170209)
(0.125935 0 -0.0154917)
(0.113064 0 -0.0138467)
(0.0990853 0 -0.0120818)
(0.0839403 0 -0.0101922)
(0.067571 0 -0.0081722)
(0.049922 0 -0.0060158)
(0.0309426 0 -0.00371646)
(0.010558 0 -0.00126388)
(0.213588 0 -0.0242209)
(0.210388 0 -0.0238932)
(0.206698 0 -0.0234923)
(0.202502 0 -0.023017)
(0.197762 0 -0.0224643)
(0.192441 0 -0.0218316)
(0.186497 0 -0.0211164)
(0.179887 0 -0.0203165)
(0.172566 0 -0.0194299)
(0.164485 0 -0.0184545)
(0.155595 0 -0.0173884)
(0.145843 0 -0.0162293)
(0.135176 0 -0.0149749)
(0.12354 0 -0.0136227)
(0.110877 0 -0.0121696)
(0.0971334 0 -0.0106122)
(0.082253 0 -0.00894664)
(0.0661827 0 -0.00716855)
(0.0488719 0 -0.00527308)
(0.0302755 0 -0.00325506)
(0.0103269 0 -0.00110626)
(0.210263 0 -0.0207245)
(0.207088 0 -0.0204378)
(0.203432 0 -0.0200891)
(0.199278 0 -0.0196768)
(0.194589 0 -0.0191983)
(0.189328 0 -0.0186513)
(0.183453 0 -0.0180339)
(0.176924 0 -0.0173441)
(0.169694 0 -0.0165804)
(0.161717 0 -0.0157411)
(0.152944 0 -0.0148247)
(0.143325 0 -0.0138295)
(0.132809 0 -0.0127536)
(0.121341 0 -0.0115952)
(0.108868 0 -0.0103519)
(0.0953391 0 -0.00902108)
(0.0807011 0 -0.00759986)
(0.064905 0 -0.00608486)
(0.0479048 0 -0.00447238)
(0.0296606 0 -0.00275852)
(0.0101138 0 -0.00093689)
(0.20736 0 -0.0168898)
(0.204206 0 -0.0166482)
(0.20058 0 -0.0163609)
(0.19646 0 -0.0160203)
(0.191813 0 -0.0156252)
(0.186601 0 -0.015174)
(0.180785 0 -0.0146653)
(0.174324 0 -0.0140978)
(0.167172 0 -0.0134703)
(0.159285 0 -0.0127817)
(0.150614 0 -0.0120307)
(0.141111 0 -0.0112163)
(0.130724 0 -0.0103372)
(0.119403 0 -0.00939189)
(0.107097 0 -0.00837887)
(0.0937559 0 -0.00729628)
(0.0793304 0 -0.00614198)
(0.063775 0 -0.00491359)
(0.0470483 0 -0.00360845)
(0.0291151 0 -0.00222372)
(0.00992468 0 -0.000754736)
(0.204981 0 -0.0126642)
(0.201849 0 -0.012478)
(0.198252 0 -0.0122591)
(0.194154 0 -0.011999)
(0.189537 0 -0.0116979)
(0.184364 0 -0.0113546)
(0.178594 0 -0.0109683)
(0.172187 0 -0.0105381)
(0.165098 0 -0.0100631)
(0.157283 0 -0.00954271)
(0.148694 0 -0.00897613)
(0.139284 0 -0.00836269)
(0.129003 0 -0.0077016)
(0.117803 0 -0.006992)
(0.105633 0 -0.00623289)
(0.0924451 0 -0.00542309)
(0.0781938 0 -0.00456125)
(0.0628363 0 -0.00364581)
(0.0463348 0 -0.002675)
(0.0286593 0 -0.00164699)
(0.00976634 0 -0.000558591)
(0.203254 0 -0.00798197)
(0.200136 0 -0.00786295)
(0.196553 0 -0.00772036)
(0.192472 0 -0.00755245)
(0.187878 0 -0.00735894)
(0.182731 0 -0.00713903)
(0.176994 0 -0.00689209)
(0.170625 0 -0.00661761)
(0.163581 0 -0.00631517)
(0.155817 0 -0.0059844)
(0.147288 0 -0.00562497)
(0.137945 0 -0.00523653)
(0.127741 0 -0.00481872)
(0.116627 0 -0.00437112)
(0.104555 0 -0.00389323)
(0.0914788 0 -0.00338444)
(0.077354 0 -0.00284403)
(0.0621405 0 -0.00227114)
(0.0458038 0 -0.00166484)
(0.0283181 0 -0.00102408)
(0.00964736 0 -0.00034707)
(0.202312 0 -0.0027605)
(0.1992 0 -0.00271857)
(0.195624 0 -0.00266825)
(0.191553 0 -0.00260915)
(0.18697 0 -0.0025412)
(0.181837 0 -0.00246415)
(0.176117 0 -0.00237778)
(0.169768 0 -0.00228192)
(0.162748 0 -0.00217647)
(0.155012 0 -0.00206131)
(0.146514 0 -0.00193636)
(0.137208 0 -0.00180154)
(0.127045 0 -0.00165675)
(0.115977 0 -0.00150187)
(0.103959 0 -0.00133677)
(0.0909426 0 -0.00116127)
(0.0768863 0 -0.000975158)
(0.061751 0 -0.00077817)
(0.0455042 0 -0.000570011)
(0.0281233 0 -0.000350363)
(0.00957879 0 -0.000118669)
)
;

boundaryField
{
    inlet
    {
        type            cellMotion;
        value           nonuniform 0();
    }
    outlet
    {
        type            cellMotion;
        value           uniform (0 0 0);
    }
    flap
    {
        type            cellMotion;
        value           nonuniform 0();
    }
    upperWall
    {
        type            slip;
    }
    lowerWall
    {
        type            slip;
    }
    frontAndBack
    {
        type            empty;
    }
    procBoundary2to1
    {
        type            processor;
        value           nonuniform List<vector> 
17
(
(0.26183 0 -0.0502)
(0.257968 0 -0.0484756)
(0.253922 0 -0.0466683)
(0.249738 0 -0.0447704)
(0.245447 0 -0.0427698)
(0.241088 0 -0.0406509)
(0.236714 0 -0.0384033)
(0.232372 0 -0.0360101)
(0.2281 0 -0.0334453)
(0.223958 0 -0.030688)
(0.220015 0 -0.0277118)
(0.216334 0 -0.0244799)
(0.212991 0 -0.0209523)
(0.210076 0 -0.017082)
(0.207691 0 -0.0128135)
(0.205958 0 -0.00807855)
(0.205013 0 -0.00279466)
)
;
    }
    procBoundary2to4
    {
        type            processor;
        value           nonuniform List<vector> 
11
(
(0.278045 0 -0.0634834)
(0.27977 0 -0.0629813)
(0.280612 0 -0.0622442)
(0.280663 0 -0.0613194)
(0.280012 0 -0.0602455)
(0.278742 0 -0.0590526)
(0.276926 0 -0.0577626)
(0.274633 0 -0.0563905)
(0.271923 0 -0.0549452)
(0.268852 0 -0.0534315)
(0.265471 0 -0.0518499)
)
;
    }
    procBoundary2to5
    {
        type            processor;
        value           nonuniform List<vector> 
34
(
(0.269588 0 -0.0614863)
(0.263792 0 -0.0591823)
(0.260289 0 -0.0570908)
(0.260289 0 -0.0570908)
(0.254015 0 -0.0547537)
(0.248977 0 -0.0526177)
(0.248977 0 -0.0526177)
(0.242823 0 -0.0503905)
(0.242823 0 -0.0503905)
(0.235129 0 -0.0480029)
(0.227197 0 -0.0456647)
(0.227197 0 -0.0456647)
(0.218135 0 -0.043166)
(0.208163 0 -0.0406598)
(0.208163 0 -0.0406598)
(0.196905 0 -0.0379962)
(0.196905 0 -0.0379962)
(0.185074 0 -0.0352701)
(0.171403 0 -0.03234)
(0.171403 0 -0.03234)
(0.156324 0 -0.0292088)
(0.156324 0 -0.0292088)
(0.14091 0 -0.0260987)
(0.123064 0 -0.0226033)
(0.123064 0 -0.0226033)
(0.103737 0 -0.0188829)
(0.103737 0 -0.0188829)
(0.083937 0 -0.0152034)
(0.0616134 0 -0.0110621)
(0.0616134 0 -0.0110621)
(0.0378701 0 -0.00672788)
(0.0378701 0 -0.00672788)
(0.012766 0 -0.00223863)
(0.012766 0 -0.00223863)
)
;
    }
}


// ************************************************************************* //
