/*--------------------------------*- C++ -*----------------------------------*\
| =========                 |                                                 |
| \\      /  F ield         | OpenFOAM: The Open Source CFD Toolbox           |
|  \\    /   O peration     | Version:  dev                                   |
|   \\  /    A nd           | Web:      www.OpenFOAM.org                      |
|    \\/     M anipulation  |                                                 |
\*---------------------------------------------------------------------------*/
FoamFile
{
    version     2.0;
    format      ascii;
    class       volVectorField;
    location    "0.46";
    object      U;
}
// * * * * * * * * * * * * * * * * * * * * * * * * * * * * * * * * * * * * * //

dimensions      [0 1 -1 0 0 0 0];

internalField   nonuniform List<vector> 
2790
(
(9.93386 0 0.0193761)
(9.86706 0 0.027957)
(9.77142 0 0.0339707)
(9.64887 7.51268e-22 0.0400808)
(9.5071 8.39882e-22 0.0464282)
(9.34858 -1.70926e-21 0.0529964)
(9.17259 0 0.0599182)
(8.97794 -4.65956e-22 0.06735)
(8.76369 4.86577e-22 0.0754267)
(8.52891 0 0.0842723)
(8.27249 0 0.094011)
(7.99316 0 0.104771)
(7.6895 2.34848e-21 0.116683)
(7.36006 -2.46915e-21 0.129877)
(7.00339 2.59864e-21 0.144469)
(6.61811 2.2174e-20 0.160557)
(6.20306 -2.28384e-20 0.178203)
(5.75744 0 0.197398)
(5.281 0 0.218035)
(4.77435 -5.47231e-20 0.239858)
(4.23919 1.3122e-20 0.262387)
(3.67878 1.08179e-21 0.284809)
(3.09828 -1.89573e-19 0.305778)
(2.50536 2.9715e-19 0.323034)
(1.91107 -2.75875e-19 0.332645)
(1.33127 1.4292e-19 0.327745)
(0.789891 2.97825e-19 0.297429)
(0.32533 -3.04782e-19 0.228547)
(-0.00646864 0 0.115363)
(-0.0271487 6.46856e-19 -0.0432307)
(9.99174 3.63516e-22 0.0391978)
(9.97916 -3.72984e-22 0.059266)
(9.94016 0 0.0744971)
(9.87316 4.97117e-23 0.0904457)
(9.78466 3.21162e-21 0.10743)
(9.67721 -3.40425e-21 0.125339)
(9.55029 -7.1716e-21 0.144421)
(9.40283 7.82904e-21 0.165016)
(9.23395 -1.4505e-21 0.187421)
(9.04276 1.63328e-20 0.211909)
(8.82819 -1.67772e-20 0.238751)
(8.589 0 0.268215)
(8.32378 2.31868e-21 0.300562)
(8.03105 -3.71168e-20 0.336024)
(7.70931 7.97115e-20 0.374773)
(7.35709 -4.2793e-20 0.416888)
(6.97308 -9.22015e-20 0.462304)
(6.55627 -2.18563e-21 0.510728)
(6.10614 9.99883e-20 0.56155)
(5.62294 0 0.613732)
(5.108 -1.40146e-20 0.665659)
(4.56408 -2.37612e-19 0.714964)
(3.99582 3.06725e-19 0.758277)
(3.41018 3.21904e-20 0.790855)
(2.8169 0 0.805979)
(2.22861 6.34221e-19 0.794035)
(1.66052 -4.34628e-19 0.741838)
(1.12985 0 0.633935)
(0.644061 0 0.460569)
(0.332889 1.60291e-19 0.201097)
(9.98882 1.08919e-21 0.0419983)
(9.97333 -1.11724e-21 0.0711534)
(9.93635 0 0.0962746)
(9.87397 0 0.122555)
(9.79144 -6.51096e-21 0.150637)
(9.69143 6.36498e-21 0.180481)
(9.5737 0 0.212411)
(9.43736 1.30562e-20 0.246901)
(9.28169 -2.98873e-20 0.284412)
(9.10595 1.79775e-20 0.325387)
(8.90928 0 0.370271)
(8.69059 3.56439e-20 0.419519)
(8.44867 -7.40055e-20 0.473574)
(8.18219 -4.97657e-20 0.532846)
(7.88976 7.04716e-20 0.597654)
(7.56993 0 0.668181)
(7.22132 0 0.744392)
(6.84267 1.91687e-19 0.825893)
(6.43301 4.38156e-21 0.91178)
(5.99186 3.053e-20 1.00045)
(5.51946 -2.18046e-19 1.08938)
(5.01704 -4.66542e-19 1.17482)
(4.48716 -6.8669e-20 1.25144)
(3.93389 3.7651e-19 1.31199)
(3.36287 1.31816e-19 1.34678)
(2.78076 -6.88935e-20 1.34336)
(2.19357 -1.28709e-18 1.28695)
(1.60567 1.17414e-18 1.16367)
(1.0028 0 0.97295)
(0.512063 1.72829e-22 0.714478)
(9.98708 7.2319e-22 0.0473638)
(9.9693 0 0.0871495)
(9.93216 -7.64973e-22 0.123494)
(9.87098 6.3598e-21 0.160432)
(9.7901 -6.52993e-21 0.199174)
(9.69217 -1.28442e-20 0.240059)
(9.57716 2.74191e-20 0.283582)
(9.44439 -2.76149e-20 0.330374)
(9.29328 1.52288e-20 0.381071)
(9.12332 -6.00132e-21 0.436296)
(8.93385 0 0.496673)
(8.72409 -4.36791e-21 0.562836)
(8.49312 -4.59705e-21 0.635409)
(8.23997 1.92292e-20 0.714987)
(7.96359 1.01177e-20 0.802076)
(7.66282 -1.71429e-19 0.897024)
(7.33653 1.98233e-19 0.999927)
(6.98359 2.32708e-20 1.11046)
(6.60296 0 1.22766)
(6.19374 -2.58695e-20 1.34974)
(5.75532 0 1.47369)
(5.28748 -4.5757e-19 1.59499)
(4.79054 4.70628e-19 1.7072)
(4.26536 6.22372e-20 1.80157)
(3.71317 -1.29769e-19 1.86679)
(3.13525 -1.08183e-18 1.88934)
(2.53125 2.23337e-18 1.8545)
(1.90038 -1.29562e-18 1.75027)
(1.22253 -2.2418e-18 1.58068)
(0.62672 2.33681e-18 1.34636)
(9.98623 7.18581e-22 0.054247)
(9.9672 0 0.103257)
(9.92994 1.52697e-21 0.149462)
(9.86979 6.33821e-21 0.196068)
(9.79053 6.68198e-21 0.244687)
(9.69464 -2.71446e-22 0.296025)
(9.58216 -1.31148e-20 0.350712)
(9.4525 0 0.409472)
(9.30515 3.80549e-21 0.473049)
(9.13968 1.88939e-23 0.542177)
(8.95557 0 0.617596)
(8.7522 4.35566e-21 0.700052)
(8.52884 -9.06105e-21 0.79028)
(8.28474 -9.5522e-21 0.888991)
(8.01911 1.98763e-20 0.996833)
(7.73105 2.08321e-20 1.11429)
(7.41967 -2.20353e-20 1.24159)
(7.08402 -2.31189e-20 1.37851)
(6.72311 0 1.52419)
(6.33583 4.59317e-19 1.67688)
(5.92102 -4.19997e-19 1.83355)
(5.47735 4.47892e-19 1.98947)
(5.00331 -4.60062e-19 2.13785)
(4.49718 8.5563e-19 2.26947)
(3.95672 -1.00272e-18 2.37252)
(3.37933 -1.05655e-18 2.43323)
(2.76117 1.22124e-18 2.43715)
(2.10053 -8.52984e-19 2.37231)
(1.37859 1.09358e-18 2.24131)
(0.717823 0 2.03972)
(9.98582 -1.44118e-21 0.061813)
(9.96627 0 0.119373)
(9.92924 -7.6197e-22 0.174923)
(9.87035 0 0.231091)
(9.79305 -1.31298e-20 0.28956)
(9.69963 -1.48258e-22 0.351254)
(9.59014 1.21773e-20 0.416921)
(9.46405 3.1154e-20 0.487363)
(9.32091 -6.44578e-20 0.563417)
(9.16033 -3.23772e-20 0.645926)
(8.98188 6.94933e-20 0.735738)
(8.78498 -8.57708e-21 0.833706)
(8.56905 1.79935e-20 0.940672)
(8.33338 0 1.05745)
(8.0773 -1.9788e-20 1.1848)
(7.80006 -2.0726e-20 1.32335)
(7.50085 2.14829e-20 1.47345)
(7.1788 0 1.63504)
(6.83283 -3.82918e-19 1.80745)
(6.46164 7.43444e-19 1.98915)
(6.06361 -4.10881e-19 2.17735)
(5.63656 -5.37656e-20 2.3676)
(5.17762 -5.61129e-20 2.55334)
(4.68314 1.77229e-19 2.72554)
(4.14858 0 2.87252)
(3.56855 -1.02854e-18 2.98018)
(2.93746 9.23005e-19 3.0335)
(2.25424 -7.02021e-20 3.01851)
(1.50397 -2.37113e-18 2.93192)
(0.798118 2.39073e-18 2.75922)
(9.98566 0 0.0696531)
(9.9661 0 0.135421)
(9.92968 6.07802e-21 0.199857)
(9.87231 -6.2385e-21 0.265249)
(9.79729 -1.28094e-20 0.333231)
(9.70676 1.37677e-20 0.404885)
(9.60076 1.74402e-21 0.481092)
(9.47882 2.73206e-20 0.562749)
(9.34052 -2.98767e-20 0.650786)
(9.18554 -5.53637e-20 0.746145)
(9.01346 1.18472e-19 0.849772)
(8.8238 -5.05358e-20 0.962619)
(8.61599 -7.77215e-23 1.08563)
(8.38937 0 1.21972)
(8.14325 -1.76298e-19 1.36575)
(7.87691 1.81069e-19 1.52446)
(7.58956 1.29137e-19 1.69637)
(7.28021 -5.12492e-19 1.88163)
(6.94759 3.67553e-19 2.07984)
(6.59011 0 2.2898)
(6.20567 -5.0147e-20 2.50924)
(5.79139 9.04695e-19 2.73428)
(5.34329 -8.171e-19 2.95901)
(4.8562 -1.0306e-21 3.17501)
(4.32393 5.89776e-20 3.37104)
(3.73918 -9.97415e-19 3.53263)
(3.09504 1.02458e-18 3.64311)
(2.39063 9.75994e-19 3.68502)
(1.61532 -1.12938e-18 3.6466)
(0.871979 0 3.4979)
(9.98565 0 0.0775325)
(9.96643 1.46059e-21 0.151246)
(9.931 0 0.224129)
(9.87541 1.24979e-20 0.298347)
(9.80298 -1.30246e-20 0.375471)
(9.71574 2.63946e-20 0.456691)
(9.61372 3.24094e-22 0.543012)
(9.49649 -2.85291e-20 0.635422)
(9.36367 6.01196e-20 0.734936)
(9.215 -6.93843e-20 0.842585)
(9.0501 1.61573e-20 0.959408)
(8.86852 -7.64273e-20 1.08645)
(8.66974 -8.09749e-20 1.22477)
(8.45314 1.36162e-19 1.3754)
(8.21798 2.26676e-22 1.53931)
(7.9635 1.41103e-19 1.71737)
(7.68881 -1.44092e-19 1.91029)
(7.39275 -3.3042e-22 2.11851)
(7.07383 3.88433e-19 2.34198)
(6.73006 -7.09162e-19 2.57997)
(6.35884 4.39979e-19 2.83084)
(5.95659 -8.26431e-19 3.09157)
(5.51836 1.7051e-18 3.35725)
(5.03764 -9.3555e-19 3.62037)
(4.50657 -5.81417e-20 3.87028)
(3.91639 0 4.09231)
(3.25852 1.00042e-18 4.26782)
(2.53064 -9.98004e-19 4.37461)
(1.72506 -1.0677e-18 4.39128)
(0.942865 -3.61357e-21 4.26703)
(9.98573 2.84011e-21 0.0853019)
(9.96714 -1.4658e-21 0.166695)
(9.93298 0 0.247616)
(9.87948 0 0.330239)
(9.80995 0 0.416099)
(9.72637 0 0.506457)
(9.62879 2.67503e-20 0.60242)
(9.51678 -3.00708e-20 0.705064)
(9.39006 0 0.815484)
(9.24838 -5.80602e-20 0.934795)
(9.09143 5.54101e-20 1.06413)
(8.91879 0 1.20462)
(8.72998 0 1.35745)
(8.52442 1.54651e-19 1.52376)
(8.30137 -1.30125e-19 1.70467)
(8.06005 1.58023e-19 1.90125)
(7.79938 -1.61701e-19 2.11441)
(7.51805 3.21277e-19 2.34491)
(7.21438 -1.62516e-20 2.59318)
(6.88598 -4.03032e-20 2.85908)
(6.52967 -4.26202e-19 3.14172)
(6.14114 7.50414e-19 3.43918)
(5.71454 -8.17272e-19 3.74785)
(5.24213 -8.59544e-19 4.06156)
(4.71423 8.79657e-19 4.37058)
(4.12002 0 4.66043)
(3.44827 0 4.91076)
(2.69321 0 5.09422)
(1.84688 0 5.17887)
(1.01622 -3.33606e-20 5.08769)
(9.98588 0 0.0928592)
(9.96811 2.89729e-21 0.181639)
(9.93552 -8.92505e-21 0.270195)
(9.88436 1.53247e-21 0.360786)
(9.81802 7.91461e-22 0.454937)
(9.73847 -2.64161e-20 0.55396)
(9.64574 2.79325e-20 0.659047)
(9.53946 3.5252e-21 0.771356)
(9.41939 0 0.892055)
(9.28534 -5.74221e-20 1.02234)
(9.13706 6.26777e-20 1.16342)
(8.97419 8.1534e-21 1.31655)
(8.79629 0 1.48299)
(8.60281 8.80547e-21 1.66403)
(8.39309 -9.15095e-21 1.86096)
(8.16628 -1.73694e-19 2.07504)
(7.92126 4.79662e-19 2.30749)
(7.65661 -3.28641e-19 2.55943)
(7.37042 -3.67811e-19 2.83181)
(7.06006 3.5405e-19 3.12523)
(6.72184 4.67476e-20 3.43978)
(6.35075 7.20283e-20 3.77477)
(5.94008 0 4.1282)
(5.48089 0 4.49579)
(4.96147 8.641e-19 4.86958)
(4.36786 -8.71799e-19 5.23618)
(3.68447 9.12741e-19 5.57449)
(2.89937 -9.41236e-19 5.8525)
(1.99897 1.00692e-18 6.02685)
(1.10117 -2.03191e-18 5.98802)
(9.98608 5.60485e-21 0.10013)
(9.96931 -5.74664e-21 0.195968)
(9.9385 2.97015e-21 0.291749)
(9.88993 -1.53123e-21 0.389853)
(9.82706 -2.61172e-20 0.491818)
(9.75186 2.59634e-20 0.598996)
(9.66437 0 0.712651)
(9.56427 -2.62186e-21 0.83401)
(9.45136 1.80057e-21 0.964312)
(9.32554 -3.77039e-21 1.10482)
(9.18661 -6.27326e-20 1.25684)
(9.03428 -7.4174e-20 1.42169)
(8.86818 -1.02975e-20 1.60076)
(8.68784 -2.2009e-21 1.79546)
(8.49263 1.52663e-19 2.00726)
(8.28176 2.82078e-20 2.23765)
(8.05414 -1.92579e-20 2.48817)
(7.8083 0 2.76035)
(7.54225 3.36581e-19 3.05572)
(7.25322 4.39221e-21 3.37574)
(6.93729 -3.32556e-19 3.72163)
(6.58902 -2.33341e-20 4.09417)
(6.20097 -7.61997e-19 4.49334)
(5.76296 7.89651e-19 4.91742)
(5.26114 7.91142e-19 5.36145)
(4.67751 -8.22753e-19 5.81499)
(3.98988 -1.29904e-20 6.25847)
(3.17604 0 6.6574)
(2.20786 -9.71359e-19 6.9569)
(1.21289 9.65303e-19 7.00632)
(9.98631 -7.1667e-24 0.107058)
(9.97067 1.00216e-23 0.209591)
(9.94184 -2.93105e-21 0.312172)
(9.8961 3.01994e-21 0.417317)
(9.83695 -1.55792e-21 0.52659)
(9.76639 0 0.641381)
(9.68449 0 0.763009)
(9.59097 8.67609e-22 0.892763)
(9.4857 -3.57646e-21 1.03194)
(9.36863 6.14936e-20 1.18188)
(9.23966 7.76577e-22 1.34393)
(9.09859 -1.91405e-19 1.51952)
(8.94513 1.31184e-19 1.71013)
(8.7789 -1.46247e-19 1.9173)
(8.59938 -1.89967e-21 2.14266)
(8.40588 1.36382e-19 2.38795)
(8.19741 -2.76679e-19 2.655)
(7.9726 3.11508e-19 2.9458)
(7.72956 3.04463e-20 3.2625)
(7.46559 -3.45376e-19 3.60742)
(7.17684 3.30398e-19 3.98301)
(6.85788 -3.42987e-19 4.3918)
(6.50098 3.60576e-19 4.83612)
(6.09514 -1.18392e-20 5.31761)
(5.62461 3.03043e-21 5.83588)
(5.06718 -1.48495e-20 6.38623)
(4.39201 8.27227e-22 6.95524)
(3.56083 0 7.51207)
(2.51597 8.6295e-19 7.99506)
(1.37889 -8.81992e-19 8.20255)
(9.98658 0 0.113598)
(9.97217 5.65874e-21 0.22243)
(9.94549 2.03662e-23 0.331369)
(9.90278 -2.19566e-23 0.443064)
(9.84757 1.55644e-21 0.559117)
(9.78191 -1.59378e-21 0.680948)
(9.70591 0 0.809922)
(9.61932 0 0.947378)
(9.5221 8.97314e-22 1.09467)
(9.41426 -6.06658e-20 1.25317)
(9.2958 6.01817e-20 1.42431)
(9.16661 1.22111e-19 1.60957)
(9.02653 -1.24662e-19 1.81053)
(8.8753 -4.15164e-21 2.02883)
(8.71255 -8.5752e-21 2.26628)
(8.53775 -1.43849e-19 2.5248)
(8.35011 1.3747e-19 2.80653)
(8.14853 0 3.11387)
(7.93136 -9.91067e-21 3.44956)
(7.69628 1.5138e-20 3.81676)
(7.43992 -1.55228e-20 4.21917)
(7.15735 -1.07215e-20 4.66108)
(6.84138 0 5.14754)
(6.48127 -5.29338e-21 5.68418)
(6.06076 -1.07258e-20 6.27682)
(5.55483 -3.3359e-19 6.93003)
(4.92408 3.64987e-19 7.64394)
(4.10893 7.24797e-19 8.4053)
(2.99855 -7.36957e-19 9.16738)
(1.65583 -7.69648e-19 9.6867)
(9.98687 0 0.119716)
(9.97378 -5.65588e-21 0.234422)
(9.9494 2.14233e-23 0.349256)
(9.90988 -2.99334e-21 0.466996)
(9.85881 0 0.58928)
(9.79828 2.7054e-20 0.717556)
(9.72844 -2.60777e-20 0.853223)
(9.64909 -4.20087e-22 0.997661)
(9.56026 6.60267e-22 1.15226)
(9.46205 5.70834e-20 1.31843)
(9.35456 -6.11441e-20 1.49765)
(9.23779 1.96565e-21 1.69146)
(9.11172 6.37076e-23 1.90149)
(8.97625 4.13669e-21 2.12948)
(8.83121 8.54037e-21 2.37735)
(8.67628 0 2.64721)
(8.51099 0 2.94144)
(8.33457 0 3.26277)
(8.1459 0 3.61443)
(7.9433 -4.90994e-21 4.00032)
(7.72426 5.01873e-21 4.4252)
(7.48509 3.20105e-19 4.89501)
(7.22015 -3.25566e-19 5.41736)
(6.92077 5.25791e-21 6.00209)
(6.57305 1.0593e-20 6.66203)
(6.15382 -3.31586e-19 7.41397)
(5.62167 6.52269e-19 8.28001)
(4.90047 -3.21498e-19 9.28793)
(3.80215 5.16218e-22 10.4702)
(2.17687 0 11.6981)
(9.98717 0 0.125383)
(9.97548 0 0.245515)
(9.9535 1.43974e-20 0.36576)
(9.91733 -1.18033e-20 0.489017)
(9.87057 -2.44383e-20 0.616957)
(9.81536 5.3356e-20 0.75105)
(9.75189 -2.58025e-20 0.89272)
(9.68003 4.19466e-22 1.04337)
(9.59987 2.16478e-22 1.20442)
(9.51162 8.93874e-22 1.37732)
(9.41547 1.8454e-21 1.56355)
(9.31156 9.66722e-22 1.76469)
(9.20001 1.99742e-21 1.98242)
(9.08091 -1.98828e-21 2.21854)
(8.95431 -2.04411e-21 2.47503)
(8.82019 2.09859e-21 2.75412)
(8.67844 1.39765e-19 3.05835)
(8.52878 -1.42405e-19 3.3907)
(8.37073 0 3.75471)
(8.20351 0 4.15478)
(8.02589 0 4.5964)
(7.83601 9.31011e-21 5.0867)
(7.63096 0 5.63519)
(7.40622 0 6.25496)
(7.15437 0 6.96474)
(6.86262 0 7.79277)
(6.50617 -2.65042e-19 8.78509)
(6.03364 2.11093e-20 10.0266)
(5.24085 2.37937e-19 11.7262)
(3.29242 0 14.7939)
(-0.0682726 -2.40745e-19 0.200504)
(-0.51503 -1.06962e-19 0.367806)
(-1.23787 1.01913e-19 0.438644)
(-2.07015 0 0.46957)
(-2.97672 0 0.478855)
(-3.93042 0 0.475866)
(-4.91127 5.96413e-20 0.464793)
(-5.90319 -4.12962e-20 0.447671)
(-6.89213 -3.0857e-20 0.425538)
(-7.86482 0 0.398933)
(-8.80793 0 0.368122)
(-9.70748 -9.8814e-21 0.333216)
(-10.5485 0 0.294259)
(-11.3149 -1.09444e-20 0.251287)
(-11.9895 0 0.204394)
(-12.5545 -1.1721e-20 0.153771)
(-12.9918 2.31803e-20 0.099705)
(-13.2841 -2.2962e-20 0.0425165)
(-13.4145 1.67972e-20 -0.0176524)
(-13.3667 -2.44022e-22 -0.0811276)
(-13.1279 -5.09082e-21 -0.147976)
(-12.6906 4.16745e-21 -0.216449)
(-12.0507 -2.34503e-21 -0.286283)
(-11.2054 -1.74336e-21 -0.358524)
(-10.1472 -2.48741e-21 -0.435872)
(-8.85205 1.73725e-21 -0.525535)
(-7.27338 1.47625e-22 -0.648756)
(-5.36747 -1.46827e-22 -0.857494)
(-3.03349 0 -1.25156)
(2.65288 0 -2.48984)
(-0.289797 2.66631e-20 0.579685)
(-0.842245 -2.61924e-20 0.841335)
(-1.59835 -2.55851e-20 0.987445)
(-2.432 0 1.07699)
(-3.32878 -2.60824e-20 1.12877)
(-4.26661 2.70903e-20 1.15418)
(-5.22769 -2.85307e-20 1.1593)
(-6.19702 1.49806e-20 1.14742)
(-7.1611 0 1.12028)
(-8.1069 0 1.07868)
(-9.0212 1.85932e-20 1.0228)
(-9.89001 9.78628e-21 0.952477)
(-10.6983 2.09643e-20 0.867365)
(-11.4297 5.58224e-20 0.767181)
(-12.0667 -1.13111e-19 0.651913)
(-12.5913 4.53596e-20 0.522023)
(-12.9849 4.71275e-20 0.378568)
(-13.23 -4.62783e-20 0.223177)
(-13.3096 -1.1439e-20 0.0578227)
(-13.2067 0 -0.115684)
(-12.9193 9.54998e-21 -0.291337)
(-12.4404 -9.39181e-21 -0.464592)
(-11.7664 -1.50282e-20 -0.634415)
(-10.8945 7.06307e-21 -0.802161)
(-9.81752 2.47156e-21 -0.971687)
(-8.51541 -1.7233e-21 -1.15413)
(-6.95156 0 -1.38523)
(-5.09507 0 -1.75354)
(-2.90436 -1.25138e-22 -2.41185)
(0.758917 5.28344e-23 -3.82809)
(-0.325084 -4.99172e-20 1.1689)
(-0.931828 3.50537e-20 1.48759)
(-1.71225 -4.28598e-19 1.68079)
(-2.53153 0 1.80664)
(-3.39439 7.88627e-20 1.88061)
(-4.28665 -2.6872e-20 1.91466)
(-5.19577 2.67812e-19 1.91619)
(-6.11009 -2.63517e-19 1.88968)
(-7.01826 1.36619e-19 1.83763)
(-7.9088 -1.3301e-19 1.7612)
(-8.76962 -3.21009e-20 1.66069)
(-9.58757 3.18106e-19 1.53584)
(-10.3482 -3.12828e-19 1.38616)
(-11.0354 1.0781e-19 1.21127)
(-11.632 4.60656e-20 1.0113)
(-12.1196 0 0.787257)
(-12.4799 -2.41416e-20 0.541271)
(-12.6949 -4.72835e-20 0.276693)
(-12.7479 1.24146e-20 -0.00182569)
(-12.6218 2.24443e-20 -0.288418)
(-12.3173 0 -0.576805)
(-11.8277 -3.58164e-20 -0.861096)
(-11.1514 2.48191e-20 -1.13953)
(-10.2867 -1.35065e-20 -1.41392)
(-9.22876 4.4956e-21 -1.68966)
(-7.96475 -4.43843e-21 -1.98106)
(-6.47485 -8.44247e-22 -2.32951)
(-4.75536 8.33756e-22 -2.83135)
(-2.82812 6.94349e-23 -3.64764)
(-0.314442 3.66669e-22 -5.04568)
(-0.280364 1.07482e-19 1.86513)
(-0.891083 2.66523e-20 2.19181)
(-1.67758 5.12548e-20 2.39128)
(-2.46809 -4.30635e-19 2.52519)
(-3.2845 3.63114e-19 2.60345)
(-4.11926 0 2.63595)
(-4.96566 0 2.62946)
(-5.81601 2.92588e-19 2.58828)
(-6.66176 2.51876e-20 2.51471)
(-7.49334 -2.727e-19 2.40958)
(-8.29989 0 2.27273)
(-9.06894 0 2.1033)
(-9.78621 4.2635e-20 1.90016)
(-10.4355 -2.24018e-20 1.66235)
(-10.9987 -7.1099e-20 1.38954)
(-11.4568 9.82987e-20 1.08257)
(-11.7904 -7.24057e-20 0.743901)
(-11.9805 2.4798e-20 0.377722)
(-12.0092 0 -0.00960023)
(-11.8626 6.64982e-20 -0.408889)
(-11.544 -6.44794e-20 -0.807571)
(-11.0496 1.86029e-20 -1.1984)
(-10.3799 1.52296e-20 -1.57948)
(-9.53506 -1.4861e-21 -1.95349)
(-8.51292 0 -2.32712)
(-7.30834 3.34815e-21 -2.71601)
(-5.91811 -5.32952e-21 -3.16096)
(-4.36623 1.99823e-21 -3.74977)
(-2.72939 0 -4.61706)
(-0.897481 -3.16688e-22 -5.84985)
(-0.19678 -9.30074e-19 2.60622)
(-0.777956 4.10703e-19 2.90932)
(-1.54676 -3.65667e-19 3.08925)
(-2.2904 0 3.21278)
(-3.04827 0 3.28376)
(-3.81674 0 3.30872)
(-4.59382 0 3.29218)
(-5.37516 -2.70948e-19 3.23684)
(-6.15467 1.9342e-19 3.14377)
(-6.92443 -3.091e-19 3.01263)
(-7.67451 -3.01565e-19 2.84207)
(-8.39287 -1.74891e-19 2.63011)
(-9.06515 1.71057e-19 2.3746)
(-9.6747 0 2.07375)
(-10.2028 4.79828e-20 1.72679)
(-10.6294 -5.07488e-20 1.33483)
(-10.9344 9.99875e-20 0.901422)
(-11.0981 -2.49838e-20 0.433007)
(-11.1014 4.88917e-20 -0.0604468)
(-10.9352 -4.77215e-20 -0.564832)
(-10.6057 2.14013e-20 -1.06493)
(-10.1124 -1.99451e-20 -1.55212)
(-9.45859 0 -2.02471)
(-8.64595 0 -2.48624)
(-7.67473 -1.19288e-20 -2.94383)
(-6.54635 3.6935e-21 -3.41171)
(-5.27085 -3.63401e-21 -3.92442)
(-3.89288 3.86817e-21 -4.55246)
(-2.52336 0 -5.39446)
(-1.13073 -4.62642e-23 -6.42104)
(-0.0954631 -9.08084e-19 3.34283)
(-0.623925 -9.07076e-19 3.60621)
(-1.35005 8.20989e-19 3.75417)
(-2.02759 5.78394e-20 3.85772)
(-2.71422 -5.94154e-20 3.91508)
(-3.40703 0 3.92944)
(-4.1075 -6.4923e-20 3.90245)
(-4.81369 0 3.83454)
(-5.52142 7.04804e-20 3.72499)
(-6.22398 3.98922e-19 3.57181)
(-6.91234 -3.41748e-19 3.37214)
(-7.5749 2.89688e-19 3.12265)
(-8.19743 1.44181e-19 2.81995)
(-8.76311 -1.38002e-19 2.46129)
(-9.25264 0 2.04527)
(-9.64517 -5.11706e-20 1.5729)
(-9.9197 5.36627e-20 1.04861)
(-10.0555 0 0.480922)
(-10.0322 0 -0.116384)
(-9.84737 0 -0.723196)
(-9.51013 -2.30189e-20 -1.3191)
(-9.02418 3.79454e-20 -1.89476)
(-8.39547 -3.78784e-20 -2.44973)
(-7.6268 0 -2.98901)
(-6.71983 1.19257e-20 -3.51954)
(-5.68072 -4.05721e-21 -4.05196)
(-4.52825 3.98502e-21 -4.61055)
(-3.31957 4.39555e-21 -5.2446)
(-2.17882 6.172e-22 -6.02036)
(-1.09415 -1.07154e-21 -6.84455)
(0.0103084 9.62252e-19 4.03129)
(-0.448185 -9.20664e-19 4.24978)
(-1.10653 0 4.36246)
(-1.69892 -2.75576e-20 4.4433)
(-2.30112 5.95642e-20 4.48551)
(-2.9079 0 4.48917)
(-3.52316 6.51885e-20 4.45309)
(-4.14661 0 4.37532)
(-4.77534 -7.63162e-20 4.2529)
(-5.4037 -1.59778e-19 4.0819)
(-6.02347 0 3.85772)
(-6.62371 4.45509e-20 3.57539)
(-7.1906 4.71811e-20 3.23005)
(-7.70746 2.09337e-19 2.81772)
(-8.15468 -2.04111e-19 2.3361)
(-8.51052 5.50311e-20 1.78597)
(-8.75286 -2.21051e-19 1.17286)
(-8.85951 5.35472e-20 0.508266)
(-8.80802 0 -0.189028)
(-8.60583 0 -0.89145)
(-8.26452 2.3191e-20 -1.57359)
(-7.79262 2.09143e-20 -2.22635)
(-7.19836 7.32617e-20 -2.85176)
(-6.4848 -3.42964e-20 -3.45708)
(-5.65368 -2.68345e-20 -4.04869)
(-4.71397 0 -4.63205)
(-3.68897 -1.53894e-20 -5.21867)
(-2.64174 -7.13332e-21 -5.83638)
(-1.69299 -1.84433e-21 -6.52665)
(-0.842197 1.23124e-21 -7.16596)
(0.112376 -4.82826e-19 4.63275)
(-0.26229 4.81114e-19 4.81027)
(-0.828854 -4.82687e-19 4.89103)
(-1.31814 -3.04049e-20 4.95168)
(-1.82272 -5.29145e-19 4.98123)
(-2.33258 5.14197e-19 4.977)
(-2.85339 7.09966e-20 4.93511)
(-3.38564 0 4.85131)
(-3.92726 7.68437e-20 4.72032)
(-4.47348 1.66558e-19 4.53625)
(-5.01696 3.70254e-19 4.29269)
(-5.54756 -4.10011e-19 3.98293)
(-6.05229 0 3.60054)
(-6.51502 -5.16967e-20 3.14004)
(-6.91627 0 2.59796)
(-7.23349 -5.56198e-20 1.97438)
(-7.4429 5.66441e-20 1.27582)
(-7.51988 5.68101e-20 0.517497)
(-7.43866 1.11287e-19 -0.275601)
(-7.22127 -1.0812e-19 -1.06652)
(-6.8803 -4.74456e-20 -1.82416)
(-6.42966 3.90053e-21 -2.54138)
(-5.87897 -3.70239e-20 -3.22452)
(-5.23041 1.54624e-20 -3.88402)
(-4.48457 5.25892e-20 -4.52532)
(-3.65127 -1.2211e-20 -5.14779)
(-2.75599 1.19997e-20 -5.7491)
(-1.86172 1.24599e-20 -6.33743)
(-1.07627 2.08339e-21 -6.93607)
(-0.415425 0 -7.41104)
(0.206893 -5.34709e-19 5.11503)
(-0.0720175 5.06792e-19 5.26281)
(-0.525684 -1.63233e-20 5.31974)
(-0.895909 -3.31355e-20 5.36651)
(-1.29058 0 5.38886)
(-1.69276 5.41815e-19 5.38198)
(-2.10991 -6.33157e-20 5.3393)
(-2.54243 -5.52054e-19 5.25433)
(-2.9887 0 5.11977)
(-3.44466 -4.47986e-19 4.92796)
(-3.9038 -3.54192e-19 4.67076)
(-4.35701 -3.59868e-19 4.33975)
(-4.79251 6.1529e-19 3.92685)
(-5.19536 -4.91944e-19 3.42492)
(-5.5469 2.21661e-19 2.82882)
(-5.82413 -5.97248e-20 2.13723)
(-6.0009 0 1.35694)
(-6.04872 1.20323e-19 0.508098)
(-5.93598 -6.181e-20 -0.375976)
(-5.70726 5.18399e-20 -1.24659)
(-5.37297 -1.05237e-19 -2.06678)
(-4.95189 -4.69924e-20 -2.83439)
(-4.45352 4.02029e-20 -3.56207)
(-3.87809 -6.82662e-20 -4.26436)
(-3.22447 -2.64396e-20 -4.94515)
(-2.50109 -2.36658e-20 -5.59664)
(-1.73642 1.77523e-20 -6.20288)
(-0.986618 -1.44099e-21 -6.75678)
(-0.344956 2.2879e-21 -7.26379)
(0.154965 -2.17942e-21 -7.59614)
(0.293361 -5.55276e-19 5.45477)
(0.120824 1.42979e-20 5.58854)
(-0.203363 5.43063e-19 5.63232)
(-0.441241 3.33167e-20 5.67392)
(-0.715513 0 5.69664)
(-1.0004 5.99157e-19 5.69396)
(-1.30547 -1.13995e-18 5.65667)
(-1.63039 5.75454e-19 5.57631)
(-1.97364 -4.28407e-20 5.44382)
(-2.3315 3.76372e-19 5.25005)
(-2.69824 7.6772e-19 4.98539)
(-3.06593 -3.91396e-19 4.63993)
(-3.42431 0 4.20398)
(-3.7603 5.60876e-20 3.66859)
(-4.05715 -5.99449e-20 3.02657)
(-4.29224 6.05769e-20 2.27416)
(-4.43632 6.33418e-20 1.41675)
(-4.45595 1.89252e-19 0.480281)
(-4.30994 -6.26002e-20 -0.48933)
(-4.07818 -2.2778e-19 -1.42859)
(-3.76096 1.06835e-19 -2.29637)
(-3.37986 -5.19546e-21 -3.09922)
(-2.94273 -4.47164e-20 -3.85843)
(-2.44652 -1.14973e-21 -4.59349)
(-1.88924 1.6029e-20 -5.30581)
(-1.27565 2.6527e-20 -5.97983)
(-0.64057 -2.60112e-20 -6.58282)
(-0.027956 -1.21842e-20 -7.10283)
(0.483839 -6.01255e-22 -7.52023)
(0.843779 2.75211e-21 -7.73116)
(0.372959 5.58971e-19 5.63821)
(0.315932 5.41851e-19 5.77475)
(0.132585 -5.43321e-19 5.81654)
(0.0376867 -5.9205e-19 5.86308)
(-0.108273 1.15493e-18 5.8953)
(-0.26825 -1.12502e-18 5.90474)
(-0.454672 5.6591e-19 5.8797)
(-0.665746 -4.1622e-20 5.81002)
(-0.899645 -7.64438e-22 5.68539)
(-1.1525 3.89037e-19 5.49553)
(-1.41918 0 5.22964)
(-1.69293 -4.38117e-19 4.87662)
(-1.96514 4.85956e-19 4.42537)
(-2.22524 2.42295e-19 3.86502)
(-2.45982 -1.77862e-19 3.18584)
(-2.64832 0 2.38111)
(-2.75632 -6.44112e-20 1.45291)
(-2.74395 -6.484e-20 0.432265)
(-2.56497 -6.40604e-20 -0.614495)
(-2.34817 1.75569e-19 -1.60758)
(-2.06462 -5.84632e-20 -2.50732)
(-1.73651 9.67595e-20 -3.33244)
(-1.37018 -4.63956e-21 -4.11146)
(-0.957944 3.54482e-20 -4.87064)
(-0.498219 -1.7682e-20 -5.60741)
(0.00809389 -1.40858e-20 -6.30203)
(0.519334 1.45933e-20 -6.89603)
(0.988649 3.96792e-21 -7.36971)
(1.39171 0 -7.71261)
(1.64253 0 -7.83109)
(0.447778 0 5.66046)
(0.511316 4.32173e-21 5.81306)
(0.478449 0 5.86429)
(0.531947 -5.85082e-19 5.92633)
(0.519907 8.56182e-19 5.97819)
(0.489374 -3.33728e-19 6.00857)
(0.425794 3.33611e-19 6.00387)
(0.332963 1.12127e-19 5.95251)
(0.212352 -3.46101e-19 5.84213)
(0.0689656 0 5.66158)
(-0.0916669 0 5.40047)
(-0.263927 -5.43707e-20 5.04665)
(-0.440578 1.80847e-19 4.58834)
(-0.613686 -1.73259e-19 4.01342)
(-0.774621 0 3.30988)
(-0.90804 -2.67068e-19 2.46704)
(-0.970229 1.97267e-19 1.48126)
(-0.893043 0 0.378635)
(-0.707677 6.51089e-20 -0.741229)
(-0.536074 -5.82569e-20 -1.77085)
(-0.309213 1.1612e-19 -2.68819)
(-0.0483383 1.00289e-19 -3.53136)
(0.239687 -5.00458e-20 -4.32726)
(0.564456 -7.96715e-20 -5.10361)
(0.927898 1.71654e-20 -5.8563)
(1.31613 1.4309e-20 -6.5467)
(1.71131 1.97467e-20 -7.1298)
(2.0692 2.6942e-21 -7.57401)
(2.37758 -2.62831e-21 -7.85693)
(2.52733 0 -7.89842)
(0.524681 0 5.52161)
(0.709068 8.65411e-21 5.69696)
(0.836534 0 5.77174)
(1.03461 1.77649e-20 5.85999)
(1.159 1.82651e-20 5.94162)
(1.25607 -1.89803e-20 6.0009)
(1.31446 1.99402e-20 6.02299)
(1.33925 3.10085e-19 5.99484)
(1.33359 -2.99395e-19 5.90387)
(1.30253 0 5.73828)
(1.25158 0 5.4873)
(1.18634 -1.44799e-22 5.13889)
(1.11321 2.38274e-19 4.68109)
(1.03879 -3.56084e-19 4.10141)
(0.968439 0 3.38703)
(0.910976 0 2.52427)
(0.914645 -1.82352e-22 1.49601)
(1.06728 0 0.319812)
(1.2162 1.29597e-19 -0.846209)
(1.3252 -2.47306e-19 -1.89778)
(1.47163 0 -2.82558)
(1.64466 -1.01513e-19 -3.66809)
(1.84532 8.73088e-20 -4.47347)
(2.08258 -4.11886e-20 -5.26726)
(2.35523 0 -6.03503)
(2.64912 1.16104e-20 -6.73342)
(2.94574 -1.09459e-20 -7.30939)
(3.20357 -2.73122e-21 -7.72466)
(3.42239 2.66855e-21 -7.95476)
(3.4753 5.17282e-21 -7.93363)
(0.612432 -5.69367e-19 5.21885)
(0.91687 -8.68408e-21 5.42139)
(1.20837 0 5.53752)
(1.54504 8.68851e-21 5.66348)
(1.80337 2.99067e-19 5.78581)
(2.02253 4.03957e-20 5.88338)
(2.19787 -6.72974e-19 5.9395)
(2.33568 -2.7631e-20 5.94002)
(2.44113 3.40054e-19 5.87247)
(2.51972 1.96844e-19 5.72497)
(2.57708 3.5191e-19 5.48661)
(2.61897 7.02145e-20 5.14555)
(2.65145 1.64052e-20 4.69015)
(2.68079 -3.57879e-19 4.10799)
(2.71192 2.43005e-19 3.38606)
(2.75186 0 2.50976)
(2.83659 2.66907e-19 1.46891)
(2.99596 -1.33251e-19 0.304034)
(3.10797 0 -0.877033)
(3.16374 2.97983e-22 -1.94966)
(3.22765 5.52759e-20 -2.8939)
(3.31369 5.01392e-20 -3.75212)
(3.43201 0 -4.57553)
(3.59047 0 -5.38771)
(3.7845 -3.23176e-20 -6.1695)
(3.99669 0 -6.87129)
(4.20546 -1.541e-20 -7.43681)
(4.37225 -1.39258e-21 -7.82448)
(4.5062 -1.85762e-20 -8.0085)
(4.46508 9.43298e-23 -7.93639)
(0.71746 -4.98975e-19 4.72369)
(1.14531 -1.36638e-19 4.99852)
(1.59638 1.32924e-19 5.18248)
(2.06249 -8.66471e-21 5.35068)
(2.44809 0 5.52054)
(2.78033 -1.53589e-19 5.66412)
(3.06321 1.68868e-19 5.76015)
(3.30579 2.03974e-20 5.79376)
(3.51487 0 5.75313)
(3.69662 1.93464e-19 5.62675)
(3.85674 2.38686e-19 5.40385)
(4.00082 0 5.0731)
(4.13445 -5.50846e-20 4.62312)
(4.26325 -5.86756e-20 4.04183)
(4.39147 0 3.31632)
(4.52334 0 2.43265)
(4.66974 -6.52145e-20 1.3902)
(4.82969 -1.30199e-19 0.236293)
(4.91586 1.25982e-19 -0.919099)
(4.92585 5.9108e-20 -1.97539)
(4.91804 -1.60937e-19 -2.91874)
(4.9267 3.65203e-21 -3.78905)
(4.97424 4.57513e-20 -4.63297)
(5.06843 -2.0069e-20 -5.46649)
(5.19876 1.47376e-20 -6.26226)
(5.34197 0 -6.96521)
(5.47305 -4.19878e-21 -7.51753)
(5.55663 -2.1656e-20 -7.87747)
(5.60965 1.44489e-20 -8.02005)
(5.47656 -5.19968e-21 -7.90595)
(9.9875 5.19092e-21 0.130668)
(9.97727 5.36349e-21 0.255855)
(9.95785 0 0.381119)
(9.92521 -1.41238e-20 0.509465)
(9.883 1.44851e-20 0.642599)
(9.83339 -2.99966e-20 0.781999)
(9.77664 2.90544e-21 0.929108)
(9.71268 -2.56839e-20 1.08534)
(9.64169 5.05596e-20 1.25213)
(9.56397 0 1.43093)
(9.47982 5.62438e-20 1.62323)
(9.38953 -5.6125e-20 1.83063)
(9.29339 1.20088e-19 2.0548)
(9.19171 -1.18778e-19 2.29756)
(9.08478 1.9643e-21 2.56093)
(8.97293 1.25735e-19 2.84718)
(8.85647 2.41626e-21 3.15889)
(8.73568 -2.66222e-19 3.49913)
(8.61089 1.39749e-19 3.87158)
(8.48238 -8.43373e-21 4.28079)
(8.35051 0 4.73252)
(8.21571 1.29175e-19 5.23429)
(8.0787 -1.57154e-19 5.79623)
(7.9408 1.65602e-20 6.43247)
(7.80481 -1.28712e-19 7.16358)
(7.67751 1.30494e-19 8.02126)
(7.5776 1.03798e-19 9.05802)
(7.58511 -9.14089e-20 10.3657)
(8.19617 -1.17125e-20 12.0802)
(8.64332 -3.24017e-22 14.961)
(9.98786 -2.54372e-21 0.135578)
(9.97919 2.5888e-21 0.265448)
(9.96246 2.71156e-23 0.395318)
(9.93355 2.7415e-21 0.528291)
(9.8961 1.96944e-20 0.6661)
(9.85235 -2.30285e-20 0.810229)
(9.80259 2.08721e-20 0.962121)
(9.74684 -2.44191e-20 1.1232)
(9.68535 2.12591e-23 1.29488)
(9.61852 -5.20468e-20 1.47862)
(9.54679 1.04648e-19 1.67589)
(9.47059 3.31364e-22 1.88827)
(9.3904 -5.6174e-20 2.1174)
(9.30673 0 2.36509)
(9.22018 1.82848e-21 2.63331)
(9.13141 0 2.92427)
(9.04119 1.21531e-19 3.2405)
(8.95041 -2.86518e-22 3.58499)
(8.86019 -1.23934e-19 3.96128)
(8.77194 8.20609e-21 4.37372)
(8.6876 1.28089e-19 4.82771)
(8.60992 1.3014e-19 5.3302)
(8.5431 1.64118e-20 5.89025)
(8.49401 1.19521e-19 6.51993)
(8.47466 -2.35783e-19 7.23558)
(8.50786 1.01859e-19 8.05914)
(8.63678 0 9.01861)
(8.90778 0 10.1444)
(9.62378 2.18872e-20 11.3774)
(10.237 1.4937e-20 12.4551)
(9.98825 2.44074e-21 0.140027)
(9.98121 -2.5001e-21 0.274133)
(9.9673 0 0.40814)
(9.94226 -1.05681e-20 0.545231)
(9.90977 -5.43301e-21 0.687161)
(9.8721 2.80405e-21 0.835411)
(9.82959 0 0.991413)
(9.78232 2.65765e-20 1.15657)
(9.73062 -2.26593e-20 1.33229)
(9.67499 3.09011e-21 1.51997)
(9.61601 1.6128e-21 1.72108)
(9.55425 -4.9374e-20 1.93712)
(9.49036 5.70557e-20 2.16969)
(9.4251 0 2.4205)
(9.35933 1.69515e-21 2.69142)
(9.29405 0 2.98454)
(9.23048 0 3.3022)
(9.17007 1.18071e-19 3.64712)
(9.11467 -8.76817e-21 4.02247)
(9.06669 -2.40348e-19 4.43202)
(9.02934 1.21271e-19 4.88032)
(9.00712 -1.45114e-20 5.37286)
(9.00655 1.41749e-20 5.91629)
(9.03734 -2.82354e-20 6.51845)
(9.11412 -1.28043e-20 7.18788)
(9.25866 3.51121e-20 7.93176)
(9.50314 -2.26284e-20 8.74964)
(9.84776 0 9.62532)
(10.4216 -1.00376e-20 10.5069)
(11.1303 0 11.2069)
(9.98865 2.35983e-21 0.143961)
(9.9833 -7.25325e-21 0.281803)
(9.97232 4.95876e-21 0.41942)
(9.95129 0 0.56006)
(9.92391 5.91181e-23 0.705488)
(9.89249 0 0.857177)
(9.85743 0 1.01653)
(9.81884 1.98903e-20 1.18493)
(9.77715 -6.99698e-20 1.36373)
(9.73295 9.26506e-20 1.55429)