/*--------------------------------*- C++ -*----------------------------------*\
| =========                 |                                                 |
| \\      /  F ield         | OpenFOAM: The Open Source CFD Toolbox           |
|  \\    /   O peration     | Version:  dev                                   |
|   \\  /    A nd           | Web:      www.OpenFOAM.org                      |
|    \\/     M anipulation  |                                                 |
\*---------------------------------------------------------------------------*/
FoamFile
{
    version     2.0;
    format      ascii;
    class       volVectorField;
    location    "0.46";
    object      U;
}
// * * * * * * * * * * * * * * * * * * * * * * * * * * * * * * * * * * * * * //

dimensions      [0 1 -1 0 0 0 0];

internalField   nonuniform List<vector> 
2790
(
(9.93376 0 0.0196395)
(9.86553 0 0.0284072)
(9.76758 -1.77205e-21 0.0345482)
(9.64241 -1.4256e-21 0.0407606)
(9.49777 0 0.0471996)
(9.33608 -1.75419e-21 0.0538536)
(9.15656 1.82534e-21 0.0608519)
(8.95806 -9.67756e-22 0.0683498)
(8.73967 9.78555e-22 0.0764875)
(8.50045 0 0.0853904)
(8.23928 4.39686e-21 0.0951798)
(7.95488 -4.37695e-21 0.10598)
(7.64587 9.99042e-21 0.117915)
(7.31083 -1.03542e-21 0.131101)
(6.94838 -7.83637e-21 0.145649)
(6.55726 0 0.161646)
(6.13649 -5.87792e-21 0.179134)
(5.68546 0 0.198082)
(5.20427 0 0.218354)
(4.69396 -6.95007e-20 0.239664)
(4.15683 5.75376e-20 0.261506)
(3.59675 -3.05661e-20 0.28304)
(3.01969 -9.73832e-20 0.302908)
(2.43413 6.65093e-20 0.318841)
(1.85171 -2.83255e-19 0.326935)
(1.28872 5.86821e-19 0.320623)
(0.768725 -6.07399e-19 0.289892)
(0.327487 1.55185e-19 0.223447)
(0.0142457 1.57536e-19 0.119847)
(-0.00419515 6.63934e-19 -0.0255938)
(9.9916 0 0.0399747)
(9.97757 -3.04858e-21 0.0605782)
(9.93628 1.57201e-21 0.0761706)
(9.86672 -3.25367e-21 0.0924063)
(9.77541 1.67589e-21 0.109646)
(9.66486 1.74828e-21 0.127791)
(9.5345 -9.11072e-21 0.147085)
(9.38326 2.81222e-21 0.167861)
(9.21028 9.87879e-22 0.190431)
(9.01468 8.33264e-21 0.215068)
(8.79537 -1.62028e-20 0.242034)
(8.55108 8.81879e-21 0.271585)
(8.28043 -1.94913e-20 0.303957)
(7.98199 2.34589e-20 0.339348)
(7.65432 -4.50228e-20 0.377905)
(7.29606 9.37164e-20 0.419678)
(6.90607 6.86807e-21 0.464551)
(6.48358 -3.61457e-20 0.512182)
(6.02839 1.29789e-19 0.561891)
(5.54118 4.28753e-20 0.612571)
(5.02388 1.17443e-19 0.662571)
(4.4799 5.09826e-19 0.709513)
(3.91464 -2.75798e-20 0.750054)
(3.33592 -7.27201e-19 0.779555)
(2.75402 4.10662e-19 0.791453)
(2.18173 -1.43313e-19 0.776586)
(1.63371 -1.4847e-19 0.722982)
(1.12469 1.07085e-18 0.617372)
(0.655142 -1.39528e-18 0.454278)
(0.361147 -2.94109e-18 0.226254)
(9.98871 0 0.0432869)
(9.97182 -3.03722e-21 0.0733246)
(9.93263 7.84344e-21 0.0990478)
(9.8678 1.6285e-21 0.125811)
(9.7826 -6.73318e-21 0.154323)
(9.67965 6.97584e-21 0.184567)
(9.55871 7.3251e-21 0.216862)
(9.41882 -1.12601e-20 0.25168)
(9.25929 1.58733e-20 0.289494)
(9.07941 -1.42421e-20 0.330746)
(8.87825 -1.07511e-21 0.375874)
(8.65472 -3.69135e-20 0.42531)
(8.40763 7.54408e-20 0.479451)
(8.13565 -8.40898e-20 0.538654)
(7.83742 3.59116e-20 0.603199)
(7.5116 -5.46672e-21 0.673213)
(7.15692 0 0.748571)
(6.77233 1.19604e-20 0.828791)
(6.35716 -2.54387e-20 0.912861)
(5.91127 -2.67495e-20 0.999054)
(5.4354 -2.26496e-19 1.08475)
(4.93146 -2.33338e-19 1.16616)
(4.40273 1.23003e-19 1.23799)
(3.85411 0 1.2931)
(3.29188 2.69438e-19 1.32208)
(2.72286 1.40416e-19 1.31304)
(2.15295 1.45407e-19 1.25262)
(1.58532 2.99452e-19 1.12922)
(1.00397 0 0.944941)
(0.540476 -3.21784e-19 0.714386)
(9.98701 0 0.0491454)
(9.96784 4.5617e-21 0.0901418)
(9.92853 -4.70407e-21 0.127311)
(9.86495 0 0.16491)
(9.78145 3.3529e-21 0.204233)
(9.68066 5.42764e-23 0.24565)
(9.56257 -7.17671e-21 0.289662)
(9.42638 1.1832e-23 0.33691)
(9.27155 3.90777e-21 0.388036)
(9.09758 1.44498e-20 0.443655)
(8.90378 -1.90565e-20 0.504389)
(8.68934 5.59429e-22 0.570842)
(8.45339 2.91519e-22 0.643582)
(8.19488 2.45724e-21 0.723141)
(7.91278 -7.80571e-20 0.809967)
(7.60602 8.54357e-20 0.904326)
(7.27354 0 1.00619)
(6.91435 -2.3887e-20 1.11509)
(6.52767 -2.48924e-20 1.22996)
(6.11284 5.22531e-20 1.34878)
(5.66957 0 1.46839)
(5.19826 4.00084e-19 1.58412)
(4.6999 -1.21264e-19 1.68943)
(4.17616 0 1.77561)
(3.62907 -1.32013e-19 1.83151)
(3.0603 0 1.84384)
(2.47024 2.82993e-19 1.79886)
(1.8586 2.64509e-18 1.68614)
(1.2113 1.16916e-20 1.50959)
(0.655171 -2.52781e-18 1.28803)
(9.9862 7.38139e-22 0.0565111)
(9.96581 -7.56966e-22 0.107054)
(9.9264 -1.24637e-20 0.154305)
(9.86392 0 0.201751)
(9.78212 6.66278e-21 0.251102)
(9.68346 2.33159e-23 0.303096)
(9.56799 0 0.358395)
(9.43499 1.12051e-20 0.417742)
(9.28402 -7.78544e-21 0.481872)
(9.11465 -3.27797e-20 0.551511)
(8.92628 3.15209e-20 0.627395)
(8.71832 0 0.710235)
(8.49004 -2.90603e-22 0.800709)
(8.2406 7.85158e-20 0.89947)
(7.96919 -8.05497e-20 1.00708)
(7.67499 0 1.12391)
(7.35713 -1.92025e-19 1.25005)
(7.01472 3.98652e-19 1.3851)
(6.64692 -1.94442e-19 1.52806)
(6.25284 -5.17882e-20 1.67694)
(5.83147 0 1.82839)
(5.38193 -3.9914e-19 1.97738)
(4.90332 1.30291e-18 2.11685)
(4.39462 -8.55296e-19 2.23731)
(3.85454 -1.27577e-19 2.3267)
(3.28135 0 2.37079)
(2.67278 -2.77496e-19 2.35487)
(2.02899 -2.87339e-19 2.2673)
(1.34503 -2.38144e-18 2.10802)
(0.738386 2.47928e-18 1.89141)
(9.98584 0 0.0645438)
(9.96496 1.05408e-20 0.123946)
(9.92583 1.59528e-21 0.180754)
(9.86468 3.22479e-21 0.23793)
(9.78495 -1.66469e-20 0.297271)
(9.68886 2.75589e-20 0.35974)
(9.57645 7.28939e-21 0.426134)
(9.44713 -2.22176e-20 0.497282)
(9.3005 4.27923e-20 0.57401)
(9.1361 -2.39575e-20 0.65715)
(8.95345 -3.39311e-20 0.747541)
(8.75204 3.48187e-20 0.845996)
(8.53119 0 0.953307)
(8.29013 0 1.07023)
(8.02817 0 1.19744)
(7.74454 -1.70081e-19 1.33541)
(7.43842 1.96407e-19 1.48433)
(7.10893 -2.31783e-20 1.64398)
(6.75497 4.82518e-20 1.81345)
(6.37542 4.08066e-19 1.99096)
(5.96876 -4.18421e-19 2.17334)
(5.53299 0 2.35557)
(5.06567 1.1582e-18 2.53057)
(4.56376 -1.07218e-18 2.6886)
(4.02366 1.5829e-21 2.81703)
(3.44143 -1.04307e-18 2.90035)
(2.81374 1.07047e-18 2.92159)
(2.14237 -6.95325e-20 2.86557)
(1.43273 -7.25181e-20 2.72489)
(0.797715 3.78682e-20 2.49987)
(9.98574 0 0.072832)
(9.96488 -1.20487e-20 0.140739)
(9.92642 2.47674e-20 0.206631)
(9.86688 -1.27575e-20 0.27319)
(9.78955 6.64641e-21 0.342179)
(9.69646 -2.73517e-20 0.414731)
(9.58763 0 0.491779)
(9.46258 -7.36138e-21 0.574252)
(9.32091 2.32595e-20 0.66308)
(9.16221 -4.77267e-20 0.759197)
(8.98605 -2.94535e-20 0.863527)
(8.79196 -3.57297e-20 0.976983)
(8.57923 6.96914e-20 1.10047)
(8.34715 0 1.23484)
(8.09503 0 1.38086)
(7.82203 1.6224e-19 1.53912)
(7.52726 -1.81625e-20 1.70998)
(7.20969 -1.79254e-19 1.89338)
(6.86791 -3.28517e-22 2.08867)
(6.50034 2.44965e-20 2.29433)
(6.10493 0 2.50759)
(5.67866 0 2.72388)
(5.21777 -1.01533e-18 2.93639)
(4.71753 9.23869e-19 3.13549)
(4.17252 1.21866e-19 3.3081)
(3.57712 6.22903e-20 3.43713)
(2.9275 0 3.50214)
(2.22657 2.22325e-18 3.48264)
(1.48796 -2.2029e-18 3.36227)
(0.833927 -3.73744e-20 3.11601)
(9.98579 -1.45887e-21 0.0811384)
(9.96531 1.34382e-20 0.157271)
(9.92789 -5.6409e-23 0.231799)
(9.87025 1.2749e-20 0.307331)
(9.79563 0 0.38559)
(9.70595 1.36532e-20 0.467827)
(9.60122 -1.33159e-22 0.555098)
(9.481 3.6676e-20 0.648429)
(9.34494 -7.5404e-21 0.748847)
(9.19268 3.20066e-20 0.857377)
(9.02383 -6.60135e-20 0.975032)
(8.8379 -3.52836e-20 1.10283)
(8.63423 7.33217e-20 1.24179)
(8.41212 7.5497e-20 1.39287)
(8.17082 -7.73164e-20 1.55695)
(7.90942 5.12024e-21 1.73478)
(7.62685 1.06917e-20 1.9269)
(7.32181 0 2.13352)
(6.9926 -1.18284e-20 2.35431)
(6.63711 -2.42815e-20 2.58817)
(6.25249 0 2.83291)
(5.83482 -4.47009e-19 3.08463)
(5.37901 4.30559e-19 3.33719)
(4.87869 8.80892e-19 3.58133)
(4.32648 -1.87232e-18 3.80368)
(3.71495 8.74095e-19 3.98552)
(3.03943 -1.56332e-20 4.10249)
(2.30239 3.33206e-20 4.1272)
(1.52101 0 4.0332)
(0.84791 0 3.75876)
(9.98595 0 0.0893118)
(9.96612 -1.19384e-20 0.173388)
(9.93005 -6.25604e-23 0.256129)
(9.87459 0 0.340204)
(9.803 6.56622e-21 0.42732)
(9.71712 6.86692e-21 0.518806)
(9.61696 -2.79991e-20 0.615823)
(9.50211 0 0.71949)
(9.37228 -7.57377e-21 0.830922)
(9.22715 7.87348e-21 0.951233)
(9.06639 0 1.08153)
(8.8895 0 1.22295)
(8.69587 -8.78692e-21 1.3766)
(8.48483 0 1.54357)
(8.25557 0 1.72489)
(8.00711 2.47889e-21 1.92152)
(7.73821 0 2.13423)
(7.44728 0 2.36355)
(7.13233 3.52616e-19 2.60959)
(6.79068 -3.72031e-19 2.87183)
(6.41871 1.2049e-20 3.14881)
(6.01153 2.55602e-20 3.43761)
(5.56269 4.10161e-19 3.73309)
(5.06398 -4.04556e-19 4.02682)
(4.50558 0 4.30558)
(3.87739 2.96214e-20 4.54949)
(3.17211 1.54199e-20 4.73038)
(2.3896 0 4.81266)
(1.54318 -1.08635e-18 4.75824)
(0.841727 -6.55908e-21 4.45679)
(9.98617 0 0.0972489)
(9.96722 -2.36204e-20 0.188957)
(9.93277 -3.65267e-20 0.279496)
(9.87977 0 0.371668)
(9.8115 -1.29411e-20 0.467187)
(9.72979 1.3496e-20 0.567441)
(9.63463 -1.3832e-20 0.67368)
(9.52566 1.43479e-20 0.787108)
(9.40263 0 0.908923)
(9.26531 1.54381e-20 1.04032)
(9.11337 6.4956e-20 1.18252)
(8.94637 -1.34027e-19 1.33673)
(8.76378 7.78723e-20 1.50419)
(8.56493 7.30435e-20 1.68613)
(8.349 -8.40631e-20 1.88375)
(8.11497 -2.46635e-21 2.09824)
(7.8615 -1.64212e-19 2.33068)
(7.58682 1.67819e-19 2.58197)
(7.28863 -5.43096e-21 2.85277)
(6.96381 0 3.14328)
(6.60807 -1.77683e-20 3.45302)
(6.2156 1.20587e-20 3.7803)
(5.77857 1.28156e-20 4.12144)
(5.28673 -4.21609e-19 4.46958)
(4.72727 4.30541e-19 4.81267)
(4.08578 0 5.13084)
(3.34931 0 5.39314)
(2.51186 0 5.5553)
(1.57137 0 5.5651)
(0.820932 3.34256e-20 5.25157)
(9.98645 0 0.104874)
(9.96853 2.65592e-20 0.203867)
(9.93593 4.54156e-20 0.30178)
(9.88565 6.26411e-21 0.401582)
(9.82099 1.29795e-20 0.505017)
(9.74378 -6.6329e-21 0.613521)
(9.65402 0 0.728416)
(9.5514 -4.30331e-20 0.850985)
(9.43572 -1.50769e-20 0.9825)
(9.3068 -1.85742e-22 1.12424)
(9.16439 0 1.2775)
(9.00812 -6.65257e-20 1.4436)
(8.83751 1.3713e-19 1.6239)
(8.65195 1.07536e-21 1.81975)
(8.45067 1.04299e-20 2.03256)
(8.23264 6.89202e-20 2.26376)
(7.99653 2.38407e-21 2.51475)
(7.74051 -1.73836e-19 2.78692)
(7.46211 5.39342e-21 3.08152)
(7.15795 0 3.39963)
(6.8233 5.77969e-21 3.74193)
(6.45165 -3.51464e-20 4.10829)
(6.034 4.77823e-20 4.49712)
(5.55808 -4.91789e-20 4.90407)
(5.00761 0 5.31988)
(4.36224 0 5.72704)
(3.59944 -1.65807e-19 6.09469)
(2.70201 1.44714e-19 6.37164)
(1.63495 -1.2129e-19 6.48902)
(0.799308 -9.18853e-22 6.20283)
(9.98677 -2.13092e-20 0.11213)
(9.97001 -1.46134e-21 0.218025)
(9.93948 -2.4134e-20 0.322873)
(9.89214 0 0.42982)
(9.83136 -6.41938e-21 0.540655)
(9.75895 6.5782e-21 0.656855)
(9.67495 0 0.779804)
(9.5791 2.84027e-20 0.910849)
(9.47124 -2.8935e-20 1.05133)
(9.35129 -1.52542e-20 1.2026)
(9.21906 -1.59931e-20 1.36603)
(9.07427 -3.31692e-20 1.54303)
(8.91653 6.69557e-20 1.73506)
(8.74532 8.76609e-20 1.94363)
(8.55997 -7.18776e-20 2.17033)
(8.35953 -1.41447e-19 2.41683)
(8.14277 1.34899e-19 2.68489)
(7.90793 2.99453e-20 2.97636)
(7.65261 0 3.29317)
(7.37342 -2.10558e-20 3.63736)
(7.06557 2.16583e-20 4.01093)
(6.72229 -1.5728e-19 4.41564)
(6.33395 -2.79776e-19 4.85254)
(5.88679 1.92484e-19 5.32099)
(5.36131 9.5556e-20 5.81671)
(4.73044 9.14911e-20 6.32825)
(3.95822 5.99688e-20 6.83071)
(3.00823 1.13949e-19 7.27317)
(1.78563 2.94674e-19 7.5724)
(0.806616 -4.7918e-19 7.39571)
(9.98713 4.38927e-20 0.11897)
(9.97164 1.45133e-21 0.231351)
(9.94333 -2.37975e-20 0.342675)
(9.89916 1.83357e-20 0.456266)
(9.84247 3.15844e-20 0.57396)
(9.77514 0 0.697271)
(9.69722 0 0.827635)
(9.6085 0 0.966453)
(9.50891 1.45197e-20 1.11512)
(9.39842 1.48546e-20 1.27505)
(9.27695 1.95032e-22 1.44769)
(9.14431 0 1.63451)
(9.00024 0 1.83707)
(8.84435 -1.72632e-20 2.05701)
(8.6761 0 2.2961)
(8.49475 0 2.55622)
(8.29924 1.90895e-20 2.83948)
(8.08806 -4.76449e-22 3.14817)
(7.85909 0 3.48489)
(7.60929 2.27088e-19 3.85263)
(7.33428 -4.01594e-19 4.25475)
(7.02772 -8.60863e-20 4.69509)
(6.68029 -8.65997e-20 5.17781)
(6.27809 9.03804e-20 5.70701)
(5.80009 -8.32199e-20 6.28567)
(5.21406 -1.08639e-19 6.9133)
(4.46955 -1.91015e-19 7.58059)
(3.50244 3.91133e-19 8.25449)
(2.11648 9.39496e-20 8.86047)
(0.906498 0 8.97004)
(9.98751 -2.25743e-20 0.125359)
(9.97339 -1.44296e-21 0.24378)
(9.94745 4.88775e-20 0.361103)
(9.90661 -2.44897e-20 0.480817)
(9.85423 -2.07089e-22 0.60481)
(9.7922 -1.30155e-20 0.734627)
(9.72064 1.3328e-20 0.871741)
(9.63937 -1.38776e-20 1.0176)
(9.54839 -2.86595e-20 1.17364)
(9.44779 -4.77732e-22 1.34133)
(9.33756 1.50089e-20 1.52214)
(9.21766 1.56865e-20 1.71763)
(9.08794 -6.5359e-20 1.92943)
(8.9482 5.01329e-20 2.15927)
(8.7981 6.95979e-20 2.40906)
(8.63714 -7.10304e-20 2.68088)
(8.46456 7.3811e-20 2.9771)
(8.27927 -9.43991e-20 3.30041)
(8.07964 -3.82132e-20 3.65399)
(7.86334 -4.03678e-20 4.04164)
(7.62693 1.48719e-21 4.46801)
(7.36531 0 4.93888)
(7.07083 1.12017e-21 5.46154)
(6.73167 -6.32664e-21 6.04522)
(6.32891 9.03978e-20 6.70167)
(5.83118 -8.67247e-20 7.44563)
(5.18119 0 8.29503)
(4.29058 2.43055e-19 9.26606)
(2.80693 -3.62112e-19 10.3739)
(1.25061 8.59701e-19 11.2303)
(9.98791 0 0.131265)
(9.97523 0 0.255254)
(9.95179 -2.36013e-20 0.378076)
(9.91443 0 0.503373)
(9.86654 -4.9822e-20 0.633075)
(9.81002 2.55525e-20 0.768754)
(9.74503 2.63351e-20 0.911914)
(9.67148 1.37082e-20 1.06403)
(9.58943 -1.40066e-20 1.22658)
(9.49905 2.90409e-20 1.40104)
(9.40047 -2.98476e-20 1.58895)
(9.29376 4.66537e-20 1.79187)
(9.17895 -4.75504e-20 2.0115)
(9.05602 1.65793e-20 2.24963)
(8.92489 1.67396e-20 2.50827)
(8.78535 8.70189e-20 2.78962)
(8.63705 -7.12024e-20 3.09624)
(8.47942 0 3.43111)
(8.31155 1.15465e-21 3.79781)
(8.13209 7.64077e-20 4.20073)
(7.93902 -3.81583e-20 4.64545)
(7.72931 -3.92035e-20 5.13923)
(7.49839 3.98972e-20 5.69181)
(7.23917 -3.92889e-20 6.31668)
(6.94016 7.79579e-20 7.03337)
(6.58202 1.87112e-19 7.87172)
(6.12521 -3.29515e-19 8.88145)
(5.5123 1.13876e-19 10.1543)
(4.26587 -4.80929e-20 11.9459)
(2.32002 -5.63278e-19 14.9151)
(-0.0232127 1.0716e-19 0.167819)
(-0.473369 -2.67974e-20 0.356334)
(-1.22442 5.20746e-20 0.438749)
(-2.09463 5.20845e-20 0.474531)
(-3.03704 0 0.485356)
(-4.01869 -8.56492e-20 0.482257)
(-5.01847 2.42748e-20 0.470265)
(-6.02079 5.95842e-20 0.451832)
(-7.01303 0 0.42828)
(-7.98357 -1.78441e-20 0.400305)
(-8.92032 0 0.368223)
(-9.81021 0 0.3322)
(-10.6394 0 0.292337)
(-11.3927 0 0.248688)
(-12.0537 1.17016e-20 0.201331)
(-12.6051 -1.14317e-20 0.150436)
(-13.0295 -5.89871e-21 0.0962533)
(-13.3097 5.77748e-21 0.0390524)
(-13.4292 -5.66826e-21 -0.021055)
(-13.3716 2.5952e-21 -0.0843867)
(-13.1244 -2.55011e-21 -0.150966)
(-12.6802 -4.46345e-21 -0.219054)
(-12.0349 -1.93331e-21 -0.288439)
(-11.1857 0 -0.36017)
(-10.1249 0 -0.436913)
(-8.82845 0 -0.525782)
(-7.25004 7.35196e-23 -0.647828)
(-5.34715 -7.31031e-23 -0.85476)
(-3.02304 -6.24506e-24 -1.24584)
(2.65586 6.06357e-24 -2.48045)
(-0.248846 3.23905e-19 0.523942)
(-0.810716 -3.93548e-19 0.824593)
(-1.59286 -5.13875e-20 0.988999)
(-2.46106 -5.14172e-20 1.08717)
(-3.39 -2.18724e-19 1.1426)
(-4.35288 2.39811e-19 1.16872)
(-5.331 -8.76558e-20 1.17267)
(-6.30966 0 1.15846)
(-7.27651 3.3387e-20 1.12839)
(-8.21997 -1.8078e-20 1.08366)
(-9.12795 0 1.0246)
(-9.98737 0 0.951256)
(-10.7842 0 0.863489)
(-11.5029 0 0.761123)
(-12.1268 0 0.644178)
(-12.6382 2.37888e-20 0.513141)
(-13.0193 -4.11803e-20 0.369044)
(-13.2527 2.33112e-20 0.213413)
(-13.3218 0 0.0481063)
(-13.2096 5.24758e-21 -0.124984)
(-12.9146 -3.71324e-22 -0.299681)
(-12.4295 8.81077e-21 -0.471782)
(-11.7509 1.92629e-21 -0.640346)
(-10.8756 -1.43827e-21 -0.806768)
(-9.7965 -2.20123e-21 -0.974889)
(-8.4935 2.87454e-21 -1.15572)
(-6.92996 1.09199e-21 -1.38473)
(-5.07559 0 -1.75024)
(-2.89129 0 -2.40463)
(0.771556 0 -3.81702)
(-0.280264 -8.59927e-19 1.11783)
(-0.908074 -8.51868e-19 1.48094)
(-1.7201 9.19374e-19 1.69523)
(-2.57245 -4.28581e-19 1.83102)
(-3.46346 4.15149e-19 1.90856)
(-4.37666 -1.19238e-19 1.94211)
(-5.29943 2.84285e-19 1.94057)
(-6.22061 -6.36095e-20 1.90939)
(-7.12991 -3.31668e-20 1.85191)
(-8.01708 1.08132e-19 1.76986)
(-8.871 -1.18696e-19 1.66381)
(-9.67946 3.67691e-20 1.53381)
(-10.4289 -4.34779e-20 1.37964)
(-11.104 4.62991e-20 1.20107)
(-11.6879 -4.52994e-20 0.998303)
(-12.163 0 0.772374)
(-12.5112 2.41904e-20 0.525405)
(-12.715 -4.79615e-20 0.260611)
(-12.7577 2.29219e-20 -0.0175786)
(-12.6237 -3.3606e-20 -0.303244)
(-12.3121 0 -0.590082)
(-11.8169 -9.05761e-21 -0.87246)
(-11.1364 0 -1.14877)
(-10.2688 -9.70564e-21 -1.42093)
(-9.20918 6.58437e-21 -1.69436)
(-7.94451 -2.15154e-21 -1.98318)
(-6.45481 4.26159e-22 -2.32849)
(-4.73658 1.35386e-22 -2.82643)
(-2.81294 3.56389e-22 -3.63804)
(-0.298017 1.81975e-22 -5.03198)
(-0.224905 8.8084e-19 1.85698)
(-0.869317 -7.84064e-19 2.21898)
(-1.69831 7.60534e-19 2.43381)
(-2.52208 -1.3854e-18 2.5733)
(-3.36319 3.1481e-19 2.65129)
(-4.2147 -1.13028e-19 2.67973)
(-5.0709 1.23515e-19 2.66685)
(-5.92512 6.34242e-20 2.61789)
(-6.76995 0 2.53601)
(-7.59688 -1.47087e-19 2.42263)
(-8.39589 3.86813e-20 2.27791)
(-9.15534 4.11309e-20 2.10132)
(-9.86169 4.34599e-20 1.89201)
(-10.4992 9.4823e-20 1.64913)
(-11.0504 -4.44245e-20 1.37241)
(-11.4966 0 1.06275)
(-11.8186 0 0.722574)
(-11.9981 -6.41012e-22 0.355979)
(-12.0169 2.43661e-20 -0.0308662)
(-11.8628 3.42875e-20 -0.428797)
(-11.5378 0 -0.825379)
(-11.0383 8.90339e-21 -1.21356)
(-10.3651 -1.33069e-20 -1.59173)
(-9.51793 -4.0344e-21 -1.96272)
(-8.49458 0 -2.33326)
(-7.28958 0 -2.71881)
(-5.89951 -2.44911e-21 -3.15985)
(-4.34824 0 -3.74405)
(-2.71313 9.55482e-22 -4.60624)
(-0.879563 -1.68151e-22 -5.83469)
(-0.131109 -5.7329e-20 2.67796)
(-0.759044 -1.09555e-19 2.99294)
(-1.58085 0 3.17356)
(-2.35702 -4.93072e-21 3.29259)
(-3.13603 1.12439e-19 3.35599)
(-3.91703 0 3.37132)
(-4.70002 -1.23565e-19 3.34389)
(-5.48216 -2.79566e-19 3.27703)
(-6.25858 1.99593e-19 3.17245)
(-7.02233 1.51885e-19 3.0303)
(-7.76421 0 2.84952)
(-8.47283 -4.36304e-20 2.62843)
(-9.13441 -4.60534e-20 2.36508)
(-9.73268 0 2.05778)
(-10.2493 -4.86219e-20 1.70583)
(-10.6645 0 1.31039)
(-10.9586 0 0.875051)
(-11.1123 -5.15353e-20 0.40616)
(-11.1064 2.54799e-20 -0.0865089)
(-10.9331 -2.32032e-20 -0.589064)
(-10.5979 3.25649e-20 -1.08648)
(-10.1003 -1.02175e-20 -1.57034)
(-9.44365 8.38159e-21 -2.03927)
(-8.62935 7.02506e-21 -2.49707)
(-7.6574 0 -2.9509)
(-6.52892 9.03292e-21 -3.41484)
(-5.25365 6.29471e-21 -3.92314)
(-3.8759 -1.59788e-22 -4.54618)
(-2.50696 7.75327e-22 -5.38297)
(-1.11264 0 -6.40502)
(-0.028349 9.91856e-19 3.51824)
(-0.617855 1.04395e-18 3.75997)
(-1.40133 -1.84573e-18 3.88803)
(-2.1072 5.46088e-19 3.97344)
(-2.81017 9.67598e-19 4.01369)
(-3.51084 -4.84676e-19 4.0116)
(-4.21325 0 3.96858)
(-4.9172 -7.11127e-20 3.88516)
(-5.61967 -2.79829e-21 3.7609)
(-6.31491 -7.74337e-20 3.59409)
(-6.99445 0 3.38208)
(-7.64718 1.34244e-19 3.12169)
(-8.25929 9.56681e-20 2.8097)
(-8.81419 -1.96472e-19 2.4434)
(-9.29288 9.93879e-20 2.02142)
(-9.6748 5.336e-20 1.54484)
(-9.93921 0 1.01815)
(-10.0657 2.61429e-20 0.449816)
(-10.0339 0 -0.146544)
(-9.84261 -2.49191e-20 -0.751039)
(-9.50046 -4.5282e-20 -1.34365)
(-9.01104 2.07763e-20 -1.91531)
(-8.38019 0 -2.46594)
(-7.61051 0 -3.00084)
(-6.70336 0 -3.52706)
(-5.66453 -9.01335e-21 -4.05511)
(-4.51245 -6.95289e-21 -4.60901)
(-3.30382 6.69727e-22 -5.23792)
(-2.16298 -1.8448e-21 -6.00855)
(-1.0768 0 -6.82805)
(0.0634234 1.00086e-18 4.31559)
(-0.472292 -1.99161e-18 4.47394)
(-1.18181 1.45364e-18 4.54479)
(-1.79313 -9.92448e-19 4.59347)
(-2.40484 4.94202e-19 4.6088)
(-3.0139 -5.48211e-19 4.58914)
(-3.6269 5.32425e-19 4.5321)
(-4.24508 3.7582e-19 4.43512)
(-4.86656 -2.20388e-19 4.29514)
(-5.48643 8.35182e-20 4.10829)
(-6.09688 8.86816e-20 3.86999)
(-6.68729 -2.83061e-19 3.57533)
(-7.24409 2.35998e-19 3.21951)
(-7.75076 5.19744e-20 2.79853)
(-8.18783 5.46838e-20 2.31013)
(-8.53383 -1.60786e-19 1.75515)
(-8.76686 5.84985e-22 1.13919)
(-8.86495 1.11546e-19 0.473796)
(-8.80573 8.42914e-22 -0.222355)
(-8.59809 5.10856e-20 -0.921983)
(-8.25268 2.31947e-20 -1.60025)
(-7.77817 -2.08955e-20 -2.24839)
(-7.18259 1.90722e-20 -2.86887)
(-6.46872 0 -3.46928)
(-5.638 -1.33754e-20 -4.05615)
(-4.69894 0 -4.63487)
(-3.67461 0 -5.21672)
(-2.62739 5.32228e-21 -5.82939)
(-1.67825 -2.29319e-22 -6.51471)
(-0.826269 0 -7.14924)
(0.132001 -5.29819e-19 5.01189)
(-0.338372 4.7387e-19 5.08993)
(-0.936494 0 5.11087)
(-1.42959 -4.69351e-19 5.12819)
(-1.9344 -3.15898e-20 5.12311)
(-2.43986 5.36902e-19 5.0902)
(-2.95385 3.01375e-19 5.02355)
(-3.47782 -2.93015e-19 4.91779)
(-4.01037 0 4.76722)
(-4.54713 -8.40625e-20 4.56575)
(-5.08092 -8.92864e-20 4.30684)
(-5.60177 -4.87956e-20 3.98377)
(-6.09679 5.14895e-20 3.59005)
(-6.54996 -1.61952e-19 3.12021)
(-6.94182 1.05992e-19 2.57073)
(-7.25005 -5.78434e-20 1.94179)
(-7.45106 5.88991e-20 1.23998)
(-7.52044 -5.71008e-20 0.480702)
(-7.43249 8.77651e-22 -0.31106)
(-7.21052 0 -1.09877)
(-6.86631 -2.49863e-20 -1.85202)
(-6.41393 -2.25783e-20 -2.56408)
(-5.86275 -3.90966e-20 -3.24176)
(-5.21461 0 -3.89596)
(-4.46975 1.34098e-20 -4.53225)
(-3.63746 1.18804e-21 -5.14995)
(-2.74314 7.11614e-21 -5.74658)
(-1.84893 -5.34662e-21 -6.33015)
(-1.06306 -2.98636e-21 -6.9241)
(-0.401462 -1.87055e-21 -7.39428)
(0.172539 0 5.55315)
(-0.222761 -5.11157e-19 5.56773)
(-0.673385 5.33955e-19 5.55661)
(-1.02773 -6.69603e-20 5.55488)
(-1.41118 -3.55866e-20 5.53895)
(-1.80129 3.67609e-20 5.50097)
(-2.20673 -3.83203e-20 5.43181)
(-2.62793 0 5.32375)
(-3.06338 -1.74982e-19 5.16884)
(-3.50897 1.70587e-19 4.95901)
(-3.95808 0 4.68595)
(-4.40163 2.56711e-19 4.34121)
(-4.8278 -2.01834e-19 3.91661)
(-5.22168 1.13905e-19 3.40496)
(-5.56463 -5.52281e-20 2.80114)
(-5.83374 -6.02926e-20 2.10389)
(-6.00303 -8.79231e-25 1.32009)
(-6.04433 6.14455e-20 0.470123)
(-5.92612 -5.8154e-20 -0.412484)
(-5.69374 2.8199e-20 -1.27956)
(-5.35713 4.9935e-20 -2.09498)
(-4.9352 -2.47337e-20 -2.85691)
(-4.43717 2.00569e-20 -3.57871)
(-3.86285 0 -4.27542)
(-3.21073 0 -4.95111)
(-2.48868 1.26909e-21 -5.59787)
(-1.72517 -9.988e-21 -6.19968)
(-0.975613 4.46214e-22 -6.74922)
(-0.333694 3.11654e-21 -7.25181)
(0.166591 1.99451e-21 -7.57949)
(0.188158 0 5.89448)
(-0.122604 -2.82741e-19 5.87534)
(-0.395459 -1.21e-20 5.85808)
(-0.596025 -1.1982e-20 5.85469)
(-0.846591 3.1962e-19 5.84128)
(-1.11123 -1.92525e-19 5.80912)
(-1.39962 2.72034e-20 5.74647)
(-1.71017 1.16895e-19 5.64391)
(-2.04083 1.81192e-19 5.49182)
(-2.38734 -1.76745e-19 5.28047)
(-2.74358 1.54047e-19 5.00028)
(-3.10153 -2.51178e-19 4.64137)
(-3.45084 -5.39867e-20 4.19388)
(-3.77839 0 3.64885)
(-4.06739 6.04408e-20 2.9991)
(-4.29526 0 2.24098)
(-4.43277 -2.84712e-22 1.38)
(-4.44684 -6.13681e-20 0.442326)
(-4.29685 -6.20458e-20 -0.5257)
(-4.06243 0 -1.46124)
(-3.74392 2.68595e-20 -2.32402)
(-3.36286 2.36894e-20 -3.12082)
(-2.92683 -2.14885e-20 -3.87383)
(-2.43235 1.85261e-20 -4.60317)
(-1.87691 0 -5.31044)
(-1.26506 -1.23633e-20 -5.9799)
(-0.631082 4.86265e-22 -6.57893)
(-0.0191001 -4.74637e-22 -7.09488)
(0.492678 0 -7.50817)
(0.852956 2.32757e-21 -7.71494)
(0.188744 3.72499e-20 6.00889)
(-0.0272914 0 5.99334)
(-0.102398 4.44669e-21 5.99936)
(-0.141 -7.46604e-20 6.01479)
(-0.251492 7.28684e-20 6.01973)
(-0.383425 4.84751e-21 6.00576)
(-0.548446 -5.06075e-21 5.95953)
(-0.742137 4.19236e-20 5.87063)
(-0.961688 -2.0905e-19 5.72846)
(-1.20217 1.82118e-19 5.52257)
(-1.45763 4.98683e-20 5.24246)
(-1.72125 -8.10707e-22 4.87701)
(-1.98435 5.67446e-20 4.41501)
(-2.23621 0 3.84559)
(-2.46339 1.00009e-21 3.15911)
(-2.64525 6.49867e-20 2.34894)
(-2.74726 -6.54998e-20 1.41745)
(-2.72984 3.96315e-22 0.395661)
(-2.54932 -9.39429e-22 -0.649602)
(-2.33099 0 -1.63893)
(-2.04733 -2.71851e-20 -2.53358)
(-1.7202 0 -3.35242)
(-1.35557 4.3859e-20 -4.12508)
(-0.945512 -2.30808e-20 -4.87854)
(-0.487772 4.28562e-21 -5.61057)
(0.0163077 3.73783e-20 -6.30063)
(0.526674 1.9772e-20 -6.89139)
(0.994994 1.35279e-20 -7.36138)
(1.39811 3.96933e-23 -7.70076)
(1.64892 -4.75231e-21 -7.81536)
(0.185196 4.12165e-19 5.88948)
(0.0848024 -1.45231e-19 5.91928)
(0.20956 2.51717e-19 5.97473)
(0.328418 -7.17658e-20 6.02849)
(0.362033 0 6.06778)
(0.365719 -4.84116e-21 6.08473)
(0.328054 8.98052e-20 6.0659)
(0.255673 -1.7249e-19 6.00038)
(0.152407 1.10424e-19 5.87726)
(0.022494 1.21599e-20 5.68332)
(-0.126365 0 5.40941)
(-0.287876 1.68106e-19 5.04484)
(-0.455073 -1.69156e-19 4.57708)
(-0.619739 0 3.99418)
(-0.773216 -6.33106e-20 3.2842)
(-0.900216 0 2.43638)
(-0.957307 1.34863e-19 1.44709)
(-0.875414 -6.74872e-20 0.342945)
(-0.690188 0 -0.774499)
(-0.51834 2.99426e-20 -1.8002)
(-0.292742 -1.53374e-20 -2.71258)
(-0.034003 1.23995e-20 -3.54902)
(0.251863 -2.2304e-20 -4.3385)
(0.574292 0 -5.10935)
(0.935725 0 -5.85784)
(1.32185 -2.53807e-20 -6.54417)
(1.71585 -1.91129e-20 -7.12427)
(2.07298 -2.68573e-20 -7.5655)
(2.38122 8.16939e-23 -7.8453)
(2.53062 2.42369e-21 -7.8832)
(0.19978 -7.3755e-19 5.55223)
(0.239338 0 5.66642)
(0.545932 -3.55823e-20 5.79027)
(0.810409 1.47711e-19 5.89808)
(0.985137 -1.44243e-19 5.98523)
(1.12027 0 6.04372)
(1.20795 -2.0963e-20 6.06071)
(1.25581 2.04846e-20 6.02491)
(1.26931 2.81869e-21 5.92571)
(1.2538 -1.79955e-20 5.7508)
(1.2161 -4.91489e-20 5.4901)
(1.16244 2.72043e-20 5.13307)
(1.09944 -5.97854e-20 4.66757)
(1.03402 2.84917e-20 4.08141)
(0.971669 0 3.36208)
(0.921052 1.00421e-19 2.49628)
(0.929677 -1.69009e-19 1.46708)
(1.08591 6.79006e-20 0.291262)
(1.23331 3.28117e-20 -0.873891)
(1.34196 1.49542e-20 -1.92294)
(1.48609 1.36964e-20 -2.84708)
(1.6561 -2.52377e-20 -3.68339)
(1.85413 5.30566e-21 -4.48241)
(2.08901 3.1419e-20 -5.27092)
(2.35949 2.18227e-21 -6.03453)
(2.65174 0 -6.72976)
(2.9473 0 -7.30328)
(3.20441 1.34549e-20 -7.71607)
(3.42296 8.00836e-21 -7.94343)
(3.47522 2.49088e-21 -7.91896)
(0.253163 2.30481e-21 5.02867)
(0.454222 0 5.26007)
(0.913123 0 5.46369)
(1.30756 0 5.63414)
(1.61423 0 5.77918)
(1.87242 0 5.88862)
(2.07877 0 5.94897)
(2.24162 0 5.94889)
(2.36794 -3.70303e-20 5.87828)
(2.46386 -2.10815e-20 5.72577)
(2.53589 -6.26765e-21 5.48107)
(2.59031 1.54703e-20 5.13396)
(2.63364 -2.4194e-20 4.67289)
(2.67249 -5.76578e-20 4.08587)
(2.71198 0 3.36037)
(2.75901 -6.55295e-20 2.48233)
(2.84884 6.605e-20 1.44178)
(3.0106 0 0.278861)
(3.12167 -1.96586e-22 -0.900065)
(3.17701 -1.46889e-20 -1.97028)
(3.23826 -2.01734e-20 -2.91082)
(3.32091 -1.84755e-20 -3.76398)
(3.43634 0 -4.58193)
(3.5925 -3.82832e-20 -5.38932)
(3.78471 -3.12772e-20 -6.16754)
(3.99563 -8.93553e-22 -6.86675)
(4.2036 -1.05413e-21 -7.4303)
(4.36979 1.46916e-20 -7.81598)
(4.50343 -7.86132e-21 -7.99759)
(4.46144 4.81936e-23 -7.92234)
(0.348941 -4.73717e-19 4.3022)
(0.74332 -2.56305e-19 4.74512)
(1.31634 1.59879e-19 5.03705)
(1.82171 1.33272e-19 5.26367)
(2.2476 0 5.46828)
(2.61689 0 5.63307)
(2.93028 1.91938e-20 5.74102)
(3.19823 0 5.78048)
(3.42908 1.09391e-20 5.7419)
(3.62939 3.63599e-22 5.6148)
(3.80532 4.06206e-20 5.38917)
(3.96284 -1.20189e-20 5.0551)
(4.10801 5.65295e-20 4.60167)
(4.24673 -2.8965e-20 4.01737)
(4.3834 6.09299e-20 3.28985)
(4.52216 -6.30735e-20 2.40577)
(4.67354 -2.09641e-22 1.36465)
(4.83594 -1.62416e-20 0.213396)
(4.92239 -3.22656e-22 -0.939089)
(4.9324 -1.48845e-20 -1.99263)
(4.92247 0 -2.93243)
(4.92804 2.46056e-20 -3.798)
(4.97286 -6.46703e-22 -4.6369)
(5.0651 3.83131e-20 -5.46621)
(5.19421 3.1817e-20 -6.25905)
(5.33672 -2.55431e-20 -6.96007)
(5.46741 1.94253e-20 -7.51092)
(5.55062 -1.2866e-20 -7.86927)
(5.60335 -6.61723e-22 -8.00972)
(5.46924 -2.58489e-21 -7.89262)
(9.98834 2.19151e-20 0.136761)
(9.97718 2.10896e-20 0.265927)
(9.95636 0 0.393841)
(9.92269 2.0095e-20 0.524281)
(9.87952 -2.77067e-21 0.659219)
(9.8288 -1.84971e-20 0.800241)
(9.77074 -2.53507e-20 0.948871)
(9.70532 2.58279e-20 1.1066)
(9.6327 -1.33013e-20 1.27493)
(9.55314 -1.36989e-20 1.45534)
(9.46689 -1.41047e-20 1.64937)
(9.37418 4.39083e-20 1.85862)
(9.27521 -4.50641e-20 2.08479)
(9.17021 -1.5556e-20 2.32971)
(9.05934 9.52466e-20 2.59541)
(8.94277 -1.13937e-19 2.88416)
(8.82063 3.29994e-20 3.19859)
(8.69295 6.84005e-20 3.54181)
(8.55971 3.4831e-20 3.91757)
(8.42077 -7.07547e-20 4.33055)
(8.27587 7.158e-20 4.78671)
(8.12468 3.62685e-20 5.29395)
(7.96682 0 5.86302)
(7.80216 -3.49904e-20 6.50914)
(7.63155 -8.06875e-22 7.25492)
(7.45984 -3.51526e-20 8.13596)
(7.30146 4.75745e-21 9.21285)
(7.2862 -5.37715e-20 10.5902)
(7.7561 6.81043e-20 12.4551)
(8.18233 0 15.2328)
(9.98881 -2.05839e-20 0.141854)
(9.97925 -2.20834e-20 0.275804)
(9.96122 6.78541e-22 0.408382)
(9.93142 -4.46659e-20 0.543489)
(9.8932 2.3089e-20 0.68313)
(9.84853 0 0.828901)
(9.7977 0 0.982331)
(9.74072 -1.28754e-20 1.14492)
(9.67787 3.87568e-20 1.31815)
(9.6095 1.39558e-22 1.50353)
(9.53601 2.20085e-22 1.70256)
(9.45778 -1.41536e-20 1.91685)
(9.37521 -2.89101e-20 2.14805)
(9.28876 5.9098e-20 2.39799)
(9.19889 -4.53139e-20 2.66866)
(9.10617 -3.02615e-20 2.9623)
(9.0112 -4.80942e-22 3.2815)
(8.91469 3.17733e-20 3.62931)
(8.81752 -6.55765e-20 4.00938)
(8.72081 -3.25068e-20 4.42624)
(8.62612 0 4.88558)
(8.53581 8.23605e-21 5.39482)
(8.45366 7.84765e-21 5.96377)
(8.38624 -1.64881e-20 6.60569)
(8.34571 -5.9379e-20 7.3388)
(8.35698 1.13739e-19 8.18806)
(8.46196 -2.69384e-20 9.18598)
(8.74575 5.40068e-21 10.3645)
(9.438 -1.15724e-21 11.6473)
(10.0208 -4.13315e-22 12.592)
(9.9893 3.97866e-20 0.146453)
(9.98142 0 0.284717)
(9.9663 0 0.421473)
(9.94054 -2.16966e-20 0.560723)
(9.90746 -1.92921e-20 0.704501)
(9.86908 1.98401e-20 0.854401)
(9.82571 0 1.01194)
(9.77746 -5.42931e-20 1.17861)
(9.72467 6.18428e-21 1.35588)
(9.66781 -1.251e-20 1.54521)
(9.60742 1.4434e-22 1.74809)
(9.54401 2.69318e-20 1.96605)
(9.47821 -2.74986e-20 2.20072)
(9.41069 -1.42698e-20 2.45383)
(9.34224 2.92175e-20 2.72728)
(9.27378 2.98584e-20 3.02318)
(9.2064 -2.95435e-20 3.34395)
(9.14145 -3.09618e-20 3.69238)
(9.08061 1.14592e-21 4.07179)
(9.02614 3.16688e-20 4.48614)
(8.98109 -3.83404e-21 4.94024)
(8.94985 -3.89944e-21 5.44004)
(8.939 2.9565e-20 5.99281)
(8.95858 -3.00342e-20 6.60719)
(9.02408 -1.3346e-20 7.29269)
(9.15973 -1.21318e-20 8.05736)
(9.39619 0 8.90079)
(9.75329 -1.36708e-20 9.80607)
(10.3418 1.41149e-20 10.6982)
(11.0458 4.03561e-22 11.294)
(9.98982 -3.8848e-20 0.150502)
(9.98368 1.96971e-20 0.292554)
(9.97156 0 0.432944)
(9.94997 3.26369e-22 0.575754)
(9.92219 -5.77727e-22 0.723032)
(9.89026 -2.2143e-20 0.876364)
(9.85455 0 1.03725)
(9.81523 2.33842e-20 1.20714)