/*--------------------------------*- C++ -*----------------------------------*\
| =========                 |                                                 |
| \\      /  F ield         | OpenFOAM: The Open Source CFD Toolbox           |
|  \\    /   O peration     | Version:  dev                                   |
|   \\  /    A nd           | Web:      www.OpenFOAM.org                      |
|    \\/     M anipulation  |                                                 |
\*---------------------------------------------------------------------------*/
FoamFile
{
    version     2.0;
    format      ascii;
    class       volVectorField;
    location    "2.51";
    object      cellDisplacement;
}
// * * * * * * * * * * * * * * * * * * * * * * * * * * * * * * * * * * * * * //

dimensions      [0 1 0 0 0 0 0];

internalField   nonuniform List<vector> 
465
(
(0.0113648 0 -4.90463e-05)
(0.0324159 0 -0.000140287)
(0.050307 0 -0.000219992)
(0.0653172 0 -0.000289797)
(0.0777584 0 -0.00035162)
(0.0878944 0 -0.000406708)
(0.0959589 0 -0.000455422)
(0.102159 0 -0.000498336)
(0.106675 0 -0.000535664)
(0.109659 0 -0.00056735)
(0.111249 0 -0.000593109)
(0.111563 0 -0.000612416)
(0.110706 0 -0.000624525)
(0.108772 0 -0.000628617)
(0.10585 0 -0.000624824)
(0.102018 0 -0.00060902)
(0.0973475 0 -0.00058074)
(0.0919099 0 -0.000538134)
(0.0857766 0 -0.000478944)
(0.0790207 0 -0.000400556)
(0.0717195 0 -0.000300011)
(0.0113807 0 -0.000147312)
(0.0324649 0 -0.000421376)
(0.0503861 0 -0.000660977)
(0.0654248 0 -0.000870783)
(0.0778989 0 -0.00105672)
(0.0880697 0 -0.00122265)
(0.0961715 0 -0.00136941)
(0.102414 0 -0.00149889)
(0.106976 0 -0.00161173)
(0.110015 0 -0.00170778)
(0.111665 0 -0.00178624)
(0.112047 0 -0.00184554)
(0.111267 0 -0.00188344)
(0.109417 0 -0.00189699)
(0.106592 0 -0.00188278)
(0.102872 0 -0.00183735)
(0.0983276 0 -0.00175562)
(0.093034 0 -0.00163178)
(0.0870656 0 -0.00145924)
(0.0804989 0 -0.0012304)
(0.0734161 0 -0.000936671)
(0.0114122 0 -0.00024606)
(0.0325636 0 -0.000703867)
(0.0505442 0 -0.00110252)
(0.0656392 0 -0.0014525)
(0.0781797 0 -0.00176297)
(0.0884202 0 -0.00204081)
(0.0965958 0 -0.00228642)
(0.102922 0 -0.00250361)
(0.107579 0 -0.00269345)
(0.110723 0 -0.00285575)
(0.112492 0 -0.00298932)
(0.113009 0 -0.00309167)
(0.112382 0 -0.00315919)
(0.110707 0 -0.00318697)
(0.108075 0 -0.00316795)
(0.104574 0 -0.00310017)
(0.100281 0 -0.00297412)
(0.0952735 0 -0.0027804)
(0.0896318 0 -0.00250873)
(0.0834392 0 -0.00214728)
(0.0767859 0 -0.00168274)
(0.0114585 0 -0.000344888)
(0.0326942 0 -0.000986421)
(0.050764 0 -0.00154452)
(0.0659571 0 -0.00203552)
(0.0785991 0 -0.00247113)
(0.0889415 0 -0.00285878)
(0.0972254 0 -0.00320372)
(0.103676 0 -0.00350985)
(0.108472 0 -0.00377847)
(0.111773 0 -0.00400942)
(0.113719 0 -0.00420138)
(0.114436 0 -0.00435117)
(0.114034 0 -0.00445411)
(0.112615 0 -0.0045041)
(0.110274 0 -0.00449377)
(0.107101 0 -0.00441624)
(0.103181 0 -0.00426095)
(0.0985966 0 -0.00401605)
(0.0934395 0 -0.0036688)
(0.0878031 0 -0.00320443)
(0.0817897 0 -0.00260655)
(0.0115197 0 -0.000443249)
(0.0328718 0 -0.00126793)
(0.0510597 0 -0.00198682)
(0.0663762 0 -0.00261945)
(0.0791416 0 -0.00318085)
(0.0896197 0 -0.00367978)
(0.0980565 0 -0.00412623)
(0.104673 0 -0.00452383)
(0.109653 0 -0.00487441)
(0.11316 0 -0.00517797)
(0.11534 0 -0.00543354)
(0.11632 0 -0.0056374)
(0.116215 0 -0.00578415)
(0.115133 0 -0.00586686)
(0.113173 0 -0.00587729)
(0.110432 0 -0.00580625)
(0.107 0 -0.00564188)
(0.10297 0 -0.00537052)
(0.0984459 0 -0.00497892)
(0.0935338 0 -0.00445065)
(0.08835 0 -0.00376796)
(0.0115952 0 -0.000541064)
(0.0330933 0 -0.00154807)
(0.0514259 0 -0.00242697)
(0.0668916 0 -0.00320107)
(0.0798122 0 -0.00388902)
(0.0904597 0 -0.00450357)
(0.0990816 0 -0.00505385)
(0.105901 0 -0.00554586)
(0.111108 0 -0.00598219)
(0.114869 0 -0.00636294)
(0.117336 0 -0.0066884)
(0.118639 0 -0.00695434)
(0.118899 0 -0.00715495)
(0.118229 0 -0.00728291)
(0.116735 0 -0.00732949)
(0.114522 0 -0.00728469)
(0.111689 0 -0.00713601)
(0.108333 0 -0.006868)
(0.104583 0 -0.00647064)
(0.100558 0 -0.00592711)
(0.096396 0 -0.00522137)
(0.0116843 0 -0.000638227)
(0.0333555 0 -0.00182651)
(0.0518584 0 -0.0028647)
(0.0674986 0 -0.00378012)
(0.0806036 0 -0.00459519)
(0.0914498 0 -0.00532642)
(0.100287 0 -0.00598225)
(0.107345 0 -0.00657146)
(0.112818 0 -0.00709746)
(0.116874 0 -0.00755984)
(0.119676 0 -0.00796209)
(0.121357 0 -0.00829896)
(0.122042 0 -0.00856478)
(0.121852 0 -0.00875231)
(0.120901 0 -0.00885302)
(0.119305 0 -0.00885774)
(0.117177 0 -0.00875495)
(0.114626 0 -0.00853084)
(0.111776 0 -0.00817132)
(0.108781 0 -0.00766623)
(0.105796 0 -0.00700287)
(0.0117866 0 -0.000735068)
(0.0336569 0 -0.00210425)
(0.0523547 0 -0.00330172)
(0.0681942 0 -0.00435899)
(0.0815125 0 -0.00530221)
(0.0925812 0 -0.00614855)
(0.10166 0 -0.00691165)
(0.108991 0 -0.00760134)
(0.114765 0 -0.00822195)
(0.119167 0 -0.00877634)
(0.122352 0 -0.00926387)
(0.124462 0 -0.0096819)
(0.12563 0 -0.0100257)
(0.125984 0 -0.0102886)
(0.125645 0 -0.0104627)
(0.124745 0 -0.0105415)
(0.123407 0 -0.0105149)
(0.121764 0 -0.0103728)
(0.119927 0 -0.0100978)
(0.118095 0 -0.00969064)
(0.116436 0 -0.00914347)
(0.0119015 0 -0.000831425)
(0.0339949 0 -0.0023808)
(0.0529104 0 -0.00373734)
(0.0689713 0 -0.0049368)
(0.0825178 0 -0.0060085)
(0.093836 0 -0.00697169)
(0.103195 0 -0.00784545)
(0.11083 0 -0.00863959)
(0.116945 0 -0.00936043)
(0.121729 0 -0.0100133)
(0.125334 0 -0.0105935)
(0.127918 0 -0.0111032)
(0.12962 0 -0.0115383)
(0.130574 0 -0.0118932)
(0.130906 0 -0.0121602)
(0.130771 0 -0.0123388)
(0.1303 0 -0.0124201)
(0.129638 0 -0.0123967)
(0.12893 0 -0.0122601)
(0.128367 0 -0.0120112)
(0.128151 0 -0.0116523)
(0.0120267 0 -0.000926617)
(0.034364 0 -0.00265425)
(0.0535171 0 -0.0041686)
(0.0698194 0 -0.00550974)
(0.0836183 0 -0.00671068)
(0.0952132 0 -0.007795)
(0.104875 0 -0.00878214)
(0.112844 0 -0.00968442)
(0.119328 0 -0.0105098)
(0.124517 0 -0.0112631)
(0.128574 0 -0.0119429)
(0.131672 0 -0.012555)
(0.13395 0 -0.0130951)
(0.135553 0 -0.0135599)
(0.136628 0 -0.013947)
(0.137315 0 -0.0142517)
(0.137775 0 -0.0144731)
(0.138166 0 -0.0146085)
(0.138659 0 -0.0146576)
(0.139464 0 -0.0146295)
(0.140812 0 -0.0145377)
(0.0121609 0 -0.00102046)
(0.0347602 0 -0.00292412)
(0.054169 0 -0.00459481)
(0.0707311 0 -0.00607699)
(0.0848029 0 -0.00740753)
(0.0966939 0 -0.00861353)
(0.10668 0 -0.00971601)
(0.115005 0 -0.0107296)
(0.121883 0 -0.011664)
(0.127505 0 -0.0125251)
(0.132058 0 -0.0133175)
(0.135705 0 -0.0140434)
(0.138596 0 -0.014702)
(0.140887 0 -0.0152931)
(0.142744 0 -0.0158205)
(0.144294 0 -0.0162747)
(0.145733 0 -0.0166671)
(0.147231 0 -0.0170002)
(0.148982 0 -0.0172817)
(0.151211 0 -0.0175288)
(0.154185 0 -0.017772)
(0.0123039 0 -0.00111323)
(0.0351823 0 -0.00319119)
(0.0548639 0 -0.00501724)
(0.0717034 0 -0.00664028)
(0.0860666 0 -0.00810104)
(0.098272 0 -0.00942987)
(0.108602 0 -0.0106499)
(0.117304 0 -0.0117783)
(0.124598 0 -0.0128264)
(0.130684 0 -0.0138026)
(0.135755 0 -0.014715)
(0.139974 0 -0.0155639)
(0.143504 0 -0.016353)
(0.146505 0 -0.0170838)
(0.149159 0 -0.0177658)
(0.151623 0 -0.0183996)
(0.154074 0 -0.018992)
(0.156711 0 -0.019557)
(0.159749 0 -0.020112)
(0.16343 0 -0.0206848)
(0.168053 0 -0.0213213)
(0.0124546 0 -0.00120469)
(0.0356267 0 -0.00345475)
(0.0555954 0 -0.00543477)
(0.0727272 0 -0.00719807)
(0.0873972 0 -0.00878926)
(0.099932 0 -0.0102418)
(0.110621 0 -0.011581)
(0.119719 0 -0.0128273)
(0.127447 0 -0.0139933)
(0.134011 0 -0.0150892)
(0.139604 0 -0.0161229)
(0.144413 0 -0.0171036)
(0.148603 0 -0.0180353)
(0.152349 0 -0.0189255)
(0.155825 0 -0.019781)
(0.159219 0 -0.0206147)
(0.162685 0 -0.0214294)
(0.166472 0 -0.0222562)
(0.170802 0 -0.0231199)
(0.175927 0 -0.0240571)
(0.182204 0 -0.0251403)
(0.01261 0 -0.00129406)
(0.0360862 0 -0.00371267)
(0.056353 0 -0.00584405)
(0.073788 0 -0.00774591)
(0.0887761 0 -0.00946668)
(0.101651 0 -0.0110428)
(0.11271 0 -0.0125019)
(0.122217 0 -0.0138683)
(0.130391 0 -0.0151554)
(0.137444 0 -0.0163757)
(0.143587 0 -0.0175425)
(0.149001 0 -0.0186634)
(0.153863 0 -0.0197482)
(0.158361 0 -0.0208089)
(0.162651 0 -0.021849)
(0.166954 0 -0.0228932)
(0.171455 0 -0.0239567)
(0.176384 0 -0.0250698)
(0.181987 0 -0.0262703)
(0.188543 0 -0.0276097)
(0.19638 0 -0.0291607)
(0.0127688 0 -0.00138108)
(0.0365573 0 -0.00396424)
(0.0571305 0 -0.006244)
(0.0748775 0 -0.00828237)
(0.0901925 0 -0.0101316)
(0.103415 0 -0.011831)
(0.114861 0 -0.0134139)
(0.12479 0 -0.0149031)
(0.133419 0 -0.0163144)
(0.140974 0 -0.0176638)
(0.147673 0 -0.0189688)
(0.153686 0 -0.0202338)
(0.159218 0 -0.0214781)
(0.164448 0 -0.0227134)
(0.169563 0 -0.0239544)
(0.174771 0 -0.0252245)
(0.180275 0 -0.0265487)
(0.186305 0 -0.0279621)
(0.193133 0 -0.0295166)
(0.201044 0 -0.0312742)
(0.21037 0 -0.0333188)
(0.0579404 0 -0.00664276)
(0.0760129 0 -0.00881829)
(0.0916694 0 -0.0107973)
(0.105263 0 -0.0126232)
(0.117111 0 -0.014333)
(0.127465 0 -0.0159471)
(0.136561 0 -0.0174865)
(0.144625 0 -0.0189686)
(0.151878 0 -0.020414)
(0.158514 0 -0.0218356)
(0.164724 0 -0.0232485)
(0.170694 0 -0.02467)
(0.176623 0 -0.0261211)
(0.182716 0 -0.0276275)
(0.189198 0 -0.029225)
(0.196289 0 -0.0309506)
(0.204286 0 -0.0328722)
(0.213457 0 -0.0350544)
(0.224142 0 -0.0375963)
(0.0771986 0 -0.00935691)
(0.0932107 0 -0.0114677)
(0.107187 0 -0.0134218)
(0.119445 0 -0.0152584)
(0.13024 0 -0.0170014)
(0.139815 0 -0.0186737)
(0.148411 0 -0.0202983)
(0.156242 0 -0.0218939)
(0.163509 0 -0.0234795)
(0.170388 0 -0.0250663)
(0.177093 0 -0.0266827)
(0.183826 0 -0.0283531)
(0.190787 0 -0.030106)
(0.198218 0 -0.0319878)
(0.206325 0 -0.0340364)
(0.215382 0 -0.0363194)
(0.22569 0 -0.038923)
(0.237539 0 -0.0419397)
(0.0947871 0 -0.0121311)
(0.109162 0 -0.0142168)
(0.121845 0 -0.0161833)
(0.133091 0 -0.0180574)
(0.14316 0 -0.0198675)
(0.15229 0 -0.0216378)
(0.160683 0 -0.023384)
(0.168559 0 -0.0251326)
(0.176112 0 -0.0269029)
(0.183545 0 -0.0287213)
(0.19105 0 -0.0306147)
(0.198846 0 -0.0326201)
(0.207148 0 -0.0347802)
(0.216171 0 -0.0371431)
(0.22618 0 -0.0397801)
(0.23743 0 -0.0427707)
(0.250243 0 -0.0462306)
(0.111189 0 -0.0150057)
(0.124288 0 -0.0171009)
(0.135985 0 -0.0191066)
(0.146548 0 -0.0210552)
(0.156194 0 -0.0229684)
(0.165156 0 -0.0248712)
(0.173643 0 -0.0267884)
(0.181845 0 -0.0287423)
(0.18996 0 -0.0307596)
(0.198198 0 -0.0328758)
(0.206764 0 -0.0351279)
(0.215839 0 -0.0375535)
(0.225659 0 -0.0402118)
(0.236473 0 -0.0431771)
(0.248477 0 -0.0465167)
(0.261959 0 -0.0503453)
(0.126738 0 -0.017999)
(0.138895 0 -0.0201389)
(0.14995 0 -0.0222269)
(0.160115 0 -0.0242855)
(0.169627 0 -0.0263436)
(0.178688 0 -0.0284251)
(0.187505 0 -0.0305594)
(0.196266 0 -0.032773)
(0.205175 0 -0.0351039)
(0.214416 0 -0.0375865)
(0.224169 0 -0.0402614)
(0.234673 0 -0.0431953)
(0.246082 0 -0.0464366)
(0.258627 0 -0.0500706)
(0.272469 0 -0.0541755)
(0.141807 0 -0.0211473)
(0.153332 0 -0.0233707)
(0.163993 0 -0.025571)
(0.174032 0 -0.027781)
(0.183648 0 -0.0300252)
(0.193039 0 -0.0323345)
(0.202391 0 -0.0347364)
(0.211888 0 -0.0372651)
(0.221718 0 -0.0399615)
(0.232037 0 -0.0428617)
(0.243057 0 -0.046028)
(0.254881 0 -0.0494969)
(0.267733 0 -0.0533541)
(0.281655 0 -0.057642)
(0.167799 0 -0.0268119)
(0.178336 0 -0.0291688)
(0.188466 0 -0.031569)
(0.198378 0 -0.0340411)
(0.208251 0 -0.0366169)
(0.218253 0 -0.0393256)
(0.228565 0 -0.0422095)
(0.239331 0 -0.0453041)
(0.250696 0 -0.0486538)
(0.262764 0 -0.0522977)
(0.275685 0 -0.0562984)
(0.289426 0 -0.0606718)
(0.182488 0 -0.0304867)
(0.193084 0 -0.0330317)
(0.203453 0 -0.0356531)
(0.213773 0 -0.0383835)
(0.224206 0 -0.0412542)
(0.234894 0 -0.0442969)
(0.245965 0 -0.0475449)
(0.257523 0 -0.0510303)
(0.269646 0 -0.0547847)
(0.282421 0 -0.0588495)
(0.295755 0 -0.0632151)
(0.208224 0 -0.0371479)
(0.21891 0 -0.0400113)
(0.229675 0 -0.043016)
(0.240625 0 -0.0461836)
(0.251866 0 -0.0495415)
(0.263467 0 -0.0531112)
(0.27548 0 -0.0569146)
(0.287908 0 -0.0609631)
(0.300649 0 -0.0652378)
(0.234598 0 -0.0445767)
(0.245697 0 -0.0478326)
(0.256978 0 -0.0512561)
(0.268482 0 -0.0548582)
(0.280218 0 -0.058645)
(0.292159 0 -0.0626141)
(0.304233 0 -0.0667512)
(0.250065 0 -0.0492113)
(0.261256 0 -0.0526529)
(0.272527 0 -0.0562348)
(0.283881 0 -0.0599579)
(0.295284 0 -0.0638138)
(0.306664 0 -0.0677841)
(0.275639 0 -0.0572305)
(0.286561 0 -0.0608602)
(0.2974 0 -0.0645786)
(0.308089 0 -0.0683647)
(0.298621 0 -0.0649253)
(0.308641 0 -0.0685179)
)
;

boundaryField
{
    inlet
    {
        type            cellMotion;
        value           uniform (0 0 0);
    }
    outlet
    {
        type            cellMotion;
        value           nonuniform 0();
    }
    flap
    {
        type            cellMotion;
        value           nonuniform 0();
    }
    upperWall
    {
        type            slip;
    }
    lowerWall
    {
        type            slip;
    }
    frontAndBack
    {
        type            empty;
    }
    procBoundary3to0
    {
        type            processor;
        value           nonuniform List<vector> 
34
(
(0.012934 0 -0.00146752)
(0.037047 0 -0.00421448)
(0.037047 0 -0.00421448)
(0.0587849 0 -0.00704248)
(0.0587849 0 -0.00704248)
(0.0784119 0 -0.00988853)
(0.0784119 0 -0.00988853)
(0.0964091 0 -0.012788)
(0.0964091 0 -0.012788)
(0.113223 0 -0.0157757)
(0.113223 0 -0.0157757)
(0.1292 0 -0.0188756)
(0.1292 0 -0.0188756)
(0.144669 0 -0.0221167)
(0.156657 0 -0.024473)
(0.156657 0 -0.024473)
(0.171486 0 -0.0279919)
(0.171486 0 -0.0279919)
(0.186436 0 -0.0317139)
(0.197447 0 -0.0343899)
(0.197447 0 -0.0343899)
(0.21262 0 -0.0384937)
(0.223594 0 -0.0414673)
(0.223594 0 -0.0414673)
(0.238928 0 -0.0459059)
(0.238928 0 -0.0459059)
(0.253669 0 -0.0502825)
(0.264672 0 -0.0537027)
(0.264672 0 -0.0537027)
(0.277889 0 -0.0578471)
(0.288351 0 -0.061361)
(0.288351 0 -0.061361)
(0.299055 0 -0.064869)
(0.308434 0 -0.0682637)
)
;
    }
    procBoundary3to1
    {
        type            processor;
        value           nonuniform List<vector> 9((0.287705 0 -0.0588246) (0.296683 0 -0.0624127) (0.303963 0 -0.0654455) (0.309561 0 -0.0678814) (0.313613 0 -0.069729) (0.316335 0 -0.0710344) (0.317921 0 -0.0718418) (0.31854 0 -0.0721902) (0.318337 0 -0.0721116));
    }
    procBoundary3to4
    {
        type            processor;
        value           nonuniform List<vector> 
19
(
(0.0639582 0 -0.000174032)
(0.0659087 0 -0.000568543)
(0.069773 0 -0.00110052)
(0.0755175 0 -0.00185781)
(0.0830238 0 -0.00291196)
(0.092241 0 -0.0043359)
(0.103005 0 -0.00617281)
(0.115165 0 -0.00845675)
(0.128567 0 -0.0112066)
(0.142984 0 -0.0144117)
(0.158197 0 -0.0180528)
(0.173932 0 -0.0220787)
(0.189952 0 -0.0264386)
(0.205922 0 -0.0310381)
(0.22151 0 -0.03577)
(0.236722 0 -0.0406251)
(0.251324 0 -0.0455169)
(0.264862 0 -0.050268)
(0.277057 0 -0.0547444)
)
;
    }
}


// ************************************************************************* //
