/*--------------------------------*- C++ -*----------------------------------*\
| =========                 |                                                 |
| \\      /  F ield         | OpenFOAM: The Open Source CFD Toolbox           |
|  \\    /   O peration     | Version:  dev                                   |
|   \\  /    A nd           | Web:      www.OpenFOAM.org                      |
|    \\/     M anipulation  |                                                 |
\*---------------------------------------------------------------------------*/
FoamFile
{
    version     2.0;
    format      ascii;
    class       volVectorField;
    location    "1.07";
    object      U;
}
// * * * * * * * * * * * * * * * * * * * * * * * * * * * * * * * * * * * * * //

dimensions      [0 1 -1 0 0 0 0];

internalField   nonuniform List<vector> 
2790
(
(9.93255 0 0.0185079)
(9.86329 4.63418e-20 0.0253663)
(9.77025 0 0.0297878)
(9.6578 -5.05778e-20 0.0343961)
(9.53213 0 0.0392142)
(9.39484 0 0.0441903)
(9.24527 2.8792e-20 0.0494413)
(9.08248 -3.01427e-20 0.0551043)
(8.90573 1.55949e-20 0.0612911)
(8.71427 -4.92143e-20 0.0681038)
(8.5072 -2.4744e-22 0.0756508)
(8.28347 -3.60939e-20 0.084051)
(8.0419 -6.15951e-22 0.0934355)
(7.78122 7.74816e-20 0.103949)
(7.50003 0 0.115748)
(7.19685 1.70718e-19 0.129005)
(6.87015 -1.7669e-19 0.143905)
(6.51837 -4.63738e-20 0.16064)
(6.14 0 0.179404)
(5.73357 0 0.200393)
(5.29784 0 0.223786)
(4.83183 0 0.249739)
(4.33501 0 0.278369)
(3.80741 0 0.309763)
(3.24978 9.94374e-19 0.343967)
(2.66369 -1.01787e-18 0.380947)
(2.05159 7.87994e-19 0.420357)
(1.41646 -1.05722e-18 0.46034)
(0.750435 0 0.484734)
(0.123871 1.12893e-18 0.227007)
(9.99787 0 0.0361681)
(9.98971 -1.38817e-19 0.0513147)
(9.9591 0 0.0618754)
(9.90691 5.04614e-20 0.0734099)
(9.83838 -5.26595e-20 0.0859476)
(9.75534 0 0.0992815)
(9.65741 -2.86727e-20 0.113628)
(9.54384 5.99764e-20 0.129282)
(9.41402 -4.65915e-20 0.146492)
(9.2673 1.6262e-20 0.165489)
(9.1029 0 0.186522)
(8.91988 0 0.209871)
(8.71714 9.22154e-21 0.235839)
(8.49347 0 0.264761)
(8.24752 2.00816e-20 0.296989)
(7.97784 -3.37286e-19 0.332895)
(7.68288 3.48706e-19 0.372859)
(7.36101 7.81108e-19 0.417249)
(7.01059 -7.59818e-19 0.466382)
(6.62994 9.94731e-20 0.520502)
(6.21748 0 0.579743)
(5.77175 0 0.644058)
(5.29151 0 0.713151)
(4.7758 -2.33068e-19 0.786412)
(4.22383 0 0.862878)
(3.6349 0 0.941051)
(3.0079 -2.53032e-19 1.01832)
(2.34009 5.13242e-19 1.08924)
(1.59662 -5.07336e-19 1.146)
(0.927499 -2.19219e-18 1.16)
(9.99519 1.77981e-19 0.0362903)
(9.98464 9.24739e-20 0.0578361)
(9.95666 0 0.0754033)
(9.90951 0 0.0943999)
(9.84719 5.26022e-20 0.115124)
(9.77164 0 0.13738)
(9.6827 1.71926e-19 0.161436)
(9.57973 -1.78627e-19 0.187701)
(9.46222 0 0.216555)
(9.32963 0 0.248368)
(9.18131 0 0.283546)
(9.01647 -3.18051e-19 0.322544)
(8.83419 2.83398e-19 0.365868)
(8.63341 0 0.41408)
(8.41296 -3.99077e-20 0.467786)
(8.17154 4.15727e-20 0.527632)
(7.9077 0 0.594293)
(7.61991 7.27637e-19 0.668446)
(7.3065 -7.50952e-19 0.750724)
(6.96567 -2.94586e-19 0.841655)
(6.59552 0 0.941625)
(6.19397 0 1.05079)
(5.75882 4.40244e-19 1.16895)
(5.28765 2.28844e-19 1.29545)
(4.77734 0 1.42904)
(4.22353 3.87953e-18 1.56794)
(3.61904 -4.41316e-18 1.70969)
(2.95209 -4.97901e-19 1.85062)
(2.18278 8.36103e-18 1.9858)
(1.34489 -7.46354e-18 2.16873)
(9.9933 -1.77854e-19 0.0386599)
(9.98028 0 0.0682823)
(9.95214 0 0.0943195)
(9.90608 5.03879e-20 0.121185)
(9.84517 -1.57594e-19 0.149784)
(9.77136 -1.56733e-22 0.180254)
(9.68469 -5.70966e-20 0.213003)
(9.5847 2.98127e-19 0.248572)
(9.47096 1.46721e-21 0.287488)
(9.3431 -2.57546e-19 0.330271)
(9.20065 0 0.377474)
(9.04305 -2.46419e-19 0.429715)
(8.86961 2.72784e-19 0.487683)
(8.67956 -6.11321e-19 0.552142)
(8.47206 1.43143e-20 0.623931)
(8.24614 5.75133e-19 0.70396)
(8.00074 8.58572e-20 0.793202)
(7.73464 -1.3503e-18 0.892672)
(7.44653 -1.43833e-20 1.0034)
(7.13488 1.73774e-18 1.12634)
(6.79787 0 1.26233)
(6.43332 -3.35785e-18 1.41203)
(6.03856 2.57931e-18 1.5758)
(5.61017 0 1.75367)
(5.14344 -4.14124e-18 1.94515)
(4.63128 4.67286e-18 2.14925)
(4.0627 -6.66865e-18 2.36522)
(3.4201 7.61874e-18 2.59425)
(2.69464 -9.36741e-19 2.8161)
(1.73064 0 3.18927)
(9.99231 3.76874e-19 0.0425897)
(9.97777 2.30743e-20 0.0789067)
(9.94935 -2.40375e-19 0.112183)
(9.9041 0 0.146009)
(9.84443 -3.14287e-19 0.181752)
(9.77215 1.0911e-19 0.219892)
(9.68739 -1.1373e-19 0.260953)
(9.58976 -1.18478e-19 0.30555)
(9.4789 -2.4774e-19 0.354295)
(9.3545 3.20686e-19 0.4078)
(9.21622 0 0.46672)
(9.06362 0 0.53178)
(8.89619 6.01028e-19 0.603792)
(8.71338 -5.83116e-19 0.683664)
(8.51458 -9.81242e-21 0.772402)
(8.29915 -1.27392e-18 0.871106)
(8.06633 2.63841e-18 0.980976)
(7.81532 -1.4981e-18 1.10331)
(7.54515 1.83424e-19 1.23948)
(7.25471 1.72455e-18 1.39088)
(6.94253 -1.3789e-18 1.55886)
(6.60669 -3.29074e-18 1.74472)
(6.24454 7.18785e-18 1.9496)
(5.85241 -3.46563e-18 2.17448)
(5.42504 4.47204e-19 2.42016)
(4.95451 -9.11003e-19 2.68713)
(4.42951 7.33089e-18 2.97548)
(3.82603 -6.83898e-18 3.29152)
(3.19762 9.06269e-19 3.5755)
(2.13869 7.95291e-18 4.12551)
(9.99181 -4.05669e-22 0.0472918)
(9.97642 -4.13561e-19 0.089586)
(9.94797 2.4002e-19 0.129667)
(9.90365 0 0.170441)
(9.84548 2.09002e-19 0.21338)
(9.77506 1.08925e-19 0.25919)
(9.69255 1.1348e-19 0.308493)
(9.59761 -6.6104e-22 0.361961)
(9.48992 2.45237e-19 0.420277)
(9.36923 -5.77498e-19 0.484131)
(9.23526 5.30919e-19 0.554271)
(9.08769 0 0.631523)
(8.92612 0 0.71681)
(8.75013 -1.87539e-20 0.81116)
(8.5593 1.218e-20 0.91572)
(8.35317 0 1.03175)
(8.13126 1.35133e-18 1.16063)
(7.89303 -1.47793e-18 1.30388)
(7.63783 -9.56563e-22 1.46319)
(7.36488 -1.11141e-21 1.64033)
(7.07313 -3.8798e-19 1.83719)
(6.76102 0 2.0557)
(6.42629 4.10313e-19 2.29788)
(6.0656 0 2.56575)
(5.67394 -6.91266e-18 2.86123)
(5.24382 1.39667e-17 3.18608)
(4.76668 1.38785e-20 3.53951)
(4.20654 -5.49539e-19 3.93384)
(3.70049 -5.0351e-20 4.24715)
(2.56667 -7.66903e-18 4.93775)
(9.9916 -3.3138e-19 0.0523736)
(9.97584 2.34277e-20 0.10031)
(9.94764 -4.78331e-20 0.146818)
(9.90445 0 0.194313)
(9.848 2.08082e-19 0.244212)
(9.77975 0 0.297396)
(9.69986 0 0.354608)
(9.60802 -1.1767e-19 0.416595)
(9.50396 4.90709e-19 0.484102)
(9.38749 -5.07499e-19 0.557896)
(9.25838 -1.32116e-19 0.638801)
(9.11638 5.51964e-19 0.72773)
(8.9612 -6.4098e-19 0.825691)
(8.79253 -3.70416e-20 0.933809)
(8.61005 1.21621e-18 1.05334)
(8.41345 -1.27483e-18 1.18568)
(8.20245 0 1.33237)
(7.97669 8.61918e-20 1.49511)
(7.73578 -1.78488e-19 1.67585)
(7.47918 2.77023e-18 1.87671)
(7.20616 -2.83465e-18 2.10006)
(6.91562 1.9444e-19 2.3484)
(6.60578 -4.02409e-19 2.62457)
(6.27393 6.96938e-18 2.93159)
(5.91591 -7.04773e-18 3.27224)
(5.52474 6.70895e-18 3.64889)
(5.09663 -2.45e-21 4.05784)
(4.57641 -6.32171e-18 4.52017)
(4.19436 8.05042e-19 4.83702)
(2.99922 0 5.62631)
(9.9916 -3.52042e-19 0.0576063)
(9.97577 3.66076e-19 0.11098)
(9.94809 -3.81506e-19 0.163557)
(9.90621 0 0.217476)
(9.85172 -2.0765e-19 0.274071)
(9.78594 -2.1591e-19 0.33435)
(9.70901 2.25441e-19 0.399173)
(9.62067 2.35683e-19 0.469357)
(9.52069 -4.85356e-19 0.545699)
(9.40893 0 0.629019)
(9.28523 -3.95503e-19 0.720211)
(9.14942 5.43919e-19 0.820262)
(9.00128 -1.06574e-18 0.930261)
(8.84061 1.2081e-18 1.05142)
(8.66718 1.24222e-18 1.1851)
(8.48079 9.23789e-21 1.33279)
(8.28129 -1.30289e-18 1.49616)
(8.06849 0 1.67712)
(7.8422 -2.89115e-18 1.87782)
(7.60207 2.87049e-18 2.10071)
(7.34765 0 2.34852)
(7.07823 -3.23928e-18 2.62433)
(6.79251 3.09796e-18 2.93163)
(6.48852 -6.72705e-18 3.27426)
(6.16309 6.88252e-18 3.65566)
(5.80932 3.10685e-21 4.07846)
(5.42892 1.97708e-19 4.53403)
(4.94143 5.78722e-19 5.05577)
(4.67023 -7.82402e-19 5.3643)
(3.42268 0 6.21902)
(9.99176 3.51516e-19 0.0628425)
(9.97604 0 0.121501)
(9.9491 4.76062e-19 0.179809)
(9.90878 -9.90897e-20 0.239825)
(9.85649 4.12993e-19 0.302836)
(9.79344 4.03512e-22 0.36992)
(9.71979 0 0.442031)
(9.63531 4.66516e-19 0.520051)
(9.53983 -7.23869e-19 0.604823)
(9.43324 -2.50719e-19 0.697209)
(9.31547 0 0.798163)
(9.18642 0 0.90874)
(9.04595 0 1.0301)
(8.89394 0 1.16354)
(8.73028 0 1.3105)
(8.55487 -7.75875e-20 1.47257)
(8.36764 0 1.65154)
(8.16855 0 1.84947)
(7.9576 8.58175e-20 2.06874)
(7.73464 -4.37806e-20 2.31205)
(7.49948 -2.89358e-18 2.58251)
(7.25167 -2.94237e-18 2.88363)
(6.99032 -4.66382e-20 3.21949)
(6.71419 5.89975e-21 3.59462)
(6.42079 -9.63475e-20 4.01295)
(6.10297 -3.01161e-21 4.47744)
(5.76796 -1.91312e-19 4.97312)
(5.30596 -2.22316e-18 5.54854)
(5.12746 0 5.85097)
(3.83369 0 6.7544)
(9.99195 -6.55882e-19 0.0679808)
(9.97662 -4.08595e-19 0.131779)
(9.95066 -4.73751e-19 0.195499)
(9.91208 4.93598e-19 0.261265)
(9.86217 -2.05848e-19 0.330388)
(9.8021 2.13839e-19 0.403966)
(9.73204 2.22249e-19 0.483015)
(9.65177 0 0.568485)
(9.56117 -4.80882e-19 0.661253)
(9.46018 1.49535e-18 0.76221)
(9.34882 -1.03387e-18 0.872364)
(9.22705 1.6086e-18 0.992831)
(9.09481 -1.10622e-18 1.12482)
(8.95207 1.15155e-18 1.26971)
(8.79884 -1.18333e-18 1.42904)
(8.63512 -1.07635e-18 1.60447)
(8.46093 1.26035e-18 1.7979)
(8.27636 0 2.01152)
(8.08158 2.68339e-18 2.24789)
(7.87671 5.70264e-20 2.51)
(7.66177 -5.60926e-18 2.80128)
(7.43659 2.87102e-18 3.12566)
(7.20057 5.8462e-20 3.48769)
(6.95292 -5.84015e-18 3.89251)
(6.69177 0 4.34455)
(6.4092 0 4.84749)
(6.11804 1.41929e-18 5.38007)
(5.67682 5.63497e-18 6.00629)
(5.5721 -5.62603e-18 6.31756)
(4.23777 0 7.27102)
(9.99201 1.43931e-18 0.0729588)
(9.97746 -4.0646e-19 0.141692)
(9.9528 7.00114e-22 0.210535)
(9.91606 -3.94e-19 0.281733)
(9.86866 2.05208e-19 0.356639)
(9.81177 -6.39374e-19 0.43636)
(9.74555 8.8595e-19 0.521964)
(9.66982 -4.58845e-19 0.614465)
(9.58445 9.54947e-19 0.714761)
(9.48946 -7.40944e-19 0.823757)
(9.38492 0 0.942512)
(9.2709 0 1.0722)
(9.1474 0 1.21406)
(9.01447 0 1.36955)
(8.87225 1.45808e-19 1.54029)
(8.72086 7.46696e-20 1.72801)
(8.56044 0 1.9347)
(8.3912 0 2.16265)
(8.21346 -2.78226e-18 2.41459)
(8.02753 2.66612e-18 2.69373)
(7.83391 0 3.00389)
(7.63259 -3.4307e-19 3.34939)
(7.42322 0 3.73524)
(7.20529 -5.585e-18 4.16713)
(6.97784 4.88776e-18 4.65017)
(6.7315 0 5.18923)
(6.48441 -1.37055e-18 5.75873)
(6.06472 1.34482e-18 6.43611)
(6.01815 2.61101e-18 6.78389)
(4.6472 1.19275e-17 7.81584)
(9.99201 -6.95952e-19 0.0777428)
(9.97843 7.22293e-19 0.151132)
(9.95529 7.52423e-19 0.224826)
(9.92055 0 0.301167)
(9.87582 4.07332e-19 0.381515)
(9.82228 2.12301e-19 0.466988)
(9.76013 -2.20875e-19 0.558726)
(9.68919 -4.57586e-19 0.657809)
(9.60938 -4.75301e-19 0.765146)
(9.52072 -2.46874e-19 0.881634)
(9.42335 -5.10966e-19 1.00837)
(9.31754 1.04679e-18 1.14657)
(9.20327 2.70276e-19 1.29752)
(9.08059 -2.78772e-19 1.46273)
(8.94985 1.01053e-18 1.64386)
(8.81134 -1.33112e-18 1.84272)
(8.66532 0 2.06138)
(8.51215 -3.10618e-19 2.30223)
(8.35227 4.77462e-19 2.56811)
(8.18614 0 2.86238)
(8.01477 -3.279e-19 3.18923)
(7.83839 5.66269e-18 3.55345)
(7.65711 0 3.96049)
(7.47067 -6.62738e-19 4.41653)
(7.27942 7.2568e-18 4.92769)
(7.07252 -5.23668e-18 5.50058)
(6.87258 0 6.109)
(6.48561 -2.45609e-18 6.84053)
(6.49143 -7.4561e-18 7.26413)
(5.09112 1.6753e-17 8.43794)
(9.99211 6.91928e-19 0.0822993)
(9.97951 -8.07871e-19 0.160044)
(9.95799 -3.75145e-19 0.238303)
(9.92545 2.92723e-19 0.319488)
(9.88358 -2.03593e-19 0.404929)
(9.83359 -4.22176e-19 0.495758)
(9.77568 -1.251e-21 0.593197)
(9.70974 4.54329e-19 0.698396)
(9.63574 -2.33611e-19 0.812261)
(9.55371 7.30486e-19 0.935672)
(9.46382 -2.50698e-19 1.06973)
(9.36651 0 1.21569)
(9.26179 -2.68225e-19 1.37491)
(9.14977 -1.10345e-18 1.54893)
(9.03097 1.13162e-18 1.73942)
(8.90578 -2.3337e-18 1.94819)
(8.77464 2.6792e-18 2.17742)
(8.6381 -1.83373e-18 2.42961)
(8.49674 1.86159e-18 2.70768)
(8.35143 0 3.01513)
(8.20307 3.21257e-19 3.35626)
(8.05253 3.20952e-18 3.73637)
(7.90095 0 4.16134)
(7.74827 6.43868e-19 4.63779)
(7.59627 -1.27109e-18 5.17297)
(7.43407 -4.88684e-18 5.77567)
(7.2888 1.03052e-19 6.42439)
(6.95841 7.12368e-18 7.2116)
(7.0327 0 7.75349)
(5.61962 0 9.16964)
(9.99226 -6.47454e-19 0.0865941)
(9.98067 6.71757e-19 0.168396)
(9.96086 0 0.250907)
(9.93069 0 0.336609)
(9.8919 -8.07184e-19 0.426784)
(9.84564 4.18477e-19 0.522577)
(9.79212 0 0.625283)
(9.73133 0 0.736108)
(9.66334 0 0.855948)
(9.58815 1.44573e-18 0.985673)
(9.50604 -1.24195e-18 1.12638)
(9.41749 -1.02788e-18 1.27934)
(9.32251 1.3181e-18 1.44598)
(9.22147 1.56301e-21 1.62784)
(9.11499 -1.11792e-18 1.82657)
(9.00347 1.14161e-18 2.04399)
(8.8875 -2.63546e-18 2.28234)
(8.76801 1.78559e-18 2.54422)
(8.64566 9.07577e-19 2.83253)
(8.52178 -6.10349e-19 3.15095)
(8.39711 0 3.50376)
(8.27353 2.47348e-18 3.89648)
(8.15321 4.92381e-18 4.33529)
(8.03661 -4.08938e-20 4.82721)
(7.92744 -3.62832e-18 5.38029)
(7.81695 0 6.00505)
(7.73838 -4.44016e-18 6.68894)
(7.50087 1.09055e-17 7.52355)
(7.68635 -2.31742e-18 8.21559)
(6.30149 0 10.0319)
(9.99246 -6.86233e-19 0.0906049)
(9.98189 8.00942e-19 0.176159)
(9.96385 -9.2767e-20 0.262584)
(9.9362 0 0.352442)
(9.90067 1.04775e-21 0.446982)
(9.85829 -4.1712e-19 0.547353)
(9.80928 0 0.654897)
(9.75383 0 0.770847)
(9.69205 4.61215e-19 0.8961)
(9.62391 -4.78133e-19 1.03153)
(9.54984 4.91119e-19 1.17822)
(9.47024 -1.01586e-18 1.33745)
(9.3852 7.79918e-19 1.51065)
(9.29532 8.02595e-19 1.69936)
(9.20133 -2.19933e-18 1.90522)
(9.1037 -5.86544e-21 2.13005)
(9.00308 2.28943e-18 2.37606)
(8.90086 2.92822e-19 2.64588)
(8.7978 -5.94023e-19 2.94245)
(8.69529 1.19356e-18 3.26938)
(8.5947 2.99023e-18 3.63091)
(8.49894 -6.03177e-19 4.03244)
(8.41068 0 4.48008)
(8.3319 4.64911e-18 4.98094)
(8.26896 -5.75691e-18 5.54293)
(8.2175 -4.36906e-18 6.17639)
(8.21885 6.43724e-18 6.87756)
(8.11713 1.90944e-18 7.72709)
(8.48441 -6.24182e-18 8.55245)
(7.22406 0 11.0952)
(0.294899 0 -0.263657)
(0.621719 0 -0.191781)
(0.957032 0 -0.134398)
(1.2743 1.62538e-19 -0.0996138)
(1.56707 -1.58812e-19 -0.0790221)
(1.80724 0 -0.0618661)
(1.96734 1.61841e-19 -0.0409474)
(2.02626 -8.4385e-20 -0.0142921)
(1.9767 8.17055e-20 0.0150445)
(1.83778 -1.68364e-19 0.0421371)
(1.62787 8.20312e-20 0.0647104)
(1.36457 0 0.0814453)
(1.06653 -7.72027e-20 0.0912448)
(0.751142 -3.61263e-20 0.0942031)
(0.433328 3.59063e-20 0.0911746)
(0.127164 0 0.0830949)
(-0.155447 0 0.071148)
(-0.405372 1.37161e-20 0.0564752)
(-0.616004 -1.35076e-20 0.0396448)
(-0.779038 0 0.0210637)
(-0.885293 1.03235e-20 0.00103329)
(-0.925937 -1.01873e-20 -0.0211646)
(-0.905568 3.48629e-20 -0.0483117)
(-0.798638 0 -0.0839723)
(-0.58748 -2.72399e-20 -0.128708)
(-0.245542 2.34801e-20 -0.186209)
(0.254882 0 -0.271893)
(0.941453 0 -0.413786)
(1.8427 0 -0.604823)
(3.04947 0 -0.773147)
(0.0628163 2.02457e-19 -0.403467)
(0.293629 0 -0.325688)
(0.545958 -1.383e-18 -0.271152)
(0.769302 -1.53452e-19 -0.229302)
(0.933388 1.75909e-18 -0.184989)
(1.01823 0 -0.127199)
(1.00056 -2.05868e-20 -0.0558215)
(0.880768 -8.3713e-20 0.0226608)
(0.688995 8.43084e-20 0.0978208)
(0.434454 -3.31833e-19 0.163761)
(0.132801 -4.17839e-19 0.217658)
(-0.196117 3.18626e-19 0.257724)
(-0.538405 7.12655e-20 0.284104)
(-0.88483 -1.49474e-19 0.297584)
(-1.22436 1.38167e-19 0.298723)
(-1.54696 6.28384e-20 0.288241)
(-1.843 -6.19131e-20 0.267279)
(-2.10314 0 0.237111)
(-2.31846 0 0.198508)
(-2.48073 -2.23063e-20 0.151836)
(-2.58172 2.20153e-20 0.0972073)
(-2.61409 1.81745e-20 0.0329702)
(-2.57562 -5.21713e-20 -0.045515)
(-2.45635 -7.15589e-21 -0.138646)
(-2.24743 -2.52499e-20 -0.245999)
(-1.93983 -6.73936e-20 -0.373608)
(-1.53247 -3.22732e-20 -0.533119)
(-1.03513 1.54578e-21 -0.723831)
(-0.468675 1.80354e-20 -0.92186)
(0.0899254 -4.20289e-22 -1.11617)
(-0.046529 3.06644e-18 -0.510456)
(0.0187285 -3.79412e-18 -0.421343)
(0.163807 0 -0.34626)
(0.261038 0 -0.268264)
(0.293447 -6.45692e-19 -0.18087)
(0.24105 -1.46246e-18 -0.0813)
(0.0981291 2.68744e-18 0.0291271)
(-0.106991 -1.3611e-18 0.138407)
(-0.36795 3.38037e-19 0.2392)
(-0.670194 -3.34193e-19 0.326403)
(-1.00101 0 0.39562)
(-1.34951 -1.57638e-19 0.445094)
(-1.7063 -5.98787e-19 0.474631)
(-2.06205 1.2416e-20 0.484497)
(-2.40792 4.12515e-19 0.475097)
(-2.73537 0 0.447294)
(-3.03587 -1.14035e-19 0.402411)
(-3.30121 -1.5708e-19 0.342019)
(-3.52325 5.17639e-20 0.267649)
(-3.69448 1.81483e-19 0.180766)
(-3.80762 3.95313e-20 0.082723)
(-3.85625 -3.91013e-20 -0.0266178)
(-3.83643 -1.32472e-19 -0.149361)
(-3.74981 1.17011e-19 -0.287911)
(-3.59016 1.53835e-19 -0.4421)
(-3.35986 3.44135e-20 -0.614269)
(-3.066 5.07791e-20 -0.809264)
(-2.72689 -6.86673e-21 -1.02548)
(-2.39034 -1.58489e-20 -1.24429)
(-2.17386 0 -1.42262)
(-0.103747 0 -0.550042)
(-0.177175 7.49433e-19 -0.434653)
(-0.138604 0 -0.34295)
(-0.158841 -6.64455e-19 -0.234049)
(-0.236593 6.58035e-19 -0.113148)
(-0.38924 1.65928e-19 0.0202105)
(-0.597834 0 0.156707)
(-0.859235 1.69201e-19 0.289224)
(-1.16051 1.10695e-21 0.410589)
(-1.49019 3.3095e-19 0.514167)
(-1.83881 6.36086e-19 0.595724)
(-2.19855 -6.32942e-19 0.653302)
(-2.56222 2.91713e-19 0.68635)
(-2.92241 -5.93803e-21 0.695013)
(-3.27198 -5.32512e-19 0.679745)
(-3.60374 -1.20858e-19 0.641387)
(-3.91034 -2.23378e-19 0.581102)
(-4.1844 4.27005e-19 0.500252)
(-4.41816 -1.01567e-19 0.400196)
(-4.60423 -1.36299e-19 0.282254)
(-4.73622 -8.08924e-20 0.147701)
(-4.80895 3.82285e-20 -0.00306915)
(-4.81831 2.39413e-21 -0.170781)
(-4.77052 -1.2906e-19 -0.354915)
(-4.66432 1.04009e-20 -0.553154)
(-4.50662 0 -0.763721)
(-4.30817 0 -0.984788)
(-4.08963 -2.66413e-21 -1.21014)
(-3.89358 2.63349e-21 -1.42442)
(-3.78919 0 -1.58841)
(-0.127485 -3.34674e-18 -0.532002)
(-0.310501 0 -0.381451)
(-0.369106 2.78158e-18 -0.274686)
(-0.481137 -2.03358e-18 -0.140528)
(-0.645908 2.33983e-18 0.00946428)
(-0.859406 -2.72069e-18 0.16575)
(-1.11979 1.35154e-18 0.322457)
(-1.41774 -1.54293e-18 0.472057)
(-1.74315 -3.36944e-19 0.606796)
(-2.08787 0 0.720275)
(-2.44528 3.21971e-19 0.808693)
(-2.80994 1.19207e-20 0.869932)
(-3.1763 1.18509e-18 0.902893)
(-3.53869 -5.64854e-19 0.907332)
(-3.89106 2.62776e-19 0.88337)
(-4.22711 0 0.831562)
(-4.54021 1.11071e-19 0.752826)
(-4.8233 -1.08472e-19 0.648392)
(-5.06911 1.90774e-19 0.519872)
(-5.27087 0 0.369323)
(-5.42316 3.76506e-20 0.199138)
(-5.52216 -3.62105e-21 0.0115906)
(-5.56469 9.41765e-20 -0.191506)
(-5.55783 0 -0.408727)
(-5.50325 -9.67501e-20 -0.637599)
(-5.40909 0 -0.873062)
(-5.28708 0 -1.10886)
(-5.15682 9.45343e-20 -1.33587)
(-5.05074 -2.41175e-21 -1.53989)
(-5.00313 0 -1.68541)
(-0.116366 3.38767e-18 -0.462797)
(-0.389229 -1.47777e-18 -0.273524)
(-0.525972 0 -0.150291)
(-0.711943 -6.92668e-19 0.00789255)
(-0.934893 -3.45747e-19 0.176766)
(-1.19595 2.7555e-18 0.350116)
(-1.49016 -2.79516e-18 0.520927)
(-1.80917 -1.36887e-18 0.68095)
(-2.14663 1.37496e-18 0.823365)
(-2.49719 1.31116e-18 0.942282)
(-2.85681 9.82186e-19 1.03416)
(-3.22171 -1.21993e-18 1.09665)
(-3.5878 1.18383e-18 1.12827)
(-3.95091 2.6998e-19 1.12835)
(-4.30579 -5.32281e-19 1.09653)
(-4.64662 -2.48881e-19 1.03292)
(-4.967 6.70193e-19 0.938079)
(-5.26031 0 0.81312)
(-5.51995 -4.72127e-19 0.659781)
(-5.73986 2.48991e-19 0.480504)
(-5.91514 0 0.278355)
(-6.04264 0 0.0569581)
(-6.12004 2.39684e-19 -0.179692)
(-6.1516 -2.47459e-20 -0.427794)
(-6.14393 2.44016e-20 -0.683501)
(-6.10395 0 -0.939335)
(-6.04336 0 -1.18632)
(-5.97983 -9.13362e-20 -1.41396)
(-5.93623 -5.14007e-20 -1.60862)
(-5.92345 5.83211e-22 -1.73885)
(-0.0683282 -2.57245e-18 -0.347737)
(-0.414068 -2.96805e-18 -0.120957)
(-0.611993 -7.18421e-19 0.0227888)
(-0.851611 7.07915e-19 0.196728)
(-1.11809 3.54421e-19 0.379971)
(-1.41033 4.4689e-20 0.565267)
(-1.72257 3.5672e-19 0.744351)
(-2.05033 0 0.910046)
(-2.39019 1.01739e-18 1.05612)
(-2.73957 -2.00361e-18 1.17755)
(-3.09667 6.33844e-19 1.27097)
(-3.45878 -1.22969e-18 1.33351)
(-3.82305 5.82709e-19 1.36328)
(-4.18607 -5.62324e-19 1.35896)
(-4.54319 5.14536e-19 1.31953)
(-4.88906 -2.44954e-19 1.2446)
(-5.21759 -2.31641e-19 1.13441)
(-5.5226 0 0.989995)
(-5.79796 7.35202e-19 0.813304)
(-6.03799 -3.35697e-19 0.607233)
(-6.23807 -7.08702e-20 0.375656)
(-6.39529 7.02482e-20 0.123514)
(-6.50835 -4.6807e-19 -0.143259)
(-6.57621 0 -0.418752)
(-6.61124 1.96955e-20 -0.696947)
(-6.61778 -1.94254e-20 -0.969644)
(-6.6077 0 -1.22585)
(-6.59645 7.84045e-20 -1.45421)
(-6.59893 3.44727e-21 -1.64141)
(-6.60987 0 -1.76006)
(0.0190103 -1.74061e-18 -0.195571)
(-0.383286 -1.49355e-18 0.072213)
(-0.630963 3.65384e-18 0.230495)
(-0.908998 0 0.4179)
(-1.20264 0 0.611831)
(-1.50949 -2.78645e-18 0.803413)
(-1.82638 5.47307e-18 0.986004)
(-2.1525 -2.89644e-18 1.15403)
(-2.48707 1.73261e-18 1.30136)
(-2.82983 -2.04293e-18 1.42369)
(-3.1805 6.36767e-19 1.51767)
(-3.53757 -6.27262e-19 1.57998)
(-3.89899 -5.82615e-19 1.60807)
(-4.26149 0 1.59979)
(-4.62086 0 1.5535)
(-4.97211 3.05622e-21 1.46833)
(-5.30962 -8.67735e-19 1.34425)
(-5.62753 -2.03429e-19 1.18225)
(-5.91999 -1.94432e-19 0.984423)
(-6.18152 0 0.754076)
(-6.40751 -3.52996e-19 0.495765)
(-6.59493 6.78173e-20 0.21545)
(-6.74244 4.47465e-19 -0.0794668)
(-6.84918 1.65053e-19 -0.380674)
(-6.92293 2.19612e-20 -0.679573)
(-6.97075 0 -0.967669)
(-7.00314 -9.79853e-20 -1.23277)
(-7.03412 -7.61182e-20 -1.46291)
(-7.07213 4.49741e-20 -1.64492)
(-7.10035 0 -1.75511)
(0.161765 -6.17679e-18 -0.0148247)
(-0.316416 0 0.295356)
(-0.589414 2.98803e-18 0.4668)
(-0.889536 -3.02497e-18 0.664175)
(-1.19211 0 0.863388)
(-1.49811 -1.89576e-19 1.05683)
(-1.8079 3.77242e-19 1.23958)
(-2.1234 1.45531e-18 1.40761)
(-2.44639 -1.43802e-18 1.5554)
(-2.77842 0 1.67863)
(-3.11989 0 1.77335)
(-3.47016 0 1.83583)
(-3.82764 5.81623e-19 1.86286)
(-4.18921 5.29233e-19 1.85148)
(-4.55101 2.28823e-19 1.7995)
(-4.90834 6.91952e-19 1.70557)
(-5.25593 4.29855e-19 1.56936)
(-5.58821 2.05726e-19 1.39176)
(-5.89949 -2.54165e-19 1.17496)
(-6.18431 1.57197e-19 0.922575)
(-6.43791 2.0958e-19 0.639725)
(-6.65676 0 0.333233)
(-6.83898 -2.18039e-19 0.0117878)
(-6.98369 -1.87127e-19 -0.314322)
(-7.09343 0 -0.633151)
(-7.17803 -6.77405e-21 -0.936266)
(-7.24698 1.04479e-19 -1.21091)
(-7.31303 -6.13949e-20 -1.44441)
(-7.37946 -3.41757e-20 -1.62362)
(-7.42092 -4.04133e-22 -1.72791)
(0.344571 7.13527e-18 0.178951)
(-0.210349 -3.04135e-18 0.546398)
(-0.492152 -3.47134e-18 0.724022)
(-0.795636 -3.1359e-18 0.924659)
(-1.08885 6.1362e-18 1.12404)
(-1.37924 -6.29903e-18 1.31656)
(-1.67119 3.87463e-18 1.49849)
(-1.9686 -1.51544e-18 1.6661)
(-2.27489 0 1.81481)
(-2.5928 0 1.93995)
(-2.92307 -1.30521e-18 2.03659)
(-3.26531 6.33125e-19 2.10048)
(-3.618 -5.82904e-19 2.12768)
(-3.97834 -5.2712e-19 2.11461)
(-4.34274 2.57661e-19 2.05854)
(-4.70679 -2.05374e-20 1.95767)
(-5.06548 -6.37896e-19 1.81138)
(-5.41343 0 1.62038)
(-5.74498 3.38196e-19 1.38687)
(-6.05451 0 1.11467)
(-6.33688 6.30613e-20 0.809435)
(-6.58797 -6.25352e-20 0.47878)
(-6.80506 1.95777e-19 0.13249)
(-6.9869 0 -0.217587)
(-7.13295 1.34986e-19 -0.558582)
(-7.25095 0 -0.877392)
(-7.35228 -8.00652e-20 -1.16291)
(-7.4483 7.26572e-21 -1.4017)
(-7.53819 3.45542e-20 -1.5805)
(-7.59021 1.92312e-20 -1.68108)
(0.572446 -7.17355e-18 0.380808)
(-0.0682272 -3.90059e-18 0.81691)
(-0.342734 6.00368e-19 0.990378)
(-0.628003 3.28803e-18 1.18715)
(-0.893808 2.05662e-19 1.38308)
(-1.15496 0 1.57408)
(-1.41939 -4.03645e-19 1.75636)
(-1.69254 2.29408e-18 1.92528)
(-1.97825 -3.50972e-20 2.07663)
(-2.2793 -7.18208e-19 2.20539)
(-2.59653 6.62157e-19 2.30582)
(-2.92954 0 2.37296)
(-3.2767 5.83478e-19 2.40217)
(-3.63544 5.41839e-19 2.38935)
(-4.00243 7.40107e-19 2.33128)
(-4.37351 -6.9689e-19 2.2257)
(-4.74393 5.4055e-21 2.07169)
(-5.10844 1.77892e-19 1.86973)
(-5.46136 -4.34339e-19 1.6219)
(-5.79688 -7.80785e-20 1.33213)
(-6.1094 0 1.00645)
(-6.39402 0 0.653116)
(-6.64684 -1.17332e-20 0.282668)
(-6.86539 -1.52887e-19 -0.0919812)
(-7.04882 -1.42465e-19 -0.456002)
(-7.19806 7.17273e-21 -0.792393)
(-7.32894 8.01442e-20 -1.09052)
(-7.45139 7.24602e-21 -1.33681)
(-7.56135 2.77712e-22 -1.51754)
(-7.6221 -3.85838e-21 -1.61629)
(0.853521 0 0.587694)
(0.102227 8.05427e-19 1.09441)
(-0.144648 -2.10515e-19 1.24904)
(-0.386024 -4.33473e-19 1.43715)
(-0.60684 -3.42982e-18 1.62946)
(-0.826816 3.38313e-18 1.8209)
(-1.05569 -8.08128e-19 2.00631)
(-1.29942 8.01521e-19 2.17993)
(-1.56128 0 2.33717)
(-1.84323 -1.42212e-18 2.47243)
(-2.14583 0 2.57931)
(-2.46835 6.13739e-19 2.6521)
(-2.80901 -3.14061e-20 2.68563)
(-3.16544 -8.38603e-19 2.67547)
(-3.53456 -7.5675e-19 2.61792)
(-3.91251 0 2.51028)
(-4.2948 8.19438e-19 2.35127)
(-4.67639 3.63062e-19 2.14112)
(-5.05167 -3.20465e-19 1.88165)
(-5.41454 0 1.57671)
(-5.75882 2.40934e-19 1.23249)
(-6.07863 0 0.857644)
(-6.36863 -3.54576e-19 0.463355)
(-6.62456 1.22019e-20 0.0636638)
(-6.84454 0 -0.324709)
(-7.02623 -8.60515e-20 -0.681805)
(-7.18446 0 -0.9948)
(-7.33113 1.2659e-19 -1.251)
(-7.45894 -2.28211e-22 -1.436)
(-7.52723 -1.54992e-20 -1.53465)
(1.19402 -3.68696e-18 0.786624)
(0.293982 -3.38715e-18 1.35083)
(0.0962117 -4.4897e-19 1.47101)
(-0.0698433 -3.61883e-18 1.65684)
(-0.228208 3.56724e-18 1.85106)
(-0.396595 1.72543e-18 2.04785)
(-0.583587 -2.5232e-18 2.24128)
(-0.79377 -1.58323e-18 2.42464)
(-1.02886 2.30702e-18 2.59224)
(-1.28971 7.17934e-19 2.73802)
(-1.57618 -6.80259e-19 2.85472)
(-1.88682 -6.17923e-19 2.93611)
(-2.21962 3.31058e-20 2.97675)
(-2.57238 5.59978e-19 2.97209)
(-2.94241 4.95486e-19 2.91802)
(-3.3262 2.15369e-19 2.81136)
(-3.7196 -8.117e-19 2.65052)
(-4.11795 -1.73531e-19 2.4354)
(-4.5157 5.58196e-19 2.16737)
(-4.90635 7.34418e-20 1.84995)
(-5.28297 -2.40856e-19 1.48937)
(-5.63858 1.9271e-19 1.09459)
(-5.96655 -6.31634e-21 0.677497)
(-6.26104 1.66608e-19 0.253045)
(-6.51838 -7.50187e-21 -0.160895)
(-6.7395 8.63795e-20 -0.544446)
(-6.92402 0 -0.87599)
(-7.09425 -7.94139e-20 -1.14492)
(-7.23872 3.09797e-20 -1.3366)
(-7.31389 -9.09624e-21 -1.43683)
(1.5706 -7.9554e-18 1.01406)
(0.524819 -3.6367e-18 1.59583)
(0.376925 8.45022e-18 1.63749)
(0.320224 -3.26885e-18 1.82701)
(0.240454 -1.82786e-18 2.03369)
(0.132976 2.67557e-18 2.24526)
(-0.00714841 -1.11115e-20 2.45576)
(-0.180686 0 2.65593)
(-0.386582 -7.70564e-19 2.83876)
(-0.624496 -7.34354e-19 2.99884)
(-0.893443 6.83674e-19 3.12924)
(-1.19062 0 3.22254)
(-1.51351 0 3.27339)
(-1.86028 -5.44062e-19 3.27753)
(-2.22892 -9.91812e-19 3.23045)
(-2.61622 4.4582e-19 3.12829)
(-3.01849 0 2.96927)
(-3.43178 0 2.75303)
(-3.85092 -3.12335e-19 2.48011)
(-4.26918 0 2.15335)
(-4.67914 0 1.77881)
(-5.07318 -2.14075e-19 1.36563)
(-5.44333 1.79846e-19 0.926012)
(-5.78149 0 0.475509)
(-6.08073 8.82088e-20 0.0328392)
(-6.33972 -6.65078e-20 -0.379847)
(-6.55274 1.84002e-21 -0.734208)
(-6.74588 0 -1.01864)
(-6.90688 -3.14193e-20 -1.21956)
(-6.98872 8.98288e-21 -1.32295)
(1.99556 4.81133e-18 0.730184)
(0.748888 -3.53516e-18 1.5975)
(0.699759 -2.35978e-18 1.75338)
(0.77353 2.34641e-18 1.93723)
(0.787535 -4.65155e-19 2.15771)
(0.752781 -8.87629e-19 2.39548)
(0.668371 1.28952e-18 2.63395)
(0.536731 1.64464e-18 2.86084)
(0.363502 -6.07867e-21 3.06793)
(0.144481 7.38536e-19 3.25284)
(-0.105552 0 3.40041)
(-0.387371 0 3.50795)
(-0.697492 2.88716e-19 3.57086)
(-1.03466 8.1018e-19 3.58669)
(-1.3981 2.5938e-19 3.55043)
(-1.78488 -3.20268e-19 3.45641)
(-2.19155 1.04335e-19 3.3031)
(-2.61559 3.4433e-19 3.09029)
(-3.05286 2.26696e-19 2.81705)
(-3.49665 6.91288e-20 2.48512)
(-3.93955 -1.84204e-19 2.10044)
(-4.37351 1.45159e-19 1.67207)
(-4.7886 0 1.21196)
(-5.17323 -1.02689e-19 0.736181)
(-5.51625 -8.83206e-20 0.264842)
(-5.81334 6.48601e-20 -0.177962)
(-6.07346 0 -0.565541)
(-6.28997 -3.69722e-20 -0.870868)
(-6.46878 0 -1.08393)
(-6.55748 0 -1.19215)
(9.99271 -1.31774e-18 0.0943852)
(9.98315 5.98682e-19 0.183457)
(9.96694 -8.89296e-20 0.273521)
(9.94193 -5.54109e-19 0.367231)
(9.90982 1.92953e-19 0.465838)
(9.87154 -3.98123e-19 0.570498)
(9.82727 0 0.682536)
(9.77741 0 0.80318)
(9.72216 -4.42185e-19 0.933366)
(9.6614 -4.54342e-19 1.07398)
(9.59578 -9.38351e-19 1.22608)
(9.52556 0 1.39092)
(9.45095 -4.94459e-19 1.56993)
(9.37285 -1.01701e-18 1.76462)
(9.29189 0 1.97658)
(9.20876 -5.29291e-19 2.20765)
(9.12433 -5.38745e-19 2.45994)
(9.04 5.4667e-19 2.73601)
(8.95694 0 3.03887)
(8.87672 -2.79771e-18 3.37189)
(8.80143 -5.55803e-19 3.73894)
(8.73455 -6.68961e-18 4.14499)
(8.67935 4.43609e-18 4.59561)
(8.6403 0 5.09718)
(8.62655 2.09232e-18 5.65581)
(8.63993 0 6.27834)
(8.7304 -1.97426e-18 6.96369)
(8.80497 1.93386e-18 7.76144)
(9.60555 -1.77346e-18 8.54965)
(10.5672 -1.43723e-18 11.2869)
(9.99306 6.41268e-19 0.0979246)
(9.98458 -6.632e-19 0.190295)
(9.97029 -1.72992e-19 0.283716)
(9.94806 5.40395e-19 0.380948)
(9.91956 0 0.4833)
(9.88561 3.87459e-19 0.591937)
(9.84628 3.99676e-19 0.708099)
(9.80221 0 0.832966)
(9.75366 0 0.967556)
(9.70055 4.41317e-19 1.11277)
(9.6436 2.26895e-21 1.26964)
(9.58302 -4.68174e-19 1.43939)
(9.5191 1.43389e-18 1.62335)
(9.453 1.47042e-18 1.82301)
(9.38534 -5.00928e-19 2.03993)
(9.31695 3.05836e-18 2.27588)
(9.24903 5.20992e-19 2.53289)
(9.1827 -2.10439e-18 2.81334)
(9.1196 0 3.12013)
(9.06197 1.05806e-18 3.4563)
(9.01225 -2.12191e-18 3.82513)
(8.97384 -1.07268e-18 4.23066)
(8.95108 -1.03633e-18 4.67737)
(8.95069 2.03152e-18 5.1697)
(8.98336 -4.15539e-20 5.71019)
(9.05545 0 6.29873)
(9.21687 -1.88997e-18 6.9263)
(9.39898 9.12524e-19 7.59193)
(9.94188 2.65413e-18 8.1917)
(10.6422 2.24391e-18 9.11267)
(9.99351 -3.89112e-20 0.101146)
(9.98609 6.86415e-19 0.196582)
(9.97379 -1.68016e-19 0.293036)
(9.95445 -2.3406e-22 0.39341)
(9.92972 -5.43477e-19 0.499141)
(9.90024 7.50425e-19 0.611419)
(9.86608 -1.16492e-18 0.731319)
(9.82806 4.23414e-22 0.859929)
(9.78637 0 0.998388)
(9.74117 1.27687e-18 1.14763)
(9.693 4.40563e-19 1.30859)
(9.64219 -4.48927e-19 1.48248)
(9.58927 -9.19837e-19 1.67054)
(9.53528 0 1.87414)
(9.48106 -2.4035e-18 2.09484)
(9.42754 1.95015e-18 2.33432)
(9.376 2.47622e-18 2.59444)
(9.32761 -3.01026e-18 2.87741)
(9.28444 1.01269e-18 3.18572)
(9.24902 -2.04427e-18 3.52192)
(9.22403 0 3.88861)
(9.21291 -1.01312e-18 4.28866)
(9.22071 1.53777e-20 4.72469)
(9.25492 -6.64406e-21 5.19836)
(9.32536 -5.73535e-18 5.70801)
(9.43721 0 6.24621)
(9.6217 8.79211e-19 6.79499)
(9.82139 -4.39975e-18 7.31737)
(10.1069 1.7121e-18 7.76171)
(10.6397 0 8.33934)
(9.99393 -6.03963e-19 0.10399)
(9.98777 -7.83763e-20 0.20224)
(9.97761 -5.69779e-19 0.301366)
(9.96131 0 0.40446)
(9.94037 0 0.513186)
(9.91531 3.6409e-19 0.628705)
(9.88657 -4.437e-22 0.751861)
(9.85479 1.6322e-21 0.883685)
(9.82012 3.98959e-19 1.02544)
(9.78302 -2.06062e-21 1.17807)