/*--------------------------------*- C++ -*----------------------------------*\
| =========                 |                                                 |
| \\      /  F ield         | OpenFOAM: The Open Source CFD Toolbox           |
|  \\    /   O peration     | Version:  dev                                   |
|   \\  /    A nd           | Web:      www.OpenFOAM.org                      |
|    \\/     M anipulation  |                                                 |
\*---------------------------------------------------------------------------*/
FoamFile
{
    version     2.0;
    format      ascii;
    class       volVectorField;
    location    "3.55";
    object      U;
}
// * * * * * * * * * * * * * * * * * * * * * * * * * * * * * * * * * * * * * //

dimensions      [0 1 -1 0 0 0 0];

internalField   nonuniform List<vector> 
465
(
(3.40052 4.48262e-20 0.288152)
(2.8056 -4.62431e-20 0.308924)
(2.19907 -9.71492e-20 0.32727)
(1.59094 1.00245e-19 0.34128)
(0.992541 0 0.348853)
(0.437948 0 0.346505)
(-0.242093 0 0.129953)
(-0.404558 0 -0.270213)
(-0.0614028 1.16205e-19 -0.367037)
(4.2712 2.18579e-20 0.719853)
(3.68594 0 0.759688)
(3.08453 1.9056e-19 0.789166)
(2.4777 -2.45742e-19 0.80286)
(1.88039 -4.09486e-19 0.793207)
(1.32019 4.7459e-19 0.746881)
(0.781905 0 0.600635)
(0.403846 -9.53614e-19 0.34029)
(0.143683 -1.16399e-19 -0.300328)
(4.73483 1.49779e-19 1.18473)
(4.18858 -4.47339e-20 1.25488)
(3.62162 -3.27924e-19 1.30819)
(3.0422 8.22574e-19 1.33511)
(2.46165 -4.80951e-20 1.32211)
(1.89719 -1.29774e-18 1.24757)
(1.34818 -1.88529e-21 1.06456)
(0.827744 9.40391e-19 0.751602)
(0.507155 1.15564e-19 0.252455)
(5.02193 -4.61803e-20 1.61052)
(4.51072 3.9518e-19 1.7132)
(3.97488 -4.59259e-20 1.79556)
(3.41856 0 1.84516)
(2.84702 4.93764e-20 1.84507)
(2.26709 1.01907e-19 1.77199)
(1.67781 0 1.59006)
(1.05824 -8.7771e-19 1.28261)
(0.585436 8.57547e-19 0.810726)
(5.22877 8.34602e-20 2.00936)
(4.7424 -3.05411e-19 2.14494)
(4.22761 -3.20139e-19 2.25954)
(3.68467 7.43747e-19 2.33942)
(3.11376 6.80623e-19 2.36679)
(2.51484 -9.01232e-19 2.31965)
(1.88608 5.19356e-20 2.16995)
(1.19366 -8.12993e-19 1.90472)
(0.625102 2.71126e-18 1.47798)
(5.40416 -4.11986e-20 2.39091)
(4.93401 -4.27439e-20 2.56081)
(4.43151 -8.82463e-20 2.71165)
(3.89392 0 2.82958)
(3.3179 9.53052e-20 2.89705)
(2.69939 7.9078e-19 2.89338)
(2.03737 -1.68823e-18 2.79417)
(1.29321 8.22426e-19 2.58748)
(0.659558 -5.57199e-20 2.21439)
(5.57475 -3.20241e-19 2.7606)
(5.11578 0 2.96702)
(4.6203 4.34528e-20 3.15846)
(4.08328 -7.19949e-19 3.32161)
(3.49894 7.40126e-19 3.43944)
(2.86071 -7.26296e-19 3.4917)
(2.16906 7.9901e-19 3.45427)
(1.3832 -5.21218e-20 3.3125)
(0.696257 -2.70943e-20 2.98976)
(5.75592 2.74587e-19 3.12092)
(5.30669 -4.05017e-20 3.36649)
(4.81663 -4.19049e-20 3.60296)
(4.27874 -4.33769e-20 3.81799)
(3.68514 0 3.99508)
(3.02701 -4.732e-20 4.11363)
(2.3057 2.42359e-20 4.14749)
(1.47809 8.42598e-19 4.07631)
(0.737849 -8.22182e-19 3.8014)
(5.95711 -5.80686e-19 3.47172)
(5.51931 3.42959e-20 3.75921)
(5.03646 1.39866e-18 4.04519)
(4.49951 9.06721e-20 4.31867)
(3.89823 -7.01609e-19 4.56396)
(3.22077 7.55644e-19 4.75981)
(2.46764 -1.88568e-20 4.87668)
(1.59132 -7.88471e-19 4.88642)
(0.788409 1.2767e-20 4.66407)
(6.18427 0 3.81067)
(5.7623 0 4.14253)
(5.29166 -4.03265e-20 4.48223)
(4.76104 -4.16295e-20 4.82085)
(4.15703 0 5.14424)
(3.46319 -2.22761e-20 5.43101)
(2.67636 0 5.64795)
(1.74041 7.64238e-19 5.75738)
(0.855883 -7.82538e-19 5.60314)
(6.44101 2.9366e-19 4.13359)
(6.04161 3.03659e-19 4.51136)
(5.59138 -5.97877e-19 4.90818)
(5.07652 6.37826e-19 5.31827)
(4.47961 -6.53475e-19 5.73057)
(3.77739 0 6.12555)
(2.95863 -6.69413e-22 6.46777)
(1.95111 7.28749e-19 6.70909)
(0.954555 -7.82137e-19 6.6552)
(6.72891 0 4.43487)
(6.36076 -2.9181e-19 4.85844)
(5.94221 2.79e-19 5.31389)
(5.45729 6.20592e-19 5.8001)
(4.88418 -1.25092e-18 6.31173)
(4.19066 1.27822e-18 6.83529)
(3.35129 -6.59414e-19 7.33863)
(2.2646 0 7.76646)
(1.11106 0 7.87798)
(7.04741 -1.70205e-20 4.70781)
(6.72054 0 5.17455)
(6.34756 -2.86356e-19 5.68687)
(5.91174 5.73841e-19 6.24988)
(5.38818 -2.97127e-19 6.86747)
(4.73548 -4.32851e-21 7.53922)
(3.90796 0 8.24961)
(2.75303 6.26207e-19 8.95564)
(1.38035 -1.30571e-18 9.37858)
(7.39354 -2.50031e-19 4.94531)
(7.11823 2.70443e-19 5.44931)
(6.80613 -2.71106e-19 6.01181)
(6.44259 2.75539e-19 6.64511)
(6.00412 -5.56946e-19 7.36526)
(5.4464 2.86437e-19 8.19335)
(4.70647 -2.82383e-19 9.15367)
(3.55657 2.81128e-19 10.2773)
(1.89198 -2.63819e-20 11.3974)
(7.76164 2.57306e-19 5.14039)
(7.54687 -5.25283e-19 5.67209)
(7.30982 2.59712e-19 6.27204)
(7.04207 0 6.9587)
(6.72996 2.5419e-19 7.75977)
(6.34449 -7.04627e-21 8.72027)
(5.84436 -2.44749e-19 9.92133)
(4.98237 2.16576e-19 11.5669)
(2.99543 -1.89026e-19 14.502)
(0.120693 -1.70182e-22 -0.112334)
(0.316717 7.60182e-23 -0.113699)
(0.501751 0 -0.095592)
(0.659529 0 -0.0725872)
(0.779425 -1.43299e-23 -0.0503602)
(0.861053 0 -0.0309077)
(0.908988 0 -0.0147858)
(0.929062 -7.45988e-23 -0.00208785)
(0.927466 1.84859e-22 0.0070447)
(0.910551 -8.86759e-23 0.0128353)
(0.0947138 1.70179e-22 -0.309088)
(0.309164 -1.10568e-21 -0.293638)
(0.490236 1.71121e-21 -0.242387)
(0.644855 -1.05682e-21 -0.185002)
(0.76556 3.52479e-22 -0.131834)
(0.853126 1.23622e-22 -0.0861215)
(0.912328 -1.20799e-22 -0.0486348)
(0.948718 0 -0.0191704)
(0.967599 2.37013e-23 0.00280664)
(0.971017 2.08597e-22 0.0177501)
(0.0408408 2.18622e-21 -0.502197)
(0.259454 -2.13227e-21 -0.474029)
(0.410233 1.12588e-21 -0.389299)
(0.539479 -1.6415e-21 -0.298553)
(0.63932 3.93137e-22 -0.216079)
(0.710946 4.09554e-22 -0.145492)
(0.758541 -3.27858e-22 -0.0877888)
(0.787186 -6.90043e-22 -0.0426624)
(0.801898 6.29908e-22 -0.00900161)
(0.805564 -4.34414e-22 0.0148082)
(-0.0124153 2.15061e-21 -0.659943)
(0.195366 -1.84989e-21 -0.621267)
(0.298767 8.34668e-22 -0.503456)
(0.391585 -4.71608e-22 -0.383975)
(0.460947 -5.7263e-22 -0.278219)
(0.509339 3.61977e-22 -0.188365)
(0.539318 -6.87936e-23 -0.115519)
(0.555773 0 -0.0585299)
(0.561945 1.02081e-22 -0.015906)
(0.553569 4.5521e-22 0.0147292)
(-0.059794 3.65651e-21 -0.777573)
(0.119214 -1.23906e-21 -0.722869)
(0.161342 1.2086e-21 -0.573634)
(0.207711 -1.14037e-22 -0.432817)
(0.236259 5.85008e-23 -0.311554)
(0.252812 -8.97095e-23 -0.208509)
(0.256164 -1.56637e-24 -0.126991)
(0.255253 -7.93329e-22 -0.0630966)
(0.228977 6.73285e-22 -0.00634273)
(0.188912 0 0.0379087)
(-0.101391 2.29328e-21 -0.846173)
(0.0299651 1.78768e-21 -0.76405)
(0.00339904 -7.34422e-22 -0.586644)
(-0.00526775 7.18097e-22 -0.430788)
(-0.0277401 0 -0.296491)
(-0.0543996 1.00605e-21 -0.181092)
(-0.0929308 -2.118e-21 -0.08694)
(-0.157249 1.17737e-21 -0.00958969)
(-0.210754 -1.0408e-22 0.0440778)
(-0.250247 1.15803e-22 0.0775413)
(-0.138315 -2.27632e-21 -0.851715)
(-0.0737361 2.21986e-21 -0.729199)
(-0.1659 1.09146e-21 -0.531427)
(-0.236706 -1.06644e-21 -0.367381)
(-0.315627 0 -0.231146)
(-0.39545 0 -0.120219)
(-0.471477 -1.21641e-21 -0.0324606)
(-0.539691 4.67573e-22 0.0326988)
(-0.58552 1.72147e-21 0.0765014)
(-0.629413 -7.92601e-24 0.107384)
(-0.175596 3.36658e-21 -0.782924)
(-0.182985 5.0316e-23 -0.626663)
(-0.331177 -1.68946e-21 -0.426418)
(-0.457145 1.55149e-21 -0.267406)
(-0.577501 -4.65259e-23 -0.141354)
(-0.685265 6.97168e-25 -0.0433297)
(-0.777182 9.38843e-23 0.0299273)
(-0.840136 -6.3451e-22 0.0792209)
(-0.89454 1.55206e-21 0.11444)
(-0.940104 1.30236e-22 0.139143)
(-0.21693 4.17446e-21 -0.643758)
(-0.284859 -4.14229e-21 -0.467858)
(-0.48293 -2.39827e-21 -0.276009)
(-0.654043 9.93589e-22 -0.132471)
(-0.807113 2.02229e-21 -0.0239928)
(-0.927958 -5.6596e-22 0.048726)
(-1.01766 -9.12039e-22 0.0966005)
(-1.09149 7.47555e-22 0.131264)
(-1.15133 0 0.155873)
(-1.19957 0 0.171927)
(-0.264568 -1.00425e-23 -0.445253)
(-0.390429 3.3153e-23 -0.258123)
(-0.637897 0 -0.078584)
(-0.844716 0 0.040067)
(-1.00213 8.76512e-22 0.103488)
(-1.12754 -8.65104e-22 0.143482)
(-1.22852 3.03322e-23 0.170589)
(-1.30947 6.70768e-23 0.189022)
(-1.37402 0 0.200769)
(-1.42548 -1.02122e-21 0.206758)
(-0.328542 0 -0.203194)
(-0.524597 -5.10218e-21 0.045069)
(-0.791031 4.90241e-21 0.163456)
(-1.00519 0 0.21208)
(-1.17749 0 0.236641)
(-1.31443 2.71906e-23 0.247362)
(-1.42249 -2.97951e-23 0.250858)
(-1.50776 -6.69843e-23 0.250942)
(-1.57553 -1.07284e-22 0.248703)
(-1.62979 0 0.244012)
(-0.392599 -7.43338e-21 0.2681)
(-0.631635 7.27404e-21 0.370525)
(-0.931993 7.06724e-23 0.405555)
(-1.17173 0 0.400609)
(-1.35697 9.84897e-22 0.380758)
(-1.49932 -9.11049e-22 0.356779)
(-1.6088 -1.34574e-23 0.333809)
(-1.69423 7.79255e-22 0.314556)
(-1.76265 -1.79231e-21 0.298404)
(-1.81838 9.91731e-22 0.283249)
(-0.434089 8.11401e-21 0.703336)
(-0.750858 -7.93744e-21 0.745295)
(-1.11042 0 0.68454)
(-1.36637 9.77629e-22 0.601752)
(-1.55151 -9.32098e-22 0.527272)
(-1.68859 -2.46095e-22 0.465112)
(-1.79135 -4.04369e-22 0.41427)
(-1.87082 5.66029e-22 0.376212)
(-1.93609 1.29121e-21 0.347868)
(-1.99128 -2.46939e-21 0.323509)
(-0.544981 -5.38756e-22 1.29449)
(-0.950163 0 1.20402)
(-1.36271 0 0.992858)
(-1.60685 4.85249e-22 0.797082)
(-1.76657 -4.96214e-22 0.659848)
(-1.88244 0 0.562391)
(-1.96757 0 0.485277)
(-2.03235 -1.7642e-23 0.430875)
(-2.08917 0 0.394654)
(-2.14123 1.41669e-21 0.363649)
(-0.825366 5.36102e-22 2.07675)
(-1.2996 0 1.80189)
(-1.73809 0 1.32239)
(-1.91451 0 0.931178)
(-1.99814 0 0.744239)
(-2.07014 0 0.641621)
(-2.12679 0 0.543213)
(-2.16547 7.53482e-23 0.471689)
(-2.20692 1.07169e-22 0.434892)
(-2.25379 9.8014e-23 0.401315)
(8.15738 1.22658e-19 5.29139)
(8.01141 1.24418e-19 5.83827)
(7.86194 -1.25714e-19 6.45734)
(7.7107 1.10514e-19 7.1693)
(7.56321 -2.38873e-19 8.00596)
(7.433 1.15562e-19 9.01972)
(7.40598 -9.34179e-20 10.3009)
(7.92169 9.37272e-20 11.9831)
(8.18309 0 14.7648)
(8.56561 -1.15513e-19 5.39068)
(8.49062 1.10683e-19 5.93738)
(8.43107 3.60365e-21 6.55247)
(8.3981 1.39033e-20 7.2528)
(8.41358 -6.18205e-21 8.06124)
(8.5163 -4.75651e-20 9.0072)
(8.75703 2.74552e-20 10.1238)
(9.41514 2.05207e-20 11.3562)
(9.92683 -1.95887e-20 12.474)
(8.97445 8.51942e-22 5.43671)
(8.96644 3.40256e-21 5.96834)
(8.98802 -4.54112e-20 6.55803)
(9.05351 8.35439e-21 7.21505)
(9.1847 6.3667e-20 7.9479)
(9.41238 0 8.7583)
(9.74284 0 9.63496)
(10.3025 0 10.5302)
(11.0036 0 11.2768)
(9.37254 -5.02019e-20 5.43072)
(9.42292 4.47756e-20 5.93557)
(9.51071 -6.32265e-21 6.48543)
(9.64889 -4.6312e-22 7.08301)
(9.85394 2.79251e-21 7.72796)
(10.1483 -1.31852e-20 8.41326)
(10.5399 1.04646e-20 9.12432)
(11.0917 0 9.85465)
(11.8992 2.44425e-20 10.5204)
(9.84954 -4.2162e-20 5.84792)
(9.98873 -2.29605e-20 6.35108)
(10.1793 1.12164e-20 6.88565)
(10.4341 1.05146e-20 7.44779)
(10.7703 -1.06422e-20 8.02958)
(11.1995 0 8.61657)
(11.7421 -3.09527e-20 9.19836)
(12.5019 3.1243e-20 9.71547)
(10.6451 -3.30826e-22 6.64218)
(10.9309 1.01721e-20 7.12764)
(11.2867 0 7.61672)
(11.7206 -5.21439e-20 8.09401)
(12.2316 5.09422e-20 8.54274)
(12.9077 1.45726e-20 8.92918)
(11.7065 -4.50449e-20 7.18977)
(12.1263 5.38507e-20 7.57665)
(12.6009 1.42575e-20 7.92778)
(13.2033 -1.12931e-19 8.22633)
(12.8824 -3.49394e-20 7.36122)
(13.4205 7.5025e-20 7.59653)
(9.66155 1.94506e-19 12.9122)
(6.32854 5.79977e-22 10.495)
(-0.840575 0 5.87848)
(10.4281 7.54444e-21 10.9944)
(9.82218 5.13568e-20 9.63204)
(8.23499 -2.35153e-20 7.95758)
(11.5182 0 10.9905)
(11.7252 -8.0279e-21 10.4512)
(11.4869 -6.28714e-21 9.60904)
(12.4068 -7.88259e-20 10.5936)
(12.7561 6.32359e-20 10.4452)
(12.8761 -2.98723e-20 10.0635)
(12.9509 0 9.83331)
(13.3249 1.75659e-20 9.83504)
(13.5778 3.50726e-20 9.7128)
(13.3033 -5.5765e-21 9.04718)
(13.6658 5.87149e-20 9.1073)
(13.9541 -4.01247e-20 9.10361)
(13.553 9.8863e-20 8.33039)
(13.8831 1.52978e-20 8.40198)
(14.1581 0 8.43827)
(13.7288 0 7.68142)
(14.0221 -1.02097e-20 7.74515)
(14.2694 7.03816e-20 7.78764)
(14.109 8.62999e-20 7.14456)
(14.3285 -1.57068e-19 7.183)
(-3.22026 0 1.90036)
(-1.92939 0 1.45637)
(-2.34688 1.04738e-21 0.988241)
(-2.31457 -1.03328e-21 0.78958)
(-2.2008 -7.53765e-22 0.812369)
(-2.21654 7.56178e-22 0.753454)
(-2.25744 0 0.577186)
(-2.25582 5.31344e-23 0.466123)
(-2.26915 -1.0315e-22 0.45779)
(6.08968 0 5.54287)
(3.89313 0 3.7599)
(1.78731 -1.19456e-22 2.41095)
(-0.444717 4.40261e-22 1.12966)
(-1.85577 1.04306e-21 0.618636)
(-2.2628 2.88225e-23 0.473292)
(-2.36333 -1.37941e-21 0.341514)
(-2.25723 -9.96624e-22 0.408998)
(-2.21491 9.22161e-22 0.540186)
(10.4765 0 7.70065)
(8.87314 -2.13281e-21 5.98747)
(7.03477 0 4.59025)
(5.22402 1.95736e-23 3.42424)
(3.51844 0 2.48796)
(2.00291 5.58995e-23 1.72947)
(0.767736 0 1.09187)
(-1.17295 1.20549e-23 0.473658)
(-1.81178 1.39785e-21 0.434913)
(12.6086 -7.96376e-21 8.78538)
(11.8153 9.98286e-21 7.4016)
(10.6728 0 6.14487)
(9.37674 -4.25099e-24 5.03123)
(8.00812 4.27533e-24 4.0635)
(6.62887 -1.15624e-24 3.24452)
(5.32023 2.5075e-22 2.58013)
(3.98732 -3.08641e-22 2.01449)
(2.77439 1.31305e-23 1.54056)
(13.7411 -2.36392e-20 9.01965)
(13.5142 5.59267e-21 8.07326)
(12.9697 0 7.0835)
(12.1989 0 6.12842)
(11.2735 0 5.24485)
(10.252 0 4.45456)
(9.19124 -1.83418e-22 3.77037)
(8.11151 2.58571e-22 3.16685)
(7.03733 -2.60512e-23 2.6337)
(14.3223 1.22275e-20 8.78797)
(14.4429 -1.57424e-20 8.21484)
(14.3305 -1.08765e-20 7.51674)
(13.9978 2.01816e-21 6.77439)
(13.4836 0 6.03502)
(12.8338 0 5.32954)
(12.0917 -3.79181e-22 4.67809)
(11.29 -4.19012e-22 4.08247)
(10.4523 4.8587e-22 3.54383)
(14.5904 -1.34519e-20 8.32612)
(14.8948 1.09042e-20 8.01457)
(15.0593 0 7.5644)
(15.0472 -1.94509e-21 7.03102)
(14.8652 0 6.45594)
(14.5417 1.58116e-21 5.87094)
(14.107 -4.62915e-22 5.29977)
(13.5879 7.92681e-22 4.75573)
(13.0059 5.10833e-22 4.2463)
(14.6955 -4.34449e-20 7.77037)
(15.0733 1.18137e-20 7.61951)
(15.3882 -1.54944e-20 7.35046)
(15.5821 -1.03548e-20 6.99143)
(15.6395 1.01929e-20 6.57109)
(15.5718 5.48523e-22 6.11523)
(15.3962 -8.33069e-22 5.64556)
(15.1298 0 5.17793)
(14.7883 -1.6011e-22 4.72331)
(14.7214 4.14561e-21 7.20285)
(15.109 3.9554e-20 7.13896)
(15.4854 1.47943e-20 6.98673)
(15.7909 -1.09315e-20 6.75593)
(15.9995 0 6.46253)
(16.1108 -2.01466e-21 6.12366)
(16.131 -5.99613e-21 5.75572)
(16.0679 6.70009e-21 5.37276)
(15.9305 -2.19102e-21 4.98618)
(15.0763 -4.15818e-20 6.63991)
(15.4614 -3.26335e-20 6.55563)
(15.8119 1.44656e-20 6.40976)
(16.1007 1.36959e-20 6.20955)
(16.3213 0 5.96465)
(16.4732 0 5.68562)
(16.5575 0 5.38292)
(16.577 -3.36486e-21 5.06615)
(16.0561 4.33207e-20 5.87689)
(16.332 -1.46812e-20 5.70088)
(16.5608 8.50972e-21 5.49215)
(16.7397 -1.82241e-20 5.25752)
(16.8678 2.07868e-21 5.004)
(16.4994 1.38623e-21 5.22463)
(16.7305 -9.75876e-21 5.04321)
(16.9248 9.05315e-21 4.84206)
(16.843 0 4.61764)
)
;

boundaryField
{
    inlet
    {
        type            fixedValue;
        value           nonuniform 0();
    }
    outlet
    {
        type            zeroGradient;
    }
    flap
    {
        type            movingWallVelocity;
        value           nonuniform List<vector> 
33
(
(0 0 0)
(7.72287e-18 -2.32199e-33 2.31362e-16)
(-1.26614e-15 0 -2.76977e-14)
(1.92406e-17 0 3.64881e-16)
(0 0 0)
(-2.19505e-17 0 -3.89654e-16)
(-2.99819e-15 0 -5.51596e-14)
(8.80909e-18 -2.77556e-14 1.746e-16)
(0 0 0)
(-4.58353e-15 -2.77556e-14 -1.10833e-13)
(0 0 0)
(-8.15619e-15 0 -2.21745e-13)
(-4.0493e-15 -2.77556e-14 -1.10747e-13)
(0 -2.77556e-14 0)
(0 0 0)
(6.56951e-15 -2.77556e-14 -2.45965e-16)
(-9.85299e-15 -5.55112e-14 3.5605e-16)
(8.33778e-15 -2.77556e-14 -3.13527e-16)
(-1.20588e-16 0 -6.9368e-15)
(-1.55644e-17 0 -4.64496e-16)
(0 0 0)
(-2.93634e-15 0 -5.57221e-14)
(-2.16677e-17 4.69985e-33 -3.87144e-16)
(3.11862e-15 2.11476e-33 5.53354e-14)
(-3.04841e-15 0 -5.60996e-14)
(2.79521e-15 9.45052e-34 5.537e-14)
(-5.06937e-15 0 -1.1079e-13)
(0 0 0)
(-2.03429e-17 0 -5.30943e-16)
(-4.10344e-15 -2.77556e-14 -1.11382e-13)
(-8.11002e-15 -2.77556e-14 -2.21748e-13)
(4.0725e-15 0 1.10873e-13)
(-4.10811e-15 -2.77556e-14 -1.1087e-13)
)
;
    }
    upperWall
    {
        type            noSlip;
    }
    lowerWall
    {
        type            noSlip;
    }
    frontAndBack
    {
        type            empty;
    }
    procBoundary4to1
    {
        type            processor;
        value           nonuniform List<vector> 
30
(
(9.7509 -9.60086e-20 5.37726)
(9.7509 -9.60086e-20 5.37726)
(10.2403 0 5.71515)
(10.418 -1.12367e-20 6.16944)
(10.418 -1.12367e-20 6.16944)
(11.0468 2.77477e-22 6.36619)
(11.3481 1.96421e-20 6.78184)
(11.3481 1.96421e-20 6.78184)
(12.045 -4.59398e-20 6.76446)
(12.4439 3.23722e-20 7.08061)
(12.4439 3.23722e-20 7.08061)
(13.0946 -6.68982e-20 6.83595)
(13.5763 6.00418e-20 7.0234)
(13.8491 0 7.0917)
(13.8491 0 7.0917)
(14.1593 -8.52632e-23 6.598)
(14.3546 0 6.63085)
(14.7087 -4.79592e-20 6.66178)
(14.7087 -4.79592e-20 6.66178)
(15.0129 3.96133e-20 6.15512)
(15.3808 -7.37305e-20 6.1078)
(15.7366 6.06769e-20 6.01414)
(15.7366 6.06769e-20 6.01414)
(15.9396 0 5.5101)
(16.2345 -1.5917e-21 5.38163)
(16.2345 -1.5917e-21 5.38163)
(16.3614 2.47711e-21 4.91979)
(16.6148 2.55056e-20 4.77795)
(16.6148 2.55056e-20 4.77795)
(16.6888 2.30285e-20 4.35904)
)
;
    }
    procBoundary4to2
    {
        type            processor;
        value           nonuniform List<vector> 
11
(
(-2.12684 1.36156e-21 0.354709)
(1.68618 0 1.1299)
(5.99099 1.48526e-24 2.16973)
(9.59723 2.38152e-22 3.06302)
(12.3784 1.81908e-22 3.77632)
(14.3862 8.24283e-23 4.28971)
(15.7286 -2.01573e-21 4.60509)
(16.5368 -6.10464e-22 4.7437)
(16.9461 -1.27385e-20 4.73829)
(17.0808 6.3397e-21 4.62604)
(17.0437 1.10215e-21 4.44224)
)
;
    }
    procBoundary4to3
    {
        type            processor;
        value           nonuniform List<vector> 
19
(
(3.97631 -3.17739e-20 0.266342)
(4.83294 -1.05043e-20 0.673771)
(5.25496 2.07819e-21 1.10477)
(5.50589 2.87677e-19 1.49671)
(5.68683 8.03322e-20 1.86308)
(5.84431 2.78431e-19 2.21238)
(6.00136 -3.12465e-19 2.5491)
(6.17006 3.06379e-19 2.87512)
(6.35714 2.59865e-19 3.19012)
(6.56645 3.67284e-20 3.49205)
(6.79993 -3.01153e-19 3.77755)
(7.05796 1.74901e-20 4.04236)
(7.33936 0 4.28163)
(7.64132 -2.6209e-19 4.49045)
(7.95935 0 4.6641)
(8.29926 1.22455e-19 4.80256)
(8.64975 -3.57798e-21 4.9)
(9.00267 -8.2597e-22 4.95489)
(9.34982 8.04726e-22 4.96699)
)
;
    }
    procBoundary4to5
    {
        type            processor;
        value           nonuniform List<vector> 
18
(
(0.88392 1.097e-22 0.015779)
(0.964113 2.04068e-22 0.0266077)
(0.800446 -4.24861e-22 0.0298378)
(0.536072 9.20621e-22 0.035019)
(0.147715 -1.21185e-22 0.0634648)
(-0.292704 -8.86291e-22 0.0987845)
(-0.669048 9.45277e-22 0.127835)
(-0.978276 9.48737e-22 0.15455)
(-1.2385 9.47878e-22 0.180558)
(-1.46667 2.64184e-22 0.207723)
(-1.67355 0 0.236918)
(-1.86412 -1.30656e-21 0.268179)
(-2.03762 -1.48046e-21 0.300947)
(-2.18579 1.66212e-21 0.334042)
(-2.29356 0 0.364372)
(-2.31168 0 0.4376)
(-2.31168 0 0.4376)
(-2.27884 0 0.524198)
)
;
    }
}


// ************************************************************************* //
