/*--------------------------------*- C++ -*----------------------------------*\
| =========                 |                                                 |
| \\      /  F ield         | OpenFOAM: The Open Source CFD Toolbox           |
|  \\    /   O peration     | Version:  dev                                   |
|   \\  /    A nd           | Web:      www.OpenFOAM.org                      |
|    \\/     M anipulation  |                                                 |
\*---------------------------------------------------------------------------*/
FoamFile
{
    version     2.0;
    format      ascii;
    class       volScalarField;
    location    "3.95";
    object      p;
}
// * * * * * * * * * * * * * * * * * * * * * * * * * * * * * * * * * * * * * //

dimensions      [0 2 -2 0 0 0 0];

internalField   nonuniform List<scalar> 
465
(
149.255
149.16
149.413
149.979
150.761
151.72
152.852
154.158
155.632
157.27
159.064
161.008
163.092
165.305
167.632
170.05
172.534
175.049
177.554
179.998
182.324
149.064
149.067
149.344
149.908
150.687
151.643
152.771
154.071
155.538
157.167
158.951
160.885
162.959
165.161
167.476
169.884
172.36
174.869
177.373
179.821
182.157
148.866
148.94
149.236
149.791
150.556
151.5
152.613
153.894
155.34
156.944
158.701
160.603
162.642
164.806
167.08
169.445
171.877
174.345
176.811
179.229
181.548
148.644
148.75
149.058
149.604
150.355
151.282
152.375
153.632
155.049
156.62
158.339
160.197
162.187
164.296
166.511
168.812
171.177
173.578
175.98
178.343
180.621
148.387
148.508
148.824
149.362
150.097
151.003
152.07
153.296
154.676
156.204
157.874
159.676
161.603
163.643
165.782
168.002
170.281
172.595
174.913
177.2
179.418
148.091
148.218
148.537
149.064
149.779
150.659
151.695
152.884
154.219
155.696
157.307
159.043
160.896
162.853
164.902
167.025
169.203
171.412
173.627
175.819
177.956
147.755
147.883
148.198
148.712
149.404
150.254
151.254
152.399
153.683
155.1
156.643
158.303
160.071
161.934
163.88
165.892
167.951
170.039
172.132
174.206
176.238
147.377
147.503
147.811
148.309
148.975
149.791
150.749
151.844
153.071
154.422
155.889
157.463
159.135
160.892
162.722
164.608
166.535
168.482
170.432
172.364
174.261
146.959
147.081
147.378
147.856
148.494
149.272
150.184
151.225
152.387
153.664
155.047
156.528
158.094
159.734
161.436
163.183
164.959
166.748
168.531
170.293
172.019
146.501
146.617
146.901
147.357
147.963
148.7
149.562
150.543
151.636
152.834
154.126
155.504
156.955
158.469
160.03
161.624
163.234
164.844
166.436
167.995
169.508
146.006
146.115
146.383
146.814
147.385
148.079
148.887
149.804
150.823
151.935
153.13
154.398
155.728
157.105
158.515
159.943
161.37
162.781
164.155
165.477
166.733
145.474
145.576
145.826
146.231
146.765
147.411
148.162
149.012
149.953
150.974
152.067
153.22
154.419
155.652
156.901
158.151
159.381
160.573
161.705
162.757
163.708
144.908
145.002
145.234
145.609
146.104
146.701
147.393
148.172
149.03
149.958
150.944
151.976
153.04
154.12
155.201
156.262
157.282
158.238
159.105
159.856
160.461
144.31
144.395
144.607
144.952
145.407
145.953
146.582
147.288
148.062
148.892
149.768
150.675
151.599
152.523
153.428
154.292
155.092
155.8
156.385
156.81
157.034
143.683
143.759
143.95
144.263
144.676
145.169
145.735
146.366
147.053
147.784
148.546
149.326
150.106
150.87
151.595
152.259
152.832
153.284
153.575
153.66
153.482
143.252
143.532
143.901
144.34
144.84
145.393
145.99
146.618
147.264
147.912
148.546
149.145
149.686
150.142
150.483
150.671
150.661
150.397
149.806
142.751
143.074
143.455
143.887
144.359
144.863
145.385
145.91
146.424
146.906
147.336
147.688
147.934
148.038
147.959
147.645
147.032
146.036
142.201
142.523
142.884
143.274
143.682
144.096
144.499
144.875
145.205
145.464
145.627
145.662
145.531
145.19
144.582
143.636
142.262
141.547
141.836
142.142
142.454
142.758
143.038
143.276
143.453
143.543
143.519
143.347
142.99
142.398
141.514
140.265
138.561
140.745
140.967
141.182
141.376
141.534
141.637
141.662
141.587
141.382
141.013
140.44
139.617
138.484
136.971
134.993
139.754
139.873
139.959
139.997
139.966
139.846
139.611
139.234
138.679
137.909
136.876
135.526
133.793
131.6
138.515
138.435
138.275
138.015
137.63
137.092
136.367
135.418
134.203
132.67
130.761
128.411
136.857
136.576
136.184
135.658
134.972
134.094
132.989
131.619
129.937
127.896
125.439
134.363
133.709
132.89
131.877
130.639
129.141
127.345
125.21
122.693
130.859
129.73
128.382
126.783
124.903
122.709
120.168
127.665
126.227
124.553
122.616
120.393
117.858
122.455
120.486
118.257
115.751
116.294
113.835
)
;

boundaryField
{
    inlet
    {
        type            zeroGradient;
    }
    outlet
    {
        type            fixedValue;
        value           nonuniform 0();
    }
    flap
    {
        type            zeroGradient;
    }
    upperWall
    {
        type            zeroGradient;
    }
    lowerWall
    {
        type            zeroGradient;
    }
    frontAndBack
    {
        type            empty;
    }
    procBoundary3to0
    {
        type            processor;
        value           nonuniform List<scalar> 
34
(
143.016
143.083
143.083
142.506
142.506
141.925
141.925
141.284
141.284
140.529
140.529
139.617
139.617
138.51
138.534
138.534
137.05
137.05
135.274
134.878
134.878
132.566
131.796
131.796
128.891
128.891
125.69
124.183
124.183
120.492
118.509
118.509
114.496
112.096
)
;
    }
    procBoundary3to1
    {
        type            processor;
        value           nonuniform List<scalar> 9(132.442 128.857 125.544 122.509 119.748 117.248 114.99 112.956 111.126);
    }
    procBoundary3to4
    {
        type            processor;
        value           nonuniform List<scalar> 
19
(
184.468
184.318
183.709
182.763
181.526
180.008
178.206
176.108
173.699
170.968
167.912
164.542
160.89
157.007
152.968
148.794
144.542
140.339
136.282
)
;
    }
}


// ************************************************************************* //
