/*--------------------------------*- C++ -*----------------------------------*\
| =========                 |                                                 |
| \\      /  F ield         | OpenFOAM: The Open Source CFD Toolbox           |
|  \\    /   O peration     | Version:  dev                                   |
|   \\  /    A nd           | Web:      www.OpenFOAM.org                      |
|    \\/     M anipulation  |                                                 |
\*---------------------------------------------------------------------------*/
FoamFile
{
    version     2.0;
    format      ascii;
    class       volVectorField;
    location    "3.95";
    object      U;
}
// * * * * * * * * * * * * * * * * * * * * * * * * * * * * * * * * * * * * * //

dimensions      [0 1 -1 0 0 0 0];

internalField   nonuniform List<vector> 
465
(
(9.94106 0 0.0195515)
(9.87296 0 0.0287143)
(9.77356 8.77705e-23 0.0352953)
(9.64809 -8.98999e-23 0.0419405)
(9.50272 0 0.0488136)
(9.33876 0 0.055901)
(9.15541 -1.18586e-21 0.0633392)
(8.95168 -4.13663e-22 0.0712927)
(8.72669 -3.69338e-24 0.0799035)
(8.47948 0 0.0893015)
(8.20884 1.18615e-23 0.0996165)
(7.91341 -3.75455e-21 0.110982)
(7.59169 -1.95627e-21 0.123533)
(7.24212 -6.13537e-21 0.1374)
(6.86312 8.4798e-21 0.152702)
(6.45323 -4.38577e-21 0.169532)
(6.01123 4.60288e-21 0.187933)
(5.53633 4.80171e-21 0.207875)
(5.02844 5.01089e-21 0.229215)
(4.48846 0 0.251652)
(3.91865 0 0.27467)
(9.9968 0 0.0397461)
(9.98107 0 0.0613834)
(9.93688 -3.50367e-22 0.0782056)
(9.86586 3.58659e-22 0.095652)
(9.77291 0 0.114096)
(9.65939 0 0.133437)
(9.52468 -7.84984e-22 0.153935)
(9.36786 -1.62261e-21 0.175943)
(9.18808 8.39593e-22 0.199774)
(8.98438 0 0.225709)
(8.7556 5.42448e-21 0.254024)
(8.50037 5.67471e-21 0.284992)
(8.21716 -9.70347e-21 0.318867)
(7.90436 1.4117e-20 0.355865)
(7.56031 -8.32792e-21 0.39613)
(7.18341 -1.3227e-20 0.439688)
(6.77225 -4.81107e-21 0.486383)
(6.32578 1.40752e-20 0.535791)
(5.84358 -4.47256e-20 0.587119)
(5.32615 4.0915e-20 0.639089)
(4.7753 0 0.689803)
(9.99385 1.66451e-22 0.0430158)
(9.97512 2.89406e-21 0.074538)
(9.93287 3.50964e-22 0.102216)
(9.86651 -7.16357e-22 0.130955)
(9.77965 0 0.161441)
(9.67377 1.52657e-21 0.193662)
(9.54854 6.46201e-24 0.227956)
(9.40325 1.62002e-21 0.26482)
(9.23721 0 0.304733)
(9.04966 0 0.348154)
(8.83962 0 0.395538)
(8.60592 0 0.447344)
(8.34724 -1.5538e-20 0.504009)
(8.06211 3.6051e-20 0.565918)
(7.749 -8.22465e-21 0.633349)
(7.40632 -1.29707e-20 0.7064)
(7.03255 0 0.784883)
(6.62637 0 0.868185)
(6.18685 -1.94707e-20 0.955089)
(5.71368 0 1.04357)
(5.20758 0 1.13056)
(9.99217 0 0.0489489)
(9.97118 -5.1011e-21 0.0918538)
(9.92878 -3.48403e-22 0.131663)
(9.8637 0 0.171974)
(9.77861 0 0.214)
(9.67499 -4.55487e-21 0.258119)
(9.55272 -4.70807e-21 0.304851)
(9.41131 -2.81167e-23 0.354854)
(9.25025 -1.10397e-23 0.408792)
(9.069 0 0.467305)
(8.86684 0 0.531035)
(8.64293 0 0.600625)
(8.39629 -3.83964e-21 0.676699)
(8.12583 -8.08122e-21 0.759829)
(7.8304 -2.51384e-20 0.850468)
(7.50876 7.72732e-20 0.948863)
(7.15969 4.96777e-22 1.05492)
(6.78199 -3.68458e-20 1.16804)
(6.37462 1.93354e-20 1.28685)
(5.93687 0 1.40895)
(5.46855 0 1.53054)
(9.99138 -5.30173e-21 0.0563963)
(9.9692 2.71819e-21 0.109268)
(9.92673 -5.56385e-21 0.159797)
(9.86278 1.43324e-21 0.210655)
(9.77948 -2.94097e-21 0.263416)
(9.6781 7.57527e-21 0.318823)
(9.55862 -3.11754e-21 0.37754)
(9.42063 3.20449e-21 0.44032)
(9.26372 1.00033e-20 0.507933)
(9.08743 7.03189e-23 0.581133)
(8.8912 -7.0666e-21 0.660673)
(8.67438 1.47989e-20 0.747307)
(8.4362 1.87113e-22 0.841772)
(8.17586 -2.36193e-20 0.944753)
(7.89249 -2.48309e-20 1.05682)
(7.58519 2.53215e-20 1.17834)
(7.25302 -7.11418e-20 1.30932)
(6.895 1.65055e-19 1.44923)
(6.51019 -9.47049e-20 1.59673)
(6.09764 1.97147e-20 1.74931)
(5.65656 -1.24474e-19 1.90289)
(9.99103 1.0922e-20 0.0644984)
(9.9684 3.39632e-22 0.126666)
(9.92625 3.4763e-21 0.187363)
(9.86368 1.42355e-21 0.24862)
(9.78254 0 0.31205)
(9.68388 2.99826e-21 0.378608)
(9.56769 3.09719e-21 0.44908)
(9.43364 0 0.5243)
(9.28136 0 0.605129)
(9.11046 6.86823e-21 0.692429)
(8.92045 7.17821e-21 0.787055)
(8.71077 -2.92392e-20 0.889861)
(8.48079 3.78175e-20 1.00168)
(8.22982 -1.55824e-20 1.1233)
(7.95714 3.26584e-20 1.25539)
(7.662 8.88135e-21 1.39841)
(7.34359 -3.47223e-20 1.55247)
(7.00105 -1.81879e-20 1.71718)
(6.63337 9.45714e-20 1.8913)
(6.23942 -2.54161e-19 2.07245)
(5.81787 1.20288e-19 2.25663)
(9.99093 -5.28912e-21 0.0728394)
(9.96835 0 0.143948)
(9.92693 0 0.214317)
(9.86606 0 0.285593)
(9.78743 -2.93071e-21 0.359315)
(9.69194 5.99654e-21 0.43659)
(9.5796 3.09506e-21 0.518337)
(9.4501 3.88144e-23 0.605487)
(9.30314 -6.55409e-21 0.698993)
(9.13838 6.77935e-21 0.799811)
(8.95538 1.41139e-20 0.908889)
(8.75363 -2.16759e-20 1.02717)
(8.53255 -7.52612e-21 1.15557)
(8.29151 0 1.29496)
(8.02985 -8.06983e-21 1.44609)
(7.74681 0 1.60953)
(7.44158 0 1.78553)
(7.11321 -7.20027e-20 1.97384)
(6.76054 7.37e-20 2.17346)
(6.38208 1.91042e-20 2.38232)
(5.9759 0 2.59677)
(9.99097 0 0.0811811)
(9.96881 0 0.160939)
(9.9285 0 0.240508)
(9.86963 -5.66046e-21 0.321356)
(9.79385 0 0.404954)
(9.70198 -5.99763e-21 0.492507)
(9.594 -6.17362e-21 0.585058)
(9.46967 1.26962e-20 0.683627)
(9.32873 -6.53053e-21 0.789253)
(9.17087 -6.76741e-21 0.902975)
(8.99572 7.06131e-21 1.02583)
(8.8028 -2.15909e-20 1.15884)
(8.59159 2.22269e-20 1.30301)
(8.36146 0 1.45931)
(8.11174 -3.20274e-20 1.6286)
(7.84165 1.63561e-20 1.81155)
(7.55026 6.85786e-20 2.0086)
(7.23643 -1.41108e-19 2.21973)
(6.89872 -8.31296e-22 2.44426)
(6.5352 5.61323e-20 2.68058)
(6.14329 0 2.92568)
(9.99111 0 0.0893721)
(9.96964 0 0.177476)
(9.93077 1.3789e-21 0.265793)
(9.87419 2.83223e-21 0.355748)
(9.8016 -1.46099e-21 0.448766)
(9.71376 -2.9775e-21 0.54612)
(9.61064 0 0.648954)
(9.49204 -2.71712e-23 0.758374)
(9.35775 6.52085e-21 0.875496)
(9.20753 -6.68968e-21 1.00144)
(9.04104 6.93848e-21 1.13732)
(8.85787 0 1.28425)
(8.65751 2.22544e-20 1.44334)
(8.43937 -3.79024e-20 1.61565)
(8.20275 0 1.80216)
(7.94683 3.25243e-20 2.00373)
(7.67054 -1.67211e-20 2.221)
(7.37255 1.7271e-20 2.45426)
(7.05109 1.78366e-20 2.70328)
(6.70376 7.45504e-20 2.96706)
(6.32729 7.77513e-20 3.24345)
(9.99132 0 0.0973088)
(9.97075 -1.13641e-20 0.193419)
(9.93358 6.8518e-22 0.290037)
(9.8796 0 0.388612)
(9.81052 2.89543e-21 0.490554)
(9.72708 -2.93625e-21 0.597187)
(9.62926 -3.40317e-23 0.709735)
(9.51692 6.22897e-21 0.829385)
(9.38988 -6.44749e-21 0.957322)
(9.24797 1.33191e-20 1.09474)
(9.0909 -2.06352e-20 1.24284)
(8.91832 2.11506e-20 1.40282)
(8.72977 -2.93528e-20 1.57587)
(8.5247 7.27245e-21 1.7632)
(8.30242 3.09527e-20 1.96592)
(8.06204 -1.61266e-20 2.18509)
(7.80245 -4.993e-20 2.42163)
(7.52212 5.08403e-20 2.67622)
(7.21903 -3.525e-20 2.94916)
(6.89036 0 3.24023)
(6.53228 -1.85945e-20 3.54834)
(9.99158 1.04169e-20 0.104915)
(9.97207 1.06915e-20 0.208651)
(9.93685 1.36838e-21 0.313111)
(9.88573 4.79004e-24 0.4198)
(9.82044 7.18504e-21 0.530139)
(9.74175 8.86354e-21 0.645488)
(9.64965 -6.08232e-21 0.767141)
(9.54402 -6.25596e-21 0.896352)
(9.42477 6.43846e-21 1.03437)
(9.29178 -6.62981e-21 1.18247)
(9.14483 2.05026e-20 1.3419)
(8.98363 -2.79957e-20 1.51397)
(8.8078 2.18416e-20 1.69996)
(8.61683 -2.96655e-20 1.90119)
(8.41009 -3.84862e-20 2.11896)
(8.18671 2.36408e-20 2.35455)
(7.94553 6.55106e-20 2.60918)
(7.68499 -1.34378e-19 2.88398)
(7.4029 8.63229e-20 3.1799)
(7.09621 7.1497e-20 3.49758)
(6.76069 -4.54607e-20 3.83723)
(9.99188 -1.04157e-20 0.112134)
(9.97356 -6.65039e-22 0.223079)
(9.94049 2.04235e-21 0.334902)
(9.89246 -1.39271e-21 0.44918)
(9.83123 -1.71532e-20 0.567356)
(9.75759 -5.88721e-21 0.690826)
(9.67156 -3.31832e-23 0.820937)
(9.57307 1.24034e-20 0.959003)
(9.46209 1.39864e-25 1.10633)
(9.33856 0 1.26425)
(9.20234 0 1.43408)
(9.05323 -6.97368e-21 1.6172)
(8.89093 3.57797e-20 1.81499)
(8.71504 -2.19846e-20 2.0289)
(8.52499 8.00074e-23 2.2604)
(8.32001 -1.57167e-20 2.511)
(8.09901 6.41612e-20 2.78225)
(7.86048 -3.28699e-20 3.07574)
(7.60228 -5.96307e-20 3.39312)
(7.32136 -4.28503e-22 3.73599)
(7.01344 1.33962e-19 4.10594)
(9.99222 -1.03338e-20 0.11892)
(9.97518 3.31118e-22 0.236621)
(9.94443 -3.38411e-22 0.355309)
(9.89969 0 0.476633)
(9.84276 1.14121e-20 0.602064)
(9.77444 0 0.733029)
(9.69479 -9.0185e-21 0.870919)
(9.6038 -3.10549e-21 1.01709)
(9.50149 6.27001e-21 1.17291)
(9.38788 1.30516e-20 1.33974)
(9.26294 -2.67497e-20 1.51897)
(9.12654 2.75031e-20 1.71204)
(8.9785 -2.82785e-20 1.92041)
(8.81854 2.902e-20 2.14565)
(8.64622 3.74986e-20 2.38939)
(8.46094 -3.83274e-20 2.65335)
(8.26178 0 2.9394)
(8.04744 0 3.24962)
(7.81601 -1.65986e-20 3.58627)
(7.56479 -3.40898e-20 3.95195)
(7.28982 3.47647e-20 4.34963)
(9.99257 1.03328e-20 0.125238)
(9.97691 -1.0188e-20 0.249213)
(9.94861 -3.36872e-22 0.374248)
(9.90735 0 0.502057)
(9.8549 9.8789e-21 0.634142)
(9.79212 1.3033e-20 0.771956)
(9.71912 0 0.916923)
(9.63592 0 1.07044)
(9.54262 -6.29993e-21 1.2339)
(9.43933 -1.28927e-20 1.40871)
(9.32609 6.60447e-21 1.59629)
(9.20292 0 1.79814)
(9.06974 0 2.0158)
(8.92643 -1.43484e-20 2.25091)
(8.77275 0 2.50523)
(8.60829 2.27971e-20 2.78068)
(8.43243 -3.09095e-20 3.07942)
(8.24421 -3.1806e-20 3.40388)
(8.04221 4.06207e-20 3.75693)
(7.82434 0 4.14201)
(7.58749 -1.04707e-21 4.56337)
(9.99295 -4.01114e-23 0.131059)
(9.97873 2.10253e-20 0.260803)
(9.95299 3.35862e-22 0.391645)
(9.91533 -1.13088e-20 0.525356)
(9.86753 -1.12916e-20 0.663465)
(9.81047 -2.16431e-20 0.807447)
(9.74432 -1.477e-21 0.958748)
(9.66914 3.04309e-21 1.11879)
(9.58513 3.13761e-21 1.28899)
(9.49245 3.95886e-23 1.47078)
(9.39127 -6.57683e-21 1.66561)
(9.28171 1.35104e-20 1.87499)
(9.16386 7.1027e-23 2.10053)
(9.03776 -7.00647e-21 2.34393)
(8.90341 -1.45476e-20 2.60704)
(8.76066 2.23207e-20 2.8919)
(8.60926 -7.5514e-21 3.20088)
(8.44872 3.85696e-21 3.53669)
(8.27828 0 3.90261)
(8.09674 0 4.30272)
(7.90231 7.87071e-22 4.74217)
(9.95761 0 0.407753)
(9.92375 1.05605e-20 0.546895)
(9.88084 0 0.690524)
(9.8298 1.10863e-20 0.840127)
(9.77084 0 0.997164)
(9.70411 0 1.16307)
(9.62985 -5.93136e-21 1.33927)
(9.54835 0 1.52719)
(9.45987 6.23084e-21 1.72831)
(9.36468 1.73238e-23 1.94414)
(9.26303 1.97384e-20 2.17631)
(9.15517 -1.3443e-20 2.42653)
(9.04133 2.06579e-20 2.6967)
(8.92171 -1.40812e-20 2.98895)
(8.79648 -9.65392e-24 3.3057)
(8.66574 1.09853e-20 3.64983)
(8.52951 0 4.02482)
(8.38773 7.59853e-21 4.43503)
(8.24024 -7.49151e-21 4.88606)
(9.93258 -1.01979e-20 0.56662)
(9.89476 -1.04394e-20 0.715203)
(9.84997 0 0.869801)
(9.79846 9.5719e-21 1.03188)
(9.74045 -1.41404e-21 1.20286)
(9.67627 8.66583e-21 1.38417)
(9.60629 5.88083e-21 1.57724)
(9.5309 -6.07885e-21 1.78352)
(9.4505 -6.16353e-21 2.00452)
(9.36554 6.35148e-21 2.24184)
(9.27646 -6.42993e-21 2.49717)
(9.18379 -6.71509e-21 2.7724)
(9.08806 0 3.06963)
(8.98991 -1.73501e-20 3.39126)
(8.89005 2.10962e-20 3.74013)
(8.78935 -7.15571e-21 4.11968)
(8.68893 -1.79116e-21 4.53413)
(8.5903 -1.12995e-22 4.98889)
(9.90922 1.01913e-20 0.737204)
(9.87087 0 0.89615)
(9.82704 -1.10189e-20 1.06255)
(9.778 -1.05191e-20 1.23782)
(9.72415 0 1.42336)
(9.66596 -2.87821e-21 1.62056)
(9.60394 -2.91919e-21 1.83085)
(9.53864 6.01313e-21 2.05569)
(9.47066 4.19713e-23 2.29662)
(9.40069 -6.16041e-21 2.55528)
(9.32952 -6.42249e-21 2.83346)
(9.25803 4.80807e-23 3.13315)
(9.18731 -9.96e-21 3.45661)
(9.11865 0 3.80646)
(9.0537 0 4.18581)
(8.99462 1.74471e-21 4.59841)
(8.94437 1.10029e-22 5.04884)
(9.89234 -1.00452e-20 0.918793)
(9.85635 -1.1567e-20 1.08872)
(9.81646 1.02694e-20 1.2674)
(9.77312 5.71364e-21 1.45619)
(9.7269 -5.49711e-21 1.65644)
(9.67842 -5.61811e-21 1.8695)
(9.62836 -5.73858e-21 2.09677)
(9.57749 5.93018e-21 2.33969)
(9.5267 6.0545e-21 2.59979)
(9.47703 0 2.87871)
(9.42969 1.01166e-22 3.17825)
(9.38614 0 3.5004)
(9.34818 0 3.84741)
(9.31808 1.61942e-21 4.22186)
(9.29876 -1.6479e-21 4.62671)
(9.29411 0 5.06537)
(9.88615 -2.4181e-21 1.11009)
(9.8555 0 1.29126)
(9.82276 -4.77347e-23 1.48227)
(9.78858 4.69759e-21 1.68442)
(9.75366 1.15887e-20 1.89896)
(9.71882 5.60008e-21 2.1272)
(9.68497 0 2.37044)
(9.65317 -9.03639e-23 2.63006)
(9.62467 -2.75583e-22 2.9075)
(9.60093 6.41212e-21 3.20428)
(9.58373 0 3.52205)
(9.5752 -3.06205e-21 3.86258)
(9.57803 -3.05747e-21 4.2278)
(9.59557 7.82612e-21 4.61972)
(9.63212 0 5.04047)
(9.89479 2.47401e-21 1.30907)
(9.87263 -7.60169e-21 1.50125)
(9.85042 0 1.70412)
(9.82895 -5.29459e-21 1.91884)
(9.80912 0 2.14657)
(9.79197 2.73338e-21 2.38848)
(9.77869 -3.75389e-23 2.64573)
(9.77069 -2.78359e-21 2.91953)
(9.76959 -2.84886e-21 3.21108)
(9.77737 0 3.52163)
(9.79637 5.85172e-21 3.85242)
(9.82945 -3.02343e-21 4.20466)
(9.88007 1.03005e-20 4.57948)
(9.95251 -1.20056e-20 4.97778)
(9.91183 -4.98505e-21 1.71525)
(9.90353 0 1.92883)
(9.89833 -5.17339e-21 2.15461)
(9.89735 5.24846e-21 2.39356)
(9.90186 5.28881e-21 2.64664)
(9.91336 8.456e-23 2.91477)
(9.93359 -2.71356e-21 3.19884)
(9.96456 5.59572e-21 3.49966)
(10.0087 2.78666e-21 3.81794)
(10.0688 -5.66353e-21 4.15424)
(10.1482 -2.8077e-21 4.50886)
(10.2509 0 4.88168)
(9.97667 3.1442e-23 1.92876)
(9.98554 0 2.15118)
(9.99998 1.00664e-20 2.38564)
(10.0213 -1.55254e-20 2.63287)
(10.0511 1.0458e-20 2.89351)
(10.091 1.31644e-20 3.16811)
(10.143 -1.33848e-20 3.45708)
(10.2096 -5.18017e-23 3.76065)
(10.2932 2.73509e-21 4.0788)
(10.397 5.88333e-23 4.41115)
(10.5244 0 4.75682)
(10.0988 -4.92459e-21 2.36487)
(10.1358 9.8929e-21 2.60472)
(10.1823 -1.01602e-20 2.85627)
(10.2401 1.00729e-20 3.11974)
(10.3109 -1.79105e-20 3.39518)
(10.397 5.21808e-21 3.68241)
(10.5006 0 3.98094)
(10.6244 -1.5332e-20 4.28987)
(10.7712 2.08663e-20 4.60781)
(10.3059 4.82932e-21 2.80382)
(10.3795 1.69634e-20 3.05483)
(10.4666 -4.1785e-20 3.31549)
(10.5693 2.24139e-20 3.58529)
(10.6894 0 3.86337)
(10.8291 -4.96323e-21 4.14851)
(10.9907 0 4.43901)
(10.5081 -2.32838e-21 2.97467)
(10.6092 2.38352e-21 3.2197)
(10.7256 0 3.47145)
(10.8589 -1.88632e-20 3.72883)
(11.0108 2.15982e-20 3.99042)
(11.1829 -1.87132e-20 4.25438)
(10.8653 0 3.34306)
(11.0088 0 3.57993)
(11.1696 -2.03321e-20 3.81865)
(11.3488 1.8385e-20 4.0574)
(11.3063 1.86046e-21 3.63597)
(11.4896 -1.76787e-20 3.85107)
)
;

boundaryField
{
    inlet
    {
        type            fixedValue;
        value           uniform (10 0 0);
    }
    outlet
    {
        type            zeroGradient;
    }
    flap
    {
        type            movingWallVelocity;
        value           nonuniform 0();
    }
    upperWall
    {
        type            noSlip;
    }
    lowerWall
    {
        type            noSlip;
    }
    frontAndBack
    {
        type            empty;
    }
    procBoundary3to0
    {
        type            processor;
        value           nonuniform List<vector> 
34
(
(9.99335 -9.81716e-21 0.136455)
(9.98065 1.00823e-20 0.271546)
(9.98065 1.00823e-20 0.271546)
(9.96247 -9.96586e-21 0.422557)
(9.96247 -9.96586e-21 0.422557)
(9.94177 -1.98529e-20 0.584262)
(9.94177 -1.98529e-20 0.584262)
(9.92408 -1.23301e-21 0.756224)
(9.92408 -1.23301e-21 0.756224)
(9.91419 -4.959e-21 0.937465)
(9.91419 -4.959e-21 0.937465)
(9.91619 -9.71949e-21 1.12637)
(9.91619 -9.71949e-21 1.12637)
(9.93397 4.78489e-21 1.32055)
(9.92227 -9.74695e-21 1.51283)
(9.92227 -9.74695e-21 1.51283)
(9.97223 9.62934e-21 1.71759)
(9.97223 9.62934e-21 1.71759)
(10.0477 9.42433e-21 1.91858)
(10.0699 -4.7852e-21 2.13632)
(10.0699 -4.7852e-21 2.13632)
(10.1929 -9.39716e-21 2.33155)
(10.2442 1.90978e-20 2.56271)
(10.2442 1.90978e-20 2.56271)
(10.4207 4.6159e-21 2.73711)
(10.4207 4.6159e-21 2.73711)
(10.6251 -2.27474e-21 2.88065)
(10.7378 0 3.10957)
(10.7378 0 3.10957)
(10.9883 0 3.20223)
(11.1394 4.3959e-21 3.41911)
(11.1394 4.3959e-21 3.41911)
(11.4219 0 3.44478)
(11.607 0 3.63793)
)
;
    }
    procBoundary3to1
    {
        type            processor;
        value           nonuniform List<vector> 9((9.69318 0 5.49206) (10.052 1.46235e-21 5.40003) (10.3815 -2.81843e-21 5.27202) (10.6792 -1.295e-21 5.11431) (10.944 2.53284e-20 4.93275) (11.1762 -2.18067e-20 4.73261) (11.3768 -1.90319e-20 4.51841) (11.5473 0 4.29396) (11.6899 -1.54275e-20 4.06239));
    }
    procBoundary3to4
    {
        type            processor;
        value           nonuniform List<vector> 
19
(
(3.32305 0 0.297471)
(4.19462 0 0.736621)
(4.6707 -4.39276e-20 1.21167)
(4.97036 4.33559e-19 1.64605)
(5.18645 -1.70082e-19 2.0513)
(5.36715 -4.2151e-20 2.43763)
(5.53948 1.65771e-19 2.81106)
(5.71948 2.00723e-20 3.17462)
(5.91726 -1.80092e-21 3.52864)
(6.13947 -2.9059e-20 3.87114)
(6.39042 1.88353e-20 4.19819)
(6.67237 1.37397e-19 4.50429)
(6.9854 -3.56365e-20 4.78274)
(7.32712 0 5.02632)
(7.69231 0 5.22774)
(8.08681 1.92342e-21 5.38531)
(8.49574 -1.87104e-21 5.49096)
(8.90714 2.1468e-22 5.54278)
(9.30939 6.43729e-21 5.54168)
)
;
    }
}


// ************************************************************************* //
