/*--------------------------------*- C++ -*----------------------------------*\
| =========                 |                                                 |
| \\      /  F ield         | OpenFOAM: The Open Source CFD Toolbox           |
|  \\    /   O peration     | Version:  dev                                   |
|   \\  /    A nd           | Web:      www.OpenFOAM.org                      |
|    \\/     M anipulation  |                                                 |
\*---------------------------------------------------------------------------*/
FoamFile
{
    version     2.0;
    format      ascii;
    class       volVectorField;
    location    "2.37";
    object      U;
}
// * * * * * * * * * * * * * * * * * * * * * * * * * * * * * * * * * * * * * //

dimensions      [0 1 -1 0 0 0 0];

internalField   nonuniform List<vector> 
2790
(
(9.93994 4.64884e-20 0.018368)
(9.86841 0 0.025222)
(9.77207 -3.1663e-21 0.029573)
(9.6602 9.93913e-21 0.0340116)
(9.53729 -6.91325e-21 0.0385195)
(9.40381 -2.90347e-20 0.0430423)
(9.25938 -1.528e-20 0.0477237)
(9.10358 -6.42329e-23 0.0527154)
(8.9359 0 0.058128)
(8.75576 0 0.0640518)
(8.56239 0 0.0705878)
(8.35482 0 0.0778665)
(8.13189 4.59092e-20 0.0860417)
(7.89227 -4.23006e-20 0.0952817)
(7.6344 0 0.105772)
(7.35657 1.00963e-19 0.117724)
(7.05687 1.71523e-21 0.131376)
(6.73323 -1.03537e-19 0.146993)
(6.38342 1.10996e-19 0.164877)
(6.00509 -2.31565e-19 0.18537)
(5.59581 1.81529e-19 0.208844)
(5.15312 2.58516e-19 0.23567)
(4.67469 -5.37722e-19 0.26624)
(4.15848 2.7913e-19 0.300964)
(3.60284 7.39635e-19 0.340256)
(3.00667 -1.22178e-18 0.384401)
(2.3697 6.26103e-19 0.433255)
(1.6932 0 0.485115)
(0.970277 0 0.534114)
(0.415107 -1.03363e-18 0.478168)
(10.0055 -1.39219e-19 0.0356037)
(9.99541 0 0.0506463)
(9.96197 0 0.0609353)
(9.91092 0 0.0719115)
(9.84575 0 0.0835076)
(9.76713 5.77207e-20 0.0955174)
(9.67499 3.01687e-20 0.108228)
(9.56908 4.77285e-20 0.121975)
(9.44905 1.39723e-22 0.137015)
(9.31443 7.00338e-20 0.15357)
(9.16454 -9.07899e-20 0.171888)
(8.9985 0 0.192286)
(8.81525 -5.0222e-21 0.215131)
(8.61355 0 0.240833)
(8.39192 -2.76482e-21 0.269841)
(8.14871 -1.81988e-19 0.302652)
(7.88205 -3.36162e-21 0.339819)
(7.58986 2.04039e-19 0.381933)
(7.26984 -5.39895e-20 0.429616)
(6.9195 0 0.483552)
(6.53617 -1.79011e-19 0.544402)
(6.11695 0 0.612711)
(5.65879 1.31072e-19 0.688865)
(5.15848 -9.72423e-19 0.773042)
(4.6126 9.93126e-19 0.865117)
(4.01714 0 0.964431)
(3.36645 0 1.06934)
(2.65119 0 1.1771)
(1.82611 3.09669e-19 1.29391)
(1.06669 -3.69969e-18 1.42102)
(10.0029 9.85029e-20 0.035213)
(9.99045 -6.01734e-21 0.0565755)
(9.95966 0 0.0736982)
(9.91377 0 0.0917509)
(9.85488 -2.76733e-20 0.110909)
(9.78364 -2.89784e-20 0.130986)
(9.70017 6.06805e-20 0.152341)
(9.60432 -6.26084e-20 0.175436)
(9.49584 -6.55291e-20 0.200665)
(9.37435 -6.89886e-20 0.228392)
(9.2393 1.81785e-20 0.259029)
(9.08995 0 0.293089)
(8.92538 -1.99383e-20 0.331174)
(8.74453 0 0.373956)
(8.54613 -3.51771e-19 0.422179)
(8.32874 -1.75191e-20 0.476678)
(8.09074 3.60326e-19 0.538404)
(7.8303 0 0.608394)
(7.54524 -3.77714e-19 0.687734)
(7.23321 1.23796e-18 0.777643)
(6.89167 -8.14345e-19 0.879432)
(6.51747 0 0.994304)
(6.10696 -3.8546e-19 1.1233)
(5.6558 -2.30118e-18 1.26726)
(5.15853 2.21384e-18 1.42679)
(4.60759 -2.86468e-19 1.60249)
(3.99145 0 1.79538)
(3.29216 -5.96361e-19 2.00843)
(2.46111 -3.00167e-19 2.25365)
(1.51848 5.88023e-18 2.62782)
(10.0011 -1.90456e-19 0.0370495)
(9.98607 6.00367e-21 0.0664443)
(9.95496 -7.52797e-20 0.0918623)
(9.91022 -2.62462e-20 0.117375)
(9.85284 0 0.143831)
(9.78326 0 0.171385)
(9.70188 0 0.200516)
(9.60871 1.1034e-22 0.231819)
(9.50363 -3.28766e-20 0.265848)
(9.38642 6.896e-20 0.303118)
(9.25665 1.45508e-19 0.344205)
(9.11377 1.9246e-21 0.389808)
(8.95707 -1.18022e-19 0.440738)
(8.78574 3.35195e-19 0.497901)
(8.59879 -3.463e-19 0.562298)
(8.39515 0 0.635049)
(8.17357 2.4024e-20 0.717453)
(7.93278 8.11256e-19 0.811014)
(7.67101 1.43456e-20 0.91731)
(7.38623 2.35864e-19 1.03807)
(7.07651 1.58991e-20 1.17536)
(6.73913 2.90473e-18 1.33135)
(6.37056 -3.52323e-18 1.50823)
(5.9663 -3.29889e-20 1.70826)
(5.52012 2.14959e-18 1.93398)
(5.02302 2.80345e-19 2.18875)
(4.46171 4.56557e-18 2.47819)
(3.815 -8.58144e-18 2.81479)
(3.08252 4.79302e-18 3.18718)
(1.99595 -4.97067e-18 3.84446)
(10.0002 3.57125e-19 0.040454)
(9.98355 1.19751e-20 0.0765418)
(9.95203 -1.00038e-19 0.109015)
(9.90812 0 0.141033)
(9.85203 -1.09621e-19 0.17406)
(9.78395 0 0.208589)
(9.7044 1.19874e-19 0.245138)
(9.6135 6.28179e-20 0.284366)
(9.51121 6.57174e-20 0.326942)
(9.39735 -1.86117e-22 0.37351)
(9.27153 0 0.424774)
(9.13333 0 0.481566)
(8.98219 -1.97231e-20 0.544842)
(8.81751 3.11687e-19 0.615688)
(8.63859 -3.43056e-19 0.695291)
(8.44464 0 0.784976)
(8.23474 0 0.886286)
(8.00807 0 1.0011)
(7.76354 0 1.13148)
(7.49949 8.73614e-19 1.27961)
(7.21442 -2.72384e-18 1.44813)
(6.90654 -1.87185e-18 1.64019)
(6.57302 -1.97828e-18 1.85925)
(6.2101 -2.84745e-20 2.10928)
(5.81219 2.07727e-18 2.39509)
(5.37144 -5.29062e-19 2.72318)
(4.87741 0 3.10209)
(4.30211 2.65822e-19 3.55497)
(3.74067 -2.68294e-19 4.00787)
(2.53352 0 4.92405)
(9.99969 -1.18635e-20 0.0446489)
(9.98212 2.268e-19 0.0867126)
(9.95055 1.75151e-19 0.125794)
(9.9075 0 0.164295)
(9.8528 1.09432e-19 0.203948)
(9.78652 -1.14715e-19 0.245462)
(9.70917 -5.48523e-22 0.289364)
(9.62091 0 0.336361)
(9.52177 0 0.387238)
(9.41157 -1.365e-19 0.442774)
(9.29 0 0.503799)
(9.15668 7.44784e-20 0.571243)
(9.01117 3.1433e-19 0.64617)
(8.85308 -3.44787e-19 0.729813)
(8.68194 -6.88117e-19 0.823531)
(8.49718 1.42931e-18 0.928831)
(8.29812 -7.64831e-19 1.04744)
(8.08415 4.85561e-20 1.18147)
(7.85489 0 1.33343)
(7.60929 -1.12067e-21 1.50601)
(7.34616 -1.09857e-19 1.7023)
(7.0645 -1.62188e-18 1.92622)
(6.76253 3.32761e-18 2.18244)
(6.43785 -2.19654e-19 2.47655)
(6.08635 1.78856e-18 2.81515)
(5.70269 2.91754e-19 3.20728)
(5.2831 -4.34207e-18 3.66162)
(4.78226 -1.94681e-19 4.21489)
(4.42197 2.39157e-19 4.69533)
(3.11246 8.58657e-18 5.81728)
(9.99941 1.82508e-19 0.0492609)
(9.98146 -2.14505e-19 0.096938)
(9.95019 2.48696e-20 0.142257)
(9.90808 5.22134e-20 0.187065)
(9.85485 2.72384e-19 0.233126)
(9.79055 -1.13444e-19 0.281313)
(9.71561 0 0.332221)
(9.63024 1.23994e-19 0.38662)
(9.53453 -1.29516e-19 0.445402)
(9.42837 -2.04635e-19 0.509477)
(9.31155 2.81795e-19 0.57979)
(9.18377 -3.71806e-19 0.657364)
(9.04461 3.84408e-19 0.743329)
(8.89384 7.30757e-19 0.839009)
(8.73125 -6.70231e-19 0.945923)
(8.55641 0 1.06576)
(8.36886 -7.05574e-19 1.20042)
(8.16812 -5.87222e-20 1.35212)
(7.95418 7.4296e-19 1.52366)
(7.72671 -1.0433e-19 1.7182)
(7.48506 1.08354e-19 1.93931)
(7.22883 -2.24442e-19 2.19147)
(6.95733 4.59131e-19 2.48026)
(6.66964 2.37799e-19 2.81256)
(6.36408 5.58652e-21 3.19644)
(6.03722 2.45011e-19 3.64236)
(5.69456 4.02111e-18 4.15589)
(5.26265 -3.82692e-18 4.79337)
(5.10283 -2.29976e-19 5.26206)
(3.70609 1.18903e-19 6.53521)
(9.99937 -3.53872e-19 0.0540498)
(9.98139 -1.18496e-20 0.107111)
(9.95063 0 0.158337)
(9.90964 -5.19846e-20 0.209219)
(9.85813 -5.42625e-20 0.26145)
(9.79612 1.13163e-19 0.316028)
(9.72397 0 0.373649)
(9.64189 -4.25139e-22 0.435137)
(9.55002 -1.22977e-21 0.501463)
(9.44836 2.67733e-19 0.573636)
(9.33679 0 0.652709)
(9.21514 -2.94594e-19 0.739818)
(9.08304 2.27351e-19 0.836155)
(8.94033 6.01603e-19 0.943073)
(8.787 -6.60958e-19 1.06221)
(8.62282 6.97441e-19 1.19545)
(8.44764 -7.28534e-19 1.34487)
(8.26108 0 1.51276)
(8.06328 4.9014e-20 1.70204)
(7.85457 1.67687e-18 1.91625)
(7.63491 -8.49259e-20 2.15939)
(7.40449 1.7144e-18 2.43643)
(7.16361 -3.32504e-19 2.75354)
(6.91264 0 3.11833)
(6.6527 3.93604e-18 3.54007)
(6.38144 -3.64788e-18 4.0302)
(6.1149 5.71375e-20 4.5881)
(5.7438 0 5.29614)
(5.76752 0 5.73262)
(4.29684 -1.16205e-19 7.11368)
(9.9995 -2.27248e-20 0.0588496)
(9.98175 2.35977e-20 0.11712)
(9.95175 0 0.173956)
(9.91218 -1.03468e-19 0.230628)
(9.86276 1.07566e-19 0.288747)
(9.80346 -1.12521e-19 0.349417)
(9.73453 -3.51568e-19 0.413437)
(9.65618 1.02164e-21 0.481683)
(9.5686 -3.82723e-19 0.555168)
(9.47189 2.67864e-19 0.634975)
(9.36601 -4.15268e-19 0.722255)
(9.25089 1.44416e-19 0.818246)
(9.12641 7.52137e-20 0.924221)
(8.99244 0 1.04155)
(8.84899 0 1.17193)
(8.6961 0 1.31737)
(8.53403 -1.46723e-18 1.48015)
(8.36255 1.43721e-18 1.66268)
(8.18186 1.52905e-18 1.86788)
(7.99282 -3.93886e-20 2.09952)
(7.79597 -1.50914e-18 2.362)
(7.59215 0 2.66065)
(7.38258 1.20161e-19 3.00202)
(7.16879 -3.43828e-18 3.39419)
(6.95383 -4.90443e-20 3.84694)
(6.73605 3.42793e-18 4.37292)
(6.5431 -3.29402e-18 4.96357)
(6.22529 3.21341e-18 5.73124)
(6.40907 0 6.13215)
(4.87756 0 7.59183)
(9.99969 0 0.0635585)
(9.98236 -3.7552e-19 0.126861)
(9.95334 0 0.189016)
(9.91542 2.0506e-19 0.251155)
(9.86834 -2.14048e-19 0.314848)
(9.812 -1.11098e-19 0.381297)
(9.74659 -1.167e-19 0.45139)
(9.67232 6.08465e-19 0.526037)
(9.58943 -2.52554e-19 0.60627)
(9.4981 0 0.693236)
(9.39836 6.90523e-19 0.788177)
(9.29019 -1.28892e-18 0.892374)
(9.17376 3.69756e-19 1.00716)
(9.04913 -1.54222e-19 1.134)
(8.91626 0 1.27459)
(8.77543 8.30742e-20 1.43102)
(8.62707 4.35105e-20 1.60568)
(8.47149 2.25301e-20 1.80119)
(8.309 4.59165e-20 2.02048)
(8.1405 5.99801e-21 2.26732)
(7.96725 1.56843e-18 2.54641)
(7.79081 1.59131e-18 2.86338)
(7.61317 -1.27987e-20 3.2251)
(7.43696 3.25695e-18 3.64001)
(7.26654 3.79672e-19 4.11783)
(7.10018 3.49384e-19 4.67292)
(6.97752 -3.10768e-18 5.28828)
(6.70803 0 6.10653)
(7.02702 0 6.48283)
(5.4501 0 8.00606)
(9.99987 2.25117e-20 0.0681338)
(9.98304 7.25e-19 0.136265)
(9.95514 0 0.203451)
(9.91899 -7.14696e-19 0.270737)
(9.87431 2.12982e-19 0.339676)
(9.82102 4.44911e-19 0.411557)
(9.75934 -1.15473e-19 0.487351)
(9.68948 2.42132e-19 0.567989)
(9.61173 -2.50316e-19 0.654521)
(9.52623 -2.62494e-19 0.748146)
(9.43311 1.35282e-19 0.850166)
(9.33253 0 0.961882)
(9.22471 1.47347e-19 1.08466)
(9.10987 7.65458e-19 1.22004)
(8.98817 -7.86389e-19 1.36978)
(8.86002 -8.22471e-20 1.53595)
(8.72588 1.35966e-18 1.72099)
(8.58671 -1.39074e-18 1.92769)
(8.44316 -4.52546e-20 2.15908)
(8.29603 -9.13761e-20 2.41889)
(8.14715 -1.86481e-19 2.71189)
(7.99872 3.06234e-18 3.04392)
(7.85354 -3.08504e-18 3.42214)
(7.71507 3.07407e-18 3.85533)
(7.58897 -3.07209e-18 4.35301)
(7.47264 2.55095e-18 4.93169)
(7.41711 -2.86765e-18 5.56713)
(7.19534 0 6.42792)
(7.62687 0 6.80312)
(6.02542 -3.99025e-18 8.39162)
(10.0001 0 0.0725487)
(9.98388 -7.44389e-19 0.145274)
(9.9573 0 0.217199)
(9.92313 4.0675e-19 0.289328)
(9.88098 -1.06121e-19 0.363192)
(9.83087 3.31318e-19 0.440135)
(9.77308 -2.30408e-19 0.521206)
(9.70786 2.38446e-19 0.607376)
(9.63551 -2.48076e-19 0.699716)
(9.55617 0 0.79946)
(9.47009 1.34736e-19 0.907933)
(9.37754 -5.60005e-19 1.02644)
(9.27881 -4.78741e-21 1.15639)
(9.17422 -5.01395e-21 1.29936)
(9.06414 6.19135e-19 1.45712)
(8.94913 0 1.63177)
(8.82982 0 1.82571)
(8.70744 0 2.04175)
(8.58307 -1.22523e-18 2.28312)
(8.45787 1.51074e-18 2.55355)
(8.33396 1.8286e-19 2.85776)
(8.21398 0 3.20157)
(8.10155 0 3.59244)
(8.00106 0 4.03947)
(7.91911 3.15853e-18 4.55216)
(7.8522 -6.81554e-18 5.14912)
(7.86142 2.63634e-18 5.80237)
(7.69278 0 6.69727)
(8.21973 -2.14677e-18 7.10582)
(6.62549 -1.19718e-18 8.78306)
(10.0004 -3.55469e-19 0.0767531)
(9.98494 7.40212e-19 0.153798)
(9.95989 0 0.230162)
(9.92794 1.01068e-19 0.306837)
(9.88853 -1.04946e-19 0.385307)
(9.84184 0 0.466937)
(9.78818 -2.28413e-19 0.552861)
(9.72777 -2.37716e-19 0.644103)
(9.66095 4.92419e-19 0.741745)
(9.58795 0 0.847035)
(9.50915 2.64295e-19 0.961305)
(9.42484 8.25728e-19 1.08586)
(9.33542 -2.83834e-19 1.22212)
(9.24143 1.46474e-19 1.37167)
(9.14331 -4.57322e-19 1.5363)
(9.04181 -6.32931e-19 1.71812)
(8.93785 1.1246e-18 1.91947)
(8.83263 1.32495e-18 2.14309)
(8.72764 -1.64796e-19 2.39228)
(8.62462 -2.74787e-18 2.67084)
(8.52601 1.39015e-18 2.98341)
(8.43463 2.44356e-18 3.33565)
(8.35495 -5.56286e-18 3.73515)
(8.29261 2.08102e-18 4.19145)
(8.25497 -6.76823e-19 4.71418)
(8.23821 1.29354e-18 5.32333)
(8.31078 0 5.99257)
(8.20784 2.06942e-18 6.91001)
(8.8208 1.41998e-20 7.39338)
(7.28385 -8.79103e-19 9.21181)
(10.0007 7.08137e-19 0.0807036)
(9.9861 -3.68617e-19 0.161772)
(9.9627 3.83543e-19 0.242261)
(9.93309 -2.99628e-19 0.323167)
(9.89665 -2.08818e-19 0.405903)
(9.85361 1.08421e-19 0.491836)
(9.80424 0 0.582198)
(9.7488 0 0.678067)
(9.68769 1.48163e-21 0.780502)
(9.62121 -1.09785e-22 0.890732)
(9.54986 -1.04868e-18 1.01011)
(9.47403 -1.669e-21 1.13994)
(9.39417 -5.59964e-19 1.28162)
(9.31099 4.34624e-19 1.43673)
(9.225 8.96999e-19 1.60706)
(9.13717 6.72905e-21 1.79467)
(9.04875 -2.66529e-18 2.00187)
(8.96093 1.59998e-18 2.23129)
(8.8755 1.30867e-18 2.48618)
(8.79469 -2.64915e-18 2.77031)
(8.7214 1.33555e-18 3.08828)
(8.65863 3.37587e-19 3.44554)
(8.61152 0 3.84948)
(8.58685 1.29053e-18 4.30987)
(8.59369 0 4.83676)
(8.62914 0 5.45031)
(8.76472 -2.06958e-18 6.1311)
(8.74791 3.86265e-18 7.05198)
(9.44623 0 7.64777)
(8.04669 8.01214e-19 9.70848)
(10.0011 -3.5266e-19 0.0843794)
(9.9873 0 0.169176)
(9.96552 -1.52816e-21 0.253472)
(9.93831 2.99238e-19 0.338268)
(9.90501 -3.10088e-19 0.424906)
(9.86573 0 0.514759)
(9.82071 -1.13129e-21 0.609148)
(9.77043 6.96669e-19 0.709184)
(9.71529 1.33747e-21 0.815888)
(9.65558 -7.51083e-19 0.930469)
(9.59187 7.74338e-19 1.05428)
(9.52473 2.67981e-19 1.18863)
(9.45459 2.76645e-19 1.33486)
(9.38232 -5.68835e-19 1.49455)
(9.30859 5.78527e-19 1.66945)
(9.23448 0 1.86151)
(9.16153 4.32231e-21 2.07299)
(9.09105 6.2454e-19 2.30645)
(9.02505 -1.57918e-18 2.56495)
(8.96614 0 2.85213)
(8.91757 0 3.17243)
(8.88315 -3.16353e-18 3.53118)
(8.86823 2.52241e-18 3.93515)
(8.87999 -6.18304e-19 4.39361)
(8.93058 2.27632e-18 4.917)
(9.01977 -1.08925e-19 5.52422)
(9.21843 -2.0395e-18 6.20525)
(9.31207 -1.80108e-18 7.09788)
(10.0998 1.27722e-18 7.81256)
(8.98132 7.19055e-19 10.3242)
(0.0272796 0 -0.0243758)
(0.0774138 0 -0.0443951)
(0.213857 3.90357e-20 -0.0438802)
(0.373894 -3.59313e-20 -0.0349184)
(0.51281 1.68237e-20 -0.0233303)
(0.614045 1.61581e-20 -0.0147084)
(0.683324 -8.33702e-21 -0.00984582)
(0.732979 -4.50607e-21 -0.00799183)
(0.774101 0 -0.0077019)
(0.811325 0 -0.00776029)
(0.845789 3.50559e-21 -0.00779177)
(0.877904 -3.50299e-21 -0.00750757)
(0.906237 0 -0.00627442)
(0.927846 1.41348e-21 -0.00385125)
(0.940439 -1.39232e-21 -0.00106764)
(0.945122 -5.05383e-21 0.000754599)
(0.945152 0 0.00182723)
(0.941326 0 0.00375708)
(0.930811 -4.23211e-21 0.00691529)
(0.911363 0 0.00953666)
(0.8858 3.84265e-21 0.00948601)
(0.86273 3.67154e-21 0.00593901)
(0.852275 0 -4.39423e-05)
(0.859849 -1.9324e-22 -0.00630284)
(0.885399 1.90698e-22 -0.0126757)
(0.929857 0 -0.0217958)
(0.997754 0 -0.034746)
(1.09389 4.44458e-23 -0.0493639)
(1.21938 -4.38071e-23 -0.0628548)
(1.40516 0 -0.071563)
(0.0211394 7.32968e-20 -0.0387432)
(0.039383 -4.49713e-20 -0.10246)
(0.182539 1.57336e-19 -0.121288)
(0.355617 0 -0.105584)
(0.515386 -1.68294e-20 -0.0783482)
(0.638366 3.21523e-20 -0.0558675)
(0.726133 -3.577e-20 -0.0417526)
(0.789503 -2.00628e-20 -0.034772)
(0.839092 1.66298e-20 -0.0319497)
(0.880522 0 -0.0303819)
(0.916203 -6.91727e-21 -0.0292328)
(0.947711 -6.39159e-21 -0.0278369)
(0.97509 0 -0.0242112)
(0.996481 0 -0.0174342)
(1.00996 0 -0.00985372)
(1.01617 5.02206e-21 -0.00533568)
(1.01851 0 -0.00335697)
(1.01943 -1.10694e-20 0.00136602)
(1.01448 6.36317e-21 0.0114305)
(0.994907 0 0.0216485)
(0.964075 -1.05484e-20 0.0244569)
(0.931531 -3.69329e-21 0.0167468)
(0.907624 -8.31087e-21 0.00195746)
(0.8915 4.1742e-22 -0.0126652)
(0.884946 3.48867e-22 -0.0250887)
(0.881087 4.88518e-21 -0.0375031)
(0.875622 0 -0.0532931)
(0.884914 9.07064e-23 -0.0765392)
(0.930101 -6.40204e-23 -0.109323)
(1.03644 -2.48905e-23 -0.146247)
(0.0142191 1.71391e-19 -0.0527858)
(-0.00630243 -2.232e-19 -0.156211)
(0.116669 7.52648e-20 -0.194121)
(0.267354 -1.43214e-19 -0.170123)
(0.409724 0 -0.128085)
(0.518378 0 -0.0930594)
(0.591693 0 -0.0707547)
(0.639523 0 -0.059118)
(0.671684 -1.57767e-20 -0.0536214)
(0.693387 0 -0.0496355)
(0.706957 0 -0.0467506)
(0.714063 1.32041e-20 -0.0448261)
(0.715964 0 -0.0398429)
(0.711884 0 -0.0286446)
(0.697881 -1.05125e-20 -0.0154452)
(0.674005 9.92028e-21 -0.00896085)
(0.640362 0 -0.0093446)
(0.600019 1.77443e-20 -0.00594768)
(0.552898 0 0.00879059)
(0.493129 1.96882e-21 0.0299154)
(0.411022 5.73353e-21 0.0463464)
(0.306612 -9.1033e-22 0.0510663)
(0.186258 1.41507e-20 0.0436852)
(0.0696538 8.49712e-22 0.0269055)
(0.0180336 0 0.00921401)
(0.0176973 -5.27115e-21 -0.0151165)
(0.0325109 0 -0.0631646)
(0.102317 0 -0.131257)
(0.205673 2.21654e-21 -0.203715)
(0.306693 7.97043e-22 -0.274618)
(0.0108958 2.46913e-19 -0.0700474)
(-0.0412985 -1.74967e-19 -0.203259)
(0.0578852 0 -0.252037)
(0.179471 0 -0.218726)
(0.292983 0 -0.164612)
(0.374948 0 -0.119862)
(0.421853 0 -0.0906612)
(0.442466 -4.68318e-20 -0.0748795)
(0.445279 8.12082e-20 -0.0668982)
(0.435297 0 -0.059548)
(0.415103 0 -0.052626)
(0.381252 -1.25629e-20 -0.0490417)
(0.337805 8.16825e-22 -0.0454767)
(0.294854 6.85162e-22 -0.0326357)
(0.219672 2.12325e-20 -0.00745065)
(0.114541 -9.91346e-21 0.0186442)
(-0.0422946 0 0.0390587)
(-0.217242 -1.31792e-20 0.052439)
(-0.351124 2.09329e-20 0.0732903)
(-0.433207 0 0.0979275)
(-0.497242 1.88521e-21 0.112545)
(-0.5523 -1.86032e-21 0.107435)
(-0.5922 -7.87899e-21 0.0795154)
(-0.607539 7.38031e-21 0.0322568)
(-0.588499 -5.92433e-21 -0.0252372)
(-0.53524 6.04068e-22 -0.087572)
(-0.461802 8.25778e-21 -0.152182)
(-0.391516 -6.69261e-23 -0.217206)
(-0.338612 -2.38251e-21 -0.27892)
(-0.315157 -7.99371e-22 -0.332206)
(0.0025675 3.99873e-19 -0.094539)
(-0.0751154 -8.58869e-20 -0.243975)
(0.00140469 1.50712e-19 -0.292971)
(0.0893533 -2.86309e-19 -0.248595)
(0.164582 2.78611e-19 -0.184166)
(0.208411 -1.42889e-19 -0.131577)
(0.216255 6.53256e-20 -0.0956247)
(0.196291 -8.48683e-20 -0.0738822)
(0.150703 0 -0.0622932)
(0.0888671 0 -0.0524428)
(0.0207003 0 -0.0361238)
(-0.104042 1.30591e-20 -0.014165)
(-0.263601 2.44151e-20 0.00351886)
(-0.437189 1.13605e-20 0.0308239)
(-0.561063 -2.03535e-20 0.0682766)
(-0.658301 4.74609e-21 0.100051)
(-0.760955 -2.29985e-20 0.113019)
(-0.870555 -2.1672e-20 0.111745)
(-0.961393 -1.22601e-20 0.11137)
(-1.02043 0 0.115909)
(-1.05022 -1.86534e-21 0.115076)
(-1.05499 1.63449e-20 0.0967508)
(-1.03922 1.6831e-21 0.0561631)
(-1.00897 -2.09633e-20 -0.00229454)
(-0.971731 5.88732e-21 -0.0682897)
(-0.927595 0 -0.133392)
(-0.885954 -1.67907e-20 -0.196266)
(-0.854432 0 -0.256229)
(-0.839724 0 -0.311543)
(-0.839463 0 -0.354706)
(-0.0204831 3.03626e-19 -0.128429)
(-0.119081 -2.55028e-19 -0.275063)
(-0.0632401 1.5523e-19 -0.314043)
(-0.0159479 0 -0.254557)
(0.00885258 0 -0.178281)
(-0.00133591 -1.36343e-19 -0.116292)
(-0.0562487 1.43338e-19 -0.06981)
(-0.146149 3.2858e-20 -0.0348279)
(-0.291116 -6.01953e-20 -0.00785975)
(-0.460963 6.05703e-20 0.0129084)
(-0.614304 -2.67705e-20 0.0372782)
(-0.729989 -4.01096e-22 0.0585659)
(-0.848084 -2.33181e-20 0.0728792)
(-0.967881 -1.04445e-20 0.0876895)
(-1.07395 3.04006e-20 0.111256)
(-1.16112 0 0.136483)
(-1.23763 1.81174e-20 0.148202)
(-1.30733 3.43472e-20 0.143551)
(-1.36304 -4.01854e-21 0.132329)
(-1.39693 -7.75994e-21 0.120178)
(-1.40648 1.29663e-20 0.102207)
(-1.39534 -1.62284e-20 0.0706242)
(-1.37157 0 0.0228323)
(-1.34387 1.27321e-20 -0.0370965)
(-1.31743 6.63968e-22 -0.102116)
(-1.29279 -6.56277e-22 -0.166056)
(-1.27449 8.18687e-21 -0.225909)
(-1.2666 0 -0.28091)
(-1.27155 3.35514e-21 -0.330167)
(-1.28006 1.07554e-21 -0.365917)
(-0.0674794 -2.06145e-19 -0.16614)
(-0.180883 3.41501e-19 -0.289429)
(-0.146514 -3.10835e-19 -0.306352)
(-0.15234 1.56538e-19 -0.22236)
(-0.198359 0 -0.126737)
(-0.294548 0 -0.0490447)
(-0.456652 0 0.0131768)
(-0.620382 3.02817e-20 0.0525648)
(-0.75763 -6.41425e-20 0.072483)
(-0.893195 2.82702e-20 0.0823053)
(-1.02005 5.26969e-20 0.0928698)
(-1.13447 -4.87061e-20 0.107605)
(-1.24158 0 0.121792)
(-1.3419 0 0.135369)
(-1.42998 1.95406e-20 0.151566)
(-1.5023 -1.851e-20 0.166626)
(-1.561 0 0.171115)
(-1.60924 -1.69824e-20 0.161558)
(-1.64591 -1.60749e-20 0.142934)
(-1.66752 3.08258e-20 0.119331)
(-1.67288 -1.30139e-20 0.0890239)
(-1.66534 -1.74642e-20 0.0483818)
(-1.65135 -9.78665e-21 -0.0032783)
(-1.63663 -1.35849e-20 -0.062902)
(-1.62375 -6.35258e-22 -0.125801)
(-1.61538 6.28096e-22 -0.187245)
(-1.61396 0 -0.243822)
(-1.62267 1.34378e-22 -0.294519)
(-1.64045 -3.47616e-21 -0.33849)
(-1.65391 -1.07681e-21 -0.368544)
(-0.13855 -6.35366e-19 -0.193028)
(-0.261176 1.74639e-19 -0.275128)
(-0.258419 0 -0.251039)
(-0.339756 0 -0.134726)
(-0.476609 0 -0.0227794)
(-0.653309 -1.52386e-19 0.0639861)
(-0.802383 1.46814e-19 0.107254)
(-0.947637 0 0.128978)
(-1.08234 0 0.140379)
(-1.208 2.6222e-20 0.146498)
(-1.32336 2.55515e-20 0.152087)
(-1.42761 -5.92341e-22 0.160005)
(-1.52211 2.13807e-20 0.168893)
(-1.60737 -1.10895e-20 0.177975)
(-1.68101 -2.9249e-20 0.187221)
(-1.74086 9.38733e-21 0.192974)
(-1.7883 8.85878e-21 0.189248)
(-1.82623 -1.6527e-20 0.173798)
(-1.85545 1.59673e-20 0.149272)
(-1.87492 -1.72072e-22 0.11825)
(-1.88455 -1.77485e-21 0.080396)
(-1.88682 3.70674e-21 0.034349)
(-1.88585 1.13616e-20 -0.0195762)
(-1.88515 4.10436e-22 -0.0787975)
(-1.88601 1.01702e-20 -0.139622)
(-1.89198 -8.59121e-21 -0.19836)
(-1.90478 0 -0.251875)
(-1.92682 -1.20189e-22 -0.298898)
(-1.95429 1.47153e-22 -0.338518)
(-1.97114 1.5472e-21 -0.364422)
(-0.227073 1.08179e-19 -0.18996)
(-0.354734 -3.43406e-19 -0.21587)
(-0.405891 5.12533e-19 -0.13941)
(-0.568237 -1.73118e-19 0.00128582)
(-0.752157 1.54029e-19 0.11043)
(-0.909519 -1.67921e-19 0.166386)
(-1.0619 0 0.196103)
(-1.20277 0 0.208458)
(-1.33036 -2.79405e-20 0.210976)
(-1.44535 8.16462e-20 0.209713)
(-1.54822 2.58262e-20 0.208757)
(-1.6397 -2.22914e-20 0.210007)
(-1.7213 -2.00013e-20 0.212821)
(-1.79347 9.74639e-21 0.216119)
(-1.85517 -9.61304e-21 0.218488)
(-1.90574 0 0.216518)
(-1.94669 8.50837e-21 0.206116)
(-1.98055 4.08975e-20 0.185771)
(-2.00871 -1.54872e-20 0.156914)
(-2.03125 -1.50089e-20 0.121203)
(-2.04858 -1.23144e-20 0.078905)
(-2.0624 2.50264e-20 0.0297727)
(-2.07523 1.22292e-20 -0.02538)
(-2.08909 1.14747e-20 -0.0841325)
(-2.10414 -1.01279e-20 -0.143215)
(-2.12357 2.47208e-20 -0.199631)
(-2.14933 1.24937e-20 -0.250711)
(-2.18295 0 -0.294874)
(-2.21845 -2.40684e-23 -0.331116)
(-2.23788 -1.55316e-21 -0.354021)
(-0.324157 -5.73096e-19 -0.139209)
(-0.453803 -1.86096e-19 -0.0997795)
(-0.572087 9.02632e-20 0.0247961)
(-0.76836 0 0.157307)
(-0.946332 0 0.232436)
(-1.11338 -1.26387e-19 0.273009)
(-1.26546 7.95566e-20 0.28872)
(-1.39987 6.60345e-20 0.288405)
(-1.51704 -2.91485e-20 0.279884)
(-1.61896 -5.19771e-20 0.269453)
(-1.70793 2.35263e-20 0.26103)
(-1.7859 4.42843e-20 0.255817)
(-1.85446 4.06749e-20 0.252864)
(-1.91447 -1.97805e-20 0.250568)
(-1.966 3.60148e-20 0.246956)
(-2.00939 0 0.239084)
(-2.0464 -1.68062e-20 0.223976)
(-2.07933 -1.60954e-20 0.200407)
(-2.10968 1.54051e-20 0.169015)
(-2.13807 0 0.130865)
(-2.16507 2.76386e-22 0.0864513)
(-2.19174 -1.15813e-20 0.0359964)
(-2.2194 -1.37245e-20 -0.0195547)
(-2.24875 2.05396e-20 -0.0779479)
(-2.27915 6.27992e-22 -0.136045)
(-2.31139 -9.40765e-22 -0.191019)
(-2.34936 -1.10915e-21 -0.240492)
(-2.39361 2.47246e-22 -0.282718)
(-2.4362 3.54063e-21 -0.316448)
(-2.45776 0 -0.33713)
(-0.405226 1.17774e-19 -0.0106783)
(-0.547059 1.9137e-19 0.095237)
(-0.700649 -9.52325e-20 0.210242)
(-0.908104 -1.72662e-19 0.307492)
(-1.10075 3.36034e-19 0.363121)
(-1.2723 -1.96111e-19 0.384462)
(-1.42064 6.42551e-20 0.381999)
(-1.54568 -5.5749e-21 0.365754)
(-1.64983 -5.68534e-20 0.344268)
(-1.73675 1.4606e-21 0.323867)
(-1.81018 -7.00874e-20 0.307863)
(-1.87335 0 0.296641)
(-1.92831 0 0.288662)
(-1.97632 0 0.281782)
(-2.01826 -2.71325e-20 0.273735)
(-2.05517 -8.5848e-21 0.262015)
(-2.08904 0 0.244338)
(-2.12218 -2.70817e-20 0.219536)
(-2.15624 -1.24874e-22 0.187644)
(-2.1921 -3.54207e-20 0.149211)
(-2.23011 -9.65436e-21 0.104719)
(-2.27056 0 0.0545236)
(-2.31407 -2.142e-20 -0.000550189)
(-2.36031 -2.24442e-20 -0.0586008)
(-2.40784 0 -0.116676)
(-2.45499 -2.93465e-20 -0.171746)
(-2.50484 -7.7726e-22 -0.2209)
(-2.55928 -9.95203e-23 -0.262163)
(-2.6085 -3.65894e-21 -0.294166)
(-2.63196 -8.41656e-24 -0.31316)
(-0.428458 -6.3458e-19 0.270179)
(-0.586418 4.31531e-19 0.309152)
(-0.789739 0 0.394642)
(-1.01963 0 0.470351)
(-1.22211 1.15665e-19 0.501661)
(-1.394 -1.16883e-19 0.498417)
(-1.53507 0 0.473231)
(-1.64697 0 0.437821)
(-1.73412 0 0.401534)
(-1.80242 0 0.370592)
(-1.85754 4.12883e-20 0.347548)
(-1.90409 0 0.331498)
(-1.94453 1.83985e-20 0.319791)
(-1.97994 -2.68861e-20 0.309763)
(-2.01153 4.20878e-20 0.299136)
(-2.041 0 0.28583)
(-2.07073 0 0.268014)
(-2.10338 3.45449e-20 0.244442)
(-2.14095 -3.7159e-21 0.214553)
(-2.18463 2.81749e-20 0.178249)
(-2.23452 5.28148e-20 0.135697)
(-2.29002 -1.47275e-21 0.087261)
(-2.35087 2.34966e-20 0.0336264)
(-2.41592 6.56351e-22 -0.0238364)
(-2.48249 0 -0.08275)
(-2.54802 1.39909e-20 -0.139784)
(-2.61229 -1.02844e-20 -0.191363)
(-2.67687 -5.7729e-21 -0.233859)
(-2.73265 -2.73746e-23 -0.264735)
(-2.75807 -6.75657e-24 -0.281784)
(-0.377838 1.37574e-19 0.639872)
(-0.611659 0 0.54067)
(-0.865416 -2.54907e-20 0.598967)
(-1.10901 1.2638e-19 0.646545)
(-1.31696 -1.28018e-19 0.646734)
(-1.48498 6.29094e-20 0.612063)
(-1.61377 -8.8753e-20 0.558555)
(-1.70699 0 0.500221)
(-1.77157 0 0.447456)
(-1.81638 -2.07726e-20 0.406205)
(-1.84975 -6.15544e-20 0.377719)
(-1.87747 0 0.358971)
(-1.90194 -8.72708e-21 0.34538)
(-1.9234 8.59614e-21 0.333751)
(-1.9426 -1.21132e-21 0.322297)
(-1.96169 -7.87746e-21 0.309646)
(-1.98379 7.77819e-21 0.294365)
(-2.01239 0 0.275015)
(-2.05027 -3.53724e-21 0.250333)
(-2.09915 3.49864e-21 0.219347)
(-2.15936 -2.60879e-20 0.181554)
(-2.22985 0 0.137058)
(-2.30909 0 0.0863392)
(-2.39459 -1.88249e-20 0.0301923)
(-2.48244 0 -0.0297409)
(-2.56839 1.23902e-20 -0.0903528)
(-2.65089 1.43242e-22 -0.146662)
(-2.72886 5.69208e-21 -0.192549)
(-2.79149 -1.58762e-23 -0.222963)
(-2.81898 -5.35122e-22 -0.236712)
(-0.201908 3.02813e-19 1.06185)
(-0.613501 -2.62185e-19 0.805522)
(-0.910824 -2.19414e-20 0.83984)
(-1.16873 1.21533e-19 0.847242)
(-1.3855 -1.40213e-19 0.802377)
(-1.54683 8.93449e-20 0.724328)
(-1.65704 2.70292e-20 0.634039)
(-1.72418 -4.26487e-20 0.547889)
(-1.75928 1.99921e-21 0.47694)
(-1.77507 1.83633e-20 0.426563)
(-1.7833 0 0.395803)
(-1.79087 -2.52481e-20 0.377704)
(-1.79859 8.42036e-21 0.36434)
(-1.80451 0 0.352251)
(-1.80819 -7.06771e-20 0.341065)
(-1.81194 3.88849e-21 0.330808)
(-1.81979 7.54718e-21 0.320668)
(-1.83641 -3.31406e-20 0.308973)
(-1.86585 1.75224e-21 0.293593)
(-1.91099 -1.7331e-21 0.272382)
(-1.97315 0 0.243666)
(-2.05187 0 0.206601)
(-2.14498 3.12106e-22 0.160974)
(-2.24854 1.83347e-20 0.10694)
(-2.35678 1.04946e-22 0.0455686)
(-2.463 -2.41342e-20 -0.0200318)
(-2.56265 -8.12654e-21 -0.0835697)
(-2.65195 -1.28602e-23 -0.135605)
(-2.7198 1.27761e-23 -0.166965)
(-2.7493 9.6974e-23 -0.177053)
(0.340523 8.04655e-19 1.38877)
(-0.287187 -2.21816e-19 1.04525)
(-0.817167 2.13323e-19 1.19541)
(-1.15023 2.90986e-20 1.10408)
(-1.39617 -2.32524e-20 0.976662)
(-1.55044 -3.89424e-21 0.831858)
(-1.63672 1.6185e-20 0.691642)
(-1.67225 1.08543e-21 0.572139)
(-1.67375 3.71415e-20 0.483152)
(-1.65845 -3.58143e-20 0.427823)
(-1.64228 -1.59519e-20 0.401105)
(-1.63313 1.66551e-20 0.388614)
(-1.62764 0 0.376614)
(-1.61906 0 0.363245)
(-1.60525 3.4561e-20 0.35148)
(-1.58882 -3.34754e-20 0.343644)
(-1.57481 0 0.339755)
(-1.56876 3.12265e-20 0.337969)
(-1.57563 -4.39615e-23 0.335376)
(-1.59938 -2.56722e-21 0.328709)
(-1.64292 2.66816e-20 0.314973)
(-1.70796 0 0.291794)
(-1.7946 0 0.257382)
(-1.90034 0 0.210555)
(-2.01932 0 0.151405)
(-2.14217 1.17139e-20 0.0827338)
(-2.25937 5.31521e-22 0.01159)
(-2.36206 0 -0.0499986)
(-2.43769 4.10153e-24 -0.0883877)
(-2.47169 4.33959e-22 -0.0999319)
(10.0015 -2.1074e-20 0.087829)
(9.9886 2.18608e-20 0.176132)
(9.96849 -3.66091e-19 0.263981)
(9.94384 -3.79819e-19 0.352367)
(9.9139 -9.72904e-20 0.442596)
(9.87857 1.02749e-19 0.536064)
(9.83813 -6.40411e-19 0.634133)
(9.79333 -1.64678e-22 0.737907)
(9.74452 -2.28995e-19 0.848405)
(9.69195 -4.75995e-19 0.966829)
(9.63626 4.89461e-19 1.09448)
(9.57819 0 1.23265)
(9.51825 -5.22576e-19 1.38265)
(9.45731 2.68381e-19 1.54598)
(9.3963 -2.76672e-19 1.72437)
(9.33642 -1.1269e-18 1.91964)
(9.27928 1.43607e-18 2.13389)
(9.22649 1.46049e-18 2.3696)
(9.18033 8.80313e-19 2.62967)
(9.1436 -5.15048e-21 2.91737)
(9.11977 -1.18849e-18 3.23681)
(9.11386 1.17317e-18 3.5931)
(9.13138 0 3.99223)
(9.17971 0 4.44207)
(9.27326 -2.05268e-18 4.95224)
(9.41636 3.87889e-18 5.53836)
(9.67673 -3.54457e-18 6.19753)
(9.90383 0 7.01389)
(10.9333 4.64864e-19 7.73754)
(11.9328 5.16529e-19 10.5627)
(10.0021 2.04435e-20 0.0910397)
(9.99001 -2.12019e-20 0.182629)
(9.97174 0 0.27376)
(9.94987 1.78807e-21 0.36542)
(9.92344 5.7677e-19 0.458928)
(9.89217 1.98401e-19 0.555695)
(9.85652 4.14465e-19 0.657062)
(9.81738 -2.12216e-19 0.764116)
(9.77498 2.22782e-19 0.877895)
(9.72968 1.83202e-21 0.999593)
(9.68224 -4.71244e-19 1.13043)
(9.6334 0 1.27165)
(9.5839 0 1.42454)
(9.53451 2.58118e-19 1.59053)
(9.4863 0 1.77122)
(9.44077 1.33959e-18 1.9683)
(9.39946 -1.09109e-18 2.18368)
(9.36426 1.65281e-18 2.41972)
(9.33772 -1.67943e-18 2.67902)
(9.32279 0 2.96446)
(9.32324 0 3.27955)
(9.34453 5.26511e-19 3.62882)
(9.3928 0 4.01735)
(9.4759 0 4.451)
(9.60804 0 4.93681)
(9.79721 0 5.48441)
(10.1022 1.66235e-18 6.0894)
(10.4123 -1.39892e-18 6.77264)
(11.1109 1.74179e-20 7.38079)
(11.8465 -1.83393e-20 8.42652)
(10.0026 6.32502e-19 0.0939486)
(9.99155 0 0.188561)
(9.97524 0 0.282656)
(9.95626 -3.58274e-19 0.377258)
(9.93339 3.70388e-19 0.473725)
(9.90627 -1.93531e-19 0.573438)
(9.87565 6.09596e-22 0.677686)
(9.84236 4.13281e-19 0.787559)
(9.80651 1.06662e-18 0.904117)
(9.76863 4.4038e-19 1.0285)
(9.7296 -4.50666e-19 1.16184)
(9.6901 1.32973e-21 1.30533)
(9.65107 -9.55695e-19 1.46022)
(9.61332 0 1.62784)
(9.57802 0 1.80967)
(9.54688 -7.64656e-19 2.00721)
(9.52119 0 2.22214)
(9.50319 5.17025e-19 2.4566)
(9.49577 -1.056e-18 2.71286)
(9.50188 -1.04726e-18 2.99325)
(9.52554 2.08572e-18 3.30065)
(9.57194 2.02206e-18 3.63855)
(9.64781 -1.0083e-18 4.01081)
(9.76117 0 4.42104)
(9.92386 8.80051e-19 4.87263)
(10.1432 -5.45255e-20 5.36782)
(10.4562 -7.9772e-19 5.89713)