/*--------------------------------*- C++ -*----------------------------------*\
| =========                 |                                                 |
| \\      /  F ield         | OpenFOAM: The Open Source CFD Toolbox           |
|  \\    /   O peration     | Version:  dev                                   |
|   \\  /    A nd           | Web:      www.OpenFOAM.org                      |
|    \\/     M anipulation  |                                                 |
\*---------------------------------------------------------------------------*/
FoamFile
{
    version     2.0;
    format      ascii;
    class       surfaceScalarField;
    location    "3.45";
    object      meshPhi;
}
// * * * * * * * * * * * * * * * * * * * * * * * * * * * * * * * * * * * * * //

dimensions      [0 3 -1 0 0 0 0];

internalField   nonuniform List<scalar> 
865
(
6.4102e-06
-1.98547e-08
4.31963e-06
-6.89073e-09
2.7226e-06
8.70439e-10
1.57437e-06
4.2239e-09
8.08461e-07
4.51244e-09
3.47469e-07
3.24468e-09
1.11217e-07
1.69478e-09
2.17389e-08
6.21393e-10
1.12598e-10
6.44677e-06
-4.11537e-08
4.34276e-06
-1.48e-08
2.73675e-06
1.01518e-09
1.58247e-06
7.94016e-09
8.12649e-07
8.68124e-09
3.49312e-07
6.2749e-09
1.11846e-07
3.27421e-09
2.18892e-08
1.18848e-09
2.2305e-10
6.49682e-06
-6.64948e-08
4.37927e-06
-2.59171e-08
2.76178e-06
-1.27459e-09
1.59818e-06
9.93542e-09
8.21352e-07
1.17392e-08
3.53304e-07
8.67455e-09
1.13213e-07
4.55607e-09
2.21979e-08
1.64346e-09
3.11398e-10
6.56434e-06
-9.91421e-08
4.43323e-06
-4.2987e-08
2.80107e-06
-8.11362e-09
1.62388e-06
8.72638e-09
8.35975e-07
1.27597e-08
3.60131e-07
9.94717e-09
1.15563e-07
5.32866e-09
2.27129e-08
1.9272e-09
3.66627e-10
6.66566e-06
-1.42805e-07
4.51473e-06
-6.90668e-08
2.86064e-06
-2.18296e-08
1.6629e-06
2.68621e-09
8.58193e-07
1.07228e-08
3.7051e-07
9.54248e-09
1.19133e-07
5.35587e-09
2.34836e-08
1.97184e-09
3.7757e-10
6.81026e-06
-2.01787e-07
4.63023e-06
-1.07721e-07
2.94463e-06
-4.51421e-08
1.71763e-06
-1.00906e-08
8.89176e-07
4.43353e-09
3.84901e-07
6.81732e-09
1.24049e-07
4.36215e-09
2.45292e-08
1.69451e-09
3.30193e-10
7.00408e-06
-2.80698e-07
4.78343e-06
-1.62799e-07
3.05499e-06
-8.09973e-08
1.78886e-06
-3.16725e-08
9.2907e-07
-7.4039e-09
4.03208e-07
1.07799e-09
1.30214e-07
2.05126e-09
2.58132e-08
1.00342e-09
2.09245e-10
7.24664e-06
-3.83963e-07
4.97303e-06
-2.38065e-07
3.19005e-06
-1.32309e-07
1.87487e-06
-6.41228e-08
9.76477e-07
-2.60878e-08
4.24535e-07
-8.37065e-09
1.37221e-07
-1.87319e-09
2.72222e-08
-1.94307e-10
-7.096e-13
7.52887e-06
-5.15191e-07
5.19131e-06
-3.36732e-07
3.34344e-06
-2.01648e-07
1.97083e-06
-1.09313e-07
1.02813e-06
-5.28269e-08
4.47045e-07
-2.21895e-08
1.44306e-07
-7.69717e-09
2.85528e-08
-1.98926e-09
-3.15317e-10
7.83148e-06
-6.75995e-07
5.42325e-06
-4.60688e-07
3.50373e-06
-2.90857e-07
2.06851e-06
-1.68765e-07
1.07881e-06
-8.86914e-08
4.67943e-07
-4.10139e-08
1.50332e-07
-1.57166e-08
2.95001e-08
-4.48041e-09
-7.52071e-10
8.12409e-06
-8.65628e-07
5.64526e-06
-6.10056e-07
3.65397e-06
-4.00696e-07
2.15651e-06
-2.43523e-07
1.1215e-06
-1.34653e-07
4.83506e-07
-6.55508e-08
1.53764e-07
-2.63235e-08
2.96194e-08
-7.81896e-09
-1.34544e-09
8.3682e-06
-1.08148e-06
5.82687e-06
-7.83462e-07
3.77275e-06
-5.30866e-07
2.22095e-06
-3.34202e-07
1.14754e-06
-1.91762e-07
4.89011e-07
-9.68119e-08
1.52494e-07
-4.02149e-08
2.81838e-08
-1.2327e-08
-2.17827e-09
8.52335e-06
-1.31833e-06
5.93675e-06
-9.77898e-07
3.83698e-06
-6.80169e-07
2.24587e-06
-4.41081e-07
1.14662e-06
-2.61342e-07
4.78226e-07
-1.36499e-07
1.43202e-07
-5.88191e-08
2.3725e-08
-1.87926e-08
-3.47914e-09
8.55076e-06
-1.56793e-06
5.94564e-06
-1.18838e-06
3.82345e-06
-8.46448e-07
2.2138e-06
-5.64245e-07
1.10623e-06
-3.45222e-07
4.41933e-07
-1.87461e-07
1.19471e-07
-8.50272e-08
1.26421e-08
-2.91802e-08
-5.92289e-09
8.41475e-06
-1.82222e-06
5.8258e-06
-1.41022e-06
3.71001e-06
-1.02797e-06
2.10666e-06
-7.04574e-07
1.01043e-06
-4.4662e-07
3.64357e-07
-2.5478e-07
6.50227e-08
-1.25036e-07
-2.03165e-08
-4.96046e-08
-1.22625e-08
-7.19657e-08
5.66544e-10
-3.71448e-07
3.55892e-09
-1.18701e-06
1.34356e-08
-2.80407e-06
3.63835e-08
-5.47713e-06
7.98671e-08
-9.39421e-06
1.52083e-07
-1.46509e-05
2.61111e-07
-2.124e-05
4.13825e-07
-2.90546e-05
6.14968e-07
8.50719e-07
-7.29493e-08
1.10629e-09
-3.76419e-07
7.12942e-09
-1.20116e-06
2.67408e-08
-2.83306e-06
7.23153e-08
-5.52584e-06
1.58629e-07
-9.46544e-06
3.01892e-07
-1.47444e-05
5.18062e-07
-2.13505e-05
8.20612e-07
-2.91624e-05
1.21836e-06
1.68532e-06
-7.387e-08
1.64565e-09
-3.8092e-07
1.06487e-08
-1.2131e-06
3.96283e-08
-2.85504e-06
1.06899e-07
-5.55759e-06
2.34141e-07
-9.50286e-06
4.45108e-07
-1.47798e-05
7.63139e-07
-2.13733e-05
1.20779e-06
-2.91605e-05
1.79131e-06
2.47769e-06
-7.44868e-08
2.16941e-09
-3.83709e-07
1.4007e-08
-1.21926e-06
5.17755e-08
-2.86253e-06
1.39246e-07
-5.55935e-06
3.04381e-07
-9.48678e-06
5.77781e-07
-1.47306e-05
9.8948e-07
-2.1276e-05
1.56451e-06
-2.90081e-05
2.31812e-06
3.20637e-06
-7.50211e-08
2.65824e-09
-3.8589e-07
1.71071e-08
-1.22298e-06
6.29267e-08
-2.86295e-06
1.68724e-07
-5.54503e-06
3.67998e-07
-9.44017e-06
6.97391e-07
-1.4631e-05
1.19285e-06
-2.11043e-05
1.88424e-06
-2.87522e-05
2.7894e-06
3.85858e-06
-7.54918e-08
3.1005e-09
-3.87565e-07
1.98906e-08
-1.2245e-06
7.29214e-08
-2.85678e-06
1.94956e-07
-5.51559e-06
4.24233e-07
-9.365e-06
8.02588e-07
-1.44846e-05
1.37108e-06
-2.0863e-05
2.16367e-06
-2.83997e-05
3.2004e-06
4.42774e-06
-7.59281e-08
3.49173e-09
-3.88927e-07
2.23457e-08
-1.22436e-06
8.17195e-08
-2.84527e-06
2.17868e-07
-5.47365e-06
4.72995e-07
-9.26619e-06
8.93301e-07
-1.42993e-05
1.52412e-06
-2.05638e-05
2.4028e-06
-2.79664e-05
3.55109e-06
4.91353e-06
-7.64085e-08
3.83527e-09
-3.90414e-07
2.45068e-08
-1.22385e-06
8.94199e-08
-2.8313e-06
2.37733e-07
-5.42489e-06
5.14915e-07
-9.15369e-06
9.70782e-07
-1.40905e-05
1.6541e-06
-2.0228e-05
2.6048e-06
-2.74803e-05
3.84583e-06
5.32134e-06
-7.71067e-08
4.14312e-09
-3.92894e-07
2.64489e-08
-1.22545e-06
9.62626e-08
-2.82022e-06
2.55171e-07
-5.37921e-06
5.51328e-07
-9.04403e-06
1.03754e-06
-1.38826e-05
1.76511e-06
-1.98878e-05
2.77539e-06
-2.69822e-05
4.09228e-06
5.66074e-06
-7.83555e-08
4.42889e-09
-3.97925e-07
2.8281e-08
-1.23336e-06
1.02624e-07
-2.82054e-06
2.71118e-07
-5.35145e-06
5.84145e-07
-8.95916e-06
1.09671e-06
-1.37053e-05
1.86153e-06
-1.95837e-05
2.9212e-06
-2.65249e-05
4.30056e-06
5.9455e-06
-8.07752e-08
4.71261e-09
-4.08197e-07
3.01444e-08
-1.25428e-06
1.09022e-07
-2.8446e-06
2.86791e-07
-5.36065e-06
6.15562e-07
-8.9248e-06
1.15178e-06
-1.3592e-05
1.94906e-06
-1.93608e-05
3.05121e-06
-2.61662e-05
4.48348e-06
6.19201e-06
-8.56058e-08
5.01244e-09
-4.285e-07
3.22368e-08
-1.2989e-06
1.16199e-07
-2.91004e-06
3.03815e-07
-5.43087e-06
6.48378e-07
-8.97263e-06
1.20736e-06
-1.35848e-05
2.03516e-06
-1.92698e-05
3.17624e-06
-2.59649e-05
4.65527e-06
6.41718e-06
-9.57316e-08
5.36107e-09
-4.68037e-07
3.49307e-08
-1.38493e-06
1.25369e-07
-3.04267e-06
3.24553e-07
-5.5945e-06
6.86431e-07
-9.14126e-06
1.26902e-06
-1.37291e-05
2.12733e-06
-1.93633e-05
3.30649e-06
-2.5981e-05
4.83041e-06
6.63899e-06
-1.19514e-07
5.99072e-09
-5.46651e-07
3.92221e-08
-1.54336e-06
1.38824e-07
-3.28061e-06
3.5276e-07
-5.89328e-06
7.34905e-07
-9.47383e-06
1.34324e-06
-1.40696e-05
2.23348e-06
-1.96911e-05
3.45233e-06
-2.62791e-05
5.02528e-06
6.87812e-06
-1.98082e-07
1.10141e-08
-7.25431e-07
4.91969e-08
-1.84195e-06
1.63234e-07
-3.69051e-06
3.97083e-07
-6.39011e-06
8.04014e-07
-1.00287e-05
1.4415e-06
-1.46587e-05
2.36551e-06
-2.03036e-05
3.62567e-06
-2.68825e-05
5.24035e-06
8.39464e-06
-2.07531e-06
5.76477e-06
-1.64135e-06
3.60776e-06
-1.2259e-06
1.975e-06
-8.6621e-07
8.64902e-07
-5.72464e-07
2.20146e-07
-3.47875e-07
-6.5676e-08
-1.89857e-07
-1.31804e-07
-9.11493e-08
-3.97805e-08
-9.9248e-08
8.01777e-06
-2.3193e-06
5.42283e-06
-1.87805e-06
3.28339e-06
-1.4398e-06
1.66019e-06
-1.05221e-06
5.55046e-07
-7.28647e-07
-8.82232e-08
-4.74837e-07
-3.75816e-07
-2.89346e-07
-4.49258e-07
-1.64996e-07
-9.1191e-08
-4.616e-07
7.36241e-06
-2.5462e-06
4.82223e-06
-2.1139e-06
2.71794e-06
-1.66303e-06
1.10649e-06
-1.25817e-06
-4.67828e-09
-9.12907e-07
-6.72301e-07
-6.3558e-07
-1.005e-06
-4.25566e-07
-1.14937e-06
-2.76445e-07
-1.78614e-07
-1.25608e-06
6.34093e-06
3.88662e-06
-2.32611e-06
1.81182e-06
-1.88512e-06
2.00376e-07
-1.47046e-06
-9.36012e-07
-1.11203e-06
-1.66546e-06
-8.18664e-07
-2.10201e-06
-5.88343e-07
-2.39706e-06
-4.1621e-07
-2.93126e-07
-2.67633e-06
2.42902e-06
4.27972e-07
-1.18324e-06
-1.65681e-06
-2.37263e-06
-1.30467e-06
-3.20536e-06
-1.00002e-06
-3.80057e-06
-7.53491e-07
-4.30795e-06
-5.60826e-07
-4.12249e-07
-4.8086e-06
-3.21773e-06
-4.46556e-06
-5.42998e-06
-1.1371e-06
-6.21755e-06
-8.86488e-07
-6.96474e-06
-6.7323e-07
-4.99385e-07
-7.70318e-06
-8.47099e-06
-9.46291e-06
-1.04499e-05
-6.99683e-07
-5.09535e-07
-1.14162e-05
-1.48346e-05
-1.60349e-05
-1.03432e-07
-1.08873e-08
-1.20892e-07
-6.73529e-09
-4.09005e-09
-1.68136e-07
-4.93554e-07
-3.04948e-08
-5.52768e-07
-1.98366e-08
-1.15325e-08
-6.81573e-07
-1.37541e-06
-6.66672e-08
-1.50758e-06
-4.65223e-08
-2.8693e-08
-1.72837e-06
-2.93221e-06
-1.14817e-07
-3.16172e-06
-8.33263e-08
-5.25205e-08
-3.48458e-06
-5.22765e-06
-1.64364e-07
-5.57046e-06
-1.20279e-07
-7.36447e-08
-6.00714e-06
-8.29155e-06
-1.97768e-07
-8.75446e-06
-1.40201e-07
-7.57215e-08
-9.31685e-06
-1.21621e-05
-1.92561e-07
-1.27421e-05
-1.20234e-07
-3.63752e-08
-1.34401e-05
-1.69366e-05
-1.76187e-05
-3.95242e-08
6.79849e-08
-1.84492e-05
-2.34328e-05
-2.44132e-05
-4.62064e-07
1.39829e-08
-1.1664e-06
7.19069e-08
-2.48183e-06
2.07981e-07
-4.53893e-06
4.68604e-07
-7.45059e-06
9.06598e-07
-1.13032e-05
1.57785e-06
-1.6153e-05
2.53614e-06
-2.20428e-05
3.83091e-06
5.47264e-06
-1.09319e-06
2.44103e-08
-2.00162e-06
1.10147e-07
-3.52139e-06
2.78929e-07
-5.77707e-06
5.7535e-07
-8.87476e-06
1.05152e-06
-1.28941e-05
1.7603e-06
-1.78902e-05
2.75174e-06
-2.39138e-05
4.07086e-06
5.72663e-06
-2.29401e-06
2.84728e-08
-3.40298e-06
1.57708e-07
-5.12655e-06
3.75348e-07
-7.57739e-06
7.20864e-07
-1.08516e-05
1.24448e-06
-1.50215e-05
1.9957e-06
-2.01397e-05
3.02042e-06
-2.62482e-05
4.35755e-06
6.00727e-06
-4.19667e-06
3.01256e-08
-5.48981e-06
2.18577e-07
-7.40283e-06
5.01329e-07
-1.00323e-05
9.09986e-07
-1.34626e-05
1.49196e-06
-1.77593e-05
2.29282e-06
-2.29678e-05
3.35335e-06
-2.91124e-05
4.70553e-06
6.3409e-06
-6.86895e-06
4.64673e-08
-8.33625e-06
3.07768e-07
-1.04214e-05
6.6979e-07
-1.32087e-05
1.15427e-06
-1.6772e-05
1.8047e-06
-2.11675e-05
2.66209e-06
-2.64297e-05
3.76202e-06
-3.25662e-05
5.13079e-06
6.756e-06
-1.03397e-05
1.07917e-07
-1.19816e-05
4.52302e-07
-1.4228e-05
9.04052e-07
-1.71546e-05
1.4737e-06
-2.08259e-05
2.20007e-06
-2.52887e-05
3.11923e-06
-3.05668e-05
4.26182e-06
-3.66558e-05
5.64952e-06
7.26778e-06
-1.4637e-05
2.57013e-07
-1.64574e-05
6.90876e-07
-1.88585e-05
1.23804e-06
-2.19077e-05
1.89733e-06
-2.56616e-05
2.70284e-06
-3.01584e-05
3.68575e-06
-3.54129e-05
4.87206e-06
-4.1412e-05
6.27965e-06
7.89211e-06
-1.98194e-05
5.44993e-07
-2.18124e-05
1.07243e-06
-2.43596e-05
1.71495e-06
-2.7512e-05
2.46181e-06
-3.13189e-05
3.34401e-06
-3.58127e-05
4.38801e-06
-4.09999e-05
5.61544e-06
-4.68615e-05
7.04087e-06
8.64588e-06
-2.59697e-05
-2.81279e-05
1.65974e-06
-3.08069e-05
2.38186e-06
-3.40336e-05
3.20728e-06
-3.78519e-05
4.15744e-06
-4.22982e-05
5.25451e-06
-4.73664e-05
6.51578e-06
-5.30356e-05
7.95293e-06
9.5449e-06
-3.54181e-05
-3.82442e-05
-4.155e-05
-4.53465e-05
5.17361e-06
-4.96821e-05
6.31158e-06
-5.45637e-05
7.59456e-06
-5.99771e-05
9.03243e-06
1.06009e-05
-5.37885e-05
-5.80202e-05
-6.26716e-05
8.86496e-06
-6.77462e-05
1.02917e-05
1.1818e-05
-7.16394e-05
-7.63827e-05
1.31834e-05
)
;

boundaryField
{
    inlet
    {
        type            calculated;
        value           nonuniform 0();
    }
    outlet
    {
        type            calculated;
        value           nonuniform 0();
    }
    flap
    {
        type            calculated;
        value           uniform 0;
    }
    upperWall
    {
        type            calculated;
        value           nonuniform 0();
    }
    lowerWall
    {
        type            calculated;
        value           uniform 0;
    }
    frontAndBack
    {
        type            empty;
        value           nonuniform 0();
    }
    procBoundary4to1
    {
        type            processor;
        value           nonuniform List<scalar> 
30
(
-2.70707e-06
-4.67479e-06
-2.39052e-06
-2.03155e-06
1.66016e-06
-1.69572e-06
-1.41369e-06
7.37184e-06
-1.10552e-06
-9.03139e-07
1.36071e-05
-5.06393e-07
-3.49817e-07
-1.21935e-07
2.26386e-05
2.01213e-07
3.12227e-07
1.07092e-06
3.30765e-05
2.53657e-06
3.29549e-06
4.17185e-06
4.99703e-05
6.39732e-06
7.56561e-06
6.71507e-05
1.02693e-05
1.1697e-05
8.56961e-05
1.45913e-05
)
;
    }
    procBoundary4to2
    {
        type            processor;
        value           nonuniform List<scalar> 
11
(
-3.31579e-05
-3.59495e-05
-3.92899e-05
-4.32413e-05
-4.78215e-05
-5.30484e-05
-5.89465e-05
-6.55487e-05
-7.28941e-05
-8.10351e-05
-8.98962e-05
)
;
    }
    procBoundary4to3
    {
        type            processor;
        value           nonuniform List<scalar> 
19
(
-8.94979e-06
-8.99666e-06
-9.05755e-06
-9.13605e-06
-9.25272e-06
-9.41913e-06
-9.64266e-06
-9.92298e-06
-1.02493e-05
-1.05981e-05
-1.09332e-05
-1.12097e-05
-1.13784e-05
-1.13903e-05
-1.12008e-05
-1.11843e-05
-1.07155e-05
-9.90718e-06
-8.64869e-06
)
;
    }
    procBoundary4to5
    {
        type            processor;
        value           nonuniform List<scalar> 
18
(
-3.73421e-05
-3.74813e-05
-3.74754e-05
-3.72729e-05
-3.69387e-05
-3.64835e-05
-3.5928e-05
-3.53056e-05
-3.46636e-05
-3.40645e-05
-3.35759e-05
-3.32593e-05
-3.3174e-05
-3.33805e-05
-3.38845e-05
7.11965e-06
-2.88392e-05
-3.08047e-05
)
;
    }
}


// ************************************************************************* //
