/*--------------------------------*- C++ -*----------------------------------*\
| =========                 |                                                 |
| \\      /  F ield         | OpenFOAM: The Open Source CFD Toolbox           |
|  \\    /   O peration     | Version:  dev                                   |
|   \\  /    A nd           | Web:      www.OpenFOAM.org                      |
|    \\/     M anipulation  |                                                 |
\*---------------------------------------------------------------------------*/
FoamFile
{
    version     2.0;
    format      ascii;
    class       volVectorField;
    location    "5";
    object      cellDisplacement;
}
// * * * * * * * * * * * * * * * * * * * * * * * * * * * * * * * * * * * * * //

dimensions      [0 1 0 0 0 0 0];

internalField   nonuniform List<vector> 
2790
(
(0.0103035 0 -3.54829e-05)
(0.0294129 0 -0.000101623)
(0.0457177 0 -0.000159399)
(0.05946 0 -0.000210219)
(0.0708984 0 -0.00025519)
(0.0802623 0 -0.00029509)
(0.0877502 0 -0.000330678)
(0.0935399 0 -0.000361554)
(0.0977903 0 -0.000388036)
(0.100637 0 -0.00041002)
(0.102197 0 -0.0004272)
(0.102576 0 -0.000439135)
(0.101867 0 -0.000445212)
(0.10015 0 -0.000444306)
(0.0975025 0 -0.000435466)
(0.0939934 0 -0.000417511)
(0.0896896 0 -0.00038902)
(0.0846557 0 -0.000348336)
(0.0789582 0 -0.00029361)
(0.0726688 0 -0.000222962)
(0.0658639 0 -0.000134073)
(0.0586276 0 -2.43837e-05)
(0.051056 0 0.000108839)
(0.0432634 0 0.00026845)
(0.0353899 0 0.00045734)
(0.027614 0 0.000678397)
(0.0201787 0 0.000934177)
(0.0134396 0 0.0012253)
(0.00794703 0 0.00154312)
(0.0048154 0 0.00183844)
(0.0103182 0 -0.000106554)
(0.0294553 0 -0.000305198)
(0.0457866 0 -0.000478764)
(0.0595565 0 -0.000631499)
(0.0710244 0 -0.000766723)
(0.0804214 0 -0.000886714)
(0.0879446 0 -0.00099409)
(0.0937725 0 -0.00108716)
(0.0980672 0 -0.0011672)
(0.100964 0 -0.00123387)
(0.102581 0 -0.00128625)
(0.103025 0 -0.00132305)
(0.102388 0 -0.00134264)
(0.100754 0 -0.00134138)
(0.0982004 0 -0.00131663)
(0.0947979 0 -0.00126491)
(0.0906151 0 -0.00118202)
(0.0857183 0 -0.00106307)
(0.0801745 0 -0.00090249)
(0.0740608 0 -0.000695036)
(0.0674568 0 -0.000433847)
(0.0604508 0 -0.000111475)
(0.0531446 0 0.000279887)
(0.0456598 0 0.000748171)
(0.0381468 0 0.00130075)
(0.0307925 0 0.00194385)
(0.023848 0 0.00268076)
(0.0177001 0 0.00350707)
(0.012997 0 0.00438811)
(0.0109071 0 0.00515357)
(0.0103487 0 -0.000177916)
(0.0295423 0 -0.000509698)
(0.045927 0 -0.000799706)
(0.0597526 0 -0.00105513)
(0.0712795 0 -0.00128151)
(0.080743 0 -0.00148231)
(0.088335 0 -0.00165989)
(0.0942382 0 -0.00181578)
(0.0986209 0 -0.00195054)
(0.101617 0 -0.00206338)
(0.103347 0 -0.00215282)
(0.103916 0 -0.00221678)
(0.103425 0 -0.00225345)
(0.101954 0 -0.0022556)
(0.0995855 0 -0.00221973)
(0.0963931 0 -0.00214029)
(0.0924488 0 -0.00201059)
(0.0878227 0 -0.00182283)
(0.0825801 0 -0.00156753)
(0.076811 0 -0.00123781)
(0.0706012 0 -0.0008225)
(0.0640465 0 -0.00031021)
(0.0572598 0 0.000310566)
(0.0503774 0 0.00105106)
(0.0435785 0 0.00191991)
(0.0370759 0 0.00292199)
(0.0311335 0 0.00405487)
(0.026114 0 0.00529792)
(0.0227288 0 0.00656699)
(0.022351 0 0.00756565)
(0.0103955 0 -0.000249324)
(0.0296737 0 -0.000714428)
(0.0461368 0 -0.00112108)
(0.0600456 0 -0.00147962)
(0.0716591 0 -0.00179786)
(0.0812121 0 -0.0020801)
(0.0889078 0 -0.00232897)
(0.0949312 0 -0.00254934)
(0.099446 0 -0.00274077)
(0.10259 0 -0.00290228)
(0.104487 0 -0.00303182)
(0.105244 0 -0.00312633)
(0.104961 0 -0.00318166)
(0.103731 0 -0.00319289)
(0.101636 0 -0.00315368)
(0.0987537 0 -0.00305649)
(0.0951622 0 -0.00289262)
(0.0909402 0 -0.00265242)
(0.0861554 0 -0.00232411)
(0.0808964 0 -0.00189628)
(0.0752686 0 -0.00135677)
(0.0693761 0 -0.000691983)
(0.0633451 0 0.000110955)
(0.0573199 0 0.00106464)
(0.0515325 0 0.00217406)
(0.0462285 0 0.00343688)
(0.041734 0 0.00483223)
(0.0384089 0 0.00630986)
(0.036805 0 0.00774369)
(0.0386081 0 0.00870177)
(0.010459 0 -0.000320754)
(0.0298473 0 -0.000918373)
(0.046412 0 -0.0014412)
(0.0604311 0 -0.00190274)
(0.0721586 0 -0.0023133)
(0.0818316 0 -0.00267777)
(0.0896653 0 -0.00300151)
(0.0958445 0 -0.00328848)
(0.100533 0 -0.00353919)
(0.103872 0 -0.00375266)
(0.105988 0 -0.00392651)
(0.106992 0 -0.00405684)
(0.106986 0 -0.00413757)
(0.106072 0 -0.0041664)
(0.104335 0 -0.00413461)
(0.10186 0 -0.00403309)
(0.0987294 0 -0.00385167)
(0.0950267 0 -0.00357907)
(0.0908357 0 -0.00320275)
(0.0862539 0 -0.00270954)
(0.0813919 0 -0.00208604)
(0.0763713 0 -0.00131876)
(0.0713473 0 -0.000397575)
(0.0664695 0 0.000690063)
(0.0619568 0 0.00194456)
(0.0581174 0 0.00334647)
(0.0553735 0 0.00484654)
(0.0541613 0 0.00634881)
(0.0548704 0 0.00770631)
(0.0590556 0 0.00837324)
(0.010522 0 -0.000391696)
(0.0300455 0 -0.00112179)
(0.0467492 0 -0.00176141)
(0.0609076 0 -0.00232642)
(0.0727734 0 -0.00282809)
(0.0825933 0 -0.00327544)
(0.0905959 0 -0.00367495)
(0.0969647 0 -0.00403045)
(0.101865 0 -0.00434314)
(0.105442 0 -0.00461223)
(0.107826 0 -0.00483529)
(0.109133 0 -0.00500825)
(0.109471 0 -0.00512566)
(0.108945 0 -0.00518298)
(0.107648 0 -0.00517182)
(0.105671 0 -0.00508248)
(0.103104 0 -0.00490406)
(0.100041 0 -0.00462478)
(0.0965784 0 -0.00423248)
(0.0928159 0 -0.00371228)
(0.088882 0 -0.0030523)
(0.0849054 0 -0.00223956)
(0.0810872 0 -0.00127082)
(0.0776138 0 -0.000142755)
(0.074691 0 0.0011367)
(0.072623 0 0.00253848)
(0.0718456 0 0.00398569)
(0.0729886 0 0.00531718)
(0.0764115 0 0.00634836)
(0.0830726 0 0.00651221)
(0.0106 0 -0.0004623)
(0.0302829 0 -0.00132492)
(0.0471463 0 -0.00208137)
(0.0614582 0 -0.00275003)
(0.0734876 0 -0.00334369)
(0.0834915 0 -0.00387569)
(0.0916941 0 -0.00435281)
(0.0982858 0 -0.00477954)
(0.103436 0 -0.00515779)
(0.107293 0 -0.0054872)
(0.109992 0 -0.00576555)
(0.111654 0 -0.00598884)
(0.112393 0 -0.00615165)
(0.11232 0 -0.0062495)
(0.111536 0 -0.0062741)
(0.11014 0 -0.00621572)
(0.10823 0 -0.00606348)
(0.105902 0 -0.00580465)
(0.103293 0 -0.00543302)
(0.100494 0 -0.00493118)
(0.0976533 0 -0.00429084)
(0.0949234 0 -0.00350346)
(0.092482 0 -0.00256583)
(0.0905552 0 -0.00148793)
(0.0894473 0 -0.000300497)
(0.0894581 0 0.000948027)
(0.0909001 0 0.00217569)
(0.0945479 0 0.00316066)
(0.100798 0 0.00365398)
(0.110084 0 0.00313426)
(0.0106909 0 -0.000532398)
(0.0305551 0 -0.00152651)
(0.047599 0 -0.0023992)
(0.0620885 0 -0.00317186)
(0.0743059 0 -0.00385985)
(0.0845175 0 -0.00447797)
(0.0929481 0 -0.00503471)
(0.0997934 0 -0.00553549)
(0.105227 0 -0.00598318)
(0.109402 0 -0.00637798)
(0.112458 0 -0.00671815)
(0.114523 0 -0.00700013)
(0.115713 0 -0.00721786)
(0.116152 0 -0.00736933)
(0.115948 0 -0.00744619)
(0.115209 0 -0.00743945)
(0.114044 0 -0.00733968)
(0.112564 0 -0.00713634)
(0.110896 0 -0.00682068)
(0.109171 0 -0.00638311)
(0.107539 0 -0.00581698)
(0.106217 0 -0.00512773)
(0.105352 0 -0.00431333)
(0.105198 0 -0.00339381)
(0.106044 0 -0.00241041)
(0.108314 0 -0.00145462)
(0.112304 0 -0.00062505)
(0.118512 0 -0.000138408)
(0.127612 0 -0.000345663)
(0.139591 0 -0.00168728)
(0.0107932 0 -0.000602183)
(0.0308598 0 -0.00172725)
(0.0481063 0 -0.00271611)
(0.0627922 0 -0.0035915)
(0.0752155 0 -0.00437368)
(0.0856566 0 -0.00507891)
(0.0943394 0 -0.00571693)
(0.101465 0 -0.00629429)
(0.107211 0 -0.00681511)
(0.111737 0 -0.00728032)
(0.115187 0 -0.00768904)
(0.117697 0 -0.00803879)
(0.119395 0 -0.00832596)
(0.120399 0 -0.00854499)
(0.120832 0 -0.00869135)
(0.120812 0 -0.00875751)
(0.120459 0 -0.0087359)
(0.119903 0 -0.00861971)
(0.119276 0 -0.00840205)
(0.118731 0 -0.00807908)
(0.118445 0 -0.00765127)
(0.11861 0 -0.00712445)
(0.119447 0 -0.00651567)
(0.121256 0 -0.00586419)
(0.124274 0 -0.00521371)
(0.12891 0 -0.00466986)
(0.135615 0 -0.00439369)
(0.144548 0 -0.00456154)
(0.156541 0 -0.00559764)
(0.171143 0 -0.00784492)
(0.010906 0 -0.000671509)
(0.0311934 0 -0.00192677)
(0.0486489 0 -0.00303087)
(0.0635504 0 -0.0040092)
(0.07621 0 -0.00488685)
(0.0869028 0 -0.00568066)
(0.0958606 0 -0.00640208)
(0.103291 0 -0.00705885)
(0.109378 0 -0.00765696)
(0.114285 0 -0.00819797)
(0.118162 0 -0.00868217)
(0.121154 0 -0.00910875)
(0.123398 0 -0.00947628)
(0.125004 0 -0.0097755)
(0.126122 0 -0.0100087)
(0.126874 0 -0.0101692)
(0.12739 0 -0.0102522)
(0.12782 0 -0.0102558)
(0.128301 0 -0.0101752)
(0.129002 0 -0.0100125)
(0.130155 0 -0.00978293)
(0.131931 0 -0.00949489)
(0.134587 0 -0.00917787)
(0.138417 0 -0.0088804)
(0.143777 0 -0.00868577)
(0.150927 0 -0.00868435)
(0.160394 0 -0.00907984)
(0.172292 0 -0.010054)
(0.18721 0 -0.0120207)
(0.204277 0 -0.0152094)
(0.0110266 0 -0.000739843)
(0.0315518 0 -0.0021237)
(0.0492347 0 -0.00334238)
(0.0643693 0 -0.00442474)
(0.0772805 0 -0.00539836)
(0.0882436 0 -0.00628203)
(0.097496 0 -0.00708887)
(0.105251 0 -0.00782754)
(0.111704 0 -0.00850701)
(0.117016 0 -0.00912897)
(0.121346 0 -0.00969513)
(0.124847 0 -0.0102065)
(0.127657 0 -0.0106618)
(0.129911 0 -0.0110581)
(0.131753 0 -0.0113955)
(0.133314 0 -0.0116708)
(0.134734 0 -0.0118819)
(0.136203 0 -0.0120378)
(0.137845 0 -0.0121334)
(0.139867 0 -0.0121814)
(0.142467 0 -0.0121955)
(0.145918 0 -0.0122115)
(0.150484 0 -0.0122697)
(0.156423 0 -0.0124207)
(0.164174 0 -0.012779)
(0.174027 0 -0.0134565)
(0.186342 0 -0.0146379)
(0.201348 0 -0.0165416)
(0.219154 0 -0.0194982)
(0.238472 0 -0.0236159)
(0.0111543 0 -0.000807361)
(0.0319343 0 -0.00231863)
(0.049858 0 -0.00365002)
(0.0652363 0 -0.00483526)
(0.0784124 0 -0.00590473)
(0.0896607 0 -0.00687894)
(0.0992222 0 -0.00777279)
(0.107327 0 -0.00859864)
(0.114167 0 -0.00936365)
(0.119903 0 -0.0100714)
(0.124707 0 -0.0107254)
(0.128738 0 -0.0113295)
(0.132141 0 -0.0118837)
(0.135063 0 -0.0123884)
(0.137651 0 -0.0128453)
(0.140048 0 -0.013255)
(0.142416 0 -0.0136217)
(0.144926 0 -0.013953)
(0.147744 0 -0.0142558)
(0.151115 0 -0.0145571)
(0.15523 0 -0.014874)
(0.160347 0 -0.0152448)
(0.166815 0 -0.015741)
(0.174945 0 -0.0164338)
(0.185074 0 -0.0174256)
(0.197671 0 -0.0188877)
(0.212918 0 -0.0209668)
(0.231176 0 -0.0239172)
(0.251728 0 -0.0278633)
(0.273081 0 -0.0328585)
(0.011287 0 -0.000873838)
(0.0323209 0 -0.00250994)
(0.050499 0 -0.0039531)
(0.0661455 0 -0.00524157)
(0.0796 0 -0.00640707)
(0.0911476 0 -0.00747267)
(0.10104 0 -0.00845579)
(0.109508 0 -0.00937114)
(0.116741 0 -0.0102242)
(0.122916 0 -0.0110219)
(0.128205 0 -0.0117687)
(0.132782 0 -0.0124729)
(0.136792 0 -0.0131349)
(0.140394 0 -0.013759)
(0.143741 0 -0.0143489)
(0.146984 0 -0.0149093)
(0.1503 0 -0.0154502)
(0.153861 0 -0.0159823)
(0.157871 0 -0.0165257)
(0.162545 0 -0.0171043)
(0.168162 0 -0.0177646)
(0.174953 0 -0.0185464)
(0.183255 0 -0.0195254)
(0.193483 0 -0.0208148)
(0.205928 0 -0.0225141)
(0.221136 0 -0.0248238)
(0.239297 0 -0.0278922)
(0.260691 0 -0.0319504)
(0.283902 0 -0.0368899)
(0.307186 0 -0.0427115)
(0.0114233 0 -0.000938794)
(0.0327227 0 -0.00269747)
(0.0511668 0 -0.00425177)
(0.0670888 0 -0.00564249)
(0.0808314 0 -0.00690378)
(0.092688 0 -0.00806108)
(0.102918 0 -0.0091339)
(0.111753 0 -0.0101377)
(0.119389 0 -0.0110813)
(0.12601 0 -0.0119726)
(0.131802 0 -0.0128201)
(0.136936 0 -0.013631)
(0.141561 0 -0.0144089)
(0.145844 0 -0.0151612)
(0.149944 0 -0.0158946)
(0.154023 0 -0.0166179)
(0.158271 0 -0.0173478)
(0.162861 0 -0.0180982)
(0.168035 0 -0.0189037)
(0.173993 0 -0.019791)
(0.180996 0 -0.0208079)
(0.189371 0 -0.0220302)
(0.199407 0 -0.0235315)
(0.211504 0 -0.0254335)
(0.226109 0 -0.0278918)
(0.243586 0 -0.0310704)
(0.264292 0 -0.0351651)
(0.288295 0 -0.0403339)
(0.313946 0 -0.0462972)
(0.339259 0 -0.0529799)
(0.0115634 0 -0.00100242)
(0.0331374 0 -0.00288151)
(0.0518549 0 -0.00454513)
(0.0680588 0 -0.00603686)
(0.0820965 0 -0.00739336)
(0.0942685 0 -0.00864228)
(0.104842 0 -0.00980509)
(0.114052 0 -0.0108993)
(0.122099 0 -0.0119357)
(0.129175 0 -0.0129241)
(0.135469 0 -0.0138751)
(0.141155 0 -0.0147969)
(0.146387 0 -0.0156959)
(0.151342 0 -0.0165831)
(0.156183 0 -0.0174682)
(0.161073 0 -0.018363)
(0.166229 0 -0.0192939)
(0.171819 0 -0.0202785)
(0.178063 0 -0.0213494)
(0.185221 0 -0.0225574)
(0.19352 0 -0.0239495)
(0.203268 0 -0.0256041)
(0.214831 0 -0.0276327)
(0.228524 0 -0.0301467)
(0.244836 0 -0.0333371)
(0.263989 0 -0.0373516)
(0.2864 0 -0.0424323)
(0.311815 0 -0.0486744)
(0.338659 0 -0.0557186)
(0.366334 0 -0.0636842)
(0.00624402 0 -0.00232065)
(0.0133966 0 -0.00265365)
(0.0283026 0 -0.00310793)
(0.0508059 0 -0.00365296)
(0.0787658 0 -0.00417183)
(0.108963 0 -0.00458541)
(0.138155 0 -0.00487031)
(0.163985 0 -0.00498324)
(0.185467 0 -0.00497363)
(0.202614 0 -0.00488373)
(0.215747 0 -0.00470752)
(0.225349 0 -0.00450218)
(0.231895 0 -0.00425697)
(0.235744 0 -0.00399523)
(0.237194 0 -0.00372455)
(0.236463 0 -0.00344041)
(0.233715 0 -0.00317258)
(0.229037 0 -0.00291912)
(0.222475 0 -0.00265843)
(0.21407 0 -0.00241091)
(0.203784 0 -0.00217514)
(0.191579 0 -0.00194129)
(0.177411 0 -0.00172132)
(0.16118 0 -0.0015069)
(0.142814 0 -0.00129429)
(0.122231 0 -0.0010803)
(0.0993422 0 -0.00086154)
(0.0740575 0 -0.000634254)
(0.0462927 0 -0.000394207)
(0.0158871 0 -0.000135688)
(0.0115488 0 -0.00706088)
(0.0192459 0 -0.00805195)
(0.0346856 0 -0.00944658)
(0.0573202 0 -0.0110172)
(0.0850109 0 -0.0125183)
(0.114637 0 -0.0137101)
(0.143022 0 -0.0144746)
(0.167997 0 -0.014779)
(0.188723 0 -0.0147231)
(0.205215 0 -0.0144161)
(0.217817 0 -0.0138941)
(0.226998 0 -0.0132536)
(0.233205 0 -0.0125226)
(0.236793 0 -0.0117505)
(0.238041 0 -0.0109583)
(0.237152 0 -0.010147)
(0.234278 0 -0.00936031)
(0.229504 0 -0.00859634)
(0.22287 0 -0.0078504)
(0.2144 0 -0.00712221)
(0.204069 0 -0.00643128)
(0.191822 0 -0.00575625)
(0.177608 0 -0.00510926)
(0.161344 0 -0.00447605)
(0.142951 0 -0.00384687)
(0.122345 0 -0.0032125)
(0.0994356 0 -0.0025631)
(0.0741298 0 -0.00188762)
(0.0463419 0 -0.00117356)
(0.0159062 0 -0.000404024)
(0.0216683 0 -0.0120461)
(0.0305795 0 -0.0137454)
(0.0469557 0 -0.0160739)
(0.0697433 0 -0.0185723)
(0.0969465 0 -0.0209147)
(0.125421 0 -0.0227284)
(0.15224 0 -0.0237994)
(0.175628 0 -0.0241927)
(0.194908 0 -0.0240202)
(0.210167 0 -0.0234413)
(0.221766 0 -0.0225723)
(0.230154 0 -0.0215155)
(0.235725 0 -0.0203094)
(0.238817 0 -0.0190549)
(0.239678 0 -0.0177771)
(0.238489 0 -0.0164929)
(0.235377 0 -0.0152252)
(0.230414 0 -0.0139845)
(0.223633 0 -0.0127849)
(0.215044 0 -0.0116205)
(0.204608 0 -0.0105075)
(0.192276 0 -0.0094289)
(0.177987 0 -0.00838051)
(0.161661 0 -0.00734928)
(0.143217 0 -0.0063215)
(0.122565 0 -0.00528281)
(0.0996128 0 -0.00421741)
(0.0742653 0 -0.00310747)
(0.0464321 0 -0.0019327)
(0.0159402 0 -0.00066551)
(0.0362689 0 -0.0174988)
(0.0469284 0 -0.0199791)
(0.0643267 0 -0.0231366)
(0.0873179 0 -0.0264732)
(0.113683 0 -0.0294394)
(0.140439 0 -0.0316378)
(0.165105 0 -0.0328658)
(0.186292 0 -0.0332059)
(0.203561 0 -0.0328225)
(0.217122 0 -0.031933)
(0.22734 0 -0.0306978)
(0.23462 0 -0.0292463)
(0.239304 0 -0.0276096)
(0.241703 0 -0.0259055)
(0.242016 0 -0.0241762)
(0.240399 0 -0.0224509)
(0.236946 0 -0.0207373)
(0.231719 0 -0.0190775)
(0.224723 0 -0.0174604)
(0.215955 0 -0.0159038)
(0.205371 0 -0.0144032)
(0.192915 0 -0.0129458)
(0.178521 0 -0.0115209)
(0.162108 0 -0.0101136)
(0.143588 0 -0.00870673)
(0.12287 0 -0.00728136)
(0.0998574 0 -0.00581634)
(0.0744502 0 -0.00428759)
(0.0465532 0 -0.00266757)
(0.0159849 0 -0.000918667)
(0.0548731 0 -0.0235841)
(0.0674962 0 -0.0268503)
(0.085948 0 -0.0307602)
(0.109067 0 -0.0347739)
(0.134207 0 -0.0381267)
(0.158762 0 -0.0404472)
(0.180769 0 -0.0416278)
(0.199268 0 -0.0417765)
(0.214151 0 -0.0411241)
(0.225669 0 -0.0398804)
(0.234217 0 -0.0382673)
(0.240143 0 -0.0364112)
(0.24376 0 -0.0343844)
(0.245304 0 -0.0322672)
(0.244939 0 -0.03012)
(0.242794 0 -0.0279945)
(0.238921 0 -0.0258908)
(0.233356 0 -0.023852)
(0.22609 0 -0.0218732)
(0.217095 0 -0.0199588)
(0.206324 0 -0.018103)
(0.193713 0 -0.0162942)
(0.179187 0 -0.0145182)
(0.162663 0 -0.0127577)
(0.144048 0 -0.0109924)
(0.123246 0 -0.0091994)
(0.100156 0 -0.00735267)
(0.0746735 0 -0.00542245)
(0.0466976 0 -0.0033746)
(0.0160375 0 -0.00116221)
(0.0769883 0 -0.0304074)
(0.0915336 0 -0.034404)
(0.111072 0 -0.0389925)
(0.13402 0 -0.0434497)
(0.157579 0 -0.046954)
(0.179416 0 -0.0491207)
(0.198327 0 -0.0500198)
(0.21384 0 -0.0498385)
(0.226079 0 -0.0488474)
(0.235344 0 -0.0472394)
(0.24204 0 -0.0452466)
(0.246462 0 -0.0430082)
(0.248877 0 -0.0406123)
(0.249454 0 -0.0381169)
(0.248328 0 -0.0356057)
(0.24558 0 -0.0331262)
(0.241227 0 -0.0306899)
(0.235271 0 -0.028318)
(0.227685 0 -0.0260131)
(0.218426 0 -0.0237746)
(0.207434 0 -0.0215957)
(0.194639 0 -0.0194636)
(0.179959 0 -0.0173624)
(0.163303 0 -0.0152722)
(0.144576 0 -0.0131701)
(0.123675 0 -0.0110295)
(0.100494 0 -0.00882019)
(0.0749248 0 -0.0065073)
(0.0468583 0 -0.00405069)
(0.0160953 0 -0.00139503)
(0.102157 0 -0.0380198)
(0.118578 0 -0.0427074)
(0.139016 0 -0.0478232)
(0.161322 0 -0.0524409)
(0.18273 0 -0.0557789)
(0.201444 0 -0.0575546)
(0.216996 0 -0.0579936)
(0.229331 0 -0.0573645)
(0.238764 0 -0.0559472)
(0.245695 0 -0.0539677)
(0.250446 0 -0.051605)
(0.253283 0 -0.049005)
(0.254431 0 -0.0462728)
(0.253996 0 -0.0434566)
(0.252067 0 -0.0406406)
(0.248667 0 -0.0378594)
(0.243787 0 -0.0351305)
(0.237399 0 -0.0324671)
(0.229457 0 -0.0298724)
(0.219903 0 -0.0273438)
(0.208666 0 -0.0248728)
(0.195664 0 -0.022446)
(0.18081 0 -0.0200455)
(0.164007 0 -0.0176495)
(0.145154 0 -0.0152327)
(0.124142 0 -0.0127654)
(0.10086 0 -0.0102137)
(0.075194 0 -0.00753811)
(0.0470288 0 -0.00469324)
(0.0161561 0 -0.00161621)
(0.129969 0 -0.0464276)
(0.148125 0 -0.0517325)
(0.169094 0 -0.0571604)
(0.190079 0 -0.0615982)
(0.208685 0 -0.0644237)
(0.223989 0 -0.0656067)
(0.235993 0 -0.0654392)
(0.245082 0 -0.0642797)
(0.251691 0 -0.0623974)
(0.256283 0 -0.0600352)
(0.259082 0 -0.0573191)
(0.260347 0 -0.0544002)
(0.26023 0 -0.0513747)
(0.258784 0 -0.0482981)
(0.256031 0 -0.045226)
(0.251956 0 -0.0421909)
(0.246521 0 -0.0392106)
(0.239675 0 -0.0362952)
(0.231354 0 -0.0334467)
(0.221483 0 -0.0306611)
(0.209981 0 -0.0279289)
(0.196757 0 -0.0252354)
(0.181715 0 -0.0225614)
(0.164753 0 -0.0198838)
(0.145762 0 -0.0171748)
(0.12463 0 -0.0144023)
(0.10124 0 -0.011529)
(0.0754715 0 -0.00851163)
(0.0472029 0 -0.00530013)
(0.0162175 0 -0.00182497)
(0.160057 0 -0.0555929)
(0.179695 0 -0.0613878)
(0.200611 0 -0.0668372)
(0.219399 0 -0.0706976)
(0.23461 0 -0.0727073)
(0.246158 0 -0.0730843)
(0.254592 0 -0.0722307)
(0.260494 0 -0.0705029)
(0.264393 0 -0.0681601)
(0.266705 0 -0.0654106)
(0.267661 0 -0.0623865)
(0.267442 0 -0.0592047)
(0.266112 0 -0.0559421)
(0.263675 0 -0.0526492)
(0.260104 0 -0.049367)
(0.255351 0 -0.0461224)
(0.249352 0 -0.0429315)
(0.242036 0 -0.0398019)
(0.233322 0 -0.0367345)
(0.223121 0 -0.0337242)
(0.211342 0 -0.0307605)
(0.197886 0 -0.0278279)
(0.182647 0 -0.0249062)
(0.165517 0 -0.0219708)
(0.146382 0 -0.0189922)
(0.125125 0 -0.0159363)
(0.101622 0 -0.0127628)
(0.0757481 0 -0.00942527)
(0.0473749 0 -0.00586966)
(0.0162777 0 -0.00202073)
(0.192098 0 -0.0654291)
(0.212778 0 -0.0715121)
(0.23263 0 -0.0765487)
(0.248305 0 -0.0794379)
(0.2596 0 -0.0803796)
(0.26723 0 -0.0798193)
(0.272151 0 -0.0782316)
(0.275021 0 -0.0759376)
(0.276425 0 -0.0731773)
(0.276666 0 -0.0700937)
(0.275962 0 -0.0668187)
(0.274378 0 -0.0634293)
(0.271916 0 -0.0599828)
(0.268536 0 -0.05652)
(0.264175 0 -0.0530719)
(0.258759 0 -0.04966)
(0.252204 0 -0.0462973)
(0.244419 0 -0.0429897)
(0.23531 0 -0.0397369)
(0.224776 0 -0.0365329)
(0.212715 0 -0.0333665)
(0.19902 0 -0.0302216)
(0.183579 0 -0.0270772)
(0.166278 0 -0.0239077)
(0.146996 0 -0.0206822)
(0.125611 0 -0.0173647)
(0.101995 0 -0.0139128)
(0.0760153 0 -0.0102771)
(0.0475395 0 -0.0064006)
(0.0163347 0 -0.00220304)
(0.225799 0 -0.0758158)
(0.246774 0 -0.0818625)
(0.264117 0 -0.0859065)
(0.275758 0 -0.0874492)
(0.282762 0 -0.0871523)
(0.286538 0 -0.0856376)
(0.288101 0 -0.0833263)
(0.288267 0 -0.0805315)
(0.287484 0 -0.0774164)
(0.285966 0 -0.0740886)
(0.283803 0 -0.070628)
(0.280997 0 -0.0670883)
(0.277504 0 -0.0635101)
(0.27325 0 -0.0599238)
(0.268147 0 -0.0563524)
(0.2621 0 -0.0528127)
(0.255008 0 -0.049315)
(0.246766 0 -0.0458636)
(0.237269 0 -0.0424572)
(0.226405 0 -0.0390891)
(0.214065 0 -0.0357477)
(0.200131 0 -0.0324164)
(0.184488 0 -0.0290737)
(0.167015 0 -0.0256932)
(0.147586 0 -0.0222431)
(0.126074 0 -0.0186858)
(0.102347 0 -0.0149773)
(0.0762651 0 -0.011066)
(0.0476916 0 -0.00689211)
(0.0163868 0 -0.00237162)
(0.260876 0 -0.0866023)
(0.280784 0 -0.0920454)
(0.29389 0 -0.0944258)
(0.300619 0 -0.094306)
(0.303184 0 -0.0927211)
(0.303356 0 -0.0903249)
(0.302085 0 -0.087435)
(0.300029 0 -0.0842629)
(0.297454 0 -0.080902)
(0.294455 0 -0.0774108)
(0.291043 0 -0.0738329)
(0.28717 0 -0.070201)
(0.282761 0 -0.0665419)
(0.277717 0 -0.0628769)
(0.271933 0 -0.0592227)
(0.265299 0 -0.0555924)
(0.257701 0 -0.0519942)
(0.249025 0 -0.0484311)
(0.239155 0 -0.044901)
(0.227972 0 -0.0413967)
(0.215358 0 -0.0379065)
(0.201192 0 -0.0344135)
(0.185351 0 -0.030896)
(0.16771 0 -0.0273271)
(0.148138 0 -0.0236743)
(0.126503 0 -0.019899)
(0.102668 0 -0.0159557)
(0.0764901 0 -0.0117911)
(0.0478268 0 -0.00734372)
(0.0164326 0 -0.00252631)
(0.296823 0 -0.0975212)
(0.31313 0 -0.101338)
(0.320247 0 -0.101406)
(0.321618 0 -0.099525)
(0.32022 0 -0.0968501)
(0.317447 0 -0.093792)
(0.314004 0 -0.0905295)
(0.310226 0 -0.0871383)
(0.306228 0 -0.0836495)
(0.302026 0 -0.0800832)
(0.297576 0 -0.076458)
(0.292799 0 -0.0727915)
(0.287597 0 -0.0691004)
(0.281858 0 -0.0653995)
(0.275463 0 -0.0616999)
(0.268293 0 -0.0580132)
(0.260229 0 -0.0543464)
(0.251148 0 -0.0507013)
(0.240927 0 -0.0470753)
(0.229441 0 -0.0434611)
(0.216567 0 -0.0398468)
(0.202178 0 -0.0362157)
(0.186147 0 -0.032546)
(0.168343 0 -0.0288105)
(0.148635 0 -0.0249763)
(0.126883 0 -0.0210042)
(0.102949 0 -0.0168477)
(0.0766837 0 -0.0124524)
(0.0479411 0 -0.00775534)
(0.0164707 0 -0.00266709)
(0.331915 0 -0.107776)
(0.340722 0 -0.108419)
(0.341222 0 -0.105985)
(0.33814 0 -0.102755)
(0.333757 0 -0.0993986)
(0.328898 0 -0.0960263)
(0.323884 0 -0.0926295)
(0.318833 0 -0.089189)
(0.313758 0 -0.0856934)
(0.308617 0 -0.0821408)
(0.303334 0 -0.0785364)
(0.297813 0 -0.0748897)
(0.291945 0 -0.0712122)
(0.28561 0 -0.067515)
(0.278677 0 -0.0638032)
(0.271031 0 -0.0600913)
(0.262546 0 -0.056385)
(0.253095 0 -0.0526853)
(0.24255 0 -0.0489891)
(0.230782 0 -0.0452893)
(0.217664 0 -0.0415741)
(0.203066 0 -0.037827)
(0.186856 0 -0.0340265)
(0.168901 0 -0.0301453)
(0.149064 0 -0.0261505)
(0.127206 0 -0.0220023)
(0.103181 0 -0.0176539)
(0.0768402 0 -0.0130501)
(0.0480312 0 -0.00812716)
(0.0165001 0 -0.00279407)
(0.36011 0 -0.114651)
(0.361769 0 -0.111602)
(0.356212 0 -0.10728)
(0.350098 0 -0.103654)
(0.343875 0 -0.100314)
(0.337728 0 -0.0970547)
(0.33171 0 -0.093784)
(0.32581 0 -0.0904622)
(0.319982 0 -0.0870741)
(0.314157 0 -0.083617)
(0.308243 0 -0.0800955)
(0.302139 0 -0.0765181)
(0.295733 0 -0.0728955)
(0.288911 0 -0.0692401)
(0.281531 0 -0.0655533)
(0.273468 0 -0.0618437)
(0.264613 0 -0.0581246)
(0.254831 0 -0.054395)
(0.243993 0 -0.0506521)
(0.231969 0 -0.0468889)
(0.218627 0 -0.0430943)
(0.203836 0 -0.0392522)
(0.187461 0 -0.0353411)
(0.169367 0 -0.0313343)
(0.149415 0 -0.0271988)
(0.127461 0 -0.0228949)
(0.103359 0 -0.0183754)
(0.0769545 0 -0.013585)
(0.0480942 0 -0.00845968)
(0.0165201 0 -0.00290746)
(0.0117089 0 -0.0010657)
(0.0335684 0 -0.00306478)
(0.0525696 0 -0.0048376)
(0.0690647 0 -0.00643066)
(0.0834075 0 -0.00788318)
(0.0959039 0 -0.0092249)
(0.106829 0 -0.0104791)
(0.116427 0 -0.0116666)
(0.124895 0 -0.012799)
(0.132429 0 -0.0138877)
(0.139231 0 -0.0149465)
(0.145475 0 -0.0159852)
(0.151316 0 -0.0170119)
(0.156938 0 -0.0180412)
(0.162503 0 -0.0190851)
(0.168198 0 -0.0201637)
(0.174209 0 -0.0212994)
(0.180749 0 -0.0225264)
(0.188011 0 -0.0238761)
(0.196231 0 -0.0253993)
(0.205685 0 -0.0271667)
(0.216617 0 -0.0292503)
(0.229389 0 -0.0317734)
(0.244295 0 -0.0348622)
(0.261676 0 -0.0386941)
(0.281659 0 -0.0434318)
(0.304403 0 -0.0493285)
(0.329042 0 -0.0564912)
(0.353747 0 -0.0651129)
(0.376349 0 -0.0763343)
(0.0118586 0 -0.00112858)
(0.0340137 0 -0.00324724)
(0.0533087 0 -0.00512926)
(0.070105 0 -0.00682412)
(0.0847631 0 -0.00837365)
(0.0975915 0 -0.00980955)
(0.108886 0 -0.0111595)
(0.118886 0 -0.012444)
(0.127785 0 -0.0136758)
(0.13579 0 -0.0148697)
(0.143105 0 -0.016041)
(0.149902 0 -0.0172006)
(0.156343 0 -0.0183598)
(0.16262 0 -0.0195371)
(0.168895 0 -0.0207465)
(0.175363 0 -0.0220152)
(0.182198 0 -0.0233652)
(0.189595 0 -0.0248303)
(0.197777 0 -0.0264582)
(0.206942 0 -0.0282958)
(0.217328 0 -0.0304121)
(0.22922 0 -0.032903)
(0.242815 0 -0.0358588)
(0.258397 0 -0.0394227)
(0.27609 0 -0.0437322)
(0.295819 0 -0.0489216)
(0.317245 0 -0.0551283)
(0.338971 0 -0.0622556)
(0.359007 0 -0.0701254)
(0.375342 0 -0.0785399)
(0.0120115 0 -0.00119059)
(0.034469 0 -0.00342742)
(0.0540648 0 -0.00541778)
(0.0711697 0 -0.00721412)
(0.0861513 0 -0.00886096)
(0.0993277 0 -0.0103928)
(0.110995 0 -0.0118393)
(0.121392 0 -0.0132212)
(0.130722 0 -0.0145541)
(0.139191 0 -0.0158542)
(0.147013 0 -0.0171403)
(0.154356 0 -0.0184241)
(0.161382 0 -0.0197184)
(0.168291 0 -0.0210468)
(0.175244 0 -0.0224255)
(0.182416 0 -0.0238788)
(0.189999 0 -0.0254395)
(0.198165 0 -0.0271394)
(0.207109 0 -0.0290235)
(0.217043 0 -0.0311522)
(0.228139 0 -0.0335825)
(0.240637 0 -0.0364098)
(0.254625 0 -0.0397029)
(0.2703 0 -0.0435905)
(0.287528 0 -0.0481435)
(0.305998 0 -0.0534211)
(0.324968 0 -0.0593869)
(0.343113 0 -0.0658502)
(0.359054 0 -0.0726154)
(0.371353 0 -0.0794476)
(0.0121659 0 -0.00125126)
(0.0349294 0 -0.003604)
(0.0548301 0 -0.00570104)
(0.0722478 0 -0.0075978)
(0.0875564 0 -0.00934134)
(0.101078 0 -0.0109681)
(0.11312 0 -0.0125111)
(0.12392 0 -0.0139916)
(0.133677 0 -0.0154264)
(0.142607 0 -0.0168339)
(0.150925 0 -0.0182363)
(0.158787 0 -0.0196434)
(0.166378 0 -0.021075)
(0.173872 0 -0.0225503)
(0.181449 0 -0.0240949)
(0.189262 0 -0.0257292)
(0.197483 0 -0.0274849)
(0.206295 0 -0.0294028)
(0.215845 0 -0.0315191)
(0.226325 0 -0.0338943)
(0.237872 0 -0.0365835)
(0.25061 0 -0.0396549)
(0.264576 0 -0.0431691)
(0.279791 0 -0.0472039)
(0.295927 0 -0.0517584)
(0.312516 0 -0.0568156)
(0.328813 0 -0.0622745)
(0.343867 0 -0.0679801)
(0.356722 0 -0.073764)
(0.366336 0 -0.0793466)
(0.0123199 0 -0.00131005)
(0.0353895 0 -0.0037754)
(0.0555958 0 -0.00597654)
(0.0733275 0 -0.00797176)
(0.0889639 0 -0.00981056)
(0.10284 0 -0.0115322)
(0.115257 0 -0.0131716)
(0.126442 0 -0.0147484)
(0.136614 0 -0.016284)
(0.145996 0 -0.0178002)
(0.154783 0 -0.0193147)
(0.163145 0 -0.0208447)
(0.17126 0 -0.0224099)
(0.179292 0 -0.0240283)
(0.187422 0 -0.0257284)
(0.195787 0 -0.0275317)
(0.204538 0 -0.0294659)
(0.213847 0 -0.031573)
(0.223843 0 -0.0338896)
(0.23465 0 -0.036461)
(0.246362 0 -0.0393347)
(0.259014 0 -0.0425544)
(0.272567 0 -0.0461586)
(0.286872 0 -0.0501655)
(0.301556 0 -0.0545388)
(0.316177 0 -0.0592349)
(0.330126 0 -0.0641537)
(0.342723 0 -0.0691665)
(0.353254 0 -0.0741)
(0.361063 0 -0.0787164)
(0.0124717 0 -0.0013664)
(0.0358436 0 -0.00393998)
(0.0563523 0 -0.00624161)
(0.074396 0 -0.00833239)
(0.090355 0 -0.0102638)
(0.104583 0 -0.0120795)
(0.117365 0 -0.0138119)
(0.128928 0 -0.015483)
(0.139512 0 -0.0171191)
(0.149323 0 -0.018741)
(0.158552 0 -0.0203663)
(0.167377 0 -0.0220137)
(0.175964 0 -0.0237044)
(0.184487 0 -0.025461)
(0.193084 0 -0.0273021)
(0.201894 0 -0.0292537)
(0.211069 0 -0.0313464)
(0.220729 0 -0.0336113)
(0.230981 0 -0.036082)
(0.241895 0 -0.0387903)
(0.25351 0 -0.0417704)
(0.265786 0 -0.0450403)
(0.278612 0 -0.0486116)
(0.291785 0 -0.0524725)
(0.304985 0 -0.0565857)
(0.317814 0 -0.0608907)
(0.329801 0 -0.0652974)
(0.340443 0 -0.0696918)
(0.349237 0 -0.0739138)
(0.355792 0 -0.0777913)
(0.0126193 0 -0.00141964)
(0.036286 0 -0.00409583)
(0.0570893 0 -0.00649309)
(0.0754409 0 -0.00867553)
(0.0917324 0 -0.0106982)
(0.106301 0 -0.0126043)
(0.119422 0 -0.0144251)
(0.131354 0 -0.0161891)
(0.14233 0 -0.0179215)
(0.152548 0 -0.0196444)
(0.162185 0 -0.0213749)
(0.171425 0 -0.0231329)
(0.180445 0 -0.0249428)
(0.189373 0 -0.0268206)
(0.198352 0 -0.0287872)
(0.207516 0 -0.0308681)
(0.216983 0 -0.0330893)
(0.226843 0 -0.0354741)
(0.237171 0 -0.0380497)
(0.247986 0 -0.0408329)
(0.259275 0 -0.0438409)
(0.270959 0 -0.0470767)
(0.282916 0 -0.0505381)
(0.294937 0 -0.0542019)
(0.306745 0 -0.0580248)
(0.31801 0 -0.0619451)
(0.328381 0 -0.0658883)
(0.337469 0 -0.0697406)
(0.344939 0 -0.0733757)
(0.350583 0 -0.0766811)
(0.0127608 0 -0.00146914)
(0.0367117 0 -0.00424119)
(0.0577956 0 -0.00672778)
(0.0764491 0 -0.00899785)
(0.0930618 0 -0.011107)
(0.107956 0 -0.0130974)
(0.121421 0 -0.0150051)
(0.133696 0 -0.0168566)
(0.14503 0 -0.0186795)
(0.155628 0 -0.020498)
(0.165631 0 -0.0223248)
(0.175248 0 -0.0241861)
(0.184628 0 -0.026101)
(0.19388 0 -0.0280824)
(0.203169 0 -0.0301589)
(0.212576 0 -0.0323433)
(0.222208 0 -0.0346602)
(0.232121 0 -0.037124)
(0.242349 0 -0.039751)
(0.252886 0 -0.0425491)
(0.263701 0 -0.0455259)
(0.274705 0 -0.0486772)
(0.285763 0 -0.0519885)
(0.296685 0 -0.0554304)
(0.307237 0 -0.0589589)
(0.317175 0 -0.0625246)
(0.326204 0 -0.0660469)
(0.334038 0 -0.0694277)
(0.340488 0 -0.0725854)
(0.345433 0 -0.0754383)
(0.0128946 0 -0.0015142)
(0.0371179 0 -0.00437418)
(0.0584877 0 -0.00694521)
(0.0774265 0 -0.00929617)
(0.0943203 0 -0.0114826)
(0.109528 0 -0.0135531)
(0.123326 0 -0.0155429)
(0.135922 0 -0.0174752)
(0.147592 0 -0.0193832)
(0.158528 0 -0.0212887)
(0.168859 0 -0.0232034)
(0.178792 0 -0.025155)
(0.18846 0 -0.0271588)
(0.197979 0 -0.0292308)
(0.207477 0 -0.031392)
(0.217013 0 -0.0336501)
(0.226675 0 -0.0360249)
(0.236497 0 -0.0385244)
(0.246497 0 -0.0411588)
(0.256659 0 -0.0439314)
(0.266932 0 -0.0468401)
(0.277223 0 -0.049874)
(0.287404 0 -0.0530126)
(0.297311 0 -0.0562246)
(0.306774 0 -0.0594767)
(0.315571 0 -0.0627108)
(0.32347 0 -0.0658514)
(0.330299 0 -0.0688345)
(0.335941 0 -0.0715995)
(0.340325 0 -0.0740872)
(0.0130195 0 -0.00155428)
(0.0374978 0 -0.00449287)
(0.0591315 0 -0.0071393)
(0.0783366 0 -0.00956258)
(0.0955105 0 -0.0118212)
(0.111019 0 -0.0139664)
(0.125116 0 -0.0160298)
(0.13801 0 -0.0180361)
(0.149981 0 -0.02002)
(0.16121 0 -0.0220019)
(0.171822 0 -0.0239933)
(0.182015 0 -0.0260213)
(0.191908 0 -0.0280986)
(0.201603 0 -0.0302385)
(0.211195 0 -0.032454)
(0.220756 0 -0.0347561)
(0.230344 0 -0.0371563)
(0.239987 0 -0.0396605)
(0.249685 0 -0.042272)
(0.259413 0 -0.0449887)