/*--------------------------------*- C++ -*----------------------------------*\
| =========                 |                                                 |
| \\      /  F ield         | OpenFOAM: The Open Source CFD Toolbox           |
|  \\    /   O peration     | Version:  dev                                   |
|   \\  /    A nd           | Web:      www.OpenFOAM.org                      |
|    \\/     M anipulation  |                                                 |
\*---------------------------------------------------------------------------*/
FoamFile
{
    version     2.0;
    format      ascii;
    class       volVectorField;
    location    "5";
    object      cellDisplacement;
}
// * * * * * * * * * * * * * * * * * * * * * * * * * * * * * * * * * * * * * //

dimensions      [0 1 0 0 0 0 0];

internalField   nonuniform List<vector> 
2790
(
(0.0106283 0 -3.89474e-05)
(0.0303327 0 -0.00011148)
(0.0471253 0 -0.000174761)
(0.0612558 0 -0.000230281)
(0.0729957 0 -0.000279365)
(0.08258 0 -0.00032314)
(0.0902207 0 -0.000361499)
(0.0961088 0 -0.000395029)
(0.100406 0 -0.000423874)
(0.103255 0 -0.000447936)
(0.104779 0 -0.000466577)
(0.105091 0 -0.000479453)
(0.10429 0 -0.000485953)
(0.102463 0 -0.000485238)
(0.0996922 0 -0.000476268)
(0.0960504 0 -0.000457807)
(0.0916088 0 -0.000428491)
(0.0864425 0 -0.000387419)
(0.0806159 0 -0.000330944)
(0.0741964 0 -0.000257624)
(0.0672627 0 -0.000165338)
(0.0598992 0 -5.14613e-05)
(0.0521992 0 8.68509e-05)
(0.0442663 0 0.00025262)
(0.0362478 0 0.000449649)
(0.0283261 0 0.000681031)
(0.020743 0 0.000950012)
(0.0138551 0 0.00125825)
(0.00822557 0 0.00159829)
(0.0050157 0 0.00191791)
(0.010643 0 -0.000116967)
(0.0303765 0 -0.000334832)
(0.0471973 0 -0.00052497)
(0.0613564 0 -0.000691834)
(0.0731285 0 -0.000839379)
(0.0827459 0 -0.000971295)
(0.0904217 0 -0.00108679)
(0.0963503 0 -0.00118793)
(0.100694 0 -0.00127512)
(0.103593 0 -0.00134821)
(0.105175 0 -0.00140504)
(0.105551 0 -0.00144476)
(0.104824 0 -0.00146558)
(0.103081 0 -0.00146501)
(0.100404 0 -0.00143999)
(0.0968691 0 -0.00138681)
(0.0925447 0 -0.00130107)
(0.0875122 0 -0.00117809)
(0.0818436 0 -0.00101259)
(0.0755999 0 -0.000797773)
(0.0688688 0 -0.000527482)
(0.0617417 0 -0.000193941)
(0.0543237 0 0.000211114)
(0.0467156 0 0.000697625)
(0.0390667 0 0.00127433)
(0.031587 0 0.00194748)
(0.0245246 0 0.00272213)
(0.0182633 0 0.00359571)
(0.0134822 0 0.00453711)
(0.0114194 0 0.00536345)
(0.0106727 0 -0.000195329)
(0.0304645 0 -0.000559261)
(0.0473412 0 -0.000877082)
(0.061557 0 -0.00115613)
(0.0733933 0 -0.00140287)
(0.0830752 0 -0.00162129)
(0.0908196 0 -0.00181439)
(0.0968287 0 -0.00198407)
(0.101263 0 -0.00213079)
(0.104264 0 -0.00225498)
(0.105958 0 -0.00235186)
(0.106464 0 -0.00242097)
(0.105882 0 -0.00245936)
(0.104304 0 -0.00246301)
(0.101814 0 -0.00242702)
(0.0984924 0 -0.00234552)
(0.0944127 0 -0.00221149)
(0.0896509 0 -0.00201636)
(0.0842878 0 -0.00175395)
(0.0783878 0 -0.0014122)
(0.0720534 0 -0.000982825)
(0.0653831 0 -0.000453207)
(0.0584905 0 0.000189527)
(0.0515118 0 0.000958305)
(0.0446102 0 0.0018636)
(0.0380238 0 0.00291109)
(0.0320303 0 0.0040993)
(0.0269895 0 0.0054111)
(0.0236201 0 0.0067617)
(0.0234608 0 0.0078278)
(0.0107176 0 -0.000273741)
(0.0305971 0 -0.000783922)
(0.047557 0 -0.0012298)
(0.0618551 0 -0.00162147)
(0.0737759 0 -0.00196786)
(0.0835549 0 -0.00227368)
(0.0914112 0 -0.0025458)
(0.0975413 0 -0.0027856)
(0.102111 0 -0.00299358)
(0.105259 0 -0.00316802)
(0.107119 0 -0.00330737)
(0.107815 0 -0.00340966)
(0.107448 0 -0.00347064)
(0.106114 0 -0.00348494)
(0.103902 0 -0.00344617)
(0.100894 0 -0.00334682)
(0.0971724 0 -0.00317806)
(0.0928192 0 -0.00292987)
(0.087921 0 -0.0025921)
(0.082548 0 -0.00215068)
(0.0768017 0 -0.0015928)
(0.0708061 0 -0.000905448)
(0.0646851 0 -7.39925e-05)
(0.0585945 0 0.00091428)
(0.0527312 0 0.00206838)
(0.0473929 0 0.00338581)
(0.0429254 0 0.00484517)
(0.0397194 0 0.00639375)
(0.0383007 0 0.00790468)
(0.0405667 0 0.00889589)
(0.0107764 0 -0.000351773)
(0.0307722 0 -0.00100757)
(0.0478413 0 -0.00158126)
(0.0622468 0 -0.00208536)
(0.0742825 0 -0.00253193)
(0.0841908 0 -0.00292836)
(0.0921914 0 -0.00328122)
(0.0984802 0 -0.00359325)
(0.103224 0 -0.00386529)
(0.106567 0 -0.00409346)
(0.10865 0 -0.00427964)
(0.109597 0 -0.00442086)
(0.109514 0 -0.00451161)
(0.108501 0 -0.00454554)
(0.106652 0 -0.0045152)
(0.104056 0 -0.00441204)
(0.100802 0 -0.004226)
(0.0969788 0 -0.00394566)
(0.0926777 0 -0.00355857)
(0.0879879 0 -0.00305005)
(0.083024 0 -0.00240638)
(0.077918 0 -0.00161409)
(0.0728173 0 -0.000660322)
(0.0679084 0 0.000463087)
(0.0633964 0 0.00176148)
(0.0595802 0 0.00322016)
(0.0569623 0 0.00477963)
(0.0560264 0 0.00633458)
(0.0572003 0 0.00772985)
(0.0620597 0 0.00835897)
(0.0108482 0 -0.000429713)
(0.0309889 0 -0.0012311)
(0.0481913 0 -0.00193137)
(0.0627274 0 -0.00254772)
(0.0749066 0 -0.00309494)
(0.084973 0 -0.00358244)
(0.0931489 0 -0.00401737)
(0.099632 0 -0.00440368)
(0.104593 0 -0.00474367)
(0.108178 0 -0.00503282)
(0.110532 0 -0.00527102)
(0.111788 0 -0.00545826)
(0.112053 0 -0.0055876)
(0.111433 0 -0.00565212)
(0.110027 0 -0.0056438)
(0.107934 0 -0.00555397)
(0.105252 0 -0.00537201)
(0.102077 0 -0.00508603)
(0.0985139 0 -0.00468344)
(0.0946599 0 -0.00414896)
(0.0906396 0 -0.00346897)
(0.086608 0 -0.00263322)
(0.0827289 0 -0.00163194)
(0.0792493 0 -0.000468723)
(0.0764104 0 0.000847018)
(0.0744826 0 0.0022912)
(0.0739346 0 0.00378157)
(0.0755043 0 0.00513411)
(0.0796568 0 0.00612867)
(0.0872584 0 0.00614815)
(0.0109317 0 -0.00050744)
(0.0312289 0 -0.00145372)
(0.0485897 0 -0.00228077)
(0.0632934 0 -0.00301042)
(0.0756444 0 -0.00365938)
(0.0858975 0 -0.0042393)
(0.0942792 0 -0.0047584)
(0.100992 0 -0.00522163)
(0.106202 0 -0.00563034)
(0.110068 0 -0.00598463)
(0.112749 0 -0.00628464)
(0.114369 0 -0.0065265)
(0.115042 0 -0.00670464)
(0.114881 0 -0.00681241)
(0.113993 0 -0.00684156)
(0.112488 0 -0.00678461)
(0.110471 0 -0.00663103)
(0.108049 0 -0.00636929)
(0.105338 0 -0.00598746)
(0.102459 0 -0.00547343)
(0.0995513 0 -0.00481612)
(0.096784 0 -0.00400936)
(0.0943475 0 -0.00304969)
(0.0924766 0 -0.00194599)
(0.0914856 0 -0.000730902)
(0.0917625 0 0.000532962)
(0.0936132 0 0.00176078)
(0.0977988 0 0.00272086)
(0.104983 0 0.00308791)
(0.115546 0 0.00229265)
(0.0110262 0 -0.000584506)
(0.0315054 0 -0.00167484)
(0.0490482 0 -0.0026295)
(0.0639407 0 -0.00347291)
(0.0764887 0 -0.00422461)
(0.0869547 0 -0.00489842)
(0.09557 0 -0.00550391)
(0.102538 0 -0.0060468)
(0.108034 0 -0.00652847)
(0.112229 0 -0.00695373)
(0.115279 0 -0.00732244)
(0.117308 0 -0.00762735)
(0.118443 0 -0.00786536)
(0.118803 0 -0.0080303)
(0.118496 0 -0.00811328)
(0.117654 0 -0.00811069)
(0.116387 0 -0.0080122)
(0.114816 0 -0.00780781)
(0.113069 0 -0.00748806)
(0.111287 0 -0.00704468)
(0.109618 0 -0.00646943)
(0.108254 0 -0.00576304)
(0.107449 0 -0.00493911)
(0.107411 0 -0.00401173)
(0.108454 0 -0.00302407)
(0.111067 0 -0.00208034)
(0.115621 0 -0.00130704)
(0.122576 0 -0.00092354)
(0.13286 0 -0.00136437)
(0.146411 0 -0.0031216)
(0.0111311 0 -0.000660819)
(0.0318145 0 -0.00189408)
(0.0495594 0 -0.00297543)
(0.0646602 0 -0.00393233)
(0.0774269 0 -0.00478712)
(0.088129 0 -0.00555581)
(0.0970029 0 -0.00624955)
(0.104257 0 -0.00687542)
(0.110075 0 -0.0074372)
(0.11463 0 -0.00793855)
(0.118079 0 -0.00837943)
(0.120557 0 -0.00875588)
(0.122201 0 -0.00906533)
(0.123136 0 -0.00930287)
(0.123485 0 -0.00946251)
(0.123371 0 -0.00953699)
(0.122928 0 -0.00952136)
(0.122286 0 -0.00940818)
(0.121586 0 -0.00919081)
(0.121015 0 -0.00887187)
(0.120712 0 -0.00844436)
(0.1209 0 -0.00791856)
(0.121814 0 -0.00731197)
(0.123789 0 -0.00667422)
(0.127125 0 -0.00605846)
(0.132186 0 -0.00556757)
(0.139552 0 -0.00540358)
(0.149496 0 -0.00577328)
(0.162932 0 -0.00716556)
(0.179384 0 -0.00997677)
(0.0112462 0 -0.000736625)
(0.0321542 0 -0.00211208)
(0.0501206 0 -0.00331977)
(0.0654486 0 -0.00439037)
(0.0784549 0 -0.00534911)
(0.0894153 0 -0.00621423)
(0.0985719 0 -0.00699863)
(0.106139 0 -0.00771094)
(0.112306 0 -0.00835665)
(0.117252 0 -0.00893966)
(0.121133 0 -0.00946065)
(0.124098 0 -0.00991766)
(0.12629 0 -0.0103103)
(0.127845 0 -0.0106353)
(0.128899 0 -0.0108899)
(0.129562 0 -0.0110628)
(0.130003 0 -0.0111583)
(0.13036 0 -0.0111714)
(0.130802 0 -0.0111031)
(0.131498 0 -0.0109547)
(0.132637 0 -0.0107336)
(0.134495 0 -0.0104674)
(0.137291 0 -0.0101782)
(0.14135 0 -0.00992229)
(0.147109 0 -0.00980366)
(0.154824 0 -0.00991807)
(0.165083 0 -0.010495)
(0.178221 0 -0.0117787)
(0.1948 0 -0.0142259)
(0.213981 0 -0.0181343)
(0.0113706 0 -0.000811761)
(0.0325212 0 -0.00232835)
(0.0507263 0 -0.00366179)
(0.0662987 0 -0.0048461)
(0.0795625 0 -0.00590943)
(0.0908007 0 -0.00687236)
(0.100261 0 -0.00774964)
(0.108163 0 -0.00855154)
(0.114704 0 -0.00928511)
(0.120064 0 -0.00995531)
(0.124408 0 -0.0105639)
(0.127886 0 -0.0111098)
(0.13066 0 -0.0115971)
(0.132867 0 -0.0120233)
(0.13465 0 -0.0123867)
(0.136147 0 -0.0126842)
(0.137516 0 -0.0129179)
(0.138912 0 -0.0130881)
(0.140551 0 -0.0132098)
(0.14258 0 -0.0132833)
(0.145242 0 -0.0133315)
(0.148787 0 -0.0133838)
(0.153553 0 -0.0134994)
(0.159813 0 -0.0137339)
(0.167994 0 -0.0142028)
(0.178555 0 -0.0150685)
(0.191846 0 -0.0165227)
(0.208396 0 -0.0188768)
(0.22797 0 -0.0224186)
(0.249652 0 -0.0274168)
(0.0115019 0 -0.000885643)
(0.0329095 0 -0.00254125)
(0.051367 0 -0.00399894)
(0.0671976 0 -0.00529612)
(0.0807336 0 -0.0064639)
(0.0922649 0 -0.00752526)
(0.102045 0 -0.00849692)
(0.110299 0 -0.00939084)
(0.117231 0 -0.0102157)
(0.123026 0 -0.0109781)
(0.127854 0 -0.0116816)
(0.131882 0 -0.0123292)
(0.135263 0 -0.0129221)
(0.138148 0 -0.0134629)
(0.140689 0 -0.0139526)
(0.143041 0 -0.0143935)
(0.14537 0 -0.0147911)
(0.147851 0 -0.0151533)
(0.150685 0 -0.0154944)
(0.154065 0 -0.0158303)
(0.158281 0 -0.0162018)
(0.163571 0 -0.016643)
(0.170263 0 -0.0172197)
(0.178765 0 -0.0180349)
(0.189422 0 -0.0191956)
(0.202819 0 -0.0209098)
(0.219244 0 -0.0233636)
(0.239209 0 -0.0268843)
(0.261743 0 -0.03156)
(0.285712 0 -0.0375994)
(0.0116397 0 -0.000958473)
(0.0333172 0 -0.00275134)
(0.0520401 0 -0.00433214)
(0.0681419 0 -0.00574169)
(0.0819634 0 -0.0070141)
(0.0938019 0 -0.00817478)
(0.103917 0 -0.00924255)
(0.112538 0 -0.010231)
(0.119875 0 -0.0111504)
(0.126123 0 -0.01201)
(0.131456 0 -0.0128153)
(0.136049 0 -0.0135722)
(0.140043 0 -0.0142787)
(0.143622 0 -0.014946)
(0.146935 0 -0.0155769)
(0.150153 0 -0.0161787)
(0.15345 0 -0.0167612)
(0.157016 0 -0.0173394)
(0.161051 0 -0.0179322)
(0.165796 0 -0.0185716)
(0.171508 0 -0.0192975)
(0.178521 0 -0.0201786)
(0.187128 0 -0.0212823)
(0.197753 0 -0.0227274)
(0.210885 0 -0.0246723)
(0.226958 0 -0.0272982)
(0.246443 0 -0.0308444)
(0.269578 0 -0.0355637)
(0.295078 0 -0.0414075)
(0.321194 0 -0.0484347)
(0.0117829 0 -0.00103004)
(0.0337408 0 -0.00295801)
(0.0527392 0 -0.00466041)
(0.0691225 0 -0.00618149)
(0.0832401 0 -0.00755831)
(0.0953968 0 -0.00881882)
(0.105858 0 -0.00998399)
(0.114857 0 -0.011069)
(0.122609 0 -0.0120854)
(0.12932 0 -0.0130463)
(0.135166 0 -0.013958)
(0.140318 0 -0.014827)
(0.144947 0 -0.015659)
(0.149225 0 -0.0164637)
(0.153312 0 -0.0172479)
(0.157391 0 -0.0180246)
(0.161639 0 -0.0188075)
(0.166267 0 -0.0196203)
(0.171474 0 -0.0204864)
(0.177543 0 -0.0214561)
(0.184716 0 -0.0225732)
(0.193314 0 -0.0239117)
(0.203726 0 -0.0255795)
(0.216327 0 -0.027694)
(0.231681 0 -0.0304539)
(0.250145 0 -0.0340333)
(0.272356 0 -0.0387269)
(0.298154 0 -0.044655)
(0.326238 0 -0.0516647)
(0.354526 0 -0.0597125)
(0.0119289 0 -0.00109971)
(0.0341736 0 -0.0031595)
(0.0534544 0 -0.00498102)
(0.0701258 0 -0.00661182)
(0.0845459 0 -0.00809193)
(0.0970274 0 -0.00945185)
(0.107842 0 -0.0107149)
(0.117224 0 -0.011898)
(0.125406 0 -0.0130167)
(0.132588 0 -0.0140823)
(0.138949 0 -0.0151048)
(0.144669 0 -0.0160925)
(0.149925 0 -0.0170553)
(0.154893 0 -0.0180041)
(0.159738 0 -0.0189498)
(0.164657 0 -0.0199117)
(0.169827 0 -0.020906)
(0.175482 0 -0.0219682)
(0.181819 0 -0.0231263)
(0.189096 0 -0.0244295)
(0.19762 0 -0.0259509)
(0.207675 0 -0.0277645)
(0.219639 0 -0.0299874)
(0.233963 0 -0.0327786)
(0.251059 0 -0.0363143)
(0.271389 0 -0.0408281)
(0.295423 0 -0.0466091)
(0.322694 0 -0.0537063)
(0.352065 0 -0.0619351)
(0.382763 0 -0.0714621)
(0.00660974 0 -0.00244334)
(0.0143651 0 -0.00282997)
(0.0307911 0 -0.00336731)
(0.0559718 0 -0.00401977)
(0.0874664 0 -0.00464026)
(0.121267 0 -0.00514733)
(0.153209 0 -0.00544648)
(0.180855 0 -0.00559315)
(0.203362 0 -0.0055652)
(0.220836 0 -0.00542526)
(0.233939 0 -0.00523804)
(0.243312 0 -0.00498362)
(0.249459 0 -0.00468124)
(0.252825 0 -0.00438051)
(0.253748 0 -0.00407695)
(0.252452 0 -0.0037744)
(0.24909 0 -0.00347476)
(0.243768 0 -0.00318191)
(0.236511 0 -0.00290264)
(0.227325 0 -0.00262586)
(0.216198 0 -0.00236982)
(0.20306 0 -0.00212485)
(0.187854 0 -0.00188725)
(0.170512 0 -0.00165393)
(0.150951 0 -0.00142183)
(0.129086 0 -0.00118767)
(0.104827 0 -0.000947814)
(0.0780844 0 -0.000698214)
(0.0487745 0 -0.000434251)
(0.0167297 0 -0.000149628)
(0.012139 0 -0.00744777)
(0.02055 0 -0.00860491)
(0.0376225 0 -0.0102537)
(0.062967 0 -0.0121242)
(0.0941537 0 -0.0139194)
(0.127223 0 -0.015333)
(0.158221 0 -0.0161626)
(0.184928 0 -0.0165176)
(0.206585 0 -0.0164146)
(0.223391 0 -0.0159991)
(0.235959 0 -0.0154085)
(0.244897 0 -0.0146495)
(0.250717 0 -0.0137869)
(0.253837 0 -0.0129051)
(0.254567 0 -0.0120138)
(0.253121 0 -0.0111272)
(0.249642 0 -0.0102475)
(0.244226 0 -0.00938504)
(0.236899 0 -0.0085682)
(0.227655 0 -0.00777424)
(0.21647 0 -0.00702445)
(0.203288 0 -0.00630379)
(0.188047 0 -0.00560296)
(0.170675 0 -0.00491341)
(0.151089 0 -0.00422625)
(0.129201 0 -0.00353192)
(0.104922 0 -0.00281981)
(0.0781575 0 -0.00207795)
(0.0488244 0 -0.00129273)
(0.0167492 0 -0.000445504)
(0.0227005 0 -0.0127426)
(0.0325611 0 -0.0147447)
(0.0506959 0 -0.0174733)
(0.0762611 0 -0.0204525)
(0.106845 0 -0.0232307)
(0.138497 0 -0.0253368)
(0.167735 0 -0.0265565)
(0.192664 0 -0.0269706)
(0.21275 0 -0.0267265)
(0.228279 0 -0.0260154)
(0.239821 0 -0.0249956)
(0.247946 0 -0.0237358)
(0.25315 0 -0.0223643)
(0.255791 0 -0.0209414)
(0.256148 0 -0.0195012)
(0.254414 0 -0.0180736)
(0.25071 0 -0.016653)
(0.245114 0 -0.0152769)
(0.237641 0 -0.0139668)
(0.228277 0 -0.0127073)
(0.216991 0 -0.0114997)
(0.203727 0 -0.0103323)
(0.188417 0 -0.00919298)
(0.170986 0 -0.00806875)
(0.15135 0 -0.00694566)
(0.129418 0 -0.00580839)
(0.105097 0 -0.00463987)
(0.0782925 0 -0.00342071)
(0.0489147 0 -0.00212881)
(0.0167834 0 -0.000733753)
(0.0379502 0 -0.0185709)
(0.0497772 0 -0.0214754)
(0.0690974 0 -0.025174)
(0.0949529 0 -0.0291534)
(0.124544 0 -0.0326671)
(0.154201 0 -0.0352118)
(0.180955 0 -0.0365926)
(0.20342 0 -0.0369244)
(0.22136 0 -0.0364478)
(0.235124 0 -0.0353965)
(0.24525 0 -0.0339558)
(0.252268 0 -0.0322364)
(0.25661 0 -0.03038)
(0.258575 0 -0.028454)
(0.258402 0 -0.0265028)
(0.256261 0 -0.0245818)
(0.252236 0 -0.0226841)
(0.246381 0 -0.0208552)
(0.238697 0 -0.0190991)
(0.229161 0 -0.0174083)
(0.217731 0 -0.015777)
(0.204348 0 -0.0141929)
(0.188939 0 -0.0126413)
(0.171424 0 -0.0111055)
(0.151715 0 -0.00956728)
(0.129719 0 -0.00800607)
(0.105339 0 -0.00639891)
(0.0784759 0 -0.00471953)
(0.0490352 0 -0.00293794)
(0.0168282 0 -0.00101271)
(0.0573766 0 -0.0251079)
(0.0713674 0 -0.0289064)
(0.0919764 0 -0.033515)
(0.117995 0 -0.0382906)
(0.146221 0 -0.0422928)
(0.173284 0 -0.0449699)
(0.196945 0 -0.0462325)
(0.216469 0 -0.0463254)
(0.231855 0 -0.0455272)
(0.243511 0 -0.0440979)
(0.251942 0 -0.0422395)
(0.257632 0 -0.0401049)
(0.260917 0 -0.0377993)
(0.262049 0 -0.0354107)
(0.26123 0 -0.0330095)
(0.258581 0 -0.0306494)
(0.254156 0 -0.02834)
(0.247975 0 -0.0261039)
(0.240024 0 -0.023946)
(0.23027 0 -0.0218612)
(0.218658 0 -0.0198405)
(0.205123 0 -0.0178704)
(0.189588 0 -0.0159338)
(0.171966 0 -0.014011)
(0.152165 0 -0.0120798)
(0.130088 0 -0.0101152)
(0.105633 0 -0.00808886)
(0.0786964 0 -0.00596824)
(0.0491782 0 -0.00371614)
(0.0168806 0 -0.00128094)
(0.0804629 0 -0.0324665)
(0.0966214 0 -0.0371233)
(0.118553 0 -0.0425604)
(0.144375 0 -0.0478562)
(0.170679 0 -0.0520037)
(0.194616 0 -0.0545147)
(0.214827 0 -0.0554561)
(0.23111 0 -0.0551666)
(0.243686 0 -0.0539681)
(0.253015 0 -0.0521298)
(0.259563 0 -0.0498499)
(0.263771 0 -0.0473183)
(0.265865 0 -0.0445977)
(0.266067 0 -0.0418083)
(0.264522 0 -0.0390245)
(0.261292 0 -0.0362856)
(0.2564 0 -0.0336096)
(0.249838 0 -0.0310113)
(0.241575 0 -0.0284942)
(0.231563 0 -0.0260531)
(0.219738 0 -0.0236775)
(0.206024 0 -0.0213525)
(0.190339 0 -0.0190589)
(0.172591 0 -0.0167745)
(0.152681 0 -0.0144737)
(0.130508 0 -0.0121275)
(0.105965 0 -0.00970281)
(0.0789432 0 -0.00716153)
(0.0493364 0 -0.00445994)
(0.0169377 0 -0.0015372)
(0.106724 0 -0.0407022)
(0.125013 0 -0.0461867)
(0.148112 0 -0.0523038)
(0.173096 0 -0.0577624)
(0.196791 0 -0.0616543)
(0.2172 0 -0.0637151)
(0.233757 0 -0.0641701)
(0.246621 0 -0.0633781)
(0.256271 0 -0.0617208)
(0.263179 0 -0.0594583)
(0.267778 0 -0.0567802)
(0.270408 0 -0.0538568)
(0.271258 0 -0.0507796)
(0.270486 0 -0.0476561)
(0.268159 0 -0.0445445)
(0.264298 0 -0.0414813)
(0.258892 0 -0.038486)
(0.251908 0 -0.0355698)
(0.243298 0 -0.0327347)
(0.232998 0 -0.0299748)
(0.220934 0 -0.0272787)
(0.20702 0 -0.0246298)
(0.191167 0 -0.0220075)
(0.173275 0 -0.0193874)
(0.153243 0 -0.0167411)
(0.130962 0 -0.014036)
(0.106322 0 -0.011235)
(0.0792061 0 -0.00829493)
(0.0495033 0 -0.00516645)
(0.0169974 0 -0.00178046)
(0.135729 0 -0.0498246)
(0.156017 0 -0.056068)
(0.179811 0 -0.062602)
(0.20317 0 -0.0678204)
(0.223638 0 -0.0710967)
(0.240165 0 -0.0724442)
(0.252875 0 -0.0722331)
(0.262329 0 -0.0708806)
(0.269064 0 -0.0687316)
(0.273563 0 -0.0660397)
(0.276233 0 -0.0630009)
(0.2773 0 -0.0597341)
(0.27692 0 -0.0563617)
(0.275157 0 -0.0529572)
(0.272023 0 -0.0495706)
(0.267503 0 -0.0462342)
(0.261554 0 -0.0429662)
(0.254123 0 -0.0397755)
(0.245142 0 -0.0366624)
(0.234533 0 -0.0336205)
(0.222209 0 -0.0306373)
(0.208079 0 -0.0276954)
(0.192044 0 -0.0247728)
(0.173998 0 -0.0218431)
(0.153833 0 -0.0188757)
(0.131436 0 -0.0158352)
(0.10669 0 -0.0126806)
(0.0794754 0 -0.0093648)
(0.0496724 0 -0.00583332)
(0.0170572 0 -0.00200987)
(0.1671 0 -0.0597973)
(0.18911 0 -0.0666613)
(0.212754 0 -0.073209)
(0.23362 0 -0.0777619)
(0.250264 0 -0.080092)
(0.262661 0 -0.0805291)
(0.27152 0 -0.0795455)
(0.277648 0 -0.0775876)
(0.281572 0 -0.074947)
(0.283796 0 -0.0718614)
(0.284639 0 -0.0684978)
(0.284244 0 -0.0649652)
(0.282674 0 -0.0613522)
(0.279935 0 -0.0577193)
(0.275998 0 -0.0541087)
(0.270811 0 -0.0505475)
(0.264311 0 -0.0470517)
(0.25642 0 -0.0436279)
(0.247054 0 -0.0402755)
(0.236122 0 -0.0369871)
(0.223528 0 -0.0337496)
(0.209171 0 -0.0305449)
(0.192943 0 -0.0273499)
(0.174735 0 -0.0241368)
(0.154431 0 -0.020873)
(0.131913 0 -0.0175208)
(0.107058 0 -0.0140362)
(0.0797418 0 -0.0103683)
(0.0498381 0 -0.0064587)
(0.0171152 0 -0.00222479)
(0.200512 0 -0.0705324)
(0.22376 0 -0.0777847)
(0.246087 0 -0.0838244)
(0.263458 0 -0.0872563)
(0.275755 0 -0.0883677)
(0.283929 0 -0.0877714)
(0.289099 0 -0.0860017)
(0.292049 0 -0.0834271)
(0.293423 0 -0.0803419)
(0.293612 0 -0.0769276)
(0.292801 0 -0.0733068)
(0.291051 0 -0.0695639)
(0.288361 0 -0.0657639)
(0.28469 0 -0.0619542)
(0.279974 0 -0.0581682)
(0.274135 0 -0.0544283)
(0.267087 0 -0.0507473)
(0.258736 0 -0.0471302)
(0.248982 0 -0.0435752)
(0.237723 0 -0.0400743)
(0.224854 0 -0.0366142)
(0.210264 0 -0.0331761)
(0.19384 0 -0.029736)
(0.175465 0 -0.0262653)
(0.155019 0 -0.0227298)
(0.132378 0 -0.0190898)
(0.107414 0 -0.015299)
(0.0799967 0 -0.0113034)
(0.0499948 0 -0.00704122)
(0.0171695 0 -0.00242474)
(0.235679 0 -0.0819042)
(0.259321 0 -0.0891582)
(0.278774 0 -0.0940315)
(0.291617 0 -0.0959083)
(0.299218 0 -0.0956273)
(0.303241 0 -0.0939669)
(0.304978 0 -0.0914438)
(0.305177 0 -0.088351)
(0.304377 0 -0.0849128)
(0.302801 0 -0.0812487)
(0.30053 0 -0.0774403)
(0.297561 0 -0.0735467)
(0.293844 0 -0.069614)
(0.289305 0 -0.0656774)
(0.283854 0 -0.0617625)
(0.277392 0 -0.057887)
(0.269815 0 -0.0540611)
(0.261014 0 -0.0502882)
(0.250879 0 -0.0465653)
(0.239297 0 -0.0428844)
(0.226153 0 -0.0392319)
(0.211331 0 -0.0355885)
(0.19471 0 -0.0319301)
(0.176169 0 -0.0282271)
(0.15558 0 -0.0244443)
(0.132817 0 -0.0205405)
(0.107746 0 -0.0164673)
(0.0802319 0 -0.0121687)
(0.0501377 0 -0.00758)
(0.0172184 0 -0.00260941)
(0.272316 0 -0.0937492)
(0.294792 0 -0.100323)
(0.309453 0 -0.103259)
(0.31693 0 -0.103264)
(0.319778 0 -0.101565)
(0.320063 0 -0.0989584)
(0.318898 0 -0.0958198)
(0.316871 0 -0.0923508)
(0.314273 0 -0.0886691)
(0.311207 0 -0.0848425)
(0.307679 0 -0.0809189)
(0.30364 0 -0.0769357)
(0.299006 0 -0.0729236)
(0.29368 0 -0.0689079)
(0.287552 0 -0.0649079)
(0.280508 0 -0.0609374)
(0.272431 0 -0.0570042)
(0.263202 0 -0.0531104)
(0.252699 0 -0.0492521)
(0.240803 0 -0.0454216)
(0.227392 0 -0.0416053)
(0.212343 0 -0.0377838)
(0.19553 0 -0.0339327)
(0.176825 0 -0.030022)
(0.156099 0 -0.0260159)
(0.133218 0 -0.0218719)
(0.108045 0 -0.0175404)
(0.0804402 0 -0.0129635)
(0.0502621 0 -0.00807457)
(0.0172603 0 -0.00277865)
(0.30989 0 -0.105769)
(0.328362 0 -0.110468)
(0.336363 0 -0.110757)
(0.33817 0 -0.108832)
(0.33691 0 -0.105962)
(0.334215 0 -0.102662)
(0.33082 0 -0.0991283)
(0.327041 0 -0.0954387)
(0.323001 0 -0.0916327)
(0.318715 0 -0.087736)
(0.314138 0 -0.0837709)
(0.309186 0 -0.0797582)
(0.303756 0 -0.075718)
(0.297733 0 -0.0716683)
(0.290996 0 -0.0676239)
(0.283421 0 -0.0635956)
(0.274882 0 -0.0595897)
(0.265253 0 -0.0556074)
(0.254404 0 -0.0516436)
(0.242209 0 -0.0476918)
(0.228543 0 -0.0437388)
(0.213277 0 -0.0397649)
(0.196279 0 -0.0357457)
(0.177418 0 -0.0316512)
(0.15656 0 -0.027445)
(0.133568 0 -0.0230842)
(0.108301 0 -0.0185181)
(0.0806151 0 -0.0136876)
(0.0503643 0 -0.00852484)
(0.0172939 0 -0.00293245)
(0.346603 0 -0.117094)
(0.356836 0 -0.118178)
(0.357774 0 -0.115692)
(0.354896 0 -0.112281)
(0.350588 0 -0.108689)
(0.345754 0 -0.105057)
(0.340735 0 -0.101383)
(0.335647 0 -0.0976484)
(0.330503 0 -0.0938434)
(0.325258 0 -0.0899689)
(0.319833 0 -0.0860331)
(0.314126 0 -0.0820477)
(0.308022 0 -0.0780269)
(0.301398 0 -0.0739845)
(0.294126 0 -0.0699325)
(0.286077 0 -0.0658801)
(0.277121 0 -0.0618331)
(0.267128 0 -0.0577925)
(0.255957 0 -0.0537495)
(0.243482 0 -0.0497025)
(0.229579 0 -0.0456385)
(0.214109 0 -0.0415361)
(0.196937 0 -0.0373722)
(0.17793 0 -0.0331167)
(0.15695 0 -0.0287332)
(0.133857 0 -0.0241784)
(0.108507 0 -0.0194012)
(0.0807507 0 -0.0143416)
(0.0504406 0 -0.00893109)
(0.017318 0 -0.00307092)
(0.376388 0 -0.124932)
(0.378621 0 -0.121747)
(0.373163 0 -0.117153)
(0.367071 0 -0.113275)
(0.360831 0 -0.109685)
(0.35465 0 -0.10617)
(0.348582 0 -0.102631)
(0.342613 0 -0.0990258)
(0.336693 0 -0.0953405)
(0.330744 0 -0.0915737)
(0.324675 0 -0.087732)
(0.318375 0 -0.0838257)
(0.311726 0 -0.0798674)
(0.304602 0 -0.0758697)
(0.296876 0 -0.0718438)
(0.288417 0 -0.0677984)
(0.279095 0 -0.0637394)
(0.268784 0 -0.0596704)
(0.257328 0 -0.0555803)
(0.244596 0 -0.0514621)
(0.230477 0 -0.0473114)
(0.21482 0 -0.0431026)
(0.197488 0 -0.0388162)
(0.178348 0 -0.0344215)
(0.157258 0 -0.0298827)
(0.134076 0 -0.0251562)
(0.108654 0 -0.0201908)
(0.0808421 0 -0.0149263)
(0.0504881 0 -0.00929387)
(0.0173316 0 -0.00319426)
(0.0120804 0 -0.00116896)
(0.0346227 0 -0.00335999)
(0.0541967 0 -0.0053005)
(0.0711674 0 -0.00704148)
(0.0859006 0 -0.00862578)
(0.0987183 0 -0.0100865)
(0.109899 0 -0.0114499)
(0.119684 0 -0.012735)
(0.128305 0 -0.0139594)
(0.135956 0 -0.0151324)
(0.142841 0 -0.0162706)
(0.14913 0 -0.0173828)
(0.155015 0 -0.0184831)
(0.16067 0 -0.0195842)
(0.166262 0 -0.0206998)
(0.172008 0 -0.021858)
(0.178083 0 -0.023078)
(0.184696 0 -0.024393)
(0.192095 0 -0.0258518)
(0.200502 0 -0.0275016)
(0.210201 0 -0.0294169)
(0.221528 0 -0.0317014)
(0.23478 0 -0.0344623)
(0.250407 0 -0.0378811)
(0.268663 0 -0.0421153)
(0.289973 0 -0.047432)
(0.314373 0 -0.0540775)
(0.341052 0 -0.0622081)
(0.368463 0 -0.072175)
(0.39387 0 -0.0850917)
(0.0122377 0 -0.00123817)
(0.0350896 0 -0.00356064)
(0.0549692 0 -0.00562086)
(0.0722511 0 -0.00747312)
(0.0873087 0 -0.00916312)
(0.100474 0 -0.0107264)
(0.112036 0 -0.012193)
(0.122233 0 -0.0135828)
(0.131292 0 -0.0149134)
(0.139432 0 -0.0162012)
(0.146851 0 -0.0174614)
(0.153717 0 -0.0187049)
(0.160228 0 -0.0199492)
(0.166556 0 -0.0212086)
(0.172893 0 -0.0225054)
(0.179425 0 -0.0238628)
(0.18636 0 -0.0253146)
(0.193886 0 -0.0268923)
(0.202225 0 -0.0286438)
(0.21163 0 -0.0306349)
(0.222332 0 -0.032933)
(0.234647 0 -0.035648)
(0.248842 0 -0.0388952)
(0.265217 0 -0.0428315)
(0.283911 0 -0.0476061)
(0.305073 0 -0.0534347)
(0.328178 0 -0.0604156)
(0.351985 0 -0.0685464)
(0.374269 0 -0.0775692)
(0.392444 0 -0.0870529)
(0.0123972 0 -0.00130601)
(0.0355643 0 -0.00375773)
(0.0557562 0 -0.00593623)
(0.0733565 0 -0.00789906)
(0.0887424 0 -0.00969443)
(0.102268 0 -0.011363)
(0.114221 0 -0.0129344)
(0.124835 0 -0.0144306)
(0.134344 0 -0.0158714)
(0.142972 0 -0.0172761)
(0.150913 0 -0.0186599)
(0.158341 0 -0.0200367)
(0.165462 0 -0.021428)
(0.172447 0 -0.0228498)
(0.179492 0 -0.0243298)
(0.186771 0 -0.0258909)
(0.194476 0 -0.027566)
(0.202816 0 -0.0293996)
(0.211979 0 -0.0314355)
(0.222181 0 -0.0337356)
(0.233683 0 -0.0363868)
(0.246653 0 -0.0394648)
(0.261347 0 -0.043095)
(0.277879 0 -0.0473903)
(0.296216 0 -0.0524582)
(0.316139 0 -0.0583962)
(0.33675 0 -0.0651317)
(0.356717 0 -0.0724883)
(0.374366 0 -0.0801466)
(0.388008 0 -0.0877752)
(0.0125584 0 -0.00137237)
(0.036045 0 -0.00395085)
(0.0565544 0 -0.00624592)
(0.0744803 0 -0.00831841)
(0.0902123 0 -0.0102202)
(0.1041 0 -0.0119938)
(0.116433 0 -0.0136685)
(0.127464 0 -0.0152717)
(0.137416 0 -0.0168229)
(0.146526 0 -0.0183456)
(0.154982 0 -0.0198548)
(0.162959 0 -0.0213663)
(0.170667 0 -0.022906)
(0.178276 0 -0.0244914)
(0.185965 0 -0.0261476)
(0.193922 0 -0.0279067)
(0.202316 0 -0.0297987)
(0.211331 0 -0.0318651)
(0.221164 0 -0.0341604)
(0.231974 0 -0.0367348)
(0.243982 0 -0.0396719)
(0.257264 0 -0.0430271)
(0.27201 0 -0.046911)
(0.288132 0 -0.051377)
(0.305425 0 -0.0564711)
(0.323402 0 -0.0621682)
(0.341177 0 -0.0683334)
(0.357705 0 -0.0747753)
(0.371915 0 -0.0812787)
(0.382589 0 -0.0874905)
(0.0127196 0 -0.00143669)
(0.0365263 0 -0.00413838)
(0.0573552 0 -0.00654733)
(0.0756088 0 -0.00872748)
(0.0916839 0 -0.0107335)
(0.105925 0 -0.0126084)
(0.118646 0 -0.0143882)
(0.130093 0 -0.0160985)
(0.140488 0 -0.0177607)
(0.15007 0 -0.0194017)
(0.159011 0 -0.0210335)
(0.167518 0 -0.0226807)
(0.175774 0 -0.024364)
(0.183957 0 -0.0261076)
(0.192232 0 -0.0279349)
(0.20077 0 -0.0298755)
(0.209744 0 -0.0319671)
(0.219299 0 -0.0342423)
(0.229616 0 -0.0367558)
(0.240824 0 -0.0395551)
(0.253043 0 -0.042698)
(0.266319 0 -0.0462346)
(0.2807 0 -0.0502315)
(0.295953 0 -0.0546857)
(0.311761 0 -0.0595876)
(0.327614 0 -0.0648662)
(0.342828 0 -0.0704001)
(0.356639 0 -0.0760291)
(0.368266 0 -0.0815542)
(0.376943 0 -0.0866807)
(0.0128788 0 -0.00149833)
(0.0370027 0 -0.00431847)
(0.0581491 0 -0.00683744)
(0.0767288 0 -0.00912212)
(0.0931439 0 -0.0112296)
(0.107748 0 -0.0132056)
(0.120854 0 -0.0150889)
(0.132693 0 -0.0169025)
(0.143521 0 -0.0186757)
(0.153551 0 -0.0204303)
(0.16296 0 -0.0221828)
(0.171962 0 -0.0239612)
(0.180722 0 -0.0257836)
(0.189411 0 -0.0276736)
(0.198195 0 -0.0296595)
(0.207219 0 -0.0317653)
(0.216649 0 -0.0340296)
(0.226613 0 -0.0364855)
(0.237233 0 -0.0391728)
(0.248606 0 -0.0421325)
(0.260778 0 -0.0454017)
(0.273741 0 -0.0490133)
(0.287406 0 -0.0529839)
(0.301501 0 -0.0572848)
(0.31572 0 -0.0618854)
(0.329622 0 -0.0667088)
(0.342681 0 -0.0716461)
(0.354351 0 -0.0765688)
(0.36406 0 -0.081287)
(0.371339 0 -0.0855866)
(0.0130341 0 -0.00155662)
(0.0374682 0 -0.00448917)
(0.0589258 0 -0.00711307)
(0.0778266 0 -0.009498)
(0.0945725 0 -0.011703)
(0.109536 0 -0.0137781)
(0.123015 0 -0.0157603)
(0.135245 0 -0.0176755)
(0.146486 0 -0.0195557)
(0.156928 0 -0.0214184)
(0.166777 0 -0.0232875)
(0.176233 0 -0.0251896)
(0.185441 0 -0.0271412)
(0.194566 0 -0.0291655)
(0.203774 0 -0.0312917)
(0.213196 0 -0.0335449)
(0.222959 0 -0.0359538)
(0.233174 0 -0.0385492)
(0.243915 0 -0.0413589)
(0.255239 0 -0.0444129)
(0.26713 0 -0.0477269)
(0.27952 0 -0.0513112)
(0.292269 0 -0.0551577)
(0.305151 0 -0.0592381)
(0.317871 0 -0.0635051)
(0.33006 0 -0.0678827)
(0.341356 0 -0.07229)
(0.351324 0 -0.0765994)
(0.359564 0 -0.0806529)
(0.365829 0 -0.0843163)
(0.0131834 0 -0.0016108)
(0.037917 0 -0.00464828)
(0.0596749 0 -0.00737053)
(0.0788895 0 -0.0098503)
(0.0959736 0 -0.0121502)
(0.111282 0 -0.0143194)
(0.125104 0 -0.0163939)
(0.137705 0 -0.0184065)
(0.149331 0 -0.0203858)
(0.160169 0 -0.0223533)
(0.170429 0 -0.0243343)
(0.18028 0 -0.0263482)
(0.18987 0 -0.0284149)
(0.199372 0 -0.030561)
(0.208916 0 -0.0328083)
(0.218625 0 -0.0351811)
(0.228593 0 -0.0377008)
(0.238905 0 -0.0403925)
(0.249597 0 -0.0432709)
(0.260675 0 -0.0463514)
(0.272096 0 -0.0496371)
(0.283779 0 -0.0531274)
(0.295578 0 -0.0568046)
(0.307288 0 -0.0606344)
(0.318655 0 -0.0645666)
(0.329393 0 -0.0685345)
(0.339214 0 -0.0724628)
(0.347808 0 -0.0762409)
(0.354919 0 -0.0797579)
(0.360407 0 -0.0829199)
(0.0133247 0 -0.00166012)
(0.0383439 0 -0.00479369)
(0.0603848 0 -0.00760611)
(0.0799041 0 -0.010175)
(0.0973109 0 -0.0125631)
(0.112945 0 -0.0148187)
(0.127112 0 -0.0169828)
(0.140055 0 -0.0190852)
(0.152032 0 -0.0211568)
(0.163246 0 -0.0232232)
(0.173856 0 -0.025302)
(0.184048 0 -0.0274161)
(0.19397 0 -0.0295862)
(0.203768 0 -0.0318348)
(0.213556 0 -0.0341797)
(0.223439 0 -0.0366423)
(0.233486 0 -0.0392362)
(0.243744 0 -0.0419762)
(0.254226 0 -0.0448695)
(0.264927 0 -0.0479239)
(0.275791 0 -0.0511365)
(0.286727 0 -0.0544961)
(0.297596 0 -0.057979)
(0.308218 0 -0.0615493)
(0.318387 0 -0.065159)
(0.327893 0 -0.0687545)
(0.336495 0 -0.0722595)
(0.343975 0 -0.075586)
(0.350188 0 -0.0786624)
(0.355051 0 -0.0814198)
(0.0134562 0 -0.00170374)
(0.0387459 0 -0.00492327)
(0.0610746 0 -0.00781943)
(0.0808793 0 -0.0104687)
(0.098561 0 -0.0129333)
(0.114505 0 -0.0152689)
(0.129003 0 -0.017516)
(0.142264 0 -0.0196999)
(0.154569 0 -0.0218571)
(0.166105 0 -0.0240097)
(0.177015 0 -0.0261729)
(0.187503 0 -0.0283759)
(0.197685 0 -0.0306316)
(0.207698 0 -0.0329612)
(0.217636 0 -0.0353781)
(0.227576 0 -0.0378956)
(0.237571 0 -0.0405233)
(0.247658 0 -0.0432712)
(0.257842 0 -0.0461429)
(0.268098 0 -0.0491376)
(0.278367 0 -0.0522466)
(0.288556 0 -0.055453)