/*--------------------------------*- C++ -*----------------------------------*\
| =========                 |                                                 |
| \\      /  F ield         | OpenFOAM: The Open Source CFD Toolbox           |
|  \\    /   O peration     | Version:  dev                                   |
|   \\  /    A nd           | Web:      www.OpenFOAM.org                      |
|    \\/     M anipulation  |                                                 |
\*---------------------------------------------------------------------------*/
FoamFile
{
    version     2.0;
    format      ascii;
    class       surfaceScalarField;
    location    "5";
    object      meshPhi;
}
// * * * * * * * * * * * * * * * * * * * * * * * * * * * * * * * * * * * * * //

dimensions      [0 3 -1 0 0 0 0];

internalField   nonuniform List<scalar> 
5457
(
0.000222816
-4.91751e-06
0.000413978
-1.37939e-05
0.000567006
-2.10227e-05
0.000686348
-2.67653e-05
0.000778289
-3.11664e-05
0.000849703
-3.4473e-05
0.000904502
-3.71431e-05
0.000944345
-3.93868e-05
0.000970694
-4.12176e-05
0.000985006
-4.27027e-05
0.000988769
-4.39543e-05
0.000983299
-4.51431e-05
0.00096823
-4.57267e-05
0.000944656
-4.51709e-05
0.00091548
-4.41804e-05
0.00088222
-4.32597e-05
0.000845733
-4.22704e-05
0.000803403
-4.07428e-05
0.000753991
-3.81939e-05
0.000699994
-3.48594e-05
0.000642499
-3.09281e-05
0.000581664
-2.61712e-05
0.000517384
-2.03298e-05
0.000449639
-1.31434e-05
0.000378575
-4.3489e-06
0.000304678
6.30928e-06
0.000229447
1.90341e-05
0.000158663
3.39326e-05
0.000108577
5.02978e-05
6.21096e-05
0.000223649
-9.86108e-06
0.000415408
-2.76637e-05
0.000568909
-4.21799e-05
0.000688195
-5.3759e-05
0.000779639
-6.2617e-05
0.00085104
-6.91755e-05
0.000906308
-7.44472e-05
0.000946645
-7.89323e-05
0.000973465
-8.26213e-05
0.000988208
-8.55955e-05
0.000992441
-8.80662e-05
0.000988197
-9.07319e-05
0.00097379
-9.22379e-05
0.000950005
-9.09308e-05
0.000921088
-8.87855e-05
0.000888392
-8.70407e-05
0.00085479
-8.54181e-05
0.000815055
-8.28193e-05
0.000766214
-7.77857e-05
0.000713733
-7.12037e-05
0.000658758
-6.3732e-05
0.000601315
-5.47364e-05
0.000541355
-4.37098e-05
0.000479246
-3.01754e-05
0.000415741
-1.36703e-05
0.000351971
6.24385e-06
0.000289034
3.0032e-05
0.000231648
5.81865e-05
0.000201811
8.95387e-05
0.000118698
0.000225358
-1.48338e-05
0.000418324
-4.16153e-05
0.000572889
-6.34877e-05
0.000692081
-8.10711e-05
0.000782278
-9.44809e-05
0.000853592
-0.000104156
0.000909947
-0.00011193
0.000951336
-0.0001187
0.000979117
-0.000124309
0.000994702
-0.000128777
0.00099957
-0.000132236
0.000996379
-0.000135193
0.000983426
-0.000136747
0.000960595
-0.000135791
0.000932227
-0.000133728
0.000899386
-0.000131285
0.000868901
-0.00012845
0.000835517
-0.000124763
0.000790318
-0.000118636
0.000740753
-0.00011017
0.000690842
-0.000100055
0.000640094
-8.78852e-05
0.00058837
-7.30095e-05
0.000536899
-5.48462e-05
0.000487876
-3.28861e-05
0.000444188
-6.66694e-06
0.000408878
2.41968e-05
0.000383863
6.02221e-05
0.000399694
9.95538e-05
0.000139679
0.000227991
-1.98117e-05
0.000422776
-5.55628e-05
0.00057929
-8.47908e-05
0.000698353
-0.000108611
0.000785935
-0.000126705
0.000857005
-0.000139251
0.000915405
-0.000149504
0.000958469
-0.000158764
0.000987731
-0.000166416
0.00100463
-0.000172466
0.00101025
-0.00017681
0.00100598
-0.000178723
0.000994786
-0.000179245
0.000976036
-0.00018003
0.000949475
-0.000179654
0.000916813
-0.00017699
0.000885535
-0.000172408
0.000858897
-0.000167052
0.000823496
-0.000161139
0.000780258
-0.000152758
0.000738339
-0.000141443
0.000697853
-0.000127652
0.000658967
-0.000110978
0.00062349
-9.08311e-05
0.000594881
-6.67305e-05
0.000579368
-3.85755e-05
0.000586712
-7.07218e-06
0.000620426
2.68427e-05
0.000709619
6.01107e-05
9.19464e-05
0.000231261
-2.47706e-05
0.000428796
-6.94789e-05
0.000588812
-0.000106038
0.000706938
-0.000135157
0.000789321
-0.00015691
0.000860728
-0.000173062
0.000922785
-0.000186895
0.000968078
-0.00019897
0.000999348
-0.000208817
0.00101821
-0.000216668
0.00102545
-0.000222398
0.00102057
-0.000224964
0.00101082
-0.000225793
0.000996808
-0.000227338
0.000974037
-0.000227779
0.000945122
-0.000225545
0.000913662
-0.000220881
0.000889696
-0.000214998
0.000864626
-0.000208863
0.000831894
-0.000200671
0.000800567
-0.00018941
0.000773374
-0.000175628
0.000752373
-0.000159429
0.000739608
-0.000140591
0.00073904
-0.000118953
0.000759058
-9.47359e-05
0.000818302
-6.99749e-05
0.000932378
-4.93166e-05
0.00111377
-3.83328e-05
-3.69196e-05
0.000234906
-2.97134e-05
0.000436295
-8.34079e-05
0.000599084
-0.000127192
0.000714511
-0.0001604
0.000793237
-0.000185018
0.000866871
-0.000206044
0.000932432
-0.000224484
0.000980173
-0.000239438
0.00101394
-0.000251622
0.00103554
-0.000261553
0.00104595
-0.000269385
0.00104376
-0.000274249
0.00103549
-0.000276445
0.00102417
-0.000277957
0.00100615
-0.00027856
0.00098363
-0.000277206
0.000958126
-0.000273871
0.000936958
-0.000269053
0.000918048
-0.000263117
0.000896669
-0.000255384
0.000878136
-0.00024546
0.000866686
-0.000233661
0.000865955
-0.000220218
0.000880142
-0.000205548
0.00091642
-0.000190819
0.000980875
-0.000177063
0.00109567
-0.000166928
0.00129087
-0.000168425
0.00156579
-0.000189791
-0.000229434
0.000239229
-3.46347e-05
0.000445406
-9.73351e-05
0.000607573
-0.000148566
0.000719217
-0.000187001
0.000800751
-0.000215509
0.000878085
-0.000240673
0.000944662
-0.00026274
0.000994803
-0.000280427
0.00103153
-0.00029507
0.0010566
-0.000307312
0.00107195
-0.000317914
0.00107359
-0.000325329
0.00106666
-0.000328436
0.00105815
-0.000330341
0.00104527
-0.00033198
0.00102945
-0.000332045
0.00101248
-0.000330437
0.000997672
-0.000327418
0.000985214
-0.000323126
0.00097472
-0.000317272
0.000971102
-0.000310142
0.000978603
-0.000302514
0.00100008
-0.000294752
0.00104226
-0.000287492
0.00111815
-0.000283095
0.00123548
-0.000284894
0.00140888
-0.000296111
0.00167151
-0.000324502
0.00202607
-0.000378655
-0.000450399
0.000244483
-3.95253e-05
0.000457097
-0.000111253
0.000617428
-0.00016948
0.000723829
-0.000213352
0.000810399
-0.000246995
0.000892151
-0.000276259
0.000959122
-0.000301304
0.00101178
-0.000321651
0.0010519
-0.000338823
0.00108073
-0.000353353
0.00109996
-0.000365606
0.0011048
-0.000374625
0.0011015
-0.000380099
0.00109803
-0.000384427
0.00109117
-0.000388145
0.00108233
-0.000390327
0.00107357
-0.000391058
0.00106722
-0.000390647
0.00106424
-0.000389264
0.00106599
-0.000386927
0.00107827
-0.0003842
0.00110572
-0.00038217
0.00115295
-0.000382296
0.00122709
-0.000386107
0.00134094
-0.000395627
0.00151176
-0.000415559
0.00174408
-0.000450305
0.00206435
-0.000505896
0.00248272
-0.000588403
-0.000673161
0.000250412
-4.43734e-05
0.000468867
-0.000124825
0.000627623
-0.000189045
0.000731084
-0.000237891
0.000822133
-0.000277796
0.000907216
-0.000312141
0.000975188
-0.00034018
0.0010307
-0.000363059
0.00107466
-0.000382851
0.00110653
-0.000399595
0.00112519
-0.000412053
0.00113419
-0.000421876
0.00114031
-0.000431783
0.00114359
-0.000440564
0.00114376
-0.000447155
0.00114248
-0.000452179
0.00114208
-0.000455908
0.00114528
-0.000458868
0.00115359
-0.000461456
0.00117
-0.000464169
0.00119902
-0.000467723
0.00124522
-0.000473055
0.00131836
-0.000482431
0.00142771
-0.00049902
0.0015802
-0.000525137
0.00179619
-0.000564567
0.00208257
-0.000622296
0.00246102
-0.000704125
0.00294048
-0.000812666
-0.000898488
0.00025691
-4.91589e-05
0.000478002
-0.000138239
0.000635797
-0.000209375
0.000743598
-0.000264424
0.000839127
-0.000310186
0.000924101
-0.000348862
0.000992471
-0.000379607
0.00105138
-0.00040477
0.00110018
-0.000427478
0.0011346
-0.000447042
0.00115323
-0.000461538
0.00116841
-0.000473853
0.00118455
-0.000487122
0.00119471
-0.000499198
0.00120249
-0.000508943
0.00120935
-0.000517351
0.00121799
-0.000524884
0.00123163
-0.000532236
0.00125204
-0.000539873
0.00128348
-0.000548544
0.00132956
-0.000559369
0.00139597
-0.000573982
0.00149348
-0.000594745
0.00163447
-0.000625199
0.00182682
-0.000669486
0.00208228
-0.000730644
0.00241898
-0.000812749
0.00286184
-0.000922296
0.00341485
-0.00106047
-0.0011516
0.000264603
-5.38831e-05
0.000488526
-0.00015114
0.000645148
-0.000228508
0.00075769
-0.000288581
0.000856117
-0.000338373
0.000938976
-0.000380395
0.00100815
-0.000414909
0.00107351
-0.000444922
0.0011295
-0.000472678
0.00116742
-0.00049615
0.00119103
-0.000514205
0.00121291
-0.000530048
0.00123459
-0.000545757
0.00125137
-0.000560357
0.00126679
-0.000573517
0.00128239
-0.000585848
0.00130125
-0.000598002
0.00132597
-0.000610572
0.00135911
-0.000624248
0.00140488
-0.000640085
0.00146724
-0.000659269
0.00155517
-0.000684221
0.00167807
-0.000718238
0.00184668
-0.000764577
0.00207628
-0.000828382
0.00237304
-0.000914051
0.00276657
-0.00102721
0.00328111
-0.00117278
0.00392115
-0.00134902
-0.00146524
0.000269753
-5.79475e-05
0.000495663
-0.000161642
0.000651798
-0.00024339
0.000767305
-0.000307539
0.000867813
-0.000361175
0.000950322
-0.000406837
0.00102428
-0.000447003
0.00109958
-0.000484646
0.00116391
-0.000519073
0.00120558
-0.000546867
0.00123471
-0.0005678
0.00126339
-0.000586777
0.00128985
-0.000605836
0.00131348
-0.000623785
0.00133677
-0.000640794
0.00136178
-0.000657598
0.00139146
-0.00067496
0.00142777
-0.000693509
0.0014742
-0.000714135
0.0015351
-0.000738287
0.00161476
-0.000767478
0.00172281
-0.000804027
0.0018703
-0.000852007
0.00206489
-0.000915411
0.00232524
-0.000999873
0.00266626
-0.0011129
0.00312889
-0.00126527
0.00372037
-0.00145887
0.00445337
-0.00168575
-0.00185991
0.000268298
-6.1536e-05
0.000492472
-0.000171625
0.000653503
-0.000259378
0.000776673
-0.000329626
0.000881147
-0.000388532
0.000967556
-0.000438866
0.00104924
-0.000484024
0.00113245
-0.000526659
0.00120094
-0.000564766
0.00124456
-0.000595335
0.00127971
-0.000620165
0.00131691
-0.000643966
0.00134974
-0.000667255
0.0013805
-0.00068902
0.0014121
-0.000710255
0.00144675
-0.000731932
0.00148745
-0.000754929
0.00153656
-0.000780268
0.00159726
-0.000808977
0.00167381
-0.000842305
0.00177211
-0.000882361
0.00189971
-0.000931807
0.00206721
-0.000994248
0.00228609
-0.00107541
0.00257308
-0.00118246
0.00295674
-0.00132535
0.00348322
-0.00151955
0.00414744
-0.00176857
0.00497205
-0.00205996
-0.00235693
0.000264892
-6.5367e-05
0.00048804
-0.000182953
0.000657622
-0.000278205
0.000791434
-0.000355522
0.000902207
-0.000420485
0.000994179
-0.000475746
0.00108123
-0.000524281
0.00116767
-0.000569135
0.00123486
-0.000608266
0.00128137
-0.000640945
0.00132749
-0.000671765
0.00137433
-0.000702103
0.00141371
-0.00072992
0.0014511
-0.000755462
0.0014914
-0.000781025
0.00153621
-0.000808111
0.00158875
-0.000837511
0.00165145
-0.000870209
0.00172751
-0.000907512
0.00181997
-0.000950752
0.00193576
-0.00100192
0.00208193
-0.00106421
0.00226645
-0.00114138
0.00250926
-0.00124098
0.00282304
-0.00137151
0.00324366
-0.00154458
0.00380998
-0.00177735
0.00451752
-0.00207697
0.00539744
-0.00243886
-0.00303451
0.000263755
-6.93831e-05
0.000488565
-0.00019465
0.000666044
-0.000297168
0.000809946
-0.000381267
0.000927861
-0.000452415
0.00102328
-0.000512415
0.00111314
-0.000563933
0.00120169
-0.000611465
0.0012694
-0.000653804
0.0013231
-0.000690601
0.00138074
-0.000726387
0.00143696
-0.00076209
0.00148184
-0.000794454
0.00152425
-0.000823268
0.00157432
-0.000853206
0.00163063
-0.000886442
0.0016962
-0.000922885
0.00177279
-0.000963432
0.00186443
-0.00100955
0.00197283
-0.00106274
0.00210408
-0.00112478
0.00226539
-0.0011989
0.00246735
-0.00128998
0.0027348
-0.00140718
0.00307735
-0.0015595
0.00353138
-0.00175855
0.00410858
-0.00201289
0.00478056
-0.00231521
0.00549282
-0.00263493
-0.00419156
0.000228096
-0.000100936
0.000560738
-0.000158747
0.00116046
-0.000239089
0.00197886
-0.000333447
0.00288187
-0.000426265
0.0037209
-0.000501978
0.00440091
-0.000548273
0.00484461
-0.000546588
0.00507671
-0.000526977
0.00520804
-0.000544492
0.00527366
-0.000569475
0.00528073
-0.00055299
0.00523696
-0.000502059
0.00515247
-0.000456316
0.00503876
-0.00042453
0.00489569
-0.000387272
0.00473178
-0.000350369
0.00454347
-0.000316517
0.00434656
-0.000273328
0.0041437
-0.000233068
0.00390379
-0.000205767
0.00363443
-0.00018423
0.00331304
-0.000172319
0.00293538
-0.000161406
0.00253171
-0.000142876
0.00209656
-0.000121651
0.0016273
-9.85908e-05
0.00112208
-7.36132e-05
0.000577934
-4.62412e-05
-1.60548e-05
0.000346923
-0.000237764
0.000719013
-0.000341337
0.00134131
-0.000494889
0.00215911
-0.000671929
0.00304505
-0.000845003
0.003858
-0.00098506
0.00450448
-0.0010694
0.00492617
-0.00108681
0.00515721
-0.00106942
0.00527821
-0.00106686
0.0053238
-0.00106513
0.00531754
-0.00102554
0.00526842
-0.000949592
0.00518006
-0.000867548
0.00506247
-0.000798039
0.00491692
-0.000736089
0.0047503
-0.000668548
0.00456346
-0.000597641
0.00436359
-0.000527511
0.004155
-0.000464576
0.00391038
-0.000420397
0.00362944
-0.000384547
0.00330592
-0.000352963
0.00293445
-0.000321675
0.00253215
-0.000283275
0.00209718
-0.00024092
0.0016278
-0.000195218
0.00112242
-0.000145769
0.000578137
-9.1571e-05
-3.17926e-05
0.000593021
-0.000415543
0.00102606
-0.000556296
0.00167722
-0.000769708
0.00248957
-0.00101285
0.00334141
-0.00124808
0.00410322
-0.00143474
0.00469122
-0.00154727
0.00507454
-0.00158799
0.00528458
-0.00157903
0.00537419
-0.00153688
0.00539202
-0.001483
0.00537081
-0.00142557
0.00531238
-0.00134495
0.00521937
-0.00124862
0.00509759
-0.00115662
0.0049488
-0.00106639
0.00477846
-0.000969624
0.00459024
-0.000873011
0.00438563
-0.00078455
0.00416591
-0.000705369
0.00391443
-0.00064234
0.00362557
-0.000587532
0.00329967
-0.000533401
0.0029331
-0.000478745
0.00253231
-0.000419793
0.00209766
-0.00035661
0.00162819
-0.000288892
0.00112263
-0.000215712
0.000578208
-0.000135505
-4.70418e-05
0.000956441
-0.000621576
0.00144744
-0.000792906
0.00212156
-0.0010544
0.002924
-0.00135084
0.00372779
-0.00163242
0.00441969
-0.00184834
0.00493284
-0.00197763
0.00526579
-0.0020355
0.00543259
-0.00203459
0.00547699
-0.00196804
0.00547176
-0.00187784
0.00543428
-0.00179681
0.00536034
-0.00169901
0.00526082
-0.00158739
0.00513528
-0.00147935
0.00498284
-0.00136809
0.00480912
-0.00125218
0.00461717
-0.00114059
0.00440674
-0.0010371
0.0041764
-0.000942106
0.00391772
-0.000858207
0.00362513
-0.000781112
0.00329714
-0.000705997
0.00293207
-0.000630369
0.00253215
-0.000551465
0.00209776
-0.000468084
0.00162827
-0.000379112
0.0011226
-0.000283056
0.000578143
-0.000177788
-6.17103e-05
0.0013968
-0.00083364
0.00193189
-0.00103679
0.00262889
-0.0013433
0.00342137
-0.00168654
0.00416844
-0.002001
0.00477385
-0.00222818
0.00520027
-0.0023544
0.00547395
-0.00241301
0.00558661
-0.00241584
0.00558608
-0.00234283
0.00556196
-0.00223851
0.0055034
-0.00213689
0.00540965
-0.00201402
0.0052974
-0.00187452
0.00516705
-0.00174304
0.00501417
-0.00162456
0.00483774
-0.00150524
0.00464217
-0.00138422
0.00442634
-0.00126906
0.00418852
-0.00116054
0.00392345
-0.00105952
0.0036269
-0.000963666
0.00329672
-0.000869726
0.00293155
-0.000775119
0.00253181
-0.000677381
0.00209748
-0.000574715
0.00162794
-0.000465406
0.00112225
-0.000347453
0.000577879
-0.000218196
-7.57188e-05
0.00187383
-0.00104139
0.00245019
-0.00129279
0.00317788
-0.00164817
0.00395544
-0.00202909
0.00463389
-0.00235654
0.00513494
-0.00257486
0.00546213
-0.00267834
0.0056585
-0.0027097
0.00571488
-0.00269684
0.00568384
-0.00262663
0.00564109
-0.00252098
0.00556396
-0.00240956
0.00545574
-0.00228012
0.0053309
-0.00213098
0.0051945
-0.00198645
0.0050416
-0.00185891
0.00486334
-0.00173423
0.00466444
-0.00160652
0.00444408
-0.00148169
0.00420049
-0.00136141
0.00393018
-0.0012461
0.00362987
-0.00113434
0.00329738
-0.00102377
0.00293131
-0.00091203
0.00253124
-0.000796795
0.00209675
-0.000675952
0.00162714
-0.000547364
0.0011215
-0.000408601
0.000577378
-0.000256539
-8.90005e-05
0.00237016
-0.00125451
0.00300439
-0.00157851
0.00376517
-0.00198395
0.00450352
-0.00238125
0.00509579
-0.00269426
0.00548258
-0.00288699
0.00569534
-0.00295626
0.00579177
-0.00294458
0.00579755
-0.00290242
0.00575779
-0.00283676
0.00569272
-0.00273446
0.00560392
-0.00261486
0.00549538
-0.00249227
0.00536657
-0.00235526
0.00522499
-0.00221269
0.00506757
-0.00207679
0.00488686
-0.00194289
0.00468452
-0.00180839
0.00445999
-0.00167544
0.00421164
-0.00154522
0.0039369
-0.00141798
0.00363315
-0.00129269
0.00329833
-0.00116755
0.00293099
-0.00104045
0.00253028
-0.00090914
0.00209549
-0.00077135
0.0016258
-0.000624642
0.00112031
-0.000466251
0.000576611
-0.000292662
-0.000101502
0.00288674
-0.00150112
0.00360429
-0.00191174
0.00438063
-0.0023544
0.00503325
-0.00273195
0.00550939
-0.00299295
0.00578029
-0.00313987
0.00588682
-0.00317925
0.00588959
-0.00314049
0.0058551
-0.00307514
0.0058138
-0.00300715
0.00573076
-0.00291252
0.00563515
-0.00279488
0.00553006
-0.00267561
0.0054012
-0.00254654
0.00525572
-0.00240814
0.00509254
-0.00226923
0.00490821
-0.0021301
0.00470227
-0.00199028
0.00447384
-0.0018508
0.0042214
-0.00171244
0.00394285
-0.00157529
0.003636
-0.00143855
0.00329895
-0.00130074
0.00293022
-0.00115995
0.00252873
-0.00101402
0.00209358
-0.000860571
0.00162384
-0.000696976
0.00111861
-0.000520212
0.000575554
-0.000326445
-0.000113182
0.00343814
-0.00181002
0.00424294
-0.00229636
0.00498919
-0.00274103
0.00550913
-0.00306021
0.00583051
-0.00324082
0.00598916
-0.00332465
0.00603059
-0.00334054
0.00598022
-0.00330061
0.00591766
-0.00323143
0.00586336
-0.00315681
0.00577407
-0.00306648
0.00567365
-0.00295771
0.00556344
-0.00283984
0.00543212
-0.00271244
0.0052828
-0.00257696
0.00511503
-0.0024377
0.0049269
-0.00229611
0.00471737
-0.00215274
0.00448534
-0.00200837
0.00422932
-0.00186355
0.00394746
-0.00171831
0.00363786
-0.00157195
0.00329875
-0.0014232
0.00292864
-0.00127031
0.00252636
-0.00111118
0.00209087
-0.000943389
0.00162118
-0.000764181
0.00111637
-0.000570344
0.000574185
-0.000357806
-0.000124013
0.0040392
-0.00218993
0.00488546
-0.00271303
0.00554033
-0.00310804
0.0059092
-0.00334157
0.00607697
-0.00344455
0.00613599
-0.00347331
0.00613341
-0.00346257
0.00606511
-0.00342181
0.00598728
-0.00335884
0.00591246
-0.0032835
0.0058192
-0.0031947
0.0057135
-0.00309191
0.00559509
-0.00297796
0.00545939
-0.00285402
0.00530606
-0.0027218
0.0051342
-0.00258387
0.00494241
-0.0024418
0.00472948
-0.00229653
0.00449416
-0.00214881
0.00423498
-0.00199911
0.00395026
-0.00184739
0.00363825
-0.00169305
0.0032973
-0.00153494
0.00292596
-0.00137143
0.00252296
-0.00120049
0.00208723
-0.00101967
0.00161773
-0.000826144
0.00111355
-0.000616567
0.000572489
-0.000386694
-0.000133978
0.00469031
-0.00262179
0.00549446
-0.0031276
0.00600026
-0.00342123
0.00622078
-0.0035535
0.00627527
-0.00359122
0.00625852
-0.00358478
0.00621028
-0.0035556
0.00613313
-0.00351094
0.00604791
-0.00345267
0.00595883
-0.00338181
0.00585917
-0.003298
0.0057476
-0.0032011
0.00562283
-0.00309233
0.00548243
-0.00297302
0.00532509
-0.00284479
0.00514949
-0.00270942
0.00495429
-0.00256834
0.00473822
-0.00242259
0.00449996
-0.00227292
0.00423804
-0.00211973
0.00395087
-0.00196298
0.00363681
-0.00180213
0.00329429
-0.0016361
0.0029219
-0.00146336
0.00251835
-0.00128193
0.00208254
-0.00108938
0.00161342
-0.000882822
0.0011101
-0.000658845
0.000570453
-0.000413091
-0.000143073
0.00536858
-0.00306444
0.00603283
-0.00349093
0.00634544
-0.00364635
0.00643101
-0.00368158
0.00640954
-0.00367246
0.0063493
-0.00364818
0.0062724
-0.00361538
0.00618719
-0.00357344
0.00609608
-0.00352071
0.00599907
-0.00345589
0.00589305
-0.00337838
0.00577577
-0.003288
0.0056455
-0.00318529
0.00550057
-0.00307141
0.00533942
-0.00294783
0.00516042
-0.00281597
0.00496214
-0.00267701
0.00474328
-0.00253196
0.00450246
-0.00238154
0.0042382
-0.00222612
0.00394897
-0.00206563
0.00363322
-0.00189956
0.00328944
-0.00172692
0.00291624
-0.00154624
0.00251237
-0.00135558
0.0020767
-0.00115255
0.00160819
-0.000934232
0.00110599
-0.000697192
0.000568071
-0.000437009
-0.000151304
0.00601626
-0.00345808
0.00645674
-0.00375034
0.00657569
-0.0037732
0.00656098
-0.0037386
0.0064941
-0.00370549
0.00641318
-0.00367679
0.00632473
-0.00364736
0.00623232
-0.00361151
0.00613493
-0.0035658
0.00603149
-0.00350832
0.00591983
-0.00343822
0.00579751
-0.00335516
0.00566244
-0.00325924
0.00551325
-0.00315132
0.00534856
-0.0030328
0.00516657
-0.00290506
0.00496563
-0.00276911
0.00474438
-0.00262574
0.0045014
-0.0024756
0.00423521
-0.00231901
0.00394433
-0.00215591
0.00362725
-0.00198579
0.00328254
-0.00180772
0.00290883
-0.00162028
0.0025049
-0.00142159
0.00206962
-0.00120927
0.001602
-0.000980443
0.00110122
-0.000731657
0.000565346
-0.000458484
-0.000158684
0.00656185
-0.00375021
0.0067847
-0.00389324
0.00674934
-0.00379819
0.00666022
-0.00373111
0.00656052
-0.00369492
0.00646258
-0.00367322
0.00636455
-0.00365292
0.00626513
-0.00362639
0.00616219
-0.00358969
0.00605378
-0.00354082
0.00593778
-0.00347897
0.00581172
-0.00340392
0.00567309
-0.00331563
0.00552023
-0.00321446
0.00535223
-0.00310151
0.00516763
-0.0029783
0.00496452
-0.00284596
0.00474132
-0.00270506
0.0044966
-0.00255605
0.00422891
-0.00239921
0.00393677
-0.00223445
0.00361875
-0.0020613
0.00327344
-0.00187886
0.00289953
-0.00168575
0.00249584
-0.00148014
0.00206126
-0.0012597
0.00159482
-0.00102157
0.00109579
-0.000762329
0.000562298
-0.000477579
-0.00016524
0.00728305
-0.00421743
0.00709793
-0.00361134
0.00689248
-0.00361249
0.00673112
-0.00362187
0.00660186
-0.00363057
0.00648997
-0.00363582
0.00638503
-0.00363325
0.0062813
-0.00361995
0.00617506
-0.00359417
0.00606362
-0.00355496
0.00594479
-0.00350197
0.00581637
-0.00343529
0.0056757
-0.00335507
0.00552046
-0.0032614
0.00534974
-0.00315492
0.00516287
-0.00303699
0.00495802
-0.00290885
0.00473331
-0.00277105
0.0044873
-0.00262389
0.00421852
-0.00246759
0.00392557
-0.00230204
0.00360703
-0.00212679
0.00326155
-0.00194093
0.00288786
-0.00174316
0.0024848
-0.00153167
0.00205132
-0.00130419
0.00158648
-0.00105789
0.0010896
-0.000789415
0.000558898
-0.000494425
-0.000171018
0.000274558
-7.35389e-05
0.000510885
-0.000206626
0.000702276
-0.000316237
0.000862278
-0.000406922
0.000990713
-0.000483328
0.00108963
-0.000546819
0.00118725
-0.000602086
0.00128553
-0.000654478
0.0013633
-0.000702694
0.00142679
-0.000744699
0.00149356
-0.000783583
0.00155859
-0.000821992
0.0016084
-0.000857289
0.00166015
-0.000890599
0.00172522
-0.000927253
0.00179681
-0.000967707
0.00187881
-0.00101152
0.00197295
-0.00106007
0.00208566
-0.00111568
0.00221303
-0.00117892
0.00236482
-0.00125152
0.00254642
-0.00133732
0.00277354
-0.00144048
0.00307919
-0.00157254
0.00346817
-0.00174251
0.00396869
-0.00195536
0.00456146
-0.00220455
0.00520477
-0.00246155
0.00581607
-0.00266451
-0.00275574
0.00484268
0.000283515
-7.77862e-05
0.00052921
-0.000218748
0.000731254
-0.000335191
0.000903457
-0.000431554
0.00103821
-0.000511547
0.00114143
-0.000578511
0.00125015
-0.000639749
0.00136047
-0.000698358
0.00144754
-0.00075095
0.00151606
-0.000795984
0.00159112
-0.000838703
0.00165865
-0.000879809
0.00171357
-0.000917307
0.00178399
-0.000957843
0.00186631
-0.00100351
0.00195341
-0.00105127
0.00205271
-0.00110273
0.00216296
-0.00115889
0.00229094
-0.00122051
0.00243454
-0.00129039
0.00260769
-0.00137259
0.0028101
-0.00146935
0.00306631
-0.00158541
0.00341332
-0.00173193
0.00384255
-0.00191221
0.00436591
-0.00212212
0.00495033
-0.00234643
0.00556272
-0.00255314
0.00617227
-0.00270029
-0.00276604
0.00664492
0.000294269
-8.21001e-05
0.000550057
-0.000230959
0.000761616
-0.000354005
0.000940954
-0.000455438
0.00108255
-0.000539658
0.00119922
-0.000611899
0.00132123
-0.000678999
0.00144043
-0.000742254
0.00152916
-0.000796636
0.00160301
-0.000843372
0.00168969
-0.000890978
0.00175888
-0.000936741
0.00182727
-0.000979761
0.00192087
-0.00102839
0.00202042
-0.00108192
0.00212152
-0.00113606
0.00223229
-0.00119163
0.00235192
-0.00125085
0.00248492
-0.00131513
0.00264861
-0.00139085
0.00284637
-0.00148249
0.00307683
-0.00158984
0.00337861
-0.00172059
0.00376624
-0.00187881
0.00422088
-0.00205845
0.00473999
-0.00225142
0.00528574
-0.00243995
0.00582168
-0.00259703
0.00630926
-0.00269831
-0.00274445
0.00665976
0.00030696
-8.6459e-05
0.000573577
-0.000243222
0.000793787
-0.000372705
0.000978777
-0.000479337
0.00113041
-0.000568827
0.00126359
-0.000646619
0.00139809
-0.000718327
0.00152044
-0.000784318
0.00160692
-0.000840174
0.00169267
-0.000890514
0.00178974
-0.000942432
0.00186895
-0.000993362
0.0019601
-0.00104521
0.00207058
-0.00110123
0.0021817
-0.00115859
0.00228882
-0.00121495
0.00240051
-0.00127137
0.00252977
-0.00133417
0.00267954
-0.00140774
0.00287083
-0.00149426
0.00309628
-0.00159491
0.00336326
-0.00171112
0.00370914
-0.00184919
0.00411914
-0.00200668
0.00457588
-0.00217379
0.00506919
-0.00234242
0.00555427
-0.00249449
0.00600323
-0.00260868
0.00641113
-0.00268007
-0.00272131
0.00671531
0.000321946
-9.08659e-05
0.000600225
-0.000255538
0.00082825
-0.000391216
0.00102003
-0.000502809
0.00118262
-0.000597188
0.00132948
-0.000679887
0.00147443
-0.000755448
0.00159729
-0.000823174
0.00168925
-0.000882252
0.00179116
-0.00093911
0.00189707
-0.000996342
0.00199618
-0.00105315
0.00211079
-0.00111302
0.0022282
-0.00117373
0.00233786
-0.00123052
0.00244765
-0.00128722
0.00257006
-0.00134972
0.00272311
-0.00142201
0.0029069
-0.0015063
0.00312555
-0.00160161
0.00337853
-0.00170812
0.00367719
-0.0018279
0.00404085
-0.0019625
0.00444855
-0.00210753
0.0048853
-0.00225435
0.00533971
-0.00239503
0.0057658
-0.00251498
0.00614289
-0.00260124
0.00649033
-0.00265653
-0.00269285
0.00675656
0.000340011
-9.53531e-05
0.000630853
-0.000267982
0.000864722
-0.000409426
0.00106353
-0.000525502
0.00123669
-0.000624527
0.00139516
-0.000711666
0.00154739
-0.000790631
0.0016751
-0.000861595
0.00178477
-0.00092621
0.00190284
-0.000989584
0.00201998
-0.0010523
0.00214157
-0.00111516
0.00227192
-0.00118018
0.00238665
-0.00124218
0.0024954
-0.0013002
0.00262083
-0.00136254
0.00276863
-0.00143314
0.00294952
-0.00151282
0.0031612
-0.00160243
0.00340181
-0.0017013
0.00367629
-0.00180939
0.00399092
-0.00192668
0.00434994
-0.00205181
0.0047384
-0.00218022
0.00514221
-0.0023051
0.00554931
-0.00241934
0.00592895
-0.00251462
0.00626377
-0.00258562
0.00656494
-0.00263184
-0.00266014
0.00679582
0.000362856
-0.000100038
0.00066654
-0.000280271
0.000901616
-0.000426231
0.00110857
-0.000546571
0.00129227
-0.000650527
0.00146111
-0.000741711
0.00162281
-0.000824791
0.00176286
-0.00090096
0.0018931
-0.00097141
0.00202506
-0.00103954
0.00215397
-0.00110598
0.00229398
-0.00117294
0.00242956
-0.00123972
0.002543
-0.00130245
0.00266934
-0.00136637
0.00281647
-0.00143602
0.00298766
-0.00151171
0.00319305
-0.00159663
0.00342309
-0.00168991
0.00367965
-0.0017892
0.00396529
-0.0018944
0.00428139
-0.00200452
0.00462596
-0.00211735
0.00498824
-0.00222891
0.00535679
-0.00233416
0.00572007
-0.00242821
0.00606137
-0.00250611
0.0063669
-0.00256398
0.00663368
-0.00260031
-0.0026207
0.00683516
0.000384891
-0.000103519
0.000702013
-0.000289777
0.000945868
-0.000441785
0.00116185
-0.000568078
0.00134617
-0.000674771
0.00152612
-0.000768445
0.00170559
-0.00085696
0.00186048
-0.00093877
0.00200858
-0.00101429
0.00215397
-0.00108723
0.00229133
-0.00115692
0.0024401
-0.00122507
0.0025774
-0.00129202
0.00270482
-0.00135799
0.00285616
-0.00142808
0.00302078
-0.00150284
0.00321468
-0.00158368
0.00344041
-0.0016723
0.00368356
-0.00176553
0.00394794
-0.00186184
0.00423489
-0.00196109
0.00454335
-0.00206196
0.00486944
-0.00216208
0.00520532
-0.00225831
0.00554253
-0.00234728
0.00587119
-0.00242539
0.00617839
-0.00248876
0.00645392
-0.00253463
0.00669319
-0.00256222
-0.00257576
0.00687339
0.000398999
-0.000105904
0.000731545
-0.000297335
0.00100125
-0.000456224
0.00122416
-0.00058754
0.00139899
-0.000695501
0.00159472
-0.000792918
0.00179676
-0.000888058
0.00196404
-0.000974829
0.00212966
-0.00105451
0.00228883
-0.00113142
0.00242906
-0.0012028
0.0025818
-0.00127191
0.00273248
-0.00134276
0.0028843
-0.00141471
0.00305465
-0.0014891
0.00323803
-0.00156711
0.00345117
-0.0016502
0.00368564
-0.00173767
0.00393429
-0.00182726
0.00419957
-0.00191837
0.00448163
-0.0020102
0.00477825
-0.0021012
0.00508539
-0.00218934
0.0053976
-0.00227244
0.0057078
-0.00234783
0.00600625
-0.00241231
0.006283
-0.00246306
0.00653137
-0.00249862
0.00674739
-0.00251868
-0.00252624
0.00691063
0.000412213
-0.000108574
0.000759947
-0.000305062
0.00104687
-0.000467212
0.00127692
-0.000600492
0.00146312
-0.000713684
0.00168225
-0.000818999
0.00189807
-0.00091894
0.00206956
-0.00100697
0.00225012
-0.00108849
0.00242284
-0.00116836
0.00256991
-0.00124292
0.00273493
-0.0013163
0.00290792
-0.0013922
0.00308161
-0.00146838
0.0032668
-0.00154525
0.00346633
-0.00162428
0.00368733
-0.00170605
0.00392286
-0.00178994
0.00417126
-0.00187464
0.00443287
-0.00195937
0.00470664
-0.00204314
0.00498998
-0.00212457
0.00527968
-0.00220212
0.00557091
-0.00227386
0.00585616
-0.00233722
0.00612718
-0.00238976
0.00637733
-0.00242985
0.0066021
-0.00245675
0.00679818
-0.00247034
-0.00247272
0.00694713
0.000431961
-0.000111392
0.000791151
-0.000312095
0.00107174
-0.000474854
0.00131688
-0.000610086
0.00154422
-0.000731184
0.00178524
-0.000843341
0.00200283
-0.000944937
0.0021783
-0.00103432
0.00237
-0.00111857
0.00255704
-0.00120133
0.00272459
-0.00128035
0.00290654
-0.00135802
0.00309457
-0.00143588
0.00328359
-0.00151324
0.00348114
-0.00159088
0.00369063
-0.00166951
0.00391435
-0.00174916
0.00414903
-0.001829
0.00439342
-0.00190796
0.00464822
-0.00198561
0.00491227
-0.0020614
0.00518294
-0.00213419
0.0054567
-0.00220232
0.0057278
-0.00226371
0.00598959
-0.00231634
0.00623634
-0.00235872
0.00646352
-0.0023899
0.00666779
-0.00240949
0.00684655
-0.00241753
-0.00241549
0.00698305
0.000449446
-0.000112582
0.000818932
-0.000315633
0.00109909
-0.000481317
0.00136737
-0.000621279
0.00163226
-0.000747775
0.00188422
-0.000862639
0.00210623
-0.000965604
0.00230022
-0.00105883
0.00250329
-0.00114699
0.00270229
-0.00123188
0.00289131
-0.00131319
0.00308558
-0.00139249
0.00328227
-0.00147077
0.00348203
-0.00154826
0.00368897
-0.00162547
0.0039056
-0.00170278
0.00413218
-0.00177992
0.00436412
-0.00185539
0.00460042
-0.00192776
0.0048463
-0.00199782
0.00510139
-0.00206626
0.00536036
-0.00213136
0.0056183