/*--------------------------------*- C++ -*----------------------------------*\
| =========                 |                                                 |
| \\      /  F ield         | OpenFOAM: The Open Source CFD Toolbox           |
|  \\    /   O peration     | Version:  dev                                   |
|   \\  /    A nd           | Web:      www.OpenFOAM.org                      |
|    \\/     M anipulation  |                                                 |
\*---------------------------------------------------------------------------*/
FoamFile
{
    version     2.0;
    format      ascii;
    class       volScalarField;
    location    "5";
    object      p;
}
// * * * * * * * * * * * * * * * * * * * * * * * * * * * * * * * * * * * * * //

dimensions      [0 2 -2 0 0 0 0];

internalField   nonuniform List<scalar> 
2790
(
104.518
104.252
104.3
104.636
105.15
105.8
106.577
107.483
108.517
109.676
110.958
112.36
113.882
115.521
117.271
119.128
121.082
123.124
125.237
127.403
129.594
131.777
133.911
135.949
137.835
139.51
140.912
141.981
142.67
142.946
104.36
104.188
104.258
104.591
105.103
105.751
106.525
107.427
108.455
109.607
110.882
112.276
113.788
115.416
117.155
119
120.941
122.969
125.07
127.224
129.406
131.583
133.717
135.761
137.66
139.355
140.783
141.883
142.599
143.079
104.211
104.111
104.197
104.522
105.025
105.664
106.428
107.316
108.329
109.463
110.717
112.087
113.571
115.167
116.87
118.674
120.57
122.546
124.59
126.684
128.803
130.917
132.989
134.976
136.829
138.496
139.922
141.068
141.903
142.582
104.057
103.993
104.092
104.409
104.902
105.53
106.28
107.151
108.143
109.253
110.478
111.816
113.263
114.814
116.466
118.212
120.042
121.943
123.902
125.903
127.92
129.924
131.882
133.753
135.492
137.051
138.381
139.437
140.134
140.378
103.889
103.843
103.952
104.264
104.746
105.36
106.092
106.941
107.906
108.985
110.175
111.471
112.87
114.366
115.953
117.625
119.372
121.179
123.031
124.911
126.795
128.654
130.454
132.154
133.711
135.07
136.169
136.922
137.181
136.35
103.702
103.665
103.779
104.086
104.554
105.151
105.86
106.682
107.617
108.659
109.805
111.051
112.394
113.824
115.337
116.923
118.571
120.267
121.994
123.733
125.458
127.139
128.74
130.218
131.522
132.584
133.312
133.56
133.211
130.925
103.496
103.461
103.576
103.876
104.329
104.904
105.588
106.38
107.277
108.277
109.374
110.564
111.841
113.197
114.624
116.113
117.65
119.221
120.806
122.384
123.927
125.401
126.767
127.975
128.96
129.636
129.882
129.474
128.465
124.579
103.268
103.232
103.345
103.635
104.071
104.622
105.277
106.034
106.891
107.842
108.884
110.011
111.215
112.488
113.821
115.202
116.617
118.05
119.478
120.877
122.217
123.459
124.557
125.45
126.061
126.28
125.963
124.795
123.134
117.638
103.018
102.98
103.087
103.366
103.782
104.307
104.93
105.648
106.459
107.358
108.34
109.397
110.522
111.704
112.934
114.198
115.481
116.763
118.021
119.226
120.343
121.329
122.129
122.671
122.86
122.565
121.631
119.629
117.334
110.278
102.748
102.705
102.804
103.069
103.463
103.959
104.547
105.224
105.985
106.827
107.744
108.727
109.766
110.851
111.97
113.11
114.251
115.372
116.447
117.444
118.322
119.032
119.508
119.666
119.395
118.539
116.945
114.048
111.11
102.564
102.456
102.408
102.498
102.747
103.117
103.581
104.132
104.764
105.472
106.253
107.101
108.005
108.953
109.935
110.938
111.946
112.937
113.889
114.771
115.547
116.172
116.587
116.718
116.465
115.702
114.247
111.951
108.096
104.45
94.4564
102.145
102.092
102.17
102.4
102.744
103.176
103.687
104.272
104.923
105.641
106.416
107.237
108.089
108.964
109.846
110.715
111.551
112.326
113.007
113.553
113.914
114.021
113.79
113.106
111.823
109.73
106.678
101.792
97.2726
85.7429
101.814
101.756
101.822
102.031
102.347
102.744
103.215
103.749
104.343
104.994
105.693
106.426
107.181
107.944
108.7
109.428
110.104
110.697
111.172
111.482
111.571
111.362
110.758
109.63
107.807
105.041
101.16
95.1447
89.4205
75.9343
101.466
101.403
101.456
101.642
101.928
102.29
102.717
103.199
103.733
104.316
104.937
105.58
106.233
106.884
107.512
108.095
108.607
109.017
109.282
109.354
109.169
108.642
107.665
106.089
103.719
100.259
95.4792
88.2151
80.7141
64.1209
101.101
101.033
101.071
101.234
101.489
101.814
102.196
102.625
103.098
103.611
104.151
104.703
105.254
105.79
106.289
106.726
107.075
107.301
107.359
107.195
106.74
105.901
104.561
102.553
99.6527
95.5175
89.8244
81.2577
71.2693
48.6857
1.97961
1.96134
1.89885
1.78909
1.6537
1.51639
1.39216
1.28766
1.20311
1.13311
1.07194
1.01627
0.963583
0.912459
0.862548
0.813747
0.765551
0.717591
0.668924
0.617851
0.564835
0.510028
0.452924
0.394233
0.333293
0.270226
0.206991
0.14547
0.0871428
0.0321356
1.95764
1.9299
1.86196
1.75388
1.62357
1.49182
1.37251
1.2719
1.19032
1.12253
1.06264
1.00749
0.955366
0.905125
0.855943
0.807767
0.760418
0.713283
0.665564
0.615966
0.564448
0.510958
0.454694
0.395896
0.33441
0.270745
0.206877
0.144803
0.0862362
0.0320381
1.9195
1.8815
1.8061
1.69932
1.57544
1.45164
1.33984
1.2452
1.16781
1.10308
1.04522
0.99115
0.940064
0.891232
0.843643
0.797008
0.75114
0.705575
0.659661
0.612509
0.563499
0.512049
0.457165
0.398503
0.336302
0.271545
0.206319
0.142897
0.0832598
0.0282779
1.86559
1.81962
1.73661
1.63125
1.51438
1.39987
1.29714
1.20968
1.13714
1.07597
1.02108
0.96946
0.920588
0.873947
0.828579
0.78423
0.740762
0.697776
0.65458
0.610344
0.564005
0.51435
0.460229
0.401138
0.337562
0.270978
0.203816
0.138752
0.0780802
0.022445
1.79952
1.74892
1.65912
1.55593
1.44641
1.34184
1.24887
1.16918
1.10193
1.0446
0.993182
0.944915
0.899419
0.856081
0.813885
0.772615
0.732337
0.692603
0.652603
0.61151
0.567983
0.520381
0.46727
0.408022
0.34325
0.274775
0.205377
0.138153
0.0758462
0.0195301
1.72647
1.67411
1.57877
1.47884
1.37695
1.28237
1.1991
1.12732
1.06559
1.01217
0.964392
0.919916
0.878375
0.839253
0.801567
0.764769
0.728773
0.693211
0.657195
0.619752
0.579234
0.533698
0.481489
0.4219
0.355618
0.284704
0.212294
0.14199
0.0770613
0.0190332
1.65036
1.59907
1.50057
1.40544
1.31148
1.22606
1.15129
1.08656
1.03002
0.980328
0.936084
0.895599
0.858283
0.8238
0.79134
0.76005
0.729467
0.699079
0.66802
0.635157
0.598408
0.555532
0.504634
0.444882
0.376953
0.303063
0.22672
0.152196
0.0833301
0.0213361
1.57383
1.52856
1.43129
1.34177
1.25496
1.17593
1.10681
1.04697
0.99452
0.948204
0.907269
0.870869
0.838276
0.809035
0.782457
0.75755
0.733497
0.709466
0.684744
0.657818
0.626127
0.587099
0.538499
0.479259
0.409947
0.332819
0.251647
0.171304
0.0961461
0.0274234
1.50365
1.47231
1.38016
1.29269
1.20793
1.13112
1.06439
1.00692
0.957073
0.913701
0.876055
0.843872
0.816608
0.793606
0.774076
0.756868
0.740808
0.724846
0.708058
0.688626
0.663842
0.630518
0.585805
0.528156
0.45785
0.377063
0.289731
0.201375
0.115877
0.0361601
1.45823
1.44535
1.35209
1.25694
1.16648
1.08729
1.02006
0.963042
0.914612
0.873719
0.839624
0.812234
0.791208
0.775829
0.76513
0.757655
0.751656
0.74564
0.73854
0.728727
0.713272
0.688126
0.649345
0.594509
0.523438
0.438184
0.342636
0.241902
0.140968
0.0459412
1.46815
1.45539
1.34276
1.2263
1.12243
1.03649
0.966638
0.909433
0.862402
0.824254
0.794423
0.772956
0.759596
0.753645
0.754139
0.759232
0.76609
0.772301
0.776924
0.779082
0.775908
0.762125
0.731925
0.681441
0.609826
0.518963
0.412631
0.294955
0.173388
0.0577696
1.55641
1.4946
1.33508
1.1848
1.06177
0.966527
0.894104
0.83834
0.794656
0.760793
0.736632
0.72287
0.719222
0.724886
0.739442
0.76089
0.784314
0.805233
0.823222
0.839484
0.852011
0.853726
0.83563
0.791493
0.719583
0.621662
0.501319
0.362896
0.216003
0.0729964
1.70477
1.5339
1.30138
1.09865
0.960245
0.867288
0.797602
0.745066
0.706986
0.679644
0.662775
0.659229
0.668025
0.687365
0.718872
0.761724
0.806952
0.845134
0.876997
0.908692
0.940912
0.963803
0.962674
0.927445
0.855408
0.748626
0.610981
0.447702
0.270189
0.0922634
1.83231
1.52356
1.18027
0.930661
0.80025
0.734687
0.67574
0.627019
0.596527
0.578505
0.570174
0.580191
0.604925
0.638739
0.689102
0.760541
0.835895
0.893842
0.937521
0.984016
1.04063
1.09293
1.11566
1.09243
1.02001
0.901984
0.743476
0.550951
0.336959
0.115936
1.74733
1.46365
0.870929
0.539556
0.52531
0.58813
0.531499
0.469707
0.458297
0.462286
0.458893
0.482651
0.528584
0.576684
0.645565
0.756083
0.875559
0.955461
1.00363
1.06013
1.1469
1.24137
1.29794
1.29016
1.21611
1.08347
0.900079
0.673724
0.41703
0.14425
100.715
100.641
100.664
100.802
101.024
101.31
101.645
102.019
102.428
102.869
103.327
103.784
104.231
104.649
105.016
105.306
105.49
105.531
105.381
104.984
104.264
103.125
101.439
99.0258
95.6442
90.9204
84.4424
74.8046
62.0712
26.1994
100.303
100.222
100.227
100.339
100.528
100.773
101.059
101.374
101.718
102.084
102.456
102.817
103.156
103.454
103.686
103.827
103.846
103.703
103.35
102.726
101.753
100.334
98.3369
95.5786
91.8237
86.7228
79.8997
70.2661
58.7253
47.1111
99.867
99.7782
99.7658
99.8511
100.005
100.207
100.441
100.697
100.973
101.263
101.546
101.81
102.041
102.217
102.314
102.307
102.163
101.842
101.293
100.456
99.2521
97.5865
95.3325
92.3216
88.3575
83.1888
76.6501
68.416
59.5369
53.1547
99.4089
99.3111
99.28
99.3381
99.4568
99.6142
99.7947
99.9894
100.197
100.409
100.604
100.769
100.891
100.945
100.909
100.759
100.459
99.9677
99.2361
98.2038
96.7974
94.9293
92.4849
89.3271
85.3183
80.3147
74.2766
67.114
58.8984
50.5107
98.9293
98.8215
98.7712
98.8015
98.8838
98.9955
99.1214
99.2548
99.3939
99.5259
99.6319
99.6998
99.7122
99.6473
99.4841
99.1956
98.7475
98.0982
97.1997
95.9965
94.4227
92.4006
89.8349
86.6255
82.6843
77.9299
72.3355
65.8458
58.3651
50.61
98.4294
98.3108
98.2407
98.2429
98.288
98.3533
98.4243
98.4963
98.5658
98.6179
98.6362
98.6076
98.5128
98.3334
98.049
97.6304
97.0441
96.2501
95.2044
93.8579
92.1533
90.0253
87.401
84.2116
80.402
75.926
70.7713
64.9505
58.4867
51.9196
97.9105
97.7806
97.6904
97.6638
97.6715
97.6902
97.7062
97.7168
97.7166
97.6895
97.6218
97.4988
97.3013
97.0136
96.6144
96.074
95.361
94.4385
93.2677
91.8067
90.0074
87.8179
85.1862
82.0667
78.4272
74.2486
69.5408
64.3479
58.7184
52.978
97.3743
97.2331
97.122
97.0659
97.0366
97.0093
96.9703
96.9194
96.8503
96.7457
96.5941
96.3806
96.0862
95.6964
95.1891
94.5368
93.7109
92.6778
91.405
89.8578
87.9971
85.7842
83.1835
80.1669
76.719
72.8388
68.5476
63.8915
58.9166
53.8504
96.8225
96.6706
96.538
96.4517
96.3859
96.3131
96.2192
96.108
95.9718
95.7919
95.5595
95.2605
94.8751
94.3893
93.7823
93.03
92.1057
90.9808
89.6288
88.0214
86.1284
83.9221
81.3797
78.4861
75.2372
71.6427
67.7287
63.5386
59.1191
54.6453
96.257
96.0948
95.9412
95.8253
95.7221
95.6032
95.4561
95.2871
95.086
94.8338
94.5247
94.1449
93.6745
93.1001
92.4037
91.5635
90.5559
89.3578
87.9477
86.303
84.4015
82.2245
79.7588
76.9985
73.9475
70.6213
67.0474
63.2661
59.3207
55.3477
95.6804
95.5077
95.3343
95.1902
95.0482
94.8826
94.6854
94.4612
94.1976
93.8773
93.4957
93.0397
92.4912
91.8372
91.0619
90.1462
89.0703
87.816
86.3663
84.7039
82.8128
80.6815
78.304
75.6809
72.8215
69.7436
66.474
63.0483
59.5046
55.9505
95.0957
94.9129
94.72
94.5474
94.3667
94.1567
93.9124
93.6345
93.3108
92.9274
92.4782
91.9515
91.3323
90.608
89.7646
88.7857
87.6554
86.3597
84.8865
83.2226
81.3563
79.2818
76.9988
74.5126
71.8348
68.9839
65.9843
62.867
59.6645
56.4633
94.5057
94.3141
94.1009
93.8988
93.6815
93.4305
93.1412
92.8114
92.431
91.9888
91.4775
90.8868
90.2044
89.419
88.518
87.4878
86.3154
84.9913
83.5083
81.8558
80.0246
78.0138
75.8281
73.4749
70.9668
68.3212
65.5604
62.7107
59.7997
56.8973
93.914
93.7138
93.4798
93.2485
92.9971
92.7078
92.3754
91.9967
91.5637
91.0672
90.4994
89.8513
89.1132
88.2755
87.3272
86.2566
85.0535
83.7122
82.2298
80.5979
78.8092
76.8667
74.778
72.5517
70.2
67.7392
65.1889
62.5717
59.9105
57.2622
93.324
93.1147
92.8604
92.6013
92.3178
91.9924
91.6192
91.1951
90.7138
90.1677
89.549
88.8501
88.0635
87.1822
86.196
85.0946
83.871
82.5226
81.0482
79.4425
77.7016
75.83
73.836
71.7286
69.5199
67.2246
64.8598
62.4447
59.9983
57.5673
92.7389
92.52
92.2463
91.9613
91.6477
91.2884
90.8771
90.4112
89.8862
89.2953
88.6315
87.8879
87.0596
86.1427
85.1275
84.0036
82.7678
81.4203
79.9602
78.3849
76.6945
74.8937
72.9903
70.9934
68.9146
66.767
64.5655
62.3263
60.0653
57.8207
92.1622
91.9337
91.6418
91.3327
90.9911
90.6001
90.1536
89.6497
89.0852
88.4545
87.7513
86.9694
86.1061
85.1602
84.1228
82.9838
81.7429
80.4023
78.9615
77.4205
75.7813
74.0489
72.2307
70.3356
68.3741
66.3581
64.3003
62.2144
60.1136
58.0296
91.5978
91.3599
91.0508
90.7195
90.352
89.932
89.4533
88.9149
88.3152
87.6497
86.9124
86.0987
85.2072
84.2373
83.1822
82.0347
80.7953
79.4662
78.0485
76.5437
74.955
73.2877
71.5488
69.7466
67.8907
65.9915
64.06
62.1078
60.1459
58.2006
91.0496
90.8028
90.4778
90.126
89.7349
89.2885
88.7807
88.2113
87.5805
86.8846
86.1182
85.2785
84.3647
83.3759
82.3078
81.1568
79.9233
78.6094
77.2171
75.7491
74.2093
72.6032
70.9374
69.2194
67.458
65.6622
63.8416
62.006
60.1646
58.3392
90.5219
90.2668
89.9273
89.5567
89.144
88.6738
88.1401
87.5436
86.8854
86.163
85.3723
84.5114
83.58
82.5773
81.5013
80.3506
79.1258
77.8292
76.4633
75.0317
73.5386
71.9894
70.3902
68.7482
67.071
65.3665
63.6431
61.909
60.1721
58.4506
90.0192
89.7565
89.4038
89.0163
88.5839
88.092
87.5356
86.9158
86.234
85.4889
84.678
83.8002
82.8553
81.8431
80.7631
79.6155
78.4013
77.1231
75.7839
74.3874
72.9381
71.4411
69.9024
68.3283
66.7257
65.1015
63.4629
61.8171
60.1708
58.539
89.5463
89.2767
88.912
88.5093
88.0593
87.548
86.9717
86.3318
85.6301
84.8661
84.0387
83.1473
82.1924
81.1742
80.0934
78.9509
77.7487
76.4892
75.1759
73.8126
72.4038
70.9544
69.4699
67.9561
66.4192
64.8652
63.3005
61.7312
60.163
58.6087
89.108
88.8321
88.4567
88.0403
87.5746
87.0465
86.4529
85.7958
85.0774
84.2978
83.4571
82.5553
81.5931
80.5717
79.4922
78.3565
77.1666
75.9256
74.6369
73.3044
71.9323
70.5256
69.0893
67.6286
66.1491
64.6561
63.1553
61.6519
60.1509
58.6629
88.7096
88.4281
88.0428
87.614
87.1346
86.5918
85.9835
85.3119
84.5796
83.7875
82.9363
82.0266
81.0596
80.037
78.9605
77.8323
76.6549
75.4315
74.1655
72.8609
71.5219
70.153
68.7588
67.3443
65.9144
64.474
63.028
61.5808
60.1371
58.7057
88.3566
88.0698
87.6752
87.2352
86.7437
86.1886
85.5677
84.884
84.1403
83.3382
82.4787
81.5632
80.5933
79.5709
78.4982
77.3777
76.2122
75.005
73.7596
72.4798
71.1697
69.8336
68.4759
67.1009
65.7133
64.3174
62.9176
61.5179
60.1223
58.7382
88.055
87.7629
87.359
86.9086
86.4068
85.8414
85.2104
84.517
83.7643
82.9545
82.089
81.1696
80.1981
79.1769
78.1084
76.9954
75.8408
74.6481
73.4207
72.1623
70.877
69.5688
68.2418
66.9001
65.5478
64.189
62.8277
61.4674
60.1117
58.767
87.8116
87.5132
87.0989
86.6384
86.1275
85.5534
84.9138
84.2124
83.4527
82.637
81.7671
80.845
79.873
78.8534
77.7891
76.6829
75.538
74.3576
73.1453
71.9048
70.6399
69.3545
68.0524
66.7375
65.4137
64.0846
62.7538
61.4248
60.1006
58.7865
87.635
87.326
86.9
86.4318
85.9148
85.3343
84.6883
83.9809
83.2159
82.3959
81.523
80.5992
79.6271
78.6093
77.5487
76.4482
75.3111
74.1408
72.9406
71.7143
70.4655
69.198
67.9155
66.6216
65.32
64.0141
62.7073
61.4029
60.1037
58.8143
87.5389
87.2002
86.7557
86.2812
85.7609
85.1765
84.5264
83.8154
83.0475
82.2253
81.351
80.4267
79.4552
78.4392
77.3816
76.2855
75.1541
73.9908
72.7991
71.5825
70.3447
69.0892
67.8198
66.5398
65.2528
63.9621
62.6709
61.3822
60.0988
58.8243
87.5552
87.1639
86.6959
86.2146
85.6904
85.1021
84.4484
83.7346
82.9647
82.1411
81.266
80.3418
79.3711
78.3567
77.3016
76.2089
75.0817
73.9235
72.7377
71.5278
70.2974
69.05
67.7891
66.5182
65.2407
63.9597
62.6785
61.3998
60.1264
58.8614
-64.5124
-35.7749
-11.2761
35.1986
30.9149
23.9826
41.9774
32.3359
24.6669
39.3758
32.2474
27.2714
42.5283
37.1387
32.8569
45.47
40.939
37.1198
47.4549
43.5883
40.3119
49.0906
45.7808
42.9731
50.5062
47.6311
45.1912
51.7019
49.1699
47.0238
52.7066
50.4541
48.5475
53.5529
51.5317
49.8222
54.266
52.4381
50.893
54.8667
53.2019
51.7952
55.3722
53.8463
52.5572
55.7972
54.3902
53.2016
56.1536
54.849
53.7468
56.452
55.2358
54.208
56.7009
55.5615
54.5981
56.9079
55.8351
54.9274
57.0792
56.0642
55.2047
57.2206
56.2556
55.4376
57.3364
56.4146
55.6323
57.4322
56.5474
55.7954
57.5091
56.6556
55.9294
57.5756
56.7482
56.0429
57.6242
56.8179
56.1299
57.6769
56.887
56.2111
57.702
56.9244
56.2587
57.7556
56.9894
56.3288
4.02153
0.847211
-0.509496
-0.571062
0.20602
0.642851
0.360622
0.194964
0.29022
0.369894
0.322508
0.343362
0.438173
0.508602
0.58441
0.743661
0.9327
1.03901
1.0749
1.12889
1.25451
1.41307
1.51905
1.53012
1.4509
1.29829
1.08494
0.819426
0.512755
0.178015
9.86109
0.0477
-0.660977
0.55972
1.60719
1.0323
-0.379362
-0.451301
0.272669
0.427546
0.0703707
0.0799531
0.37534
0.482342
0.480228
0.681237
1.01146
1.16818
1.15396
1.1741
1.35038
1.61154
1.79303
1.82518
1.73208
1.55088
1.30178
0.991732
0.626928
0.218176
14.4559
5.82084
3.26334
2.50307
1.46899
0.00755233
-0.646437
0.511136
1.27529
0.384306
-0.677511
-0.294203
0.563598
0.545953
0.178556
0.452602
1.16925
1.42986
1.24822
1.1482
1.38662
1.82882
2.13699
2.18649
2.05921
1.83734
1.54871
1.19108
0.760433
0.265002
20.6459
13.4741
9.02582
6.07726
3.73169
2.01582
1.23528
1.31048
0.613797
-0.611982
-0.815266
0.633999
1.41162
0.486073
-0.539017
0.197582
1.68975
1.93847
1.26518
0.885027
1.26449
2.09227
2.61029
2.6322
2.42281
2.14761
1.82365
1.42012
0.915484
0.318986
27.0571
20.4802
15.0918
10.973
7.86678
5.56975
3.93911
2.76273
1.59812
0.710226
0.643373
1.12772
0.752934
-0.434896
-0.513095
1.29111
2.77248
2.32985
0.887028
0.344279
1.2089
2.62933
3.3032
3.14767
2.78507
2.46608
2.129
1.68561
1.096
0.380324
32.159
26.3774
20.8887
16.2533
12.5587
9.62321
7.29624
5.48132
4.05064
2.98708
2.33667
1.90045
1.28264
0.705232
0.947042
1.86181
2.2867
1.59417
0.532236
0.725845
2.16639
3.55363
3.92319
3.50897
3.01446
2.74124
2.45484
1.98943
1.30778
0.447875
36.1971
31.2529
26.0652
21.3271
17.3297
14.0012
11.2404
8.9839
7.14668
5.66139
4.51408
3.64965
2.94545
2.42938
2.29159
2.42827
2.39747
1.94633
1.49559
1.75382
2.59354
3.36211
3.64059
3.51929
3.34658
3.26187
3.01905
2.45767
1.62247
0.485761
39.4994
35.2396
30.4922
25.919
21.8877
18.3991
15.3854
12.8042
10.6122
8.7741
7.27544
6.08206
5.11848
4.35661
3.85076
3.57187
3.32355
2.96328
2.66445
2.73828
3.17684
3.66682
3.91381
3.87694
3.71036
3.49268
3.11293
2.47147
1.5861
0.293087
42.1924
38.4736
34.1916
29.9181
26.02
22.5334
19.4181
16.6555
14.235
12.1435
10.3658
8.87396
7.62554
6.59893
5.80495
5.21729
4.73312
4.27637
3.91905
3.80837
3.95228
4.16906
4.25243
4.13865
3.89098
3.54874
3.05398
2.33458
1.37403
0.0187208
44.3933
41.1102
37.2623
33.3291
29.6464
26.2653
23.1639
20.3393
17.7977
15.5392
13.5555
11.8313
10.3455
9.08233
8.03321
7.17361
6.45167
5.82998
5.33393
5.02122
4.88414
4.8154
4.68621
4.43631
4.07427
3.60658
2.99633
2.19658
1.19453
-0.0992844
46.2118
43.284
39.8172
36.215
32.7767
29.5561
26.5406
23.7343
21.1521
18.8033
16.6883
14.8008
13.1308
11.667
10.3985
9.30792
8.36866
7.55918
6.88146
6.34949
5.94794
5.61294
5.26336
4.84535
4.3409
3.73984
3.01835
2.1514
1.14181
-0.0552112
47.7278
45.0934
41.9537
38.6539
35.4588
32.4197
29.5276
26.7886
24.2221
21.8433
19.6576
17.6644
15.8602
14.2392
12.7936
11.5125
10.3802
9.3822
8.51127
7.76394
7.12297
6.54691
5.98162
5.38256
4.7241
3.99046
3.16587
2.23957
1.22458
0.102088
48.9994
46.6105
43.7506
40.7192
37.7522
34.8959
32.1417
29.4965
26.982
24.615
22.4027
20.3487
18.454
16.7173
15.1345
13.699
12.401
11.2298
10.1763
9.23116
8.37758
7.58621
6.81949
6.04273
5.23118
4.36862
3.44392
2.45395
1.41514
0.325129
50.0707
47.8896
45.2697
42.4743
39.7148
37.0321
34.4172
31.8783
29.4368
27.1074
24.8984
22.8167
20.8663
19.0488
17.3629
15.8052
14.3696
13.0484
11.8329
10.713
9.67362
8.69309
7.74459
6.80179
5.84363
4.8555
3.8291
2.7644
1.67659
0.57392
50.9764
48.9724
46.5591
43.9702
41.3968
38.8745
36.3947
33.9659
31.6064
29.3285
27.1422
25.0564
23.0766
21.2057
19.4448
17.7926
16.2457
14.7987
13.4445
12.1739
10.9744
9.82966
8.72
7.62557
6.52934
5.41892
4.28754
3.13557
1.97437
0.818511
51.7434
49.891
47.6559
45.2475
42.8394
40.464
38.1131
35.7928
33.5165
31.2966
29.1454
27.0718
25.0815
23.1782
21.3644
19.6406
18.0052
16.4549
14.9842
13.5856
12.2492
10.9626
9.71098
8.47935
7.25414
6.02493
4.78562
3.53548
2.2811
1.04005
52.3937
50.6716
48.5906
46.3398
44.0784
41.8365
39.6058
37.3879
35.1929
33.035
30.9269
28.876
26.8882
24.9677
23.118
21.3409
19.6362
18.002
16.4345
14.928
13.4749
12.0656
10.689
9.33355
7.98826
6.64425
5.2955
3.93957
2.57841
1.22998
52.9454
51.3356
49.3886
47.276
45.1448
43.023
40.9008
38.7766
36.6606
34.5671
32.5061
30.4842
28.5075
26.581
24.7086
22.8927
21.1343
19.4327
17.7853
16.1882
14.6355
13.12
11.6331
10.1657
8.70894
7.25479
5.79706
4.33155
2.85623
1.38773
53.4135
51.9006
50.0701
48.0788
46.0629
44.0478
42.0223
39.984
37.9435
35.9131
33.9002
31.911
29.9515
28.0271
26.142
24.2991
22.4999
20.7445
19.0316
17.3584
15.7208
14.1131
12.5287
10.9603
9.40032
7.84149
6.27729
4.70202
3.11059
1.51737
53.8101
52.3808
50.6515
48.766
46.8512
44.9302
42.9917
41.0329
39.063
37.0919
35.1263
33.1714
31.2328
29.3161
27.426
25.5653
23.7357
21.9379
20.1716
18.4348
16.7247
15.037
13.3665
11.707
10.0521
8.39489
6.72863
5.04649
3.34123
1.62469
54.1452
52.7877
51.146
49.3526
47.5262
45.6884
43.828
41.9417
40.0363
38.1204
36.2002
34.28
32.3641
30.4584
28.5685
26.6974
24.846
23.0152
21.2055
19.4158
17.644
15.887
14.1405
12.3993
10.6577
8.90914
7.14677
5.36299
3.54923
1.71486
54.4277
53.1318
51.5656
49.8522
48.103
46.3384
44.5474
42.7257
40.8784
39.0133
37.1361
35.2499
33.357
31.4638
29.5782
27.7024
25.8357
23.9796
22.1348
20.3012
18.4772
16.6603
14.8472
13.0332
11.2133
9.38111
7.5298
5.65133
3.73641
1.79207
54.6648
53.4213
51.92
50.2756
48.5934
46.8927
45.1624
43.3976
41.6023
39.7831
37.9455
36.0913
34.2211
32.3419
30.4631
28.5858
26.7089
24.8335
22.9608
21.0909
19.2229
17.3548
15.4836
13.6055
11.7155
9.80791
7.87563
5.91057
3.90314
1.85823
54.8636
53.6643
52.2184
50.6331
49.0084
47.3627
45.685
43.9698
42.2203
40.4423
38.6401
36.8147
34.9669
33.1031
31.2312
29.3536
27.4701
25.5807
23.6861
21.7868
19.8822
17.9706
16.0496
14.1157
12.1642
10.1895
8.18493
6.14218
4.05163
1.91592
55.0276
53.8652
52.4658
50.9306
49.3547
47.7556
46.1224
44.4494
42.7393
40.9968
39.2251
37.4257
35.6
33.7511
31.8853
30.009
28.122
26.2223
24.3104
22.3873
20.4524
18.5044
16.5411
14.5593
12.5545
10.5215
8.45349
6.34244
4.17881
1.9634
55.165
54.0324
52.6715
51.1778
49.6425
48.0825
46.4864
44.8484
43.1712
41.4585
39.7129
37.9368
36.1309
34.2951
32.436
30.5623
28.6732
26.7659
24.8407
22.8986
20.9392
18.9615
16.9632
14.9413
12.8917
10.8092
8.68705
6.51746
4.29092
2.00563
55.2719
54.1626
52.8318
51.3709
49.8681
48.3396
46.7737
45.1644
43.5143
41.8264
40.1025
38.3449
36.554
34.7296
32.8778
31.0058
29.1142
27.2009
25.2659
23.3093
21.3308
19.3294
17.3029
15.2486
13.1623
11.039
8.8723
6.65435
4.37607
2.03433
55.3657
54.2731
52.9653
51.5294
50.0511
48.5467
47.0042
45.4174
43.7883
42.1196
40.4127
38.6693
36.8902
35.0761
33.2305
31.359
29.4651
27.5481
25.6064
23.6394
21.6468
19.6275
17.5796
15.5004
13.3858
11.2309
9.0292
6.77296
4.45297
2.06305
55.4245
54.3421
53.0492
51.6302
50.168
48.6789
47.1516
45.5789
43.9627
42.3059
40.6101
38.8768
37.1076
35.3019
33.4594
31.5865
29.6914
27.7731
25.8274
23.8532
21.8507
19.8191
17.7565
15.66
13.5258
11.3488
9.12258
6.83927
4.4901
2.06887
55.4935
54.4106
53.1264
51.718
50.2647
48.7838
47.2645
45.6989
44.0889
42.4381
40.7482
39.0207
37.2577
35.4574
33.6155
31.7406
29.8454
27.9273
25.9792
24.0006
21.9921
19.9532
17.882
15.7757
13.6304
11.4408
9.20004
6.8994
4.5275
2.06882
)
;

boundaryField
{
    inlet
    {
        type            zeroGradient;
    }
    outlet
    {
        type            fixedValue;
        value           uniform 0;
    }
    flap
    {
        type            zeroGradient;
    }
    upperWall
    {
        type            zeroGradient;
    }
    lowerWall
    {
        type            zeroGradient;
    }
    frontAndBack
    {
        type            empty;
    }
}


// ************************************************************************* //
