/*--------------------------------*- C++ -*----------------------------------*\
| =========                 |                                                 |
| \\      /  F ield         | OpenFOAM: The Open Source CFD Toolbox           |
|  \\    /   O peration     | Version:  dev                                   |
|   \\  /    A nd           | Web:      www.OpenFOAM.org                      |
|    \\/     M anipulation  |                                                 |
\*---------------------------------------------------------------------------*/
FoamFile
{
    version     2.0;
    format      ascii;
    class       surfaceVectorField;
    location    "5";
    object      Uf;
}
// * * * * * * * * * * * * * * * * * * * * * * * * * * * * * * * * * * * * * //

dimensions      [0 1 -1 0 0 0 0];

internalField   nonuniform List<vector> 
5457
(
(9.91425 8.98015e-20 0.0218988)
(9.96516 0 0.0365932)
(9.82099 1.79193e-19 0.0276824)
(9.92933 2.24536e-20 0.0411019)
(9.71721 8.9139e-20 0.0322933)
(9.8684 1.58328e-19 0.0474839)
(9.60051 2.48339e-20 0.0370426)
(9.78668 4.64406e-20 0.0554106)
(9.47087 4.95976e-20 0.0419362)
(9.69032 -7.08441e-20 0.0638526)
(9.32846 2.4752e-20 0.0470231)
(9.5809 -7.32168e-20 0.0727161)
(9.17304 5.53901e-20 0.0524438)
(9.4579 -1.02265e-19 0.0822358)
(9.00402 -3.58733e-21 0.058331)
(9.3205 1.59288e-19 0.0926316)
(8.82063 -5.50215e-20 0.0647996)
(9.168 -1.51294e-21 0.104078)
(8.62192 1.55298e-20 0.0719618)
(8.99965 -5.65086e-20 0.116741)
(8.40682 3.12149e-20 0.0799403)
(8.81451 5.81186e-22 0.1308)
(8.17409 -1.2108e-19 0.0888736)
(8.61146 6.71529e-22 0.146464)
(7.92235 9.154e-21 0.0989139)
(8.38925 1.21819e-19 0.163966)
(7.65008 1.36585e-19 0.110227)
(8.14645 -1.32955e-19 0.183549)
(7.35562 1.58607e-19 0.122995)
(7.88144 5.93956e-19 0.205473)
(7.03721 -5.26991e-20 0.137424)
(7.59257 -4.20589e-19 0.230013)
(6.69297 -5.53509e-19 0.153737)
(7.27798 -2.40729e-19 0.257468)
(6.32099 -3.49133e-19 0.172138)
(6.93581 -9.94827e-19 0.288119)
(5.91943 3.86302e-19 0.19281)
(6.56406 -8.67349e-19 0.322137)
(5.48663 3.80399e-19 0.215924)
(6.16076 1.80048e-18 0.35961)
(5.02122 0 0.241624)
(5.72424 -1.88226e-19 0.400538)
(4.52221 -2.42124e-19 0.269979)
(5.25308 1.2153e-18 0.444723)
(3.98927 5.54564e-19 0.300947)
(4.74619 4.2402e-22 0.491666)
(3.42292 -3.48214e-19 0.334331)
(4.20313 2.86222e-18 0.540453)
(2.82481 -4.77436e-19 0.369686)
(3.62423 -4.96547e-18 0.589581)
(2.19822 -7.10272e-19 0.406079)
(3.01094 1.12844e-18 0.63661)
(1.54874 -5.84362e-19 0.440967)
(2.36603 3.19197e-18 0.677438)
(0.886381 3.80262e-18 0.458854)
(1.6947 -4.68752e-18 0.703961)
(0.226166 -6.06917e-19 0.169805)
(0.976636 3.08973e-18 0.692457)
(0.356366 -5.0561e-18 0.247983)
(10.004 -6.68963e-20 0.0436294)
(9.9956 0 0.0348596)
(9.97673 4.36952e-21 0.0568909)
(9.98838 -2.20158e-20 0.0530987)
(9.9327 1.13464e-19 0.0682248)
(9.95932 -1.56812e-19 0.0675966)
(9.87337 -5.14728e-20 0.0803828)
(9.90973 -4.606e-20 0.0835425)
(9.79871 -1.93709e-19 0.0933307)
(9.84464 9.46474e-20 0.100585)
(9.70882 -2.0077e-19 0.107122)
(9.76573 -2.9467e-19 0.11858)
(9.60353 6.38517e-21 0.122052)
(9.67275 -1.54814e-21 0.137912)
(9.48239 1.5849e-19 0.13842)
(9.56503 1.04896e-19 0.158997)
(9.34472 -3.96526e-21 0.156489)
(9.44195 5.00336e-22 0.18218)
(9.18971 -7.04675e-20 0.176522)
(9.30289 -6.07479e-22 0.207798)
(9.01636 -2.99676e-20 0.198806)
(9.14703 -1.46867e-20 0.236217)
(8.82352 2.45651e-19 0.223674)
(8.97336 -4.69071e-19 0.26785)
(8.60987 -2.46055e-20 0.25149)
(8.78077 7.52356e-19 0.30318)
(8.3739 3.36639e-19 0.282632)
(8.56796 2.51345e-19 0.342722)
(8.11397 -2.1751e-21 0.317499)
(8.3334 2.30493e-20 0.387004)
(7.82834 -6.05686e-19 0.356521)
(8.07553 -5.06285e-19 0.436593)
(7.51511 -6.94347e-19 0.400146)
(7.79253 1.22495e-18 0.492113)
(7.17224 -1.51105e-18 0.448744)
(7.48263 -2.0244e-18 0.55421)
(6.79766 5.88591e-19 0.502534)
(7.14382 6.04944e-19 0.623354)
(6.38939 1.20131e-18 0.561607)
(6.77379 4.06318e-19 0.699809)
(5.94563 1.04774e-18 0.62587)
(6.3705 -9.24341e-21 0.783701)
(5.46479 1.44182e-18 0.694881)
(5.93195 1.59204e-18 0.874835)
(4.9457 2.34792e-18 0.767687)
(5.45617 3.43318e-18 0.972448)
(4.38773 -1.84346e-18 0.842624)
(4.94133 -1.24333e-18 1.07498)
(3.79104 -3.29363e-18 0.916919)
(4.38576 -3.85621e-18 1.17973)
(3.15693 5.04534e-18 0.985837)
(3.7879 5.20495e-19 1.2821)
(2.48842 -9.34956e-19 1.04019)
(3.14569 1.25384e-17 1.37393)
(1.79218 -5.41965e-18 1.05912)
(2.45712 -1.28552e-17 1.43801)
(1.07363 -1.57496e-18 1.00059)
(1.6742 1.14046e-18 1.44023)
(1.02175 1.13235e-18 1.29701)
(9.99689 4.44919e-20 0.0468989)
(9.99326 2.13086e-20 0.0361998)
(9.97331 -1.86014e-19 0.0670671)
(9.9836 2.19269e-20 0.0635214)
(9.93295 -3.1425e-19 0.0857952)
(9.95566 -1.34811e-19 0.0861043)
(9.87855 1.02764e-19 0.105852)
(9.90903 -1.84271e-19 0.10943)
(9.81044 -1.35924e-20 0.12736)
(9.84769 1.89914e-19 0.1342)
(9.72861 -9.00303e-20 0.150437)
(9.7733 -2.94302e-19 0.160447)
(9.6329 9.89152e-20 0.175488)
(9.68583 5.0152e-19 0.188652)
(9.52295 -5.49694e-20 0.202949)
(9.58476 0 0.219364)
(9.39824 3.82995e-21 0.233231)
(9.46959 -1.60897e-19 0.253075)
(9.25809 5.4939e-20 0.266766)
(9.33983 -3.89055e-19 0.290282)
(9.10163 -4.61639e-19 0.304025)
(9.19483 9.73196e-19 0.331522)
(8.92791 5.84434e-20 0.345551)
(9.03376 -9.55114e-19 0.377382)
(8.73579 1.01992e-18 0.391966)
(8.85571 -4.94278e-19 0.428553)
(8.52397 -6.60104e-20 0.443924)
(8.65967 5.21187e-19 0.485824)
(8.29096 -4.90068e-19 0.502105)
(8.44439 4.82513e-19 0.549985)
(8.03519 1.35291e-18 0.567243)
(8.20853 1.11388e-18 0.62188)
(7.75492 -1.57573e-19 0.640139)
(7.95054 1.22251e-19 0.702438)
(7.44827 1.33076e-19 0.72154)
(7.66894 -1.07868e-18 0.792684)
(7.11306 4.20174e-19 0.811969)
(7.36206 1.15456e-18 0.893559)
(6.747 -8.11237e-19 0.911726)
(7.02759 9.73563e-19 1.00568)
(6.34778 5.58033e-19 1.02085)
(6.66325 -2.53258e-18 1.12948)
(5.91299 3.60749e-18 1.1389)
(6.26669 3.76374e-19 1.26509)
(5.44009 -2.11543e-19 1.26463)
(5.83515 3.93647e-18 1.41196)
(4.92633 -3.2871e-18 1.39576)
(5.36531 -4.1029e-18 1.56862)
(4.36853 0 1.52837)
(4.85306 -6.64069e-18 1.73225)
(3.76252 8.09256e-18 1.65606)
(4.29283 6.04266e-18 1.89814)
(3.10097 5.50806e-19 1.76849)
(3.6759 1.5819e-18 2.05891)
(2.36546 -6.35975e-18 1.85112)
(2.99082 -1.62216e-17 2.20353)
(1.50051 3.84634e-18 1.90835)
(2.18084 4.6375e-20 2.3277)
(1.3429 1.9052e-17 2.46076)
(9.99229 -1.30859e-21 0.0533327)
(9.9918 2.13133e-20 0.0395054)
(9.96891 6.9981e-20 0.0819655)
(9.98022 -1.0864e-19 0.073862)
(9.92936 -5.74256e-21 0.109016)
(9.95199 1.78542e-19 0.104261)
(9.8759 -9.00071e-20 0.137019)
(9.90628 -9.17738e-20 0.13489)
(9.80928 -9.98916e-20 0.166583)
(9.84637 0 0.167115)
(9.72949 3.11939e-19 0.198095)
(9.77365 -9.80734e-20 0.201308)
(9.63643 3.93606e-19 0.232117)
(9.68828 2.01336e-19 0.23804)
(9.52986 -1.08789e-19 0.269233)
(9.58994 4.12928e-19 0.277945)
(9.40941 -5.57844e-19 0.310016)
(9.47817 -4.22965e-19 0.321635)
(9.27458 5.52816e-19 0.355066)
(9.3526 -3.35856e-19 0.369745)
(9.1247 4.46921e-19 0.405033)
(9.21273 3.48901e-19 0.422962)
(8.95902 -1.50019e-18 0.460642)
(9.05796 -3.6103e-20 0.482021)
(8.77672 -9.76427e-19 0.522733)
(8.88749 -1.55195e-20 0.547756)
(8.57683 1.0691e-18 0.592227)
(8.7006 -1.00359e-18 0.62116)
(8.35824 2.09743e-18 0.670079)
(8.49641 5.63835e-21 0.703275)
(8.11969 -1.32616e-19 0.757309)
(8.27388 1.02823e-18 0.795193)
(7.85985 -8.18835e-19 0.855042)
(8.03184 -2.75616e-20 0.898087)
(7.57733 -2.15412e-20 0.96447)
(7.76911 2.98607e-19 1.01327)
(7.27035 1.70443e-18 1.08662)
(7.4846 -3.09276e-19 1.14217)
(6.93677 -7.97248e-19 1.22225)
(7.17644 2.61236e-18 1.28595)
(6.5742 -2.67348e-18 1.37182)
(6.84249 -2.71093e-18 1.4455)
(6.17988 7.54566e-19 1.53539)
(6.48039 -4.82978e-18 1.62148)
(5.75041 -5.38239e-20 1.71218)
(6.0871 5.68824e-18 1.81407)
(5.2813 -7.47404e-18 1.9004)
(5.65853 -3.29093e-20 2.02264)
(4.76628 -5.02622e-19 2.09687)
(5.18894 -5.8584e-18 2.24551)
(4.19591 -4.59424e-19 2.29685)
(4.67 6.83706e-18 2.47988)
(3.55488 -1.52058e-17 2.49432)
(4.08891 -7.26262e-18 2.72224)
(2.81593 -9.91107e-18 2.68253)
(3.42977 -9.60791e-18 2.96966)
(1.94947 1.5746e-17 2.89509)
(2.66036 -1.52305e-17 3.21776)
(1.68462 3.26137e-17 3.58862)
(9.98989 -8.84249e-20 0.0606312)
(9.99107 -6.34501e-19 0.0438318)
(9.96606 5.71889e-21 0.0964072)
(9.97834 2.15402e-19 0.0844117)
(9.92715 8.72638e-20 0.130686)
(9.94989 -2.65203e-19 0.122131)
(9.87467 0 0.165789)
(9.90509 0 0.159909)
(9.8094 0 0.202758)
(9.84665 5.61195e-19 0.199387)
(9.73139 -2.03247e-19 0.242235)
(9.77567 -3.84729e-19 0.241297)
(9.64055 2.24382e-19 0.284882)
(9.69243 -2.02116e-19 0.286292)
(9.53673 8.40218e-20 0.331373)
(9.59674 6.13194e-19 0.33508)
(9.41961 -1.99418e-19 0.382391)
(9.48816 1.01863e-19 0.388386)
(9.28879 -5.28093e-19 0.438657)
(9.36639 9.44511e-22 0.446957)
(9.14377 -1.40999e-19 0.50095)
(9.23103 -5.13156e-19 0.511597)
(8.98392 1.44957e-18 0.570125)
(9.08164 4.6556e-19 0.583185)
(8.80857 -5.84445e-20 0.64716)
(8.91752 9.75984e-19 0.662685)
(8.61703 -2.05119e-18 0.733162)
(8.73808 -1.99462e-18 0.751213)
(8.40848 -1.04805e-18 0.829306)
(8.54273 -2.07446e-18 0.850008)
(8.18201 1.1162e-18 0.936837)
(8.3307 2.14869e-18 0.960379)
(7.93664 1.09598e-18 1.05711)
(8.10115 1.2508e-18 1.08372)
(7.67136 1.39364e-21 1.19167)
(7.85315 -2.42755e-18 1.22155)
(7.38495 6.42216e-19 1.34203)
(7.58597 2.63161e-18 1.37568)
(7.07573 6.21913e-19 1.50951)
(7.29838 -4.88618e-18 1.54783)
(6.74157 -4.89225e-18 1.69518)
(6.98861 5.01782e-18 1.73949)
(6.37973 2.29886e-19 1.89988)
(6.65456 -6.13642e-18 1.95203)
(5.98657 5.64242e-18 2.12387)
(6.29329 4.93986e-18 2.18662)
(5.55692 1.51328e-18 2.36664)
(5.90067 7.08668e-18 2.44395)
(5.08305 1.57842e-18 2.62689)
(5.47063 -5.03167e-18 2.72415)
(4.55328 -4.04972e-20 2.90287)
(4.99425 1.55271e-18 3.02701)
(3.95079 -1.7118e-18 3.19381)
(4.45831 -8.44276e-19 3.35233)
(3.24816 -1.48616e-17 3.49403)
(3.84271 -1.19957e-17 3.70342)
(2.4554 3.54042e-18 3.84845)
(3.1722 -1.14673e-18 4.04625)
(2.08176 1.711e-17 4.62556)
(9.98869 -3.15528e-19 0.0683443)
(9.99077 7.15015e-19 0.0486709)
(9.96448 -6.50573e-20 0.110693)
(9.9774 -4.23271e-20 0.0951293)
(9.92636 -3.47366e-19 0.151956)
(9.94906 -1.1387e-21 0.139657)
(9.87517 5.71981e-19 0.194159)
(9.90539 -1.8018e-19 0.184332)
(9.81157 1.58922e-19 0.238558)
(9.84864 3.85436e-21 0.230865)
(9.73565 -3.80314e-19 0.28596)
(9.77972 -1.76722e-21 0.280256)
(9.64739 2.0131e-19 0.337095)
(9.69901 -5.9025e-19 0.333235)
(9.54666 6.22145e-19 0.392722)
(9.60635 -1.95633e-21 0.390589)
(9.4332 3.00684e-19 0.453624)
(9.50138 4.18293e-19 0.453153)
(9.30669 7.21595e-21 0.520625)
(9.38383 -1.08462e-19 0.521764)
(9.1667 1.10044e-19 0.594631)
(9.25341 1.1195e-19 0.597327)
(9.01276 0 0.676629)
(9.10977 0 0.680853)
(8.84428 -1.00909e-18 0.767717)
(8.95232 -1.16881e-19 0.773431)
(8.66071 -2.01916e-18 0.86914)
(8.78053 -2.88086e-18 0.876275)
(8.46148 1.18934e-18 0.982257)
(8.59402 -1.06322e-18 0.990753)
(8.24594 2.27036e-18 1.10852)
(8.39222 4.15191e-18 1.11836)
(8.01336 -2.32922e-18 1.24949)
(8.1746 2.5783e-21 1.26069)
(7.763 2.75599e-19 1.40697)
(7.94039 -4.50842e-18 1.41948)
(7.49404 -3.00149e-18 1.58291)
(7.68905 3.10772e-19 1.59679)
(7.2053 -3.6164e-19 1.7792)
(7.41987 -5.541e-19 1.79484)
(6.89509 3.63179e-18 1.99759)
(7.13153 5.0185e-18 2.01574)
(6.56098 -1.29356e-18 2.23979)
(6.82235 -6.78123e-19 2.26168)
(6.19954 6.39828e-18 2.50735)
(6.48984 0 2.53484)
(5.8058 4.53208e-19 2.80147)
(6.1303 -3.18689e-19 2.83738)
(5.37236 -5.0138e-18 3.12308)
(5.73826 -3.73532e-19 3.17137)
(4.88824 7.40183e-19 3.4728)
(5.30585 -1.11357e-17 3.53885)
(4.33901 -1.10776e-17 3.85324)
(4.82252 2.27312e-17 3.94093)
(3.69539 1.4139e-18 4.25374)
(4.25835 -2.36884e-17 4.38793)
(3.00038 1.32409e-17 4.71551)
(3.72176 1.22374e-17 4.7936)
(2.52838 5.18173e-19 5.55306)
(9.98816 9.74777e-19 0.0762655)
(9.99067 7.19401e-19 0.053737)
(9.9639 2.24198e-20 0.124824)
(9.97708 -1.15811e-18 0.105876)
(9.92672 1.6266e-19 0.172739)
(9.94919 -8.43547e-20 0.156763)
(9.87708 -7.45021e-19 0.221792)
(9.90687 1.80688e-19 0.20804)
(9.81547 -1.57067e-19 0.273349)
(9.85197 -1.11226e-18 0.261398)
(9.74202 -2.22274e-19 0.328347)
(9.78543 7.61305e-19 0.317998)
(9.65675 -7.83301e-19 0.387598)
(9.70766 -9.76598e-19 0.378651)
(9.55958 -1.9869e-19 0.451957)
(9.61846 1.96778e-19 0.444228)
(9.45029 0 0.522299)
(9.51755 -8.25509e-19 0.515659)
(9.32863 0 0.599543)
(9.40476 6.30609e-19 0.593855)
(9.19429 0 0.684707)
(9.27984 2.16805e-19 0.679807)
(9.04687 -1.18816e-19 0.778905)
(9.14258 0 0.774663)
(8.88585 -2.03319e-18 0.883335)
(8.99248 -1.16295e-19 0.879638)
(8.71082 -1.89668e-18 0.999336)
(8.82907 -1.94861e-18 0.996006)
(8.52139 1.98016e-18 1.12841)
(8.65211 -4.10525e-20 1.12522)
(8.31711 1.82141e-18 1.27219)
(8.46119 1.99557e-18 1.26894)
(8.09748 -2.24284e-18 1.43245)
(8.25602 1.95295e-18 1.42898)
(7.8619 -4.4055e-18 1.61119)
(8.03603 -4.33938e-18 1.60727)
(7.60983 2.74076e-18 1.81071)
(7.80078 -2.32179e-18 1.80609)
(7.34051 4.90477e-18 2.03342)
(7.54989 4.96814e-18 2.02803)
(7.0527 6.36964e-19 2.28182)
(7.28245 -4.67302e-18 2.27582)
(6.74453 6.23411e-19 2.55852)
(6.99736 5.37763e-18 2.55243)
(6.41319 -6.70309e-18 2.86622)
(6.69277 0 2.86104)
(6.05442 -1.16694e-18 3.20779)
(6.36573 4.00577e-18 3.20509)
(5.66203 -6.52104e-18 3.5862)
(6.01187 -1.55837e-17 3.58834)
(5.22711 1.08177e-17 4.0035)
(5.62476 -1.52815e-18 4.01457)
(4.73958 1.02254e-17 4.46367)
(5.19905 2.26331e-17 4.48418)
(4.16494 -1.32172e-17 4.9483)
(4.68692 -1.22178e-17 5.01764)
(3.56761 -9.10771e-19 5.48501)
(4.29959 -1.03602e-17 5.45982)
(3.01157 1.12101e-17 6.37379)
(9.98801 -1.44775e-18 0.0842261)
(9.99065 -4.70003e-21 0.0588683)
(9.96402 -1.2437e-18 0.138694)
(9.97719 5.93187e-19 0.11651)
(9.92796 -6.12156e-20 0.192914)
(9.95006 2.61177e-19 0.173376)
(9.88006 -2.10836e-19 0.248535)
(9.90927 -1.73992e-19 0.230947)
(9.82068 -1.5936e-19 0.306967)
(9.85642 -1.10528e-18 0.290868)
(9.75002 -2.42768e-20 0.369246)
(9.79255 3.76137e-19 0.354363)
(9.66814 2.43821e-20 0.436272)
(9.71806 3.82045e-19 0.422339)
(9.57497 -4.47674e-19 0.508986)
(9.63272 2.89354e-21 0.495762)
(9.47033 -1.704e-19 0.588338)
(9.53636 -4.15589e-19 0.575635)
(9.35407 8.40921e-19 0.675314)
(9.42883 9.44864e-21 0.662925)
(9.22599 2.13385e-19 0.771038)
(9.30999 8.63278e-19 0.758682)
(9.08579 6.93922e-22 0.876763)
(9.17967 8.78232e-21 0.864187)
(8.93305 -5.9761e-20 0.99378)
(9.03761 -7.85812e-19 0.980806)
(8.76743 -6.25012e-20 1.12348)
(8.88345 -1.75275e-19 1.10985)
(8.58866 4.17366e-21 1.26748)
(8.71693 -3.83499e-21 1.25285)
(8.39649 2.1255e-18 1.42759)
(8.53779 1.97348e-18 1.41158)
(8.19059 -2.29904e-19 1.60579)
(8.34593 8.5157e-20 1.58805)
(7.97056 -2.22874e-18 1.80428)
(8.14105 1.83542e-18 1.78441)
(7.73603 0 2.02564)
(7.9228 4.42421e-20 2.00315)
(7.48655 -4.7277e-18 2.27271)
(7.69104 -4.32522e-18 2.24717)
(7.22136 1.69313e-19 2.54866)
(7.44523 -4.6766e-18 2.51968)
(6.93924 4.70575e-18 2.857)
(7.18488 4.75002e-18 2.82438)
(6.63817 1.07214e-17 3.20152)
(6.90883 0 3.1654)
(6.31502 -1.04719e-17 3.58637)
(6.61502 1.09332e-17 3.54729)
(5.96512 -1.06019e-17 4.01597)
(6.30058 -2.09582e-17 3.97499)
(5.58136 1.03066e-17 4.49322)
(5.95997 1.98375e-17 4.4537)
(5.15868 3.28007e-19 5.02235)
(5.59494 -9.66385e-18 4.98132)
(4.65587 -9.37721e-18 5.57707)
(5.13188 9.5567e-18 5.59287)
(4.14565 3.64091e-18 6.16633)
(4.89555 -1.90968e-17 6.05419)
(3.52029 -7.51332e-18 7.10293)
(9.98809 2.04772e-18 0.0920968)
(9.99066 -4.0103e-20 0.0639642)
(9.96469 2.09227e-18 0.152194)
(9.97763 6.4316e-19 0.126896)
(9.92994 1.40043e-19 0.21239)
(9.95156 9.30231e-20 0.189404)
(9.88399 -1.0862e-18 0.274283)
(9.91246 1.76338e-19 0.252955)
(9.8271 -5.42737e-19 0.339289)
(9.86191 -9.157e-19 0.319144)
(9.75955 7.8277e-19 0.408506)
(9.80103 7.43821e-19 0.389192)
(9.68143 3.54176e-19 0.482926)
(9.73017 7.71633e-19 0.464107)
(9.59268 2.78776e-20 0.563574)
(9.64908 -3.96737e-19 0.544958)
(9.4932 -2.28429e-19 0.651459)
(9.55769 8.13173e-19 0.632811)
(9.38286 4.52461e-20 0.747616)
(9.45596 2.0429e-19 0.728669)
(9.26157 6.4526e-19 0.853248)
(9.34376 1.69228e-20 0.833637)
(9.12917 -7.90476e-19 0.969737)
(9.22092 1.53228e-18 0.949078)
(8.98544 -8.92577e-19 1.09849)
(9.08746 -4.55845e-18 1.07647)
(8.8301 -1.14095e-19 1.24095)
(8.94326 2.03552e-18 1.21726)
(8.66292 1.99487e-18 1.39882)
(8.78797 0 1.37303)
(8.48378 -9.26237e-20 1.57404)
(8.62153 1.96832e-18 1.54564)
(8.29258 2.17236e-18 1.7688)
(8.44393 -2.00695e-18 1.7372)
(8.08914 4.09305e-18 1.98552)
(8.2551 4.19506e-18 1.95013)
(7.87326 -4.33221e-18 2.227)
(8.05502 4.13429e-18 2.18715)
(7.64474 -4.28264e-18 2.49647)
(7.84364 -4.33005e-18 2.45139)
(7.4033 0 2.79763)
(7.6208 -4.29348e-18 2.74645)
(7.14839 0 3.13476)
(7.38649 6.66094e-20 3.07662)
(6.87881 2.9116e-19 3.51266)
(7.14036 -6.72743e-20 3.44691)
(6.59262 2.88419e-19 3.93654)
(6.8813 9.84799e-21 3.86284)
(6.28691 9.54545e-18 4.41173)
(6.60788 0 4.33021)
(5.9556 -5.38404e-20 4.94149)
(6.31505 1.83935e-17 4.8556)
(5.5978 -5.42637e-19 5.53039)
(6.01264 -2.71663e-17 5.43301)
(5.16598 3.65767e-19 6.14568)
(5.59511 1.86281e-17 6.11623)
(4.72857 -2.87335e-17 6.77624)
(5.50282 -1.43025e-18 6.58988)
(4.04814 -2.77299e-17 7.75901)
(9.98838 -1.43319e-18 0.0997698)
(9.99071 -1.24586e-18 0.0689396)
(9.96583 -1.36789e-18 0.165214)
(9.97833 -8.49096e-19 0.136912)
(9.9326 1.30859e-19 0.231066)
(9.95356 8.42762e-20 0.204753)
(9.88881 3.26825e-19 0.298917)
(9.91629 7.12154e-19 0.273963)
(9.83472 4.01369e-19 0.370163)
(9.86826 -3.65081e-19 0.34608)
(9.77062 7.33245e-19 0.445945)
(9.81065 7.48153e-19 0.422315)
(9.69662 2.93042e-22 0.527347)
(9.74371 -3.78627e-19 0.503767)
(9.61271 4.09183e-19 0.615469)
(9.66723 1.16352e-18 0.591601)
(9.51885 1.23636e-18 0.711367)
(9.58124 -3.87598e-19 0.686924)
(9.41499 1.73337e-19 0.816128)
(9.4858 4.2277e-19 0.790775)
(9.30106 9.27595e-19 0.931012)
(9.38077 -8.39064e-19 0.904339)
(9.17698 -2.32936e-18 1.05746)
(9.266 1.73866e-18 1.02901)
(9.04279 -1.53344e-18 1.19699)
(9.14172 -3.55768e-18 1.1663)
(8.89838 2.1222e-18 1.35119)
(9.00799 1.42806e-19 1.3178)
(8.74358 0 1.52181)
(8.86462 3.41313e-18 1.48522)
(8.57838 0 1.71088)
(8.71173 1.65867e-20 1.67047)
(8.40283 9.51957e-20 1.92072)
(8.54929 -1.88856e-18 1.87574)
(8.21705 4.2335e-18 2.15402)
(8.37749 -3.81756e-18 2.10362)
(8.02109 4.05253e-18 2.4138)
(8.1967 8.15319e-18 2.35707)
(7.81499 -4.3339e-18 2.70358)
(8.00704 9.42486e-20 2.63949)
(7.59881 -4.19506e-18 3.0275)
(7.80877 -4.23694e-18 2.95481)
(7.37267 -1.50486e-21 3.3905)
(7.60213 -1.23698e-19 3.30773)
(7.13634 -3.47948e-19 3.7982)
(7.38761 -8.18291e-18 3.70398)
(6.88889 -2.79117e-19 4.25677)
(7.1652 7.90617e-18 4.14998)
(6.62895 8.85245e-18 4.77247)
(6.93466 7.55267e-18 4.65233)
(6.35129 -8.54664e-18 5.34855)
(6.69101 8.4753e-18 5.21933)
(6.05719 -8.16132e-18 5.99057)
(6.45276 -2.48328e-17 5.84061)
(5.69476 1.72671e-17 6.66197)
(6.07927 6.67468e-18 6.59089)
(5.31501 -3.1271e-18 7.33395)
(6.11899 1.46652e-17 7.0818)
(4.59475 -1.64799e-17 8.36353)
(9.98878 -6.54629e-19 0.107161)
(9.99081 -1.15265e-18 0.0737418)
(9.96727 6.22206e-19 0.177667)
(9.97919 -1.68316e-19 0.146483)
(9.9357 6.77887e-19 0.248864)
(9.95585 1.78542e-19 0.219359)
(9.89421 0 0.322336)
(9.92057 -8.74733e-19 0.29391)
(9.84311 1.75553e-21 0.399449)
(9.87524 3.59105e-19 0.371583)
(9.78271 -3.84034e-19 0.48139)
(9.82112 3.20653e-21 0.453602)
(9.71314 8.11264e-19 0.569328)
(9.75833 -3.33724e-21 0.541159)
(9.63444 3.40987e-19 0.664426)
(9.68675 4.0336e-19 0.635492)
(9.54663 -1.18924e-18 0.767776)
(9.60655 -7.85923e-19 0.737736)
(9.44973 -6.10235e-19 0.880519)
(9.51781 -1.20023e-18 0.848969)
(9.34372 1.14184e-20 1.00397)
(9.42038 -2.08588e-19 0.970447)
(9.22861 4.32e-19 1.13958)
(9.31429 -2.02472e-19 1.1036)
(9.10453 -1.82655e-18 1.28895)
(9.19979 2.35594e-18 1.24992)
(8.9716 1.47711e-18 1.45376)
(9.07705 -5.49588e-18 1.41108)
(8.8299 3.38804e-18 1.6359)
(8.94617 5.40924e-18 1.58892)
(8.67948 -1.89686e-18 1.83745)
(8.8075 1.66164e-20 1.78547)
(8.52054 -5.82911e-18 2.06083)
(8.66109 -1.66387e-18 2.00296)
(8.35344 2.28972e-19 2.30889)
(8.50729 -7.66332e-18 2.24406)
(8.1786 4.11537e-18 2.58492)
(8.34679 7.48089e-18 2.51194)
(7.99638 1.56971e-19 2.89274)
(8.18006 3.33024e-20 2.81024)
(7.80719 -1.28477e-19 3.23679)
(8.00783 6.38915e-20 3.14324)
(7.61161 -8.35295e-18 3.6225)
(7.83068 -3.07049e-19 3.51596)
(7.4104 1.08232e-19 4.05629)
(7.6497 -8.13377e-18 3.93462)
(7.20371 1.57496e-17 4.54516)
(7.46603 7.73581e-18 4.40655)
(6.99129 7.19543e-18 5.09664)
(7.2806 1.45035e-17 4.93921)
(6.76874 -7.64213e-18 5.7143)
(7.08806 -8.55493e-18 5.54307)
(6.53752 -1.00858e-17 6.40586)
(6.91571 -1.40938e-17 6.20466)
(6.24505 4.06149e-18 7.13401)
(6.58958 5.57997e-18 7.01851)
(5.91001 -2.66847e-18 7.86118)
(6.74764 8.32803e-18 7.54534)
(5.16921 -8.25812e-18 8.94564)
(9.98928 -6.49089e-19 0.114216)
(9.99103 6.57382e-19 0.0783309)
(9.96891 -6.05458e-19 0.189488)
(9.98024 1.66273e-19 0.155557)
(9.93916 -1.39496e-18 0.265713)
(9.95842 6.78908e-19 0.233154)
(9.90014 -4.9295e-19 0.344458)
(9.92532 1.70335e-19 0.31271)
(9.85221 3.54308e-19 0.427046)
(9.88291 4.45808e-21 0.395563)
(9.79572 3.84068e-19 0.514716)
(9.83245 -7.2308e-19 0.482951)
(9.73081 -4.04721e-19 0.608716)
(9.77401 3.76268e-19 0.576159)
(9.65761 -7.43949e-19 0.710254)
(9.70756 -1.14182e-18 0.676472)
(9.5762 -8.03216e-19 0.820457)
(9.6334 7.75794e-19 0.785047)
(9.48667 -7.83326e-19 0.940514)
(9.55167 -1.19189e-18 0.903018)
(9.38905 -4.22565e-19 1.07178)
(9.4622 2.81737e-18 1.03169)
(9.28343 1.75943e-18 1.21574)
(9.36518 -1.6398e-18 1.1725)
(9.17002 -1.4228e-18 1.37396)
(9.26098 2.13704e-18 1.32696)
(9.04913 -1.41949e-18 1.54824)
(9.14976 -3.48712e-18 1.49674)
(8.92106 1.96702e-18 1.74057)
(9.0319 1.99407e-18 1.68374)
(8.78611 2.31193e-19 1.95312)
(8.90795 4.36404e-19 1.89013)
(8.64463 -3.56276e-18 2.18836)
(8.77823 3.13274e-18 2.11821)
(8.49717 -2.58377e-19 2.44924)
(8.64324 -6.8971e-18 2.37067)
(8.34445 3.32986e-18 2.73927)
(8.50392 3.65363e-18 2.65082)
(8.18731 -5.98396e-20 3.06254)
(8.36113 -3.71211e-18 2.96249)
(8.0267 -1.1705e-19 3.42378)
(8.21612 3.65164e-18 3.31022)
(7.86367 -1.15994e-19 3.82878)
(8.07011 1.13462e-19 3.69935)
(7.69965 -4.68792e-19 4.28462)
(7.92475 7.15052e-18 4.13646)
(7.53605 6.46896e-18 4.79917)
(7.78208 -7.96484e-18 4.62962)
(7.37351 -1.17947e-18 5.3815)
(7.64461 8.66476e-18 5.18746)
(7.20863 -1.49565e-17 6.03661)
(7.50637 -7.36363e-18 5.82286)
(7.04128 1.59009e-18 6.77674)
(7.40287 -6.7826e-18 6.52245)
(6.82438 9.82148e-18 7.56713)
(7.13519 8.32953e-18 7.39564)
(6.52978 6.41498e-19 8.38196)
(7.40076 -4.81626e-18 7.99211)
(5.79576 -4.54002e-18 9.5416)
(9.98996 1.46456e-18 0.120883)
(9.99136 1.23199e-18 0.0826302)
(9.97084 1.46136e-18 0.200624)
(9.9815 1.40817e-18 0.164085)
(9.94301 2.23573e-18 0.281538)
(9.96123 -1.60598e-19 0.246083)
(9.90667 6.65246e-19 0.365187)
(9.93045 1.21898e-18 0.330265)
(9.86214 -1.08651e-18 0.452857)
(9.89119 -2.02944e-21 0.41791)
(9.80974 -7.12395e-19 0.545825)
(9.84456 -3.63215e-19 0.510267)
(9.74968 -3.86339e-19 0.645396)
(9.79065 0 0.60867)
(9.68216 4.09759e-19 0.752808)
(9.72955 -3.84265e-19 0.714433)
(9.60737 3.56775e-19 0.869226)
(9.66165 1.5325e-18 0.828735)
(9.52545 2.47189e-18 0.995889)
(9.58709 -9.02538e-21 0.952761)
(9.43653 1.53633e-18 1.13418)
(9.5058 4.012e-18 1.08786)
(9.34079 -1.21055e-18 1.28559)
(9.41817 -4.44627e-18 1.23548)
(9.23853 -3.57255e-21 1.45169)
(9.32465 1.21745e-18 1.39712)
(9.13018 0 1.63427)
(9.22541 0 1.57441)
(9.01622 4.42131e-19 1.8354)
(9.12102 0 1.76931)
(8.89724 3.37186e-18 2.05734)
(9.01222 8.0919e-21 1.98402)
(8.77383 -3.01736e-19 2.30262)
(8.89961 3.345e-18 2.22092)
(8.64675 -2.88874e-18 2.57426)
(8.784 -3.59044e-18 2.48277)
(8.51705 -3.4579e-18 2.87585)
(8.66655 -2.02559e-19 2.77288)
(8.386 4.35889e-20 3.21165)
(8.54854 -3.23145e-18 3.09515)
(8.25518 3.87246e-18 3.58669)
(8.43168 3.66414e-18 3.45428)
(8.12641 7.40974e-18 4.00702)
(8.31798 -6.15643e-19 3.85584)
(8.00181 -3.40001e-19 4.48022)
(8.20999 7.17939e-18 4.3067)
(7.88394 -5.82469e-18 5.01513)
(8.11055 -1.31473e-17 4.81544)
(7.77462 2.54736e-18 5.62249)
(8.02416 7.22787e-18 5.39204)
(7.6722 8.40004e-19 6.31012)
(7.94518 7.99957e-18 6.05167)
(7.57378 0 7.09767)
(7.91597 -8.18383e-18 6.7854)
(7.44627 -6.34109e-18 7.95867)
(7.72884 0 7.709)
(7.20781 -8.98803e-18 8.91874)
(8.10098 -2.36177e-18 8.42016)
(6.52028 -7.88898e-18 10.1921)
(9.99073 1.17883e-18 0.127108)
(9.99171 -1.21288e-18 0.0866024)
(9.97296 -2.45296e-19 0.211029)
(9.98281 -1.5595e-18 0.172031)
(9.94714 -1.15235e-18 0.296282)
(9.9642 -6.80997e-19 0.25811)
(9.91359 5.29241e-19 0.384441)
(9.93588 -1.68285e-19 0.346522)
(9.87261 7.15639e-19 0.476781)
(9.89988 4.25912e-21 0.438552)
(9.82449 3.55964e-19 0.574604)
(9.85726 1.43058e-18 0.535448)
(9.76951 -4.11558e-21 0.679245)
(9.80809 -1.09045e-18 0.638563)
(9.7079 7.69531e-19 0.791966)
(9.75257 -7.4915e-19 0.749246)
(9.63991 1.14316e-18 0.913956)
(9.69115 2.26373e-18 0.868692)
(9.56577 1.59096e-18 1.04648)
(9.62393 3.85149e-19 0.998097)
(9.48576 -2.0953e-18 1.19097)
(9.55098 2.36592e-18 1.13882)
(9.40019 -1.94093e-18 1.34888)
(9.47294 -4.40999e-18 1.29234)
(9.30944 1.20626e-18 1.52178)
(9.39034 1.22324e-18 1.46013)
(9.21403 0 1.71146)
(9.30337 -2.03309e-18 1.6438)
(9.1146 -4.34692e-19 1.91998)
(9.2128 1.63973e-18 1.84531)
(9.01193 1.38611e-20 2.14964)
(9.11945 -4.3023e-19 2.06681)
(8.90696 -1.19735e-20 2.40303)
(9.02419 4.34987e-19 2.31073)
(8.80075 -8.70786e-19 2.68318)
(8.92828 2.91424e-18 2.57984)
(8.69469 5.64751e-21 2.9937)
(8.83308 -6.70984e-18 2.87739)
(8.59051 4.3005e-19 3.33885)
(8.74035 3.34939e-18 3.20729)
(8.49037 -8.51192e-19 3.72378)
(8.65228 0 3.57416)
(8.39697 -8.47058e-19 4.15478)
(8.57163 -2.94667e-20 3.98362)
(8.31353 -5.62666e-18 4.63964)
(8.502 7.75931e-19 4.44262)
(8.24387 -1.52791e-19 5.18814)
(8.44734 -1.16126e-17 4.95998)
(8.19176 1.27043e-17 5.8125)
(8.41464 1.13514e-17 5.54655)
(8.15901 -8.69762e-19 6.52435)
(8.40058 4.55244e-18 6.21888)
(8.14128 -8.23167e-18 7.35216)
(8.45331 -1.03141e-17 6.97593)
(8.12944 3.98445e-18 8.28741)
(8.38074 4.38614e-18 7.92833)
(8.00136 -1.40785e-18 9.48163)
(8.87913 -7.79521e-19 8.79144)
(7.4148 -5.81078e-18 10.935)
(9.99149 -3.95912e-18 0.132867)
(9.99204 -1.5278e-20 0.090257)
(9.97514 -1.97847e-18 0.220662)
(9.98412 -1.38713e-19 0.179362)
(9.95146 3.13336e-19 0.309889)
(9.96726 6.86701e-19 0.269178)
(9.92083 -6.90524e-19 0.402151)
(9.9415 4.59138e-19 0.361427)
(9.88354 7.44263e-19 0.498734)
(9.90889 -1.00997e-18 0.457417)
(9.83991 -5.86991e-20 0.600946)
(9.87043 -5.8431e-19 0.558399)
(9.79022 -1.83084e-18 0.710149)
(9.82614 -4.32688e-19 0.665742)
(9.73473 7.92761e-19 0.827624)
(9.77634 -7.60006e-19 0.780816)
(9.67373 1.4773e-18 0.954563)
(9.72158 8.25789e-19 0.904823)
(9.60755 1.18894e-18 1.09223)
(9.66195 -3.6166e-19 1.03894)
(9.5366 -4.29902e-20 1.24204)
(9.59758 1.56208e-18 1.18452)
(9.46134 -1.16876e-18 1.40549)
(9.52931 2.63815e-19 1.34301)
(9.38229 -2.06075e-18 1.58411)
(9.45782 -1.48736e-18 1.51591)
(9.30005 -3.50161e-19 1.77967)
(9.38337 -1.69694e-18 1.70481)
(9.21537 1.62331e-18 1.99418)
(9.30684 1.52023e-19 1.91162)
(9.12923 0 2.22991)
(9.22926 1.52838e-18 2.13843)
(9.04287 3.38768e-18 2.48944)
(9.15167 -3.07309e-18 2.38756)
(8.95773 -3.00129e-18 2.77575)
(9.07571 6.49969e-18 2.66175)
(8.87557 -3.3085e-18 3.09237)
(9.00305 -4.11924e-18 2.96415)
(8.79859 2.90752e-18 3.44348)
(8.93596 -3.07948e-18 3.29854)
(8.72959 8.24229e-19 3.83408)
(8.87709 2.66103e-20 3.66929)
(8.67203 1.59967e-18 4.2704)
(8.82998 8.79642e-19 4.08182)
(8.63048 -5.19233e-18 4.76013)
(8.79911 5.70008e-18 4.54265)
(8.61059 -2.15489e-19 5.31337)
(8.78996 -3.55779e-18 5.06023)
(8.6189 3.2088e-18 5.9428)
(8.81222 8.45424e-19 5.64509)
(8.66315 -4.76032e-18 6.66333)
(8.86707 -1.54229e-18 6.31268)
(8.74327 2.35007e-18 7.5087)
(9.00776 -2.14851e-18 7.06855)
(8.88561 -3.90346e-19 8.49729)
(9.08742 4.50369e-18 8.00064)
(8.99434 -5.33309e-18 10.0543)
(9.829 -4.63841e-18 8.95917)
(9.58758 -1.78608e-19 11.6911)
(0.145231 8.98761e-21 -0.0814081)
(0.0788076 -2.12644e-20 -0.118773)
(0.33618 -4.96651e-20 -0.0859096)
(0.23683 4.29935e-20 -0.144829)
(0.52165 -4.09742e-20 -0.0703161)
(0.420516 -7.36724e-20 -0.123554)
(0.686135 3.41539e-20 -0.0540745)
(0.599995 3.33177e-20 -0.098694)
(0.828524 -2.45851e-20 -0.041835)
(0.761162 -2.75126e-20 -0.0796685)
(0.952536 6.71679e-22 -0.0336972)
(0.902476 -2.48076e-20 -0.0670649)
(1.06326 2.47323e-20 -0.0286275)
(1.02815 -3.17939e-20 -0.0596365)
(1.16497 0 -0.0254467)
(1.14293 4.57782e-20 -0.0555995)
(1.2602 0 -0.0231684)
(1.24968 0 -0.0532525)
(1.34988 0 -0.0210798)
(1.35029 -1.43375e-20 -0.0513381)
(1.43377 0 -0.0187387)
(1.44575 1.92322e-20 -0.0490479)
(1.51106 4.25743e-21 -0.015922)
(1.5358 -1.71717e-20 -0.0459741)
(1.58068 8.22329e-21 -0.0125449)
(1.62002 1.70621e-20 -0.0419561)
(1.6414 3.98123e-21 -0.00866694)
(1.69787 7.74485e-21 -0.0369104)
(1.69211 3.43508e-21 -0.00456975)
(1.76849 6.98807e-21 -0.0309382)
(1.73226 6.63505e-21 -0.000702843)
(1.83096 -1.00262e-20 -0.0244573)
(1.76205 2.70765e-22 0.00250371)
(1.88457 6.40822e-21 -0.0179937)
(1.7824 -2.95762e-21 0.00475635)
(1.92914 9.43879e-23 -0.0120139)
(1.79491 -5.86905e-22 0.00595359)
(1.96483 1.90395e-22 -0.0070096)
(1.80172 -5.42471e-22 0.00622446)
(1.99274 1.8737e-21 -0.00336312)
(1.80504 5.69342e-22 0.00583188)
(2.01485 -9.63789e-22 -0.00111551)
(1.80683 2.24625e-21 0.00502945)
(2.03308 1.52099e-21 -0.000120002)
(1.80864 1.73956e-21 0.00402217)
(2.04938 8.48033e-22 -0.000112459)
(1.81148 0 0.00294643)
(2.06504 -3.62776e-21 -0.000730591)
(1.81591 0 0.00185852)
(2.08061 2.37788e-21 -0.00168658)
(1.82211 0 0.000786549)
(2.09626 0 -0.00275879)
(1.82996 -5.12604e-22 -0.000210225)
(2.11171 -1.26869e-21 -0.00373953)
(1.83908 -5.23349e-22 -0.00104532)
(2.12651 -1.2847e-22 -0.00446359)
(1.84898 -1.13353e-22 -0.00173287)
(2.14039 4.97796e-22 -0.00486736)
(2.15556 -1.59721e-23 -0.00523359)
(0.139213 9.11712e-21 -0.200463)
(0.0531866 -3.28761e-19 -0.246781)
(0.320904 2.16724e-20 -0.206437)
(0.203836 2.5214e-20 -0.281104)
(0.508208 0 -0.174294)
(0.383694 1.39581e-19 -0.244183)
(0.682531 -2.68682e-20 -0.141482)
(0.558149 0 -0.199833)
(0.839279 -2.77178e-20 -0.117149)
(0.717596 6.58156e-22 -0.165187)
(0.98004 -5.70415e-20 -0.101586)
(0.860339 0 -0.142192)