/*--------------------------------*- C++ -*----------------------------------*\
| =========                 |                                                 |
| \\      /  F ield         | OpenFOAM: The Open Source CFD Toolbox           |
|  \\    /   O peration     | Version:  dev                                   |
|   \\  /    A nd           | Web:      www.OpenFOAM.org                      |
|    \\/     M anipulation  |                                                 |
\*---------------------------------------------------------------------------*/
FoamFile
{
    version     2.0;
    format      ascii;
    class       surfaceVectorField;
    location    "5";
    object      Uf;
}
// * * * * * * * * * * * * * * * * * * * * * * * * * * * * * * * * * * * * * //

dimensions      [0 1 -1 0 0 0 0];

internalField   nonuniform List<vector> 
5457
(
(9.91342 1.17035e-20 0.0219469)
(9.96521 -1.75897e-21 0.0367962)
(9.81988 6.88779e-23 0.027591)
(9.92809 4.13094e-21 0.0410594)
(9.71649 6.34929e-21 0.0320464)
(9.8676 -9.47793e-21 0.0471316)
(9.60081 -4.71573e-22 0.0366556)
(9.78678 2.69424e-20 0.0547514)
(9.47267 -1.51581e-21 0.0414334)
(9.69168 1.91181e-21 0.0629355)
(9.33213 -8.6846e-21 0.0464178)
(9.58399 -3.78944e-21 0.0715852)
(9.17892 -1.21007e-20 0.0517384)
(9.46308 -3.69101e-20 0.0808968)
(9.01244 -9.22994e-21 0.057528)
(9.32809 -8.7267e-21 0.091084)
(8.83187 6.60858e-22 0.0639016)
(9.17833 -1.83267e-20 0.102325)
(8.63629 2.18784e-20 0.0709733)
(9.01301 4.66934e-20 0.114782)
(8.42456 -2.21885e-20 0.0788741)
(8.83116 4.46189e-20 0.128645)
(8.19541 -1.12025e-20 0.0877492)
(8.63161 -1.13587e-19 0.144145)
(7.94737 2.12604e-20 0.0977517)
(8.41308 6.44884e-20 0.161515)
(7.67887 3.05294e-21 0.109049)
(8.17408 0 0.180997)
(7.3882 -2.29561e-20 0.121825)
(7.91296 -9.57746e-20 0.202856)
(7.07355 5.62279e-20 0.136276)
(7.62802 7.35125e-20 0.227366)
(6.73303 2.23161e-20 0.152621)
(7.31729 6.68706e-20 0.254792)
(6.36469 -5.45156e-20 0.171118)
(6.9788 -1.94025e-19 0.285429)
(5.96655 1.56965e-20 0.192005)
(6.61075 -1.18837e-19 0.319571)
(5.53678 8.18363e-20 0.215457)
(6.21101 2.11062e-19 0.357354)
(5.07386 1.33499e-19 0.241595)
(5.77759 -1.91941e-19 0.398734)
(4.57677 6.67282e-20 0.270524)
(5.3088 1.34441e-19 0.443475)
(4.04511 0 0.302293)
(4.80355 6.98819e-20 0.491156)
(3.47918 3.95062e-20 0.336747)
(4.26153 0 0.541012)
(2.8804 -1.26097e-19 0.373435)
(3.68253 -6.12088e-19 0.591514)
(2.25193 4.34891e-21 0.411493)
(3.06748 9.43641e-19 0.640142)
(1.59927 7.99558e-20 0.448552)
(2.41886 1.72541e-19 0.682832)
(0.932191 -8.54819e-20 0.469589)
(1.74122 -6.69357e-19 0.711451)
(0.266233 1.86108e-19 0.214737)
(1.013 0 0.701793)
(0.382112 2.13893e-19 0.293379)
(10.0036 -9.00193e-21 0.0437552)
(9.99582 -6.52673e-20 0.0352517)
(9.97624 -5.70669e-21 0.0566074)
(9.98741 -4.77956e-20 0.0530331)
(9.93275 1.18199e-20 0.067481)
(9.9589 -3.45045e-21 0.0669135)
(9.87456 2.8851e-20 0.0792233)
(9.91028 1.44566e-20 0.0822496)
(9.8015 -4.8441e-22 0.0918246)
(9.84645 -7.38414e-21 0.0987767)
(9.71356 -3.26612e-20 0.105305)
(9.76929 3.9166e-20 0.116338)
(9.61055 -3.3008e-20 0.119931)
(9.67839 -2.45895e-20 0.135248)
(9.49201 -1.79827e-20 0.135997)
(9.57304 -1.725e-20 0.155908)
(9.35725 2.89029e-20 0.15377)
(9.45264 -1.81983e-20 0.178667)
(9.20544 6.93978e-20 0.173519)
(9.31656 6.55694e-20 0.203858)
(9.03554 -4.95737e-20 0.19556)
(9.16392 7.69298e-20 0.231877)
(8.84635 -3.47751e-20 0.220237)
(8.99368 -1.56045e-19 0.263178)
(8.63648 4.21278e-20 0.247908)
(8.8047 4.28645e-20 0.298228)
(8.40443 -1.00458e-19 0.278959)
(8.59561 0 0.337529)
(8.1485 3.55583e-21 0.313804)
(8.3649 -9.88022e-20 0.381633)
(7.86686 8.40609e-20 0.352867)
(8.11095 -1.12765e-19 0.431138)
(7.55753 -1.53742e-19 0.396563)
(7.83189 2.05772e-19 0.486633)
(7.21848 -2.57164e-19 0.445335)
(7.52569 -3.58027e-19 0.548703)
(6.84766 8.14095e-20 0.499555)
(7.19053 3.09632e-19 0.617977)
(6.44291 -6.90004e-20 0.559383)
(6.8242 -4.95284e-19 0.694933)
(6.00214 -1.86488e-19 0.62469)
(6.42432 2.40321e-19 0.779718)
(5.52358 1.36656e-19 0.695045)
(5.98857 4.02018e-22 0.872069)
(5.00599 6.89516e-20 0.769673)
(5.51477 -6.78665e-20 0.971268)
(4.4486 -6.59746e-19 0.847098)
(5.0013 0 1.07605)
(3.85109 4.68482e-19 0.924623)
(4.44605 -5.03582e-19 1.18393)
(3.21407 1.10782e-18 0.99772)
(3.84667 2.49799e-18 1.29041)
(2.53958 -5.69338e-19 1.05789)
(3.20051 1.94122e-20 1.38786)
(1.83179 -5.80606e-19 1.08606)
(2.50463 -4.05783e-19 1.46057)
(1.08877 -2.23172e-22 1.04041)
(1.71169 -2.43433e-18 1.47788)
(1.03241 1.07138e-18 1.35694)
(9.9965 -1.03696e-19 0.0470992)
(9.99353 4.75202e-20 0.0367539)
(9.97288 -4.46554e-20 0.0666074)
(9.98267 9.86645e-21 0.0634326)
(9.93307 -4.92396e-22 0.084574)
(9.95532 1.37881e-20 0.0851041)
(9.87978 -2.21914e-20 0.103936)
(9.90964 -2.14135e-20 0.107531)
(9.8132 3.31599e-20 0.124859)
(9.84948 -1.49407e-20 0.131548)
(9.73323 4.6048e-20 0.147402)
(9.77678 1.56792e-20 0.157161)
(9.63968 -8.67811e-21 0.171925)
(9.69134 3.25553e-20 0.184743)
(9.53218 -1.74651e-20 0.198858)
(9.59255 7.67416e-20 0.214836)
(9.41019 1.99885e-20 0.228611)
(9.47995 -2.65729e-20 0.247928)
(9.27303 7.32693e-20 0.261627)
(9.35303 1.1242e-19 0.284503)
(9.11982 -3.36749e-20 0.298429)
(9.21105 -1.31835e-20 0.325148)
(8.94951 -7.49617e-20 0.339579)
(9.05322 -8.13783e-20 0.370512)
(8.76094 0 0.385675)
(8.87862 -1.71677e-19 0.421271)
(8.55278 0 0.437373)
(8.68611 1.77242e-19 0.478167)
(8.32354 -2.15312e-19 0.49539)
(8.47446 1.88432e-19 0.542022)
(8.07159 1.41028e-20 0.560481)
(8.2423 -3.93956e-19 0.613737)
(7.79509 -7.76128e-21 0.6334)
(7.98813 1.93288e-19 0.694254)
(7.49206 2.19157e-19 0.714921)
(7.71016 -1.92592e-19 0.784518)
(7.1604 -2.79589e-19 0.805772)
(7.40666 4.56776e-19 0.885533)
(6.79782 -1.75869e-19 0.906437)
(7.07563 -1.16653e-18 0.99822)
(6.40178 4.23821e-19 1.01699)
(6.71463 4.89533e-19 1.12317)
(5.96961 -2.03979e-19 1.13699)
(6.32105 -1.85669e-19 1.26051)
(5.4986 -1.35434e-19 1.26541)
(5.89183 -4.68914e-19 1.40974)
(4.98588 1.49506e-19 1.40031)
(5.42375 0 1.56975)
(4.42783 1.54982e-18 1.53814)
(4.91246 1.45614e-19 1.73818)
(3.81946 1.39904e-18 1.67301)
(4.35167 1.38867e-18 1.9107)
(3.15257 1.88292e-19 1.79568)
(3.7321 1.28807e-20 2.08073)
(2.40793 -2.25159e-18 1.89303)
(3.04146 2.51497e-18 2.2387)
(1.53317 -1.35663e-18 1.9744)
(2.2272 -2.56123e-18 2.37926)
(1.37902 -1.17166e-18 2.5379)
(9.99192 1.60482e-19 0.0535921)
(9.99209 5.41107e-20 0.040203)
(9.96852 6.83246e-20 0.0813283)
(9.97929 3.54501e-21 0.0737423)
(9.92953 -7.79082e-21 0.107334)
(9.95175 -6.15312e-20 0.102941)
(9.87715 -1.40134e-20 0.13439)
(9.90697 -2.86772e-20 0.1324)
(9.812 -3.18197e-20 0.163154)
(9.8481 8.92484e-20 0.163651)
(9.73403 2.51672e-21 0.193936)
(9.77704 -3.12326e-20 0.197002)
(9.6431 1.18786e-19 0.227245)
(9.69371 7.9705e-23 0.232907)
(9.53893 6.57561e-20 0.263656)
(9.59761 1.19488e-19 0.272007)
(9.42112 6.83209e-20 0.303729)
(9.48841 -1.77044e-19 0.314904)
(9.28916 2.36951e-20 0.348077)
(9.36565 1.57792e-19 0.362208)
(9.14238 -6.2134e-20 0.39741)
(9.22869 -7.73203e-20 0.41465)
(8.97999 -1.79634e-19 0.452492)
(9.077 -5.09686e-21 0.473041)
(8.80111 1.15044e-20 0.514139)
(8.90987 9.11234e-21 0.53823)
(8.60473 3.65932e-19 0.583249)
(8.72642 1.58069e-21 0.611156)
(8.38971 2.14112e-22 0.660815)
(8.52573 1.88516e-19 0.692862)
(8.15482 -2.0522e-19 0.74791)
(8.30676 -1.94269e-19 0.784492)
(7.89865 2.19674e-21 0.845658)
(8.06839 4.08398e-19 0.887289)
(7.6196 5.5208e-20 0.955236)
(7.80929 -8.21183e-19 1.00257)
(7.3159 -4.55017e-19 1.07782)
(7.52808 7.6365e-20 1.13173)
(6.98552 -4.77562e-19 1.2144)
(7.22317 4.50828e-19 1.27615)
(6.62603 -1.30257e-19 1.36562)
(6.89242 -6.44883e-22 1.43699)
(6.23447 -4.53379e-19 1.53159)
(6.53336 -5.08056e-19 1.61506)
(5.80722 -3.2793e-19 1.71179)
(6.1427 1.63067e-18 1.81062)
(5.33967 -1.74475e-21 1.90487)
(5.71631 -1.21293e-18 2.02344)
(4.8253 -1.71426e-21 2.10816)
(5.2484 -4.0684e-21 2.25244)
(4.25412 0 2.31767)
(4.73017 0 2.49535)
(3.61038 2.33932e-18 2.52857)
(4.14846 -2.35852e-18 2.74941)
(2.86608 2.22922e-18 2.73421)
(3.48553 4.70328e-18 3.01315)
(1.99622 -2.4101e-18 2.97412)
(2.719 -2.5169e-18 3.27682)
(1.74263 -6.70028e-20 3.6786)
(9.98952 -1.03842e-19 0.060937)
(9.99132 -3.80873e-20 0.0446711)
(9.96572 -1.27701e-19 0.0955835)
(9.97739 -1.0474e-19 0.0842372)
(9.92741 -8.17689e-20 0.128556)
(9.94976 -8.19724e-20 0.120476)
(9.87593 7.68473e-20 0.162475)
(9.90584 -1.43893e-20 0.156863)
(9.81205 8.75753e-20 0.198419)
(9.84832 2.98385e-20 0.195153)
(9.73583 -3.31001e-20 0.236951)
(9.77898 6.18707e-20 0.235983)
(9.64712 2.91568e-21 0.278683)
(9.69777 -6.47812e-20 0.27994)
(9.54572 -1.28734e-19 0.324285)
(9.60428 3.42134e-20 0.327728)
(9.43128 -8.16802e-20 0.374425)
(9.49828 -1.95119e-19 0.380054)
(9.30332 5.26566e-20 0.429835)
(9.37933 1.4681e-19 0.43767)
(9.16128 -1.90376e-20 0.491338)
(9.24685 -1.73887e-19 0.501414)
(9.00459 1.83946e-19 0.559831)
(9.10043 1.59501e-19 0.572189)
(8.83257 -8.41868e-22 0.636293)
(8.93955 1.70466e-19 0.650984)
(8.64446 -1.7292e-19 0.721807)
(8.76354 5.98574e-21 0.738918)
(8.43941 -1.22649e-20 0.817566)
(8.57168 -1.84627e-19 0.837215)
(8.2165 4.29025e-19 0.924876)
(8.36317 -3.8535e-19 0.947207)
(7.97474 -4.33863e-19 1.04516)
(8.13721 8.55679e-19 1.07037)
(7.71297 -7.86887e-19 1.17996)
(7.89285 -8.48509e-19 1.20833)
(7.42985 9.87083e-19 1.33087)
(7.62915 4.7594e-20 1.36286)
(7.12381 9.21805e-19 1.49942)
(7.3449 9.26599e-19 1.53578)
(6.79273 -3.85262e-19 1.68692)
(7.03838 9.00269e-19 1.72886)
(6.43385 1.5995e-18 1.89437)
(6.70751 5.86467e-19 1.94373)
(6.04335 7.181e-19 2.12236)
(6.34925 9.37005e-19 2.18172)
(5.61587 -1.2033e-18 2.37092)
(5.95942 -3.42167e-20 2.444)
(5.1437 -2.14487e-21 2.63932)
(5.53194 -1.38594e-19 2.73132)
(4.61494 -2.35899e-18 2.92646)
(5.05756 0 3.04403)
(4.01241 -6.55567e-21 3.23274)
(4.52316 -9.97215e-20 3.38254)
(3.30656 4.63005e-20 3.5516)
(3.90459 1.07417e-19 3.75251)
(2.51367 1.19124e-19 3.93335)
(3.24379 -2.33271e-18 4.10921)
(2.15993 2.22942e-18 4.72336)
(9.98827 -4.03941e-20 0.0686881)
(9.99096 1.06936e-19 0.0496708)
(9.96417 -5.86173e-20 0.109661)
(9.97649 7.19278e-20 0.0948648)
(9.92668 -1.32639e-20 0.149383)
(9.94901 2.73465e-20 0.13765)
(9.87644 -6.05931e-20 0.190196)
(9.90615 8.50769e-20 0.18076)
(9.81416 4.71995e-21 0.233342)
(9.85027 -1.48012e-19 0.225893)
(9.74 2.78684e-20 0.279573)
(9.78299 -6.17486e-20 0.273954)
(9.65383 -3.16999e-20 0.329592)
(9.70425 6.43646e-20 0.325687)
(9.55547 -3.62795e-20 0.384135)
(9.61375 -1.00716e-19 0.381849)
(9.44467 3.94588e-20 0.443987)
(9.51131 -1.76622e-19 0.443237)
(9.32101 -8.52689e-20 0.51)
(9.39651 2.5493e-19 0.510741)
(9.18398 1.0338e-20 0.583093)
(9.26891 -1.38318e-21 0.5853)
(9.03314 1.46233e-19 0.664262)
(9.12822 1.51373e-21 0.667879)
(8.86796 1.74516e-19 0.754633)
(8.97398 1.01718e-20 0.75958)
(8.68786 -8.67978e-21 0.855461)
(8.80567 1.65745e-19 0.861687)
(8.49216 -5.61042e-19 0.968106)
(8.62274 -1.81928e-19 0.975578)
(8.28018 6.02877e-20 1.09406)
(8.42455 -3.67683e-19 1.10273)
(8.05122 4.15313e-19 1.235)
(8.21053 3.72652e-19 1.24482)
(7.80448 -5.2244e-22 1.39278)
(7.97998 4.12337e-19 1.4037)
(7.53905 -5.07821e-22 1.56939)
(7.73234 -1.3889e-18 1.58148)
(7.25369 9.04445e-19 1.76687)
(7.4668 1.77299e-18 1.78044)
(6.94675 1.86972e-18 1.98726)
(7.18198 3.64266e-20 2.00293)
(6.61591 -7.04493e-20 2.2325)
(6.87631 1.56833e-20 2.25135)
(6.25773 1.7078e-19 2.5045)
(6.54722 -4.39601e-20 2.52817)
(5.86707 1.02969e-18 2.80511)
(6.19126 1.17472e-18 2.83614)
(5.4365 -1.35441e-19 3.13581)
(5.80293 -1.35949e-19 3.17798)
(4.95501 2.24301e-18 3.49777)
(5.37383 -1.30038e-19 3.55625)
(4.40819 1.93237e-20 3.89467)
(4.89431 2.23553e-18 3.97239)
(3.76303 -2.24793e-18 4.31457)
(4.32751 -2.23688e-18 4.44065)
(3.07043 1.77526e-19 4.80358)
(3.8072 -6.3749e-20 4.85763)
(2.62629 2.21986e-19 5.65539)
(9.98775 2.18564e-19 0.0766389)
(9.99091 1.73678e-22 0.0548865)
(9.96363 1.56891e-19 0.123568)
(9.97628 1.17648e-19 0.105507)
(9.92707 1.26849e-19 0.169727)
(9.94915 -6.73401e-20 0.154414)
(9.87836 -6.79132e-21 0.2172)
(9.90755 2.85656e-20 0.203953)
(9.81805 -2.12899e-19 0.26728)
(9.85361 -2.96489e-20 0.255701)
(9.74631 -2.29198e-20 0.320883)
(9.7887 -1.84959e-19 0.310734)
(9.66308 -7.64749e-21 0.378819)
(9.71283 1.60759e-19 0.369938)
(9.56821 -2.42422e-19 0.441903)
(9.6258 -1.34166e-19 0.434139)
(9.46149 4.63868e-20 0.511021)
(9.5274 -2.11208e-19 0.504217)
(9.34259 3.34591e-19 0.587136)
(9.41724 3.25856e-19 0.581155)
(9.21116 -1.00809e-20 0.671254)
(9.29508 1.54368e-21 0.665973)
(9.06682 -1.34555e-19 0.764459)
(9.16073 -1.69315e-21 0.759722)
(8.90917 3.87843e-21 0.868003)
(9.01377 1.29638e-22 0.863615)
(8.73772 -1.30876e-20 0.98329)
(8.85384 -3.70768e-19 0.979069)
(8.55195 8.74595e-21 1.11182)
(8.68056 3.568e-19 1.10761)
(8.35132 -4.40733e-20 1.25524)
(8.4934 -3.73143e-19 1.25084)
(8.13534 3.69985e-19 1.4154)
(8.29192 7.58829e-19 1.41059)
(7.9035 -1.00082e-18 1.59441)
(8.07568 1.40553e-20 1.5889)
(7.65524 4.25209e-19 1.79467)
(7.8443 -1.33695e-18 1.78813)
(7.38968 8.85908e-19 2.01871)
(7.59735 1.77392e-18 2.01106)
(7.10557 -1.81606e-18 2.26925)
(7.33398 -1.75523e-18 2.26059)
(6.80109 3.65339e-20 2.54912)
(7.05296 -9.58545e-19 2.53983)
(6.47361 9.70224e-19 2.86153)
(6.75237 2.57664e-20 2.85223)
(6.11904 0 3.20999)
(6.42972 8.4757e-19 3.20189)
(5.73099 -1.30237e-19 3.59809)
(6.08079 0 3.59337)
(5.30028 -1.29885e-19 4.02838)
(5.69857 -1.93813e-18 4.0311)
(4.81755 0 4.5058)
(5.27921 2.00496e-18 4.51516)
(4.24339 -7.94194e-20 5.01062)
(4.76474 -1.90422e-18 5.07225)
(3.65075 -4.00879e-21 5.57476)
(4.40005 1.93356e-18 5.52276)
(3.1289 2.17901e-21 6.47827)
(9.98769 -9.86726e-20 0.0846167)
(9.991 -1.06771e-19 0.0601308)
(9.9638 -1.10448e-19 0.137224)
(9.97652 6.47176e-21 0.116052)
(9.92826 -1.63794e-19 0.189477)
(9.94999 -2.72529e-20 0.170727)
(9.88129 4.60909e-21 0.243314)
(9.90982 -2.85174e-20 0.22635)
(9.82324 -4.55718e-21 0.30005)
(9.85802 1.17709e-19 0.28443)
(9.75429 5.07303e-21 0.36072)
(9.79579 -1.22228e-19 0.34614)
(9.67445 2.89377e-20 0.426236)
(9.72317 1.91216e-19 0.412463)
(9.58361 -1.04218e-19 0.497499)
(9.64003 -1.65398e-19 0.484317)
(9.48153 7.75552e-20 0.575478)
(9.54617 -1.04758e-19 0.56268)
(9.36796 -1.2739e-20 0.661199)
(9.44123 2.8822e-19 0.648592)
(9.24269 9.79497e-21 0.755738)
(9.32512 -2.63461e-19 0.743106)
(9.10546 1.33201e-19 0.860276)
(9.19771 1.56685e-19 0.847364)
(8.95598 -3.80512e-19 0.976187)
(9.05868 3.05194e-19 0.962685)
(8.79392 1.01516e-20 1.10501)
(8.90779 -6.68983e-19 1.09059)
(8.61891 -3.58886e-20 1.24839)
(8.74491 1.76692e-21 1.23276)
(8.43054 4.45906e-19 1.40809)
(8.56967 -1.72395e-20 1.39094)
(8.22846 3.93297e-19 1.58614)
(8.38168 7.96964e-19 1.56707)
(8.01232 -3.40516e-19 1.78481)
(8.18077 3.77703e-19 1.76338)
(7.78182 5.1743e-20 2.00685)
(7.96659 -7.55345e-19 1.98243)
(7.53656 -9.09041e-19 2.25533)
(7.73905 0 2.22736)
(7.27574 -8.91733e-19 2.53353)
(7.49793 -1.7686e-18 2.50164)
(6.99806 -9.602e-19 2.84514)
(7.2424 -4.79903e-20 2.80906)
(6.70158 -9.60195e-20 3.19442)
(6.97128 -8.9827e-20 3.15397)
(6.38361 8.43454e-19 3.58625)
(6.68272 9.13742e-19 3.54148)
(6.03965 -1.80874e-18 4.02579)
(6.37427 -1.84684e-18 3.97744)
(5.66201 1.63193e-19 4.5164)
(6.04046 -1.86418e-18 4.46802)
(5.24659 1.28326e-19 5.06336)
(5.68468 1.99737e-18 5.00999)
(4.74662 -2.23286e-19 5.63932)
(5.2197 -1.95288e-18 5.64756)
(4.24326 1.81698e-18 6.2561)
(5.01219 3.72703e-18 6.11432)
(3.65663 -2.10678e-18 7.2072)
(9.98786 5.40285e-22 0.0924956)
(9.99113 -1.05607e-19 0.065303)
(9.9645 8.90207e-20 0.150544)
(9.97705 6.47494e-21 0.126373)
(9.93017 1.08037e-19 0.208561)
(9.95144 1.8828e-19 0.186502)
(9.88511 8.7401e-20 0.268438)
(9.91292 2.80709e-20 0.247867)
(9.82958 -4.44213e-21 0.331519)
(9.86346 5.87721e-20 0.311959)
(9.76375 6.96388e-20 0.398919)
(9.80417 -6.06702e-20 0.380008)
(9.68766 -9.46571e-21 0.471635)
(9.73513 9.53143e-22 0.45308)
(9.60122 -1.64918e-19 0.550658)
(9.65621 6.47372e-20 0.532178)
(9.50428 1.12612e-19 0.637027)
(9.56726 -3.457e-20 0.618356)
(9.39666 2.8378e-20 0.731815)
(9.46807 1.7949e-19 0.712702)
(9.27821 -1.0978e-19 0.836151)
(9.35866 -1.48719e-19 0.816314)
(9.14875 3.31054e-19 0.951303)
(9.23886 0 0.930405)
(9.00809 2.01933e-21 1.07873)
(9.10843 6.87234e-19 1.05638)
(8.85612 -6.67609e-19 1.2201)
(8.96724 -6.44734e-19 1.19581)
(8.69267 1.96171e-20 1.3772)
(8.81546 -3.53039e-19 1.3505)
(8.51749 3.45392e-19 1.55193)
(8.65293 3.40447e-19 1.52238)
(8.33035 7.75601e-19 1.74647)
(8.47933 -1.18946e-20 1.71352)
(8.13106 -4.94318e-20 1.96329)
(8.29477 7.89805e-19 1.92632)
(7.91949 -7.99009e-19 2.20532)
(8.09898 -8.08793e-19 2.16354)
(7.69563 -8.78707e-19 2.47608)
(7.89214 8.17394e-19 2.4285)
(7.45927 -9.12606e-19 2.7795)
(7.67453 -1.70307e-18 2.72518)
(7.20973 8.23658e-19 3.12)
(7.44582 1.92417e-20 3.05806)
(6.94576 9.32048e-19 3.50268)
(7.20569 9.11006e-19 3.43234)
(6.66576 -1.77508e-18 3.93343)
(6.95296 1.22602e-19 3.85386)
(6.36749 -1.90577e-18 4.41858)
(6.68672 -1.87369e-18 4.32925)
(6.04458 -5.99469e-20 4.96172)
(6.40262 -5.97176e-20 4.8665)
(5.69668 -5.79222e-20 5.56864)
(6.11268 0 5.45784)
(5.27048 1.64595e-18 6.20626)
(5.69419 1.46455e-19 6.16924)
(4.84174 -1.35752e-18 6.86438)
(5.63661 1.71786e-18 6.64578)
(4.20322 -1.96255e-18 7.86092)
(9.98819 -9.75762e-20 0.100172)
(9.99127 1.97533e-19 0.0703347)
(9.96566 1.0941e-19 0.163415)
(9.97781 -1.02445e-19 0.136339)
(9.9328 1.05146e-19 0.226878)
(9.95338 1.06915e-19 0.201626)
(9.88985 0 0.292465)
(9.91671 1.1103e-19 0.268406)
(9.83708 3.20402e-22 0.361551)
(9.86977 5.80451e-20 0.338172)
(9.77465 -1.28297e-19 0.435317)
(9.81366 5.94212e-22 0.412202)
(9.7026 7.62531e-20 0.514833)
(9.74848 -1.88885e-19 0.491637)
(9.6209 1.93557e-19 0.601155)
(9.67409 2.62486e-19 0.577546)
(9.52951 3.58635e-20 0.695375)
(9.59041 -1.34968e-19 0.671018)
(9.42838 -2.99298e-21 0.798622)
(9.49739 -1.76673e-19 0.773179)
(9.31741 -3.65195e-20 0.912094)
(9.39517 1.08492e-19 0.885214)
(9.19641 3.66813e-19 1.03713)
(9.28356 0 1.00843)
(9.06526 2.06634e-20 1.17522)
(9.16239 3.6122e-19 1.14427)
(8.92403 -3.25764e-19 1.3281)
(9.03166 -3.71386e-19 1.2943)
(8.77283 -2.25359e-20 1.49769)
(8.89165 -4.2079e-20 1.46037)
(8.6116 -2.19397e-20 1.68609)
(8.74249 -4.37537e-20 1.64462)
(8.44028 1.21948e-20 1.8956)
(8.58413 -7.26717e-19 1.8493)
(8.25889 1.19089e-20 2.12888)
(8.4168 1.5041e-18 2.07693)
(8.06755 8.26496e-19 2.38905)
(8.24053 -7.88452e-19 2.33043)
(7.86652 -2.86045e-20 2.6799)
(8.05576 2.85488e-20 2.61333)
(7.65605 -7.59152e-19 3.00591)
(7.86307 7.76559e-19 2.92998)
(7.43616 1.15513e-19 3.37225)
(7.66273 8.72959e-19 3.28545)
(7.20661 1.04248e-19 3.7847)
(7.45529 5.49869e-20 3.68563)
(6.96669 2.76291e-20 4.2499)
(7.24057 5.58913e-20 4.13709)
(6.71576 -2.81686e-20 4.77529)
(7.01889 -1.68432e-18 4.64705)
(6.44882 0 5.36451)
(6.78573 2.69855e-20 5.22548)
(6.16752 2.02707e-19 6.02469)
(6.56314 1.62127e-18 5.86018)
(5.81447 2.06149e-19 6.71946)
(6.1908 6.72756e-21 6.6404)
(5.44482 6.02849e-20 7.4195)
(6.27066 0 7.13263)
(4.76883 3.34409e-18 8.46318)
(9.98863 1.87294e-19 0.107563)
(9.99144 -8.47226e-20 0.0751792)
(9.96712 -1.00772e-19 0.175731)
(9.97873 1.25445e-20 0.145869)
(9.9359 1.12887e-19 0.244329)
(9.95568 -1.59944e-19 0.216017)
(9.89524 1.68132e-19 0.315292)
(9.92101 2.79172e-20 0.287891)
(9.84541 5.7274e-20 0.390022)
(9.87676 5.80885e-20 0.362979)
(9.78661 -6.33862e-20 0.469764)
(9.82404 5.96487e-20 0.442601)
(9.7189 5.19816e-21 0.555653)
(9.76296 1.86493e-19 0.52798)
(9.64228 -7.2888e-20 0.648782)
(9.69342 -6.32255e-20 0.620234)
(9.5568 -3.48373e-19 0.750268)
(9.61535 -6.73338e-20 0.720461)
(9.46254 -6.07028e-20 0.861299)
(9.52887 -3.50957e-19 0.829805)
(9.35947 1.43461e-19 0.983175)
(9.43414 1.45801e-19 0.949542)
(9.24749 -3.20185e-22 1.1173)
(9.33111 7.45929e-20 1.0811)
(9.12656 -4.15675e-20 1.26518)
(9.21975 3.79592e-20 1.22592)
(8.99682 -8.28043e-20 1.42852)
(9.10022 3.22145e-19 1.38555)
(8.85855 -6.33732e-20 1.60936)
(8.9727 2.34154e-21 1.56187)
(8.712 -7.57652e-19 1.80998)
(8.83755 -3.19737e-19 1.75714)
(8.55736 7.90636e-19 2.03284)
(8.69518 -7.71913e-19 1.97377)
(8.39485 6.81349e-19 2.28071)
(8.54591 1.49495e-18 2.21443)
(8.22488 -1.58009e-18 2.55691)
(8.39016 -7.66569e-19 2.48216)
(8.04804 8.38419e-19 2.86549)
(8.22862 -7.64546e-20 2.78068)
(7.86502 2.41589e-18 3.21131)
(8.06221 6.5304e-20 3.11462)
(7.67656 8.094e-19 3.60011)
(7.89191 2.30438e-20 3.48948)
(7.48341 6.5613e-21 4.03842)
(7.71902 6.58382e-21 3.91171)
(7.28597 -1.65616e-18 4.53352)
(7.54457 -1.56882e-18 4.38866)
(7.08439 -1.64237e-18 5.09403)
(7.37017 -9.00977e-20 4.92839)
(6.87482 1.59609e-18 5.72418)
(7.18998 1.52967e-18 5.5429)
(6.65939 1.4381e-18 6.43413)
(7.03644 1.31977e-19 6.2172)
(6.38134 -1.98546e-19 7.18647)
(6.71504 -1.97383e-19 7.06171)
(6.05849 3.51661e-18 7.94464)
(6.91816 -6.37917e-19 7.59036)
(5.36392 4.18213e-19 9.04738)
(9.98919 -2.57995e-19 0.114613)
(9.99165 -3.81294e-19 0.0797889)
(9.96882 -5.01603e-20 0.187428)
(9.97979 8.97088e-20 0.154903)
(9.93939 -2.41384e-19 0.260849)
(9.95827 -1.06848e-19 0.229612)
(9.90117 -8.16439e-20 0.336845)
(9.92579 -1.10672e-19 0.306247)
(9.85448 6.04815e-20 0.41684)
(9.88441 5.67529e-20 0.386284)
(9.79954 3.11933e-19 0.502139)
(9.83528 -3.63396e-22 0.471088)
(9.73643 1.13841e-19 0.593942)
(9.77855 2.49293e-19 0.561962)
(9.66522 -5.77732e-20 0.693363)
(9.71416 -1.28922e-19 0.660069)
(9.58599 -7.43246e-20 0.801525)
(9.64204 2.00676e-19 0.766496)
(9.49888 -1.36671e-19 0.919664)
(9.56243 -7.03108e-20 0.882405)
(9.40399 7.57709e-20 1.04917)
(9.47544 0 1.00913)
(9.3014 1.12435e-19 1.19149)
(9.38122 5.54919e-22 1.14816)
(9.19126 4.05978e-19 1.34815)
(9.28006 3.76368e-20 1.30094)
(9.07372 4.03676e-19 1.52088)
(9.17216 3.63461e-19 1.4691)
(8.94908 -2.57938e-19 1.71172)
(9.05775 4.45575e-20 1.65453)
(8.81787 -3.39373e-19 1.92306)
(8.93728 -1.05447e-18 1.85942)
(8.68062 -4.3412e-20 2.15751)
(8.81146 -4.73713e-21 2.08634)
(8.53784 2.37153e-20 2.41799)
(8.68096 7.0403e-19 2.3381)
(8.39024 7.45546e-19 2.70792)
(8.54653 2.35173e-20 2.61784)
(8.23876 -8.47868e-19 3.03155)
(8.40919 1.58935e-18 2.92941)
(8.08465 -2.33473e-18 3.39407)
(8.27026 -3.13225e-18 3.27762)
(7.92941 -7.82929e-19 3.80162)
(8.13148 -1.53683e-18 3.66828)
(7.77474 -1.57177e-18 4.26139)
(7.99499 0 4.10821)
(7.62219 -1.77146e-20 4.78163)
(7.86292 -1.75635e-18 4.60564)
(7.47277 3.07556e-18 5.37213)
(7.73855 1.57395e-18 5.16976)
(7.32357 8.16672e-20 6.03876)
(7.61506 1.50732e-18 5.81472)
(7.1752 -1.5029e-18 6.79695)
(7.53401 -1.4948e-18 6.52591)
(6.97873 -6.3542e-19 7.61185)
(7.27627 -6.06483e-19 7.42869)
(6.70121 -3.65755e-18 8.46518)
(7.59252 2.27269e-18 8.02981)
(6.01489 -4.07951e-18 9.6541)
(9.98983 -2.51794e-20 0.12127)
(9.99188 1.8383e-19 0.0841258)
(9.97075 2.90963e-20 0.198439)
(9.98097 -2.14287e-19 0.163384)
(9.94326 2.38892e-20 0.276361)
(9.96109 5.28751e-20 0.24234)
(9.90767 3.09034e-20 0.357032)
(9.93094 -2.74563e-20 0.323388)
(9.86431 -5.13229e-21 0.441891)
(9.8926 5.62792e-20 0.407989)
(9.81347 -5.87572e-20 0.532307)
(9.84724 -1.34915e-21 0.497546)
(9.75526 0 0.629541)
(9.79507 6.09969e-20 0.593442)
(9.68975 1.35056e-19 0.734721)
(9.73606 -1.27194e-19 0.696881)
(9.61709 2.00525e-19 0.848977)
(9.67017 -6.47461e-20 0.808942)
(9.53743 6.76091e-20 0.973572)
(9.59766 2.04819e-19 0.93081)
(9.45096 -7.52804e-20 1.10991)
(9.5187 2.123e-19 1.06384)
(9.358 -7.38343e-20 1.25947)
(9.43363 -3.64366e-19 1.20946)
(9.25889 -6.79104e-22 1.42383)
(9.3429 -7.61809e-20 1.36917)
(9.15392 0 1.60476)
(9.24683 0 1.54469)
(9.04347 -7.65575e-19 1.8043)
(9.14592 -7.9239e-20 1.73792)
(8.92818 -7.09385e-19 2.02481)
(9.04066 -1.41293e-18 1.95101)
(8.80887 7.4962e-19 2.26901)
(8.93186 7.08882e-19 2.18652)
(8.68645 6.98602e-19 2.53993)
(8.82063 7.90917e-19 2.44733)
(8.562 8.79876e-19 2.84109)
(8.70809 0 2.73669)
(8.43687 -7.20389e-19 3.17685)
(8.59566 8.72858e-19 3.0585)
(8.31288 -2.33267e-18 3.55256)
(8.48513 -7.81634e-19 3.41762)
(8.19233 -7.50143e-19 3.97465)
(8.37904 1.407e-19 3.81997)
(8.07798 -1.82789e-19 4.45082)
(8.28043 0 4.27268)
(7.97258 -1.83628e-19 4.99047)
(8.19256 -3.48441e-19 4.78469)
(7.87868 0 5.60479)
(8.12078 0 5.36631)
(7.79528 0 6.30283)
(8.05902 0 6.03398)
(7.71993 -6.03239e-19 7.10723)
(8.05631 5.88004e-19 6.77789)
(7.62041 1.88224e-18 7.99266)
(7.88632 -1.33806e-19 7.72817)
(7.4103 4.65347e-19 9.00366)
(8.31852 3.2161e-18 8.44685)
(6.76953 -2.52642e-18 10.327)
(9.99053 -1.23332e-20 0.127495)
(9.99213 3.7663e-19 0.0881672)
(9.97282 -1.8515e-19 0.208713)
(9.98222 2.37471e-19 0.171272)
(9.94737 0 0.290796)
(9.96409 -2.34322e-19 0.254152)
(9.91452 -5.16227e-22 0.375767)
(9.9364 -1.62542e-19 0.339256)
(9.87465 5.90596e-20 0.465074)
(9.90123 -5.71996e-20 0.428025)
(9.82805 1.1959e-19 0.560144)
(9.85975 -5.86763e-20 0.521893)
(9.77489 -6.93872e-20 0.6623)
(9.81226 -6.04656e-20 0.622323)
(9.71529 -3.26261e-19 0.772686)
(9.75877 -1.27258e-19 0.730565)
(9.64939 -5.64495e-20 0.892434)
(9.69927 -1.97863e-19 0.847689)
(9.57744 3.4989e-19 1.02281)
(9.63403 3.37921e-19 0.974866)
(9.49974 -8.49888e-20 1.16519)
(9.5634 -1.35846e-19 1.11344)
(9.41672 -3.62934e-19 1.32104)
(9.48784 -2.9221e-19 1.26479)
(9.32887 -7.45458e-20 1.49198)
(9.40779 1.45619e-19 1.43044)
(9.23668 -8.03035e-20 1.67984)
(9.32377 -7.56155e-20 1.61213)
(9.14074 -7.42355e-19 1.88665)
(9.23652 -3.13857e-19 1.81179)
(9.0418 2.69747e-20 2.11471)
(9.14667 -2.57131e-19 2.03155)
(8.94086 7.5009e-19 2.36676)
(9.05525 1.40749e-18 2.27388)
(8.83925 8.44648e-20 2.64583)
(8.96362 -5.81954e-19 2.54164)
(8.73843 -1.8156e-21 2.95552)
(8.87329 0 2.83808)
(8.64028 8.06407e-19 3.30018)
(8.7861 -8.81808e-20 3.16709)
(8.54727 1.70289e-18 3.68515)
(8.70443 6.36253e-19 3.53341)
(8.46249 8.94855e-19 4.11698)
(8.63172 7.23815e-19 3.9429)
(8.38982 -1.65686e-19 4.60372)
(8.57177 -3.32313e-19 4.4027)
(8.33357 -1.66817e-19 5.15558)
(8.52934 -1.12826e-18 4.92217)
(8.29855 0 5.78512)
(8.51221 4.6253e-20 5.51211)
(8.28783 5.84291e-19 6.50575)
(8.51725 6.39574e-19 6.19047)
(8.29807 1.07049e-18 7.348)
(8.59991 1.14799e-20 6.95557)
(8.3241 1.19109e-18 8.30591)
(8.55317 7.54332e-21 7.92946)
(8.24616 -2.12473e-18 9.56786)
(9.12787 -1.72168e-18 8.79933)
(7.699 5.20174e-19 11.1039)
(9.99128 6.24269e-19 0.133258)
(9.99239 3.79586e-19 0.091894)
(9.97502 1.78901e-19 0.218206)
(9.98353 4.35561e-19 0.178533)
(9.95173 -3.95632e-19 0.304106)
(9.96724 2.02025e-19 0.265001)
(9.92174 -2.17415e-19 0.392998)
(9.94213 -1.14535e-19 0.3538)
(9.88545 -1.75028e-19 0.486332)
(9.91028 -5.33727e-21 0.446341)
(9.84321 -2.38914e-19 0.585591)
(9.8728 -6.4836e-20 0.544081)
(9.79521 -1.19508e-19 0.692162)
(9.83006 -1.23954e-19 0.648565)
(9.7416 1.37593e-22 0.807202)
(9.78217 1.17983e-19 0.761085)
(9.6826 2.04814e-19 0.931817)
(9.72917 -1.21012e-19 0.882679)
(9.61858 -1.55084e-19 1.06725)
(9.67139 2.05696e-19 1.01447)
(9.54995 -3.45613e-19 1.21485)
(9.60932 -2.24882e-19 1.15777)
(9.47717 2.22526e-19 1.37608)
(9.54354 -2.67919e-19 1.314)
(9.40081 1.41946e-19 1.55254)
(9.47445 5.70048e-19 1.48462)
(9.32155 -3.12311e-19 1.74607)
(9.40278 -2.87685e-19 1.67136)
(9.24019 1.72195e-19 1.95869)
(9.32936 -2.39468e-19 1.87612)
(9.15772 1.14089e-18 2.19266)
(9.25505 4.08554e-19 2.10099)
(9.07539 5.79905e-20 2.45061)
(9.18127 6.76257e-19 2.34835)
(8.99477 -6.63025e-19 2.73553)
(9.10951 -1.37046e-18 2.62093)
(8.91776 -8.69397e-20 3.05093)
(9.04162 6.19134e-19 2.9219)
(8.84674 -2.56513e-19 3.40103)
(8.97992 -8.82451e-20 3.25498)
(8.78488 -3.43278e-19 3.79101)
(8.92736 -6.34335e-19 3.6246)
(8.73622 -5.06615e-19 4.22722)
(8.88814 -7.97939e-19 4.03634)
(8.70577 -1.29698e-18 4.71773)
(8.86698 2.66739e-19 4.49699)
(8.69984 -9.38315e-19 5.27277)
(8.87042 -1.27602e-18 5.01546)
(8.7262 6.73339e-19 5.90532)
(8.90868 4.74692e-20 5.60195)
(8.79445 7.81823e-20 6.63201)
(8.98386 1.92871e-19 6.27315)
(8.90683 -1.04678e-18 7.48745)
(9.15631 8.56995e-19 7.03372)
(9.09706 -2.47177e-18 8.49243)
(9.26907 -8.75517e-19 7.97983)
(9.29107 1.15093e-18 10.1399)
(10.1147 -8.64706e-19 8.9345)
(10.0122 2.04537e-18 11.8841)
(0.154995 -1.03608e-21 -0.0932151)
(0.100504 -9.27634e-22 -0.126153)
(0.365159 -3.40279e-21 -0.0972299)
(0.248464 1.93454e-22 -0.156239)
(0.565414 -5.53323e-21 -0.076932)
(0.448932 -3.24126e-21 -0.128922)
(0.740785 6.66446e-21 -0.0577741)
(0.643625 -1.04014e-20 -0.100559)
(0.892497 -4.31309e-22 -0.0443811)
(0.817121 -1.0236e-20 -0.0806983)
(1.02456 -4.93554e-21 -0.035903)
(0.968876 6.48334e-21 -0.0680582)
(1.1414 0 -0.0307161)
(1.10201 3.49545e-22 -0.0603863)
(1.24731 1.80896e-21 -0.0274525)
(1.22082 6.54741e-21 -0.0559544)
(1.34524 6.76834e-22 -0.0251081)
(1.32993 2.21912e-21 -0.0533066)
(1.43659 -7.47317e-22 -0.022941)
(1.43154 -1.35069e-21 -0.0512177)
(1.52151 -5.15683e-22 -0.0203982)
(1.52691 -1.23484e-21 -0.0488265)
(1.5991 9.6444e-22 -0.0172206)
(1.6168 -1.53503e-21 -0.045533)
(1.66814 9.7761e-22 -0.0134254)
(1.70045 1.14785e-21 -0.0411478)
(1.72759 -6.05965e-22 -0.00918202)
(1.77713 4.36682e-22 -0.0358154)
(1.77668 4.41805e-24 -0.0048466)
(1.84624 -8.07209e-22 -0.0297256)
(1.81531 -8.33071e-23 -0.000976528)
(1.90726 -5.64687e-23 -0.0233641)
(1.84454 -4.4653e-22 0.00187857)
(1.95998 9.58969e-22 -0.0175237)
(1.8664 -1.64863e-22 0.00341058)
(2.00528 -2.26385e-22 -0.0128883)
(1.88346 -1.0245e-22 0.00360395)
(2.04478 -1.09398e-22 -0.00982296)
(1.89839 -2.74075e-22 0.00268071)
(2.07997 3.9568e-22 -0.00845412)
(1.91358 -1.3672e-22 0.00103359)
(2.11277 2.26252e-22 -0.00860103)
(1.93065 -7.94112e-23 -0.000903543)
(2.14482 -8.61533e-23 -0.00977063)
(1.95026 -7.44868e-23 -0.00274604)
(2.17696 3.08065e-23 -0.0113693)
(1.97218 2.28338e-24 -0.0041827)
(2.20938 8.24337e-24 -0.0128166)
(1.99546 -3.64342e-24 -0.00502261)
(2.24157 5.97454e-24 -0.0136594)
(2.01881 5.96028e-24 -0.00523572)
(2.27265 -9.5055e-23 -0.0136793)
(2.04102 -2.78298e-23 -0.00495454)
(2.30165 -7.59597e-23 -0.0129161)
(2.06134 -2.80446e-23 -0.00442086)
(2.32773 5.0868e-23 -0.0116511)
(2.07962 0 -0.00400952)
(2.35058 0 -0.0102734)
(2.37418 -9.57365e-24 -0.00950966)
(0.142987 -2.53028e-20 -0.211844)
(0.0785241 1.03878e-21 -0.261569)
(0.337001 1.2905e-20 -0.219032)
(0.197012 1.93494e-22 -0.298315)
(0.540194 4.69671e-22 -0.180448)
(0.397948 -7.40858e-21 -0.254475)
(0.729176 -2.72958e-20 -0.143908)
(0.589914 -2.11813e-20 -0.204814)
(0.898136 -5.86582e-21 -0.118061)
(0.764303 -1.3538e-20 -0.168137)