/*--------------------------------*- C++ -*----------------------------------*\
| =========                 |                                                 |
| \\      /  F ield         | OpenFOAM: The Open Source CFD Toolbox           |
|  \\    /   O peration     | Version:  dev                                   |
|   \\  /    A nd           | Web:      www.OpenFOAM.org                      |
|    \\/     M anipulation  |                                                 |
\*---------------------------------------------------------------------------*/
FoamFile
{
    version     2.0;
    format      ascii;
    class       volScalarField;
    location    "2.2";
    object      p;
}
// * * * * * * * * * * * * * * * * * * * * * * * * * * * * * * * * * * * * * //

dimensions      [0 2 -2 0 0 0 0];

internalField   nonuniform List<scalar> 
465
(
113.067
115.308
117.548
119.741
121.832
123.753
125.424
126.753
127.609
112.852
115.079
117.309
119.499
121.596
123.535
125.239
126.617
127.593
112.197
114.335
116.468
118.555
120.545
122.368
123.934
125.102
125.431
111.246
113.235
115.198
117.087
118.841
120.365
121.506
122.072
120.69
110.042
111.838
113.572
115.185
116.594
117.664
118.136
117.915
114.264
108.625
110.191
111.65
112.926
113.908
114.424
114.082
113.107
107.256
107.021
108.331
109.481
110.379
110.885
110.805
109.594
107.996
100.377
105.256
106.29
107.109
107.605
107.612
106.935
104.861
102.771
93.8852
103.354
104.098
104.573
104.655
104.156
102.898
99.9948
97.4944
87.71
101.336
101.783
101.906
101.57
100.564
98.7407
95.0435
92.1352
81.6064
99.2271
99.3721
99.1403
98.3846
96.8719
94.4853
90.0099
86.5971
75.2543
97.0483
96.8915
96.3058
95.1315
93.1104
90.143
84.878
80.7453
68.2936
94.8221
94.3668
93.4315
91.8419
89.3113
85.729
79.6387
74.4333
60.2956
92.5716
91.8256
90.5504
88.5551
85.5236
81.2922
74.3362
67.5645
50.6766
90.3229
89.3
87.703
85.3269
81.8283
76.9572
69.1698
60.3719
38.487
3.83203
3.82756
3.78575
3.66395
3.44416
3.16223
2.86702
2.58405
2.31955
2.07328
3.83239
3.82597
3.77886
3.65172
3.42899
3.14764
2.85449
2.57337
2.31005
2.06429
3.83492
3.82644
3.77027
3.63258
3.40351
3.12239
2.83229
2.55416
2.29281
2.04791
3.84164
3.83139
3.76296
3.61019
3.37218
3.09074
2.80386
2.52915
2.27009
2.02604
3.85502
3.84376
3.75981
3.58817
3.33944
3.05706
2.77273
2.50132
2.24465
2.00086
3.87836
3.86729
3.76428
3.57086
3.3104
3.02615
2.74313
2.47431
2.22267
1.98031
3.91626
3.90664
3.78097
3.56393
3.29103
3.00235
2.71918
2.44424
2.18619
1.94717
3.97631
3.96792
3.81542
3.57072
3.27993
2.9776
2.68295
2.40658
2.14769
1.90732
4.07002
4.05661
3.86681
3.58367
3.26242
2.94127
2.63705
2.35373
2.09251
1.85298
4.20964
4.17192
3.92277
3.58596
3.23005
2.88651
2.56802
2.27763
2.01532
1.77918
4.40219
4.30633
3.96516
3.56465
3.16706
2.79747
2.46474
2.17035
1.91158
1.6835
4.65752
4.4364
3.97313
3.49734
3.05298
2.6574
2.31587
2.02553
1.77853
1.56536
4.96379
4.51821
3.90979
3.35216
2.86118
2.44831
2.1117
1.83977
1.61664
1.42713
5.25549
4.48409
3.7269
3.08506
2.56011
2.15314
1.84677
1.61489
1.43124
1.27489
4.99226
4.29105
3.35235
2.63892
2.11837
1.76262
1.52603
1.3627
1.23564
1.1203
88.0533
86.7687
84.8749
82.1583
78.2648
72.8684
64.5139
53.8542
21.9082
85.7726
84.2526
82.1062
79.1271
74.9908
69.3975
61.2735
51.8237
44.1082
83.5219
81.8049
79.4704
76.3415
72.1775
66.8448
60.0088
52.8615
49.2797
81.3319
79.4652
77.0166
73.855
69.8372
64.9431
59.0932
52.3801
46.0278
77.2638
74.7704
71.6623
67.8617
63.3615
58.1165
52.017
45.9466
69.7289
66.1659
62.0414
57.3662
52.1506
46.9705
60.9466
56.787
52.2618
47.6814
52.2845
48.2188
-66.4383
-38.5253
-11.726
35.6049
32.1797
27.9051
39.2457
30.496
24.5981
36.2901
30.2655
26.3264
39.268
34.807
31.3061
41.6712
37.9218
34.7974
43.1385
39.9639
37.3064
44.3198
41.6201
39.3515
42.9634
40.993
9.63222
4.82499
2.42258
1.77343
1.37757
1.19612
1.11871
1.07932
1.03662
17.9252
5.88335
2.19019
1.82526
1.64985
1.43112
1.26566
1.14413
1.0305
17.4965
9.33722
5.62984
4.19505
3.17592
2.31848
1.71735
1.3377
1.09412
21.4068
15.4842
11.196
8.33125
6.24893
4.66525
3.50527
2.68065
2.08629
26.7807
21.5622
16.8547
13.1033
10.2536
8.06276
6.36386
5.04944
4.02938
30.9078
26.3897
21.8058
17.7836
14.536
11.9254
9.79831
8.06181
6.64787
34.0646
30.2119
25.9982
22.0447
18.6713
15.8348
13.4279
11.3837
9.65536
36.5913
33.256
29.4526
25.7207
22.3973
19.4958
16.95
14.7175
12.7707
38.5918
35.6578
32.2414
28.79
25.616
22.7597
20.183
17.8628
15.7864
37.5647
34.4912
31.3249
28.3424
25.5927
23.0552
20.7194
18.5833
30.6333
28.0184
25.56
23.2553
21.109
27.7233
25.4779
23.3545
25.3338
)
;

boundaryField
{
    inlet
    {
        type            zeroGradient;
    }
    outlet
    {
        type            fixedValue;
        value           nonuniform 0();
    }
    flap
    {
        type            zeroGradient;
    }
    upperWall
    {
        type            zeroGradient;
    }
    lowerWall
    {
        type            zeroGradient;
    }
    frontAndBack
    {
        type            empty;
    }
    procBoundary4to1
    {
        type            processor;
        value           nonuniform List<scalar> 
30
(
79.2301
79.2301
75.2167
72.7325
72.7325
68.022
64.7037
64.7037
60.0098
56.2816
56.2816
52.2837
48.6844
45.3017
45.3017
44.0291
42.2955
40.176
40.176
39.097
36.318
33.4161
33.4161
32.5535
30.0822
30.0822
29.5834
27.4131
27.4131
27.0695
)
;
    }
    procBoundary4to2
    {
        type            processor;
        value           nonuniform List<scalar> 
11
(
0.922512
1.6427
3.22947
5.49453
8.19664
11.079
13.9369
16.6403
19.1218
21.3586
23.3537
)
;
    }
    procBoundary4to3
    {
        type            processor;
        value           nonuniform List<scalar> 
19
(
110.859
110.66
110.088
109.265
108.227
107.003
105.615
104.083
102.426
100.663
98.8124
96.8936
94.9259
92.9283
90.922
88.8852
86.8211
84.7628
82.7346
)
;
    }
    procBoundary4to5
    {
        type            processor;
        value           nonuniform List<scalar> 
18
(
1.84479
1.83592
1.82003
1.79908
1.77561
1.74867
1.72284
1.68537
1.63436
1.56674
1.48104
1.37783
1.25998
1.13291
1.00516
0.970995
0.970995
0.909922
)
;
    }
}


// ************************************************************************* //
