/*--------------------------------*- C++ -*----------------------------------*\
| =========                 |                                                 |
| \\      /  F ield         | OpenFOAM: The Open Source CFD Toolbox           |
|  \\    /   O peration     | Version:  dev                                   |
|   \\  /    A nd           | Web:      www.OpenFOAM.org                      |
|    \\/     M anipulation  |                                                 |
\*---------------------------------------------------------------------------*/
FoamFile
{
    version     2.0;
    format      ascii;
    class       pointVectorField;
    location    "3.8";
    object      pointDisplacement;
}
// * * * * * * * * * * * * * * * * * * * * * * * * * * * * * * * * * * * * * //

dimensions      [0 1 0 0 0 0 0];

internalField   nonuniform List<vector> 
5828
(
(0 0 0)
(0.00539011 0 0)
(0.0102757 0 0)
(0.0145394 0 0)
(0.0182328 0 0)
(0.021404 0 0)
(0.0240963 0 0)
(0.026348 0 0)
(0.0281931 0 0)
(0.0296613 0 0)
(0.0307781 0 0)
(0.0315653 0 0)
(0.0320412 0 0)
(0.0322209 0 0)
(0.0321165 0 0)
(0.0317374 0 0)
(0.0310907 0 0)
(0.0301812 0 0)
(0.0290122 0 0)
(0.0275858 0 0)
(0.0259038 0 0)
(0.0239689 0 0)
(0.0217878 0 0)
(0.0193732 0 0)
(0.0167488 0 0)
(0.0139554 0 0)
(0.0110603 0 0)
(0.00817712 0 0)
(0.00550782 0 0)
(0.00346377 0 0)
(0 0 0)
(0 0 0)
(0.00539186 0 -7.17136e-06)
(0.0102795 0 -1.37079e-05)
(0.0145454 0 -1.94732e-05)
(0.0182413 0 -2.45317e-05)
(0.0214152 0 -2.89181e-05)
(0.0241107 0 -3.26343e-05)
(0.0263662 0 -3.56468e-05)
(0.0282157 0 -3.78837e-05)
(0.0296891 0 -3.92291e-05)
(0.0308121 0 -3.95157e-05)
(0.0316067 0 -3.85148e-05)
(0.0320915 0 -3.59223e-05)
(0.0322817 0 -3.13419e-05)
(0.03219 0 -2.42623e-05)
(0.031826 0 -1.40305e-05)
(0.0311975 0 1.82717e-07)
(0.0303101 0 1.94258e-05)
(0.0291677 0 4.50279e-05)
(0.0277736 0 7.86565e-05)
(0.0261307 0 0.000122385)
(0.0242434 0 0.000178812)
(0.0221199 0 0.000251163)
(0.0197752 0 0.000343382)
(0.0172364 0 0.000460176)
(0.0145489 0 0.000606776)
(0.0117857 0 0.000788296)
(0.00906814 0 0.00100788)
(0.00660518 0 0.00126052)
(0.00479674 0 0.00151235)
(0.00224906 0 0.00201698)
(0 0 0)
(0.0053977 0 -1.43557e-05)
(0.0102914 0 -2.74448e-05)
(0.0145637 0 -3.89963e-05)
(0.0182667 0 -4.91419e-05)
(0.0214488 0 -5.79538e-05)
(0.0241537 0 -6.54394e-05)
(0.0264203 0 -7.15368e-05)
(0.0282829 0 -7.61085e-05)
(0.0297719 0 -7.89319e-05)
(0.0309133 0 -7.96846e-05)
(0.0317299 0 -7.79256e-05)
(0.0322408 0 -7.30698e-05)
(0.0324624 0 -6.43552e-05)
(0.0324081 0 -5.08018e-05)
(0.0320889 0 -3.11609e-05)
(0.0315143 0 -3.85473e-06)
(0.0306919 0 3.30979e-05)
(0.029628 0 8.22018e-05)
(0.0283291 0 0.000146579)
(0.0268016 0 0.000230044)
(0.0250538 0 0.000337326)
(0.0230989 0 0.000474202)
(0.0209577 0 0.000647525)
(0.0186656 0 0.000865264)
(0.0162802 0 0.00113551)
(0.0138873 0 0.00146455)
(0.0116197 0 0.0018526)
(0.00968748 0 0.00228166)
(0.00843677 0 0.00268264)
(0.0067166 0 0.00335457)
(0 0 0)
(0.00540732 0 -2.15618e-05)
(0.0103109 0 -4.12305e-05)
(0.0145938 0 -5.86055e-05)
(0.0183085 0 -7.38901e-05)
(0.021504 0 -8.72e-05)
(0.0242245 0 -9.85551e-05)
(0.0265092 0 -0.000107875)
(0.0283934 0 -0.000114968)
(0.0299078 0 -0.000119525)
(0.0310794 0 -0.00012109)
(0.031932 0 -0.000119043)
(0.0324858 0 -0.000112562)
(0.0327585 0 -0.000100579)
(0.0327651 0 -8.17272e-05)
(0.0325189 0 -5.42726e-05)
(0.0320316 0 -1.60399e-05)
(0.0313145 0 3.56573e-05)
(0.0303771 0 0.000104213)
(0.02923 0 0.000193767)
(0.0278861 0 0.000309256)
(0.0263601 0 0.000456757)
(0.024673 0 0.000643401)
(0.0228534 0 0.000877354)
(0.0209444 0 0.00116748)
(0.0190174 0 0.00152112)
(0.0171705 0 0.00194085)
(0.0155362 0 0.00241807)
(0.0142974 0 0.00291803)
(0.0136973 0 0.00334821)
(0.0128577 0 0.00399364)
(0 0 0)
(0.00542068 0 -2.87925e-05)
(0.010338 0 -5.50732e-05)
(0.0146354 0 -7.83187e-05)
(0.0183663 0 -9.88109e-05)
(0.0215802 0 -0.000116717)
(0.024322 0 -0.000132079)
(0.0266318 0 -0.000144812)
(0.0285454 0 -0.000154692)
(0.0300946 0 -0.000161341)
(0.0313076 0 -0.00016421)
(0.0322092 0 -0.000162543)
(0.0328213 0 -0.000155342)
(0.0331633 0 -0.000141321)
(0.0332524 0 -0.000118837)
(0.0331045 0 -8.58241e-05)
(0.0327341 0 -3.97047e-05)
(0.032157 0 2.2601e-05)
(0.0313873 0 0.0001049)
(0.0304399 0 0.000211825)
(0.0293354 0 0.00034879)
(0.0280969 0 0.000522205)
(0.0267541 0 0.000739191)
(0.0253461 0 0.00100732)
(0.0239218 0 0.00133381)
(0.0225579 0 0.00172249)
(0.0213563 0 0.00216914)
(0.0204333 0 0.00265481)
(0.0199191 0 0.0031328)
(0.019932 0 0.00350727)
(0.0198589 0 0.0040217)
(0 0 0)
(0.00543764 0 -3.60449e-05)
(0.0103722 0 -6.89696e-05)
(0.014688 0 -9.81362e-05)
(0.0184392 0 -0.000123914)
(0.0216762 0 -0.000146531)
(0.0244447 0 -0.000166066)
(0.0267857 0 -0.000182445)
(0.028736 0 -0.000195433)
(0.0303287 0 -0.000204619)
(0.031593 0 -0.000209396)
(0.0325553 0 -0.00020893)
(0.0332394 0 -0.000202125)
(0.0336668 0 -0.000187572)
(0.0338572 0 -0.000163494)
(0.0338293 0 -0.000127676)
(0.0336008 0 -7.73762e-05)
(0.0331909 0 -9.40801e-06)
(0.0326204 0 7.99489e-05)
(0.0319115 0 0.000195199)
(0.0310897 0 0.000341572)
(0.0301856 0 0.000524807)
(0.029237 0 0.00075076)
(0.0282914 0 0.00102478)
(0.0274066 0 0.00135058)
(0.0266548 0 0.00172713)
(0.0261224 0 0.00214336)
(0.0258974 0 0.00257298)
(0.0260432 0 0.00296666)
(0.0265544 0 0.00324283)
(0.0270847 0 0.00360078)
(0 0 0)
(0.00545795 0 -4.3311e-05)
(0.0104131 0 -8.29053e-05)
(0.0147507 0 -0.000118041)
(0.018526 0 -0.000149184)
(0.0217903 0 -0.000176636)
(0.0245903 0 -0.000200526)
(0.0269682 0 -0.00022081)
(0.0289618 0 -0.000237268)
(0.0306053 0 -0.000249488)
(0.0319296 0 -0.000256853)
(0.0329627 0 -0.000258511)
(0.0337304 0 -0.000253348)
(0.0342564 0 -0.000239944)
(0.0345633 0 -0.000216531)
(0.0346727 0 -0.00018094)
(0.0346061 0 -0.00013055)
(0.0343854 0 -6.23276e-05)
(0.0340373 0 2.70762e-05)
(0.0335917 0 0.000141456)
(0.0330789 0 0.000285023)
(0.0325355 0 0.00046206)
(0.0320053 0 0.000676245)
(0.0315399 0 0.000929916)
(0.0312003 0 0.00122264)
(0.0310476 0 0.00154829)
(0.031142 0 0.00189124)
(0.0315329 0 0.00222323)
(0.032215 0 0.00250112)
(0.0330794 0 0.00266785)
(0.0340358 0 0.00287475)
(0 0 0)
(0.00548131 0 -5.05774e-05)
(0.0104601 0 -9.68556e-05)
(0.0148226 0 -0.000138)
(0.0186251 0 -0.000174583)
(0.0219205 0 -0.000206992)
(0.0247563 0 -0.000235422)
(0.0271758 0 -0.000259881)
(0.0292181 0 -0.000280186)
(0.0309187 0 -0.000295963)
(0.03231 0 -0.000306628)
(0.033422 0 -0.000311375)
(0.0342822 0 -0.00030915)
(0.034917 0 -0.000298627)
(0.0353516 0 -0.000278185)
(0.0356107 0 -0.000245883)
(0.0357194 0 -0.000199457)
(0.0357039 0 -0.000136351)
(0.0355943 0 -5.38466e-05)
(0.0354234 0 5.08737e-05)
(0.0352282 0 0.000180463)
(0.0350506 0 0.000337167)
(0.0349364 0 0.000522113)
(0.0349378 0 0.000734325)
(0.0351066 0 0.000969613)
(0.0354876 0 0.00121821)
(0.0361163 0 0.00146277)
(0.0369977 0 0.00167806)
(0.0380656 0 0.00183302)
(0.039138 0 0.00189801)
(0.0403489 0 0.0019665)
(0 0 0)
(0.0055073 0 -5.78261e-05)
(0.0105122 0 -0.000110786)
(0.0149022 0 -0.000157963)
(0.0187349 0 -0.000200049)
(0.0220644 0 -0.000237529)
(0.0249394 0 -0.000270676)
(0.0274044 0 -0.000299571)
(0.0294997 0 -0.000324096)
(0.0312622 0 -0.000343944)
(0.032726 0 -0.000358612)
(0.0339226 0 -0.00036739)
(0.0348817 0 -0.000369361)
(0.0356318 0 -0.000363384)
(0.0362008 0 -0.000348099)
(0.0366163 0 -0.000321936)
(0.0369067 0 -0.00028315)
(0.037102 0 -0.0002299)
(0.0372349 0 -0.000160381)
(0.0373404 0 -7.29712e-05)
(0.0374584 0 3.33511e-05)
(0.0376324 0 0.000158694)
(0.0379067 0 0.000301678)
(0.038328 0 0.000458447)
(0.0389353 0 0.000621986)
(0.0397563 0 0.00078087)
(0.0407987 0 0.000918883)
(0.0420265 0 0.00101711)
(0.043328 0 0.001059)
(0.0444815 0 0.00104019)
(0.0457905 0 0.00100121)
(0 0 0)
(0.00553543 0 -6.50348e-05)
(0.0105686 0 -0.000124653)
(0.014988 0 -0.000177868)
(0.0188532 0 -0.000225501)
(0.0222191 0 -0.000268144)
(0.025136 0 -0.000306167)
(0.0276494 0 -0.000339736)
(0.0298009 0 -0.000368825)
(0.0316288 0 -0.000393222)
(0.0331685 0 -0.00041254)
(0.0344532 0 -0.000426217)
(0.0355145 0 -0.000433526)
(0.036383 0 -0.000433583)
(0.0370887 0 -0.000425374)
(0.0376617 0 -0.000407794)
(0.0381331 0 -0.000379718)
(0.0385351 0 -0.000340112)
(0.0389025 0 -0.000288202)
(0.039272 0 -0.000223694)
(0.0396831 0 -0.000147123)
(0.0401766 0 -6.02336e-05)
(0.0407926 0 3.35149e-05)
(0.0415676 0 0.000128343)
(0.0425278 0 0.000215757)
(0.0436819 0 0.000284462)
(0.0450098 0 0.000321513)
(0.046443 0 0.000315789)
(0.0478425 0 0.000264558)
(0.0489784 0 0.000183566)
(0.050258 0 6.7114e-05)
(0 0 0)
(0.00556517 0 -7.21775e-05)
(0.0106281 0 -0.000138406)
(0.0150786 0 -0.000197641)
(0.0189777 0 -0.00025084)
(0.0223819 0 -0.000298714)
(0.0253424 0 -0.000341739)
(0.0279061 0 -0.000380185)
(0.0301157 0 -0.000414132)
(0.0320107 0 -0.000443491)
(0.0336279 0 -0.000468019)
(0.0350021 0 -0.000487334)
(0.0361662 0 -0.000500942)
(0.0371527 0 -0.00050826)
(0.0379931 0 -0.000508667)
(0.0387196 0 -0.000501567)
(0.0393647 0 -0.000486485)
(0.0399621 0 -0.000463205)
(0.0405471 0 -0.00043195)
(0.0411561 0 -0.000393622)
(0.0418263 0 -0.000350097)
(0.0425943 0 -0.000304553)
(0.0434929 0 -0.000261806)
(0.0445476 0 -0.000228558)
(0.04577 0 -0.000213312)
(0.0471496 0 -0.000225636)
(0.0486428 0 -0.000274128)
(0.0501594 0 -0.000362341)
(0.05155 0 -0.00048212)
(0.0526001 0 -0.000604393)
(0.0537597 0 -0.000771551)
(0 0 0)
(0.0055959 0 -7.92253e-05)
(0.0106895 0 -0.000151987)
(0.015172 0 -0.000217196)
(0.019106 0 -0.000275951)
(0.0225494 0 -0.00032909)
(0.0255546 0 -0.000377206)
(0.0281695 0 -0.000420682)
(0.0304379 0 -0.00045972)
(0.0324004 0 -0.000494368)
(0.034095 0 -0.000524546)
(0.0355575 0 -0.000550076)
(0.0368225 0 -0.000570714)
(0.0379233 0 -0.000586198)
(0.0388929 0 -0.00059631)
(0.0397642 0 -0.000600957)
(0.0405706 0 -0.000600282)
(0.0413461 0 -0.000594809)
(0.042125 0 -0.000585623)
(0.0429418 0 -0.000574573)
(0.0438302 0 -0.000564507)
(0.0448206 0 -0.000559474)
(0.0459376 0 -0.000564849)
(0.0471953 0 -0.000587237)
(0.0485912 0 -0.000633955)
(0.0500984 0 -0.000711791)
(0.051657 0 -0.000824655)
(0.053165 0 -0.000969757)
(0.0544752 0 -0.00113201)
(0.0554018 0 -0.0012763)
(0.0563768 0 -0.00147458)
(0 0 0)
(0.00562698 0 -8.61471e-05)
(0.0107516 0 -0.000165337)
(0.0152664 0 -0.000236441)
(0.0192356 0 -0.000300709)
(0.0227185 0 -0.000359111)
(0.0257685 0 -0.00041236)
(0.0284344 0 -0.000460961)
(0.0307612 0 -0.000505247)
(0.0327902 0 -0.000545411)
(0.0345604 0 -0.000581545)
(0.0361085 0 -0.000613679)
(0.0374699 0 -0.000641822)
(0.0386788 0 -0.000666027)
(0.0397685 0 -0.000686452)
(0.0407726 0 -0.000703461)
(0.0417239 0 -0.000717731)
(0.0426556 0 -0.000730388)
(0.0436003 0 -0.000743162)
(0.0445891 0 -0.00075854)
(0.0456509 0 -0.000779905)
(0.0468096 0 -0.000811594)
(0.048081 0 -0.000858806)
(0.0494687 0 -0.000927223)
(0.0509587 0 -0.00102217)
(0.052513 0 -0.00114711)
(0.0540629 0 -0.0013014)
(0.0555049 0 -0.00147716)
(0.056702 0 -0.00165571)
(0.0574996 0 -0.00180252)
(0.0582605 0 -0.00201119)
(0 0 0)
(0.00565775 0 -9.29103e-05)
(0.0108131 0 -0.00017839)
(0.0153599 0 -0.000255281)
(0.0193641 0 -0.000324985)
(0.0228859 0 -0.000388605)
(0.0259801 0 -0.00044698)
(0.0286961 0 -0.000500739)
(0.0310797 0 -0.000550347)
(0.033173 0 -0.000596145)
(0.0350156 0 -0.000638394)
(0.0366448 0 -0.000677326)
(0.0380963 0 -0.000713188)
(0.0394047 0 -0.000746315)
(0.0406034 0 -0.000777195)
(0.0417252 0 -0.000806567)
(0.0428024 0 -0.000835521)
(0.043866 0 -0.000865608)
(0.0449458 0 -0.000898958)
(0.0460693 0 -0.000938364)
(0.0472596 0 -0.000987321)
(0.0485338 0 -0.00104995)
(0.0498999 0 -0.00113071)
(0.0513528 0 -0.00123384)
(0.0528705 0 -0.00136235)
(0.0544094 0 -0.00151643)
(0.055901 0 -0.00169131)
(0.0572501 0 -0.00187497)
(0.058338 0 -0.00204632)
(0.0590368 0 -0.00217517)
(0.0596247 0 -0.00235354)
(0 0 0)
(0.00568754 0 -9.94816e-05)
(0.0108727 0 -0.00019108)
(0.0154507 0 -0.000273617)
(0.0194888 0 -0.000348644)
(0.0230487 0 -0.000417396)
(0.0261856 0 -0.000480839)
(0.02895 0 -0.000539724)
(0.0313879 0 -0.000594644)
(0.0335422 0 -0.000646083)
(0.0354527 0 -0.000694463)
(0.0371571 0 -0.000740195)
(0.0386911 0 -0.000783739)
(0.0400889 0 -0.000825663)
(0.0413835 0 -0.000866719)
(0.0426067 0 -0.00090792)
(0.043789 0 -0.000950628)
(0.0449591 0 -0.000996633)
(0.0461433 0 -0.00104822)
(0.0473646 0 -0.00110818)
(0.0486408 0 -0.00117977)
(0.0499825 0 -0.00126651)
(0.0513907 0 -0.00137181)
(0.0528541 0 -0.00149829)
(0.0543459 0 -0.00164679)
(0.0558222 0 -0.0018149)
(0.0572212 0 -0.00199514)
(0.0584649 0 -0.00217279)
(0.0594632 0 -0.00232425)
(0.0601184 0 -0.00242073)
(0.060699 0 -0.00251339)
(0 0 0)
(0.0057159 0 -0.000105884)
(0.0109296 0 -0.000203453)
(0.0155376 0 -0.00029151)
(0.0196086 0 -0.000371757)
(0.0232051 0 -0.000445561)
(0.0263832 0 -0.000514007)
(0.0291938 0 -0.000577967)
(0.0316834 0 -0.000638156)
(0.033895 0 -0.00069519)
(0.0358687 0 -0.000749633)
(0.0376419 0 -0.000802056)
(0.0392502 0 -0.000853088)
(0.040727 0 -0.000903482)
(0.0421044 0 -0.000954173)
(0.0434126 0 -0.00100635)
(0.0446799 0 -0.0010615)
(0.0459321 0 -0.00112147)
(0.0471918 0 -0.0011885)
(0.0484776 0 -0.00126514)
(0.0498018 0 -0.00135412)
(0.0511696 0 -0.00145816)
(0.0525764 0 -0.00157948)
(0.0540065 0 -0.00171921)
(0.055431 0 -0.00187653)
(0.0568087 0 -0.00204773)
(0.0580866 0 -0.00222518)
(0.0592049 0 -0.00239695)
(0.0601055 0 -0.00254798)
(0.0607361 0 -0.00266703)
(0.0617302 0 -0.00255791)
(0 0 0)
(0.00539011 0 0)
(0.0102757 0 0)
(0.0145394 0 0)
(0.0182328 0 0)
(0.021404 0 0)
(0.0240963 0 0)
(0.026348 0 0)
(0.0281931 0 0)
(0.0296613 0 0)
(0.0307781 0 0)
(0.0315653 0 0)
(0.0320412 0 0)
(0.0322209 0 0)
(0.0321165 0 0)
(0.0317374 0 0)
(0.0310907 0 0)
(0.0301812 0 0)
(0.0290122 0 0)
(0.0275858 0 0)
(0.0259038 0 0)
(0.0239689 0 0)
(0.0217878 0 0)
(0.0193732 0 0)
(0.0167488 0 0)
(0.0139554 0 0)
(0.0110603 0 0)
(0.00817712 0 0)
(0.00550782 0 0)
(0.00346377 0 0)
(0 0 0)
(0 0 0)
(0.00539186 0 -7.17136e-06)
(0.0102795 0 -1.37079e-05)
(0.0145454 0 -1.94732e-05)
(0.0182413 0 -2.45317e-05)
(0.0214152 0 -2.89181e-05)
(0.0241107 0 -3.26343e-05)
(0.0263662 0 -3.56468e-05)
(0.0282157 0 -3.78837e-05)
(0.0296891 0 -3.92291e-05)
(0.0308121 0 -3.95157e-05)
(0.0316067 0 -3.85148e-05)
(0.0320915 0 -3.59223e-05)
(0.0322817 0 -3.13419e-05)
(0.03219 0 -2.42623e-05)
(0.031826 0 -1.40305e-05)
(0.0311975 0 1.82717e-07)
(0.0303101 0 1.94258e-05)
(0.0291677 0 4.50279e-05)
(0.0277736 0 7.86565e-05)
(0.0261307 0 0.000122385)
(0.0242434 0 0.000178812)
(0.0221199 0 0.000251163)
(0.0197752 0 0.000343382)
(0.0172364 0 0.000460176)
(0.0145489 0 0.000606776)
(0.0117857 0 0.000788296)
(0.00906814 0 0.00100788)
(0.00660518 0 0.00126052)
(0.00479674 0 0.00151235)
(0.00224906 0 0.00201698)
(0 0 0)
(0.0053977 0 -1.43557e-05)
(0.0102914 0 -2.74448e-05)
(0.0145637 0 -3.89963e-05)
(0.0182667 0 -4.91419e-05)
(0.0214488 0 -5.79538e-05)
(0.0241537 0 -6.54394e-05)
(0.0264203 0 -7.15368e-05)
(0.0282829 0 -7.61085e-05)
(0.0297719 0 -7.89319e-05)
(0.0309133 0 -7.96846e-05)
(0.0317299 0 -7.79256e-05)
(0.0322408 0 -7.30698e-05)
(0.0324624 0 -6.43552e-05)
(0.0324081 0 -5.08018e-05)
(0.0320889 0 -3.11609e-05)
(0.0315143 0 -3.85473e-06)
(0.0306919 0 3.30979e-05)
(0.029628 0 8.22018e-05)
(0.0283291 0 0.000146579)
(0.0268016 0 0.000230044)
(0.0250538 0 0.000337326)
(0.0230989 0 0.000474202)
(0.0209577 0 0.000647525)
(0.0186656 0 0.000865264)
(0.0162802 0 0.00113551)
(0.0138873 0 0.00146455)
(0.0116197 0 0.0018526)
(0.00968748 0 0.00228166)
(0.00843677 0 0.00268264)
(0.0067166 0 0.00335457)
(0 0 0)
(0.00540732 0 -2.15618e-05)
(0.0103109 0 -4.12305e-05)
(0.0145938 0 -5.86055e-05)
(0.0183085 0 -7.38901e-05)
(0.021504 0 -8.72e-05)
(0.0242245 0 -9.85551e-05)
(0.0265092 0 -0.000107875)
(0.0283934 0 -0.000114968)
(0.0299078 0 -0.000119525)
(0.0310794 0 -0.00012109)
(0.031932 0 -0.000119043)
(0.0324858 0 -0.000112562)
(0.0327585 0 -0.000100579)
(0.0327651 0 -8.17272e-05)
(0.0325189 0 -5.42726e-05)
(0.0320316 0 -1.60399e-05)
(0.0313145 0 3.56573e-05)
(0.0303771 0 0.000104213)
(0.02923 0 0.000193767)
(0.0278861 0 0.000309256)
(0.0263601 0 0.000456757)
(0.024673 0 0.000643401)
(0.0228534 0 0.000877354)
(0.0209444 0 0.00116748)
(0.0190174 0 0.00152112)
(0.0171705 0 0.00194085)
(0.0155362 0 0.00241807)
(0.0142974 0 0.00291803)
(0.0136973 0 0.00334821)
(0.0128577 0 0.00399364)
(0 0 0)
(0.00542068 0 -2.87925e-05)
(0.010338 0 -5.50732e-05)
(0.0146354 0 -7.83187e-05)
(0.0183663 0 -9.88109e-05)
(0.0215802 0 -0.000116717)
(0.024322 0 -0.000132079)
(0.0266318 0 -0.000144812)
(0.0285454 0 -0.000154692)
(0.0300946 0 -0.000161341)
(0.0313076 0 -0.00016421)
(0.0322092 0 -0.000162543)
(0.0328213 0 -0.000155342)
(0.0331633 0 -0.000141321)
(0.0332524 0 -0.000118837)
(0.0331045 0 -8.58241e-05)
(0.0327341 0 -3.97047e-05)
(0.032157 0 2.2601e-05)
(0.0313873 0 0.0001049)
(0.0304399 0 0.000211825)
(0.0293354 0 0.00034879)
(0.0280969 0 0.000522205)
(0.0267541 0 0.000739191)
(0.0253461 0 0.00100732)
(0.0239218 0 0.00133381)
(0.0225579 0 0.00172249)
(0.0213563 0 0.00216914)
(0.0204333 0 0.00265481)
(0.0199191 0 0.0031328)
(0.019932 0 0.00350727)
(0.0198589 0 0.0040217)
(0 0 0)
(0.00543764 0 -3.60449e-05)
(0.0103722 0 -6.89696e-05)
(0.014688 0 -9.81362e-05)
(0.0184392 0 -0.000123914)
(0.0216762 0 -0.000146531)
(0.0244447 0 -0.000166066)
(0.0267857 0 -0.000182445)
(0.028736 0 -0.000195433)
(0.0303287 0 -0.000204619)
(0.031593 0 -0.000209396)
(0.0325553 0 -0.00020893)
(0.0332394 0 -0.000202125)
(0.0336668 0 -0.000187572)
(0.0338572 0 -0.000163494)
(0.0338293 0 -0.000127676)
(0.0336008 0 -7.73762e-05)
(0.0331909 0 -9.40801e-06)
(0.0326204 0 7.99489e-05)
(0.0319115 0 0.000195199)
(0.0310897 0 0.000341572)
(0.0301856 0 0.000524807)
(0.029237 0 0.00075076)
(0.0282914 0 0.00102478)
(0.0274066 0 0.00135058)
(0.0266548 0 0.00172713)
(0.0261224 0 0.00214336)
(0.0258974 0 0.00257298)
(0.0260432 0 0.00296666)
(0.0265544 0 0.00324283)
(0.0270847 0 0.00360078)
(0 0 0)
(0.00545795 0 -4.3311e-05)
(0.0104131 0 -8.29053e-05)
(0.0147507 0 -0.000118041)
(0.018526 0 -0.000149184)
(0.0217903 0 -0.000176636)
(0.0245903 0 -0.000200526)
(0.0269682 0 -0.00022081)
(0.0289618 0 -0.000237268)
(0.0306053 0 -0.000249488)
(0.0319296 0 -0.000256853)
(0.0329627 0 -0.000258511)
(0.0337304 0 -0.000253348)
(0.0342564 0 -0.000239944)
(0.0345633 0 -0.000216531)
(0.0346727 0 -0.00018094)
(0.0346061 0 -0.00013055)
(0.0343854 0 -6.23276e-05)
(0.0340373 0 2.70762e-05)
(0.0335917 0 0.000141456)
(0.0330789 0 0.000285023)
(0.0325355 0 0.00046206)
(0.0320053 0 0.000676245)
(0.0315399 0 0.000929916)
(0.0312003 0 0.00122264)
(0.0310476 0 0.00154829)
(0.031142 0 0.00189124)
(0.0315329 0 0.00222323)
(0.032215 0 0.00250112)
(0.0330794 0 0.00266785)
(0.0340358 0 0.00287475)
(0 0 0)
(0.00548131 0 -5.05774e-05)
(0.0104601 0 -9.68556e-05)
(0.0148226 0 -0.000138)
(0.0186251 0 -0.000174583)
(0.0219205 0 -0.000206992)
(0.0247563 0 -0.000235422)
(0.0271758 0 -0.000259881)
(0.0292181 0 -0.000280186)
(0.0309187 0 -0.000295963)
(0.03231 0 -0.000306628)
(0.033422 0 -0.000311375)
(0.0342822 0 -0.00030915)
(0.034917 0 -0.000298627)
(0.0353516 0 -0.000278185)
(0.0356107 0 -0.000245883)
(0.0357194 0 -0.000199457)
(0.0357039 0 -0.000136351)
(0.0355943 0 -5.38466e-05)
(0.0354234 0 5.08737e-05)
(0.0352282 0 0.000180463)
(0.0350506 0 0.000337167)
(0.0349364 0 0.000522113)
(0.0349378 0 0.000734325)
(0.0351066 0 0.000969613)
(0.0354876 0 0.00121821)
(0.0361163 0 0.00146277)
(0.0369977 0 0.00167806)
(0.0380656 0 0.00183302)
(0.039138 0 0.00189801)
(0.0403489 0 0.0019665)
(0 0 0)
(0.0055073 0 -5.78261e-05)
(0.0105122 0 -0.000110786)
(0.0149022 0 -0.000157963)
(0.0187349 0 -0.000200049)
(0.0220644 0 -0.000237529)
(0.0249394 0 -0.000270676)
(0.0274044 0 -0.000299571)
(0.0294997 0 -0.000324096)
(0.0312622 0 -0.000343944)
(0.032726 0 -0.000358612)
(0.0339226 0 -0.00036739)
(0.0348817 0 -0.000369361)
(0.0356318 0 -0.000363384)
(0.0362008 0 -0.000348099)
(0.0366163 0 -0.000321936)
(0.0369067 0 -0.00028315)
(0.037102 0 -0.0002299)
(0.0372349 0 -0.000160381)
(0.0373404 0 -7.29712e-05)
(0.0374584 0 3.33511e-05)
(0.0376324 0 0.000158694)
(0.0379067 0 0.000301678)
(0.038328 0 0.000458447)
(0.0389353 0 0.000621986)
(0.0397563 0 0.00078087)
(0.0407987 0 0.000918883)
(0.0420265 0 0.00101711)
(0.043328 0 0.001059)
(0.0444815 0 0.00104019)
(0.0457905 0 0.00100121)
(0 0 0)
(0.00553543 0 -6.50348e-05)
(0.0105686 0 -0.000124653)
(0.014988 0 -0.000177868)
(0.0188532 0 -0.000225501)
(0.0222191 0 -0.000268144)
(0.025136 0 -0.000306167)
(0.0276494 0 -0.000339736)
(0.0298009 0 -0.000368825)
(0.0316288 0 -0.000393222)
(0.0331685 0 -0.00041254)
(0.0344532 0 -0.000426217)
(0.0355145 0 -0.000433526)
(0.036383 0 -0.000433583)
(0.0370887 0 -0.000425374)
(0.0376617 0 -0.000407794)
(0.0381331 0 -0.000379718)
(0.0385351 0 -0.000340112)
(0.0389025 0 -0.000288202)
(0.039272 0 -0.000223694)
(0.0396831 0 -0.000147123)
(0.0401766 0 -6.02336e-05)
(0.0407926 0 3.35149e-05)
(0.0415676 0 0.000128343)
(0.0425278 0 0.000215757)
(0.0436819 0 0.000284462)
(0.0450098 0 0.000321513)
(0.046443 0 0.000315789)
(0.0478425 0 0.000264558)
(0.0489784 0 0.000183566)
(0.050258 0 6.7114e-05)
(0 0 0)
(0.00556517 0 -7.21775e-05)
(0.0106281 0 -0.000138406)
(0.0150786 0 -0.000197641)
(0.0189777 0 -0.00025084)
(0.0223819 0 -0.000298714)
(0.0253424 0 -0.000341739)
(0.0279061 0 -0.000380185)
(0.0301157 0 -0.000414132)
(0.0320107 0 -0.000443491)
(0.0336279 0 -0.000468019)
(0.0350021 0 -0.000487334)
(0.0361662 0 -0.000500942)
(0.0371527 0 -0.00050826)
(0.0379931 0 -0.000508667)
(0.0387196 0 -0.000501567)
(0.0393647 0 -0.000486485)
(0.0399621 0 -0.000463205)
(0.0405471 0 -0.00043195)
(0.0411561 0 -0.000393622)
(0.0418263 0 -0.000350097)
(0.0425943 0 -0.000304553)
(0.0434929 0 -0.000261806)
(0.0445476 0 -0.000228558)
(0.04577 0 -0.000213312)
(0.0471496 0 -0.000225636)
(0.0486428 0 -0.000274128)
(0.0501594 0 -0.000362341)
(0.05155 0 -0.00048212)
(0.0526001 0 -0.000604393)
(0.0537597 0 -0.000771551)
(0 0 0)
(0.0055959 0 -7.92253e-05)
(0.0106895 0 -0.000151987)
(0.015172 0 -0.000217196)
(0.019106 0 -0.000275951)
(0.0225494 0 -0.00032909)
(0.0255546 0 -0.000377206)
(0.0281695 0 -0.000420682)
(0.0304379 0 -0.00045972)
(0.0324004 0 -0.000494368)
(0.034095 0 -0.000524546)
(0.0355575 0 -0.000550076)
(0.0368225 0 -0.000570714)
(0.0379233 0 -0.000586198)
(0.0388929 0 -0.00059631)
(0.0397642 0 -0.000600957)
(0.0405706 0 -0.000600282)
(0.0413461 0 -0.000594809)
(0.042125 0 -0.000585623)
(0.0429418 0 -0.000574573)
(0.0438302 0 -0.000564507)
(0.0448206 0 -0.000559474)
(0.0459376 0 -0.000564849)
(0.0471953 0 -0.000587237)
(0.0485912 0 -0.000633955)
(0.0500984 0 -0.000711791)
(0.051657 0 -0.000824655)
(0.053165 0 -0.000969757)
(0.0544752 0 -0.00113201)
(0.0554018 0 -0.0012763)
(0.0563768 0 -0.00147458)
(0 0 0)
(0.00562698 0 -8.61471e-05)
(0.0107516 0 -0.000165337)
(0.0152664 0 -0.000236441)
(0.0192356 0 -0.000300709)
(0.0227185 0 -0.000359111)
(0.0257685 0 -0.00041236)
(0.0284344 0 -0.000460961)
(0.0307612 0 -0.000505247)
(0.0327902 0 -0.000545411)
(0.0345604 0 -0.000581545)
(0.0361085 0 -0.000613679)
(0.0374699 0 -0.000641822)
(0.0386788 0 -0.000666027)
(0.0397685 0 -0.000686452)
(0.0407726 0 -0.000703461)
(0.0417239 0 -0.000717731)
(0.0426556 0 -0.000730388)
(0.0436003 0 -0.000743162)
(0.0445891 0 -0.00075854)
(0.0456509 0 -0.000779905)
(0.0468096 0 -0.000811594)
(0.048081 0 -0.000858806)
(0.0494687 0 -0.000927223)
(0.0509587 0 -0.00102217)
(0.052513 0 -0.00114711)
(0.0540629 0 -0.0013014)
(0.0555049 0 -0.00147716)
(0.056702 0 -0.00165571)
(0.0574996 0 -0.00180252)
(0.0582605 0 -0.00201119)
(0 0 0)
(0.00565775 0 -9.29103e-05)
(0.0108131 0 -0.00017839)
(0.0153599 0 -0.000255281)
(0.0193641 0 -0.000324985)
(0.0228859 0 -0.000388605)
(0.0259801 0 -0.00044698)
(0.0286961 0 -0.000500739)
(0.0310797 0 -0.000550347)
(0.033173 0 -0.000596145)
(0.0350156 0 -0.000638394)
(0.0366448 0 -0.000677326)
(0.0380963 0 -0.000713188)
(0.0394047 0 -0.000746315)
(0.0406034 0 -0.000777195)
(0.0417252 0 -0.000806567)
(0.0428024 0 -0.000835521)
(0.043866 0 -0.000865608)
(0.0449458 0 -0.000898958)
(0.0460693 0 -0.000938364)
(0.0472596 0 -0.000987321)
(0.0485338 0 -0.00104995)
(0.0498999 0 -0.00113071)
(0.0513528 0 -0.00123384)
(0.0528705 0 -0.00136235)
(0.0544094 0 -0.00151643)
(0.055901 0 -0.00169131)
(0.0572501 0 -0.00187497)
(0.058338 0 -0.00204632)
(0.0590368 0 -0.00217517)
(0.0596247 0 -0.00235354)
(0 0 0)
(0.00568754 0 -9.94816e-05)
(0.0108727 0 -0.00019108)
(0.0154507 0 -0.000273617)
(0.0194888 0 -0.000348644)
(0.0230487 0 -0.000417396)
(0.0261856 0 -0.000480839)
(0.02895 0 -0.000539724)
(0.0313879 0 -0.000594644)
(0.0335422 0 -0.000646083)
(0.0354527 0 -0.000694463)
(0.0371571 0 -0.000740195)
(0.0386911 0 -0.000783739)
(0.0400889 0 -0.000825663)
(0.0413835 0 -0.000866719)
(0.0426067 0 -0.00090792)
(0.043789 0 -0.000950628)
(0.0449591 0 -0.000996633)
(0.0461433 0 -0.00104822)
(0.0473646 0 -0.00110818)
(0.0486408 0 -0.00117977)
(0.0499825 0 -0.00126651)
(0.0513907 0 -0.00137181)
(0.0528541 0 -0.00149829)
(0.0543459 0 -0.00164679)
(0.0558222 0 -0.0018149)
(0.0572212 0 -0.00199514)
(0.0584649 0 -0.00217279)
(0.0594632 0 -0.00232425)
(0.0601184 0 -0.00242073)
(0.060699 0 -0.00251339)
(0 0 0)
(0.0057159 0 -0.000105884)
(0.0109296 0 -0.000203453)
(0.0155376 0 -0.00029151)
(0.0196086 0 -0.000371757)
(0.0232051 0 -0.000445561)
(0.0263832 0 -0.000514007)
(0.0291938 0 -0.000577967)
(0.0316834 0 -0.000638156)
(0.033895 0 -0.00069519)
(0.0358687 0 -0.000749633)
(0.0376419 0 -0.000802056)
(0.0392502 0 -0.000853088)
(0.040727 0 -0.000903482)
(0.0421044 0 -0.000954173)
(0.0434126 0 -0.00100635)
(0.0446799 0 -0.0010615)
(0.0459321 0 -0.00112147)
(0.0471918 0 -0.0011885)
(0.0484776 0 -0.00126514)
(0.0498018 0 -0.00135412)
(0.0511696 0 -0.00145816)
(0.0525764 0 -0.00157948)
(0.0540065 0 -0.00171921)
(0.055431 0 -0.00187653)
(0.0568087 0 -0.00204773)
(0.0580866 0 -0.00222518)
(0.0592049 0 -0.00239695)
(0.0601055 0 -0.00254798)
(0.0607361 0 -0.00266703)
(0.0617302 0 -0.00255791)
(0 0 0)
(0.00403534 0 0)
(0.00673796 0 0)
(0.0102251 0 0)
(0.0139514 0 0)
(0.0176009 0 0)
(0.0210069 0 0)
(0.0240884 0 0)
(0.0268116 0 0)
(0.0291709 0 0)
(0.0311758 0 0)
(0.032841 0 0)
(0.0341807 0 0)
(0.0352065 0 0)
(0.0359277 0 0)
(0.0363501 0 0)
(0.0364757 0 0)
(0.0363027 0 0)
(0.0358259 0 0)
(0.0350365 0 0)
(0.0339224 0 0)
(0.0324679 0 0)
(0.0306541 0 0)
(0.0284586 0 0)
(0.0258557 0 0)
(0.0228163 0 0)
(0.0193082 0 0)
(0.0152963 0 0)
(0.0107428 0 0)
(0.00560626 0 0)
(0 0 0)
(0.00217174 0 -0.00229954)
(0.00533452 0 -0.00195073)
(0.00789066 0 -0.00181227)
(0.0112021 0 -0.00162198)
(0.0147605 0 -0.00142574)
(0.0182627 0 -0.00124267)
(0.021545 0 -0.00108015)
(0.0245248 0 -0.000939893)
(0.0271644 0 -0.00081989)
(0.0294556 0 -0.00071716)
(0.0314057 0 -0.00062919)
(0.0330271 0 -0.000554022)
(0.0343318 0 -0.000489915)
(0.0353294 0 -0.000434739)
(0.0360277 0 -0.000387)
(0.0364318 0 -0.000345545)
(0.0365425 0 -0.000309248)
(0.0363573 0 -0.000277157)
(0.0358705 0 -0.000248495)
(0.0350729 0 -0.000222623)
(0.0339521 0 -0.000199007)
(0.0324921 0 -0.000177187)
(0.0306738 0 -0.00015676)
(0.0284745 0 -0.000137358)
(0.0258683 0 -0.000118633)
(0.0228262 0 -0.000100241)
(0.0193159 0 -8.18245e-05)
(0.015302 0 -6.30019e-05)
(0.0107466 0 -4.33421e-05)
(0.0056081 0 -2.23378e-05)
(0 0 0)
(0.00645478 0 -0.00409986)
(0.00890783 0 -0.00364854)
(0.0111154 0 -0.00341114)
(0.0139704 0 -0.00307692)
(0.0170737 0 -0.00272374)
(0.0201671 0 -0.00238831)
(0.0231016 0 -0.00208675)
(0.0257909 0 -0.00182349)
(0.0281895 0 -0.0015962)
(0.0302846 0 -0.00140075)
(0.0320773 0 -0.00123284)
(0.0335729 0 -0.00108866)
(0.0347761 0 -0.000964834)
(0.0356908 0 -0.000857662)
(0.0363224 0 -0.000764573)
(0.0366725 0 -0.000683591)
(0.0367393 0 -0.000612494)
(0.0365183 0 -0.000549474)
(0.0360021 0 -0.000493059)
(0.0351804 0 -0.000442034)
(0.0340398 0 -0.000395376)
(0.0325635 0 -0.000352203)
(0.0307316 0 -0.000311733)
(0.0285211 0 -0.000273249)
(0.0259056 0 -0.000236071)
(0.0228557 0 -0.000199522)
(0.0193386 0 -0.0001629)
(0.0153187 0 -0.000125448)
(0.0107578 0 -8.63131e-05)
(0.00561386 0 -4.44883e-05)
(0 0 0)
(0.0124368 0 -0.00543441)
(0.0141075 0 -0.00496526)
(0.0158759 0 -0.00467472)
(0.0181191 0 -0.00425719)
(0.0205855 0 -0.00380429)
(0.0230895 0 -0.00336453)
(0.0255091 0 -0.00296196)
(0.0277599 0 -0.0026048)
(0.0297932 0 -0.00229253)
(0.0315906 0 -0.00202192)
(0.0331423 0 -0.00178818)
(0.0344424 0 -0.00158607)
(0.0354857 0 -0.00141077)
(0.0362704 0 -0.00125795)
(0.0367966 0 -0.00112438)
(0.0370611 0 -0.00100752)
(0.0370577 0 -0.000904433)
(0.0367791 0 -0.000812659)
(0.0362156 0 -0.000730194)
(0.035355 0 -0.000655367)
(0.0341822 0 -0.000586751)
(0.0326794 0 -0.000523105)
(0.0308256 0 -0.000463316)
(0.0285969 0 -0.000406356)
(0.0259662 0 -0.000351239)
(0.0229034 0 -0.00029698)
(0.0193754 0 -0.000242551)
(0.0153459 0 -0.000186837)
(0.010776 0 -0.000128577)
(0.00562315 0 -6.62816e-05)
(0 0 0)
(0.0193479 0 -0.00632779)
(0.0202956 0 -0.00588257)
(0.0215795 0 -0.0055709)
(0.0231524 0 -0.00512191)
(0.024905 0 -0.0046252)
(0.02673 0 -0.00413242)
(0.0285383 0 -0.00367154)
(0.0302608 0 -0.00325545)
(0.0318524 0 -0.00288664)
(0.0332832 0 -0.00256274)
(0.0345324 0 -0.00227985)
(0.035583 0 -0.00203285)
(0.0364213 0 -0.00181657)
(0.0370394 0 -0.00162678)
(0.0374297 0 -0.00145967)
(0.0375817 0 -0.00131194)
(0.0374855 0 -0.00118068)
(0.0371303 0 -0.00106312)
(0.0365036 0 -0.000956948)
(0.0355909 0 -0.000860184)
(0.034375 0 -0.000771114)
(0.0328365 0 -0.00068822)
(0.0309531 0 -0.000610123)
(0.0286997 0 -0.000535534)
(0.0260484 0 -0.0004632)
(0.0229682 0 -0.00039186)
(0.0194253 0 -0.000320185)
(0.0153826 0 -0.000246726)
(0.0108006 0 -0.000169837)
(0.0056357 0 -8.75664e-05)
(0 0 0)
(0.0265672 0 -0.0068325)
(0.0268797 0 -0.00642427)
(0.0276763 0 -0.00611583)
(0.028594 0 -0.00567598)
(0.0296401 0 -0.00518248)
(0.0307777 0 -0.00468313)
(0.0319529 0 -0.00420552)
(0.0331178 0 -0.00376534)
(0.0342323 0 -0.00336863)
(0.035259 0 -0.00301449)
(0.0361687 0 -0.00270035)
(0.036936 0 -0.00242256)
(0.0375402 0 -0.00217677)
(0.0379654 0 -0.00195913)
(0.0381957 0 -0.0017657)
(0.0382141 0 -0.00159284)
(0.038007 0 -0.00143785)
(0.0375598 0 -0.00129802)
(0.0368569 0 -0.00117093)
(0.0358809 0 -0.00105448)
(0.0346125 0 -0.000946785)