/*--------------------------------*- C++ -*----------------------------------*\
| =========                 |                                                 |
| \\      /  F ield         | OpenFOAM: The Open Source CFD Toolbox           |
|  \\    /   O peration     | Version:  dev                                   |
|   \\  /    A nd           | Web:      www.OpenFOAM.org                      |
|    \\/     M anipulation  |                                                 |
\*---------------------------------------------------------------------------*/
FoamFile
{
    version     2.0;
    format      ascii;
    class       volVectorField;
    location    "0.77";
    object      Force;
}
// * * * * * * * * * * * * * * * * * * * * * * * * * * * * * * * * * * * * * //

dimensions      [1 1 -2 0 0 0 0];

internalField   uniform (0 0 0);

boundaryField
{
    inlet
    {
        type            calculated;
        value           nonuniform 0();
    }
    outlet
    {
        type            calculated;
        value           nonuniform 0();
    }
    flap
    {
        type            calculated;
        value           nonuniform List<vector> 
33
(
(4.47649 -1.6071e-21 -0.479089)
(4.27083 1.10486e-17 -0.969652)
(4.07635 1.46347e-21 -1.28189)
(3.91319 -5.56467e-21 -1.41162)
(3.80587 1.65173e-17 -1.41256)
(3.74611 -7.14458e-23 -1.32928)
(3.71895 0 -1.19822)
(3.70941 4.74305e-21 -1.04334)
(3.69746 -5.29426e-18 -0.882389)
(3.67085 1.5123e-17 -0.727586)
(3.62293 -5.09711e-18 -0.583352)
(3.54066 1.0446e-17 -0.459609)
(3.39727 -5.87747e-39 -0.361528)
(3.14142 1.56089e-17 -0.282846)
(2.63868 1.53922e-17 -0.223699)
(0.00698262 8.23679e-18 0.0547761)
(-0.00974495 -1.89579e-22 -0.133186)
(-0.0353243 -1.24262e-22 -0.370053)
(-1.35016 1.17177e-17 0.148791)
(-1.38878 1.29455e-17 0.322277)
(-1.41372 -4.21419e-18 0.449301)
(-1.43644 -1.53325e-17 0.520257)
(-1.4489 1.62525e-17 0.53966)
(-1.44311 1.69034e-17 0.514433)
(-1.41094 1.33773e-17 0.457387)
(-1.34943 3.68719e-18 0.383921)
(-1.26732 -1.75106e-17 0.308278)
(-1.18033 -1.58686e-17 0.23969)
(-1.10573 -1.73387e-17 0.183894)
(-1.05721 1.46937e-39 0.143314)
(-1.04141 -6.99456e-19 0.116738)
(-1.0578 -1.10203e-38 0.101797)
(-1.10209 1.65261e-17 0.100981)
)
;
    }
    upperWall
    {
        type            calculated;
        value           nonuniform 0();
    }
    lowerWall
    {
        type            calculated;
        value           uniform (0 0 0);
    }
    frontAndBack
    {
        type            empty;
    }
    procBoundary4to1
    {
        type            processor;
        value           uniform (0 0 0);
    }
    procBoundary4to2
    {
        type            processor;
        value           uniform (0 0 0);
    }
    procBoundary4to3
    {
        type            processor;
        value           uniform (0 0 0);
    }
    procBoundary4to5
    {
        type            processor;
        value           uniform (0 0 0);
    }
}


// ************************************************************************* //
