/*--------------------------------*- C++ -*----------------------------------*\
| =========                 |                                                 |
| \\      /  F ield         | OpenFOAM: The Open Source CFD Toolbox           |
|  \\    /   O peration     | Version:  dev                                   |
|   \\  /    A nd           | Web:      www.OpenFOAM.org                      |
|    \\/     M anipulation  |                                                 |
\*---------------------------------------------------------------------------*/
FoamFile
{
    version     2.0;
    format      ascii;
    class       volVectorField;
    location    "1.73";
    object      Force;
}
// * * * * * * * * * * * * * * * * * * * * * * * * * * * * * * * * * * * * * //

dimensions      [1 1 -2 0 0 0 0];

internalField   uniform (0 0 0);

boundaryField
{
    inlet
    {
        type            calculated;
        value           uniform (0 0 0);
    }
    outlet
    {
        type            calculated;
        value           uniform (0 0 0);
    }
    flap
    {
        type            calculated;
        value           nonuniform List<vector> 
33
(
(2.45221 1.5294e-18 -0.185894)
(2.40541 2.31042e-17 -0.463925)
(2.27209 -4.7592e-22 -0.727286)
(2.05576 1.98417e-17 -0.914481)
(1.79242 -3.21605e-22 -1.01811)
(1.52194 -5.3905e-21 -1.04876)
(1.2729 -3.76158e-37 -1.02572)
(1.0614 -7.49311e-18 -0.969397)
(0.889068 -1.22222e-22 -0.895729)
(0.750605 1.70532e-17 -0.81403)
(0.638177 -5.16858e-18 -0.728769)
(0.541166 -1.5687e-17 -0.638864)
(0.449088 3.21173e-22 -0.539972)
(0.35186 0 -0.424918)
(0.236469 0 -0.284881)
(0.624951 2.17595e-18 0.506833)
(0.408263 -2.74084e-21 0.329447)
(0.188664 -8.54256e-22 0.153889)
(0.01359 -1.1664e-17 -0.0010625)
(0.0136106 -2.08411e-20 -0.00268227)
(0.0136197 4.26877e-20 -0.00445365)
(0.0135978 2.09411e-23 -0.00615499)
(0.0135816 3.67342e-40 -0.00785161)
(0.0136124 -1.05002e-22 -0.00955336)
(0.0137345 2.554e-22 -0.0112752)
(0.0139698 -1.36239e-17 -0.013017)
(0.0143457 1.39142e-17 -0.01477)
(0.0148603 -1.22639e-19 -0.0165011)
(0.0154336 1.48685e-17 -0.018095)
(0.0159999 -1.36668e-19 -0.0194397)
(0.0166401 -1.43588e-19 -0.0206113)
(0.0182683 2.01402e-17 -0.0222854)
(0.0289998 3.32286e-17 -0.0364253)
)
;
    }
    upperWall
    {
        type            calculated;
        value           uniform (0 0 0);
    }
    lowerWall
    {
        type            calculated;
        value           uniform (0 0 0);
    }
    frontAndBack
    {
        type            empty;
    }
}


// ************************************************************************* //
