/*--------------------------------*- C++ -*----------------------------------*\
| =========                 |                                                 |
| \\      /  F ield         | OpenFOAM: The Open Source CFD Toolbox           |
|  \\    /   O peration     | Version:  dev                                   |
|   \\  /    A nd           | Web:      www.OpenFOAM.org                      |
|    \\/     M anipulation  |                                                 |
\*---------------------------------------------------------------------------*/
FoamFile
{
    version     2.0;
    format      ascii;
    class       surfaceScalarField;
    location    "3.12";
    object      meshPhi;
}
// * * * * * * * * * * * * * * * * * * * * * * * * * * * * * * * * * * * * * //

dimensions      [0 3 -1 0 0 0 0];

internalField   nonuniform List<scalar> 
881
(
-5.3362e-06
1.58666e-07
-8.21568e-06
4.29653e-07
-7.3854e-06
6.05067e-07
-2.64265e-06
6.73808e-07
5.56404e-06
6.39545e-07
1.63707e-05
5.1281e-07
2.86778e-05
3.09156e-07
4.12978e-05
4.84604e-08
5.3085e-05
-2.45951e-07
6.30439e-05
-5.48598e-07
7.04097e-05
-8.33528e-07
7.47051e-05
-1.07659e-06
7.57684e-05
-1.25788e-06
7.37473e-05
-1.3642e-06
6.9055e-05
-1.38999e-06
6.22984e-05
-1.33748e-06
5.41911e-05
-1.21771e-06
4.54622e-05
-1.04856e-06
3.67726e-05
-8.5111e-07
2.8654e-05
-6.46646e-07
-4.5877e-07
-5.5854e-06
3.20453e-07
-8.64385e-06
8.67995e-07
-7.92053e-06
1.2233e-06
-3.22498e-06
1.36439e-06
4.98848e-06
1.29873e-06
1.58497e-05
1.04735e-06
2.82529e-05
6.41113e-07
4.10011e-05
1.19571e-07
5.29368e-05
-4.70762e-07
6.30537e-05
-1.07899e-06
7.05739e-05
-1.65306e-06
7.50072e-05
-2.14438e-06
7.61814e-05
-2.5126e-06
7.42377e-05
-2.73034e-06
6.95885e-05
-2.78599e-06
6.28423e-05
-2.68477e-06
5.47183e-05
-2.44878e-06
4.59538e-05
-2.11325e-06
3.72181e-05
-1.72035e-06
2.90502e-05
-1.31305e-06
-9.3756e-07
-5.87277e-06
4.86575e-07
-9.153e-06
1.31861e-06
-8.58503e-06
1.8607e-06
-3.98761e-06
2.08033e-06
4.1803e-06
1.98905e-06
1.50457e-05
1.61835e-06
2.75034e-05
1.01397e-06
4.03517e-05
2.34681e-07
5.24251e-05
-6.49899e-07
6.27106e-05
-1.5638e-06
7.04209e-05
-2.42959e-06
7.50517e-05
-3.17426e-06
7.64167e-05
-3.73671e-06
7.46444e-05
-4.07454e-06
7.0138e-05
-4.16951e-06
6.34993e-05
-4.03026e-06
5.5445e-05
-3.68939e-06
4.67142e-05
-3.19817e-06
3.79797e-05
-2.61913e-06
2.97863e-05
-2.01666e-06
-1.45728e-06
-6.17683e-06
6.57909e-07
-9.71168e-06
1.78428e-06
-9.34509e-06
2.52228e-06
-4.89984e-06
2.8292e-06
3.1626e-06
2.72064e-06
1.3969e-05
2.23877e-06
2.64205e-05
1.44471e-06
3.93208e-05
4.1565e-07
5.15031e-05
-7.57039e-07
6.19517e-05
-1.97324e-06
6.98726e-05
-3.13087e-06
7.47501e-05
-4.13308e-06
7.63823e-05
-4.8984e-06
7.48786e-05
-5.36976e-06
7.06223e-05
-5.52161e-06
6.42001e-05
-5.36367e-06
5.63174e-05
-4.93732e-06
4.77053e-05
-4.30884e-06
3.90328e-05
-3.55973e-06
3.08473e-05
-2.77477e-06
-2.03775e-06
-6.5574e-06
8.35744e-07
-1.04197e-05
2.26884e-06
-1.03179e-05
3.21398e-06
-6.07971e-06
3.61869e-06
1.83145e-06
3.50374e-06
1.25429e-05
2.92229e-06
2.49603e-05
1.95075e-06
3.78986e-05
6.83823e-07
5.01996e-05
-7.67659e-07
6.08418e-05
-2.28085e-06
6.90202e-05
-3.72908e-06
7.42087e-05
-4.99274e-06
7.61876e-05
-5.97123e-06
7.50413e-05
-6.59284e-06
7.11272e-05
-6.82361e-06
6.501e-05
-6.67192e-06
5.73768e-05
-6.18578e-06
4.89464e-05
-5.44493e-06
4.0379e-05
-4.54816e-06
3.22209e-05
-3.59855e-06
-2.69252e-06
-7.01784e-06
1.0212e-06
-1.12809e-05
2.77516e-06
-1.15061e-05
3.93985e-06
-7.53001e-06
4.45473e-06
1.81402e-07
4.34789e-06
1.07606e-05
3.68303e-06
2.31168e-05
2.5496e-06
3.60757e-05
1.05909e-06
4.84946e-05
-6.58511e-07
5.93517e-05
-2.45958e-06
6.78281e-05
-4.19486e-06
7.33848e-05
-5.72342e-06
7.57819e-05
-6.92597e-06
7.5075e-05
-7.7157e-06
7.15906e-05
-8.04927e-06
6.58638e-05
-7.93222e-06
5.8557e-05
-7.41686e-06
5.03713e-05
-6.59363e-06
4.1956e-05
-5.57652e-06
3.38547e-05
-4.48502e-06
-3.42312e-06
-7.55988e-06
1.21506e-06
-1.22962e-05
3.30529e-06
-1.29107e-05
4.70397e-06
-9.25144e-06
5.34493e-06
-1.78891e-06
5.26391e-06
8.61581e-06
4.53423e-06
2.08804e-05
3.25729e-06
3.3841e-05
1.56077e-06
4.63687e-05
-4.06906e-07
5.74477e-05
-2.48335e-06
6.62522e-05
-4.49985e-06
7.22254e-05
-6.29561e-06
7.5103e-05
-7.73262e-06
7.49095e-05
-8.70899e-06
7.19351e-05
-9.17108e-06
6.66792e-05
-9.11982e-06
5.97722e-05
-8.60915e-06
5.18909e-05
-7.73691e-06
4.36731e-05
-6.62907e-06
3.56625e-05
-5.41997e-06
-4.21758e-06
-8.18489e-06
1.41803e-06
-1.34668e-05
3.8618e-06
-1.45334e-05
5.51153e-06
-1.12455e-05
6.29673e-06
-4.08076e-06
6.26046e-06
6.10305e-06
5.48576e-06
1.82379e-05
4.08688e-06
3.11758e-05
2.20625e-06
4.37983e-05
7.97188e-09
5.50962e-05
-2.32871e-06
6.42439e-05
-4.61754e-06
7.06677e-05
-6.6796e-06
7.4076e-05
-8.35927e-06
7.44588e-05
-9.53974e-06
7.20661e-05
-1.01562e-05
6.73553e-05
-1.02029e-05
6.09187e-05
-9.73272e-06
5.34024e-05
-8.84749e-06
4.54285e-05
-7.6816e-06
3.75379e-05
-6.3813e-06
-5.05443e-06
-8.895e-06
1.6309e-06
-1.47956e-05
4.44709e-06
-1.63761e-05
6.36633e-06
-1.35144e-05
7.31488e-06
-6.69633e-06
7.34315e-06
3.21967e-06
6.54513e-06
1.5182e-05
5.04913e-06
2.80627e-05
3.00996e-06
4.07555e-05
6.04559e-07
5.22598e-05
-1.97299e-06
6.17516e-05
-4.52089e-06
6.86438e-05
-6.84397e-06
7.26169e-05
-8.77058e-06
7.36245e-05
-1.01694e-05
7.18724e-05
-1.09637e-05
6.77711e-05
-1.11396e-05
6.18695e-05
-1.07458e-05
5.47782e-05
-9.88481e-06
4.70968e-05
-8.69597e-06
3.93577e-05
-7.33403e-06
-5.90222e-06
-9.69357e-06
1.85431e-06
-1.62871e-05
5.06317e-06
-1.84418e-05
7.27148e-06
-1.60599e-05
8.4028e-06
-9.63626e-06
8.51651e-06
-3.32426e-08
7.71898e-06
1.17101e-05
6.15264e-06
2.44896e-05
3.98314e-06
3.72157e-05
1.39794e-06
4.89003e-05
-1.39642e-06
5.87226e-05
-4.18495e-06
6.60831e-05
-6.75843e-06
7.06366e-05
-8.93087e-06
7.2299e-05
-1.05573e-05
7.12295e-05
-1.15489e-05
6.77884e-05
-1.18818e-05
6.24763e-05
-1.15983e-05
5.58635e-05
-1.07983e-05
4.85219e-05
-9.62227e-06
4.09712e-05
-8.22999e-06
-6.71704e-06
-1.0586e-05
2.08915e-06
-1.79486e-05
5.71239e-06
-2.0733e-05
8.22917e-06
-1.88807e-05
9.56199e-06
-1.29004e-05
9.78347e-06
-3.65467e-06
9.01223e-06
7.82214e-06
7.40284e-06
2.04487e-05
5.13301e-06
3.316e-05
2.39909e-06
4.49845e-05
-5.83305e-07
5.5106e-05
-3.58853e-06
6.29158e-05
-6.39566e-06
6.80443e-05
-8.80634e-06
7.03701e-05
-1.06631e-05
7.00054e-05
-1.18651e-05
6.72577e-05
-1.23779e-05
6.2576e-05
-1.22349e-05
5.64861e-05
-1.15303e-05
4.95281e-05
-1.04024e-05
4.22046e-05
-9.01231e-06
-7.44618e-06
-1.15801e-05
2.33631e-06
-1.9788e-05
6.39585e-06
-2.3251e-05
9.23941e-06
-2.19718e-05
1.07924e-05
-1.64855e-05
1.11445e-05
-7.64512e-06
1.04268e-05
3.51969e-06
8.80294e-06
1.59384e-05
6.46311e-06
2.85759e-05
3.61403e-06
4.04852e-05
4.76889e-07
5.08577e-05
-2.71562e-06
5.90776e-05
-5.73321e-06
6.47535e-05
-8.36733e-06
6.77288e-05
-1.04496e-05
6.80687e-05
-1.18679e-05
6.60278e-05
-1.25764e-05
6.20015e-05
-1.25986e-05
5.64682e-05
-1.20202e-05
4.99328e-05
-1.09743e-05
4.28775e-05
-9.61985e-06
-8.03276e-06
-1.26862e-05
2.59644e-06
-2.1814e-05
7.11448e-06
-2.59953e-05
1.0302e-05
-2.53248e-05
1.20923e-05
-2.03773e-05
1.25955e-05
-1.19986e-05
1.19582e-05
-1.19691e-06
1.03519e-05
1.09603e-05
7.97449e-06
2.3459e-05
5.0443e-06
3.53852e-05
1.78858e-06
4.5944e-05
-1.55673e-06
5.45153e-05
-4.75534e-06
6.06895e-05
-7.59074e-06
6.42771e-05
-9.88564e-06
6.5299e-05
-1.15177e-05
6.39577e-05
-1.24303e-05
6.05949e-05
-1.26358e-05
5.56407e-05
-1.22099e-05
4.95626e-05
-1.12776e-05
4.28202e-05
-9.99307e-06
-8.42169e-06
-1.39171e-05
2.87052e-06
-2.40382e-05
7.87012e-06
-2.89616e-05
1.14158e-05
-2.89274e-05
1.34568e-05
-2.45528e-05
1.41298e-05
-1.66905e-05
1.35969e-05
-6.31705e-06
1.204e-05
5.51983e-06
9.66128e-06
1.78139e-05
6.68598e-06
2.96791e-05
3.34958e-06
4.03457e-05
-1.10149e-07
4.91926e-05
-3.45475e-06
5.57958e-05
-6.46239e-06
5.99374e-05
-8.94909e-06
6.15974e-05
-1.07842e-05
6.0929e-05
-1.1901e-05
5.82224e-05
-1.23009e-05
5.38599e-05
-1.20486e-05
4.82717e-05
-1.12594e-05
4.18933e-05
-1.00799e-05
-8.56581e-06
-1.51422e-05
-2.6384e-05
-3.2158e-05
1.25674e-05
-3.27768e-05
1.48911e-05
-2.90077e-05
1.57514e-05
-2.17082e-05
1.53467e-05
-1.18355e-05
1.38697e-05
-3.95339e-07
1.15276e-05
1.16219e-05
8.54697e-06
2.33439e-05
5.16885e-06
3.40281e-05
1.63468e-06
4.30613e-05
-1.81716e-06
5.00096e-05
-4.9632e-06
5.46314e-05
-7.61533e-06
5.68707e-05
-9.63665e-06
5.68357e-05
-1.09521e-05
5.47685e-05
-1.15526e-05
5.10067e-05
-1.14919e-05
4.59448e-05
-1.08746e-05
3.99948e-05
-9.83795e-06
-8.42866e-06
-3.68418e-05
-3.83255e-05
1.63831e-05
-3.50689e-05
1.74804e-05
-2.81259e-05
1.72269e-05
-1.84682e-05
1.58609e-05
-7.09784e-06
1.35941e-05
4.99991e-06
1.06521e-05
1.69331e-05
7.27419e-06
2.7946e-05
3.70558e-06
3.74184e-05
1.85462e-07
4.48959e-05
-3.06401e-06
5.01092e-05
-5.85356e-06
5.2968e-05
-8.04242e-06
5.35441e-05
-9.54879e-06
5.2044e-05
-1.03546e-05
4.8776e-05
-1.05027e-05
4.41162e-05
-1.0087e-05
3.84698e-05
-9.23474e-06
-7.98392e-06
-4.38323e-05
-4.13701e-05
1.92811e-05
-3.49493e-05
1.92394e-05
-2.57348e-05
1.80085e-05
-1.47067e-05
1.58531e-05
-2.81322e-06
1.29932e-05
9.06666e-06
9.66026e-06
2.01643e-05
6.09857e-06
2.98603e-05
2.54904e-06
3.76923e-05
-7.6845e-07
4.33712e-05
-3.66607e-06
4.67784e-05
-6.00142e-06
4.79513e-05
-7.68784e-06
4.70617e-05
-8.69951e-06
4.43882e-05
-9.06979e-06
4.02862e-05
-8.88236e-06
3.51512e-05
-8.25541e-06
-7.22162e-06
-4.81742e-05
-4.25173e-05
2.13295e-05
-3.38125e-05
2.03015e-05
-2.32339e-05
1.82844e-05
-1.16637e-05
1.5547e-05
5.42003e-08
1.23002e-05
1.11366e-05
8.7853e-06
2.09619e-05
5.24539e-06
2.90646e-05
1.89608e-06
3.5141e-05
-1.07843e-06
3.90491e-05
-3.53603e-06
4.07974e-05
-5.38694e-06
4.05277e-05
-6.59902e-06
3.84933e-05
-7.19722e-06
3.5034e-05
-7.25659e-06
3.0545e-05
-6.8897e-06
-6.13887e-06
-5.06758e-05
-4.27272e-05
2.26794e-05
-3.26897e-05
2.08809e-05
-2.15582e-05
1.83009e-05
-1.00994e-05
1.51765e-05
8.66548e-07
1.17429e-05
1.07237e-05
8.25066e-06
1.90098e-05
4.9059e-06
2.54108e-05
1.88674e-06
2.97667e-05
-6.66522e-07
3.20617e-05
-2.66242e-06
3.24119e-05
-4.06337e-06
3.10478e-05
-4.88638e-06
2.82955e-05
-5.19759e-06
2.45555e-05
-5.10354e-06
-4.66392e-06
-5.2313e-05
-4.31166e-05
2.35694e-05
-3.25321e-05
2.12484e-05
-2.14058e-05
1.82703e-05
-1.06595e-05
1.49449e-05
-8.72079e-07
1.15383e-05
7.50702e-06
8.23441e-06
1.41556e-05
5.20322e-06
1.89013e-05
2.58259e-06
2.17072e-05
4.64654e-07
2.26654e-05
-1.10764e-06
2.19824e-05
-2.14273e-06
1.99613e-05
-2.69469e-06
1.69844e-05
-2.85365e-06
-2.66914e-06
-5.4164e-05
-4.44802e-05
-3.38843e-05
2.15103e-05
-2.34455e-05
1.83635e-05
-1.38375e-05
1.50728e-05
-5.45746e-06
1.18462e-05
1.35664e-06
8.83527e-06
6.42876e-06
6.17699e-06
9.70049e-06
3.96283e-06
1.12405e-05
2.24221e-06
1.12267e-05
1.01551e-06
9.92529e-06
2.42745e-07
7.66386e-06
-1.44549e-07
-1.78668e-07
-4.73717e-05
-3.74909e-05
2.18956e-05
-2.81688e-05
1.882e-05
-1.98779e-05
1.56979e-05
-1.29906e-05
1.27381e-05
-7.66122e-06
1.00735e-05
-3.98034e-06
7.79049e-06
-1.90134e-06
5.9492e-06
-1.27679e-06
4.55669e-06
-1.88449e-06
3.58574e-06
-3.45806e-06
2.98537e-06
2.72179e-06
-5.24878e-05
-4.37508e-05
-3.57496e-05
1.97007e-05
-2.8882e-05
1.68707e-05
-2.33667e-05
1.42211e-05
-1.93499e-05
1.18951e-05
-1.67938e-05
9.96592e-06
-1.55798e-05
8.43829e-06
-1.55297e-05
7.29552e-06
-1.64267e-05
6.50126e-06
6.01584e-06
-5.28199e-05
-4.62366e-05
-4.06908e-05
1.85316e-05
-3.64173e-05
1.62224e-05
-3.34708e-05
1.42355e-05
-3.17369e-05
1.26087e-05
-3.10853e-05
1.13249e-05
-3.13384e-05
1.03621e-05
9.67183e-06
-5.95322e-05
-5.52066e-05
2.06585e-05
-5.1972e-05
1.87026e-05
-4.98026e-05
1.70074e-05
-4.86295e-05
1.56139e-05
-4.8295e-05
1.45116e-05
1.36404e-05
-7.5515e-05
-7.22654e-05
-6.98416e-05
2.15421e-05
-6.82315e-05
2.01027e-05
-6.73754e-05
1.88797e-05
1.78517e-05
-9.16789e-05
-8.98969e-05
-8.86773e-05
2.33743e-05
2.22377e-05
-0.000112051
)
;

boundaryField
{
    inlet
    {
        type            calculated;
        value           uniform 0;
    }
    outlet
    {
        type            calculated;
        value           nonuniform 0();
    }
    flap
    {
        type            calculated;
        value           nonuniform 0();
    }
    upperWall
    {
        type            calculated;
        value           nonuniform 0();
    }
    lowerWall
    {
        type            calculated;
        value           uniform 0;
    }
    frontAndBack
    {
        type            empty;
        value           nonuniform 0();
    }
    procBoundary3to0
    {
        type            processor;
        value           nonuniform List<scalar> 
34
(
3.12756e-06
8.61495e-06
2.96197e-05
1.36784e-05
4.09602e-05
1.78118e-05
4.9225e-05
2.09954e-05
5.49083e-05
2.33167e-05
5.88385e-05
2.49319e-05
6.19341e-05
2.60266e-05
2.41711e-05
5.68977e-05
2.4636e-05
6.13089e-05
2.51906e-05
2.25456e-05
6.01458e-05
2.3513e-05
2.10155e-05
6.47289e-05
2.27561e-05
7.94933e-05
2.48801e-05
2.3156e-05
9.39858e-05
2.58863e-05
2.45865e-05
0.000113285
2.76696e-05
2.65622e-05
)
;
    }
    procBoundary3to1
    {
        type            processor;
        value           nonuniform List<scalar> 9(1.31241e-05 4.51015e-06 -5.91876e-06 -1.81402e-05 -3.23089e-05 -4.85633e-05 -6.70188e-05 -8.77736e-05 -0.000110785);
    }
    procBoundary3to4
    {
        type            processor;
        value           nonuniform List<scalar> 
19
(
2.1456e-05
2.17969e-05
2.24642e-05
2.34486e-05
2.47307e-05
2.62687e-05
2.79878e-05
2.97822e-05
3.15328e-05
3.3104e-05
3.4339e-05
3.50727e-05
3.51509e-05
3.44523e-05
3.28952e-05
3.15926e-05
2.87769e-05
2.48973e-05
1.98223e-05
)
;
    }
}


// ************************************************************************* //
