/*--------------------------------*- C++ -*----------------------------------*\
| =========                 |                                                 |
| \\      /  F ield         | OpenFOAM: The Open Source CFD Toolbox           |
|  \\    /   O peration     | Version:  dev                                   |
|   \\  /    A nd           | Web:      www.OpenFOAM.org                      |
|    \\/     M anipulation  |                                                 |
\*---------------------------------------------------------------------------*/
FoamFile
{
    version     2.0;
    format      ascii;
    class       volScalarField;
    location    "0.45";
    object      p;
}
// * * * * * * * * * * * * * * * * * * * * * * * * * * * * * * * * * * * * * //

dimensions      [0 2 -2 0 0 0 0];

internalField   nonuniform List<scalar> 
2790
(
84.5944
84.4721
84.6936
85.2537
86.0445
87.0109
88.1454
89.4497
90.9211
92.5539
94.3419
96.2784
98.3549
100.56
102.88
105.296
107.783
110.31
112.84
115.327
117.72
119.964
121.999
123.774
125.246
126.393
127.219
127.764
128.092
128.27
84.409
84.3842
84.6287
85.1868
85.9742
86.9376
88.0677
89.366
90.8303
92.4549
94.2338
96.1604
98.2264
100.421
102.731
105.137
107.615
110.137
112.665
115.156
117.56
119.82
121.879
123.684
125.192
126.377
127.247
127.845
128.249
128.549
84.2181
84.2642
84.527
85.0753
85.8502
86.8012
87.9167
89.1974
90.6411
92.2421
93.9943
95.8911
97.9241
100.083
102.354
104.72
107.158
109.64
112.134
114.597
116.984
119.244
121.324
123.175
124.758
126.053
127.065
127.831
128.397
128.839
84.005
84.0846
84.3592
84.8983
85.6586
86.5934
87.6897
88.9472
90.3632
91.9321
93.6477
95.5029
97.4894
99.5968
101.812
104.118
106.495
108.917
111.352
113.765
116.116
118.36
120.452
122.35
124.023
125.45
126.632
127.581
128.299
128.841
83.7599
83.855
84.1378
84.6689
85.4129
86.3272
87.3985
88.6258
90.0061
91.5337
93.2021
95.0042
96.9313
98.9733
101.117
103.348
105.646
107.987
110.346
112.691
114.987
117.199
119.291
121.228
122.983
124.537
125.875
126.984
127.823
128.433
83.4785
83.58
83.8653
84.3864
85.1108
85.9997
87.0403
88.2309
89.5681
91.0462
92.6583
94.3969
96.2533
98.2174
100.277
102.417
104.62
106.865
109.129
111.386
113.609
115.768
117.837
119.79
121.604
123.259
124.728
125.974
126.925
127.626
83.1589
83.2618
83.5444
84.0526
84.7545
85.6138
86.6185
87.7665
89.0539
90.4746
92.0215
93.6868
95.4616
97.3359
99.2978
101.333
103.425
105.557
107.707
109.855
111.979
114.059
116.074
118.008
119.844
121.562
123.131
124.498
125.575
126.431
82.8007
82.9018
83.1774
83.6696
84.346
85.1718
86.1359
87.2356
88.4666
89.8226
91.2959
92.8784
94.5613
96.3342
98.1854
100.101
102.067
104.066
106.081
108.095
110.091
112.055
113.974
115.84
117.644
119.375
121.006
122.481
123.705
124.806
82.4043
82.5015
82.7667
83.2398
83.8877
84.6764
85.5952
86.6413
87.81
89.0942
90.4861
91.9772
93.558
95.2183
96.946
98.728
100.55
102.396
104.252
106.102
107.933
109.736
111.503
113.236
114.936
116.605
118.235
119.789
121.174
122.63
81.9707
82.0625
82.3146
82.7656
83.3821
84.1303
84.9998
85.9875
87.0882
88.2944
89.5976
90.989
92.4585
93.9953
95.5871
97.2203
98.8807
100.553
102.222
103.875
105.498
107.085
108.631
110.144
111.637
113.132
114.654
116.211
117.735
119.666
81.5012
81.5864
81.8232
82.2497
82.8321
83.5367
84.3531
85.278
86.3057
87.4281
88.6363
89.9204
91.27
92.6733
94.1172
95.5875
97.0689
98.5452
100
101.419
102.786
104.093
105.336
106.519
107.666
108.816
110.039
111.425
112.971
115.482
80.9975
81.0753
81.295
81.6947
82.2405
82.8987
83.6587
84.517
85.4674
86.501
87.6083
88.7787
90.0006
91.2614
92.5467
93.8408
95.1266
96.3858
97.599
98.7466
99.809
100.769
101.613
102.338
102.957
103.517
104.121
104.967
106.19
109.264
80.4616
80.5313
80.7324
81.1035
81.6105
82.2198
82.9207
83.7091
84.5783
85.519
86.5205
87.5715
88.6593
89.7698
90.8872
91.9936
93.0694
94.0926
95.0389
95.8818
96.592
97.1385
97.4891
97.6138
97.4929
97.136
96.6244
96.2236
96.2561
99.4676
79.8956
79.9567
80.138
80.4788
80.9453
81.5037
82.143
82.8589
83.644
84.4882
85.3801
86.3072
87.2557
88.2099
89.152
90.0617
90.9159
91.688
92.3474
92.8582
93.178
93.2555
93.0287
92.4218
91.3438
89.6943
87.3907
84.5277
81.324
82.7254
79.3017
79.3538
79.5143
79.8235
80.2481
80.7539
81.3299
81.9711
82.6697
83.4149
84.1942
84.9943
85.7998
86.5935
87.3552
88.062
88.6868
89.1981
89.5576
89.719
89.6241
89.1977
88.34
86.9129
84.7174
81.4557
76.6549
69.6246
58.725
49.3596
-48.1528
-48.5665
-49.5479
-51.3438
-54.0726
-57.7808
-62.4613
-68.0605
-74.4788
-81.5683
-89.1279
-96.8977
-104.557
-111.726
-117.981
-122.87
-125.943
-126.78
-125.018
-120.389
-112.803
-102.381
-89.4211
-74.3722
-57.7711
-40.1799
-22.4274
-6.35857
5.34109
11.3534
-48.0252
-48.5379
-49.5974
-51.4625
-54.2529
-58.0198
-62.7601
-68.4233
-74.9122
-82.0798
-89.7251
-97.5869
-105.342
-112.608
-118.955
-123.926
-127.069
-127.963
-126.247
-121.654
-114.1
-103.729
-90.8457
-75.9034
-59.455
-42.1211
-24.8002
-9.24227
2.01394
6.8721
-48.0884
-48.8863
-50.2126
-52.3022
-55.2647
-59.1609
-63.9997
-69.7424
-76.3017
-83.5387
-91.2582
-99.2025
-107.049
-114.413
-120.857
-125.918
-129.135
-130.082
-128.39
-123.794
-116.233
-105.873
-93.036
-78.1805
-61.8813
-44.8279
-27.9878
-12.9799
-1.97587
3.33625
-48.7078
-49.8333
-51.4436
-53.7815
-56.937
-60.9788
-65.9292
-71.7636
-78.4077
-85.7333
-93.5524
-101.612
-109.588
-117.093
-123.68
-128.873
-132.201
-133.224
-131.56
-126.953
-119.37
-109.009
-96.2068
-81.428
-65.2628
-48.4496
-31.9846
-17.3204
-6.17375
0.575795
-50.1676
-51.531
-53.3235
-55.8456
-59.1552
-63.322
-68.3751
-74.3004
-81.0347
-88.4593
-96.3937
-104.589
-112.721
-120.396
-127.155
-132.508
-135.967
-137.077
-135.436
-130.802
-123.181
-112.807
-100.033
-85.3221
-69.2684
-52.6307
-36.3884
-21.8033
-10.1554
-1.59995
-52.5624
-53.9811
-55.8079
-58.4131
-61.806
-66.0536
-71.1853
-77.1926
-84.0194
-91.5549
-99.6243
-107.981
-116.302
-124.183
-131.153
-136.7
-140.313
-141.512
-139.876
-135.184
-127.498
-117.089
-104.323
-89.6568
-73.6684
-57.1088
-40.9077
-26.1359
-13.7144
-3.33957
-55.7428
-56.992
-58.7133
-61.3028
-64.7068
-68.9885
-74.1726
-80.2512
-87.1719
-94.8282
-103.049
-111.589
-120.122
-128.238
-135.447
-141.212
-144.993
-146.279
-144.625
-139.844
-132.067
-121.606
-108.836
-94.1905
-78.2182
-61.6363
-45.3087
-30.1346
-16.7759
-4.73526
-59.3364
-60.2139
-61.7422
-64.249
-67.6145
-71.9001
-77.1208
-83.2664
-90.2848
-98.0708
-106.455
-115.194
-123.958
-132.328
-139.799
-145.802
-149.76
-151.125
-149.428
-144.524
-136.633
-126.108
-113.325
-98.6845
-82.6874
-65.9965
-49.4168
-33.6967
-19.341
-5.84196
-62.8297
-63.2157
-64.5429
-66.9493
-70.2626
-74.5472
-79.8059
-86.0239
-93.1473
-101.071
-109.627
-118.571
-127.572
-136.205
-143.95
-150.206
-154.346
-155.779
-154.014
-148.958
-140.938
-130.345
-117.551
-102.913
-86.8715
-70.0131
-53.1108
-36.7857
-21.4513
-6.69601
-65.672
-65.5756
-66.7749
-69.114
-72.3999
-76.7052
-82.0198
-88.3244
-95.5621
-103.627
-112.352
-121.496
-130.727
-139.617
-147.634
-154.148
-158.469
-159.961
-158.112
-152.89
-144.744
-134.09
-121.299
-106.676
-90.604
-73.5736
-56.315
-39.412
-23.1512
-7.33944
-67.4034
-66.9724
-68.1721
-70.5148
-73.8283
-78.1958
-83.5954
-90.0048
-97.364
-105.565
-114.445
-123.767
-133.201
-142.32
-150.586
-157.346
-161.844
-163.389
-161.465
-156.088
-147.845
-137.17
-124.413
-109.835
-93.7585
-76.6233
-58.9968
-41.5419
-24.4764
-7.83088
-67.8022
-67.2597
-68.5931
-71.0295
-74.4406
-78.9185
-84.4339
-90.9596
-98.4334
-106.752
-115.757
-125.213
-134.797
-144.085
-152.544
-159.507
-164.168
-165.772
-163.822
-158.35
-150.071
-139.467
-126.815
-112.327
-96.2565
-79.0244
-61.1032
-43.1501
-25.4347
-8.20939
-66.9333
-66.5091
-68.0553
-70.6536
-74.2256
-78.8619
-84.5236
-91.1749
-98.753
-107.161
-116.24
-125.761
-135.411
-144.778
-153.336
-160.427
-165.227
-166.898
-164.965
-159.503
-151.29
-140.836
-128.362
-114.017
-97.9983
-80.6733
-62.5397
-44.2341
-26.0571
-8.50017
-65.1472
-64.9785
-66.7295
-69.5045
-73.277
-78.1095
-83.9403
-90.7197
-98.3841
-106.838
-115.928
-125.434
-135.056
-144.393
-152.935
-160.042
-164.883
-166.576
-164.683
-159.371
-151.369
-141.155
-128.928
-114.783
-98.8738
-81.5457
-63.3116
-44.8104
-26.3715
-8.71871
-62.9719
-63.0525
-64.8762
-67.7687
-71.7659
-76.8231
-82.8273
-89.7172
-97.432
-105.879
-114.912
-124.32
-133.815
-143.007
-151.401
-158.367
-163.1
-164.731
-162.917
-157.899
-150.263
-140.417
-128.52
-114.633
-98.8963
-81.655
-63.4405
-44.9044
-26.4043
-8.87262
78.6704
78.7131
78.8518
79.1279
79.5085
79.9596
80.4697
81.0335
81.6425
82.2851
82.9481
83.6169
84.2749
84.9028
85.4784
85.9758
86.364
86.6059
86.6559
86.4568
85.9345
84.9896
83.4836
81.2135
77.8623
72.8968
65.3069
52.9564
28.0064
-39.3115
77.9944
78.0271
78.1429
78.384
78.7186
79.1125
79.5539
80.037
80.5529
81.0891
81.6317
82.1648
82.6704
83.1276
83.5121
83.7948
83.9412
83.9092
83.6464
83.0862
82.1414
80.6939
78.5774
75.547
71.2205
64.9621
55.6223
41.3447
20.3237
-9.63792
77.2787
77.3012
77.3931
77.598
77.8848
78.2197
78.5902
78.9905
79.4108
79.8382
80.2578
80.6528
81.0038
81.2884
81.4802
81.5479
81.4538
81.1517
80.5845
79.6794
78.3416
76.4451
73.8171
70.2155
65.2953
58.5757
49.4333
37.3041
22.8553
6.4678
76.5245
76.5365
76.6039
76.7715
77.0094
77.2837
77.5821
77.8979
78.2213
78.5386
78.8341
79.0903
79.2866
79.3993
79.4006
79.2573
78.9296
78.3692
77.5162
76.296
74.6135
72.3462
69.3353
65.3762
60.2119
53.5464
45.0873
34.5579
21.9417
6.81471
75.7335
75.7347
75.7771
75.9067
76.0949
76.3079
76.5331
76.7639
76.9897
77.1967
77.3686
77.4869
77.5306
77.475
77.2913
76.9454
76.3967
75.5962
74.4846
72.9891
71.0202
68.4675
65.1961
61.0445
55.8271
49.3431
41.3924
31.7444
20.2411
7.09288
74.9076
74.898
74.9151
75.0064
75.1444
75.2957
75.4477
75.5934
75.7222
75.8198
75.8697
75.853
75.7483
75.5304
75.1704
74.634
73.8811
72.8641
71.5263
69.8003
67.6058
64.8482
61.4176
57.19
52.0309
45.8018
38.3771
29.6582
19.6456
8.75032
74.0494
74.0289
74.0207
74.0735
74.1613
74.2512
74.3305
74.392
74.4252
74.4157
74.3467
74.1995
73.9525
73.5808
73.0557
72.3441
71.4074
70.2007
68.672
66.7613
64.3993
61.5083
58.002
53.7891
48.7774
42.8835
36.0483
28.2572
19.5531
10.2529
73.1617
73.1305
73.0972
73.1117
73.1498
73.179
73.1867
73.1658
73.1058
72.9925
72.8092
72.5375
72.1562
71.641
70.9645
70.0951
68.997
67.6291
65.9454
63.8941
61.4179
58.455
54.9409
50.8115
46.0086
40.4872
34.2261
27.2378
19.5622
11.4511
72.2479
72.2061
72.148
72.125
72.1143
72.0841
72.022
71.9212
71.7714
71.5587
71.2669
70.8781
70.3719
69.7253
68.9125
67.9043
66.6682
65.168
63.3638
61.2127
58.6689
55.6851
52.215
48.2163
43.6545
38.5088
32.7774
26.4841
19.6703
12.5475
71.3117
71.2596
71.1775
71.1178
71.0595
70.9719
70.8425
70.6651
70.4297
70.1229
69.7294
69.2321
68.6116
67.8468
66.9137
65.7863
64.4357
62.8309
60.9386
58.724
56.1518
53.1875
49.7994
45.9611
41.6548
36.8749
31.6313
25.9533
19.8822
13.5913
70.3573
70.2953
70.19
70.0949
69.9909
69.848
69.6545
69.4043
69.0883
68.6937
68.2062
67.6097
66.8865
66.0171
64.9804
63.7532
62.3109
60.6274
58.6758
56.4289
53.8606
50.9468
47.667
44.0068
39.9597
35.5296
30.7327
25.5995
20.168
14.5779
69.3894
69.318
69.1904
69.0615
68.9138
68.7186
68.4645
68.1461
67.755
67.2795
66.7062
66.0205
65.2065
64.2467
63.1227
61.8146
60.3017
58.563
56.5773
54.3244
51.7855
48.9449
45.7909
42.3174
38.5255
34.4246
30.0336
25.3818
20.503
15.5105
68.413
68.3327
68.1841
68.0231
67.8343
67.5898
67.2791
66.8975
66.4374
65.8882
65.238
64.4734
63.5805
62.5442
61.3487
59.9773
58.4133
56.6402
54.6419
52.404
49.914
47.1627
44.1448
40.8599
37.314
33.5193
29.4957
25.2698
20.8716
16.3933
67.4334
67.3447
67.1766
66.9856
66.7582
66.468
66.1052
65.6657
65.143
64.5278
63.8094
62.9763
62.0164
60.9169
59.6645
58.2461
56.6483
54.8585
52.8654
50.6592
48.2325
45.581
42.7039
39.6048
36.2924
32.7804
29.0881
25.2396
21.2612
17.2278
66.4563
66.36
66.1737
65.955
65.6921
65.3599
64.9494
64.4576
63.8789
63.2054
62.4277
61.5361
60.5205
59.3703
58.0749
56.6238
55.0071
53.2158
51.2421
49.0802
46.7267
44.1809
41.4452
38.5257
35.4325
32.1798
28.7857
25.2718
21.6609
18.0141
65.4878
65.3845
65.1817
64.9375
64.6422
64.2719
63.8186
63.28
62.652
61.9277
61.0994
60.1591
59.0984
57.909
56.5827
55.1116
53.4887
51.708
49.7648
47.6565
45.3824
42.9447
40.3478
37.5993
34.7101
31.694
28.5677
25.3503
22.0618
18.752
64.5342
64.4246
64.2069
63.9397
63.6151
63.2106
62.7193
62.1397
61.4687
60.7011
59.8304
58.8503
57.7544
56.5362
55.1897
53.7094
52.0908
50.3303
48.4259
46.3771
44.1858
41.8556
39.3927
36.8053
34.1044
31.3031
28.4167
25.4621
22.4566
19.4411
63.6019
63.4868
63.2559
62.9681
62.6174
62.1827
61.658
61.0428
60.3353
59.5313
58.6259
57.6144
56.4919
55.254
53.8966
52.4161
50.8101
49.0771
47.2171
45.2315
43.1237
40.8986
38.563
36.1258
33.5974
30.9904
28.3183
25.5962
22.8393
20.0808
62.698
62.578
62.3354
62.0294
61.6557
61.1947
60.6412
59.9957
59.2574
58.4235
57.4905
56.455
55.3138
54.0641
52.7033
51.2298
49.6429
47.9426
46.1305
44.2095
42.1839
40.0597
37.8439
35.5453
33.1741
30.7417
28.2606
25.7439
23.2048
20.6708
61.8292
61.705
61.4523
61.1305
60.7368
60.2531
59.6751
59.0042
58.2407
57.3828
56.4285
55.3756
54.2223
52.9672
51.6093
50.1484
48.5851
46.9208
45.1583
43.3015
41.3555
39.3266
37.222
35.0504
32.8214
30.5454
28.2337
25.8978
23.5495
21.2111
61.0028
60.875
60.6137
60.2782
59.8674
59.3644
58.7659
58.0741
57.2902
56.4137
55.4436
54.3789
53.219
51.9638
50.6136
49.1693
47.6326
46.0062
44.2934
42.4989
40.6285
38.6884
36.6861
34.6297
32.5283
30.3915
28.2293
26.0521
23.8701
21.7018
60.2261
60.0954
59.8268
59.4796
59.0541
58.535
57.9196
57.2109
56.4111
55.5206
54.5393
53.4675
52.3055
51.0544
49.7153
48.2903
46.7819
45.1934
43.5292
41.7941
39.9942
38.1359
36.2265
34.2737
32.2859
30.2721
28.2412
26.2024
24.1648
22.1436
59.5069
59.3736
59.0987
58.7415
58.3038
57.7713
57.1422
56.4202
55.6082
54.7075
53.719
52.6438
51.4832
50.239
48.9133
47.5089
46.0291
44.4778
42.8596
41.1799
39.4448
37.6607
35.8346
33.9739
32.0863
30.1801
28.2635
26.3445
24.4314
22.5366
58.8528
58.7173
58.437
58.0712
57.6231
57.0798
56.4398
55.7075
54.8865
53.9789
52.9863
51.9105
50.7537
49.5184
48.2074
46.824
45.372
43.8559
42.2805
40.6514
38.9747
37.2568
35.5043
33.7243
31.9241
30.1111
28.2928
26.4766
24.6698
22.8828
58.272
58.1345
57.8492
57.4758
57.019
56.4667
55.8181
55.078
54.2505
53.3384
52.3439
51.2696
50.1181
48.8926
47.5963
46.2332
44.8073
43.3235
41.7867
40.2027
38.5775
36.9174
35.2288
33.5183
31.7927
30.0591
28.3242
26.5948
24.8773
23.1805
57.7733
57.6334
57.3429
56.9624
56.4982
55.939
55.284
54.5383
53.7065
52.7919
51.7974
50.7258
49.5804
48.3648
47.0827
45.7383
44.336
42.8808
41.3778
39.8328
38.2519
36.6411
35.0065
33.3544
31.6914
30.024
28.3584
26.7008
25.0572
23.435
57.3663
57.2229
56.9255
56.5375
56.0667
55.5015
54.8413
54.0912
53.2564
52.3406
51.3468
50.2785
49.1393
47.9329
46.6635
45.3354
43.9534
42.5224
41.0478
39.5353
37.9908
36.4203
34.8296
33.2249
31.6123
29.9978
28.3875
26.7871
25.202
23.6384
57.0624
56.9115
56.6054
56.2115
55.7363
55.1671
54.503
53.7499
52.9133
51.9969
51.0044
49.9392
48.8053
47.6067
46.3477
45.033
43.6673
42.2556
40.8035
39.3164
37.8004
36.2612
34.7046
33.1364
31.5625
29.9888
28.4208
26.8641
25.3238
23.8056
56.8785
56.7008
56.3774
55.9779
55.5004
54.9288
54.2625
53.508
52.6709
51.7551
50.7642
49.702
48.5725
47.38
46.1288
44.8238
43.4696
42.0716
40.635
39.1655
37.6689
36.151
34.6174
33.0737
31.5258
29.9791
28.4393
26.9115
25.4006
23.9115
56.8554
56.6254
56.2772
55.8703
55.3891
54.814
54.145
53.3887
52.5508
51.6351
50.6453
49.5851
48.4586
47.27
46.024
44.7251
43.3783
41.9886
40.5615
39.1025
37.6175
36.112
34.5916
33.0618
31.5284
29.9968
28.4724
26.9601
25.4648
23.9908
-129.476
-111.044
-84.3259
-28.2751
-32.5399
-37.8187
-9.85433
-20.5156
-29.3526
-9.14328
-19.1193
-26.4567
-5.40536
-13.5122
-20.051
-1.43335
-8.37623
-14.3341
1.45029
-4.63109
-9.914
3.76448
-1.54896
-6.16479
5.81833
1.16289
-2.87184
7.66322
3.55973
0.0172971
9.32527
5.69015
2.56566
10.8352
7.60151
4.83287
12.2154
9.32758
6.86314
13.4804
10.8924
8.68937
14.6412
12.3139
10.3367
15.7058
13.606
11.8243
16.6802
14.7793
13.1672
17.5693
15.8422
14.3773
18.3771
16.8017
15.4646
19.1072
17.6641
16.4376
19.7628
18.4345
17.3037
20.3472
19.1181
18.0696
20.8625
19.7186
18.7404
21.313
20.2415
19.3228
21.6978
20.687
19.8182
22.0246
21.0636
20.2354
22.2843
21.363
20.5676
22.496
21.6047
20.8328
22.6303
21.76
21.0054
22.7333
21.8796
21.134
-60.5833
-61.2295
-62.8797
-65.7117
-69.937
-75.2203
-81.3697
-88.3246
-96.0294
-104.396
-113.287
-122.501
-131.756
-140.68
-148.787
-155.465
-159.967
-161.514
-159.842
-155.215
-148.061
-138.676
-127.169
-113.587
-98.0807
-81.0157
-62.9471
-44.5399
-26.18
-8.96954
-48.7376
-55.5008
-59.1524
-63.2154
-68.0571
-73.5789
-79.7928
-86.7157
-94.3116
-102.497
-111.139
-120.043
-128.938
-137.463
-145.156
-151.44
-155.648
-157.121
-155.653
-151.468
-144.843
-135.954
-124.86
-111.608
-96.3843
-79.5907
-61.8069
-43.7069
-25.6968
-9.01082
-41.9556
-51.5158
-56.3822
-60.9388
-66.2119
-72.0247
-78.3028
-85.1139
-92.487
-100.37
-108.643
-117.119
-125.539
-133.559
-140.744
-146.574
-150.47
-151.89
-150.651
-146.894
-140.766
-132.333
-121.62
-108.699
-93.8065
-77.3858
-60.0356
-42.426
-24.9717
-8.99617
-36.4605
-46.4796
-53.229
-58.9609
-64.6692
-70.5843
-76.8395
-83.5229
-90.6472
-98.1675
-105.986
-113.939
-121.789
-129.219
-135.833
-141.172
-144.756
-146.135
-145.102
-141.691
-135.941
-127.856
-117.454
-104.854
-90.3487
-74.4173
-57.6608
-40.7273
-24.0251
-8.92483
-29.3132
-39.5254
-48.0026
-55.3716
-62.1166
-68.5638
-75.001
-81.638
-88.5618
-95.7577
-103.141
-110.568
-117.826
-124.638
-130.657
-135.494
-138.765
-140.072
-139.143
-135.907
-130.354
-122.473
-112.314
-100.051
-86.0241
-70.7242
-54.7327
-38.6565
-22.8851
-8.79431
-22.6244
-32.315
-41.572
-50.0667
-57.7941
-64.993
-71.9223
-78.7825
-85.6934
-92.6921
-99.7383
-106.72
-113.456
-119.704
-125.168
-129.521
-132.455
-133.577
-132.557
-129.295
-123.78
-116.025
-106.12
-94.285
-80.8796
-66.3813
-51.3302
-36.278
-21.5866
-8.59995
-17.0181
-25.7121
-34.9035
-43.7931
-52.0383
-59.7604
-67.145
-74.322
-81.3722
-88.3308
-95.1783
-101.833
-108.149
-113.922
-118.894
-122.781
-125.302
-126.078
-124.804
-121.426
-115.943
-108.382
-98.8637
-87.6287
-75.032
-61.5161
-47.5668
-33.6745
-20.1713
-8.3359
-12.2166
-19.8432
-28.4803
-37.1957
-45.4735
-53.338
-60.9072
-68.2447
-75.3772
-82.3089
-89.0109
-95.4089
-101.377
-106.736
-111.26
-114.686
-116.724
-117.075
-115.558
-112.155
-106.844
-99.6562
-90.7263
-80.2944
-68.6911
-56.3125
-43.5863
-30.9424
-18.6843
-7.99789
-8.07066
-14.7217
-22.5797
-30.7589
-38.6935
-46.3462
-53.7854
-61.0264
-68.0516
-74.8314
-81.3175
-87.4295
-93.0469
-98.0065
-102.103
-105.091
-106.684
-106.698
-105.088
-101.825
-96.8638
-90.2366
-82.078
-72.6118
-62.1329
-50.987
-39.5449
-28.1804
-17.1706
-7.58689
-4.49346
-10.2975
-17.3201
-24.7849
-32.1454
-39.3335
-46.3869
-53.2925
-60.0041
-66.4667
-72.6145
-78.3592
-83.5821
-88.1311
-91.8208
-94.4333
-95.7143
-95.5702
-94.0298
-91.046
-86.5682
-80.6296
-73.354
-64.9383
-55.637
-45.7465
-35.585
-25.4756
-15.6698
-7.11171
-1.38217
-6.46601
-12.6927
-19.3996
-26.0872
-32.6764
-39.188
-45.5961
-51.8404
-57.8524
-63.5559
-68.859
-73.6471
-77.7814
-81.0991
-83.4168
-84.5336
-84.394
-83.0358
-80.4148
-76.4909
-71.295
-64.9335
-57.5735
-49.4301
-40.7538
-31.8157
-22.8933
-14.2136
-6.58882
1.3528
-3.12245
-8.63375
-14.6164
-20.6236
-26.5753
-32.4836
-38.319
-44.0179
-49.5074
-54.7095
-59.534
-63.8752
-67.6098
-70.6001
-72.698
-73.753
-73.7145
-72.5987
-70.375
-67.0179
-62.5553
-57.0755
-50.7171
-43.6592
-36.1119
-28.3045
-20.4747
-12.8246
-6.03935
3.77679
-0.18335
-5.0685
-10.3942
-15.7632
-21.0987
-26.4088
-31.6648
-36.8053
-41.7599
-46.4537
-50.8035
-54.7146
-58.0812
-60.7889
-62.7206
-63.7651
-63.8654
-63.0095
-61.1787
-58.361
-54.5819
-49.9131
-44.468
-38.3948
-31.8686
-25.0827
-18.2394
-11.517
-5.48473
5.93749
2.41505
-1.92791
-6.67276
-11.4663
-16.2369
-20.9906
-25.7013
-30.3129
-34.7601
-38.9747
-42.8821
-46.4001
-49.4388
-51.9045
-53.7039
-54.7533
-54.9914
-54.3844
-52.9186
-50.5916
-47.4267
-43.4818
-38.8491
-33.6504
-28.0315
-22.1548
-16.1919
-10.2986
-4.94307
7.87065
4.72147
0.846258
-3.39118
-7.67654
-11.9438
-16.1978
-20.416
-24.5483
-28.536
-32.3181
-35.8295
-38.9994
-41.7522
-44.0105
-45.6992
-46.7521
-47.1089
-46.7246
-45.585
-43.6924
-41.0676
-37.7574
-33.8366
-29.4053
-24.5844
-19.5102
-14.3278
-9.17259
-4.42735
9.60348
6.7734
3.30127
-0.495489
-4.33682
-8.16214
-11.976
-15.7591
-19.4675
-23.0493
-26.4508
-29.6153
-32.4824
-34.9883
-37.0685
-38.6611
-39.7119
-40.1645
-39.9715
-39.1165
-37.6021
-35.4465
-32.6875
-29.3857
-25.6231
-21.5002
-17.131
-12.6382
-8.13901
-3.94541
11.1572
8.60032
5.47535
2.06017
-1.39541
-4.83602
-8.26601
-11.6694
-15.0078
-18.2357
-21.3061
-24.1701
-26.7759
-29.0693
-30.996
-32.504
-33.5473
-34.0756
-34.0437
-33.4332
-32.2451
-30.4943
-28.2113
-25.4452
-22.2634
-18.749
-14.9975
-11.1127
-7.19588
-3.50103
12.5488
10.226
7.39985
4.31436
1.19267
-1.91472
-5.01205
-8.08616
-11.1039
-14.0254
-16.8098
-19.4147
-21.7956
-23.9062
-25.7003
-27.1335
-28.166
-28.7541
-28.8566
-28.4541
-27.5455
-26.1423
-24.269
-21.9654
-19.2866
-16.3016
-13.0903
-9.74051
-6.33995
-3.09531
13.7924
11.6701
9.10088
6.29965
3.46608
0.646213
-2.16409
-4.95415
-7.69529
-10.3527
-12.8908
-15.2729
-17.4605
-19.4139
-21.0933
-22.4605
-23.4806
-24.116
-24.3302
-24.1038
-23.4335
-22.3278
-20.8061
-18.9006
-16.6565
-14.1309
-11.391
-8.51113
-5.56725
-2.72775
14.8998
12.9492
10.6005
8.04378
5.4581
2.88546
0.321842
-2.22411
-4.72761
-7.15826
-9.48494
-11.6758
-13.6977
-15.516
-17.0962
-18.4053
-19.4126
-20.0855
-20.3924
-20.3142
-19.8463
-18.9942
-17.7733
-16.2096
-14.3401
-12.2124
-9.88276
-7.41452
-4.87347
-2.39708
15.8812
14.0773
11.9174
9.57037
7.1972
4.83632
2.48388
0.146838
-2.15334
-4.38998
-6.53588
-8.56329
-10.4432
-12.1456
-13.6404
-14.8986
-15.8931
-16.596
-16.9796
-17.0258
-16.7289
-16.0922
-15.1278
-13.8565
-12.3088
-10.5243
-8.55052
-6.44149
-4.25436
-2.1017
16.7458
15.0667
13.068
10.8999
8.70813
6.52781
4.35528
2.19614
0.069102
-2.00237
-3.99433
-5.88247
-7.6414
-9.24479
-10.6662
-11.88
-12.8623
-13.5889
-14.0358
-14.1859
-14.0328
-13.5783
-12.8314
-11.8092
-10.5367
-9.04703
-7.38054
-5.58347
-3.70568
-1.83981
17.5007
15.9275
14.0654
12.0492
10.0113
7.98394
5.96371
3.95513
1.97458
0.0428613
-1.81883
-3.58907
-5.24545
-6.76471
-8.12346
-9.29897
-10.2699
-11.0152
-11.5139
-11.7503
-11.7175
-11.4159
-10.8525
-10.0412
-9.00251
-7.76449
-6.3615
-4.83345
-3.22404
-1.60997
18.1537
16.6695
14.9223
13.0339
11.1253
9.22646
7.33405
5.45176
3.59407
1.77957
0.0271704
-1.64407
-3.21423
-4.6626
-5.96829
-7.11096
-8.07144
-8.83131
-9.37217
-9.67949
-9.74637
-9.57227
-9.16243
-8.52803
-7.68645
-6.66139
-5.48243
-4.18426
-2.80549
-1.41023
18.7084
17.2981
15.6462
13.8639
12.0627
10.2703
8.48376
6.70603
4.95006
3.2326
1.57071
-0.0185077
-1.51714
-2.90656
-4.16794
-5.28292
-6.23411
-7.00519
-7.57992
-7.94492
-8.09339
-8.02412
-7.74099
-7.25316
-6.57541
-5.72807
-4.73686
-3.63228
-2.44867
-1.24013
19.1732
17.8228
16.2486
14.5528
12.8388
11.133
9.43244
7.7396
6.06618
4.42749
2.83909
1.31654
-0.123896
-1.46524
-2.69033
-3.78238
-4.7255
-5.50496
-6.10632
-6.51734
-6.73142
-6.74686
-6.56651
-6.19803
-5.65411
-4.95252
-4.1159
-3.17139
-2.1499
-1.09769
19.5443
18.2412
16.728
15.1003
13.4551
11.8174
10.1845
8.5584
6.94992
5.3732
3.84264
2.37258
0.978037
-0.325306
-1.52159
-2.59526
-3.53157
-4.31701
-4.93853
-5.38497
-5.64994
-5.73142
-5.63152
-5.35676
-4.91832
-4.332
-3.61815
-2.80133
-1.90972
-0.983375
19.8364
18.5681
17.1006
15.5236
13.9295
12.3425
10.7598
9.18333
7.62304
6.0923
4.60463
3.17352
1.81304
0.537923
-0.636916
-1.69684
-2.62792
-3.41756
-4.05392
-4.52688
-4.83019
-4.9615
-4.92235
-4.71845
-4.35984
-3.86096
-3.24053
-2.52129
-1.72944
-0.899926
20.0294
18.7832
17.3459
15.8034
14.244
12.691
11.1421
9.59889
8.07101
6.57121
5.11247
3.70767
2.37027
1.11436
-0.045745
-1.09594
-2.02254
-2.81323
-3.45735
-3.94601
-4.27323
-4.43648
-4.43698
-4.27985
-3.97443
-3.53425
-2.97705
-2.32462
-1.60258
-0.844673
20.1602
18.9164
17.4935
15.9695
14.4279
12.8917
11.3591
9.8321
8.31988
6.83496
5.39004
3.99775
2.67125
1.4243
0.270789
-0.775767
-1.70272
-2.49803
-3.15017
-3.64999
-3.99193
-4.17368
-4.19635
-4.06487
-3.7882
-3.37943
-2.85578
-2.23852
-1.55285
-0.830168
)
;

boundaryField
{
    inlet
    {
        type            zeroGradient;
    }
    outlet
    {
        type            fixedValue;
        value           uniform 0;
    }
    flap
    {
        type            zeroGradient;
    }
    upperWall
    {
        type            zeroGradient;
    }
    lowerWall
    {
        type            zeroGradient;
    }
    frontAndBack
    {
        type            empty;
    }
}


// ************************************************************************* //
