/*--------------------------------*- C++ -*----------------------------------*\
| =========                 |                                                 |
| \\      /  F ield         | OpenFOAM: The Open Source CFD Toolbox           |
|  \\    /   O peration     | Version:  dev                                   |
|   \\  /    A nd           | Web:      www.OpenFOAM.org                      |
|    \\/     M anipulation  |                                                 |
\*---------------------------------------------------------------------------*/
FoamFile
{
    version     2.0;
    format      ascii;
    class       volVectorField;
    location    "0.45";
    object      U;
}
// * * * * * * * * * * * * * * * * * * * * * * * * * * * * * * * * * * * * * //

dimensions      [0 1 -1 0 0 0 0];

internalField   nonuniform List<vector> 
2790
(
(9.93402 -1.46359e-21 0.0196395)
(9.86582 0 0.0284219)
(9.76787 0 0.0345749)
(9.64275 0 0.0407967)
(9.49816 -1.65887e-21 0.0472431)
(9.33649 0 0.053903)
(9.15698 0 0.0609072)
(8.95846 0 0.068413)
(8.74001 0 0.07656)
(8.50071 0 0.0854698)
(8.23943 0 0.0952631)
(7.95488 0 0.106067)
(7.64569 0 0.118006)
(7.31044 1.23788e-21 0.131196)
(6.94775 0 0.145742)
(6.55636 -1.11183e-20 0.161729)
(6.13528 1.14491e-20 0.179198)
(5.68394 -2.47082e-20 0.198108)
(5.20245 2.54741e-20 0.21831)
(4.69191 0 0.239514)
(4.15466 -5.78013e-20 0.261186)
(3.59464 -2.95973e-20 0.282432)
(3.01799 0 0.301835)
(2.43341 6.64255e-20 0.317035)
(1.85284 0 0.324072)
(1.29308 0 0.316587)
(0.777897 0 0.285464)
(0.342301 1.53797e-19 0.221368)
(0.0320307 -4.66702e-19 0.125081)
(0.00332226 -9.82775e-19 -0.0125747)
(9.99175 -1.45655e-21 0.0399784)
(9.97766 2.99537e-21 0.0606208)
(9.93629 -3.08575e-21 0.0762475)
(9.86671 0 0.0925106)
(9.7754 1.6543e-21 0.109772)
(9.66483 -1.71538e-21 0.127935)
(9.53444 -3.59731e-21 0.147247)
(9.38314 -1.91557e-21 0.168048)
(9.21008 3.85023e-21 0.190644)
(9.01439 0 0.215302)
(8.79495 5.29906e-22 0.242282)
(8.55049 0 0.271846)
(8.27966 0 0.304232)
(7.98101 -1.86177e-20 0.339634)
(7.6531 2.03899e-20 0.378189)
(7.29457 0 0.41994)
(6.90431 -4.62341e-20 0.464774)
(6.48152 -6.1798e-20 0.512324)
(6.02602 1.00283e-19 0.561884)
(5.53857 2.66363e-20 0.612345)
(5.02114 -2.80385e-20 0.662035)
(4.47717 -8.85484e-20 0.708492)
(3.91215 0 0.748323)
(3.33402 -6.50677e-20 0.776848)
(2.75304 4.10628e-19 0.787497)
(2.18198 -1.27268e-18 0.771363)
(1.63519 5.84226e-19 0.717195)
(1.12696 1.50727e-19 0.613238)
(0.657123 -1.38109e-18 0.455935)
(0.359311 4.19278e-18 0.23919)
(9.98887 2.91944e-21 0.0432997)
(9.9719 -2.99464e-21 0.0733908)
(9.93261 9.24346e-21 0.099167)
(9.86776 0 0.125975)
(9.78255 0 0.154522)
(9.67957 1.71356e-21 0.184795)
(9.55858 0 0.217123)
(9.41862 1.85502e-21 0.251981)
(9.25899 -7.79996e-21 0.289835)
(9.07902 2.22932e-20 0.331125)
(8.87771 -1.7261e-20 0.376281)
(8.65401 -1.78737e-20 0.425741)
(8.4067 1.83486e-20 0.479907)
(8.13449 3.69202e-20 0.539128)
(7.83601 -8.68603e-20 0.603667)
(7.50989 3.17678e-20 0.673647)
(7.1549 0 0.748946)
(6.76998 1.19063e-20 0.829053)
(6.3544 2.27079e-19 0.912905)
(5.90808 -2.34398e-19 0.998759)
(5.43187 8.2743e-20 1.08398)
(4.92763 3.55092e-22 1.16469)
(4.39864 -4.90415e-19 1.23555)
(3.84984 5.05519e-19 1.28941)
(3.28741 6.22837e-22 1.31698)
(2.71811 -9.72519e-19 1.30677)
(2.1478 1.14241e-18 1.2463)
(1.57963 -2.9559e-19 1.1252)
(0.998362 1.51181e-19 0.946888)
(0.533845 6.35866e-19 0.725496)
(9.98716 3.63727e-22 0.0491729)
(9.96793 5.58956e-21 0.0902363)
(9.92852 -6.15642e-21 0.127476)
(9.86492 9.53668e-21 0.165137)
(9.78142 -3.27548e-21 0.20451)
(9.6806 0 0.245968)
(9.56245 0 0.290028)
(9.42619 0 0.337331)
(9.27128 0 0.388509)
(9.09722 7.73587e-24 0.44418)
(8.90328 3.18172e-20 0.504958)
(8.68867 -3.53399e-20 0.571451)
(8.45248 0 0.644231)
(8.19374 0 0.723815)
(7.91137 3.07183e-23 0.810635)
(7.6043 -7.53151e-20 0.904956)
(7.27147 8.82756e-20 1.00675)
(6.91192 1.89652e-19 1.11555)
(6.52474 -1.9505e-19 1.23019)
(6.10927 -5.14636e-20 1.34863)
(5.66539 -4.66618e-22 1.46767)
(5.19343 5.70946e-20 1.58261)
(4.69434 0 1.68689)
(4.16975 0 1.7718)
(3.62162 -9.14322e-19 1.82637)
(3.05167 1.20871e-18 1.83779)
(2.46058 -2.79299e-19 1.79322)
(1.84825 0 1.68317)
(1.20157 -2.97985e-19 1.51234)
(0.646338 -6.25145e-19 1.2985)
(9.98636 7.25285e-22 0.0565525)
(9.9659 -1.85903e-20 0.107175)
(9.92641 -6.12149e-21 0.15451)
(9.86391 -1.58443e-20 0.202033)
(9.78213 3.2638e-21 0.251449)
(9.68343 6.8411e-21 0.303501)
(9.5679 -7.01833e-21 0.35886)
(9.43485 1.48057e-20 0.418267)
(9.28382 -1.51863e-20 0.482462)
(9.11437 3.42163e-20 0.552169)
(8.92589 -6.25397e-20 0.628114)
(8.71775 3.61574e-20 0.711013)
(8.48925 0 0.801546)
(8.23959 7.72332e-20 0.900341)
(7.96793 -6.92211e-20 1.00795)
(7.67339 8.48934e-20 1.12476)
(7.35514 -8.71028e-20 1.25083)
(7.0123 -1.63786e-19 1.3858)
(6.64397 3.39073e-19 1.52859)
(6.24917 -5.60336e-19 1.67711)
(5.82698 3.67855e-19 1.82798)
(5.37651 4.49347e-19 1.97621)
(4.89679 -4.61462e-19 2.11472)
(4.38679 0 2.23408)
(3.84518 1.2583e-19 2.3224)
(3.27034 -1.32065e-19 2.36589)
(2.66038 2.73981e-19 2.35067)
(2.01578 0 2.26584)
(1.33225 2.20133e-19 2.11197)
(0.727273 0 1.90107)
(9.98601 0 0.0645975)
(9.96506 4.20949e-23 0.124092)
(9.92584 -9.13939e-21 0.180997)
(9.86469 9.46257e-21 0.238261)
(9.78498 6.56185e-21 0.297682)
(9.68887 -6.73128e-21 0.360227)
(9.57642 7.00645e-21 0.426692)
(9.44706 -1.4715e-20 0.497905)
(9.30036 -2.39055e-22 0.574705)
(9.13592 4.37401e-20 0.657927)
(8.95318 -6.41115e-20 0.748398)
(8.75159 -1.74051e-21 0.846932)
(8.53057 -3.66289e-20 0.954313)
(8.28935 1.53471e-19 1.07129)
(8.02714 -8.32202e-20 1.19851)
(7.74318 0 1.33648)
(7.43664 0 1.48537)
(7.10661 -2.28179e-20 1.64494)
(6.7521 2.38987e-20 1.8143)
(6.37189 0 1.99154)
(5.96432 0 2.1734)
(5.52744 5.39515e-20 2.35498)
(5.0588 9.15161e-19 2.5292)
(4.55536 -8.2092e-19 2.68639)
(4.01343 -1.58836e-21 2.81403)
(3.42928 0 2.89709)
(2.79998 0 2.91931)
(2.12756 2.28827e-18 2.86616)
(1.41748 -2.40536e-18 2.73103)
(0.784192 -3.73941e-20 2.51087)
(9.98591 -1.14854e-20 0.0728963)
(9.96498 1.03568e-20 0.140908)
(9.92644 1.37062e-20 0.206909)
(9.8669 -6.3053e-21 0.273568)
(9.78959 6.5171e-21 0.342649)
(9.6965 -6.6952e-21 0.415289)
(9.58766 -3.64426e-23 0.492417)
(9.46257 0 0.574963)
(9.32086 -7.51866e-21 0.663869)
(9.16214 3.94026e-21 0.760076)
(8.98591 2.8948e-20 0.864504)
(8.79166 -3.38774e-20 0.978053)
(8.57881 7.1524e-20 1.10161)
(8.34661 -1.51538e-19 1.23605)
(8.09426 1.55943e-19 1.38212)
(7.82097 -8.06886e-20 1.54042)
(7.52582 -1.72206e-19 1.71129)
(7.20767 3.7853e-19 1.89464)
(6.86532 -1.84387e-19 2.08983)
(6.49717 4.16992e-19 2.2953)
(6.10084 -4.02312e-19 2.50821)
(5.67341 -1.05816e-19 2.72401)
(5.21112 0 2.93597)
(4.70929 8.10006e-19 3.13453)
(4.16235 -2.02995e-18 3.3067)
(3.56491 1.92319e-18 3.43581)
(2.91359 -1.08979e-18 3.50219)
(2.21144 2.12854e-18 3.48597)
(1.47128 -2.21221e-18 3.37191)
(0.818686 3.69372e-20 3.13206)
(9.98596 1.21995e-20 0.0812113)
(9.96542 1.09955e-20 0.157461)
(9.92793 0 0.232108)
(9.87028 0 0.30775)
(9.7957 1.93542e-20 0.386111)
(9.70603 0 0.468443)
(9.60131 -2.09081e-20 0.555801)
(9.48108 2.14777e-20 0.649214)
(9.345 3.0206e-20 0.749716)
(9.19272 -2.31473e-20 0.858344)
(9.02382 8.06848e-21 0.976109)
(8.8378 -6.81902e-20 1.10401)
(8.63406 6.54664e-20 1.24304)
(8.41184 0 1.3942)
(8.17035 -5.95698e-22 1.55836)
(7.90871 -1.61788e-19 1.73627)
(7.62583 1.7081e-19 1.92845)
(7.32034 1.54239e-19 2.13507)
(6.99063 -1.80317e-19 2.35579)
(6.63452 -4.1179e-22 2.58954)
(6.24903 0 2.83409)
(5.83025 2.64456e-20 3.08554)
(5.37309 0 3.33779)
(4.87119 0 3.5817)
(4.31713 2.85346e-20 3.80402)
(3.70371 9.97379e-19 3.98642)
(3.02649 -1.91987e-18 4.10523)
(2.28817 1.00598e-18 4.1339)
(1.50431 1.13908e-18 4.04744)
(0.831791 -1.14235e-18 3.7824)
(9.98612 0 0.0893915)
(9.96624 -1.17259e-20 0.173595)
(9.9301 3.01864e-21 0.256465)
(9.87465 -3.09622e-21 0.340659)
(9.8031 -1.28698e-20 0.427883)
(9.71725 0 0.519468)
(9.61712 -1.37136e-20 0.616578)
(9.50229 -7.16179e-21 0.720332)
(9.37246 1.48198e-20 0.831855)
(9.22735 2.33213e-20 0.95227)
(9.06656 -7.53765e-21 1.08268)
(8.88964 -3.30938e-20 1.22419)
(8.69597 7.44759e-20 1.37793)
(8.48485 -3.20722e-21 1.54499)
(8.25546 -7.41732e-20 1.72642)
(8.00681 0 1.92314)
(7.73767 -5.15667e-21 2.13593)
(7.44647 5.28249e-21 2.36531)
(7.13114 -1.73659e-19 2.61135)
(6.78891 1.59809e-19 2.87358)
(6.41616 3.87214e-19 3.15053)
(6.008 2.51868e-20 3.43928)
(5.55795 4.17066e-19 3.7347)
(5.05775 -8.65039e-19 4.02848)
(4.49774 4.13809e-19 4.30763)
(3.86799 2.92433e-20 4.55263)
(3.16116 9.24922e-19 4.73596)
(2.37756 1.23934e-20 4.82306)
(1.52853 -1.12684e-18 4.77756)
(0.82636 -6.87686e-20 4.48921)
(9.98635 1.41808e-21 0.0973332)
(9.96734 -1.4531e-21 0.189178)
(9.93283 0 0.279853)
(9.87985 6.19373e-21 0.372149)
(9.81164 -6.35015e-21 0.467779)
(9.72998 -1.31361e-20 0.568135)
(9.63487 1.36963e-20 0.674469)
(9.52594 1.42372e-20 0.787989)
(9.40296 -5.1505e-20 0.909899)
(9.26567 3.78458e-20 1.04141)
(9.11375 3.19064e-20 1.18371)
(8.94678 -1.07192e-19 1.33802)
(8.76419 -1.11294e-21 1.50557)
(8.56531 1.21293e-20 1.68761)
(8.34932 7.34403e-20 1.88535)
(8.11519 1.50589e-19 2.09994)
(7.86158 -1.53865e-19 2.33246)
(7.58673 -5.24886e-21 2.58384)
(7.28828 -1.77054e-19 2.85473)
(6.96302 5.39566e-19 3.14535)
(6.60668 -3.72015e-19 3.45521)
(6.21342 -3.88152e-19 3.78262)
(5.77541 3.96081e-19 4.12398)
(5.28234 6.54019e-21 4.47248)
(4.7216 0 4.81633)
(4.07893 -5.43425e-20 5.1361)
(3.34128 -4.35276e-19 5.40145)
(2.50325 4.80361e-19 5.56924)
(1.56105 -1.94209e-19 5.58902)
(0.80852 -1.44276e-22 5.29161)
(9.98663 0 0.104961)
(9.96866 0 0.204097)
(9.93601 -1.4833e-20 0.302152)
(9.88576 -3.09384e-21 0.402081)
(9.82118 6.30423e-21 0.505629)
(9.74403 -1.30446e-20 0.614233)
(9.65435 1.34632e-20 0.729223)
(9.5518 -1.39453e-20 0.851884)
(9.43619 0 0.983494)
(9.30734 2.27555e-20 1.12534)
(9.165 8.20464e-21 1.2787)
(9.0088 -9.74562e-20 1.4449)
(8.83825 5.84934e-20 1.62529)
(8.65274 -8.80338e-21 1.82125)
(8.45148 0 2.03417)
(8.23346 -4.58372e-21 2.26547)
(7.99731 1.5264e-19 2.51656)
(7.74122 2.4109e-21 2.78884)
(7.46269 -1.69399e-19 3.08359)
(7.15826 1.0721e-20 3.4019)
(6.82323 -1.78026e-19 3.74445)
(6.45105 -1.84464e-19 4.11114)
(6.03273 2.16158e-19 4.50042)
(5.55598 -1.96506e-19 4.90803)
(5.00465 -2.05018e-19 5.32496)
(4.35855 2.63494e-19 5.73414)
(3.59515 0 6.10533)
(2.6978 0 6.38849)
(1.63035 -9.21356e-20 6.51644)
(0.791331 6.61443e-20 6.24786)
(9.98695 -2.37238e-20 0.112216)
(9.97015 -2.14551e-20 0.218258)
(9.93957 1.18469e-20 0.323251)
(9.89228 -1.82252e-20 0.430327)
(9.83158 -6.24844e-21 0.541274)
(9.75926 1.30134e-20 0.657571)
(9.67536 -1.33411e-20 0.780611)
(9.57961 1.28664e-22 0.911745)
(9.47186 -1.42766e-20 1.05232)
(9.35202 0 1.20368)
(9.21991 -7.74712e-21 1.36721)
(9.07524 7.23442e-20 1.5443)
(8.91762 -7.18038e-21 1.73642)
(8.74653 -5.96439e-20 1.94509)
(8.56128 -8.04172e-20 2.17188)
(8.36096 1.56596e-19 2.41848)
(8.14428 -5.68696e-20 2.68665)
(7.9095 1.94745e-20 2.97825)
(7.65418 1.43764e-19 3.29526)
(7.37492 -1.98464e-19 3.63971)
(7.06693 -2.13014e-20 4.01362)
(6.72343 1.78995e-19 4.41879)
(6.33477 -3.89628e-19 4.85634)
(5.88724 1.87474e-19 5.32571)
(5.36142 0 5.82285)
(4.73039 0 6.33673)
(3.95831 9.87589e-20 6.84304)
(3.00916 3.16312e-19 7.29201)
(1.78776 -2.22794e-19 7.60211)
(0.804042 6.13985e-20 7.4437)
(9.98731 -5.43134e-22 0.119054)
(9.97179 8.70765e-22 0.231583)
(9.94344 0 0.343053)
(9.89932 1.21145e-20 0.456771)
(9.84274 1.24943e-20 0.574573)
(9.77552 0 0.697977)
(9.69772 1.33256e-20 0.828425)
(9.60912 1.36356e-20 0.967325)
(9.50967 1.42595e-20 1.11608)
(9.39933 2.95102e-20 1.2761)
(9.27802 -3.01838e-20 1.44881)
(9.14556 1.55952e-20 1.63571)
(9.00167 -3.29298e-20 1.83835)
(8.84597 5.83823e-20 2.05837)
(8.67792 8.77524e-21 2.29754)
(8.49678 0 2.55775)
(8.30146 -3.71048e-20 2.8411)
(8.09048 1.34519e-19 3.14993)
(7.86168 -1.36948e-19 3.48687)
(7.61202 4.05272e-20 3.8549)
(7.33713 -1.97281e-20 4.25743)
(7.03065 0 4.69832)
(6.6833 0 5.18182)
(6.2812 4.33119e-20 5.7121)
(5.80341 8.78017e-20 6.29238)
(5.2179 0 6.92251)
(4.47438 -2.8529e-19 7.59374)
(3.5091 -3.83294e-19 8.27416)
(2.1264 3.52634e-19 8.89111)
(0.910441 -9.79543e-20 9.02027)
(9.98769 1.60306e-22 0.125438)
(9.97354 2.27174e-20 0.244006)
(9.94757 -2.31701e-20 0.361473)
(9.9068 2.98469e-20 0.481311)
(9.85454 6.1323e-21 0.605406)
(9.79264 -6.38611e-21 0.735307)
(9.72121 1.97242e-20 0.872497)
(9.6401 -2.71196e-20 1.01843)
(9.54929 2.79967e-20 1.17454)
(9.44888 -1.4373e-20 1.3423)
(9.33886 1.48431e-20 1.52318)
(9.21917 -1.55574e-20 1.71873)
(9.0897 -8.02537e-20 1.93058)
(8.95022 1.31798e-19 2.16048)
(8.8004 -1.35995e-19 2.41032)
(8.63974 -6.86201e-22 2.68221)
(8.46748 9.01239e-20 2.97851)
(8.28251 5.62044e-20 3.30195)
(8.08322 -1.82844e-20 3.65573)
(7.86727 -9.77117e-20 4.04368)
(7.63122 1.49204e-21 4.47048)
(7.37 0 4.94194)
(7.07598 8.14479e-20 5.46542)
(6.73738 -7.45285e-20 6.05026)
(6.33539 -9.76348e-20 6.70838)
(5.83882 1.66513e-19 7.4548)
(5.1907 -2.48947e-19 8.30795)
(4.30311 -2.37392e-19 9.285)
(2.82604 8.38624e-20 10.403)
(1.26324 1.27881e-18 11.2809)
(9.9881 4.38293e-20 0.131337)
(9.97539 0 0.255469)
(9.95192 1.84775e-22 0.378432)
(9.91465 -2.38315e-20 0.503846)
(9.86689 -1.84045e-20 0.633642)
(9.81051 6.27753e-21 0.769396)
(9.74569 0 0.912619)
(9.67231 -1.34499e-20 1.0648)
(9.59046 -1.38716e-20 1.2274)
(9.5003 1.43486e-20 1.40192)
(9.40197 2.93521e-20 1.58987)
(9.29553 -6.07058e-20 1.79283)
(9.18101 4.7083e-20 2.01248)
(9.05841 -1.61346e-20 2.25064)
(8.92763 6.66878e-20 2.5093)
(8.78848 -1.36588e-19 2.79068)
(8.64061 -1.77612e-20 3.09736)
(8.48343 1.56986e-22 3.43233)
(8.31605 1.84663e-20 3.79919)
(8.13714 7.49983e-20 4.20239)
(7.94466 7.70098e-20 4.64751)
(7.73563 9.86119e-22 5.14187)
(7.5055 -4.06145e-20 5.69524)
(7.24725 6.14704e-22 6.32123)
(6.9495 0 7.0395)
(6.59307 0 7.88009)
(6.13877 7.76788e-20 8.89306)
(5.5296 2.95974e-20 10.1707)
(4.294 -1.28945e-20 11.9694)
(2.3409 -1.35154e-19 14.9591)
(-0.0369461 -1.15648e-19 0.176581)
(-0.48599 2.2768e-19 0.357465)
(-1.2315 5.74243e-20 0.437526)
(-2.09521 -1.08683e-19 0.472964)
(-3.03105 8.8447e-20 0.483855)
(-4.00656 -1.74236e-19 0.480833)
(-5.00085 2.8359e-20 0.468882)
(-5.99861 -3.40937e-20 0.450458)
(-6.98682 3.31416e-20 0.426816)
(-7.95323 2.00813e-20 0.398623)
(-8.8857 3.75266e-20 0.366226)
(-9.77093 0 0.329757)
(-10.5942 1.09378e-20 0.289277)
(-11.3397 -2.30594e-20 0.244856)
(-11.9904 1.13822e-20 0.196604)
(-12.5284 6.02356e-21 0.144716)
(-12.9358 9.31673e-23 0.0894696)
(-13.1948 -5.79683e-21 0.0311171)
(-13.2884 1.14557e-20 -0.0302547)
(-13.2004 0 -0.0948367)
(-12.9193 -4.98291e-21 -0.162233)
(-12.4383 0 -0.230576)
(-11.7549 8.73636e-22 -0.299469)
(-10.8678 -8.62757e-22 -0.369626)
(-9.77262 2.55377e-22 -0.443012)
(-8.45033 -2.52982e-22 -0.524993)
(-6.86121 0 -0.632774)
(-4.98423 -1.58691e-22 -0.811247)
(-2.80658 -5.27286e-24 -1.14572)
(2.69414 5.11609e-24 -2.29096)
(-0.253624 8.00751e-19 0.534986)
(-0.816053 0 0.82738)
(-1.59552 5.47692e-20 0.988566)
(-2.45902 0 1.08583)
(-3.38265 8.43152e-20 1.14112)
(-4.34044 -2.41521e-19 1.16731)
(-5.3141 2.6512e-19 1.1714)
(-6.28921 0 1.15729)
(-7.25309 0 1.12707)
(-8.19363 9.50588e-20 1.08182)
(-9.09854 7.47299e-20 1.02192)
(-9.95441 0 0.947238)
(-10.7464 -3.39228e-20 0.857532)
(-11.4584 5.52567e-20 0.752628)
(-12.0729 0 0.632617)
(-12.5718 -2.42017e-20 0.498069)
(-12.9367 2.37175e-20 0.350152)
(-13.1499 5.88365e-21 0.190521)
(-13.1938 -5.7082e-21 0.0211591)
(-13.0536 0 -0.155393)
(-12.7271 9.75423e-21 -0.332366)
(-12.2079 -4.69821e-21 -0.505648)
(-11.4938 3.90334e-21 -0.674003)
(-10.5835 3.22567e-21 -0.838362)
(-9.4729 -2.50876e-21 -1.00166)
(-8.14637 3.43017e-22 -1.17263)
(-6.57194 -3.39669e-22 -1.38203)
(-4.73345 1.56509e-22 -1.71147)
(-2.65009 0 -2.30231)
(1.05922 0 -3.65864)
(-0.283318 -9.24863e-19 1.13119)
(-0.911003 1.79569e-18 1.48533)
(-1.72133 -8.68335e-19 1.69524)
(-2.57021 0 1.82942)
(-3.45737 -5.60218e-20 1.90655)
(-4.36706 0 1.94019)
(-5.28699 0 1.93892)
(-6.20619 0 1.9079)
(-7.11416 0 1.85015)
(-8.00023 0 1.76726)
(-8.853 8.2408e-20 1.65975)
(-9.65972 -1.67367e-19 1.52749)
(-10.4061 6.30563e-20 1.37008)
(-11.0761 0 1.18734)
(-11.6523 2.40784e-20 0.979572)
(-12.1163 -2.45837e-20 0.747992)
(-12.4498 0 0.494983)
(-12.6345 -2.45116e-20 0.224072)
(-12.6527 -1.1658e-20 -0.0599434)
(-12.4917 0 -0.350686)
(-12.1494 0 -0.640951)
(-11.6211 9.26255e-21 -0.924788)
(-10.906 -2.65132e-22 -1.20007)
(-10.0042 -6.79047e-21 -1.46791)
(-8.91311 7.72773e-21 -1.73231)
(-7.62323 -3.78904e-21 -2.00454)
(-6.11711 2.4071e-21 -2.32112)
(-4.39804 0 -2.77414)
(-2.52597 0 -3.52236)
(0.0852012 -1.48501e-22 -4.87212)
(-0.229243 -9.38371e-19 1.87179)
(-0.873467 1.81159e-18 2.22401)
(-1.70062 -8.83487e-19 2.4339)
(-2.52155 0 2.57157)
(-3.36003 4.81212e-19 2.64924)
(-4.20953 -4.66923e-19 2.67805)
(-5.06453 -6.45998e-20 2.66577)
(-5.91842 -2.808e-19 2.61725)
(-6.7636 3.45799e-19 2.53521)
(-7.59122 -1.58841e-19 2.42086)
(-8.3909 1.37154e-20 2.2742)
(-9.15034 -1.64446e-19 2.09445)
(-9.85525 1.39058e-19 1.88056)
(-10.4892 -9.12507e-20 1.63169)
(-11.034 -2.41141e-20 1.34769)
(-11.4699 2.465e-20 1.02972)
(-11.7778 -2.54967e-20 0.680576)
(-11.9385 4.99472e-20 0.304842)
(-11.9331 0 -0.0906665)
(-11.7524 0 -0.495534)
(-11.3973 2.07394e-20 -0.896792)
(-10.8655 -1.91335e-20 -1.28708)
(-10.1585 -3.76579e-21 -1.66414)
(-9.27726 3.70205e-21 -2.02973)
(-8.22159 -5.21226e-21 -2.38879)
(-6.9886 3.76828e-21 -2.75362)
(-5.57581 -2.88143e-21 -3.16066)
(-4.00846 6.01055e-22 -3.69578)
(-2.38911 -1.27425e-22 -4.49888)
(-0.456478 1.21887e-22 -5.68814)
(-0.138707 6.09219e-20 2.69164)
(-0.766819 0 2.99696)
(-1.58577 1.18818e-19 3.17299)
(-2.35928 0 3.29063)
(-3.13653 0 3.35422)
(-3.91672 0 3.37045)
(-4.69987 -2.09833e-19 3.34408)
(-5.48312 2.66795e-19 3.27803)
(-6.26132 -3.80955e-19 3.17348)
(-7.02716 4.64175e-19 3.03024)
(-7.77105 2.44429e-19 2.84702)
(-8.48094 0 2.62179)
(-9.14232 -9.30641e-20 2.35241)
(-9.73816 4.93679e-20 2.0372)
(-10.2492 0 1.67561)
(-10.6549 0 1.26916)
(-10.935 -2.65787e-20 0.82211)
(-11.0699 2.60025e-20 0.341569)
(-11.0396 2.55338e-20 -0.161902)
(-10.8406 0 -0.673164)
(-10.4761 -1.07228e-20 -1.17639)
(-9.94731 -1.06786e-20 -1.66298)
(-9.2578 -3.65411e-22 -2.13097)
(-8.40974 3.22049e-21 -2.58282)
(-7.40467 -3.16482e-21 -3.02364)
(-6.24576 0 -3.46432)
(-4.94289 -5.77523e-22 -3.93619)
(-3.53801 5.6796e-22 -4.50905)
(-2.16274 0 -5.29183)
(-0.678041 3.82342e-23 -6.27567)
(-0.0401899 8.80819e-19 3.52732)
(-0.630314 -9.54616e-19 3.76084)
(-1.40925 -5.64696e-20 3.88569)
(-2.1124 -6.32214e-20 3.97086)
(-2.81419 0 4.01226)
(-3.51489 -4.78125e-19 4.01183)
(-4.21846 2.43215e-19 3.97051)
(-4.92456 -2.40536e-20 3.88837)
(-5.62982 6.92345e-19 3.76435)
(-6.32811 -3.94745e-19 3.59635)
(-7.01052 -1.76979e-19 3.38138)
(-7.66536 3.65424e-19 3.11589)
(-8.2781 -1.38202e-19 2.79642)
(-8.8314 -1.00771e-19 2.42021)
(-9.30526 -1.06574e-19 1.98606)
(-9.67816 1.5917e-19 1.49549)
(-9.9288 2.75005e-20 0.95393)
(-10.0364 0 0.371135)
(-9.97985 -5.14831e-20 -0.238257)
(-9.76367 4.90087e-20 -0.852797)
(-9.39346 -2.33595e-20 -1.45199)
(-8.87437 1.03485e-20 -2.02689)
(-8.21215 7.30689e-22 -2.57688)
(-7.40954 1.53162e-20 -3.10572)
(-6.46886 1.509e-20 -3.61809)
(-5.39798 -1.6426e-21 -4.12117)
(-4.21509 -3.05505e-22 -4.63774)
(-2.97278 -5.00858e-21 -5.2166)
(-1.81324 0 -5.93717)
(-0.647651 0 -6.71671)
(0.0474879 -2.03951e-18 4.31611)
(-0.488933 4.24826e-19 4.46928)
(-1.19207 4.41851e-19 4.53947)
(-1.80064 6.34054e-20 4.58968)
(-2.41149 0 4.60751)
(-3.02114 -6.38606e-19 4.59061)
(-3.63592 4.81365e-19 4.53605)
(-4.25683 3.92218e-19 4.44084)
(-4.88162 -3.85144e-19 4.30132)
(-5.50503 1.69307e-19 4.11316)
(-6.11881 -8.82566e-20 3.87139)
(-6.71176 4.82411e-20 3.57068)
(-7.26966 0 3.20595)
(-7.77522 5.15112e-20 2.7731)
(-8.20804 1.10887e-19 2.26997)
(-8.5455 -1.07355e-19 1.69789)
(-8.7649 -1.13144e-19 1.06374)
(-8.84398 5.60456e-20 0.381049)
(-8.75962 0 -0.330029)
(-8.52808 0 -1.04062)
(-8.15642 2.27156e-20 -1.72589)
(-7.65452 -4.38007e-20 -2.3777)
(-7.02969 0 -2.99816)
(-6.28433 4.3563e-21 -3.593)
(-5.4202 -1.88143e-20 -4.16591)
(-4.44852 -8.50171e-21 -4.71858)
(-3.39131 1.05339e-21 -5.26299)
(-2.30819 -5.83513e-22 -5.82615)
(-1.33382 0 -6.46378)
(-0.413481 0 -7.05579)
(0.113481 0 4.99972)
(-0.356901 5.74902e-19 5.07796)
(-0.94752 -4.97857e-19 5.10169)
(-1.43824 0 5.12274)
(-1.94241 0 5.12172)
(-2.4487 2.98886e-19 5.09284)
(-2.96469 9.58595e-20 5.02957)
(-3.49148 -3.81227e-19 4.92605)
(-4.0274 3.47168e-19 4.77615)
(-4.56776 -4.24952e-19 4.57327)
(-5.10493 -1.46882e-19 4.31038)
(-5.62841 1.9135e-19 3.98034)
(-6.12466 0 3.57632)
(-6.57688 0 3.09268)
(-6.96477 -5.74027e-20 2.52598)
(-7.26475 -5.72124e-20 1.87684)
(-7.45216 2.83784e-20 1.15327)
(-7.50233 2.9849e-20 0.373639)
(-7.38882 -2.93342e-20 -0.434655)
(-7.14454 -2.72711e-20 -1.23344)
(-6.77657 0 -1.99352)
(-6.29989 2.17824e-20 -2.70956)
(-5.72231 -2.89111e-20 -3.38813)
(-5.04483 -7.2748e-21 -4.0378)
(-4.26723 -3.05032e-21 -4.66073)
(-3.40309 2.31402e-21 -5.25186)
(-2.47447 0 -5.81109)
(-1.5461 1.03497e-20 -6.34543)
(-0.731013 -3.13766e-21 -6.89285)
(-0.0126512 5.8353e-23 -7.31801)
(0.154041 5.84658e-19 5.52745)
(-0.23968 -5.27541e-19 5.54848)
(-0.683273 -3.22036e-19 5.54357)
(-1.03615 2.80508e-19 5.54771)
(-1.41917 3.70272e-20 5.53735)
(-1.81007 3.81627e-20 5.50455)
(-2.21728 0 5.43958)
(-2.64094 3.41771e-19 5.33425)
(-3.07936 -2.88925e-19 5.18025)
(-3.52813 1.90735e-19 4.96893)
(-3.98027 -4.77657e-20 4.69144)
(-4.42621 1.62204e-19 4.33887)
(-4.85349 -3.20087e-19 3.90261)
(-5.2464 2.26074e-19 3.37528)
(-5.58541 -5.65309e-20 2.75179)
(-5.84631 0 2.03133)
(-6.00159 6.06637e-20 1.22214)
(-6.02321 -3.03421e-20 0.348544)
(-5.87955 5.94774e-20 -0.551733)
(-5.6271 -1.22306e-21 -1.42884)
(-5.26996 -2.64177e-20 -2.25026)
(-4.82752 0 -3.01648)
(-4.30646 5.01039e-20 -3.74047)
(-3.70562 -9.29424e-21 -4.43435)
(-3.02206 1.46011e-20 -5.09785)
(-2.27033 1.09384e-20 -5.7178)
(-1.47225 0 -6.28255)
(-0.691866 -5.71373e-21 -6.78233)
(-0.0176863 3.34785e-21 -7.23975)
(0.524871 0 -7.51801)
(0.172233 9.6127e-21 5.85881)
(-0.134778 1.52215e-19 5.851)
(-0.402759 -1.49672e-19 5.84214)
(-0.60307 5.84128e-22 5.84611)
(-0.853317 -3.722e-20 5.83944)
(-1.11847 -5.80721e-20 5.81328)
(-1.40801 1.6827e-19 5.75544)
(-1.72023 -3.40627e-19 5.65605)
(-2.05297 3.14671e-19 5.50508)
(-2.40176 -1.82033e-19 5.29222)
(-2.76019 0 5.00726)
(-3.11988 -1.10162e-19 4.63977)
(-3.46991 1.0799e-19 4.17941)
(-3.79639 -1.2083e-19 3.61684)
(-4.08151 2.43981e-19 2.9449)
(-4.3011 -5.9482e-20 2.16054)
(-4.42334 -1.27743e-19 1.27078)
(-4.41601 6.39784e-20 0.306179)
(-4.24289 -3.05856e-20 -0.680056)
(-3.99144 0 -1.6231)
(-3.65629 0 -2.49037)
(-3.25897 0 -3.2918)
(-2.80332 -2.07997e-20 -4.04901)
(-2.28552 0 -4.77799)
(-1.70094 -1.63749e-20 -5.47505)
(-1.06192 2.97072e-21 -6.11691)
(-0.396647 -1.28284e-21 -6.67891)
(0.246559 -6.22676e-21 -7.14593)
(0.778282 3.58284e-23 -7.50763)
(1.18625 -2.24743e-21 -7.67241)
(0.177195 -9.59668e-21 5.96896)
(-0.0328504 -4.21174e-20 5.96733)
(-0.106552 -3.29361e-20 5.98204)
(-0.146048 1.84352e-20 6.00537)
(-0.256114 0 6.01759)
(-0.388043 1.97987e-20 6.01003)
(-0.553258 -2.61554e-21 5.96898)
(-0.747417 0 5.88355)
(-0.967696 1.9203e-19 5.74266)
(-1.20907 -8.58433e-20 5.53524)
(-1.46537 9.9345e-20 5.25012)
(-1.72951 -1.41153e-19 4.87555)
(-1.99248 2.30966e-19 4.39965)
(-2.24294 -1.17484e-19 3.81103)
(-2.46644 0 3.09967)
(-2.64042 0 2.25971)
(-2.72573 0 1.29642)
(-2.68088 1.00093e-19 0.245364)
(-2.48614 -6.53644e-20 -0.817701)
(-2.25397 -3.05393e-20 -1.81088)
(-1.95779 4.10471e-20 -2.7086)
(-1.61853 -2.60814e-20 -3.53217)
(-1.23764 -3.35847e-20 -4.31149)
(-0.807227 -1.89921e-20 -5.06757)
(-0.324146 1.58144e-20 -5.7916)
(0.206903 1.25824e-20 -6.45562)
(0.739349 -2.46611e-22 -7.00354)
(1.23408 6.4005e-21 -7.42472)
(1.66139 9.18482e-27 -7.71686)
(1.95326 2.197e-21 -7.78966)
(0.178671 0 5.85188)
(0.0856541 7.45869e-20 5.89507)
(0.208092 3.73472e-20 5.95769)
(0.325471 -1.89145e-20 6.01873)
(0.359813 3.88411e-20 6.0651)
(0.364284 -4.16845e-20 6.08839)
(0.327629 1.20294e-19 6.07482)
(0.256279 -1.75122e-19 6.01291)
(0.153987 -1.34227e-20 5.89122)
(0.0250668 1.08381e-19 5.69591)
(-0.122844 0 5.41682)
(-0.283117 2.79146e-20 5.04286)
(-0.448658 -1.22737e-19 4.56064)
(-0.611045 5.65304e-20 3.95755)
(-0.76103 6.3338e-20 3.22101)
(-0.88032 -3.37897e-20 2.33988)
(-0.919999 -3.45061e-20 1.31414)
(-0.799884 -3.4306e-20 0.178384)
(-0.620646 3.08578e-22 -0.953089)
(-0.436821 6.15219e-20 -1.97898)
(-0.20186 -5.72536e-20 -2.89402)
(0.0668329 1.18345e-20 -3.73903)
(0.364877 -1.21065e-20 -4.53424)
(0.705368 3.82438e-20 -5.31034)
(1.08674 -5.5447e-22 -6.05021)
(1.49384 1.19832e-21 -6.70962)
(1.91026 0 -7.25025)
(2.291 0 -7.64339)
(2.62044 0 -7.87527)
(2.80314 0 -7.87178)
(0.197188 -7.58027e-20 5.52243)
(0.244125 -3.71128e-20 5.6465)
(0.546063 -7.30669e-20 5.77483)
(0.809227 1.90472e-19 5.88836)
(0.985238 -1.88162e-19 5.98165)
(1.12219 0 6.04599)
(1.21224 3.11594e-20 6.06797)
(1.26278 -2.74034e-21 6.03566)
(1.27911 5.80314e-21 5.93781)
(1.26659 3.60655e-20 5.76139)
(1.23202 6.36031e-20 5.49547)
(1.18176 0 5.12885)
(1.12255 0 4.64856)
(1.06133 -3.1153e-20 4.04162)
(1.00343 -6.6786e-20 3.29487)
(0.961057 2.02321e-19 2.3937)
(0.99226 -3.36782e-20 1.3209)
(1.17592 -3.45376e-20 0.114029)
(1.30788 3.32933e-20 -1.0584)
(1.42371 1.50075e-20 -2.10584)
(1.57475 -8.68017e-22 -3.03074)
(1.75215 -1.32921e-20 -3.8748)
(1.96214 2.21794e-20 -4.68636)
(2.21297 -2.01368e-20 -5.48212)
(2.50074 1.29127e-21 -6.23845)
(2.81099 1.98699e-22 -6.90802)
(3.12487 1.01447e-20 -7.44098)
(3.40078 -4.9839e-22 -7.80533)
(3.63636 0 -7.98481)
(3.7141 0 -7.91907)
(0.252584 1.48551e-19 5.00997)
(0.459667 -3.54785e-20 5.24541)
(0.913432 3.66527e-19 5.45028)
(1.30739 -1.37067e-19 5.62425)
(1.61626 -1.09118e-19 5.77406)
(1.87753 4.04635e-20 5.88852)
(2.08773 -5.99989e-20 5.95337)
(2.25496 2.14623e-20 5.95643)
(2.38595 -2.38422e-20 5.88699)
(2.48689 2.63698e-20 5.73277)
(2.56424 -1.29359e-20 5.48265)
(2.62432 0 5.12567)
(2.67377 1.44582e-20 4.64947)
(2.71926 3.06435e-20 4.04119)
(2.76552 -6.54884e-20 3.28747)
(2.82248 6.46152e-20 2.37311)
(2.93024 -3.40766e-20 1.29182)
(3.10498 1.36155e-23 0.0983809)
(3.20088 1.62989e-20 -1.08975)
(3.25701 3.01191e-20 -2.15737)
(3.32283 -3.51675e-20 -3.09894)
(3.4131 -1.24259e-20 -3.962)
(3.54047 4.48209e-21 -4.79387)
(3.71131 1.26365e-21 -5.60974)
(3.9184 -1.58072e-20 -6.38102)
(4.14339 -1.26337e-20 -7.05437)
(4.3646 -2.77016e-20 -7.57699)
(4.54392 -9.99833e-22 -7.91397)
(4.6896 7.62833e-21 -8.04766)
(4.66541 0 -7.93122)
(0.348085 4.95921e-19 4.29327)
(0.745768 1.83468e-20 4.73534)
(1.31494 1.42967e-19 5.02513)
(1.82143 -2.09777e-19 5.25281)
(2.25097 -7.3023e-20 5.46065)
(2.62484 4.14183e-20 5.62948)
(2.94352 -7.70781e-20 5.74132)
(3.21745 -2.78971e-22 5.78353)
(3.45471 1.11223e-20 5.74582)
(3.66189 6.49251e-21 5.61674)
(3.84512 -1.43673e-20 5.38544)
(4.01035 -2.03995e-21 5.04122)
(4.1637 5.65346e-20 4.57234)
(4.31106 1.83748e-21 3.96643)
(4.45641 -2.93567e-20 3.21016)
(4.60508 -6.40477e-20 2.28977)
(4.76643 -4.74098e-22 1.21044)
(4.93541 6.62557e-20 0.0324367)
(5.00402 -3.17086e-20 -1.12697)
(5.00997 0 -2.18)
(5.00245 2.72279e-20 -3.12364)
(5.01644 2.60646e-20 -4.00169)
(5.07429 -1.42195e-21 -4.85669)
(5.18065 2.08736e-20 -5.69499)
(5.32188 -3.91176e-21 -6.48021)
(5.47373 1.74006e-21 -7.15442)
(5.61177 3.69395e-20 -7.6636)
(5.70179 -1.14485e-20 -7.97299)
(5.76105 -8.05269e-21 -8.06559)
(5.63741 -1.56168e-22 -7.90764)
(9.98854 2.06975e-20 0.136824)
(9.97734 3.3514e-22 0.266127)
(9.95651 2.21259e-20 0.394174)
(9.92293 -2.83875e-21 0.524724)
(9.8799 8.75386e-21 0.659744)
(9.82934 -5.98607e-21 0.800829)
(9.77147 0 0.949507)
(9.70625 0 1.10728)
(9.63385 1.32163e-20 1.27564)
(9.55454 0 1.45608)
(9.46858 -1.40507e-20 1.65014)
(9.37618 0 1.8594)
(9.27756 4.4598e-20 2.08557)
(9.17293 -6.07059e-20 2.33048)
(9.06249 -1.5444e-20 2.59615)
(8.9464 0 2.88489)
(8.82477 -4.91131e-20 3.19933)
(8.69767 8.3518e-20 3.5426)
(8.56506 3.41901e-20 3.91848)
(8.42684 0 4.33167)
(8.28275 1.74798e-20 4.78818)
(8.13249 4.9678e-20 5.29592)
(7.97572 -1.24361e-20 5.86569)
(7.81237 -8.57532e-20 6.51278)
(7.6434 1.00798e-19 7.25993)
(7.47379 -6.70236e-20 8.14284)
(7.3182 -1.36488e-20 9.22229)
(7.30582 -2.7996e-20 10.6032)
(7.78495 -1.43652e-20 12.4726)
(8.21274 -2.18328e-20 15.2672)
(9.98901 2.0097e-20 0.141905)
(9.97942 2.07491e-20 0.275983)
(9.96138 0 0.408685)
(9.93168 0 0.543891)
(9.89362 -1.95908e-20 0.683602)
(9.84913 -2.89099e-21 0.829421)
(9.79848 -1.18592e-20 0.982882)
(9.74173 0 1.14549)
(9.67913 1.25516e-20 1.31874)
(9.61104 0 1.50412)
(9.53787 -2.68546e-20 1.70315)
(9.45999 2.74335e-20 1.91741)
(9.37781 -2.83558e-20 2.14858)
(9.29178 4.36116e-20 2.39846)
(9.2024 -2.94435e-20 2.66906)
(9.11022 4.54107e-20 2.96264)
(9.01585 -4.63974e-20 3.28179)
(8.92001 -6.3275e-20 3.62958)
(8.8236 3.2201e-20 4.00969)
(8.72775 0 4.42668)
(8.63405 8.10548e-21 4.88627)
(8.54488 8.24565e-21 5.39589)
(8.46406 3.33948e-20 5.96538)
(8.39821 6.35445e-20 6.60806)
(8.35959 -1.18089e-19 7.34224)
(8.37321 6.74411e-21 8.19296)
(8.48122 1.0795e-19 9.19282)
(8.76804 -6.95042e-20 10.3741)
(9.46712 3.35075e-20 11.6611)
(10.0561 2.02335e-20 12.6162)
(9.98951 -1.96996e-20 0.146489)
(9.98159 -1.93583e-22 0.28487)
(9.96646 8.06102e-23 0.421739)
(9.94082 -8.25874e-23 0.561076)
(9.90791 2.38707e-22 0.704909)
(9.86971 0 0.854839)
(9.82655 1.15732e-20 1.01239)
(9.77853 -5.81624e-21 1.17906)
(9.72601 -1.83088e-20 1.35632)
(9.66947 0 1.54563)
(9.60941 1.2866e-20 1.74847)
(9.54639 -2.61889e-20 1.96637)
(9.48101 -1.33672e-20 2.20096)
(9.41397 2.77035e-20 2.45396)
(9.34605 -2.82738e-20 2.72728)
(9.27818 -1.46348e-20 3.02305)
(9.21147 1.49991e-20 3.3437)
(9.14727 6.02543e-20 3.69204)
(9.08729 0 4.0714)
(9.03378 0 4.48576)
(8.98985 0 4.93997)
(8.95992 -2.9362e-20 5.44)
(8.95057 -1.56371e-22 5.99312)
(8.9719 1.55136e-20 6.60801)
(9.03949 1.52562e-20 7.29425)
(9.17766 3.93268e-20 8.05992)
(9.41728 -4.57205e-20 8.90467)
(9.77782 -1.6666e-20 9.81174)
(10.3716 2.05421e-21 10.7068)
(11.0832 -4.89612e-21 11.3092)
(9.99002 0 0.150521)
(9.98385 -1.95127e-20 0.292676)
(9.97173 0 0.433166)
(9.95026 -2.03328e-20 0.576048)
(9.92265 -2.11238e-20 0.723364)
(9.89092 -2.14415e-20 0.876706)