/*--------------------------------*- C++ -*----------------------------------*\
| =========                 |                                                 |
| \\      /  F ield         | OpenFOAM: The Open Source CFD Toolbox           |
|  \\    /   O peration     | Version:  dev                                   |
|   \\  /    A nd           | Web:      www.OpenFOAM.org                      |
|    \\/     M anipulation  |                                                 |
\*---------------------------------------------------------------------------*/
FoamFile
{
    version     2.0;
    format      ascii;
    class       surfaceVectorField;
    location    "0.07";
    object      Uf;
}
// * * * * * * * * * * * * * * * * * * * * * * * * * * * * * * * * * * * * * //

dimensions      [0 1 -1 0 0 0 0];

internalField   nonuniform List<vector> 
5457
(
(9.92182 0 0.0234951)
(9.97049 6.7092e-22 0.0382407)
(9.82869 -1.78648e-22 0.0306526)
(9.92984 0 0.0466611)
(9.71869 -1.74412e-22 0.0361847)
(9.85869 1.29114e-25 0.0564557)
(9.58999 -1.90189e-22 0.0413091)
(9.75933 3.62646e-22 0.0676595)
(9.44365 -1.85682e-22 0.0459393)
(9.63682 -3.25184e-25 0.0788068)
(9.28191 -2.17159e-22 0.0500906)
(9.49405 4.11959e-22 0.0892232)
(9.10695 1.35074e-23 0.0540087)
(9.33328 3.6348e-22 0.0988561)
(8.92028 2.3412e-22 0.0580281)
(9.15689 1.39015e-23 0.108038)
(8.72241 -1.15966e-22 0.0624715)
(8.96676 2.311e-22 0.117307)
(8.51285 -1.26505e-22 0.0676046)
(8.76373 -7.19873e-23 0.12725)
(8.29036 0 0.073626)
(8.54749 1.78362e-22 0.138385)
(8.05319 0 0.080677)
(8.31689 -1.22606e-22 0.151104)
(7.79929 -1.38462e-22 0.0888601)
(8.07022 0 0.165684)
(7.52654 -2.08901e-22 0.0982554)
(7.80546 -1.02057e-24 0.182311)
(7.2328 1.57644e-22 0.108929)
(7.52053 6.9793e-23 0.201104)
(6.91604 1.44658e-22 0.120934)
(7.21331 1.52019e-22 0.222129)
(6.57439 -7.76597e-23 0.134302)
(6.8818 3.20624e-22 0.245393)
(6.20625 -4.46897e-23 0.149039)
(6.52417 3.56517e-22 0.270835)
(5.81038 -4.36311e-23 0.165107)
(6.13889 -7.80449e-22 0.298301)
(5.38602 0 0.182415)
(5.72483 1.84389e-22 0.32752)
(4.93304 -2.09396e-22 0.200805)
(5.28139 0 0.358082)
(4.45208 -2.04434e-22 0.22004)
(4.80863 -8.14792e-22 0.389421)
(3.94465 -1.15976e-22 0.239799)
(4.30747 -1.7472e-21 0.420808)
(3.41328 -1.13225e-22 0.259677)
(3.77976 5.46552e-21 0.451358)
(2.86153 5.10721e-22 0.279191)
(3.22842 1.0689e-23 0.48007)
(2.29396 4.98591e-22 0.29779)
(2.65745 4.60741e-21 0.505876)
(1.71607 0 0.314857)
(2.07188 -8.30689e-21 0.52771)
(1.13412 0 0.329826)
(1.47761 1.53472e-20 0.544543)
(0.554681 1.92758e-20 0.338262)
(0.878458 -3.40273e-20 0.555594)
(0.354049 1.04719e-20 0.544737)
(9.99744 6.62881e-22 0.0495954)
(9.9964 -6.67893e-22 0.0394952)
(9.95924 1.78379e-22 0.0686985)
(9.97919 -6.84729e-22 0.0657981)
(9.89467 5.41146e-22 0.086152)
(9.93361 1.87295e-22 0.0895966)
(9.80351 5.48016e-22 0.10415)
(9.85779 6.90172e-22 0.115589)
(9.68589 6.02122e-22 0.121774)
(9.75448 9.80988e-22 0.142144)
(9.54417 9.92066e-22 0.138252)
(9.62624 9.11414e-25 0.167401)
(9.38172 3.59616e-22 0.153598)
(9.47578 2.27285e-22 0.190643)
(9.20174 1.33339e-23 0.168401)
(9.30623 -2.60772e-22 0.21221)
(9.00638 2.71581e-22 0.183512)
(9.12034 2.98831e-25 0.23312)
(8.79657 2.36089e-22 0.199807)
(8.91979 5.61989e-23 0.254658)
(8.57204 5.2025e-23 0.218028)
(8.70494 5.92276e-23 0.278039)
(8.33167 -1.21137e-22 0.238734)
(8.47511 -6.17346e-25 0.304239)
(8.07379 1.37796e-22 0.262316)
(8.22887 5.18524e-22 0.333967)
(7.79642 2.7888e-22 0.289032)
(7.96437 1.4256e-22 0.367711)
(7.49745 6.48685e-23 0.31904)
(7.67954 -2.80189e-22 0.405792)
(7.17478 3.29751e-22 0.352409)
(7.37224 -7.51599e-23 0.448398)
(6.82644 7.55495e-22 0.389107)
(7.04037 9.56124e-22 0.495594)
(6.45066 -3.91617e-22 0.428979)
(6.68197 -3.00304e-22 0.547295)
(6.04599 -5.40576e-22 0.471719)
(6.29528 -6.48818e-22 0.603232)
(5.61144 1.8218e-22 0.516828)
(5.87891 3.6536e-22 0.662902)
(5.14663 -6.1269e-22 0.563589)
(5.43192 -1.17717e-21 0.725516)
(4.65194 -2.36634e-21 0.611053)
(4.95403 -5.66256e-22 0.789958)
(4.12864 3.91335e-21 0.65804)
(4.44576 -3.43545e-21 0.854762)
(3.57911 5.54863e-21 0.703182)
(3.90859 5.58218e-21 0.91812)
(3.00683 4.17616e-21 0.744998)
(3.34513 4.34153e-21 0.977935)
(2.41645 -4.30638e-21 0.782002)
(2.75922 -8.27832e-21 1.03193)
(1.81371 7.32076e-21 0.812817)
(2.1559 -1.0485e-22 1.07781)
(1.20513 -1.91804e-20 0.836375)
(1.54145 3.42711e-20 1.11339)
(0.597418 -4.39076e-20 0.842061)
(0.917586 -5.38347e-20 1.1372)
(0.368274 -2.34249e-20 1.12408)
(9.99009 -2.01687e-21 0.0582051)
(9.99413 6.62342e-22 0.0443427)
(9.95488 -6.65351e-22 0.0894904)
(9.97436 6.83174e-22 0.083439)
(9.89359 3.41866e-22 0.121313)
(9.9298 -1.09706e-23 0.12105)
(9.80647 1.12608e-21 0.155003)
(9.85696 -3.74153e-22 0.161393)
(9.69356 3.67914e-22 0.188576)
(9.75722 9.36579e-23 0.202947)
(9.55666 -7.61272e-22 0.220193)
(9.63281 -1.17996e-21 0.242913)
(9.39885 -3.9899e-22 0.249367)
(9.48636 -4.00446e-22 0.27981)
(9.22323 -2.70591e-22 0.276832)
(9.3209 -5.16826e-23 0.313851)
(9.03205 -2.14329e-22 0.304016)
(9.13913 -6.47267e-22 0.346456)
(8.82635 -1.20562e-22 0.332523)
(8.94274 0 0.379566)
(8.60601 5.86284e-24 0.363783)
(8.73219 -1.19135e-22 0.415083)
(8.37004 6.45264e-22 0.398907)
(8.50688 6.10405e-22 0.454574)
(8.11683 5.18604e-22 0.438694)
(8.26546 2.50279e-24 0.499201)
(7.84444 -4.21544e-22 0.483687)
(8.00614 8.15091e-22 0.549779)
(7.55075 -4.17614e-22 0.534237)
(7.72685 -9.79076e-22 0.606863)
(7.2336 5.63673e-22 0.590528)
(7.42544 2.94345e-22 0.670803)
(6.89087 -1.13906e-22 0.652572)
(7.0997 5.57004e-22 0.741764)
(6.52061 -5.6085e-22 0.720174)
(6.74752 -6.21311e-22 0.819696)
(6.1211 2.69452e-22 0.792876)
(6.36692 -8.3861e-23 0.904282)
(5.69099 -1.0122e-21 0.869896)
(5.95617 -2.00532e-21 0.994862)
(5.22947 -1.12852e-21 0.950063)
(5.51393 -5.64294e-23 1.09035)
(4.73642 -1.66312e-21 1.03177)
(5.03941 3.9188e-23 1.18916)
(4.2126 -1.66801e-21 1.11296)
(4.53254 1.71524e-21 1.28914)
(3.65985 4.3826e-21 1.19116)
(3.9942 -3.49807e-21 1.38758)
(3.08126 -8.21389e-21 1.26355)
(3.42642 4.78853e-21 1.48121)
(2.48124 -3.97248e-21 1.3272)
(2.83259 -1.23683e-20 1.56641)
(1.86554 2.72556e-20 1.37922)
(2.21755 1.53677e-20 1.6394)
(1.24101 -1.3196e-21 1.41738)
(1.588 1.95442e-20 1.69655)
(0.614866 -3.36892e-20 1.42579)
(0.943793 -3.77467e-20 1.73561)
(0.377063 -3.6243e-21 1.72181)
(9.9861 3.36265e-21 0.070069)
(9.99294 6.8015e-22 0.0511421)
(9.95105 1.3286e-21 0.114429)
(9.97152 6.52475e-22 0.101)
(9.89103 -7.30676e-22 0.160591)
(9.92703 -1.39616e-21 0.151849)
(9.80563 -1.39978e-21 0.208962)
(9.8558 -1.41866e-21 0.206293)
(9.69514 -1.46895e-21 0.257069)
(9.75846 4.14408e-23 0.262447)
(9.5613 -8.09836e-22 0.30246)
(9.63701 7.65422e-22 0.316741)
(9.40699 -4.90066e-23 0.344328)
(9.49407 -8.42561e-22 0.366992)
(9.23521 -4.35496e-22 0.383581)
(9.33258 -1.03934e-22 0.413271)
(9.04813 -4.25182e-22 0.422169)
(9.15514 1.05704e-22 0.457363)
(8.84677 0 0.462344)
(8.9634 0 0.501834)
(8.63107 4.94268e-22 0.506152)
(8.75783 0 0.549249)
(8.40005 -3.95966e-23 0.55521)
(8.53787 9.88563e-25 0.601749)
(8.15219 3.08756e-22 0.610701)
(8.30224 -5.0828e-22 0.660947)
(7.88557 2.35706e-22 0.673451)
(8.04917 8.20787e-22 0.727996)
(7.59805 -2.51863e-22 0.744019)
(7.77664 -1.67121e-21 0.803705)
(7.28745 2.90821e-22 0.822741)
(7.48244 2.87698e-22 0.888622)
(6.95152 3.59352e-23 0.909724)
(7.16429 0 0.983056)
(6.58811 -1.37879e-22 1.0048)
(6.81992 1.46053e-21 1.08705)
(6.19524 -2.38173e-21 1.10746)
(6.44708 -1.4224e-21 1.20033)
(5.77118 -1.02959e-21 1.21675)
(6.04369 -3.87388e-22 1.32217)
(5.31461 1.10729e-21 1.33117)
(5.60793 -3.38793e-21 1.45128)
(4.8248 3.44434e-21 1.44857)
(5.13838 -3.10873e-21 1.58574)
(4.30187 -1.62796e-22 1.56615)
(4.63425 8.387e-21 1.72278)
(3.74697 -2.99379e-21 1.6804)
(4.09561 -5.20869e-21 1.85884)
(3.16256 4.51669e-22 1.78719)
(3.52373 -4.55608e-22 1.98948)
(2.55267 7.25221e-21 1.88206)
(2.92134 0 2.10958)
(1.92294 7.75519e-21 1.96046)
(2.29287 1.41531e-20 2.21361)
(1.28065 -1.75165e-20 2.01882)
(1.64555 -9.75678e-21 2.29612)
(0.6339 -7.61339e-21 2.03591)
(0.977404 -1.3612e-20 2.35367)
(0.389338 1.42596e-20 2.34208)
(9.98426 -2.03076e-21 0.0826735)
(9.99241 -2.65736e-21 0.0588408)
(9.94897 -2.09652e-21 0.138684)
(9.97022 -7.03916e-22 0.118683)
(9.89019 -2.08446e-21 0.198077)
(9.92602 2.15667e-23 0.182013)
(9.80676 4.00641e-23 0.260484)
(9.85647 -1.3849e-21 0.250156)
(9.69897 2.28448e-21 0.322798)
(9.76178 -9.19089e-23 0.320491)
(9.56855 7.13379e-22 0.381845)
(9.6437 8.16663e-22 0.388684)
(9.41825 -8.88634e-22 0.436392)
(9.50478 -7.91601e-25 0.451914)
(9.25094 4.39792e-22 0.48742)
(9.34788 -2.07182e-22 0.510104)
(9.06873 5.29545e-22 0.537345)
(9.17554 8.56263e-22 0.565378)
(8.87266 0 0.589046)
(8.98937 -2.19634e-22 0.620897)
(8.66266 -4.93133e-22 0.645176)
(8.78986 -2.33027e-22 0.679864)
(8.43784 -4.73664e-22 0.707865)
(8.57648 -2.48855e-22 0.744981)
(8.19669 1.95194e-23 0.778693)
(8.34802 5.12668e-22 0.81831)
(7.93734 -1.11645e-21 0.858795)
(8.10275 -5.11136e-22 0.901354)
(7.65764 -1.10801e-21 0.94897)
(7.83867 -1.66225e-21 0.995198)
(7.35534 -6.49085e-24 1.04974)
(7.55354 8.56481e-22 1.10062)
(7.02806 1.4421e-21 1.16138)
(7.24499 0 1.21813)
(6.67345 1.42648e-22 1.28381)
(6.91056 1.26558e-21 1.34795)
(6.28915 5.8443e-22 1.41657)
(6.54772 1.80299e-22 1.48992)
(5.87299 -2.78218e-21 1.55861)
(6.15396 7.65272e-22 1.64338)
(5.42303 -7.60826e-21 1.70825)
(5.72687 -8.20759e-21 1.807)
(4.9378 1.97144e-21 1.86293)
(5.26426 -5.39082e-21 1.97862)
(4.41653 3.20523e-21 2.01916)
(4.76441 3.35714e-21 2.15505)
(3.85947 -2.61568e-21 2.17243)
(4.22634 1.05473e-23 2.33194)
(3.26822 -9.03825e-22 2.31725)
(3.6502 -6.19524e-21 2.50369)
(2.64618 7.07284e-21 2.44744)
(3.03774 6.41988e-23 2.66354)
(1.99885 -3.56936e-21 2.55646)
(2.39274 5.03244e-21 2.80389)
(1.33402 -5.88792e-21 2.63891)
(1.72292 -8.34274e-21 2.91684)
(0.66129 8.26463e-21 2.66784)
(1.0244 4.31079e-21 2.99684)
(0.407514 3.95851e-21 2.98945)
(9.9835 -1.30712e-21 0.0955596)
(9.99222 -1.05681e-23 0.0669104)
(9.94826 1.42261e-21 0.162552)
(9.96987 1.05977e-23 0.136337)
(9.89091 7.03793e-22 0.234699)
(9.92637 2.73476e-21 0.211448)
(9.80982 -1.50131e-21 0.310822)
(9.85876 2.22839e-21 0.292787)
(9.70518 -1.54851e-21 0.38698)
(9.76708 -8.78654e-22 0.37684)
(9.57869 9.26631e-23 0.459262)
(9.65286 -6.70226e-22 0.458458)
(9.43302 6.77991e-22 0.526051)
(9.51856 7.91967e-22 0.534218)
(9.27095 2.22206e-22 0.588431)
(9.36697 7.07534e-22 0.603905)
(9.09454 9.40097e-23 0.649278)
(9.20057 5.3319e-22 0.669959)
(8.9048 -4.5282e-22 0.712077)
(9.02095 -4.37397e-22 0.736108)
(8.70173 1.12522e-23 0.780075)
(8.82862 -2.33026e-22 0.806169)
(8.48448 7.46416e-22 0.8559)
(8.62311 7.19595e-22 0.883391)
(8.25161 -3.07505e-23 0.941534)
(8.40327 1.25636e-23 0.97028)
(8.00125 -1.07094e-21 1.03843)
(8.16744 -1.27735e-24 1.0687)
(7.7313 3.32412e-22 1.14766)
(7.91364 -1.52615e-24 1.18003)
(7.4394 8.52621e-22 1.26999)
(7.63964 -8.57449e-22 1.30532)
(7.12308 -1.61355e-22 1.4059)
(7.34297 -2.76093e-23 1.44535)
(6.7797 1.29144e-21 1.55552)
(7.02099 7.6292e-22 1.60059)
(6.40655 3.69631e-22 1.71853)
(6.67088 2.75295e-21 1.77113)
(6.00088 -4.76486e-21 1.89398)
(6.28963 -4.68458e-23 1.9565)
(5.56003 -5.96981e-21 2.08014)
(5.87414 -5.81167e-21 2.15553)
(5.08157 -3.90265e-21 2.2742)
(5.42134 -3.03984e-21 2.36604)
(4.56357 1.29704e-22 2.47215)
(4.9283 -1.62859e-21 2.58463)
(4.00501 -3.63365e-21 2.66856)
(4.39264 1.61995e-23 2.80633)
(3.40625 -5.15276e-21 2.85651)
(3.81294 -4.81149e-23 3.02448)
(2.76965 -1.90889e-21 3.02781)
(3.18942 3.75807e-21 3.23055)
(2.10022 1.25775e-22 3.17339)
(2.5246 -9.43551e-21 3.41444)
(1.40625 2.01955e-21 3.28509)
(1.82644 2.02066e-21 3.56496)
(0.699067 0 3.32923)
(1.08878 -4.12045e-21 3.67321)
(0.433143 6.37521e-21 3.6731)
(9.98335 1.30756e-21 0.108467)
(9.99223 1.32342e-21 0.0750539)
(9.94859 1.35543e-21 0.185944)
(9.97016 -1.31978e-21 0.153752)
(9.8929 4.25293e-21 0.270284)
(9.92776 -6.47124e-23 0.240031)
(9.81451 2.81352e-21 0.3596)
(9.86241 2.88687e-21 0.333997)
(9.71349 2.14597e-24 0.449078)
(9.77412 4.55616e-23 0.431242)
(9.59149 4.66061e-23 0.534081)
(9.66427 -4.65478e-23 0.525754)
(9.45112 8.20497e-22 0.612638)
(9.53519 9.8026e-23 0.613529)
(9.29507 1.01651e-21 0.685923)
(9.38962 -3.02521e-22 0.694221)
(9.12536 -1.01927e-23 0.757242)
(9.23 6.31579e-22 0.770568)
(8.94302 -2.15155e-22 0.830658)
(9.05788 4.31975e-22 0.846834)
(8.74807 4.86917e-22 0.909985)
(8.87382 0 0.927423)
(8.53975 -2.30268e-23 0.998343)
(8.67742 -4.55069e-22 1.01611)
(8.31669 4.16355e-23 1.09811)
(8.46762 -4.92222e-22 1.11585)
(8.07709 1.06766e-21 1.21109)
(8.24285 5.21718e-22 1.22885)
(7.81884 -1.20162e-21 1.33863)
(8.0012 -5.15082e-22 1.35684)
(7.53959 -1.72759e-21 1.48182)
(7.74043 -2.82756e-21 1.50116)
(7.23671 9.05753e-22 1.64141)
(7.45804 -2.76098e-23 1.66292)
(6.90734 2.24825e-21 1.81785)
(7.15124 1.23001e-21 1.84293)
(6.54837 2.30576e-21 2.01112)
(6.81691 1.32112e-21 2.04166)
(6.15643 -1.15884e-21 2.22054)
(6.45156 3.77214e-21 2.25904)
(5.728 -2.85478e-21 2.44455)
(6.05137 -7.70054e-21 2.49425)
(5.25951 -7.49214e-22 2.68038)
(5.6122 -3.64952e-21 2.74542)
(4.74756 -1.72259e-21 2.92374)
(5.12971 0 3.00922)
(4.18939 3.60914e-21 3.16845)
(4.59971 -4.89067e-21 3.28045)
(3.58347 8.94119e-21 3.40624)
(4.01859 5.23983e-21 3.55156)
(2.93043 -3.90055e-21 3.62663)
(3.38423 1.06016e-20 3.81231)
(2.23413 -7.40222e-21 3.81728)
(2.69685 -1.62551e-22 4.04967)
(1.50293 -4.19337e-21 3.9661)
(1.96387 -3.87493e-21 4.24807)
(0.750032 2.20677e-21 4.03096)
(1.17605 -4.12135e-21 4.39353)
(0.468692 4.24706e-21 4.40593)
(9.98358 -1.33559e-21 0.121184)
(9.99237 -2.60569e-21 0.0830871)
(9.94969 -2.72459e-21 0.208689)
(9.9709 1.37471e-21 0.17073)
(9.89595 -1.39478e-21 0.304644)
(9.92995 -5.87392e-23 0.267611)
(9.82062 8.51503e-23 0.406577)
(9.86721 -1.67078e-23 0.373599)
(9.72368 -4.24485e-24 0.508813)
(9.7827 9.1714e-23 0.483445)
(9.60674 6.60509e-24 0.605988)
(9.67771 1.39641e-21 0.590263)
(9.47232 -1.0296e-21 0.695778)
(9.55444 9.80255e-23 0.689476)
(9.32305 -6.75887e-22 0.779442)
(9.41559 -9.1176e-22 0.780614)
(9.16091 1.07105e-21 0.86069)
(9.26352 2.07132e-21 0.866687)
(8.98696 6.41955e-22 0.944133)
(9.09982 1.28321e-21 0.952467)
(8.80128 -9.47433e-22 1.03413)
(8.92506 0 1.04291)
(8.60319 -9.25012e-22 1.13428)
(8.73895 -1.39369e-21 1.14231)
(8.39144 0 1.24736)
(8.54055 4.79243e-22 1.25404)
(8.1643 -1.07344e-21 1.37551)
(8.32841 5.0856e-22 1.38068)
(7.91975 -2.1687e-21 1.52043)
(8.1007 -1.58307e-21 1.52428)
(7.65542 -1.09415e-21 1.68352)
(7.85527 2.16601e-21 1.68654)
(7.36862 3.11143e-22 1.86593)
(7.58963 1.15425e-21 1.86895)
(7.05627 3.03788e-22 2.06853)
(7.30088 -8.72403e-22 2.07276)
(6.71489 2.81802e-21 2.29176)
(6.98568 -6.14942e-22 2.29894)
(6.34053 -2.90053e-21 2.53543)
(6.64012 2.78479e-21 2.54803)
(5.92873 -8.45074e-21 2.79847)
(6.25966 -5.42104e-21 2.81986)
(5.47459 -2.85679e-21 3.07849)
(5.83904 -2.89146e-21 3.11321)
(4.97294 -3.22979e-21 3.37135)
(5.37233 -3.70275e-21 3.42532)
(4.41872 -3.14199e-21 3.67053)
(4.8531 1.41303e-21 3.75128)
(3.80769 6.97777e-21 3.9666)
(4.27484 -1.56176e-21 4.08321)
(3.13759 1.4252e-20 4.24672)
(3.6319 6.79301e-21 4.40942)
(2.40989 3.35422e-21 4.49453)
(2.92066 7.35445e-21 4.71377)
(1.63202 -3.83815e-21 4.69228)
(2.14628 -7.53261e-21 4.97507)
(0.818928 -2.1804e-21 4.78687)
(1.29479 -3.69741e-21 5.17172)
(0.518277 1.62964e-21 5.20571)
(9.98406 1.5209e-22 0.133547)
(9.99259 1.02722e-23 0.090886)
(9.95137 4.02308e-21 0.230623)
(9.97198 1.33033e-21 0.187106)
(9.89989 1.32017e-21 0.337607)
(9.9328 7.24668e-26 0.294035)
(9.82797 -8.51418e-24 0.451539)
(9.87299 -1.412e-21 0.411407)
(9.73556 1.50799e-21 0.565915)
(9.79265 -1.52405e-21 0.533207)
(9.62421 1.47227e-21 0.674651)
(9.69297 9.32672e-23 0.651689)
(9.49637 2.037e-22 0.775077)
(9.57609 0 0.761709)
(9.35459 1.87121e-21 0.868521)
(9.44459 2.05663e-24 0.862667)
(9.20085 2.27414e-21 0.959073)
(9.30082 -1.42274e-21 0.957831)
(9.03622 6.26236e-22 1.05186)
(9.14636 -1.07514e-21 1.05244)
(8.86087 -4.63429e-22 1.15176)
(8.98186 1.75274e-21 1.15198)
(8.67426 3.26943e-23 1.26282)
(8.80714 -1.35529e-21 1.26121)
(8.47523 9.88153e-22 1.38822)
(8.62141 4.79241e-22 1.38392)
(8.26222 -2.68599e-23 1.53045)
(8.42337 5.08559e-22 1.52306)
(8.0333 2.79505e-21 1.69156)
(8.21135 -1.54369e-21 1.68102)
(7.78617 4.40159e-21 1.87333)
(7.98332 3.25189e-21 1.85987)
(7.51814 -5.31036e-23 2.07736)
(7.73689 2.28086e-21 2.0615)
(7.22602 -1.78808e-21 2.30505)
(7.46916 -2.3061e-21 2.28771)
(6.90605 -6.07602e-22 2.55747)
(7.17668 -3.64276e-21 2.54011)
(6.55372 1.69101e-22 2.83521)
(6.85524 1.87401e-21 2.82004)
(6.16369 1.65108e-22 3.13802)
(6.49969 -2.64175e-21 3.12828)
(5.72968 -3.74719e-21 3.46439)
(6.10374 -2.70018e-21 3.46474)
(5.24446 1.00037e-21 3.81093)
(5.6598 -2.98399e-21 3.82786)
(4.7001 2.96088e-21 4.17148)
(5.15889 4.60836e-21 4.21382)
(4.0886 -1.67519e-21 4.53611)
(4.59083 -2.2462e-23 4.61539)
(3.40321 -1.17835e-22 4.88992)
(3.94504 -3.33484e-21 5.02036)
(2.64078 -3.73356e-21 5.21187)
(3.2116 6.6177e-21 5.40984)
(1.80563 -7.38775e-21 5.47648)
(2.39038 -1.38165e-20 5.75598)
(0.913521 1.08516e-22 5.6154)
(1.45887 -1.34826e-22 6.02598)
(0.588877 -3.70359e-21 6.09667)
(9.98472 1.2041e-21 0.14543)
(9.99288 2.61556e-21 0.0983617)
(9.95351 -2.70809e-21 0.251596)
(9.9733 -1.38435e-21 0.202742)
(9.90457 -2.74838e-21 0.369005)
(9.93617 -3.9754e-21 0.319151)
(9.8364 -2.92853e-21 0.494278)
(9.87961 -1.40276e-21 0.447244)
(9.74894 -2.91893e-21 0.620123)
(9.80379 -1.35424e-22 0.580305)
(9.64368 -1.37969e-21 0.739756)
(9.70987 -1.39642e-21 0.709757)
(9.52299 -2.01618e-22 0.850161)
(9.59987 -9.5316e-23 0.8299)
(9.38938 -3.3083e-21 0.952723)
(9.47631 -1.01838e-22 0.94)
(9.24478 -4.76653e-21 1.05188)
(9.34151 -1.64911e-21 1.04355)
(9.09033 8.59768e-23 1.15324)
(9.19705 3.79151e-22 1.14623)
(8.9263 8.23137e-22 1.26217)
(9.04368 -2.13538e-22 1.254)
(8.75229 -8.87109e-22 1.38314)
(8.88135 9.18614e-22 1.37208)
(8.56731 0 1.51971)
(8.70944 0 1.50464)
(8.36998 -1.03289e-21 1.67472)
(8.52686 -1.43584e-21 1.65497)
(8.15855 -1.02863e-21 1.85057)
(8.33215 -5.02459e-22 1.8258)
(7.93086 1.12039e-21 2.04947)
(8.12349 -1.07871e-21 2.01956)
(7.68432 -2.59456e-23 2.2735)
(7.89866 2.22377e-21 2.23862)
(7.41576 -4.17652e-21 2.5247)
(7.65494 -1.1262e-21 2.48534)
(7.12129 -1.09789e-21 2.80494)
(7.3889 -3.02123e-21 2.76208)
(6.79604 -9.90699e-22 3.11581)
(7.09626 4.94317e-21 3.07116)
(6.43393 -5.51061e-21 3.45833)
(6.77151 -5.31104e-21 3.41466)
(6.02737 -1.94012e-21 3.83244)
(6.40757 -2.70034e-21 3.79407)
(5.56702 7.10752e-22 4.23635)
(5.99537 1.37959e-21 4.20983)
(5.04162 1.57431e-21 4.66539)
(5.52336 0 4.66036)
(4.43829 -1.73579e-21 5.11045)
(4.97715 1.55585e-21 5.14061)
(3.7436 3.50236e-21 5.55572)
(4.33967 -3.25715e-21 5.63981)
(2.94629 -3.68942e-21 5.97571)
(3.59151 6.62005e-21 6.13808)
(2.04298 -6.32177e-21 6.33478)
(2.72183 -7.69102e-21 6.6011)
(1.04669 -4.11248e-21 6.54234)
(1.69158 3.64367e-21 6.98066)
(0.693037 -2.13797e-20 7.11525)
(9.98551 -2.09014e-23 0.156731)
(9.99322 0 0.105447)
(9.95601 -2.68271e-21 0.271476)
(9.97482 -2.65113e-21 0.217526)
(9.90988 -2.59886e-21 0.398681)
(9.93997 8.41236e-23 0.342826)
(9.84577 1.40516e-21 0.534599)
(9.88694 2.72847e-25 0.480948)
(9.76364 1.37157e-21 0.671198)
(9.81597 1.38821e-21 0.624535)
(9.66491 -9.6458e-23 0.801015)
(9.72818 -1.44952e-21 0.764217)
(9.5519 4.41128e-24 0.920692)
(9.62552 -9.53152e-23 0.893753)
(9.42704 1.53817e-21 1.03165)
(9.51044 9.73904e-23 1.01227)
(9.29227 3.5202e-21 1.13866)
(9.38519 3.51616e-23 1.12345)
(9.14877 7.34406e-23 1.24774)
(9.25141 2.15739e-22 1.23337)
(8.99694 -1.04684e-22 1.36472)
(9.10993 -1.9653e-21 1.34844)
(8.83654 1.79364e-21 1.49448)
(8.96086 3.57518e-21 1.47428)
(8.66681 -1.45301e-21 1.64092)
(8.8038 0 1.61542)
(8.48658 -8.94969e-22 1.80721)
(8.63788 9.65753e-22 1.77545)
(8.29435 -5.59277e-22 1.9961)
(8.46194 2.77251e-23 1.95743)
(8.08821 6.51311e-23 2.21021)
(8.27443 -2.82349e-23 2.16415)
(7.8658 1.08366e-21 2.45215)
(8.07346 4.61949e-23 2.39841)
(7.62415 4.86774e-24 2.72464)
(7.85659 -1.11308e-21 2.66318)
(7.35945 3.11209e-21 3.03051)
(7.62071 1.15908e-21 2.96162)
(7.06677 5.02869e-22 3.37257)
(7.36171 5.42481e-21 3.29717)
(6.73961 -2.47236e-21 3.75346)
(7.07413 -4.9054e-21 3.67342)
(6.36946 6.68133e-22 4.17529)
(6.75062 1.21735e-21 4.09397)
(5.94508 6.5238e-22 4.63888)
(6.38115 -2.56218e-21 4.56203)
(5.45184 0 5.1427)
(5.95211 1.26229e-21 5.07966)
(4.87113 -2.27298e-23 5.68068)
(5.445 1.38408e-21 5.64629)
(4.18041 -2.21942e-23 6.23895)
(4.83528 -1.31511e-21 6.25594)
(3.35514 2.5369e-21 6.7899)
(4.09041 -1.32919e-21 6.89218)
(2.37552 2.47713e-21 7.28683)
(3.18055 1.02829e-20 7.51812)
(1.24155 -1.39288e-20 7.60588)
(2.03368 2.38845e-23 8.06797)
(0.855206 -1.98748e-20 8.32009)
(9.98642 -2.662e-21 0.167371)
(9.9936 9.93983e-24 0.11209)
(9.9588 1.47879e-22 0.290149)
(9.9765 -3.05382e-23 0.231366)
(9.91571 2.68165e-21 0.426495)
(9.94412 2.7142e-21 0.364939)
(9.85594 0 0.572328)
(9.89486 0 0.512372)
(9.77947 -1.46689e-21 0.718924)
(9.82902 1.3074e-21 0.665715)
(9.68768 -1.43214e-21 0.85817)
(9.7477 8.90788e-23 0.81485)
(9.58281 0 0.986368)
(9.65279 -9.32214e-23 0.953009)
(9.46722 -1.40635e-21 1.10496)
(9.54662 9.52176e-23 1.07916)
(9.34286 -3.26623e-21 1.21899)
(9.43144 -1.36969e-21 1.19718)
(9.21097 -1.84834e-21 1.33489)
(9.3089 -3.69593e-21 1.31346)
(9.0721 1.78087e-21 1.45887)
(9.17995 6.33526e-22 1.43483)
(8.92619 1.73875e-21 1.59618)
(9.04488 -4.30948e-22 1.56725)
(8.77273 2.42871e-21 1.75103)
(8.90352 0 1.71557)
(8.61085 1.87605e-21 1.9269)
(8.75529 4.24487e-21 1.88368)
(8.43934 5.5809e-22 2.12686)
(8.59935 -2.39505e-21 2.07488)
(8.25666 -4.52942e-23 2.3539)
(8.43455 2.99643e-21 2.29229)
(8.06083 -2.16197e-21 2.61116)
(8.25941 9.77709e-22 2.53912)
(7.84928 6.68296e-23 2.90206)
(8.072 -2.17686e-21 2.81889)
(7.61859 3.52099e-21 3.23039)
(7.86972 2.23768e-21 3.13556)
(7.36413 -9.87943e-23 3.60036)
(7.64908 4.56311e-21 3.49369)
(7.0796 -1.14262e-21 4.01656)
(7.40518 -4.71711e-21 3.89853)
(6.75618 -2.05668e-21 4.48381)
(7.13113 -2.35204e-21 4.35606)
(6.3816 -1.91044e-21 5.00673)
(6.81703 -5.56191e-21 4.87298)
(5.93855 2.64515e-21 5.58885)
(6.44847 -4.39739e-24 5.4564)
(5.40284 5.96087e-23 6.23062)
(6.0043 2.16536e-22 6.11293)
(4.74107 -2.62235e-21 6.92543)
(5.45332 4.803e-23 6.84644)
(3.90924 6.57556e-21 7.65079)
(4.74789 2.4711e-21 7.65254)
(2.85603 7.51613e-21 8.3544)
(3.82911 6.52031e-21 8.50433)
(1.54185 -5.65564e-21 8.86779)
(2.56084 2.38851e-23 9.32843)
(1.12844 -3.9203e-21 9.81707)
(9.98741 2.64021e-21 0.177284)
(9.994 5.00999e-24 0.11825)
(9.96182 2.56813e-21 0.307517)
(9.9783 3.70645e-23 0.244186)
(9.92197 0 0.452323)
(9.94855 -2.60667e-21 0.385391)
(9.86677 1.32307e-21 0.607313)
(9.90325 -6.34714e-23 0.541393)
(9.79625 2.84825e-21 0.763116)
(9.84279 -4.42739e-23 0.703692)
(9.71174 1.42533e-21 0.910998)
(9.76823 2.9571e-21 0.861469)
(9.61539 4.25844e-24 1.04693)
(9.68138 -1.11302e-24 1.00745)
(9.50951 1.13582e-22 1.17235)
(9.58451 -1.69078e-21 1.14044)
(9.39605 -1.828e-21 1.29254)
(9.4798 1.97712e-21 1.26445)
(9.27632 -1.16225e-21 1.41428)
(9.36896 -2.04558e-22 1.38617)
(9.15102 -1.58971e-21 1.54413)
(9.25305 4.27318e-22 1.51277)
(9.02032 -2.16335e-21 1.68766)
(9.13256 -2.18953e-21 1.65053)
(8.88398 1.86694e-21 1.84936)
(9.00757 0 1.80456)
(8.74145 -1.05385e-22 2.03294)
(8.87782 2.55137e-24 1.97896)
(8.59192 1.07765e-22 2.24174)
(8.74286 -2.91555e-24 2.17728)
(8.43432 3.99625e-21 2.4791)
(8.60199 9.42329e-22 2.40285)
(8.26718 9.25103e-22 2.74858)
(8.45428 9.963e-22 2.65923)
(8.08855 4.4475e-23 3.05425)
(8.29846 -1.06654e-21 2.95038)
(7.89576 3.30756e-21 3.40083)
(8.13276 -9.78835e-22 3.28094)
(7.685 -1.61247e-22 3.79391)
(7.95466 5.10416e-24 3.6565)
(7.45082 -5.90274e-21 4.24012)
(7.76048 -3.41137e-21 4.08384)
(7.18526 -5.89161e-21 4.74734)
(7.54476 -5.73757e-21 4.57133)
(6.87645 -3.58895e-21 5.32487)
(7.29923 -2.18844e-21 5.12942)
(6.50646 -2.43317e-21 5.98329)
(7.01107 -1.2609e-21 5.77113)
(6.04772 1.88908e-22 6.73368)
(6.6599 9.6357e-22 6.51267)
(5.45728 5.18814e-21 7.58501)
(6.21259 1.25989e-21 7.37348)
(4.6678 2.43153e-21 8.53564)
(5.6111 4.05061e-21 8.37436)
(3.57623 -1.29957e-21 9.55274)
(4.7646 -1.14365e-21 9.52657)
(2.04283 2.21002e-21 10.4349)
(3.42735 -3.67626e-21 10.799)
(1.64325 4.90506e-21 11.8177)
(9.98846 -2.59778e-21 0.186418)
(9.99443 -4.18964e-26 0.123897)
(9.96502 -5.16944e-21 0.323503)
(9.98019 3.0237e-25 0.255927)
(9.92857 -2.6396e-21 0.476065)
(9.95319 2.06005e-25 0.404099)
(9.87814 -1.43018e-21 0.639431)
(9.91203 -4.25819e-23 0.567906)
(9.8138 1.0097e-22 0.803626)
(9.85713 -1.3943e-21 0.73834)
(9.73684 1.4952e-21 0.959328)
(9.78955 -2.67306e-21 0.903924)
(9.64933 -1.71638e-21 1.10218)
(9.71102 1.79538e-24 1.0569)
(9.55351 2.15939e-22 1.23359)
(9.62373 -1.76674e-21 1.1959)
(9.45132 3.57288e-21 1.35905)
(9.52981 6.24955e-22 1.32503)
(9.34418 1.39177e-21 1.48561)
(9.43101 1.62145e-21 1.45124)
(9.23292 -2.0373e-22 1.62017)
(9.32851 1.00233e-21 1.58197)
(9.11796 0 1.76852)
(9.22301 6.30442e-22 1.72378)
(8.99935 -1.86266e-21 1.93539)
(9.11484 -8.64522e-22 1.88197)
(8.87693 1.04574e-22 2.12467)
(9.00412 -9.50592e-22 2.06082)
(8.75032 8.43418e-22 2.3399)
(8.89079 3.25374e-21 2.26399)
(8.61899 -2.05339e-21 2.58464)
(8.77468 -3.84436e-21 2.495)
(8.48215 -1.01708e-21 2.8628)
(8.6555 -1.99203e-21 2.75758)
(8.33871 -2.09101e-21 3.17893)
(8.53279 -9.90526e-22 3.056)
(8.18701 -4.26345e-21 3.53849)
(8.40582 2.98856e-21 3.39536)
(8.02462 -3.27994e-21 3.94824)
(8.27343 -2.19552e-21 3.78198)
(7.84781 -3.28893e-21 4.41662)
(8.13379 -1.09743e-21 4.22381)
(7.65078 -2.00641e-21 4.95446)
(7.98389 -1.04297e-21 4.73114)
(7.42431 1.36635e-22 5.57581)
(7.81888 5.40744e-21 5.31759)
(7.1534 2.16199e-21 6.29931)
(7.63063 -9.73389e-22 6.00174)
(6.81275 2.03272e-21 7.1499)
(7.40523 -1.04361e-21 6.80971)
(6.35797 1.50226e-22 8.1613)
(7.11809 -3.93562e-21 7.77966)
(5.70691 4.13868e-22 9.3776)
(6.72033 -7.95963e-22 8.96989)
(4.6972 -3.86846e-21 10.8527)
(6.12327 2.59065e-21 10.4723)
(2.98778 -2.04282e-21 12.499)
(4.97657 -4.20226e-21 12.4381)
(2.76381 1.8028e-21 14.7437)
(9.98955 2.59736e-21 0.194735)
(9.99487 4.97977e-24 0.129008)
(9.96836 5.16852e-21 0.33804)
(9.98215 2.60064e-21 0.266545)
(9.93543 2.59598e-21 0.497625)
(9.958 2.65511e-21 0.421001)
(9.88992 -2.29426e-23 0.668551)
(9.92109 1.15061e-23 0.591832)
(9.83195 -4.18312e-21 0.840281)
(9.87192 -2.63957e-21 0.769562)
(9.76274 -4.13385e-21 1.00295)
(9.81152 1.14577e-21 0.942099)
(9.6843 -7.04642e-23 1.15186)
(9.74154 -1.7688e-22 1.10123)
(9.59879 -1.32978e-21 1.2884)
(9.66407 1.5936e-21 1.2454)
(9.50815 -1.3144e-21 1.41819)
(9.58122 -4.9852e-24 1.37877)
(9.41388 1.22476e-21 1.54854)
(9.49476 -1.82821e-22 1.5085)
(9.31697 1.83189e-21 1.68658)
(9.40598 -1.07536e-22 1.64225)
(9.21809 -2.51577e-22 1.83832)
(9.31579 6.42275e-22 1.7868)
(9.1176 4.59819e-23 2.00861)
(9.22482 -8.80747e-22 1.94757)
(9.01572 2.24951e-21 2.20149)
(9.13352 9.06735e-22 2.12894)
(8.91258 -1.51633e-21 2.42059)
(9.04229 9.12192e-23 2.33464)
(8.80824 -3.75791e-21 2.66959)
(8.95151 -1.5484e-21 2.56822)
(8.70269 -1.95349e-21 2.95255)
(8.86159 -1.86494e-21 2.83346)
(8.59583 4.12784e-21 3.2743)
(8.77298 1.66254e-21 3.13471)
(8.48734 4.98962e-21 3.64073)
(8.68617 4.18361e-21 3.47724)
(8.37659 0 4.05931)
(8.60162 -2.74391e-21 3.86763)
(8.26232 1.13091e-21 4.53968)
(8.51979 0 4.31436)
(8.14227 6.40681e-21 5.09473)
(8.44099 1.1385e-21 4.82863)
(8.01237 4.20449e-21 5.74215)
(8.36531 7.49195e-22 5.42571)
(7.8652 -4.1127e-21 6.5072)
(8.29236 9.55271e-22 6.12727)
(7.68689 -6.93644e-21 7.42771)
(8.221 -3.91813e-21 6.96554)
(7.44996 -4.91217e-21 8.56411)
(8.14937 -2.11195e-21 7.99175)
(7.09503 1.12943e-21 10.0228)
(8.07404 1.00501e-21 9.29517)
(6.4722 1.61878e-21 12.0428)
(8.02875 2.28412e-21 11.0564)
(5.05899 6.54629e-22 15.4124)
(8.14309 -3.2747e-21 13.7942)
(7.44573 1.45838e-21 19.7132)
(-0.322013 -4.6062e-21 0.135237)
(-0.151652 -1.55831e-20 0.314491)
(-0.622247 4.05114e-21 0.116188)
(-0.487618 3.36083e-20 0.286373)
(-0.877168 -5.61498e-21 0.085738)
(-0.775891 -1.82347e-20 0.237525)
(-1.05888 9.36461e-22 0.0444645)
(-1.00127 -1.36921e-20 0.1654)
(-1.14162 -7.40769e-23 -0.0052376)
(-1.13729 1.14013e-20 0.0735519)
(-1.1049 7.62379e-22 -0.0604433)
(-1.16099 -3.09035e-21 -0.0319021)
(-0.935647 0 -0.11699)
(-1.05441 1.33247e-21 -0.143558)
(-0.632178 2.75097e-22 -0.169551)
(-0.810865 -2.49581e-21 -0.251356)
(-0.204632 2.81736e-22 -0.213169)
(-0.432919 1.17557e-21 -0.345809)
(0.326312 0 -0.244301)
(0.0639185 -4.53544e-22 -0.419351)
(0.93223 8.47944e-23 -0.261988)
(0.644521 -4.40071e-22 -0.467317)
(1.58438 8.68404e-23 -0.267391)
(1.28732 -4.83606e-22 -0.491142)
(2.25576 0 -0.262531)
(1.96265 2.35771e-22 -0.493732)
(2.92346 0 -0.249945)
(2.64476 0 -0.479468)
(3.56958 0 -0.232153)
(3.31291 0 -0.453044)
(4.18128 0 -0.211374)
(3.95163 0 -0.418801)
(4.75025 0 -0.189381)
(4.5504 2.64427e-23 -0.38038)
(5.27202 0 -0.167486)
(5.103 -4.74825e-24 -0.3406)
(5.74501 3.26704e-24 -0.146574)
(5.60659 -2.04432e-23 -0.301485)
(6.16977 4.10684e-25 -0.127181)
(6.06088 -3.2929e-24 -0.264364)
(6.54827 -3.26083e-24 -0.109573)
(6.46728 3.21214e-24 -0.230016)
(6.88329 7.10194e-24 -0.0938234)
(6.82831 0 -0.198799)
(7.17804 7.27306e-24 -0.0798799)
(7.14708 -1.40351e-23 -0.170783)
(7.43583 -2.33295e-25 -0.0676106)
(7.42691 1.24826e-24 -0.145847)
(7.65984 -3.09135e-26 -0.0568427)
(7.67109 -1.85767e-23 -0.123753)
(7.85302 2.90802e-25 -0.0473871)
(7.88271 2.30549e-25 -0.104202)
(8.01795 -2.4212e-26 -0.0390563)
(8.06457 5.82021e-26 -0.0868722)
(8.15687 -1.46972e-24 -0.0316817)
(8.21907 -5.83703e-24 -0.0714499)
(8.27172 -1.40561e-24 -0.0252923)
(8.34821 -6.96798e-26 -0.0576813)
(8.47414 0 -0.0459008)
(-0.339416 2.2386e-20 0.460527)
(-0.170324 -1.95884e-20 0.650095)
(-0.659545 1.1596e-20 0.402982)
(-0.539388 5.64621e-20 0.592125)
(-0.931361 -2.65511e-20 0.312259)
(-0.858824 -2.20016e-20 0.490918)
(-1.12522 -3.28434e-21 0.18887)
(-1.11087 -1.36557e-20 0.341824)
(-1.21354 8.40846e-21 0.0397059)
(-1.2654 1.37714e-20 0.151983)
(-1.17446 -2.57872e-21 -0.124977)
(-1.29826 -8.54413e-21 -0.0659514)
(-0.993989 -1.19599e-21 -0.291696)
(-1.18801 2.75201e-21 -0.296712)
(-0.670691 -1.57582e-21 -0.445333)
(-0.926773 -1.29243e-21 -0.519199)