/*--------------------------------*- C++ -*----------------------------------*\
| =========                 |                                                 |
| \\      /  F ield         | OpenFOAM: The Open Source CFD Toolbox           |
|  \\    /   O peration     | Version:  dev                                   |
|   \\  /    A nd           | Web:      www.OpenFOAM.org                      |
|    \\/     M anipulation  |                                                 |
\*---------------------------------------------------------------------------*/
FoamFile
{
    version     2.0;
    format      ascii;
    class       volVectorField;
    location    "2.35";
    object      U;
}
// * * * * * * * * * * * * * * * * * * * * * * * * * * * * * * * * * * * * * //

dimensions      [0 1 -1 0 0 0 0];

internalField   nonuniform List<vector> 
465
(
(10.0033 0 3.56182)
(10.2 0 3.49886)
(10.3322 -8.24896e-19 3.79762)
(10.4967 0 4.11054)
(10.3824 0 3.41627)
(10.5246 8.06497e-19 3.68804)
(10.6958 7.644e-19 3.96783)
(10.8987 1.82197e-19 4.25144)
(11.1355 -8.9586e-19 4.5334)
(10.5493 -3.93925e-19 3.31696)
(10.6978 0 3.56206)
(10.8718 -1.64967e-20 3.81044)
(11.0728 -7.15334e-19 4.05802)
(11.3015 7.05848e-19 4.29995)
(11.5577 -6.79085e-19 4.53069)
(11.8405 -3.22479e-19 4.74311)
(10.7 -3.67908e-19 3.2038)
(10.8519 1.09713e-18 3.42347)
(11.0257 -5.85861e-20 3.64299)
(11.2221 7.51382e-19 3.85869)
(11.441 -1.65855e-19 4.06645)
(11.6814 1.69132e-19 4.26168)
(11.942 6.28616e-19 4.43918)
(12.2158 2.75762e-19 4.5923)
(12.5316 -6.15435e-19 4.71989)
(10.8345 -1.7669e-19 3.07962)
(10.9874 -1.84555e-19 3.27569)
(11.1589 -1.0435e-18 3.46924)
(11.3489 -3.36635e-19 3.6571)
(11.5571 -3.29126e-19 3.83584)
(11.782 0 4.00178)
(12.0218 6.09114e-19 4.15103)
(12.2714 -6.25194e-19 4.27915)
(12.5545 5.67976e-19 4.38453)
(10.9529 0 2.94698)
(11.105 -3.43737e-19 3.12155)
(11.2726 8.81004e-20 3.29203)
(11.4554 2.48305e-19 3.45575)
(11.6525 3.25075e-19 3.60995)
(11.8625 0 3.75174)
(12.0835 0 3.87826)
(12.3114 2.83448e-19 3.98657)
(12.5668 -1.16906e-18 4.07547)
(11.056 6.40572e-22 2.80807)
(11.206 -6.51013e-22 2.96326)
(11.3688 6.49769e-19 3.1134)
(11.5438 -3.17758e-19 3.25632)
(11.7301 3.12744e-19 3.38979)
(11.9261 0 3.5116)
(12.1301 0 3.61973)
(12.3389 2.95639e-19 3.71222)
(12.5707 -5.62275e-19 3.78837)
(11.1447 -7.91621e-20 2.66465)
(11.2915 8.05591e-20 2.80249)
(11.4489 -3.17123e-19 2.93479)
(11.616 3.12921e-19 3.05979)
(11.7919 -3.0819e-19 3.17574)
(11.9751 0 3.28099)
(12.164 -1.47848e-19 3.3741)
(12.356 5.6846e-19 3.45379)
(12.5677 -1.28652e-18 3.51979)
(11.2198 2.31409e-19 2.51814)
(11.3629 -4.61678e-19 2.64052)
(11.5146 0 2.75717)
(11.674 2.97136e-19 2.86671)
(11.8401 -3.03495e-19 2.9678)
(12.0116 4.31473e-19 3.05922)
(12.1872 -4.46207e-19 3.13997)
(12.3645 4.16984e-19 3.2092)
(12.559 -4.3553e-19 3.26695)
(11.2824 -1.48025e-19 2.36954)
(11.4215 4.5116e-19 2.47819)
(11.5674 0 2.58114)
(11.7193 0 2.67731)
(11.8763 -1.44845e-19 2.76572)
(12.0373 8.53322e-19 2.84551)
(12.2011 -5.7861e-19 2.91596)
(12.3657 6.90838e-19 2.97653)
(12.5453 -7.0547e-19 3.02744)
(11.2052 0 2.11898)
(11.3337 2.88341e-19 2.2197)
(11.4686 0 2.31604)
(11.6087 0 2.40696)
(11.7536 1.42153e-19 2.49157)
(11.9023 1.16892e-21 2.56914)
(12.0538 -2.81e-19 2.63904)
(12.2071 0 2.70081)
(12.3606 0 2.7541)
(12.5275 6.81917e-20 2.79924)
(11.2501 -4.21724e-19 1.9798)
(11.3753 -2.82653e-19 2.06933)
(11.5056 -2.78751e-19 2.15459)
(11.6402 0 2.23485)
(11.7784 -1.39555e-19 2.30937)
(11.9194 1.38619e-19 2.37758)
(12.0624 1.37529e-19 2.43901)
(12.2064 5.3534e-19 2.49336)
(12.3503 -5.47908e-19 2.54043)
(12.5061 5.92406e-19 2.58063)
(11.2862 2.73928e-19 1.83924)
(11.4081 0 1.91877)
(11.5339 4.08563e-19 1.99417)
(11.6632 0 2.06495)
(11.7952 0 2.13056)
(11.9292 -1.3406e-19 2.19057)
(12.0645 1.33425e-19 2.24463)
(12.2003 -5.23738e-19 2.29256)
(12.3356 5.3596e-19 2.33425)
(12.4819 5.15902e-19 2.37012)
(11.3145 0 1.69766)
(11.433 1.31349e-19 1.76816)
(11.5546 -3.93307e-19 1.83478)
(11.6789 2.66506e-19 1.89713)
(11.8052 1.30968e-19 1.95485)
(11.9329 8.2871e-22 2.00762)
(12.0613 -1.30833e-19 2.05521)
(12.1899 0 2.0975)
(12.3177 -5.09126e-19 2.13443)
(12.4556 1.02859e-18 2.16645)
(11.336 2.58059e-19 1.5554)
(11.4512 -1.14729e-21 1.61767)
(11.5689 0 1.67636)
(11.6885 0 1.73117)
(11.8096 -1.28319e-19 1.78185)
(11.9316 1.27992e-19 1.82818)
(12.0539 0 1.87002)
(12.176 6.33032e-20 1.90728)
(12.2972 0 1.93996)
(12.4278 0 1.9685)
(11.352 -3.68824e-19 1.41259)
(11.464 1.26105e-19 1.4673)
(11.5779 0 1.51877)
(11.6933 0 1.56678)
(11.8097 0 1.61113)
(11.9265 0 1.65168)
(12.0434 0 1.68834)
(12.1598 -6.19881e-20 1.72108)
(12.2752 6.16521e-20 1.74991)
(12.3995 -4.2376e-19 1.77525)
(11.3634 3.63321e-19 1.26925)
(11.4723 0 1.317)
(11.5828 0 1.36187)
(11.6943 -1.20601e-19 1.40366)
(11.8064 0 1.44226)
(11.9187 -4.78342e-19 1.47756)
(12.0308 9.67121e-19 1.50952)
(12.1423 -5.49095e-19 1.53813)
(12.2526 -6.03264e-20 1.56342)
(12.3713 -3.01628e-20 1.58578)
(11.3711 0 1.12523)
(11.4773 -1.15056e-19 1.16652)
(11.5846 2.36999e-19 1.20527)
(11.6926 5.83196e-19 1.24135)
(11.801 -5.34607e-19 1.27466)
(11.9093 0 1.30514)
(12.0172 0 1.33278)
(12.1243 5.89609e-20 1.35757)
(12.2302 -4.06154e-19 1.37955)
(12.3441 4.47009e-19 1.3991)
(11.376 -2.24293e-19 0.980513)
(11.4797 1.15404e-19 1.01576)
(11.5843 0 1.0488)
(11.6892 0 1.07956)
(11.7943 2.41956e-22 1.10796)
(11.8991 0 1.13396)
(12.0033 0 1.15756)
(12.1067 -4.53882e-19 1.17878)
(12.2088 4.35521e-19 1.19766)
(12.3186 0 1.21453)
(11.3791 0 0.834436)
(11.4806 0 0.86396)
(11.5827 3.8344e-19 0.891624)
(11.685 -5.04176e-19 0.917362)
(11.7873 5.57933e-20 0.941133)
(11.8891 0 0.962915)
(11.9902 0 0.982709)
(12.0905 4.42326e-19 1.00054)
(12.1895 -9.22877e-19 1.01643)
(12.2958 4.2514e-19 1.0307)
(11.3812 2.15266e-19 0.687446)
(11.4808 2.65897e-19 0.711487)
(11.5809 -1.63318e-19 0.734007)
(11.681 5.40916e-20 0.754959)
(11.7808 -5.40709e-20 0.774316)
(11.8802 4.83813e-19 0.792067)
(11.9788 -4.6656e-19 0.808218)
(12.0764 -2.71999e-20 0.822791)
(12.1728 4.31151e-19 0.83582)
(12.2762 -4.14146e-19 0.847566)
(11.3833 1.57274e-19 0.537536)
(11.4814 -1.62294e-22 0.55627)
(11.5798 0 0.573811)
(11.6782 -2.07803e-19 0.590129)
(11.7762 5.68316e-20 0.605207)
(11.8736 -4.85785e-20 0.619037)
(11.9702 6.32268e-19 0.631629)
(12.0657 1.76419e-20 0.643001)
(12.16 -4.28756e-19 0.653178)
(12.2613 -1.32838e-20 0.662373)
(11.3862 5.03863e-20 0.386911)
(11.4833 1.24507e-19 0.400415)
(11.5805 -2.04934e-19 0.413066)
(11.6775 2.27361e-19 0.424843)
(11.7741 -1.80921e-19 0.435736)
(11.87 0 0.445741)
(11.9651 2.57138e-20 0.454864)
(12.0591 -2.16708e-19 0.46312)
(12.1519 4.3087e-21 0.470526)
(12.2514 2.21838e-19 0.477242)
(11.3907 9.68502e-20 0.230189)
(11.4871 -7.4466e-20 0.238434)
(11.5835 0 0.246148)
(11.6797 -1.23931e-20 0.253321)
(11.7755 -3.72478e-20 0.259949)
(11.8705 -1.97159e-19 0.266032)
(11.9647 3.98809e-21 0.271577)
(12.0578 4.12522e-19 0.276596)
(12.1497 -2.08685e-19 0.281104)
(12.2482 1.98298e-19 0.28521)
(11.1967 0 0.0753262)
(11.2888 4.74324e-20 0.0783453)
(11.3812 -4.84963e-20 0.0811726)
(11.4736 3.57279e-20 0.0838028)
(11.5657 -3.676e-20 0.0862326)
(11.6573 -4.80733e-20 0.0884616)
(11.7482 9.65508e-22 0.0904911)
(11.8381 4.92677e-20 0.0923247)
(11.927 6.10841e-21 0.0939653)
(12.0224 -4.83775e-20 0.0954538)
(12.7126 0 4.7741)
(12.7153 -9.91106e-19 4.42959)
(12.8655 9.25036e-19 4.46388)
(12.9931 -8.09084e-19 4.4907)
(12.7109 3.6494e-20 4.11377)
(12.8453 9.6458e-19 4.1434)
(12.9595 -8.96252e-19 4.16699)
(12.7008 9.81282e-19 3.82145)
(12.8221 0 3.84747)
(12.9251 5.74052e-20 3.86856)
(12.686 9.7229e-19 3.54872)
(12.7963 0 3.57185)
(12.89 -1.0134e-18 3.5909)
(12.6673 0 3.29248)
(12.7683 -5.84727e-20 3.31321)
(12.8541 -8.39791e-19 3.33052)
(12.6451 5.86886e-20 3.05014)
(12.7382 9.69524e-19 3.06883)
(12.8172 -1.79751e-18 3.08462)
(12.62 8.55861e-19 2.81953)
(12.7062 -1.82237e-18 2.83644)
(12.7795 1.7785e-18 2.85088)
(12.5923 -9.76247e-19 2.59881)
(12.6727 2.80886e-20 2.61415)
(12.741 -2.74844e-20 2.62736)
(12.5626 1.0415e-20 2.38645)
(12.6379 -9.19275e-19 2.40038)
(12.7019 8.85478e-19 2.41246)
(12.5315 1.13737e-20 2.18112)
(12.6024 -1.7091e-18 2.19374)
(12.6626 8.58208e-19 2.20476)
(12.4996 0 1.98165)
(12.5667 -8.4492e-19 1.99305)
(12.6236 1.70049e-18 2.00306)
(12.4676 1.68946e-18 1.78698)
(12.5314 -3.91068e-20 1.79723)
(12.5854 -8.52907e-19 1.80627)
(12.4362 -8.46534e-19 1.59619)
(12.4971 8.36848e-19 1.60533)
(12.5487 1.25906e-20 1.61343)
(12.4063 8.03078e-19 1.40824)
(12.4647 -1.61307e-18 1.41631)
(12.5141 7.81572e-19 1.42347)
(12.3785 8.09822e-19 1.22245)
(12.4347 -7.75361e-19 1.22947)
(12.4824 0 1.23573)
(12.3537 0 1.03742)
(12.4081 -1.19256e-20 1.0434)
(12.4542 7.61773e-19 1.04874)
(12.3325 0 0.853115)
(12.3854 -5.81845e-21 0.858077)
(12.4303 -1.1494e-20 0.862507)
(12.3163 -7.28908e-19 0.666726)
(12.368 7.41715e-19 0.670625)
(12.4119 0 0.67411)
(12.3055 0 0.480433)
(12.3564 -5.51453e-21 0.483296)
(12.3996 -5.45637e-21 0.485857)
(12.3017 -3.46325e-19 0.287119)
(12.352 0 0.288782)
(12.3947 5.30039e-21 0.290253)
(12.0742 8.26807e-20 0.0961104)
(12.123 8.33757e-20 0.0966467)
(12.1644 -8.34392e-20 0.0971208)
(13.2202 0 4.51795)
(13.1622 5.81761e-19 4.19363)
(13.378 -4.51743e-19 4.20328)
(13.6153 3.94461e-19 4.19235)
(13.8517 0 4.15893)
(13.108 1.37679e-21 3.89431)
(13.3031 5.19166e-19 3.90704)
(13.5194 -8.78203e-19 3.90384)
(13.738 4.45394e-19 3.88266)
(13.9481 0 3.84403)
(14.1477 -1.09405e-20 3.78978)
(13.0563 9.51798e-19 3.61566)
(13.234 -5.46252e-19 3.63019)
(13.432 4.31082e-19 3.63212)
(13.6338 -8.50213e-19 3.61946)
(13.8301 7.51017e-19 3.59228)
(14.0192 -3.53821e-19 3.55173)
(14.2006 0 3.49929)
(14.3735 -2.48982e-19 3.43656)
(13.0064 5.79488e-19 3.35421)
(13.1694 5.2521e-19 3.36974)
(13.3516 -2.39511e-20 3.37517)
(13.5383 -4.02839e-19 3.36866)
(13.7216 1.18882e-20 3.34999)
(13.8999 0 3.31988)
(14.0729 -3.23081e-19 3.27936)
(14.2399 -1.65257e-20 3.22955)
(14.3997 3.29606e-19 3.17177)
(12.9577 4.49281e-19 3.10717)
(13.1081 4.05771e-19 3.12314)
(13.2766 -4.29891e-19 3.13097)
(13.4502 -2.58587e-20 3.12895)
(13.6217 -3.81135e-19 3.11672)
(13.7897 2.10244e-20 3.09473)
(13.9541 7.0294e-19 3.06366)
(14.1143 -3.26466e-19 3.02433)
(14.2693 0 2.97771)
(12.9098 -7.93446e-20 2.87223)
(13.0494 -4.80404e-19 2.88826)
(13.2062 -2.76441e-20 2.89767)
(13.3682 0 2.89894)
(13.5291 0 2.89164)
(13.6877 -3.5327e-19 2.87602)
(13.844 3.33293e-19 2.85253)
(13.9974 -3.12585e-19 2.82174)
(14.1471 6.37678e-19 2.78435)
(12.8626 1.22859e-19 2.64749)
(12.9929 0 2.66328)
(13.1393 4.3384e-19 2.67368)
(13.2913 -4.27461e-19 2.67732)
(13.4428 0 2.67376)
(13.5928 3.49453e-19 2.66312)
(13.7416 -7.16459e-19 2.6457)
(13.8886 3.13334e-19 2.62187)
(14.033 1.29332e-21 2.59212)
(12.8159 -1.00038e-18 2.43132)
(12.9382 4.6939e-19 2.44664)
(13.0757 -2.75768e-20 2.45756)
(13.2189 1.30571e-20 2.46288)
(13.362 0 2.46213)
(13.5044 5.71488e-21 2.45537)
(13.6462 2.1476e-20 2.44278)
(13.7872 -2.98379e-19 2.42461)
(13.9264 2.76699e-19 2.40118)
(12.7701 -2.97669e-20 2.22234)
(12.8853 0 2.23701)
(13.0151 -2.34173e-22 2.24809)
(13.1505 -2.57042e-20 2.25451)
(13.2862 0 2.25583)
(13.4218 -3.60124e-19 2.25205)
(13.5574 2.66039e-20 2.24329)
(13.6927 3.34657e-19 2.22969)
(13.8272 -3.38305e-19 2.21148)
(12.7254 -4.75779e-19 2.01932)
(12.8345 4.42343e-19 2.0332)
(12.9575 -3.81688e-19 2.04415)
(13.086 1.26454e-20 2.05122)
(13.2153 3.02825e-21 2.054)
(13.3448 5.74104e-21 2.05248)
(13.4747 -1.06954e-20 2.0467)
(13.6049 2.05282e-20 2.03675)
(13.7349 3.76136e-19 2.02279)
(12.6823 -4.8433e-19 1.82117)
(12.786 -1.56652e-20 1.83413)
(12.9031 4.01883e-19 1.8447)
(13.0257 0 1.85205)
(13.1492 -2.9611e-21 1.85581)
(13.2732 -5.61213e-21 1.85593)
(13.3981 -3.46138e-19 1.85244)
(13.5237 2.90107e-19 1.84538)
(13.6496 2.60605e-19 1.83484)
(12.6412 -3.90387e-19 1.62694)
(12.7403 4.38779e-19 1.63887)
(12.8522 0 1.64886)
(12.9696 0 1.65618)
(13.0881 7.36264e-22 1.66051)
(13.2073 0 1.66179)
(13.3277 1.05132e-20 1.66001)
(13.4492 1.98895e-20 1.65521)
(13.5713 0 1.64742)
(12.6029 3.82554e-19 1.43557)
(12.698 -3.90246e-19 1.44637)
(12.8055 -3.88e-19 1.45561)
(12.9183 4.00256e-19 1.46266)
(13.0324 -7.19225e-22 1.46722)
(13.1475 -3.5092e-19 1.46923)
(13.2639 1.23897e-20 1.46869)
(13.3816 -7.42879e-21 1.46561)
(13.5003 2.87025e-19 1.45999)
(12.568 2.70462e-20 1.24636)
(12.6596 -4.10999e-19 1.25596)
(12.7633 3.91676e-19 1.26431)
(12.8722 -5.93434e-21 1.27087)
(12.9826 0 1.27539)
(13.094 5.38129e-21 1.2778)
(13.2069 0 1.2781)
(13.3215 3.89816e-20 1.27628)
(13.4372 1.83693e-20 1.27235)
(12.5371 -4.27777e-19 1.05788)
(12.6259 3.76676e-19 1.06619)
(12.7263 -3.89209e-19 1.07351)
(12.832 0 1.07941)
(12.9392 -6.9647e-22 1.08364)
(13.0475 3.28327e-19 1.08616)
(13.1575 -3.18293e-19 1.08696)
(13.2693 1.45184e-22 1.08602)
(13.3825 0 1.08333)
(12.5111 -1.29145e-20 0.870125)
(12.5975 4.053e-19 0.877094)
(12.6953 -3.86181e-19 0.883307)
(12.7982 2.85288e-21 0.888394)
(12.9028 6.78828e-22 0.892166)
(13.0086 5.17792e-21 0.894577)
(13.1162 -1.97716e-20 0.895614)
(13.2257 2.76755e-19 0.89526)
(13.3368 -2.91054e-19 0.893505)
(12.4909 1.2577e-20 0.680129)
(12.5755 0 0.685664)
(12.6712 -3.78803e-19 0.690635)
(12.7721 3.58217e-19 0.694756)
(12.8746 -1.33074e-21 0.697876)
(12.9784 5.08195e-21 0.699956)
(13.0841 3.09175e-19 0.700981)
(13.1917 -2.9964e-19 0.700937)
(13.3012 -2.74477e-19 0.699808)
(12.4775 0 0.49028)
(12.5607 0 0.494375)
(12.6549 5.65978e-21 0.498085)
(12.7542 0 0.501193)
(12.8553 3.28232e-19 0.503592)
(12.9577 -3.26553e-19 0.505255)
(13.062 3.01879e-19 0.506173)
(13.1683 -5.75143e-19 0.506331)
(13.2765 2.7832e-19 0.505717)
(12.4717 0 0.292835)
(12.5542 -1.84331e-19 0.295345)
(12.6474 1.78331e-19 0.297638)
(12.7458 0 0.299546)
(12.8458 0 0.301012)
(12.9474 1.51795e-19 0.30203)
(13.0508 -1.4707e-19 0.302597)
(13.1564 -1.33247e-19 0.302703)
(13.2639 1.35538e-19 0.30234)
(12.239 4.60358e-20 0.0980043)
(12.3188 -4.24349e-20 0.0989415)
(12.409 -4.24587e-20 0.0997974)
(12.5044 4.1736e-20 0.100497)
(12.6014 0 0.101027)
(12.6999 0 0.101389)
(12.8002 -7.29071e-20 0.101581)
(12.9025 1.32535e-19 0.101597)
(13.0068 -6.62244e-20 0.101431)
)
;

boundaryField
{
    inlet
    {
        type            fixedValue;
        value           nonuniform 0();
    }
    outlet
    {
        type            zeroGradient;
    }
    flap
    {
        type            movingWallVelocity;
        value           nonuniform 0();
    }
    upperWall
    {
        type            noSlip;
    }
    lowerWall
    {
        type            noSlip;
    }
    frontAndBack
    {
        type            empty;
    }
    procBoundary1to0
    {
        type            processor;
        value           nonuniform List<vector> 
18
(
(11.0858 7.69895e-20 2.39148)
(11.1509 -1.48726e-19 2.25646)
(11.1509 -1.48726e-19 2.25646)
(11.0837 0 2.01481)
(11.1306 -1.39253e-19 1.8866)
(11.169 -1.37294e-19 1.75605)
(11.1997 0 1.62369)
(11.2239 -2.57301e-19 1.48991)
(11.2425 0 1.35491)
(11.2563 1.19321e-19 1.21881)
(11.2664 -1.16593e-19 1.08155)
(11.2735 -3.39634e-19 0.943184)
(11.2785 1.09673e-19 0.803139)
(11.2822 2.10443e-19 0.661944)
(11.2856 2.04334e-19 0.517653)
(11.2896 4.99863e-20 0.372581)
(11.2947 -4.86406e-20 0.221428)
(11.1052 0 0.0721225)
)
;
    }
    procBoundary1to2
    {
        type            processor;
        value           nonuniform List<vector> 
17
(
(14.5515 0 3.10746)
(14.4181 0 2.92489)
(14.2922 2.8733e-19 2.74117)
(14.174 0 2.55704)
(14.0634 3.63203e-20 2.37293)
(13.9601 -3.67527e-19 2.18895)
(13.8641 3.31126e-19 2.00501)
(13.7752 5.38703e-19 1.82096)
(13.6936 3.1448e-19 1.63675)
(13.6197 3.55936e-20 1.4519)
(13.554 4.09029e-22 1.26632)
(13.497 -3.21134e-19 1.07892)
(13.4494 -2.76194e-19 0.890358)
(13.4122 -2.53921e-19 0.697597)
(13.3864 2.54159e-19 0.504327)
(13.3732 0 0.301498)
(13.1127 -6.05568e-20 0.101078)
)
;
    }
    procBoundary1to3
    {
        type            processor;
        value           nonuniform List<vector> 9((9.91516 0 3.25887) (10.0962 -8.64933e-19 3.21634) (10.2664 1.86895e-20 3.15546) (10.4243 1.58418e-18 3.07829) (10.5688 -1.89632e-18 2.98699) (10.6995 1.09903e-18 2.88375) (10.8162 0 2.77072) (10.9191 1.69306e-19 2.64989) (11.0087 8.1572e-20 2.523));
    }
    procBoundary1to4
    {
        type            processor;
        value           nonuniform List<vector> 
30
(
(9.79401 0 3.60236)
(10.1211 8.65944e-19 3.88678)
(10.1211 8.65944e-19 3.88678)
(10.2743 -8.60894e-19 4.23326)
(10.6981 -7.85511e-19 4.4339)
(10.6981 -7.85511e-19 4.4339)
(10.9396 7.49315e-19 4.76198)
(11.4071 -5.16974e-19 4.80727)
(11.4071 -5.16974e-19 4.80727)
(11.7135 4.89825e-19 5.06263)
(12.1404 1.13072e-20 4.92743)
(12.1404 1.13072e-20 4.92743)
(12.4948 5.64196e-19 5.08648)
(12.7011 -9.8578e-19 5.15422)
(12.8821 4.53349e-20 4.81472)
(12.8821 4.53349e-20 4.81472)
(13.0265 8.00683e-19 4.84591)
(13.2832 0 4.87248)
(13.4601 2.70005e-19 4.52201)
(13.4601 2.70005e-19 4.52201)
(13.7201 -3.68997e-20 4.49865)
(13.9732 -3.73073e-19 4.44679)
(14.0751 5.75981e-21 4.10446)
(14.0751 5.75981e-21 4.10446)
(14.2827 -3.20963e-19 4.03183)
(14.3362 3.24213e-19 3.72208)
(14.3362 3.24213e-19 3.72208)
(14.5126 0 3.64319)
(14.5368 -2.49005e-19 3.36529)
(14.5368 -2.49005e-19 3.36529)
)
;
    }
}


// ************************************************************************* //
