/*--------------------------------*- C++ -*----------------------------------*\
| =========                 |                                                 |
| \\      /  F ield         | OpenFOAM: The Open Source CFD Toolbox           |
|  \\    /   O peration     | Version:  dev                                   |
|   \\  /    A nd           | Web:      www.OpenFOAM.org                      |
|    \\/     M anipulation  |                                                 |
\*---------------------------------------------------------------------------*/
FoamFile
{
    version     2.0;
    format      ascii;
    class       pointVectorField;
    location    "1.72";
    object      pointDisplacement;
}
// * * * * * * * * * * * * * * * * * * * * * * * * * * * * * * * * * * * * * //

dimensions      [0 1 0 0 0 0 0];

internalField   nonuniform List<vector> 
5828
(
(0 0 0)
(0.0240768 0 0)
(0.0454077 0 0)
(0.0633826 0 0)
(0.0783484 0 0)
(0.0906337 0 0)
(0.100523 0 0)
(0.108264 0 0)
(0.114069 0 0)
(0.118125 0 0)
(0.120592 0 0)
(0.121615 0 0)
(0.121323 0 0)
(0.119825 0 0)
(0.117221 0 0)
(0.113602 0 0)
(0.109049 0 0)
(0.103641 0 0)
(0.097453 0 0)
(0.0905599 0 0)
(0.0830394 0 0)
(0.0749734 0 0)
(0.0664512 0 0)
(0.0575741 0 0)
(0.0484632 0 0)
(0.0392714 0 0)
(0.0302091 0 0)
(0.0216093 0 0)
(0.0140235 0 0)
(0.00861055 0 0)
(1.39734e-09 0 0)
(0 0 0)
(0.0240943 0 -0.00027083)
(0.0454404 0 -0.000513824)
(0.0634308 0 -0.000725906)
(0.0784131 0 -0.000912983)
(0.0907161 0 -0.00107943)
(0.100625 0 -0.00122825)
(0.108387 0 -0.00136132)
(0.114217 0 -0.00147952)
(0.118299 0 -0.00158344)
(0.120795 0 -0.00167266)
(0.121852 0 -0.00174623)
(0.121597 0 -0.00180323)
(0.120142 0 -0.00184185)
(0.117587 0 -0.00185973)
(0.114023 0 -0.00185375)
(0.109534 0 -0.00182014)
(0.104199 0 -0.00175441)
(0.098094 0 -0.00165125)
(0.0912972 0 -0.00150453)
(0.0838888 0 -0.00130731)
(0.0759552 0 -0.00105148)
(0.0675907 0 -0.000727421)
(0.0589046 0 -0.00032428)
(0.0500291 0 0.000169774)
(0.0411323 0 0.000767151)
(0.0324344 0 0.0014809)
(0.0242758 0 0.00232095)
(0.0172535 0 0.00327943)
(0.0126707 0 0.00425228)
(0.0054355 0 0.00564774)
(0 0 0)
(0.0241461 0 -0.000542159)
(0.0455401 0 -0.00102869)
(0.0635775 0 -0.00145349)
(0.0786093 0 -0.00182842)
(0.0909655 0 -0.00216223)
(0.100933 0 -0.00246099)
(0.108758 0 -0.00272853)
(0.114659 0 -0.00296637)
(0.118819 0 -0.00317406)
(0.121403 0 -0.00335259)
(0.12256 0 -0.00350191)
(0.122419 0 -0.00361869)
(0.121092 0 -0.00369943)
(0.118682 0 -0.00373963)
(0.115284 0 -0.00373324)
(0.110983 0 -0.003673)
(0.105864 0 -0.00355029)
(0.100008 0 -0.00335497)
(0.0934967 0 -0.00307527)
(0.0864204 0 -0.00269833)
(0.078877 0 -0.00220919)
(0.0709752 0 -0.00159)
(0.0628432 0 -0.000820785)
(0.0546423 0 0.000119597)
(0.0465907 0 0.0012513)
(0.0389706 0 0.00259081)
(0.0321711 0 0.00414063)
(0.0268306 0 0.0058643)
(0.0245647 0 0.00749753)
(0.0190754 0 0.00994735)
(0 0 0)
(0.0242329 0 -0.000813178)
(0.0457057 0 -0.00154307)
(0.0638207 0 -0.00218058)
(0.0789344 0 -0.00274364)
(0.0913786 0 -0.00324539)
(0.101442 0 -0.00369502)
(0.109373 0 -0.00409855)
(0.115389 0 -0.00445823)
(0.119679 0 -0.00477368)
(0.122411 0 -0.00504647)
(0.123735 0 -0.00527626)
(0.12378 0 -0.00545831)
(0.122665 0 -0.00558801)
(0.120495 0 -0.00565924)
(0.11737 0 -0.00566336)
(0.113382 0 -0.00559017)
(0.10862 0 -0.00542765)
(0.103174 0 -0.00516171)
(0.0971332 0 -0.00477577)
(0.0906022 0 -0.00425316)
(0.0837004 0 -0.00357507)
(0.0765584 0 -0.00271808)
(0.0693319 0 -0.00165712)
(0.0622197 0 -0.000366963)
(0.0554983 0 0.00117215)
(0.0495607 0 0.00296298)
(0.0449669 0 0.00496972)
(0.0424453 0 0.00709224)
(0.0437651 0 0.00884561)
(0.0409707 0 0.011798)
(0 0 0)
(0.024354 0 -0.00108335)
(0.0459351 0 -0.00205561)
(0.064157 0 -0.00290533)
(0.0793844 0 -0.00365648)
(0.0919503 0 -0.00432656)
(0.102146 0 -0.00492794)
(0.110224 0 -0.00546932)
(0.116401 0 -0.00595367)
(0.120871 0 -0.0063815)
(0.123807 0 -0.00675446)
(0.12536 0 -0.00707107)
(0.125663 0 -0.00732583)
(0.124839 0 -0.00751399)
(0.123001 0 -0.00762881)
(0.120252 0 -0.00765925)
(0.116694 0 -0.00759316)
(0.112425 0 -0.00741628)
(0.107546 0 -0.00711226)
(0.102158 0 -0.00666189)
(0.0963796 0 -0.00604517)
(0.0903552 0 -0.0052419)
(0.0842496 0 -0.00422891)
(0.0782538 0 -0.0029816)
(0.0726292 0 -0.00148223)
(0.0677155 0 0.000275747)
(0.0639899 0 0.00227116)
(0.0622145 0 0.0044042)
(0.0634481 0 0.00643431)
(0.0694937 0 0.00761277)
(0.070033 0 0.0104637)
(0 0 0)
(0.0244996 0 -0.00135259)
(0.0462214 0 -0.00256684)
(0.0645836 0 -0.00362903)
(0.0799562 0 -0.0045689)
(0.0926772 0 -0.00540845)
(0.103043 0 -0.00616324)
(0.111305 0 -0.0068438)
(0.117685 0 -0.00745493)
(0.122383 0 -0.00799903)
(0.125576 0 -0.00847775)
(0.127419 0 -0.00888927)
(0.12805 0 -0.00922844)
(0.127596 0 -0.00948947)
(0.126176 0 -0.0096642)
(0.123903 0 -0.00974117)
(0.120886 0 -0.00970767)
(0.117236 0 -0.00954853)
(0.113068 0 -0.00924681)
(0.108504 0 -0.00878425)
(0.103673 0 -0.00813822)
(0.0987449 0 -0.00729009)
(0.0939324 0 -0.00622467)
(0.0894651 0 -0.00492358)
(0.0856663 0 -0.00338393)
(0.082973 0 -0.0016308)
(0.0819817 0 0.000264656)
(0.0835478 0 0.00213118)
(0.0891084 0 0.0035328)
(0.100727 0 0.00339703)
(0.105175 0 0.00553543)
(0 0 0)
(0.0246684 0 -0.00162087)
(0.046563 0 -0.00307733)
(0.0650977 0 -0.00435266)
(0.0806462 0 -0.00548241)
(0.093554 0 -0.00649319)
(0.104122 0 -0.00740365)
(0.112606 0 -0.00822524)
(0.11923 0 -0.00896624)
(0.124203 0 -0.0096321)
(0.127704 0 -0.0102237)
(0.129895 0 -0.01074)
(0.130922 0 -0.0111776)
(0.130914 0 -0.0115286)
(0.129994 0 -0.0117822)
(0.128287 0 -0.0119292)
(0.125916 0 -0.011958)
(0.123002 0 -0.0118536)
(0.119673 0 -0.0115997)
(0.11608 0 -0.0111821)
(0.112375 0 -0.0105822)
(0.10875 0 -0.00978465)
(0.105459 0 -0.00878491)
(0.102792 0 -0.00758277)
(0.101124 0 -0.00619769)
(0.100986 0 -0.00469578)
(0.103131 0 -0.00322444)
(0.108576 0 -0.00206645)
(0.118913 0 -0.00183757)
(0.13658 0 -0.00397446)
(0.145313 0 -0.00314306)
(0 0 0)
(0.0248676 0 -0.0018876)
(0.0469608 0 -0.00358533)
(0.065694 0 -0.00507352)
(0.0814465 0 -0.00639364)
(0.0945707 0 -0.00757697)
(0.105372 0 -0.00864541)
(0.114112 0 -0.00961287)
(0.121024 0 -0.0104902)
(0.126317 0 -0.0112846)
(0.130175 0 -0.0119972)
(0.132767 0 -0.0126283)
(0.134246 0 -0.013176)
(0.134747 0 -0.0136317)
(0.1344 0 -0.0139845)
(0.133342 0 -0.0142279)
(0.131711 0 -0.0143528)
(0.129641 0 -0.0143458)
(0.127278 0 -0.014194)
(0.124791 0 -0.0138868)
(0.12237 0 -0.0134158)
(0.120229 0 -0.0127723)
(0.118653 0 -0.0119656)
(0.118009 0 -0.0110234)
(0.118733 0 -0.00999762)
(0.121467 0 -0.00901219)
(0.127069 0 -0.00829263)
(0.136797 0 -0.00827342)
(0.152309 0 -0.00974655)
(0.17628 0 -0.0144864)
(0.189359 0 -0.0154915)
(0 0 0)
(0.0250936 0 -0.00215185)
(0.0474096 0 -0.00408891)
(0.0663656 0 -0.00578893)
(0.0823478 0 -0.00729934)
(0.0957159 0 -0.00865614)
(0.106781 0 -0.00988486)
(0.115813 0 -0.0110029)
(0.123048 0 -0.0120228)
(0.1287 0 -0.0129524)
(0.132958 0 -0.0137943)
(0.135998 0 -0.0145508)
(0.13798 0 -0.0152214)
(0.139049 0 -0.015799)
(0.139346 0 -0.0162759)
(0.139016 0 -0.0166463)
(0.138208 0 -0.0169035)
(0.137076 0 -0.0170388)
(0.135789 0 -0.017046)
(0.134527 0 -0.0169185)
(0.133513 0 -0.0166589)
(0.133004 0 -0.0162761)
(0.133323 0 -0.0157976)
(0.134894 0 -0.015282)
(0.13823 0 -0.0148233)
(0.144069 0 -0.0146084)
(0.153411 0 -0.014964)
(0.167654 0 -0.016466)
(0.18863 0 -0.020118)
(0.219059 0 -0.0279515)
(0.236304 0 -0.0311258)
(0 0 0)
(0.0253434 0 -0.00241316)
(0.0479048 0 -0.00458735)
(0.0671063 0 -0.00649802)
(0.0833422 0 -0.00819856)
(0.0969797 0 -0.00972978)
(0.108337 0 -0.011121)
(0.117689 0 -0.0123929)
(0.125281 0 -0.0135602)
(0.131327 0 -0.0146322)
(0.136027 0 -0.0156138)
(0.139561 0 -0.0165092)
(0.142097 0 -0.0173185)
(0.143788 0 -0.0180379)
(0.144792 0 -0.018665)
(0.145258 0 -0.0191935)
(0.145344 0 -0.0196188)
(0.145223 0 -0.0199396)
(0.145091 0 -0.0201591)
(0.145153 0 -0.0202811)
(0.145654 0 -0.0203185)
(0.146895 0 -0.0203014)
(0.149248 0 -0.0202831)
(0.153191 0 -0.0203564)
(0.159327 0 -0.0206696)
(0.168459 0 -0.0214705)
(0.18174 0 -0.0231969)
(0.200675 0 -0.0265634)
(0.227399 0 -0.0328221)
(0.26422 0 -0.0440614)
(0.285293 0 -0.0495365)
(0 0 0)
(0.0256152 0 -0.00267168)
(0.0484433 0 -0.00508105)
(0.0679119 0 -0.00720146)
(0.0844241 0 -0.0090923)
(0.098355 0 -0.0107992)
(0.11003 0 -0.0123553)
(0.119731 0 -0.0137848)
(0.127708 0 -0.0151047)
(0.134183 0 -0.0163267)
(0.139362 0 -0.0174595)
(0.143432 0 -0.0185072)
(0.146561 0 -0.01947)
(0.148919 0 -0.0203497)
(0.150673 0 -0.0211477)
(0.151981 0 -0.0218603)
(0.153017 0 -0.0224893)
(0.153978 0 -0.0230422)
(0.155071 0 -0.0235293)
(0.156536 0 -0.0239691)
(0.158637 0 -0.0243872)
(0.161712 0 -0.0248348)
(0.166194 0 -0.0253987)
(0.172613 0 -0.02621)
(0.181658 0 -0.0274745)
(0.194241 0 -0.0295205)
(0.211612 0 -0.0328836)
(0.235498 0 -0.0384522)
(0.268278 0 -0.0477032)
(0.311119 0 -0.0624373)
(0.335628 0 -0.070174)
(0 0 0)
(0.0259072 0 -0.00292749)
(0.0490218 0 -0.00557017)
(0.0687775 0 -0.00789958)
(0.0855868 0 -0.00998098)
(0.0998331 0 -0.0118649)
(0.111849 0 -0.0135884)
(0.121924 0 -0.0151791)
(0.130313 0 -0.0166569)
(0.137245 0 -0.0180357)
(0.14293 0 -0.0193267)
(0.147562 0 -0.0205358)
(0.151317 0 -0.0216656)
(0.154374 0 -0.0227229)
(0.156914 0 -0.0237132)
(0.159107 0 -0.0246383)
(0.161144 0 -0.0255076)
(0.163238 0 -0.0263373)
(0.165608 0 -0.0271442)
(0.168517 0 -0.0279603)
(0.172268 0 -0.0288336)
(0.177237 0 -0.0298382)
(0.183899 0 -0.0310925)
(0.192849 0 -0.0327727)
(0.204861 0 -0.035146)
(0.220965 0 -0.0386264)
(0.242587 0 -0.0438766)
(0.271754 0 -0.0519808)
(0.31076 0 -0.0645096)
(0.359055 0 -0.0826463)
(0.386816 0 -0.0924556)
(0 0 0)
(0.0262151 0 -0.00317918)
(0.0496329 0 -0.00605217)
(0.0696929 0 -0.0085888)
(0.086817 0 -0.0108601)
(0.101397 0 -0.0129215)
(0.113772 0 -0.0148139)
(0.124242 0 -0.0165688)
(0.133065 0 -0.0182089)
(0.140475 0 -0.0197503)
(0.146687 0 -0.0212056)
(0.151903 0 -0.0225853)
(0.156313 0 -0.0238978)
(0.160104 0 -0.0251519)
(0.163462 0 -0.026357)
(0.166575 0 -0.0275229)
(0.16964 0 -0.0286636)
(0.172887 0 -0.0298039)
(0.17656 0 -0.0309753)
(0.180937 0 -0.0322222)
(0.186358 0 -0.0336144)
(0.193235 0 -0.0352528)
(0.202079 0 -0.0372859)
(0.213558 0 -0.0399407)
(0.228535 0 -0.0435498)
(0.248172 0 -0.0486202)
(0.274142 0 -0.0559651)
(0.308664 0 -0.0668221)
(0.353678 0 -0.0827155)
(0.406709 0 -0.104009)
(0.438491 0 -0.115887)
(0 0 0)
(0.0265345 0 -0.00342533)
(0.050269 0 -0.00652448)
(0.0706477 0 -0.00926559)
(0.0881011 0 -0.0117253)
(0.103029 0 -0.0139638)
(0.11578 0 -0.0160258)
(0.12666 0 -0.017947)
(0.135936 0 -0.0197534)
(0.143841 0 -0.021463)
(0.150601 0 -0.0230919)
(0.156428 0 -0.0246548)
(0.16152 0 -0.0261651)
(0.166066 0 -0.0276327)
(0.170257 0 -0.0290701)
(0.174297 0 -0.0304961)
(0.178401 0 -0.0319334)
(0.18281 0 -0.0334165)
(0.187793 0 -0.0349911)
(0.193638 0 -0.0367137)
(0.200709 0 -0.0386736)
(0.209465 0 -0.0410031)
(0.220451 0 -0.043882)
(0.234386 0 -0.0475823)
(0.252224 0 -0.0525058)
(0.275278 0 -0.0592595)
(0.305356 0 -0.0687673)
(0.344764 0 -0.0823751)
(0.395002 0 -0.101464)
(0.451757 0 -0.125513)
(0.490386 0 -0.140071)
(0 0 0)
(0.0268618 0 -0.00366519)
(0.0509243 0 -0.00698585)
(0.0716343 0 -0.00992829)
(0.0894293 0 -0.0125745)
(0.104717 0 -0.0149894)
(0.117858 0 -0.0172225)
(0.129166 0 -0.0193133)
(0.138909 0 -0.0212897)
(0.147325 0 -0.023173)
(0.154652 0 -0.0249842)
(0.161103 0 -0.02674)
(0.166882 0 -0.0284557)
(0.172183 0 -0.0301459)
(0.177211 0 -0.0318299)
(0.182184 0 -0.033535)
(0.187333 0 -0.0352939)
(0.192899 0 -0.0371458)
(0.199161 0 -0.0391475)
(0.206438 0 -0.0413755)
(0.215115 0 -0.0439385)
(0.225677 0 -0.0469942)
(0.238702 0 -0.0507557)
(0.254936 0 -0.0555305)
(0.275401 0 -0.0617814)
(0.301466 0 -0.0701853)
(0.334971 0 -0.081742)
(0.378162 0 -0.0978523)
(0.431894 0 -0.11965)
(0.490914 0 -0.146004)
(0.542281 0 -0.16464)
(0 0 0)
(0.0271977 0 -0.00390068)
(0.0516023 0 -0.00744029)
(0.0726577 0 -0.0105827)
(0.0908084 0 -0.013415)
(0.106473 0 -0.0160076)
(0.120021 0 -0.0184152)
(0.131773 0 -0.0206795)
(0.141995 0 -0.0228299)
(0.150936 0 -0.0248918)
(0.158839 0 -0.0268904)
(0.165919 0 -0.0288441)
(0.172386 0 -0.0307726)
(0.178451 0 -0.0326978)
(0.184325 0 -0.0346453)
(0.190237 0 -0.0366491)
(0.196417 0 -0.0387462)
(0.203115 0 -0.0409845)
(0.210626 0 -0.0434349)
(0.219286 0 -0.0461899)
(0.229497 0 -0.0493768)
(0.241752 0 -0.053173)
(0.256645 0 -0.0578179)
(0.274936 0 -0.0636513)
(0.297631 0 -0.0711656)
(0.326062 0 -0.0810739)
(0.361936 0 -0.0943982)
(0.406982 0 -0.112448)
(0.460943 0 -0.136138)
(0.517893 0 -0.164647)
(0.594198 0 -0.189377)
(0 0 0)
(0.0240768 0 0)
(0.0454077 0 0)
(0.0633826 0 0)
(0.0783484 0 0)
(0.0906337 0 0)
(0.100523 0 0)
(0.108264 0 0)
(0.114069 0 0)
(0.118125 0 0)
(0.120592 0 0)
(0.121615 0 0)
(0.121323 0 0)
(0.119825 0 0)
(0.117221 0 0)
(0.113602 0 0)
(0.109049 0 0)
(0.103641 0 0)
(0.097453 0 0)
(0.0905599 0 0)
(0.0830394 0 0)
(0.0749734 0 0)
(0.0664512 0 0)
(0.0575741 0 0)
(0.0484632 0 0)
(0.0392714 0 0)
(0.0302091 0 0)
(0.0216093 0 0)
(0.0140235 0 0)
(0.00861055 0 0)
(0 0 0)
(0 0 0)
(0.0240943 0 -0.00027083)
(0.0454404 0 -0.000513824)
(0.0634308 0 -0.000725906)
(0.0784131 0 -0.000912983)
(0.0907161 0 -0.00107943)
(0.100625 0 -0.00122825)
(0.108387 0 -0.00136132)
(0.114217 0 -0.00147952)
(0.118299 0 -0.00158344)
(0.120795 0 -0.00167266)
(0.121852 0 -0.00174623)
(0.121597 0 -0.00180323)
(0.120142 0 -0.00184185)
(0.117587 0 -0.00185973)
(0.114023 0 -0.00185375)
(0.109534 0 -0.00182014)
(0.104199 0 -0.00175441)
(0.098094 0 -0.00165125)
(0.0912972 0 -0.00150453)
(0.0838888 0 -0.00130731)
(0.0759552 0 -0.00105148)
(0.0675907 0 -0.000727421)
(0.0589046 0 -0.00032428)
(0.0500291 0 0.000169774)
(0.0411323 0 0.000767151)
(0.0324344 0 0.0014809)
(0.0242758 0 0.00232095)
(0.0172535 0 0.00327943)
(0.0126707 0 0.00425228)
(0.0054355 0 0.00564774)
(0 0 0)
(0.0241461 0 -0.000542159)
(0.0455401 0 -0.00102869)
(0.0635775 0 -0.00145349)
(0.0786093 0 -0.00182842)
(0.0909655 0 -0.00216223)
(0.100933 0 -0.00246099)
(0.108758 0 -0.00272853)
(0.114659 0 -0.00296637)
(0.118819 0 -0.00317406)
(0.121403 0 -0.00335259)
(0.12256 0 -0.00350191)
(0.122419 0 -0.00361869)
(0.121092 0 -0.00369943)
(0.118682 0 -0.00373963)
(0.115284 0 -0.00373324)
(0.110983 0 -0.003673)
(0.105864 0 -0.00355029)
(0.100008 0 -0.00335497)
(0.0934967 0 -0.00307527)
(0.0864204 0 -0.00269833)
(0.078877 0 -0.00220919)
(0.0709752 0 -0.00159)
(0.0628432 0 -0.000820785)
(0.0546423 0 0.000119597)
(0.0465907 0 0.0012513)
(0.0389706 0 0.00259081)
(0.0321711 0 0.00414063)
(0.0268306 0 0.0058643)
(0.0245647 0 0.00749753)
(0.0190754 0 0.00994735)
(0 0 0)
(0.0242329 0 -0.000813178)
(0.0457057 0 -0.00154307)
(0.0638207 0 -0.00218058)
(0.0789344 0 -0.00274364)
(0.0913786 0 -0.00324539)
(0.101442 0 -0.00369502)
(0.109373 0 -0.00409855)
(0.115389 0 -0.00445823)
(0.119679 0 -0.00477368)
(0.122411 0 -0.00504647)
(0.123735 0 -0.00527626)
(0.12378 0 -0.00545831)
(0.122665 0 -0.00558801)
(0.120495 0 -0.00565924)
(0.11737 0 -0.00566336)
(0.113382 0 -0.00559017)
(0.10862 0 -0.00542765)
(0.103174 0 -0.00516171)
(0.0971332 0 -0.00477577)
(0.0906022 0 -0.00425316)
(0.0837004 0 -0.00357507)
(0.0765584 0 -0.00271808)
(0.0693319 0 -0.00165712)
(0.0622197 0 -0.000366963)
(0.0554983 0 0.00117215)
(0.0495607 0 0.00296298)
(0.0449669 0 0.00496972)
(0.0424453 0 0.00709224)
(0.0437651 0 0.00884561)
(0.0409707 0 0.011798)
(0 0 0)
(0.024354 0 -0.00108335)
(0.0459351 0 -0.00205561)
(0.064157 0 -0.00290533)
(0.0793844 0 -0.00365648)
(0.0919503 0 -0.00432656)
(0.102146 0 -0.00492794)
(0.110224 0 -0.00546932)
(0.116401 0 -0.00595367)
(0.120871 0 -0.0063815)
(0.123807 0 -0.00675446)
(0.12536 0 -0.00707107)
(0.125663 0 -0.00732583)
(0.124839 0 -0.00751399)
(0.123001 0 -0.00762881)
(0.120252 0 -0.00765925)
(0.116694 0 -0.00759316)
(0.112425 0 -0.00741628)
(0.107546 0 -0.00711226)
(0.102158 0 -0.00666189)
(0.0963796 0 -0.00604517)
(0.0903552 0 -0.0052419)
(0.0842496 0 -0.00422891)
(0.0782538 0 -0.0029816)
(0.0726292 0 -0.00148223)
(0.0677155 0 0.000275747)
(0.0639899 0 0.00227116)
(0.0622145 0 0.0044042)
(0.0634481 0 0.00643431)
(0.0694937 0 0.00761277)
(0.070033 0 0.0104637)
(0 0 0)
(0.0244996 0 -0.00135259)
(0.0462214 0 -0.00256684)
(0.0645836 0 -0.00362903)
(0.0799562 0 -0.0045689)
(0.0926772 0 -0.00540845)
(0.103043 0 -0.00616324)
(0.111305 0 -0.0068438)
(0.117685 0 -0.00745493)
(0.122383 0 -0.00799903)
(0.125576 0 -0.00847775)
(0.127419 0 -0.00888927)
(0.12805 0 -0.00922844)
(0.127596 0 -0.00948947)
(0.126176 0 -0.0096642)
(0.123903 0 -0.00974117)
(0.120886 0 -0.00970767)
(0.117236 0 -0.00954853)
(0.113068 0 -0.00924681)
(0.108504 0 -0.00878425)
(0.103673 0 -0.00813822)
(0.0987449 0 -0.00729009)
(0.0939324 0 -0.00622467)
(0.0894651 0 -0.00492358)
(0.0856663 0 -0.00338393)
(0.082973 0 -0.0016308)
(0.0819817 0 0.000264656)
(0.0835478 0 0.00213118)
(0.0891084 0 0.0035328)
(0.100727 0 0.00339703)
(0.105175 0 0.00553543)
(0 0 0)
(0.0246684 0 -0.00162087)
(0.046563 0 -0.00307733)
(0.0650977 0 -0.00435266)
(0.0806462 0 -0.00548241)
(0.093554 0 -0.00649319)
(0.104122 0 -0.00740365)
(0.112606 0 -0.00822524)
(0.11923 0 -0.00896624)
(0.124203 0 -0.0096321)
(0.127704 0 -0.0102237)
(0.129895 0 -0.01074)
(0.130922 0 -0.0111776)
(0.130914 0 -0.0115286)
(0.129994 0 -0.0117822)
(0.128287 0 -0.0119292)
(0.125916 0 -0.011958)
(0.123002 0 -0.0118536)
(0.119673 0 -0.0115997)
(0.11608 0 -0.0111821)
(0.112375 0 -0.0105822)
(0.10875 0 -0.00978465)
(0.105459 0 -0.00878491)
(0.102792 0 -0.00758277)
(0.101124 0 -0.00619769)
(0.100986 0 -0.00469578)
(0.103131 0 -0.00322444)
(0.108576 0 -0.00206645)
(0.118913 0 -0.00183757)
(0.13658 0 -0.00397446)
(0.145313 0 -0.00314306)
(0 0 0)
(0.0248676 0 -0.0018876)
(0.0469608 0 -0.00358533)
(0.065694 0 -0.00507352)
(0.0814465 0 -0.00639364)
(0.0945707 0 -0.00757697)
(0.105372 0 -0.00864541)
(0.114112 0 -0.00961287)
(0.121024 0 -0.0104902)
(0.126317 0 -0.0112846)
(0.130175 0 -0.0119972)
(0.132767 0 -0.0126283)
(0.134246 0 -0.013176)
(0.134747 0 -0.0136317)
(0.1344 0 -0.0139845)
(0.133342 0 -0.0142279)
(0.131711 0 -0.0143528)
(0.129641 0 -0.0143458)
(0.127278 0 -0.014194)
(0.124791 0 -0.0138868)
(0.12237 0 -0.0134158)
(0.120229 0 -0.0127723)
(0.118653 0 -0.0119656)
(0.118009 0 -0.0110234)
(0.118733 0 -0.00999762)
(0.121467 0 -0.00901219)
(0.127069 0 -0.00829263)
(0.136797 0 -0.00827342)
(0.152309 0 -0.00974655)
(0.17628 0 -0.0144864)
(0.189359 0 -0.0154915)
(0 0 0)
(0.0250936 0 -0.00215185)
(0.0474096 0 -0.00408891)
(0.0663656 0 -0.00578893)
(0.0823478 0 -0.00729934)
(0.0957159 0 -0.00865614)
(0.106781 0 -0.00988486)
(0.115813 0 -0.0110029)
(0.123048 0 -0.0120228)
(0.1287 0 -0.0129524)
(0.132958 0 -0.0137943)
(0.135998 0 -0.0145508)
(0.13798 0 -0.0152214)
(0.139049 0 -0.015799)
(0.139346 0 -0.0162759)
(0.139016 0 -0.0166463)
(0.138208 0 -0.0169035)
(0.137076 0 -0.0170388)
(0.135789 0 -0.017046)
(0.134527 0 -0.0169185)
(0.133513 0 -0.0166589)
(0.133004 0 -0.0162761)
(0.133323 0 -0.0157976)
(0.134894 0 -0.015282)
(0.13823 0 -0.0148233)
(0.144069 0 -0.0146084)
(0.153411 0 -0.014964)
(0.167654 0 -0.016466)
(0.18863 0 -0.020118)
(0.219059 0 -0.0279515)
(0.236304 0 -0.0311258)
(0 0 0)
(0.0253434 0 -0.00241316)
(0.0479048 0 -0.00458735)
(0.0671063 0 -0.00649802)
(0.0833422 0 -0.00819856)
(0.0969797 0 -0.00972978)
(0.108337 0 -0.011121)
(0.117689 0 -0.0123929)
(0.125281 0 -0.0135602)
(0.131327 0 -0.0146322)
(0.136027 0 -0.0156138)
(0.139561 0 -0.0165092)
(0.142097 0 -0.0173185)
(0.143788 0 -0.0180379)
(0.144792 0 -0.018665)
(0.145258 0 -0.0191935)
(0.145344 0 -0.0196188)
(0.145223 0 -0.0199396)
(0.145091 0 -0.0201591)
(0.145153 0 -0.0202811)
(0.145654 0 -0.0203185)
(0.146895 0 -0.0203014)
(0.149248 0 -0.0202831)
(0.153191 0 -0.0203564)
(0.159327 0 -0.0206696)
(0.168459 0 -0.0214705)
(0.18174 0 -0.0231969)
(0.200675 0 -0.0265634)
(0.227399 0 -0.0328221)
(0.26422 0 -0.0440614)
(0.285293 0 -0.0495365)
(0 0 0)
(0.0256152 0 -0.00267168)
(0.0484433 0 -0.00508105)
(0.0679119 0 -0.00720146)
(0.0844241 0 -0.0090923)
(0.098355 0 -0.0107992)
(0.11003 0 -0.0123553)
(0.119731 0 -0.0137848)
(0.127708 0 -0.0151047)
(0.134183 0 -0.0163267)
(0.139362 0 -0.0174595)
(0.143432 0 -0.0185072)
(0.146561 0 -0.01947)
(0.148919 0 -0.0203497)
(0.150673 0 -0.0211477)
(0.151981 0 -0.0218603)
(0.153017 0 -0.0224893)
(0.153978 0 -0.0230422)
(0.155071 0 -0.0235293)
(0.156536 0 -0.0239691)
(0.158637 0 -0.0243872)
(0.161712 0 -0.0248348)
(0.166194 0 -0.0253987)
(0.172613 0 -0.02621)
(0.181658 0 -0.0274745)
(0.194241 0 -0.0295205)
(0.211612 0 -0.0328836)
(0.235498 0 -0.0384522)
(0.268278 0 -0.0477032)
(0.311119 0 -0.0624373)
(0.335628 0 -0.070174)
(0 0 0)
(0.0259072 0 -0.00292749)
(0.0490218 0 -0.00557017)
(0.0687775 0 -0.00789958)
(0.0855868 0 -0.00998098)
(0.0998331 0 -0.0118649)
(0.111849 0 -0.0135884)
(0.121924 0 -0.0151791)
(0.130313 0 -0.0166569)
(0.137245 0 -0.0180357)
(0.14293 0 -0.0193267)
(0.147562 0 -0.0205358)
(0.151317 0 -0.0216656)
(0.154374 0 -0.0227229)
(0.156914 0 -0.0237132)
(0.159107 0 -0.0246383)
(0.161144 0 -0.0255076)
(0.163238 0 -0.0263373)
(0.165608 0 -0.0271442)
(0.168517 0 -0.0279603)
(0.172268 0 -0.0288336)
(0.177237 0 -0.0298382)
(0.183899 0 -0.0310925)
(0.192849 0 -0.0327727)
(0.204861 0 -0.035146)
(0.220965 0 -0.0386264)
(0.242587 0 -0.0438766)
(0.271754 0 -0.0519808)
(0.31076 0 -0.0645096)
(0.359055 0 -0.0826463)
(0.386816 0 -0.0924556)
(0 0 0)
(0.0262151 0 -0.00317918)
(0.0496329 0 -0.00605217)
(0.0696929 0 -0.0085888)
(0.086817 0 -0.0108601)
(0.101397 0 -0.0129215)
(0.113772 0 -0.0148139)
(0.124242 0 -0.0165688)
(0.133065 0 -0.0182089)
(0.140475 0 -0.0197503)
(0.146687 0 -0.0212056)
(0.151903 0 -0.0225853)
(0.156313 0 -0.0238978)
(0.160104 0 -0.0251519)
(0.163462 0 -0.026357)
(0.166575 0 -0.0275229)
(0.16964 0 -0.0286636)
(0.172887 0 -0.0298039)
(0.17656 0 -0.0309753)
(0.180937 0 -0.0322222)
(0.186358 0 -0.0336144)
(0.193235 0 -0.0352528)
(0.202079 0 -0.0372859)
(0.213558 0 -0.0399407)
(0.228535 0 -0.0435498)
(0.248172 0 -0.0486202)
(0.274142 0 -0.0559651)
(0.308664 0 -0.0668221)
(0.353678 0 -0.0827155)
(0.406709 0 -0.104009)
(0.438491 0 -0.115887)
(0 0 0)
(0.0265345 0 -0.00342533)
(0.050269 0 -0.00652448)
(0.0706477 0 -0.00926559)
(0.0881011 0 -0.0117253)
(0.103029 0 -0.0139638)
(0.11578 0 -0.0160258)
(0.12666 0 -0.017947)
(0.135936 0 -0.0197534)
(0.143841 0 -0.021463)
(0.150601 0 -0.0230919)
(0.156428 0 -0.0246548)
(0.16152 0 -0.0261651)
(0.166066 0 -0.0276327)
(0.170257 0 -0.0290701)
(0.174297 0 -0.0304961)
(0.178401 0 -0.0319334)
(0.18281 0 -0.0334165)
(0.187793 0 -0.0349911)
(0.193638 0 -0.0367137)
(0.200709 0 -0.0386736)
(0.209465 0 -0.0410031)
(0.220451 0 -0.043882)
(0.234386 0 -0.0475823)
(0.252224 0 -0.0525058)
(0.275278 0 -0.0592595)
(0.305356 0 -0.0687673)
(0.344764 0 -0.0823751)
(0.395002 0 -0.101464)
(0.451757 0 -0.125513)
(0.490386 0 -0.140071)
(0 0 0)
(0.0268618 0 -0.00366519)
(0.0509243 0 -0.00698585)
(0.0716343 0 -0.00992829)
(0.0894293 0 -0.0125745)
(0.104717 0 -0.0149894)
(0.117858 0 -0.0172225)
(0.129166 0 -0.0193133)
(0.138909 0 -0.0212897)
(0.147325 0 -0.023173)
(0.154652 0 -0.0249842)
(0.161103 0 -0.02674)
(0.166882 0 -0.0284557)
(0.172183 0 -0.0301459)
(0.177211 0 -0.0318299)
(0.182184 0 -0.033535)
(0.187333 0 -0.0352939)
(0.192899 0 -0.0371458)
(0.199161 0 -0.0391475)
(0.206438 0 -0.0413755)
(0.215115 0 -0.0439385)
(0.225677 0 -0.0469942)
(0.238702 0 -0.0507557)
(0.254936 0 -0.0555305)
(0.275401 0 -0.0617814)
(0.301466 0 -0.0701853)
(0.334971 0 -0.081742)
(0.378162 0 -0.0978523)
(0.431894 0 -0.11965)
(0.490914 0 -0.146004)
(0.542281 0 -0.16464)
(0 0 0)
(0.0271977 0 -0.00390068)
(0.0516023 0 -0.00744029)
(0.0726577 0 -0.0105827)
(0.0908084 0 -0.013415)
(0.106473 0 -0.0160076)
(0.120021 0 -0.0184152)
(0.131773 0 -0.0206795)
(0.141995 0 -0.0228299)
(0.150936 0 -0.0248918)
(0.158839 0 -0.0268904)
(0.165919 0 -0.0288441)
(0.172386 0 -0.0307726)
(0.178451 0 -0.0326978)
(0.184325 0 -0.0346453)
(0.190237 0 -0.0366491)
(0.196417 0 -0.0387462)
(0.203115 0 -0.0409845)
(0.210626 0 -0.0434349)
(0.219286 0 -0.0461899)
(0.229497 0 -0.0493768)
(0.241752 0 -0.053173)
(0.256645 0 -0.0578179)
(0.274936 0 -0.0636513)
(0.297631 0 -0.0711656)
(0.326062 0 -0.0810739)
(0.361936 0 -0.0943982)
(0.406982 0 -0.112448)
(0.460943 0 -0.136138)
(0.517893 0 -0.164647)
(0.594198 0 -0.189377)
(0 0 0)
(0.0180628 0 0)
(0.0456019 0 0)
(0.101784 0 0)
(0.181458 0 0)
(0.259105 0 0)
(0.316459 0 0)
(0.354371 0 0)
(0.37907 0 0)
(0.395067 0 0)
(0.405032 0 0)
(0.410545 0 0)
(0.412538 0 0)
(0.41154 0 0)
(0.407854 0 0)
(0.401653 0 0)
(0.393031 0 0)
(0.382025 0 0)
(0.368633 0 0)
(0.352828 0 0)
(0.334559 0 0)
(0.313765 0 0)
(0.290373 0 0)
(0.264301 0 0)
(0.235464 0 0)
(0.203772 0 0)
(0.169135 0 0)
(0.131462 0 0)
(0.0906736 0 0)
(0.0466196 0 0)
(0 0 0)
(0.00459058 0 -0.00693606)
(0.0222638 0 -0.00883109)
(0.0507719 0 -0.0120991)
(0.107461 0 -0.0167235)
(0.186415 0 -0.0212774)
(0.262545 0 -0.0239121)
(0.318703 0 -0.0246044)
(0.355919 0 -0.0243175)
(0.380193 0 -0.0235124)
(0.395911 0 -0.0224004)
(0.405687 0 -0.0210878)
(0.41107 0 -0.0197068)
(0.412968 0 -0.0183605)
(0.411895 0 -0.0170582)
(0.40815 0 -0.0158124)
(0.401901 0 -0.0146283)
(0.39324 0 -0.0135058)
(0.382202 0 -0.0124415)
(0.368784 0 -0.0114297)
(0.352956 0 -0.0104634)
(0.33467 0 -0.00953466)
(0.313861 0 -0.0086348)
(0.290456 0 -0.0077546)
(0.264374 0 -0.00688409)
(0.235528 0 -0.00601254)
(0.203829 0 -0.00512822)
(0.169186 0 -0.00421809)
(0.131507 0 -0.00326738)
(0.090712 0 -0.00225923)
(0.0466484 0 -0.00117169)
(0 0 0)
(0.015954 0 -0.0145827)
(0.0346164 0 -0.0184125)
(0.0659269 0 -0.025002)
(0.124026 0 -0.0339313)
(0.200895 0 -0.0422727)
(0.272748 0 -0.0469165)
(0.325451 0 -0.0481468)
(0.360573 0 -0.047545)
(0.383564 0 -0.045937)
(0.398444 0 -0.0437497)
(0.40765 0 -0.0412251)
(0.412637 0 -0.0385969)
(0.414243 0 -0.0360048)
(0.412944 0 -0.0334901)
(0.409018 0 -0.0310787)
(0.402624 0 -0.0287812)
(0.393844 0 -0.0265985)
(0.382709 0 -0.0245245)
(0.36921 0 -0.0225487)
(0.353316 0 -0.0206578)
(0.334974 0 -0.0188367)
(0.31412 0 -0.0170692)
(0.290677 0 -0.0153373)
(0.264563 0 -0.0136218)
(0.235691 0 -0.0119018)
(0.203968 0 -0.0101545)
(0.169304 0 -0.00835441)
(0.131604 0 -0.0064725)
(0.0907858 0 -0.00447577)
(0.0466917 0 -0.00232118)
(0 0 0)
(0.0344922 0 -0.0235365)
(0.0544297 0 -0.0293164)
(0.0898096 0 -0.0392887)
(0.149531 0 -0.0519932)
(0.222834 0 -0.063024)
(0.288414 0 -0.068879)
(0.336084 0 -0.0703269)
(0.368019 0 -0.0693215)
(0.389003 0 -0.0669404)
(0.402551 0 -0.0637355)
(0.410848 0 -0.0601133)
(0.415193 0 -0.0563758)
(0.416318 0 -0.0526657)
(0.414645 0 -0.0490558)
(0.410423 0 -0.0455846)
(0.403789 0 -0.0422683)
(0.394815 0 -0.0391092)
(0.383519 0 -0.0360996)
(0.369888 0 -0.0332246)
(0.353885 0 -0.0304661)
(0.335453 0 -0.0278031)
(0.314524 0 -0.0252124)
(0.291019 0 -0.0226685)
(0.264853 0 -0.0201439)
(0.235937 0 -0.0176083)
(0.204178 0 -0.0150285)
(0.169479 0 -0.0123675)
(0.131747 0 -0.00958307)
(0.0908927 0 -0.00662696)
(0.0467531 0 -0.00343643)
(0 0 0)
(0.0593905 0 -0.0343555)
(0.0809176 0 -0.0420063)
(0.120994 0 -0.0553294)
(0.181824 0 -0.0710673)
(0.250064 0 -0.0835916)
(0.308126 0 -0.0898562)
(0.349824 0 -0.091164)
(0.377828 0 -0.0896204)
(0.396241 0 -0.0864503)
(0.408058 0 -0.0823137)
(0.415166 0 -0.0777215)
(0.418649 0 -0.0729931)
(0.419121 0 -0.0682886)
(0.416939 0 -0.0637)
(0.412311 0 -0.0592759)
(0.40535 0 -0.0550372)
(0.396108 0 -0.0509882)
(0.384594 0 -0.0471199)
(0.370783 0 -0.0434137)
(0.354631 0 -0.0398475)
(0.336076 0 -0.0363956)
(0.315045 0 -0.0330291)
(0.291456 0 -0.0297158)
(0.26522 0 -0.0264207)
(0.236246 0 -0.0231052)
(0.204437 0 -0.0197266)
(0.169694 0 -0.0162372)
(0.131919 0 -0.0125826)
(0.0910193 0 -0.00870082)
(0.0468246 0 -0.00451089)
(0 0 0)
(0.0899829 0 -0.0474087)
(0.113234 0 -0.056776)
(0.15801 0 -0.073246)
(0.21878 0 -0.0910538)
(0.280618 0 -0.103892)
(0.330535 0 -0.109808)
(0.365836 0 -0.110632)
(0.389468 0 -0.108408)
(0.404932 0 -0.104415)
(0.414748 0 -0.0994379)
(0.420445 0 -0.0939951)
(0.422885 0 -0.0883966)
(0.422556 0 -0.0828204)
(0.419746 0 -0.0773706)
(0.414615 0 -0.0721025)
(0.407248 0 -0.0670399)
(0.397675 0 -0.0621903)
(0.38589 0 -0.0575432)
(0.371856 0 -0.0530762)
(0.35552 0 -0.0487648)
(0.336812 0 -0.0445797)
(0.315655 0 -0.0404872)
(0.291962 0 -0.0364497)
(0.265641 0 -0.0324255)
(0.236596 0 -0.0283684)
(0.204726 0 -0.0242276)
(0.169931 0 -0.0199455)
(0.132107 0 -0.0154568)
(0.0911553 0 -0.010687)
(0.0469003 0 -0.00553896)
(0 0 0)
(0.125535 0 -0.0628401)
(0.15051 0 -0.0736981)
(0.199342 0 -0.0928543)
(0.258423 0 -0.111597)
(0.312847 0 -0.123726)
(0.354461 0 -0.128667)
(0.38327 0 -0.128656)
(0.402357 0 -0.125626)
(0.414705 0 -0.120831)
(0.422362 0 -0.115096)
(0.426493 0 -0.108903)
(0.427751 0 -0.102552)
(0.426507 0 -0.0962248)
(0.422971 0 -0.0900308)
(0.417259 0 -0.0840279)
(0.409418 0 -0.0782401)
(0.399459 0 -0.0726809)
(0.387358 0 -0.0673374)
(0.373065 0 -0.0621811)
(0.356514 0 -0.0571883)
(0.337629 0 -0.0523273)
(0.316325 0 -0.0475606)
(0.292512 0 -0.0428459)
(0.266092 0 -0.0381358)
(0.236965 0 -0.0333779)
(0.205028 0 -0.0285136)
(0.170175 0 -0.0234771)
(0.132297 0 -0.0181932)
(0.0912919 0 -0.0125767)
(0.0469761 0 -0.00651601)
(0 0 0)
(0.165293 0 -0.0805564)
(0.191881 0 -0.0926554)
(0.243535 0 -0.113759)
(0.299065 0 -0.132204)
(0.345415 0 -0.14279)
(0.378874 0 -0.146292)
(0.401341 0 -0.145152)
(0.41594 0 -0.141223)
(0.425179 0 -0.135679)
(0.430617 0 -0.129269)
(0.433096 0 -0.122429)
(0.433083 0 -0.115441)
(0.43084 0 -0.108481)
(0.426509 0 -0.101658)
(0.420154 0 -0.0950298)
(0.411787 0 -0.0886124)
(0.401394 0 -0.0824242)
(0.388942 0 -0.0764577)
(0.37436 0 -0.0706837)
(0.35757 0 -0.0650745)
(0.338487 0 -0.059597)
(0.317021 0 -0.0542104)
(0.293074 0 -0.0488684)
(0.266546 0 -0.0435191)
(0.23733 0 -0.0381043)
(0.20532 0 -0.0325591)
(0.170405 0 -0.0268105)
(0.132473 0 -0.020775)
(0.0914163 0 -0.0143578)
(0.047044 0 -0.00743545)
(0 0 0)
(0.208489 0 -0.100336)
(0.236413 0 -0.113339)
(0.289178 0 -0.135403)
(0.339341 0 -0.152353)
(0.377215 0 -0.16072)
(0.402857 0 -0.162456)
(0.419358 0 -0.160035)
(0.42973 0 -0.155183)
(0.435989 0 -0.14895)
(0.43923 0 -0.141951)
(0.440029 0 -0.134568)
(0.438704 0 -0.127059)
(0.435416 0 -0.119581)
(0.430239 0 -0.112232)
(0.4232 0 -0.105073)
(0.414274 0 -0.0981208)
(0.403419 0 -0.0913829)