/*--------------------------------*- C++ -*----------------------------------*\
| =========                 |                                                 |
| \\      /  F ield         | OpenFOAM: The Open Source CFD Toolbox           |
|  \\    /   O peration     | Version:  dev                                   |
|   \\  /    A nd           | Web:      www.OpenFOAM.org                      |
|    \\/     M anipulation  |                                                 |
\*---------------------------------------------------------------------------*/
FoamFile
{
    version     2.0;
    format      ascii;
    class       surfaceScalarField;
    location    "0.16";
    object      meshPhi;
}
// * * * * * * * * * * * * * * * * * * * * * * * * * * * * * * * * * * * * * //

dimensions      [0 3 -1 0 0 0 0];

internalField   nonuniform List<scalar> 
881
(
7.59672e-07
2.16794e-08
1.3891e-06
6.1369e-08
1.82511e-06
9.43747e-08
2.04687e-06
1.20511e-07
2.05101e-06
1.40273e-07
1.8484e-06
1.54169e-07
1.46233e-06
1.6272e-07
9.26627e-07
1.66469e-07
2.8352e-07
1.65988e-07
-4.1896e-07
1.6188e-07
-1.13017e-06
1.54772e-07
-1.80046e-06
1.45293e-07
-2.38494e-06
1.34046e-07
-2.84706e-06
1.21587e-07
-3.16153e-06
1.084e-07
-3.31626e-06
9.48974e-08
-3.31299e-06
8.14237e-08
-3.16654e-06
6.82737e-08
-2.90278e-06
5.57123e-08
-2.55575e-06
4.39885e-08
3.34542e-08
7.70028e-07
4.34037e-08
1.40798e-06
1.22866e-07
1.8509e-06
1.88955e-07
2.07837e-06
2.4131e-07
2.08696e-06
2.80927e-07
1.88748e-06
3.08826e-07
1.50309e-06
3.26046e-07
9.67542e-07
3.33668e-07
3.2305e-07
3.32832e-07
-3.82265e-07
3.24744e-07
-1.09756e-06
3.10652e-07
-1.77286e-06
2.91809e-07
-2.3629e-06
2.69423e-07
-2.83069e-06
2.44598e-07
-3.15052e-06
2.18302e-07
-3.30995e-06
1.91354e-07
-3.31044e-06
1.64437e-07
-3.1666e-06
1.38136e-07
-2.904e-06
1.12982e-07
-2.55559e-06
8.94799e-08
6.82882e-08
7.82971e-07
6.51564e-08
1.43216e-06
1.84448e-07
1.88492e-06
2.83689e-07
2.12128e-06
3.62363e-07
2.13792e-06
4.21974e-07
1.94561e-06
4.64057e-07
1.56739e-06
4.90167e-07
1.03684e-06
5.01918e-07
3.95978e-07
5.0101e-07
-3.07224e-07
4.89237e-07
-1.02203e-06
4.68459e-07
-1.6985e-06
4.40542e-07
-2.2913e-06
4.07281e-07
-2.76329e-06
3.70322e-07
-3.08854e-06
3.31103e-07
-3.25429e-06
2.90842e-07
-3.26169e-06
2.50556e-07
-3.12493e-06
2.11118e-07
-2.86911e-06
1.73324e-07
-2.52671e-06
1.37941e-07
1.05858e-07
7.97621e-07
8.69053e-08
1.46021e-06
2.46031e-07
1.92537e-06
3.78466e-07
2.17358e-06
4.83554e-07
2.20176e-06
5.63324e-07
2.02073e-06
6.1983e-07
1.65344e-06
6.55141e-07
1.13319e-06
6.71395e-07
5.01677e-07
6.70837e-07
-1.93595e-07
6.55832e-07
-9.02341e-07
6.28828e-07
-1.57506e-06
5.92282e-07
-2.16675e-06
5.48556e-07
-2.64051e-06
4.99815e-07
-2.97044e-06
4.47956e-07
-3.14365e-06
3.94582e-07
-3.16088e-06
3.41039e-07
-3.03581e-06
2.88484e-07
-2.79289e-06
2.37981e-07
-2.46422e-06
1.90557e-07
1.47246e-07
8.16008e-07
1.08624e-07
1.49569e-06
3.07543e-07
1.9768e-06
4.73182e-07
2.24039e-06
6.04773e-07
2.28371e-06
7.04883e-07
2.11772e-06
7.7609e-07
1.76523e-06
8.20977e-07
1.25927e-06
8.42195e-07
6.41015e-07
8.42515e-07
-4.26161e-08
8.24846e-07
-7.42012e-07
7.92196e-07
-1.40833e-06
7.47583e-07
-1.99714e-06
6.93905e-07
-2.47194e-06
6.33823e-07
-2.807e-06
5.6967e-07
-2.98931e-06
5.03426e-07
-3.01921e-06
4.36754e-07
-2.90968e-06
3.71096e-07
-2.68428e-06
3.07779e-07
-2.37414e-06
2.48097e-07
1.93137e-07
8.381e-07
1.30274e-07
1.53844e-06
3.68877e-07
2.03891e-06
5.6768e-07
2.32123e-06
7.25829e-07
2.38312e-06
8.46448e-07
2.2357e-06
9.32649e-07
1.90169e-06
9.87525e-07
1.41375e-06
1.01422e-06
8.12469e-07
1.01602e-06
1.43996e-07
9.96344e-07
-5.4292e-07
9.58719e-07
-1.2003e-06
9.06686e-07
-1.78449e-06
8.43648e-07
-2.25955e-06
7.7273e-07
-2.60004e-06
6.96679e-07
-2.79286e-06
6.17833e-07
-2.83791e-06
5.38169e-07
-2.74732e-06
4.59407e-07
-2.54353e-06
3.83139e-07
-2.25633e-06
3.10929e-07
2.43843e-07
8.63829e-07
1.51809e-07
1.58826e-06
4.299e-07
2.11131e-06
6.61751e-07
2.41552e-06
8.46455e-07
2.49915e-06
9.87715e-07
2.37358e-06
1.08919e-06
2.06145e-06
1.15447e-06
1.59499e-06
1.1872e-06
1.01412e-06
1.19112e-06
3.64065e-07
1.17013e-06
-3.07455e-07
1.12826e-06
-9.53513e-07
1.06951e-06
-1.53141e-06
9.97757e-07
-2.00592e-06
9.16551e-07
-2.35199e-06
8.29028e-07
-2.55648e-06
7.37869e-07
-2.61879e-06
6.45353e-07
-2.55009e-06
5.53478e-07
-2.3715e-06
4.64102e-07
-2.11121e-06
3.79059e-07
2.99353e-07
8.93115e-07
1.73173e-07
1.64492e-06
4.90451e-07
2.19358e-06
7.5514e-07
2.52256e-06
9.66314e-07
2.63084e-06
1.12828e-06
2.5301e-06
1.24526e-06
2.24291e-06
1.32134e-06
1.80107e-06
1.36063e-06
1.24371e-06
1.36732e-06
6.15024e-07
1.34576e-06
-3.84525e-08
1.30039e-06
-6.71009e-07
1.23567e-06
-1.24105e-06
1.15588e-06
-1.71421e-06
1.06496e-06
-2.06589e-06
9.66414e-07
-2.28296e-06
8.63247e-07
-2.36427e-06
7.58033e-07
-2.31996e-06
6.53044e-07
-2.16967e-06
5.50406e-07
-1.9398e-06
4.52229e-07
3.59431e-07
9.25876e-07
1.94306e-07
1.70819e-06
5.50353e-07
2.28523e-06
8.47554e-07
2.6416e-06
1.08501e-06
2.7771e-06
1.26767e-06
2.70382e-06
1.4003e-06
2.44429e-06
1.48753e-06
2.02983e-06
1.53388e-06
1.49871e-06
1.54398e-06
8.93996e-07
1.52256e-06
2.60903e-07
1.47445e-06
-3.56212e-07
1.4045e-06
-9.1699e-07
1.31736e-06
-1.38802e-06
1.21733e-06
-1.74527e-06
1.10824e-06
-1.9756e-06
9.934e-07
-2.07733e-06
8.75678e-07
-2.05948e-06
7.57615e-07
-1.94011e-06
6.41608e-07
-1.74373e-06
5.30045e-07
4.23764e-07
9.62058e-07
2.15146e-07
1.77786e-06
6.09416e-07
2.38578e-06
9.38678e-07
2.77183e-06
1.2021e-06
2.93677e-06
1.40531e-06
2.89322e-06
1.55369e-06
2.66367e-06
1.65232e-06
2.27895e-06
1.70618e-06
1.77641e-06
1.72026e-06
1.19789e-06
1.69966e-06
5.87185e-07
1.64956e-06
-1.28159e-08
1.57512e-06
-5.63096e-07
1.48133e-06
-1.0313e-06
1.37281e-06
-1.39399e-06
1.25369e-06
-1.63809e-06
1.12757e-06
-1.76135e-06
9.97598e-07
-1.77165e-06
8.66588e-07
-1.6854e-06
7.37207e-07
-1.52513e-06
6.12118e-07
4.92098e-07
1.00165e-06
2.35633e-07
1.85377e-06
6.67457e-07
2.49479e-06
1.02819e-06
2.91242e-06
1.31712e-06
3.10866e-06
1.54063e-06
3.09669e-06
1.70469e-06
2.89904e-06
1.81489e-06
2.546e-06
1.87663e-06
2.07398e-06
1.89522e-06
1.5235e-06
1.87608e-06
9.36838e-07
1.82469e-06
3.55343e-07
1.7465e-06
-1.83398e-07
1.64677e-06
-6.48147e-07
1.5304e-06
-1.01613e-06
1.40182e-06
-1.27434e-06
1.26489e-06
-1.41998e-06
1.12304e-06
-1.45976e-06
9.79351e-07
-1.40841e-06
8.36752e-07
-1.28641e-06
6.98176e-07
5.64356e-07
1.04474e-06
2.55718e-07
1.93585e-06
7.24311e-07
2.61179e-06
1.11576e-06
3.06255e-06
1.42959e-06
3.29153e-06
1.67299e-06
3.3126e-06
1.85257e-06
3.14835e-06
1.9744e-06
2.82854e-06
2.04427e-06
2.38856e-06
2.06782e-06
1.86757e-06
2.05073e-06
1.30628e-06
1.99871e-06
7.44402e-07
1.91748e-06
2.18052e-07
1.81253e-06
-2.4271e-07
1.68902e-06
-6.15799e-07
1.55162e-06
-8.88328e-07
1.40447e-06
-1.05693e-06
1.25127e-06
-1.12717e-06
1.09536e-06
-1.11208e-06
9.39918e-07
-1.03008e-06
7.88141e-07
6.40718e-07
1.09154e-06
2.75367e-07
2.02421e-06
7.7985e-07
2.73642e-06
1.20112e-06
3.22138e-06
1.53904e-06
3.48411e-06
1.80177e-06
3.53928e-06
1.99655e-06
3.40954e-06
2.12995e-06
3.12411e-06
2.20812e-06
2.71732e-06
2.23699e-06
2.22691e-06
2.22246e-06
1.69198e-06
2.17045e-06
1.15058e-06
2.08687e-06
6.37297e-07
1.97745e-06
1.80983e-07
1.84755e-06
-1.97003e-07
1.70208e-06
-4.83896e-07
1.54544e-06
-6.75801e-07
1.3816e-06
-7.77124e-07
1.21415e-06
-7.99213e-07
1.04653e-06
-7.58419e-07
8.82145e-07
7.21632e-07
1.14248e-06
2.94577e-07
2.1192e-06
8.34011e-07
2.86833e-06
1.284e-06
3.38809e-06
1.64501e-06
3.68517e-06
1.92634e-06
3.77507e-06
2.13586e-06
3.68055e-06
2.28064e-06
3.43029e-06
2.36717e-06
3.05749e-06
2.40164e-06
2.59842e-06
2.39012e-06
2.09055e-06
2.3387e-06
1.57026e-06
2.25348e-06
1.07057e-06
2.14035e-06
6.19119e-07
2.00487e-06
2.3651e-07
1.85219e-06
-6.46286e-08
1.68696e-06
-2.7989e-07
1.51338e-06
-4.12539e-07
1.33535e-06
-4.72256e-07
1.15652e-06
-4.7334e-07
9.8049e-07
8.07773e-07
1.19386e-06
2.21894e-06
3.0082e-06
1.36431e-06
3.5627e-06
1.74807e-06
3.89444e-06
2.0472e-06
4.01948e-06
2.27099e-06
3.96072e-06
2.42693e-06
3.74627e-06
2.52187e-06
3.40811e-06
2.5622e-06
2.981e-06
2.55411e-06
2.50078e-06
2.50386e-06
2.00216e-06
2.41768e-06
1.51658e-06
2.30162e-06
1.07042e-06
2.16143e-06
6.83553e-07
2.00247e-06
3.68443e-07
1.82963e-06
1.29998e-07
1.6474e-06
-3.39226e-08
1.45993e-06
-1.31348e-07
1.27112e-06
-1.74556e-07
1.08472e-06
9.01049e-07
3.27488e-06
3.89149e-06
1.84861e-06
4.27185e-06
2.16605e-06
4.43872e-06
2.40363e-06
4.41556e-06
2.57061e-06
4.23098e-06
2.6741e-06
3.91676e-06
2.72066e-06
3.50729e-06
2.7165e-06
3.03815e-06
2.66802e-06
2.54363e-06
2.58162e-06
2.05474e-06
2.46349e-06
1.59758e-06
2.31953e-06
1.19195e-06
2.15531e-06
8.50674e-07
1.97598e-06
5.79348e-07
1.78631e-06
3.7692e-07
1.59074e-06
2.36763e-07
1.39345e-06
1.48214e-07
1.19832e-06
1.0054e-06
4.19173e-06
4.62423e-06
2.28161e-06
4.83304e-06
2.534e-06
4.84898e-06
2.7117e-06
4.70012e-06
2.82394e-06
4.41719e-06
2.87717e-06
4.03347e-06
2.87753e-06
3.58395e-06
2.83151e-06
3.102e-06
2.74575e-06
2.61767e-06
2.62655e-06
2.15635e-06
2.47996e-06
1.73756e-06
2.31173e-06
1.37427e-06
2.12728e-06
1.07278e-06
1.93168e-06
8.33217e-07
1.7297e-06
6.50553e-07
1.52581e-06
5.16023e-07
1.32417e-06
1.12451e-06
5.00215e-06
5.26171e-06
2.6598e-06
5.31847e-06
2.8497e-06
5.20849e-06
2.97065e-06
4.95971e-06
3.03116e-06
4.60381e-06
3.03666e-06
4.17579e-06
2.99385e-06
3.70806e-06
2.90972e-06
3.22962e-06
2.79064e-06
2.76516e-06
2.64274e-06
2.33391e-06
2.47198e-06
1.94908e-06
2.28403e-06
1.6177e-06
2.08429e-06
1.34117e-06
1.87783e-06
1.11615e-06
1.66953e-06
9.35915e-07
1.46405e-06
1.26153e-06
5.72044e-06
5.82732e-06
2.98223e-06
5.75904e-06
3.11423e-06
5.54776e-06
3.1826e-06
5.22139e-06
3.19392e-06
4.81686e-06
3.15502e-06
4.36531e-06
3.07366e-06
3.89446e-06
2.95603e-06
3.42838e-06
2.80832e-06
2.98605e-06
2.63666e-06
2.581e-06
2.447e-06
2.22111e-06
2.24501e-06
1.90904e-06
2.03609e-06
1.64322e-06
1.82543e-06
1.41904e-06
1.61825e-06
1.41551e-06
6.37034e-06
6.3568e-06
3.25198e-06
6.1864e-06
3.33212e-06
5.89017e-06
3.34948e-06
5.51155e-06
3.31495e-06
5.07872e-06
3.23768e-06
4.61771e-06
3.12302e-06
4.1522e-06
2.97709e-06
3.70096e-06
2.80627e-06
3.278e-06
2.61673e-06
2.89209e-06
2.41444e-06
2.54721e-06
2.205e-06
2.24349e-06
1.99372e-06
1.97826e-06
1.78575e-06
1.58121e-06
6.98667e-06
6.87445e-06
6.61612e-06
3.50133e-06
6.26528e-06
3.47417e-06
5.85473e-06
3.40215e-06
5.40635e-06
3.29211e-06
4.94439e-06
3.14959e-06
4.4871e-06
2.9813e-06
4.0494e-06
2.79363e-06
3.64099e-06
2.59292e-06
3.26713e-06
2.38482e-06
2.92956e-06
2.17458e-06
2.62739e-06
1.96701e-06
1.76075e-06
7.39567e-06
7.08572e-06
3.62915e-06
6.70146e-06
3.56788e-06
6.26859e-06
3.46371e-06
5.81418e-06
3.32609e-06
5.35413e-06
3.16196e-06
4.9056e-06
2.97767e-06
4.47904e-06
2.78029e-06
4.08083e-06
2.57535e-06
3.71432e-06
2.36795e-06
3.38046e-06
2.16279e-06
1.95797e-06
7.95849e-06
7.61917e-06
7.21362e-06
3.63491e-06
6.77093e-06
3.50709e-06
6.31103e-06
3.34774e-06
5.85663e-06
3.16781e-06
5.41742e-06
2.9756e-06
5.00058e-06
2.77569e-06
4.61118e-06
2.57303e-06
4.252e-06
2.37231e-06
2.17118e-06
8.22927e-06
7.81768e-06
7.36748e-06
3.53549e-06
6.91211e-06
3.36317e-06
6.46749e-06
3.17735e-06
6.0391e-06
2.98434e-06
5.63426e-06
2.78814e-06
5.25733e-06
2.59365e-06
2.39803e-06
8.52429e-06
8.08378e-06
3.55777e-06
7.64197e-06
3.38441e-06
7.20959e-06
3.1994e-06
6.79797e-06
3.01082e-06
6.41138e-06
2.82385e-06
2.63481e-06
9.36407e-06
8.9486e-06
8.52734e-06
3.41646e-06
8.117e-06
3.23906e-06
7.72796e-06
3.05917e-06
2.87663e-06
9.98726e-06
9.60057e-06
9.2217e-06
3.29343e-06
3.11866e-06
1.08851e-05
)
;

boundaryField
{
    inlet
    {
        type            calculated;
        value           uniform 0;
    }
    outlet
    {
        type            calculated;
        value           nonuniform 0();
    }
    flap
    {
        type            calculated;
        value           nonuniform 0();
    }
    upperWall
    {
        type            calculated;
        value           nonuniform 0();
    }
    lowerWall
    {
        type            calculated;
        value           uniform 0;
    }
    frontAndBack
    {
        type            empty;
        value           nonuniform 0();
    }
    procBoundary3to0
    {
        type            processor;
        value           nonuniform List<scalar> 
34
(
3.12378e-07
8.854e-07
-2.40249e-06
1.43981e-06
-3.50154e-06
1.94201e-06
-4.49425e-06
2.38728e-06
-5.38368e-06
2.77335e-06
-6.18479e-06
3.09999e-06
-6.9182e-06
3.36845e-06
3.46986e-06
-7.5861e-06
3.6363e-06
-8.19652e-06
3.75939e-06
3.72213e-06
-8.57851e-06
3.78252e-06
3.6795e-06
-8.93292e-06
3.70695e-06
-9.75361e-06
3.72621e-06
3.58212e-06
-1.03643e-05
3.6077e-06
3.45696e-06
-1.12256e-05
3.49676e-06
3.34021e-06
)
;
    }
    procBoundary3to1
    {
        type            processor;
        value           nonuniform List<scalar> 9(1.74454e-06 2.35242e-06 3.0696e-06 3.91206e-06 4.89584e-06 6.03618e-06 7.34686e-06 8.84024e-06 1.05171e-05);
    }
    procBoundary3to4
    {
        type            processor;
        value           nonuniform List<scalar> 
19
(
-2.11714e-06
-2.11873e-06
-2.0977e-06
-2.04937e-06
-1.97843e-06
-1.88466e-06
-1.76818e-06
-1.62962e-06
-1.47017e-06
-1.29143e-06
-1.09529e-06
-8.83611e-07
-6.58059e-07
-4.19849e-07
-1.68169e-07
1.06042e-07
4.23858e-07
7.94246e-07
1.23002e-06
)
;
    }
}


// ************************************************************************* //
