/*--------------------------------*- C++ -*----------------------------------*\
| =========                 |                                                 |
| \\      /  F ield         | OpenFOAM: The Open Source CFD Toolbox           |
|  \\    /   O peration     | Version:  dev                                   |
|   \\  /    A nd           | Web:      www.OpenFOAM.org                      |
|    \\/     M anipulation  |                                                 |
\*---------------------------------------------------------------------------*/
FoamFile
{
    version     2.0;
    format      ascii;
    class       volScalarField;
    location    "0.16";
    object      p;
}
// * * * * * * * * * * * * * * * * * * * * * * * * * * * * * * * * * * * * * //

dimensions      [0 2 -2 0 0 0 0];

internalField   nonuniform List<scalar> 
465
(
68.8882
68.7729
68.9866
69.5036
70.2273
71.1169
72.1688
73.3839
74.7592
76.2891
77.9674
79.7874
81.7411
83.819
86.0096
88.2993
90.6715
93.1061
95.5786
98.0599
100.516
68.6997
68.6833
68.9216
69.437
70.1576
71.0446
72.0925
73.3024
74.6715
76.1945
77.8655
79.6778
81.6237
83.6936
85.8766
88.1593
90.5254
92.9554
95.4257
97.9077
100.368
68.5087
68.5632
68.821
69.3273
70.0358
70.9108
71.945
73.1386
74.489
75.9913
77.6397
79.4276
81.3473
83.3898
85.5441
87.7974
90.1341
92.5358
94.9801
97.4401
99.8844
68.297
68.3842
68.6545
69.1523
69.8468
70.7065
71.7225
72.8942
74.2189
75.692
77.3075
79.059
80.9389
82.9383
85.0466
87.2515
89.5386
91.8905
94.2866
96.7023
99.1084
68.0542
68.1562
68.4351
68.9258
69.6047
70.4447
71.4368
72.5795
73.8702
75.3042
76.8757
78.578
80.4037
82.3439
84.3885
86.526
88.7427
91.0228
93.3477
95.695
98.0387
67.7758
67.884
68.1656
68.647
69.3072
70.1225
71.0848
72.192
73.4412
74.8274
76.3446
77.9862
79.7444
81.6105
83.5748
85.626
87.7517
89.9374
92.1663
94.4188
96.672
67.4601
67.5695
67.8486
68.3178
68.9562
69.7428
70.6702
71.7358
72.9362
74.2661
75.7194
77.2888
78.9666
80.744
82.6112
84.5575
86.5711
88.6387
90.7452
92.8735
95.0035
67.1064
67.2142
67.4866
67.9403
68.554
69.3081
70.1956
71.2137
72.3584
73.6241
75.004
76.4907
78.0758
79.7503
81.5042
83.327
85.2071
87.132
89.088
91.0594
93.029
66.7154
66.8195
67.0819
67.517
68.103
68.8208
69.6639
70.629
71.7117
72.9057
74.2037
75.5976
77.0784
78.6366
80.2617
81.9427
83.668
85.4252
87.2008
88.98
90.747
66.288
66.387
66.6368
67.0506
67.6059
68.284
69.0784
69.9857
71.0005
72.1161
73.3243
74.6162
75.9821
77.4115
78.8932
80.4151
81.965
83.5294
85.094
86.6434
88.1613
65.8258
65.9185
66.1537
66.5435
67.0656
67.7009
68.443
69.2879
70.2297
71.2607
72.3722
73.554
74.7956
76.085
77.4099
78.7569
80.1118
81.4594
82.783
84.0646
85.2845
65.3304
65.4162
65.6349
65.9987
66.485
67.0749
67.7613
68.54
69.4044
70.3458
71.3544
72.4193
73.5282
74.6681
75.8247
76.9827
78.1254
79.2345
80.2893
81.2664
82.1398
64.8039
64.8821
65.083
65.419
65.8676
66.4095
67.0376
67.7469
68.5301
69.3777
70.2786
71.2208
72.1906
73.1731
74.1521
75.1097
76.0259
76.8783
77.6405
78.2814
78.7644
64.2484
64.3186
64.5007
64.8074
65.2165
65.7087
66.2762
66.9136
67.6127
68.3631
69.1527
69.9679
70.7937
71.6132
72.4078
73.1567
73.8363
74.4187
74.8708
75.1517
75.2106
63.6665
63.7282
63.8907
64.1669
64.5352
64.9761
65.4815
66.045
66.658
67.3089
67.9846
68.6701
69.3488
70.0018
70.6082
71.1439
71.5811
71.8865
72.0193
71.9277
71.5446
63.2436
63.4879
63.8137
64.2014
64.6423
65.1296
65.6536
66.202
66.7606
67.3129
67.8408
68.3234
68.7371
69.055
69.2449
69.2682
69.076
68.606
67.7749
62.7632
63.0447
63.377
63.751
64.1591
64.5912
65.0339
65.4719
65.8876
66.2611
66.5698
66.7877
66.8849
66.8256
66.5659
66.0506
65.2078
63.942
62.2347
62.5101
62.8154
63.1428
63.4811
63.8164
64.1323
64.4101
64.6285
64.7633
64.7865
64.6658
64.3623
63.8285
63.0045
61.813
60.1519
61.6037
61.8395
62.0852
62.3291
62.5566
62.7504
62.891
62.956
62.9199
62.7534
62.4223
61.886
61.0952
59.988
58.4861
56.4882
60.8274
60.9913
61.1411
61.2616
61.335
61.3412
61.2569
61.0559
60.7082
60.179
59.4272
58.4034
57.047
55.2828
53.0166
59.8665
59.9236
59.9393
59.8955
59.7717
59.5445
59.1875
58.6706
57.9594
57.0137
55.7861
54.2196
52.2457
49.7813
58.5979
58.4416
58.1942
57.8326
57.3307
56.6592
55.7851
54.6704
53.2712
51.5361
49.4052
46.8085
56.9833
56.6202
56.1344
55.5007
54.6914
53.6757
52.4186
50.8811
49.0186
46.7807
44.111
54.4625
53.7116
52.7826
51.6474
50.2752
48.6322
46.6811
44.3814
41.6896
50.9458
49.7136
48.2528
46.5351
44.5307
42.2083
39.536
47.8841
46.3596
44.5954
42.5684
40.2559
37.6359
42.814
40.7905
38.5139
35.9705
36.9689
34.5193
)
;

boundaryField
{
    inlet
    {
        type            zeroGradient;
    }
    outlet
    {
        type            fixedValue;
        value           nonuniform 0();
    }
    flap
    {
        type            zeroGradient;
    }
    upperWall
    {
        type            zeroGradient;
    }
    lowerWall
    {
        type            zeroGradient;
    }
    frontAndBack
    {
        type            empty;
    }
    procBoundary3to0
    {
        type            processor;
        value           nonuniform List<scalar> 
34
(
63.0488
63.1018
63.1018
62.5523
62.5523
61.9989
61.9989
61.3862
61.3862
60.6613
60.6613
59.7835
59.7835
58.7168
58.6836
58.6836
57.2461
57.2461
55.5305
55.0609
55.0609
52.8285
51.9758
51.9758
49.1915
49.1915
46.1656
44.6001
44.6001
41.1885
39.1896
39.1896
35.6053
33.2605
)
;
    }
    procBoundary3to1
    {
        type            processor;
        value           nonuniform List<scalar> 9(50.1304 46.7266 43.6656 40.9477 38.5605 36.4828 34.6887 33.1496 31.8368);
    }
    procBoundary3to4
    {
        type            processor;
        value           nonuniform List<scalar> 
19
(
102.907
102.768
102.276
101.471
100.348
98.8989
97.1124
94.9774
92.4846
89.6308
86.4222
82.8801
79.0454
74.9828
70.781
66.4696
62.1215
57.8826
53.8615
)
;
    }
}


// ************************************************************************* //
