/*--------------------------------*- C++ -*----------------------------------*\
| =========                 |                                                 |
| \\      /  F ield         | OpenFOAM: The Open Source CFD Toolbox           |
|  \\    /   O peration     | Version:  dev                                   |
|   \\  /    A nd           | Web:      www.OpenFOAM.org                      |
|    \\/     M anipulation  |                                                 |
\*---------------------------------------------------------------------------*/
FoamFile
{
    version     2.0;
    format      ascii;
    class       volVectorField;
    location    "0.63";
    object      Force;
}
// * * * * * * * * * * * * * * * * * * * * * * * * * * * * * * * * * * * * * //

dimensions      [1 1 -2 0 0 0 0];

internalField   uniform (0 0 0);

boundaryField
{
    inlet
    {
        type            calculated;
        value           nonuniform 0();
    }
    outlet
    {
        type            calculated;
        value           nonuniform 0();
    }
    flap
    {
        type            calculated;
        value           nonuniform List<vector> 
33
(
(3.59197 1.99219e-17 -0.302255)
(3.47464 4.49888e-18 -0.61626)
(3.36192 -2.45585e-21 -0.836375)
(3.25873 -2.73203e-22 -0.942645)
(3.18028 -4.00963e-21 -0.957304)
(3.12218 1.574e-17 -0.895881)
(3.08211 -4.84891e-38 -0.769656)
(3.06347 4.70198e-38 -0.600468)
(3.05239 -4.34358e-18 -0.420201)
(3.03061 -2.13844e-18 -0.255149)
(2.98374 1.50041e-17 -0.11333)
(2.89844 -6.28089e-20 -0.0043724)
(2.74575 1.57178e-17 0.061182)
(2.45974 1.60978e-17 0.085341)
(1.87134 -3.04561e-22 0.070881)
(-0.0155742 3.2989e-22 0.638231)
(-0.0187083 5.0746e-23 0.460331)
(-0.006219 -1.08347e-22 0.213026)
(-0.380118 1.27465e-17 0.0322043)
(-0.389245 5.71279e-19 0.0704208)
(-0.393421 5.1476e-22 0.0992138)
(-0.38891 2.7235e-23 0.113754)
(-0.366932 -6.36316e-23 0.112056)
(-0.319903 1.32985e-21 0.0940505)
(-0.242933 -6.56695e-19 0.0636227)
(-0.139006 -1.84649e-19 0.0309326)
(-0.0261169 1.79201e-17 0.00769993)
(0.0705728 -4.61658e-20 -0.00172626)
(0.132099 -6.27118e-25 -0.000871203)
(0.152076 1.7221e-17 0.00368554)
(0.135035 -2.05933e-23 0.00667805)
(0.09247 1.6526e-17 0.00650312)
(0.0371709 -4.64512e-24 0.00402537)
)
;
    }
    upperWall
    {
        type            calculated;
        value           nonuniform 0();
    }
    lowerWall
    {
        type            calculated;
        value           uniform (0 0 0);
    }
    frontAndBack
    {
        type            empty;
    }
    procBoundary4to1
    {
        type            processor;
        value           uniform (0 0 0);
    }
    procBoundary4to2
    {
        type            processor;
        value           uniform (0 0 0);
    }
    procBoundary4to3
    {
        type            processor;
        value           uniform (0 0 0);
    }
    procBoundary4to5
    {
        type            processor;
        value           uniform (0 0 0);
    }
}


// ************************************************************************* //
