/*--------------------------------*- C++ -*----------------------------------*\
| =========                 |                                                 |
| \\      /  F ield         | OpenFOAM: The Open Source CFD Toolbox           |
|  \\    /   O peration     | Version:  dev                                   |
|   \\  /    A nd           | Web:      www.OpenFOAM.org                      |
|    \\/     M anipulation  |                                                 |
\*---------------------------------------------------------------------------*/
FoamFile
{
    version     2.0;
    format      ascii;
    class       surfaceScalarField;
    location    "5";
    object      meshPhi;
}
// * * * * * * * * * * * * * * * * * * * * * * * * * * * * * * * * * * * * * //

dimensions      [0 3 -1 0 0 0 0];

internalField   nonuniform List<scalar> 
865
(
2.01447e-06
-3.83503e-07
2.74478e-06
-3.64913e-07
2.60951e-06
-3.04718e-07
2.02394e-06
-2.2936e-07
1.30968e-06
-1.54073e-07
6.82174e-07
-8.96098e-08
2.55335e-07
-4.22973e-08
5.46816e-08
-1.43767e-08
-2.63955e-09
2.06168e-06
-7.42834e-07
2.77775e-06
-7.10272e-07
2.63162e-06
-5.93275e-07
2.03612e-06
-4.46499e-07
1.31425e-06
-2.99565e-07
6.82394e-07
-1.73749e-07
2.5433e-07
-8.16275e-08
5.40511e-08
-2.75546e-08
-4.96137e-09
1.88121e-06
-1.03253e-06
2.64358e-06
-9.99212e-07
2.53756e-06
-8.37527e-07
1.97403e-06
-6.31159e-07
1.27598e-06
-4.23148e-07
6.61228e-07
-2.44548e-07
2.44834e-07
-1.14028e-07
5.10106e-08
-3.80806e-08
-6.68485e-09
1.40316e-06
-1.20814e-06
2.28822e-06
-1.1962e-06
2.28679e-06
-1.01111e-06
1.80875e-06
-7.64696e-07
1.17585e-06
-5.12723e-07
6.07391e-07
-2.94995e-07
2.21525e-07
-1.35885e-07
4.36977e-08
-4.43016e-08
-7.38318e-09
6.43735e-07
-1.22785e-06
1.71359e-06
-1.26743e-06
1.87243e-06
-1.08812e-06
1.53033e-06
-8.28627e-07
1.00594e-06
-5.56808e-07
5.15669e-07
-3.19402e-07
1.80626e-07
-1.44823e-07
2.98079e-08
-4.50149e-08
-6.63829e-09
-4.56102e-07
-1.04976e-06
8.65652e-07
-1.17888e-06
1.24597e-06
-1.04145e-06
1.0978e-06
-8.01616e-07
7.38643e-07
-5.40106e-07
3.73598e-07
-3.09729e-07
1.18329e-07
-1.38834e-07
7.70738e-09
-4.04692e-08
-4.53496e-09
-1.97686e-06
-6.32171e-07
-3.24754e-07
-8.97659e-07
3.50705e-07
-8.46689e-07
4.61976e-07
-6.64379e-07
3.33249e-07
-4.46154e-07
1.57906e-07
-2.54028e-07
2.88499e-08
-1.13385e-07
-2.22783e-08
-3.10746e-08
-1.62827e-09
-4.02122e-06
6.93069e-08
-1.94583e-06
-3.8812e-07
-8.8092e-07
-4.80043e-07
-4.26191e-07
-4.02503e-07
-2.51966e-07
-2.63871e-07
-1.63343e-07
-1.40763e-07
-1.00237e-07
-5.98525e-08
-5.90298e-08
-1.44431e-08
1.8488e-09
-6.71453e-06
1.0979e-06
-4.10594e-06
3.90135e-07
-2.53107e-06
8.88804e-08
-1.61715e-06
-1.04999e-09
-1.04689e-06
1.06981e-08
-6.14702e-07
3.37941e-08
-2.83744e-07
2.93559e-08
-1.01673e-07
1.44851e-08
6.61712e-09
-1.01877e-05
2.49293e-06
-6.92588e-06
1.47566e-06
-4.69582e-06
8.973e-07
-3.16875e-06
5.65414e-07
-2.06871e-06
3.84757e-07
-1.19475e-06
2.65776e-07
-5.22714e-07
1.53076e-07
-1.47072e-07
5.87916e-08
1.38089e-08
-1.45499e-05
4.2883e-06
-1.05055e-05
2.89906e-06
-7.46358e-06
1.97786e-06
-5.13965e-06
1.3316e-06
-3.32594e-06
8.79935e-07
-1.87378e-06
5.55398e-07
-7.91024e-07
3.0275e-07
-1.82439e-07
1.14941e-07
2.31054e-08
-1.98706e-05
6.50438e-06
-1.48899e-05
4.67958e-06
-1.08666e-05
3.34707e-06
-7.54879e-06
2.32056e-06
-4.80453e-06
1.52288e-06
-2.60055e-06
9.15812e-07
-1.02878e-06
4.71811e-07
-1.74965e-07
1.72909e-07
3.13084e-08
-2.61425e-05
9.14574e-06
-2.00443e-05
6.81864e-06
-1.48386e-05
4.99959e-06
-1.0317e-05
3.52522e-06
-6.41835e-06
2.31624e-06
-3.27401e-06
1.35485e-06
-1.12927e-06
6.57041e-07
-6.84121e-08
2.24946e-07
3.57288e-08
-3.32402e-05
1.21882e-05
-2.58179e-05
9.29423e-06
-1.91915e-05
6.90502e-06
-1.32235e-05
4.90113e-06
-7.94417e-06
3.21212e-06
-3.69289e-06
1.84156e-06
-9.3771e-07
8.51068e-07
1.99963e-07
2.86058e-07
4.57581e-08
-4.09228e-05
1.55894e-05
-3.19442e-05
1.20719e-05
-2.36227e-05
9.02137e-06
-1.59253e-05
6.38619e-06
-9.04783e-06
4.131e-06
-3.59919e-06
2.30297e-06
-3.10455e-07
1.02121e-06
7.00162e-07
3.86031e-07
7.24318e-08
8.83107e-07
-6.81165e-09
5.46129e-06
-4.49138e-08
2.09149e-05
-1.56523e-07
5.39712e-05
-3.04864e-07
0.000102317
-3.1985e-07
0.000153184
-1.90846e-08
0.000194677
6.91837e-07
0.000224461
1.61098e-06
0.000246984
2.45869e-06
3.1824e-06
9.48088e-07
-1.55917e-08
5.8563e-06
-9.42014e-08
2.20532e-05
-3.08361e-07
5.58128e-05
-5.65251e-07
0.00010389
-5.03839e-07
0.000153313
1.82714e-07
0.00019309
1.56242e-06
0.000221658
3.28063e-06
0.000243409
4.90346e-06
6.13534e-06
1.03725e-06
-2.604e-08
6.37878e-06
-1.47203e-07
2.33418e-05
-4.52299e-07
5.70969e-05
-7.55057e-07
0.000103052
-5.25583e-07
0.000148721
6.23479e-07
0.0001851
2.59351e-06
0.000211765
4.92563e-06
0.000232873
7.1295e-06
8.6697e-06
1.12924e-06
-3.61411e-08
6.91134e-06
-1.98699e-07
2.43169e-05
-5.57139e-07
5.68344e-05
-8.00696e-07
9.86231e-05
-3.27208e-07
0.000138722
1.25846e-06
0.000170767
3.7361e-06
0.000195355
6.50821e-06
0.000216111
9.01821e-06
1.06755e-05
1.23292e-06
-4.87172e-08
7.45185e-06
-2.514e-07
2.48891e-05
-6.07451e-07
5.50489e-05
-6.66514e-07
9.13693e-05
1.4652e-07
0.00012516
2.09921e-06
0.000152759
4.89816e-06
0.000175407
7.8644e-06
0.000195891
1.04236e-05
1.19974e-05
1.36072e-06
-6.57714e-08
7.93413e-06
-2.98688e-07
2.47706e-05
-5.76659e-07
5.14428e-05
-3.28737e-07
8.16289e-05
9.01499e-07
0.000109326
3.12394e-06
0.00013302
5.94689e-06
0.000154067
8.79949e-06
0.000174346
1.11987e-05
1.25272e-05
1.50456e-06
-8.32307e-08
8.19706e-06
-3.07036e-07
2.36337e-05
-4.09655e-07
4.60061e-05
1.92233e-07
7.02145e-05
1.75908e-06
9.28055e-05
4.07032e-06
0.000113469
6.70957e-06
0.00013327
9.25179e-06
0.000153383
1.13123e-05
1.22806e-05
1.62622e-06
-9.39092e-08
8.02847e-06
-2.44547e-07
2.1345e-05
-9.62953e-08
3.92969e-05
7.98966e-07
5.84259e-05
2.49926e-06
7.71196e-05
4.69899e-06
9.55546e-05
7.04394e-06
0.000114406
9.18417e-06
0.000134332
1.07899e-05
1.13035e-05
1.67516e-06
-9.121e-08
7.35961e-06
-1.23018e-07
1.81997e-05
2.66596e-07
3.22472e-05
1.32514e-06
4.75061e-05
2.97349e-06
6.33967e-05
4.92453e-06
8.02105e-05
6.88899e-06
9.83038e-05
8.58085e-06
0.000117985
9.69468e-06
9.66277e-06
1.61426e-06
-7.16946e-08
6.32304e-06
2.48193e-08
1.4792e-05
5.67158e-07
2.57704e-05
1.63882e-06
3.82897e-05
3.11758e-06
5.22517e-05
4.76457e-06
6.78658e-05
6.32278e-06
8.52923e-05
7.53807e-06
0.000104701
8.09788e-06
7.43061e-06
1.43407e-06
-3.62058e-08
5.12893e-06
1.68682e-07
1.16802e-05
7.47918e-07
2.04811e-05
1.71145e-06
3.11456e-05
2.96245e-06
4.3774e-05
4.29852e-06
5.84915e-05
5.45281e-06
7.53706e-05
6.14978e-06
9.45253e-05
6.06229e-06
4.67711e-06
1.15676e-06
1.03917e-08
3.99047e-06
2.81976e-07
9.2157e-06
8.01928e-07
1.66159e-05
1.59632e-06
2.6082e-05
2.59562e-06
3.78005e-05
3.59639e-06
5.18765e-05
4.30962e-06
6.83593e-05
4.42932e-06
8.73e-05
3.62594e-06
1.45577e-06
8.40195e-07
5.93653e-08
3.10504e-06
3.48597e-07
7.55405e-06
7.62377e-07
1.41629e-05
1.37391e-06
2.29532e-05
2.09482e-06
3.41237e-05
2.70304e-06
4.7785e-05
2.90307e-06
6.40025e-05
2.3769e-06
8.27908e-05
8.03607e-07
-2.20253e-06
5.95112e-07
9.30416e-08
2.65361e-06
3.72127e-07
6.80513e-06
6.59334e-07
1.30918e-05
1.08428e-06
2.1607e-05
1.48125e-06
3.25243e-05
1.62398e-06
4.59791e-05
1.22859e-06
6.20627e-05
-1.0903e-08
8.07759e-05
-2.39216e-06
-6.26149e-06
7.08459e-07
1.76479e-08
2.96827e-06
4.01269e-07
7.1737e-06
5.39629e-07
1.34457e-05
7.03483e-07
2.19421e-05
6.9444e-07
3.28293e-05
2.90343e-07
4.62612e-05
-7.76319e-07
6.23403e-05
-2.78591e-06
8.1034e-05
-6.00119e-06
-5.07651e-05
1.92944e-05
-3.95657e-05
1.50968e-05
-2.88591e-05
1.12881e-05
-1.87877e-05
7.91381e-06
-9.83692e-06
5.00496e-06
-2.96431e-06
2.6777e-06
8.89795e-07
1.10079e-06
1.81259e-06
3.49085e-07
1.50386e-07
8.11727e-07
-6.03277e-05
2.31678e-05
-4.6666e-05
1.8245e-05
-3.33289e-05
1.35933e-05
-2.0734e-05
9.40719e-06
-9.73871e-06
5.80297e-06
-1.56242e-06
2.9637e-06
2.91202e-06
1.05329e-06
4.12195e-06
5.59858e-08
-3.52263e-07
3.69513e-06
-6.97304e-05
2.70436e-05
-5.32363e-05
2.13791e-05
-3.70693e-05
1.58288e-05
-2.18951e-05
1.08196e-05
-8.94173e-06
6.53021e-06
5.51829e-07
3.18235e-06
5.98508e-06
8.95523e-07
8.05537e-06
-3.99314e-07
-1.05345e-06
8.37437e-06
-7.81026e-05
-5.89796e-05
2.42573e-05
-3.99587e-05
1.79403e-05
-2.22942e-05
1.21251e-05
-7.51215e-06
7.18101e-06
3.43764e-06
3.32338e-06
1.02961e-05
6.00736e-07
1.39096e-05
-1.09272e-06
-2.11757e-06
1.56449e-05
-6.26717e-05
-4.16297e-05
-2.19245e-05
1.31763e-05
-5.35136e-06
7.70777e-06
7.27703e-06
3.31302e-06
1.59433e-05
9.00504e-08
2.15259e-05
-2.08683e-06
-3.56562e-06
2.50055e-05
-2.00216e-05
-2.01129e-06
1.23698e-05
2.96201e-06
2.30401e-05
-7.60333e-07
3.07458e-05
-3.48316e-06
-5.46783e-06
3.60866e-05
1.92209e-05
3.18193e-05
4.16109e-05
-5.42711e-06
-7.9378e-06
4.87998e-05
5.41232e-05
6.32808e-05
6.68668e-07
1.64027e-07
6.738e-07
1.51008e-07
1.54037e-07
8.75218e-07
3.22006e-06
-7.4697e-08
3.13022e-06
-8.33063e-08
-1.21781e-08
3.34316e-06
8.36794e-06
-4.54846e-07
8.4687e-06
-5.68152e-07
-4.73205e-07
8.76953e-06
1.6513e-05
-1.06632e-06
1.69643e-05
-1.30609e-06
-1.23629e-06
1.73737e-05
2.69787e-05
-1.9134e-06
2.80133e-05
-2.29621e-06
-2.29757e-06
2.87525e-05
3.92524e-05
-3.02281e-06
4.10286e-05
-3.56248e-06
-3.6706e-06
4.23693e-05
5.3145e-05
-4.44446e-06
5.57276e-05
-5.14883e-06
-5.38352e-06
5.7875e-05
6.88874e-05
7.22087e-05
-7.09461e-06
-7.45565e-06
7.52085e-05
8.98518e-05
9.39709e-05
1.82511e-06
2.62187e-07
4.58393e-06
2.78565e-07
9.2113e-06
2.31413e-07
1.59239e-05
4.56311e-08
2.49147e-05
-4.46371e-07
3.63634e-05
-1.46429e-06
5.04375e-05
-3.26364e-06
6.72539e-05
-6.10814e-06
-1.02356e-05
4.70743e-06
-2.20569e-07
7.93287e-06
-3.0753e-07
1.30488e-05
-5.94988e-07
2.02479e-05
-1.15568e-06
2.97277e-05
-2.16212e-06
4.16854e-05
-3.82479e-06
5.62992e-05
-6.38232e-06
7.37036e-05
-1.00846e-05
-1.51238e-05
1.03065e-05
-1.33051e-06
1.38692e-05
-1.53578e-06
1.94091e-05
-2.10601e-06
2.70756e-05
-3.07948e-06
3.70477e-05
-4.62266e-06
4.9525e-05
-6.93432e-06
6.4679e-05
-1.02331e-05
8.26389e-05
-1.47436e-05
-2.05773e-05
1.89823e-05
-3.11956e-06
2.27527e-05
-3.52696e-06
2.86252e-05
-4.43793e-06
3.66943e-05
-5.85636e-06
4.71145e-05
-7.94522e-06
6.00659e-05
-1.08881e-05
7.56941e-05
-1.48806e-05
9.40961e-05
-2.01177e-05
-2.66292e-05
3.05891e-05
-5.58986e-06
3.4612e-05
-6.31205e-06
4.07946e-05
-7.63844e-06
4.92172e-05
-9.53577e-06
6.00319e-05
-1.21687e-05
7.33869e-05
-1.57106e-05
8.93857e-05
-2.03307e-05
0.000108086
-2.61933e-05
-3.32519e-05
4.47414e-05
-8.74888e-06
4.92056e-05
-9.88266e-06
5.57752e-05
-1.16879e-05
6.45689e-05
-1.40953e-05
7.57501e-05
-1.72635e-05
8.94353e-05
-2.1359e-05
0.000105684
-2.65276e-05
0.000124521
-3.29037e-05
-4.03736e-05
6.1077e-05
-1.26161e-05
6.62242e-05
-1.42205e-05
7.3324e-05
-1.65393e-05
8.25568e-05
-1.94693e-05
9.40938e-05
-2.31507e-05
0.000108031
-2.77368e-05
0.000124401
-3.33631e-05
0.000143198
-4.01359e-05
-4.78821e-05
7.93945e-05
-1.71917e-05
8.54078e-05
-1.92815e-05
9.32002e-05
-2.21198e-05
0.000102938
-2.55608e-05
0.000114804
-2.97139e-05
0.000128907
-3.47176e-05
0.000145263
-4.07015e-05
0.000163832
-4.77505e-05
-5.56417e-05
9.94783e-05
0.000106581
-2.49445e-05
0.000115221
-2.83341e-05
0.000125495
-3.22681e-05
0.00013762
-3.6836e-05
0.000151785
-4.2175e-05
0.00016796
-4.84075e-05
0.000186103
-5.56063e-05
-6.35161e-05
0.000129038
0.00013894
0.000150038
0.000162426
-4.44104e-05
0.000176462
-5.00275e-05
0.000192231
-5.63784e-05
0.000209731
-6.35911e-05
-7.13938e-05
0.000188607
0.000202721
0.000217995
-6.45214e-05
0.000234566
-7.16702e-05
-7.92082e-05
0.000244692
0.000260492
-8.6895e-05
)
;

boundaryField
{
    inlet
    {
        type            calculated;
        value           nonuniform 0();
    }
    outlet
    {
        type            calculated;
        value           nonuniform 0();
    }
    flap
    {
        type            calculated;
        value           uniform 0;
    }
    upperWall
    {
        type            calculated;
        value           nonuniform 0();
    }
    lowerWall
    {
        type            calculated;
        value           uniform 0;
    }
    frontAndBack
    {
        type            empty;
        value           nonuniform 0();
    }
    procBoundary4to1
    {
        type            processor;
        value           nonuniform List<scalar> 
30
(
3.04021e-05
8.30401e-05
2.59551e-05
1.94088e-05
4.05699e-05
1.32909e-05
7.70841e-06
-3.43362e-06
1.80719e-06
-2.22063e-06
-4.23323e-05
-8.06596e-06
-1.10648e-05
-6.21962e-06
-8.56503e-05
-9.20148e-06
-9.73461e-06
-2.22749e-05
-0.000120329
-3.0727e-05
-3.48005e-05
-3.9362e-05
-0.000175469
-5.18352e-05
-5.79438e-05
-0.000229417
-7.218e-05
-7.95268e-05
-0.000286546
-9.38277e-05
)
;
    }
    procBoundary4to2
    {
        type            processor;
        value           nonuniform List<scalar> 
11
(
0.000103051
0.000114682
0.000128667
0.000144909
0.000163193
0.000183235
0.000204718
0.000227356
0.000250942
0.000275436
0.000300378
)
;
    }
    procBoundary4to3
    {
        type            processor;
        value           nonuniform List<scalar> 
19
(
2.66418e-07
2.63612e-07
5.36193e-07
1.16426e-06
2.1374e-06
3.51934e-06
5.39685e-06
7.8794e-06
1.10957e-05
1.51774e-05
2.02455e-05
2.63779e-05
3.35694e-05
4.16974e-05
5.0516e-05
6.20037e-05
7.32071e-05
8.42331e-05
9.37705e-05
)
;
    }
    procBoundary4to5
    {
        type            processor;
        value           nonuniform List<scalar> 
18
(
0.000264019
0.000260644
0.000250673
0.000234731
0.000215389
0.000194643
0.000174317
0.000155715
0.000139601
0.000126368
0.000116127
0.000108779
0.000104138
0.000102009
0.000102175
-1.07578e-05
8.672e-05
9.37178e-05
)
;
    }
}


// ************************************************************************* //
