/*--------------------------------*- C++ -*----------------------------------*\
| =========                 |                                                 |
| \\      /  F ield         | OpenFOAM: The Open Source CFD Toolbox           |
|  \\    /   O peration     | Version:  dev                                   |
|   \\  /    A nd           | Web:      www.OpenFOAM.org                      |
|    \\/     M anipulation  |                                                 |
\*---------------------------------------------------------------------------*/
FoamFile
{
    version     2.0;
    format      ascii;
    class       volVectorField;
    location    "0.86";
    object      U;
}
// * * * * * * * * * * * * * * * * * * * * * * * * * * * * * * * * * * * * * //

dimensions      [0 1 -1 0 0 0 0];

internalField   nonuniform List<vector> 
465
(
(5.82853 3.23768e-19 6.15752)
(5.774 0 6.11041)
(7.0662 -1.49546e-19 6.19997)
(7.04454 -1.2331e-19 6.17123)
(7.0125 -9.72601e-20 6.08422)
(6.96357 2.93985e-20 5.93716)
(8.37198 -6.62224e-20 6.24906)
(8.33162 2.37266e-19 6.2086)
(8.31116 1.7718e-19 6.12636)
(8.29341 -4.06211e-20 5.99228)
(8.2676 0 5.80184)
(9.80313 7.04348e-20 6.36848)
(9.69983 -4.52815e-20 6.27639)
(9.645 -1.04318e-19 6.16796)
(9.61907 -1.47379e-20 6.02635)
(9.60545 5.27268e-21 5.84046)
(9.59162 1.30916e-20 5.60411)
(9.5687 -4.39395e-21 5.3147)
(11.3182 -3.47615e-20 6.5686)
(11.1605 1.2638e-19 6.41024)
(11.0547 2.90264e-20 6.2519)
(10.9912 5.02628e-21 6.0787)
(10.957 3.89487e-23 5.87764)
(10.9389 -3.83936e-23 5.63902)
(10.9248 -7.54215e-24 5.35674)
(10.9047 9.76305e-21 5.02792)
(10.8704 -1.9113e-20 4.65249)
(12.7843 5.48381e-21 6.79056)
(12.6284 -1.06495e-19 6.58676)
(12.5031 -1.49228e-20 6.38262)
(12.4111 2.03655e-20 6.17052)
(12.3488 -5.5756e-20 5.94145)
(12.309 0 5.68686)
(12.2823 -1.88759e-20 5.39989)
(12.2589 -3.81781e-21 5.07613)
(12.2291 3.10548e-20 4.71389)
(12.1839 1.26955e-20 4.31436)
(14.0636 6.15269e-20 6.95552)
(13.9713 -6.07366e-20 6.74184)
(13.8816 -4.84317e-20 6.51745)
(13.8026 -3.31194e-20 6.28094)
(13.7387 6.21738e-20 6.02876)
(13.6895 -1.92327e-20 5.75635)
(13.6516 -7.56171e-21 5.45916)
(13.6189 1.51569e-20 5.13367)
(13.584 -1.04873e-20 4.77816)
(13.5389 -3.11169e-20 4.39321)
(13.4755 -3.07407e-20 3.98222)
(13.3862 -8.1857e-21 3.55174)
(15.0744 3.41504e-20 7.0087)
(15.083 0 6.81498)
(15.0731 8.4808e-20 6.59877)
(15.0528 -8.7168e-20 6.3618)
(15.0283 0 6.1043)
(15.0034 9.10756e-20 5.82538)
(14.9789 2.57522e-20 5.52361)
(14.9532 -1.11355e-20 5.19776)
(14.9227 0 4.84749)
(14.8821 1.37725e-20 4.47396)
(14.8258 0 4.08041)
(14.7478 0 3.67248)
(14.6433 0 3.25829)
(15.7987 -1.419e-19 6.93057)
(15.9154 -1.10229e-19 6.77332)
(16.0041 2.09565e-19 6.58509)
(16.0697 0 6.36833)
(16.1169 0 6.12482)
(16.1495 5.39356e-20 5.85578)
(16.1699 -8.66688e-20 5.56209)
(16.1789 -8.81057e-21 5.24462)
(16.1756 8.70917e-21 4.90472)
(16.1579 5.18917e-21 4.54467)
(16.1226 -1.08593e-20 4.16818)
(16.0665 1.85895e-20 3.7806)
(15.9866 -1.23188e-20 3.38909)
(15.881 8.69818e-20 3.0022)
(15.7496 -6.21309e-20 2.62941)
(16.2634 -6.95374e-20 6.72972)
(16.4738 3.15099e-20 6.61297)
(16.6563 -5.08518e-20 6.46137)
(16.8122 1.29612e-19 6.27666)
(16.9431 -4.20188e-20 6.06069)
(17.0512 -5.49074e-20 5.81531)
(17.1381 4.07909e-20 5.54246)
(17.2047 0 5.24423)
(17.2515 -2.56369e-20 4.92318)
(17.2777 -5.013e-21 4.58255)
(17.2823 4.15421e-21 4.22659)
(17.2638 -2.36395e-20 3.86069)
(17.2212 1.63424e-21 3.49148)
(17.1539 -9.18998e-21 3.12659)
(17.0628 5.58967e-20 2.77422)
(16.9502 0 2.44258)
(16.5188 2.57211e-20 6.43126)
(16.7975 2.36329e-19 6.35053)
(17.0542 -5.74506e-20 6.23511)
(17.2872 -1.34843e-19 6.08557)
(17.4956 1.24096e-19 5.90303)
(17.6791 -9.85278e-20 5.68904)
(17.8378 5.99788e-20 5.44561)
(17.9717 0 5.17521)
(18.0806 2.48414e-20 4.88086)
(18.1643 1.51503e-20 4.56625)
(18.2224 -1.49796e-20 4.23591)
(18.2544 2.16709e-21 3.89522)
(18.2603 7.73218e-21 3.55049)
(18.2405 0 3.20871)
(18.1965 0 2.87728)
(18.1305 6.42455e-21 2.5636)
(18.0459 1.96587e-20 2.2746)
(17.9469 -1.96164e-20 2.0164)
(16.6211 -2.43763e-19 6.06619)
(16.9408 2.74537e-19 6.01288)
(17.2463 2.75662e-19 5.92772)
(17.5344 -2.50033e-20 5.81023)
(17.8025 -2.33864e-19 5.66059)
(18.0482 4.48391e-21 5.47968)
(18.2701 0 5.26905)
(18.4667 0 5.03089)
(18.6369 0 4.76812)
(18.78 0 4.48436)
(18.8953 0 4.18403)
(18.9825 0 3.87232)
(19.0417 0 3.55515)
(19.0736 4.96219e-21 3.23899)
(19.0798 -1.74777e-21 2.93063)
(19.0624 3.01232e-21 2.63692)
(19.0245 -2.2146e-20 2.36439)
(18.9698 1.82278e-20 2.11905)
(18.9021 6.86661e-21 1.9063)
(16.6216 -3.79336e-20 5.66358)
(16.9587 0 5.62857)
(17.289 0 5.56577)
(17.6088 5.53143e-20 5.47402)
(17.9144 4.48828e-20 5.35282)
(18.2027 1.13153e-19 5.20234)
(18.4708 -1.49279e-19 5.0235)
(18.7163 -9.20127e-21 4.81795)
(18.9371 -1.03727e-19 4.58813)
(19.1315 -3.33388e-20 4.33727)
(19.2983 3.29182e-20 4.06937)
(19.4366 0 3.78917)
(19.5463 3.03271e-20 3.50208)
(19.6277 -2.33145e-20 3.21403)
(19.6821 8.47832e-21 2.93126)
(19.7114 -4.00614e-22 2.66011)
(19.7182 3.96983e-22 2.40676)
(19.7056 0 2.17706)
(19.6772 -6.8737e-21 1.97653)
(19.6372 4.90442e-21 1.81042)
(16.5602 3.50648e-19 5.24605)
(16.8979 -2.29824e-19 5.22192)
(17.2342 4.98842e-19 5.17415)
(17.5655 -1.33095e-19 5.10136)
(17.8883 -2.09386e-19 5.00266)
(18.199 -4.54325e-20 4.87775)
(18.4944 0 4.72701)
(18.7713 2.62649e-20 4.55153)
(19.0269 5.03634e-20 4.35319)
(19.2588 0 4.13464)
(19.4651 7.58648e-21 3.89929)
(19.6444 3.26233e-20 3.65128)
(19.796 -4.39917e-20 3.39542)
(19.9196 0 3.137)
(20.016 0 2.88167)
(20.0865 -2.12559e-20 2.63523)
(20.1332 0 2.40347)
(20.1587 1.03814e-20 2.19198)
(20.1663 -9.67222e-22 2.00613)
(20.16 0 1.8511)
(20.1388 0 1.73115)
(16.4641 0 4.82839)
(16.7923 -3.0513e-19 4.81022)
(17.1222 2.65842e-19 4.77207)
(17.451 5.63039e-20 4.7126)
(17.7754 5.3425e-20 4.63085)
(18.0923 2.19981e-19 4.52632)
(18.3982 -2.1507e-19 4.39904)
(18.6899 3.36434e-20 4.24968)
(18.9644 0 4.07962)
(19.2188 0 3.89092)
(19.4508 7.41905e-21 3.68639)
(19.6584 -3.26834e-20 3.46954)
(19.8405 6.37316e-20 3.24447)
(19.9962 4.62688e-20 3.01582)
(20.1258 -3.57715e-20 2.78858)
(20.2298 4.42404e-21 2.56798)
(20.31 -8.15428e-21 2.3593)
(20.3684 1.58379e-20 2.16773)
(20.4079 -1.12975e-20 1.99832)
(20.4323 0 1.8559)
(20.4477 0 1.74437)
(16.3501 2.97894e-19 4.41864)
(16.6638 -3.60204e-20 4.40373)
(16.9809 -2.18273e-19 4.37183)
(17.299 2.46959e-19 4.32181)
(17.6154 -5.23455e-20 4.25281)
(17.9273 0 4.16429)
(18.2317 8.60827e-20 4.05615)
(18.5256 0 3.92879)
(18.806 0 3.78322)
(19.0699 1.08201e-19 3.62105)
(19.315 -1.52734e-19 3.44453)
(19.539 0 3.25655)
(19.7404 -6.34777e-20 3.06057)
(19.918 3.68543e-20 2.86054)
(20.0714 2.56045e-20 2.66081)
(20.201 3.08991e-20 2.46596)
(20.3076 1.94024e-20 2.28069)
(20.3932 2.29378e-20 2.10968)
(20.4601 4.02688e-21 1.9575)
(20.5116 3.44175e-21 1.82849)
(20.5605 3.06624e-21 1.72607)
(16.2278 6.37183e-19 4.0202)
(16.5256 -5.37408e-19 4.00731)
(16.8273 -1.51612e-20 3.97988)
(17.131 2.20114e-19 3.93701)
(17.4345 5.6306e-20 3.87798)
(17.7355 -2.43007e-19 3.80231)
(18.0313 -2.70017e-20 3.70989)
(18.3194 1.62158e-20 3.601)
(18.5969 2.48669e-19 3.47638)
(18.8613 -1.32933e-19 3.33732)
(19.1102 0 3.18563)
(19.3412 0 3.02367)
(19.5528 0 2.85431)
(19.7436 -9.6577e-20 2.68089)
(19.9129 5.95909e-20 2.50709)
(20.0607 -1.97535e-20 2.33686)
(20.1875 -4.88856e-20 2.17429)
(20.2948 -5.19514e-21 2.02349)
(20.3845 7.29053e-21 1.88846)
(20.4595 4.59757e-21 1.77298)
(20.5383 -4.6241e-21 1.67996)
(16.1024 6.17638e-19 3.63378)
(16.3846 -2.95323e-19 3.62245)
(16.6707 0 3.59866)
(16.9592 3.01616e-20 3.56168)
(17.2483 -1.12334e-19 3.51091)
(17.536 5.01597e-20 3.446)
(17.8201 -2.2576e-19 3.36684)
(18.0984 -2.74973e-20 3.27365)
(18.3685 8.96963e-20 3.16705)
(18.628 1.40202e-19 3.04807)
(18.8749 -6.05219e-20 2.91818)
(19.1069 4.22084e-20 2.77933)
(19.3225 -9.37996e-20 2.63388)
(19.5203 3.47541e-20 2.48461)
(19.6995 -2.88092e-20 2.33461)
(19.8599 0 2.18722)
(20.0017 5.47172e-20 2.04594)
(20.126 -3.23657e-20 1.91429)
(20.2346 -8.60958e-21 1.79567)
(20.3296 -4.36485e-21 1.69332)
(20.4345 0 1.60968)
(15.9773 -1.93622e-20 3.25885)
(16.2449 2.43369e-19 3.24892)
(16.5163 -2.40814e-19 3.22834)
(16.7902 0 3.19651)
(17.0651 5.6001e-20 3.15294)
(17.3394 0 3.09736)
(17.6111 4.65489e-20 3.0297)
(17.8784 8.60289e-20 2.95016)
(18.1393 -7.74095e-20 2.85926)
(18.3917 1.31724e-19 2.75785)
(18.6337 -1.86671e-19 2.64713)
(18.8634 3.23328e-19 2.52872)
(19.0794 -1.25009e-20 2.40455)
(19.2804 -1.19052e-20 2.27693)
(19.4656 -4.23547e-20 2.14842)
(19.6346 -5.35413e-21 2.02182)
(19.7876 -5.07978e-21 1.90006)
(19.9253 -1.9681e-20 1.7861)
(20.0492 0 1.68281)
(20.1611 1.61307e-20 1.59289)
(20.2885 0 1.51838)
(15.8548 -1.42779e-20 2.89435)
(16.1091 -2.57612e-19 2.88576)
(16.3671 6.05414e-22 2.86812)
(16.6277 0 2.84091)
(16.8895 0 2.80376)
(17.1513 -2.03684e-19 2.75647)
(17.4112 2.00258e-19 2.699)
(17.6678 8.10491e-20 2.63154)
(17.9193 -1.27229e-19 2.5545)
(18.164 -3.64898e-20 2.4686)
(18.4002 1.2087e-19 2.37485)
(18.6263 -6.73536e-20 2.27455)
(18.8409 -1.04687e-19 2.1693)
(19.0431 0 2.061)
(19.2319 3.72591e-20 1.95177)
(19.4069 0 1.84391)
(19.5684 -2.5129e-20 1.73986)
(19.7168 1.61445e-20 1.64206)
(19.8532 -2.99536e-20 1.55291)
(19.9791 -1.57335e-20 1.47462)
(20.1256 -7.00209e-21 1.40891)
(15.7371 3.28171e-19 2.53881)
(15.9796 -2.77274e-19 2.53152)
(16.2256 2.39344e-19 2.51657)
(16.4743 2.40439e-19 2.49357)
(16.7244 -4.5874e-19 2.46224)
(16.9748 1.37077e-20 2.4224)
(17.2241 1.36612e-20 2.37406)
(17.4708 1.834e-19 2.31736)
(17.7136 0 2.25267)
(17.9509 -1.38566e-21 2.18058)
(18.1813 1.24238e-19 2.10191)
(18.4034 -1.22376e-19 2.01772)
(18.6161 9.57562e-20 1.92933)
(18.8183 -1.39659e-19 1.83828)
(19.0093 -3.6419e-20 1.74631)
(19.1889 -3.70086e-21 1.6553)
(19.3569 -3.75607e-21 1.56724)
(19.5138 -1.71316e-20 1.48414)
(19.6605 3.05847e-20 1.40797)
(19.798 -1.07446e-20 1.34052)
(19.9605 8.37259e-21 1.28324)
(15.626 2.92997e-19 2.19099)
(15.858 -2.87632e-19 2.18492)
(16.0936 3.31233e-20 2.17247)
(16.3317 2.39453e-19 2.15334)
(16.5716 -2.35243e-19 2.1273)
(16.812 0 2.09423)
(17.0518 -2.46341e-20 2.05412)
(17.2898 4.41246e-20 2.0071)
(17.5248 1.56645e-19 1.95349)
(17.7554 -1.55285e-19 1.89375)
(17.9805 0 1.82857)
(18.1988 -8.20198e-20 1.75881)
(18.4093 -1.43087e-20 1.68553)
(18.6111 9.47661e-20 1.60996)
(18.8037 -3.96665e-20 1.53353)
(18.9865 6.13484e-20 1.45774)
(19.1597 -5.62546e-21 1.3842)
(19.3235 -4.12336e-20 1.31455)
(19.4786 3.28777e-20 1.25036)
(19.6257 8.95332e-21 1.1931)
(19.8015 3.82689e-21 1.14394)
(15.5232 -3.07773e-19 1.84874)
(15.7462 5.55795e-19 1.84378)
(15.9726 -2.99319e-19 1.83363)
(16.2017 3.06464e-20 1.81803)
(16.4326 2.20939e-19 1.79681)
(16.6644 -4.48172e-19 1.76986)
(16.8961 2.25145e-19 1.73718)
(17.1266 0 1.6989)
(17.3548 -1.57275e-19 1.65526)
(17.5796 1.91363e-19 1.60665)
(17.7999 0 1.55359)
(18.0148 -1.4285e-19 1.49679)
(18.2232 1.37705e-19 1.43709)
(18.4244 4.52135e-20 1.37547)
(18.6179 -1.49147e-21 1.31306)
(18.8034 -3.04041e-20 1.25105)
(18.9806 2.99894e-20 1.19074)
(19.1499 0 1.1334)
(19.3117 -3.6726e-20 1.0803)
(19.4667 -3.56113e-21 1.03261)
(19.6533 -3.7326e-21 0.991291)
(15.4305 3.23636e-19 1.51176)
(15.6457 1.71781e-20 1.50787)
(15.8644 0 1.49986)
(16.0857 -2.9978e-20 1.48753)
(16.3091 0 1.47073)
(16.5336 2.5956e-20 1.44939)
(16.7584 1.87409e-19 1.42353)
(16.9825 -1.61843e-19 1.39323)
(17.2049 -1.57044e-19 1.35869)
(17.4248 -2.52576e-20 1.32022)
(17.641 1.06287e-19 1.27822)
(17.8529 0 1.23324)
(18.0594 2.68689e-20 1.18593)
(18.26 0 1.13706)
(18.4541 3.93333e-20 1.0875)
(18.6415 -3.08002e-20 1.03818)
(18.8219 3.03726e-20 0.990093)
(18.9955 0 0.944246)
(19.1628 -5.4548e-22 0.901612)
(19.3241 1.12006e-20 0.863083)
(19.5195 -1.68596e-21 0.829429)
(15.3493 -8.90653e-21 1.17525)
(15.5581 -1.67963e-20 1.17229)
(15.7704 1.5892e-20 1.16622)
(15.9854 0 1.15683)
(16.2025 0 1.14402)
(16.421 -2.59452e-20 1.12777)
(16.6402 -2.09676e-19 1.1081)
(16.859 1.6058e-19 1.08507)
(17.0767 -2.036e-20 1.05883)
(17.2925 3.65761e-20 1.0296)
(17.5054 3.30564e-20 0.997692)
(17.7147 0 0.963507)
(17.9196 -2.62585e-20 0.927534)
(18.1195 2.34653e-20 0.890347)
(18.314 -2.02302e-20 0.852592)
(18.5027 -3.09222e-20 0.814972)
(18.6855 3.04869e-20 0.778227)
(18.8625 0 0.743112)
(19.034 9.0014e-21 0.710356)
(19.2003 4.57955e-21 0.68063)
(19.4022 1.69489e-21 0.65454)
(15.2806 8.77443e-21 0.84377)
(15.4845 -8.28596e-21 0.841792)
(15.6917 1.06333e-19 0.837618)
(15.9018 -2.48485e-19 0.831077)
(16.114 5.60259e-21 0.822101)
(16.3278 1.30041e-19 0.810698)
(16.5425 2.35078e-20 0.796897)
(16.7572 0 0.780746)
(16.9712 1.98979e-20 0.762337)
(17.1837 7.01545e-20 0.741821)
(17.394 -6.90375e-20 0.719409)
(17.6013 -4.15892e-20 0.695377)
(17.8049 5.56431e-20 0.670064)
(18.0043 3.21195e-20 0.64387)
(18.199 -2.30107e-20 0.617244)
(18.3887 -3.08412e-20 0.590676)
(18.5733 4.16788e-21 0.564688)
(18.7528 1.21909e-20 0.539811)
(18.9275 7.85856e-21 0.516568)
(19.0977 0 0.495437)
(19.305 -1.96272e-21 0.476836)
(15.2261 -4.2748e-21 0.50217)
(15.4263 8.09373e-21 0.500854)
(15.6298 0 0.498235)
(15.8362 1.26316e-19 0.494186)
(16.0448 -1.10035e-19 0.488673)
(16.2551 0 0.481723)
(16.4664 9.0083e-20 0.473359)
(16.678 -8.85684e-20 0.463612)
(16.8891 0 0.452532)
(17.0992 6.91321e-20 0.440208)
(17.3074 -1.38172e-20 0.426764)
(17.513 -8.33355e-20 0.412361)
(17.7155 -1.81057e-20 0.397201)
(17.9143 4.00946e-20 0.381518)
(18.1089 -2.11381e-20 0.36558)
(18.2992 0 0.349681)
(18.4848 1.35482e-20 0.334136)
(18.666 -5.35623e-21 0.31928)
(18.8428 -7.67421e-21 0.305471)
(19.0154 -3.27025e-21 0.29311)
(19.2254 2.75327e-21 0.282786)
(14.9582 -4.20669e-21 0.173298)
(15.1537 3.11966e-20 0.172912)
(15.3526 -5.99807e-20 0.172047)
(15.554 2.88222e-20 0.170654)
(15.7575 2.57041e-20 0.168721)
(15.9625 -2.5258e-20 0.166258)
(16.1684 2.21532e-20 0.163272)
(16.3745 -2.17809e-20 0.159772)
(16.5799 0 0.155775)
(16.784 1.70224e-20 0.151311)
(16.9862 -8.74521e-21 0.146422)
(17.1856 7.19498e-21 0.141164)
(17.3816 -6.39853e-21 0.135607)
(17.5738 -5.61673e-21 0.129834)
(17.7616 0 0.123938)
(17.9448 0 0.118025)
(18.1231 0 0.112209)
(18.2966 2.95669e-21 0.106618)
(18.4657 2.25636e-21 0.101409)
(18.6306 2.36943e-21 0.0968016)
(18.8321 0 0.0933341)
)
;

boundaryField
{
    inlet
    {
        type            fixedValue;
        value           nonuniform 0();
    }
    outlet
    {
        type            zeroGradient;
    }
    flap
    {
        type            movingWallVelocity;
        value           nonuniform 0();
    }
    upperWall
    {
        type            noSlip;
    }
    lowerWall
    {
        type            noSlip;
    }
    frontAndBack
    {
        type            empty;
    }
    procBoundary2to1
    {
        type            processor;
        value           nonuniform List<vector> 
17
(
(16.2911 -3.3561e-19 6.08885)
(16.2814 0 5.67252)
(16.2243 3.19417e-19 5.24831)
(16.1402 -3.22033e-19 4.82813)
(16.0416 3.23399e-19 4.41787)
(15.9354 -1.69041e-20 4.01962)
(15.8255 3.22789e-19 3.63352)
(15.7147 -2.06458e-20 3.25883)
(15.6052 -6.30551e-19 2.89444)
(15.4991 3.15196e-19 2.53891)
(15.3982 0 2.19106)
(15.3044 3.08819e-19 1.84879)
(15.2192 1.92218e-20 1.51177)
(15.1443 -9.41993e-21 1.17527)
(15.0806 0 0.843711)
(15.0299 1.45201e-19 0.502296)
(14.7665 2.22077e-21 0.173256)
)
;
    }
    procBoundary2to4
    {
        type            processor;
        value           nonuniform List<vector> 
11
(
(5.85899 3.67053e-19 6.14341)
(7.09114 -1.81459e-19 6.17636)
(8.45692 2.1326e-19 6.26581)
(9.97425 -7.99979e-20 6.46605)
(11.5307 8.28259e-20 6.74109)
(12.9614 8.08917e-20 6.99845)
(14.146 -1.42536e-19 7.15709)
(15.0382 -1.60258e-19 7.17663)
(15.6497 -1.6164e-19 7.05399)
(16.025 3.67216e-19 6.8102)
(16.2206 2.65428e-19 6.4774)
)
;
    }
    procBoundary2to5
    {
        type            processor;
        value           nonuniform List<vector> 
34
(
(4.593 1.75944e-19 6.07124)
(4.48088 0 5.99923)
(5.69482 8.75867e-20 6.00324)
(5.69482 8.75867e-20 6.00324)
(5.59215 -8.60645e-20 5.83684)
(6.89524 7.42437e-20 5.73048)
(6.89524 7.42437e-20 5.73048)
(8.22757 0 5.55387)
(8.22757 0 5.55387)
(8.17008 0 5.24901)
(9.53054 9.67564e-21 4.97212)
(9.53054 9.67564e-21 4.97212)
(9.47258 -3.25265e-20 4.57793)
(10.8145 0 4.23283)
(10.8145 0 4.23283)
(12.1148 -2.06865e-22 3.88182)
(12.1148 -2.06865e-22 3.88182)
(12.0142 5.06323e-20 3.42415)
(13.2648 0 3.11145)
(13.2648 0 3.11145)
(14.5091 8.16523e-20 2.84793)
(14.5091 8.16523e-20 2.84793)
(14.3444 1.08315e-22 2.4527)
(15.5946 0 2.28015)
(15.5946 0 2.28015)
(16.8195 -9.17164e-21 2.13921)
(16.8195 -9.17164e-21 2.13921)
(16.6755 1.37841e-21 1.87042)
(17.8376 5.37641e-21 1.79416)
(17.8376 5.37641e-21 1.79416)
(18.8259 1.47477e-20 1.73118)
(18.8259 1.47477e-20 1.73118)
(19.5766 -2.8821e-21 1.68308)
(19.5766 -2.8821e-21 1.68308)
)
;
    }
}


// ************************************************************************* //
