/*--------------------------------*- C++ -*----------------------------------*\
| =========                 |                                                 |
| \\      /  F ield         | OpenFOAM: The Open Source CFD Toolbox           |
|  \\    /   O peration     | Version:  dev                                   |
|   \\  /    A nd           | Web:      www.OpenFOAM.org                      |
|    \\/     M anipulation  |                                                 |
\*---------------------------------------------------------------------------*/
FoamFile
{
    version     2.0;
    format      ascii;
    class       volVectorField;
    location    "0.7";
    object      U;
}
// * * * * * * * * * * * * * * * * * * * * * * * * * * * * * * * * * * * * * //

dimensions      [0 1 -1 0 0 0 0];

internalField   nonuniform List<vector> 
2790
(
(9.93023 -5.31358e-20 0.0188259)
(9.86649 0 0.0267755)
(9.773 0 0.0322456)
(9.65435 -2.86845e-20 0.0378385)
(9.51845 2.94285e-20 0.0436522)
(9.36758 -3.04375e-20 0.0496654)
(9.20108 0 0.0560023)
(9.0179 8.1835e-20 0.0628143)
(8.81718 -7.58296e-20 0.0702381)
(8.59808 1.41576e-19 0.0783943)
(8.35957 1.75348e-21 0.087403)
(8.10045 -1.5216e-19 0.0973944)
(7.8194 1.61316e-19 0.108508)
(7.51501 -3.3606e-19 0.12089)
(7.18578 -2.24683e-19 0.134685)
(6.83023 6.51677e-19 0.150038)
(6.44692 -6.8872e-19 0.167076)
(6.03459 4.13866e-19 0.18589)
(5.59228 1.10782e-19 0.206517)
(5.11944 -2.36329e-19 0.228929)
(4.61627 2.52947e-19 0.253007)
(4.08374 0 0.278445)
(3.52395 2.92911e-19 0.30469)
(2.94059 -3.16929e-19 0.330898)
(2.33918 0 0.355706)
(1.72741 -7.49512e-19 0.376518)
(1.11505 0 0.386217)
(0.5109 4.45875e-18 0.354837)
(-0.0865585 -3.8028e-18 0.113416)
(-0.0453579 1.01832e-18 -0.193585)
(9.99074 5.30135e-20 0.0374395)
(9.98367 2.69547e-20 0.0557285)
(9.94886 8.26133e-20 0.0693927)
(9.88742 0 0.0838513)
(9.8061 0 0.0993179)
(9.70735 1.49556e-19 0.115667)
(9.59075 -1.22485e-19 0.13313)
(9.45535 2.39035e-19 0.152033)
(9.30039 -5.16473e-19 0.17269)
(9.12511 2.78651e-19 0.195371)
(8.92854 0 0.220344)
(8.70953 0 0.247899)
(8.46681 0 0.278337)
(8.19895 0 0.31196)
(7.90445 -6.28847e-19 0.349039)
(7.58177 7.79376e-19 0.389808)
(7.22936 9.12352e-20 0.434416)
(6.84578 1.92472e-19 0.482859)
(6.42984 1.53864e-18 0.534919)
(5.98059 2.41033e-19 0.590098)
(5.49786 -2.02737e-19 0.647567)
(4.98225 -5.85006e-18 0.705941)
(4.43519 3.86904e-18 0.76302)
(3.85978 4.19365e-18 0.815704)
(3.26119 -5.35121e-18 0.859545)
(2.64736 1.92754e-18 0.887624)
(2.03012 0 0.887346)
(1.42065 7.50152e-19 0.830574)
(0.831943 1.23798e-17 0.654894)
(0.456229 -1.61853e-17 0.258424)
(9.98785 0 0.0388627)
(9.978 1.07525e-19 0.065267)
(9.94539 1.06392e-22 0.0878655)
(9.88866 -1.12345e-19 0.111698)
(9.81334 0 0.13728)
(9.722 0 0.164549)
(9.6145 6.09267e-20 0.193799)
(9.49002 0 0.225493)
(9.34793 0 0.26011)
(9.18765 -2.51097e-20 0.298091)
(9.00837 8.65705e-21 0.339881)
(8.80914 5.7877e-19 0.385959)
(8.58883 -6.67694e-19 0.436837)
(8.34624 -7.74817e-20 0.49304)
(8.08 0 0.555057)
(7.78865 1.35983e-18 0.623323)
(7.47069 -1.75275e-18 0.698161)
(7.12458 1.83501e-19 0.77966)
(6.74886 0 0.867588)
(6.3421 0 0.961241)
(5.90328 0 1.05932)
(5.43208 0 1.15972)
(4.92844 -8.66979e-18 1.25896)
(4.39325 4.23994e-19 1.35189)
(3.82879 1.02426e-17 1.43117)
(3.23852 -5.80725e-21 1.48585)
(2.62625 0 1.49879)
(1.99165 -1.34235e-18 1.44132)
(1.30842 7.35745e-19 1.27583)
(0.730781 0 0.962965)
(9.98601 -2.10931e-19 0.0427505)
(9.9738 1.07084e-19 0.0788661)
(9.941 1.09209e-19 0.111784)
(9.88541 -2.24564e-19 0.145349)
(9.81158 2.29102e-19 0.18065)
(9.72213 -1.17705e-19 0.217995)
(9.61719 -6.05793e-20 0.257848)
(9.49599 -5.00678e-19 0.300827)
(9.35812 9.95422e-19 0.347577)
(9.2032 -5.10732e-19 0.398716)
(9.03062 -8.56507e-21 0.454868)
(8.83971 1.1404e-18 0.516692)
(8.62963 -1.09313e-18 0.584887)
(8.39954 1.52189e-19 0.660197)
(8.14849 -1.11646e-18 0.743342)
(7.87532 1.30653e-18 0.834984)
(7.57893 1.71648e-19 0.93569)
(7.25805 -3.58091e-19 1.04576)
(6.91129 0 1.16514)
(6.5373 0 1.2932)
(6.13458 7.39614e-18 1.42854)
(5.70195 -1.37164e-17 1.5688)
(5.23804 8.0705e-18 1.70999)
(4.74127 -9.45353e-19 1.84597)
(4.21021 -7.87267e-21 1.96794)
(3.64258 -1.81627e-17 2.06353)
(3.03374 1.81207e-17 2.11554)
(2.37463 0 2.1002)
(1.62292 -2.13758e-17 1.99771)
(0.906476 4.78883e-17 1.7865)
(9.98504 3.68488e-19 0.0481889)
(9.97148 -1.60592e-19 0.0926144)
(9.93846 -2.18333e-19 0.134531)
(9.88382 -1.11886e-19 0.176882)
(9.81139 2.2785e-19 0.221151)
(9.72371 1.17142e-19 0.267998)
(9.62103 -1.20016e-19 0.318048)
(9.50258 0 0.372012)
(9.36808 -3.16505e-20 0.430617)
(9.21722 -1.0535e-18 0.494602)
(9.04953 1.0752e-18 0.564719)
(8.86447 0 0.641736)
(8.6614 7.19952e-20 0.726461)
(8.43974 -7.48297e-20 0.819766)
(8.19886 -2.64922e-18 0.922551)
(7.93789 1.24214e-19 1.03564)
(7.65609 2.64919e-18 1.15981)
(7.35258 -2.79259e-18 1.29561)
(7.02613 2.86455e-18 1.44313)
(6.67563 5.3009e-18 1.602)
(6.29955 -7.78697e-18 1.77103)
(5.89611 0 1.94797)
(5.46289 0 2.12902)
(4.9965 8.98755e-19 2.30813)
(4.49239 -1.60453e-17 2.4766)
(3.9441 1.48108e-17 2.62276)
(3.34189 0 2.73195)
(2.67367 -1.91486e-17 2.78588)
(1.89691 3.76432e-17 2.77236)
(1.08114 -2.07184e-17 2.68964)
(9.98451 1.56859e-19 0.0543684)
(9.97034 -5.3035e-20 0.106415)
(9.93738 -3.25651e-19 0.156848)
(9.88382 6.93311e-22 0.207921)
(9.81313 -2.26509e-19 0.261174)
(9.72762 0 0.317467)
(9.62753 1.19323e-19 0.377575)
(9.51227 0 0.442287)
(9.38152 -8.85225e-19 0.512398)
(9.23501 9.65717e-19 0.588758)
(9.0724 0 0.672237)
(8.89325 -3.42762e-20 0.763706)
(8.69704 -7.10571e-20 0.864077)
(8.48326 0 0.974317)
(8.25143 0 1.09546)
(8.00096 2.36722e-18 1.2285)
(7.73124 -2.57882e-18 1.37434)
(7.44169 0 1.5338)
(7.13137 0 1.70721)
(6.79912 -5.09842e-18 1.89443)
(6.44355 1.27728e-17 2.09469)
(6.06255 -6.20828e-18 2.30625)
(5.65309 0 2.52595)
(5.21061 -1.36042e-17 2.74861)
(4.72858 2.74052e-17 2.9666)
(4.19827 -1.38393e-17 3.16988)
(3.60774 0 3.34635)
(2.9446 1.76532e-17 3.48112)
(2.1787 2.23921e-18 3.55848)
(1.28109 -3.84728e-17 3.60692)
(9.98428 -4.71207e-19 0.0608812)
(9.96998 2.65725e-19 0.120221)
(9.93741 2.1649e-19 0.178758)
(9.88507 2.20912e-19 0.238252)
(9.81644 2.26993e-19 0.300191)
(9.73348 2.63007e-21 0.365591)
(9.63642 -9.45685e-19 0.435363)
(9.52483 -3.69545e-19 0.510396)
(9.39837 1.92813e-18 0.591569)
(9.2568 -2.04458e-18 0.679821)
(9.09989 1.04587e-18 0.776113)
(8.92729 3.38797e-20 0.881414)
(8.73856 2.31138e-18 0.996746)
(8.53322 -2.28343e-18 1.12317)
(8.31082 -2.38429e-18 1.26179)
(8.07096 4.89053e-18 1.41373)
(7.81301 -2.50856e-18 1.58005)
(7.5366 -4.92469e-18 1.76174)
(7.24098 5.35675e-18 1.95948)
(6.92487 0 2.17346)
(6.58687 0 2.40342)
(6.22475 0 2.64829)
(5.83523 1.24169e-17 2.90591)
(5.41332 -1.35514e-17 3.1725)
(4.95137 8.38028e-19 3.44186)
(4.43959 0 3.70555)
(3.86557 -1.45385e-17 3.9532)
(3.21599 1.43031e-17 4.17172)
(2.48442 -1.02047e-18 4.33283)
(1.51121 -1.1273e-18 4.50335)
(9.98428 4.16464e-19 0.0674871)
(9.97009 -6.33927e-19 0.133904)
(9.93825 -2.5691e-22 0.200162)
(9.88742 -4.39553e-19 0.267712)
(9.82106 6.71505e-19 0.337997)
(9.74102 0 0.412169)
(9.64743 0 0.49124)
(9.53998 -9.63804e-19 0.576191)
(9.41836 1.10222e-18 0.667989)
(9.28235 -1.01338e-18 0.767638)
(9.13183 3.17711e-18 0.87617)
(8.96647 -4.25617e-18 0.994656)
(8.78589 2.0727e-18 1.12423)
(8.58972 0 1.26604)
(8.37757 0 1.42128)
(8.14906 0 1.5912)
(7.90361 0 1.77696)
(7.64092 4.76481e-18 1.97981)
(7.36016 -5.17348e-18 2.20072)
(7.06001 6.65814e-19 2.44034)
(6.73898 1.11003e-17 2.69894)
(6.3948 1.09282e-19 2.97626)
(6.02402 -1.16824e-17 3.27122)
(5.62181 1.3664e-17 3.58173)
(5.18023 -2.42347e-17 3.90327)
(4.68884 -8.56821e-19 4.22861)
(4.13554 1.25941e-17 4.54819)
(3.5032 8.87005e-19 4.85039)
(2.81868 -2.93113e-17 5.08821)
(1.77042 3.21497e-17 5.37189)
(9.98437 -4.15909e-19 0.0740443)
(9.97051 1.14289e-21 0.147334)
(9.93975 2.14292e-19 0.22094)
(9.89071 8.72907e-19 0.296179)
(9.82684 -4.44102e-19 0.374452)
(9.75002 0 0.457024)
(9.66032 0 0.544993)
(9.55744 -1.18899e-19 0.639413)
(9.44117 -1.21711e-19 0.741333)
(9.31138 1.06204e-18 0.851819)
(9.16792 9.70508e-19 0.971976)
(9.01048 -2.04856e-18 1.10297)
(8.83879 -2.12302e-18 1.24602)
(8.65256 4.47136e-18 1.40238)
(8.45145 -2.247e-18 1.57332)
(8.23515 -4.66456e-18 1.76022)
(8.00321 4.73577e-18 1.96441)
(7.75526 0 2.18737)
(7.49044 -5.04377e-18 2.43049)
(7.20731 9.64932e-18 2.69483)
(6.90426 -1.65246e-17 2.98123)
(6.579 -8.90603e-20 3.29028)
(6.22799 -7.8663e-20 3.62207)
(5.84653 1.06546e-17 3.97611)
(5.42711 -1.46357e-18 4.34983)
(4.95894 1.28106e-17 4.73731)
(4.43033 -3.64235e-17 5.12896)
(3.81643 -3.05979e-19 5.51538)
(3.18477 2.68104e-17 5.82712)
(2.05845 0 6.22123)
(9.98448 4.13036e-19 0.0804595)
(9.97122 6.29144e-19 0.160391)
(9.94177 -2.12891e-19 0.240981)
(9.89478 -4.34048e-19 0.323538)
(9.83364 -4.40825e-19 0.40942)
(9.76032 2.2477e-19 0.499976)
(9.67485 -9.22372e-19 0.596396)
(9.57698 9.36136e-19 0.699787)
(9.46655 -1.20281e-18 0.811264)
(9.34352 -9.93612e-19 0.931975)
(9.20775 1.99916e-18 1.0631)
(9.05894 -2.16061e-18 1.20588)
(8.89694 2.10933e-18 1.36161)
(8.72153 -6.75347e-20 1.53162)
(8.53235 4.43075e-18 1.71729)
(8.32923 -4.48967e-18 1.9201)
(8.11184 0 2.14159)
(7.8796 2.93508e-19 2.38348)
(7.63193 4.5548e-18 2.64764)
(7.36755 4.69598e-18 2.93567)
(7.08449 -9.10195e-18 3.24893)
(6.78036 0 3.58884)
(6.4518 1.11819e-17 3.95679)
(6.09397 -1.06948e-17 4.35371)
(5.70004 6.91201e-19 4.77925)
(5.25902 0 5.22921)
(4.75957 -3.50211e-19 5.69383)
(4.16513 2.81818e-19 6.16744)
(3.5883 -6.01001e-21 6.55662)
(2.37813 -9.73274e-20 7.0663)
(9.98455 -4.12462e-19 0.0866679)
(9.97216 6.24682e-19 0.17296)
(9.94426 -2.11679e-19 0.260185)
(9.89953 0 0.349681)
(9.84136 4.39081e-19 0.442767)
(9.77176 -2.23702e-19 0.540857)
(9.69088 0 0.645243)
(9.59844 -9.31732e-19 0.757077)
(9.49428 2.36933e-18 0.877521)
(9.37844 -2.90634e-18 1.0078)
(9.25084 1.96782e-18 1.14918)
(9.11129 1.88909e-19 1.30294)
(8.95973 -1.61614e-20 1.47046)
(8.79602 0 1.65317)
(8.61982 -3.34138e-20 1.85252)
(8.43094 0 2.0701)
(8.22919 -4.49641e-18 2.30769)
(8.01389 -3.25792e-19 2.56719)
(7.78472 4.92374e-18 2.8509)
(7.5408 5.91466e-19 3.16111)
(7.28021 -6.01272e-19 3.49988)
(7.00028 1.00909e-17 3.86934)
(6.69778 -2.01233e-17 4.27211)
(6.36801 -3.16448e-19 4.71081)
(6.0047 1.01565e-17 5.18744)
(5.59645 -1.57767e-19 5.7002)
(5.13241 2.09827e-17 6.24012)
(4.56046 -2.11295e-17 6.80738)
(4.03873 0 7.28623)
(2.73655 9.07657e-20 7.92779)
(9.98456 -8.18443e-19 0.0926272)
(9.97328 -2.08088e-19 0.184936)
(9.94715 -6.30451e-19 0.278454)
(9.90481 0 0.374509)
(9.84983 0 0.474367)
(9.78424 -8.87286e-19 0.579512)
(9.70826 -4.565e-21 0.691348)
(9.62157 1.14449e-18 0.811069)
(9.52402 -2.345e-19 0.93987)
(9.41576 2.37569e-19 1.07904)
(9.29678 1.9512e-18 1.22988)
(9.16702 -1.08559e-19 1.39375)
(9.0265 -2.01096e-18 1.57207)
(8.87519 0 1.76638)
(8.71287 3.2899e-20 1.97827)
(8.53933 4.28179e-18 2.20941)
(8.35437 -4.32003e-18 2.46172)
(8.15759 -6.83532e-20 2.73737)
(7.94864 6.93028e-20 3.03892)
(7.72695 -3.55652e-19 3.36927)
(7.49131 2.89061e-19 3.73142)
(7.2391 -2.92095e-19 4.12833)
(6.9671 -3.6644e-19 4.56371)
(6.67115 -9.04621e-18 5.04211)
(6.34523 9.3724e-18 5.56792)
(5.97773 5.3919e-21 6.14304)
(5.5589 -1.86074e-17 6.76184)
(5.01789 1.90034e-17 7.43309)
(4.55364 0 8.02661)
(3.14989 1.95887e-17 8.83803)
(9.98473 8.17303e-19 0.0982896)
(9.97453 2.0619e-19 0.196262)
(9.95016 2.09831e-19 0.29572)
(9.91043 0 0.397919)
(9.85898 0 0.504081)
(9.79769 0 0.615793)
(9.72683 -8.94358e-19 0.734551)
(9.64614 6.77759e-19 0.861578)
(9.55554 -9.2617e-19 0.998091)
(9.45522 -1.18428e-18 1.14541)
(9.34528 -1.31238e-20 1.3049)
(9.22578 1.69584e-18 1.47794)
(9.09678 -1.23032e-19 1.66602)
(8.95836 2.01749e-18 1.87074)
(8.81058 -2.03441e-18 2.09386)
(8.65335 6.43523e-20 2.33717)
(8.48639 0 2.60265)
(8.30956 6.69217e-20 2.89266)
(8.12269 -1.00967e-19 3.21008)
(7.92542 6.83177e-20 3.55819)
(7.71717 -8.72359e-18 3.94077)
(7.49608 8.74519e-18 4.36183)
(7.25956 6.92111e-20 4.82631)
(7.00418 0 5.34062)
(6.72433 -2.31022e-19 5.91164)
(6.4089 1.36193e-19 6.54642)
(6.05066 -1.60827e-17 7.24645)
(5.5602 1.67932e-17 8.03399)
(5.16676 -4.93782e-19 8.78445)
(3.65491 1.63792e-17 9.85102)
(9.98509 0 0.103608)
(9.97578 2.05004e-19 0.206933)
(9.95324 2.07918e-19 0.311917)
(9.91649 -8.43392e-19 0.419779)
(9.86884 4.27482e-19 0.531774)
(9.81199 8.70926e-19 0.649577)
(9.74642 -2.20634e-18 0.774721)
(9.672 8.94904e-19 0.908445)
(9.58866 1.1408e-18 1.05199)
(9.49663 9.33784e-19 1.20672)
(9.39613 -1.8746e-18 1.37399)
(9.28728 2.39604e-19 1.55524)
(9.17024 1.21619e-19 1.752)
(9.0452 1.9702e-18 1.96589)
(8.91239 2.00762e-18 2.19876)
(8.77211 -4.0647e-20 2.4526)
(8.62421 -4.05795e-18 2.72947)
(8.46853 0 3.03178)
(8.30531 4.16656e-18 3.36266)
(8.13464 -8.28686e-18 3.72571)
(7.95631 1.24349e-17 4.12511)
(7.76958 -8.53286e-18 4.56578)
(7.5733 2.52818e-19 5.05398)
(7.36537 -8.04338e-18 5.59771)
(7.14185 7.76562e-18 6.2065)
(6.89383 0 6.89306)
(6.61939 -4.79852e-19 7.66948)
(6.21903 0 8.57847)
(5.94122 4.50519e-19 9.54167)
(4.33314 8.97125e-20 11.063)
(9.98541 -9.06837e-19 0.108565)
(9.97705 1.02031e-19 0.216923)
(9.95658 0 0.32695)
(9.92305 -4.18955e-19 0.439968)
(9.87927 8.49183e-19 0.557343)
(9.82694 -4.30022e-19 0.680755)
(9.76689 8.73691e-19 0.811715)
(9.69898 -1.33032e-18 0.951489)
(9.62313 1.11979e-18 1.10136)
(9.5397 -1.82899e-18 1.26269)
(9.44896 1.84458e-18 1.43686)
(9.35111 0 1.62533)
(9.24644 1.90268e-18 1.82964)
(9.13527 -1.91443e-18 2.05145)
(9.0179 3.88808e-18 2.29257)
(8.89491 -3.66193e-18 2.55511)
(8.76665 -3.94827e-18 2.84132)
(8.63305 7.67557e-18 3.15364)
(8.49466 -3.96766e-18 3.4952)
(8.35222 4.20925e-18 3.86979)
(8.20604 -3.95348e-18 4.28176)
(8.05657 2.47635e-19 4.73652)
(7.9045 -7.18964e-19 5.24113)
(7.75002 6.99855e-18 5.80467)
(7.5927 2.86117e-19 6.43855)
(7.42917 -7.09717e-18 7.15979)
(7.26905 7.19084e-18 7.99076)
(7.02628 -4.71953e-19 8.99432)
(6.9847 -5.77833e-18 10.185)
(5.34091 -7.43467e-20 12.6947)
(-0.0222662 -1.08754e-18 0.234207)
(-0.651154 8.71319e-19 0.43771)
(-1.47855 -9.15982e-19 0.479471)
(-2.40484 6.28375e-19 0.48307)
(-3.39902 -3.54641e-20 0.470371)
(-4.42896 -2.81706e-20 0.449102)
(-5.46807 -1.66767e-22 0.422666)
(-6.49515 0 0.392764)
(-7.49367 0 0.360336)
(-8.45055 0 0.325924)
(-9.35559 0 0.289847)
(-10.2008 -7.455e-20 0.252278)
(-10.9784 7.14147e-20 0.213265)
(-11.681 1.00264e-19 0.172805)
(-12.301 -1.49168e-19 0.130834)
(-12.8299 -5.6485e-20 0.0872027)
(-13.2586 9.04072e-20 0.0417129)
(-13.5772 0 -0.00591454)
(-13.7754 0 -0.0562195)
(-13.8411 -5.38277e-20 -0.110323)
(-13.7607 7.93547e-20 -0.170288)
(-13.5146 -2.58158e-20 -0.239848)
(-13.0828 2.10101e-20 -0.320997)
(-12.4446 -2.13244e-20 -0.416977)
(-11.5751 0 -0.533204)
(-10.4345 0 -0.677793)
(-8.93313 1.41087e-22 -0.866913)
(-6.90228 9.64911e-21 -1.14069)
(-4.18333 -2.81584e-21 -1.57164)
(-0.681673 -2.89311e-20 -2.19531)
(-0.302587 3.95136e-18 0.660931)
(-0.931403 -3.44658e-18 0.932607)
(-1.76618 9.28682e-20 1.05107)
(-2.69473 7.77812e-20 1.10799)
(-3.69292 1.9511e-18 1.12831)
(-4.72832 -1.75386e-18 1.12469)
(-5.77395 1.53103e-22 1.1042)
(-6.80822 0 1.07109)
(-7.81419 1.77498e-19 1.02805)
(-8.7784 -1.68224e-19 0.976809)
(-9.69071 1.01629e-20 0.918494)
(-10.5432 -1.17881e-19 0.853649)
(-11.328 -7.12342e-20 0.782286)
(-12.0375 2.37019e-19 0.704268)
(-12.6641 2.35535e-19 0.619272)
(-13.1994 -1.14751e-19 0.526759)
(-13.6345 -9.60567e-20 0.426178)
(-13.9595 0 0.317035)
(-14.1645 0 0.198702)
(-14.2386 1.081e-19 0.0698921)
(-14.1696 -1.11185e-19 -0.071992)
(-13.95 -1.02839e-19 -0.226526)
(-13.5662 5.02174e-20 -0.394505)
(-13.0032 7.40876e-21 -0.579713)
(-12.2453 -2.88895e-20 -0.788503)
(-11.2696 0 -1.02915)
(-10.0252 2.30153e-21 -1.31921)
(-8.42279 -9.47919e-21 -1.7081)
(-6.45268 3.54568e-20 -2.27128)
(-4.70105 -9.65387e-21 -2.91466)
(-0.313951 1.18277e-19 1.26078)
(-0.946015 0 1.59895)
(-1.78781 -2.93038e-18 1.76783)
(-2.69694 4.15246e-20 1.85499)
(-3.66259 1.94551e-18 1.88565)
(-4.65773 2.35186e-20 1.87602)
(-5.6596 -8.43415e-21 1.83654)
(-6.64939 -2.30284e-20 1.77407)
(-7.61205 0 1.69313)
(-8.5357 1.54703e-20 1.59681)
(-9.41183 -5.18627e-20 1.4872)
(-10.2334 -3.99153e-19 1.36527)
(-10.9933 -1.39636e-19 1.23119)
(-11.6846 3.65191e-19 1.0851)
(-12.3001 8.06493e-20 0.926901)
(-12.8316 0 0.75635)
(-13.2704 9.59559e-20 0.573329)
(-13.6071 2.14008e-19 0.37808)
(-13.832 0 0.171257)
(-13.9354 2.24423e-19 -0.0464272)
(-13.9061 -1.12938e-19 -0.274946)
(-13.7384 0 -0.519621)
(-13.4245 1.30448e-20 -0.783778)
(-12.9544 2.51803e-19 -1.07067)
(-12.3198 6.19764e-20 -1.38583)
(-11.5101 9.88071e-20 -1.73513)
(-10.5015 0 -2.12897)
(-9.25413 0 -2.59775)
(-7.81103 -4.51688e-20 -3.18554)
(-6.68445 3.38398e-20 -3.80775)
(-0.213228 0 1.93934)
(-0.808023 -5.66315e-18 2.30403)
(-1.6464 5.57537e-18 2.48855)
(-2.5224 1.29093e-19 2.58415)
(-3.43958 1.00851e-19 2.61336)
(-4.37655 0 2.59322)
(-5.31633 8.1114e-21 2.53603)
(-6.24403 -5.02185e-19 2.45029)
(-7.1473 5.00679e-19 2.34173)
(-8.01708 1.05166e-19 2.21442)
(-8.84673 -1.11457e-19 2.07104)
(-9.62937 4.02522e-19 1.91257)
(-10.3582 -3.30437e-19 1.73912)
(-11.027 4.51126e-19 1.55057)
(-11.6279 -5.66944e-19 1.3463)
(-12.1527 -3.90993e-19 1.12531)
(-12.5924 1.693e-19 0.8865)
(-12.9374 -2.46764e-19 0.629017)
(-13.1785 4.55243e-19 0.352469)
(-13.3063 0 0.0569835)
(-13.3111 -2.30235e-19 -0.257361)
(-13.1892 2.24718e-19 -0.590617)
(-12.9393 1.09948e-20 -0.944786)
(-12.5557 -1.65286e-19 -1.32349)
(-12.0359 1.45408e-19 -1.73247)
(-11.3776 -2.27792e-19 -2.17708)
(-10.5729 1.54915e-19 -2.66266)
(-9.60907 1.14287e-20 -3.20162)
(-8.54274 1.36988e-20 -3.80798)
(-7.76414 -1.17587e-21 -4.39122)
(-0.0502425 0 2.63906)
(-0.576156 -4.76213e-18 3.00575)
(-1.39726 -2.39998e-19 3.18513)
(-2.22674 7.26656e-18 3.27507)
(-3.08542 -3.28653e-18 3.29508)
(-3.95569 -1.74368e-20 3.26153)
(-4.82569 0 3.18693)
(-5.68413 0 3.07968)
(-6.52147 -1.04141e-19 2.94556)
(-7.33137 2.97839e-19 2.78891)
(-8.10835 -2.03193e-19 2.61209)
(-8.84551 0 2.41547)
(-9.53618 0 2.19887)
(-10.1741 1.37615e-19 1.96187)
(-10.7516 -5.20794e-19 1.70356)
(-11.26 0 1.42305)
(-11.6903 2.35855e-19 1.11981)
(-12.0336 4.86583e-19 0.793962)
(-12.2812 0 0.446638)
(-12.425 -5.17231e-19 0.0800427)
(-12.4572 1.03472e-18 -0.303397)
(-12.3746 0 -0.704838)
(-12.1815 -4.10569e-19 -1.12715)
(-11.8762 1.97275e-19 -1.57304)
(-11.4614 -1.45938e-19 -2.04759)
(-10.9404 1.58952e-19 -2.55511)
(-10.3143 -3.64615e-19 -3.09633)
(-9.58401 -9.25186e-20 -3.66972)
(-8.8032 2.86512e-20 -4.26649)
(-8.25455 0 -4.7916)
(0.155216 0 3.32856)
(-0.278813 -2.99476e-19 3.68411)
(-1.07231 2.52954e-19 3.84794)
(-1.84371 0 3.9236)
(-2.63618 2.42271e-18 3.92923)
(-3.43373 -2.27391e-18 3.88064)
(-4.22854 1.19246e-18 3.78946)
(-5.01251 -1.77783e-18 3.66328)
(-5.77911 5.55252e-19 3.50772)
(-6.52393 0 3.32698)
(-7.24194 4.92245e-20 3.12273)
(-7.92688 1.95849e-19 2.89486)
(-8.57265 1.13819e-18 2.64311)
(-9.17295 -1.44637e-18 2.36685)
(-9.72023 3.61995e-19 2.06493)
(-10.2058 0 1.73622)
(-10.6209 -4.63414e-19 1.38008)
(-10.9569 -5.03051e-19 0.99656)
(-11.2052 5.52465e-19 0.586816)
(-11.3584 -1.12772e-18 0.153754)
(-11.4107 8.65276e-19 -0.298432)
(-11.3594 -2.65094e-19 -0.767021)
(-11.2145 -4.82396e-19 -1.25275)
(-10.9778 4.20999e-19 -1.75756)
(-10.6566 0 -2.28614)
(-10.2583 0 -2.84218)
(-9.7884 3.74859e-19 -3.4229)
(-9.25307 9.83418e-20 -4.01612)
(-8.69612 -9.20459e-20 -4.59545)
(-8.31422 -2.37199e-21 -5.06514)
(0.391028 0 3.99138)
(0.0658554 0 4.32485)
(-0.692756 3.11209e-18 4.46698)
(-1.39573 -3.07478e-19 4.52311)
(-2.1151 -2.54423e-18 4.51161)
(-2.83422 -1.48598e-18 4.44763)
(-3.54889 2.37562e-18 4.34121)
(-4.2539 -8.14456e-19 4.19876)
(-4.94559 -1.94648e-21 4.02556)
(-5.62097 0 3.82498)
(-6.27537 0 3.59755)
(-6.9033 8.01356e-19 3.34263)
(-7.49944 -9.83708e-19 3.05969)
(-8.05745 -4.2734e-19 2.74767)
(-8.56971 7.56178e-19 2.40504)
(-9.02769 0 2.03054)
(-9.42284 0 1.62374)
(-9.74642 -5.77703e-19 1.18524)
(-9.98999 1.20041e-18 0.717218)
(-10.1463 0 0.22424)
(-10.2117 6.42009e-19 -0.287103)
(-10.1841 -5.85102e-19 -0.811543)
(-10.0787 2.56647e-19 -1.34813)
(-9.90076 -6.62585e-19 -1.89749)
(-9.66169 8.57808e-20 -2.46422)
(-9.37199 -1.69795e-20 -3.05234)
(-9.03895 -8.22972e-20 -3.65753)
(-8.66908 5.74076e-20 -4.26058)
(-8.29373 4.63172e-20 -4.82162)
(-8.04222 6.13582e-20 -5.24468)
(0.646636 -8.76317e-18 4.61532)
(0.443127 0 4.91628)
(-0.27424 2.03703e-19 5.03257)
(-0.898416 -8.47332e-20 5.06622)
(-1.53772 1.77406e-18 5.03676)
(-2.1723 -2.97134e-18 4.95824)
(-2.8019 5.35591e-19 4.83878)
(-3.42397 6.14439e-19 4.68322)
(-4.0371 -3.25899e-20 4.49616)
(-4.63927 0 4.27968)
(-5.22661 -1.04753e-18 4.03327)
(-5.79438 1.72364e-18 3.75584)
(-6.33763 -1.12891e-18 3.44646)
(-6.8502 4.0251e-19 3.10358)
(-7.32462 4.67919e-19 2.72534)
(-7.75256 -1.0836e-18 2.31041)
(-8.12563 1.67526e-18 1.85855)
(-8.43469 -6.35571e-19 1.37068)
(-8.67067 -6.48175e-19 0.849748)
(-8.82599 -7.10567e-19 0.301971)
(-8.89814 3.05914e-20 -0.2633)
(-8.88653 -3.43188e-19 -0.836974)
(-8.81114 -2.95542e-19 -1.41524)
(-8.68076 4.847e-19 -1.99732)
(-8.511 2.38598e-19 -2.58834)
(-8.31502 2.5861e-19 -3.19408)
(-8.10094 -3.08666e-19 -3.81115)
(-7.87274 -1.63892e-20 -4.41728)
(-7.6492 -1.8163e-19 -4.96319)
(-7.50734 2.00944e-20 -5.35013)
(0.912501 -2.60237e-19 5.1884)
(0.840969 0 5.44796)
(0.171297 -1.6248e-19 5.53608)
(-0.362987 4.03905e-18 5.54607)
(-0.914904 -3.89571e-18 5.49957)
(-1.45846 6.69592e-20 5.40839)
(-1.99805 3.45406e-19 5.27874)
(-2.53357 -3.88616e-19 5.11384)
(-3.06509 4.58838e-20 4.91695)
(-3.59124 0 4.68874)
(-4.109 -8.10853e-19 4.42786)
(-4.61438 1.26574e-18 4.13277)
(-5.10259 0 3.80192)
(-5.56775 -2.29518e-18 3.43323)
(-6.00289 8.6508e-19 3.02452)
(-6.40004 0 2.57426)
(-6.75072 -6.16604e-19 2.08216)
(-7.04522 6.72277e-19 1.54931)
(-7.27306 -7.50734e-19 0.979495)
(-7.42527 7.60132e-19 0.38098)
(-7.49979 -1.53791e-18 -0.233292)
(-7.49772 2.4985e-18 -0.849816)
(-7.4437 1.62558e-20 -1.46124)
(-7.34987 2.89483e-19 -2.06483)
(-7.23611 2.38679e-20 -2.66702)
(-7.11814 0 -3.27674)
(-7.00466 0 -3.89388)
(-6.89717 -1.9258e-20 -4.49713)
(-6.80315 -5.7759e-21 -5.03243)
(-6.76036 -8.67609e-20 -5.39417)
(1.18 0 5.69978)
(1.2496 0 5.91023)
(0.634207 8.97997e-20 5.96934)
(0.202135 -3.43376e-18 5.9559)
(-0.25473 2.1641e-18 5.89471)
(-0.700753 1.13171e-18 5.79393)
(-1.14583 -7.75486e-20 5.65779)
(-1.59164 1.14637e-19 5.48782)
(-2.03914 0 5.28546)
(-2.48731 0 5.05006)
(-2.93369 0 4.77951)
(-3.37475 0 4.47174)
(-3.80606 0 4.12463)
(-4.22216 2.08419e-18 3.73551)
(-4.61682 -1.54027e-18 3.30192)
(-4.98279 0 2.82195)
(-5.3116 0 2.29485)
(-5.59295 -7.76151e-19 1.72163)
(-5.81408 -2.93485e-20 1.10657)
(-5.96315 0 0.460265)
(-6.03759 -8.98738e-19 -0.199658)
(-6.04072 -7.85069e-19 -0.854336)
(-6.00233 -1.03536e-18 -1.49202)
(-5.9364 3.09269e-20 -2.10742)
(-5.8667 2.95585e-19 -2.70906)
(-5.81118 -9.39443e-20 -3.31042)
(-5.77945 -5.60877e-19 -3.91643)
(-5.77199 -2.20653e-20 -4.50998)
(-5.78747 2.61676e-19 -5.03776)
(-5.84022 1.09599e-19 -5.38515)
(1.44028 0 6.13976)
(1.66045 4.75273e-18 6.29389)
(1.10588 -6.40984e-19 6.32384)
(0.790337 -5.46173e-18 6.28836)
(0.436207 1.61071e-18 6.21608)
(0.0939693 0 6.11018)
(-0.252973 0 5.97245)
(-0.606751 7.61413e-19 5.80238)
(-0.968684 -7.48368e-19 5.59939)
(-1.33765 1.24757e-18 5.36162)
(-1.71126 -2.35574e-18 5.08636)
(-2.08616 3.00847e-18 4.77094)
(-2.45834 3.35381e-19 4.41298)
(-2.82305 -8.35614e-19 4.00919)
(-3.17492 -1.16191e-18 3.55679)
(-3.50772 0 3.05336)
(-3.81375 1.60307e-18 2.4972)
(-4.08253 -8.10566e-19 1.88856)
(-4.29847 1.83348e-18 1.23149)
(-4.44506 0 0.539027)
(-4.51901 -6.81222e-22 -0.164588)
(-4.52663 1.82403e-18 -0.853679)
(-4.50374 8.00751e-19 -1.51183)
(-4.46237 1.38092e-18 -2.13093)
(-4.42891 -1.72187e-18 -2.7225)
(-4.4227 -1.04611e-19 -3.30541)
(-4.45448 8.64167e-19 -3.89044)
(-4.52607 -7.24958e-20 -4.46623)
(-4.62897 0 -4.9858)
(-4.77765 -1.10264e-19 -5.32879)
(1.68261 -5.16522e-18 6.49812)
(2.06572 4.90596e-18 6.58953)
(1.57709 3.48752e-18 6.58993)
(1.39618 -3.19437e-18 6.53551)
(1.15183 6.4181e-19 6.45798)
(0.919006 -7.80227e-19 6.35322)
(0.672498 0 6.21997)
(0.411818 -1.03472e-18 6.05536)
(0.135892 1.68876e-18 5.85676)
(-0.153555 -8.14159e-19 5.6211)
(-0.453733 3.49342e-19 5.34553)
(-0.760767 4.36101e-19 5.02758)
(-1.07094 -5.23771e-19 4.66414)
(-1.38061 0 4.25137)
(-1.68517 6.99674e-19 3.78619)
(-1.9795 -7.8723e-19 3.26547)
(-2.25762 -9.10699e-19 2.68611)
(-2.51027 8.72546e-19 2.04698)
(-2.71886 -6.96095e-21 1.35116)
(-2.861 0 0.613973)
(-2.93613 0 -0.131006)
(-2.95342 -5.10407e-19 -0.849056)
(-2.95434 -3.11853e-18 -1.5215)
(-2.94201 -3.02929e-18 -2.13776)
(-2.94359 1.25195e-18 -2.71266)
(-2.97853 -1.03459e-18 -3.27057)
(-3.05813 0 -3.82771)
(-3.18838 0 -4.37809)
(-3.35249 0 -4.88387)
(-3.59709 0 -5.22979)
(1.89043 -4.66519e-18 6.76498)
(2.45896 4.55414e-18 6.78825)
(2.03551 1.60484e-18 6.75551)
(2.01141 -1.77237e-18 6.68575)
(1.88485 -5.09111e-19 6.61322)
(1.76493 5.6814e-19 6.51836)
(1.61977 -5.1288e-19 6.39753)
(1.45231 1.08243e-18 6.24565)
(1.26268 -1.61122e-18 6.05827)
(1.05347 -6.47164e-19 5.8314)
(0.827625 -3.63334e-19 5.56139)
(0.587627 1.25521e-18 5.2431)
(0.341227 -1.7302e-20 4.87782)
(0.0904664 6.78475e-19 4.46086)
(-0.16088 1.62381e-20 3.98857)
(-0.408712 8.5832e-19 3.45724)
(-0.649597 -9.58041e-19 2.86253)
(-0.878088 -1.0754e-18 2.20168)
(-1.06897 0 1.47364)
(-1.19072 1.26591e-18 0.69096)
(-1.27258 1.34982e-18 -0.0928693)
(-1.31261 0 -0.832717)
(-1.35389 1.98039e-18 -1.51432)
(-1.38314 1.68075e-18 -2.1242)
(-1.42561 -1.41702e-18 -2.67995)
(-1.49973 1.1224e-18 -3.21082)
(-1.61636 9.46987e-20 -3.73784)
(-1.78767 -8.87062e-20 -4.2587)
(-1.98472 0 -4.74228)
(-2.31705 0 -5.09333)
(2.06299 2.63093e-19 6.94318)
(2.77736 5.9284e-18 6.85985)
(2.50276 -1.22305e-19 6.79869)
(2.62391 -4.28726e-19 6.72592)
(2.62912 -1.03964e-18 6.67205)
(2.61911 4.66169e-20 6.59873)
(2.57273 -3.35119e-20 6.49895)
(2.49507 7.54747e-19 6.36613)
(2.38897 5.17257e-19 6.19488)
(2.25834 -9.55641e-19 5.98094)
(2.10733 -3.60353e-19 5.72117)
(1.93899 -4.62489e-19 5.41129)
(1.75901 -1.00584e-20 5.04992)
(1.57106 1.40519e-18 4.6344)
(1.37872 -2.19068e-18 4.16151)
(1.18566 8.76274e-19 3.62774)
(0.99462 -2.04709e-18 3.02865)
(0.804662 2.14342e-18 2.3621)
(0.633034 2.48895e-18 1.63211)
(0.529652 -1.37782e-18 0.850306)
(0.450929 -6.04491e-18 0.0174138)
(0.384071 0 -0.775383)
(0.291701 0 -1.47128)
(0.206796 -1.86764e-18 -2.07769)
(0.114056 1.72217e-18 -2.61781)
(-0.00165229 -1.42347e-18 -3.12482)
(-0.150659 -8.56144e-19 -3.62608)
(-0.34937 -8.05437e-19 -4.11902)
(-0.558479 4.04182e-20 -4.57479)
(-0.949485 -8.21527e-21 -4.92539)
(2.16177 5.88542e-18 7.07277)
(2.95717 0 6.76823)
(2.96274 -1.95375e-19 6.69685)
(3.23036 0 6.64818)
(3.37487 2.68769e-19 6.62837)
(3.47065 -1.22174e-19 6.59074)
(3.51843 -1.22138e-19 6.52279)
(3.52593 6.36783e-19 6.41668)
(3.49923 -8.24015e-19 6.26711)
(3.44396 0 6.07037)
(3.36526 3.49792e-19 5.8237)
(3.26699 -5.1381e-19 5.52372)
(3.15374 2.56921e-18 5.16852)
(3.02972 -1.72652e-18 4.75603)
(2.89868 1.46325e-18 4.28357)
(2.76415 -2.29675e-18 3.74807)
(2.62908 9.17431e-19 3.14572)
(2.49271 -1.95431e-18 2.47424)
(2.36358 -1.10743e-18 1.73805)
(2.27209 2.3939e-18 0.949549)
(2.19659 3.91602e-18 0.123433)
(2.09118 0 -0.675566)
(1.9568 1.9741e-18 -1.38007)
(1.81275 2.09486e-18 -1.98841)
(1.66332 -1.79902e-18 -2.52319)
(1.50199 1.29289e-18 -3.01738)
(1.32162 -1.27776e-19 -3.4971)
(1.1074 6.45786e-19 -3.96602)
(0.888454 8.35454e-21 -4.39242)
(0.499842 -8.08242e-21 -4.72823)
(9.98557 3.32777e-21 0.113241)
(9.97843 -1.95272e-19 0.226337)
(9.96029 -1.95661e-19 0.341008)
(9.93003 -8.01718e-19 0.458811)
(9.89018 4.05871e-19 0.581241)
(9.84262 1.2354e-18 0.709873)
(9.7884 -1.25227e-18 0.846175)
(9.72733 -1.73116e-21 0.991466)
(9.65939 4.2554e-19 1.14706)
(9.58505 -1.74116e-18 1.31431)
(9.50464 1.75496e-18 1.49462)
(9.41846 1.78362e-18 1.68943)
(9.32694 -1.7948e-18 1.90028)
(9.23053 0 2.12882)
(9.12968 3.89622e-18 2.37686)
(9.02511 -3.91276e-18 2.64645)
(8.91748 2.29637e-19 2.93992)
(8.8073 4.0566e-21 3.2598)
(8.69559 4.58887e-19 3.60912)
(8.58356 3.90471e-18 3.99154)
(8.4723 -2.30192e-20 4.4113)
(8.36356 -3.61723e-18 4.87379)
(8.26003 4.47711e-19 5.38605)
(8.1649 4.35402e-19 5.95696)
(8.0827 7.24058e-18 6.59772)
(8.01924 -6.31189e-18 7.32507)
(8.00414 -7.38588e-19 8.16257)
(8.01077 0 9.1646)
(8.64377 0 10.3299)
(9.03828 0 12.793)
(9.98564 7.5351e-19 0.117645)
(9.98003 7.56954e-19 0.235135)
(9.96439 1.53515e-18 0.354085)
(9.93739 -7.75314e-19 0.476318)
(9.90162 0 0.603418)
(9.85914 -3.99969e-19 0.736804)
(9.81101 0 0.877902)
(9.75706 -4.10327e-19 1.0281)
(9.69735 0 1.18872)
(9.63241 0 1.36111)
(9.56269 0 1.54664)
(9.48858 -4.25343e-19 1.74675)
(9.41067 0 1.96294)
(9.3295 1.74115e-18 2.19684)
(9.24578 -1.96716e-18 2.45019)
(9.16038 -3.51488e-18 2.72498)
(9.07397 2.85956e-18 3.02337)
(8.9879 2.21742e-19 3.3479)
(8.90378 -3.93456e-18 3.70144)
(8.82318 3.03969e-18 4.08726)
(8.74797 0 4.50915)
(8.68117 8.27632e-19 4.97183)
(8.62727 -3.23024e-18 5.48133)
(8.59198 3.18366e-18 6.04476)
(8.58399 2.89671e-18 6.67018)
(8.61605 -1.53238e-19 7.36768)
(8.72699 -3.88536e-18 8.1472)
(8.88639 1.09705e-18 9.02115)
(9.41378 -9.30502e-19 9.93326)
(9.85948 0 10.96)
(9.98568 -9.11489e-20 0.121694)
(9.9818 -6.4621e-19 0.243162)
(9.96872 -3.74316e-19 0.366029)
(9.94497 1.13069e-18 0.492301)
(9.91347 7.63721e-19 0.62361)
(9.87636 -1.15662e-18 0.761239)
(9.83457 0 0.906575)
(9.78799 -3.93666e-19 1.06105)
(9.7368 1.20235e-18 1.22599)
(9.68157 -1.61217e-18 1.4027)
(9.62284 0 1.59252)
(9.56113 -1.23246e-18 1.79685)
(9.49715 1.2419e-18 2.01714)
(9.43157 0 2.25493)
(9.36535 -3.75815e-18 2.51191)
(9.29945 3.34737e-18 2.7899)
(9.23479 4.17795e-18 3.09083)
(9.17332 -3.33601e-18 3.417)
(9.11702 0 3.77099)
(9.06788 -3.25205e-18 4.15556)
(9.02853 6.41754e-18 4.57375)
(9.00288 -4.72741e-18 5.02909)
(8.99634 0 5.5258)
(9.01574 7.16324e-19 6.06823)
(9.07064 -7.04331e-19 6.65984)
(9.172 1.24461e-18 7.30225)
(9.34633 -1.24202e-20 7.99119)
(9.55638 -1.0644e-18 8.70811)
(9.90885 9.13995e-19 9.42812)
(10.3716 7.26428e-19 10.1803)
(9.98578 -7.95247e-19 0.125325)
(9.98367 8.02364e-19 0.250329)
(9.9732 0 0.37673)
(9.95272 -3.69818e-19 0.506588)
(9.92563 1.10662e-18 0.641542)
(9.89411 7.5077e-19 0.782821)