/*--------------------------------*- C++ -*----------------------------------*\
| =========                 |                                                 |
| \\      /  F ield         | OpenFOAM: The Open Source CFD Toolbox           |
|  \\    /   O peration     | Version:  dev                                   |
|   \\  /    A nd           | Web:      www.OpenFOAM.org                      |
|    \\/     M anipulation  |                                                 |
\*---------------------------------------------------------------------------*/
FoamFile
{
    version     2.0;
    format      ascii;
    class       volVectorField;
    location    "0.7";
    object      U;
}
// * * * * * * * * * * * * * * * * * * * * * * * * * * * * * * * * * * * * * //

dimensions      [0 1 -1 0 0 0 0];

internalField   nonuniform List<vector> 
2790
(
(9.93238 -9.13602e-21 0.0191771)
(9.8642 0 0.02721)
(9.76855 0 0.0327037)
(9.64814 0 0.0383146)
(9.51043 -5.24317e-21 0.0441539)
(9.35774 0 0.0502059)
(9.18937 0 0.0566011)
(9.00422 1.18496e-20 0.0634846)
(8.80143 -1.2224e-20 0.0709831)
(8.58016 -3.99923e-22 0.0792179)
(8.3394 0 0.0883128)
(8.07794 -2.80654e-20 0.0983998)
(7.79447 3.25914e-20 0.109619)
(7.48755 0 0.122117)
(7.15572 0 0.13604)
(6.79748 6.72303e-20 0.151531)
(6.41142 -8.68587e-20 0.168721)
(5.99629 0 0.187697)
(5.55114 0 0.208486)
(5.07555 -4.01672e-20 0.231044)
(4.56981 4.20577e-20 0.255221)
(4.03506 -1.77165e-19 0.280706)
(3.47362 2.28768e-19 0.306937)
(2.88932 0 0.333011)
(2.28798 3.99835e-19 0.357522)
(1.67768 -4.10789e-19 0.378024)
(1.06841 4.25215e-19 0.388035)
(0.465352 -3.24816e-19 0.356621)
(-0.13449 4.38809e-19 0.0848651)
(-0.033526 -3.41552e-19 -0.205294)
(9.99298 -6.82702e-21 0.0384568)
(9.98151 -2.34981e-21 0.0569939)
(9.94457 0 0.0707211)
(9.88138 0 0.0852203)
(9.79827 1.56787e-20 0.100745)
(9.6977 1.09434e-20 0.117184)
(9.57921 -2.24766e-20 0.134788)
(9.44184 4.71485e-20 0.153865)
(9.28482 -9.7696e-20 0.174696)
(9.10737 5.09986e-20 0.197552)
(8.90855 5.16825e-20 0.222713)
(8.68722 -5.84267e-20 0.250469)
(8.44208 -3.60913e-21 0.281121)
(8.17173 1.50592e-20 0.314966)
(7.87465 1.42708e-19 0.352274)
(7.54932 -1.30902e-19 0.393271)
(7.1942 1.72483e-20 0.438103)
(6.80788 -2.90836e-19 0.486756)
(6.38913 2.99933e-19 0.538972)
(5.93716 1.18422e-19 0.594215)
(5.45183 -4.13428e-20 0.651581)
(4.93378 -8.61925e-20 0.709626)
(4.3848 -4.50699e-20 0.766159)
(3.80806 0 0.817978)
(3.20886 -7.82314e-19 0.8605)
(2.59542 1.61172e-18 0.886825)
(1.98022 -8.27657e-19 0.884506)
(1.37327 1.05944e-19 0.824559)
(0.794171 0 0.64003)
(0.427114 -1.12904e-19 0.213976)
(9.9901 1.36784e-20 0.0405175)
(9.97588 4.69276e-21 0.0673441)
(9.94115 0 0.090046)
(9.8827 -2.01115e-20 0.113939)
(9.80562 -1.04402e-20 0.139609)
(9.71247 -3.26588e-20 0.167017)
(9.6031 3.36019e-20 0.196485)
(9.47667 -4.70128e-20 0.228444)
(9.33255 4.84476e-20 0.263326)
(9.17011 1.00322e-19 0.301568)
(8.9886 -2.07877e-19 0.343629)
(8.78705 1.05964e-19 0.389995)
(8.56435 -2.45394e-19 0.441177)
(8.31926 4.64241e-19 0.497685)
(8.05043 -1.21864e-20 0.560002)
(7.75642 -2.26906e-19 0.628547)
(7.43574 3.40667e-20 0.70363)
(7.08689 0 0.785337)
(6.70837 0 0.873368)
(6.29882 -7.80362e-20 0.96695)
(5.85731 0 1.06471)
(5.38342 8.50199e-20 1.16438)
(4.8774 0 1.26249)
(4.3404 -1.47822e-18 1.35383)
(3.77473 3.05072e-18 1.43083)
(3.18421 -1.5716e-18 1.48242)
(2.57348 -1.62828e-18 1.4913)
(1.9427 2.91134e-18 1.42758)
(1.26743 -1.69187e-18 1.25097)
(0.712751 0 0.91931)
(9.98828 0 0.0450377)
(9.9717 -1.86959e-20 0.0817543)
(9.93682 -5.81164e-20 0.114816)
(9.87953 2.00949e-20 0.148462)
(9.80399 0 0.183889)
(9.71277 0 0.221436)
(9.60595 2.24392e-20 0.26159)
(9.48286 0 0.304932)
(9.34299 0 0.352054)
(9.18594 -1.57132e-21 0.403559)
(9.01116 -1.64313e-21 0.460081)
(8.81797 2.20247e-19 0.522298)
(8.60554 -1.98227e-19 0.590916)
(8.37298 0 0.666652)
(8.11931 -2.49873e-19 0.750206)
(7.84346 2.24778e-19 0.842217)
(7.54427 -5.7828e-19 0.943215)
(7.2206 6.23882e-20 1.05352)
(6.87106 6.58177e-19 1.17302)
(6.49412 -6.18489e-19 1.30096)
(6.08847 6.36156e-19 1.43587)
(5.65281 1.34211e-18 1.57516)
(5.18595 -1.55218e-18 1.71474)
(4.68669 1.44793e-18 1.84842)
(4.15367 -1.72469e-19 1.96713)
(3.58499 -1.53641e-18 2.05814)
(2.97673 -3.18714e-18 2.10373)
(2.3206 3.45425e-18 2.07877)
(1.57442 2.07048e-19 1.96125)
(0.885747 3.51885e-18 1.72765)
(9.98733 -9.07818e-21 0.0510959)
(9.96943 4.67789e-20 0.0963023)
(9.93436 3.87164e-20 0.138402)
(9.87804 1.40874e-22 0.180842)
(9.80397 -8.31073e-20 0.225272)
(9.71455 4.29603e-20 0.27239)
(9.61001 -1.11926e-20 0.322818)
(9.48973 0 0.377234)
(9.35327 -9.70459e-20 0.436321)
(9.20033 3.11231e-19 0.500774)
(9.03048 -4.17975e-19 0.57135)
(8.84319 2.29863e-19 0.648861)
(8.63783 -5.20593e-23 0.734131)
(8.41376 2.94268e-20 0.828)
(8.17028 -4.95099e-19 0.931326)
(7.90664 5.09262e-19 1.04492)
(7.62198 0 1.16946)
(7.31554 4.91043e-19 1.30551)
(6.98626 -7.2168e-19 1.45325)
(6.63267 -1.36776e-18 1.61212)
(6.25331 1.2506e-18 1.78074)
(5.84641 0 1.95666)
(5.40964 1.70541e-19 2.13586)
(4.93988 1.7525e-19 2.31216)
(4.43272 3.64281e-19 2.47653)
(3.882 0 2.61672)
(3.27844 -1.92775e-19 2.71717)
(2.61062 1.97766e-19 2.75817)
(1.83601 -1.8545e-21 2.72535)
(1.05371 3.01332e-18 2.61302)
(9.98682 9.05535e-21 0.057881)
(9.96832 2.79459e-20 0.110887)
(9.9334 0 0.161532)
(9.87822 3.9992e-20 0.2127)
(9.80592 0 0.266153)
(9.71869 0 0.322794)
(9.6168 2.2246e-20 0.383356)
(9.49973 0 0.448604)
(9.36708 0 0.5193)
(9.21858 1.88237e-19 0.596225)
(9.05388 -2.06533e-19 0.680254)
(8.87255 -2.23928e-19 0.77232)
(8.67408 2.09289e-19 0.873352)
(8.45795 -2.92873e-20 0.984287)
(8.22362 0 1.10612)
(7.97055 -6.31329e-20 1.2398)
(7.69805 0 1.38615)
(7.40544 0 1.54594)
(7.09201 1.42759e-19 1.71965)
(6.75651 1.49076e-19 1.90707)
(6.39734 1.24182e-18 2.10711)
(6.01242 1.2739e-18 2.31773)
(5.59869 1.65101e-19 2.53553)
(5.15176 -1.72711e-19 2.7551)
(4.66526 -2.04273e-21 2.96843)
(4.13051 3.12108e-18 3.16469)
(3.53578 -2.814e-18 3.33057)
(2.86897 -1.94322e-19 3.44963)
(2.1001 -1.98299e-19 3.50371)
(1.2434 6.27838e-19 3.51253)
(9.98658 0 0.0649883)
(9.968 -1.11546e-19 0.125453)
(9.93357 0 0.184214)
(9.87974 0 0.243827)
(9.80947 0 0.306019)
(9.7248 8.58266e-20 0.371832)
(9.62601 -2.2179e-19 0.442128)
(9.51263 9.16795e-20 0.517775)
(9.38436 1.19184e-20 0.599618)
(9.24094 6.2102e-21 0.688527)
(9.08203 -3.21277e-21 0.785475)
(8.90728 0 0.891492)
(8.71632 -4.47756e-19 1.0076)
(8.50868 4.60125e-19 1.13483)
(8.28386 2.99691e-20 1.27426)
(8.04149 4.24979e-22 1.427)
(7.78096 0 1.59404)
(7.50145 -1.08713e-18 1.77626)
(7.20243 1.18457e-18 1.97445)
(6.88287 0 2.18882)
(6.54101 0 2.41881)
(6.17451 0 2.66304)
(5.77997 2.43963e-18 2.91898)
(5.35233 -2.66284e-18 3.18247)
(4.88414 2.59574e-18 3.44699)
(4.36543 -3.00736e-18 3.70321)
(3.78356 0 3.9392)
(3.12497 0 4.14016)
(2.38286 9.4328e-20 4.27501)
(1.45952 -4.03569e-19 4.39475)
(9.98649 8.98815e-20 0.0721756)
(9.96824 5.57074e-20 0.139857)
(9.93461 -3.84033e-20 0.206343)
(9.88232 -1.2759e-23 0.274059)
(9.81436 -4.10294e-20 0.344667)
(9.73262 -1.27932e-19 0.419305)
(9.63736 1.1006e-19 0.498958)
(9.52818 1.83772e-19 0.584591)
(9.40485 -1.77274e-19 0.677125)
(9.26711 1.9792e-19 0.777516)
(9.11466 -6.11205e-19 0.886826)
(8.94725 8.49002e-19 1.00615)
(8.76456 -4.38346e-19 1.13661)
(8.56617 4.88627e-19 1.27934)
(8.35164 -5.02134e-19 1.43552)
(8.12067 1.23242e-19 1.60637)
(7.8727 1.09307e-18 1.79309)
(7.60693 -1.05546e-18 1.99675)
(7.32271 -1.38207e-19 2.21835)
(7.01897 0 2.4586)
(6.69387 0 2.71757)
(6.3449 0 2.99469)
(5.96844 -1.56143e-19 3.28853)
(5.55924 -1.60854e-19 3.59641)
(5.1094 -1.65378e-19 3.91344)
(4.60821 0 4.23165)
(4.0428 -1.7383e-19 4.5396)
(3.39501 5.7588e-18 4.82377)
(2.68986 -5.91271e-18 5.03418)
(1.70133 1.9662e-19 5.25632)
(9.98652 -7.18126e-20 0.0792886)
(9.96885 3.69769e-20 0.153962)
(9.93631 -1.41576e-22 0.227825)
(9.88579 -1.93966e-22 0.30327)
(9.82045 1.22592e-19 0.381935)
(9.74201 8.47137e-20 0.465033)
(9.65065 -1.76155e-19 0.553635)
(9.54613 1.81244e-19 0.648787)
(9.42827 -2.36126e-20 0.751498)
(9.29678 0 0.862812)
(9.15144 -1.26302e-20 0.983857)
(8.99212 -4.22396e-19 1.1158)
(8.8185 4.33651e-19 1.25984)
(8.63021 -2.8336e-20 1.41725)
(8.42689 -2.91598e-20 1.58928)
(8.20817 -1.03724e-18 1.77727)
(7.97359 1.88613e-18 1.98264)
(7.7226 -1.10062e-18 2.20673)
(7.45432 0 2.45079)
(7.16759 0 2.71607)
(6.86042 -2.30888e-18 3.00332)
(6.53002 -2.35895e-18 3.31281)
(6.17271 2.45082e-18 3.64431)
(5.78318 -2.34095e-18 3.99674)
(5.35363 1.62323e-19 4.36709)
(4.87268 2.47731e-18 4.74877)
(4.32738 -2.52174e-18 5.13023)
(3.69087 0 5.49998)
(3.02606 -5.52377e-20 5.78588)
(1.96922 0 6.10914)
(9.98664 -7.13362e-20 0.0862286)
(9.96969 7.34749e-20 0.167651)
(9.93855 -1.90203e-19 0.248551)
(9.89008 -1.18112e-19 0.331338)
(9.82758 8.12358e-20 0.417664)
(9.75275 8.43689e-20 0.508823)
(9.66568 -8.69777e-20 0.605925)
(9.56627 1.81345e-19 0.710085)
(9.45434 -1.86426e-19 0.822424)
(9.32964 1.94646e-19 0.944055)
(9.19206 -1.87316e-19 1.07615)
(9.04155 -4.17838e-19 1.21994)
(8.87778 4.2869e-19 1.37676)
(8.70044 4.48165e-19 1.54795)
(8.5093 -4.16005e-19 1.7349)
(8.30388 0 1.93903)
(8.08381 6.20181e-20 2.16193)
(7.84873 6.41053e-20 2.40523)
(7.5977 6.53858e-20 2.67061)
(7.32963 0 2.95989)
(7.04245 0 3.27458)
(6.73307 -2.30498e-18 3.61582)
(6.39771 2.35243e-18 3.98459)
(6.03099 0 4.38141)
(5.6254 -2.47362e-18 4.80551)
(5.16893 2.67863e-18 5.25218)
(4.64846 -7.91328e-20 5.70987)
(4.0241 0 6.17065)
(3.39967 -7.11836e-20 6.53935)
(2.26707 5.63595e-18 6.9721)
(9.98678 7.12601e-20 0.0929313)
(9.97072 -1.46543e-19 0.180817)
(9.94126 2.52153e-22 0.268401)
(9.89508 1.56884e-19 0.358147)
(9.83561 -8.08178e-20 0.451721)
(9.76466 1.26075e-19 0.550494)
(9.68229 -1.72871e-19 0.655616)
(9.58833 4.47354e-20 0.768259)
(9.48273 -4.62824e-20 0.889635)
(9.36532 -3.8573e-19 1.02091)
(9.23606 -3.2681e-21 1.1633)
(9.09495 3.96727e-19 1.31815)
(8.94171 0 1.48685)
(8.77615 2.138e-22 1.67086)
(8.59817 -2.13304e-20 1.87166)
(8.40726 0 2.09081)
(8.20307 0 2.33003)
(7.98524 -9.71377e-19 2.59122)
(7.75303 -9.0194e-21 2.87652)
(7.50544 1.11834e-18 3.18835)
(7.24059 0 3.52912)
(6.9555 0 3.90095)
(6.64621 2.41942e-18 4.30599)
(6.30725 -2.31485e-18 4.74654)
(5.93123 -2.36072e-18 5.22426)
(5.50547 4.83426e-18 5.73741)
(5.01697 -2.36267e-18 6.27589)
(4.40872 0 6.83732)
(3.82404 -4.90005e-18 7.3062)
(2.60383 5.34424e-18 7.8713)
(9.987 -1.77153e-20 0.0993393)
(9.97194 1.84825e-20 0.193379)
(9.94426 7.54892e-20 0.28728)
(9.9006 -1.5579e-19 0.383589)
(9.84442 1.61101e-19 0.483976)
(9.77765 -2.50063e-19 0.589885)
(9.70029 -4.39213e-20 0.702521)
(9.61212 8.84986e-20 0.823097)
(9.51321 4.61396e-20 0.952879)
(9.40352 -3.34587e-19 1.09309)
(9.28302 7.86804e-19 1.245)
(9.15176 4.12566e-20 1.41002)
(9.0096 -4.18134e-19 1.58963)
(8.85657 4.21461e-19 1.78534)
(8.69261 4.63027e-19 1.99877)
(8.51733 7.32128e-21 2.23167)
(8.33039 -9.30582e-19 2.48588)
(8.13136 -3.06914e-20 2.76347)
(7.9198 -3.19933e-20 3.06704)
(7.69477 -3.28741e-20 3.39955)
(7.45491 0 3.76431)
(7.1978 -3.31884e-20 4.16459)
(6.91946 -2.18574e-18 4.60383)
(6.6147 1.42648e-21 5.08633)
(6.27609 2.25012e-18 5.61651)
(5.89035 -2.29818e-18 6.19695)
(5.44527 2.30028e-18 6.82178)
(4.86398 0 7.49792)
(4.32274 -4.61298e-18 8.09852)
(2.99915 4.92584e-18 8.84634)
(9.98732 1.58391e-19 0.105398)
(9.97326 5.45801e-20 0.205291)
(9.94746 0 0.305117)
(9.90661 7.79273e-20 0.407546)
(9.85399 -1.60154e-19 0.51429)
(9.7916 8.25533e-20 0.626843)
(9.71947 -1.28605e-19 0.746467)
(9.63741 1.76384e-19 0.874395)
(9.5456 0 1.01192)
(9.44401 -3.78473e-19 1.16034)
(9.33271 3.87767e-19 1.32097)
(9.21175 -1.94136e-22 1.49525)
(9.08123 0 1.6847)
(8.94132 4.15255e-19 1.89089)
(8.79194 -1.33745e-18 2.11559)
(8.63305 -6.1863e-21 2.36074)
(8.46453 9.11694e-19 2.62836)
(8.28585 0 2.92062)
(8.09673 -3.07442e-20 3.24042)
(7.89662 -3.14481e-20 3.59127)
(7.68467 0 3.97718)
(7.45934 2.11804e-18 4.40261)
(7.21726 -4.16053e-18 4.87244)
(6.95402 2.12198e-18 5.39305)
(6.66295 0 5.97222)
(6.33086 -2.12229e-18 6.61819)
(5.94752 2.1534e-18 7.33327)
(5.41745 0 8.14025)
(4.93858 0 8.92263)
(3.49622 6.40425e-20 9.96276)
(9.98753 -2.80656e-19 0.111086)
(9.97465 3.6139e-20 0.216493)
(9.95103 3.71621e-20 0.321818)
(9.91318 7.71938e-20 0.42991)
(9.86423 -7.97362e-20 0.542564)
(9.80632 8.20127e-20 0.661268)
(9.73962 -8.55188e-20 0.787315)
(9.66398 2.18666e-19 0.921973)
(9.57956 -1.81349e-19 1.06656)
(9.48644 1.85678e-19 1.22243)
(9.38474 0 1.39092)
(9.2746 3.72921e-19 1.5735)
(9.15628 5.34306e-20 1.7717)
(9.02999 -3.9255e-19 1.98715)
(8.89571 8.53412e-19 2.22169)
(8.75376 -1.80194e-18 2.47739)
(8.60444 -3.28682e-20 2.75648)
(8.44738 9.28881e-19 3.06131)
(8.28233 2.94701e-20 3.39493)
(8.10933 -9.39501e-19 3.76118)
(7.92808 2.95228e-18 4.16457)
(7.73818 1.97941e-18 4.61057)
(7.53766 -9.38849e-20 5.10542)
(7.32361 -1.24358e-19 5.65743)
(7.09173 -2.00222e-18 6.27784)
(6.83127 2.02218e-18 6.98126)
(6.53753 1.70396e-18 7.78209)
(6.1064 -1.97464e-18 8.72722)
(5.74957 0 9.75425)
(4.19032 -3.68686e-18 11.3395)
(9.98756 2.79226e-19 0.116397)
(9.97619 0 0.226884)
(9.95501 -1.48591e-19 0.337282)
(9.92012 1.53205e-19 0.450618)
(9.87491 -1.5816e-19 0.568729)
(9.82169 8.1458e-20 0.693055)
(9.76063 4.07705e-22 0.824918)
(9.69164 -2.60886e-19 0.965643)
(9.61487 3.58293e-19 1.11658)
(9.53047 -6.00709e-19 1.27908)
(9.43868 3.79297e-19 1.45455)
(9.33975 -4.8725e-20 1.64441)
(9.23404 -1.00655e-19 1.85022)
(9.1218 -5.1445e-20 2.07366)
(9.00326 2.66855e-20 2.31659)
(8.87886 2.73641e-20 2.58109)
(8.74929 -8.63886e-19 2.86952)
(8.61458 9.64073e-19 3.18446)
(8.47481 8.39924e-19 3.52906)
(8.33064 -2.9854e-20 3.90725)
(8.18242 -9.53349e-19 4.32369)
(8.03101 0 4.78443)
(7.8764 6.1156e-20 5.29662)
(7.71835 2.4098e-19 5.86995)
(7.55682 0 6.51793)
(7.38764 -2.29669e-19 7.25995)
(7.21959 2.35484e-19 8.12196)
(6.96705 0 9.17393)
(6.88818 0 10.4521)
(5.25863 0 13.2278)
(0.0920292 -2.6741e-19 0.132318)
(-0.505421 -1.27605e-19 0.413277)
(-1.33866 1.19636e-19 0.480448)
(-2.26844 0 0.488206)
(-3.25962 -9.21039e-20 0.472073)
(-4.27751 8.89116e-20 0.445614)
(-5.29629 0 0.414649)
(-6.2968 5.12507e-20 0.381626)
(-7.26486 -5.02051e-20 0.347505)
(-8.18994 -3.51589e-21 0.312593)
(-9.06383 0 0.276879)
(-9.87937 -2.65908e-22 0.240258)
(-10.6301 0 0.202628)
(-11.3095 0 0.163849)
(-11.9102 0 0.123711)
(-12.4239 6.67235e-21 0.0819565)
(-12.8413 0 0.038274)
(-13.152 0 -0.00769725)
(-13.3449 1.82842e-20 -0.0564502)
(-13.4077 1.12276e-22 -0.109009)
(-13.3262 6.54568e-23 -0.167546)
(-13.0792 0 -0.23596)
(-12.6462 -7.57313e-21 -0.315941)
(-12.0059 1.33319e-21 -0.410277)
(-11.1341 -1.32187e-21 -0.524023)
(-9.99027 3.92826e-22 -0.665435)
(-8.49042 -3.91199e-22 -0.851427)
(-6.48782 0 -1.12151)
(-3.83867 -5.32988e-21 -1.54408)
(-0.270737 3.94467e-21 -2.18427)
(-0.267133 5.30903e-19 0.565805)
(-0.842463 -5.42137e-19 0.891661)
(-1.65335 0 1.03553)
(-2.56333 4.10255e-19 1.09761)
(-3.54669 -4.04668e-19 1.11431)
(-4.56634 -3.0058e-19 1.10466)
(-5.59337 3.02526e-19 1.07876)
(-6.60579 0 1.04205)
(-7.58731 7.02864e-20 0.997466)
(-8.52614 -6.55176e-20 0.946579)
(-9.41347 0 0.889984)
(-10.2419 2.6329e-22 0.827763)
(-11.0047 -2.39759e-20 0.759764)
(-11.6955 2.35712e-20 0.685549)
(-12.3068 1.09455e-20 0.604419)
(-12.8304 -6.62175e-21 0.515574)
(-13.2569 3.30936e-20 0.41821)
(-13.5767 -5.08977e-20 0.311643)
(-13.7792 7.67175e-21 0.195238)
(-13.8534 -1.89589e-20 0.0677464)
(-13.786 -9.04958e-21 -0.0738283)
(-13.5684 0 -0.228928)
(-13.186 -1.5165e-20 -0.397874)
(-12.6235 2.56949e-20 -0.583554)
(-11.8653 -1.621e-21 -0.791508)
(-10.8882 2.65567e-21 -1.03033)
(-9.64662 5.83066e-23 -1.31904)
(-8.07131 3.23492e-22 -1.70462)
(-6.17934 1.18999e-20 -2.249)
(-4.50008 -9.3357e-21 -2.8591)
(-0.300809 0 1.12943)
(-0.898619 3.1237e-20 1.52475)
(-1.70555 0 1.72715)
(-2.58634 0 1.82525)
(-3.53056 -3.38876e-19 1.85489)
(-4.50738 3.28972e-19 1.83967)
(-5.49158 -2.68698e-22 1.79415)
(-6.46303 0 1.72725)
(-7.40658 0 1.6444)
(-8.31151 0 1.54879)
(-9.1699 0 1.44178)
(-9.97511 -3.09942e-21 1.32381)
(-10.7209 0 1.19499)
(-11.4011 -1.69873e-20 1.055)
(-12.0086 -6.13784e-20 0.903138)
(-12.5352 7.81779e-20 0.738749)
(-12.9718 0 0.561438)
(-13.309 -5.43426e-20 0.371208)
(-13.5372 5.49124e-20 0.168507)
(-13.6466 -2.04321e-20 -0.0461075)
(-13.6249 -3.87279e-20 -0.272828)
(-13.4651 -5.349e-20 -0.517315)
(-13.1583 3.22859e-20 -0.78235)
(-12.6944 -1.30453e-20 -1.06983)
(-12.0652 2.20234e-20 -1.38382)
(-11.2612 8.83897e-21 -1.72989)
(-10.2636 0 -2.11929)
(-9.04953 -1.29255e-21 -2.57981)
(-7.68575 -6.98283e-21 -3.1422)
(-6.63163 1.99582e-21 -3.71364)
(-0.217128 1.07129e-18 1.7729)
(-0.793281 -9.52311e-19 2.19593)
(-1.59353 3.78627e-20 2.41955)
(-2.43795 5.20559e-20 2.53162)
(-3.33056 7.37089e-19 2.56376)
(-4.24765 0 2.54049)
(-5.17013 0 2.47871)
(-6.08177 1.20992e-20 2.3896)
(-6.97016 -1.17554e-19 2.28037)
(-7.82668 1.25317e-19 2.15525)
(-8.64447 5.88195e-20 2.01608)
(-9.41731 -2.90308e-20 1.86342)
(-10.1392 1.77042e-20 1.69728)
(-10.8038 1.70171e-20 1.51695)
(-11.4038 1.07585e-19 1.32104)
(-11.9308 -1.34506e-19 1.10799)
(-12.3753 -7.16999e-20 0.876514)
(-12.728 1.48054e-19 0.625545)
(-12.9793 -7.63504e-20 0.354382)
(-13.12 3.958e-20 0.0627862)
(-13.1397 3.88816e-20 -0.249622)
(-13.0327 1.11404e-19 -0.583223)
(-12.7964 -5.13409e-20 -0.939193)
(-12.425 1.56213e-20 -1.31916)
(-11.9163 -4.64593e-20 -1.72661)
(-11.2693 -1.19288e-20 -2.16547)
(-10.4811 6.35348e-21 -2.6407)
(-9.55198 2.83639e-21 -3.16254)
(-8.55618 2.79595e-22 -3.73599)
(-7.8389 3.09462e-21 -4.2647)
(-0.0716843 1.01005e-18 2.44524)
(-0.592332 5.70367e-20 2.86877)
(-1.37409 0 3.08883)
(-2.171 0 3.19873)
(-3.0033 0 3.22555)
(-3.8524 0 3.19225)
(-4.70492 4.28519e-19 3.1157)
(-5.54855 -7.49205e-19 3.00733)
(-6.37392 3.26064e-19 2.87471)
(-7.17454 -9.8822e-21 2.72221)
(-7.94419 -1.85162e-20 2.55144)
(-8.6766 3.24951e-20 2.36266)
(-9.36598 4.0614e-20 2.15552)
(-10.0059 1.34409e-19 1.92889)
(-10.5886 -2.61128e-19 1.68107)
(-11.1056 2.49996e-19 1.41057)
(-11.5482 -1.33947e-19 1.11658)
(-11.907 0 0.798924)
(-12.1729 1.7114e-19 0.458262)
(-12.3378 -8.4167e-20 0.0963618)
(-12.3933 0 -0.284785)
(-12.3326 -3.89231e-20 -0.686891)
(-12.1599 0 -1.11214)
(-11.8731 -6.59943e-20 -1.56066)
(-11.4747 2.45124e-20 -2.03437)
(-10.9695 0 -2.53492)
(-10.3627 1.72552e-20 -3.06147)
(-9.66511 -8.87138e-22 -3.61079)
(-8.94343 8.72464e-22 -4.16941)
(-8.44523 -4.31198e-22 -4.64169)
(0.113693 -3.0879e-20 3.11344)
(-0.328528 8.08305e-19 3.52246)
(-1.08089 -1.59757e-18 3.72576)
(-1.81872 7.45682e-19 3.82322)
(-2.58285 0 3.83914)
(-3.35752 4.9369e-19 3.79455)
(-4.13402 -4.83121e-19 3.70493)
(-4.90358 -2.96481e-19 3.58084)
(-5.65976 2.44957e-19 3.42971)
(-6.3978 0 3.25562)
(-7.11197 -3.81065e-20 3.05976)
(-7.79622 1.1952e-19 2.8421)
(-8.44524 2.88781e-20 2.60221)
(-9.05263 -1.9213e-19 2.33869)
(-9.61033 -1.30572e-19 2.04956)
(-10.1103 2.70039e-19 1.73324)
(-10.5443 -1.44027e-19 1.38864)
(-10.9031 8.68078e-20 1.01524)
(-11.1777 -2.68971e-19 0.613548)
(-11.3605 2.75023e-19 0.185879)
(-11.445 -4.5621e-20 -0.264058)
(-11.4229 -2.0324e-21 -0.734091)
(-11.3054 -4.06811e-20 -1.22421)
(-11.0939 9.82211e-20 -1.73342)
(-10.7948 -4.42257e-20 -2.26248)
(-10.4167 1.26634e-20 -2.8113)
(-9.968 -2.83737e-20 -3.37461)
(-9.46226 -2.10224e-20 -3.93894)
(-8.95348 -2.51252e-22 -4.47685)
(-8.61282 6.92779e-22 -4.89728)
(0.325921 -9.06726e-19 3.75669)
(-0.0223575 2.47413e-18 4.13984)
(-0.735858 -1.59749e-18 4.31882)
(-1.40317 4.05632e-20 4.39791)
(-2.09132 8.79887e-21 4.40004)
(-2.78509 -4.49812e-19 4.34419)
(-3.47996 4.40964e-19 4.24355)
(-4.17027 1.94703e-20 4.10724)
(-4.85228 3.13024e-20 3.9421)
(-5.52229 0 3.75122)
(-6.17523 0 3.53496)
(-6.80571 1.18184e-19 3.293)
(-7.40856 -7.70844e-20 3.02461)
(-7.97726 -5.25186e-20 2.72791)
(-8.50394 -1.20447e-20 2.40064)
(-8.98085 1.34849e-19 2.04122)
(-9.39996 0 1.64868)
(-9.75227 -8.80011e-20 1.22269)
(-10.0289 1.845e-19 0.7645)
(-10.2229 2.88473e-21 0.277757)
(-10.3301 -9.63449e-20 -0.231685)
(-10.3398 -9.46517e-20 -0.758725)
(-10.2692 8.72883e-20 -1.30156)
(-10.1232 -4.2646e-20 -1.85769)
(-9.91256 -4.8636e-20 -2.42703)
(-9.6482 1.41114e-20 -3.00898)
(-9.33896 -7.68788e-21 -3.59598)
(-8.99623 1.82374e-22 -4.16752)
(-8.65996 2.65929e-21 -4.68505)
(-8.44178 -4.82658e-22 -5.06213)
(0.554483 -1.74421e-18 4.35836)
(0.310608 1.5093e-18 4.70623)
(-0.354635 -2.7578e-18 4.85635)
(-0.93942 1.86394e-18 4.91426)
(-1.54342 -5.89278e-19 4.90234)
(-2.1495 0 4.83671)
(-2.75732 2.03634e-20 4.7279)
(-3.36404 2.73405e-20 4.58324)
(-3.96783 5.26423e-20 4.40847)
(-4.56565 -7.17333e-20 4.20526)
(-5.15315 0 3.97319)
(-5.72572 0 3.71173)
(-6.27819 -3.94657e-20 3.41969)
(-6.80391 1.11324e-19 3.09475)
(-7.29551 -1.3639e-19 2.73459)
(-7.74574 0 2.33776)
(-8.14644 0 1.90327)
(-8.48877 -1.93084e-19 1.43095)
(-8.76372 -5.72452e-21 0.922497)
(-8.96407 1.06428e-19 0.382513)
(-9.08719 -1.02004e-19 -0.181152)
(-9.12005 2.431e-19 -0.759077)
(-9.08617 -1.34872e-19 -1.34591)
(-8.99421 7.82643e-20 -1.93758)
(-8.85932 0 -2.53391)
(-8.69486 5.86116e-20 -3.13563)
(-8.50864 0 -3.73571)
(-8.30737 2.90581e-20 -4.31017)
(-8.1168 -2.09999e-21 -4.81173)
(-8.00107 -1.21088e-20 -5.15493)
(0.790538 0 4.90265)
(0.658245 -4.33609e-20 5.20835)
(0.0512417 3.93186e-20 5.32757)
(-0.438041 8.68312e-21 5.36412)
(-0.949336 4.58749e-19 5.34019)
(-1.46084 -4.48713e-19 5.26774)
(-1.97669 -2.07042e-20 5.15453)
(-2.4961 -2.77896e-20 5.00586)
(-3.0184 -7.69922e-21 4.82596)
(-3.54105 1.2624e-21 4.61507)
(-4.06028 1.06213e-19 4.37202)
(-4.57204 -2.68827e-19 4.09602)
(-5.07124 1.61604e-19 3.78535)
(-5.55148 -5.89445e-20 3.43734)
(-6.00596 7.15751e-20 3.04963)
(-6.42787 -1.8172e-19 2.62075)
(-6.809 1.79107e-19 2.14957)
(-7.1403 0 1.63603)
(-7.41202 1.05156e-19 1.08217)
(-7.61587 -2.20472e-19 0.493568)
(-7.7493 0 -0.119789)
(-7.79647 5.10093e-20 -0.742698)
(-7.78815 -4.97754e-20 -1.365)
(-7.73739 8.88406e-20 -1.9811)
(-7.66399 0 -2.59128)
(-7.58422 -7.2846e-20 -3.19954)
(-7.50521 1.34475e-20 -3.80246)
(-7.42806 0 -4.37656)
(-7.36486 4.05865e-20 -4.86835)
(-7.34133 1.14487e-20 -5.18752)
(1.02672 1.42025e-18 5.37444)
(1.01119 -1.29479e-18 5.63348)
(0.473077 -2.13512e-20 5.72212)
(0.0934591 -8.80779e-21 5.73947)
(-0.316541 -2.71798e-20 5.70752)
(-0.726896 -2.14536e-20 5.6329)
(-1.14658 0 5.52022)
(-1.57586 1.66901e-20 5.37241)
(-2.01429 5.37145e-21 5.19207)
(-2.45966 0 4.97832)
(-2.90871 -6.78545e-20 4.72933)
(-3.35762 1.876e-19 4.44391)
(-3.80132 -1.83979e-19 4.11979)
(-4.23407 0 3.7542)
(-4.64995 -8.21219e-20 3.34481)
(-5.04255 1.00282e-19 2.88967)
(-5.40407 -8.3003e-20 2.38737)
(-5.72497 -4.32593e-19 1.8377)
(-5.99392 1.05227e-19 1.2427)
(-6.20017 -2.84666e-21 0.608755)
(-6.33746 1.16026e-19 -0.0511923)
(-6.3959 1.12979e-19 -0.715162)
(-6.40338 0 -1.36626)
(-6.38183 4.02441e-21 -1.99688)
(-6.35515 0 -2.6084)
(-6.34345 -1.20708e-19 -3.20999)
(-6.35465 -1.45504e-20 -3.80477)
(-6.38552 0 -4.37409)
(-6.43587 -8.64468e-20 -4.86216)
(-6.50153 0 -5.16776)
(1.25651 1.40168e-18 5.75861)
(1.36201 -1.2775e-19 5.96892)
(0.903808 -2.28022e-18 6.02927)
(0.649687 1.06605e-18 6.03199)
(0.348952 7.81223e-20 5.99823)
(0.0455037 6.06728e-20 5.92774)
(-0.274883 0 5.82167)
(-0.61226 -1.70186e-20 5.68033)
(-0.965684 2.95448e-22 5.50448)
(-1.33255 -1.69473e-20 5.29284)
(-1.70993 0 5.04317)
(-2.09418 -2.09081e-19 4.75357)
(-2.48027 2.04911e-19 4.42126)
(-2.86292 0 4.04376)
(-3.23739 2.67056e-19 3.619)
(-3.59828 -8.61207e-20 3.1441)
(-3.93876 1.0459e-19 2.61697)
(-4.24949 -1.16526e-19 2.03665)
(-4.51712 2.39887e-19 1.40439)
(-4.72671 -1.23127e-19 0.727131)
(-4.8664 1.25315e-19 0.0224013)
(-4.93374 -5.34432e-20 -0.680324)
(-4.95229 5.54123e-20 -1.35584)
(-4.95277 -1.40888e-19 -1.99295)
(-4.96112 4.47257e-20 -2.59491)
(-5.00127 1.5305e-19 -3.17738)
(-5.08387 -1.16522e-19 -3.75222)
(-5.20489 6.98861e-20 -4.30965)
(-5.35476 9.55388e-20 -4.7976)
(-5.51222 0 -5.10088)
(1.47339 -1.26461e-18 6.03815)
(1.70506 2.33159e-18 6.20142)
(1.33646 -1.11897e-18 6.2371)
(1.22674 -5.76045e-20 6.23299)
(1.04165 -4.15045e-21 6.20716)
(0.849374 -2.8815e-19 6.14891)
(0.629801 2.20796e-19 6.05654)
(0.384954 8.46197e-21 5.92785)
(0.116496 2.25167e-21 5.76153)
(-0.171782 -9.14376e-20 5.55642)
(-0.47656 -1.06234e-19 5.31052)
(-0.79438 0 5.02127)
(-1.12044 -2.1998e-19 4.68606)
(-1.44924 1.10282e-19 4.3029)
(-1.77719 7.45744e-20 3.8693)
(-2.10058 0 3.38156)
(-2.41419 0 2.83669)
(-2.71039 1.18143e-19 2.23236)
(-2.97473 -1.23719e-19 1.56801)
(-3.18744 -1.287e-19 0.849492)
(-3.33266 1.59894e-21 0.0991472)
(-3.40876 5.94799e-20 -0.641579)
(-3.44239 -2.85808e-19 -1.33701)
(-3.46698 0 -1.97428)
(-3.50634 1.78106e-19 -2.55878)
(-3.58661 -1.49244e-19 -3.11253)
(-3.72214 1.2719e-19 -3.65657)
(-3.91275 -9.50627e-20 -4.1923)
(-4.14286 -5.01173e-20 -4.67852)
(-4.39758 -1.90392e-20 -4.99045)
(1.67181 -1.18543e-18 6.19509)
(2.02633 2.24088e-18 6.31414)
(1.7733 -1.14795e-18 6.33186)
(1.81501 5.83977e-20 6.33224)
(1.75362 2.75861e-19 6.3269)
(1.67255 -5.38189e-19 6.29054)
(1.55383 1.27452e-19 6.21993)
(1.40172 1.0614e-19 6.11126)
(1.21885 0 5.96135)
(1.00998 -1.46105e-19 5.76897)
(0.779477 6.31717e-20 5.53284)
(0.531313 -1.7974e-19 5.25062)
(0.267759 -6.61333e-20 4.91709)
(-0.00611556 0 4.52906)
(-0.282063 -1.39193e-20 4.09087)
(-0.55944 9.20496e-20 3.59604)
(-0.834958 0 3.04)
(-1.10454 -1.25547e-19 2.41819)
(-1.35452 1.31337e-19 1.72552)
(-1.56068 0 0.963007)
(-1.71182 0 0.165821)
(-1.80616 2.55103e-19 -0.599357)
(-1.86929 2.31348e-19 -1.3078)
(-1.93122 0 -1.94055)
(-2.00785 -1.80586e-19 -2.50374)
(-2.12485 1.33912e-19 -3.02427)
(-2.29926 3.65614e-21 -3.53082)
(-2.53858 1.02851e-19 -4.03512)
(-2.82151 -5.63386e-20 -4.51103)
(-3.17656 4.18594e-22 -4.83934)
(1.85475 1.10418e-18 6.21059)
(2.30482 -1.06174e-18 6.27467)
(2.22899 6.52127e-20 6.29819)
(2.41003 0 6.32148)
(2.47705 0 6.35084)
(2.50252 -3.13948e-20 6.34825)
(2.4808 0 6.30789)
(2.41777 -5.59612e-21 6.22548)
(2.31799 -8.05313e-20 6.09735)
(2.18696 9.20002e-20 5.92205)
(2.03008 4.00847e-20 5.6988)
(1.85225 0 5.4261)
(1.65721 0 5.1011)
(1.4478 -1.7968e-19 4.71954)
(1.23022 8.22223e-20 4.2828)
(1.00772 1.06971e-19 3.78809)
(0.783298 0 3.23089)
(0.557829 1.26247e-19 2.60624)
(0.336957 2.97748e-21 1.9109)
(0.154253 -4.08785e-19 1.1446)
(0.0192607 0 0.308868)
(-0.117919 -2.59526e-19 -0.525303)
(-0.230234 0 -1.25398)
(-0.348138 2.16183e-19 -1.88278)
(-0.475771 0 -2.42635)
(-0.634782 -1.79123e-20 -2.91563)
(-0.841706 3.7231e-21 -3.38441)
(-1.1124 1.01701e-20 -3.85202)
(-1.4161 4.735e-21 -4.30421)
(-1.86319 -1.7007e-21 -4.65086)
(2.02983 1.39666e-18 6.01233)
(2.52544 -6.88499e-20 6.03569)
(2.69682 1.75451e-19 6.12816)
(3.00836 -4.34736e-19 6.20046)
(3.20089 1.93802e-19 6.2764)
(3.32728 -6.62687e-20 6.31991)
(3.39704 1.53866e-19 6.31963)
(3.41821 -4.06896e-20 6.2706)
(3.39777 -5.23903e-20 6.16993)
(3.34221 9.81597e-20 6.01654)
(3.25747 5.60522e-20 5.8101)
(3.14897 -1.4843e-19 5.54989)
(3.02134 0 5.23413)
(2.8775 1.78565e-19 4.8596)
(2.72175 2.70792e-20 4.42593)
(2.55827 -2.00355e-19 3.93155)
(2.39064 0 3.37277)
(2.22015 1.2896e-19 2.74485)
(2.04846 -2.61532e-19 2.04483)
(1.89694 4.02102e-19 1.27607)
(1.78239 -1.33268e-19 0.448818)
(1.62082 1.31057e-19 -0.384532)
(1.45234 0 -1.13348)
(1.27064 -1.6383e-19 -1.76932)
(1.08019 -7.16748e-20 -2.30661)
(0.871136 2.14144e-20 -2.77629)
(0.63117 0 -3.21534)
(0.341859 -9.33849e-20 -3.64896)
(0.0390251 5.77842e-20 -4.06926)
(-0.466049 2.04798e-20 -4.4299)
(9.98761 0 0.121395)
(9.9779 0 0.236572)
(9.95919 0 0.351751)
(9.9273 -7.3142e-20 0.470037)
(9.88609 -7.54678e-20 0.593218)
(9.83787 0 0.722723)
(9.78277 -1.60842e-19 0.859918)
(9.72077 -8.39405e-20 1.00617)
(9.65205 5.13264e-19 1.16285)
(9.57685 -2.63546e-19 1.33132)
(9.49553 0 1.51297)
(9.40846 4.67614e-20 1.70922)
(9.31607 4.81308e-22 1.92161)
(9.21876 4.93265e-20 2.15185)
(9.117 0 2.40179)
(9.01145 0 2.67345)
(8.90291 0 2.9692)
(8.79184 -8.79777e-22 3.29174)
(8.67912 1.626e-19 3.64426)
(8.56601 9.8889e-19 4.03051)
(8.45376 -1.00135e-18 4.45506)
(8.34435 -8.89922e-19 4.9238)
(8.24005 2.67423e-18 5.44398)
(8.1444 -1.68558e-18 6.0253)
(8.06301 0 6.6809)
(8.00251 2.18599e-19 7.42969)
(7.99497 -1.18434e-18 8.29857)
(8.02365 1.50564e-18 9.34888)
(8.74366 -3.96829e-19 10.5867)
(9.38929 -4.17133e-19 13.3197)
(9.98784 -1.29562e-19 0.126077)
(9.97965 3.34254e-20 0.245588)
(9.96345 3.45557e-20 0.365242)
(9.9349 1.42383e-19 0.488137)
(9.89795 3.99386e-22 0.615943)
(9.85497 -7.54239e-20 0.750134)
(9.80609 7.81937e-20 0.892127)
(9.75133 0 1.0433)
(9.69094 2.48909e-19 1.20504)
(9.62527 -4.24709e-19 1.37869)
(9.55476 0 1.5656)
(9.47993 -3.5958e-19 1.76718)
(9.4013 5.0526e-19 1.98495)
(9.31942 0 2.22057)
(9.23498 -8.20445e-19 2.47585)
(9.14895 7.87155e-19 2.75275)
(9.06215 0 3.05353)
(8.97549 7.64441e-19 3.38079)
(8.89072 -9.3297e-19 3.73755)
(8.80966 -2.09209e-19 4.12722)
(8.73454 2.10641e-19 4.55398)
(8.66831 -6.30126e-19 5.02284)
(8.61529 1.0542e-18 5.53996)
(8.58237 -1.03259e-18 6.11322)
(8.5798 8.2766e-19 6.75199)
(8.62247 0 7.46739)
(8.75434 3.86796e-19 8.27006)
(8.95373 0 9.17356)
(9.55725 -3.14545e-19 10.1124)
(10.1595 4.30966e-19 11.1521)
(9.98826 1.42126e-19 0.130362)
(9.98139 1.62259e-20 0.25384)
(9.96774 -3.34346e-20 0.377558)
(9.94281 0 0.504631)
(9.91035 7.0722e-20 0.636609)
(9.8728 2.19901e-19 0.774988)
(9.83038 7.5218e-20 0.921226)
(9.78311 0 1.0767)
(9.73133 4.00236e-19 1.24278)
(9.67549 -2.46066e-19 1.42078)
(9.61612 0 1.61201)
(9.55385 0 1.81783)
(9.48931 -8.90414e-20 2.03972)
(9.42322 0 2.27926)
(9.35647 4.65736e-20 2.53814)
(9.29026 0 2.81824)
(9.22552 9.51802e-20 3.12163)
(9.1637 -9.6505e-20 3.45057)
(9.10716 9.75676e-20 3.80772)
(9.05821 2.17166e-21 4.196)
(9.0198 9.62087e-20 4.61885)
(8.99572 -2.02282e-19 5.07997)
(8.99151 -3.96851e-19 5.58348)
(9.01538 1.9267e-19 6.13411)
(9.0783 0 6.73578)
(9.1933 -5.41186e-19 7.38975)
(9.39009 3.63497e-19 8.08949)
(9.63417 0 8.81115)
(10.0304 4.43531e-19 9.51668)
(10.5834 -1.47195e-19 10.224)
(9.98876 1.22006e-19 0.134196)
(9.98327 0 0.261271)
(9.97214 0 0.388572)
(9.95089 1.33393e-19 0.5193)
(9.9231 8.39968e-22 0.654935)
(9.89118 1.42143e-19 0.796943)
(9.8554 -3.65505e-19 0.946802)
(9.81584 2.24872e-19 1.10588)
(9.7729 3.09142e-19 1.2755)
(9.72713 9.87956e-23 1.45694)
(9.67915 -7.30974e-19 1.65145)
(9.62966 6.65974e-19 1.86034)
(9.57943 -4.25094e-19 2.08499)