/*--------------------------------*- C++ -*----------------------------------*\
| =========                 |                                                 |
| \\      /  F ield         | OpenFOAM: The Open Source CFD Toolbox           |
|  \\    /   O peration     | Version:  dev                                   |
|   \\  /    A nd           | Web:      www.OpenFOAM.org                      |
|    \\/     M anipulation  |                                                 |
\*---------------------------------------------------------------------------*/
FoamFile
{
    version     2.0;
    format      ascii;
    class       surfaceVectorField;
    location    "0.55";
    object      Uf;
}
// * * * * * * * * * * * * * * * * * * * * * * * * * * * * * * * * * * * * * //

dimensions      [0 1 -1 0 0 0 0];

internalField   nonuniform List<vector> 
881
(
(9.91592 -4.48236e-22 0.0235089)
(9.96261 8.59002e-22 0.0385289)
(9.8188 -4.35059e-22 0.0305742)
(9.92304 -8.81219e-22 0.0457977)
(9.70651 1.4419e-21 0.0364442)
(9.85637 1.82569e-21 0.0545994)
(9.57688 -3.39902e-22 0.0424948)
(9.76289 -9.30326e-22 0.0649775)
(9.42974 -6.61004e-22 0.0487803)
(9.64959 1.96353e-21 0.0760101)
(9.26511 9.98124e-22 0.0553609)
(9.51898 -3.02301e-21 0.0876251)
(9.08264 -1.39806e-22 0.0623816)
(9.37042 0 0.100051)
(8.88163 4.27485e-21 0.069985)
(9.20282 -2.74597e-22 0.113513)
(8.66122 -5.58786e-22 0.0782966)
(9.01527 1.38437e-20 0.128193)
(8.42033 -4.7005e-21 0.0874414)
(8.80686 -1.42433e-20 0.144265)
(8.15776 0 0.0975501)
(8.57654 0 0.161918)
(7.87217 -1.39676e-21 0.108756)
(8.32307 2.10378e-20 0.181341)
(7.56212 -1.31989e-20 0.121196)
(8.04506 -4.64191e-20 0.202714)
(7.22614 6.92278e-22 0.135004)
(7.74104 1.10001e-20 0.226206)
(6.86276 1.18528e-20 0.150308)
(7.40952 1.20269e-20 0.251956)
(6.4706 -3.39883e-21 0.16721)
(7.04901 -5.08846e-20 0.280052)
(6.04853 -3.2205e-20 0.185775)
(6.65819 5.23402e-20 0.31049)
(5.59577 -5.85229e-21 0.206001)
(6.23595 -2.84947e-20 0.343139)
(5.11215 2.95777e-20 0.22779)
(5.78166 2.92145e-20 0.377677)
(4.59832 -6.25648e-22 0.250904)
(5.29529 1.24071e-19 0.413529)
(4.77775 -1.27977e-19 0.449785)
(9.99849 3.66027e-22 0.0486957)
(9.99062 -8.54072e-22 0.0392216)
(9.96315 1.41943e-21 0.065709)
(9.9772 -4.41152e-22 0.062463)
(9.90715 -5.78348e-22 0.0807544)
(9.94028 5.47168e-21 0.081828)
(9.83192 1.42047e-21 0.0967172)
(9.8772 -5.16174e-21 0.102691)
(9.73724 -4.73816e-22 0.11368)
(9.79377 3.67951e-21 0.124922)
(9.623 -3.97639e-21 0.131716)
(9.69259 -4.03638e-21 0.148434)
(9.48888 -1.38837e-22 0.151123)
(9.57329 6.55981e-23 0.173593)
(9.33429 9.50125e-21 0.172211)
(9.43491 -1.69236e-20 0.200826)
(9.15841 -2.58297e-22 0.195254)
(9.27666 2.64615e-20 0.230497)
(8.96025 -9.33622e-21 0.220528)
(9.09774 1.08607e-20 0.262961)
(8.73864 2.13428e-20 0.24832)
(8.89723 -1.96866e-20 0.298604)
(8.49228 -2.49615e-20 0.278906)
(8.67398 2.10401e-20 0.337815)
(8.21972 -2.13885e-20 0.312553)
(8.42672 -4.23243e-20 0.38097)
(7.91947 2.2349e-20 0.349497)
(8.15404 -2.31675e-20 0.428425)
(7.59 -5.16191e-20 0.389916)
(7.8545 4.7149e-20 0.480492)
(7.22984 6.31455e-21 0.433885)
(7.52661 -5.0894e-20 0.537381)
(6.83768 5.49185e-20 0.481317)
(7.16893 6.87719e-20 0.599139)
(6.41253 7.41116e-21 0.531892)
(6.78019 0 0.665563)
(5.9539 1.25038e-19 0.584964)
(6.35942 7.30794e-21 0.736085)
(5.46209 -6.40975e-21 0.639441)
(5.90611 1.16203e-19 0.809632)
(5.42051 -1.19682e-19 0.884449)
(9.99111 -1.68841e-21 0.0556023)
(9.98828 -3.41967e-21 0.0432979)
(9.95895 3.70206e-21 0.0817689)
(9.97227 3.52187e-21 0.0776327)
(9.9064 7.48423e-22 0.106586)
(9.93631 2.22949e-23 0.107387)
(9.83596 -2.76949e-21 0.13294)
(9.87614 -3.75161e-21 0.138008)
(9.74786 0 0.161105)
(9.79649 0 0.170445)
(9.64195 6.6572e-23 0.19123)
(9.70002 -5.03451e-22 0.204821)
(9.51798 -1.69697e-20 0.22372)
(9.58662 -1.30671e-22 0.241587)
(9.3755 6.8151e-22 0.259029)
(9.4555 -1.7334e-20 0.281316)
(9.21386 3.73498e-20 0.29759)
(9.30605 1.81018e-20 0.324532)
(9.03227 5.99927e-23 0.339857)
(9.13763 -1.89521e-20 0.371754)
(8.82974 -1.94041e-20 0.386305)
(8.94953 5.92489e-20 0.423551)
(8.60515 2.75347e-21 0.437403)
(8.74085 5.82043e-21 0.480499)
(8.35722 -4.38307e-20 0.493609)
(8.51055 3.46033e-21 0.543159)
(8.08462 2.62774e-21 0.555345)
(8.2575 -1.81451e-19 0.612082)
(7.7859 4.6481e-20 0.622949)
(7.98047 5.71761e-20 0.687769)
(7.45962 1.3235e-20 0.696605)
(7.67819 1.10162e-19 0.770601)
(7.10436 1.28638e-20 0.776251)
(7.34937 1.04529e-19 0.860753)
(6.71884 0 0.861456)
(6.99272 -1.0739e-19 0.958077)
(6.3021 0 0.951257)
(6.60711 -2.82768e-20 1.06193)
(5.85364 0 1.04397)
(6.19158 -2.10381e-19 1.17098)
(5.74559 2.46811e-19 1.28293)
(9.98681 1.89215e-21 0.065834)
(9.98695 1.71018e-21 0.0493434)
(9.95476 -2.41764e-22 0.102617)
(9.96914 3.52215e-21 0.0927579)
(9.90311 -4.52196e-21 0.138045)
(9.93302 -1.08805e-20 0.132513)
(9.83377 -9.24705e-22 0.174744)
(9.87393 6.52469e-21 0.17278)
(9.74734 -5.10981e-22 0.213462)
(9.79585 1.36323e-20 0.215118)
(9.64377 -6.95172e-22 0.254619)
(9.70136 -1.50012e-20 0.259978)
(9.52288 -7.46459e-22 0.298787)
(9.59048 -1.68484e-20 0.307909)
(9.38437 6.14585e-22 0.346581)
(9.46258 1.61607e-20 0.359586)
(9.2278 -3.87428e-20 0.398603)
(9.31719 3.74822e-20 0.415657)
(9.05257 4.13731e-20 0.455486)
(9.15378 -7.42951e-20 0.476774)
(8.85798 8.37049e-20 0.517888)
(8.9718 7.40675e-20 0.543657)
(8.64318 6.48595e-21 0.586467)
(8.77062 5.79728e-21 0.617023)
(8.40726 -1.3681e-19 0.661871)
(8.54945 7.45724e-22 0.697581)
(8.14922 -1.23549e-19 0.744719)
(8.30743 -4.55657e-20 0.78604)
(7.86798 1.21573e-19 0.835546)
(8.04368 -1.29953e-23 0.883063)
(7.56242 2.01425e-19 0.934715)
(7.75722 1.21362e-21 0.989195)
(7.23136 -1.85865e-20 1.04231)
(7.44708 -1.14619e-19 1.10477)
(6.87367 -1.34595e-19 1.15796)
(7.11219 7.77216e-20 1.22976)
(6.48823 -2.41225e-19 1.28068)
(6.7515 -2.20652e-22 1.36362)
(6.07411 4.21528e-20 1.40854)
(6.3639 -2.10796e-19 1.50498)
(5.94835 2.46948e-19 1.65138)
(9.98473 3.36752e-21 0.0768776)
(9.98629 1.99404e-23 0.0563439)
(9.95228 -7.36812e-21 0.122902)
(9.96755 -3.50186e-21 0.108073)
(9.90145 4.16832e-22 0.167784)
(9.93146 3.57767e-21 0.157245)
(9.83332 2.11897e-20 0.213956)
(9.87345 1.8877e-21 0.206959)
(9.74852 -1.28485e-21 0.262553)
(9.79709 6.12587e-23 0.258957)
(9.64711 -3.11835e-20 0.314245)
(9.70474 1.43382e-21 0.314002)
(9.52893 5.54637e-22 0.369716)
(9.59647 -1.66548e-20 0.372767)
(9.39374 5.33428e-20 0.429679)
(9.47178 5.22359e-20 0.436012)
(9.24117 3.05129e-22 0.494842)
(9.33026 6.90969e-22 0.50449)
(9.07073 -3.94594e-20 0.565951)
(9.17138 -3.73465e-20 0.578977)
(8.88186 -4.84358e-21 0.643779)
(8.99472 -1.37419e-23 0.6603)
(8.67391 -2.3808e-23 0.729101)
(8.79979 -9.1938e-20 0.749282)
(8.44619 9.13604e-20 0.822686)
(8.58594 1.69292e-19 0.846748)
(8.19796 7.86752e-20 0.92529)
(8.35252 -9.75861e-20 0.953529)
(7.92843 -1.20384e-19 1.03758)
(8.09883 8.14222e-20 1.07042)
(7.63677 -3.16565e-19 1.16008)
(7.82413 -1.09045e-19 1.19808)
(7.32209 -1.57799e-20 1.293)
(7.52764 -1.81233e-19 1.33701)
(6.98344 2.11131e-19 1.43615)
(7.20852 -2.65446e-20 1.48734)
(6.61979 2.74021e-20 1.58861)
(6.86579 2.18433e-19 1.64868)
(6.22997 -2.70319e-22 1.74853)
(6.49831 4.33061e-19 1.81985)
(6.10467 -9.56012e-19 1.99852)
(9.98377 -6.90081e-21 0.0882762)
(9.98597 3.38982e-21 0.0637833)
(9.95114 7.57841e-21 0.142956)
(9.96693 -6.98493e-21 0.123476)
(9.90129 5.02236e-21 0.197003)
(9.93121 7.2488e-21 0.18151)
(9.83472 -1.92708e-20 0.252598)
(9.87452 7.46665e-21 0.240366)
(9.75196 2.79953e-21 0.31103)
(9.80017 -4.43295e-20 0.301759)
(9.65312 1.57007e-20 0.373131)
(9.71038 3.08e-20 0.366679)
(9.53808 3.60482e-20 0.439679)
(9.60518 0 0.43593)
(9.40664 -1.18227e-21 0.511473)
(9.4842 3.52661e-20 0.510352)
(9.25847 -3.75286e-20 0.58933)
(9.34704 -3.56722e-20 0.59081)
(9.09312 2.63844e-21 0.674098)
(9.1932 -2.33973e-21 0.678191)
(8.91011 -8.84215e-20 0.766651)
(9.02232 4.87598e-21 0.7734)
(8.70891 8.10716e-20 0.867865)
(8.83402 -1.62878e-19 0.877347)
(8.48895 -2.33871e-20 0.978624)
(8.62772 2.52454e-19 0.990962)
(8.24962 -9.24159e-20 1.09979)
(8.40284 -1.76836e-19 1.11518)
(7.99027 9.02191e-20 1.23217)
(8.15879 2.75068e-19 1.25091)
(7.71021 2.53854e-20 1.37639)
(7.89493 -2.0008e-19 1.39893)
(7.40871 -1.90068e-19 1.53285)
(7.61056 -1.99496e-19 1.55987)
(7.08491 -1.63237e-20 1.70151)
(7.30489 1.86847e-20 1.73405)
(6.73775 6.27147e-19 1.88171)
(6.97693 1.90854e-19 1.92131)
(6.36588 -5.4015e-19 2.07182)
(6.62542 -4.60605e-20 2.12077)
(6.24862 -9.64053e-19 2.33047)
(9.98345 3.08017e-21 0.099797)
(9.98585 3.40968e-21 0.0713711)
(9.95101 -7.07201e-21 0.16274)
(9.96693 6.93544e-21 0.138791)
(9.90233 9.70981e-21 0.225571)
(9.93195 -1.07212e-20 0.205217)
(9.83762 -1.83422e-20 0.290273)
(9.87683 2.41919e-20 0.272853)
(9.75728 -1.52161e-20 0.358193)
(9.80481 -4.21895e-20 0.343327)
(9.66145 1.46476e-20 0.430302)
(9.71795 -1.69576e-20 0.417776)
(9.55006 -2.72409e-22 0.507482)
(9.61632 3.16618e-20 0.497121)
(9.42294 -2.64647e-22 0.590637)
(9.49957 -1.35851e-22 0.582291)
(9.27978 0 0.680693)
(9.36735 -3.55915e-20 0.674265)
(9.12019 0 0.778588)
(9.21919 3.42374e-20 0.774022)
(8.94374 -7.19405e-20 0.885273)
(9.05484 0 0.882532)
(8.74998 1.43011e-20 1.00172)
(8.87392 -7.1001e-20 1.00079)
(8.53838 9.30665e-20 1.12891)
(8.67591 1.66507e-19 1.12984)
(8.30838 1.96928e-19 1.26781)
(8.46029 -2.3745e-19 1.27072)
(8.0594 -2.16358e-20 1.41933)
(8.2265 1.80864e-19 1.42442)
(7.79077 -4.25102e-19 1.58424)
(7.9739 -3.17942e-21 1.59187)
(7.50177 1.20076e-20 1.7631)
(7.7018 -2.24722e-19 1.77385)
(7.19148 2.28108e-19 1.95611)
(7.40932 2.30883e-19 1.9709)
(6.85872 -4.85811e-19 2.16291)
(7.09538 2.68161e-20 2.18314)
(6.50189 -4.81776e-19 2.38227)
(6.75849 -4.25593e-19 2.41011)
(6.39655 -3.53564e-20 2.65039)
(9.98351 7.31551e-21 0.11125)
(9.98586 -1.5244e-23 0.0789292)
(9.95163 2.97167e-21 0.182119)
(9.96738 2.07807e-20 0.15385)
(9.90433 4.28864e-21 0.253333)
(9.93346 -1.77875e-20 0.228257)
(9.84176 -5.96679e-22 0.326778)
(9.88018 1.48331e-20 0.30428)
(9.76421 -4.35593e-20 0.403823)
(9.81076 2.64713e-23 0.383472)
(9.67184 7.83665e-22 0.485549)
(9.72723 -4.7515e-20 0.46706)
(9.56459 3.13426e-20 0.572939)
(9.62962 3.47241e-20 0.556069)
(9.44234 -3.59754e-20 0.666994)
(9.51761 2.7695e-25 0.651523)
(9.30481 -3.60018e-22 0.768738)
(9.39088 -3.15274e-22 0.754498)
(9.15168 3.37636e-20 0.879185)
(9.24907 3.32926e-22 0.866048)
(8.98258 -3.73743e-23 0.999365)
(9.09197 -7.37941e-20 0.987217)
(8.79709 8.45074e-20 1.13034)
(8.91925 7.79957e-20 1.1191)
(8.59471 -1.69573e-19 1.2732)
(8.73041 8.34224e-20 1.26283)
(8.37493 -2.48056e-19 1.42902)
(8.52497 -8.81467e-20 1.41954)
(8.13715 1.96865e-19 1.59882)
(8.30238 -1.78074e-19 1.59037)
(7.88069 1.94537e-19 1.78355)
(8.06201 3.82068e-19 1.77638)
(7.60473 0 1.98394)
(7.80309 -3.81349e-19 1.97854)
(7.30825 2.68337e-20 2.2005)
(7.52465 1.72017e-19 2.19765)
(6.98984 8.15669e-20 2.43323)
(7.22541 -3.62024e-19 2.43421)
(6.64757 2.55297e-20 2.68148)
(6.90363 4.51313e-19 2.68824)
(6.55684 -3.59133e-22 2.95902)
(9.98384 1.37504e-20 0.122487)
(9.98594 1.00424e-20 0.0863396)
(9.9528 -6.56873e-22 0.200961)
(9.96814 1.03557e-20 0.168513)
(9.90713 -6.75182e-21 0.280164)
(9.93557 -3.56049e-21 0.250515)
(9.84697 1.52612e-20 0.36196)
(9.88438 -1.09887e-20 0.334514)
(9.77255 -4.6249e-21 0.447733)
(9.81786 4.17118e-20 0.42202)
(9.68403 -1.23585e-20 0.538649)
(9.73799 -6.26843e-20 0.514315)
(9.5814 2.87667e-21 0.635782)
(9.64483 7.37687e-22 0.612524)
(9.46453 3.56645e-20 0.740226)
(9.53804 3.32527e-20 0.717754)
(9.33323 3.94722e-22 0.853081)
(9.41735 3.52998e-20 0.831159)
(9.18725 -1.08288e-19 0.975437)
(9.28251 -3.39311e-20 0.953864)
(9.02626 6.32358e-21 1.10841)
(9.13337 -7.38476e-20 1.08699)
(8.84989 7.69949e-20 1.25316)
(8.96962 7.32008e-20 1.23172)
(8.65767 1.62618e-19 1.41087)
(8.79082 -8.11081e-20 1.38931)
(8.44909 -1.92168e-20 1.58275)
(8.59653 2.43585e-19 1.56099)
(8.22358 1.43145e-20 1.76995)
(8.38621 -6.43123e-22 1.74802)
(7.98042 -2.03707e-19 1.9736)
(8.15923 -4.96174e-21 1.95164)
(7.7187 -2.02614e-19 2.19471)
(7.91479 -3.81714e-19 2.17307)
(7.43722 -2.23531e-19 2.43409)
(7.6518 1.96575e-19 2.4134)
(7.13437 1.71102e-20 2.69225)
(7.36882 -1.10303e-20 2.67357)
(6.80786 4.20395e-19 2.96917)
(7.06386 -1.48403e-20 2.95419)
(6.73411 1.41015e-21 3.25538)
(9.98434 6.5763e-21 0.133397)
(9.98607 4.80853e-24 0.0935187)
(9.95441 7.15491e-21 0.219147)
(9.96915 6.81666e-21 0.182662)
(9.9106 -7.91015e-21 0.305941)
(9.93816 -2.11219e-20 0.271877)
(9.85309 1.622e-20 0.39567)
(9.88932 -1.65248e-22 0.363426)
(9.78212 -1.78805e-20 0.489735)
(9.82596 3.02573e-20 0.458808)
(9.69783 -4.86587e-20 0.589372)
(9.75008 -4.70085e-20 0.559347)
(9.60023 3.15933e-20 0.69574)
(9.66173 -2.31793e-21 0.66625)
(9.48926 3.2919e-20 0.810006)
(9.5606 6.68129e-20 0.780701)
(9.36477 0 0.933341)
(9.44647 -3.4268e-20 0.903915)
(9.22657 -1.95493e-23 1.0669)
(9.31922 -7.22982e-20 1.03708)
(9.07441 -4.95883e-21 1.2119)
(9.17869 1.45534e-19 1.1814)
(8.90795 -8.70277e-20 1.36958)
(9.02461 -3.96393e-21 1.33815)
(8.7268 4.09212e-21 1.54127)
(8.85669 -3.19841e-19 1.50869)
(8.53046 2.59094e-19 1.72825)
(8.6745 2.46633e-19 1.69436)
(8.31838 -1.98079e-20 1.93186)
(8.47754 1.85464e-19 1.89655)
(8.08984 -1.87697e-19 2.15344)
(8.26523 -1.79052e-19 2.11671)
(7.84386 2.46775e-20 2.39429)
(8.03673 1.83679e-19 2.3563)
(7.57913 4.06796e-19 2.65564)
(7.79092 -1.63231e-19 2.6168)
(7.29384 -4.27984e-20 2.93854)
(7.52628 3.66373e-19 2.89961)
(6.98547 -4.3435e-19 3.24374)
(7.24066 -8.26345e-21 3.20605)
(6.93099 -4.12585e-19 3.53717)
(9.98498 3.43373e-22 0.143891)
(9.98625 -6.98785e-23 0.100404)
(9.95635 -2.19306e-20 0.23657)
(9.97034 1.35963e-20 0.196199)
(9.91462 -1.30949e-20 0.330546)
(9.94115 -4.92186e-20 0.292237)
(9.86002 1.42986e-20 0.427767)
(9.89488 2.16514e-20 0.390898)
(9.79277 0 0.529657)
(9.83493 1.48794e-20 0.493691)
(9.71303 0 0.637512)
(9.76332 3.47845e-20 0.601976)
(9.62087 3.38974e-20 0.752562)
(9.68013 -3.17473e-20 0.717029)
(9.51625 -1.80104e-21 0.876035)
(9.58507 6.65308e-20 0.840099)
(9.39911 -1.07115e-19 1.00917)
(9.47798 -6.82151e-20 0.972448)
(9.26931 7.62342e-20 1.15319)
(9.35884 -7.16393e-20 1.11534)
(9.12663 1.44578e-19 1.30937)
(9.22754 7.33591e-20 1.27005)
(8.97084 -2.40988e-19 1.47909)
(9.08382 1.52032e-19 1.43792)
(8.80161 -7.00299e-20 1.66373)
(8.92752 -4.73813e-19 1.62039)
(8.61853 1.72202e-19 1.86475)
(8.75834 3.24456e-19 1.81896)
(8.42107 2.16991e-20 2.08364)
(8.57583 6.13614e-23 2.03513)
(8.20854 1.96995e-19 2.32196)
(8.37945 1.11143e-20 2.27056)
(7.97998 -8.22436e-21 2.58136)
(8.16844 1.83867e-19 2.52699)
(7.73405 -1.97764e-19 2.8635)
(7.94171 -1.87838e-19 2.80627)
(7.46887 3.97097e-19 3.17005)
(7.69778 1.15984e-20 3.11034)
(7.18179 9.89649e-21 3.50263)
(7.4345 4.04757e-19 3.44125)
(7.14879 -3.86654e-19 3.8011)
(9.98573 1.3382e-20 0.153896)
(9.98646 4.85867e-24 0.106949)
(9.95857 -1.46913e-20 0.253136)
(9.97168 -3.61084e-24 0.209046)
(9.91911 -1.34756e-20 0.353871)
(9.94446 -1.40222e-20 0.3115)
(9.86763 2.21049e-20 0.458123)
(9.90097 1.43298e-20 0.416819)
(9.80436 4.99601e-20 0.567344)
(9.84466 2.98231e-20 0.526534)
(9.72949 2.07366e-21 0.682878)
(9.77758 4.66003e-22 0.642039)
(9.64312 2.27229e-21 0.806016)
(9.69985 -2.78232e-20 0.764663)
(9.54527 -1.76306e-21 0.938038)
(9.61122 6.58887e-20 0.895709)
(9.43596 -3.27744e-20 1.08023)
(9.5116 -6.75342e-20 1.03648)
(9.31509 -7.25811e-20 1.23391)
(9.40103 1.6382e-21 1.1883)
(9.18253 8.18184e-20 1.40041)
(9.27948 -7.34361e-20 1.35253)
(9.03809 -8.88972e-20 1.58115)
(9.1468 7.75246e-20 1.53056)
(8.88158 -6.91855e-20 1.77766)
(9.00284 -1.58585e-19 1.72389)
(8.71271 1.48201e-19 1.99151)
(8.84749 1.63406e-19 1.93413)
(8.53103 -1.03964e-20 2.22435)
(8.68044 -5.44648e-21 2.16294)
(8.33592 0 2.478)
(8.50121 5.23704e-21 2.41216)
(8.12652 0 2.75444)
(8.3092 -1.80197e-19 2.68382)
(7.90157 2.39512e-20 3.05577)
(8.10348 1.78259e-19 2.98012)
(7.65932 2.34229e-20 3.3843)
(7.88274 1.77519e-20 3.30352)
(7.3972 0 3.74259)
(7.64505 0 3.65681)
(7.38759 -3.85982e-19 4.04318)
(9.98656 -1.33817e-20 0.163355)
(9.98668 -6.60174e-21 0.113114)
(9.96101 4.11903e-22 0.268765)
(9.97313 -6.77881e-21 0.221134)
(9.924 1.41775e-20 0.375819)
(9.94804 8.76247e-23 0.329582)
(9.87583 2.2279e-20 0.486621)
(9.9075 9.18167e-23 0.441088)
(9.81677 -2.00977e-20 0.602653)
(9.85503 1.49438e-20 0.557217)
(9.74704 -2.98516e-20 0.725299)
(9.79272 -6.47658e-20 0.679389)
(9.66677 3.71203e-20 0.855896)
(9.72072 6.65218e-20 0.808976)
(9.57606 -1.72522e-21 0.995769)
(9.63883 5.88499e-22 0.947322)
(9.47497 -3.21757e-20 1.14625)
(9.54704 -3.36005e-20 1.09577)
(9.36351 -2.12082e-22 1.30872)
(9.44544 -1.3381e-22 1.25569)
(9.24162 -7.57912e-20 1.48458)
(9.33411 -1.13206e-21 1.4285)
(9.10921 4.76064e-21 1.6753)
(9.21301 -7.51636e-20 1.61565)
(8.96617 7.8097e-20 1.88247)
(9.08207 7.63009e-20 1.81868)
(8.81239 7.58404e-21 2.10779)
(8.94133 1.57863e-19 2.03926)
(8.64755 1.0327e-20 2.35309)
(8.79063 -1.59922e-19 2.27921)
(8.47118 -1.77236e-19 2.62041)
(8.62965 2.58951e-21 2.54055)
(8.28261 1.94871e-21 2.912)
(8.45804 -1.75016e-19 2.82552)
(8.08084 1.70371e-19 3.23042)
(8.27514 1.78451e-19 3.13664)
(7.86439 -5.87449e-21 3.5786)
(8.07997 1.66997e-19 3.47684)
(7.63107 -3.90287e-19 3.95995)
(7.87108 -1.81703e-19 3.84959)
(7.64624 -3.86511e-19 4.25906)
(9.98745 0 0.172221)
(9.98693 0 0.118871)
(9.96364 -6.99911e-21 0.283385)
(9.97468 0 0.232408)
(9.92921 -1.40011e-20 0.396305)
(9.95184 -1.37611e-20 0.346408)
(9.88453 -6.99952e-21 0.513159)
(9.91441 2.82949e-20 0.463618)
(9.82989 -3.08727e-20 0.635462)
(9.86595 -7.28552e-21 0.585634)
(9.76552 3.34903e-20 0.764628)
(9.80861 -3.04374e-20 0.713899)
(9.69163 2.90712e-20 0.902032)
(9.74257 5.87153e-20 0.849816)
(9.60836 -3.1761e-20 1.04903)
(9.66769 -1.19954e-22 0.994761)
(9.51585 -1.09613e-21 1.207)
(9.58401 -3.28647e-20 1.15011)
(9.41418 -1.06713e-21 1.37736)
(9.49173 -6.93491e-20 1.31725)
(9.30343 -1.45678e-21 1.56155)
(9.391 1.40219e-19 1.49765)
(9.18362 -1.71705e-21 1.76111)
(9.28193 -7.31139e-20 1.69281)
(9.05475 1.57111e-19 1.97766)
(9.16461 -1.10742e-24 1.90429)
(8.91683 -1.3378e-20 2.21297)
(9.03914 1.54299e-19 2.1338)
(8.76976 -1.65782e-19 2.46905)
(8.90553 -1.65741e-19 2.38327)
(8.6133 2.8007e-21 2.74811)
(8.76375 -5.19884e-21 2.65484)
(8.44708 5.29703e-21 3.05264)
(8.61375 1.71211e-19 2.95093)
(8.27048 1.74942e-19 3.38554)
(8.45523 -3.38416e-19 3.27428)
(8.08251 -1.21561e-20 3.75025)
(8.28773 5.18446e-19 3.62817)
(7.88166 -1.79937e-19 4.15096)
(8.11046 -3.52216e-19 4.01658)
(7.92216 0 4.44443)
(9.98839 0 0.180454)
(9.9664 -6.97274e-21 0.296937)
(9.9347 2.91272e-20 0.415246)
(9.95582 -1.34362e-20 0.361916)
(9.89366 2.75218e-20 0.537635)
(9.92162 2.27772e-20 0.484334)
(9.8436 -7.18156e-21 0.66564)
(9.87732 -6.42943e-22 0.611696)
(9.7848 -3.94678e-21 0.800703)
(9.82512 0 0.745462)
(9.7175 2.87038e-20 0.944222)
(9.76526 2.5145e-20 0.88706)
(9.64194 -1.65148e-21 1.09758)
(9.69763 -2.712e-20 1.03788)
(9.55829 -1.0163e-19 1.26218)
(9.62237 -6.46002e-20 1.19932)
(9.46676 7.46791e-20 1.43946)
(9.53973 -6.31235e-21 1.3728)
(9.36751 6.58672e-20 1.63091)
(9.44999 1.42926e-19 1.55977)
(9.26075 -7.0489e-20 1.83807)
(9.35339 -6.88898e-20 1.76176)
(9.1466 -9.31066e-22 2.06261)
(9.25022 -6.90379e-20 1.98037)
(9.02519 -1.80742e-21 2.30636)
(9.14065 7.17629e-20 2.21733)
(8.89665 -3.17934e-21 2.57139)
(9.02489 2.20876e-21 2.4746)
(8.76106 1.65318e-19 2.86004)
(8.90326 -2.59571e-21 2.75439)
(8.61844 -1.77986e-19 3.17495)
(8.776 1.73827e-19 3.05916)
(8.46864 1.39823e-20 3.51925)
(8.64332 -3.45089e-19 3.39182)
(8.31137 1.701e-19 3.89672)
(8.50535 3.52144e-19 3.75581)
(8.14604 -1.68637e-19 4.31204)
(8.36219 -1.78785e-19 4.15536)
(8.21378 0 4.59578)
(9.9405 -2.02173e-20 0.43293)
(9.9033 -6.36978e-21 0.560436)
(9.92935 -7.19674e-21 0.503846)
(9.85807 6.81452e-21 0.693689)
(9.8895 -1.29376e-20 0.636163)
(9.80514 3.00911e-20 0.834142)
(9.84277 -6.82971e-21 0.77499)
(9.74481 -3.25554e-20 0.983213)
(9.78946 1.71148e-21 0.921764)
(9.67737 -9.23058e-20 1.1423)
(9.72954 -5.46367e-20 1.07789)
(9.6031 3.40343e-20 1.3128)
(9.66319 5.19921e-21 1.24476)
(9.52229 6.36511e-20 1.49617)
(9.59079 1.27028e-19 1.4238)
(9.43525 4.3095e-21 1.69389)
(9.51272 -1.2269e-19 1.61645)
(9.34231 -6.73769e-20 1.90754)
(9.42936 6.50869e-20 1.82423)
(9.24377 5.43072e-21 2.13879)
(9.34115 -6.74115e-20 2.04875)
(9.13996 7.64385e-20 2.38948)
(9.24846 7.31689e-20 2.29175)
(9.03125 2.85102e-21 2.6617)
(9.15174 7.08337e-22 2.55515)
(8.91808 4.86243e-21 2.95778)
(9.05163 1.43363e-19 2.84111)
(8.80088 4.75353e-21 3.28045)
(8.94873 -1.45778e-19 3.1521)
(8.68013 0 3.63288)
(8.84378 -9.17323e-21 3.49099)
(8.55632 -5.24921e-21 4.01896)
(8.73762 0 3.8612)
(8.43002 -5.13977e-21 4.4435)
(8.63129 -5.25789e-21 4.26688)
(8.52613 0 4.71323)
(9.91351 -1.39394e-20 0.581497)
(9.87335 -2.69022e-20 0.719483)
(9.90227 -1.39483e-20 0.658438)
(9.82656 -3.58869e-20 0.864748)
(9.86124 -2.69137e-20 0.801763)
(9.77349 -2.1013e-20 1.01871)
(9.81474 -1.77762e-21 0.953083)
(9.7145 4.53176e-20 1.18277)
(9.76278 -2.79257e-20 1.1138)
(9.64996 1.00586e-19 1.35833)
(9.70565 5.97424e-20 1.28529)
(9.58027 -6.40778e-20 1.54681)
(9.6438 6.32674e-20 1.46896)
(9.50586 -6.03598e-20 1.74968)
(9.57773 -1.29551e-19 1.66623)
(9.4272 6.50058e-20 1.96851)
(9.50796 6.22842e-20 1.87858)
(9.34479 1.9291e-21 2.20496)
(9.43508 2.0718e-22 2.10759)
(9.25921 -4.4231e-21 2.46082)
(9.3597 6.33626e-20 2.35496)
(9.17109 1.44638e-19 2.73811)
(9.28254 -2.03059e-19 2.62251)
(9.08122 -1.04672e-20 3.03911)
(9.20449 4.11436e-19 2.91229)
(8.9905 -1.602e-19 3.36643)
(9.12658 -2.93369e-19 3.22665)
(8.9 -9.18568e-21 3.72314)
(9.05004 -9.15537e-21 3.56828)
(8.81107 0 4.11294)
(8.9764 1.41913e-19 3.94031)
(8.72544 0 4.54032)
(8.9076 -1.44222e-19 4.34651)
(8.84624 1.42505e-19 4.79143)
(9.88934 -1.3992e-20 0.742713)
(9.84892 8.07116e-21 0.892186)
(9.88045 -5.24627e-20 0.825479)
(9.80338 -8.90949e-21 1.05037)
(9.84099 2.78186e-20 0.98066)
(9.75314 -1.30585e-20 1.21863)
(9.79726 -9.01543e-21 1.14519)
(9.69865 2.15131e-20 1.39836)
(9.74962 2.20661e-20 1.32044)
(9.64041 -3.92855e-21 1.59094)
(9.69861 5.71596e-20 1.50775)
(9.57899 -3.82878e-21 1.79782)
(9.64485 -6.23538e-20 1.7085)
(9.51498 -4.13404e-21 2.02048)
(9.58898 0 1.92412)
(9.4491 6.31656e-20 2.26053)
(9.53174 -4.13282e-21 2.1561)
(9.38215 -1.40013e-19 2.51968)
(9.47397 1.22907e-20 2.40604)
(9.31506 6.9761e-20 2.79982)
(9.41663 -1.41869e-19 2.67562)
(9.24894 1.22719e-19 3.10305)
(9.36091 1.49433e-19 2.96674)
(9.18514 -1.38875e-19 3.43177)
(9.30818 -2.03353e-21 3.28147)
(9.12531 1.45504e-19 3.78874)
(9.26013 1.69569e-20 3.62219)
(9.07154 -4.89859e-21 4.17717)
(9.21886 1.45419e-19 3.99156)
(9.02656 1.41853e-21 4.60087)
(9.18704 2.98685e-21 4.39267)
(9.16818 -1.23751e-19 4.82903)
(9.87208 -3.2093e-20 0.916046)
(9.83429 2.76346e-20 1.07768)
(9.86804 -5.09592e-20 1.00415)
(9.79303 2.6994e-20 1.2493)
(9.83273 6.02565e-20 1.17168)
(9.74884 5.86259e-20 1.43224)
(9.79478 2.68131e-20 1.34975)
(9.70231 -2.73659e-21 1.62783)
(9.75482 3.11442e-20 1.53965)
(9.65411 -5.83964e-20 1.83745)
(9.71356 -1.23107e-19 1.74269)
(9.60501 0 2.0625)
(9.67176 5.74721e-20 1.9602)
(9.55588 -5.6264e-20 2.30447)
(9.63032 -5.87369e-20 2.19357)
(9.50774 1.04241e-20 2.56493)
(9.59024 -3.90286e-21 2.44423)
(9.46178 -6.06668e-20 2.84558)
(9.55272 4.59021e-21 2.7137)
(9.41942 2.1717e-20 3.14828)
(9.51918 -6.25968e-20 3.00361)
(9.38238 1.57604e-19 3.47507)
(9.4913 1.35897e-19 3.31572)
(9.35277 1.67216e-20 3.82825)
(9.47111 9.07913e-21 3.65196)
(9.33325 1.54322e-19 4.21038)
(9.46113 0 4.0144)
(9.3272 -1.24464e-19 4.62428)
(9.46448 7.51057e-20 4.40528)
(9.48514 -2.12199e-19 4.82694)
(9.86597 -1.73942e-20 1.10032)
(9.83386 6.0027e-20 1.27439)
(9.86891 3.32827e-20 1.1929)
(9.80012 -1.30904e-21 1.45952)
(9.84077 2.7471e-20 1.37281)
(9.76544 -9.22444e-20 1.65697)
(9.81195 -5.45052e-20 1.56421)
(9.73059 -4.3651e-21 1.86801)
(9.78324 2.3005e-20 1.76829)
(9.69647 -2.74799e-21 2.09395)
(9.75554 3.72863e-21 1.98629)
(9.6641 -5.18114e-21 2.3361)
(9.72983 -6.01824e-20 2.21943)
(9.63468 -1.00073e-20 2.59586)
(9.70729 -3.52195e-21 2.46897)
(9.60961 2.50095e-21 2.87467)
(9.68928 -6.21228e-20 2.73618)
(9.59055 5.39328e-20 3.17408)
(9.6774 1.2999e-19 3.02241)
(9.57951 -1.61706e-20 3.49573)
(9.67354 -8.13825e-21 3.32904)
(9.57889 -8.0353e-21 3.84133)
(9.67995 -8.22673e-21 3.6575)
(9.59167 -8.12123e-20 4.21269)
(9.69937 -1.48347e-20 4.00919)
(9.62155 -1.40555e-20 4.61158)
(9.7351 -8.1256e-20 4.38549)
(9.7912 6.88493e-21 4.78762)
(9.87527 -7.64794e-23 1.29353)
(9.85204 -2.70862e-20 1.47979)
(9.82923 6.35978e-20 1.67791)
(9.86946 -2.07595e-20 1.58103)
(9.8077 3.12821e-20 1.88905)
(9.85324 9.63812e-20 1.7849)
(9.78844 -5.51376e-20 2.11434)
(9.83947 -3.68709e-21 2.00196)
(9.77261 -5.85873e-20 2.35495)
(9.82924 -4.7252e-20 2.23328)
(9.76153 -5.70332e-20 2.61203)
(9.82383 -3.97916e-21 2.47987)
(9.75677 6.81616e-20 2.88674)
(9.8247 -8.63792e-23 2.74278)
(9.76013 6.64458e-20 3.18028)
(9.83358 4.56379e-21 3.02301)
(9.77376 0 3.49382)
(9.85246 0 3.32155)
(9.80024 -1.51907e-20 3.8285)
(9.88368 0 3.6393)
(9.84262 -1.48401e-20 4.18534)
(9.93001 5.57068e-20 3.97704)
(9.90458 -6.02009e-20 4.56518)
(9.9947 -5.73853e-20 4.33535)
(10.0816 -8.78636e-20 4.71447)
(9.89306 1.2887e-20 1.69031)
(9.88465 6.05781e-20 1.90019)
(9.92285 -1.20324e-20 1.79221)
(9.87996 4.46412e-21 2.12335)
(9.92268 9.1986e-20 2.00693)
(9.88021 8.70788e-21 2.36072)
(9.92746 -8.07488e-20 2.23486)
(9.88683 5.4353e-20 2.61322)
(9.93851 2.98656e-20 2.47679)
(9.90144 -6.52516e-20 2.88173)
(9.95737 1.31242e-20 2.73347)
(9.92593 -6.3493e-20 3.16705)
(9.98578 -6.50355e-20 3.0056)
(9.96249 0 3.46991)
(10.0257 -2.67343e-20 3.29377)
(10.0137 7.26063e-20 3.79087)
(10.0796 1.38975e-20 3.59838)
(10.0825 1.23524e-20 4.13027)
(10.1499 9.92983e-20 3.91964)
(10.1723 -8.57051e-20 4.48814)
(10.2398 -8.59077e-20 4.25746)
(10.3527 -5.48195e-20 4.61131)
(9.96066 2.02139e-20 1.90122)
(9.97003 4.75129e-21 2.12077)
(9.98569 -5.90404e-20 2.35332)
(10.0234 -3.31263e-20 2.22412)
(10.0091 -1.23049e-20 2.5995)
(10.0501 -2.67059e-20 2.45978)
(10.0419 1.34827e-20 2.85989)
(10.0857 1.46294e-21 2.70853)
(10.0859 -2.73867e-20 3.13495)
(10.1322 1.29092e-20 2.97074)
(10.1433 -1.25765e-20 3.42498)
(10.1913 -1.58741e-21 3.24663)
(10.2165 4.12297e-20 3.73003)
(10.2653 3.99119e-20 3.53618)
(10.3082 -1.01894e-21 4.04987)
(10.3566 3.99669e-20 3.8391)
(10.4215 -5.42255e-20 4.38388)
(10.4678 -2.77455e-20 4.15477)
(10.6019 -1.43939e-20 4.4821)
(10.0879 0 2.33285)
(10.1269 -1.26607e-20 2.57114)
(10.1764 8.15723e-22 2.82177)
(10.2084 -5.26618e-22 2.66848)
(10.2381 3.92725e-20 3.08488)
(10.2711 8.71612e-22 2.91925)
(10.3141 5.20951e-20 3.36038)
(10.3473 5.07545e-20 3.18134)
(10.4064 3.86149e-20 3.6479)
(10.4388 1.39293e-20 3.45439)
(10.5175 1.27225e-20 3.94678)
(10.5479 5.88773e-22 3.73773)
(10.65 1.31161e-20 4.25593)
(10.6767 -5.51064e-21 4.03035)
(10.8277 1.86751e-20 4.3308)
(10.3037 -5.27429e-22 2.76817)
(10.3811 1.25574e-20 3.01797)
(10.4013 -2.43807e-20 2.85216)
(10.4731 1.16513e-20 3.27768)
(10.4922 2.49894e-20 3.09932)
(10.5817 -2.50201e-20 3.54662)
(10.5987 -2.4489e-20 3.35491)
(10.7088 -1.80463e-20 3.82379)
(10.7225 -9.46519e-22 3.61799)
(10.8565 2.10402e-22 4.1078)
(10.8653 1.71418e-20 3.8873)
(11.029 -1.6799e-20 4.16117)
(10.5135 -1.16566e-20 2.93556)
(10.6192 -1.20446e-20 3.17864)
(10.7412 1.83481e-22 3.42841)
(10.7439 -6.60191e-22 3.23974)
(10.881 3.51136e-20 3.68366)
(10.8794 1.19931e-20 3.48235)
(11.0403 -2.49146e-22 3.94283)
(11.033 3.41234e-20 3.72858)
(11.2059 -1.22427e-20 3.97667)
(10.8841 1.14449e-20 3.29551)
(11.0337 1.09927e-20 3.52908)
(11.2013 2.185e-20 3.76416)
(11.1797 5.02337e-22 3.55699)
(11.3587 1.05694e-21 3.78047)
(11.3399 -2.0802e-20 3.57464)
)
;

boundaryField
{
    inlet
    {
        type            calculated;
        value           uniform (10 0 0);
    }
    outlet
    {
        type            calculated;
        value           nonuniform 0();
    }
    flap
    {
        type            calculated;
        value           nonuniform 0();
    }
    upperWall
    {
        type            calculated;
        value           nonuniform 0();
    }
    lowerWall
    {
        type            calculated;
        value           uniform (0 0 0);
    }
    frontAndBack
    {
        type            empty;
        value           nonuniform 0();
    }
    procBoundary3to0
    {
        type            processor;
        value           nonuniform List<vector> 
34
(
(9.98718 0 0.124199)
(9.9763 -6.26648e-21 0.242822)
(9.96934 -1.29919e-20 0.309614)
(9.96009 5.88351e-21 0.376571)
(9.94668 1.91846e-20 0.449331)
(9.93749 3.90756e-22 0.521677)
(9.92421 3.74693e-22 0.600539)
(9.91557 -5.77865e-21 0.678275)
(9.90591 -4.52923e-20 0.763049)
(9.90028 -6.38573e-20 0.845854)
(9.89585 -8.31611e-20 0.936038)
(9.89567 -5.82159e-20 1.02325)
(9.89817 -6.16925e-21 1.11796)
(9.90549 -1.21288e-20 1.20853)
(9.88717 0 1.38927)
(9.90413 6.46013e-21 1.49273)
(9.92682 2.48995e-20 1.58982)
(9.95632 -6.55345e-22 1.69392)
(9.99138 -5.50376e-20 1.79003)
(10.0043 5.10498e-20 2.00106)
(10.0577 1.22554e-20 2.10662)
(10.1161 3.54832e-20 2.2012)
(10.1572 1.18924e-20 2.42916)
(10.2391 2.42935e-20 2.52867)
(10.324 6.81986e-21 2.61406)
(10.4225 -1.76239e-20 2.70007)
(10.5215 -6.53508e-21 2.77068)
(10.6251 1.6657e-20 3.00215)
(10.7515 2.82897e-20 3.06508)
(10.8739 8.25021e-22 3.11091)
(11.0184 0 3.33323)
(11.1668 -1.07548e-20 3.3626)
(11.3059 -4.95774e-20 3.37514)
(11.4883 9.78597e-21 3.57538)
)
;
    }
    procBoundary3to1
    {
        type            processor;
        value           nonuniform List<vector> 9((9.67316 4.77566e-20 5.0397) (9.99053 -9.07565e-20 4.96849) (10.287 -5.65689e-20 4.864) (10.5596 -2.64893e-20 4.7309) (10.8066 2.51339e-20 4.57374) (11.0269 5.66486e-21 4.3968) (11.2206 -1.04395e-20 4.20401) (11.388 -4.204e-20 3.99887) (11.5301 4.00576e-20 3.78447));
    }
    procBoundary3to4
    {
        type            processor;
        value           nonuniform List<vector> 
19
(
(4.05604 -9.59286e-20 0.274907)
(4.93842 -6.44989e-20 0.693656)
(5.37368 2.37393e-19 1.13692)
(5.6306 -2.23044e-20 1.53836)
(5.81265 5.20572e-19 1.91268)
(5.96749 -9.45102e-19 2.26889)
(6.11869 -9.90776e-19 2.6118)
(6.27868 1.71999e-21 2.94355)
(6.45451 -4.67377e-19 3.26406)