/*--------------------------------*- C++ -*----------------------------------*\
| =========                 |                                                 |
| \\      /  F ield         | OpenFOAM: The Open Source CFD Toolbox           |
|  \\    /   O peration     | Version:  dev                                   |
|   \\  /    A nd           | Web:      www.OpenFOAM.org                      |
|    \\/     M anipulation  |                                                 |
\*---------------------------------------------------------------------------*/
FoamFile
{
    version     2.0;
    format      ascii;
    class       surfaceScalarField;
    location    "1.11";
    object      phi;
}
// * * * * * * * * * * * * * * * * * * * * * * * * * * * * * * * * * * * * * //

dimensions      [0 3 -1 0 0 0 0];

internalField   nonuniform List<scalar> 
5457
(
0.197753
0.00230794
0.195449
0.00235376
0.193024
0.00246218
0.190412
0.00263624
0.1876
0.00282469
0.184582
0.00301852
0.181349
0.00322269
0.177887
0.00344155
0.174182
0.00367642
0.170218
0.00392923
0.165979
0.00420277
0.161446
0.00449511
0.156602
0.00480905
0.151421
0.00515067
0.145876
0.00552067
0.139936
0.00592113
0.13357
0.00635417
0.126742
0.006821
0.119415
0.00732565
0.111548
0.00786967
0.103103
0.00845199
0.0940397
0.00907291
0.0843185
0.00973122
0.0739015
0.010426
0.0627516
0.0111576
0.0508317
0.0119258
0.0381048
0.0127311
0.0245274
0.01358
0.0100711
0.0144574
0.0100714
0.199597
0.00277244
0.198628
0.00337214
0.197403
0.00372468
0.195935
0.00412844
0.194215
0.00455746
0.192234
0.00500031
0.189983
0.00546348
0.187454
0.0059503
0.184636
0.00646588
0.181516
0.0070146
0.178081
0.00760096
0.174313
0.00822563
0.170192
0.00889418
0.165697
0.00961474
0.160802
0.0103909
0.155476
0.0112284
0.149684
0.0121329
0.143391
0.0131079
0.136555
0.0141602
0.12913
0.0152973
0.121065
0.016524
0.112303
0.0178446
0.10278
0.0192638
0.0924243
0.020791
0.0811366
0.0224532
0.0687788
0.0242898
0.0551531
0.026361
0.0399483
0.0287874
0.0222301
0.0321768
0.0323018
0.199457
0.00337678
0.198565
0.00431375
0.197414
0.00491337
0.196044
0.00552345
0.194449
0.0061653
0.192619
0.00683064
0.190549
0.00752422
0.188228
0.00825011
0.18565
0.00901589
0.182802
0.00982773
0.179676
0.0106902
0.176251
0.0116127
0.172507
0.0126025
0.168427
0.0136636
0.163986
0.0148055
0.159155
0.0160398
0.153898
0.0173773
0.148172
0.018827
0.141934
0.0203972
0.13513
0.0221037
0.127688
0.0239722
0.119522
0.0260206
0.110526
0.0282697
0.10057
0.0307567
0.0894679
0.0335632
0.0769203
0.0368436
0.0624423
0.0408434
0.0453421
0.0458903
0.0246347
0.0528854
0.0569368
0.199365
0.00407304
0.198478
0.00525061
0.197341
0.00608785
0.195986
0.006904
0.194411
0.00775312
0.19261
0.00863286
0.190578
0.00954683
0.188306
0.0105018
0.185787
0.0115062
0.183013
0.0125676
0.179974
0.013692
0.176655
0.0148929
0.173042
0.0161793
0.169118
0.0175559
0.164863
0.0190346
0.160248
0.0206348
0.155239
0.0223731
0.149795
0.0242637
0.143863
0.0263261
0.137385
0.028584
0.130282
0.0310823
0.122441
0.033871
0.113716
0.0370048
0.103901
0.0405811
0.0927277
0.0447448
0.0798191
0.0497586
0.0645443
0.0561229
0.0459498
0.0644877
0.024072
0.0747644
0.0810092
0.199316
0.00481802
0.19842
0.00619642
0.197295
0.00725072
0.195953
0.00827133
0.194396
0.00932342
0.192619
0.0104125
0.190613
0.011543
0.188372
0.0127229
0.185889
0.0139619
0.183153
0.0152687
0.180155
0.0166521
0.176885
0.0181248
0.173329
0.0196983
0.16947
0.0213829
0.165285
0.0231922
0.160751
0.0251482
0.155836
0.0272735
0.150498
0.0295943
0.144677
0.032144
0.138303
0.0349593
0.131289
0.0381032
0.123507
0.0416626
0.114783
0.0457385
0.104876
0.0504983
0.0934185
0.0562102
0.0799689
0.0632149
0.064031
0.0720657
0.044613
0.0839088
0.0226173
0.0967615
0.103627
0.19929
0.0055884
0.198387
0.00714993
0.197273
0.0084021
0.195948
0.00962226
0.194413
0.010873
0.192661
0.012167
0.190685
0.0135104
0.188477
0.0149119
0.186029
0.0163822
0.183331
0.0179321
0.180373
0.0195724
0.177143
0.0213156
0.173628
0.023176
0.16981
0.0251684
0.16566
0.0273138
0.161158
0.0296291
0.156275
0.0321409
0.150959
0.0349012
0.145145
0.0379547
0.138756
0.0413493
0.13169
0.0451744
0.123806
0.0495564
0.11489
0.0546651
0.104694
0.0607037
0.0928732
0.0680394
0.0788984
0.0771965
0.0623938
0.0885753
0.042538
0.103768
0.0209114
0.11839
0.124539
0.19928
0.00636885
0.198373
0.00810666
0.197271
0.00954255
0.195965
0.0109539
0.194455
0.0123981
0.192733
0.0138923
0.190791
0.0154443
0.188621
0.0170637
0.186214
0.0187617
0.183559
0.0205526
0.180645
0.0224486
0.177459
0.0244624
0.173987
0.0266105
0.17021
0.0289108
0.166101
0.0313944
0.161625
0.0340826
0.156747
0.0370027
0.151417
0.0402211
0.145566
0.0438009
0.139103
0.0478119
0.131915
0.0523673
0.123847
0.0576339
0.114679
0.063843
0.104104
0.0712892
0.091814
0.0803375
0.0773842
0.0916332
0.0604057
0.105559
0.0402529
0.123924
0.0192267
0.139417
0.143766
0.199279
0.00714971
0.198376
0.00905954
0.19729
0.0106673
0.196009
0.012261
0.19453
0.0138933
0.192843
0.0155826
0.190942
0.0173384
0.188817
0.0191712
0.186459
0.0210926
0.183856
0.023122
0.180994
0.0252734
0.177858
0.0275582
0.174434
0.0299968
0.170699
0.0326107
0.166628
0.0354348
0.162183
0.0385044
0.157311
0.0418565
0.151964
0.0455572
0.14607
0.0496892
0.139525
0.0543555
0.132202
0.0596939
0.123919
0.0659258
0.114468
0.0733037
0.103567
0.0822
0.0908162
0.093097
0.0758968
0.10656
0.0584929
0.122968
0.0381922
0.144228
0.0178518
0.159759
0.161618
0.199285
0.00792444
0.198393
0.0100011
0.197328
0.0117709
0.196077
0.0135389
0.194634
0.0153532
0.192989
0.0172321
0.191135
0.0191864
0.189061
0.0212281
0.186756
0.0233714
0.184208
0.0256369
0.181405
0.028039
0.178331
0.0305931
0.174963
0.0333251
0.171276
0.0362619
0.16725
0.0394299
0.162845
0.042884
0.158
0.0466826
0.152657
0.0508882
0.146738
0.0556007
0.140126
0.060965
0.132681
0.0671418
0.124236
0.0743789
0.114535
0.0830146
0.10333
0.0934137
0.0902354
0.106201
0.0748836
0.121918
0.0571396
0.140717
0.0368365
0.164533
0.0170415
0.179555
0.178659
0.199294
0.0086894
0.198418
0.0109273
0.197377
0.0128505
0.196159
0.0147847
0.194755
0.0167744
0.193156
0.0188365
0.191354
0.0209833
0.189338
0.023229
0.187092
0.0255925
0.184607
0.0280893
0.181873
0.0307353
0.178872
0.0335541
0.175579
0.0365789
0.171964
0.0398398
0.168001
0.0433605
0.163649
0.0472099
0.158849
0.0514619
0.153534
0.0561884
0.147619
0.0615078
0.140989
0.0675913
0.133477
0.0746554
0.124918
0.0829449
0.115087
0.0928541
0.103639
0.104871
0.0902877
0.11956
0.0746675
0.137545
0.0567131
0.158675
0.036565
0.184683
0.0171295
0.198991
0.195788
0.199306
0.0094421
0.198448
0.0118345
0.197435
0.0139025
0.196253
0.015995
0.194893
0.018153
0.193345
0.020391
0.191602
0.0227232
0.18965
0.0251659
0.18748
0.0277389
0.185076
0.0304617
0.182421
0.0333527
0.1795
0.0364363
0.176289
0.0397494
0.172765
0.043327
0.168885
0.0472066
0.16461
0.0514576
0.159886
0.0561632
0.15464
0.0614192
0.148772
0.0673653
0.142178
0.0741804
0.13471
0.0821232
0.126147
0.0915138
0.116284
0.102725
0.104771
0.116392
0.091334
0.133004
0.0755903
0.153294
0.0576086
0.17666
0.0379177
0.204375
0.0187138
0.218195
0.214501
0.199322
0.0101777
0.198489
0.012717
0.197509
0.0149217
0.196368
0.017165
0.195056
0.0194837
0.193566
0.0218895
0.191888
0.0243991
0.19001
0.0270304
0.187921
0.0298059
0.185602
0.0327501
0.183036
0.0358821
0.180204
0.039229
0.177093
0.0428202
0.173677
0.0467051
0.169908
0.0509414
0.165746
0.0555903
0.161138
0.060748
0.156011
0.0665284
0.150269
0.0730951
0.14379
0.0806534
0.136448
0.0894635
0.128059
0.0999071
0.118342
0.112449
0.10705
0.12769
0.0938759
0.146184
0.0783735
0.168801
0.0608301
0.194206
0.0420058
0.223199
0.0228111
0.237388
0.237312
0.199343
0.0108918
0.198539
0.0135699
0.197594
0.0159058
0.196496
0.0182931
0.195238
0.020762
0.193811
0.0233257
0.192205
0.0260043
0.190406
0.0288178
0.188398
0.0317933
0.186171
0.0349478
0.18371
0.0383073
0.180994
0.041906
0.178006
0.0457689
0.174714
0.0499581
0.171082
0.054538
0.167072
0.0595706
0.162627
0.0651677
0.157681
0.0714552
0.152142
0.0786208
0.145903
0.086885
0.13882
0.096544
0.130756
0.107973
0.121473
0.121737
0.110787
0.138382
0.0983874
0.158587
0.0840008
0.183189
0.0678405
0.210365
0.0506427
0.240394
0.031448
0.25658
0.268759
0.199365
0.0115828
0.198592
0.014392
0.197684
0.0168532
0.196632
0.0193749
0.195433
0.0219825
0.194076
0.0246939
0.19255
0.027531
0.190838
0.03052
0.188926
0.0336855
0.186805
0.0370415
0.184459
0.0406194
0.181873
0.0444539
0.179021
0.0485814
0.175877
0.0530629
0.172417
0.057963
0.168599
0.0633568
0.164367
0.0693737
0.159657
0.076145
0.154409
0.0838541
0.148518
0.0927666
0.141883
0.103175
0.134376
0.11548
0.125883
0.130233
0.116291
0.147976
0.105379
0.1695
0.0933381
0.195229
0.0802813
0.223419
0.0667905
0.253881
0.0486406
0.274727
0.317399
0.199385
0.0122533
0.19864
0.0151844
0.197773
0.01776
0.196773
0.0204057
0.195634
0.0231443
0.194347
0.025993
0.192899
0.0289812
0.191274
0.0321373
0.189462
0.0354798
0.187448
0.0390301
0.185222
0.0428125
0.182772
0.0468671
0.180067
0.051247
0.17709
0.0560014
0.173817
0.0612008
0.170207
0.0669347
0.16622
0.0733339
0.161798
0.0805457
0.156899
0.0887375
0.151446
0.0982089
0.1454
0.109214
0.138692
0.122186
0.131333
0.137592
0.123347
0.155962
0.114853
0.177992
0.106609
0.203469
0.0990886
0.230932
0.0932077
0.259755
0.0842849
0.283647
0.401684
0.00715437
-0.0071557
0.0130452
-0.00589958
0.0186425
-0.0056298
0.0240515
-0.00547552
0.0292345
-0.00526271
0.0339489
-0.00477281
0.0379093
-0.00398534
0.0408393
-0.00293284
0.0425211
-0.00167817
0.0428197
-0.000296025
0.0418224
0.000997444
0.0397637
0.00205328
0.0368976
0.00285366
0.0334718
0.0034079
0.0297161
0.0037343
0.0258667
0.00382699
0.0221507
0.00369466
0.0187789
0.00335376
0.0159286
0.00283738
0.013755
0.0021672
0.0124043
0.00135192
0.012032
0.000381524
0.0128691
-0.0008197
0.0152619
-0.00236755
0.0196025
-0.00430808
0.0263407
-0.00669943
0.0359763
-0.00959142
0.0489966
-0.0129719
0.0656731
-0.0166247
-0.0209571
0.00402581
-0.0111829
0.00859131
-0.0104747
0.0131994
-0.0102724
0.0174621
-0.00980615
0.0210287
-0.00890812
0.0236225
-0.00742226
0.0250167
-0.00540205
0.0250533
-0.00297104
0.0237582
-0.000379017
0.0214323
0.00203216
0.0183195
0.00410978
0.0145435
0.0058235
0.0102791
0.00710539
0.00572308
0.00794583
0.00109238
0.0083437
-0.00340831
0.00830538
-0.00759901
0.00786429
-0.0113159
0.00705295
-0.0143882
0.00589704
-0.0166527
0.00442567
-0.0179669
0.00266761
-0.0181826
0.000606692
-0.0171169
-0.00186769
-0.0146202
-0.00483888
-0.0105999
-0.00829579
-0.00497717
-0.0122832
0.00240241
-0.0169268
0.0118336
-0.0223546
0.0235013
-0.0282407
-0.0344505
0.00230391
-0.0134884
0.00507023
-0.0132518
0.00793917
-0.0131779
0.0103159
-0.0122498
0.0117382
-0.0104032
0.0119878
-0.00772066
0.0109866
-0.00441969
0.00885319
-0.000838797
0.0059034
0.00257384
0.00234091
0.00559546
-0.00174951
0.00819808
-0.00622033
0.0102874
-0.0109622
0.0118339
-0.0158456
0.0128109
-0.0207209
0.0131978
-0.0254409
0.0130034
-0.0298403
0.0122432
-0.0337494
0.0109449
-0.037006
0.00914158
-0.0394582
0.00687235
-0.0409672
0.00417847
-0.0414106
0.00105988
-0.0407025
-0.0025579
-0.0388016
-0.00671431
-0.0356962
-0.0113686
-0.0314323
-0.0165082
-0.0261726
-0.0221423
-0.0202699
-0.0282091
-0.0140994
-0.0343596
-0.0402695
0.00120309
-0.0146934
0.00240563
-0.0144667
0.00351442
-0.0143243
0.00388921
-0.0126868
0.00317277
-0.00974912
0.00134518
-0.00593277
-0.0014363
-0.00165357
-0.00483259
0.00255542
-0.00866205
0.00640397
-0.0129086
0.00984027
-0.0174889
0.0127738
-0.0223348
0.0151245
-0.0273585
0.0168431
-0.0324572
0.0178909
-0.0375166
0.0182361
-0.0423987
0.017864
-0.0469583
0.016783
-0.0510455
0.0150158
-0.0545117
0.0125964
-0.0572182
0.00957392
-0.0590414
0.00600402
-0.0598911
0.00191967
-0.0597438
-0.00268729
-0.0586328
-0.00779977
-0.0566184
-0.0133506
-0.0538429
-0.0192451
-0.0505782
-0.0253632
-0.047231
-0.0315083
-0.0442197
-0.0373199
-0.0422976
0.000302886
-0.0149985
0.000131151
-0.0143088
-0.000443718
-0.0137867
-0.00200006
-0.0111853
-0.00454147
-0.0072579
-0.00789626
-0.00260862
-0.0117263
0.00216382
-0.0158476
0.00667307
-0.0202597
0.0108138
-0.0249206
0.0144966
-0.0297958
0.0176416
-0.0348534
0.020171
-0.0400291
0.022003
-0.0452443
0.023087
-0.0504015
0.0233724
-0.055381
0.0228225
-0.0600556
0.0214385
-0.0642909
0.0192354
-0.0679559
0.0162508
-0.0709302
0.0125439
-0.0731132
0.00818978
-0.0744475
0.00326433
-0.0749457
-0.0021711
-0.0746687
-0.00805135
-0.0737135
-0.0142736
-0.0722596
-0.0206607
-0.0705835
-0.0269959
-0.0690305
-0.0330138
-0.0679626
-0.0383371
-0.0424736
-0.000525676
-0.0144755
-0.00195489
-0.0128943
-0.00412079
-0.0116554
-0.0072903
-0.00806119
-0.0112093
-0.00337716
-0.015512
0.00167103
-0.0199611
0.00660197
-0.0245459
0.0112523
-0.0292693
0.0155322
-0.0341333
0.0193532
-0.0391415
0.0226398
-0.0442788
0.0252951
-0.0495098
0.027217
-0.0547694
0.0283271
-0.0599739
0.0285562
-0.0650255
0.0278537
-0.0698092
0.0262039
-0.0742063
0.0236177
-0.0781008
0.0201355
-0.0813867
0.0158261
-0.083978
0.0107844
-0.0858316
0.00512851
-0.0869769
-0.00100781
-0.0874858
-0.0075171
-0.0874707
-0.0142568
-0.0871155
-0.020978
-0.0866683
-0.0274002
-0.08641
-0.0332253
-0.0866392
-0.0380579
-0.0415321
-0.00129259
-0.0131861
-0.00386077
-0.0103406
-0.00745432
-0.00809168
-0.0118712
-0.00367945
-0.0166424
0.00136607
-0.0214494
0.00646064
-0.0262334
0.0113758
-0.0310173
0.0160291
-0.0358386
0.0203462
-0.0407451
0.0242503
-0.0457611
0.0276437
-0.0508888
0.0304079
-0.0561093
0.0324197
-0.0613735
0.0335718
-0.0666099
0.0337723
-0.0717316
0.0329558
-0.0766382
0.031093
-0.0812234
0.028189
-0.0853826
0.0242857
-0.0890206
0.0194611
-0.0920608
0.0138282
-0.0944588
0.0075373
-0.0962222
0.000773645
-0.0974361
-0.00627811
-0.0982455
-0.0134158
-0.0988064
-0.0203798
-0.0993256
-0.0268386
-0.100034
-0.0324712
-0.10117
-0.0368719
-0.0398298
-0.00181466
-0.0113749
-0.0055583
-0.00661021
-0.0103298
-0.00334369
-0.0155178
0.00148319
-0.0206734
0.00650159
-0.0256616
0.0114352
-0.0305024
0.0162069
-0.0352582
0.0207765
-0.0400116
0.0250908
-0.0448357
0.0290635
-0.0497717
0.0325663
-0.054834
0.0354542
-0.0600105
0.0375781
-0.0652617
0.0388035
-0.0705271
0.0390178
-0.0757294
0.0381393
-0.0807783
0.0361253
-0.0855763
0.032974
-0.0900259
0.0287271
-0.0940378
0.0234706
-0.0975403
0.0173348
-0.10049
0.0104976
-0.102881
0.00318328
-0.104781
-0.00435386
-0.106326
-0.0118393
-0.10766
-0.0190087
-0.108954
-0.0255032
-0.110401
-0.0309792
-0.112194
-0.0350302
-0.0375886
-0.00214105
-0.00923751
-0.00705109
-0.00171104
-0.0125514
0.0021396
-0.0180069
0.0069212
-0.0231641
0.0116443
-0.0280193
0.0162792
-0.0326594
0.0208376
-0.037205
0.0253131
-0.0417667
0.0296429
-0.0464253
0.0337105
-0.0512292
0.0373559
-0.0561948
0.0404033
-0.0613136
0.0426786
-0.0665532
0.0440239
-0.0718611
0.0443066
-0.0771685
0.0434286
-0.0823926
0.0413337
-0.087442
0.0380114
-0.0922232
0.0335008
-0.096648
0.0278936
-0.100643
0.0213341
-0.104157
0.0140224
-0.107173
0.00621783
-0.109734
-0.00176886
-0.11194
-0.00960244
-0.113935
-0.0169774
-0.115861
-0.0235357
-0.117885
-0.0289111
-0.120166
-0.0327017
-0.0349572
-0.00246631
-0.00677459
-0.00822412
0.00403867
-0.0139007
0.00780474
-0.0191347
0.0121435
-0.023902
0.0164008
-0.028324
0.0206916
-0.0325645
0.0250691
-0.0367732
0.0295125
-0.041064
0.0339238
-0.0455093
0.038144
-0.0501521
0.0419842
-0.0550083
0.045243
-0.0600712
0.0477235
-0.0653133
0.0492474
-0.0706883
0.0496633
-0.0761335
0.0488567
-0.0815717
0.0467573
-0.0869152
0.0433436
-0.0920714
0.0386504
-0.0969505
0.0327714
-0.101473
0.0258615
-0.105578
0.0181387
-0.10923
0.00988784
-0.112431
0.00145633
-0.115245
-0.00675899
-0.117821
-0.0143653
-0.120282
-0.0210347
-0.122768
-0.0263811
-0.125421
-0.0300025
-0.0320369
-0.00291572
-0.00386169
-0.00894234
0.0100598
-0.0141204
0.0129755
-0.0185959
0.0166109
-0.0226064
0.0204031
-0.026377
0.0244539
-0.0300936
0.0287771
-0.0338917
0.0333016
-0.0378622
0.0378844
-0.0420644
0.0423345
-0.046534
0.0464396
-0.0512826
0.0499751
-0.0563023
0.0527258
-0.061569
0.0544963
-0.0670409
0.0551176
-0.0726597
0.0544595
-0.0783526
0.0524365
-0.0840338
0.0490146
-0.0896095
0.0442202
-0.0949846
0.0381458
-0.10007
0.0309517
-0.104789
0.0228689
-0.109086
0.0142035
-0.112939
0.00533302
-0.116363
-0.00330528
-0.119471
-0.0112226
-0.1224
-0.0180667
-0.12527
-0.0234677
-0.128215
-0.0270118
-0.0288981
-0.00334857
-0.000515181
-0.00887563
0.0155834
-0.0127565
0.0168513
-0.0160124
0.0198609
-0.019039
0.0234233
-0.0220415
0.0274492
-0.0251636
0.0318913
-0.0285015
0.0366308
-0.0321185
0.0414918
-0.0360641
0.0462688
-0.0403618
0.0507233
-0.0450137
0.0546112
-0.0500084
0.0577038
-0.0553242
0.059795
-0.0609226
0.0606995
-0.0667495
0.0602713
-0.0727362
0.0584103
-0.0787987
0.0550677
-0.0848408
0.0502573
-0.0907595
0.0440644
-0.0964522
0.0366498
-0.101824
0.0282523
-0.106799
0.0191964
-0.111326
0.00988338
-0.115378
0.000775337
-0.118999
-0.0075671
-0.122357
-0.0146706
-0.125565
-0.0202174
-0.128751
-0.0237805
-0.0255871
-0.00345591
0.00293944
-0.00732552
0.0194507
-0.00931258
0.0188347
-0.0111444
0.021688
-0.0130886
0.025362
-0.0152411
0.0295953
-0.0177048
0.0343477
-0.020544
0.0394619
-0.0237919
0.0447305
-0.0274832
0.0499492
-0.0316205
0.0548472
-0.0361922
0.0591676
-0.0411798
0.0626755
-0.0465654
0.0651645
-0.0523155
0.0664342
-0.0583773
0.066319
-0.0646854
0.0647068
-0.071162
0.0615357
-0.0777075
0.0567984
-0.0842097
0.050567
-0.0905522
0.0429982
-0.0966203
0.034332
-0.102314
0.0249077
-0.107555
0.0151469
-0.112293
0.00554257
-0.116491
-0.00333537
-0.120267
-0.010857
-0.123793
-0.0166504
-0.127195
-0.0203351
-0.0221292
-0.00317836
0.0061171
-0.00358551
0.0198561
-0.00343604
0.018682
-0.00388982
0.0221375
-0.00467978
0.0261468
-0.00589861
0.0308082
-0.0076622
0.0361044
-0.00999181
0.0417836
-0.0128672
0.047597
-0.0163224
0.0533935
-0.0203188
0.0588305
-0.0248256
0.0636599
-0.0298149
0.0676497
-0.0352782
0.0706127
-0.0411878
0.0723292
-0.0474938
0.072612
-0.0541393
0.0713415
-0.0610548
0.0684437
-0.0681414
0.0638813
-0.0752771
0.0577037
-0.0823341
0.0500613
-0.0891768
0.0411863
-0.0956718
0.03142
-0.101702
0.0212004
-0.107169
0.0110369
-0.111997
0.00152522
-0.116224
-0.0065922
-0.120073
-0.0127613
-0.123689
-0.0166762
-0.0185342
0.00203708
0.00407952
0.0045391
0.0173521
0.00466275
0.0185552
0.00534691
0.0214491
0.00600278
0.0254859
0.00591062
0.0308946
0.00493183
0.0370766
0.00313521
0.0435728
0.000576867
0.0501469
-0.00268969
0.0566498
-0.00656619
0.0626945
-0.0110086
0.0680887
-0.0159777
0.0726046
-0.0214977
0.0761186
-0.0275435
0.0783616
-0.0340632
0.0791198
-0.0410192
0.0782878
-0.0483625
0.0757804
-0.0559938
0.0715099
-0.0637858
0.0654973
-0.0716032
0.0578853
-0.079283
0.0488779
-0.0866515
0.0388056
-0.0935565
0.0281279
-0.0998594
0.0173674
-0.105471
0.0071686
-0.110303
-0.00172341
-0.114511
-0.00851365
-0.118373
-0.012773
-0.0147956
0.207056
0.0129135
0.206331
0.0159591
0.205487
0.018645
0.204513
0.0214124
0.203405
0.0242759
0.202157
0.0272557
0.200751
0.0303918
0.199177
0.0337052
0.197425
0.0372159
0.195481
0.0409492
0.193336
0.0449258
0.190971
0.0491953
0.188369
0.0538107
0.185514
0.0588171
0.182383
0.0642941
0.178943
0.070342
0.17517
0.077078
0.171041
0.0846526
0.1665
0.0932607
0.161557
0.10314
0.156218
0.114545
0.150513
0.127887
0.144616
0.143486
0.138797
0.161777
0.133782
0.183001
0.130897
0.206346
0.131775
0.230044
0.1399
0.251621
0.159426
0.264118
0.262283
0.298827
0.212095
0.013558
0.211397
0.0167079
0.210586
0.0194979
0.209653
0.0223789
0.208599
0.0253562
0.20741
0.0284606
0.206075
0.0317331
0.204584
0.0351926
0.202922
0.038864
0.201084
0.0427647
0.199055
0.0469243
0.196822
0.0513925
0.194378
0.0562158
0.191709
0.0614472
0.188793
0.0671733
0.185615
0.0734862
0.182158
0.0805061
0.178426
0.0883604
0.174416
0.0972529
0.170187
0.107356
0.165805
0.118917
0.161432
0.132252
0.157429
0.147481
0.154379
0.164817
0.153477
0.183893
0.1565
0.203308
0.165929
0.220602
0.185993
0.231547
0.218088
0.232018
0.231479
0.248891
0.217262
0.0141811
0.216594
0.0174259
0.215829
0.0203063
0.214957
0.0232868
0.213966
0.0263747
0.212847
0.0295984
0.211596
0.0329922
0.210201
0.0365867
0.208649
0.0404045
0.206937
0.0444549
0.205054
0.0487789
0.202992
0.0534209
0.200744
0.0584261
0.198302
0.0638513
0.195658
0.0697802
0.19281
0.0762999
0.189766
0.0835215
0.186545
0.0915571
0.183211
0.100568
0.179861
0.110693
0.176631
0.122137
0.173839
0.135032
0.171999
0.149309
0.171907
0.164895
0.17486
0.180923
0.182429
0.195723
0.195828
0.207187
0.214672
0.212693
0.235149
0.211534
0.206289
0.260338
0.222558
0.0147772
0.22193
0.0181055
0.221218
0.0210616
0.220413
0.0241298
0.219495
0.027323
0.218459
0.0306552
0.217306
0.0341561
0.216023
0.0378708
0.214602
0.0418158
0.213042
0.0459965
0.21133
0.0504642
0.209462
0.0552569
0.207444
0.0604083
0.205268
0.0659904
0.202947
0.0720649
0.200493
0.0787195
0.197936
0.086049
0.195333
0.0941359
0.192783
0.103098
0.190431
0.113031
0.188497
0.124059
0.187396
0.136119
0.187701
0.148986
0.190255
0.162322
0.196068
0.175089
0.20585
0.18592
0.219467
0.193551
0.235615
0.196531
0.253052
0.194088
0.185792
0.273544
0.227989
0.0153394
0.227408
0.0187383
0.226754
0.0217595
0.226019
0.0249035
0.225192
0.0281828
0.224261
0.0316109
0.223217
0.0352143
0.222059
0.0390327
0.220789
0.0430793
0.219399
0.0473698
0.21788
0.0519595
0.216238
0.0568688
0.214486
0.0621266
0.212622
0.0678193
0.210674
0.0739769
0.208675
0.0806856
0.20667
0.0880245
0.204758
0.0960233
0.203067
0.10477
0.201785
0.114298
0.201194
0.124636
0.201729
0.135568
0.20394
0.146755
0.208489
0.157749
0.215868
0.167684
0.226127
0.175636
0.238816
0.180842
0.252983
0.182348
0.267532
0.179529
0.17158
0.281737
0.23356
0.0158578
0.233032
0.0193174
0.232442
0.0223948
0.231787
0.0255976
0.231061
0.0289426
0.230245
0.0324543
0.229327
0.0361521
0.228314
0.0400548
0.227212
0.0441793
0.226008
0.0485605
0.224708
0.0532378
0.223331
0.0582189
0.221876
0.0635496
0.220368
0.0692936
0.218843
0.0754679
0.217339
0.0821565
0.215945
0.0893899
0.214775
0.0971676
0.213982
0.105543
0.213774
0.114489
0.214469
0.123925
0.216459
0.133558
0.220143
0.143049
0.225875
0.151992
0.233782
0.159751
0.243707
0.165685
0.25523
0.169296
0.267541
0.170018
0.27954
0.167516
0.160564
0.290548
0.239269
0.0163273
0.2388
0.0198372
0.238286
0.0229548
0.237725
0.0261984
0.237104
0.0295987
0.236409
0.0331782
0.235638
0.0369457
0.234794
0.0409136
0.233871
0.0451079
0.232871
0.0495528
0.231823
0.0542681
0.230736
0.0592821
0.229608
0.0646478
0.228487
0.0703826
0.227415
0.0765072
0.22645
0.0830898
0.225705
0.090106
0.2253
0.0975478
0.225399
0.105421
0.226225
0.113644
0.228066
0.122065
0.23119
0.130412
0.235811
0.138405
0.242087
0.145691
0.250011
0.151801
0.259356
0.156313
0.269757
0.158872
0.280592
0.159163
0.290992
0.1571
0.151169
0.300377
0.24512
0.0167426
0.244719
0.0202892
0.244292
0.0234268
0.243833
0.0266979
0.243326
0.030141
0.242767
0.0337677
0.242155
0.0375832
0.241486
0.0416006
0.240762
0.0458426
0.240005
0.0503105
0.239231
0.0550325
0.238439
0.0600548
0.237661
0.0653994
0.236954
0.0710598
0.236363
0.0770666
0.235971
0.0834517
0.23589
0.0901585
0.236244
0.0971678
0.237201
0.104441
0.238952
0.111873
0.241695
0.1193
0.245584
0.126498
0.250741
0.133222
0.257231
0.139174
0.264964
0.144043
0.273721
0.147532
0.283202
0.149367
0.292916
0.149428
0.302231
0.147768
0.142797
0.310591
0.251118
0.0170969
0.250798
0.0206596
0.250463
0.0238062
0.250109
0.0270928
0.249731
0.0305553
0.249322
0.0342083
0.248875
0.0380566
0.248392
0.0421035
0.247892
0.0463566
0.247394
0.0508156
0.246901
0.0555249
0.246427
0.0605179
0.24603
0.0657785
0.245758
0.0713057
0.24567
0.0771249
0.245867
0.0832253
0.246447
0.0895502
0.247526
0.096063
0.24924
0.102703
0.251729
0.109361
0.255122
0.115883
0.259522
0.122071
0.264994
0.127722
0.271518
0.132623
0.278982
0.136552
0.287231
0.139257
0.29599
0.140585
0.304838
0.140559
0.31334
0.139249
0.135098
0.321025
0.257266
0.017383
0.257038
0.0209367
0.256805
0.0240836
0.256563
0.0273744
0.25632
0.0308352
0.256065
0.0344956
0.255793
0.0383555
0.255517
0.0424023
0.255255
0.046635
0.255018
0.0510622
0.254819
0.0557281
0.254696
0.0606381
0.254706
0.0657589
0.254894
0.0711006
0.255327
0.0766681
0.2561
0.0824249
0.257294
0.088328
0.259005
0.0943258
0.261336
0.100346
0.264396
0.106277
0.268276
0.111977
0.273033
0.117286
0.278668
0.122057
0.285132
0.126131
0.292359
0.129298
0.300192
0.131398
0.308349
0.132405
0.316523
0.132364
0.324426
0.131328
0.127847
0.331664
0.263571
0.0175901
0.26344
0.021115
0.263315
0.0242518
0.263199
0.0275307
0.263094
0.0309765
0.262998
0.0346244
0.262915
0.038467
0.262856
0.0424842
0.26284
0.0466697
0.262876
0.0510385
0.262996
0.0556149
0.263251
0.0603833
0.263685
0.0653216
0.264341
0.0704357
0.265281
0.0757124
0.266578
0.0811064
0.268307
0.0865744
0.270549
0.0920574
0.273392
0.0974775
0.276911
0.102733
0.281162
0.107701
0.286152
0.112267
0.29186
0.11632
0.298269
0.119694
0.3053
0.122241
0.31276
0.123913
0.32043
0.124712
0.328098
0.124675
0.33556
0.123847
0.120905
0.342487
0.270034
0.0177116
0.270001
0.0211931
0.269992
0.0243019
0.270009
0.0275532
0.270051
0.0309704
0.270125
0.0345827
0.270239
0.038382
0.270409
0.042338
0.270653
0.0464455
0.270987
0.0507194
0.271451
0.0551592
0.272089
0.0597489
0.272932
0.0644778
0.274026
0.0693363
0.275431
0.0742993
0.277202
0.0793216
0.279405
0.0843524
0.282109
0.0893313
0.28538
0.0941826
0.289268
0.0988187
0.29379
0.103152
0.298934
0.107095
0.304705
0.11052
0.311071
0.113301
0.317904
0.115383
0.325046
0.116746
0.332341
0.117394
0.339631
0.117363
0.346766
0.116693
0.114186
0.35347
0.276657
0.0177403
0.276722
0.0211708
0.276833
0.0242305
0.276991
0.0274327
0.277194
0.0308021
0.277452
0.0343565
0.277779
0.0380834
0.278195
0.0419476
0.278713
0.0459478
0.279359
0.0500899
0.280165
0.0543642
0.281162
0.0587575
0.282388
0.0632535
0.283889
0.0678333
0.285715
0.0724662
0.28792
0.0771077
0.290552
0.0817077
0.293661
0.0862055
0.297294
0.0905305
0.30147
0.0946197
0.306191
0.0984061
0.311471
0.101788
0.317301
0.104663
0.323597
0.106979
0.330248
0.108706
0.337141
0.10983
0.344151
0.110361
0.35116
0.110334
0.358052
0.109782
0.107628
0.364594
0.283437
0.0176768
0.283612
0.0210352
0.283852
0.024028
0.284161
0.0271589
0.284537
0.0304592
0.284992
0.0339328
0.285546
0.0375571
0.286213
0.0413059
0.287007
0.0451746
0.287954
0.0491594
0.289083
0.0532474
0.290426
0.0574224
0.292019
0.0616646
0.293902
0.0659501
0.296119
0.070245
0.298713
0.0745063
0.301723
0.0786875
0.305185
0.0827304
0.309118
0.0865813
0.313528
0.0901923
0.318432
0.0934793
0.323836
0.0963586
0.329686
0.098788
0.335905
0.100736
0.342411
0.102177
0.34911
0.103108
0.355906
0.103544
0.362703
0.103516
0.369415
0.103051
0.101185
0.375842
0.290382
0.017518
0.290681
0.0207722
0.291063
0.02368
0.291527
0.026727
0.292081
0.0299365
0.292741
0.0333026
0.293523
0.0368027
0.294438
0.0404149
0.295504
0.0441291
0.296746
0.047935
0.29819
0.0518166
0.299866
0.055755
0.301808
0.0597284
0.304048
0.0637103
0.306626
0.0676654
0.309574
0.0715519
0.312917
0.0753363
0.316669
0.0789673
0.320852
0.082385
0.325483
0.085546
0.330559
0.0883838
0.336049
0.0908476
0.3419
0.0929145
0.348056
0.0945571
0.354449
0.0957632
0.361001
0.0965355
0.367635
0.09689
0.374276
0.0968556
0.380854
0.0964536
0.0948265
0.387198
0.297507
0.0172487
0.297932
0.0203783
0.298458
0.0231847
0.299085
0.0261303
0.299822
0.0292276
0.300688
0.0324647
0.301695
0.0358204
0.302859
0.0392748
0.304194
0.0428139
0.305724
0.0464222
0.307473
0.0500804
0.30947
0.0537682
0.311741
0.0574627
0.314317
0.0611375
0.317226
0.0647554
0.320488
0.0682853
0.324116
0.071701
0.32813
0.0749446
0.332547
0.0779566
0.337372
0.0807078
0.342578
0.0831612
0.348128
0.0852789
0.353985
0.0870391
0.360096
0.088426
0.366405
0.0894355
0.372847
0.0900741
0.37936
0.0903583
0.385885
0.0903131
0.392365
0.0899561
0.0885275
0.39865
0.30481
0.0168608
0.305365
0.0198502
0.306038
0.0225376
0.306832
0.025363
0.307756
0.0283288
0.308828
0.0314179
0.310062
0.03461
0.311471
0.0378871
0.313071
0.0412325
0.314882
0.0446272
0.316927
0.0480485
0.319229
0.0514757
0.321814
0.0548841
0.3247
0.0582544
0.3279
0.0615551
0.331436
0.0647465
0.335329
0.0678026
0.339591
0.0706745
0.344216
0.073321
0.349193
0.0757199
0.3545
0.0778401
0.360106
0.0796571
0.365974
0.0811551
0.372058
0.0823254
0.378307
0.0831687
0.384671
0.0836935
0.391096
0.0839157
0.397536
0.0838571
0.403944
0.0835321
0.0822708
0.410188
0.312291
0.0163489
0.31298
0.0191833
0.313805
0.021735
0.314769
0.0244212
0.315883
0.0272373
0.317161
0.0301609
0.31862
0.0331719
0.320272
0.0362543
0.322132
0.0393894
0.324218
0.0425563
0.326549
0.0457292
0.329141
0.0488926
0.332006
0.052025
0.335168
0.0550956
0.33864
0.058083
0.342436
0.0609477
0.346573
0.0636601
0.351047
0.0661939
0.355844
0.0685148
0.360954
0.0706001
0.366354
0.0724283
0.372014
0.0739834
0.3779
0.0752554
0.38397
0.0762404
0.390181
0.0769418
0.396491
0.0773689
0.402855
0.0775363
0.409234
0.077463
0.415591
0.0771611
0.0760429
0.421807
0.319954
0.0157091
0.320781
0.0183734
0.32176
0.0207733
0.322897
0.0233023
0.324202
0.0259511
0.325688
0.0286924
0.327371
0.0315072
0.329261
0.0343807
0.331375
0.03729
0.333724
0.0402194
0.336317
0.0431465
0.339171
0.0460458
0.342301
0.0489007
0.345721
0.0516776
0.349451
0.0543524
0.353491
0.0569051
0.357841
0.0593054
0.362498
0.0615297
0.367451
0.0635541
0.372682
0.0653597
0.378169
0.0669309
0.383883
0.0682572
0.389793
0.0693334
0.395862
0.0701586
0.402052
0.0707377
0.408327
0.0710802
0.41465
0.0711995
0.420987
0.0711118
0.427308
0.0708273
0.0698333
0.433507
0.327803
0.0149381
0.328771
0.0174166
0.329907
0.0196499
0.331218
0.0220039
0.332717
0.0244668
0.334413
0.0270103
0.336315
0.0296197
0.33843
0.0322786
0.340778
0.034954
0.343372
0.0376358
0.346213
0.0403125
0.349318
0.0429465
0.352705
0.0455172
0.356378
0.0480062
0.36034
0.0503886
0.364596
0.0526454
0.369142
0.0547547
0.373968
0.0566961
0.379062
0.0584516
0.384406
0.0600071
0.389976
0.0613512
0.395746
0.0624769
0.401686
0.0633824
0.407763
0.064069
0.413946
0.0645424
0.420201
0.0648117
0.426499
0.0648889
0.43281
0.064788
0.439106
0.0645178
0.0636335
0.445296
0.335842
0.0140322
0.336954
0.0163097
0.338248
0.018363
0.339734
0.0205264
0.341424
0.0227869
0.343321
0.025123
0.345432
0.0275193
0.347767
0.0299528
0.35034
0.0323893
0.353165
0.0348176
0.356253
0.03723
0.359606