/*--------------------------------*- C++ -*----------------------------------*\
| =========                 |                                                 |
| \\      /  F ield         | OpenFOAM: The Open Source CFD Toolbox           |
|  \\    /   O peration     | Version:  dev                                   |
|   \\  /    A nd           | Web:      www.OpenFOAM.org                      |
|    \\/     M anipulation  |                                                 |
\*---------------------------------------------------------------------------*/
FoamFile
{
    version     2.0;
    format      ascii;
    class       surfaceScalarField;
    location    "0.66";
    object      phi;
}
// * * * * * * * * * * * * * * * * * * * * * * * * * * * * * * * * * * * * * //

dimensions      [0 3 -1 0 0 0 0];

internalField   nonuniform List<scalar> 
5457
(
0.198091
0.00191197
0.195937
0.00215924
0.193496
0.00244826
0.190724
0.00278202
0.187619
0.00311741
0.18418
0.00345171
0.180401
0.00379293
0.176267
0.00414628
0.171762
0.00451527
0.166865
0.00490307
0.161555
0.00531265
0.155808
0.0057457
0.149599
0.00620268
0.142905
0.00668404
0.135704
0.00718908
0.127974
0.0077153
0.119701
0.008258
0.110876
0.00880973
0.101503
0.00935976
0.091598
0.00989357
0.0811968
0.0103922
0.0703584
0.0108321
0.0591686
0.0111854
0.047746
0.0114196
0.036248
0.0114961
0.0248857
0.0113613
0.0139785
0.0109067
0.00426496
0.00971327
-0.00158596
0.00585083
-0.00158598
0.199785
0.00212945
0.198887
0.00306177
0.197587
0.00375557
0.195915
0.00446479
0.193866
0.00517793
0.19144
0.00589156
0.188629
0.00661786
0.185421
0.00736625
0.181804
0.00814334
0.177755
0.00895823
0.173254
0.00981674
0.168277
0.0107206
0.162802
0.0116724
0.156802
0.0126738
0.150255
0.0137241
0.143136
0.0148194
0.135427
0.0159517
0.127115
0.0171076
0.118194
0.0182668
0.108674
0.019402
0.0985799
0.0204774
0.0879586
0.021447
0.0768844
0.022255
0.0654634
0.0228376
0.0538458
0.0231119
0.0422559
0.02295
0.0310452
0.0221168
0.0206399
0.0201183
0.0102207
0.0162699
0.00863464
0.199641
0.00249108
0.198811
0.00389602
0.197584
0.00498987
0.196012
0.0060467
0.1941
0.00710256
0.191843
0.00816165
0.189237
0.00923792
0.186272
0.0103435
0.182937
0.0114893
0.179213
0.012689
0.175082
0.0139504
0.170524
0.0152772
0.165517
0.0166743
0.160036
0.0181453
0.154057
0.0196908
0.147555
0.0213078
0.140502
0.0229891
0.132876
0.0247187
0.124659
0.0264702
0.115839
0.0282105
0.106413
0.0298942
0.0963922
0.0314611
0.0858087
0.0328338
0.0747187
0.0339244
0.0632007
0.0346278
0.0513566
0.0347928
0.0393038
0.0341689
0.0270466
0.0323751
0.0140919
0.0292245
0.0227265
0.199553
0.00293993
0.198727
0.00472673
0.197518
0.00620557
0.195967
0.00760695
0.194086
0.00899596
0.191873
0.0103886
0.189324
0.0118005
0.186433
0.0132474
0.183188
0.014745
0.179577
0.0163078
0.175586
0.0179452
0.171198
0.0196641
0.166396
0.0214717
0.161159
0.0233734
0.155466
0.0253715
0.149294
0.0274658
0.142617
0.0296517
0.135406
0.0319148
0.127633
0.0342296
0.11927
0.036562
0.110287
0.0388674
0.100654
0.0410875
0.0903442
0.043138
0.0793535
0.0449116
0.0676839
0.0462951
0.0553217
0.0471534
0.0422583
0.0472315
0.0285342
0.0460987
0.0143546
0.0434039
0.037081
0.199511
0.00343073
0.198677
0.00556424
0.197484
0.00740556
0.195955
0.00914585
0.194102
0.0108605
0.191926
0.0125779
0.189425
0.0143162
0.186589
0.0160961
0.183408
0.0179369
0.179872
0.019852
0.175968
0.021853
0.171682
0.0239501
0.166997
0.0261524
0.161895
0.0284667
0.156358
0.0308973
0.150361
0.0334492
0.14388
0.0361191
0.136883
0.0388972
0.129332
0.041767
0.121185
0.0446976
0.112391
0.0476513
0.10289
0.0505814
0.0926015
0.0534206
0.0814519
0.0560572
0.0693908
0.0583534
0.0563863
0.0601561
0.0424811
0.0611355
0.0279069
0.0606723
0.0135336
0.0577769
0.0506146
0.199492
0.00394023
0.198654
0.00640546
0.197479
0.00858679
0.195979
0.0106554
0.194163
0.0126882
0.192033
0.014722
0.189583
0.0167794
0.186808
0.0188851
0.183695
0.0210604
0.180236
0.0233194
0.176418
0.0256761
0.172225
0.0281437
0.16764
0.0307334
0.162646
0.0334536
0.157221
0.0363117
0.151342
0.0393162
0.14498
0.0424669
0.138098
0.0457656
0.130646
0.0492059
0.122567
0.0527646
0.113791
0.0564171
0.104237
0.0601274
0.0937987
0.0638529
0.082354
0.0674973
0.0698145
0.0708896
0.0561996
0.0737688
0.0417025
0.0756312
0.0267939
0.0755802
0.012706
0.0718645
0.0633205
0.199485
0.0044557
0.19865
0.00724339
0.197498
0.00974474
0.196033
0.0121292
0.194261
0.0144718
0.192183
0.0168133
0.189795
0.0191817
0.18709
0.021604
0.184058
0.024104
0.180688
0.0266984
0.176966
0.0294031
0.172876
0.0322354
0.168399
0.0352077
0.163515
0.0383308
0.1582
0.0416179
0.152426
0.0450781
0.146162
0.0487182
0.139359
0.0525543
0.131963
0.0565896
0.1239
0.0608154
0.115084
0.0652239
0.105403
0.0697997
0.0947434
0.0745052
0.0829893
0.0792463
0.0700452
0.0838299
0.0559911
0.0878202
0.0411584
0.0904622
0.0262141
0.0905236
0.0123966
0.0856817
0.0757169
0.199487
0.00496841
0.198662
0.00807034
0.197536
0.0108764
0.196111
0.0135629
0.194391
0.0162038
0.192374
0.0188438
0.190056
0.0215132
0.187433
0.0242414
0.184492
0.0270561
0.181224
0.0299761
0.177612
0.0330216
0.173638
0.0362119
0.169284
0.0395595
0.164529
0.0430807
0.159344
0.0467943
0.153694
0.0507174
0.147533
0.0548672
0.140817
0.0592575
0.133488
0.0639068
0.125457
0.0688351
0.116621
0.0740491
0.106855
0.0795563
0.0960441
0.0853087
0.0840879
0.0911967
0.0709353
0.0969782
0.0566924
0.10206
0.0417216
0.105431
0.0267995
0.105445
0.012873
0.0996077
0.0885898
0.199494
0.00547325
0.198687
0.00887921
0.197591
0.0119765
0.196212
0.0149509
0.194549
0.0178778
0.192601
0.020805
0.190365
0.0237633
0.187834
0.0267866
0.184997
0.0299052
0.181842
0.0331413
0.178351
0.036519
0.174511
0.0400555
0.170303
0.0437672
0.1657
0.0476794
0.160672
0.0518155
0.155176
0.0562039
0.149163
0.0608694
0.142586
0.0658221
0.135377
0.0711041
0.12744
0.0767609
0.118668
0.0828111
0.108951
0.0892637
0.0981787
0.0960725
0.0862528
0.103116
0.0731594
0.110067
0.0589877
0.116228
0.0440462
0.12037
0.0289912
0.120498
0.0142744
0.114324
0.102864
0.199505
0.0059664
0.198721
0.00966392
0.197663
0.0130384
0.196334
0.0162879
0.194734
0.0194886
0.192864
0.0226884
0.190719
0.0259227
0.188289
0.0292297
0.185567
0.0326403
0.182538
0.0361809
0.179189
0.0398754
0.175507
0.0437421
0.171469
0.0478061
0.167045
0.0521003
0.1622
0.056655
0.156897
0.0614987
0.151096
0.06666
0.144734
0.0721734
0.137732
0.0780948
0.13001
0.0844725
0.12147
0.091341
0.112019
0.0987046
0.101555
0.106527
0.0899838
0.114681
0.0772632
0.122782
0.0634316
0.130056
0.0486397
0.13516
0.0330781
0.136059
0.0167041
0.130698
0.119568
0.19952
0.00644348
0.198764
0.0104197
0.197749
0.0140571
0.196476
0.0175682
0.194947
0.0210284
0.193161
0.0244867
0.191114
0.0279839
0.188797
0.0315607
0.186201
0.035249
0.183316
0.0390767
0.180131
0.0430691
0.176628
0.0472502
0.172784
0.0516528
0.168569
0.0563135
0.163953
0.061267
0.158904
0.0665405
0.153382
0.0721734
0.147321
0.0782254
0.140657
0.0847483
0.133326
0.0917929
0.125246
0.0994111
0.116328
0.107613
0.106474
0.116372
0.0955953
0.125553
0.0835931
0.134779
0.0703507
0.143295
0.0556638
0.149845
0.0391461
0.152575
0.0203056
0.149538
0.139874
0.199538
0.00690104
0.198814
0.011143
0.197845
0.0150289
0.196634
0.0187859
0.195182
0.0224902
0.193488
0.0261931
0.191547
0.0299392
0.189352
0.0337699
0.186897
0.037717
0.184174
0.0418109
0.181171
0.0460818
0.177869
0.0505587
0.174246
0.0552785
0.170282
0.0602773
0.165955
0.0655915
0.161232
0.0712585
0.15607
0.0773276
0.150425
0.0838623
0.144249
0.0909148
0.137487
0.0985456
0.130076
0.106813
0.121938
0.11574
0.112987
0.125314
0.103114
0.135419
0.0921362
0.145751
0.079699
0.155728
0.0651491
0.164392
0.0474732
0.17025
0.0254798
0.171531
0.165353
0.199559
0.00733676
0.198869
0.0118303
0.197951
0.0159498
0.196806
0.0199365
0.195437
0.0238685
0.193842
0.0278002
0.192016
0.0317793
0.189955
0.0358448
0.187656
0.0400289
0.185112
0.0443672
0.18231
0.0488935
0.179235
0.0536406
0.175872
0.0586463
0.172204
0.0639463
0.168214
0.0695803
0.163874
0.0755942
0.159155
0.0820411
0.154028
0.0889822
0.148459
0.0964758
0.14241
0.104586
0.135841
0.113372
0.1287
0.122871
0.120912
0.133093
0.112342
0.143981
0.102714
0.155373
0.0914624
0.166975
0.0775095
0.178343
0.0590202
0.188738
0.0333689
0.197181
0.198722
0.199582
0.00774849
0.198931
0.0124778
0.198067
0.0168152
0.196993
0.021015
0.195713
0.0251578
0.194224
0.0293009
0.192524
0.0334927
0.190611
0.0377711
0.188483
0.0421709
0.186132
0.0467306
0.18355
0.051486
0.180726
0.0564724
0.17765
0.0617272
0.174311
0.0672879
0.170695
0.0731962
0.166788
0.0794994
0.162573
0.0862518
0.158037
0.0935122
0.153166
0.10134
0.147948
0.109797
0.142368
0.118943
0.136404
0.128827
0.130001
0.139487
0.123033
0.150943
0.115194
0.163207
0.105828
0.176337
0.0935914
0.190577
0.0758046
0.206524
0.047072
0.225914
0.245794
0.199605
0.00813506
0.198996
0.0130829
0.198189
0.0176218
0.197191
0.0220178
0.196004
0.0263538
0.194627
0.0306887
0.193061
0.0350715
0.191304
0.0395413
0.189354
0.0441347
0.187206
0.0488908
0.184856
0.0538468
0.182298
0.0590391
0.179527
0.0645045
0.176538
0.070281
0.173325
0.0764099
0.169886
0.0829376
0.166219
0.0899157
0.162328
0.0973986
0.158221
0.105441
0.153911
0.1141
0.149417
0.12343
0.144751
0.133485
0.139905
0.144325
0.134812
0.15603
0.129265
0.168749
0.12278
0.182819
0.114298
0.199056
0.101349
0.219472
0.076245
0.251017
0.322039
-0.00343899
0.00343877
-0.0168793
0.0134394
-0.0351752
0.0182934
-0.0559287
0.0207489
-0.0776948
0.0217591
-0.0996093
0.0219051
-0.121153
0.0215319
-0.141994
0.0208276
-0.161922
0.0199131
-0.180788
0.0188497
-0.198475
0.0176723
-0.214858
0.0163689
-0.229802
0.0149305
-0.243174
0.0133598
-0.254822
0.0116375
-0.264567
0.00973694
-0.272215
0.00764214
-0.277539
0.00532139
-0.280292
0.00275426
-0.280209
-7.7834e-05
-0.276931
-0.00326988
-0.27005
-0.00686939
-0.259133
-0.0109025
-0.243634
-0.0154813
-0.222819
-0.0207959
-0.195704
-0.0270927
-0.160845
-0.0348349
-0.115153
-0.0456673
-0.0514203
-0.0637053
-0.0880452
-0.0113841
0.0148227
-0.0260016
0.0280559
-0.0439126
0.036202
-0.0637345
0.0405662
-0.0845067
0.0425243
-0.105532
0.042921
-0.126344
0.0423328
-0.146625
0.0410948
-0.166126
0.0393995
-0.184675
0.0373823
-0.202126
0.0351092
-0.218342
0.0325703
-0.233177
0.0297526
-0.246481
0.026651
-0.258085
0.0232312
-0.267807
0.0194501
-0.275441
0.0152713
-0.280772
0.01065
-0.283572
0.00555469
-0.283601
-4.40939e-05
-0.280648
-0.00621451
-0.274451
-0.0130544
-0.264687
-0.0206525
-0.25097
-0.0291809
-0.232822
-0.0389244
-0.209634
-0.0502582
-0.180613
-0.0638323
-0.145011
-0.081244
-0.103813
-0.104876
-0.133601
-0.0153341
0.0301565
-0.0320681
0.044789
-0.0497373
0.0538688
-0.0681658
0.0589902
-0.0870821
0.0614339
-0.106157
0.0619872
-0.125096
0.061261
-0.143667
0.0596526
-0.161665
0.0573831
-0.178913
0.0546146
-0.195255
0.0514373
-0.210559
0.0478595
-0.224689
0.0438694
-0.237484
0.0394339
-0.248766
0.0345024
-0.258347
0.0290224
-0.266018
0.0229371
-0.271565
0.0161946
-0.274768
0.00875861
-0.275416
0.000607936
-0.273315
-0.00830717
-0.268277
-0.0180812
-0.260091
-0.0288238
-0.248529
-0.040726
-0.233327
-0.0541065
-0.214188
-0.0693751
-0.19089
-0.0871068
-0.163797
-0.108312
-0.134616
-0.13403
-0.161681
-0.017738
0.0478943
-0.0356619
0.062712
-0.0527948
0.0709994
-0.0696705
0.0758618
-0.0865104
0.0782675
-0.103355
0.0788238
-0.120123
0.0780188
-0.13668
0.0761965
-0.152891
0.0735802
-0.168609
0.0703181
-0.183677
0.0664914
-0.197949
0.0621174
-0.211272
0.0571791
-0.223474
0.051624
-0.234365
0.0453825
-0.243738
0.0383869
-0.251375
0.0305677
-0.257052
0.0218689
-0.260552
0.0122597
-0.261681
0.0017415
-0.260294
-0.00968624
-0.256284
-0.0220809
-0.249548
-0.0355458
-0.239992
-0.0502649
-0.227519
-0.0665603
-0.212046
-0.0848265
-0.193668
-0.105461
-0.173094
-0.128861
-0.152132
-0.154966
-0.180278
-0.0189956
0.0668897
-0.036948
0.0806634
-0.0529947
0.0870439
-0.0681738
0.0910371
-0.0829682
0.0930561
-0.0976444
0.0934924
-0.112288
0.0926526
-0.126859
0.090756
-0.141275
0.0879829
-0.155418
0.0844469
-0.169143
0.0802031
-0.182293
0.0752537
-0.194692
0.0695646
-0.206152
0.0630724
-0.216475
0.0556942
-0.225445
0.0473485
-0.232844
0.03796
-0.238452
0.0274745
-0.242068
0.0158754
-0.243522
0.00320016
-0.242704
-0.0104976
-0.239565
-0.0252089
-0.234109
-0.0409876
-0.226365
-0.057993
-0.216365
-0.0765405
-0.204174
-0.0969966
-0.190022
-0.119591
-0.174645
-0.144213
-0.159657
-0.169927
-0.192905
-0.0189982
0.0858877
-0.0358846
0.0975489
-0.050369
0.101526
-0.0637315
0.104396
-0.0765844
0.105904
-0.0892615
0.106162
-0.101925
0.105307
-0.114625
0.103445
-0.127317
0.100663
-0.139904
0.0970204
-0.152254
0.09254
-0.164214
0.0872001
-0.175604
0.0809419
-0.18623
0.0736861
-0.195886
0.0653389
-0.204355
0.0558083
-0.211416
0.0450146
-0.216851
0.0329067
-0.220463
0.0194874
-0.222099
0.00483989
-0.221682
-0.0109081
-0.219233
-0.0276471
-0.214856
-0.0453515
-0.208693
-0.0641395
-0.200889
-0.0843262
-0.191593
-0.106272
-0.181065
-0.130095
-0.169924
-0.155329
-0.159437
-0.180388
-0.201389
-0.0176225
0.10351
-0.0325464
0.112472
-0.0451415
0.11412
-0.0565913
0.115843
-0.067566
0.116874
-0.0783961
0.116986
-0.0892553
0.116158
-0.100219
0.114398
-0.111276
0.111708
-0.122359
0.108091
-0.133355
0.103523
-0.144113
0.0979451
-0.15446
0.0912757
-0.164202
0.0834162
-0.173133
0.0742589
-0.181035
0.0637014
-0.187686
0.0516588
-0.192866
0.0380836
-0.196381
0.0230015
-0.198089
0.0065514
-0.197941
-0.0110492
-0.196018
-0.0295599
-0.192521
-0.0488362
-0.187704
-0.0689403
-0.181811
-0.090201
-0.175043
-0.113019
-0.167634
-0.137482
-0.16002
-0.162918
-0.153062
-0.18732
-0.206779
-0.0149394
0.118449
-0.0271681
0.1247
-0.0376311
0.124581
-0.047128
0.125337
-0.0562491
0.125991
-0.0653175
0.126049
-0.0744904
0.125324
-0.0838348
0.123734
-0.0933558
0.121218
-0.103003
0.117726
-0.112677
0.113185
-0.122245
0.1075
-0.131545
0.100562
-0.140391
0.0922506
-0.148584
0.0824406
-0.155908
0.0710167
-0.16214
0.0578835
-0.167051
0.0429909
-0.170433
0.0263833
-0.172142
0.0082626
-0.172145
-0.0110399
-0.170583
-0.031112
-0.167759
-0.0516477
-0.164043
-0.0726414
-0.159767
-0.0944587
-0.155175
-0.117591
-0.150445
-0.14219
-0.145809
-0.16753
-0.141719
-0.191384
-0.209725
-0.0112064
0.129655
-0.020127
0.13362
-0.0282118
0.132664
-0.0357476
0.13287
-0.0430507
0.13329
-0.0504044
0.133397
-0.0579479
0.13286
-0.0657409
0.131518
-0.07379
0.129257
-0.0820486
0.125973
-0.0904311
0.121556
-0.0988231
0.115879
-0.107081
0.108807
-0.115036
0.100194
-0.1225
0.0898931
-0.129265
0.0777723
-0.135104
0.0637159
-0.139774
0.0476566
-0.143035
0.0296437
-0.144718
0.00994836
-0.144793
-0.0109586
-0.143459
-0.0324378
-0.141124
-0.0539701
-0.138277
-0.0754737
-0.135331
-0.0973866
-0.13256
-0.120343
-0.130094
-0.144634
-0.127986
-0.169614
-0.126317
-0.193028
-0.210651
-0.00679381
0.136449
-0.0120944
0.13892
-0.0175086
0.138077
-0.0229134
0.138272
-0.0283687
0.138741
-0.0340236
0.139047
-0.0399684
0.138798
-0.0462405
0.137782
-0.052841
0.135848
-0.0597286
0.132849
-0.0668299
0.128645
-0.0740467
0.123084
-0.0812561
0.116004
-0.0883118
0.107237
-0.0950438
0.0966141
-0.101262
0.0839813
-0.106743
0.0691896
-0.111222
0.0521319
-0.11441
0.0328307
-0.116088
0.0116286
-0.11621
-0.0108315
-0.115032
-0.033607
-0.113071
-0.0559187
-0.110917
-0.077614
-0.109045
-0.0992408
-0.107749
-0.12162
-0.107133
-0.145229
-0.107145
-0.169579
-0.107572
-0.192576
-0.209848
-0.00209105
0.13854
-0.00372355
0.140552
-0.00620753
0.14056
-0.00921028
0.141273
-0.0126592
0.142187
-0.0165438
0.142926
-0.0208674
0.143115
-0.0256141
0.14252
-0.0307733
0.140997
-0.036294
0.138359
-0.0421073
0.134447
-0.0481281
0.129093
-0.0542542
0.122118
-0.0603657
0.113337
-0.0663151
0.102553
-0.0719475
0.0896046
-0.0770563
0.0742915
-0.081373
0.0564444
-0.0845468
0.0360032
-0.0862745
0.0133582
-0.0864799
-0.0106208
-0.0854911
-0.0345874
-0.0839106
-0.0574878
-0.0823797
-0.0791308
-0.0814046
-0.100199
-0.0812869
-0.121718
-0.0821239
-0.144372
-0.0838331
-0.167847
-0.0860641
-0.190321
-0.207528
0.00256787
0.135972
0.00460034
0.138519
0.00522897
0.13993
0.0048268
0.141673
0.00357495
0.143435
0.0016004
0.144896
-0.00102912
0.145739
-0.00422866
0.145712
-0.00792978
0.144689
-0.012066
0.142485
-0.0165636
0.138934
-0.0213441
0.133861
-0.0263213
0.127083
-0.0313986
0.118403
-0.0364355
0.107579
-0.0413399
0.0945
-0.0459401
0.0788849
-0.0500063
0.0605063
-0.0531827
0.0391783
-0.0550354
0.0152127
-0.0554623
-0.0101891
-0.0548424
-0.0351993
-0.0538057
-0.0585135
-0.0529733
-0.0799496
-0.0528305
-0.100326
-0.0536735
-0.120857
-0.0556084
-0.142416
-0.058574
-0.164859
-0.0622845
-0.186586
-0.20386
0.0070559
0.128916
0.0128034
0.132771
0.0166029
0.136129
0.0188475
0.139426
0.0198499
0.142429
0.0198515
0.14489
0.0190002
0.146584
0.0174228
0.147282
0.0152417
0.146861
0.0125501
0.145167
0.00943469
0.142038
0.00597628
0.137308
0.00224978
0.130798
-0.0016724
0.122314
-0.00567049
0.111567
-0.00963576
0.0984565
-0.0134576
0.0827001
-0.0169846
0.0640291
-0.0200529
0.0422452
-0.0222178
0.0173792
-0.0230504
-0.00935179
-0.0230483
-0.0351937
-0.0228439
-0.0587074
-0.0229146
-0.0798656
-0.0236592
-0.0995657
-0.0253435
-0.119155
-0.0280908
-0.139649
-0.0318838
-0.161045
-0.0366616
-0.181785
-0.198993
0.0115858
0.11733
0.0211735
0.123183
0.0280109
0.129291
0.0328089
0.134625
0.036033
0.139202
0.0379839
0.142934
0.0388863
0.145675
0.0389212
0.147239
0.0382518
0.147521
0.0370018
0.146407
0.0352749
0.143754
0.0331641
0.139408
0.0307562
0.133195
0.028133
0.124926
0.0253462
0.114344
0.0225126
0.101282
0.019715
0.0854912
0.0170649
0.0666751
0.0147203
0.0445885
0.012735
0.0193661
0.0111681
-0.00778041
0.00999024
-0.0340084
0.0089091
-0.057616
0.00761901
-0.0785627
0.00583963
-0.097771
0.00334964
-0.116647
1.29045e-07
-0.13628
-0.00427317
-0.15675
-0.00959396
-0.176441
-0.193165
0.0172709
0.100059
0.0304648
0.109988
0.0397147
0.120039
0.0467922
0.127545
0.0520504
0.13394
0.0558037
0.139176
0.0583577
0.143115
0.0599424
0.145646
0.0607461
0.146708
0.0609138
0.146229
0.0605634
0.144094
0.0597966
0.140164
0.0587043
0.134276
0.0573696
0.12625
0.055844
0.11586
0.054215
0.102903
0.0525558
0.0871443
0.0509333
0.0682939
0.0493781
0.0461425
0.0477695
0.0209762
0.0458084
-0.00581489
0.0435074
-0.0317002
0.0410166
-0.0551153
0.0383404
-0.0758739
0.0354029
-0.0948186
0.032082
-0.113309
0.0282571
-0.132436
0.0237757
-0.152247
0.0184632
-0.171105
-0.187163
0.20728
0.00850472
0.206696
0.0136611
0.205926
0.0183909
0.204976
0.0229718
0.203849
0.0274886
0.202547
0.0320012
0.201073
0.0365589
0.199425
0.0412027
0.197603
0.0459704
0.195606
0.0509009
0.193433
0.0560315
0.191083
0.0613983
0.188557
0.0670373
0.185858
0.0729851
0.18299
0.0792809
0.17996
0.0859675
0.176783
0.0930909
0.17348
0.100698
0.170082
0.108834
0.16663
0.117546
0.163173
0.126879
0.159771
0.13688
0.156481
0.147608
0.153352
0.159153
0.15041
0.171686
0.14768
0.185546
0.145364
0.201371
0.144878
0.219957
0.157244
0.23865
0.245454
0.233829
0.212326
0.00885063
0.211779
0.0142003
0.211062
0.0191056
0.210181
0.0238553
0.20914
0.0285361
0.207944
0.0332079
0.206595
0.0379205
0.205095
0.0427162
0.203446
0.0476336
0.201649
0.0527109
0.199708
0.0579841
0.197629
0.0634882
0.195417
0.069257
0.193083
0.0753245
0.190642
0.081726
0.188112
0.0884984
0.185523
0.0956794
0.182913
0.103305
0.180333
0.11141
0.177849
0.120026
0.175543
0.129179
0.173517
0.1389
0.1719
0.149218
0.170866
0.160182
0.17069
0.171857
0.171929
0.184304
0.175856
0.197442
0.184937
0.210875
0.20001
0.223577
0.234401
0.211062
0.217497
0.00916874
0.216994
0.0146943
0.216337
0.0197582
0.215535
0.0246583
0.214593
0.0294835
0.213517
0.0342944
0.212309
0.0391401
0.210975
0.0440635
0.209519
0.0491037
0.207946
0.0542972
0.206264
0.0596783
0.204484
0.0652793
0.202618
0.0711311
0.200686
0.0772638
0.198709
0.0837072
0.196719
0.0904905
0.194758
0.0976416
0.192877
0.105185
0.191144
0.11314
0.189645
0.121521
0.188482
0.130338
0.187786
0.139591
0.187733
0.149266
0.188556
0.159354
0.190586
0.169824
0.194299
0.180589
0.200247
0.191493
0.208722
0.2024
0.218937
0.213362
0.221735
0.231604
0.222797
0.00945547
0.222343
0.0151373
0.221755
0.0203409
0.221041
0.0253717
0.220208
0.0303199
0.219264
0.035247
0.218213
0.0402022
0.217062
0.0452273
0.215819
0.0503609
0.214491
0.0556382
0.213092
0.0610902
0.211636
0.0667457
0.210145
0.0726323
0.208641
0.0787748
0.207158
0.0851964
0.205734
0.0919177
0.204421
0.0989561
0.203283
0.106324
0.202396
0.114025
0.201857
0.122059
0.201778
0.130413
0.202306
0.139059
0.203616
0.147952
0.205919
0.157048
0.209463
0.166278
0.214505
0.175545
0.221272
0.184724
0.230057
0.193615
0.241461
0.201958
0.207434
0.255762
0.228227
0.00970725
0.227829
0.0155237
0.227317
0.0208459
0.226701
0.025986
0.225988
0.0310347
0.225188
0.0360535
0.224308
0.0410918
0.223357
0.0461907
0.222344
0.051387
0.221281
0.0567143
0.220185
0.062199
0.219076
0.0678659
0.21798
0.0737387
0.216926
0.0798365
0.215954
0.0861751
0.21511
0.0927666
0.214451
0.0996175
0.214048
0.106728
0.213983
0.11409
0.214352
0.121689
0.215275
0.12949
0.216889
0.137441
0.219344
0.145494
0.222803
0.153586
0.227451
0.161628
0.233486
0.16951
0.241126
0.177083
0.250654
0.184087
0.262344
0.190269
0.19451
0.275268
0.233791
0.00992063
0.233454
0.0158478
0.233026
0.0212659
0.232516
0.026492
0.231934
0.0316174
0.23129
0.0367025
0.230593
0.0417962
0.229856
0.0469384
0.22909
0.0521657
0.228308
0.0575093
0.227532
0.0629882
0.226786
0.0686229
0.226101
0.0744345
0.22551
0.0804357
0.225058
0.0866349
0.224794
0.0930355
0.224781
0.0996345
0.22509
0.106422
0.225804
0.113378
0.22702
0.120474
0.228844
0.127665
0.231393
0.134892
0.234789
0.142097
0.239168
0.149206
0.244673
0.156122
0.251451
0.162731
0.259643
0.168891
0.26933
0.1744
0.2805
0.179099
0.18244
0.292571
0.239492
0.0100923
0.239221
0.0161045
0.238883
0.0215941
0.238489
0.0268815
0.238048
0.0320579
0.23757
0.0371831
0.237068
0.0423042
0.236556
0.0474595
0.236048
0.052685
0.23556
0.0580085
0.235118
0.0634428
0.234748
0.0690044
0.234483
0.0747102
0.234361
0.0805667
0.234428
0.0865758
0.234737
0.0927329
0.235349
0.0990271
0.236335
0.105439
0.237774
0.111941
0.239754
0.118496
0.242367
0.125053
0.245707
0.131553
0.249875
0.137929
0.254976
0.144105
0.261109
0.149989
0.268363
0.155478
0.276798
0.160456
0.286415
0.164784
0.297177
0.168337
0.1708
0.308818
0.245333
0.0102192
0.245132
0.016289
0.244891
0.0218242
0.244619
0.0271468
0.244327
0.0323478
0.244027
0.0374855
0.24373
0.0426056
0.243452
0.0477448
0.243211
0.0529355
0.243029
0.0582007
0.242931
0.0635522
0.242944
0.0690027
0.243102
0.0745621
0.243447
0.0802318
0.244024
0.0860072
0.244886
0.0918778
0.246093
0.0978261
0.24771
0.103827
0.249808
0.109846
0.252464
0.115843
0.255755
0.121765
0.259757
0.127553
0.264548
0.13314
0.2702
0.138454
0.276776
0.143414
0.284322
0.147933
0.29286
0.151919
0.302373
0.155272
0.312814
0.157897
0.159602
0.324012
0.251316
0.0102986
0.251191
0.016397
0.251051
0.0219506
0.250909
0.0272814
0.250774
0.0324795
0.250658
0.0376017
0.250575
0.0426918
0.250542
0.0477846
0.250577
0.0529079
0.250706
0.0580807
0.250953
0.0633145
0.251348
0.0686176
0.251927
0.0739937
0.252728
0.0794398
0.253798
0.0849465
0.255185
0.0904976
0.256947
0.096071
0.259141
0.101638
0.261831
0.107162
0.265078
0.112599
0.268946
0.1179
0.273494
0.123008
0.278777
0.127859
0.284843
0.132391
0.291726
0.136533
0.299447
0.140214
0.308003
0.143364
0.317365
0.145912
0.327471
0.147792
0.148879
0.338195
0.257446
0.010328
0.257399
0.0164244
0.257367
0.0219684
0.257359
0.0272796
0.257386
0.0324469
0.257462
0.0375253
0.257599
0.0425563
0.257816
0.0475722
0.258133
0.0525972
0.258574
0.0576474
0.259166
0.0627318
0.259937
0.0678548
0.260924
0.0730155
0.262166
0.078207
0.263704
0.0834166
0.265585
0.0886248
0.267857
0.0938058
0.270573
0.0989287
0.273784
0.103956
0.277541
0.108847
0.281894
0.113552
0.286884
0.118021
0.29255
0.122197
0.298918
0.126026
0.306005
0.129449
0.313809
0.132412
0.322315
0.134861
0.33148
0.136748
0.341243
0.13803
0.138617
0.351506
0.263725
0.0103052
0.26376
0.0163681
0.263838
0.0218734
0.263969
0.0271368
0.264164
0.0322453
0.264435
0.0372517
0.264796
0.0421953
0.265266
0.0471055
0.265865
0.0520034
0.266617
0.0569023
0.267547
0.0618087
0.268686
0.0667237
0.270067
0.0716428
0.271726
0.0765558
0.273703
0.0814474
0.276039
0.0862965
0.278775
0.0910764
0.281956
0.0957552
0.285622
0.100297
0.289813
0.104661
0.294565
0.108805
0.299908
0.112683
0.305863
0.116247
0.312443
0.11945
0.319648
0.122248
0.327465
0.124598
0.335867
0.126461
0.34481
0.127807
0.354234
0.128608
0.128795
0.364057
0.270156
0.0102284
0.270275
0.0162256
0.270467
0.0216629
0.27074
0.02685
0.271105
0.0318718
0.271573
0.0367787
0.27216
0.0416074
0.272882
0.0463846
0.273761
0.0511288
0.274818
0.0558506
0.276079
0.060554
0.277572
0.0652375
0.279328
0.0698941
0.281379
0.0745113
0.283761
0.079072
0.286511
0.0835541
0.289662
0.0879313
0.293251
0.0921731
0.297308
0.0962457
0.301863
0.100112
0.306939
0.103734
0.312555
0.107073
0.318721
0.110086
0.325437
0.112739
0.332693
0.114995
0.340469
0.116825
0.348731
0.118202
0.357434
0.119106
0.366522
0.119522
0.119395
0.375923
0.276743
0.0100964
0.276947
0.0159951
0.277255
0.0213347
0.277672
0.0264173
0.278208
0.031325
0.278874
0.0361057
0.279685
0.0407935
0.280657
0.0454126
0.281809
0.0499789
0.283162
0.0545007
0.284741
0.0589801
0.286571
0.0634132
0.28868
0.0677914
0.291097
0.0721012
0.293851
0.0763244
0.296972
0.0804393
0.300489
0.08442
0.304429
0.0882383
0.308817
0.0918638
0.313671
0.095264
0.319004
0.0984071
0.324826
0.101258
0.331136
0.103782
0.337926
0.105953
0.345181
0.107745
0.352873
0.109137
0.360967
0.110111
0.369419
0.110656
0.378176
0.110767
0.110399
0.387174
0.283488
0.00990851
0.283779
0.0156757
0.284203
0.0208881
0.284765
0.0258382
0.285471
0.0306052
0.286334
0.0352342
0.287366
0.0397568
0.288581
0.0441947
0.289999
0.0485617
0.291638
0.052864
0.29352
0.0571019
0.295667
0.0612703
0.298104
0.0653596
0.300855
0.0693554
0.303945
0.0732401
0.307397
0.0769924
0.311234
0.0805886
0.315475
0.0840029
0.320136
0.0872078
0.325229
0.090176
0.33076
0.092882
0.336728
0.0952957
0.343127
0.0973889
0.349942
0.0991426
0.357152
0.100539
0.364728
0.101564
0.372635
0.102207
0.380828
0.102465
0.389259
0.102337
0.101788
0.397872
0.290396
0.00966431
0.290774
0.0152671
0.291313
0.020323
0.292018
0.0251135
0.292894
0.0297142
0.29395
0.0341675
0.295197
0.0385024
0.296649
0.0427384
0.298322
0.0468873
0.300232
0.0509537
0.302399
0.0549368
0.304842
0.0588304
0.307581
0.0626244
0.310636
0.0663048
0.314026
0.0698544
0.31777
0.0732538
0.321882
0.0764812
0.326376
0.0795136
0.33126
0.0823277
0.33654
0.0849011
0.342215
0.0872125
0.348279
0.0892368
0.354721
0.090953
0.36152
0.0923482
0.368652
0.0934105
0.376088
0.0941314
0.383792
0.0945065
0.391723
0.0945366
0.399836
0.0942256
0.0935444
0.408081
0.297469
0.00936393
0.297933
0.0147699
0.298588
0.0196407
0.299434
0.0242452
0.300475
0.0286552
0.301719
0.0329103
0.303175
0.037037
0.304854
0.0410529
0.30677
0.0449678
0.308937
0.0487853
0.31137
0.0525035
0.314086
0.056116
0.3171
0.0596126
0.320428
0.06298
0.324083
0.0662022
0.328079
0.0692616
0.332424
0.072139
0.337127
0.0748146
0.34219
0.0772685
0.347611
0.0794839
0.353386
0.0814422
0.359505
0.0831229
0.36595
0.0845125
0.3727
0.0856023
0.37973
0.086385
0.387007
0.0868566
0.394499
0.0870171
0.402168
0.0868704
0.409971
0.0864232
0.0856523
0.417865
0.304711
0.00900787
0.30526
0.0141851
0.306028
0.0188432
0.307012
0.0232363
0.308214
0.0274327
0.30964
0.0314689
0.311296
0.035369
0.313192
0.0391487
0.315337
0.0428165
0.317744
0.046375
0.320424
0.0498216
0.323389
0.0531501
0.326651
0.0563506
0.330222
0.0594108
0.33411
0.0623164
0.338322
0.0650517
0.342863
0.0676001
0.347735
0.069945
0.352936
0.0720701
0.35846
0.0739627
0.364299
0.0756077
0.370437
0.0769889
0.376855
0.078098
0.383531
0.0789301
0.390438
0.0794815
0.397545
0.0797518
0.40482
0.0797439
0.412228
0.079464
0.419732
0.0789204
0.0780948
0.427291
0.312127
0.00859697
0.312759
0.0135147
0.313636
0.017933
0.314754
0.0220909
0.316112
0.0260522
0.317713
0.0298505
0.31956
0.0335077
0.32166
0.0370377
0.32402
0.0404478
0.32665
0.0437398
0.329556
0.0469111
0.332748
0.0499555
0.336233
0.0528641
0.340018
0.0556256
0.344107
0.0582276
0.348503
0.0606563
0.353205
0.062898
0.358213
0.0649389
0.363518
0.0667661
0.369112
0.0683703
0.374983
0.0697399
0.381113
0.0708623
0.387481
0.0717329
0.394064
0.07235
0.400834
0.0727129
0.407764
0.0728238
0.414822
0.0726875
0.421975
0.0723116
0.429191
0.0717054
0.0708546
0.436431
0.319719
0.00813234
0.320432
0.0127607
0.321416
0.0169136
0.322663
0.0208135
0.324171
0.0245198
0.325937
0.0280632
0.327965
0.0314631
0.330257
0.034732
0.332818
0.0378761
0.335653
0.0408967
0.338766
0.0437914
0.342163
0.0465542
0.345846
0.0491772
0.349819
0.0516505
0.354081
0.0539634
0.358632
0.0561045
0.363467
0.0580622
0.368579
0.0598257
0.37396
0.0613848
0.379597
0.0627334
0.385476
0.0638631
0.391577
0.0647638
0.397878
0.0654339
0.404355
0.0658744
0.410982
0.0660867
0.417732
0.0660747
0.424576
0.0658445
0.431483
0.0654045
0.438424
0.0647645
0.0639132
0.445365
0.327493
0.00761523
0.328284
0.0119256
0.329371
0.0157887
0.330742
0.0194095
0.332392
0.0228425
0.334316
0.0261154
0.336514
0.0292456
0.338986
0.032244
0.341733
0.0351159
0.344756
0.0378624
0.348058
0.040481
0.351638
0.0429665
0.355498
0.045312
0.359634
0.047509
0.364045
0.0495485
0.368725
0.051421
0.373667
0.0531175
0.378861
0.0546293
0.384294
0.0559489
0.389954
0.0570728
0.395822
0.0579951
0.401879
0.0587079
0.408102
0.0592119
0.414466
0.0595098
0.420948
0.0596048
0.427521
0.0595017
0.434157
0.0592075
0.44083
0.0587308
0.447512
0.0580814
0.0572506
0.454174
0.335452
0.00704697
0.336319
0.0110122
0.337504
0.0145623
0.338994
0.0178842
0.340779
0.0210272
0.342852
0.024016
0.34521
0.0268658
0.347849
0.029586
0.350768
0.0321812
0.353964
0.0346524
0.357437
0.0369972
0.361182
0.0392111
0.365198
0.0412882
0.369478
0.0432215
0.374017
0.0450035
0.378806
0.0466267
0.383834
0.0480839
0.38909
0.0493687
0.394558
0.0504757
0.400225
0.0514035
0.40607
0.052148
0.412074
0.0527035
0.418213
0.0530719
0.424464
0.0532575
0.430803
0.0532643
0.437205
0.0530979
0.443645
0.0527655
0.450099
0.0522755
0.45654
0.0516374
0.0508447
0.462944
0.343601
0.00642885
0.344541
0.0100229
0.345822
0.0132383
0.347425
0.016243
0.349338
0.019081
0.351551
0.0217735
0.354058