/*--------------------------------*- C++ -*----------------------------------*\
| =========                 |                                                 |
| \\      /  F ield         | OpenFOAM: The Open Source CFD Toolbox           |
|  \\    /   O peration     | Version:  dev                                   |
|   \\  /    A nd           | Web:      www.OpenFOAM.org                      |
|    \\/     M anipulation  |                                                 |
\*---------------------------------------------------------------------------*/
FoamFile
{
    version     2.0;
    format      ascii;
    class       volScalarField;
    location    "0.17";
    object      p;
}
// * * * * * * * * * * * * * * * * * * * * * * * * * * * * * * * * * * * * * //

dimensions      [0 2 -2 0 0 0 0];

internalField   nonuniform List<scalar> 
465
(
74.6736
74.5583
74.7808
75.3215
76.0783
77.0063
78.1016
79.3652
80.7934
82.3802
84.1189
86.0019
88.0204
90.1638
92.4193
94.7719
97.2033
99.6922
102.213
104.735
107.223
74.4833
74.4666
74.7134
75.2525
76.006
76.9312
78.0224
79.2805
80.7023
82.282
84.0131
85.8883
87.8989
90.0346
92.2829
94.629
97.0553
99.5406
102.06
104.584
107.078
74.2884
74.3422
74.6082
75.1379
75.879
76.7919
77.8689
79.1103
80.5129
82.0713
83.7792
85.6295
87.6138
89.7219
91.9419
94.2594
96.6576
99.1163
101.612
104.117
106.598
74.0705
74.1566
74.4348
74.9556
75.6823
76.5793
77.6376
78.8565
80.2328
81.7614
83.4359
85.2494
87.1936
89.2587
91.4331
93.7032
96.0531
98.4642
100.915
103.378
105.826
73.8195
73.9201
74.2063
74.7195
75.43
76.3068
77.3405
78.5297
79.8714
81.3602
82.9901
84.754
86.6437
88.6499
90.7612
92.965
95.2463
97.5881
99.9706
102.371
104.761
73.5308
73.6372
73.9256
74.4288
75.1199
75.9712
76.9744
78.1273
79.4266
80.8669
82.442
84.1447
85.9669
87.8993
89.931
92.0499
94.2424
96.4927
98.7833
101.094
103.4
73.2028
73.3099
73.5951
74.0853
74.7539
75.5757
76.543
77.6533
78.9029
80.2862
81.7966
83.4269
85.1686
87.0125
88.9481
90.9636
93.0462
95.1819
97.3547
99.5468
101.738
72.8349
72.9397
73.2175
73.6914
74.3343
75.1225
76.0489
77.1107
78.3036
79.6217
81.058
82.6049
84.2539
85.9951
87.8183
89.7118
91.6635
93.6601
95.6874
97.7295
99.769
72.4277
72.5282
72.7951
73.2495
73.8636
74.6144
75.4951
76.5027
77.6324
78.8777
80.2312
81.6846
83.2289
84.854
86.549
88.3023
90.1017
91.9342
93.7864
95.6435
97.4902
71.9821
72.0769
72.3302
72.7622
73.3446
74.0544
74.8851
75.8334
76.8938
78.0593
79.3219
80.6725
82.1012
83.5974
85.1493
86.7447
88.3707
90.0139
91.6603
93.2952
94.9031
71.4998
71.5877
71.8253
72.2323
72.7801
73.4457
74.2225
75.1069
76.0927
77.1722
78.3365
79.5758
80.8792
82.2347
83.6298
85.0508
86.4834
87.9128
89.3228
90.6968
92.0169
70.9825
71.0626
71.2828
71.6626
72.1733
72.7918
73.5113
74.3277
75.2342
76.2223
77.2821
78.4027
79.5721
80.7769
82.003
83.2348
84.4559
85.6485
86.7932
87.8686
88.8514
70.4323
70.5041
70.7054
71.056
71.5274
72.0964
72.7557
73.5007
74.324
75.2161
76.1661
77.1619
78.1902
79.2359
80.2828
81.3131
82.3072
83.2435
84.0973
84.8404
85.4397
69.8515
69.9144
70.0957
70.4156
70.846
71.3634
71.9601
72.631
73.3679
74.1604
74.9965
75.8629
76.7446
77.6248
78.4848
79.3042
80.0596
80.7245
81.2677
81.6516
81.8301
69.2424
69.2961
69.4565
69.7445
70.1324
70.5966
71.129
71.7237
72.3718
73.0621
73.7815
74.5152
75.2466
75.9569
76.6252
77.2276
77.737
78.1213
78.3417
78.35
78.0848
68.7781
69.0327
69.3763
69.7852
70.2507
70.7664
71.3228
71.9075
72.5063
73.1033
73.6799
74.2156
74.6867
75.0662
75.3229
75.4189
75.3077
74.9302
74.2092
68.2724
68.5697
68.9209
69.3168
69.7506
70.2118
70.6873
71.1617
71.6177
72.0353
72.3918
72.6613
72.8137
72.8135
72.6178
72.1732
71.4109
70.2401
67.7194
68.0112
68.3358
68.6856
69.0495
69.4136
69.7615
70.0747
70.3317
70.5081
70.5758
70.502
70.2481
69.7671
69.0002
67.8722
66.2843
67.0593
67.3113
67.576
67.8416
68.0934
68.3145
68.4849
68.5823
68.5807
68.4503
68.1567
67.6587
66.9071
65.8404
64.3812
62.4298
66.2476
66.4268
66.5942
66.7343
66.8296
66.8595
66.8006
66.6262
66.3055
65.803
65.0768
64.0769
62.7425
60.998
58.749
65.2438
65.3139
65.3442
65.3165
65.2099
65.0006
64.6615
64.1616
63.4654
62.5317
61.3118
59.7478
57.7699
55.2933
63.9317
63.7853
63.5482
63.1964
62.7033
62.0384
61.1672
60.0504
58.6424
56.8904
54.7324
52.0961
62.2465
61.8864
61.4022
60.7679
59.9545
58.9294
57.6562
56.094
54.196
51.9097
49.1758
59.6314
58.8704
57.9266
56.7701
55.3684
53.6855
51.682
49.315
46.5382
55.9692
54.7043
53.2014
51.4301
49.3585
46.9528
44.1786
52.7436
51.1655
49.3357
47.2288
44.82
42.0849
47.4049
45.2911
42.9081
40.2402
41.2047
38.6242
)
;

boundaryField
{
    inlet
    {
        type            zeroGradient;
    }
    outlet
    {
        type            fixedValue;
        value           nonuniform 0();
    }
    flap
    {
        type            zeroGradient;
    }
    upperWall
    {
        type            zeroGradient;
    }
    lowerWall
    {
        type            zeroGradient;
    }
    frontAndBack
    {
        type            empty;
    }
    procBoundary3to0
    {
        type            processor;
        value           nonuniform List<scalar> 
34
(
68.5954
68.6395
68.6395
68.0528
68.0528
67.4699
67.4699
66.828
66.828
66.0686
66.0686
65.1494
65.1494
64.0329
64.0081
64.0081
62.5057
62.5057
60.7104
60.2365
60.2365
57.8964
57.0244
57.0244
54.0943
54.0943
50.896
49.267
49.267
45.6368
43.5394
43.5394
39.6951
37.2155
)
;
    }
    procBoundary3to1
    {
        type            processor;
        value           nonuniform List<scalar> 9(55.8766 52.2159 48.8976 45.9289 43.3028 41.0018 39.0016 37.2748 35.7925);
    }
    procBoundary3to4
    {
        type            processor;
        value           nonuniform List<scalar> 
19
(
109.637
109.504
109.019
108.223
107.112
105.676
103.905
101.787
99.3099
96.4685
93.2652
89.7162
85.857
81.746
77.4655
73.04
68.5371
64.1033
59.8553
)
;
    }
}


// ************************************************************************* //
