/*--------------------------------*- C++ -*----------------------------------*\
| =========                 |                                                 |
| \\      /  F ield         | OpenFOAM: The Open Source CFD Toolbox           |
|  \\    /   O peration     | Version:  dev                                   |
|   \\  /    A nd           | Web:      www.OpenFOAM.org                      |
|    \\/     M anipulation  |                                                 |
\*---------------------------------------------------------------------------*/
FoamFile
{
    version     2.0;
    format      ascii;
    class       volVectorField;
    location    "3.46";
    object      cellDisplacement;
}
// * * * * * * * * * * * * * * * * * * * * * * * * * * * * * * * * * * * * * //

dimensions      [0 1 0 0 0 0 0];

internalField   nonuniform List<vector> 
2790
(
(0.00244007 0 4.27009e-07)
(0.0070113 0 1.28231e-06)
(0.0110018 0 2.18524e-06)
(0.0144508 0 3.21542e-06)
(0.0173978 0 4.44142e-06)
(0.0198798 0 5.92693e-06)
(0.0219306 0 7.73537e-06)
(0.0235806 0 9.93322e-06)
(0.0248572 0 1.25927e-05)
(0.0257844 0 1.57937e-05)
(0.0263837 0 1.96255e-05)
(0.0266738 0 2.41881e-05)
(0.026671 0 2.95926e-05)
(0.02639 0 3.59619e-05)
(0.0258439 0 4.34295e-05)
(0.0250452 0 5.21382e-05)
(0.0240061 0 6.22372e-05)
(0.0227397 0 7.38785e-05)
(0.0212605 0 8.72118e-05)
(0.0195861 0 0.00010238)
(0.017738 0 0.000119515)
(0.0157434 0 0.000138739)
(0.0136362 0 0.00016017)
(0.0114592 0 0.000183942)
(0.00926585 0 0.000210239)
(0.00712234 0 0.000239343)
(0.00511078 0 0.00027166)
(0.00333482 0 0.000307569)
(0.00193313 0 0.00034639)
(0.00112589 0 0.000381624)
(0.00244319 0 1.26881e-06)
(0.00702055 0 3.81069e-06)
(0.0110171 0 6.49522e-06)
(0.0144724 0 9.55932e-06)
(0.0174262 0 1.3207e-05)
(0.0199157 0 1.76277e-05)
(0.021975 0 2.30096e-05)
(0.0236347 0 2.95501e-05)
(0.0249223 0 3.74632e-05)
(0.0258625 0 4.6986e-05)
(0.0264767 0 5.83827e-05)
(0.0267839 0 7.19493e-05)
(0.0268009 0 8.80147e-05)
(0.0265428 0 0.000106942)
(0.0260229 0 0.000129126)
(0.025254 0 0.000154988)
(0.0242488 0 0.000184967)
(0.0230205 0 0.000219511)
(0.0215839 0 0.000259055)
(0.0199566 0 0.00030401)
(0.0181602 0 0.000354744)
(0.0162217 0 0.000411573)
(0.0141751 0 0.000474765)
(0.0120632 0 0.000544567)
(0.00994003 0 0.000621245)
(0.00787327 0 0.000705113)
(0.00594809 0 0.000796411)
(0.00427327 0 0.000894526)
(0.00299253 0 0.000994904)
(0.00231117 0 0.00107808)
(0.00244941 0 2.07422e-06)
(0.00703896 0 6.23106e-06)
(0.0110476 0 1.06247e-05)
(0.0145153 0 1.56437e-05)
(0.0174826 0 2.16224e-05)
(0.0199871 0 2.88705e-05)
(0.0220633 0 3.76957e-05)
(0.0237422 0 4.84198e-05)
(0.0250521 0 6.13912e-05)
(0.0260177 0 7.6995e-05)
(0.0266614 0 9.56607e-05)
(0.0270026 0 0.000117868)
(0.0270589 0 0.00014415)
(0.0268459 0 0.000175093)
(0.0263777 0 0.000211336)
(0.0256679 0 0.000253558)
(0.0247295 0 0.000302465)
(0.0235766 0 0.00035877)
(0.0222242 0 0.000423161)
(0.0206901 0 0.000496263)
(0.0189958 0 0.000578605)
(0.0171682 0 0.000670567)
(0.0152407 0 0.000772352)
(0.0132559 0 0.00088394)
(0.0112678 0 0.00100502)
(0.00934491 0 0.00113482)
(0.0075739 0 0.00127157)
(0.00606435 0 0.00141105)
(0.00495369 0 0.0015426)
(0.00441452 0 0.00163939)
(0.00245864 0 2.81971e-06)
(0.00706629 0 8.47348e-06)
(0.0110928 0 1.44566e-05)
(0.0145791 0 2.13001e-05)
(0.0175664 0 2.94601e-05)
(0.020093 0 3.93582e-05)
(0.0221941 0 5.1412e-05)
(0.0239015 0 6.60572e-05)
(0.0252441 0 8.37646e-05)
(0.0262474 0 0.000105053)
(0.0269345 0 0.0001305)
(0.0273259 0 0.00016075)
(0.02744 0 0.000196516)
(0.0272934 0 0.000238584)
(0.0269013 0 0.000287804)
(0.0262783 0 0.000345081)
(0.0254384 0 0.00041135)
(0.0243963 0 0.000487544)
(0.0231678 0 0.000574549)
(0.0217709 0 0.000673138)
(0.0202268 0 0.000783895)
(0.0185618 0 0.000907116)
(0.0168084 0 0.00104269)
(0.0150076 0 0.00118993)
(0.0132117 0 0.00134733)
(0.0114871 0 0.00151214)
(0.00991769 0 0.00167949)
(0.00860735 0 0.00184079)
(0.00768033 0 0.00198077)
(0.00727925 0 0.00207284)
(0.00247076 0 3.48286e-06)
(0.00710216 0 1.04714e-05)
(0.0111521 0 1.78796e-05)
(0.0146627 0 2.63687e-05)
(0.0176762 0 3.65047e-05)
(0.0202318 0 4.88094e-05)
(0.0223655 0 6.37979e-05)
(0.0241101 0 8.20054e-05)
(0.0254953 0 0.000104008)
(0.0265477 0 0.000130441)
(0.0272913 0 0.000162004)
(0.0277479 0 0.000199481)
(0.027937 0 0.000243735)
(0.0278766 0 0.000295713)
(0.0275833 0 0.00035644)
(0.0270727 0 0.000426998)
(0.0263605 0 0.000508503)
(0.0254622 0 0.000602054)
(0.0243943 0 0.000708671)
(0.0231753 0 0.000829202)
(0.0218261 0 0.000964198)
(0.0203717 0 0.00111374)
(0.0188428 0 0.00127725)
(0.0172771 0 0.00145313)
(0.0157227 0 0.00163842)
(0.0142402 0 0.00182814)
(0.0129054 0 0.00201441)
(0.0118112 0 0.00218528)
(0.0110657 0 0.00232348)
(0.0107904 0 0.00240635)
(0.00248561 0 4.0429e-06)
(0.00714609 0 1.2163e-05)
(0.0112247 0 2.07909e-05)
(0.014765 0 3.07017e-05)
(0.0178104 0 4.25575e-05)
(0.0204014 0 5.69657e-05)
(0.0225749 0 7.45232e-05)
(0.0243647 0 9.58475e-05)
(0.0258016 0 0.000121601)
(0.0269135 0 0.000152506)
(0.0277256 0 0.000189365)
(0.028261 0 0.000233062)
(0.0285407 0 0.000284575)
(0.0285842 0 0.000344969)
(0.0284098 0 0.000415391)
(0.0280347 0 0.000497052)
(0.0274761 0 0.000591185)
(0.0267509 0 0.000698995)
(0.0258767 0 0.000821576)
(0.0248721 0 0.000959786)
(0.0237578 0 0.00111409)
(0.0225573 0 0.0012843)
(0.0212982 0 0.00146932)
(0.0200135 0 0.00166669)
(0.0187442 0 0.0018721)
(0.0175413 0 0.00207871)
(0.0164683 0 0.00227651)
(0.0156028 0 0.00245172)
(0.0150373 0 0.002587)
(0.0148803 0 0.00266346)
(0.00250298 0 4.48115e-06)
(0.00719745 0 1.34932e-05)
(0.0113095 0 2.30981e-05)
(0.0148845 0 3.41673e-05)
(0.0179672 0 4.74418e-05)
(0.0205993 0 6.35981e-05)
(0.022819 0 8.3297e-05)
(0.0246613 0 0.000107218)
(0.0261581 0 0.000136086)
(0.0273387 0 0.000170687)
(0.0282298 0 0.000211888)
(0.0288558 0 0.000260642)
(0.0292396 0 0.000317993)
(0.0294023 0 0.000385078)
(0.0293641 0 0.000463111)
(0.0291442 0 0.000553367)
(0.0287614 0 0.000657135)
(0.0282343 0 0.00077566)
(0.0275817 0 0.000910049)
(0.0268228 0 0.00106112)
(0.0259781 0 0.00122924)
(0.0250691 0 0.00141398)
(0.0241199 0 0.00161384)
(0.0231574 0 0.0018257)
(0.0222133 0 0.00204431)
(0.021326 0 0.0022617)
(0.0205429 0 0.00246674)
(0.0199243 0 0.0026451)
(0.0195466 0 0.00278008)
(0.0195117 0 0.00285453)
(0.00252263 0 4.78147e-06)
(0.00725555 0 1.44139e-05)
(0.0114055 0 2.47217e-05)
(0.0150196 0 3.66521e-05)
(0.0181443 0 5.10065e-05)
(0.0208227 0 6.85122e-05)
(0.0230942 0 8.98742e-05)
(0.0249953 0 0.000115812)
(0.0265591 0 0.000147088)
(0.0278163 0 0.000184522)
(0.0287951 0 0.000229012)
(0.0295217 0 0.000281537)
(0.0300207 0 0.000343166)
(0.0303151 0 0.000415048)
(0.0304271 0 0.000498408)
(0.030378 0 0.000594516)
(0.0301885 0 0.000704649)
(0.0298793 0 0.000830025)
(0.0294705 0 0.000971704)
(0.0289825 0 0.00113044)
(0.0284353 0 0.00130649)
(0.0278492 0 0.0014993)
(0.0272442 0 0.00170713)
(0.0266407 0 0.00192657)
(0.0260599 0 0.00215197)
(0.0255253 0 0.00237495)
(0.025066 0 0.00258406)
(0.0247217 0 0.00276509)
(0.024552 0 0.00290179)
(0.0246517 0 0.00297661)
(0.00254428 0 4.93045e-06)
(0.00731956 0 1.48856e-05)
(0.0115112 0 2.55963e-05)
(0.0151683 0 3.80635e-05)
(0.0183391 0 5.31294e-05)
(0.0210682 0 7.15521e-05)
(0.0233964 0 9.40606e-05)
(0.0253615 0 0.000121392)
(0.0269981 0 0.000154318)
(0.0283383 0 0.000193664)
(0.0294119 0 0.000240322)
(0.0302468 0 0.000295257)
(0.0308695 0 0.000359511)
(0.0313049 0 0.000434196)
(0.0315774 0 0.000520479)
(0.0317103 0 0.000619561)
(0.0317267 0 0.000732634)
(0.0316491 0 0.000860816)
(0.0314997 0 0.00100506)
(0.0313001 0 0.00116603)
(0.0310708 0 0.00134387)
(0.030831 0 0.00153801)
(0.0305973 0 0.00174672)
(0.0303841 0 0.00196668)
(0.0302023 0 0.00219238)
(0.0300598 0 0.00241562)
(0.0299645 0 0.00262516)
(0.0299323 0 0.00280685)
(0.0300005 0 0.00294423)
(0.0302512 0 0.00301817)
(0.00256764 0 4.91777e-06)
(0.00738861 0 1.48779e-05)
(0.0116251 0 2.56718e-05)
(0.0153285 0 3.83314e-05)
(0.0185489 0 5.37189e-05)
(0.0213323 0 7.26034e-05)
(0.0237211 0 9.57167e-05)
(0.0257543 0 0.00012379)
(0.0274682 0 0.000157579)
(0.0288962 0 0.000197884)
(0.0300697 0 0.000245557)
(0.0310185 0 0.000301508)
(0.0317705 0 0.000366704)
(0.032353 0 0.000442163)
(0.0327921 0 0.000528937)
(0.0331135 0 0.000628088)
(0.0333425 0 0.000740645)
(0.0335039 0 0.000867556)
(0.0336218 0 0.0010096)
(0.0337197 0 0.00116728)
(0.0338192 0 0.00134066)
(0.0339392 0 0.00152918)
(0.0340941 0 0.0017314)
(0.0342946 0 0.00194437)
(0.0345426 0 0.00216326)
(0.034831 0 0.00238062)
(0.0351453 0 0.00258571)
(0.035472 0 0.00276407)
(0.0358157 0 0.00289782)
(0.0362333 0 0.00296583)
(0.00259238 0 4.73629e-06)
(0.00746172 0 1.43698e-05)
(0.0117457 0 2.49143e-05)
(0.0154981 0 3.74093e-05)
(0.0187706 0 5.2716e-05)
(0.0216111 0 7.1595e-05)
(0.0240634 0 9.47598e-05)
(0.0261679 0 0.000122914)
(0.0279621 0 0.000156773)
(0.0294811 0 0.000197081)
(0.0307578 0 0.000244618)
(0.0318233 0 0.0003002)
(0.0327076 0 0.000364679)
(0.0334396 0 0.000438925)
(0.0340474 0 0.000523818)
(0.0345589 0 0.000620212)
(0.0350013 0 0.000728908)
(0.0354017 0 0.000850598)
(0.0357865 0 0.000985808)
(0.0361811 0 0.00113481)
(0.0366092 0 0.00129753)
(0.0370908 0 0.00147338)
(0.0376378 0 0.00166141)
(0.0382624 0 0.00185926)
(0.0389604 0 0.00206323)
(0.0397127 0 0.00226736)
(0.0404832 0 0.00246206)
(0.041223 0 0.00263263)
(0.0418885 0 0.00275849)
(0.0424874 0 0.00281552)
(0.00261816 0 4.38219e-06)
(0.0075379 0 1.33503e-05)
(0.0118713 0 2.33066e-05)
(0.0156745 0 3.52748e-05)
(0.0190012 0 5.00952e-05)
(0.0219008 0 6.84998e-05)
(0.0244184 0 9.1165e-05)
(0.026596 0 0.000118745)
(0.0284724 0 0.000151893)
(0.0300838 0 0.000191272)
(0.0314647 0 0.00023756)
(0.0326477 0 0.000291448)
(0.0336642 0 0.000353628)
(0.0345447 0 0.000424785)
(0.0353192 0 0.000505572)
(0.0360171 0 0.000596582)
(0.0366677 0 0.000698314)
(0.0372999 0 0.000811134)
(0.0379422 0 0.000935227)
(0.0386222 0 0.00107054)
(0.039366 0 0.00121672)
(0.0401974 0 0.00137289)
(0.0411206 0 0.00153897)
(0.0421607 0 0.00171289)
(0.0433095 0 0.00189253)
(0.0445422 0 0.00207433)
(0.0458072 0 0.00225159)
(0.0470198 0 0.00241127)
(0.04807 0 0.00253028)
(0.0488769 0 0.00257789)
(0.00264462 0 3.85502e-06)
(0.00761607 0 1.18184e-05)
(0.0120002 0 2.08484e-05)
(0.0158554 0 3.19304e-05)
(0.0192374 0 4.58639e-05)
(0.0221971 0 6.33349e-05)
(0.0247811 0 8.49646e-05)
(0.0270325 0 0.00011134)
(0.0289913 0 0.000143031)
(0.0306951 0 0.000180599)
(0.0321794 0 0.000224595)
(0.0334781 0 0.000275555)
(0.0346239 0 0.000333989)
(0.0356487 0 0.000400356)
(0.0365837 0 0.000475044)
(0.0374597 0 0.00055834)
(0.0383073 0 0.000650389)
(0.0391569 0 0.000751164)
(0.0400383 0 0.000860427)
(0.0409809 0 0.000977704)
(0.042013 0 0.0011023)
(0.0431573 0 0.00123266)
(0.0444268 0 0.00136883)
(0.0458493 0 0.0015096)
(0.0474183 0 0.00165392)
(0.0491142 0 0.00180139)
(0.050884 0 0.00195075)
(0.0526219 0 0.00209587)
(0.0541479 0 0.00221648)
(0.0552365 0 0.00226883)
(0.0026714 0 3.15763e-06)
(0.00769516 0 9.78269e-06)
(0.0121305 0 1.7556e-05)
(0.0160382 0 2.74021e-05)
(0.0194759 0 4.0062e-05)
(0.0224959 0 5.61596e-05)
(0.0251462 0 7.62452e-05)
(0.0274709 0 0.000100823)
(0.0295112 0 0.000130364)
(0.0313056 0 0.00016531)
(0.0328907 0 0.000206069)
(0.0343013 0 0.000253005)
(0.0355711 0 0.000306419)
(0.0367328 0 0.000366526)
(0.0378185 0 0.000433428)
(0.0388597 0 0.000507073)
(0.0398879 0 0.000587223)
(0.0409339 0 0.00067341)
(0.0420281 0 0.000764907)
(0.0432003 0 0.000860714)
(0.0444785 0 0.000959591)
(0.0458823 0 0.00105971)
(0.0474485 0 0.00115917)
(0.0491868 0 0.00125782)
(0.0511017 0 0.00135471)
(0.0531859 0 0.00145151)
(0.0554029 0 0.00155331)
(0.057661 0 0.00166824)
(0.059755 0 0.00179624)
(0.0612873 0 0.00188554)
(0.00269812 0 2.29614e-06)
(0.00777407 0 7.26085e-06)
(0.0122605 0 1.34612e-05)
(0.0162205 0 2.17385e-05)
(0.0197135 0 3.27599e-05)
(0.0227933 0 4.70727e-05)
(0.0255088 0 6.51442e-05)
(0.0279054 0 8.73833e-05)
(0.0300249 0 0.000114151)
(0.0319069 0 0.000145757)
(0.0335884 0 0.000182457)
(0.0351051 0 0.00022443)
(0.0364911 0 0.000271762)
(0.0377797 0 0.000324418)
(0.0390031 0 0.000382202)
(0.0401931 0 0.000444725)
(0.041381 0 0.000511356)
(0.0425972 0 0.000581178)
(0.0438716 0 0.000652948)
(0.0452326 0 0.000725066)
(0.0467066 0 0.000795561)
(0.0483158 0 0.000862083)
(0.0500952 0 0.000921201)
(0.0520494 0 0.000971453)
(0.0541882 0 0.00101038)
(0.0565101 0 0.00103761)
(0.0589949 0 0.00105801)
(0.0615878 0 0.00109014)
(0.0641472 0 0.00117942)
(0.0662978 0 0.00134177)
(0.00118084 0 -0.000434324)
(0.00211663 0 -0.000419507)
(0.00377235 0 -0.000400546)
(0.00593767 0 -0.000383083)
(0.0084414 0 -0.00036689)
(0.0111374 0 -0.000350925)
(0.0139008 0 -0.000334457)
(0.0166286 0 -0.000317212)
(0.0192391 0 -0.000299259)
(0.0216704 0 -0.000280855)
(0.0238765 0 -0.000262319)
(0.0258265 0 -0.000243971)
(0.0274994 0 -0.000226078)
(0.0288811 0 -0.000208834)
(0.029962 0 -0.000192364)
(0.0307351 0 -0.00017673)
(0.0311938 0 -0.000161946)
(0.0313314 0 -0.000147984)
(0.0311398 0 -0.000134787)
(0.0306089 0 -0.000122276)
(0.0297265 0 -0.000110356)
(0.0284778 0 -9.89183e-05)
(0.0268455 0 -8.78433e-05)
(0.0248093 0 -7.69986e-05)
(0.0223463 0 -6.6238e-05)
(0.0194311 0 -5.53982e-05)
(0.0160358 0 -4.4293e-05)
(0.0121306 0 -3.27066e-05)
(0.0076845 0 -2.03835e-05)
(0.00266312 0 -7.00772e-06)
(0.00233361 0 -0.00125423)
(0.00319617 0 -0.00122359)
(0.00476824 0 -0.00117951)
(0.00685608 0 -0.0011351)
(0.00928653 0 -0.00109106)
(0.0119104 0 -0.00104566)
(0.0146015 0 -0.000997638)
(0.0172573 0 -0.000946705)
(0.0197973 0 -0.000893369)
(0.0221608 0 -0.000838561)
(0.0243037 0 -0.000783312)
(0.0261955 0 -0.000728613)
(0.0278159 0 -0.000675268)
(0.029151 0 -0.000623858)
(0.0301911 0 -0.000574754)
(0.0309287 0 -0.00052814)
(0.0313569 0 -0.000484049)
(0.0314684 0 -0.000442398)
(0.0312544 0 -0.000403017)
(0.0307045 0 -0.000365672)
(0.0298061 0 -0.000330077)
(0.0285438 0 -0.00029591)
(0.0268998 0 -0.000262814)
(0.0248536 0 -0.000230395)
(0.022382 0 -0.000198218)
(0.0194593 0 -0.000165794)
(0.0160573 0 -0.000132568)
(0.012146 0 -9.78957e-05)
(0.00769383 0 -6.10131e-05)
(0.00266629 0 -2.09763e-05)
(0.00439013 0 -0.00197584)
(0.00519735 0 -0.0019535)
(0.00666578 0 -0.00190796)
(0.00863333 0 -0.00185277)
(0.0109355 0 -0.00179065)
(0.0134249 0 -0.00172141)
(0.0159772 0 -0.00164501)
(0.0184927 0 -0.00156229)
(0.0208943 0 -0.00147487)
(0.0231251 0 -0.00138472)
(0.0251434 0 -0.00129374)
(0.0269208 0 -0.00120366)
(0.028438 0 -0.00111581)
(0.0296815 0 -0.00103117)
(0.0306413 0 -0.00095032)
(0.0313091 0 -0.000873553)
(0.0316772 0 -0.000800916)
(0.0317372 0 -0.000732264)
(0.0314793 0 -0.000667314)
(0.0308921 0 -0.000605678)
(0.0299619 0 -0.00054689)
(0.0286727 0 -0.00049042)
(0.0270059 0 -0.00043568)
(0.0249401 0 -0.000382024)
(0.0224517 0 -0.000328734)
(0.0195143 0 -0.000275007)
(0.0160992 0 -0.000219925)
(0.0121758 0 -0.000162422)
(0.00771198 0 -0.000101236)
(0.00267247 0 -3.48062e-05)
(0.00720352 0 -0.00262119)
(0.00797897 0 -0.00261731)
(0.00935198 0 -0.0025847)
(0.0111833 0 -0.00253075)
(0.0133211 0 -0.00245874)
(0.0156261 0 -0.00237072)
(0.0179813 0 -0.00226901)
(0.0202942 0 -0.00215652)
(0.0224947 0 -0.00203658)
(0.0245319 0 -0.00191252)
(0.0263687 0 -0.00178727)
(0.0279794 0 -0.00166329)
(0.0293465 0 -0.00154246)
(0.0304567 0 -0.00142606)
(0.0312996 0 -0.00131489)
(0.0318658 0 -0.0012093)
(0.0321463 0 -0.00110934)
(0.0321312 0 -0.00101479)
(0.0318093 0 -0.000925252)
(0.0311675 0 -0.000840201)
(0.030191 0 -0.000758994)
(0.0288623 0 -0.000680906)
(0.0271619 0 -0.000605132)
(0.0250675 0 -0.000530783)
(0.0225543 0 -0.000456874)
(0.0195953 0 -0.000382296)
(0.0161609 0 -0.000305786)
(0.0122197 0 -0.000225868)
(0.00773873 0 -0.000140798)
(0.00268158 0 -4.84104e-05)
(0.0106614 0 -0.00322569)
(0.011431 0 -0.00324005)
(0.012726 0 -0.0032228)
(0.014417 0 -0.00317341)
(0.0163651 0 -0.00309433)
(0.0184443 0 -0.00298956)
(0.020551 0 -0.00286401)
(0.0226052 0 -0.00272306)
(0.024548 0 -0.00257203)
(0.0263369 0 -0.00241569)
(0.027941 0 -0.002258)
(0.0293384 0 -0.0021021)
(0.0305134 0 -0.00195031)
(0.0314532 0 -0.00180417)
(0.0321466 0 -0.00166459)
(0.0325829 0 -0.00153197)
(0.0327514 0 -0.00140633)
(0.0326401 0 -0.00128736)
(0.0322359 0 -0.00117457)
(0.031524 0 -0.00106729)
(0.0304877 0 -0.000964709)
(0.0291082 0 -0.000865928)
(0.0273644 0 -0.00076994)
(0.0252328 0 -0.000675635)
(0.0226876 0 -0.000581774)
(0.0197006 0 -0.000486964)
(0.0162411 0 -0.000389606)
(0.0122768 0 -0.000287841)
(0.00777351 0 -0.000179454)
(0.00269342 0 -6.17062e-05)
(0.0146979 0 -0.00381869)
(0.0154799 0 -0.00384516)
(0.0167078 0 -0.00383691)
(0.018252 0 -0.0037875)
(0.0199856 0 -0.00369843)
(0.0218001 0 -0.00357525)
(0.0236109 0 -0.00342529)
(0.025356 0 -0.00325623)
(0.026991 0 -0.00307524)
(0.028484 0 -0.0028884)
(0.0298114 0 -0.00270047)
(0.0309558 0 -0.00251509)
(0.0319033 0 -0.00233486)
(0.0326415 0 -0.00216148)
(0.033158 0 -0.00199588)
(0.0334406 0 -0.00183846)
(0.0334761 0 -0.00168917)
(0.0332506 0 -0.00154762)
(0.0327485 0 -0.00141322)
(0.031953 0 -0.00128515)
(0.0308454 0 -0.00116249)
(0.029405 0 -0.00104415)
(0.0276091 0 -0.000928968)
(0.0254328 0 -0.000815617)
(0.0228489 0 -0.000702633)
(0.019828 0 -0.000588354)
(0.0163383 0 -0.000470876)
(0.012346 0 -0.000347968)
(0.00781565 0 -0.000216978)
(0.00270777 0 -7.46157e-05)
(0.0192744 0 -0.00441545)
(0.0200749 0 -0.00444528)
(0.0212317 0 -0.00443509)
(0.0226104 0 -0.00437625)
(0.024097 0 -0.00427027)
(0.0256053 0 -0.00412428)
(0.0270748 0 -0.00394772)
(0.0284652 0 -0.00375024)
(0.0297494 0 -0.0035404)
(0.0309073 0 -0.00332513)
(0.0319227 0 -0.00310961)
(0.0327826 0 -0.0028977)
(0.033475 0 -0.00269207)
(0.0339871 0 -0.00249441)
(0.0343054 0 -0.00230561)
(0.0344154 0 -0.002126)
(0.0343016 0 -0.00195543)
(0.0339474 0 -0.00179345)
(0.0333348 0 -0.00163933)
(0.0324446 0 -0.00149218)
(0.0312558 0 -0.00135092)
(0.029746 0 -0.00121437)
(0.0278907 0 -0.00108117)
(0.0256632 0 -0.000949844)
(0.023035 0 -0.000818708)
(0.0199751 0 -0.000685864)
(0.0164505 0 -0.00054912)
(0.0124259 0 -0.000405905)
(0.00786431 0 -0.000253157)
(0.00272434 0 -8.7066e-05)
(0.0243593 0 -0.00501556)
(0.0251695 0 -0.00503968)
(0.0262321 0 -0.00501568)
(0.0274096 0 -0.0049364)
(0.0286054 0 -0.00480499)
(0.0297609 0 -0.00463067)
(0.0308445 0 -0.00442491)
(0.0318405 0 -0.00419877)
(0.0327396 0 -0.00396163)
(0.0335329 0 -0.00372061)
(0.0342107 0 -0.00348078)
(0.0347641 0 -0.00324585)
(0.0351823 0 -0.00301837)
(0.0354518 0 -0.00279985)
(0.0355572 0 -0.00259107)
(0.0354816 0 -0.0023922)
(0.0352068 0 -0.00220303)
(0.0347133 0 -0.002023)
(0.0339808 0 -0.0018513)
(0.0329874 0 -0.00168695)
(0.03171 0 -0.00152878)
(0.0301241 0 -0.0013755)
(0.0282033 0 -0.00122562)
(0.0259193 0 -0.00107752)
(0.023242 0 -0.000929331)
(0.0201389 0 -0.000778942)
(0.0165755 0 -0.000623904)
(0.0125149 0 -0.000461336)
(0.00791855 0 -0.000287794)
(0.00274281 0 -9.89903e-05)
(0.0299082 0 -0.00560505)
(0.0307043 0 -0.00561587)
(0.0316301 0 -0.00556788)
(0.0325525 0 -0.005458)
(0.0334016 0 -0.00529307)
(0.0341537 0 -0.00508551)
(0.0348097 0 -0.00484879)
(0.0353791 0 -0.00459481)
(0.0358702 0 -0.00433305)
(0.036281 0 -0.00406997)
(0.0366066 0 -0.00380988)
(0.0368419 0 -0.00355608)
(0.0369764 0 -0.00331078)
(0.036995 0 -0.00307524)
(0.0368801 0 -0.00285001)
(0.0366118 0 -0.00263512)
(0.0361692 0 -0.00243024)
(0.0355301 0 -0.00223474)
(0.0346716 0 -0.00204777)
(0.0335694 0 -0.00186826)
(0.0321982 0 -0.00169501)
(0.0305313 0 -0.00152661)
(0.0285406 0 -0.00136151)
(0.026196 0 -0.00119794)
(0.0234659 0 -0.00103391)
(0.0203162 0 -0.000867097)
(0.0167108 0 -0.000694841)
(0.0126114 0 -0.000513976)
(0.00797731 0 -0.000320714)
(0.00276282 0 -0.000110328)
(0.0358497 0 -0.00616106)
(0.0365944 0 -0.00615421)
(0.0373216 0 -0.0060746)
(0.0379177 0 -0.00592562)
(0.0383547 0 -0.00572085)
(0.0386527 0 -0.00547722)
(0.0388469 0 -0.00520998)
(0.0389697 0 -0.00493095)
(0.0390454 0 -0.00464912)
(0.0390692 0 -0.00436902)
(0.0390394 0 -0.00409354)
(0.038956 0 -0.00382563)
(0.0388074 0 -0.00356703)
(0.0385756 0 -0.00331865)
(0.0382399 0 -0.00308076)
(0.037778 0 -0.00285327)
(0.0371659 0 -0.00263575)
(0.0363791 0 -0.00242751)
(0.035392 0 -0.00222768)
(0.0341782 0 -0.00203517)
(0.0327101 0 -0.00184873)
(0.0309593 0 -0.00166694)
(0.0288958 0 -0.00148815)
(0.0264879 0 -0.00131052)
(0.0237023 0 -0.00113193)
(0.0205035 0 -0.000949906)
(0.0168539 0 -0.000761592)
(0.0127134 0 -0.000563575)
(0.00803948 0 -0.000351761)
(0.00278399 0 -0.000121025)
(0.0420823 0 -0.00666223)
(0.0427244 0 -0.00663481)
(0.0431689 0 -0.00651572)
(0.0433507 0 -0.00631979)
(0.043307 0 -0.00607136)
(0.0431085 0 -0.00579238)
(0.0428211 0 -0.00549854)
(0.0424932 0 -0.00519993)
(0.0421536 0 -0.00490389)
(0.0418026 0 -0.00461353)
(0.0414379 0 -0.00432942)
(0.0410475 0 -0.00405266)
(0.0406265 0 -0.00378566)
(0.0401532 0 -0.00352885)
(0.0396037 0 -0.00328227)
(0.0389529 0 -0.0030457)
(0.0381745 0 -0.00281866)
(0.0372417 0 -0.00260047)
(0.0361268 0 -0.00239026)
(0.0348012 0 -0.00218695)
(0.0332356 0 -0.00198931)
(0.0313998 0 -0.00179588)
(0.0292621 0 -0.00160501)
(0.0267894 0 -0.00141478)
(0.0239469 0 -0.00122297)
(0.0206975 0 -0.00102702)
(0.0170022 0 -0.000823872)
(0.0128191 0 -0.000609922)
(0.00810385 0 -0.000380802)
(0.0028059 0 -0.000131037)
(0.0484829 0 -0.00709703)
(0.0489433 0 -0.00704005)
(0.0489863 0 -0.0068674)
(0.0486528 0 -0.00661647)
(0.0480691 0 -0.00632492)
(0.0473536 0 -0.00601698)
(0.0465905 0 -0.00570546)
(0.0458343 0 -0.0053969)
(0.045098 0 -0.00509479)
(0.0443988 0 -0.00480101)
(0.0437282 0 -0.00451519)
(0.0430604 0 -0.00423636)
(0.0423885 0 -0.00396607)
(0.0416905 0 -0.00370538)
(0.0409403 0 -0.00345412)
(0.0401107 0 -0.00321199)
(0.0391736 0 -0.00297856)
(0.0381002 0 -0.00275318)
(0.0368611 0 -0.00253505)
(0.0354262 0 -0.00232316)
(0.0337646 0 -0.00211629)
(0.0318445 0 -0.00191302)
(0.0296328 0 -0.00171169)
(0.0270951 0 -0.00151035)
(0.024195 0 -0.00130672)
(0.0208945 0 -0.00109815)
(0.0171527 0 -0.000881453)
(0.0129264 0 -0.000652843)
(0.0081692 0 -0.000407727)
(0.00282814 0 -0.000140324)
(0.0549018 0 -0.007458)
(0.0550305 0 -0.00734376)
(0.0545072 0 -0.00709373)
(0.0535656 0 -0.00678438)
(0.0524199 0 -0.00646022)
(0.0512096 0 -0.0061386)
(0.0500127 0 -0.00582423)
(0.0488748 0 -0.00551878)
(0.0478 0 -0.00522194)
(0.0467974 0 -0.00493305)
(0.045854 0 -0.0046517)
(0.0449464 0 -0.00437679)
(0.0440533 0 -0.00410863)
(0.0431542 0 -0.00384857)
(0.042222 0 -0.0035965)
(0.0412282 0 -0.00335222)
(0.0401436 0 -0.00311541)
(0.0389382 0 -0.00288554)
(0.0375814 0 -0.0026619)
(0.0360418 0 -0.00244358)
(0.0342875 0 -0.00222944)
(0.0322853 0 -0.0020181)
(0.0300011 0 -0.00180793)
(0.0273993 0 -0.00159698)
(0.0244423 0 -0.00138294)
(0.0210908 0 -0.00116309)
(0.0173028 0 -0.000934159)
(0.0130333 0 -0.000692205)
(0.00823427 0 -0.000432449)
(0.00285028 0 -0.000148857)
(0.0610622 0 -0.00771228)
(0.0605828 0 -0.00747829)
(0.0593287 0 -0.00713241)
(0.0577636 0 -0.00678506)
(0.0561191 0 -0.00645884)
(0.0545036 0 -0.00615071)
(0.052964 0 -0.00585459)
(0.0515205 0 -0.0055673)
(0.0501824 0 -0.00528689)
(0.0489387 0 -0.00501173)
(0.0477745 0 -0.00474161)
(0.0466678 0 -0.00447596)
(0.0455883 0 -0.0042148)
(0.0445163 0 -0.00395951)
(0.0434247 0 -0.00371023)
(0.0422848 0 -0.00346698)
(0.0410671 0 -0.0032296)
(0.0397409 0 -0.00299777)
(0.038275 0 -0.00277091)
(0.0366374 0 -0.00254823)
(0.0347953 0 -0.0023287)
(0.0327148 0 -0.00211102)
(0.0303608 0 -0.0018936)
(0.0276969 0 -0.00167452)
(0.0246845 0 -0.00145149)
(0.0212832 0 -0.00122171)
(0.0174497 0 -0.000981867)
(0.0131379 0 -0.000727907)
(0.00829781 0 -0.000454903)
(0.00287186 0 -0.000156611)
(0.0661282 0 -0.00769458)
(0.064802 0 -0.0072681)
(0.0628852 0 -0.00689178)
(0.0608933 0 -0.00658796)
(0.0589493 0 -0.00631765)
(0.0570975 0 -0.00605919)
(0.0553543 0 -0.0058041)
(0.0537218 0 -0.00554979)
(0.0522043 0 -0.00529563)
(0.0507893 0 -0.00504174)
(0.0494596 0 -0.00478854)
(0.0481961 0 -0.00453674)
(0.0469684 0 -0.00428685)
(0.0457547 0 -0.00403994)
(0.044529 0 -0.00379662)
(0.0432636 0 -0.00355721)
(0.0419291 0 -0.00332184)
(0.0404953 0 -0.00309036)
(0.0389307 0 -0.0028624)
(0.0372033 0 -0.0026373)
(0.0352798 0 -0.00241417)
(0.0331259 0 -0.0021918)
(0.030706 0 -0.00196868)
(0.0279829 0 -0.00174294)
(0.0249173 0 -0.00151228)
(0.021468 0 -0.00127393)
(0.0175907 0 -0.0010245)
(0.0132381 0 -0.000759883)
(0.00835853 0 -0.00047504)
(0.00289244 0 -0.000163568)
(0.0027248 0 1.26803e-06)
(0.00785291 0 4.2434e-06)
(0.0123905 0 8.52666e-06)
(0.0164028 0 1.48955e-05)
(0.0199509 0 2.39091e-05)
(0.0230899 0 3.60272e-05)
(0.0258699 0 5.16224e-05)
(0.0283369 0 7.09986e-05)
(0.0305336 0 9.4397e-05)
(0.0325 0 0.000121991)
(0.0342736 0 0.000153875)
(0.0358903 0 0.000190042)
(0.0373846 0 0.000230363)
(0.0387894 0 0.000274553)
(0.0401369 0 0.000322135)
(0.0414581 0 0.000372394)
(0.0427834 0 0.000424331)
(0.0441418 0 0.000476612)
(0.0455612 0 0.000527511)
(0.0470675 0 0.000574859)
(0.0486843 0 0.000615979)
(0.0504325 0 0.000647571)
(0.0523319 0 0.000665611)
(0.0543888 0 0.000665842)
(0.0566036 0 0.000642459)
(0.0589635 0 0.00058752)
(0.0614351 0 0.000487212)
(0.0639501 0 0.000311512)
(0.0663986 0 -1.88431e-05)
(0.0686265 0 -0.000686181)
(0.0027512 0 5.87862e-08)
(0.00793096 0 6.97037e-07)
(0.0125194 0 2.72284e-06)
(0.0165838 0 6.79904e-06)
(0.0201865 0 1.34248e-05)
(0.0233841 0 2.29292e-05)
(0.0262273 0 3.55829e-05)
(0.028763 0 5.15771e-05)
(0.0310341 0 7.10278e-05)
(0.033081 0 9.39683e-05)
(0.0349414 0 0.000120332)
(0.0366512 0 0.00014993)
(0.0382443 0 0.000182428)
(0.0397534 0 0.00021731)
(0.0412095 0 0.000253839)
(0.0426425 0 0.000291014)
(0.0440807 0 0.000327521)
(0.0455508 0 0.000361673)
(0.0470776 0 0.000391356)
(0.0486828 0 0.00041395)
(0.0503853 0 0.000426248)
(0.0521992 0 0.000424289)
(0.0541333 0 0.000403251)
(0.0561852 0 0.00035715)
(0.0583411 0 0.0002777)
(0.06057 0 0.000153156)
(0.0628188 0 -3.68877e-05)
(0.0650041 0 -0.000324716)
(0.0669837 0 -0.000759859)
(0.0686098 0 -0.00142461)
(0.00277665 0 -1.32249e-06)
(0.00800639 0 -3.35681e-06)
(0.0126441 0 -3.89709e-06)
(0.0167591 0 -2.43654e-06)
(0.0204153 0 1.41459e-06)
(0.0236694 0 7.92886e-06)
(0.0265735 0 1.72264e-05)
(0.0291746 0 2.9385e-05)
(0.0315161 0 4.43946e-05)
(0.0336382 0 6.21516e-05)
(0.0355786 0 8.24349e-05)
(0.0373725 0 0.000104887)
(0.0390535 0 0.000128986)
(0.040653 0 0.000154011)
(0.0422007 0 0.000179008)
(0.0437245 0 0.000202741)
(0.0452504 0 0.00022365)
(0.0468018 0 0.00023979)
(0.0483995 0 0.000248775)
(0.0500606 0 0.000247702)
(0.0517977 0 0.000233056)
(0.0536177 0 0.000200539)
(0.0555196 0 0.000144935)
(0.0574922 0 5.96928e-05)
(0.0595115 0 -6.45925e-05)
(0.0615395 0 -0.000239897)
(0.0635084 0 -0.000482238)
(0.0653213 0 -0.000812357)
(0.0668731 0 -0.00125771)
(0.0680635 0 -0.001878)
(0.00280065 0 -2.86757e-06)
(0.00807775 0 -7.89241e-06)
(0.0127625 0 -1.13101e-05)
(0.016926 0 -1.27545e-05)
(0.0206331 0 -1.19939e-05)
(0.0239417 0 -8.85963e-06)
(0.0269034 0 -3.28498e-06)
(0.0295661 0 4.64178e-06)
(0.031973 0 1.47907e-05)
(0.0341641 0 2.69311e-05)
(0.0361767 0 4.06986e-05)
(0.0380453 0 5.55843e-05)
(0.0398025 0 7.09053e-05)
(0.0414781 0 8.57724e-05)
(0.0431003 0 9.90588e-05)
(0.0446944 0 0.000109359)
(0.0462837 0 0.000114947)
(0.0478882 0 0.000113724)
(0.0495245 0 0.000103167)
(0.0512048 0 8.02632e-05)
(0.0529359 0 4.1429e-05)
(0.0547181 0 -1.7636e-05)
(0.056543 0 -0.00010207)
(0.0583985 0 -0.000218737)
(0.0602501 0 -0.000375076)
(0.0620475 0 -0.000580092)
(0.0637284 0 -0.000843403)
(0.0652214 0 -0.00117921)
(0.0664512 0 -0.00160613)
(0.0673392 0 -0.00215325)
(0.00282269 0 -4.5641e-06)
(0.00814364 0 -1.28735e-05)
(0.0128725 0 -1.94526e-05)
(0.0170815 0 -2.40906e-05)
(0.0208366 0 -2.66846e-05)
(0.0241962 0 -2.72248e-05)
(0.0272121 0 -2.57408e-05)
(0.0299317 0 -2.23698e-05)
(0.0323985 0 -1.74186e-05)
(0.0346518 0 -1.12208e-05)
(0.0367283 0 -4.2721e-06)
(0.0386616 0 2.79085e-06)
(0.0404828 0 9.15617e-06)
(0.0422205 0 1.38047e-05)
(0.0439004 0 1.54916e-05)
(0.0455456 0 1.27088e-05)
(0.0471763 0 3.64814e-06)
(0.048809 0 -1.38364e-05)
(0.0504566 0 -4.22711e-05)
(0.0521268 0 -8.46131e-05)
(0.0538221 0 -0.000144311)
(0.0555378 0 -0.000225413)
(0.0572642 0 -0.000332757)
(0.0589788 0 -0.000471547)
(0.0606435 0 -0.000646435)
(0.0622171 0 -0.000864069)
(0.0636497 0 -0.00113131)
(0.0648876 0 -0.00145644)
(0.0658771 0 -0.00184883)
(0.0665645 0 -0.00231652)
(0.0028423 0 -6.39541e-06)
(0.0082027 0 -1.82512e-05)
(0.0129719 0 -2.82436e-05)
(0.017223 0 -3.63247e-05)
(0.0210225 0 -4.253e-05)
(0.0244289 0 -4.69661e-05)
(0.0274945 0 -4.98192e-05)
(0.0302662 0 -5.13112e-05)
(0.0327867 0 -5.18024e-05)
(0.0350949 0 -5.17573e-05)
(0.0372266 0 -5.1794e-05)
(0.0392144 0 -5.26456e-05)
(0.0410879 0 -5.52162e-05)
(0.0428739 0 -6.06185e-05)
(0.044596 0 -7.0158e-05)
(0.0462746 0 -8.53787e-05)
(0.0479272 0 -0.000108088)
(0.0495673 0 -0.000140379)
(0.0512042 0 -0.000184662)
(0.0528426 0 -0.000243696)
(0.0544819 0 -0.000320636)
(0.0561149 0 -0.000419099)
(0.0577253 0 -0.000542459)
(0.0592892 0 -0.00069414)
(0.0607765 0 -0.000878056)
(0.0621523 0 -0.00109835)
(0.0633782 0 -0.00135904)
(0.0644152 0 -0.00166397)
(0.0652263 0 -0.00201563)
(0.0657788 0 -0.00241192)
(0.00285903 0 -8.34043e-06)
(0.0082536 0 -2.39637e-05)
(0.0130586 0 -3.7581e-05)
(0.0173476 0 -4.93123e-05)
(0.0211873 0 -5.93328e-05)
(0.0246361 0 -6.78696e-05)
(0.0277463 0 -7.52103e-05)
(0.0305643 0 -8.17178e-05)
(0.0331321 0 -8.78221e-05)
(0.035488 0 -9.40762e-05)
(0.0376661 0 -0.000101121)
(0.0396982 0 -0.00010982)
(0.0416125 0 -0.000121118)
(0.0434341 0 -0.000136198)
(0.0451841 0 -0.000156365)
(0.0468808 0 -0.000183135)
(0.0485389 0 -0.000218243)
(0.0501694 0 -0.000263646)
(0.051779 0 -0.000321533)
(0.0533701 0 -0.000394344)
(0.0549409 0 -0.0004848)
(0.0564793 0 -0.00059559)
(0.0579679 0 -0.000728772)
(0.0593882 0 -0.000887158)
(0.0607153 0 -0.00107325)
(0.0619214 0 -0.00128931)
(0.0629778 0 -0.00153709)
(0.0638569 0 -0.0018173)
(0.0645347 0 -0.00212852)
(0.0649928 0 -0.00246514)
(0.00287243 0 -1.03737e-05)
(0.00829513 0 -2.99364e-05)
(0.0131307 0 -4.73428e-05)
(0.0174528 0 -6.28815e-05)
(0.0213279 0 -7.68664e-05)
(0.0248143 0 -8.96414e-05)
(0.0279636 0 -0.000101596)
(0.0308219 0 -0.000113181)
(0.0334303 0 -0.00012492)
(0.035826 0 -0.000137454)