/*--------------------------------*- C++ -*----------------------------------*\
| =========                 |                                                 |
| \\      /  F ield         | OpenFOAM: The Open Source CFD Toolbox           |
|  \\    /   O peration     | Version:  dev                                   |
|   \\  /    A nd           | Web:      www.OpenFOAM.org                      |
|    \\/     M anipulation  |                                                 |
\*---------------------------------------------------------------------------*/
FoamFile
{
    version     2.0;
    format      ascii;
    class       surfaceScalarField;
    location    "0.81";
    object      phi;
}
// * * * * * * * * * * * * * * * * * * * * * * * * * * * * * * * * * * * * * //

dimensions      [0 3 -1 0 0 0 0];

internalField   nonuniform List<scalar> 
881
(
0.132637
0.145521
0.146878
0.164416
0.145467
0.164522
0.146756
0.164455
0.14673
0.145156
0.198454
0.146541
0.198242
0.146953
0.198416
0.14654
0.198644
0.144911
0.14179
0.236708
0.149716
0.235037
0.148609
0.234406
0.147155
0.234375
0.144924
0.234589
0.141559
0.234775
0.136783
0.130399
0.279394
0.154474
0.276063
0.151927
0.273998
0.149205
0.272908
0.145998
0.272464
0.141987
0.272344
0.136888
0.272262
0.130468
0.271963
0.122566
0.1131
0.323978
0.159125
0.320079
0.155813
0.317076
0.152195
0.314941
0.148118
0.313534
0.143381
0.312637
0.137772
0.311996
0.131096
0.311351
0.123201
0.310445
0.113998
0.103489
0.366683
0.161951
0.363824
0.15866
0.361202
0.154805
0.358969
0.150338
0.357167
0.14517
0.355741
0.139185
0.354563
0.132263
0.353455
0.124301
0.352208
0.115239
0.350612
0.105081
0.348474
0.0939163
0.0819265
0.404434
0.161935
0.403857
0.159227
0.402935
0.155717
0.401856
0.151405
0.400748
0.146267
0.399668
0.140255
0.398602
0.133319
0.397482
0.125414
0.396193
0.116523
0.394601
0.106673
0.392568
0.0959508
0.389987
0.0845152
0.0725984
0.43568
0.158858
0.437916
0.156981
0.439464
0.154159
0.440464
0.150396
0.441036
0.145685
0.441267
0.140015
0.441201
0.133377
0.440842
0.125768
0.440156
0.117206
0.439086
0.107743
0.437567
0.0974731
0.435546
0.0865439
0.433003
0.0751533
0.429964
0.0635399
0.0519604
0.46028
0.153083
0.465221
0.152032
0.469375
0.149997
0.472802
0.14696
0.475568
0.14291
0.477733
0.137842
0.479344
0.131761
0.480425
0.124683
0.480982
0.116647
0.481007
0.107719
0.480486
0.0979989
0.479412
0.0876272
0.477796
0.0767823
0.47568
0.0656739
0.473133
0.0545297
0.0435853
0.47905
0.145278
0.486178
0.144898
0.492595
0.143573
0.498285
0.141262
0.50325
0.137939
0.5075
0.133587
0.511047
0.128209
0.513904
0.121824
0.516077
0.114474
0.517572
0.106227
0.518393
0.0971838
0.518555
0.0874757
0.518084
0.0772672
0.517027
0.0667494
0.515446
0.0561328
0.513419
0.0456401
0.511019
0.0354995
0.0259378
0.493283
0.136182
0.501913
0.136262
0.509997
0.135483
0.517465
0.133788
0.524265
0.131133
0.530357
0.127491
0.535711
0.122851
0.540308
0.117226
0.544133
0.11065
0.547178
0.103187
0.549442
0.0949267
0.550938
0.0859914
0.551689
0.0765315
0.551734
0.0667231
0.551127
0.0567631
0.549931
0.0468643
0.548211
0.0372514
0.546028
0.0281573
0.0198323
0.504353
0.126442
0.513825
0.126786
0.52293
0.126372
0.531573
0.125141
0.539667
0.123036
0.547135
0.120021
0.553912
0.116073
0.559944
0.111195
0.565188
0.10541
0.569612
0.0987691
0.573195
0.0913521
0.575933
0.0832662
0.577834
0.0746468
0.578922
0.0656548
0.579237
0.0564728
0.578829
0.0473014
0.577757
0.038356
0.576086
0.0298644
0.573892
0.0220674
0.0151778
0.51345
0.116525
0.523244
0.116988
0.53282
0.116793
0.542076
0.115882
0.550912
0.114198
0.559234
0.111697
0.566954
0.108354
0.573993
0.104158
0.580282
0.0991252
0.585765
0.0932932
0.5904
0.0867274
0.59416
0.0795201
0.597034
0.0717902
0.599028
0.0636816
0.600166
0.0553603
0.600485
0.0470111
0.600041
0.0388342
0.598901
0.0310414
0.597157
0.0238527
0.594908
0.0174716
0.0125999
0.521458
0.106717
0.531233
0.107211
0.540888
0.107136
0.550331
0.106438
0.559463
0.105065
0.568185
0.102975
0.576402
0.100139
0.584023
0.096542
0.590962
0.0921917
0.597149
0.0871159
0.602521
0.081367
0.607034
0.075022
0.610659
0.0681831
0.613387
0.060976
0.615225
0.0535479
0.616202
0.0460645
0.616364
0.0387062
0.615779
0.0316637
0.61454
0.0251335
0.612762
0.0192955
0.0147899
0.528963
0.0971596
0.538531
0.0976423
0.548036
0.0976306
0.557396
0.0970783
0.566522
0.0959401
0.575322
0.0941778
0.583701
0.0917635
0.591566
0.0886826
0.598829
0.0849368
0.605409
0.0805468
0.611235
0.075554
0.616251
0.0700221
0.620417
0.0640371
0.623709
0.0577067
0.626125
0.0511583
0.627684
0.0445368
0.628424
0.0380002
0.628411
0.0317158
0.627732
0.0258548
0.626503
0.0205706
0.0164405
0.536315
0.0879088
0.545596
0.0883619
0.554843
0.0883847
0.563985
0.0879388
0.572942
0.0869858
0.581631
0.0854926
0.589965
0.0834349
0.597856
0.0807988
0.605218
0.0775839
0.611971
0.0738059
0.618042
0.0694979
0.62337
0.064712
0.627908
0.0595198
0.631626
0.0540122
0.634515
0.0482974
0.636584
0.0424991
0.637866
0.0367531
0.638419
0.0312026
0.638322
0.0259942
0.637683
0.0212564
0.0175074
0.54372
0.07897
0.552698
0.0793861
0.561656
0.0794292
0.570531
0.0790674
0.579253
0.0782681
0.587747
0.0770036
0.595936
0.0752529
0.60374
0.0730043
0.611078
0.0702566
0.617875
0.067022
0.624061
0.0633273
0.629577
0.0592152
0.634373
0.054745
0.638419
0.049992
0.641698
0.045047
0.644215
0.0400141
0.645996
0.0350077
0.64709
0.0301488
0.647567
0.0255609
0.64752
0.0213512
0.017982
0.551314
0.0703231
0.560004
0.0707002
0.568681
0.0707559
0.57729
0.0704637
0.585767
0.0697962
0.594047
0.0687304
0.60206
0.0672487
0.609734
0.065341
0.616996
0.0630065
0.623778
0.0602547
0.630015
0.0571075
0.63565
0.0535996
0.640638
0.0497799
0.644946
0.0457105
0.648556
0.0414666
0.651469
0.0371345
0.653704
0.0328096
0.6553
0.0285928
0.656318
0.0245871
0.656836
0.0208819
0.017886
0.559214
0.061938
0.567643
0.0622764
0.576064
0.0623395
0.584428
0.0621058
0.592679
0.0615529
0.600756
0.0606615
0.608597
0.0594172
0.616138
0.0578117
0.623314
0.0558441
0.630063
0.0535221
0.636325
0.0508634
0.642049
0.0478965
0.647192
0.0446611
0.651722
0.041208
0.65562
0.0375989
0.658884
0.0339047
0.661527
0.0302039
0.663581
0.0265798
0.665096
0.0231178
0.666135
0.0198917
0.0172589
0.567528
0.0537837
0.575728
0.054082
0.583926
0.0541476
0.592076
0.053963
0.600128
0.0535096
0.608027
0.0527719
0.615717
0.051738
0.62314
0.0504011
0.630239
0.0487603
0.636956
0.046822
0.643238
0.0446003
0.649039
0.0421183
0.654317
0.0394081
0.659042
0.0365108
0.663196
0.0334765
0.666773
0.0303628
0.669781
0.0272336
0.672246
0.0241569
0.674207
0.0212027
0.675717
0.0184315
0.0161519
0.576366
0.0458261
0.584372
0.0460822
0.592382
0.046145
0.600353
0.0460006
0.608238
0.0456337
0.615989
0.0450315
0.623554
0.0441843
0.630882
0.0430868
0.63792
0.0417383
0.644616
0.0401438
0.650922
0.0383146
0.656794
0.0362691
0.662195
0.0340329
0.667096
0.0316389
0.671478
0.0291271
0.675333
0.0265436
0.678666
0.0239399
0.681495
0.0213706
0.683852
0.0188923
0.685781
0.0165537
0.0146146
0.585847
0.0380269
0.593697
0.0382392
0.601555
0.0382947
0.609382
0.0381825
0.617135
0.0378902
0.62477
0.0374076
0.63224
0.0367271
0.639497
0.0358444
0.646493
0.0347588
0.653181
0.0334744
0.659517
0.032
0.66546
0.0303501
0.670975
0.0285445
0.676034
0.0266093
0.680619
0.0245756
0.684719
0.0224798
0.688337
0.0203624
0.691485
0.0182665
0.694188
0.0162369
0.696481
0.0143126
0.0127078
0.596096
0.0303453
0.603829
0.0305128
0.611574
0.0305572
0.619295
0.0304706
0.626952
0.0302432
0.634504
0.0298673
0.641907
0.0293368
0.649118
0.0286485
0.656092
0.0278019
0.662786
0.0268
0.669158
0.0256496
0.675171
0.0243616
0.680792
0.0229513
0.685993
0.0214383
0.690756
0.0198464
0.69507
0.0182033
0.698933
0.0165399
0.702355
0.0148893
0.705355
0.0132859
0.707962
0.011759
0.0104755
0.607253
0.0227383
0.614911
0.0228606
0.622585
0.0228916
0.630238
0.0228257
0.637835
0.0226561
0.645338
0.0223768
0.652704
0.0219837
0.659894
0.0214741
0.666865
0.0208479
0.673578
0.0201072
0.679993
0.019257
0.686074
0.018305
0.691791
0.0172622
0.697118
0.016143
0.702034
0.0149644
0.706529
0.0137466
0.710598
0.0125121
0.714248
0.0112851
0.717492
0.0100912
0.720353
0.00895238
0.00799445
0.619455
0.0151597
0.627084
0.0152373
0.634728
0.0152539
0.642356
0.0152063
0.649932
0.0150898
0.65742
0.0149008
0.66478
0.0146364
0.671975
0.014295
0.678964
0.0138765
0.685709
0.0133822
0.692173
0.0128152
0.698322
0.0121809
0.704126
0.0114862
0.70956
0.0107404
0.714605
0.00995481
0.719248
0.00914258
0.723483
0.00831864
0.727315
0.00749935
0.730755
0.00670211
0.73382
0.00594231
0.00530088
0.632858
0.00756373
0.640502
0.00759826
0.64816
0.00760175
0.655801
0.00757257
0.663392
0.00750852
0.670896
0.0074077
0.678276
0.00726872
0.685496
0.00709075
0.692516
0.00687368
0.699299
0.00661818
0.705811
0.00632582
0.712018
0.0059991
0.717891
0.00564155
0.723406
0.00525775
0.728543
0.00485333
0.733289
0.00443498
0.737641
0.00401045
0.741598
0.00358882
0.745171
0.00318135
0.748366
0.00280319
0.00251855
0.637168
0.64477
0.652377
0.659957
0.667474
0.674892
0.682173
0.689278
0.696169
0.702807
0.709155
0.71518
0.72085
0.72614
0.731029
0.735504
0.739558
0.743195
0.746429
0.749289
)
;

boundaryField
{
    inlet
    {
        type            calculated;
        value           nonuniform 0();
    }
    outlet
    {
        type            calculated;
        value           nonuniform List<scalar> 
15
(
0.5923
0.610621
0.624901
0.636666
0.647096
0.656983
0.666814
0.676878
0.687373
0.698443
0.71025
0.722892
0.736573
0.751208
0.751869
)
;
    }
    flap
    {
        type            calculated;
        value           nonuniform 0();
    }
    upperWall
    {
        type            calculated;
        value           nonuniform List<scalar> 
21
(
0
0
0
0
0
0
0
-8.36573e-15
0
0
0
0
1.37904e-14
0
0
0
0
0
0
0
0
)
;
    }
    lowerWall
    {
        type            calculated;
        value           nonuniform 0();
    }
    frontAndBack
    {
        type            empty;
        value           nonuniform 0();
    }
    procBoundary2to1
    {
        type            processor;
        value           nonuniform List<scalar> 
17
(
-0.484193
-0.494619
-0.503538
-0.511653
-0.519408
-0.527065
-0.53478
-0.542665
-0.550826
-0.559369
-0.568404
-0.578043
-0.588409
-0.599641
-0.611873
-0.62526
-0.629603
)
;
    }
    procBoundary2to4
    {
        type            processor;
        value           nonuniform List<scalar> 
11
(
-0.132812
-0.164378
-0.199542
-0.239897
-0.284165
-0.32864
-0.36952
-0.404429
-0.432611
-0.454513
-0.471253
)
;
    }
    procBoundary2to5
    {
        type            processor;
        value           nonuniform List<scalar> 
34
(
-0.145361
-0.146346
0.132088
-0.146682
-0.144819
0.1641
-0.14188
0.198717
-0.136985
-0.130366
0.234729
-0.122278
-0.112367
0.271223
-0.102088
0.309042
-0.0917761
-0.0790778
0.345632
-0.0693949
0.386795
-0.0604841
-0.0484751
0.426502
-0.0406708
0.470245
-0.0330681
-0.0231832
0.508301
-0.0171903
0.543427
-0.0125004
0.57126
-0.00994319
)
;
    }
}


// ************************************************************************* //
