/*--------------------------------*- C++ -*----------------------------------*\
| =========                 |                                                 |
| \\      /  F ield         | OpenFOAM: The Open Source CFD Toolbox           |
|  \\    /   O peration     | Version:  dev                                   |
|   \\  /    A nd           | Web:      www.OpenFOAM.org                      |
|    \\/     M anipulation  |                                                 |
\*---------------------------------------------------------------------------*/
FoamFile
{
    version     2.0;
    format      ascii;
    class       surfaceScalarField;
    location    "2.02";
    object      phi;
}
// * * * * * * * * * * * * * * * * * * * * * * * * * * * * * * * * * * * * * //

dimensions      [0 3 -1 0 0 0 0];

internalField   nonuniform List<scalar> 
879
(
0.0165219
-0.00124903
0.0177385
-0.00119568
0.0188722
-0.00111517
0.0199069
-0.00102134
0.0208041
-0.000891185
0.0215127
-0.000711044
0.0220237
-0.000522216
0.0223835
-0.000379654
0.0226225
-0.00026652
0.0227125
-0.000124124
0.0226366
3.65333e-05
0.022454
0.000139046
0.0222931
0.000114472
0.0223118
-6.69302e-05
0.0226833
-0.00042061
0.0235771
-0.000943157
0.0251057
-0.0015775
0.0273354
-0.00227783
0.030304
-0.00301561
-0.00356341
0.0174164
-0.0023481
0.0184506
-0.00220944
0.0193865
-0.00203301
0.0202315
-0.00185359
0.020964
-0.00161829
0.0215339
-0.0012839
0.0219233
-0.000923246
0.0221824
-0.000658761
0.0223495
-0.00046126
0.0223831
-0.000191824
0.022214
0.000166216
0.0218555
0.000454205
0.0214078
0.000516
0.020954
0.000338834
0.0204913
-6.8239e-06
0.0201252
-0.000626115
0.0200792
-0.00158025
0.0206037
-0.00285024
0.0220727
-0.00453157
-0.00656048
0.0130192
-0.00277276
0.0133197
-0.00249013
0.0134909
-0.00218701
0.0135621
-0.00191283
0.0135241
-0.00157545
0.0133029
-0.00106596
0.0128505
-0.000482628
0.012237
-6.52553e-05
0.0114749
0.000273487
0.0104105
0.00083887
0.00890775
0.00163006
0.00699445
0.00232469
0.00483364
0.00263119
0.00269902
0.00242604
0.000959778
0.00168407
-0.000213291
0.00049836
-0.000489803
-0.00135203
0.000705308
-0.00409291
0.00339949
-0.00727232
-0.0103229
0.00720681
-0.00236125
0.00662437
-0.00188866
0.00585692
-0.0014032
0.00494965
-0.000994298
0.0039512
-0.000572586
0.0026544
0.000227405
0.000638217
0.00152194
-0.00229828
0.00285172
-0.00568323
0.00363173
-0.00870598
0.00382869
-0.0110196
0.00390571
-0.0127675
0.00403064
-0.0141006
0.00391956
-0.0149514
0.00323034
-0.0151323
0.00181741
-0.0143889
-0.000292949
-0.0127033
-0.00308526
-0.010488
-0.00635523
-0.008216
-0.00959052
-0.0123416
0.000117776
-0.000972885
-0.0015124
-0.000240085
-0.00358696
0.000687029
-0.00624426
0.00167374
-0.00927362
0.00246094
-0.0121291
0.00307952
-0.014437
0.00381866
-0.0163176
0.00471359
-0.0181019
0.00539022
-0.0199051
0.00559995
-0.0215193
0.00548307
-0.0226904
0.00516099
-0.0232973
0.00448282
-0.0233324
0.00321995
-0.0228321
0.00127057
-0.0218333
-0.0013388
-0.0205613
-0.00440408
-0.0193677
-0.00759528
-0.0185196
-0.0104843
-0.0126133
-0.00928921
0.00186207
-0.0121752
0.00266389
-0.014794
0.003321
-0.0170332
0.00392328
-0.0190651
0.00449697
-0.0210316
0.00504304
-0.0228668
0.00564325
-0.0244544
0.00628331
-0.0258233
0.00673452
-0.027055
0.00680104
-0.0280983
0.00649082
-0.0288122
0.00583549
-0.0291189
0.00474722
-0.0290497
0.00310639
-0.0286976
0.000873101
-0.0281986
-0.00188386
-0.027713
-0.00493567
-0.0274075
-0.0079465
-0.0274563
-0.0104805
-0.0121239
-0.0174276
0.00436409
-0.0196606
0.00491462
-0.0217146
0.0053899
-0.0236151
0.00583404
-0.0253774
0.00626352
-0.0270272
0.00669038
-0.0285371
0.00714336
-0.0298423
0.00757173
-0.0309401
0.00780896
-0.0318735
0.00770526
-0.0326384
0.00722167
-0.0331877
0.00634689
-0.0335062
0.00502486
-0.0336369
0.00319417
-0.0336596
0.000851488
-0.0336769
-0.0019114
-0.0337794
-0.00487825
-0.0340557
-0.00771512
-0.0346297
-0.00995085
-0.011251
-0.0228859
0.006551
-0.0248661
0.00691243
-0.0266722
0.00721077
-0.0283168
0.007489
-0.0298167
0.00776808
-0.0311908
0.00806254
-0.0324243
0.00836812
-0.0334833
0.00861517
-0.0343715
0.0086752
-0.035126
0.00843211
-0.0357684
0.00783161
-0.0363015
0.00684358
-0.0367412
0.00542521
-0.037127
0.00353855
-0.0375148
0.00119627
-0.0379641
-0.00150581
-0.0385165
-0.00436985
-0.0392103
-0.00706533
-0.0401165
-0.00908837
-0.0101661
-0.02695
0.00850514
-0.0286868
0.00866687
-0.0302334
0.00877213
-0.0316053
0.00887144
-0.0328282
0.00899605
-0.0339214
0.00915456
-0.0348856
0.0093246
-0.0357143
0.00942959
-0.0364222
0.00936264
-0.0370477
0.00903153
-0.0376277
0.00838083
-0.0381919
0.00737301
-0.0387726
0.00596816
-0.039406
0.00413197
-0.040125
0.00187369
-0.0409494
-0.00072397
-0.0418759
-0.00348632
-0.0428952
-0.00608909
-0.0440279
-0.00799859
-0.00895598
-0.0298652
0.0102078
-0.031325
0.0101444
-0.0325745
0.0100365
-0.0336397
0.00994744
-0.0345562
0.00991823
-0.0353526
0.00995064
-0.0360433
0.0100086
-0.0366423
0.0100156
-0.0371746
0.00987596
-0.0376819
0.00951431
-0.0382109
0.00888064
-0.0388073
0.00793631
-0.0395157
0.00664042
-0.0403752
0.004953
-0.0414006
0.00285888
-0.042568
0.000402175
-0.0438286
-0.00226756
-0.0451294
-0.00483038
-0.0464336
-0.00673653
-0.0076694
-0.031676
0.0116174
-0.0328244
0.0113106
-0.0337435
0.0109707
-0.0344664
0.0106815
-0.035042
0.0105
-0.0355187
0.0104278
-0.0359278
0.010412
-0.0362915
0.0103676
-0.0366399
0.0102067
-0.0370173
0.00986874
-0.0374782
0.00931404
-0.0380808
0.0085074
-0.0388806
0.0074056
-0.0399218
0.0059572
-0.0412139
0.0041122
-0.042708
0.00185627
-0.0443024
-0.000713906
-0.0458808
-0.0032931
-0.0473398
-0.00531877
-0.00635888
-0.0323658
0.0127005
-0.0331697
0.0121324
-0.033725
0.0115412
-0.0340715
0.0110393
-0.0342785
0.0107135
-0.0344184
0.0105688
-0.0345371
0.0105259
-0.0346559
0.0104757
-0.0348002
0.0103347
-0.0350144
0.0100614
-0.0353613
0.00963489
-0.0359123
0.00902846
-0.0367364
0.00819657
-0.0378878
0.00707301
-0.0393856
0.00557256
-0.0411794
0.00361129
-0.0431204
0.0011875
-0.0449965
-0.00145711
-0.046609
-0.00374667
-0.00507616
-0.0318669
0.0134281
-0.0322989
0.0125822
-0.0324574
0.0117149
-0.0323885
0.0109818
-0.0321961
0.0105279
-0.0319879
0.0103622
-0.0318132
0.0103472
-0.0316751
0.0103278
-0.0315804
0.0102248
-0.0315687
0.0100295
-0.0317136
0.00975515
-0.0321059
0.00939226
-0.0328346
0.00889358
-0.0339724
0.00817653
-0.0355583
0.00712233
-0.0375649
0.00558035
-0.0398453
0.00342939
-0.0420646
0.000723001
-0.0438367
-0.0020142
-0.003911
-0.0300352
0.0137608
-0.0300649
0.0126294
-0.0297812
0.0114461
-0.0292301
0.0104419
-0.0285805
0.00988512
-0.0280084
0.00979186
-0.0275527
0.00988795
-0.0271544
0.00992055
-0.0267708
0.009827
-0.0264297
0.00966936
-0.0262204
0.00952247
-0.026266
0.00941067
-0.0266901
0.00928735
-0.0275974
0.0090509
-0.0290576
0.00854774
-0.0310709
0.00755727
-0.0335027
0.00582367
-0.0360096
0.00319164
-0.0379565
-0.00010611
-0.00310836
-0.0265784
0.0136362
-0.0261613
0.0122292
-0.0253544
0.0106534
-0.0241682
0.00926656
-0.0229274
0.00865083
-0.0219706
0.00883688
-0.0212757
0.00918977
-0.0206404
0.00927688
-0.0199205
0.00909371
-0.0191064
0.00883711
-0.0183089
0.00870271
-0.0177012
0.00877705
-0.0174577
0.00901472
-0.017735
0.00929653
-0.0186597
0.00943879
-0.0202677
0.00912997
-0.0224159
0.00793539
-0.0247311
0.00546949
-0.0264493
0.00157405
-0.00312903
-0.0199166
0.0147011
-0.0196396
0.013378
-0.0191226
0.0117291
-0.0180265
0.00957145
-0.01624
0.00749063
-0.0143984
0.00681572
-0.0131605
0.00760075
-0.0123678
0.00839392
-0.0115687
0.00846956
-0.0104956
0.00800744
-0.00905129
0.00737494
-0.00734349
0.00697286
-0.00560408
0.00701187
-0.00407827
0.00745994
-0.00302479
0.00821142
-0.00269232
0.00907255
-0.00322247
0.00962463
-0.0044303
0.00910641
-0.00554554
0.00654693
-0.00547603
0.00146592
-0.00452457
0.036653
0.0298145
0.0239476
0.017612
0.018353
0.0151792
0.0128406
0.0130125
0.00843594
0.0112261
0.00619037
0.00984755
0.00591551
0.00866523
0.00677468
0.00760198
0.00808767
0.00668129
0.00954169
0.00590326
0.0112272
0.0052656
0.0133929
0.0048207
0.0160993
0.0047249
0.0191137
0.00516572
0.0220166
0.00613614
0.0244757
0.00713022
0.0265911
0.00695431
0.0291696
0.00393066
0.0321427
-0.00154587
-0.00663987
0.117904
0.110448
0.10377
0.0196983
0.0978373
0.0171634
0.0926986
0.0149866
0.0882939
0.0130657
0.0845263
0.0113608
0.0813213
0.0098729
0.0786114
0.00859544
0.0763312
0.00752419
0.074448
0.00667866
0.0730484
0.00609607
0.0723999
0.00578318
0.0729243
0.00557846
0.0751011
0.00491828
0.0794031
0.0026157
0.0850004
-0.00170435
0.0899379
-0.00652217
-0.0097795
0.190251
0.184475
0.0229424
0.179351
0.02011
0.174803
0.0176085
0.170755
0.0153989
0.167155
0.013459
0.163969
0.0117633
0.161191
0.0102807
0.158859
0.00898522
0.15709
0.00783763
0.156119
0.00672239
0.156324
0.00534091
0.158057
0.00315031
0.160985
-0.000348901
0.164007
-0.00476414
0.166609
-0.00916326
-0.0120207
0.253438
0.248893
0.244812
0.0216837
0.241167
0.0190327
0.237946
0.0166657
0.235149
0.0145412
0.232802
0.0126065
0.230962
0.0108001
0.229741
0.00903028
0.229298
0.00713414
0.229763
0.00484349
0.231048
0.00183024
0.23265
-0.00198717
0.234113
-0.00626466
0.23548
-0.0105696
-0.013435
0.297856
0.29486
0.292234
0.0192753
0.290001
0.0167552
0.288192
0.0143933
0.28686
0.0121073
0.28607
0.00979179
0.285876
0.00729691
0.28625
0.00443685
0.286993
0.0010529
0.287803
-0.00283391
0.288493
-0.00699263
0.289122
-0.0112371
-0.0141156
0.33235
0.330669
0.0184169
0.329341
0.0156987
0.328396
0.0130264
0.327858
0.0103021
0.327717
0.00740737
0.327895
0.004226
0.328225
0.000687399
0.328532
-0.00317674
0.32873
-0.00722838
0.328876
-0.0114219
-0.0143035
0.360208
0.359266
0.358599
0.0136668
0.358205
0.0106675
0.358049
0.00753361
0.358053
0.00418928
0.358102
0.000603749
0.358091
-0.00320195
0.357974
-0.00714974
0.357787
-0.011273
-0.0141115
0.380541
0.380239
0.0109412
0.380063
0.00767903
0.379949
0.00427031
0.379821
0.000697495
0.379614
-0.00303081
0.379297
-0.00687113
0.378885
-0.0108993
-0.0136621
0.396661
0.396479
0.396302
0.00441534
0.396076
0.00088908
0.395757
-0.00274767
0.395322
-0.00647361
0.394768
-0.0103836
-0.0130454
0.409213
0.408942
0.00112696
0.408568
-0.00240943
0.40807
-0.00601249
0.407433
-0.00978525
-0.0123294
0.419886
0.419491
0.418964
-0.00552213
0.418285
-0.00914433
-0.0115604
0.428923
0.428227
-0.00848602
-0.0107693
0.437787
-0.00997749
)
;

boundaryField
{
    inlet
    {
        type            calculated;
        value           nonuniform 0();
    }
    outlet
    {
        type            calculated;
        value           nonuniform List<scalar> 
30
(
0.0338219
0.0250245
0.00711675
-0.00624211
-0.0182925
-0.0279898
-0.0355461
-0.0412445
-0.0452804
-0.047762
-0.0486915
-0.0479322
-0.0450416
-0.0387982
-0.026467
-0.00411957
0.0342187
0.0930381
0.168811
0.236855
0.289763
0.329024
0.357555
0.378396
0.394112
0.406678
0.417476
0.427397
0.436957
0.446434
)
;
    }
    flap
    {
        type            calculated;
        value           nonuniform 0();
    }
    upperWall
    {
        type            calculated;
        value           nonuniform 0();
    }
    lowerWall
    {
        type            calculated;
        value           uniform 0;
    }
    frontAndBack
    {
        type            empty;
        value           nonuniform 0();
    }
    procBoundary5to2
    {
        type            processor;
        value           nonuniform List<scalar> 
34
(
0.0230478
0.0202351
-0.126278
0.0260028
0.0226481
-0.196712
0.0261686
-0.258472
0.0279815
0.0246538
-0.301204
0.025028
0.0220181
-0.334353
0.0212639
-0.361408
0.0195995
0.0166186
-0.381006
0.0141072
-0.396889
0.0111432
0.00783012
-0.409415
0.00458549
-0.42017
0.00137749
-0.00204859
-0.429456
-0.0050244
-0.438481
-0.00782939
-0.447248
-0.00920115
)
;
    }
    procBoundary5to4
    {
        type            processor;
        value           nonuniform List<scalar> 
18
(
-0.015252
-0.0162964
-0.0125738
-0.00759781
-0.00148593
0.00647425
0.0149454
0.0207187
0.0250155
0.028182
0.030286
0.0313023
0.0311587
0.0297216
0.0267215
-0.0148602
0.0200963
-0.0449792
)
;
    }
}


// ************************************************************************* //
