/*--------------------------------*- C++ -*----------------------------------*\
| =========                 |                                                 |
| \\      /  F ield         | OpenFOAM: The Open Source CFD Toolbox           |
|  \\    /   O peration     | Version:  dev                                   |
|   \\  /    A nd           | Web:      www.OpenFOAM.org                      |
|    \\/     M anipulation  |                                                 |
\*---------------------------------------------------------------------------*/
FoamFile
{
    version     2.0;
    format      ascii;
    class       surfaceScalarField;
    location    "2";
    object      phi;
}
// * * * * * * * * * * * * * * * * * * * * * * * * * * * * * * * * * * * * * //

dimensions      [0 3 -1 0 0 0 0];

internalField   nonuniform List<scalar> 
881
(
0.19745
0.00254448
0.19491
0.0025343
0.192322
0.00258176
0.189623
0.00269367
0.1868
0.00281782
0.18385
0.00294506
0.180766
0.00308035
0.177534
0.00322815
0.174143
0.00338952
0.170577
0.0035668
0.166815
0.00376436
0.16284
0.0039799
0.15863
0.00421661
0.154156
0.00448194
0.149387
0.00477702
0.14429
0.00510619
0.138824
0.00547357
0.13294
0.00588995
0.126582
0.00636204
0.119692
0.00689313
0.00749354
0.199307
0.00323151
0.198109
0.00372663
0.196726
0.00395932
0.195175
0.00423957
0.193448
0.0045393
0.191539
0.00484922
0.189439
0.00517588
0.187143
0.00552068
0.184642
0.00588924
0.181922
0.00628645
0.178971
0.00671835
0.175769
0.00718656
0.172294
0.00769849
0.16852
0.00826383
0.164418
0.00888742
0.159954
0.00957885
0.155088
0.0103478
0.149772
0.0112117
0.143952
0.0121874
0.137559
0.0132886
0.0145375
0.199171
0.0040551
0.198052
0.00483927
0.196744
0.00526236
0.195288
0.00569027
0.193679
0.00614244
0.19191
0.00661336
0.189974
0.00710747
0.187864
0.0076265
0.185573
0.00817874
0.183089
0.00877064
0.180403
0.00940653
0.177495
0.0100993
0.174341
0.0108601
0.170919
0.0116939
0.167202
0.0126129
0.163158
0.013632
0.158745
0.0147689
0.153921
0.0160422
0.148633
0.0174806
0.142806
0.0191184
0.0209912
0.199079
0.00497023
0.197966
0.00594624
0.196672
0.00655131
0.195229
0.00712791
0.193637
0.00772911
0.19189
0.00835474
0.189985
0.00900772
0.187914
0.00969341
0.185671
0.0104207
0.183244
0.0111972
0.180624
0.0120294
0.177794
0.0129342
0.174735
0.0139257
0.171427
0.0150105
0.167845
0.0162041
0.16396
0.0175264
0.159737
0.0190007
0.155127
0.0206586
0.150073
0.0225403
0.144501
0.0246938
0.0271768
0.199032
0.00593241
0.197911
0.00706194
0.196626
0.00782998
0.195194
0.00855431
0.193617
0.00930135
0.191888
0.0100777
0.190004
0.010887
0.187957
0.0117367
0.185739
0.0126363
0.183341
0.013595
0.18075
0.0146231
0.177954
0.0157347
0.174935
0.0169512
0.17167
0.0182844
0.168137
0.0197474
0.164305
0.0213682
0.16014
0.023175
0.155595
0.0252114
0.150609
0.0275322
0.145102
0.0302047
0.0333152
0.199007
0.00691984
0.197878
0.00818481
0.196607
0.00909598
0.19519
0.00996532
0.193629
0.0108562
0.191921
0.0117799
0.19006
0.0127431
0.188038
0.0137551
0.185845
0.0148262
0.183473
0.0159672
0.180908
0.0171901
0.178136
0.0185109
0.175142
0.0199527
0.171905
0.0215306
0.168398
0.0232644
0.164589
0.0251883
0.160434
0.0273399
0.155891
0.0297628
0.150905
0.0325245
0.145381
0.0357331
0.0395043
0.198995
0.00791899
0.197864
0.00930974
0.196605
0.0103501
0.195204
0.0113599
0.193663
0.012391
0.191979
0.0134585
0.190144
0.0145728
0.188149
0.015745
0.185986
0.0169864
0.183644
0.018309
0.181109
0.0197273
0.178361
0.0212629
0.175392
0.0229294
0.172185
0.024747
0.168705
0.026755
0.164917
0.028988
0.16078
0.031488
0.156234
0.0343174
0.15121
0.0375568
0.145621
0.0413271
0.0457873
0.198996
0.00891735
0.197867
0.0104324
0.196618
0.0115935
0.195236
0.0127357
0.193719
0.0139019
0.192062
0.0151095
0.190257
0.0163715
0.188296
0.0177012
0.186169
0.0191105
0.183865
0.0206119
0.181371
0.0222232
0.178668
0.0239699
0.175741
0.0258637
0.172571
0.0279268
0.169122
0.0302152
0.165354
0.0327686
0.161223
0.0356301
0.156669
0.0388825
0.151603
0.0426312
0.145946
0.0469903
0.0521715
0.199004
0.0099071
0.197885
0.0115458
0.196653
0.0128203
0.195296
0.0140864
0.193808
0.015383
0.192184
0.0167268
0.190417
0.0181325
0.188496
0.0196168
0.186411
0.0211915
0.184153
0.0228688
0.181709
0.0246687
0.17906
0.0266228
0.176182
0.0287492
0.173048
0.0310707
0.16963
0.033645
0.16589
0.0365212
0.161771
0.0397624
0.157219
0.0434456
0.152154
0.0477065
0.146454
0.0526972
0.0586486
0.199018
0.0108837
0.197915
0.0126425
0.196706
0.0140234
0.195379
0.0154071
0.193926
0.016829
0.192341
0.0183049
0.190618
0.0198495
0.188743
0.0214852
0.186707
0.0232236
0.184499
0.0250749
0.182102
0.0270659
0.179501
0.0292278
0.176674
0.0315834
0.173588
0.0341676
0.170217
0.037028
0.166532
0.0402197
0.162465
0.0438425
0.157944
0.0479798
0.152893
0.052768
0.147188
0.0584112
0.0651699
0.199035
0.0118428
0.197954
0.0137176
0.196772
0.015199
0.195479
0.0166943
0.194064
0.0182367
0.192522
0.0198402
0.190841
0.0215229
0.189012
0.0233072
0.187028
0.0252025
0.184876
0.0272243
0.182534
0.0294084
0.179992
0.0317732
0.177234
0.0343481
0.174228
0.0371839
0.170938
0.0403311
0.167316
0.0438555
0.163314
0.0478587
0.158849
0.0524588
0.153846
0.0577828
0.148194
0.0640736
0.0716549
0.199054
0.0127828
0.197998
0.0147683
0.196846
0.0163442
0.195589
0.0179453
0.194215
0.0196031
0.192717
0.0213308
0.191082
0.0231504
0.189305
0.0250766
0.187382
0.0271193
0.185297
0.0293058
0.183033
0.0316718
0.180577
0.0342319
0.177904
0.0370276
0.174982
0.0401155
0.171777
0.0435491
0.168237
0.0474098
0.164329
0.0517823
0.159981
0.056821
0.15509
0.0626877
0.149541
0.0696334
0.0780156
0.199075
0.013702
0.198046
0.0157918
0.196927
0.0174561
0.195709
0.0191564
0.194381
0.0209237
0.192934
0.0227701
0.19136
0.0247158
0.189653
0.0267759
0.187801
0.0289641
0.185795
0.0313077
0.183619
0.0338459
0.181249
0.0366036
0.178662
0.039621
0.175829
0.0429577
0.172727
0.0466628
0.169326
0.0508254
0.16556
0.0555641
0.161362
0.0610349
0.156639
0.0674248
0.151281
0.075004
0.0841398
0.199102
0.0145948
0.198105
0.0167825
0.197026
0.0185287
0.195854
0.0203216
0.194577
0.0221921
0.19319
0.0241495
0.191686
0.0262103
0.190054
0.0283996
0.188279
0.0307313
0.186352
0.0332293
0.184258
0.0359371
0.181976
0.0388859
0.179494
0.0421082
0.176796
0.0456636
0.173846
0.049625
0.1706
0.0540853
0.166994
0.0591858
0.162987
0.0650582
0.15851
0.0719164
0.153447
0.0800807
0.0899132
0.199127
0.198162
0.197122
0.0195625
0.195996
0.0214406
0.194771
0.0234084
0.193441
0.0254705
0.191998
0.0276442
0.19043
0.0299586
0.188728
0.0324242
0.186879
0.0350719
0.184874
0.0379378
0.182708
0.041052
0.180355
0.044464
0.177792
0.0482343
0.174986
0.052442
0.171897
0.0571878
0.168491
0.0626069
0.164723
0.0688421
0.160521
0.0761334
0.155817
0.0847993
0.0952255
0.204829
0.203722
0.0225396
0.202519
0.0246031
0.201214
0.026766
0.199796
0.0290522
0.19826
0.0314838
0.196602
0.0340725
0.19481
0.036856
0.192874
0.039868
0.190778
0.0431454
0.188502
0.0467418
0.18602
0.0507221
0.183326
0.0551463
0.180392
0.0601342
0.177184
0.0658301
0.173647
0.0723944
0.169743
0.0800534
0.165462
0.0890946
0.0999344
0.208842
0.207677
0.0257588
0.20642
0.0280134
0.205059
0.0304022
0.203592
0.0329393
0.202008
0.0356447
0.200297
0.038557
0.198449
0.0417091
0.196445
0.0451452
0.194285
0.0489011
0.19196
0.0530518
0.189443
0.057671
0.186715
0.0628732
0.183757
0.0688022
0.180554
0.0756116
0.177096
0.0835268
0.173398
0.0928061
0.103865
0.213018
0.211826
0.0291948
0.210539
0.0316764
0.209149
0.0343167
0.207646
0.0371361
0.206024
0.0401672
0.204286
0.0434375
0.202427
0.0469987
0.200431
0.0508943
0.198292
0.0551927
0.195993
0.0599758
0.193529
0.065346
0.190902
0.0714405
0.18813
0.0783971
0.185245
0.0864245
0.18228
0.0957834
0.106809
0.217415
0.216202
0.0328765
0.214894
0.0356115
0.21349
0.0385254
0.211998
0.041646
0.210407
0.0450174
0.208709
0.0486879
0.206899
0.0527
0.204976
0.0571141
0.202947
0.0620081
0.200814
0.0674852
0.1986
0.0736636
0.196342
0.080666
0.194118
0.0886591
0.192016
0.0978949
0.10855
0.22205
0.220855
0.0367915
0.219586
0.0397792
0.218239
0.0429788
0.2168
0.046443
0.215284
0.0501929
0.2137
0.0542764
0.212044
0.0587654
0.21033
0.0637222
0.208584
0.0692348
0.206847
0.0754063
0.205189
0.0823309
0.203699
0.0901575
0.202567
0.0990337
0.109024
0.227056
0.225924
0.224726
0.0441606
0.223476
0.0476779
0.222183
0.0514718
0.22085
0.0555993
0.219489
0.0601189
0.218135
0.0650731
0.216821
0.070548
0.215615
0.0766153
0.214605
0.0833444
0.21391
0.0908568
0.213794
0.0991536
0.108287
0.231484
0.230452
0.0486929
0.229398
0.0525108
0.228338
0.0566459
0.22731
0.0611369
0.226348
0.0660281
0.225505
0.0713876
0.224871
0.0772476
0.224528
0.0836873
0.224666
0.0907204
0.22554
0.0982814
0.106436
0.237711
0.236919
0.236174
0.0573761
0.235511
0.0617865
0.234968
0.0665619
0.234629
0.0717192
0.234572
0.0773
0.234907
0.0833495
0.235865
0.0897599
0.237633
0.0965134
0.103605
0.244351
0.24407
0.243968
0.0666515
0.244135
0.0715415
0.244648
0.0767796
0.245662
0.0823302
0.247362
0.0880549
0.24991
0.0939628
0.0999296
0.253291
0.253958
0.0708625
0.255044
0.0756836
0.256687
0.0806794
0.259026
0.0857099
0.262261
0.090723
0.0955721
0.26406
0.265679
0.267883
0.0784655
0.270812
0.0827744
0.274619
0.0869106
0.0907843
0.279235
0.282663
0.286847
0.0827209
0.0857943
0.298828
)
;

boundaryField
{
    inlet
    {
        type            calculated;
        value           nonuniform List<scalar> 
15
(
-0.2
-0.2
-0.2
-0.2
-0.2
-0.2
-0.2
-0.2
-0.2
-0.2
-0.2
-0.2
-0.2
-0.2
-0.2
)
;
    }
    outlet
    {
        type            calculated;
        value           nonuniform 0();
    }
    flap
    {
        type            calculated;
        value           nonuniform 0();
    }
    upperWall
    {
        type            calculated;
        value           nonuniform 0();
    }
    lowerWall
    {
        type            calculated;
        value           uniform 0;
    }
    frontAndBack
    {
        type            empty;
        value           nonuniform 0();
    }
    procBoundary3to0
    {
        type            processor;
        value           nonuniform List<scalar> 
34
(
0.0154625
0.0177411
-0.20585
0.0205775
-0.209919
0.0236093
-0.214125
0.0268573
-0.218537
0.0303065
-0.223171
0.0339857
-0.22812
0.0378418
0.0408951
-0.232494
0.0451535
-0.238515
0.0494793
0.0532853
-0.244761
0.0577682
0.062053
-0.252951
0.0662969
-0.262908
0.0696965
0.0740531
-0.276501
0.0757207
0.0793387
-0.294429
0.0783151
0.0807188
)
;
    }
    procBoundary3to1
    {
        type            processor;
        value           nonuniform List<scalar> 9(0.202099 0.214536 0.227394 0.240466 0.253587 0.266618 0.279405 0.291834 0.3039);
    }
    procBoundary3to4
    {
        type            processor;
        value           nonuniform List<scalar> 
19
(
0.112199
0.130516
0.136354
0.138317
0.138965
0.139194
0.139341
0.139565
0.139981
0.140672
0.141716
0.143189
0.145166
0.147684
0.150516
0.160765
0.16948
0.179348
0.190285
)
;
    }
}


// ************************************************************************* //
