/*--------------------------------*- C++ -*----------------------------------*\
| =========                 |                                                 |
| \\      /  F ield         | OpenFOAM: The Open Source CFD Toolbox           |
|  \\    /   O peration     | Version:  dev                                   |
|   \\  /    A nd           | Web:      www.OpenFOAM.org                      |
|    \\/     M anipulation  |                                                 |
\*---------------------------------------------------------------------------*/
FoamFile
{
    version     2.0;
    format      ascii;
    class       volVectorField;
    location    "2";
    object      U;
}
// * * * * * * * * * * * * * * * * * * * * * * * * * * * * * * * * * * * * * //

dimensions      [0 1 -1 0 0 0 0];

internalField   nonuniform List<vector> 
465
(
(9.9358 1.20283e-21 0.0179832)
(9.86829 -1.2527e-21 0.0243454)
(9.77833 0 0.0281764)
(9.67293 5.51786e-21 0.0320619)
(9.55776 -5.75582e-21 0.0360257)
(9.43394 0 0.0400195)
(9.30091 -2.54214e-20 0.044154)
(9.15806 1.33423e-20 0.0485611)
(9.00485 8.99783e-23 0.0533526)
(8.84064 -1.46392e-20 0.0586307)
(8.6646 0 0.0645087)
(8.4757 0 0.0711247)
(8.27263 0 0.0786226)
(8.05395 0 0.0871481)
(7.81813 3.83843e-20 0.0968859)
(7.56337 -1.15719e-19 0.108072)
(7.28758 8.38239e-20 0.120974)
(6.98848 9.0244e-20 0.135902)
(6.66349 -1.88618e-19 0.153221)
(6.30979 1.23343e-19 0.173359)
(5.92433 5.24605e-20 0.196807)
(10.0018 0 0.0344777)
(9.99627 -7.98924e-20 0.0480846)
(9.9696 -8.36875e-20 0.0568452)
(9.92534 0 0.0662112)
(9.8682 -2.30962e-20 0.0762305)
(9.79952 2.40489e-20 0.0867136)
(9.71906 7.59129e-20 0.0978639)
(9.62637 -1.32791e-20 0.109966)
(9.52107 -4.21265e-20 0.123278)
(9.40263 2.85028e-20 0.138048)
(9.2703 3.03587e-20 0.154548)
(9.12321 4.89427e-20 0.173113)
(8.96024 6.95165e-20 0.194113)
(8.78003 -1.41747e-19 0.217928)
(8.58105 1.52961e-19 0.245013)
(8.36157 -2.02453e-21 0.275935)
(8.11958 -3.34005e-19 0.311348)
(7.85282 1.52321e-19 0.351974)
(7.55868 4.62735e-20 0.398632)
(7.23427 -2.44682e-20 0.452254)
(6.87636 -4.68347e-19 0.513853)
(9.99927 -1.48429e-19 0.033382)
(9.99141 7.48471e-20 0.0524235)
(9.96748 1.67165e-19 0.0670262)
(9.92823 8.75766e-20 0.0824216)
(9.87709 -1.14866e-19 0.0989593)
(9.81546 2.39977e-20 0.116474)
(9.74327 -5.02377e-20 0.135207)
(9.66016 -5.27066e-20 0.155549)
(9.56579 0 0.177895)
(9.45971 -2.91611e-20 0.20265)
(9.34129 3.06147e-20 0.23025)
(9.20976 1.60775e-20 0.261201)
(9.06426 0 0.296105)
(8.90367 -1.43151e-19 0.335643)
(8.72659 1.42226e-19 0.380589)
(8.5315 3.26866e-19 0.431859)
(8.31669 2.68541e-20 0.490533)
(8.08021 -1.47625e-20 0.557848)
(7.8198 -4.54285e-19 0.635223)
(7.53284 -7.79147e-19 0.724283)
(7.21633 7.01493e-19 0.826854)
(9.99735 1.62655e-19 0.0344782)
(9.98696 -9.95082e-21 0.0606462)
(9.96281 8.32482e-20 0.0825926)
(9.92455 -6.55574e-20 0.104493)
(9.87466 6.88509e-20 0.127359)
(9.81453 0 0.15137)
(9.74427 -2.01428e-22 0.176892)
(9.66365 -5.35653e-20 0.204444)
(9.57242 1.10084e-19 0.234572)
(9.47024 -5.79463e-20 0.267842)
(9.35667 -1.22593e-19 0.304857)
(9.23107 1.26939e-19 0.346277)
(9.09267 2.70436e-19 0.392883)
(8.94066 -2.79692e-19 0.445615)
(8.774 1.38652e-20 0.505538)
(8.59154 3.04259e-19 0.573865)
(8.39196 -3.243e-19 0.652026)
(8.1738 4.30873e-20 0.741718)
(7.93534 4.5291e-20 0.844934)
(7.67459 0 0.963995)
(7.38924 -7.04003e-19 1.1016)
(9.99632 0 0.037169)
(9.98432 1.5866e-19 0.0691031)
(9.95981 -1.66507e-19 0.0971857)
(9.92222 0 0.124706)
(9.87334 -9.12602e-20 0.153186)
(9.81447 0 0.183156)
(9.7458 2.00912e-19 0.215085)
(9.66714 -2.10225e-19 0.249565)
(9.57832 1.09563e-19 0.287246)
(9.47907 -5.83513e-20 0.328795)
(9.36906 1.20287e-19 0.374944)
(9.24781 1.92312e-19 0.42651)
(9.11461 -2.64416e-19 0.484408)
(8.96875 0 0.549726)
(8.80957 -2.86541e-19 0.623728)
(8.63624 3.05198e-19 0.707876)
(8.4478 -4.03497e-20 0.80389)
(8.24322 0 0.913807)
(8.02133 8.83819e-20 1.04005)
(7.78079 0 1.18551)
(7.52008 -1.93451e-19 1.35362)
(9.99576 0 0.0406747)
(9.9828 -1.3864e-19 0.0776544)
(9.95814 -2.07072e-20 0.111444)
(9.9213 0 0.144607)
(9.87363 -9.07066e-20 0.178802)
(9.81627 0 0.214773)
(9.74946 -2.54875e-22 0.253084)
(9.67306 0 0.294395)
(9.58692 7.92889e-22 0.339433)
(9.49083 -3.44795e-19 0.388963)
(9.38449 -2.94383e-21 0.443814)
(9.26762 3.13259e-19 0.504945)
(9.13972 -6.57796e-20 0.57344)
(9.00015 -3.44574e-20 0.6505)
(8.84842 5.29929e-19 0.737518)
(8.68395 -6.02655e-19 0.836161)
(8.50609 1.00594e-20 0.948401)
(8.3142 -6.72045e-19 1.07655)
(8.10759 6.03754e-19 1.22336)
(7.88554 0 1.39212)
(7.64727 -1.24635e-18 1.58688)
(9.99549 3.02495e-19 0.0446133)
(9.98204 -1.97393e-20 0.0863088)
(9.95747 6.20221e-20 0.12544)
(9.92151 1.29675e-19 0.164068)
(9.87525 1.81449e-19 0.203792)
(9.81968 -1.89462e-19 0.245497)
(9.75504 -9.9435e-20 0.28988)
(9.68126 6.87777e-22 0.33769)
(9.59822 2.19385e-19 0.389734)
(9.50576 -2.26507e-19 0.446864)
(9.40366 0 0.509992)
(9.29166 6.21897e-20 0.580158)
(9.1695 6.54461e-20 0.658587)
(9.03683 1.02348e-19 0.74662)
(8.89318 6.12135e-19 0.84576)
(8.73817 8.98377e-21 0.957809)
(8.57144 -6.11099e-19 1.08491)
(8.3927 1.31756e-18 1.22958)
(8.20171 -2.11917e-20 1.39483)
(7.99829 -1.41022e-18 1.58428)
(7.78234 -9.29615e-20 1.80237)
(9.99546 -3.11457e-19 0.0487477)
(9.98188 2.94704e-20 0.0949662)
(9.95763 2.06742e-20 0.139108)
(9.92271 -2.58711e-19 0.182952)
(9.8781 -4.4645e-20 0.227985)
(9.8246 2.10873e-22 0.275186)
(9.76245 -7.6702e-22 0.325379)
(9.69165 2.06257e-19 0.379403)
(9.61213 1.07739e-19 0.438126)
(9.52382 0 0.502473)
(9.42662 1.17739e-19 0.573441)
(9.32022 -1.84932e-19 0.652129)
(9.20442 -5.19485e-19 0.739827)
(9.07921 4.68331e-19 0.838)
(8.94427 0 0.948279)
(8.79942 5.92578e-19 1.07258)
(8.64455 -1.18972e-18 1.21314)
(8.4797 6.15388e-19 1.37265)
(8.30502 -1.29874e-18 1.55429)
(8.12085 2.76449e-18 1.76191)
(7.92777 -2.8613e-18 2.00018)
(9.99557 0 0.0529213)
(9.98212 3.91396e-20 0.103516)
(9.95838 -3.67939e-19 0.152389)
(9.92468 0 0.201173)
(9.8819 5.67352e-22 0.251267)
(9.83071 0 0.303711)
(9.77134 1.95756e-19 0.359433)
(9.70384 0 0.41934)
(9.62823 -5.36239e-19 0.484357)
(9.54448 2.22716e-19 0.555465)
(9.45259 1.33697e-21 0.633746)
(9.35235 -1.20337e-19 0.720377)
(9.24362 0 0.816673)
(9.1265 0 0.924163)
(9.00094 5.57958e-19 1.04459)
(8.86694 -5.73999e-19 1.17995)
(8.72467 -1.24804e-18 1.33258)
(8.57444 1.30034e-18 1.50523)
(8.41679 -1.3041e-18 1.7012)
(8.25257 1.29165e-18 1.92447)
(8.08298 0 2.17986)
(9.99574 1.86901e-20 0.0570445)
(9.98257 -1.9439e-20 0.111869)
(9.95957 3.26348e-19 0.165218)
(9.92724 8.54648e-20 0.21866)
(9.88646 8.96692e-20 0.273543)
(9.83778 -9.35149e-20 0.330955)
(9.78143 -4.87859e-19 0.391892)
(9.71753 4.05484e-19 0.457324)
(9.64613 4.26049e-19 0.528226)
(9.56727 -2.20562e-19 0.605631)
(9.481 7.10051e-22 0.690681)
(9.38727 4.84648e-19 0.784613)
(9.28611 -6.24812e-19 0.888775)
(9.17767 -1.30243e-19 1.00473)
(9.06208 0 1.13429)
(8.93958 -1.40777e-19 1.2795)
(8.81057 -7.30224e-20 1.44273)
(8.67564 -3.83282e-20 1.62678)
(8.5357 -1.26591e-18 1.835)
(8.39202 1.33251e-18 2.07142)
(8.24637 0 2.34095)
(9.99595 -1.85944e-20 0.0610611)
(9.98322 1.93368e-20 0.119948)
(9.96114 0 0.177524)
(9.93037 8.49525e-20 0.235345)
(9.89172 -8.83987e-20 0.294738)
(9.8457 0 0.356819)
(9.79257 -2.85382e-22 0.422638)
(9.73248 2.01245e-19 0.493217)
(9.66554 -2.09464e-19 0.569582)
(9.59187 0 0.652812)
(9.51155 -1.13044e-19 0.744077)
(9.4247 0 0.844643)
(9.33147 1.24228e-19 0.955884)
(9.23211 1.29221e-19 1.07939)
(9.12696 0 1.21699)
(9.01645 2.77134e-19 1.37077)
(8.90121 1.22578e-18 1.54311)
(8.78209 -1.03302e-18 1.73683)
(8.66032 1.07507e-18 1.95525)
(8.53756 -1.09361e-18 2.20239)
(8.41606 0 2.48311)
(9.99619 -1.84933e-20 0.0649256)
(9.98401 1.92288e-20 0.127682)
(9.96303 0 0.189236)
(9.93397 8.44112e-20 0.251161)
(9.8976 -8.78098e-20 0.31478)
(9.85441 0 0.381227)
(9.80468 1.91182e-19 0.451584)
(9.7486 1.27588e-21 0.526921)
(9.68634 -4.14947e-19 0.608306)
(9.6181 4.35312e-19 0.696846)
(9.54405 -2.22893e-19 0.793728)
(9.4644 -7.04612e-19 0.900224)
(9.37943 4.84972e-19 1.01773)
(9.28951 0 1.14784)
(9.19512 5.26288e-19 1.29239)
(9.09691 -6.75907e-19 1.45346)
(8.99573 1.12391e-18 1.63343)
(8.8927 -2.16391e-18 1.83506)
(8.78932 1.62101e-18 2.06163)
(8.68761 -1.52553e-19 2.31707)
(8.59021 -2.45757e-18 2.60612)
(9.99647 5.8696e-19 0.0686025)
(9.98493 -2.67127e-19 0.135015)
(9.96518 2.79568e-19 0.200291)
(9.93798 8.38436e-20 0.266038)
(9.90406 -8.71926e-20 0.333585)
(9.8639 1.82796e-19 0.404077)
(9.81779 -3.79937e-19 0.47862)
(9.76594 1.98402e-19 0.558316)
(9.70859 2.06543e-19 0.64426)
(9.646 0 0.737575)
(9.57843 0 0.839451)
(9.50621 2.3193e-19 0.951167)
(9.42972 -4.81069e-19 1.07413)
(9.34944 7.40929e-19 1.20992)
(9.266 -2.55027e-19 1.36034)
(9.18025 0 1.52743)
(9.09327 -2.70577e-19 1.71352)
(9.00642 -2.8194e-19 1.9213)
(8.92144 -5.13085e-21 2.15398)
(8.84069 0 2.41535)
(8.76717 0 2.70997)
(9.99677 -5.85671e-19 0.0720646)
(9.98594 -3.40357e-19 0.1419)
(9.96753 -2.79007e-19 0.210633)
(9.9423 0 0.279909)
(9.91097 0 0.351066)
(9.87399 -3.60643e-19 0.425261)
(9.83166 -1.88803e-19 0.503618)
(9.78422 -1.95254e-19 0.587261)
(9.73195 0 0.6773)
(9.67518 0 0.774853)
(9.61427 6.5904e-19 0.881108)
(9.54963 -4.53295e-19 0.997345)
(9.48174 2.34277e-19 1.12496)
(9.41122 -7.32957e-19 1.2655)
(9.33882 7.52845e-19 1.42068)
(9.26558 -1.03656e-18 1.59248)
(9.19279 -1.59769e-21 1.78317)
(9.12201 1.08274e-18 1.99537)
(9.0553 8.27192e-19 2.23214)
(8.99524 -1.11888e-18 2.49711)
(8.94526 0 2.79457)
(9.99708 5.61538e-19 0.0752895)
(9.98702 6.24428e-19 0.148302)
(9.97003 7.91026e-20 0.220218)
(9.94687 -1.65015e-19 0.292724)
(9.91822 8.58814e-20 0.367173)
(9.8845 3.59366e-19 0.44473)
(9.84603 3.7195e-19 0.526534)
(9.80308 3.88874e-19 0.613722)
(9.75599 -4.01251e-19 0.707397)
(9.70516 0 0.808669)
(9.65102 1.39048e-21 0.918711)
(9.59405 -2.20093e-19 1.03878)
(9.53486 -6.93726e-19 1.17025)
(9.47416 0 1.3146)
(9.41285 2.44071e-19 1.4735)
(9.35207 -1.01077e-18 1.6488)
(9.29326 2.56339e-19 1.84268)
(9.23825 1.05099e-18 2.05762)
(9.18936 1.06759e-18 2.29651)
(9.14945 -1.07776e-18 2.56277)
(9.12226 -2.14797e-18 2.86041)
(9.9727 0 0.229189)
(9.95173 0 0.304679)
(9.9259 1.64667e-19 0.382156)
(9.89561 -1.70764e-19 0.462799)
(9.86117 -2.13797e-21 0.547748)
(9.82292 5.53306e-19 0.638128)
(9.78124 -1.90751e-19 0.735025)
(9.73662 5.85434e-22 0.83953)
(9.68954 2.06205e-19 0.952794)
(9.64057 6.35255e-19 1.07605)
(9.59041 4.3858e-19 1.21061)
(9.53988 -9.04257e-19 1.35791)
(9.49001 1.15743e-18 1.51951)
(9.44206 -1.41562e-18 1.69717)
(9.39756 0 1.89288)
(9.35848 0 2.10893)
(9.32738 4.99873e-19 2.348)
(9.30746 -4.9812e-19 2.61323)
(9.30276 -9.97045e-19 2.90827)
(9.95688 -3.81201e-19 0.315759)
(9.93399 7.9436e-20 0.395991)
(9.90726 3.29968e-19 0.479425)
(9.87703 -8.5974e-19 0.567192)
(9.84365 1.75462e-19 0.660382)
(9.80757 0 0.760049)
(9.76932 7.66858e-19 0.867262)
(9.72947 1.74072e-21 0.983147)
(9.68866 -8.15586e-19 1.1089)
(9.64765 -8.36815e-19 1.24577)
(9.60736 -3.45807e-21 1.39509)
(9.56897 -4.39154e-19 1.5583)
(9.53383 9.07194e-19 1.73703)
(9.50362 9.1694e-19 1.93312)
(9.48032 -1.38974e-18 2.1486)
(9.46659 9.36184e-19 2.38581)
(9.46589 4.73769e-19 2.6475)
(9.4825 -1.84579e-18 2.93687)
(9.94251 -2.30089e-19 0.408516)
(9.91947 -3.2093e-19 0.494412)
(9.89358 4.99409e-19 0.584632)
(9.86523 -8.59745e-19 0.680226)
(9.83491 -3.54536e-19 0.782204)
(9.80317 0 0.891604)
(9.77065 0 1.00952)
(9.73807 3.91198e-19 1.13708)
(9.70625 -3.98897e-19 1.27546)
(9.6762 8.19648e-19 1.42586)
(9.64916 0 1.58961)
(9.62662 4.31925e-19 1.76817)
(9.61035 -4.31154e-19 1.96322)
(9.60246 4.43528e-19 2.17652)
(9.60561 -4.45849e-19 2.40997)
(9.62321 0 2.66579)
(9.65967 0 2.94667)
(9.93211 0 0.507554)
(9.91066 -1.58873e-19 0.599828)
(9.88744 4.99604e-19 0.697389)
(9.86295 1.92433e-21 0.801195)
(9.83781 3.54223e-19 0.912226)
(9.81269 -3.63832e-19 1.03152)
(9.78837 -3.72389e-19 1.16016)
(9.76573 0 1.29923)
(9.74582 -5.26871e-21 1.44979)
(9.72992 -8.01243e-19 1.613)
(9.71961 4.10919e-19 1.79015)
(9.71668 1.23903e-18 1.98271)
(9.72342 -8.32462e-19 2.19215)
(9.74261 0 2.41995)
(9.77729 0 2.66774)
(9.83185 -8.07667e-19 2.93754)
(9.9281 3.10406e-19 0.61264)
(9.91006 0 0.711711)
(9.89146 3.28595e-19 0.816822)
(9.87294 3.38434e-19 0.928891)
(9.85523 2.08094e-21 1.04891)
(9.83913 -3.56696e-19 1.17789)
(9.82557 1.10207e-18 1.31682)
(9.81565 -1.12792e-18 1.46661)
(9.8106 -7.62794e-19 1.62823)
(9.81206 1.16576e-18 1.8028)
(9.82176 0 1.99148)
(9.8422 7.82627e-19 2.19542)
(9.87618 -7.9007e-21 2.41571)
(9.92637 -7.8356e-19 2.65348)
(9.99701 1.51575e-18 2.9099)
(9.93301 1.52869e-19 0.723005)
(9.9203 -3.19044e-19 0.828881)
(9.90837 -3.28421e-19 0.941385)
(9.898 3.63365e-21 1.06146)
(9.88999 0 1.19004)
(9.88533 -7.02346e-19 1.328)
(9.88513 7.16574e-19 1.47611)
(9.8906 0 1.63514)
(9.90334 0 1.806)
(9.92501 0 1.98953)
(9.95822 7.40514e-19 2.18651)
(10.0054 -7.45956e-19 2.39764)
(10.0691 0 2.62362)
(10.1535 -1.44675e-18 2.86481)
(9.94391 0 0.949544)
(9.94073 3.2372e-19 1.069)
(9.94055 0 1.19644)
(9.94447 -6.71249e-19 1.33262)
(9.95361 1.98388e-21 1.47813)
(9.96914 2.9295e-21 1.6336)
(9.99251 4.10982e-21 1.79971)
(10.0254 7.07202e-19 1.97697)
(10.0702 -6.9892e-19 2.16574)
(10.1288 -6.97539e-19 2.36638)
(10.2042 1.38926e-18 2.57919)
(10.2998 6.92817e-19 2.80382)
(9.98311 -3.08945e-19 1.07143)
(9.99045 -3.13508e-19 1.19702)
(10.0026 0 1.33063)
(10.0205 3.24107e-19 1.47268)
(10.0453 6.58978e-19 1.62365)
(10.0784 -4.8026e-21 1.78404)
(10.1216 -6.72809e-19 1.95403)
(10.1767 6.76938e-19 2.1336)
(10.2452 0 2.32277)
(10.3304 -6.67527e-19 2.52146)
(10.4346 6.27783e-19 2.72881)
(10.0592 3.06713e-19 1.32205)
(10.0854 -1.55822e-18 1.45986)
(10.1186 6.34985e-19 1.60551)
(10.1605 -6.37869e-19 1.75932)
(10.2129 -6.34127e-19 1.92118)
(10.2767 6.4114e-19 2.09075)
(10.3538 0 2.26776)
(10.4467 6.35245e-19 2.45181)
(10.5571 -6.26085e-19 2.64177)
(10.1886 6.07e-19 1.57941)
(10.2386 0 1.72592)
(10.2989 1.20695e-18 1.87905)
(10.3701 -9.40391e-21 2.03808)
(10.4539 0 2.20249)
(10.5526 0 2.37178)
(10.6671 -5.85477e-19 2.54468)
(10.3117 5.74403e-19 1.68428)
(10.3789 -5.85801e-19 1.82827)
(10.4563 -5.85563e-19 1.97656)
(10.5453 0 2.12831)
(10.6479 5.67794e-19 2.28297)
(10.7647 5.72709e-19 2.43939)
(10.5346 2.7071e-19 1.907)
(10.6276 -2.73787e-19 2.04638)
(10.7326 -2.77435e-19 2.18692)
(10.8499 0 2.3277)
(10.8069 1.33226e-19 2.08496)
(10.9237 -5.1924e-19 2.21129)
)
;

boundaryField
{
    inlet
    {
        type            fixedValue;
        value           uniform (10 0 0);
    }
    outlet
    {
        type            zeroGradient;
    }
    flap
    {
        type            movingWallVelocity;
        value           nonuniform 0();
    }
    upperWall
    {
        type            noSlip;
    }
    lowerWall
    {
        type            noSlip;
    }
    frontAndBack
    {
        type            empty;
    }
    procBoundary3to0
    {
        type            processor;
        value           nonuniform List<vector> 
34
(
(9.99742 5.57118e-19 0.0783176)
(9.98818 0 0.154308)
(9.98818 0 0.154308)
(9.97556 5.8425e-19 0.237534)
(9.97556 5.8425e-19 0.237534)
(9.96236 -2.22545e-19 0.325829)
(9.96236 -2.22545e-19 0.325829)
(9.95138 -5.95449e-19 0.419559)
(9.95138 -5.95449e-19 0.419559)
(9.94505 1.49161e-19 0.518724)
(9.94505 1.49161e-19 0.518724)
(9.94583 -4.46424e-19 0.622907)
(9.94583 -4.46424e-19 0.622907)
(9.95615 1.17721e-21 0.731094)
(9.94932 1.3214e-21 0.837201)
(9.94932 1.3214e-21 0.837201)
(9.97929 -6.04617e-19 0.953214)
(9.97929 -6.04617e-19 0.953214)
(10.0248 2.94532e-19 1.06865)
(10.0393 -3.04087e-19 1.19174)
(10.0393 -3.04087e-19 1.19174)
(10.114 5.84494e-19 1.30692)
(10.1477 2.9704e-19 1.43981)
(10.1477 2.9704e-19 1.43981)
(10.2546 0 1.54566)
(10.2546 0 1.54566)
(10.3792 8.32641e-19 1.63501)
(10.4521 3.74576e-21 1.76946)
(10.4521 3.74576e-21 1.76946)
(10.6047 5.40819e-19 1.83022)
(10.7006 3.98789e-19 1.95767)
(10.7006 3.98789e-19 1.95767)
(10.871 -9.54491e-20 1.97824)
(10.9864 3.18822e-20 2.0914)
)
;
    }
    procBoundary3to1
    {
        type            processor;
        value           nonuniform List<vector> 9((10.0929 7.55122e-19 3.18542) (10.2622 -6.94667e-19 3.12065) (10.4181 6.57826e-19 3.03901) (10.5596 0 2.94318) (10.6861 0 2.83576) (10.798 -2.86351e-19 2.71919) (10.8956 -1.37586e-19 2.59566) (10.9795 0 2.46715) (11.0509 -3.28087e-20 2.33539));
    }
    procBoundary3to4
    {
        type            processor;
        value           nonuniform List<vector> 
19
(
(5.50386 1.68714e-19 0.224128)
(6.48133 -8.13833e-19 0.584507)
(6.86673 2.11848e-19 0.944982)
(7.07645 6.49072e-19 1.26088)
(7.2374 -2.01812e-19 1.54853)
(7.39201 2.24293e-19 1.81257)
(7.55405 -1.53972e-18 2.05457)
(7.72681 1.48293e-18 2.27491)
(7.9098 0 2.47335)
(8.10123 0 2.64957)
(8.29902 0 2.80337)
(8.50095 -2.78213e-18 2.93462)
(8.70514 2.98698e-19 3.04338)
(8.90981 -2.23351e-18 3.12974)
(9.11249 -2.14578e-18 3.19423)
(9.31829 -1.97018e-18 3.23737)
(9.52176 -4.54139e-18 3.25749)
(9.72045 8.62659e-19 3.2553)
(9.91162 0 3.23094)
)
;
    }
}


// ************************************************************************* //
