/*--------------------------------*- C++ -*----------------------------------*\
| =========                 |                                                 |
| \\      /  F ield         | OpenFOAM: The Open Source CFD Toolbox           |
|  \\    /   O peration     | Version:  dev                                   |
|   \\  /    A nd           | Web:      www.OpenFOAM.org                      |
|    \\/     M anipulation  |                                                 |
\*---------------------------------------------------------------------------*/
FoamFile
{
    version     2.0;
    format      ascii;
    class       surfaceVectorField;
    location    "4.76";
    object      Uf;
}
// * * * * * * * * * * * * * * * * * * * * * * * * * * * * * * * * * * * * * //

dimensions      [0 1 -1 0 0 0 0];

internalField   nonuniform List<vector> 
882
(
(9.98964 -1.21447e-19 4.66489)
(10.1943 9.03845e-21 4.82566)
(10.2523 -1.69787e-20 4.57143)
(10.3489 5.08544e-19 5.23078)
(10.3981 1.59466e-19 4.95049)
(10.5798 8.35944e-20 5.34199)
(10.4574 1.36577e-19 4.70016)
(10.4937 2.85491e-19 4.45174)
(10.6309 -2.75834e-19 5.06634)
(10.6569 -3.05497e-19 4.79609)
(10.841 -1.33e-19 5.43883)
(10.8527 2.69433e-20 5.14637)
(11.0915 0 5.81162)
(11.0845 0 5.49769)
(11.3547 -2.56529e-21 5.84353)
(10.6952 -1.6662e-19 4.55127)
(10.7124 0 4.31057)
(10.8815 5.07417e-21 4.88021)
(10.8877 -3.90047e-20 4.62151)
(11.1 1.63341e-19 5.2098)
(11.092 2.90795e-19 4.93346)
(11.3528 -2.63348e-21 5.53447)
(11.3271 -9.16031e-22 5.24184)
(11.6409 -3.08403e-19 5.84768)
(11.5942 5.57334e-20 5.54103)
(11.9642 -3.53807e-19 6.14205)
(11.893 -3.58319e-19 5.8249)
(12.223 1.10781e-19 6.0867)
(10.9075 1.3099e-19 4.38401)
(10.9081 1.516e-20 4.15224)
(11.1016 2.54025e-19 4.67821)
(11.0911 1.15489e-19 4.43173)
(11.3234 1.22043e-19 4.96909)
(11.2994 -5.4017e-20 4.70875)
(11.5739 5.94053e-20 5.25184)
(11.5337 -1.65284e-22 4.97918)
(11.853 3.66187e-21 5.52109)
(11.7942 6.00988e-20 5.23836)
(12.1595 1.19659e-19 5.77119)
(12.0799 8.20531e-22 5.48135)
(12.4909 1.67303e-19 5.99632)
(12.3893 1.18401e-19 5.70313)
(12.8429 -5.13893e-20 6.19236)
(12.7154 1.4786e-19 5.89854)
(13.0968 -2.06222e-19 6.06669)
(13.2126 -4.85025e-19 6.33227)
(11.0947 -6.48745e-22 4.20268)
(11.081 7.42795e-20 3.98046)
(11.2927 -2.00458e-19 4.46504)
(11.2683 -1.58031e-20 4.23088)
(11.5142 -1.79128e-19 4.7215)
(11.4772 -1.2651e-19 4.47646)
(11.7594 9.01785e-22 4.96801)
(11.7078 1.14661e-19 4.71367)
(12.0275 5.69636e-20 5.20028)
(11.9596 0 4.93871)
(12.3168 1.02627e-22 5.41399)
(12.2313 -2.09338e-19 5.14773)
(12.6246 9.85223e-20 5.60491)
(12.5209 4.18705e-19 5.33704)
(12.9473 -5.23982e-21 5.76993)
(12.8226 1.90552e-19 5.50304)
(13.1697 -3.8561e-19 5.64507)
(13.2813 -4.8533e-20 5.88774)
(11.2579 5.86841e-20 4.01087)
(11.232 1.17139e-19 3.79841)
(11.4567 5.98572e-20 4.24442)
(11.4207 -1.11511e-19 4.02229)
(11.6753 1.75044e-19 4.4705)
(11.6278 2.29049e-19 4.23983)
(11.9133 1.13545e-19 4.68581)
(11.8528 6.1156e-20 4.4481)
(12.1694 -2.73356e-19 4.88695)
(12.0948 -1.5992e-19 4.64406)
(12.4418 2.21422e-19 5.0707)
(12.3524 -2.17217e-19 4.82478)
(12.728 5.11537e-19 5.23404)
(12.6234 4.33461e-19 4.98757)
(13.0248 -1.87697e-19 5.37478)
(12.9031 4.01175e-20 5.12991)
(13.2209 -2.07989e-19 5.25158)
(13.329 2.52246e-19 5.47561)
(11.3983 -5.75368e-20 3.81153)
(11.3621 -1.60778e-19 3.60872)
(11.5958 6.22829e-20 4.01921)
(11.5502 -3.26688e-21 3.80857)
(11.8097 1.11989e-19 4.21862)
(11.7537 2.25509e-19 4.00124)
(12.0393 -2.19499e-19 4.40708)
(11.9719 -2.70703e-19 4.18435)
(12.2833 -1.02608e-19 4.58198)
(12.2037 4.87977e-20 4.35552)
(12.5397 2.21135e-21 4.74093)
(12.4475 1.08459e-19 4.51253)
(12.8063 -5.14169e-20 4.88182)
(12.7014 -2.00048e-19 4.65345)
(13.0803 2.48818e-20 5.00315)
(12.9614 -1.56194e-20 4.77655)
(13.254 4.08678e-19 4.88195)
(13.359 1.61193e-20 5.09052)
(11.5175 -1.05076e-19 3.60698)
(11.4726 -6.56181e-20 3.41353)
(11.712 1.64164e-19 3.79157)
(11.6585 6.30493e-21 3.59174)
(11.9201 -1.67476e-19 3.96759)
(11.8573 5.3331e-20 3.76241)
(12.1409 4.84073e-21 4.13293)
(12.068 -2.19017e-19 3.92363)
(12.3729 2.65286e-19 4.28561)
(12.2895 -3.51556e-20 4.07358)
(12.6144 -9.94321e-20 4.42388)
(12.5203 6.06111e-20 4.2106)
(12.8633 -1.62337e-19 4.54626)
(12.7586 5.13469e-20 4.3333)
(13.1173 3.73707e-19 4.65177)
(13.001 3.25511e-20 4.44054)
(13.2718 2.08118e-19 4.53266)
(13.3742 -6.17665e-19 4.72821)
(11.617 4.85985e-20 3.39907)
(11.565 1.0971e-19 3.21457)
(11.8075 -1.07126e-19 3.56308)
(11.7476 -1.6096e-19 3.37333)
(12.0092 0 3.7186)
(11.9409 0 3.52455)
(12.2209 -2.59554e-19 3.86397)
(12.1438 0 3.6667)
(12.4414 -2.4452e-19 3.99771)
(12.3553 -2.59017e-19 3.79839)
(12.6691 2.15066e-19 4.11855)
(12.5738 -1.61379e-19 3.91841)
(12.9022 2.51422e-19 4.22548)
(12.7979 4.04633e-19 4.02578)
(13.1387 -1.41788e-19 4.31787)
(13.0247 2.58793e-20 4.11973)
(13.2764 -1.89565e-19 4.20078)
(13.3767 3.16721e-19 4.38523)
(11.6988 -1.05306e-19 3.18923)
(11.6407 -1.04494e-19 3.01322)
(11.8844 -5.09644e-20 3.3349)
(11.8193 4.72156e-20 3.15453)
(12.0792 0 3.4724)
(12.0066 0 3.2885)
(12.2821 0 3.60044)
(12.2017 -4.89559e-20 3.41396)
(12.4917 -1.73528e-19 3.71792)
(12.4035 1.91675e-19 3.52985)
(12.7067 3.42602e-20 3.82394)
(12.6107 -3.92911e-19 3.63528)
(12.9255 1.72753e-19 3.9178)
(12.8219 3.89337e-19 3.72959)
(13.1466 -2.37631e-20 3.99914)
(13.0348 -3.10232e-20 3.81227)
(13.2699 -7.46237e-21 3.88393)
(13.3683 0 4.05882)
(11.5922 -1.84117e-21 2.84264)
(11.5355 5.04836e-20 2.67904)
(11.7643 5.19676e-20 2.97857)
(11.7015 -5.14536e-20 2.81057)
(11.9447 9.93875e-20 3.10787)
(11.8754 -1.37254e-19 2.93617)
(12.1325 -5.02295e-20 3.22947)
(12.0566 1.94707e-19 3.05482)
(12.3267 1.47815e-19 3.34238)
(12.244 -2.19613e-21 3.16559)
(12.5261 -3.42734e-20 3.44579)
(12.4366 1.96327e-19 3.2677)
(12.7295 -2.75093e-20 3.53905)
(12.6332 -3.98433e-20 3.3605)
(12.9356 1.79452e-19 3.62173)
(12.8328 2.08819e-19 3.44355)
(13.1429 -1.01906e-20 3.69361)
(13.0332 -3.747e-19 3.51653)
(13.2536 1.77221e-19 3.58008)
(13.3502 -1.6008e-20 3.74667)
(11.6475 -5.16289e-22 2.64696)
(11.5864 -1.42495e-19 2.4903)
(11.8155 -2.45455e-19 2.76792)
(11.7488 -1.85717e-19 2.60744)
(11.9903 -3.91221e-20 2.88257)
(11.9179 1.29824e-19 2.71889)
(12.1712 2.43609e-19 2.99007)
(12.0928 1.94903e-19 2.82385)
(12.3571 4.7896e-20 3.08968)
(12.2727 -3.23057e-19 2.92162)
(12.547 1.90077e-19 3.1808)
(12.4566 1.87535e-19 3.01161)
(12.7397 2.02677e-19 3.26299)
(12.6436 3.70872e-19 3.09337)
(12.9342 -3.60432e-19 3.33596)
(12.8325 -3.69348e-19 3.1666)
(13.1294 -1.80927e-19 3.39961)
(13.0217 -1.937e-19 3.23112)
(13.2291 1.78203e-19 3.28757)
(13.3241 1.23109e-19 3.44688)
(11.6903 -3.32326e-19 2.45049)
(11.6257 3.48244e-20 2.30041)
(11.8539 1.99186e-19 2.55788)
(11.7843 -3.29008e-19 2.40441)
(12.0231 3.6968e-19 2.65936)
(11.9483 3.84109e-19 2.50307)
(12.1972 -3.86453e-19 2.7543)
(12.1171 -4.66234e-21 2.59577)
(12.3752 -1.7914e-19 2.84213)
(12.2898 -3.81307e-19 2.68196)
(12.5562 3.73066e-19 2.92242)
(12.4657 3.70273e-19 2.76121)
(12.7393 -2.16518e-19 2.99488)
(12.6437 -1.73389e-19 2.83322)
(12.9234 -1.9833e-19 3.05933)
(12.823 -2.1589e-19 2.89779)
(13.1076 1.71305e-19 3.11574)
(13.0021 1.87691e-19 2.95482)
(13.1979 1.60955e-19 3.00496)
(13.2911 -7.44903e-21 3.15786)
(11.7222 3.77502e-20 2.2538)
(11.655 -1.68728e-19 2.10991)
(11.8812 -1.38544e-19 2.34884)
(11.8095 1.42898e-20 2.20191)
(12.0449 0 2.43845)
(11.9685 2.20719e-20 2.28897)
(12.2124 0 2.52212)
(12.1313 -1.74956e-19 2.3706)
(12.383 1.82789e-19 2.59945)
(12.2973 1.78648e-19 2.4464)
(12.5558 -1.90455e-19 2.67012)
(12.4655 2.04496e-19 2.51606)
(12.7299 -1.72871e-19 2.73393)
(12.6353 -1.9466e-19 2.57937)
(12.9047 1.80465e-19 2.79081)
(12.8058 8.49459e-21 2.63622)
(13.0791 1.77001e-19 2.84076)
(12.9759 1.08376e-20 2.68656)
(13.1614 1.79945e-20 2.731)
(13.2526 -6.96695e-19 2.87825)
(11.7446 -1.9255e-19 2.05727)
(11.6756 -3.62203e-19 1.9192)
(11.8991 1.78848e-19 2.14106)
(11.8259 1.17252e-19 2.00018)
(12.0573 -1.57461e-19 2.21989)
(11.98 1.02096e-21 2.07666)
(12.2186 8.60483e-21 2.2934)
(12.1371 -3.2818e-19 2.14825)
(12.3822 2.00935e-19 2.36128)
(12.2967 3.57055e-19 2.21467)
(12.5474 1.99536e-19 2.42332)
(12.4579 2.24422e-20 2.27569)
(12.7135 -8.49196e-21 2.47939)
(12.6202 1.77358e-19 2.33117)
(12.8797 -1.65319e-19 2.52946)
(12.7828 -1.81051e-19 2.38106)
(13.0454 -1.5206e-19 2.57357)
(12.9447 1.78737e-19 2.42534)
(13.1209 -3.33793e-19 2.4646)
(13.2099 -9.78788e-20 2.60684)
(11.759 -4.41501e-20 1.86116)
(11.6887 1.68312e-19 1.72852)
(11.909 -6.51433e-20 1.93461)
(11.835 -4.39817e-20 1.79935)
(12.062 -1.74361e-19 2.00362)
(11.9843 1.22884e-19 1.86611)
(12.2174 2.98376e-20 2.0679)
(12.1361 -3.43092e-19 1.92854)
(12.3746 1.73698e-19 2.12722)
(12.2897 1.23961e-20 1.98642)
(12.5329 -7.48524e-23 2.18145)
(12.4445 1.48369e-19 2.03959)
(12.6916 0 2.23052)
(12.5999 1.65319e-19 2.08796)
(12.8501 1.71999e-19 2.2744)
(12.7554 -1.68777e-19 2.13151)
(13.0079 -5.58855e-21 2.31319)
(12.9099 1.61396e-19 2.17027)
(13.0779 -1.22852e-20 2.20475)
(13.1644 -1.07831e-19 2.34256)
(11.7667 1.68235e-19 1.66558)
(11.6958 1.17548e-20 1.53798)
(11.9124 1.48926e-19 1.72951)
(11.8381 1.84765e-19 1.59938)
(12.0605 -5.06305e-20 1.7895)
(11.9829 1.69073e-19 1.65719)
(12.2104 -3.60504e-19 1.84532)
(12.1297 -2.15629e-19 1.71119)
(12.3617 -1.33825e-20 1.89683)
(12.2778 -1.49632e-19 1.76123)
(12.5136 3.17884e-19 1.94394)
(12.4268 3.13864e-19 1.8072)
(12.6657 -8.08117e-21 1.98659)
(12.576 4.29136e-21 1.84905)
(12.8173 -1.79236e-19 2.02482)
(12.725 -1.72979e-19 1.88678)
(12.968 1.57098e-19 2.0587)
(12.873 -1.065e-20 1.92044)
(13.0336 3.27189e-19 1.95049)
(13.1174 1.01935e-19 2.08446)
(11.7691 2.89044e-20 1.47045)
(11.698 -1.64757e-19 1.34755)
(11.9106 2.05412e-19 1.52554)
(11.8366 1.69496e-19 1.40016)
(12.0541 -4.95128e-22 1.57718)
(11.9772 4.07848e-20 1.44963)
(12.1991 5.7557e-22 1.62521)
(12.1194 -9.6119e-22 1.49582)
(12.3449 1.86333e-19 1.66952)
(12.2625 9.59957e-22 1.5386)
(12.4911 -7.91846e-21 1.71005)
(12.4062 7.90898e-21 1.57791)
(12.6372 -1.64959e-19 1.7468)
(12.5499 -8.06975e-21 1.61372)
(12.7827 0 1.77979)
(12.6931 0 1.64605)
(12.9272 1.64166e-19 1.8091)
(12.8353 -1.57359e-19 1.67494)
(12.9894 4.81346e-19 1.70083)
(13.0702 9.43144e-20 1.83147)
(11.7673 -2.02765e-20 1.27581)
(11.6964 -2.60874e-21 1.1571)
(11.905 6.03713e-22 1.32263)
(11.8315 -1.565e-19 1.20144)
(12.0443 4.02684e-20 1.36648)
(11.9683 9.4128e-22 1.2431)
(12.1846 -5.63317e-22 1.40725)
(12.1063 2.04458e-20 1.28196)
(12.3256 -1.81933e-19 1.44486)
(12.245 -2.04675e-20 1.31796)
(12.4667 7.72428e-21 1.47929)
(12.384 -7.75123e-21 1.35105)
(12.6075 1.61043e-19 1.51053)
(12.5228 7.91088e-21 1.38121)
(12.7475 -1.61465e-19 1.53861)
(12.661 1.54074e-19 1.40847)
(12.8865 1.66275e-19 1.56363)
(12.798 -3.18622e-19 1.43288)
(12.9464 3.20535e-19 1.45482)
(13.024 -1.64927e-19 1.58279)
(11.7624 -1.42416e-19 1.08104)
(11.6921 -2.67457e-21 0.966394)
(11.8967 -1.55995e-19 1.12005)
(11.8241 1.85779e-20 1.00288)
(12.0322 -1.93652e-20 1.15657)
(11.9575 -1.72004e-19 1.03714)
(12.1684 0 1.19052)
(12.0918 0 1.06909)
(12.3051 1.58119e-19 1.22184)
(12.2265 -1.40703e-19 1.09869)
(12.4417 -7.53538e-21 1.25051)
(12.3614 3.01882e-19 1.12589)
(12.5778 8.90459e-22 1.27656)
(12.4958 -3.11863e-19 1.15071)
(12.7131 -7.50927e-21 1.30001)
(12.6296 3.11678e-19 1.17316)
(12.8472 -1.6212e-19 1.32092)
(12.7622 -1.66044e-19 1.19329)
(12.9056 1.49882e-19 1.21143)
(12.9798 -4.03494e-22 1.33699)
(11.7556 1.62416e-19 0.886571)
(11.6862 -7.22012e-20 0.775076)
(11.8867 1.98234e-21 0.918155)
(11.8155 2.26909e-19 0.804042)
(12.0188 -1.51996e-19 0.947706)
(11.9458 -1.56003e-19 0.831228)
(12.1515 -1.44395e-19 0.97517)
(12.0768 0 0.856577)
(12.2844 7.09161e-21 1.00052)
(12.2082 -1.62785e-19 0.880054)
(12.4171 -1.06923e-20 1.02374)
(12.3395 1.61469e-19 0.901643)
(12.5492 7.33251e-21 1.04485)
(12.4703 -2.76726e-21 0.921351)
(12.6803 1.48704e-19 1.06388)
(12.6003 -1.39512e-19 0.939201)
(12.8103 1.54206e-19 1.0809)
(12.7291 1.54575e-19 0.955233)
(12.8683 3.03302e-19 0.969719)
(12.9387 -2.54817e-19 1.09401)
(11.7478 -5.80887e-21 0.690405)
(11.6796 -6.51855e-20 0.582699)
(11.8762 6.45747e-20 0.714834)
(11.8064 5.73743e-20 0.604378)
(12.0055 0 0.737679)
(11.9342 -7.1006e-20 0.624718)
(12.1351 -1.89776e-20 0.758905)
(12.0625 7.70376e-20 0.643682)
(12.2648 -4.21134e-21 0.778491)
(12.191 -9.95188e-21 0.661245)
(12.3942 1.69483e-19 0.796437)
(12.3192 9.74116e-21 0.6774)
(12.5229 -1.53463e-19 0.812756)
(12.447 1.50987e-19 0.692151)
(12.6506 -1.33293e-19 0.827476)
(12.5739 -3.0481e-19 0.705517)
(12.7771 3.07619e-19 0.840641)
(12.6996 1.59036e-19 0.717523)
(12.8353 2.24481e-19 0.728366)
(12.9021 -5.99026e-19 0.850795)
(11.7398 -2.88707e-22 0.494934)
(11.673 4.30302e-22 0.38874)
(11.866 -8.17867e-20 0.512419)
(11.7978 -4.32159e-22 0.403281)
(11.9928 8.1186e-21 0.528776)
(11.9235 -7.28448e-20 0.416921)
(12.1199 8.62529e-20 0.543984)
(12.0495 7.46452e-20 0.429636)
(12.2469 4.37655e-21 0.558029)
(12.1757 7.89615e-20 0.441415)
(12.3735 -9.16913e-21 0.570913)
(12.3016 -7.58338e-20 0.452253)
(12.4994 -4.52755e-21 0.582648)
(12.4269 -4.64784e-21 0.46216)
(12.6243 -4.65746e-21 0.593254)
(12.5513 0 0.471151)
(12.7479 7.37704e-20 0.602765)
(12.6745 -4.65615e-21 0.479252)
(12.8075 7.10638e-21 0.486619)
(12.87 -1.21705e-19 0.610122)
(11.7326 2.81613e-22 0.294205)
(11.5727 -2.59206e-20 0.192668)
(11.8569 8.69312e-21 0.30474)
(11.6942 8.92204e-21 0.20011)
(11.9818 -4.50203e-21 0.31458)
(11.8165 1.69381e-20 0.207088)
(12.1069 6.71718e-20 0.323714)
(11.9393 -2.18055e-20 0.213589)
(12.2319 -3.41441e-21 0.332138)
(12.0623 7.15094e-20 0.219609)
(12.3564 -7.11681e-20 0.339857)
(12.185 -7.30413e-20 0.225147)
(12.4802 0 0.346882)
(12.3073 0 0.230206)
(12.603 0 0.353231)
(12.4287 0 0.234796)
(12.7245 -7.30629e-20 0.358935)
(12.549 1.71868e-20 0.238928)
(12.6788 -9.16506e-20 0.242689)
(12.8445 1.21109e-19 0.363318)
(11.5335 -1.70316e-20 0.0972772)
(11.6529 1.7384e-20 0.101136)
(11.7731 -8.37151e-22 0.104749)
(11.8937 -1.7295e-20 0.108111)
(12.0144 0 0.111219)
(12.1347 0 0.114071)
(12.2545 0 0.116671)
(12.3734 1.76388e-20 0.119021)
(12.4912 -1.73667e-21 0.121134)
(12.6076 -1.24002e-20 0.122723)
(13.3122 -3.00253e-19 6.13523)
(13.4493 4.06465e-20 5.93454)
(13.3643 3.38259e-19 5.70346)
(13.6187 6.82857e-22 5.98177)
(13.5486 -6.23066e-19 5.75222)
(13.704 5.62402e-19 5.79321)
(13.79 1.17899e-19 6.02334)
(13.4813 -3.37758e-19 5.51618)
(13.398 3.04103e-19 5.30208)
(13.6346 -6.10032e-20 5.55754)
(13.5655 -6.38115e-19 5.34474)
(13.7067 5.93963e-19 5.38103)
(13.7896 6.38561e-19 5.5958)
(13.4982 0 5.1261)
(13.4163 -6.41935e-19 4.92614)
(13.6381 1.88155e-20 5.16271)
(13.5697 3.16418e-19 4.96388)
(13.699 1.90289e-20 4.99629)
(13.7793 3.92332e-20 5.19752)
(13.5022 -3.23025e-19 4.75969)
(13.4215 -3.34491e-19 4.57166)
(13.6308 3.20089e-19 4.79238)
(13.5628 3.14344e-19 4.60528)
(13.682 -9.48811e-21 4.63443)
(13.7604 -1.37785e-20 4.82403)
(13.4952 3.15944e-19 4.41328)
(13.4152 3.30704e-19 4.23541)
(13.614 -1.94617e-20 4.44263)
(13.5462 -4.18379e-22 4.26553)
(13.6568 2.96742e-19 4.29184)
(13.7337 -1.28665e-20 4.47144)
(13.4784 9.69259e-21 4.08391)
(13.3992 -7.24954e-21 3.9148)
(13.5888 3.19955e-19 4.11035)
(13.5212 -3.03222e-19 3.94186)
(13.6242 3.0455e-19 3.96567)
(13.7001 3.04304e-19 4.13661)
(13.4531 -3.2735e-19 3.76917)
(13.3746 -7.42558e-21 3.60767)
(13.5563 -3.26168e-19 3.79303)
(13.4887 -3.15956e-19 3.63202)
(13.5852 -4.04819e-22 3.65358)
(13.6601 1.03581e-19 3.81697)
(13.4205 4.75152e-21 3.46708)
(13.3428 0 3.31224)
(13.5173 1.4022e-20 3.48862)
(13.45 2.99325e-19 3.33415)
(13.5407 -2.84697e-19 3.35366)
(13.6146 5.59132e-21 3.51042)
(13.3819 2.98745e-19 3.17599)
(13.3051 -5.96575e-19 3.027)
(13.473 1.98398e-22 3.19541)
(13.4062 8.92482e-19 3.04669)
(13.4917 -3.05605e-19 3.06429)
(13.5645 -2.9835e-19 3.21521)
(13.3384 -1.7456e-21 2.89448)
(13.2627 -6.06119e-19 2.75065)
(13.4244 5.93356e-19 2.91194)
(13.3584 8.91681e-19 2.76828)
(13.4394 -4.41563e-21 2.78411)
(13.5109 -1.78345e-22 2.92986)
(13.2913 2.97347e-19 2.62132)
(13.2171 9.72669e-21 2.48204)
(13.3728 2.89807e-19 2.63695)
(13.3079 2.93489e-19 2.49775)
(13.3848 2.77534e-19 2.51191)
(13.4548 0 2.65308)
(13.2418 4.55855e-21 2.35541)
(13.1694 2.39059e-22 2.22014)
(13.3193 2.81107e-19 2.36931)
(13.2559 -5.59663e-19 2.23405)
(13.3291 5.60869e-19 2.24661)
(13.3972 2.72402e-19 2.38372)
(13.1912 -5.73391e-19 2.09578)
(13.1211 -1.29325e-20 1.96395)
(13.2651 -2.86272e-19 2.10805)
(13.2037 -8.47045e-19 1.97616)
(13.2736 2.83341e-19 1.98721)
(13.3394 3.72195e-19 2.12083)
(13.1408 -2.87168e-19 1.84133)
(13.0732 -2.84857e-19 1.71247)
(13.2116 -2.76678e-19 1.85205)
(13.1524 -1.37237e-20 1.72305)
(13.2195 -2.64351e-19 1.73265)
(13.2827 -9.38948e-20 1.86325)
(13.0917 -9.11643e-21 1.59125)
(13.027 -2.81076e-19 1.46468)
(13.1598 1.89341e-21 1.60047)
(13.1032 5.32529e-19 1.47369)
(13.1679 -7.94607e-19 1.48187)
(13.2281 -3.62202e-19 1.61013)
(13.0452 2.64919e-19 1.34411)
(12.9835 -2.60609e-19 1.21965)
(13.1108 -2.68217e-19 1.35186)
(13.0572 2.67847e-19 1.22713)
(13.1196 -2.81735e-19 1.23394)
(13.1766 -5.17564e-19 1.36001)
(13.002 -2.63788e-19 1.09983)
(12.9439 -7.8015e-19 0.976193)
(13.0656 2.60619e-19 1.10618)
(13.0154 2.56663e-19 0.982163)
(13.076 2.60713e-19 0.987583)
(13.1294 2.51411e-19 1.11285)
(12.9637 -2.57509e-19 0.855295)
(12.909 -6.5048e-19 0.733418)
(13.0254 2.56705e-19 0.860199)
(12.9786 2.60232e-19 0.737909)
(13.0378 -1.00044e-21 0.742008)
(13.0874 -1.32302e-21 0.86537)
(12.9302 -1.29106e-19 0.613383)
(12.8796 -6.26744e-21 0.489708)
(12.9906 -9.7474e-22 0.616929)
(12.9479 -9.87137e-22 0.492686)
(13.0058 9.30189e-22 0.49535)
(13.0513 -7.1679e-22 0.620662)
(12.9035 1.25161e-19 0.365198)
(12.7493 1.26861e-19 0.244632)
(12.9628 9.42474e-22 0.367208)
(12.8159 -2.94005e-20 0.246028)
(12.8725 3.0354e-20 0.247338)
(13.0223 4.59363e-20 0.369339)
(12.665 -2.98043e-20 0.123365)
(12.7226 4.69697e-23 0.124042)
(12.7804 5.11701e-20 0.1248)
(13.9861 -1.00192e-20 5.85398)
(14.1068 -1.9294e-19 5.65219)
(13.9631 -1.72505e-19 5.43838)
(14.4255 -1.65998e-20 5.67162)
(14.2382 -1.95865e-20 5.47481)
(14.735 -1.6892e-20 5.65611)
(14.543 1.19097e-19 5.48351)
(14.8458 -1.02191e-20 5.4608)
(14.0693 1.82162e-21 5.25264)
(13.9335 8.39383e-22 5.04925)
(14.3646 1.16477e-19 5.27973)
(14.1863 -7.6851e-22 5.08706)
(14.659 1.26599e-19 5.2816)
(14.4704 1.39374e-19 5.10483)
(14.9458 -2.04366e-20 5.25693)
(14.7594 -1.04703e-20 5.09941)
(15.2186 -1.19659e-19 5.20619)
(15.0382 1.0683e-19 5.07028)
(15.3022 -2.26972e-19 5.01821)
(14.0267 -1.80012e-21 4.87615)
(13.898 -2.11142e-20 4.68308)
(14.2997 1.96278e-20 4.90582)
(14.1311 -1.43702e-19 4.72003)
(14.5752 0 4.91638)
(14.3946 1.5055e-19 4.74172)
(14.8493 1.17062e-19 4.90671)
(14.6663 1.39798e-19 4.74557)
(15.1176 4.39928e-21 4.87693)
(14.9335 -9.18061e-21 4.73101)
(15.3759 -1.18784e-19 4.82762)
(15.1933 -1.18402e-19 4.69839)
(15.62 -8.36181e-20 4.7598)
(15.4439 -1.75033e-21 4.64839)
(15.6826 -8.37683e-20 4.582)
(13.9798 -1.63761e-19 4.52014)
(13.8569 -1.70506e-19 4.33649)
(14.2326 -1.37689e-20 4.55017)
(14.0729 -3.11833e-19 4.37176)
(14.4895 2.94011e-19 4.56509)
(14.3177 3.14894e-19 4.39495)
(14.7479 1.34445e-20 4.56402)
(14.5719 -7.38506e-21 4.4039)
(15.0049 -1.32523e-19 4.54697)
(14.8246 1.22558e-19 4.39809)
(15.2576 -1.03355e-21 4.51425)
(15.0741 -1.21312e-19 4.37768)
(15.5031 -9.95284e-23 4.46641)
(15.3194 3.28861e-21 4.34309)
(15.7388 5.2439e-21 4.4043)
(15.5585 -9.63536e-20 4.29491)
(15.7891 1.88175e-19 4.234)
(13.9286 -3.19094e-19 4.18186)
(13.8106 -5.65195e-22 4.00661)
(14.1637 1.53786e-20 4.21126)
(14.0117 -3.18362e-19 4.03992)
(14.4035 1.31944e-20 4.22837)
(14.2399 1.55423e-19 4.06341)
(14.6461 1.01537e-19 4.23245)
(14.4779 -2.84989e-19 4.07525)
(14.8896 1.39512e-19 4.22345)
(14.7161 3.97238e-19 4.07492)
(15.132 -1.19642e-19 4.20154)
(14.9531 -2.39866e-19 4.06251)
(15.3712 -9.31609e-20 4.16708)
(15.1888 2.2578e-19 4.03829)
(15.6053 8.48931e-20 4.12062)
(15.4218 -2.0795e-19 4.00267)
(15.6503 1.8738e-19 3.95618)
(13.8734 1.11699e-20 3.85888)
(13.7596 1.68099e-19 3.69108)
(14.093 -1.83285e-19 3.88717)
(13.9477 -1.54906e-19 3.7223)
(14.3174 -1.40397e-19 3.90529)
(14.1613 -9.37623e-21 3.74544)
(14.5454 3.40646e-21 3.91256)
(14.3847 -1.29642e-19 3.75889)
(14.7754 2.26499e-20 3.90891)
(14.6092 2.6047e-19 3.76217)
(15.0061 1.03822e-19 3.89442)
(14.8337 -2.43771e-19 3.75528)
(15.2358 1.17681e-19 3.86932)
(15.0585 2.24308e-19 3.73842)
(15.4632 -1.11624e-19 3.83401)
(15.2826 -6.74114e-21 3.71181)
(15.5047 -5.84024e-21 3.67582)
(13.8146 9.15141e-21 3.54908)
(13.7046 1.40446e-19 3.38791)
(14.0206 2.0038e-20 3.57599)
(13.8812 -1.47657e-19 3.41699)
(14.2314 4.29659e-21 3.59437)
(14.0819 -4.63392e-21 3.43936)
(14.4461 1.25344e-19 3.60366)
(14.2923 4.39214e-21 3.45363)
(14.6635 -1.24117e-21 3.60373)
(14.5042 1.25669e-19 3.45932)
(14.8825 -1.30674e-19 3.59461)
(14.717 -2.4676e-19 3.45641)
(15.1019 1.01835e-19 3.57643)
(14.931 3.84194e-21 3.44498)
(15.3206 1.01582e-19 3.54939)
(15.1455 2.13679e-19 3.42514)
(15.3595 3.04395e-22 3.39716)
(13.7528 -1.03493e-20 3.25072)
(13.6463 1.60366e-19 3.09549)
(13.9467 -1.7613e-19 3.27605)
(13.8128 -1.66829e-19 3.12239)
(14.1454 -4.73764e-21 3.29423)
(14.0021 -1.49009e-19 3.14373)
(14.3481 2.01558e-21 3.30472)
(14.2007 0 3.15826)
(14.5539 -1.17535e-19 3.30742)
(14.4013 2.0607e-21 3.16553)
(14.7619 -1.14498e-19 3.30229)
(14.6032 -2.40494e-21 3.16548)
(14.9712 1.13849e-19 3.28936)
(14.807 2.3069e-21 3.15813)
(15.1809 1.14571e-19 3.26875)
(15.0122 1.81285e-21 3.14354)
(15.2177 2.71233e-22 3.12188)
(13.6887 1.39442e-20 2.96232)
(13.5857 5.82606e-21 2.81238)
(13.8719 -1.40744e-19 2.98597)
(13.7432 1.45768e-19 2.8371)
(14.0598 -1.47516e-19 3.00359)
(13.9223 -2.95068e-19 2.85723)
(14.2517 0 3.01472)
(14.1105 0 2.87162)
(14.4469 1.20142e-19 3.01922)
(14.3008 0 2.87986)
(14.6449 1.17212e-19 3.01703)
(14.4929 2.65926e-21 2.88184)
(14.8447 -1.12502e-19 3.00812)
(14.6872 -2.27517e-21 2.87755)
(15.0456 -1.15299e-19 2.99261)
(14.8834 1.06242e-19 2.86705)
(15.0808 -1.09724e-19 2.85047)
(13.6233 1.40883e-19 2.68257)
(13.5237 -1.59012e-19 2.53735)
(13.7969 -4.93123e-21 2.70444)
(13.6732 1.44108e-19 2.55989)
(13.9752 -1.50566e-19 2.72127)
(13.8432 -1.50887e-19 2.57864)
(14.1574 0 2.73261)
(14.0221 0 2.59259)
(14.3432 -1.20456e-19 2.7383)
(14.2033 1.25184e-19 2.60132)
(14.5319 -1.19706e-19 2.73824)
(14.3865 -1.27398e-19 2.60469)
(14.7228 2.19477e-19 2.73244)
(14.5721 -1.13679e-19 2.60271)
(14.9154 1.16753e-19 2.72097)
(14.76 2.21025e-19 2.59543)
(14.9496 -7.14935e-21 2.58294)
(13.5574 -1.62665e-19 2.41029)
(13.4614 -1.67809e-19 2.26932)
(13.7226 0 2.4303)
(13.6038 1.50801e-19 2.28966)
(13.8922 0 2.44611)
(13.7657 -2.82463e-19 2.30687)
(14.0658 1.25457e-19 2.4573)
(13.9362 2.32002e-21 2.32008)
(14.2431 1.23871e-19 2.46369)
(14.1092 3.84422e-19 2.3289)
(14.4234 -1.21522e-19 2.46519)
(14.2844 -1.28027e-19 2.3332)
(14.6062 -1.19585e-19 2.4618)
(14.4621 -1.16313e-19 2.33297)
(14.7911 9.90932e-20 2.45355)
(14.6425 0 2.32823)
(14.8249 1.01326e-19 2.319)
(13.4923 1.46135e-19 2.14452)
(13.4001 -1.45773e-19 2.00729)
(13.6498 -1.29811e-19 2.16259)
(13.5361 2.97429e-19 2.0254)
(13.8116 -2.85705e-19 2.17714)
(13.6907 -2.89532e-19 2.04094)
(13.9776 2.59194e-19 2.18783)
(13.8538 1.34811e-19 2.05313)
(14.1471 1.38057e-19 2.19452)
(14.0195 1.04206e-20 2.0617)
(14.3199 -1.22936e-19 2.19713)
(14.1874 -4.47396e-21 2.06654)
(14.4954 3.63794e-21 2.19559)
(14.358 1.89111e-21 2.06757)
(14.6732 0 2.18991)
(14.5315 0 2.06477)
(14.7074 0 2.05813)
(13.429 -3.31741e-21 1.88412)
(13.3409 -1.49007e-19 1.75014)
(13.5798 1.46151e-19 1.9002)
(13.4713 1.44207e-19 1.76606)
(13.7348 1.32709e-19 1.91334)
(13.6195 2.14479e-21 1.77986)
(13.8938 -1.17338e-19 1.92328)
(13.7759 1.35764e-19 1.7909)
(14.0564 -1.35364e-19 1.92993)
(13.9351 -3.80338e-19 1.79895)
(14.2224 1.23354e-19 1.93319)
(14.0964 2.46147e-19 1.80393)
(14.3913 -1.79307e-21 1.93299)
(14.2607 1.07926e-19 1.80575)
(14.5628 0 1.92928)
(14.428 -2.1138e-19 1.80436)
(14.5979 1.01775e-19 1.79977)
(13.3687 -7.00759e-21 1.62822)
(13.2847 2.87876e-19 1.49685)
(13.5135 -1.4548e-22 1.6423)
(13.4102 -1.42176e-19 1.51056)
(13.6625 2.19436e-21 1.65397)
(13.5529 1.30709e-19 1.5226)
(13.8154 -1.22145e-19 1.66301)
(13.7035 -4.72608e-21 1.53239)
(13.9719 -3.74359e-21 1.66934)
(13.8568 -2.49256e-19 1.53973)
(14.1318 2.33491e-19 1.67288)
(14.0125 1.22896e-19 1.54453)
(14.2948 -9.97076e-20 1.67353)
(14.1712 1.12506e-19 1.54674)
(14.4605 -1.14134e-19 1.67129)
(14.333 -2.16742e-19 1.54632)
(14.4975 1.04357e-19 1.54328)
(13.3122 1.61431e-19 1.37534)
(13.2326 1.55302e-19 1.2464)
(13.4519 -1.4355e-20 1.38737)
(13.3539 -7.14711e-21 1.2579)
(13.5956 1.26012e-19 1.39747)
(13.4917 1.72117e-22 1.26809)
(13.7432 -1.29544e-19 1.40545)
(13.6373 -3.864e-21 1.27649)
(13.8944 -1.2807e-19 1.41122)
(13.7857 -9.13104e-21 1.28293)
(14.049 -9.24795e-22 1.41471)
(13.9365 -2.2953e-19 1.28734)
(14.2068 0 1.41586)
(14.0902 1.10403e-19 1.28965)
(14.3674 0 1.41466)
(14.2472 0 1.28985)
(14.4071 -3.05608e-21 1.28795)
(13.2607 -1.16017e-20 1.12546)
(13.1857 -1.48511e-19 0.997642)
(13.396 6.81767e-21 1.13544)
(13.3034 1.38734e-19 1.00693)
(13.5352 -1.33703e-19 1.14389)
(13.4371 -1.36006e-19 1.01522)
(13.6782 1.19606e-19 1.15067)
(13.5785 1.00769e-21 1.02213)
(13.8249 -1.07989e-19 1.1557)
(13.7227 2.37551e-19 1.02751)
(13.975 -1.23255e-19 1.15893)
(13.8693 -4.58136e-19 1.03131)
(14.1282 1.12948e-19 1.16032)
(14.0189 2.21722e-19 1.0335)
(14.2845 -3.06394e-21 1.15984)
(14.1718 9.79589e-20 1.03405)
(14.3276 -6.69947e-21 1.03296)
(13.2152 -1.0587e-21 0.875203)
(13.1447 -1.07318e-21 0.74944)
(13.3468 -2.09575e-21 0.883051)
(13.2595 -5.3085e-23 0.756491)
(13.4823 -1.03607e-21 0.889751)
(13.3899 6.25032e-20 0.76282)
(13.6215 1.16456e-19 0.895173)
(13.5278 -6.15955e-20 0.768142)
(13.7644 -1.05234e-19 0.899273)
(13.6685 6.21253e-20 0.772338)
(13.9106 -1.20144e-19 0.902013)
(13.8117 -1.74436e-19 0.775375)
(14.0601 2.09212e-19 0.903358)
(13.9579 1.11294e-19 0.777232)
(14.2126 9.66139e-20 0.903288)
(14.1073 5.3155e-20 0.77789)
(14.2599 9.35336e-20 0.777337)
(13.1762 -6.42883e-23 0.627786)
(13.1106 6.59043e-20 0.500526)
(13.3049 6.4749e-20 0.633531)
(13.2231 -6.41545e-20 0.505267)
(13.4374 2.97496e-21 0.638475)
(13.3508 6.54517e-20 0.509608)
(13.5735 -1.20259e-19 0.642517)
(13.486 -6.29794e-20 0.513265)
(13.7133 -3.28524e-21 0.645631)
(13.624 -5.85106e-20 0.51616)
(13.8565 5.63105e-20 0.647794)
(13.7644 3.37573e-21 0.518287)
(14.0029 -4.74713e-20 0.648986)
(13.9079 5.20951e-20 0.519641)
(14.1525 4.90383e-20 0.649186)
(14.0547 -4.85824e-20 0.520214)
(14.2046 5.43828e-20 0.519979)
(13.145 4.10237e-21 0.373526)
(12.9748 8.55633e-20 0.24949)
(13.2714 -6.65282e-20 0.376993)
(13.0846 -8.29053e-20 0.252112)
(13.4015 4.79625e-22 0.379967)
(13.2093 1.22186e-23 0.254367)
(13.5353 2.918e-22 0.382376)
(13.3414 2.37167e-22 0.256225)
(13.6727 -5.31747e-20 0.384216)
(13.4763 1.10346e-22 0.257703)
(13.8135 -2.11915e-21 0.385486)
(13.6136 -5.44755e-20 0.258795)
(13.9576 5.3319e-20 0.386181)
(13.7539 5.34554e-20 0.259499)
(14.1049 -4.54932e-20 0.386286)
(13.8975 0 0.25981)
(14.0444 -3.54055e-20 0.259708)
(12.8994 1.39864e-21 0.126393)
(13.022 -1.66036e-20 0.127771)
(13.1485 -2.42772e-22 0.128966)
(13.2785 5.42485e-23 0.129949)
(13.412 5.53897e-23 0.130724)
(13.5489 0 0.131295)
(13.689 0 0.13166)
(13.8323 1.11691e-20 0.131812)
)
;

boundaryField
{
    inlet
    {
        type            calculated;
        value           nonuniform 0();
    }
    outlet
    {
        type            calculated;
        value           nonuniform 0();
    }
    flap
    {
        type            calculated;
        value           nonuniform 0();
    }
    upperWall
    {
        type            calculated;
        value           uniform (0 0 0);
    }
    lowerWall
    {
        type            calculated;
        value           nonuniform 0();
    }
    frontAndBack
    {
        type            empty;
        value           nonuniform 0();
    }
    procBoundary1to0
    {
        type            processor;
        value           nonuniform List<vector> 
18
(
(11.4385 1.62931e-19 3.22828)
(11.523 -1.56427e-19 3.03675)
(11.4717 -5.49655e-20 2.86587)
(11.429 1.01295e-19 2.70126)
(11.487 -9.80872e-20 2.52065)
(11.533 -2.8497e-19 2.33796)
(11.5684 2.75763e-19 2.1539)
(11.5946 -6.70085e-19 1.96899)
(11.6127 -1.72356e-19 1.7836)
(11.6241 1.69835e-19 1.59796)
(11.6301 -3.27576e-19 1.41211)
(11.6316 -1.95609e-20 1.22617)
(11.6299 -2.88713e-19 1.03963)
(11.6259 0 0.853036)
(11.6206 -1.20815e-21 0.66445)
(11.6148 9.09664e-21 0.476361)
(11.6093 -8.88237e-21 0.282994)
(11.4153 -1.72339e-20 0.0931824)
)
;
    }
    procBoundary1to2
    {
        type            processor;
        value           nonuniform List<vector> 
17
(
(15.9622 8.06838e-20 4.32903)
(15.8324 1.96931e-19 4.06292)
(15.6868 0 3.78897)
(15.5375 8.68535e-20 3.51389)
(15.3901 -8.29535e-20 3.24074)
(15.2468 -6.29828e-21 2.97065)
(15.109 -2.03765e-19 2.70394)
(14.9774 1.42455e-20 2.44053)
(14.8529 -4.43423e-21 2.18011)
(14.7363 1.89532e-19 1.92209)
(14.6286 -8.42578e-20 1.66616)
(14.5306 0 1.41112)
(14.4434 8.43242e-20 1.15751)
(14.368 9.18221e-20 0.901798)
(14.305 1.45003e-19 0.648376)
(14.2551 -4.67248e-20 0.385779)
(13.9784 2.10172e-20 0.131742)
)
;
    }
    procBoundary1to3
    {
        type            processor;
        value           nonuniform List<vector> 9((9.81425 6.31547e-19 4.50359) (10.0742 -1.4523e-19 4.43804) (10.3162 1.4286e-19 4.34451) (10.5384 0 4.22731) (10.7396 -1.27878e-19 4.09058) (10.9197 7.92777e-20 3.93805) (11.0788 1.20346e-19 3.77299) (11.2176 1.29442e-19 3.59817) (11.3371 -2.24688e-19 3.41596));
    }
    procBoundary1to4
    {
        type            processor;
        value           nonuniform List<vector> 
30
(
(9.70795 1.62587e-19 4.72712)
(9.90757 1.08648e-21 4.92206)
(10.112 1.30523e-19 5.07881)
(10.2724 2.11251e-19 5.51335)
(10.5439 1.41354e-19 5.64976)
(10.8024 -7.04241e-20 5.74119)
(11.0701 1.6888e-19 6.14105)
(11.3853 -1.17826e-19 6.17715)
(11.6647 -4.14596e-19 6.1765)
(12.0151 6.58107e-20 6.48756)
(12.3203 -5.55797e-20 6.40961)
(12.5755 0 6.3192)
(12.997 -4.98877e-20 6.52187)
(13.2377 -3.72534e-19 6.60346)
(13.3992 -6.48291e-19 6.38705)