/*--------------------------------*- C++ -*----------------------------------*\
| =========                 |                                                 |
| \\      /  F ield         | OpenFOAM: The Open Source CFD Toolbox           |
|  \\    /   O peration     | Version:  dev                                   |
|   \\  /    A nd           | Web:      www.OpenFOAM.org                      |
|    \\/     M anipulation  |                                                 |
\*---------------------------------------------------------------------------*/
FoamFile
{
    version     2.0;
    format      ascii;
    class       volVectorField;
    location    "0.2";
    object      cellDisplacement;
}
// * * * * * * * * * * * * * * * * * * * * * * * * * * * * * * * * * * * * * //

dimensions      [0 1 0 0 0 0 0];

internalField   nonuniform List<vector> 
465
(
(0.000797963 0 2.83244e-06)
(0.00229949 0 8.22271e-06)
(0.00362615 0 1.31513e-05)
(0.00479394 0 1.77471e-05)
(0.0058175 0 2.21159e-05)
(0.00670995 0 2.63463e-05)
(0.00748299 0 3.05144e-05)
(0.008147 0 3.46883e-05)
(0.00871111 0 3.89311e-05)
(0.00918329 0 4.33045e-05)
(0.00957043 0 4.78718e-05)
(0.00987836 0 5.27016e-05)
(0.0101119 0 5.78721e-05)
(0.0102749 0 6.34768e-05)
(0.0103702 0 6.96319e-05)
(0.0103994 0 7.64869e-05)
(0.0103632 0 8.42404e-05)
(0.0102609 0 9.3163e-05)
(0.0100903 0 0.000103631)
(0.00984746 0 0.000116177)
(0.00952669 0 0.00013157)
(0.000798092 0 8.48818e-06)
(0.00229991 0 2.46419e-05)
(0.00362694 0 3.94122e-05)
(0.00479518 0 5.31844e-05)
(0.00581931 0 6.62754e-05)
(0.00671249 0 7.895e-05)
(0.00748645 0 9.14357e-05)
(0.00815161 0 0.000103936)
(0.00871715 0 0.000116637)
(0.0091911 0 0.000129725)
(0.00958044 0 0.000143384)
(0.00989112 0 0.000157819)
(0.0101281 0 0.000173258)
(0.0102954 0 0.000189974)
(0.0103961 0 0.000208304)
(0.0104323 0 0.000228678)
(0.010405 0 0.000251664)
(0.0103142 0 0.000278029)
(0.0101588 0 0.000308828)
(0.00993624 0 0.000345543)
(0.00964278 0 0.00039028)
(0.000798369 0 1.4113e-05)
(0.0023008 0 4.09715e-05)
(0.00362855 0 6.5529e-05)
(0.00479769 0 8.84244e-05)
(0.00582295 0 0.000110183)
(0.00671756 0 0.000131242)
(0.00749332 0 0.00015198)
(0.00816072 0 0.000172728)
(0.00872905 0 0.000193797)
(0.00920648 0 0.000215485)
(0.00960013 0 0.000238096)
(0.00991616 0 0.000261955)
(0.0101598 0 0.000287427)
(0.0103355 0 0.000314939)
(0.0104468 0 0.000345016)
(0.0104963 0 0.000378316)
(0.0104862 0 0.000415695)
(0.0104176 0 0.000458287)
(0.010291 0 0.000507627)
(0.0101066 0 0.000565817)
(0.00986404 0 0.000635765)
(0.000798788 0 1.968e-05)
(0.00230212 0 5.71329e-05)
(0.00363093 0 9.1374e-05)
(0.00480139 0 0.000123291)
(0.00582831 0 0.000153611)
(0.00672502 0 0.000182942)
(0.0075034 0 0.000211804)
(0.00817409 0 0.000240656)
(0.0087465 0 0.000269919)
(0.00922898 0 0.0003)
(0.00962889 0 0.000331304)
(0.00995267 0 0.000364263)
(0.010206 0 0.00039935)
(0.0103937 0 0.000437114)
(0.01052 0 0.000478211)
(0.0105885 0 0.00052345)
(0.0106024 0 0.000573854)
(0.0105646 0 0.000630742)
(0.0104778 0 0.000695841)
(0.010345 0 0.000771428)
(0.0101701 0 0.000860512)
(0.00079934 0 2.51608e-05)
(0.00230384 0 7.30422e-05)
(0.00363403 0 0.00011681)
(0.00480618 0 0.000157593)
(0.00583524 0 0.000196316)
(0.00673464 0 0.000233747)
(0.00751641 0 0.000270543)
(0.00819131 0 0.000307281)
(0.00876895 0 0.000344485)
(0.00925789 0 0.000382653)
(0.00966577 0 0.000422279)
(0.00999938 0 0.000463875)
(0.0102648 0 0.000507994)
(0.0104675 0 0.00055526)
(0.0106125 0 0.000606396)
(0.0107044 0 0.00066227)
(0.0107475 0 0.000723936)
(0.0107466 0 0.0007927)
(0.0107065 0 0.000870184)
(0.0106333 0 0.000958398)
(0.0105344 0 0.0010598)
(0.000800006 0 3.05262e-05)
(0.00230591 0 8.86142e-05)
(0.00363773 0 0.000141699)
(0.0048119 0 0.00019114)
(0.0058435 0 0.000238051)
(0.00674612 0 0.000283354)
(0.00753193 0 0.000327832)
(0.00821186 0 0.000372168)
(0.00879571 0 0.000416979)
(0.00929229 0 0.000462841)
(0.00970955 0 0.000510314)
(0.0100546 0 0.000559966)
(0.0103342 0 0.000612394)
(0.0105542 0 0.000668248)
(0.0107204 0 0.000728258)
(0.0108385 0 0.000793255)
(0.010914 0 0.000864202)
(0.0109532 0 0.000942214)
(0.0109629 0 0.00102857)
(0.0109513 0 0.00112468)
(0.0109287 0 0.00123201)
(0.000800759 0 3.57485e-05)
(0.00230824 0 0.000103767)
(0.00364189 0 0.000165907)
(0.00481833 0 0.000223749)
(0.00585282 0 0.000278582)
(0.00675909 0 0.000331474)
(0.00754947 0 0.000383324)
(0.00823508 0 0.000434911)
(0.00882593 0 0.000486928)
(0.00933108 0 0.000540014)
(0.00975877 0 0.000594774)
(0.0101166 0 0.000651807)
(0.0104115 0 0.00071172)
(0.0106503 0 0.000775146)
(0.0108393 0 0.00084276)
(0.0109849 0 0.000915284)
(0.011094 0 0.000993492)
(0.0111738 0 0.00107819)
(0.0112325 0 0.00117015)
(0.0112798 0 0.00127005)
(0.0113271 0 0.00137822)
(0.000801561 0 4.08018e-05)
(0.00231073 0 0.000118426)
(0.00364634 0 0.000189313)
(0.00482524 0 0.000255252)
(0.00586286 0 0.000317698)
(0.0067731 0 0.00037785)
(0.00756846 0 0.000436714)
(0.00826024 0 0.000495152)
(0.00885866 0 0.00055392)
(0.00937302 0 0.000613701)
(0.00981188 0 0.00067513)
(0.0101831 0 0.000738808)
(0.0104943 0 0.000805325)
(0.0107524 0 0.000875259)
(0.0109646 0 0.000949187)
(0.0111379 0 0.00102767)
(0.0112798 0 0.00111123)
(0.0113984 0 0.00120031)
(0.0115025 0 0.00129515)
(0.0116022 0 0.00139568)
(0.011709 0 0.00150124)
(0.000802372 0 4.56633e-05)
(0.00231325 0 0.000132523)
(0.00365088 0 0.000211809)
(0.00483234 0 0.000285503)
(0.00587325 0 0.000355213)
(0.00678767 0 0.000422259)
(0.00758828 0 0.00048774)
(0.00828655 0 0.000552589)
(0.00889289 0 0.000617613)
(0.00941685 0 0.000683524)
(0.00986723 0 0.000750966)
(0.0102522 0 0.000820526)
(0.0105797 0 0.000892749)
(0.0108571 0 0.000968135)
(0.011092 0 0.00104713)
(0.0112919 0 0.00113012)
(0.0114646 0 0.00121735)
(0.0116185 0 0.00130889)
(0.0117624 0 0.00140452)
(0.0119061 0 0.00150354)
(0.0120599 0 0.00160458)
(0.000803146 0 5.03127e-05)
(0.00231568 0 0.000146001)
(0.0036553 0 0.000233302)
(0.00483933 0 0.000314375)
(0.00588359 0 0.00039097)
(0.0068023 0 0.000464513)
(0.00760829 0 0.000536186)
(0.0083132 0 0.00060698)
(0.00892762 0 0.00067774)
(0.00946129 0 0.000749194)
(0.00992322 0 0.00082198)
(0.0103219 0 0.000896656)
(0.0106653 0 0.000973705)
(0.0109614 0 0.00105353)
(0.0112178 0 0.00113645)
(0.0114422 0 0.00122265)
(0.0116426 0 0.00131213)
(0.0118272 0 0.00140465)
(0.0120044 0 0.0014996)
(0.012183 0 0.00159586)
(0.0123715 0 0.00169166)
(0.000803835 0 5.47324e-05)
(0.00231787 0 0.000158808)
(0.00365937 0 0.000253711)
(0.0048459 0 0.000341762)
(0.00589348 0 0.000424836)
(0.00681646 0 0.000504457)
(0.00762784 0 0.000581876)
(0.00833938 0 0.000658131)
(0.00896183 0 0.000734093)
(0.00950508 0 0.000810497)
(0.00997831 0 0.000887963)
(0.0103902 0 0.000967007)
(0.0107489 0 0.00104804)
(0.0110623 0 0.00113138)
(0.0113384 0 0.0012172)
(0.0115848 0 0.0013055)
(0.0118092 0 0.00139609)
(0.0120195 0 0.00148848)
(0.0122233 0 0.0015818)
(0.012428 0 0.00167471)
(0.0126402 0 0.00176532)
(0.000804392 0 5.89069e-05)
(0.00231968 0 0.000170899)
(0.00366286 0 0.000272965)
(0.00485174 0 0.000367569)
(0.00590249 0 0.000456698)
(0.00682964 0 0.00054196)
(0.00764628 0 0.000624664)
(0.00836429 0 0.000705887)
(0.00899455 0 0.000786515)
(0.00954704 0 0.00086728)
(0.0100311 0 0.000948777)
(0.0104554 0 0.00103148)
(0.0108282 0 0.00111572)
(0.0111576 0 0.00120172)
(0.0114512 0 0.00128954)
(0.0117166 0 0.00137903)
(0.0119612 0 0.00146984)
(0.012192 0 0.00156131)
(0.0124159 0 0.00165244)
(0.0126388 0 0.00174183)
(0.0128655 0 0.00182765)
(0.000804765 0 6.2822e-05)
(0.00232097 0 0.000182235)
(0.00366554 0 0.000291002)
(0.00485652 0 0.000391714)
(0.00591023 0 0.000486457)
(0.00684131 0 0.00057691)
(0.00766297 0 0.000664431)
(0.00838716 0 0.000750124)
(0.00902484 0 0.000834885)
(0.00958606 0 0.000919435)
(0.0100802 0 0.00100434)
(0.0105159 0 0.00109002)
(0.0109016 0 0.00117676)
(0.0112451 0 0.00126467)
(0.0115539 0 0.00135371)
(0.0118353 0 0.00144365)
(0.0120961 0 0.00153399)
(0.0123427 0 0.00162401)
(0.0125808 0 0.00171265)
(0.0128152 0 0.00179856)
(0.0130492 0 0.00188013)
(0.000804902 0 6.64656e-05)
(0.00232159 0 0.00019278)
(0.00366718 0 0.000307767)
(0.00485993 0 0.000414128)
(0.00591629 0 0.000514033)
(0.00685099 0 0.000609219)
(0.00767731 0 0.000701084)
(0.00840727 0 0.000790751)
(0.00905184 0 0.000879121)
(0.00962113 0 0.000966899)
(0.0101245 0 0.00105462)
(0.0105706 0 0.00114266)
(0.0109676 0 0.00123123)
(0.0113232 0 0.00132039)
(0.0116448 0 0.00141002)
(0.0119391 0 0.00149978)
(0.0122125 0 0.00158914)
(0.0124705 0 0.00167733)
(0.012718 0 0.00176333)
(0.0129585 0 0.00184592)
(0.0131941 0 0.00192371)
(0.00080475 0 6.98274e-05)
(0.00232138 0 0.000202503)
(0.00366754 0 0.000323217)
(0.00486164 0 0.000434757)
(0.00592026 0 0.000539362)
(0.00685818 0 0.00063882)
(0.00768873 0 0.000734558)
(0.00842393 0 0.000827713)
(0.00907479 0 0.000919182)
(0.00965136 0 0.00100966)
(0.0101629 0 0.00109964)
(0.0106181 0 0.00118946)
(0.0110249 0 0.00127929)
(0.0113908 0 0.00136912)
(0.0117227 0 0.00145877)
(0.0120271 0 0.00154787)
(0.0123097 0 0.00163585)
(0.0125753 0 0.00172197)
(0.0128281 0 0.00180527)
(0.0130705 0 0.00188468)
(0.013304 0 0.00195905)
(0.00366635 0 0.000337592)
(0.00486136 0 0.000453927)
(0.00592181 0 0.000562854)
(0.00686253 0 0.0006662)
(0.00769686 0 0.000765414)
(0.00843681 0 0.000861643)
(0.00909334 0 0.000955777)
(0.00967646 0 0.00104849)
(0.0101954 0 0.00114026)
(0.0106585 0 0.00123138)
(0.0110736 0 0.00132196)
(0.0114481 0 0.00141197)
(0.0117883 0 0.00150118)
(0.0121003 0 0.00158921)
(0.0123893 0 0.0016755)
(0.0126596 0 0.00175932)
(0.0129144 0 0.00183985)
(0.0131558 0 0.00191616)
(0.0133845 0 0.00198732)
(0.00485856 0 0.000471699)
(0.00592035 0 0.000584591)
(0.00686339 0 0.000691462)
(0.00770099 0 0.000793779)
(0.00844513 0 0.00089269)
(0.0091067 0 0.000989081)
(0.00969562 0 0.00108361)
(0.0102209 0 0.00117672)
(0.0106909 0 0.00126869)
(0.0111131 0 0.00135958)
(0.0114944 0 0.00144934)
(0.011841 0 0.00153772)
(0.0121586 0 0.00162433)
(0.0124516 0 0.00170864)
(0.012724 0 0.00179001)
(0.0129784 0 0.0018677)
(0.0132166 0 0.00194094)
(0.0134387 0 0.002009)
(0.00591532 0 0.000604269)
(0.00686009 0 0.000714267)
(0.00770034 0 0.000819283)
(0.00844799 0 0.000920469)
(0.00911384 0 0.0010187)
(0.0097077 0 0.00111462)
(0.0102384 0 0.00120866)
(0.010714 0 0.00130106)
(0.0111419 0 0.00139187)
(0.0115285 0 0.001481)
(0.0118798 0 0.00156823)
(0.0122009 0 0.00165316)
(0.012496 0 0.00173533)
(0.0127685 0 0.00181415)
(0.0130209 0 0.00188899)
(0.0132544 0 0.00195924)
(0.0134693 0 0.00202432)
(0.006852 0 0.000734467)
(0.00769422 0 0.000841782)
(0.00844464 0 0.000944836)
(0.00911394 0 0.0010445)
(0.00971183 0 0.00114142)
(0.010247 0 0.00123601)
(0.0107271 0 0.00132847)
(0.0111592 0 0.00141885)
(0.0115497 0 0.00150706)
(0.0119041 0 0.00159287)
(0.0122272 0 0.00167594)
(0.0125228 0 0.00175584)
(0.0127941 0 0.00183206)
(0.0130432 0 0.0019041)
(0.0132713 0 0.00197144)
(0.0134789 0 0.00203362)
(0.007682 0 0.000861137)
(0.00843439 0 0.000965669)
(0.00910623 0 0.00106637)
(0.00970724 0 0.00116392)
(0.0102458 0 0.0012587)
(0.0107293 0 0.0013509)
(0.0111646 0 0.00144056)
(0.0115577 0 0.00152759)
(0.0119138 0 0.0016118)
(0.0122375 0 0.00169287)
(0.0125325 0 0.00177043)
(0.0128015 0 0.00184406)
(0.0130467 0 0.00191334)
(0.0132693 0 0.00197789)
(0.0134701 0 0.00203738)
(0.00841662 0 0.000982852)
(0.00909001 0 0.0010842)
(0.00969326 0 0.00118202)
(0.0102344 0 0.0012767)
(0.0107202 0 0.00136835)
(0.0111575 0 0.00145704)
(0.0115521 0 0.0015427)
(0.0119089 0 0.00162515)
(0.0122322 0 0.00170413)
(0.0125256 0 0.00177932)
(0.0127917 0 0.00185039)
(0.0130326 0 0.00191698)
(0.0132498 0 0.00197882)
(0.0134443 0 0.0020357)
(0.00966917 0 0.0011957)
(0.0102121 0 0.00129004)
(0.0106994 0 0.00138088)
(0.0111378 0 0.00146838)
(0.0115328 0 0.00155249)
(0.0118893 0 0.00163307)
(0.0122115 0 0.0017099)
(0.0125027 0 0.00178272)
(0.0127656 0 0.00185127)
(0.0130022 0 0.00191526)
(0.0132142 0 0.00197447)
(0.0134026 0 0.00202872)
(0.0101789 0 0.00129868)
(0.0106665 0 0.00138846)
(0.011105 0 0.00147459)
(0.0114997 0 0.00155699)
(0.0118552 0 0.0016356)
(0.0121757 0 0.00171023)
(0.0124642 0 0.00178069)
(0.0127237 0 0.00184675)
(0.0129561 0 0.0019082)
(0.0131632 0 0.00196488)
(0.0133463 0 0.00201665)
(0.0110594 0 0.00147562)
(0.0114529 0 0.00155621)
(0.0118069 0 0.0016328)
(0.0121251 0 0.00170521)
(0.0124108 0 0.00177332)
(0.0126668 0 0.00183695)
(0.0128951 0 0.00189596)
(0.0130978 0 0.00195021)
(0.0132762 0 0.00199962)
(0.0117448 0 0.00162469)
(0.0120605 0 0.00169491)
(0.0123432 0 0.0017607)
(0.0125957 0 0.00182197)
(0.0128202 0 0.00187861)
(0.0130188 0 0.00193055)
(0.0131931 0 0.00197772)
(0.0119824 0 0.00167935)
(0.012262 0 0.00174285)
(0.0125111 0 0.00180184)
(0.012732 0 0.0018562)
(0.012927 0 0.00190592)
(0.0130977 0 0.00195097)
(0.0124138 0 0.00177655)
(0.0126314 0 0.00182872)
(0.0128231 0 0.00187633)
(0.0129906 0 0.00191935)
(0.0127078 0 0.00184169)
(0.0128726 0 0.00188278)
)
;

boundaryField
{
    inlet
    {
        type            cellMotion;
        value           uniform (0 0 0);
    }
    outlet
    {
        type            cellMotion;
        value           nonuniform 0();
    }
    flap
    {
        type            cellMotion;
        value           nonuniform 0();
    }
    upperWall
    {
        type            slip;
    }
    lowerWall
    {
        type            slip;
    }
    frontAndBack
    {
        type            empty;
    }
    procBoundary3to0
    {
        type            processor;
        value           nonuniform List<vector> 
34
(
(0.000804264 0 7.29668e-05)
(0.00232021 0 0.000211576)
(0.00232021 0 0.000211576)
(0.00366332 0 0.000350969)
(0.00366332 0 0.000350969)
(0.00485295 0 0.000487867)
(0.00485295 0 0.000487867)
(0.00590635 0 0.000621813)
(0.00590635 0 0.000621813)
(0.00683875 0 0.000751998)
(0.00683875 0 0.000751998)
(0.00766331 0 0.000877307)
(0.00766331 0 0.000877307)
(0.0083911 0 0.000996393)
(0.0090648 0 0.00109796)
(0.0090648 0 0.00109796)
(0.00963571 0 0.00120513)
(0.00963571 0 0.00120513)
(0.0101348 0 0.00130267)
(0.0106218 0 0.00139111)
(0.0106218 0 0.00139111)
(0.0110013 0 0.00147164)
(0.011393 0 0.00155025)
(0.011393 0 0.00155025)
(0.0116696 0 0.00161143)
(0.0116696 0 0.00161143)
(0.0118917 0 0.00165867)
(0.012168 0 0.00171985)
(0.012168 0 0.00171985)
(0.0123049 0 0.00174619)
(0.0125193 0 0.00179616)
(0.0125193 0 0.00179616)
(0.0125824 0 0.00180203)
(0.0127445 0 0.00184122)
)
;
    }
    procBoundary3to1
    {
        type            processor;
        value           nonuniform List<vector> 9((0.0136491 0 0.0020916) (0.0136162 0 0.00208738) (0.0135683 0 0.0020779) (0.0135066 0 0.00206346) (0.0134319 0 0.00204419) (0.0133448 0 0.00202016) (0.013246 0 0.0019914) (0.013136 0 0.00195788) (0.0130154 0 0.00191953));
    }
    procBoundary3to4
    {
        type            processor;
        value           nonuniform List<vector> 
19
(
(0.00911975 0 0.000150929)
(0.00927318 0 0.000446062)
(0.0095631 0 0.000721517)
(0.0099585 0 0.000967047)
(0.0104202 0 0.00117729)
(0.0109084 0 0.0013519)
(0.0113885 0 0.00149438)
(0.0118356 0 0.00161024)
(0.0122342 0 0.00170527)
(0.0125777 0 0.00178438)
(0.012865 0 0.0018511)
(0.013099 0 0.00190772)
(0.0132839 0 0.00195553)
(0.0134251 0 0.00199525)
(0.013528 0 0.00202728)
(0.0135996 0 0.0020525)
(0.0136442 0 0.00207128)
(0.0136652 0 0.00208381)
(0.0136659 0 0.00209046)
)
;
    }
}


// ************************************************************************* //
