/*--------------------------------*- C++ -*----------------------------------*\
| =========                 |                                                 |
| \\      /  F ield         | OpenFOAM: The Open Source CFD Toolbox           |
|  \\    /   O peration     | Version:  dev                                   |
|   \\  /    A nd           | Web:      www.OpenFOAM.org                      |
|    \\/     M anipulation  |                                                 |
\*---------------------------------------------------------------------------*/
FoamFile
{
    version     2.0;
    format      ascii;
    class       pointVectorField;
    location    "4.31";
    object      pointDisplacement;
}
// * * * * * * * * * * * * * * * * * * * * * * * * * * * * * * * * * * * * * //

dimensions      [0 1 0 0 0 0 0];

internalField   nonuniform List<vector> 
5828
(
(0 0 0)
(0.00693138 0 0)
(0.0131912 0 0)
(0.0186181 0 0)
(0.0232752 0 0)
(0.0272228 0 0)
(0.0305155 0 0)
(0.0332026 0 0)
(0.0353282 0 0)
(0.036931 0 0)
(0.0380453 0 0)
(0.0387012 0 0)
(0.0389252 0 0)
(0.0387407 0 0)
(0.0381685 0 0)
(0.0372276 0 0)
(0.0359364 0 0)
(0.0343129 0 0)
(0.0323766 0 0)
(0.030149 0 0)
(0.0276557 0 0)
(0.024928 0 0)
(0.0220048 0 0)
(0.0189358 0 0)
(0.0157829 0 0)
(0.0126241 0 0)
(0.00955879 0 0)
(0.00671694 0 0)
(0.00428071 0 0)
(0.00254896 0 0)
(0 0 0)
(0 0 0)
(0.00693518 0 4.09102e-06)
(0.0131992 0 8.12119e-06)
(0.0186304 0 1.22601e-05)
(0.0232922 0 1.67546e-05)
(0.0272448 0 2.18254e-05)
(0.0305432 0 2.7684e-05)
(0.0332369 0 3.45459e-05)
(0.0353699 0 4.26403e-05)
(0.0369814 0 5.22185e-05)
(0.0381056 0 6.35604e-05)
(0.0387731 0 7.69802e-05)
(0.0390104 0 9.28326e-05)
(0.0388412 0 0.000111516)
(0.0382866 0 0.000133479)
(0.037366 0 0.00015922)
(0.036098 0 0.000189291)
(0.0345009 0 0.000224301)
(0.0325944 0 0.000264919)
(0.0304004 0 0.000311869)
(0.0279449 0 0.000365933)
(0.0252592 0 0.000427976)
(0.0223827 0 0.000498967)
(0.0193656 0 0.000579984)
(0.0162708 0 0.000672219)
(0.0131782 0 0.000776931)
(0.0101897 0 0.000895257)
(0.00743947 0 0.00102748)
(0.00511447 0 0.00117036)
(0.00350884 0 0.00130766)
(0.00154134 0 0.00156618)
(0 0 0)
(0.00694768 0 8.11132e-06)
(0.0132241 0 1.61012e-05)
(0.0186682 0 2.43051e-05)
(0.0233436 0 3.32112e-05)
(0.0273113 0 4.32558e-05)
(0.0306267 0 5.48565e-05)
(0.0333397 0 6.84379e-05)
(0.035495 0 8.44515e-05)
(0.037132 0 0.000103391)
(0.0382858 0 0.000125806)
(0.0389874 0 0.000152314)
(0.0392642 0 0.000183607)
(0.0391406 0 0.000220466)
(0.0386385 0 0.000263763)
(0.0377782 0 0.000314469)
(0.036579 0 0.000373655)
(0.0350603 0 0.000442494)
(0.0332426 0 0.000522264)
(0.0311488 0 0.000614334)
(0.0288055 0 0.000720143)
(0.0262445 0 0.000841238)
(0.0235062 0 0.000979284)
(0.0206419 0 0.00113601)
(0.0177171 0 0.00131311)
(0.0148155 0 0.00151195)
(0.0120442 0 0.00173282)
(0.00954335 0 0.00197315)
(0.00750217 0 0.00222232)
(0.00619075 0 0.00244727)
(0.00460918 0 0.0027829)
(0 0 0)
(0.00696846 0 1.19892e-05)
(0.0132656 0 2.37972e-05)
(0.0187308 0 3.59174e-05)
(0.0234288 0 4.90687e-05)
(0.0274213 0 6.38927e-05)
(0.0307647 0 8.10018e-05)
(0.0335096 0 0.000101018)
(0.0357013 0 0.0001246)
(0.0373804 0 0.000152468)
(0.0385829 0 0.00018542)
(0.0393407 0 0.00022435)
(0.0396824 0 0.000270261)
(0.0396337 0 0.000324278)
(0.0392178 0 0.000387655)
(0.0384564 0 0.00046178)
(0.0373704 0 0.000548173)
(0.0359805 0 0.000648482)
(0.0343085 0 0.000764492)
(0.0323791 0 0.000898076)
(0.0302198 0 0.00105108)
(0.0278629 0 0.00122542)
(0.0253497 0 0.00142299)
(0.0227321 0 0.00164547)
(0.020078 0 0.00189407)
(0.0174743 0 0.00216867)
(0.0150307 0 0.00246642)
(0.0128865 0 0.00277897)
(0.0112192 0 0.00308643)
(0.0102554 0 0.00334431)
(0.0090732 0 0.00366901)
(0 0 0)
(0.00699725 0 1.56546e-05)
(0.0133229 0 3.10691e-05)
(0.0188173 0 4.68839e-05)
(0.0235465 0 6.40327e-05)
(0.0275735 0 8.33465e-05)
(0.0309554 0 0.000105617)
(0.0337441 0 0.000131644)
(0.0359861 0 0.000162275)
(0.037723 0 0.000198428)
(0.0389922 0 0.000241122)
(0.0398271 0 0.000291491)
(0.0402579 0 0.000350804)
(0.0403118 0 0.000420476)
(0.040014 0 0.00050208)
(0.0393881 0 0.000597346)
(0.0384569 0 0.000708144)
(0.0372429 0 0.000836466)
(0.0357698 0 0.000984465)
(0.0340652 0 0.00115437)
(0.0321573 0 0.0013481)
(0.0300784 0 0.00156751)
(0.02787 0 0.00181426)
(0.0255826 0 0.00208925)
(0.0232843 0 0.00239234)
(0.0210633 0 0.00272086)
(0.019026 0 0.00306751)
(0.0173021 0 0.00341769)
(0.0160459 0 0.0037443)
(0.0154364 0 0.0039996)
(0.0145889 0 0.00428262)
(0 0 0)
(0.00703371 0 1.90409e-05)
(0.0133955 0 3.77845e-05)
(0.0189268 0 5.7003e-05)
(0.0236954 0 7.78245e-05)
(0.0277656 0 0.00010125)
(0.0311961 0 0.000128228)
(0.0340399 0 0.000159714)
(0.0363449 0 0.000196715)
(0.0381544 0 0.000240318)
(0.0395072 0 0.000291722)
(0.0404386 0 0.000352255)
(0.0409806 0 0.000423395)
(0.0411626 0 0.000506782)
(0.0410119 0 0.000604225)
(0.0405547 0 0.000717703)
(0.0398166 0 0.000849326)
(0.0388216 0 0.00100124)
(0.0375946 0 0.00117581)
(0.0361662 0 0.00137532)
(0.0345675 0 0.00160152)
(0.0328317 0 0.00185604)
(0.0309993 0 0.00213985)
(0.0291178 0 0.00245262)
(0.0272475 0 0.00279235)
(0.0254728 0 0.00315327)
(0.0238944 0 0.0035239)
(0.022624 0 0.00388483)
(0.0217861 0 0.00420568)
(0.0215149 0 0.00444148)
(0.0209455 0 0.00468709)
(0 0 0)
(0.00707737 0 2.20867e-05)
(0.0134823 0 4.38207e-05)
(0.0190578 0 6.60887e-05)
(0.0238734 0 9.01877e-05)
(0.0279951 0 0.000117264)
(0.0314833 0 0.000148401)
(0.0343926 0 0.00018468)
(0.0367725 0 0.000227234)
(0.0386679 0 0.000277282)
(0.0401195 0 0.000336156)
(0.0411646 0 0.000405326)
(0.0418376 0 0.000486413)
(0.0421703 0 0.000581201)
(0.0421924 0 0.000691643)
(0.0419328 0 0.000819865)
(0.041419 0 0.000967978)
(0.040678 0 0.00113813)
(0.0397377 0 0.00133275)
(0.0386287 0 0.00155395)
(0.0373863 0 0.0018033)
(0.0360466 0 0.00208207)
(0.0346482 0 0.00239021)
(0.0332369 0 0.00272599)
(0.03186 0 0.00308521)
(0.0305832 0 0.00345947)
(0.0294977 0 0.00383414)
(0.0286972 0 0.00418711)
(0.0282726 0 0.00448799)
(0.0283195 0 0.0046974)
(0.0279968 0 0.00491608)
(0 0 0)
(0.00712768 0 2.47368e-05)
(0.0135824 0 4.90679e-05)
(0.0192085 0 7.39745e-05)
(0.024078 0 0.000100894)
(0.0282588 0 0.000131092)
(0.031813 0 0.000165755)
(0.034797 0 0.000206061)
(0.0372622 0 0.000253234)
(0.0392551 0 0.00030858)
(0.0408188 0 0.000373517)
(0.0419926 0 0.000449595)
(0.0428135 0 0.000538508)
(0.043316 0 0.000642093)
(0.0435324 0 0.00076234)
(0.0434928 0 0.000901281)
(0.0432265 0 0.00106087)
(0.0427665 0 0.00124333)
(0.0421454 0 0.00145102)
(0.0413943 0 0.00168572)
(0.0405494 0 0.00194873)
(0.0396483 0 0.00224061)
(0.038728 0 0.00256035)
(0.0378302 0 0.0029048)
(0.0369948 0 0.00326785)
(0.0362619 0 0.00363931)
(0.0356981 0 0.00400295)
(0.0353777 0 0.00433544)
(0.0353593 0 0.00460793)
(0.035705 0 0.00478723)
(0.0356188 0 0.00497792)
(0 0 0)
(0.00718396 0 2.69435e-05)
(0.0136942 0 5.34316e-05)
(0.0193769 0 8.05177e-05)
(0.0243064 0 0.000109749)
(0.0285529 0 0.00014248)
(0.0321804 0 0.00017997)
(0.0352472 0 0.000223461)
(0.0378064 0 0.000274228)
(0.0399068 0 0.00033362)
(0.0415934 0 0.000403086)
(0.0429082 0 0.000484196)
(0.0438906 0 0.000578645)
(0.0445783 0 0.00068823)
(0.0450043 0 0.000814765)
(0.0452 0 0.000960032)
(0.0452007 0 0.001126)
(0.0450445 0 0.00131488)
(0.0447668 0 0.00152863)
(0.0444016 0 0.00176861)
(0.0439852 0 0.00203563)
(0.0435543 0 0.00232951)
(0.0431442 0 0.00264841)
(0.0427899 0 0.00298817)
(0.0425238 0 0.00334142)
(0.04237 0 0.00369705)
(0.0423571 0 0.00403853)
(0.0425264 0 0.00434243)
(0.0429096 0 0.00458161)
(0.0435356 0 0.0047284)
(0.0436691 0 0.00488655)
(0 0 0)
(0.00724544 0 2.86676e-05)
(0.0138163 0 5.68342e-05)
(0.0195607 0 8.56019e-05)
(0.0245555 0 0.000116595)
(0.0288733 0 0.000151225)
(0.0325801 0 0.000190795)
(0.0357362 0 0.000236572)
(0.0383967 0 0.000289845)
(0.0406125 0 0.000351959)
(0.0424307 0 0.000424344)
(0.0438955 0 0.000508525)
(0.0450493 0 0.000606136)
(0.0459319 0 0.000718773)
(0.0465767 0 0.00084792)
(0.0470193 0 0.000995274)
(0.0473024 0 0.00116277)
(0.0474656 0 0.00135219)
(0.0475464 0 0.00156493)
(0.047582 0 0.00180193)
(0.04761 0 0.00206343)
(0.0476666 0 0.0023486)
(0.0477853 0 0.00265503)
(0.0479951 0 0.00297804)
(0.0483175 0 0.00330993)
(0.0487637 0 0.00363951)
(0.0493256 0 0.00395091)
(0.0500019 0 0.00422178)
(0.05079 0 0.00442635)
(0.0516821 0 0.0045408)
(0.0520118 0 0.00466298)
(0 0 0)
(0.00731128 0 2.98792e-05)
(0.013947 0 5.92166e-05)
(0.0197572 0 8.91394e-05)
(0.0248217 0 0.000121315)
(0.0292153 0 0.000157182)
(0.0330063 0 0.000198051)
(0.0362569 0 0.000245185)
(0.0390242 0 0.000299844)
(0.041361 0 0.000363327)
(0.0433166 0 0.000436989)
(0.0449376 0 0.000522252)
(0.0462684 0 0.000620613)
(0.0473502 0 0.000733351)
(0.0482192 0 0.000861651)
(0.048917 0 0.00100711)
(0.049489 0 0.00117131)
(0.0499765 0 0.00135547)
(0.0504197 0 0.00156045)
(0.0508589 0 0.00178661)
(0.0513332 0 0.00203361)
(0.0518793 0 0.00230009)
(0.0525294 0 0.00258332)
(0.0533078 0 0.00287864)
(0.0542269 0 0.00317898)
(0.0552816 0 0.00347419)
(0.0564387 0 0.00375031)
(0.057653 0 0.00398725)
(0.0588663 0 0.00416038)
(0.0600252 0 0.0042472)
(0.0605372 0 0.00433415)
(0 0 0)
(0.00738056 0 3.05581e-05)
(0.0140845 0 6.05393e-05)
(0.0199638 0 9.10727e-05)
(0.0251013 0 0.000123836)
(0.0295742 0 0.000160261)
(0.0334529 0 0.000201639)
(0.0368016 0 0.00024919)
(0.0396793 0 0.000304113)
(0.0421407 0 0.000367619)
(0.044237 0 0.000440939)
(0.0460169 0 0.000525337)
(0.0475269 0 0.000622093)
(0.0488091 0 0.000732173)
(0.0499038 0 0.000856451)
(0.0508568 0 0.000996208)
(0.0517151 0 0.00115255)
(0.0525219 0 0.00132611)
(0.0533204 0 0.00151713)
(0.0541528 0 0.00172531)
(0.0550602 0 0.0019497)
(0.0560804 0 0.00218847)
(0.0572454 0 0.0024387)
(0.0585773 0 0.00269619)
(0.0600829 0 0.00295521)
(0.0617452 0 0.00320817)
(0.063515 0 0.00344482)
(0.0653056 0 0.00364927)
(0.0669914 0 0.00379886)
(0.0684494 0 0.00386879)
(0.0691659 0 0.00393622)
(0 0 0)
(0.00745232 0 3.06941e-05)
(0.0142269 0 6.07832e-05)
(0.0201776 0 9.13753e-05)
(0.0253903 0 0.000124125)
(0.0299448 0 0.000160432)
(0.0339134 0 0.000201533)
(0.0373623 0 0.000248579)
(0.0403522 0 0.000302674)
(0.0429395 0 0.000364901)
(0.0451774 0 0.000436333)
(0.047116 0 0.000518024)
(0.0488038 0 0.000610996)
(0.0502842 0 0.000715897)
(0.0516003 0 0.000833235)
(0.0528011 0 0.000963847)
(0.0539352 0 0.0011083)
(0.0550474 0 0.00126659)
(0.0561826 0 0.00143828)
(0.0573847 0 0.00162236)
(0.0586963 0 0.00181721)
(0.0601563 0 0.00202045)
(0.0617975 0 0.002229)
(0.0636428 0 0.00243916)
(0.0656982 0 0.00264687)
(0.0679449 0 0.00284799)
(0.070327 0 0.00303822)
(0.0727308 0 0.0032096)
(0.0749676 0 0.00334525)
(0.0768103 0 0.00341488)
(0.0778633 0 0.00349252)
(0 0 0)
(0.00752555 0 3.02874e-05)
(0.0143721 0 5.99492e-05)
(0.0203956 0 9.00512e-05)
(0.0256848 0 0.000122196)
(0.030322 0 0.00015772)
(0.0343815 0 0.000197784)
(0.037931 0 0.000243441)
(0.0410331 0 0.00029567)
(0.0437457 0 0.000355399)
(0.0461233 0 0.000423507)
(0.0482177 0 0.000500812)
(0.0500784 0 0.000588045)
(0.0517502 0 0.000685537)
(0.0532781 0 0.000793394)
(0.0547136 0 0.000911928)
(0.056106 0 0.00104113)
(0.0575009 0 0.00118034)
(0.0589439 0 0.00132841)
(0.0604796 0 0.00148359)
(0.0621509 0 0.00164348)
(0.0639971 0 0.00180506)
(0.066052 0 0.00196481)
(0.06834 0 0.0021191)
(0.0708708 0 0.00226493)
(0.0736316 0 0.00240117)
(0.0765764 0 0.00253008)
(0.0795927 0 0.00265611)
(0.0824606 0 0.00277835)
(0.084835 0 0.00286665)
(0.0866181 0 0.00300928)
(0 0 0)
(0.00759924 0 2.93478e-05)
(0.0145182 0 5.80578e-05)
(0.0206148 0 8.71338e-05)
(0.0259808 0 0.000118102)
(0.0307006 0 0.000152209)
(0.0348505 0 0.000190516)
(0.0384999 0 0.000233954)
(0.0417125 0 0.00028336)
(0.0445478 0 0.000339482)
(0.0470612 0 0.000402983)
(0.0493054 0 0.000474421)
(0.051331 0 0.000554223)
(0.053183 0 0.000642437)
(0.0549085 0 0.000738742)
(0.0565606 0 0.00084287)
(0.0581879 0 0.000954238)
(0.0598355 0 0.00107157)
(0.0615486 0 0.001193)
(0.0633707 0 0.00131604)
(0.0653435 0 0.00143749)
(0.067505 0 0.00155351)
(0.0698877 0 0.00165976)
(0.0725159 0 0.00175185)
(0.075402 0 0.00182618)
(0.0785404 0 0.00188159)
(0.081902 0 0.00192251)
(0.0853995 0 0.00196404)
(0.0888423 0 0.00203447)
(0.0918605 0 0.00214224)
(0.0953975 0 0.00249057)
(0 0 0)
(0.00767305 0 2.78637e-05)
(0.0146643 0 5.51102e-05)
(0.0208339 0 8.26456e-05)
(0.0262764 0 0.000111878)
(0.0310783 0 0.000143956)
(0.0353177 0 0.000179821)
(0.0390652 0 0.000220266)
(0.0423859 0 0.000265963)
(0.0453401 0 0.00031747)
(0.0479841 0 0.000375218)
(0.0503711 0 0.000439492)
(0.0525517 0 0.000510395)
(0.0545714 0 0.00058771)
(0.0564795 0 0.000670742)
(0.058328 0 0.000758641)
(0.0601635 0 0.000850265)
(0.06203 0 0.000943771)
(0.0639704 0 0.00103668)
(0.0660255 0 0.00112579)
(0.0682336 0 0.00120716)
(0.0706281 0 0.0012761)
(0.0732367 0 0.00132724)
(0.0760786 0 0.00135471)
(0.079161 0 0.00135246)
(0.0824751 0 0.00131473)
(0.0859895 0 0.00123653)
(0.0896225 0 0.00111433)
(0.0932225 0 0.000936717)
(0.0965375 0 0.000636136)
(0.1042 0 0.00193432)
(0 0 0)
(0.00693138 0 0)
(0.0131912 0 0)
(0.0186181 0 0)
(0.0232752 0 0)
(0.0272228 0 0)
(0.0305155 0 0)
(0.0332026 0 0)
(0.0353282 0 0)
(0.036931 0 0)
(0.0380453 0 0)
(0.0387012 0 0)
(0.0389252 0 0)
(0.0387407 0 0)
(0.0381685 0 0)
(0.0372276 0 0)
(0.0359364 0 0)
(0.0343129 0 0)
(0.0323766 0 0)
(0.030149 0 0)
(0.0276557 0 0)
(0.024928 0 0)
(0.0220048 0 0)
(0.0189358 0 0)
(0.0157829 0 0)
(0.0126241 0 0)
(0.00955879 0 0)
(0.00671694 0 0)
(0.00428071 0 0)
(0.00254896 0 0)
(0 0 0)
(0 0 0)
(0.00693518 0 4.09102e-06)
(0.0131992 0 8.12119e-06)
(0.0186304 0 1.22601e-05)
(0.0232922 0 1.67546e-05)
(0.0272448 0 2.18254e-05)
(0.0305432 0 2.7684e-05)
(0.0332369 0 3.45459e-05)
(0.0353699 0 4.26403e-05)
(0.0369814 0 5.22185e-05)
(0.0381056 0 6.35604e-05)
(0.0387731 0 7.69802e-05)
(0.0390104 0 9.28326e-05)
(0.0388412 0 0.000111516)
(0.0382866 0 0.000133479)
(0.037366 0 0.00015922)
(0.036098 0 0.000189291)
(0.0345009 0 0.000224301)
(0.0325944 0 0.000264919)
(0.0304004 0 0.000311869)
(0.0279449 0 0.000365933)
(0.0252592 0 0.000427976)
(0.0223827 0 0.000498967)
(0.0193656 0 0.000579984)
(0.0162708 0 0.000672219)
(0.0131782 0 0.000776931)
(0.0101897 0 0.000895257)
(0.00743947 0 0.00102748)
(0.00511447 0 0.00117036)
(0.00350884 0 0.00130766)
(0.00154134 0 0.00156618)
(0 0 0)
(0.00694768 0 8.11132e-06)
(0.0132241 0 1.61012e-05)
(0.0186682 0 2.43051e-05)
(0.0233436 0 3.32112e-05)
(0.0273113 0 4.32558e-05)
(0.0306267 0 5.48565e-05)
(0.0333397 0 6.84379e-05)
(0.035495 0 8.44515e-05)
(0.037132 0 0.000103391)
(0.0382858 0 0.000125806)
(0.0389874 0 0.000152314)
(0.0392642 0 0.000183607)
(0.0391406 0 0.000220466)
(0.0386385 0 0.000263763)
(0.0377782 0 0.000314469)
(0.036579 0 0.000373655)
(0.0350603 0 0.000442494)
(0.0332426 0 0.000522264)
(0.0311488 0 0.000614334)
(0.0288055 0 0.000720143)
(0.0262445 0 0.000841238)
(0.0235062 0 0.000979284)
(0.0206419 0 0.00113601)
(0.0177171 0 0.00131311)
(0.0148155 0 0.00151195)
(0.0120442 0 0.00173282)
(0.00954335 0 0.00197315)
(0.00750217 0 0.00222232)
(0.00619075 0 0.00244727)
(0.00460918 0 0.0027829)
(0 0 0)
(0.00696846 0 1.19892e-05)
(0.0132656 0 2.37972e-05)
(0.0187308 0 3.59174e-05)
(0.0234288 0 4.90687e-05)
(0.0274213 0 6.38927e-05)
(0.0307647 0 8.10018e-05)
(0.0335096 0 0.000101018)
(0.0357013 0 0.0001246)
(0.0373804 0 0.000152468)
(0.0385829 0 0.00018542)
(0.0393407 0 0.00022435)
(0.0396824 0 0.000270261)
(0.0396337 0 0.000324278)
(0.0392178 0 0.000387655)
(0.0384564 0 0.00046178)
(0.0373704 0 0.000548173)
(0.0359805 0 0.000648482)
(0.0343085 0 0.000764492)
(0.0323791 0 0.000898076)
(0.0302198 0 0.00105108)
(0.0278629 0 0.00122542)
(0.0253497 0 0.00142299)
(0.0227321 0 0.00164547)
(0.020078 0 0.00189407)
(0.0174743 0 0.00216867)
(0.0150307 0 0.00246642)
(0.0128865 0 0.00277897)
(0.0112192 0 0.00308643)
(0.0102554 0 0.00334431)
(0.0090732 0 0.00366901)
(0 0 0)
(0.00699725 0 1.56546e-05)
(0.0133229 0 3.10691e-05)
(0.0188173 0 4.68839e-05)
(0.0235465 0 6.40327e-05)
(0.0275735 0 8.33465e-05)
(0.0309554 0 0.000105617)
(0.0337441 0 0.000131644)
(0.0359861 0 0.000162275)
(0.037723 0 0.000198428)
(0.0389922 0 0.000241122)
(0.0398271 0 0.000291491)
(0.0402579 0 0.000350804)
(0.0403118 0 0.000420476)
(0.040014 0 0.00050208)
(0.0393881 0 0.000597346)
(0.0384569 0 0.000708144)
(0.0372429 0 0.000836466)
(0.0357698 0 0.000984465)
(0.0340652 0 0.00115437)
(0.0321573 0 0.0013481)
(0.0300784 0 0.00156751)
(0.02787 0 0.00181426)
(0.0255826 0 0.00208925)
(0.0232843 0 0.00239234)
(0.0210633 0 0.00272086)
(0.019026 0 0.00306751)
(0.0173021 0 0.00341769)
(0.0160459 0 0.0037443)
(0.0154364 0 0.0039996)
(0.0145889 0 0.00428262)
(0 0 0)
(0.00703371 0 1.90409e-05)
(0.0133955 0 3.77845e-05)
(0.0189268 0 5.7003e-05)
(0.0236954 0 7.78245e-05)
(0.0277656 0 0.00010125)
(0.0311961 0 0.000128228)
(0.0340399 0 0.000159714)
(0.0363449 0 0.000196715)
(0.0381544 0 0.000240318)
(0.0395072 0 0.000291722)
(0.0404386 0 0.000352255)
(0.0409806 0 0.000423395)
(0.0411626 0 0.000506782)
(0.0410119 0 0.000604225)
(0.0405547 0 0.000717703)
(0.0398166 0 0.000849326)
(0.0388216 0 0.00100124)
(0.0375946 0 0.00117581)
(0.0361662 0 0.00137532)
(0.0345675 0 0.00160152)
(0.0328317 0 0.00185604)
(0.0309993 0 0.00213985)
(0.0291178 0 0.00245262)
(0.0272475 0 0.00279235)
(0.0254728 0 0.00315327)
(0.0238944 0 0.0035239)
(0.022624 0 0.00388483)
(0.0217861 0 0.00420568)
(0.0215149 0 0.00444148)
(0.0209455 0 0.00468709)
(0 0 0)
(0.00707737 0 2.20867e-05)
(0.0134823 0 4.38207e-05)
(0.0190578 0 6.60887e-05)
(0.0238734 0 9.01877e-05)
(0.0279951 0 0.000117264)
(0.0314833 0 0.000148401)
(0.0343926 0 0.00018468)
(0.0367725 0 0.000227234)
(0.0386679 0 0.000277282)
(0.0401195 0 0.000336156)
(0.0411646 0 0.000405326)
(0.0418376 0 0.000486413)
(0.0421703 0 0.000581201)
(0.0421924 0 0.000691643)
(0.0419328 0 0.000819865)
(0.041419 0 0.000967978)
(0.040678 0 0.00113813)
(0.0397377 0 0.00133275)
(0.0386287 0 0.00155395)
(0.0373863 0 0.0018033)
(0.0360466 0 0.00208207)
(0.0346482 0 0.00239021)
(0.0332369 0 0.00272599)
(0.03186 0 0.00308521)
(0.0305832 0 0.00345947)
(0.0294977 0 0.00383414)
(0.0286972 0 0.00418711)
(0.0282726 0 0.00448799)
(0.0283195 0 0.0046974)
(0.0279968 0 0.00491608)
(0 0 0)
(0.00712768 0 2.47368e-05)
(0.0135824 0 4.90679e-05)
(0.0192085 0 7.39745e-05)
(0.024078 0 0.000100894)
(0.0282588 0 0.000131092)
(0.031813 0 0.000165755)
(0.034797 0 0.000206061)
(0.0372622 0 0.000253234)
(0.0392551 0 0.00030858)
(0.0408188 0 0.000373517)
(0.0419926 0 0.000449595)
(0.0428135 0 0.000538508)
(0.043316 0 0.000642093)
(0.0435324 0 0.00076234)
(0.0434928 0 0.000901281)
(0.0432265 0 0.00106087)
(0.0427665 0 0.00124333)
(0.0421454 0 0.00145102)
(0.0413943 0 0.00168572)
(0.0405494 0 0.00194873)
(0.0396483 0 0.00224061)
(0.038728 0 0.00256035)
(0.0378302 0 0.0029048)
(0.0369948 0 0.00326785)
(0.0362619 0 0.00363931)
(0.0356981 0 0.00400295)
(0.0353777 0 0.00433544)
(0.0353593 0 0.00460793)
(0.035705 0 0.00478723)
(0.0356188 0 0.00497792)
(0 0 0)
(0.00718396 0 2.69435e-05)
(0.0136942 0 5.34316e-05)
(0.0193769 0 8.05177e-05)
(0.0243064 0 0.000109749)
(0.0285529 0 0.00014248)
(0.0321804 0 0.00017997)
(0.0352472 0 0.000223461)
(0.0378064 0 0.000274228)
(0.0399068 0 0.00033362)
(0.0415934 0 0.000403086)
(0.0429082 0 0.000484196)
(0.0438906 0 0.000578645)
(0.0445783 0 0.00068823)
(0.0450043 0 0.000814765)
(0.0452 0 0.000960032)
(0.0452007 0 0.001126)
(0.0450445 0 0.00131488)
(0.0447668 0 0.00152863)
(0.0444016 0 0.00176861)
(0.0439852 0 0.00203563)
(0.0435543 0 0.00232951)
(0.0431442 0 0.00264841)
(0.0427899 0 0.00298817)
(0.0425238 0 0.00334142)
(0.04237 0 0.00369705)
(0.0423571 0 0.00403853)
(0.0425264 0 0.00434243)
(0.0429096 0 0.00458161)
(0.0435356 0 0.0047284)
(0.0436691 0 0.00488655)
(0 0 0)
(0.00724544 0 2.86676e-05)
(0.0138163 0 5.68342e-05)
(0.0195607 0 8.56019e-05)
(0.0245555 0 0.000116595)
(0.0288733 0 0.000151225)
(0.0325801 0 0.000190795)
(0.0357362 0 0.000236572)
(0.0383967 0 0.000289845)
(0.0406125 0 0.000351959)
(0.0424307 0 0.000424344)
(0.0438955 0 0.000508525)
(0.0450493 0 0.000606136)
(0.0459319 0 0.000718773)
(0.0465767 0 0.00084792)
(0.0470193 0 0.000995274)
(0.0473024 0 0.00116277)
(0.0474656 0 0.00135219)
(0.0475464 0 0.00156493)
(0.047582 0 0.00180193)
(0.04761 0 0.00206343)
(0.0476666 0 0.0023486)
(0.0477853 0 0.00265503)
(0.0479951 0 0.00297804)
(0.0483175 0 0.00330993)
(0.0487637 0 0.00363951)
(0.0493256 0 0.00395091)
(0.0500019 0 0.00422178)
(0.05079 0 0.00442635)
(0.0516821 0 0.0045408)
(0.0520118 0 0.00466298)
(0 0 0)
(0.00731128 0 2.98792e-05)
(0.013947 0 5.92166e-05)
(0.0197572 0 8.91394e-05)
(0.0248217 0 0.000121315)
(0.0292153 0 0.000157182)
(0.0330063 0 0.000198051)
(0.0362569 0 0.000245185)
(0.0390242 0 0.000299844)
(0.041361 0 0.000363327)
(0.0433166 0 0.000436989)
(0.0449376 0 0.000522252)
(0.0462684 0 0.000620613)
(0.0473502 0 0.000733351)
(0.0482192 0 0.000861651)
(0.048917 0 0.00100711)
(0.049489 0 0.00117131)
(0.0499765 0 0.00135547)
(0.0504197 0 0.00156045)
(0.0508589 0 0.00178661)
(0.0513332 0 0.00203361)
(0.0518793 0 0.00230009)
(0.0525294 0 0.00258332)
(0.0533078 0 0.00287864)
(0.0542269 0 0.00317898)
(0.0552816 0 0.00347419)
(0.0564387 0 0.00375031)
(0.057653 0 0.00398725)
(0.0588663 0 0.00416038)
(0.0600252 0 0.0042472)
(0.0605372 0 0.00433415)
(0 0 0)
(0.00738056 0 3.05581e-05)
(0.0140845 0 6.05393e-05)
(0.0199638 0 9.10727e-05)
(0.0251013 0 0.000123836)
(0.0295742 0 0.000160261)
(0.0334529 0 0.000201639)
(0.0368016 0 0.00024919)
(0.0396793 0 0.000304113)
(0.0421407 0 0.000367619)
(0.044237 0 0.000440939)
(0.0460169 0 0.000525337)
(0.0475269 0 0.000622093)
(0.0488091 0 0.000732173)
(0.0499038 0 0.000856451)
(0.0508568 0 0.000996208)
(0.0517151 0 0.00115255)
(0.0525219 0 0.00132611)
(0.0533204 0 0.00151713)
(0.0541528 0 0.00172531)
(0.0550602 0 0.0019497)
(0.0560804 0 0.00218847)
(0.0572454 0 0.0024387)
(0.0585773 0 0.00269619)
(0.0600829 0 0.00295521)
(0.0617452 0 0.00320817)
(0.063515 0 0.00344482)
(0.0653056 0 0.00364927)
(0.0669914 0 0.00379886)
(0.0684494 0 0.00386879)
(0.0691659 0 0.00393622)
(0 0 0)
(0.00745232 0 3.06941e-05)
(0.0142269 0 6.07832e-05)
(0.0201776 0 9.13753e-05)
(0.0253903 0 0.000124125)
(0.0299448 0 0.000160432)
(0.0339134 0 0.000201533)
(0.0373623 0 0.000248579)
(0.0403522 0 0.000302674)
(0.0429395 0 0.000364901)
(0.0451774 0 0.000436333)
(0.047116 0 0.000518024)
(0.0488038 0 0.000610996)
(0.0502842 0 0.000715897)
(0.0516003 0 0.000833235)
(0.0528011 0 0.000963847)
(0.0539352 0 0.0011083)
(0.0550474 0 0.00126659)
(0.0561826 0 0.00143828)
(0.0573847 0 0.00162236)
(0.0586963 0 0.00181721)
(0.0601563 0 0.00202045)
(0.0617975 0 0.002229)
(0.0636428 0 0.00243916)
(0.0656982 0 0.00264687)
(0.0679449 0 0.00284799)
(0.070327 0 0.00303822)
(0.0727308 0 0.0032096)
(0.0749676 0 0.00334525)
(0.0768103 0 0.00341488)
(0.0778633 0 0.00349252)
(0 0 0)
(0.00752555 0 3.02874e-05)
(0.0143721 0 5.99492e-05)
(0.0203956 0 9.00512e-05)
(0.0256848 0 0.000122196)
(0.030322 0 0.00015772)
(0.0343815 0 0.000197784)
(0.037931 0 0.000243441)
(0.0410331 0 0.00029567)
(0.0437457 0 0.000355399)
(0.0461233 0 0.000423507)
(0.0482177 0 0.000500812)
(0.0500784 0 0.000588045)
(0.0517502 0 0.000685537)
(0.0532781 0 0.000793394)
(0.0547136 0 0.000911928)
(0.056106 0 0.00104113)
(0.0575009 0 0.00118034)
(0.0589439 0 0.00132841)
(0.0604796 0 0.00148359)
(0.0621509 0 0.00164348)
(0.0639971 0 0.00180506)
(0.066052 0 0.00196481)
(0.06834 0 0.0021191)
(0.0708708 0 0.00226493)
(0.0736316 0 0.00240117)
(0.0765764 0 0.00253008)
(0.0795927 0 0.00265611)
(0.0824606 0 0.00277835)
(0.084835 0 0.00286665)
(0.0866181 0 0.00300928)
(0 0 0)
(0.00759924 0 2.93478e-05)
(0.0145182 0 5.80578e-05)
(0.0206148 0 8.71338e-05)
(0.0259808 0 0.000118102)
(0.0307006 0 0.000152209)
(0.0348505 0 0.000190516)
(0.0384999 0 0.000233954)
(0.0417125 0 0.00028336)
(0.0445478 0 0.000339482)
(0.0470612 0 0.000402983)
(0.0493054 0 0.000474421)
(0.051331 0 0.000554223)
(0.053183 0 0.000642437)
(0.0549085 0 0.000738742)
(0.0565606 0 0.00084287)
(0.0581879 0 0.000954238)
(0.0598355 0 0.00107157)
(0.0615486 0 0.001193)
(0.0633707 0 0.00131604)
(0.0653435 0 0.00143749)
(0.067505 0 0.00155351)
(0.0698877 0 0.00165976)
(0.0725159 0 0.00175185)
(0.075402 0 0.00182618)
(0.0785404 0 0.00188159)
(0.081902 0 0.00192251)
(0.0853995 0 0.00196404)
(0.0888423 0 0.00203447)
(0.0918605 0 0.00214224)
(0.0953975 0 0.00249057)
(0 0 0)
(0.00767305 0 2.78637e-05)
(0.0146643 0 5.51102e-05)
(0.0208339 0 8.26456e-05)
(0.0262764 0 0.000111878)
(0.0310783 0 0.000143956)
(0.0353177 0 0.000179821)
(0.0390652 0 0.000220266)
(0.0423859 0 0.000265963)
(0.0453401 0 0.00031747)
(0.0479841 0 0.000375218)
(0.0503711 0 0.000439492)
(0.0525517 0 0.000510395)
(0.0545714 0 0.00058771)
(0.0564795 0 0.000670742)
(0.058328 0 0.000758641)
(0.0601635 0 0.000850265)
(0.06203 0 0.000943771)
(0.0639704 0 0.00103668)
(0.0660255 0 0.00112579)
(0.0682336 0 0.00120716)
(0.0706281 0 0.0012761)
(0.0732367 0 0.00132724)
(0.0760786 0 0.00135471)
(0.079161 0 0.00135246)
(0.0824751 0 0.00131473)
(0.0859895 0 0.00123653)
(0.0896225 0 0.00111433)
(0.0932225 0 0.000936717)
(0.0965375 0 0.000636136)
(0.1042 0 0.00193432)
(0 0 0)
(0.00280455 0 0)
(0.00502121 0 0)
(0.00823809 0 0)
(0.0121047 0 0)
(0.0163361 0 0)
(0.0207009 0 0)
(0.0250139 0 0)
(0.0291325 0 0)
(0.0329523 0 0)
(0.0364025 0 0)
(0.0394379 0 0)
(0.0420306 0 0)
(0.044165 0 0)
(0.0458332 0 0)
(0.0470307 0 0)
(0.0477544 0 0)
(0.0480002 0 0)
(0.0477616 0 0)
(0.0470295 0 0)
(0.0457908 0 0)
(0.0440284 0 0)
(0.0417212 0 0)
(0.0388439 0 0)
(0.0353667 0 0)
(0.0312561 0 0)
(0.0264748 0 0)
(0.0209822 0 0)
(0.0147353 0 0)
(0.00768746 0 0)
(0 0 0)
(0.00139467 0 -0.00143552)
(0.00374357 0 -0.0012727)
(0.00589887 0 -0.00122764)
(0.00904294 0 -0.00116936)
(0.0128366 0 -0.00111006)
(0.0169968 0 -0.00105181)
(0.0212926 0 -0.000994284)
(0.0255391 0 -0.000936969)
(0.0295942 0 -0.000879621)
(0.0333541 0 -0.000822351)
(0.036749 0 -0.000765616)
(0.0397344 0 -0.00071008)
(0.0422829 0 -0.000656382)
(0.0443786 0 -0.000604951)
(0.0460131 0 -0.00055606)
(0.0471817 0 -0.000509853)
(0.0478808 0 -0.000466339)
(0.0481056 0 -0.000425435)
(0.0478493 0 -0.000386981)
(0.0471023 0 -0.00035076)
(0.045851 0 -0.00031651)
(0.0440781 0 -0.000283935)
(0.041762 0 -0.000252706)
(0.0388771 0 -0.000222468)
(0.0353936 0 -0.000192833)
(0.0312775 0 -0.000163373)
(0.0264914 0 -0.000133609)
(0.0209944 0 -0.000102997)
(0.0147435 0 -7.08985e-05)
(0.00769156 0 -3.65471e-05)
(0 0 0)
(0.00437148 0 -0.00260387)
(0.00639419 0 -0.00243306)
(0.00842055 0 -0.00237033)
(0.0113843 0 -0.00227811)
(0.0149817 0 -0.0021763)
(0.018942 0 -0.00207069)
(0.0230395 0 -0.00196272)
(0.0270925 0 -0.00185287)
(0.030961 0 -0.00174152)
(0.0345444 0 -0.00162943)
(0.0377759 0 -0.00151783)
(0.0406138 0 -0.00140834)
(0.0430314 0 -0.00130238)
(0.0450123 0 -0.00120081)
(0.0465473 0 -0.00110417)
(0.0476304 0 -0.0010128)
(0.0482564 0 -0.000926688)
(0.0484192 0 -0.000845694)
(0.0481105 0 -0.000769503)
(0.0473192 0 -0.000697691)
(0.0460307 0 -0.000629745)
(0.0442264 0 -0.000565078)
(0.0418839 0 -0.000503046)
(0.0389767 0 -0.000442947)
(0.0354742 0 -0.000384013)
(0.0313418 0 -0.000325397)
(0.0265413 0 -0.000266152)
(0.0210315 0 -0.000205193)
(0.0147684 0 -0.000141259)
(0.00770422 0 -7.28208e-05)
(0 0 0)
(0.00871998 0 -0.00357072)
(0.0104435 0 -0.00344648)
(0.0123402 0 -0.00339311)
(0.0150773 0 -0.00329435)
(0.0183995 0 -0.00317122)
(0.0220622 0 -0.00303328)
(0.025854 0 -0.00288532)
(0.0296026 0 -0.00273049)
(0.0331736 0 -0.00257068)
(0.0364729 0 -0.00240789)
(0.039441 0 -0.00224468)
(0.0420408 0 -0.00208405)
(0.0442476 0 -0.00192853)
(0.0460432 0 -0.00177923)
(0.0474172 0 -0.00163703)
(0.0483619 0 -0.00150245)
(0.0488695 0 -0.00137551)
(0.0489317 0 -0.00125598)
(0.0485378 0 -0.00114343)
(0.0476745 0 -0.00103724)
(0.0463253 0 -0.000936655)
(0.0444699 0 -0.000840829)
(0.0420843 0 -0.000748815)
(0.0391405 0 -0.00065958)
(0.0356068 0 -0.000571995)
(0.0314476 0 -0.000484812)
(0.0266236 0 -0.000396629)
(0.0210925 0 -0.000305841)
(0.0148093 0 -0.000210574)
(0.00772506 0 -0.000108564)
(0 0 0)
(0.0141165 0 -0.00441108)
(0.0156219 0 -0.00433904)
(0.0174054 0 -0.00430543)
(0.0199045 0 -0.0042154)
(0.0229086 0 -0.00408573)
(0.0262064 0 -0.00392772)
(0.0296102 0 -0.0037494)
(0.0329601 0 -0.00355655)
(0.0361343 0 -0.00335359)
(0.0390555 0 -0.00314502)
(0.0416751 0 -0.00293506)
(0.0439605 0 -0.00272777)
(0.0458867 0 -0.0025265)
(0.0474343 0 -0.00233283)
(0.0485925 0 -0.00214808)
(0.0493517 0 -0.00197311)
(0.0497004 0 -0.00180781)
(0.0496272 0 -0.00165196)
(0.0491184 0 -0.001505)
(0.048158 0 -0.00136616)
(0.0467266 0 -0.00123446)
(0.0448019 0 -0.00110881)
(0.0423576 0 -0.000987988)
(0.0393642 0 -0.000870659)
(0.0357881 0 -0.000755356)
(0.0315922 0 -0.000640451)
(0.0267361 0 -0.000524114)
(0.0211758 0 -0.000404242)
(0.0148652 0 -0.000278375)
(0.00775353 0 -0.000143536)
(0 0 0)
(0.0203629 0 -0.00518556)
(0.0217077 0 -0.0051472)
(0.0233943 0 -0.00513125)
(0.0256558 0 -0.00505262)
(0.0283174 0 -0.00492199)
(0.0312045 0 -0.00475036)
(0.0341528 0 -0.00454741)
(0.0370205 0 -0.00432098)
(0.0397163 0 -0.00407914)
(0.0421855 0 -0.00382955)
(0.0443895 0 -0.00357827)
(0.046298 0 -0.00332983)
(0.0478857 0 -0.00308775)
(0.0491352 0 -0.00285448)
(0.0500342 0 -0.00263153)
(0.0505686 0 -0.00241971)
(0.0507237 0 -0.00221914)
(0.0504853 0 -0.00202974)
(0.049836 0 -0.00185085)
(0.0487564 0 -0.00168153)
(0.0472241 0 -0.00152064)
(0.0452139 0 -0.00136685)
(0.0426973 0 -0.00121872)
(0.0396424 0 -0.00107462)
(0.0360137 0 -0.000932786)
(0.0317724 0 -0.00079124)
(0.0268762 0 -0.000647752)
(0.0212797 0 -0.00049975)
(0.0149349 0 -0.000344224)
(0.00778898 0 -0.000177515)
(0 0 0)
(0.0273164 0 -0.00592287)
(0.0285265 0 -0.00589648)
(0.0301204 0 -0.00589084)
(0.0321405 0 -0.00581895)
(0.0344391 0 -0.00568574)
(0.0368741 0 -0.00550086)
(0.0393058 0 -0.0052747)
(0.0416289 0 -0.00501765)
(0.0437902 0 -0.00474122)
(0.0457522 0 -0.00445511)
(0.0474857 0 -0.00416699)
(0.0489661 0 -0.00388219)
(0.0501713 0 -0.00360456)
(0.051086 0 -0.00333717)
(0.0516931 0 -0.00308134)
(0.0519734 0 -0.00283744)
(0.051909 0 -0.00260563)
(0.0514816 0 -0.00238595)
(0.050671 0 -0.00217801)
(0.0494541 0 -0.00198078)
(0.0478052 0 -0.00179295)
(0.045696 0 -0.00161304)
(0.0430953 0 -0.00143935)