/*--------------------------------*- C++ -*----------------------------------*\
| =========                 |                                                 |
| \\      /  F ield         | OpenFOAM: The Open Source CFD Toolbox           |
|  \\    /   O peration     | Version:  dev                                   |
|   \\  /    A nd           | Web:      www.OpenFOAM.org                      |
|    \\/     M anipulation  |                                                 |
\*---------------------------------------------------------------------------*/
FoamFile
{
    version     2.0;
    format      ascii;
    class       volScalarField;
    location    "1.21";
    object      p;
}
// * * * * * * * * * * * * * * * * * * * * * * * * * * * * * * * * * * * * * //

dimensions      [0 2 -2 0 0 0 0];

internalField   nonuniform List<scalar> 
465
(
121.639
121.493
121.62
121.971
122.453
123.034
123.713
124.491
125.368
126.345
127.424
128.606
129.894
131.288
132.791
134.401
136.117
137.936
139.849
141.846
143.913
121.488
121.437
121.584
121.933
122.413
122.993
123.669
124.443
125.316
126.288
127.36
128.534
129.813
131.197
132.688
134.285
135.987
137.789
139.685
141.665
143.714
121.35
121.371
121.536
121.877
122.35
122.922
123.589
124.352
125.212
126.168
127.222
128.375
129.629
130.984
132.44
133.998
135.654
137.404
139.24
141.152
143.125
121.21
121.27
121.449
121.784
122.247
122.81
123.466
124.216
125.059
125.995
127.024
128.149
129.368
130.683
132.093
133.595
135.187
136.861
138.609
140.419
142.275
121.062
121.142
121.333
121.665
122.118
122.67
123.312
124.043
124.864
125.774
126.773
127.861
129.037
130.302
131.652
133.086
134.596
136.176
137.814
139.496
141.202
120.899
120.991
121.19
121.518
121.96
122.498
123.122
123.831
124.626
125.505
126.467
127.511
128.637
129.843
131.124
132.477
133.894
135.364
136.874
138.406
139.937
120.721
120.819
121.022
121.345
121.775
122.295
122.898
123.583
124.347
125.19
126.11
127.106
128.174
129.313
130.517
131.779
133.09
134.437
135.805
137.17
138.506
120.526
120.627
120.831
121.146
121.562
122.063
122.644
123.3
124.03
124.833
125.706
126.647
127.652
128.716
129.834
130.997
132.194
133.408
134.62
135.804
136.928
120.314
120.416
120.617
120.924
121.324
121.805
122.359
122.983
123.677
124.436
125.258
126.138
127.074
128.059
129.085
130.141
131.214
132.286
133.333
134.326
135.225
120.084
120.186
120.382
120.679
121.062
121.52
122.045
122.636
123.29
124.001
124.768
125.585
126.447
127.347
128.275
129.218
130.162
131.084
131.959
132.752
133.417
119.838
119.938
120.129
120.413
120.777
121.21
121.706
122.261
122.871
123.533
124.241
124.99
125.775
126.585
127.411
128.238
129.047
129.816
130.513
131.1
131.528
119.577
119.674
119.857
120.127
120.472
120.879
121.342
121.858
122.424
123.033
123.68
124.359
125.063
125.781
126.502
127.208
127.88
128.492
129.009
129.39
129.579
119.3
119.394
119.568
119.823
120.146
120.526
120.956
121.432
121.951
122.505
123.089
123.696
124.317
124.941
125.554
126.139
126.672
127.126
127.464
127.639
127.592
119.009
119.1
119.264
119.502
119.804
120.154
120.55
120.985
121.454
121.952
122.472
123.005
123.542
124.071
124.576
125.038
125.433
125.731
125.892
125.866
125.591
118.705
118.792
118.945
119.167
119.445
119.766
120.125
120.518
120.938
121.379
121.833
122.292
122.744
123.178
123.575
123.916
124.175
124.32
124.309
124.091
123.599
118.608
118.811
119.064
119.355
119.677
120.026
120.395
120.777
121.164
121.547
121.913
122.25
122.539
122.759
122.883
122.878
122.699
122.295
121.597
118.431
118.659
118.917
119.2
119.503
119.819
120.14
120.458
120.763
121.043
121.282
121.462
121.561
121.553
121.4
121.061
120.481
119.593
118.231
118.455
118.698
118.954
119.216
119.475
119.724
119.95
120.142
120.284
120.357
120.338
120.2
119.907
119.417
118.677
117.619
117.971
118.173
118.381
118.588
118.785
118.964
119.112
119.217
119.263
119.231
119.099
118.838
118.413
117.784
116.901
115.701
117.626
117.787
117.938
118.073
118.182
118.253
118.272
118.225
118.093
117.853
117.476
116.931
116.179
115.174
113.859
117.172
117.268
117.342
117.382
117.377
117.314
117.178
116.95
116.608
116.126
115.474
114.616
113.511
112.11
116.595
116.569
116.49
116.348
116.127
115.81
115.375
114.798
114.053
113.106
111.924
110.464
115.746
115.597
115.38
115.081
114.681
114.162
113.502
112.677
111.66
110.42
108.929
114.416
114.044
113.57
112.976
112.244
111.355
110.284
109.007
107.504
112.482
111.824
111.033
110.093
108.982
107.685
106.188
110.713
109.874
108.895
107.758
106.455
104.976
107.762
106.612
105.314
103.862
104.259
102.84
)
;

boundaryField
{
    inlet
    {
        type            zeroGradient;
    }
    outlet
    {
        type            fixedValue;
        value           nonuniform 0();
    }
    flap
    {
        type            zeroGradient;
    }
    upperWall
    {
        type            zeroGradient;
    }
    lowerWall
    {
        type            zeroGradient;
    }
    frontAndBack
    {
        type            empty;
    }
    procBoundary3to0
    {
        type            processor;
        value           nonuniform List<scalar> 
34
(
118.383
118.466
118.466
118.247
118.247
118.03
118.03
117.781
117.781
117.466
117.466
117.061
117.061
116.541
116.583
116.583
115.837
115.837
114.918
114.703
114.703
113.461
113.023
113.023
111.425
111.425
109.645
108.769
108.769
106.697
105.544
105.544
103.286
101.905
)
;
    }
    procBoundary3to1
    {
        type            processor;
        value           nonuniform List<scalar> 9(112.167 110.359 108.69 107.156 105.754 104.475 103.309 102.249 101.284);
    }
    procBoundary3to4
    {
        type            processor;
        value           nonuniform List<scalar> 
19
(
146.027
145.812
145.138
144.154
142.908
141.437
139.775
137.947
135.979
133.898
131.73
129.502
127.243
124.98
122.742
120.513
118.305
116.159
114.105
)
;
    }
}


// ************************************************************************* //
