/*--------------------------------*- C++ -*----------------------------------*\
| =========                 |                                                 |
| \\      /  F ield         | OpenFOAM: The Open Source CFD Toolbox           |
|  \\    /   O peration     | Version:  dev                                   |
|   \\  /    A nd           | Web:      www.OpenFOAM.org                      |
|    \\/     M anipulation  |                                                 |
\*---------------------------------------------------------------------------*/
FoamFile
{
    version     2.0;
    format      ascii;
    class       volScalarField;
    location    "1.21";
    object      p;
}
// * * * * * * * * * * * * * * * * * * * * * * * * * * * * * * * * * * * * * //

dimensions      [0 2 -2 0 0 0 0];

internalField   nonuniform List<scalar> 
465
(
133.78
133.623
133.771
134.185
134.763
135.466
136.289
137.231
138.29
139.463
140.749
142.146
143.653
145.268
146.989
148.813
150.734
152.743
154.828
156.972
159.153
133.622
133.561
133.729
134.14
134.717
135.418
136.237
137.175
138.229
139.397
140.675
142.064
143.561
145.166
146.876
148.688
150.596
152.592
154.664
156.796
158.966
133.472
133.484
133.67
134.072
134.639
135.332
136.141
137.066
138.106
139.256
140.515
141.881
143.353
144.927
146.603
148.376
150.24
152.186
154.204
156.277
158.385
133.317
133.366
133.565
133.96
134.516
135.198
135.995
136.904
137.924
139.052
140.285
141.62
143.055
144.588
146.216
147.934
149.735
151.61
153.547
155.53
157.539
133.147
133.216
133.426
133.816
134.361
135.029
135.809
136.698
137.693
138.792
139.99
141.286
142.676
144.157
145.724
147.373
149.095
150.88
152.716
154.584
156.465
132.958
133.038
133.254
133.639
134.171
134.822
135.58
136.444
137.41
138.474
139.632
140.881
142.217
143.636
145.132
146.7
148.33
150.01
151.727
153.461
155.191
132.749
132.833
133.053
133.43
133.946
134.577
135.312
136.146
137.078
138.101
139.213
140.409
141.683
143.032
144.448
145.924
147.449
149.012
150.594
152.177
153.735
132.518
132.604
132.822
133.19
133.689
134.298
135.005
135.806
136.699
137.677
138.737
139.873
141.079
142.349
143.676
145.051
146.462
147.894
149.328
150.744
152.112
132.265
132.351
132.564
132.921
133.401
133.984
134.661
135.426
136.276
137.205
138.207
139.277
140.408
141.593
142.823
144.088
145.374
146.665
147.94
149.174
150.335
131.991
132.075
132.281
132.624
133.083
133.639
134.283
135.008
135.811
136.686
137.627
138.626
139.676
140.77
141.896
143.043
144.196
145.336
146.44
147.479
148.418
131.696
131.776
131.974
132.301
132.738
133.265
133.872
134.554
135.308
136.125
137
137.924
138.889
139.885
140.901
141.924
142.936
143.917
144.84
145.673
146.377
131.381
131.457
131.645
131.954
132.366
132.862
133.431
134.068
134.769
135.526
136.331
137.176
138.051
138.945
139.846
140.739
141.605
142.418
143.153
143.771
144.228
131.047
131.119
131.294
131.585
131.971
132.434
132.963
133.552
134.197
134.891
135.624
136.386
137.168
137.957
138.739
139.498
140.212
140.854
141.394
141.79
141.99
130.695
130.762
130.925
131.195
131.554
131.982
132.469
133.009
133.597
134.225
134.883
135.56
136.246
136.927
137.588
138.21
138.768
139.236
139.577
139.746
139.685
130.327
130.388
130.537
130.787
131.117
131.509
131.952
132.442
132.971
133.532
134.113
134.704
135.292
135.863
136.401
136.884
137.287
137.579
137.721
137.663
137.341
130.126
130.353
130.653
131.008
131.406
131.842
132.31
132.801
133.304
133.805
134.293
134.752
135.164
135.506
135.75
135.865
135.806
135.521
134.939
129.889
130.158
130.473
130.824
131.204
131.609
132.027
132.448
132.857
133.242
133.586
133.869
134.068
134.153
134.089
133.831
133.322
132.489
129.635
129.908
130.21
130.534
130.873
131.217
131.554
131.869
132.149
132.377
132.531
132.586
132.513
132.274
131.823
131.102
130.036
129.316
129.568
129.833
130.105
130.373
130.625
130.845
131.02
131.132
131.158
131.073
130.846
130.44
129.807
128.891
127.62
128.899
129.104
129.308
129.5
129.666
129.792
129.863
129.86
129.762
129.541
129.167
128.604
127.805
126.718
125.277
128.351
128.486
128.601
128.683
128.715
128.684
128.57
128.351
128.001
127.491
126.784
125.84
124.608
123.035
127.681
127.68
127.621
127.49
127.269
126.937
126.467
125.832
124.999
123.93
122.583
120.914
126.663
126.515
126.29
125.968
125.529
124.95
124.204
123.261
122.091
120.658
118.926
125.09
124.674
124.139
123.461
122.618
121.585
120.336
118.841
117.074
122.774
122.011
121.086
119.981
118.672
117.137
115.357
120.607
119.616
118.454
117.103
115.547
113.773
117.008
115.631
114.069
112.314
112.7
110.974
)
;

boundaryField
{
    inlet
    {
        type            zeroGradient;
    }
    outlet
    {
        type            fixedValue;
        value           nonuniform 0();
    }
    flap
    {
        type            zeroGradient;
    }
    upperWall
    {
        type            zeroGradient;
    }
    lowerWall
    {
        type            zeroGradient;
    }
    frontAndBack
    {
        type            empty;
    }
    procBoundary3to0
    {
        type            processor;
        value           nonuniform List<scalar> 
34
(
129.937
129.992
129.992
129.687
129.687
129.4
129.4
129.085
129.085
128.698
128.698
128.205
128.205
127.575
127.642
127.642
126.746
126.746
125.637
125.406
125.406
123.9
123.397
123.397
121.445
121.445
119.258
118.213
118.213
115.647
114.256
114.256
111.434
109.744
)
;
    }
    procBoundary3to1
    {
        type            processor;
        value           nonuniform List<scalar> 9(123.405 121.055 118.871 116.856 115.006 113.314 111.769 110.36 109.076);
    }
    procBoundary3to4
    {
        type            processor;
        value           nonuniform List<scalar> 
19
(
161.342
161.148
160.501
159.548
158.333
156.888
155.237
153.397
151.384
149.212
146.899
144.463
141.927
139.318
136.671
133.969
131.235
128.53
125.906
)
;
    }
}


// ************************************************************************* //
