/*--------------------------------*- C++ -*----------------------------------*\
| =========                 |                                                 |
| \\      /  F ield         | OpenFOAM: The Open Source CFD Toolbox           |
|  \\    /   O peration     | Version:  dev                                   |
|   \\  /    A nd           | Web:      www.OpenFOAM.org                      |
|    \\/     M anipulation  |                                                 |
\*---------------------------------------------------------------------------*/
FoamFile
{
    version     2.0;
    format      ascii;
    class       pointVectorField;
    location    "0.49";
    object      pointDisplacement;
}
// * * * * * * * * * * * * * * * * * * * * * * * * * * * * * * * * * * * * * //

dimensions      [0 1 0 0 0 0 0];

internalField   nonuniform List<vector> 
5828
(
(0 0 0)
(0.00765423 0 0)
(0.01459 0 0)
(0.0206468 0 0)
(0.0259059 0 0)
(0.0304417 0 0)
(0.0343214 0 0)
(0.0376037 0 0)
(0.0403385 0 0)
(0.0425698 0 0)
(0.0443349 0 0)
(0.0456646 0 0)
(0.0465839 0 0)
(0.0471123 0 0)
(0.0472639 0 0)
(0.0470477 0 0)
(0.0464686 0 0)
(0.0455261 0 0)
(0.0442142 0 0)
(0.0425234 0 0)
(0.0404413 0 0)
(0.037954 0 0)
(0.0350484 0 0)
(0.031716 0 0)
(0.0279581 0 0)
(0.0238058 0 0)
(0.0193417 0 0)
(0.0147322 0 0)
(0.010306 0 0)
(0.00683187 0 0)
(0 0 0)
(0 0 0)
(0.00765513 0 -2.03759e-05)
(0.0145925 0 -3.912e-05)
(0.0206515 0 -5.60257e-05)
(0.0259132 0 -7.14508e-05)
(0.0304516 0 -8.5592e-05)
(0.0343347 0 -9.85678e-05)
(0.0376212 0 -0.000110532)
(0.0403609 0 -0.000121404)
(0.0425981 0 -0.000130994)
(0.0443705 0 -0.000139104)
(0.0457092 0 -0.000145356)
(0.0466396 0 -0.00014924)
(0.0471817 0 -0.000150057)
(0.0473501 0 -0.000146857)
(0.0471547 0 -0.000138384)
(0.046601 0 -0.000123042)
(0.0456905 0 -9.8715e-05)
(0.044419 0 -6.26569e-05)
(0.0427789 0 -1.14287e-05)
(0.0407608 0 5.93251e-05)
(0.0383544 0 0.000155061)
(0.0355522 0 0.000282539)
(0.0323532 0 0.000450127)
(0.0287663 0 0.000668588)
(0.0248299 0 0.000952058)
(0.0206415 0 0.00131774)
(0.0163939 0 0.00178524)
(0.0124616 0 0.00236592)
(0.00962569 0 0.00300322)
(0.0051518 0 0.00442986)
(0 0 0)
(0.00765888 0 -4.07847e-05)
(0.014601 0 -7.83115e-05)
(0.0206665 0 -0.00011217)
(0.0259356 0 -0.000143099)
(0.0304818 0 -0.000171477)
(0.0343747 0 -0.000197513)
(0.0376735 0 -0.000221454)
(0.0404275 0 -0.000243242)
(0.0426822 0 -0.000262625)
(0.0444764 0 -0.000279148)
(0.0458418 0 -0.000292063)
(0.0468048 0 -0.000300405)
(0.0473872 0 -0.000302836)
(0.0476053 0 -0.000297549)
(0.0474713 0 -0.000282137)
(0.0469935 0 -0.000253459)
(0.0461774 0 -0.000207647)
(0.0450244 0 -0.000139674)
(0.0435329 0 -4.29951e-05)
(0.0417015 0 9.05082e-05)
(0.0395305 0 0.000270898)
(0.0370266 0 0.000510418)
(0.0342081 0 0.000823869)
(0.0311077 0 0.00122938)
(0.0277897 0 0.00174756)
(0.0243821 0 0.00239994)
(0.0211175 0 0.003204)
(0.0184283 0 0.00414384)
(0.0170421 0 0.00507355)
(0.0148042 0 0.00668524)
(0 0 0)
(0.00766527 0 -6.12254e-05)
(0.0146153 0 -0.000117576)
(0.0206916 0 -0.000168438)
(0.0259733 0 -0.000214896)
(0.0305319 0 -0.000257547)
(0.0344394 0 -0.000296733)
(0.0377575 0 -0.000332692)
(0.0405358 0 -0.000365521)
(0.0428201 0 -0.000395069)
(0.0446499 0 -0.000420547)
(0.0460585 0 -0.000440865)
(0.0470748 0 -0.000454719)
(0.0477225 0 -0.00046026)
(0.0480212 0 -0.000454996)
(0.0479869 0 -0.000435629)
(0.0476325 0 -0.000397854)
(0.0469693 0 -0.000336361)
(0.0460067 0 -0.000244359)
(0.0447531 0 -0.000113127)
(0.0432189 0 6.80487e-05)
(0.0414189 0 0.00031225)
(0.0393811 0 0.000634767)
(0.0371494 0 0.00105305)
(0.0347881 0 0.00158636)
(0.0323983 0 0.00225258)
(0.0301409 0 0.00306331)
(0.0282586 0 0.00401271)
(0.0271425 0 0.00503414)
(0.0273061 0 0.00591157)
(0.0270529 0 0.00721807)
(0 0 0)
(0.00767438 0 -8.16638e-05)
(0.0146351 0 -0.00015685)
(0.0207251 0 -0.000224729)
(0.0260231 0 -0.000286619)
(0.0305994 0 -0.000343487)
(0.0345272 0 -0.000395937)
(0.0378715 0 -0.000444205)
(0.0406837 0 -0.000488513)
(0.043009 0 -0.000528637)
(0.0448869 0 -0.000563673)
(0.0463541 0 -0.000592409)
(0.0474422 0 -0.00061324)
(0.0481779 0 -0.000623972)
(0.0485847 0 -0.00062167)
(0.0486836 0 -0.000602479)
(0.0484935 0 -0.000561412)
(0.0480334 0 -0.000492232)
(0.0473222 0 -0.000387109)
(0.0463809 0 -0.000236326)
(0.0452349 0 -2.81464e-05)
(0.0439166 0 0.000251545)
(0.0424767 0 0.000618349)
(0.0409864 0 0.0010881)
(0.0395382 0 0.00167546)
(0.0382623 0 0.00238892)
(0.0373368 0 0.00322166)
(0.0369823 0 0.00413729)
(0.0374489 0 0.00502909)
(0.0389203 0 0.00567193)
(0.040172 0 0.0065019)
(0 0 0)
(0.00768621 0 -0.000102044)
(0.01466 0 -0.00019603)
(0.0207649 0 -0.000280903)
(0.0260818 0 -0.000358246)
(0.0306822 0 -0.000429378)
(0.0346375 0 -0.000495215)
(0.038015 0 -0.000556131)
(0.0408686 0 -0.000612266)
(0.0432433 0 -0.000663291)
(0.0451809 0 -0.000708624)
(0.0467207 0 -0.000747027)
(0.0478968 0 -0.000776595)
(0.0487398 0 -0.000795008)
(0.0492776 0 -0.000799178)
(0.0495367 0 -0.000785069)
(0.0495431 0 -0.000747474)
(0.0493241 0 -0.00067994)
(0.0489096 0 -0.00057455)
(0.048334 0 -0.00042176)
(0.0476392 0 -0.000210369)
(0.0468794 0 7.24221e-05)
(0.0461242 0 0.000440117)
(0.0454637 0 0.000904171)
(0.0450138 0 0.00147122)
(0.0449168 0 0.00213756)
(0.0453373 0 0.0028785)
(0.0464349 0 0.0036354)
(0.0482709 0 0.00429126)
(0.0506764 0 0.004664)
(0.0529746 0 0.00509516)
(0 0 0)
(0.00770068 0 -0.000122222)
(0.0146901 0 -0.000234838)
(0.0208118 0 -0.000336595)
(0.0261496 0 -0.000429459)
(0.0307779 0 -0.000514962)
(0.0347669 0 -0.000594296)
(0.0381835 0 -0.000668098)
(0.0410842 0 -0.000736425)
(0.0435173 0 -0.000799109)
(0.045526 0 -0.00085575)
(0.04715 0 -0.000905096)
(0.0484274 0 -0.000945332)
(0.0493931 0 -0.000974141)
(0.0500797 0 -0.000988583)
(0.0505195 0 -0.000984861)
(0.0507453 0 -0.000958003)
(0.050793 0 -0.000902039)
(0.050703 0 -0.000809863)
(0.0505231 0 -0.00067326)
(0.0503113 0 -0.000483008)
(0.0501412 0 -0.000229386)
(0.0500955 0 9.70055e-05)
(0.0502762 0 0.000501792)
(0.0508113 0 0.000983117)
(0.0518377 0 0.00152683)
(0.0534822 0 0.00209794)
(0.0558135 0 0.00263171)
(0.0586851 0 0.00303102)
(0.0616383 0 0.00317999)
(0.0646265 0 0.00336118)
(0 0 0)
(0.00771728 0 -0.000142047)
(0.0147244 0 -0.000272984)
(0.0208658 0 -0.000391396)
(0.026227 0 -0.000499666)
(0.0308854 0 -0.000599592)
(0.0349125 0 -0.000692586)
(0.038374 0 -0.000779523)
(0.0413283 0 -0.000860694)
(0.0438269 0 -0.00093603)
(0.0459139 0 -0.00100495)
(0.0476311 0 -0.00106652)
(0.0490205 0 -0.00111943)
(0.0501209 0 -0.00116156)
(0.0509697 0 -0.00119027)
(0.0516038 0 -0.00120223)
(0.0520623 0 -0.00119326)
(0.0523891 0 -0.00115847)
(0.0526336 0 -0.00109232)
(0.052854 0 -0.000988707)
(0.0531228 0 -0.000841767)
(0.0535229 0 -0.000645698)
(0.0541447 0 -0.000396199)
(0.055099 0 -9.4163e-05)
(0.056511 0 0.00025172)
(0.0584975 0 0.000621363)
(0.0611337 0 0.000979299)
(0.0643788 0 0.00127238)
(0.0679095 0 0.00144043)
(0.0710869 0 0.00143119)
(0.0745147 0 0.00145467)
(0 0 0)
(0.00773554 0 -0.000161493)
(0.0147622 0 -0.000310423)
(0.0209257 0 -0.000445236)
(0.0263133 0 -0.000568721)
(0.0310048 0 -0.000683022)
(0.0350728 0 -0.000789756)
(0.0385835 0 -0.00089)
(0.0415964 0 -0.000984342)
(0.0441642 0 -0.00107281)
(0.046334 0 -0.00115494)
(0.0481507 0 -0.00123011)
(0.0496592 0 -0.0012975)
(0.0509018 0 -0.00135565)
(0.0519191 0 -0.00140225)
(0.0527521 0 -0.00143461)
(0.0534459 0 -0.00144983)
(0.0540503 0 -0.00144463)
(0.0546213 0 -0.00141556)
(0.0552241 0 -0.00135927)
(0.0559367 0 -0.00127339)
(0.056844 0 -0.00115658)
(0.0580398 0 -0.00101004)
(0.0596329 0 -0.000840297)
(0.0617329 0 -0.000660357)
(0.0644258 0 -0.000491063)
(0.06773 0 -0.000360419)
(0.0715028 0 -0.000297491)
(0.0753254 0 -0.000322669)
(0.0784869 0 -0.000438134)
(0.0821145 0 -0.00051616)
(0 0 0)
(0.00775519 0 -0.000180513)
(0.0148028 0 -0.000347065)
(0.0209903 0 -0.000497978)
(0.0264064 0 -0.000636445)
(0.031133 0 -0.000764939)
(0.0352438 0 -0.000885323)
(0.038806 0 -0.0009989)
(0.04188 0 -0.00110647)
(0.0445202 0 -0.00120836)
(0.046776 0 -0.00130445)
(0.0486956 0 -0.00139446)
(0.0503262 0 -0.00147794)
(0.051712 0 -0.00155396)
(0.0528959 0 -0.00162096)
(0.0539233 0 -0.00167726)
(0.0548432 0 -0.00172139)
(0.0557092 0 -0.00175191)
(0.0565807 0 -0.00176777)
(0.0575256 0 -0.00176873)
(0.058618 0 -0.00175552)
(0.0599381 0 -0.00173094)
(0.0615753 0 -0.00170133)
(0.0636225 0 -0.00167714)
(0.0661628 0 -0.00167297)
(0.0692444 0 -0.0017063)
(0.0728344 0 -0.00179302)
(0.0767396 0 -0.00193767)
(0.0805282 0 -0.00212552)
(0.0834981 0 -0.00231844)
(0.0870939 0 -0.00249205)
(0 0 0)
(0.0077759 0 -0.000199056)
(0.0148456 0 -0.000382807)
(0.0210582 0 -0.000549466)
(0.0265042 0 -0.000702615)
(0.0312672 0 -0.000845061)
(0.0354222 0 -0.000978929)
(0.0390372 0 -0.00110577)
(0.0421738 0 -0.00122665)
(0.0448879 0 -0.00134218)
(0.0472311 0 -0.00145267)
(0.0492541 0 -0.0015583)
(0.0510051 0 -0.00165889)
(0.0525291 0 -0.00175389)
(0.0538718 0 -0.00184279)
(0.0550812 0 -0.00192514)
(0.0562079 0 -0.00200079)
(0.0573063 0 -0.00207011)
(0.0584352 0 -0.00213429)
(0.059659 0 -0.00219581)
(0.0610442 0 -0.0022585)
(0.0626605 0 -0.00232864)
(0.0645806 0 -0.002416)
(0.0668719 0 -0.00253324)
(0.0695832 0 -0.00269467)
(0.0727233 0 -0.00291286)
(0.0762263 0 -0.00319178)
(0.0798994 0 -0.0035167)
(0.083362 0 -0.00384503)
(0.0859995 0 -0.00410506)
(0.0893326 0 -0.0043962)
(0 0 0)
(0.00779727 0 -0.000217076)
(0.0148896 0 -0.000417548)
(0.0211277 0 -0.000599531)
(0.0266043 0 -0.000766994)
(0.0314041 0 -0.000923063)
(0.0356036 0 -0.00107014)
(0.0392716 0 -0.00121004)
(0.0424707 0 -0.00134408)
(0.0452583 0 -0.0014732)
(0.0476876 0 -0.00159807)
(0.0498102 0 -0.00171926)
(0.0516746 0 -0.00183698)
(0.0533275 0 -0.00195129)
(0.054816 0 -0.00206257)
(0.0561885 0 -0.00217144)
(0.0574949 0 -0.00227899)
(0.0587875 0 -0.00238712)
(0.0601208 0 -0.00249884)
(0.061551 0 -0.00261866)
(0.063134 0 -0.00275288)
(0.0649236 0 -0.00291022)
(0.0669681 0 -0.00310205)
(0.0693031 0 -0.00334159)
(0.0719399 0 -0.00364179)
(0.0748515 0 -0.00401092)
(0.0779531 0 -0.00444488)
(0.0810791 0 -0.00491618)
(0.0839479 0 -0.00536299)
(0.0861141 0 -0.00568661)
(0.0889126 0 -0.00608843)
(0 0 0)
(0.00781848 0 -0.000234401)
(0.0149331 0 -0.000450952)
(0.0211966 0 -0.000647676)
(0.0267032 0 -0.000828914)
(0.0315394 0 -0.000998105)
(0.0357825 0 -0.00115792)
(0.0395022 0 -0.00131043)
(0.042762 0 -0.00145721)
(0.0456201 0 -0.00159951)
(0.0481309 0 -0.00173832)
(0.050346 0 -0.00187449)
(0.0523145 0 -0.00200875)
(0.0540837 0 -0.00214184)
(0.0557007 0 -0.0022748)
(0.0572127 0 -0.00240911)
(0.0586673 0 -0.00254688)
(0.0601123 0 -0.00269118)
(0.0615954 0 -0.00284625)
(0.0631626 0 -0.00301789)
(0.0648554 0 -0.00321369)
(0.0667079 0 -0.00344323)
(0.0687422 0 -0.0037179)
(0.0709608 0 -0.00404993)
(0.0733389 0 -0.00445008)
(0.0758164 0 -0.00492347)
(0.078295 0 -0.00546257)
(0.0806411 0 -0.0060362)
(0.0826902 0 -0.00657493)
(0.0842261 0 -0.00696016)
(0.0862267 0 -0.00743872)
(0 0 0)
(0.00783857 0 -0.000250874)
(0.0149744 0 -0.00048271)
(0.021262 0 -0.000693449)
(0.0267976 0 -0.000887781)
(0.0316686 0 -0.00106944)
(0.0359534 0 -0.00124136)
(0.0397223 0 -0.00140584)
(0.0430395 0 -0.00156474)
(0.0459637 0 -0.00171954)
(0.0485496 0 -0.00187153)
(0.0508489 0 -0.00202188)
(0.0529105 0 -0.00217172)
(0.0547814 0 -0.00232233)
(0.0565075 0 -0.0024753)
(0.0581337 0 -0.00263272)
(0.0597037 0 -0.0027974)
(0.0612598 0 -0.00297307)
(0.0628414 0 -0.00316461)
(0.0644829 0 -0.00337821)
(0.0662109 0 -0.00362155)
(0.06804 0 -0.00390358)
(0.0699675 0 -0.00423417)
(0.0719676 0 -0.00462299)
(0.0739852 0 -0.00507756)
(0.0759335 0 -0.00560028)
(0.0776999 0 -0.00618371)
(0.0791679 0 -0.0068026)
(0.0802597 0 -0.00739768)
(0.080991 0 -0.00784613)
(0.0818818 0 -0.0083863)
(0 0 0)
(0.00785658 0 -0.000266401)
(0.0150116 0 -0.000512648)
(0.0213217 0 -0.000736595)
(0.0268842 0 -0.000943254)
(0.031788 0 -0.00113664)
(0.0361118 0 -0.00131991)
(0.0399267 0 -0.00149561)
(0.0432969 0 -0.00166581)
(0.0462816 0 -0.00183223)
(0.0489353 0 -0.00199639)
(0.0513092 0 -0.00215975)
(0.0534516 0 -0.00232376)
(0.0554084 0 -0.00249004)
(0.0572234 0 -0.00266058)
(0.0589383 0 -0.00283784)
(0.0605925 0 -0.00302492)
(0.0622218 0 -0.00322577)
(0.0638572 0 -0.00344523)
(0.0655219 0 -0.00368911)
(0.067229 0 -0.00396408)
(0.0689767 0 -0.00427733)
(0.0707435 0 -0.00463587)
(0.0724841 0 -0.00504541)
(0.0741251 0 -0.00550878)
(0.0755656 0 -0.00602414)
(0.0766852 0 -0.00658331)
(0.0773693 0 -0.00717035)
(0.0775629 0 -0.00775579)
(0.0774094 0 -0.00825841)
(0.0765757 0 -0.00896199)
(0 0 0)
(0.00787183 0 -0.000281071)
(0.0150436 0 -0.000540907)
(0.0213737 0 -0.000777301)
(0.0269611 0 -0.000995575)
(0.031895 0 -0.00119997)
(0.036255 0 -0.00139388)
(0.0401122 0 -0.00158005)
(0.0435311 0 -0.00176072)
(0.0465704 0 -0.00193782)
(0.0492843 0 -0.00211309)
(0.0517234 0 -0.00228815)
(0.0539346 0 -0.00246469)
(0.0559621 0 -0.00264456)
(0.0578471 0 -0.00282992)
(0.0596278 0 -0.00302333)
(0.0613387 0 -0.00322789)
(0.0630093 0 -0.00344731)
(0.0646625 0 -0.00368586)
(0.0663123 0 -0.00394831)
(0.0679609 0 -0.00423962)
(0.0695948 0 -0.00456439)
(0.071182 0 -0.00492598)
(0.0726685 0 -0.00532521)
(0.0739775 0 -0.00575879)
(0.0750129 0 -0.00621754)
(0.0756675 0 -0.00668415)
(0.0758445 0 -0.0071312)
(0.0754981 0 -0.00751537)
(0.0747489 0 -0.00774841)
(0.0710651 0 -0.00926442)
(0 0 0)
(0.00765423 0 0)
(0.01459 0 0)
(0.0206468 0 0)
(0.0259059 0 0)
(0.0304417 0 0)
(0.0343214 0 0)
(0.0376037 0 0)
(0.0403385 0 0)
(0.0425698 0 0)
(0.0443349 0 0)
(0.0456646 0 0)
(0.0465839 0 0)
(0.0471123 0 0)
(0.0472639 0 0)
(0.0470477 0 0)
(0.0464686 0 0)
(0.0455261 0 0)
(0.0442142 0 0)
(0.0425234 0 0)
(0.0404413 0 0)
(0.037954 0 0)
(0.0350484 0 0)
(0.031716 0 0)
(0.0279581 0 0)
(0.0238058 0 0)
(0.0193417 0 0)
(0.0147322 0 0)
(0.010306 0 0)
(0.00683187 0 0)
(0 0 0)
(0 0 0)
(0.00765513 0 -2.03759e-05)
(0.0145925 0 -3.912e-05)
(0.0206515 0 -5.60257e-05)
(0.0259132 0 -7.14508e-05)
(0.0304516 0 -8.5592e-05)
(0.0343347 0 -9.85678e-05)
(0.0376212 0 -0.000110532)
(0.0403609 0 -0.000121404)
(0.0425981 0 -0.000130994)
(0.0443705 0 -0.000139104)
(0.0457092 0 -0.000145356)
(0.0466396 0 -0.00014924)
(0.0471817 0 -0.000150057)
(0.0473501 0 -0.000146857)
(0.0471547 0 -0.000138384)
(0.046601 0 -0.000123042)
(0.0456905 0 -9.8715e-05)
(0.044419 0 -6.26569e-05)
(0.0427789 0 -1.14287e-05)
(0.0407608 0 5.93251e-05)
(0.0383544 0 0.000155061)
(0.0355522 0 0.000282539)
(0.0323532 0 0.000450127)
(0.0287663 0 0.000668588)
(0.0248299 0 0.000952058)
(0.0206415 0 0.00131774)
(0.0163939 0 0.00178524)
(0.0124616 0 0.00236592)
(0.00962569 0 0.00300322)
(0.0051518 0 0.00442986)
(0 0 0)
(0.00765888 0 -4.07847e-05)
(0.014601 0 -7.83115e-05)
(0.0206665 0 -0.00011217)
(0.0259356 0 -0.000143099)
(0.0304818 0 -0.000171477)
(0.0343747 0 -0.000197513)
(0.0376735 0 -0.000221454)
(0.0404275 0 -0.000243242)
(0.0426822 0 -0.000262625)
(0.0444764 0 -0.000279148)
(0.0458418 0 -0.000292063)
(0.0468048 0 -0.000300405)
(0.0473872 0 -0.000302836)
(0.0476053 0 -0.000297549)
(0.0474713 0 -0.000282137)
(0.0469935 0 -0.000253459)
(0.0461774 0 -0.000207647)
(0.0450244 0 -0.000139674)
(0.0435329 0 -4.29951e-05)
(0.0417015 0 9.05082e-05)
(0.0395305 0 0.000270898)
(0.0370266 0 0.000510418)
(0.0342081 0 0.000823869)
(0.0311077 0 0.00122938)
(0.0277897 0 0.00174756)
(0.0243821 0 0.00239994)
(0.0211175 0 0.003204)
(0.0184283 0 0.00414384)
(0.0170421 0 0.00507355)
(0.0148042 0 0.00668524)
(0 0 0)
(0.00766527 0 -6.12254e-05)
(0.0146153 0 -0.000117576)
(0.0206916 0 -0.000168438)
(0.0259733 0 -0.000214896)
(0.0305319 0 -0.000257547)
(0.0344394 0 -0.000296733)
(0.0377575 0 -0.000332692)
(0.0405358 0 -0.000365521)
(0.0428201 0 -0.000395069)
(0.0446499 0 -0.000420547)
(0.0460585 0 -0.000440865)
(0.0470748 0 -0.000454719)
(0.0477225 0 -0.00046026)
(0.0480212 0 -0.000454996)
(0.0479869 0 -0.000435629)
(0.0476325 0 -0.000397854)
(0.0469693 0 -0.000336361)
(0.0460067 0 -0.000244359)
(0.0447531 0 -0.000113127)
(0.0432189 0 6.80487e-05)
(0.0414189 0 0.00031225)
(0.0393811 0 0.000634767)
(0.0371494 0 0.00105305)
(0.0347881 0 0.00158636)
(0.0323983 0 0.00225258)
(0.0301409 0 0.00306331)
(0.0282586 0 0.00401271)
(0.0271425 0 0.00503414)
(0.0273061 0 0.00591157)
(0.0270529 0 0.00721807)
(0 0 0)
(0.00767438 0 -8.16638e-05)
(0.0146351 0 -0.00015685)
(0.0207251 0 -0.000224729)
(0.0260231 0 -0.000286619)
(0.0305994 0 -0.000343487)
(0.0345272 0 -0.000395937)
(0.0378715 0 -0.000444205)
(0.0406837 0 -0.000488513)
(0.043009 0 -0.000528637)
(0.0448869 0 -0.000563673)
(0.0463541 0 -0.000592409)
(0.0474422 0 -0.00061324)
(0.0481779 0 -0.000623972)
(0.0485847 0 -0.00062167)
(0.0486836 0 -0.000602479)
(0.0484935 0 -0.000561412)
(0.0480334 0 -0.000492232)
(0.0473222 0 -0.000387109)
(0.0463809 0 -0.000236326)
(0.0452349 0 -2.81464e-05)
(0.0439166 0 0.000251545)
(0.0424767 0 0.000618349)
(0.0409864 0 0.0010881)
(0.0395382 0 0.00167546)
(0.0382623 0 0.00238892)
(0.0373368 0 0.00322166)
(0.0369823 0 0.00413729)
(0.0374489 0 0.00502909)
(0.0389203 0 0.00567193)
(0.040172 0 0.0065019)
(0 0 0)
(0.00768621 0 -0.000102044)
(0.01466 0 -0.00019603)
(0.0207649 0 -0.000280903)
(0.0260818 0 -0.000358246)
(0.0306822 0 -0.000429378)
(0.0346375 0 -0.000495215)
(0.038015 0 -0.000556131)
(0.0408686 0 -0.000612266)
(0.0432433 0 -0.000663291)
(0.0451809 0 -0.000708624)
(0.0467207 0 -0.000747027)
(0.0478968 0 -0.000776595)
(0.0487398 0 -0.000795008)
(0.0492776 0 -0.000799178)
(0.0495367 0 -0.000785069)
(0.0495431 0 -0.000747474)
(0.0493241 0 -0.00067994)
(0.0489096 0 -0.00057455)
(0.048334 0 -0.00042176)
(0.0476392 0 -0.000210369)
(0.0468794 0 7.24221e-05)
(0.0461242 0 0.000440117)
(0.0454637 0 0.000904171)
(0.0450138 0 0.00147122)
(0.0449168 0 0.00213756)
(0.0453373 0 0.0028785)
(0.0464349 0 0.0036354)
(0.0482709 0 0.00429126)
(0.0506764 0 0.004664)
(0.0529746 0 0.00509516)
(0 0 0)
(0.00770068 0 -0.000122222)
(0.0146901 0 -0.000234838)
(0.0208118 0 -0.000336595)
(0.0261496 0 -0.000429459)
(0.0307779 0 -0.000514962)
(0.0347669 0 -0.000594296)
(0.0381835 0 -0.000668098)
(0.0410842 0 -0.000736425)
(0.0435173 0 -0.000799109)
(0.045526 0 -0.00085575)
(0.04715 0 -0.000905096)
(0.0484274 0 -0.000945332)
(0.0493931 0 -0.000974141)
(0.0500797 0 -0.000988583)
(0.0505195 0 -0.000984861)
(0.0507453 0 -0.000958003)
(0.050793 0 -0.000902039)
(0.050703 0 -0.000809863)
(0.0505231 0 -0.00067326)
(0.0503113 0 -0.000483008)
(0.0501412 0 -0.000229386)
(0.0500955 0 9.70055e-05)
(0.0502762 0 0.000501792)
(0.0508113 0 0.000983117)
(0.0518377 0 0.00152683)
(0.0534822 0 0.00209794)
(0.0558135 0 0.00263171)
(0.0586851 0 0.00303102)
(0.0616383 0 0.00317999)
(0.0646265 0 0.00336118)
(0 0 0)
(0.00771728 0 -0.000142047)
(0.0147244 0 -0.000272984)
(0.0208658 0 -0.000391396)
(0.026227 0 -0.000499666)
(0.0308854 0 -0.000599592)
(0.0349125 0 -0.000692586)
(0.038374 0 -0.000779523)
(0.0413283 0 -0.000860694)
(0.0438269 0 -0.00093603)
(0.0459139 0 -0.00100495)
(0.0476311 0 -0.00106652)
(0.0490205 0 -0.00111943)
(0.0501209 0 -0.00116156)
(0.0509697 0 -0.00119027)
(0.0516038 0 -0.00120223)
(0.0520623 0 -0.00119326)
(0.0523891 0 -0.00115847)
(0.0526336 0 -0.00109232)
(0.052854 0 -0.000988707)
(0.0531228 0 -0.000841767)
(0.0535229 0 -0.000645698)
(0.0541447 0 -0.000396199)
(0.055099 0 -9.4163e-05)
(0.056511 0 0.00025172)
(0.0584975 0 0.000621363)
(0.0611337 0 0.000979299)
(0.0643788 0 0.00127238)
(0.0679095 0 0.00144043)
(0.0710869 0 0.00143119)
(0.0745147 0 0.00145467)
(0 0 0)
(0.00773554 0 -0.000161493)
(0.0147622 0 -0.000310423)
(0.0209257 0 -0.000445236)
(0.0263133 0 -0.000568721)
(0.0310048 0 -0.000683022)
(0.0350728 0 -0.000789756)
(0.0385835 0 -0.00089)
(0.0415964 0 -0.000984342)
(0.0441642 0 -0.00107281)
(0.046334 0 -0.00115494)
(0.0481507 0 -0.00123011)
(0.0496592 0 -0.0012975)
(0.0509018 0 -0.00135565)
(0.0519191 0 -0.00140225)
(0.0527521 0 -0.00143461)
(0.0534459 0 -0.00144983)
(0.0540503 0 -0.00144463)
(0.0546213 0 -0.00141556)
(0.0552241 0 -0.00135927)
(0.0559367 0 -0.00127339)
(0.056844 0 -0.00115658)
(0.0580398 0 -0.00101004)
(0.0596329 0 -0.000840297)
(0.0617329 0 -0.000660357)
(0.0644258 0 -0.000491063)
(0.06773 0 -0.000360419)
(0.0715028 0 -0.000297491)
(0.0753254 0 -0.000322669)
(0.0784869 0 -0.000438134)
(0.0821145 0 -0.00051616)
(0 0 0)
(0.00775519 0 -0.000180513)
(0.0148028 0 -0.000347065)
(0.0209903 0 -0.000497978)
(0.0264064 0 -0.000636445)
(0.031133 0 -0.000764939)
(0.0352438 0 -0.000885323)
(0.038806 0 -0.0009989)
(0.04188 0 -0.00110647)
(0.0445202 0 -0.00120836)
(0.046776 0 -0.00130445)
(0.0486956 0 -0.00139446)
(0.0503262 0 -0.00147794)
(0.051712 0 -0.00155396)
(0.0528959 0 -0.00162096)
(0.0539233 0 -0.00167726)
(0.0548432 0 -0.00172139)
(0.0557092 0 -0.00175191)
(0.0565807 0 -0.00176777)
(0.0575256 0 -0.00176873)
(0.058618 0 -0.00175552)
(0.0599381 0 -0.00173094)
(0.0615753 0 -0.00170133)
(0.0636225 0 -0.00167714)
(0.0661628 0 -0.00167297)
(0.0692444 0 -0.0017063)
(0.0728344 0 -0.00179302)
(0.0767396 0 -0.00193767)
(0.0805282 0 -0.00212552)
(0.0834981 0 -0.00231844)
(0.0870939 0 -0.00249205)
(0 0 0)
(0.0077759 0 -0.000199056)
(0.0148456 0 -0.000382807)
(0.0210582 0 -0.000549466)
(0.0265042 0 -0.000702615)
(0.0312672 0 -0.000845061)
(0.0354222 0 -0.000978929)
(0.0390372 0 -0.00110577)
(0.0421738 0 -0.00122665)
(0.0448879 0 -0.00134218)
(0.0472311 0 -0.00145267)
(0.0492541 0 -0.0015583)
(0.0510051 0 -0.00165889)
(0.0525291 0 -0.00175389)
(0.0538718 0 -0.00184279)
(0.0550812 0 -0.00192514)
(0.0562079 0 -0.00200079)
(0.0573063 0 -0.00207011)
(0.0584352 0 -0.00213429)
(0.059659 0 -0.00219581)
(0.0610442 0 -0.0022585)
(0.0626605 0 -0.00232864)
(0.0645806 0 -0.002416)
(0.0668719 0 -0.00253324)
(0.0695832 0 -0.00269467)
(0.0727233 0 -0.00291286)
(0.0762263 0 -0.00319178)
(0.0798994 0 -0.0035167)
(0.083362 0 -0.00384503)
(0.0859995 0 -0.00410506)
(0.0893326 0 -0.0043962)
(0 0 0)
(0.00779727 0 -0.000217076)
(0.0148896 0 -0.000417548)
(0.0211277 0 -0.000599531)
(0.0266043 0 -0.000766994)
(0.0314041 0 -0.000923063)
(0.0356036 0 -0.00107014)
(0.0392716 0 -0.00121004)
(0.0424707 0 -0.00134408)
(0.0452583 0 -0.0014732)
(0.0476876 0 -0.00159807)
(0.0498102 0 -0.00171926)
(0.0516746 0 -0.00183698)
(0.0533275 0 -0.00195129)
(0.054816 0 -0.00206257)
(0.0561885 0 -0.00217144)
(0.0574949 0 -0.00227899)
(0.0587875 0 -0.00238712)
(0.0601208 0 -0.00249884)
(0.061551 0 -0.00261866)
(0.063134 0 -0.00275288)
(0.0649236 0 -0.00291022)
(0.0669681 0 -0.00310205)
(0.0693031 0 -0.00334159)
(0.0719399 0 -0.00364179)
(0.0748515 0 -0.00401092)
(0.0779531 0 -0.00444488)
(0.0810791 0 -0.00491618)
(0.0839479 0 -0.00536299)
(0.0861141 0 -0.00568661)
(0.0889126 0 -0.00608843)
(0 0 0)
(0.00781848 0 -0.000234401)
(0.0149331 0 -0.000450952)
(0.0211966 0 -0.000647676)
(0.0267032 0 -0.000828914)
(0.0315394 0 -0.000998105)
(0.0357825 0 -0.00115792)
(0.0395022 0 -0.00131043)
(0.042762 0 -0.00145721)
(0.0456201 0 -0.00159951)
(0.0481309 0 -0.00173832)
(0.050346 0 -0.00187449)
(0.0523145 0 -0.00200875)
(0.0540837 0 -0.00214184)
(0.0557007 0 -0.0022748)
(0.0572127 0 -0.00240911)
(0.0586673 0 -0.00254688)
(0.0601123 0 -0.00269118)
(0.0615954 0 -0.00284625)
(0.0631626 0 -0.00301789)
(0.0648554 0 -0.00321369)
(0.0667079 0 -0.00344323)
(0.0687422 0 -0.0037179)
(0.0709608 0 -0.00404993)
(0.0733389 0 -0.00445008)
(0.0758164 0 -0.00492347)
(0.078295 0 -0.00546257)
(0.0806411 0 -0.0060362)
(0.0826902 0 -0.00657493)
(0.0842261 0 -0.00696016)
(0.0862267 0 -0.00743872)
(0 0 0)
(0.00783857 0 -0.000250874)
(0.0149744 0 -0.00048271)
(0.021262 0 -0.000693449)
(0.0267976 0 -0.000887781)
(0.0316686 0 -0.00106944)
(0.0359534 0 -0.00124136)
(0.0397223 0 -0.00140584)
(0.0430395 0 -0.00156474)
(0.0459637 0 -0.00171954)
(0.0485496 0 -0.00187153)
(0.0508489 0 -0.00202188)
(0.0529105 0 -0.00217172)
(0.0547814 0 -0.00232233)
(0.0565075 0 -0.0024753)
(0.0581337 0 -0.00263272)
(0.0597037 0 -0.0027974)
(0.0612598 0 -0.00297307)
(0.0628414 0 -0.00316461)
(0.0644829 0 -0.00337821)
(0.0662109 0 -0.00362155)
(0.06804 0 -0.00390358)
(0.0699675 0 -0.00423417)
(0.0719676 0 -0.00462299)
(0.0739852 0 -0.00507756)
(0.0759335 0 -0.00560028)
(0.0776999 0 -0.00618371)
(0.0791679 0 -0.0068026)
(0.0802597 0 -0.00739768)
(0.080991 0 -0.00784613)
(0.0818818 0 -0.0083863)
(0 0 0)
(0.00785658 0 -0.000266401)
(0.0150116 0 -0.000512648)
(0.0213217 0 -0.000736595)
(0.0268842 0 -0.000943254)
(0.031788 0 -0.00113664)
(0.0361118 0 -0.00131991)
(0.0399267 0 -0.00149561)
(0.0432969 0 -0.00166581)
(0.0462816 0 -0.00183223)
(0.0489353 0 -0.00199639)
(0.0513092 0 -0.00215975)
(0.0534516 0 -0.00232376)
(0.0554084 0 -0.00249004)
(0.0572234 0 -0.00266058)
(0.0589383 0 -0.00283784)
(0.0605925 0 -0.00302492)
(0.0622218 0 -0.00322577)
(0.0638572 0 -0.00344523)
(0.0655219 0 -0.00368911)
(0.067229 0 -0.00396408)
(0.0689767 0 -0.00427733)
(0.0707435 0 -0.00463587)
(0.0724841 0 -0.00504541)
(0.0741251 0 -0.00550878)
(0.0755656 0 -0.00602414)
(0.0766852 0 -0.00658331)
(0.0773693 0 -0.00717035)
(0.0775629 0 -0.00775579)
(0.0774094 0 -0.00825841)
(0.0765757 0 -0.00896199)
(0 0 0)
(0.00787183 0 -0.000281071)
(0.0150436 0 -0.000540907)
(0.0213737 0 -0.000777301)
(0.0269611 0 -0.000995575)
(0.031895 0 -0.00119997)
(0.036255 0 -0.00139388)
(0.0401122 0 -0.00158005)
(0.0435311 0 -0.00176072)
(0.0465704 0 -0.00193782)
(0.0492843 0 -0.00211309)
(0.0517234 0 -0.00228815)
(0.0539346 0 -0.00246469)
(0.0559621 0 -0.00264456)
(0.0578471 0 -0.00282992)
(0.0596278 0 -0.00302333)
(0.0613387 0 -0.00322789)
(0.0630093 0 -0.00344731)
(0.0646625 0 -0.00368586)
(0.0663123 0 -0.00394831)
(0.0679609 0 -0.00423962)
(0.0695948 0 -0.00456439)
(0.071182 0 -0.00492598)
(0.0726685 0 -0.00532521)
(0.0739775 0 -0.00575879)
(0.0750129 0 -0.00621754)
(0.0756675 0 -0.00668415)
(0.0758445 0 -0.0071312)
(0.0754981 0 -0.00751537)
(0.0747489 0 -0.00774841)
(0.0710651 0 -0.00926442)
(0 0 0)
(0.00902966 0 0)
(0.0148936 0 0)
(0.0219955 0 0)
(0.0290526 0 0)
(0.0353921 0 0)
(0.0407968 0 0)
(0.0452755 0 0)
(0.0489113 0 0)
(0.0517951 0 0)
(0.0540193 0 0)
(0.0556688 0 0)
(0.0568091 0 0)
(0.0574905 0 0)
(0.057751 0 0)
(0.0576149 0 0)
(0.0570948 0 0)
(0.0561944 0 0)
(0.0549098 0 0)
(0.05323 0 0)
(0.0511378 0 0)
(0.0486096 0 0)
(0.0456157 0 0)
(0.0421216 0 0)
(0.0380896 0 0)
(0.0334753 0 0)
(0.0282276 0 0)
(0.022293 0 0)
(0.0156163 0 0)
(0.00813467 0 0)
(0 0 0)
(0.00457278 0 -0.00500501)
(0.0116153 0 -0.00403671)
(0.0171796 0 -0.0037425)
(0.0238844 0 -0.00329367)
(0.0305457 0 -0.00282479)
(0.0365421 0 -0.00238197)
(0.0416765 0 -0.0019902)
(0.0459476 0 -0.00165911)
(0.0494233 0 -0.00138584)
(0.0521837 0 -0.00116287)
(0.0543141 0 -0.000980603)
(0.0558929 0 -0.000831575)
(0.05698 0 -0.000709088)
(0.0576217 0 -0.000608627)
(0.0578522 0 -0.000526445)
(0.0576931 0 -0.000458308)
(0.0571553 0 -0.000401141)
(0.0562412 0 -0.000352634)
(0.054946 0 -0.000311004)
(0.0532581 0 -0.000274791)
(0.0511596 0 -0.000242812)
(0.0486267 0 -0.000214065)
(0.045629 0 -0.000187717)
(0.0421316 0 -0.000163279)
(0.0380973 0 -0.000140262)
(0.0334816 0 -0.000117951)
(0.0282324 0 -9.58431e-05)
(0.0222962 0 -7.3535e-05)
(0.0156183 0 -5.04631e-05)
(0.00813559 0 -2.59673e-05)
(0 0 0)
(0.0135399 0 -0.00846314)
(0.0186407 0 -0.00741218)
(0.0234599 0 -0.00690469)
(0.0291144 0 -0.00611801)
(0.0347157 0 -0.00527714)
(0.0397898 0 -0.00447955)
(0.0441804 0 -0.00376883)
(0.0478683 0 -0.00316062)
(0.0508896 0 -0.00265203)
(0.0533004 0 -0.00223354)
(0.0551654 0 -0.00189084)
(0.0565428 0 -0.00160952)
(0.0574779 0 -0.00137803)
(0.0580049 0 -0.00118743)
(0.0581482 0 -0.00103017)
(0.0579222 0 -0.000899052)
(0.0573329 0 -0.000788531)
(0.056379 0 -0.000694391)
(0.055053 0 -0.000613348)
(0.0533412 0 -0.000542645)
(0.0512243 0 -0.000480046)
(0.0486776 0 -0.000423631)
(0.0456688 0 -0.000371938)
(0.0421618 0 -0.00032391)
(0.0381207 0 -0.000278459)
(0.033501 0 -0.000234398)
(0.0282473 0 -0.000190625)
(0.0223061 0 -0.000146294)
(0.0156243 0 -0.000100419)
(0.00813863 0 -5.16826e-05)
(0 0 0)
(0.0253002 0 -0.0109018)
(0.0285759 0 -0.00984717)
(0.0324047 0 -0.00920426)
(0.0366441 0 -0.0082183)
(0.0408079 0 -0.00714926)
(0.0446094 0 -0.00612525)
(0.0479428 0 -0.00520232)
(0.0507806 0 -0.00440144)
(0.0531309 0 -0.00372193)
(0.0550212 0 -0.00315544)
(0.0564869 0 -0.00268786)
(0.0575586 0 -0.00230148)
(0.0582608 0 -0.00198166)
(0.0586104 0 -0.0017166)
(0.0586178 0 -0.00149591)
(0.058287 0 -0.00131043)
(0.0576166 0 -0.00115295)
(0.0565997 0 -0.00101799)
(0.0552247 0 -0.000901286)
(0.0534746 0 -0.000798989)
(0.0513283 0 -0.000708063)
(0.0487585 0 -0.000625945)
(0.0457308 0 -0.000550638)
(0.0422087 0 -0.000480317)
(0.0381563 0 -0.000413329)
(0.0335292 0 -0.000348361)
(0.0282701 0 -0.000283696)
(0.0223221 0 -0.000217884)
(0.0156339 0 -0.000149617)
(0.00814347 0 -7.70204e-05)
(0 0 0)
(0.0382589 0 -0.0123684)
(0.0399572 0 -0.0113471)
(0.0426611 0 -0.0106159)
(0.0453711 0 -0.00954435)
(0.0479722 0 -0.00838192)
(0.0503638 0 -0.00725878)
(0.052498 0 -0.00623386)
(0.0543517 0 -0.00533215)
(0.0559144 0 -0.00455649)
(0.0571835 0 -0.00389975)
(0.0581639 0 -0.00334982)
(0.0588601 0 -0.00289062)
(0.0592717 0 -0.00250656)
(0.0593966 0 -0.00218491)
(0.0592301 0 -0.00191445)
(0.058765 0 -0.0016852)
(0.0579903 0 -0.00148899)
(0.0568916 0 -0.0013195)
(0.0554523 0 -0.0011718)
(0.0536516 0 -0.00104146)
(0.051465 0 -0.00092495)
(0.048863 0 -0.000819434)
(0.0458102 0 -0.000722268)
(0.0422694 0 -0.000630908)
(0.0382013 0 -0.000543485)
(0.0335622 0 -0.000458496)
(0.0282959 0 -0.000373864)
(0.0223411 0 -0.000287493)
(0.0156461 0 -0.000197529)
(0.00814979 0 -0.000101716)
(0 0 0)
(0.0511867 0 -0.0129517)
(0.0515507 0 -0.0119726)
(0.0530983 0 -0.0112053)
(0.0543329 0 -0.0101433)
(0.0554215 0 -0.00899837)
(0.056435 0 -0.00788551)
(0.057376 0 -0.00685839)
(0.058233 0 -0.00594163)
(0.0589839 0 -0.00514117)
(0.059602 0 -0.00445231)
(0.0600652 0 -0.00386531)
(0.0603533 0 -0.0033675)
(0.0604435 0 -0.00294522)
(0.0603153 0 -0.00258635)
(0.0599504 0 -0.0022807)
(0.0593305 0 -0.00201901)
(0.0584346 0 -0.00179311)
(0.0572405 0 -0.00159618)
(0.0557254 0 -0.00142275)
(0.0538644 0 -0.00126833)
(0.0516288 0 -0.00112924)
(0.0489875 0 -0.00100257)
(0.0459055 0 -0.000885262)
(0.0423425 0 -0.000774478)
(0.0382549 0 -0.000668041)
(0.0335991 0 -0.000564068)
(0.0283212 0 -0.000460367)
(0.0223597 0 -0.000354388)
(0.0156595 0 -0.000243657)