/*--------------------------------*- C++ -*----------------------------------*\
| =========                 |                                                 |
| \\      /  F ield         | OpenFOAM: The Open Source CFD Toolbox           |
|  \\    /   O peration     | Version:  dev                                   |
|   \\  /    A nd           | Web:      www.OpenFOAM.org                      |
|    \\/     M anipulation  |                                                 |
\*---------------------------------------------------------------------------*/
FoamFile
{
    version     2.0;
    format      ascii;
    class       volVectorField;
    location    "4.3";
    object      cellDisplacement;
}
// * * * * * * * * * * * * * * * * * * * * * * * * * * * * * * * * * * * * * //

dimensions      [0 1 0 0 0 0 0];

internalField   nonuniform List<vector> 
465
(
(0.0365492 0 -0.000356072)
(0.0393041 0 -0.000330006)
(0.0416225 0 -0.000304796)
(0.0434929 0 -0.000280661)
(0.0449089 0 -0.000257733)
(0.0458668 0 -0.000236072)
(0.0463628 0 -0.000215671)
(0.0463918 0 -0.000196481)
(0.0459462 0 -0.000178419)
(0.0450151 0 -0.000161372)
(0.0435838 0 -0.000145209)
(0.0416339 0 -0.000129782)
(0.0391427 0 -0.000114928)
(0.0360834 0 -0.000100468)
(0.0324252 0 -8.6207e-05)
(0.0281336 0 -7.19271e-05)
(0.0231706 0 -5.73821e-05)
(0.0174952 0 -4.22881e-05)
(0.0110649 0 -2.63108e-05)
(0.00383041 0 -9.0356e-06)
(0.0371723 0 -0.00106222)
(0.0398366 0 -0.000984726)
(0.0420748 0 -0.000909715)
(0.0438751 0 -0.000837876)
(0.0452305 0 -0.000769609)
(0.0461364 0 -0.000705089)
(0.0465881 0 -0.000644303)
(0.0465796 0 -0.000587102)
(0.0461023 0 -0.00053324)
(0.0451445 0 -0.000482386)
(0.0436908 0 -0.000434149)
(0.041722 0 -0.000388089)
(0.0392148 0 -0.000343722)
(0.036142 0 -0.000300515)
(0.0324723 0 -0.000257888)
(0.0281707 0 -0.000215191)
(0.0231988 0 -0.00017169)
(0.0175154 0 -0.000126536)
(0.0110772 0 -7.87326e-05)
(0.00383465 0 -2.70391e-05)
(0.0383947 0 -0.00175124)
(0.0408823 0 -0.00162426)
(0.0429636 0 -0.00150118)
(0.0446269 0 -0.00138325)
(0.0458638 0 -0.00127111)
(0.0466681 0 -0.00116508)
(0.0470331 0 -0.0010651)
(0.0469511 0 -0.000970951)
(0.0464116 0 -0.000882228)
(0.0454012 0 -0.000798394)
(0.0439033 0 -0.00071881)
(0.0418972 0 -0.000642757)
(0.0393586 0 -0.00056944)
(0.036259 0 -0.000497989)
(0.0325665 0 -0.000427447)
(0.028245 0 -0.000356746)
(0.0232555 0 -0.000284674)
(0.0175558 0 -0.000209834)
(0.0111019 0 -0.000130574)
(0.00384308 0 -4.48457e-05)
(0.0401696 0 -0.00241343)
(0.0424019 0 -0.00223988)
(0.0442562 0 -0.00207133)
(0.0457215 0 -0.00190983)
(0.046787 0 -0.00175614)
(0.047444 0 -0.0016107)
(0.0476833 0 -0.00147342)
(0.0474944 0 -0.00134401)
(0.0468644 0 -0.00122191)
(0.0457776 0 -0.00110641)
(0.0442151 0 -0.000996636)
(0.0421545 0 -0.000891606)
(0.0395698 0 -0.000790238)
(0.0364311 0 -0.000691342)
(0.0327049 0 -0.000593605)
(0.0283543 0 -0.00049556)
(0.0233388 0 -0.000395536)
(0.0176152 0 -0.000291604)
(0.0111382 0 -0.000181482)
(0.00385548 0 -6.2335e-05)
(0.0424318 0 -0.00304031)
(0.0443409 0 -0.00282392)
(0.045907 0 -0.00261311)
(0.047122 0 -0.0024114)
(0.0479699 0 -0.00221918)
(0.04844 0 -0.00203715)
(0.0485192 0 -0.00186506)
(0.0481939 0 -0.0017026)
(0.0474482 0 -0.00154912)
(0.0462635 0 -0.0014037)
(0.0446181 0 -0.00126527)
(0.0424875 0 -0.00113262)
(0.0398433 0 -0.00100441)
(0.036654 0 -0.000879138)
(0.0328844 0 -0.000755173)
(0.028496 0 -0.000630669)
(0.0234469 0 -0.000503526)
(0.0176923 0 -0.000371305)
(0.0111852 0 -0.000231125)
(0.00387155 0 -7.93938e-05)
(0.0450874 0 -0.00362149)
(0.0466216 0 -0.0033672)
(0.0478589 0 -0.00312017)
(0.048783 0 -0.00288256)
(0.0493751 0 -0.00265536)
(0.0496259 0 -0.00244018)
(0.0495163 0 -0.00223626)
(0.04903 0 -0.00204347)
(0.0481473 0 -0.001861)
(0.0468463 0 -0.00168779)
(0.0451023 0 -0.00152259)
(0.042888 0 -0.00136399)
(0.0401727 0 -0.00121039)
(0.0369228 0 -0.00106006)
(0.033101 0 -0.000911057)
(0.0286671 0 -0.000761187)
(0.0235774 0 -0.000607951)
(0.0177853 0 -0.000448437)
(0.0112421 0 -0.000279194)
(0.00389094 0 -9.59169e-05)
(0.0480447 0 -0.00415021)
(0.0491676 0 -0.00386276)
(0.0500423 0 -0.00358463)
(0.0506444 0 -0.0033167)
(0.0509592 0 -0.00306039)
(0.0509675 0 -0.00281623)
(0.0506464 0 -0.00258378)
(0.0499799 0 -0.00236375)
(0.0489434 0 -0.00215507)
(0.0475113 0 -0.00195652)
(0.0456558 0 -0.00176672)
(0.0433466 0 -0.00158407)
(0.0405505 0 -0.0014068)
(0.0372313 0 -0.00123294)
(0.0333498 0 -0.00106027)
(0.0288637 0 -0.000886308)
(0.0237274 0 -0.000708182)
(0.0178924 0 -0.000522541)
(0.0113074 0 -0.000325408)
(0.00391324 0 -0.000111808)
(0.0512179 0 -0.00462409)
(0.0519036 0 -0.00430862)
(0.0523875 0 -0.00400311)
(0.0526489 0 -0.00370931)
(0.0526697 0 -0.00342882)
(0.0524213 0 -0.00316088)
(0.0518784 0 -0.00290481)
(0.0510189 0 -0.00266105)
(0.0498166 0 -0.00242922)
(0.0482424 0 -0.00220804)
(0.0462657 0 -0.00199603)
(0.0438529 0 -0.00179146)
(0.0409681 0 -0.00159241)
(0.0375729 0 -0.00139671)
(0.0336256 0 -0.00120194)
(0.0290818 0 -0.00100531)
(0.0238939 0 -0.000803651)
(0.0180111 0 -0.000593204)
(0.0113798 0 -0.000369511)
(0.00393797 0 -0.000126979)
(0.0545075 0 -0.00503906)
(0.0547468 0 -0.00470139)
(0.0548334 0 -0.00437443)
(0.0547455 0 -0.00405992)
(0.0544594 0 -0.0037589)
(0.0539472 0 -0.00347145)
(0.0531804 0 -0.00319703)
(0.0521211 0 -0.00293349)
(0.0507455 0 -0.00268178)
(0.0490224 0 -0.00244084)
(0.0469179 0 -0.00220919)
(0.0443955 0 -0.00198499)
(0.0414166 0 -0.0017662)
(0.0379402 0 -0.00155051)
(0.0339224 0 -0.0013353)
(0.0293167 0 -0.00111758)
(0.0240733 0 -0.000893868)
(0.018139 0 -0.000660065)
(0.0114579 0 -0.000411279)
(0.00396461 0 -0.000141354)
(0.0578142 0 -0.00539211)
(0.0576145 0 -0.00503863)
(0.0573104 0 -0.00469637)
(0.0568774 0 -0.00436673)
(0.0562877 0 -0.00405045)
(0.0555108 0 -0.00374764)
(0.0545164 0 -0.00345832)
(0.0532609 0 -0.00317986)
(0.0517089 0 -0.00291147)
(0.0498337 0 -0.00265377)
(0.0475982 0 -0.00240515)
(0.0449629 0 -0.00216372)
(0.0418865 0 -0.00192734)
(0.0383257 0 -0.0016936)
(0.0342343 0 -0.00145975)
(0.0295637 0 -0.00122259)
(0.0242619 0 -0.000978412)
(0.0182736 0 -0.000722815)
(0.01154 0 -0.000450519)
(0.00399262 0 -0.000154865)
(0.0610436 0 -0.00568142)
(0.0604278 0 -0.00531905)
(0.0597525 0 -0.00496787)
(0.05899 0 -0.00462886)
(0.0581089 0 -0.00430252)
(0.0570753 0 -0.00398892)
(0.0558542 0 -0.00368781)
(0.0544071 0 -0.00339821)
(0.0526854 0 -0.00311742)
(0.0506588 0 -0.00284599)
(0.0482923 0 -0.00258316)
(0.0455434 0 -0.00232696)
(0.0423684 0 -0.0020752)
(0.0387216 0 -0.00182542)
(0.034555 0 -0.00157477)
(0.0298178 0 -0.00131991)
(0.0244561 0 -0.00105694)
(0.0184121 0 -0.000781198)
(0.0116245 0 -0.000487069)
(0.00402143 0 -0.000167458)
(0.0641088 0 -0.00590659)
(0.0631144 0 -0.00554259)
(0.0620995 0 -0.00518894)
(0.0610332 0 -0.0048463)
(0.059881 0 -0.00451503)
(0.0586063 0 -0.00419519)
(0.0571713 0 -0.00388656)
(0.0555364 0 -0.00358853)
(0.0536526 0 -0.00329889)
(0.0514806 0 -0.00301702)
(0.0489864 0 -0.00274277)
(0.0461257 0 -0.00247425)
(0.0428527 0 -0.00220935)
(0.0391202 0 -0.00194556)
(0.0348782 0 -0.00168)
(0.0300741 0 -0.00140923)
(0.0246518 0 -0.00112919)
(0.0185517 0 -0.00083501)
(0.0117096 0 -0.000520801)
(0.00405043 0 -0.000179087)
(0.0669343 0 -0.0060689)
(0.0656116 0 -0.00571054)
(0.0642989 0 -0.00536071)
(0.0629627 0 -0.00501994)
(0.0615667 0 -0.00468862)
(0.0600725 0 -0.0043669)
(0.0584406 0 -0.00405471)
(0.0566308 0 -0.00375173)
(0.0545934 0 -0.00345612)
(0.0522838 0 -0.00316679)
(0.0496675 0 -0.00288378)
(0.0466988 0 -0.00260538)
(0.0433306 0 -0.00232952)
(0.0395141 0 -0.00205376)
(0.0351979 0 -0.00177519)
(0.0303276 0 -0.00149031)
(0.0248454 0 -0.00119496)
(0.0186895 0 -0.000884099)
(0.0117936 0 -0.000551613)
(0.00407902 0 -0.000189716)
(0.0694594 0 -0.00617145)
(0.0678684 0 -0.00582557)
(0.0663073 0 -0.00548536)
(0.0647416 0 -0.00515152)
(0.0631344 0 -0.00482462)
(0.0614468 0 -0.00450503)
(0.0596386 0 -0.00419287)
(0.0576694 0 -0.00388811)
(0.0554911 0 -0.00358948)
(0.0530543 0 -0.00329549)
(0.0503235 0 -0.00300628)
(0.0472525 0 -0.00272031)
(0.0437935 0 -0.00243564)
(0.0398962 0 -0.0021499)
(0.0355081 0 -0.0018602)
(0.0305735 0 -0.00156302)
(0.025033 0 -0.00125412)
(0.0188229 0 -0.000928356)
(0.0118746 0 -0.000579434)
(0.00410659 0 -0.00019932)
(0.0716584 0 -0.00621957)
(0.0698624 0 -0.00589213)
(0.0681047 0 -0.00556661)
(0.0663518 0 -0.00524413)
(0.0645677 0 -0.00492559)
(0.0627142 0 -0.00461166)
(0.0607516 0 -0.00430274)
(0.0586387 0 -0.00399888)
(0.0563312 0 -0.00369961)
(0.0537796 0 -0.00340361)
(0.0509437 0 -0.00311055)
(0.0477776 0 -0.00281919)
(0.0442332 0 -0.00252776)
(0.0402595 0 -0.00223397)
(0.0358031 0 -0.00193498)
(0.0308071 0 -0.00162729)
(0.0252108 0 -0.00130661)
(0.018949 0 -0.000967716)
(0.011951 0 -0.000604214)
(0.00413246 0 -0.000207878)
(0.0755806 0 -0.00651937)
(0.0735724 0 -0.00622016)
(0.0716277 0 -0.00591635)
(0.0697192 0 -0.00561)
(0.0678164 0 -0.00530281)
(0.0658856 0 -0.00499614)
(0.0638906 0 -0.00469105)
(0.061793 0 -0.00438824)
(0.0595523 0 -0.00408802)
(0.0571256 0 -0.00379022)
(0.0544671 0 -0.00349416)
(0.0515332 0 -0.00319926)
(0.0482779 0 -0.00290442)
(0.0446527 0 -0.00260801)
(0.0406062 0 -0.00230784)
(0.0360843 0 -0.00200114)
(0.0310293 0 -0.00168445)
(0.0253793 0 -0.00135347)
(0.0190679 0 -0.00100295)
(0.0120225 0 -0.000626426)
(0.00415654 0 -0.00021555)
(0.077301 0 -0.00644217)
(0.0752098 0 -0.00617683)
(0.0731682 0 -0.00590094)
(0.0711515 0 -0.00561761)
(0.069134 0 -0.00532919)
(0.0670854 0 -0.00503757)
(0.0649724 0 -0.00474424)
(0.062759 0 -0.00445024)
(0.0604063 0 -0.00415619)
(0.0578734 0 -0.00386225)
(0.0551165 0 -0.00356813)
(0.0520916 0 -0.00327329)
(0.0487526 0 -0.00297676)
(0.045051 0 -0.00267703)
(0.0409351 0 -0.00237206)
(0.0363505 0 -0.00205914)
(0.0312388 0 -0.00173487)
(0.0255374 0 -0.001395)
(0.0191787 0 -0.00103427)
(0.0120886 0 -0.000646191)
(0.00417864 0 -0.000222378)
(0.0744666 0 -0.00584963)
(0.0723811 0 -0.00559205)
(0.0702829 0 -0.00532493)
(0.0681454 0 -0.00505084)
(0.0659387 0 -0.00477162)
(0.0636296 0 -0.00448871)
(0.0611821 0 -0.00420303)
(0.0585569 0 -0.00391504)
(0.0557125 0 -0.00362476)
(0.0526054 0 -0.00333178)
(0.0491899 0 -0.00303529)
(0.0454177 0 -0.00273392)
(0.0412373 0 -0.00242573)
(0.0365941 0 -0.00210813)
(0.0314295 0 -0.00177781)
(0.0256802 0 -0.00143056)
(0.0192778 0 -0.00106118)
(0.012147 0 -0.000663199)
(0.00419799 0 -0.000228253)
(0.0712561 0 -0.00529252)
(0.0690567 0 -0.00503778)
(0.0667791 0 -0.00477447)
(0.0643944 0 -0.0045045)
(0.0618689 0 -0.00422902)
(0.0591659 0 -0.00394881)
(0.0562456 0 -0.00366408)
(0.0530659 0 -0.00337465)
(0.0495819 0 -0.00307982)
(0.0457459 0 -0.00277839)
(0.0415068 0 -0.00246854)
(0.03681 0 -0.00214781)
(0.0315969 0 -0.00181296)
(0.0258041 0 -0.00145989)
(0.0193625 0 -0.00108347)
(0.0121962 0 -0.000677315)
(0.00421403 0 -0.000233128)
(0.0698137 0 -0.00500056)
(0.0674864 0 -0.00475435)
(0.065045 0 -0.00449871)
(0.0624578 0 -0.00423488)
(0.0596912 0 -0.00396396)
(0.0567072 0 -0.00368632)
(0.0534651 0 -0.00340194)
(0.0499213 0 -0.00311029)
(0.0460288 0 -0.0028103)
(0.0417374 0 -0.0025003)
(0.0369929 0 -0.00217793)
(0.0317369 0 -0.00184009)
(0.0259058 0 -0.00148278)
(0.0194304 0 -0.00110098)
(0.0122345 0 -0.000688422)
(0.00422621 0 -0.000236962)
(0.0655748 0 -0.00447259)
(0.0629417 0 -0.0042215)
(0.0601255 0 -0.00396111)
(0.0570897 0 -0.00369184)
(0.0537957 0 -0.00341384)
(0.0502012 0 -0.00312674)
(0.0462604 0 -0.0028296)
(0.0419239 0 -0.00252087)
(0.0371381 0 -0.00219834)
(0.0318452 0 -0.00185902)
(0.0259818 0 -0.00149905)
(0.0194789 0 -0.00111356)
(0.0122603 0 -0.000696431)
(0.004234 0 -0.000239722)
(0.0604626 0 -0.00394097)
(0.0573873 0 -0.00368118)
(0.0540517 0 -0.00341066)
(0.050416 0 -0.00312934)
(0.0464352 0 -0.00283634)
(0.0420612 0 -0.00253023)
(0.0372412 0 -0.00220895)
(0.0319181 0 -0.00186965)
(0.0260292 0 -0.00150861)
(0.0195059 0 -0.00112112)
(0.0122723 0 -0.000701276)
(0.00423691 0 -0.000241386)
(0.0575951 0 -0.00365493)
(0.0542282 0 -0.00339281)
(0.0505608 0 -0.00311839)
(0.0465487 0 -0.00283069)
(0.042145 0 -0.00252845)
(0.0372984 0 -0.00220978)
(0.0319524 0 -0.00187194)
(0.0260454 0 -0.00151139)
(0.0195093 0 -0.0011236)
(0.0122692 0 -0.000702919)
(0.00423453 0 -0.000241941)
(0.0506317 0 -0.00309418)
(0.0465971 0 -0.00281289)
(0.0421718 0 -0.00251567)
(0.0373065 0 -0.00220089)
(0.0319454 0 -0.00186592)
(0.026028 0 -0.00150739)
(0.0194875 0 -0.001121)
(0.0122501 0 -0.000701351)
(0.0042265 0 -0.000241382)
(0.0465775 0 -0.00278324)
(0.0421388 0 -0.00249208)
(0.0372631 0 -0.00218244)
(0.0318948 0 -0.00185169)
(0.0259753 0 -0.00149668)
(0.0194392 0 -0.00111335)
(0.012214 0 -0.000696591)
(0.00421255 0 -0.000239716)
(0.0371665 0 -0.00215461)
(0.0317993 0 -0.0018294)
(0.0258861 0 -0.00147934)
(0.0193635 0 -0.00110072)
(0.0121606 0 -0.000688682)
(0.00419253 0 -0.000236959)
(0.0316579 0 -0.00179922)
(0.0257595 0 -0.00145551)
(0.0192601 0 -0.00108323)
(0.0120895 0 -0.000677698)
(0.00416637 0 -0.000233137)
(0.0191292 0 -0.001061)
(0.0120011 0 -0.000663735)
(0.00413414 0 -0.000228284)
(0.0118957 0 -0.00064689)
(0.00409609 0 -0.000222443)
(0.00405261 0 -0.000215659)
)
;

boundaryField
{
    inlet
    {
        type            cellMotion;
        value           nonuniform 0();
    }
    outlet
    {
        type            cellMotion;
        value           uniform (0 0 0);
    }
    flap
    {
        type            cellMotion;
        value           nonuniform 0();
    }
    upperWall
    {
        type            slip;
    }
    lowerWall
    {
        type            slip;
    }
    frontAndBack
    {
        type            empty;
    }
    procBoundary5to2
    {
        type            processor;
        value           nonuniform List<vector> 
34
(
(0.0786868 0 -0.00632402)
(0.0765634 0 -0.00609497)
(0.0765634 0 -0.00609497)
(0.0755323 0 -0.00576801)
(0.0734079 0 -0.00553697)
(0.0734079 0 -0.00553697)
(0.0720546 0 -0.00523543)
(0.0720546 0 -0.00523543)
(0.0704156 0 -0.00494199)
(0.0680569 0 -0.0047133)
(0.0680569 0 -0.0047133)
(0.065982 0 -0.00442815)
(0.0633167 0 -0.00419027)
(0.0633167 0 -0.00419027)
(0.0607003 0 -0.00390491)
(0.0607003 0 -0.00390491)
(0.0577109 0 -0.00361435)
(0.0543227 0 -0.00336119)
(0.0543227 0 -0.00336119)
(0.0506271 0 -0.00305764)
(0.0506271 0 -0.00305764)
(0.0464884 0 -0.00274256)
(0.0420455 0 -0.00245828)
(0.0420455 0 -0.00245828)
(0.0370158 0 -0.00211796)
(0.0370158 0 -0.00211796)
(0.0314695 0 -0.00176164)
(0.0255965 0 -0.00142558)
(0.0255965 0 -0.00142558)
(0.0189699 0 -0.00103428)
(0.0189699 0 -0.00103428)
(0.0117719 0 -0.000627272)
(0.0117719 0 -0.000627272)
(0.00400101 0 -0.000207851)
)
;
    }
    procBoundary5to4
    {
        type            processor;
        value           nonuniform List<vector> 
18
(
(0.0333798 0 -0.000382725)
(0.0341035 0 -0.00114138)
(0.035522 0 -0.00188071)
(0.0375798 0 -0.00259004)
(0.0401998 0 -0.00326027)
(0.0432715 0 -0.00388029)
(0.0466867 0 -0.00444306)
(0.050346 0 -0.004946)
(0.0541323 0 -0.00538441)
(0.0579287 0 -0.00575445)
(0.0616224 0 -0.0060534)
(0.0651089 0 -0.00628005)
(0.0682965 0 -0.00643527)
(0.0711115 0 -0.00652241)
(0.073523 0 -0.00654779)
(0.073523 0 -0.00654779)
(0.0776736 0 -0.00681171)
(0.0794548 0 -0.00669299)
)
;
    }
}


// ************************************************************************* //
