/*--------------------------------*- C++ -*----------------------------------*\
| =========                 |                                                 |
| \\      /  F ield         | OpenFOAM: The Open Source CFD Toolbox           |
|  \\    /   O peration     | Version:  dev                                   |
|   \\  /    A nd           | Web:      www.OpenFOAM.org                      |
|    \\/     M anipulation  |                                                 |
\*---------------------------------------------------------------------------*/
FoamFile
{
    version     2.0;
    format      ascii;
    class       volScalarField;
    location    "1.08";
    object      p;
}
// * * * * * * * * * * * * * * * * * * * * * * * * * * * * * * * * * * * * * //

dimensions      [0 2 -2 0 0 0 0];

internalField   nonuniform List<scalar> 
465
(
170.132
169.974
170.13
170.576
171.206
171.97
172.861
173.88
175.024
176.289
177.671
179.167
180.774
182.49
184.31
186.227
188.234
190.319
192.465
194.653
196.855
169.97
169.907
170.084
170.528
171.156
171.917
172.805
173.82
174.959
176.217
177.592
179.08
180.678
182.384
184.193
186.098
188.093
190.166
192.301
194.479
196.674
169.814
169.823
170.017
170.453
171.07
171.823
172.7
173.702
174.825
176.066
177.42
178.884
180.456
182.13
183.904
185.771
187.722
189.746
191.83
193.953
196.091
169.649
169.695
169.902
170.33
170.936
171.677
172.541
173.526
174.629
175.846
177.172
178.604
180.138
181.771
183.496
185.306
187.195
189.149
191.154
193.191
195.238
169.466
169.532
169.75
170.172
170.766
171.492
172.338
173.301
174.378
175.564
176.855
178.246
179.734
181.312
182.976
184.716
186.525
188.391
190.296
192.224
194.151
169.262
169.337
169.561
169.977
170.557
171.265
172.089
173.025
174.071
175.22
176.469
177.812
179.243
180.758
182.35
184.009
185.725
187.486
189.276
191.074
192.858
169.033
169.114
169.339
169.747
170.311
170.997
171.795
172.701
173.71
174.818
176.018
177.305
178.673
180.116
181.625
183.192
184.804
186.447
188.105
189.756
191.375
168.781
168.862
169.086
169.483
170.028
170.691
171.459
172.33
173.298
174.359
175.504
176.729
178.026
179.389
180.807
182.271
183.768
185.281
186.793
188.281
189.717
168.503
168.584
168.802
169.187
169.712
170.347
171.083
171.915
172.839
173.847
174.932
176.089
177.308
178.583
179.903
181.255
182.625
183.998
185.351
186.66
187.895
168.201
168.28
168.49
168.86
169.362
169.969
170.669
171.459
172.333
173.284
174.305
175.388
176.524
177.704
178.917
180.149
181.385
182.606
183.788
184.904
185.92
167.876
167.951
168.152
168.505
168.982
169.557
170.219
170.964
171.785
172.676
173.627
174.631
175.679
176.758
177.858
178.963
180.056
181.115
182.116
183.027
183.808
167.528
167.598
167.788
168.122
168.573
169.115
169.736
170.432
171.198
172.025
172.903
173.824
174.778
175.752
176.733
177.705
178.648
179.538
180.348
181.041
181.575
167.159
167.224
167.401
167.715
168.138
168.643
169.222
169.868
170.575
171.334
172.136
172.971
173.828
174.692
175.55
176.384
177.171
177.886
178.498
178.966
179.241
166.77
166.829
166.992
167.285
167.678
168.146
168.679
169.273
169.919
170.609
171.332
172.078
172.834
173.586
174.318
175.009
175.638
176.173
176.582
176.819
176.828
166.362
166.415
166.564
166.833
167.195
167.625
168.112
168.651
169.235
169.854
170.495
171.15
171.804
172.441
173.044
173.592
174.059
174.414
174.618
174.623
174.366
166.108
166.353
166.683
167.072
167.511
167.993
168.512
169.057
169.614
170.175
170.723
171.243
171.714
172.116
172.418
172.589
172.587
172.358
171.835
165.84
166.135
166.481
166.869
167.293
167.744
168.211
168.682
169.144
169.584
169.982
170.319
170.571
170.707
170.693
170.485
170.026
169.245
165.556
165.858
166.193
166.555
166.936
167.323
167.705
168.068
168.397
168.673
168.874
168.975
168.946
168.75
168.341
167.663
166.643
165.203
165.484
165.783
166.092
166.398
166.689
166.952
167.169
167.321
167.387
167.341
167.151
166.779
166.181
165.3
164.068
164.744
164.979
165.215
165.44
165.639
165.8
165.906
165.937
165.87
165.68
165.335
164.799
164.027
162.967
161.557
164.146
164.309
164.451
164.559
164.62
164.616
164.528
164.333
164.006
163.516
162.828
161.901
160.689
159.137
163.437
163.455
163.417
163.307
163.104
162.787
162.331
161.707
160.884
159.824
158.486
156.827
162.333
162.2
161.986
161.673
161.242
160.667
159.924
158.982
157.81
156.374
154.64
160.662
160.247
159.709
159.027
158.177
157.134
155.871
154.362
152.578
158.198
157.421
156.479
155.352
154.017
152.454
150.641
155.857
154.837
153.641
152.251
150.652
148.829
152.007
150.577
148.957
147.136
147.366
145.558
)
;

boundaryField
{
    inlet
    {
        type            zeroGradient;
    }
    outlet
    {
        type            fixedValue;
        value           nonuniform 0();
    }
    flap
    {
        type            zeroGradient;
    }
    upperWall
    {
        type            zeroGradient;
    }
    lowerWall
    {
        type            zeroGradient;
    }
    frontAndBack
    {
        type            empty;
    }
    procBoundary3to0
    {
        type            processor;
        value           nonuniform List<scalar> 
34
(
165.929
165.976
165.976
165.621
165.621
165.297
165.297
164.947
164.947
164.519
164.519
163.976
163.976
163.288
163.377
163.377
162.403
162.403
161.199
160.974
160.974
159.343
158.833
158.833
156.719
156.719
154.344
153.259
153.259
150.455
148.997
148.997
145.878
144.089
)
;
    }
    procBoundary3to1
    {
        type            processor;
        value           nonuniform List<scalar> 9(159.724 157.186 154.801 152.571 150.494 148.564 146.771 145.109 143.568);
    }
    procBoundary3to4
    {
        type            processor;
        value           nonuniform List<scalar> 
19
(
199.04
198.855
198.216
197.266
196.05
194.599
192.934
191.07
189.019
186.794
184.413
181.893
179.259
176.538
173.767
170.932
168.052
165.191
162.401
)
;
    }
}


// ************************************************************************* //
