/*--------------------------------*- C++ -*----------------------------------*\
| =========                 |                                                 |
| \\      /  F ield         | OpenFOAM: The Open Source CFD Toolbox           |
|  \\    /   O peration     | Version:  dev                                   |
|   \\  /    A nd           | Web:      www.OpenFOAM.org                      |
|    \\/     M anipulation  |                                                 |
\*---------------------------------------------------------------------------*/
FoamFile
{
    version     2.0;
    format      ascii;
    class       volVectorField;
    location    "0.1";
    object      Force;
}
// * * * * * * * * * * * * * * * * * * * * * * * * * * * * * * * * * * * * * //

dimensions      [1 1 -2 0 0 0 0];

internalField   uniform (0 0 0);

boundaryField
{
    inlet
    {
        type            calculated;
        value           uniform (0 0 0);
    }
    outlet
    {
        type            calculated;
        value           uniform (0 0 0);
    }
    flap
    {
        type            calculated;
        value           nonuniform List<vector> 
33
(
(2.37287 3.26134e-18 -0.289388)
(2.45356 -4.66495e-23 0.0956652)
(2.39272 -4.74811e-23 -0.00988116)
(2.38115 1.62373e-17 0.00209387)
(2.37726 2.33593e-23 0.00619249)
(2.33188 1.62365e-17 0.00523126)
(2.29136 7.04748e-25 0.00774798)
(2.25242 -9.49535e-20 0.0121917)
(2.16977 1.62506e-17 0.0103607)
(2.07987 -2.62366e-23 0.0152216)
(1.97296 1.63575e-17 0.0233311)
(1.78799 1.62404e-17 0.0276692)
(1.5387 1.67034e-17 0.0349681)
(1.07365 1.65642e-17 0.0237358)
(0.17137 1.89639e-19 -0.0111242)
(-0.889496 7.93962e-18 1.5573)
(0.396529 -4.67714e-22 1.9054)
(1.37804 5.07379e-18 1.85406)
(2.10188 1.62846e-17 -0.140429)
(2.09513 -3.56701e-19 0.0483219)
(2.13187 1.62938e-17 -0.0132785)
(2.17459 1.63597e-17 -0.00065122)
(2.21113 1.6212e-17 -0.00843034)
(2.29203 -2.93871e-23 -0.0105246)
(2.38482 1.63441e-17 -0.00585831)
(2.4736 1.75262e-23 -0.0204237)
(2.61892 2.21509e-19 -0.021901)
(2.78261 -1.80712e-23 -0.0211784)
(2.90226 1.66631e-17 -0.0580201)
(3.06729 1.58859e-17 -0.0549232)
(3.1796 -5.33004e-19 -0.0605013)
(3.09019 -1.06502e-18 -0.147451)
(2.9102 -2.40479e-17 0.794973)
)
;
    }
    upperWall
    {
        type            calculated;
        value           uniform (0 0 0);
    }
    lowerWall
    {
        type            calculated;
        value           uniform (0 0 0);
    }
    frontAndBack
    {
        type            empty;
    }
}


// ************************************************************************* //
