/*--------------------------------*- C++ -*----------------------------------*\
| =========                 |                                                 |
| \\      /  F ield         | OpenFOAM: The Open Source CFD Toolbox           |
|  \\    /   O peration     | Version:  dev                                   |
|   \\  /    A nd           | Web:      www.OpenFOAM.org                      |
|    \\/     M anipulation  |                                                 |
\*---------------------------------------------------------------------------*/
FoamFile
{
    version     2.0;
    format      ascii;
    class       volVectorField;
    location    "0.1";
    object      U;
}
// * * * * * * * * * * * * * * * * * * * * * * * * * * * * * * * * * * * * * //

dimensions      [0 1 -1 0 0 0 0];

internalField   nonuniform List<vector> 
2790
(
(9.94222 0 0.0191955)
(9.87665 0 0.0279558)
(9.78154 0 0.0339722)
(9.66197 -1.10539e-23 0.0398304)
(9.52397 -1.15604e-23 0.0455827)
(9.3691 -7.53659e-22 0.0510681)
(9.1974 2.42844e-23 0.0562887)
(9.00935 0 0.0613338)
(8.80588 0 0.0663542)
(8.58785 0 0.0715617)
(8.35563 0 0.0772068)
(8.10895 -1.22518e-22 0.0835398)
(7.8469 1.2556e-22 0.0907785)
(7.56811 5.32696e-22 0.0990922)
(7.2709 2.83685e-22 0.108601)
(6.95347 -2.90947e-22 0.119381)
(6.61406 3.09837e-22 0.131471)
(6.25109 -6.61904e-22 0.144871)
(5.86333 2.0743e-21 0.159546)
(5.44999 -2.90197e-21 0.175414)
(5.01084 1.51004e-21 0.192337)
(4.54638 0 0.210124)
(4.05793 3.4246e-21 0.228525)
(3.54768 -3.52519e-21 0.247246)
(3.01881 7.53692e-21 0.265972)
(2.47537 -7.76666e-21 0.284402)
(1.92219 -1.64496e-20 0.302268)
(1.36465 -2.57914e-20 0.319313)
(0.805823 3.52831e-20 0.335684)
(0.338622 2.94518e-19 0.340029)
(9.99735 1.29708e-21 0.0387602)
(9.98332 0 0.0594372)
(9.94182 0 0.0753371)
(9.87336 1.44674e-21 0.09205)
(9.78137 4.60764e-23 0.10987)
(9.66615 2.15763e-21 0.128309)
(9.52692 0 0.147037)
(9.36382 -8.08834e-22 0.165811)
(9.17803 -2.12869e-22 0.184543)
(8.97114 -4.3029e-24 0.2034)
(8.74461 -2.3723e-22 0.222812)
(8.4993 1.88884e-24 0.243366)
(8.23536 5.08321e-22 0.265678)
(7.95227 -5.29505e-22 0.290291)
(7.64891 0 0.317612)
(7.32385 0 0.347892)
(6.97546 -9.21363e-22 0.381218)
(6.60215 0 0.417515)
(6.20256 -3.44422e-21 0.456531)
(5.77564 5.74859e-21 0.497833)
(5.3209 -2.99024e-21 0.54078)
(4.83849 9.93764e-23 0.58452)
(4.32937 0 0.627996)
(3.79546 -8.79139e-22 0.669987)
(3.2397 3.1682e-20 0.70919)
(2.66609 4.66603e-22 0.744339)
(2.07963 -3.21728e-20 0.774344)
(1.48626 -5.93484e-20 0.798344)
(0.885999 6.99258e-20 0.816285)
(0.372429 2.18583e-19 0.80513)
(9.9944 -1.27682e-21 0.0414899)
(9.97729 -2.0701e-23 0.0716257)
(9.9376 0 0.0984445)
(9.87352 -1.40186e-21 0.127322)
(9.78695 0 0.158934)
(9.67791 -1.30994e-21 0.19258)
(9.54544 -1.92776e-22 0.2274)
(9.38935 -1.00681e-21 0.262581)
(9.21053 2.08217e-22 0.297598)
(9.0104 0 0.332453)
(8.79038 -4.62479e-22 0.367701)
(8.5514 -4.7806e-22 0.404287)
(8.29373 -2.01862e-21 0.443303)
(8.01693 2.10369e-21 0.485778)
(7.72 -3.32608e-21 0.532544)
(7.40148 -1.2147e-21 0.584171)
(7.05971 3.01966e-21 0.640948)
(6.69292 -2.60015e-21 0.702872)
(6.2995 3.34422e-21 0.76964)
(5.87806 7.08438e-22 0.840616)
(5.42763 0 0.914803)
(4.94782 1.26506e-20 0.990804)
(4.43897 -1.31049e-20 1.06682)
(3.90236 2.90962e-20 1.14065)
(3.34032 -3.0312e-20 1.20983)
(2.75642 0 1.27169)
(2.15539 3.98268e-21 1.32364)
(1.54369 4.15346e-21 1.3632)
(0.919225 -8.64159e-21 1.3893)
(0.383795 2.15809e-19 1.3685)
(9.99275 -2.01922e-23 0.046917)
(9.97337 2.66015e-21 0.0879694)
(9.93352 -2.70919e-21 0.126839)
(9.87073 -2.78908e-21 0.167878)
(9.78599 0 0.21239)
(9.67925 -1.48897e-21 0.259892)
(9.54973 0 0.309279)
(9.39726 3.2116e-21 0.359351)
(9.22264 0 0.409281)
(9.02721 -8.79907e-22 0.458962)
(8.8123 9.00668e-22 0.509071)
(8.5788 9.56361e-24 0.560866)
(8.32695 1.0069e-21 0.61586)
(8.05633 1.08007e-21 0.675525)
(7.76591 2.23299e-21 0.741098)
(7.45424 -1.11781e-21 0.813474)
(7.11957 0 0.893178)
(6.76002 -5.14172e-21 0.980342)
(6.37374 5.27206e-21 1.0747)
(5.95902 -6.39119e-21 1.17552)
(5.51444 1.77939e-20 1.28158)
(5.03905 1.22775e-20 1.3911)
(4.53252 0 1.50167)
(3.99541 -1.07493e-22 1.61024)
(3.42934 -4.50854e-22 1.71322)
(2.83724 -3.03175e-20 1.80658)
(2.22348 9.05611e-20 1.88613)
(1.59497 -6.93546e-20 1.94773)
(0.947346 1.28077e-20 1.9893)
(0.39305 0 1.96603)
(9.99199 2.56893e-21 0.0538564)
(9.97141 3.20437e-23 0.104406)
(9.93147 5.36508e-21 0.153915)
(9.86986 2.78762e-21 0.206146)
(9.78704 2.68563e-21 0.262887)
(9.68283 4.82259e-21 0.323847)
(9.55648 -1.91094e-22 0.387616)
(9.40787 -1.6007e-21 0.452519)
(9.23777 3.31348e-21 0.517343)
(9.04747 -3.45081e-21 0.581817)
(8.83823 0 0.646707)
(8.6109 1.89153e-21 0.713566)
(8.36572 1.99538e-21 0.784322)
(8.10224 1.39229e-23 0.860901)
(7.81942 -4.36426e-21 0.944961)
(7.51578 6.84296e-21 1.03776)
(7.18946 -4.71049e-21 1.14009)
(6.83844 0 1.25231)
(6.4606 1.30725e-21 1.37423)
(6.05386 9.82134e-21 1.50518)
(5.61629 -1.14808e-20 1.6438)
(5.14629 -1.21576e-20 1.78802)
(4.64276 2.56305e-20 1.93495)
(4.1054 1.38512e-20 2.08077)
(3.53495 -2.79206e-20 2.22077)
(2.93362 2.23997e-20 2.34943)
(2.30523 4.0443e-22 2.46081)
(1.65725 -3.19702e-20 2.54886)
(0.9828 2.93696e-20 2.61034)
(0.405665 -4.33682e-20 2.58993)
(9.99167 -2.56867e-21 0.0614481)
(9.97063 -2.71136e-21 0.120832)
(9.931 -2.52962e-21 0.18042)
(9.87082 -8.63116e-23 0.243648)
(9.7903 -2.68449e-21 0.31245)
(9.68908 -3.14447e-21 0.386573)
(9.56646 3.43633e-21 0.464305)
(9.42234 6.08497e-24 0.543535)
(9.2575 -3.71728e-21 0.622705)
(9.07318 4.31113e-21 0.701413)
(8.87061 -1.79071e-21 0.780535)
(8.6506 9.24998e-22 0.86192)
(8.41339 3.88605e-21 0.947913)
(8.15851 -2.05068e-21 1.04089)
(7.88493 0 1.14293)
(7.59109 0 1.25569)
(7.27507 0 1.38028)
(6.93463 4.9882e-21 1.51733)
(6.56738 -6.40979e-21 1.66687)
(6.17079 1.1004e-20 1.82835)
(5.74236 -4.39539e-22 2.00046)
(5.27969 2.37161e-20 2.18102)
(4.78072 -1.24002e-20 2.36678)
(4.24401 3.25431e-21 2.55326)
(3.66914 -2.77635e-20 2.73465)
(3.05724 5.76805e-20 2.90385)
(2.41131 -7.04539e-21 3.05282)
(1.73952 -3.11914e-20 3.17299)
(1.03263 0 3.25912)
(0.424891 4.24921e-21 3.24599)
(9.9916 -3.9908e-23 0.0692749)
(9.97061 4.07801e-23 0.137141)
(9.93171 5.34658e-21 0.206293)
(9.87326 -2.74976e-21 0.280093)
(9.79542 0 0.360509)
(9.69768 0 0.447278)
(9.57937 -3.04763e-21 0.538421)
(9.44045 0 0.631422)
(9.28168 3.25976e-21 0.72439)
(9.10427 3.3891e-21 0.816792)
(8.90943 3.5282e-21 0.909597)
(8.69797 -5.5441e-21 1.00495)
(8.47009 -3.85315e-21 1.10558)
(8.22538 -6.00125e-21 1.21434)
(7.96279 0 1.33373)
(7.68073 -4.46143e-21 1.46583)
(7.3772 6.85705e-21 1.61214)
(7.04979 2.39841e-21 1.77363)
(6.6958 -7.74296e-21 1.95067)
(6.31225 1.44677e-20 2.14299)
(5.89595 2.07845e-21 2.34952)
(5.44358 0 2.56818)
(4.9519 0 2.79562)
(4.41799 -4.80506e-21 3.02692)
(3.83978 2.69753e-20 3.25531)
(3.21673 7.50077e-21 3.47204)
(2.55041 -5.09811e-20 3.66655)
(1.84931 7.45378e-21 3.82681)
(1.10183 -1.27293e-22 3.94389)
(0.452787 1.42082e-22 3.94081)
(9.99168 -5.06393e-21 0.0770969)
(9.9711 0 0.15315)
(9.93331 -2.88163e-23 0.231376)
(9.87694 2.74836e-21 0.315258)
(9.80213 -3.54952e-22 0.406802)
(9.70836 3.62709e-22 0.505685)
(9.59496 0 0.609663)
(9.46192 0 0.715832)
(9.31001 -3.25466e-21 0.821978)
(9.14043 -3.38295e-21 0.927432)
(8.95436 -3.39333e-23 1.03326)
(8.75262 7.29872e-21 1.14187)
(8.53544 3.8266e-21 1.25641)
(8.30245 6.00128e-21 1.38015)
(8.05262 2.13909e-21 1.51608)
(7.78438 -4.205e-21 1.66668)
(7.49567 -2.18312e-21 1.83393)
(7.18396 -1.18597e-20 2.01921)
(6.84627 -5.16316e-21 2.22336)
(6.47918 7.63329e-21 2.44658)
(6.07877 -4.04411e-21 2.68825)
(5.64073 -1.14443e-20 2.94671)
(5.1604 -2.33923e-22 3.21887)
(4.633 1.42003e-20 3.49975)
(4.05418 0 3.78197)
(3.42085 0 4.05519)
(2.73198 0 4.30603)
(1.9953 7.42794e-21 4.51779)
(1.19581 0 4.67563)
(0.491349 1.61202e-20 4.68724)
(9.99186 1.00973e-20 0.0847617)
(9.97197 0 0.16869)
(9.93562 -1.05961e-20 0.25552)
(9.88164 5.42909e-21 0.348969)
(9.81023 0 0.451102)
(9.72089 0 0.561513)
(9.61294 0 0.677688)
(9.48644 0 0.796349)
(9.34215 0 0.914969)
(9.18126 3.31418e-21 1.03275)
(9.00495 -6.92218e-21 1.15083)
(8.81407 -1.8044e-21 1.2719)
(8.6089 1.86567e-21 1.39946)
(8.38912 3.87717e-21 1.53723)
(8.15379 0 1.68866)
(7.90141 -9.37407e-24 1.8567)
(7.62992 8.865e-21 2.04381)
(7.33673 -4.578e-21 2.25189)
(7.01867 -7.20705e-21 2.48237)
(6.67192 0 2.7361)
(6.29194 2.65824e-21 3.01321)
(5.87336 -2.69828e-21 3.31282)
(5.40996 0 3.63262)
(4.89477 -1.83951e-21 3.96817)
(4.32042 7.60529e-22 4.31211)
(3.68007 9.88835e-23 4.65307)
(2.96825 2.74687e-20 4.97479)
(2.18986 -2.78482e-20 5.25478)
(1.32449 2.92885e-20 5.46944)
(0.545356 -3.40161e-20 5.50622)
(9.99211 -5.03341e-21 0.0921642)
(9.97311 0 0.183619)
(9.93849 1.9984e-22 0.278579)
(9.88721 -1.08144e-20 0.381054)
(9.81956 -1.7333e-22 0.49319)
(9.73505 0 0.614489)
(9.63308 -3.72834e-22 0.742163)
(9.51372 3.80888e-22 0.872576)
(9.37774 -3.15792e-21 1.0029)
(9.22634 -3.30846e-21 1.13219)
(9.06072 4.09473e-23 1.26167)
(8.88175 1.78947e-21 1.39426)
(8.6898 -9.2045e-21 1.53383)
(8.48466 -3.93283e-21 1.68452)
(8.26551 1.00557e-24 1.8502)
(8.03097 -4.11496e-21 2.03434)
(7.77909 0 2.23989)
(7.50731 0 2.46935)
(7.2124 1.4208e-20 2.72485)
(6.89032 -9.67063e-21 3.00808)
(6.536 1.02356e-20 3.32021)
(6.14317 -1.31404e-20 3.66161)
(5.70407 1.08729e-20 4.03134)
(5.20929 -1.00097e-20 4.42642)
(4.64776 -1.56737e-20 4.84064)
(4.00746 2.42542e-20 5.26283)
(3.27587 -2.59673e-20 5.67472)
(2.45133 2.6288e-20 6.04752)
(1.50365 3.32176e-21 6.34503)
(0.623003 3.67059e-21 6.4264)
(9.99242 0 0.0992278)
(9.97447 -7.97998e-23 0.197817)
(9.94182 1.03676e-20 0.30042)
(9.89352 2.07608e-22 0.411354)
(9.82993 -5.49927e-21 0.532867)
(9.75065 6.02206e-21 0.664364)
(9.65512 -3.65067e-22 0.802788)
(9.54344 0 0.944154)
(9.4164 -2.29552e-21 1.08533)
(9.27523 1.12811e-23 1.22526)
(9.12112 9.24042e-21 1.3652)
(8.95502 0 1.50828)
(8.77741 3.65208e-21 1.65871)
(8.58821 -3.79478e-21 1.821)
(8.38679 3.94434e-21 1.99949)
(8.17198 4.10044e-21 2.19809)
(7.94202 4.16562e-21 2.42029)
(7.69453 0 2.66922)
(7.42639 4.47661e-21 2.94778)
(7.13355 -4.63538e-21 3.25867)
(6.81074 -9.83106e-21 3.60437)
(6.45107 -4.89476e-21 3.98692)
(6.04553 5.10906e-21 4.40756)
(5.58238 -1.08444e-20 4.8659)
(5.04649 3.05276e-20 5.35862)
(4.41925 -1.69978e-20 5.87711)
(3.67777 0 6.40377)
(2.80751 1.86839e-20 6.90506)
(1.75845 -2.8587e-20 7.32905)
(0.737944 6.34687e-21 7.49127)
(9.99276 0 0.105894)
(9.976 5.04066e-21 0.211185)
(9.94552 -5.20455e-21 0.320924)
(9.90044 5.34396e-21 0.439727)
(9.84121 1.09451e-20 0.569954)
(9.76749 -1.12689e-20 0.710916)
(9.6788 5.77962e-21 0.859294)
(9.57528 5.9625e-21 1.01076)
(9.45774 1.23874e-20 1.16191)
(9.32742 0 1.31152)
(9.18555 -5.00677e-21 1.46088)
(9.03316 -8.51727e-21 1.61333)
(8.87086 -1.79152e-21 1.77334)
(8.69876 -2.65812e-23 1.94579)
(8.51647 -1.95176e-21 2.1354)
(8.3231 3.9299e-21 2.34654)
(8.11719 -8.27818e-21 2.58319)
(7.89671 3.16978e-23 2.84912)
(7.65889 -4.45438e-21 3.14804)
(7.39996 1.37281e-20 3.48373)
(7.11487 -1.3888e-20 3.86017)
(6.79665 -4.96084e-21 4.28148)
(6.43573 9.90043e-21 4.75176)
(6.01874 -5.19895e-21 5.27456)
(5.52699 -5.34793e-21 5.85175)
(4.93472 5.48316e-21 6.4811)
(4.2054 0 7.15147)
(3.30259 5.77108e-21 7.83171)
(2.1366 0 8.45689)
(0.919964 6.5012e-21 8.77458)
(9.99315 0 0.112118)
(9.97767 -5.03975e-21 0.223646)
(9.94952 0 0.339987)
(9.90787 0 0.466047)
(9.85323 -5.61617e-21 0.604296)
(9.78537 1.0978e-20 0.753954)
(9.70386 -5.41691e-21 0.911448)
(9.6089 -5.95596e-21 1.07213)
(9.50133 -5.38099e-21 1.23229)
(9.38239 5.48351e-21 1.39057)
(9.25337 0 1.54827)
(9.1154 8.49529e-21 1.70886)
(8.96923 5.17653e-21 1.87706)
(8.8152 -7.13836e-21 2.05807)
(8.65321 7.37255e-21 2.25693)
(8.48273 0 2.47841)
(8.30274 -3.92417e-21 2.72693)
(8.1117 3.95096e-23 3.00685)
(7.90743 4.20871e-21 3.32261)
(7.68684 0 3.67909)
(7.4456 4.5558e-21 4.08178)
(7.17749 4.44214e-21 4.53708)
(6.87351 4.78301e-21 5.05243)
(6.52027 -4.87761e-21 5.63645)
(6.0975 0 6.29866)
(5.57417 -9.12021e-21 7.04824)
(4.89972 0 7.89048)
(4.00654 0 8.81485)
(2.7286 0 9.76986)
(1.23524 1.07594e-20 10.4286)
(9.99355 0 0.117864)
(9.97944 -9.91248e-21 0.235133)
(9.95376 0 0.357525)
(9.91571 0 0.49021)
(9.86586 5.34152e-21 0.635766)
(9.80409 -5.54621e-21 0.793326)
(9.73004 -3.56458e-22 0.959072)
(9.64396 -5.44722e-21 1.12803)
(9.54672 5.2287e-21 1.29623)
(9.43959 6.83129e-22 1.46214)
(9.32391 0 1.62704)
(9.2009 0 1.79449)
(9.07149 -8.61155e-21 1.96942)
(8.93629 8.87402e-21 2.15725)
(8.79552 -7.35266e-21 2.36333)
(8.64907 0 2.5927)
(8.49646 3.91065e-21 2.85016)
(8.33681 -7.79809e-21 3.14052)
(8.16877 -4.07507e-21 3.46885)
(7.9903 4.1527e-21 3.84092)
(7.79839 4.23952e-21 4.26357)
(7.58853 4.31617e-21 4.74529)
(7.35382 -4.10992e-21 5.29684)
(7.08343 -4.39782e-21 5.93226)
(6.75968 0 6.67019)
(6.35277 9.29242e-21 7.53567)
(5.80686 -1.59226e-20 8.56247)
(5.02715 0 9.79337)
(3.72513 -3.47797e-21 11.2785)
(1.85345 1.40081e-21 12.7923)
(9.99398 -9.43318e-24 0.123106)
(9.98129 9.92063e-21 0.245597)
(9.95819 0 0.373465)
(9.92385 0 0.512121)
(9.87896 -5.42801e-23 0.664235)
(9.82345 -5.25484e-21 0.828861)
(9.75708 -1.74651e-22 1.00194)
(9.68012 1.15375e-20 1.17821)
(9.59349 -6.72463e-21 1.35342)
(9.49847 -5.39997e-21 1.52585)
(9.39647 0 1.69674)
(9.2888 0 1.86971)
(9.1766 0 2.04983)
(9.06072 0 2.24268)
(8.94177 6.99007e-21 2.4538)
(8.8201 0 2.68844)
(8.69584 0 2.95166)
(8.5689 7.76987e-21 3.24852)
(8.43894 0 3.58451)
(8.30528 3.96218e-21 3.96596)
(8.16677 -4.03286e-21 4.40064)
(8.02151 0 4.89848)
(7.86636 5.47713e-22 5.47273)
(7.69609 0 6.1417)
(7.50157 -3.75686e-21 6.93193)
(7.26649 4.83984e-21 7.88383)
(6.95607 4.37947e-21 9.06383)
(6.50572 -2.25458e-21 10.5935)
(5.56095 0 12.7747)
(3.26389 2.06803e-21 16.6932)
(-0.27927 0 0.266256)
(-0.820561 1.56301e-20 0.25964)
(-1.35626 0 0.239197)
(-1.8527 -1.44915e-20 0.206597)
(-2.28212 1.40882e-20 0.16265)
(-2.61483 -3.35776e-21 0.108383)
(-2.82243 -6.25623e-21 0.0454344)
(-2.88112 5.8944e-23 -0.0238322)
(-2.77345 0 -0.0970902)
(-2.49358 1.21206e-21 -0.16835)
(-2.04857 -4.63819e-22 -0.230572)
(-1.46371 9.79709e-22 -0.277743)
(-0.767538 0 -0.307263)
(0.0133696 0 -0.318945)
(0.809306 -6.38059e-23 -0.3152)
(1.61563 0 -0.300476)
(2.40197 0 -0.278721)
(3.14805 3.19255e-23 -0.25294)
(3.84175 1.27831e-22 -0.225518)
(4.47635 -4.47185e-24 -0.19821)
(5.04934 -1.32253e-23 -0.172202)
(5.5613 0 -0.148207)
(6.0148 2.31596e-23 -0.126575)
(6.41368 1.61138e-23 -0.107398)
(6.76231 0 -0.0905931)
(7.06525 3.46928e-25 -0.0759756)
(7.32686 -3.38661e-25 -0.0633097)
(7.55118 3.81248e-24 -0.0523543)
(7.74189 -4.75678e-25 -0.0429189)
(7.93611 0 -0.0356485)
(-0.287278 0 0.800361)
(-0.847554 1.32069e-22 0.784075)
(-1.40476 0 0.732481)
(-1.92126 0 0.648457)
(-2.36846 0 0.529971)
(-2.71509 -9.88063e-21 0.377625)
(-2.93077 9.66807e-21 0.195737)
(-2.99099 8.69225e-21 -0.0070923)
(-2.87568 -4.13621e-22 -0.219228)
(-2.57649 -6.2787e-21 -0.422665)
(-2.10208 -5.29669e-22 -0.598801)
(-1.48116 2.16941e-21 -0.732616)
(-0.746252 -1.67887e-21 -0.818435)
(0.0699648 -2.00838e-23 -0.857101)
(0.894362 3.93536e-22 -0.855085)
(1.72672 -9.07847e-23 -0.822999)
(2.53568 -3.42597e-22 -0.770706)
(3.30197 -1.57061e-22 -0.706289)
(4.01423 1.34407e-23 -0.636142)
(4.66632 0 -0.565034)
(5.25616 0 -0.496257)
(5.78452 1.41347e-23 -0.43188)
(6.25411 -8.34287e-23 -0.373018)
(6.66869 1.64724e-23 -0.320093)
(7.03259 -2.20317e-23 -0.273052)
(7.35022 -1.35203e-23 -0.231548)
(7.62583 -6.9071e-25 -0.195072)
(7.86333 4.12441e-24 -0.163062)
(8.06595 -6.89307e-25 -0.135048)
(8.27074 0 -0.111512)
(-0.307733 -8.11129e-21 1.37226)
(-0.901835 -2.33642e-20 1.33869)
(-1.49782 0 1.2488)
(-2.05361 -2.92127e-20 1.10492)
(-2.53912 2.84486e-20 0.902416)
(-2.91963 0 0.641366)
(-3.16026 2.55506e-20 0.328551)
(-3.23302 -6.22921e-21 -0.0212359)
(-3.11298 0 -0.387559)
(-2.78748 2.4913e-21 -0.738518)
(-2.27038 1.09021e-21 -1.0394)
(-1.59799 9.77156e-24 -1.26444)
(-0.811821 0 -1.40481)
(0.0502502 -1.14695e-21 -1.46401)
(0.907478 2.17773e-21 -1.45564)
(1.76325 -1.04436e-21 -1.3978)
(2.5868 6.4614e-22 -1.30668)
(3.36059 -2.28269e-22 -1.19596)
(4.07513 0 -1.0763)
(4.72592 -7.06053e-23 -0.955576)
(5.31221 -5.31955e-23 -0.839165)
(5.83581 0 -0.730415)
(6.30016 3.64004e-23 -0.631095)
(6.70953 -9.52422e-23 -0.54184)
(7.06854 2.87278e-23 -0.462519)
(7.38176 4.31884e-23 -0.392517)
(7.65352 0 -0.330964)
(7.88769 2.07661e-25 -0.276883)
(8.08733 1.32903e-24 -0.229325)
(8.28966 8.27388e-24 -0.187849)
(-0.340447 -5.69209e-20 1.98639)
(-0.985391 1.29608e-19 1.93859)
(-1.64005 -1.22258e-19 1.81198)
(-2.25657 9.66294e-20 1.6086)
(-2.80227 -2.88788e-20 1.32009)
(-3.23653 -2.73494e-20 0.944474)
(-3.51666 2.03065e-20 0.489702)
(-3.6074 -1.17543e-20 -0.0241886)
(-3.47588 1.45285e-20 -0.566262)
(-3.10516 2.28053e-21 -1.08456)
(-2.51895 7.67071e-21 -1.52255)
(-1.76525 -1.00365e-21 -1.84217)
(-0.900833 -3.42866e-21 -2.03212)
(0.0292055 1.17678e-21 -2.10172)
(0.933856 -8.84362e-22 -2.07586)
(1.82278 5.11687e-22 -1.98258)
(2.66643 -7.20403e-22 -1.84524)
(3.44988 -2.35687e-22 -1.68298)
(4.16649 3.87106e-22 -1.51046)
(4.81422 1.6024e-22 -1.33828)
(5.3943 -7.66828e-23 -1.17354)
(5.91006 2.86039e-23 -1.02051)
(6.366 6.68783e-23 -0.881314)
(6.7671 1.3202e-22 -0.756584)
(7.11841 0 -0.645942)
(7.42473 -3.04e-23 -0.548403)
(7.69045 6.24409e-25 -0.462664)
(7.91944 -7.45039e-24 -0.387291)
(8.11462 0 -0.320846)
(8.31287 -8.28666e-24 -0.262265)
(-0.385117 0 2.65568)
(-1.0961 3.93942e-21 2.60072)
(-1.83149 0 2.44035)
(-2.53229 -7.46233e-21 2.17762)
(-3.16175 3.69101e-20 1.79838)
(-3.66956 -2.13858e-20 1.2965)
(-4.00075 0 0.679752)
(-4.1081 -1.2937e-20 -0.0263816)
(-3.94832 -2.8546e-21 -0.776754)
(-3.50602 0 -1.48905)
(-2.82026 1.15861e-21 -2.07831)
(-1.95781 0 -2.49291)
(-0.99195 0 -2.72294)
(0.0235177 0 -2.78799)
(0.985941 -2.56563e-22 -2.72979)
(1.91459 0 -2.58877)
(2.78132 -5.38582e-22 -2.39578)
(3.57482 6.52466e-23 -2.17516)
(4.29207 -3.38007e-22 -1.94516)
(4.9342 -1.09778e-22 -1.71868)
(5.50496 3.93834e-22 -1.50405)
(6.00958 2.11709e-22 -1.30608)
(6.4539 -9.44111e-23 -1.12694)
(6.84376 -8.0549e-23 -0.967006)
(7.1847 1.3918e-23 -0.825483)
(7.48178 0 -0.700912)
(7.73946 8.49424e-25 -0.591492)
(7.96161 -8.30507e-25 -0.495298)
(8.15099 -4.02487e-24 -0.410402)
(8.34382 0 -0.335218)
(-0.440196 4.18569e-21 3.39834)
(-1.22976 1.63506e-20 3.34387)
(-2.06804 -4.77892e-20 3.15358)
(-2.87441 -1.93382e-22 2.8315)
(-3.60589 2.30038e-20 2.3534)
(-4.19787 4.51472e-22 1.70603)
(-4.57854 -7.45514e-21 0.895761)
(-4.68475 6.59244e-21 -0.0444759)
(-4.46458 -8.5521e-21 -1.04535)
(-3.91886 2.16716e-20 -1.98015)
(-3.10805 8.87029e-21 -2.73086)
(-2.12068 0 -3.235)
(-1.04292 3.04159e-21 -3.49007)
(0.0624786 -5.47272e-22 -3.53039)
(1.08424 -2.36749e-21 -3.42102)
(2.05276 1.53486e-21 -3.21724)
(2.9408 -6.23498e-22 -2.95723)
(3.74135 1.38646e-21 -2.67008)
(4.45549 -3.94158e-22 -2.37718)
(5.08787 0 -2.09314)
(5.64514 -2.88137e-22 -1.82702)
(6.13467 -2.11584e-22 -1.58362)
(6.56376 -2.07316e-23 -1.36477)
(6.93919 1.57425e-22 -1.17027)
(7.26701 9.45802e-23 -0.998699)
(7.55249 6.55698e-23 -0.847992)
(7.80017 -3.05211e-24 -0.715761)
(8.01384 -3.65368e-25 -0.59955)
(8.19612 4.3762e-24 -0.496939)
(8.3822 0 -0.405851)
(-0.502927 1.72267e-20 4.23319)
(-1.37637 -1.66342e-20 4.18355)
(-2.32899 0 3.96557)
(-3.24672 -2.41803e-20 3.58008)
(-4.07863 6.37288e-20 2.98657)
(-4.74255 -1.59653e-20 2.16228)
(-5.14823 -2.7474e-20 1.11395)
(-5.21524 0 -0.111887)
(-4.89311 -1.4392e-21 -1.40475)
(-4.21838 -1.09059e-20 -2.58099)
(-3.27472 -1.38097e-21 -3.49206)
(-2.16817 -1.2938e-20 -4.07246)
(-0.98926 6.95564e-21 -4.3329)
(0.189139 -3.80483e-21 -4.32627)
(1.25853 0 -4.14645)
(2.25724 -8.07823e-22 -3.86491)
(3.15774 -1.23291e-21 -3.52643)
(3.95746 0 -3.16456)
(4.6614 0 -2.80344)
(5.27773 0 -2.45885)
(5.81597 5.57625e-22 -2.13995)
(6.28563 -5.87476e-23 -1.85102)
(6.69543 5.74578e-23 -1.59303)
(7.053 2.98974e-24 -1.36492)
(7.36484 -9.42965e-23 -1.16443)
(7.63638 -5.90679e-23 -0.988713)
(7.87211 -1.30181e-24 -0.834733)
(8.07572 -1.41515e-24 -0.699467)
(8.24964 -3.87023e-25 -0.580005)
(8.42771 0 -0.473792)
(-0.56429 -4.56006e-22 5.16397)
(-1.50671 4.43861e-21 5.1187)
(-2.55663 3.00829e-20 4.86991)
(-3.55956 -4.17283e-20 4.40919)
(-4.45902 -4.42268e-21 3.67457)
(-5.15578 3.67311e-21 2.6332)
(-5.54296 -4.10465e-22 1.29745)
(-5.52084 2.10903e-21 -0.263535)
(-5.06417 1.1965e-20 -1.87676)
(-4.25524 -1.32373e-20 -3.29563)
(-3.19591 2.27754e-21 -4.35174)
(-2.00199 1.37927e-20 -4.98774)
(-0.755619 -5.44071e-21 -5.23105)
(0.452266 5.41527e-21 -5.15807)
(1.54489 1.12366e-21 -4.8931)
(2.55211 0 -4.52188)
(3.44773 -1.39183e-23 -4.09542)
(4.23273 0 -3.65209)
(4.91528 3.02456e-22 -3.21859)
(5.50659 -2.95823e-22 -2.81144)
(6.01861 -6.66159e-22 -2.43928)
(6.46265 -7.99916e-23 -2.10536)
(6.84858 1.78253e-22 -1.80939)
(7.18464 3.93432e-23 -1.5491)
(7.47758 -1.0377e-22 -1.32116)
(7.73281 5.30255e-23 -1.12186)
(7.95471 3.26475e-24 -0.947439)
(8.14674 -4.29326e-25 -0.794282)
(8.31109 4.20195e-25 -0.658996)
(8.47996 0 -0.538569)
(-0.601587 -1.67172e-20 6.16486)
(-1.56164 -7.48897e-21 6.11657)
(-2.65193 5.55204e-21 5.82815)
(-3.67832 3.53816e-20 5.27665)
(-4.58645 6.76255e-21 4.37474)
(-5.26165 2.16661e-20 3.07835)
(-5.58147 -3.22417e-20 1.41131)
(-5.42044 -1.27475e-21 -0.522619)
(-4.82043 3.25891e-20 -2.46297)
(-3.89898 -1.45729e-20 -4.10557)
(-2.76602 -6.94418e-22 -5.27846)
(-1.53799 0 -5.94375)
(-0.277085 -1.86409e-21 -6.14569)
(0.89541 -1.45796e-21 -5.99555)
(1.97854 -1.10801e-21 -5.63914)
(2.96145 -1.72085e-21 -5.17128)
(3.82654 6.23382e-22 -4.65116)
(4.57679 9.45483e-22 -4.12266)
(5.22252 0 -3.61503)
(5.77704 1.12404e-22 -3.14511)
(6.25396 2.64445e-22 -2.72064)
(6.66567 -3.39647e-22 -2.34334)
(7.02264 -1.61506e-22 -2.01134)
(7.33333 2.50406e-23 -1.72088)
(7.60439 9.90291e-23 -1.46743)
(7.84103 -6.62825e-23 -1.24631)
(8.04727 2.03939e-24 -1.05301)
(8.22629 -1.99667e-24 -0.883318)
(8.37996 0 -0.733387)
(8.53852 0 -0.599773)
(-0.583039 -7.20801e-21 7.17195)
(-1.46716 4.05913e-20 7.10627)
(-2.50414 -3.94325e-20 6.77023)
(-3.46672 -1.25358e-21 6.11885)
(-4.31251 -2.3752e-21 5.03439)
(-4.90946 1.21433e-21 3.45612)
(-5.11492 0 1.42304)
(-4.77018 1.39679e-20 -0.902551)
(-4.04804 -1.94193e-20 -3.14757)
(-3.06224 0 -4.97383)
(-1.92063 3.31542e-21 -6.22554)
(-0.722712 -4.67358e-21 -6.88951)
(0.468324 2.46382e-21 -7.03096)
(1.56163 0 -6.80242)
(2.5858 2.36631e-21 -6.35582)
(3.50422 3.45087e-21 -5.79026)
(4.30651 1.29389e-21 -5.17598)
(4.99688 -1.35218e-21 -4.56299)
(5.58681 4.07336e-22 -3.98294)
(6.0905 0 -3.45275)
(6.52207 3.01889e-22 -2.97889)
(6.89403 3.60044e-22 -2.56127)
(7.21666 -2.29488e-22 -2.19619)
(7.49803 -2.72811e-22 -1.8783)
(7.74429 2.10361e-22 -1.60179)
(7.9601 0 -1.36098)
(8.14901 -9.02658e-23 -1.15061)
(8.3137 -5.07489e-25 -0.965935)
(8.45566 4.70724e-25 -0.802683)
(8.6029 2.57013e-26 -0.65702)
(-0.484402 -3.79571e-20 8.07311)
(-1.16414 3.89729e-20 7.98173)
(-2.02687 0 7.60237)
(-2.82306 6.61996e-21 6.85844)
(-3.53231 0 5.59457)
(-3.99729 -2.29427e-20 3.72497)
(-4.03306 2.31819e-20 1.3028)
(-3.47063 2.68247e-20 -1.40205)
(-2.68501 -2.0511e-20 -3.89832)
(-1.70442 8.7512e-21 -5.85524)
(-0.64286 -3.31934e-21 -7.13502)
(0.457556 -4.95492e-21 -7.76762)
(1.48159 1.11916e-20 -7.84175)
(2.46856 0 -7.54319)
(3.37879 -2.4178e-22 -7.01039)
(4.18883 -3.77203e-21 -6.35191)
(4.8924 2.93754e-23 -5.64901)
(5.495 0 -4.95747)
(6.00829 7.12926e-22 -4.31103)
(6.44603 -5.27968e-22 -3.72634)
(6.8215 -3.83465e-22 -3.20841)
(7.14613 -3.51233e-22 -2.75522)
(7.42908 2.67707e-22 -2.36121)
(7.67731 4.55363e-22 -2.01944)
(7.89602 -2.0978e-22 -1.72284)
(8.08899 0 -1.46483)
(8.25903 9.00858e-23 -1.23948)
(8.40821 -5.28325e-23 -1.04156)
(8.53755 2.00621e-23 -0.866437)
(8.67258 -7.11938e-24 -0.709966)
(-0.298765 2.52033e-21 8.71494)
(-0.623835 4.2322e-20 8.61262)
(-1.17876 -5.20874e-20 8.21379)
(-1.69739 -5.40525e-21 7.403)
(-2.19309 0 5.98186)
(-2.46853 1.30307e-20 3.85373)
(-2.21343 0 1.07215)
(-1.48189 1.28772e-20 -1.98718)
(-0.734513 0 -4.65043)
(0.161395 6.49732e-22 -6.70149)
(1.04588 1.42071e-20 -7.9361)
(1.93169 -6.40142e-21 -8.51128)
(2.79361 1.87958e-22 -8.54279)
(3.60908 2.87131e-21 -8.18016)
(4.35235 -6.92199e-22 -7.56844)
(5.0094 -2.82096e-22 -6.82786)
(5.5783 2.51094e-23 -6.04824)
(6.06553 0 -5.28981)
(6.4819 -1.02122e-21 -4.58764)
(6.83925 9.49374e-22 -3.95777)
(7.14858 -5.11385e-22 -3.40365)
(7.41897 3.51225e-22 -2.92143)
(7.65748 -4.95746e-22 -2.50383)
(7.86928 -3.05563e-22 -2.1425)
(8.05807 0 -1.82933)
(8.22648 1.53748e-22 -1.55697)
(8.37635 1.00292e-22 -1.31895)
(8.50904 -4.13951e-24 -1.10968)
(8.62499 -4.31356e-23 -0.924268)
(8.74701 1.21321e-23 -0.758311)
(-0.0419309 1.03863e-20 8.94697)
(0.144173 0 8.87933)
(0.0168515 1.08865e-20 8.53456)
(-0.121499 -2.46869e-20 7.74111)
(-0.326135 2.45733e-20 6.27597)
(-0.232423 -1.33953e-20 3.85961)
(0.519506 0 0.45044)
(1.12043 -1.28725e-20 -2.66381)
(1.72191 0 -5.32729)
(2.39138 -9.15863e-21 -7.31092)
(3.06742 -1.49622e-20 -8.55114)
(3.73355 -5.89929e-21 -9.10607)
(4.36691 -8.25442e-21 -9.09417)
(4.95249 7.13858e-21 -8.67324)
(5.47942 -2.44771e-21 -7.99628)
(5.94316 -1.77274e-21 -7.1912)
(6.34584 -2.6298e-21 -6.3532)
(6.69414 0 -5.54509)
(6.99665 0 -4.80228)
(7.26189 5.40841e-22 -4.13988)
(7.49712 3.95124e-22 -3.55981)
(7.70798 -6.50131e-23 -3.05669)
(7.8985 4.95611e-22 -2.62189)
(8.07144 0 -2.24602)
(8.22862 6.0575e-24 -1.92023)
(8.3712 -1.55292e-22 -1.63664)
(8.49994 -1.02908e-22 -1.38847)
(8.61535 5.55789e-23 -1.16988)
(8.7173 4.85436e-23 -0.975846)
(8.82569 -1.12081e-23 -0.801801)
(0.305307 -1.03987e-20 8.61731)
(1.1071 0 8.64958)
(1.50675 0 8.42818)
(1.81523 -2.47179e-20 7.68362)
(2.04844 2.45348e-20 6.16885)
(2.6186 2.83311e-20 3.61877)
(3.48482 -5.80994e-20 0.360803)
(4.02649 0 -2.95541)
(4.49385 -1.14222e-20 -5.7342)
(4.96233 0 -7.75842)
(5.39472 6.47431e-22 -8.98831)
(5.78389 1.74849e-20 -9.50721)
(6.13093 -6.57254e-22 -9.45277)
(6.43864 1.07549e-23 -8.98665)
(6.7105 1.35194e-21 -8.26533)
(6.95081 1.82913e-21 -7.41998)
(7.16488 -3.8518e-23 -6.54778)
(7.35833 9.9966e-22 -5.71198)
(7.53617 -4.23233e-22 -4.94729)
(7.70217 -5.38016e-22 -4.26763)
(7.85876 0 -3.67366)
(8.00719 -6.63852e-23 -3.15893)
(8.14788 -3.63905e-22 -2.71403)
(8.28074 -2.4021e-23 -2.32907)
(8.40544 6.26638e-24 -1.99485)
(8.52154 -1.03856e-23 -1.70333)
(8.62862 4.15599e-24 -1.4476)
(8.72629 0 -1.2218)
(8.81383 -2.52896e-23 -1.02086)
(8.90814 6.0859e-24 -0.840171)
(0.847958 1.8696e-20 7.38776)
(2.31187 -1.04836e-20 7.84845)
(3.2429 -1.07311e-20 7.90312)
(3.98197 2.26192e-20 7.22769)
(4.68344 0 5.68901)
(5.55322 1.38543e-20 3.18681)
(6.51224 1.43143e-20 -0.0492702)
(7.09415 2.519e-20 -3.33092)
(7.47312 2.13277e-20 -6.06299)
(7.72941 -1.46894e-21 -8.02838)
(7.88116 8.0391e-21 -9.20441)
(7.95473 0 -9.67702)
(7.98001 -5.22749e-22 -9.58682)
(7.98153 -2.36705e-21 -9.09495)
(7.97745 -1.39306e-21 -8.3563)
(7.98005 1.75783e-21 -7.50039)
(7.99652 -2.61728e-21 -6.62267)
(8.03 1.95565e-21 -5.78456)
(8.08058 1.30571e-21 -5.01915)
(8.14626 1.58925e-22 -4.33908)
(8.22388 7.38964e-22 -3.74422)
(8.30989 -4.99101e-22 -3.22775)
(8.40086 -4.44191e-23 -2.78019)
(8.49376 -9.1239e-24 -2.39174)
(8.58604 8.95829e-24 -2.05337)
(8.67567 1.71528e-22 -1.75721)
(8.76103 -6.95574e-25 -1.49652)
(8.84086 -6.66453e-23 -1.26556)
(8.91386 6.18936e-23 -1.0594)
(8.99381 2.88227e-26 -0.873491)
(9.99443 0 0.127905)
(9.98324 0 0.255173)
(9.96283 -9.56625e-21 0.388036)
(9.93241 -1.92451e-23 0.53212)
(9.89269 -5.1687e-21 0.690183)
(9.84375 5.30613e-21 0.861194)
(9.78541 5.63495e-21 1.04087)
(9.71803 -5.86058e-21 1.22364)
(9.64252 -4.88532e-21 1.40497)
(9.56021 -1.44878e-21 1.58296)
(9.47254 1.48985e-21 1.75876)
(9.38096 5.3033e-21 1.936)
(9.28678 6.22902e-21 2.11982)
(9.19116 4.76876e-21 2.3159)
(9.09508 1.47818e-21 2.52988)
(8.9994 -1.70233e-21 2.76712)
(8.90493 -3.03218e-24 3.03273)
(8.81245 5.31364e-21 3.33188)
(8.72278 -1.06666e-20 3.67013)
(8.63683 0 4.05398)
(8.5557 7.14304e-21 4.4914)
(8.48079 -7.09879e-21 4.99272)
(8.41398 1.44695e-20 5.57189)
(8.35819 0 6.24852)
(8.31844 6.2744e-21 7.05157)
(8.30552 3.74434e-21 8.02628)
(8.34533 3.85562e-21 9.24842)
(8.56497 9.2685e-22 10.8502)
(9.55797 -4.86503e-22 13.0478)
(10.4096 6.34302e-22 16.6568)
(9.9949 8.85985e-21 0.132267)
(9.98528 1.77914e-23 0.263859)
(9.96769 -9.37635e-21 0.40121)
(9.94133 0 0.550134)
(9.90698 0 0.71346)
(9.86481 5.05559e-21 0.890077)
(9.81475 1.11296e-23 1.07548)
(9.75721 -1.64355e-22 1.26381)
(9.69313 1.08284e-20 1.45024)
(9.62384 -5.51036e-21 1.63269)
(9.55086 5.65227e-21 1.81217)
(9.47573 -5.91792e-21 1.99227)
(9.39994 1.36616e-21 2.17814)
(9.32494 -7.76754e-21 2.37547)
(9.2521 -1.25926e-20 2.58992)
(9.18279 -6.32989e-21 2.82678)
(9.11849 8.07228e-21 3.0911)
(9.06085 -8.52389e-24 3.38787)
(9.01185 1.17712e-20 3.7224)
(8.97402 1.67645e-21 4.10078)
(8.95068 -8.65781e-21 4.53038)
(8.94649 1.33742e-20 5.02056)
(8.96828 -8.35284e-21 5.5836)
(9.02677 3.08327e-21 6.23608)
(9.14009 -8.91522e-21 7.00081)
(9.34181 4.03557e-21 7.90934)
(9.69162 -1.87834e-21 9.00354)
(10.2712 9.77786e-22 10.3307)
(11.4372 -1.11569e-22 11.8301)
(12.6001 -1.0304e-22 13.0713)
(9.99539 -8.65069e-21 0.136109)
(9.98739 0 0.271502)
(9.97272 0 0.412778)
(9.95055 3.59998e-23 0.565909)
(9.92172 1.83016e-23 0.733784)
(9.88649 -4.87765e-21 0.915205)
(9.84491 -5.02079e-21 1.10545)
(9.79742 7.90475e-23 1.29838)
(9.74498 -1.07214e-20 1.4889)
(9.68894 5.70966e-21 1.67467)
(9.63084 -5.51524e-21 1.85658)
(9.57232 7.00008e-22 2.03811)
(9.51506 -6.50597e-21 2.22435)
(9.46073 -5.76963e-21 2.42092)
(9.41108 7.54418e-21 2.63337)
(9.36795 4.65292e-21 2.86684)
(9.33342 -6.27599e-21 3.12611)
(9.30993 0 3.41576)
(9.30051 -4.86137e-21 3.74052)
(9.30901 -9.23902e-21 4.10557)
(9.34058 9.13503e-21 4.51691)
(9.40228 -3.26663e-21 4.98173)
(9.50419 -1.50379e-21 5.50873)
(9.66107 0 6.10829)
(9.8949 0 6.79196)
(10.2383 1.96446e-21 7.57012)
(10.7372 2.43544e-22 8.44425)
(11.4127 -1.15512e-21 9.39635)
(12.4124 3.5496e-22 10.3642)
(13.7334 3.32532e-22 11.0762)
(9.99589 3.24555e-23 0.139385)
(9.98956 -8.46748e-21 0.278003)
(9.97786 8.48447e-21 0.422582)
(9.95997 1.38482e-22 0.579224)
(9.93676 7.10524e-23 0.750855)
(9.9086 7.25013e-23 0.936195)
(9.87561 4.65437e-24 1.13032)
(9.83828 -4.83564e-21 1.3268)