/*--------------------------------*- C++ -*----------------------------------*\
| =========                 |                                                 |
| \\      /  F ield         | OpenFOAM: The Open Source CFD Toolbox           |
|  \\    /   O peration     | Version:  dev                                   |
|   \\  /    A nd           | Web:      www.OpenFOAM.org                      |
|    \\/     M anipulation  |                                                 |
\*---------------------------------------------------------------------------*/
FoamFile
{
    version     2.0;
    format      ascii;
    class       surfaceVectorField;
    location    "0.1";
    object      Uf;
}
// * * * * * * * * * * * * * * * * * * * * * * * * * * * * * * * * * * * * * //

dimensions      [0 1 -1 0 0 0 0];

internalField   nonuniform List<vector> 
5457
(
(9.92198 0 0.0234438)
(9.96895 -3.97929e-21 0.0380965)
(9.82931 -6.57688e-23 0.0307196)
(9.93034 2.0157e-21 0.0463533)
(9.72025 2.72993e-24 0.0365253)
(9.86167 -1.93652e-22 0.0558939)
(9.59293 2.04539e-22 0.042139)
(9.76635 2.29297e-21 0.0668481)
(9.44775 1.37525e-22 0.0475211)
(9.64978 -2.28335e-21 0.0780888)
(9.28578 1.03646e-21 0.05265)
(9.51371 2.77088e-22 0.0892544)
(9.10804 1.01015e-21 0.0576426)
(9.35849 -1.21584e-22 0.100345)
(8.9153 0 0.0626659)
(9.18471 0 0.111466)
(8.70805 0 0.0679028)
(8.9932 0 0.122793)
(8.48634 -6.87889e-22 0.073544)
(8.78465 0 0.134566)
(8.24979 -2.13204e-21 0.079778)
(8.5593 6.57131e-22 0.147078)
(7.99761 1.64126e-21 0.0867805)
(8.31693 -1.44305e-21 0.160633)
(7.72862 2.19563e-21 0.0947058)
(8.05685 4.53187e-21 0.17552)
(7.44141 -2.50624e-21 0.103683)
(7.77804 -3.83658e-21 0.191988)
(7.13441 -1.73187e-21 0.113814)
(7.47919 -1.70646e-21 0.21023)
(6.80602 3.78546e-21 0.12517)
(7.15883 6.90639e-21 0.230375)
(6.45472 3.7638e-21 0.137789)
(6.81548 -1.07478e-20 0.25247)
(6.07921 4.42432e-21 0.151671)
(6.44773 1.74317e-21 0.276468)
(5.67854 -4.9931e-21 0.166768)
(6.05438 -4.16898e-21 0.302218)
(5.25221 -4.15271e-21 0.182984)
(5.63464 -9.62298e-21 0.329443)
(4.80037 -6.02842e-21 0.200161)
(5.18819 4.22408e-20 0.357728)
(4.32387 8.33805e-22 0.218088)
(4.71538 -4.04872e-20 0.386516)
(3.82442 3.63286e-20 0.236502)
(4.21733 -3.22277e-20 0.415115)
(3.3046 -1.57008e-20 0.255117)
(3.69607 7.07915e-20 0.442726)
(2.76782 -9.854e-20 0.273653)
(3.15454 -5.23384e-20 0.468507)
(2.21825 5.82462e-21 0.291886)
(2.59659 -5.8482e-20 0.491653)
(1.66049 2.02864e-19 0.309681)
(2.02683 -1.74557e-19 0.511502)
(1.09927 -1.56116e-20 0.327167)
(1.45036 3.95342e-19 0.527597)
(0.538651 3.6061e-19 0.339063)
(0.868609 -1.51375e-19 0.539975)
(0.363681 3.55261e-20 0.528529)
(9.99829 -1.89141e-21 0.0490129)
(9.99496 1.22721e-22 0.0389316)
(9.96245 1.86113e-21 0.0674973)
(9.98024 -4.14048e-21 0.0642842)
(9.90303 2.1264e-21 0.0840785)
(9.93848 -1.28668e-22 0.0863467)
(9.82052 -2.50127e-22 0.10136)
(9.86951 -3.85047e-22 0.110167)
(9.71443 -2.1129e-21 0.11905)
(9.77679 2.50568e-22 0.135158)
(9.58512 -8.85783e-22 0.136782)
(9.6616 8.28299e-22 0.16051)
(9.43353 -1.13026e-21 0.15452)
(9.52421 -5.65568e-22 0.185926)
(9.26075 0 0.172416)
(9.36518 1.17594e-21 0.211393)
(9.06781 0 0.190738)
(9.18549 1.2255e-21 0.237104)
(8.85548 1.35331e-21 0.209856)
(8.9861 -1.25097e-21 0.263443)
(8.6241 1.32112e-21 0.230201)
(8.76761 1.33721e-21 0.290943)
(8.37357 1.51891e-21 0.252216)
(8.53016 0 0.320211)
(8.10333 -1.602e-21 0.276313)
(8.27344 -1.36867e-21 0.351855)
(7.81245 -3.01118e-21 0.302839)
(7.9967 9.08045e-21 0.386429)
(7.49972 7.03543e-21 0.332053)
(7.69886 1.55686e-22 0.424388)
(7.16376 -7.839e-21 0.364105)
(7.37858 7.01356e-21 0.466062)
(6.80316 -1.2621e-20 0.399016)
(7.03441 -2.88283e-20 0.511624)
(6.41662 -6.92522e-21 0.436658)
(6.66488 -2.40816e-21 0.56106)
(6.00308 -8.8688e-21 0.476726)
(6.26867 7.10977e-21 0.614135)
(5.5619 3.73848e-20 0.518723)
(5.84472 3.36197e-20 0.670361)
(5.09298 6.79603e-21 0.561941)
(5.3924 1.99631e-21 0.728963)
(4.59694 -7.34569e-20 0.605468)
(4.91166 -2.01989e-20 0.788858)
(4.07526 3.44155e-21 0.648217)
(4.40324 -4.35053e-20 0.848656)
(3.53036 3.27333e-20 0.688993)
(3.86874 1.12714e-19 0.906709)
(2.96568 -1.23178e-20 0.726618)
(3.31082 -1.05961e-19 0.961194)
(2.38559 -2.40296e-19 0.760082)
(2.7332 0 1.01028)
(1.79526 2.44447e-20 0.788722)
(2.14067 -2.37416e-19 1.05232)
(1.20024 2.53295e-19 0.812642)
(1.5391 2.56226e-19 1.08607)
(0.605207 -4.71831e-19 0.821588)
(0.927775 5.25718e-19 1.11178)
(0.388139 -9.68666e-19 1.10398)
(9.99087 -2.17786e-21 0.0567608)
(9.99267 4.1032e-21 0.0433914)
(9.95792 -6.0827e-21 0.0860744)
(9.97532 -6.14509e-21 0.080763)
(9.90176 -2.64395e-21 0.114946)
(9.93445 0 0.11513)
(9.82351 1.229e-22 0.145658)
(9.86835 -2.61241e-21 0.151249)
(9.72278 3.19912e-21 0.177693)
(9.77922 2.67174e-21 0.189336)
(9.59954 1.13163e-21 0.210275)
(9.66813 -5.43532e-22 0.228422)
(9.45437 1.76148e-21 0.243047)
(9.53535 1.69291e-21 0.267878)
(9.28817 2.40204e-21 0.276012)
(9.38136 -1.14375e-21 0.307511)
(9.10185 -5.54305e-23 0.309467)
(9.20703 -1.19413e-21 0.347489)
(8.89613 -1.23591e-21 0.343948)
(9.01322 -3.74947e-21 0.388305)
(8.67134 0 0.380149)
(8.80052 0 0.430703)
(8.42743 -2.90404e-21 0.418828)
(8.56908 1.08427e-20 0.475573)
(8.16386 9.43921e-21 0.460726)
(8.31859 5.70682e-21 0.523833)
(7.87974 1.21397e-20 0.506499)
(8.04833 3.69767e-22 0.576349)
(7.57384 2.16364e-22 0.556668)
(7.7572 1.55686e-22 0.633859)
(7.24473 -1.44064e-20 0.61158)
(7.44386 6.7167e-21 0.696932)
(6.89089 -1.82991e-20 0.671371)
(7.10675 -3.46512e-20 0.765915)
(6.5108 1.17374e-20 0.735923)
(6.74426 -4.12394e-21 0.840888)
(6.10313 4.99115e-20 0.804822)
(6.35483 -7.70971e-21 0.921615)
(5.66683 -2.14233e-21 0.877311)
(5.93705 6.60035e-20 1.00749)
(5.20133 -2.52609e-20 0.952253)
(5.48987 -6.53149e-22 1.09745)
(4.70671 9.46703e-21 1.02811)
(5.01271 -2.64789e-20 1.18999)
(4.18386 6.76113e-20 1.10296)
(4.50567 0 1.28307)
(3.63466 -2.85389e-20 1.17458)
(3.96975 6.70028e-20 1.37418)
(3.06214 -9.2385e-20 1.24055)
(3.407 -9.32929e-20 1.46041)
(2.47053 0 1.29852)
(2.82075 0 1.53869)
(1.86521 0 1.34644)
(2.21565 2.07827e-19 1.60601)
(1.2526 5.31646e-19 1.38337)
(1.59846 2.08532e-21 1.65979)
(0.639155 1.35089e-20 1.39446)
(0.966971 2.82686e-19 1.69961)
(0.404087 -1.10265e-18 1.69097)
(9.98682 1.14694e-23 0.0678631)
(9.99146 0 0.0498284)
(9.95393 1.1196e-23 0.109158)
(9.97241 -3.95699e-21 0.0972107)
(9.89885 0 0.150713)
(9.93148 0 0.14336)
(9.82201 0 0.194299)
(9.86672 0 0.191591)
(9.72332 -1.10968e-21 0.239576)
(9.77959 0 0.242417)
(9.60278 4.47568e-23 0.285704)
(9.67101 -6.49097e-21 0.294848)
(9.46089 -1.2464e-21 0.332174)
(9.54133 6.64543e-21 0.347977)
(9.2985 -4.7403e-21 0.378941)
(9.39104 -2.31946e-21 0.401421)
(9.1165 -4.9188e-21 0.426374)
(9.22096 -2.41962e-21 0.455319)
(8.91554 -2.46843e-21 0.475184)
(9.03192 2.41513e-21 0.510271)
(8.69596 1.09731e-20 0.526314)
(8.82449 5.1431e-21 0.567227)
(8.45767 1.9391e-20 0.580817)
(8.59879 -4.99428e-21 0.627348)
(8.20016 -3.42703e-21 0.63974)
(8.35453 3.03515e-21 0.691863)
(7.9225 -1.16168e-20 0.704036)
(8.09097 -6.01341e-21 0.761947)
(7.62345 6.73531e-21 0.774492)
(7.80701 6.00836e-21 0.838638)
(7.30152 -1.40243e-20 0.851677)
(7.50124 6.65528e-21 0.922764)
(6.95507 -2.0111e-20 0.935884)
(7.17204 -2.39376e-22 1.01489)
(6.5824 -2.36174e-20 1.02708)
(6.81761 2.14279e-20 1.11525)
(6.1819 9.25921e-21 1.12483)
(6.43617 -3.73016e-20 1.22368)
(5.75214 6.67053e-20 1.22824)
(6.02596 -6.4134e-21 1.33954)
(5.29205 -2.16281e-21 1.33587)
(5.58545 5.10155e-20 1.46163)
(4.8011 -3.56289e-20 1.44568)
(5.11347 -1.88199e-20 1.58808)
(4.27953 1.96291e-22 1.55505)
(4.60944 0 1.71631)
(3.72853 4.00902e-22 1.66076)
(4.07356 -7.87575e-20 1.84298)
(3.15055 2.04324e-22 1.75917)
(3.50715 -1.02408e-21 1.96407)
(2.54948 2.1026e-19 1.84646)
(2.91294 1.0002e-19 2.07503)
(1.93081 2.07695e-19 1.91894)
(2.29528 4.01605e-19 2.17113)
(1.30173 -2.43333e-19 1.97426)
(1.66169 4.06624e-21 2.24783)
(0.67064 -8.46667e-19 1.99184)
(1.00869 -6.95503e-19 2.3031)
(0.421572 -3.23239e-19 2.29134)
(9.98494 -4.0164e-21 0.079745)
(9.99092 0 0.0571802)
(9.95173 -3.92068e-21 0.131612)
(9.97106 3.98561e-21 0.113826)
(9.89767 0 0.184697)
(9.93028 7.52509e-21 0.171062)
(9.82245 0 0.240394)
(9.86692 -5.17354e-22 0.231083)
(9.726 -5.45955e-21 0.298426)
(9.78203 1.03991e-21 0.294296)
(9.60837 2.6826e-22 0.357827)
(9.67632 -1.11019e-21 0.35967)
(9.47003 5.46436e-21 0.417866)
(9.55014 -1.07721e-21 0.426071)
(9.31179 0 0.478366)
(9.40401 4.51928e-21 0.492932)
(9.1345 4.9726e-21 0.539709)
(9.23875 4.68423e-21 0.560356)
(8.93881 1.00593e-20 0.602746)
(9.05515 1.21946e-20 0.62904)
(8.72505 -1.09464e-20 0.668651)
(8.85376 5.1686e-21 0.700136)
(8.49311 -2.12534e-20 0.738762)
(8.63471 -1.06262e-20 0.775075)
(8.24249 3.39824e-22 0.814436)
(8.39772 -5.54062e-21 0.855393)
(7.97226 1.17563e-20 0.896935)
(8.14203 5.6919e-21 0.942583)
(7.68112 5.93614e-21 0.987336)
(7.86654 -1.17771e-20 1.03799)
(7.36754 2.03574e-20 1.08647)
(7.56979 1.21349e-20 1.14274)
(7.02971 4.15608e-20 1.19483)
(7.25003 3.33581e-20 1.25766)
(6.66576 7.04391e-21 1.31255)
(6.90533 1.94343e-21 1.38319)
(6.27373 -5.26035e-20 1.43926)
(6.53358 -6.17863e-21 1.51934)
(5.85176 -2.14147e-20 1.57402)
(6.13267 -4.54938e-20 1.66555)
(5.39824 3.35372e-20 1.71521)
(5.7005 5.58585e-22 1.82058)
(4.91191 1.70351e-20 1.86041)
(5.23522 1.69821e-20 1.98237)
(4.39221 -7.98907e-20 2.00635)
(4.73536 1.72468e-20 2.14789)
(3.8395 -7.93119e-20 2.14884)
(4.20018 -6.95105e-20 2.31308)
(3.25543 9.99181e-20 2.28293)
(3.62998 1.85045e-20 2.47276)
(2.64338 2.9492e-19 2.40309)
(3.02661 5.33546e-21 2.62077)
(2.00875 1.93728e-19 2.50363)
(2.39378 2.82647e-19 2.75028)
(1.35932 -4.56293e-19 2.58023)
(1.73962 1.98133e-21 2.85425)
(0.704857 -1.68912e-19 2.60552)
(1.05913 -4.5128e-19 2.92836)
(0.442621 2.76345e-19 2.91486)
(9.98415 8.04973e-21 0.0919362)
(9.99072 7.55121e-21 0.0649172)
(9.9509 1.54739e-20 0.153745)
(9.97065 8.20056e-21 0.130461)
(9.89806 6.91055e-21 0.217958)
(9.93044 6.98576e-21 0.198139)
(9.82486 5.41165e-22 0.285556)
(9.86876 -1.11871e-23 0.26952)
(9.7311 5.36314e-21 0.356096)
(9.78647 1.03991e-21 0.344729)
(9.61688 -2.45509e-21 0.428429)
(9.68411 1.27178e-20 0.42261)
(9.48268 -1.95445e-21 0.501619)
(9.56201 -4.42564e-21 0.501828)
(9.32929 9.2053e-21 0.575378)
(9.42072 1.11853e-20 0.581643)
(9.15753 1.19964e-20 0.650124)
(9.26105 9.22366e-21 0.662117)
(8.96805 7.21888e-21 0.726859)
(9.08378 -6.91388e-21 0.74404)
(8.76117 5.29786e-21 0.806995)
(8.88948 5.32102e-23 0.828761)
(8.53682 5.14736e-21 0.89216)
(8.67827 -4.95725e-21 0.917978)
(8.29446 -5.29646e-23 0.984028)
(8.44987 -5.43799e-21 1.01353)
(8.03317 -1.80502e-20 1.08418)
(8.20357 -5.79575e-21 1.11724)
(7.75163 -5.29059e-21 1.19401)
(7.93823 -6.49607e-21 1.23078)
(7.44821 2.53906e-20 1.31464)
(7.65234 1.21349e-20 1.35559)
(7.12098 -6.63158e-21 1.44684)
(7.34408 5.08092e-20 1.49281)
(6.76781 -1.13675e-20 1.59096)
(7.01132 -1.92052e-20 1.64319)
(6.38639 4.72429e-22 1.74681)
(6.65166 2.11956e-20 1.80699)
(5.97436 -2.2968e-20 1.91355)
(6.26254 -5.00566e-20 1.98387)
(5.52941 -1.57995e-20 2.08951)
(5.84124 1.36159e-20 2.17271)
(5.04945 1.71967e-20 2.27204)
(5.38507 6.23958e-20 2.37145)
(4.53284 2.65954e-20 2.45735)
(4.8915 -6.40898e-20 2.57682)
(3.97882 2.93001e-20 2.64036)
(4.35849 9.62281e-21 2.78417)
(3.38791 -7.63041e-20 2.81468)
(3.78496 1.97368e-20 2.98724)
(2.76254 -3.74268e-21 2.97285)
(3.17134 -1.66417e-20 3.17816)
(2.10765 8.7799e-20 3.10665)
(2.52015 6.79464e-21 3.3477)
(1.43134 1.65993e-21 3.2091)
(1.8397 0 3.48563)
(0.744539 1.15624e-21 3.24518)
(1.12306 1.64058e-21 3.58459)
(0.468947 -2.68339e-20 3.57407)
(9.98397 7.71043e-21 0.104179)
(9.99072 -2.39162e-22 0.0727437)
(9.9511 -3.01885e-22 0.175478)
(9.97089 8.55789e-21 0.146902)
(9.89973 -2.03238e-23 0.250328)
(9.93164 -1.69011e-20 0.224466)
(9.82888 5.0006e-22 0.329378)
(9.87195 5.06165e-22 0.306716)
(9.73827 8.53537e-21 0.411953)
(9.79263 -9.19888e-21 0.393467)
(9.62802 1.05407e-20 0.496709)
(9.69409 -7.25005e-21 0.483368)
(9.49861 8.9021e-21 0.58253)
(9.57667 2.18228e-21 0.574882)
(9.35082 1.11801e-20 0.669031)
(9.44091 -2.1458e-21 0.667115)
(9.18546 -9.88035e-21 0.756654)
(9.28764 -4.52535e-21 0.760082)
(9.0032 -1.39955e-20 0.846544)
(9.11764 -4.84891e-21 0.854661)
(8.80436 -1.02621e-20 0.940342)
(8.93147 2.80536e-23 0.952392)
(8.58888 -1.5548e-20 1.03996)
(8.7293 -1.34795e-22 1.05523)
(8.35625 -1.1184e-20 1.14739)
(8.51088 -1.57976e-20 1.16532)
(8.10556 5.75062e-21 1.26454)
(8.27551 4.81842e-21 1.28481)
(7.83548 1.11532e-20 1.39314)
(8.02207 2.22739e-20 1.41572)
(7.5443 3.80161e-20 1.53466)
(7.74906 2.32381e-20 1.55985)
(7.22997 3.73974e-20 1.6902)
(7.45455 -1.0225e-20 1.7187)
(6.8901 1.38452e-20 1.86044)
(7.13626 4.97591e-20 1.89339)
(6.52203 -3.01791e-20 2.0455)
(6.79152 -2.52187e-20 2.08457)
(6.12283 -1.27173e-20 2.24479)
(6.41729 -1.56804e-20 2.29227)
(5.68939 9.23944e-20 2.45681)
(6.01019 1.54249e-20 2.51572)
(5.21858 -2.03754e-20 2.6789)
(5.56656 1.07093e-19 2.75308)
(4.70745 -8.0185e-20 2.90698)
(5.08259 -1.42085e-19 3.00116)
(4.15365 1.8052e-22 3.13523)
(4.5546 8.31571e-21 3.25501)
(3.55601 7.89751e-20 3.35592)
(3.9795 5.98426e-20 3.50751)
(2.91534 -5.85335e-21 3.55941)
(3.35562 -6.46763e-20 3.74915)
(2.23547 -8.10849e-20 3.73443)
(2.68334 -6.80483e-21 3.96796)
(1.52439 0 3.87036)
(1.97041 0 4.14974)
(0.794344 -2.67202e-20 3.92388)
(1.20723 -4.91361e-20 4.28268)
(0.503775 2.1154e-20 4.2832)
(9.98416 7.14831e-22 0.116264)
(9.99084 -7.79034e-21 0.0804774)
(9.95207 -8.34865e-21 0.196641)
(9.97156 -1.50263e-20 0.162957)
(9.90244 -1.61643e-20 0.281617)
(9.93363 -1.63141e-20 0.249901)
(9.8343 -9.30982e-21 0.371618)
(9.87626 7.95307e-21 0.342493)
(9.74729 -2.49604e-20 0.465721)
(9.80028 -2.08151e-21 0.440269)
(9.64153 -1.54944e-20 0.56237)
(9.70605 -4.28513e-21 0.541644)
(9.51755 -8.91733e-21 0.660266)
(9.59387 6.30971e-21 0.644877)
(9.3761 -1.78787e-20 0.758928)
(9.46431 -2.3783e-21 0.74892)
(9.218 5.01998e-22 0.85882)
(9.3182 -6.86008e-21 0.853746)
(9.04393 9.23257e-21 0.961219)
(9.15636 4.74229e-21 0.960311)
(8.85424 1.01529e-20 1.06799)
(8.97935 4.66634e-21 1.07033)
(8.64891 -5.72798e-22 1.18131)
(8.78738 1.00323e-20 1.18602)
(8.42747 4.53107e-22 1.30351)
(8.58025 -1.04911e-20 1.30981)
(8.18904 2.15516e-20 1.43682)
(8.35734 1.05612e-20 1.44418)
(7.93231 3.43703e-20 1.58335)
(8.11757 1.08169e-20 1.59152)
(7.65555 -2.54025e-20 1.74494)
(7.85946 2.32379e-20 1.754)
(7.3566 2.85717e-21 1.92309)
(7.58106 -4.77898e-20 1.93353)
(7.03288 9.80441e-21 2.11892)
(7.27997 4.92411e-20 2.13171)
(6.68135 -1.06046e-20 2.33299)
(6.95329 -3.86274e-20 2.34968)
(6.29851 1.28329e-20 2.56518)
(6.59758 5.30527e-20 2.58802)
(5.88041 3.12188e-20 2.81442)
(6.20877 -4.05128e-20 2.84657)
(5.42272 -1.75436e-20 3.07837)
(5.78218 -1.11121e-20 3.12407)
(4.92085 -5.17916e-20 3.35303)
(5.31253 3.95736e-20 3.4178)
(4.37039 6.85934e-20 3.6322)
(4.79412 -5.8241e-20 3.72299)
(3.7677 -8.52631e-20 3.90706)
(4.22124 1.22778e-19 4.03219)
(3.11098 -6.49109e-20 4.16575)
(3.58903 -2.73185e-19 4.33453)
(2.4018 7.43614e-20 4.39331)
(2.89431 1.43665e-19 4.61518)
(1.64722 -4.97327e-20 4.57411)
(2.14285 2.23866e-21 4.85492)
(0.86111 -6.53233e-22 4.65502)
(1.321 -4.41543e-20 5.03504)
(0.551874 4.23086e-20 5.05643)
(9.9846 -2.36184e-20 0.12803)
(9.99104 -1.52917e-20 0.0879963)
(9.9536 -2.30076e-20 0.217076)
(9.97256 7.57739e-21 0.178463)
(9.90601 8.09582e-21 0.311662)
(9.93625 7.8777e-21 0.274294)
(9.84091 1.50599e-20 0.412074)
(9.88152 -7.85037e-21 0.376673)
(9.75792 1.85663e-20 0.517148)
(9.80924 7.11695e-21 0.484905)
(9.65719 1.7646e-20 0.625099)
(9.71975 1.9526e-20 0.597157)
(9.53922 1.27441e-20 0.734447)
(9.61335 4.43236e-23 0.711472)
(9.40481 8.58636e-21 0.844615)
(9.49062 5.16172e-23 0.826654)
(9.25479 -2.48019e-21 0.956081)
(9.3524 6.54694e-21 0.942631)
(9.08983 1.75346e-22 1.07025)
(9.19954 -4.60259e-21 1.06043)
(8.91035 4.61026e-21 1.18919)
(9.03263 4.66631e-21 1.18192)
(8.71638 -1.31857e-22 1.31535)
(8.85196 0 1.30957)
(8.50753 -1.28728e-22 1.45137)
(8.65739 -1.12336e-22 1.44608)
(8.28298 -1.68843e-22 1.59984)
(8.4484 -9.97028e-21 1.59427)
(8.04149 -1.64841e-22 1.76322)
(8.224 -2.10894e-20 1.75688)
(7.78135 0 1.94378)
(7.98279 1.05983e-20 1.93649)
(7.50038 -2.43256e-22 2.14349)
(7.72288 -1.091e-20 2.13546)
(7.19584 -2.37501e-22 2.36401)
(7.44183 2.24621e-20 2.35591)
(6.86442 2.61265e-20 2.6065)
(7.13663 -4.69231e-20 2.59962)
(6.5021 -1.39771e-21 2.87154)
(6.80349 6.17111e-20 2.86793)
(6.1041 -8.24906e-20 3.1588)
(6.43779 -3.92412e-20 3.16153)
(5.66479 4.6615e-20 3.46671)
(6.03387 -4.29149e-20 3.48016)
(5.17773 3.19731e-20 3.79189)
(5.58491 1.26821e-19 3.82215)
(4.63591 -1.89489e-21 4.12841)
(5.0829 -5.93997e-20 4.18366)
(4.03227 -6.98051e-20 4.46694)
(4.51881 7.01693e-20 4.55776)
(3.36095 -5.96934e-20 4.79371)
(3.88332 -1.89808e-19 4.93305)
(2.61938 6.98471e-20 5.08957)
(3.16758 1.29847e-19 5.29225)
(1.81174 7.27224e-21 5.33181)
(2.37254 -6.53465e-20 5.61011)
(0.952813 -3.88187e-22 5.45393)
(1.47737 7.87445e-20 5.85756)
(0.619927 -3.96805e-22 5.91326)
(9.98522 1.61789e-20 0.139355)
(9.99131 -8.88273e-24 0.0952132)
(9.95558 3.84655e-20 0.236637)
(9.9738 1.50464e-20 0.193287)
(9.9103 -8.25821e-21 0.340302)
(9.93938 8.31294e-21 0.297502)
(9.84856 -1.56125e-20 0.450549)
(9.88758 -1.58876e-22 0.40909)
(9.76999 8.2262e-21 0.565986)
(9.81934 -9.95287e-22 0.527166)
(9.67475 1.69002e-21 0.684594)
(9.73501 9.06217e-21 0.649645)
(9.56336 -1.26469e-20 0.804711)
(9.63487 -6.26482e-21 0.774353)
(9.43664 -1.90906e-21 0.925662)
(9.51954 -6.38062e-21 0.899944)
(9.29542 4.29042e-21 1.04793)
(9.38987 -4.26519e-21 1.0263)
(9.14044 0 1.17304)
(9.24674 0 1.15449)
(8.97216 0 1.30324)
(9.09081 -4.53173e-21 1.28656)
(8.79068 1.9433e-23 1.44125)
(8.92243 4.58444e-21 1.42516)
(8.59573 -1.00707e-20 1.58999)
(8.74158 -9.54574e-21 1.57329)
(8.38661 -3.10223e-20 1.7524)
(8.54786 -2.9587e-22 1.73406)
(8.16218 -9.94549e-21 1.93133)
(8.34045 -1.09984e-20 1.91057)
(7.92084 -5.69381e-22 2.12947)
(8.11807 -1.01686e-20 2.10579)
(7.66046 1.21971e-20 2.34932)
(7.87899 1.03158e-20 2.32258)
(7.37829 -2.50471e-20 2.59315)
(7.62086 1.17128e-20 2.56364)
(7.07086 -1.00445e-20 2.86291)
(7.34067 -6.9373e-20 2.83148)
(6.73378 2.26696e-20 3.16009)
(7.03452 5.81976e-20 3.12835)
(6.36156 2.92953e-22 3.48548)
(6.69743 -1.26438e-20 3.4561)
(5.94735 3.93007e-20 3.8388)
(6.32295 -1.12788e-20 3.81592)
(5.48277 3.32429e-20 4.21806)
(5.90288 2.04228e-21 4.20787)
(4.95775 1.4213e-20 4.61862)
(5.42685 1.91901e-20 4.63008)
(4.36087 -5.29168e-20 5.03178)
(4.88199 5.87565e-20 5.07753)
(3.68026 3.54033e-21 5.44291)
(4.25317 -1.11905e-19 5.54002)
(2.90607 -7.69728e-21 5.82883)
(3.523 6.14422e-20 5.99933)
(2.03547 7.95833e-21 6.15761)
(2.68269 -1.24684e-19 6.42445)
(1.08056 7.779e-20 6.3428)
(1.69716 1.30136e-19 6.7722)
(0.719216 4.88352e-21 6.88683)
(9.98597 -9.60015e-22 0.150138)
(9.99163 1.55186e-20 0.102062)
(9.95792 -1.51869e-20 0.255197)
(9.97523 -1.61049e-20 0.20732)
(9.9152 1.63096e-20 0.367391)
(9.94293 1.57477e-20 0.319396)
(9.85711 1.44478e-20 0.486861)
(9.89433 7.87246e-21 0.439591)
(9.78332 -3.76342e-23 0.612007)
(9.83044 -1.20922e-23 0.566858)
(9.69399 9.23155e-22 0.740579)
(9.75161 -1.59508e-20 0.698872)
(9.58969 0 0.870729)
(9.65818 0 0.833236)
(9.47123 -8.71061e-21 1.00168)
(9.55075 0 0.968454)
(9.3395 -8.50359e-21 1.13392)
(9.43021 -1.2834e-20 1.10435)
(9.19526 -4.58616e-21 1.26905)
(9.29749 4.26905e-21 1.24204)
(9.03905 1.62123e-22 1.40952)
(9.1533 -4.53168e-21 1.38368)
(8.8711 -5.1503e-21 1.55826)
(8.9981 4.58439e-21 1.53214)
(8.69125 3.39632e-22 1.71847)
(8.83201 -9.56482e-21 1.69064)
(8.49898 1.95994e-20 1.89342)
(8.65479 3.1798e-22 1.86259)
(8.29332 -1.12122e-20 2.08632)
(8.46582 9.89483e-21 2.0514)
(8.07286 9.56183e-22 2.30031)
(8.26407 -3.06001e-20 2.26045)
(7.83564 9.84876e-21 2.53844)
(8.04803 1.1076e-20 2.49307)
(7.57906 -3.35763e-20 2.80366)
(7.81561 4.0602e-20 2.75255)
(7.29969 3.86714e-22 3.0988)
(7.564 -4.34266e-20 3.0422)
(6.993 2.20416e-20 3.42648)
(7.28945 2.24361e-20 3.3653)
(6.65311 -2.41949e-20 3.78899)
(6.98693 -2.17468e-20 3.72512)
(6.27223 -4.83697e-20 4.18794)
(6.64969 -3.48523e-20 4.1247)
(5.84021 -1.18016e-20 4.62368)
(6.26859 -1.51126e-21 4.5666)
(5.34391 6.4206e-20 5.09425)
(5.83129 5.49344e-22 5.05217)
(4.7667 -2.2825e-21 5.59362)
(5.32117 5.15207e-20 5.58028)
(4.08855 -5.19207e-20 6.10877)
(4.71635 -6.2121e-21 6.14494)
(3.28774 -5.7782e-20 6.61455)
(3.98771 -4.71597e-20 6.73091)
(2.34663 8.34664e-22 7.06906)
(3.10935 -5.7093e-20 7.30491)
(1.26482 5.56949e-20 7.35643)
(2.01718 5.63712e-20 7.80838)
(0.872154 5.48821e-20 8.03221)
(9.98683 -7.61772e-24 0.160303)
(9.99198 4.7041e-22 0.108493)
(9.96054 1.52144e-20 0.272646)
(9.97682 -1.5011e-20 0.220472)
(9.9206 7.21595e-21 0.392794)
(9.94682 -4.4637e-22 0.339863)
(9.86642 -6.68213e-21 0.520846)
(9.90165 -6.81116e-21 0.46804)
(9.79772 -1.61168e-20 0.65501)
(9.84236 -1.53878e-20 0.603814)
(9.71469 -1.66813e-20 0.79281)
(9.76937 -9.00733e-21 0.74463)
(9.61791 0 0.932209)
(9.68301 5.91517e-21 0.887872)
(9.50823 -4.27776e-21 1.07232)
(9.58392 -1.95417e-23 1.03189)
(9.38656 1.44121e-22 1.21363)
(9.47302 -2.17654e-21 1.17643)
(9.25373 4.21775e-21 1.35781)
(9.35128 8.3892e-21 1.32266)
(9.11038 0 1.50745)
(9.21949 4.26741e-21 1.47282)
(8.95684 0 1.66569)
(9.07823 8.82251e-21 1.62993)
(8.79316 -9.46833e-21 1.83598)
(8.92778 -2.88139e-23 1.79745)
(8.61899 -9.26968e-21 2.02187)
(8.76811 -1.17611e-22 1.97901)
(8.43365 -9.97476e-21 2.22692)
(8.59887 9.20558e-21 2.17833)
(8.23598 -1.99867e-20 2.4547)
(8.41932 -2.56996e-22 2.39913)
(8.02435 4.21742e-20 2.70879)
(8.22831 -1.02267e-20 2.64517)
(7.79646 2.97531e-20 2.99282)
(8.02415 5.1291e-20 2.92034)
(7.5492 -2.05914e-20 3.31056)
(7.8045 -2.0976e-20 3.22871)
(7.27829 -2.18661e-20 3.66594)
(7.56608 1.04326e-20 3.57464)
(6.97787 -3.25665e-20 4.063)
(7.3043 -2.17462e-20 3.96292)
(6.63987 1.23805e-20 4.5058)
(7.01273 -9.51927e-22 4.39878)
(6.25304 1.08639e-20 4.99804)
(6.68222 3.34802e-20 4.88787)
(5.80176 -1.15188e-20 5.54226)
(6.29962 -1.77495e-21 5.43605)
(5.26426 4.68916e-20 6.13811)
(5.84574 4.02961e-20 6.04856)
(4.61077 -1.99846e-21 6.77882)
(5.29261 5.96986e-21 6.72801)
(3.8022 -4.65914e-20 7.44358)
(4.5976 -4.25377e-20 7.46972)
(2.79293 0 8.08554)
(3.70899 0 8.24925)
(1.54649 5.55376e-20 8.5501)
(2.50652 -3.92133e-20 9.00224)
(1.12773 9.4734e-20 9.44566)
(9.98777 -1.47204e-20 0.169785)
(9.99236 2.34234e-22 0.114466)
(9.96338 -3.04953e-20 0.288893)
(9.97853 -2.46491e-22 0.232669)
(9.92642 -1.45496e-20 0.416396)
(9.95097 -1.57117e-20 0.358806)
(9.87637 -1.562e-20 0.552362)
(9.90943 2.38055e-21 0.494318)
(9.81303 -8.20196e-21 0.69482)
(9.85498 -1.96635e-21 0.637889)
(9.73661 1.37683e-20 0.841072)
(9.78808 7.87675e-21 0.786744)
(9.64773 5.82411e-21 0.988896)
(9.70911 -1.96037e-21 0.938049)
(9.54726 2.0556e-21 1.1373)
(9.61872 -7.92071e-21 1.09)
(9.43615 6.19539e-21 1.28672)
(9.51787 -1.00393e-20 1.24227)
(9.31529 8.38904e-21 1.4389)
(9.40757 -8.23828e-21 1.39601)
(9.18543 1.31445e-20 1.59654)
(9.28872 4.26735e-21 1.55356)
(9.04706 8.68839e-21 1.76295)
(9.16201 4.65251e-21 1.71807)
(8.90042 9.319e-21 1.9418)
(9.02791 -1.31346e-20 1.89314)
(8.74542 1.84675e-20 2.13686)
(8.88665 1.81369e-20 2.08263)
(8.58169 1.88113e-20 2.35201)
(8.73816 -1.78877e-20 2.29046)
(8.40846 9.38615e-21 2.59118)
(8.5821 2.78633e-20 2.52067)
(8.22454 -3.75332e-22 2.85841)
(8.41777 -1.87089e-20 2.77738)
(8.02816 -2.91838e-22 3.158)
(8.24407 -9.82018e-21 3.06495)
(7.81682 1.04176e-20 3.49462)
(8.05934 -9.27822e-21 3.38815)
(7.58692 1.01717e-20 3.87348)
(7.86113 5.9229e-22 3.75233)
(7.3333 1.01159e-20 4.30051)
(7.64589 4.72169e-20 4.16372)
(7.04852 2.05383e-20 4.78256)
(7.40839 -3.74343e-20 4.62976)
(6.72158 2.04102e-20 5.32751)
(7.14079 3.87604e-20 5.15948)
(6.3361 5.05408e-20 5.94417)
(6.83117 -1.80223e-20 5.76407)
(5.8671 -1.01767e-21 6.64154)
(6.46081 4.02932e-20 6.45729)
(5.27605 -3.52066e-20 7.4265)
(5.99972 -4.0362e-20 7.25553)
(4.50304 4.56295e-21 8.29619)
(5.39563 -3.32895e-21 8.17622)
(3.45698 -3.96835e-20 9.22017)
(4.56834 2.48901e-20 9.22817)
(2.01389 1.07549e-21 10.0155)
(3.30255 -6.48749e-20 10.3846)
(1.60311 4.57659e-20 11.3109)
(9.98877 1.47012e-20 0.178536)
(9.99276 0 0.11995)
(9.96641 1.43497e-20 0.30386)
(9.98033 1.42951e-20 0.243855)
(9.93257 1.43663e-21 0.438099)
(9.95534 2.30849e-22 0.376147)
(9.88684 1.59812e-20 0.581291)
(9.91757 1.42085e-21 0.518328)
(9.82908 1.42301e-20 0.731295)
(9.86814 -6.05196e-22 0.668963)
(9.75953 -7.96974e-21 0.885201)
(9.80755 0 0.825069)
(9.67885 -1.57764e-20 1.0406)
(9.73621 -7.87489e-21 0.983599)
(9.58793 -2.0041e-20 1.19637)
(9.6548 -5.84042e-21 1.14259)
(9.48776 -2.44506e-20 1.35292)
(9.56432 -6.08328e-21 1.30162)
(9.37932 -1.22091e-20 1.51202)
(9.46582 -3.03127e-22 1.46183)
(9.26345 -4.21989e-21 1.67644)
(9.36029 1.21817e-20 1.62561)
(9.14083 -1.73807e-20 1.84963)
(9.24859 8.39215e-21 1.79618)
(9.0119 -3.94036e-21 2.0354)
(9.13137 -8.82813e-21 1.97728)
(8.8769 -1.86455e-20 2.23773)
(9.00912 8.83976e-21 2.17288)
(8.73579 -8.28852e-21 2.46071)
(8.88213 -2.71161e-20 2.38711)
(8.58828 -7.79773e-22 2.70856)
(8.75048 1.82867e-20 2.62417)
(8.43377 -2.80407e-20 2.9857)
(8.61405 -2.75105e-20 2.88846)
(8.27121 -1.87963e-20 3.29694)
(8.47243 -9.38872e-21 3.18469)
(8.099 -1.89851e-20 3.64771)
(8.32488 8.59113e-21 3.51811)
(7.9147 3.81761e-20 4.04433)
(8.17013 -1.00911e-20 3.89482)
(7.71464 -1.31124e-21 4.49445)
(8.00623 1.19669e-20 4.32219)
(7.49318 -1.83202e-20 5.00762)
(7.83007 -2.99558e-20 4.80946)
(7.24157 -2.95184e-22 5.59605)
(7.63673 3.69874e-20 5.36863)
(6.9458 -2.75521e-20 6.27577)
(7.41831 -2.78841e-20 6.01591)
(6.58264 0 7.06816)
(7.16159 -1.11954e-20 6.77398)
(6.11178 -8.02424e-21 8.002)
(6.84374 2.78634e-20 7.676)
(5.4594 1.73526e-20 9.11443)
(6.41973 -2.02359e-20 8.77274)
(4.48121 -2.45962e-21 10.4487)
(5.80879 1.95473e-20 10.1439)
(2.87875 -1.91404e-20 11.9154)
(4.7029 -2.02782e-20 11.9199)
(2.61224 -2.03986e-21 14.0176)
(9.98981 -2.33997e-22 0.186515)
(9.99318 0 0.124923)
(9.96957 6.50911e-24 0.317485)
(9.9822 -2.35556e-22 0.253984)
(9.93898 2.29278e-22 0.457818)
(9.95987 -1.36022e-20 0.391825)
(9.89771 -1.51897e-20 0.607516)
(9.926 0 0.539995)
(9.84569 -1.48279e-20 0.764283)
(9.88174 1.29053e-20 0.696946)
(9.78322 0 0.925001)
(9.82764 8.9156e-22 0.859496)
(9.71097 2.08477e-21 1.08708)
(9.76414 -1.51753e-20 1.02439)
(9.62984 8.11297e-21 1.24926)
(9.69196 1.66413e-20 1.1895)
(9.5409 1.81313e-20 1.41191)
(9.61212 6.11815e-21 1.35432)
(9.44518 2.42359e-20 1.57678)
(9.52574 4.74989e-21 1.51993)
(9.34366 2.47467e-20 1.7467)
(9.4339 -2.73658e-21 1.68874)
(9.23718 1.67381e-20 1.9252)
(9.33758 1.27965e-20 1.86402)
(9.12642 4.16578e-21 2.11618)
(9.23768 4.35633e-21 2.04956)
(9.01194 -5.95989e-23 2.32376)
(9.13495 -8.03074e-21 2.24943)
(8.89412 0 2.55216)
(9.03005 -7.84775e-21 2.46782)
(8.77319 -8.98846e-21 2.80577)
(8.92354 7.89792e-21 2.70904)
(8.64922 -8.64737e-21 3.08923)
(8.81592 -9.04894e-21 2.97761)
(8.52205 1.82083e-20 3.4077)
(8.70758 4.34405e-22 3.27839)
(8.39124 1.72628e-20 3.76706)
(8.59886 2.12273e-21 3.61686)
(8.25594 -3.60387e-20 4.17439)
(8.48994 7.14646e-21 3.99949)
(8.11463 -1.7178e-20 4.63852)
(8.38088 -3.57237e-20 4.43421)
(7.96478 2.61056e-20 5.17095)
(8.27149 1.77896e-20 4.93119)
(7.80208 8.64323e-21 5.78726)
(8.16119 -5.39948e-21 5.50406)
(7.61913 -1.13286e-20 6.50955)
(8.04885 1.40805e-20 6.17193)
(7.40259 1.70088e-20 7.37088)
(7.93246 -2.37169e-20 6.96314)
(7.12677 1.52037e-20 8.42427)
(7.80922 3.41896e-20 7.92273)
(6.7366 -1.76946e-20 9.76387)
(7.6746 -1.00146e-20 9.13)
(6.09185 3.55984e-22 11.6007)
(7.55443 -5.51971e-21 10.748)
(4.71942 -5.96926e-21 14.625)
(7.55969 6.36751e-21 13.2359)
(6.83475 -2.67205e-20 18.5132)
(-0.496655 -3.39233e-20 0.241812)
(-0.259655 -5.59202e-19 0.485498)
(-1.00908 -9.70691e-20 0.235917)
(-0.773561 4.5041e-19 0.487347)
(-1.51117 2.39272e-20 0.217507)
(-1.30292 -6.31555e-20 0.466403)
(-1.97688 7.6193e-20 0.186693)
(-1.80673 6.07042e-20 0.422771)
(-2.37624 -3.9322e-20 0.143745)
(-2.2555 -2.75036e-20 0.354271)
(-2.67761 -7.2337e-21 0.0903003)
(-2.61651 5.00465e-20 0.261228)
(-2.85209 1.89988e-20 0.0286809)
(-2.85941 -8.41308e-20 0.147737)
(-2.87726 -1.26481e-20 -0.0390447)
(-2.9589 2.6144e-21 0.0207975)
(-2.73593 -2.81066e-21 -0.108707)
(-2.89122 3.25521e-20 -0.114231)
(-2.42625 9.74258e-21 -0.174318)
(-2.65453 1.0174e-20 -0.24442)
(-1.9587 -5.65119e-22 -0.229664)
(-2.24434 -1.10187e-21 -0.360396)
(-1.36087 -2.21872e-22 -0.269896)
(-1.69226 0 -0.450025)
(-0.666351 -2.27193e-22 -0.294014)
(-1.02781 -6.23121e-21 -0.510572)
(0.0910964 7.08172e-22 -0.302793)
(-0.26967 5.25098e-21 -0.543781)
(0.876516 -1.73942e-22 -0.298643)
(0.50905 9.70944e-22 -0.550644)
(1.66149 -9.23748e-22 -0.285316)
(1.31007 4.74933e-22 -0.537423)
(2.42473 0 -0.265929)
(2.09958 -1.29531e-21 -0.510289)
(3.15076 0 -0.242931)
(2.85824 4.26423e-22 -0.47402)
(3.82906 1.17643e-22 -0.218255)
(3.57305 0 -0.432476)
(4.45337 1.20465e-22 -0.193364)
(4.23573 2.08009e-22 -0.38871)
(5.0208 3.46955e-23 -0.169298)
(4.84185 -3.59894e-22 -0.345004)
(5.53103 6.98214e-23 -0.146737)
(5.39 -1.44524e-22 -0.302956)
(5.98562 2.69763e-23 -0.126071)
(5.88099 7.2624e-23 -0.263592)
(6.38736 -9.29105e-24 -0.107468)
(6.31712 -1.92301e-23 -0.227483)
(6.73974 0 -0.0909399)
(6.70166 -2.52784e-23 -0.194861)
(7.04659 -8.02635e-25 -0.0763904)
(7.03832 5.60621e-23 -0.165712)
(7.31179 -8.13646e-26 -0.0636665)
(7.331 -8.12238e-25 -0.139862)
(7.53907 7.89872e-25 -0.0526135)
(7.58348 1.08941e-25 -0.117065)
(7.73221 -1.84507e-25 -0.0435161)
(7.79925 6.98061e-25 -0.0971514)
(8.01911 -2.86945e-26 -0.0813549)
(-0.515105 -8.76739e-20 0.73794)
(-0.278427 -1.28887e-18 1.00603)
(-1.06008 4.90798e-19 0.724769)
(-0.826054 5.45963e-19 1.00676)
(-1.59271 -2.78235e-20 0.677667)
(-1.39858 0 0.961822)
(-2.086 -4.19578e-20 0.595052)
(-1.94366 2.40664e-19 0.870828)
(-2.50875 6.09446e-20 0.475172)
(-2.42946 -3.22347e-19 0.729305)
(-2.82759 -2.53325e-20 0.320822)
(-2.8208 2.48057e-19 0.537464)
(-3.01042 -1.0131e-19 0.139307)
(-3.0825 -2.00327e-19 0.302379)
(-3.03204 4.77602e-20 -0.0599371)
(-3.18813 2.61442e-21 0.0384884)
(-2.87496 4.58912e-20 -0.262002)
(-3.11011 4.02609e-20 -0.241337)
(-2.53726 -5.3542e-22 -0.449617)
(-2.84448 0 -0.511073)