/*--------------------------------*- C++ -*----------------------------------*\
| =========                 |                                                 |
| \\      /  F ield         | OpenFOAM: The Open Source CFD Toolbox           |
|  \\    /   O peration     | Version:  dev                                   |
|   \\  /    A nd           | Web:      www.OpenFOAM.org                      |
|    \\/     M anipulation  |                                                 |
\*---------------------------------------------------------------------------*/
FoamFile
{
    version     2.0;
    format      ascii;
    class       surfaceVectorField;
    location    "1.66";
    object      Uf;
}
// * * * * * * * * * * * * * * * * * * * * * * * * * * * * * * * * * * * * * //

dimensions      [0 1 -1 0 0 0 0];

internalField   nonuniform List<vector> 
5457
(
(9.9141 1.21187e-21 0.021066)
(9.97009 1.82134e-21 0.0356618)
(9.82424 2.09076e-20 0.0260603)
(9.93411 -4.09843e-20 0.0385229)
(9.72704 1.94205e-20 0.029859)
(9.87677 -1.33626e-21 0.0433235)
(9.61997 0 0.0337572)
(9.80363 0 0.0496121)
(9.503 0 0.0377349)
(9.71942 0 0.0563193)
(9.37633 0 0.0418195)
(9.625 2.42927e-20 0.0633234)
(9.23983 6.87877e-21 0.0461363)
(9.51988 -2.54592e-20 0.0708168)
(9.09302 -7.75023e-21 0.0508146)
(9.40353 -6.67607e-21 0.0790048)
(8.9352 -6.32825e-21 0.0559649)
(9.2754 -1.6196e-22 0.0880646)
(8.76552 -6.92537e-22 0.0616893)
(9.1348 2.2246e-20 0.0981558)
(8.58297 -1.178e-20 0.0681029)
(8.98087 -3.07073e-20 0.109447)
(8.38636 -1.94505e-20 0.0753482)
(8.81259 -3.26676e-20 0.122154)
(8.17431 3.37776e-21 0.0835902)
(8.6287 -5.21211e-20 0.136533)
(7.9452 1.82238e-20 0.0930137)
(8.42778 8.67109e-20 0.152867)
(7.69725 5.84055e-22 0.103831)
(8.2082 7.41352e-24 0.171478)
(7.42842 -5.37201e-21 0.116293)
(7.96808 -8.49217e-20 0.192737)
(7.13643 -5.19111e-21 0.130691)
(7.7053 8.25802e-20 0.217071)
(6.81877 0 0.147363)
(7.41749 0 0.244955)
(6.47269 -7.61796e-20 0.166698)
(7.10202 1.87119e-19 0.276911)
(6.09521 -4.77136e-20 0.18914)
(6.75597 -2.43806e-19 0.313503)
(5.68315 1.38503e-19 0.215195)
(6.37617 2.58734e-19 0.355319)
(5.23321 -6.45066e-21 0.245434)
(5.95919 1.06823e-19 0.402937)
(4.74203 -1.7502e-19 0.280517)
(5.50139 1.09913e-19 0.456885)
(4.20622 -6.01372e-20 0.321216)
(4.99886 -2.70085e-21 0.517578)
(3.62246 -2.71481e-19 0.368445)
(4.44742 0 0.585235)
(2.98749 5.91928e-21 0.423264)
(3.84242 -3.97144e-19 0.659663)
(2.29792 2.72269e-19 0.486788)
(3.17805 1.48465e-18 0.739685)
(1.5507 0 0.559392)
(2.44598 1.52046e-20 0.821227)
(0.73979 6.28202e-19 0.601855)
(1.6142 -2.18618e-18 0.892906)
(0.864999 2.08799e-18 0.841073)
(10.0069 -4.12785e-20 0.0409297)
(10.0016 1.21351e-21 0.0327481)
(9.98487 -6.22972e-20 0.0518142)
(9.99526 -4.16891e-20 0.0479048)
(9.94901 -2.06775e-20 0.0607023)
(9.97077 -3.17025e-20 0.0592238)
(9.90078 0 0.0703189)
(9.93059 4.41124e-20 0.0718713)
(9.84014 2.47865e-20 0.080569)
(9.8783 2.31559e-20 0.0854235)
(9.76722 -2.15327e-21 0.0914465)
(9.81492 -3.63726e-20 0.0996795)
(9.682 -3.865e-20 0.103204)
(9.74019 -2.80573e-22 0.114936)
(9.58414 1.04237e-21 0.116133)
(9.65369 3.96825e-20 0.131572)
(9.47311 2.8842e-20 0.130495)
(9.55498 4.20076e-20 0.149939)
(9.34814 -8.77662e-21 0.146546)
(9.44349 -1.41807e-20 0.170372)
(9.20831 -5.16244e-20 0.164572)
(9.3185 3.88986e-20 0.19322)
(9.05255 -6.56526e-20 0.184917)
(9.17905 -1.41456e-19 0.218901)
(8.87957 3.37769e-20 0.207984)
(9.02408 2.17924e-20 0.247909)
(8.68789 6.69706e-20 0.23423)
(8.8523 1.38263e-19 0.280814)
(8.47581 -8.69745e-20 0.264184)
(8.66224 -7.46668e-20 0.318278)
(8.24133 5.99146e-21 0.298453)
(8.45219 -2.38544e-19 0.361071)
(7.98223 8.6396e-20 0.337725)
(8.22022 2.51627e-19 0.410071)
(7.69597 1.90208e-19 0.382769)
(7.96409 0 0.466274)
(7.37973 1.26569e-20 0.434433)
(7.6813 3.71751e-19 0.530797)
(7.03037 7.10214e-20 0.493632)
(7.36902 -3.58921e-19 0.604873)
(6.64439 2.25206e-19 0.561322)
(7.02403 2.3323e-19 0.689844)
(6.21796 2.22933e-19 0.638462)
(6.64268 4.24002e-19 0.78712)
(5.74684 2.82017e-19 0.725977)
(6.22083 -2.1564e-19 0.898132)
(5.22625 5.88765e-20 0.824748)
(5.75363 1.74975e-19 1.02428)
(4.65051 -1.29937e-19 0.935599)
(5.23513 0 1.16694)
(4.01242 1.09061e-18 1.05926)
(4.65764 -1.20196e-21 1.32743)
(3.30107 1.23266e-18 1.19689)
(4.01012 2.92015e-19 1.50723)
(2.49571 -2.14227e-18 1.35449)
(3.27514 1.05917e-18 1.70906)
(1.54166 -6.64901e-19 1.57411)
(2.40718 -2.42422e-18 1.94645)
(1.46483 4.07145e-18 2.28288)
(9.99998 4.25832e-23 0.042272)
(9.99935 0 0.03277)
(9.9819 -1.07628e-20 0.0585968)
(9.99058 4.0318e-20 0.0556971)
(9.94984 3.46958e-20 0.0732899)
(9.9673 -1.05717e-20 0.0735801)
(9.90655 6.68284e-20 0.0891239)
(9.93009 1.10129e-20 0.0920137)
(9.85231 -3.92493e-20 0.106144)
(9.88141 -1.15182e-20 0.111641)
(9.78709 -3.37695e-20 0.124367)
(9.82231 -3.6609e-20 0.132399)
(9.71084 7.88811e-20 0.144124)
(9.7527 -2.38245e-22 0.154632)
(9.62328 8.07159e-20 0.165832)
(9.67226 5.29631e-20 0.178839)
(9.52397 -2.10287e-21 0.189905)
(9.58062 2.80834e-20 0.20552)
(9.41229 3.44314e-20 0.216759)
(9.47735 -7.31393e-20 0.235153)
(9.28748 -5.42624e-20 0.246863)
(9.36185 1.22593e-19 0.268249)
(9.14861 -5.09911e-20 0.280774)
(9.23337 -1.93498e-19 0.305408)
(8.99459 1.28425e-19 0.31914)
(9.09103 -1.55122e-21 0.347336)
(8.82415 -7.16772e-21 0.362721)
(8.93378 2.14014e-19 0.394855)
(8.63581 -2.29086e-19 0.4124)
(8.7604 -7.41275e-20 0.448924)
(8.42787 1.55969e-20 0.4692)
(8.5695 3.34627e-21 0.510664)
(8.1984 1.61018e-19 0.534291)
(8.35951 2.208e-20 0.581369)
(7.94517 1.87662e-19 0.608998)
(8.12862 -3.46576e-19 0.66253)
(7.66565 -1.15851e-20 0.694812)
(7.87476 1.77776e-19 0.755855)
(7.35691 -1.87363e-19 0.793397)
(7.59555 1.8458e-19 0.863284)
(7.01552 4.34681e-19 0.906576)
(7.28817 -4.00635e-19 0.987021)
(6.63752 -2.25267e-20 1.03629)
(6.94931 1.67283e-20 1.12953)
(6.21812 -3.17481e-19 1.18457)
(6.57495 -4.39194e-19 1.29353)
(5.75135 1.14104e-19 1.35363)
(6.16005 9.67271e-22 1.4821)
(5.22926 1.26863e-19 1.54611)
(5.69793 0 1.69887)
(4.64042 -7.90232e-19 1.76589)
(5.17927 1.09879e-18 1.94868)
(3.96672 1.16311e-19 2.02048)
(4.59054 -2.38122e-18 2.23921)
(3.17437 8.01491e-19 2.32322)
(3.90828 -7.14586e-19 2.58683)
(2.23679 2.41259e-18 2.77171)
(3.13189 1.83083e-18 3.00105)
(2.01889 1.94361e-18 3.75235)
(9.99526 4.10361e-20 0.0466986)
(9.99791 7.21772e-20 0.0347523)
(9.97738 3.93601e-20 0.0700698)
(9.98707 4.52655e-20 0.0634125)
(9.94604 -3.37741e-20 0.0915496)
(9.96345 0 0.087632)
(9.90357 -6.77778e-20 0.113733)
(9.92706 -5.51147e-20 0.111807)
(9.8506 -9.379e-21 0.137147)
(9.87955 -1.17361e-20 0.137281)
(9.78716 -2.3223e-21 0.162039)
(9.82188 4.83003e-20 0.16428)
(9.71317 -2.50733e-20 0.18887)
(9.7541 -5.0585e-20 0.193209)
(9.62846 -1.37037e-22 0.218197)
(9.67597 -1.39711e-22 0.224649)
(9.53271 -4.48856e-20 0.250582)
(9.58719 0 0.259211)
(9.42545 1.86503e-20 0.286594)
(9.48745 -1.51412e-20 0.297495)
(9.30611 -2.23973e-20 0.326869)
(9.37626 6.07627e-20 0.340145)
(9.17397 -1.4052e-19 0.372159)
(9.25303 -1.12384e-19 0.387916)
(9.02817 8.79002e-20 0.423339)
(9.11708 -7.69861e-20 0.441695)
(8.86772 1.42019e-19 0.481424)
(8.96759 2.85583e-19 0.502513)
(8.69148 1.59634e-19 0.5476)
(8.80363 -1.45663e-19 0.571565)
(8.49818 1.02912e-20 0.623245)
(8.62417 -1.53344e-19 0.650249)
(8.28634 -4.91569e-19 0.70996)
(8.42805 1.6822e-19 0.740194)
(8.0543 -3.47975e-19 0.809597)
(8.21395 -3.46541e-19 0.843304)
(7.80012 3.73589e-19 0.924282)
(7.98039 -3.64669e-19 0.961799)
(7.52154 -3.7131e-20 1.05647)
(7.72566 7.42569e-19 1.09826)
(7.21578 -8.12048e-19 1.20898)
(7.4477 -4.96584e-19 1.25571)
(6.87947 -4.05774e-19 1.38503)
(7.144 -4.10596e-19 1.4377)
(6.50831 -1.14835e-19 1.58835)
(6.81143 1.04537e-19 1.6484)
(6.09651 -1.12545e-19 1.82341)
(6.44582 -1.1334e-19 1.89287)
(5.63597 9.75934e-19 2.09599)
(6.04148 -2.03892e-18 2.17754)
(5.11477 -4.89191e-19 2.41469)
(5.59028 3.02965e-18 2.51124)
(4.51568 -3.2035e-18 2.79587)
(5.08186 -1.21969e-18 2.90706)
(3.80026 1.00035e-19 3.25212)
(4.48428 -2.31537e-19 3.39683)
(3.03018 1.38318e-18 3.90278)
(3.91343 3.62604e-19 3.92047)
(2.65471 -5.36448e-19 5.04139)
(9.99275 7.59118e-20 0.0520238)
(9.99715 -4.68177e-21 0.0377746)
(9.97436 4.90173e-21 0.0811573)
(9.98503 -8.48692e-20 0.0713524)
(9.94357 -2.25192e-20 0.108369)
(9.96112 9.40759e-20 0.101448)
(9.90186 1.83903e-21 0.136086)
(9.92544 6.54898e-20 0.131261)
(9.84998 4.71815e-20 0.165255)
(9.87911 2.29634e-20 0.162413)
(9.78804 -1.93125e-21 0.196351)
(9.82291 7.23902e-20 0.195439)
(9.71595 -2.46549e-20 0.229925)
(9.75695 -7.51902e-20 0.230836)
(9.63358 0 0.266617)
(9.68105 5.28322e-20 0.269255)
(9.54066 2.94771e-20 0.307081)
(9.59501 -5.47659e-20 0.311389)
(9.43683 2.84189e-20 0.352003)
(9.49853 -5.73951e-20 0.35795)
(9.32158 -3.23326e-20 0.402146)
(9.39123 3.00886e-20 0.40971)
(9.19435 -4.81484e-20 0.458401)
(9.27259 -9.57707e-20 0.467544)
(9.05448 1.27109e-19 0.521806)
(9.14209 -1.86779e-21 0.532472)
(8.90123 -9.53851e-21 0.593575)
(8.99912 2.78635e-19 0.605691)
(8.73376 -4.58798e-19 0.675114)
(8.843 -4.29006e-19 0.688589)
(8.55114 9.66409e-21 0.768066)
(8.673 2.97284e-19 0.782777)
(8.35236 3.05027e-19 0.874356)
(8.48832 -2.54976e-20 0.890146)
(8.13627 -3.63252e-19 0.996249)
(8.2881 -3.3553e-19 1.01292)
(7.90158 2.06184e-20 1.13639)
(8.07139 3.05937e-20 1.15373)
(7.64681 2.6509e-19 1.2979)
(7.83717 1.10045e-18 1.31566)
(7.37009 -9.51406e-20 1.48448)
(7.58423 -7.52386e-19 1.50245)
(7.06909 1.05586e-19 1.70061)
(7.31107 7.93731e-19 1.71859)
(6.74076 1.03389e-19 1.95166)
(7.01586 -8.09345e-19 1.96956)
(6.38088 -2.04744e-18 2.24447)
(6.69612 1.69398e-18 2.26225)
(5.98343 2.06179e-20 2.58809)
(6.34851 -3.52382e-18 2.60555)
(5.53975 2.29521e-18 2.99482)
(5.96806 3.57593e-18 3.01163)
(5.04144 1.71125e-18 3.48702)
(5.55317 -3.25821e-18 3.49472)
(4.44233 1.93233e-19 4.06608)
(5.05099 3.2757e-18 4.10662)
(3.89821 -1.56819e-18 4.83896)
(4.75385 -1.65122e-18 4.65279)
(3.3691 0 6.07651)
(9.99141 -1.67066e-19 0.0577911)
(9.99677 -7.69289e-20 0.0413543)
(9.97255 8.27083e-21 0.0921252)
(9.98394 -1.85307e-22 0.0794921)
(9.94238 1.81512e-19 0.124865)
(9.95998 2.05199e-22 0.114996)
(9.90169 8.57488e-20 0.158156)
(9.92513 -8.69914e-20 0.150254)
(9.85118 4.91655e-20 0.193131)
(9.88017 0 0.186913)
(9.79099 -3.81941e-21 0.230423)
(9.82568 4.82115e-20 0.225746)
(9.7211 4.75266e-21 0.270659)
(9.76181 5.00048e-20 0.267368)
(9.64137 -3.98736e-21 0.314538)
(9.68844 1.05504e-19 0.312492)
(9.5516 -1.4172e-19 0.362804)
(9.60545 -1.0922e-19 0.361885)
(9.4515 -5.41784e-20 0.416254)
(9.51258 -8.61564e-20 0.416356)
(9.34063 -3.55808e-20 0.475773)
(9.40951 1.36433e-22 0.476791)
(9.21853 -4.78122e-20 0.542361)
(9.29589 -2.2133e-19 0.544173)
(9.08471 1.54514e-19 0.617189)
(9.17126 4.08381e-19 0.619622)
(8.93862 -1.52766e-19 0.701625)
(9.03519 -1.00254e-19 0.704455)
(8.77969 3.38926e-19 0.79726)
(8.88721 -5.62999e-19 0.800205)
(8.6073 2.57502e-19 0.905948)
(8.72686 1.20666e-18 0.908661)
(8.4208 -6.70986e-19 1.02987)
(8.55365 -6.34934e-19 1.03192)
(8.21951 6.30779e-20 1.17159)
(8.36711 -6.57987e-21 1.17243)
(8.00271 1.12544e-18 1.3342)
(8.16676 -6.78516e-19 1.33314)
(7.76967 5.98701e-20 1.52133)
(7.9522 1.39191e-18 1.51754)
(7.5195 1.53947e-19 1.73742)
(7.72307 -6.55343e-19 1.72989)
(7.25107 -1.33427e-19 1.98795)
(7.47893 1.65399e-18 1.9754)
(6.96302 7.985e-19 2.27967)
(7.2194 -1.69236e-18 2.26056)
(6.65351 1.94485e-19 2.62118)
(6.94407 1.68662e-18 2.59355)
(6.32009 3.15204e-20 3.02387)
(6.65259 5.18206e-20 2.9849)
(5.95888 -1.88193e-18 3.50175)
(6.34353 -7.56274e-20 3.44888)
(5.57423 -1.74604e-18 4.07961)
(6.02869 -3.4611e-18 3.99602)
(5.10635 1.84375e-18 4.74059)
(5.61763 1.79511e-18 4.70681)
(4.77996 5.96233e-21 5.55161)
(5.61314 -3.4328e-19 5.20113)
(4.1225 0 6.85221)
(9.99073 9.15003e-20 0.0638146)
(9.99662 -1.57033e-19 0.0452136)
(9.9717 -8.22808e-21 0.10301)
(9.98349 1.04655e-19 0.0877144)
(9.94224 -2.70246e-19 0.140999)
(9.95975 -1.04314e-19 0.128235)
(9.90278 -1.71009e-19 0.179663)
(9.92589 -1.74424e-19 0.168698)
(9.85385 0 0.220205)
(9.88248 0 0.210674)
(9.79565 1.02056e-19 0.263395)
(9.82993 1.42575e-19 0.255094)
(9.7282 1.51832e-19 0.309951)
(9.76841 -4.89939e-20 0.30268)
(9.65141 -3.80034e-21 0.360646)
(9.69789 5.30534e-20 0.354207)
(9.56515 -5.32222e-20 0.416306)
(9.6183 -1.62526e-19 0.410513)
(9.46916 -3.02843e-20 0.477827)
(9.52944 2.27684e-19 0.472489)
(9.36317 -1.89525e-19 0.546195)
(9.43109 -2.86995e-20 0.541108)
(9.24682 2.45803e-19 0.622514)
(9.32303 -2.80555e-19 0.617449)
(9.11973 1.45212e-19 0.70805)
(9.20491 4.2616e-19 0.702731)
(8.98153 -5.18268e-19 0.804281)
(9.07644 -3.05638e-19 0.798359)
(8.83185 3.32988e-19 0.912939)
(8.93734 -2.97434e-19 0.905969)
(8.67036 2.85779e-19 1.03605)
(8.78737 5.9904e-19 1.02748)
(8.49673 3.86831e-20 1.17597)
(8.62636 -6.19262e-19 1.16515)
(8.31068 -7.56552e-19 1.33551)
(8.45418 2.93746e-21 1.32161)
(8.11204 -3.85676e-19 1.51803)
(8.27079 -4.06249e-19 1.49999)
(7.90073 6.51692e-19 1.72759)
(8.07635 8.9383e-21 1.70409)
(7.67684 8.69881e-19 1.9691)
(7.87128 -5.24652e-20 1.93851)
(7.44051 7.00382e-20 2.24872)
(7.65619 3.54682e-20 2.20892)
(7.19214 -7.7611e-19 2.57417)
(7.43213 -7.32975e-19 2.52245)
(6.93255 1.53884e-18 2.95511)
(7.20076 -4.73389e-20 2.88805)
(6.66319 -2.39587e-20 3.40398)
(6.96481 1.63036e-18 3.3169)
(6.38496 -1.60996e-18 3.93422)
(6.72546 -1.60728e-18 3.82428)
(6.11531 1.7939e-20 4.57122)
(6.51138 -1.46939e-18 4.41215)
(5.778 -3.08347e-19 5.27778)
(6.18064 1.78622e-18 5.19987)
(5.62648 -3.17111e-19 6.0646)
(6.4511 6.26852e-19 5.5944)
(4.87498 0 7.40012)
(9.99047 -1.38805e-19 0.0699321)
(9.99661 4.38565e-21 0.049179)
(9.97155 3.95678e-21 0.113722)
(9.98349 5.02668e-21 0.0958932)
(9.94295 -9.91928e-21 0.156667)
(9.96023 -1.75457e-19 0.141106)
(9.90488 2.22025e-22 0.200467)
(9.92752 4.38282e-20 0.186512)
(9.85777 1.45463e-19 0.246349)
(9.88583 2.41593e-22 0.233585)
(9.80184 -1.22318e-20 0.295189)
(9.83549 -9.33721e-20 0.283347)
(9.73715 -1.45967e-19 0.347783)
(9.77663 -5.01624e-20 0.336611)
(9.66368 -1.09776e-19 0.404968)
(9.70931 -1.02563e-19 0.394211)
(9.58133 1.2544e-19 0.467642)
(9.63351 -1.09122e-19 0.457049)
(9.48995 2.24845e-19 0.536775)
(9.54911 1.70231e-19 0.526086)
(9.38936 -1.24065e-19 0.613436)
(9.45599 1.18045e-19 0.60236)
(9.27933 -8.83675e-20 0.698818)
(9.354 -1.23264e-19 0.68703)
(9.15962 -3.69414e-20 0.794277)
(9.24296 -6.34096e-20 0.781403)
(9.03002 -8.44879e-20 0.901372)
(9.12272 -3.02141e-19 0.886955)
(8.89036 -1.74364e-20 1.02193)
(8.99319 2.58228e-19 1.00539)
(8.74056 -3.24473e-19 1.1581)
(8.85434 3.59379e-20 1.13871)
(8.58062 -6.46327e-19 1.31239)
(8.7063 -9.15347e-19 1.28929)
(8.41066 3.4605e-19 1.48774)
(8.5493 2.94442e-19 1.45988)
(8.23097 -5.72611e-21 1.68769)
(8.38368 6.70419e-19 1.65374)
(8.0421 -6.98342e-19 1.91656)
(8.21012 -6.51658e-19 1.87482)
(7.84502 -8.85904e-19 2.17959)
(8.02974 6.80868e-19 2.12793)
(7.64112 -7.71814e-19 2.48328)
(7.84416 -1.21835e-19 2.41898)
(7.43249 -1.05603e-21 2.83583)
(7.65571 3.54258e-21 2.75536)
(7.22239 5.06767e-20 3.24722)
(7.46796 -2.32641e-20 3.14628)
(7.01583 7.35199e-20 3.72993)
(7.28646 1.63412e-18 3.6028)
(6.81727 -1.46077e-18 4.29512)
(7.11356 -3.0697e-18 4.14074)
(6.65602 3.5719e-19 4.96728)
(6.99627 1.26648e-18 4.74893)
(6.44051 2.72962e-18 5.69174)
(6.73387 2.58553e-18 5.59317)
(6.40974 8.54058e-19 6.42354)
(7.24036 -2.00292e-18 5.86985)
(5.59879 2.74763e-19 7.76882)
(9.99048 1.48299e-19 0.0760181)
(9.9967 1.07327e-20 0.0531395)
(9.97193 -1.78407e-19 0.124174)
(9.9838 -1.66846e-19 0.10392)
(9.94433 -1.17106e-19 0.171793)
(9.96123 -1.6467e-19 0.153543)
(9.90784 4.29406e-20 0.220478)
(9.92985 1.29771e-19 0.203614)
(9.8628 -2.40592e-19 0.271453)
(9.89009 -8.94804e-20 0.255533)
(9.80942 -1.3057e-19 0.325664)
(9.84218 -1.89277e-19 0.310362)
(9.74783 -7.68658e-21 0.383971)
(9.78628 1.48032e-19 0.368986)
(9.67806 -1.02071e-19 0.447274)
(9.7225 -1.024e-19 0.432299)
(9.60005 -5.93689e-20 0.516531)
(9.65087 -2.14468e-19 0.501261)
(9.51375 6.23859e-20 0.592774)
(9.57134 5.33552e-20 0.576885)
(9.41905 1.14855e-19 0.677135)
(9.48387 1.16875e-19 0.660262)
(9.31586 -9.72702e-20 0.770882)
(9.38843 -2.43165e-19 0.752612)
(9.20409 -3.32576e-19 0.875438)
(9.28498 4.71464e-19 0.855302)
(9.0837 4.90824e-20 0.992424)
(9.17353 -5.60952e-19 0.969863)
(8.95472 3.08512e-19 1.12372)
(9.05417 3.44087e-19 1.09804)
(8.81734 -5.68505e-19 1.27153)
(8.92706 3.53936e-22 1.24187)
(8.67186 4.03624e-20 1.43848)
(8.79265 3.15766e-20 1.4038)
(8.51878 6.23492e-19 1.62761)
(8.65151 1.5488e-20 1.58666)
(8.35882 8.62067e-21 1.84254)
(8.50436 -6.3174e-19 1.79378)
(8.19312 7.38586e-19 2.08769)
(8.35235 6.44967e-19 2.02916)
(8.02342 1.43704e-18 2.36845)
(8.19721 7.35711e-19 2.29766)
(7.85226 6.55087e-19 2.69141)
(8.04146 6.61956e-19 2.60521)
(7.68327 -1.89801e-20 3.06482)
(7.88859 1.41019e-18 2.95921)
(7.52175 1.55142e-18 3.49854)
(7.74369 3.8413e-20 3.36877)
(7.37574 -1.4458e-18 4.00434)
(7.6149 -1.10332e-18 3.84424)
(7.2514 -5.03132e-19 4.59025)
(7.50432 -5.53829e-19 4.40214)
(7.18675 3.40713e-18 5.27838)
(7.47683 2.29117e-19 5.01545)
(7.08109 -4.48784e-19 6.00346)
(7.27287 1.98704e-18 5.89843)
(7.11964 -2.27982e-18 6.67508)
(7.96824 -2.87783e-18 6.06504)
(6.2795 1.49251e-20 8.00808)
(9.99068 -3.08033e-19 0.0819787)
(9.99686 1.59098e-19 0.0570194)
(9.97271 -1.53074e-19 0.134283)
(9.98434 -1.01826e-20 0.111703)
(9.94627 8.84799e-20 0.186304)
(9.96266 1.05722e-21 0.165474)
(9.91153 -7.16611e-21 0.239604)
(9.93278 1.29056e-19 0.219928)
(9.86876 -4.01009e-20 0.295396)
(9.89511 -2.23175e-19 0.276416)
(9.81819 9.58961e-20 0.354667)
(9.84985 4.69903e-20 0.336016)
(9.76 4.864e-20 0.418335)
(9.79717 4.88974e-20 0.399661)
(9.69424 -2.16835e-19 0.487358)
(9.7372 1.02348e-19 0.468305)
(9.62093 -9.70524e-20 0.562747)
(9.67005 -3.19911e-19 0.542959)
(9.54008 1.09019e-19 0.645575)
(9.59574 1.10853e-19 0.624674)
(9.4517 -2.47298e-19 0.737021)
(9.51431 -2.30449e-19 0.714574)
(9.35582 3.37083e-19 0.838401)
(9.42583 -5.83087e-21 0.813919)
(9.2525 2.276e-19 0.951185)
(9.33042 5.67949e-19 0.924117)
(9.14185 -2.52648e-19 1.07703)
(9.22824 -5.85159e-19 1.04673)
(9.02412 3.08076e-20 1.21783)
(9.11954 2.67039e-19 1.18353)
(8.89972 6.01079e-19 1.37584)
(9.00471 5.21875e-19 1.33657)
(8.76929 7.74114e-21 1.55371)
(8.8844 5.26195e-19 1.50825)
(8.63368 -1.2484e-18 1.75455)
(8.75956 -6.01368e-19 1.70147)
(8.49403 1.51084e-20 1.98202)
(8.63132 -1.32585e-18 1.91963)
(8.352 6.43936e-19 2.2405)
(8.50127 6.46739e-19 2.16666)
(8.21005 -3.67932e-20 2.5353)
(8.37168 2.6226e-21 2.44731)
(8.07166 1.41693e-18 2.87292)
(8.2458 1.87933e-21 2.76738)
(7.94172 1.47902e-18 3.26141)
(8.12809 2.66823e-18 3.13407)
(7.82719 -2.58441e-18 3.7102)
(8.02474 1.60584e-19 3.55617)
(7.73853 -2.33802e-19 4.23028)
(7.94616 -2.50529e-18 4.04308)
(7.68263 1.91933e-19 4.82614)
(7.8931 2.4442e-18 4.6123)
(7.70083 -1.20678e-18 5.51765)
(7.94692 -3.06148e-18 5.22173)
(7.69483 1.19684e-18 6.23567)
(7.79611 -7.6334e-19 6.12803)
(7.75997 -2.94491e-19 6.86093)
(8.63469 1.81582e-18 6.21371)
(6.91502 -2.61522e-19 8.1682)
(9.991 4.53854e-19 0.0877413)
(9.99706 1.60452e-19 0.0607648)
(9.97379 1.44269e-19 0.143975)
(9.98505 -8.28805e-21 0.11917)
(9.94867 4.4299e-20 0.200128)
(9.96441 3.46237e-19 0.176832)
(9.91584 -9.41657e-20 0.257759)
(9.93619 2.16758e-20 0.235381)
(9.87553 -1.30842e-19 0.318072)
(9.90079 4.43023e-20 0.296145)
(9.828 0 0.382076)
(9.85837 9.28283e-20 0.360202)
(9.77344 1.03586e-19 0.450735)
(9.80911 -1.93023e-19 0.428512)
(9.71197 -8.18834e-21 0.52506)
(9.75319 2.02e-19 0.502084)
(9.64368 -1.04515e-19 0.606102)
(9.69079 -1.93227e-21 0.581975)
(9.56863 -2.34535e-19 0.694961)
(9.622 1.09163e-19 0.669258)
(9.48693 1.46905e-20 0.79284)
(9.54692 -1.17922e-19 0.765076)
(9.39876 2.34117e-19 0.901083)
(9.46575 2.37991e-19 0.870707)
(9.3043 -2.62642e-19 1.02119)
(9.37873 0 0.987579)
(9.20385 -5.32362e-20 1.15484)
(9.28618 -4.49865e-19 1.11727)
(9.09782 7.62026e-19 1.30394)
(9.18853 7.24383e-19 1.26156)
(8.98683 4.48284e-19 1.47069)
(9.08639 3.55581e-19 1.42247)
(8.8718 -9.48853e-20 1.65775)
(8.98057 -5.93796e-19 1.60236)
(8.75396 -6.84394e-19 1.86823)
(8.87227 1.15721e-18 1.80408)
(8.63491 -6.78042e-19 2.10577)
(8.76311 -1.19913e-18 2.03102)
(8.51677 0 2.37463)
(8.6551 0 2.28702)
(8.40258 4.11636e-20 2.67993)
(8.55101 0 2.57665)
(8.29657 1.2579e-18 3.02792)
(8.45464 -1.11512e-19 2.90549)
(8.20459 1.37576e-18 3.42625)
(8.37122 1.21703e-18 3.28038)
(8.13476 2.84425e-19 3.88374)
(8.30773 -3.07797e-19 3.70964)
(8.09921 1.02074e-19 4.41073)
(8.27626 -1.76621e-19 4.20165)
(8.10588 -5.29862e-19 5.00882)
(8.27574 1.34352e-18 4.77505)
(8.19383 -2.45286e-18 5.69762)
(8.40144 -2.16671e-18 5.37733)
(8.28313 -1.67933e-18 6.40731)
(8.30429 -2.39101e-19 6.29163)
(8.34473 1.58078e-18 7.01816)
(9.24697 -1.0961e-18 6.34528)
(7.52091 1.68954e-18 8.29744)
(9.99142 -3.05241e-19 0.0932497)
(9.99731 -1.59161e-19 0.0643359)
(9.97511 2.01408e-19 0.153186)
(9.9859 2.8549e-20 0.12626)
(9.95144 3.16901e-19 0.213196)
(9.96643 -3.80434e-20 0.187555)
(9.92066 1.60659e-19 0.274864)
(9.94 2.09194e-20 0.249908)
(9.88298 2.69103e-19 0.339385)
(9.90699 1.77968e-19 0.314641)
(9.83866 -1.05614e-19 0.407777)
(9.86759 2.76177e-19 0.382822)
(9.78795 -8.7547e-20 0.481039)
(9.82194 -1.93253e-19 0.455429)
(9.731 2.04783e-19 0.560226)
(9.77026 1.99635e-19 0.533516)
(9.66796 2.13846e-19 0.646416)
(9.71281 -1.03314e-19 0.618173)
(9.59898 2.22321e-19 0.740725)
(9.64974 2.16684e-19 0.71048)
(9.52427 1.11161e-19 0.844368)
(9.58126 8.12809e-22 0.811589)
(9.44411 0 0.958699)
(9.50766 1.15499e-19 0.922785)
(9.35882 -1.93785e-19 1.08522)
(9.4293 0 1.04549)
(9.26888 3.4385e-19 1.22562)
(9.34664 -1.91217e-19 1.18128)
(9.1749 3.1341e-19 1.38178)
(9.26028 5.25905e-19 1.3319)
(9.07768 -6.98366e-19 1.55584)
(9.17107 3.93805e-19 1.49934)
(8.97833 6.77489e-19 1.75038)
(9.07998 -1.03635e-18 1.68588)
(8.8784 6.24345e-19 1.96845)
(8.98839 1.71528e-18 1.89429)
(8.7799 -5.11403e-19 2.21362)
(8.89826 -9.44711e-19 2.12782)
(8.68546 0 2.48997)
(8.81207 -5.81192e-19 2.3902)
(8.59862 -1.53019e-19 2.80236)
(8.733 5.87484e-19 2.68575)
(8.52415 -1.52856e-19 3.15677)
(8.66536 1.16825e-18 3.01979)
(8.46863 -4.50889e-19 3.56028)
(8.61499 -1.45895e-18 3.39876)
(8.44091 -7.55503e-19 4.02105)
(8.5894 -1.63711e-19 3.83042)
(8.45399 1.0342e-18 4.54879)
(8.60188 -1.36897e-18 4.32228)
(8.51776 -2.2251e-20 5.144)
(8.64984 2.89804e-18 4.89379)
(8.66406 -2.9355e-20 5.82816)
(8.83773 -2.42314e-18 5.4893)
(8.84999 2.52578e-19 6.53033)
(8.8011 3.91035e-18 6.393)
(8.90271 2.00396e-18 7.18043)
(9.8142 -3.04331e-18 6.48043)
(8.13855 2.22206e-18 8.43066)
(9.99192 1.78451e-19 0.0984598)
(9.99758 2.8572e-19 0.0677028)
(9.97661 -2.125e-19 0.161861)
(9.98685 1.64832e-19 0.132925)
(9.95451 -3.33086e-19 0.225451)
(9.96866 -2.03313e-19 0.197592)
(9.92589 4.1328e-20 0.290851)
(9.94412 4.21932e-20 0.263455)
(9.89098 1.86879e-19 0.359253)
(9.91363 2.18309e-19 0.331835)
(9.85006 1.7996e-19 0.431676)
(9.87738 -4.46213e-20 0.403791)
(9.80337 1.01137e-19 0.509147)
(9.83548 0 0.480321)
(9.7511 -1.13893e-19 0.592752)
(9.7882 9.9438e-20 0.562512)
(9.69348 -9.53904e-20 0.683579)
(9.73585 -3.10912e-19 0.651459)
(9.63076 -8.42819e-21 0.782748)
(9.67868 3.20874e-19 0.748233)
(9.56325 6.81817e-21 0.89148)
(9.61699 -4.42059e-19 0.853993)
(9.49131 1.13902e-19 1.01112)
(9.55115 9.58381e-22 0.970022)
(9.41541 0 1.14315)
(9.48163 0 1.09772)
(9.33616 0 1.28921)
(9.40902 1.214e-19 1.23861)
(9.25437 6.0496e-19 1.45115)
(9.33407 1.25086e-19 1.3944)
(9.17106 4.16804e-20 1.63107)
(9.25781 4.68055e-19 1.56702)
(9.08751 2.76546e-20 1.83142)
(9.18144 -1.2091e-18 1.75868)
(9.00547 1.25464e-19 2.05512)
(9.10654 5.60557e-19 1.972)
(8.9273 -1.01229e-18 2.30557)
(9.03526 5.34953e-19 2.21004)
(8.85605 8.40042e-21 2.58661)
(8.97042 -1.14229e-18 2.47629)
(8.79573 1.91151e-18 2.90286)
(8.91559 8.67207e-19 2.77482)
(8.75159 -1.22678e-19 3.25994)
(8.87552 2.12463e-19 3.11065)
(8.73073 -1.1852e-18 3.66442)
(8.85658 -7.56249e-20 3.48978)
(8.74255 -7.60172e-19 4.12372)
(8.86674 -2.3322e-19 3.91941)
(8.80036 4.05541e-19 4.64709)
(8.92012 -1.074e-18 4.40634)
(8.91701 7.52254e-19 5.23561)
(9.01389 1.06146e-18 4.96971)
(9.1138 1.48301e-18 5.91371)
(9.25506 -1.62813e-18 5.55853)
(9.39883 3.32147e-18 6.60886)
(9.29211 2.97508e-18 6.42866)
(9.48148 4.66793e-19 7.36428)
(10.3456 -3.3607e-19 6.61769)
(8.82425 8.92523e-19 8.58798)
(9.99247 2.69792e-19 0.103337)
(9.99788 -8.34799e-21 0.0708419)
(9.97825 1.66174e-19 0.169955)
(9.98788 2.95143e-19 0.139127)
(9.95782 1.77325e-19 0.236846)
(9.97108 2.21118e-19 0.206902)
(9.93145 2.22775e-19 0.305665)
(9.94851 -4.15802e-20 0.275978)
(9.89942 -1.82916e-20 0.377604)
(9.92063 2.17717e-19 0.347677)
(9.86201 -2.24018e-19 0.45369)
(9.88763 -2.28324e-19 0.423052)
(9.81946 2.36469e-23 0.534973)
(9.84959 -2.81575e-19 0.503125)
(9.77202 -1.04587e-19 0.622548)
(9.80681 2.92028e-19 0.588998)
(9.71998 1.15857e-19 0.717491)
(9.75972 -3.04943e-19 0.681746)
(9.66369 -1.24777e-19 0.820914)
(9.70861 4.2513e-19 0.782423)
(9.60355 -4.41562e-19 0.934033)
(9.65384 -4.37932e-19 0.892184)
(9.54001 -1.13182e-19 1.05818)
(9.5959 -1.14919e-19 1.01231)
(9.47363 1.23165e-19 1.19478)
(9.53533 0 1.14415)
(9.40516 2.46808e-19 1.34543)
(9.47283 1.20619e-21 1.28919)
(9.33555 -8.16356e-21 1.51191)
(9.40929 1.36663e-21 1.44903)
(9.26603 -8.00784e-19 1.69623)
(9.34587 -1.306e-19 1.62553)
(9.19813 -6.61765e-19 1.90074)
(9.284 -1.7612e-20 1.82079)
(9.13378 9.70411e-19 2.12817)
(9.22549 -5.28048e-19 2.03726)
(9.07551 4.00268e-19 2.38165)
(9.17267 1.23273e-18 2.2778)
(9.02671 -2.79736e-19 2.66476)
(9.12852 -5.61248e-19 2.54558)
(8.99177 -8.35891e-19 2.98179)
(9.0969 2.7222e-19 2.84433)
(8.97638 2.57894e-19 3.33796)
(9.08293 -1.913e-18 3.17867)
(8.98808 8.84954e-19 3.73934)
(9.09345 2.4464e-18 3.5541)
(9.0368 -5.34552e-19 4.19266)
(9.13687 -5.08759e-19 3.9772)
(9.13602 -4.62237e-19 4.70667)
(9.22793 -9.19985e-19 4.45407)
(9.30222 -1.23081e-18 5.28367)
(9.36523 -1.30645e-18 5.00173)
(9.54661 6.49029e-20 5.94972)
(9.65158 -7.71612e-19 5.57978)
(9.93041 6.02883e-19 6.63616)
(9.77801 7.20965e-19 6.39044)
(10.1289 1.57506e-19 7.55557)
(10.8475 -1.26301e-18 6.71945)
(9.62172 3.18117e-19 8.78294)
(9.99307 2.28178e-20 0.107851)
(9.99819 -3.41838e-20 0.0737344)
(9.98003 3.48555e-19 0.177431)
(9.98899 6.07933e-19 0.144834)
(9.96135 -3.32157e-21 0.247341)
(9.97363 3.396e-19 0.215448)
(9.93733 -4.15953e-20 0.319271)
(9.95316 -4.24072e-20 0.28744)
(9.90825 -7.86745e-22 0.394408)
(9.928 -8.31513e-20 0.362132)
(9.87443 -2.8685e-19 0.473789)
(9.89833 8.44682e-20 0.440572)
(9.83613 2.04424e-20 0.558482)
(9.86423 -2.28093e-20 0.5238)
(9.79365 8.17997e-20 0.649569)
(9.82608 -1.58046e-19 0.61292)
(9.74732 1.60616e-20 0.748101)
(9.78436 -1.742e-20 0.708976)
(9.69759 9.89215e-20 0.855172)
(9.73941 2.14749e-19 0.812991)
(9.64492 -1.06232e-19 0.971993)
(9.69166 9.20564e-20 0.92612)
(9.58983 0 1.09987)
(9.64169 0 1.04962)
(9.53301 -1.22087e-19 1.24018)
(9.59013 -1.0721e-19 1.18481)
(9.47529 -2.44637e-19 1.39444)
(9.53776 -1.10254e-20 1.33307)
(9.41776 -1.22718e-19 1.5643)
(9.48562 -2.40724e-19 1.49593)
(9.36181 6.55053e-19 1.75167)
(9.43496 0 1.67508)
(9.3092 1.13279e-19 1.95876)
(9.38738 6.62299e-19 1.8725)
(9.26203 -2.57035e-19 2.1881)
(9.34487 -5.63069e-20 2.0905)
(9.22302 2.63966e-19 2.44255)
(9.30997 -4.6358e-19 2.33167)
(9.1957 -6.36383e-21 2.72529)
(9.28582 0 2.59884)
(9.18471 -8.02013e-19 3.04021)
(9.27634 -2.5348e-19 2.89529)
(9.19615 2.39774e-19 3.39203)
(9.28695 -1.05881e-18 3.22513)
(9.23792 1.08271e-18 3.78619)
(9.32482 6.19556e-19 3.59321)
(9.32049 -8.89519e-19 4.22874)
(9.39873 4.71194e-19 4.00521)
(9.45752 -1.75984e-18 4.72723)
(9.52372 7.01314e-19 4.46628)
(9.66917 -8.63246e-19 5.28497)
(9.70104 -8.56448e-19 4.98931)
(9.96111 0 5.9246)
(10.0235 0 5.54583)
(10.4365 -1.03554e-18 6.58983)
(10.2481 0 6.26725)
(10.8641 -1.27422e-18 7.70717)
(11.3588 -1.08799e-18 6.67635)
(11.3662 -9.99047e-19 8.83128)
(0.103871 0 -0.079564)
(0.0581772 -2.87008e-20 -0.0757413)
(0.267841 0 -0.076038)
(0.143608 -2.58215e-20 -0.0945742)
(0.47771 4.60672e-21 -0.0629134)
(0.334395 0 -0.0867042)
(0.741787 -3.15707e-22 -0.0556048)
(0.577673 -1.4672e-20 -0.0845938)
(1.03183 -4.96762e-21 -0.0528816)
(0.866613 5.30975e-21 -0.0863091)
(1.30267 8.95659e-22 -0.0515481)
(1.15588 1.1883e-20 -0.0872938)
(1.53841 7.97746e-22 -0.0501057)
(1.41029 -1.31618e-22 -0.0864157)
(1.74366 1.87132e-21 -0.0483925)
(1.62659 6.83276e-21 -0.0843411)
(1.925 3.72264e-21 -0.0463877)
(1.81235 -2.24234e-21 -0.0814708)
(2.08662 1.79269e-21 -0.0440652)
(1.97417 1.82521e-21 -0.0779177)
(2.23124 8.25811e-22 -0.0414248)
(2.11672 0 -0.0738285)
(2.36079 -1.21405e-23 -0.0384396)
(2.24318 8.29149e-22 -0.0692882)
(2.476 -8.09177e-22 -0.0350073)
(2.35517 -8.13097e-22 -0.064075)
(2.57663 3.66543e-22 -0.0311437)
(2.45332 5.99496e-21 -0.0578821)
(2.66258 2.85429e-21 -0.0270513)
(2.53751 -3.98362e-21 -0.0509541)
(2.7345 -2.65074e-22 -0.022816)
(2.60776 -3.57288e-21 -0.0438201)
(2.79252 -2.78606e-21 -0.0186046)
(2.66482 1.76907e-21 -0.0363097)
(2.83715 0 -0.0150898)
(2.70849 6.74087e-22 -0.0287218)
(2.87136 -2.46064e-21 -0.012653)
(2.73842 -1.3278e-21 -0.0226948)
(2.89874 -2.47034e-21 -0.0106692)
(2.75751 -3.95807e-21 -0.01875)
(2.92043 -1.55529e-22 -0.0088215)
(2.76941 -4.3313e-25 -0.0154033)
(2.93673 -1.59344e-22 -0.00829589)
(2.77346 -5.27421e-21 -0.0121854)
(2.9502 1.44611e-22 -0.01058)
(2.76691 5.28324e-21 -0.0106433)
(2.96547 2.33241e-21 -0.015899)
(2.75155 -4.48345e-22 -0.0122577)
(2.98776 -1.25635e-23 -0.0235433)
(2.73414 5.15644e-21 -0.017585)
(3.02296 -2.1674e-21 -0.032976)
(2.72215 -8.99376e-22 -0.0272333)
(3.0781 1.57701e-21 -0.0440272)
(2.72368 6.03027e-23 -0.0422031)
(3.16142 1.5232e-21 -0.0563487)
(2.75029 1.52769e-21 -0.0636317)
(3.28144 0 -0.0679624)
(2.81696 -2.2361e-21 -0.0920769)
(2.97292 0 -0.122068)
(0.0529883 -5.45836e-20 -0.122372)
(0.0247087 -1.42342e-19 -0.127145)
(0.192947 -2.87213e-20 -0.141567)
(0.057921 5.20064e-20 -0.171612)
(0.417108 -1.83899e-20 -0.136294)
(0.246725 0 -0.173966)
(0.704718 -9.19932e-21 -0.136227)
(0.486096 -5.8726e-20 -0.174028)
(1.00874 2.29712e-20 -0.137779)
(0.76496 3.20315e-20 -0.176991)
(1.28104 1.03126e-20 -0.137088)
(1.03268 6.31445e-21 -0.177317)
(1.50983 6.44055e-21 -0.13383)
(1.25866 -8.36452e-22 -0.173904)