/*--------------------------------*- C++ -*----------------------------------*\
| =========                 |                                                 |
| \\      /  F ield         | OpenFOAM: The Open Source CFD Toolbox           |
|  \\    /   O peration     | Version:  dev                                   |
|   \\  /    A nd           | Web:      www.OpenFOAM.org                      |
|    \\/     M anipulation  |                                                 |
\*---------------------------------------------------------------------------*/
FoamFile
{
    version     2.0;
    format      ascii;
    class       volVectorField;
    location    "4.77";
    object      Force;
}
// * * * * * * * * * * * * * * * * * * * * * * * * * * * * * * * * * * * * * //

dimensions      [1 1 -2 0 0 0 0];

internalField   uniform (0 0 0);

boundaryField
{
    inlet
    {
        type            calculated;
        value           uniform (0 0 0);
    }
    outlet
    {
        type            calculated;
        value           uniform (0 0 0);
    }
    flap
    {
        type            calculated;
        value           nonuniform List<vector> 
33
(
(3.44743 -1.88601e-17 -0.189773)
(3.40356 1.40499e-17 -0.418219)
(3.34365 4.42271e-18 -0.625921)
(3.26263 0 -0.779941)
(3.16446 1.75385e-17 -0.889101)
(3.05403 1.72995e-17 -0.961281)
(2.93527 4.12477e-21 -1.00392)
(2.81116 -3.90836e-21 -1.02239)
(2.68056 1.24957e-23 -1.02019)
(2.54072 4.44796e-23 -0.998677)
(2.388 3.27011e-17 -0.957742)
(2.21305 0 -0.896394)
(1.99822 1.28728e-22 -0.811287)
(1.71002 2.97364e-17 -0.691886)
(1.27737 1.35047e-17 -0.515847)
(0.285902 9.67241e-18 0.694763)
(0.181312 -1.14219e-21 0.444997)
(0.0719689 7.6103e-18 0.179377)
(-0.0748643 8.70599e-24 0.00416318)
(-0.0744141 1.39069e-17 0.00910183)
(-0.0732005 1.43901e-17 0.0136055)
(-0.0712628 -1.37753e-39 0.016837)
(-0.0686819 -3.77386e-39 0.0190212)
(-0.0656043 2.60619e-40 0.0202989)
(-0.0621982 0 0.0208473)
(-0.058618 1.56722e-17 0.0208368)
(-0.054981 -1.37821e-23 0.0204004)
(-0.0512577 -1.50377e-19 0.0195916)
(-0.0475361 1.60227e-17 0.0185011)
(-0.0440709 5.87747e-39 0.0173202)
(-0.0403503 1.18183e-19 0.0159212)
(-0.032127 1.60348e-24 0.0126537)
(-0.0117236 9.18355e-40 0.0042338)
)
;
    }
    upperWall
    {
        type            calculated;
        value           uniform (0 0 0);
    }
    lowerWall
    {
        type            calculated;
        value           uniform (0 0 0);
    }
    frontAndBack
    {
        type            empty;
    }
}


// ************************************************************************* //
