/*--------------------------------*- C++ -*----------------------------------*\
| =========                 |                                                 |
| \\      /  F ield         | OpenFOAM: The Open Source CFD Toolbox           |
|  \\    /   O peration     | Version:  dev                                   |
|   \\  /    A nd           | Web:      www.OpenFOAM.org                      |
|    \\/     M anipulation  |                                                 |
\*---------------------------------------------------------------------------*/
FoamFile
{
    version     2.0;
    format      ascii;
    class       surfaceVectorField;
    location    "4.77";
    object      Uf;
}
// * * * * * * * * * * * * * * * * * * * * * * * * * * * * * * * * * * * * * //

dimensions      [0 1 -1 0 0 0 0];

internalField   nonuniform List<vector> 
5457
(
(9.91369 -8.32677e-21 0.0225505)
(9.96447 1.77995e-20 0.0374919)
(9.81814 -1.66993e-20 0.0287329)
(9.92574 1.8409e-20 0.0428579)
(9.71059 -1.05954e-20 0.0337485)
(9.86217 1.10911e-23 0.0500038)
(9.58869 -4.50212e-21 0.0389496)
(9.77583 6.63448e-21 0.058743)
(9.45221 2.62932e-21 0.0443658)
(9.67292 -2.3327e-21 0.0681201)
(9.30118 4.71764e-21 0.0500453)
(9.55534 1.91558e-20 0.0780492)
(9.13525 0 0.0561256)
(9.42247 3.22636e-23 0.0887417)
(8.95375 0 0.0627427)
(9.27335 -5.19333e-21 0.100416)
(8.75584 0 0.0700152)
(9.10714 2.17966e-20 0.113248)
(8.5405 -1.51299e-21 0.0780617)
(8.923 -2.81676e-20 0.127408)
(8.30657 -1.06785e-21 0.0870088)
(8.71994 -1.16289e-23 0.143084)
(8.05278 -4.45401e-22 0.0969915)
(8.49677 4.89666e-20 0.160471)
(7.77772 2.71715e-20 0.108154)
(8.25219 -5.21623e-20 0.179776)
(7.47991 3.113e-20 0.120649)
(7.98476 -2.69474e-20 0.20121)
(7.15778 -1.87444e-20 0.134636)
(7.69296 5.66988e-20 0.224985)
(6.80977 -2.19566e-20 0.150276)
(7.3752 8.98682e-20 0.251295)
(6.43434 0 0.167717)
(7.0299 -1.23441e-19 0.280303)
(6.03012 1.76279e-20 0.187084)
(6.65552 -1.47693e-19 0.312101)
(5.59597 9.16917e-20 0.208462)
(6.25067 1.3604e-19 0.346681)
(5.13115 -4.54275e-21 0.231868)
(5.81423 3.26515e-19 0.383885)
(4.63554 -5.44566e-20 0.257219)
(5.34553 -6.76347e-19 0.42334)
(4.10981 2.33378e-19 0.284291)
(4.84449 -2.72092e-19 0.464377)
(3.55571 7.66227e-20 0.312666)
(4.31185 -1.60127e-19 0.505937)
(2.97637 -1.28588e-19 0.341646)
(3.74949 5.12407e-19 0.546452)
(2.37671 0 0.370094)
(3.16066 -1.0689e-18 0.583643)
(1.76399 -3.43794e-19 0.396182)
(2.55046 7.33193e-19 0.614206)
(1.14841 1.55223e-19 0.415289)
(1.92623 -3.86043e-19 0.633415)
(0.543014 3.95106e-19 0.349445)
(1.30093 4.97801e-19 0.633279)
(0.0377977 1.04872e-20 -0.0216052)
(0.606788 9.17056e-20 0.519711)
(0.29349 1.66507e-18 0.0464165)
(10.0016 4.44631e-20 0.0456597)
(9.99429 3.35865e-20 0.0367831)
(9.97089 3.47168e-20 0.060111)
(9.98349 1.02636e-20 0.056623)
(9.92212 1.73609e-20 0.0726492)
(9.9512 8.50369e-21 0.0726609)
(9.85672 8.64046e-21 0.0861349)
(9.8965 3.53269e-20 0.0902423)
(9.77445 1.45834e-20 0.100597)
(9.82445 -2.74983e-20 0.109169)
(9.67522 1.41301e-20 0.116078)
(9.73708 3.34418e-20 0.129313)
(9.55877 -5.25137e-21 0.132855)
(9.63398 -9.91389e-21 0.151006)
(9.42457 1.70633e-20 0.15123)
(9.51441 3.12844e-20 0.174657)
(9.27187 -7.22527e-21 0.171471)
(9.37762 -3.20115e-20 0.200623)
(9.09975 -2.61968e-20 0.19385)
(9.22287 -2.25291e-20 0.229256)
(8.90712 5.08362e-20 0.218654)
(9.0493 -4.58688e-20 0.260929)
(8.69278 -4.43292e-21 0.246186)
(8.85587 9.82162e-20 0.296041)
(8.45536 -1.05876e-19 0.276763)
(8.64137 -1.53979e-19 0.335019)
(8.1934 -3.17447e-23 0.310706)
(8.40445 5.22191e-20 0.378303)
(7.90533 1.65819e-19 0.348328)
(8.1437 5.27037e-20 0.426341)
(7.58952 -1.50235e-20 0.389907)
(7.85757 -1.39438e-19 0.47956)
(7.24434 -2.71538e-19 0.43565)
(7.54447 1.20901e-19 0.53833)
(6.86825 -2.50837e-20 0.485642)
(7.20277 9.60626e-20 0.602903)
(6.45986 3.73698e-19 0.539791)
(6.83089 -1.49199e-19 0.673348)
(6.01809 -3.59773e-19 0.59774)
(6.42741 4.12208e-21 0.749459)
(5.54233 -8.89054e-19 0.658763)
(5.9911 -3.07381e-19 0.830619)
(5.03263 -6.65011e-19 0.721636)
(5.52115 -3.31293e-19 0.91564)
(4.48995 2.82339e-19 0.784475)
(5.01725 -3.71474e-19 1.00256)
(3.91645 -4.46465e-19 0.844475)
(4.47979 6.4147e-19 1.08838)
(3.31593 -3.1978e-19 0.897426)
(3.91009 -4.56371e-19 1.1686)
(2.69458 6.7913e-19 0.936577)
(3.31058 1.73115e-20 1.23628)
(2.06297 -4.73064e-20 0.948735)
(2.68462 -2.31486e-19 1.27973)
(1.44176 1.93919e-19 0.892582)
(2.03755 -9.39867e-20 1.27396)
(0.817034 1.77121e-18 0.729044)
(1.32458 -1.42692e-18 1.1538)
(0.810194 1.53544e-18 0.850667)
(9.99438 -1.11101e-21 0.0503425)
(9.99194 -1.97202e-20 0.0392326)
(9.96719 -1.60304e-20 0.0724285)
(9.97864 -1.22645e-20 0.0688406)
(9.92203 2.69702e-20 0.0931291)
(9.94745 0 0.093687)
(9.86155 -1.93742e-21 0.11538)
(9.8957 4.40313e-20 0.119427)
(9.78589 -7.56307e-21 0.139402)
(9.82744 -2.75489e-20 0.146983)
(9.69488 8.62878e-21 0.165284)
(9.74469 1.90024e-20 0.176406)
(9.58829 2.73306e-20 0.193395)
(9.64729 2.98768e-20 0.208079)
(9.46573 -1.88919e-20 0.224178)
(9.53465 -1.49496e-20 0.242546)
(9.32661 -4.71791e-20 0.258063)
(9.40617 -4.30462e-20 0.280328)
(9.17015 -4.25921e-20 0.29549)
(9.26127 -8.4636e-20 0.32194)
(8.99545 3.90311e-21 0.336931)
(9.09927 4.5788e-20 0.367923)
(8.80147 -5.54871e-20 0.382894)
(8.91934 4.96447e-20 0.418863)
(8.58702 7.502e-21 0.433919)
(8.72049 -1.02658e-19 0.47539)
(8.35081 1.05001e-19 0.490559)
(8.50164 1.06739e-19 0.538165)
(8.09141 -2.55675e-19 0.553367)
(8.26161 2.24444e-19 0.60787)
(7.80729 5.4304e-22 0.622856)
(7.99911 -7.03105e-19 0.685182)
(7.49685 4.88161e-19 0.699442)
(7.71275 5.16624e-19 0.770725)
(7.15845 -3.17536e-20 0.783366)
(7.40106 2.75742e-19 0.864989)
(6.79043 -5.16716e-19 0.874602)
(7.06247 -2.6788e-19 0.968247)
(6.39125 5.158e-20 0.972716)
(6.69541 -3.18488e-19 1.08043)
(5.95951 2.49773e-19 1.07669)
(6.29826 8.77827e-19 1.20095)
(5.4941 -3.81224e-20 1.18469)
(5.86942 1.17195e-18 1.32844)
(4.99427 0 1.29381)
(5.40733 -6.26098e-19 1.46051)
(4.4598 6.18721e-19 1.39965)
(4.91041 1.62869e-19 1.59336)
(3.89102 -1.13917e-19 1.49556)
(4.377 6.96633e-19 1.72116)
(3.28856 -8.94681e-19 1.5713)
(3.80492 -5.40128e-19 1.83517)
(2.65165 -2.77995e-19 1.61025)
(3.19009 -3.72239e-21 1.92215)
(1.96906 -1.71009e-18 1.58326)
(2.52678 -2.76849e-19 1.96144)
(1.18338 -1.67318e-18 1.4744)
(1.76113 -1.61435e-18 1.92834)
(1.04978 -3.20238e-21 1.80921)
(9.98988 -3.07018e-20 0.0582474)
(9.99051 -3.55184e-20 0.0436373)
(9.96287 3.99779e-21 0.0895045)
(9.97535 1.22152e-20 0.080984)
(9.91857 1.78847e-20 0.119262)
(9.944 -8.4352e-21 0.114326)
(9.85912 1.717e-20 0.150291)
(9.89324 -7.02259e-20 0.148133)
(9.78502 -1.40571e-22 0.183317)
(9.82642 -1.30346e-22 0.184042)
(9.69617 4.04542e-20 0.218672)
(9.74547 -7.15246e-23 0.222416)
(9.5924 -1.32082e-20 0.256862)
(9.65036 2.01003e-20 0.263686)
(9.47347 -3.9622e-20 0.298488)
(9.54063 -5.14131e-20 0.308485)
(9.33895 -8.1203e-20 0.344152)
(9.41582 3.21737e-20 0.357473)
(9.18825 5.94378e-21 0.394463)
(9.27544 -1.16568e-20 0.411302)
(9.02072 9.16408e-20 0.450072)
(9.11899 5.67412e-22 0.470652)
(8.83556 0 0.511677)
(8.94583 1.03752e-19 0.536254)
(8.63191 0 0.580025)
(8.75522 -1.00697e-19 0.608902)
(8.40878 2.28063e-19 0.655893)
(8.54634 2.12851e-19 0.689431)
(8.16513 -2.37637e-19 0.74008)
(8.31833 -8.46534e-21 0.778716)
(7.89979 -1.68063e-19 0.833362)
(8.07023 -6.83694e-19 0.877659)
(7.61148 3.00433e-19 0.936428)
(7.80101 4.81059e-19 0.987127)
(7.29883 3.1422e-20 1.04979)
(7.5095 3.19147e-20 1.10787)
(6.96034 -7.0298e-20 1.17367)
(7.19442 6.52546e-20 1.24042)
(6.59437 5.24816e-19 1.30785)
(6.85433 -5.51044e-19 1.38502)
(6.19914 1.80496e-18 1.4514)
(6.48753 1.72361e-18 1.54131)
(5.7727 5.61823e-19 1.60244)
(6.09203 1.72577e-18 1.70817)
(5.31278 -4.53781e-19 1.75778)
(5.66536 7.6541e-19 1.88332)
(4.81662 2.47011e-19 1.91249)
(5.20433 -1.4249e-18 2.06299)
(4.28046 2.59596e-19 2.0593)
(4.70457 8.49582e-20 2.2414)
(3.69841 3.53955e-19 2.18777)
(4.15978 3.18147e-21 2.41024)
(3.05965 -3.30319e-21 2.28341)
(3.56014 -1.04397e-18 2.55846)
(2.34211 -1.82862e-19 2.32686)
(2.89411 -1.43594e-18 2.67156)
(1.50895 0 2.32097)
(2.11599 2.86912e-18 2.73531)
(1.28274 1.90578e-19 2.77516)
(9.98761 8.2796e-21 0.0669836)
(9.98974 -5.48621e-20 0.0490298)
(9.9602 -6.49197e-22 0.106068)
(9.97358 1.6273e-20 0.0933104)
(9.91666 -9.76968e-20 0.143768)
(9.94224 -4.21329e-20 0.13462)
(9.85826 -8.63021e-20 0.182723)
(9.89243 -3.53181e-20 0.176345)
(9.78561 -5.87032e-23 0.224097)
(9.82709 3.62809e-20 0.220404)
(9.69869 -2.00822e-20 0.268447)
(9.74805 0 0.267462)
(9.59735 -1.93574e-20 0.316365)
(9.6553 7.89844e-20 0.318038)
(9.48139 2.18066e-20 0.368544)
(9.54844 4.1681e-20 0.372838)
(9.35045 1.01019e-19 0.425704)
(9.42706 -8.48264e-20 0.432637)
(9.20408 -1.6811e-20 0.488571)
(9.29077 6.76473e-20 0.49821)
(9.04172 1.43203e-20 0.557911)
(9.13915 -9.26621e-20 0.570346)
(8.86277 -2.46613e-22 0.63455)
(8.97168 -9.60755e-20 0.649896)
(8.66657 1.17155e-19 0.719372)
(8.78778 9.5804e-20 0.737778)
(8.45238 -2.71781e-20 0.813306)
(8.5868 2.12988e-19 0.834962)
(8.21946 -4.65208e-19 0.91733)
(8.36812 -2.19508e-19 0.942471)
(7.96696 -1.66327e-20 1.03243)
(8.13101 -2.32219e-19 1.06139)
(7.69395 2.05695e-19 1.15954)
(7.87474 -2.98304e-19 1.19279)
(7.39937 6.62351e-20 1.29942)
(7.59843 5.21902e-19 1.33767)
(7.08201 -4.24493e-19 1.4526)
(7.30103 -6.34241e-20 1.49685)
(6.74037 6.78796e-19 1.61923)
(6.98134 -4.82129e-19 1.67091)
(6.37256 1.64661e-18 1.79878)
(6.63773 1.07015e-18 1.85995)
(5.97619 1.91728e-18 1.98974)
(6.26805 5.87834e-19 2.06333)
(5.54797 -2.2705e-19 2.18931)
(5.86935 1.24092e-18 2.27939)
(5.08332 -1.57187e-18 2.39297)
(5.43744 -1.85423e-19 2.50507)
(4.57549 -1.7172e-19 2.5942)
(4.96628 -1.4305e-18 2.73554)
(4.0145 -1.39806e-18 2.78418)
(4.44709 -1.48758e-18 2.96394)
(3.38576 -2.47871e-18 2.95176)
(3.86728 -2.74335e-18 3.18133)
(2.66706 1.57742e-18 3.0808)
(3.21266 -1.25907e-18 3.37654)
(1.84504 2.97854e-18 3.18136)
(2.46231 5.61296e-18 3.52576)
(1.53958 -9.1803e-20 3.70188)
(9.98648 -4.57807e-20 0.0760971)
(9.9893 -5.65973e-23 0.054914)
(9.95886 -2.64287e-20 0.122424)
(9.97279 1.6215e-20 0.105736)
(9.91624 2.03657e-20 0.167829)
(9.9418 -3.3705e-20 0.154499)
(9.8592 8.85565e-20 0.214718)
(9.89311 8.74714e-20 0.203928)
(9.7883 3.57073e-20 0.264433)
(9.8295 1.07808e-22 0.255915)
(9.70366 1.00446e-19 0.317694)
(9.75272 0 0.311362)
(9.60514 1.3937e-19 0.375169)
(9.66274 9.87646e-20 0.370931)
(9.49253 -6.71173e-20 0.437629)
(9.55918 9.20746e-22 0.435402)
(9.36554 -1.15732e-19 0.505897)
(9.44169 7.05535e-24 0.505637)
(9.22376 -1.08652e-20 0.58081)
(9.30994 -9.87349e-20 0.582511)
(9.06676 -2.03143e-19 0.663242)
(9.16358 -1.84519e-19 0.666919)
(8.89402 2.98275e-21 0.754134)
(9.00218 1.8215e-19 0.759813)
(8.705 1.9356e-19 0.854488)
(8.82525 8.22846e-21 0.86222)
(8.49914 1.38922e-20 0.96536)
(8.63227 -2.01587e-22 0.975218)
(8.27586 1.34747e-20 1.08788)
(8.42273 1.36882e-20 1.09994)
(8.03454 -5.14986e-19 1.22322)
(8.19606 1.39717e-20 1.23763)
(7.77446 2.94357e-20 1.37252)
(7.95176 -4.49328e-19 1.38957)
(7.49479 3.84124e-19 1.53681)
(7.68909 9.80801e-19 1.55696)
(7.19453 -1.26985e-19 1.71695)
(7.40712 -1.07525e-18 1.74091)
(6.87233 -7.0202e-20 1.91349)
(7.10482 1.57615e-18 1.9424)
(6.52632 5.15399e-21 2.12642)
(6.78069 -1.08215e-18 2.16202)
(6.15387 -8.05729e-20 2.35499)
(6.43254 7.27121e-20 2.39981)
(5.75117 1.26692e-18 2.59727)
(6.05718 -1.32016e-18 2.65504)
(5.31267 -5.12934e-20 2.84982)
(5.64994 2.74414e-18 2.92578)
(4.83027 -2.74532e-18 3.10736)
(5.20408 -1.27427e-18 3.20854)
(4.29232 -2.84158e-18 3.36267)
(4.70989 -3.84939e-18 3.49788)
(3.68386 -1.53964e-18 3.60657)
(4.15411 1.04995e-18 3.78578)
(2.98317 2.68476e-18 3.82022)
(3.5184 -1.05676e-20 4.06301)
(2.19423 2.38541e-18 4.01262)
(2.8202 2.75215e-18 4.28413)
(1.82266 -1.86068e-19 4.57873)
(9.986 6.22316e-20 0.0853736)
(9.98908 5.48405e-20 0.061005)
(9.95851 7.93169e-21 0.138553)
(9.97267 8.08459e-21 0.118112)
(9.91696 3.56086e-20 0.191347)
(9.94228 0 0.173895)
(9.86153 -2.5244e-21 0.245926)
(9.89492 3.49747e-20 0.230752)
(9.79274 -3.56139e-20 0.303671)
(9.83336 -3.63562e-20 0.290406)
(9.71077 0 0.365464)
(9.75919 0 0.353921)
(9.61552 -4.14242e-20 0.432094)
(9.67237 0 0.422136)
(9.50676 6.80153e-20 0.504414)
(9.57258 -2.04687e-20 0.495909)
(9.38426 1.54168e-20 0.583333)
(9.45951 8.52665e-20 0.576163)
(9.2477 -2.73849e-19 0.669786)
(9.33289 -4.39942e-20 0.663862)
(9.09669 2.0671e-19 0.764747)
(9.19244 -2.44351e-20 0.759998)
(8.9308 1.84857e-19 0.86926)
(9.03779 -7.82216e-21 0.86562)
(8.74959 -1.8587e-19 0.984426)
(8.86854 -1.1356e-20 0.981855)
(8.55256 -1.9864e-22 1.1114)
(8.68426 -2.05729e-19 1.10988)
(8.33927 1.4185e-20 1.25144)
(8.48452 2.11429e-19 1.25093)
(8.10925 7.30149e-20 1.40587)
(8.26881 1.22165e-22 1.40636)
(7.8619 5.2267e-19 1.57606)
(8.03682 4.38926e-20 1.57766)
(7.59648 -5.07068e-19 1.7633)
(7.78791 4.88568e-19 1.7663)
(7.31206 6.6261e-19 1.9688)
(7.52112 -9.7831e-19 1.97367)
(7.00741 5.32526e-19 2.19356)
(7.23555 1.51451e-18 2.20115)
(6.68075 -1.00154e-18 2.43817)
(6.92977 -1.01399e-18 2.44985)
(6.32937 -1.18215e-18 2.70271)
(6.6016 0 2.72058)
(5.94918 1.94592e-19 2.98645)
(6.24785 -1.17031e-18 3.01365)
(5.53428 1.48847e-18 3.28735)
(5.86363 2.28659e-18 3.32848)
(5.07632 -2.39335e-18 3.60149)
(5.44202 -1.02564e-18 3.66297)
(4.56339 4.38876e-20 3.9225)
(4.97328 -5.03137e-18 4.01295)
(3.98114 2.56198e-18 4.24168)
(4.44478 5.0221e-18 4.37013)
(3.30639 5.08096e-21 4.53467)
(3.82989 2.48859e-18 4.72755)
(2.5539 9.75168e-20 4.80424)
(3.1948 5.8711e-20 5.01072)
(2.12893 -2.6502e-18 5.41078)
(9.98597 0 0.0946379)
(9.98902 0 0.0671109)
(9.95888 0 0.154357)
(9.97303 1.60714e-20 0.130312)
(9.91853 0 0.21419)
(9.94344 -1.66445e-20 0.19275)
(9.865 -9.90081e-23 0.276153)
(9.89765 6.90812e-20 0.256683)
(9.79868 -9.55813e-23 0.341615)
(9.83845 -7.19324e-20 0.323696)
(9.71977 0 0.411596)
(9.76722 0 0.394951)
(9.62819 2.06232e-20 0.48701)
(9.68395 -7.77462e-20 0.471438)
(9.52377 -1.48338e-21 0.568783)
(9.58836 1.00465e-19 0.554094)
(9.40633 2.37208e-20 0.657893)
(9.48021 2.05905e-20 0.643903)
(9.2756 2.05885e-19 0.755361)
(9.3593 2.20318e-20 0.741903)
(9.13127 -2.38758e-19 0.862255)
(9.2254 1.8294e-19 0.849176)
(8.97299 -2.04411e-19 0.979712)
(9.07821 -3.78901e-19 0.966863)
(8.80037 -3.4007e-20 1.10893)
(8.9174 1.89649e-19 1.09618)
(8.61303 1.19814e-20 1.25117)
(8.74267 -2.05749e-19 1.23841)
(8.41055 1.94445e-19 1.40778)
(8.55364 6.32902e-19 1.39488)
(8.19255 -2.8418e-20 1.58025)
(8.34982 -4.46084e-19 1.56707)
(7.95858 1.57001e-20 1.77018)
(8.13095 -1.46915e-20 1.75664)
(7.70795 -1.85999e-21 1.97914)
(7.89652 3.5249e-22 1.96535)
(7.43969 -9.47324e-20 2.20871)
(7.64568 -1.00035e-18 2.19494)
(7.15262 -6.28619e-20 2.46037)
(7.37755 9.90848e-19 2.44718)
(6.84502 0 2.73539)
(7.09069 3.18706e-20 2.72376)
(6.51424 0 3.03477)
(6.78287 0 3.02626)
(6.15619 9.51696e-19 3.35898)
(6.4511 -1.15678e-18 3.35614)
(5.7648 -2.50026e-19 3.70738)
(6.09056 2.19122e-18 3.71414)
(5.33183 -3.68745e-18 4.07747)
(5.69414 1.0893e-18 4.09952)
(4.84569 -3.66259e-20 4.46325)
(5.25226 -2.42294e-18 4.50937)
(4.29252 4.94152e-18 4.85556)
(4.75382 2.4515e-18 4.9345)
(3.6458 2.65308e-18 5.22406)
(4.1591 -2.23234e-18 5.37156)
(2.92461 -3.08795e-18 5.56285)
(3.58921 4.733e-18 5.71305)
(2.45648 -5.28306e-18 6.21219)
(9.98621 1.63482e-20 0.103755)
(9.98908 5.40667e-20 0.0731121)
(9.95979 -1.24145e-21 0.16974)
(9.97369 4.00738e-20 0.142217)
(9.92083 5.40086e-20 0.236261)
(9.94516 3.30283e-20 0.210978)
(9.86944 -5.25278e-21 0.30526)
(9.9012 6.88913e-20 0.281608)
(9.80591 -7.06033e-20 0.378104)
(9.84461 3.55894e-20 0.355629)
(9.7304 -7.90858e-20 0.455913)
(9.77661 3.7435e-20 0.434274)
(9.64289 5.07825e-21 0.5397)
(9.69724 -7.73036e-20 0.51863)
(9.54327 1.21275e-19 0.630462)
(9.60626 -3.92527e-20 0.609713)
(9.43141 1.89359e-20 0.729242)
(9.5035 1.67671e-22 0.708564)
(9.30711 1.53929e-21 0.83714)
(9.38883 -1.94547e-19 0.816291)
(9.17012 3.41743e-20 0.95531)
(9.26208 3.57404e-19 0.93406)
(9.02017 2.39414e-20 1.08497)
(9.12302 -1.7257e-19 1.0631)
(8.85696 1.20162e-20 1.22742)
(8.97137 3.98019e-19 1.20469)
(8.68022 4.27505e-19 1.38402)
(8.80701 3.86909e-21 1.3602)
(8.48956 -2.26485e-20 1.55624)
(8.62959 -4.02825e-19 1.53112)
(8.28458 -4.26834e-19 1.74572)
(8.43876 -1.14583e-20 1.71907)
(8.06489 -2.98416e-20 1.95426)
(8.23411 4.31227e-19 1.92583)
(7.82999 -1.01128e-18 2.18376)
(8.0152 -2.50329e-20 2.15341)
(7.57901 1.07457e-19 2.43619)
(7.78147 -1.40993e-18 2.40393)
(7.31077 1.07621e-18 2.71354)
(7.53217 1.0714e-18 2.67959)
(7.0234 3.15827e-20 3.01779)
(7.26583 -9.98726e-19 2.9828)
(6.71437 -1.16791e-18 3.35094)
(6.98005 -1.01718e-18 3.31591)
(6.37988 1.05918e-19 3.71466)
(6.67212 -1.0607e-18 3.68145)
(6.01384 3.52625e-18 4.1097)
(6.33754 1.18157e-18 4.08165)
(5.60793 2.34364e-18 4.53495)
(5.96907 4.43518e-18 4.51715)
(5.15066 8.47164e-20 4.98485)
(5.55671 -2.11207e-18 4.98637)
(4.6281 -4.75111e-18 5.44985)
(5.09146 3.03895e-20 5.47943)
(4.00898 -1.53247e-19 5.89411)
(4.5162 -4.71387e-18 5.99849)
(3.31004 1.474e-18 6.30237)
(4.0086 4.66973e-18 6.40229)
(2.80636 -2.58449e-18 7.0022)
(9.98662 7.7675e-20 0.112619)
(9.98922 -7.64081e-21 0.0789353)
(9.96112 7.4117e-20 0.184598)
(9.97454 2.40063e-20 0.153718)
(9.92377 4.85713e-20 0.257458)
(9.94735 -1.64521e-20 0.228471)
(9.87474 1.09168e-19 0.333124)
(9.90546 -6.8848e-20 0.305422)
(9.81426 1.43709e-19 0.412981)
(9.85168 1.07509e-19 0.386078)
(9.74246 3.72854e-20 0.498223)
(9.78719 -7.34202e-20 0.471727)
(9.65938 -1.21026e-19 0.589937)
(9.71203 -3.81176e-20 0.56352)
(9.56498 -1.59827e-19 0.689182)
(9.62604 -7.87098e-22 0.662538)
(9.45918 -2.16482e-19 0.797064)
(9.52909 1.23456e-19 0.769877)
(9.34186 1.699e-19 0.914757)
(9.42114 -3.4273e-19 0.886708)
(9.21282 1.42753e-19 1.0435)
(9.30212 3.57271e-19 1.01428)
(9.07186 2.09996e-19 1.18458)
(9.17181 2.19959e-20 1.1539)
(8.91878 3.84571e-19 1.33936)
(9.03002 1.97689e-19 1.30691)
(8.75345 -8.3261e-19 1.50932)
(8.87671 3.87429e-21 1.47472)
(8.5756 -3.87043e-19 1.69611)
(8.71163 -8.51025e-19 1.65898)
(8.38482 8.53544e-19 1.90151)
(8.53475 4.25327e-19 1.86153)
(8.18067 4.31202e-19 2.12748)
(8.34559 4.30422e-19 2.08431)
(7.96271 -4.3943e-19 2.37622)
(8.14362 1.12377e-20 2.3295)
(7.73041 -4.19082e-19 2.65011)
(7.92852 -4.37767e-19 2.59948)
(7.48273 -1.02703e-18 2.95176)
(7.69963 -2.08475e-22 2.897)
(7.21773 -2.05149e-18 3.28393)
(7.45583 -1.99719e-18 3.2253)
(6.93281 -9.11165e-19 3.64955)
(7.19476 -2.00006e-18 3.58754)
(6.62457 2.98554e-20 4.05163)
(6.91358 6.67635e-20 3.98722)
(6.28715 2.10753e-18 4.49244)
(6.60849 -6.73804e-20 4.42832)
(5.912 -4.24969e-20 4.97237)
(6.2724 2.16547e-18 4.9131)
(5.4869 -2.14767e-18 5.48685)
(5.89402 -2.19288e-18 5.44185)
(4.99682 3.377e-20 6.02699)
(5.46672 9.99431e-22 6.0048)
(4.40484 0 6.55293)
(4.91269 1.26394e-19 6.61191)
(3.71779 -3.78838e-20 7.04077)
(4.463 0 7.0918)
(3.18503 6.54738e-20 7.80635)
(9.98714 -6.06871e-20 0.121154)
(9.98943 -6.17513e-20 0.0845321)
(9.96276 -6.7396e-20 0.198831)
(9.97552 -1.42386e-19 0.164724)
(9.92725 -1.34852e-19 0.277674)
(9.94992 -4.97634e-20 0.245126)
(9.88079 -6.74377e-20 0.35963)
(9.91034 -1.02807e-19 0.328023)
(9.82359 -1.12806e-19 0.44611)
(9.85955 3.52653e-20 0.414926)
(9.7558 -1.48297e-19 0.53836)
(9.7988 -3.78439e-20 0.507164)
(9.67748 8.27784e-20 0.637522)
(9.72814 -5.86123e-22 0.605934)
(9.58866 2.84658e-19 0.744708)
(9.64747 3.15935e-19 0.712365)
(9.48936 -9.95602e-21 0.861077)
(9.55672 2.74223e-21 0.827596)
(9.37952 -1.44811e-19 0.987878)
(9.45592 -1.69956e-19 0.952854)
(9.25903 2.31507e-19 1.12644)
(9.34512 1.97473e-19 1.08948)
(9.12771 1.22946e-20 1.2781)
(9.22414 1.85493e-19 1.23887)
(8.98541 -1.86095e-19 1.44428)
(9.09292 -3.74881e-19 1.40241)
(8.83209 -2.55681e-20 1.62652)
(8.95134 0 1.58154)
(8.66775 -2.15701e-20 1.82665)
(8.79929 -2.36474e-22 1.77795)
(8.49222 1.53033e-21 2.04669)
(8.63706 3.29347e-21 1.99371)
(8.30505 5.3175e-21 2.28878)
(8.4644 -2.79397e-20 2.23105)
(8.1057 8.63713e-21 2.55533)
(8.28091 -2.68531e-20 2.49236)
(7.89375 -1.36711e-20 2.84904)
(8.08622 -8.92822e-19 2.78019)
(7.66852 -9.89344e-19 3.17325)
(7.87955 8.93514e-19 3.09772)
(7.42841 -1.94911e-18 3.53161)
(7.66049 -1.89819e-18 3.44907)
(7.17085 -1.00681e-18 3.92794)
(7.42724 -1.89745e-18 3.83835)
(6.8926 -3.14591e-20 4.36669)
(7.1767 -9.8741e-19 4.27007)
(6.58839 0 4.85198)
(6.90575 9.65929e-19 4.74994)
(6.24948 0 5.38621)
(6.60791 0 5.28256)
(5.86223 -3.3147e-20 5.96705)
(6.27059 -1.92274e-18 5.87116)
(5.40913 9.42917e-20 6.58818)
(5.88941 1.9106e-18 6.50787)
(4.8467 1.25389e-19 7.20892)
(5.36422 -1.88967e-18 7.21304)
(4.16293 1.06831e-19 7.80055)
(4.97144 2.17814e-18 7.79536)
(3.60894 3.95486e-20 8.66105)
(9.98775 -1.44839e-19 0.129295)
(9.9897 -1.21904e-19 0.0898651)
(9.96466 -1.2299e-19 0.21235)
(9.97663 -1.61123e-20 0.17516)
(9.93119 -1.86456e-20 0.296812)
(9.9528 -1.63088e-20 0.260845)
(9.88749 2.30567e-21 0.384676)
(9.91572 -3.23981e-22 0.349321)
(9.83377 1.09043e-19 0.477366)
(9.86809 3.52867e-20 0.442077)
(9.77022 1.10599e-19 0.576171)
(9.81129 -7.27246e-20 0.540459)
(9.69696 2.37771e-19 0.682274)
(9.74541 2.63975e-19 0.645714)
(9.61407 2.89971e-20 0.796824)
(9.67036 2.36813e-19 0.759005)
(9.52163 -1.6002e-19 0.921025)
(9.58616 -3.23557e-19 0.881504)
(9.4197 1.7802e-19 1.05619)
(9.49288 1.67546e-19 1.01448)
(9.30825 1.51334e-19 1.20375)
(9.39064 1.76683e-19 1.15935)
(9.18719 -2.09682e-19 1.36512)
(9.2794 -3.33525e-19 1.31762)
(9.0564 -1.83641e-19 1.54174)
(9.15932 -2.88382e-21 1.49073)
(8.91586 2.53523e-20 1.73516)
(9.03024 0 1.68014)
(8.7657 2.47153e-20 1.9473)
(8.89211 2.50488e-20 1.88752)
(8.60611 -2.65757e-20 2.18042)
(8.74526 4.99571e-20 2.11501)
(8.43699 -6.01585e-20 2.43701)
(8.58981 -3.13365e-22 2.36517)
(8.25787 -9.38297e-19 2.71967)
(8.42597 -7.20056e-21 2.64073)
(8.06821 2.96959e-20 3.03135)
(8.2533 -9.50438e-19 2.9445)
(7.86755 -3.81273e-20 3.37596)
(8.07093 9.11315e-19 3.27989)
(7.65505 -1.85031e-18 3.75808)
(7.87906 -9.89595e-19 3.65162)
(7.4286 -1.87311e-18 4.18256)
(7.67673 -9.45848e-19 4.06492)
(7.18506 1.72517e-20 4.65534)
(7.46135 -9.58993e-19 4.52551)
(6.9199 9.63557e-19 5.18269)
(7.23027 9.69444e-19 5.04075)
(6.62481 -1.93301e-18 5.77013)
(6.97821 0 5.61815)
(6.28489 1.89362e-20 6.41954)
(6.69233 -1.43093e-19 6.2656)
(5.87875 -9.84311e-20 7.13057)
(6.37089 -6.92779e-20 6.98031)
(5.356 1.421e-20 7.86795)
(5.89323 -2.02228e-18 7.79641)
(4.67539 2.01747e-18 8.60933)
(5.56837 2.16525e-18 8.52253)
(4.11374 -6.51685e-20 9.61618)
(9.98845 8.64055e-21 0.136992)
(9.99 -2.20969e-22 0.0948947)
(9.96678 9.06629e-20 0.225077)
(9.97792 2.51615e-19 0.184968)
(9.9355 2.25367e-21 0.314785)
(9.95595 -6.53004e-20 0.27556)
(9.89472 3.32593e-20 0.408168)
(9.9215 1.34733e-19 0.369238)
(9.84466 -1.48381e-19 0.50664)
(9.87722 0 0.467434)
(9.78559 8.62038e-20 0.611515)
(9.82457 -2.18048e-19 0.571488)
(9.71767 2.62614e-19 0.724021)
(9.76371 1.51114e-19 0.682703)
(9.64103 -1.24536e-19 0.845336)
(9.6946 3.96214e-20 0.802278)
(9.55578 1.15489e-20 0.976695)
(9.61725 -1.61128e-19 0.931411)
(9.46205 1.66431e-19 1.11947)
(9.53181 -3.91291e-20 1.0714)
(9.35992 -3.15654e-19 1.27515)
(9.43838 1.28732e-19 1.22371)
(9.24949 -1.22173e-19 1.44524)
(9.33717 -5.77081e-19 1.3899)
(9.13083 1.8112e-19 1.63122)
(9.22853 3.19308e-19 1.57145)
(9.00393 0 1.83469)
(9.11247 3.74354e-19 1.76994)
(8.86888 5.06052e-20 2.05752)
(8.9891 -3.82572e-19 1.98704)
(8.72602 7.57315e-20 2.3021)
(8.85853 -3.94187e-19 2.22484)
(8.57571 5.26679e-20 2.57123)
(8.72116 4.28317e-19 2.486)
(8.41795 -2.77959e-20 2.86788)
(8.57777 2.66978e-20 2.77363)
(8.25235 -5.32243e-20 3.19525)
(8.42824 -7.74356e-22 3.0909)
(8.07858 -5.59216e-20 3.55759)
(8.27217 5.28088e-20 3.44145)
(7.89649 -8.40275e-20 3.96018)
(8.10998 -9.7716e-22 3.83024)
(7.70496 -2.85546e-20 4.40914)
(7.94157 -2.87582e-20 4.26345)
(7.50156 0 4.91184)
(7.7659 0 4.74821)
(7.28273 0 5.47687)
(7.58116 7.54047e-19 5.29333)
(7.04148 1.79622e-18 6.11402)
(7.38408 1.92919e-19 5.90952)
(6.76335 -2.26258e-19 6.83208)
(7.16365 2.80124e-18 6.61066)
(6.4236 -2.00862e-18 7.64213)
(6.923 -3.47965e-18 7.40364)
(5.9667 -1.94069e-20 8.52594)
(6.52993 1.52186e-18 8.34095)
(5.31274 -1.84288e-20 9.49885)
(6.31297 -1.78115e-18 9.26569)
(4.77169 7.53891e-20 10.7396)
(9.98927 2.47067e-19 0.144193)
(9.99028 1.21784e-19 0.0995672)
(9.96913 8.97676e-20 0.236961)
(9.97939 -1.53639e-20 0.194096)
(9.94012 7.06846e-20 0.331534)
(9.95934 1.12612e-19 0.289235)
(9.9024 9.91562e-20 0.430026)
(9.92761 1.00641e-19 0.387706)
(9.8562 -7.33185e-20 0.533824)
(9.88685 1.38624e-19 0.4909)
(9.80184 -1.4714e-19 0.644259)
(9.83851 -2.15261e-19 0.600133)
(9.73954 -7.37983e-20 0.762604)
(9.7829 -9.87022e-22 0.716754)
(9.66945 0 0.890073)
(9.71998 -7.64347e-20 0.842018)
(9.59169 -2.10051e-19 1.02792)
(9.64977 1.58756e-19 0.977146)
(9.50642 -7.45954e-20 1.17754)
(9.57243 -3.29071e-19 1.12345)
(9.41386 -1.42418e-19 1.34045)
(9.48811 1.07225e-21 1.2824)
(9.31427 -1.23588e-19 1.51819)
(9.39725 -4.81145e-20 1.45554)
(9.20797 5.13472e-19 1.7123)
(9.30027 1.36263e-19 1.64439)
(9.09518 -1.71668e-20 1.92447)
(9.19739 4.20605e-19 1.85058)
(8.97604 -8.28304e-19 2.15658)
(9.08917 -5.93148e-21 2.07593)
(8.85089 -3.32431e-20 2.41098)
(8.97565 -1.21612e-18 2.32245)
(8.72027 3.98687e-19 2.69063)
(8.85728 7.47579e-19 2.59279)
(8.58471 5.34993e-20 2.99877)
(8.73509 8.03526e-19 2.89021)
(8.44449 1.05903e-19 3.33898)
(8.60954 -1.67913e-18 3.21811)
(8.29969 1.07533e-19 3.7157)
(8.48121 1.54966e-18 3.58045)
(8.15071 5.43086e-20 4.13462)
(8.35079 -1.60937e-18 3.98228)
(7.99769 0 4.60291)
(8.21908 -6.60824e-21 4.43023)
(7.83986 7.58573e-19 5.12924)
(8.08709 -8.36383e-19 4.93245)
(7.67548 9.53092e-19 5.72444)
(7.9549 4.82664e-20 5.49901)
(7.5004 1.20998e-18 6.40286)
(7.82255 8.03011e-19 6.1432)
(7.30412 -4.26119e-19 7.18226)
(7.68407 9.99108e-19 6.88463)
(7.06365 9.13881e-20 8.09132)
(7.55251 -1.45873e-18 7.74291)
(6.72812 -6.72608e-20 9.14867)
(7.30572 1.52438e-18 8.79246)
(6.18294 -1.65345e-18 10.4964)
(7.29895 -2.32851e-18 9.96361)
(5.71063 5.65741e-19 12.1224)
(9.99014 -1.43053e-19 0.150852)
(9.99054 0 0.103867)
(9.97168 9.88943e-21 0.24795)
(9.98091 -1.43353e-19 0.202486)
(9.94504 1.42337e-19 0.347008)
(9.96285 2.62476e-20 0.301828)
(9.91046 1.4078e-19 0.450178)
(9.93394 -6.3325e-20 0.404685)
(9.86826 -9.21428e-21 0.558817)
(9.89682 2.06182e-19 0.512417)
(9.81878 -6.56121e-20 0.674269)
(9.85293 -2.13063e-19 0.626311)
(9.76229 -4.77197e-21 0.797867)
(9.80272 2.14564e-19 0.747768)
(9.69896 8.59387e-20 0.930862)
(9.74613 -2.21478e-19 0.878115)
(9.62893 3.27318e-20 1.07452)
(9.68326 3.09752e-19 1.01858)
(9.55245 -2.48858e-19 1.23022)
(9.6143 -2.00509e-19 1.17046)
(9.46983 9.46723e-20 1.39949)
(9.53946 -2.86833e-19 1.33521)
(9.38139 2.14365e-19 1.58383)
(9.45935 3.82458e-19 1.51438)
(9.28759 4.66556e-20 1.78483)
(9.37441 3.7531e-19 1.70945)
(9.18901 4.27303e-19 2.00422)
(9.28504 -6.7829e-19 1.92201)
(9.08615 -4.06478e-19 2.24397)
(9.1922 7.33792e-19 2.15396)
(8.97937 -4.15879e-19 2.50643)
(9.09616 -8.75798e-19 2.40742)
(8.86923 1.1537e-18 2.79453)
(8.99749 6.71276e-19 2.68504)
(8.75663 -9.50434e-19 3.11155)
(8.89737 4.5099e-19 2.98992)
(8.64268 -2.12561e-19 3.46131)
(8.79676 -2.51638e-18 3.32541)
(8.52828 -1.86648e-19 3.84838)
(8.69723 2.38289e-18 3.69568)
(8.41456 -1.66715e-18 4.27862)
(8.60024 -1.70117e-18 4.10581)
(8.30306 -8.44432e-19 4.75961)
(8.50767 -8.53948e-19 4.5623)
(8.19535 -1.54825e-18 5.30075)
(8.42256 6.47862e-19 5.07348)
(8.09283 -1.02451e-19 5.91432)
(8.34789 -1.29227e-18 5.64975)
(7.99644 5.99665e-19 6.61784)
(8.28843 1.33004e-18 6.30517)
(7.905 -9.97342e-21 7.43654)
(8.24692 -7.28863e-19 7.06142)
(7.80912 0 8.41622)
(8.25262 -6.16323e-19 7.94636)
(7.69003 -5.77447e-19 9.62626)
(8.22975 8.90563e-19 9.04373)
(7.47136 4.33154e-19 11.5972)
(8.72137 -8.54068e-19 10.3894)
(8.37339 4.71968e-19 13.8127)
(0.166773 7.68371e-21 -0.107441)
(0.10699 3.70793e-20 -0.140747)
(0.384429 -2.2229e-21 -0.110733)
(0.262896 1.18389e-20 -0.173542)
(0.590766 -8.63855e-21 -0.0921263)
(0.467289 -8.41036e-21 -0.15091)
(0.771877 8.87929e-22 -0.0733081)
(0.664135 0 -0.12444)
(0.928254 4.7551e-21 -0.0582853)
(0.838184 -1.45199e-20 -0.103139)
(1.06288 3.87474e-22 -0.0467958)
(0.989207 1.7306e-20 -0.0867377)
(1.17917 -1.36005e-22 -0.0379196)
(1.12054 -1.6773e-20 -0.0741612)
(1.27966 5.32224e-23 -0.0306161)
(1.23575 1.65623e-20 -0.0639946)
(1.36567 -2.48077e-21 -0.0239919)
(1.33713 -3.28324e-21 -0.054948)
(1.43726 1.57063e-21 -0.0174131)
(1.42549 -1.65919e-21 -0.0459196)
(1.49358 -1.52846e-21 -0.0105758)
(1.50112 -6.16713e-21 -0.0362302)
(1.53348 -2.31828e-21 -0.00356231)
(1.56342 1.6464e-21 -0.0256796)
(1.55655 -7.15192e-22 0.00304181)
(1.61155 3.00259e-21 -0.0147584)
(1.56389 -7.19988e-22 0.00836763)
(1.64531 -1.40865e-21 -0.00450033)
(1.55819 6.35366e-22 0.011827)
(1.66526 0 0.00401187)
(1.54314 2.6707e-23 0.013339)
(1.6733 1.94462e-21 0.0100821)
(1.52288 -6.33662e-22 0.0131319)
(1.67275 -6.30535e-22 0.0134142)
(1.50163 -2.54972e-22 0.0115718)
(1.66795 1.11356e-21 0.0140175)
(1.48301 -3.28157e-24 0.00908699)
(1.66303 -1.35468e-21 0.0122779)
(1.46978 3.58168e-22 0.00606012)
(1.66104 1.22652e-21 0.00880778)
(1.46376 -1.02193e-25 0.00288321)
(1.6636 9.82588e-22 0.00422871)
(1.46526 2.35867e-22 4.77218e-05)
(1.671 -1.02941e-22 -0.000471565)
(1.47292 3.43492e-22 -0.00208296)
(1.68264 -4.41944e-25 -0.00427905)
(1.48491 2.4253e-22 -0.00345531)
(1.69744 0 -0.00689396)
(1.49955 2.23673e-22 -0.0042046)
(1.71417 4.82412e-22 -0.00844947)
(1.51556 -2.73494e-25 -0.00451158)
(1.73179 -2.18592e-23 -0.00920309)
(1.53199 2.16748e-23 -0.00454349)
(1.74965 2.15558e-23 -0.00938734)
(1.5483 1.32399e-24 -0.00444405)
(1.76708 0 -0.00922834)
(1.56433 3.19535e-24 -0.00434958)
(1.78366 1.33138e-24 -0.00897456)
(1.80239 8.13038e-23 -0.00881062)
(0.151226 4.10153e-20 -0.23689)
(0.0842762 3.7117e-20 -0.289989)
(0.351737 3.45512e-21 -0.246913)
(0.211194 3.54e-20 -0.333763)
(0.553308 0 -0.212416)
(0.408944 -3.2308e-20 -0.295818)
(0.737721 -1.48809e-20 -0.176766)
(0.595329 2.95953e-20 -0.249075)
(0.901842 -4.96359e-22 -0.148126)
(0.762158 -7.02038e-20 -0.210123)
(1.04743 2.92293e-22 -0.126163)
(0.910024 4.02896e-20 -0.179936)
(1.17691 -1.47063e-22 -0.109078)
(1.04057 -1.33336e-20 -0.156619)