/*--------------------------------*- C++ -*----------------------------------*\
| =========                 |                                                 |
| \\      /  F ield         | OpenFOAM: The Open Source CFD Toolbox           |
|  \\    /   O peration     | Version:  dev                                   |
|   \\  /    A nd           | Web:      www.OpenFOAM.org                      |
|    \\/     M anipulation  |                                                 |
\*---------------------------------------------------------------------------*/
FoamFile
{
    version     2.0;
    format      ascii;
    class       volScalarField;
    location    "1.52";
    object      p;
}
// * * * * * * * * * * * * * * * * * * * * * * * * * * * * * * * * * * * * * //

dimensions      [0 2 -2 0 0 0 0];

internalField   nonuniform List<scalar> 
2790
(
46.8877
46.7463
46.8324
47.086
47.4276
47.8344
48.3091
48.8572
49.4828
50.1883
50.9774
51.8552
52.8278
53.9014
55.0823
56.3776
57.7941
59.3387
61.0169
62.8325
64.7861
66.8738
69.0859
71.4049
73.8019
76.2329
78.6334
80.9128
82.9443
84.4881
46.744
46.6977
46.8042
47.0563
47.3966
47.8028
48.2759
48.8214
49.4432
50.144
50.9273
51.7981
52.7623
53.8257
54.9945
56.2753
57.6747
59.199
60.8537
62.6424
64.5655
66.6193
68.7943
71.0734
73.4289
75.818
78.1765
80.4063
82.3582
83.6898
46.6191
46.6473
46.7725
47.0182
47.3516
47.7523
48.219
48.7561
49.3676
50.056
50.8244
51.6774
52.6201
53.6576
54.7951
56.0379
57.3913
58.8599
60.4473
62.1549
63.9809
65.9181
67.9525
70.0609
72.2073
74.3343
76.3491
78.0789
79.2819
78.3645
46.5007
46.5687
46.7091
46.9503
47.2766
47.6706
48.1292
48.6559
49.2541
49.9262
50.6749
51.504
52.4178
53.4202
54.515
55.7057
56.9955
58.3863
59.8785
61.4699
63.1536
64.9163
66.7342
68.5693
70.3622
72.0159
73.3634
74.0358
73.8853
68.2079
46.3796
46.4697
46.6241
46.8641
47.1835
47.5692
48.0174
48.5306
49.1118
49.7631
50.4866
51.2853
52.1624
53.1206
54.1619
55.2876
56.4983
57.7926
59.1669
60.6138
62.1202
63.664
65.2087
66.6948
68.0282
69.053
69.5062
68.6883
67.1298
55.2536
46.2516
46.3546
46.5194
46.7582
47.0697
47.4447
47.8798
48.3765
48.9371
49.5635
50.2571
51.0199
51.854
52.7605
53.7395
54.79
55.9095
57.0929
58.332
59.6134
60.9165
62.2091
63.4403
64.5272
65.3361
65.6447
65.1092
62.5612
59.953
42.0113
46.1142
46.2251
46.3965
46.6333
46.936
47.2987
47.7186
48.1963
48.7335
49.3314
49.9909
50.713
51.4983
52.3465
53.2557
54.2225
55.2411
56.3024
57.393
58.4934
59.575
60.5951
61.4882
62.1493
62.4085
61.9808
60.4861
56.1691
52.9108
30.3901
45.9663
46.0819
46.2569
46.4903
46.7834
47.1324
47.535
47.9913
48.5023
49.0685
49.6901
50.3672
51.0989
51.8832
52.7164
53.5928
54.5032
55.4342
56.3676
57.2775
58.1273
58.8642
59.4094
59.6392
59.357
58.2234
55.8739
49.919
46.1303
21.2028
45.8074
45.9259
46.1018
46.3304
46.6129
46.9468
47.3303
47.763
48.2453
48.777
49.3575
49.9859
50.6601
51.3763
52.1289
52.9097
53.7066
54.5025
55.2742
55.9898
56.605
57.0579
57.259
57.0711
56.2803
54.5045
51.4272
44.1068
39.657
14.399
45.6373
45.7574
45.9323
46.1548
46.4256
46.7432
47.1059
47.5132
47.9646
48.4595
48.9962
49.5729
50.1864
50.8311
51.4996
52.1818
52.8625
53.5212
54.1304
54.6528
55.0374
55.215
55.0881
54.5107
53.2603
50.9252
47.2453
38.9433
33.7267
9.64533
45.4562
45.577
45.7495
45.9645
46.2226
46.5227
46.8633
47.2435
47.6623
48.1183
48.6091
49.1319
49.6823
50.2532
50.8358
51.4177
51.9815
52.5035
52.9528
53.2874
53.4515
53.37
52.9401
52.0117
50.3611
47.5613
43.402
34.5255
28.5477
6.32681
45.2646
45.3855
45.5543
45.7607
46.0051
46.2866
46.604
46.9557
47.3405
47.7562
48.1996
48.6669
49.1527
49.6486
50.1444
50.6261
51.0739
51.4619
51.7566
51.9128
51.8705
51.5512
50.85
49.6161
47.6296
44.4638
39.9369
30.8201
24.1063
3.64621
45.063
45.1835
45.3476
45.5444
45.7742
46.0364
46.3296
46.6519
47.0015
47.3758
47.7707
48.1818
48.6022
49.0229
49.4323
49.8149
50.1493
50.4082
50.5561
50.5452
50.3136
49.7818
48.8446
47.3534
45.0967
41.6602
36.863
27.7487
20.273
0.871335
44.852
44.9718
45.1306
45.3169
45.5314
45.7735
46.0418
46.3338
46.6476
46.9797
47.3257
47.6802
48.0354
48.3814
48.7057
48.9917
49.2169
49.3531
49.363
49.1982
48.7968
48.0795
46.9425
45.2427
42.7801
39.1638
34.1932
25.2665
16.9553
-2.45762
44.6325
44.7511
44.904
45.0792
45.2778
45.4994
45.7421
46.0035
46.2811
46.5709
46.868
47.1661
47.4568
47.7295
47.9712
48.1641
48.2855
48.3063
48.1889
47.8852
47.3346
46.4586
45.1573
43.2961
40.6892
36.978
31.9345
23.3682
14.1986
-6.56863
-9.26582
-9.20243
-8.90882
-8.03987
-6.71792
-5.46234
-4.59779
-4.11499
-3.82238
-3.57592
-3.33401
-3.10712
-2.91067
-2.74783
-2.61216
-2.4923
-2.37453
-2.24641
-2.09836
-1.92391
-1.72005
-1.48719
-1.22902
-0.952751
-0.669565
-0.395071
-0.148982
0.0453954
0.161725
0.183535
-9.28461
-9.20625
-8.88073
-8.02507
-6.76922
-5.54731
-4.65854
-4.13179
-3.8108
-3.55537
-3.31595
-3.09529
-2.90529
-2.74818
-2.61736
-2.50153
-2.38716
-2.26179
-2.11573
-1.94241
-1.73875
-1.5051
-1.24494
-0.964907
-0.675947
-0.393947
-0.138869
0.065025
0.185721
0.18457
-9.31859
-9.21053
-8.82601
-7.97484
-6.82158
-5.66888
-4.75731
-4.1607
-3.7843
-3.50782
-3.27053
-3.06077
-2.88265
-2.73608
-2.61421
-2.50586
-2.39786
-2.27793
-2.1363
-1.96628
-1.7646
-1.53141
-1.27026
-0.987896
-0.694597
-0.406487
-0.144808
0.0655234
0.190958
0.190205
-9.37302
-9.22199
-8.75216
-7.88688
-6.84545
-5.7791
-4.85692
-4.19117
-3.75164
-3.44566
-3.20581
-3.00622
-2.84186
-2.7091
-2.59994
-2.50295
-2.40514
-2.2944
-2.16099
-1.99822
-1.80273
-1.57462
-1.31735
-1.03772
-0.746135
-0.457824
-0.193264
0.0228536
0.158308
0.170462
-9.45664
-9.25188
-8.6712
-7.78219
-6.82981
-5.844
-4.92555
-4.20739
-3.71057
-3.37134
-3.12313
-2.9305
-2.77999
-2.66334
-2.57038
-2.48892
-2.40605
-2.30984
-2.19066
-2.04171
-1.85932
-1.6431
-1.39597
-1.12434
-0.838388
-0.552922
-0.28771
-0.06616
0.0831186
0.117838
-9.58124
-9.30664
-8.60044
-7.67558
-6.76866
-5.8414
-4.93629
-4.18884
-3.65012
-3.28078
-3.02178
-2.83389
-2.69713
-2.5989
-2.52641
-2.46607
-2.40465
-2.33015
-2.23267
-2.10498
-1.94276
-1.74493
-1.51377
-1.25542
-0.979149
-0.697989
-0.431194
-0.200857
-0.0294192
0.0460563
-9.76499
-9.38022
-8.55187
-7.57108
-6.66062
-5.75441
-4.86583
-4.11313
-3.55349
-3.16452
-2.89784
-2.71528
-2.59342
-2.51654
-2.46994
-2.43782
-2.40572
-2.36103
-2.29321
-2.19421
-2.05868
-1.88448
-1.67307
-1.43039
-1.16576
-0.889907
-0.616745
-0.369189
-0.164488
-0.0294885
-10.0293
-9.46673
-8.52372
-7.46983
-6.50595
-5.58094
-4.70427
-3.964
-3.40435
-3.01033
-2.74389
-2.57096
-2.46867
-2.41889
-2.40459
-2.40825
-2.41373
-2.40719
-2.37706
-2.31409
-2.21153
-2.06569
-1.87665
-1.64899
-1.39171
-1.11657
-0.833473
-0.557933
-0.30764
-0.0984456
-10.3884
-9.57536
-8.50751
-7.35987
-6.30314
-5.3285
-4.45433
-3.73464
-3.1918
-2.80792
-2.5518
-2.39623
-2.32092
-2.30692
-2.33418
-2.38246
-2.43368
-2.47273
-2.48706
-2.46606
-2.40133
-2.28731
-2.12224
-1.9088
-1.65432
-1.36929
-1.06619
-0.754439
-0.44738
-0.15543
-10.8436
-9.72131
-8.49687
-7.21496
-6.03955
-5.00021
-4.12106
-3.42535
-2.9103
-2.54969
-2.31554
-2.18778
-2.15009
-2.1828
-2.26208
-2.36401
-2.46837
-2.55924
-2.62334
-2.64877
-2.62516
-2.54477
-2.40345
-2.20159
-1.94519
-1.64314
-1.30703
-0.948784
-0.576593
-0.199298
-11.4109
-9.9103
-8.48322
-6.99668
-5.68703
-4.58323
-3.70227
-3.03784
-2.56079
-2.23388
-2.03202
-1.94326
-1.956
-2.04866
-2.19158
-2.35585
-2.51942
-2.66655
-2.78398
-2.85853
-2.87761
-2.83094
-2.7117
-2.51774
-2.2542
-1.92899
-1.55201
-1.13611
-0.692263
-0.23137
-12.1862
-10.1404
-8.4166
-6.65009
-5.19634
-4.04519
-3.18502
-2.57164
-2.14663
-1.86258
-1.70112
-1.66217
-1.73988
-1.90792
-2.12673
-2.36075
-2.58722
-2.79255
-2.96472
-3.08925
-3.15079
-3.13624
-3.03659
-2.84781
-2.57189
-2.21668
-1.79225
-1.31201
-0.793052
-0.253782
-13.3205
-10.3472
-8.17311
-6.08178
-4.49831
-3.34536
-2.55315
-2.027
-1.67427
-1.44112
-1.32507
-1.34582
-1.50533
-1.76663
-2.0735
-2.38202
-2.67172
-2.93458
-3.16116
-3.33531
-3.43779
-3.45196
-3.36664
-3.17717
-2.88328
-2.49195
-2.01459
-1.46855
-0.876402
-0.26808
-14.6294
-10.2776
-7.51675
-5.17744
-3.54092
-2.46181
-1.80586
-1.41525
-1.15667
-0.97805
-0.906027
-0.996086
-1.2602
-1.63679
-2.04243
-2.425
-2.77339
-3.09063
-3.3701
-3.59199
-3.73151
-3.7679
-3.68813
-3.4874
-3.1673
-2.7349
-2.20329
-1.59423
-0.936576
-0.274022
-13.869
-9.24063
-6.01255
-3.90387
-2.38656
-1.45214
-0.985385
-0.76318
-0.60584
-0.474758
-0.450578
-0.631668
-1.02746
-1.53855
-2.04564
-2.49345
-2.89068
-3.25648
-3.58558
-3.85115
-4.02065
-4.06883
-3.98247
-3.75918
-3.40363
-2.92499
-2.33939
-1.67392
-0.964139
-0.268836
44.4008
44.518
44.6644
44.8278
45.0096
45.2099
45.4264
45.6563
45.8968
46.1436
46.3912
46.6326
46.8588
47.059
47.2195
47.3219
47.3433
47.2548
47.0189
46.5889
45.9061
44.8946
43.4599
41.4787
38.7826
35.0551
30.0518
22.0338
12.4712
-11.1739
44.1545
44.2698
44.4091
44.5599
44.7242
44.9021
45.0914
45.2889
45.4914
45.6943
45.8917
46.076
46.238
46.3666
46.4474
46.4621
46.388
46.1966
45.8517
45.3089
44.5121
43.3893
41.8533
39.7952
37.0675
33.4042
28.5802
21.3337
12.8716
10.2034
43.8955
44.0086
44.14
44.2776
44.4237
44.5788
44.7402
44.9048
45.0689
45.2277
45.375
45.5028
45.6018
45.6605
45.6647
45.5961
45.4325
45.1462
44.7032
44.0625
43.1713
41.9624
40.3585
38.2667
35.5637
32.0411
27.5369
21.3673
14.4684
13.9945
43.6245
43.7349
43.8579
43.9815
44.1089
44.2407
44.3742
44.5055
44.6312
44.7462
44.8439
44.9163
44.9542
44.9457
44.8768
44.7301
44.4837
44.1115
43.5829
42.8598
41.8934
40.6237
38.9849
36.9
34.2711
30.948
26.8255
21.5783
15.4025
12.1628
43.342
43.4494
43.5636
43.6727
43.7807
43.889
43.9944
44.0926
44.1801
44.2519
44.3011
44.3198
44.2988
44.2264
44.0892
43.8702
43.5484
43.1006
42.4995
41.7096
40.6871
39.3819
37.7398
35.6975
33.1836
30.098
26.3777
21.9378
16.9589
13.9204
43.0488
43.153
43.258
43.3522
43.4404
43.5248
43.6021
43.6676
43.7177
43.7473
43.7494
43.7165
43.6395
43.5072
43.3067
43.0218
42.6332
42.1208
41.4602
40.6189
39.5595
38.2428
36.625
34.6562
32.29
29.4702
26.1866
22.5333
18.8117
16.3277
42.7459
42.8464
42.9419
43.0211
43.0894
43.1498
43.1991
43.2323
43.246
43.2347
43.1917
43.1098
42.9803
42.7925
42.5342
42.1902
41.7439
41.178
40.4704
39.5926
38.5146
37.2068
35.6355
33.7652
31.5708
29.0331
26.191
23.2006
20.3049
18.0626
42.4344
42.531
42.6165
42.6805
42.7294
42.7659
42.7873
42.7888
42.7668
42.7165
42.6309
42.503
42.3249
42.0864
41.7762
41.3805
40.8855
40.2764
39.5337
38.6332
37.5526
36.2703
34.762
33.0062
30.9948
28.7366
26.293
23.8
21.4096
19.3597
42.1158
42.2078
42.283
42.3319
42.3615
42.3746
42.3687
42.3394
42.2832
42.1955
42.0696
41.8992
41.6768
41.3928
41.0367
40.5968
40.0617
39.4192
38.6522
37.7417
36.6716
35.4273
33.9931
32.3583
30.5278
28.5265
26.4129
24.2849
22.232
20.3611
41.7912
41.8781
41.9428
41.9769
41.9875
41.9778
41.9456
41.8867
41.7978
41.6746
41.511
41.3014
41.039
40.7148
40.319
39.8422
39.2755
38.6087
37.8272
36.9171
35.8679
34.6702
33.3156
31.8014
30.1396
28.3591
26.5071
24.6496
22.836
21.1214
41.4621
41.5435
41.5976
41.6171
41.6093
41.5773
41.5197
41.4326
41.3131
41.1568
40.9582
40.713
40.4146
40.0548
39.6257
39.1194
38.5291
37.8458
37.0582
36.1571
35.1358
33.9898
32.7157
31.3155
29.8044
28.2087
26.5636
24.9105
23.2788
21.709
41.1299
41.2055
41.2491
41.2543
41.2286
41.1752
41.0933
40.9797
40.8315
40.6446
40.4143
40.137
39.8067
39.4162
38.9593
38.4301
37.8228
37.1301
36.3439
35.4581
34.4695
33.3772
32.1808
30.8847
29.5046
28.0623
26.5827
25.0926
23.6133
22.1801
40.7962
40.866
40.8993
40.8903
40.8474
40.7735
40.6685
40.5303
40.3557
40.1406
39.8817
39.576
39.2179
38.8017
38.3223
37.7754
37.1566
36.4608
35.6819
34.8163
33.8633
32.8243
31.7004
30.4976
29.2303
27.9162
26.5731
25.22
23.874
22.5658
40.4629
40.5268
40.5499
40.5272
40.4675
40.3743
40.248
40.0868
39.8877
39.6471
39.3629
39.0323
38.6506
38.2131
37.7162
37.1563
36.5312
35.837
35.0694
34.2272
33.3114
32.3236
31.2665
30.1469
28.9773
27.7721
26.5449
25.3098
24.0811
22.8847
40.1321
40.1898
40.2028
40.1669
40.0912
39.98
39.8339
39.6516
39.4299
39.1666
38.8604
38.5083
38.1065
37.6521
37.1419
36.5735
35.9463
35.2575
34.504
33.6867
32.8077
31.8688
30.8734
29.8281
28.7436
27.6322
26.5049
25.3726
24.2468
23.1486
39.8058
39.8568
39.8601
39.8117
39.7209
39.5926
39.4284
39.2268
38.9847
38.7014
38.3758
38.0055
37.5876
37.1198
36.6
36.0271
35.4011
34.7201
33.9831
33.1917
32.348
31.4549
30.5163
29.5375
28.5279
27.4984
26.4579
25.4149
24.3786
23.3659
39.4859
39.5302
39.524
39.4637
39.3587
39.2146
39.0337
38.8148
38.5549
38.2536
37.9111
37.526
37.0952
36.617
36.091
35.5169
34.8947
34.2237
33.5041
32.7384
31.929
31.0787
30.1911
29.2717
28.3289
27.3713
26.4062
25.4405
24.4815
23.5428
39.1746
39.2124
39.1967
39.1246
39.0068
38.8483
38.6522
38.4178
38.1422
37.8252
37.4686
37.0711
36.63
36.1446
35.6153
35.0423
34.4259
33.7661
33.0646
32.3247
31.5482
30.737
29.8952
29.029
28.1454
27.2507
26.351
25.4522
24.5599
23.6851
38.8744
38.9054
38.8803
38.797
38.6677
38.4964
38.2859
38.0374
37.7484
37.4185
37.0499
36.6421
36.1931
35.7032
35.1729
34.6029
33.9937
33.3457
32.6627
31.9483
31.2022
30.4263
29.6264
28.8081
27.9765
27.1366
26.2937
25.4528
24.6183
23.7989
38.587
38.6115
38.5776
38.4837
38.3436
38.1606
37.9373
37.6762
37.3756
37.0351
36.6568
36.2403
35.7854
35.2934
34.7641
34.1983
33.597
32.9616
32.2971
31.606
30.8877
30.1448
29.3831
28.6072
27.821
27.0288
26.2351
25.4442
24.6599
23.8889
38.3148
38.3333
38.2913
38.1869
38.0365
37.8433
37.609
37.3368
37.0255
36.6759
36.2903
35.8673
35.4082
34.9156
34.3887
33.8277
33.235
32.6132
31.966
31.2958
30.6032
29.891
29.1636
28.4249
27.6783
26.9276
26.1764
25.4286
24.6876
23.9588
38.0608
38.0729
38.023
37.9093
37.7491
37.5465
37.3029
37.0213
36.7009
36.3434
35.9515
35.5236
35.0623
34.5705
34.0463
33.4907
32.9072
32.2987
31.668
31.0173
30.3483
29.6636
28.9666
28.2605
27.5487
26.834
26.1196
25.4091
24.7053
24.0126
37.8274
37.8331
37.7757
37.6533
37.484
37.2724
37.0206
36.7314
36.4035
36.0398
35.6426
35.2107
34.748
34.2578
33.7373
33.1875
32.6132
32.0172
31.4019
30.7693
30.1216
29.4612
28.7909
28.1133
27.4315
26.7485
26.0665
25.3879
24.7156
24.0538
37.617
37.6166
37.5518
37.4213
37.2439
37.0244
36.7651
36.4687
36.1345
35.7661
35.3655
34.9309
34.467
33.9783
33.462
32.9187
32.3534
31.7691
31.1678
30.5515
29.9227
29.2837
28.6367
27.9838
27.3276
26.6716
26.0176
25.3668
24.7215
24.0863
37.4328
37.4263
37.3538
37.2152
37.0307
36.8046
36.5389
36.2362
35.8958
35.5229
35.1204
34.6853
34.2211
33.7327
33.2199
32.6835
32.1271
31.5535
30.9647
30.3628
29.7505
29.1301
28.5031
27.8714
27.2373
26.6036
25.9725
25.3451
24.7233
24.1106
37.278
37.2654
37.185
37.0381
36.8467
36.6148
36.344
36.0366
35.6915
35.3146
34.9103
34.4755
34.0119
33.5246
33.0153
32.4852
31.9367
31.3723
30.7942
30.2045
29.6061
29.0016
28.3919
27.778
27.1624
26.5475
25.9353
25.3273
24.7249
24.1311
37.1567
37.1368
37.0473
36.8923
36.6943
36.4563
36.1805
35.8692
35.5211
35.1414
34.7343
34.299
33.837
33.3522
32.8467
32.3219
31.78
31.2233
30.6542
30.0745
29.4874
28.8958
28.3003
27.7009
27.1001
26.5005
25.9039
25.3113
24.7242
24.145
37.075
37.0435
36.9432
36.7817
36.5796
36.3378
36.058
35.7428
35.3921
35.0102
34.6012
34.1656
33.7051
33.2225
32.7198
32.199
31.6623
31.1117
30.5497
29.9782
29.4001
28.8178
28.2323
27.6441
27.0553
26.4679
25.8835
25.3032
24.7284
24.1613
37.0435
36.982
36.8647
36.6977
36.4934
36.2499
35.9673
35.6489
35.2967
34.9147
34.5056
34.0707
33.6115
33.1306
32.6302
32.1125
31.5796
31.0335
30.4764
29.9107
29.3389
28.7631
28.1841
27.6033
27.0223
26.4429
25.8662
25.2937
24.7265
24.1664
37.0906
36.9769
36.8381
36.6655
36.4575
36.2098
35.9234
35.6025
35.2497
34.8674
34.4578
34.0227
33.5639
33.0839
32.5849
32.069
31.5384
30.9951
30.4412
29.879
29.3113
28.74
28.1658
27.5901
27.0142
26.4398
25.8683
25.3009
24.7385
24.1828
-85.0239
-67.9264
-41.1576
8.6496
5.21944
3.69251
8.29079
2.9195
0.807795
7.88706
5.85473
4.87599
12.0133
10.6617
9.44559
14.6877
13.3534
12.1216
16.3768
15.1285
14.0166
17.7239
16.5529
15.5311
18.7948
17.6869
16.7419
19.6399
18.6038
17.7374
20.3319
19.3747
18.5825
20.9132
20.0343
19.3086
21.4039
20.5981
19.9321
21.8178
21.0777
20.465
22.1655
21.4835
20.918
22.4556
21.8241
21.3004
22.6968
22.1098
21.6224
22.8952
22.3475
21.8926
23.0572
22.5435
22.1173
23.1901
22.7067
22.3054
23.2983
22.8417
22.4625
23.3854
22.9525
22.5926
23.4553
23.0429
22.6998
23.5128
23.1181
22.7892
23.5583
23.1787
22.8619
23.597
23.2302
22.9234
23.6253
23.2691
22.9705
23.6541
23.3065
23.0139
23.6677
23.3267
23.0387
23.6943
23.3607
23.0759
-5.88691
-2.85983
-3.29825
-2.15973
-0.966329
-0.306703
-0.0868268
-0.0414602
0.0137764
0.0762124
0.0110554
-0.305464
-0.860295
-1.50526
-2.09472
-2.586
-3.01771
-3.42545
-3.80005
-4.10349
-4.29318
-4.33966
-4.23181
-3.97249
-3.57133
-3.04125
-2.40309
-1.69079
-0.946895
-0.248218
4.00491
1.42356
0.098096
0.557466
1.11306
1.28509
1.19928
1.03984
0.902046
0.748191
0.456415
-0.0835894
-0.826734
-1.58493
-2.21475
-2.71803
-3.17128
-3.61146
-4.01495
-4.33428
-4.52034
-4.54278
-4.39502
-4.08639
-3.63215
-3.05006
-2.36676
-1.62425
-0.872358
-0.212469
0.462961
-0.0476306
0.308302
1.11488
1.72198
1.91077
1.80718
1.57221
1.29012
0.96261
0.531931
-0.029635
-0.674754
-1.32104
-1.9054
-2.45273
-3.01459
-3.56707
-4.04799
-4.40287
-4.58555
-4.57746
-4.38544
-4.02879
-3.52864
-2.9094
-2.20504
-1.46504
-0.746692
-0.182937
3.96391
3.1961
3.10131
3.24275
3.31947
3.20291
2.91947
2.5402
2.10875
1.6315
1.08643
0.458421
-0.234911
-0.946661
-1.6286
-2.24574
-2.78142
-3.26785
-3.70484
-4.02097
-4.16735
-4.13543
-3.9365
-3.58938
-3.11012
-2.52297
-1.86755
-1.19961
-0.585003
-0.186289
7.8907
6.50534
5.67487
5.14428
4.74294
4.3475
3.90229
3.40435
2.86403
2.28693
1.66753
1.0008
0.301687
-0.395788
-1.05431
-1.64809
-2.17455
-2.62854
-3.0052
-3.28814
-3.43479
-3.4226
-3.25352
-2.94087
-2.50582
-1.97968
-1.40953
-0.859172
-0.399356
-0.193447
10.5877
9.05221
7.84193
6.91193
6.19018
5.57071
4.97366
4.36464
3.73547
3.08763
2.42182
1.73858
1.04757
0.368044
-0.276483
-0.86603
-1.39101
-1.84081
-2.19378
-2.44291
-2.57858
-2.57951
-2.44587
-2.19213
-1.8416
-1.42594
-0.988078
-0.584042
-0.274323
-0.177114
12.6355
11.1405
9.77661
8.6187
7.67282
6.86701
6.12748
5.41225
4.70441
4.0004
3.29997
2.60328
1.91511
1.24543
0.610648
0.0295461
-0.486614
-0.92801
-1.27671
-1.52486
-1.6702
-1.70649
-1.63497
-1.46605
-1.21899
-0.922136
-0.613777
-0.340996
-0.150874
-0.117255
14.2738
12.8643
11.4613
10.1877
9.10047
8.16062
7.30911
6.50664
5.73401
4.98448
4.25545
3.54498
2.85434
2.18902
1.56108
0.985939
0.473373
0.0304151
-0.331961
-0.601197
-0.775907
-0.860818
-0.858114
-0.776432
-0.632816
-0.452132
-0.266377
-0.112354
-0.0237452
-0.0448003
15.5975
14.2891
12.9096
11.5975
10.4381
9.41621
8.4877
7.62023
6.79663
6.00948
5.25478
4.52892
3.83106
3.16452
2.53738
1.96049
1.44206
0.987717
0.605146
0.304419
0.0861283
-0.0557459
-0.125495
-0.131613
-0.0887992
-0.0173535
0.0570223
0.106549
0.107828
0.034575
16.6999
15.4947
14.1701
12.8658
11.6807
10.616
9.63973
8.72725
7.86529
7.04741
6.26924
5.5265
4.81735
4.14362
3.51041
2.92521
2.39445
1.92152
1.51125
1.1719
0.904838
0.70359
0.561207
0.469183
0.417108
0.390288
0.366413
0.3232
0.244951
0.116697
17.6395
16.5308
15.2742
14.004
12.8246
11.746
10.7452
9.80489
8.9163
8.07465
7.27595
6.5161
5.79298
5.10741
4.46248
3.86305
3.31418
2.81861
2.37803
1.99655
1.67697
1.41578
1.20482
1.03352
0.893751
0.77653
0.663415
0.536117
0.383616
0.197039
18.4467
17.4242
16.2393
15.0182
13.8646
12.7933
11.7875
10.8348
9.93043
9.07193
8.25653
7.48082
6.74281
6.04285
5.38283
4.76566
4.1945
3.67203
3.19951
2.77711
2.40538
2.0837
1.80693
1.56407
1.34639
1.14649
0.9496
0.743304
0.520609
0.273554
19.1407
18.1948
17.0816
15.9172
14.8008
13.7504
12.7535
11.8015
10.8918
10.0238
9.1965
8.40755
7.6555
6.94052
6.26382
5.62713
5.03225
4.48083
3.97425
3.51231
3.09259
2.71279
2.3715
2.06183
1.77447
1.50086
1.228
0.947079
0.654678
0.344526
19.7357
18.8582
17.814
16.709
15.6369
14.6161
13.6374
12.6951
11.7886
10.9185
10.0848
9.28645
8.52267
7.79371
7.10044
6.44391
5.82515
5.24494
4.70387
4.20221
3.7376
3.30557
2.90502
2.53306
2.18035
1.83752
1.49539
1.14687
0.787026
0.41047
20.2437
19.4275
18.4481
17.4024
16.3775
15.3919
14.4382
13.5123
12.6152
11.7489
10.9142
10.1108
9.33853
8.59774
7.88927
7.21386
6.5721
5.96436
5.39061
4.85065
4.34266
3.86236
3.40817
2.9791
2.56577
2.1576
1.74971
1.33791
0.91496
0.472856
20.675
19.9143
18.9952
18.0063
17.0292
16.0816
15.157
14.2524
13.3699
12.5123
11.6812
10.8769
10.0995
9.34955
8.62803
7.93554
7.27249
6.63901
6.0349
5.45946
4.91091
4.38556
3.88156
3.39867
2.92876
2.46162
1.99371
1.52064
1.03496
0.531696
21.04
20.3291
19.4653
18.5301
17.5996
16.6907
15.7976
14.9176
14.0532
13.2082
12.3847
11.5831
10.8037
10.0475
9.31539
8.60809
7.9259
7.26889
6.63671
6.02854
5.44282
4.87667
4.32812
3.79538
3.27095
2.74871
2.22649
1.69668
1.15088
0.588911
21.3484
20.6818
19.8683
18.9828
18.0968
17.2261
16.3651
15.5113
14.6676
13.8381
13.0251
12.2291
11.4507
10.6909
9.9509
9.23129
8.53248
7.8545
7.19697
6.55907
5.93927
5.33535
4.74613
4.16836
3.59414
3.0213
2.4482
1.86449
1.26252
0.643535
21.6072
20.9803
20.2123
19.3726
18.5285
17.6944
16.8651
16.0383
15.2166
14.4043
13.604
12.816
12.041
11.2801
10.5346
9.80524
9.09239
8.39615
7.71617
7.05168
6.40134
5.76322
5.13594
4.51586
3.8966
3.27757
2.65617
2.02151
1.36687
0.693682
21.8248
21.2324
20.5051
19.7072
18.9017
18.1022
17.3036
16.5033
15.704
14.91
14.1236
13.3453
12.5756
11.8157
11.067
10.3303
9.60587
8.89399
8.19435
7.50625
6.82851
6.15947
5.49731
4.83882
4.17928
3.51729
2.85042
2.16926
1.46563
0.740607
22.0074
21.445
20.7538
19.9936
19.2233
18.4559
17.686
16.9113
16.134
15.3584
14.5866
13.819
13.056
12.2988
11.5488
10.8068
10.0731
9.34811
8.63149
7.92266
7.22061
6.52376
5.83022
5.13763
4.4422
3.74049
3.03001
2.30481
1.55665
0.784201
22.1598
21.6234
20.9642
20.2376
19.4992
18.7609
18.0178
17.267
16.5108
15.7531
14.996
14.2395
13.4841
12.7309
11.9812
11.2356
10.4949
9.75907
9.02807
8.30137
7.57808
6.85647
6.13501
5.41149
4.68321
3.94666
3.1969
2.42957
1.63995
0.824684
22.2862
21.7722
21.1408
20.4439
19.7339
19.0219
18.303
17.5744
16.8379
16.0972
15.3542
14.6089
13.8614
13.113
12.3646
11.6171
10.871
10.1264
9.38336
8.64134
7.89935
7.15581
6.40961
5.6586
4.90073
4.13303
3.3493
2.54453
1.71587
0.860849
22.3916
21.8965
21.289
20.6179
19.9327
19.2439
18.5467
17.8379
17.1194
16.3944
15.6647
14.9301
14.1906
13.4474
12.7012
11.953
11.203
10.4516
9.69864
8.94368
8.18565
7.42341
6.65594
5.88123
5.09694
4.30009
3.48585
2.64907
1.7858
0.893957
22.4779
21.9983
21.4109
20.7618
20.098
19.4293
18.7508
18.0596
17.3569
16.6459
15.9282
15.2034
14.4715
13.7333
12.9898
12.2415
11.4888
10.7319
9.9708
9.20499
8.43321
7.65492
6.86904
6.07368
5.26638
4.44464
3.60412
2.73834
1.84386
0.920665
22.5499
22.0826
21.5119
20.8813
20.2354
19.5836
18.9212
18.2449
17.556
16.8572
16.1501
15.434
14.7091
13.9758
13.2351
12.4874
11.7331
10.9722
10.2047
9.42992
8.64693
7.85551
7.0544
6.24174
5.41505
4.57242
3.70993
2.81942
1.89758
0.946051
22.6057
22.1475
21.5898
20.9739
20.3423
19.7042
19.0546
18.3905
17.7126
17.0238
16.3252
15.6163
14.897
14.1679
13.4296
12.6824
11.9268
11.1627
10.3899
9.60773
8.81589
8.0139
7.20046
6.37373
5.53127
4.67114
3.78979
2.87961
1.93674
0.962812
22.6542
22.2022
21.6543
21.0499
20.4296
19.802
19.1626
18.5079
17.8389
17.1579
16.4661
15.7631
15.0486
14.323
13.5868
12.8405
12.0842
11.3179
10.5412
9.75359
8.95528
8.14537
7.32253
6.48496
5.63034
4.75636
3.85956
2.93353
1.97373
0.979498
22.6828
22.2331
21.6911
21.0943
20.4815
19.8608
19.2277
18.5792
17.9157
17.2396
16.5521
15.8526
15.1409
14.4173
13.6824
12.9364
12.1796
11.4119
10.633
9.84272
9.04067
8.22594
7.39715
6.55252
5.68975
4.80637
3.89888
2.96145
1.98946
0.982047
22.7181
22.2647
21.7257
21.1341
20.5261
19.9094
19.2801
18.635
17.9745
17.3011
16.6158
15.9179
15.2074
14.4845
13.7495
13.0028
12.2442
11.474
10.6926
9.90015
9.09578
8.27843
7.44667
6.59861
5.73191
4.84378
3.93037
2.98588
2.00417
0.97798
)
;

boundaryField
{
    inlet
    {
        type            zeroGradient;
    }
    outlet
    {
        type            fixedValue;
        value           uniform 0;
    }
    flap
    {
        type            zeroGradient;
    }
    upperWall
    {
        type            zeroGradient;
    }
    lowerWall
    {
        type            zeroGradient;
    }
    frontAndBack
    {
        type            empty;
    }
}


// ************************************************************************* //
