/*--------------------------------*- C++ -*----------------------------------*\
| =========                 |                                                 |
| \\      /  F ield         | OpenFOAM: The Open Source CFD Toolbox           |
|  \\    /   O peration     | Version:  dev                                   |
|   \\  /    A nd           | Web:      www.OpenFOAM.org                      |
|    \\/     M anipulation  |                                                 |
\*---------------------------------------------------------------------------*/
FoamFile
{
    version     2.0;
    format      ascii;
    class       surfaceVectorField;
    location    "1.52";
    object      Uf;
}
// * * * * * * * * * * * * * * * * * * * * * * * * * * * * * * * * * * * * * //

dimensions      [0 1 -1 0 0 0 0];

internalField   nonuniform List<vector> 
5457
(
(9.91619 -1.22782e-20 0.0200335)
(9.97107 2.37592e-20 0.0344142)
(9.83207 -1.1759e-20 0.0241921)
(9.93862 2.48456e-20 0.0356245)
(9.74403 -1.70472e-21 0.0271422)
(9.88928 -1.57423e-21 0.0387525)
(9.64927 1.42798e-22 0.0301867)
(9.82742 -1.66764e-21 0.0433718)
(9.54749 -3.91128e-21 0.0332883)
(9.75724 1.7414e-21 0.0484024)
(9.43878 -7.35674e-21 0.0364536)
(9.67956 -5.52217e-21 0.0536782)
(9.32294 2.29053e-21 0.039797)
(9.59405 -9.64702e-21 0.0593559)
(9.19947 -4.66141e-21 0.0434412)
(9.50006 4.09465e-21 0.0656346)
(9.06761 -1.29158e-20 0.0474881)
(9.39679 3.41762e-20 0.0726846)
(8.92648 -4.396e-21 0.0520324)
(9.28366 -2.22791e-20 0.0806476)
(8.77507 1.03204e-20 0.0571842)
(9.15988 -2.84718e-20 0.0896814)
(8.61218 1.92402e-21 0.0630791)
(9.02435 2.98707e-20 0.0999956)
(8.43639 6.67378e-21 0.0698801)
(8.87579 -5.23672e-21 0.111846)
(8.24605 -1.03137e-20 0.0777812)
(8.71276 1.1363e-20 0.125538)
(8.03922 -1.06436e-20 0.0870141)
(8.53355 -2.37406e-20 0.141431)
(7.81368 -1.19013e-20 0.0978564)
(8.33614 1.24261e-20 0.159956)
(7.56686 1.24018e-20 0.110645)
(8.11822 -2.69699e-20 0.18162)
(7.29582 3.44187e-20 0.125795)
(7.87709 1.41197e-19 0.207032)
(6.9972 0 0.143813)
(7.60966 -1.16791e-19 0.236927)
(6.66717 1.72729e-20 0.165322)
(7.31239 1.27675e-19 0.27218)
(6.30132 7.31913e-20 0.191107)
(6.98117 -1.64353e-19 0.313822)
(5.89461 1.68065e-20 0.222164)
(6.6112 7.30239e-20 0.363094)
(5.44132 -1.62574e-19 0.259772)
(6.19696 5.73325e-22 0.421472)
(4.93488 -3.63496e-20 0.305674)
(5.732 -5.95035e-21 0.490705)
(4.36754 2.25755e-19 0.362462)
(5.20854 8.50953e-20 0.573014)
(3.72944 -4.87149e-20 0.434299)
(4.6169 9.37778e-20 0.671493)
(3.0068 -1.87667e-19 0.528969)
(3.94395 -1.87745e-19 0.790754)
(2.17691 2.97977e-19 0.666515)
(3.1703 9.58285e-19 0.938595)
(1.18478 -6.40874e-20 0.909599)
(2.2425 -3.81765e-19 1.13554)
(1.36612 -4.29689e-19 1.40662)
(10.0101 6.0772e-20 0.0377896)
(10.003 4.67158e-20 0.0302084)
(9.99448 3.43256e-20 0.0461876)
(10.0006 6.08221e-20 0.0421344)
(9.96844 -1.53924e-21 0.0525576)
(9.98443 -5.18954e-20 0.0500957)
(9.93312 0 0.0596628)
(9.95575 0 0.0593933)
(9.88827 -3.52648e-23 0.0673613)
(9.91765 6.98157e-21 0.0695869)
(9.83389 -7.89826e-21 0.0755827)
(9.87107 -7.3091e-21 0.0803789)
(9.7699 -7.57006e-21 0.0845491)
(9.81588 7.61711e-21 0.0919894)
(9.69596 4.35097e-20 0.0945426)
(9.75158 0 0.104791)
(9.61146 2.36946e-20 0.105805)
(9.6775 2.5706e-20 0.119124)
(9.51564 -4.64737e-20 0.118565)
(9.59317 -1.78012e-20 0.13527)
(9.40761 -7.80444e-21 0.133099)
(9.49789 -1.90624e-20 0.153555)
(9.28628 2.20428e-20 0.149752)
(9.39065 -1.03445e-20 0.174395)
(9.15034 -2.55442e-22 0.168942)
(9.27035 -3.40528e-21 0.19829)
(8.99827 -2.72524e-21 0.191168)
(9.13571 4.63648e-20 0.225839)
(8.82826 0 0.217027)
(8.98521 -9.4151e-20 0.25777)
(8.63819 -3.34751e-21 0.247224)
(8.81706 9.73201e-20 0.294946)
(8.4256 1.04723e-19 0.282608)
(8.62919 -3.28991e-21 0.338399)
(8.18762 -1.46187e-20 0.324202)
(8.41916 1.06115e-19 0.389372)
(7.92094 1.49211e-20 0.373246)
(8.18414 -8.76925e-20 0.449384)
(7.62169 -5.89894e-20 0.43121)
(7.92085 1.27586e-19 0.520273)
(7.28534 -1.60641e-19 0.499878)
(7.62546 1.181e-19 0.60425)
(6.90651 5.5099e-20 0.581443)
(7.29333 2.99751e-19 0.704033)
(6.47879 1.57167e-19 0.678594)
(6.91904 -3.99846e-19 0.823002)
(5.99437 1.17562e-19 0.794789)
(6.49582 1.1627e-19 0.965337)
(5.44331 -4.36042e-20 0.935028)
(6.01496 -6.60685e-19 1.13661)
(4.81181 -4.29243e-20 1.10746)
(5.46526 8.81475e-19 1.34512)
(4.07891 9.5526e-19 1.32745)
(4.83102 0 1.60443)
(3.2064 3.47435e-19 1.6261)
(4.08561 2.20885e-18 1.94153)
(2.14323 -6.22857e-19 2.16836)
(3.21486 -2.04211e-18 2.39586)
(2.0909 2.79923e-18 3.28464)
(10.0033 4.68541e-20 0.0370448)
(10.0008 -2.29039e-20 0.0288785)
(9.99172 -2.8095e-20 0.0492909)
(9.99599 -2.40066e-20 0.0470742)
(9.96938 -4.9206e-20 0.0598165)
(9.98102 -5.64649e-20 0.0599929)
(9.93878 7.13198e-21 0.0714819)
(9.95514 6.58072e-21 0.073481)
(9.89993 -5.98104e-22 0.0842655)
(9.9204 3.46821e-20 0.0881668)
(9.85265 8.54636e-21 0.0980746)
(9.87775 7.35905e-21 0.103842)
(9.79684 1.50573e-20 0.113182)
(9.82722 -1.50431e-20 0.120729)
(9.73221 -1.7312e-20 0.12999)
(9.76834 1.61203e-20 0.139304)
(9.65829 -1.66596e-20 0.14888)
(9.70056 -5.07316e-20 0.160047)
(9.57442 9.58325e-21 0.170234)
(9.62351 -1.774e-20 0.183391)
(9.47979 -2.14069e-20 0.1945)
(9.53661 2.80689e-20 0.209824)
(9.37343 -3.55889e-20 0.222228)
(9.43898 -3.9955e-20 0.239923)
(9.25426 4.41958e-20 0.254084)
(9.32972 -1.63557e-20 0.274379)
(9.12101 -4.75423e-20 0.290881)
(9.20776 4.36627e-20 0.314039)
(8.97215 6.68052e-21 0.333598)
(9.07188 -9.98978e-20 0.359944)
(8.80592 9.56441e-20 0.383401)
(8.92067 -1.60023e-21 0.413331)
(8.62026 0 0.441697)
(8.75245 1.0172e-19 0.475685)
(8.41276 2.95193e-20 0.510199)
(8.56528 -2.20222e-19 0.548815)
(8.18059 2.85699e-20 0.591004)
(8.35695 2.27094e-19 0.634946)
(7.92045 3.03614e-19 0.686654)
(8.12485 0 0.736814)
(7.62843 5.80432e-19 0.800256)
(7.866 2.98673e-19 0.857771)
(7.29974 -1.6322e-19 0.935733)
(7.57664 2.81367e-19 1.00203)
(6.9284 -4.31335e-19 1.09807)
(7.25258 -9.40154e-19 1.17505)
(6.50667 -6.67174e-19 1.29375)
(6.8883 5.1259e-19 1.38391)
(6.0244 2.67159e-19 1.53208)
(6.47629 -6.56635e-19 1.63808)
(5.46737 9.1813e-19 1.82804)
(6.00726 7.49782e-19 1.95187)
(4.81512 1.24561e-18 2.21028)
(5.47051 -1.32107e-18 2.34817)
(4.02082 1.12019e-19 2.71021)
(4.82908 1.23588e-18 2.87935)
(3.17625 1.59548e-18 3.5575)
(4.23534 -9.96622e-20 3.4979)
(2.91006 3.05051e-18 5.00469)
(9.99851 -9.38099e-20 0.0393405)
(9.9993 -4.58963e-20 0.0295063)
(9.98714 -5.31439e-20 0.0570839)
(9.99242 4.73485e-20 0.0519418)
(9.96542 6.40561e-22 0.0728237)
(9.97702 4.39229e-20 0.0696372)
(9.93545 3.47374e-20 0.0892795)
(9.95176 6.58286e-21 0.0873086)
(9.89765 4.20686e-20 0.106889)
(9.91797 6.40157e-23 0.106279)
(9.85192 -1.67118e-20 0.125753)
(9.87653 1.46404e-20 0.126592)
(9.79808 -1.33917e-20 0.146251)
(9.82755 6.11343e-20 0.148511)
(9.73589 -1.85918e-20 0.168909)
(9.77063 -7.99344e-20 0.172592)
(9.66496 -5.11901e-20 0.194247)
(9.70524 3.33166e-20 0.199406)
(9.5848 1.59722e-21 0.222804)
(9.63113 -3.91933e-22 0.229498)
(9.49477 8.28266e-21 0.255196)
(9.54784 3.69479e-20 0.263496)
(9.39409 -2.02104e-20 0.292143)
(9.4547 -8.86793e-20 0.302131)
(9.28188 -1.57342e-20 0.334512)
(9.35092 8.15144e-20 0.346246)
(9.15713 -1.12289e-20 0.383374)
(9.23567 -5.47819e-21 0.396888)
(9.01869 -1.0625e-19 0.44002)
(9.10801 8.0809e-20 0.455337)
(8.8652 6.31531e-21 0.505996)
(8.96691 7.31752e-22 0.523125)
(8.69514 -1.23766e-19 0.58317)
(8.81115 -1.02075e-19 0.602093)
(8.50674 -1.52413e-20 0.673838)
(8.63933 -2.20112e-19 0.694497)
(8.29797 1.94952e-19 0.780835)
(8.44994 -2.28844e-21 0.803124)
(8.06644 0 0.907679)
(8.24129 2.34707e-19 0.931432)
(7.80939 0 1.05874)
(8.01149 0 1.08373)
(7.52354 -5.11384e-19 1.23964)
(7.75817 6.48781e-20 1.26545)
(7.20483 1.63076e-20 1.45784)
(7.47896 -5.03891e-19 1.48381)
(6.84773 5.08989e-19 1.7232)
(7.17114 5.11458e-19 1.74858)
(6.44514 -1.63695e-19 2.04961)
(6.83096 1.4505e-19 2.07278)
(5.98806 -1.47208e-18 2.45804)
(6.45402 -1.22766e-18 2.47529)
(5.47009 -1.34598e-18 2.98884)
(6.04379 5.14721e-20 2.98221)
(4.82886 7.64498e-19 3.65197)
(5.53263 -4.63649e-21 3.6816)
(4.3778 1.53766e-18 4.6776)
(5.37108 1.21145e-18 4.28708)
(3.87661 4.61152e-19 6.32827)
(9.99593 9.71791e-20 0.0425622)
(9.99854 -9.08092e-20 0.0311913)
(9.98397 1.44353e-19 0.0645535)
(9.9903 -9.47207e-20 0.0570633)
(9.96263 4.9024e-20 0.0844867)
(9.97445 3.7638e-20 0.0791185)
(9.93319 -2.82533e-20 0.104925)
(9.94968 -7.72756e-23 0.100903)
(9.89624 -2.70883e-20 0.126707)
(9.9168 -6.89051e-20 0.124003)
(9.85173 9.34365e-20 0.150139)
(9.87655 -5.76771e-20 0.148753)
(9.79947 -8.24172e-21 0.17569)
(9.82904 -2.97615e-20 0.175512)
(9.7392 -2.5818e-20 0.203955)
(9.77391 -6.42192e-20 0.204894)
(9.6706 8.35364e-20 0.235532)
(9.71078 3.39082e-20 0.237534)
(9.59328 3.57152e-20 0.271065)
(9.63937 -1.77953e-20 0.274054)
(9.50674 -6.23136e-20 0.311303)
(9.55935 1.82854e-20 0.315203)
(9.41034 1.61835e-20 0.357104)
(9.47023 -7.88589e-20 0.361848)
(9.30338 9.02723e-20 0.409487)
(9.37132 9.19032e-20 0.414975)
(9.18506 8.80485e-20 0.469704)
(9.26192 8.64041e-20 0.47578)
(9.05453 1.86321e-19 0.539275)
(9.14137 -1.73213e-19 0.54571)
(8.91087 -1.09263e-19 0.620027)
(9.00901 2.87325e-19 0.62651)
(8.75301 -2.00501e-19 0.714179)
(8.86406 -4.03632e-19 0.720313)
(8.57979 -2.03225e-19 0.824454)
(8.70563 2.01003e-19 0.829701)
(8.39 4.06962e-20 0.954223)
(8.53287 -2.14148e-19 0.957849)
(8.18233 2.31284e-19 1.10772)
(8.34498 2.62988e-19 1.10873)
(7.95528 6.55944e-20 1.29027)
(8.14127 2.99772e-20 1.28736)
(7.70733 6.40619e-20 1.50873)
(7.92098 5.12132e-19 1.50007)
(7.43705 0 1.77238)
(7.6836 -1.11842e-18 1.75514)
(7.14289 1.45165e-19 2.09374)
(7.42978 5.40003e-19 2.06407)
(6.82336 -9.14912e-19 2.48982)
(7.16104 -1.18377e-18 2.44215)
(6.47774 2.09497e-19 2.98364)
(6.87909 -8.06447e-20 2.91069)
(6.12348 1.36971e-18 3.62197)
(6.60946 2.22624e-18 3.48927)
(5.66433 -1.63606e-20 4.37232)
(6.22161 -1.09755e-18 4.32118)
(5.62943 1.09736e-19 5.39881)
(6.54629 -4.36117e-19 4.73887)
(4.91506 1.60758e-18 7.18543)
(9.99452 -2.82831e-19 0.046254)
(9.99817 9.30432e-20 0.0334523)
(9.98199 -1.98458e-19 0.0719595)
(9.98913 -9.82708e-20 0.0624261)
(9.96108 -1.23019e-20 0.0959178)
(9.97304 -1.2512e-20 0.0884167)
(9.9324 -4.2206e-20 0.120411)
(9.94883 1.30085e-20 0.11416)
(9.89649 -9.92791e-20 0.146447)
(9.91701 -5.91716e-23 0.141244)
(9.85337 -1.80374e-19 0.174491)
(9.87813 5.72086e-20 0.170251)
(9.80285 -8.64505e-20 0.205074)
(9.83228 -3.07577e-20 0.201652)
(9.74471 -2.58974e-21 0.238838)
(9.7792 9.52467e-20 0.236101)
(9.67872 -6.84274e-20 0.276442)
(9.71859 -3.38137e-20 0.274282)
(9.60454 -3.45196e-20 0.318614)
(9.65022 -6.98631e-22 0.316894)
(9.5218 0 0.366225)
(9.57378 0 0.36477)
(9.42999 0 0.420275)
(9.489 0 0.418911)
(9.3285 8.79084e-20 0.481914)
(9.39534 -4.0079e-20 0.48045)
(9.21671 -1.79312e-19 0.552513)
(9.29223 8.64464e-20 0.550672)
(9.09411 -6.46919e-20 0.633744)
(9.17924 -2.81958e-19 0.631099)
(8.96017 -1.83646e-20 0.727655)
(9.05596 1.87707e-19 0.723624)
(8.81429 7.19142e-21 0.836744)
(8.92208 -1.9833e-19 0.830602)
(8.65588 1.83716e-19 0.964037)
(8.77723 2.07363e-19 0.954862)
(8.48445 1.51471e-20 1.11327)
(8.62116 -4.61331e-19 1.09982)
(8.29974 5.8585e-20 1.28913)
(8.45391 4.45194e-19 1.26975)
(8.10166 4.81461e-19 1.49756)
(8.27589 2.38537e-22 1.47007)
(7.89044 -6.79678e-19 1.7462)
(8.08802 4.7606e-19 1.70764)
(7.66729 -5.72522e-19 2.04519)
(7.89177 -1.018e-18 1.99128)
(7.43499 -7.85484e-19 2.40825)
(7.69089 5.36282e-19 2.33291)
(7.19887 -3.86967e-19 2.85348)
(7.49212 -2.28149e-18 2.74824)
(6.96641 1.86122e-18 3.40126)
(7.30223 1.98715e-18 3.25925)
(6.78205 -2.92108e-19 4.09964)
(7.1751 1.74678e-18 3.86853)
(6.50186 -1.54306e-18 4.86564)
(6.89044 -1.91354e-18 4.79707)
(6.79281 1.25056e-18 5.74619)
(7.66385 -1.02594e-18 4.91062)
(5.91254 2.92667e-18 7.61284)
(9.99379 2.73847e-19 0.0502349)
(9.99803 1.83693e-19 0.036012)
(9.98094 8.96878e-20 0.0793536)
(9.98859 -2.16558e-21 0.0679275)
(9.9605 1.33777e-20 0.107101)
(9.97251 9.872e-20 0.097511)
(9.93273 5.48899e-20 0.135477)
(9.94898 -7.75286e-20 0.127011)
(9.89804 1.57668e-19 0.165556)
(9.91835 3.05051e-22 0.157916)
(9.85652 2.05172e-19 0.197946)
(9.88104 8.62113e-20 0.19098)
(9.80801 1.53479e-19 0.233257)
(9.83711 9.07405e-20 0.226795)
(9.75232 6.15538e-20 0.272178)
(9.78638 -6.26901e-20 0.26605)
(9.68926 3.46321e-20 0.31543)
(9.72862 -1.08282e-21 0.309476)
(9.61854 3.38663e-20 0.363811)
(9.66363 6.84389e-20 0.357841)
(9.53993 0 0.418274)
(9.59117 7.185e-20 0.412015)
(9.45312 -4.07819e-20 0.479959)
(9.51108 0 0.473072)
(9.3577 -3.94167e-20 0.550144)
(9.42312 1.20358e-19 0.542307)
(9.2532 -2.24315e-20 0.630272)
(9.32695 -1.23864e-19 0.621101)
(9.1393 -2.17187e-20 0.722077)
(9.2223 2.15541e-20 0.711016)
(9.01579 1.56023e-21 0.827738)
(9.10891 1.84343e-19 0.814008)
(8.88256 8.05985e-21 0.949936)
(8.98682 -1.88183e-19 0.932538)
(8.73959 -4.46875e-19 1.09189)
(8.85621 6.45071e-21 1.06959)
(8.5871 -2.07214e-20 1.25752)
(8.71747 -3.25771e-20 1.22871)
(8.42571 3.81638e-19 1.45176)
(8.57134 -1.50076e-20 1.41431)
(8.25669 9.19205e-22 1.68083)
(8.4193 -3.64915e-20 1.63192)
(8.08212 1.24793e-19 1.95263)
(8.26371 2.90702e-22 1.88851)
(7.90575 9.40717e-20 2.2774)
(8.10808 6.37913e-20 2.19285)
(7.73416 -9.62527e-19 2.66849)
(7.95893 9.62644e-19 2.55643)
(7.57873 1.5806e-20 3.14307)
(7.82724 -1.92323e-18 2.99374)
(7.45288 1.87627e-18 3.71588)
(7.72199 1.01758e-18 3.52654)
(7.42526 -1.85997e-19 4.43158)
(7.7281 9.63316e-19 4.13263)
(7.30989 -1.55354e-18 5.16524)
(7.52807 -8.25386e-19 5.12162)
(7.76485 5.79245e-18 5.83307)
(8.65797 -1.51172e-18 4.90517)
(6.78808 1.98181e-18 7.71664)
(9.99348 -9.61854e-20 0.0543497)
(9.99801 -9.00915e-20 0.0387)
(9.98058 9.14055e-21 0.0866623)
(9.98847 -1.19397e-20 0.0734489)
(9.96074 3.93767e-21 0.117954)
(9.97265 1.25017e-20 0.106349)
(9.93403 -1.30526e-19 0.150012)
(9.94998 1.27641e-20 0.139384)
(9.90078 -6.94375e-20 0.18393)
(9.92072 -4.09394e-20 0.173921)
(9.86109 -2.8206e-20 0.220441)
(9.88519 -2.87871e-20 0.210826)
(9.81485 -1.28513e-19 0.260233)
(9.84343 0 0.250801)
(9.76193 -1.24175e-19 0.304036)
(9.79534 -1.26135e-19 0.294577)
(9.70215 3.40736e-20 0.352625)
(9.74076 6.50924e-20 0.342921)
(9.63532 1.06549e-19 0.406845)
(9.67956 -3.37787e-20 0.396661)
(9.56125 7.06305e-20 0.467678)
(9.61164 8.32052e-22 0.456694)
(9.47985 1.63213e-19 0.536336)
(9.53678 1.8794e-19 0.524094)
(9.391 3.18708e-20 0.614229)
(9.45494 4.43243e-20 0.600237)
(9.29447 -7.76048e-20 0.702888)
(9.36617 -3.30194e-19 0.686642)
(9.19008 2.30163e-19 0.80409)
(9.27036 1.9219e-19 0.784944)
(9.07783 -1.07203e-20 0.920051)
(9.1675 1.84439e-19 0.897118)
(8.95799 -1.87096e-19 1.0535)
(9.05787 -1.89782e-19 1.02561)
(8.83112 4.19565e-19 1.20774)
(8.94211 -2.41066e-20 1.17341)
(8.69813 -2.50537e-20 1.38677)
(8.82117 8.27739e-19 1.34411)
(8.56051 -4.33506e-19 1.59556)
(8.69655 -1.26858e-18 1.5421)
(8.42065 -3.65714e-20 1.84027)
(8.5706 -4.14611e-21 1.77279)
(8.28236 -5.96752e-20 2.12851)
(8.447 3.89535e-19 2.04289)
(8.15159 9.30341e-19 2.46998)
(8.33097 -3.00646e-20 2.36062)
(8.03803 3.0069e-20 2.87677)
(8.23107 5.52254e-20 2.73644)
(7.95756 -9.69127e-19 3.36376)
(8.16173 -8.48685e-19 3.18272)
(7.92664 1.12564e-19 3.93828)
(8.13139 3.7184e-21 3.72069)
(8.02875 1.17686e-19 4.63866)
(8.25321 -2.51537e-19 4.30127)
(8.07138 -7.26386e-19 5.31245)
(8.12697 -1.12904e-18 5.30846)
(8.53126 4.6735e-18 5.80411)
(9.4992 7.8597e-19 4.82419)
(7.54442 -4.772e-19 7.58685)
(9.9934 -4.25282e-21 0.0584798)
(9.99806 -8.98414e-20 0.0414185)
(9.98071 -7.99697e-21 0.0937955)
(9.98861 8.21169e-20 0.0788856)
(9.96164 2.13303e-20 0.128393)
(9.97327 -9.85665e-20 0.114856)
(9.93619 1.01277e-19 0.163923)
(9.95164 2.18694e-19 0.151192)
(9.90459 0 0.201472)
(9.92392 -1.07338e-19 0.189156)
(9.86697 0 0.241866)
(9.89034 1.40711e-19 0.229674)
(9.82328 0 0.285858)
(9.85098 2.9868e-20 0.273539)
(9.77343 6.68345e-20 0.334216)
(9.80579 -6.1478e-20 0.321521)
(9.71735 -4.57554e-21 0.387752)
(9.7547 6.56525e-20 0.374402)
(9.65495 -1.38949e-19 0.447361)
(9.69766 -6.77824e-20 0.43305)
(9.58608 1.21331e-19 0.514048)
(9.63472 7.09217e-20 0.498432)
(9.51066 6.66422e-20 0.589032)
(9.56564 4.32725e-21 0.571637)
(9.42876 -3.24073e-19 0.673776)
(9.49041 -1.16388e-19 0.654011)
(9.34048 -5.22801e-20 0.769902)
(9.40937 -2.46447e-19 0.747116)
(9.24595 1.46425e-19 0.879244)
(9.32271 1.06989e-19 0.852659)
(9.14544 0 1.00402)
(9.2307 0 0.972638)
(9.03951 -2.44238e-20 1.1469)
(9.13395 -4.51343e-20 1.10946)
(8.92919 3.94617e-19 1.31116)
(9.03343 -2.43722e-22 1.266)
(8.81602 -4.35502e-19 1.50072)
(8.93055 4.13537e-19 1.44577)
(8.70228 -8.29952e-19 1.72037)
(8.82747 -8.37487e-19 1.65297)
(8.59141 4.2039e-19 1.97596)
(8.72736 -4.81412e-20 1.89272)
(8.48853 4.26887e-19 2.2745)
(8.63493 -3.43065e-19 2.17119)
(8.40127 -8.852e-19 2.62468)
(8.55682 8.46776e-19 2.49586)
(8.34138 -8.0162e-19 3.03674)
(8.5028 -7.06707e-20 2.87575)
(8.32787 1.09232e-19 3.52279)
(8.48976 -8.16674e-19 3.32059)
(8.37867 -3.47987e-19 4.08261)
(8.52433 -7.25322e-19 3.85091)
(8.5787 -1.43605e-18 4.74687)
(8.74064 1.91211e-18 4.3944)
(8.77202 -2.09614e-18 5.33973)
(8.68429 -1.66183e-18 5.3724)
(9.15909 -4.21917e-18 5.73051)
(10.1789 1.56714e-18 4.72783)
(8.21598 -1.01929e-18 7.27985)
(9.99347 0 0.0625448)
(9.99817 1.76832e-19 0.0441059)
(9.98116 -1.25363e-20 0.100679)
(9.98894 0 0.0841644)
(9.96299 1.05773e-19 0.138345)
(9.97423 8.47052e-20 0.122974)
(9.93893 3.1896e-21 0.177121)
(9.95377 -1.24203e-20 0.162375)
(9.90916 3.84074e-20 0.218076)
(9.92771 2.62459e-20 0.203543)
(9.8738 1.68473e-19 0.262094)
(9.89624 2.87544e-20 0.247432)
(9.83287 -3.33889e-20 0.309985)
(9.85945 -8.67476e-20 0.294905)
(9.78633 -6.03815e-20 0.362535)
(9.81736 -1.22971e-19 0.34676)
(9.73421 0 0.420578)
(9.76996 1.27309e-19 0.403779)
(9.67651 1.44606e-19 0.485061)
(9.71728 -6.70902e-20 0.466862)
(9.61318 -4.71939e-20 0.557038)
(9.65951 2.11586e-19 0.537042)
(9.54419 -1.80932e-19 0.63772)
(9.59648 -1.10158e-19 0.615442)
(9.4697 -4.06597e-20 0.72854)
(9.52824 -3.78713e-19 0.703356)
(9.39003 -8.17938e-20 0.831136)
(9.45532 3.15672e-19 0.802293)
(9.30565 -4.11417e-20 0.947369)
(9.37811 -1.63836e-19 0.913966)
(9.21715 -4.57485e-20 1.07944)
(9.29722 -3.4358e-19 1.04038)
(9.12542 -2.04575e-20 1.22995)
(9.21356 7.08068e-19 1.18387)
(9.03188 2.35871e-20 1.40198)
(9.12843 -3.86115e-19 1.34718)
(8.93856 0 1.59925)
(9.04365 0 1.53358)
(8.84838 -5.12584e-20 1.82623)
(8.96184 0 1.747)
(8.76568 -8.14716e-19 2.08825)
(8.88681 9.63461e-20 1.99206)
(8.69663 7.65477e-20 2.39168)
(8.82405 -8.11409e-19 2.27432)
(8.65006 1.67224e-18 2.74387)
(8.78135 8.45411e-19 2.60033)
(8.63887 -5.50628e-20 3.15294)
(8.7692 8.25996e-19 2.97761)
(8.6836 -1.64915e-18 3.62818)
(8.80593 -9.20143e-19 3.4131)
(8.80368 1.28402e-18 4.1632)
(8.89624 -1.04787e-18 3.92594)
(9.07364 1.51822e-18 4.77982)
(9.18547 2.15584e-18 4.42817)
(9.39483 -5.90034e-19 5.27869)
(9.19718 -9.97027e-19 5.33681)
(9.69434 0 5.5965)
(10.7111 0 4.6362)
(8.81742 -9.70626e-20 6.88848)
(9.99368 1.73323e-19 0.0664844)
(9.99833 -5.03979e-21 0.0467101)
(9.98189 9.92008e-20 0.107258)
(9.98944 -1.77738e-19 0.0892245)
(9.96471 -3.56318e-20 0.147763)
(9.97549 1.23947e-20 0.130661)
(9.94214 1.14416e-20 0.189553)
(9.9563 -1.40436e-19 0.17289)
(9.9143 1.66594e-20 0.233674)
(9.932 2.8078e-20 0.217028)
(9.88135 -2.28935e-19 0.281048)
(9.90275 -2.22776e-19 0.264032)
(9.84332 -1.77141e-19 0.332524)
(9.86866 -5.37911e-22 0.31482)
(9.80026 6.93645e-20 0.388898)
(9.82984 -1.82173e-19 0.370208)
(9.75225 5.68461e-20 0.451011)
(9.78627 1.27532e-19 0.430973)
(9.69938 4.56724e-21 0.519852)
(9.73806 -9.44311e-22 0.498029)
(9.64172 1.43384e-19 0.596523)
(9.68554 -6.86565e-20 0.572452)
(9.57936 -3.1213e-19 0.682222)
(9.62869 2.88398e-19 0.655396)
(9.51257 -1.20184e-20 0.778318)
(9.56765 -3.78401e-19 0.748094)
(9.44186 2.27082e-19 0.8864)
(9.5031 3.56208e-19 0.851964)
(9.36791 -4.68949e-19 1.00831)
(9.43559 -4.24597e-20 0.968671)
(9.29163 4.22828e-19 1.14619)
(9.36595 -2.61428e-19 1.10019)
(9.21421 3.31236e-19 1.30249)
(9.29548 7.54177e-19 1.24875)
(9.13742 -4.06104e-19 1.4801)
(9.22569 -9.94926e-21 1.41688)
(9.06368 0 1.68245)
(9.15865 -3.62794e-19 1.60762)
(8.99637 1.47966e-19 1.91357)
(9.0975 9.15522e-20 1.82456)
(8.9404 9.60427e-20 2.17814)
(9.04641 -2.30259e-19 2.07168)
(8.90282 -5.06784e-20 2.48167)
(9.01134 -4.27913e-19 2.35371)
(8.89327 0 2.83026)
(9.00083 7.33688e-19 2.67626)
(8.92523 0 3.23002)
(9.02579 -1.08008e-18 3.04554)
(9.01961 -3.15128e-19 3.68751)
(9.1054 1.01501e-18 3.46592)
(9.19731 -4.15796e-19 4.19161)
(9.24279 -1.16823e-20 3.95415)
(9.51518 -8.71487e-19 4.75441)
(9.58459 8.7667e-19 4.41658)
(9.93291 -4.98831e-19 5.16246)
(9.66221 8.20438e-19 5.23091)
(10.1607 -1.14571e-19 5.419)
(11.1301 1.19514e-19 4.55169)
(9.36697 -2.6615e-19 6.50433)
(9.99397 -3.59752e-19 0.0702464)
(9.99852 -1.87567e-19 0.0491913)
(9.98284 -2.60381e-19 0.113481)
(9.99006 -1.59883e-19 0.0940125)
(9.96677 -9.57488e-20 0.156605)
(9.97699 -2.87905e-19 0.137868)
(9.94578 -1.20337e-19 0.201176)
(9.95918 -1.26355e-20 0.182693)
(9.91998 -2.16514e-19 0.248213)
(9.93676 -4.21588e-22 0.22956)
(9.88955 1.00095e-20 0.298658)
(9.9098 -4.9098e-22 0.279418)
(9.85456 -8.84684e-21 0.353397)
(9.87848 2.30795e-19 0.333216)
(9.81512 -1.18523e-19 0.413231)
(9.84302 -1.20009e-19 0.391792)
(9.77132 6.7495e-20 0.478997)
(9.80339 6.73985e-23 0.45593)
(9.72334 -7.53013e-20 0.551689)
(9.75978 -1.29634e-19 0.526513)
(9.67144 8.19261e-20 0.632442)
(9.71258 -7.14742e-20 0.604611)
(9.61584 2.12088e-19 0.722442)
(9.66199 2.14721e-19 0.691419)
(9.55693 8.07015e-22 0.822979)
(9.60834 7.43957e-20 0.788119)
(9.49534 8.0975e-20 0.935546)
(9.55233 0 0.896014)
(9.43195 1.62585e-19 1.06191)
(9.49463 1.58467e-19 1.01669)
(9.36791 8.16994e-20 1.20413)
(9.43618 -1.60651e-19 1.15201)
(9.30471 4.04995e-19 1.3645)
(9.37868 -8.27646e-20 1.3041)
(9.24432 3.24963e-20 1.54566)
(9.32386 8.29447e-19 1.47528)
(9.18949 -2.68339e-19 1.75073)
(9.27386 -7.13048e-19 1.66831)
(9.14397 -2.8785e-19 1.98321)
(9.2324 1.76798e-19 1.88633)
(9.11304 -7.58078e-19 2.24695)
(9.20388 -2.92807e-19 2.13261)
(9.10411 3.5242e-19 2.54656)
(9.19427 -3.77948e-19 2.41103)
(9.12725 -3.19913e-19 2.88703)
(9.21237 5.06961e-20 2.72635)
(9.1962 -1.17473e-19 3.27278)
(9.26935 -7.49325e-19 3.08351)
(9.33144 1.35e-18 3.70776)
(9.38464 1.29185e-18 3.48474)
(9.55528 1.23278e-18 4.17774)
(9.56056 2.5973e-19 3.94377)
(9.9052 2.21207e-18 4.68562)
(9.93719 -8.76897e-19 4.37045)
(10.3927 1.49842e-18 5.01367)
(10.0784 8.79284e-19 5.07793)
(10.5918 -1.31248e-18 5.24132)
(11.4694 1.20097e-19 4.47283)
(9.89835 -1.72449e-19 6.18075)
(9.99434 1.29711e-20 0.0737898)
(9.99874 -5.47765e-21 0.0515226)
(9.98396 -1.90282e-19 0.1193)
(9.99077 1.99782e-19 0.0984854)
(9.9691 -1.98901e-19 0.164821)
(9.97865 -1.26243e-20 0.14455)
(9.94979 1.07628e-19 0.211937)
(9.9623 0 0.191739)
(9.92612 2.15817e-19 0.261644)
(9.94183 1.31648e-19 0.241102)
(9.89825 2.24846e-19 0.314884)
(9.91722 1.91748e-19 0.293568)
(9.86634 1.13215e-19 0.372558)
(9.88874 5.7472e-22 0.35008)
(9.83058 7.84789e-22 0.435482)
(9.85671 1.19682e-19 0.411484)
(9.7911 -1.99435e-19 0.504489)
(9.82116 0 0.478584)
(9.74815 -1.24956e-19 0.580537)
(9.7824 -6.74626e-20 0.552236)
(9.70211 6.58592e-20 0.664743)
(9.74072 6.79512e-20 0.633454)
(9.65342 7.47002e-20 0.758293)
(9.69647 -1.37896e-19 0.723421)
(9.60255 7.25602e-20 0.862417)
(9.65026 1.46357e-19 0.823314)
(9.55018 7.9687e-20 0.978497)
(9.6028 -1.47905e-19 0.934362)
(9.49726 -1.68562e-19 1.10817)
(9.55484 7.87316e-20 1.05802)
(9.44518 -3.24666e-19 1.25335)
(9.50739 -3.22146e-19 1.19598)
(9.39571 3.5077e-19 1.41621)
(9.46235 -3.25638e-19 1.35017)
(9.35102 7.40927e-20 1.5991)
(9.42173 6.7627e-19 1.5228)
(9.31411 -2.62151e-19 1.80475)
(9.38788 -5.1685e-19 1.71622)
(9.28909 1.70699e-19 2.03606)
(9.36487 -2.54763e-19 1.93304)
(9.28127 8.54259e-20 2.29612)
(9.35723 -5.9212e-19 2.17599)
(9.298 -6.81451e-19 2.58868)
(9.37062 -3.37897e-19 2.44819)
(9.34939 -3.69158e-19 2.91769)
(9.41378 -3.67845e-19 2.75345)
(9.44913 6.13052e-19 3.28609)
(9.49784 6.37348e-19 3.09545)
(9.61666 2.2098e-19 3.69556)
(9.64179 -2.70105e-19 3.47484)
(9.87563 -1.70034e-18 4.13056)
(9.8482 8.85523e-19 3.9017)
(10.2468 -2.64169e-18 4.58558)
(10.2451 -6.95773e-19 4.29587)
(10.7846 -4.8351e-19 4.84514)
(10.4469 -1.94492e-18 4.89191)
(11.0188 0 5.08654)
(11.7515 1.85338e-19 4.39509)
(10.4446 0 5.92973)
(9.99474 1.85491e-19 0.0770888)
(9.99897 1.72039e-19 0.0536898)
(9.98517 3.72871e-19 0.124684)
(9.99154 3.61489e-19 0.102618)
(9.97157 1.86726e-19 0.172383)
(9.98044 1.90908e-19 0.150687)
(9.95398 2.66816e-20 0.221811)
(9.96563 -1.72418e-19 0.200009)
(9.93249 1.0869e-19 0.273946)
(9.94718 1.03426e-19 0.25163)
(9.90725 -3.62764e-20 0.329706)
(9.92503 8.08231e-20 0.306446)
(9.87853 9.09976e-21 0.389977)
(9.89955 -2.03871e-21 0.365351)
(9.8466 1.1687e-19 0.455584)
(9.87112 -5.64006e-20 0.429192)
(9.81172 1.31059e-19 0.527367)
(9.83981 6.07236e-20 0.498791)
(9.77411 1.27931e-19 0.606257)
(9.80603 1.28028e-19 0.575019)
(9.73412 -1.39049e-19 0.693311)
(9.77001 1.31868e-19 0.658861)
(9.69231 -6.22142e-20 0.789669)
(9.73213 -1.70412e-21 0.751393)
(9.64937 -7.81376e-20 0.896527)
(9.69319 3.35461e-21 0.853722)
(9.6061 -1.46179e-19 1.0152)
(9.65408 -2.5716e-21 0.967061)
(9.56347 -7.92661e-20 1.14716)
(9.61561 -7.76013e-22 1.09278)
(9.52291 -3.23112e-19 1.29411)
(9.57898 4.5922e-19 1.23235)
(9.48642 7.49508e-21 1.45799)
(9.54595 -2.4286e-19 1.38743)
(9.45648 7.79651e-20 1.6409)
(9.51868 -7.24112e-20 1.56)
(9.43629 -5.07889e-19 1.84512)
(9.50002 -2.59752e-21 1.75203)
(9.4301 -1.01948e-18 2.07304)
(9.49389 -1.75725e-19 1.96564)
(9.44318 -1.0203e-18 2.32716)
(9.50501 1.24798e-19 2.2032)
(9.48253 -2.35971e-20 2.61037)
(9.53879 -1.8782e-20 2.46714)
(9.55796 6.21948e-19 2.92557)
(9.60354 3.0826e-19 2.76021)
(9.68271 -2.26802e-19 3.27439)
(9.71002 -5.51625e-19 3.08491)
(9.87487 3.34037e-19 3.65665)
(9.87616 -5.14105e-19 3.4407)
(10.1589 2.06338e-18 4.05674)
(10.1056 5.03568e-19 3.8336)
(10.5436 -3.47022e-19 4.46066)
(10.5106 4.84262e-19 4.19701)
(11.1162 -1.83443e-18 4.66286)
(10.7689 -1.53939e-18 4.68198)
(11.4609 1.73493e-19 4.95781)
(11.9844 1.07078e-18 4.3063)
(11.0245 5.49031e-20 5.74166)
(9.99518 3.51891e-19 0.0801223)
(9.99924 3.37601e-19 0.055676)
(9.9865 1.75623e-19 0.129609)
(9.99241 3.52348e-19 0.106381)
(9.97424 -1.76189e-19 0.179266)
(9.98242 0 0.156243)
(9.95847 -9.01142e-20 0.230768)
(9.96925 -1.32693e-20 0.20746)
(9.93929 7.51299e-20 0.285072)
(9.95291 5.90384e-21 0.261081)
(9.9169 1.13597e-19 0.34305)
(9.93337 -1.52476e-19 0.317951)
(9.8916 -6.85238e-20 0.405562)
(9.91105 6.13183e-20 0.378915)
(9.86369 -1.1074e-19 0.473443)
(9.88629 -6.9294e-20 0.444834)
(9.83342 5.87731e-20 0.547545)
(9.85925 6.19811e-20 0.516543)
(9.8011 1.31973e-19 0.628789)
(9.83032 -3.54552e-19 0.594905)
(9.76712 2.67647e-19 0.718169)
(9.79984 2.55259e-19 0.680878)
(9.73207 6.42535e-20 0.816719)
(9.76832 1.39722e-20 0.775427)
(9.69681 7.90712e-20 0.925562)
(9.73656 -6.98464e-20 0.879534)
(9.66231 1.43526e-19 1.04596)
(9.70555 1.49672e-20 0.99435)
(9.62972 5.43329e-19 1.17928)
(9.67628 -2.76357e-19 1.12119)
(9.60045 5.3435e-19 1.32696)
(9.6502 8.28729e-19 1.26138)
(9.57645 -3.21528e-19 1.49063)
(9.6289 -2.87041e-19 1.4163)
(9.56036 -1.53307e-19 1.67208)
(9.61444 -6.1831e-19 1.58755)
(9.55549 3.29544e-19 1.87318)
(9.61007 3.1733e-19 1.77679)
(9.56613 9.71168e-19 2.0959)
(9.61935 -1.22918e-19 1.9857)
(9.59757 1.13039e-18 2.34225)
(9.64695 5.34076e-19 2.21622)
(9.65642 3.12237e-19 2.61436)
(9.69834 6.07173e-19 2.47032)
(9.75181 -8.5479e-19 2.91402)
(9.78126 -8.38634e-19 2.74976)
(9.89622 -8.43544e-19 3.24169)
(9.90588 -3.61414e-19 3.05576)
(10.1062 -3.76387e-19 3.5956)
(10.0884 -3.91988e-19 3.38687)
(10.4059 -1.09315e-18 3.96078)
(10.3338 -5.76147e-20 3.74491)
(10.7978 -7.19259e-19 4.31377)
(10.7356 -8.09371e-20 4.07729)
(11.3869 8.39189e-19 4.46255)
(11.0411 7.13823e-19 4.45392)
(11.9025 9.49512e-19 4.8096)
(12.1811 6.39981e-20 4.16645)
(12.29 6.06776e-20 5.34199)
(0.112834 0 -0.0693117)
(0.050147 1.44472e-19 -0.0627618)
(0.316378 0 -0.0544412)
(0.168278 0 -0.0586113)
(0.9237 0 -0.0565342)
(0.546088 -3.64966e-19 -0.0927031)
(1.62833 5.48123e-21 -0.0525342)
(1.32149 0 -0.101599)
(2.03156 4.03481e-21 -0.0418813)
(1.92613 1.57182e-21 -0.0788182)
(2.26361 0 -0.0351729)
(2.24174 -2.64118e-20 -0.0596166)
(2.43867 0 -0.0337044)
(2.441 0 -0.0534316)
(2.59537 1.46191e-20 -0.0347422)
(2.59628 0 -0.0541263)
(2.74242 1.25027e-21 -0.0361022)
(2.7327 2.52241e-20 -0.0561076)
(2.8816 -1.3174e-20 -0.0373317)
(2.85651 -2.25511e-20 -0.0578078)
(3.01347 0 -0.0381805)
(2.97012 0 -0.0589902)
(3.13745 -8.99184e-21 -0.0384212)
(3.07445 0 -0.059222)
(3.25265 -9.06392e-21 -0.0381747)
(3.16945 2.2752e-22 -0.0584092)
(3.35949 -7.52247e-21 -0.0376818)
(3.25579 -1.03483e-21 -0.0572102)
(3.45895 -7.37352e-21 -0.0369456)
(3.33495 -1.64882e-20 -0.0559179)
(3.55117 1.54592e-23 -0.0359376)
(3.40715 1.51893e-21 -0.0542091)
(3.63622 -2.07481e-22 -0.0347932)
(3.47218 -6.18369e-22 -0.0521141)
(3.71468 0 -0.0337114)
(3.53045 0 -0.0499998)
(3.78756 -2.43102e-21 -0.0328716)
(3.58265 0 -0.0482026)
(3.85614 -3.15268e-22 -0.0324233)
(3.62976 -2.36285e-22 -0.0469956)
(3.92185 2.08787e-21 -0.0324993)
(3.67292 8.20761e-23 -0.0465834)
(3.98627 2.00003e-24 -0.0332734)
(3.71353 7.09675e-23 -0.0471707)
(4.05131 5.04236e-23 -0.0349959)
(3.75299 -2.93157e-21 -0.0490978)
(4.11928 7.66809e-22 -0.037909)
(3.79282 -5.97503e-23 -0.0527904)
(4.19274 3.28068e-22 -0.04217)
(3.83535 -8.19063e-24 -0.0585965)
(4.27436 -2.84802e-22 -0.0479027)
(3.88343 -7.41929e-22 -0.0668)
(4.367 1.58447e-22 -0.0552196)
(3.9402 -2.58803e-22 -0.0777719)
(4.4737 0 -0.0638782)
(4.00942 -1.45658e-22 -0.0919172)
(4.59622 -3.73208e-22 -0.0721462)
(4.09494 8.07507e-22 -0.108681)
(4.23224 8.68487e-22 -0.1238)
(0.0466516 1.70001e-19 -0.0855243)
(0.000644596 1.43163e-19 -0.0950311)
(0.290217 -3.16875e-19 -0.110998)
(0.0901125 0 -0.122506)
(0.976649 -3.29327e-19 -0.15218)
(0.506252 -7.6547e-20 -0.199788)
(1.72624 -4.16536e-21 -0.140696)
(1.28563 5.85891e-20 -0.214983)
(2.17209 -3.20909e-20 -0.110664)
(1.87689 -2.07835e-20 -0.171371)
(2.43154 -2.54767e-20 -0.0916477)
(2.18998 -2.88847e-20 -0.132716)
(2.60477 0 -0.0842811)