/*--------------------------------*- C++ -*----------------------------------*\
| =========                 |                                                 |
| \\      /  F ield         | OpenFOAM: The Open Source CFD Toolbox           |
|  \\    /   O peration     | Version:  dev                                   |
|   \\  /    A nd           | Web:      www.OpenFOAM.org                      |
|    \\/     M anipulation  |                                                 |
\*---------------------------------------------------------------------------*/
FoamFile
{
    version     2.0;
    format      ascii;
    class       volVectorField;
    location    "1.47";
    object      Force;
}
// * * * * * * * * * * * * * * * * * * * * * * * * * * * * * * * * * * * * * //

dimensions      [1 1 -2 0 0 0 0];

internalField   uniform (0 0 0);

boundaryField
{
    inlet
    {
        type            calculated;
        value           uniform (0 0 0);
    }
    outlet
    {
        type            calculated;
        value           uniform (0 0 0);
    }
    flap
    {
        type            calculated;
        value           nonuniform List<vector> 
33
(
(2.72247 -1.1097e-21 -0.235071)
(2.6542 5.87747e-39 -0.541175)
(2.51457 9.40395e-38 -0.814915)
(2.31611 6.41671e-18 -1.00234)
(2.08993 1.21537e-17 -1.11165)
(1.86245 1.86573e-17 -1.15881)
(1.6499 1.05282e-17 -1.16084)
(1.46113 -8.0704e-18 -1.13173)
(1.29656 2.62192e-17 -1.08102)
(1.15274 5.87747e-38 -1.01448)
(1.0239 2.84822e-22 -0.935467)
(0.900656 2.42311e-21 -0.843257)
(0.773184 0 -0.734248)
(0.631018 2.0074e-22 -0.601519)
(0.45679 1.45124e-21 -0.435632)
(0.542439 -1.77217e-17 0.560239)
(0.345305 5.15779e-21 0.356938)
(0.15019 5.82724e-19 0.15655)
(-0.0292524 1.16657e-17 0.0025595)
(-0.0286453 -6.03418e-24 0.00581733)
(-0.0274923 4.71725e-23 0.00889442)
(-0.0259262 1.27883e-17 0.0111631)
(-0.024074 0 0.0127309)
(-0.0220596 1.83671e-39 0.0136328)
(-0.0199941 -6.91061e-20 0.0139515)
(-0.0179547 1.43885e-17 0.0137803)
(-0.0159891 1.16119e-19 0.0132005)
(-0.0140713 -1.03985e-19 0.0122588)
(-0.0120839 -1.44011e-22 0.010942)
(-0.00981869 1.58014e-17 0.00913735)
(-0.0068378 2.40723e-22 0.00648961)
(-0.00161941 1.16811e-24 0.00187267)
(0.0136237 2.86166e-17 -0.0135047)
)
;
    }
    upperWall
    {
        type            calculated;
        value           uniform (0 0 0);
    }
    lowerWall
    {
        type            calculated;
        value           uniform (0 0 0);
    }
    frontAndBack
    {
        type            empty;
    }
}


// ************************************************************************* //
