/*--------------------------------*- C++ -*----------------------------------*\
| =========                 |                                                 |
| \\      /  F ield         | OpenFOAM: The Open Source CFD Toolbox           |
|  \\    /   O peration     | Version:  dev                                   |
|   \\  /    A nd           | Web:      www.OpenFOAM.org                      |
|    \\/     M anipulation  |                                                 |
\*---------------------------------------------------------------------------*/
FoamFile
{
    version     2.0;
    format      ascii;
    class       volVectorField;
    location    "0.28";
    object      cellDisplacement;
}
// * * * * * * * * * * * * * * * * * * * * * * * * * * * * * * * * * * * * * //

dimensions      [0 1 0 0 0 0 0];

internalField   nonuniform List<vector> 
2790
(
(0.00180442 0 3.33716e-05)
(0.00519996 0 9.66611e-05)
(0.00820631 0 0.00015359)
(0.0108658 0 0.000205119)
(0.0132164 0 0.000252044)
(0.0152889 0 0.000295548)
(0.0171128 0 0.000334678)
(0.0187158 0 0.0003702)
(0.02012 0 0.000402096)
(0.0213443 0 0.000430162)
(0.0224054 0 0.000454039)
(0.0233175 0 0.000473227)
(0.0240923 0 0.0004871)
(0.0247401 0 0.000494938)
(0.0252691 0 0.000495971)
(0.0256857 0 0.000489446)
(0.0259954 0 0.00047473)
(0.0262021 0 0.000451425)
(0.0263092 0 0.00041951)
(0.0263195 0 0.000379482)
(0.0262358 0 0.000332462)
(0.0260605 0 0.000280222)
(0.0257961 0 0.000225026)
(0.0254431 0 0.000169185)
(0.0249971 0 0.000113976)
(0.0244412 0 5.70738e-05)
(0.0237329 0 -1.38936e-05)
(0.0227855 0 -0.000136599)
(0.02149 0 -0.000396668)
(0.0202109 0 -0.000843906)
(0.00180364 0 0.000100327)
(0.0051978 0 0.000290641)
(0.00820305 0 0.0004619)
(0.0108617 0 0.00061698)
(0.0132125 0 0.000758107)
(0.0152847 0 0.0008866)
(0.0171079 0 0.00100394)
(0.0187112 0 0.00111069)
(0.020116 0 0.00120668)
(0.0213415 0 0.00129129)
(0.0224042 0 0.00136347)
(0.0233184 0 0.00142176)
(0.0240963 0 0.00146429)
(0.0247481 0 0.00148892)
(0.0252821 0 0.00149335)
(0.0257052 0 0.0014753)
(0.0260228 0 0.00143284)
(0.0262394 0 0.00136468)
(0.0263584 0 0.00127067)
(0.0263831 0 0.00115214)
(0.026317 0 0.00101234)
(0.0261641 0 0.000856518)
(0.0259299 0 0.000691675)
(0.0256218 0 0.00052563)
(0.0252514 0 0.000365143)
(0.0248403 0 0.000212627)
(0.024439 0 6.08286e-05)
(0.0241852 0 -0.000114065)
(0.024438 0 -0.000347094)
(0.0257386 0 -0.000637709)
(0.0018023 0 0.000167233)
(0.00519398 0 0.000484504)
(0.00819709 0 0.000770102)
(0.0108539 0 0.00102883)
(0.0132023 0 0.00126426)
(0.0152739 0 0.00147795)
(0.017098 0 0.00167413)
(0.018702 0 0.00185288)
(0.0201082 0 0.00201396)
(0.0213357 0 0.00215643)
(0.0224016 0 0.00227862)
(0.0233202 0 0.00237815)
(0.024104 0 0.002452)
(0.0247634 0 0.00249663)
(0.0253074 0 0.00250822)
(0.025743 0 0.00248292)
(0.0260763 0 0.00241735)
(0.0263119 0 0.00230913)
(0.0264541 0 0.00215757)
(0.0265066 0 0.00196445)
(0.0264739 0 0.00173467)
(0.0263618 0 0.00147669)
(0.026179 0 0.0012024)
(0.0259398 0 0.000926304)
(0.0256677 0 0.000663965)
(0.0254026 0 0.000430447)
(0.02521 0 0.000241301)
(0.0251783 0 0.000121902)
(0.0253482 0 0.000128178)
(0.0255055 0 0.000314339)
(0.0018003 0 0.000233656)
(0.00518827 0 0.000676971)
(0.00818822 0 0.00107613)
(0.0108423 0 0.00143792)
(0.0131884 0 0.00176752)
(0.0152589 0 0.0020684)
(0.0170834 0 0.00234416)
(0.0186882 0 0.00259581)
(0.0200961 0 0.00282326)
(0.0213267 0 0.00302536)
(0.0223969 0 0.00319992)
(0.0233218 0 0.00334377)
(0.024114 0 0.00345282)
(0.0247845 0 0.00352225)
(0.0253427 0 0.00354671)
(0.0257964 0 0.00352077)
(0.026152 0 0.00343939)
(0.0264151 0 0.00329874)
(0.0265903 0 0.00309711)
(0.026682 0 0.00283598)
(0.0266954 0 0.00252111)
(0.0266372 0 0.00216344)
(0.0265176 0 0.00177938)
(0.0263527 0 0.00139026)
(0.026168 0 0.00102081)
(0.0260003 0 0.000696675)
(0.0258953 0 0.000441606)
(0.0258888 0 0.000273372)
(0.0259607 0 0.000191566)
(0.0260095 0 0.000152478)
(0.00179764 0 0.000299564)
(0.00518066 0 0.000867971)
(0.0081764 0 0.00137992)
(0.010827 0 0.00184423)
(0.0131703 0 0.00226775)
(0.0152394 0 0.00265542)
(0.0170637 0 0.00301105)
(0.0186694 0 0.00333633)
(0.0200794 0 0.00363139)
(0.0213136 0 0.00389502)
(0.0223893 0 0.00412466)
(0.0233219 0 0.00431652)
(0.0241246 0 0.00446561)
(0.0248089 0 0.00456596)
(0.0253849 0 0.00461083)
(0.0258611 0 0.00459314)
(0.0262447 0 0.0045061)
(0.026542 0 0.00434402)
(0.0267582 0 0.00410349)
(0.0268984 0 0.00378475)
(0.0269676 0 0.0033932)
(0.0269722 0 0.00294093)
(0.0269212 0 0.00244768)
(0.0268284 0 0.00194086)
(0.0267138 0 0.00145398)
(0.0266039 0 0.00102284)
(0.0265266 0 0.00067902)
(0.0264992 0 0.000439903)
(0.0265134 0 0.000295735)
(0.0265396 0 0.000210613)
(0.00179431 0 0.00036478)
(0.00517113 0 0.00105699)
(0.00816161 0 0.00168065)
(0.0108079 0 0.00224668)
(0.0131479 0 0.0027636)
(0.015215 0 0.00323768)
(0.0170387 0 0.00367338)
(0.0186452 0 0.004073)
(0.0200574 0 0.00443706)
(0.0212956 0 0.00476439)
(0.0223774 0 0.00505229)
(0.0233188 0 0.00529654)
(0.0241334 0 0.00549149)
(0.0248335 0 0.00563023)
(0.0254298 0 0.00570479)
(0.0259318 0 0.00570657)
(0.0263476 0 0.00562687)
(0.0266842 0 0.00545784)
(0.0269478 0 0.00519365)
(0.0271434 0 0.00483211)
(0.0272758 0 0.00437665)
(0.0273499 0 0.00383853)
(0.0273717 0 0.00323873)
(0.0273491 0 0.00260908)
(0.0272937 0 0.00199138)
(0.02722 0 0.00143331)
(0.0271436 0 0.00098061)
(0.0270759 0 0.000667091)
(0.0270207 0 0.000508117)
(0.0269814 0 0.000495621)
(0.00179029 0 0.00042913)
(0.00515963 0 0.00124351)
(0.00814375 0 0.00197753)
(0.0107848 0 0.0026442)
(0.0131209 0 0.00325376)
(0.0151854 0 0.00381382)
(0.017008 0 0.00432967)
(0.0186149 0 0.00480434)
(0.0200292 0 0.00523882)
(0.0212715 0 0.00563222)
(0.0223598 0 0.00598187)
(0.0233105 0 0.00628339)
(0.0241378 0 0.00653077)
(0.0248548 0 0.00671646)
(0.025473 0 0.00683154)
(0.0260027 0 0.00686605)
(0.0264532 0 0.0068095)
(0.0268325 0 0.00665161)
(0.0271473 0 0.00638353)
(0.0274034 0 0.00599947)
(0.0276049 0 0.00549897)
(0.0277547 0 0.00488978)
(0.0278547 0 0.004191)
(0.0279061 0 0.00343587)
(0.0279105 0 0.00267274)
(0.0278711 0 0.00196189)
(0.0277945 0 0.00136585)
(0.0276929 0 0.000931756)
(0.0275914 0 0.000668574)
(0.0275348 0 0.000536825)
(0.00178556 0 0.000492433)
(0.00514611 0 0.00142703)
(0.00812274 0 0.00226974)
(0.0107576 0 0.00303569)
(0.013089 0 0.00373689)
(0.0151503 0 0.00438231)
(0.0169712 0 0.00497824)
(0.018578 0 0.00552854)
(0.0199942 0 0.00603482)
(0.0212403 0 0.00649665)
(0.022335 0 0.00691165)
(0.0232949 0 0.00727558)
(0.024135 0 0.00758238)
(0.024869 0 0.00782426)
(0.0255093 0 0.00799175)
(0.0260673 0 0.00807393)
(0.0265532 0 0.00805872)
(0.0269762 0 0.00793355)
(0.0273443 0 0.00768619)
(0.0276636 0 0.0073063)
(0.0279383 0 0.0067876)
(0.0281698 0 0.00613125)
(0.0283563 0 0.00535015)
(0.0284923 0 0.00447404)
(0.0285695 0 0.00355386)
(0.0285797 0 0.00266241)
(0.0285193 0 0.0018868)
(0.0283961 0 0.00130898)
(0.0282346 0 0.000976682)
(0.0280876 0 0.000875513)
(0.00178011 0 0.000554512)
(0.00513049 0 0.00160703)
(0.00809845 0 0.00255644)
(0.0107262 0 0.00342005)
(0.0130519 0 0.00421165)
(0.0151092 0 0.0049416)
(0.0169277 0 0.00561734)
(0.0185339 0 0.00624366)
(0.0199512 0 0.00682296)
(0.0212007 0 0.00735544)
(0.0223012 0 0.00783929)
(0.0232698 0 0.00827071)
(0.024122 0 0.00864401)
(0.0248723 0 0.00895159)
(0.0255338 0 0.00918398)
(0.0261189 0 0.00932983)
(0.026639 0 0.00937605)
(0.0271046 0 0.00930822)
(0.0275249 0 0.009111)
(0.0279076 0 0.00876909)
(0.0282574 0 0.00826901)
(0.0285758 0 0.00760232)
(0.0288588 0 0.00677052)
(0.0290959 0 0.00579242)
(0.0292703 0 0.00471322)
(0.0293621 0 0.00361236)
(0.0293568 0 0.00260324)
(0.0292619 0 0.00181333)
(0.0291241 0 0.00133714)
(0.029033 0 0.00117562)
(0.0017739 0 0.000615191)
(0.00511272 0 0.00178298)
(0.00807079 0 0.00283682)
(0.0106903 0 0.00379619)
(0.0130094 0 0.00467666)
(0.0150618 0 0.00549008)
(0.0168771 0 0.00624511)
(0.0184819 0 0.00694758)
(0.0198996 0 0.00760081)
(0.0211516 0 0.00820588)
(0.022257 0 0.00876176)
(0.0232331 0 0.00926543)
(0.0240961 0 0.00971197)
(0.0248609 0 0.0100945)
(0.0255415 0 0.0104042)
(0.026151 0 0.01063)
(0.026702 0 0.0107586)
(0.0272065 0 0.0107749)
(0.0276753 0 0.0106612)
(0.0281178 0 0.010398)
(0.0285411 0 0.00996445)
(0.0289483 0 0.00934064)
(0.0293365 0 0.00851171)
(0.0296939 0 0.00747624)
(0.0299977 0 0.0062594)
(0.0302152 0 0.0049316)
(0.030313 0 0.00362484)
(0.0302807 0 0.00252577)
(0.0301677 0 0.00180983)
(0.0300951 0 0.00150956)
(0.00176692 0 0.000674263)
(0.00509273 0 0.00195429)
(0.00803965 0 0.00310991)
(0.0106498 0 0.00416277)
(0.0129613 0 0.00513024)
(0.0150078 0 0.0060257)
(0.016819 0 0.00685911)
(0.0184214 0 0.00763742)
(0.0198386 0 0.00836505)
(0.021092 0 0.00904407)
(0.0222009 0 0.00967449)
(0.023183 0 0.0102544)
(0.0240548 0 0.01078)
(0.0248316 0 0.0112457)
(0.0255279 0 0.011644)
(0.0261576 0 0.0119652)
(0.0267344 0 0.0121965)
(0.0272713 0 0.0123236)
(0.0277811 0 0.0123286)
(0.0282754 0 0.0121896)
(0.0287646 0 0.0118805)
(0.0292559 0 0.0113705)
(0.0297514 0 0.0106262)
(0.0302437 0 0.00961799)
(0.0307105 0 0.00833189)
(0.0311097 0 0.00679866)
(0.031379 0 0.00513835)
(0.0314552 0 0.00360551)
(0.0313245 0 0.00256609)
(0.0311081 0 0.0022486)
(0.00175915 0 0.000731536)
(0.00507044 0 0.0021204)
(0.0080049 0 0.00337481)
(0.0106045 0 0.00451857)
(0.0129073 0 0.00557085)
(0.0149469 0 0.00654658)
(0.016753 0 0.00745706)
(0.0183519 0 0.00831049)
(0.0197674 0 0.00911242)
(0.0210209 0 0.00986611)
(0.0221318 0 0.0105728)
(0.0231179 0 0.0112319)
(0.0239959 0 0.0118412)
(0.0247814 0 0.0123968)
(0.0254893 0 0.0128933)
(0.0261338 0 0.0133232)
(0.0267292 0 0.0136754)
(0.0272898 0 0.0139382)
(0.0278295 0 0.0140959)
(0.0283626 0 0.0141282)
(0.0289026 0 0.0140076)
(0.0294629 0 0.013698)
(0.030054 0 0.0131516)
(0.0306806 0 0.0123111)
(0.0313339 0 0.0111081)
(0.0319792 0 0.00948892)
(0.0325392 0 0.00747411)
(0.0328903 0 0.00528301)
(0.0329287 0 0.00349905)
(0.0327971 0 0.00297125)
(0.00175056 0 0.000786795)
(0.00504582 0 0.00228067)
(0.00796649 0 0.0036305)
(0.0105544 0 0.00486218)
(0.0128473 0 0.00599666)
(0.0148789 0 0.00705045)
(0.0166787 0 0.0080362)
(0.0182731 0 0.00896341)
(0.0196856 0 0.00983885)
(0.0209376 0 0.0106671)
(0.0220486 0 0.0114507)
(0.0230364 0 0.0121906)
(0.0239177 0 0.0128864)
(0.0247083 0 0.0135363)
(0.025423 0 0.0141375)
(0.0260759 0 0.0146867)
(0.0266816 0 0.0151733)
(0.0272551 0 0.0155913)
(0.0278109 0 0.0159302)
(0.0283646 0 0.016175)
(0.0289326 0 0.016304)
(0.0295332 0 0.0162851)
(0.0301871 0 0.0160688)
(0.0309158 0 0.0155914)
(0.0317386 0 0.0147416)
(0.0326607 0 0.0133632)
(0.0336391 0 0.011263)
(0.0345148 0 0.00830067)
(0.034949 0 0.00467565)
(0.0345456 0 0.00159202)
(0.00174106 0 0.000839932)
(0.00501864 0 0.00243483)
(0.00792415 0 0.00387663)
(0.010499 0 0.00519317)
(0.0127809 0 0.00640712)
(0.0148033 0 0.0075366)
(0.0165956 0 0.00859567)
(0.0181842 0 0.00959508)
(0.0195923 0 0.0105429)
(0.0208413 0 0.011445)
(0.0219504 0 0.0123055)
(0.0229374 0 0.0131269)
(0.0238189 0 0.0139107)
(0.0246104 0 0.0146575)
(0.0253271 0 0.0153671)
(0.0259819 0 0.0160371)
(0.0265888 0 0.0166657)
(0.0271632 0 0.0172518)
(0.0277193 0 0.0177916)
(0.0282723 0 0.0182797)
(0.0288388 0 0.0187078)
(0.0294384 0 0.0190622)
(0.0300977 0 0.0193182)
(0.0308508 0 0.0194332)
(0.0317448 0 0.0193294)
(0.0328523 0 0.0188637)
(0.0342726 0 0.0177785)
(0.0361025 0 0.0156752)
(0.0382868 0 0.0122406)
(0.0401943 0 0.00770947)
(0.00173068 0 0.000890831)
(0.00498896 0 0.00258253)
(0.00787796 0 0.00411261)
(0.0104385 0 0.00551071)
(0.012708 0 0.00680114)
(0.01472 0 0.00800365)
(0.0165037 0 0.00913369)
(0.0180851 0 0.0102033)
(0.0194874 0 0.0112218)
(0.0207316 0 0.0121964)
(0.0218368 0 0.0131327)
(0.0228205 0 0.0140349)
(0.0236989 0 0.0149065)
(0.0244872 0 0.0157501)
(0.0251997 0 0.016568)
(0.0258496 0 0.0173606)
(0.0264498 0 0.0181351)
(0.0270137 0 0.0188944)
(0.0275545 0 0.019643)
(0.0280852 0 0.0203874)
(0.02862 0 0.0211369)
(0.0291745 0 0.021905)
(0.0297694 0 0.0227047)
(0.0304324 0 0.0235502)
(0.0312039 0 0.0244743)
(0.0321544 0 0.0255213)
(0.0334166 0 0.026749)
(0.0352371 0 0.0282015)
(0.037951 0 0.0297687)
(0.0414314 0 0.0312111)
(0.0210136 0 -0.000233516)
(0.0232585 0 -0.000119225)
(0.0245583 0 -3.12682e-05)
(0.0252053 0 2.51059e-05)
(0.0255091 0 6.68313e-05)
(0.0256216 0 0.000103726)
(0.0256056 0 0.000139817)
(0.0254901 0 0.000176166)
(0.0252917 0 0.000212325)
(0.0250218 0 0.000247161)
(0.0246886 0 0.000279352)
(0.0242978 0 0.000307697)
(0.0238529 0 0.000331275)
(0.0233548 0 0.000349505)
(0.0228023 0 0.000362126)
(0.022192 0 0.000369147)
(0.0215186 0 0.000370774)
(0.0207748 0 0.000367336)
(0.0199519 0 0.000359221)
(0.0190394 0 0.000346826)
(0.0180254 0 0.000330519)
(0.0168962 0 0.000310607)
(0.0156369 0 0.000287322)
(0.0142307 0 0.00026082)
(0.0126597 0 0.000231239)
(0.0108988 0 0.000199085)
(0.00892426 0 0.000162395)
(0.00671485 0 0.000121651)
(0.00424065 0 7.65176e-05)
(0.00146813 0 2.6399e-05)
(0.0276752 0 -0.000248172)
(0.0263831 0 -0.000140794)
(0.0258247 0 -7.30054e-06)
(0.0257252 0 0.000110639)
(0.0257425 0 0.000216856)
(0.0257355 0 0.000320339)
(0.0256618 0 0.000425938)
(0.0255141 0 0.000534082)
(0.0252957 0 0.000642281)
(0.0250128 0 0.00074662)
(0.0246713 0 0.00084293)
(0.0242756 0 0.000927547)
(0.0238281 0 0.000997732)
(0.0233291 0 0.00105179)
(0.0227769 0 0.00108899)
(0.0221676 0 0.00110943)
(0.0214957 0 0.00111373)
(0.0207537 0 0.00110292)
(0.0199327 0 0.00107816)
(0.0190221 0 0.00104065)
(0.0180098 0 0.000991489)
(0.0168824 0 0.000931579)
(0.0156246 0 0.000861609)
(0.0142198 0 0.000782011)
(0.0126491 0 0.000693042)
(0.0108897 0 0.000595215)
(0.00891807 0 0.000485403)
(0.00671053 0 0.000363629)
(0.00423806 0 0.000228742)
(0.00146727 0 7.89259e-05)
(0.0264898 0 -4.99706e-05)
(0.0264602 0 2.80156e-05)
(0.026255 0 0.000139664)
(0.0261001 0 0.000268996)
(0.0259953 0 0.000412228)
(0.0258884 0 0.000569385)
(0.025744 0 0.000739103)
(0.0255473 0 0.000917037)
(0.0252952 0 0.00109642)
(0.0249895 0 0.00126945)
(0.0246332 0 0.00142863)
(0.0242286 0 0.00156774)
(0.0237767 0 0.00168234)
(0.0232765 0 0.00176978)
(0.0227253 0 0.00182906)
(0.0221184 0 0.00186049)
(0.0214497 0 0.00186526)
(0.0207114 0 0.00184512)
(0.0198942 0 0.00180206)
(0.0189873 0 0.00173807)
(0.0179787 0 0.00165493)
(0.0168548 0 0.00155415)
(0.0156003 0 0.00143682)
(0.0141983 0 0.0013036)
(0.0126301 0 0.00115469)
(0.0108737 0 0.000989827)
(0.0089059 0 0.000806856)
(0.00670177 0 0.000604368)
(0.00423269 0 0.000380173)
(0.00146544 0 0.000131179)
(0.0265943 0 0.000315505)
(0.026592 0 0.000307538)
(0.0265027 0 0.000368892)
(0.0263657 0 0.000491006)
(0.0262095 0 0.000659223)
(0.0260315 0 0.000863566)
(0.0258208 0 0.00109469)
(0.0255704 0 0.0013415)
(0.0252779 0 0.00159139)
(0.0249438 0 0.00183174)
(0.024569 0 0.00205141)
(0.0241537 0 0.00224169)
(0.023697 0 0.00239668)
(0.0231961 0 0.00251315)
(0.0226472 0 0.00259016)
(0.0220444 0 0.00262846)
(0.0213809 0 0.00262998)
(0.0206482 0 0.00259727)
(0.0198368 0 0.00253318)
(0.0189357 0 0.00244047)
(0.0179325 0 0.00232159)
(0.0168138 0 0.00217858)
(0.0155641 0 0.00201287)
(0.0141667 0 0.00182527)
(0.0126028 0 0.00161591)
(0.0108509 0 0.0013841)
(0.00888799 0 0.00112777)
(0.00668875 0 0.000844563)
(0.00422467 0 0.000531207)
(0.0014627 0 0.000183285)
(0.0267428 0 0.00052687)
(0.0267637 0 0.000536646)
(0.0267055 0 0.000610149)
(0.0265677 0 0.000749522)
(0.0263733 0 0.000950972)
(0.0261372 0 0.00120611)
(0.025866 0 0.0015012)
(0.0255627 0 0.00181855)
(0.025229 0 0.00213911)
(0.0248656 0 0.00244508)
(0.024472 0 0.00272171)
(0.0240466 0 0.00295821)
(0.0235863 0 0.00314778)
(0.0230867 0 0.00328717)
(0.022542 0 0.00337591)
(0.0219456 0 0.00341554)
(0.0212894 0 0.00340889)
(0.0205646 0 0.00335944)
(0.0197611 0 0.00327088)
(0.0188676 0 0.00314671)
(0.0178717 0 0.00298999)
(0.0167598 0 0.00280319)
(0.0155166 0 0.00258801)
(0.0141253 0 0.00234536)
(0.0125672 0 0.00207521)
(0.0108212 0 0.00177652)
(0.0088645 0 0.00144697)
(0.00667158 0 0.00108334)
(0.00421405 0 0.0006813)
(0.00145908 0 0.00023506)
(0.027047 0 0.000634497)
(0.0270079 0 0.000748341)
(0.0269078 0 0.000871007)
(0.0267299 0 0.00104421)
(0.0264841 0 0.00129004)
(0.0261885 0 0.00160532)
(0.0258591 0 0.00197178)
(0.0255057 0 0.0023642)
(0.0251335 0 0.00275648)
(0.0247438 0 0.00312568)
(0.0243347 0 0.00345411)
(0.0239025 0 0.00372977)
(0.0234419 0 0.00394591)
(0.0229466 0 0.00409996)
(0.0224093 0 0.00419254)
(0.021822 0 0.00422634)
(0.0211758 0 0.00420527)
(0.0204611 0 0.00413383)
(0.0196675 0 0.00401652)
(0.0187835 0 0.0038575)
(0.0177967 0 0.00366034)
(0.0166933 0 0.00342785)
(0.0154581 0 0.0031619)
(0.0140743 0 0.00286337)
(0.0125235 0 0.00253204)
(0.0107849 0 0.00216648)
(0.00883561 0 0.00176391)
(0.00665038 0 0.00132029)
(0.00420092 0 0.000830186)
(0.00145458 0 0.000286411)
(0.0272621 0 0.00119711)
(0.0272161 0 0.00113675)
(0.0270743 0 0.00120039)
(0.0268375 0 0.0013868)
(0.0265259 0 0.00168445)
(0.0261658 0 0.00207356)
(0.0257793 0 0.0025232)
(0.025381 0 0.0029974)
(0.024977 0 0.00346233)
(0.0245679 0 0.00389068)
(0.0241499 0 0.00426319)
(0.0237169 0 0.00456818)
(0.0232613 0 0.00480017)
(0.0227749 0 0.00495833)
(0.0222489 0 0.00504492)
(0.0216739 0 0.00506417)
(0.0210405 0 0.00502125)
(0.0203384 0 0.00492163)
(0.0195569 0 0.00477058)
(0.0186844 0 0.00457282)
(0.0177083 0 0.00433228)
(0.0166148 0 0.00405197)
(0.015389 0 0.0037338)
(0.0140142 0 0.00337852)
(0.0124721 0 0.00298561)
(0.010742 0 0.00255321)
(0.0088015 0 0.00207794)
(0.0066253 0 0.00155491)
(0.00418535 0 0.000977545)
(0.00144926 0 0.000337225)
(0.0275061 0 0.00128658)
(0.0273982 0 0.00136366)
(0.0271815 0 0.00150673)
(0.0268625 0 0.00176001)
(0.0264714 0 0.0021413)
(0.026043 0 0.00262892)
(0.0256043 0 0.00317865)
(0.0251703 0 0.00374228)
(0.0247458 0 0.00427885)
(0.0243285 0 0.00475878)
(0.0239117 0 0.00516374)
(0.0234865 0 0.0054845)
(0.0230431 0 0.00571853)
(0.0225713 0 0.0058677)
(0.0220611 0 0.00593658)
(0.0215023 0 0.00593114)
(0.0208847 0 0.00585787)
(0.0201977 0 0.00572315)
(0.0194304 0 0.00553288)
(0.018571 0 0.00529213)
(0.0176072 0 0.00500505)
(0.0165251 0 0.00467466)
(0.0153101 0 0.00430276)
(0.0139455 0 0.00388986)
(0.0124132 0 0.00343504)
(0.010693 0 0.0029359)
(0.00876236 0 0.00238837)
(0.00659648 0 0.00178667)
(0.00416744 0 0.00112304)
(0.00144312 0 0.000387388)
(0.027566 0 0.00154969)
(0.0274579 0 0.00168165)
(0.0271729 0 0.00186301)
(0.0267586 0 0.00219015)
(0.0262803 0 0.00268576)
(0.0257876 0 0.00330304)
(0.025309 0 0.0039723)
(0.024856 0 0.00463058)
(0.0244282 0 0.00523243)
(0.0240186 0 0.00575018)
(0.0236164 0 0.00617019)
(0.0232099 0 0.00648849)
(0.0227871 0 0.00670714)
(0.0223366 0 0.00683168)
(0.0218474 0 0.00686932)
(0.0213086 0 0.00682786)
(0.0207098 0 0.00671497)
(0.0200403 0 0.00653774)
(0.019289 0 0.00630244)
(0.0184445 0 0.00601431)
(0.0174943 0 0.00567744)
(0.016425 0 0.00529469)
(0.0152218 0 0.0048676)
(0.0138686 0 0.00439627)
(0.0123473 0 0.0038793)
(0.0106379 0 0.00331363)
(0.00871844 0 0.00269445)
(0.00656408 0 0.00201499)
(0.00414727 0 0.00126631)
(0.0014362 0 0.000436775)
(0.027612 0 0.00232014)
(0.0274319 0 0.00218738)
(0.0270093 0 0.00227904)
(0.026468 0 0.00269218)
(0.0259019 0 0.00335563)
(0.0253622 0 0.00414581)
(0.024869 0 0.00495312)
(0.0244236 0 0.00570289)
(0.0240168 0 0.00635309)
(0.0236351 0 0.0068852)
(0.0232636 0 0.00729523)
(0.0228882 0 0.0075873)
(0.0224954 0 0.00776946)
(0.0220731 0 0.00785134)
(0.0216098 0 0.0078428)
(0.0210949 0 0.00775317)
(0.0205177 0 0.00759097)
(0.0198678 0 0.00736364)
(0.0191345 0 0.00707749)
(0.0183062 0 0.00673759)
(0.0173709 0 0.00634777)
(0.0163153 0 0.0059105)
(0.015125 0 0.00542688)
(0.013784 0 0.00489649)
(0.0122747 0 0.00431727)
(0.0105773 0 0.00368545)
(0.00866997 0 0.00299538)
(0.00652826 0 0.00223929)
(0.00412494 0 0.00140698)
(0.00142854 0 0.000485256)
(0.0277524 0 0.00253226)
(0.0272411 0 0.00236061)
(0.0265754 0 0.00257198)
(0.0258978 0 0.00325852)
(0.0252741 0 0.0042153)
(0.0247307 0 0.00523536)
(0.0242665 0 0.00618698)
(0.0238667 0 0.00700571)
(0.0235115 0 0.00766965)
(0.0231812 0 0.00817935)
(0.0228579 0 0.00854548)
(0.0225261 0 0.00878209)
(0.0221724 0 0.00890357)
(0.0217847 0 0.00892323)
(0.0213521 0 0.00885291)
(0.0208642 0 0.00870288)
(0.0203111 0 0.00848185)
(0.0196827 0 0.00819712)
(0.0189685 0 0.00785463)
(0.0181576 0 0.00745896)
(0.017238 0 0.00701337)
(0.016197 0 0.00651975)
(0.0150204 0 0.00597856)
(0.0136926 0 0.00538871)
(0.0121962 0 0.00474743)
(0.0105116 0 0.00405007)
(0.00861723 0 0.00329013)
(0.0064892 0 0.0024588)
(0.00410057 0 0.00154458)
(0.00142016 0 0.000532673)
(0.0266549 0 0.00235318)
(0.0262734 0 0.00204747)
(0.0255967 0 0.0027465)
(0.024912 0 0.00403422)
(0.0243297 0 0.00543821)
(0.0238646 0 0.00671321)
(0.0234945 0 0.00776958)
(0.0231889 0 0.00859587)
(0.0229201 0 0.00921183)
(0.0226657 0 0.00964556)
(0.0224075 0 0.00992423)
(0.022131 0 0.0100711)
(0.0218242 0 0.0101054)
(0.0214765 0 0.0100424)
(0.0210782 0 0.00989475)
(0.02062 0 0.00967239)
(0.0200927 0 0.00938352)
(0.0194869 0 0.00903463)
(0.0187929 0 0.00863081)
(0.018 0 0.00817578)
(0.0170969 0 0.00767197)
(0.0160711 0 0.00712047)
(0.0149089 0 0.00652096)
(0.0135948 0 0.00587154)
(0.0121119 0 0.0051686)
(0.0104409 0 0.0044065)
(0.00856044 0 0.00357791)
(0.00644704 0 0.00267293)
(0.00407419 0 0.00167873)
(0.00141109 0 0.000578892)
(0.0252762 0 -0.00117577)
(0.0247518 0 0.000624577)
(0.0240434 0 0.00313302)
(0.0234576 0 0.00547291)
(0.0230481 0 0.00736066)
(0.0227703 0 0.00878115)
(0.0225718 0 0.00980623)
(0.022412 0 0.0105207)
(0.0222629 0 0.0109956)
(0.0221055 0 0.0112842)
(0.0219258 0 0.011425)
(0.0217132 0 0.0114456)
(0.0214589 0 0.0113659)
(0.0211547 0 0.0112007)
(0.020793 0 0.0109611)
(0.0203658 0 0.0106556)
(0.0198653 0 0.0102909)
(0.0192829 0 0.00987197)
(0.0186094 0 0.00940256)
(0.017835 0 0.00888521)
(0.0169487 0 0.00832123)
(0.0159385 0 0.00771074)
(0.0147909 0 0.00705245)
(0.0134912 0 0.00634361)
(0.0120225 0 0.00557969)
(0.0103658 0 0.0047538)
(0.00849981 0 0.00385795)
(0.00640191 0 0.00288113)
(0.0040459 0 0.0018091)
(0.00140134 0 0.000623797)
(0.0237966 0 -0.00240013)
(0.0224685 0 0.00183381)
(0.0217835 0 0.00577111)
(0.0215306 0 0.00859046)
(0.0214902 0 0.0104344)
(0.0215218 0 0.0116109)
(0.021564 0 0.0123399)
(0.0215876 0 0.0127698)
(0.0215785 0 0.0129921)
(0.021529 0 0.013063)
(0.0214337 0 0.0130178)
(0.0212881 0 0.0128795)
(0.0210878 0 0.0126634)
(0.0208279 0 0.0123801)
(0.0205029 0 0.0120373)
(0.0201069 0 0.0116406)
(0.0196329 0 0.0111942)
(0.0190737 0 0.0107011)
(0.0184206 0 0.0101633)
(0.0176646 0 0.0095818)
(0.016795 0 0.00895664)
(0.0158004 0 0.00828678)
(0.0146677 0 0.00756992)
(0.0133825 0 0.00680235)
(0.0119287 0 0.00597866)
(0.0102867 0 0.00509026)
(0.00843567 0 0.00412892)
(0.00635403 0 0.00308242)
(0.00401582 0 0.00193508)
(0.00139098 0 0.000667193)
(0.0149939 0 0.0126778)
(0.0168503 0 0.0126771)
(0.0182352 0 0.0136495)
(0.0191526 0 0.0144961)
(0.0197879 0 0.015008)
(0.0202397 0 0.0152611)
(0.0205594 0 0.0153364)
(0.0207767 0 0.0152884)
(0.0209086 0 0.015149)
(0.0209651 0 0.0149379)
(0.0209514 0 0.0146673)
(0.0208701 0 0.0143449)
(0.0207214 0 0.0139757)
(0.0205037 0 0.0135632)
(0.0202138 0 0.0131095)
(0.0198474 0 0.0126163)
(0.0193989 0 0.0120847)
(0.0188619 0 0.011515)
(0.0182285 0 0.0109072)
(0.0174903 0 0.0102608)
(0.0166371 0 0.00957428)
(0.0156579 0 0.00884536)
(0.01454 0 0.00807065)
(0.0132694 0 0.00724548)
(0.0118309 0 0.00636386)
(0.0102038 0 0.00541586)
(0.00836782 0 0.00439078)
(0.00630323 0 0.00327679)
(0.00398382 0 0.00205665)
(0.00137991 0 0.000709042)
(0.00171933 0 0.000940167)
(0.00495648 0 0.00272562)
(0.00782716 0 0.00434095)
(0.0103718 0 0.00581814)
(0.0126273 0 0.00718263)
(0.0146275 0 0.00845601)
(0.0164012 0 0.00965504)
(0.017974 0 0.010793)
(0.019369 0 0.0118804)
(0.0206067 0 0.0129259)
(0.0217059 0 0.0139364)
(0.0226838 0 0.0149178)
(0.0235561 0 0.0158754)
(0.0243373 0 0.0168142)
(0.0250409 0 0.0177394)
(0.0256793 0 0.0186565)
(0.0262643 0 0.0195746)
(0.0268072 0 0.0205031)
(0.0273186 0 0.0214545)
(0.0278082 0 0.0224458)
(0.0282852 0 0.023501)
(0.0287569 0 0.0246517)
(0.0292293 0 0.025945)
(0.0297053 0 0.0274523)
(0.0301766 0 0.029287)
(0.0306084 0 0.0316315)
(0.0308968 0 0.0347749)
(0.0307793 0 0.0391239)
(0.0297451 0 0.0450044)
(0.0271311 0 0.0520795)
(0.00170672 0 0.000987993)
(0.00492049 0 0.00286442)
(0.0077712 0 0.00456265)
(0.0102977 0 0.00611596)
(0.0125374 0 0.00755203)
(0.0145241 0 0.00889404)
(0.0162863 0 0.0101599)
(0.017849 0 0.0113641)
(0.019235 0 0.0125183)
(0.0204644 0 0.0136323)
(0.0215556 0 0.0147144)
(0.0225251 0 0.015772)
(0.0233883 0 0.0168121)
(0.0241587 0 0.0178416)
(0.024849 0 0.0188684)
(0.0254704 0 0.0199011)
(0.0260332 0 0.0209515)
(0.0265463 0 0.0220333)
(0.0270173 0 0.0231643)
(0.0274518 0 0.0243679)
(0.0278528 0 0.0256748)
(0.0282192 0 0.0271252)
(0.0285423 0 0.0287803)
(0.0288029 0 0.0307179)
(0.0289603 0 0.033043)
(0.0289373 0 0.0358845)
(0.0286009 0 0.0393647)
(0.0277535 0 0.0435072)
(0.0261698 0 0.0480697)
(0.0235789 0 0.0525235)
(0.00169274 0 0.00103353)
(0.0048806 0 0.00299658)
(0.00770954 0 0.00477418)
(0.0102162 0 0.00640001)
(0.0124379 0 0.00790349)
(0.0144097 0 0.00931084)
(0.0161588 0 0.0106403)
(0.0177099 0 0.0119073)
(0.0190852 0 0.0131247)
(0.0203045 0 0.0143033)
(0.0213856 0 0.0154525)
(0.0223446 0 0.016581)
(0.0231959 0 0.0176971)
(0.0239524 0 0.0188095)
(0.0246256 0 0.0199273)
(0.0252256 0 0.0210616)
(0.025761 0 0.0222254)
(0.0262384 0 0.0234348)
(0.0266625 0 0.0247093)
(0.0270351 0 0.0260739)
(0.0273541 0 0.0275594)
(0.0276115 0 0.0292047)
(0.0277909 0 0.0310588)
(0.0278637 0 0.0331765)
(0.0277834 0 0.0356134)
(0.0274809 0 0.0384067)
(0.0268637 0 0.0415378)
(0.0258254 0 0.0448753)
(0.0242557 0 0.0481234)
(0.0219887 0 0.0507911)
(0.00167724 0 0.00107637)
(0.0048364 0 0.00312091)
(0.00764117 0 0.00497322)
(0.0101265 0 0.0066677)
(0.0123285 0 0.00823473)
(0.0142832 0 0.00970279)
(0.0160178 0 0.011092)
(0.0175558 0 0.0124178)
(0.0189188 0 0.013694)
(0.0201263 0 0.0149325)
(0.0211954 0 0.0161434)
(0.0221416 0 0.0173363)
(0.0229787 0 0.0185206)
(0.0237186 0 0.0197058)
(0.0243718 0 0.0209021)
(0.0249472 0 0.0221213)
(0.0254517 0 0.0233768)
(0.0258902 0 0.0246845)
(0.0262649 0 0.0260632)
(0.0265749 0 0.0275349)
(0.0268147 0 0.0291252)
(0.0269735 0 0.0308627)
(0.0270326 0 0.0327771)
(0.0269643 0 0.0348927)
(0.0267301 0 0.0372189)
(0.0262812 0 0.0397328)
(0.0255634 0 0.0423552)
(0.0245238 0 0.0449253)
(0.0231173 0 0.0471789)
(0.021312 0 0.0487145)
(0.00166009 0 0.00111607)
(0.00478748 0 0.00323615)
(0.00756537 0 0.00515772)
(0.0100272 0 0.00691583)
(0.0122084 0 0.0085425)
(0.0141446 0 0.010067)
(0.0158625 0 0.0115107)
(0.0173859 0 0.0128907)
(0.0187351 0 0.0142207)
(0.0199292 0 0.0155133)
(0.0209846 0 0.0167794)
(0.0219163 0 0.0180292)
(0.0227371 0 0.0192725)
(0.0234584 0 0.0205191)
(0.0240896 0 0.0217796)
(0.0246385 0 0.0230653)
(0.0251108 0 0.0243889)
(0.0255098 0 0.0257646)
(0.0258364 0 0.0272079)
(0.0260879 0 0.0287358)
(0.026258 0 0.0303654)
(0.0263355 0 0.0321125)
(0.0263039 0 0.0339882)
(0.026141 0 0.0359917)
(0.0258198 0 0.038103)
(0.0253108 0 0.0402711)
(0.0245864 0 0.0424018)
(0.0236274 0 0.044348)
(0.0224312 0 0.0459024)
(0.021038 0 0.0467917)
(0.0016412 0 0.00115223)
(0.00473355 0 0.00334106)
(0.00748131 0 0.00532546)
(0.00991758 0 0.00714152)
(0.0120767 0 0.00882293)
(0.0139934 0 0.0103997)
(0.0156933 0 0.0118928)
(0.0172 0 0.0133209)
(0.0185338 0 0.0146988)
(0.019713 0 0.0160393)
(0.0207533 0 0.0173534)
(0.0216689 0 0.0186515)
(0.0224721 0 0.0199435)
(0.0231735 0 0.0212392)
(0.0237817 0 0.0225485)
(0.0243036 0 0.0238819)
(0.024744 0 0.0252501)
(0.0251054 0 0.0266645)
(0.0253879 0 0.0281364)
(0.0255885 0 0.0296765)
(0.0257015 0 0.0312933)
(0.0257174 0 0.0329912)
(0.0256236 0 0.0347665)
(0.0254048 0 0.0366027)
(0.0250448 0 0.0384652)
(0.0245288 0 0.0402951)
(0.0238472 0 0.0420042)
(0.0230011 0 0.0434735)
(0.0220098 0 0.0445557)
(0.0209302 0 0.045086)
(0.00162074 0 0.0011844)
(0.00467483 0 0.00343421)
(0.0073884 0 0.0054735)
(0.00979674 0 0.00734152)
(0.011933 0 0.00907287)
(0.0138287 0 0.0106963)
(0.0155097 0 0.0122341)
(0.0169985 0 0.0137046)
(0.0183154 0 0.0151235)
(0.0194779 0 0.0165041)
(0.0205019 0 0.0178584)
(0.0214003 0 0.0191955)
(0.022185 0 0.0205255)
(0.0228659 0 0.0218574)
(0.023451 0 0.0232003)
(0.0239466 0 0.0245628)
(0.024357 0 0.0259535)
(0.0246844 0 0.0273803)
(0.0249287 0 0.0288502)
(0.0250878 0 0.0303678)
(0.0251571 0 0.0319342)
(0.02513 0 0.0335451)
(0.0249984 0 0.0351875)
(0.0247534 0 0.0368368)
(0.0243872 0 0.0384539)
(0.0238953 0 0.039983)
(0.0232794 0 0.0413501)
(0.0225511 0 0.0424662)
(0.0217366 0 0.0432334)
(0.0208871 0 0.0435585)
(0.0015985 0 0.001212)
(0.00461119 0 0.00351426)
(0.00728886 0 0.00560154)
(0.00966688 0 0.007515)
(0.0117777 0 0.00928939)
(0.0136507 0 0.0109532)
(0.0153112 0 0.0125292)
(0.0167812 0 0.0140362)
(0.0180801 0 0.0154899)
(0.0192249 0 0.016903)
(0.0202311 0 0.018288)
(0.0211117 0 0.0196545)
(0.0218776 0 0.0210117)
(0.0225381 0 0.0223671)
(0.0231009 0 0.0237287)
(0.0235719 0 0.0251032)
(0.0239552 0 0.0264967)
(0.0242531 0 0.0279138)
(0.0244662 0 0.0293573)
(0.0245933 0 0.0308269)
(0.0246318 0 0.0323182)
(0.024578 0 0.0338213)
(0.0244279 0 0.0353184)
(0.0241778 0 0.0367822)
(0.0238261 0 0.0381753)
(0.0233749 0 0.0394495)
(0.022832 0 0.0405471)
(0.022213 0 0.041405)
(0.0215434 0 0.0419612)
(0.0208633 0 0.042165)
(0.00157442 0 0.00123472)
(0.00454254 0 0.00358036)
(0.00718207 0 0.00570786)
(0.00952768 0 0.00765926)
(0.0116108 0 0.00946942)
(0.0134594 0 0.0111668)
(0.015098 0 0.0127743)
(0.0165479 0 0.0143108)
(0.017828 0 0.0157919)
(0.0189549 0 0.0172305)
(0.0199429 0 0.0186379)
(0.0208049 0 0.0200237)
(0.0215517 0 0.0213964)
(0.0221924 0 0.0227631)
(0.0227344 0 0.0241298)
(0.0231832 0 0.0255012)
(0.023543 0 0.0268807)
(0.0238166 0 0.0282703)
(0.0240055 0 0.0296693)
(0.0241098 0 0.0310738)
(0.0241288 0 0.0324759)
(0.0240616 0 0.0338627)
(0.0239073 0 0.0352147)
(0.0236664 0 0.0365057)
(0.0233413 0 0.0377027)
(0.0229379 0 0.0387669)
(0.0224667 0 0.0396554)
(0.0219436 0 0.040325)
(0.0213904 0 0.0407379)
(0.0208373 0 0.0408677)
(0.00154857 0 0.00125219)
(0.00446901 0 0.0036314)
(0.00706803 0 0.00579047)
(0.00937912 0 0.00777172)
(0.0114326 0 0.00960996)
(0.0132552 0 0.0113335)
(0.0148705 0 0.0129652)