/*--------------------------------*- C++ -*----------------------------------*\
| =========                 |                                                 |
| \\      /  F ield         | OpenFOAM: The Open Source CFD Toolbox           |
|  \\    /   O peration     | Version:  dev                                   |
|   \\  /    A nd           | Web:      www.OpenFOAM.org                      |
|    \\/     M anipulation  |                                                 |
\*---------------------------------------------------------------------------*/
FoamFile
{
    version     2.0;
    format      ascii;
    class       volVectorField;
    location    "0.28";
    object      Force;
}
// * * * * * * * * * * * * * * * * * * * * * * * * * * * * * * * * * * * * * //

dimensions      [1 1 -2 0 0 0 0];

internalField   uniform (0 0 0);

boundaryField
{
    inlet
    {
        type            calculated;
        value           uniform (0 0 0);
    }
    outlet
    {
        type            calculated;
        value           uniform (0 0 0);
    }
    flap
    {
        type            calculated;
        value           nonuniform List<vector> 
33
(
(2.34783 -9.62692e-23 -0.0541671)
(2.33473 -1.68996e-17 -0.101781)
(2.31946 4.77109e-23 -0.134379)
(2.29981 1.79897e-17 -0.146466)
(2.27538 -1.54634e-18 -0.143982)
(2.24434 -1.52859e-18 -0.131688)
(2.20476 -3.7371e-22 -0.112058)
(2.15552 1.52354e-17 -0.0862542)
(2.0938 1.5937e-17 -0.0569921)
(2.01422 -1.91418e-22 -0.0278906)
(1.90745 1.5938e-17 -0.00213012)
(1.75811 1.60527e-17 0.017348)
(1.53607 -3.50824e-23 0.0276557)
(1.17397 -4.12958e-23 0.0280234)
(0.479925 9.03579e-23 0.0170526)
(-0.0260509 9.64787e-23 1.66576)
(-0.0293152 8.02171e-18 1.45962)
(-0.0201061 1.4871e-22 1.17048)
(1.64369 0 -0.0389342)
(1.6532 -1.51343e-17 -0.0720899)
(1.66962 1.48164e-17 -0.0963963)
(1.69656 -1.155e-18 -0.107359)
(1.73424 4.4081e-39 -0.10897)
(1.78271 -1.74851e-22 -0.10365)
(1.84031 -3.31713e-17 -0.0924311)
(1.90173 3.33236e-17 -0.0750338)
(1.95935 -1.73594e-17 -0.0526146)
(2.00451 3.36202e-19 -0.0277634)
(2.03012 -4.26017e-20 -0.00321945)
(2.032 -3.70296e-23 0.0176998)
(2.00985 3.38883e-19 0.0320839)
(1.9686 -1.0013e-22 0.0387386)
(1.91586 1.61997e-17 0.0380833)
)
;
    }
    upperWall
    {
        type            calculated;
        value           uniform (0 0 0);
    }
    lowerWall
    {
        type            calculated;
        value           uniform (0 0 0);
    }
    frontAndBack
    {
        type            empty;
    }
}


// ************************************************************************* //
