/*--------------------------------*- C++ -*----------------------------------*\
| =========                 |                                                 |
| \\      /  F ield         | OpenFOAM: The Open Source CFD Toolbox           |
|  \\    /   O peration     | Version:  dev                                   |
|   \\  /    A nd           | Web:      www.OpenFOAM.org                      |
|    \\/     M anipulation  |                                                 |
\*---------------------------------------------------------------------------*/
FoamFile
{
    version     2.0;
    format      ascii;
    class       pointVectorField;
    location    "1.14";
    object      pointDisplacement;
}
// * * * * * * * * * * * * * * * * * * * * * * * * * * * * * * * * * * * * * //

dimensions      [0 1 0 0 0 0 0];

internalField   nonuniform List<vector> 
1030
(
(0 0 0)
(0.0218171 0 0)
(0.0411971 0 0)
(0.0575928 0 0)
(0.071304 0 0)
(0.0826159 0 0)
(0.0917734 0 0)
(0.0989895 0 0)
(0.104451 0 0)
(0.10832 0 0)
(0.110738 0 0)
(0.11183 0 0)
(0.111706 0 0)
(0.110464 0 0)
(0.108193 0 0)
(0.104972 0 0)
(0.100874 0 0)
(0.095971 0 0)
(0.0903317 0 0)
(0.0840254 0 0)
(0.0771236 0 0)
(0.0697026 0 0)
(0 0 0)
(0.0218316 0 -0.000154835)
(0.0412257 0 -0.000294511)
(0.0576352 0 -0.000416916)
(0.0713611 0 -0.000525021)
(0.0826893 0 -0.000621236)
(0.0918649 0 -0.000707124)
(0.0991008 0 -0.000783419)
(0.104584 0 -0.000850383)
(0.108479 0 -0.000908064)
(0.110925 0 -0.00095633)
(0.112048 0 -0.000994281)
(0.111959 0 -0.00102067)
(0.110759 0 -0.00103423)
(0.108534 0 -0.001033)
(0.105366 0 -0.0010146)
(0.101328 0 -0.000976137)
(0.0964934 0 -0.000914325)
(0.0909327 0 -0.000825252)
(0.0847169 0 -0.000704123)
(0.0779198 0 -0.000545274)
(0.0706212 0 -0.000342017)
(0 0 0)
(0.0218768 0 -0.000309922)
(0.0413144 0 -0.00058961)
(0.0577652 0 -0.000834806)
(0.0715345 0 -0.00105144)
(0.0829112 0 -0.0012444)
(0.0921402 0 -0.0014169)
(0.0994349 0 -0.00157037)
(0.104984 0 -0.00170529)
(0.108952 0 -0.00182175)
(0.111482 0 -0.00191854)
(0.112699 0 -0.00199497)
(0.112718 0 -0.00204967)
(0.111639 0 -0.00207931)
(0.109553 0 -0.00208005)
(0.106543 0 -0.00204727)
(0.102684 0 -0.00197532)
(0.0980534 0 -0.00185801)
(0.0927265 0 -0.00168796)
(0.0867795 0 -0.00145606)
(0.0802932 0 -0.00115167)
(0.0733557 0 -0.000762375)
(0 0 0)
(0.0219522 0 -0.000465153)
(0.041462 0 -0.000884725)
(0.0579804 0 -0.00125251)
(0.071821 0 -0.00157779)
(0.0832778 0 -0.00186787)
(0.0925952 0 -0.00212772)
(0.0999864 0 -0.00235938)
(0.105643 0 -0.00256352)
(0.109733 0 -0.00274061)
(0.112401 0 -0.00288911)
(0.113775 0 -0.00300795)
(0.113973 0 -0.00309503)
(0.113096 0 -0.00314571)
(0.111239 0 -0.00315468)
(0.10849 0 -0.00311543)
(0.104928 0 -0.0030197)
(0.100634 0 -0.00285915)
(0.0956925 0 -0.00262398)
(0.0901892 0 -0.00230148)
(0.0842152 0 -0.00187748)
(0.0778726 0 -0.00133573)
(0 0 0)
(0.0220527 0 -0.00062039)
(0.0416591 0 -0.00117959)
(0.0582743 0 -0.00166986)
(0.0722173 0 -0.00210415)
(0.0837863 0 -0.00249183)
(0.0932256 0 -0.00283925)
(0.100749 0 -0.00314959)
(0.106554 0 -0.00342451)
(0.110813 0 -0.00366471)
(0.113673 0 -0.00386891)
(0.115264 0 -0.00403519)
(0.115707 0 -0.0041603)
(0.115108 0 -0.00423908)
(0.113568 0 -0.00426531)
(0.11118 0 -0.00423137)
(0.10803 0 -0.00412738)
(0.104204 0 -0.00394273)
(0.0997945 0 -0.0036654)
(0.0949012 0 -0.00328129)
(0.0896304 0 -0.00277473)
(0.0841012 0 -0.00212804)
(0 0 0)
(0.0221775 0 -0.000775155)
(0.041904 0 -0.00147407)
(0.0586447 0 -0.00208745)
(0.0727204 0 -0.00263148)
(0.0844298 0 -0.00311766)
(0.0940219 0 -0.00355322)
(0.101715 0 -0.00394339)
(0.107711 0 -0.00429155)
(0.112184 0 -0.0045982)
(0.115285 0 -0.00486219)
(0.117151 0 -0.0050812)
(0.117903 0 -0.00525142)
(0.117655 0 -0.0053672)
(0.116514 0 -0.00542206)
(0.114581 0 -0.0054081)
(0.111953 0 -0.00531531)
(0.10872 0 -0.00513074)
(0.10498 0 -0.00484007)
(0.100853 0 -0.00443062)
(0.0964638 0 -0.00388796)
(0.0919515 0 -0.00319547)
(0 0 0)
(0.02233 0 -0.000929043)
(0.042202 0 -0.00176732)
(0.0590913 0 -0.0025039)
(0.0733242 0 -0.00315803)
(0.0852006 0 -0.00374354)
(0.0949759 0 -0.00426938)
(0.102875 0 -0.00474241)
(0.109102 0 -0.00516704)
(0.113833 0 -0.00554416)
(0.117225 0 -0.005873)
(0.119418 0 -0.00615124)
(0.120541 0 -0.00637495)
(0.120712 0 -0.00653808)
(0.120044 0 -0.00663464)
(0.118652 0 -0.00665731)
(0.11664 0 -0.00659594)
(0.114111 0 -0.00643767)
(0.111174 0 -0.00616848)
(0.10796 0 -0.00577692)
(0.104616 0 -0.00525143)
(0.101304 0 -0.00457994)
(0 0 0)
(0.0225092 0 -0.00108197)
(0.0425488 0 -0.00205858)
(0.0596081 0 -0.00291778)
(0.0740219 0 -0.00368207)
(0.0860922 0 -0.0043677)
(0.0960807 0 -0.00498588)
(0.104218 0 -0.0055446)
(0.11071 0 -0.0060489)
(0.115738 0 -0.00650073)
(0.119464 0 -0.00689994)
(0.122035 0 -0.00724459)
(0.123584 0 -0.00753127)
(0.124239 0 -0.00775464)
(0.124119 0 -0.00790869)
(0.123345 0 -0.00798661)
(0.122035 0 -0.00797933)
(0.120309 0 -0.00787615)
(0.11829 0 -0.00766612)
(0.116123 0 -0.00733962)
(0.113971 0 -0.00688906)
(0.112022 0 -0.00630989)
(0 0 0)
(0.0227048 0 -0.0012336)
(0.0429363 0 -0.00234788)
(0.0601905 0 -0.00332961)
(0.0748087 0 -0.0042044)
(0.0870981 0 -0.00499114)
(0.097327 0 -0.00570316)
(0.105731 0 -0.00634981)
(0.112521 0 -0.00693716)
(0.117882 0 -0.00746824)
(0.121982 0 -0.00794375)
(0.124973 0 -0.00836245)
(0.127 0 -0.00872221)
(0.128198 0 -0.00901974)
(0.128689 0 -0.00924794)
(0.128603 0 -0.00940066)
(0.128075 0 -0.00947253)
(0.127237 0 -0.00945542)
(0.126234 0 -0.0093426)
(0.125223 0 -0.00912861)
(0.124385 0 -0.00881152)
(0.123941 0 -0.00839775)
(0 0 0)
(0.0229148 0 -0.00138384)
(0.0433617 0 -0.00263537)
(0.0608344 0 -0.00373967)
(0.0756788 0 -0.00472548)
(0.0882108 0 -0.00561445)
(0.098705 0 -0.00642206)
(0.107403 0 -0.00715918)
(0.114519 0 -0.00783312)
(0.120246 0 -0.00844824)
(0.124756 0 -0.00900629)
(0.128207 0 -0.00950675)
(0.130753 0 -0.00994938)
(0.132539 0 -0.010333)
(0.133696 0 -0.0106514)
(0.13436 0 -0.0109)
(0.134679 0 -0.0110762)
(0.1348 0 -0.0111758)
(0.134892 0 -0.0111986)
(0.135128 0 -0.0111446)
(0.135703 0 -0.0110185)
(0.136865 0 -0.0108383)
(0 0 0)
(0.0231452 0 -0.00153245)
(0.0438241 0 -0.00291999)
(0.0615322 0 -0.00414617)
(0.0766215 0 -0.00524297)
(0.0894162 0 -0.00623485)
(0.100197 0 -0.00713942)
(0.109211 0 -0.00796923)
(0.116679 0 -0.00873301)
(0.122799 0 -0.00943671)
(0.12775 0 -0.0100835)
(0.131696 0 -0.0106744)
(0.134799 0 -0.0112106)
(0.137211 0 -0.0116922)
(0.139078 0 -0.0121171)
(0.140542 0 -0.012482)
(0.141758 0 -0.0127865)
(0.142897 0 -0.0130337)
(0.144143 0 -0.0132284)
(0.145685 0 -0.0133772)
(0.147746 0 -0.0134964)
(0.150587 0 -0.0136136)
(0 0 0)
(0.023393 0 -0.00167915)
(0.044319 0 -0.00320112)
(0.0622775 0 -0.00454825)
(0.0776284 0 -0.00575582)
(0.0907034 0 -0.00685108)
(0.10179 0 -0.00785384)
(0.11114 0 -0.00877837)
(0.11898 0 -0.00963498)
(0.125516 0 -0.0104315)
(0.130933 0 -0.0111731)
(0.135405 0 -0.0118632)
(0.139095 0 -0.0125029)
(0.142162 0 -0.0130942)
(0.144767 0 -0.0136394)
(0.147062 0 -0.0141383)
(0.149212 0 -0.0145944)
(0.151413 0 -0.0150177)
(0.153851 0 -0.0154175)
(0.156729 0 -0.0158077)
(0.160304 0 -0.016217)
(0.164859 0 -0.0166866)
(0 0 0)
(0.0236561 0 -0.00182391)
(0.0448428 0 -0.00347879)
(0.0630652 0 -0.00494595)
(0.0786921 0 -0.00626405)
(0.0920631 0 -0.00746316)
(0.103471 0 -0.00856532)
(0.113174 0 -0.00958655)
(0.121404 0 -0.0105386)
(0.128375 0 -0.0114319)
(0.134278 0 -0.0122737)
(0.139292 0 -0.0130684)
(0.143587 0 -0.0138199)
(0.147331 0 -0.0145322)
(0.15069 0 -0.0152097)
(0.153835 0 -0.0158589)
(0.156947 0 -0.0164881)
(0.16022 0 -0.0171103)
(0.163854 0 -0.0177411)
(0.16808 0 -0.0184061)
(0.173163 0 -0.0191427)
(0.179404 0 -0.020004)
(0 0 0)
(0.0239306 0 -0.00196591)
(0.0453886 0 -0.00375145)
(0.0638855 0 -0.0053371)
(0.0797997 0 -0.00676485)
(0.0934788 0 -0.00806769)
(0.105222 0 -0.00926991)
(0.11529 0 -0.0103893)
(0.123923 0 -0.0114398)
(0.131345 0 -0.012434)
(0.137748 0 -0.0133804)
(0.143313 0 -0.0142846)
(0.148226 0 -0.0151552)
(0.152661 0 -0.0159986)
(0.156785 0 -0.0168208)
(0.160785 0 -0.0176333)
(0.164856 0 -0.0184509)
(0.169192 0 -0.0192896)
(0.173998 0 -0.0201708)
(0.179538 0 -0.0211331)
(0.18609 0 -0.0222243)
(0.193947 0 -0.0235038)
(0 0 0)
(0.0242137 0 -0.00210471)
(0.0459514 0 -0.00401829)
(0.064731 0 -0.00572047)
(0.0809411 0 -0.0072566)
(0.094938 0 -0.00866266)
(0.107025 0 -0.00996525)
(0.117469 0 -0.011184)
(0.126518 0 -0.0123355)
(0.1344 0 -0.0134338)
(0.141309 0 -0.0144884)
(0.147433 0 -0.0155078)
(0.152968 0 -0.0165034)
(0.158089 0 -0.0174838)
(0.162978 0 -0.0184598)
(0.167825 0 -0.0194464)
(0.172827 0 -0.020461)
(0.178187 0 -0.0215265)
(0.184133 0 -0.0226739)
(0.190923 0 -0.0239462)
(0.198844 0 -0.0254014)
(0.208185 0 -0.0271067)
(0 0 0)
(0.0245068 0 -0.00224153)
(0.0465333 0 -0.00428154)
(0.065604 0 -0.0060992)
(0.0821191 0 -0.0077432)
(0.0964444 0 -0.00925272)
(0.108888 0 -0.0106567)
(0.119718 0 -0.0119764)
(0.12919 0 -0.0132309)
(0.137539 0 -0.0144358)
(0.14496 0 -0.0156023)
(0.15165 0 -0.016742)
(0.157805 0 -0.0178676)
(0.163608 0 -0.0189909)
(0.16925 0 -0.0201273)
(0.174926 0 -0.0212954)
(0.180829 0 -0.0225152)
(0.187168 0 -0.0238142)
(0.194189 0 -0.0252339)
(0.202134 0 -0.0268193)
(0.211277 0 -0.0286329)
(0.221913 0 -0.0307524)
(0 0 0)
(0.0218171 0 0)
(0.0411971 0 0)
(0.0575928 0 0)
(0.071304 0 0)
(0.0826159 0 0)
(0.0917734 0 0)
(0.0989895 0 0)
(0.104451 0 0)
(0.10832 0 0)
(0.110738 0 0)
(0.11183 0 0)
(0.111706 0 0)
(0.110464 0 0)
(0.108193 0 0)
(0.104972 0 0)
(0.100874 0 0)
(0.095971 0 0)
(0.0903317 0 0)
(0.0840254 0 0)
(0.0771236 0 0)
(0.0697026 0 0)
(0 0 0)
(0.0218316 0 -0.000154835)
(0.0412257 0 -0.000294511)
(0.0576352 0 -0.000416916)
(0.0713611 0 -0.000525021)
(0.0826893 0 -0.000621236)
(0.0918649 0 -0.000707124)
(0.0991008 0 -0.000783419)
(0.104584 0 -0.000850383)
(0.108479 0 -0.000908064)
(0.110925 0 -0.00095633)
(0.112048 0 -0.000994281)
(0.111959 0 -0.00102067)
(0.110759 0 -0.00103423)
(0.108534 0 -0.001033)
(0.105366 0 -0.0010146)
(0.101328 0 -0.000976137)
(0.0964934 0 -0.000914325)
(0.0909327 0 -0.000825252)
(0.0847169 0 -0.000704123)
(0.0779198 0 -0.000545274)
(0.0706212 0 -0.000342017)
(0 0 0)
(0.0218768 0 -0.000309922)
(0.0413144 0 -0.00058961)
(0.0577652 0 -0.000834806)
(0.0715345 0 -0.00105144)
(0.0829112 0 -0.0012444)
(0.0921402 0 -0.0014169)
(0.0994349 0 -0.00157037)
(0.104984 0 -0.00170529)
(0.108952 0 -0.00182175)
(0.111482 0 -0.00191854)
(0.112699 0 -0.00199497)
(0.112718 0 -0.00204967)
(0.111639 0 -0.00207931)
(0.109553 0 -0.00208005)
(0.106543 0 -0.00204727)
(0.102684 0 -0.00197532)
(0.0980534 0 -0.00185801)
(0.0927265 0 -0.00168796)
(0.0867795 0 -0.00145606)
(0.0802932 0 -0.00115167)
(0.0733557 0 -0.000762375)
(0 0 0)
(0.0219522 0 -0.000465153)
(0.041462 0 -0.000884725)
(0.0579804 0 -0.00125251)
(0.071821 0 -0.00157779)
(0.0832778 0 -0.00186787)
(0.0925952 0 -0.00212772)
(0.0999864 0 -0.00235938)
(0.105643 0 -0.00256352)
(0.109733 0 -0.00274061)
(0.112401 0 -0.00288911)
(0.113775 0 -0.00300795)
(0.113973 0 -0.00309503)
(0.113096 0 -0.00314571)
(0.111239 0 -0.00315468)
(0.10849 0 -0.00311543)
(0.104928 0 -0.0030197)
(0.100634 0 -0.00285915)
(0.0956925 0 -0.00262398)
(0.0901892 0 -0.00230148)
(0.0842152 0 -0.00187748)
(0.0778726 0 -0.00133573)
(0 0 0)
(0.0220527 0 -0.00062039)
(0.0416591 0 -0.00117959)
(0.0582743 0 -0.00166986)
(0.0722173 0 -0.00210415)
(0.0837863 0 -0.00249183)
(0.0932256 0 -0.00283925)
(0.100749 0 -0.00314959)
(0.106554 0 -0.00342451)
(0.110813 0 -0.00366471)
(0.113673 0 -0.00386891)
(0.115264 0 -0.00403519)
(0.115707 0 -0.0041603)
(0.115108 0 -0.00423908)
(0.113568 0 -0.00426531)
(0.11118 0 -0.00423137)
(0.10803 0 -0.00412738)
(0.104204 0 -0.00394273)
(0.0997945 0 -0.0036654)
(0.0949012 0 -0.00328129)
(0.0896304 0 -0.00277473)
(0.0841012 0 -0.00212804)
(0 0 0)
(0.0221775 0 -0.000775155)
(0.041904 0 -0.00147407)
(0.0586447 0 -0.00208745)
(0.0727204 0 -0.00263148)
(0.0844298 0 -0.00311766)
(0.0940219 0 -0.00355322)
(0.101715 0 -0.00394339)
(0.107711 0 -0.00429155)
(0.112184 0 -0.0045982)
(0.115285 0 -0.00486219)
(0.117151 0 -0.0050812)
(0.117903 0 -0.00525142)
(0.117655 0 -0.0053672)
(0.116514 0 -0.00542206)
(0.114581 0 -0.0054081)
(0.111953 0 -0.00531531)
(0.10872 0 -0.00513074)
(0.10498 0 -0.00484007)
(0.100853 0 -0.00443062)
(0.0964638 0 -0.00388796)
(0.0919515 0 -0.00319547)
(0 0 0)
(0.02233 0 -0.000929043)
(0.042202 0 -0.00176732)
(0.0590913 0 -0.0025039)
(0.0733242 0 -0.00315803)
(0.0852006 0 -0.00374354)
(0.0949759 0 -0.00426938)
(0.102875 0 -0.00474241)
(0.109102 0 -0.00516704)
(0.113833 0 -0.00554416)
(0.117225 0 -0.005873)
(0.119418 0 -0.00615124)
(0.120541 0 -0.00637495)
(0.120712 0 -0.00653808)
(0.120044 0 -0.00663464)
(0.118652 0 -0.00665731)
(0.11664 0 -0.00659594)
(0.114111 0 -0.00643767)
(0.111174 0 -0.00616848)
(0.10796 0 -0.00577692)
(0.104616 0 -0.00525143)
(0.101304 0 -0.00457994)
(0 0 0)
(0.0225092 0 -0.00108197)
(0.0425488 0 -0.00205858)
(0.0596081 0 -0.00291778)
(0.0740219 0 -0.00368207)
(0.0860922 0 -0.0043677)
(0.0960807 0 -0.00498588)
(0.104218 0 -0.0055446)
(0.11071 0 -0.0060489)
(0.115738 0 -0.00650073)
(0.119464 0 -0.00689994)
(0.122035 0 -0.00724459)
(0.123584 0 -0.00753127)
(0.124239 0 -0.00775464)
(0.124119 0 -0.00790869)
(0.123345 0 -0.00798661)
(0.122035 0 -0.00797933)
(0.120309 0 -0.00787615)
(0.11829 0 -0.00766612)
(0.116123 0 -0.00733962)
(0.113971 0 -0.00688906)
(0.112022 0 -0.00630989)
(0 0 0)
(0.0227048 0 -0.0012336)
(0.0429363 0 -0.00234788)
(0.0601905 0 -0.00332961)
(0.0748087 0 -0.0042044)
(0.0870981 0 -0.00499114)
(0.097327 0 -0.00570316)
(0.105731 0 -0.00634981)
(0.112521 0 -0.00693716)
(0.117882 0 -0.00746824)
(0.121982 0 -0.00794375)
(0.124973 0 -0.00836245)
(0.127 0 -0.00872221)
(0.128198 0 -0.00901974)
(0.128689 0 -0.00924794)
(0.128603 0 -0.00940066)
(0.128075 0 -0.00947253)
(0.127237 0 -0.00945542)
(0.126234 0 -0.0093426)
(0.125223 0 -0.00912861)
(0.124385 0 -0.00881152)
(0.123941 0 -0.00839775)
(0 0 0)
(0.0229148 0 -0.00138384)
(0.0433617 0 -0.00263537)
(0.0608344 0 -0.00373967)
(0.0756788 0 -0.00472548)
(0.0882108 0 -0.00561445)
(0.098705 0 -0.00642206)
(0.107403 0 -0.00715918)
(0.114519 0 -0.00783312)
(0.120246 0 -0.00844824)
(0.124756 0 -0.00900629)
(0.128207 0 -0.00950675)
(0.130753 0 -0.00994938)
(0.132539 0 -0.010333)
(0.133696 0 -0.0106514)
(0.13436 0 -0.0109)
(0.134679 0 -0.0110762)
(0.1348 0 -0.0111758)
(0.134892 0 -0.0111986)
(0.135128 0 -0.0111446)
(0.135703 0 -0.0110185)
(0.136865 0 -0.0108383)
(0 0 0)
(0.0231452 0 -0.00153245)
(0.0438241 0 -0.00291999)
(0.0615322 0 -0.00414617)
(0.0766215 0 -0.00524297)
(0.0894162 0 -0.00623485)
(0.100197 0 -0.00713942)
(0.109211 0 -0.00796923)
(0.116679 0 -0.00873301)
(0.122799 0 -0.00943671)
(0.12775 0 -0.0100835)
(0.131696 0 -0.0106744)
(0.134799 0 -0.0112106)
(0.137211 0 -0.0116922)
(0.139078 0 -0.0121171)
(0.140542 0 -0.012482)
(0.141758 0 -0.0127865)
(0.142897 0 -0.0130337)
(0.144143 0 -0.0132284)
(0.145685 0 -0.0133772)
(0.147746 0 -0.0134964)
(0.150587 0 -0.0136136)
(0 0 0)
(0.023393 0 -0.00167915)
(0.044319 0 -0.00320112)
(0.0622775 0 -0.00454825)
(0.0776284 0 -0.00575582)
(0.0907034 0 -0.00685108)
(0.10179 0 -0.00785384)
(0.11114 0 -0.00877837)
(0.11898 0 -0.00963498)
(0.125516 0 -0.0104315)
(0.130933 0 -0.0111731)
(0.135405 0 -0.0118632)
(0.139095 0 -0.0125029)
(0.142162 0 -0.0130942)
(0.144767 0 -0.0136394)
(0.147062 0 -0.0141383)
(0.149212 0 -0.0145944)
(0.151413 0 -0.0150177)
(0.153851 0 -0.0154175)
(0.156729 0 -0.0158077)
(0.160304 0 -0.016217)
(0.164859 0 -0.0166866)
(0 0 0)
(0.0236561 0 -0.00182391)
(0.0448428 0 -0.00347879)
(0.0630652 0 -0.00494595)
(0.0786921 0 -0.00626405)
(0.0920631 0 -0.00746316)
(0.103471 0 -0.00856532)
(0.113174 0 -0.00958655)
(0.121404 0 -0.0105386)
(0.128375 0 -0.0114319)
(0.134278 0 -0.0122737)
(0.139292 0 -0.0130684)
(0.143587 0 -0.0138199)
(0.147331 0 -0.0145322)
(0.15069 0 -0.0152097)
(0.153835 0 -0.0158589)
(0.156947 0 -0.0164881)
(0.16022 0 -0.0171103)
(0.163854 0 -0.0177411)
(0.16808 0 -0.0184061)
(0.173163 0 -0.0191427)
(0.179404 0 -0.020004)
(0 0 0)
(0.0239306 0 -0.00196591)
(0.0453886 0 -0.00375145)
(0.0638855 0 -0.0053371)
(0.0797997 0 -0.00676485)
(0.0934788 0 -0.00806769)
(0.105222 0 -0.00926991)
(0.11529 0 -0.0103893)
(0.123923 0 -0.0114398)
(0.131345 0 -0.012434)
(0.137748 0 -0.0133804)
(0.143313 0 -0.0142846)
(0.148226 0 -0.0151552)
(0.152661 0 -0.0159986)
(0.156785 0 -0.0168208)
(0.160785 0 -0.0176333)
(0.164856 0 -0.0184509)
(0.169192 0 -0.0192896)
(0.173998 0 -0.0201708)
(0.179538 0 -0.0211331)
(0.18609 0 -0.0222243)
(0.193947 0 -0.0235038)
(0 0 0)
(0.0242137 0 -0.00210471)
(0.0459514 0 -0.00401829)
(0.064731 0 -0.00572047)
(0.0809411 0 -0.0072566)
(0.094938 0 -0.00866266)
(0.107025 0 -0.00996525)
(0.117469 0 -0.011184)
(0.126518 0 -0.0123355)
(0.1344 0 -0.0134338)
(0.141309 0 -0.0144884)
(0.147433 0 -0.0155078)
(0.152968 0 -0.0165034)
(0.158089 0 -0.0174838)
(0.162978 0 -0.0184598)
(0.167825 0 -0.0194464)
(0.172827 0 -0.020461)
(0.178187 0 -0.0215265)
(0.184133 0 -0.0226739)
(0.190923 0 -0.0239462)
(0.198844 0 -0.0254014)
(0.208185 0 -0.0271067)
(0 0 0)
(0.0245068 0 -0.00224153)
(0.0465333 0 -0.00428154)
(0.065604 0 -0.0060992)
(0.0821191 0 -0.0077432)
(0.0964444 0 -0.00925272)
(0.108888 0 -0.0106567)
(0.119718 0 -0.0119764)
(0.12919 0 -0.0132309)
(0.137539 0 -0.0144358)
(0.14496 0 -0.0156023)
(0.15165 0 -0.016742)
(0.157805 0 -0.0178676)
(0.163608 0 -0.0189909)
(0.16925 0 -0.0201273)
(0.174926 0 -0.0212954)
(0.180829 0 -0.0225152)
(0.187168 0 -0.0238142)
(0.194189 0 -0.0252339)
(0.202134 0 -0.0268193)
(0.211277 0 -0.0286329)
(0.221913 0 -0.0307524)
(0.0471368 0 -0.00454357)
(0.0665084 0 -0.00647661)
(0.0833402 0 -0.00822944)
(0.0980089 0 -0.0098443)
(0.110822 0 -0.0113517)
(0.122052 0 -0.012775)
(0.13196 0 -0.0141355)
(0.140783 0 -0.0154503)
(0.148724 0 -0.0167327)
(0.155983 0 -0.0179972)
(0.162758 0 -0.0192579)
(0.169244 0 -0.0205314)
(0.17563 0 -0.0218351)
(0.182106 0 -0.0231888)
(0.188875 0 -0.0246194)
(0.196142 0 -0.026157)
(0.204144 0 -0.027846)
(0.213122 0 -0.0297382)
(0.223325 0 -0.0318967)
(0.235021 0 -0.034402)
(0.0674439 0 -0.00685167)
(0.0846059 0 -0.00871419)
(0.0996266 0 -0.0104354)
(0.112817 0 -0.0120472)
(0.124456 0 -0.0135761)
(0.134807 0 -0.0150447)
(0.144108 0 -0.0164717)
(0.152569 0 -0.0178729)
(0.160395 0 -0.0192654)
(0.167785 0 -0.0206652)
(0.174938 0 -0.022092)
(0.182043 0 -0.0235662)
(0.189277 0 -0.0251069)
(0.196849 0 -0.0267456)
(0.204964 0 -0.0285177)
(0.213836 0 -0.0304666)
(0.22369 0 -0.0326464)
(0.234742 0 -0.0351185)
(0.247205 0 -0.0379569)
(0.0859038 0 -0.00919364)
(0.101278 0 -0.0110199)
(0.114847 0 -0.0127358)
(0.126899 0 -0.0143709)
(0.137695 0 -0.0159489)
(0.147473 0 -0.0174897)
(0.156449 0 -0.019011)
(0.16483 0 -0.0205323)
(0.172815 0 -0.0220722)
(0.180606 0 -0.0236521)
(0.18838 0 -0.0252928)
(0.196314 0 -0.0270163)
(0.204609 0 -0.0288556)
(0.213462 0 -0.0308481)
(0.223061 0 -0.0330355)
(0.233594 0 -0.0354679)
(0.245236 0 -0.0382013)
(0.258134 0 -0.0412976)
(0.102943 0 -0.0115934)
(0.116894 0 -0.0134129)
(0.129363 0 -0.015154)
(0.140603 0 -0.0168414)
(0.150849 0 -0.0184958)
(0.160324 0 -0.0201368)
(0.169238 0 -0.0217854)
(0.177791 0 -0.0234635)
(0.186177 0 -0.0251927)
(0.194559 0 -0.0269924)
(0.203116 0 -0.0288884)
(0.212037 0 -0.0309139)
(0.221494 0 -0.0331035)
(0.231646 0 -0.0354957)
(0.242641 0 -0.0381336)
(0.254599 0 -0.0410629)
(0.267595 0 -0.044329)
(0.118941 0 -0.0140733)
(0.13182 0 -0.0159188)
(0.143495 0 -0.0177136)
(0.154194 0 -0.0194787)
(0.164148 0 -0.021237)
(0.173569 0 -0.0230107)
(0.18265 0 -0.0248217)
(0.191574 0 -0.0266915)
(0.200492 0 -0.0286387)
(0.209581 0 -0.0306917)
(0.21901 0 -0.0328808)
(0.228922 0 -0.0352369)
(0.239445 0 -0.0377926)
(0.250676 0 -0.0405806)
(0.262684 0 -0.0436338)
(0.275471 0 -0.0469774)
(0.134245 0 -0.0166571)
(0.146338 0 -0.0185555)
(0.157469 0 -0.0204271)
(0.167877 0 -0.0222984)
(0.177769 0 -0.0241913)
(0.187325 0 -0.0261261)
(0.196717 0 -0.0281242)
(0.206092 0 -0.0302042)
(0.215613 0 -0.032394)
(0.225423 0 -0.0347197)
(0.235637 0 -0.0372063)
(0.246343 0 -0.0398779)
(0.257594 0 -0.0427559)
(0.26941 0 -0.04586)
(0.281743 0 -0.0491982)
(0.160633 0 -0.0213289)
(0.171467 0 -0.023307)
(0.18178 0 -0.025309)
(0.191748 0 -0.0273554)
(0.201537 0 -0.0294672)
(0.211284 0 -0.0316625)
(0.221131 0 -0.033965)
(0.231189 0 -0.036395)
(0.241544 0 -0.0389706)
(0.25225 0 -0.0417073)
(0.263332 0 -0.0446183)
(0.274776 0 -0.0477119)
(0.286509 0 -0.0509854)
(0.174867 0 -0.0242465)
(0.185542 0 -0.0263448)
(0.195861 0 -0.0284888)
(0.205969 0 -0.0306966)
(0.215989 0 -0.032984)
(0.226041 0 -0.0353695)
(0.236211 0 -0.0378677)
(0.246561 0 -0.0404912)
(0.257125 0 -0.0432497)
(0.267909 0 -0.0461494)
(0.278876 0 -0.0491898)
(0.289943 0 -0.0523613)
(0.199597 0 -0.0295027)
(0.209933 0 -0.031784)
(0.220124 0 -0.0341368)
(0.230268 0 -0.0365752)
(0.240436 0 -0.0391095)
(0.250675 0 -0.0417482)
(0.261003 0 -0.0444957)
(0.271408 0 -0.0473516)
(0.281843 0 -0.0503093)
(0.292225 0 -0.0533547)
(0.22364 0 -0.0350979)
(0.23379 0 -0.037564)
(0.243874 0 -0.0401089)
(0.253926 0 -0.0427364)
(0.263951 0 -0.0454465)
(0.273929 0 -0.0482341)
(0.283809 0 -0.0510885)
(0.293514 0 -0.0539933)
(0.236621 0 -0.0383267)
(0.246558 0 -0.0408598)
(0.256367 0 -0.0434541)
(0.266046 0 -0.0461061)
(0.275572 0 -0.0488075)
(0.284896 0 -0.0515452)
(0.293955 0 -0.0543029)
(0.258055 0 -0.0439016)
(0.267365 0 -0.0464796)
(0.276436 0 -0.0490829)
(0.285222 0 -0.0516966)
(0.293673 0 -0.0543055)
(0.27661 0 -0.0490698)
(0.284887 0 -0.0515569)
(0.292772 0 -0.0540171)
(0.0471368 0 -0.00454357)
(0.0665084 0 -0.00647661)
(0.0833402 0 -0.00822944)
(0.0980089 0 -0.0098443)
(0.110822 0 -0.0113517)
(0.122052 0 -0.012775)
(0.13196 0 -0.0141355)
(0.140783 0 -0.0154503)
(0.148724 0 -0.0167327)
(0.155983 0 -0.0179972)
(0.162758 0 -0.0192579)
(0.169244 0 -0.0205314)
(0.17563 0 -0.0218351)
(0.182106 0 -0.0231888)
(0.188875 0 -0.0246194)
(0.196142 0 -0.026157)
(0.204144 0 -0.027846)
(0.213122 0 -0.0297382)
(0.223325 0 -0.0318967)
(0.235021 0 -0.034402)
(0.0674439 0 -0.00685167)
(0.0846059 0 -0.00871419)
(0.0996266 0 -0.0104354)
(0.112817 0 -0.0120472)
(0.124456 0 -0.0135761)
(0.134807 0 -0.0150447)
(0.144108 0 -0.0164717)
(0.152569 0 -0.0178729)
(0.160395 0 -0.0192654)
(0.167785 0 -0.0206652)
(0.174938 0 -0.022092)
(0.182043 0 -0.0235662)
(0.189277 0 -0.0251069)
(0.196849 0 -0.0267456)
(0.204964 0 -0.0285177)
(0.213836 0 -0.0304666)
(0.22369 0 -0.0326464)
(0.234742 0 -0.0351185)
(0.247205 0 -0.0379569)
(0.0859038 0 -0.00919364)
(0.101278 0 -0.0110199)
(0.114847 0 -0.0127358)
(0.126899 0 -0.0143709)
(0.137695 0 -0.0159489)
(0.147473 0 -0.0174897)
(0.156449 0 -0.019011)
(0.16483 0 -0.0205323)
(0.172815 0 -0.0220722)
(0.180606 0 -0.0236521)
(0.18838 0 -0.0252928)
(0.196314 0 -0.0270163)
(0.204609 0 -0.0288556)
(0.213462 0 -0.0308481)
(0.223061 0 -0.0330355)
(0.233594 0 -0.0354679)
(0.245236 0 -0.0382013)
(0.258134 0 -0.0412976)
(0.102943 0 -0.0115934)
(0.116894 0 -0.0134129)
(0.129363 0 -0.015154)
(0.140603 0 -0.0168414)
(0.150849 0 -0.0184958)
(0.160324 0 -0.0201368)
(0.169238 0 -0.0217854)
(0.177791 0 -0.0234635)
(0.186177 0 -0.0251927)
(0.194559 0 -0.0269924)
(0.203116 0 -0.0288884)
(0.212037 0 -0.0309139)
(0.221494 0 -0.0331035)
(0.231646 0 -0.0354957)
(0.242641 0 -0.0381336)
(0.254599 0 -0.0410629)
(0.267595 0 -0.044329)
(0.118941 0 -0.0140733)
(0.13182 0 -0.0159188)
(0.143495 0 -0.0177136)
(0.154194 0 -0.0194787)
(0.164148 0 -0.021237)
(0.173569 0 -0.0230107)
(0.18265 0 -0.0248217)
(0.191574 0 -0.0266915)
(0.200492 0 -0.0286387)
(0.209581 0 -0.0306917)
(0.21901 0 -0.0328808)
(0.228922 0 -0.0352369)
(0.239445 0 -0.0377926)
(0.250676 0 -0.0405806)
(0.262684 0 -0.0436338)
(0.275471 0 -0.0469774)
(0.134245 0 -0.0166571)
(0.146338 0 -0.0185555)
(0.157469 0 -0.0204271)
(0.167877 0 -0.0222984)
(0.177769 0 -0.0241913)
(0.187325 0 -0.0261261)
(0.196717 0 -0.0281242)
(0.206092 0 -0.0302042)
(0.215613 0 -0.032394)
(0.225423 0 -0.0347197)
(0.235637 0 -0.0372063)
(0.246343 0 -0.0398779)
(0.257594 0 -0.0427559)
(0.26941 0 -0.04586)
(0.281743 0 -0.0491982)
(0.160633 0 -0.0213289)
(0.171467 0 -0.023307)
(0.18178 0 -0.025309)
(0.191748 0 -0.0273554)
(0.201537 0 -0.0294672)
(0.211284 0 -0.0316625)
(0.221131 0 -0.033965)
(0.231189 0 -0.036395)
(0.241544 0 -0.0389706)
(0.25225 0 -0.0417073)
(0.263332 0 -0.0446183)
(0.274776 0 -0.0477119)
(0.286509 0 -0.0509854)
(0.174867 0 -0.0242465)
(0.185542 0 -0.0263448)
(0.195861 0 -0.0284888)
(0.205969 0 -0.0306966)
(0.215989 0 -0.032984)
(0.226041 0 -0.0353695)
(0.236211 0 -0.0378677)
(0.246561 0 -0.0404912)
(0.257125 0 -0.0432497)
(0.267909 0 -0.0461494)
(0.278876 0 -0.0491898)
(0.289943 0 -0.0523613)
(0.199597 0 -0.0295027)
(0.209933 0 -0.031784)
(0.220124 0 -0.0341368)
(0.230268 0 -0.0365752)
(0.240436 0 -0.0391095)
(0.250675 0 -0.0417482)
(0.261003 0 -0.0444957)
(0.271408 0 -0.0473516)
(0.281843 0 -0.0503093)
(0.292225 0 -0.0533547)
(0.22364 0 -0.0350979)
(0.23379 0 -0.037564)
(0.243874 0 -0.0401089)
(0.253926 0 -0.0427364)
(0.263951 0 -0.0454465)
(0.273929 0 -0.0482341)
(0.283809 0 -0.0510885)
(0.293514 0 -0.0539933)
(0.236621 0 -0.0383267)
(0.246558 0 -0.0408598)
(0.256367 0 -0.0434541)
(0.266046 0 -0.0461061)
(0.275572 0 -0.0488075)
(0.284896 0 -0.0515452)
(0.293955 0 -0.0543029)
(0.258055 0 -0.0439016)
(0.267365 0 -0.0464796)
(0.276436 0 -0.0490829)
(0.285222 0 -0.0516966)
(0.293673 0 -0.0543055)
(0.27661 0 -0.0490698)
(0.284887 0 -0.0515569)
(0.292772 0 -0.0540171)
)
;

boundaryField
{
    inlet
    {
        type            fixedValue;
        value           uniform (0 0 0);
    }
    outlet
    {
        type            fixedValue;
        value           nonuniform 0();
    }
    flap
    {
        type            fixedValue;
        value           nonuniform 0();
    }
    upperWall
    {
        type            slip;
    }
    lowerWall
    {
        type            slip;
    }
    frontAndBack
    {
        type            empty;
    }
    procBoundary3to0
    {
        type            processor;
    }
    procBoundary3to1
    {
        type            processor;
    }
    procBoundary3to4
    {
        type            processor;
    }
}


// ************************************************************************* //
