/*--------------------------------*- C++ -*----------------------------------*\
| =========                 |                                                 |
| \\      /  F ield         | OpenFOAM: The Open Source CFD Toolbox           |
|  \\    /   O peration     | Version:  dev                                   |
|   \\  /    A nd           | Web:      www.OpenFOAM.org                      |
|    \\/     M anipulation  |                                                 |
\*---------------------------------------------------------------------------*/
FoamFile
{
    version     2.0;
    format      ascii;
    class       volVectorField;
    location    "3.62";
    object      cellDisplacement;
}
// * * * * * * * * * * * * * * * * * * * * * * * * * * * * * * * * * * * * * //

dimensions      [0 1 0 0 0 0 0];

internalField   nonuniform List<vector> 
465
(
(0.0124423 0 0.000109014)
(0.011462 0 0.000136332)
(0.0103215 0 0.000171218)
(0.00901941 0 0.000215675)
(0.00756581 0 0.000272077)
(0.00599273 0 0.000342996)
(0.00437434 0 0.000430341)
(0.00286985 0 0.000531906)
(0.00184847 0 0.00062785)
(0.0127219 0 0.000319268)
(0.011818 0 0.000397952)
(0.0107756 0 0.000497824)
(0.00959945 0 0.000624041)
(0.00830744 0 0.000782281)
(0.00694188 0 0.000977684)
(0.00558888 0 0.00121146)
(0.00441319 0 0.00147034)
(0.00372826 0 0.00169372)
(0.0132597 0 0.000506871)
(0.0124997 0 0.000627627)
(0.0116399 0 0.000779083)
(0.0106947 0 0.000967499)
(0.00969235 0 0.00119864)
(0.00868421 0 0.00147529)
(0.00775709 0 0.00179121)
(0.00704592 0 0.00211689)
(0.00674342 0 0.0023669)
(0.0140143 0 0.000659473)
(0.0134487 0 0.000808609)
(0.0128321 0 0.000992463)
(0.0121879 0 0.0012162)
(0.0115517 0 0.00148277)
(0.0109756 0 0.00178933)
(0.0105299 0 0.00212034)
(0.0102946 0 0.00243515)
(0.0103309 0 0.00264872)
(0.0149291 0 0.000769026)
(0.0145868 0 0.000930849)
(0.014244 0 0.00112597)
(0.0139299 0 0.00135701)
(0.0136817 0 0.00162285)
(0.0135424 0 0.00191494)
(0.0135523 0 0.00221155)
(0.0137268 0 0.00247057)
(0.0140122 0 0.00262435)
(0.0159386 0 0.000832499)
(0.0158254 0 0.000991735)
(0.0157565 0 0.00117856)
(0.015763 0 0.00139263)
(0.0158772 0 0.00162925)
(0.016126 0 0.00187638)
(0.0165146 0 0.00211136)
(0.0169984 0 0.00229891)
(0.01744 0 0.00239502)
(0.0169759 0 0.000851752)
(0.0170765 0 0.000995477)
(0.0172552 0 0.00115841)
(0.0175407 0 0.00133776)
(0.017957 0 0.00152665)
(0.0185118 0 0.00171258)
(0.0191783 0 0.00187643)
(0.0198663 0 0.00199412)
(0.0203883 0 0.00204368)
(0.0179801 0 0.000832678)
(0.0182622 0 0.000951522)
(0.0186423 0 0.00108019)
(0.0191439 0 0.00121428)
(0.0197806 0 0.00134647)
(0.0205432 0 0.00146617)
(0.0213812 0 0.00156047)
(0.0221777 0 0.00161728)
(0.0227246 0 0.00163207)
(0.0189017 0 0.000783929)
(0.0193218 0 0.000872551)
(0.0198455 0 0.000961919)
(0.020489 0 0.00104697)
(0.0212558 0 0.00112115)
(0.0221247 0 0.0011772)
(0.0230329 0 0.00120911)
(0.0238555 0 0.00121559)
(0.0243869 0 0.00120489)
(0.0197057 0 0.000715516)
(0.0202162 0 0.000772492)
(0.020822 0 0.000822393)
(0.0215316 0 0.000860184)
(0.0223402 0 0.000880735)
(0.0232199 0 0.000880355)
(0.0241069 0 0.000859295)
(0.0248852 0 0.000824956)
(0.0253705 0 0.000794784)
(0.0203733 0 0.000637494)
(0.0209278 0 0.000664794)
(0.0215584 0 0.00067905)
(0.0222658 0 0.000675668)
(0.0230382 0 0.000651011)
(0.0238458 0 0.000604345)
(0.0246327 0 0.000540632)
(0.0253056 0 0.000473584)
(0.0257179 0 0.000427546)
(0.0209008 0 0.000558863)
(0.0214595 0 0.000561073)
(0.022068 0 0.000546466)
(0.022719 0 0.000511104)
(0.023395 0 0.000452551)
(0.0240665 0 0.000371905)
(0.02469 0 0.00027676)
(0.025204 0 0.000184644)
(0.0255153 0 0.00012521)
(0.0212963 0 0.000486764)
(0.0218298 0 0.000470147)
(0.0223837 0 0.000435287)
(0.0229437 0 0.000379081)
(0.0234873 0 0.000299973)
(0.0239848 0 0.000199668)
(0.0244037 0 8.59864e-05)
(0.0247153 0 -2.267e-05)
(0.0248941 0 -9.24914e-05)
(0.0215766 0 0.000426008)
(0.0220669 0 0.000397483)
(0.0225501 0 0.000351574)
(0.0230068 0 0.000286305)
(0.0234106 0 0.000201037)
(0.0237303 0 9.73756e-05)
(0.0239379 0 -1.9075e-05)
(0.0240253 0 -0.000134033)
(0.024034 0 -0.000212921)
(0.0217619 0 0.000378965)
(0.0222022 0 0.000345096)
(0.0226136 0 0.000296597)
(0.022975 0 0.000233047)
(0.0232597 0 0.000155375)
(0.0234377 0 6.59874e-05)
(0.023482 0 -3.18536e-05)
(0.0233849 0 -0.000134833)
(0.0232089 0 -0.000225683)
(0.00190842 0 -0.000582987)
(0.0031199 0 -0.000515514)
(0.00485296 0 -0.000424826)
(0.00670106 0 -0.00033895)
(0.00846483 0 -0.000265416)
(0.0100571 0 -0.000205181)
(0.0114476 0 -0.000157012)
(0.0126343 0 -0.000119074)
(0.0136279 0 -8.95076e-05)
(0.0144437 0 -6.66495e-05)
(0.00368747 0 -0.00159381)
(0.00466125 0 -0.00142466)
(0.00610492 0 -0.00118863)
(0.007692 0 -0.000957535)
(0.00923949 0 -0.000755217)
(0.0106588 0 -0.000586992)
(0.0119135 0 -0.000451061)
(0.0129948 0 -0.000343184)
(0.0139069 0 -0.00025863)
(0.01466 0 -0.000192962)
(0.00661416 0 -0.00225382)
(0.0072996 0 -0.00204624)
(0.00831871 0 -0.00173869)
(0.00948361 0 -0.00142237)
(0.0106619 0 -0.0011356)
(0.0117762 0 -0.000891149)
(0.0127864 0 -0.000690005)
(0.0136749 0 -0.000528169)
(0.0144365 0 -0.000399957)
(0.0150727 0 -0.000299525)
(0.0101518 0 -0.00255151)
(0.0105405 0 -0.00234624)
(0.0111048 0 -0.00202973)
(0.0117899 0 -0.00168899)
(0.012528 0 -0.0013684)
(0.0132654 0 -0.00108706)
(0.013965 0 -0.000850231)
(0.0146034 0 -0.000656218)
(0.0151664 0 -0.000500251)
(0.0156463 0 -0.000376592)
(0.013823 0 -0.00253922)
(0.0139418 0 -0.00235937)
(0.0140888 0 -0.00207487)
(0.0143145 0 -0.00175623)
(0.0146129 0 -0.00144544)
(0.0149598 0 -0.00116429)
(0.0153278 0 -0.000921539)
(0.0156923 0 -0.000718412)
(0.0160333 0 -0.00055217)
(0.0163352 0 -0.000418335)
(0.0172697 0 -0.00229059)
(0.0171648 0 -0.00214723)
(0.0169679 0 -0.00191709)
(0.0168021 0 -0.00165025)
(0.0167111 0 -0.0013808)
(0.0166996 0 -0.00112923)
(0.0167533 0 -0.000905912)
(0.0168508 0 -0.00071444)
(0.0169699 0 -0.000554362)
(0.01709 0 -0.000423059)
(0.0202499 0 -0.00187602)
(0.0199771 0 -0.00177439)
(0.0195245 0 -0.00160895)
(0.0190584 0 -0.00141007)
(0.0186576 0 -0.00120147)
(0.01835 0 -0.000999621)
(0.0181347 0 -0.000814473)
(0.0179962 0 -0.00065098)
(0.0179132 0 -0.000510641)
(0.017863 0 -0.000392795)
(0.0226193 0 -0.00135934)
(0.0222369 0 -0.00130099)
(0.0216192 0 -0.00120307)
(0.0209524 0 -0.0010785)
(0.0203347 0 -0.000940284)
(0.0198099 0 -0.000799442)
(0.0193882 0 -0.00066411)
(0.0190608 0 -0.000539561)
(0.0188094 0 -0.000428672)
(0.0186123 0 -0.00033252)
(0.0243094 0 -0.000797444)
(0.0238744 0 -0.000780947)
(0.0231793 0 -0.000748275)
(0.0224103 0 -0.000697354)
(0.0216715 0 -0.000631197)
(0.0210144 0 -0.000555058)
(0.0204565 0 -0.000474525)
(0.0199955 0 -0.000394457)
(0.0196178 0 -0.000318536)
(0.0193046 0 -0.000249201)
(0.0253114 0 -0.000240142)
(0.0248782 0 -0.000261695)
(0.0241872 0 -0.000288251)
(0.0234087 0 -0.000305092)
(0.0226401 0 -0.000306516)
(0.021933 0 -0.000292463)
(0.021309 0 -0.000265878)
(0.0207713 0 -0.000230832)
(0.0203118 0 -0.000191351)
(0.0199165 0 -0.000150824)
(0.0256682 0 0.000269342)
(0.0252866 0 0.000215649)
(0.0246737 0 0.000138957)
(0.0239683 0 6.44403e-05)
(0.0232509 0 4.8794e-06)
(0.0225671 0 -3.53652e-05)
(0.0219401 0 -5.69911e-05)
(0.021378 0 -6.32117e-05)
(0.0208791 0 -5.80748e-05)
(0.0204349 0 -4.54945e-05)
(0.0254703 0 0.000694516)
(0.0251842 0 0.000616397)
(0.0247132 0 0.000501398)
(0.024149 0 0.000382943)
(0.0235473 0 0.000278848)
(0.0229448 0 0.000196282)
(0.0223653 0 0.000136062)
(0.0218219 0 9.57284e-05)
(0.0213194 0 7.14869e-05)
(0.0208557 0 5.93247e-05)
(0.0248525 0 0.00100621)
(0.0247007 0 0.000912993)
(0.0244214 0 0.000774012)
(0.024045 0 0.000628759)
(0.0235999 0 0.000497268)
(0.0231153 0 0.00038754)
(0.0226165 0 0.000301074)
(0.0221218 0 0.00023611)
(0.0216424 0 0.000189434)
(0.0211825 0 0.000157405)
(0.0239984 0 0.00118816)
(0.0240163 0 0.00108673)
(0.0239536 0 0.000939874)
(0.0237767 0 0.000788463)
(0.0234965 0 0.000649543)
(0.0231399 0 0.000529669)
(0.0227349 0 0.000430582)
(0.0223043 0 0.000351498)
(0.0218642 0 0.000290275)
(0.021424 0 0.000244145)
(0.0231813 0 0.00123114)
(0.0233778 0 0.00112257)
(0.0234935 0 0.000991007)
(0.0234732 0 0.000859386)
(0.0233267 0 0.000734463)
(0.0230808 0 0.000621124)
(0.0227633 0 0.000522349)
(0.0223982 0 0.000439173)
(0.0220037 0 0.000371117)
(0.021592 0 0.000316737)
(0.0218753 0 0.000344941)
(0.0222658 0 0.000310999)
(0.0226131 0 0.000266379)
(0.022898 0 0.000212496)
(0.0230986 0 0.000152827)
(0.0231932 0 9.40171e-05)
(0.023166 0 4.8246e-05)
(0.0230159 0 3.71643e-05)
(0.0227765 0 9.801e-05)
(0.0219327 0 0.000322701)
(0.0222783 0 0.000292412)
(0.0225734 0 0.000255585)
(0.0228032 0 0.000214954)
(0.0229533 0 0.000175363)
(0.0230131 0 0.000144358)
(0.0229812 0 0.000133299)
(0.0228728 0 0.000157168)
(0.0227213 0 0.000234881)
(0.0219469 0 0.000310379)
(0.0222549 0 0.000285756)
(0.0225107 0 0.000258075)
(0.0227045 0 0.000230564)
(0.022828 0 0.000208123)
(0.0228795 0 0.000197198)
(0.0228656 0 0.000205633)
(0.0228028 0 0.000242966)
(0.0227171 0 0.000322297)
(0.0219284 0 0.000305545)
(0.0222072 0 0.000287178)
(0.0224344 0 0.000268378)
(0.022605 0 0.000252186)
(0.0227165 0 0.000242653)
(0.0227713 0 0.000244607)
(0.0227776 0 0.0002634)
(0.02275 0 0.000304839)
(0.0227088 0 0.000375059)
(0.0221401 0 0.000293605)
(0.0223473 0 0.000282465)
(0.022504 0 0.000275093)
(0.0226109 0 0.000274592)
(0.0226721 0 0.000284347)
(0.0226957 0 0.00030772)
(0.0226934 0 0.000347666)
(0.0226798 0 0.00040574)
(0.0223986 0 0.000296647)
(0.0225044 0 0.000302067)
(0.0225722 0 0.000316024)
(0.022609 0 0.000340384)
(0.022624 0 0.000376239)
(0.0226271 0 0.000423059)
(0.0224655 0 0.000340173)
(0.0225119 0 0.000363518)
(0.0225383 0 0.000394549)
(0.0225516 0 0.000432075)
(0.0224356 0 0.000405495)
(0.0224551 0 0.000435646)
(0.0224834 0 0.000282256)
(0.0224444 0 0.000516963)
(0.0224752 0 0.000748289)
(0.0225956 0 0.000382329)
(0.0225675 0 0.000515996)
(0.022592 0 0.000647428)
(0.0226654 0 0.000429757)
(0.0226527 0 0.000511102)
(0.0226645 0 0.000590988)
(0.022688 0 0.000451255)
(0.0226832 0 0.000505123)
(0.0226885 0 0.000558025)
(0.0226731 0 0.000460784)
(0.0226719 0 0.000498515)
(0.0226745 0 0.000535551)
(0.0226276 0 0.000463875)
(0.0226282 0 0.000491361)
(0.0226295 0 0.00051831)
(0.0225561 0 0.000463053)
(0.0225578 0 0.000483667)
(0.0225584 0 0.000503848)
(0.022462 0 0.000459607)
(0.0224643 0 0.000475415)
(0.0224645 0 0.000490862)
(0.0223503 0 0.000466562)
(0.0223502 0 0.000478599)
(0.0227649 0 0.000922604)
(0.0230121 0 0.000967059)
(0.0231746 0 0.000931042)
(0.0232214 0 0.000855106)
(0.0231528 0 0.000763205)
(0.0229847 0 0.000669228)
(0.0227372 0 0.000580656)
(0.0224304 0 0.000501361)
(0.0220809 0 0.000432897)
(0.0227155 0 0.000785931)
(0.022872 0 0.000849675)
(0.0229905 0 0.000853195)
(0.0230382 0 0.000816329)
(0.023 0 0.000755906)
(0.022877 0 0.000684812)
(0.0226789 0 0.000611388)
(0.0224189 0 0.000541094)
(0.0221094 0 0.000476951)
(0.0227157 0 0.000692677)
(0.0228053 0 0.000759924)
(0.0228765 0 0.000780329)
(0.0229035 0 0.000767108)
(0.0228703 0 0.000730649)
(0.0227694 0 0.000679735)
(0.0226029 0 0.000621895)
(0.0223775 0 0.000562646)
(0.0221007 0 0.000505469)
(0.0227104 0 0.000630277)
(0.0227557 0 0.000690547)
(0.0227908 0 0.00071766)
(0.0227958 0 0.000717955)
(0.0227564 0 0.000697695)
(0.0226641 0 0.000662868)
(0.0225166 0 0.000619024)
(0.0223152 0 0.00057075)
(0.0220634 0 0.000521507)
(0.0226835 0 0.000587663)
(0.0227017 0 0.000637563)
(0.0227111 0 0.000665322)
(0.0226975 0 0.000672718)
(0.0226495 0 0.000663014)
(0.0225591 0 0.000639996)
(0.0224218 0 0.000607538)
(0.0222365 0 0.000569202)
(0.022004 0 0.000527979)
(0.0226321 0 0.00055681)
(0.0226342 0 0.000596811)
(0.0226261 0 0.000622218)
(0.0225983 0 0.000632666)
(0.0225422 0 0.000629457)
(0.0224506 0 0.000614753)
(0.0223188 0 0.000591111)
(0.0221442 0 0.000561133)
(0.0219259 0 0.000527225)
(0.0225576 0 0.000532924)
(0.0225498 0 0.000564661)
(0.0225301 0 0.000586644)
(0.0224921 0 0.000597778)
(0.0224292 0 0.000598277)
(0.0223355 0 0.000589207)
(0.0222064 0 0.000572144)
(0.0220388 0 0.000548888)
(0.0218306 0 0.000521254)
(0.0224616 0 0.000513226)
(0.0224477 0 0.000538389)
(0.0224205 0 0.000556852)
(0.0223753 0 0.00056743)
(0.0223071 0 0.000569822)
(0.0222112 0 0.000564427)
(0.0220835 0 0.000552132)
(0.0219204 0 0.000534117)
(0.0217195 0 0.000511689)
(0.022346 0 0.00049606)
(0.0223282 0 0.000516078)
(0.022296 0 0.000531336)
(0.0222458 0 0.000540791)
(0.0221738 0 0.000543958)
(0.0220761 0 0.000540861)
(0.0219489 0 0.000531939)
(0.0217889 0 0.000517918)
(0.0215933 0 0.000499697)
(0.022192 0 0.000496399)
(0.0221564 0 0.000508892)
(0.0221029 0 0.000517033)
(0.0220281 0 0.000520329)
(0.021929 0 0.000518597)
(0.021802 0 0.000512011)
(0.0216441 0 0.000500979)
(0.0214523 0 0.000486094)
(0.0218695 0 0.000498488)
(0.0217692 0 0.000497512)
(0.0216424 0 0.000492524)
(0.021486 0 0.000483699)
(0.0212971 0 0.000471424)
(0.0214699 0 0.000473477)
(0.0213146 0 0.000466269)
(0.0211278 0 0.000456034)
(0.0209452 0 0.000440101)
)
;

boundaryField
{
    inlet
    {
        type            cellMotion;
        value           nonuniform 0();
    }
    outlet
    {
        type            cellMotion;
        value           nonuniform 0();
    }
    flap
    {
        type            cellMotion;
        value           nonuniform List<vector> 
33
(
(0.000818389 0 0.000727322)
(0.00308835 0 0.00191585)
(0.00641372 0 0.00259298)
(0.0102787 0 0.00283043)
(0.0141683 0 0.00274923)
(0.0177364 0 0.00247132)
(0.0207691 0 0.00208257)
(0.0231462 0 0.00164314)
(0.0248125 0 0.00119518)
(0.0257694 0 0.000768611)
(0.0260621 0 0.000387469)
(0.0257766 0 7.30388e-05)
(0.0250436 0 -0.00015228)
(0.02402 0 -0.000278609)
(0.0228736 0 -0.000327342)
(0.0222867 0 -7.09124e-05)
(0.0222788 0 0.000517254)
(0.0222692 0 0.00110171)
(0.000755624 0 -0.000682185)
(0.00293255 0 -0.00180752)
(0.00620511 0 -0.00247623)
(0.0100417 0 -0.00274178)
(0.0139353 0 -0.00268455)
(0.0175319 0 -0.00239294)
(0.0206021 0 -0.00193957)
(0.0230156 0 -0.00138842)
(0.0247136 0 -0.00079637)
(0.0256922 0 -0.000212824)
(0.0259969 0 0.000318949)
(0.0257194 0 0.000762103)
(0.0249915 0 0.0010845)
(0.0239738 0 0.00127314)
(0.0228384 0 0.00134938)
)
;
    }
    upperWall
    {
        type            slip;
    }
    lowerWall
    {
        type            slip;
    }
    frontAndBack
    {
        type            empty;
    }
    procBoundary4to1
    {
        type            processor;
        value           nonuniform List<vector> 
30
(
(0.0218842 0 0.000305909)
(0.0218842 0 0.000305909)
(0.0220567 0 0.000302531)
(0.0222501 0 0.000297551)
(0.0222501 0 0.000297551)
(0.022286 0 0.000315457)
(0.0223922 0 0.000324443)
(0.0223922 0 0.000324443)
(0.0223485 0 0.000357769)
(0.0224016 0 0.000379129)
(0.0224016 0 0.000379129)
(0.0223156 0 0.000411113)
(0.0223391 0 0.000435453)
(0.0223476 0 0.000454231)
(0.0223476 0 0.000454231)
(0.0222172 0 0.000457205)
(0.022217 0 0.000466678)
(0.0222121 0 0.000480438)
(0.0222121 0 0.000480438)
(0.0220393 0 0.000478522)
(0.0220017 0 0.00048866)
(0.021946 0 0.000495458)
(0.021946 0 0.000495458)
(0.0216972 0 0.000478132)
(0.0215965 0 0.000477453)
(0.0215965 0 0.000477453)
(0.0212843 0 0.000454943)
(0.0211302 0 0.000448828)
(0.0211302 0 0.000448828)
(0.0207493 0 0.000423886)
)
;
    }
    procBoundary4to2
    {
        type            processor;
        value           nonuniform List<vector> 
11
(
(0.0217805 0 0.00045266)
(0.0217668 0 0.000473943)
(0.0217268 0 0.000486302)
(0.0216639 0 0.000491448)
(0.0215806 0 0.000490967)
(0.0214785 0 0.000486207)
(0.0213593 0 0.000478314)
(0.0212237 0 0.000468128)
(0.0210724 0 0.000456261)
(0.0209063 0 0.000443145)
(0.020726 0 0.000429076)
)
;
    }
    procBoundary4to3
    {
        type            processor;
        value           nonuniform List<vector> 
19
(
(0.0132693 0 8.76376e-05)
(0.0134893 0 0.000257403)
(0.0139141 0 0.000411024)
(0.0145142 0 0.000539432)
(0.0152486 0 0.000636342)
(0.0160689 0 0.000698846)
(0.016925 0 0.000727479)
(0.0177697 0 0.000725779)
(0.0185629 0 0.000699495)
(0.0192748 0 0.000655644)
(0.0198867 0 0.000601556)
(0.0203912 0 0.000544042)
(0.0207898 0 0.000488754)
(0.021091 0 0.000439789)
(0.0213074 0 0.000399562)
(0.0214561 0 0.000368153)
(0.0215489 0 0.00034525)
(0.0215953 0 0.000330104)
(0.0216041 0 0.000321325)
)
;
    }
    procBoundary4to5
    {
        type            processor;
        value           nonuniform List<vector> 
18
(
(0.0150972 0 -4.90909e-05)
(0.0152653 0 -0.000142334)
(0.0155875 0 -0.000221541)
(0.0160387 0 -0.00027959)
(0.016586 0 -0.000311961)
(0.0171931 0 -0.00031697)
(0.0178244 0 -0.000295581)
(0.0184474 0 -0.000250948)
(0.0190354 0 -0.000187801)
(0.0195682 0 -0.000111779)
(0.0200332 0 -2.87808e-05)
(0.0204242 0 5.55989e-05)
(0.0207409 0 0.00013652)
(0.0209871 0 0.00021021)
(0.0211695 0 0.000274115)
(0.0217011 0 0.000375377)
(0.0217011 0 0.000375377)
(0.0217611 0 0.000420391)
)
;
    }
}


// ************************************************************************* //
