/*--------------------------------*- C++ -*----------------------------------*\
| =========                 |                                                 |
| \\      /  F ield         | OpenFOAM: The Open Source CFD Toolbox           |
|  \\    /   O peration     | Version:  dev                                   |
|   \\  /    A nd           | Web:      www.OpenFOAM.org                      |
|    \\/     M anipulation  |                                                 |
\*---------------------------------------------------------------------------*/
FoamFile
{
    version     2.0;
    format      ascii;
    class       volVectorField;
    location    "4.97";
    object      cellDisplacement;
}
// * * * * * * * * * * * * * * * * * * * * * * * * * * * * * * * * * * * * * //

dimensions      [0 1 0 0 0 0 0];

internalField   nonuniform List<vector> 
2790
(
(0.0104188 0 -3.66278e-05)
(0.0297354 0 -0.000104849)
(0.0462029 0 -0.000164347)
(0.0600666 0 -0.000216578)
(0.0715888 0 -0.000262741)
(0.0809979 0 -0.000303799)
(0.0885021 0 -0.000339674)
(0.094288 0 -0.000370887)
(0.0985144 0 -0.00039753)
(0.10132 0 -0.000419487)
(0.102826 0 -0.000436501)
(0.103142 0 -0.000448149)
(0.102361 0 -0.000453477)
(0.100572 0 -0.000451754)
(0.0978526 0 -0.000442026)
(0.0942752 0 -0.000423108)
(0.0899083 0 -0.000393581)
(0.0848186 0 -0.000351805)
(0.0790751 0 -0.000296008)
(0.0727591 0 -0.000224877)
(0.0659417 0 -0.000135051)
(0.0586999 0 -2.45115e-05)
(0.0511196 0 0.000109388)
(0.0433219 0 0.000269532)
(0.0354506 0 0.000458728)
(0.0276817 0 0.000680002)
(0.0202546 0 0.00093628)
(0.0135204 0 0.00122906)
(0.00802603 0 0.0015514)
(0.00489098 0 0.00185522)
(0.010434 0 -0.00011)
(0.0297792 0 -0.000314913)
(0.0462739 0 -0.000493662)
(0.0601662 0 -0.000650635)
(0.0717199 0 -0.000789414)
(0.0811613 0 -0.000913132)
(0.0886997 0 -0.00102115)
(0.0945253 0 -0.00111531)
(0.0987964 0 -0.00119586)
(0.101652 0 -0.00126246)
(0.103215 0 -0.00131436)
(0.103595 0 -0.00135047)
(0.102887 0 -0.00136769)
(0.10118 0 -0.00136399)
(0.0985536 0 -0.0013366)
(0.0950821 0 -0.00128201)
(0.0908352 0 -0.00119602)
(0.0858805 0 -0.00107375)
(0.0802829 0 -0.000909538)
(0.0741358 0 -0.00069885)
(0.0675221 0 -0.000435351)
(0.0605179 0 -0.000111378)
(0.0532078 0 0.000281705)
(0.045713 0 0.000751953)
(0.0382025 0 0.00130573)
(0.030858 0 0.00194968)
(0.0239283 0 0.00268774)
(0.0177966 0 0.003517)
(0.0131164 0 0.00440634)
(0.0110675 0 0.00518608)
(0.010465 0 -0.00018369)
(0.0298673 0 -0.000525977)
(0.0464156 0 -0.00082467)
(0.0603643 0 -0.00108716)
(0.0719811 0 -0.00131929)
(0.0814852 0 -0.00152423)
(0.0890906 0 -0.00170486)
(0.0949949 0 -0.0018629)
(0.0993547 0 -0.00199856)
(0.10231 0 -0.00211129)
(0.103985 0 -0.0021999)
(0.104493 0 -0.00226345)
(0.103928 0 -0.00229555)
(0.102384 0 -0.00229374)
(0.0999418 0 -0.00225356)
(0.0966797 0 -0.00216941)
(0.0926708 0 -0.00203462)
(0.0879863 0 -0.00184143)
(0.0826923 0 -0.00158028)
(0.0768832 0 -0.00124444)
(0.0706531 0 -0.000824822)
(0.0640897 0 -0.000309089)
(0.0573019 0 0.000314907)
(0.050416 0 0.00105864)
(0.0436218 0 0.00193005)
(0.0371334 0 0.002934)
(0.0312172 0 0.0040682)
(0.0262347 0 0.00531329)
(0.0228983 0 0.00658654)
(0.0226127 0 0.00759017)
(0.0105125 0 -0.000257436)
(0.0300002 0 -0.000737305)
(0.0466272 0 -0.00115616)
(0.060659 0 -0.00152458)
(0.0723593 0 -0.00185063)
(0.0819573 0 -0.0021376)
(0.0896719 0 -0.00239219)
(0.0956945 0 -0.00261568)
(0.100186 0 -0.00280845)
(0.10329 0 -0.00296974)
(0.105132 0 -0.00309775)
(0.105824 0 -0.00318935)
(0.10547 0 -0.0032407)
(0.104166 0 -0.0032469)
(0.101996 0 -0.00320183)
(0.0990438 0 -0.00309817)
(0.0953869 0 -0.00292736)
(0.0911063 0 -0.00267981)
(0.0862703 0 -0.00234371)
(0.0809713 0 -0.00190821)
(0.0753182 0 -0.00136202)
(0.0694113 0 -0.000691282)
(0.0633714 0 0.000117474)
(0.0573412 0 0.00107672)
(0.0515594 0 0.00219093)
(0.0462728 0 0.00345767)
(0.0418123 0 0.00485587)
(0.0385461 0 0.00633441)
(0.0370209 0 0.00776684)
(0.0389641 0 0.0087164)
(0.0105768 0 -0.000331215)
(0.0301759 0 -0.000947839)
(0.0469045 0 -0.00148638)
(0.0610466 0 -0.00196062)
(0.0728605 0 -0.00238135)
(0.0825828 0 -0.00275322)
(0.0904381 0 -0.0030834)
(0.0966162 0 -0.00337437)
(0.101282 0 -0.00362685)
(0.10458 0 -0.00384008)
(0.106641 0 -0.00401168)
(0.107577 0 -0.00413679)
(0.107503 0 -0.00421434)
(0.106514 0 -0.00423715)
(0.104702 0 -0.00419801)
(0.102155 0 -0.00408835)
(0.0989581 0 -0.00389826)
(0.095196 0 -0.00361656)
(0.0909513 0 -0.00323034)
(0.0863266 0 -0.00272736)
(0.0814351 0 -0.00209478)
(0.0763978 0 -0.00131932)
(0.0713592 0 -0.000389429)
(0.0664764 0 0.000706692)
(0.061971 0 0.00196917)
(0.0581527 0 0.00337835)
(0.055454 0 0.00488433)
(0.0543212 0 0.00638924)
(0.0551584 0 0.00774342)
(0.0595312 0 0.00839113)
(0.0106405 0 -0.000404491)
(0.0303764 0 -0.00115786)
(0.0472443 0 -0.00181675)
(0.0615256 0 -0.00239727)
(0.073479 0 -0.0029115)
(0.0833515 0 -0.00336851)
(0.0913781 0 -0.00377562)
(0.0977465 0 -0.00413605)
(0.102624 0 -0.00445102)
(0.106161 0 -0.00471997)
(0.10849 0 -0.00494063)
(0.109732 0 -0.00510907)
(0.11 0 -0.00522163)
(0.109397 0 -0.00527158)
(0.108023 0 -0.00525161)
(0.105972 0 -0.00515255)
(0.103338 0 -0.00496388)
(0.100215 0 -0.00467418)
(0.0966948 0 -0.00426971)
(0.0928847 0 -0.00373738)
(0.0889172 0 -0.0030659)
(0.0849296 0 -0.00224387)
(0.081083 0 -0.0012623)
(0.0776041 0 -0.000122437)
(0.074695 0 0.00116794)
(0.0726637 0 0.00258004)
(0.0719477 0 0.00403712)
(0.0731961 0 0.00537547)
(0.0768112 0 0.00640072)
(0.0837571 0 0.00652897)
(0.0107195 0 -0.00047742)
(0.0306173 0 -0.00136763)
(0.0476444 0 -0.00214698)
(0.0620784 0 -0.00283383)
(0.0741981 0 -0.00344254)
(0.0842581 0 -0.00398638)
(0.0924873 0 -0.00447253)
(0.0990798 0 -0.00490524)
(0.104208 0 -0.00528639)
(0.108025 0 -0.00561589)
(0.11067 0 -0.0058919)
(0.112268 0 -0.00611086)
(0.112937 0 -0.00626823)
(0.112785 0 -0.00635725)
(0.111923 0 -0.00637164)
(0.110451 0 -0.00630211)
(0.108471 0 -0.00613821)
(0.106087 0 -0.0058687)
(0.10341 0 -0.00548176)
(0.100557 0 -0.00496546)
(0.0976709 0 -0.00431026)
(0.0949171 0 -0.00351054)
(0.092465 0 -0.00256086)
(0.0905301 0 -0.00146768)
(0.089442 0 -0.000266533)
(0.0895142 0 0.00099288)
(0.0910697 0 0.00222702)
(0.0948448 0 0.00321991)
(0.101376 0 0.00369441)
(0.111117 0 0.00310147)
(0.0108115 0 -0.000549819)
(0.0308945 0 -0.00157583)
(0.0481005 0 -0.00247513)
(0.0627103 0 -0.00326842)
(0.0750226 0 -0.00397419)
(0.085294 0 -0.00460636)
(0.0937539 0 -0.00517373)
(0.100602 0 -0.00568172)
(0.106014 0 -0.00613302)
(0.110149 0 -0.00652823)
(0.113153 0 -0.00686625)
(0.115155 0 -0.007144)
(0.116278 0 -0.00735688)
(0.116634 0 -0.00749759)
(0.116349 0 -0.00756299)
(0.115531 0 -0.00754381)
(0.11429 0 -0.00743049)
(0.112742 0 -0.00721331)
(0.111015 0 -0.00688352)
(0.109232 0 -0.00643013)
(0.107549 0 -0.00584768)
(0.106183 0 -0.0051416)
(0.10532 0 -0.00431558)
(0.10517 0 -0.00338173)
(0.10604 0 -0.00238341)
(0.10838 0 -0.00141635)
(0.11252 0 -0.000588641)
(0.118952 0 -0.000114805)
(0.128471 0 -0.000376899)
(0.141106 0 -0.00185952)
(0.0109148 0 -0.000621871)
(0.0312062 0 -0.00178318)
(0.048609 0 -0.00280097)
(0.0634136 0 -0.00370045)
(0.0759398 0 -0.00450341)
(0.0864444 0 -0.00522492)
(0.0951594 0 -0.00587531)
(0.102289 0 -0.00646128)
(0.108015 0 -0.00698652)
(0.112502 0 -0.00745248)
(0.1159 0 -0.00785926)
(0.118347 0 -0.00820455)
(0.119972 0 -0.00848475)
(0.120901 0 -0.00869511)
(0.121251 0 -0.00882922)
(0.12115 0 -0.00888213)
(0.120718 0 -0.00884605)
(0.120078 0 -0.0087124)
(0.119399 0 -0.00848199)
(0.118798 0 -0.00814346)
(0.118465 0 -0.00769992)
(0.118593 0 -0.0071571)
(0.119416 0 -0.00653408)
(0.121238 0 -0.00587105)
(0.124298 0 -0.0052112)
(0.129017 0 -0.00466274)
(0.135903 0 -0.0044024)
(0.145194 0 -0.00462222)
(0.157763 0 -0.00577486)
(0.17321 0 -0.0082543)
(0.011027 0 -0.000693378)
(0.0315328 0 -0.00198845)
(0.0491515 0 -0.00312449)
(0.0641831 0 -0.00413117)
(0.0769447 0 -0.00503211)
(0.0877037 0 -0.00584439)
(0.0966971 0 -0.00658005)
(0.104134 0 -0.00724718)
(0.110201 0 -0.00785058)
(0.115069 0 -0.00839259)
(0.118895 0 -0.00887526)
(0.121823 0 -0.00929709)
(0.12399 0 -0.00965615)
(0.125534 0 -0.00995028)
(0.126562 0 -0.0101696)
(0.127233 0 -0.0103167)
(0.127673 0 -0.0103858)
(0.128024 0 -0.010373)
(0.128444 0 -0.010278)
(0.129086 0 -0.0100995)
(0.130196 0 -0.00985604)
(0.131934 0 -0.00955313)
(0.134578 0 -0.00922422)
(0.138425 0 -0.00891896)
(0.143848 0 -0.00872496)
(0.151124 0 -0.00873688)
(0.160853 0 -0.0091789)
(0.173224 0 -0.0102555)
(0.188839 0 -0.0124092)
(0.206884 0 -0.015922)
(0.0111471 0 -0.00076387)
(0.0318858 0 -0.00219129)
(0.0497384 0 -0.00344583)
(0.0650121 0 -0.0045597)
(0.0780271 0 -0.00555921)
(0.089059 0 -0.00646354)
(0.0983508 0 -0.00728653)
(0.106117 0 -0.00803789)
(0.112549 0 -0.00872357)
(0.117821 0 -0.00934648)
(0.122103 0 -0.00991205)
(0.12554 0 -0.010419)
(0.12828 0 -0.0108674)
(0.13046 0 -0.0112557)
(0.132217 0 -0.0115809)
(0.133701 0 -0.0118438)
(0.135054 0 -0.0120435)
(0.136438 0 -0.0121824)
(0.138019 0 -0.0122643)
(0.139983 0 -0.012298)
(0.142551 0 -0.0123022)
(0.145951 0 -0.0123033)
(0.15051 0 -0.0123545)
(0.156499 0 -0.0125107)
(0.164314 0 -0.0128784)
(0.174373 0 -0.0135998)
(0.187023 0 -0.0148628)
(0.202649 0 -0.0169377)
(0.221186 0 -0.0201348)
(0.241546 0 -0.0246474)
(0.0112739 0 -0.000833218)
(0.0322609 0 -0.00239116)
(0.0503606 0 -0.00376274)
(0.0658889 0 -0.00498303)
(0.0791716 0 -0.00608102)
(0.090491 0 -0.00707804)
(0.100097 0 -0.00798979)
(0.10821 0 -0.00882793)
(0.115024 0 -0.0095998)
(0.12073 0 -0.0103119)
(0.125492 0 -0.0109674)
(0.12946 0 -0.0115673)
(0.132794 0 -0.0121154)
(0.13564 0 -0.0126118)
(0.138146 0 -0.0130575)
(0.140465 0 -0.0134554)
(0.142754 0 -0.013809)
(0.145197 0 -0.0141281)
(0.147963 0 -0.0144209)
(0.151268 0 -0.0147077)
(0.155332 0 -0.0150135)
(0.160433 0 -0.0153818)
(0.166883 0 -0.0158721)
(0.175066 0 -0.0165793)
(0.185314 0 -0.017604)
(0.198179 0 -0.0191394)
(0.213829 0 -0.0213374)
(0.232751 0 -0.0245046)
(0.254107 0 -0.0287511)
(0.276528 0 -0.0341849)
(0.0114072 0 -0.000901588)
(0.0326557 0 -0.00258846)
(0.0510147 0 -0.00407595)
(0.0668098 0 -0.00540217)
(0.080373 0 -0.00659883)
(0.091993 0 -0.00768936)
(0.101927 0 -0.00869133)
(0.110402 0 -0.00961888)
(0.11762 0 -0.0104811)
(0.123775 0 -0.011287)
(0.129025 0 -0.0120376)
(0.133535 0 -0.0127369)
(0.137479 0 -0.013394)
(0.141004 0 -0.0140101)
(0.144271 0 -0.0145904)
(0.147438 0 -0.0151402)
(0.150665 0 -0.0156664)
(0.154174 0 -0.0161916)
(0.158119 0 -0.016724)
(0.162744 0 -0.0172958)
(0.168287 0 -0.0179424)
(0.17507 0 -0.018728)
(0.183382 0 -0.0197159)
(0.193672 0 -0.0210292)
(0.206309 0 -0.0227901)
(0.221811 0 -0.0251975)
(0.240432 0 -0.0284242)
(0.262468 0 -0.0327225)
(0.286571 0 -0.0380137)
(0.310924 0 -0.0442969)
(0.0115456 0 -0.00096877)
(0.0330659 0 -0.00278255)
(0.0516941 0 -0.00438449)
(0.0677657 0 -0.00581585)
(0.0816198 0 -0.00711103)
(0.0935501 0 -0.00829555)
(0.103821 0 -0.00938859)
(0.112671 0 -0.0104076)
(0.120299 0 -0.0113623)
(0.126903 0 -0.0122626)
(0.13265 0 -0.013113)
(0.13772 0 -0.0139216)
(0.142284 0 -0.0146964)
(0.146493 0 -0.0154421)
(0.150521 0 -0.0161684)
(0.154529 0 -0.016884)
(0.1587 0 -0.0176035)
(0.163234 0 -0.0183481)
(0.16832 0 -0.0191395)
(0.174233 0 -0.020024)
(0.181208 0 -0.0210438)
(0.189551 0 -0.0222684)
(0.199655 0 -0.0238)
(0.211858 0 -0.0257458)
(0.226692 0 -0.0282889)
(0.244489 0 -0.0315891)
(0.265704 0 -0.0358796)
(0.29036 0 -0.0413173)
(0.316875 0 -0.0476466)
(0.343231 0 -0.0548035)
(0.0116868 0 -0.00103419)
(0.0334852 0 -0.00297183)
(0.052389 0 -0.00468587)
(0.0687439 0 -0.00622075)
(0.0828959 0 -0.00761359)
(0.0951416 0 -0.00889192)
(0.105764 0 -0.0100791)
(0.114996 0 -0.0111914)
(0.123039 0 -0.0122404)
(0.130099 0 -0.0132387)
(0.136351 0 -0.0141939)
(0.141979 0 -0.0151158)
(0.147154 0 -0.0160136)
(0.152037 0 -0.0168955)
(0.156814 0 -0.0177769)
(0.161647 0 -0.0186688)
(0.166726 0 -0.0195912)
(0.172245 0 -0.0205684)
(0.17843 0 -0.021636)
(0.185523 0 -0.0228385)
(0.193822 0 -0.0242448)
(0.203591 0 -0.0259217)
(0.215245 0 -0.0279932)
(0.229086 0 -0.0305711)
(0.245662 0 -0.0338679)
(0.265186 0 -0.0380335)
(0.288174 0 -0.0433517)
(0.314223 0 -0.0498738)
(0.341907 0 -0.0572993)
(0.370552 0 -0.0657561)
(0.00635907 0 -0.00234335)
(0.0136534 0 -0.00268513)
(0.0289804 0 -0.00316135)
(0.0523492 0 -0.00374369)
(0.0815701 0 -0.00430337)
(0.1131 0 -0.00475834)
(0.143268 0 -0.00503266)
(0.169725 0 -0.00517024)
(0.191543 0 -0.00515706)
(0.208789 0 -0.00505635)
(0.221868 0 -0.0048448)
(0.231309 0 -0.0046183)
(0.237666 0 -0.00437486)
(0.241319 0 -0.00409798)
(0.242572 0 -0.0038172)
(0.24165 0 -0.00353789)
(0.238693 0 -0.00326266)
(0.233796 0 -0.00299193)
(0.227018 0 -0.00272221)
(0.218357 0 -0.0024767)
(0.207803 0 -0.00222832)
(0.195313 0 -0.00199596)
(0.180805 0 -0.0017717)
(0.164213 0 -0.00155197)
(0.14546 0 -0.00133367)
(0.12446 0 -0.00111366)
(0.101125 0 -0.000888496)
(0.0753652 0 -0.000654344)
(0.0470977 0 -0.000406852)
(0.0161603 0 -0.000140122)
(0.0117129 0 -0.00711901)
(0.0195659 0 -0.00814275)
(0.0354698 0 -0.00961264)
(0.0590063 0 -0.0112932)
(0.0879715 0 -0.012914)
(0.118856 0 -0.0141908)
(0.148192 0 -0.0149877)
(0.17378 0 -0.0153336)
(0.194794 0 -0.0152645)
(0.211358 0 -0.0149239)
(0.223894 0 -0.0143317)
(0.232933 0 -0.0136514)
(0.23896 0 -0.012907)
(0.24235 0 -0.0120817)
(0.243404 0 -0.0112552)
(0.242327 0 -0.0104344)
(0.23925 0 -0.00962734)
(0.234263 0 -0.0088337)
(0.227407 0 -0.00805765)
(0.218685 0 -0.00731967)
(0.208085 0 -0.00660262)
(0.195545 0 -0.00592045)
(0.181 0 -0.00525941)
(0.164377 0 -0.0046102)
(0.145598 0 -0.00396403)
(0.124575 0 -0.00331175)
(0.101219 0 -0.0026433)
(0.0754381 0 -0.00194739)
(0.0471473 0 -0.00121118)
(0.0161796 0 -0.000417211)
(0.021888 0 -0.0121227)
(0.0310106 0 -0.013898)
(0.0479361 0 -0.0163693)
(0.0716978 0 -0.0190544)
(0.100174 0 -0.0215851)
(0.129841 0 -0.0235155)
(0.157564 0 -0.0246784)
(0.181459 0 -0.0250961)
(0.200955 0 -0.0248885)
(0.216252 0 -0.0242508)
(0.227783 0 -0.0233033)
(0.236032 0 -0.0221801)
(0.241432 0 -0.0209458)
(0.244335 0 -0.0196201)
(0.245011 0 -0.0182841)
(0.243637 0 -0.0169572)
(0.24033 0 -0.0156564)
(0.235159 0 -0.0143733)
(0.228162 0 -0.013141)
(0.219322 0 -0.0119478)
(0.208617 0 -0.010804)
(0.19599 0 -0.00970171)
(0.181373 0 -0.00862807)
(0.164691 0 -0.00757009)
(0.145861 0 -0.00651429)
(0.124793 0 -0.00544609)
(0.101395 0 -0.00434935)
(0.075573 0 -0.0032058)
(0.0472373 0 -0.00199457)
(0.0162136 0 -0.000687186)
(0.0365372 0 -0.017602)
(0.0475228 0 -0.0202252)
(0.0655896 0 -0.0235992)
(0.0896626 0 -0.0272036)
(0.117289 0 -0.0304068)
(0.145144 0 -0.0327509)
(0.170543 0 -0.0340443)
(0.19211 0 -0.0343909)
(0.209556 0 -0.0339825)
(0.223117 0 -0.0330052)
(0.233261 0 -0.0316795)
(0.240409 0 -0.0301305)
(0.244941 0 -0.0284446)
(0.247166 0 -0.0266733)
(0.247305 0 -0.0248695)
(0.245507 0 -0.0230719)
(0.241874 0 -0.0213206)
(0.236442 0 -0.0196021)
(0.229231 0 -0.0179507)
(0.220219 0 -0.0163561)
(0.209368 0 -0.0148168)
(0.196619 0 -0.0133236)
(0.181901 0 -0.0118627)
(0.165133 0 -0.0104181)
(0.146229 0 -0.00897249)
(0.125096 0 -0.00750642)
(0.101638 0 -0.00599818)
(0.0757568 0 -0.00442307)
(0.0473578 0 -0.00275279)
(0.0162582 0 -0.000948504)
(0.0552053 0 -0.0237582)
(0.0683078 0 -0.0272428)
(0.0875843 0 -0.0314459)
(0.11188 0 -0.0357887)
(0.138251 0 -0.0394158)
(0.163719 0 -0.0418655)
(0.186272 0 -0.0430683)
(0.205061 0 -0.0431957)
(0.220053 0 -0.0425072)
(0.231548 0 -0.04118)
(0.240027 0 -0.0394681)
(0.245838 0 -0.0375097)
(0.249308 0 -0.0354019)
(0.250699 0 -0.033214)
(0.250175 0 -0.030982)
(0.247858 0 -0.028771)
(0.243813 0 -0.0266174)
(0.238054 0 -0.0245204)
(0.230575 0 -0.0224926)
(0.221342 0 -0.0205301)
(0.210307 0 -0.0186271)
(0.197405 0 -0.0167722)
(0.182557 0 -0.0149502)
(0.165681 0 -0.0131424)
(0.146683 0 -0.0113281)
(0.125468 0 -0.00948362)
(0.101934 0 -0.00758227)
(0.0759785 0 -0.00559347)
(0.0475013 0 -0.00348211)
(0.0163105 0 -0.00119982)
(0.0774503 0 -0.0307256)
(0.0926485 0 -0.035011)
(0.11318 0 -0.0399593)
(0.137334 0 -0.0447674)
(0.16197 0 -0.0485262)
(0.184588 0 -0.0508253)
(0.20389 0 -0.0517165)
(0.21959 0 -0.0514883)
(0.231863 0 -0.0504193)
(0.241105 0 -0.048731)
(0.247731 0 -0.0466356)
(0.252046 0 -0.0442873)
(0.254322 0 -0.0417852)
(0.254773 0 -0.0392193)
(0.253506 0 -0.03662)
(0.250601 0 -0.0340576)
(0.246082 0 -0.0315546)
(0.239939 0 -0.0291181)
(0.232144 0 -0.026754)
(0.222652 0 -0.0244585)
(0.211401 0 -0.0222237)
(0.198318 0 -0.0200365)
(0.183318 0 -0.0178799)
(0.166313 0 -0.0157331)
(0.147205 0 -0.0135722)
(0.125892 0 -0.0113699)
(0.102269 0 -0.00909517)
(0.0762275 0 -0.00671204)
(0.0476607 0 -0.00417933)
(0.016368 0 -0.00143999)
(0.102867 0 -0.0385618)
(0.120118 0 -0.0435979)
(0.141686 0 -0.0491177)
(0.165122 0 -0.0540688)
(0.187391 0 -0.0575983)
(0.206741 0 -0.0594873)
(0.222545 0 -0.0598992)
(0.234999 0 -0.0592048)
(0.244445 0 -0.0577044)
(0.251332 0 -0.0556274)
(0.256013 0 -0.0531553)
(0.258751 0 -0.0504404)
(0.259778 0 -0.0475929)
(0.259237 0 -0.0446963)
(0.257183 0 -0.0417928)
(0.253641 0 -0.0389275)
(0.248601 0 -0.036123)
(0.242033 0 -0.0333882)
(0.233889 0 -0.0307263)
(0.224107 0 -0.0281327)
(0.212613 0 -0.0255981)
(0.199327 0 -0.023108)
(0.184158 0 -0.0206436)
(0.167008 0 -0.0181823)
(0.147775 0 -0.0156976)
(0.126353 0 -0.013159)
(0.102631 0 -0.0105315)
(0.0764938 0 -0.00777462)
(0.0478295 0 -0.00484174)
(0.0164281 0 -0.00166804)
(0.13106 0 -0.0472511)
(0.150186 0 -0.0529453)
(0.172384 0 -0.0588049)
(0.194308 0 -0.0635145)
(0.213581 0 -0.0664775)
(0.229278 0 -0.0677021)
(0.241472 0 -0.0675053)
(0.250635 0 -0.06627)
(0.257254 0 -0.0643061)
(0.261788 0 -0.0618342)
(0.26452 0 -0.0590025)
(0.265704 0 -0.0559693)
(0.265494 0 -0.0528349)
(0.263952 0 -0.0496651)
(0.261086 0 -0.0465025)
(0.256879 0 -0.0433808)
(0.251294 0 -0.0403194)
(0.244275 0 -0.037327)
(0.235756 0 -0.0344047)
(0.225662 0 -0.0315475)
(0.213908 0 -0.0287445)
(0.200403 0 -0.0259804)
(0.185049 0 -0.0232349)
(0.167742 0 -0.0204838)
(0.148375 0 -0.0176984)
(0.126835 0 -0.0148455)
(0.103006 0 -0.0118868)
(0.0767677 0 -0.00877781)
(0.0480014 0 -0.00546714)
(0.0164889 0 -0.00188319)
(0.161631 0 -0.0567171)
(0.182307 0 -0.0629216)
(0.204366 0 -0.0687715)
(0.223924 0 -0.0728501)
(0.239624 0 -0.0749435)
(0.25143 0 -0.0753232)
(0.259974 0 -0.074418)
(0.265908 0 -0.0726026)
(0.26979 0 -0.0701672)
(0.272069 0 -0.0673185)
(0.272975 0 -0.0641791)
(0.272697 0 -0.0608873)
(0.271294 0 -0.0575193)
(0.268771 0 -0.0541293)
(0.265098 0 -0.0507542)
(0.260223 0 -0.0474209)
(0.254082 0 -0.0441451)
(0.246599 0 -0.0409341)
(0.237693 0 -0.0377877)
(0.227275 0 -0.0347)
(0.215248 0 -0.0316595)
(0.201513 0 -0.0286497)
(0.185965 0 -0.0256495)
(0.168494 0 -0.0226332)
(0.148985 0 -0.0195704)
(0.127322 0 -0.0164257)
(0.103382 0 -0.0131579)
(0.0770402 0 -0.00971898)
(0.0481708 0 -0.00605379)
(0.0165481 0 -0.00208483)
(0.194194 0 -0.0668405)
(0.215919 0 -0.0733401)
(0.236713 0 -0.0787089)
(0.253014 0 -0.0817662)
(0.26464 0 -0.0827431)
(0.272436 0 -0.0821632)
(0.277411 0 -0.0805105)
(0.280285 0 -0.0781204)
(0.281661 0 -0.0752565)
(0.281899 0 -0.0720808)
(0.281167 0 -0.0687011)
(0.279541 0 -0.065207)
(0.27702 0 -0.0616585)
(0.273564 0 -0.0580984)
(0.269111 0 -0.0545567)
(0.263581 0 -0.0510547)
(0.256891 0 -0.0476048)
(0.248946 0 -0.0442124)
(0.23965 0 -0.0408765)
(0.228902 0 -0.0375903)
(0.216598 0 -0.0343418)
(0.202628 0 -0.0311139)
(0.186882 0 -0.0278848)
(0.169241 0 -0.0246277)
(0.149588 0 -0.0213108)
(0.1278 0 -0.0178967)
(0.103748 0 -0.0143421)
(0.0773026 0 -0.0105962)
(0.0483323 0 -0.00660043)
(0.0166041 0 -0.00227251)
(0.228404 0 -0.0774904)
(0.250394 0 -0.0839506)
(0.268508 0 -0.088264)
(0.280567 0 -0.089904)
(0.287756 0 -0.0895983)
(0.291587 0 -0.0880294)
(0.29322 0 -0.0856598)
(0.293397 0 -0.0827741)
(0.292616 0 -0.0795652)
(0.291097 0 -0.0761441)
(0.288917 0 -0.0725848)
(0.286079 0 -0.0689453)
(0.282535 0 -0.0652686)
(0.278214 0 -0.0615864)
(0.273026 0 -0.0579222)
(0.266874 0 -0.0542922)
(0.259652 0 -0.050706)
(0.251256 0 -0.0471673)
(0.241577 0 -0.0436746)
(0.230504 0 -0.0402203)
(0.217923 0 -0.0367922)
(0.20372 0 -0.0333729)
(0.187774 0 -0.0299399)
(0.169965 0 -0.0264658)
(0.150167 0 -0.0229177)
(0.128254 0 -0.0192569)
(0.104093 0 -0.015438)
(0.077547 0 -0.0114081)
(0.048481 0 -0.00710621)
(0.016655 0 -0.00244593)
(0.263953 0 -0.0885254)
(0.284797 0 -0.0943536)
(0.298457 0 -0.0969181)
(0.305441 0 -0.0968368)
(0.308095 0 -0.0952151)
(0.308296 0 -0.0927549)
(0.307086 0 -0.0898017)
(0.30506 0 -0.0865491)
(0.302498 0 -0.0831017)
(0.299502 0 -0.079521)
(0.296078 0 -0.0758499)
(0.29218 0 -0.0721232)
(0.287727 0 -0.0683694)
(0.282623 0 -0.0646112)
(0.27676 0 -0.060866)
(0.270027 0 -0.0571463)
(0.262305 0 -0.0534589)
(0.253479 0 -0.0498068)
(0.243431 0 -0.0461878)
(0.232042 0 -0.0425942)
(0.219192 0 -0.0390134)
(0.204759 0 -0.0354281)
(0.188619 0 -0.0318155)
(0.170644 0 -0.0281476)
(0.150706 0 -0.0243908)
(0.128672 0 -0.0205054)
(0.104406 0 -0.0164447)
(0.0777662 0 -0.0121541)
(0.0486124 0 -0.00757066)
(0.0166993 0 -0.00260495)
(0.300335 0 -0.0996917)
(0.317425 0 -0.103817)
(0.324865 0 -0.103973)
(0.326399 0 -0.102092)
(0.325061 0 -0.0993693)
(0.322332 0 -0.0962505)
(0.318934 0 -0.0929217)
(0.315184 0 -0.0894556)
(0.311203 0 -0.0858863)
(0.307004 0 -0.0822358)
(0.302545 0 -0.0785229)
(0.297745 0 -0.0747666)
(0.292503 0 -0.0709848)
(0.286708 0 -0.0671937)
(0.28024 0 -0.0634064)
(0.272978 0 -0.0596324)
(0.264794 0 -0.055876)
(0.255566 0 -0.0521407)
(0.245171 0 -0.048424)
(0.233483 0 -0.0447177)
(0.220376 0 -0.0410096)
(0.205723 0 -0.0372824)
(0.189396 0 -0.0335133)
(0.171263 0 -0.029674)
(0.151191 0 -0.0257305)
(0.129043 0 -0.0216425)
(0.104679 0 -0.0173622)
(0.0779535 0 -0.0128341)
(0.0487225 0 -0.00799371)
(0.0167357 0 -0.00274955)
(0.335857 0 -0.110203)
(0.345193 0 -0.111015)
(0.345877 0 -0.108594)
(0.342895 0 -0.105334)
(0.338568 0 -0.101927)
(0.333749 0 -0.0984968)
(0.328768 0 -0.0950365)
(0.32374 0 -0.0915266)
(0.318678 0 -0.0879566)
(0.313538 0 -0.0843253)
(0.308246 0 -0.0806388)
(0.302703 0 -0.0769072)
(0.296796 0 -0.0731429)
(0.290406 0 -0.0693582)
(0.283409 0 -0.065564)
(0.275677 0 -0.0617684)
(0.267074 0 -0.0579713)
(0.257478 0 -0.0541802)
(0.246763 0 -0.0503923)
(0.234796 0 -0.0465979)
(0.221447 0 -0.0427861)
(0.206589 0 -0.03894)
(0.190086 0 -0.0350363)
(0.171804 0 -0.0310471)
(0.151607 0 -0.0269382)
(0.129355 0 -0.022669)
(0.104903 0 -0.0181912)
(0.0781033 0 -0.0134484)
(0.0488078 0 -0.00837558)
(0.0167631 0 -0.00287981)
(0.364674 0 -0.117437)
(0.366408 0 -0.114275)
(0.360926 0 -0.109902)
(0.354858 0 -0.106227)
(0.348668 0 -0.102836)
(0.342549 0 -0.0995238)
(0.336554 0 -0.0961949)
(0.330671 0 -0.0928096)
(0.324853 0 -0.0893531)
(0.319026 0 -0.0858232)
(0.313103 0 -0.082225)
(0.306977 0 -0.0785675)
(0.300532 0 -0.0748619)
(0.293649 0 -0.0711194)
(0.286203 0 -0.0673504)
(0.278071 0 -0.0635649)
(0.269106 0 -0.0597599)
(0.259178 0 -0.0559376)
(0.248177 0 -0.0521034)
(0.235955 0 -0.0482429)
(0.222383 0 -0.0443491)
(0.207336 0 -0.0404057)
(0.190673 0 -0.0363884)
(0.172255 0 -0.0322698)
(0.151944 0 -0.0280161)
(0.129599 0 -0.0235865)
(0.105071 0 -0.0189327)
(0.0782104 0 -0.0139978)
(0.0488653 0 -0.00871674)
(0.0167802 0 -0.00299592)
(0.011833 0 -0.00109916)
(0.0339195 0 -0.00316005)
(0.0531094 0 -0.0049861)
(0.0697586 0 -0.00662494)
(0.0842212 0 -0.00811655)
(0.0968033 0 -0.00949127)
(0.107786 0 -0.0107746)
(0.117401 0 -0.0119816)
(0.125866 0 -0.0131275)
(0.133391 0 -0.0142285)
(0.140151 0 -0.0152927)
(0.14634 0 -0.0163333)
(0.15213 0 -0.0173611)
(0.157682 0 -0.0183865)
(0.163201 0 -0.0194326)
(0.16883 0 -0.0205078)
(0.174779 0 -0.0216414)
(0.18124 0 -0.022861)
(0.188456 0 -0.0242136)
(0.196644 0 -0.0257442)
(0.20611 0 -0.0275321)
(0.217133 0 -0.0296619)
(0.230005 0 -0.0322368)
(0.245109 0 -0.035412)
(0.262783 0 -0.0393669)
(0.283214 0 -0.044288)
(0.306548 0 -0.0504362)
(0.331888 0 -0.0579129)
(0.357595 0 -0.0669962)
(0.381344 0 -0.0788383)
(0.0119844 0 -0.00116406)
(0.0343698 0 -0.00334828)
(0.0538569 0 -0.00528688)
(0.0708129 0 -0.00703077)
(0.0855991 0 -0.00862274)
(0.0985267 0 -0.0100953)
(0.109875 0 -0.0114746)
(0.119882 0 -0.0127792)
(0.128785 0 -0.0140282)
(0.13679 0 -0.0152371)
(0.144069 0 -0.0164161)
(0.15082 0 -0.017581)
(0.157215 0 -0.018744)
(0.16344 0 -0.0199231)
(0.16967 0 -0.0211367)
(0.176064 0 -0.0224012)
(0.182845 0 -0.0237533)
(0.190194 0 -0.0252227)
(0.198326 0 -0.0268544)
(0.207511 0 -0.0287164)
(0.217948 0 -0.0308671)
(0.229934 0 -0.0334098)
(0.243672 0 -0.0364367)
(0.259515 0 -0.0401122)
(0.277516 0 -0.0445545)
(0.297724 0 -0.0499425)
(0.319739 0 -0.0564006)
(0.342209 0 -0.0638612)
(0.363061 0 -0.0721123)
(0.380068 0 -0.0808708)
(0.0121387 0 -0.00122802)
(0.0348292 0 -0.00353405)
(0.05462 0 -0.00558421)
(0.0718907 0 -0.00743282)
(0.0870093 0 -0.00912556)
(0.100288 0 -0.0106965)
(0.112009 0 -0.0121736)
(0.122422 0 -0.0135784)
(0.131765 0 -0.0149323)
(0.140241 0 -0.0162505)
(0.148027 0 -0.017546)
(0.155331 0 -0.018838)
(0.162323 0 -0.02014)
(0.169194 0 -0.0214753)
(0.176094 0 -0.0228579)
(0.183214 0 -0.0243152)
(0.19074 0 -0.0258786)
(0.198881 0 -0.0275913)
(0.207812 0 -0.0294926)
(0.217791 0 -0.0316552)
(0.228959 0 -0.0341297)
(0.24157 0 -0.0370167)
(0.255774 0 -0.0404051)
(0.27172 0 -0.0444134)
(0.289273 0 -0.0491091)
(0.308248 0 -0.0545964)
(0.327797 0 -0.0608099)
(0.346574 0 -0.0675579)
(0.363112 0 -0.0746027)
(0.37587 0 -0.0816712)
(0.0122944 0 -0.00129057)
(0.0352924 0 -0.00371599)
(0.0553895 0 -0.0058759)
(0.0729799 0 -0.00782802)
(0.0884372 0 -0.00962122)
(0.102071 0 -0.0112906)
(0.114168 0 -0.0128658)
(0.12498 0 -0.0143707)
(0.134761 0 -0.0158301)
(0.143706 0 -0.0172596)
(0.151993 0 -0.0186731)
(0.159834 0 -0.0200939)
(0.167397 0 -0.0215367)
(0.174859 0 -0.0230218)
(0.182387 0 -0.0245723)
(0.190161 0 -0.0262166)
(0.198346 0 -0.0279831)
(0.207147 0 -0.0299191)
(0.216729 0 -0.032067)
(0.227273 0 -0.0344846)
(0.238922 0 -0.0372296)
(0.251813 0 -0.0403751)
(0.266012 0 -0.043992)
(0.281488 0 -0.0481448)
(0.29799 0 -0.0528585)
(0.315062 0 -0.0581188)
(0.331865 0 -0.0637968)
(0.34742 0 -0.0697285)
(0.360736 0 -0.0757293)
(0.370707 0 -0.0814939)
(0.012448 0 -0.00135078)
(0.0357515 0 -0.00389156)
(0.0561517 0 -0.00615786)
(0.074068 0 -0.00821278)
(0.0898688 0 -0.0101054)
(0.103857 0 -0.0118721)
(0.116328 0 -0.0135451)
(0.127544 0 -0.0151506)
(0.137756 0 -0.0167158)
(0.147148 0 -0.0182544)
(0.155923 0 -0.0197874)
(0.164272 0 -0.0213337)
(0.172369 0 -0.0229141)
(0.18038 0 -0.0245475)
(0.188468 0 -0.026257)
(0.196803 0 -0.0280736)
(0.205554 0 -0.0300303)
(0.214881 0 -0.0321655)
(0.224928 0 -0.0345213)
(0.235821 0 -0.0371436)
(0.247661 0 -0.040083)
(0.260489 0 -0.043386)
(0.274279 0 -0.0470959)
(0.288862 0 -0.0512252)
(0.303909 0 -0.0557567)
(0.318945 0 -0.0606309)
(0.333318 0 -0.065736)
(0.34632 0 -0.0709329)
(0.357218 0 -0.0760409)
(0.365318 0 -0.0808045)
(0.0125993 0 -0.00140845)
(0.0362046 0 -0.00406006)
(0.0569234 0 -0.00643106)
(0.0751654 0 -0.00858619)
(0.0912906 0 -0.010574)
(0.105625 0 -0.0124353)
(0.118463 0 -0.0142042)
(0.130077 0 -0.0159102)
(0.140703 0 -0.0175773)
(0.150535 0 -0.0192247)
(0.15977 0 -0.0208738)
(0.168591 0 -0.0225427)
(0.177171 0 -0.0242522)
(0.185675 0 -0.026026)
(0.194249 0 -0.0278837)
(0.203061 0 -0.0298585)
(0.212256 0 -0.0319808)
(0.221958 0 -0.0342822)
(0.232283 0 -0.0368)
(0.243302 0 -0.039567)
(0.255067 0 -0.0426205)
(0.267533 0 -0.0459792)
(0.280596 0 -0.049657)
(0.294042 0 -0.0536396)
(0.307565 0 -0.0578943)
(0.320744 0 -0.0623529)
(0.333083 0 -0.0669166)
(0.344064 0 -0.0714664)
(0.353162 0 -0.0758334)
(0.35996 0 -0.0798332)
(0.0127465 0 -0.00146297)
(0.0366422 0 -0.00421925)
(0.0576738 0 -0.00669075)
(0.0762389 0 -0.00894173)
(0.0926836 0 -0.0110212)
(0.107357 0 -0.0129739)
(0.120564 0 -0.0148372)
(0.132558 0 -0.0166402)
(0.143576 0 -0.0184068)
(0.153823 0 -0.0201587)
(0.163486 0 -0.0219175)
(0.172735 0 -0.0237018)
(0.181741 0 -0.0255318)
(0.19067 0 -0.0274326)
(0.199659 0 -0.029426)
(0.208846 0 -0.0315376)
(0.218354 0 -0.0337956)
(0.228277 0 -0.0362245)
(0.238698 0 -0.0388542)
(0.249636 0 -0.0417023)
(0.261083 0 -0.0447877)
(0.272958 0 -0.0481128)
(0.285138 0 -0.0516763)
(0.297413 0 -0.0554541)
(0.309502 0 -0.0594026)
(0.321063 0 -0.0634555)
(0.331735 0 -0.0675344)
(0.341108 0 -0.0715197)
(0.348833 0 -0.0752764)
(0.354685 0 -0.0786862)
(0.0128895 0 -0.00151381)
(0.0370833 0 -0.00436988)
(0.0584155 0 -0.00693558)
(0.0772788 0 -0.00927549)
(0.0940292 0 -0.0114416)
(0.109033 0 -0.0134824)
(0.122597 0 -0.015436)
(0.13496 0 -0.0173313)
(0.146341 0 -0.0191915)
(0.156965 0 -0.0210412)
(0.167023 0 -0.0229039)
(0.176648 0 -0.0247926)
(0.186034 0 -0.0267344)
(0.195316 0 -0.0287481)
(0.204627 0 -0.0308557)
(0.214077 0 -0.0330777)
(0.223771 0 -0.0354383)
(0.233765 0 -0.0379525)
(0.244099 0 -0.0406386)
(0.254767 0 -0.0435045)
(0.26574 0 -0.046559)
(0.276927 0 -0.0497974)
(0.288192 0 -0.0532049)
(0.29934 0 -0.0567508)
(0.310137 0 -0.0603902)
(0.320333 0 -0.0640732)
(0.329619 0 -0.0677141)
(0.337695 0 -0.0712083)
(0.344361 0 -0.0744701)
(0.349487 0 -0.0774137)
(0.0130245 0 -0.0015602)
(0.0374935 0 -0.00450683)
(0.0591119 0 -0.00715874)
(0.0782728 0 -0.00958257)
(0.0953333 0 -0.0118317)
(0.110643 0 -0.013954)
(0.124532 0 -0.0159908)
(0.137246 0 -0.0179732)
(0.148964 0 -0.0199196)
(0.159935 0 -0.0218604)
(0.170336 0 -0.0238162)
(0.18029 0 -0.025799)
(0.189995 0 -0.0278388)
(0.199551 0 -0.0299468)
(0.209088 0 -0.032145)
(0.218691 0 -0.0344483)
(0.228431 0 -0.0368721)
(0.238345 0 -0.0394262)
(0.248458 0 -0.0421221)
(0.258753 0 -0.0449634)
(0.26918 0 -0.0479488)
(0.279645 0 -0.0510666)
(0.290016 0 -0.0542951)
(0.30012 0 -0.0576006)
(0.309796 0 -0.0609514)
(0.31882 0 -0.0642903)
(0.32694 0 -0.0675344)
(0.333977 0 -0.0706158)
(0.339804 0 -0.0734712)
(0.344348 0 -0.0760385)
(0.0131468 0 -0.00160089)
(0.0378611 0 -0.00462676)
(0.0597543 0 -0.00735725)
(0.0792101 0 -0.00985906)
(0.0965622 0 -0.0121838)
(0.112164 0 -0.0143804)
(0.126363 0 -0.0164948)
(0.139392 0 -0.0185556)
(0.151419 0 -0.0205806)
(0.162695 0 -0.0226019)
(0.173383 0 -0.0246374)
(0.183622 0 -0.0267036)
(0.193572 0 -0.028823)
(0.203318 0 -0.0310035)
(0.212975 0 -0.0332643)
(0.222611 0 -0.0356146)
(0.232285 0 -0.0380671)
(0.242027 0 -0.0406284)
(0.251841 0 -0.0433025)
(0.2617 0 -0.046088)
(0.271549 0 -0.0489769)