/*--------------------------------*- C++ -*----------------------------------*\
| =========                 |                                                 |
| \\      /  F ield         | OpenFOAM: The Open Source CFD Toolbox           |
|  \\    /   O peration     | Version:  dev                                   |
|   \\  /    A nd           | Web:      www.OpenFOAM.org                      |
|    \\/     M anipulation  |                                                 |
\*---------------------------------------------------------------------------*/
FoamFile
{
    version     2.0;
    format      ascii;
    class       surfaceScalarField;
    location    "4.97";
    object      phi;
}
// * * * * * * * * * * * * * * * * * * * * * * * * * * * * * * * * * * * * * //

dimensions      [0 3 -1 0 0 0 0];

internalField   nonuniform List<scalar> 
5457
(
0.19786
0.00215185
0.195627
0.00224597
0.193249
0.00239284
0.190668
0.00259634
0.187875
0.00280978
0.184866
0.00302391
0.181633
0.00324515
0.178159
0.00348143
0.174426
0.00373451
0.170415
0.00400669
0.166104
0.00430112
0.16147
0.00461945
0.156488
0.00496425
0.151128
0.00533932
0.145361
0.00574719
0.139152
0.00619048
0.132463
0.00667205
0.125256
0.00719429
0.117486
0.00775962
0.109113
0.00836615
0.1001
0.00900896
0.0904155
0.00968448
0.0800295
0.010387
0.0689259
0.0111053
0.0571082
0.0118194
0.0446095
0.0125002
0.0315085
0.0131022
0.0179868
0.0135224
0.00463342
0.0133537
0.00463351
0.199652
0.00251172
0.198728
0.00318261
0.19753
0.00360488
0.19608
0.0040626
0.194369
0.00453763
0.192391
0.00501711
0.190137
0.005511
0.187596
0.00603031
0.184752
0.00658003
0.181589
0.00716597
0.178085
0.00779507
0.17422
0.00846973
0.16997
0.00919589
0.165307
0.00998245
0.1602
0.0108341
0.154614
0.0117571
0.148512
0.0127577
0.141851
0.0138413
0.134584
0.0150162
0.126659
0.016285
0.118026
0.0176386
0.10864
0.0190695
0.0984554
0.0205726
0.087425
0.0221373
0.0755109
0.0237352
0.0626989
0.0253138
0.0490167
0.0267856
0.034579
0.0279609
0.0195027
0.0284303
0.0241363
0.199508
0.00301531
0.198655
0.00404766
0.197528
0.00474685
0.196171
0.00543533
0.194586
0.00613956
0.192762
0.00685664
0.190688
0.00759744
0.188356
0.0083703
0.185753
0.00918498
0.182864
0.010051
0.179672
0.0109772
0.176158
0.0119699
0.172297
0.0130386
0.168065
0.0141945
0.163432
0.0154458
0.158367
0.0168032
0.15283
0.018278
0.146777
0.0198801
0.140159
0.0216236
0.132916
0.0235211
0.12498
0.0255704
0.11628
0.0277696
0.106732
0.0301208
0.0962393
0.0326319
0.0846797
0.0352965
0.0719091
0.0380859
0.0577387
0.0409572
0.0418158
0.0438845
0.0229554
0.047291
0.0470918
0.199416
0.00361092
0.198566
0.00490906
0.197453
0.00587411
0.196112
0.00679286
0.194548
0.0077201
0.192754
0.00866628
0.190721
0.00964344
0.188441
0.0106588
0.185903
0.0117255
0.183095
0.0128557
0.180004
0.0140588
0.176611
0.0153484
0.172895
0.0167369
0.168836
0.0182336
0.164409
0.0198522
0.159584
0.0216079
0.154328
0.0235175
0.148597
0.0255967
0.142343
0.0278667
0.135504
0.0303518
0.128004
0.0330669
0.119745
0.0360278
0.110614
0.0392528
0.100468
0.0427786
0.0891091
0.0466571
0.0762406
0.0509559
0.0614435
0.0557554
0.0441734
0.0611553
0.0236631
0.0678017
0.070755
0.199368
0.00425328
0.198509
0.00578034
0.197407
0.00699058
0.196081
0.00813479
0.194537
0.00928127
0.192768
0.0104518
0.190766
0.0116586
0.188522
0.012911
0.186027
0.0142237
0.183269
0.0156112
0.180233
0.0170858
0.176903
0.0186643
0.173261
0.0203604
0.169289
0.0221858
0.164962
0.0241583
0.160253
0.0262969
0.155129
0.0286238
0.149549
0.0311614
0.143465
0.0339392
0.136813
0.0369959
0.129509
0.0403671
0.121441
0.0440945
0.112456
0.0482373
0.102375
0.0528608
0.0909649
0.0580691
0.0778686
0.0640536
0.0625403
0.0710847
0.0442958
0.0794005
0.0232114
0.0888864
0.0939664
0.199345
0.00491879
0.198476
0.0066606
0.197386
0.00809533
0.196081
0.00945604
0.194562
0.0108171
0.192823
0.0122076
0.190856
0.0136388
0.188654
0.0151231
0.186204
0.0166772
0.183495
0.0183179
0.180511
0.0200609
0.177238
0.0219233
0.17366
0.0239206
0.169755
0.0260705
0.165498
0.0283938
0.160863
0.0309124
0.155815
0.0336538
0.150311
0.0366495
0.144299
0.0399391
0.137711
0.0435756
0.130455
0.0476183
0.122413
0.0521352
0.11342
0.0572301
0.10324
0.063042
0.0915813
0.0697286
0.0781306
0.0775055
0.0623908
0.0868253
0.0435244
0.0982675
0.0223038
0.110107
0.11627
0.199335
0.0055936
0.198465
0.0075417
0.19739
0.00918422
0.196108
0.0107547
0.194617
0.0123259
0.192912
0.0139292
0.190987
0.0155783
0.188831
0.017289
0.186433
0.0190798
0.18378
0.0209694
0.180857
0.0229759
0.17765
0.0251171
0.174141
0.0274113
0.170307
0.0298847
0.166118
0.032561
0.161548
0.0354622
0.156561
0.0386222
0.15111
0.0420848
0.145135
0.0459015
0.138563
0.0501379
0.131287
0.054889
0.123168
0.0602521
0.11405
0.066347
0.103704
0.0733889
0.0917749
0.0816585
0.0778956
0.0913857
0.0617621
0.10296
0.042525
0.117505
0.0213391
0.131293
0.137609
0.199333
0.00627012
0.19847
0.00841553
0.197415
0.0102527
0.196159
0.012027
0.194701
0.013802
0.193038
0.0156097
0.191161
0.0174698
0.18906
0.0194009
0.186722
0.0214228
0.184134
0.0235566
0.181281
0.0258221
0.178147
0.028238
0.174714
0.0308274
0.170957
0.0336217
0.166848
0.0366489
0.162353
0.0399361
0.157434
0.0435218
0.152035
0.0474678
0.14609
0.0518331
0.13952
0.0566979
0.132212
0.0621906
0.124019
0.0684418
0.114736
0.0756297
0.104145
0.0839797
0.0919598
0.0938441
0.0777083
0.105638
0.0611715
0.119497
0.0415943
0.137082
0.020467
0.152421
0.158076
0.199336
0.00694285
0.198485
0.00927675
0.197453
0.0112984
0.196228
0.013268
0.19481
0.0152387
0.193194
0.0172432
0.191373
0.0193069
0.189334
0.0214512
0.187066
0.0236974
0.184553
0.0260698
0.181779
0.0285897
0.178728
0.0312768
0.175379
0.0341602
0.171713
0.0372678
0.1677
0.0406399
0.163298
0.0443175
0.158462
0.0483386
0.153134
0.052778
0.147248
0.057706
0.140695
0.0632393
0.133368
0.069511
0.125127
0.0766788
0.115747
0.0850079
0.104947
0.0947788
0.092479
0.106312
0.077924
0.120193
0.0609885
0.136432
0.041021
0.15705
0.01992
0.173522
0.177996
0.199346
0.00760465
0.19851
0.0101222
0.197502
0.0123199
0.196313
0.0144734
0.19494
0.0166302
0.193378
0.0188239
0.191618
0.0210834
0.189649
0.0234326
0.187459
0.0258945
0.185032
0.0284985
0.18235
0.0312669
0.179396
0.0342198
0.17615
0.0373896
0.172592
0.0408065
0.168689
0.0445221
0.164399
0.0485863
0.15967
0.0530479
0.154446
0.0579841
0.148652
0.0634859
0.142179
0.0696999
0.134908
0.0767745
0.126658
0.0849234
0.117234
0.0944295
0.106354
0.105658
0.0936528
0.119012
0.0787985
0.135047
0.0614779
0.153752
0.0411866
0.177341
0.02009
0.194618
0.198086
0.19936
0.00825123
0.198543
0.0109484
0.197563
0.0133127
0.196415
0.0156376
0.195094
0.0179706
0.193591
0.0203452
0.1919
0.0227923
0.190009
0.0253376
0.187903
0.0280083
0.185569
0.0308357
0.182991
0.0338409
0.180151
0.0370497
0.177028
0.0404973
0.173596
0.0442207
0.169822
0.0482747
0.165673
0.0527148
0.161091
0.0576094
0.156015
0.0630427
0.150358
0.0691272
0.144029
0.0760161
0.136896
0.0838984
0.128767
0.0930465
0.119411
0.103782
0.108571
0.116495
0.0958239
0.131758
0.0808143
0.150055
0.0632232
0.171342
0.0428226
0.19774
0.0216202
0.21582
0.219706
0.199375
0.00888106
0.198582
0.0117507
0.197635
0.0142717
0.196533
0.0167565
0.195267
0.0192552
0.19383
0.0218016
0.192213
0.0244276
0.190405
0.0271611
0.188389
0.0300336
0.186158
0.0330714
0.1837
0.0362964
0.180991
0.0397498
0.178007
0.0434674
0.174723
0.0474872
0.171111
0.0518674
0.167136
0.0566689
0.16274
0.0619852
0.157862
0.067902
0.152428
0.0745453
0.146332
0.0820987
0.139431
0.09079
0.131567
0.100903
0.122501
0.112842
0.111932
0.12706
0.0994954
0.144191
0.0847487
0.164799
0.0672947
0.188794
0.0472067
0.217827
0.0256736
0.237352
0.24538
0.199392
0.00949262
0.198626
0.0125247
0.197718
0.015192
0.196665
0.0178259
0.19546
0.0204797
0.194094
0.0231874
0.192558
0.0259835
0.190838
0.0288964
0.188927
0.0319564
0.186814
0.0351896
0.184484
0.0386252
0.181916
0.0423113
0.179089
0.0462825
0.175978
0.0505817
0.172556
0.0552703
0.168787
0.060417
0.164625
0.0661272
0.160016
0.0724927
0.154879
0.0796663
0.149114
0.0878503
0.142605
0.0972873
0.135181
0.108319
0.126657
0.12136
0.116739
0.136973
0.105135
0.155789
0.091395
0.178535
0.0750256
0.205161
0.0562544
0.236596
0.0345357
0.25907
0.279915
0.199412
0.0100834
0.198676
0.0132667
0.197812
0.0160685
0.196813
0.0188409
0.195673
0.0216391
0.194382
0.0244997
0.192929
0.0274566
0.191308
0.030534
0.189513
0.0337647
0.187528
0.037182
0.185335
0.0408192
0.18292
0.0447204
0.18027
0.0489221
0.177358
0.0534796
0.174156
0.0584538
0.170634
0.0639201
0.16676
0.0699813
0.162483
0.0767519
0.157729
0.0844036
0.152415
0.0931498
0.146459
0.103231
0.139722
0.115045
0.132079
0.128995
0.123331
0.145714
0.113315
0.165798
0.101732
0.190113
0.0882739
0.218614
0.0732977
0.25157
0.0529125
0.279454
0.332828
0.19943
0.0106541
0.198725
0.0139771
0.197903
0.0169017
0.196959
0.0198014
0.195884
0.0227343
0.194665
0.0257391
0.1933
0.0288424
0.191786
0.0320668
0.190109
0.0354562
0.188254
0.0390458
0.186208
0.0428683
0.183959
0.0469655
0.181497
0.0513762
0.178793
0.0561698
0.17583
0.0614002
0.172589
0.0671433
0.169038
0.0735139
0.165128
0.0806437
0.160825
0.088691
0.156076
0.0978837
0.150806
0.108489
0.144998
0.120841
0.138602
0.13538
0.131598
0.152709
0.124074
0.173314
0.116186
0.197994
0.108424
0.226371
0.101694
0.258297
0.0912865
0.289861
0.424115
0.00297453
-0.00297534
0.00680249
-0.00383211
0.0102641
-0.00347557
0.013126
-0.00289213
0.0154883
-0.00240817
0.0175221
-0.0020854
0.0193746
-0.00189859
0.0211456
-0.0018074
0.0228794
-0.00176351
0.0245875
-0.00173168
0.0262499
-0.00167957
0.0278162
-0.00158172
0.0292592
-0.00145934
0.0305466
-0.00130363
0.0316489
-0.00111722
0.0325652
-0.000928233
0.033316
-0.000758204
0.0339418
-0.000627409
0.034488
-0.000541099
0.0350068
-0.0005064
0.0355443
-0.000517783
0.03613
-0.000558593
0.0367802
-0.0006164
0.0374908
-0.000670497
0.0382439
-0.000707658
0.039016
-0.000722025
0.0397854
-0.000715612
0.0405394
-0.000697109
0.0412773
-0.00067865
-0.000675141
0.00319385
-0.00617006
0.00676982
-0.00741252
0.0101946
-0.00691492
0.0131955
-0.00592403
0.015789
-0.00504771
0.0180851
-0.0044321
0.0202031
-0.00406099
0.0222328
-0.0038721
0.024221
-0.00378034
0.0261914
-0.00372533
0.0281488
-0.00365441
0.0300758
-0.00352422
0.0319505
-0.00335056
0.0337578
-0.00312748
0.0354805
-0.00285516
0.0371043
-0.00256412
0.0386205
-0.00228208
0.0400275
-0.00203616
0.0413389
-0.00184756
0.0425783
-0.00173361
0.0437691
-0.00168897
0.0449327
-0.00169534
0.046076
-0.00172592
0.0471965
-0.00175113
0.0482867
-0.0017526
0.0493378
-0.00172319
0.0503421
-0.00166621
0.0512942
-0.00159239
0.0521895
-0.00151484
-0.00142177
0.00316284
-0.00933384
0.00636974
-0.0106242
0.00940205
-0.00996255
0.0120789
-0.00863209
0.0144053
-0.00741862
0.0164599
-0.00653409
0.0183504
-0.00599257
0.0201491
-0.0057034
0.021902
-0.00556043
0.0236344
-0.00548078
0.0253624
-0.0054005
0.0271005
-0.00527844
0.0288326
-0.00509988
0.0305486
-0.00486069
0.0322478
-0.00457012
0.0339188
-0.00424777
0.0355528
-0.00392421
0.0371405
-0.00362613
0.0386748
-0.00337753
0.0401498
-0.0031969
0.041558
-0.00307803
0.0428935
-0.00300446
0.0441477
-0.00294688
0.0453131
-0.00287711
0.0463826
-0.00277725
0.0473506
-0.00264177
0.0482145
-0.00247679
0.0489748
-0.00229621
0.0496375
-0.00211872
-0.00192887
0.00316921
-0.0125041
0.00604359
-0.0135038
0.00868529
-0.0126201
0.0109626
-0.01094
0.0128886
-0.00938581
0.0145577
-0.00824554
0.0160693
-0.00754058
0.0174906
-0.00715449
0.0188687
-0.00696426
0.0202355
-0.00687041
0.0216112
-0.00679506
0.023011
-0.00669549
0.0244406
-0.00654776
0.0259035
-0.00634167
0.0273944
-0.00607762
0.0289029
-0.00576971
0.0304182
-0.00544842
0.0319276
-0.00513851
0.0334144
-0.00486073
0.0348566
-0.00462817
0.0362312
-0.00443424
0.0375141
-0.00426185
0.0386852
-0.00408551
0.0397281
-0.00388137
0.0406304
-0.00363548
0.0413837
-0.00334622
0.0419845
-0.00302494
0.0424375
-0.00269333
0.042758
-0.00238096
-0.00209915
0.0031594
-0.0156646
0.005704
-0.0160541
0.00796015
-0.0148924
0.00976789
-0.0127766
0.0111936
-0.0108481
0.0123753
-0.00946358
0.0134152
-0.008612
0.0143873
-0.00815332
0.0153339
-0.00793509
0.0162866
-0.00784563
0.0172726
-0.00780074
0.0183075
-0.00774911
0.0193994
-0.00765901
0.0205551
-0.0075166
0.0217775
-0.00731759
0.0230564
-0.00706294
0.0243723
-0.00677395
0.0257044
-0.00647457
0.0270289
-0.0061825
0.0283157
-0.00590503
0.0295355
-0.00563668
0.0306601
-0.00536186
0.0316662
-0.00506013
0.0325372
-0.00471472
0.0332622
-0.00431729
0.033834
-0.00387004
0.0342496
-0.00338861
0.0345122
-0.00290087
0.034633
-0.00244408
-0.00203603
0.00311308
-0.0187789
0.00529516
-0.0182421
0.00710888
-0.016722
0.00832277
-0.0140167
0.00914485
-0.0117014
0.00977551
-0.0101245
0.0103148
-0.00917806
0.0108227
-0.00868524
0.0113406
-0.00847575
0.0118984
-0.00842543
0.0125216
-0.00844443
0.0132253
-0.00847277
0.0140193
-0.00847366
0.0149084
-0.00842591
0.0158885
-0.00831615
0.0169516
-0.00814126
0.0180825
-0.00791547
0.0192562
-0.00765306
0.0204418
-0.0073664
0.0216077
-0.00706206
0.0227222
-0.00673489
0.0237549
-0.00637112
0.0246795
-0.00595436
0.0254736
-0.00547227
0.0261185
-0.00492003
0.0265974
-0.00430198
0.0268953
-0.00363555
0.0270004
-0.00295169
0.0269129
-0.00229968
-0.00172626
0.00302647
-0.0218067
0.00474485
-0.0199667
0.00594659
-0.0179387
0.00642845
-0.0145212
0.00660317
-0.0119018
0.00667022
-0.0102164
0.00672274
-0.00925347
0.00680877
-0.00879283
0.00696084
-0.00864911
0.00720135
-0.00868743
0.00754852
-0.00881266
0.00801437
-0.00895969
0.0086057
-0.00908658
0.00932295
-0.00916422
0.0101575
-0.00916993
0.0110939
-0.00909371
0.0121104
-0.0089434
0.013182
-0.00873047
0.0142798
-0.0084635
0.0153691
-0.00814361
0.0164112
-0.00776186
0.017369
-0.00730669
0.018211
-0.00676731
0.0189107
-0.00613654
0.0194431
-0.0054114
0.0197824
-0.00459545
0.0198989
-0.00370212
0.0197518
-0.00275127
0.0193361
-0.00182789
-0.00108525
0.00285598
-0.0246642
0.0038914
-0.0210083
0.00425427
-0.0183148
0.00393649
-0.0142219
0.0034595
-0.0114453
0.0029929
-0.00977004
0.00262244
-0.00890271
0.00237279
-0.00856272
0.00225907
-0.00855541
0.00228852
-0.00873778
0.00246613
-0.00901164
0.00279461
-0.00931
0.00327222
-0.00958645
0.00389236
-0.00980602
0.00464108
-0.00993848
0.00549641
-0.00996571
0.00643051
-0.00988975
0.0074161
-0.00972275
0.00842333
-0.009471
0.00941807
-0.00913166
0.0103626
-0.00869249
0.0112177
-0.0081408
0.0119465
-0.00746821
0.0125162
-0.00667214
0.012896
-0.00575138
0.0130431
-0.00469793
0.0129081
-0.0035182
0.0124821
-0.00227301
0.0118053
-0.00109608
-0.000200728
0.0025163
-0.0271821
0.00255315
-0.0210507
0.00186547
-0.0176381
0.000712739
-0.0130839
-0.000380844
-0.0103679
-0.00129019
-0.00887746
-0.00197824
-0.00823187
-0.00245375
-0.00810508
-0.00272865
-0.0082994
-0.00281639
-0.00867029
-0.00272918
-0.00912022
-0.0024778
-0.00958356
-0.00207106
-0.0100158
-0.00151787
-0.0103812
-0.00083324
-0.0106433
-4.31656e-05
-0.0107729
0.000815836
-0.0107616
0.00171387
-0.0106282
0.00262746
-0.0103858
0.00352593
-0.0100245
0.00436981
-0.0095236
0.00511593
-0.00886711
0.00572471
-0.0080504
0.00616131
-0.00707587
0.0063959
-0.00594745
0.00642087
-0.00467943
0.00624289
-0.00329253
0.0058564
-0.00183535
0.00525896
-0.000444629
0.000626126
0.0018794
-0.029063
0.000547387
-0.0197235
-0.0013703
-0.0157292
-0.00332945
-0.0111362
-0.00493484
-0.00877548
-0.00615672
-0.00766975
-0.00704352
-0.00736038
-0.00763919
-0.00752593
-0.00798603
-0.00797044
-0.00812046
-0.00855539
-0.00807019
-0.0091916
-0.00785565
-0.00982031
-0.00748921
-0.0104048
-0.00697832
-0.0109141
-0.00634073
-0.0113012
-0.00561183
-0.0115192
-0.004828
-0.0115587
-0.0040145
-0.0114497
-0.00318776
-0.0112144
-0.00236971
-0.0108377
-0.00159831
-0.0102833
-0.000920247
-0.0095265
-0.000375915
-0.00856936
1.08467e-05
-0.00743102
0.000235181
-0.00613453
0.000294947
-0.00469697
0.000182285
-0.00313338
-0.0001094
-0.00149365
-0.000571723
7.06301e-05
0.00129078
0.000605269
-0.0296697
-0.00242211
-0.0166999
-0.00558784
-0.0125702
-0.00818861
-0.00854437
-0.0101581
-0.00681664
-0.0115578
-0.00628234
-0.0125175
-0.00641463
-0.0131298
-0.00692906
-0.0134692
-0.00764801
-0.0135926
-0.00845079
-0.013537
-0.00926791
-0.0133257
-0.0100536
-0.0129685
-0.0107844
-0.0124681
-0.0114364
-0.0118425
-0.0119471
-0.0111375
-0.0122416
-0.0104003
-0.0123093
-0.00965082
-0.0122076
-0.00888825
-0.0119795
-0.00812045
-0.0116016
-0.00738219
-0.0110107
-0.00672182
-0.0101693
-0.00617669
-0.00909029
-0.00576481
-0.0078125
-0.0054952
-0.00636812
-0.00537618
-0.004775
-0.00541254
-0.00305175
-0.00560628
-0.00125107
-0.00596235
0.000478521
0.00183209
-0.00180493
-0.0278659
-0.00653259
-0.0119752
-0.0108089
-0.00829926
-0.0138642
-0.00549636
-0.0159712
-0.0047187
-0.0173607
-0.0049039
-0.0182548
-0.00553341
-0.0187815
-0.0064169
-0.0190351
-0.00741068
-0.0190897
-0.00841439
-0.0189824
-0.00939529
-0.0187321
-0.0103253
-0.018346
-0.0111924
-0.0178185
-0.0119854
-0.0171635
-0.0126219
-0.0164407
-0.0129816
-0.015718
-0.0130454
-0.0150081
-0.012926
-0.014281
-0.0127095
-0.0135214
-0.0123577
-0.012764
-0.0117581
-0.0120697
-0.0108469
-0.0114858
-0.00965103
-0.0110339
-0.00823515
-0.0107189
-0.00664835
-0.0105404
-0.0049137
-0.0105005
-0.00304757
-0.0106083
-0.00109569
-0.0108839
0.000804841
0.00229334
-0.00574559
-0.0221212
-0.0120705
-0.00565264
-0.0169629
-0.00341117
-0.0202086
-0.00225703
-0.0222045
-0.00273103
-0.0233549
-0.00376365
-0.0240349
-0.00486546
-0.0243697
-0.00609598
-0.0244538
-0.00734234
-0.0243829
-0.00850273
-0.0241782
-0.00961947
-0.023842
-0.0106823
-0.023391
-0.0116646
-0.0228074
-0.0125899
-0.0220789
-0.0133697
-0.0212893
-0.013788
-0.0205516
-0.0137963
-0.0198694
-0.0136167
-0.0191617
-0.0134203
-0.0183763
-0.0131401
-0.0175571
-0.012568
-0.0167981
-0.0115901
-0.0161654
-0.0102616
-0.0156757
-0.00869664
-0.0153175
-0.00697296
-0.0150783
-0.00511431
-0.014961
-0.00312197
-0.014987
-0.00102326
-0.0151865
0.00105393
0.00268451
-0.0122525
-0.00986933
-0.0189213
0.00101414
-0.0239597
0.00162323
-0.0271664
0.000943705
-0.0287033
-0.00120185
-0.029213
-0.00326367
-0.0295162
-0.00457374
-0.0295856
-0.00604002
-0.029424
-0.00751912
-0.0291807
-0.00876295
-0.0288495
-0.00996948
-0.0283995
-0.0111524
-0.0278722
-0.0122124
-0.0272216
-0.0132605
-0.0263753
-0.0142346
-0.0254573
-0.0147222
-0.0246824
-0.014584
-0.0240429
-0.0142644
-0.0233632
-0.0141031
-0.0225274
-0.0139732
-0.0216054
-0.0134812
-0.0207553
-0.012425
-0.0200688
-0.0109268
-0.0195459
-0.00919237
-0.0191476
-0.00733877
-0.0188458
-0.00537867
-0.0186467
-0.00327938
-0.0185864
-0.00103822
-0.0187052
0.00122119
0.00300601
-0.0244715
0.0146016
-0.0270444
0.00358479
-0.0318536
0.00642831
-0.0349762
0.00406052
-0.0351574
-0.00102814
-0.0339739
-0.00445653
-0.0339659
-0.00459287
-0.0339634
-0.00605553
-0.0334691
-0.00802807
-0.0330117
-0.00923684
-0.0326371
-0.0103622
-0.0321104
-0.0116983
-0.0315128
-0.0128295
-0.0308171
-0.0139752
-0.0298254
-0.015244
-0.0287087
-0.0158542
-0.0278898
-0.0154151
-0.0273539
-0.0148082
-0.0267483
-0.0147116
-0.0258391
-0.0148798
-0.0247553
-0.0145564
-0.0237784
-0.0133872
-0.0230365
-0.0116482
-0.0224931
-0.00970951
-0.0220632
-0.00773715
-0.0216963
-0.00570922
-0.0214047
-0.00353044
-0.0212463
-0.00115236
-0.0212776
0.0012997
0.0032548
0.207099
0.0112143
0.206411
0.0146689
0.205613
0.0177101
0.204699
0.0207312
0.203662
0.0237927
0.202493
0.0269303
0.201191
0.0301669
0.199746
0.033532
0.198144
0.0370736
0.19638
0.0408218
0.194441
0.0448118
0.192319
0.0490863
0.19
0.0536892
0.187468
0.0586901
0.184718
0.0641355
0.181727
0.0701165
0.178474
0.076749
0.174946
0.084154
0.171112
0.0925086
0.166976
0.102005
0.162545
0.112906
0.157888
0.125484
0.15309
0.140165
0.148432
0.157354
0.144433
0.177303
0.142111
0.200307
0.143337
0.225139
0.151436
0.250194
0.170819
0.270477
0.27919
0.315745
0.212138
0.0117584
0.211477
0.0153318
0.210715
0.0184807
0.209847
0.0216151
0.208866
0.0247942
0.207771
0.0280494
0.206554
0.0314071
0.205203
0.034905
0.203709
0.0385849
0.202073
0.0424715
0.200284
0.0466077
0.198335
0.0510369
0.196211
0.0558086
0.193916
0.0609761
0.191446
0.0665925
0.188786
0.0727607
0.185933
0.0795852
0.182901
0.0871694
0.179693
0.0957005
0.176365
0.105317
0.173026
0.116231
0.169809
0.128685
0.167009
0.142949
0.165238
0.159111
0.165418
0.17711
0.169291
0.196422
0.179468
0.214954
0.200035
0.229624
0.233264
0.237247
0.245256
0.267199
0.217304
0.0122804
0.216678
0.0159591
0.215961
0.0192054
0.215146
0.0224435
0.214233
0.0257274
0.213221
0.0290851
0.212103
0.0325499
0.210865
0.0361662
0.209502
0.0399674
0.208017
0.0439718
0.206403
0.0482318
0.204652
0.0527916
0.202768
0.0576904
0.200757
0.0629803
0.198613
0.0687254
0.196353
0.0750077
0.193991
0.0819313
0.19155
0.0895953
0.189103
0.0981316
0.186753
0.107653
0.184666
0.118302
0.183106
0.130228
0.182554
0.143481
0.183757
0.15789
0.187798
0.173053
0.196259
0.187948
0.210371
0.200833
0.230106
0.209884
0.252945
0.214406
0.215592
0.28261
0.2226
0.0127741
0.222018
0.016543
0.221352
0.0198778
0.220597
0.0232108
0.21976
0.026583
0.218843
0.0300251
0.217837
0.033581
0.216728
0.0373001
0.215515
0.0412022
0.2142
0.045304
0.212781
0.0496627
0.211261
0.0543182
0.20965
0.0593013
0.207961
0.0646653
0.2062
0.0704779
0.20439
0.0768054
0.202575
0.0837335
0.200811
0.091345
0.199213
0.0997155
0.197928
0.108924
0.197183
0.119032
0.197345
0.130047
0.198953
0.141851
0.202716
0.154107
0.209503
0.166247
0.22009
0.177347
0.234532
0.18638
0.252213
0.192196
0.272755
0.193862
0.190254
0.298093
0.22803
0.0132338
0.227494
0.017079
0.226885
0.0204928
0.226201
0.0239062
0.225454
0.0273478
0.224644
0.0308567
0.22376
0.0344901
0.222793
0.0382926
0.221748
0.042271
0.220623
0.046448
0.219425
0.0508743
0.218168
0.055584
0.216861
0.0606119
0.215525
0.0659997
0.214185
0.0718119
0.212871
0.0781105
0.211651
0.0849421
0.210622
0.0923605
0.209922
0.100403
0.209736
0.109097
0.210338
0.118416
0.212108
0.128259
0.215529
0.138408
0.221123
0.148491
0.229356
0.157994
0.240449
0.166237
0.25427
0.172547
0.270403
0.176056
0.288202
0.176059
0.171432
0.307022
0.233595
0.0136542
0.233109
0.0175646
0.232564
0.0210426
0.231967
0.0245149
0.231322
0.0280089
0.230628
0.0315719
0.229877
0.035266
0.229068
0.0391274
0.228204
0.0431591
0.227289
0.0473833
0.226339
0.0518408
0.225371
0.0565637
0.224398
0.0615908
0.223441
0.0669567
0.222544
0.0727061
0.221762
0.0788849
0.221183
0.0855125
0.220918
0.0926141
0.221125
0.100185
0.222015
0.108194
0.22386
0.116558
0.226977
0.125123
0.231703
0.133661
0.23834
0.141833
0.247099
0.149215
0.258
0.155319
0.27088
0.159653
0.285278
0.161648
0.300359
0.160972
0.156288
0.315501
0.239297
0.0140324
0.238866
0.0179935
0.238399
0.0215137
0.237901
0.0250239
0.237366
0.0285591
0.236793
0.0321655
0.236185
0.0358979
0.235549
0.0397894
0.234886
0.0438468
0.234203
0.0480891
0.233521
0.0525413
0.232857
0.0572405
0.232232
0.0622242
0.231679
0.0675122
0.231255
0.0731296
0.231032
0.0791024
0.231107
0.0854308
0.231608
0.0921034
0.232698
0.0990842
0.234572
0.106308
0.237443
0.113673
0.241533
0.121014
0.247061
0.128113
0.254198
0.134675
0.263008
0.140385
0.273426
0.144884
0.285286
0.147779
0.298142
0.148782
0.311318
0.147789
0.143319
0.324281
0.245138
0.0143658
0.244773
0.0183554
0.244394
0.0218957
0.243999
0.0254274
0.243584
0.0289894
0.243146
0.032623
0.242693
0.0363747
0.24224
0.040268
0.241793
0.0443191
0.241357
0.0485494
0.240957
0.0529612
0.240611
0.0576023
0.240348
0.0624972
0.240221
0.0676442
0.240289
0.0730627
0.240636
0.0787526
0.241366
0.0846955
0.242602
0.0908591
0.244482
0.0971947
0.247157
0.103623
0.250783
0.110033
0.255521
0.116259
0.261515
0.1221
0.26883
0.12734
0.277453
0.131745
0.287325
0.134995
0.298247
0.136842
0.30981
0.137207
0.321534
0.136056
0.131941
0.332906
0.25113
0.0146435
0.250838
0.0186422
0.250546
0.0221895
0.250257
0.0257233
0.249974
0.0292864
0.249687
0.0329286
0.249401
0.0366837
0.249141
0.0405528
0.248919
0.0445662
0.248745
0.0487486
0.248637
0.0530919
0.248618
0.0576391
0.248738
0.0623906
0.249051
0.0673387
0.24962
0.0724959
0.250531
0.0778408
0.251875
0.0833482
0.253752
0.0889756
0.256274
0.094665
0.259561
0.100327
0.263735
0.105846
0.2689
0.111077
0.275131
0.11585
0.28244
0.120014
0.290801
0.123367
0.300124
0.125656
0.310173
0.126778
0.320635
0.126734
0.331174
0.125506
0.121774
0.341334
0.257275
0.0148559
0.257058
0.0188523
0.256855
0.0223914
0.256683
0.0259016
0.25654
0.0294415
0.256411
0.033075
0.256305
0.0368112
0.256251
0.0406305
0.256264
0.0445786
0.256356
0.0486813
0.256547
0.0529238
0.256878
0.0573285
0.257397
0.061888
0.25815
0.0665963
0.259203
0.0714486
0.260627
0.0764177
0.2625
0.0814731
0.264908
0.0865625
0.267947
0.0916191
0.27171
0.0965549
0.276278
0.101267
0.281708
0.105631
0.288027
0.109515
0.295234
0.112791
0.303293
0.115291
0.312062
0.116873
0.321328
0.117499
0.330868
0.117182
0.340437
0.115926
0.112552
0.34965
0.263569
0.0150007
0.26343
0.0189812
0.263333
0.0224863
0.263288
0.0259503
0.263285
0.0294556
0.263316
0.0330593
0.263405
0.0367424
0.26357
0.0404877
0.263825
0.0443473
0.264192
0.0483381
0.264697
0.0524412
0.265383
0.0566634
0.266288
0.0610009
0.267456
0.0654426
0.268944
0.0699688
0.270817
0.0745488
0.273145
0.0791446
0.276001
0.0837033
0.279458
0.0881568
0.283585
0.092421
0.288424
0.0964192
0.293993
0.100049
0.300312
0.103182
0.307369
0.105719
0.315091
0.107556
0.323331
0.108619
0.331922
0.108896
0.340693
0.1084
0.34946
0.107149
0.104097
0.357907
0.270011
0.0150802
0.269966
0.0190137
0.269987
0.0224603
0.270071
0.0258681
0.270209
0.0293262
0.270413
0.0328685
0.270707
0.0364665
0.271097
0.040118
0.271602
0.0438644
0.272251
0.0477123
0.273067
0.0516466
0.274086
0.0556649
0.275346
0.0597588
0.276892
0.063911
0.278776
0.0680967
0.28105
0.072282
0.283772
0.0764257
0.286999
0.0804754
0.290784
0.0843684
0.29517
0.088029
0.300182
0.0913993
0.305823
0.094398
0.312095
0.0968984
0.318967
0.0988352
0.326342
0.100168
0.334098
0.100851
0.342106
0.100877
0.350229
0.100266
0.358327
0.0990411
0.096279
0.366138
0.276614
0.0150871
0.276674
0.0189381
0.276816
0.0223114
0.277029
0.0256541
0.27732
0.0290409
0.277709
0.03249
0.278209
0.0359825
0.278824
0.039521
0.279579
0.0431302
0.280499
0.0468132
0.28161
0.0505566
0.282944
0.0543507
0.284537
0.058183
0.28643
0.0620326
0.288667
0.0658715
0.291293
0.0696649
0.29435
0.0733736
0.297883
0.0769452
0.301921
0.0803291
0.306482
0.0834645
0.311595
0.0862808
0.317269
0.0887165
0.323461
0.0906965
0.330115
0.0921724
0.337153
0.0931199
0.344479
0.0935159
0.351985
0.0933619
0.35956
0.092681
0.367095
0.0914973
0.0889959
0.374372
0.283388
0.0150082
0.283553
0.0187544
0.283814
0.0220396
0.284166
0.0252986
0.28462
0.0285898
0.285193
0.031925
0.285895
0.0352935
0.286734
0.0386974
0.287733
0.0421497
0.288916
0.0456492
0.290308
0.0491829
0.291939
0.0527377
0.293842
0.0562973
0.29605
0.0598388
0.2986
0.0633324
0.301531
0.0667436
0.304868
0.0700431
0.308634
0.0731823
0.312861
0.0761031
0.317563
0.0787614
0.322743
0.081098
0.328391
0.0830632
0.334462
0.0846191
0.340895
0.0857316
0.347626
0.0863821
0.354571
0.086563
0.361642
0.0862826
0.368751
0.0855643
0.375809
0.0844314
0.0821656
0.382634
0.29033
0.0148376
0.290601
0.0184609
0.290986
0.0216403
0.291482
0.0247954
0.292101
0.0279707
0.292856
0.0311743
0.293759
0.0344006
0.294819
0.0376503
0.296056
0.0409283
0.297492
0.0442294
0.299152
0.0475398
0.301061
0.0508453
0.303246
0.054127
0.305736
0.0573615
0.308562
0.0605178
0.311746
0.0635682
0.315306
0.0664898
0.319264
0.0692284
0.323642
0.0717269
0.328446
0.073958
0.333656
0.0758871
0.339244
0.0774724
0.345173
0.0786852
0.351393
0.0795069
0.357842
0.0799277
0.36445
0.0799484
0.371145
0.0795813
0.377853
0.0788491
0.384505
0.0777732
0.0757211
0.390944
0.297441
0.0145712
0.297822
0.0180541
0.298335
0.0211099
0.298978
0.0241413
0.299762
0.0271826
0.300699
0.0302387
0.3018
0.033306
0.303075
0.0363844
0.304542
0.0394739
0.306219
0.0425651
0.308131
0.0456428
0.310296
0.0486938
0.31274
0.0516963
0.315482
0.0546308
0.318539
0.0574714
0.321931
0.0601835
0.325684
0.0627432
0.32981
0.0651067
0.334305
0.0672342
0.339158
0.0691053
0.344356
0.0706898
0.349868
0.0719587
0.355657
0.0728937
0.361676
0.0734846
0.367871
0.0737289
0.374182
0.0736322
0.380549
0.0732085
0.386914
0.0724795
0.393217
0.0714643
0.0696074
0.399326
0.304725
0.0142057
0.305219
0.0175305
0.305862
0.0204455
0.306653
0.0233348
0.307602
0.0262257
0.308719
0.0291197
0.310014
0.0320131
0.311498
0.0349059
0.313185
0.0377952
0.315092
0.0406685
0.317239
0.0435068
0.319642
0.0463024
0.322312
0.0490374
0.325271
0.0516814
0.328534
0.0542158
0.332116
0.0566082
0.336033
0.0588319
0.34028
0.0608626
0.344848
0.0626684
0.349725
0.0642293
0.354893
0.0655234
0.360321
0.0665304
0.365973
0.0672402
0.371806
0.067649
0.377773
0.0677588
0.383823
0.0675779
0.389906
0.0671209
0.395973
0.0664079
0.401976
0.065456
0.063778
0.407802
0.312185
0.0137388
0.312794
0.0168878
0.313569
0.0196451
0.314509
0.0223752
0.315622
0.0251004
0.316916
0.0278191
0.318401
0.0305268
0.320087
0.0332219
0.321987
0.0358992
0.324112
0.0385509
0.326469
0.0411571
0.32908
0.0436991
0.331958
0.0461672
0.335115
0.0485322
0.338565
0.0507715
0.34231
0.0528676
0.346351
0.0547945
0.350686
0.0565304
0.355302
0.0580533
0.360184
0.0593477
0.365311
0.0603977
0.370652
0.0611889
0.376174
0.0617172
0.381838
0.0619832
0.387602
0.0619918
0.393424
0.0617528
0.39926
0.0612806
0.40507
0.0605932
0.410815
0.0597061
0.058193
0.416397
0.319825
0.0131687
0.320551
0.016124
0.321458
0.0187077
0.322548
0.0212621
0.323826
0.0238059
0.325298
0.026336
0.326967
0.0288514
0.32884
0.0313466
0.330934
0.0338057
0.333259
0.0362284
0.335816
0.0386035
0.338621
0.0408988
0.34169
0.043102
0.345026
0.0452002
0.348631
0.0471705
0.352506
0.0489946
0.356649
0.0506533
0.361051
0.0521287
0.365699
0.0534049
0.370575
0.0544714
0.375656
0.0553169
0.380913
0.0559311
0.386315
0.0563139
0.391827
0.0564692
0.397412
0.0564035
0.403034
0.0561272
0.408657
0.0556537
0.414246
0.0549995
0.419768
0.0541782
0.052818
0.42514
0.327651
0.0124926
0.328495
0.0152373
0.329535
0.0176326
0.330772
0.0199968
0.332211
0.0223457
0.333854
0.024678
0.335699
0.0269951
0.337753
0.029286
0.340027
0.0315275
0.342535
0.0337182
0.345284
0.035854
0.348274
0.037909
0.351512
0.0398655
0.355001
0.0417117
0.35874
0.043431
0.362727
0.0450073
0.366954