/*--------------------------------*- C++ -*----------------------------------*\
| =========                 |                                                 |
| \\      /  F ield         | OpenFOAM: The Open Source CFD Toolbox           |
|  \\    /   O peration     | Version:  dev                                   |
|   \\  /    A nd           | Web:      www.OpenFOAM.org                      |
|    \\/     M anipulation  |                                                 |
\*---------------------------------------------------------------------------*/
FoamFile
{
    version     2.0;
    format      ascii;
    class       volVectorField;
    location    "1.92";
    object      Force;
}
// * * * * * * * * * * * * * * * * * * * * * * * * * * * * * * * * * * * * * //

dimensions      [1 1 -2 0 0 0 0];

internalField   uniform (0 0 0);

boundaryField
{
    inlet
    {
        type            calculated;
        value           uniform (0 0 0);
    }
    outlet
    {
        type            calculated;
        value           uniform (0 0 0);
    }
    flap
    {
        type            calculated;
        value           nonuniform List<vector> 
33
(
(2.49123 1.78019e-17 -0.234407)
(2.41635 -8.10902e-22 -0.543796)
(2.25407 2.01288e-17 -0.811594)
(2.02516 1.19049e-21 -0.980974)
(1.77061 -1.58845e-23 -1.06357)
(1.52228 9.39104e-18 -1.08064)
(1.29848 1.85119e-17 -1.05337)
(1.1077 2.57864e-17 -0.999156)
(0.94854 -9.40395e-38 -0.929739)
(0.815833 2.73953e-17 -0.851422)
(0.703321 -5.55892e-18 -0.767062)
(0.602297 -5.09991e-23 -0.6753)
(0.503047 1.58113e-22 -0.571906)
(0.394838 9.91767e-18 -0.449492)
(0.26323 2.15487e-18 -0.298727)
(0.628198 1.88844e-17 0.540725)
(0.407282 0 0.350288)
(0.189 -1.37753e-39 0.163704)
(0.0553997 -1.1096e-17 -0.00536306)
(0.0550767 -9.51399e-24 -0.0125495)
(0.05416 2.39893e-17 -0.0197506)
(0.052755 3.7838e-23 -0.0257825)
(0.051073 -8.8594e-23 -0.0309579)
(0.0493219 -1.73621e-19 -0.0353529)
(0.0476657 1.46937e-39 -0.0390604)
(0.0461577 -3.50686e-19 -0.0421175)
(0.0448399 1.43493e-42 -0.0445354)
(0.0436875 2.93874e-39 -0.046287)
(0.0426088 1.47457e-17 -0.0472799)
(0.0417034 6.36854e-23 -0.0476564)
(0.0411257 -9.26505e-23 -0.0477452)
(0.0413617 -2.0095e-17 -0.0476314)
(0.0483113 -7.94292e-22 -0.0561243)
)
;
    }
    upperWall
    {
        type            calculated;
        value           uniform (0 0 0);
    }
    lowerWall
    {
        type            calculated;
        value           uniform (0 0 0);
    }
    frontAndBack
    {
        type            empty;
    }
}


// ************************************************************************* //
