/*--------------------------------*- C++ -*----------------------------------*\
| =========                 |                                                 |
| \\      /  F ield         | OpenFOAM: The Open Source CFD Toolbox           |
|  \\    /   O peration     | Version:  dev                                   |
|   \\  /    A nd           | Web:      www.OpenFOAM.org                      |
|    \\/     M anipulation  |                                                 |
\*---------------------------------------------------------------------------*/
FoamFile
{
    version     2.0;
    format      ascii;
    class       surfaceVectorField;
    location    "3";
    object      Uf;
}
// * * * * * * * * * * * * * * * * * * * * * * * * * * * * * * * * * * * * * //

dimensions      [0 1 -1 0 0 0 0];

internalField   nonuniform List<vector> 
879
(
(0.594889 -1.05685e-21 0.0156877)
(0.641672 -2.57125e-21 0.0276163)
(0.554099 -1.19484e-21 0.0148733)
(0.602314 -2.33659e-21 0.0277688)
(0.513765 3.63726e-23 0.014178)
(0.562108 -4.97285e-21 0.0273031)
(0.473262 -3.98093e-23 0.0139326)
(0.521062 -1.8056e-21 0.0272242)
(0.431541 9.85442e-23 0.0142622)
(0.478348 9.17292e-22 0.0278116)
(0.387224 -4.39279e-22 0.0152988)
(0.433006 1.60675e-21 0.029271)
(0.338341 -5.15228e-24 0.0170661)
(0.383732 3.48442e-22 0.0319645)
(0.283025 -3.45666e-22 0.0191005)
(0.328853 -3.43342e-22 0.0357865)
(0.221754 0 0.0202593)
(0.267505 -5.83671e-22 0.039203)
(0.159174 0 0.0193493)
(0.201706 5.53391e-22 0.0395906)
(0.102371 0 0.0160261)
(0.13713 -5.22674e-22 0.0355272)
(0.057515 -1.96785e-22 0.0109253)
(0.0801592 0 0.0277323)
(0.0282282 -3.70746e-22 0.00488498)
(0.0351204 -3.58223e-23 0.0178918)
(0.0167489 -1.73574e-22 -0.00185711)
(0.00389507 -5.76614e-23 0.00691291)
(0.0260712 -2.42677e-22 -0.00920345)
(-0.0140947 0 -0.0056198)
(0.05827 -5.29152e-23 -0.016487)
(-0.0187727 -2.48587e-22 -0.0191203)
(0.113514 3.30401e-22 -0.0235682)
(-0.00276882 6.1438e-22 -0.0324406)
(0.193271 1.33607e-22 -0.0309872)
(0.0391076 -1.42907e-23 -0.0463469)
(0.297593 3.81821e-23 -0.0379065)
(0.107583 7.19719e-24 -0.0600286)
(0.215574 -3.82142e-23 -0.0670747)
(0.649201 -3.84163e-21 0.0398676)
(0.582177 -1.22185e-20 0.0511991)
(0.610918 -6.13631e-21 0.0405897)
(0.540903 2.12747e-22 0.0535696)
(0.570135 -6.85272e-21 0.0407899)
(0.495612 2.07062e-21 0.0546092)
(0.526705 -8.62253e-22 0.0414377)
(0.446266 -4.42336e-21 0.0560969)
(0.480575 2.44023e-21 0.0429988)
(0.392461 1.81496e-21 0.0582289)
(0.431063 2.40537e-21 0.0460587)
(0.333825 2.39021e-21 0.0616224)
(0.376229 0 0.0508093)
(0.269333 -1.43349e-21 0.0674545)
(0.314013 -5.79684e-22 0.0561475)
(0.196995 0 0.0756519)
(0.245186 -1.02891e-22 0.0593776)
(0.117633 5.82388e-22 0.0828283)
(0.1753 1.48898e-22 0.0576107)
(0.0334202 -1.36606e-22 0.0833496)
(0.111349 -5.2644e-22 0.050255)
(-0.0528439 -5.22866e-22 0.0750226)
(0.0566028 1.96771e-22 0.0392734)
(-0.135417 -8.89526e-22 0.0610286)
(0.00971096 3.70739e-22 0.0271435)
(-0.207052 9.82757e-22 0.0459533)
(-0.0313641 1.73583e-22 0.0148091)
(-0.262521 1.72413e-22 0.0311009)
(-0.0658978 2.42656e-22 0.00151254)
(-0.301183 0 0.0143595)
(-0.0877807 3.95043e-22 -0.0143607)
(-0.324009 2.44342e-22 -0.00687294)
(-0.0869882 -2.85491e-22 -0.0347727)
(-0.327825 -6.54796e-23 -0.0336373)
(-0.056101 -3.87793e-22 -0.0601324)
(-0.307002 -5.28803e-22 -0.0650196)
(0.00818012 -3.09903e-23 -0.0850637)
(-0.268143 -1.69547e-22 -0.0977727)
(-0.217221 -3.12471e-23 -0.11821)
(0.473947 -8.23444e-21 0.0639041)
(0.353011 9.53798e-21 0.0789367)
(0.426343 8.49359e-21 0.066996)
(0.293335 4.25728e-22 0.0849983)
(0.372537 4.52944e-21 0.0693577)
(0.223259 1.74261e-20 0.0898917)
(0.312073 -1.81784e-21 0.0722794)
(0.144491 -2.16493e-20 0.0954942)
(0.245981 1.7972e-21 0.0760916)
(0.0585729 5.45948e-21 0.100955)
(0.174192 -1.42413e-21 0.0820326)
(-0.0348704 2.03156e-22 0.107628)
(0.0935743 -1.444e-21 0.0915639)
(-0.131771 1.37492e-21 0.118727)
(0.00216347 1.15831e-21 0.103124)
(-0.228742 0 0.133354)
(-0.0971682 7.61719e-22 0.111291)
(-0.323629 1.16693e-21 0.144953)
(-0.200379 -5.9943e-22 0.111247)
(-0.417082 -1.67849e-21 0.147208)
(-0.303656 -8.83374e-22 0.102391)
(-0.509701 0 0.138187)
(-0.399822 -1.16898e-22 0.0873042)
(-0.597104 8.96817e-22 0.119075)
(-0.479431 7.90235e-22 0.0684667)
(-0.670886 2.88213e-23 0.0932112)
(-0.535473 0 0.0458145)
(-0.724448 3.14106e-22 0.0635786)
(-0.565596 0 0.0173496)
(-0.756679 -3.09514e-22 0.0309802)
(-0.571296 -3.82772e-22 -0.0178613)
(-0.769726 -1.06571e-22 -0.00488684)
(-0.55648 -3.81696e-22 -0.0572363)
(-0.76918 -2.80399e-22 -0.043722)
(-0.528292 -1.62219e-22 -0.0956937)
(-0.756573 2.93701e-22 -0.0828359)
(-0.496519 -1.70943e-22 -0.126822)
(-0.740832 2.06503e-23 -0.117632)
(-0.733272 0 -0.14208)
(0.172535 1.8248e-20 0.0996576)
(-0.00914928 2.34597e-20 0.124442)
(0.091675 9.46829e-21 0.109401)
(-0.101704 1.70327e-20 0.138583)
(-0.00344416 -8.65534e-21 0.119584)
(-0.203016 9.52786e-21 0.152589)
(-0.109662 -1.48719e-20 0.129807)
(-0.309548 -1.0889e-20 0.165014)
(-0.222687 3.79317e-21 0.13962)
(-0.419898 6.81526e-21 0.174287)
(-0.338058 3.35878e-21 0.15069)
(-0.533194 -3.08621e-21 0.181746)
(-0.449729 2.98339e-21 0.1636)
(-0.642125 1.62094e-21 0.189636)
(-0.552895 0 0.17493)
(-0.740071 2.68005e-21 0.197989)
(-0.646542 -1.07555e-21 0.179129)
(-0.825835 2.27065e-21 0.202786)
(-0.731309 -1.09132e-21 0.17227)
(-0.902014 -2.25795e-21 0.198795)
(-0.806011 1.74729e-21 0.153565)
(-0.970022 0 0.182954)
(-0.868144 9.97181e-22 0.125133)
(-1.02902 -8.48337e-22 0.155644)
(-0.915346 -4.74601e-22 0.0905405)
(-1.07737 -2.99741e-21 0.120313)
(-0.946902 2.53691e-23 0.05268)
(-1.11414 1.32427e-21 0.0809656)
(-0.964607 -4.17528e-22 0.0130356)
(-1.14013 -6.11022e-22 0.0399)
(-0.972416 -3.6492e-23 -0.0274839)
(-1.15708 -1.06593e-22 -0.00195857)
(-0.974493 4.06919e-22 -0.0676141)
(-1.16785 2.7754e-23 -0.0442745)
(-0.973482 4.52131e-22 -0.105209)
(-1.17551 3.79332e-22 -0.0853312)
(-0.969162 1.43009e-22 -0.136295)
(-1.18197 1.41837e-22 -0.122212)
(-1.18804 0 -0.149099)
(-0.283015 2.22475e-20 0.166899)
(-0.455221 9.95599e-22 0.1971)
(-0.394622 1.7148e-20 0.183119)
(-0.567099 2.11473e-20 0.213444)
(-0.507853 7.14226e-21 0.197543)
(-0.677559 0 0.227607)
(-0.620475 1.03608e-20 0.208525)
(-0.783859 1.05616e-20 0.238719)
(-0.730448 -6.84066e-23 0.215784)
(-0.886623 -3.30174e-22 0.245425)
(-0.834522 -4.61552e-21 0.221011)
(-0.984913 -1.22512e-20 0.248295)
(-0.929309 1.49205e-21 0.225556)
(-1.07539 4.46728e-21 0.249472)
(-1.01234 4.95508e-21 0.227855)
(-1.15518 1.48407e-22 0.249605)
(-1.08321 1.28937e-21 0.223833)
(-1.2238 2.27182e-21 0.246055)
(-1.14315 -1.16389e-21 0.209737)
(-1.2828 -1.15563e-21 0.234654)
(-1.19397 -2.56276e-21 0.184484)
(-1.33444 9.69102e-22 0.212725)
(-1.23769 -4.80097e-21 0.150084)
(-1.38074 4.79749e-24 0.180707)
(-1.27553 -1.21473e-21 0.110085)
(-1.42281 7.21684e-22 0.141529)
(-1.30774 7.23169e-22 0.0674673)
(-1.46055 7.16076e-22 0.0985223)
(-1.33415 -3.03548e-22 0.0239672)
(-1.49346 -1.14667e-23 0.0537526)
(-1.35511 -7.67226e-23 -0.0197451)
(-1.52095 0 0.00843896)
(-1.37142 -2.13188e-23 -0.0628707)
(-1.54275 -7.72441e-23 -0.036817)
(-1.38361 7.65873e-23 -0.103247)
(-1.56261 2.90352e-23 -0.0804956)
(-1.39194 0 -0.136112)
(-1.57905 -2.21158e-22 -0.11983)
(-1.58951 1.13497e-23 -0.14781)
(-0.738749 -3.79835e-22 0.245207)
(-0.876533 -2.25591e-20 0.274764)
(-0.84883 4.14231e-21 0.259161)
(-0.983335 1.59905e-20 0.287965)
(-0.953145 3.32009e-21 0.269534)
(-1.08346 -1.18931e-20 0.29709)
(-1.05034 5.32175e-23 0.275653)
(-1.17589 -3.50633e-21 0.302422)
(-1.14049 -1.23837e-20 0.277498)
(-1.2616 6.47891e-21 0.303645)
(-1.22374 -3.0672e-21 0.276395)
(-1.34151 -8.93409e-21 0.301329)
(-1.29933 3.30995e-21 0.273567)
(-1.41531 8.51235e-21 0.296955)
(-1.36621 -2.55319e-21 0.268172)
(-1.48215 1.25885e-23 0.290919)
(-1.42434 0 0.257301)
(-1.54184 -6.99891e-23 0.281269)
(-1.47531 9.62014e-22 0.238009)
(-1.59549 -4.18518e-21 0.264869)
(-1.52159 3.53027e-21 0.209304)
(-1.64519 4.59135e-23 0.23962)
(-1.56539 5.53685e-21 0.172558)
(-1.69279 5.05187e-21 0.20572)
(-1.60727 2.67562e-21 0.130435)
(-1.73901 1.503e-21 0.165055)
(-1.64624 -9.73999e-24 0.0852937)
(-1.78296 -2.94409e-22 0.119977)
(-1.68088 2.92083e-22 0.0386829)
(-1.82336 2.90116e-22 0.0723126)
(-1.71031 0 -0.00820818)
(-1.85887 0 0.0236345)
(-1.73499 -4.67643e-23 -0.0541526)
(-1.88854 0 -0.0246702)
(-1.75529 -2.30127e-22 -0.0970047)
(-1.91654 -4.70717e-23 -0.0711716)
(-1.77198 -2.00017e-22 -0.131265)
(-1.93971 2.35992e-23 -0.112866)
(-1.95283 -1.1107e-22 -0.14124)
(-1.12086 -6.51329e-21 0.318305)
(-1.22615 -1.8121e-20 0.347207)
(-1.21746 3.2275e-22 0.326196)
(-1.32079 5.45857e-23 0.353892)
(-1.30613 -1.87868e-20 0.330105)
(-1.4072 1.82499e-20 0.356444)
(-1.3872 2.90069e-21 0.330305)
(-1.48602 -1.4472e-20 0.355701)
(-1.46191 1.0055e-20 0.3271)
(-1.55894 6.52152e-23 0.351911)
(-1.53158 2.70996e-21 0.321411)
(-1.6277 0 0.345669)
(-1.59675 5.26246e-21 0.313931)
(-1.69308 -2.55085e-21 0.337836)
(-1.65727 2.47933e-21 0.303859)
(-1.75512 7.65784e-21 0.328286)
(-1.7133 -4.18876e-21 0.288911)
(-1.81383 4.32747e-21 0.315244)
(-1.76585 -5.1386e-21 0.266723)
(-1.86971 -4.25585e-21 0.296143)
(-1.81636 1.50316e-21 0.236355)
(-1.92399 -2.73373e-21 0.26917)
(-1.86585 1.04259e-21 0.198552)
(-1.97752 8.7371e-22 0.234213)
(-1.91412 -1.45596e-21 0.154977)
(-2.03024 -8.20319e-22 0.192418)
(-1.95989 0 0.107465)
(-2.08107 -9.48425e-23 0.145442)
(-2.00158 0 0.0577784)
(-2.12861 -7.23886e-22 0.0949725)
(-2.03812 0 0.007668)
(-2.17151 4.57019e-23 0.0429036)
(-2.06983 0 -0.0412731)
(-2.20912 6.65674e-22 -0.00856715)
(-2.09691 2.4424e-22 -0.0867297)
(-2.24331 3.48985e-23 -0.0580764)
(-2.12041 1.14957e-22 -0.122462)
(-2.27231 2.11399e-22 -0.102172)
(-2.28765 -1.1285e-23 -0.131184)
(-1.42617 -1.16894e-20 0.3832)
(-1.50737 0 0.412618)
(-1.51041 1.77573e-20 0.384131)
(-1.59129 -1.58541e-20 0.411823)
(-1.58705 2.30718e-20 0.381831)
(-1.66744 1.19118e-20 0.408031)
(-1.65762 -1.74267e-20 0.377023)
(-1.73747 3.16628e-21 0.40229)
(-1.72405 -9.97506e-21 0.370172)
(-1.80358 -1.60328e-20 0.395028)
(-1.78803 -5.2208e-21 0.361798)
(-1.86774 4.04035e-22 0.386581)
(-1.85035 -1.26347e-22 0.351962)
(-1.93101 -2.44773e-21 0.377121)
(-1.91102 9.52615e-21 0.339576)
(-1.99351 5.13082e-21 0.365969)
(-1.97004 4.35375e-21 0.322553)
(-2.05517 4.39137e-21 0.351308)
(-2.02776 -1.86656e-21 0.29883)
(-2.11604 -1.97544e-21 0.330833)
(-2.08475 -3.40563e-21 0.267403)
(-2.17665 -1.40417e-22 0.302868)
(-2.14119 -9.85043e-22 0.228578)
(-2.2373 -3.03304e-21 0.267061)
(-2.19653 5.19429e-22 0.183502)
(-2.29738 -1.16889e-21 0.224118)
(-2.24953 -8.13965e-22 0.133697)
(-2.3557 4.77885e-22 0.175263)
(-2.29869 -6.93567e-22 0.0809865)
(-2.41081 -5.36175e-22 0.122065)
(-2.34284 7.02278e-22 0.0274785)
(-2.46135 -1.39528e-22 0.066601)
(-2.38109 7.04777e-22 -0.0248286)
(-2.50693 1.85338e-22 0.0112644)
(-2.41402 -4.87785e-23 -0.0730794)
(-2.54715 7.86106e-24 -0.0417096)
(-2.44355 9.65656e-23 -0.110434)
(-2.58165 -7.73917e-24 -0.0881454)
(-2.59917 7.55927e-23 -0.118273)
(-1.67272 -4.01853e-21 0.441405)
(-1.73619 0 0.472259)
(-1.74839 -2.21561e-20 0.435652)
(-1.81252 -7.98602e-21 0.464259)
(-1.81785 -7.92215e-21 0.428277)
(-1.88235 -1.8234e-20 0.455154)
(-1.88324 4.80148e-21 0.420012)
(-1.94786 1.75819e-20 0.445832)
(-1.94666 -5.78811e-21 0.411141)
(-2.01138 -6.14274e-21 0.436592)
(-2.00974 3.28957e-21 0.401646)
(-2.07476 4.04236e-22 0.427322)
(-2.07314 2.86161e-21 0.390942)
(-2.13897 2.83789e-21 0.417497)
(-2.1368 0 0.377615)
(-2.2042 0 0.405915)
(-2.20055 -1.88986e-21 0.359647)
(-2.27027 0 0.390681)
(-2.26442 -2.64114e-22 0.335118)
(-2.33699 -1.82798e-21 0.369657)
(-2.32851 2.55699e-22 0.302961)
(-2.40448 -1.57668e-21 0.341206)
(-2.39255 -3.23128e-21 0.263196)
(-2.47278 1.32613e-21 0.304765)
(-2.4557 -1.21569e-21 0.216614)
(-2.54097 -1.70967e-21 0.260703)
(-2.51661 7.63563e-22 0.164494)
(-2.60757 5.72948e-22 0.209941)
(-2.57365 1.68962e-23 0.108617)
(-2.67097 1.8796e-22 0.153894)
(-2.6252 -6.88118e-22 0.0512906)
(-2.72967 7.80513e-22 0.09467)
(-2.67025 -5.3525e-22 -0.00482245)
(-2.78329 -5.05085e-22 0.0350422)
(-2.70975 5.17561e-23 -0.0561022)
(-2.83125 2.81973e-22 -0.0216134)
(-2.74518 -2.93716e-23 -0.0953975)
(-2.87034 1.09119e-22 -0.0708152)
(-2.89023 -4.10132e-23 -0.102629)
(-1.87633 -3.88824e-21 0.495091)
(-1.92542 -1.22564e-20 0.527815)
(-1.94667 -3.96824e-21 0.483588)
(-1.9966 9.58992e-22 0.513464)
(-2.01238 6.69959e-21 0.472438)
(-2.06267 1.83706e-20 0.500229)
(-2.07579 6.8313e-21 0.462087)
(-2.12611 3.38044e-21 0.4886)
(-2.1389 0 0.452434)
(-2.18908 0 0.478515)
(-2.20309 0 0.442868)
(-2.25321 5.3925e-21 0.469354)
(-2.26901 0 0.432243)
(-2.31942 -5.28888e-21 0.460027)
(-2.33665 0 0.41887)
(-2.38806 2.186e-21 0.448897)
(-2.40577 7.24962e-23 0.400725)
(-2.45902 -4.07751e-21 0.433904)
(-2.4762 -3.15062e-21 0.375963)
(-2.53198 3.80358e-21 0.412987)
(-2.54778 -5.21509e-22 0.343434)
(-2.60676 -4.58383e-21 0.384548)
(-2.61999 2.9029e-21 0.302894)
(-2.68325 3.43946e-21 0.347793)
(-2.69172 1.05278e-22 0.254835)
(-2.76033 6.08532e-22 0.30275)
(-2.7614 0 0.200316)
(-2.83618 0 0.25008)
(-2.82717 9.59073e-22 0.141067)
(-2.90886 -1.29554e-22 0.191049)
(-2.88721 9.7255e-22 0.0796327)
(-2.97668 3.02757e-22 0.127826)
(-2.94038 3.06971e-22 0.0193005)
(-3.03915 -1.27996e-22 0.0635981)
(-2.98649 3.92914e-22 -0.0356244)
(-3.09546 2.17626e-22 0.00230993)
(-3.02727 6.7747e-23 -0.0774072)
(-3.13946 4.24859e-23 -0.0504408)
(-3.16157 5.97411e-23 -0.084138)
(-2.04607 -7.97545e-21 0.545955)
(-2.0814 -2.05311e-20 0.580329)
(-2.11283 2.27751e-20 0.529791)
(-2.1484 4.85678e-21 0.560742)
(-2.17644 1.52449e-20 0.516016)
(-2.21176 1.13222e-20 0.544505)
(-2.23917 -3.3879e-21 0.504617)
(-2.27396 -3.35515e-21 0.531584)
(-2.30282 5.34148e-21 0.495022)
(-2.3369 0 0.521493)
(-2.36867 1.58157e-22 0.486129)
(-2.40202 5.39583e-21 0.51315)
(-2.43742 -3.1725e-21 0.476369)
(-2.47036 -5.29221e-21 0.505051)
(-2.50925 -1.89219e-21 0.463749)
(-2.54244 2.11024e-21 0.495187)
(-2.58399 -3.55968e-22 0.446157)
(-2.61834 -6.15585e-21 0.481281)
(-2.66135 2.43645e-21 0.421759)
(-2.6978 3.72567e-21 0.461214)
(-2.74096 -6.2507e-22 0.389309)
(-2.78039 -1.15964e-21 0.433365)
(-2.82207 1.12912e-21 0.348281)
(-2.86569 1.94397e-21 0.396728)
(-2.90334 5.28255e-22 0.298863)
(-2.95246 1.22851e-22 0.350968)
(-2.98287 -1.28618e-22 0.241903)
(-3.03854 1.08805e-22 0.296458)
(-3.05848 -8.87769e-22 0.17907)
(-3.12162 1.52675e-22 0.234309)
(-3.12788 -8.92437e-22 0.113096)
(-3.19965 -8.00214e-22 0.166694)
(-3.18937 -1.90114e-22 0.0478065)
(-3.27184 -8.00409e-23 0.0971483)
(-3.24269 -3.19205e-22 -0.0115446)
(-3.33688 -1.74186e-22 0.030511)
(-3.28973 -1.89538e-22 -0.0564084)
(-3.38757 -9.22123e-23 -0.0264069)
(-3.41138 -3.8728e-26 -0.0625294)
(-2.18408 -8.31356e-21 0.594657)
(-2.2034 -4.09231e-21 0.629848)
(-2.24753 -6.93667e-21 0.574995)
(-2.26568 0 0.606396)
(-2.30932 -7.09071e-21 0.559596)
(-2.32604 -6.8568e-21 0.588296)
(-2.37143 0 0.547956)
(-2.38663 0 0.574962)
(-2.4355 0 0.539107)
(-2.44904 2.87679e-21 0.565571)
(-2.50282 0 0.531582)
(-2.5146 0 0.558735)
(-2.57424 -7.64277e-23 0.523455)
(-2.58457 4.62039e-21 0.552628)
(-2.65018 -2.20095e-21 0.512441)
(-2.65965 -2.38479e-21 0.544913)
(-2.73063 -2.09487e-21 0.496252)
(-2.74019 -3.12091e-22 0.53306)
(-2.81527 1.68579e-22 0.472948)
(-2.82602 -3.29565e-21 0.514755)
(-2.90348 1.55157e-21 0.44113)
(-2.91662 2.70735e-21 0.488211)
(-2.9942 9.05266e-22 0.400001)
(-3.01115 1.2937e-21 0.4522)
(-3.08583 -2.3848e-22 0.349425)
(-3.10813 -4.01702e-22 0.406063)
(-3.17621 4.17209e-22 0.290013)
(-3.20521 -7.33842e-22 0.349864)
(-3.26274 2.36048e-22 0.223329)
(-3.29965 2.33534e-22 0.284517)
(-3.34268 9.92361e-24 0.152248)
(-3.38899 -5.26829e-25 0.212154)
(-3.41381 -4.17914e-23 0.0812187)
(-3.47201 3.25541e-22 0.136662)
(-3.47555 -9.12689e-23 0.0165705)
(-3.54691 3.6893e-22 0.0638632)
(-3.52938 0 -0.03216)
(-3.60528 2.02393e-23 0.00177846)
(-3.63194 0 -0.0374836)
(-2.28524 4.09964e-21 0.640867)
(-2.28314 1.97122e-20 0.675308)
(-2.34432 1.07009e-22 0.619077)
(-2.33859 0 0.649786)
(-2.4034 1.09459e-22 0.603078)
(-2.3943 9.9701e-21 0.631125)
(-2.464 2.84689e-21 0.591976)
(-2.45164 -1.228e-20 0.618265)
(-2.52754 2.90745e-21 0.584579)
(-2.51181 5.79914e-21 0.610278)
(-2.59541 4.57576e-21 0.579182)
(-2.57615 0 0.605703)
(-2.66872 2.24408e-21 0.573564)
(-2.64605 4.62323e-21 0.602463)
(-2.74811 -6.12955e-22 0.565141)
(-2.72254 -2.34102e-21 0.597913)
(-2.83378 -1.58503e-21 0.55135)
(-2.80615 1.76601e-21 0.589212)
(-2.92543 -8.09365e-22 0.530012)
(-2.89683 -1.69787e-21 0.573747)
(-3.02222 2.55914e-21 0.499487)
(-2.99402 -6.92238e-23 0.54942)
(-3.12279 0 0.458689)
(-3.09665 -1.65566e-21 0.514708)
(-3.22524 -8.36281e-22 0.407178)
(-3.203 -2.35158e-22 0.46868)
(-3.32716 -8.97649e-22 0.345304)
(-3.31057 7.39008e-22 0.411107)
(-3.42555 -4.34859e-24 0.274486)
(-3.41624 -4.88442e-23 0.342638)
(-3.51715 3.24117e-22 0.197745)
(-3.51708 9.13857e-23 0.265287)
(-3.59905 6.74812e-22 0.120224)
(-3.61126 -7.31793e-22 0.183228)
(-3.67005 4.15495e-22 0.0495665)
(-3.69623 1.29878e-23 0.103324)
(-3.73205 2.03976e-23 -0.0032149)
(-3.76213 2.02387e-23 0.0354154)
(-3.79246 0 -0.00744513)
(-2.33649 1.58557e-20 0.683211)
(-2.30436 1.56751e-20 0.714293)
(-2.38858 9.69108e-21 0.66106)
(-2.34944 0 0.689126)
(-2.4426 -2.10476e-21 0.645622)
(-2.39745 1.60543e-20 0.671448)
(-2.49928 -9.57086e-21 0.635861)
(-2.44842 -1.55141e-20 0.659983)
(-2.55983 3.00293e-21 0.630666)
(-2.50308 -8.11407e-21 0.654128)
(-2.62578 0 0.628248)
(-2.56289 5.27346e-21 0.652612)
(-2.69846 0 0.626121)
(-2.6294 2.28344e-21 0.653178)
(-2.77879 0 0.621369)
(-2.70385 0 0.652861)
(-2.86709 1.54825e-21 0.611069)
(-2.78691 0 0.648432)
(-2.96309 -9.37723e-22 0.592698)
(-2.87859 2.96985e-22 0.636903)
(-3.06591 -4.19974e-21 0.564284)
(-2.97846 -3.34956e-21 0.615824)
(-3.17408 -1.90282e-21 0.524447)
(-3.08548 1.57237e-22 0.583355)
(-3.28554 1.36734e-21 0.472474)
(-3.19786 -2.35245e-22 0.538238)
(-3.3976 1.53529e-21 0.408448)
(-3.31298 9.17305e-22 0.479925)
(-3.50696 4.29333e-23 0.333605)
(-3.42752 -1.90693e-24 0.408755)
(-3.60972 -9.64024e-22 0.251047)
(-3.53811 -5.70314e-23 0.326472)
(-3.70203 -1.50571e-21 0.166618)
(-3.64223 9.02939e-22 0.237358)
(-3.78167 -4.69993e-22 0.0894183)
(-3.73633 7.50182e-22 0.149301)
(-3.84972 0 0.0321004)
(-3.80907 -8.99548e-24 0.0740903)
(-3.84259 9.14906e-24 0.0286987)
(-2.31683 0 0.71878)
(-2.23927 6.61775e-21 0.743331)
(-2.35821 6.17287e-21 0.698542)
(-2.27095 -2.99843e-21 0.721792)
(-2.40346 3.27699e-21 0.684934)
(-2.30833 9.23175e-21 0.706734)
(-2.4522 -1.41109e-20 0.677307)
(-2.34915 -6.02357e-21 0.697415)
(-2.50558 -6.01289e-21 0.675095)
(-2.3938 -1.13037e-20 0.694408)
(-2.5654 7.58988e-21 0.676572)
(-2.44436 7.65715e-21 0.696837)
(-2.63317 2.30671e-21 0.678944)
(-2.50288 -9.79648e-23 0.702172)
(-2.70991 0 0.678918)
(-2.57079 -1.31056e-22 0.707082)
(-2.79597 -1.25448e-21 0.673207)
(-2.64862 1.20534e-22 0.707902)
(-2.89122 -1.91167e-21 0.658926)
(-2.73661 1.20853e-21 0.701336)
(-2.99499 8.22242e-22 0.633766)
(-2.83482 -1.87244e-21 0.684643)
(-3.10592 1.67e-21 0.596019)
(-2.94248 2.05355e-21 0.655566)
(-3.2219 -4.44845e-22 0.544629)
(-3.05802 -2.74003e-22 0.612449)
(-3.34017 -4.07469e-22 0.47935)
(-3.1789 -4.27532e-22 0.554402)
(-3.45724 -1.01481e-22 0.401083)
(-3.30163 9.97811e-22 0.48141)
(-3.56877 1.83208e-21 0.312752)
(-3.42238 -1.02196e-22 0.394787)
(-3.66994 3.19658e-21 0.220633)
(-3.5377 1.07313e-21 0.29863)
(-3.75741 1.21603e-21 0.135168)
(-3.64276 7.00179e-23 0.201798)
(-3.8307 7.83893e-23 0.0709647)
(-3.72441 -9.16467e-24 0.117817)
(-3.76258 9.3202e-24 0.0711325)
(-2.17027 -3.5478e-21 0.770034)
(-1.99546 8.83715e-22 0.788937)
(-2.18935 3.81064e-21 0.745338)
(-2.01329 6.94514e-22 0.761396)
(-2.21827 -2.07583e-22 0.729875)
(-2.04195 -5.30274e-22 0.747925)
(-2.25172 3.52949e-22 0.719067)
(-2.075 5.51004e-21 0.736147)
(-2.2879 -2.89108e-21 0.714142)
(-2.107 -1.07037e-20 0.728605)
(-2.32873 2.30052e-21 0.715754)
(-2.13987 5.08554e-21 0.72879)
(-2.37705 -9.55072e-23 0.722207)
(-2.17796 6.88752e-21 0.736327)
(-2.43487 -2.67993e-21 0.730248)
(-2.2246 -4.62225e-21 0.747958)
(-2.50318 -1.32034e-23 0.736053)
(-2.28157 -2.09172e-21 0.759568)
(-2.58242 2.82292e-21 0.736002)
(-2.34928 -1.5775e-21 0.767107)
(-2.67288 1.13801e-21 0.727033)
(-2.42898 4.82263e-21 0.767231)
(-2.77453 -7.56354e-22 0.706469)
(-2.52137 -9.24107e-22 0.756974)
(-2.88646 9.88539e-23 0.672095)
(-2.62653 -2.77628e-22 0.733549)
(-3.00683 -1.08823e-22 0.622414)
(-2.74379 1.73473e-22 0.69473)
(-3.13285 1.04146e-21 0.556784)
(-2.87102 3.03339e-23 0.63909)
(-3.26076 1.02663e-21 0.475666)
(-3.00465 3.12384e-22 0.56608)
(-3.38549 -1.03647e-21 0.381545)
(-3.14005 0 0.476318)
(-3.5006 -2.24035e-21 0.280815)
(-3.27218 -1.05643e-21 0.373186)
(-3.60057 -1.26741e-21 0.185299)
(-3.3941 -3.303e-21 0.266278)
(-3.6845 0 0.111991)
(-3.49007 -4.96971e-23 0.172035)
(-3.53588 0 0.117957)
(-1.82847 2.19198e-21 0.767891)
(-1.8568 -3.33212e-21 0.767247)
(-1.89497 5.85216e-21 0.759713)
(-1.44011 3.0351e-21 0.787306)
(-1.92803 -4.93094e-21 0.749149)
(-1.53515 2.88879e-21 0.769802)
(-1.95573 -3.13561e-21 0.744923)
(-1.59492 -3.65897e-21 0.757181)
(-1.98436 9.74521e-21 0.750256)
(-1.63837 7.58828e-21 0.757663)
(-2.01967 2.3543e-21 0.762768)
(-1.67898 2.10887e-21 0.769869)
(-2.06456 -4.19315e-21 0.777895)
(-1.72366 -4.1522e-21 0.788114)
(-2.12026 -3.88706e-21 0.791156)
(-1.77489 5.02863e-21 0.806949)
(-2.18788 5.20436e-22 0.79876)
(-1.83353 -3.42765e-21 0.822273)
(-2.26878 2.51713e-21 0.797396)
(-1.90288 -2.66089e-21 0.830888)
(-2.36407 -4.28309e-22 0.783968)
(-1.98478 3.90877e-21 0.829637)
(-2.47409 -4.26844e-22 0.755754)
(-2.08102 1.93769e-22 0.815214)
(-2.59798 2.45728e-22 0.710694)
(-2.19304 2.27973e-22 0.784575)
(-2.73324 -9.8997e-22 0.647547)
(-2.32069 0 0.735259)
(-2.87568 -1.00512e-21 0.566038)
(-2.46215 -1.13649e-21 0.665685)
(-3.01909 0 0.467669)
(-2.61393 1.24757e-22 0.575316)
(-3.15474 -2.0392e-21 0.358438)
(-2.7693 2.75935e-21 0.466095)
(-3.27297 -2.08458e-21 0.252238)
(-2.91628 -3.33514e-21 0.347326)
(-3.37246 -5.06982e-23 0.16967)
(-3.03409 -5.09033e-23 0.240862)
(-3.09211 0 0.171901)
(-1.07417 0 0.746639)
(-1.19704 2.57334e-21 0.740859)
(-1.26998 5.01006e-21 0.749892)
(-0.115418 7.73155e-21 0.835353)
(-1.32327 -3.40657e-23 0.769414)
(-0.363797 2.4349e-21 0.816512)
(-1.37245 -4.30078e-21 0.793433)
(-0.551313 -5.02606e-21 0.822835)
(-1.42306 5.31349e-21 0.817091)
(-0.691962 -3.85788e-21 0.840167)
(-1.47696 5.30577e-21 0.837675)
(-0.800958 5.37163e-21 0.859912)
(-1.5368 -6.38107e-21 0.853232)
(-0.891257 -3.33946e-21 0.878374)
(-1.60616 -1.30106e-21 0.861204)
(-0.974235 -3.18239e-21 0.892839)
(-1.68816 3.64067e-21 0.858344)
(-1.05787 1.84018e-21 0.899659)
(-1.78569 2.09781e-22 0.84104)
(-1.14793 5.21648e-22 0.895216)
(-1.90092 -1.91425e-23 0.805715)
(-1.24872 7.21071e-22 0.875908)
(-2.03477 -1.27223e-22 0.749371)
(-1.36268 1.92687e-21 0.838367)
(-2.18626 -6.11749e-23 0.669937)
(-1.49064 -1.29782e-22 0.779764)
(-2.35073 2.90033e-21 0.56761)
(-1.63226 3.31492e-21 0.697163)
(-2.51665 2.27188e-21 0.44896)
(-1.78397 -4.88907e-22 0.588185)
(-2.66393 -5.47345e-22 0.331597)
(-1.93635 -1.48501e-22 0.45694)
(-2.78135 0 0.240827)
(-2.08072 2.25595e-21 0.331159)
(-2.18143 -3.54649e-25 0.243423)
(0.818501 5.21707e-21 0.919087)
(0.433974 -2.24452e-21 0.87183)
(2.36242 -2.03523e-22 1.16535)
(0.15223 -4.186e-21 0.859382)
(1.91539 -6.74886e-21 1.07965)
(-0.0488183 -2.57524e-21 0.867428)
(1.55068 -1.93717e-21 1.02628)
(-0.194917 -1.79094e-21 0.884856)
(1.25541 -6.41197e-22 0.998315)
(-0.308124 -6.99588e-22 0.90394)
(1.01615 -4.46201e-22 0.987971)
(-0.404692 -7.52916e-23 0.918865)
(0.82112 2.09068e-21 0.987201)
(-0.495828 -1.14866e-22 0.924769)
(0.659068 -2.29603e-21 0.987951)
(-0.588638 8.1892e-22 0.917623)
(0.520186 -1.54586e-21 0.983191)
(-0.687461 2.53414e-21 0.89396)
(0.396221 1.90772e-21 0.967094)
(-0.79478 1.96594e-21 0.85075)
(0.280756 2.31418e-21 0.934852)
(-0.911804 3.20194e-21 0.784921)
(0.169128 4.71964e-23 0.882702)
(-1.03964 -2.88829e-21 0.692782)
(0.0573436 2.51448e-21 0.807615)
(-1.1808 -3.69373e-21 0.57349)
(-0.058253 -9.1757e-21 0.708096)
(-1.33802 4.90362e-21 0.442133)
(-0.179944 2.64971e-21 0.588247)
(-1.48831 2.30067e-21 0.338882)
(-0.311181 4.49613e-21 0.458985)
(-0.473236 1.25519e-23 0.37207)
(3.89246 -4.58104e-21 1.34879)
(3.35855 -4.55442e-21 1.23468)
(2.89581 -3.02868e-23 1.15356)
(4.88669 1.33969e-22 1.44016)
(2.50481 5.25219e-22 1.10045)
(4.42817 3.88557e-21 1.34652)
(2.18205 1.773e-21 1.06862)
(4.02849 -1.99524e-21 1.27572)
(1.92037 3.39014e-22 1.04988)
(3.68685 4.7418e-22 1.22238)
(1.70977 -1.08437e-21 1.03566)
(3.39963 -1.03114e-21 1.18025)
(1.53931 -8.38653e-22 1.01803)
(3.16118 -8.13856e-23 1.14257)
(1.39877 -2.54262e-21 0.990286)
(2.96478 -7.58751e-22 1.10256)
(1.27944 -1.81309e-21 0.947165)
(2.80338 -1.86842e-21 1.05395)
(1.17415 -3.00659e-21 0.884922)
(2.66989 4.83594e-23 0.991583)
(1.07595 -3.55315e-21 0.801666)
(2.55686 -3.13582e-21 0.912045)
(0.976211 -4.38721e-22 0.698825)
(2.45572 5.68903e-21 0.814765)
(0.864501 2.621e-22 0.583479)
(2.35653 0 0.704789)
(0.725123 2.78122e-22 0.482285)
(2.2547 -3.91983e-21 0.596413)
(2.07977 1.32291e-23 0.522133)
(6.46811 2.57364e-21 1.61489)
(5.99999 1.26328e-21 1.50344)
(5.58043 -2.1263e-21 1.41262)
(7.42444 -1.07473e-21 1.6511)
(5.21226 -8.97388e-22 1.33783)
(7.03985 -3.93723e-22 1.55155)
(4.89634 2.15195e-24 1.27371)
(6.69963 -1.02373e-21 1.46425)
(4.63132 -2.43738e-24 1.21434)
(6.40502 -8.08618e-24 1.38417)
(4.41365 2.31727e-23 1.15362)
(6.15539 1.06543e-21 1.30612)
(4.2378 0 1.08597)
(5.94812 1.5607e-22 1.22514)
(4.09643 0 1.00724)
(5.77848 2.55512e-21 1.13717)
(3.98024 7.16423e-21 0.915882)
(5.63949 3.41642e-21 1.03996)
(3.87728 7.26674e-21 0.814792)
(5.52183 3.58542e-21 0.934465)
(3.77337 -4.85387e-21 0.713593)
(5.41384 3.79963e-22 0.826965)
(3.65392 -4.92469e-21 0.63177)
(5.30598 -4.70188e-21 0.731722)
(5.14411 0 0.671696)
(8.92952 -1.3814e-23 1.78401)
(8.57322 -1.22246e-21 1.67025)
(10.1562 1.01119e-21 1.87524)
(8.25453 -1.02962e-21 1.56625)
(9.84777 1.54991e-22 1.75446)
(7.97543 1.04599e-21 1.46769)
(9.57178 -6.18705e-22 1.64065)
(7.73623 1.22052e-21 1.37037)
(9.32962 3.05467e-22 1.52997)
(7.53503 2.75761e-21 1.27069)
(9.12092 1.5993e-22 1.41908)
(7.36739 6.03848e-21 1.16642)
(8.94316 6.56007e-23 1.30571)
(7.22603 -3.94244e-22 1.05778)
(8.79139 7.03805e-22 1.18956)
(7.10083 -3.59539e-21 0.948957)
(8.65822 -7.45271e-21 1.07335)
(6.98008 2.6533e-22 0.849765)
(8.53443 3.25741e-21 0.964279)
(6.85423 -7.72132e-23 0.776196)
(8.41247 2.37543e-21 0.874899)
(8.24805 -4.70147e-23 0.821745)
(11.4701 2.1268e-21 1.9624)
(11.2052 3.56373e-22 1.83092)
(10.9668 -1.62505e-21 1.70456)
(12.2497 -5.46774e-22 1.86391)
(10.7557 -1.01027e-21 1.58042)
(12.0515 -4.11991e-22 1.73054)
(10.5707 -2.58567e-21 1.45647)
(11.8747 0 1.59872)
(10.4086 -5.30986e-21 1.33227)
(11.7174 -2.87654e-21 1.46771)
(10.2642 -6.17538e-21 1.20974)
(11.5758 -4.17188e-21 1.3387)
(10.1302 -6.54569e-22 1.09415)
(11.4447 1.38154e-21 1.21559)
(9.99934 5.11758e-21 0.994782)
(11.3179 -1.62792e-21 1.10561)
(9.86702 2.2866e-21 0.924198)
(11.1917 2.23646e-21 1.01917)
(11.028 1.53065e-21 0.967696)
(13.3669 1.00566e-21 1.89627)
(13.2038 6.14761e-22 1.75522)
(14.1731 5.27805e-22 1.88896)
(13.0551 -2.39086e-22 1.61647)
(14.0407 0 1.74536)
(12.9183 -1.71092e-21 1.48083)
(13.9173 -2.4398e-22 1.60512)
(12.7894 3.08348e-21 1.35124)
(13.7999 1.1676e-21 1.47036)
(12.6638 3.68541e-22 1.23327)
(13.685 2.5909e-21 1.3454)
(12.5376 -4.30392e-21 1.13504)
(13.5691 -2.45451e-21 1.23685)
(12.4099 1.58514e-21 1.06602)
(13.4512 -5.78944e-23 1.15306)
(13.299 1.42056e-23 1.10179)
(15.0348 -5.90554e-22 1.88649)
(14.9281 0 1.74126)
(14.8242 2.19957e-21 1.60166)
(15.5313 1.61323e-21 1.71071)
(14.7205 5.69605e-22 1.47104)
(15.4439 1.30182e-21 1.57613)
(14.6142 -1.17026e-22 1.35466)
(15.3528 -1.64996e-21 1.45359)
(14.5039 1.54781e-21 1.25935)
(15.2566 1.61471e-21 1.34883)
(14.3903 -1.71992e-21 1.1921)
(15.1559 3.2084e-22 1.26845)
(15.0241 -2.23181e-21 1.21779)
(16.1687 1.07839e-21 1.69121)
(16.0938 -5.2923e-22 1.56412)
(16.5716 -9.68479e-22 1.65314)
(16.0122 4.79544e-23 1.45241)
(16.5073 2.23943e-22 1.53617)
(15.9238 3.82221e-22 1.36164)
(16.4351 0 1.43711)
(15.8306 -3.52004e-22 1.29707)
(16.3563 -8.87263e-23 1.36115)
(16.2505 1.12307e-22 1.31213)
(16.9966 -4.42903e-22 1.62933)
(16.9413 -4.64363e-23 1.5244)
(16.8775 -3.69872e-22 1.43948)
(17.1956 1.58217e-22 1.50047)
(16.8074 3.40447e-22 1.37862)
(17.1406 -1.15642e-21 1.42984)
(17.0634 9.08804e-22 1.3835)
(17.4645 -5.73802e-22 1.49285)
(17.4183 -6.1718e-22 1.43651)
(17.6076 -2.32142e-22 1.47502)
(17.5592 -2.19166e-22 1.43216)
(17.7616 1.46096e-22 1.47187)
(17.8297 1.73721e-22 1.45944)
)
;

boundaryField
{
    inlet
    {
        type            calculated;
        value           nonuniform 0();
    }
    outlet
    {
        type            calculated;
        value           nonuniform List<vector> 
30
(
(0.41573 6.23661e-23 -0.0410137)
(0.0967113 -6.24969e-23 -0.0963126)
(-0.45763 0 -0.139749)
(-0.960755 0 -0.149657)
(-1.39867 0 -0.149942)
(-1.78842 2.26977e-23 -0.145348)
(-2.14332 -2.44815e-22 -0.136855)
(-2.47174 2.64607e-22 -0.125294)
(-2.77836 -1.1338e-22 -0.110954)
(-3.06552 1.19571e-22 -0.0938491)
(-3.33338 -7.74615e-26 -0.0740054)
(-3.57868 0 -0.0512508)
(-3.78881 0 -0.0236802)
(-3.91434 0 0.0100411)
(-3.9027 1.82972e-23 0.046051)
(-3.75699 0 0.0830609)
(-3.44856 0 0.136866)
(-2.87021 0 0.20513)
(-1.64144 -7.17892e-25 0.300601)
(0.567393 2.61439e-23 0.440275)
(3.51575 0 0.598612)
(6.72033 0 0.747951)
(9.73369 -9.51795e-23 0.897599)
(12.2827 3.19637e-21 1.03978)
(14.2765 -2.95332e-21 1.16608)
(15.7354 -1.4925e-21 1.27168)
(16.734 1.44416e-21 1.35439)
(17.3678 3.60173e-22 1.41392)
(17.7336 -9.52748e-22 1.45123)
(17.9175 1.35946e-21 1.46802)
)
;
    }
    flap
    {
        type            calculated;
        value           nonuniform 0();
    }
    upperWall
    {
        type            calculated;
        value           nonuniform 0();
    }
    lowerWall
    {
        type            calculated;
        value           uniform (0 0 0);
    }
    frontAndBack
    {
        type            empty;