/*--------------------------------*- C++ -*----------------------------------*\
| =========                 |                                                 |
| \\      /  F ield         | OpenFOAM: The Open Source CFD Toolbox           |
|  \\    /   O peration     | Version:  dev                                   |
|   \\  /    A nd           | Web:      www.OpenFOAM.org                      |
|    \\/     M anipulation  |                                                 |
\*---------------------------------------------------------------------------*/
FoamFile
{
    version     2.0;
    format      ascii;
    class       volVectorField;
    location    "0.67";
    object      Force;
}
// * * * * * * * * * * * * * * * * * * * * * * * * * * * * * * * * * * * * * //

dimensions      [1 1 -2 0 0 0 0];

internalField   uniform (0 0 0);

boundaryField
{
    inlet
    {
        type            calculated;
        value           nonuniform 0();
    }
    outlet
    {
        type            calculated;
        value           nonuniform 0();
    }
    flap
    {
        type            calculated;
        value           nonuniform List<vector> 
33
(
(0.602388 -1.22987e-16 -2.49559)
(1.0245 -3.67176e-17 0.873099)
(0.492539 -9.4372e-18 -0.00898018)
(0.824854 1.94121e-17 -0.179086)
(0.730914 -1.46937e-39 0.0223468)
(0.926248 1.73385e-17 -0.0305407)
(1.04516 2.17305e-22 -0.0218808)
(0.756391 2.93956e-22 -0.0565555)
(1.1014 -1.70566e-17 0.0610138)
(1.2365 -1.23096e-23 -0.120974)
(1.12339 -1.46937e-39 0.0305493)
(1.34987 1.87859e-21 0.407566)
(0.1492 -2.49691e-19 0.248035)
(3.51117 -6.72681e-17 -3.77992)
(10.8921 -1.03964e-16 3.36122)
(-3.78054 1.22725e-17 -1.65894)
(2.34262 -5.73315e-18 2.26581)
(9.80817 2.16009e-17 8.44443)
(0.323985 -9.84275e-18 -2.60551)
(1.6129 -4.00968e-21 0.637909)
(1.13763 1.7597e-17 -0.151192)
(1.19806 1.6443e-17 0.0629906)
(1.39231 1.69599e-17 -0.0324054)
(1.40152 1.24993e-22 -0.0940635)
(1.65497 -1.0554e-22 -0.0395959)
(1.65856 1.55985e-17 -0.114503)
(2.00747 1.73197e-17 0.0263058)
(1.84549 -1.39654e-17 0.0609589)
(2.0594 -2.34569e-17 -0.546545)
(2.60461 2.33057e-17 0.682323)
(2.32393 -1.04783e-17 0.517801)
(4.52516 -1.88079e-37 -3.70683)
(18.7586 7.95938e-17 6.45337)
)
;
    }
    upperWall
    {
        type            calculated;
        value           nonuniform 0();
    }
    lowerWall
    {
        type            calculated;
        value           uniform (0 0 0);
    }
    frontAndBack
    {
        type            empty;
    }
    procBoundary4to1
    {
        type            processor;
        value           uniform (0 0 0);
    }
    procBoundary4to2
    {
        type            processor;
        value           uniform (0 0 0);
    }
    procBoundary4to3
    {
        type            processor;
        value           uniform (0 0 0);
    }
    procBoundary4to5
    {
        type            processor;
        value           uniform (0 0 0);
    }
}


// ************************************************************************* //
