/*--------------------------------*- C++ -*----------------------------------*\
| =========                 |                                                 |
| \\      /  F ield         | OpenFOAM: The Open Source CFD Toolbox           |
|  \\    /   O peration     | Version:  dev                                   |
|   \\  /    A nd           | Web:      www.OpenFOAM.org                      |
|    \\/     M anipulation  |                                                 |
\*---------------------------------------------------------------------------*/
FoamFile
{
    version     2.0;
    format      ascii;
    class       volScalarField;
    location    "0.78";
    object      p;
}
// * * * * * * * * * * * * * * * * * * * * * * * * * * * * * * * * * * * * * //

dimensions      [0 2 -2 0 0 0 0];

internalField   nonuniform List<scalar> 
465
(
164.576
164.448
164.66
165.218
166.004
166.953
168.055
169.309
170.71
172.254
173.932
175.739
177.666
179.705
181.844
184.068
186.358
188.692
191.041
193.371
195.641
164.403
164.37
164.603
165.159
165.942
166.888
167.986
169.235
170.631
172.167
173.838
175.637
177.555
179.585
181.714
183.929
186.212
188.54
190.886
193.215
195.491
164.227
164.266
164.516
165.061
165.833
166.769
167.854
169.088
170.466
171.982
173.63
175.403
177.293
179.291
181.386
183.565
185.809
188.098
190.406
192.701
194.946
164.034
164.107
164.369
164.906
165.665
166.587
167.656
168.869
170.224
171.713
173.33
175.067
176.918
178.871
180.918
183.044
185.232
187.462
189.709
191.946
194.138
163.813
163.905
164.175
164.705
165.449
166.354
167.401
168.589
169.913
171.367
172.944
174.637
176.437
178.335
180.32
182.379
184.495
186.65
188.821
190.981
193.102
163.563
163.662
163.936
164.457
165.184
166.067
167.088
168.244
169.531
170.944
172.474
174.113
175.853
177.686
179.598
181.579
183.611
185.677
187.756
189.826
191.859
163.279
163.381
163.654
164.164
164.871
165.728
166.718
167.838
169.083
170.448
171.923
173.5
175.172
176.929
178.759
180.65
182.586
184.55
186.524
188.487
190.415
162.962
163.063
163.331
163.827
164.512
165.34
166.295
167.373
168.571
169.881
171.294
172.802
174.397
176.069
177.807
179.596
181.424
183.274
185.128
186.967
188.771
162.612
162.71
162.969
163.448
164.109
164.904
165.82
166.853
167.997
169.246
170.591
172.023
173.533
175.111
176.746
178.424
180.131
181.852
183.569
185.265
186.921
162.23
162.322
162.57
163.03
163.663
164.424
165.297
166.279
167.366
168.549
169.819
171.167
172.585
174.06
175.582
177.137
178.711
180.287
181.849
183.379
184.859
161.816
161.902
162.136
162.575
163.178
163.9
164.727
165.655
166.679
167.791
168.981
170.24
171.557
172.922
174.322
175.743
177.17
178.586
179.972
181.311
182.58
161.372
161.451
161.669
162.084
162.655
163.336
164.114
164.984
165.942
166.978
168.082
169.245
170.456
171.703
172.971
174.248
175.515
176.754
177.944
179.063
180.087
160.899
160.971
161.171
161.56
162.097
162.735
163.46
164.269
165.157
166.113
167.128
168.19
169.288
170.409
171.538
172.66
173.754
174.801
175.774
176.648
177.39
160.399
160.462
160.644
161.006
161.507
162.099
162.77
163.515
164.33
165.203
166.123
167.079
168.06
169.049
170.032
170.99
171.901
172.741
173.48
174.084
174.512
159.875
159.929
160.091
160.424
160.886
161.432
162.046
162.725
163.464
164.25
165.073
165.92
166.778
167.631
168.462
169.248
169.968
170.59
171.082
171.4
171.494
159.502
159.804
160.227
160.723
161.277
161.887
162.547
163.243
163.964
164.697
165.427
166.138
166.808
167.417
167.935
168.33
168.563
168.583
168.327
159.14
159.52
159.964
160.456
160.993
161.569
162.171
162.785
163.399
163.995
164.557
165.061
165.484
165.794
165.955
165.922
165.639
165.032
158.772
159.161
159.588
160.05
160.539
161.043
161.547
162.037
162.496
162.904
163.239
163.472
163.572
163.498
163.202
162.623
161.684
158.317
158.677
159.061
159.46
159.863
160.254
160.618
160.937
161.191
161.354
161.399
161.29
160.987
160.439
159.584
158.344
157.724
158.028
158.336
158.637
158.913
159.151
159.33
159.429
159.423
159.282
158.972
158.45
157.667
156.562
155.063
156.956
157.172
157.369
157.532
157.642
157.682
157.629
157.459
157.14
156.639
155.914
154.918
153.595
151.879
156.068
156.116
156.102
156.005
155.805
155.476
154.989
154.31
153.401
152.217
150.708
148.819
154.674
154.538
154.31
153.97
153.491
152.847
152.006
150.932
149.587
147.925
145.901
152.608
152.134
151.517
150.729
149.743
148.526
147.044
145.261
143.136
149.566
148.649
147.535
146.196
144.603
142.725
140.531
146.621
145.396
143.955
142.272
140.324
138.087
141.81
140.059
138.062
135.802
135.938
133.672
)
;

boundaryField
{
    inlet
    {
        type            zeroGradient;
    }
    outlet
    {
        type            fixedValue;
        value           nonuniform 0();
    }
    flap
    {
        type            zeroGradient;
    }
    upperWall
    {
        type            zeroGradient;
    }
    lowerWall
    {
        type            zeroGradient;
    }
    frontAndBack
    {
        type            empty;
    }
    procBoundary3to0
    {
        type            processor;
        value           nonuniform List<scalar> 
34
(
159.316
159.361
159.361
158.871
158.871
158.437
158.437
157.985
157.985
157.433
157.433
156.733
156.733
155.849
155.973
155.973
154.738
154.738
153.215
152.962
152.962
150.91
150.312
150.312
147.653
147.653
144.654
143.336
143.336
139.769
137.966
137.966
133.952
131.694
)
;
    }
    procBoundary3to1
    {
        type            processor;
        value           nonuniform List<scalar> 9(153.082 149.695 146.485 143.463 140.632 137.993 135.539 133.263 131.158);
    }
    procBoundary3to4
    {
        type            processor;
        value           nonuniform List<scalar> 
19
(
197.807
197.668
197.103
196.25
195.152
193.829
192.287
190.521
188.52
186.271
183.762
180.989
177.963
174.714
171.294
167.711
164.007
160.284
156.623
)
;
    }
}


// ************************************************************************* //
