/*--------------------------------*- C++ -*----------------------------------*\
| =========                 |                                                 |
| \\      /  F ield         | OpenFOAM: The Open Source CFD Toolbox           |
|  \\    /   O peration     | Version:  dev                                   |
|   \\  /    A nd           | Web:      www.OpenFOAM.org                      |
|    \\/     M anipulation  |                                                 |
\*---------------------------------------------------------------------------*/
FoamFile
{
    version     2.0;
    format      ascii;
    class       pointVectorField;
    location    "3.11";
    object      pointDisplacement;
}
// * * * * * * * * * * * * * * * * * * * * * * * * * * * * * * * * * * * * * //

dimensions      [0 1 0 0 0 0 0];

internalField   nonuniform List<vector> 
1028
(
(0.139838 0 -0.00787336)
(0.144707 0 -0.00845251)
(0.141909 0 -0.00842268)
(0.146502 0 -0.00901796)
(0.151047 0 -0.00966809)
(0.155457 0 -0.0103744)
(0.143394 0 -0.008896)
(0.147694 0 -0.00949583)
(0.151872 0 -0.01014)
(0.155848 0 -0.0108267)
(0.159533 0 -0.0115537)
(0.162839 0 -0.0123193)
(0.144373 0 -0.00929473)
(0.148373 0 -0.0098886)
(0.152196 0 -0.0105157)
(0.155776 0 -0.0111736)
(0.159049 0 -0.0118598)
(0.161948 0 -0.0125707)
(0.164415 0 -0.0133017)
(0.166405 0 -0.0140465)
(0.144913 0 -0.00962039)
(0.148621 0 -0.0102001)
(0.152114 0 -0.0108035)
(0.155344 0 -0.0114282)
(0.158263 0 -0.0120707)
(0.160825 0 -0.0127268)
(0.162989 0 -0.0133908)
(0.164728 0 -0.0140557)
(0.166026 0 -0.0147114)
(0.166809 0 -0.0152708)
(0.145074 0 -0.00987551)
(0.148507 0 -0.0104357)
(0.151702 0 -0.0110116)
(0.154627 0 -0.0116008)
(0.157246 0 -0.0121994)
(0.159526 0 -0.0128025)
(0.161442 0 -0.0134046)
(0.162979 0 -0.0139986)
(0.164131 0 -0.014576)
(0.164835 0 -0.0150626)
(0.144907 0 -0.0100629)
(0.148089 0 -0.0106003)
(0.151021 0 -0.011147)
(0.153681 0 -0.0117001)
(0.156044 0 -0.0122556)
(0.158089 0 -0.0128089)
(0.159801 0 -0.0133546)
(0.161173 0 -0.0138866)
(0.162204 0 -0.0143977)
(0.162841 0 -0.0148244)
(0.144461 0 -0.0101856)
(0.147416 0 -0.0106985)
(0.150116 0 -0.0112152)
(0.152547 0 -0.0117327)
(0.154692 0 -0.0122471)
(0.156539 0 -0.0127542)
(0.158081 0 -0.0132492)
(0.159315 0 -0.0137268)
(0.160246 0 -0.0141814)
(0.160825 0 -0.0145582)
(0.143778 0 -0.010247)
(0.146529 0 -0.0107343)
(0.149025 0 -0.0112209)
(0.151257 0 -0.0117038)
(0.153216 0 -0.0121795)
(0.154895 0 -0.0126441)
(0.156293 0 -0.0130936)
(0.157411 0 -0.0135237)
(0.158256 0 -0.0139298)
(0.158785 0 -0.0142644)
(0.142891 0 -0.0102491)
(0.14546 0 -0.0107106)
(0.147776 0 -0.0111676)
(0.149836 0 -0.0116174)
(0.151634 0 -0.0120568)
(0.15317 0 -0.0124826)
(0.154446 0 -0.0128913)
(0.155465 0 -0.0132795)
(0.156236 0 -0.0136437)
(0.15672 0 -0.0139422)
(0.141828 0 -0.0101935)
(0.144236 0 -0.0106292)
(0.146394 0 -0.0110574)
(0.148304 0 -0.0114758)
(0.149964 0 -0.0118816)
(0.151377 0 -0.0122719)
(0.152547 0 -0.012644)
(0.153481 0 -0.0129951)
(0.154187 0 -0.0133227)
(0.154629 0 -0.0135899)
(0.138102 0 -0.00966275)
(0.140615 0 -0.010081)
(0.14288 0 -0.0104913)
(0.1449 0 -0.0108919)
(0.146679 0 -0.0112806)
(0.148219 0 -0.0116551)
(0.149526 0 -0.012013)
(0.150605 0 -0.0123521)
(0.151463 0 -0.0126702)
(0.152111 0 -0.0129654)
(0.152517 0 -0.0132052)
(0.136892 0 -0.00951675)
(0.139276 0 -0.00991201)
(0.141414 0 -0.0102975)
(0.143313 0 -0.0106715)
(0.144977 0 -0.0110322)
(0.146413 0 -0.0113776)
(0.147627 0 -0.0117058)
(0.148626 0 -0.012015)
(0.149419 0 -0.0123035)
(0.150015 0 -0.01257)
(0.150386 0 -0.0127855)
(0.135564 0 -0.00931387)
(0.137833 0 -0.00968626)
(0.13986 0 -0.0100474)
(0.141651 0 -0.0103959)
(0.143215 0 -0.0107301)
(0.14456 0 -0.0110484)
(0.145692 0 -0.0113492)
(0.146621 0 -0.0116311)
(0.147356 0 -0.011893)
(0.147905 0 -0.0121337)
(0.148245 0 -0.0123276)
(0.134142 0 -0.00905308)
(0.136309 0 -0.00940268)
(0.138236 0 -0.00974002)
(0.139933 0 -0.0100639)
(0.141409 0 -0.0103729)
(0.142673 0 -0.0106658)
(0.143734 0 -0.0109412)
(0.144601 0 -0.0111982)
(0.145283 0 -0.0114357)
(0.14579 0 -0.011653)
(0.1461 0 -0.0118274)
(0.132648 0 -0.00873263)
(0.134724 0 -0.00905949)
(0.136563 0 -0.00937343)
(0.138176 0 -0.00967348)
(0.139575 0 -0.00995846)
(0.140769 0 -0.0102273)
(0.141767 0 -0.0104791)
(0.142579 0 -0.0107129)
(0.143214 0 -0.0109281)
(0.143683 0 -0.0111242)
(0.143966 0 -0.0112808)
(0.131107 0 -0.00835012)
(0.133101 0 -0.00865415)
(0.134862 0 -0.00894496)
(0.136402 0 -0.00922177)
(0.137733 0 -0.00948361)
(0.138864 0 -0.00972961)
(0.139807 0 -0.00995903)
(0.14057 0 -0.0101712)
(0.141164 0 -0.0103658)
(0.141598 0 -0.0105423)
(0.141857 0 -0.0106828)
(0.129541 0 -0.0079024)
(0.131464 0 -0.00818336)
(0.133157 0 -0.00845112)
(0.134632 0 -0.00870505)
(0.135903 0 -0.00894436)
(0.136979 0 -0.00916836)
(0.137873 0 -0.00937649)
(0.138593 0 -0.00956829)
(0.13915 0 -0.00974344)
(0.139553 0 -0.00990174)
(0.139789 0 -0.0100273)
(0.127979 0 -0.00738558)
(0.129839 0 -0.007643)
(0.131471 0 -0.00788752)
(0.13289 0 -0.00811866)
(0.134108 0 -0.00833577)
(0.135137 0 -0.00853831)
(0.135987 0 -0.00872586)
(0.136669 0 -0.00889808)
(0.137193 0 -0.0090548)
(0.137568 0 -0.0091959)
(0.137783 0 -0.00930742)
(0.126449 0 -0.00679491)
(0.128254 0 -0.00702802)
(0.129834 0 -0.00724882)
(0.131203 0 -0.00745693)
(0.132375 0 -0.00765184)
(0.133362 0 -0.00783313)
(0.134174 0 -0.00800046)
(0.134823 0 -0.00815363)
(0.135317 0 -0.00829253)
(0.135667 0 -0.00841713)
(0.135864 0 -0.00851526)
(0.124983 0 -0.00612471)
(0.12674 0 -0.00633237)
(0.128274 0 -0.00652859)
(0.1296 0 -0.00671308)
(0.130733 0 -0.00688542)
(0.131683 0 -0.00704528)
(0.132463 0 -0.00719242)
(0.133082 0 -0.0073267)
(0.133551 0 -0.00744808)
(0.133879 0 -0.00755657)
(0.134059 0 -0.00764173)
(0.123615 0 -0.00536823)
(0.125331 0 -0.00554888)
(0.126826 0 -0.00571923)
(0.128117 0 -0.00587906)
(0.129216 0 -0.00602803)
(0.130135 0 -0.00616588)
(0.130887 0 -0.00629245)
(0.131481 0 -0.00640763)
(0.131928 0 -0.00651144)
(0.132236 0 -0.00660392)
(0.132401 0 -0.00667626)
(0.122384 0 -0.00451754)
(0.124067 0 -0.00466908)
(0.12553 0 -0.00481174)
(0.12679 0 -0.00494535)
(0.127861 0 -0.00506966)
(0.128755 0 -0.00518446)
(0.129483 0 -0.00528962)
(0.130056 0 -0.00538509)
(0.130484 0 -0.00547089)
(0.130776 0 -0.00554709)
(0.130929 0 -0.0056065)
(0.121334 0 -0.00356338)
(0.12299 0 -0.00368304)
(0.124428 0 -0.00379555)
(0.125665 0 -0.00390078)
(0.126713 0 -0.00399854)
(0.127587 0 -0.00408867)
(0.128296 0 -0.00417107)
(0.128852 0 -0.00424572)
(0.129265 0 -0.00431263)
(0.129544 0 -0.00437187)
(0.129686 0 -0.00441794)
(0.120514 0 -0.00249492)
(0.12215 0 -0.00257912)
(0.123569 0 -0.00265823)
(0.124788 0 -0.00273216)
(0.125821 0 -0.00280075)
(0.126679 0 -0.00286391)
(0.127374 0 -0.00292156)
(0.127918 0 -0.00297369)
(0.12832 0 -0.00302031)
(0.128588 0 -0.00306148)
(0.128723 0 -0.00309341)
(0.119978 0 -0.00129964)
(0.121602 0 -0.00134381)
(0.123009 0 -0.00138528)
(0.124217 0 -0.00142402)
(0.125239 0 -0.00145993)
(0.126088 0 -0.00149297)
(0.126775 0 -0.0015231)
(0.127311 0 -0.00155031)
(0.127705 0 -0.0015746)
(0.127968 0 -0.001596)
(0.128097 0 -0.00161258)
(0.119788 0 0)
(0.121408 0 0)
(0.122811 0 0)
(0.124016 0 0)
(0.125034 0 0)
(0.125879 0 0)
(0.126563 0 0)
(0.127096 0 0)
(0.127488 0 0)
(0.127748 0 0)
(0.127876 0 0)
(0.139838 0 -0.00787336)
(0.144707 0 -0.00845251)
(0.141909 0 -0.00842268)
(0.146502 0 -0.00901796)
(0.151047 0 -0.00966809)
(0.155457 0 -0.0103744)
(0.143394 0 -0.008896)
(0.147694 0 -0.00949583)
(0.151872 0 -0.01014)
(0.155848 0 -0.0108267)
(0.159533 0 -0.0115537)
(0.162839 0 -0.0123193)
(0.144373 0 -0.00929473)
(0.148373 0 -0.0098886)
(0.152196 0 -0.0105157)
(0.155776 0 -0.0111736)
(0.159049 0 -0.0118598)
(0.161948 0 -0.0125707)
(0.164415 0 -0.0133017)
(0.166405 0 -0.0140465)
(0.144913 0 -0.00962039)
(0.148621 0 -0.0102001)
(0.152114 0 -0.0108035)
(0.155344 0 -0.0114282)
(0.158263 0 -0.0120707)
(0.160825 0 -0.0127268)
(0.162989 0 -0.0133908)
(0.164728 0 -0.0140557)
(0.166026 0 -0.0147114)
(0.166809 0 -0.0152708)
(0.145074 0 -0.00987551)
(0.148507 0 -0.0104357)
(0.151702 0 -0.0110116)
(0.154627 0 -0.0116008)
(0.157246 0 -0.0121994)
(0.159526 0 -0.0128025)
(0.161442 0 -0.0134046)
(0.162979 0 -0.0139986)
(0.164131 0 -0.014576)
(0.164835 0 -0.0150626)
(0.144907 0 -0.0100629)
(0.148089 0 -0.0106003)
(0.151021 0 -0.011147)
(0.153681 0 -0.0117001)
(0.156044 0 -0.0122556)
(0.158089 0 -0.0128089)
(0.159801 0 -0.0133546)
(0.161173 0 -0.0138866)
(0.162204 0 -0.0143977)
(0.162841 0 -0.0148244)
(0.144461 0 -0.0101856)
(0.147416 0 -0.0106985)
(0.150116 0 -0.0112152)
(0.152547 0 -0.0117327)
(0.154692 0 -0.0122471)
(0.156539 0 -0.0127542)
(0.158081 0 -0.0132492)
(0.159315 0 -0.0137268)
(0.160246 0 -0.0141814)
(0.160825 0 -0.0145582)
(0.143778 0 -0.010247)
(0.146529 0 -0.0107343)
(0.149025 0 -0.0112209)
(0.151257 0 -0.0117038)
(0.153216 0 -0.0121795)
(0.154895 0 -0.0126441)
(0.156293 0 -0.0130936)
(0.157411 0 -0.0135237)
(0.158256 0 -0.0139298)
(0.158785 0 -0.0142644)
(0.142891 0 -0.0102491)
(0.14546 0 -0.0107106)
(0.147776 0 -0.0111676)
(0.149836 0 -0.0116174)
(0.151634 0 -0.0120568)
(0.15317 0 -0.0124826)
(0.154446 0 -0.0128913)
(0.155465 0 -0.0132795)
(0.156236 0 -0.0136437)
(0.15672 0 -0.0139422)
(0.141828 0 -0.0101935)
(0.144236 0 -0.0106292)
(0.146394 0 -0.0110574)
(0.148304 0 -0.0114758)
(0.149964 0 -0.0118816)
(0.151377 0 -0.0122719)
(0.152547 0 -0.012644)
(0.153481 0 -0.0129951)
(0.154187 0 -0.0133227)
(0.154629 0 -0.0135899)
(0.138102 0 -0.00966275)
(0.140615 0 -0.010081)
(0.14288 0 -0.0104913)
(0.1449 0 -0.0108919)
(0.146679 0 -0.0112806)
(0.148219 0 -0.0116551)
(0.149526 0 -0.012013)
(0.150605 0 -0.0123521)
(0.151463 0 -0.0126702)
(0.152111 0 -0.0129654)
(0.152517 0 -0.0132052)
(0.136892 0 -0.00951675)
(0.139276 0 -0.00991201)
(0.141414 0 -0.0102975)
(0.143313 0 -0.0106715)
(0.144977 0 -0.0110322)
(0.146413 0 -0.0113776)
(0.147627 0 -0.0117058)
(0.148626 0 -0.012015)
(0.149419 0 -0.0123035)
(0.150015 0 -0.01257)
(0.150386 0 -0.0127855)
(0.135564 0 -0.00931387)
(0.137833 0 -0.00968626)
(0.13986 0 -0.0100474)
(0.141651 0 -0.0103959)
(0.143215 0 -0.0107301)
(0.14456 0 -0.0110484)
(0.145692 0 -0.0113492)
(0.146621 0 -0.0116311)
(0.147356 0 -0.011893)
(0.147905 0 -0.0121337)
(0.148245 0 -0.0123276)
(0.134142 0 -0.00905308)
(0.136309 0 -0.00940268)
(0.138236 0 -0.00974002)
(0.139933 0 -0.0100639)
(0.141409 0 -0.0103729)
(0.142673 0 -0.0106658)
(0.143734 0 -0.0109412)
(0.144601 0 -0.0111982)
(0.145283 0 -0.0114357)
(0.14579 0 -0.011653)
(0.1461 0 -0.0118274)
(0.132648 0 -0.00873263)
(0.134724 0 -0.00905949)
(0.136563 0 -0.00937343)
(0.138176 0 -0.00967348)
(0.139575 0 -0.00995846)
(0.140769 0 -0.0102273)
(0.141767 0 -0.0104791)
(0.142579 0 -0.0107129)
(0.143214 0 -0.0109281)
(0.143683 0 -0.0111242)
(0.143966 0 -0.0112808)
(0.131107 0 -0.00835012)
(0.133101 0 -0.00865415)
(0.134862 0 -0.00894496)
(0.136402 0 -0.00922177)
(0.137733 0 -0.00948361)
(0.138864 0 -0.00972961)
(0.139807 0 -0.00995903)
(0.14057 0 -0.0101712)
(0.141164 0 -0.0103658)
(0.141598 0 -0.0105423)
(0.141857 0 -0.0106828)
(0.129541 0 -0.0079024)
(0.131464 0 -0.00818336)
(0.133157 0 -0.00845112)
(0.134632 0 -0.00870505)
(0.135903 0 -0.00894436)
(0.136979 0 -0.00916836)
(0.137873 0 -0.00937649)
(0.138593 0 -0.00956829)
(0.13915 0 -0.00974344)
(0.139553 0 -0.00990174)
(0.139789 0 -0.0100273)
(0.127979 0 -0.00738558)
(0.129839 0 -0.007643)
(0.131471 0 -0.00788752)
(0.13289 0 -0.00811866)
(0.134108 0 -0.00833577)
(0.135137 0 -0.00853831)
(0.135987 0 -0.00872586)
(0.136669 0 -0.00889808)
(0.137193 0 -0.0090548)
(0.137568 0 -0.0091959)
(0.137783 0 -0.00930742)
(0.126449 0 -0.00679491)
(0.128254 0 -0.00702802)
(0.129834 0 -0.00724882)
(0.131203 0 -0.00745693)
(0.132375 0 -0.00765184)
(0.133362 0 -0.00783313)
(0.134174 0 -0.00800046)
(0.134823 0 -0.00815363)
(0.135317 0 -0.00829253)
(0.135667 0 -0.00841713)
(0.135864 0 -0.00851526)
(0.124983 0 -0.00612471)
(0.12674 0 -0.00633237)
(0.128274 0 -0.00652859)
(0.1296 0 -0.00671308)
(0.130733 0 -0.00688542)
(0.131683 0 -0.00704528)
(0.132463 0 -0.00719242)
(0.133082 0 -0.0073267)
(0.133551 0 -0.00744808)
(0.133879 0 -0.00755657)
(0.134059 0 -0.00764173)
(0.123615 0 -0.00536823)
(0.125331 0 -0.00554888)
(0.126826 0 -0.00571923)
(0.128117 0 -0.00587906)
(0.129216 0 -0.00602803)
(0.130135 0 -0.00616588)
(0.130887 0 -0.00629245)
(0.131481 0 -0.00640763)
(0.131928 0 -0.00651144)
(0.132236 0 -0.00660392)
(0.132401 0 -0.00667626)
(0.122384 0 -0.00451754)
(0.124067 0 -0.00466908)
(0.12553 0 -0.00481174)
(0.12679 0 -0.00494535)
(0.127861 0 -0.00506966)
(0.128755 0 -0.00518446)
(0.129483 0 -0.00528962)
(0.130056 0 -0.00538509)
(0.130484 0 -0.00547089)
(0.130776 0 -0.00554709)
(0.130929 0 -0.0056065)
(0.121334 0 -0.00356338)
(0.12299 0 -0.00368304)
(0.124428 0 -0.00379555)
(0.125665 0 -0.00390078)
(0.126713 0 -0.00399854)
(0.127587 0 -0.00408867)
(0.128296 0 -0.00417107)
(0.128852 0 -0.00424572)
(0.129265 0 -0.00431263)
(0.129544 0 -0.00437187)
(0.129686 0 -0.00441794)
(0.120514 0 -0.00249492)
(0.12215 0 -0.00257912)
(0.123569 0 -0.00265823)
(0.124788 0 -0.00273216)
(0.125821 0 -0.00280075)
(0.126679 0 -0.00286391)
(0.127374 0 -0.00292156)
(0.127918 0 -0.00297369)
(0.12832 0 -0.00302031)
(0.128588 0 -0.00306148)
(0.128723 0 -0.00309341)
(0.119978 0 -0.00129964)
(0.121602 0 -0.00134381)
(0.123009 0 -0.00138528)
(0.124217 0 -0.00142402)
(0.125239 0 -0.00145993)
(0.126088 0 -0.00149297)
(0.126775 0 -0.0015231)
(0.127311 0 -0.00155031)
(0.127705 0 -0.0015746)
(0.127968 0 -0.001596)
(0.128097 0 -0.00161258)
(0.119788 0 0)
(0.121408 0 0)
(0.122811 0 0)
(0.124016 0 0)
(0.125034 0 0)
(0.125879 0 0)
(0.126563 0 0)
(0.127096 0 0)
(0.127488 0 0)
(0.127748 0 0)
(0.127876 0 0)
(0.16716 0 -0.0156519)
(0.165159 0 -0.0153913)
(0.165324 0 -0.0156447)
(0.165415 0 -0.0159492)
(0.16314 0 -0.0151109)
(0.163297 0 -0.0153311)
(0.163392 0 -0.0155954)
(0.161101 0 -0.01481)
(0.161249 0 -0.015003)
(0.161344 0 -0.0152343)
(0.159039 0 -0.014487)
(0.159177 0 -0.0146574)
(0.159268 0 -0.0148611)
(0.156953 0 -0.0141401)
(0.15708 0 -0.0142912)
(0.157166 0 -0.0144715)
(0.154843 0 -0.0137664)
(0.15496 0 -0.013901)
(0.155038 0 -0.0140612)
(0.152712 0 -0.013363)
(0.152818 0 -0.0134831)
(0.152886 0 -0.0136259)
(0.150563 0 -0.0129269)
(0.150658 0 -0.0130343)
(0.150715 0 -0.0131617)
(0.148405 0 -0.0124544)
(0.148488 0 -0.0125506)
(0.148535 0 -0.0126644)
(0.146244 0 -0.011941)
(0.146316 0 -0.0120272)
(0.146352 0 -0.0121289)
(0.144094 0 -0.0113826)
(0.144155 0 -0.0114595)
(0.144181 0 -0.0115501)
(0.14197 0 -0.0107738)
(0.142021 0 -0.0108422)
(0.142036 0 -0.0109225)
(0.139889 0 -0.0101082)
(0.139931 0 -0.010169)
(0.139935 0 -0.0102398)
(0.13787 0 -0.00937899)
(0.137903 0 -0.00943249)
(0.137898 0 -0.00949462)
(0.13594 0 -0.00857797)
(0.135964 0 -0.00862467)
(0.135949 0 -0.00867863)
(0.134124 0 -0.00769591)
(0.134141 0 -0.00773612)
(0.134117 0 -0.00778233)
(0.132457 0 -0.00672209)
(0.132468 0 -0.00675598)
(0.132435 0 -0.00679473)
(0.130977 0 -0.00564399)
(0.130982 0 -0.00567161)
(0.130942 0 -0.00570302)
(0.129728 0 -0.00444688)
(0.129727 0 -0.00446814)
(0.129682 0 -0.0044922)
(0.12876 0 -0.0031134)
(0.128755 0 -0.00312802)
(0.128706 0 -0.00314451)
(0.128131 0 -0.00162292)
(0.128124 0 -0.00163046)
(0.128071 0 -0.00163892)
(0.127909 0 0)
(0.127901 0 0)
(0.127848 0 0)
(0.16716 0 -0.0156519)
(0.165159 0 -0.0153913)
(0.165324 0 -0.0156447)
(0.165415 0 -0.0159492)
(0.16314 0 -0.0151109)
(0.163297 0 -0.0153311)
(0.163392 0 -0.0155954)
(0.161101 0 -0.01481)
(0.161249 0 -0.015003)
(0.161344 0 -0.0152343)
(0.159039 0 -0.014487)
(0.159177 0 -0.0146574)
(0.159268 0 -0.0148611)
(0.156953 0 -0.0141401)
(0.15708 0 -0.0142912)
(0.157166 0 -0.0144715)
(0.154843 0 -0.0137664)
(0.15496 0 -0.013901)
(0.155038 0 -0.0140612)
(0.152712 0 -0.013363)
(0.152818 0 -0.0134831)
(0.152886 0 -0.0136259)
(0.150563 0 -0.0129269)
(0.150658 0 -0.0130343)
(0.150715 0 -0.0131617)
(0.148405 0 -0.0124544)
(0.148488 0 -0.0125506)
(0.148535 0 -0.0126644)
(0.146244 0 -0.011941)
(0.146316 0 -0.0120272)
(0.146352 0 -0.0121289)
(0.144094 0 -0.0113826)
(0.144155 0 -0.0114595)
(0.144181 0 -0.0115501)
(0.14197 0 -0.0107738)
(0.142021 0 -0.0108422)
(0.142036 0 -0.0109225)
(0.139889 0 -0.0101082)
(0.139931 0 -0.010169)
(0.139935 0 -0.0102398)
(0.13787 0 -0.00937899)
(0.137903 0 -0.00943249)
(0.137898 0 -0.00949462)
(0.13594 0 -0.00857797)
(0.135964 0 -0.00862467)
(0.135949 0 -0.00867863)
(0.134124 0 -0.00769591)
(0.134141 0 -0.00773612)
(0.134117 0 -0.00778233)
(0.132457 0 -0.00672209)
(0.132468 0 -0.00675598)
(0.132435 0 -0.00679473)
(0.130977 0 -0.00564399)
(0.130982 0 -0.00567161)
(0.130942 0 -0.00570302)
(0.129728 0 -0.00444688)
(0.129727 0 -0.00446814)
(0.129682 0 -0.0044922)
(0.12876 0 -0.0031134)
(0.128755 0 -0.00312802)
(0.128706 0 -0.00314451)
(0.128131 0 -0.00162292)
(0.128124 0 -0.00163046)
(0.128071 0 -0.00163892)
(0.127909 0 0)
(0.127901 0 0)
(0.127848 0 0)
(0.165316 0 -0.0163534)
(0.163327 0 -0.0159471)
(0.162974 0 -0.016307)
(0.16232 0 -0.01661)
(0.161368 0 -0.0168463)
(0.1613 0 -0.0155422)
(0.161 0 -0.015859)
(0.160426 0 -0.0161285)
(0.159576 0 -0.0163424)
(0.158451 0 -0.0164949)
(0.157052 0 -0.0165819)
(0.159236 0 -0.0151321)
(0.158974 0 -0.0154116)
(0.15846 0 -0.0156511)
(0.157691 0 -0.0158432)
(0.156661 0 -0.0159826)
(0.155369 0 -0.0160652)
(0.153812 0 -0.0160878)
(0.151989 0 -0.0160488)
(0.15714 0 -0.0147111)
(0.156903 0 -0.0149581)
(0.156434 0 -0.0151705)
(0.155726 0 -0.0153421)
(0.154773 0 -0.0154678)
(0.153568 0 -0.0155436)
(0.152107 0 -0.0155663)
(0.150385 0 -0.0155335)
(0.148393 0 -0.0154434)
(0.155013 0 -0.0142737)
(0.154791 0 -0.0144924)
(0.154355 0 -0.0146805)
(0.153696 0 -0.0148328)
(0.152803 0 -0.0149449)
(0.151669 0 -0.0150128)
(0.150288 0 -0.0150332)
(0.14865 0 -0.0150037)
(0.146746 0 -0.0149218)
(0.152857 0 -0.0138148)
(0.152645 0 -0.0140086)
(0.152233 0 -0.014175)
(0.15161 0 -0.0143096)
(0.150765 0 -0.0144085)
(0.14969 0 -0.0144679)
(0.148373 0 -0.0144848)
(0.146807 0 -0.0144564)
(0.144979 0 -0.0143802)
(0.15068 0 -0.0133297)
(0.150474 0 -0.0135014)
(0.150078 0 -0.0136484)
(0.149482 0 -0.0137668)
(0.148674 0 -0.0138531)
(0.147645 0 -0.013904)
(0.146383 0 -0.0139165)
(0.144876 0 -0.0138878)
(0.143112 0 -0.0138154)
(0.148491 0 -0.0128137)
(0.148285 0 -0.0129656)
(0.147899 0 -0.013095)
(0.147322 0 -0.0131986)
(0.146544 0 -0.0132732)
(0.145551 0 -0.0133157)
(0.144333 0 -0.0133234)
(0.142876 0 -0.0132937)
(0.141167 0 -0.0132238)
(0.1463 0 -0.0122616)
(0.14609 0 -0.0123957)
(0.14571 0 -0.0125093)
(0.145147 0 -0.0125993)
(0.144389 0 -0.012663)
(0.143425 0 -0.0126976)
(0.142242 0 -0.0127004)
(0.140827 0 -0.0126691)
(0.139163 0 -0.012601)
(0.144118 0 -0.0116677)
(0.143903 0 -0.0117859)
(0.143524 0 -0.0118852)
(0.142969 0 -0.0119629)
(0.142227 0 -0.0120166)
(0.141285 0 -0.0120438)
(0.14013 0 -0.012042)
(0.138748 0 -0.0120089)
(0.137123 0 -0.0119421)
(0.141962 0 -0.0110264)
(0.141739 0 -0.0111301)
(0.141359 0 -0.0112164)
(0.140809 0 -0.011283)
(0.140077 0 -0.0113275)
(0.139151 0 -0.0113479)
(0.138018 0 -0.0113418)
(0.136663 0 -0.0113072)
(0.13507 0 -0.0112415)
(0.139849 0 -0.0103311)
(0.139617 0 -0.0104215)
(0.139233 0 -0.010496)
(0.138684 0 -0.0105524)
(0.137959 0 -0.0105887)
(0.137045 0 -0.010603)
(0.135929 0 -0.0105932)
(0.134596 0 -0.0105573)
(0.133028 0 -0.010493)
(0.1378 0 -0.00957424)
(0.137558 0 -0.00965254)
(0.137169 0 -0.00971621)
(0.136619 0 -0.00976343)
(0.135897 0 -0.0097924)
(0.134991 0 -0.00980132)
(0.133888 0 -0.00978837)
(0.132571 0 -0.00975181)
(0.131025 0 -0.00968948)
(0.135839 0 -0.00874742)
(0.135588 0 -0.00881449)
(0.135192 0 -0.0088683)
(0.13464 0 -0.00890723)
(0.133919 0 -0.0089297)
(0.133019 0 -0.0089341)
(0.131924 0 -0.00891884)
(0.130621 0 -0.00888233)
(0.129091 0 -0.00882262)
(0.133996 0 -0.00784093)
(0.133736 0 -0.00789755)
(0.133333 0 -0.0079423)
(0.132776 0 -0.00797378)
(0.132056 0 -0.00799061)
(0.131158 0 -0.00799138)
(0.130069 0 -0.00797468)
(0.128776 0 -0.00793915)
(0.127259 0 -0.00788301)
(0.132305 0 -0.00684361)
(0.132034 0 -0.00689038)
(0.131625 0 -0.00692678)
(0.131064 0 -0.00695158)
(0.130342 0 -0.00696361)
(0.129445 0 -0.00696166)
(0.12836 0 -0.00694454)
(0.127074 0 -0.00691107)
(0.125568 0 -0.00685971)
(0.130803 0 -0.00574246)
(0.130524 0 -0.00577984)
(0.130107 0 -0.00580844)
(0.129542 0 -0.00582726)
(0.128818 0 -0.00583532)
(0.127921 0 -0.00583164)
(0.126839 0 -0.00581522)
(0.125557 0 -0.00578507)
(0.124058 0 -0.00573994)
(0.129535 0 -0.00452226)
(0.129249 0 -0.00455049)
(0.128827 0 -0.00457172)
(0.128257 0 -0.00458518)
(0.12753 0 -0.0045901)
(0.126632 0 -0.0045857)
(0.125551 0 -0.00457122)
(0.124273 0 -0.00454589)
(0.122779 0 -0.00450871)
(0.128553 0 -0.00316502)
(0.128261 0 -0.00318412)
(0.127834 0 -0.00319825)
(0.127261 0 -0.00320687)
(0.126531 0 -0.00320944)
(0.125632 0 -0.00320542)
(0.124552 0 -0.00319427)
(0.123275 0 -0.00317546)
(0.121785 0 -0.00314832)
(0.127915 0 -0.00164943)
(0.127619 0 -0.00165915)
(0.127189 0 -0.00166625)
(0.126613 0 -0.00167044)
(0.125882 0 -0.00167144)
(0.124982 0 -0.00166895)
(0.123901 0 -0.00166272)
(0.122626 0 -0.00165245)
(0.121137 0 -0.00163781)
(0.127689 0 0)
(0.127392 0 0)
(0.126961 0 0)
(0.126385 0 0)
(0.125652 0 0)
(0.124752 0 0)
(0.123672 0 0)
(0.122396 0 0)
(0.120908 0 0)
(0.165316 0 -0.0163534)
(0.163327 0 -0.0159471)
(0.162974 0 -0.016307)
(0.16232 0 -0.01661)
(0.161368 0 -0.0168463)
(0.1613 0 -0.0155422)
(0.161 0 -0.015859)
(0.160426 0 -0.0161285)
(0.159576 0 -0.0163424)
(0.158451 0 -0.0164949)
(0.157052 0 -0.0165819)
(0.159236 0 -0.0151321)
(0.158974 0 -0.0154116)
(0.15846 0 -0.0156511)
(0.157691 0 -0.0158432)
(0.156661 0 -0.0159826)
(0.155369 0 -0.0160652)
(0.153812 0 -0.0160878)
(0.151989 0 -0.0160488)
(0.15714 0 -0.0147111)
(0.156903 0 -0.0149581)
(0.156434 0 -0.0151705)
(0.155726 0 -0.0153421)
(0.154773 0 -0.0154678)
(0.153568 0 -0.0155436)
(0.152107 0 -0.0155663)
(0.150385 0 -0.0155335)
(0.148393 0 -0.0154434)
(0.155013 0 -0.0142737)
(0.154791 0 -0.0144924)
(0.154355 0 -0.0146805)
(0.153696 0 -0.0148328)
(0.152803 0 -0.0149449)
(0.151669 0 -0.0150128)
(0.150288 0 -0.0150332)
(0.14865 0 -0.0150037)
(0.146746 0 -0.0149218)
(0.152857 0 -0.0138148)
(0.152645 0 -0.0140086)
(0.152233 0 -0.014175)
(0.15161 0 -0.0143096)
(0.150765 0 -0.0144085)
(0.14969 0 -0.0144679)
(0.148373 0 -0.0144848)
(0.146807 0 -0.0144564)
(0.144979 0 -0.0143802)
(0.15068 0 -0.0133297)
(0.150474 0 -0.0135014)
(0.150078 0 -0.0136484)
(0.149482 0 -0.0137668)
(0.148674 0 -0.0138531)
(0.147645 0 -0.013904)
(0.146383 0 -0.0139165)
(0.144876 0 -0.0138878)
(0.143112 0 -0.0138154)
(0.148491 0 -0.0128137)
(0.148285 0 -0.0129656)
(0.147899 0 -0.013095)
(0.147322 0 -0.0131986)
(0.146544 0 -0.0132732)
(0.145551 0 -0.0133157)
(0.144333 0 -0.0133234)
(0.142876 0 -0.0132937)
(0.141167 0 -0.0132238)
(0.1463 0 -0.0122616)
(0.14609 0 -0.0123957)
(0.14571 0 -0.0125093)
(0.145147 0 -0.0125993)
(0.144389 0 -0.012663)
(0.143425 0 -0.0126976)
(0.142242 0 -0.0127004)
(0.140827 0 -0.0126691)
(0.139163 0 -0.012601)
(0.144118 0 -0.0116677)
(0.143903 0 -0.0117859)
(0.143524 0 -0.0118852)
(0.142969 0 -0.0119629)
(0.142227 0 -0.0120166)
(0.141285 0 -0.0120438)
(0.14013 0 -0.012042)
(0.138748 0 -0.0120089)
(0.137123 0 -0.0119421)
(0.141962 0 -0.0110264)
(0.141739 0 -0.0111301)
(0.141359 0 -0.0112164)
(0.140809 0 -0.011283)
(0.140077 0 -0.0113275)
(0.139151 0 -0.0113479)
(0.138018 0 -0.0113418)
(0.136663 0 -0.0113072)
(0.13507 0 -0.0112415)
(0.139849 0 -0.0103311)
(0.139617 0 -0.0104215)
(0.139233 0 -0.010496)
(0.138684 0 -0.0105524)
(0.137959 0 -0.0105887)
(0.137045 0 -0.010603)
(0.135929 0 -0.0105932)
(0.134596 0 -0.0105573)
(0.133028 0 -0.010493)
(0.1378 0 -0.00957424)
(0.137558 0 -0.00965254)
(0.137169 0 -0.00971621)
(0.136619 0 -0.00976343)
(0.135897 0 -0.0097924)
(0.134991 0 -0.00980132)
(0.133888 0 -0.00978837)
(0.132571 0 -0.00975181)
(0.131025 0 -0.00968948)
(0.135839 0 -0.00874742)
(0.135588 0 -0.00881449)
(0.135192 0 -0.0088683)
(0.13464 0 -0.00890723)
(0.133919 0 -0.0089297)
(0.133019 0 -0.0089341)
(0.131924 0 -0.00891884)
(0.130621 0 -0.00888233)
(0.129091 0 -0.00882262)
(0.133996 0 -0.00784093)
(0.133736 0 -0.00789755)
(0.133333 0 -0.0079423)
(0.132776 0 -0.00797378)
(0.132056 0 -0.00799061)
(0.131158 0 -0.00799138)
(0.130069 0 -0.00797468)
(0.128776 0 -0.00793915)
(0.127259 0 -0.00788301)
(0.132305 0 -0.00684361)
(0.132034 0 -0.00689038)
(0.131625 0 -0.00692678)
(0.131064 0 -0.00695158)
(0.130342 0 -0.00696361)
(0.129445 0 -0.00696166)
(0.12836 0 -0.00694454)
(0.127074 0 -0.00691107)
(0.125568 0 -0.00685971)
(0.130803 0 -0.00574246)
(0.130524 0 -0.00577984)
(0.130107 0 -0.00580844)
(0.129542 0 -0.00582726)
(0.128818 0 -0.00583532)
(0.127921 0 -0.00583164)
(0.126839 0 -0.00581522)
(0.125557 0 -0.00578507)
(0.124058 0 -0.00573994)
(0.129535 0 -0.00452226)
(0.129249 0 -0.00455049)
(0.128827 0 -0.00457172)
(0.128257 0 -0.00458518)
(0.12753 0 -0.0045901)
(0.126632 0 -0.0045857)
(0.125551 0 -0.00457122)
(0.124273 0 -0.00454589)
(0.122779 0 -0.00450871)
(0.128553 0 -0.00316502)
(0.128261 0 -0.00318412)
(0.127834 0 -0.00319825)
(0.127261 0 -0.00320687)
(0.126531 0 -0.00320944)
(0.125632 0 -0.00320542)
(0.124552 0 -0.00319427)
(0.123275 0 -0.00317546)
(0.121785 0 -0.00314832)
(0.127915 0 -0.00164943)
(0.127619 0 -0.00165915)
(0.127189 0 -0.00166625)
(0.126613 0 -0.00167044)
(0.125882 0 -0.00167144)
(0.124982 0 -0.00166895)
(0.123901 0 -0.00166272)
(0.122626 0 -0.00165245)
(0.121137 0 -0.00163781)
(0.127689 0 0)
(0.127392 0 0)
(0.126961 0 0)
(0.126385 0 0)
(0.125652 0 0)
(0.124752 0 0)
(0.123672 0 0)
(0.122396 0 0)
(0.120908 0 0)
)
;

boundaryField
{
    inlet
    {
        type            fixedValue;
        value           nonuniform 0();
    }
    outlet
    {
        type            fixedValue;
        value           nonuniform 0();
    }
    flap
    {
        type            fixedValue;
        value           nonuniform 0();
    }
    upperWall
    {
        type            slip;
    }
    lowerWall
    {
        type            slip;
    }
    frontAndBack
    {
        type            empty;
    }
    procBoundary1to0
    {
        type            processor;
    }
    procBoundary1to2
    {
        type            processor;
    }
    procBoundary1to3
    {
        type            processor;
    }
    procBoundary1to4
    {
        type            processor;
    }
}


// ************************************************************************* //
