/*--------------------------------*- C++ -*----------------------------------*\
| =========                 |                                                 |
| \\      /  F ield         | OpenFOAM: The Open Source CFD Toolbox           |
|  \\    /   O peration     | Version:  dev                                   |
|   \\  /    A nd           | Web:      www.OpenFOAM.org                      |
|    \\/     M anipulation  |                                                 |
\*---------------------------------------------------------------------------*/
FoamFile
{
    version     2.0;
    format      ascii;
    class       pointVectorField;
    location    "3.44";
    object      pointDisplacement;
}
// * * * * * * * * * * * * * * * * * * * * * * * * * * * * * * * * * * * * * //

dimensions      [0 1 0 0 0 0 0];

internalField   nonuniform List<vector> 
5828
(
(0 0 0)
(0.00508016 0 0)
(0.00967374 0 0)
(0.0136614 0 0)
(0.0170858 0 0)
(0.0199882 0 0)
(0.0224068 0 0)
(0.0243763 0 0)
(0.0259279 0 0)
(0.0270896 0 0)
(0.0278859 0 0)
(0.0283387 0 0)
(0.028467 0 0)
(0.0282878 0 0)
(0.0278165 0 0)
(0.0270671 0 0)
(0.0260536 0 0)
(0.0247902 0 0)
(0.0232927 0 0)
(0.0215795 0 0)
(0.0196729 0 0)
(0.0176007 0 0)
(0.0153975 0 0)
(0.0131064 0 0)
(0.0107808 0 0)
(0.0084861 0 0)
(0.00630225 0 0)
(0.00432702 0 0)
(0.00268444 0 0)
(0.00155283 0 0)
(0 0 0)
(0 0 0)
(0.00508334 0 1.8487e-06)
(0.00968031 0 3.75262e-06)
(0.0136714 0 5.85337e-06)
(0.0170995 0 8.31371e-06)
(0.0200058 0 1.12785e-05)
(0.0224288 0 1.48865e-05)
(0.0244033 0 1.9279e-05)
(0.0259606 0 2.46061e-05)
(0.0271288 0 3.10314e-05)
(0.0279327 0 3.87356e-05)
(0.0283942 0 4.79192e-05)
(0.0285326 0 5.88037e-05)
(0.028365 0 7.16315e-05)
(0.0279069 0 8.66644e-05)
(0.0271726 0 0.000104179)
(0.0261762 0 0.000124462)
(0.024932 0 0.000147796)
(0.0234559 0 0.000174448)
(0.0217662 0 0.000204657)
(0.0198854 0 0.000238608)
(0.0178409 0 0.000276425)
(0.0156674 0 0.00031816)
(0.0134077 0 0.000363805)
(0.0111153 0 0.000413335)
(0.00885614 0 0.000466783)
(0.00671109 0 0.000524323)
(0.00478031 0 0.000586172)
(0.00319106 0 0.000651571)
(0.00212019 0 0.000713917)
(0.000893995 0 0.000850275)
(0 0 0)
(0.00509359 0 3.64395e-06)
(0.00970063 0 7.39853e-06)
(0.0137019 0 1.15441e-05)
(0.0171407 0 1.64022e-05)
(0.0200588 0 2.22588e-05)
(0.0224949 0 2.93875e-05)
(0.0244842 0 3.80666e-05)
(0.0260586 0 4.85914e-05)
(0.0272463 0 6.12834e-05)
(0.0280727 0 7.64977e-05)
(0.0285602 0 9.46277e-05)
(0.0287284 0 0.000116108)
(0.0285952 0 0.000141413)
(0.0281765 0 0.000171057)
(0.0274871 0 0.000205581)
(0.0265414 0 0.000245545)
(0.0253543 0 0.000291502)
(0.0239419 0 0.000343974)
(0.0223225 0 0.000403415)
(0.0205182 0 0.000470168)
(0.0185564 0 0.00054443)
(0.0164711 0 0.000626209)
(0.0143046 0 0.000715308)
(0.0121101 0 0.000811327)
(0.00995378 0 0.00091367)
(0.00791833 0 0.00102147)
(0.00610689 0 0.00113313)
(0.00464936 0 0.00124439)
(0.003713 0 0.00134194)
(0.00268803 0 0.00149607)
(0 0 0)
(0.00511054 0 5.33316e-06)
(0.00973421 0 1.08326e-05)
(0.0137523 0 1.69119e-05)
(0.0172089 0 2.40434e-05)
(0.0201464 0 3.26468e-05)
(0.0226041 0 4.31227e-05)
(0.024618 0 5.58779e-05)
(0.0262204 0 7.13431e-05)
(0.0274403 0 8.99868e-05)
(0.0283038 0 0.000112325)
(0.0288339 0 0.00013893)
(0.0290513 0 0.000170431)
(0.0289745 0 0.000207517)
(0.0286204 0 0.000250931)
(0.0280047 0 0.000301459)
(0.0271425 0 0.000359907)
(0.0260493 0 0.000427074)
(0.0247414 0 0.000503705)
(0.0232376 0 0.000590437)
(0.0215594 0 0.000687724)
(0.0197336 0 0.000795756)
(0.0177931 0 0.000914362)
(0.0157788 0 0.0010429)
(0.0137424 0 0.00118015)
(0.0117489 0 0.00132408)
(0.00987968 0 0.00147152)
(0.00823647 0 0.00161725)
(0.00694444 0 0.00175206)
(0.00615405 0 0.0018586)
(0.00529348 0 0.00198192)
(0 0 0)
(0.00513397 0 6.86562e-06)
(0.00978062 0 1.39537e-05)
(0.0138219 0 2.18023e-05)
(0.017303 0 3.10235e-05)
(0.0202673 0 4.21594e-05)
(0.0227549 0 5.57263e-05)
(0.0248025 0 7.2247e-05)
(0.0264434 0 9.22735e-05)
(0.0277075 0 0.000116405)
(0.0286218 0 0.000145299)
(0.0292105 0 0.000179684)
(0.0294952 0 0.000220359)
(0.0294958 0 0.000268201)
(0.0292301 0 0.000324149)
(0.0287152 0 0.000389197)
(0.0279673 0 0.000464364)
(0.0270027 0 0.000550655)
(0.0258384 0 0.000649002)
(0.0244931 0 0.000760181)
(0.0229882 0 0.000884707)
(0.0213492 0 0.0010227)
(0.0196072 0 0.00117369)
(0.0178006 0 0.00133644)
(0.0159777 0 0.0015086)
(0.0141992 0 0.00168636)
(0.012541 0 0.0018638)
(0.0110976 0 0.00203199)
(0.00998354 0 0.00217777)
(0.00933383 0 0.00228298)
(0.00856826 0 0.00237393)
(0 0 0)
(0.00516355 0 8.19375e-06)
(0.00983921 0 1.66666e-05)
(0.0139098 0 2.60706e-05)
(0.0174218 0 3.71424e-05)
(0.0204198 0 5.05324e-05)
(0.0229449 0 6.68579e-05)
(0.0250349 0 8.67415e-05)
(0.0267241 0 0.000110838)
(0.0280436 0 0.000139856)
(0.0290216 0 0.000174572)
(0.0296834 0 0.000215839)
(0.0300522 0 0.000264598)
(0.0301492 0 0.00032187)
(0.0299939 0 0.000388755)
(0.0296048 0 0.00046641)
(0.0289994 0 0.000556018)
(0.0281954 0 0.000658744)
(0.0272104 0 0.000775659)
(0.0260635 0 0.000907637)
(0.0247755 0 0.00105522)
(0.0233706 0 0.00121841)
(0.0218774 0 0.00139646)
(0.0203303 0 0.00158748)
(0.0187721 0 0.00178808)
(0.0172562 0 0.0019928)
(0.0158489 0 0.00219353)
(0.0146324 0 0.00237876)
(0.0137077 0 0.00253337)
(0.0131981 0 0.00263976)
(0.0124869 0 0.00272194)
(0 0 0)
(0.00519889 0 9.2741e-06)
(0.0099092 0 1.88849e-05)
(0.0140148 0 2.95853e-05)
(0.0175636 0 4.22187e-05)
(0.0206016 0 5.75268e-05)
(0.0231714 0 7.62105e-05)
(0.0253117 0 9.8973e-05)
(0.0270582 0 0.000126551)
(0.0284433 0 0.000159736)
(0.0294963 0 0.000199393)
(0.0302444 0 0.000246472)
(0.0307122 0 0.00030201)
(0.0309227 0 0.000367134)
(0.030897 0 0.000443052)
(0.0306556 0 0.000531031)
(0.0302177 0 0.000632364)
(0.0296024 0 0.000748317)
(0.0288286 0 0.00088005)
(0.0279158 0 0.0010285)
(0.0268843 0 0.0011942)
(0.0257566 0 0.00137708)
(0.0245582 0 0.00157614)
(0.0233188 0 0.00178905)
(0.0220741 0 0.00201165)
(0.0208675 0 0.00223738)
(0.0197525 0 0.00245683)
(0.0187961 0 0.00265736)
(0.0180842 0 0.00282335)
(0.0177318 0 0.00293731)
(0.0170859 0 0.00303838)
(0 0 0)
(0.00523951 0 1.00683e-05)
(0.00998962 0 2.05321e-05)
(0.0141353 0 3.22305e-05)
(0.0177264 0 4.60933e-05)
(0.0208103 0 6.29342e-05)
(0.023431 0 8.3518e-05)
(0.0256288 0 0.000108607)
(0.0274405 0 0.000138994)
(0.0289 0 0.000175529)
(0.0300382 0 0.000219132)
(0.0308839 0 0.000270808)
(0.0314635 0 0.000331652)
(0.0318017 0 0.000402845)
(0.0319221 0 0.000485649)
(0.0318468 0 0.000581378)
(0.0315974 0 0.000691372)
(0.0311947 0 0.000816932)
(0.0306589 0 0.000959251)
(0.0300105 0 0.00111928)
(0.0292697 0 0.00129754)
(0.0284571 0 0.00149393)
(0.0275952 0 0.00170736)
(0.0267078 0 0.00193529)
(0.0258231 0 0.00217323)
(0.0249737 0 0.0024141)
(0.0241975 0 0.00264792)
(0.0235443 0 0.00286174)
(0.0230834 0 0.00303985)
(0.0229204 0 0.00316359)
(0.0223982 0 0.0032947)
(0 0 0)
(0.00528486 0 1.05438e-05)
(0.0100794 0 2.15435e-05)
(0.0142698 0 3.39085e-05)
(0.0179079 0 4.86326e-05)
(0.0210429 0 6.65808e-05)
(0.0237201 0 8.856e-05)
(0.0259814 0 0.000115369)
(0.0278651 0 0.000147831)
(0.0294065 0 0.000186823)
(0.0306383 0 0.000233286)
(0.0315909 0 0.000288243)
(0.0322925 0 0.000352796)
(0.0327702 0 0.000428131)
(0.0330494 0 0.0005155)
(0.0331547 0 0.000616203)
(0.03311 0 0.000731551)
(0.0329383 0 0.000862805)
(0.0326615 0 0.00101113)
(0.0323019 0 0.00117744)
(0.0318795 0 0.00136221)
(0.0314133 0 0.00156537)
(0.0309234 0 0.00178588)
(0.0304273 0 0.00202131)
(0.0299459 0 0.00226727)
(0.029502 0 0.00251661)
(0.0291164 0 0.00275914)
(0.0288177 0 0.00298158)
(0.0286547 0 0.00316752)
(0.0287169 0 0.00329621)
(0.028377 0 0.0034471)
(0 0 0)
(0.00533433 0 1.06744e-05)
(0.0101773 0 2.18671e-05)
(0.0144164 0 3.45413e-05)
(0.0181057 0 4.9731e-05)
(0.021296 0 6.83305e-05)
(0.0240345 0 9.11666e-05)
(0.0263644 0 0.00011905)
(0.0283256 0 0.000152809)
(0.029955 0 0.000193316)
(0.0312869 0 0.000241499)
(0.0323534 0 0.000298354)
(0.0331849 0 0.000364949)
(0.0338103 0 0.000442414)
(0.0342573 0 0.000531937)
(0.0345531 0 0.000634731)
(0.034724 0 0.000752003)
(0.0347961 0 0.000884877)
(0.0347918 0 0.00103443)
(0.0347343 0 0.00120147)
(0.0346464 0 0.00138635)
(0.0345481 0 0.00158906)
(0.0344576 0 0.00180872)
(0.0343881 0 0.00204329)
(0.034351 0 0.00228902)
(0.034359 0 0.002539)
(0.0344176 0 0.00278288)
(0.0345291 0 0.00300677)
(0.0347131 0 0.00319258)
(0.0350304 0 0.00331713)
(0.0349104 0 0.00346764)
(0 0 0)
(0.00538726 0 1.04405e-05)
(0.010282 0 2.14648e-05)
(0.0145732 0 3.40721e-05)
(0.018317 0 4.93127e-05)
(0.0215662 0 6.80875e-05)
(0.0243697 0 9.12209e-05)
(0.0267722 0 0.000119512)
(0.028815 0 0.000153767)
(0.0305368 0 0.000194823)
(0.0319734 0 0.000243561)
(0.0331587 0 0.000300913)
(0.0341249 0 0.000367861)
(0.034903 0 0.000445433)
(0.0355229 0 0.000534686)
(0.0360141 0 0.000636684)
(0.0364055 0 0.000752464)
(0.0367252 0 0.000882889)
(0.0369967 0 0.00102877)
(0.0372437 0 0.00119084)
(0.0374943 0 0.00136935)
(0.0377726 0 0.00156425)
(0.0380963 0 0.00177483)
(0.0384783 0 0.00199944)
(0.03892 0 0.00223535)
(0.0394223 0 0.00247672)
(0.0399768 0 0.00271349)
(0.0405559 0 0.00293113)
(0.0411377 0 0.0031094)
(0.0417359 0 0.00322237)
(0.041853 0 0.00335083)
(0 0 0)
(0.00544293 0 9.83004e-06)
(0.0103921 0 2.03128e-05)
(0.0147379 0 3.24663e-05)
(0.0185389 0 4.73331e-05)
(0.0218497 0 6.57981e-05)
(0.0247209 0 8.86615e-05)
(0.0271987 0 0.000116687)
(0.0293261 0 0.000150635)
(0.0311431 0 0.000191278)
(0.0326871 0 0.000239419)
(0.0339936 0 0.000295886)
(0.0350966 0 0.000361536)
(0.0360288 0 0.000437243)
(0.0368224 0 0.00052388)
(0.0375088 0 0.000622291)
(0.0381194 0 0.000733235)
(0.0386813 0 0.000857275)
(0.0392213 0 0.000994842)
(0.0397691 0 0.00114643)
(0.0403549 0 0.00131223)
(0.0410055 0 0.00149197)
(0.0417408 0 0.001685)
(0.0425754 0 0.00189007)
(0.0435111 0 0.00210541)
(0.0445369 0 0.00232736)
(0.0456282 0 0.00254763)
(0.0467317 0 0.00275242)
(0.0477709 0 0.00292031)
(0.0486863 0 0.0030216)
(0.0490582 0 0.00312649)
(0 0 0)
(0.00550059 0 8.83804e-06)
(0.0105061 0 1.84021e-05)
(0.0149084 0 2.97123e-05)
(0.0187683 0 4.37794e-05)
(0.0221426 0 6.14513e-05)
(0.0250832 0 8.34828e-05)
(0.0276381 0 0.000110582)
(0.0298514 0 0.000143437)
(0.0317647 0 0.000182736)
(0.0334167 0 0.00022917)
(0.0348445 0 0.000283434)
(0.0360835 0 0.000346222)
(0.037168 0 0.000418211)
(0.0381317 0 0.000500045)
(0.0390081 0 0.000592304)
(0.0398297 0 0.000695328)
(0.0406229 0 0.000809332)
(0.041419 0 0.000934439)
(0.0422546 0 0.00107066)
(0.0431597 0 0.0012178)
(0.0441625 0 0.00137527)
(0.045287 0 0.00154232)
(0.0465508 0 0.00171795)
(0.0479626 0 0.00190115)
(0.0495079 0 0.00209083)
(0.0511538 0 0.00228278)
(0.052829 0 0.00246767)
(0.0544001 0 0.00262695)
(0.0557035 0 0.00272601)
(0.0564243 0 0.00282755)
(0 0 0)
(0.00555947 0 7.46694e-06)
(0.0106225 0 1.57383e-05)
(0.0150824 0 2.58208e-05)
(0.0190023 0 3.86705e-05)
(0.0224409 0 5.50781e-05)
(0.0254517 0 7.57343e-05)
(0.028084 0 0.000101272)
(0.0303833 0 0.00013229)
(0.0323924 0 0.000169365)
(0.0341513 0 0.000213058)
(0.0356982 0 0.000263902)
(0.0370696 0 0.0003224)
(0.0383013 0 0.000389)
(0.0394278 0 0.000464079)
(0.0404839 0 0.000547916)
(0.0415017 0 0.000640429)
(0.0425104 0 0.000741346)
(0.0435451 0 0.000850398)
(0.0446432 0 0.000967065)
(0.0458359 0 0.0010905)
(0.0471532 0 0.00121958)
(0.0486221 0 0.00135301)
(0.0502644 0 0.00148959)
(0.0520936 0 0.00162853)
(0.0541057 0 0.00177042)
(0.0562745 0 0.00191628)
(0.058525 0 0.00206639)
(0.0606949 0 0.00221486)
(0.0625058 0 0.00232793)
(0.0638887 0 0.00247493)
(0 0 0)
(0.00561878 0 5.72627e-06)
(0.0107397 0 1.23414e-05)
(0.0152574 0 2.08246e-05)
(0.0192376 0 3.20554e-05)
(0.0227405 0 4.67497e-05)
(0.0258212 0 6.55175e-05)
(0.0285303 0 8.89002e-05)
(0.0309145 0 0.00011739)
(0.0330174 0 0.00015144)
(0.0348802 0 0.000191459)
(0.0365418 0 0.000237803)
(0.0380399 0 0.000290761)
(0.0394106 0 0.000350533)
(0.0406893 0 0.000417201)
(0.0419108 0 0.00049071)
(0.0431063 0 0.000570645)
(0.0443086 0 0.000656185)
(0.0455551 0 0.000746474)
(0.0468809 0 0.000840431)
(0.0483175 0 0.000936472)
(0.0498952 0 0.00103264)
(0.051642 0 0.0011267)
(0.0535812 0 0.00121636)
(0.0557293 0 0.00129972)
(0.0580939 0 0.00137646)
(0.0606592 0 0.00144969)
(0.0633664 0 0.00152889)
(0.0660794 0 0.00163317)
(0.0684872 0 0.00176409)
(0.0713925 0 0.00208845)
(0 0 0)
(0.00567814 0 3.61793e-06)
(0.010857 0 8.21205e-06)
(0.0154327 0 1.47249e-05)
(0.0194728 0 2.39434e-05)
(0.0230397 0 3.64889e-05)
(0.0261897 0 5.28765e-05)
(0.0289745 0 7.35432e-05)
(0.0314416 0 9.88628e-05)
(0.0336356 0 0.00012915)
(0.0355983 0 0.000164652)
(0.0373693 0 0.000205537)
(0.0389867 0 0.000251872)
(0.0404868 0 0.000303595)
(0.0419051 0 0.000360485)
(0.0432758 0 0.000422127)
(0.0446297 0 0.000487794)
(0.0460013 0 0.000556205)
(0.0474274 0 0.000625868)
(0.0489401 0 0.000695076)
(0.0505692 0 0.000761499)
(0.0523427 0 0.000822248)
(0.0542856 0 0.000873858)
(0.056418 0 0.00091231)
(0.0587532 0 0.000933033)
(0.0612952 0 0.000931032)
(0.0640237 0 0.000901621)
(0.0668849 0 0.000838412)
(0.0697752 0 0.000726701)
(0.0724771 0 0.000507159)
(0.0789127 0 0.0016807)
(0 0 0)
(0.00508016 0 0)
(0.00967374 0 0)
(0.0136614 0 0)
(0.0170858 0 0)
(0.0199882 0 0)
(0.0224068 0 0)
(0.0243763 0 0)
(0.0259279 0 0)
(0.0270896 0 0)
(0.0278859 0 0)
(0.0283387 0 0)
(0.028467 0 0)
(0.0282878 0 0)
(0.0278165 0 0)
(0.0270671 0 0)
(0.0260536 0 0)
(0.0247902 0 0)
(0.0232927 0 0)
(0.0215795 0 0)
(0.0196729 0 0)
(0.0176007 0 0)
(0.0153975 0 0)
(0.0131064 0 0)
(0.0107808 0 0)
(0.0084861 0 0)
(0.00630225 0 0)
(0.00432702 0 0)
(0.00268444 0 0)
(0.00155283 0 0)
(0 0 0)
(0 0 0)
(0.00508334 0 1.8487e-06)
(0.00968031 0 3.75262e-06)
(0.0136714 0 5.85337e-06)
(0.0170995 0 8.31371e-06)
(0.0200058 0 1.12785e-05)
(0.0224288 0 1.48865e-05)
(0.0244033 0 1.9279e-05)
(0.0259606 0 2.46061e-05)
(0.0271288 0 3.10314e-05)
(0.0279327 0 3.87356e-05)
(0.0283942 0 4.79192e-05)
(0.0285326 0 5.88037e-05)
(0.028365 0 7.16315e-05)
(0.0279069 0 8.66644e-05)
(0.0271726 0 0.000104179)
(0.0261762 0 0.000124462)
(0.024932 0 0.000147796)
(0.0234559 0 0.000174448)
(0.0217662 0 0.000204657)
(0.0198854 0 0.000238608)
(0.0178409 0 0.000276425)
(0.0156674 0 0.00031816)
(0.0134077 0 0.000363805)
(0.0111153 0 0.000413335)
(0.00885614 0 0.000466783)
(0.00671109 0 0.000524323)
(0.00478031 0 0.000586172)
(0.00319106 0 0.000651571)
(0.00212019 0 0.000713917)
(0.000893995 0 0.000850275)
(0 0 0)
(0.00509359 0 3.64395e-06)
(0.00970063 0 7.39853e-06)
(0.0137019 0 1.15441e-05)
(0.0171407 0 1.64022e-05)
(0.0200588 0 2.22588e-05)
(0.0224949 0 2.93875e-05)
(0.0244842 0 3.80666e-05)
(0.0260586 0 4.85914e-05)
(0.0272463 0 6.12834e-05)
(0.0280727 0 7.64977e-05)
(0.0285602 0 9.46277e-05)
(0.0287284 0 0.000116108)
(0.0285952 0 0.000141413)
(0.0281765 0 0.000171057)
(0.0274871 0 0.000205581)
(0.0265414 0 0.000245545)
(0.0253543 0 0.000291502)
(0.0239419 0 0.000343974)
(0.0223225 0 0.000403415)
(0.0205182 0 0.000470168)
(0.0185564 0 0.00054443)
(0.0164711 0 0.000626209)
(0.0143046 0 0.000715308)
(0.0121101 0 0.000811327)
(0.00995378 0 0.00091367)
(0.00791833 0 0.00102147)
(0.00610689 0 0.00113313)
(0.00464936 0 0.00124439)
(0.003713 0 0.00134194)
(0.00268803 0 0.00149607)
(0 0 0)
(0.00511054 0 5.33316e-06)
(0.00973421 0 1.08326e-05)
(0.0137523 0 1.69119e-05)
(0.0172089 0 2.40434e-05)
(0.0201464 0 3.26468e-05)
(0.0226041 0 4.31227e-05)
(0.024618 0 5.58779e-05)
(0.0262204 0 7.13431e-05)
(0.0274403 0 8.99868e-05)
(0.0283038 0 0.000112325)
(0.0288339 0 0.00013893)
(0.0290513 0 0.000170431)
(0.0289745 0 0.000207517)
(0.0286204 0 0.000250931)
(0.0280047 0 0.000301459)
(0.0271425 0 0.000359907)
(0.0260493 0 0.000427074)
(0.0247414 0 0.000503705)
(0.0232376 0 0.000590437)
(0.0215594 0 0.000687724)
(0.0197336 0 0.000795756)
(0.0177931 0 0.000914362)
(0.0157788 0 0.0010429)
(0.0137424 0 0.00118015)
(0.0117489 0 0.00132408)
(0.00987968 0 0.00147152)
(0.00823647 0 0.00161725)
(0.00694444 0 0.00175206)
(0.00615405 0 0.0018586)
(0.00529348 0 0.00198192)
(0 0 0)
(0.00513397 0 6.86562e-06)
(0.00978062 0 1.39537e-05)
(0.0138219 0 2.18023e-05)
(0.017303 0 3.10235e-05)
(0.0202673 0 4.21594e-05)
(0.0227549 0 5.57263e-05)
(0.0248025 0 7.2247e-05)
(0.0264434 0 9.22735e-05)
(0.0277075 0 0.000116405)
(0.0286218 0 0.000145299)
(0.0292105 0 0.000179684)
(0.0294952 0 0.000220359)
(0.0294958 0 0.000268201)
(0.0292301 0 0.000324149)
(0.0287152 0 0.000389197)
(0.0279673 0 0.000464364)
(0.0270027 0 0.000550655)
(0.0258384 0 0.000649002)
(0.0244931 0 0.000760181)
(0.0229882 0 0.000884707)
(0.0213492 0 0.0010227)
(0.0196072 0 0.00117369)
(0.0178006 0 0.00133644)
(0.0159777 0 0.0015086)
(0.0141992 0 0.00168636)
(0.012541 0 0.0018638)
(0.0110976 0 0.00203199)
(0.00998354 0 0.00217777)
(0.00933383 0 0.00228298)
(0.00856826 0 0.00237393)
(0 0 0)
(0.00516355 0 8.19375e-06)
(0.00983921 0 1.66666e-05)
(0.0139098 0 2.60706e-05)
(0.0174218 0 3.71424e-05)
(0.0204198 0 5.05324e-05)
(0.0229449 0 6.68579e-05)
(0.0250349 0 8.67415e-05)
(0.0267241 0 0.000110838)
(0.0280436 0 0.000139856)
(0.0290216 0 0.000174572)
(0.0296834 0 0.000215839)
(0.0300522 0 0.000264598)
(0.0301492 0 0.00032187)
(0.0299939 0 0.000388755)
(0.0296048 0 0.00046641)
(0.0289994 0 0.000556018)
(0.0281954 0 0.000658744)
(0.0272104 0 0.000775659)
(0.0260635 0 0.000907637)
(0.0247755 0 0.00105522)
(0.0233706 0 0.00121841)
(0.0218774 0 0.00139646)
(0.0203303 0 0.00158748)
(0.0187721 0 0.00178808)
(0.0172562 0 0.0019928)
(0.0158489 0 0.00219353)
(0.0146324 0 0.00237876)
(0.0137077 0 0.00253337)
(0.0131981 0 0.00263976)
(0.0124869 0 0.00272194)
(0 0 0)
(0.00519889 0 9.2741e-06)
(0.0099092 0 1.88849e-05)
(0.0140148 0 2.95853e-05)
(0.0175636 0 4.22187e-05)
(0.0206016 0 5.75268e-05)
(0.0231714 0 7.62105e-05)
(0.0253117 0 9.8973e-05)
(0.0270582 0 0.000126551)
(0.0284433 0 0.000159736)
(0.0294963 0 0.000199393)
(0.0302444 0 0.000246472)
(0.0307122 0 0.00030201)
(0.0309227 0 0.000367134)
(0.030897 0 0.000443052)
(0.0306556 0 0.000531031)
(0.0302177 0 0.000632364)
(0.0296024 0 0.000748317)
(0.0288286 0 0.00088005)
(0.0279158 0 0.0010285)
(0.0268843 0 0.0011942)
(0.0257566 0 0.00137708)
(0.0245582 0 0.00157614)
(0.0233188 0 0.00178905)
(0.0220741 0 0.00201165)
(0.0208675 0 0.00223738)
(0.0197525 0 0.00245683)
(0.0187961 0 0.00265736)
(0.0180842 0 0.00282335)
(0.0177318 0 0.00293731)
(0.0170859 0 0.00303838)
(0 0 0)
(0.00523951 0 1.00683e-05)
(0.00998962 0 2.05321e-05)
(0.0141353 0 3.22305e-05)
(0.0177264 0 4.60933e-05)
(0.0208103 0 6.29342e-05)
(0.023431 0 8.3518e-05)
(0.0256288 0 0.000108607)
(0.0274405 0 0.000138994)
(0.0289 0 0.000175529)
(0.0300382 0 0.000219132)
(0.0308839 0 0.000270808)
(0.0314635 0 0.000331652)
(0.0318017 0 0.000402845)
(0.0319221 0 0.000485649)
(0.0318468 0 0.000581378)
(0.0315974 0 0.000691372)
(0.0311947 0 0.000816932)
(0.0306589 0 0.000959251)
(0.0300105 0 0.00111928)
(0.0292697 0 0.00129754)
(0.0284571 0 0.00149393)
(0.0275952 0 0.00170736)
(0.0267078 0 0.00193529)
(0.0258231 0 0.00217323)
(0.0249737 0 0.0024141)
(0.0241975 0 0.00264792)
(0.0235443 0 0.00286174)
(0.0230834 0 0.00303985)
(0.0229204 0 0.00316359)
(0.0223982 0 0.0032947)
(0 0 0)
(0.00528486 0 1.05438e-05)
(0.0100794 0 2.15435e-05)
(0.0142698 0 3.39085e-05)
(0.0179079 0 4.86326e-05)
(0.0210429 0 6.65808e-05)
(0.0237201 0 8.856e-05)
(0.0259814 0 0.000115369)
(0.0278651 0 0.000147831)
(0.0294065 0 0.000186823)
(0.0306383 0 0.000233286)
(0.0315909 0 0.000288243)
(0.0322925 0 0.000352796)
(0.0327702 0 0.000428131)
(0.0330494 0 0.0005155)
(0.0331547 0 0.000616203)
(0.03311 0 0.000731551)
(0.0329383 0 0.000862805)
(0.0326615 0 0.00101113)
(0.0323019 0 0.00117744)
(0.0318795 0 0.00136221)
(0.0314133 0 0.00156537)
(0.0309234 0 0.00178588)
(0.0304273 0 0.00202131)
(0.0299459 0 0.00226727)
(0.029502 0 0.00251661)
(0.0291164 0 0.00275914)
(0.0288177 0 0.00298158)
(0.0286547 0 0.00316752)
(0.0287169 0 0.00329621)
(0.028377 0 0.0034471)
(0 0 0)
(0.00533433 0 1.06744e-05)
(0.0101773 0 2.18671e-05)
(0.0144164 0 3.45413e-05)
(0.0181057 0 4.9731e-05)
(0.021296 0 6.83305e-05)
(0.0240345 0 9.11666e-05)
(0.0263644 0 0.00011905)
(0.0283256 0 0.000152809)
(0.029955 0 0.000193316)
(0.0312869 0 0.000241499)
(0.0323534 0 0.000298354)
(0.0331849 0 0.000364949)
(0.0338103 0 0.000442414)
(0.0342573 0 0.000531937)
(0.0345531 0 0.000634731)
(0.034724 0 0.000752003)
(0.0347961 0 0.000884877)
(0.0347918 0 0.00103443)
(0.0347343 0 0.00120147)
(0.0346464 0 0.00138635)
(0.0345481 0 0.00158906)
(0.0344576 0 0.00180872)
(0.0343881 0 0.00204329)
(0.034351 0 0.00228902)
(0.034359 0 0.002539)
(0.0344176 0 0.00278288)
(0.0345291 0 0.00300677)
(0.0347131 0 0.00319258)
(0.0350304 0 0.00331713)
(0.0349104 0 0.00346764)
(0 0 0)
(0.00538726 0 1.04405e-05)
(0.010282 0 2.14648e-05)
(0.0145732 0 3.40721e-05)
(0.018317 0 4.93127e-05)
(0.0215662 0 6.80875e-05)
(0.0243697 0 9.12209e-05)
(0.0267722 0 0.000119512)
(0.028815 0 0.000153767)
(0.0305368 0 0.000194823)
(0.0319734 0 0.000243561)
(0.0331587 0 0.000300913)
(0.0341249 0 0.000367861)
(0.034903 0 0.000445433)
(0.0355229 0 0.000534686)
(0.0360141 0 0.000636684)
(0.0364055 0 0.000752464)
(0.0367252 0 0.000882889)
(0.0369967 0 0.00102877)
(0.0372437 0 0.00119084)
(0.0374943 0 0.00136935)
(0.0377726 0 0.00156425)
(0.0380963 0 0.00177483)
(0.0384783 0 0.00199944)
(0.03892 0 0.00223535)
(0.0394223 0 0.00247672)
(0.0399768 0 0.00271349)
(0.0405559 0 0.00293113)
(0.0411377 0 0.0031094)
(0.0417359 0 0.00322237)
(0.041853 0 0.00335083)
(0 0 0)
(0.00544293 0 9.83004e-06)
(0.0103921 0 2.03128e-05)
(0.0147379 0 3.24663e-05)
(0.0185389 0 4.73331e-05)
(0.0218497 0 6.57981e-05)
(0.0247209 0 8.86615e-05)
(0.0271987 0 0.000116687)
(0.0293261 0 0.000150635)
(0.0311431 0 0.000191278)
(0.0326871 0 0.000239419)
(0.0339936 0 0.000295886)
(0.0350966 0 0.000361536)
(0.0360288 0 0.000437243)
(0.0368224 0 0.00052388)
(0.0375088 0 0.000622291)
(0.0381194 0 0.000733235)
(0.0386813 0 0.000857275)
(0.0392213 0 0.000994842)
(0.0397691 0 0.00114643)
(0.0403549 0 0.00131223)
(0.0410055 0 0.00149197)
(0.0417408 0 0.001685)
(0.0425754 0 0.00189007)
(0.0435111 0 0.00210541)
(0.0445369 0 0.00232736)
(0.0456282 0 0.00254763)
(0.0467317 0 0.00275242)
(0.0477709 0 0.00292031)
(0.0486863 0 0.0030216)
(0.0490582 0 0.00312649)
(0 0 0)
(0.00550059 0 8.83804e-06)
(0.0105061 0 1.84021e-05)
(0.0149084 0 2.97123e-05)
(0.0187683 0 4.37794e-05)
(0.0221426 0 6.14513e-05)
(0.0250832 0 8.34828e-05)
(0.0276381 0 0.000110582)
(0.0298514 0 0.000143437)
(0.0317647 0 0.000182736)
(0.0334167 0 0.00022917)
(0.0348445 0 0.000283434)
(0.0360835 0 0.000346222)
(0.037168 0 0.000418211)
(0.0381317 0 0.000500045)
(0.0390081 0 0.000592304)
(0.0398297 0 0.000695328)
(0.0406229 0 0.000809332)
(0.041419 0 0.000934439)
(0.0422546 0 0.00107066)
(0.0431597 0 0.0012178)
(0.0441625 0 0.00137527)
(0.045287 0 0.00154232)
(0.0465508 0 0.00171795)
(0.0479626 0 0.00190115)
(0.0495079 0 0.00209083)
(0.0511538 0 0.00228278)
(0.052829 0 0.00246767)
(0.0544001 0 0.00262695)
(0.0557035 0 0.00272601)
(0.0564243 0 0.00282755)
(0 0 0)
(0.00555947 0 7.46694e-06)
(0.0106225 0 1.57383e-05)
(0.0150824 0 2.58208e-05)
(0.0190023 0 3.86705e-05)
(0.0224409 0 5.50781e-05)
(0.0254517 0 7.57343e-05)
(0.028084 0 0.000101272)
(0.0303833 0 0.00013229)
(0.0323924 0 0.000169365)
(0.0341513 0 0.000213058)
(0.0356982 0 0.000263902)
(0.0370696 0 0.0003224)
(0.0383013 0 0.000389)
(0.0394278 0 0.000464079)
(0.0404839 0 0.000547916)
(0.0415017 0 0.000640429)
(0.0425104 0 0.000741346)
(0.0435451 0 0.000850398)
(0.0446432 0 0.000967065)
(0.0458359 0 0.0010905)
(0.0471532 0 0.00121958)
(0.0486221 0 0.00135301)
(0.0502644 0 0.00148959)
(0.0520936 0 0.00162853)
(0.0541057 0 0.00177042)
(0.0562745 0 0.00191628)
(0.058525 0 0.00206639)
(0.0606949 0 0.00221486)
(0.0625058 0 0.00232793)
(0.0638887 0 0.00247493)
(0 0 0)
(0.00561878 0 5.72627e-06)
(0.0107397 0 1.23414e-05)
(0.0152574 0 2.08246e-05)
(0.0192376 0 3.20554e-05)
(0.0227405 0 4.67497e-05)
(0.0258212 0 6.55175e-05)
(0.0285303 0 8.89002e-05)
(0.0309145 0 0.00011739)
(0.0330174 0 0.00015144)
(0.0348802 0 0.000191459)
(0.0365418 0 0.000237803)
(0.0380399 0 0.000290761)
(0.0394106 0 0.000350533)
(0.0406893 0 0.000417201)
(0.0419108 0 0.00049071)
(0.0431063 0 0.000570645)
(0.0443086 0 0.000656185)
(0.0455551 0 0.000746474)
(0.0468809 0 0.000840431)
(0.0483175 0 0.000936472)
(0.0498952 0 0.00103264)
(0.051642 0 0.0011267)
(0.0535812 0 0.00121636)
(0.0557293 0 0.00129972)
(0.0580939 0 0.00137646)
(0.0606592 0 0.00144969)
(0.0633664 0 0.00152889)
(0.0660794 0 0.00163317)
(0.0684872 0 0.00176409)
(0.0713925 0 0.00208845)
(0 0 0)
(0.00567814 0 3.61793e-06)
(0.010857 0 8.21205e-06)
(0.0154327 0 1.47249e-05)
(0.0194728 0 2.39434e-05)
(0.0230397 0 3.64889e-05)
(0.0261897 0 5.28765e-05)
(0.0289745 0 7.35432e-05)
(0.0314416 0 9.88628e-05)
(0.0336356 0 0.00012915)
(0.0355983 0 0.000164652)
(0.0373693 0 0.000205537)
(0.0389867 0 0.000251872)
(0.0404868 0 0.000303595)
(0.0419051 0 0.000360485)
(0.0432758 0 0.000422127)
(0.0446297 0 0.000487794)
(0.0460013 0 0.000556205)
(0.0474274 0 0.000625868)
(0.0489401 0 0.000695076)
(0.0505692 0 0.000761499)
(0.0523427 0 0.000822248)
(0.0542856 0 0.000873858)
(0.056418 0 0.00091231)
(0.0587532 0 0.000933033)
(0.0612952 0 0.000931032)
(0.0640237 0 0.000901621)
(0.0668849 0 0.000838412)
(0.0697752 0 0.000726701)
(0.0724771 0 0.000507159)
(0.0789127 0 0.0016807)
(0 0 0)
(0.00167452 0 0)
(0.00301296 0 0)
(0.00501516 0 0)
(0.00749538 0 0)
(0.0102897 0 0)
(0.0132507 0 0)
(0.0162503 0 0)
(0.0191819 0 0)
(0.0219613 0 0)
(0.0245248 0 0)
(0.0268269 0 0)
(0.0288367 0 0)
(0.0305337 0 0)
(0.0319041 0 0)
(0.0329386 0 0)
(0.03363 0 0)
(0.0339714 0 0)
(0.033955 0 0)
(0.0335715 0 0)
(0.0328092 0 0)
(0.031654 0 0)
(0.0300888 0 0)
(0.0280936 0 0)
(0.0256456 0 0)
(0.0227189 0 0)
(0.0192852 0 0)
(0.015314 0 0)
(0.0107729 0 0)
(0.00562735 0 0)
(0 0 0)
(0.000875884 0 -0.000932618)
(0.00223827 0 -0.000836988)
(0.00353979 0 -0.000815974)
(0.00550603 0 -0.000793829)
(0.00795335 0 -0.000773094)
(0.0107152 0 -0.000751546)
(0.0136428 0 -0.000727154)
(0.0166074 0 -0.000699038)
(0.0195031 0 -0.000667298)
(0.0222467 0 -0.000632635)
(0.0247758 0 -0.000595996)
(0.0270454 0 -0.000558352)
(0.0290253 0 -0.000520574)
(0.0306953 0 -0.000483354)
(0.0320417 0 -0.000447193)
(0.0330553 0 -0.00041242)
(0.0337285 0 -0.000379212)
(0.0340542 0 -0.000347627)
(0.0340245 0 -0.000317629)
(0.0336296 0 -0.000289111)
(0.0328576 0 -0.00026191)
(0.0316942 0 -0.000235824)
(0.030122 0 -0.000210614)
(0.0281208 0 -0.000186013)
(0.0256676 0 -0.000161717)
(0.0227365 0 -0.000137387)
(0.0192989 0 -0.000112637)
(0.0153241 0 -8.70208e-05)
(0.0107796 0 -6.0013e-05)
(0.00563069 0 -3.09777e-05)
(0 0 0)
(0.00263749 0 -0.00169437)
(0.00382682 0 -0.00161285)
(0.00505927 0 -0.00159122)
(0.00694378 0 -0.00156266)
(0.00930584 0 -0.00153035)
(0.0119771 0 -0.00149193)
(0.0148072 0 -0.0014453)
(0.0176685 0 -0.00138998)
(0.0204577 0 -0.00132691)
(0.0230951 0 -0.00125786)
(0.0255214 0 -0.0011849)
(0.0276942 0 -0.00111)
(0.0295851 0 -0.00103492)
(0.0311748 0 -0.000961003)
(0.0324501 0 -0.000889232)
(0.0334013 0 -0.000820236)
(0.0340205 0 -0.000754349)
(0.0342997 0 -0.000691676)
(0.0342303 0 -0.000632135)
(0.0338015 0 -0.00057551)
(0.0330008 0 -0.000521479)
(0.031813 0 -0.000469637)
(0.0302201 0 -0.000419513)
(0.0282012 0 -0.000370574)
(0.0257329 0 -0.000322221)
(0.0227886 0 -0.00027378)
(0.0193395 0 -0.000224484)
(0.0153541 0 -0.000173446)
(0.0107997 0 -0.000119623)
(0.00564088 0 -6.17499e-05)
(0 0 0)
(0.00520397 0 -0.0023491)
(0.00626942 0 -0.0023214)
(0.00745191 0 -0.00231808)
(0.00924857 0 -0.00229893)
(0.0114967 0 -0.00226476)
(0.0140319 0 -0.00221444)
(0.0167076 0 -0.00214774)
(0.0194014 0 -0.00206602)
(0.0220166 0 -0.00197196)
(0.0244801 0 -0.00186885)
(0.0267381 0 -0.00176006)
(0.0287527 0 -0.00164864)
(0.0304983 0 -0.00153715)
(0.0319572 0 -0.00142756)
(0.0331164 0 -0.00132124)
(0.0339661 0 -0.00121909)
(0.0344973 0 -0.00112155)
(0.0347008 0 -0.00102875)
(0.0345665 0 -0.000940552)
(0.0340825 0 -0.000856621)
(0.0332349 0 -0.000776478)
(0.0320072 0 -0.000699522)
(0.0303804 0 -0.000625057)
(0.0283327 0 -0.000552295)
(0.0258396 0 -0.000480349)
(0.0228738 0 -0.000408223)
(0.0194057 0 -0.00033478)
(0.0154032 0 -0.000258702)
(0.0108325 0 -0.000178442)
(0.00565754 0 -9.21184e-05)
(0 0 0)
(0.00842927 0 -0.00297248)
(0.00945781 0 -0.00299735)
(0.0106209 0 -0.00301662)
(0.01234 0 -0.00301131)
(0.0144584 0 -0.00297805)
(0.0168207 0 -0.00291684)
(0.0192903 0 -0.00282999)
(0.0217567 0 -0.00272148)
(0.0241344 0 -0.00259619)
(0.0263603 0 -0.0024592)
(0.0283891 0 -0.00231522)
(0.0301886 0 -0.0021683)
(0.0317372 0 -0.00202172)
(0.0330188 0 -0.00187795)
(0.0340212 0 -0.00173866)
(0.0347336 0 -0.0016049)
(0.0351457 0 -0.00147721)
(0.0352467 0 -0.00135568)
(0.0350247 0 -0.0012401)
(0.0344659 0 -0.00113003)
(0.0335545 0 -0.00102482)
(0.0322726 0 -0.000923679)
(0.0305997 0 -0.000825706)
(0.0285126 0 -0.000729867)
(0.0259856 0 -0.000635006)
(0.0229905 0 -0.000539815)
(0.0194964 0 -0.000442804)
(0.0154704 0 -0.000342245)
(0.0108775 0 -0.0002361)
(0.00568037 0 -0.000121895)
(0 0 0)
(0.0122903 0 -0.00362449)
(0.0133379 0 -0.0036773)
(0.0145052 0 -0.00371109)
(0.016152 0 -0.00371239)
(0.0181231 0 -0.00367449)
(0.0202749 0 -0.00359817)
(0.0224881 0 -0.00348809)
(0.0246696 0 -0.0033508)
(0.0267503 0 -0.00319338)
(0.0286803 0 -0.00302256)
(0.0304246 0 -0.00284424)
(0.0319584 0 -0.00266322)
(0.0332641 0 -0.00248334)
(0.0343281 0 -0.00230737)
(0.0351379 0 -0.00213718)
(0.0356819 0 -0.00197386)
(0.0359479 0 -0.00181795)
(0.035923 0 -0.0016695)
(0.0355931 0 -0.00152821)
(0.034942 0 -0.00139349)
(0.033952 0 -0.00126455)
(0.0326031 0 -0.00114043)
(0.030873 0 -0.00102002)
(0.028737 0 -0.000902062)
(0.0261679 0 -0.000785157)
(0.0231362 0 -0.000667704)
(0.0196098 0 -0.000547878)
(0.0155544 0 -0.000423561)
(0.0109337 0 -0.00029225)
(0.00570892 0 -0.000150901)
(0 0 0)
(0.0168205 0 -0.00433193)
(0.0178926 0 -0.0043794)
(0.0190669 0 -0.00441377)
(0.0206276 0 -0.00440801)
(0.0224199 0 -0.00435463)
(0.0243162 0 -0.00425529)
(0.0262197 0 -0.00411667)
(0.0280608 0 -0.00394757)
(0.0297895 0 -0.00375683)
(0.0313713 0 -0.00355241)
(0.0327833 0 -0.00334098)
(0.0340083 0 -0.0031278)
(0.0350333 0 -0.00291694)
(0.0358462 0 -0.00271133)
(0.0364343 0 -0.00251281)
(0.0367843 0 -0.00232244)