/*--------------------------------*- C++ -*----------------------------------*\
| =========                 |                                                 |
| \\      /  F ield         | OpenFOAM: The Open Source CFD Toolbox           |
|  \\    /   O peration     | Version:  dev                                   |
|   \\  /    A nd           | Web:      www.OpenFOAM.org                      |
|    \\/     M anipulation  |                                                 |
\*---------------------------------------------------------------------------*/
FoamFile
{
    version     2.0;
    format      ascii;
    class       pointVectorField;
    location    "2";
    object      pointDisplacement;
}
// * * * * * * * * * * * * * * * * * * * * * * * * * * * * * * * * * * * * * //

dimensions      [0 1 0 0 0 0 0];

internalField   nonuniform List<vector> 
1034
(
(0 0 0)
(0.028195 0 -0.00389392)
(0.0534498 0 -0.00742222)
(0 0 0)
(0.028195 0 -0.00389392)
(0.0534498 0 -0.00742222)
(0 0 0)
(0.0285536 0 -0.00412751)
(0.0541644 0 -0.00787239)
(0.0762827 0 -0.0112005)
(0 0 0)
(0.0289254 0 -0.00435883)
(0.0549065 0 -0.0083191)
(0.0774021 0 -0.0118461)
(0.0969255 0 -0.0150436)
(0 0 0)
(0.0293072 0 -0.00458625)
(0.0556695 0 -0.00875908)
(0.0785573 0 -0.0124839)
(0.0984911 0 -0.0158696)
(0.115931 0 -0.0190002)
(0 0 0)
(0.0296934 0 -0.00480725)
(0.0564419 0 -0.00918753)
(0.0797271 0 -0.0131061)
(0.100078 0 -0.0166768)
(0.117954 0 -0.0199872)
(0.13375 0 -0.0231048)
(0 0 0)
(0.0300786 0 -0.00501925)
(0.0572134 0 -0.00959953)
(0.0808987 0 -0.0137066)
(0.101676 0 -0.0174598)
(0.119999 0 -0.020949)
(0.136271 0 -0.0242458)
(0.150854 0 -0.027411)
(0 0 0)
(0.0304617 0 -0.00522101)
(0.0579864 0 -0.00999352)
(0.0820773 0 -0.0142837)
(0.103281 0 -0.0182144)
(0.122053 0 -0.0218781)
(0.138797 0 -0.0253496)
(0.153876 0 -0.0286916)
(0.167604 0 -0.0319546)
(0.180263 0 -0.0351838)
(0 0 0)
(0.0308396 0 -0.00541074)
(0.0587533 0 -0.0103657)
(0.0832478 0 -0.0148302)
(0.10487 0 -0.0189298)
(0.124081 0 -0.0227604)
(0.141289 0 -0.0264)
(0.156862 0 -0.0299146)
(0.171111 0 -0.033357)
(0.184317 0 -0.036773)
(0.196737 0 -0.0402054)
(0 0 0)
(0.0312043 0 -0.00558503)
(0.0594927 0 -0.0107084)
(0.0843797 0 -0.0153354)
(0.106419 0 -0.0195953)
(0.126069 0 -0.0235859)
(0.143736 0 -0.0273875)
(0.159792 0 -0.0310679)
(0.174544 0 -0.0346813)
(0.188271 0 -0.0382747)
(0.201224 0 -0.0418911)
(0.21365 0 -0.0455744)
(0.225773 0 -0.0493682)
(0 0 0)
(0.0315516 0 -0.00574126)
(0.0602049 0 -0.0110181)
(0.0854778 0 -0.0157955)
(0.107922 0 -0.0202042)
(0.127998 0 -0.0243441)
(0.146113 0 -0.0282978)
(0.162634 0 -0.0321339)
(0.177866 0 -0.0359073)
(0.192082 0 -0.0396657)
(0.205532 0 -0.0434524)
(0.218455 0 -0.0473119)
(0.231071 0 -0.0512868)
(0.243568 0 -0.0554152)
(0.256135 0 -0.0597405)
(0 0 0)
(0.0318776 0 -0.00587694)
(0.0608816 0 -0.0112899)
(0.086527 0 -0.0162023)
(0.109357 0 -0.0207447)
(0.129845 0 -0.0250214)
(0.148394 0 -0.0291152)
(0.165356 0 -0.0330939)
(0.181037 0 -0.037013)
(0.195706 0 -0.0409207)
(0.209609 0 -0.0448606)
(0.222977 0 -0.048876)
(0.236019 0 -0.0530077)
(0.248907 0 -0.057289)
(0.261821 0 -0.0617625)
(0.274917 0 -0.0664665)
(0 0 0)
(0.0321725 0 -0.00598803)
(0.0615008 0 -0.0115154)
(0.0875058 0 -0.0165453)
(0.110714 0 -0.021207)
(0.131595 0 -0.0256051)
(0.15055 0 -0.0298229)
(0.167925 0 -0.0339279)
(0.184021 0 -0.0379758)
(0.199104 0 -0.0420148)
(0.213411 0 -0.0460872)
(0.227166 0 -0.0502351)
(0.240568 0 -0.0544969)
(0.253769 0 -0.0589004)
(0.266938 0 -0.063485)
(0.280207 0 -0.0682805)
(0.293648 0 -0.0733004)
(0.307351 0 -0.0785704)
(0 0 0)
(0.0324425 0 -0.00607335)
(0.0620732 0 -0.011692)
(0.0884133 0 -0.0168184)
(0.111975 0 -0.0215796)
(0.133225 0 -0.0260804)
(0.152557 0 -0.0304035)
(0.170315 0 -0.0346165)
(0.186795 0 -0.0387751)
(0.202247 0 -0.0429239)
(0.216901 0 -0.0471038)
(0.230986 0 -0.051359)
(0.244681 0 -0.0557223)
(0.258116 0 -0.0602144)
(0.271445 0 -0.0648695)
(0.284782 0 -0.0697107)
(0.298179 0 -0.0747434)
(0.31168 0 -0.0799742)
(0.32529 0 -0.0853972)
(0.338958 0 -0.0909889)
(0 0 0)
(0.0326825 0 -0.00612973)
(0.0625886 0 -0.0118132)
(0.0892376 0 -0.017012)
(0.113127 0 -0.0218503)
(0.134718 0 -0.0264325)
(0.154403 0 -0.0308413)
(0.172507 0 -0.0351406)
(0.189323 0 -0.0393857)
(0.2051 0 -0.0436212)
(0.220053 0 -0.0478842)
(0.234408 0 -0.0522184)
(0.248326 0 -0.0566511)
(0.261916 0 -0.0611966)
(0.275317 0 -0.0658818)
(0.288621 0 -0.0707226)
(0.301858 0 -0.0757148)
(0.31504 0 -0.0808501)
(0.328166 0 -0.0861162)
(0.3412 0 -0.0914912)
(0.354083 0 -0.0969434)
(0.366727 0 -0.102432)
(0 0 0)
(0.0328869 0 -0.00615359)
(0.0630389 0 -0.0118726)
(0.0899693 0 -0.0171171)
(0.114165 0 -0.022009)
(0.136065 0 -0.0266479)
(0.15606 0 -0.0311165)
(0.174475 0 -0.0354783)
(0.191586 0 -0.0397851)
(0.20764 0 -0.0440812)
(0.222846 0 -0.0484015)
(0.237407 0 -0.052783)
(0.251474 0 -0.0572502)
(0.265146 0 -0.0618136)
(0.278529 0 -0.0664877)
(0.291691 0 -0.0712786)
(0.304659 0 -0.0761783)
(0.317446 0 -0.0811757)
(0.33005 0 -0.0862557)
(0.342441 0 -0.0913941)
(0.354563 0 -0.0965588)
(0.366345 0 -0.10171)
(0 0 0)
(0.033049 0 -0.00614099)
(0.0634293 0 -0.0118659)
(0.0906099 0 -0.0171261)
(0.115069 0 -0.0220413)
(0.137249 0 -0.0267106)
(0.157518 0 -0.0312118)
(0.176203 0 -0.0356091)
(0.19357 0 -0.0399511)
(0.209856 0 -0.0442794)
(0.225266 0 -0.0486281)
(0.239974 0 -0.0530255)
(0.254111 0 -0.0574892)
(0.267772 0 -0.0620276)
(0.281041 0 -0.0666463)
(0.293976 0 -0.0713448)
(0.306614 0 -0.0761164)
(0.318969 0 -0.080948)
(0.331036 0 -0.0858209)
(0.342789 0 -0.0907102)
(0.354183 0 -0.0955846)
(0.365157 0 -0.100407)
(0 0 0)
(0.0331706 0 -0.00608938)
(0.063747 0 -0.0117849)
(0.0911528 0 -0.0170296)
(0.115841 0 -0.0219363)
(0.138263 0 -0.0266054)
(0.158773 0 -0.0311106)
(0.177689 0 -0.0355137)
(0.195275 0 -0.0398622)
(0.21175 0 -0.0441933)
(0.2273 0 -0.048536)
(0.242076 0 -0.0529111)
(0.256196 0 -0.057331)
(0.269758 0 -0.0618022)
(0.282843 0 -0.0663276)
(0.295508 0 -0.0709039)
(0.307786 0 -0.0755214)
(0.319691 0 -0.0801654)
(0.331219 0 -0.0848157)
(0.34235 0 -0.0894479)
(0.353053 0 -0.0940336)
(0 0 0)
(0.0332672 0 -0.00599859)
(0.0639903 0 -0.0116232)
(0.0915873 0 -0.0168162)
(0.116484 0 -0.021683)
(0.139113 0 -0.0263188)
(0.159831 0 -0.0307963)
(0.178946 0 -0.0351746)
(0.1967 0 -0.0394962)
(0.213294 0 -0.0437933)
(0.228899 0 -0.0480895)
(0.243661 0 -0.052402)
(0.257701 0 -0.056742)
(0.271116 0 -0.0611137)
(0.283979 0 -0.0655165)
(0.296345 0 -0.0699443)
(0.308244 0 -0.0743857)
(0.319693 0 -0.0788245)
(0.330691 0 -0.0832405)
(0.341222 0 -0.0876094)
(0.351275 0 -0.091909)
(0 0 0)
(0.033336 0 -0.00586493)
(0.0641702 0 -0.0113762)
(0.0919283 0 -0.0164784)
(0.117002 0 -0.0212685)
(0.139808 0 -0.0258362)
(0.160694 0 -0.0302513)
(0.179947 0 -0.0345674)
(0.197794 0 -0.0388223)
(0.21443 0 -0.043045)
(0.230029 0 -0.0472576)
(0.244732 0 -0.0514743)
(0.258654 0 -0.0557028)
(0.271887 0 -0.0599452)
(0.284502 0 -0.0641983)
(0.296551 0 -0.0684541)
(0.308065 0 -0.0727001)
(0.319063 0 -0.0769197)
(0.329548 0 -0.0810927)
(0.339512 0 -0.0851961)
(0.348957 0 -0.0892124)
(0 0 0)
(0.0333939 0 -0.00568784)
(0.0643147 0 -0.0110421)
(0.0921896 0 -0.0160095)
(0.11739 0 -0.0206801)
(0.140322 0 -0.0251395)
(0.161315 0 -0.0294514)
(0.180637 0 -0.0336639)
(0.198519 0 -0.0378135)
(0.215156 0 -0.0419264)
(0.230711 0 -0.0460209)
(0.245321 0 -0.0501087)
(0.259095 0 -0.0541949)
(0.272123 0 -0.0582794)
(0.284473 0 -0.0623574)
(0.296197 0 -0.0664196)
(0.307327 0 -0.070453)
(0.317887 0 -0.0744412)
(0.327884 0 -0.0783651)
(0.33732 0 -0.0822038)
(0.346204 0 -0.0859416)
(0 0 0)
(0.033443 0 -0.00546448)
(0.0644046 0 -0.0106122)
(0.0923351 0 -0.0153959)
(0.117609 0 -0.0199022)
(0.14061 0 -0.024209)
(0.161655 0 -0.0283756)
(0.181009 0 -0.0324458)
(0.198894 0 -0.0364526)
(0.215499 0 -0.040419)
(0.23098 0 -0.0443606)
(0.24547 0 -0.0482864)
(0.259075 0 -0.0521995)
(0.271882 0 -0.0560982)
(0.283959 0 -0.0599764)
(0.295357 0 -0.0638243)
(0.306113 0 -0.0676287)
(0.316252 0 -0.071374)
(0.32579 0 -0.0750427)
(0.334736 0 -0.0786158)
(0.343103 0 -0.0820793)
(0 0 0)
(0.0334404 0 -0.00518603)
(0.0643898 0 -0.0100747)
(0.0923291 0 -0.0146257)
(0.117635 0 -0.0189214)
(0.140668 0 -0.023032)
(0.161734 0 -0.027011)
(0.181089 0 -0.0308982)
(0.198948 0 -0.0347228)
(0.215494 0 -0.038505)
(0.230879 0 -0.0422578)
(0.24523 0 -0.0459879)
(0.258652 0 -0.0496968)
(0.271229 0 -0.0533815)
(0.283031 0 -0.0570352)
(0.29411 0 -0.0606479)
(0.304505 0 -0.0642067)
(0.314247 0 -0.0676972)
(0.323356 0 -0.0711031)
(0.331848 0 -0.0744079)
(0.339742 0 -0.0775984)
(0 0 0)
(0.0333667 0 -0.00484776)
(0.0642635 0 -0.0094243)
(0.0921806 0 -0.0136932)
(0.117484 0 -0.0177302)
(0.140519 0 -0.0215982)
(0.161579 0 -0.0253452)
(0.180909 0 -0.0290066)
(0.19872 0 -0.0326079)
(0.215186 0 -0.0361666)
(0.230458 0 -0.0396932)
(0.244658 0 -0.0431926)
(0.257889 0 -0.0466651)
(0.270236 0 -0.0501067)
(0.281768 0 -0.0535103)
(0.292539 0 -0.0568658)
(0.302593 0 -0.0601612)
(0.311963 0 -0.0633831)
(0.320675 0 -0.0665169)
(0.328751 0 -0.0695478)
(0.336213 0 -0.0724639)
(0 0 0)
(0.0332384 0 -0.00444986)
(0.0640444 0 -0.00865872)
(0.0919098 0 -0.0125933)
(0.117184 0 -0.0163213)
(0.140195 0 -0.0198983)
(0.161224 0 -0.0233665)
(0.18051 0 -0.0267569)
(0.198255 0 -0.0300917)
(0.214628 0 -0.0333854)
(0.229776 0 -0.0366466)
(0.243819 0 -0.0398786)
(0.25686 0 -0.0430805)
(0.268981 0 -0.046248)
(0.280254 0 -0.0493737)
(0.290734 0 -0.0524481)
(0.300469 0 -0.0554599)
(0.309496 0 -0.0583969)
(0.317845 0 -0.061246)
(0.325542 0 -0.0639944)
(0.332614 0 -0.066631)
(0 0 0)
(0.0330703 0 -0.00399215)
(0.0637542 0 -0.00777608)
(0.0915426 0 -0.0113219)
(0.116764 0 -0.0146883)
(0.139732 0 -0.0179234)
(0.160714 0 -0.0210637)
(0.179941 0 -0.0241357)
(0.197607 0 -0.027158)
(0.21388 0 -0.0301428)
(0.2289 0 -0.0330966)
(0.242788 0 -0.0360216)
(0.255642 0 -0.0389161)
(0.267549 0 -0.0417755)
(0.278579 0 -0.0445927)
(0.28879 0 -0.0473588)
(0.298233 0 -0.0500634)
(0.306947 0 -0.0526954)
(0.314968 0 -0.0552435)
(0.322326 0 -0.0576962)
(0.329051 0 -0.0600437)
(0 0 0)
(0.0328766 0 -0.00347436)
(0.0634164 0 -0.00677487)
(0.0911096 0 -0.0098756)
(0.116263 0 -0.0128257)
(0.139173 0 -0.0156658)
(0.160097 0 -0.0184264)
(0.179256 0 -0.0211295)
(0.19684 0 -0.0237905)
(0.21301 0 -0.0264191)
(0.227905 0 -0.0290203)
(0.241643 0 -0.0315952)
(0.254324 0 -0.0341418)
(0.266032 0 -0.0366553)
(0.27684 0 -0.0391291)
(0.286808 0 -0.0415551)
(0.295989 0 -0.043924)
(0.304425 0 -0.0462261)
(0.312157 0 -0.0484514)
(0.319216 0 -0.0505901)
(0.325636 0 -0.0526334)
(0 0 0)
(0.0326721 0 -0.00289629)
(0.0630575 0 -0.005654)
(0.0906462 0 -0.00825165)
(0.115723 0 -0.0107288)
(0.138569 0 -0.0131183)
(0.15943 0 -0.0154445)
(0.178519 0 -0.0177252)
(0.19602 0 -0.0199726)
(0.212093 0 -0.022194)
(0.226871 0 -0.0243932)
(0.240473 0 -0.0265704)
(0.252997 0 -0.0287234)
(0.264529 0 -0.0308478)
(0.275142 0 -0.0329378)
(0.284898 0 -0.0349861)
(0.293851 0 -0.0369848)
(0.302048 0 -0.0389254)
(0.30953 0 -0.0407995)
(0.316333 0 -0.042599)
(0.322492 0 -0.0443161)
(0 0 0)
(0.032473 0 -0.00225797)
(0.0627074 0 -0.00441287)
(0.090193 0 -0.00644823)
(0.115194 0 -0.00839391)
(0.137976 0 -0.0102746)
(0.158776 0 -0.012109)
(0.1778 0 -0.0139103)
(0.195227 0 -0.0156876)
(0.211212 0 -0.0174463)
(0.22589 0 -0.0191888)
(0.239374 0 -0.020915)
(0.251766 0 -0.0226228)
(0.263149 0 -0.0243085)
(0.273598 0 -0.0259669)
(0.283177 0 -0.0275923)
(0.291942 0 -0.029178)
(0.299942 0 -0.0307173)
(0.307219 0 -0.0322034)
(0.313812 0 -0.0336296)
(0.319758 0 -0.0349897)
(0 0 0)
(0.0322985 0 -0.00155971)
(0.0624009 0 -0.00305156)
(0.0897969 0 -0.00446443)
(0.114732 0 -0.00581836)
(0.13746 0 -0.00713001)
(0.158208 0 -0.0084119)
(0.177178 0 -0.00967299)
(0.194545 0 -0.0109193)
(0.21046 0 -0.0121543)
(0.225057 0 -0.0133795)
(0.238451 0 -0.0145946)
(0.250738 0 -0.0157978)
(0.262007 0 -0.0169864)
(0.272331 0 -0.0181566)
(0.281775 0 -0.019304)
(0.290397 0 -0.020424)
(0.298246 0 -0.0215115)
(0.305367 0 -0.0225615)
(0.311801 0 -0.0235694)
(0.317586 0 -0.0245304)
(0 0 0)
(0.0321723 0 -0.000802263)
(0.0621805 0 -0.00157105)
(0.0895138 0 -0.00230076)
(0.114403 0 -0.0030015)
(0.137093 0 -0.00368168)
(0.157807 0 -0.00434763)
(0.17674 0 -0.00500389)
(0.194066 0 -0.00565347)
(0.209935 0 -0.00629811)
(0.22448 0 -0.00693847)
(0.237814 0 -0.00757431)
(0.250035 0 -0.00820465)
(0.261229 0 -0.00882794)
(0.271473 0 -0.00944214)
(0.28083 0 -0.0100449)
(0.289359 0 -0.0106336)
(0.297112 0 -0.0112057)
(0.304134 0 -0.0117583)
(0.310466 0 -0.0122889)
(0.316147 0 -0.012795)
(0 0 0)
(0.0321436 0 0)
(0.0621157 0 0)
(0.0894238 0 0)
(0.114295 0 0)
(0.136969 0 0)
(0.157669 0 0)
(0.176587 0 0)
(0.193898 0 0)
(0.20975 0 0)
(0.224276 0 0)
(0.237588 0 0)
(0.249785 0 0)
(0.260953 0 0)
(0.271167 0 0)
(0.280494 0 0)
(0.288991 0 0)
(0.296709 0 0)
(0.303696 0 0)
(0.309992 0 0)
(0.315637 0 0)
(0 0 0)
(0.0285536 0 -0.00412751)
(0.0541644 0 -0.00787239)
(0.0762827 0 -0.0112005)
(0 0 0)
(0.0289254 0 -0.00435883)
(0.0549065 0 -0.0083191)
(0.0774021 0 -0.0118461)
(0.0969255 0 -0.0150436)
(0 0 0)
(0.0293072 0 -0.00458625)
(0.0556695 0 -0.00875908)
(0.0785573 0 -0.0124839)
(0.0984911 0 -0.0158696)
(0.115931 0 -0.0190002)
(0 0 0)
(0.0296934 0 -0.00480725)
(0.0564419 0 -0.00918753)
(0.0797271 0 -0.0131061)
(0.100078 0 -0.0166768)
(0.117954 0 -0.0199872)
(0.13375 0 -0.0231048)
(0 0 0)
(0.0300786 0 -0.00501925)
(0.0572134 0 -0.00959953)
(0.0808987 0 -0.0137066)
(0.101676 0 -0.0174598)
(0.119999 0 -0.020949)
(0.136271 0 -0.0242458)
(0.150854 0 -0.027411)
(0 0 0)
(0.0304617 0 -0.00522101)
(0.0579864 0 -0.00999352)
(0.0820773 0 -0.0142837)
(0.103281 0 -0.0182144)
(0.122053 0 -0.0218781)
(0.138797 0 -0.0253496)
(0.153876 0 -0.0286916)
(0.167604 0 -0.0319546)
(0.180263 0 -0.0351838)
(0 0 0)
(0.0308396 0 -0.00541074)
(0.0587533 0 -0.0103657)
(0.0832478 0 -0.0148302)
(0.10487 0 -0.0189298)
(0.124081 0 -0.0227604)
(0.141289 0 -0.0264)
(0.156862 0 -0.0299146)
(0.171111 0 -0.033357)
(0.184317 0 -0.036773)
(0.196737 0 -0.0402054)
(0 0 0)
(0.0312043 0 -0.00558503)
(0.0594927 0 -0.0107084)
(0.0843797 0 -0.0153354)
(0.106419 0 -0.0195953)
(0.126069 0 -0.0235859)
(0.143736 0 -0.0273875)
(0.159792 0 -0.0310679)
(0.174544 0 -0.0346813)
(0.188271 0 -0.0382747)
(0.201224 0 -0.0418911)
(0.21365 0 -0.0455744)
(0.225773 0 -0.0493682)
(0 0 0)
(0.0315516 0 -0.00574126)
(0.0602049 0 -0.0110181)
(0.0854778 0 -0.0157955)
(0.107922 0 -0.0202042)
(0.127998 0 -0.0243441)
(0.146113 0 -0.0282978)
(0.162634 0 -0.0321339)
(0.177866 0 -0.0359073)
(0.192082 0 -0.0396657)
(0.205532 0 -0.0434524)
(0.218455 0 -0.0473119)
(0.231071 0 -0.0512868)
(0.243568 0 -0.0554152)
(0.256135 0 -0.0597405)
(0 0 0)
(0.0318776 0 -0.00587694)
(0.0608816 0 -0.0112899)
(0.086527 0 -0.0162023)
(0.109357 0 -0.0207447)
(0.129845 0 -0.0250214)
(0.148394 0 -0.0291152)
(0.165356 0 -0.0330939)
(0.181037 0 -0.037013)
(0.195706 0 -0.0409207)
(0.209609 0 -0.0448606)
(0.222977 0 -0.048876)
(0.236019 0 -0.0530077)
(0.248907 0 -0.057289)
(0.261821 0 -0.0617625)
(0.274917 0 -0.0664665)
(0 0 0)
(0.0321725 0 -0.00598803)
(0.0615008 0 -0.0115154)
(0.0875058 0 -0.0165453)
(0.110714 0 -0.021207)
(0.131595 0 -0.0256051)
(0.15055 0 -0.0298229)
(0.167925 0 -0.0339279)
(0.184021 0 -0.0379758)
(0.199104 0 -0.0420148)
(0.213411 0 -0.0460872)
(0.227166 0 -0.0502351)
(0.240568 0 -0.0544969)
(0.253769 0 -0.0589004)
(0.266938 0 -0.063485)
(0.280207 0 -0.0682805)
(0.293648 0 -0.0733004)
(0.307351 0 -0.0785704)
(0 0 0)
(0.0324425 0 -0.00607335)
(0.0620732 0 -0.011692)
(0.0884133 0 -0.0168184)
(0.111975 0 -0.0215796)
(0.133225 0 -0.0260804)
(0.152557 0 -0.0304035)
(0.170315 0 -0.0346165)
(0.186795 0 -0.0387751)
(0.202247 0 -0.0429239)
(0.216901 0 -0.0471038)
(0.230986 0 -0.051359)
(0.244681 0 -0.0557223)
(0.258116 0 -0.0602144)
(0.271445 0 -0.0648695)
(0.284782 0 -0.0697107)
(0.298179 0 -0.0747434)
(0.31168 0 -0.0799742)
(0.32529 0 -0.0853972)
(0.338958 0 -0.0909889)
(0 0 0)
(0.0326825 0 -0.00612973)
(0.0625886 0 -0.0118132)
(0.0892376 0 -0.017012)
(0.113127 0 -0.0218503)
(0.134718 0 -0.0264325)
(0.154403 0 -0.0308413)
(0.172507 0 -0.0351406)
(0.189323 0 -0.0393857)
(0.2051 0 -0.0436212)
(0.220053 0 -0.0478842)
(0.234408 0 -0.0522184)
(0.248326 0 -0.0566511)
(0.261916 0 -0.0611966)
(0.275317 0 -0.0658818)
(0.288621 0 -0.0707226)
(0.301858 0 -0.0757148)
(0.31504 0 -0.0808501)
(0.328166 0 -0.0861162)
(0.3412 0 -0.0914912)
(0.354083 0 -0.0969434)
(0.366727 0 -0.102432)
(0 0 0)
(0.0328869 0 -0.00615359)
(0.0630389 0 -0.0118726)
(0.0899693 0 -0.0171171)
(0.114165 0 -0.022009)
(0.136065 0 -0.0266479)
(0.15606 0 -0.0311165)
(0.174475 0 -0.0354783)
(0.191586 0 -0.0397851)
(0.20764 0 -0.0440812)
(0.222846 0 -0.0484015)
(0.237407 0 -0.052783)
(0.251474 0 -0.0572502)
(0.265146 0 -0.0618136)
(0.278529 0 -0.0664877)
(0.291691 0 -0.0712786)
(0.304659 0 -0.0761783)
(0.317446 0 -0.0811757)
(0.33005 0 -0.0862557)
(0.342441 0 -0.0913941)
(0.354563 0 -0.0965588)
(0.366345 0 -0.10171)
(0 0 0)
(0.033049 0 -0.00614099)
(0.0634293 0 -0.0118659)
(0.0906099 0 -0.0171261)
(0.115069 0 -0.0220413)
(0.137249 0 -0.0267106)
(0.157518 0 -0.0312118)
(0.176203 0 -0.0356091)
(0.19357 0 -0.0399511)
(0.209856 0 -0.0442794)
(0.225266 0 -0.0486281)
(0.239974 0 -0.0530255)
(0.254111 0 -0.0574892)
(0.267772 0 -0.0620276)
(0.281041 0 -0.0666463)
(0.293976 0 -0.0713448)
(0.306614 0 -0.0761164)
(0.318969 0 -0.080948)
(0.331036 0 -0.0858209)
(0.342789 0 -0.0907102)
(0.354183 0 -0.0955846)
(0.365157 0 -0.100407)
(0 0 0)
(0.0331706 0 -0.00608938)
(0.063747 0 -0.0117849)
(0.0911528 0 -0.0170296)
(0.115841 0 -0.0219363)
(0.138263 0 -0.0266054)
(0.158773 0 -0.0311106)
(0.177689 0 -0.0355137)
(0.195275 0 -0.0398622)
(0.21175 0 -0.0441933)
(0.2273 0 -0.048536)
(0.242076 0 -0.0529111)
(0.256196 0 -0.057331)
(0.269758 0 -0.0618022)
(0.282843 0 -0.0663276)
(0.295508 0 -0.0709039)
(0.307786 0 -0.0755214)
(0.319691 0 -0.0801654)
(0.331219 0 -0.0848157)
(0.34235 0 -0.0894479)
(0.353053 0 -0.0940336)
(0 0 0)
(0.0332672 0 -0.00599859)
(0.0639903 0 -0.0116232)
(0.0915873 0 -0.0168162)
(0.116484 0 -0.021683)
(0.139113 0 -0.0263188)
(0.159831 0 -0.0307963)
(0.178946 0 -0.0351746)
(0.1967 0 -0.0394962)
(0.213294 0 -0.0437933)
(0.228899 0 -0.0480895)
(0.243661 0 -0.052402)
(0.257701 0 -0.056742)
(0.271116 0 -0.0611137)
(0.283979 0 -0.0655165)
(0.296345 0 -0.0699443)
(0.308244 0 -0.0743857)
(0.319693 0 -0.0788245)
(0.330691 0 -0.0832405)
(0.341222 0 -0.0876094)
(0.351275 0 -0.091909)
(0 0 0)
(0.033336 0 -0.00586493)
(0.0641702 0 -0.0113762)
(0.0919283 0 -0.0164784)
(0.117002 0 -0.0212685)
(0.139808 0 -0.0258362)
(0.160694 0 -0.0302513)
(0.179947 0 -0.0345674)
(0.197794 0 -0.0388223)
(0.21443 0 -0.043045)
(0.230029 0 -0.0472576)
(0.244732 0 -0.0514743)
(0.258654 0 -0.0557028)
(0.271887 0 -0.0599452)
(0.284502 0 -0.0641983)
(0.296551 0 -0.0684541)
(0.308065 0 -0.0727001)
(0.319063 0 -0.0769197)
(0.329548 0 -0.0810927)
(0.339512 0 -0.0851961)
(0.348957 0 -0.0892124)
(0 0 0)
(0.0333939 0 -0.00568784)
(0.0643147 0 -0.0110421)
(0.0921896 0 -0.0160095)
(0.11739 0 -0.0206801)
(0.140322 0 -0.0251395)
(0.161315 0 -0.0294514)
(0.180637 0 -0.0336639)
(0.198519 0 -0.0378135)
(0.215156 0 -0.0419264)
(0.230711 0 -0.0460209)
(0.245321 0 -0.0501087)
(0.259095 0 -0.0541949)
(0.272123 0 -0.0582794)
(0.284473 0 -0.0623574)
(0.296197 0 -0.0664196)
(0.307327 0 -0.070453)
(0.317887 0 -0.0744412)
(0.327884 0 -0.0783651)
(0.33732 0 -0.0822038)
(0.346204 0 -0.0859416)
(0 0 0)
(0.033443 0 -0.00546448)
(0.0644046 0 -0.0106122)
(0.0923351 0 -0.0153959)
(0.117609 0 -0.0199022)
(0.14061 0 -0.024209)
(0.161655 0 -0.0283756)
(0.181009 0 -0.0324458)
(0.198894 0 -0.0364526)
(0.215499 0 -0.040419)
(0.23098 0 -0.0443606)
(0.24547 0 -0.0482864)
(0.259075 0 -0.0521995)
(0.271882 0 -0.0560982)
(0.283959 0 -0.0599764)
(0.295357 0 -0.0638243)
(0.306113 0 -0.0676287)
(0.316252 0 -0.071374)
(0.32579 0 -0.0750427)
(0.334736 0 -0.0786158)
(0.343103 0 -0.0820793)
(0 0 0)
(0.0334404 0 -0.00518603)
(0.0643898 0 -0.0100747)
(0.0923291 0 -0.0146257)
(0.117635 0 -0.0189214)
(0.140668 0 -0.023032)
(0.161734 0 -0.027011)
(0.181089 0 -0.0308982)
(0.198948 0 -0.0347228)
(0.215494 0 -0.038505)
(0.230879 0 -0.0422578)
(0.24523 0 -0.0459879)
(0.258652 0 -0.0496968)
(0.271229 0 -0.0533815)
(0.283031 0 -0.0570352)
(0.29411 0 -0.0606479)
(0.304505 0 -0.0642067)
(0.314247 0 -0.0676972)
(0.323356 0 -0.0711031)
(0.331848 0 -0.0744079)
(0.339742 0 -0.0775984)
(0 0 0)
(0.0333667 0 -0.00484776)
(0.0642635 0 -0.0094243)
(0.0921806 0 -0.0136932)
(0.117484 0 -0.0177302)
(0.140519 0 -0.0215982)
(0.161579 0 -0.0253452)
(0.180909 0 -0.0290066)
(0.19872 0 -0.0326079)
(0.215186 0 -0.0361666)
(0.230458 0 -0.0396932)
(0.244658 0 -0.0431926)
(0.257889 0 -0.0466651)
(0.270236 0 -0.0501067)
(0.281768 0 -0.0535103)
(0.292539 0 -0.0568658)
(0.302593 0 -0.0601612)
(0.311963 0 -0.0633831)
(0.320675 0 -0.0665169)
(0.328751 0 -0.0695478)
(0.336213 0 -0.0724639)
(0 0 0)
(0.0332384 0 -0.00444986)
(0.0640444 0 -0.00865872)
(0.0919098 0 -0.0125933)
(0.117184 0 -0.0163213)
(0.140195 0 -0.0198983)
(0.161224 0 -0.0233665)
(0.18051 0 -0.0267569)
(0.198255 0 -0.0300917)
(0.214628 0 -0.0333854)
(0.229776 0 -0.0366466)
(0.243819 0 -0.0398786)
(0.25686 0 -0.0430805)
(0.268981 0 -0.046248)
(0.280254 0 -0.0493737)
(0.290734 0 -0.0524481)
(0.300469 0 -0.0554599)
(0.309496 0 -0.0583969)
(0.317845 0 -0.061246)
(0.325542 0 -0.0639944)
(0.332614 0 -0.066631)
(0 0 0)
(0.0330703 0 -0.00399215)
(0.0637542 0 -0.00777608)
(0.0915426 0 -0.0113219)
(0.116764 0 -0.0146883)
(0.139732 0 -0.0179234)
(0.160714 0 -0.0210637)
(0.179941 0 -0.0241357)
(0.197607 0 -0.027158)
(0.21388 0 -0.0301428)
(0.2289 0 -0.0330966)
(0.242788 0 -0.0360216)
(0.255642 0 -0.0389161)
(0.267549 0 -0.0417755)
(0.278579 0 -0.0445927)
(0.28879 0 -0.0473588)
(0.298233 0 -0.0500634)
(0.306947 0 -0.0526954)
(0.314968 0 -0.0552435)
(0.322326 0 -0.0576962)
(0.329051 0 -0.0600437)
(0 0 0)
(0.0328766 0 -0.00347436)
(0.0634164 0 -0.00677487)
(0.0911096 0 -0.0098756)
(0.116263 0 -0.0128257)
(0.139173 0 -0.0156658)
(0.160097 0 -0.0184264)
(0.179256 0 -0.0211295)
(0.19684 0 -0.0237905)
(0.21301 0 -0.0264191)
(0.227905 0 -0.0290203)
(0.241643 0 -0.0315952)
(0.254324 0 -0.0341418)
(0.266032 0 -0.0366553)
(0.27684 0 -0.0391291)
(0.286808 0 -0.0415551)
(0.295989 0 -0.043924)
(0.304425 0 -0.0462261)
(0.312157 0 -0.0484514)
(0.319216 0 -0.0505901)
(0.325636 0 -0.0526334)
(0 0 0)
(0.0326721 0 -0.00289629)
(0.0630575 0 -0.005654)
(0.0906462 0 -0.00825165)
(0.115723 0 -0.0107288)
(0.138569 0 -0.0131183)
(0.15943 0 -0.0154445)
(0.178519 0 -0.0177252)
(0.19602 0 -0.0199726)
(0.212093 0 -0.022194)
(0.226871 0 -0.0243932)
(0.240473 0 -0.0265704)
(0.252997 0 -0.0287234)
(0.264529 0 -0.0308478)
(0.275142 0 -0.0329378)
(0.284898 0 -0.0349861)
(0.293851 0 -0.0369848)
(0.302048 0 -0.0389254)
(0.30953 0 -0.0407995)
(0.316333 0 -0.042599)
(0.322492 0 -0.0443161)
(0 0 0)
(0.032473 0 -0.00225797)
(0.0627074 0 -0.00441287)
(0.090193 0 -0.00644823)
(0.115194 0 -0.00839391)
(0.137976 0 -0.0102746)
(0.158776 0 -0.012109)
(0.1778 0 -0.0139103)
(0.195227 0 -0.0156876)
(0.211212 0 -0.0174463)
(0.22589 0 -0.0191888)
(0.239374 0 -0.020915)
(0.251766 0 -0.0226228)
(0.263149 0 -0.0243085)
(0.273598 0 -0.0259669)
(0.283177 0 -0.0275923)
(0.291942 0 -0.029178)
(0.299942 0 -0.0307173)
(0.307219 0 -0.0322034)
(0.313812 0 -0.0336296)
(0.319758 0 -0.0349897)
(0 0 0)
(0.0322985 0 -0.00155971)
(0.0624009 0 -0.00305156)
(0.0897969 0 -0.00446443)
(0.114732 0 -0.00581836)
(0.13746 0 -0.00713001)
(0.158208 0 -0.0084119)
(0.177178 0 -0.00967299)
(0.194545 0 -0.0109193)
(0.21046 0 -0.0121543)
(0.225057 0 -0.0133795)
(0.238451 0 -0.0145946)
(0.250738 0 -0.0157978)
(0.262007 0 -0.0169864)
(0.272331 0 -0.0181566)
(0.281775 0 -0.019304)
(0.290397 0 -0.020424)
(0.298246 0 -0.0215115)
(0.305367 0 -0.0225615)
(0.311801 0 -0.0235694)
(0.317586 0 -0.0245304)
(0 0 0)
(0.0321723 0 -0.000802263)
(0.0621805 0 -0.00157105)
(0.0895138 0 -0.00230076)
(0.114403 0 -0.0030015)
(0.137093 0 -0.00368168)
(0.157807 0 -0.00434763)
(0.17674 0 -0.00500389)
(0.194066 0 -0.00565347)
(0.209935 0 -0.00629811)
(0.22448 0 -0.00693847)
(0.237814 0 -0.00757431)
(0.250035 0 -0.00820465)
(0.261229 0 -0.00882794)
(0.271473 0 -0.00944214)
(0.28083 0 -0.0100449)
(0.289359 0 -0.0106336)
(0.297112 0 -0.0112057)
(0.304134 0 -0.0117583)
(0.310466 0 -0.0122889)
(0.316147 0 -0.012795)
(0 0 0)
(0.0321436 0 0)
(0.0621157 0 0)
(0.0894238 0 0)
(0.114295 0 0)
(0.136969 0 0)
(0.157669 0 0)
(0.176587 0 0)
(0.193898 0 0)
(0.20975 0 0)
(0.224276 0 0)
(0.237588 0 0)
(0.249785 0 0)
(0.260953 0 0)
(0.271167 0 0)
(0.280494 0 0)
(0.288991 0 0)
(0.296709 0 0)
(0.303696 0 0)
(0.309992 0 0)
(0.315637 0 0)
)
;

boundaryField
{
    inlet
    {
        type            fixedValue;
        value           uniform (0 0 0);
    }
    outlet
    {
        type            fixedValue;
        value           nonuniform 0();
    }
    flap
    {
        type            fixedValue;
        value           nonuniform 0();
    }
    upperWall
    {
        type            slip;
    }
    lowerWall
    {
        type            slip;
    }
    frontAndBack
    {
        type            empty;
    }
    procBoundary0to1
    {
        type            processor;
    }
    procBoundary0to3
    {
        type            processor;
    }
}


// ************************************************************************* //
