/*--------------------------------*- C++ -*----------------------------------*\
| =========                 |                                                 |
| \\      /  F ield         | OpenFOAM: The Open Source CFD Toolbox           |
|  \\    /   O peration     | Version:  dev                                   |
|   \\  /    A nd           | Web:      www.OpenFOAM.org                      |
|    \\/     M anipulation  |                                                 |
\*---------------------------------------------------------------------------*/
FoamFile
{
    version     2.0;
    format      ascii;
    class       surfaceVectorField;
    location    "2";
    object      Uf;
}
// * * * * * * * * * * * * * * * * * * * * * * * * * * * * * * * * * * * * * //

dimensions      [0 1 -1 0 0 0 0];

internalField   nonuniform List<vector> 
879
(
(9.99317 2.731e-19 0.117055)
(9.9976 2.81999e-19 0.0797789)
(9.9888 0 0.157138)
(9.99387 0 0.121296)
(9.99797 -2.5742e-19 0.0824908)
(9.98233 2.98495e-19 0.199569)
(9.99009 0 0.162509)
(9.97707 2.94282e-19 0.241364)
(9.99462 -2.55565e-19 0.125165)
(9.99836 -2.70329e-19 0.0849335)
(9.98453 -1.50578e-21 0.205953)
(9.99147 -8.1359e-21 0.167348)
(9.97024 -1.15009e-19 0.286317)
(9.9802 1.39183e-20 0.248551)
(9.96518 -1.12681e-19 0.330312)
(9.99542 -1.48514e-20 0.128605)
(9.99876 4.77983e-19 0.087074)
(9.98685 7.92758e-21 0.211622)
(9.99289 -8.3415e-21 0.171591)
(9.97474 1.5333e-20 0.294166)
(9.98346 1.42892e-20 0.254844)
(9.9595 -3.03501e-19 0.377975)
(9.97098 0 0.33861)
(9.95586 -2.30083e-19 0.424314)
(9.99624 4.81195e-19 0.13157)
(9.99917 2.68667e-19 0.0888855)
(9.98923 -1.56457e-21 0.216505)
(9.99435 2.3539e-19 0.175184)
(9.97936 -1.50056e-21 0.300913)
(9.98679 -2.88294e-19 0.260166)
(9.967 7.37342e-20 0.386537)
(9.9769 3.30332e-20 0.345603)
(9.95253 1.46937e-19 0.474686)
(9.96504 7.32675e-20 0.432914)
(9.95156 7.55438e-20 0.523296)
(9.99708 1.65008e-20 0.134024)
(9.99958 -2.33762e-19 0.0903428)
(9.99166 -6.3272e-20 0.220547)
(9.99585 1.94064e-20 0.178082)
(9.98407 -2.50373e-19 0.306481)
(9.99019 -3.09377e-19 0.264451)
(9.97465 3.2819e-20 0.393563)
(9.98294 3.38847e-20 0.3512)
(9.96377 0 0.483084)
(9.97437 -3.30686e-19 0.439736)
(9.95181 -2.27035e-19 0.576162)
(9.96482 -7.37005e-23 0.531236)
(9.95467 -1.26631e-20 0.62674)
(9.99794 -2.29003e-19 0.13593)
(9.99999 -6.87937e-21 0.0914175)
(9.99414 -2.35815e-19 0.223687)
(9.99737 -2.06106e-19 0.18023)
(9.98887 -1.52461e-20 0.310788)
(9.99365 -3.06136e-20 0.267621)
(9.98243 -3.41344e-19 0.398942)
(9.98907 -2.46252e-19 0.355306)
(9.97517 -3.29095e-19 0.489425)
(9.98381 -8.21483e-20 0.444663)
(9.96747 2.19825e-19 0.583329)
(9.97818 -1.97825e-19 0.53685)
(9.95974 2.13393e-19 0.681587)
(9.97256 1.50713e-19 0.632879)
(9.95246 1.1236e-21 0.784963)
(9.96753 5.96402e-22 0.73355)
(9.96359 1.46384e-19 0.83951)
(9.99882 1.52485e-20 0.137244)
(10.0004 -2.26096e-19 0.0920816)
(9.99667 5.8625e-21 0.225856)
(9.99891 2.49093e-19 0.181575)
(9.99373 -2.69148e-19 0.31374)
(9.99715 2.13983e-19 0.2696)
(9.99028 2.06131e-20 0.402572)
(9.99524 -3.10598e-19 0.357829)
(9.98662 5.19195e-20 0.493599)
(9.99329 7.92198e-20 0.447605)
(9.98314 -2.67428e-19 0.58788)
(9.99152 -1.36961e-19 0.540051)
(9.98025 -6.82028e-20 0.686298)
(9.99033 -3.98748e-19 0.636133)
(9.97848 1.49859e-19 0.789529)
(9.99047 -1.34534e-19 0.736569)
(9.97847 -1.61031e-19 0.898221)
(9.99236 1.4949e-19 0.841922)
(9.99651 -4.49363e-19 0.952866)
(9.9997 1.67584e-20 0.137929)
(10.0008 -1.75161e-20 0.0923128)
(9.99921 4.62226e-19 0.226996)
(10.0004 -1.94745e-19 0.182073)
(9.99861 1.67649e-19 0.315268)
(10.0007 1.1885e-20 0.270334)
(9.99813 -2.48223e-19 0.404379)
(10.0014 1.72093e-19 0.358702)
(9.99802 -1.15739e-19 0.495535)
(10.0027 3.4792e-19 0.448495)
(9.99865 -2.72707e-19 0.589735)
(10.0047 2.53717e-19 0.540776)
(10.0005 -4.66174e-19 0.687787)
(10.0079 -1.85203e-20 0.636393)
(10.0042 -1.34326e-19 0.790315)
(10.0131 5.90698e-20 0.736016)
(10.0103 -1.4691e-19 0.89791)
(10.0207 4.00502e-19 0.840213)
(10.0192 6.18316e-21 1.01124)
(10.0309 -4.20729e-19 0.949594)
(10.0319 -8.44381e-21 1.13097)
(10.0447 -1.31608e-19 1.06479)
(10.0627 -1.11578e-20 1.18634)
(10.0006 -2.35515e-19 0.137954)
(10.0012 2.18372e-19 0.0920903)
(10.0018 -6.54734e-19 0.227063)
(10.002 -2.37278e-19 0.181682)
(10.0035 1.75612e-20 0.31532)
(10.0042 -4.16272e-19 0.269768)
(10.0059 7.8466e-19 0.4043)
(10.0075 1.81858e-19 0.357875)
(10.0093 7.26617e-19 0.495163)
(10.0119 3.48766e-19 0.44727)
(10.014 5.13637e-19 0.588807)
(10.0176 -4.5973e-20 0.53894)
(10.0205 5.20934e-19 0.685951)
(10.0251 3.27272e-19 0.633578)
(10.0295 6.08984e-19 0.787221)
(10.0352 3.27216e-19 0.731839)
(10.0413 1.19164e-19 0.893182)
(10.0482 4.10162e-19 0.834365)
(10.0564 -5.62478e-19 1.00437)
(10.0643 -1.49245e-19 0.941648)
(10.0758 -1.34653e-19 1.12132)
(10.0843 -2.90184e-19 1.05412)
(10.1002 4.38944e-19 1.24448)
(10.1091 4.20592e-19 1.17223)
(10.1305 4.39245e-19 1.3741)
(10.1397 1.5326e-19 1.29636)
(10.1768 4.29724e-19 1.42653)
(10.0015 2.13652e-19 0.137286)
(10.0016 6.39685e-21 0.0913971)
(10.0043 5.75274e-21 0.226004)
(10.0035 1.93682e-19 0.18036)
(10.0083 -2.43639e-19 0.313846)
(10.0076 2.94778e-20 0.267856)
(10.0135 -2.64454e-19 0.402294)
(10.0134 -5.71722e-20 0.355326)
(10.0202 -4.45888e-19 0.492421)
(10.0209 -2.07935e-19 0.443905)
(10.0289 -2.3609e-19 0.585015)
(10.0302 4.45523e-20 0.53446)
(10.04 1.28364e-19 0.680731)
(10.0419 1.16938e-19 0.627609)
(10.0539 1.23006e-19 0.780224)
(10.0567 -1.75535e-19 0.72402)
(10.0712 1.34603e-19 0.884028)
(10.0748 -1.01353e-21 0.824363)
(10.0923 1.30847e-19 0.992517)
(10.0965 1.36277e-19 0.929001)
(10.118 2.79198e-19 1.10608)
(10.1225 -3.20584e-21 1.03817)
(10.1491 1.27622e-19 1.22511)
(10.1534 1.89692e-20 1.15227)
(10.1863 1.42643e-19 1.34975)
(10.1906 -2.81619e-19 1.27165)
(10.2306 2.80275e-19 1.47989)
(10.2343 -2.51232e-19 1.39612)
(10.2851 -2.69353e-19 1.52551)
(10.0023 -1.28984e-20 0.13591)
(10.0019 5.84932e-21 0.0902285)
(10.0067 2.16633e-19 0.223796)
(10.0049 1.86179e-19 0.178106)
(10.0129 2.20134e-19 0.31082)
(10.0108 2.14746e-19 0.264593)
(10.0209 0 0.398329)
(10.0192 -2.07254e-19 0.35103)
(10.0309 2.96494e-19 0.487248)
(10.0295 -5.36487e-20 0.438332)
(10.0434 4.07214e-19 0.57829)
(10.0424 3.50674e-19 0.527253)
(10.0589 -1.95792e-19 0.672093)
(10.0583 1.17971e-19 0.618441)
(10.0776 -3.0292e-19 0.769308)
(10.0775 -7.98262e-20 0.712544)
(10.1001 7.49311e-22 0.870432)
(10.1004 -2.36861e-19 0.810183)
(10.1268 -1.33329e-21 0.975699)
(10.1274 5.12558e-22 0.911662)
(10.1583 -2.70797e-19 1.08535)
(10.1588 1.21875e-19 1.01708)
(10.1954 -4.00995e-19 1.19973)
(10.1952 -3.95959e-19 1.1267)
(10.2389 -6.86892e-19 1.31889)
(10.2383 -1.38297e-19 1.24079)
(10.2894 -8.16446e-19 1.44253)
(10.2881 -2.93948e-19 1.35914)
(10.348 1.49943e-19 1.57054)
(10.3446 2.42855e-19 1.48131)
(10.4157 4.14085e-19 1.70289)
(10.4098 1.58803e-19 1.60726)
(10.4847 1.31879e-19 1.73685)
(10.0031 2.11029e-19 0.133821)
(10.0023 -3.55201e-19 0.0885727)
(10.009 1.84466e-19 0.220438)
(10.0063 -1.82477e-19 0.17491)
(10.0173 -2.2645e-19 0.306234)
(10.0139 2.35374e-20 0.259975)
(10.0279 -2.61497e-19 0.392368)
(10.0246 -2.36188e-19 0.344961)
(10.0411 3.59541e-21 0.479577)
(10.0378 -2.61599e-19 0.430517)
(10.0574 5.30778e-20 0.568563)
(10.0541 -1.55675e-19 0.517265)
(10.0771 2.36717e-19 0.660008)
(10.0739 -1.67602e-19 0.606014)
(10.1004 -1.23021e-20 0.754497)
(10.0974 -4.35283e-20 0.697425)
(10.1277 -2.372e-19 0.852444)
(10.1247 -1.3098e-20 0.791919)
(10.1595 1.26897e-19 0.954026)
(10.1565 -2.32779e-19 0.889765)
(10.1963 -5.80957e-21 1.05934)
(10.193 1.26993e-19 0.991043)
(10.2388 -1.26508e-19 1.16858)
(10.2345 1.10421e-19 1.09574)
(10.2879 2.664e-19 1.28179)
(10.2827 -1.21827e-19 1.20403)
(10.3439 7.93706e-19 1.39862)
(10.3377 1.45692e-19 1.31585)
(10.4076 2.51864e-19 1.51868)
(10.3994 4.07598e-19 1.43064)
(10.4799 -1.31361e-19 1.64182)
(10.469 -5.21495e-19 1.54799)
(10.5615 4.03466e-19 1.76751)
(10.5477 -2.46282e-19 1.66775)
(10.6529 4.68961e-19 1.8946)
(10.6353 2.74184e-19 1.78914)
(10.7321 2.33242e-19 1.91089)
(10.0039 -7.57477e-19 0.131008)
(10.0026 -1.22647e-20 0.0864135)
(10.0113 -3.45874e-19 0.215936)
(10.0076 -2.08517e-19 0.170782)
(10.0215 1.18239e-20 0.300075)
(10.0168 2.56076e-20 0.254033)
(10.0346 -2.36484e-19 0.384367)
(10.0296 1.46568e-19 0.337079)
(10.051 -4.24702e-19 0.469377)
(10.0458 2.3858e-19 0.420389)
(10.0708 -3.82247e-19 0.55582)
(10.0654 -2.42147e-19 0.50452)
(10.0945 -4.55064e-19 0.644477)
(10.0888 -3.80208e-19 0.590387)
(10.122 -4.42522e-20 0.735851)
(10.1162 -2.35538e-19 0.678709)
(10.1537 -8.69784e-21 0.830198)
(10.1476 1.26589e-19 0.769684)
(10.1902 -2.32915e-19 0.927662)
(10.1837 4.35457e-20 0.863468)
(10.2318 2.46655e-19 1.02825)
(10.2247 0 0.960172)
(10.2792 1.15616e-19 1.13194)
(10.2711 1.33078e-20 1.05961)
(10.333 -2.46892e-19 1.23876)
(10.3237 -1.25274e-19 1.16174)
(10.3938 -2.52328e-19 1.34846)
(10.383 1.14194e-19 1.26663)
(10.462 -3.84416e-19 1.46051)
(10.4491 -3.6862e-19 1.37383)
(10.538 -6.40881e-19 1.57447)
(10.5225 -2.54143e-19 1.48266)
(10.6225 -3.81371e-19 1.6899)
(10.604 -3.90886e-19 1.59278)
(10.7159 3.18723e-20 1.80589)
(10.6936 0 1.70366)
(10.8181 -1.70549e-20 1.92139)
(10.7915 3.19598e-20 1.81424)
(10.9292 -3.1064e-20 2.03547)
(10.8978 -6.32708e-20 1.92354)
(11.0123 -1.17487e-19 2.03074)
(10.0047 5.49186e-19 0.127479)
(10.003 2.7747e-20 0.083775)
(10.0134 1.74101e-19 0.210306)
(10.0086 1.74944e-20 0.165734)
(10.0254 1.64526e-19 0.292344)
(10.0195 1.8039e-19 0.246781)
(10.041 6.34415e-19 0.37427)
(10.0345 1.63417e-19 0.327356)
(10.0604 4.23991e-19 0.456615)
(10.0535 2.44043e-19 0.407873)
(10.0836 -2.40509e-19 0.540133)
(10.0761 3.97675e-19 0.489047)
(10.1108 -1.54388e-19 0.62561)
(10.1027 -1.13215e-20 0.571719)
(10.1421 -5.96305e-20 0.713471)
(10.1335 -1.52011e-19 0.65652)
(10.1779 1.80228e-19 0.803828)
(10.1689 -6.04343e-20 0.743588)
(10.2186 2.82877e-19 0.896747)
(10.2089 2.07728e-20 0.832932)
(10.2646 -2.39936e-19 0.992208)
(10.2539 1.64143e-19 0.924581)
(10.3164 -2.33998e-19 1.09006)
(10.3047 -4.0615e-19 1.01841)
(10.3744 2.454e-19 1.19024)
(10.3614 0 1.11424)
(10.4391 -4.22296e-21 1.29254)
(10.4243 2.45877e-19 1.21204)
(10.5108 -2.34725e-19 1.39647)
(10.4937 -2.98556e-19 1.31144)
(10.5898 3.52639e-21 1.50145)
(10.5701 5.24802e-19 1.41182)
(10.6763 0 1.60699)
(10.6536 2.88073e-20 1.51271)
(10.7707 0 1.71238)
(10.7443 -1.44969e-19 1.61357)
(10.8729 -1.52844e-20 1.81669)
(10.8424 0 1.71356)
(10.9827 -1.51989e-19 1.91902)
(10.9478 -1.30785e-19 1.81179)
(10.0052 -5.17236e-19 0.123275)
(10.0035 3.11909e-19 0.0807363)
(10.0151 2.5144e-20 0.203532)
(10.0094 1.60608e-19 0.1598)
(10.0292 1.79127e-19 0.282982)
(10.0218 2.08282e-20 0.238068)
(10.0472 -2.36744e-19 0.362069)
(10.0392 1.06029e-20 0.315737)
(10.0693 2.17669e-19 0.441346)
(10.0607 -2.47397e-19 0.393102)
(10.0955 6.31782e-19 0.521612)
(10.0861 4.31928e-19 0.470963)
(10.1259 -9.21797e-21 0.603549)
(10.1156 2.10136e-19 0.550122)
(10.1606 -1.52653e-19 0.687473)
(10.1496 -1.12063e-20 0.631001)
(10.2002 -2.24338e-19 0.773443)
(10.1884 3.40614e-21 0.713701)
(10.2448 -1.01209e-19 0.861434)
(10.2321 1.92329e-19 0.798232)
(10.2947 -6.23033e-21 0.951374)
(10.2809 -3.07952e-19 0.884478)
(10.3504 -1.66154e-19 1.04314)
(10.3353 3.13157e-19 0.972353)
(10.412 0 1.13658)
(10.3954 0 1.06176)
(10.4798 -5.54534e-20 1.23142)
(10.4613 0 1.15249)
(10.5542 4.80735e-19 1.32723)
(10.5334 1.9474e-19 1.24414)
(10.6352 5.51905e-19 1.42346)
(10.6118 2.83617e-19 1.33623)
(10.7229 -1.19838e-19 1.5196)
(10.6966 -8.1555e-20 1.42824)
(10.8176 -1.45216e-19 1.61498)
(10.7878 -3.60509e-20 1.51963)
(10.9191 -1.18462e-19 1.70881)
(10.8855 0 1.60968)
(10.9893 -6.11569e-20 1.69764)
(10.0057 1.00572e-18 0.11845)
(10.0039 3.54689e-19 0.0773124)
(10.0167 1.55199e-19 0.195599)
(10.0101 1.40482e-20 0.153061)
(10.0325 -1.52034e-19 0.271921)
(10.0238 -1.67363e-20 0.227924)
(10.0529 -1.54407e-21 0.347783)
(10.0434 2.20005e-19 0.302195)
(10.0776 -2.4931e-20 0.423688)
(10.0673 -1.27763e-20 0.376118)
(10.1065 -1.58698e-21 0.500373)
(10.0952 -2.10859e-19 0.450376)
(10.1398 2.07684e-19 0.578396)
(10.1273 -2.36382e-20 0.52565)
(10.1778 1.49055e-19 0.657962)
(10.1645 4.24495e-19 0.602217)
(10.2207 4.31724e-19 0.739123)
(10.2064 -7.70515e-20 0.680117)
(10.2688 -2.03249e-20 0.821848)
(10.2534 3.05694e-19 0.759431)
(10.3222 2.01245e-20 0.90601)
(10.3055 -4.8778e-19 0.840071)
(10.3811 4.842e-19 0.991493)
(10.3629 4.95042e-19 0.921882)
(10.4456 0 1.07813)
(10.4257 2.08273e-19 1.00475)
(10.5159 2.57032e-19 1.1656)
(10.494 -1.18292e-19 1.08842)
(10.5921 -8.2679e-21 1.25347)
(10.568 2.70772e-19 1.17248)
(10.6745 -3.6683e-19 1.34125)
(10.6478 -3.59408e-19 1.2565)
(10.7628 4.6436e-21 1.42845)
(10.7334 -1.25204e-20 1.34001)
(10.8572 1.13128e-19 1.51444)
(10.8246 8.9294e-20 1.42249)
(10.9574 5.90435e-20 1.59855)
(10.9214 1.35089e-19 1.50333)
(11.0233 2.74133e-19 1.58185)
(10.0063 -6.63146e-19 0.113026)
(10.004 -4.82659e-19 0.0734392)
(10.0181 -1.62406e-19 0.186611)
(10.011 -1.82619e-19 0.145574)
(10.0354 3.66284e-19 0.259263)
(10.0257 3.08949e-21 0.216573)
(10.0578 2.07404e-19 0.331451)
(10.0471 4.20319e-20 0.286851)
(10.0849 -2.04306e-19 0.403662)
(10.0731 -1.02936e-20 0.356905)
(10.1165 -2.32937e-19 0.476437)
(10.1034 -3.81824e-19 0.427278)
(10.1526 1.99919e-19 0.550156)
(10.1382 -4.70953e-20 0.498267)
(10.1936 1.91579e-19 0.624985)
(10.1782 2.44886e-19 0.570093)
(10.2396 -2.06446e-19 0.700997)
(10.2231 -4.90066e-20 0.642925)
(10.2907 -1.74605e-19 0.778186)
(10.2728 -3.50379e-19 0.716814)
(10.3469 -1.9242e-22 0.856431)
(10.3275 4.12755e-21 0.791686)
(10.4083 2.11693e-19 0.93557)
(10.3874 -3.0215e-19 0.867367)
(10.4751 8.69512e-20 1.01539)
(10.4524 1.7386e-20 0.943662)
(10.5473 -1.04645e-19 1.09558)
(10.5225 -2.54871e-20 1.02031)
(10.6249 -8.92715e-20 1.17572)
(10.598 -8.84476e-20 1.09694)
(10.708 4.35533e-21 1.25539)
(10.6786 1.29877e-19 1.17317)
(10.7965 7.43559e-20 1.33411)
(10.7644 7.83652e-20 1.24857)
(10.8902 1.11839e-19 1.41135)
(10.8551 2.42108e-20 1.32267)
(10.9887 3.559e-19 1.48653)
(10.9507 -1.2351e-19 1.39499)
(11.0505 1.15416e-19 1.46495)
(10.0068 1.11553e-20 0.106995)
(10.0038 -7.44265e-21 0.0691603)
(10.0196 -1.16913e-20 0.176627)
(10.0117 1.63991e-19 0.137285)
(10.0382 -3.2917e-19 0.245144)
(10.0277 -1.74486e-19 0.203986)
(10.0624 -1.81504e-19 0.313181)
(10.0507 -1.58783e-19 0.269832)
(10.0916 -1.93846e-19 0.38129)
(10.0784 -2.23788e-20 0.335598)
(10.1256 -1.9008e-19 0.449771)
(10.1109 -8.56092e-21 0.40163)
(10.1644 -3.18848e-22 0.5188)
(10.1483 -1.31976e-21 0.467942)
(10.2082 -2.62358e-21 0.588586)
(10.1907 -3.61477e-19 0.534749)
(10.2568 -1.97176e-19 0.65926)
(10.238 -2.42897e-20 0.60233)
(10.3103 -1.66564e-19 0.730784)
(10.2901 2.64437e-20 0.670694)
(10.3688 -3.06211e-19 0.803015)
(10.347 1.92886e-19 0.739692)
(10.4323 -5.02074e-19 0.875768)
(10.4089 -2.11441e-19 0.809147)
(10.5008 -9.80714e-20 0.948808)
(10.4756 -2.02184e-19 0.87886)
(10.5743 -8.81299e-21 1.02183)
(10.5471 9.40991e-22 0.948577)
(10.6529 1.36698e-19 1.09448)
(10.6235 -1.04039e-19 1.01798)
(10.7363 2.0597e-19 1.16636)
(10.7045 1.38734e-19 1.08671)
(10.8244 2.69077e-20 1.23706)
(10.7901 -1.26864e-19 1.15439)
(10.917 -2.17579e-19 1.30613)
(10.88 5.31579e-20 1.22061)
(11.0139 -3.70668e-19 1.37311)
(10.974 -2.68388e-19 1.28499)
(11.0717 -2.09195e-19 1.34707)
(10.0071 1.49921e-19 0.100371)
(10.0034 9.08687e-21 0.0645957)
(10.0209 -5.13676e-21 0.165576)
(10.0124 0 0.128092)
(10.041 3.57328e-22 0.229546)
(10.0298 1.49036e-19 0.190034)
(10.0668 5.11771e-21 0.293055)
(10.054 1.63897e-19 0.251179)
(10.0979 1.67815e-19 0.356626)
(10.0833 -1.27321e-21 0.312278)
(10.1341 1.85185e-19 0.420388)
(10.1178 4.33848e-21 0.373485)
(10.1752 -3.7303e-19 0.484437)
(10.1573 2.00244e-20 0.434814)
(10.2212 -3.83168e-19 0.548995)
(10.2019 -2.18957e-19 0.496464)
(10.272 2.05522e-19 0.61419)
(10.2512 -8.16147e-23 0.55863)
(10.3276 3.95885e-19 0.679944)
(10.3053 2.95403e-19 0.621298)
(10.3879 2.90268e-19 0.746088)
(10.364 1.96141e-19 0.684317)
(10.4531 9.67367e-20 0.812431)
(10.4275 9.94081e-20 0.747512)
(10.5229 -1.00543e-19 0.878752)
(10.4955 -2.33513e-20 0.81069)
(10.5974 -9.679e-20 0.944775)
(10.568 -4.84671e-21 0.873613)
(10.6763 -1.02131e-19 1.01018)
(10.6449 1.2144e-19 0.936)
(10.7596 -2.03144e-19 1.07463)
(10.726 -1.51089e-19 0.997536)
(10.8471 -9.9958e-20 1.13775)
(10.811 4.3764e-20 1.05789)
(10.9384 1.13791e-21 1.19917)
(10.8998 -9.70667e-20 1.11672)
(11.0333 -1.02509e-19 1.25853)
(10.9921 9.9488e-20 1.17369)
(11.0875 1.89799e-19 1.22844)
(10.0075 -1.4455e-19 0.0931319)
(10.0032 -6.87557e-21 0.0596336)
(10.0223 1.59025e-19 0.153418)
(10.0133 0 0.117964)
(10.0436 3.16838e-19 0.212478)
(10.0319 2.93265e-21 0.174817)
(10.0708 1.56569e-19 0.271115)
(10.0571 1.76083e-20 0.230963)
(10.1035 -1.69047e-19 0.329745)
(10.0879 -6.26167e-21 0.287001)
(10.1416 -1.65144e-19 0.388439)
(10.124 1.56927e-19 0.343045)
(10.1846 1.77741e-19 0.447291)
(10.1653 -1.67758e-19 0.399135)
(10.2325 1.74805e-19 0.50647)
(10.2116 2.58891e-19 0.455412)
(10.2852 9.25788e-20 0.566034)
(10.2626 5.21516e-21 0.511986)
(10.3425 9.01007e-20 0.625896)
(10.3184 8.10926e-20 0.568827)
(10.4045 0 0.685896)
(10.3786 3.3167e-20 0.625798)
(10.4709 -2.40015e-20 0.745854)
(10.4434 -1.11986e-19 0.682736)
(10.5416 7.5041e-20 0.805561)
(10.5124 -2.39964e-20 0.739454)
(10.6167 2.19452e-19 0.86477)
(10.5855 1.43951e-19 0.795736)
(10.6957 7.12312e-20 0.923203)
(10.6626 7.71216e-20 0.851334)
(10.7786 1.02635e-19 0.980561)
(10.7434 8.99246e-20 0.905978)
(10.8651 4.67782e-20 1.03653)
(10.8277 1.03237e-19 0.959384)
(10.955 4.04452e-21 1.0908)
(10.9153 -4.98611e-21 1.01126)
(11.0478 3.99883e-19 1.14306)
(11.0058 1.94928e-19 1.06133)
(11.0989 1.10679e-19 1.1093)
(10.0082 1.41185e-19 0.0851822)
(10.0033 1.45287e-19 0.0541108)
(10.0238 -1.59973e-19 0.140179)
(10.0143 -4.40796e-21 0.106922)
(10.0461 -3.03799e-19 0.194037)
(10.0338 -1.54443e-19 0.158427)
(10.0745 -1.49506e-19 0.247471)
(10.0601 -2.97929e-19 0.209266)
(10.1087 3.28883e-19 0.30082)
(10.0921 -1.67568e-19 0.259916)
(10.1482 1.53205e-19 0.354167)
(10.1296 1.8499e-19 0.310512)
(10.1929 -8.34205e-20 0.407592)
(10.1723 -8.54446e-21 0.361105)
(10.2424 8.42718e-20 0.461187)
(10.2201 9.16474e-21 0.411783)
(10.2966 -6.50433e-21 0.514968)
(10.2726 -4.89798e-21 0.462596)
(10.3553 2.25568e-20 0.568848)
(10.3296 -9.66776e-20 0.5135)
(10.4185 -8.19888e-20 0.622684)
(10.3911 3.40768e-20 0.564376)
(10.4858 -1.11938e-19 0.676306)
(10.4567 1.52275e-20 0.615071)
(10.5572 4.6823e-20 0.729522)
(10.5264 -1.31655e-19 0.665413)
(10.6325 -2.32445e-21 0.782112)
(10.5998 4.68139e-20 0.715206)
(10.7114 9.6365e-20 0.833836)
(10.6769 -3.46779e-21 0.764236)
(10.7938 9.0507e-20 0.884438)
(10.7573 -8.28713e-20 0.812271)
(10.8792 5.01303e-20 0.933657)
(10.8407 -1.39034e-19 0.859072)
(10.9675 1.91201e-19 0.98123)
(10.927 9.74121e-20 0.904399)
(11.0582 -1.02276e-19 1.0269)
(11.0157 5.04272e-21 0.948016)
(11.1065 -2.88437e-19 0.989701)
(10.0087 -4.53583e-21 0.0764913)
(10.0034 1.37495e-19 0.0480631)
(10.0252 3.19545e-22 0.125878)
(10.0152 -8.80708e-21 0.0949962)
(10.0485 -1.49212e-19 0.174262)
(10.0356 -1.36281e-19 0.140839)
(10.0781 -3.15867e-19 0.222215)
(10.0629 -1.43124e-19 0.186093)
(10.1134 -3.13914e-19 0.270019)
(10.096 -2.68376e-20 0.231109)
(10.1543 1.84404e-20 0.31777)
(10.1347 -7.56313e-20 0.276024)
(10.2002 8.65116e-20 0.365531)
(10.1786 1.45778e-19 0.320895)
(10.251 -8.24228e-20 0.413348)
(10.2276 -5.38979e-20 0.365776)
(10.3064 -9.76695e-20 0.46121)
(10.2812 -1.07191e-20 0.41068)
(10.3662 -8.4717e-20 0.509032)
(10.3393 -8.71259e-20 0.455556)
(10.4302 1.3401e-19 0.556688)
(10.4016 -4.14495e-20 0.500297)
(10.4982 -5.10758e-21 0.60402)
(10.4679 9.16724e-20 0.544766)
(10.57 -1.31604e-19 0.650856)
(10.5379 -1.34723e-19 0.588808)
(10.6453 4.56571e-20 0.697002)
(10.6115 4.26141e-20 0.63225)
(10.7239 -1.87754e-19 0.742253)
(10.6883 -8.42657e-20 0.674907)
(10.8055 -3.18786e-19 0.786393)
(10.7681 -1.44159e-19 0.716583)
(10.8898 -9.0421e-20 0.829205)
(10.8506 2.58523e-19 0.757081)
(10.9765 -9.39133e-20 0.870475)
(10.9355 -1.77222e-19 0.796205)
(11.0653 -1.86348e-19 0.91)
(11.0225 -4.90531e-20 0.833764)
(11.1112 -1.39442e-19 0.869585)
(10.0091 1.32482e-19 0.0671105)
(10.0035 -1.19338e-19 0.0415479)
(10.0264 -1.49588e-19 0.110538)
(10.0159 1.28796e-19 0.0822117)
(10.0506 -1.30079e-19 0.153155)
(10.0371 -6.84356e-21 0.122067)
(10.0813 1.53842e-19 0.195377)
(10.0654 2.04082e-19 0.161468)
(10.1177 2.17447e-19 0.237418)
(10.0996 1.61549e-19 0.200633)
(10.1597 5.57172e-20 0.279368)
(10.1393 3.86048e-21 0.239668)
(10.2067 1.14211e-21 0.321278)
(10.1842 -9.49806e-20 0.27863)
(10.2585 1.98184e-20 0.363169)
(10.2342 2.03912e-20 0.317552)
(10.3149 0 0.405013)
(10.2887 1.94104e-20 0.356426)
(10.3755 -4.26347e-20 0.446732)
(10.3475 -1.99016e-20 0.395198)
(10.4401 -8.48372e-20 0.48821)
(10.4105 -4.21161e-20 0.433773)
(10.5085 -4.15858e-20 0.529308)
(10.4772 -4.34044e-20 0.472031)
(10.5804 4.44236e-20 0.569873)
(10.5474 8.31663e-20 0.509837)
(10.6556 -9.09678e-20 0.60974)
(10.6209 8.50608e-20 0.547042)
(10.7337 -3.93716e-20 0.648733)
(10.6974 -9.16344e-20 0.583491)
(10.8145 4.4941e-19 0.686675)
(10.7765 1.73826e-19 0.619021)
(10.8976 1.69259e-19 0.723388)
(10.8581 2.74622e-19 0.653471)
(10.9828 -1.3102e-19 0.758701)
(10.9416 -1.82634e-19 0.686683)
(11.0697 -8.07215e-22 0.792452)
(11.027 4.0531e-21 0.718506)
(11.1137 8.48666e-20 0.748807)
(10.0095 -1.22001e-19 0.0570758)
(10.0037 -1.29923e-20 0.0345775)
(10.0275 2.74243e-19 0.0941968)
(10.0166 7.11282e-20 0.0685755)
(10.0526 3.36825e-19 0.130755)
(10.0386 1.41052e-19 0.102145)
(10.0841 2.11769e-19 0.167005)
(10.0677 6.19573e-20 0.13545)
(10.1216 -5.81779e-20 0.203069)
(10.1028 8.85366e-20 0.168553)
(10.1645 -1.51101e-19 0.23902)
(10.1434 -5.80785e-20 0.201521)
(10.2124 -7.49309e-20 0.274898)
(10.1892 -2.2209e-20 0.234407)
(10.2651 1.99736e-20 0.310709)
(10.2399 0 0.26723)
(10.3222 -1.0915e-21 0.346419)
(10.2952 1.99348e-20 0.299969)
(10.3834 -1.93849e-20 0.381956)
(10.3546 -5.86444e-20 0.332569)
(10.4485 4.76005e-22 0.417222)
(10.418 1.27359e-21 0.364949)
(10.5171 8.49063e-20 0.452098)
(10.485 3.9647e-20 0.397006)
(10.589 1.24941e-19 0.486454)
(10.5553 1.64219e-19 0.428626)
(10.6638 8.43684e-20 0.52015)
(10.6286 4.18632e-20 0.459688)
(10.7414 1.27587e-19 0.553043)
(10.7047 2.20036e-21 0.49006)
(10.8213 -5.94437e-21 0.584987)
(10.7831 -7.76571e-20 0.519614)
(10.9033 -8.71872e-20 0.615839)
(10.8637 -6.13505e-21 0.548219)
(10.9871 -4.37042e-20 0.645464)
(10.946 4.09644e-20 0.575751)
(11.0722 9.21932e-20 0.673736)
(11.0299 -1.25951e-19 0.602093)
(11.1149 9.4039e-20 0.627143)
(10.01 1.85127e-19 0.0463739)
(10.0038 1.97356e-19 0.0271011)
(10.0286 -6.49183e-20 0.0768659)
(10.0174 -1.30256e-19 0.0540407)
(10.0545 -1.41145e-19 0.107122)
(10.0402 -7.2989e-20 0.081103)
(10.0869 -6.42946e-20 0.137206)
(10.0701 -6.53685e-20 0.108114)
(10.1251 8.80948e-20 0.167149)
(10.106 -1.35201e-20 0.134957)
(10.1688 7.43422e-20 0.196992)
(10.1473 1.84295e-20 0.161678)
(10.2175 5.47807e-20 0.226759)
(10.1938 7.41853e-20 0.188332)
(10.2708 0 0.256439)
(10.2452 0 0.214922)
(10.3285 -3.93038e-20 0.285992)
(10.301 0 0.24142)
(10.3901 -3.73093e-20 0.315352)
(10.3609 -7.63061e-20 0.267775)
(10.4555 4.1599e-20 0.344437)
(10.4246 1.1457e-19 0.293918)
(10.5242 1.21251e-19 0.373149)
(10.4917 7.87385e-20 0.319767)
(10.596 7.87582e-20 0.401381)
(10.562 3.93563e-21 0.345229)
(10.6705 -4.26217e-20 0.429022)
(10.6351 -5.67461e-22 0.370205)
(10.7475 -2.08941e-19 0.455956)
(10.7107 -8.13759e-20 0.394595)
(10.8267 -7.78746e-20 0.482069)
(10.7885 -2.07657e-19 0.418294)
(10.9076 1.25675e-19 0.507251)
(10.8682 2.04656e-19 0.441202)
(10.9901 -4.36364e-20 0.531397)
(10.9495 -7.88108e-20 0.463225)
(11.0737 -1.24073e-19 0.554412)
(11.032 -4.46903e-20 0.484275)
(11.1155 3.9825e-20 0.504273)
(10.0106 -1.26863e-19 0.0349246)
(10.0042 -6.3624e-20 0.0189462)
(10.0301 -1.38196e-19 0.0585067)
(10.0186 -6.48998e-20 0.0384861)
(10.0567 4.72337e-21 0.0821681)
(10.0423 -1.15288e-20 0.0589423)
(10.0897 -1.30789e-20 0.105741)
(10.0729 9.31884e-20 0.0794923)
(10.1287 -8.48393e-20 0.12921)
(10.1093 -1.0396e-19 0.0998886)
(10.173 1.84413e-20 0.152624)
(10.1512 -1.67447e-20 0.120202)
(10.2223 1.77614e-20 0.176)
(10.1983 5.27732e-20 0.140481)
(10.2762 0 0.199318)
(10.2502 -3.51013e-20 0.160716)
(10.3343 -3.81355e-20 0.222535)
(10.3064 1.71315e-22 0.180869)
(10.3963 7.99455e-20 0.245593)
(10.3667 -1.98898e-20 0.200898)
(10.4618 1.52651e-19 0.268422)
(10.4306 1.16829e-19 0.22075)
(10.5305 -4.19024e-20 0.290943)
(10.4978 1.98788e-21 0.24036)
(10.6021 -7.75959e-20 0.31307)
(10.568 -1.17081e-19 0.259658)
(10.6764 -4.04377e-20 0.334713)
(10.6409 3.00002e-22 0.278571)
(10.7528 -8.00579e-20 0.355783)
(10.7161 3.57058e-20 0.297022)
(10.8312 8.29825e-20 0.37619)
(10.7934 -4.10138e-20 0.314934)
(10.9113 -5.7171e-21 0.395851)
(10.8724 6.44923e-20 0.332233)
(10.9927 -7.9883e-20 0.414686)
(10.9527 -1.24946e-19 0.348851)
(11.075 1.23978e-19 0.432624)
(11.0342 2.32344e-21 0.364724)
(11.1165 -3.37605e-20 0.379795)
(10.0119 -1.01281e-22 0.0226048)
(10.0052 -2.97075e-20 0.00958348)
(10.0322 6.52752e-20 0.0395376)
(10.0213 3.75173e-21 0.0218865)
(10.0593 7.97581e-20 0.056935)
(10.0459 6.10779e-20 0.0357965)
(10.0929 -8.52434e-22 0.0742194)
(10.0769 -1.50697e-20 0.0496853)
(10.1323 -3.38027e-20 0.0913522)
(10.1136 1.54705e-20 0.0634343)
(10.1772 1.86902e-20 0.10841)
(10.1559 -2.5563e-20 0.077175)
(10.227 -1.7172e-21 0.125414)
(10.2034 -6.51341e-21 0.0909306)
(10.2813 -3.48535e-20 0.142346)
(10.2556 -3.59587e-20 0.104669)
(10.3397 1.88793e-20 0.159175)
(10.3121 1.75088e-20 0.118355)
(10.4019 1.81616e-20 0.175863)
(10.3725 5.37558e-20 0.131955)
(10.4675 -3.81323e-20 0.192363)
(10.4365 -1.79128e-20 0.145431)
(10.5363 -7.53654e-20 0.208622)
(10.5037 -1.98361e-21 0.158739)
(10.6078 -3.69342e-20 0.224581)
(10.5738 -3.8312e-20 0.17183)
(10.6817 7.86834e-20 0.240179)
(10.6465 3.71416e-20 0.184655)
(10.7578 7.59606e-20 0.255353)
(10.7214 7.8389e-20 0.19716)
(10.8357 -6.00844e-20 0.270042)
(10.7982 -3.72705e-20 0.209295)
(10.915 -5.81966e-20 0.284188)
(10.8766 -4.98615e-20 0.221011)
(10.9955 -4.04133e-20 0.297737)
(10.9563 2.86689e-20 0.232261)
(11.0768 -1.60202e-19 0.31064)
(11.0369 -4.0448e-20 0.243003)
(11.1183 -9.27564e-20 0.253201)
(10.0156 -2.54509e-20 0.0075165)
(9.99864 -5.83137e-20 -0.00292585)
(10.0365 -2.56338e-22 0.0167899)
(10.0096 3.84327e-21 0.00440296)
(10.064 -3.64e-20 0.0271484)
(10.0278 -3.95656e-21 0.0118543)
(10.098 1.80164e-21 0.0376024)
(10.052 -3.24045e-20 0.0189376)
(10.1378 2.36983e-20 0.0480536)
(10.0822 3.31404e-20 0.02596)
(10.1828 -5.13766e-20 0.0585419)
(10.1185 1.15892e-20 0.0330374)
(10.2328 -4.17296e-20 0.0690527)
(10.1603 -3.07494e-20 0.0401556)
(10.2872 1.79155e-20 0.0795465)
(10.2072 1.25872e-20 0.04728)
(10.3458 5.33896e-20 0.0899872)
(10.2587 9.33721e-21 0.0543857)
(10.408 1.65978e-20 0.100342)
(10.3144 1.88154e-20 0.0614526)
(10.4736 1.92407e-20 0.110576)
(10.3739 -1.41318e-20 0.0684589)
(10.5423 3.60685e-20 0.120653)
(10.437 2.82461e-20 0.07538)
(10.6136 3.78793e-20 0.130534)
(10.5031 0 0.0821891)
(10.6872 3.68079e-20 0.140179)
(10.5721 3.78482e-20 0.0888585)
(10.7629 -3.81329e-20 0.149549)
(10.6434 0 0.0953604)
(10.8403 -2.67437e-20 0.158607)
(10.7169 -2.90873e-20 0.101667)
(10.9191 3.9547e-20 0.167317)
(10.792 1.02446e-20 0.107754)
(10.9989 2.86904e-20 0.175646)
(10.8686 3.87193e-20 0.113594)
(11.0796 2.91228e-20 0.183567)
(10.9463 -1.83577e-20 0.119168)
(11.0248 7.56185e-20 0.124455)
(9.99646 -2.86153e-20 -0.000613587)
(10.0017 0 0.00173989)
(10.015 0 0.00481224)
(10.0355 0 0.00804343)
(10.0625 2.06728e-20 0.0113702)
(10.0955 3.26522e-20 0.0147953)
(10.1341 2.51221e-20 0.0182979)
(10.1779 3.77667e-21 0.0218507)
(10.2264 -2.61529e-20 0.0254314)
(10.2794 -1.27907e-20 0.0290216)
(10.3363 -4.82596e-21 0.0326036)
(10.3968 -8.82894e-21 0.0361597)
(10.4605 0 0.0396716)
(10.527 0 0.0431212)
(10.5961 9.28752e-21 0.0464907)
(10.6672 8.96102e-21 0.0497632)
(10.7401 9.41827e-21 0.0529225)
(10.8145 -9.66568e-21 0.0559538)
(10.8899 2.94877e-20 0.058844)
)
;

boundaryField
{
    inlet
    {
        type            calculated;
        value           nonuniform List<vector> 
30
(
(10 0 0)
(10 0 0)
(10 0 0)
(10 0 0)
(10 0 0)
(10 0 0)
(10 0 0)
(10 0 0)
(10 0 0)
(10 0 0)
(10 0 0)
(10 0 0)
(10 0 0)
(10 0 0)
(10 0 0)
(10 0 0)
(10 0 0)
(10 0 0)
(10 0 0)
(10 0 0)
(10 0 0)
(10 0 0)
(10 0 0)
(10 0 0)
(10 0 0)
(10 0 0)
(10 0 0)
(10 0 0)
(10 0 0)
(10 0 0)
)
;
    }
    outlet
    {
        type            calculated;
        value           nonuniform 0();
    }
    flap
    {
        type            calculated;
        value           nonuniform 0();
    }
    upperWall
    {
        type            calculated;
        value           uniform (0 0 0);
    }
    lowerWall
    {
        type            calculated;
        value           nonuniform 0();
    }
    frontAndBack
    {
        type            empty;
        value           nonuniform 0();
    }
    procBoundary0to1
    {
        type            processor;
        value           nonuniform List<vector> 
18
(
(11.0492 1.57505e-20 2.14718)
(11.1001 -2.25084e-19 2.01853)
(11.0603 -2.83405e-19 1.90751)
(11.0271 -2.65455e-19 1.80034)
(11.0631 -5.40709e-22 1.68013)
(11.0919 2.16916e-19 1.55907)
(11.1145 2.77572e-21 1.43747)
(11.1314 -1.00868e-19 1.31539)
(11.1433 1.92876e-19 1.19299)
(11.1511 -1.91282e-19 1.07043)
(11.1558 -9.23997e-20 0.947594)
(11.158 -4.44383e-20 0.824501)
(11.1585 2.20609e-19 0.700548)
(11.1583 -4.02627e-20 0.576218)
(11.1581 1.65975e-19 0.449607)
(11.1588 -1.1754e-19 0.322857)
(11.1607 2.83104e-20 0.191055)
(10.9662 6.59054e-20 0.0615823)
)
;
    }
    procBoundary0to3
    {
        type            processor;
        value           nonuniform List<vector> 
34
(
(9.99725 5.59403e-19 0.0768343)
(9.98759 3.18231e-19 0.151306)
(9.98028 0 0.192568)
(9.97411 2.88481e-19 0.233375)
(9.96595 9.15159e-20 0.277458)
(9.95959 -3.02897e-19 0.32081)
(9.95218 -2.26382e-19 0.367982)
(9.94689 -4.10469e-19 0.414056)
(9.9415 -2.92231e-19 0.46437)
(9.9385 7.36209e-20 0.513166)
(9.93633 2.31179e-19 0.566498)
(9.93685 -6.30771e-20 0.617815)
(9.93917 -1.41953e-19 0.673775)