/*--------------------------------*- C++ -*----------------------------------*\
| =========                 |                                                 |
| \\      /  F ield         | OpenFOAM: The Open Source CFD Toolbox           |
|  \\    /   O peration     | Version:  dev                                   |
|   \\  /    A nd           | Web:      www.OpenFOAM.org                      |
|    \\/     M anipulation  |                                                 |
\*---------------------------------------------------------------------------*/
FoamFile
{
    version     2.0;
    format      ascii;
    class       volScalarField;
    location    "4.8";
    object      p;
}
// * * * * * * * * * * * * * * * * * * * * * * * * * * * * * * * * * * * * * //

dimensions      [0 2 -2 0 0 0 0];

internalField   nonuniform List<scalar> 
465
(
6.45005
7.36802
8.11594
8.91753
8.20072
7.11606
8.8853
8.64655
8.00519
7.7355
8.32329
10.3029
9.70046
9.13348
8.82835
8.87259
8.84262
8.36733
12.5747
11.5891
10.7621
10.1277
9.70644
9.31419
8.70556
7.85029
6.99856
15.463
14.0261
12.8098
11.7975
10.9735
10.2236
9.38902
8.43785
7.49795
6.67907
18.7361
16.8902
15.291
13.9057
12.6989
11.5932
10.4939
9.3694
8.2683
7.23648
6.23368
5.12941
22.1866
20.0221
18.0969
16.3782
14.8303
13.4014
12.0337
10.6966
9.39891
8.15396
6.93678
5.68318
4.36311
25.6323
23.2459
21.0716
19.085
17.2583
15.557
13.9438
12.3926
10.8967
9.45522
8.05382
6.6644
5.28072
3.9571
2.79788
28.9349
26.4134
24.0697
21.8882
19.8505
17.9341
16.1144
14.3719
12.696
11.0817
9.52101
8.004
6.53475
5.14972
3.91229
2.87798
32.0072
29.4204
26.9761
24.6664
22.4805
20.4046
18.4233
16.523
14.6946
12.933
11.2344
9.59691
8.02789
6.55174
5.2066
4.0256
3.01438
2.14362
34.807
32.2049
29.713
27.3287
25.0469
22.86
20.7593
18.7362
16.7844
14.9004
13.0827
11.3329
9.65838
8.07541
6.60705
5.27296
4.07694
3.00146
2.01406
37.3236
34.7394
32.2372
29.8178
27.4801
25.221
23.0363
20.9213
18.8725
16.8882
14.9684
13.1157
11.3364
9.64148
8.04499
6.5585
5.18427
3.91161
2.71958
1.58581
39.5651
37.0196
34.5319
32.1048
29.74
27.4375
25.1961
23.0141
20.8903
18.8242
16.8169
14.8712
12.9921
11.1869
9.46418
7.8307
6.28745
4.82743
3.4367
2.09923
0.79214
41.5492
39.0544
36.5967
34.1802
31.8084
29.4831
27.2053
24.9754
22.7937
20.6609
18.5787
16.5496
14.5775
12.6672
10.8241
9.05168
7.34992
5.71355
4.13234
2.59353
1.08728
43.2974
40.8594
38.441
36.0469
33.6814
31.3477
29.0483
26.7847
24.5584
22.3711
20.2244
18.1209
16.0635
14.0552
12.0993
10.1972
8.34792
6.54671
4.78501
3.05129
1.3441
44.8315
42.4525
40.0782
37.7136
35.3634
33.0314
30.7209
28.4344
26.174
23.9418
21.7398
19.5702
17.4351
15.3366
13.2763
11.2542
9.26851
7.31427
5.38342
3.46459
1.56104
46.1723
43.8516
41.5235
39.1924
36.863
34.5396
32.2257
29.9243
27.638
25.3691
23.1197
20.8916
18.6867
16.5059
14.3499
12.2177
10.1066
8.01136
5.92374
3.83211
1.74183
47.3384
45.0742
42.792
40.496
38.1906
35.8802
33.5683
31.2582
28.9526
26.6538
24.364
22.0848
19.8174
17.5624
15.3196
13.0871
10.8617
8.63765
6.40637
4.15593
1.89221
48.3474
46.136
43.898
41.637
39.3571
37.0623
34.7563
32.442
30.1224
27.7996
25.4757
23.1521
20.8296
18.5084
16.1876
13.8648
11.5362
9.19566
6.83429
4.43996
2.0181
49.2139
47.051
44.8543
42.6269
40.3725
38.0946
35.7968
33.4818
31.1523
28.8105
26.4581
24.0964
21.7259
19.3463
16.9563
14.5531
12.1324
9.6877
7.21
4.68711
2.12348
49.9525
47.8329
45.6738
43.4778
41.2478
38.987
36.6986
34.3852
32.0491
29.6924
27.3166
24.9227
22.5109
20.0806
17.6301
15.1564
12.6547
10.1183
7.53809
4.90194
2.21269
50.5719
48.4903
46.3645
44.1969
41.9894
39.7449
37.4662
35.1557
32.8154
30.4473
28.0524
25.6316
23.1849
20.7113
18.2088
15.6742
13.1025
10.4866
7.81762
5.08347
2.28541
51.0863
49.037
46.9403
44.7975
42.61
40.3803
38.1109
35.8041
33.4615
31.0847
28.6747
26.2321
23.7565
21.2468
18.7009
16.1151
13.4842
10.8013
8.05701
5.23965
2.34776
51.4931
49.4703
47.3973
45.2751
43.1043
40.8872
38.626
36.3227
33.9788
31.5955
29.1737
26.7137
24.215
21.6762
19.0949
16.4674
13.7882
11.0504
8.24462
5.35943
2.39185
51.817
49.8148
47.7605
45.6543
43.4968
41.2898
39.0354
36.7353
34.3909
32.003
29.5725
27.0994
24.583
22.022
19.4135
16.7538
14.0373
11.2567
8.40264
5.46349
2.43272
52.0251
50.0368
47.9948
45.8995
43.7509
41.5507
39.3009
37.003
34.6582
32.2672
29.8308
27.3488
24.8204
22.2442
19.6171
16.9353
14.193
11.3827
8.49487
5.51818
2.44571
52.1772
50.1963
48.1609
46.0711
43.9269
41.7299
39.4821
37.1847
34.839
32.4457
30.0053
27.5178
24.9823
22.397
19.7593
17.0648
14.3078
11.4801
8.57132
5.56732
2.4505
)
;

boundaryField
{
    inlet
    {
        type            zeroGradient;
    }
    outlet
    {
        type            fixedValue;
        value           uniform 0;
    }
    flap
    {
        type            zeroGradient;
    }
    upperWall
    {
        type            zeroGradient;
    }
    lowerWall
    {
        type            zeroGradient;
    }
    frontAndBack
    {
        type            empty;
    }
    procBoundary2to1
    {
        type            processor;
        value           nonuniform List<scalar> 
17
(
37.5188
39.9862
42.1631
44.0753
45.7491
47.2097
48.4802
49.5804
50.5286
51.34
52.0297
52.6068
53.0854
53.4631
53.7646
53.9575
54.1014
)
;
    }
    procBoundary2to4
    {
        type            processor;
        value           nonuniform List<scalar> 
11
(
6.36499
6.88264
8.73712
10.9804
13.818
17.2014
20.8832
24.6263
28.2529
31.6452
34.7406
)
;
    }
    procBoundary2to5
    {
        type            processor;
        value           nonuniform List<scalar> 
34
(
6.31989
6.62926
7.53061
7.53061
7.08537
7.11926
7.11926
8.832
8.832
8.30942
7.48927
7.48927
6.64663
6.36029
6.36029
5.92647
5.92647
4.99662
3.84854
3.84854
3.0568
3.0568
1.93175
1.89477
1.89477
2.05438
2.05438
1.39185
1.36328
1.36328
1.08186
1.08186
0.469054
0.469054
)
;
    }
}


// ************************************************************************* //
