/*--------------------------------*- C++ -*----------------------------------*\
| =========                 |                                                 |
| \\      /  F ield         | OpenFOAM: The Open Source CFD Toolbox           |
|  \\    /   O peration     | Version:  dev                                   |
|   \\  /    A nd           | Web:      www.OpenFOAM.org                      |
|    \\/     M anipulation  |                                                 |
\*---------------------------------------------------------------------------*/
FoamFile
{
    version     2.0;
    format      ascii;
    class       surfaceVectorField;
    location    "0.42";
    object      Uf;
}
// * * * * * * * * * * * * * * * * * * * * * * * * * * * * * * * * * * * * * //

dimensions      [0 1 -1 0 0 0 0];

internalField   nonuniform List<vector> 
881
(
(9.91727 -3.47153e-22 0.0238216)
(9.96319 3.44391e-22 0.0388267)
(9.82024 1.94599e-22 0.0311912)
(9.92333 4.63857e-26 0.0467809)
(9.7071 5.50884e-22 0.0373228)
(9.85559 1.82121e-22 0.0560995)
(9.5758 -2.0322e-22 0.0436091)
(9.76035 1.89539e-22 0.0669378)
(9.42621 -1.22941e-21 0.0501156)
(9.64464 -3.86138e-22 0.078402)
(9.25837 -8.3677e-22 0.0569029)
(9.51095 -8.11956e-22 0.0904196)
(9.07195 8.69649e-22 0.0641164)
(9.35863 -1.21856e-23 0.103218)
(8.86628 1.08879e-21 0.0719023)
(9.18659 8.68904e-22 0.117025)
(8.64044 4.67927e-22 0.0803898)
(8.9939 -4.12293e-21 0.132033)
(8.39337 2.35989e-22 0.0897021)
(8.77967 3.76934e-21 0.148418)
(8.12384 0 0.0999632)
(8.54279 9.94245e-22 0.166357)
(7.8305 4.54295e-21 0.111299)
(8.282 -1.04268e-21 0.186023)
(7.51192 9.31258e-22 0.123832)
(7.9959 4.48275e-21 0.20758)
(7.16666 -3.39808e-21 0.13768)
(7.68304 -2.32684e-20 0.231166)
(6.79331 0 0.152938)
(7.34194 2.16133e-20 0.256879)
(6.39066 -2.7667e-21 0.169665)
(6.97124 0 0.284745)
(5.9578 1.20618e-20 0.187858)
(6.56976 -2.18806e-20 0.314672)
(5.49435 2.19761e-21 0.207418)
(6.1367 3.42001e-20 0.346411)
(5.00069 -1.83747e-20 0.228095)
(5.67187 -1.20337e-20 0.37948)
(4.47835 -6.33054e-21 0.249417)
(5.17591 -5.12783e-20 0.413083)
(4.65068 1.06404e-19 0.445999)
(9.99761 6.84071e-22 0.0496609)
(9.99045 1.71751e-22 0.0399494)
(9.96112 -1.20797e-23 0.0675235)
(9.97603 1.05222e-24 0.064373)
(9.9033 -1.77528e-22 0.0833114)
(9.93744 -3.59807e-22 0.0847684)
(9.82562 0 0.0999408)
(9.87215 0 0.10654)
(9.7279 2.54461e-23 0.117524)
(9.78596 0 0.129623)
(9.61001 2.47583e-23 0.136138)
(9.68145 2.51016e-23 0.153934)
(9.47163 0 0.156079)
(9.55822 3.56427e-21 0.179837)
(9.31217 -4.41061e-21 0.177667)
(9.41529 3.55508e-21 0.207762)
(9.13077 -7.12681e-22 0.201187)
(9.25188 -1.15317e-20 0.238093)
(8.9264 4.49005e-21 0.226907)
(9.06716 3.53004e-21 0.271192)
(8.69787 -7.58279e-23 0.255092)
(8.86015 1.16378e-24 0.30742)
(8.44384 -1.02869e-21 0.285996)
(8.62969 -2.0721e-21 0.347135)
(8.16287 -2.00955e-20 0.319848)
(8.37447 -1.76253e-20 0.390678)
(7.85347 2.33691e-21 0.356832)
(8.09307 1.90662e-20 0.438348)
(7.51418 2.13231e-20 0.397049)
(7.78406 1.78502e-22 0.490371)
(7.14364 -1.93874e-20 0.440459)
(7.44602 -4.09836e-20 0.546836)
(6.74076 9.69617e-22 0.486822)
(7.07764 2.29789e-20 0.607611)
(6.30493 1.93487e-20 0.535611)
(6.67787 1.96164e-20 0.672253)
(5.83622 -4.5373e-20 0.585896)
(6.2461 -1.1766e-20 0.739878)
(5.3357 6.34985e-20 0.636208)
(5.7824 -4.4771e-20 0.808987)
(5.28777 1.06424e-19 0.877266)
(9.9902 -5.13663e-22 0.0572777)
(9.98813 -3.41505e-22 0.0445476)
(9.95679 -3.54745e-22 0.0847683)
(9.9711 5.2375e-22 0.0804858)
(9.90238 -1.77743e-22 0.110788)
(9.93344 -5.39107e-22 0.111745)
(9.82948 0 0.138236)
(9.87106 2.98381e-21 0.143711)
(9.73833 0 0.167426)
(9.78869 -3.06152e-21 0.1774)
(9.62879 3.613e-21 0.198511)
(9.68894 3.21301e-21 0.212954)
(9.5006 7.11593e-21 0.231894)
(9.57168 6.04522e-23 0.25082)
(9.35331 -3.77585e-21 0.268046)
(9.43611 -3.41207e-21 0.291575)
(9.18626 -7.08368e-21 0.307416)
(9.2816 -4.81003e-22 0.335774)
(8.99858 -1.00481e-21 0.350446)
(9.1075 9.38602e-22 0.383948)
(8.78926 -2.02375e-21 0.397576)
(8.91306 -9.91538e-22 0.436631)
(8.55714 -1.88803e-20 0.44924)
(8.69732 -1.56342e-20 0.494357)
(8.30094 2.20301e-20 0.505837)
(8.45922 1.69574e-20 0.557644)
(8.01929 1.66672e-20 0.567701)
(8.19757 2.32076e-20 0.626965)
(7.71078 -6.26776e-20 0.635045)
(7.91113 -2.14309e-20 0.702696)
(7.37401 2.19792e-21 0.707872)
(7.59867 -3.6007e-20 0.785055)
(7.0077 4.15492e-20 0.785866)
(7.25892 4.21192e-20 0.873973)
(6.61082 -1.19252e-20 0.868259)
(6.8907 8.95633e-20 0.968964)
(6.18279 -1.16096e-20 0.953652)
(6.49308 -1.03652e-19 1.06895)
(5.72366 0 1.03979)
(6.06545 -1.21634e-20 1.17203)
(5.60773 2.33139e-19 1.27519)
(9.986 7.0725e-22 0.0682518)
(9.98685 6.76777e-22 0.0511188)
(9.95266 3.24195e-22 0.106798)
(9.96807 3.4937e-22 0.0965623)
(9.8992 2.67151e-21 0.143865)
(9.93027 2.87489e-21 0.138257)
(9.82747 -1.52907e-22 0.182068)
(9.86902 -2.93889e-21 0.18029)
(9.73807 2.37575e-22 0.222192)
(9.78831 -1.1673e-23 0.224266)
(9.63097 -3.8607e-22 0.264666)
(9.69065 3.21319e-21 0.270667)
(9.50598 -1.05184e-20 0.310063)
(9.57605 -1.01571e-20 0.320039)
(9.36279 -7.84576e-23 0.359017)
(9.44386 -5.73076e-22 0.373062)
(9.20094 7.56085e-21 0.412159)
(9.29354 2.20524e-20 0.430426)
(9.01978 9.26063e-22 0.470107)
(9.12462 -1.4822e-20 0.492801)
(8.81857 -1.47998e-20 0.53348)
(8.93649 1.94739e-21 0.560861)
(8.59642 2.06433e-20 0.60289)
(8.72844 1.84484e-20 0.63528)
(8.35238 1.82231e-20 0.67892)
(8.49962 3.53258e-20 0.716722)
(8.08538 -1.54856e-20 0.762074)
(8.24915 -1.4935e-20 0.805805)
(7.79434 5.05145e-21 0.852726)
(7.97603 8.53898e-22 0.90304)
(7.47813 4.91898e-21 0.95102)
(7.67931 -3.90655e-20 1.00878)
(7.13561 9.07637e-20 1.05672)
(7.35794 9.42988e-20 1.12309)
(6.76569 -4.58846e-21 1.16904)
(7.01085 -8.47334e-20 1.24556)
(6.36745 -1.0303e-19 1.28642)
(6.63698 1.00398e-20 1.37512)
(5.9402 2.24228e-19 1.40627)
(6.23534 2.05932e-19 1.50976)
(5.80504 2.37084e-19 1.64625)
(9.98401 3.14638e-22 0.0800277)
(9.98624 -6.75509e-22 0.0586253)
(9.9503 2.93556e-21 0.12824)
(9.96659 -3.47405e-22 0.112821)
(9.89771 -2.80928e-21 0.175174)
(9.92886 3.23382e-21 0.164338)
(9.82727 -2.75641e-21 0.223242)
(9.86877 -5.55555e-21 0.216212)
(9.73963 3.00829e-21 0.273612)
(9.78989 8.99325e-21 0.270216)
(9.63483 -6.74389e-21 0.326966)
(9.69453 -6.28997e-21 0.327146)
(9.51272 -7.57371e-23 0.383992)
(9.58273 -6.44893e-21 0.387676)
(9.37302 2.1869e-20 0.445427)
(9.45393 -6.94609e-21 0.452579)
(9.21534 -8.33211e-22 0.512012)
(9.30765 3.0358e-20 0.522652)
(9.03916 -1.35776e-20 0.584479)
(9.14347 -2.63414e-21 0.598683)
(8.84386 3.54185e-20 0.66356)
(8.96089 -1.53496e-20 0.68146)
(8.62876 3.3357e-20 0.749983)
(8.75931 3.50764e-20 0.771771)
(8.39307 1.49894e-21 0.844448)
(8.53803 4.95257e-21 0.870393)
(8.13597 1.62704e-21 0.94758)
(8.29631 7.21752e-22 0.978063)
(7.85661 -4.37732e-20 1.05987)
(8.03334 8.54137e-22 1.0954)
(7.55408 5.20758e-20 1.18159)
(7.74828 -4.40628e-20 1.22289)
(7.22744 -8.34662e-20 1.31264)
(7.44022 1.45441e-21 1.36072)
(6.87563 -6.88999e-20 1.45235)
(7.10822 -8.97004e-20 1.50867)
(6.49758 3.21627e-19 1.59921)
(6.75115 2.83476e-19 1.66578)
(6.09212 2.19637e-19 1.75062)
(6.36772 2.02874e-20 1.8302)
(5.95643 -4.53303e-20 1.9988)
(9.98313 -1.31433e-21 0.0921372)
(9.98598 -3.36731e-21 0.0665443)
(9.9493 9.57168e-25 0.149419)
(9.96607 -4.20807e-25 0.129138)
(9.89776 3.72698e-22 0.205906)
(9.92879 7.09467e-22 0.189901)
(9.829 6.3877e-21 0.263766)
(9.87012 2.11688e-25 0.251285)
(9.74354 -5.14905e-22 0.324314)
(9.7934 6.13355e-21 0.315026)
(9.6415 -5.99727e-21 0.388402)
(9.70077 -6.24151e-21 0.38215)
(9.52273 -1.33206e-20 0.456816)
(9.59227 2.03542e-22 0.453473)
(9.38698 2.05079e-21 0.530384)
(9.46739 -1.33431e-20 0.529859)
(9.23391 2.81093e-20 0.609948)
(9.3257 7.65504e-22 0.612199)
(9.06307 -4.57868e-21 0.696348)
(9.16683 3.13956e-20 0.701386)
(8.87389 -1.50258e-20 0.790425)
(8.99033 -1.72998e-20 0.798309)
(8.66578 6.26343e-21 0.893016)
(8.79566 3.23662e-20 0.903858)
(8.43806 4.12278e-21 1.00493)
(8.58219 -3.31448e-20 1.01891)
(8.19001 -3.86832e-23 1.12691)
(8.34923 3.09447e-20 1.14432)
(7.92084 0 1.25956)
(8.09607 -3.62521e-20 1.28081)
(7.62972 -9.40962e-20 1.40328)
(7.82183 0 1.429)
(7.31575 -5.96467e-21 1.55814)
(7.52563 -1.18134e-20 1.58921)
(6.97788 2.67463e-19 1.72365)
(7.2065 -8.32076e-20 1.76142)
(6.61482 -2.10109e-20 1.89852)
(6.86314 2.57608e-19 1.94494)
(6.225 -2.45324e-19 2.0804)
(6.49398 -1.86644e-19 2.13822)
(6.09697 -1.25827e-21 2.33852)
(9.98288 -1.9706e-21 0.104337)
(9.98591 -2.01266e-21 0.0745827)
(9.94932 7.28833e-22 0.170283)
(9.96619 1.37071e-21 0.145325)
(9.89904 3.27208e-22 0.235917)
(9.92973 1.41786e-21 0.214843)
(9.83228 -1.69641e-22 0.303226)
(9.87276 -3.6735e-22 0.285345)
(9.74942 2.37083e-22 0.37358)
(9.79852 -1.858e-22 0.358483)
(9.65059 4.71794e-23 0.447976)
(9.70904 4.87806e-26 0.435427)
(9.53571 -1.11079e-24 0.527321)
(9.60434 -1.03319e-22 0.517131)
(9.40454 -1.44317e-20 0.612536)
(9.48396 -1.31362e-20 0.604551)
(9.25677 4.46259e-21 0.704563)
(9.34751 -1.23019e-21 0.698667)
(9.09199 1.80242e-20 0.804342)
(9.19468 1.7346e-20 0.800467)
(8.9097 3.07532e-20 0.912814)
(9.02505 0 0.910939)
(8.70933 -7.90168e-21 1.03092)
(8.83812 6.42822e-20 1.03107)
(8.49025 -5.48603e-21 1.15956)
(8.63329 -1.03463e-19 1.16185)
(8.25177 -6.1296e-21 1.2996)
(8.4099 6.51601e-20 1.30422)
(7.99309 -3.57919e-20 1.45178)
(8.16724 -4.07391e-20 1.45907)
(7.71335 8.21557e-20 1.61662)
(7.9044 -7.13882e-20 1.62714)
(7.41153 -8.99599e-20 1.79439)
(7.62042 1.59008e-19 1.80894)
(7.08643 -8.89476e-20 1.98485)
(7.31412 -1.7822e-19 2.00467)
(6.73653 8.66571e-20 2.18707)
(6.984 7.62807e-20 2.21401)
(6.35977 5.98208e-20 2.39912)
(6.62812 1.03788e-22 2.43586)
(6.24388 2.44572e-20 2.66804)
(9.98301 1.42986e-21 0.11643)
(9.98597 2.2171e-24 0.0825604)
(9.95009 2.07118e-21 0.190681)
(9.96675 5.46928e-21 0.161204)
(9.90132 6.98412e-22 0.265038)
(9.93145 -2.09702e-21 0.239043)
(9.83685 -3.81014e-22 0.341403)
(9.87646 0 0.31824)
(9.75698 -4.20324e-22 0.421171)
(9.80503 -2.96756e-25 0.400383)
(9.66183 -1.51806e-22 0.505461)
(9.71909 -6.28505e-21 0.48673)
(9.55136 -1.34143e-20 0.595285)
(9.61867 6.18749e-21 0.578356)
(9.42538 2.29993e-22 0.691658)
(9.50335 -1.31414e-20 0.676307)
(9.28361 1.19074e-20 0.79561)
(9.37279 1.38766e-20 0.781649)
(9.12567 -9.09081e-22 0.908176)
(9.22671 -1.82594e-21 0.895461)
(8.95111 3.43731e-20 1.03039)
(9.06475 -3.2116e-20 1.01882)
(8.75941 -3.34706e-20 1.1633)
(8.88644 9.4464e-20 1.15283)
(8.54993 -3.06412e-20 1.30792)
(8.69122 -1.31234e-19 1.29856)
(8.322 2.92007e-20 1.46524)
(8.47845 6.78069e-20 1.4571)
(8.07479 -7.67295e-20 1.63614)
(8.24737 6.7047e-20 1.62948)
(7.80735 8.31609e-21 1.82136)
(7.99708 -1.53762e-19 1.81663)
(7.5185 6.66076e-20 2.02137)
(7.72648 7.7908e-20 2.01929)
(7.20681 -9.86921e-21 2.23626)
(7.43418 1.51936e-19 2.23796)
(6.87038 -1.1243e-20 2.46556)
(7.11839 -1.54872e-19 2.47274)
(6.50672 -3.50038e-20 2.70793)
(6.77681 -1.7611e-19 2.7231)
(6.40626 1.44745e-19 2.98762)
(9.98339 4.15219e-21 0.128264)
(9.98611 1.31935e-21 0.0903573)
(9.95143 1.17549e-21 0.210473)
(9.96764 2.73612e-21 0.176624)
(9.90442 -2.76653e-21 0.29313)
(9.93379 -1.39701e-21 0.262371)
(9.84254 3.80662e-22 0.378129)
(9.88106 -3.58783e-21 0.349822)
(9.76601 -5.95089e-21 0.466887)
(9.81274 -6.34051e-21 0.440535)
(9.67498 2.26742e-22 0.560611)
(9.73072 -1.13799e-22 0.535826)
(9.56943 6.20265e-21 0.660411)
(9.63503 -6.52854e-21 0.636868)
(9.44922 8.70536e-22 0.76739)
(9.52528 -5.85661e-22 0.744797)
(9.3141 -6.55261e-23 0.882661)
(9.40121 1.36204e-20 0.86076)
(9.16375 -3.3433e-20 1.00735)
(9.26256 -2.87201e-20 0.985918)
(8.99777 2.96236e-20 1.14259)
(9.10904 -8.82293e-22 1.12144)
(8.81566 -6.21122e-21 1.28953)
(8.94022 8.96877e-20 1.26853)
(8.61683 -3.02418e-20 1.44931)
(8.7556 -6.46012e-20 1.42838)
(8.40058 1.05653e-19 1.62305)
(8.55454 -6.67006e-20 1.6022)
(8.16609 -1.27181e-20 1.81183)
(8.3363 2.10471e-19 1.7912)
(7.91231 -8.13362e-20 2.01661)
(8.09993 -1.49439e-19 1.99651)
(7.63793 1.64154e-19 2.23816)
(7.84428 0 2.21917)
(7.34125 3.34676e-21 2.47698)
(7.56777 3.24919e-19 2.46006)
(7.02006 -3.20108e-19 2.73313)
(7.26839 -4.9011e-19 2.71976)
(6.67136 7.26652e-21 3.00602)
(6.94346 -8.26975e-21 2.99846)
(6.58929 1.7954e-19 3.29564)
(9.98396 -7.76267e-23 0.13972)
(9.98631 3.37937e-25 0.0978877)
(9.95321 8.62025e-23 0.22953)
(9.96877 1.33936e-21 0.191462)
(9.90822 -2.24057e-21 0.320058)
(9.93662 3.09693e-23 0.284704)
(9.84919 -1.03472e-20 0.413241)
(9.88642 2.86532e-21 0.379952)
(9.77635 -4.18642e-22 0.510521)
(9.8215 -1.25898e-20 0.478762)
(9.68984 -6.95143e-21 0.613174)
(9.74375 6.50337e-21 0.582496)
(9.58968 -1.32343e-20 0.722399)
(9.65321 -1.30171e-20 0.692409)
(9.47576 1.23558e-20 0.839375)
(9.54952 -5.8246e-22 0.809716)
(9.34791 -1.55918e-20 0.965299)
(9.43247 -4.64238e-22 0.935637)
(9.20586 4.19419e-21 1.10138)
(9.30189 -1.47373e-20 1.07141)
(9.04925 6.03613e-20 1.24885)
(9.15753 3.21553e-20 1.21831)
(8.87765 2.93288e-20 1.40895)
(8.99903 4.96836e-22 1.3776)
(8.6905 -1.01087e-19 1.58297)
(8.82595 3.17998e-20 1.55062)
(8.48715 4.15565e-20 1.77218)
(8.6377 -1.00382e-19 1.73872)
(8.26674 6.9354e-20 1.97785)
(8.43358 2.11803e-19 1.94327)
(8.02821 -6.62574e-20 2.20122)
(8.21265 -1.3714e-19 2.16565)
(7.77014 1.64709e-19 2.44341)
(7.97372 0 2.40723)
(7.49069 -1.78099e-19 2.7054)
(7.71516 2.44193e-19 2.6693)
(7.18736 -1.72714e-19 2.98791)
(7.43482 -2.39844e-19 2.95306)
(6.85677 1.66155e-19 3.29121)
(7.12976 -1.0216e-20 3.25948)
(6.79594 -1.58676e-19 3.58913)
(9.98466 1.43556e-21 0.150705)
(9.98655 -5.2281e-21 0.105087)
(9.95534 1.24671e-21 0.247736)
(9.97009 2.69152e-21 0.205615)
(9.91259 5.18386e-21 0.345692)
(9.93987 2.7415e-21 0.305926)
(9.85668 4.2395e-22 0.446583)
(9.89244 1.21442e-20 0.408496)
(9.78784 -5.40925e-21 0.551882)
(9.83119 -1.09699e-20 0.514901)
(9.70621 1.75555e-22 0.662922)
(9.75802 7.52439e-22 0.626543)
(9.61186 -1.93752e-22 0.780974)
(9.673 -2.22686e-25 0.744741)
(9.50474 -1.34007e-20 0.907293)
(9.5758 1.30069e-20 0.870779)
(9.38473 2.02647e-22 1.04314)
(9.46629 -4.04367e-20 1.00595)
(9.25162 1.38351e-20 1.18982)
(9.34435 2.73074e-20 1.15155)
(9.10513 -2.81292e-20 1.34864)
(9.20981 2.03874e-24 1.30894)
(8.9449 3.35542e-21 1.52095)
(9.0624 -2.77352e-20 1.47949)
(8.77044 3.08683e-20 1.70817)
(8.90175 2.9349e-20 1.66462)
(8.58115 7.37449e-20 1.91173)
(8.72736 0 1.86585)
(8.37623 1.07261e-21 2.13313)
(8.53861 1.3984e-19 2.08472)
(8.15463 -6.92126e-20 2.37387)
(8.33463 -1.38498e-19 2.32285)
(7.91494 8.23903e-20 2.63549)
(8.11428 2.20385e-21 2.58196)
(7.65527 1.77009e-19 2.91949)
(7.87601 8.14435e-20 2.8638)
(7.37299 -7.45954e-20 3.22734)
(7.61765 8.8204e-20 3.1702)
(7.06452 -3.36937e-19 3.56032)
(7.33624 -1.5972e-19 3.50303)
(7.02762 -1.69896e-19 3.86408)
(9.98547 -3.82979e-21 0.161144)
(9.98683 -1.30716e-21 0.111905)
(9.95775 4.18689e-21 0.26499)
(9.97157 1.31782e-21 0.218996)
(9.91746 9.83196e-21 0.369915)
(9.94345 2.21562e-23 0.325934)
(9.8649 4.59829e-22 0.478016)
(9.89901 5.69085e-21 0.435333)
(9.80033 -4.64966e-21 0.590799)
(9.84167 -5.09676e-21 0.548806)
(9.72392 5.66637e-22 0.709647)
(9.77337 3.65984e-22 0.667787)
(9.63576 1.3374e-20 0.83589)
(9.6942 9.64996e-22 0.793648)
(9.53589 -1.47308e-20 0.970848)
(9.60388 1.26118e-20 0.927733)
(9.42422 -1.24538e-20 1.11585)
(9.50235 -2.72143e-20 1.07139)
(9.30065 1.31218e-20 1.27226)
(9.38956 1.40051e-20 1.22598)
(9.16496 4.43035e-23 1.44147)
(9.26544 -9.04735e-22 1.39293)
(9.01689 -1.02875e-21 1.62495)
(9.12981 -3.04181e-20 1.57368)
(8.85605 -1.89439e-21 1.8242)
(8.9824 3.10956e-20 1.76978)
(8.68194 6.7828e-20 2.04085)
(8.82284 0 1.98284)
(8.49386 -3.02232e-21 2.27658)
(8.65063 6.70145e-20 2.21461)
(8.29087 -6.53832e-20 2.5332)
(8.46504 -6.84517e-20 2.46693)
(8.07168 2.17839e-21 2.81264)
(8.26511 -7.18734e-20 2.74184)
(7.83447 -7.26335e-21 3.11699)
(8.04945 7.33441e-20 3.04155)
(7.57673 3.98482e-22 3.44846)
(7.8161 -4.84418e-21 3.36854)
(7.29494 7.32815e-21 3.80945)
(7.56234 1.57535e-19 3.72557)
(7.28425 5.91974e-22 4.11575)
(9.98637 3.912e-21 0.170976)
(9.98714 3.96031e-23 0.118303)
(9.9604 -2.86454e-21 0.281205)
(9.97317 -3.93712e-21 0.231535)
(9.92274 -4.04112e-21 0.392622)
(9.94732 -2.74135e-21 0.344636)
(9.87375 0 0.507412)
(9.90605 0 0.460356)
(9.81369 -6.81069e-24 0.627117)
(9.85284 -5.76416e-21 0.580346)
(9.74278 7.72562e-22 0.75316)
(9.78965 -6.7441e-21 0.70607)
(9.66117 3.56237e-22 0.886924)
(9.71661 2.52201e-20 0.838942)
(9.56892 -3.9207e-22 1.02978)
(9.63352 -1.17848e-20 0.980353)
(9.46605 -2.20558e-22 1.18311)
(9.54034 0 1.1317)
(9.35252 -2.1494e-22 1.34833)
(9.43716 -2.75388e-20 1.29439)
(9.22824 -3.17461e-20 1.52691)
(9.32397 2.77151e-20 1.46989)
(9.09303 2.45844e-21 1.72039)
(9.20071 -2.99984e-20 1.65973)
(8.94665 3.26084e-20 1.9304)
(9.06725 3.20853e-20 1.86553)
(8.78874 0 2.15869)
(8.92337 0 2.08902)
(8.61875 0 2.40715)
(8.76873 -6.47437e-20 2.33207)
(8.43595 -7.49792e-20 2.67786)
(8.60285 1.30271e-19 2.59676)
(8.23927 8.97111e-22 2.97311)
(8.42499 -2.06626e-19 2.88539)
(8.02717 7.48776e-20 3.29552)
(8.2341 1.40127e-19 3.20059)
(7.79747 1.54195e-19 3.64808)
(8.02864 2.60907e-21 3.54541)
(7.54707 1.49396e-19 4.03427)
(7.8064 7.68329e-20 3.92345)
(7.56416 7.7282e-20 4.33904)
(9.98733 -7.86336e-21 0.180149)
(9.98747 -3.87436e-25 0.124248)
(9.96323 -3.79742e-21 0.296306)
(9.97487 -2.62622e-21 0.243172)
(9.92836 1.33782e-21 0.413718)
(9.95141 2.69555e-21 0.361954)
(9.88312 -5.84292e-21 0.534659)
(9.91348 5.53725e-21 0.483469)
(9.82779 -1.25172e-20 0.660704)
(9.86458 -1.28504e-20 0.609407)
(9.76264 1.81329e-20 0.793309)
(9.80671 -6.73799e-21 0.741256)
(9.68784 1.25933e-20 0.933894)
(9.74005 2.29442e-20 0.880461)
(9.60355 -1.124e-20 1.08387)
(9.66444 -2.54691e-20 1.02845)
(9.50986 -2.76769e-20 1.24466)
(9.57996 1.28067e-20 1.18664)
(9.40682 1.08186e-21 1.41773)
(9.48673 -2.77386e-20 1.3565)
(9.29444 2.87385e-20 1.60459)
(9.38489 2.77217e-20 1.53951)
(9.1727 3.86863e-22 1.80685)
(9.2745 7.98583e-22 1.73726)
(9.0415 -9.26351e-22 2.02623)
(9.15557 -9.38081e-22 1.95141)
(8.90065 -6.55468e-20 2.26458)
(9.02807 7.26047e-24 2.18378)
(8.74984 6.78e-20 2.52396)
(8.89188 -1.69908e-21 2.43636)
(8.58861 -5.26185e-21 2.80665)
(8.74678 3.37767e-21 2.71136)
(8.41623 -6.35776e-20 3.11528)
(8.5924 -6.79893e-20 3.01131)
(8.23161 6.62683e-20 3.4529)
(8.42811 6.6778e-20 3.33915)
(8.03317 -7.39703e-20 3.82315)
(8.253 2.10254e-21 3.69837)
(7.81857 4.78085e-21 4.23045)
(8.06564 -7.12807e-20 4.09323)
(7.86397 7.4463e-20 4.52904)
(9.98835 5.20084e-21 0.188624)
(9.96621 3.94034e-21 0.310229)
(9.93427 6.93398e-21 0.43312)
(9.95568 -1.15487e-21 0.377824)
(9.89292 -1.70538e-21 0.559649)
(9.92123 -2.1191e-21 0.504596)
(9.8425 -6.99078e-21 0.691421)
(9.87679 -5.76645e-22 0.635898)
(9.7833 -1.53056e-21 0.829915)
(9.82443 0 0.773235)
(9.71556 -1.57562e-20 0.976581)
(9.76437 5.72935e-22 0.918076)
(9.6395 -9.28926e-22 1.13285)
(9.69651 -1.36145e-20 1.07187)
(9.55528 1.22256e-20 1.30019)
(9.62101 1.01487e-21 1.23605)
(9.46308 -4.06699e-22 1.48007)
(9.53809 3.70814e-20 1.41211)
(9.36302 -5.61855e-22 1.67406)
(9.44801 -5.09163e-20 1.60154)
(9.25522 -5.47943e-22 1.88379)
(9.35096 -6.75561e-22 1.80595)
(9.13976 7.35108e-24 2.11103)
(9.24712 2.68834e-20 2.02705)
(9.01666 6.38528e-20 2.35772)
(9.13666 5.43988e-25 2.26668)
(8.8859 -6.60656e-20 2.626)
(9.01973 6.51817e-20 2.5269)
(8.74733 -6.02307e-20 2.91833)
(8.89642 -6.96326e-20 2.80999)
(8.60067 6.38386e-20 3.23753)
(8.76676 7.47853e-21 3.11861)
(8.44544 1.85152e-21 3.58695)
(8.6307 0 3.45588)
(8.28085 3.97133e-21 3.97069)
(8.48804 1.79034e-21 3.82552)
(8.10568 -1.71162e-22 4.39384)
(8.33842 6.30534e-20 4.23216)
(8.18121 9.32447e-22 4.68167)
(9.94052 -1.05407e-20 0.451116)
(9.90328 -9.55373e-22 0.582778)
(9.92952 -8.00479e-21 0.524352)
(9.85803 6.67923e-21 0.71978)
(9.88983 2.95125e-21 0.660584)
(9.80511 2.18078e-21 0.863616)
(9.84332 3.98563e-21 0.802923)
(9.74481 2.8792e-21 1.01575)
(9.79024 7.99886e-22 0.952848)
(9.67742 -1.16899e-20 1.17763)
(9.7306 -6.45394e-22 1.11181)
(9.60322 2.65953e-20 1.35073)
(9.6646 -1.0974e-20 1.28127)
(9.52247 -1.47958e-20 1.53653)
(9.59261 3.86834e-20 1.46269)
(9.43544 -5.13876e-20 1.73661)
(9.51497 -7.71824e-20 1.65758)
(9.34242 2.75966e-20 1.9526)
(9.43205 5.04206e-20 1.86754)
(9.24367 2.70581e-20 2.18631)
(9.34421 1.05128e-21 2.09427)
(9.13947 9.30352e-22 2.43969)
(9.25185 8.15709e-22 2.33961)
(9.0301 6.25446e-20 2.71492)
(9.15539 -2.72643e-20 2.60561)
(8.91582 1.45701e-22 3.01452)
(9.05529 8.86206e-20 2.89457)
(8.79686 -5.87728e-20 3.34138)
(8.95205 -6.10958e-20 3.20915)
(8.67344 -7.27608e-23 3.699)
(8.84622 0 3.55245)
(8.54575 6.27052e-20 4.09162)
(8.73845 5.29842e-20 3.92823)
(8.41395 6.50467e-20 4.52458)
(8.62954 3.24865e-21 4.34111)
(8.52052 5.84408e-20 4.79692)
(9.9142 -4.00086e-21 0.603967)
(9.87435 1.89888e-22 0.745637)
(9.90344 -5.25021e-21 0.682853)
(9.82796 2.56773e-21 0.894184)
(9.86298 5.37374e-21 0.829582)
(9.77538 -2.81159e-21 1.05107)
(9.81714 -1.41124e-21 0.983909)
(9.71699 7.79543e-23 1.21776)
(9.76595 -1.09462e-20 1.14728)
(9.65315 1.43886e-21 1.3957)
(9.70975 8.30276e-24 1.32114)
(9.58424 -2.52769e-20 1.58637)
(9.64897 -6.22054e-23 1.50693)
(9.51069 2.71135e-20 1.79132)
(9.5841 -1.35213e-20 1.70614)
(9.43293 2.32127e-20 2.01219)
(9.51566 5.1768e-20 1.92033)
(9.35146 -2.58329e-20 2.25073)
(9.44421 -5.13613e-20 2.15115)
(9.26681 -2.80699e-20 2.50887)
(9.37037 1.53591e-21 2.40041)
(9.17959 -6.24617e-22 2.78877)
(9.29485 2.29223e-20 2.67006)
(9.09047 2.60662e-20 3.09287)
(9.21848 2.60017e-20 2.96234)
(9.00025 -9.04206e-22 3.42401)
(9.14223 -2.78332e-20 3.27976)
(8.90988 5.43389e-20 3.78558)
(9.06725 0 3.62527)
(8.82055 -7.58924e-21 4.18167)
(8.99502 5.78733e-20 4.00237)
(8.73385 -3.14325e-21 4.61734)
(8.92742 -6.1011e-20 4.41526)
(8.86703 5.64583e-20 4.86915)
(9.89134 7.05977e-23 0.76868)
(9.85171 1.28913e-21 0.921284)
(9.88335 -3.63239e-21 0.852911)
(9.80711 -9.75459e-21 1.0822)
(9.84495 3.80792e-21 1.0109)
(9.75799 -1.10175e-20 1.25286)
(9.80246 2.00234e-21 1.17786)
(9.7048 -1.54126e-21 1.4347)
(9.75628 -1.21874e-20 1.35518)
(9.64805 1.19563e-20 1.62916)
(9.70697 1.09447e-20 1.54428)
(9.58829 1.1734e-20 1.83774)
(9.65513 7.81048e-22 1.7466)
(9.52614 -2.46237e-20 2.06202)
(9.60144 -1.4272e-21 1.96361)
(9.46231 -2.33631e-20 2.30369)
(9.54662 -9.88826e-22 2.1969)
(9.39759 5.37164e-20 2.56458)
(9.49154 -2.4921e-20 2.44816)
(9.3329 5.02005e-20 2.84674)
(9.43718 2.8521e-20 2.71923)
(9.26933 -2.91189e-20 3.15245)
(9.3847 4.98716e-20 3.01213)
(9.20821 -2.69124e-20 3.48433)
(9.3355 -5.2971e-20 3.32916)
(9.15118 3.59436e-21 3.84543)
(9.29129 3.14064e-21 3.67292)
(9.10033 3.51052e-21 4.23937)
(9.25423 6.74601e-21 4.04641)
(9.05845 0 4.67049)
(9.22709 0 4.45313)
(9.21356 -2.50739e-20 4.89716)
(9.87618 -1.04558e-21 0.944506)
(9.83975 1.58488e-20 1.10864)
(9.87344 5.13139e-21 1.03349)
(9.8001 7.92106e-22 1.28236)
(9.83981 1.07692e-20 1.20315)
(9.75777 6.07285e-22 1.46707)
(9.80382 -1.09457e-20 1.38295)
(9.71338 -5.08141e-22 1.66414)
(9.76613 1.258e-20 1.57425)
(9.66761 -1.27021e-20 1.87502)
(9.72745 -2.09676e-20 1.77839)
(9.62125 2.27842e-20 2.10116)
(9.68859 1.09395e-20 1.99678)
(9.57518 -2.58797e-21 2.34416)
(9.65046 1.72303e-21 2.23085)
(9.53046 -5.0785e-20 2.60571)
(9.61411 -3.32348e-21 2.48216)
(9.4883 2.81838e-20 2.88763)
(9.58076 -2.51544e-20 2.75234)
(9.45014 2.56213e-20 3.19196)
(9.55188 2.928e-20 3.04317)
(9.41777 -2.21931e-20 3.52097)
(9.5292 2.16805e-20 3.35659)
(9.39337 6.36824e-21 3.87721)
(9.51487 -2.40183e-20 3.69475)
(9.37973 3.1513e-21 4.26359)
(9.51153 -2.06897e-20 4.05999)
(9.38047 -2.56802e-20 4.68338)
(9.52253 2.41953e-20 4.45489)
(9.55217 -2.56801e-20 4.88225)
(9.87303 -6.56141e-23 1.13005)
(9.84295 -1.26152e-21 1.30588)
(9.87768 -1.29334e-21 1.22281)
(9.81158 1.33619e-21 1.49238)
(9.85193 0 1.40406)
(9.77962 -8.38208e-21 1.69085)
(9.82588 6.24062e-23 1.5964)
(9.74788 3.24456e-21 1.90262)
(9.80035 -2.12755e-20 1.80106)
(9.71727 -1.06395e-20 2.12904)
(9.77624 1.2714e-20 2.01933)
(9.68887 9.6886e-22 2.37153)
(9.75461 -1.23125e-20 2.25249)
(9.66391 2.29272e-20 2.63159)
(9.73668 3.70259e-20 2.50189)
(9.64385 -2.41059e-20 2.91078)
(9.72386 -7.4658e-23 2.76893)
(9.63043 2.52494e-20 3.21081)
(9.71782 -2.42108e-20 3.05507)
(9.62576 1.99199e-20 3.53349)
(9.72056 4.03231e-20 3.36184)
(9.63239 -5.17235e-20 3.88077)
(9.73449 -2.78915e-20 3.69084)
(9.65353 7.17468e-22 4.25473)
(9.76253 -2.73673e-20 4.04372)
(9.69318 2.41931e-20 4.65749)
(9.80827 2.47803e-20 4.4221)
(9.87615 -8.0023e-21 4.8275)
(9.88617 0 1.32308)
(9.86573 -1.30388e-21 1.51026)
(9.84614 -1.31564e-20 1.70888)
(9.88566 1.12895e-21 1.61038)
(9.82827 -1.15982e-20 1.92014)
(9.87308 -9.40679e-21 1.81425)
(9.81318 1.09669e-20 2.14524)
(9.86345 -1.24919e-20 2.03092)
(9.80207 2.45803e-20 2.38541)
(9.85791 3.33341e-21 2.26149)
(9.79631 1.34887e-20 2.6419)
(9.8578 2.16023e-20 2.5071)
(9.79754 -1.48095e-22 2.91598)
(9.86466 1.03145e-20 2.76885)
(9.8077 -8.81523e-21 3.20897)
(9.88031 -1.07016e-20 3.04786)
(9.82906 -8.54117e-21 3.52218)
(9.90687 -1.40435e-20 3.34523)
(9.86439 -2.9423e-21 3.85693)
(9.94687 0 3.662)
(9.91702 -2.87203e-21 4.21444)
(10.0033 -5.51321e-21 3.9991)
(9.99096 -8.1971e-21 4.59577)
(10.0797 0 4.35729)
(10.1803 -3.43375e-21 4.73698)
(9.91224 4.97194e-21 1.71793)
(9.90795 -1.03244e-20 1.92729)
(9.9449 1.66148e-20 1.81772)
(9.90792 -2.03284e-20 2.14951)
(9.94927 -1.75308e-20 2.03135)
(9.91345 2.64671e-22 2.38561)
(9.95918 -5.45909e-21 2.25773)
(9.92603 1.83832e-20 2.63657)
(9.97603 5.49149e-22 2.49776)
(9.94738 -4.26251e-22 2.90334)
(10.0014 1.56132e-20 2.75225)
(9.97952 -1.60099e-20 3.18684)
(10.0373 -1.08477e-20 3.02196)
(10.0248 -5.29081e-21 3.48788)
(10.0856 2.0413e-21 3.30756)
(10.086 -2.63403e-21 3.80715)
(10.1491 -7.44718e-21 3.60955)
(10.1663 -2.57071e-21 4.14513)
(10.2304 -2.52734e-21 3.92825)
(10.2695 4.87813e-21 4.50195)
(10.3331 1.18096e-21 4.26363)
(10.4607 1.26434e-21 4.61526)
(9.98604 9.24241e-21 1.92393)
(10.0004 -2.29463e-21 2.14179)
(10.0217 -5.17864e-21 2.37217)
(10.0573 4.69784e-21 2.24128)
(10.0515 -2.29774e-21 2.61581)
(10.09 -9.91665e-21 2.4741)
(10.0915 4.96859e-21 2.87332)
(10.1325 5.09056e-21 2.71958)
(10.1437 7.64244e-21 3.14523)
(10.1867 2.30816e-21 2.97814)
(10.2104 -1.50769e-22 3.43188)
(10.2547 5.48266e-21 3.25002)
(10.2942 -7.33699e-21 3.73342)
(10.3387 -5.3984e-21 3.53528)
(10.3981 1.3153e-21 4.04969)
(10.4414 2.45711e-21 3.83369)
(10.5255 -2.51531e-21 4.38009)
(10.5657 3.41372e-21 4.14465)
(10.715 -1.5636e-21 4.46705)
(10.1257 -1.4643e-22 2.34536)
(10.1713 -2.3575e-21 2.58009)
(10.2282 2.36488e-21 2.82667)
(10.2565 0 2.67156)
(10.2983 9.68694e-23 3.08528)
(10.3271 2.29976e-21 2.91743)
(10.3838 1.26791e-22 3.35585)
(10.4122 -4.36247e-21 3.17411)
(10.4869 4.63473e-21 3.63808)
(10.5137 1.27227e-22 3.44126)
(10.6103 4.60689e-21 3.93129)
(10.6341 -3.76831e-21 3.71822)
(10.7569 4.39337e-21 4.23438)
(10.7759 8.70147e-21 4.00396)
(10.9416 1.03125e-22 4.29697)
(10.3561 -6.52381e-23 2.76441)
(10.4418 -2.26205e-21 3.00841)
(10.4571 -2.12515e-21 2.84115)
(10.5432 -4.36003e-21 3.26171)
(10.5567 1.95973e-21 3.08157)
(10.6623 -8.49677e-21 3.52365)
(10.6728 -4.30433e-21 3.32975)
(10.8014 3.93862e-22 3.7932)
(10.8074 -1.4161e-20 3.58472)
(10.9627 4.2979e-21 4.06892)
(10.9625 5.03456e-21 3.84518)
(11.1401 2.23515e-20 4.10937)
(10.5731 2.20847e-21 2.91622)
(10.6876 2.01344e-21 3.15154)
(10.8195 -1.01256e-20 3.39276)
(10.8151 -1.00258e-20 3.20308)
(10.9705 -9.46034e-21 3.63865)
(10.9606 -2.096e-20 3.43606)
(11.1423 2.35053e-20 3.88756)
(11.1253 1.72511e-20 3.67172)
(11.3107 3.71238e-20 3.90822)
(10.958 -2.11244e-20 3.24801)
(11.1176 6.34832e-21 3.47071)
(11.2963 3.11792e-20 3.69387)
(11.2646 1.92468e-20 3.48675)
(11.4545 1.23283e-20 3.69708)
(11.4256 -6.54942e-23 3.49103)
)
;

boundaryField
{
    inlet
    {
        type            calculated;
        value           uniform (10 0 0);
    }
    outlet
    {
        type            calculated;
        value           nonuniform 0();
    }
    flap
    {
        type            calculated;
        value           nonuniform 0();
    }
    upperWall
    {
        type            calculated;
        value           nonuniform 0();
    }
    lowerWall
    {
        type            calculated;
        value           uniform (0 0 0);
    }
    frontAndBack
    {
        type            empty;
        value           nonuniform 0();
    }
    procBoundary3to0
    {
        type            processor;
        value           nonuniform List<vector> 
34
(
(9.98782 2.60989e-21 0.129717)
(9.97666 2.29199e-22 0.25386)
(9.96938 -5.09156e-21 0.323167)
(9.96027 -1.62601e-22 0.392712)
(9.94713 2.43036e-21 0.467674)
(9.93819 0 0.542246)
(9.92559 -1.28741e-21 0.622933)
(9.91756 -1.28547e-21 0.702455)
(9.90887 -5.08157e-21 0.788575)
(9.90426 -5.07482e-21 0.872623)
(9.90116 1.26167e-21 0.963563)
(9.90239 1.26021e-21 1.05137)
(9.90664 0 1.14613)
(9.91573 0 1.23654)
(9.90018 0 1.41819)
(9.9197 2.49281e-21 1.52041)
(9.94486 7.04838e-21 1.61595)
(9.97727 1.89774e-20 1.71782)
(10.015 1.89343e-20 1.81138)
(10.0328 -7.1397e-21 2.02058)
(10.0897 2.68767e-23 2.12217)
(10.1511 2.92783e-21 2.21241)
(10.1985 -2.97007e-21 2.43659)
(10.2842 -5.54246e-22 2.5301)
(10.3722 0 2.60912)
(10.4741 -2.11069e-21 2.68774)
(10.5756 -4.12293e-21 2.75074)
(10.6873 4.67358e-22 2.97426)
(10.8163 -1.18461e-20 3.02746)
(10.9401 -9.86482e-21 3.06359)
(11.0935 -1.3245e-20 3.27498)
(11.243 -6.71405e-23 3.29224)
(11.3814 3.22609e-21 3.29315)
(11.5728 -1.22907e-20 3.47905)
)
;
    }
    procBoundary3to1
    {
        type            processor;
        value           nonuniform List<vector> 9((9.75644 -6.07924e-21 5.09112) (10.0911 -8.31875e-21 5.00162) (10.4 -7.24809e-22 4.87723) (10.68 -5.87325e-21 4.72347) (10.9297 -3.95885e-21 4.54568) (11.1485 -2.08852e-21 4.34885) (11.3367 3.99553e-20 4.13746) (11.4954 2.65289e-20 3.91548) (11.6262 0 3.68635));
    }
    procBoundary3to4
    {
        type            processor;
        value           nonuniform List<vector> 
19
(
(3.9303 -2.91893e-20 0.27058)
(4.80582 1.61396e-19 0.684377)
(5.23439 2.98954e-20 1.12332)
(5.48362 4.19573e-19 1.52462)
(5.65799 4.31609e-19 1.90252)
(5.80639 -2.59166e-19 2.26549)
(5.95347 -1.32317e-19 2.61774)
(6.11247 -4.81537e-20 2.96083)
(6.29116 3.58511e-19 3.29405)