/*--------------------------------*- C++ -*----------------------------------*\
| =========                 |                                                 |
| \\      /  F ield         | OpenFOAM: The Open Source CFD Toolbox           |
|  \\    /   O peration     | Version:  dev                                   |
|   \\  /    A nd           | Web:      www.OpenFOAM.org                      |
|    \\/     M anipulation  |                                                 |
\*---------------------------------------------------------------------------*/
FoamFile
{
    version     2.0;
    format      ascii;
    class       volVectorField;
    location    "3.05";
    object      Force;
}
// * * * * * * * * * * * * * * * * * * * * * * * * * * * * * * * * * * * * * //

dimensions      [1 1 -2 0 0 0 0];

internalField   uniform (0 0 0);

boundaryField
{
    inlet
    {
        type            calculated;
        value           nonuniform 0();
    }
    outlet
    {
        type            calculated;
        value           nonuniform 0();
    }
    flap
    {
        type            calculated;
        value           nonuniform List<vector> 
33
(
(3.76806 5.87747e-39 -0.192485)
(3.72361 1.82025e-17 -0.413328)
(3.66699 -2.35099e-38 -0.608608)
(3.59799 -2.84894e-21 -0.742569)
(3.52251 1.70743e-17 -0.823144)
(3.44494 2.62812e-17 -0.859209)
(3.36767 1.60738e-22 -0.861732)
(3.29111 9.19932e-18 -0.841626)
(3.20945 2.51804e-17 -0.807712)
(3.11534 1.61246e-17 -0.765838)
(3.00006 2.44489e-17 -0.71829)
(2.85101 -1.97945e-24 -0.665334)
(2.64719 -1.93789e-21 -0.604761)
(2.34606 1.83666e-21 -0.527328)
(1.84537 -2.56032e-18 -0.412885)
(0.108162 -3.15844e-19 0.46475)
(0.0536669 8.14515e-18 0.238845)
(0.00473755 -3.55282e-22 0.0278212)
(-0.143967 -9.18355e-41 0.00737569)
(-0.144877 1.44651e-17 0.0161472)
(-0.145742 2.42729e-23 0.0242174)
(-0.146768 -2.51337e-23 0.0302004)
(-0.148143 -3.66134e-23 0.0344387)
(-0.15026 4.22524e-19 0.0372216)
(-0.153672 4.3023e-19 0.0390121)
(-0.158946 4.42927e-19 0.0403488)
(-0.166384 1.64313e-17 0.0416551)
(-0.175646 1.00394e-24 0.0430958)
(-0.18649 5.16728e-19 0.0448047)
(-0.199232 1.25375e-24 0.0470097)
(-0.213342 1.46937e-39 0.0496836)
(-0.22657 5.90681e-22 0.0524523)
(-0.229718 -3.17788e-19 0.0534784)
)
;
    }
    upperWall
    {
        type            calculated;
        value           nonuniform 0();
    }
    lowerWall
    {
        type            calculated;
        value           uniform (0 0 0);
    }
    frontAndBack
    {
        type            empty;
    }
    procBoundary4to1
    {
        type            processor;
        value           uniform (0 0 0);
    }
    procBoundary4to2
    {
        type            processor;
        value           uniform (0 0 0);
    }
    procBoundary4to3
    {
        type            processor;
        value           uniform (0 0 0);
    }
    procBoundary4to5
    {
        type            processor;
        value           uniform (0 0 0);
    }
}


// ************************************************************************* //
