/*--------------------------------*- C++ -*----------------------------------*\
| =========                 |                                                 |
| \\      /  F ield         | OpenFOAM: The Open Source CFD Toolbox           |
|  \\    /   O peration     | Version:  dev                                   |
|   \\  /    A nd           | Web:      www.OpenFOAM.org                      |
|    \\/     M anipulation  |                                                 |
\*---------------------------------------------------------------------------*/
FoamFile
{
    version     2.0;
    format      ascii;
    class       volVectorField;
    location    "2.01";
    object      Force;
}
// * * * * * * * * * * * * * * * * * * * * * * * * * * * * * * * * * * * * * //

dimensions      [1 1 -2 0 0 0 0];

internalField   uniform (0 0 0);

boundaryField
{
    inlet
    {
        type            calculated;
        value           uniform (0 0 0);
    }
    outlet
    {
        type            calculated;
        value           uniform (0 0 0);
    }
    flap
    {
        type            calculated;
        value           nonuniform List<vector> 
33
(
(2.60614 3.20727e-18 -0.249999)
(2.52487 -1.55333e-21 -0.585727)
(2.35048 -6.26887e-18 -0.876214)
(2.11016 -8.18005e-22 -1.05883)
(1.85264 -1.11458e-17 -1.14684)
(1.61248 1.88121e-17 -1.1663)
(1.40541 1.8204e-17 -1.14239)
(1.23492 -8.69243e-18 -1.09403)
(1.09431 -7.98125e-18 -1.03158)
(0.974631 -2.6132e-22 -0.959453)
(0.867299 2.69875e-21 -0.878745)
(0.763307 0 -0.787021)
(0.654061 1.95317e-17 -0.680021)
(0.529738 1.3197e-17 -0.55044)
(0.374756 1.02176e-21 -0.388946)
(0.573861 2.08185e-18 0.542681)
(0.359162 2.65829e-21 0.341029)
(0.15203 5.63448e-19 0.145119)
(0.0200805 0 -0.00199189)
(0.0199458 -3.11678e-20 -0.00469489)
(0.0196066 1.18611e-17 -0.00741977)
(0.0191083 -6.28461e-20 -0.00969439)
(0.0185325 -6.30334e-20 -0.0115989)
(0.0179484 0 -0.0131322)
(0.0173863 -5.79156e-23 -0.0143068)
(0.0168015 1.43438e-17 -0.0151004)
(0.0161131 1.47277e-17 -0.0154543)
(0.0151862 7.08326e-23 -0.0152648)
(0.0139382 3.67342e-40 -0.0144676)
(0.012484 1.46937e-39 -0.0132126)
(0.0108943 -6.20429e-22 -0.0115414)
(0.00990539 -1.98094e-17 -0.0100487)
(0.0162282 0 -0.0166059)
)
;
    }
    upperWall
    {
        type            calculated;
        value           uniform (0 0 0);
    }
    lowerWall
    {
        type            calculated;
        value           uniform (0 0 0);
    }
    frontAndBack
    {
        type            empty;
    }
}


// ************************************************************************* //
