/*--------------------------------*- C++ -*----------------------------------*\
| =========                 |                                                 |
| \\      /  F ield         | OpenFOAM: The Open Source CFD Toolbox           |
|  \\    /   O peration     | Version:  dev                                   |
|   \\  /    A nd           | Web:      www.OpenFOAM.org                      |
|    \\/     M anipulation  |                                                 |
\*---------------------------------------------------------------------------*/
FoamFile
{
    version     2.0;
    format      ascii;
    class       surfaceVectorField;
    location    "0.79";
    object      Uf;
}
// * * * * * * * * * * * * * * * * * * * * * * * * * * * * * * * * * * * * * //

dimensions      [0 1 -1 0 0 0 0];

internalField   nonuniform List<vector> 
881
(
(9.91083 1.41941e-21 0.0234173)
(9.95864 0 0.0386723)
(9.80997 1.02134e-20 0.0301519)
(9.91818 -2.08791e-20 0.0451579)
(9.69486 2.5389e-20 0.0357259)
(9.85082 -2.89181e-21 0.053414)
(9.5633 1.30932e-20 0.0414795)
(9.75613 4.53843e-21 0.0632392)
(9.41528 -3.07089e-21 0.0474495)
(9.6421 -1.56529e-20 0.0736668)
(9.25092 0 0.0536952)
(9.51182 1.29569e-20 0.0846481)
(9.06994 -7.19114e-21 0.0603468)
(9.36468 1.35678e-20 0.0964029)
(8.87179 -1.44801e-20 0.0675277)
(9.19963 9.41753e-24 0.109115)
(8.65577 5.02182e-22 0.0753503)
(9.016 -3.68395e-20 0.122937)
(8.42103 3.45136e-21 0.0839277)
(8.81308 7.37334e-21 0.13803)
(8.16658 -2.10541e-20 0.0933779)
(8.59 3.16506e-20 0.154565)
(7.89133 -1.67513e-20 0.103824)
(8.34579 -1.68364e-20 0.172714)
(7.59409 1.71319e-20 0.11539)
(8.07932 -7.42196e-20 0.192652)
(7.27367 5.58703e-20 0.128202)
(7.7894 8.78898e-20 0.214542)
(6.92885 -4.34993e-20 0.14238)
(7.47481 1.14562e-19 0.238528)
(6.55853 -3.64548e-20 0.158036)
(7.13436 -3.22672e-19 0.264718)
(6.16176 4.09826e-20 0.175271)
(6.76694 2.06016e-19 0.293179)
(5.73784 1.16763e-20 0.194147)
(6.37167 -1.07977e-20 0.323914)
(5.28649 -6.26859e-20 0.214651)
(5.94795 2.28385e-20 0.356786)
(4.80804 3.00306e-20 0.236668)
(5.49556 -9.63205e-20 0.391444)
(5.01497 1.00293e-19 0.427306)
(9.99855 -2.26524e-20 0.0483316)
(9.98844 -2.69339e-21 0.039294)
(9.96234 -3.36401e-20 0.0644342)
(9.97587 5.28044e-20 0.061354)
(9.90583 -2.35892e-20 0.0786159)
(9.93976 -1.73353e-20 0.0796187)
(9.83059 -2.45527e-20 0.0937008)
(9.87673 -1.20169e-20 0.0993878)
(9.73661 8.8015e-22 0.109732)
(9.79362 -2.50332e-20 0.12042)
(9.62392 2.6536e-20 0.126789)
(9.69364 2.5889e-20 0.142668)
(9.49231 2.05311e-20 0.145131)
(9.57648 1.35691e-20 0.166488)
(9.34137 -2.2969e-20 0.165014)
(9.44124 7.06515e-21 0.192218)
(9.17049 -2.92208e-20 0.186683)
(9.28736 -2.94393e-20 0.220167)
(8.97891 3.59874e-20 0.21039)
(9.11422 -6.14027e-20 0.250669)
(8.7657 3.50803e-20 0.236393)
(8.92109 9.87566e-20 0.28407)
(8.52983 -7.52394e-20 0.264953)
(8.70707 0 0.320721)
(8.27014 -8.22023e-22 0.296327)
(8.47115 -6.11275e-20 0.360982)
(7.98543 1.47025e-19 0.33075)
(8.21223 7.3119e-20 0.405199)
(7.67448 -1.71664e-19 0.368421)
(7.92913 7.60996e-20 0.453688)
(7.33607 -7.17624e-20 0.40948)
(7.62065 -8.01231e-20 0.506709)
(6.96915 1.50757e-19 0.453984)
(7.2856 -3.27594e-19 0.564428)
(6.57288 8.34063e-22 0.501849)
(6.92294 3.39836e-19 0.626882)
(6.14676 -1.29527e-20 0.552745)
(6.53189 1.1135e-20 0.693877)
(5.69074 -2.33038e-20 0.606013)
(6.11187 3.05049e-19 0.76484)
(5.66271 -3.87276e-19 0.838715)
(9.99142 7.37943e-20 0.054909)
(9.98613 -2.69364e-21 0.043025)
(9.95886 6.77958e-20 0.0797798)
(9.97111 3.06303e-20 0.0759513)
(9.90613 -5.66503e-21 0.103239)
(9.93619 -5.77082e-21 0.104114)
(9.83607 -1.27296e-20 0.128169)
(9.87628 2.40054e-20 0.133108)
(9.74904 8.72976e-22 0.154812)
(9.7971 -6.22123e-20 0.163781)
(9.645 1.27091e-20 0.183324)
(9.70194 3.88853e-20 0.196303)
(9.52382 -1.51235e-23 0.21405)
(9.59079 -1.07676e-19 0.2311)
(9.38521 -1.46225e-23 0.24736)
(9.4629 4.17357e-20 0.268621)
(9.22871 -6.21415e-20 0.283641)
(9.31781 -2.90766e-20 0.30932)
(9.05369 4.02327e-21 0.323307)
(9.15506 -1.22005e-19 0.353686)
(8.85937 6.20678e-20 0.366784)
(8.97413 1.41656e-19 0.402223)
(8.64488 1.31227e-20 0.414506)
(8.77432 -1.3211e-19 0.455448)
(8.40922 1.49905e-20 0.466912)
(8.55481 1.40599e-19 0.513889)
(8.15132 2.21239e-21 0.524422)
(8.31475 1.45819e-19 0.578072)
(7.87003 1.65165e-19 0.587411)
(8.05317 -1.48045e-19 0.648507)
(7.56414 -3.39877e-19 0.656163)
(7.76907 1.65043e-19 0.725646)
(7.23249 -1.28288e-19 0.73082)
(7.46134 -4.92272e-19 0.80981)
(6.87405 3.45101e-19 0.811311)
(7.12895 6.90727e-19 0.901124)
(6.48799 3.33834e-19 0.897218)
(6.77103 -3.72578e-19 0.999449)
(6.07366 -6.89327e-20 0.987607)
(6.38674 3.74973e-19 1.1042)
(5.97532 -2.91977e-19 1.2141)
(9.98696 -4.52221e-20 0.0646352)
(9.98472 0 0.04869)
(9.95462 -4.36411e-20 0.0997576)
(9.96784 -3.33739e-20 0.0904568)
(9.90279 2.44453e-20 0.133332)
(9.93276 -1.14979e-20 0.128201)
(9.8338 -2.69748e-20 0.168056)
(9.87395 4.79607e-20 0.166326)
(9.74838 -2.24311e-20 0.204678)
(9.79623 -9.92597e-20 0.206365)
(9.64658 -8.40437e-20 0.243622)
(9.70286 2.59583e-20 0.248815)
(9.52836 -6.33744e-20 0.285371)
(9.59406 -1.07663e-19 0.294168)
(9.39357 1.14994e-20 0.330441)
(9.46918 1.39282e-20 0.342963)
(9.24191 -9.04802e-20 0.379375)
(9.32784 -8.37531e-23 0.395775)
(9.07295 1.99778e-20 0.432746)
(9.16973 -6.08893e-20 0.453207)
(8.88618 -5.69787e-20 0.491146)
(8.99448 -3.18733e-20 0.515888)
(8.68096 -2.39061e-22 0.555178)
(8.80159 -2.18519e-21 0.584472)
(8.4566 2.71572e-19 0.625448)
(8.59048 1.27753e-19 0.659617)
(8.21235 -9.08154e-21 0.702564)
(8.36057 1.43655e-19 0.741984)
(7.94738 -1.43301e-19 0.787108)
(8.11118 -1.3894e-19 0.832253)
(7.66077 2.3846e-21 0.879559)
(7.84159 -2.82234e-22 0.931062)
(7.35158 3.45286e-19 0.980218)
(7.55099 0 1.0389)
(7.01889 -4.32136e-20 1.08914)
(7.23852 3.19412e-19 1.15603)
(6.66183 -3.2031e-19 1.20599)
(6.90339 -3.72815e-19 1.28243)
(6.27954 1.42258e-19 1.32985)
(6.54474 1.02503e-21 1.41762)
(6.16153 1.29962e-21 1.5604)
(9.9847 1.1288e-20 0.0751872)
(9.98397 5.35758e-21 0.0553372)
(9.95196 -8.8736e-22 0.119232)
(9.96606 5.57024e-21 0.105142)
(9.90093 1.31012e-20 0.161827)
(9.93098 -1.15e-20 0.151926)
(9.83304 -2.68629e-20 0.20553)
(9.87324 2.15479e-22 0.199029)
(9.74906 -4.86844e-20 0.251508)
(9.79705 -4.95264e-20 0.248246)
(9.64918 4.53018e-23 0.300421)
(9.70555 7.70102e-20 0.300362)
(9.53339 -2.82696e-20 0.35285)
(9.59909 2.67787e-20 0.355972)
(9.40156 2.10831e-21 0.409404)
(9.47706 -7.06608e-23 0.415714)
(9.25346 2.85363e-20 0.470719)
(9.3391 2.90177e-20 0.48026)
(9.08875 -1.12272e-19 0.537458)
(9.18498 0 0.550296)
(8.90707 2.341e-20 0.610319)
(9.01439 -2.35889e-19 0.62655)
(8.70794 1.27965e-19 0.690012)
(8.82695 1.28834e-19 0.70979)
(8.49086 0 0.777247)
(8.62224 1.51072e-19 0.800766)
(8.25536 9.3482e-21 0.872755)
(8.39981 2.82167e-19 0.900231)
(8.00085 6.31604e-21 0.977274)
(8.15922 -2.90445e-19 1.009)
(7.7267 -2.665e-21 1.09145)
(7.89995 -2.41009e-21 1.12787)
(7.43222 -2.11109e-20 1.21574)
(7.62139 0 1.25749)
(7.11667 -2.04949e-20 1.35032)
(7.32288 -2.16647e-22 1.39827)
(6.77925 -4.57055e-20 1.49502)
(7.00369 0 1.55034)
(6.41902 -1.3997e-19 1.6491)
(6.66296 -6.6966e-19 1.71342)
(6.29947 5.92046e-19 1.88651)
(9.98357 -4.54506e-22 0.0861163)
(9.98354 5.35858e-21 0.0624735)
(9.95061 -5.42882e-21 0.138488)
(9.96526 -5.53235e-21 0.119932)
(9.90053 -2.41759e-20 0.189841)
(9.93054 -9.14992e-20 0.175217)
(9.83408 -2.32592e-20 0.242517)
(9.87401 2.38256e-20 0.231052)
(9.75191 7.8383e-20 0.29785)
(9.79964 2.53903e-23 0.289247)
(9.65429 1.02902e-19 0.356643)
(9.71041 2.55451e-20 0.350763)
(9.54128 5.4536e-20 0.419577)
(9.6067 1.3314e-19 0.416333)
(9.41274 2.73251e-20 0.487349)
(9.48791 2.7892e-20 0.486704)
(9.26844 0 0.560674)
(9.35374 0 0.562631)
(9.10814 -1.27412e-19 0.640299)
(9.204 1.1969e-19 0.644872)
(8.93151 -1.24663e-19 0.727021)
(9.0384 -2.79755e-19 0.734239)
(8.73816 1.52279e-19 0.821645)
(8.85661 -1.23661e-21 0.831603)
(8.52771 4.35441e-19 0.924963)
(8.65831 -1.6759e-19 0.937781)
(8.29979 -2.63255e-20 1.03781)
(8.44311 5.24273e-19 1.05359)
(8.05401 -2.95001e-19 1.16105)
(8.21065 -2.99969e-19 1.17996)
(7.78986 2.93108e-22 1.2955)
(7.96054 2.97673e-22 1.31785)
(7.50678 2.09008e-20 1.44174)
(7.69227 -6.26242e-19 1.46803)
(7.20414 2.0316e-20 1.60014)
(7.40524 1.31384e-18 1.63108)
(6.88114 -6.33405e-19 1.77071)
(7.09867 -6.67185e-19 1.80732)
(6.53671 7.78602e-20 1.95293)
(6.77163 7.75439e-21 1.99674)
(6.42267 6.16408e-20 2.19862)
(9.98312 0 0.0972031)
(9.98331 8.51647e-20 0.0698034)
(9.9503 -9.32107e-20 0.157507)
(9.96512 0 0.134662)
(9.90132 -4.14088e-20 0.217278)
(9.93111 9.109e-20 0.198007)
(9.83656 4.67342e-20 0.278674)
(9.87597 1.65946e-19 0.262277)
(9.75657 -5.23863e-20 0.343076)
(9.80367 -2.45277e-20 0.329184)
(9.66164 5.76212e-20 0.411408)
(9.7171 -5.14227e-20 0.399811)
(9.55184 1.04737e-19 0.484475)
(9.61653 5.36593e-20 0.475021)
(9.42706 1.01418e-22 0.563071)
(9.50142 -5.49106e-20 0.555668)
(9.28713 1.21651e-19 0.64799)
(9.37156 5.75524e-20 0.642584)
(9.13182 -3.89799e-20 0.74006)
(9.22678 1.84991e-21 0.736599)
(8.96081 -1.51952e-19 0.840167)
(9.06677 -1.54421e-19 0.838621)
(8.77375 -3.23826e-19 0.949192)
(8.89126 0 0.949598)
(8.57034 -6.85304e-20 1.06798)
(8.70001 -2.8593e-19 1.0704)
(8.35024 2.38372e-19 1.19746)
(8.4926 3.10786e-19 1.20192)
(8.1131 0 1.33863)
(8.26866 -3.55268e-20 1.3452)
(7.85847 -6.35573e-19 1.49242)
(8.02783 0 1.50132)
(7.58585 6.93644e-19 1.6596)
(7.76966 -6.08103e-19 1.67122)
(7.29453 6.00901e-19 1.84072)
(7.49351 6.57116e-19 1.85566)
(6.98359 -1.74991e-20 2.03605)
(7.19845 -1.43712e-20 2.05522)
(6.65176 -6.69692e-21 2.24535)
(6.88335 6.54535e-19 2.27018)
(6.54642 -6.71086e-19 2.50021)
(9.98307 8.37389e-20 0.108264)
(9.98321 1.07211e-20 0.0771556)
(9.95074 1.86021e-19 0.176175)
(9.96541 -1.09681e-20 0.14918)
(9.90304 2.9985e-19 0.244018)
(9.93241 9.15543e-20 0.220215)
(9.84018 9.13654e-20 0.313828)
(9.87888 2.39026e-20 0.292601)
(9.76268 -2.40205e-20 0.386986)
(9.80892 -7.36086e-20 0.367906)
(9.67081 -5.36227e-20 0.464531)
(9.72534 5.07449e-20 0.447313)
(9.56464 -1.07862e-19 0.547379)
(9.62831 -1.05394e-19 0.531814)
(9.44411 4.36836e-21 0.636411)
(9.51733 -1.10122e-19 0.62235)
(9.30908 -6.31947e-20 0.732496)
(9.39226 2.27242e-19 0.719817)
(9.15935 -1.16122e-19 0.836549)
(9.25298 -1.18011e-19 0.825129)
(8.99463 0 0.949542)
(9.09915 2.44673e-19 0.939297)
(8.8146 3.3681e-20 1.07241)
(8.93061 2.12067e-21 1.06333)
(8.619 1.0242e-19 1.20607)
(8.74719 3.54877e-20 1.19814)
(8.40745 3.16606e-20 1.35155)
(8.54838 -2.35532e-19 1.34474)
(8.17953 -3.50505e-20 1.50997)
(8.33373 -5.65376e-19 1.50431)
(7.93482 1.93676e-20 1.68239)
(8.10287 5.7968e-19 1.67802)
(7.67281 -6.28352e-19 1.86976)
(7.85535 -6.05212e-19 1.86694)
(7.39269 3.15617e-20 2.07288)
(7.59045 -1.94525e-20 2.0721)
(7.09327 6.67305e-19 2.29237)
(7.30703 6.55467e-19 2.29443)
(6.77295 -2.47392e-20 2.52835)
(7.00376 -1.31083e-18 2.5346)
(6.67841 1.3365e-18 2.79267)
(9.98327 -8.45627e-20 0.119165)
(9.98325 -1.59103e-19 0.0844187)
(9.95168 -1.03568e-19 0.194379)
(9.96603 -3.28555e-20 0.163367)
(9.90548 -1.85685e-19 0.269951)
(9.93422 -4.57808e-20 0.241739)
(9.84481 -1.42795e-19 0.347848)
(9.88262 -1.17998e-19 0.321893)
(9.77011 3.29102e-21 0.429426)
(9.81532 -1.95273e-19 0.405255)
(9.68167 -3.65119e-21 0.515831)
(9.73504 1.01092e-19 0.493082)
(9.57955 -1.07732e-19 0.608079)
(9.64193 -1.54109e-22 0.586496)
(9.46371 1.18228e-19 0.70712)
(9.53551 -5.47596e-20 0.686501)
(9.33407 1.67041e-19 0.813897)
(9.41572 5.76371e-20 0.794056)
(9.19046 2.48552e-19 0.929414)
(9.28244 -2.33975e-19 0.910156)
(9.03264 2.43243e-19 1.05472)
(9.13536 4.85509e-19 1.03589)
(8.86038 4.4384e-21 1.19081)
(8.97447 -2.49008e-19 1.17234)
(8.67341 -3.0655e-19 1.33869)
(8.79961 3.24761e-19 1.32048)
(8.47127 -8.37842e-19 1.49954)
(8.61016 -3.04708e-19 1.48149)
(8.25345 6.48568e-20 1.67458)
(8.40566 -5.30632e-19 1.65671)
(8.01948 -6.05034e-20 1.86498)
(8.18577 5.80709e-19 1.84735)
(7.76882 1.09444e-20 2.0719)
(7.94987 -6.25587e-19 2.05463)
(7.50052 6.13496e-19 2.29649)
(7.69713 1.23436e-18 2.27992)
(7.21318 -1.34697e-18 2.53976)
(7.42629 5.97373e-19 2.52453)
(6.90484 7.56865e-20 2.8023)
(7.13584 -1.28402e-18 2.78962)
(6.82318 1.33297e-18 3.07578)
(9.98372 -1.05466e-19 0.129803)
(9.98341 1.04591e-20 0.0914879)
(9.95306 2.48181e-20 0.212024)
(9.96695 -1.19816e-19 0.17714)
(9.90855 2.0684e-20 0.294963)
(9.93648 1.35546e-19 0.262487)
(9.85036 -1.71831e-19 0.380586)
(9.88708 2.34095e-20 0.350007)
(9.77881 -9.24486e-20 0.470225)
(9.82274 -4.88933e-20 0.441062)
(9.69415 1.02923e-19 0.565106)
(9.74607 1.00633e-19 0.536939)
(9.59647 5.19831e-20 0.666337)
(9.65724 5.24819e-20 0.638852)
(9.48579 -1.13609e-19 0.774929)
(9.5558 5.43809e-20 0.747873)
(9.36204 -3.48143e-19 0.891895)
(9.44177 -5.65182e-20 0.865015)
(9.2251 1.38284e-20 1.01831)
(9.31503 -2.22304e-21 0.991357)
(9.0748 -1.78456e-20 1.15529)
(9.17531 2.4682e-21 1.12805)
(8.91097 7.96526e-20 1.3039)
(9.02276 -3.13111e-19 1.27621)
(8.73331 3.1816e-19 1.46531)
(8.85711 3.22504e-19 1.43697)
(8.54135 0 1.64083)
(8.67767 5.30877e-19 1.61167)
(8.33458 0 1.83179)
(8.48418 -6.11854e-19 1.80175)
(8.11248 0 2.03949)
(8.27633 7.01167e-20 2.00854)
(7.87433 6.20847e-19 2.26533)
(8.05329 0 2.23345)
(7.61905 1.21195e-18 2.51083)
(7.81406 6.88718e-19 2.47822)
(7.34512 6.44008e-19 2.77746)
(7.55736 5.61304e-19 2.74451)
(7.05034 -1.52995e-21 3.06642)
(7.28149 1.11485e-20 3.034)
(6.98374 -1.30467e-18 3.34813)
(9.98432 -6.25602e-21 0.140092)
(9.98361 2.63136e-19 0.0982943)
(9.95481 -4.27618e-21 0.229019)
(9.96809 -1.10176e-20 0.190408)
(9.91219 1.36321e-19 0.31894)
(9.93922 -8.96465e-20 0.282366)
(9.85672 1.45215e-19 0.411891)
(9.89221 9.35802e-20 0.376831)
(9.7886 1.46786e-19 0.509208)
(9.83106 4.92135e-20 0.475185)
(9.70805 4.93823e-20 0.612163)
(9.7583 -4.99097e-20 0.578714)
(9.6152 5.48998e-20 0.721927)
(9.67409 0 0.68869)
(9.51009 1.09785e-19 0.839568)
(9.57803 5.40531e-20 0.806234)
(9.39275 2.90495e-19 0.966167)
(9.4702 -1.10281e-19 0.932407)
(9.2631 -1.34378e-20 1.10287)
(9.35049 2.32187e-19 1.06838)
(9.12098 -2.97658e-19 1.25085)
(9.21875 -2.97686e-19 1.21536)
(8.96624 -6.12453e-20 1.41129)
(9.07519 -4.01391e-22 1.37453)
(8.79855 5.38153e-19 1.58548)
(8.91938 1.89812e-19 1.54719)
(8.6175 -9.59574e-20 1.77486)
(8.75066 7.30319e-19 1.73478)
(8.42272 -5.33625e-19 1.98089)
(8.56908 -5.41661e-19 1.9388)
(8.21367 6.93511e-20 2.20505)
(8.37433 -1.10604e-18 2.16075)
(7.98946 7.52214e-20 2.44903)
(8.16537 -3.98231e-21 2.40238)
(7.74887 3.54381e-20 2.71471)
(7.94125 5.83373e-19 2.66571)
(7.49027 -7.74443e-20 3.004)
(7.70076 3.7449e-20 2.9528)
(7.21139 -1.30476e-18 3.31886)
(7.44191 -1.26867e-18 3.26582)
(7.162 -1.26385e-18 3.60719)
(9.98505 2.53625e-19 0.149952)
(9.98383 1.78029e-19 0.104785)
(9.95692 -9.78432e-20 0.245267)
(9.9694 -1.18121e-19 0.20306)
(9.91641 -1.29163e-19 0.341783)
(9.94237 -6.78789e-20 0.301277)
(9.86382 -3.07974e-21 0.441649)
(9.8979 4.66923e-20 0.402284)
(9.79938 -1.49217e-19 0.546229)
(9.8401 4.76348e-20 0.507505)
(9.72326 -9.85159e-20 0.656824)
(9.77149 -1.00184e-19 0.618244)
(9.63559 0 0.774645)
(9.69221 0 0.735815)
(9.53647 -1.68673e-19 0.900796)
(9.60192 0 0.861363)
(9.42598 -1.63591e-19 1.03642)
(9.50069 1.63741e-19 0.995982)
(9.30411 -5.99441e-20 1.18274)
(9.38843 -3.40876e-19 1.14091)
(9.17077 4.03319e-21 1.34103)
(9.26518 2.33358e-19 1.29746)
(9.02575 2.53521e-19 1.51256)
(9.13111 2.43819e-19 1.46692)
(8.86872 3.89304e-19 1.69873)
(8.98571 4.02366e-21 1.65068)
(8.69943 2.68692e-19 1.90105)
(8.82859 2.634e-19 1.85023)
(8.51762 -1.12109e-18 2.12111)
(8.65993 6.01943e-19 2.06713)
(8.32273 -1.16851e-18 2.36064)
(8.47929 -1.6531e-18 2.30313)
(8.11387 5.10744e-19 2.62168)
(8.28564 -5.63379e-19 2.56026)
(7.88988 5.80746e-19 2.90647)
(8.07832 5.07132e-19 2.84085)
(7.6491 -1.16746e-18 3.21736)
(7.8563 7.25261e-20 3.14737)
(7.38918 -1.22877e-18 3.55697)
(7.61748 -6.3834e-19 3.4825)
(7.35917 -6.54257e-21 3.84949)
(9.98586 -1.98923e-19 0.159316)
(9.98404 -3.2384e-19 0.110924)
(9.95928 -8.71444e-20 0.260681)
(9.9708 1.17654e-19 0.215027)
(9.92102 1.10073e-19 0.363416)
(9.94575 1.34358e-19 0.319151)
(9.87146 9.75159e-20 0.469776)
(9.90395 0 0.426302)
(9.81085 9.42664e-20 0.581163)
(9.84965 4.80638e-20 0.537936)
(9.73942 0 0.698915)
(9.78537 -4.92904e-20 0.655396)
(9.65727 0 0.824276)
(9.71128 -2.04193e-19 0.780043)
(9.56451 3.3512e-19 0.958372)
(9.62709 -4.94388e-22 0.913042)
(9.46125 -2.09658e-20 1.10238)
(9.53283 3.2968e-19 1.05551)
(9.34756 -3.9293e-20 1.25762)
(9.4284 -3.41257e-19 1.20873)
(9.22339 4.73614e-19 1.42545)
(9.31402 1.77238e-19 1.3741)
(9.08858 -8.99271e-21 1.60724)
(9.18985 4.82319e-19 1.55302)
(8.94297 -1.18852e-19 1.80446)
(9.05547 -3.71359e-19 1.74693)
(8.78641 6.01349e-19 2.01867)
(8.91082 6.45842e-20 1.95735)
(8.61862 4.48059e-20 2.2516)
(8.75605 5.31584e-19 2.18596)
(8.43907 -1.03577e-18 2.50525)
(8.59056 -4.0956e-19 2.43474)
(8.24702 -5.58023e-19 2.78193)
(8.41362 -5.60851e-19 2.70594)
(8.04158 -6.70751e-21 3.08424)
(8.22489 -3.24211e-21 3.00205)
(7.82135 5.97782e-19 3.41496)
(8.02355 -5.74361e-19 3.32593)
(7.58408 5.9132e-19 3.77736)
(7.80788 1.177e-18 3.68088)
(7.57556 1.18084e-18 4.07079)
(9.98668 -4.83423e-23 0.168149)
(9.98425 8.87977e-21 0.116709)
(9.96171 3.39751e-19 0.275206)
(9.97224 1.61948e-19 0.226275)
(9.92584 2.1879e-20 0.383775)
(9.94927 1.14817e-22 0.335929)
(9.87943 -4.86553e-20 0.496199)
(9.91032 0 0.448815)
(9.82282 -9.71554e-20 0.613911)
(9.85969 -9.50515e-20 0.566399)
(9.75625 -2.56074e-19 0.738299)
(9.79989 -3.82442e-22 0.690066)
(9.67986 -2.01579e-19 0.870642)
(9.73116 -2.04329e-19 0.821233)
(9.5938 -1.04478e-21 1.01208)
(9.65335 -9.42933e-22 0.961083)
(9.49816 -5.22034e-22 1.16383)
(9.56639 3.23206e-19 1.11075)
(9.39302 -1.17318e-19 1.32727)
(9.47019 -6.94165e-23 1.27158)
(9.27841 1.89935e-19 1.50383)
(9.36506 2.29392e-19 1.445)
(9.15435 1.08872e-19 1.69494)
(9.25129 6.44851e-20 1.63248)
(9.02085 -1.82368e-19 1.9021)
(9.12855 -4.29311e-19 1.83544)
(8.87786 0 2.127)
(8.99704 2.48849e-19 2.0555)
(8.7251 6.65605e-20 2.37153)
(8.85687 -5.12998e-19 2.29454)
(8.56214 6.50977e-20 2.63785)
(8.70751 5.87492e-19 2.55465)
(8.38853 0 2.92842)
(8.54875 -6.70185e-19 2.83815)
(8.20368 -5.77684e-19 3.24603)
(8.38044 5.46082e-19 3.14761)
(8.00663 1.80227e-20 3.59398)
(8.20198 -1.54176e-20 3.48622)
(7.79574 1.76891e-18 3.97615)
(8.0124 1.6078e-20 3.85776)
(7.81024 1.04284e-18 4.26663)
(9.98754 1.73274e-19 0.176427)
(9.96428 -1.80737e-19 0.288788)
(9.93094 -2.17774e-20 0.40278)
(9.95298 -4.34345e-20 0.35154)
(9.88788 -4.80187e-20 0.520821)
(9.91707 0 0.469733)
(9.83543 3.34286e-21 0.644363)
(9.8703 -3.06374e-21 0.592807)
(9.77388 4.81859e-20 0.774835)
(9.81511 3.83236e-21 0.722173)
(9.70347 -4.46192e-22 0.913553)
(9.75194 3.47869e-22 0.859278)
(9.62437 3.28283e-19 1.06169)
(9.68076 -5.39838e-22 1.00534)
(9.53667 3.19163e-19 1.2205)
(9.60139 2.58452e-20 1.16154)
(9.44047 3.50109e-19 1.39138)
(9.51377 3.1233e-19 1.32925)
(9.33593 1.01753e-19 1.57579)
(9.41838 -7.70938e-20 1.50989)
(9.22321 -4.805e-19 1.77518)
(9.31559 8.96511e-20 1.70493)
(9.10238 1.04877e-20 1.99111)
(9.20517 -1.36142e-19 1.91586)
(8.9735 -2.7354e-19 2.22537)
(9.08739 -2.10861e-19 2.14434)
(8.83649 1.99819e-20 2.47999)
(8.96247 -6.44726e-19 2.39234)
(8.69127 -1.61493e-19 2.7572)
(8.83029 8.96381e-19 2.66201)
(8.53769 -1.12464e-19 3.05952)
(8.6911 -5.59404e-19 2.95566)
(8.37545 1.10544e-18 3.38986)
(8.54493 5.57878e-19 3.27599)
(8.20409 -1.73068e-20 3.75183)
(8.39161 1.08508e-18 3.62629)
(8.02288 -7.05455e-19 4.14971)
(8.23099 -9.71206e-19 4.0105)
(8.06268 -4.08659e-19 4.43332)
(9.93642 -2.08757e-20 0.420716)
(9.89696 4.67007e-20 0.54404)
(9.92441 8.48763e-23 0.489659)
(9.84893 -2.53319e-21 0.673053)
(9.88182 9.03281e-20 0.617946)
(9.79267 -4.58715e-20 0.809186)
(9.83158 -4.75333e-20 0.752689)
(9.72857 2.5953e-22 0.953787)
(9.77433 3.48993e-22 0.895299)
(9.65685 -3.15003e-19 1.10809)
(9.71018 -9.61043e-20 1.04708)
(9.57759 1.72434e-20 1.27339)
(9.63885 -2.15879e-19 1.20931)
(9.49095 -1.29535e-19 1.45105)
(9.5604 4.24832e-19 1.38331)
(9.39727 -9.07736e-20 1.64252)
(9.47546 -6.51559e-19 1.57043)
(9.29675 4.49404e-19 1.8493)
(9.38441 2.33311e-19 1.77219)
(9.18954 -3.65781e-19 2.07298)
(9.28722 -2.12667e-19 1.99014)
(9.07582 -5.93762e-19 2.31538)
(9.18422 -1.43347e-19 2.22594)
(8.95586 2.52808e-19 2.57856)
(9.07582 -2.40914e-19 2.48149)
(8.82996 4.96179e-19 2.86476)
(8.96234 3.75992e-19 2.7589)
(8.69836 1.26328e-19 3.17653)
(8.8444 6.09501e-19 3.06051)
(8.56122 5.30995e-19 3.51685)
(8.72239 -6.09375e-19 3.38903)
(8.41871 1.17064e-19 3.88936)
(8.59677 5.32844e-19 3.74768)
(8.27104 -6.69018e-19 4.29839)
(8.46822 9.25e-20 4.14028)
(8.33753 -1.03465e-18 4.57137)
(9.90668 4.52894e-20 0.565777)
(9.86336 4.36549e-20 0.699872)
(9.89387 4.49214e-20 0.641217)
(9.81269 0 0.841196)
(9.8489 0 0.780897)
(9.75517 -9.86974e-20 0.991111)
(9.7979 1.79871e-19 0.928478)
(9.69108 5.23939e-21 1.15095)
(9.74097 -1.91004e-19 1.08537)
(9.62058 2.0313e-19 1.32203)
(9.67793 1.00172e-19 1.25295)
(9.54393 -1.11721e-19 1.50564)
(9.60905 2.03286e-19 1.43243)
(9.46153 -3.18621e-19 1.70321)
(9.53495 -2.13657e-19 1.62513)
(9.37371 -4.45881e-19 1.91629)
(9.45603 -1.10374e-19 1.83258)
(9.28078 1.54941e-20 2.14649)
(9.37255 -1.26357e-19 2.05635)
(9.18311 2.18682e-19 2.39555)
(9.285 -8.81482e-20 2.29804)
(9.08124 -1.16047e-19 2.66544)
(9.19397 1.02469e-19 2.55941)
(8.97578 4.91807e-19 2.95835)
(9.10012 0 2.84249)
(8.86739 -1.41609e-19 3.27678)
(9.00433 4.92886e-19 3.14953)
(8.7568 -6.11355e-19 3.62365)
(8.90747 -1.09097e-18 3.48311)
(8.64494 5.10694e-19 4.00238)
(8.81068 4.74649e-19 3.8462)
(8.53303 -2.77235e-19 4.41698)
(8.71544 3.91188e-19 4.24223)
(8.6237 -6.59683e-19 4.67513)
(9.87835 0 0.724509)
(9.83362 1.84978e-19 0.870529)
(9.86689 8.47203e-20 0.806456)
(9.78299 8.42256e-20 1.0252)
(9.82247 9.83439e-21 0.958455)
(9.72682 -9.30049e-20 1.18993)
(9.77303 -1.84781e-19 1.11983)
(9.66542 1.00497e-19 1.36601)
(9.71863 -9.30579e-20 1.29197)
(9.59917 9.83372e-20 1.5547)
(9.65971 1.00952e-19 1.47605)
(9.52849 0 1.75739)
(9.59686 -9.79261e-20 1.67336)
(9.45385 2.17365e-19 1.97562)
(9.53054 1.9927e-19 1.88536)
(9.37578 -2.32902e-19 2.21095)
(9.46126 1.31251e-20 2.11359)
(9.2949 -2.07741e-19 2.46502)
(9.38972 -3.40195e-19 2.35954)
(9.21194 2.21703e-19 2.73965)
(9.3167 1.19928e-19 2.62486)
(9.12778 0 3.03691)
(9.24312 3.24915e-19 2.91139)
(9.04346 -4.76654e-19 3.35913)
(9.17011 0 3.22119)
(8.96028 1.8126e-20 3.70893)
(9.099 -1.40993e-19 3.55656)
(8.87987 3.52147e-19 4.08932)
(9.03148 3.33205e-20 3.92004)
(8.80441 3.71289e-21 4.50366)
(8.96972 -7.87107e-21 4.31442)
(8.91656 1.10002e-20 4.74271)
(9.85529 -9.50292e-20 0.896742)
(9.81185 -2.66441e-19 1.05554)
(9.84791 -1.01605e-20 0.984851)
(9.76395 -1.84663e-19 1.22442)
(9.80629 -2.65912e-19 1.15)
(9.71205 -9.22646e-20 1.40465)
(9.76088 1.73038e-19 1.32586)
(9.65658 -1.00526e-19 1.59746)
(9.71225 0 1.5136)
(9.59805 1.06467e-19 1.80417)
(9.66099 -1.94814e-19 1.71445)
(9.53707 -1.01933e-20 2.02626)
(9.60768 3.96943e-19 1.92979)
(9.47435 -9.67293e-20 2.26518)
(9.55301 -3.07236e-19 2.16103)
(9.41071 -4.8216e-21 2.52245)
(9.49785 7.67967e-21 2.40955)
(9.34712 2.25309e-19 2.79972)
(9.44318 -4.1792e-19 2.67683)
(9.2847 3.25478e-19 3.09885)
(9.39014 2.28561e-19 2.96451)
(9.22485 3.44705e-19 3.42185)
(9.34011 5.41182e-22 3.27435)
(9.16929 -1.26668e-19 3.77094)
(9.29476 5.60547e-19 3.60824)
(9.12021 -3.36157e-19 4.1485)
(9.25618 -2.48679e-19 3.96818)
(9.08044 -5.57779e-22 4.55703)
(9.227 9.91691e-21 4.35619)
(9.21054 -5.59475e-21 4.77427)
(9.84176 -1.02551e-20 1.08174)
(9.80243 1.01612e-19 1.25396)
(9.84065 -2.62317e-19 1.17546)
(9.76031 2.67356e-19 1.43742)
(9.80451 4.46597e-19 1.35416)
(9.71593 -9.68602e-20 1.6333)
(9.7664 -8.85246e-20 1.54455)
(9.66989 1.03276e-19 1.84285)
(9.72699 -9.67634e-20 1.74781)
(9.62289 9.24022e-20 2.06742)
(9.68696 1.97482e-19 1.96518)
(9.57582 -2.00326e-19 2.30833)
(9.64715 -1.00313e-19 2.19793)
(9.52968 -4.15638e-19 2.56693)
(9.60854 -2.94856e-19 2.44729)
(9.48561 -4.15811e-19 2.84468)
(9.57228 -1.18536e-19 2.71454)
(9.44498 -1.04595e-19 3.14315)
(9.53971 -1.0738e-19 3.00106)
(9.40943 2.206e-19 3.46396)
(9.51239 5.5501e-22 3.30826)
(9.381 4.37416e-19 3.80882)
(9.49222 2.2071e-19 3.63758)
(9.36221 1.05446e-19 4.1794)
(9.48152 1.46013e-20 3.99038)
(9.35619 4.72691e-21 4.57731)
(9.48312 2.03372e-19 4.36796)
(9.50046 -9.65301e-20 4.77134)
(9.84204 9.27309e-20 1.27813)
(9.80993 8.0979e-20 1.46384)
(9.77684 -8.84318e-20 1.66169)
(9.82178 -1.7639e-19 1.56841)
(9.74347 0 1.87283)
(9.79436 1.75256e-19 1.77287)
(9.71064 0 2.09846)
(9.76773 -4.36883e-22 1.99094)
(9.67933 -1.97253e-19 2.33973)
(9.74282 0 2.22368)
(9.65068 9.49974e-21 2.5978)
(9.72072 -1.03468e-19 2.47215)
(9.62599 1.97446e-19 2.87389)
(9.70268 2.96617e-19 2.7374)
(9.60678 0 3.16924)
(9.69016 9.57765e-20 3.02054)
(9.59486 0 3.48506)
(9.68486 -2.92097e-19 3.3226)
(9.59244 -2.12559e-19 3.82249)
(9.68876 1.98531e-19 3.64452)
(9.60214 1.14993e-19 4.18255)
(9.70427 -1.13248e-19 3.98711)
(9.62712 9.99348e-20 4.56599)
(9.73421 2.22147e-19 4.35095)
(9.78184 -2.6429e-19 4.73627)
(9.8388 9.42823e-20 1.68214)
(9.81817 1.74763e-19 1.89359)
(9.86249 9.50258e-20 1.7892)
(9.7995 -4.36752e-22 2.11883)
(9.84921 -8.7375e-20 2.00659)
(9.78385 9.61563e-20 2.35884)
(9.83908 0 2.23781)
(9.77244 1.90482e-19 2.61456)
(9.83322 9.61527e-20 2.4837)
(9.76668 1.92512e-19 2.88694)
(9.83291 4.7053e-21 2.74508)
(9.76816 -2.03454e-19 3.17689)
(9.83972 -8.77711e-20 3.02277)
(9.77876 -8.92118e-20 3.48519)
(9.85537 -1.10409e-19 3.31743)
(9.8007 3.00552e-19 3.81245)
(9.88184 1.44498e-20 3.62953)
(9.83657 -3.96917e-21 4.15909)
(9.92146 3.41259e-19 3.95936)
(9.88933 -1.50626e-19 4.52518)
(9.97688 -1.04292e-19 4.30692)
(10.0511 8.38778e-20 4.67182)
(9.89324 -1.73756e-19 1.90471)
(9.88855 -8.68615e-20 2.12813)
(9.88826 0 2.3653)
(9.93492 5.52257e-22 2.24)
(9.89361 -9.42711e-20 2.61693)
(9.94479 8.61038e-20 2.48171)
(9.90603 -2.82546e-19 2.88371)
(9.96149 -6.48062e-21 2.7375)
(9.92714 7.56326e-21 3.16621)
(9.98661 -2.80109e-19 3.00788)
(9.95879 -4.66659e-21 3.46481)
(10.0219 2.83498e-19 3.29317)
(10.0031 5.59824e-20 3.77966)
(10.0691 -1.01559e-19 3.59344)
(10.0625 2.38778e-19 4.11064)
(10.1305 1.52198e-19 3.90852)
(10.1396 1.36111e-19 4.45733)
(10.2084 9.14125e-20 4.23797)
(10.3053 4.2515e-20 4.58092)
(9.99144 8.88498e-20 2.35893)
(10.0128 1.76094e-19 2.60487)
(10.0424 -3.87721e-21 2.86434)
(10.087 1.74272e-19 2.71479)
(10.0818 2.51707e-21 3.1376)
(10.1292 -1.77183e-19 2.97623)
(10.1329 1.84232e-19 3.42469)
(10.1825 4.31802e-21 3.25048)
(10.1974 -3.18141e-21 3.72536)
(10.2485 1.05359e-19 3.53732)
(10.2776 1.34082e-21 4.03911)
(10.3292 -1.06425e-19 3.83623)
(10.3757 -4.45106e-21 4.36507)
(10.4266 2.64304e-20 4.14638)
(10.5427 -1.18866e-19 4.46659)
(10.1743 -3.32235e-21 2.82921)
(10.2306 -1.75297e-19 3.09172)
(10.266 -4.10788e-21 2.92842)
(10.2991 -7.64516e-20 3.36583)
(10.3356 -8.72507e-20 3.19029)
(10.3816 -4.77423e-22 3.65103)
(10.4183 1.13626e-19 3.46247)
(10.4798 -8.06811e-20 3.94649)
(10.5158 -3.28632e-20 3.74421)
(10.5956 -9.08627e-20 4.25107)
(10.6297 -6.9495e-20 4.03442)
(10.7617 -2.3089e-20 4.33173)
(10.372 8.60576e-20 3.02942)
(10.4561 1.07614e-19 3.28944)
(10.5542 8.0386e-20 3.55824)
(10.5772 2.27926e-20 3.37035)
(10.6677 -2.14303e-20 3.83482)
(10.689 5.95981e-20 3.63431)
(10.7983 0 4.11787)
(10.8167 -1.65147e-19 3.90436)
(10.9615 8.20893e-20 4.17903)
(10.7139 1.55955e-21 3.44873)
(10.8403 -8.77676e-20 3.70619)
(10.9827 -8.07707e-20 3.96789)
(10.9868 -8.89938e-20 3.75841)
(11.1417 8.4077e-20 4.011)
(11.1487 8.00956e-20 3.80346)
)
;

boundaryField
{
    inlet
    {
        type            calculated;
        value           uniform (10 0 0);
    }
    outlet
    {
        type            calculated;
        value           nonuniform 0();
    }
    flap
    {
        type            calculated;
        value           nonuniform 0();
    }
    upperWall
    {
        type            calculated;
        value           nonuniform 0();
    }
    lowerWall
    {
        type            calculated;
        value           uniform (0 0 0);
    }
    frontAndBack
    {
        type            empty;
        value           nonuniform 0();
    }
    procBoundary3to0
    {
        type            processor;
        value           nonuniform List<vector> 
34
(
(9.9845 6.62078e-19 0.122125)
(9.97376 -1.84215e-19 0.23676)
(9.96706 -4.19173e-20 0.301625)
(9.95701 -2.45572e-19 0.366448)
(9.94231 -2.22685e-19 0.437545)
(9.93214 -4.08317e-20 0.508122)
(9.91675 -4.07312e-20 0.58579)
(9.9063 1.6369e-19 0.662386)
(9.89384 2.50222e-19 0.746622)
(9.88553 8.68384e-20 0.82906)
(9.87774 1.73523e-19 0.919522)
(9.87421 3.36812e-19 1.00731)
(9.87258 7.69235e-20 1.10343)
(9.87591 -4.83941e-21 1.19582)
(9.84921 1.77098e-19 1.37642)
(9.8605 -8.72253e-20 1.48347)
(9.87793 -1.7052e-19 1.58474)
(9.90125 -1.69464e-19 1.69426)
(9.93077 -2.49878e-19 1.79642)
(9.9306 -8.94503e-20 2.01177)
(9.9769 1.24751e-22 2.1261)
(10.0294 -4.05238e-20 2.2301)
(10.0542 1.72253e-19 2.46616)
(10.1287 1.70406e-19 2.57854)
(10.2081 8.73976e-20 2.67733)
(10.3006 8.65697e-20 2.7789)
(10.3958 1.64873e-19 2.86523)
(10.4799 4.28495e-20 3.11368)
(10.6025 -4.40877e-20 3.19687)
(10.7241 -1.62236e-19 3.26251)
(10.8479 1.62151e-19 3.50843)
(10.9969 1.60741e-19 3.56264)
(11.1398 -7.00615e-20 3.59869)
(11.3022 1.55242e-19 3.82994)
)
;
    }
    procBoundary3to1
    {
        type            processor;
        value           nonuniform List<vector> 9((9.36681 -1.13157e-19 5.00392) (9.67108 -1.01133e-19 4.97316) (9.96232 -1.00687e-19 4.91027) (10.2374 1.20599e-19 4.81871) (10.4941 -1.88687e-19 4.70192) (10.7309 7.02083e-20 4.56325) (10.9471 0 4.40577) (11.1421 -4.24688e-22 4.23223) (11.316 -1.62181e-19 4.04515));
    }
    procBoundary3to4
    {
        type            processor;
        value           nonuniform List<vector> 
19
(
(4.30368 9.87063e-20 0.259974)
(5.20553 -3.69766e-19 0.660606)
(5.63079 3.95395e-19 1.08089)
(5.87109 2.03238e-19 1.45893)
(6.03471 -1.78162e-18 1.81087)
(6.16926 5.82626e-19 2.14542)
(6.2971 -4.787e-19 2.46763)
(6.42943 -1.00854e-19 2.78028)
(6.57269 2.78241e-18 3.08413)
(6.73138 1.33842e-18 3.37841)