/*--------------------------------*- C++ -*----------------------------------*\
| =========                 |                                                 |
| \\      /  F ield         | OpenFOAM: The Open Source CFD Toolbox           |
|  \\    /   O peration     | Version:  dev                                   |
|   \\  /    A nd           | Web:      www.OpenFOAM.org                      |
|    \\/     M anipulation  |                                                 |
\*---------------------------------------------------------------------------*/
FoamFile
{
    version     2.0;
    format      ascii;
    class       surfaceVectorField;
    location    "3.18";
    object      Uf;
}
// * * * * * * * * * * * * * * * * * * * * * * * * * * * * * * * * * * * * * //

dimensions      [0 1 -1 0 0 0 0];

internalField   nonuniform List<vector> 
881
(
(9.91378 -6.2049e-22 0.0241013)
(9.97602 0 0.0391659)
(9.81274 -1.24949e-21 0.0316529)
(9.92857 -5.48704e-21 0.0472635)
(9.69481 2.02308e-21 0.0379575)
(9.84952 -5.67076e-21 0.0569327)
(9.55819 2.56908e-21 0.044373)
(9.74871 9.13475e-21 0.0680474)
(9.40314 7.12319e-22 0.0509467)
(9.62961 -5.3815e-21 0.0796672)
(9.23004 6.90737e-22 0.0577321)
(9.49198 2.15055e-24 0.0917202)
(9.03888 -3.83896e-22 0.0648668)
(9.33529 0 0.104426)
(8.82934 -3.7245e-22 0.0724914)
(9.15927 -1.20977e-20 0.117997)
(8.60083 -7.09945e-21 0.0807337)
(8.96358 1.24517e-20 0.132622)
(8.35257 6.9618e-21 0.0897124)
(8.7476 1.87586e-20 0.148485)
(8.08363 -8.25733e-21 0.0995426)
(8.51051 -4.22082e-20 0.165751)
(7.79298 -6.0966e-21 0.110344)
(8.25131 -2.17211e-20 0.184584)
(7.47947 1.45292e-20 0.12224)
(7.96892 4.39645e-20 0.205151)
(7.14193 -4.10491e-21 0.135354)
(7.66217 0 0.227607)
(6.77918 -3.98555e-21 0.149802)
(7.32988 -5.51641e-23 0.252083)
(6.39011 0 0.165682)
(6.97085 7.56878e-20 0.278667)
(5.97376 -3.78684e-20 0.183061)
(6.58396 9.81351e-22 0.307381)
(5.52947 -7.58908e-21 0.201944)
(6.1683 -1.28087e-19 0.338131)
(5.05708 2.84102e-20 0.222251)
(5.72328 -9.64063e-20 0.370651)
(4.55711 0 0.24379)
(5.24886 1.78481e-19 0.404453)
(4.74573 2.08136e-20 0.43878)
(9.99815 -4.94805e-21 0.0501231)
(10.0046 -9.46301e-21 0.040003)
(9.96019 -9.91473e-21 0.0684725)
(9.98397 -4.88726e-21 0.0650161)
(9.89974 1.67232e-21 0.084702)
(9.93549 5.01486e-21 0.0861167)
(9.81866 9.56858e-22 0.101635)
(9.86593 -1.30638e-21 0.108431)
(9.71715 -6.00828e-21 0.119356)
(9.77751 2.6712e-21 0.131828)
(9.5954 -6.88319e-22 0.137929)
(9.67011 -6.99043e-22 0.15623)
(9.45344 -1.18976e-20 0.157631)
(9.54345 0 0.181983)
(9.29101 1.10086e-21 0.178767)
(9.39738 -1.32196e-20 0.209477)
(9.10758 3.84057e-20 0.201626)
(9.23163 1.26473e-20 0.239093)
(8.90243 -3.13263e-20 0.226473)
(9.0457 2.65669e-20 0.271202)
(8.67467 -5.53663e-20 0.25356)
(8.83885 4.26087e-23 0.30615)
(8.42327 2.93191e-20 0.283137)
(8.61015 3.25611e-22 0.344278)
(8.14709 2.8787e-20 0.315444)
(8.35858 2.99486e-20 0.385927)
(7.84496 4.06185e-21 0.350701)
(8.08305 7.90141e-22 0.431415)
(7.51563 8.0749e-20 0.389084)
(7.7824 6.88004e-20 0.481037)
(7.15791 7.5624e-20 0.430685)
(7.45539 -6.42537e-20 0.535017)
(6.77068 -9.10607e-20 0.475466)
(7.10083 -1.38314e-19 0.593436)
(6.3531 -2.16444e-19 0.52318)
(6.71763 7.07783e-20 0.656166)
(5.90471 5.74284e-20 0.573291)
(6.30493 -1.44148e-19 0.72276)
(5.42564 1.97072e-19 0.624898)
(5.8622 1.58732e-19 0.792332)
(5.38951 1.55942e-22 0.863449)
(9.99081 -9.32721e-21 0.0575734)
(10.0023 -9.45428e-21 0.0441815)
(9.95631 1.02066e-20 0.085919)
(9.97911 4.8658e-21 0.0811594)
(9.89967 1.94133e-21 0.112695)
(9.93178 5.04313e-21 0.113474)
(9.82387 4.707e-22 0.14066)
(9.86544 -1.30358e-20 0.146204)
(9.72951 7.929e-21 0.170104)
(9.78118 1.07438e-20 0.180332)
(9.61673 0 0.20116)
(9.67892 2.23391e-20 0.216015)
(9.48557 -1.52208e-21 0.234194)
(9.55863 -2.01081e-20 0.253661)
(9.33592 -1.27928e-21 0.26965)
(9.42032 -2.06504e-24 0.293787)
(9.16739 1.01413e-21 0.307983)
(9.26388 3.39865e-25 0.336945)
(8.97941 5.75344e-20 0.349631)
(9.08898 5.26907e-20 0.383687)
(8.77122 5.57437e-20 0.395017)
(8.89503 2.55185e-21 0.434529)
(8.5419 1.38853e-21 0.444562)
(8.6813 4.14653e-21 0.489987)
(8.29047 1.5211e-21 0.498672)
(8.44698 7.28098e-22 0.550568)
(8.01582 6.65435e-20 0.55773)
(8.19119 1.22519e-19 0.616749)
(7.71681 -7.80865e-20 0.622076)
(7.91292 -1.87223e-19 0.68901)
(7.39219 -2.79258e-19 0.69192)
(7.61114 -2.58932e-20 0.767754)
(7.04076 2.644e-20 0.767261)
(7.28473 -1.22275e-19 0.853188)
(6.66143 1.40052e-19 0.847787)
(6.9326 -1.25877e-19 0.945247)
(6.25329 -3.85951e-20 0.932731)
(6.55376 5.7645e-19 1.04347)
(5.81577 -4.02809e-20 1.02072)
(6.1473 -6.40219e-19 1.14679)
(5.71256 -2.45671e-20 1.25337)
(9.98646 4.95679e-21 0.0683382)
(10.001 9.45331e-21 0.0503362)
(9.95216 -2.95074e-22 0.108133)
(9.97601 4.87059e-21 0.0972127)
(9.89657 -1.0216e-20 0.146252)
(9.92861 5.02657e-21 0.140334)
(9.82206 -2.38502e-21 0.185134)
(9.86354 -2.58902e-20 0.183342)
(9.7296 2.53316e-20 0.225578)
(9.78107 2.41894e-20 0.227874)
(9.61942 1.5751e-21 0.267995)
(9.68099 -1.65121e-20 0.274442)
(9.49165 -1.8286e-20 0.312892)
(9.56346 -7.4763e-23 0.323519)
(9.34631 1.27726e-21 0.360874)
(9.42869 5.23594e-20 0.375697)
(9.18323 5.2466e-20 0.412584)
(9.27664 -4.94418e-20 0.431674)
(9.00203 -3.04881e-21 0.468644)
(9.10712 1.02708e-19 0.492164)
(8.80218 -4.90481e-20 0.529657)
(8.91968 -1.06442e-19 0.557828)
(8.58304 3.43114e-21 0.596214)
(8.71379 1.2281e-23 0.629312)
(8.3439 1.23521e-19 0.668893)
(8.48894 -7.19178e-21 0.707258)
(8.08396 -1.35734e-19 0.748258)
(8.24445 2.57462e-19 0.792292)
(7.80233 -1.32732e-19 0.834838)
(7.97956 -3.76231e-19 0.885051)
(7.49808 1.29788e-19 0.929021)
(7.69352 1.30429e-19 0.986097)
(7.17022 -2.74778e-19 1.03095)
(7.38549 1.1081e-22 1.09579)
(6.81775 3.20188e-19 1.14039)
(7.05456 -2.87589e-19 1.21418)
(6.43968 -4.18205e-20 1.2566)
(6.69982 3.00287e-19 1.34093)
(6.03508 -6.16645e-19 1.37806)
(6.32025 -3.17321e-19 1.475)
(5.91478 3.55542e-20 1.61449)
(9.98437 9.30165e-21 0.079901)
(10.0004 3.29525e-20 0.0574411)
(9.94979 1.02041e-20 0.129737)
(9.9745 -4.83863e-21 0.113405)
(9.89517 -1.11423e-20 0.178018)
(9.92724 1.00451e-20 0.166728)
(9.82207 1.46326e-21 0.226935)
(9.86347 -2.06753e-20 0.219799)
(9.73144 -1.82937e-20 0.277709)
(9.78291 7.27806e-23 0.274492)
(9.62361 -1.79165e-20 0.330989)
(9.68514 1.6512e-20 0.331645)
(9.49879 7.13694e-20 0.387363)
(9.5705 2.03715e-20 0.391796)
(9.35707 1.07033e-22 0.447534)
(9.43926 -4.70478e-20 0.455606)
(9.19833 3.05128e-21 0.512281)
(9.29141 -4.96984e-20 0.523932)
(9.02226 -3.78997e-21 0.582357)
(9.12679 1.02453e-19 0.597634)
(8.82845 -5.5823e-20 0.658466)
(8.945 5.67887e-20 0.677478)
(8.61647 -1.07179e-20 0.741305)
(8.74565 -2.26961e-21 0.764186)
(8.38583 1.30585e-19 0.831573)
(8.52845 -1.13772e-19 0.85851)
(8.13593 7.90099e-21 0.929968)
(8.29285 1.20856e-19 0.961223)
(7.86612 -1.05827e-19 1.03715)
(8.03824 1.39963e-19 1.07308)
(7.57572 -1.14715e-21 1.15365)
(7.76409 -2.39156e-19 1.19477)
(7.26399 -1.67269e-20 1.27975)
(7.46973 -1.69711e-20 1.32679)
(6.93012 -2.99577e-19 1.41538)
(7.1544 -2.79658e-19 1.46936)
(6.57316 1.60528e-20 1.55991)
(6.8173 -8.44629e-21 1.62231)
(6.19203 3.39672e-19 1.71195)
(6.45737 9.45189e-19 1.78478)
(6.07324 -6.19527e-19 1.95507)
(9.98344 1.82897e-20 0.0917823)
(10.0002 4.72429e-21 0.0649668)
(9.94882 -4.76209e-21 0.151034)
(9.97401 -4.83939e-21 0.129622)
(9.89538 2.09233e-23 0.209167)
(9.92728 1.99744e-20 0.192564)
(9.82403 -2.17454e-20 0.268065)
(9.86503 -3.08736e-20 0.255394)
(9.73562 3.51349e-20 0.329121)
(9.78664 -1.92217e-22 0.319992)
(9.63059 5.4864e-20 0.393112)
(9.69166 6.08985e-20 0.387395)
(9.50924 -9.90839e-20 0.460691)
(9.58049 -5.35909e-21 0.458206)
(9.37168 -9.69128e-20 0.532683)
(9.45338 -1.00893e-19 0.53322)
(9.21772 5.19687e-20 0.610017)
(9.31028 -3.49159e-21 0.613472)
(9.04706 1.62374e-19 0.693552)
(9.15105 1.53601e-19 0.699932)
(8.85942 1.09516e-19 0.784063)
(8.97537 1.88194e-21 0.793412)
(8.65451 -1.06948e-19 0.882336)
(8.78299 -5.60533e-21 0.894687)
(8.43193 -1.20192e-19 0.989194)
(8.57366 7.34807e-21 1.00463)
(8.19121 2.53244e-19 1.10547)
(8.34692 -3.83291e-19 1.12415)
(7.93181 1.46052e-21 1.23193)
(8.10227 2.4612e-19 1.25411)
(7.65319 -2.51978e-19 1.36924)
(7.83921 -3.34529e-21 1.39531)
(7.3547 -2.83613e-19 1.51783)
(7.55717 0 1.54839)
(7.03562 1.49757e-20 1.67782)
(7.25545 -2.79892e-19 1.71375)
(6.69498 9.33672e-19 1.84881)
(6.93321 3.22723e-19 1.89144)
(6.33154 -3.39966e-20 2.02965)
(6.58927 6.0502e-19 2.08092)
(6.22195 -6.59718e-19 2.28081)
(9.98318 -1.85133e-20 0.103738)
(10.0002 -1.04923e-22 0.0726132)
(9.94892 2.02932e-20 0.17198)
(9.97417 -9.58688e-21 0.145675)
(9.89685 -1.17387e-20 0.239581)
(9.92835 -9.85024e-21 0.217749)
(9.82754 -8.82055e-21 0.30815)
(9.86788 -3.09844e-20 0.289993)
(9.74176 2.65182e-20 0.379115)
(9.79197 4.24078e-20 0.364163)
(9.64011 -3.47283e-22 0.453357)
(9.70033 -5.43234e-21 0.441382)
(9.52289 -8.59759e-21 0.531652)
(9.59325 -4.55494e-20 0.5224)
(9.39009 -6.00176e-21 0.614995)
(9.47081 5.26489e-20 0.6082)
(9.24151 1.00461e-19 0.704444)
(9.33302 1.00708e-19 0.699948)
(9.07695 -9.12518e-21 0.800917)
(9.17984 1.67179e-21 0.798667)
(8.89621 -1.13415e-19 0.905233)
(9.01106 -1.0971e-19 0.905188)
(8.69909 1.08918e-19 1.01826)
(8.82649 -2.87654e-23 1.02036)
(8.48522 -2.61255e-19 1.14096)
(8.62584 1.14046e-19 1.14519)
(8.25419 -3.81858e-19 1.27428)
(8.40873 -3.54039e-19 1.28073)
(8.00548 2.37845e-19 1.4191)
(8.1747 -1.81726e-20 1.42795)
(7.73858 2.48944e-19 1.57621)
(7.92324 2.5249e-19 1.58774)
(7.45286 0 1.74623)
(7.65376 -3.22835e-20 1.76093)
(7.14754 3.58077e-20 1.92949)
(7.36556 0 1.94812)
(6.82155 -2.59954e-21 2.1259)
(7.05766 5.6052e-19 2.14967)
(6.47335 -3.65373e-20 2.33467)
(6.72874 -1.19075e-18 2.36544)
(6.37674 5.93847e-19 2.5945)
(9.98331 8.68381e-21 0.115571)
(10.0004 1.7013e-23 0.0802002)
(9.94978 -3.9706e-20 0.192434)
(9.97479 1.92254e-20 0.161395)
(9.89931 -2.94306e-20 0.269102)
(9.93018 -3.97203e-20 0.242174)
(9.83235 2.14344e-20 0.346963)
(9.87178 -8.30393e-23 0.323438)
(9.7497 9.72397e-21 0.427407)
(9.7988 5.29661e-20 0.40675)
(9.652 -5.12464e-20 0.511438)
(9.711 -4.3554e-20 0.493307)
(9.53943 1.71595e-20 0.600018)
(9.60846 -5.11299e-20 0.584097)
(9.4119 1.60092e-19 0.694283)
(9.49114 1.43482e-19 0.680262)
(9.26931 4.55569e-22 0.795355)
(9.35924 1.05571e-20 0.783014)
(9.11161 -1.00562e-19 0.90418)
(9.21283 -1.00373e-19 0.893381)
(8.93868 5.27448e-21 1.02164)
(9.05183 -6.18428e-24 1.01225)
(8.75029 6.68792e-21 1.14872)
(8.87598 3.44524e-21 1.14062)
(8.54607 1.47957e-20 1.2865)
(8.68497 -6.91495e-21 1.2796)
(8.32562 1.4394e-20 1.43606)
(8.47844 1.45991e-20 1.43036)
(8.08848 0 1.5984)
(8.25601 -2.39348e-19 1.59399)
(7.83407 -3.27285e-20 1.77444)
(8.01713 2.45244e-19 1.77153)
(7.56174 -3.18771e-20 1.965)
(7.76117 -5.13188e-19 1.96396)
(7.27059 5.32203e-19 2.17072)
(7.48735 5.25165e-19 2.17216)
(6.9594 -6.49582e-19 2.39189)
(7.19452 5.2581e-19 2.39684)
(6.62637 -5.39419e-19 2.62824)
(6.88125 -6.23709e-19 2.63841)
(6.54522 -2.09585e-20 2.89655)
(9.98369 1.08423e-20 0.127138)
(10.0006 -1.25733e-22 0.0876157)
(9.95117 1.83525e-20 0.212263)
(9.9757 2.88194e-20 0.176647)
(9.90258 -9.73217e-21 0.29758)
(9.93258 -2.96382e-20 0.265706)
(9.83837 3.22957e-20 0.384296)
(9.87661 2.03947e-20 0.355531)
(9.75932 -1.80886e-21 0.473754)
(9.80703 2.13624e-20 0.447514)
(9.66598 -4.35527e-20 0.567119)
(9.72343 -3.2615e-20 0.542957)
(9.55845 7.80828e-20 0.665544)
(9.62576 -4.50381e-20 0.643082)
(9.4367 -8.02904e-21 0.770243)
(9.51403 1.34128e-19 0.749124)
(9.30079 -9.19203e-20 0.882339)
(9.38864 -9.33131e-20 0.862277)
(9.15077 1.6451e-21 1.00282)
(9.24978 0 0.983586)
(8.98654 -1.78815e-21 1.13269)
(9.09734 1.62252e-21 1.11407)
(8.8078 -1.03074e-20 1.27307)
(8.93103 2.1152e-19 1.25487)
(8.61421 -6.82304e-21 1.42515)
(8.75057 -2.1514e-19 1.40723)
(8.40538 -2.42664e-19 1.59012)
(8.55565 0 1.57236)
(8.18089 1.22013e-20 1.7691)
(8.3459 -4.608e-19 1.7515)
(7.94013 -2.45188e-19 1.9632)
(8.12079 5.02026e-19 1.94585)
(7.68236 5.67813e-20 2.17348)
(7.87967 -4.65829e-19 2.15662)
(7.40657 5.18967e-19 2.40087)
(7.62165 5.25805e-19 2.38498)
(7.11137 5.38324e-19 2.64619)
(7.34545 -5.69368e-19 2.63202)
(6.79482 -9.71586e-20 2.90983)
(7.04946 1.11486e-18 2.89875)
(6.73128 -5.45736e-19 3.18577)
(9.98424 1.82809e-20 0.138331)
(10.0009 3.69747e-20 0.094782)
(9.95298 -2.00652e-20 0.231338)
(9.97686 1.90003e-20 0.191317)
(9.90656 1.28795e-21 0.324844)
(9.93547 -1.97554e-20 0.288203)
(9.84548 9.44561e-21 0.419938)
(9.88228 4.06939e-20 0.38608)
(9.77039 -1.02909e-20 0.517951)
(9.81644 -7.32377e-20 0.486269)
(9.68173 -3.42837e-20 0.620199)
(9.73732 8.63724e-20 0.590161)
(9.57965 1.36235e-20 0.727976)
(9.64488 -7.82552e-20 0.699132)
(9.46426 4.55373e-20 0.842514)
(9.53926 4.62454e-20 0.814462)
(9.33573 -2.82583e-23 0.964942)
(9.42102 8.95247e-20 0.937327)
(9.19413 0 1.09634)
(9.29038 -9.1856e-20 1.06884)
(9.03933 2.17902e-19 1.23785)
(9.14714 0 1.21018)
(8.87106 9.24334e-22 1.39074)
(8.99108 2.17057e-19 1.36262)
(8.68902 -2.05507e-19 1.55626)
(8.82201 6.02107e-21 1.52747)
(8.49289 -2.24254e-19 1.73569)
(8.63967 5.40821e-21 1.70602)
(8.28223 4.13766e-20 1.93035)
(8.44373 -4.73366e-19 1.89964)
(8.05648 2.69215e-19 2.14153)
(8.23369 -1.2582e-20 2.10975)
(7.81481 1.53962e-20 2.37057)
(8.00889 2.45069e-19 2.33778)
(7.55614 -5.76582e-19 2.61878)
(7.76843 0 2.58526)
(7.27891 2.61834e-20 2.88745)
(7.51095 -1.37472e-20 2.8537)
(6.98102 6.48097e-19 3.17782)
(7.23465 4.908e-20 3.14471)
(6.93709 -4.82058e-19 3.45993)
(9.98493 3.74318e-20 0.149062)
(10.0013 -5.53014e-20 0.101636)
(9.95515 1.87025e-20 0.249538)
(9.97822 2.13206e-23 0.205297)
(9.91117 2.06102e-20 0.350745)
(9.93881 0 0.309538)
(9.85349 -4.37787e-20 0.453724)
(9.88865 2.0297e-20 0.414955)
(9.78264 2.58599e-20 0.559828)
(9.82678 -2.79297e-22 0.52287)
(9.69902 3.998e-20 0.670476)
(9.75245 5.40159e-22 0.634733)
(9.60285 -4.38283e-20 0.787033)
(9.66565 -2.99376e-22 0.751994)
(9.49438 9.08635e-20 0.910741)
(9.56666 0 0.875958)
(9.37382 -4.86917e-21 1.04277)
(9.45611 1.84319e-19 1.00782)
(9.24124 -9.06043e-20 1.18431)
(9.33419 -1.95142e-19 1.14879)
(9.0965 2.08288e-21 1.33667)
(9.20071 0 1.3002)
(8.93942 2.19385e-19 1.50117)
(9.05556 -2.06729e-19 1.4634)
(8.76982 2.17222e-19 1.67916)
(8.89866 4.27905e-19 1.63974)
(8.5874 -2.49838e-19 1.87202)
(8.72982 1.94653e-21 1.83063)
(8.3918 -5.21788e-19 2.08123)
(8.54876 -2.45013e-19 2.03759)
(8.18247 -3.39404e-20 2.30833)
(8.35506 -4.90237e-19 2.2622)
(7.95861 2.2687e-19 2.55494)
(8.14813 4.70093e-19 2.50619)
(7.7191 5.63273e-19 2.82281)
(7.92708 4.97592e-19 2.77142)
(7.46234 1.02931e-20 3.11377)
(7.69064 3.38716e-20 3.05991)
(7.18608 -1.08847e-18 3.42986)
(7.43695 -1.05871e-18 3.37393)
(7.16351 -5.90081e-19 3.71609)
(9.98574 -9.19058e-20 0.15925)
(10.0017 -3.6973e-20 0.108123)
(9.95765 -1.86848e-20 0.266756)
(9.97976 -5.66408e-20 0.218494)
(9.91631 0 0.375168)
(9.94253 -3.88864e-20 0.329607)
(9.86222 6.34916e-20 0.485526)
(9.8956 6.02019e-20 0.442058)
(9.79587 -2.55887e-20 0.59922)
(9.83789 4.18895e-20 0.557183)
(9.71767 -3.97754e-20 0.717722)
(9.76865 -1.28651e-19 0.676467)
(9.62789 4.35542e-20 0.842433)
(9.68789 9.9066e-20 0.80141)
(9.52681 9.60982e-20 0.974615)
(9.59598 1.13128e-20 0.93334)
(9.41469 -1.12827e-20 1.1155)
(9.49355 8.31039e-20 1.07348)
(9.29159 -1.01845e-19 1.26642)
(9.38077 -1.1532e-19 1.22315)
(9.15749 -2.11675e-19 1.42875)
(9.25756 0 1.38377)
(9.01232 1.00723e-20 1.60388)
(9.12394 -2.1532e-19 1.55675)
(8.85596 2.07147e-19 1.79323)
(8.97992 2.1351e-19 1.7435)
(8.68822 3.81752e-21 1.99833)
(8.8254 -3.46855e-21 1.94555)
(8.50882 -2.16345e-19 2.22081)
(8.6602 6.93618e-21 2.16453)
(8.31728 2.51533e-20 2.46243)
(8.48404 -4.51761e-19 2.40221)
(8.11291 7.41409e-19 2.72515)
(8.29643 9.50591e-19 2.66058)
(7.89469 -3.68068e-20 3.01111)
(8.09664 1.08604e-20 2.94185)
(7.66108 -1.04766e-18 3.32277)
(7.88355 -5.08507e-19 3.24854)
(7.4099 -5.55633e-19 3.66298)
(7.65552 -5.28255e-19 3.5836)
(7.4102 -4.01703e-20 3.9506)
(9.98664 -1.98989e-21 0.168829)
(10.0021 4.59117e-20 0.1142)
(9.96041 -7.65701e-20 0.282904)
(9.98144 -9.42431e-21 0.230832)
(9.92188 2.28717e-20 0.398019)
(9.94654 1.91804e-20 0.34833)
(9.87157 3.82698e-20 0.515235)
(9.90301 4.03012e-20 0.467295)
(9.80998 -6.37564e-20 0.635966)
(9.84969 -4.12681e-20 0.589076)
(9.73752 1.35291e-20 0.76172)
(9.7858 -8.52511e-20 0.715186)
(9.65449 6.55631e-20 0.893932)
(9.71138 6.5742e-20 0.847177)
(9.5612 -6.78801e-22 1.03389)
(9.6269 2.92934e-23 0.986391)
(9.4579 -2.37039e-20 1.18289)
(9.53293 -1.15975e-20 1.13408)
(9.34476 -1.18668e-20 1.34233)
(9.42969 1.07753e-19 1.29164)
(9.22183 -6.47314e-21 1.51368)
(9.31722 -1.9694e-19 1.46055)
(9.08918 -6.30465e-21 1.69837)
(9.19567 1.01034e-19 1.64227)
(8.94678 0 1.89792)
(9.06513 0 1.83828)
(8.79457 -2.20337e-22 2.11394)
(8.92565 0 2.05018)
(8.63238 -2.34094e-19 2.34822)
(8.77718 -3.42394e-21 2.27972)
(8.45991 4.90154e-19 2.60274)
(8.61959 -2.31211e-19 2.52884)
(8.27663 2.09553e-19 2.87974)
(8.45262 2.50071e-19 2.79975)
(8.08172 -4.66596e-19 3.18179)
(8.27576 -4.86161e-19 3.09495)
(7.87392 1.15141e-20 3.51192)
(8.08823 9.84217e-19 3.41744)
(7.65138 -7.94817e-21 3.87376)
(7.88878 -4.97162e-19 3.77077)
(7.67559 -4.66159e-23 4.1594)
(9.98762 3.77567e-20 0.177748)
(10.0026 9.13954e-21 0.119832)
(9.96335 8.67938e-20 0.297911)
(9.98324 -9.03473e-21 0.24226)
(9.92778 3.69388e-20 0.419213)
(9.95077 3.88002e-20 0.365634)
(9.88146 -4.05392e-20 0.542738)
(9.91079 -1.9925e-20 0.490564)
(9.82485 -6.34174e-20 0.669924)
(9.86209 -2.26074e-22 0.618428)
(9.75837 -3.08561e-20 0.802304)
(9.80373 -4.24921e-20 0.750765)
(9.68236 -7.45748e-22 0.941343)
(9.73587 -5.4318e-20 0.889144)
(9.59717 -1.10577e-20 1.08836)
(9.65907 7.78382e-20 1.03493)
(9.50306 1.21541e-19 1.24468)
(9.57387 1.16074e-20 1.18941)
(9.40027 -8.1419e-20 1.41177)
(9.48051 1.3067e-20 1.35401)
(9.28899 -8.55739e-20 1.59113)
(9.37919 -9.99234e-20 1.53025)
(9.16937 1.06077e-19 1.78426)
(9.27013 1.075e-19 1.71962)
(9.04155 0 1.99272)
(9.15358 -2.06293e-19 1.92366)
(8.90559 -3.24716e-21 2.21822)
(9.02972 -1.02295e-21 2.14402)
(8.7615 -3.16974e-21 2.46268)
(8.89867 -7.71822e-22 2.38254)
(8.60917 -4.66347e-19 2.72825)
(8.76052 2.21462e-19 2.64128)
(8.44836 -4.54537e-19 3.0174)
(8.61527 -6.92187e-19 2.92261)
(8.27859 9.80845e-19 3.33304)
(8.46275 -2.30581e-19 3.22928)
(8.09904 4.61447e-19 3.6787)
(8.30263 1.4419e-18 3.56462)
(7.90847 -4.84788e-19 4.0587)
(8.13432 -9.84887e-19 3.93266)
(7.9568 5.32594e-21 4.33852)
(9.98867 -3.78349e-20 0.185965)
(9.96645 -5.62922e-20 0.311721)
(9.93397 -1.89944e-20 0.438672)
(9.95522 -3.77725e-20 0.38146)
(9.89178 2.06963e-20 0.567931)
(9.91893 7.45358e-20 0.511791)
(9.84033 2.00848e-20 0.700968)
(9.87497 -3.68085e-20 0.645155)
(9.78 -6.61435e-20 0.839328)
(9.82233 0 0.783107)
(9.71123 2.61218e-20 0.984488)
(9.76125 -6.64377e-20 0.9272)
(9.63437 9.96033e-20 1.13779)
(9.69237 6.92432e-21 1.07882)
(9.54974 -9.68961e-20 1.30061)
(9.61621 1.13919e-20 1.2393)
(9.45764 -6.95541e-21 1.47442)
(9.53308 -2.04373e-20 1.41007)
(9.35837 9.59063e-20 1.66074)
(9.44327 1.78964e-19 1.59265)
(9.25221 -2.09003e-19 1.8611)
(9.34716 -1.04959e-19 1.78855)
(9.13942 -2.04992e-19 2.07712)
(9.24509 -4.14611e-19 1.99935)
(9.02027 1.27789e-21 2.31057)
(9.13742 3.9251e-19 2.22672)
(8.89494 2.26369e-19 2.56343)
(9.02446 -4.00505e-19 2.47255)
(8.76361 -1.4576e-20 2.83797)
(8.90656 2.25326e-19 2.73896)
(8.62636 -4.63976e-19 3.13684)
(8.78402 -2.53257e-20 3.0284)
(8.48317 2.46357e-19 3.46317)
(8.65712 -6.52603e-19 3.34378)
(8.33384 -2.87068e-20 3.8208)
(8.52608 9.17476e-19 3.68857)
(8.17798 -4.86318e-19 4.21451)
(8.39112 -4.86882e-19 4.06707)
(8.25232 1.38272e-21 4.48472)
(9.94057 5.89831e-20 0.456678)
(9.90272 1.5208e-20 0.591207)
(9.92764 4.04952e-20 0.531594)
(9.85666 -5.78264e-20 0.729608)
(9.88868 -9.69562e-20 0.67003)
(9.80283 0 0.873422)
(9.84209 -1.12193e-22 0.813124)
(9.74168 -8.67625e-20 1.02412)
(9.7882 3.96386e-20 0.962408)
(9.6736 -8.47701e-20 1.18308)
(9.72768 -8.65969e-20 1.11928)
(9.59897 9.09628e-20 1.35168)
(9.66107 2.05291e-20 1.2851)
(9.51817 1.71515e-19 1.53139)
(9.58876 1.56166e-19 1.46129)
(9.43159 -2.79029e-20 1.72374)
(9.51116 -8.34591e-20 1.64934)
(9.33967 -3.16564e-19 1.93027)
(9.42873 1.75701e-19 1.85078)
(9.24283 2.00343e-19 2.1526)
(9.34199 -1.98565e-19 2.06716)
(9.14149 -1.91675e-20 2.39254)
(9.25145 2.15911e-19 2.30017)
(9.03611 -4.06923e-19 2.65209)
(9.15767 -6.11064e-19 2.55167)
(8.92716 2.15917e-19 2.93356)
(9.06126 1.98251e-19 2.8238)
(8.81514 -2.1629e-19 3.23964)
(8.96288 2.1699e-19 3.119)
(8.70055 2.92257e-20 3.57356)
(8.86329 -4.41978e-19 3.44015)
(8.58396 4.54512e-19 3.93925)
(8.76339 4.24292e-19 3.79071)
(8.46605 1.40963e-20 4.3416)
(8.66426 -1.17453e-20 4.1749)
(8.56728 4.2418e-19 4.59806)
(9.91417 -7.48741e-20 0.612496)
(9.87373 -3.75649e-20 0.755708)
(9.90292 -2.06413e-21 0.692454)
(9.82664 4.0578e-20 0.904366)
(9.86259 -5.61169e-20 0.840089)
(9.77337 3.95628e-20 1.05993)
(9.8161 -3.64014e-20 0.993909)
(9.71437 2.14551e-20 1.22379)
(9.76417 5.92363e-20 1.15532)
(9.65007 8.74925e-20 1.39733)
(9.70737 2.12581e-20 1.32567)
(9.58093 -1.05314e-19 1.582)
(9.64616 8.74573e-20 1.50637)
(9.50746 1.25341e-19 1.77929)
(9.58106 -1.91342e-19 1.69888)
(9.43023 2.96687e-19 1.99073)
(9.51264 2.91103e-19 1.90467)
(9.34982 -1.8262e-19 2.21793)
(9.44157 1.25836e-20 2.12527)
(9.26686 -3.90272e-19 2.46265)
(9.36853 -1.95095e-19 2.36232)
(9.18206 8.16614e-21 2.72687)
(9.29432 -3.87105e-19 2.61763)
(9.09623 1.99049e-19 3.01285)
(9.21981 2.03852e-19 2.89325)
(9.01027 -1.33079e-20 3.3232)
(9.14605 2.18178e-19 3.19149)
(8.9253 -3.95219e-20 3.66104)
(9.07428 -1.33286e-20 3.51508)
(8.84266 -5.27119e-20 4.0301)
(9.00602 1.97393e-19 3.86721)
(8.76412 4.07589e-19 4.43502)
(8.94323 -2.03196e-19 4.25174)
(8.88847 4.59851e-19 4.67335)
(9.89145 -2.12062e-20 0.778969)
(9.85131 -1.34963e-19 0.931837)
(9.88377 -3.91967e-20 0.863705)
(9.80616 -1.61016e-20 1.09158)
(9.84487 -6.03628e-20 1.02135)
(9.75648 5.89828e-20 1.25957)
(9.80173 6.08483e-20 1.18652)
(9.70278 2.13022e-20 1.43719)
(9.75496 -3.94089e-20 1.36054)
(9.6456 -9.08579e-22 1.62583)
(9.70509 2.14365e-20 1.54478)
(9.58555 -2.12518e-20 1.82694)
(9.65273 -1.06904e-21 1.74064)
(9.52332 0 2.042)
(9.59857 1.68924e-19 1.94952)
(9.45965 0 2.27255)
(9.54338 -1.72485e-19 2.17289)
(9.39539 -1.9175e-19 2.52028)
(9.48806 2.18887e-20 2.41229)
(9.33149 -1.87516e-19 2.78707)
(9.43358 -3.71424e-19 2.66942)
(9.26908 2.23152e-19 3.07501)
(9.38111 3.42989e-19 2.94616)
(9.20948 2.18507e-19 3.38652)
(9.33201 1.42644e-20 3.2446)
(9.15435 2.29148e-19 3.72442)
(9.28797 1.87631e-19 3.56715)
(9.10575 4.44372e-20 4.092)
(9.25105 -1.27026e-19 3.91656)
(9.06638 -1.51249e-19 4.49319)
(9.22389 3.51979e-20 4.29601)
(9.20994 -4.62028e-20 4.7092)
(9.87665 3.71911e-20 0.955432)
(9.83978 1.86685e-20 1.11858)
(9.87427 3.69379e-20 1.04442)
(9.79961 -4.01241e-20 1.28985)
(9.84004 9.27754e-20 1.21251)
(9.75669 -3.91966e-20 1.47059)
(9.80344 -1.72894e-19 1.38929)
(9.71165 2.12463e-20 1.66214)
(9.76505 -1.94469e-20 1.57604)
(9.6652 1.9391e-19 1.86586)
(9.72554 1.80346e-19 1.77409)
(9.61812 -7.75388e-21 2.08315)
(9.68572 7.15745e-20 1.98475)
(9.57132 -1.50082e-19 2.31545)
(9.64648 -1.56133e-19 2.20937)
(9.52582 -1.62083e-19 2.56433)
(9.60883 1.10217e-21 2.44939)
(9.48281 1.71267e-19 2.83147)
(9.57397 -1.8406e-19 2.70631)
(9.44369 1.29215e-19 3.11876)
(9.54327 3.73598e-19 2.98178)
(9.41014 -1.75664e-20 3.42828)
(9.51838 -2.14592e-19 3.27759)
(9.38425 -1.76568e-19 3.76238)
(9.50129 3.49241e-19 3.59571)
(9.36862 -1.36626e-19 4.12373)
(9.49448 -5.93042e-19 3.93831)
(9.36661 1.42944e-19 4.51529)
(9.50102 1.98276e-19 4.30775)
(9.52483 -7.23942e-20 4.70654)
(9.87396 1.12969e-19 1.14061)
(9.84338 -4.36217e-20 1.31427)
(9.8788 1.84334e-19 1.23297)
(9.81133 -1.52538e-19 1.49713)
(9.8524 -2.82621e-19 1.41153)
(9.77849 1.43695e-19 1.69046)
(9.82548 7.39741e-20 1.59972)
(9.74566 5.49931e-20 1.89553)
(9.79882 6.72069e-20 1.79876)
(9.71371 -8.03684e-20 2.11361)
(9.77325 -8.43131e-20 2.00986)
(9.68368 -1.20272e-21 2.34603)
(9.74978 8.10482e-20 2.23423)
(9.65673 -2.13317e-20 2.59416)
(9.72955 -2.1853e-20 2.47312)
(9.63424 2.2631e-20 2.85947)
(9.71387 1.65409e-19 2.72783)
(9.61782 2.21147e-20 3.14352)
(9.70429 -1.6675e-19 2.99972)
(9.60942 1.60669e-19 3.448)
(9.70266 0 3.29021)
(9.6114 -7.54488e-20 3.7747)
(9.71115 1.82555e-19 3.60079)
(9.62669 -2.51511e-19 4.12554)
(9.73245 -3.83635e-19 3.93297)
(9.65894 -2.19536e-20 4.50243)
(9.76982 1.51529e-19 4.28824)
(9.82725 8.82572e-20 4.66797)
(9.88742 -6.11356e-20 1.33249)
(9.8662 -5.02267e-20 1.51645)
(9.84549 -4.47489e-21 1.71042)
(9.88585 9.62172e-20 1.61549)
(9.82613 -7.56273e-20 1.91555)
(9.87183 -9.80187e-20 1.81432)
(9.8091 8.10579e-20 2.133)
(9.86026 2.02365e-20 2.02451)
(9.79551 5.98995e-20 2.36391)
(9.8522 8.05145e-20 2.24712)
(9.78662 1.69464e-19 2.60944)
(9.84885 7.82233e-20 2.48319)
(9.78394 -2.82571e-20 2.8708)
(9.85164 1.03396e-20 2.73379)
(9.78923 -1.8952e-19 3.1492)
(9.86219 -9.28095e-20 2.99995)
(9.80455 2.22442e-20 3.44587)
(9.88244 -2.02386e-20 3.28271)
(9.83243 -1.3225e-19 3.76204)
(9.91464 -1.85594e-20 3.58302)
(9.87584 2.8342e-20 4.09882)
(9.9615 -1.54105e-19 3.90178)
(9.93844 2.64459e-19 4.45718)
(10.0262 2.20585e-19 4.23966)
(10.1126 4.71851e-20 4.59702)
(9.912 2.03669e-22 1.7217)
(9.90583 1.98499e-22 1.92564)
(9.94389 1.81705e-20 1.82052)
(9.9033 1.9613e-20 2.14104)
(9.94588 1.81061e-20 2.02849)
(9.90558 9.92948e-20 2.36887)
(9.95265 -9.15195e-20 2.24788)
(9.914 -8.47335e-20 2.61006)
(9.96544 9.91984e-20 2.47955)
(9.93012 -5.56059e-20 2.86552)
(9.9857 -6.74051e-20 2.72427)
(9.95575 8.05763e-20 3.13611)
(10.0151 2.1937e-19 2.98278)
(9.99299 -6.20499e-20 3.42259)
(10.0555 -4.07733e-20 3.25569)
(10.0443 -4.08408e-20 3.72562)
(10.1092 -1.96433e-21 3.54352)
(10.1126 4.212e-20 4.04563)
(10.1787 0 3.84654)
(10.2013 -1.88734e-21 4.38275)
(10.267 -3.74021e-20 4.16474)
(10.3774 -4.30473e-20 4.49769)
(9.98395 3.65149e-20 1.92562)
(9.99533 -9.58021e-20 2.13763)
(10.0127 -9.16735e-20 2.3609)
(10.0501 -2.46038e-20 2.23654)
(10.0375 1.16986e-19 2.59614)
(10.0781 -7.14866e-20 2.46233)
(10.0711 2.14142e-19 2.84396)
(10.1146 1.52789e-19 2.6996)
(10.1154 9.52372e-20 3.10487)
(10.1613 4.31468e-20 2.94879)
(10.1725 2.0763e-20 3.37921)
(10.2199 -9.5712e-20 3.21016)
(10.2445 3.98568e-20 3.66712)
(10.2926 7.84085e-20 3.48376)
(10.3342 -8.14602e-20 3.96847)
(10.3817 -3.82712e-20 3.76939)
(10.4446 -7.9542e-20 4.28269)
(10.4897 -9.9558e-20 4.06652)
(10.6196 4.73991e-20 4.37408)
(10.1158 -3.94988e-21 2.34018)
(10.1557 -3.48732e-20 2.56804)
(10.2054 -2.22933e-20 2.80672)
(10.237 1.26459e-19 2.66036)
(10.2666 -1.52314e-19 3.05642)
(10.2993 -1.13629e-19 2.89886)
(10.3411 -3.66719e-20 3.31711)
(10.374 -4.80685e-21 3.14733)
(10.431 -1.54862e-21 3.58852)
(10.4632 3.85044e-20 3.40548)
(10.5387 -5.67884e-20 3.87003)
(10.5687 -7.53435e-20 3.67272)
(10.6666 3.04452e-20 4.16062)
(10.6928 5.90111e-20 3.9481)
(10.8378 7.1788e-21 4.23019)
(10.3317 3.30097e-20 2.75462)
(10.4078 3.74978e-20 2.99193)
(10.4279 -7.20491e-20 2.83404)
(10.4974 7.21889e-20 3.2379)
(10.5167 3.89825e-20 3.06865)
(10.6025 -3.70286e-20 3.49194)
(10.6197 0 3.31058)
(10.7248 4.33092e-20 3.7531)
(10.7388 -3.86161e-21 3.55894)
(10.8663 3.51117e-20 4.02004)
(10.8755 4.627e-20 3.81254)
(11.0317 -7.84151e-21 4.06973)
(10.5381 -7.05076e-20 2.91272)
(10.6405 -3.49672e-20 3.1433)
(10.7579 3.39856e-20 3.37957)
(10.7614 3.3297e-20 3.20098)
(10.8917 -8.29915e-22 3.62039)
(10.8912 6.73679e-20 3.43045)
(11.0435 2.25194e-21 3.86423)
(11.0375 -3.38822e-20 3.66271)
(11.2016 6.93298e-20 3.89605)
(10.8968 6.75026e-20 3.25357)
(11.0394 3.34586e-20 3.47444)
(11.1984 3.48506e-20 3.69613)
(11.1792 -3.2047e-20 3.5012)
(11.3483 2.93821e-21 3.71205)
(11.3319 -6.47556e-20 3.51835)
)
;

boundaryField
{
    inlet
    {
        type            calculated;
        value           uniform (10 0 0);
    }
    outlet
    {
        type            calculated;
        value           nonuniform 0();
    }
    flap
    {
        type            calculated;
        value           nonuniform 0();
    }
    upperWall
    {
        type            calculated;
        value           nonuniform 0();
    }
    lowerWall
    {
        type            calculated;
        value           uniform (0 0 0);
    }
    frontAndBack
    {
        type            empty;
        value           nonuniform 0();
    }
    procBoundary3to0
    {
        type            processor;
        value           nonuniform List<vector> 
34
(
(10.0031 -3.42525e-20 0.124991)
(9.98513 -1.08227e-19 0.25273)
(9.96977 -8.92259e-20 0.324514)
(9.96 -9.81055e-22 0.396254)
(9.94751 -1.97457e-20 0.473193)
(9.93671 -1.07973e-19 0.549493)
(9.92609 -3.30739e-20 0.631526)
(9.91766 2.1541e-21 0.712178)
(9.90969 -1.63892e-20 0.799058)
(9.90544 5.37685e-20 0.883693)
(9.90245 5.34596e-20 0.97487)
(9.90404 1.83731e-20 1.06281)
(9.9084 9.17843e-20 1.15738)
(9.91765 7.44035e-20 1.24759)
(9.90139 -2.38783e-19 1.42695)
(9.9208 -8.84111e-20 1.52825)
(9.94557 7.00214e-20 1.6231)
(9.97739 8.83831e-20 1.72413)
(10.0143 8.7419e-20 1.81724)
(10.0293 1.85477e-20 2.02172)
(10.0843 9.1487e-20 2.12281)
(10.1436 5.72445e-20 2.21328)
(10.1856 -9.32297e-20 2.43188)
(10.2676 7.21017e-20 2.5263)
(10.3519 7.2077e-20 2.60729)
(10.4491 -3.55345e-20 2.68865)
(10.5464 -3.55216e-20 2.75551)
(10.6469 -3.58299e-20 2.97566)
(10.7696 3.41217e-20 3.03507)
(10.888 1.78517e-20 3.0786)
(11.026 6.63174e-20 3.2895)
(11.1683 -9.01756e-22 3.3176)
(11.3012 2.84223e-20 3.33035)
(11.4731 -3.32014e-20 3.52022)
)
;
    }
    procBoundary3to1
    {
        type            processor;
        value           nonuniform List<vector> 9((9.71273 1.85329e-19 4.90727) (10.0246 8.71409e-20 4.83773) (10.3142 -8.38431e-20 4.73659) (10.579 4.08995e-20 4.60868) (10.8174 3.75745e-20 4.45868) (11.0292 -9.6388e-20 4.2909) (11.2146 1.41704e-19 4.10917) (11.3747 3.39287e-20 3.91676) (11.5109 -9.86498e-20 3.71643));
    }
    procBoundary3to4
    {
        type            processor;
        value           nonuniform List<vector> 
19
(
(4.03098 2.24894e-20 0.266218)
(4.91689 -1.79157e-19 0.676628)
(5.34887 2.85564e-19 1.10961)
(5.60314 -3.00803e-19 1.5023)
(5.78542 -4.42587e-20 1.86906)
(5.94362 -5.6876e-19 2.21823)