/*--------------------------------*- C++ -*----------------------------------*\
| =========                 |                                                 |
| \\      /  F ield         | OpenFOAM: The Open Source CFD Toolbox           |
|  \\    /   O peration     | Version:  dev                                   |
|   \\  /    A nd           | Web:      www.OpenFOAM.org                      |
|    \\/     M anipulation  |                                                 |
\*---------------------------------------------------------------------------*/
FoamFile
{
    version     2.0;
    format      ascii;
    class       surfaceScalarField;
    location    "0.62";
    object      meshPhi;
}
// * * * * * * * * * * * * * * * * * * * * * * * * * * * * * * * * * * * * * //

dimensions      [0 3 -1 0 0 0 0];

internalField   nonuniform List<scalar> 
5457
(
-1.8148e-06
-8.80763e-08
-5.03331e-06
-2.26807e-07
-1.05834e-05
-2.82315e-07
-1.87296e-05
-2.38751e-07
-2.9153e-05
-9.61131e-08
-4.11429e-05
1.36079e-07
-5.37569e-05
4.41139e-07
-6.59497e-05
7.96321e-07
-7.66892e-05
1.17416e-06
-8.5061e-05
1.54408e-06
-9.03539e-05
1.87476e-06
-9.21333e-05
2.13689e-06
-9.02938e-05
2.30601e-06
-8.50681e-05
2.36647e-06
-7.69977e-05
2.31379e-06
-6.68667e-05
2.15509e-06
-5.55998e-05
1.90903e-06
-4.41387e-05
1.60313e-06
-3.33205e-05
1.26949e-06
-2.37742e-05
9.39541e-07
-1.6157e-05
6.47515e-07
-1.05666e-05
4.18582e-07
-6.54159e-06
2.51225e-07
-3.79009e-06
1.35001e-07
-2.02758e-06
6.21561e-08
-9.76454e-07
2.23871e-08
-4.01714e-07
4.61479e-09
-1.2571e-07
-9.53042e-10
-2.47381e-08
-1.50702e-09
-3.70017e-10
-1.58955e-06
-1.80306e-07
-4.64368e-06
-4.65022e-07
-1.00921e-05
-5.81634e-07
-1.81906e-05
-4.99069e-07
-2.86159e-05
-2.1756e-07
-4.06522e-05
2.44058e-07
-5.33532e-05
8.52673e-07
-6.56673e-05
1.56303e-06
-7.65535e-05
2.32042e-06
-8.50872e-05
3.06363e-06
-9.0544e-05
3.72914e-06
-9.24748e-05
4.25733e-06
-9.07609e-05
4.60108e-06
-8.56255e-05
4.72957e-06
-7.76048e-05
4.63179e-06
-6.7484e-05
4.32125e-06
-5.6195e-05
3.83478e-06
-4.46908e-05
3.22728e-06
-3.38234e-05
2.56308e-06
-2.42418e-05
1.90566e-06
-1.65561e-05
1.32198e-06
-1.08746e-05
8.60558e-07
-6.7837e-06
5.20722e-07
-3.97228e-06
2.83671e-07
-2.15788e-06
1.33959e-07
-1.06234e-06
5.1138e-08
-4.50623e-07
1.30377e-08
-1.46971e-07
2.27097e-11
-3.09225e-08
-2.24573e-09
-6.09356e-10
-1.30554e-06
-2.78739e-07
-4.13373e-06
-7.207e-07
-9.41465e-06
-9.08148e-07
-1.73974e-05
-7.95648e-07
-2.7756e-05
-3.83982e-07
-3.97719e-05
2.98526e-07
-5.25013e-05
1.20243e-06
-6.48938e-05
2.2609e-06
-7.59055e-05
3.39279e-06
-8.46069e-05
4.5071e-06
-9.02663e-05
5.50941e-06
-9.24229e-05
6.31109e-06
-9.09425e-05
6.84089e-06
-8.60315e-05
7.05146e-06
-7.82111e-05
6.9252e-06
-6.82552e-05
6.48088e-06
-5.70885e-05
5.77211e-06
-4.56631e-05
4.87981e-06
-3.48345e-05
3.89949e-06
-2.52595e-05
2.92613e-06
-1.74913e-05
2.05587e-06
-1.16467e-05
1.35732e-06
-7.38881e-06
8.34491e-07
-4.41947e-06
4.65287e-07
-2.46597e-06
2.28487e-07
-1.25542e-06
9.43267e-08
-5.55115e-07
2.97382e-08
-1.90311e-07
5.11853e-09
-4.25994e-08
-1.29531e-09
-4.14546e-10
-9.80057e-07
-3.84749e-07
-3.52782e-06
-9.98547e-07
-8.57587e-06
-1.27091e-06
-1.6369e-05
-1.14238e-06
-2.65819e-05
-6.14636e-07
-3.84981e-05
2.74359e-07
-5.11808e-05
1.45916e-06
-6.35879e-05
2.85235e-06
-7.46813e-05
4.34766e-06
-8.35354e-05
5.82599e-06
-8.94177e-05
7.16407e-06
-9.18613e-05
8.24575e-06
-9.07163e-05
8.97497e-06
-8.61664e-05
9.28714e-06
-7.8708e-05
9.15782e-06
-6.90889e-05
8.60905e-06
-5.82105e-05
7.7088e-06
-4.70074e-05
6.56141e-06
-3.63247e-05
5.2911e-06
-2.68145e-05
4.02224e-06
-1.89624e-05
2.87511e-06
-1.28873e-05
1.93432e-06
-8.36053e-06
1.21405e-06
-5.13262e-06
6.96604e-07
-2.94769e-06
3.57698e-07
-1.54706e-06
1.59451e-07
-7.06064e-07
5.88225e-08
-2.50022e-07
1.63045e-08
-5.75083e-08
2.15025e-09
3.34463e-10
-5.67174e-07
-5.00558e-07
-2.75136e-06
-1.30479e-06
-7.49058e-06
-1.67967e-06
-1.5023e-05
-1.55304e-06
-2.50262e-05
-9.28272e-07
-3.67913e-05
1.47617e-07
-4.9389e-05
1.59427e-06
-6.17856e-05
3.30444e-06
-7.29539e-05
5.14829e-06
-8.1978e-05
6.98059e-06
-8.81273e-05
8.65099e-06
-9.09289e-05
1.00172e-05
-9.0215e-05
1.09595e-05
-8.61417e-05
1.13969e-05
-7.91732e-05
1.12967e-05
-7.00211e-05
1.06813e-05
-5.95522e-05
9.63001e-06
-4.86741e-05
8.26715e-06
-3.82141e-05
6.74236e-06
-2.88158e-05
5.20646e-06
-2.08721e-05
3.79695e-06
-1.45006e-05
2.60835e-06
-9.62202e-06
1.67264e-06
-6.05574e-06
9.87552e-07
-3.56427e-06
5.29075e-07
-1.91032e-06
2.51718e-07
-8.84958e-07
1.03218e-07
-3.15823e-07
3.46637e-08
-7.22447e-08
8.25236e-09
1.59144e-09
-6.47276e-08
-6.28286e-07
-1.8031e-06
-1.6454e-06
-6.15931e-06
-2.14406e-06
-1.33623e-05
-2.04112e-06
-2.30926e-05
-1.34241e-06
-3.4652e-05
-1.03843e-07
-4.71221e-05
1.58035e-06
-5.94799e-05
3.58439e-06
-7.07102e-05
5.75603e-06
-7.99112e-05
7.92637e-06
-8.63582e-05
9.92124e-06
-8.9572e-05
1.15744e-05
-8.93672e-05
1.2745e-05
-8.58699e-05
1.33346e-05
-7.95049e-05
1.33e-05
-7.09378e-05
1.26621e-05
-6.09908e-05
1.15074e-05
-5.05362e-05
9.97687e-06
-4.03771e-05
8.24122e-06
-3.11445e-05
6.47422e-06
-2.3116e-05
4.82362e-06
-1.63967e-05
3.38574e-06
-1.10939e-05
2.21639e-06
-7.12271e-06
1.34202e-06
-4.26646e-06
7.44602e-07
-2.31168e-06
3.71976e-07
-1.07076e-06
1.62907e-07
-3.77141e-07
5.95083e-08
-8.38412e-08
1.62993e-08
3.07471e-09
5.28956e-07
-7.69749e-07
-6.80504e-07
-2.02611e-06
-4.58102e-06
-2.6737e-06
-1.1389e-05
-2.61931e-06
-2.07854e-05
-1.87288e-06
-3.20822e-05
-4.99754e-07
-4.43758e-05
1.39254e-06
-5.666e-05
3.66133e-06
-6.79332e-05
6.13457e-06
-7.73073e-05
8.62261e-06
-8.4067e-05
1.09303e-05
-8.77278e-05
1.28702e-05
-8.80889e-05
1.42821e-05
-8.52461e-05
1.50499e-05
-7.95791e-05
1.51188e-05
-7.16985e-05
1.45064e-05
-6.23717e-05
1.33023e-05
-5.24298e-05
1.16581e-05
-4.26436e-05
9.76058e-06
-3.36294e-05
7.80273e-06
-2.55394e-05
5.93669e-06
-1.84487e-05
4.25388e-06
-1.26709e-05
2.83767e-06
-8.24597e-06
1.75493e-06
-4.9857e-06
9.99997e-07
-2.70563e-06
5.16042e-07
-1.23963e-06
2.34312e-07
-4.25324e-07
8.8474e-08
-9.09168e-08
2.50778e-08
4.46115e-09
1.21461e-06
-9.26556e-07
6.17286e-07
-2.45139e-06
-2.75612e-06
-3.27547e-06
-9.10594e-06
-3.2972e-06
-1.81084e-05
-2.53239e-06
-2.90852e-05
-1.05646e-06
-4.11474e-05
1.01023e-06
-5.33112e-05
3.50989e-06
-6.4596e-05
6.2543e-06
-7.41273e-05
9.03594e-06
-8.11994e-05
1.16405e-05
-8.53249e-05
1.38618e-05
-8.62878e-05
1.55213e-05
-8.4153e-05
1.64878e-05
-7.92529e-05
1.66956e-05
-7.21381e-05
1.61569e-05
-6.35141e-05
1.49606e-05
-5.41636e-05
1.32614e-05
-4.48154e-05
1.12562e-05
-3.60631e-05
9.15256e-06
-2.79389e-05
7.10003e-06
-2.04837e-05
5.18117e-06
-1.42161e-05
3.51182e-06
-9.31934e-06
2.20768e-06
-5.64673e-06
1.28157e-06
-3.04711e-06
6.744e-07
-1.3721e-06
3.11233e-07
-4.56484e-07
1.18394e-07
-9.39355e-08
3.34811e-08
5.66873e-09
1.99175e-06
-1.09955e-06
2.08848e-06
-2.92372e-06
-6.86569e-07
-3.95433e-06
-6.51555e-06
-4.08308e-06
-1.50654e-05
-3.33226e-06
-2.56641e-05
-1.7881e-06
-3.74381e-05
4.16453e-07
-4.9427e-05
3.1101e-06
-6.06776e-05
6.0907e-06
-7.03343e-05
9.13571e-06
-7.77008e-05
1.20147e-05
-8.22892e-05
1.4505e-05
-8.38668e-05
1.64126e-05
-8.24659e-05
1.75928e-05
-7.83712e-05
1.79696e-05
-7.20735e-05
1.75474e-05
-6.42159e-05
1.64112e-05
-5.552e-05
1.47146e-05
-4.66637e-05
1.2658e-05
-3.8212e-05
1.04577e-05
-3.00871e-05
8.25377e-06
-2.23037e-05
6.11613e-06
-1.55742e-05
4.19822e-06
-1.02317e-05
2.67089e-06
-6.18119e-06
1.56894e-06
-3.30211e-06
8.33975e-07
-1.45836e-06
3.8667e-07
-4.71961e-07
1.46547e-07
-9.44422e-08
4.09664e-08
6.72184e-09
2.85965e-06
-1.28953e-06
3.72999e-06
-3.44555e-06
1.62185e-06
-4.71387e-06
-3.62542e-06
-4.9812e-06
-1.16655e-05
-4.27784e-06
-2.18283e-05
-2.70196e-06
-3.32566e-05
-3.98854e-07
-4.5014e-05
2.44811e-06
-5.61759e-05
5.62475e-06
-6.59113e-05
8.89643e-06
-7.35353e-05
1.202e-05
-7.85596e-05
1.47596e-05
-8.07369e-05
1.69083e-05
-8.00674e-05
1.83099e-05
-7.67873e-05
1.8878e-05
-7.13289e-05
1.86075e-05
-6.42716e-05
1.75761e-05
-5.62678e-05
1.59332e-05
-4.79419e-05
1.3878e-05
-3.98272e-05
1.16295e-05
-3.17487e-05
9.31361e-06
-2.37086e-05
6.98595e-06
-1.65992e-05
4.84021e-06
-1.08916e-05
3.10524e-06
-6.54065e-06
1.83762e-06
-3.45397e-06
9.81294e-07
-1.49961e-06
4.55033e-07
-4.76032e-07
1.71588e-07
-9.37522e-08
4.75417e-08
7.6527e-09
3.81882e-06
-1.49737e-06
5.53845e-06
-4.01858e-06
4.15749e-06
-5.55467e-06
-4.546e-07
-5.99038e-06
-7.93248e-06
-5.36759e-06
-1.76046e-05
-3.79754e-06
-2.86298e-05
-1.43744e-06
-4.00966e-05
1.51866e-06
-5.11085e-05
4.8463e-06
-6.08612e-05
8.30139e-06
-6.8687e-05
1.16324e-05
-7.40984e-05
1.45939e-05
-7.68347e-05
1.69679e-05
-7.68663e-05
1.85884e-05
-7.43828e-05
1.93593e-05
-6.97574e-05
1.92656e-05
-6.35039e-05
1.83754e-05
-5.62063e-05
1.68298e-05
-4.84351e-05
1.4823e-05
-4.06865e-05
1.25722e-05
-3.27174e-05
1.01882e-05
-2.45345e-05
7.71342e-06
-1.71798e-05
5.37931e-06
-1.12375e-05
3.46988e-06
-6.70169e-06
2.06272e-06
-3.50268e-06
1.10423e-06
-1.50266e-06
5.12046e-07
-4.72041e-07
1.92691e-07
-9.21911e-08
5.32065e-08
8.44828e-09
4.87186e-06
-1.72369e-06
7.51151e-06
-4.6434e-06
6.90642e-06
-6.47529e-06
2.97504e-06
-7.10799e-06
-3.8935e-06
-6.59935e-06
-1.30247e-05
-5.07301e-06
-2.35917e-05
-2.69772e-06
-3.47084e-05
3.22333e-07
-4.5506e-05
3.75449e-06
-5.52053e-05
7.34715e-06
-6.31625e-05
1.08429e-05
-6.88976e-05
1.39905e-05
-7.21347e-05
1.65644e-05
-7.28163e-05
1.83907e-05
-7.1087e-05
1.93645e-05
-6.7264e-05
1.94608e-05
-6.17961e-05
1.87371e-05
-5.52013e-05
1.73244e-05
-4.79956e-05
1.5408e-05
-4.06388e-05
1.32e-05
-3.28627e-05
1.07979e-05
-2.46912e-05
8.23395e-06
-1.72629e-05
5.76979e-06
-1.12463e-05
3.73513e-06
-6.66341e-06
2.22687e-06
-3.45536e-06
1.19424e-06
-1.47175e-06
5.54255e-07
-4.6014e-07
2.08675e-07
-8.92707e-08
5.76039e-08
9.04932e-09
6.02473e-06
-1.96934e-06
9.65038e-06
-5.32108e-06
9.85544e-06
-7.47454e-06
6.64144e-06
-8.32953e-06
4.23834e-07
-7.96583e-06
-8.12205e-06
-6.51909e-06
-1.81809e-05
-4.1692e-06
-2.88916e-05
-1.12988e-06
-3.94151e-05
2.35995e-06
-4.89959e-05
6.0436e-06
-5.70126e-05
9.65869e-06
-6.29974e-05
1.29506e-05
-6.66636e-05
1.56908e-05
-6.79272e-05
1.77001e-05
-6.68913e-05
1.88664e-05
-6.38203e-05
1.91555e-05
-5.91016e-05
1.86142e-05
-5.31912e-05
1.73621e-05
-4.65557e-05
1.55742e-05
-3.96252e-05
1.34541e-05
-3.21455e-05
1.10887e-05
-2.41643e-05
8.50421e-06
-1.68549e-05
5.98191e-06
-1.09337e-05
3.88312e-06
-6.44125e-06
2.32017e-06
-3.31999e-06
1.24615e-06
-1.40701e-06
5.78853e-07
-4.37966e-07
2.17929e-07
-8.38128e-08
5.99514e-08
9.28198e-09
7.28471e-06
-2.23436e-06
1.19583e-05
-6.05083e-06
1.29893e-05
-8.54796e-06
1.05123e-05
-9.64428e-06
4.97331e-06
-9.44956e-06
-2.95135e-06
-8.1138e-06
-1.24588e-05
-5.82784e-06
-2.2713e-05
-2.81328e-06
-3.29056e-05
6.86303e-07
-4.23079e-05
4.41184e-06
-5.03155e-05
8.0986e-06
-5.64708e-05
1.14904e-05
-6.04838e-05
1.43584e-05
-6.22483e-05
1.6521e-05
-6.1831e-05
1.78615e-05
-5.94484e-05
1.83384e-05
-5.54325e-05
1.79882e-05
-5.01854e-05
1.69194e-05
-4.41322e-05
1.52948e-05
-3.76777e-05
1.33078e-05
-3.06095e-05
1.10371e-05
-2.30006e-05
8.50553e-06
-1.60009e-05
6.0025e-06
-1.03361e-05
3.90528e-06
-6.05685e-06
2.33715e-06
-3.10345e-06
1.25613e-06
-1.30624e-06
5.82915e-07
-4.0132e-07
2.18225e-07
-7.33138e-08
5.88212e-08
8.62778e-09
8.54242e-06
-2.48518e-06
1.43666e-05
-6.77946e-06
1.63064e-05
-9.67701e-06
1.4567e-05
-1.10522e-05
9.72284e-06
-1.10469e-05
2.44884e-06
-9.85144e-06
-6.46722e-06
-7.66613e-06
-1.62147e-05
-4.71937e-06
-2.60173e-05
-1.25762e-06
-3.51755e-05
2.46006e-06
-4.31016e-05
6.16939e-06
-4.93478e-05
9.61534e-06
-5.36237e-05
1.25708e-05
-5.58065e-05
1.4855e-05
-5.59322e-05
1.63487e-05
-5.41763e-05
1.70051e-05
-5.08237e-05
1.68523e-05
-4.62311e-05
1.59872e-05
-4.07872e-05
1.45605e-05
-3.48754e-05
1.27532e-05
-2.83393e-05
1.06379e-05
-2.12723e-05
8.23457e-06
-1.4754e-05
5.82842e-06
-9.48592e-06
3.79811e-06
-5.52279e-06
2.27373e-06
-2.80395e-06
1.21978e-06
-1.16073e-06
5.62177e-07
-3.39774e-07
2.05574e-07
-4.69074e-08
4.96992e-08
4.52147e-09
1.81136e-07
1.24436e-09
9.34093e-07
1.16654e-08
2.98057e-06
3.98412e-08
6.81596e-06
1.04846e-07
1.25858e-05
2.13683e-07
2.02112e-05
3.58543e-07
2.95675e-05
5.13199e-07
4.0551e-05
6.55943e-07
5.3104e-05
7.63094e-07
6.60224e-05
7.83916e-07
7.8293e-05
6.51208e-07
9.04565e-05
3.50738e-07
0.000102657
-6.38002e-08
0.000114426
-5.40106e-07
0.000125255
-1.04082e-06
0.000134626
-1.53511e-06
0.00014203
-1.99066e-06
0.000147036
-2.38539e-06
0.000149327
-2.70297e-06
0.000148714
-2.93284e-06
0.000145133
-3.07357e-06
0.000138634
-3.1257e-06
0.000129348
-3.09072e-06
0.000117455
-2.96906e-06
0.000103156
-2.76248e-06
8.6627e-05
-2.4705e-06
6.79944e-05
-2.08862e-06
4.73021e-05
-1.61215e-06
2.44952e-05
-1.03572e-06
-3.6327e-07
1.91e-07
3.32275e-09
9.74107e-07
2.48868e-08
3.0427e-06
8.3247e-08
6.86018e-06
2.11021e-07
1.25712e-05
4.18915e-07
2.01011e-05
6.90367e-07
2.93416e-05
9.80795e-07
4.02083e-05
1.24211e-06
5.26155e-05
1.43087e-06
6.55225e-05
1.45822e-06
7.78775e-05
1.18996e-06
9.00781e-05
5.98559e-07
0.000102351
-2.12877e-07
0.000114205
-1.14332e-06
0.000125114
-2.12189e-06
0.00013455
-3.08764e-06
0.000142001
-3.97834e-06
0.000147031
-4.74817e-06
0.000149328
-5.36695e-06
0.000148707
-5.817e-06
0.000145109
-6.09339e-06
0.000138591
-6.1961e-06
0.000129286
-6.12811e-06
0.000117377
-5.89089e-06
0.000103069
-5.4847e-06
8.65429e-05
-4.90662e-06
6.79223e-05
-4.14899e-06
4.72504e-05
-3.20318e-06
2.44682e-05
-2.05881e-06
-7.2241e-07
2.00379e-07
5.29504e-09
1.00215e-06
3.81249e-08
3.0404e-06
1.24593e-07
6.73101e-06
3.05531e-07
1.22314e-05
5.90612e-07
1.94973e-05
9.55757e-07
2.84532e-05
1.34367e-06
3.90432e-05
1.68197e-06
5.11861e-05
1.90952e-06
6.39858e-05
1.91066e-06
7.6391e-05
1.50284e-06
8.86695e-05
6.44204e-07
0.000101059
-5.25165e-07
0.000113052
-1.86574e-06
0.000124103
-3.27871e-06
0.000133666
-4.67297e-06
0.000141227
-5.96159e-06
0.000146349
-7.07381e-06
0.000148717
-7.96829e-06
0.000148153
-8.62331e-06
0.000144605
-9.02767e-06
0.000138132
-9.17854e-06
0.00012887
-9.0802e-06
0.000117005
-8.7361e-06
0.000102747
-8.14058e-06
8.62757e-05
-7.28581e-06
6.77127e-05
-6.16242e-06
4.71054e-05
-4.75811e-06
2.43969e-05
-3.05833e-06
-1.07316e-06
2.03568e-07
7.28035e-09
9.94701e-07
4.96787e-08
2.93663e-06
1.57627e-07
6.39687e-06
3.74978e-07
1.15562e-05
7.07622e-07
1.84259e-05
1.12511e-06
2.69693e-05
1.56091e-06
3.71551e-05
1.92656e-06
4.89319e-05
2.14306e-06
6.15154e-05
2.07713e-06
7.39205e-05
1.52223e-06
8.63124e-05
4.24481e-07
9.88505e-05
-1.05509e-06
0.000111019
-2.74984e-06
0.000122253
-4.53922e-06
0.000131988
-6.30429e-06
0.000139707
-7.93859e-06
0.000144974
-9.35531e-06
0.000147476
-1.04999e-05
0.000147036
-1.13421e-05
0.000143604
-1.18653e-05
0.00013724
-1.20637e-05
0.000128087
-1.19387e-05
0.000116335
-1.14915e-05
0.000102189
-1.07132e-05
8.5827e-05
-9.59239e-06
6.73705e-05
-8.11589e-06
4.68713e-05
-6.26676e-06
2.42795e-05
-4.02721e-06
-1.41287e-06
1.99276e-07
8.98779e-09
9.54146e-07
5.79915e-08
2.76197e-06
1.78754e-07
5.9475e-06
4.1355e-07
1.07116e-05
7.63296e-07
1.71279e-05
1.1909e-06
2.5203e-05
1.62315e-06
3.49258e-05
1.96364e-06
4.6264e-05
2.11839e-06
5.85552e-05
1.94639e-06
7.09278e-05
1.23481e-06
8.34403e-05
-7.73807e-08
9.61369e-05
-1.81947e-06
0.000108488
-3.80945e-06
0.000119917
-5.9121e-06
0.000129842
-7.9869e-06
0.000137739
-9.9116e-06
0.000143177
-1.15905e-05
0.00014584
-1.29556e-05
0.000145555
-1.39646e-05
0.000142272
-1.45954e-05
0.000136053
-1.48396e-05
0.000127048
-1.46917e-05
0.000115447
-1.41454e-05
0.00010145
-1.31914e-05
8.52354e-05
-1.18161e-05
6.6923e-05
-1.00015e-05
4.65623e-05
-7.72475e-06
2.41168e-05
-4.96395e-06
-1.74118e-06
1.86631e-07
9.9941e-09
8.8373e-07
6.12401e-08
2.53775e-06
1.84968e-07
5.44091e-06
4.18113e-07
9.80386e-06
7.55921e-07
1.57522e-05
1.15501e-06
2.33412e-05
1.53681e-06
3.25846e-05
1.80078e-06
4.3459e-05
1.84536e-06
5.54176e-05
1.53047e-06
6.77195e-05
6.52647e-07
8.03274e-05
-8.50893e-07
9.31595e-05
-2.81053e-06
0.000105666
-5.03748e-06
0.00011726
-7.38886e-06
0.000127359
-9.71506e-06
0.000135433
-1.18823e-05
0.000141044
-1.37826e-05
0.000143879
-1.53356e-05
0.000143765
-1.64891e-05
0.000140653
-1.72142e-05
0.00013461
-1.74966e-05
0.000125784
-1.73245e-05
0.000114364
-1.66854e-05
0.000100546
-1.55652e-05
8.45093e-05
-1.39476e-05
6.63721e-05
-1.18105e-05
4.61828e-05
-9.12577e-06
2.39173e-05
-5.86564e-06
-2.05744e-06
1.67959e-07
1.00549e-08
7.95174e-07
5.86908e-08
2.29138e-06
1.75423e-07
4.92931e-06
3.89104e-07
8.92292e-06
6.8885e-07
1.44316e-05
1.02586e-06
2.15526e-05
1.31766e-06
3.03309e-05
1.46112e-06
4.07531e-05
1.3528e-06
5.23702e-05
8.62598e-07
6.45639e-05
-1.89816e-07
7.72169e-05
-1.86287e-06
9.01347e-05
-3.99929e-06
0.000102747
-6.41247e-06
0.00011446
-8.95689e-06
0.000124691
-1.14807e-05
0.000132908
-1.38433e-05
0.000138673
-1.59254e-05
0.000141671
-1.76342e-05
0.000141728
-1.891e-05
0.0001388
-1.97156e-05
0.00013295
-2.00284e-05
0.000124326
-1.9831e-05
0.000113111
-1.91055e-05
9.94953e-05
-1.78307e-05
8.36579e-05
-1.59843e-05
6.57217e-05
-1.35395e-05
4.57392e-05
-1.04646e-05
2.36896e-05
-6.72733e-06
-2.3598e-06
1.47735e-07
9.07653e-09
7.05269e-07
5.09709e-08
2.05223e-06
1.51351e-07
4.45457e-06
3.29617e-07
8.13288e-06
5.68523e-07
1.3265e-05
8.15007e-07
1.9975e-05
9.84591e-07
2.83352e-05
9.73805e-07
3.83458e-05
6.8024e-07
4.96341e-05
-9.19164e-09
6.16851e-05
-1.24152e-06
7.43183e-05
-3.06587e-06
8.7248e-05
-5.34449e-06
9.98971e-05
-7.90265e-06
0.000111666
-1.05958e-05
0.000121974
-1.32717e-05
0.000130286
-1.57846e-05
0.000136166
-1.80078e-05
0.0001393
-1.98416e-05
0.000139516
-2.12178e-05
0.000136768
-2.20905e-05
0.000131117
-2.24282e-05
0.000122705
-2.22063e-05
0.000111709
-2.14002e-05
9.83156e-05
-1.99826e-05
8.27009e-05
-1.79225e-05
6.49904e-05
-1.51862e-05
4.5242e-05
-1.17394e-05
2.34359e-05
-7.54734e-06
-2.64749e-06
1.29894e-07
7.21108e-09
6.28302e-07
3.92901e-08
1.84865e-06
1.15554e-07
4.05625e-06
2.4501e-07
7.48151e-06
4.04075e-07
1.2314e-05
5.36636e-07
1.86939e-05
5.58249e-07
2.67112e-05
3.6784e-07
3.63757e-05
-1.33073e-07
4.73674e-05
-1.03698e-06
5.92487e-05
-2.45143e-06
7.17971e-05
-4.41327e-06
8.46599e-05
-6.80781e-06
9.72632e-05
-9.47746e-06
0.000109009
-1.22812e-05
0.00011932
-1.50693e-05
0.000127664
-1.76935e-05
0.000133606
-2.00227e-05
0.00013684
-2.19539e-05
0.00013719
-2.34106e-05
0.000134608
-2.43379e-05
0.000129151
-2.4695e-05
0.000120954
-2.44482e-05
0.000110187
-2.35656e-05
9.70325e-05
-2.20129e-05
8.16621e-05
-1.97515e-05
6.41982e-05
-1.67413e-05
4.47031e-05
-1.29441e-05
2.31606e-05
-8.32253e-06
-2.91944e-06
1.16743e-07
4.63294e-09
5.72193e-07
2.45385e-08
1.70138e-06
7.06235e-08
3.76865e-06
1.40732e-07
7.00974e-06
2.05121e-07
1.16237e-05
2.05601e-07
1.77636e-05
5.95664e-08
2.55266e-05
-3.28807e-07
3.49237e-05
-1.05106e-06
4.56622e-05
-2.17716e-06
5.73544e-05
-3.77284e-06
6.97574e-05
-5.86082e-06
8.24787e-05
-8.3509e-06
9.49547e-05
-1.1105e-05
0.000106593
-1.39877e-05
0.000116824
-1.68527e-05
0.000125126
-1.95541e-05
0.000131072
-2.19608e-05
0.000134357
-2.39658e-05
0.000134808
-2.54854e-05
0.000132372
-2.64558e-05
0.000127099
-2.68267e-05
0.000119112
-2.65551e-05
0.000108579
-2.56e-05
9.56741e-05
-2.39194e-05
8.05608e-05
-2.14683e-05
6.3358e-05
-1.82014e-05
4.4131e-05
-1.40757e-05
2.2868e-05
-9.05083e-06
-3.17494e-06
1.09909e-07
1.48101e-09
5.41928e-07
7.10908e-09
1.62206e-06
1.76688e-08
3.61269e-06
1.95772e-08
6.74906e-06
-2.23217e-08
1.12342e-05
-1.67071e-07
1.72276e-05
-4.93719e-07
2.48263e-05
-1.0908e-06
3.40374e-05
-2.04066e-06
4.45696e-05
-3.38955e-06
5.60578e-05
-5.1618e-06
6.82596e-05
-7.36573e-06
8.07689e-05
-9.93532e-06
9.30371e-05
-1.27524e-05
0.000104486
-1.56888e-05
0.000114556
-1.86037e-05
0.000122741
-2.13562e-05
0.000128626
-2.3817e-05
0.000131912
-2.58759e-05
0.000132425
-2.74431e-05
0.000130107
-2.84462e-05
0.000125
-2.88253e-05
0.000117217
-2.8528e-05
0.000106916
-2.75044e-05
9.42638e-05
-2.57041e-05
7.94139e-05
-2.30759e-05
6.24818e-05
-1.95689e-05
4.35336e-05
-1.51355e-05
2.25619e-05
-9.73288e-06
-3.41417e-06
1.11437e-07
-2.3368e-09
5.43429e-07
-1.3384e-08
1.62136e-06
-4.39168e-08
3.60357e-06
-1.18666e-07
6.7197e-06
-2.76724e-07
1.1169e-05
-5.76159e-07
1.71086e-05
-1.09093e-06
2.46314e-05
-1.9013e-06
3.37361e-05
-3.07906e-06
4.41072e-05
-4.64585e-06
5.53792e-05
-6.58624e-06
6.73296e-05
-8.89592e-06
7.95619e-05
-1.15323e-05
9.15459e-05
-1.43964e-05
0.000102724
-1.73679e-05
0.000112555
-2.03131e-05
0.000120552
-2.30973e-05
0.000126313
-2.55936e-05
0.000129547
-2.76899e-05
0.00013008
-2.92911e-05
0.00012785
-3.03169e-05
0.000122888
-3.06986e-05
0.000115297
-3.03741e-05
0.000105223
-2.92845e-05
9.28217e-05
-2.73717e-05
7.82378e-05
-2.45775e-05
6.15816e-05
-2.08458e-05
4.29191e-05
-1.6125e-05
2.22469e-05
-1.03694e-05
-3.63737e-06
1.25527e-07
-7.43824e-09
5.87467e-07
-3.90044e-08
1.717e-06
-1.17758e-07
3.76207e-06
-2.78207e-07
6.93996e-06
-5.61034e-07
1.14401e-05
-1.02156e-06
1.74122e-05
-1.72779e-06
2.49423e-05
-2.75175e-06
3.40163e-05
-4.15465e-06
4.42641e-05
-5.93121e-06
5.53036e-05
-8.02693e-06
6.69589e-05
-1.04306e-05
7.88577e-05
-1.31237e-05
9.04903e-05
-1.60231e-05
0.000101325
-1.90158e-05
0.000110845
-2.19768e-05
0.000118586
-2.47774e-05
0.000124163
-2.7294e-05
0.000127295
-2.94137e-05
0.000127807
-3.10367e-05
0.000125632
-3.20759e-05
0.000120793
-3.24539e-05
0.000113379
-3.20997e-05
0.000103523
-3.09458e-05
9.13679e-05
-2.8926e-05
7.70488e-05
-2.5976e-05
6.06701e-05
-2.20341e-05
4.22961e-05
-1.70452e-05
2.19273e-05
-1.09611e-05
-3.84476e-06
1.62688e-07
-1.56757e-08
6.9769e-07
-7.55835e-08
1.94171e-06
-2.13113e-07
4.12135e-06
-4.69393e-07
7.43571e-06
-8.83945e-07
1.20609e-05
-1.50832e-06
1.8138e-05
-2.40473e-06
2.57483e-05
-3.63878e-06
3.48692e-05
-5.26474e-06
4.50165e-05
-7.24235e-06
5.57904e-05
-9.47288e-06
6.71157e-05
-1.19551e-05
7.86359e-05
-1.46977e-05
8.98601e-05
-1.7624e-05
0.000100288
-2.06278e-05
0.000109434
-2.35929e-05
0.00011686
-2.63977e-05
0.000122199
-2.89222e-05
0.00012518
-3.1053e-05
0.000125632
-3.26867e-05
0.000123482
-3.373e-05
0.000118742
-3.40977e-05
0.000111489
-3.37105e-05
0.000101838
-3.24925e-05
8.99221e-05
-3.03704e-05
7.58633e-05
-2.72734e-05
5.97596e-05
-2.31352e-05
4.16732e-05
-1.7897e-05
2.16077e-05
-1.15083e-05
-4.03648e-06
2.66556e-07
-3.50775e-08
9.41099e-07
-1.44988e-07
2.36627e-06
-3.5615e-07
4.7433e-06
-7.17465e-07
8.25304e-06
-1.26747e-06
1.30574e-05
-2.05419e-06
1.92901e-05
-3.13468e-06
2.70383e-05
-4.57145e-06
3.62317e-05
-6.40102e-06
4.62715e-05
-8.5487e-06
5.67785e-05
-1.09032e-05
6.77615e-05
-1.34705e-05
7.88691e-05
-1.62637e-05
8.96343e-05
-1.92111e-05
9.95998e-05
-2.22169e-05
0.000108317
-2.51764e-05
0.000115374
-2.79752e-05
0.000120426
-3.04965e-05
0.000123214
-3.26271e-05
0.000123569
-3.42608e-05
0.000121414
-3.52987e-05
0.00011675
-3.56487e-05
0.000109639
-3.52238e-05
0.000100181
-3.39405e-05
8.8495e-05
-3.17187e-05
7.46904e-05
-2.84818e-05
5.88575e-05
-2.41588e-05
4.10557e-05
-1.86876e-05
2.12909e-05
-1.20157e-05
-4.21415e-06
9.95289e-06
-2.69352e-06
1.72528e-05
-7.42236e-06
2.04854e-05
-1.07812e-05
1.9567e-05
-1.25425e-05
1.52685e-05
-1.27823e-05
8.42321e-06
-1.17541e-05
-1.76369e-07
-9.70554e-06
-9.71571e-06
-6.86874e-06
-1.94249e-05
-3.49119e-06
-2.86092e-05
1.71029e-07
-3.66783e-05
3.85643e-06
-4.31789e-05
7.31309e-06
-4.78116e-05
1.03181e-05
-5.0436e-05
1.26937e-05
-5.10643e-05
1.43211e-05
-4.9843e-05
1.51499e-05
-4.70271e-05
1.52009e-05
-4.29469e-05
1.45606e-05
-3.79731e-05
1.33668e-05
-3.24824e-05
1.17876e-05
-2.63745e-05
9.89012e-06
-1.97564e-05
7.68944e-06
-1.36386e-05
5.45357e-06
-8.69943e-06
3.55024e-06
-4.99766e-06
2.11426e-06
-2.47212e-06
1.11815e-06
-9.56497e-07
4.95254e-07
-2.06996e-07
1.57011e-07
5.58365e-08
8.71366e-09
-3.7712e-08
9.70409e-08
1.1072e-05
-2.88579e-06
1.96471e-05
-7.98693e-06
2.4385e-05
-1.17599e-05
2.47458e-05
-1.39947e-05
2.12447e-05
-1.46237e-05
1.4979e-05
-1.38295e-05
6.89023e-06
-1.19464e-05
-2.22726e-06
-9.25908e-06
-1.16273e-05
-6.00943e-06
-2.06348e-05
-2.44635e-06
-2.86645e-05
1.1732e-06
-3.52663e-05
4.6013e-06
-4.01382e-05
7.62138e-06
-4.31283e-05
1.0061e-05
-4.42286e-05
1.18037e-05
-4.35592e-05
1.27973e-05
-4.1346e-05
1.30566e-05
-3.78918e-05
1.26582e-05
-3.3546e-05
1.17278e-05
-2.86712e-05
1.04204e-05
-2.32272e-05
8.79991e-06
-1.7312e-05
6.86984e-06
-1.182e-05
4.86375e-06
-7.38857e-06
3.13317e-06
-4.07888e-06
1.82038e-06
-1.83259e-06
9.06695e-07
-4.91951e-07
3.33532e-07
1.69235e-07
1.98903e-08
4.11226e-07
-1.22359e-07
-1.75742e-07
4.88791e-07
1.21918e-05
-3.08069e-06
2.1861e-05
-8.53755e-06
2.79285e-05
-1.26387e-05
2.98877e-05
-1.52817e-05
2.76822e-05
-1.64097e-05
2.21891e-05
-1.60201e-05
1.46632e-05
-1.43755e-05
6.04643e-06
-1.18683e-05
-2.96628e-06
-8.7879e-06
-1.17276e-05
-5.36324e-06
-1.96508e-05
-1.84634e-06
-2.62916e-05
1.5178e-06
-3.13494e-05
4.52138e-06
-3.46644e-05
6.99938e-06
-3.62123e-05
8.83903e-06
-3.60912e-05
9.98767e-06
-3.45014e-05
1.04549e-05
-3.1721e-05
1.03082e-05
-2.80786e-05
9.66174e-06
-2.39218e-05
8.6597e-06
-1.92778e-05
7.37365e-06
-1.4181e-05
5.7769e-06
-9.39012e-06
4.03682e-06
-5.53311e-06
2.50329e-06
-2.6621e-06
1.33764e-06
-7.20823e-07
5.22851e-07
4.41325e-07
7.94872e-09
1.03536e-06
-2.81427e-07
1.30503e-06
-4.26742e-07
-5.01379e-07
1.47491e-06
1.33894e-05
-3.27443e-06
2.41564e-05
-9.09117e-06
3.13029e-05
-1.3503e-05
3.4662e-05
-1.645e-05
3.41194e-05
-1.79997e-05
2.9925e-05
-1.8142e-05
2.31553e-05
-1.69252e-05
1.51072e-05
-1.46793e-05
6.56182e-06
-1.1803e-05
-1.89344e-06
-8.55131e-06
-9.64761e-06
-5.1677e-06
-1.62687e-05
-1.89954e-06
-2.14626e-05
1.05834e-06
-2.50644e-05
3.5503e-06
-2.70372e-05
5.46817e-06
-2.74592e-05
6.75932e-06
-2.65076e-05
7.42835e-06
-2.44362e-05
7.53343e-06
-2.15507e-05
7.1767e-06
-1.81829e-05
6.49122e-06
-1.44389e-05
5.56308e-06
-1.02506e-05
4.34934e-06
-6.20334e-06
2.92996e-06
-2.94104e-06
1.61675e-06
-5.19279e-07
6.02634e-07
1.12057e-06
-1.0873e-07
2.12698e-06
-5.64554e-07
2.69809e-06
-8.3444e-07
3.06014e-06
-9.916e-07
-1.09618e-06
3.38976e-06
1.46636e-05
-3.46574e-06
2.66173e-05
-9.64004e-06
3.48439e-05
-1.43714e-05
3.9312e-05
-1.76036e-05
4.02247e-05
-1.94538e-05
3.7716e-05
-2.00388e-05
3.22254e-05
-1.93836e-05
2.49755e-05
-1.76104e-05
1.69719e-05
-1.50349e-05
8.86448e-06
-1.1977e-05
1.34104e-06
-8.74831e-06
-5.2015e-06
-5.60612e-06
-1.04829e-05
-2.72137e-06
-1.43334e-05
-2.38942e-07
-1.67061e-05
1.7374e-06
-1.76604e-05
3.15515e-06
-1.73499e-05
4.01313e-06
-1.6002e-05
4.35924e-06
-1.38943e-05
4.28081e-06
-1.13314e-05
3.89194e-06
-8.47243e-06
3.27174e-06
-5.24399e-06
2.41352e-06
-2.0295e-06
1.37733e-06
6.23859e-07
3.65585e-07
2.61553e-06
-4.63655e-07
3.98577e-06
-1.06825e-06
4.87579e-06
-1.46942e-06
5.47191e-06
-1.72379e-06
5.97795e-06
-1.89627e-06
-2.03208e-06
6.50931e-06
1.60201e-05
-3.65302e-06
2.92423e-05
-1.01795e-05
3.86467e-05
-1.52307e-05
4.4216e-05
-1.87605e-05
4.62706e-05
-2.08894e-05
4.52308e-05
-2.1779e-05
4.13673e-05
-2.15677e-05
3.53692e-05
-2.03481e-05
2.8176e-05
-1.82693e-05
2.05564e-05
-1.55636e-05
1.33134e-05
-1.25513e-05
6.91319e-06
-9.55705e-06
1.59297e-06
-6.77178e-06
-2.46479e-06
-4.32112e-06
-5.20841e-06
-2.30651e-06
-6.67521e-06
-7.80156e-07
-6.9942e-06
2.49276e-07
-6.36315e-06
8.18679e-07
-5.0244e-06
9.98903e-07
-3.24056e-06
8.81285e-07
-1.1786e-06
5.31428e-07
1.13397e-06
-2.10883e-08
3.45978e-06
-7.00435e-07
5.46385e-06
-1.38078e-06
7.03503e-06
-1.97336e-06
8.17743e-06
-2.44237e-06
8.99579e-06
-2.78328e-06
9.65299e-06
-3.02244e-06
1.03313e-05
-3.20775e-06
-3.36997e-06
1.10828e-05
1.74629e-05
-3.83432e-06
3.20388e-05
-1.07039e-05
4.27053e-05
-1.60717e-05
4.9473e-05
-1.99016e-05
5.26549e-05
-2.23239e-05
5.27634e-05
-2.34957e-05
5.03011e-05
-2.35926e-05
4.57306e-05
-2.27745e-05
3.97811e-05
-2.12148e-05
3.30643e-05
-1.90631e-05
2.62832e-05
-1.64715e-05
2.00887e-05
-1.37099e-05
1.47771e-05
-1.10423e-05
1.05617e-05
-8.64426e-06
7.48057e-06
-6.61256e-06
5.53064e-06
-4.99641e-06
4.60751e-06
-3.81641e-06
4.54487e-06
-3.04534e-06
5.13996e-06
-2.62796e-06
6.17605e-06
-2.49265e-06
7.48153e-06
-2.57412e-06
8.97064e-06
-2.83041e-06
1.04926e-05
-3.20355e-06
1.18602e-05
-3.60273e-06
1.30121e-05
-3.96733e-06
1.39531e-05
-4.28294e-06
1.47478e-05
-4.54942e-06
1.55071e-05
-4.77391e-06
1.63768e-05
-4.97498e-06
-5.15938e-06
1.735e-05
1.89949e-05
-4.00768e-06
3.50124e-05
-1.12076e-05
4.7027e-05
-1.68851e-05
5.50762e-05
-2.10142e-05
5.94823e-05
-2.37344e-05
6.07338e-05
-2.52082e-05
5.94193e-05
-2.56099e-05
5.6079e-05
-2.5113e-05
5.14297e-05
-2.39271e-05
4.5942e-05
-2.22475e-05
4.00067e-05
-2.0175e-05
3.42417e-05
-1.78349e-05
2.90826e-05
-1.54344e-05
2.4764e-05
-1.31539e-05
2.13829e-05
-1.11197e-05
1.8997e-05
-9.43354e-06
1.75158e-05
-8.13091e-06
1.68038e-05
-7.18682e-06
1.67004e-05
-6.56028e-06
1.70327e-05
-6.19774e-06
1.76138e-05
-6.03283e-06
1.83524e-05
-6.01014e-06
1.91824e-05
-6.09396e-06
1.99948e-05
-6.23929e-06
2.0764e-05
-6.40622e-06
2.15144e-05
-6.57944e-06
2.23027e-05
-6.75927e-06
2.31988e-05
-6.95345e-06
2.42981e-05
-7.17066e-06
-7.39803e-06
2.55336e-05
2.06185e-05
-4.17077e-06
3.81672e-05
-1.16837e-05
5.16173e-05
-1.76601e-05
6.10329e-05
-2.20836e-05
6.67463e-05
-2.5102e-05
6.9244e-05
-2.68826e-05
6.90981e-05
-2.76011e-05
6.68945e-05
-2.74367e-05
6.33247e-05
-2.65797e-05
5.89314e-05
-2.52275e-05
5.40097e-05
-2.35324e-05
4.90058e-05
-2.16224e-05
4.43076e-05
-1.96296e-05
4.00981e-05
-1.7644e-05
3.65356e-05
-1.57406e-05
3.37751e-05
-1.40376e-05
3.18128e-05
-1.2641e-05
3.05239e-05
-1.15598e-05
2.97963e-05
-1.07582e-05
2.94979e-05
-1.02007e-05
2.94261e-05
-9.81851e-06
2.9484e-05
-9.54366e-06
2.96997e-05
-9.36464e-06
3.00386e-05
-9.28003e-06
3.04847e-05
-9.26671e-06
3.1062e-05
-9.30716e-06
3.18225e-05
-9.39541e-06
3.28319e-05
-9.53559e-06
3.41589e-05
-9.73669e-06
-9.97199e-06
3.56658e-05
2.23325e-05
-4.32064e-06
4.15013e-05
-1.21237e-05
5.64737e-05
-1.83828e-05
6.734e-05
-2.30907e-05
7.44429e-05
-2.64027e-05
7.82671e-05
-2.84896e-05
7.93756e-05
-2.95278e-05
7.83597e-05
-2.96958e-05
7.58328e-05
-2.91745e-05
7.23544e-05
-2.81405e-05
6.83083e-05
-2.67465e-05
6.41129e-05
-2.51453e-05
6.00619e-05
-2.34781e-05
5.63131e-05
-2.18403e-05
5.29015e-05
-2.02499e-05
4.9948e-05
-1.87073e-05
4.76051e-05
-1.73007e-05
4.58322e-05
-1.61157e-05
4.45814e-05
-1.51742e-05
4.37447e-05
-1.44566e-05
4.31072e-05
-1.38881e-05
4.2566e-05
-1.33921e-05