/*--------------------------------*- C++ -*----------------------------------*\
| =========                 |                                                 |
| \\      /  F ield         | OpenFOAM: The Open Source CFD Toolbox           |
|  \\    /   O peration     | Version:  dev                                   |
|   \\  /    A nd           | Web:      www.OpenFOAM.org                      |
|    \\/     M anipulation  |                                                 |
\*---------------------------------------------------------------------------*/
FoamFile
{
    version     2.0;
    format      ascii;
    class       pointVectorField;
    location    "0.62";
    object      pointDisplacement;
}
// * * * * * * * * * * * * * * * * * * * * * * * * * * * * * * * * * * * * * //

dimensions      [0 1 0 0 0 0 0];

internalField   nonuniform List<vector> 
5828
(
(0 0 0)
(0.0111572 0 0)
(0.0211854 0 0)
(0.0298166 0 0)
(0.0371633 0 0)
(0.0433352 0 0)
(0.0484315 0 0)
(0.0525413 0 0)
(0.055744 0 0)
(0.0581097 0 0)
(0.0597008 0 0)
(0.060572 0 0)
(0.0607714 0 0)
(0.0603409 0 0)
(0.0593181 0 0)
(0.0577375 0 0)
(0.0556315 0 0)
(0.0530321 0 0)
(0.0499718 0 0)
(0.0464859 0 0)
(0.0426144 0 0)
(0.0384041 0 0)
(0.033911 0 0)
(0.0292045 0 0)
(0.0243717 0 0)
(0.0195242 0 0)
(0.0148085 0 0)
(0.0104218 0 0)
(0.00664451 0 0)
(0.00395821 0 0)
(0 0 0)
(0 0 0)
(0.0111638 0 -1.89192e-05)
(0.0211992 0 -3.59235e-05)
(0.0298376 0 -5.05322e-05)
(0.0371921 0 -6.28559e-05)
(0.0433723 0 -7.29426e-05)
(0.0484778 0 -8.07693e-05)
(0.0525981 0 -8.62282e-05)
(0.0558126 0 -8.91303e-05)
(0.0581918 0 -8.91897e-05)
(0.0597983 0 -8.60366e-05)
(0.0606874 0 -7.92333e-05)
(0.0609074 0 -6.8242e-05)
(0.0605006 0 -5.23658e-05)
(0.0595049 0 -3.07747e-05)
(0.0579554 0 -2.53886e-06)
(0.0558851 0 3.34267e-05)
(0.0533261 0 7.83738e-05)
(0.0503118 0 0.00013373)
(0.046878 0 0.000201103)
(0.0430654 0 0.000282292)
(0.0389216 0 0.000379292)
(0.0345037 0 0.00049432)
(0.0298819 0 0.000629841)
(0.0251448 0 0.000788568)
(0.0204064 0 0.000973368)
(0.0158175 0 0.00118679)
(0.0115839 0 0.00142943)
(0.00799664 0 0.00169473)
(0.00553473 0 0.00195225)
(0.00236424 0 0.00238434)
(0 0 0)
(0.011185 0 -3.79117e-05)
(0.0212416 0 -7.20004e-05)
(0.0299018 0 -0.000101312)
(0.0372789 0 -0.000126074)
(0.0434837 0 -0.000146387)
(0.0486167 0 -0.000162217)
(0.0527679 0 -0.000173358)
(0.0560176 0 -0.000179447)
(0.0584369 0 -0.000179922)
(0.0600895 0 -0.000174052)
(0.0610316 0 -0.000160992)
(0.0613131 0 -0.000139715)
(0.0609771 0 -0.000108851)
(0.0600623 0 -6.67617e-05)
(0.0586055 0 -1.16598e-05)
(0.0566411 0 5.85557e-05)
(0.0542028 0 0.000146302)
(0.0513255 0 0.000254323)
(0.0480468 0 0.000385689)
(0.0444095 0 0.000543784)
(0.0404636 0 0.000732288)
(0.0362689 0 0.00095516)
(0.0318986 0 0.00121657)
(0.0274444 0 0.00152075)
(0.0230247 0 0.00187148)
(0.0187982 0 0.00227091)
(0.014988 0 0.00271575)
(0.0119023 0 0.00318634)
(0.00999508 0 0.00361858)
(0.00744611 0 0.00423536)
(0 0 0)
(0.01122 0 -5.70397e-05)
(0.0213118 0 -0.000108362)
(0.0300078 0 -0.000152554)
(0.0374226 0 -0.000189971)
(0.043668 0 -0.000220778)
(0.0488462 0 -0.000244954)
(0.0530486 0 -0.000262207)
(0.0563564 0 -0.000272041)
(0.0588419 0 -0.000273633)
(0.0605703 0 -0.000265902)
(0.0616001 0 -0.000247652)
(0.0619822 0 -0.000217393)
(0.0617616 0 -0.000173221)
(0.0609797 0 -0.000112831)
(0.0596752 0 -3.36399e-05)
(0.0578847 0 6.73316e-05)
(0.0556444 0 0.000193488)
(0.0529916 0 0.000348662)
(0.0499667 0 0.000537092)
(0.046616 0 0.00076335)
(0.0429933 0 0.00103223)
(0.0391625 0 0.00134859)
(0.0352017 0 0.00171709)
(0.0312069 0 0.0021416)
(0.0272997 0 0.0026242)
(0.0236393 0 0.00316299)
(0.0204544 0 0.00374586)
(0.0180606 0 0.00433574)
(0.0168634 0 0.00484151)
(0.0150317 0 0.00549334)
(0 0 0)
(0.0112688 0 -7.63533e-05)
(0.0214094 0 -0.000145116)
(0.0301554 0 -0.000204438)
(0.0376221 0 -0.000254818)
(0.0439236 0 -0.000296496)
(0.0491645 0 -0.000329512)
(0.0534375 0 -0.000353492)
(0.056825 0 -0.000367763)
(0.0594008 0 -0.000371366)
(0.0612333 0 -0.000363005)
(0.0623834 0 -0.000341149)
(0.0629031 0 -0.000303868)
(0.0628405 0 -0.000248888)
(0.0622405 0 -0.00017344)
(0.0611442 0 -7.42728e-05)
(0.0595913 0 5.22676e-05)
(0.0576213 0 0.00021031)
(0.0552747 0 0.000404445)
(0.052595 0 0.000639675)
(0.0496328 0 0.000921226)
(0.046447 0 0.00125428)
(0.0431065 0 0.00164364)
(0.0396946 0 0.00209312)
(0.0363123 0 0.00260453)
(0.0330828 0 0.003176)
(0.0301588 0 0.00379896)
(0.0277475 0 0.00445045)
(0.0261527 0 0.00507799)
(0.0257273 0 0.00557624)
(0.0245821 0 0.00618452)
(0 0 0)
(0.0113308 0 -9.58906e-05)
(0.0215338 0 -0.000182345)
(0.0303435 0 -0.000257107)
(0.0378759 0 -0.000320839)
(0.0442482 0 -0.000373855)
(0.0495677 0 -0.000416226)
(0.053928 0 -0.000447598)
(0.0574144 0 -0.00046717)
(0.0601038 0 -0.000473935)
(0.0620674 0 -0.000466519)
(0.0633684 0 -0.000443102)
(0.0640619 0 -0.000401507)
(0.0641989 0 -0.000339097)
(0.0638268 0 -0.000252718)
(0.0629913 0 -0.000138764)
(0.0617357 0 6.83426e-06)
(0.0601037 0 0.000188605)
(0.0581394 0 0.000411492)
(0.0558889 0 0.000680826)
(0.0534079 0 0.00100191)
(0.050761 0 0.00137957)
(0.0480212 0 0.00181762)
(0.0452766 0 0.00231786)
(0.04263 0 0.00287869)
(0.0402023 0 0.0034929)
(0.0381356 0 0.00414425)
(0.0366002 0 0.004801)
(0.0358591 0 0.00540143)
(0.0362041 0 0.00583767)
(0.0356986 0 0.00636879)
(0 0 0)
(0.0114054 0 -0.000115676)
(0.0216838 0 -0.000220104)
(0.0305708 0 -0.000310663)
(0.0381813 0 -0.000388116)
(0.0446354 0 -0.000452893)
(0.0500466 0 -0.000505182)
(0.0545112 0 -0.000544756)
(0.0581165 0 -0.000570889)
(0.0609424 0 -0.00058241)
(0.0630623 0 -0.000577838)
(0.0645425 0 -0.000555247)
(0.0654415 0 -0.00051233)
(0.0658135 0 -0.000446298)
(0.0657105 0 -0.000353804)
(0.0651824 0 -0.000231085)
(0.0642774 0 -7.39534e-05)
(0.0630437 0 0.000122165)
(0.0615311 0 0.000362096)
(0.0597894 0 0.000651031)
(0.0578762 0 0.000993964)
(0.0558574 0 0.00139474)
(0.0538119 0 0.00185538)
(0.051833 0 0.00237477)
(0.0500201 0 0.00294714)
(0.0484839 0 0.00355969)
(0.0473492 0 0.00418929)
(0.0467489 0 0.00479885)
(0.0468762 0 0.00532437)
(0.0479479 0 0.00566455)
(0.0480295 0 0.00609982)
(0 0 0)
(0.0114915 0 -0.000135717)
(0.0218578 0 -0.000258414)
(0.030833 0 -0.00036508)
(0.0385301 0 -0.000456547)
(0.0450772 0 -0.000533552)
(0.0505951 0 -0.000596599)
(0.0551818 0 -0.000645502)
(0.0589245 0 -0.000679507)
(0.0619054 0 -0.000697411)
(0.0642028 0 -0.00069778)
(0.0658864 0 -0.000678682)
(0.0670168 0 -0.000637689)
(0.0676533 0 -0.000572127)
(0.0678538 0 -0.000478806)
(0.0676723 0 -0.000353951)
(0.0671618 0 -0.000193523)
(0.0663761 0 6.7656e-06)
(0.0653713 0 0.000251269)
(0.0642052 0 0.000544404)
(0.0629352 0 0.000890198)
(0.0616249 0 0.00129131)
(0.060353 0 0.00174803)
(0.0592166 0 0.0022558)
(0.0583129 0 0.00280431)
(0.0577331 0 0.00337613)
(0.0575744 0 0.00394325)
(0.0579305 0 0.00446585)
(0.0589085 0 0.0048834)
(0.0606399 0 0.00510853)
(0.061248 0 0.00542769)
(0 0 0)
(0.0115876 0 -0.000156008)
(0.0220514 0 -0.000297244)
(0.031123 0 -0.000420267)
(0.0389163 0 -0.000526157)
(0.0455702 0 -0.000616075)
(0.0512105 0 -0.000690832)
(0.0559322 0 -0.000750138)
(0.059824 0 -0.000793149)
(0.0629752 0 -0.000819031)
(0.0654689 0 -0.000826562)
(0.0673766 0 -0.000813816)
(0.0687625 0 -0.000778452)
(0.0696908 0 -0.000717952)
(0.070224 0 -0.000629395)
(0.0704207 0 -0.000509331)
(0.0703396 0 -0.000354148)
(0.0700404 0 -0.000160147)
(0.0695847 0 7.62682e-05)
(0.069037 0 0.000358316)
(0.06846 0 0.000688425)
(0.0679206 0 0.0010675)
(0.0674885 0 0.00149435)
(0.0672554 0 0.00196175)
(0.067315 0 0.00245527)
(0.0677336 0 0.0029542)
(0.0685717 0 0.00342831)
(0.0698736 0 0.00383771)
(0.0716653 0 0.00412882)
(0.0739842 0 0.00423293)
(0.075045 0 0.00443276)
(0 0 0)
(0.0116922 0 -0.000176527)
(0.0222604 0 -0.00033655)
(0.0314364 0 -0.000476249)
(0.0393374 0 -0.000597087)
(0.0461106 0 -0.000700626)
(0.0518834 0 -0.000787865)
(0.0567482 0 -0.000858468)
(0.0608008 0 -0.00091186)
(0.0641383 0 -0.000947633)
(0.0668446 0 -0.000964654)
(0.0689937 0 -0.000961188)
(0.0706551 0 -0.000935194)
(0.0718967 0 -0.000884405)
(0.0727847 0 -0.00080626)
(0.0733833 0 -0.000697912)
(0.0737569 0 -0.000556445)
(0.0739709 0 -0.000379037)
(0.0740921 0 -0.000163186)
(0.0741895 0 9.29546e-05)
(0.0743325 0 0.000390072)
(0.0745936 0 0.000726921)
(0.0750402 0 0.00110042)
(0.0757531 0 0.00150168)
(0.0768087 0 0.00191409)
(0.0782478 0 0.00231538)
(0.080089 0 0.00267591)
(0.0823172 0 0.00295881)
(0.0848799 0 0.00311929)
(0.0877129 0 0.00310837)
(0.0891526 0 0.00319298)
(0 0 0)
(0.0118038 0 -0.000197244)
(0.0224824 0 -0.000376287)
(0.03177 0 -0.000533015)
(0.0397879 0 -0.000669292)
(0.0466894 0 -0.000787058)
(0.0526018 0 -0.000887441)
(0.0576188 0 -0.000970382)
(0.0618452 0 -0.00103577)
(0.0653818 0 -0.00108336)
(0.0683129 0 -0.00111219)
(0.0707165 0 -0.00112088)
(0.0726665 0 -0.0011078)
(0.0742347 0 -0.0010711)
(0.0754915 0 -0.00100878)
(0.0765062 0 -0.000918765)
(0.0773484 0 -0.000799039)
(0.0780888 0 -0.000647895)
(0.0787994 0 -0.000464172)
(0.0795539 0 -0.000247614)
(0.0804269 0 6.44172e-07)
(0.0814928 0 0.000277452)
(0.0828241 0 0.000577729)
(0.0844923 0 0.000891479)
(0.0865495 0 0.00120198)
(0.0890112 0 0.00148804)
(0.0918528 0 0.00172359)
(0.0949961 0 0.00187803)
(0.0982999 0 0.00191672)
(0.101587 0 0.00180794)
(0.103349 0 0.00178515)
(0 0 0)
(0.0119209 0 -0.000218113)
(0.0227149 0 -0.000416371)
(0.0321198 0 -0.000590429)
(0.040262 0 -0.000742597)
(0.0472978 0 -0.000875164)
(0.0533561 0 -0.000989424)
(0.0585352 0 -0.00108583)
(0.062945 0 -0.00116466)
(0.0666883 0 -0.0012258)
(0.0698523 0 -0.00126862)
(0.0725184 0 -0.00129218)
(0.0747644 0 -0.00129532)
(0.0766658 0 -0.00127679)
(0.0782971 0 -0.00123528)
(0.0797319 0 -0.0011696)
(0.0810444 0 -0.00107881)
(0.0823099 0 -0.000962488)
(0.0836051 0 -0.000820971)
(0.085008 0 -0.000655708)
(0.0865968 0 -0.000469674)
(0.0884486 0 -0.000267824)
(0.0906391 0 -5.69e-05)
(0.0932327 0 0.000152674)
(0.096263 0 0.000345667)
(0.099723 0 0.000504573)
(0.103551 0 0.000610376)
(0.107609 0 0.000642823)
(0.111658 0 0.000579634)
(0.115386 0 0.000400787)
(0.117471 0 0.000303328)
(0 0 0)
(0.0120422 0 -0.000239079)
(0.0229548 0 -0.000456685)
(0.0324811 0 -0.0006483)
(0.0407536 0 -0.000816765)
(0.0479283 0 -0.000964686)
(0.0541372 0 -0.00109355)
(0.0594856 0 -0.00120443)
(0.0640849 0 -0.001298)
(0.0680394 0 -0.00137426)
(0.0714401 0 -0.00143304)
(0.0743717 0 -0.0014739)
(0.0769153 0 -0.00149624)
(0.0791496 0 -0.00149946)
(0.0811523 0 -0.00148307)
(0.0830009 0 -0.00144684)
(0.0847731 0 -0.00139102)
(0.0865477 0 -0.00131654)
(0.0884047 0 -0.00122531)
(0.0904252 0 -0.0011205)
(0.0926898 0 -0.00100689)
(0.0952771 0 -0.000891095)
(0.0982649 0 -0.00078131)
(0.101713 0 -0.000687969)
(0.105644 0 -0.000623809)
(0.110037 0 -0.000600858)
(0.11481 0 -0.000627968)
(0.119784 0 -0.000709804)
(0.124629 0 -0.000850545)
(0.128868 0 -0.00106436)
(0.131451 0 -0.00118215)
(0 0 0)
(0.0121663 0 -0.000260075)
(0.0231989 0 -0.000497089)
(0.0328494 0 -0.000706469)
(0.0412574 0 -0.000891587)
(0.0485732 0 -0.00105528)
(0.0549354 0 -0.00119942)
(0.0604582 0 -0.00132567)
(0.0652498 0 -0.00143502)
(0.0694159 0 -0.00152776)
(0.0730531 0 -0.00160421)
(0.0762484 0 -0.00166444)
(0.0790853 0 -0.00170846)
(0.0816451 0 -0.00173639)
(0.0840081 0 -0.00174859)
(0.0862541 0 -0.00174584)
(0.0884632 0 -0.00172957)
(0.0907162 0 -0.00170207)
(0.0930948 0 -0.00166678)
(0.0956808 0 -0.00162852)
(0.0985551 0 -0.00159378)
(0.101796 0 -0.0015707)
(0.10548 0 -0.00156887)
(0.109664 0 -0.00159881)
(0.114364 0 -0.00167103)
(0.119558 0 -0.00179247)
(0.125167 0 -0.00196142)
(0.13101 0 -0.0021627)
(0.13671 0 -0.00236995)
(0.141626 0 -0.00258545)
(0.145301 0 -0.0026369)
(0 0 0)
(0.0122922 0 -0.000281029)
(0.0234462 0 -0.000537472)
(0.033222 0 -0.000764795)
(0.0417661 0 -0.000966762)
(0.0492243 0 -0.00114653)
(0.0557421 0 -0.0013066)
(0.0614398 0 -0.00144889)
(0.0664227 0 -0.00157477)
(0.0707989 0 -0.00168512)
(0.0746685 0 -0.00178059)
(0.078121 0 -0.00186183)
(0.0812415 0 -0.00192947)
(0.084113 0 -0.00198434)
(0.0868171 0 -0.00202763)
(0.0894349 0 -0.00206111)
(0.0920472 0 -0.00208732)
(0.0947349 0 -0.00210982)
(0.0975788 0 -0.00213342)
(0.100659 0 -0.00216443)
(0.104053 0 -0.00221078)
(0.107835 0 -0.00228204)
(0.112078 0 -0.00238917)
(0.116829 0 -0.00254325)
(0.122099 0 -0.00275421)
(0.127867 0 -0.00302782)
(0.134068 0 -0.00335855)
(0.140556 0 -0.00371807)
(0.146991 0 -0.00403687)
(0.152711 0 -0.00425444)
(0.159046 0 -0.00405321)
(0 0 0)
(0.0124197 0 -0.000302012)
(0.0236974 0 -0.00057797)
(0.033598 0 -0.000823361)
(0.0422754 0 -0.00104239)
(0.0498788 0 -0.00123869)
(0.0565544 0 -0.00141534)
(0.0624251 0 -0.00157435)
(0.0675984 0 -0.00171756)
(0.0721821 0 -0.00184644)
(0.0762783 0 -0.0019621)
(0.0799795 0 -0.00206573)
(0.0833713 0 -0.00215852)
(0.0865374 0 -0.002242)
(0.0895597 0 -0.00231816)
(0.0925188 0 -0.00238963)
(0.0954943 0 -0.00245996)
(0.0985652 0 -0.00253375)
(0.101809 0 -0.00261695)
(0.1053 0 -0.002717)
(0.10911 0 -0.00284298)
(0.113302 0 -0.00300551)
(0.117939 0 -0.00321688)
(0.123051 0 -0.00348871)
(0.12863 0 -0.00383203)
(0.134646 0 -0.00425744)
(0.141028 0 -0.00477132)
(0.147626 0 -0.00537385)
(0.154132 0 -0.0060587)
(0.160076 0 -0.00690256)
(0.172792 0 -0.00546977)
(0 0 0)
(0.0111572 0 0)
(0.0211854 0 0)
(0.0298166 0 0)
(0.0371633 0 0)
(0.0433352 0 0)
(0.0484315 0 0)
(0.0525413 0 0)
(0.055744 0 0)
(0.0581097 0 0)
(0.0597008 0 0)
(0.060572 0 0)
(0.0607714 0 0)
(0.0603409 0 0)
(0.0593181 0 0)
(0.0577375 0 0)
(0.0556315 0 0)
(0.0530321 0 0)
(0.0499718 0 0)
(0.0464859 0 0)
(0.0426144 0 0)
(0.0384041 0 0)
(0.033911 0 0)
(0.0292045 0 0)
(0.0243717 0 0)
(0.0195242 0 0)
(0.0148085 0 0)
(0.0104218 0 0)
(0.00664451 0 0)
(0.00395821 0 0)
(0 0 0)
(0 0 0)
(0.0111638 0 -1.89192e-05)
(0.0211992 0 -3.59235e-05)
(0.0298376 0 -5.05322e-05)
(0.0371921 0 -6.28559e-05)
(0.0433723 0 -7.29426e-05)
(0.0484778 0 -8.07693e-05)
(0.0525981 0 -8.62282e-05)
(0.0558126 0 -8.91303e-05)
(0.0581918 0 -8.91897e-05)
(0.0597983 0 -8.60366e-05)
(0.0606874 0 -7.92333e-05)
(0.0609074 0 -6.8242e-05)
(0.0605006 0 -5.23658e-05)
(0.0595049 0 -3.07747e-05)
(0.0579554 0 -2.53886e-06)
(0.0558851 0 3.34267e-05)
(0.0533261 0 7.83738e-05)
(0.0503118 0 0.00013373)
(0.046878 0 0.000201103)
(0.0430654 0 0.000282292)
(0.0389216 0 0.000379292)
(0.0345037 0 0.00049432)
(0.0298819 0 0.000629841)
(0.0251448 0 0.000788568)
(0.0204064 0 0.000973368)
(0.0158175 0 0.00118679)
(0.0115839 0 0.00142943)
(0.00799664 0 0.00169473)
(0.00553473 0 0.00195225)
(0.00236424 0 0.00238434)
(0 0 0)
(0.011185 0 -3.79117e-05)
(0.0212416 0 -7.20004e-05)
(0.0299018 0 -0.000101312)
(0.0372789 0 -0.000126074)
(0.0434837 0 -0.000146387)
(0.0486167 0 -0.000162217)
(0.0527679 0 -0.000173358)
(0.0560176 0 -0.000179447)
(0.0584369 0 -0.000179922)
(0.0600895 0 -0.000174052)
(0.0610316 0 -0.000160992)
(0.0613131 0 -0.000139715)
(0.0609771 0 -0.000108851)
(0.0600623 0 -6.67617e-05)
(0.0586055 0 -1.16598e-05)
(0.0566411 0 5.85557e-05)
(0.0542028 0 0.000146302)
(0.0513255 0 0.000254323)
(0.0480468 0 0.000385689)
(0.0444095 0 0.000543784)
(0.0404636 0 0.000732288)
(0.0362689 0 0.00095516)
(0.0318986 0 0.00121657)
(0.0274444 0 0.00152075)
(0.0230247 0 0.00187148)
(0.0187982 0 0.00227091)
(0.014988 0 0.00271575)
(0.0119023 0 0.00318634)
(0.00999508 0 0.00361858)
(0.00744611 0 0.00423536)
(0 0 0)
(0.01122 0 -5.70397e-05)
(0.0213118 0 -0.000108362)
(0.0300078 0 -0.000152554)
(0.0374226 0 -0.000189971)
(0.043668 0 -0.000220778)
(0.0488462 0 -0.000244954)
(0.0530486 0 -0.000262207)
(0.0563564 0 -0.000272041)
(0.0588419 0 -0.000273633)
(0.0605703 0 -0.000265902)
(0.0616001 0 -0.000247652)
(0.0619822 0 -0.000217393)
(0.0617616 0 -0.000173221)
(0.0609797 0 -0.000112831)
(0.0596752 0 -3.36399e-05)
(0.0578847 0 6.73316e-05)
(0.0556444 0 0.000193488)
(0.0529916 0 0.000348662)
(0.0499667 0 0.000537092)
(0.046616 0 0.00076335)
(0.0429933 0 0.00103223)
(0.0391625 0 0.00134859)
(0.0352017 0 0.00171709)
(0.0312069 0 0.0021416)
(0.0272997 0 0.0026242)
(0.0236393 0 0.00316299)
(0.0204544 0 0.00374586)
(0.0180606 0 0.00433574)
(0.0168634 0 0.00484151)
(0.0150317 0 0.00549334)
(0 0 0)
(0.0112688 0 -7.63533e-05)
(0.0214094 0 -0.000145116)
(0.0301554 0 -0.000204438)
(0.0376221 0 -0.000254818)
(0.0439236 0 -0.000296496)
(0.0491645 0 -0.000329512)
(0.0534375 0 -0.000353492)
(0.056825 0 -0.000367763)
(0.0594008 0 -0.000371366)
(0.0612333 0 -0.000363005)
(0.0623834 0 -0.000341149)
(0.0629031 0 -0.000303868)
(0.0628405 0 -0.000248888)
(0.0622405 0 -0.00017344)
(0.0611442 0 -7.42728e-05)
(0.0595913 0 5.22676e-05)
(0.0576213 0 0.00021031)
(0.0552747 0 0.000404445)
(0.052595 0 0.000639675)
(0.0496328 0 0.000921226)
(0.046447 0 0.00125428)
(0.0431065 0 0.00164364)
(0.0396946 0 0.00209312)
(0.0363123 0 0.00260453)
(0.0330828 0 0.003176)
(0.0301588 0 0.00379896)
(0.0277475 0 0.00445045)
(0.0261527 0 0.00507799)
(0.0257273 0 0.00557624)
(0.0245821 0 0.00618452)
(0 0 0)
(0.0113308 0 -9.58906e-05)
(0.0215338 0 -0.000182345)
(0.0303435 0 -0.000257107)
(0.0378759 0 -0.000320839)
(0.0442482 0 -0.000373855)
(0.0495677 0 -0.000416226)
(0.053928 0 -0.000447598)
(0.0574144 0 -0.00046717)
(0.0601038 0 -0.000473935)
(0.0620674 0 -0.000466519)
(0.0633684 0 -0.000443102)
(0.0640619 0 -0.000401507)
(0.0641989 0 -0.000339097)
(0.0638268 0 -0.000252718)
(0.0629913 0 -0.000138764)
(0.0617357 0 6.83426e-06)
(0.0601037 0 0.000188605)
(0.0581394 0 0.000411492)
(0.0558889 0 0.000680826)
(0.0534079 0 0.00100191)
(0.050761 0 0.00137957)
(0.0480212 0 0.00181762)
(0.0452766 0 0.00231786)
(0.04263 0 0.00287869)
(0.0402023 0 0.0034929)
(0.0381356 0 0.00414425)
(0.0366002 0 0.004801)
(0.0358591 0 0.00540143)
(0.0362041 0 0.00583767)
(0.0356986 0 0.00636879)
(0 0 0)
(0.0114054 0 -0.000115676)
(0.0216838 0 -0.000220104)
(0.0305708 0 -0.000310663)
(0.0381813 0 -0.000388116)
(0.0446354 0 -0.000452893)
(0.0500466 0 -0.000505182)
(0.0545112 0 -0.000544756)
(0.0581165 0 -0.000570889)
(0.0609424 0 -0.00058241)
(0.0630623 0 -0.000577838)
(0.0645425 0 -0.000555247)
(0.0654415 0 -0.00051233)
(0.0658135 0 -0.000446298)
(0.0657105 0 -0.000353804)
(0.0651824 0 -0.000231085)
(0.0642774 0 -7.39534e-05)
(0.0630437 0 0.000122165)
(0.0615311 0 0.000362096)
(0.0597894 0 0.000651031)
(0.0578762 0 0.000993964)
(0.0558574 0 0.00139474)
(0.0538119 0 0.00185538)
(0.051833 0 0.00237477)
(0.0500201 0 0.00294714)
(0.0484839 0 0.00355969)
(0.0473492 0 0.00418929)
(0.0467489 0 0.00479885)
(0.0468762 0 0.00532437)
(0.0479479 0 0.00566455)
(0.0480295 0 0.00609982)
(0 0 0)
(0.0114915 0 -0.000135717)
(0.0218578 0 -0.000258414)
(0.030833 0 -0.00036508)
(0.0385301 0 -0.000456547)
(0.0450772 0 -0.000533552)
(0.0505951 0 -0.000596599)
(0.0551818 0 -0.000645502)
(0.0589245 0 -0.000679507)
(0.0619054 0 -0.000697411)
(0.0642028 0 -0.00069778)
(0.0658864 0 -0.000678682)
(0.0670168 0 -0.000637689)
(0.0676533 0 -0.000572127)
(0.0678538 0 -0.000478806)
(0.0676723 0 -0.000353951)
(0.0671618 0 -0.000193523)
(0.0663761 0 6.7656e-06)
(0.0653713 0 0.000251269)
(0.0642052 0 0.000544404)
(0.0629352 0 0.000890198)
(0.0616249 0 0.00129131)
(0.060353 0 0.00174803)
(0.0592166 0 0.0022558)
(0.0583129 0 0.00280431)
(0.0577331 0 0.00337613)
(0.0575744 0 0.00394325)
(0.0579305 0 0.00446585)
(0.0589085 0 0.0048834)
(0.0606399 0 0.00510853)
(0.061248 0 0.00542769)
(0 0 0)
(0.0115876 0 -0.000156008)
(0.0220514 0 -0.000297244)
(0.031123 0 -0.000420267)
(0.0389163 0 -0.000526157)
(0.0455702 0 -0.000616075)
(0.0512105 0 -0.000690832)
(0.0559322 0 -0.000750138)
(0.059824 0 -0.000793149)
(0.0629752 0 -0.000819031)
(0.0654689 0 -0.000826562)
(0.0673766 0 -0.000813816)
(0.0687625 0 -0.000778452)
(0.0696908 0 -0.000717952)
(0.070224 0 -0.000629395)
(0.0704207 0 -0.000509331)
(0.0703396 0 -0.000354148)
(0.0700404 0 -0.000160147)
(0.0695847 0 7.62682e-05)
(0.069037 0 0.000358316)
(0.06846 0 0.000688425)
(0.0679206 0 0.0010675)
(0.0674885 0 0.00149435)
(0.0672554 0 0.00196175)
(0.067315 0 0.00245527)
(0.0677336 0 0.0029542)
(0.0685717 0 0.00342831)
(0.0698736 0 0.00383771)
(0.0716653 0 0.00412882)
(0.0739842 0 0.00423293)
(0.075045 0 0.00443276)
(0 0 0)
(0.0116922 0 -0.000176527)
(0.0222604 0 -0.00033655)
(0.0314364 0 -0.000476249)
(0.0393374 0 -0.000597087)
(0.0461106 0 -0.000700626)
(0.0518834 0 -0.000787865)
(0.0567482 0 -0.000858468)
(0.0608008 0 -0.00091186)
(0.0641383 0 -0.000947633)
(0.0668446 0 -0.000964654)
(0.0689937 0 -0.000961188)
(0.0706551 0 -0.000935194)
(0.0718967 0 -0.000884405)
(0.0727847 0 -0.00080626)
(0.0733833 0 -0.000697912)
(0.0737569 0 -0.000556445)
(0.0739709 0 -0.000379037)
(0.0740921 0 -0.000163186)
(0.0741895 0 9.29546e-05)
(0.0743325 0 0.000390072)
(0.0745936 0 0.000726921)
(0.0750402 0 0.00110042)
(0.0757531 0 0.00150168)
(0.0768087 0 0.00191409)
(0.0782478 0 0.00231538)
(0.080089 0 0.00267591)
(0.0823172 0 0.00295881)
(0.0848799 0 0.00311929)
(0.0877129 0 0.00310837)
(0.0891526 0 0.00319298)
(0 0 0)
(0.0118038 0 -0.000197244)
(0.0224824 0 -0.000376287)
(0.03177 0 -0.000533015)
(0.0397879 0 -0.000669292)
(0.0466894 0 -0.000787058)
(0.0526018 0 -0.000887441)
(0.0576188 0 -0.000970382)
(0.0618452 0 -0.00103577)
(0.0653818 0 -0.00108336)
(0.0683129 0 -0.00111219)
(0.0707165 0 -0.00112088)
(0.0726665 0 -0.0011078)
(0.0742347 0 -0.0010711)
(0.0754915 0 -0.00100878)
(0.0765062 0 -0.000918765)
(0.0773484 0 -0.000799039)
(0.0780888 0 -0.000647895)
(0.0787994 0 -0.000464172)
(0.0795539 0 -0.000247614)
(0.0804269 0 6.44172e-07)
(0.0814928 0 0.000277452)
(0.0828241 0 0.000577729)
(0.0844923 0 0.000891479)
(0.0865495 0 0.00120198)
(0.0890112 0 0.00148804)
(0.0918528 0 0.00172359)
(0.0949961 0 0.00187803)
(0.0982999 0 0.00191672)
(0.101587 0 0.00180794)
(0.103349 0 0.00178515)
(0 0 0)
(0.0119209 0 -0.000218113)
(0.0227149 0 -0.000416371)
(0.0321198 0 -0.000590429)
(0.040262 0 -0.000742597)
(0.0472978 0 -0.000875164)
(0.0533561 0 -0.000989424)
(0.0585352 0 -0.00108583)
(0.062945 0 -0.00116466)
(0.0666883 0 -0.0012258)
(0.0698523 0 -0.00126862)
(0.0725184 0 -0.00129218)
(0.0747644 0 -0.00129532)
(0.0766658 0 -0.00127679)
(0.0782971 0 -0.00123528)
(0.0797319 0 -0.0011696)
(0.0810444 0 -0.00107881)
(0.0823099 0 -0.000962488)
(0.0836051 0 -0.000820971)
(0.085008 0 -0.000655708)
(0.0865968 0 -0.000469674)
(0.0884486 0 -0.000267824)
(0.0906391 0 -5.69e-05)
(0.0932327 0 0.000152674)
(0.096263 0 0.000345667)
(0.099723 0 0.000504573)
(0.103551 0 0.000610376)
(0.107609 0 0.000642823)
(0.111658 0 0.000579634)
(0.115386 0 0.000400787)
(0.117471 0 0.000303328)
(0 0 0)
(0.0120422 0 -0.000239079)
(0.0229548 0 -0.000456685)
(0.0324811 0 -0.0006483)
(0.0407536 0 -0.000816765)
(0.0479283 0 -0.000964686)
(0.0541372 0 -0.00109355)
(0.0594856 0 -0.00120443)
(0.0640849 0 -0.001298)
(0.0680394 0 -0.00137426)
(0.0714401 0 -0.00143304)
(0.0743717 0 -0.0014739)
(0.0769153 0 -0.00149624)
(0.0791496 0 -0.00149946)
(0.0811523 0 -0.00148307)
(0.0830009 0 -0.00144684)
(0.0847731 0 -0.00139102)
(0.0865477 0 -0.00131654)
(0.0884047 0 -0.00122531)
(0.0904252 0 -0.0011205)
(0.0926898 0 -0.00100689)
(0.0952771 0 -0.000891095)
(0.0982649 0 -0.00078131)
(0.101713 0 -0.000687969)
(0.105644 0 -0.000623809)
(0.110037 0 -0.000600858)
(0.11481 0 -0.000627968)
(0.119784 0 -0.000709804)
(0.124629 0 -0.000850545)
(0.128868 0 -0.00106436)
(0.131451 0 -0.00118215)
(0 0 0)
(0.0121663 0 -0.000260075)
(0.0231989 0 -0.000497089)
(0.0328494 0 -0.000706469)
(0.0412574 0 -0.000891587)
(0.0485732 0 -0.00105528)
(0.0549354 0 -0.00119942)
(0.0604582 0 -0.00132567)
(0.0652498 0 -0.00143502)
(0.0694159 0 -0.00152776)
(0.0730531 0 -0.00160421)
(0.0762484 0 -0.00166444)
(0.0790853 0 -0.00170846)
(0.0816451 0 -0.00173639)
(0.0840081 0 -0.00174859)
(0.0862541 0 -0.00174584)
(0.0884632 0 -0.00172957)
(0.0907162 0 -0.00170207)
(0.0930948 0 -0.00166678)
(0.0956808 0 -0.00162852)
(0.0985551 0 -0.00159378)
(0.101796 0 -0.0015707)
(0.10548 0 -0.00156887)
(0.109664 0 -0.00159881)
(0.114364 0 -0.00167103)
(0.119558 0 -0.00179247)
(0.125167 0 -0.00196142)
(0.13101 0 -0.0021627)
(0.13671 0 -0.00236995)
(0.141626 0 -0.00258545)
(0.145301 0 -0.0026369)
(0 0 0)
(0.0122922 0 -0.000281029)
(0.0234462 0 -0.000537472)
(0.033222 0 -0.000764795)
(0.0417661 0 -0.000966762)
(0.0492243 0 -0.00114653)
(0.0557421 0 -0.0013066)
(0.0614398 0 -0.00144889)
(0.0664227 0 -0.00157477)
(0.0707989 0 -0.00168512)
(0.0746685 0 -0.00178059)
(0.078121 0 -0.00186183)
(0.0812415 0 -0.00192947)
(0.084113 0 -0.00198434)
(0.0868171 0 -0.00202763)
(0.0894349 0 -0.00206111)
(0.0920472 0 -0.00208732)
(0.0947349 0 -0.00210982)
(0.0975788 0 -0.00213342)
(0.100659 0 -0.00216443)
(0.104053 0 -0.00221078)
(0.107835 0 -0.00228204)
(0.112078 0 -0.00238917)
(0.116829 0 -0.00254325)
(0.122099 0 -0.00275421)
(0.127867 0 -0.00302782)
(0.134068 0 -0.00335855)
(0.140556 0 -0.00371807)
(0.146991 0 -0.00403687)
(0.152711 0 -0.00425444)
(0.159046 0 -0.00405321)
(0 0 0)
(0.0124197 0 -0.000302012)
(0.0236974 0 -0.00057797)
(0.033598 0 -0.000823361)
(0.0422754 0 -0.00104239)
(0.0498788 0 -0.00123869)
(0.0565544 0 -0.00141534)
(0.0624251 0 -0.00157435)
(0.0675984 0 -0.00171756)
(0.0721821 0 -0.00184644)
(0.0762783 0 -0.0019621)
(0.0799795 0 -0.00206573)
(0.0833713 0 -0.00215852)
(0.0865374 0 -0.002242)
(0.0895597 0 -0.00231816)
(0.0925188 0 -0.00238963)
(0.0954943 0 -0.00245996)
(0.0985652 0 -0.00253375)
(0.101809 0 -0.00261695)
(0.1053 0 -0.002717)
(0.10911 0 -0.00284298)
(0.113302 0 -0.00300551)
(0.117939 0 -0.00321688)
(0.123051 0 -0.00348871)
(0.12863 0 -0.00383203)
(0.134646 0 -0.00425744)
(0.141028 0 -0.00477132)
(0.147626 0 -0.00537385)
(0.154132 0 -0.0060587)
(0.160076 0 -0.00690256)
(0.172792 0 -0.00546977)
(0 0 0)
(0.00484129 0 0)
(0.00897083 0 0)
(0.0150982 0 0)
(0.0225681 0 0)
(0.0307499 0 0)
(0.0391097 0 0)
(0.0472418 0 0)
(0.0548613 0 0)
(0.0617814 0 0)
(0.0678883 0 0)
(0.0731195 0 0)
(0.0774543 0 0)
(0.080898 0 0)
(0.0834637 0 0)
(0.0851664 0 0)
(0.0860187 0 0)
(0.0860278 0 0)
(0.0851941 0 0)
(0.0835095 0 0)
(0.0809625 0 0)
(0.0775356 0 0)
(0.0731964 0 0)
(0.0679049 0 0)
(0.0616155 0 0)
(0.0542749 0 0)
(0.0458249 0 0)
(0.0362044 0 0)
(0.0253504 0 0)
(0.0131935 0 0)
(0 0 0)
(0.00219463 0 -0.0025296)
(0.00638927 0 -0.00239967)
(0.0104718 0 -0.00242122)
(0.0165166 0 -0.0024135)
(0.0238847 0 -0.00238903)
(0.0319481 0 -0.00234645)
(0.0401783 0 -0.00228305)
(0.0481799 0 -0.0022009)
(0.055675 0 -0.00210412)
(0.0624808 0 -0.00199721)
(0.0684834 0 -0.00188468)
(0.0736205 0 -0.00176964)
(0.0778737 0 -0.00165387)
(0.0812479 0 -0.00153932)
(0.0837549 0 -0.00142766)
(0.0854082 0 -0.00131989)
(0.0862192 0 -0.0012168)
(0.0861938 0 -0.00111825)
(0.0853315 0 -0.00102379)
(0.0836239 0 -0.000933235)
(0.081058 0 -0.000845372)
(0.0776141 0 -0.000760554)
(0.0732602 0 -0.000679244)
(0.0679572 0 -0.000599991)
(0.0616587 0 -0.000521572)
(0.05431 0 -0.000442862)
(0.0458528 0 -0.000362703)
(0.0362256 0 -0.000279804)
(0.025365 0 -0.000192628)
(0.0132012 0 -9.92829e-05)
(0 0 0)
(0.00699232 0 -0.00478313)
(0.0108077 0 -0.00469001)
(0.0148146 0 -0.00475235)
(0.0206591 0 -0.00475698)
(0.0277465 0 -0.00472021)
(0.0354638 0 -0.00464027)
(0.0433147 0 -0.00451642)
(0.0509357 0 -0.00435468)
(0.0580672 0 -0.00416401)
(0.0645367 0 -0.00395342)
(0.0702327 0 -0.00372969)
(0.0750976 0 -0.00350093)
(0.0791146 0 -0.00327264)
(0.082285 0 -0.00304685)
(0.0846188 0 -0.00282682)
(0.0861262 0 -0.00261433)
(0.0868143 0 -0.00241012)
(0.0866863 0 -0.00221483)
(0.0857394 0 -0.00202851)
(0.0839626 0 -0.00185008)
(0.0813397 0 -0.00167824)
(0.0778472 0 -0.0015121)
(0.0734517 0 -0.00135088)
(0.0681142 0 -0.0011934)
(0.0617873 0 -0.00103776)
(0.0544146 0 -0.000881388)
(0.0459359 0 -0.000722005)
(0.0362885 0 -0.000557085)
(0.0254081 0 -0.000383576)
(0.0132236 0 -0.000197721)
(0 0 0)
(0.0142257 0 -0.0068578)
(0.017659 0 -0.00684269)
(0.0216179 0 -0.00695948)
(0.0272004 0 -0.00699211)
(0.0338638 0 -0.00695147)
(0.0410409 0 -0.0068368)
(0.0483025 0 -0.00665507)
(0.0553296 0 -0.00641744)
(0.0618915 0 -0.00613803)
(0.0678307 0 -0.00583058)
(0.0730433 0 -0.00550395)
(0.0774772 0 -0.00516834)
(0.0811161 0 -0.00483302)
(0.0839603 0 -0.00450203)
(0.0860171 0 -0.00417951)
(0.0872905 0 -0.00386796)
(0.0877818 0 -0.00356774)
(0.0874893 0 -0.0032802)
(0.0864055 0 -0.00300608)
(0.0845146 0 -0.00274346)
(0.0817972 0 -0.00249087)
(0.0782266 0 -0.00224628)
(0.073765 0 -0.00200801)
(0.0683713 0 -0.00177501)
(0.061998 0 -0.00154431)
(0.0545861 0 -0.00131207)
(0.0460721 0 -0.00107508)
(0.0363915 0 -0.000829703)
(0.0254787 0 -0.00057139)
(0.0132601 0 -0.000294573)
(0 0 0)
(0.0234047 0 -0.0088414)
(0.0265303 0 -0.0088883)
(0.0304549 0 -0.00905214)
(0.0357265 0 -0.00910896)
(0.0418553 0 -0.00906228)
(0.0483515 0 -0.00891346)
(0.0548665 0 -0.00867584)
(0.0611322 0 -0.00836592)
(0.0669584 0 -0.00800334)
(0.0722055 0 -0.00760526)
(0.0767799 0 -0.00718332)
(0.0806422 0 -0.00674873)
(0.0837811 0 -0.00631331)
(0.0861963 0 -0.00588494)
(0.0878874 0 -0.00546777)
(0.0888513 0 -0.00506478)
(0.0890831 0 -0.00467724)
(0.088573 0 -0.00430544)
(0.087306 0 -0.00394912)
(0.0852623 0 -0.00360701)
(0.0824177 0 -0.00327707)
(0.078741 0 -0.0029574)
(0.074189 0 -0.00264603)
(0.0687188 0 -0.00234029)
(0.0622835 0 -0.00203688)
(0.0548194 0 -0.00173124)
(0.0462573 0 -0.00141892)
(0.0365314 0 -0.00109536)
(0.0255744 0 -0.000754503)
(0.0133096 0 -0.000389036)
(0 0 0)
(0.0341729 0 -0.0107843)
(0.0370295 0 -0.0108543)
(0.0409116 0 -0.0110461)
(0.0458236 0 -0.0111108)
(0.0513337 0 -0.0110473)
(0.0570509 0 -0.0108607)
(0.0627017 0 -0.0105666)
(0.0680771 0 -0.010186)
(0.0730334 0 -0.00974379)
(0.0774526 0 -0.00925941)
(0.0812644 0 -0.00874775)
(0.0844503 0 -0.00822338)
(0.0869994 0 -0.00769841)
(0.0889053 0 -0.0071822)
(0.0901595 0 -0.0066795)
(0.0907521 0 -0.00619355)
(0.0906704 0 -0.00572625)
(0.0898965 0 -0.00527731)
(0.0884078 0 -0.00484562)
(0.0861788 0 -0.00443017)
(0.0831793 0 -0.00402881)
(0.0793724 0 -0.00363986)
(0.0747123 0 -0.00326029)
(0.0691512 0 -0.00288564)
(0.0626393 0 -0.00251287)
(0.0551102 0 -0.0021371)
(0.0464881 0 -0.00175242)
(0.0367056 0 -0.00135322)
(0.0256934 0 -0.000932318)
(0.013371 0 -0.000480801)
(0 0 0)
(0.046203 0 -0.0126858)
(0.0488011 0 -0.0127472)
(0.0526001 0 -0.0129448)
(0.0570964 0 -0.0129982)
(0.0619208 0 -0.0129035)
(0.066784 0 -0.0126701)
(0.071482 0 -0.0123154)
(0.0758697 0 -0.0118635)