/*--------------------------------*- C++ -*----------------------------------*\
| =========                 |                                                 |
| \\      /  F ield         | OpenFOAM: The Open Source CFD Toolbox           |
|  \\    /   O peration     | Version:  dev                                   |
|   \\  /    A nd           | Web:      www.OpenFOAM.org                      |
|    \\/     M anipulation  |                                                 |
\*---------------------------------------------------------------------------*/
FoamFile
{
    version     2.0;
    format      ascii;
    class       volVectorField;
    location    "2.06";
    object      U;
}
// * * * * * * * * * * * * * * * * * * * * * * * * * * * * * * * * * * * * * //

dimensions      [0 1 -1 0 0 0 0];

internalField   nonuniform List<vector> 
465
(
(1.02375 -3.55615e-21 -0.0137161)
(1.07323 0 -0.012654)
(1.11527 2.87434e-21 -0.0112406)
(1.15006 9.50484e-22 -0.00953586)
(1.17709 -4.68608e-22 -0.0070175)
(1.19445 4.59891e-22 -0.00357056)
(1.20111 0 -0.00024911)
(1.19884 0 0.00203649)
(1.19047 -3.27213e-22 0.00392212)
(1.17654 3.2203e-22 0.00644864)
(1.15588 -2.09517e-21 0.00906957)
(1.12943 1.07923e-22 0.0101617)
(1.10245 1.01803e-21 0.00856484)
(1.08301 0 0.00410695)
(1.07979 0 -0.00350675)
(1.10135 0 -0.0151984)
(1.1544 0 -0.0299426)
(1.24177 1.86171e-23 -0.0455112)
(1.36228 -1.83351e-23 -0.0603987)
(1.54401 -3.14009e-22 -0.0688887)
(1.07557 3.50456e-21 -0.0423642)
(1.11513 7.46118e-21 -0.0383945)
(1.14665 -1.1465e-20 -0.0338953)
(1.17106 -9.63409e-21 -0.0291215)
(1.18903 -5.72939e-21 -0.0224912)
(1.19971 -1.78834e-21 -0.0133908)
(1.20173 1.75787e-21 -0.00469563)
(1.19576 -7.08252e-21 0.00100612)
(1.18453 7.37698e-22 0.00563377)
(1.1697 5.5539e-22 0.0127125)
(1.1478 9.9156e-22 0.0209393)
(1.11606 5.94298e-22 0.0253502)
(1.07871 -1.07638e-21 0.0225742)
(1.04209 -9.56362e-23 0.0126385)
(1.01076 -1.22124e-22 -0.00252008)
(0.978102 0 -0.0237958)
(0.953376 1.18595e-21 -0.0507485)
(0.951643 4.13294e-23 -0.0800458)
(0.989567 -4.0734e-23 -0.114105)
(1.10178 9.19802e-22 -0.149999)
(0.788665 0 -0.065009)
(0.792156 -7.37536e-21 -0.0576878)
(0.786396 2.29885e-20 -0.0500916)
(0.772756 7.65628e-21 -0.0432312)
(0.752864 1.136e-20 -0.0339153)
(0.727026 -1.91724e-21 -0.0196373)
(0.692576 -3.46014e-21 -0.00582471)
(0.647326 1.57825e-21 0.000719972)
(0.592421 0 0.0035192)
(0.526955 4.97526e-21 0.0124147)
(0.447267 4.50891e-22 0.0292067)
(0.346385 2.69621e-21 0.0463475)
(0.227282 1.90735e-22 0.0556025)
(0.101835 -1.88599e-22 0.0536657)
(-0.00804433 1.23148e-22 0.0412394)
(-0.062043 6.03852e-23 0.0180265)
(-0.101957 -2.36132e-21 -0.0271201)
(-0.070758 -8.27022e-23 -0.10662)
(0.0534251 0 -0.211639)
(0.214604 -6.09819e-22 -0.318255)
(0.42749 -7.4843e-21 -0.0717787)
(0.385658 -1.50883e-20 -0.0601266)
(0.333642 -3.08261e-20 -0.0485644)
(0.270581 0 -0.0402596)
(0.197934 1.55821e-20 -0.031417)
(0.120749 1.52152e-20 -0.0124024)
(0.019654 -1.43644e-20 0.0182486)
(-0.133958 6.39447e-21 0.0510497)
(-0.343397 0 0.07591)
(-0.536317 5.08819e-21 0.0954565)
(-0.663438 -9.26347e-21 0.114148)
(-0.748915 -2.20651e-21 0.126586)
(-0.816943 0 0.123702)
(-0.86358 0 0.0990927)
(-0.875749 0 0.0506696)
(-0.843042 0 -0.0213887)
(-0.756498 1.17871e-21 -0.12008)
(-0.634277 0 -0.236563)
(-0.513245 -1.87274e-21 -0.354598)
(-0.440402 -2.35634e-23 -0.454268)
(0.00346781 2.80308e-20 -0.0578636)
(-0.0959738 1.49938e-20 -0.0401753)
(-0.215061 -3.13596e-22 -0.0166621)
(-0.370189 0 0.0081238)
(-0.561979 -2.71586e-20 0.0333869)
(-0.742605 1.86135e-22 0.0662738)
(-0.870555 1.04628e-20 0.105611)
(-0.967804 0 0.136575)
(-1.06768 0 0.147789)
(-1.17127 -8.74811e-21 0.144941)
(-1.25741 6.1848e-21 0.140075)
(-1.3144 2.34362e-22 0.132994)
(-1.33967 -3.91272e-21 0.112155)
(-1.33312 -2.64091e-21 0.0674822)
(-1.29642 7.2615e-24 -0.00395443)
(-1.23547 -7.18305e-24 -0.0991339)
(-1.15197 0 -0.209093)
(-1.07329 1.66975e-21 -0.324403)
(-1.02009 6.11178e-22 -0.429518)
(-1.0039 4.27068e-22 -0.503651)
(-0.554211 2.81664e-20 0.00371917)
(-0.736671 1.47222e-20 0.0311244)
(-0.893724 1.543e-20 0.0583268)
(-1.02294 0 0.0812044)
(-1.14151 -3.41776e-22 0.0972237)
(-1.25675 -1.87266e-20 0.113124)
(-1.35871 3.65407e-21 0.137863)
(-1.44176 1.33351e-20 0.165088)
(-1.51191 -1.19283e-20 0.178797)
(-1.57463 0 0.174576)
(-1.62454 0 0.158911)
(-1.65359 0 0.133986)
(-1.6579 4.07061e-21 0.0938504)
(-1.63925 3.09759e-21 0.0321807)
(-1.60361 1.58326e-21 -0.0522944)
(-1.55841 -2.48986e-22 -0.155124)
(-1.51039 4.88431e-22 -0.266647)
(-1.47374 -1.65949e-21 -0.37546)
(-1.45878 1.30108e-21 -0.468756)
(-1.46073 -4.27435e-22 -0.528809)
(-1.03384 -5.84199e-20 0.077382)
(-1.16793 0 0.0924613)
(-1.29044 -7.95388e-21 0.107526)
(-1.40141 -1.02306e-22 0.124686)
(-1.50235 2.33454e-20 0.141184)
(-1.59492 -3.09778e-20 0.156764)
(-1.67676 -1.82166e-20 0.174516)
(-1.74364 -9.73507e-21 0.191499)
(-1.79705 2.40959e-20 0.19841)
(-1.83984 -1.21857e-21 0.189795)
(-1.87133 1.03755e-20 0.166737)
(-1.88846 7.79006e-22 0.130007)
(-1.89014 -1.32502e-21 0.0768555)
(-1.87889 7.21183e-22 0.00444149)
(-1.85929 -1.66157e-21 -0.0868496)
(-1.8357 1.39604e-21 -0.192194)
(-1.81529 -5.65556e-22 -0.302556)
(-1.80596 8.14979e-24 -0.406145)
(-1.81217 0 -0.490426)
(-1.82279 0 -0.540545)
(-1.33479 5.89712e-20 0.137368)
(-1.45375 -1.51542e-20 0.148617)
(-1.56137 0 0.159428)
(-1.65762 0 0.170839)
(-1.74352 0 0.182574)
(-1.82021 3.06429e-20 0.194578)
(-1.88628 1.45631e-20 0.206666)
(-1.93981 0 0.215407)
(-1.98149 -1.218e-20 0.214586)
(-2.01359 0 0.199962)
(-2.03715 6.56494e-22 0.170795)
(-2.05194 -8.60179e-22 0.126748)
(-2.05849 -5.55725e-21 0.0662184)
(-2.05904 0 -0.0120166)
(-2.05638 -6.71564e-21 -0.10665)
(-2.05255 -1.18982e-21 -0.212535)
(-2.05389 -2.09688e-23 -0.321088)
(-2.06468 2.07303e-23 -0.420588)
(-2.08533 0 -0.498345)
(-2.10152 0 -0.541872)
(-1.54335 3.15472e-20 0.19968)
(-1.64983 1.63929e-20 0.204539)
(-1.74396 1.76176e-20 0.2093)
(-1.82635 -3.40193e-20 0.214757)
(-1.89815 0 0.221063)
(-1.9603 3.27236e-20 0.227979)
(-2.01257 3.12254e-20 0.23425)
(-2.0546 0 0.236381)
(-2.08731 2.36765e-20 0.229526)
(-2.11285 2.70423e-20 0.210187)
(-2.13307 -1.08631e-20 0.176987)
(-2.14915 1.1503e-21 0.129059)
(-2.16251 6.7518e-21 0.0651423)
(-2.17513 -8.97623e-23 -0.0154188)
(-2.18864 6.40169e-21 -0.111011)
(-2.20349 6.35443e-21 -0.216485)
(-2.22366 -4.59745e-21 -0.323423)
(-2.25124 -3.64198e-21 -0.420356)
(-2.28335 6.08558e-24 -0.494198)
(-2.30389 -6.13426e-24 -0.53375)
(-1.68049 -3.12986e-20 0.261384)
(-1.77347 0 0.258631)
(-1.85347 -2.48231e-20 0.256256)
(-1.92145 2.51657e-20 0.255206)
(-1.97865 0 0.255799)
(-2.02642 -3.24484e-20 0.257535)
(-2.06561 -5.96979e-20 0.258615)
(-2.09692 -2.29831e-22 0.255627)
(-2.12167 -5.83632e-20 0.244542)
(-2.14201 -2.23829e-20 0.222357)
(-2.16024 -2.69825e-21 0.187454)
(-2.17838 1.24795e-21 0.138666)
(-2.19848 0 0.0747333)
(-2.22263 0 -0.00505703)
(-2.25184 0 -0.0994473)
(-2.28547 -6.33416e-21 -0.203768)
(-2.32359 4.71456e-21 -0.309502)
(-2.3668 3.50668e-21 -0.405626)
(-2.4093 0 -0.478298)
(-2.43388 0 -0.516113)
(-1.75356 0 0.320556)
(-1.83209 0 0.309453)
(-1.89695 3.7185e-20 0.299349)
(-1.9493 0 0.291357)
(-1.99092 0 0.286119)
(-2.02384 0 0.283104)
(-2.04985 2.18618e-21 0.280145)
(-2.07042 -4.00816e-21 0.273747)
(-2.08712 2.80538e-20 0.260302)
(-2.10203 0 0.237216)
(-2.11767 2.41847e-20 0.202921)
(-2.13673 0 0.156164)
(-2.16195 4.88817e-22 0.0955656)
(-2.19584 -2.84461e-22 0.0199696)
(-2.23947 -3.60754e-22 -0.0703674)
(-2.29196 1.01617e-20 -0.17213)
(-2.34979 8.36944e-21 -0.277726)
(-2.40939 2.07632e-23 -0.374994)
(-2.46298 -2.05841e-23 -0.4497)
(-2.49202 2.01204e-21 -0.488202)
(-1.76626 0 0.375804)
(-1.82913 1.90159e-20 0.355809)
(-1.87786 -1.04736e-19 0.337436)
(-1.91356 4.89348e-20 0.322156)
(-1.93859 -9.32487e-21 0.311216)
(-1.95601 9.21437e-21 0.304269)
(-1.96849 -2.1063e-21 0.298729)
(-1.97781 0 0.290717)
(-1.98551 0 0.27672)
(-1.99344 0 0.254538)
(-2.00421 1.80314e-21 0.222958)
(-2.02108 2.20203e-20 0.180914)
(-2.04767 6.30692e-22 0.126953)
(-2.08738 1.12972e-22 0.0593077)
(-2.14232 -1.59078e-22 -0.0232525)
(-2.21211 -9.98949e-21 -0.119718)
(-2.29219 -8.29244e-21 -0.224653)
(-2.37128 8.34483e-21 -0.325433)
(-2.43781 6.19184e-21 -0.405945)
(-2.47237 -2.01267e-21 -0.448442)
(-1.71916 -1.98373e-20 0.425521)
(-1.76501 6.1105e-20 0.396569)
(-1.79652 7.11645e-20 0.369589)
(-1.81436 -7.11668e-20 0.346657)
(-1.82155 -9.87242e-21 0.330242)
(-1.82255 9.75958e-21 0.320513)
(-1.82099 3.59494e-20 0.31409)
(-1.8183 -3.62112e-20 0.306119)
(-1.81526 0 0.292978)
(-1.81318 1.77423e-21 0.273049)
(-1.8147 7.90406e-22 0.245858)
(-1.8237 7.55329e-22 0.210865)
(-1.8448 0 0.166775)
(-1.88277 0 0.1114)
(-1.94167 -5.22451e-23 0.0419762)
(-2.02341 5.18652e-23 -0.0437281)
(-2.12464 -7.73179e-23 -0.144503)
(-2.23143 -8.28241e-21 -0.251193)
(-2.31395 -6.16534e-21 -0.342138)
(-2.3543 -1.85095e-23 -0.393522)
(-1.60808 -2.13051e-20 0.468028)
(-1.63508 -9.44973e-21 0.431154)
(-1.64771 -6.3561e-20 0.395467)
(-1.64557 4.18148e-20 0.364151)
(-1.6326 -2.79936e-20 0.34237)
(-1.61566 -5.18673e-21 0.331581)
(-1.59952 -4.81096e-21 0.326481)
(-1.58447 4.08582e-20 0.319911)
(-1.56845 2.08649e-21 0.308139)
(-1.55171 -2.06801e-21 0.290812)
(-1.53684 -2.75106e-20 0.268814)
(-1.52862 -4.94987e-20 0.242555)
(-1.53293 2.16441e-20 0.211168)
(-1.55612 0 0.17246)
(-1.60464 0 0.12282)
(-1.68398 0 0.0569982)
(-1.79515 -1.20921e-20 -0.0299045)
(-1.92552 0 -0.136583)
(-2.03753 8.6178e-21 -0.246591)
(-2.08057 0 -0.317134)
(-1.41855 -1.14391e-20 0.509582)
(-1.4245 5.92863e-20 0.463221)
(-1.41597 0 0.415484)
(-1.38998 0 0.372521)
(-1.35206 4.37797e-20 0.345156)
(-1.31436 -5.3732e-21 0.336547)
(-1.28386 7.87931e-21 0.335907)
(-1.25699 -2.53623e-21 0.331052)
(-1.22708 3.71256e-20 0.31875)
(-1.19072 1.10146e-21 0.301705)
(-1.15001 0 0.283474)
(-1.11088 2.54216e-20 0.266005)
(-1.0808 -4.35462e-20 0.248847)
(-1.06785 -3.14932e-22 0.22979)
(-1.08104 -4.52964e-22 0.205109)
(-1.12965 1.35449e-20 0.168267)
(-1.22063 -5.57393e-22 0.109229)
(-1.34829 -1.15543e-20 0.0177552)
(-1.46781 -8.86572e-21 -0.104439)
(-1.51402 -8.70066e-21 -0.21499)
(-1.00669 3.21426e-20 0.522494)
(-1.01225 -1.18944e-20 0.486889)
(-1.01309 -4.65458e-20 0.443608)
(-0.998852 5.92992e-21 0.395208)
(-0.96291 5.59371e-20 0.355602)
(-0.910198 -5.74192e-21 0.342481)
(-0.857067 5.68265e-21 0.353606)
(-0.817499 4.44463e-20 0.364486)
(-0.783816 -4.29176e-20 0.359084)
(-0.742933 -3.62103e-20 0.340503)
(-0.689502 5.09854e-22 0.318251)
(-0.61981 -3.2666e-20 0.299949)
(-0.536467 -2.4832e-20 0.289057)
(-0.449805 2.00871e-20 0.284946)
(-0.370063 6.09677e-22 0.286268)
(-0.310993 -1.36422e-20 0.29134)
(-0.286227 -1.53347e-21 0.293223)
(-0.309504 1.19154e-20 0.275741)
(-0.384329 2.41609e-20 0.214875)
(-0.459838 -1.22846e-22 0.08433)
(-0.405091 8.53719e-21 -0.108939)
(1.62845 -3.31381e-20 0.879785)
(1.27381 1.13191e-20 0.772664)
(0.991822 0 0.679743)
(0.766412 6.3421e-21 0.588063)
(0.555225 -1.03067e-19 0.488894)
(0.317892 -6.07008e-21 0.395516)
(0.135142 2.96632e-21 0.345302)
(0.0698252 -4.36534e-20 0.330359)
(0.0782564 4.15584e-20 0.315819)
(0.125486 0 0.290886)
(0.189836 3.67159e-20 0.259425)
(0.262181 3.05165e-20 0.231734)
(0.350997 2.57752e-20 0.218615)
(0.462835 0 0.225307)
(0.595095 0 0.253028)
(0.737392 1.24933e-20 0.300293)
(0.873748 -1.04275e-20 0.36013)
(0.984153 -9.38357e-21 0.414792)
(1.05761 -1.16448e-20 0.429683)
(1.13065 1.40955e-22 0.355378)
(1.34052 1.1337e-20 0.192524)
(5.2686 2.93123e-21 1.43598)
(4.90887 3.99966e-20 1.2847)
(4.59181 4.94855e-20 1.15171)
(4.30903 4.47004e-20 1.0361)
(4.0621 0 0.934816)
(3.85811 -1.35089e-21 0.843086)
(3.69474 -3.95952e-20 0.758138)
(3.56415 0 0.680247)
(3.45787 -6.84049e-20 0.611204)
(3.37028 0 0.552982)
(3.29851 1.37722e-21 0.506474)
(3.2406 -1.96757e-20 0.472211)
(3.19692 0 0.452886)
(3.17377 9.35268e-21 0.453836)
(3.18236 0 0.477941)
(3.23625 1.71483e-20 0.514877)
(3.35058 0 0.527602)
(3.60302 0 0.486453)
(3.90979 -1.08577e-20 0.41954)
(8.41401 -2.50487e-21 1.75492)
(8.15932 -4.21e-20 1.60758)
(7.93469 2.49356e-21 1.47611)
(7.74021 0 1.35799)
(7.57332 3.80118e-20 1.25167)
(7.42896 4.08102e-21 1.15721)
(7.30272 1.83244e-22 1.07558)
(7.19173 -2.97963e-21 1.00783)
(7.09461 1.94018e-20 0.954812)
(7.01117 1.94092e-20 0.917461)
(6.94295 1.24414e-21 0.89655)
(6.89486 -1.09113e-20 0.8913)
(6.87703 7.09983e-21 0.896804)
(6.902 -7.14146e-21 0.899765)
(7.00892 -1.79802e-20 0.879155)
(7.17019 -6.31283e-22 0.828547)
(7.33017 0 0.785237)
(11.0325 -1.79566e-20 2.04243)
(10.8576 3.48011e-21 1.89466)
(10.7008 -3.46243e-21 1.76126)
(10.5607 3.27775e-21 1.64156)
(10.4355 -3.26141e-21 1.53591)
(10.3234 2.83857e-20 1.44532)
(10.2238 -1.53419e-20 1.37076)
(10.1369 -1.81375e-20 1.31284)
(10.0642 6.96737e-21 1.27158)
(10.0089 0 1.246)
(9.97678 -6.99563e-22 1.23296)
(9.97462 -5.84028e-21 1.22526)
(10.0089 1.56942e-21 1.2093)
(10.0841 2.67503e-20 1.17519)
(10.1633 9.4033e-23 1.13201)
(10.2556 -9.2989e-23 1.10811)
(12.7284 -7.77038e-21 2.0509)
(12.6254 -4.35209e-23 1.92608)
(12.5303 9.71026e-21 1.81598)
(12.4431 0 1.72151)
(12.3648 7.04737e-21 1.64333)
(12.2968 2.2147e-21 1.5815)
(12.2416 -7.0556e-21 1.53523)
(12.2024 -7.46282e-22 1.50239)
(12.183 -3.88525e-22 1.47894)
(12.186 -1.65601e-22 1.45823)
(12.2148 7.56652e-22 1.43277)
(12.2535 -1.27111e-20 1.40067)
(12.297 -1.22951e-21 1.37186)
(12.352 0 1.35892)
(13.8789 -6.09232e-21 2.00426)
(13.8199 -6.79335e-21 1.90906)
(13.766 4.65756e-21 1.82897)
(13.7192 3.28032e-22 1.76371)
(13.6819 -3.26675e-22 1.71216)
(13.6566 -5.4347e-21 1.67209)
(13.6452 4.85695e-21 1.63997)
(13.6484 4.99624e-22 1.61122)
(13.6643 2.03183e-21 1.5828)
(13.6855 2.44858e-21 1.55536)
(13.7106 1.17868e-21 1.53401)
(13.7445 2.75116e-21 1.52431)
(14.6414 3.45423e-21 2.024)
(14.611 3.06834e-21 1.94378)
(14.5843 0 1.87661)
(14.5634 0 1.82142)
(14.5502 5.23118e-21 1.77638)
(14.5455 5.91135e-21 1.73896)
(14.5493 0 1.70653)
(14.5595 -2.89481e-21 1.67773)
(14.5727 -1.03949e-20 1.65312)
(14.5887 6.93865e-21 1.63526)
(14.6112 -2.51627e-21 1.62666)
(15.0581 0 1.93682)
(15.0519 -2.22186e-20 1.87994)
(15.0496 1.57089e-20 1.83224)
(15.0518 -6.63011e-21 1.79209)
(15.0585 -1.37592e-20 1.75805)
(15.0682 -2.20941e-20 1.72939)
(15.0797 2.6365e-20 1.70633)
(15.0928 -6.52807e-21 1.69008)
(15.1114 0 1.68165)
(15.2827 3.36498e-20 1.90195)
(15.2906 -2.55838e-20 1.85348)
(15.3003 -2.75234e-20 1.81241)
(15.3119 1.33256e-20 1.77796)
(15.3248 2.14008e-20 1.74968)
(15.3384 5.92363e-21 1.72757)
(15.3531 1.39793e-20 1.7121)
(15.3731 2.76275e-22 1.7036)
(15.3919 2.16481e-20 1.80946)
(15.4098 1.84179e-20 1.77535)
(15.4279 4.60659e-21 1.74762)
(15.4463 -4.84361e-20 1.72617)
(15.4651 -1.34823e-20 1.71113)
(15.4899 -7.45705e-21 1.70258)
(15.4201 -8.64984e-21 1.75648)
(15.4446 0 1.72952)
(15.469 2.77538e-20 1.70869)
(15.4934 -1.4848e-21 1.69402)
(15.5252 6.90324e-21 1.68552)
(15.447 0 1.67916)
(15.4779 0 1.66492)
(15.5176 0 1.6566)
(15.4407 -2.63549e-20 1.62615)
(15.4888 1.04551e-21 1.6181)
(15.4498 -1.25073e-20 1.57119)
)
;

boundaryField
{
    inlet
    {
        type            fixedValue;
        value           nonuniform 0();
    }
    outlet
    {
        type            zeroGradient;
    }
    flap
    {
        type            movingWallVelocity;
        value           nonuniform 0();
    }
    upperWall
    {
        type            noSlip;
    }
    lowerWall
    {
        type            noSlip;
    }
    frontAndBack
    {
        type            empty;
    }
    procBoundary5to2
    {
        type            processor;
        value           nonuniform List<vector> 
34
(
(6.14333 -1.97583e-20 1.8002)
(5.67876 2.77288e-21 1.60662)
(5.67876 2.77288e-21 1.60662)
(9.01316 1.13333e-21 2.10322)
(8.69846 7.00549e-20 1.91994)
(8.69846 7.00549e-20 1.91994)
(11.2252 0 2.20571)
(11.2252 0 2.20571)
(12.9579 -1.70318e-20 2.34262)
(12.8393 1.85609e-21 2.1898)
(12.8393 1.85609e-21 2.1898)
(14.0062 9.22195e-21 2.2382)
(13.9414 -3.21465e-22 2.11421)
(13.9414 -3.21465e-22 2.11421)
(14.6735 2.28505e-20 2.1176)
(14.6735 2.28505e-20 2.1176)
(15.0766 0 2.08286)
(15.0669 -2.87036e-20 2.00419)
(15.0669 -2.87036e-20 2.00419)
(15.276 -3.46763e-20 1.95879)
(15.276 -3.46763e-20 1.95879)
(15.3569 5.6039e-20 1.89807)
(15.3744 -3.27911e-20 1.85023)
(15.3744 -3.27911e-20 1.85023)
(15.3952 1.37455e-20 1.78972)
(15.3952 1.37455e-20 1.78972)
(15.3845 -2.45535e-20 1.72525)
(15.416 -6.43284e-21 1.69927)
(15.416 -6.43284e-21 1.69927)
(15.4031 0 1.63986)
(15.4031 0 1.63986)
(15.3933 -5.3173e-20 1.57891)
(15.3933 -5.3173e-20 1.57891)
(15.4059 -1.10184e-20 1.51643)
)
;
    }
    procBoundary5to4
    {
        type            processor;
        value           nonuniform List<vector> 
18
(
(0.96781 0 -0.0141733)
(1.0278 6.50896e-21 -0.0450967)
(0.774943 -6.42273e-21 -0.0706853)
(0.457464 7.55566e-21 -0.0814693)
(0.0874906 1.40313e-20 -0.0714496)
(-0.379806 -1.36888e-20 -0.0223877)
(-0.885818 2.67995e-20 0.0577802)
(-1.20389 -1.39192e-20 0.124721)
(-1.42463 5.77576e-20 0.193707)
(-1.57392 -1.37058e-20 0.263169)
(-1.66079 -3.06343e-20 0.331454)
(-1.68889 0 0.396427)
(-1.65915 1.96204e-20 0.455986)
(-1.56838 -5.79426e-20 0.506742)
(-1.4032 4.49652e-20 0.55632)
(-1.4032 4.49652e-20 0.55632)
(-1.00047 1.06407e-20 0.556155)
(2.06917 -3.14186e-20 1.0168)
)
;
    }
}


// ************************************************************************* //
