/*--------------------------------*- C++ -*----------------------------------*\
| =========                 |                                                 |
| \\      /  F ield         | OpenFOAM: The Open Source CFD Toolbox           |
|  \\    /   O peration     | Version:  dev                                   |
|   \\  /    A nd           | Web:      www.OpenFOAM.org                      |
|    \\/     M anipulation  |                                                 |
\*---------------------------------------------------------------------------*/
FoamFile
{
    version     2.0;
    format      ascii;
    class       surfaceScalarField;
    location    "0.2";
    object      phi;
}
// * * * * * * * * * * * * * * * * * * * * * * * * * * * * * * * * * * * * * //

dimensions      [0 3 -1 0 0 0 0];

internalField   nonuniform List<scalar> 
5457
(
0.198418
0.00158042
0.196547
0.00187087
0.194355
0.00219081
0.191806
0.00254888
0.188897
0.00290949
0.185629
0.00326886
0.181996
0.00363392
0.177987
0.00401037
0.173587
0.0044009
0.168783
0.00480608
0.163559
0.00522482
0.157906
0.00565469
0.151815
0.00609226
0.145282
0.00653361
0.138307
0.00697488
0.130895
0.0074126
0.123051
0.00784369
0.114786
0.0082649
0.106113
0.00867195
0.0970541
0.00905843
0.0876384
0.00941473
0.07791
0.00972744
0.0679297
0.00997947
0.0577776
0.0101513
0.0475536
0.0102235
0.0373722
0.010181
0.0273535
0.0100184
0.0176103
0.00974307
0.00821581
0.00939447
0.0082158
0.199972
0.00160734
0.199282
0.00255948
0.198175
0.00329742
0.19668
0.00404351
0.194793
0.00479687
0.19251
0.00555325
0.18982
0.00632404
0.186711
0.00712109
0.183161
0.00795183
0.179149
0.00881969
0.174651
0.00972467
0.169643
0.0106636
0.164106
0.0116304
0.158023
0.0126172
0.151384
0.013615
0.144182
0.0146149
0.136417
0.0156077
0.128098
0.0165843
0.119235
0.0175337
0.109851
0.0184418
0.0999756
0.0192894
0.0896505
0.0200515
0.0789323
0.0206968
0.0678926
0.0211903
0.0566186
0.021497
0.04521
0.0215893
0.033772
0.0214562
0.0224034
0.0211116
0.01115
0.0206478
0.0193658
0.199822
0.00178413
0.19919
0.00319093
0.198148
0.00433874
0.196744
0.00544673
0.194984
0.00655796
0.19286
0.00767756
0.190365
0.00882018
0.187484
0.0100029
0.184198
0.0112388
0.180484
0.0125357
0.176314
0.0138965
0.171659
0.0153191
0.166494
0.0167969
0.160793
0.0183194
0.154534
0.0198736
0.147704
0.0214457
0.14029
0.0230211
0.132289
0.0245852
0.123701
0.0261213
0.114533
0.0276088
0.1048
0.0290215
0.0945256
0.030325
0.0837444
0.0314771
0.0725051
0.0324288
0.0608715
0.0331301
0.0489232
0.0335371
0.0367546
0.0336245
0.0244725
0.0333936
0.0121764
0.0329438
0.0315422
0.19974
0.00204328
0.199107
0.00382228
0.198084
0.00536153
0.196704
0.00682681
0.194977
0.00828478
0.192901
0.00975454
0.190467
0.011255
0.187664
0.0128075
0.184474
0.01443
0.180876
0.0161351
0.176845
0.017929
0.172354
0.0198115
0.167375
0.0217763
0.161884
0.0238118
0.155855
0.0259028
0.149269
0.028032
0.142108
0.0301817
0.13436
0.0323335
0.126013
0.0344674
0.117062
0.0365594
0.107504
0.0385787
0.0973425
0.0404851
0.086591
0.0422277
0.075274
0.0437451
0.0634339
0.0449697
0.0511364
0.0458343
0.0384776
0.046283
0.025596
0.0462751
0.0126858
0.0458541
0.0442279
0.199701
0.00234067
0.199061
0.00446156
0.198055
0.00636693
0.196701
0.00818067
0.19501
0.00997618
0.19298
0.0117854
0.190603
0.0136327
0.187868
0.0155437
0.184758
0.0175407
0.181255
0.0196403
0.177333
0.0218523
0.172967
0.0241783
0.168132
0.0266129
0.1628
0.029144
0.156948
0.0317551
0.150553
0.0344273
0.143594
0.0371414
0.136049
0.0398776
0.127901
0.0426152
0.11913
0.0453295
0.109719
0.0479887
0.0996542
0.0505494
0.0889268
0.0529542
0.0775414
0.0551298
0.0655232
0.0569874
0.0529299
0.0584272
0.0398669
0.0593459
0.0265056
0.0596362
0.0131053
0.0592543
0.0573332
0.199685
0.0026544
0.199043
0.00510294
0.198058
0.00735113
0.196738
0.00950034
0.195091
0.0116231
0.193117
0.0137604
0.190807
0.0159431
0.188151
0.0182007
0.185134
0.0205597
0.181735
0.0230407
0.177932
0.0256564
0.173701
0.028411
0.169015
0.0312997
0.163849
0.0343107
0.158178
0.0374271
0.151975
0.0406298
0.145217
0.0438996
0.137877
0.0472177
0.129927
0.050565
0.121336
0.0539193
0.112074
0.0572505
0.102107
0.0605154
0.0914077
0.0636524
0.0799604
0.0665763
0.0677725
0.0691748
0.0548921
0.0713073
0.0414287
0.072809
0.0275749
0.0734899
0.0136237
0.0732054
0.070957
0.199681
0.00297233
0.199044
0.00573809
0.198085
0.00830954
0.196806
0.0107792
0.195213
0.0132168
0.193304
0.0156697
0.191073
0.0181745
0.18851
0.0207649
0.1856
0.0234715
0.182323
0.0263185
0.178659
0.029322
0.174583
0.0324881
0.17007
0.0358137
0.165094
0.0392875
0.159629
0.0428931
0.153647
0.0466124
0.147119
0.0504276
0.140013
0.0543232
0.132293
0.0582843
0.123918
0.0622938
0.114841
0.0663272
0.10501
0.070345
0.0943772
0.0742847
0.0829009
0.078052
0.0705645
0.0815107
0.0573954
0.084476
0.043492
0.0867122
0.0290495
0.0879323
0.0143745
0.0878804
0.0853314
0.199684
0.00328701
0.199061
0.00635946
0.198133
0.00923694
0.196901
0.0120108
0.195369
0.0147493
0.193536
0.0175035
0.191396
0.0203153
0.188939
0.0232228
0.186151
0.0262603
0.183015
0.0294558
0.17951
0.0328283
0.175613
0.0363863
0.1713
0.0401283
0.166544
0.0440443
0.161318
0.0481193
0.155594
0.0523369
0.149339
0.0566827
0.142516
0.061146
0.135081
0.0657187
0.126982
0.0703924
0.118157
0.0751517
0.108535
0.0799659
0.0980417
0.0847778
0.0866033
0.0894897
0.0741655
0.0939481
0.060715
0.0979262
0.0463124
0.101115
0.0311303
0.103114
0.0154725
0.103538
0.100804
0.199692
0.00359349
0.19909
0.00696076
0.198198
0.0101279
0.197019
0.0131893
0.195556
0.0162128
0.193807
0.0192526
0.191768
0.0223548
0.18943
0.0255616
0.186781
0.0289113
0.183803
0.032435
0.180477
0.0361549
0.176783
0.040082
0.172696
0.0442164
0.168191
0.0485498
0.163242
0.0530691
0.157819
0.0577609
0.151886
0.0626152
0.145404
0.0676279
0.138322
0.0728002
0.130579
0.0781354
0.122098
0.0836323
0.112788
0.0892755
0.102543
0.095022
0.0912489
0.100783
0.0787952
0.106401
0.0650979
0.111623
0.05014
0.116072
0.0340295
0.119225
0.0170451
0.120523
0.117849
0.199704
0.00388822
0.199126
0.00753681
0.198276
0.0109772
0.197156
0.0143089
0.195769
0.0176004
0.194113
0.0209083
0.192186
0.0242827
0.189979
0.0277695
0.187481
0.0314104
0.184678
0.03524
0.181551
0.039283
0.178081
0.0435528
0.174247
0.0480515
0.170025
0.0527728
0.165389
0.0577058
0.16031
0.0628405
0.154753
0.0681724
0.148676
0.0737054
0.142024
0.0794517
0.134729
0.0854298
0.126703
0.0916576
0.117835
0.0981431
0.107987
0.10487
0.0969929
0.111776
0.084666
0.118728
0.0708143
0.125475
0.0552831
0.131603
0.0380405
0.136467
0.0192867
0.139276
0.137136
0.199718
0.00416857
0.19917
0.00808339
0.198366
0.0117802
0.197311
0.0153641
0.196005
0.0189055
0.194451
0.022463
0.192644
0.0260899
0.190579
0.0298357
0.188246
0.0337451
0.185631
0.0378556
0.182721
0.0421948
0.179497
0.0467779
0.17594
0.0516091
0.17203
0.0566839
0.167743
0.0619938
0.163051
0.0675326
0.157922
0.0733014
0.152315
0.0793128
0.146175
0.0855916
0.139431
0.0921736
0.131987
0.0991007
0.123717
0.106412
0.114454
0.114133
0.103976
0.122254
0.0920045
0.130699
0.0781974
0.139281
0.0621787
0.147622
0.0436385
0.155007
0.0225458
0.160369
0.159681
0.199734
0.00443248
0.199219
0.00859699
0.198466
0.0125326
0.197479
0.0163503
0.196262
0.0201225
0.194816
0.0239098
0.193138
0.0277684
0.191224
0.0317506
0.189066
0.035904
0.186654
0.0402689
0.183975
0.0448747
0.181015
0.0497389
0.177758
0.0548671
0.174187
0.0602563
0.170281
0.0659005
0.166017
0.0717968
0.161367
0.0779518
0.156294
0.0843864
0.150747
0.0911382
0.144659
0.0982616
0.137934
0.105825
0.130441
0.113906
0.121991
0.122583
0.112319
0.131925
0.101052
0.141966
0.0876695
0.152664
0.0714751
0.163816
0.0516485
0.174834
0.0275292
0.184488
0.187211
0.199752
0.00467832
0.199273
0.00907477
0.198574
0.0132309
0.19766
0.0172632
0.196536
0.0212464
0.195203
0.0252429
0.193661
0.0293111
0.191907
0.033506
0.189934
0.0378777
0.187736
0.0424683
0.185302
0.0473094
0.182622
0.0524197
0.179684
0.0578061
0.176475
0.0634668
0.172979
0.0693973
0.169179
0.0755974
0.165053
0.0820782
0.160571
0.0888678
0.155695
0.0960151
0.150364
0.103592
0.144497
0.111692
0.137969
0.120433
0.130596
0.129956
0.122095
0.140425
0.112033
0.152027
0.0997288
0.164969
0.0841092
0.179436
0.0635313
0.195412
0.0357847
0.212235
0.222995
0.199772
0.00490483
0.19933
0.00951441
0.198688
0.0138721
0.197851
0.0180993
0.196825
0.0222731
0.19561
0.0264573
0.194209
0.0307124
0.192621
0.0350954
0.190841
0.0396582
0.188866
0.0444448
0.186688
0.049488
0.184302
0.0548076
0.181698
0.0604109
0.178869
0.0662966
0.175806
0.072461
0.172499
0.0789052
0.168934
0.0856431
0.165095
0.0927078
0.160953
0.100156
0.156472
0.108073
0.151589
0.116575
0.14621
0.125811
0.140187
0.135979
0.133275
0.147336
0.125066
0.160237
0.114843
0.175191
0.101292
0.192986
0.0818309
0.214873
0.0510533
0.243013
0.274049
0.199792
0.00511102
0.199391
0.00991401
0.198808
0.0144537
0.198051
0.0188558
0.197124
0.0231992
0.196033
0.0275492
0.194778
0.0319678
0.19336
0.0365134
0.19178
0.0412396
0.190034
0.0461915
0.18812
0.0514026
0.186036
0.0568931
0.183778
0.0626702
0.181343
0.0687322
0.17873
0.0750749
0.175937
0.0816992
0.172961
0.0886196
0.169798
0.0958707
0.166441
0.103513
0.162876
0.111638
0.159078
0.120373
0.155002
0.129887
0.150571
0.14041
0.145651
0.152256
0.139999
0.165889
0.13315
0.18204
0.124135
0.202001
0.110565
0.228443
0.0842176
0.26936
0.358266
-0.0125932
0.0125932
-0.0267263
0.014133
-0.0417617
0.0150352
-0.0574918
0.0157297
-0.0736383
0.016146
-0.0898277
0.0161886
-0.105577
0.0157479
-0.120294
0.0147163
-0.133297
0.0130017
-0.143841
0.0105424
-0.151166
0.00732307
-0.154559
0.00339208
-0.153438
-0.00112299
-0.147401
-0.00603801
-0.136422
-0.0109792
-0.120904
-0.015519
-0.101626
-0.0192786
-0.0796389
-0.0219866
-0.0561175
-0.0235211
-0.0321784
-0.0239385
-0.00867745
-0.0235001
0.013711
-0.0223874
0.0345486
-0.0208364
0.05357
-0.0190201
0.0707327
-0.0171613
0.086066
-0.0153317
0.0996653
-0.0135977
0.111686
-0.0120186
0.122339
-0.0106516
-0.00988724
-0.0140247
0.0266179
-0.0289174
0.0290257
-0.0445051
0.0306228
-0.0606803
0.0319045
-0.0772023
0.0326675
-0.0937108
0.0326962
-0.109721
0.0317572
-0.124631
0.029625
-0.137739
0.0261082
-0.148278
0.0210799
-0.155467
0.0145098
-0.158569
0.00649303
-0.156988
-0.00270482
-0.150359
-0.0126683
-0.1387
-0.0226393
-0.122459
-0.0317605
-0.102455
-0.0392832
-0.0797506
-0.0446904
-0.0555027
-0.0477687
-0.0308084
-0.0486322
-0.00662205
-0.0476856
0.0163025
-0.0453109
0.0376283
-0.042161
0.0571885
-0.038579
0.0749213
-0.0348927
0.0908554
-0.0312642
0.105085
-0.0278258
0.117754
-0.0246861
0.129034
-0.0219293
-0.0198847
-0.0146577
0.0412756
-0.0300452
0.0444131
-0.0459626
0.04654
-0.0624042
0.0483458
-0.0791819
0.0494446
-0.0959562
0.0494697
-0.112242
0.0480418
-0.12742
0.0448016
-0.140758
0.0394454
-0.151451
0.0317712
-0.158673
0.0217299
-0.161647
0.00946548
-0.159724
-0.00462843
-0.152544
-0.0198496
-0.1402
-0.0349841
-0.123239
-0.0487226
-0.10256
-0.059962
-0.0792805
-0.0679699
-0.0545792
-0.0724695
-0.0295657
-0.0736451
-0.00519167
-0.0720589
0.0178344
-0.068336
0.0391568
-0.0634822
0.0586574
-0.0580782
0.0762934
-0.0525273
0.092105
-0.0470743
0.106196
-0.0419157
0.118716
-0.0372039
0.129832
-0.0330438
-0.0297379
-0.0150562
0.0563317
-0.0307463
0.0601032
-0.0468973
0.0626908
-0.0635684
0.0650166
-0.0806089
0.0664846
-0.097691
0.066551
-0.114316
0.0646656
-0.129829
0.0603137
-0.143446
0.053061
-0.154292
0.0426159
-0.161471
0.028907
-0.164148
0.0121411
-0.161645
-0.00713248
-0.153667
-0.027829
-0.140437
-0.0482143
-0.122622
-0.0665382
-0.101209
-0.0813755
-0.0773596
-0.0918193
-0.0522637
-0.0975651
-0.0270152
-0.098893
-0.00257701
-0.0964962
0.0204224
-0.0913343
0.0416169
-0.0846756
0.0609406
-0.0774006
0.0783635
-0.0699488
0.0939392
-0.0626484
0.107784
-0.0557585
0.120052
-0.0494704
0.130918
-0.0439075
-0.0393448
-0.0151933
0.071525
-0.0309421
0.0758519
-0.0471518
0.0789003
-0.0639117
0.0817761
-0.0810823
0.0836547
-0.098331
0.0837989
-0.115136
0.0814701
-0.130805
0.0759812
-0.144497
0.0667514
-0.15527
0.0533872
-0.162159
0.0357954
-0.164295
0.0142751
-0.160992
-0.0104367
-0.152065
-0.0367572
-0.137898
-0.0623818
-0.119282
-0.0851545
-0.0972788
-0.103379
-0.0730717
-0.116026
-0.0478301
-0.122806
-0.022603
-0.12412
0.00161276
-0.120711
0.0243236
-0.114044
0.0452114
-0.105562
0.0641942
-0.0963821
0.0812568
-0.08701
0.0964662
-0.0778563
0.109949
-0.0692398
0.121867
-0.0613869
0.132399
-0.0544374
-0.0486346
-0.0149128
0.0864378
-0.0303415
0.0912805
-0.0462785
0.0948372
-0.0628083
0.0983056
-0.079784
0.10063
-0.0968636
0.100878
-0.113509
0.0981149
-0.129
0.0914711
-0.142456
0.0802053
-0.152876
0.0638062
-0.159234
0.042152
-0.160627
0.0156665
-0.15638
-0.0146854
-0.146462
-0.0466757
-0.131446
-0.077399
-0.112238
-0.104363
-0.0899445
-0.125673
-0.0657379
-0.140233
-0.0407398
-0.147804
-0.0159462
-0.148913
0.00770126
-0.144358
0.0297964
-0.136138
0.0501205
-0.125885
0.0685457
-0.114806
0.0850605
-0.103523
0.0997428
-0.0925371
0.112728
-0.0822233
0.124182
-0.0728393
0.134285
-0.0645389
-0.0575256
-0.0140449
0.100483
-0.0286127
0.105848
-0.0437705
0.109995
-0.059573
0.114108
-0.0758615
0.116918
-0.092292
0.117308
-0.108326
0.114148
-0.123234
0.106378
-0.136109
0.0930786
-0.145903
0.0735993
-0.151523
0.0477703
-0.152026
0.0161684
-0.14676
-0.0199525
-0.135914
-0.0575224
-0.120269
-0.0930451
-0.10082
-0.123813
-0.0786652
-0.147828
-0.0549281
-0.16397
-0.0306617
-0.17207
-0.00681385
-0.17276
0.0158845
-0.167055
0.0370155
-0.157268
0.0564762
-0.145345
0.074089
-0.132418
0.0898386
-0.119272
0.10381
-0.106507
0.116145
-0.0945563
0.12701
-0.0837023
0.136583
-0.0741099
-0.0659362
-0.0124556
0.112938
-0.025486
0.118879
-0.0392098
0.123718
-0.0536441
0.128542
-0.0686259
0.131899
-0.0838248
0.132506
-0.0987215
0.129044
-0.112598
0.120253
-0.124534
0.105013
-0.133439
0.0825031
-0.138148
0.0524783
-0.137655
0.0156736
-0.131354
-0.0262543
-0.119744
-0.0691329
-0.103826
-0.108964
-0.0846224
-0.143017
-0.0631437
-0.169307
-0.0404308
-0.186683
-0.0174124
-0.195089
0.00491522
-0.195087
0.0261581
-0.188298
0.0460495
-0.177159
0.0643404
-0.163635
0.0808654
-0.148941
0.0956156
-0.13402
0.108681
-0.119572
0.120205
-0.106078
0.13035
-0.0938459
0.139288
-0.0830457
-0.073784
-0.0100807
0.123019
-0.0208225
0.12962
-0.0323615
0.135257
-0.0446896
0.14087
-0.0576549
0.144864
-0.0709597
0.14581
-0.0841262
0.142209
-0.0964723
0.132598
-0.107081
0.11562
-0.11482
0.0902417
-0.118467
0.0561234
-0.116878
0.0140833
-0.109592
-0.0335408
-0.0975143
-0.0812119
-0.081826
-0.124653
-0.063485
-0.161358
-0.0433055
-0.189487
-0.0222513
-0.207737
-0.00116856
-0.216171
0.0192065
-0.215462
0.0386276
-0.207718
0.0569127
-0.195443
0.0737045
-0.180425
0.0888552
-0.164091
0.102366
-0.14753
0.11433
-0.131534
0.124884
-0.116631
0.134183
-0.103144
0.142385
-0.0912457
-0.0809919
-0.00694011
0.129959
-0.014642
0.137322
-0.0232164
0.143832
-0.0326599
0.150313
-0.0428471
0.155051
-0.0535311
0.156493
-0.064298
0.152976
-0.0745301
0.14283
-0.0833436
0.124432
-0.089571
0.0964678
-0.0919619
0.0585131
-0.0891684
0.0112886
-0.0811242
-0.041586
-0.0690829
-0.0932541
-0.0542891
-0.139448
-0.0375099
-0.178138
-0.0193235
-0.207673
-0.000582785
-0.226478
0.0179095
-0.234663
0.0358822
-0.233434
0.0532387
-0.225074
0.0695356
-0.211739
0.0844878
-0.195377
0.0979781
-0.17758
0.110016
-0.159567
0.12069
-0.142206
0.130127
-0.126066
0.138465
-0.11148
0.145842
-0.09862
-0.0874918
-0.00313861
0.133098
-0.00711005
0.141294
-0.0119913
0.148713
-0.0178062
0.156127
-0.0244611
0.161705
-0.0317671
0.163799
-0.0393927
0.1606
-0.0468175
0.150253
-0.0532553
0.130869
-0.0575496
0.100761
-0.0583269
0.0592893
-0.0541629
0.00712339
-0.0458919
-0.0498581
-0.0347303
-0.104417
-0.0216591
-0.15252
-0.0070756
-0.192722
0.00835688
-0.223106
0.0239646
-0.242086
0.039565
-0.250263
0.0549908
-0.248859
0.0698328
-0.239915
0.0837536
-0.225659
0.0965364
-0.208158
0.108095
-0.189137
0.118444
-0.169915
0.12766
-0.151421
0.135852
-0.134256
0.143131
-0.118758
0.149608
-0.105094
-0.0932289
0.00118341
0.131914
0.0015155
0.140961
0.000897234
0.149331
-0.00068228
0.157707
-0.00315482
0.164177
-0.00638029
0.167024
-0.0101195
0.164339
-0.0139884
0.154121
-0.0173992
0.134279
-0.0193068
0.102667
-0.0178008
0.0577822
-0.0122589
0.00158047
-0.00446868
-0.0576493
0.0047997
-0.113686
0.0153337
-0.163054
0.026784
-0.204173
0.0387743
-0.235096
0.051238
-0.254549
0.0638093
-0.262834
0.0761992
-0.261249
0.0881102
-0.251826
0.0993013
-0.236849
0.109621
-0.218477
0.119012
-0.198527
0.127488
-0.17839
0.135109
-0.159041
0.141953
-0.141099
0.1481
-0.124903
0.153622
-0.110615
-0.0981643
0.00602126
0.125893
0.01108
0.135903
0.0149658
0.145445
0.0179089
0.154763
0.0199823
0.162104
0.0212758
0.165729
0.0219625
0.163651
0.0223331
0.15375
0.0229673
0.133643
0.0251175
0.100516
0.0297551
0.0531434
0.0354879
-0.00415337
0.0413332
-0.0634955
0.0476407
-0.119994
0.0549951
-0.170409
0.063182
-0.21236
0.0718882
-0.243803
0.0809201
-0.263581
0.0900233
-0.271938
0.0989894
-0.270214
0.107634
-0.26047
0.115814
-0.245029
0.123442
-0.226104
0.130485
-0.205569
0.136955
-0.184857
0.142883
-0.164968
0.148311
-0.146526
0.153278
-0.129868
0.157815
-0.11515
-0.102277
0.0115733
0.11432
0.0216616
0.125814
0.0300261
0.13708
0.037505
0.147284
0.044167
0.155441
0.0500486
0.159847
0.0553226
0.158377
0.0603118
0.14876
0.0656523
0.128302
0.0719262
0.094241
0.078319
0.0467496
0.0834978
-0.00933309
0.0877634
-0.067762
0.0918741
-0.124106
0.0964071
-0.174943
0.101391
-0.217344
0.106642
-0.249055
0.112017
-0.268956
0.117392
-0.277313
0.122689
-0.27551
0.127852
-0.265633
0.132844
-0.25002
0.137642
-0.230901
0.142236
-0.210162
0.146627
-0.189247
0.150817
-0.169156
0.154802
-0.150509
0.158574
-0.133638
0.162116
-0.118691
-0.105564
0.0185697
0.09575
0.0334399
0.110944
0.0458247
0.124695
0.0577084
0.1354
0.0687314
0.144418
0.0789536
0.149624
0.0886339
0.148696
0.0980898
0.139303
0.107618
0.118773
0.116813
0.0850451
0.124415
0.0391461
0.129654
-0.0145728
0.133017
-0.0711259
0.1355
-0.12659
0.137721
-0.177165
0.139809
-0.219432
0.141707
-0.250954
0.143413
-0.270662
0.144986
-0.278886
0.146528
-0.277052
0.148138
-0.267243
0.149891
-0.251772
0.151829
-0.232838
0.153964
-0.212296
0.15628
-0.191563
0.158743
-0.171617
0.1613
-0.153065
0.163894
-0.13623
0.166458
-0.121253
-0.108035
0.207466
0.00530286
0.207093
0.0102853
0.206552
0.0149926
0.205853
0.0195545
0.205001
0.0240513
0.204
0.0285495
0.202856
0.0331122
0.201571
0.0377989
0.200148
0.0426641
0.198586
0.0477538
0.196888
0.0531016
0.195056
0.0587272
0.19309
0.0646371
0.190995
0.070828
0.188777
0.077294
0.186443
0.0840338
0.184003
0.0910597
0.181471
0.0984039
0.178859
0.106125
0.176186
0.114312
0.173471
0.123088
0.170737
0.132621
0.168012
0.143134
0.165339
0.154929
0.162792
0.168436
0.160541
0.184292
0.159068
0.203474
0.160363
0.227148
0.177163
0.252561
0.266701
0.268728
0.212508
0.00547521
0.212173
0.0106184
0.21169
0.0154747
0.211066
0.0201772
0.210309
0.0248074
0.209426
0.0294324
0.208423
0.0341159
0.207304
0.0389181
0.206075
0.043894
0.204741
0.0490894
0.203306
0.0545377
0.201776
0.0602575
0.200161
0.0662535
0.19847
0.0725199
0.196718
0.0790474
0.194922
0.0858307
0.193105
0.0928767
0.191298
0.100211
0.189539
0.107884
0.187879
0.115973
0.186384
0.124583
0.185149
0.133856
0.184316
0.143967
0.184113
0.155132
0.184947
0.167602
0.187623
0.181616
0.193873
0.197224
0.206933
0.214087
0.22827
0.231225
0.24764
0.247331
0.217674
0.00562601
0.217381
0.0109094
0.21696
0.0158945
0.216419
0.0207167
0.215768
0.0254585
0.215013
0.0301874
0.214162
0.0349669
0.213223
0.0398574
0.212204
0.0449138
0.211113
0.0501813
0.209959
0.0556922
0.208755
0.0614634
0.207512
0.0674967
0.20625
0.0737829
0.204991
0.080308
0.203762
0.0870607
0.202599
0.0940399
0.20155
0.101261
0.200674
0.108761
0.200051
0.116596
0.199788
0.124846
0.200036
0.133609
0.201011
0.142992
0.203038
0.153105
0.206612
0.164028
0.212462
0.175767
0.221495
0.188191
0.234459
0.201124
0.250986
0.214697
0.226205
0.272421
0.222967
0.00575335
0.22272
0.0111547
0.222366
0.0162466
0.221915
0.0211663
0.221376
0.0259965
0.220758
0.0308047
0.220071
0.0356541
0.219325
0.0406045
0.218529
0.04571
0.217697
0.0510147
0.216841
0.0565492
0.215977
0.0623277
0.215126
0.0683489
0.214311
0.074599
0.213562
0.081058
0.212916
0.0877072
0.212421
0.0945357
0.212137
0.101546
0.212141
0.108757
0.212534
0.116204
0.213447
0.123933
0.215058
0.131998
0.217603
0.140448
0.221397
0.149311
0.226849
0.158577
0.234439
0.168177
0.244673
0.177957
0.258173
0.187624
0.276008
0.196863
0.203361
0.298852
0.228389
0.00585545
0.22819
0.0113507
0.227909
0.0165262
0.227554
0.0215198
0.227135
0.0264142
0.226664
0.031276
0.22615
0.036168
0.225606
0.0411488
0.225045
0.0462712
0.224483
0.0515777
0.223937
0.0570962
0.223428
0.0628383
0.222979
0.0687985
0.222621
0.0749579
0.22239
0.0812899
0.222331
0.0877672
0.2225
0.0943681
0.222965
0.101081
0.223816
0.107908
0.225162
0.114858
0.227144
0.121951
0.229942
0.129202
0.233776
0.136614
0.23892
0.144167
0.245697
0.1518
0.254483
0.159391
0.265706
0.166734
0.279865
0.173465
0.297506
0.179222
0.182992
0.317875
0.233942
0.00593073
0.233796
0.0114946
0.233591
0.016729
0.233338
0.0217719
0.233046
0.0267051
0.232727
0.0315942
0.232394
0.0365006
0.232062
0.0414817
0.231745
0.0465886
0.231462
0.0518614
0.231234
0.0573254
0.231085
0.0629883
0.231044
0.0688406
0.231145
0.0748579
0.231429
0.0810066
0.231946
0.0872509
0.232757
0.0935579
0.233937
0.0999028
0.235576
0.106269
0.237786
0.112648
0.240705
0.119033
0.244496
0.125411
0.249356
0.131755
0.255511
0.138013
0.263216
0.144094
0.272751
0.149856
0.284392
0.155094
0.298344
0.159514
0.314723
0.162844
0.16464
0.333075
0.239631
0.00597783
0.23954
0.0115837
0.239415
0.0168515
0.239268
0.021918
0.239108
0.0268639
0.238948
0.0317534
0.238802
0.0366461
0.238686
0.0415975
0.238618
0.0466565
0.238619
0.0518611
0.238713
0.0572329
0.238926
0.0627763
0.23929
0.0684771
0.239843
0.0743055
0.24063
0.0802215
0.241701
0.0861805
0.24312
0.09214
0.244961
0.0980628
0.247313
0.103918
0.250282
0.10968
0.253991
0.115324
0.258585
0.120818
0.264224
0.126116
0.271086
0.131151
0.279355
0.135826
0.289207
0.140005
0.300785
0.143517
0.314152
0.146147
0.329319
0.147677
0.147878
0.346081
0.245458
0.00599563
0.245423
0.0116159
0.245382
0.0168905
0.245344
0.0219545
0.24532
0.0268868
0.245322
0.0317497
0.245367
0.0366006
0.245472
0.0414929
0.245656
0.0464729
0.245942
0.0515757
0.246355
0.0568201
0.246926
0.0622066
0.247687
0.0677167
0.248678
0.0733156
0.249944
0.0789569
0.251536
0.0845892
0.253516
0.0901612
0.255954
0.0956257
0.258932
0.100941
0.262545
0.106068
0.266899
0.110971
0.27211
0.115607
0.278305
0.119922
0.285611
0.123846
0.294148
0.127289
0.304016
0.130137
0.315279
0.132254
0.327941
0.133485
0.341951
0.133667
0.132689
0.35714
0.251426
0.00598329
0.25145
0.0115897
0.251494
0.0168442
0.251567
0.0218792
0.251681
0.0267714
0.251849
0.0315807
0.252087
0.0363623
0.252412
0.041167
0.252847
0.0460384
0.253414
0.0510085
0.254142
0.0560931
0.25506
0.0612892
0.256203
0.0665745
0.25761
0.0719098
0.259324
0.0772436
0.261396
0.0825185
0.263882
0.0876766
0.266845
0.0926633
0.270358
0.0974289
0.274499
0.101928
0.279356
0.106116
0.285017
0.109946
0.291574
0.113366
0.29911
0.11631
0.307698
0.118702
0.317383
0.120453
0.328177
0.12146
0.340044
0.121619
0.35289
0.120822
0.119021
0.366558
0.257538
0.00594027
0.257621
0.0115041
0.257752
0.0167112
0.257938
0.0216907
0.258191
0.0265166
0.258525
0.0312462
0.258954
0.035932
0.259499
0.0406221
0.26018
0.0453572
0.261022
0.0501663
0.262053
0.0550624
0.263304
0.0600394
0.264808
0.0650715
0.266602
0.0701161
0.268728
0.0751182
0.271232
0.0800159
0.274163
0.0847467
0.277576
0.0892513
0.281531
0.0934753
0.28609
0.0973694
0.291319
0.100888
0.297283
0.103984
0.304041
0.106609
0.311642
0.108709
0.32012
0.110225
0.329483
0.11109
0.339708
0.111236
0.350731
0.110596
0.362447
0.109106
0.106757
0.374711
0.263798
0.00586634
0.26394
0.0113587
0.264158
0.0164913
0.264457
0.0213891
0.264849
0.026123
0.265346
0.0307475
0.265965
0.0353124
0.266724
0.0398627
0.267644
0.0444364
0.268751
0.0490596
0.270071
0.0537425
0.271635
0.0584765
0.273474
0.0632333
0.275623
0.0679678
0.278119
0.0726223
0.281003
0.077133
0.284316
0.0814345
0.288104
0.0854652
0.292411
0.0891691
0.297285
0.0924961
0.302772
0.0954016
0.308913
0.0978435
0.315742
0.0997807
0.323281
0.101171
0.331534
0.101973
0.340484
0.102141
0.350086
0.101634
0.360266
0.100416
0.370916
0.0984568
0.0957669
0.381906
0.270208
0.00576159
0.27041
0.0111538
0.270713
0.016185
0.271125
0.0209754
0.271653
0.0255926
0.272311
0.0300881
0.273114
0.0345086
0.27408
0.0388962
0.275229
0.0432861
0.276587
0.0477018
0.278179
0.0521512
0.280032
0.0566235
0.282177
0.0610889
0.284645
0.0655007
0.287467
0.0698004
0.290678
0.073923
0.29431
0.0778028
0.298399
0.081378
0.302976
0.0845931
0.308073
0.0873999
0.313718
0.0897572
0.319934
0.0916291
0.326732
0.0929831
0.334114
0.0937901
0.342065
0.0940227
0.35055
0.0936565
0.359514
0.092671
0.368878
0.0910525
0.37854
0.0887948
0.0859229
0.388384
0.276772
0.00562641
0.277032
0.0108901
0.277421
0.0157936
0.277941
0.0204519
0.278603
0.0249289
0.279417
0.0292729
0.280396
0.0335275
0.28156
0.0377321
0.282926
0.0419189
0.284519
0.0461093
0.286361
0.0503091
0.288478
0.0545061
0.290898
0.0586697
0.293646
0.062753
0.29675
0.0666975
0.300235
0.0704389
0.304126
0.0739125
0.308446
0.077058
0.313218
0.0798224
0.318458
0.0821609
0.324179
0.0840373
0.330386
0.0854224
0.337078
0.0862928
0.344238
0.0866307
0.351839
0.0864226
0.359836
0.0856594
0.368171
0.0843372
0.376765
0.082459
0.385525
0.0800349
0.0770982
0.39435
0.283493
0.00546149
0.283811
0.0105691
0.284281
0.0153196
0.284909
0.019822
0.285699
0.0241366
0.286661
0.0283084
0.287809
0.0323779
0.289159
0.0363816
0.290728
0.0403494
0.292536
0.0443002
0.294607
0.0482386
0.296961
0.0521516
0.299623
0.0560085
0.302613
0.0597631
0.305953
0.0633582
0.309661
0.0667313
0.313754
0.0698201
0.318246
0.0725671
0.323146
0.0749228
0.328461
0.076847
0.33419
0.0783092
0.340326
0.0792868
0.346855
0.0797649
0.353751
0.0797356
0.360978
0.0791967
0.368487
0.078151
0.376217
0.076607
0.384098
0.0745793
0.392044
0.0720885
0.0691728
0.39997
0.290376
0.00526779
0.290748
0.0101927
0.291298
0.0147659
0.292027
0.0190901
0.29294
0.0232217
0.294044
0.0272025
0.29535
0.0310699
0.296873
0.0348578
0.298628
0.0385934
0.300633
0.0422942
0.302908
0.0459635
0.305471
0.0495882
0.308342
0.0531381
0.311536
0.0565687
0.31507
0.059825
0.318954
0.0628473
0.323198
0.0655767
0.327806
0.0679595
0.33278
0.0699503
0.338113
0.071514
0.343798
0.0726255
0.349816
0.0732688
0.356146
0.0734363
0.362754
0.0731284
0.3696
0.0723515
0.376634
0.0711174
0.383798
0.0694432
0.391026
0.0673513
0.398246
0.0648688
0.0620355
0.405384
0.297423
0.0050465
0.297848
0.00976329
0.298474
0.014136
0.2993
0.0182612
0.300328
0.0221911
0.301564
0.0259641
0.303017
0.0296148
0.304699
0.0331744
0.306623
0.036668
0.308805
0.0401116
0.31126
0.0435078
0.314005
0.0468436
0.317052
0.0500904
0.320415
0.0532057
0.324103
0.0561375
0.328121
0.0588299
0.33247
0.0612277
0.337149
0.0632817
0.342148
0.064951
0.347457
0.0662057
0.353058
0.0670257
0.358927
0.0674005
0.365034
0.0673292
0.371345
0.0668184
0.377816
0.0658807
0.3844
0.0645345
0.391041
0.0628024
0.397681
0.0607116
0.404258
0.0582926
0.0555853
0.410708
0.304638
0.00479902
0.305113
0.00928351
0.305811
0.0134343
0.306728
0.0173411
0.307864
0.0210521
0.309223
0.0246027
0.310811
0.0280244
0.312638
0.0313459
0.314714
0.0345905
0.317052
0.0377727
0.319664
0.0408949
0.322562
0.0439448
0.325757
0.0468955
0.329255
0.0497072
0.333061
0.0523315
0.337175
0.0547165
0.341591
0.0568116
0.346301
0.058572
0.351291
0.0599617
0.356542
0.0609551
0.362031
0.0615371
0.36773
0.0617021
0.373606
0.0614537
0.379621
0.0608035
0.385734
0.0597685
0.391898
0.0583712
0.398063
0.0566376
0.404177
0.0545972
0.410188
0.0522821
0.0497306
0.416043
0.312025
0.00452686
0.312548
0.00875637
0.313313
0.012665
0.314314
0.0163358
0.31555
0.0198129
0.317022
0.0231283
0.318733
0.0263109
0.32069
0.029387
0.322901
0.032378
0.325375
0.0352974
0.328122
0.0381475
0.331149
0.0409169
0.334463
0.0435809
0.338067
0.0461028
0.34196
0.0484381
0.346137
0.0505393
0.350589
0.0523603
0.3553
0.0538611
0.360252
0.05501
0.365421
0.0557859
0.370781
0.0561776
0.3763
0.0561833
0.381944
0.0558104
0.387675
0.0550735
0.393451
0.0539927
0.39923
0.0525925
0.404967
0.0509008
0.410616
0.0489478
0.416133
0.0467653
0.0443895
0.421475
0.319589
0.00423164
0.320156
0.00818498
0.320983
0.011833
0.322064
0.0152518
0.323391
0.0184814
0.324966
0.0215509
0.326788
0.0244864
0.328861
0.0273118
0.33119
0.030047
0.333781
0.0327044
0.336641
0.0352863
0.339775
0.0377827
0.343184
0.0401711
0.346867
0.0424183
0.350821
0.0444837
0.355036
0.0463244
0.359497
0.047899
0.364186
0.0491718
0.36908
0.0501156
0.374153
0.0507128
0.379375
0.0509558
0.384713
0.0508456
0.390132
0.0503921
0.395594
0.0496119
0.40106
0.0485265
0.406491
0.0471613
0.411848
0.0455446
0.41709
0.043706
0.422179
0.0416762
0.0394888
0.427079
0.327334
0.00391498
0.327942
0.00757249
0.328827
0.0109429
0.329979
0.0140953
0.331391
0.0170658
0.333058
0.0198804
0.334979
0.0225625
0.337155
0.0251339
0.339587
0.0276127
0.342279
0.0300106
0.345234
0.0323301
0.348453
0.0345623
0.351936
0.0366873
0.355678
0.0386752
0.359671
0.0404898
0.363902
0.0420924
0.368355
0.0434464
0.373006
0.0445204
0.37783
0.0452908
0.382799
0.0457437
0.387881
0.0458737
0.393043
0.0456841
0.398249
0.0451863
0.403463
0.0443978
0.408649
0.0433405
0.41377
0.0420398
0.418792
0.0405228
0.423679
0.0388183
0.428401
0.0369549
0.0349633
0.432926
0.335264
0.00357842
0.33591
0.00692188
0.336848
0.00999911
0.338067
0.0128723
0.339555
0.0155736
0.341306
0.0181259
0.343315
0.02055
0.345581
0.0228656
0.348102
0.025089
0.350879
0.0272313
0.353913
0.0292949
0.357201
0.0312725
0.36074
0.0331465
0.364524
0.0348906
0.36854
0.0364726
0.372773
0.0378583
0.377203
0.0390154
0.381806
0.0399166
0.386555
0.0405417
0.391418
0.0408796
0.396365
0.040927
0.401361
0.0406885
0.406371
0.0401761
0.411361
0.0394075
0.416297
0.0384041
0.421147
0.0371902
0.425878
0.0357916
0.430461
0.034235
0.434868
0.0325469
0.0307549
0.439077
0.343385
0.00322337
0.344065
0.00623585
0.345053
0.00900575
0.346332
0.0115884
0.347889
0.0140118
0.349716
0.0162958