/*--------------------------------*- C++ -*----------------------------------*\
| =========                 |                                                 |
| \\      /  F ield         | OpenFOAM: The Open Source CFD Toolbox           |
|  \\    /   O peration     | Version:  dev                                   |
|   \\  /    A nd           | Web:      www.OpenFOAM.org                      |
|    \\/     M anipulation  |                                                 |
\*---------------------------------------------------------------------------*/
FoamFile
{
    version     2.0;
    format      ascii;
    class       surfaceScalarField;
    location    "4.97";
    object      meshPhi;
}
// * * * * * * * * * * * * * * * * * * * * * * * * * * * * * * * * * * * * * //

dimensions      [0 3 -1 0 0 0 0];

internalField   nonuniform List<scalar> 
879
(
4.83504e-07
3.27804e-07
1.64688e-06
1.24652e-06
2.20066e-07
-8.65928e-07
1.30909e-06
4.08539e-06
1.97083e-06
7.48682e-08
6.18112e-07
9.20617e-07
-5.89014e-06
3.4778e-06
8.21149e-06
2.82591e-06
-1.05031e-07
2.22286e-06
4.18608e-07
-3.50475e-06
2.73386e-06
-1.48899e-05
7.23925e-06
1.39123e-05
3.83123e-06
-3.23436e-07
4.14632e-06
-1.98186e-07
-7.83156e-07
1.78317e-06
-1.12982e-05
6.02083e-06
-2.70075e-05
1.24305e-05
2.06617e-05
5.01919e-06
-5.82681e-07
6.43356e-06
-9.37451e-07
2.51361e-06
6.2366e-07
-7.08051e-06
4.48777e-06
-2.18194e-05
1.05726e-05
-4.07347e-05
1.84978e-05
2.77262e-05
6.42008e-06
-8.83617e-07
9.14494e-06
-1.8019e-06
6.44919e-06
-7.49843e-07
-1.97924e-06
2.64257e-06
-1.56443e-05
8.28474e-06
-3.35061e-05
1.58133e-05
-5.42878e-05
2.46877e-05
-7.66181e-05
3.42895e-05
4.38899e-05
8.06376e-06
-1.22636e-06
1.23342e-05
-2.79052e-06
1.10972e-05
-2.33306e-06
4.07641e-06
4.93295e-07
-8.23296e-06
5.58443e-06
-2.48563e-05
1.25844e-05
-4.4479e-05
2.09731e-05
-6.56996e-05
3.01174e-05
-8.69022e-05
3.93635e-05
4.80152e-05
9.97605e-06
-1.60834e-06
1.60499e-05
-3.89716e-06
1.65255e-05
-4.11767e-06
1.11692e-05
-1.94813e-06
4.87812e-07
2.49148e-06
-1.45741e-05
8.84545e-06
-3.27553e-05
1.66117e-05
-5.26105e-05
2.51754e-05
-7.27014e-05
3.38934e-05
-9.16213e-05
4.21818e-05
-0.000108151
4.9491e-05
5.52679e-05
1.2176e-05
-2.02466e-06
2.03345e-05
-5.10902e-06
2.2798e-05
-6.08554e-06
1.93782e-05
-4.65938e-06
1.05981e-05
-9.65128e-07
-2.59939e-06
4.63898e-06
-1.89989e-05
1.16625e-05
-3.71955e-05
1.95204e-05
-5.57974e-05
2.76036e-05
-7.35936e-05
3.5351e-05
-8.94344e-05
4.22378e-05
-0.000102303
4.7862e-05
-0.000111492
5.19374e-05
5.4182e-05
1.46822e-05
-2.47051e-06
2.5224e-05
-6.41106e-06
2.99612e-05
-8.20903e-06
2.87587e-05
-7.60007e-06
2.21628e-05
-4.73605e-06
1.11236e-05
2.40158e-08
-3.18054e-06
6.20237e-06
-1.94136e-05
1.32471e-05
-3.62339e-05
2.05852e-05
-5.24722e-05
2.76836e-05
-6.70402e-05
3.4064e-05
-7.91406e-05
3.93368e-05
-8.8119e-05
4.32162e-05
-9.35026e-05
4.55904e-05
4.6351e-05
1.75146e-05
-2.93994e-06
3.07428e-05
-7.78229e-06
3.8035e-05
-1.0449e-05
3.93281e-05
-1.07129e-05
3.52026e-05
-8.7471e-06
2.66032e-05
-4.90861e-06
1.46735e-05
3.43106e-07
6.86199e-07
6.48831e-06
-1.40729e-05
1.29913e-05
-2.84762e-05
1.93498e-05
-4.1515e-05
2.51216e-05
-5.23751e-05
2.99419e-05
-6.04411e-05
3.35425e-05
-6.54473e-05
3.57714e-05
-6.70532e-05
3.66099e-05
-6.50314e-05
3.60707e-05
3.41537e-05
2.06732e-05
-3.41991e-06
3.68811e-05
-9.1854e-06
4.70008e-05
-1.27476e-05
5.10561e-05
-1.39201e-05
4.9664e-05
-1.28964e-05
4.37577e-05
-1.00307e-05
3.44505e-05
-5.76368e-06
2.29638e-05
-5.8459e-07
1.05151e-05
5.00848e-06
-1.80493e-06
1.05482e-05
-1.30402e-05
1.56227e-05
-2.24023e-05
1.98932e-05
-2.93078e-05
2.31098e-05
-3.34033e-05
2.51222e-05
-3.45624e-05
2.58777e-05
-3.26496e-05
2.53837e-05
-2.77217e-05
2.37512e-05
-2.00537e-05
2.11439e-05
1.76504e-05
2.41256e-05
-3.89273e-06
4.35877e-05
-1.05732e-05
5.67943e-05
-1.50339e-05
6.38589e-05
-1.71282e-05
6.54315e-05
-1.70678e-05
6.24428e-05
-1.5203e-05
5.59842e-05
-1.19574e-05
4.72279e-05
-7.79055e-06
3.73259e-05
-3.16378e-06
2.73265e-05
1.49125e-06
1.81434e-05
5.79455e-06
1.05262e-05
9.43387e-06
5.03519e-06
1.2177e-05
2.03043e-06
1.38781e-05
1.69345e-06
1.44745e-05
4.09348e-06
1.39748e-05
9.06465e-06
1.24577e-05
1.6459e-05
1.00374e-05
2.60976e-05
6.86878e-06
3.75693e-05
3.11915e-06
-1.15933e-06
2.78311e-05
-4.34293e-06
5.07966e-05
-1.19013e-05
6.73278e-05
-1.72376e-05
7.76258e-05
-2.0242e-05
8.23757e-05
-2.11434e-05
8.25122e-05
-2.02874e-05
7.91072e-05
-1.80789e-05
7.32865e-05
-1.4948e-05
6.61449e-05
-1.13206e-05
5.86822e-05
-7.59312e-06
5.17676e-05
-4.11352e-06
4.61128e-05
-1.16749e-06
4.22565e-05
1.03048e-06
4.05544e-05
2.34256e-06
4.1211e-05
2.70149e-06
4.42857e-05
2.10444e-06
4.97025e-05
6.07828e-07
5.73144e-05
-1.68834e-06
6.68349e-05
-4.64223e-06
7.78199e-05
-8.07508e-06
3.17549e-05
-4.7557e-06
5.84436e-05
-1.31266e-05
7.85109e-05
-1.9289e-05
9.22431e-05
-2.31673e-05
0.000100364
-2.50046e-05
0.000103813
-2.51405e-05
0.000103642
-2.39599e-05
0.000100934
-2.1864e-05
9.67343e-05
-1.92445e-05
9.1991e-05
-1.64632e-05
8.75305e-05
-1.38368e-05
8.40253e-05
-1.16246e-05
8.19993e-05
-1.00246e-05
8.18062e-05
-9.16925e-06
8.36596e-05
-9.12607e-06
8.76466e-05
-9.90756e-06
9.37171e-05
-1.14691e-05
0.000101707
-1.37174e-05
0.000111374
-1.65279e-05
-1.9696e-05
3.58609e-05
-5.11588e-06
6.64591e-05
-1.4205e-05
9.02455e-05
-2.1117e-05
0.000107587
-2.58068e-05
0.000119246
-2.85286e-05
0.000126167
-2.96136e-05
0.00012938
-2.94261e-05
0.000129934
-2.83386e-05
0.000128827
-2.67104e-05
0.000126954
-2.48689e-05
0.000125106
-2.3102e-05
0.000123927
-2.16472e-05
0.000123921
-2.0685e-05
0.00012545
-2.03409e-05
0.000128711
-2.06774e-05
0.000133797
-2.17036e-05
0.000140668
-2.33843e-05
0.000149178
-2.5646e-05
0.00015914
-2.83936e-05
-3.13897e-05
4.01071e-05
-5.40825e-06
7.47634e-05
-1.50921e-05
0.000102419
-2.26496e-05
0.000123514
-2.80621e-05
0.000138849
-3.15909e-05
0.00014937
-3.35566e-05
0.000156088
-3.43011e-05
0.000160022
-3.41698e-05
0.000162133
-3.3492e-05
0.000163266
-3.25635e-05
0.00016418
-3.16442e-05
0.000165501
-3.0951e-05
0.000167697
-3.06442e-05
0.000171112
-3.08321e-05
0.000175938
-3.15728e-05
0.000182255
-3.2877e-05
0.000190061
-3.47217e-05
0.000199261
-3.70552e-05
0.000209707
-3.9803e-05
-4.2691e-05
4.4447e-05
-5.61807e-06
8.32681e-05
-1.57446e-05
0.000114905
-2.38164e-05
0.000139865
-2.98369e-05
0.000158981
-3.40695e-05
0.000173203
-3.68221e-05
0.000183525
-3.84152e-05
0.000190942
-3.9167e-05
0.000196375
-3.93759e-05
0.000200639
-3.93106e-05
0.000204447
-3.92018e-05
0.000208391
-3.92386e-05
0.000212907
-3.95638e-05
0.000218311
-4.02721e-05
0.000224809
-4.14192e-05
0.000232502
-4.30226e-05
0.000241414
-4.50688e-05
0.000251499
-4.7519e-05
0.000262642
-5.03143e-05
-5.31496e-05
4.88367e-05
-5.73193e-06
9.18884e-05
-1.61229e-05
0.000127583
-2.45525e-05
0.000156485
-3.10415e-05
0.000179458
-3.58511e-05
0.000197457
-3.92744e-05
0.000211468
-4.16106e-05
0.00022245
-4.31482e-05
0.000231279
-4.41536e-05
0.000238745
-4.4868e-05
0.000245515
-4.54952e-05
0.000252135
-4.61994e-05
0.000259035
-4.71077e-05
0.000266523
-4.83076e-05
0.000274817
-4.98509e-05
0.000284037
-5.17571e-05
0.000294232
-5.40191e-05
0.000305386
-5.66086e-05
0.000317418
-5.94782e-05
-6.22995e-05
5.32358e-05
-5.73754e-06
0.000100544
-1.61905e-05
0.000140336
-2.47973e-05
0.000173225
-3.1592e-05
0.0002001
-3.68287e-05
0.000221917
-4.07829e-05
0.000239655
-4.37286e-05
0.000254231
-4.59247e-05
0.000266478
-4.76087e-05
0.000277156
-4.89931e-05
0.000286904
-5.02576e-05
0.000296242
-5.15477e-05
0.00030559
-5.29747e-05
0.000315258
-5.4617e-05
0.000325467
-5.65217e-05
0.000336351
-5.87091e-05
0.000347979
-6.11765e-05
0.000360364
-6.39028e-05
0.00037345
-6.68501e-05
-6.96752e-05
5.75929e-05
-5.62385e-06
0.000109135
-1.59145e-05
0.000153018
-2.44958e-05
0.000189894
-3.1411e-05
0.00022067
-3.69017e-05
0.000246303
-4.12221e-05
0.000267745
-4.46191e-05
0.000285888
-4.7324e-05
0.000301538
-4.95468e-05
0.000315422
-5.1473e-05
0.000328155
-5.32594e-05
0.000340245
-5.50329e-05
0.000352096
-5.68908e-05
0.000364018
-5.89016e-05
0.000376235
-6.11078e-05
0.000388893
-6.3529e-05
0.000402078
-6.6165e-05
0.000415822
-6.90003e-05
0.000430093
-7.20037e-05
-7.48269e-05
6.18466e-05
-5.38213e-06
0.000117542
-1.52685e-05
0.000165455
-2.36033e-05
0.000206267
-3.04344e-05
0.000240894
-3.59859e-05
0.000270288
-4.04883e-05
0.000295379
-4.41609e-05
0.000317037
-4.72071e-05
0.00033605
-4.98099e-05
0.000353113
-5.21298e-05
0.000368822
-5.43016e-05
0.00038367
-5.64345e-05
0.000398052
-5.86121e-05
0.000412273
-6.08937e-05
0.000426561
-6.33166e-05
0.000441071
-6.58985e-05
0.000455901
-6.86407e-05
0.0004711
-7.15312e-05
0.000486653
-7.4544e-05
-7.73361e-05
6.59417e-05
-5.00625e-06
0.000125656
-1.42336e-05
0.000177487
-2.20866e-05
0.000222133
-2.86142e-05
0.000260514
-3.40185e-05
0.000293574
-3.85034e-05
0.000322224
-4.226e-05
0.000347315
-4.54637e-05
0.000369615
-4.82712e-05
0.000389797
-5.08187e-05
0.000408438
-5.32204e-05
0.000426018
-5.55685e-05
0.000442922
-5.79336e-05
0.000459454
-6.03657e-05
0.000475841
-6.28967e-05
0.000492245
-6.55418e-05
0.000508775
-6.83028e-05
0.000525489
-7.117e-05
0.000542384
-7.41212e-05
-7.68293e-05
6.98303e-05
-4.49306e-06
0.000133381
-1.27995e-05
0.000188969
-1.99267e-05
0.000237297
-2.59213e-05
0.000279286
-3.09595e-05
0.00031587
-3.5216e-05
0.000347944
-3.8853e-05
0.000376342
-4.20176e-05
0.000401813
-4.48406e-05
0.000425012
-4.7435e-05
0.000446501
-4.98951e-05
0.000466746
-5.22967e-05
0.000486126
-5.4698e-05
0.000504942
-5.714e-05
0.000523419
-5.96489e-05
0.000541725
-6.22373e-05
0.00055997
-6.49065e-05
0.000578224
-6.76484e-05
0.000596489
-7.0444e-05
-7.29931e-05
7.34681e-05
-3.84251e-06
0.000140624
-1.09648e-05
0.000199757
-1.71191e-05
0.000251564
-2.23465e-05
0.000296964
-2.67939e-05
0.000336878
-3.06048e-05
0.00037219
-3.39112e-05
0.000403717
-3.6832e-05
0.000432193
-3.94723e-05
0.00045826
-4.19221e-05
0.000482464
-4.42567e-05
0.000505264
-4.65364e-05
0.000527031
-4.88071e-05
0.00054806
-5.11012e-05
0.000568578
-5.34393e-05
0.000588751
-5.58309e-05
0.000608693
-5.82769e-05
0.000628476
-6.07702e-05
0.000648109
-6.32948e-05
-6.55889e-05
7.68159e-05
-3.05786e-06
0.000147302
-8.73825e-06
0.000209715
-1.36754e-05
0.000264742
-1.79032e-05
0.000313294
-2.15357e-05
0.000356285
-2.46834e-05
0.000394587
-2.7447e-05
0.000429007
-2.99168e-05
0.000460265
-3.2172e-05
0.000488992
-3.42806e-05
0.000515726
-3.62991e-05
0.000540916
-3.82723e-05
0.000564928
-4.02346e-05
0.000588052
-4.22101e-05
0.000610514
-4.42137e-05
0.000632479
-4.62523e-05
0.000654061
-4.83259e-05
0.000675333
-5.04287e-05
0.000696304
-5.25476e-05
-5.44713e-05
7.98419e-05
-2.14575e-06
0.000153339
-6.13854e-06
0.000218713
-9.62488e-06
0.000276638
-1.26295e-05
0.000328017
-1.5231e-05
0.00037376
-1.7505e-05
0.000414734
-1.95196e-05
0.000451737
-2.13359e-05
0.000485483
-2.30074e-05
0.000516595
-2.45798e-05
0.000545604
-2.60907e-05
0.000572955
-2.75705e-05
0.000599008
-2.90418e-05
0.000624053
-3.05207e-05
0.00064831
-3.20169e-05
0.000671944
-3.35345e-05
0.00069507
-3.50731e-05
0.000717756
-3.66281e-05
0.000740014
-3.819e-05
-3.96103e-05
8.253e-05
-1.11611e-06
0.000158681
-3.19497e-06
0.000226637
-5.01539e-06
0.000287063
-6.59112e-06
0.000340864
-7.96272e-06
0.000388951
-9.16867e-06
0.000432191
-1.02437e-05
0.00047138
-1.12186e-05
0.000507231
-1.21207e-05
0.000540366
-1.29728e-05
0.000571313
-1.37941e-05
0.000600514
-1.45998e-05
0.000628329
-1.54013e-05
0.000655045
-1.62067e-05
0.000680883
-1.70206e-05
0.000706006
-1.7845e-05
0.000730527
-1.86793e-05
0.000754517
-1.95206e-05
0.000777987
-2.03629e-05
-2.11317e-05
8.49214e-05
0.000163344
0.000233442
0.00029589
0.000351606
0.000401511
0.00044648
0.00048732
0.000524747
0.00055939
0.00059178
0.000622364
0.000651503
0.000679487
0.000706536
0.000732816
0.000758441
0.000783484
0.00080796
)
;

boundaryField
{
    inlet
    {
        type            calculated;
        value           uniform 0;
    }
    outlet
    {
        type            calculated;
        value           nonuniform 0();
    }
    flap
    {
        type            calculated;
        value           nonuniform 0();
    }
    upperWall
    {
        type            calculated;
        value           uniform 0;
    }
    lowerWall
    {
        type            calculated;
        value           nonuniform 0();
    }
    frontAndBack
    {
        type            empty;
        value           nonuniform 0();
    }
    procBoundary0to1
    {
        type            processor;
        value           nonuniform List<scalar> 
18
(
5.05471e-05
8.97947e-05
-1.18598e-05
0.000122014
0.000169593
0.000220254
0.00027353
0.000328866
0.000385642
0.00044318
0.000500747
0.000557564
0.000612798
0.000665563
0.000714894
0.000759711
0.000798754
0.00082964
)
;
    }
    procBoundary0to3
    {
        type            processor;
        value           nonuniform List<scalar> 
34
(
-4.58999e-07
-2.13665e-06
-2.75753e-06
-4.80358e-06
-8.60381e-06
-9.20814e-06
-1.85865e-05
-1.52794e-05
-3.19319e-05
-2.25264e-05
-4.71979e-05
-3.02327e-05
-6.2668e-05
-3.76491e-05
-4.73588e-05
-9.84039e-05
-5.25474e-05
-0.000106243
-5.53813e-05
-6.07931e-05
-0.000120899
-5.90757e-05
-6.05665e-05
-0.000116195
-5.42517e-05
-9.4571e-05
-4.53367e-05
-4.26376e-05
-5.95209e-05
-3.09929e-05
-2.68209e-05
-9.8911e-06
-1.3404e-05
-8.53526e-06
)
;
    }
}


// ************************************************************************* //
