/*--------------------------------*- C++ -*----------------------------------*\
| =========                 |                                                 |
| \\      /  F ield         | OpenFOAM: The Open Source CFD Toolbox           |
|  \\    /   O peration     | Version:  dev                                   |
|   \\  /    A nd           | Web:      www.OpenFOAM.org                      |
|    \\/     M anipulation  |                                                 |
\*---------------------------------------------------------------------------*/
FoamFile
{
    version     2.0;
    format      ascii;
    class       volVectorField;
    location    "4.97";
    object      U;
}
// * * * * * * * * * * * * * * * * * * * * * * * * * * * * * * * * * * * * * //

dimensions      [0 1 -1 0 0 0 0];

internalField   nonuniform List<vector> 
465
(
(9.99282 3.86241e-19 0.0951223)
(9.9839 3.99752e-19 0.184722)
(9.99307 -3.73147e-19 0.0985598)
(9.98546 -3.86105e-19 0.191387)
(9.97199 4.02983e-19 0.283871)
(9.99337 3.63645e-19 0.101677)
(9.98709 3.76225e-19 0.197395)
(9.97578 0 0.292782)
(9.95743 0 0.391048)
(9.9937 0 0.104431)
(9.98879 4.55071e-20 0.202665)
(9.97975 -1.41721e-19 0.300632)
(9.96426 9.78669e-20 0.401535)
(9.9446 -4.04577e-19 0.506902)
(9.9941 0 0.106779)
(9.99056 3.51786e-19 0.207126)
(9.9838 -3.65019e-19 0.307331)
(9.9713 0 0.410517)
(9.95545 2.43174e-21 0.517961)
(9.93795 2.02319e-19 0.630804)
(9.99464 0 0.108673)
(9.99237 -3.42783e-19 0.210747)
(9.98771 3.55592e-19 0.31279)
(9.97844 9.18865e-20 0.41782)
(9.96671 4.76413e-19 0.526842)
(9.954 -3.93082e-19 0.64102)
(9.94074 -2.02572e-19 0.762068)
(9.99519 3.19524e-19 0.110082)
(9.99416 0 0.213507)
(9.99161 2.56474e-19 0.316917)
(9.98573 1.77788e-19 0.423244)
(9.97833 -9.18624e-20 0.533368)
(9.97028 0 0.648416)
(9.96223 0 0.770238)
(9.95459 0 0.900196)
(9.94781 -4.12338e-19 1.03866)
(9.9956 -3.11438e-19 0.111018)
(9.9958 0 0.215344)
(9.99558 -3.33541e-19 0.319573)
(9.99313 -8.60486e-20 0.426627)
(9.99005 -3.54363e-19 0.537415)
(9.9867 2.75045e-19 0.65294)
(9.98368 -3.77562e-19 0.774935)
(9.98222 1.94069e-19 0.904802)
(9.98276 2.00094e-19 1.04287)
(9.98526 4.08032e-19 1.18955)
(9.99606 0 0.111476)
(9.99747 3.09783e-19 0.216197)
(9.99948 4.01359e-19 0.320689)
(10.0002 -8.32434e-20 0.427894)
(10.0014 3.4508e-19 0.538826)
(10.003 0 0.654404)
(10.0051 3.63104e-19 0.776058)
(10.0096 1.8715e-19 0.905078)
(10.0172 -1.92062e-19 1.04191)
(10.0274 -3.92909e-19 1.18689)
(10.0418 -2.01177e-19 1.34092)
(10.0611 2.06301e-19 1.50479)
(9.99669 -5.62926e-19 0.111364)
(9.99938 -3.58367e-19 0.216034)
(10.0034 -2.73705e-19 0.32032)
(10.0071 0 0.427073)
(10.0123 -8.31046e-20 0.53749)
(10.0187 8.5632e-20 0.65259)
(10.026 -3.53492e-19 0.773426)
(10.0364 0 0.900937)
(10.0507 -3.68363e-19 1.03572)
(10.0683 7.55574e-19 1.17823)
(10.0906 -3.87507e-19 1.32918)
(10.1184 1.97815e-19 1.48915)
(10.1524 0 1.65838)
(10.194 1.99606e-19 1.83701)
(9.9973 5.66649e-19 0.110604)
(10.0012 2.90534e-19 0.214811)
(10.0075 7.53956e-20 0.31844)
(10.0142 -7.79514e-20 0.424165)
(10.023 0 0.533449)
(10.0336 -3.29611e-19 0.647473)
(10.0461 3.38501e-19 0.766888)
(10.0624 0 0.892244)
(10.083 3.5858e-19 1.02431)
(10.1075 -7.2911e-19 1.16368)
(10.1371 1.85417e-19 1.31079)
(10.1728 -1.8953e-19 1.46599)
(10.2153 -3.81637e-19 1.6294)
(10.2657 0 1.80103)
(10.3251 0 1.98078)
(9.99759 -1.70972e-20 0.109231)
(10.0028 -2.65596e-19 0.212475)
(10.0115 0 0.31491)
(10.0214 -2.25178e-19 0.419117)
(10.0334 -7.77622e-20 0.52681)
(10.0479 3.21057e-19 0.639138)
(10.0653 -6.56581e-19 0.756397)
(10.0872 0 0.878963)
(10.1136 0 1.00774)
(10.1445 1.77885e-19 1.14331)
(10.181 8.6635e-22 1.28582)
(10.2239 1.99005e-21 1.43545)
(10.2741 7.37569e-19 1.59226)
(10.3324 1.83878e-19 1.75614)
(10.3998 0 1.92681)
(10.4773 -3.83802e-19 2.10384)
(10.5658 -3.80099e-19 2.28658)
(9.99746 5.28412e-19 0.10732)
(10.0042 -3.41598e-20 0.208973)
(10.0154 3.53603e-20 0.309663)
(10.028 2.92921e-19 0.411946)
(10.043 0 0.517597)
(10.0613 0 0.627564)
(10.0835 3.1846e-19 0.741964)
(10.1105 0 0.861183)
(10.1422 3.30373e-19 0.986096)
(10.1791 0 1.11716)
(10.222 -1.71912e-19 1.25437)
(10.2716 5.28387e-19 1.39777)
(10.3287 -1.81404e-19 1.54735)
(10.3939 1.75988e-19 1.70288)
(10.4682 1.80708e-19 1.86397)
(10.5523 -1.84195e-19 2.03006)
(10.647 3.71221e-19 2.20042)
(10.753 -2.75031e-19 2.37415)
(10.8711 1.39044e-19 2.55008)
(9.99724 -3.43366e-21 0.104911)
(10.0055 0 0.204307)
(10.0189 0 0.302752)
(10.0339 -3.16694e-19 0.402702)
(10.0518 1.08993e-19 0.505756)
(10.0739 -7.47713e-20 0.612678)
(10.1006 -3.05081e-19 0.723614)
(10.1322 0 0.838973)
(10.169 1.56713e-19 0.959445)
(10.2114 -3.26572e-19 1.08534)
(10.2601 1.66706e-19 1.21663)
(10.3157 0 1.35326)
(10.3788 -3.44592e-19 1.4951)
(10.45 8.18096e-20 1.64185)
(10.5301 -8.79467e-20 1.79304)
(10.6196 -2.62791e-19 1.94802)
(10.7192 2.65458e-19 2.10601)
(10.8293 1.79351e-19 2.2661)
(10.9504 0 2.42718)
(11.0827 8.80972e-20 2.5879)
(11.2263 -3.53949e-19 2.74673)
(9.99716 -4.91846e-19 0.101986)
(10.0067 8.00528e-21 0.198541)
(10.022 -1.65823e-20 0.294236)
(10.0394 2.74392e-19 0.391359)
(10.0602 0 0.491233)
(10.0858 3.5986e-19 0.594513)
(10.1165 5.18078e-19 0.70144)
(10.1525 0 0.8124)
(10.1939 -2.33661e-19 0.927883)
(10.2413 -7.90166e-20 1.04808)
(10.2952 -3.1907e-19 1.17293)
(10.356 8.10777e-20 1.30231)
(10.4244 -8.28747e-20 1.43602)
(10.5007 -3.36123e-19 1.57369)
(10.5856 0 1.71477)
(10.6795 1.92245e-19 1.85863)
(10.7827 -1.93708e-19 2.00443)
(10.8956 -4.25413e-20 2.15128)
(11.0185 4.3378e-20 2.29817)
(11.1514 1.70953e-19 2.44391)
(11.294 1.72908e-19 2.58713)
(9.99717 1.88512e-21 0.0985244)
(10.0078 5.82207e-21 0.191726)
(10.0249 -2.63985e-19 0.284141)
(10.0445 0 0.377887)
(10.0681 2.71233e-19 0.474039)
(10.0969 -2.20395e-21 0.573169)
(10.1313 -3.23167e-19 0.675569)
(10.1712 3.66646e-20 0.781593)
(10.2169 -2.97393e-19 0.891588)
(10.2688 7.58264e-20 1.00562)
(10.3272 2.33529e-19 1.1236)
(10.3926 0 1.24536)
(10.4654 0 1.37064)
(10.546 0 1.49901)
(10.6348 -5.05125e-21 1.62992)
(10.7321 -1.51957e-20 1.76273)
(10.838 -1.02321e-19 1.89666)
(10.9527 -4.17558e-20 2.03083)
(11.0763 8.22882e-20 2.16428)
(11.2087 -4.15948e-19 2.29597)
(9.9972 0 0.0945224)
(10.0089 -2.40575e-19 0.183878)
(10.0276 2.53866e-19 0.272487)
(10.0493 -4.00981e-21 0.362313)
(10.0755 -2.64535e-19 0.454242)
(10.1072 -2.71449e-19 0.548752)
(10.1449 -2.9302e-19 0.646127)
(10.1884 1.77268e-20 0.746716)
(10.2379 3.25996e-19 0.850787)
(10.2937 -3.68695e-20 0.958263)
(10.356 0 1.06898)
(10.4254 -9.43764e-21 1.18283)
(10.502 1.08472e-20 1.29948)
(10.586 -1.36584e-19 1.41846)
(10.6778 -1.97444e-20 1.53923)
(10.7775 0 1.66119)
(10.8852 8.09314e-20 1.78362)
(11.0008 -2.39961e-19 1.90566)
(11.1243 -1.59156e-19 2.02644)
(11.2555 1.61667e-19 2.14503)
(9.99724 0 0.0899912)
(10.0099 2.34643e-19 0.175014)
(10.0301 -7.529e-21 0.259306)
(10.0538 3.89587e-21 0.344691)
(10.0822 3.99346e-21 0.431919)
(10.1167 -2.60766e-19 0.52137)
(10.1573 2.66883e-19 0.613258)
(10.2039 4.27531e-21 0.707933)
(10.2569 -1.64389e-21 0.805677)
(10.3162 -2.8353e-19 0.906294)
(10.3819 -2.78595e-19 1.00949)
(10.4544 -9.20103e-21 1.11516)
(10.5341 1.47795e-19 1.22306)
(10.6208 1.88394e-19 1.33267)
(10.7148 3.7439e-20 1.44346)
(10.8161 7.7008e-20 1.55484)
(10.9247 1.54962e-19 1.66613)
(11.0406 1.55792e-19 1.77659)
(11.1634 1.5471e-19 1.88542)
(11.293 3.1104e-19 1.99182)
(9.99728 0 0.0849486)
(10.0108 2.26198e-19 0.16516)
(10.0324 0 0.244634)
(10.0578 0 0.32507)
(10.0884 -2.46417e-19 0.40712)
(10.1255 5.06986e-19 0.491103)
(10.1688 -2.74535e-19 0.577151)
(10.218 -2.30733e-19 0.665511)
(10.2737 -2.85896e-19 0.756492)
(10.3362 5.49863e-19 0.84997)
(10.4047 2.80655e-19 0.945531)
(10.4797 0 1.04295)
(10.5617 -3.58633e-19 1.14202)
(10.6504 7.30257e-20 1.24229)
(10.7459 -1.47501e-19 1.34325)
(10.8482 0 1.44432)
(10.9572 0 1.54489)
(11.0727 -1.49223e-19 1.6443)
(11.1943 -1.51389e-19 1.74187)
(11.3219 -1.48779e-19 1.83693)
(9.99732 1.3377e-20 0.0794113)
(10.0116 -2.88716e-20 0.154345)
(10.0344 2.68778e-19 0.228521)
(10.0614 -2.61913e-19 0.303517)
(10.094 4.7936e-19 0.379906)
(10.1333 -4.91219e-19 0.458009)
(10.1791 5.02405e-19 0.537972)
(10.2305 2.57429e-19 0.619833)
(10.2884 4.90301e-19 0.703721)
(10.3531 -2.33775e-19 0.789697)
(10.424 -6.72563e-20 0.877462)
(10.5012 1.37225e-19 0.966609)
(10.5849 2.09394e-19 1.05684)
(10.6751 0 1.14783)
(10.7717 0 1.23911)
(10.8745 -1.42622e-19 1.33015)
(10.9833 0 1.42042)
(11.098 4.34572e-19 1.50934)
(11.2181 -2.92518e-19 1.59634)
(11.3433 1.43025e-19 1.68083)
(9.99737 -2.07511e-19 0.0733888)
(10.0123 -2.1454e-19 0.142595)
(10.0363 -1.31588e-21 0.211037)
(10.0647 2.55428e-19 0.280168)
(10.0988 -2.62264e-19 0.350487)
(10.1398 2.38867e-19 0.422324)
(10.1875 -2.4426e-19 0.495882)
(10.2412 6.18853e-20 0.571052)
(10.3011 -3.80739e-19 0.64771)
(10.3676 -1.28862e-19 0.725943)
(10.4403 -6.57104e-20 0.805637)
(10.5192 -1.99555e-19 0.88639)
(10.6044 6.61267e-20 0.967839)
(10.6955 -2.72094e-19 1.04967)
(10.7926 1.38353e-19 1.13149)
(10.8955 1.39393e-19 1.21284)
(11.0038 1.38764e-19 1.29324)
(11.1173 -2.83279e-19 1.3722)
(11.2356 1.4217e-19 1.44922)
(11.3583 0 1.52384)
(9.99741 2.15491e-19 0.0668878)
(10.013 1.94289e-19 0.129935)
(10.038 2.54951e-20 0.192253)
(10.0676 -2.75187e-20 0.255165)
(10.103 -1.68602e-19 0.319109)
(10.1454 -5.78522e-20 0.384367)
(10.1946 5.88053e-20 0.451112)
(10.2501 -4.09678e-22 0.519215)
(10.312 1.83842e-19 0.588474)
(10.38 1.8754e-19 0.658892)
(10.4541 6.36744e-20 0.730395)
(10.5343 1.20189e-21 0.802679)
(10.6203 2.60861e-19 0.875401)
(10.7121 0 0.948242)
(10.8093 -1.32771e-19 1.02085)
(10.9118 -1.34013e-19 1.09283)
(11.0193 1.35113e-19 1.16377)
(11.1314 0 1.23324)
(11.2477 1.36894e-19 1.30085)
(11.3679 0 1.3662)
(9.99745 -1.96293e-19 0.0599217)
(10.0136 -1.77367e-19 0.116395)
(10.0394 -4.41757e-19 0.172225)
(10.0701 0 0.228594)
(10.1068 2.19526e-19 0.285871)
(10.1504 5.585e-20 0.344261)
(10.2009 -5.74002e-20 0.40386)
(10.2578 -5.81745e-20 0.464566)
(10.3211 -2.37519e-19 0.526216)
(10.3903 -6.06774e-20 0.58874)
(10.4655 0 0.652034)
(10.5465 0 0.715858)
(10.6331 -3.78363e-19 0.779915)
(10.7251 1.28593e-19 0.843909)
(10.8221 9.04313e-22 0.907526)
(10.924 -2.58125e-19 0.970426)
(11.0304 -1.28167e-19 1.03226)
(11.1409 2.67051e-19 1.09269)
(11.2552 -3.31814e-19 1.15137)
(11.3728 2.70403e-19 1.20799)
(9.9975 1.79985e-19 0.052505)
(10.0142 -1.22389e-20 0.102008)
(10.0408 2.27864e-19 0.151006)
(10.0724 5.17492e-20 0.200524)
(10.11 -2.12354e-19 0.250841)
(10.1547 2.99613e-22 0.302086)
(10.2063 1.11105e-19 0.354303)
(10.2644 -5.68669e-20 0.407416)
(10.3286 6.4946e-22 0.461294)
(10.3988 0 0.51583)
(10.4748 -1.18662e-19 0.570897)
(10.5563 9.40235e-22 0.626292)
(10.6431 7.50949e-22 0.681767)
(10.735 0 0.737062)
(10.8316 1.25813e-19 0.791903)
(10.9327 1.27035e-19 0.846004)
(11.0378 2.53492e-19 0.899077)
(11.1467 -3.97114e-21 0.950838)
(11.259 -5.83054e-19 1.00101)
(11.3741 4.42845e-21 1.04936)
(9.99755 -1.6284e-19 0.0446377)
(10.0147 1.6702e-19 0.0867867)
(10.042 -1.962e-19 0.128642)
(10.0744 0 0.171033)
(10.1129 1.03581e-19 0.214121)
(10.1585 0 0.257966)
(10.211 -1.0773e-19 0.302582)
(10.2699 -1.09661e-19 0.347908)
(10.3349 2.24952e-19 0.393839)
(10.4057 0 0.440258)
(10.4821 0 0.487036)
(10.5638 9.87272e-22 0.534)
(10.6506 2.39006e-19 0.580944)
(10.7422 0 0.627647)
(10.8382 -1.81666e-19 0.67388)
(10.9384 3.06604e-19 0.719406)
(11.0422 -4.96071e-19 0.76399)
(11.1495 4.37625e-19 0.807403)
(11.2597 -2.53761e-19 0.849428)
(11.3725 6.3203e-20 0.889872)
(9.99764 1.82018e-19 0.0362871)
(10.0153 -9.36429e-20 0.0707132)
(10.0433 2.87235e-19 0.105165)
(10.0764 9.79703e-20 0.140212)
(10.1156 -5.01181e-20 0.17588)
(10.1619 -5.10804e-20 0.212173)
(10.215 1.05178e-19 0.249082)
(10.2745 0 0.286548)
(10.3399 1.08467e-19 0.324474)
(10.4111 -1.11253e-19 0.362751)
(10.4877 -1.12281e-19 0.401256)
(10.5695 0 0.439842)
(10.6561 5.76919e-20 0.478342)
(10.7472 1.16268e-19 0.516577)
(10.8425 -5.97368e-20 0.554363)
(10.9416 2.64607e-22 0.59151)
(11.0442 -2.99482e-19 0.627834)
(11.1498 6.07583e-19 0.663156)
(11.2581 -3.86443e-21 0.69731)
(11.3687 -3.10084e-19 0.730148)
(9.99781 -8.84749e-20 0.0273431)
(10.0161 -2.4069e-22 0.0537325)
(10.0449 -9.33349e-20 0.0805412)
(10.0787 -9.56971e-20 0.107923)
(10.1185 0 0.135803)
(10.1652 1.50031e-19 0.16419)
(10.2188 -5.12058e-20 0.193083)
(10.2786 1.37568e-22 0.222428)
(10.3444 1.06075e-19 0.252137)
(10.4157 1.07191e-19 0.282113)
(10.4923 -1.09103e-19 0.312247)
(10.5739 1.11501e-19 0.34242)
(10.6601 5.54115e-20 0.372498)
(10.7506 -5.76251e-20 0.402337)
(10.8451 0 0.431794)
(10.9431 5.81963e-20 0.460721)
(11.0444 2.01473e-22 0.488977)
(11.1485 -2.93755e-19 0.516426)
(11.255 2.10204e-19 0.542943)
(11.3635 2.99228e-20 0.568418)
(9.99824 1.44309e-22 0.0174648)
(10.0175 -8.86289e-20 0.0359376)
(10.0471 -6.80325e-20 0.0555096)
(10.0813 -2.31825e-20 0.0755291)
(10.1214 -4.75955e-20 0.0958128)
(10.1684 4.85348e-20 0.116417)
(10.2222 -4.98534e-20 0.137359)
(10.2823 -5.07213e-20 0.158597)
(10.3481 -5.14503e-20 0.180064)
(10.4194 1.04986e-19 0.20169)
(10.4959 -1.05863e-19 0.223401)
(10.5772 5.45741e-20 0.245112)
(10.6629 -5.46106e-20 0.266729)
(10.7528 5.45418e-20 0.288155)
(10.8464 -1.12566e-19 0.309288)
(10.9434 0 0.330027)
(11.0434 8.55824e-20 0.350273)
(11.1461 0 0.369933)
(11.2509 5.79363e-20 0.38892)
(11.3577 -2.91939e-20 0.407161)
(9.99965 9.49431e-20 0.0053669)
(10.0212 1.07455e-20 0.0148047)
(10.0517 4.60182e-23 0.026273)
(10.0861 6.81414e-20 0.0382777)
(10.1262 2.3324e-20 0.0505383)
(10.1732 2.3788e-20 0.0630945)
(10.227 2.41955e-20 0.0759335)
(10.2869 0 0.0889939)
(10.3525 -5.02587e-20 0.102212)
(10.4235 -5.1085e-20 0.11553)
(10.4995 0 0.128894)
(10.5802 1.04835e-19 0.142245)
(10.6653 -2.34167e-22 0.155521)
(10.7544 -8.04271e-20 0.16866)
(10.8471 1.08864e-19 0.181598)
(10.943 -5.53492e-20 0.194271)
(11.0419 8.24024e-20 0.206621)
(11.1432 -2.23771e-19 0.218592)
(11.2466 1.97242e-19 0.230132)
(11.3517 -1.00211e-19 0.241198)
(9.98575 2.57243e-21 -0.000761886)
(9.99517 -7.90074e-21 0.00133563)
(10.0121 5.41395e-21 0.00466874)
(10.0326 0 0.00834134)
(10.0595 0 0.0122028)
(10.0941 0 0.0162613)
(10.1361 -1.18682e-20 0.0204987)
(10.1848 -1.2081e-20 0.0248791)
(10.2399 0 0.0293703)
(10.301 -1.23909e-20 0.0339453)
(10.3677 1.27017e-20 0.0385795)
(10.4396 0 0.0432476)
(10.5165 0 0.0479239)
(10.5978 2.62983e-20 0.0525819)
(10.6832 0 0.0571953)
(10.7723 0 0.0617383)
(10.8646 -2.6893e-20 0.066186)
(10.9598 2.75124e-20 0.0705152)
(11.0574 0 0.0747043)
(11.1571 -4.13507e-20 0.0787351)
)
;

boundaryField
{
    inlet
    {
        type            fixedValue;
        value           uniform (10 0 0);
    }
    outlet
    {
        type            zeroGradient;
    }
    flap
    {
        type            movingWallVelocity;
        value           nonuniform 0();
    }
    upperWall
    {
        type            noSlip;
    }
    lowerWall
    {
        type            noSlip;
    }
    frontAndBack
    {
        type            empty;
    }
    procBoundary0to1
    {
        type            processor;
        value           nonuniform List<vector> 
18
(
(11.381 -9.18188e-20 2.90209)
(11.4462 -1.722e-19 2.72641)
(11.3496 -3.32203e-19 2.42474)
(11.3496 -3.32203e-19 2.42474)
(11.3941 1.62604e-19 2.26047)
(11.4288 3.12866e-19 2.095)
(11.4548 -3.06974e-19 1.92882)
(11.4731 2.70271e-21 1.76227)
(11.485 2.8531e-19 1.5956)
(11.4914 -1.39043e-19 1.42894)
(11.4934 0 1.26226)
(11.4917 -2.64113e-19 1.09564)
(11.4874 2.52399e-19 0.928559)
(11.4811 0 0.761539)
(11.4737 0 0.592756)
(11.4659 8.70176e-20 0.424589)
(11.4582 1.41805e-19 0.251754)
(11.2584 -4.56969e-22 0.0825916)
)
;
    }
    procBoundary0to3
    {
        type            processor;
        value           nonuniform List<vector> 
34
(
(9.99255 4.26915e-19 0.0914214)
(9.98245 7.55192e-19 0.177503)
(9.96836 4.13707e-19 0.274006)
(9.96836 4.13707e-19 0.274006)
(9.9508 -2.09184e-19 0.379158)
(9.9508 -2.09184e-19 0.379158)
(9.9341 0 0.493849)
(9.9341 0 0.493849)
(9.92234 -2.10559e-19 0.617856)
(9.92234 -2.10559e-19 0.617856)
(9.91919 0 0.750483)
(9.91919 0 0.750483)
(9.9267 -2.0833e-19 0.891324)
(9.9267 -2.0833e-19 0.891324)
(9.91243 0 1.02939)
(9.94233 -2.11869e-19 1.18622)
(9.94233 -2.11869e-19 1.18622)
(9.99113 0 1.34589)
(9.99113 0 1.34589)
(10.0014 2.14121e-19 1.5128)
(10.0858 2.09368e-19 1.67891)
(10.0858 2.09368e-19 1.67891)
(10.1177 2.93326e-21 1.86366)
(10.2443 4.11076e-19 2.02518)
(10.2443 4.11076e-19 2.02518)
(10.3947 -1.96442e-19 2.1684)
(10.3947 -1.96442e-19 2.1684)
(10.4757 -2.00462e-19 2.36337)
(10.6665 5.77726e-19 2.47419)
(10.6665 5.77726e-19 2.47419)
(10.7802 -2.88837e-19 2.6655)
(11.0018 -1.28152e-19 2.72672)
(11.0018 -1.28152e-19 2.72672)
(11.1452 3.3791e-20 2.90244)
)
;
    }
}


// ************************************************************************* //
