/*--------------------------------*- C++ -*----------------------------------*\
| =========                 |                                                 |
| \\      /  F ield         | OpenFOAM: The Open Source CFD Toolbox           |
|  \\    /   O peration     | Version:  dev                                   |
|   \\  /    A nd           | Web:      www.OpenFOAM.org                      |
|    \\/     M anipulation  |                                                 |
\*---------------------------------------------------------------------------*/
FoamFile
{
    version     2.0;
    format      ascii;
    class       volVectorField;
    location    "0.88";
    object      cellDisplacement;
}
// * * * * * * * * * * * * * * * * * * * * * * * * * * * * * * * * * * * * * //

dimensions      [0 1 0 0 0 0 0];

internalField   nonuniform List<vector> 
465
(
(0.0496348 0 0.000120719)
(0.0430251 0 0.000225991)
(0.0362442 0 0.000349214)
(0.0294252 0 0.000491621)
(0.0227382 0 0.000654114)
(0.0164101 0 0.000836852)
(0.0107558 0 0.00103752)
(0.00622592 0 0.00124607)
(0.00365942 0 0.00142993)
(0.0511987 0 0.000335419)
(0.0448021 0 0.000645429)
(0.0382619 0 0.00100779)
(0.031714 0 0.00142541)
(0.0253295 0 0.00189964)
(0.0193417 0 0.00242915)
(0.0140951 0 0.00300526)
(0.010082 0 0.0035928)
(0.00814209 0 0.00408453)
(0.0542916 0 0.000468842)
(0.0483171 0 0.000964291)
(0.0422563 0 0.00154202)
(0.0362558 0 0.00220515)
(0.0304897 0 0.00295335)
(0.0251787 0 0.00377985)
(0.0206695 0 0.00466033)
(0.0175524 0 0.00553305)
(0.0166588 0 0.0062158)
(0.0588662 0 0.000469001)
(0.0535063 0 0.00111795)
(0.0481373 0 0.00187198)
(0.0429264 0 0.00273215)
(0.0380673 0 0.00369254)
(0.0337918 0 0.00473484)
(0.0303815 0 0.00582089)
(0.0284302 0 0.00685315)
(0.0289256 0 0.00758077)
(0.0648951 0 0.000289001)
(0.0603343 0 0.00104936)
(0.0558465 0 0.00192848)
(0.0516351 0 0.00292217)
(0.0479079 0 0.00401578)
(0.0449268 0 0.00517609)
(0.0429706 0 0.00634526)
(0.0424533 0 0.00740226)
(0.0445641 0 0.0080295)
(0.0722668 0 -0.000109112)
(0.0687022 0 0.000709973)
(0.0653201 0 0.00165121)
(0.0622982 0 0.00270587)
(0.0598902 0 0.00384551)
(0.0584063 0 0.00501774)
(0.0581222 0 0.00614035)
(0.0593144 0 0.00708808)
(0.0631613 0 0.0074842)
(0.0808504 0 -0.000754196)
(0.0784367 0 6.85031e-05)
(0.0763611 0 0.00100098)
(0.0747617 0 0.00203056)
(0.0738684 0 0.00312365)
(0.0740592 0 0.0042025)
(0.0756274 0 0.00515716)
(0.0787746 0 0.00586006)
(0.084306 0 0.00592592)
(0.0905699 0 -0.00167258)
(0.0894257 0 -0.000904544)
(0.088777 0 -4.88137e-05)
(0.0887974 0 0.000869772)
(0.0896689 0 0.00181394)
(0.0916616 0 0.00270175)
(0.0951999 0 0.00338421)
(0.100409 0 0.00372392)
(0.107597 0 0.00338211)
(0.101241 0 -0.00287252)
(0.101523 0 -0.00222538)
(0.102417 0 -0.00151497)
(0.104172 0 -0.000784988)
(0.106972 0 -8.66575e-05)
(0.110935 0 0.000508578)
(0.116521 0 0.000827669)
(0.123762 0 0.0007223)
(0.132651 0 -8.80638e-05)
(0.112646 0 -0.00434656)
(0.114469 0 -0.00388522)
(0.117054 0 -0.00339792)
(0.120628 0 -0.0029314)
(0.12544 0 -0.00256129)
(0.13158 0 -0.00236015)
(0.139273 0 -0.00248282)
(0.148554 0 -0.00309649)
(0.159092 0 -0.0044094)
(0.124605 0 -0.00608669)
(0.127988 0 -0.00586192)
(0.132352 0 -0.00566808)
(0.137846 0 -0.00554401)
(0.144762 0 -0.00558018)
(0.153182 0 -0.00585813)
(0.163069 0 -0.0064926)
(0.174413 0 -0.00765691)
(0.186488 0 -0.00947492)
(0.136887 0 -0.0080688)
(0.141823 0 -0.00812752)
(0.147948 0 -0.00828031)
(0.155434 0 -0.00857417)
(0.164459 0 -0.00908241)
(0.175176 0 -0.00990516)
(0.187372 0 -0.0111156)
(0.200813 0 -0.0128497)
(0.214304 0 -0.0151407)
(0.149182 0 -0.0102444)
(0.155639 0 -0.0106303)
(0.163457 0 -0.011173)
(0.172839 0 -0.0119343)
(0.183907 0 -0.0129742)
(0.196856 0 -0.0143975)
(0.211386 0 -0.0162354)
(0.22694 0 -0.0185386)
(0.241795 0 -0.021248)
(0.161193 0 -0.0125575)
(0.169079 0 -0.0133017)
(0.178397 0 -0.0142551)
(0.189425 0 -0.0155054)
(0.202314 0 -0.0171187)
(0.217212 0 -0.0191845)
(0.233837 0 -0.0216974)
(0.251364 0 -0.0245779)
(0.267709 0 -0.0276705)
(0.172657 0 -0.0149459)
(0.181725 0 -0.0160445)
(0.192266 0 -0.0174098)
(0.20456 0 -0.0191427)
(0.218748 0 -0.021323)
(0.234889 0 -0.0240352)
(0.252727 0 -0.0272737)
(0.271301 0 -0.0308145)
(0.289439 0 -0.0344484)
(0.00442007 0 -0.00167649)
(0.00924456 0 -0.00185114)
(0.0190132 0 -0.00207613)
(0.0333884 0 -0.00233637)
(0.0511251 0 -0.00258967)
(0.0705478 0 -0.00279139)
(0.090032 0 -0.00292645)
(0.108293 0 -0.00299018)
(0.124524 0 -0.00299743)
(0.138346 0 -0.00295241)
(0.008458 0 -0.00508626)
(0.0135829 0 -0.00560626)
(0.0236079 0 -0.00628957)
(0.0381106 0 -0.00707202)
(0.0557157 0 -0.00779475)
(0.0748165 0 -0.00836943)
(0.0938647 0 -0.0087533)
(0.111632 0 -0.00892652)
(0.127354 0 -0.00891034)
(0.140702 0 -0.00875816)
(0.0162167 0 -0.00864444)
(0.0220219 0 -0.0095297)
(0.0326193 0 -0.0106951)
(0.0472524 0 -0.0119475)
(0.0645505 0 -0.0130736)
(0.0830616 0 -0.0139597)
(0.101246 0 -0.0145135)
(0.118034 0 -0.0147463)
(0.13278 0 -0.0146695)
(0.145222 0 -0.0143704)
(0.0274943 0 -0.0124806)
(0.0342645 0 -0.0137444)
(0.0455794 0 -0.0153697)
(0.0602677 0 -0.0170142)
(0.0771668 0 -0.0184744)
(0.0947531 0 -0.0195648)
(0.111672 0 -0.0201916)
(0.127074 0 -0.0203967)
(0.140446 0 -0.0202253)
(0.151598 0 -0.0197408)
(0.0419899 0 -0.0166915)
(0.0499359 0 -0.0183466)
(0.0619466 0 -0.0203627)
(0.0766451 0 -0.0223274)
(0.0929279 0 -0.0240074)
(0.109242 0 -0.0251675)
(0.124588 0 -0.0257775)
(0.138212 0 -0.0258496)
(0.149865 0 -0.0255076)
(0.159455 0 -0.0248156)
(0.0593859 0 -0.0213407)
(0.0686321 0 -0.0233918)
(0.0812287 0 -0.0257218)
(0.0957905 0 -0.027898)
(0.111145 0 -0.0296437)
(0.125892 0 -0.0307425)
(0.139311 0 -0.0312078)
(0.15088 0 -0.0310738)
(0.160575 0 -0.0304955)
(0.168423 0 -0.0295787)
(0.0793425 0 -0.0264563)
(0.0898324 0 -0.0288679)
(0.102884 0 -0.0314302)
(0.117103 0 -0.0336928)
(0.131145 0 -0.0353315)
(0.144009 0 -0.036229)
(0.15517 0 -0.0364129)
(0.16453 0 -0.0360148)
(0.1721 0 -0.0351525)
(0.178067 0 -0.0339794)
(0.101524 0 -0.0320381)
(0.11309 0 -0.0347432)
(0.1264 0 -0.0374304)
(0.139885 0 -0.0396072)
(0.152207 0 -0.0409659)
(0.162843 0 -0.0415134)
(0.17156 0 -0.0413273)
(0.178559 0 -0.0405941)
(0.183948 0 -0.039429)
(0.187985 0 -0.0379805)
(0.125623 0 -0.0380565)
(0.138063 0 -0.0409721)
(0.151246 0 -0.0436227)
(0.163431 0 -0.0454971)
(0.173615 0 -0.0464082)
(0.181703 0 -0.0464718)
(0.187863 0 -0.0458533)
(0.192437 0 -0.0447412)
(0.195687 0 -0.0432726)
(0.197843 0 -0.0415619)
(0.151344 0 -0.0444442)
(0.164359 0 -0.0474551)
(0.176834 0 -0.0498526)
(0.187067 0 -0.0511942)
(0.194657 0 -0.0514932)
(0.199979 0 -0.0509849)
(0.203524 0 -0.0498946)
(0.205731 0 -0.0484032)
(0.206927 0 -0.0466406)
(0.207304 0 -0.0446903)
(0.178402 0 -0.0511076)
(0.191512 0 -0.0540413)
(0.202433 0 -0.0558956)
(0.209976 0 -0.0564643)
(0.214571 0 -0.0560236)
(0.217018 0 -0.054905)
(0.218009 0 -0.0533511)
(0.217997 0 -0.0515115)
(0.217316 0 -0.0494931)
(0.216114 0 -0.0473515)
(0.206503 0 -0.057935)
(0.218856 0 -0.0604946)
(0.227056 0 -0.0614261)
(0.231187 0 -0.0610123)
(0.232551 0 -0.0597809)
(0.232187 0 -0.0580855)
(0.23084 0 -0.0561329)
(0.228911 0 -0.0540234)
(0.22664 0 -0.0518169)
(0.224121 0 -0.0495465)
(0.235211 0 -0.0647542)
(0.245192 0 -0.0663855)
(0.249308 0 -0.0659732)
(0.249559 0 -0.0644876)
(0.247777 0 -0.0625463)
(0.244999 0 -0.0604172)
(0.241757 0 -0.0581974)
(0.238327 0 -0.0559275)
(0.234815 0 -0.053623)
(0.231241 0 -0.0512913)
(0.263238 0 -0.0710883)
(0.268223 0 -0.0708778)
(0.267333 0 -0.0688958)
(0.264085 0 -0.066559)
(0.259842 0 -0.0641871)
(0.255308 0 -0.0618546)
(0.250741 0 -0.0595474)
(0.246236 0 -0.0572455)
(0.24181 0 -0.0549352)
(0.237432 0 -0.0526099)
(0.286003 0 -0.0752306)
(0.285519 0 -0.0725919)
(0.280209 0 -0.0695282)
(0.274507 0 -0.0669726)
(0.268808 0 -0.0646563)
(0.263254 0 -0.0624321)
(0.257881 0 -0.0602311)
(0.252687 0 -0.0580224)
(0.247639 0 -0.0557923)
(0.242687 0 -0.0535353)
(0.183476 0 -0.0173782)
(0.193431 0 -0.0188086)
(0.204841 0 -0.0205611)
(0.217864 0 -0.0227273)
(0.232564 0 -0.0254029)
(0.248782 0 -0.0286858)
(0.266048 0 -0.0326996)
(0.282947 0 -0.0375729)
(0.298363 0 -0.0443096)
(0.193459 0 -0.0197988)
(0.203963 0 -0.0215189)
(0.215756 0 -0.0235846)
(0.228844 0 -0.0260672)
(0.243124 0 -0.0290462)
(0.258137 0 -0.0325596)
(0.273076 0 -0.0366398)
(0.286662 0 -0.0412481)
(0.297736 0 -0.0465111)
(0.202279 0 -0.0221046)
(0.212947 0 -0.0240409)
(0.224617 0 -0.0263081)
(0.237139 0 -0.0289406)
(0.250227 0 -0.0319704)
(0.263324 0 -0.0353799)
(0.275716 0 -0.0391509)
(0.286523 0 -0.0432493)
(0.294779 0 -0.0476029)
(0.209751 0 -0.0242149)
(0.220217 0 -0.0262776)
(0.231326 0 -0.0286208)
(0.242853 0 -0.0312516)
(0.254474 0 -0.0341717)
(0.2657 0 -0.0373517)
(0.275993 0 -0.0407656)
(0.284658 0 -0.0443276)
(0.291031 0 -0.0479225)
(0.225761 0 -0.0281698)
(0.236076 0 -0.0304974)
(0.246495 0 -0.0330437)
(0.256707 0 -0.0357925)
(0.266325 0 -0.0387124)
(0.274903 0 -0.0417519)
(0.28196 0 -0.0448154)
(0.287101 0 -0.047815)
(0.248576 0 -0.0343984)
(0.257529 0 -0.036951)
(0.265788 0 -0.0396009)
(0.273005 0 -0.0422838)
(0.278872 0 -0.044926)
(0.28317 0 -0.0474566)
(0.264469 0 -0.0401222)
(0.270611 0 -0.0424871)
(0.275589 0 -0.0447787)
(0.279279 0 -0.0469384)
(0.272199 0 -0.044444)
(0.275425 0 -0.0463073)
(0.308581 0 -0.0516638)
(0.308518 0 -0.0575203)
(0.306221 0 -0.0636897)
(0.303592 0 -0.0511476)
(0.304453 0 -0.0547779)
(0.303545 0 -0.0581972)
(0.298408 0 -0.0510822)
(0.299497 0 -0.0534304)
(0.299461 0 -0.0556488)
(0.293765 0 -0.0506129)
(0.294823 0 -0.0523434)
(0.295176 0 -0.0539717)
(0.289397 0 -0.0499679)
(0.290406 0 -0.0513305)
(0.290928 0 -0.0526094)
(0.285193 0 -0.04923)
(0.286152 0 -0.0503454)
(0.286746 0 -0.051392)
(0.281099 0 -0.0484315)
(0.282006 0 -0.0493682)
(0.282626 0 -0.0502478)
(0.277077 0 -0.0475852)
(0.277931 0 -0.0483861)
(0.27855 0 -0.0491389)
(0.2739 0 -0.0473881)
(0.274505 0 -0.048041)
(0.298934 0 -0.0671227)
(0.293486 0 -0.0678405)
(0.287317 0 -0.0671588)
(0.28111 0 -0.0657962)
(0.27502 0 -0.0641219)
(0.269108 0 -0.0622871)
(0.263384 0 -0.06035)
(0.257832 0 -0.0583352)
(0.252418 0 -0.0562553)
(0.300096 0 -0.0621533)
(0.295176 0 -0.0641909)
(0.289972 0 -0.0645468)
(0.284433 0 -0.0640234)
(0.27873 0 -0.0629738)
(0.273 0 -0.0615936)
(0.267315 0 -0.0599928)
(0.261702 0 -0.058234)
(0.256152 0 -0.0563546)
(0.298069 0 -0.0586533)
(0.294591 0 -0.0610279)
(0.290355 0 -0.0619902)
(0.285621 0 -0.062045)
(0.280539 0 -0.0614995)
(0.275246 0 -0.0605374)
(0.269838 0 -0.0592763)
(0.264371 0 -0.0577927)
(0.258865 0 -0.0561377)
(0.294783 0 -0.056235)
(0.292564 0 -0.058411)
(0.2893 0 -0.0596308)
(0.285368 0 -0.060049)
(0.280951 0 -0.0598763)
(0.276185 0 -0.0592603)
(0.27117 0 -0.0583055)
(0.265975 0 -0.057087)
(0.260637 0 -0.0556588)
(0.291037 0 -0.0543977)
(0.289698 0 -0.0562669)
(0.287289 0 -0.0575157)
(0.284092 0 -0.0581292)
(0.280315 0 -0.0582102)
(0.276089 0 -0.057861)
(0.271512 0 -0.0571637)
(0.266654 0 -0.0561828)
(0.261558 0 -0.0549685)
(0.28712 0 -0.0528607)
(0.28638 0 -0.054458)
(0.284634 0 -0.0556268)
(0.282074 0 -0.0563206)
(0.278879 0 -0.0565594)
(0.275168 0 -0.0564039)
(0.271031 0 -0.055912)
(0.266534 0 -0.0551337)
(0.261722 0 -0.0541114)
(0.283143 0 -0.0514857)
(0.282801 0 -0.0528644)
(0.281548 0 -0.0539212)
(0.279518 0 -0.0546228)
(0.276828 0 -0.0549495)
(0.273584 0 -0.0549272)
(0.269865 0 -0.0545921)
(0.265728 0 -0.0539799)
(0.261215 0 -0.0531236)
(0.279142 0 -0.0502012)
(0.279063 0 -0.0514026)
(0.278177 0 -0.0523503)
(0.276562 0 -0.0530185)
(0.274298 0 -0.0533861)
(0.271466 0 -0.0534501)
(0.268128 0 -0.0532303)
(0.264334 0 -0.0527501)
(0.260119 0 -0.0520331)
(0.275129 0 -0.0489641)
(0.275221 0 -0.0500191)
(0.274602 0 -0.0508694)
(0.273311 0 -0.0514898)
(0.2714 0 -0.0518643)
(0.268915 0 -0.0519795)
(0.265916 0 -0.0518414)
(0.262437 0 -0.0514631)
(0.258506 0 -0.0508602)
(0.271304 0 -0.0486774)
(0.270874 0 -0.0494385)
(0.26983 0 -0.0500082)
(0.268197 0 -0.0503723)
(0.266008 0 -0.0505138)
(0.263304 0 -0.0504313)
(0.260108 0 -0.05013)
(0.25644 0 -0.0496188)
(0.264755 0 -0.0488936)
(0.262808 0 -0.0490457)
(0.260356 0 -0.0489998)
(0.25741 0 -0.0487556)
(0.253982 0 -0.0483171)
(0.257126 0 -0.047543)
(0.254397 0 -0.0473406)
(0.251183 0 -0.046959)
(0.24809 0 -0.0455451)
)
;

boundaryField
{
    inlet
    {
        type            cellMotion;
        value           nonuniform 0();
    }
    outlet
    {
        type            cellMotion;
        value           nonuniform 0();
    }
    flap
    {
        type            cellMotion;
        value           nonuniform List<vector> 
33
(
(0.00138121 0 0.00153182)
(0.0060845 0 0.00437284)
(0.0147424 0 0.00663322)
(0.0272124 0 0.00808467)
(0.0430658 0 0.00858123)
(0.0618737 0 0.00805214)
(0.0832218 0 0.00648429)
(0.106728 0 0.00391277)
(0.132044 0 0.000398641)
(0.15883 0 -0.00399519)
(0.186733 0 -0.00917028)
(0.215396 0 -0.0149811)
(0.244497 0 -0.0212638)
(0.273772 0 -0.0278402)
(0.30309 0 -0.0345596)
(0.316093 0 -0.045263)
(0.312717 0 -0.0599161)
(0.309288 0 -0.0745584)
(0.00123956 0 -0.00164968)
(0.00552341 0 -0.00498428)
(0.0134909 0 -0.00846525)
(0.0250324 0 -0.0122365)
(0.0398053 0 -0.0164055)
(0.0574718 0 -0.0210323)
(0.0776773 0 -0.0261414)
(0.100089 0 -0.0317365)
(0.124402 0 -0.0377948)
(0.150322 0 -0.0442402)
(0.177535 0 -0.0509627)
(0.205707 0 -0.0578411)
(0.234509 0 -0.0647572)
(0.263641 0 -0.0716379)
(0.292913 0 -0.0784673)
)
;
    }
    upperWall
    {
        type            slip;
    }
    lowerWall
    {
        type            slip;
    }
    frontAndBack
    {
        type            empty;
    }
    procBoundary4to1
    {
        type            processor;
        value           nonuniform List<vector> 
30
(
(0.215783 0 -0.0260653)
(0.215783 0 -0.0260653)
(0.229781 0 -0.029719)
(0.239238 0 -0.0319798)
(0.239238 0 -0.0319798)
(0.249487 0 -0.0353865)
(0.257347 0 -0.0377367)
(0.257347 0 -0.0377367)
(0.262609 0 -0.0403536)
(0.267904 0 -0.0424441)
(0.267904 0 -0.0424441)
(0.26874 0 -0.0439647)
(0.271597 0 -0.0455875)
(0.273102 0 -0.0466945)
(0.273102 0 -0.0466945)
(0.269899 0 -0.0463659)
(0.270478 0 -0.0469372)
(0.271105 0 -0.0477463)
(0.271105 0 -0.0477463)
(0.267327 0 -0.0473529)
(0.267026 0 -0.048034)
(0.266164 0 -0.0485506)
(0.266164 0 -0.0485506)
(0.261117 0 -0.0474159)
(0.259364 0 -0.0475659)
(0.259364 0 -0.0475659)
(0.253672 0 -0.0460578)
(0.251121 0 -0.0458834)
(0.251121 0 -0.0458834)
(0.244753 0 -0.0440747)
)
;
    }
    procBoundary4to2
    {
        type            processor;
        value           nonuniform List<vector> 
11
(
(0.253316 0 -0.0543463)
(0.255167 0 -0.0540609)
(0.256248 0 -0.0535605)
(0.256623 0 -0.0528809)
(0.256355 0 -0.0520531)
(0.255508 0 -0.0511027)
(0.254143 0 -0.0500499)
(0.252316 0 -0.0489093)
(0.25008 0 -0.0476912)
(0.247485 0 -0.0464018)
(0.244577 0 -0.0450439)
)
;
    }
    procBoundary4to3
    {
        type            processor;
        value           nonuniform List<vector> 
19
(
(0.0559649 0 3.19723e-05)
(0.05734 0 7.39073e-05)
(0.0600601 0 5.0294e-05)
(0.0640884 0 -8.0585e-05)
(0.0694008 0 -0.000357463)
(0.0758811 0 -0.000808938)
(0.083438 0 -0.00146136)
(0.0920083 0 -0.00233724)
(0.101401 0 -0.00343849)
(0.11145 0 -0.0047641)
(0.122024 0 -0.00631074)
(0.132881 0 -0.00805042)
(0.143787 0 -0.00994836)
(0.154538 0 -0.0119685)
(0.164902 0 -0.0140607)
(0.174819 0 -0.0162029)
(0.184139 0 -0.0183561)
(0.1926 0 -0.0204446)
(0.200016 0 -0.0224018)
)
;
    }
    procBoundary4to5
    {
        type            processor;
        value           nonuniform List<vector> 
18
(
(0.1497 0 -0.00286552)
(0.151623 0 -0.00848005)
(0.155341 0 -0.0138893)
(0.160611 0 -0.0190551)
(0.167105 0 -0.0238992)
(0.174516 0 -0.0284082)
(0.182524 0 -0.0325618)
(0.190801 0 -0.0363294)
(0.199055 0 -0.0396905)
(0.207013 0 -0.0426266)
(0.214491 0 -0.0451371)
(0.221374 0 -0.0472363)
(0.227577 0 -0.0489393)
(0.233046 0 -0.0502678)
(0.237757 0 -0.0512493)
(0.247096 0 -0.05412)
(0.247096 0 -0.05412)
(0.250639 0 -0.0543787)
)
;
    }
}


// ************************************************************************* //
