/*--------------------------------*- C++ -*----------------------------------*\
| =========                 |                                                 |
| \\      /  F ield         | OpenFOAM: The Open Source CFD Toolbox           |
|  \\    /   O peration     | Version:  dev                                   |
|   \\  /    A nd           | Web:      www.OpenFOAM.org                      |
|    \\/     M anipulation  |                                                 |
\*---------------------------------------------------------------------------*/
FoamFile
{
    version     2.0;
    format      ascii;
    class       pointVectorField;
    location    "0.88";
    object      pointDisplacement;
}
// * * * * * * * * * * * * * * * * * * * * * * * * * * * * * * * * * * * * * //

dimensions      [0 1 0 0 0 0 0];

internalField   nonuniform List<vector> 
1062
(
(0.0708316 0 0)
(0.0635802 0 0)
(0.0558999 0 0)
(0.0478806 0 0)
(0.039638 0 0)
(0.0313315 0 0)
(0.0232228 0 0)
(0.0158205 0 0)
(0.0103887 0 0)
(0 0 0)
(0.0717139 0 -0.000225062)
(0.0646183 0 -1.80439e-05)
(0.0571304 0 0.000252646)
(0.0493553 0 0.000604448)
(0.0414345 0 0.0010601)
(0.0335608 0 0.00165007)
(0.0260288 0 0.00241558)
(0.0194093 0 0.00339818)
(0.0151455 0 0.00452546)
(0.0080965 0 0.00687952)
(0.0743444 0 -0.00051994)
(0.0677066 0 -0.000130974)
(0.0607776 0 0.000374694)
(0.0536969 0 0.0010266)
(0.0466744 0 0.00186047)
(0.0400046 0 0.00291714)
(0.0340952 0 0.00423613)
(0.0296021 0 0.00582538)
(0.0281481 0 0.00743842)
(0.0246677 0 0.0103022)
(0.0786766 0 -0.000948592)
(0.0727847 0 -0.000425008)
(0.0667603 0 0.000248273)
(0.0607854 0 0.00110344)
(0.0551322 0 0.00217391)
(0.0502173 0 0.00348143)
(0.0466307 0 0.00501326)
(0.045095 0 0.00668573)
(0.0469807 0 0.0080771)
(0.0469693 0 0.0104506)
(0.0846204 0 -0.00156399)
(0.0797308 0 -0.000969599)
(0.0749085 0 -0.000216881)
(0.070397 0 0.000715937)
(0.0665136 0 0.00184295)
(0.0637265 0 0.00315014)
(0.0627639 0 0.00454914)
(0.0643983 0 0.00584597)
(0.0694436 0 0.00655548)
(0.0722205 0 0.00794795)
(0.0920571 0 -0.00240523)
(0.088395 0 -0.00181423)
(0.0850178 0 -0.00108081)
(0.082218 0 -0.000202207)
(0.0803779 0 0.000801576)
(0.0799693 0 0.00187427)
(0.0816888 0 0.0028646)
(0.0862056 0 0.00350529)
(0.093761 0 0.00337429)
(0.0985471 0 0.0037833)
(0.100831 0 -0.00349398)
(0.0985823 0 -0.00298258)
(0.0968559 0 -0.00236881)
(0.0959473 0 -0.00166967)
(0.0962776 0 -0.000940974)
(0.098316 0 -0.000282632)
(0.10258 0 0.000123426)
(0.109448 0 1.17217e-05)
(0.118666 0 -0.000891398)
(0.124711 0 -0.00128271)
(0.110775 0 -0.00483704)
(0.110074 0 -0.00447569)
(0.110128 0 -0.0040686)
(0.111229 0 -0.00365416)
(0.113764 0 -0.00331366)
(0.118136 0 -0.00317554)
(0.124614 0 -0.00341614)
(0.133196 0 -0.00423369)
(0.143223 0 -0.00571864)
(0.149864 0 -0.00673961)
(0.121695 0 -0.00642428)
(0.122637 0 -0.00627415)
(0.124523 0 -0.00613997)
(0.127646 0 -0.00608107)
(0.132309 0 -0.00619065)
(0.138767 0 -0.00659998)
(0.147002 0 -0.00744507)
(0.156637 0 -0.00882027)
(0.166734 0 -0.0106452)
(0.173346 0 -0.0120806)
(0.133354 0 -0.00822831)
(0.135972 0 -0.00833423)
(0.139674 0 -0.00851508)
(0.144733 0 -0.00884344)
(0.151332 0 -0.00940841)
(0.159536 0 -0.0103189)
(0.16904 0 -0.0116461)
(0.179161 0 -0.0133753)
(0.188796 0 -0.0152961)
(0.19483 0 -0.0168621)
(0.145476 0 -0.0102064)
(0.149724 0 -0.0105924)
(0.155154 0 -0.0111041)
(0.161978 0 -0.0118132)
(0.170243 0 -0.0127901)
(0.179815 0 -0.0141002)
(0.190137 0 -0.0157396)
(0.200345 0 -0.0176081)
(0.209269 0 -0.0194262)
(0.214503 0 -0.0208642)
(0.157744 0 -0.0123027)
(0.163506 0 -0.012972)
(0.1705 0 -0.0138042)
(0.178827 0 -0.0148531)
(0.18844 0 -0.016165)
(0.199015 0 -0.0177479)
(0.209815 0 -0.0195266)
(0.219916 0 -0.0213504)
(0.228189 0 -0.0229472)
(0.232788 0 -0.0241322)
(0.169821 0 -0.0144535)
(0.176907 0 -0.0153894)
(0.185199 0 -0.0165052)
(0.194707 0 -0.0178327)
(0.205325 0 -0.0193899)
(0.216591 0 -0.021129)
(0.227705 0 -0.0229213)
(0.237761 0 -0.024591)
(0.245712 0 -0.0259272)
(0.250201 0 -0.0268062)
(0.181354 0 -0.0165887)
(0.189499 0 -0.0177568)
(0.198759 0 -0.0191045)
(0.209112 0 -0.0206477)
(0.22038 0 -0.0223723)
(0.232064 0 -0.0241913)
(0.243438 0 -0.0259486)
(0.253683 0 -0.0274519)
(0.261802 0 -0.0285505)
(0.267284 0 -0.0290861)
(0.192011 0 -0.0186401)
(0.200906 0 -0.0199952)
(0.210795 0 -0.0215215)
(0.221625 0 -0.0232219)
(0.233169 0 -0.0250596)
(0.244963 0 -0.0269361)
(0.256428 0 -0.0286969)
(0.266932 0 -0.0301391)
(0.275617 0 -0.0310972)
(0.284302 0 -0.03121)
(0.20162 0 -0.020567)
(0.210959 0 -0.0220631)
(0.221133 0 -0.023716)
(0.232047 0 -0.025519)
(0.243444 0 -0.0274306)
(0.254905 0 -0.029371)
(0.265954 0 -0.0312469)
(0.276086 0 -0.0329764)
(0.284745 0 -0.0346232)
(0.301415 0 -0.0333988)
(0.0708316 0 0)
(0.0635802 0 0)
(0.0558999 0 0)
(0.0478806 0 0)
(0.039638 0 0)
(0.0313315 0 0)
(0.0232228 0 0)
(0.0158205 0 0)
(0.0103887 0 0)
(0 0 0)
(0.0717139 0 -0.000225062)
(0.0646183 0 -1.80439e-05)
(0.0571304 0 0.000252646)
(0.0493553 0 0.000604448)
(0.0414345 0 0.0010601)
(0.0335608 0 0.00165007)
(0.0260288 0 0.00241558)
(0.0194093 0 0.00339818)
(0.0151455 0 0.00452546)
(0.0080965 0 0.00687952)
(0.0743444 0 -0.00051994)
(0.0677066 0 -0.000130974)
(0.0607776 0 0.000374694)
(0.0536969 0 0.0010266)
(0.0466744 0 0.00186047)
(0.0400046 0 0.00291714)
(0.0340952 0 0.00423613)
(0.0296021 0 0.00582538)
(0.0281481 0 0.00743842)
(0.0246677 0 0.0103022)
(0.0786766 0 -0.000948592)
(0.0727847 0 -0.000425008)
(0.0667603 0 0.000248273)
(0.0607854 0 0.00110344)
(0.0551322 0 0.00217391)
(0.0502173 0 0.00348143)
(0.0466307 0 0.00501326)
(0.045095 0 0.00668573)
(0.0469807 0 0.0080771)
(0.0469693 0 0.0104506)
(0.0846204 0 -0.00156399)
(0.0797308 0 -0.000969599)
(0.0749085 0 -0.000216881)
(0.070397 0 0.000715937)
(0.0665136 0 0.00184295)
(0.0637265 0 0.00315014)
(0.0627639 0 0.00454914)
(0.0643983 0 0.00584597)
(0.0694436 0 0.00655548)
(0.0722205 0 0.00794795)
(0.0920571 0 -0.00240523)
(0.088395 0 -0.00181423)
(0.0850178 0 -0.00108081)
(0.082218 0 -0.000202207)
(0.0803779 0 0.000801576)
(0.0799693 0 0.00187427)
(0.0816888 0 0.0028646)
(0.0862056 0 0.00350529)
(0.093761 0 0.00337429)
(0.0985471 0 0.0037833)
(0.100831 0 -0.00349398)
(0.0985823 0 -0.00298258)
(0.0968559 0 -0.00236881)
(0.0959473 0 -0.00166967)
(0.0962776 0 -0.000940974)
(0.098316 0 -0.000282632)
(0.10258 0 0.000123426)
(0.109448 0 1.17217e-05)
(0.118666 0 -0.000891398)
(0.124711 0 -0.00128271)
(0.110775 0 -0.00483704)
(0.110074 0 -0.00447569)
(0.110128 0 -0.0040686)
(0.111229 0 -0.00365416)
(0.113764 0 -0.00331366)
(0.118136 0 -0.00317554)
(0.124614 0 -0.00341614)
(0.133196 0 -0.00423369)
(0.143223 0 -0.00571864)
(0.149864 0 -0.00673961)
(0.121695 0 -0.00642428)
(0.122637 0 -0.00627415)
(0.124523 0 -0.00613997)
(0.127646 0 -0.00608107)
(0.132309 0 -0.00619065)
(0.138767 0 -0.00659998)
(0.147002 0 -0.00744507)
(0.156637 0 -0.00882027)
(0.166734 0 -0.0106452)
(0.173346 0 -0.0120806)
(0.133354 0 -0.00822831)
(0.135972 0 -0.00833423)
(0.139674 0 -0.00851508)
(0.144733 0 -0.00884344)
(0.151332 0 -0.00940841)
(0.159536 0 -0.0103189)
(0.16904 0 -0.0116461)
(0.179161 0 -0.0133753)
(0.188796 0 -0.0152961)
(0.19483 0 -0.0168621)
(0.145476 0 -0.0102064)
(0.149724 0 -0.0105924)
(0.155154 0 -0.0111041)
(0.161978 0 -0.0118132)
(0.170243 0 -0.0127901)
(0.179815 0 -0.0141002)
(0.190137 0 -0.0157396)
(0.200345 0 -0.0176081)
(0.209269 0 -0.0194262)
(0.214503 0 -0.0208642)
(0.157744 0 -0.0123027)
(0.163506 0 -0.012972)
(0.1705 0 -0.0138042)
(0.178827 0 -0.0148531)
(0.18844 0 -0.016165)
(0.199015 0 -0.0177479)
(0.209815 0 -0.0195266)
(0.219916 0 -0.0213504)
(0.228189 0 -0.0229472)
(0.232788 0 -0.0241322)
(0.169821 0 -0.0144535)
(0.176907 0 -0.0153894)
(0.185199 0 -0.0165052)
(0.194707 0 -0.0178327)
(0.205325 0 -0.0193899)
(0.216591 0 -0.021129)
(0.227705 0 -0.0229213)
(0.237761 0 -0.024591)
(0.245712 0 -0.0259272)
(0.250201 0 -0.0268062)
(0.181354 0 -0.0165887)
(0.189499 0 -0.0177568)
(0.198759 0 -0.0191045)
(0.209112 0 -0.0206477)
(0.22038 0 -0.0223723)
(0.232064 0 -0.0241913)
(0.243438 0 -0.0259486)
(0.253683 0 -0.0274519)
(0.261802 0 -0.0285505)
(0.267284 0 -0.0290861)
(0.192011 0 -0.0186401)
(0.200906 0 -0.0199952)
(0.210795 0 -0.0215215)
(0.221625 0 -0.0232219)
(0.233169 0 -0.0250596)
(0.244963 0 -0.0269361)
(0.256428 0 -0.0286969)
(0.266932 0 -0.0301391)
(0.275617 0 -0.0310972)
(0.284302 0 -0.03121)
(0.20162 0 -0.020567)
(0.210959 0 -0.0220631)
(0.221133 0 -0.023716)
(0.232047 0 -0.025519)
(0.243444 0 -0.0274306)
(0.254905 0 -0.029371)
(0.265954 0 -0.0312469)
(0.276086 0 -0.0329764)
(0.284745 0 -0.0346232)
(0.301415 0 -0.0333988)
(0 0 0)
(0.0181142 0 0)
(0.0337416 0 0)
(0.0544627 0 0)
(0.0765632 0 0)
(0.097534 0 0)
(0.116215 0 0)
(0.132294 0 0)
(0.14581 0 0)
(0.156948 0 0)
(0.165917 0 0)
(0.00650556 0 -0.00875796)
(0.0223858 0 -0.00830672)
(0.0378986 0 -0.00882926)
(0.0580898 0 -0.00887681)
(0.0795422 0 -0.00861156)
(0.0999255 0 -0.00816946)
(0.118126 0 -0.00765279)
(0.133825 0 -0.0071132)
(0.147044 0 -0.00658445)
(0.157948 0 -0.00607639)
(0.166734 0 -0.00560035)
(0.0208045 0 -0.0161143)
(0.0343865 0 -0.0160356)
(0.0495397 0 -0.0169064)
(0.0683208 0 -0.0169592)
(0.0880404 0 -0.0164755)
(0.106811 0 -0.0156754)
(0.123667 0 -0.0147325)
(0.13829 0 -0.0137406)
(0.150656 0 -0.0127591)
(0.160887 0 -0.0118168)
(0.169132 0 -0.0109196)
(0.0409817 0 -0.0228645)
(0.0521936 0 -0.0229595)
(0.0666343 0 -0.0239571)
(0.0834485 0 -0.0239672)
(0.10079 0 -0.0233173)
(0.117302 0 -0.0222666)
(0.132224 0 -0.0210173)
(0.145264 0 -0.0196918)
(0.15635 0 -0.0183602)
(0.165545 0 -0.0170707)
(0.172945 0 -0.0158312)
(0.0648344 0 -0.0290286)
(0.0738487 0 -0.0291105)
(0.0871703 0 -0.0300284)
(0.101734 0 -0.0299382)
(0.116431 0 -0.0291578)
(0.130404 0 -0.0279484)
(0.143082 0 -0.0264996)
(0.154231 0 -0.0249487)
(0.163748 0 -0.0233691)
(0.171639 0 -0.0218112)
(0.177966 0 -0.0203044)
(0.0905904 0 -0.0345834)
(0.0976205 0 -0.0344925)
(0.109469 0 -0.0351903)
(0.121711 0 -0.0349591)
(0.133772 0 -0.0340782)
(0.145177 0 -0.0327798)
(0.15553 0 -0.0312212)
(0.164647 0 -0.0295284)
(0.172432 0 -0.0277867)
(0.178854 0 -0.0260399)
(0.18395 0 -0.0243291)
(0.116884 0 -0.0394023)
(0.122114 0 -0.0390635)
(0.132262 0 -0.039486)
(0.142268 0 -0.0391187)
(0.151863 0 -0.0381775)
(0.160814 0 -0.0368398)
(0.168911 0 -0.0352407)
(0.175985 0 -0.0334739)
(0.181972 0 -0.0316307)
(0.186854 0 -0.0297648)
(0.190633 0 -0.0279114)
(0.14267 0 -0.0433021)
(0.146285 0 -0.0427853)
(0.154678 0 -0.0429672)
(0.162615 0 -0.0425094)
(0.169989 0 -0.0415564)
(0.176695 0 -0.0402216)
(0.182664 0 -0.0386226)
(0.187768 0 -0.0368344)
(0.191978 0 -0.0349381)
(0.195308 0 -0.0330011)
(0.197752 0 -0.0310604)
(0.167081 0 -0.0462025)
(0.169425 0 -0.0456956)
(0.176192 0 -0.0457373)
(0.182276 0 -0.0452532)
(0.187689 0 -0.0443276)
(0.192375 0 -0.0430238)
(0.196352 0 -0.0414432)
(0.199598 0 -0.0396635)
(0.20211 0 -0.037753)
(0.20392 0 -0.0357784)
(0.205045 0 -0.033788)
(0.189532 0 -0.0482453)
(0.19112 0 -0.0479484)
(0.196517 0 -0.0479561)
(0.200992 0 -0.0474935)
(0.204656 0 -0.0466041)
(0.207493 0 -0.0453319)
(0.209618 0 -0.0437725)
(0.211124 0 -0.0420122)
(0.212045 0 -0.0401128)
(0.21242 0 -0.0381307)
(0.212279 0 -0.0361176)
(0.209982 0 -0.0498234)
(0.21125 0 -0.0497828)
(0.215527 0 -0.0498053)
(0.218591 0 -0.049358)
(0.220623 0 -0.0484723)
(0.221729 0 -0.0472072)
(0.222135 0 -0.04566)
(0.222027 0 -0.0439203)
(0.221485 0 -0.0420464)
(0.220548 0 -0.0400828)
(0.21924 0 -0.0380735)
(0.228819 0 -0.0512927)
(0.229997 0 -0.0514378)
(0.23325 0 -0.0514335)
(0.234915 0 -0.0509241)
(0.235317 0 -0.0499754)
(0.234769 0 -0.0486803)
(0.233589 0 -0.0471343)
(0.232018 0 -0.0454182)
(0.230166 0 -0.0435809)
(0.228069 0 -0.0416553)
(0.225726 0 -0.0396743)
(0.246566 0 -0.0528981)
(0.24759 0 -0.0530532)
(0.249618 0 -0.0528823)
(0.249664 0 -0.0521793)
(0.248374 0 -0.0510968)
(0.246254 0 -0.0497472)
(0.243658 0 -0.0482049)
(0.240824 0 -0.0465251)
(0.237863 0 -0.0447406)
(0.234789 0 -0.0428719)
(0.231577 0 -0.0409415)
(0.263775 0 -0.0547714)
(0.263885 0 -0.0545639)
(0.264129 0 -0.0540055)
(0.262252 0 -0.0529959)
(0.259295 0 -0.0517645)
(0.255804 0 -0.0503829)
(0.252065 0 -0.0488756)
(0.24825 0 -0.0472609)
(0.24443 0 -0.0455523)
(0.240595 0 -0.0437612)
(0.236702 0 -0.0419028)
(0.28083 0 -0.0568673)
(0.277667 0 -0.055512)
(0.275666 0 -0.054405)
(0.271933 0 -0.0531562)
(0.267649 0 -0.0518911)
(0.263186 0 -0.0505695)
(0.258692 0 -0.04916)
(0.254237 0 -0.047653)
(0.249838 0 -0.0460502)
(0.245467 0 -0.0443587)
(0.241076 0 -0.0425906)
(0.297985 0 -0.0590809)
(0.286587 0 -0.0537936)
(0.282877 0 -0.0532494)
(0.278244 0 -0.0524116)
(0.273397 0 -0.0514326)
(0.268521 0 -0.0503269)
(0.263683 0 -0.0490953)
(0.258907 0 -0.0477426)
(0.254182 0 -0.046276)
(0.249477 0 -0.0447051)
(0.244747 0 -0.0430434)
(0 0 0)
(0.0181142 0 0)
(0.0337416 0 0)
(0.0544627 0 0)
(0.0765632 0 0)
(0.097534 0 0)
(0.116215 0 0)
(0.132294 0 0)
(0.14581 0 0)
(0.156948 0 0)
(0.165917 0 0)
(0.00650556 0 -0.00875796)
(0.0223858 0 -0.00830672)
(0.0378986 0 -0.00882926)
(0.0580898 0 -0.00887681)
(0.0795422 0 -0.00861156)
(0.0999255 0 -0.00816946)
(0.118126 0 -0.00765279)
(0.133825 0 -0.0071132)
(0.147044 0 -0.00658445)
(0.157948 0 -0.00607639)
(0.166734 0 -0.00560035)
(0.0208045 0 -0.0161143)
(0.0343865 0 -0.0160356)
(0.0495397 0 -0.0169064)
(0.0683208 0 -0.0169592)
(0.0880404 0 -0.0164755)
(0.106811 0 -0.0156754)
(0.123667 0 -0.0147325)
(0.13829 0 -0.0137406)
(0.150656 0 -0.0127591)
(0.160887 0 -0.0118168)
(0.169132 0 -0.0109196)
(0.0409817 0 -0.0228645)
(0.0521936 0 -0.0229595)
(0.0666343 0 -0.0239571)
(0.0834485 0 -0.0239672)
(0.10079 0 -0.0233173)
(0.117302 0 -0.0222666)
(0.132224 0 -0.0210173)
(0.145264 0 -0.0196918)
(0.15635 0 -0.0183602)
(0.165545 0 -0.0170707)
(0.172945 0 -0.0158312)
(0.0648344 0 -0.0290286)
(0.0738487 0 -0.0291105)
(0.0871703 0 -0.0300284)
(0.101734 0 -0.0299382)
(0.116431 0 -0.0291578)
(0.130404 0 -0.0279484)
(0.143082 0 -0.0264996)
(0.154231 0 -0.0249487)
(0.163748 0 -0.0233691)
(0.171639 0 -0.0218112)
(0.177966 0 -0.0203044)
(0.0905904 0 -0.0345834)
(0.0976205 0 -0.0344925)
(0.109469 0 -0.0351903)
(0.121711 0 -0.0349591)
(0.133772 0 -0.0340782)
(0.145177 0 -0.0327798)
(0.15553 0 -0.0312212)
(0.164647 0 -0.0295284)
(0.172432 0 -0.0277867)
(0.178854 0 -0.0260399)
(0.18395 0 -0.0243291)
(0.116884 0 -0.0394023)
(0.122114 0 -0.0390635)
(0.132262 0 -0.039486)
(0.142268 0 -0.0391187)
(0.151863 0 -0.0381775)
(0.160814 0 -0.0368398)
(0.168911 0 -0.0352407)
(0.175985 0 -0.0334739)
(0.181972 0 -0.0316307)
(0.186854 0 -0.0297648)
(0.190633 0 -0.0279114)
(0.14267 0 -0.0433021)
(0.146285 0 -0.0427853)
(0.154678 0 -0.0429672)
(0.162615 0 -0.0425094)
(0.169989 0 -0.0415564)
(0.176695 0 -0.0402216)
(0.182664 0 -0.0386226)
(0.187768 0 -0.0368344)
(0.191978 0 -0.0349381)
(0.195308 0 -0.0330011)
(0.197752 0 -0.0310604)
(0.167081 0 -0.0462025)
(0.169425 0 -0.0456956)
(0.176192 0 -0.0457373)
(0.182276 0 -0.0452532)
(0.187689 0 -0.0443276)
(0.192375 0 -0.0430238)
(0.196352 0 -0.0414432)
(0.199598 0 -0.0396635)
(0.20211 0 -0.037753)
(0.20392 0 -0.0357784)
(0.205045 0 -0.033788)
(0.189532 0 -0.0482453)
(0.19112 0 -0.0479484)
(0.196517 0 -0.0479561)
(0.200992 0 -0.0474935)
(0.204656 0 -0.0466041)
(0.207493 0 -0.0453319)
(0.209618 0 -0.0437725)
(0.211124 0 -0.0420122)
(0.212045 0 -0.0401128)
(0.21242 0 -0.0381307)
(0.212279 0 -0.0361176)
(0.209982 0 -0.0498234)
(0.21125 0 -0.0497828)
(0.215527 0 -0.0498053)
(0.218591 0 -0.049358)
(0.220623 0 -0.0484723)
(0.221729 0 -0.0472072)
(0.222135 0 -0.04566)
(0.222027 0 -0.0439203)
(0.221485 0 -0.0420464)
(0.220548 0 -0.0400828)
(0.21924 0 -0.0380735)
(0.228819 0 -0.0512927)
(0.229997 0 -0.0514378)
(0.23325 0 -0.0514335)
(0.234915 0 -0.0509241)
(0.235317 0 -0.0499754)
(0.234769 0 -0.0486803)
(0.233589 0 -0.0471343)
(0.232018 0 -0.0454182)
(0.230166 0 -0.0435809)
(0.228069 0 -0.0416553)
(0.225726 0 -0.0396743)
(0.246566 0 -0.0528981)
(0.24759 0 -0.0530532)
(0.249618 0 -0.0528823)
(0.249664 0 -0.0521793)
(0.248374 0 -0.0510968)
(0.246254 0 -0.0497472)
(0.243658 0 -0.0482049)
(0.240824 0 -0.0465251)
(0.237863 0 -0.0447406)
(0.234789 0 -0.0428719)
(0.231577 0 -0.0409415)
(0.263775 0 -0.0547714)
(0.263885 0 -0.0545639)
(0.264129 0 -0.0540055)
(0.262252 0 -0.0529959)
(0.259295 0 -0.0517645)
(0.255804 0 -0.0503829)
(0.252065 0 -0.0488756)
(0.24825 0 -0.0472609)
(0.24443 0 -0.0455523)
(0.240595 0 -0.0437612)
(0.236702 0 -0.0419028)
(0.28083 0 -0.0568673)
(0.277667 0 -0.055512)
(0.275666 0 -0.054405)
(0.271933 0 -0.0531562)
(0.267649 0 -0.0518911)
(0.263186 0 -0.0505695)
(0.258692 0 -0.04916)
(0.254237 0 -0.047653)
(0.249838 0 -0.0460502)
(0.245467 0 -0.0443587)
(0.241076 0 -0.0425906)
(0.297985 0 -0.0590809)
(0.286587 0 -0.0537936)
(0.282877 0 -0.0532494)
(0.278244 0 -0.0524116)
(0.273397 0 -0.0514326)
(0.268521 0 -0.0503269)
(0.263683 0 -0.0490953)
(0.258907 0 -0.0477426)
(0.254182 0 -0.046276)
(0.249477 0 -0.0447051)
(0.244747 0 -0.0430434)
(0.210115 0 -0.0223495)
(0.219603 0 -0.0239401)
(0.22972 0 -0.0256662)
(0.240323 0 -0.0275152)
(0.251127 0 -0.0294488)
(0.261729 0 -0.0314162)
(0.271701 0 -0.0333906)
(0.280581 0 -0.035418)
(0.28797 0 -0.0377306)
(0.293346 0 -0.0405497)
(0.217346 0 -0.0239464)
(0.226702 0 -0.0255834)
(0.236458 0 -0.027329)
(0.246425 0 -0.0291659)
(0.256313 0 -0.0310619)
(0.265753 0 -0.0329849)
(0.274366 0 -0.0349269)
(0.281766 0 -0.0369233)
(0.287599 0 -0.0390717)
(0.291263 0 -0.0412988)
(0.223227 0 -0.0253249)
(0.232239 0 -0.0269672)
(0.241426 0 -0.0286892)
(0.25059 0 -0.0304725)
(0.259463 0 -0.0322926)
(0.267738 0 -0.0341276)
(0.275096 0 -0.0359697)
(0.281233 0 -0.0378306)
(0.285897 0 -0.0397572)
(0.288629 0 -0.041593)
(0.227834 0 -0.026483)
(0.23637 0 -0.0281007)
(0.244893 0 -0.0297718)
(0.25322 0 -0.0314799)
(0.261124 0 -0.0332059)
(0.268344 0 -0.0349291)
(0.274626 0 -0.0366367)
(0.279761 0 -0.03833)
(0.283591 0 -0.0400307)
(0.285804 0 -0.0415568)
(0.239304 0 -0.0290057)
(0.247147 0 -0.0306108)
(0.254672 0 -0.0322324)
(0.261689 0 -0.0338524)
(0.267987 0 -0.0354503)
(0.273384 0 -0.0370134)
(0.277747 0 -0.0385397)
(0.280982 0 -0.0400331)
(0.282873 0 -0.0413176)
(0.255206 0 -0.0327625)
(0.26143 0 -0.0342698)
(0.266946 0 -0.0357407)
(0.27163 0 -0.0371645)
(0.275397 0 -0.0385353)
(0.278196 0 -0.0398472)
(0.279864 0 -0.0409435)
(0.265414 0 -0.0358418)
(0.269521 0 -0.037136)
(0.272819 0 -0.0383661)
(0.275285 0 -0.0395228)
(0.276785 0 -0.0404707)
(0.270072 0 -0.0380644)
(0.272272 0 -0.0390895)
(0.273635 0 -0.0399179)
(0.210115 0 -0.0223495)
(0.219603 0 -0.0239401)
(0.22972 0 -0.0256662)
(0.240323 0 -0.0275152)
(0.251127 0 -0.0294488)
(0.261729 0 -0.0314162)
(0.271701 0 -0.0333906)
(0.280581 0 -0.035418)
(0.28797 0 -0.0377306)
(0.293346 0 -0.0405497)
(0.217346 0 -0.0239464)
(0.226702 0 -0.0255834)
(0.236458 0 -0.027329)
(0.246425 0 -0.0291659)
(0.256313 0 -0.0310619)
(0.265753 0 -0.0329849)
(0.274366 0 -0.0349269)
(0.281766 0 -0.0369233)
(0.287599 0 -0.0390717)
(0.291263 0 -0.0412988)
(0.223227 0 -0.0253249)
(0.232239 0 -0.0269672)
(0.241426 0 -0.0286892)
(0.25059 0 -0.0304725)
(0.259463 0 -0.0322926)
(0.267738 0 -0.0341276)
(0.275096 0 -0.0359697)
(0.281233 0 -0.0378306)
(0.285897 0 -0.0397572)
(0.288629 0 -0.041593)
(0.227834 0 -0.026483)
(0.23637 0 -0.0281007)
(0.244893 0 -0.0297718)
(0.25322 0 -0.0314799)
(0.261124 0 -0.0332059)
(0.268344 0 -0.0349291)
(0.274626 0 -0.0366367)
(0.279761 0 -0.03833)
(0.283591 0 -0.0400307)
(0.285804 0 -0.0415568)
(0.239304 0 -0.0290057)
(0.247147 0 -0.0306108)
(0.254672 0 -0.0322324)
(0.261689 0 -0.0338524)
(0.267987 0 -0.0354503)
(0.273384 0 -0.0370134)
(0.277747 0 -0.0385397)
(0.280982 0 -0.0400331)
(0.282873 0 -0.0413176)
(0.255206 0 -0.0327625)
(0.26143 0 -0.0342698)
(0.266946 0 -0.0357407)
(0.27163 0 -0.0371645)
(0.275397 0 -0.0385353)
(0.278196 0 -0.0398472)
(0.279864 0 -0.0409435)
(0.265414 0 -0.0358418)
(0.269521 0 -0.037136)
(0.272819 0 -0.0383661)
(0.275285 0 -0.0395228)
(0.276785 0 -0.0404707)
(0.270072 0 -0.0380644)
(0.272272 0 -0.0390895)
(0.273635 0 -0.0399179)
(0.300285 0 -0.0420817)
(0.299196 0 -0.0504142)
(0.295567 0 -0.0434298)
(0.295323 0 -0.0462322)
(0.293277 0 -0.0489151)
(0.292666 0 -0.0432286)
(0.292746 0 -0.0449389)
(0.291806 0 -0.0468642)
(0.289654 0 -0.0430058)
(0.289886 0 -0.0441618)
(0.289522 0 -0.0455341)
(0.286668 0 -0.0426512)
(0.286968 0 -0.0435116)
(0.286885 0 -0.0445352)
(0.283658 0 -0.0422008)
(0.283991 0 -0.0428806)
(0.284057 0 -0.0436844)
(0.280596 0 -0.0416783)
(0.280945 0 -0.0422371)
(0.281097 0 -0.0428934)
(0.277473 0 -0.0410958)
(0.277827 0 -0.0415677)
(0.278031 0 -0.042119)
(0.274282 0 -0.0404583)
(0.274632 0 -0.0408642)
(0.274866 0 -0.0413365)
(0.271019 0 -0.0397676)
(0.27136 0 -0.0401213)
(0.271606 0 -0.0405317)
(0.300285 0 -0.0420817)
(0.299196 0 -0.0504142)
(0.295567 0 -0.0434298)
(0.295323 0 -0.0462322)
(0.293277 0 -0.0489151)
(0.292666 0 -0.0432286)
(0.292746 0 -0.0449389)
(0.291806 0 -0.0468642)
(0.289654 0 -0.0430058)
(0.289886 0 -0.0441618)
(0.289522 0 -0.0455341)
(0.286668 0 -0.0426512)
(0.286968 0 -0.0435116)
(0.286885 0 -0.0445352)
(0.283658 0 -0.0422008)
(0.283991 0 -0.0428806)
(0.284057 0 -0.0436844)
(0.280596 0 -0.0416783)
(0.280945 0 -0.0422371)
(0.281097 0 -0.0428934)
(0.277473 0 -0.0410958)
(0.277827 0 -0.0415677)
(0.278031 0 -0.042119)
(0.274282 0 -0.0404583)
(0.274632 0 -0.0408642)
(0.274866 0 -0.0413365)
(0.271019 0 -0.0397676)
(0.27136 0 -0.0401213)
(0.271606 0 -0.0405317)
(0.289806 0 -0.0506711)
(0.285911 0 -0.0512229)
(0.281544 0 -0.0510881)
(0.2769 0 -0.050552)
(0.272118 0 -0.0497496)
(0.267283 0 -0.0487467)
(0.262438 0 -0.0475793)
(0.257586 0 -0.0462694)
(0.252709 0 -0.0448344)
(0.289591 0 -0.0486061)
(0.286448 0 -0.0495018)
(0.282758 0 -0.0497219)
(0.27864 0 -0.0495043)
(0.27423 0 -0.0489693)
(0.26963 0 -0.0481894)
(0.264906 0 -0.0472103)
(0.260088 0 -0.046063)
(0.255175 0 -0.0447711)
(0.288135 0 -0.0470091)
(0.285719 0 -0.0479991)
(0.282661 0 -0.0484123)
(0.279097 0 -0.0484069)
(0.275139 0 -0.0480782)
(0.270884 0 -0.0474888)
(0.266401 0 -0.0466824)
(0.261731 0 -0.0456912)
(0.256888 0 -0.0445404)
(0.286022 0 -0.0457391)
(0.284206 0 -0.0466828)
(0.281701 0 -0.0471801)
(0.278643 0 -0.0473075)
(0.275132 0 -0.0471293)
(0.271249 0 -0.0466933)
(0.267057 0 -0.046036)
(0.262598 0 -0.0451862)
(0.257896 0 -0.0441678)
(0.283529 0 -0.0446716)
(0.282169 0 -0.0455168)
(0.280126 0 -0.0460279)
(0.277512 0 -0.0462284)
(0.27441 0 -0.0461536)
(0.270889 0 -0.0458355)
(0.267 0 -0.0453014)
(0.262783 0 -0.0445748)
(0.258261 0 -0.043676)
(0.28079 0 -0.0437152)
(0.279766 0 -0.0444554)
(0.278096 0 -0.0449433)
(0.275858 0 -0.0451757)
(0.273119 0 -0.0451672)
(0.269931 0 -0.044936)
(0.266337 0 -0.0445004)
(0.262369 0 -0.0438778)
(0.258047 0 -0.0430843)
(0.277872 0 -0.0428143)
(0.277092 0 -0.0434582)
(0.275715 0 -0.043907)
(0.273789 0 -0.0441456)
(0.271362 0 -0.0441761)
(0.268473 0 -0.0440065)
(0.265153 0 -0.0436475)
(0.261427 0 -0.0431105)
(0.257311 0 -0.0424076)
(0.274805 0 -0.0419332)
(0.274203 0 -0.0424942)
(0.273053 0 -0.0428989)
(0.271383 0 -0.0431288)
(0.26922 0 -0.0431794)
(0.266592 0 -0.0430519)
(0.263521 0 -0.042751)
(0.260022 0 -0.0422833)
(0.256107 0 -0.0416568)
(0.271609 0 -0.0410494)
(0.271136 0 -0.0415396)
(0.270162 0 -0.0419008)
(0.268695 0 -0.0421144)
(0.266752 0 -0.0421726)
(0.264349 0 -0.0420726)
(0.261498 0 -0.0418149)
(0.258207 0 -0.0414023)
(0.254482 0 -0.0408397)
(0.2683 0 -0.040148)
(0.26792 0 -0.0405778)
(0.267075 0 -0.0408977)
(0.265769 0 -0.0410911)
(0.264006 0 -0.0411488)
(0.261793 0 -0.0410657)
(0.259134 0 -0.0408397)
(0.25603 0 -0.0404706)
(0.252481 0 -0.0399606)
(0.262638 0 -0.0400485)
(0.261021 0 -0.0401005)
(0.258966 0 -0.0400268)
(0.256471 0 -0.0398234)
(0.253532 0 -0.0394883)
(0.250143 0 -0.0390217)
(0.255905 0 -0.0389503)
(0.253548 0 -0.0387626)
(0.250752 0 -0.0384539)
(0.247506 0 -0.0380228)
(0.247727 0 -0.0373645)
(0.244606 0 -0.0369624)
(0.289806 0 -0.0506711)
(0.285911 0 -0.0512229)
(0.281544 0 -0.0510881)
(0.2769 0 -0.050552)
(0.272118 0 -0.0497496)
(0.267283 0 -0.0487467)
(0.262438 0 -0.0475793)
(0.257586 0 -0.0462694)
(0.252709 0 -0.0448344)
(0.289591 0 -0.0486061)
(0.286448 0 -0.0495018)
(0.282758 0 -0.0497219)
(0.27864 0 -0.0495043)
(0.27423 0 -0.0489693)
(0.26963 0 -0.0481894)
(0.264906 0 -0.0472103)
(0.260088 0 -0.046063)
(0.255175 0 -0.0447711)
(0.288135 0 -0.0470091)
(0.285719 0 -0.0479991)
(0.282661 0 -0.0484123)
(0.279097 0 -0.0484069)
(0.275139 0 -0.0480782)
(0.270884 0 -0.0474888)
(0.266401 0 -0.0466824)
(0.261731 0 -0.0456912)
(0.256888 0 -0.0445404)
(0.286022 0 -0.0457391)
(0.284206 0 -0.0466828)
(0.281701 0 -0.0471801)
(0.278643 0 -0.0473075)
(0.275132 0 -0.0471293)
(0.271249 0 -0.0466933)
(0.267057 0 -0.046036)
(0.262598 0 -0.0451862)
(0.257896 0 -0.0441678)
(0.283529 0 -0.0446716)
(0.282169 0 -0.0455168)
(0.280126 0 -0.0460279)
(0.277512 0 -0.0462284)
(0.27441 0 -0.0461536)
(0.270889 0 -0.0458355)
(0.267 0 -0.0453014)
(0.262783 0 -0.0445748)
(0.258261 0 -0.043676)
(0.28079 0 -0.0437152)
(0.279766 0 -0.0444554)
(0.278096 0 -0.0449433)
(0.275858 0 -0.0451757)
(0.273119 0 -0.0451672)
(0.269931 0 -0.044936)
(0.266337 0 -0.0445004)
(0.262369 0 -0.0438778)
(0.258047 0 -0.0430843)
(0.277872 0 -0.0428143)
(0.277092 0 -0.0434582)
(0.275715 0 -0.043907)
(0.273789 0 -0.0441456)
(0.271362 0 -0.0441761)
(0.268473 0 -0.0440065)
(0.265153 0 -0.0436475)
(0.261427 0 -0.0431105)
(0.257311 0 -0.0424076)
(0.274805 0 -0.0419332)
(0.274203 0 -0.0424942)
(0.273053 0 -0.0428989)
(0.271383 0 -0.0431288)
(0.26922 0 -0.0431794)
(0.266592 0 -0.0430519)
(0.263521 0 -0.042751)
(0.260022 0 -0.0422833)
(0.256107 0 -0.0416568)
(0.271609 0 -0.0410494)
(0.271136 0 -0.0415396)
(0.270162 0 -0.0419008)
(0.268695 0 -0.0421144)
(0.266752 0 -0.0421726)
(0.264349 0 -0.0420726)
(0.261498 0 -0.0418149)
(0.258207 0 -0.0414023)
(0.254482 0 -0.0408397)
(0.2683 0 -0.040148)
(0.26792 0 -0.0405778)
(0.267075 0 -0.0408977)
(0.265769 0 -0.0410911)
(0.264006 0 -0.0411488)
(0.261793 0 -0.0410657)
(0.259134 0 -0.0408397)
(0.25603 0 -0.0404706)
(0.252481 0 -0.0399606)
(0.262638 0 -0.0400485)
(0.261021 0 -0.0401005)
(0.258966 0 -0.0400268)
(0.256471 0 -0.0398234)
(0.253532 0 -0.0394883)
(0.250143 0 -0.0390217)
(0.255905 0 -0.0389503)
(0.253548 0 -0.0387626)
(0.250752 0 -0.0384539)
(0.247506 0 -0.0380228)
(0.247727 0 -0.0373645)
(0.244606 0 -0.0369624)
)
;

boundaryField
{
    inlet
    {
        type            fixedValue;
        value           nonuniform 0();
    }
    outlet
    {
        type            fixedValue;
        value           nonuniform 0();
    }
    flap
    {
        type            fixedValue;
        value           nonuniform List<vector> 
68
(
(0 0 0)
(0.0080965 0 0.00687952)
(0.0080965 0 0.00687952)
(0 0 0)
(0.0246677 0 0.0103022)
(0.0246677 0 0.0103022)
(0.0469693 0 0.0104506)
(0.0469693 0 0.0104506)
(0.0722205 0 0.00794795)
(0.0722205 0 0.00794795)
(0.0985471 0 0.0037833)
(0.0985471 0 0.0037833)
(0.124711 0 -0.00128271)
(0.124711 0 -0.00128271)
(0.149864 0 -0.00673961)
(0.149864 0 -0.00673961)
(0.173346 0 -0.0120806)
(0.173346 0 -0.0120806)
(0.19483 0 -0.0168621)
(0.19483 0 -0.0168621)
(0.214503 0 -0.0208642)
(0.214503 0 -0.0208642)
(0.232788 0 -0.0241322)
(0.232788 0 -0.0241322)
(0.250201 0 -0.0268062)
(0.250201 0 -0.0268062)
(0.267284 0 -0.0290861)
(0.267284 0 -0.0290861)
(0.284302 0 -0.03121)
(0.284302 0 -0.03121)
(0.301415 0 -0.0333988)
(0.301415 0 -0.0333988)
(0.300285 0 -0.0420817)
(0.300285 0 -0.0420817)
(0.299196 0 -0.0504142)
(0.299196 0 -0.0504142)
(0.297985 0 -0.0590809)
(0.297985 0 -0.0590809)
(0 0 0)
(0 0 0)
(0.00650556 0 -0.00875796)
(0.00650556 0 -0.00875796)
(0.0208045 0 -0.0161143)
(0.0208045 0 -0.0161143)
(0.0409817 0 -0.0228645)
(0.0409817 0 -0.0228645)
(0.0648344 0 -0.0290286)
(0.0648344 0 -0.0290286)
(0.0905904 0 -0.0345834)
(0.0905904 0 -0.0345834)
(0.116884 0 -0.0394023)
(0.116884 0 -0.0394023)
(0.14267 0 -0.0433021)
(0.14267 0 -0.0433021)
(0.167081 0 -0.0462025)
(0.167081 0 -0.0462025)
(0.189532 0 -0.0482453)
(0.189532 0 -0.0482453)
(0.209982 0 -0.0498234)
(0.209982 0 -0.0498234)
(0.228819 0 -0.0512927)
(0.228819 0 -0.0512927)
(0.246566 0 -0.0528981)
(0.246566 0 -0.0528981)
(0.263775 0 -0.0547714)
(0.263775 0 -0.0547714)
(0.28083 0 -0.0568673)
(0.28083 0 -0.0568673)
)
;
    }
    upperWall
    {
        type            slip;
    }
    lowerWall
    {
        type            slip;
    }
    frontAndBack
    {
        type            empty;
    }
    procBoundary4to1
    {
        type            processor;
    }
    procBoundary4to2
    {
        type            processor;
    }
    procBoundary4to3
    {
        type            processor;
    }
    procBoundary4to5
    {
        type            processor;
    }
}


// ************************************************************************* //
