/*--------------------------------*- C++ -*----------------------------------*\
| =========                 |                                                 |
| \\      /  F ield         | OpenFOAM: The Open Source CFD Toolbox           |
|  \\    /   O peration     | Version:  dev                                   |
|   \\  /    A nd           | Web:      www.OpenFOAM.org                      |
|    \\/     M anipulation  |                                                 |
\*---------------------------------------------------------------------------*/
FoamFile
{
    version     2.0;
    format      ascii;
    class       surfaceScalarField;
    location    "0.82";
    object      meshPhi;
}
// * * * * * * * * * * * * * * * * * * * * * * * * * * * * * * * * * * * * * //

dimensions      [0 3 -1 0 0 0 0];

internalField   nonuniform List<scalar> 
5457
(
-3.02128e-05
1.146e-07
-5.81697e-05
3.615e-07
-8.37831e-05
6.66258e-07
-0.00010729
1.05109e-06
-0.000128175
1.51263e-06
-0.000145499
2.02674e-06
-0.000158246
2.55642e-06
-0.000165543
3.05841e-06
-0.000166838
3.48892e-06
-0.000162043
3.80848e-06
-0.000151573
3.98733e-06
-0.000136313
4.00441e-06
-0.000117526
3.8552e-06
-9.67079e-05
3.55443e-06
-7.54087e-05
3.12947e-06
-5.50563e-05
2.61824e-06
-3.68118e-05
2.06442e-06
-2.14725e-05
1.51144e-06
-9.43342e-06
9.96681e-07
-6.90606e-07
5.47295e-07
4.18209e-06
2.11246e-07
5.61131e-06
2.63989e-08
5.36175e-06
-4.92773e-08
4.36489e-06
-7.49451e-08
3.09255e-06
-7.36344e-08
1.88408e-06
-5.77305e-08
9.40192e-07
-3.71257e-08
3.39135e-07
-1.85079e-08
6.6676e-08
-5.64389e-09
-1.16835e-09
-3.00106e-05
2.23107e-07
-5.78486e-05
7.06608e-07
-8.34417e-05
1.30934e-06
-0.000107017
2.07553e-06
-0.000128048
2.99755e-06
-0.000145573
4.02582e-06
-0.000158553
5.08802e-06
-0.00016609
6.09929e-06
-0.000167606
6.96993e-06
-0.000162991
7.6195e-06
-0.000152643
7.98597e-06
-0.000137435
8.03008e-06
-0.000118632
7.74427e-06
-9.77384e-05
7.15493e-06
-7.63206e-05
6.31561e-06
-5.5826e-05
5.30163e-06
-3.74363e-05
4.20038e-06
-2.19676e-05
3.09905e-06
-9.82864e-06
2.07301e-06
-1.04074e-06
1.17758e-06
3.92446e-06
5.03262e-07
5.44161e-06
1.22572e-07
5.20033e-06
-4.08001e-08
4.22466e-06
-1.0283e-07
2.97909e-06
-1.11404e-07
1.80109e-06
-9.00326e-08
8.88254e-07
-5.79882e-08
3.14328e-07
-2.83782e-08
5.79702e-08
-8.15379e-09
-1.25027e-09
-2.97167e-05
3.21013e-07
-5.73505e-05
1.02233e-06
-8.28455e-05
1.9084e-06
-0.000106424
3.04493e-06
-0.000127552
4.4204e-06
-0.000145263
5.96151e-06
-0.000158495
7.55985e-06
-0.000166328
9.08773e-06
-0.00016816
1.04108e-05
-0.000163857
1.14067e-05
-0.000153791
1.1979e-05
-0.000138813
1.20734e-05
-0.000120173
1.16801e-05
-9.93713e-05
1.08329e-05
-7.79746e-05
9.609e-06
-5.74394e-05
8.11899e-06
-3.89629e-05
6.49279e-06
-2.33795e-05
4.86049e-06
-1.11125e-05
3.33531e-06
-2.19321e-06
2.00139e-06
2.96013e-06
9.84219e-07
4.6681e-06
3.85408e-07
4.56577e-06
1.04326e-07
3.72846e-06
-2.36347e-08
2.61313e-06
-7.00595e-08
1.55436e-06
-6.81037e-08
7.44995e-07
-4.54563e-08
2.50518e-07
-2.11666e-08
3.82455e-08
-4.67442e-09
-1.09393e-10
-2.93404e-05
4.04169e-07
-5.66833e-05
1.29648e-06
-8.19923e-05
2.44339e-06
-0.000105491
3.9316e-06
-0.00012665
5.74602e-06
-0.000144505
7.79125e-06
-0.000157983
9.92288e-06
-0.000166147
1.19706e-05
-0.000168378
1.37576e-05
-0.000164513
1.51217e-05
-0.000154894
1.59343e-05
-0.000140342
1.61214e-05
-0.000122076
1.56669e-05
-0.000101571
1.46112e-05
-8.03753e-05
1.30519e-05
-5.99379e-05
1.11312e-05
-4.14644e-05
9.0192e-06
-2.5802e-05
6.88682e-06
-1.33911e-05
4.88339e-06
-4.27142e-06
3.12202e-06
1.15507e-06
1.75558e-06
3.1721e-06
9.06361e-07
3.36552e-06
4.60008e-07
2.80668e-06
2.17858e-07
1.94635e-06
8.91515e-08
1.11457e-06
3.26313e-08
4.9496e-07
1.38837e-08
1.41847e-07
9.11e-09
7.59742e-09
6.78701e-09
2.5623e-09
-2.88463e-05
4.68221e-07
-5.57984e-05
1.51661e-06
-8.08457e-05
2.89461e-06
-0.000104217
4.70921e-06
-0.00012539
6.94194e-06
-0.0001434
9.47555e-06
-0.000157167
1.21316e-05
-0.000165739
1.46999e-05
-0.000168479
1.6963e-05
-0.00016519
1.87209e-05
-0.000156175
1.98148e-05
-0.000142214
2.0147e-05
-0.000124486
1.96909e-05
-0.000104432
1.84929e-05
-8.35665e-05
1.66669e-05
-6.33187e-05
1.43813e-05
-4.49017e-05
1.18396e-05
-2.91777e-05
9.25046e-06
-1.66046e-05
6.79793e-06
-7.24704e-06
4.62415e-06
-1.47388e-06
2.90154e-06
9.75506e-07
1.76209e-06
1.6021e-06
1.08874e-06
1.45512e-06
6.67861e-07
9.74404e-07
3.97473e-07
4.80363e-07
2.31037e-07
1.4126e-07
1.29163e-07
-6.58799e-09
6.51276e-08
-3.05183e-08
2.66189e-08
6.6418e-09
-2.82256e-05
5.08857e-07
-5.46817e-05
1.67042e-06
-7.93913e-05
3.2431e-06
-0.000102587
5.35349e-06
-0.000123751
7.97931e-06
-0.000141921
1.0982e-05
-0.000156013
1.41514e-05
-0.000165062
1.724e-05
-0.00016841
1.99921e-05
-0.000165828
2.21718e-05
-0.000157569
2.35894e-05
-0.000144365
2.41236e-05
-0.000127344
2.3736e-05
-0.000107898
2.24738e-05
-8.75047e-05
2.04635e-05
-6.7562e-05
1.7894e-05
-4.92789e-05
1.49932e-05
-3.35359e-05
1.20031e-05
-2.08074e-05
9.1415e-06
-1.11891e-05
6.57677e-06
-4.99836e-06
4.4896e-06
-1.98981e-06
3.01208e-06
-7.83469e-07
2.0386e-06
-3.67932e-07
1.36142e-06
-3.23466e-07
8.76811e-07
-3.50779e-07
5.37793e-07
-3.05144e-07
3.03043e-07
-1.82162e-07
1.45595e-07
-7.04642e-08
5.33861e-08
1.1581e-08
-2.74719e-05
5.21859e-07
-5.33203e-05
1.74608e-06
-7.76142e-05
3.47101e-06
-0.000100583
5.84162e-06
-0.00012171
8.83038e-06
-0.000140038
1.22785e-05
-0.00015448
1.59463e-05
-0.000164065
1.95521e-05
-0.000168112
2.28046e-05
-0.000166356
2.54338e-05
-0.000159001
2.722e-05
-0.000146715
2.80175e-05
-0.000130567
2.77746e-05
-0.00011189
2.65345e-05
-9.21197e-05
2.44295e-05
-7.26204e-05
2.16649e-05
-5.45741e-05
1.84872e-05
-3.8875e-05
1.51632e-05
-2.60273e-05
1.19423e-05
-1.6154e-05
9.01733e-06
-9.48157e-06
6.56199e-06
-5.77359e-06
4.69368e-06
-3.82184e-06
3.33533e-06
-2.67514e-06
2.31333e-06
-1.93927e-06
1.53291e-06
-1.35298e-06
9.50738e-07
-8.14464e-07
5.2905e-07
-3.65573e-07
2.4464e-07
-1.06215e-07
8.40319e-08
1.65868e-08
-2.65849e-05
5.03431e-07
-5.17138e-05
1.73281e-06
-7.55093e-05
3.56103e-06
-9.81939e-05
6.14958e-06
-0.00011925
9.4643e-06
-0.000137724
1.3327e-05
-0.000152533
1.74713e-05
-0.000162697
2.1584e-05
-0.000167519
2.53419e-05
-0.000166696
2.84436e-05
-0.000160375
3.06418e-05
-0.00014916
3.17681e-05
-0.000134051
3.17518e-05
-0.000116309
3.06254e-05
-9.73166e-05
2.8522e-05
-7.84092e-05
2.56597e-05
-6.07281e-05
2.23002e-05
-4.51573e-05
1.87215e-05
-3.22419e-05
1.51954e-05
-2.21436e-05
1.19425e-05
-1.49424e-05
9.1195e-06
-1.03827e-05
6.80878e-06
-7.49155e-06
4.975e-06
-5.42192e-06
3.51193e-06
-3.81319e-06
2.34873e-06
-2.46265e-06
1.451e-06
-1.33897e-06
7.91041e-07
-5.35094e-07
3.52397e-07
-1.33611e-07
1.14627e-07
2.10135e-08
-2.55623e-05
4.4993e-07
-4.98589e-05
1.6203e-06
-7.30693e-05
3.49701e-06
-9.54069e-05
6.25556e-06
-0.000116349
9.8535e-06
-0.000134948
1.40939e-05
-0.000150123
1.86856e-05
-0.000160893
2.32879e-05
-0.000166544
2.75489e-05
-0.000166739
3.11397e-05
-0.000161567
3.37886e-05
-0.000151563
3.53051e-05
-0.000137653
3.55945e-05
-0.000121014
3.4675e-05
-0.000102959
3.26753e-05
-8.47913e-05
2.98164e-05
-6.76196e-05
2.637e-05
-5.22946e-05
2.2623e-05
-3.93798e-05
1.88566e-05
-2.90893e-05
1.53121e-05
-2.13124e-05
1.21203e-05
-1.57399e-05
9.31487e-06
-1.16962e-05
6.9164e-06
-8.49266e-06
4.91583e-06
-5.82903e-06
3.2848e-06
-3.5873e-06
2.00597e-06
-1.82549e-06
1.06742e-06
-6.73286e-07
4.58486e-07
-1.51422e-07
1.42089e-07
2.46004e-08
-2.43971e-05
3.58095e-07
-4.77436e-05
1.39961e-06
-7.02797e-05
3.26564e-06
-9.22023e-05
6.14235e-06
-0.00011298
9.97621e-06
-0.000131668
1.45518e-05
-0.000147195
1.95556e-05
-0.000158576
2.46222e-05
-0.000165087
2.93759e-05
-0.000166359
3.34654e-05
-0.000162428
3.65945e-05
-0.000153756
3.85472e-05
-0.000141186
3.92081e-05
-0.000125812
3.85839e-05
-0.00010886
3.67915e-05
-9.1579e-05
3.40371e-05
-7.50508e-05
3.05941e-05
-6.0097e-05
2.67603e-05
-4.72718e-05
2.28214e-05
-3.68229e-05
1.90281e-05
-2.84095e-05
1.54681e-05
-2.1652e-05
1.21187e-05
-1.62386e-05
9.07359e-06
-1.17004e-05
6.45158e-06
-7.83338e-06
4.28384e-06
-4.62978e-06
2.57704e-06
-2.23385e-06
1.33865e-06
-7.73251e-07
5.56669e-07
-1.61242e-07
1.65777e-07
2.75614e-08
-2.30822e-05
2.24731e-07
-4.53575e-05
1.06238e-06
-6.71292e-05
2.85496e-06
-8.85656e-05
5.79442e-06
-0.00010912
9.81219e-06
-0.000127851
1.46742e-05
-0.000143694
2.0047e-05
-0.00015567
2.5544e-05
-0.000163044
3.07696e-05
-0.000165424
3.53559e-05
-0.000162796
3.89814e-05
-0.000155545
4.14035e-05
-0.000144424
4.24913e-05
-0.000130448
4.22351e-05
-0.000114755
4.0733e-05
-9.85092e-05
3.81742e-05
-8.27447e-05
3.48244e-05
-6.82652e-05
3.09817e-05
-5.56099e-05
2.6934e-05
-4.5022e-05
2.29286e-05
-3.58995e-05
1.90001e-05
-2.77947e-05
1.50705e-05
-2.08257e-05
1.13222e-05
-1.48113e-05
8.02555e-06
-9.66998e-06
5.28295e-06
-5.51622e-06
3.13143e-06
-2.54818e-06
1.59432e-06
-8.39319e-07
6.46797e-07
-1.6599e-07
1.87242e-07
3.03307e-08
-2.16046e-05
4.66573e-08
-4.26858e-05
6.00303e-07
-6.36056e-05
2.25407e-06
-8.44817e-05
5.19889e-06
-0.000104745
9.3449e-06
-0.000123457
1.44391e-05
-0.000139565
2.01302e-05
-0.000152097
2.60152e-05
-0.000160311
3.16814e-05
-0.000163795
3.67441e-05
-0.000162494
4.08624e-05
-0.000156714
4.37732e-05
-0.000147116
4.53262e-05
-0.000134629
4.54876e-05
-0.000120308
4.43347e-05
-0.000105216
4.20445e-05
-9.03186e-05
3.88665e-05
-7.639e-05
3.50857e-05
-6.39505e-05
3.09831e-05
-5.3212e-05
2.67966e-05
-4.33111e-05
2.25091e-05
-3.3751e-05
1.79918e-05
-2.51244e-05
1.35255e-05
-1.75957e-05
9.54437e-06
-1.12183e-05
6.23135e-06
-6.21015e-06
3.65166e-06
-2.77253e-06
1.83435e-06
-8.80829e-07
7.33543e-07
-1.67886e-07
2.09374e-07
3.35827e-08
-1.99495e-05
-1.78853e-07
-3.97117e-05
6.59641e-09
-5.96985e-05
1.45555e-06
-7.99384e-05
4.34816e-06
-9.98349e-05
8.5642e-06
-0.000118453
1.38314e-05
-0.000134753
1.97826e-05
-0.000147777
2.60016e-05
-0.000156782
3.20624e-05
-0.000161333
3.75635e-05
-0.000161335
4.21503e-05
-0.00015703
4.55438e-05
-0.000148986
4.7573e-05
-0.000138036
4.81799e-05
-0.000125138
4.74198e-05
-0.000111266
4.54525e-05
-9.73054e-05
4.25074e-05
-8.39708e-05
3.88455e-05
-7.17483e-05
3.47288e-05
-6.08232e-05
3.03908e-05
-5.01118e-05
2.57728e-05
-3.90894e-05
2.07029e-05
-2.88303e-05
1.55582e-05
-1.98785e-05
1.09361e-05
-1.24128e-05
7.1013e-06
-6.70782e-06
4.1375e-06
-2.92029e-06
2.06954e-06
-9.05533e-07
8.27271e-07
-1.67499e-07
2.37111e-07
3.858e-08
-1.81133e-05
-4.53757e-07
-3.64315e-05
-7.22439e-07
-5.54141e-05
4.58186e-07
-7.4943e-05
3.24334e-06
-9.43907e-05
7.46954e-06
-0.000112825
1.28459e-05
-0.000129224
1.89908e-05
-0.000142647
2.5477e-05
-0.000152359
3.18699e-05
-0.000157901
3.77558e-05
-0.000159136
4.27672e-05
-0.000156254
4.66131e-05
-0.000149739
4.91045e-05
-0.000140318
5.01606e-05
-0.000128846
4.98147e-05
-0.000116203
4.82015e-05
-0.000103197
4.55255e-05
-9.04641e-05
4.20221e-05
-7.8438e-05
3.79333e-05
-6.72879e-05
3.34855e-05
-5.57914e-05
2.85888e-05
-4.34316e-05
2.30466e-05
-3.17182e-05
1.73228e-05
-2.15611e-05
1.21573e-05
-1.32367e-05
7.88584e-06
-7.02566e-06
4.60257e-06
-3.00693e-06
2.32095e-06
-9.17047e-07
9.46421e-07
-1.62447e-07
2.80805e-07
4.85711e-08
-1.62241e-05
-7.20972e-07
-3.29262e-05
-1.49754e-06
-5.07505e-05
-7.10208e-07
-6.94983e-05
1.878e-06
-8.84063e-05
6.05671e-06
-0.000106554
1.14752e-05
-0.000122937
1.77416e-05
-0.000136637
2.44193e-05
-0.00014693
3.10685e-05
-0.000153343
3.72708e-05
-0.000155705
4.26491e-05
-0.00015415
4.68995e-05
-0.000149085
4.98179e-05
-0.000141136
5.13057e-05
-0.000131049
5.13722e-05
-0.000119604
5.01225e-05
-0.000107521
4.77323e-05
-9.53693e-05
4.4417e-05
-8.35274e-05
4.04041e-05
-7.21543e-05
3.59099e-05
-5.99824e-05
3.08239e-05
-4.65381e-05
2.49365e-05
-3.36785e-05
1.87783e-05
-2.26228e-05
1.3202e-05
-1.37096e-05
8.60122e-06
-7.18648e-06
5.0733e-06
-3.03974e-06
2.61763e-06
-9.06215e-07
1.11964e-06
-1.31924e-07
3.65214e-07
7.84312e-08
4.19719e-07
-1.05144e-09
2.24641e-06
1.93162e-08
7.49006e-06
7.25933e-08
1.75733e-05
2.16893e-07
3.25949e-05
4.87154e-07
5.16922e-05
8.68531e-07
7.37633e-05
1.32288e-06
9.79111e-05
1.78028e-06
0.00012353
2.18394e-06
0.000147739
2.39233e-06
0.000168319
2.20671e-06
0.000186831
1.60821e-06
0.000204373
6.79417e-07
0.000220773
-4.84789e-07
0.00023569
-1.80288e-06
0.000248636
-3.14248e-06
0.00025908
-4.41279e-06
0.000266492
-5.56021e-06
0.00027033
-6.517e-06
0.000270094
-7.23552e-06
0.00026535
-7.69049e-06
0.000255759
-7.87913e-06
0.000241092
-7.80671e-06
0.000221236
-7.48435e-06
0.000196192
-6.92526e-06
0.000166066
-6.14159e-06
0.000131048
-5.14209e-06
9.14022e-05
-3.93076e-06
4.73766e-05
-2.50509e-06
-8.7486e-07
4.42746e-07
2.53639e-09
2.36267e-06
4.37425e-08
7.72844e-06
1.57653e-07
1.78682e-05
4.47877e-07
3.28308e-05
9.7293e-07
5.17608e-05
1.7127e-06
7.35829e-05
2.58082e-06
9.74253e-05
3.44138e-06
0.000122658
4.18512e-06
0.000146741
4.56452e-06
0.000167358
4.18216e-06
0.000185822
2.97562e-06
0.000203426
1.14314e-06
0.000219935
-1.13817e-06
0.000234966
-3.69835e-06
0.000248041
-6.32328e-06
0.000258626
-8.82957e-06
0.000266177
-1.10885e-05
0.000270138
-1.2961e-05
0.000269989
-1.43558e-05
0.000265307
-1.52446e-05
0.000255755
-1.56118e-05
0.000241109
-1.54653e-05
0.000221258
-1.48259e-05
0.00019621
-1.37188e-05
0.000166075
-1.2167e-05
0.000131047
-1.01875e-05
9.13928e-05
-7.78742e-06
4.73617e-05
-4.96174e-06
-1.73228e-06
4.69773e-07
6.08854e-09
2.48018e-06
6.92107e-08
7.87193e-06
2.49315e-07
1.78224e-05
6.78977e-07
3.23464e-05
1.42278e-06
5.06703e-05
2.45271e-06
7.18118e-05
3.65087e-06
9.49391e-05
4.83449e-06
0.000119481
5.81165e-06
0.000143213
6.26489e-06
0.000163773
5.67203e-06
0.00018226
3.89057e-06
0.00020005
1.203e-06
0.000216838
-2.1095e-06
0.000232182
-5.79599e-06
0.000245595
-9.59823e-06
0.000256526
-1.32469e-05
0.000264392
-1.65225e-05
0.000268628
-1.92363e-05
0.000268721
-2.12637e-05
0.000264243
-2.25554e-05
0.00025486
-2.30862e-05
0.000240353
-2.28649e-05
0.000220622
-2.19194e-05
0.00019568
-2.02846e-05
0.000165644
-1.79927e-05
0.00013072
-1.50676e-05
9.11678e-05
-1.15188e-05
4.72388e-05
-7.33945e-06
-2.5624e-06
4.91029e-07
9.78137e-09
2.53896e-06
9.43724e-08
7.7981e-06
3.34697e-07
1.72811e-05
8.78692e-07
3.10032e-05
1.78954e-06
4.83169e-05
3.02926e-06
6.8399e-05
4.44832e-06
9.04919e-05
5.83511e-06
0.000114076
6.93381e-06
0.000137195
7.35112e-06
0.000157618
6.49932e-06
0.000176253
4.18213e-06
0.000194348
7.30624e-07
0.000211549
-3.49085e-06
0.000227381
-8.1782e-06
0.000241311
-1.30179e-05
0.000252764
-1.76775e-05
0.000261117
-2.18486e-05
0.000265788
-2.53059e-05
0.00026627
-2.79046e-05
0.000262133
-2.95575e-05
0.000253048
-3.0231e-05
0.000238803
-2.99326e-05
0.000219308
-2.8694e-05
0.000194586
-2.65568e-05
0.000164763
-2.35602e-05
0.000130052
-1.97323e-05
9.0714e-05
-1.50845e-05
4.7003e-05
-9.61185e-06
-3.35616e-06
5.03228e-07
1.424e-08
2.5366e-06
1.19839e-07
7.55797e-06
4.10197e-07
1.64106e-05
1.03854e-06
2.91381e-05
2.06024e-06
4.52321e-05
3.42366e-06
6.40303e-05
4.94708e-06
8.48903e-05
6.39424e-06
0.000107316
7.48858e-06
0.000129626
7.77823e-06
0.000149845
6.61853e-06
0.000168686
3.78737e-06
0.000187161
-3.31841e-07
0.000204866
-5.33197e-06
0.000221296
-1.08821e-05
0.000235853
-1.66011e-05
0.00024792
-2.21098e-05
0.000256861
-2.70511e-05
0.000262075
-3.11559e-05
0.000263044
-3.42465e-05
0.000259337
-3.62099e-05
0.000250631
-3.69999e-05
0.000236727
-3.66192e-05
0.000217542
-3.51005e-05
0.000193114
-3.24888e-05
0.000163578
-2.88279e-05
0.000129145
-2.41468e-05
9.00823e-05
-1.84592e-05
4.66731e-05
-1.17614e-05
-4.10622e-06
4.98397e-07
1.9144e-08
2.46226e-06
1.4253e-07
7.15918e-06
4.69624e-07
1.52758e-05
1.14891e-06
2.69149e-05
2.22045e-06
4.17014e-05
3.61417e-06
5.90922e-05
5.13144e-06
7.8578e-05
6.50763e-06
9.97321e-05
7.45829e-06
0.000121142
7.51781e-06
0.000141109
6.01622e-06
0.000160138
2.718e-06
0.000178999
-1.97884e-06
0.000197244
-7.63861e-06
0.000214316
-1.39031e-05
0.000229555
-2.03431e-05
0.000242289
-2.65401e-05
0.000251868
-3.21177e-05
0.00025768
-3.67639e-05
0.000259192
-4.02625e-05
0.000255971
-4.24799e-05
0.000247702
-4.3356e-05
0.000234194
-4.28862e-05
0.000215377
-4.11001e-05
0.000191301
-3.80434e-05
0.000162111
-3.37604e-05
0.000128015
-2.82797e-05
8.92927e-05
-2.16203e-05
4.62617e-05
-1.37757e-05
-4.8087e-06
4.75539e-07
2.32545e-08
2.32026e-06
1.57619e-07
6.63377e-06
5.0386e-07
1.39785e-05
1.19499e-06
2.45107e-05
2.25263e-06
3.79784e-05
3.58935e-06
5.39449e-05
4.99957e-06
7.20072e-05
6.19687e-06
9.18346e-05
6.88385e-06
0.000112303
6.6092e-06
0.000131994
4.7274e-06
0.000151194
1.00406e-06
0.000170419
-4.17731e-06
0.000189174
-1.03699e-05
0.000206853
-1.71978e-05
0.000222753
-2.42098e-05
0.000236158
-3.09574e-05
0.000246387
-3.70375e-05
0.000252809
-4.21099e-05
0.000254881
-4.59294e-05
0.000252169
-4.83416e-05
0.000244364
-4.92714e-05
0.000231285
-4.87041e-05
0.000212875
-4.66631e-05
0.000189195
-4.31923e-05
0.000160393
-3.8333e-05
0.00012668
-3.21114e-05
8.83662e-05
-2.45502e-05
4.5783e-05
-1.56416e-05
-5.45942e-06
4.43867e-07
2.51573e-08
2.13463e-06
1.61245e-07
6.03813e-06
5.07344e-07
1.26318e-05
1.17277e-06
2.20915e-05
2.15793e-06
3.42807e-05
3.35851e-06
4.88876e-05
4.5653e-06
6.55884e-05
5.49064e-06
8.41222e-05
5.82446e-06
0.00010364
5.14072e-06
0.000123011
2.84946e-06
0.000142344
-1.27377e-06
0.000161887
-6.85993e-06
0.000181092
-1.34699e-05
0.00019931
-2.07263e-05
0.000215805
-2.81691e-05
0.000229829
-3.53318e-05
0.000240666
-4.17866e-05
0.000247666
-4.71746e-05
0.000250277
-5.12293e-05
0.000248065
-5.3777e-05
0.000240725
-5.47271e-05
0.000228086
-5.40533e-05
0.000210101
-5.17692e-05
0.000186843
-4.79142e-05
0.000158462
-4.25258e-05
0.000125176
-3.56276e-05
8.7324e-05
-2.72394e-05
4.52445e-05
-1.73527e-05
-6.05578e-06
4.08204e-07
2.50086e-08
1.92807e-06
1.54258e-07
5.42585e-06
4.80189e-07
1.13245e-05
1.08491e-06
1.9799e-05
1.94651e-06
3.08074e-05
2.94541e-06
4.41648e-05
3.86865e-06
5.96331e-05
4.43744e-06
7.69936e-05
4.34711e-06
9.56185e-05
3.20378e-06
0.000114642
4.87739e-07
0.000134027
-4.0028e-06
0.000153799
-9.92767e-06
0.000173362
-1.68648e-05
0.000192023
-2.44358e-05
0.000209018
-3.21815e-05
0.000223568
-3.96291e-05
0.000234931
-4.63392e-05
0.000242441
-5.19397e-05
0.000245539
-5.61481e-05
0.000243789
-5.87739e-05
0.00023689
-5.9712e-05
0.000224681
-5.89231e-05
0.000207121
-5.64073e-05
0.000184294
-5.21978e-05
0.000156357
-4.63282e-05
0.000123538
-3.88164e-05
8.61892e-05
-2.96779e-05
4.46561e-05
-1.89038e-05
-6.5961e-06
3.67482e-07
2.31683e-08
1.71935e-06
1.38348e-07
4.84652e-06
4.24817e-07
1.01316e-05
9.36113e-07
1.77491e-05
1.62987e-06
2.77293e-05
2.37483e-06
3.99876e-05
2.95732e-06
5.43765e-05
3.10624e-06
7.07266e-05
2.53276e-06
8.85741e-05
8.89984e-07
0.000107256
-2.25651e-06
0.000126622
-7.07962e-06
0.00014652
-1.32825e-05
0.000166325
-2.04649e-05
0.000185306
-2.82496e-05
0.000202674
-3.61854e-05
0.000217625
-4.38028e-05
0.000229402
-5.06603e-05
0.000237324
-5.63789e-05
0.000240827
-6.06659e-05
0.000239474
-6.33164e-05
0.000232969
-6.42121e-05
0.000221156
-6.33012e-05
0.000204001
-6.0569e-05
0.000181599
-5.60388e-05
0.000154119
-4.97365e-05
0.000121794
-4.16748e-05
8.49785e-05
-3.18635e-05
4.40267e-05
-2.02932e-05
-7.07975e-06
3.27463e-07
1.98832e-08
1.53489e-06
1.14254e-07
4.34813e-06
3.43218e-07
9.12111e-06
7.32403e-07
1.60368e-05
1.22251e-06
2.51777e-05
1.67393e-06
3.65291e-05
1.87532e-06
5.00157e-05
1.56491e-06
6.55249e-05
4.70115e-07
8.27208e-05
-1.69885e-06
0.000101089
-5.27696e-06
0.000120385
-1.04026e-05
0.000140317
-1.68278e-05
0.000160239
-2.41819e-05
0.000179403
-3.20934e-05
0.000196998
-4.0122e-05
0.000212206
-4.78092e-05
0.00022426
-5.47193e-05
0.000232471
-6.04717e-05
0.00023627
-6.47692e-05
0.000235225
-6.7399e-05
0.000229044
-6.8228e-05
0.000217575
-6.71886e-05
0.000200793
-6.4257e-05
0.000178804
-5.94407e-05
0.000151784
-5.27531e-05
0.000119971
-4.42036e-05
8.37104e-05
-3.37965e-05
4.3365e-05
-2.15215e-05
-7.50698e-06
2.96298e-07
1.54105e-08
1.39778e-06
8.31434e-08
3.97227e-06
2.38757e-07
8.35679e-06
4.82547e-07
1.47457e-05
7.42046e-07
2.32531e-05
8.7256e-07
3.3913e-05
6.66126e-07
4.67008e-05
-1.26885e-07
6.15449e-05
-1.75972e-06
7.82015e-05
-4.46158e-06
9.62778e-05
-8.46588e-06
0.000115465
-1.38729e-05
0.00013535
-2.04781e-05
0.00015527
-2.79417e-05
0.00017447
-3.59035e-05
0.000192138
-4.39427e-05
0.000207445
-5.16148e-05
0.000219621
-5.84961e-05
0.000227982
-6.42135e-05
0.000231954
-6.84664e-05
0.000231112
-7.10368e-05
0.000225176
-7.17777e-05
0.000213994
-7.06042e-05
0.000197554
-6.74844e-05
0.000175962
-6.24113e-05
0.000149394
-5.53835e-05
0.00011809
-4.64036e-05
8.2394e-05
-3.5477e-05
4.26782e-05
-2.25901e-05
-7.87878e-06
2.80673e-07
9.59167e-09
1.32921e-06
4.51232e-08
3.76561e-06
1.1419e-07
7.90902e-06
1.95736e-07
1.39566e-05
2.06653e-07
2.20391e-05
-6.9685e-10
3.22238e-05
-6.29396e-07
4.45202e-05
-1.91549e-06
5.88832e-05
-4.09082e-06
7.51155e-05
-7.3206e-06
9.2912e-05
-1.17358e-05
0.000111939
-1.74012e-05
0.000131696
-2.4152e-05
0.0001515
-3.16759e-05
0.000170598
-3.96283e-05
0.000188184
-4.76114e-05
0.00020343
-5.51997e-05
0.000215571
-6.19853e-05
0.000223934
-6.76088e-05
0.000227955
-7.17698e-05
0.000227213
-7.42421e-05
0.000221435
-7.48706e-05
0.000210479
-7.35584e-05
0.000194338
-7.02607e-05
0.00017311
-6.4956e-05
0.000146965
-5.76294e-05
0.000116154
-4.82802e-05
8.10366e-05
-3.69112e-05
4.19726e-05
-2.35022e-05
-8.19612e-06
2.9866e-07
1.66778e-09
1.37351e-06
-1.42059e-09
3.80027e-06
-3.03935e-08
7.86396e-06
-1.23876e-07
1.37552e-05
-3.7422e-07
2.16122e-05
-9.30153e-07
3.15223e-05
-1.98799e-06
4.35192e-05
-3.77002e-06
5.75771e-05
-6.48696e-06
7.35036e-05
-1.02339e-05
9.10378e-05
-1.50362e-05
0.000109847
-2.0932e-05
0.000129381
-2.77971e-05
0.000148954
-3.53427e-05
0.000167815
-4.32386e-05
0.000185166
-5.11095e-05
0.000200197
-5.85559e-05
0.000212153
-6.51901e-05
0.000220377
-7.06652e-05
0.000224322
-7.46871e-05
0.000223574
-7.70269e-05
0.000217867
-7.75225e-05
0.000207066
-7.60679e-05
0.000191165
-7.26028e-05
0.000170256
-6.70912e-05
0.000144508
-5.95107e-05
0.00011419
-4.98533e-05
7.96588e-05
-3.81122e-05
4.12546e-05
-2.42639e-05
-8.46054e-06
4.45562e-07
-2.41607e-08
1.67175e-06
-7.24668e-08
4.23129e-06
-2.16658e-07
8.36753e-06
-5.03048e-07
1.42641e-05
-1.02999e-06
2.20646e-05
-1.94493e-06
3.18688e-05
-3.43622e-06
4.37291e-05
-5.71411e-06
5.76174e-05
-8.94674e-06
7.33383e-05
-1.31688e-05
9.06393e-05
-1.83498e-05
0.000109181
-2.44777e-05
0.000128399
-3.1435e-05
0.000147615
-3.89627e-05
0.000166095
-4.67507e-05
0.000183057
-5.4455e-05
0.000197717
-6.17051e-05
0.000209341
-6.8136e-05
0.000217289
-7.34151e-05
0.000221031
-7.72576e-05
0.000220171
-7.94366e-05
0.000214448
-7.97842e-05
0.000203733
-7.81837e-05
0.000188019
-7.45603e-05
0.000167395
-6.88658e-05
0.000142038
-6.10703e-05
0.000112216
-5.11542e-05
7.82678e-05
-3.91025e-05
4.05263e-05
-2.48904e-05
-8.6776e-06
-1.50649e-05
-9.34081e-07
-3.05943e-05
-2.17933e-06
-4.7537e-05
-1.91563e-06
-6.59902e-05
2.73786e-07
-8.49672e-05
4.29103e-06
-0.000103389
9.68635e-06
-0.000120244
1.59977e-05
-0.000134605
2.27868e-05
-0.000145737
2.96118e-05
-0.000153147
3.60547e-05
-0.000156628
4.17322e-05
-0.000156262
4.63292e-05
-0.00015239
4.96284e-05
-0.000145559
5.15146e-05
-0.000136437
5.19735e-05
-0.000125726
5.10825e-05
-0.000114081
4.89916e-05
-0.00010203
4.58979e-05
-8.99365e-05
4.20183e-05
-7.79737e-05
3.75643e-05
-6.48646e-05
3.2419e-05
-5.01601e-05
2.63578e-05
-3.60234e-05
1.99404e-05
-2.39742e-05
1.41026e-05
-1.43926e-05
9.28766e-06
-7.47669e-06
5.59245e-06
-3.11626e-06
3.00139e-06
-8.5886e-07
1.38463e-06
-2.97564e-09
5.22491e-07
1.54048e-07
1.60172e-07
-1.3775e-05
-1.14212e-06
-2.79259e-05
-2.79407e-06
-4.34038e-05
-3.01225e-06
-6.07939e-05
-1.38984e-06
-7.93181e-05
2.21124e-06
-9.76215e-05
7.45105e-06
-0.00011457
1.37373e-05
-0.000129256
2.05563e-05
-0.000140945
2.74731e-05
-0.000149139
3.40736e-05
-0.0001536
3.99725e-05
-0.000154351
4.48479e-05
-0.000151661
4.84699e-05
-0.00014599
5.07069e-05
-0.000137916
5.15245e-05
-0.000128055
5.09778e-05
-0.000116991
4.91954e-05
-0.000105214
4.63597e-05
-9.30919e-05
4.26822e-05
-8.08456e-05
3.83803e-05
-6.72883e-05
3.33506e-05
-5.19249e-05
2.73291e-05
-3.70577e-05
2.08388e-05
-2.44747e-05
1.4883e-05
-1.4565e-05
9.96283e-06
-7.458e-06
6.16993e-06
-2.95465e-06
3.47453e-06
-5.49186e-07
1.73797e-06
4.67397e-07
7.44316e-07
2.51917e-07
8.08017e-07
-1.23686e-05
-1.37933e-06
-2.52098e-05
-3.45838e-06
-3.92756e-05
-4.06653e-06
-5.5198e-05
-2.94723e-06
-7.27354e-05
4.12942e-08
-9.06576e-05
4.84124e-06
-0.000107554
1.09638e-05
-0.000122414
1.77388e-05
-0.000134512
2.46591e-05
-0.000143339
3.13284e-05
-0.000148631
3.73634e-05
-0.00015036
4.24365e-05
-0.000148721
4.63098e-05
-0.000144094
4.88392e-05
-0.00013697
4.99737e-05
-0.000127887
4.97505e-05
-0.000117373
4.82822e-05
-0.000105898
4.57401e-05
-9.38612e-05
4.23374e-05
-8.15725e-05
3.83127e-05
-6.80676e-05
3.36302e-05
-5.25193e-05
2.79137e-05
-3.72101e-05
2.15084e-05
-2.43455e-05
1.55327e-05
-1.42505e-05
1.05909e-05
-6.99402e-06
6.74903e-06
-2.30411e-06
3.97119e-06
3.55029e-07
2.11329e-06
1.68862e-06
9.67506e-07
3.1636e-07
2.35654e-06
-1.07461e-05
-1.64249e-06
-2.21439e-05
-4.20621e-06
-3.48986e-05
-5.22312e-06
-4.93921e-05
-4.49485e-06
-6.55308e-05
-2.04191e-06
-8.25827e-05
2.10908e-06
-9.91857e-05
7.76983e-06
-0.00011407
1.43525e-05
-0.000126408
2.11913e-05
-0.000135681
2.78378e-05
-0.000141617
3.39202e-05
-0.000144144
3.91044e-05
-0.000143389
4.31506e-05
-0.000139657
4.59074e-05
-0.000133364
4.73123e-05
-0.000124983
4.7389e-05
-0.000115
4.62366e-05
-0.000103878
4.40175e-05
-9.20584e-05
4.09454e-05
-7.99705e-05
3.72801e-05
-6.70032e-05
3.30756e-05
-5.18396e-05
2.79127e-05
-3.64122e-05
2.18813e-05
-2.33821e-05
1.60253e-05
-1.31459e-05
1.10925e-05
-5.729e-06
7.23087e-06
-7.75823e-07
4.39e-06
2.27511e-06
2.4101e-06
4.12065e-06
1.09618e-06
2.58928e-07
5.31643e-06
-8.89391e-06
-1.93042e-06
-1.86231e-05
-5.0269e-06
-2.99313e-05
-6.5094e-06
-4.3091e-05
-6.18842e-06
-5.7841e-05
-4.14785e-06
-7.36426e-05
-5.6512e-07
-8.95228e-05
4.42128e-06
-0.000104206
1.05031e-05
-0.000116599
1.70976e-05
-0.000126097
2.36397e-05
-0.000132468
2.96838e-05
-0.000135591
3.48908e-05
-0.000135531
3.90301e-05
-0.000132531
4.19477e-05
-0.000126946
4.35741e-05
-0.000119198
4.3923e-05
-0.000109739
4.30823e-05
-9.90264e-05
4.12027e-05
-8.75273e-05
3.84869e-05
-7.57372e-05
3.51796e-05
-6.32895e-05
3.13245e-05
-4.89631e-05
2.66601e-05
-3.41234e-05
2.13138e-05
-2.12062e-05
1.60009e-05
-1.08901e-05
1.13161e-05
-3.26302e-06
7.50671e-06
2.04824e-06
4.60716e-06
5.63045e-06
2.50645e-06
8.15273e-06
1.02141e-06
-1.16584e-08
1.00213e-05
-6.79728e-06
-2.23924e-06
-1.46346e-05
-5.9104e-06
-2.42773e-05
-7.90371e-06
-3.59696e-05
-8.04945e-06
-4.9379e-05
-6.43963e-06
-6.38793e-05
-3.30203e-06
-7.86912e-05
1.10346e-06
-9.28375e-05
6.53641e-06
-0.000105064
1.26167e-05
-0.000114556
1.88349e-05
-0.00012114
2.47182e-05
-0.000124652
2.98683e-05
-0.000125087
3.40212e-05
-0.000122655
3.70322e-05
-0.000117656
3.8828e-05
-0.000110478
3.9417e-05
-0.000101544
3.88764e-05
-9.12932e-05
3.73417e-05
-8.01878e-05
3.49945e-05
-6.86974e-05
3.20431e-05
-5.64924e-05
2.84887e-05
-4.30057e-05
2.42075e-05
-2.9343e-05
1.94937e-05
-1.71201e-05
1.49106e-05
-6.99417e-06
1.08005e-05
8.36315e-07
7.29737e-06
6.58936e-06
4.46347e-06
1.08015e-05
2.27796e-06
1.40919e-05
6.31236e-07
-5.86492e-07
1.671e-05
-4.44888e-06
-2.56519e-06
-1.01614e-05
-6.84662e-06
-1.79237e-05
-9.39105e-06
-2.79355e-05
-1.00498e-05
-3.98544e-05
-8.93272e-06
-5.30176e-05
-6.26421e-06
-6.6635e-05
-2.33935e-06
-7.99036e-05
2.53814e-06
-9.1696e-05
8.00442e-06
-0.000101028
1.36584e-05
-0.000107656
1.91614e-05
-0.000111354
2.41339e-05
-0.000112073
2.82293e-05
-0.000110046
3.12654e-05
-0.000105506
3.31743e-05
-9.88377e-05
3.39643e-05
-9.04292e-05
3.37036e-05
-8.06941e-05
3.25108e-05
-7.00643e-05
3.05442e-05
-5.89579e-05
2.79835e-05
-4.71157e-05
2.48419e-05
-3.43813e-05
2.10396e-05
-2.18325e-05
1.68717e-05
-1.05701e-05
1.28697e-05
-9.32239e-07
9.3108e-06
6.95496e-06
6.23832e-06
1.31835e-05
3.65239e-06
1.80993e-05
1.52643e-06
2.21984e-05
-1.98267e-07
-1.55898e-06
2.55784e-05
-1.84444e-06
-2.90416e-06
-5.1923e-06
-7.82385e-06
-1.08521e-05
-1.09527e-05
-1.89738e-05
-1.21643e-05
-2.91928e-05
-1.1587e-05
-4.0846e-05
-9.45349e-06
-5.31351e-05
-6.05706e-06
-6.5249e-05
-1.71832e-06
-7.62894e-05
3.19024e-06
-8.53314e-05
8.28389e-06
-9.19424e-05
1.32862e-05
-9.57161e-05
1.79029e-05
-9.65823e-05
2.17997e-05
-9.47914e-05
2.47761e-05
-9.056e-05
2.67388e-05
-8.43342e-05
2.76807e-05
-7.64477e-05
2.76689e-05
-6.72746e-05
2.68035e-05
-5.72112e-05
2.52198e-05
-4.66374e-05
2.30733e-05
-3.54483e-05
2.03957e-05
-2.3601e-05
1.71508e-05
-1.20294e-05
1.35972e-05
-1.60572e-06
1.01601e-05
7.50753e-06
7.05365e-06
1.53115e-05
4.33275e-06
2.19282e-05
2.00591e-06
2.75609e-05
3.00484e-08
3.25449e-05
-1.6582e-06
-3.06625e-06
3.67898e-05
1.01839e-06
-3.25114e-06
2.77485e-07
-8.8276e-06
-3.05539e-06
-1.25654e-05
-9.07565e-06
-1.43612e-05
-1.73918e-05
-1.43622e-05
-2.73326e-05
-1.28093e-05
-3.80989e-05
-9.99647e-06
-4.88637e-05
-6.24764e-06
-5.8835e-05
-1.91149e-06
-6.72783e-05
2.65952e-06
-7.36703e-05
7.17337e-06
-7.74779e-05
1.13534e-05
-7.85582e-05
1.49429e-05
-7.69596e-05
1.77543e-05
-7.29189e-05
1.96693e-05
-6.70428e-05
2.06957e-05
-5.96584e-05
2.08909e-05
-5.10717e-05
2.03232e-05
-4.16432e-05
1.9107e-05
-3.17173e-05
1.73753e-05
-2.13291e-05
1.51794e-05
-1.05037e-05
1.25179e-05
6.39265e-08
9.59111e-06
9.7327e-06
6.71873e-06
1.83891e-05
4.06972e-06
2.60603e-05
1.69099e-06
3.28879e-05
-4.07353e-07
3.90843e-05
-2.24453e-06
4.49047e-05
-3.8609e-06
-5.2523e-06
5.00185e-05
4.1372e-06
-3.60014e-06
6.24413e-06
-9.84068e-06
5.46129e-06
-1.42017e-05
1.75203e-06
-1.66031e-05
-4.46117e-06
-1.72107e-05
-1.24971e-05
-1.62726e-05
-2.15567e-05
-1.40825e-05
-3.08208e-05
-1.09588e-05
-3.9517e-05
-7.23223e-06
-4.70054e-05
-3.22539e-06
-5.27653e-05
7.7523e-07
-5.63803e-05
4.511e-06
-5.76342e-05
7.75908e-06
-5.63405e-05
1.03347e-05
-5.25987e-05
1.21247e-05
-4.70339e-05
1.31555e-05
-4.01139e-05
1.34959e-05
-3.21031e-05
1.31873e-05
-2.33402e-05
1.23061e-05
-1.41265e-05
1.09676e-05
-4.60642e-06
9.24086e-06
5.16881e-06
7.15091e-06
1.47583e-05
4.83323e-06
2.37036e-05
2.50679e-06
3.19219e-05
3.02293e-07
3.94388e-05
-1.73553e-06