/*--------------------------------*- C++ -*----------------------------------*\
| =========                 |                                                 |
| \\      /  F ield         | OpenFOAM: The Open Source CFD Toolbox           |
|  \\    /   O peration     | Version:  dev                                   |
|   \\  /    A nd           | Web:      www.OpenFOAM.org                      |
|    \\/     M anipulation  |                                                 |
\*---------------------------------------------------------------------------*/
FoamFile
{
    version     2.0;
    format      ascii;
    class       volScalarField;
    location    "0.82";
    object      p;
}
// * * * * * * * * * * * * * * * * * * * * * * * * * * * * * * * * * * * * * //

dimensions      [0 2 -2 0 0 0 0];

internalField   nonuniform List<scalar> 
2790
(
164.478
164.35
164.554
165.07
165.791
166.664
167.681
168.843
170.147
171.587
173.158
174.855
176.675
178.61
180.651
182.789
185.009
187.291
189.613
191.944
194.247
196.481
198.595
200.536
202.249
203.679
204.781
205.523
205.889
206.047
164.307
164.275
164.5
165.013
165.732
166.602
167.616
168.774
170.071
171.504
173.067
174.756
176.566
178.49
180.521
182.648
184.857
187.13
189.443
191.769
194.071
196.309
198.434
200.394
202.132
203.593
204.73
205.504
205.92
206.267
164.136
164.176
164.418
164.923
165.63
166.49
167.492
168.635
169.915
171.328
172.868
174.531
176.311
178.202
180.196
182.282
184.447
186.673
188.938
191.215
193.472
195.67
197.765
199.711
201.455
202.953
204.169
205.096
205.772
206.427
163.95
164.026
164.28
164.776
165.471
166.319
167.305
168.428
169.685
171.071
172.58
174.208
175.947
177.792
179.733
181.761
183.861
186.016
188.206
190.404
192.582
194.705
196.733
198.627
200.345
201.853
203.129
204.179
205.003
205.734
163.741
163.833
164.097
164.587
165.269
166.099
167.065
168.163
169.391
170.743
172.212
173.794
175.482
177.268
179.143
181.097
183.115
185.181
187.274
189.37
191.443
193.46
195.388
197.193
198.841
200.304
201.559
202.593
203.344
203.798
163.503
163.604
163.872
164.355
165.02
165.829
166.77
167.838
169.03
170.341
171.763
173.291
174.917
176.635
178.432
180.3
182.222
184.182
186.16
188.134
190.078
191.962
193.756
195.43
196.951
198.289
199.409
200.265
200.757
200.627
163.235
163.339
163.606
164.079
164.726
165.511
166.422
167.456
168.607
169.87
171.238
172.704
174.26
175.898
177.608
179.377
181.19
183.03
184.878
186.71
188.502
190.226
191.851
193.347
194.679
195.808
196.679
197.211
197.328
196.406
162.936
163.039
163.303
163.763
164.389
165.147
166.025
167.018
168.123
169.333
170.639
172.036
173.514
175.064
176.675
178.335
180.026
181.733
183.435
185.107
186.725
188.26
189.681
190.953
192.033
192.871
193.397
193.485
193.16
191.331
162.606
162.707
162.963
163.408
164.011
164.738
165.579
166.529
167.582
168.733
169.972
171.292
172.684
174.138
175.641
177.181
178.74
180.3
181.839
183.334
184.756
186.074
187.254
188.253
189.022
189.495
189.589
189.131
188.322
185.53
162.247
162.344
162.589
163.017
163.594
164.287
165.087
165.989
166.987
168.073
169.24
170.477
171.776
173.126
174.513
175.922
177.338
178.738
180.101
181.399
182.602
183.676
184.578
185.258
185.656
185.692
185.276
184.172
182.827
179.031
161.858
161.949
162.182
162.59
163.139
163.797
164.553
165.403
166.341
167.359
168.447
169.596
170.796
172.034
173.297
174.568
175.83
177.058
178.23
179.314
180.277
181.078
181.667
181.983
181.952
181.475
180.462
178.6
176.622
171.73
161.442
161.526
161.745
162.131
162.65
163.269
163.979
164.774
165.649
166.594
167.599
168.655
169.75
170.871
172.003
173.128
174.226
175.273
176.24
177.095
177.798
178.3
178.541
178.449
177.93
176.86
175.143
172.371
169.561
163.323
160.998
161.076
161.279
161.642
162.128
162.707
163.367
164.105
164.913
165.782
166.701
167.659
168.645
169.643
170.638
171.611
172.538
173.394
174.147
174.759
175.185
175.366
175.232
174.69
173.625
171.877
169.318
165.42
161.387
153.187
160.53
160.601
160.787
161.124
161.577
162.113
162.722
163.4
164.138
164.928
165.757
166.615
167.487
168.359
169.213
170.028
170.779
171.437
171.968
172.328
172.465
172.311
171.78
170.759
169.101
166.593
163.036
157.715
151.754
140.095
160.039
160.102
160.271
160.581
160.998
161.49
162.046
162.662
163.329
164.037
164.774
165.528
166.285
167.028
167.737
168.392
168.963
169.42
169.725
169.829
169.672
169.176
168.242
166.734
164.466
161.16
156.492
149.459
140.523
121.435
89.648
89.3335
88.504
86.9513
84.5361
81.1825
76.8857
71.7042
65.7437
59.1392
52.0425
44.617
37.0367
29.4849
22.1512
15.23
8.91844
3.41194
-1.10227
-4.45387
-6.50918
-7.18754
-6.46779
-4.42681
-1.25374
2.84278
7.65743
12.396
14.2713
8.44215
89.8875
89.5329
88.6678
87.0529
84.565
81.1392
76.7767
71.5384
65.5293
58.8823
51.7469
44.2846
36.6684
29.08
21.7084
14.7483
8.3973
2.84907
-1.71465
-5.13434
-7.28151
-8.07179
-7.48652
-5.61715
-2.66613
1.126
5.51481
9.8202
11.7141
6.56796
90.2302
89.7357
88.7108
86.9335
84.2894
80.7238
76.247
70.9227
64.853
58.1647
51
43.5142
35.8752
28.2605
20.857
13.8591
7.46501
1.86879
-2.75064
-6.2415
-8.48032
-9.37484
-8.90768
-7.18086
-4.40903
-0.867258
3.15385
7.06548
8.95442
4.85587
90.4571
89.7712
88.524
86.5163
83.6573
79.9054
75.2788
69.8417
63.6897
56.9406
49.7271
42.1961
34.5093
26.841
19.3764
12.3092
5.83864
0.160302
-4.54671
-8.13434
-10.4871
-11.5115
-11.1809
-9.59926
-6.98308
-3.62081
0.175047
3.87908
5.94066
3.2961
90.4216
89.5074
88.0138
85.7428
82.6409
78.6842
73.8984
68.3448
62.1112
55.3043
48.0465
40.4757
32.7469
25.0303
17.5086
10.3741
3.82566
-1.93971
-6.74169
-10.4331
-12.9038
-14.061
-13.8688
-12.4206
-9.92896
-6.68205
-3.00048
0.633659
3.00019
1.90341
90.0484
88.8637
87.113
84.5716
81.2269
77.071
72.1335
66.4705
60.1595
53.2954
45.9899
38.3727
30.5921
22.814
15.2191
7.99908
1.35418
-4.51493
-9.42237
-13.2148
-15.7822
-17.0453
-16.9609
-15.5979
-13.1621
-9.93362
-6.23648
-2.52547
0.263045
0.672562
89.299
87.8069
85.8045
83.0062
79.4412
75.1096
70.0409
64.2835
57.9044
50.9879
43.6363
35.9721
28.138
20.2965
12.6266
5.31978
-1.42324
-7.39846
-12.413
-16.3028
-18.9537
-20.3022
-20.2952
-18.9719
-16.5286
-13.2332
-9.41043
-5.49967
-2.21286
-0.405385
88.1547
86.3426
84.1175
81.0951
77.3486
72.8761
67.7037
61.8715
55.4366
48.4746
41.08
33.3692
25.4809
17.5743
9.82725
2.43143
-4.41181
-10.4956
-15.6182
-19.6002
-22.3174
-23.7206
-23.7507
-22.4183
-19.9072
-16.4722
-12.4353
-8.22965
-4.40475
-1.33937
86.619
84.5119
82.1208
78.9236
75.0453
70.4727
65.2265
59.3397
52.8613
45.8599
38.425
30.6687
22.7266
14.7557
6.93223
-0.551409
-7.4927
-13.6825
-18.9106
-22.9809
-25.7525
-27.1787
-27.2022
-25.8179
-23.1893
-19.5596
-15.2462
-10.6798
-6.30553
-2.13746
84.7274
82.3968
79.9205
76.6108
72.6555
68.0234
62.7311
56.8063
50.2932
43.2561
35.7821
27.9808
19.9859
11.9531
4.05715
-3.50987
-10.5442
-16.8347
-22.1651
-26.3244
-29.146
-30.5544
-30.5247
-29.0601
-26.2772
-22.4178
-17.7926
-12.8288
-7.91524
-2.80716
82.5589
80.1263
77.663
74.3085
70.3283
65.6693
60.3501
54.3959
47.8502
40.7759
33.2605
25.4133
17.3669
9.2766
1.31455
-6.3283
-13.448
-19.8321
-25.2599
-29.5051
-32.3649
-33.7274
-33.6171
-32.0466
-29.0836
-24.978
-20.0329
-14.6639
-9.23763
-3.35409
80.2452
77.8798
75.5367
72.1972
68.2307
63.5607
58.2175
52.2294
45.6425
38.5222
30.9595
23.0646
14.9697
6.82894
-1.19055
-8.89942
-16.094
-22.5613
-28.0759
-32.3966
-35.2869
-36.6045
-36.4003
-34.6927
-31.5323
-27.1805
-21.9323
-16.1783
-10.2786
-3.78107
77.9711
75.889
73.7769
70.4798
66.5315
61.8386
56.4533
50.4114
43.762
36.5804
28.9634
21.0199
12.8812
4.70182
-3.3648
-11.1281
-18.385
-24.9227
-30.5119
-34.8987
-37.8236
-39.1066
-38.7984
-36.931
-33.567
-28.9806
-23.4631
-17.3684
-11.0458
-4.08833
75.9616
74.4336
72.651
69.3842
65.3838
60.6126
55.1299
48.9914
42.258
35.0096
27.3413
19.3597
11.1943
2.97838
-5.12937
-12.9336
-20.2382
-26.8328
-32.4833
-36.9291
-39.9053
-41.1743
-40.7566
-38.7171
-35.1591
-30.3553
-24.6094
-18.2357
-11.5508
-4.27423
74.3529
74.0846
72.4551
69.0928
64.8923
59.9326
54.2755
47.9941
41.1559
33.8365
26.1233
18.1163
9.93408
1.69917
-6.41697
-14.23
-21.55
-28.1694
-33.8614
-38.3795
-41.4262
-42.7318
-42.2082
-39.9915
-36.2883
-31.3052
-25.3815
-18.7977
-11.8176
-4.33946
159.517
159.572
159.721
160.003
160.383
160.828
161.329
161.88
162.473
163.097
163.739
164.385
165.022
165.632
166.193
166.682
167.07
167.322
167.397
167.241
166.788
165.952
164.62
162.636
159.787
155.734
150.018
141.334
128.736
90.9424
158.957
159.004
159.133
159.384
159.724
160.121
160.564
161.048
161.563
162.098
162.641
163.176
163.689
164.161
164.571
164.89
165.09
165.135
164.979
164.564
163.821
162.66
160.959
158.557
155.236
150.661
144.386
135.31
123.999
111.497
158.364
158.402
158.51
158.729
159.028
159.375
159.757
160.17
160.606
161.05
161.49
161.912
162.298
162.631
162.886
163.035
163.048
162.887
162.505
161.842
160.828
159.373
157.358
154.638
151.029
146.289
140.232
132.566
124.406
118.428
157.739
157.767
157.853
158.039
158.296
158.59
158.91
159.251
159.604
159.956
160.292
160.598
160.857
161.049
161.15
161.131
160.961
160.601
160.003
159.109
157.853
156.148
153.892
150.966
147.242
142.583
136.946
130.261
122.687
114.783
157.082
157.101
157.164
157.316
157.528
157.769
158.025
158.293
158.563
158.82
159.051
159.242
159.374
159.427
159.376
159.193
158.846
158.298
157.5
156.4
154.936
153.032
150.604
147.565
143.825
139.302
133.959
127.729
120.547
112.906
156.395
156.404
156.444
156.561
156.728
156.914
157.107
157.3
157.485
157.648
157.775
157.85
157.857
157.773
157.575
157.235
156.721
155.999
155.022
153.743
152.107
150.052
147.511
144.42
140.716
136.345
131.282
125.519
119.086
112.412
155.681
155.679
155.695
155.776
155.899
156.029
156.157
156.276
156.377
156.445
156.468
156.431
156.315
156.1
155.761
155.272
154.604
153.723
152.589
151.159
149.388
147.223
144.614
141.516
137.886
133.694
128.936
123.638
117.842
111.808
154.941
154.928
154.919
154.965
155.042
155.117
155.18
155.225
155.242
155.218
155.14
154.992
154.758
154.416
153.945
153.319
152.511
151.489
150.22
148.667
146.79
144.551
141.912
138.84
135.309
131.308
126.842
121.937
116.624
111.083
154.178
154.154
154.12
154.13
154.161
154.182
154.181
154.152
154.087
153.972
153.796
153.542
153.195
152.735
152.14
151.389
150.455
149.312
147.929
146.277
144.323
142.039
139.396
136.374
132.958
129.146
124.946
120.383
115.484
110.397
153.395
153.358
153.3
153.275
153.261
153.228
153.163
153.063
152.917
152.715
152.444
152.09
151.637
151.066
150.358
149.494
148.449
147.202
145.726
143.997
141.991
139.684
137.06
134.104
130.809
127.179
123.226
118.971
114.442
109.758
152.594
152.546
152.463
152.403
152.345
152.259
152.133
151.962
151.74
151.454
151.093
150.644
150.091
149.419
148.61
147.644
146.504
145.169
143.618
141.833
139.793
137.484
134.893
132.013
128.843
125.387
121.661
117.684
113.48
109.148
151.78
151.721
151.614
151.519
151.418
151.28
151.094
150.857
150.561
150.196
149.75
149.213
148.569
147.804
146.903
145.85
144.628
143.221
141.612
139.787
137.73
135.433
132.887
130.089
127.041
123.752
120.234
116.507
112.59
108.567
150.956
150.885
150.755
150.627
150.484
150.297
150.054
149.753
149.387
148.947
148.423
147.803
147.076
146.229
145.247
144.118
142.828
141.363
139.71
137.859
135.799
133.525
131.031
128.318
125.39
122.257
118.93
115.427
111.765
108.017
150.126
150.045
149.892
149.732
149.549
149.314
149.017
148.656
148.225
147.715
147.118
146.424
145.622
144.7
143.649
142.455
141.108
139.598
137.914
136.049
133.997
131.753
129.316
126.689
123.876
120.888
117.736
114.436
111.002
107.497
149.296
149.205
149.029
148.839
148.618
148.338
147.99
147.573
147.08
146.506
145.843
145.081
144.212
143.226
142.114
140.866
139.474
137.929
136.225
134.356
132.319
130.111
127.734
125.191
122.488
119.635
116.643
113.525
110.295
107.006
148.47
148.369
148.173
147.953
147.697
147.374
146.979
146.509
145.961
145.328
144.604
143.782
142.854
141.812
140.648
139.356
137.928
136.358
134.643
132.777
130.761
128.593
126.277
123.816
121.217
118.488
115.642
112.688
109.641
106.544
147.654
147.543
147.328
147.081
146.791
146.429
145.989
145.471
144.872
144.186
143.408
142.533
141.553
140.463
139.256
137.928
136.472
134.886
133.166
131.31
129.319
127.193
124.937
122.554
120.052
117.439
114.725
111.92
109.036
106.11
146.853
146.733
146.499
146.227
145.906
145.508
145.028
144.466
143.82
143.086
142.261
141.339
140.315
139.184
137.942
136.585
135.109
133.513
131.793
129.952
127.988
125.906
123.708
121.4
118.988
116.48
113.886
111.215
108.476
105.704
146.073
145.945
145.694
145.399
145.048
144.618
144.101
143.499
142.812
142.036
141.169
140.206
139.144
137.979
136.708
135.329
133.839
132.238
130.524
128.7
126.766
124.726
122.585
120.346
118.018
115.606
113.12
110.569
107.961
105.324
145.321
145.184
144.918
144.601
144.225
143.765
143.214
142.577
141.853
141.04
140.136
139.139
138.045
136.852
135.559
134.163
132.664
131.062
129.357
127.552
125.648
123.65
121.562
119.389
117.136
114.812
112.424
109.979
107.487
104.971
144.602
144.458
144.179
143.842
143.442
142.955
142.375
141.706
140.95
140.105
139.17
138.143
137.022
135.807
134.495
133.088
131.584
129.985
128.291
126.506
124.633
122.674
120.636
118.522
116.339
114.094
111.793
109.444
107.054
104.644
143.924
143.774
143.481
143.127
142.706
142.195
141.589
140.893
140.109
139.236
138.274
137.222
136.08
134.846
133.522
132.106
130.601
129.007
127.326
125.561
123.717
121.796
119.803
117.744
115.624
113.449
111.225
108.96
106.661
104.344
143.294
143.138
142.834
142.464
142.024
141.491
140.863
140.143
139.335
138.439
137.455
136.382
135.222
133.975
132.64
131.22
129.715
128.128
126.46
124.716
122.898
121.012
119.062
117.052
114.987
112.874
110.719
108.528
106.308
104.072
142.719
142.558
142.243
141.859
141.402
140.852
140.204
139.464
138.635
137.719
136.716
135.628
134.454
133.196
131.854
130.431
128.929
127.349
125.695
123.97
122.178
120.323
118.41
116.444
114.429
112.37
110.275
108.148
105.996
103.83
142.207
142.041
141.717
141.319
140.848
140.282
139.617
138.86
138.014
137.082
136.065
134.963
133.778
132.512
131.166
129.742
128.243
126.672
125.03
123.323
121.554
119.728
117.848
115.919
113.946
111.935
109.891
107.819
105.724
103.618
141.767
141.595
141.262
140.852
140.369
139.789
139.111
138.34
137.481
136.536
135.507
134.395
133.202
131.93
130.581
129.158
127.663
126.099
124.47
122.779
121.03
119.228
117.377
115.48
113.544
111.573
109.571
107.545
105.499
103.443
141.408
141.23
140.885
140.465
139.97
139.38
138.69
137.908
137.038
136.083
135.044
133.925
132.726
131.451
130.101
128.679
127.188
125.632
124.013
122.335
120.603
118.822
116.994
115.124
113.217
111.278
109.311
107.322
105.315
103.297
141.14
140.952
140.596
140.166
139.664
139.066
138.368
137.577
136.698
135.736
134.691
133.566
132.364
131.086
129.736
128.316
126.829
125.279
123.669
122.003
120.285
118.52
116.711
114.863
112.98
111.066
109.127
107.167
105.191
103.205
140.981
140.764
140.388
139.952
139.445
138.841
138.138
137.342
136.459
135.492
134.443
133.315
132.111
130.832
129.483
128.064
126.581
125.036
123.432
121.774
120.066
118.311
116.515
114.681
112.813
110.916
108.995
107.053
105.096
103.129
140.966
140.696
140.297
139.853
139.341
138.733
138.025
137.226
136.34
135.371
134.321
133.192
131.988
130.71
129.362
127.947
126.467
124.927
123.329
121.678
119.978
118.232
116.446
114.622
112.765
110.88
108.972
107.043
105.1
103.145
3.9966
28.276
52.8162
102.132
100.355
96.8472
110.011
103.225
97.9747
105.187
99.4067
95.5106
105.487
100.768
96.9866
106.195
101.958
98.2562
106.163
102.28
98.8371
105.928
102.386
99.236
105.682
102.436
99.5524
105.416
102.422
99.7736
105.13
102.356
99.9149
104.835
102.256
99.9974
104.538
102.132
100.036
104.243
101.994
100.041
103.955
101.845
100.02
103.675
101.691
99.9796
103.405
101.534
99.924
103.145
101.376
99.8565
102.897
101.22
99.7801
102.661
101.066
99.6974
102.439
100.917
99.6108
102.231
100.774
99.5233
102.041
100.64
99.4372
101.869
100.519
99.3566
101.717
100.409
99.2818
101.594
100.321
99.2228
101.488
100.244
99.1699
101.431
100.21
99.1527
101.374
100.17
99.127
101.414
100.224
99.1863
75.0894
75.4111
73.0168
69.5243
65.0214
59.7486
53.8441
47.385
40.4287
33.0375
25.2876
17.2701
9.09488
0.885434
-7.1993
-14.982
-22.2775
-28.8849
-34.5874
-39.1413
-42.2279
-43.5633
-42.9657
-40.6715
-36.926
-31.8638
-25.8281
-19.1024
-11.8997
-4.30675
89.9363
81.626
76.1934
71.1722
65.7724
59.9689
53.7547
47.1114
40.0482
32.6039
24.8406
16.8398
8.70394
0.554067
-7.46288
-15.1779
-22.4095
-28.9598
-34.6089
-39.11
-42.169
-43.51
-42.9436
-40.6947
-36.9755
-31.949
-25.9027
-19.141
-11.8407
-4.24622
90.7322
82.7446
77.4236
72.1767
66.3678
60.2185
53.7951
47.0424
39.9336
32.4891
24.76
16.8202
8.76566
0.712879
-7.1985
-14.8067
-21.9335
-28.3827
-33.9349
-38.3453
-41.3448
-42.6878
-42.2292
-40.0228
-36.3584
-31.497
-25.5833
-18.9187
-11.7225
-4.27258
89.888
82.8248
77.3739
72.0716
66.322
60.2055
53.7895
47.0561
39.9952
32.628
25.0008
17.1821
9.263
1.35596
-6.40444
-13.862
-20.8421
-27.1514
-32.5753
-36.8788
-39.815
-41.1665
-40.807
-38.7334
-35.244
-30.5902
-24.9246
-18.4888
-11.5162
-4.28388
91.3293
84.3368
78.1815
72.3099
66.3501
60.2094
53.8366
47.1806
40.2265
32.9943
25.527
17.8871
10.1593
2.45085
-5.10924
-12.3705
-19.1631
-25.2987
-30.571
-34.7585
-37.6379
-39.0175
-38.7886
-36.9592
-33.686
-29.2732
-23.9603
-17.8721
-11.2207
-4.26706
92.925
86.2307
79.6513
73.2541
66.9548
60.6378
54.2046
47.5795
40.7242
33.6393
26.355
18.9249
11.4256
3.9558
-3.36339
-10.3895
-16.9605
-22.8965
-28.0024
-32.0731
-34.9082
-36.3407
-36.276
-34.7194
-31.7702
-27.6942
-22.7503
-17.086
-10.8331
-4.20898
94.0717
87.9048
81.3027
74.6751
68.1559
61.6684
55.1247
48.4662
41.6577
34.6875
27.5701
20.3459
13.08
5.86105
-1.20044
-7.97283
-14.3051
-20.0297
-24.9659
-28.9274
-31.7362
-33.2471
-33.3767
-32.1253
-29.5804
-25.9023
-21.3566
-16.1423
-10.3432
-4.09569
94.9806
89.3584
82.9795
76.3817
69.8245
63.2757
56.6705
49.9787
43.1869
36.2913
29.3032
22.2541
15.1983
8.21307
1.39725
-5.13002
-11.2312
-16.7536
-21.5338
-25.4051
-28.2113
-29.8262
-30.1756
-29.2542
-27.1309
-23.9377
-19.8369
-15.0531
-9.73194
-3.91298
95.7188
90.6022
84.5804
78.2005
71.7758
65.3073
58.7496
52.0944
45.3506
38.5307
31.6536
24.7517
17.8748
11.092
4.49162
-1.81971
-7.71855
-13.0679
-17.7223
-21.5348
-24.3693
-26.1163
-26.7089
-26.1368
-24.4506
-21.7533
-18.1764
-13.8663
-8.99384
-3.64999
96.293
91.6334
86.027
79.9815
73.8202
67.5622
61.174
54.6596
48.0428
41.3495
34.6089
27.8589
21.1504
14.5492
8.13668
2.00934
-3.72205
-8.93546
-13.5021
-17.2935
-20.1912
-22.0996
-22.9583
-22.7529
-21.5181
-19.3321
-16.301
-12.5363
-8.16495
-3.31607
96.734
92.4797
87.2941
81.6351
75.8152
69.8605
63.7425
57.4692
51.0708
44.581
38.0355
31.477
24.9586
18.5453
12.3141
6.35429
0.766413
-4.34027
-8.85168
-12.6549
-15.6465
-17.7424
-18.8876
-19.0642
-18.2943
-16.636
-14.1737
-11.0036
-7.21783
-2.94194
97.0746
93.1764
88.3884
83.1231
77.6758
72.0739
66.2898
60.3306
54.2266
48.0136
41.7293
35.4179
29.1326
22.937
16.9045
11.1182
5.67015
0.658988
-3.81351
-7.64749
-10.7517
-13.0512
-14.4954
-15.0638
-14.7687
-13.6532
-11.7842
-9.24455
-6.12267
-2.51684
97.3379
93.752
89.3271
84.4378
79.362
74.1267
68.7038
63.097
57.3343
51.4492
45.4784
39.4639
33.4566
27.5166
21.7124
16.121
10.8261
5.91709
1.48492
-2.3815
-5.60097
-8.10626
-9.85015
-10.8104
-10.9923
-10.4276
-9.17089
-7.2945
-4.88227
-2.03527
97.5399
94.2279
90.1296
85.5875
80.8635
75.9846
70.9217
65.6757
60.2706
54.7368
49.1073
43.4204
37.7224
32.0679
26.5194
21.1465
16.0247
11.2338
6.85508
2.96761
-0.356278
-3.05598
-5.0876
-6.42809
-7.07774
-7.06051
-6.42228
-5.22826
-3.55999
-1.52671
97.6926
94.6208
90.8139
86.5866
82.1863
77.6397
72.9184
68.0202
62.9656
57.7815
52.4968
47.1452
41.7674
36.4117
31.1335
25.9943
21.0609
16.4037
12.0943
8.20262
4.79264
1.91871
-0.378825
-2.07714
-3.17349
-3.68633
-3.65518
-3.14008
-2.22054
-1.00867
97.8049
94.9436
91.3957
87.4509
83.3431
79.0993
74.6918
70.1165
65.3904
60.5371
55.582
50.5541
45.4885
40.4272
35.4179
30.5142
25.774
21.2585
17.0301
13.1494
9.67261
6.64787
4.11159
2.08542
0.573717
-0.438158
-0.984682
-1.12086
-0.922686
-0.498958
97.8835
95.2065
91.888
88.1951
84.3491
80.3772
76.2527
71.9696
67.5423
62.9918
58.3402
53.6119
48.8372
44.0517
39.2967
34.6177
30.0644
25.6892
21.5455
17.6857
14.1582
11.005
8.25829
5.938
4.049
2.57943
1.49919
0.75869
0.287633
-0.0145184
97.934
95.4179
92.3017
88.8325
85.2193
81.4893
77.6166
73.5939
69.4337
65.1546
60.7752
56.3166
51.8043
47.2687
42.7447
38.2711
33.89
29.6458
25.5839
21.7487
18.1818
14.9193
11.9891
9.40888
7.18357
5.30337
3.74217
2.45613
1.38228
0.431735
97.9609
95.5847
92.6466
89.3749
85.9675
82.4511
78.8006
75.008
71.0839
67.0445
62.9056
58.6852
54.4048
50.09
45.7705
41.4791
37.2511
33.1242
29.1364
25.3255
21.7266
18.3703
15.2807
12.4733
9.95249
7.71019
5.72399
3.95582
2.35074
0.832603
97.9683
95.7133
92.9311
89.8332
86.6066
83.2776
79.8221
76.2314
72.5144
68.6845
64.7559
60.7435
56.6652
52.5428
48.4012
44.2682
40.1734
36.1484
32.2254
28.4359
24.8096
21.3725
18.145
15.1404
12.3627
9.8052
7.44879
5.26089
3.19437
1.1855
97.96
95.8094
93.1631
90.2173
87.1486
83.9831
80.6977
77.2831
73.746
70.0982
66.352
62.5197
58.6161
54.6596
50.6712
46.6742
42.6936
38.7558
34.8878
31.1162
27.4659
23.9589
20.6125
17.438
14.4388
11.6095
8.93397
6.38446
3.92103
1.49105
97.9401
95.8789
93.3502
90.5366
87.6051
84.5813
81.4433
78.1808
74.7991
71.3085
67.7194
64.0418
60.2881
56.4735
52.6159
48.7348
44.8511
40.9871
37.1654
33.4083
29.7369
26.1697
22.7213
19.4012
16.2127
13.151
10.2026
7.34421
4.54193
1.75248
97.9119
95.9268
93.4993
90.7997
87.9862
85.0843
82.0726
78.9406
75.692
72.336
68.881
65.3353
61.709
58.0151
54.2683
50.4851
46.6831
42.881
39.0978
35.3524
31.6625
28.0436
24.5083
21.0646
17.7153
14.4565
11.2769
8.15655
5.0671
1.97281
97.8803
95.9591
93.6178
91.0154
88.3027
85.5044
82.6
79.5787
76.4431
73.201
69.8593
66.4249
62.9061
59.3136
55.6599
51.9587
48.225
44.4744
40.723
36.9868
33.2808
29.6183
26.0097
22.462
18.9777
15.5534
12.1795
8.83939
5.50873
2.1577
97.8469
95.9787
93.7097
91.1891
88.5611
85.8496
83.0352
80.1064
77.0652
73.918
70.6706
67.3287
63.8993
60.391
56.8142
53.1807
49.5031
45.7948
42.0693
38.3403
34.6205
30.9213
27.2516
23.6175
20.0211
16.4595
12.9246
9.40222
5.87164
2.30785
97.8208
95.9955
93.786
91.3329
88.7745
86.1345
83.3938
80.5409
77.5771
74.5076
71.3371
68.0707
64.7141
61.2743
57.7601
54.1815
50.5493
46.8749
43.1701
39.4466
35.7153
31.986
28.2665
24.5619
20.8742
17.2009
13.535
9.86418
6.17057
2.43209
97.7957
96.004
93.8416
91.4422
88.9391
86.3556
83.6733
80.8806
77.978
74.9695
71.8596
68.6528
65.3536
61.9675
58.5021
54.9663
51.3694
47.7214
44.0324
40.3127
36.5718
32.8184
29.0592
25.2989
21.539
17.7775
14.0081
10.2202
6.39831
2.52361
97.7958
96.0288
93.9026
91.5446
89.0835
86.5428
83.9047
81.1574
78.3009
75.3385
72.2741
69.1119
65.8556
62.5095
59.0804
55.5762
52.0052
48.3763
44.6985
40.9809
37.2321
33.4598
29.6702
25.8673
22.0524
18.2238
14.3759
10.4988
6.57883
2.5981
97.7869
96.0348
93.9321
91.6019
89.1691
86.6569
84.0481
81.331
78.505
75.5731
72.5388
69.4061
66.1781
62.8585
59.4533
55.97
52.4162
48.7998
45.1293
41.4131
37.659
33.8742
30.0644
26.2331
22.3817
18.5083
14.6074
10.6701
6.68376
2.6338
97.8446
96.0939
94.0052
91.6923
89.2759
86.7796
84.1868
81.486
78.6763
75.7602
72.7412
69.6231
66.4087
63.1013
59.7067
56.2321
52.6846
49.0721
45.4025
41.6838
37.9238
34.1293
30.3057
26.4565
22.583
18.683
14.751
10.7771
6.7458
2.63319
)
;

boundaryField
{
    inlet
    {
        type            zeroGradient;
    }
    outlet
    {
        type            fixedValue;
        value           uniform 0;
    }
    flap
    {
        type            zeroGradient;
    }
    upperWall
    {
        type            zeroGradient;
    }
    lowerWall
    {
        type            zeroGradient;
    }
    frontAndBack
    {
        type            empty;
    }
}


// ************************************************************************* //
