/*--------------------------------*- C++ -*----------------------------------*\
| =========                 |                                                 |
| \\      /  F ield         | OpenFOAM: The Open Source CFD Toolbox           |
|  \\    /   O peration     | Version:  dev                                   |
|   \\  /    A nd           | Web:      www.OpenFOAM.org                      |
|    \\/     M anipulation  |                                                 |
\*---------------------------------------------------------------------------*/
FoamFile
{
    version     2.0;
    format      ascii;
    class       surfaceVectorField;
    location    "0.27";
    object      Uf;
}
// * * * * * * * * * * * * * * * * * * * * * * * * * * * * * * * * * * * * * //

dimensions      [0 1 -1 0 0 0 0];

internalField   nonuniform List<vector> 
5457
(
(9.91924 -7.90174e-23 0.0238958)
(9.96634 3.80574e-23 0.0388244)
(9.82371 -7.70367e-23 0.031379)
(9.92616 1.17115e-22 0.0470901)
(9.71195 0 0.0375569)
(9.85784 -1.60043e-22 0.0565169)
(9.58209 4.34833e-23 0.0438419)
(9.76335 -1.66247e-22 0.067372)
(9.43402 4.23932e-23 0.0503127)
(9.64902 1.70328e-22 0.0787927)
(9.26782 1.89789e-22 0.0570307)
(9.51681 3.58153e-22 0.0907097)
(9.08319 1.88453e-22 0.0641407)
(9.36604 -1.79476e-22 0.103354)
(8.87946 -1.74216e-22 0.0717835)
(9.19569 7.81907e-22 0.116954)
(8.65576 -1.73148e-22 0.0800748)
(9.00491 -9.47752e-22 0.131692)
(8.41106 -1.12633e-22 0.0891109)
(8.79278 1.70472e-21 0.147723)
(8.14425 -1.09841e-22 0.0989721)
(8.55825 -1.96867e-21 0.165179)
(7.85415 0 0.109717)
(8.3001 0 0.184166)
(7.53965 0 0.121371)
(8.0171 -4.44143e-21 0.204745)
(7.19978 0 0.13392)
(7.70806 4.05614e-21 0.22691)
(6.83383 5.85029e-22 0.147292)
(7.37191 -4.39191e-21 0.250571)
(6.44153 5.70465e-22 0.161351)
(7.00788 4.51787e-21 0.275523)
(6.02313 3.99722e-21 0.175888)
(6.61559 9.78259e-21 0.301434)
(5.57963 -1.54527e-21 0.190616)
(6.1952 -1.51689e-20 0.327819)
(5.11289 -5.31932e-21 0.20518)
(5.74759 2.54519e-21 0.35404)
(4.62573 -1.2483e-20 0.219158)
(5.27447 0 0.379302)
(4.12202 -2.50884e-20 0.232081)
(4.77853 5.95331e-21 0.402668)
(3.60674 -1.93795e-20 0.243447)
(4.26348 1.22757e-20 0.423076)
(3.08591 -6.67051e-21 0.252729)
(3.73409 -2.64894e-22 0.439358)
(2.5666 -7.54215e-21 0.259395)
(3.19622 1.39437e-20 0.450253)
(2.05676 -7.35153e-21 0.262953)
(2.65666 -1.18426e-19 0.454419)
(1.56517 0 0.263108)
(2.12307 9.11269e-20 0.450452)
(1.10109 -1.69865e-20 0.260119)
(1.60357 1.28341e-19 0.436965)
(0.673974 -1.66385e-20 0.256062)
(1.10658 -1.33301e-19 0.41265)
(0.291586 -1.097e-19 0.242703)
(0.631744 0 0.377453)
(0.287478 -1.03126e-19 0.295207)
(9.99754 2.33013e-22 0.0498673)
(9.99289 3.80575e-23 0.0400056)
(9.96147 3.00893e-23 0.0680021)
(9.97751 -1.16318e-22 0.0648715)
(9.9042 -3.2637e-22 0.0838959)
(9.9378 3.20311e-22 0.0854796)
(9.82729 -3.55346e-23 0.100505)
(9.87285 -6.59704e-22 0.107272)
(9.73058 4.88542e-22 0.11798)
(9.7877 1.27465e-22 0.130257)
(9.61394 -1.84276e-23 0.136407)
(9.68437 1.07231e-21 0.15437)
(9.47705 4.25877e-22 0.156086)
(9.56241 -1.19026e-21 0.179979)
(9.31929 -1.42898e-23 0.17733)
(9.42094 7.78341e-22 0.207519)
(9.1398 9.63435e-22 0.200407)
(9.25915 -7.72618e-22 0.237363)
(8.93752 -1.98463e-22 0.225541)
(9.07621 1.70475e-21 0.269839)
(8.71127 -1.83396e-21 0.252924)
(8.87108 -1.41784e-21 0.305245)
(8.45976 -4.49715e-21 0.282699)
(8.64257 -3.73382e-21 0.343835)
(8.18167 -2.78513e-22 0.314933)
(8.38935 -1.28402e-22 0.385792)
(7.87571 -4.4182e-22 0.349587)
(8.11005 4.05626e-21 0.431187)
(7.54073 -3.54064e-22 0.386486)
(7.80334 -5.46158e-21 0.479944)
(7.17586 1.37927e-20 0.425284)
(7.46798 3.93644e-21 0.531786)
(6.78061 -9.66947e-21 0.465432)
(7.10295 9.78305e-21 0.586198)
(6.35504 -1.08506e-20 0.506166)
(6.70761 -1.91045e-20 0.642388)
(5.89992 7.83268e-21 0.54649)
(6.28179 1.06086e-20 0.69926)
(5.41682 1.85122e-20 0.585189)
(5.82598 -5.57548e-21 0.755405)
(4.90829 4.34331e-20 0.620845)
(5.34146 7.20073e-20 0.809108)
(4.37794 3.13917e-20 0.651867)
(4.83042 8.65109e-20 0.85837)
(3.83042 2.06893e-20 0.676535)
(4.29603 6.65229e-21 0.900941)
(3.27145 -9.83753e-20 0.693056)
(3.7425 1.45027e-22 0.934371)
(2.70763 -1.76892e-20 0.699676)
(3.175 -8.20083e-20 0.956093)
(2.14608 2.19875e-19 0.694907)
(2.59943 -1.21441e-19 0.963584)
(1.59385 1.077e-20 0.67798)
(2.022 9.41689e-20 0.954709)
(1.05672 -1.14366e-19 0.65062)
(1.44929 1.45038e-19 0.928283)
(0.534998 3.59923e-23 0.605867)
(0.873586 0 0.887879)
(0.406709 -5.27801e-19 0.811444)
(9.99009 -3.15366e-22 0.0576331)
(9.99059 -3.77807e-22 0.044769)
(9.95696 1.80903e-22 0.0854733)
(9.97256 -6.98922e-22 0.0812056)
(9.90303 -2.37275e-23 0.111631)
(9.93371 7.99746e-22 0.112755)
(9.83078 -4.87186e-22 0.139029)
(9.87163 -3.28567e-22 0.144752)
(9.74051 7.23202e-22 0.168034)
(9.79025 6.85132e-22 0.178296)
(9.63205 -1.29591e-22 0.198817)
(9.69162 -1.6353e-22 0.213566)
(9.50514 -8.12992e-22 0.23179)
(9.57554 -7.31411e-22 0.251023)
(9.35928 -1.59622e-25 0.267421)
(9.44129 0 0.291254)
(9.19376 -1.55661e-25 0.306141)
(9.28821 -5.01278e-23 0.334807)
(9.00766 4.44542e-22 0.34834)
(9.11561 0 0.382188)
(8.7999 -3.34711e-21 0.394371)
(8.9226 2.20254e-22 0.433869)
(8.56922 6.79939e-22 0.444526)
(8.70814 -4.18999e-21 0.490277)
(8.31428 4.25782e-21 0.498996)
(8.471 -2.51585e-21 0.551763)
(8.03364 -1.08294e-21 0.557824)
(8.20986 8.98259e-21 0.618552)
(7.72585 -1.05613e-21 0.620855)
(7.92333 -3.38379e-24 0.690686)
(7.38955 0 0.687675)
(7.60997 0 0.767956)
(7.02355 0 0.757563)
(7.26842 0 0.84984)
(6.627 2.69433e-21 0.829447)
(6.89743 4.94027e-21 0.935436)
(6.19947 -3.01888e-21 0.901882)
(6.49603 -2.54359e-21 1.02342)
(5.74117 4.88747e-20 0.973034)
(6.06366 4.46224e-20 1.11199)
(5.25305 1.15492e-19 1.0407)
(5.60027 -3.91667e-20 1.1989)
(4.73693 6.07593e-20 1.10232)
(5.10649 4.92698e-20 1.28143)
(4.1956 -1.3942e-20 1.15508)
(4.58377 1.03807e-19 1.35644)
(3.6328 1.54732e-20 1.19596)
(4.03442 -2.29449e-19 1.42046)
(3.05313 -1.86652e-19 1.22194)
(3.46166 1.12475e-19 1.46982)
(2.46171 -2.45445e-19 1.23044)
(2.86951 2.58242e-20 1.501)
(1.8636 2.28156e-19 1.21989)
(2.26242 -2.4869e-19 1.51117)
(1.26295 2.57691e-19 1.19231)
(1.64651 2.60025e-19 1.49921)
(0.660155 -5.3525e-19 1.14229)
(1.01172 -2.67731e-19 1.47097)
(0.473789 -8.75271e-19 1.40634)
(9.98597 -7.63445e-22 0.0688135)
(9.98936 -7.58935e-23 0.0515159)
(9.95287 -5.84186e-23 0.107774)
(9.9696 -7.7823e-23 0.0975197)
(9.8999 4.81398e-22 0.145015)
(9.93062 3.18693e-22 0.139548)
(9.82884 8.56421e-22 0.183154)
(9.86968 1.64673e-22 0.181614)
(9.74034 -2.12588e-22 0.223033)
(9.79001 6.85141e-22 0.225396)
(9.63433 -7.73586e-22 0.265115)
(9.6935 5.38833e-22 0.271429)
(9.5106 9.07086e-23 0.309986)
(9.58011 -1.53965e-21 0.320285)
(9.36879 -5.05571e-23 0.358292)
(9.44924 4.73582e-23 0.372664)
(9.20835 -4.93034e-23 0.410649)
(9.30033 3.15182e-21 0.429261)
(9.02856 -2.2139e-22 0.467637)
(9.13281 -3.07189e-21 0.490735)
(8.82852 -6.7767e-22 0.529799)
(8.94593 7.22033e-21 0.557714)
(8.60718 -7.36361e-21 0.597617)
(8.73879 -7.17674e-21 0.63079)
(8.36338 2.3531e-21 0.67147)
(8.51034 -1.54913e-20 0.71048)
(8.09582 9.94952e-21 0.751579)
(8.2594 1.5875e-20 0.797181)
(7.8031 1.05222e-21 0.837936)
(7.98466 1.06557e-21 0.8911)
(7.4838 0 0.930231)
(7.68474 0 0.992175)
(7.13647 5.00225e-21 1.02777)
(7.35818 0 1.1)
(6.75979 -3.91085e-22 1.12943)
(7.0035 2.43538e-23 1.21372)
(6.35264 4.56843e-20 1.23355)
(6.61928 4.67892e-20 1.33199)
(5.91422 -4.43613e-20 1.33798)
(6.20428 1.27991e-20 1.45289)
(5.44419 -1.04267e-19 1.44)
(5.75748 -1.85114e-19 1.57386)
(4.94285 9.29824e-20 1.53635)
(5.27829 -1.09149e-19 1.69174)
(4.41121 -1.15444e-19 1.62333)
(4.76663 2.0334e-19 1.80277)
(3.85112 -1.28744e-19 1.69691)
(4.22315 -2.15686e-19 1.90263)
(3.26528 3.237e-19 1.75294)
(3.64929 8.37067e-20 1.98665)
(2.6572 1.95576e-20 1.78774)
(3.04747 4.42447e-19 2.05014)
(2.03099 -2.12064e-19 1.79887)
(2.42097 -4.84379e-19 2.08915)
(1.3915 -2.70132e-19 1.78782)
(1.77657 -2.84249e-19 2.10136)
(0.743952 -6.28089e-19 1.74788)
(1.1051 -6.06213e-21 2.09131)
(0.522679 -3.47327e-19 2.03355)
(9.98405 6.11659e-22 0.080791)
(9.98881 3.02063e-22 0.0591831)
(9.95059 3.05542e-22 0.129467)
(9.96821 -3.0429e-22 0.114016)
(9.89851 0 0.176583)
(9.92931 -6.34829e-22 0.165887)
(9.8288 0 0.224555)
(9.86959 -5.70643e-24 0.21778)
(9.74211 1.43453e-21 0.274608)
(9.7918 6.70998e-22 0.271533)
(9.63846 -2.54934e-22 0.32747)
(9.69766 1.59176e-21 0.328004)
(9.51766 -1.56305e-21 0.383857)
(9.58715 1.32982e-23 0.387911)
(9.37937 3.28876e-21 0.444529)
(9.45973 -1.4974e-21 0.452056)
(9.22311 4.91544e-23 0.51023)
(9.31491 6.37884e-21 0.52126)
(9.04822 4.49864e-21 0.581675)
(9.15214 -6.52991e-21 0.596318)
(8.85393 5.38259e-22 0.659544)
(8.97076 7.00868e-21 0.678001)
(8.63931 -1.54084e-20 0.744469)
(8.76993 -1.39899e-20 0.767048)
(8.40329 -1.57648e-21 0.836986)
(8.5487 -1.22238e-21 0.864134)
(8.14469 6.80664e-21 0.937478)
(8.30596 6.89269e-21 0.969824)
(7.86221 0 1.0461)
(8.04047 0 1.0845)
(7.55442 0 1.16271)
(7.75087 0 1.20829)
(7.21983 -4.97518e-21 1.28674)
(7.43567 0 1.34095)
(6.85688 4.77857e-20 1.41715)
(7.09326 3.40193e-20 1.4818)
(6.46402 1.35536e-20 1.5523)
(6.72195 2.01424e-21 1.62961)
(6.03981 -1.30316e-19 1.68994)
(6.32 -4.80125e-20 1.78251)
(5.58296 -1.89387e-19 1.82712)
(5.8857 -1.82467e-19 1.93791)
(5.09256 4.77465e-21 1.96016)
(5.41748 -9.47839e-20 2.09246)
(4.56817 9.83373e-20 2.08475)
(4.91402 2.39863e-21 2.24199)
(4.01005 0 2.19595)
(4.37452 1.27454e-20 2.38153)
(3.41936 2.06645e-19 2.2885)
(3.79891 -2.17367e-19 2.50542)
(2.79849 -7.00796e-20 2.35731)
(3.18831 2.29056e-19 2.60757)
(2.15141 -5.54196e-19 2.39832)
(2.54516 -2.43464e-19 2.68218)
(1.48444 -1.71839e-20 2.41098)
(1.87718 2.37796e-19 2.7245)
(0.807001 2.57802e-19 2.38398)
(1.17761 5.63082e-21 2.73547)
(0.562906 -1.65026e-20 2.68019)
(9.98324 -6.21515e-22 0.0930871)
(9.9886 -1.49484e-22 0.0672409)
(9.9497 -1.2489e-21 0.150877)
(9.96778 1.52842e-22 0.130552)
(9.89871 -6.33676e-22 0.207542)
(9.92937 -6.34838e-22 0.191675)
(9.83074 6.72859e-22 0.265263)
(9.87113 6.41068e-22 0.253044)
(9.74631 8.39835e-22 0.325418)
(9.79559 2.01985e-21 0.316466)
(9.6455 1.83845e-21 0.388912)
(9.70427 -1.2053e-21 0.383032)
(9.52813 5.86783e-23 0.456578)
(9.59715 1.46536e-21 0.453619)
(9.39387 1.69149e-21 0.52928)
(9.47376 -1.54479e-21 0.529134)
(9.24228 -3.65698e-22 0.607882)
(9.33362 6.3259e-21 0.610511)
(9.07275 -3.85061e-21 0.693236)
(9.17624 -1.32518e-20 0.698674)
(8.88453 -7.78471e-21 0.786166)
(9.00097 6.29437e-21 0.794529)
(8.67676 3.57128e-22 0.887456)
(8.80703 -1.44514e-20 0.898959)
(8.44841 7.34912e-21 0.997808)
(8.59349 1.38681e-20 1.0128)
(8.19834 0 1.11778)
(8.35927 0 1.13677)
(7.92525 0 1.24773)
(8.10314 -1.44954e-20 1.27147)
(7.6277 0 1.3877)
(7.8237 3.63616e-20 1.41719)
(7.3041 3.94158e-20 1.53732)
(7.5194 -1.99637e-20 1.57395)
(6.9527 -1.21009e-20 1.69575)
(7.18848 3.89405e-20 1.74127)
(6.57161 -6.01137e-20 1.86151)
(6.82898 -4.01175e-20 1.91818)
(6.15886 -1.01798e-19 2.03244)
(6.43875 3.65805e-20 2.10299)
(5.71241 -8.71669e-20 2.20557)
(6.01545 -3.45014e-20 2.29329)
(5.23032 -9.60167e-20 2.37708)
(5.55664 1.84402e-19 2.48576)
(4.71088 -8.31163e-20 2.54219)
(5.05989 -9.51683e-20 2.67606)
(4.15295 -2.07268e-19 2.6952)
(4.52301 -2.1203e-19 2.85877)
(3.55635 -1.90485e-19 2.8296)
(3.94447 -1.13804e-19 3.02724)
(2.92252 5.05842e-20 2.93844)
(3.32404 2.48629e-20 3.17377)
(2.25542 5.52446e-19 3.01515)
(2.66328 1.24475e-20 3.29004)
(1.56275 2.57813e-19 3.05564)
(1.97037 5.21552e-19 3.36782)
(0.856921 -2.68648e-19 3.04079)
(1.24124 -4.96749e-19 3.40307)
(0.59754 5.32542e-19 3.34715)
(9.98304 6.31904e-22 0.105449)
(9.98859 -7.41847e-22 0.0753933)
(9.94983 7.56747e-22 0.171939)
(9.96799 1.07155e-21 0.146924)
(9.90017 6.55021e-22 0.237731)
(9.93046 3.1145e-22 0.216795)
(9.83428 2.00454e-21 0.304841)
(9.87398 2.14063e-25 0.287231)
(9.75254 -6.64924e-23 0.374711)
(9.80103 1.34887e-21 0.359967)
(9.65506 -1.54478e-21 0.448405)
(9.71297 7.35675e-24 0.436245)
(9.54168 -1.77226e-22 0.526885)
(9.60978 1.10454e-21 0.51709)
(9.41212 3.1883e-21 0.61113)
(9.49102 -2.76249e-21 0.60352)
(9.26593 -6.80847e-21 0.702127)
(9.35627 6.3624e-21 0.69658)
(9.10256 -2.86044e-21 0.800857)
(9.20505 -6.48435e-21 0.797314)
(8.92129 -6.30161e-22 0.908286)
(9.03676 -6.70673e-21 0.906762)
(8.72126 -5.85857e-22 1.02535)
(8.85066 -7.76538e-21 1.02595)
(8.50148 6.34712e-21 1.15291)
(8.64582 1.45975e-20 1.15588)
(8.2608 -1.46751e-20 1.29171)
(8.42118 9.51076e-22 1.29746)
(7.99788 2.24876e-20 1.44231)
(8.17549 -1.5522e-20 1.45145)
(7.71123 1.57175e-20 1.60498)
(7.90731 3.42511e-20 1.61843)
(7.3991 -1.97218e-20 1.77962)
(7.61498 -5.55225e-20 1.79864)
(7.05954 9.99644e-21 1.96564)
(7.29656 3.64152e-20 1.99193)
(6.69031 5.75172e-20 2.16185)
(6.94982 3.92639e-20 2.19762)
(6.28892 1.03088e-19 2.36637)
(6.57218 7.26194e-21 2.41442)
(5.8526 2.39665e-19 2.57642)
(6.1607 -4.03794e-20 2.64022)
(5.37841 1.82341e-19 2.78822)
(5.71204 1.84188e-19 2.87199)
(4.8634 -2.25256e-19 2.99682)
(5.22263 -8.95216e-20 3.10551)
(4.30495 -1.17747e-19 3.19588)
(4.68878 -2.98235e-19 3.33509)
(3.70137 1.02424e-19 3.37756)
(4.10724 9.56274e-20 3.55331)
(3.05285 -1.42517e-20 3.5327)
(3.47599 1.0448e-19 3.7507)
(2.3629 -1.39313e-20 3.65131)
(2.79508 -7.02284e-21 3.91592)
(1.64015 -2.44948e-19 3.72455)
(2.07225 -2.30959e-19 4.03624)
(0.899439 3.01986e-19 3.72214)
(1.30488 -1.02985e-20 4.10129)
(0.628623 7.81612e-19 4.04308)
(9.98322 -2.761e-22 0.117672)
(9.98871 -3.55603e-26 0.0834585)
(9.95073 6.14885e-22 0.192491)
(9.96865 3.0499e-22 0.162946)
(9.90264 -3.47172e-22 0.266969)
(9.93233 3.11525e-22 0.241117)
(9.83914 -6.38225e-22 0.343059)
(9.87793 -1.2844e-21 0.32018)
(9.7605 1.40536e-21 0.422241)
(9.80789 0 0.40182)
(9.66683 2.66944e-21 0.505706)
(9.72351 1.04739e-21 0.487378)
(9.55801 -1.5312e-21 0.594542)
(9.62475 4.49399e-21 0.57801)
(9.43379 5.25747e-22 0.689836)
(9.51121 -5.50112e-21 0.674844)
(9.29375 6.52366e-21 0.79269)
(9.38251 3.11765e-21 0.779029)
(9.13738 -1.03326e-20 0.904211)
(9.23823 3.35967e-21 0.891728)
(8.964 -1.38545e-20 1.0255)
(9.07782 -1.3433e-20 1.01411)
(8.77278 7.69672e-21 1.15765)
(8.90055 -1.48047e-22 1.14736)
(8.56274 9.03275e-21 1.30171)
(8.70554 7.72351e-21 1.29262)
(8.33273 -9.70737e-23 1.4586)
(8.49175 1.61648e-20 1.45101)
(8.08138 -3.15217e-21 1.62912)
(8.25793 -1.75867e-20 1.62352)
(7.8071 -3.80814e-20 1.81381)
(8.00259 -2.11504e-21 1.81096)
(7.50803 1.70812e-21 2.01287)
(7.72399 -3.3393e-20 2.01389)
(7.18197 6.57247e-20 2.22606)
(7.42002 -2.12592e-21 2.23254)
(6.82633 -1.13425e-20 2.45262)
(7.08819 7.12816e-20 2.46665)
(6.43808 -1.36747e-19 2.69106)
(6.7255 -3.99442e-20 2.71541)
(6.01371 -9.32305e-20 2.93904)
(6.32839 -9.61571e-20 2.97728)
(5.54922 -9.06427e-20 3.19314)
(5.89264 9.33709e-20 3.24976)
(5.04026 -1.64693e-19 3.44847)
(5.41337 -1.79794e-19 3.52907)
(4.48243 -8.07483e-20 3.69833)
(4.88519 -8.22925e-20 3.80969)
(3.87201 9.75843e-20 3.93373)
(4.30259 -1.84294e-21 4.08374)
(3.20712 1.10536e-19 4.14306)
(3.66092 1.04496e-19 4.34022)
(2.48976 -2.26596e-19 4.31218)
(2.95744 1.29789e-20 4.56452)
(1.7285 6.8759e-21 4.42619)
(2.19785 -2.30937e-19 4.7383)
(0.940081 4.63992e-19 4.43972)
(1.37792 2.31456e-19 4.84314)
(0.658929 2.34381e-19 4.78501)
(9.98366 5.8483e-22 0.129599)
(9.98891 5.92277e-22 0.0913153)
(9.95219 2.17286e-25 0.212383)
(9.96962 0 0.17846)
(9.90595 -6.44551e-22 0.295108)
(9.93483 -6.14379e-22 0.264502)
(9.84514 -6.29888e-22 0.37974)
(9.8828 -6.37982e-22 0.351733)
(9.76998 -3.44761e-22 0.467792)
(9.81599 6.52808e-22 0.441824)
(9.68057 2.91412e-21 0.560554)
(9.73568 1.3634e-21 0.536186)
(9.57684 3.95318e-22 0.659229)
(9.64181 -1.01046e-21 0.636085)
(9.45857 -2.80145e-21 0.765008)
(9.53404 -3.5079e-21 0.742754)
(9.32539 -4.47164e-23 0.879103)
(9.41203 -1.43518e-22 0.857443)
(9.17684 4.88042e-23 1.00274)
(9.27543 -3.02564e-21 0.981427)
(9.01227 4.39853e-22 1.13717)
(9.12372 6.42679e-21 1.116)
(8.83093 -2.38971e-23 1.28363)
(8.95626 7.3042e-21 1.26249)
(8.63186 1.49598e-20 1.44334)
(8.77221 -7.02358e-21 1.42222)
(8.41392 -1.73251e-21 1.61746)
(8.57058 1.47421e-20 1.5965)
(8.17574 -1.63617e-20 1.80704)
(8.35014 -1.56102e-20 1.78655)
(7.91569 2.1948e-21 2.01289)
(8.10942 0 1.99347)
(7.63179 -3.68732e-20 2.2356)
(7.84661 3.60431e-20 2.21818)
(7.32165 4.27222e-21 2.47538)
(7.55952 -1.0519e-19 2.46132)
(6.98235 4.1395e-20 2.73196)
(7.24545 8.02205e-20 2.72317)
(6.61038 0 3.00449)
(6.90106 0 3.00357)
(6.20144 9.25835e-20 3.2913)
(6.52222 3.86407e-20 3.30173)
(5.75044 1.26136e-21 3.58964)
(6.10382 1.68487e-19 3.61604)
(5.2514 -9.63048e-20 3.89517)
(5.63965 -4.45489e-20 3.94362)
(4.69774 -2.61722e-21 4.20135)
(5.12232 -9.98028e-20 4.27972)
(4.08284 6.07329e-21 4.49847)
(4.54344 6.1429e-21 4.61674)
(3.40142 5.94353e-21 4.77269)
(3.89451 -2.91876e-21 4.94286)
(2.65201 5.80555e-21 5.0052)
(3.16798 6.66486e-21 5.24053)
(1.8411 0 5.17351)
(2.3649 0 5.48489)
(0.986171 1.92352e-21 5.21238)
(1.47358 -1.02861e-19 5.64725)
(0.693639 1.15074e-19 5.59954)
(9.98427 0 0.141108)
(9.98918 -1.30556e-21 0.0988769)
(9.95409 -6.22458e-22 0.23148)
(9.97085 -1.03868e-21 0.193338)
(9.90997 -6.06778e-22 0.322005)
(9.93782 -9.37053e-26 0.28682)
(9.85214 6.61087e-22 0.41471)
(9.88844 1.89252e-21 0.381742)
(9.7808 2.36987e-21 0.511145)
(9.82517 -1.94061e-21 0.479794)
(9.69607 -2.59198e-21 0.612685)
(9.74928 -3.1416e-22 0.58244)
(9.59791 -4.94535e-21 0.720627)
(9.66073 -2.84001e-21 0.69104)
(9.48615 -8.07052e-22 0.836265)
(9.55923 -3.30487e-21 0.806923)
(9.36049 -3.15987e-21 0.960914)
(9.4445 2.91452e-21 0.931432)
(9.22052 3.47003e-21 1.09592)
(9.31624 2.9746e-21 1.06595)
(9.06566 1.33025e-20 1.24265)
(9.17404 6.58564e-21 1.21189)
(8.89522 1.29146e-22 1.40252)
(9.01729 -6.51425e-21 1.37071)
(8.70831 -6.97519e-21 1.57692)
(8.84528 3.21572e-22 1.5439)
(8.50386 4.98473e-22 1.76725)
(8.65707 -1.15432e-21 1.73298)
(8.28053 9.42764e-22 1.97479)
(8.45153 2.67127e-24 1.9394)
(8.0367 3.42856e-20 2.20072)
(8.22723 4.84607e-22 2.16458)
(7.77034 -3.39422e-20 2.44602)
(7.98241 1.74143e-20 2.4098)
(7.47896 -2.70943e-20 2.71142)
(7.71486 -8.51412e-20 2.67619)
(7.15942 3.78788e-20 2.99731)
(7.42181 3.60375e-20 2.96463)
(6.8078 3.90958e-20 3.30362)
(7.0997 3.60226e-20 3.27576)
(6.41914 1.16073e-19 3.62968)
(6.744 3.98578e-20 3.6098)
(5.98724 1.2034e-19 3.97382)
(6.34888 7.69706e-20 3.96636)
(5.50441 -4.86632e-20 4.33291)
(5.90686 4.37462e-20 4.34407)
(4.96145 -8.98661e-20 4.7014)
(5.40845 -9.0902e-20 4.73982)
(4.34788 -2.95221e-21 5.06992)
(4.84189 0 5.14755)
(3.6531 -2.08111e-21 5.42334)
(4.19344 -4.52078e-20 5.55617)
(2.86914 7.85168e-22 5.73837)
(3.44794 4.15213e-20 5.94666)
(1.99637 -1.04243e-19 5.98339)
(2.5976 2.42791e-20 6.28785)
(1.04991 1.126e-21 6.06719)
(1.61327 -1.34334e-19 6.53809)
(0.743135 1.12673e-19 6.52497)
(9.98502 -2.33779e-21 0.152105)
(9.98949 8.60344e-22 0.106078)
(9.95635 -4.03198e-22 0.249661)
(9.97227 5.92805e-22 0.207475)
(9.91457 2.52316e-21 0.347525)
(9.94123 9.11268e-22 0.307951)
(9.85998 -7.55658e-22 0.447808)
(9.89474 3.14156e-21 0.410069)
(9.79278 -4.60405e-21 0.552104)
(9.83528 -3.86919e-21 0.515559)
(9.71311 -5.94069e-22 0.661855)
(9.76414 -1.47607e-23 0.625933)
(9.62097 -1.20418e-21 0.778449)
(9.6813 1.49998e-23 0.742628)
(9.51625 4.95155e-22 0.903266)
(9.58651 -2.5359e-21 0.867054)
(9.39871 9.05064e-21 1.03772)
(9.47959 2.59676e-21 1.00064)
(9.268 6.13613e-21 1.18325)
(9.36029 6.05035e-21 1.14487)
(9.12367 -1.33924e-20 1.34137)
(9.22829 -6.22331e-21 1.30125)
(8.96509 -6.23966e-21 1.51363)
(9.08311 -6.86542e-21 1.47139)
(8.79149 6.12563e-21 1.70161)
(8.92413 2.29845e-22 1.65692)
(8.60189 -1.63514e-21 1.90691)
(8.75053 6.5708e-21 1.85954)
(8.39505 -4.4909e-22 2.13111)
(8.56131 -8.37466e-22 2.08096)
(8.16942 -1.61865e-20 2.37571)
(8.35519 1.42356e-24 2.32289)
(7.92307 -3.50012e-20 2.64215)
(8.13052 -1.64689e-20 2.587)
(7.6535 -2.06317e-20 2.93173)
(7.88524 -3.50465e-20 2.8749)
(7.35752 3.41446e-20 3.24558)
(7.61662 1.40542e-20 3.18819)
(7.031 3.68275e-20 3.58463)
(7.32115 3.63108e-20 3.52836)
(6.66854 1.19217e-21 3.94945)
(6.99417 3.77454e-20 3.89685)
(6.26305 0 4.34003)
(6.62944 3.72758e-20 4.2949)
(5.80526 0 4.75523)
(6.21859 4.33841e-20 4.72325)
(5.28319 0 5.19175)
(5.75034 2.09753e-22 5.18157)
(4.6817 -4.27687e-20 5.64239)
(5.20952 -4.5446e-20 5.66712)
(3.98276 -3.68592e-22 6.09306)
(4.57622 -3.22913e-20 6.17233)
(3.16748 6.48121e-20 6.51791)
(3.82453 4.62238e-20 6.68039)
(2.22273 -8.68636e-21 6.87588)
(2.9315 2.42888e-20 7.15698)
(1.15313 -3.18426e-20 7.04187)
(1.83383 -4.39392e-20 7.5463)
(0.828429 1.15868e-20 7.61686)
(9.98588 3.79329e-21 0.162513)
(9.98984 1.01515e-21 0.112868)
(9.95888 1.9097e-21 0.266823)
(9.97384 1.63126e-21 0.220783)
(9.91967 1.55668e-21 0.371546)
(9.94497 -9.11531e-22 0.327787)
(9.86856 -5.68647e-23 0.478887)
(9.90159 1.24921e-21 0.43659)
(9.80578 7.68325e-22 0.590488)
(9.84619 -1.26959e-21 0.548969)
(9.73151 5.94676e-22 0.707852)
(9.78008 1.34978e-21 0.666482)
(9.64578 -1.34863e-21 0.832436)
(9.70329 -1.36572e-21 0.790625)
(9.54855 -3.70065e-22 0.965701)
(9.61562 2.82188e-21 0.922882)
(9.43966 -3.60988e-22 1.10914)
(9.51695 3.63931e-23 1.06476)
(9.31886 -6.46069e-21 1.2643)
(9.40715 -2.98436e-21 1.21781)
(9.18578 2.95042e-22 1.4328)
(9.28599 -1.14256e-22 1.38365)
(9.03994 -3.1059e-22 1.61632)
(9.15312 -6.37715e-21 1.56398)
(8.88068 7.47069e-22 1.81661)
(9.00804 -6.97935e-21 1.7606)
(8.70717 7.27902e-21 2.03548)
(8.85012 1.45541e-20 1.97535)
(8.51836 -3.7634e-22 2.27476)
(8.67853 -1.44491e-20 2.21018)
(8.31286 -4.77051e-22 2.5363)
(8.49219 -6.90949e-22 2.46706)
(8.08891 -1.675e-20 2.82199)
(8.28973 -2.0351e-22 2.74804)
(7.84422 1.6404e-22 3.1337)
(8.06929 -7.8215e-22 3.05523)
(7.57574 1.64419e-20 3.4734)
(7.82849 -1.04893e-22 3.39088)
(7.27944 3.72465e-20 3.8431)
(7.56409 1.70597e-20 3.75745)
(6.94985 7.38872e-20 4.24492)
(7.27169 5.18039e-20 4.15768)
(6.57949 8.07407e-20 4.68094)
(6.94522 5.49939e-20 4.59468)
(6.15808 4.31233e-20 5.15292)
(6.57618 3.87205e-20 5.07193)
(5.67129 -4.58007e-20 5.66144)
(6.15243 -1.82091e-20 5.59298)
(5.09932 -3.48013e-20 6.20421)
(5.65639 -2.14731e-20 6.16064)
(4.41516 1.5479e-20 6.77251)
(5.06253 -9.47893e-21 6.77492)
(3.58384 5.46651e-21 7.34378)
(4.33236 -3.83728e-21 7.42823)
(2.56644 -1.24602e-20 7.87205)
(3.42028 9.68373e-21 8.09321)
(1.33627 -4.39172e-21 8.1909)
(2.20146 2.59203e-20 8.70777)
(0.993923 -1.2016e-19 8.9642)
(9.98681 -1.13583e-21 0.172268)
(9.99022 -1.15029e-21 0.119207)
(9.96165 -1.22355e-21 0.282876)
(9.97554 0 0.23319)
(9.92517 -1.19276e-21 0.393958)
(9.94899 5.74607e-22 0.346236)
(9.87775 6.3971e-24 0.507817)
(9.9089 3.61512e-24 0.461195)
(9.81965 -6.55361e-22 0.626141)
(9.85777 6.38568e-22 0.579893)
(9.75106 -6.45188e-22 0.750482)
(9.79695 1.30447e-21 0.703926)
(9.67208 2.85717e-21 0.882358)
(9.72648 -1.33357e-21 0.834841)
(9.58274 3.19416e-21 1.0233)
(9.64626 5.60383e-21 0.97418)
(9.48296 -2.62371e-21 1.17486)
(9.55624 -3.14996e-21 1.12351)
(9.3726 3.39774e-21 1.33868)
(9.45639 -1.14163e-23 1.28444)
(9.25142 -6.8623e-21 1.51646)
(9.3466 3.98887e-21 1.45868)
(9.11906 -1.30587e-20 1.71)
(9.22666 -1.28993e-20 1.64801)
(8.97505 7.07964e-21 1.9212)
(9.09623 4.99552e-22 1.85434)
(8.81876 -7.52615e-21 2.15203)
(8.9549 7.4427e-23 2.07967)
(8.64933 -1.46178e-20 2.40458)
(8.80206 -8.4866e-21 2.32611)
(8.46569 -4.34455e-22 2.681)
(8.63692 -2.08103e-22 2.59588)
(8.26636 1.57331e-20 2.98357)
(8.45843 7.114e-22 2.89135)
(8.04942 -1.06762e-21 3.31476)
(8.26518 1.57747e-20 3.21506)
(7.81226 6.77357e-22 3.6773)
(8.05526 -1.64606e-20 3.56987)
(7.55129 3.20221e-20 4.07435)
(7.82606 1.87545e-20 3.95912)
(7.26153 3.30454e-20 4.50966)
(7.57394 1.73712e-20 4.38683)
(6.93593 1.27912e-20 4.98775)
(7.29373 5.0308e-21 4.85804)
(6.56424 -2.32413e-20 5.51398)
(6.9779 -8.76231e-21 5.37919)
(6.13134 6.01889e-21 6.09444)
(6.61522 -2.25272e-20 5.9585)
(5.61438 3.98232e-21 6.73508)
(6.18834 3.24279e-20 6.60629)
(4.97831 -2.87051e-20 7.43926)
(5.66971 -1.92449e-20 7.33476)
(4.16893 6.97718e-22 8.20021)
(5.01179 -1.69402e-20 8.15613)
(3.1051 4.75499e-20 8.98648)
(4.14444 2.59724e-20 9.07241)
(1.68142 -8.91181e-20 9.59963)
(2.84354 6.55821e-20 10.0536)
(1.34354 -1.46661e-19 10.7291)
(9.98782 0 0.181321)
(9.99063 0 0.125063)
(9.9646 1.80552e-21 0.297746)
(9.97734 0 0.244637)
(9.93101 1.76536e-21 0.41467)
(9.95323 1.77054e-21 0.363221)
(9.88746 6.44711e-22 0.534489)
(9.91659 -1.20123e-21 0.483791)
(9.83424 2.60638e-21 0.658932)
(9.86991 -1.23346e-21 0.608218)
(9.77158 5.82698e-22 0.789592)
(9.81456 3.17852e-23 0.738132)
(9.69963 1.49958e-21 0.928036)
(9.75067 1.3112e-21 0.875117)
(9.61851 -8.47636e-22 1.07584)
(9.67817 1.42479e-21 1.02076)
(9.52822 -4.9792e-22 1.23462)
(9.59711 -4.97349e-21 1.17666)
(9.42875 6.30797e-22 1.40607)
(9.50757 5.14231e-21 1.3445)
(9.31998 -2.25165e-21 1.59197)
(9.40957 -3.03626e-21 1.52602)
(9.20173 8.18524e-22 1.79421)
(9.30305 -5.45855e-21 1.72308)
(9.07371 -6.51726e-21 2.0148)
(9.18788 1.27774e-20 1.93767)
(8.93554 -9.98594e-22 2.25585)
(9.06385 -7.15979e-21 2.17189)
(8.78666 6.00512e-21 2.51963)
(8.93064 -6.63863e-21 2.42798)
(8.62632 9.25972e-22 2.80855)
(8.78781 6.95684e-21 2.70834)
(8.4535 9.04096e-22 3.12523)
(8.63474 1.76844e-21 3.01558)
(8.26681 0 3.47259)
(8.47055 -1.80823e-21 3.35257)
(8.06432 1.99479e-21 3.85407)
(8.29404 0 3.72264)
(7.84333 4.07816e-21 4.27383)
(8.10352 1.5333e-20 4.12982)
(7.6 -1.07532e-20 4.73712)
(7.89659 -1.34991e-20 4.57916)
(7.32868 -1.6686e-20 5.25084)
(7.66976 -8.85656e-21 5.07734)
(7.02087 -8.20845e-21 5.82418)
(7.41785 -1.21869e-24 5.63343)
(6.66336 4.41475e-21 6.46956)
(7.13291 1.92463e-21 6.2601)
(6.2346 8.47607e-21 7.20382)
(6.80215 9.95783e-21 6.97556)
(5.69784 -7.4695e-21 8.04977)
(6.40413 2.92681e-21 7.80682)
(4.98633 9.15248e-21 9.03621)
(5.89741 -1.4662e-20 8.79563)
(3.97018 4.36344e-20 10.1988)
(5.21443 6.00131e-21 10.0074)
(2.38021 1.78009e-20 11.4212)
(4.03535 4.60873e-20 11.5565)
(2.16767 -2.48263e-20 13.257)
(9.98887 0 0.189631)
(9.99105 -6.57751e-23 0.130413)
(9.96769 -1.20267e-23 0.31137)
(9.97921 1.13748e-21 0.255078)
(9.93712 -1.23187e-21 0.433599)
(9.95764 -2.45692e-23 0.378679)
(9.89759 -3.07852e-21 0.558795)
(9.92457 -8.86239e-23 0.504301)
(9.84942 -3.79202e-21 0.688724)
(9.88249 -1.88588e-21 0.633854)
(9.79288 7.76099e-22 0.825009)
(9.8328 -1.35951e-21 0.768992)
(9.7282 1.23821e-21 0.969251)
(9.77567 3.93222e-21 0.911326)
(9.65554 -2.77996e-21 1.12306)
(9.71114 -7.2678e-22 1.06247)
(9.57505 7.89556e-22 1.2881)
(9.63933 -2.08505e-21 1.22405)
(9.4868 1.37696e-21 1.4661)
(9.56043 2.05787e-22 1.39778)
(9.39084 -6.27248e-21 1.65888)
(9.47461 -7.70332e-22 1.58543)
(9.28716 6.71624e-21 1.8684)
(9.38197 -6.28551e-21 1.7889)
(9.1757 1.19036e-20 2.09674)
(9.28259 6.27183e-21 2.01021)
(9.05634 -1.27932e-20 2.34611)
(9.17651 -7.2769e-22 2.25154)
(8.92886 -5.53889e-21 2.61889)
(9.06373 -1.45394e-20 2.5152)
(8.79292 7.73892e-21 2.91766)
(8.94419 1.50435e-20 2.80369)
(8.64803 -9.85298e-22 3.24528)
(8.81776 -7.36029e-21 3.11972)
(8.49349 -1.7868e-21 3.60498)
(8.68421 6.55209e-21 3.46638)
(8.32829 1.35271e-20 4.00068)
(8.54319 0 3.84725)
(8.15097 -2.49965e-21 4.43723)
(8.39416 6.74922e-21 4.26674)
(7.95941 -1.15244e-20 4.921)
(8.23633 -5.52538e-21 4.7305)
(7.75044 7.92568e-21 5.46067)
(8.06859 3.92194e-21 5.24614)
(7.51923 1.00818e-20 6.06844)
(7.88928 4.15048e-21 5.82424)
(7.258 7.55533e-21 6.76211)
(7.69605 6.9133e-21 6.4802)
(6.95359 4.44574e-21 7.5688)
(7.48548 -6.18517e-21 7.23731)
(6.58181 -3.96735e-21 8.53241)
(7.25308 5.70888e-21 8.1331)
(6.09303 -1.74384e-20 9.73064)
(6.99146 -1.27344e-20 9.23389)
(5.36607 1.07878e-20 11.3441)
(6.72925 -1.47713e-20 10.6748)
(3.98168 -3.44633e-20 13.9284)
(6.50925 2.37338e-20 12.8612)
(5.6909 -1.74434e-19 17.437)
(-0.534624 -5.68588e-21 0.383802)
(-0.348278 -2.59234e-19 0.50448)
(-1.20322 5.17204e-20 0.417728)
(-0.912879 5.10289e-20 0.616801)
(-1.95289 0 0.432195)
(-1.66048 -9.97834e-20 0.673419)
(-2.76849 0 0.439601)
(-2.46531 -2.67119e-21 0.716776)
(-3.63348 0 0.438244)
(-3.32253 9.55506e-20 0.745108)
(-4.52998 6.19868e-21 0.427618)
(-4.21643 0 0.757382)
(-5.43823 6.3332e-21 0.407564)
(-5.12936 -1.25893e-20 0.752489)
(-6.33613 -1.31977e-20 0.378055)
(-6.04105 0 0.729283)
(-7.19883 -1.00944e-21 0.339132)
(-6.92821 -1.3342e-20 0.68662)
(-7.99868 6.3136e-21 0.290939)
(-7.7644 6.28596e-21 0.623521)
(-8.70546 -7.28108e-21 0.233809)
(-8.52012 -3.43014e-20 0.539429)
(-9.28715 6.30705e-21 0.168323)
(-9.16341 3.34586e-20 0.434503)
(-9.71118 6.77525e-21 0.095339)
(-9.6609 6.69993e-21 0.30989)
(-9.9463 0 0.0159412)
(-9.9795 0 0.168063)
(-9.96505 1.42101e-21 -0.06888)
(-10.0888 6.30139e-21 0.0130635)
(-9.74476 1.13847e-23 -0.157345)
(-9.96431 -4.72344e-21 -0.150693)
(-9.27515 -1.42675e-21 -0.244675)
(-9.59262 1.36095e-21 -0.314048)
(-8.56337 4.63478e-22 -0.324494)
(-8.97469 -1.22319e-21 -0.465368)
(-7.63227 3.49623e-22 -0.391461)
(-8.12779 -5.75633e-22 -0.595153)
(-6.51798 -4.88546e-22 -0.441493)
(-7.08364 -8.43034e-23 -0.69631)
(-5.26681 -3.78339e-22 -0.471922)
(-5.88547 -3.74093e-22 -0.764366)
(-3.9317 0 -0.481723)
(-4.58362 0 -0.797414)
(-2.56743 -6.17894e-23 -0.471976)
(-3.22938 -3.43718e-22 -0.796644)
(-1.2223 -6.32005e-23 -0.445895)
(-1.86912 2.66784e-22 -0.767973)
(0.0722747 1.96613e-23 -0.408126)
(-0.493385 0 -0.722673)
(1.29338 2.01076e-23 -0.365066)
(0.775988 1.00926e-23 -0.666552)
(2.42411 1.23179e-24 -0.324337)
(1.93946 1.32023e-23 -0.603589)
(3.47332 -8.39666e-24 -0.289886)
(3.0467 3.36233e-24 -0.547744)
(4.4538 -7.51248e-24 -0.271458)
(4.06886 9.10671e-25 -0.500636)
(5.25421 0 -0.49309)
(-0.644415 -2.09092e-19 0.898331)
(-0.379657 -2.07336e-19 1.14768)
(-1.37537 -9.84164e-20 0.991088)
(-0.998283 2.0272e-19 1.29743)
(-2.16449 -1.03536e-19 1.05299)
(-1.78834 -2.9496e-19 1.38747)
(-3.00452 9.14373e-20 1.10022)
(-2.6124 -2.67318e-21 1.45915)
(-3.88395 9.66242e-20 1.12797)
(-3.47832 1.70177e-19 1.50573)
(-4.78811 -1.84549e-20 1.13328)
(-4.37373 -9.58412e-20 1.52339)
(-5.69918 -1.88611e-20 1.11356)
(-5.28366 -6.37194e-21 1.50874)
(-6.59608 0 1.06649)
(-6.18957 1.28351e-20 1.45864)
(-7.4544 -6.59864e-21 0.990001)
(-7.06916 1.31713e-20 1.37022)
(-8.24641 -3.38811e-20 0.882576)
(-7.89639 -5.46806e-20 1.2411)
(-8.9415 4.91606e-21 0.743632)
(-8.64167 -8.07057e-20 1.06991)