/*--------------------------------*- C++ -*----------------------------------*\
| =========                 |                                                 |
| \\      /  F ield         | OpenFOAM: The Open Source CFD Toolbox           |
|  \\    /   O peration     | Version:  dev                                   |
|   \\  /    A nd           | Web:      www.OpenFOAM.org                      |
|    \\/     M anipulation  |                                                 |
\*---------------------------------------------------------------------------*/
FoamFile
{
    version     2.0;
    format      ascii;
    class       volVectorField;
    location    "1.55";
    object      cellDisplacement;
}
// * * * * * * * * * * * * * * * * * * * * * * * * * * * * * * * * * * * * * //

dimensions      [0 1 0 0 0 0 0];

internalField   nonuniform List<vector> 
465
(
(0.467257 0 -0.168631)
(0.458454 0 -0.162479)
(0.467822 0 -0.168216)
(0.458939 0 -0.162507)
(0.449426 0 -0.156467)
(0.43917 0 -0.150148)
(0.467284 0 -0.167133)
(0.458445 0 -0.161879)
(0.448915 0 -0.156237)
(0.438603 0 -0.150263)
(0.4274 0 -0.144002)
(0.465681 0 -0.165467)
(0.456982 0 -0.16066)
(0.447528 0 -0.155419)
(0.437243 0 -0.149801)
(0.426034 0 -0.143849)
(0.413796 0 -0.137601)
(0.40042 0 -0.131083)
(0.463065 0 -0.163294)
(0.454581 0 -0.158914)
(0.445277 0 -0.154066)
(0.435089 0 -0.148802)
(0.42394 0 -0.143167)
(0.411736 0 -0.137194)
(0.398376 0 -0.130913)
(0.383749 0 -0.124343)
(0.367742 0 -0.117495)
(0.459507 0 -0.160681)
(0.451287 0 -0.156698)
(0.442187 0 -0.152225)
(0.432155 0 -0.147308)
(0.421122 0 -0.141987)
(0.409005 0 -0.136296)
(0.395714 0 -0.130262)
(0.381145 0 -0.123903)
(0.365192 0 -0.117233)
(0.347739 0 -0.110254)
(0.455084 0 -0.157685)
(0.447157 0 -0.154063)
(0.438299 0 -0.14994)
(0.428466 0 -0.145354)
(0.417595 0 -0.140342)
(0.405613 0 -0.134932)
(0.392435 0 -0.12915)
(0.377969 0 -0.123014)
(0.362113 0 -0.116536)
(0.344761 0 -0.10972)
(0.325801 0 -0.102565)
(0.305118 0 -0.0950626)
(0.449859 0 -0.15434)
(0.442249 0 -0.151048)
(0.43366 0 -0.147249)
(0.424059 0 -0.142977)
(0.413387 0 -0.138262)
(0.401577 0 -0.133129)
(0.388553 0 -0.1276)
(0.374229 0 -0.121693)
(0.35851 0 -0.115417)
(0.341297 0 -0.10878)
(0.322483 0 -0.101778)
(0.30196 0 -0.0944046)
(0.279612 0 -0.0866429)
(0.443918 0 -0.150684)
(0.436643 0 -0.147692)
(0.428324 0 -0.144182)
(0.418983 0 -0.140207)
(0.408536 0 -0.135775)
(0.396929 0 -0.130911)
(0.38409 0 -0.125633)
(0.369941 0 -0.119957)
(0.354394 0 -0.113893)
(0.337355 0 -0.107445)
(0.318724 0 -0.100613)
(0.298397 0 -0.0933897)
(0.276266 0 -0.0857605)
(0.252221 0 -0.0777054)
(0.226152 0 -0.0691981)
(0.437346 0 -0.146745)
(0.430374 0 -0.144005)
(0.422373 0 -0.140776)
(0.413304 0 -0.137075)
(0.403093 0 -0.132908)
(0.391706 0 -0.1283)
(0.379077 0 -0.123268)
(0.365131 0 -0.117824)
(0.349787 0 -0.111977)
(0.332954 0 -0.10573)
(0.314539 0 -0.0990818)
(0.294442 0 -0.0920266)
(0.272561 0 -0.0845518)
(0.248792 0 -0.0766391)
(0.22303 0 -0.0682646)
(0.195165 0 -0.0593969)
(0.430228 0 -0.142534)
(0.423567 0 -0.14003)
(0.415861 0 -0.137049)
(0.407064 0 -0.133596)
(0.397112 0 -0.12968)
(0.385956 0 -0.125316)
(0.373554 0 -0.120523)
(0.359834 0 -0.11531)
(0.344717 0 -0.109682)
(0.328118 0 -0.103644)
(0.309948 0 -0.0971932)
(0.290113 0 -0.0903237)
(0.268515 0 -0.0830244)
(0.245056 0 -0.075279)
(0.219635 0 -0.0670659)
(0.192151 0 -0.0583577)
(0.162503 0 -0.0491218)
(0.130596 0 -0.0393216)
(0.422667 0 -0.138069)
(0.416289 0 -0.135773)
(0.408852 0 -0.133008)
(0.400316 0 -0.129783)
(0.390626 0 -0.126099)
(0.379731 0 -0.121973)
(0.367568 0 -0.117412)
(0.35409 0 -0.112426)
(0.339221 0 -0.107022)
(0.322879 0 -0.101199)
(0.30498 0 -0.0949571)
(0.285435 0 -0.0882892)
(0.26415 0 -0.0811855)
(0.241033 0 -0.0736314)
(0.215987 0 -0.0656075)
(0.188916 0 -0.0570896)
(0.159727 0 -0.0480492)
(0.128328 0 -0.0384533)
(0.0946292 0 -0.0282648)
(0.414734 0 -0.133345)
(0.408602 0 -0.131227)
(0.401421 0 -0.12866)
(0.39312 0 -0.125636)
(0.383676 0 -0.122169)
(0.373063 0 -0.118275)
(0.361174 0 -0.113945)
(0.347949 0 -0.109185)
(0.333343 0 -0.104005)
(0.317278 0 -0.0984049)
(0.299672 0 -0.0923819)
(0.28044 0 -0.0859305)
(0.259495 0 -0.0790415)
(0.236747 0 -0.0717017)
(0.212106 0 -0.0638941)
(0.185481 0 -0.0555974)
(0.156784 0 -0.0467865)
(0.125928 0 -0.0374325)
(0.0928314 0 -0.0275035)
(0.0574243 0 -0.0169675)
(0.406503 0 -0.128357)
(0.400584 0 -0.126394)
(0.393621 0 -0.123998)
(0.385566 0 -0.121167)
(0.376389 0 -0.117916)
(0.366015 0 -0.11423)
(0.354406 0 -0.110124)
(0.341469 0 -0.105594)
(0.327136 0 -0.10064)
(0.311362 0 -0.0952674)
(0.294065 0 -0.0894737)
(0.275167 0 -0.0832532)
(0.254584 0 -0.0765975)
(0.23223 0 -0.0694948)
(0.208021 0 -0.06193)
(0.18187 0 -0.0538847)
(0.153694 0 -0.0453368)
(0.123413 0 -0.0362618)
(0.0909496 0 -0.0266321)
(0.0562414 0 -0.0164208)
(0.0191247 0 -0.00556849)
(0.398055 0 -0.123093)
(0.392322 0 -0.121268)
(0.385567 0 -0.119032)
(0.377749 0 -0.116385)
(0.368787 0 -0.113317)
(0.358652 0 -0.109834)
(0.347315 0 -0.105948)
(0.33468 0 -0.101648)
(0.32066 0 -0.0969292)
(0.305184 0 -0.0917913)
(0.288209 0 -0.0862365)
(0.26966 0 -0.0802609)
(0.249457 0 -0.0738568)
(0.227518 0 -0.0670136)
(0.203762 0 -0.059718)
(0.178109 0 -0.0519539)
(0.15048 0 -0.0437026)
(0.1208 0 -0.0349431)
(0.0889981 0 -0.0256522)
(0.0550165 0 -0.0158075)
(0.0187043 0 -0.0053572)
(0.389468 0 -0.117538)
(0.383892 0 -0.115835)
(0.377318 0 -0.113744)
(0.369695 0 -0.111259)
(0.360965 0 -0.108375)
(0.351094 0 -0.105103)
(0.340001 0 -0.101423)
(0.327644 0 -0.0973455)
(0.313948 0 -0.0928672)
(0.298811 0 -0.0879789)
(0.282157 0 -0.0826701)
(0.263968 0 -0.0769536)
(0.244159 0 -0.0708199)
(0.222651 0 -0.064259)
(0.199368 0 -0.057259)
(0.174232 0 -0.0498063)
(0.14717 0 -0.041885)
(0.118112 0 -0.0334775)
(0.0869928 0 -0.0245647)
(0.0537597 0 -0.0151284)
(0.018274 0 -0.00512393)
(0.380821 0 -0.111664)
(0.375379 0 -0.110073)
(0.368965 0 -0.108118)
(0.361531 0 -0.105791)
(0.353026 0 -0.103089)
(0.343364 0 -0.0999998)
(0.332513 0 -0.0965277)
(0.320447 0 -0.0926814)
(0.307067 0 -0.0884473)
(0.292257 0 -0.0838071)
(0.275958 0 -0.0787656)
(0.258144 0 -0.073327)
(0.238741 0 -0.0674842)
(0.217677 0 -0.0612291)
(0.194879 0 -0.0545518)
(0.170274 0 -0.0474409)
(0.143793 0 -0.0398834)
(0.115373 0 -0.0318648)
(0.0849516 0 -0.0233697)
(0.0524823 0 -0.0143837)
(0.0178375 0 -0.00486875)
(0.372194 0 -0.10544)
(0.366863 0 -0.103953)
(0.360589 0 -0.102126)
(0.353319 0 -0.0999485)
(0.344998 0 -0.0974152)
(0.335562 0 -0.0945178)
(0.324975 0 -0.0912648)
(0.313165 0 -0.0876422)
(0.300067 0 -0.0836477)
(0.28561 0 -0.0792758)
(0.269695 0 -0.0745195)
(0.252255 0 -0.069375)
(0.233263 0 -0.063844)
(0.212648 0 -0.0579191)
(0.190341 0 -0.0515923)
(0.166275 0 -0.0448545)
(0.140384 0 -0.0376953)
(0.112609 0 -0.0301031)
(0.0828943 0 -0.0220659)
(0.0511963 0 -0.0135726)
(0.0173989 0 -0.00459149)
(0.363672 0 -0.0988236)
(0.358433 0 -0.0974373)
(0.35228 0 -0.0957338)
(0.34516 0 -0.0937048)
(0.337019 0 -0.0913432)
(0.327799 0 -0.0886438)
(0.317443 0 -0.085604)
(0.305881 0 -0.0822085)
(0.293068 0 -0.0784656)
(0.27893 0 -0.0743679)
(0.2634 0 -0.069911)
(0.246376 0 -0.0650865)
(0.22779 0 -0.0598893)
(0.207621 0 -0.0543198)
(0.185806 0 -0.0483727)
(0.162279 0 -0.0420408)
(0.136979 0 -0.0353158)
(0.109851 0 -0.0281889)
(0.0808428 0 -0.0206509)
(0.0499153 0 -0.0126939)
(0.0169627 0 -0.00429166)
(0.355347 0 -0.0917639)
(0.350182 0 -0.0904765)
(0.344133 0 -0.0888966)
(0.337148 0 -0.0870158)
(0.329172 0 -0.0848272)
(0.320153 0 -0.0823258)
(0.309995 0 -0.0794957)
(0.298669 0 -0.0763413)
(0.286149 0 -0.0728689)
(0.272328 0 -0.0690622)
(0.257146 0 -0.064919)
(0.240538 0 -0.0604366)
(0.222398 0 -0.0556065)
(0.202659 0 -0.0504168)
(0.181328 0 -0.0448805)
(0.158335 0 -0.0389895)
(0.13362 0 -0.0327369)
(0.107131 0 -0.0261162)
(0.0788211 0 -0.0191206)
(0.048654 0 -0.0117451)
(0.016534 0 -0.00396848)
(0.347314 0 -0.0841975)
(0.342209 0 -0.0830106)
(0.336249 0 -0.0815566)
(0.32938 0 -0.079827)
(0.321547 0 -0.0778142)
(0.312692 0 -0.0755112)
(0.302751 0 -0.0729097)
(0.291683 0 -0.0700195)
(0.27942 0 -0.0668263)
(0.265898 0 -0.0633266)
(0.251054 0 -0.0595182)
(0.234832 0 -0.0554001)
(0.217105 0 -0.0509538)
(0.197817 0 -0.0461849)
(0.176966 0 -0.0410973)
(0.154496 0 -0.035686)
(0.130352 0 -0.0299471)
(0.104486 0 -0.0238761)
(0.0768556 0 -0.0174689)
(0.0474287 0 -0.0107226)
(0.016118 0 -0.00362077)
(0.339682 0 -0.0760471)
(0.334625 0 -0.0749656)
(0.32874 0 -0.0736436)
(0.321974 0 -0.0720731)
(0.314272 0 -0.070247)
(0.305578 0 -0.0681594)
(0.295835 0 -0.0658054)
(0.284987 0 -0.0631832)
(0.272972 0 -0.0602878)
(0.259731 0 -0.057116)
(0.245199 0 -0.0536648)
(0.229316 0 -0.0499314)
(0.212016 0 -0.0459118)
(0.193195 0 -0.0416026)
(0.172797 0 -0.037002)
(0.150823 0 -0.032112)
(0.127225 0 -0.0269311)
(0.101955 0 -0.0214571)
(0.0749757 0 -0.0156877)
(0.0462571 0 -0.00962182)
(0.0157208 0 -0.00324695)
(0.332574 0 -0.067218)
(0.327555 0 -0.0662502)
(0.321733 0 -0.0650699)
(0.315056 0 -0.06367)
(0.307471 0 -0.0620443)
(0.298922 0 -0.0601875)
(0.289353 0 -0.0580953)
(0.278706 0 -0.0557646)
(0.266922 0 -0.0531924)
(0.253941 0 -0.050376)
(0.239703 0 -0.0473135)
(0.224145 0 -0.0440028)
(0.207208 0 -0.0404424)
(0.188831 0 -0.0366319)
(0.168907 0 -0.0325685)
(0.147386 0 -0.0282431)
(0.124295 0 -0.0236693)
(0.0995837 0 -0.0188441)
(0.0732137 0 -0.0137664)
(0.0451592 0 -0.00843638)
(0.0153489 0 -0.00284499)
(0.326128 0 -0.0575941)
(0.321138 0 -0.0567517)
(0.315368 0 -0.055727)
(0.308768 0 -0.0545137)
(0.301284 0 -0.0531066)
(0.292862 0 -0.0515013)
(0.283446 0 -0.0496942)
(0.272979 0 -0.0476827)
(0.261403 0 -0.0454643)
(0.248658 0 -0.0430376)
(0.234686 0 -0.0404013)
(0.219428 0 -0.0375546)
(0.202827 0 -0.0344975)
(0.184833 0 -0.0312312)
(0.165322 0 -0.0277438)
(0.144243 0 -0.0240444)
(0.121622 0 -0.0201354)
(0.0974205 0 -0.0160177)
(0.0716063 0 -0.0116916)
(0.0441572 0 -0.00715855)
(0.0150099 0 -0.00241234)
(0.320505 0 -0.0470326)
(0.315537 0 -0.0463315)
(0.309809 0 -0.0454807)
(0.303272 0 -0.0444754)
(0.295873 0 -0.0433113)
(0.287559 0 -0.0419851)
(0.278274 0 -0.040494)
(0.267961 0 -0.0388361)
(0.256564 0 -0.03701)
(0.244025 0 -0.0350147)
(0.230284 0 -0.0328498)
(0.215285 0 -0.0305152)
(0.19897 0 -0.0280112)
(0.181283 0 -0.0253376)
(0.162168 0 -0.0224941)
(0.141514 0 -0.0194843)
(0.119285 0 -0.0163007)
(0.0955253 0 -0.0129552)
(0.0701959 0 -0.00944746)
(0.0432771 0 -0.00577901)
(0.0147122 0 -0.00194597)
(0.315895 0 -0.0353563)
(0.310942 0 -0.0348174)
(0.305247 0 -0.0341652)
(0.29876 0 -0.033396)
(0.291428 0 -0.032507)
(0.2832 0 -0.0314958)
(0.274021 0 -0.0303606)
(0.263834 0 -0.0291004)
(0.252583 0 -0.0277143)
(0.24021 0 -0.0262023)
(0.226659 0 -0.0245643)
(0.211873 0 -0.022801)
(0.195795 0 -0.020913)
(0.178372 0 -0.0189012)
(0.159561 0 -0.0167675)
(0.139238 0 -0.0145056)
(0.117357 0 -0.0121264)
(0.0939625 0 -0.00962895)
(0.0690314 0 -0.00701505)
(0.0425487 0 -0.00428683)
(0.0144659 0 -0.00144234)
(0.312524 0 -0.0223445)
(0.307582 0 -0.0219955)
(0.30191 0 -0.0215741)
(0.295457 0 -0.0210783)
(0.288174 0 -0.0205062)
(0.280008 0 -0.0198568)
(0.270905 0 -0.019129)
(0.260809 0 -0.0183225)
(0.249664 0 -0.017437)
(0.237413 0 -0.0164729)
(0.224 0 -0.0154304)
(0.209367 0 -0.0143104)
(0.19346 0 -0.0131134)
(0.176224 0 -0.0118404)
(0.157607 0 -0.0104917)
(0.13756 0 -0.00906749)
(0.115971 0 -0.00757663)
(0.0928209 0 -0.00600944)
(0.0681739 0 -0.00437344)
(0.042009 0 -0.00266976)
(0.0142833 0 -0.000897512)
(0.310673 0 -0.00774412)
(0.305736 0 -0.00762078)
(0.300075 0 -0.00747214)
(0.293641 0 -0.0072975)
(0.286384 0 -0.00709634)
(0.278251 0 -0.00686829)
(0.269189 0 -0.00661311)
(0.259142 0 -0.00633074)
(0.248055 0 -0.00602122)
(0.23587 0 -0.00568469)
(0.222532 0 -0.00532142)
(0.207984 0 -0.00493172)
(0.19217 0 -0.00451595)
(0.175038 0 -0.00407453)
(0.156538 0 -0.00360789)
(0.13663 0 -0.00311697)
(0.115185 0 -0.00260196)
(0.0921793 0 -0.00206187)
(0.0676903 0 -0.00149925)
(0.0417015 0 -0.000914413)
(0.0141786 0 -0.000307188)
)
;

boundaryField
{
    inlet
    {
        type            cellMotion;
        value           nonuniform 0();
    }
    outlet
    {
        type            cellMotion;
        value           uniform (0 0 0);
    }
    flap
    {
        type            cellMotion;
        value           nonuniform 0();
    }
    upperWall
    {
        type            slip;
    }
    lowerWall
    {
        type            slip;
    }
    frontAndBack
    {
        type            empty;
    }
    procBoundary2to1
    {
        type            processor;
        value           nonuniform List<vector> 
17
(
(0.428015 0 -0.139886)
(0.419849 0 -0.135009)
(0.411423 0 -0.12989)
(0.402813 0 -0.124514)
(0.394094 0 -0.11886)
(0.385342 0 -0.1129)
(0.376635 0 -0.106596)
(0.368052 0 -0.0999043)
(0.359682 0 -0.0927708)
(0.351617 0 -0.0851291)
(0.343965 0 -0.0768991)
(0.336844 0 -0.0679834)
(0.330391 0 -0.0582629)
(0.324766 0 -0.0475912)
(0.320155 0 -0.0357871)
(0.316786 0 -0.0226244)
(0.314936 0 -0.00784332)
)
;
    }
    procBoundary2to4
    {
        type            processor;
        value           nonuniform List<vector> 
11
(
(0.475595 0 -0.174454)
(0.476173 0 -0.173528)
(0.475514 0 -0.171934)
(0.473686 0 -0.169777)
(0.470775 0 -0.167147)
(0.466877 0 -0.164119)
(0.462084 0 -0.16075)
(0.456488 0 -0.157083)
(0.450174 0 -0.153141)
(0.443264 0 -0.148954)
(0.435845 0 -0.144533)
)
;
    }
    procBoundary2to5
    {
        type            processor;
        value           nonuniform List<vector> 
34
(
(0.465579 0 -0.168291)
(0.457002 0 -0.161728)
(0.449067 0 -0.156058)
(0.449067 0 -0.156058)
(0.438967 0 -0.149416)
(0.428054 0 -0.143593)
(0.428054 0 -0.143593)
(0.415194 0 -0.13749)
(0.415194 0 -0.13749)
(0.401863 0 -0.130753)
(0.385788 0 -0.124316)
(0.385788 0 -0.124316)
(0.369776 0 -0.117311)
(0.350235 0 -0.110374)
(0.350235 0 -0.110374)
(0.328673 0 -0.102967)
(0.328673 0 -0.102967)
(0.307872 0 -0.0953591)
(0.282595 0 -0.087195)
(0.282595 0 -0.087195)
(0.25533 0 -0.078473)
(0.25533 0 -0.078473)
(0.228995 0 -0.0698642)
(0.197948 0 -0.0602051)
(0.197948 0 -0.0602051)
(0.165097 0 -0.0500015)
(0.165097 0 -0.0500015)
(0.13272 0 -0.040036)
(0.0963325 0 -0.0289148)
(0.0963325 0 -0.0289148)
(0.0585573 0 -0.0174471)
(0.0585573 0 -0.0174471)
(0.0195317 0 -0.0057576)
(0.0195317 0 -0.0057576)
)
;
    }
}


// ************************************************************************* //
