/*--------------------------------*- C++ -*----------------------------------*\
| =========                 |                                                 |
| \\      /  F ield         | OpenFOAM: The Open Source CFD Toolbox           |
|  \\    /   O peration     | Version:  dev                                   |
|   \\  /    A nd           | Web:      www.OpenFOAM.org                      |
|    \\/     M anipulation  |                                                 |
\*---------------------------------------------------------------------------*/
FoamFile
{
    version     2.0;
    format      ascii;
    class       surfaceScalarField;
    location    "1.08";
    object      meshPhi;
}
// * * * * * * * * * * * * * * * * * * * * * * * * * * * * * * * * * * * * * //

dimensions      [0 3 -1 0 0 0 0];

internalField   nonuniform List<scalar> 
5457
(
-6.03259e-05
1.08503e-06
-0.000111961
3.02837e-06
-0.000152715
4.56647e-06
-0.000182814
5.7134e-06
-0.000202115
6.4922e-06
-0.000210414
6.90814e-06
-0.000207869
6.96342e-06
-0.000195235
6.67179e-06
-0.000173946
6.06799e-06
-0.000146064
5.20858e-06
-0.000114064
4.17171e-06
-8.0542e-05
3.03974e-06
-4.79493e-05
1.89793e-06
-1.83655e-05
8.27983e-07
6.67667e-06
-1.07195e-07
2.62613e-05
-8.66353e-07
4.00738e-05
-1.4303e-06
4.8324e-05
-1.79957e-06
5.16275e-05
-1.99039e-06
5.09068e-05
-2.03168e-06
4.6024e-05
-1.92598e-06
3.78768e-05
-1.67362e-06
2.90092e-05
-1.34398e-06
2.07269e-05
-1.0138e-06
1.35845e-05
-7.14625e-07
7.92361e-06
-4.61354e-07
3.87978e-06
-2.6303e-07
1.40224e-06
-1.22566e-07
2.92401e-07
-3.84541e-08
-7.3706e-09
-6.03665e-05
2.17184e-06
-0.000112096
6.0635e-06
-0.000153031
9.1483e-06
-0.000183386
1.14547e-05
-0.000202983
1.30254e-05
-0.00021157
1.38655e-05
-0.000209259
1.39853e-05
-0.000196765
1.34155e-05
-0.000175499
1.22176e-05
-0.000147523
1.05029e-05
-0.000115332
8.42473e-06
-8.15393e-05
6.15356e-06
-4.86286e-05
3.8631e-06
-1.87153e-05
1.7145e-06
6.63942e-06
-1.65806e-07
2.64989e-05
-1.6946e-06
4.05342e-05
-2.83297e-06
4.89476e-05
-3.5819e-06
5.23484e-05
-3.97391e-06
5.16321e-05
-4.06462e-06
4.67792e-05
-3.86001e-06
3.86157e-05
-3.36126e-06
2.96133e-05
-2.70272e-06
2.12088e-05
-2.04039e-06
1.39488e-05
-1.44068e-06
8.17673e-06
-9.31985e-07
4.03252e-06
-5.3214e-07
1.47264e-06
-2.48401e-07
3.12304e-07
-7.88992e-08
-1.40798e-08
-6.03317e-05
3.2517e-06
-0.000112103
9.08163e-06
-0.000153186
1.37113e-05
-0.000183788
1.71845e-05
-0.000203702
1.95649e-05
-0.000212634
2.08589e-05
-0.000210646
2.10756e-05
-0.000198407
2.02554e-05
-0.000177291
1.84886e-05
-0.000149348
1.59381e-05
-0.000117072
1.2827e-05
-8.30867e-05
9.41874e-06
-4.98982e-05
5.97909e-06
-1.96529e-05
2.74561e-06
6.0599e-06
-9.13566e-08
2.62776e-05
-2.40552e-06
4.06474e-05
-4.1371e-06
4.9354e-05
-5.28669e-06
5.29938e-05
-5.90211e-06
5.24505e-05
-6.06319e-06
4.77187e-05
-5.77808e-06
3.95557e-05
-5.04718e-06
3.04416e-05
-4.0676e-06
2.19028e-05
-3.07746e-06
1.44845e-05
-2.17898e-06
8.54891e-06
-1.41266e-06
4.25808e-06
-8.06877e-07
1.57751e-06
-3.76423e-07
3.39977e-07
-1.20561e-07
-2.13807e-08
-6.0207e-05
4.31563e-06
-0.000111945
1.20584e-05
-0.000153117
1.82205e-05
-0.000183931
2.28623e-05
-0.00020416
2.607e-05
-0.000213476
2.78513e-05
-0.000211893
2.82062e-05
-0.000200029
2.7178e-05
-0.000179217
2.4885e-05
-0.000151466
2.15392e-05
-0.000119249
1.74318e-05
-8.51911e-05
1.29112e-05
-5.18115e-05
8.33187e-06
-2.12741e-05
4.01172e-06
4.80809e-06
2.06542e-07
2.54443e-05
-2.91276e-06
4.02489e-05
-5.26312e-06
4.93778e-05
-6.8425e-06
5.3405e-05
-7.71179e-06
5.32061e-05
-7.97527e-06
4.86893e-05
-7.64129e-06
4.05626e-05
-6.70213e-06
3.1384e-05
-5.41622e-06
2.27218e-05
-4.10856e-06
1.51313e-05
-2.91984e-06
8.99482e-06
-1.90132e-06
4.51185e-06
-1.08811e-06
1.68387e-06
-5.05372e-07
3.61076e-07
-1.60876e-07
-2.78849e-08
-6.00158e-05
5.36077e-06
-0.000111682
1.49848e-05
-0.000152941
2.26604e-05
-0.000184002
2.84703e-05
-0.000204619
3.25243e-05
-0.000214422
3.48266e-05
-0.000213364
3.5366e-05
-0.000202007
3.41856e-05
-0.000181628
3.14251e-05
-0.000154182
2.73405e-05
-0.000122104
2.22889e-05
-8.8018e-05
1.66946e-05
-5.44531e-05
1.09961e-05
-2.3593e-05
5.59418e-06
2.92443e-06
8.11881e-07
2.40776e-05
-3.13353e-06
3.94363e-05
-6.13322e-06
4.91162e-05
-8.17787e-06
5.36608e-05
-9.33902e-06
5.39237e-05
-9.74551e-06
4.97033e-05
-9.40284e-06
4.1652e-05
-8.28799e-06
3.24122e-05
-6.71739e-06
2.36104e-05
-5.10449e-06
1.58372e-05
-3.63544e-06
9.48061e-06
-2.37766e-06
4.76671e-06
-1.36717e-06
1.76689e-06
-6.33386e-07
3.5995e-07
-1.9833e-07
-3.23559e-08
-5.97491e-05
6.38298e-06
-0.000111299
1.78499e-05
-0.000152639
2.70192e-05
-0.000183984
3.40004e-05
-0.00020506
3.89259e-05
-0.000215446
4.17919e-05
-0.000215036
4.25739e-05
-0.000204318
4.13101e-05
-0.000184503
3.81549e-05
-0.000157481
3.34014e-05
-0.000125643
2.74651e-05
-9.15944e-05
2.08426e-05
-5.78674e-05
1.40534e-05
-2.66679e-05
7.57831e-06
3.33265e-07
1.81017e-06
2.20772e-05
-2.98234e-06
3.8087e-05
-6.66223e-06
4.84295e-05
-9.2108e-06
5.36074e-05
-1.07074e-05
5.44426e-05
-1.13023e-05
5.06044e-05
-1.09951e-05
4.26766e-05
-9.74457e-06
3.33894e-05
-7.92251e-06
2.44332e-05
-6.02718e-06
1.64562e-05
-4.28978e-06
9.88288e-06
-2.80348e-06
4.95335e-06
-1.61485e-06
1.79325e-06
-7.4755e-07
3.21884e-07
-2.28892e-07
-3.32996e-08
-5.93981e-05
7.37413e-06
-0.000110777
2.06361e-05
-0.000152197
3.12808e-05
-0.00018386
3.94413e-05
-0.000205461
4.52669e-05
-0.000216528
4.87461e-05
-0.000216888
4.98382e-05
-0.000206948
4.85714e-05
-0.000187837
4.51068e-05
-0.000161373
3.97677e-05
-0.000129889
3.30204e-05
-9.59617e-05
2.54275e-05
-6.21167e-05
1.75853e-05
-3.05759e-05
1.0052e-05
-3.05936e-06
3.29335e-06
1.93201e-05
-2.36451e-06
3.60465e-05
-6.75256e-06
4.71407e-05
-9.84297e-06
5.30491e-05
-1.172e-05
5.45496e-05
-1.25498e-05
5.11689e-05
-1.23245e-05
4.34113e-05
-1.09846e-05
3.41088e-05
-8.95542e-06
2.5012e-05
-6.8162e-06
1.6811e-05
-4.83488e-06
1.00223e-05
-3.13171e-06
4.93686e-06
-1.78325e-06
1.69981e-06
-8.1371e-07
2.35961e-07
-2.39378e-07
-2.84355e-08
-5.89626e-05
8.32726e-06
-0.000110119
2.33241e-05
-0.000151608
3.54144e-05
-0.000183619
4.47533e-05
-0.000205806
5.15043e-05
-0.000217649
5.56473e-05
-0.000218899
5.71224e-05
-0.000209877
5.59426e-05
-0.000191619
5.22671e-05
-0.000165858
4.6442e-05
-0.000134859
3.89762e-05
-0.000101162
3.04903e-05
-6.72731e-05
2.16532e-05
-3.54229e-05
1.30969e-05
-7.38856e-06
5.35732e-06
1.56478e-05
-1.17723e-06
3.31288e-05
-6.29846e-06
4.50282e-05
-9.96456e-06
5.17303e-05
-1.22614e-05
5.39582e-05
-1.33688e-05
5.10921e-05
-1.32707e-05
4.35468e-05
-1.18909e-05
3.42663e-05
-9.70827e-06
2.50754e-05
-7.38054e-06
1.66729e-05
-5.19981e-06
9.68587e-06
-3.3029e-06
4.53984e-06
-1.81316e-06
1.40112e-06
-7.83873e-07
9.78844e-08
-2.09362e-07
-1.56356e-08
-5.8441e-05
9.23664e-06
-0.000109321
2.58961e-05
-0.000150861
3.93896e-05
-0.000183238
4.98966e-05
-0.000206066
5.75941e-05
-0.000218769
6.24508e-05
-0.000221026
6.43855e-05
-0.000213063
6.33932e-05
-0.000195811
5.96258e-05
-0.000170911
5.34353e-05
-0.000140548
4.53601e-05
-0.000107211
3.60734e-05
-7.33891e-05
2.63132e-05
-4.1313e-05
1.67857e-05
-1.28071e-05
8.09204e-06
1.08714e-05
6.83866e-07
2.91089e-05
-5.18416e-06
4.18233e-05
-9.45062e-06
4.93351e-05
-1.21989e-05
5.23046e-05
-1.36182e-05
4.99762e-05
-1.36857e-05
4.26793e-05
-1.23138e-05
3.34653e-05
-1.00349e-05
2.42506e-05
-7.58464e-06
1.57314e-05
-5.27225e-06
8.64259e-06
-3.2349e-06
3.61008e-06
-1.64566e-06
8.381e-07
-6.17996e-07
-8.263e-08
-1.22575e-07
5.95139e-09
-5.7826e-05
1.00989e-05
-0.000108368
2.83429e-05
-0.000149937
4.31935e-05
-0.000182689
5.48559e-05
-0.0002062
6.35192e-05
-0.000219839
6.91394e-05
-0.000223211
7.16122e-05
-0.000216445
7.09117e-05
-0.000200364
6.7179e-05
-0.000176502
6.07562e-05
-0.000146947
5.21955e-05
-0.000114123
4.22147e-05
-8.05096e-05
3.16175e-05
-4.83402e-05
2.11844e-05
-1.94632e-05
1.15812e-05
4.78953e-06
3.32038e-06
2.37301e-05
-3.29188e-06
3.72138e-05
-8.16674e-06
4.54927e-05
-1.13821e-05
4.91543e-05
-1.31339e-05
4.73467e-05
-1.33979e-05
4.03258e-05
-1.20814e-05
3.1228e-05
-9.76243e-06
2.20788e-05
-7.25292e-06
1.36138e-05
-4.89242e-06
6.67821e-06
-2.81638e-06
2.08258e-06
-1.22944e-06
2.9927e-08
-3.04225e-07
-2.74975e-07
1.95868e-08
3.38376e-08
-5.71111e-05
1.09107e-05
-0.00010725
3.06555e-05
-0.000148817
4.68127e-05
-0.000181947
5.96138e-05
-0.000206173
6.9258e-05
-0.000220812
7.56879e-05
-0.000225395
7.87745e-05
-0.000219961
7.84651e-05
-0.00020522
7.48824e-05
-0.000182585
6.83601e-05
-0.000154035
5.94573e-05
-0.000121911
4.89193e-05
-8.86787e-05
3.75981e-05
-5.65835e-05
2.63441e-05
-2.74894e-05
1.58958e-05
-2.79363e-06
6.82664e-06
1.67302e-05
-5.04772e-07
3.08669e-05
-5.97581e-06
3.97933e-05
-9.65266e-06
4.40148e-05
-1.17339e-05
4.26757e-05
-1.22113e-05
3.59761e-05
-1.10028e-05
2.70657e-05
-8.7093e-06
1.81122e-05
-6.20469e-06
9.98178e-06
-3.88899e-06
3.65755e-06
-1.92531e-06
2.41983e-08
-5.28335e-07
-9.02052e-07
1.32535e-07
-4.26976e-07
1.91681e-07
6.1417e-08
-5.62903e-05
1.1665e-05
-0.000105957
3.28144e-05
-0.000147493
5.02174e-05
-0.000180996
6.41303e-05
-0.000205956
7.476e-05
-0.000221641
8.20358e-05
-0.000227516
8.58072e-05
-0.000223532
8.59938e-05
-0.000210285
8.26851e-05
-0.000189064
7.62008e-05
-0.000161736
6.71077e-05
-0.000130543
5.61676e-05
-9.79105e-05
4.42615e-05
-6.60977e-05
3.23004e-05
-3.69938e-05
2.10957e-05
-1.20514e-05
1.12841e-05
7.86619e-06
3.28137e-06
2.24608e-05
-2.74825e-06
3.18356e-05
-6.85631e-06
3.6403e-05
-9.24121e-06
3.54442e-05
-9.93087e-06
2.91595e-05
-8.88638e-06
2.05885e-05
-6.7082e-06
1.20696e-05
-4.30168e-06
4.70077e-06
-2.15175e-06
-3.55536e-07
-4.95994e-07
-2.33292e-06
4.53096e-07
-1.74772e-06
6.39803e-07
-4.7355e-07
3.55738e-07
8.17658e-08
-5.53568e-05
1.23573e-05
-0.000104481
3.48076e-05
-0.000145955
5.3389e-05
-0.000179816
6.83791e-05
-0.000205511
7.99891e-05
-0.000222269
8.8137e-05
-0.000229499
9.26545e-05
-0.000227066
9.34353e-05
-0.000215453
9.05282e-05
-0.000195824
8.42255e-05
-0.000169938
7.50955e-05
-0.000139934
6.3913e-05
-0.000108165
5.15806e-05
-7.68917e-05
3.90534e-05
-4.80388e-05
2.72097e-05
-2.31068e-05
1.67514e-05
-3.04299e-06
8.14956e-06
1.17483e-05
1.61734e-06
2.12995e-05
-2.8685e-06
2.59512e-05
-5.50872e-06
2.52673e-05
-6.3963e-06
1.95542e-05
-5.57393e-06
1.16316e-05
-3.63623e-06
3.99138e-06
-1.48773e-06
-1.97772e-06
3.04107e-07
-4.96289e-06
1.4092e-06
-4.5879e-06
1.64241e-06
-2.2632e-06
1.16483e-06
-3.56496e-07
4.94493e-07
9.67739e-08
-5.43061e-05
1.29867e-05
-0.000102817
3.66323e-05
-0.000144198
5.63221e-05
-0.000178391
7.23487e-05
-0.000204802
8.49233e-05
-0.000222633
9.39552e-05
-0.000231254
9.92594e-05
-0.000230451
0.000100705
-0.000220597
9.83111e-05
-0.000202729
9.23391e-05
-0.000178498
8.3335e-05
-0.000149941
7.20774e-05
-0.000119325
5.94915e-05
-8.88895e-05
4.65632e-05
-6.05917e-05
3.42229e-05
-3.59802e-05
2.32381e-05
-1.60694e-05
1.4137e-05
-1.37044e-06
7.17773e-06
8.05593e-06
2.37392e-06
1.25219e-05
-4.6656e-07
1.20417e-05
-1.53519e-06
7.15284e-06
-1.00601e-06
3.9256e-07
5.2534e-07
-5.65464e-06
2.17644e-06
-9.35244e-06
3.32356e-06
-9.43567e-06
3.59512e-06
-6.25057e-06
2.90731e-06
-2.26125e-06
1.68615e-06
-5.48145e-08
6.52207e-07
1.34181e-07
-5.32179e-05
1.35652e-05
-0.000101015
3.83094e-05
-0.000142219
5.90297e-05
-0.000176708
7.60452e-05
-0.000203791
8.95615e-05
-0.000222664
9.94789e-05
-0.000232677
0.000105604
-0.000233557
0.000107781
-0.00022557
0.000106004
-0.000209629
0.000100505
-0.000187262
9.17924e-05
-0.000160413
8.06386e-05
-0.000131256
6.79826e-05
-0.000101987
5.48304e-05
-7.45743e-05
4.21531e-05
-5.06118e-05
3.07739e-05
-3.11848e-05
2.1282e-05
-1.68793e-05
1.39845e-05
-7.83691e-06
8.9224e-06
-3.76017e-06
5.9141e-06
-4.01071e-06
4.65258e-06
-7.66832e-06
4.78141e-06
-1.25322e-05
5.68767e-06
-1.60331e-05
6.53411e-06
-1.64753e-05
6.69091e-06
-1.3014e-05
5.8538e-06
-6.9946e-06
4.14254e-06
-1.73191e-06
2.22461e-06
4.30878e-07
9.17965e-07
2.57615e-07
1.17408e-06
-1.39373e-08
8.40408e-06
-3.85359e-08
3.48346e-05
-1.92053e-07
8.99382e-05
-3.75555e-07
0.000160928
-2.34295e-07
0.000220417
6.31156e-07
0.000253266
2.19884e-06
0.000263514
4.13727e-06
0.000262812
6.21952e-06
0.000258123
8.1043e-06
0.000252218
9.38902e-06
0.000249482
1.02116e-05
0.000252456
1.05815e-05
0.000260315
1.04406e-05
0.00027136
9.96694e-06
0.000283834
8.99467e-06
0.000295927
7.5821e-06
0.000305893
5.85827e-06
0.000312347
3.81596e-06
0.000314035
1.73227e-06
0.000310042
-2.72542e-07
0.000299778
-2.058e-06
0.000282909
-3.49324e-06
0.000259416
-4.54336e-06
0.000229501
-5.13259e-06
0.000193529
-5.22934e-06
0.000151994
-4.83072e-06
0.000105484
-3.95676e-06
5.45077e-05
-2.64424e-06
-9.48925e-07
1.23795e-06
-1.68571e-08
9.11146e-06
-8.78961e-08
3.71136e-05
-3.70481e-07
9.35238e-05
-5.72689e-07
0.000163791
-6.3307e-08
0.000220788
1.76505e-06
0.000251055
4.83092e-06
0.00025965
8.55573e-06
0.000258127
1.25125e-05
0.000253668
1.60017e-05
0.000248537
1.84012e-05
0.000246478
1.9939e-05
0.000250202
2.05954e-05
0.00025865
2.03655e-05
0.000270212
1.93645e-05
0.000283124
1.74008e-05
0.000295568
1.45976e-05
0.000305844
1.11573e-05
0.000312462
7.21168e-06
0.000314237
3.13873e-06
0.000310252
-7.62549e-07
0.000299955
-4.2601e-06
0.000283062
-7.1003e-06
0.000259539
-9.1504e-06
0.000229584
-1.02859e-05
0.000193568
-1.04482e-05
0.000151989
-9.63199e-06
0.000105445
-7.87681e-06
5.44609e-05
-5.2561e-06
-1.88407e-06
1.35828e-06
-2.56578e-08
1.02385e-05
-1.75103e-07
3.99529e-05
-5.89149e-07
9.60402e-05
-7.1759e-07
0.000161932
3.4032e-07
0.00021282
3.23043e-06
0.000238726
7.70583e-06
0.000245701
1.30116e-05
0.000244465
1.8434e-05
0.000241563
2.31599e-05
0.000238431
2.6596e-05
0.000238234
2.86709e-05
0.00024361
2.94689e-05
0.000253347
2.91382e-05
0.000265947
2.75701e-05
0.000279665
2.46571e-05
0.000292729
2.0557e-05
0.000303499
1.55112e-05
0.00031047
9.84158e-06
0.000312512
3.94716e-06
0.000308758
-1.71233e-06
0.000298652
-6.77869e-06
0.000281931
-1.09048e-05
0.000258563
-1.38522e-05
0.000228748
-1.5454e-05
0.000192864
-1.56269e-05
0.000151418
-1.43629e-05
0.000105021
-1.17195e-05
5.42186e-05
-7.80589e-06
-2.79447e-06
1.55939e-06
-4.53811e-08
1.16368e-05
-3.0308e-07
4.23219e-05
-8.21504e-07
9.52778e-05
-7.45855e-07
0.000153011
1.03565e-06
0.000195219
4.99277e-06
0.000216197
1.06562e-05
0.000222425
1.71372e-05
0.000222802
2.35938e-05
0.000222489
2.92928e-05
0.000222441
3.35576e-05
0.00022518
3.59901e-05
0.000232873
3.68623e-05
0.000244439
3.63204e-05
0.00025848
3.41539e-05
0.000273281
3.03854e-05
0.00028717
2.51219e-05
0.000298595
1.86447e-05
0.000306146
1.14059e-05
0.0003087
3.89501e-06
0.000305422
-3.3278e-06
0.000295752
-9.76886e-06
0.000279423
-1.49995e-05
0.00025642
-1.87011e-05
0.000226948
-2.06599e-05
0.000191393
-2.07683e-05
0.000150275
-1.90146e-05
0.000104219
-1.54723e-05
5.37915e-05
-1.02835e-05
-3.67633e-06
1.86481e-06
-7.47367e-08
1.31253e-05
-4.22089e-07
4.36186e-05
-9.24435e-07
9.09937e-05
-4.43322e-07
0.000138529
2.17902e-06
0.000171503
7.07953e-06
0.00018804
1.35939e-05
0.00019428
2.07375e-05
0.000196838
2.78287e-05
0.000199452
3.42954e-05
0.000202962
3.90719e-05
0.000209139
4.16775e-05
0.000219531
4.25471e-05
0.000233203
4.1713e-05
0.000248834
3.89824e-05
0.000264866
3.44074e-05
0.000279755
2.80797e-05
0.000292016
2.0345e-05
0.000300324
1.17265e-05
0.000303566
2.82501e-06
0.000300913
-5.71832e-06
0.000291821
-1.33103e-05
0.000276025
-1.94442e-05
0.000253519
-2.37342e-05
0.000224517
-2.5923e-05
0.000189415
-2.58787e-05
0.000148747
-2.35852e-05
0.000103155
-1.91297e-05
5.32296e-05
-1.26838e-05
-4.52758e-06
2.24287e-06
-1.08676e-07
1.42357e-05
-4.64813e-07
4.2882e-05
-7.4621e-07
8.27325e-05
3.25278e-07
0.000119558
3.72677e-06
0.000144244
9.28206e-06
0.000157568
1.62151e-05
0.000164471
2.36274e-05
0.000169327
3.10612e-05
0.000174921
3.79841e-05
0.000182007
4.30244e-05
0.000191617
4.56846e-05
0.000204747
4.6417e-05
0.000220542
4.52333e-05
0.000237773
4.19696e-05
0.000255092
3.66096e-05
0.00027106
2.93183e-05
0.000284258
2.04976e-05
0.000293403
1.07233e-05
0.000297415
6.72977e-07
0.000295477
-8.93979e-06
0.000287054
-1.74448e-05
0.000271888
-2.42683e-05
0.000249976
-2.89689e-05
0.000221543
-3.12497e-05
0.000186996
-3.09569e-05
0.00014688
-2.8069e-05
0.000101859
-2.26848e-05
5.25472e-05
-1.50014e-05
-5.34612e-06
2.61436e-06
-1.37691e-07
1.45311e-05
-4.11262e-07
3.96222e-05
-2.90598e-07
7.10103e-05
1.4548e-06
9.81061e-05
5.43924e-06
0.00011641
1.12745e-05
0.000127828
1.82209e-05
0.000135727
2.56475e-05
0.000142709
3.32392e-05
0.000150996
4.02975e-05
0.000161301
4.54035e-05
0.000174018
4.80273e-05
0.000189612
4.85193e-05
0.000207326
4.69192e-05
0.000226083
4.30783e-05
0.000244649
3.69784e-05
0.000261668
2.88418e-05
0.000275791
1.91074e-05
0.000285778
8.39505e-06
0.000290578
-2.56218e-06
0.000289388
-1.29942e-05
0.000281677
-2.21724e-05
0.000267191
-2.94697e-05
0.000245936
-3.43992e-05
0.000218139
-3.66311e-05
0.000184219
-3.5992e-05
0.000144736
-3.2455e-05
0.00010037
-2.6128e-05
5.17651e-05
-1.72298e-05
-6.12963e-06
2.87745e-06
-1.49454e-07
1.38066e-05
-2.59421e-07
3.41198e-05
3.5356e-07
5.7314e-05
2.69543e-06
7.66916e-05
6.98875e-06
9.07266e-05
1.27804e-05
0.000101174
1.95089e-05
0.000110019
2.67855e-05
0.000118789
3.43444e-05
0.000129231
4.13404e-05
0.000142096
4.63503e-05
0.000157371
4.87823e-05
0.000175026
4.8922e-05
0.000194377
4.68389e-05
0.000214467
4.23891e-05
0.000234132
3.56029e-05
0.000252094
2.67325e-05
0.00026706
1.62487e-05
0.000277832
4.805e-06
0.000283381
-6.82722e-06
0.000282916
-1.78379e-05
0.000275912
-2.7457e-05
0.000262119
-3.50179e-05
0.000241542
-3.99993e-05
0.000214419
-4.20448e-05
0.000181172
-4.09647e-05
0.000142378
-3.67272e-05
9.87333e-05
-2.94475e-05
5.09056e-05
-1.93615e-05
-6.87561e-06
2.93085e-06
-1.34031e-07
1.2082e-05
-1.9287e-08
2.72642e-05
1.05897e-06
4.35983e-05
3.77772e-06
5.75447e-05
8.10601e-06
6.89505e-05
1.36713e-05
7.89087e-05
2.00987e-05
8.84469e-05
2.71221e-05
9.85163e-05
3.44755e-05
0.000110506
4.12618e-05
0.000125232
4.60193e-05
0.00014243
4.8087e-05
0.000161679
4.77547e-05
0.000182335
4.51192e-05
0.000203493
4.00552e-05
0.000224052
3.26308e-05
0.00024279
2.31294e-05
0.000258465
1.20483e-05
0.00026991
6.46366e-08
0.000276119
-1.20268e-05
0.000276313
-2.33914e-05
0.00026997
-3.32334e-05
0.000256842
-4.08603e-05
0.000236937
-4.57266e-05
0.000210494
-4.74567e-05
0.000177943
-4.58484e-05
0.000139871
-4.08659e-05
9.69905e-05
-3.26294e-05
4.99909e-05
-2.13886e-05
-7.58151e-06
2.71589e-06
-8.88288e-08
9.66158e-06
2.59032e-07
2.02749e-05
1.65877e-06
3.16023e-05
4.49352e-06
4.20306e-05
8.67071e-06
5.17876e-05
1.39459e-05
6.13849e-05
2.00588e-05
7.13e-05
2.6773e-05
8.21669e-05
3.37831e-05
9.51545e-05
4.01947e-05
0.00011114
4.45336e-05
0.000129678
4.61005e-05
0.000150061
4.51978e-05
0.00017166
4.1949e-05
0.000193598
3.62627e-05
0.000214813
2.82443e-05
0.000234127
1.82065e-05
0.000250338
6.66723e-06
0.000262308
-5.68224e-06
0.000269053
-1.80361e-05
0.000269802
-2.95496e-05
0.000264041
-3.94153e-05
0.000251521
-4.69272e-05
0.000232249
-5.15263e-05
0.000206468
-5.28246e-05
0.000174613
-5.06116e-05
0.000137276
-4.48482e-05
9.51826e-05
-3.5659e-05
4.90422e-05
-2.3303e-05
-8.24474e-06
2.25947e-06
-2.12547e-08
7.0728e-06
5.13457e-07
1.42509e-05
2.04567e-06
2.2307e-05
4.80264e-06
3.05353e-05
8.74691e-06
3.91369e-05
1.37276e-05
4.83157e-05
1.95291e-05
5.83314e-05
2.58864e-05
6.96141e-05
3.24298e-05
8.3183e-05
3.82981e-05
9.99437e-05
4.20542e-05
0.000119328
4.2998e-05
0.000140442
4.14342e-05
0.000162651
3.75208e-05
0.000185087
3.12087e-05
0.000206715
2.264e-05
0.00022639
1.21543e-05
0.000242943
2.83959e-07
0.000255266
-1.22739e-05
0.000262394
-2.47133e-05
0.000263571
-3.61916e-05
0.000258284
-4.59024e-05
0.000246288
-5.3138e-05
0.000227591
-5.73351e-05
0.000202433
-5.81004e-05
0.000171252
-5.52188e-05
0.000134646
-4.86499e-05
9.33464e-05
-3.85205e-05
4.80784e-05
-2.50963e-05
-8.86281e-06
1.66461e-06
5.50417e-08
4.80563e-06
7.05021e-07
9.75846e-06
2.22005e-06
1.58295e-05
4.81488e-06
2.2664e-05
8.52294e-06
3.03809e-05
1.32205e-05
3.90915e-05
1.86823e-05
4.90284e-05
2.45953e-05
6.04836e-05
3.05579e-05
7.43687e-05
3.57321e-05
9.1563e-05
3.8747e-05
0.000111425
3.89421e-05
0.000132947
3.6635e-05
0.000155477
3.20182e-05
0.000178153
2.50854e-05
0.000199958
1.60135e-05
0.000219778
5.16527e-06
0.000236471
-6.91833e-06
0.000248962
-1.9542e-05
0.000256307
-3.19088e-05
0.000257763
-4.31885e-05
0.000252828
-5.25874e-05
0.000241256
-5.9406e-05
0.000223056
-6.30852e-05
0.000198466
-6.32328e-05
0.000167924
-5.96332e-05
0.000132027
-5.22455e-05
9.15133e-05
-4.11984e-05
4.71158e-05
-2.67603e-05
-9.43329e-06
1.06683e-06
1.27307e-07
3.15369e-06
8.28219e-07
6.83325e-06
2.26374e-06
1.17495e-05
4.70392e-06
1.76895e-05
8.19202e-06
2.47475e-05
1.25861e-05
3.30481e-05
1.76329e-05
4.28267e-05
2.29955e-05
5.43217e-05
2.82736e-05
6.83864e-05
3.26265e-05
8.58218e-05
3.47447e-05
0.000105909
3.40652e-05
0.000127593
3.09474e-05
0.000150205
2.56067e-05
0.000172892
1.80711e-05
0.00019466
8.54959e-06
0.000214414
-2.57485e-06
0.000231047
-1.47608e-05
0.000243516
-2.73205e-05
0.000250904
-3.94732e-05
0.000252484
-5.04102e-05
0.000247765
-5.9361e-05
0.000236506
-6.56425e-05
0.000218714
-6.8707e-05
0.000194626
-6.81696e-05
0.000164675
-6.38173e-05
0.000129457
-5.561e-05
8.97087e-05
-4.36772e-05
4.61675e-05
-2.82872e-05
-9.95391e-06
6.13654e-07
1.82916e-07
2.21963e-06
9.28342e-07
5.27994e-06
2.30157e-06
9.56659e-06
4.64278e-06
1.49753e-05
7.89779e-06
2.16038e-05
1.19122e-05
2.96197e-05
1.64329e-05
3.92489e-05
2.1145e-05
5.07068e-05
2.56828e-05
6.49175e-05
2.91277e-05
8.25452e-05
3.01663e-05
0.000102697
2.8474e-05
0.000124356
2.45086e-05
0.000146847
1.84507e-05
0.000169337
1.03496e-05
0.000190865
4.31406e-07
0.000210359
-1.08924e-05
0.000226736
-2.30742e-05
0.000238996
-3.54504e-05
0.000246253
-4.72618e-05
0.000247799
-5.77291e-05
0.000243158
-6.61157e-05
0.000232094
-7.17598e-05
0.000214616
-7.41318e-05
0.000190956
-7.28592e-05
0.000161541
-6.77344e-05
0.000126963
-5.87192e-05
8.79515e-05
-4.59424e-05
4.52431e-05
-2.96699e-05
-1.04226e-05
5.21007e-07
1.92017e-07
2.11302e-06
1.19257e-06
4.94335e-06
2.52914e-06
8.92505e-06
4.72459e-06
1.40676e-05
7.66349e-06
2.04878e-05
1.11871e-05
2.83716e-05
1.50609e-05
3.79068e-05
1.90255e-05
4.93435e-05
2.27061e-05
6.37742e-05
2.50477e-05
8.15769e-05
2.48672e-05
0.000101648
2.21579e-05
0.000123131
1.7373e-05
0.000145341
1.06194e-05
0.000167455
1.99716e-06
0.000188544
-8.24777e-06
0.000207576
-1.96858e-05
0.000223499
-3.17592e-05
0.000235357
-4.38363e-05
0.000242308
-5.51971e-05
0.000243666
-6.5089e-05
0.000238968
-7.28091e-05
0.000227991
-7.77274e-05
0.000210739
-7.93398e-05
0.000187441
-7.7292e-05
0.000158516
-7.13829e-05
0.000124543
-6.15767e-05
8.62435e-05
-4.80005e-05
4.4346e-05
-3.09148e-05
-1.08423e-05
-5.42218e-05
1.40973e-05
-0.000103012
3.98472e-05
-0.000145429
6.15292e-05
-0.000181462
7.95067e-05
-0.000210237
9.39567e-05
-0.000230872
0.000104765
-0.000242696
0.000111744
-0.000245388
0.000114722
-0.000239129
0.000113664
-0.000224736
0.000108768
-0.000203667
0.000100509
-0.000177832
8.96421e-05
-0.000149394
7.71047e-05
-0.00012056
6.39113e-05
-9.3364e-05
5.10598e-05
-6.94936e-05
3.94237e-05
-5.01349e-05
2.96422e-05
-3.59657e-05
2.20715e-05
-2.7167e-05
1.67889e-05
-2.3407e-05
1.36142e-05
-2.32621e-05
1.21038e-05
-2.5186e-05
1.16773e-05
-2.73077e-05
1.16851e-05
-2.72339e-05
1.13859e-05
-2.34773e-05
1.02359e-05
-1.60025e-05
8.11097e-06
-7.24344e-06
5.38659e-06
-9.15662e-07
2.869e-06
1.31398e-06
1.28068e-06
6.23661e-07
7.40118e-07
-5.45361e-05
1.45662e-05
-0.000103627
4.11958e-05
-0.00014652
6.3731e-05
-0.0001835
8.26493e-05
-0.000213586
9.80851e-05
-0.000235726
0.000109809
-0.000249267
0.000117654
-0.000253873
0.000121492
-0.000249627
0.000121252
-0.000237234
0.000117078
-0.00021807
0.000109425
-0.000193959
9.90195e-05
-0.000167016
8.67763e-05
-0.000139408
7.37184e-05
-0.000113167
6.08524e-05
-9.0044e-05
4.90803e-05
-7.12773e-05
3.90915e-05
-5.76091e-05
3.12825e-05
-4.92542e-05
2.57689e-05
-4.57957e-05
2.23831e-05
-4.49804e-05
2.05432e-05
-4.43604e-05
1.93991e-05
-4.25141e-05
1.82368e-05
-3.77784e-05
1.65033e-05
-2.92719e-05
1.38616e-05
-1.79992e-05
1.04293e-05
-7.0798e-06
6.79508e-06
1.48272e-07
3.75492e-06
2.90172e-06
1.81818e-06
8.60794e-07
3.02151e-06
-5.47489e-05
1.49555e-05
-0.000104097
4.23118e-05
-0.000147369
6.55259e-05
-0.000185161
8.52405e-05
-0.000216593
0.000101708
-0.000240293
0.000114503
-0.000255559
0.000123276
-0.000262174
0.000128012
-0.000260078
0.000128681
-0.000249851
0.000125331
-0.000232835
0.0001184
-0.000210745
0.000108611
-0.000185602
9.68265e-05
-0.000159543
8.40543e-05
-0.000134551
7.13093e-05
-0.000112394
5.95001e-05
-9.43597e-05
4.93524e-05
-8.11969e-05
4.13034e-05
-7.31484e-05
3.54961e-05
-6.97512e-05
3.17921e-05
-6.81345e-05
2.95506e-05
-6.43549e-05
2.76008e-05
-5.75184e-05
2.50731e-05
-4.75462e-05
2.17374e-05
-3.42942e-05
1.75777e-05
-1.97168e-05
1.29323e-05
-6.9682e-06
8.50426e-06
1.42619e-06
4.97577e-06
5.33459e-06
2.68007e-06
1.42092e-06
6.48295e-06
-5.47744e-05
1.52541e-05
-0.000104239
4.31766e-05
-0.000147753
6.69112e-05
-0.000186124
8.71708e-05
-0.000218861
0.000104458
-0.000244375
0.000118462
-0.000261487
0.000128463
-0.000270174
0.000134228
-0.000270334
0.000135873
-0.000262338
0.00013342
-0.000247623
0.000127286
-0.000227779
0.000118226
-0.000204665
0.000107041
-0.000180357
9.46817e-05
-0.000156795
8.21562e-05
-0.000135693
7.03775e-05
-0.000118363
6.00862e-05
-0.000105526
5.17492e-05
-9.73918e-05
4.55247e-05
-9.35202e-05
4.12993e-05
-9.0803e-05
3.84314e-05
-8.38645e-05
3.56283e-05
-7.19676e-05
3.19022e-05
-5.66634e-05
2.70814e-05
-3.89748e-05
2.14584e-05
-2.15674e-05
1.57108e-05
-7.01836e-06
1.05588e-05
2.97285e-06
6.51632e-06
8.65954e-06
3.79203e-06
2.15048e-06
1.14144e-05
-5.45703e-05
1.54535e-05
-0.000103944
4.37622e-05
-0.000147505
6.78694e-05
-0.000186128
8.84882e-05
-0.000219761
0.000106228
-0.000247206
0.000121148
-0.00026666
0.000132603
-0.000277768
0.000139908
-0.000280242
0.000142788
-0.000274395
0.000141228
-0.000262038
0.000135904
-0.000244548
0.000127659
-0.000223582
0.000117165
-0.000201109
0.000105309
-0.000179004
9.30687e-05
-0.000158906
8.13505e-05
-0.000142079
7.08948e-05
-0.00012919
6.21779e-05
-0.000120342
5.53622e-05
-0.00011504
5.03268e-05
-0.000109919
4.63675e-05
-9.99681e-05
4.23652e-05
-8.44829e-05
3.7642e-05
-6.49947e-05
3.19366e-05
-4.36667e-05
2.54029e-05
-2.36305e-05
1.87792e-05
-7.07213e-06
1.28836e-05
4.87998e-06
8.25242e-06
1.2685e-05
5.01569e-06
2.91902e-06
1.72679e-05
-5.40894e-05
1.55441e-05
-0.000103125
4.40426e-05
-0.000146505
6.83536e-05
-0.000185102
8.91863e-05
-0.000219047
0.000107158
-0.000247789
0.000122475
-0.000269748
0.000134894
-0.00028389
0.000143817
-0.000289225
0.000148514
-0.000285702
0.000148417
-0.000275634
0.000144091
-0.00026051
0.000136701
-0.000241647
0.000126955
-0.000220961
0.000115634
-0.00020017
0.000103696
-0.00018087
9.20201e-05
-0.000164207
8.1347e-05
-0.00015076
7.21407e-05
-0.000140489
6.45646e-05
-0.000132736
5.84901e-05
-0.000123776
5.31744e-05
-0.000110175
4.76453e-05
-9.21643e-05
4.16411e-05
-7.06759e-05
3.52314e-05
-4.75052e-05
2.84401e-05
-2.54164e-05
2.15614e-05
-6.7715e-06
1.52088e-05
7.39235e-06
9.97379e-06
1.74665e-05
6.10005e-06
3.44123e-06
2.39581e-05
-5.32806e-05
1.55177e-05
-0.00010169
4.39957e-05
-0.000144621
6.83307e-05
-0.000182937
8.92106e-05
-0.000216816
0.000107276
-0.000245947
0.000122734
-0.000269466
0.000135474
-0.000286261
0.000145188
-0.000295244
0.000151499
-0.000295285
0.000153672
-0.000287984
0.000151347
-0.000275132
0.000145189
-0.000258135
0.000136161
-0.000239055
0.000125352
-0.000219254
0.00011368
-0.000200409
0.000101973
-0.000183509
9.10167e-05
-0.000169006
8.12349e-05
-0.000156765
7.27926e-05
-0.000146035
6.55934e-05
-0.000133114
5.89553e-05
-0.000115471
5.19828e-05
-9.46037e-05
4.46014e-05
-7.19732e-05
3.72329e-05
-4.83927e-05
3.00453e-05
-2.54846e-05
2.31199e-05
-5.28497e-06
1.67204e-05
1.10331e-05
1.11718e-05
2.34391e-05
6.7147e-06
3.38182e-06
3.19482e-05
-5.20903e-05
1.53665e-05
-9.95322e-05
4.3598e-05
-0.000141707
6.77629e-05
-0.000179452
8.85222e-05
-0.000212996
0.000106528
-0.000242044
0.000122005
-0.000266021
0.000134847
-0.000284109
0.000144804
-0.000295987
0.000151777
-0.000300376
0.000155555
-0.000297156
0.000155619
-0.000287265
0.000151691
-0.000272436
0.000144245
-0.000254622
0.00013424
-0.000235262
0.000122682
-0.000216466
0.000110814
-0.000198955
9.95281e-05
-0.00018303
8.91362e-05
-0.000168554
7.98085e-05
-0.000154841
7.15117e-05
-0.00013857
6.36544e-05
-0.000117564
5.54421e-05
-9.40217e-05
4.69402e-05
-6.99438e-05
3.86879e-05
-4.58411e-05
3.0879e-05
-2.26851e-05
2.36097e-05
-1.66779e-06
1.70494e-05
1.63318e-05
1.13047e-05
3.10599e-05
6.42956e-06
2.45061e-06
4.1907e-05
-5.04803e-05
1.50944e-05
-9.65647e-05
4.28479e-05
-0.000137625
6.66341e-05
-0.000174475
8.7095e-05
-0.000207362
0.00010488
-0.000236038
0.000120215
-0.000259954
0.000133022
-0.000278481
0.00014311
-0.000291534
0.000150324
-0.000298743
0.000154609
-0.000299431
0.000155838
-0.000293605
0.000153877
-0.000282357
0.000148825
-0.000266462
0.000140787
-0.000247434
0.000130145
-0.000228208
0.000118262
-0.00020982
0.000106591
-0.000192272
9.5619e-05
-0.000175548
8.54596e-05
-0.000159102
7.61674e-05
-0.000140081
6.72461e-05
-0.000116656
5.79997e-05
-9.12583e-05
4.85752e-05
-6.58809e-05
3.95817e-05
-4.10121e-05
3.12342e-05
-1.74398e-05
2.35697e-05
4.16157e-06
1.66606e-05
2.33905e-05
1.05599e-05
4.01427e-05
5.26615e-06
7.75302e-07
5.3269e-05
-4.84138e-05
1.46991e-05
-9.27053e-05
4.17402e-05
-0.000132259
6.49412e-05
-0.000167849
8.49228e-05
-0.000199723
0.000102315
-0.000227666
0.000117346
-0.000251177
0.000129963
-0.000269754
0.000140011
-0.000283139
0.000147355
-0.00029129
0.000151875
-0.000293877
0.000153475
-0.000291256
0.00015232
-0.000283816
0.00014869
-0.000271482
0.000142739
-0.000254432
0.000134322
-0.000235134
0.000123684
-0.00021571
0.000112064
-0.000196427
0.000100544
-0.000177604
8.96376e-05
-0.000158761
7.94903e-05
-0.00013757
6.9669e-05
-0.000112471
5.9581e-05
-8.58326e-05
4.9413e-05
-5.96016e-05
3.98153e-05
-3.4227e-05
3.10142e-05
-1.02379e-05
2.29974e-05
1.19486e-05
1.57653e-05
3.21392e-05
9.30968e-06
5.03212e-05
3.6039e-06
-1.30068e-06
6.49336e-05
-4.58515e-05
1.41825e-05