/*--------------------------------*- C++ -*----------------------------------*\
| =========                 |                                                 |
| \\      /  F ield         | OpenFOAM: The Open Source CFD Toolbox           |
|  \\    /   O peration     | Version:  dev                                   |
|   \\  /    A nd           | Web:      www.OpenFOAM.org                      |
|    \\/     M anipulation  |                                                 |
\*---------------------------------------------------------------------------*/
FoamFile
{
    version     2.0;
    format      ascii;
    class       volVectorField;
    location    "2";
    object      cellDisplacement;
}
// * * * * * * * * * * * * * * * * * * * * * * * * * * * * * * * * * * * * * //

dimensions      [0 1 0 0 0 0 0];

internalField   nonuniform List<vector> 
465
(
(0.487181 0 -0.177515)
(0.478193 0 -0.171042)
(0.487577 0 -0.177171)
(0.4785 0 -0.171157)
(0.468736 0 -0.164797)
(0.458167 0 -0.158148)
(0.486865 0 -0.176133)
(0.477821 0 -0.170588)
(0.468033 0 -0.16464)
(0.4574 0 -0.158348)
(0.445812 0 -0.151759)
(0.485077 0 -0.174486)
(0.476165 0 -0.169402)
(0.466444 0 -0.163869)
(0.455832 0 -0.157944)
(0.44423 0 -0.151673)
(0.431529 0 -0.145093)
(0.417611 0 -0.138234)
(0.482264 0 -0.172309)
(0.473557 0 -0.167664)
(0.463979 0 -0.162536)
(0.453459 0 -0.156977)
(0.441911 0 -0.151031)
(0.42924 0 -0.144735)
(0.415337 0 -0.138116)
(0.400091 0 -0.131196)
(0.383379 0 -0.123983)
(0.478489 0 -0.169665)
(0.470042 0 -0.165432)
(0.460662 0 -0.16069)
(0.450291 0 -0.155488)
(0.438856 0 -0.149866)
(0.42627 0 -0.143859)
(0.412436 0 -0.137493)
(0.397247 0 -0.130788)
(0.380594 0 -0.123755)
(0.362361 0 -0.116398)
(0.47383 0 -0.166613)
(0.465674 0 -0.162756)
(0.456531 0 -0.158376)
(0.446355 0 -0.153516)
(0.435079 0 -0.148212)
(0.422626 0 -0.142494)
(0.408905 0 -0.136386)
(0.393821 0 -0.129907)
(0.37727 0 -0.123069)
(0.359142 0 -0.115875)
(0.339324 0 -0.108323)
(0.3177 0 -0.100401)
(0.468375 0 -0.163201)
(0.460517 0 -0.159679)
(0.451636 0 -0.155633)
(0.441687 0 -0.151096)
(0.430607 0 -0.146098)
(0.418325 0 -0.140664)
(0.404758 0 -0.134816)
(0.389819 0 -0.128571)
(0.373409 0 -0.12194)
(0.355427 0 -0.114926)
(0.335765 0 -0.107527)
(0.314313 0 -0.0997348)
(0.29096 0 -0.0915322)
(0.462171 0 -0.159448)
(0.454635 0 -0.156232)
(0.446026 0 -0.15249)
(0.436334 0 -0.14826)
(0.425478 0 -0.143554)
(0.413397 0 -0.138396)
(0.400017 0 -0.132806)
(0.385257 0 -0.126798)
(0.369025 0 -0.120382)
(0.351225 0 -0.113561)
(0.331755 0 -0.106335)
(0.310512 0 -0.0986937)
(0.287388 0 -0.0906233)
(0.262276 0 -0.0821023)
(0.235064 0 -0.0731016)
(0.455319 0 -0.155387)
(0.448094 0 -0.152442)
(0.439792 0 -0.148988)
(0.430365 0 -0.145039)
(0.419742 0 -0.140605)
(0.407882 0 -0.135712)
(0.394714 0 -0.130374)
(0.380161 0 -0.124604)
(0.364137 0 -0.11841)
(0.346552 0 -0.111794)
(0.327309 0 -0.104755)
(0.30631 0 -0.0972858)
(0.283453 0 -0.0893722)
(0.258634 0 -0.0809956)
(0.23175 0 -0.0721303)
(0.202699 0 -0.062746)
(0.447917 0 -0.151041)
(0.440997 0 -0.14834)
(0.432986 0 -0.145143)
(0.423819 0 -0.141446)
(0.413454 0 -0.137272)
(0.401826 0 -0.132631)
(0.388889 0 -0.12754)
(0.374566 0 -0.122007)
(0.358777 0 -0.116038)
(0.341435 0 -0.109637)
(0.322449 0 -0.102799)
(0.301726 0 -0.0955195)
(0.279169 0 -0.0877855)
(0.254679 0 -0.0795801)
(0.228159 0 -0.0708807)
(0.19951 0 -0.0616596)
(0.168637 0 -0.0518841)
(0.135446 0 -0.0415161)
(0.440047 0 -0.146413)
(0.433411 0 -0.14393)
(0.425646 0 -0.140949)
(0.416732 0 -0.137487)
(0.406646 0 -0.133562)
(0.395285 0 -0.129169)
(0.382591 0 -0.124317)
(0.368516 0 -0.119019)
(0.352982 0 -0.113279)
(0.335906 0 -0.107099)
(0.317204 0 -0.100476)
(0.296786 0 -0.0934033)
(0.274559 0 -0.0858704)
(0.250432 0 -0.0778619)
(0.22431 0 -0.0693579)
(0.1961 0 -0.0603339)
(0.165712 0 -0.0507609)
(0.13306 0 -0.040606)
(0.0980587 0 -0.0298331)
(0.431779 0 -0.141501)
(0.425378 0 -0.139201)
(0.417866 0 -0.136424)
(0.409223 0 -0.133187)
(0.399386 0 -0.129488)
(0.388297 0 -0.12533)
(0.375878 0 -0.120716)
(0.362061 0 -0.115651)
(0.346798 0 -0.110143)
(0.330008 0 -0.104191)
(0.311612 0 -0.0977938)
(0.291523 0 -0.0909443)
(0.269654 0 -0.0836331)
(0.245918 0 -0.0758464)
(0.220224 0 -0.0675667)
(0.192486 0 -0.0587724)
(0.162619 0 -0.0494384)
(0.13054 0 -0.0395362)
(0.0961729 0 -0.0290344)
(0.0594549 0 -0.0179024)
(0.423206 0 -0.136303)
(0.417021 0 -0.134168)
(0.409746 0 -0.13158)
(0.401339 0 -0.128542)
(0.391749 0 -0.125054)
(0.380918 0 -0.121119)
(0.368783 0 -0.116739)
(0.35526 0 -0.111911)
(0.340278 0 -0.106636)
(0.323788 0 -0.100919)
(0.305714 0 -0.0947584)
(0.285976 0 -0.0881479)
(0.264488 0 -0.0810785)
(0.241168 0 -0.073538)
(0.215931 0 -0.065511)
(0.188694 0 -0.0569787)
(0.159377 0 -0.0479195)
(0.127904 0 -0.038309)
(0.0942034 0 -0.0281206)
(0.058218 0 -0.0173286)
(0.0197846 0 -0.00587272)
(0.414408 0 -0.130807)
(0.408409 0 -0.128819)
(0.401341 0 -0.126399)
(0.393158 0 -0.123547)
(0.383807 0 -0.12026)
(0.37323 0 -0.116539)
(0.361366 0 -0.112384)
(0.34815 0 -0.107794)
(0.333488 0 -0.102764)
(0.317299 0 -0.0972855)
(0.299561 0 -0.0913726)
(0.28019 0 -0.0850169)
(0.259103 0 -0.0782095)
(0.236221 0 -0.0709395)
(0.211463 0 -0.0631933)
(0.184752 0 -0.054955)
(0.156011 0 -0.0462061)
(0.125171 0 -0.0369262)
(0.0921643 0 -0.0270929)
(0.0569398 0 -0.0166854)
(0.0193466 0 -0.00565105)
(0.405464 0 -0.124993)
(0.399623 0 -0.123135)
(0.39274 0 -0.12087)
(0.384763 0 -0.118192)
(0.375638 0 -0.115098)
(0.365308 0 -0.111585)
(0.353713 0 -0.107651)
(0.340797 0 -0.103298)
(0.326442 0 -0.0985073)
(0.310588 0 -0.0932844)
(0.293205 0 -0.0876342)
(0.274216 0 -0.0815507)
(0.253546 0 -0.0750262)
(0.231119 0 -0.0680512)
(0.206859 0 -0.0606143)
(0.180692 0 -0.052702)
(0.152549 0 -0.0442991)
(0.122362 0 -0.0353885)
(0.0900719 0 -0.0259521)
(0.0556303 0 -0.0159731)
(0.0188989 0 -0.00540643)
(0.396454 0 -0.118833)
(0.390747 0 -0.117095)
(0.384026 0 -0.114973)
(0.376237 0 -0.112461)
(0.367326 0 -0.109552)
(0.357233 0 -0.106244)
(0.345886 0 -0.102524)
(0.333243 0 -0.0984011)
(0.319227 0 -0.093867)
(0.30374 0 -0.0889144)
(0.286713 0 -0.0835399)
(0.268115 0 -0.077746)
(0.247871 0 -0.0715255)
(0.225909 0 -0.0648706)
(0.20216 0 -0.0577719)
(0.176552 0 -0.0502183)
(0.149021 0 -0.0421973)
(0.119504 0 -0.0336953)
(0.0879443 0 -0.0246976)
(0.0543007 0 -0.0151916)
(0.0184453 0 -0.00513876)
(0.387462 0 -0.112291)
(0.381866 0 -0.110665)
(0.375286 0 -0.108679)
(0.367668 0 -0.106326)
(0.358962 0 -0.1036)
(0.349069 0 -0.100484)
(0.337961 0 -0.0969824)
(0.325609 0 -0.0931035)
(0.311906 0 -0.0888292)
(0.296789 0 -0.0841577)
(0.28016 0 -0.0790812)
(0.261952 0 -0.0735951)
(0.242136 0 -0.0677003)
(0.220646 0 -0.0613915)
(0.197413 0 -0.054661)
(0.172373 0 -0.0474997)
(0.145462 0 -0.0398977)
(0.116622 0 -0.0318442)
(0.085802 0 -0.023328)
(0.0529635 0 -0.0143399)
(0.01799 0 -0.00484775)
(0.378575 0 -0.105322)
(0.37307 0 -0.103803)
(0.36661 0 -0.101949)
(0.35914 0 -0.0997508)
(0.350602 0 -0.0972)
(0.34093 0 -0.0942868)
(0.330084 0 -0.0910203)
(0.317993 0 -0.0873855)
(0.30459 0 -0.0833786)
(0.289808 0 -0.0789962)
(0.273583 0 -0.0742354)
(0.255805 0 -0.0690867)
(0.236406 0 -0.063538)
(0.215386 0 -0.0576028)
(0.192672 0 -0.0512722)
(0.168199 0 -0.0445386)
(0.141909 0 -0.0373942)
(0.113748 0 -0.0298308)
(0.0836671 0 -0.0218403)
(0.0516325 0 -0.0134164)
(0.0175376 0 -0.0045328)
(0.369888 0 -0.0978697)
(0.364457 0 -0.0964576)
(0.358102 0 -0.094736)
(0.350768 0 -0.0926958)
(0.342397 0 -0.0903291)
(0.33293 0 -0.0876294)
(0.32231 0 -0.0845927)
(0.310475 0 -0.0812117)
(0.297363 0 -0.0774841)
(0.282913 0 -0.0734071)
(0.267066 0 -0.0689792)
(0.249693 0 -0.0641799)
(0.230737 0 -0.0590144)
(0.21019 0 -0.0534868)
(0.187992 0 -0.0475917)
(0.164082 0 -0.0413238)
(0.138406 0 -0.0346779)
(0.110915 0 -0.0276483)
(0.0815644 0 -0.0202297)
(0.0503226 0 -0.0124182)
(0.0170931 0 -0.004193)
(0.361503 0 -0.089866)
(0.356132 0 -0.0885631)
(0.349868 0 -0.0869774)
(0.342655 0 -0.0851005)
(0.334438 0 -0.0829249)
(0.325157 0 -0.0804445)
(0.314751 0 -0.0776542)
(0.30315 0 -0.0745359)
(0.290316 0 -0.0711026)
(0.276177 0 -0.0673481)
(0.260668 0 -0.063268)
(0.243721 0 -0.0588568)
(0.225231 0 -0.0541095)
(0.205139 0 -0.0490235)
(0.183439 0 -0.0436009)
(0.160076 0 -0.0378395)
(0.134999 0 -0.0317361)
(0.108161 0 -0.0252872)
(0.0795209 0 -0.0184895)
(0.0490505 0 -0.0113415)
(0.0166621 0 -0.00382705)
(0.353532 0 -0.0812262)
(0.348209 0 -0.0800381)
(0.342023 0 -0.0785953)
(0.334919 0 -0.07689)
(0.326842 0 -0.0749154)
(0.317739 0 -0.072667)
(0.307507 0 -0.0701293)
(0.296112 0 -0.0672925)
(0.283553 0 -0.0641804)
(0.269716 0 -0.060776)
(0.254542 0 -0.0570769)
(0.237966 0 -0.0530804)
(0.219929 0 -0.0487854)
(0.20032 0 -0.0441871)
(0.179084 0 -0.0392753)
(0.156243 0 -0.0340648)
(0.131739 0 -0.0285519)
(0.105526 0 -0.0227344)
(0.0775665 0 -0.0166107)
(0.0478346 0 -0.010181)
(0.0162506 0 -0.0034332)
(0.346101 0 -0.0718472)
(0.340816 0 -0.0707829)
(0.334695 0 -0.0694934)
(0.327684 0 -0.0679714)
(0.319728 0 -0.0662107)
(0.310773 0 -0.064206)
(0.30071 0 -0.0619407)
(0.289526 0 -0.05942)
(0.277212 0 -0.0566553)
(0.263654 0 -0.0536318)
(0.248794 0 -0.0503485)
(0.232572 0 -0.0468044)
(0.214937 0 -0.0430005)
(0.195762 0 -0.038922)
(0.174993 0 -0.0345778)
(0.152648 0 -0.0299715)
(0.128682 0 -0.0251033)
(0.103056 0 -0.0199734)
(0.0757348 0 -0.0145818)
(0.0466951 0 -0.00892993)
(0.0158655 0 -0.00300925)
(0.339355 0 -0.0616032)
(0.3341 0 -0.0606758)
(0.328032 0 -0.0595546)
(0.3211 0 -0.0582333)
(0.313248 0 -0.0567066)
(0.304423 0 -0.0549701)
(0.294519 0 -0.0530095)
(0.283523 0 -0.0508322)
(0.271429 0 -0.048447)
(0.258121 0 -0.0458409)
(0.243543 0 -0.0430131)
(0.227634 0 -0.0399632)
(0.210337 0 -0.0366905)
(0.191591 0 -0.0331941)
(0.171285 0 -0.0294759)
(0.149375 0 -0.0255276)
(0.125897 0 -0.0213638)
(0.100804 0 -0.0169839)
(0.0740638 0 -0.0123885)
(0.0456554 0 -0.00757994)
(0.0155145 0 -0.00255246)
(0.333464 0 -0.0503399)
(0.32823 0 -0.049567)
(0.322206 0 -0.0486346)
(0.315338 0 -0.0475378)
(0.307575 0 -0.046272)
(0.298862 0 -0.0448341)
(0.289096 0 -0.0432132)
(0.278265 0 -0.0414182)
(0.266361 0 -0.0394546)
(0.25327 0 -0.0373115)
(0.238937 0 -0.0349888)
(0.223304 0 -0.0324866)
(0.206316 0 -0.0298059)
(0.187923 0 -0.0269486)
(0.168002 0 -0.0239056)
(0.1465 0 -0.020689)
(0.123454 0 -0.0173001)
(0.0988289 0 -0.013741)
(0.0725972 0 -0.0100137)
(0.044742 0 -0.00612106)
(0.0152063 0 -0.00205961)
(0.328628 0 -0.0378662)
(0.32341 0 -0.0372713)
(0.317417 0 -0.0365551)
(0.310601 0 -0.0357138)
(0.302907 0 -0.0347441)
(0.294284 0 -0.0336427)
(0.284632 0 -0.0324007)
(0.273941 0 -0.0310424)
(0.262192 0 -0.0295547)
(0.249277 0 -0.0279315)
(0.235143 0 -0.026174)
(0.219733 0 -0.0242833)
(0.20299 0 -0.0222606)
(0.18486 0 -0.0201066)
(0.165289 0 -0.0178216)
(0.144163 0 -0.015414)
(0.12145 0 -0.0128754)
(0.0972031 0 -0.0102163)
(0.0713868 0 -0.00743764)
(0.0439862 0 -0.00454176)
(0.0149515 0 -0.00152695)
(0.325087 0 -0.0239441)
(0.319878 0 -0.0235583)
(0.313908 0 -0.0230947)
(0.307126 0 -0.022551)
(0.299478 0 -0.0219249)
(0.290911 0 -0.021214)
(0.281364 0 -0.0204157)
(0.270793 0 -0.019551)
(0.259143 0 -0.0186009)
(0.246352 0 -0.017566)
(0.232361 0 -0.0164473)
(0.217112 0 -0.015246)
(0.200551 0 -0.0139633)
(0.182624 0 -0.0126004)
(0.163289 0 -0.011159)
(0.142421 0 -0.0096357)
(0.119976 0 -0.00804308)
(0.0960067 0 -0.00637634)
(0.0704935 0 -0.00463755)
(0.043426 0 -0.002829)
(0.0147626 0 -0.00095032)
(0.323139 0 -0.0083017)
(0.317935 0 -0.00816524)
(0.311976 0 -0.00800158)
(0.305213 0 -0.00780993)
(0.297592 0 -0.00758966)
(0.289061 0 -0.00734035)
(0.279565 0 -0.00706236)
(0.269049 0 -0.0067578)
(0.257459 0 -0.006425)
(0.244736 0 -0.00606351)
(0.230823 0 -0.00567352)
(0.215663 0 -0.00525542)
(0.199198 0 -0.00480964)
(0.181375 0 -0.00433657)
(0.162143 0 -0.00383615)
(0.141452 0 -0.00330746)
(0.119192 0 -0.00276138)
(0.0953496 0 -0.00218763)
(0.0699944 0 -0.00158984)
(0.043108 0 -0.000969021)
(0.0146545 0 -0.000325286)
)
;

boundaryField
{
    inlet
    {
        type            cellMotion;
        value           nonuniform 0();
    }
    outlet
    {
        type            cellMotion;
        value           uniform (0 0 0);
    }
    flap
    {
        type            cellMotion;
        value           nonuniform 0();
    }
    upperWall
    {
        type            slip;
    }
    lowerWall
    {
        type            slip;
    }
    frontAndBack
    {
        type            empty;
    }
    procBoundary2to1
    {
        type            processor;
        value           nonuniform List<vector> 
17
(
(0.445605 0 -0.148396)
(0.437108 0 -0.143321)
(0.42834 0 -0.137983)
(0.419381 0 -0.132367)
(0.410306 0 -0.126447)
(0.401193 0 -0.120192)
(0.392121 0 -0.113564)
(0.383176 0 -0.106513)
(0.374446 0 -0.0989803)
(0.366031 0 -0.090894)
(0.358041 0 -0.0821668)
(0.350598 0 -0.0726926)
(0.343848 0 -0.0623424)
(0.337956 0 -0.0509579)
(0.333121 0 -0.0383433)
(0.329582 0 -0.0242543)
(0.327636 0 -0.00841159)
)
;
    }
    procBoundary2to4
    {
        type            processor;
        value           nonuniform List<vector> 
11
(
(0.49565 0 -0.183643)
(0.496071 0 -0.18277)
(0.495248 0 -0.181206)
(0.493246 0 -0.179054)
(0.490148 0 -0.176407)
(0.486039 0 -0.173336)
(0.481027 0 -0.169901)
(0.475194 0 -0.166147)
(0.468641 0 -0.162104)
(0.461453 0 -0.157786)
(0.453749 0 -0.153217)
)
;
    }
    procBoundary2to5
    {
        type            processor;
        value           nonuniform List<vector> 
34
(
(0.485667 0 -0.177077)
(0.476911 0 -0.170175)
(0.468561 0 -0.164286)
(0.468561 0 -0.164286)
(0.458147 0 -0.157301)
(0.446662 0 -0.151254)
(0.446662 0 -0.151254)
(0.43314 0 -0.144908)
(0.43314 0 -0.144908)
(0.41926 0 -0.137821)
(0.402352 0 -0.131111)
(0.402352 0 -0.131111)
(0.385624 0 -0.123736)
(0.365078 0 -0.116479)
(0.365078 0 -0.116479)
(0.342424 0 -0.10871)
(0.342424 0 -0.10871)
(0.320664 0 -0.10068)
(0.294151 0 -0.0920885)
(0.294151 0 -0.0920885)
(0.265588 0 -0.0828929)
(0.265588 0 -0.0828929)
(0.238085 0 -0.0737863)
(0.205645 0 -0.063586)
(0.205645 0 -0.063586)
(0.171375 0 -0.0528037)
(0.171375 0 -0.0528037)
(0.137683 0 -0.0422618)
(0.0998474 0 -0.0305139)
(0.0998474 0 -0.0305139)
(0.0606412 0 -0.0184053)
(0.0606412 0 -0.0184053)
(0.0202097 0 -0.00607126)
(0.0202097 0 -0.00607126)
)
;
    }
}


// ************************************************************************* //
