/*--------------------------------*- C++ -*----------------------------------*\
| =========                 |                                                 |
| \\      /  F ield         | OpenFOAM: The Open Source CFD Toolbox           |
|  \\    /   O peration     | Version:  dev                                   |
|   \\  /    A nd           | Web:      www.OpenFOAM.org                      |
|    \\/     M anipulation  |                                                 |
\*---------------------------------------------------------------------------*/
FoamFile
{
    version     2.0;
    format      ascii;
    class       surfaceScalarField;
    location    "2";
    object      meshPhi;
}
// * * * * * * * * * * * * * * * * * * * * * * * * * * * * * * * * * * * * * //

dimensions      [0 3 -1 0 0 0 0];

internalField   nonuniform List<scalar> 
881
(
-0.000183937
5.82605e-05
7.69389e-05
-0.000194526
6.84472e-05
-0.000224937
8.72259e-05
-0.000253902
0.000108079
0.000130296
-0.000207151
7.89406e-05
-0.00023604
9.75823e-05
-0.000263651
0.000117746
-0.000288736
0.000139104
0.000160702
-0.000222016
8.96397e-05
-0.000248963
0.000107974
-0.000274433
0.000127372
-0.000297459
0.000147476
-0.000316713
0.000167593
-0.00033054
0.000186773
0.000203794
-0.000238802
0.000100515
-0.000263554
0.000118376
-0.000286669
0.000136881
-0.000307121
0.000155762
-0.000324016
0.000174337
-0.000336273
0.000191787
-0.000343223
0.000207368
-0.000344359
0.000220383
0.000229995
-0.000257206
0.000111528
-0.000279502
0.00012876
-0.000300024
0.00014627
-0.000317853
0.000163869
-0.000332144
0.000180947
-0.000342093
0.000196825
-0.000347297
0.000210825
-0.000347363
0.000222305
-0.00034221
0.000230812
0.000235807
-0.000276818
0.000122656
-0.000296431
0.0001391
-0.000314174
0.000155522
-0.000329244
0.000171794
-0.000340908
0.000187382
-0.00034853
0.0002017
-0.00035167
0.000214156
-0.000350035
0.000224186
-0.000343681
0.000231302
-0.000332556
0.000235137
-0.00031646
0.000235288
0.000231345
-0.000297162
0.000133918
-0.000313887
0.000149389
-0.000328711
0.000164615
-0.000340934
0.000179508
-0.000349931
0.000193597
-0.000355158
0.000206374
-0.000356217
0.000217314
-0.000352864
0.000225917
-0.000345034
0.000231739
-0.000332835
0.000234405
-0.000316318
0.000233586
-0.000295819
0.000229118
0.000220843
-0.000317665
0.000145283
-0.000331312
0.000159578
-0.000343125
0.000173474
-0.000352476
0.000186928
-0.000358819
0.000199516
-0.000361663
0.000210779
-0.000360651
0.000220238
-0.000355565
0.000227447
-0.000346332
0.000232004
-0.000333007
0.000233564
-0.000315722
0.000231844
-0.000294811
0.000226645
-0.000270564
0.000217874
-0.000243169
0.000205424
0.000189189
-0.000337542
0.000156618
-0.000347996
0.000169479
-0.000356803
0.000181945
-0.000363361
0.000193939
-0.000367144
0.000205039
-0.00036769
0.000214819
-0.000364678
0.000222842
-0.00035791
0.0002287
-0.000347316
0.000232033
-0.000332938
0.000232528
-0.000314913
0.000229931
-0.000293481
0.000224054
-0.000268953
0.000214776
-0.000241597
0.000202015
-0.000211774
0.00018578
0.000166094
-0.000355488
0.000166996
-0.000363037
0.000178634
-0.000369094
0.000189781
-0.000373065
0.000200394
-0.000374466
0.000210056
-0.000372876
0.000218382
-0.000367996
0.00022501
-0.000359654
0.000229568
-0.000347786
0.000231723
-0.000332428
0.000231195
-0.000313706
0.000227753
-0.000291821
0.000221221
-0.000267032
0.000211478
-0.000239616
0.000198451
-0.000209906
0.000182122
-0.00017821
0.000162529
-0.000144785
0.000139702
0.000113683
-0.000370142
0.000175959
-0.000375564
0.00018676
-0.000379382
0.000196769
-0.000381112
0.000206092
-0.00038038
0.000214391
-0.000376869
0.000221332
-0.000370311
0.000226608
-0.000360549
0.000229913
-0.000347534
0.000230945
-0.000331301
0.000229443
-0.000311961
0.000225199
-0.00028969
0.00021805
-0.000264715
0.000207879
-0.000237291
0.00019462
-0.000207702
0.000178247
-0.000176235
0.000158776
-0.000143151
0.000136246
-0.000108717
0.000110742
8.23727e-05
-0.000381229
0.000184054
-0.000385153
0.000193905
-0.000387209
0.000202779
-0.000387092
0.000210843
-0.000384547
0.000217837
-0.000379367
0.000223479
-0.000371356
0.000227481
-0.00036037
0.000229582
-0.000346368
0.000229541
-0.000329392
0.000227125
-0.000309543
0.000222133
-0.000286978
0.000214417
-0.000261899
0.000203868
-0.000234534
0.000190422
-0.000205135
0.000174051
-0.000173957
0.000154764
-0.000141249
0.000132599
-0.000107254
0.000107623
-7.2217e-05
7.9941e-05
4.96127e-05
-0.000389105
0.000191223
-0.000391746
0.000199946
-0.000392347
0.000207629
-0.000390727
0.000214454
-0.000386709
0.00022019
-0.000380141
0.000224595
-0.00037091
0.000227415
-0.000358922
0.000228398
-0.000344123
0.000227341
-0.000326558
0.000224071
-0.000306333
0.000218403
-0.000283588
0.000210185
-0.000258501
0.000199321
-0.000231281
0.000185749
-0.000202151
0.000169443
-0.00017134
0.000150407
-0.000139077
0.000128673
-0.000105584
0.0001043
-7.10851e-05
7.73737e-05
-3.57101e-05
4.79577e-05
1.64401e-05
-0.00039384
0.000197021
-0.00039532
0.000204566
-0.000394711
0.000211051
-0.000391876
0.000216665
-0.000386687
0.000221198
-0.000379029
0.000224434
-0.000368832
0.000226159
-0.000356052
0.000226131
-0.000340659
0.000224152
-0.000322689
0.000220107
-0.000302239
0.000213842
-0.000279442
0.000205202
-0.000254461
0.000194101
-0.000227484
0.000180482
-0.000198711
0.000164319
-0.000168351
0.000145613
-0.000136611
0.000124391
-0.000103694
0.000100705
-6.98064e-05
7.46264e-05
-3.50656e-05
4.62127e-05
1.58318e-05
-0.000395354
0.000200961
-0.000395849
0.000207357
-0.00039426
0.00021269
-0.000390474
0.000217158
-0.000384389
0.000220567
-0.000375921
0.000222727
-0.000365018
0.000223449
-0.000351676
0.000222527
-0.000335907
0.000219768
-0.000317722
0.00021505
-0.000297205
0.000208272
-0.000274494
0.000199308
-0.00024974
0.000188067
-0.000223113
0.000174496
-0.000194794
0.000158569
-0.000164974
0.000140288
-0.000133839
0.000119675
-0.000101578
9.67714e-05
-6.8377e-05
7.16415e-05
-3.43458e-05
4.43312e-05
1.518e-05
-0.000393636
0.000202567
-0.000393358
0.000207895
-0.000391027
0.000212173
-0.000386547
0.0002156
-0.000379826
0.00021799
-0.000370797
0.000219179
-0.000359445
0.000219026
-0.000345783
0.000217342
-0.000329839
0.000213947
-0.000311635
0.000208703
-0.000291223
0.000201521
-0.000268739
0.000192338
-0.000244336
0.000181071
-0.000218168
0.00016766
-0.000190403
0.000152083
-0.000161212
0.000134337
-0.000130767
0.000114442
-9.92386e-05
9.24347e-05
-6.68012e-05
6.83671e-05
-3.35544e-05
4.22758e-05
1.447e-05
-0.000388818
0.000201417
-0.000387987
0.000205794
-0.000385141
0.000209144
-0.000380198
0.000211661
-0.000373088
0.000213177
-0.000363766
0.000213549
-0.000352218
0.000212659
-0.000338449
0.000210338
-0.000322502
0.000206437
-0.000304445
0.00020084
-0.000284322
0.000193425
-0.000262215
0.000184142
-0.000238281
0.000172969
-0.000212681
0.00015985
-0.000185565
0.000144748
-0.00015709
0.000127664
-0.000127414
0.000108615
-9.66942e-05
8.76307e-05
-6.50911e-05
6.47548e-05
-3.2698e-05
4.00151e-05
1.36905e-05
-0.000381205
0.00019718
-0.000380027
0.00020074
-0.00037688
0.00020331
-0.000371692
0.000205066
-0.000364414
0.000205873
-0.00035502
0.000205599
-0.000343482
0.000204122
-0.000329811
0.000201314
-0.000314056
0.000197057
-0.000296291
0.000191254
-0.000276583
0.000183782
-0.000254991
0.000174564
-0.000231649
0.000163626
-0.000206719
0.00015094
-0.000180341
0.000136456
-0.00015266
0.000120177
-0.000123823
0.000102115
-9.39764e-05
8.22973e-05
-6.32685e-05
6.07589e-05
-3.17876e-05
3.75205e-05
1.28315e-05
-0.000371274
0.000189632
-0.000369924
0.000192515
-0.000366662
0.000194459
-0.000361425
0.000195615
-0.000354166
0.000195868
-0.000344859
0.000195101
-0.000333494
0.000193211
-0.000320091
0.000190089
-0.000304692
0.000185637
-0.000287358
0.000179774
-0.000268174
0.000172408
-0.00024722
0.000163456
-0.00022458
0.000152918
-0.000200398
0.000140809
-0.000174828
0.000127102
-0.000148003
0.000111783
-0.00012006
9.4867e-05
-9.11342e-05
7.63741e-05
-6.13663e-05
5.63351e-05
-3.08395e-05
3.47648e-05
1.18838e-05
-0.000359657
0.000178655
-0.000358267
0.000180988
-0.000355029
0.000182447
-0.000349886
0.000183153
-0.000342797
0.000183009
-0.000333721
0.0001819
-0.000322646
0.000179746
-0.000309625
0.000176487
-0.000294701
0.000172016
-0.000277912
0.000166254
-0.000259346
0.000159158
-0.000239105
0.000150664
-0.000217253
0.000140723
-0.000193886
0.000129353
-0.000169164
0.000116581
-0.000143231
0.000102394
-0.000116213
8.67943e-05
-8.82353e-05
6.9801e-05
-5.94295e-05
5.14397e-05
-2.98763e-05
3.17213e-05
1.08383e-05
-0.000347121
0.000164208
-0.000345775
0.000166097
-0.000342649
0.000167188
-0.00033769
0.000167572
-0.000330859
0.000167169
-0.000322109
0.000165863
-0.000311424
0.000163599
-0.000298873
0.000160363
-0.000284499
0.000156044
-0.00026833
0.000150564
-0.000250441
0.000143902
-0.000230937
0.000136027
-0.000209894
0.000126879
-0.000187376
0.000116444
-0.000163525
0.000104786
-0.000138495
9.19147e-05
-0.000112403
7.78188e-05
-8.53684e-05
6.25159e-05
-5.75169e-05
4.60279e-05
-2.89269e-05
2.8363e-05
9.68607e-06
-0.000334541
0.000146287
-0.000333277
0.000147806
-0.000330305
0.000148617
-0.000325571
0.000148781
-0.000319034
0.000148232
-0.000310651
0.000146869
-0.000300415
0.00014465
-0.000288376
0.000141581
-0.000274575
0.000137569
-0.000259042
0.000132543
-0.000241847
0.000126493
-0.000223074
0.000119399
-0.000202815
0.000111226
-0.000181141
0.000101948
-0.000158149
9.16063e-05
-0.000133984
8.02433e-05
-0.000108779
6.78563e-05
-8.26455e-05
5.4453e-05
-5.57027e-05
4.00523e-05
-2.80281e-05
2.46613e-05
8.41744e-06
-0.000322876
0.000124856
-0.000321699
0.00012605
-0.000318884
0.000126641
-0.000314377
0.000126664
-0.000308135
0.000126064
-0.000300115
0.000124761
-0.00029031
0.000122723
-0.000278767
0.000119964
-0.000265515
0.000116411
-0.000250583
0.000112007
-0.000234036
0.000106748
-0.000215948
0.00010062
-0.000196416
9.36165e-05
-0.000175514
8.5709e-05
-0.000153306
7.69043e-05
-0.000129929
6.7267e-05
-0.000105527
5.68134e-05
-8.02045e-05
4.55395e-05
-5.40779e-05
3.34616e-05
-2.72249e-05
2.05857e-05
7.02229e-06
-0.000313172
9.97772e-05
-0.000312059
0.000100668
-0.000309373
0.000101075
-0.000305057
0.000101014
-0.000299068
0.000100445
-0.000291363
9.93051e-05
-0.000281929
9.75668e-05
-0.000270805
9.52562e-05
-0.000258018
9.23252e-05
-0.000243594
8.87215e-05
-0.000227592
8.44455e-05
-0.000210083
7.94907e-05
-0.000191151
7.38574e-05
-0.000170881
6.75376e-05
-0.000149337
6.05238e-05
-0.000126619
5.28608e-05
-0.000102871
4.45852e-05
-7.82121e-05
3.56954e-05
-5.27527e-05
2.61996e-05
-2.65713e-05
1.61033e-05
5.4898e-06
-0.000306578
7.07409e-05
-0.000305493
7.13336e-05
-0.000302882
7.15786e-05
-0.000298687
7.14827e-05
-0.000292861
7.10175e-05
-0.00028537
7.01474e-05
-0.000276202
6.88438e-05
-0.000265372
6.71301e-05
-0.000252905
6.499e-05
-0.000238831
6.23795e-05
-0.000223205
5.92978e-05
-0.000206092
5.57441e-05
-0.000187572
5.17215e-05
-0.000167734
4.72366e-05
-0.000146648
4.22819e-05
-0.000124384
3.6873e-05
-0.000101078
3.10536e-05
-7.68669e-05
2.4832e-05
-5.1858e-05
1.82057e-05
-2.6132e-05
1.11792e-05
3.80863e-06
-0.000304407
3.72465e-05
-0.000303306
3.75418e-05
-0.000300699
3.76511e-05
-0.000296526
3.75769e-05
-0.00029074
3.73043e-05
-0.000283307
3.68191e-05
-0.000274226
3.61053e-05
-0.000263503
3.51707e-05
-0.000251146
3.40131e-05
-0.000237192
3.26125e-05
-0.000221693
3.09671e-05
-0.000204716
2.90777e-05
-0.000186336
2.69475e-05
-0.000166643
2.45811e-05
-0.000145717
2.19795e-05
-0.000123621
1.91431e-05
-0.000100469
1.60992e-05
-7.64058e-05
1.28606e-05
-5.15496e-05
9.4202e-06
-2.59836e-05
5.77965e-06
1.96791e-06
-0.000307132
-0.000305995
-0.000303338
-0.000299105
-0.000293247
-0.000285733
-0.000276561
-0.000265736
-0.000253265
-0.000239186
-0.000223551
-0.000206425
-0.000187887
-0.000168023
-0.000146922
-0.00012466
-0.000101324
-7.70567e-05
-5.19958e-05
-2.62267e-05
)
;

boundaryField
{
    inlet
    {
        type            calculated;
        value           nonuniform 0();
    }
    outlet
    {
        type            calculated;
        value           uniform 0;
    }
    flap
    {
        type            calculated;
        value           nonuniform 0();
    }
    upperWall
    {
        type            calculated;
        value           nonuniform List<scalar> 
21
(
0
0
0
0
0
0
0
0
0
0
4.11467e-15
8.34636e-15
-4.23201e-15
4.29132e-15
0
0
-2.29978e-20
4.53481e-15
0
0
0
)
;
    }
    lowerWall
    {
        type            calculated;
        value           nonuniform 0();
    }
    frontAndBack
    {
        type            empty;
        value           nonuniform 0();
    }
    procBoundary2to1
    {
        type            processor;
        value           nonuniform List<scalar> 
17
(
0.000362068
0.000374145
0.00038317
0.000389159
0.000391817
0.00039106
0.000387
0.00037995
0.000370411
0.000359052
0.00034668
0.000334205
0.000322618
0.000312981
0.000306458
0.000304361
0.000307144
)
;
    }
    procBoundary2to4
    {
        type            processor;
        value           nonuniform List<scalar> 
11
(
0.000152454
0.000163809
0.000177628
0.000193899
0.000212403
0.000232838
0.000254797
0.000277818
0.000301319
0.000324583
0.000345636
)
;
    }
    procBoundary2to5
    {
        type            processor;
        value           nonuniform List<scalar> 
34
(
-4.80953e-05
-6.59286e-05
-0.000214895
-9.77976e-05
-0.00011958
-0.000279529
-0.000152122
-0.000309043
-0.000180826
-0.000197928
-0.000338151
-0.000217503
-0.000226923
-0.000339432
-0.000235133
-0.000331463
-0.000236369
-0.000232034
-0.000295911
-0.000222917
-0.000271578
-0.000208381
-0.000191645
-0.000213129
-0.000169101
-0.000179828
-0.000142862
-0.000116164
-0.000109961
-8.45767e-05
-7.32101e-05
-5.1168e-05
-3.62827e-05
-1.70237e-05
)
;
    }
}


// ************************************************************************* //
