/*--------------------------------*- C++ -*----------------------------------*\
| =========                 |                                                 |
| \\      /  F ield         | OpenFOAM: The Open Source CFD Toolbox           |
|  \\    /   O peration     | Version:  dev                                   |
|   \\  /    A nd           | Web:      www.OpenFOAM.org                      |
|    \\/     M anipulation  |                                                 |
\*---------------------------------------------------------------------------*/
FoamFile
{
    version     2.0;
    format      ascii;
    class       pointVectorField;
    location    "1.37";
    object      pointDisplacement;
}
// * * * * * * * * * * * * * * * * * * * * * * * * * * * * * * * * * * * * * //

dimensions      [0 1 0 0 0 0 0];

internalField   nonuniform List<vector> 
1030
(
(0.550139 0 -0.237043)
(0.54056 0 -0.227819)
(0.530238 0 -0.218313)
(0.55034 0 -0.236819)
(0.540577 0 -0.228272)
(0.530045 0 -0.219337)
(0.518604 0 -0.210099)
(0.506112 0 -0.200627)
(0.549248 0 -0.235528)
(0.539467 0 -0.227692)
(0.528863 0 -0.219366)
(0.517321 0 -0.210646)
(0.504712 0 -0.201605)
(0.490906 0 -0.192298)
(0.546874 0 -0.233309)
(0.537214 0 -0.226184)
(0.526661 0 -0.218483)
(0.515124 0 -0.210305)
(0.502492 0 -0.201726)
(0.488648 0 -0.192807)
(0.473466 0 -0.183589)
(0.456819 0 -0.174102)
(0.543243 0 -0.230281)
(0.533829 0 -0.223849)
(0.523432 0 -0.216768)
(0.511993 0 -0.209139)
(0.499425 0 -0.201041)
(0.485622 0 -0.192533)
(0.470468 0 -0.18366)
(0.453844 0 -0.174453)
(0.435629 0 -0.16493)
(0.415701 0 -0.155099)
(0.538398 0 -0.22654)
(0.529331 0 -0.220771)
(0.519186 0 -0.214295)
(0.507928 0 -0.20721)
(0.495502 0 -0.199599)
(0.481814 0 -0.19152)
(0.466755 0 -0.183013)
(0.450213 0 -0.174111)
(0.432079 0 -0.164838)
(0.412241 0 -0.155202)
(0.39058 0 -0.145201)
(0.532429 0 -0.222184)
(0.523761 0 -0.217025)
(0.513944 0 -0.211129)
(0.502952 0 -0.20458)
(0.490744 0 -0.197459)
(0.477238 0 -0.189815)
(0.462326 0 -0.181685)
(0.445917 0 -0.173105)
(0.427916 0 -0.164103)
(0.408216 0 -0.154692)
(0.386705 0 -0.144871)
(0.363272 0 -0.134629)
(0.337804 0 -0.123946)
(0.525456 0 -0.217305)
(0.517215 0 -0.212698)
(0.50777 0 -0.207342)
(0.497101 0 -0.201309)
(0.485166 0 -0.194663)
(0.471893 0 -0.187451)
(0.457186 0 -0.179706)
(0.440959 0 -0.171461)
(0.423138 0 -0.16275)
(0.403625 0 -0.153589)
(0.38231 0 -0.143975)
(0.359088 0 -0.133903)
(0.333853 0 -0.123356)
(0.3065 0 -0.112306)
(0.517598 0 -0.211973)
(0.509794 0 -0.207862)
(0.50074 0 -0.202999)
(0.490416 0 -0.197443)
(0.478783 0 -0.191247)
(0.465782 0 -0.184455)
(0.451328 0 -0.177096)
(0.435346 0 -0.169203)
(0.417764 0 -0.160805)
(0.398482 0 -0.151913)
(0.377401 0 -0.142531)
(0.354433 0 -0.132659)
(0.329475 0 -0.122282)
(0.302426 0 -0.111377)
(0.273186 0 -0.0999122)
(0.241657 0 -0.0878485)
(0.508968 0 -0.20624)
(0.501586 0 -0.202565)
(0.492922 0 -0.198146)
(0.482957 0 -0.19303)
(0.471655 0 -0.187261)
(0.458952 0 -0.18087)
(0.444777 0 -0.173887)
(0.429081 0 -0.166349)
(0.411791 0 -0.158281)
(0.392794 0 -0.149682)
(0.371996 0 -0.140557)
(0.349319 0 -0.130911)
(0.324678 0 -0.120737)
(0.297975 0 -0.110013)
(0.269116 0 -0.0987132)
(0.238006 0 -0.0868023)
(0.204557 0 -0.0742386)
(0.499681 0 -0.200145)
(0.492692 0 -0.196849)
(0.484405 0 -0.192826)
(0.474798 0 -0.188111)
(0.463835 0 -0.182738)
(0.451458 0 -0.176733)
(0.437597 0 -0.17012)
(0.422204 0 -0.16293)
(0.405224 0 -0.155189)
(0.386562 0 -0.146903)
(0.366107 0 -0.138066)
(0.34377 0 -0.128676)
(0.319483 0 -0.118733)
(0.293165 0 -0.108226)
(0.264728 0 -0.0971306)
(0.234081 0 -0.0854168)
(0.20114 0 -0.073048)
(0.165823 0 -0.0599829)
(0.128058 0 -0.0461755)
(0.48985 0 -0.193716)
(0.483217 0 -0.190747)
(0.475284 0 -0.187073)
(0.466023 0 -0.182721)
(0.455397 0 -0.177713)
(0.443356 0 -0.172075)
(0.429839 0 -0.165824)
(0.414778 0 -0.15898)
(0.398119 0 -0.151563)
(0.379807 0 -0.143593)
(0.359741 0 -0.135065)
(0.337804 0 -0.125963)
(0.313916 0 -0.116285)
(0.288019 0 -0.106027)
(0.260042 0 -0.0951742)
(0.229899 0 -0.0837006)
(0.197507 0 -0.0715738)
(0.162792 0 -0.0587587)
(0.125685 0 -0.0452161)
(0.0861313 0 -0.0309067)
(0.479584 0 -0.186966)
(0.473265 0 -0.184278)
(0.465657 0 -0.180914)
(0.456726 0 -0.176888)
(0.446432 0 -0.172219)
(0.434727 0 -0.166925)
(0.421556 0 -0.16102)
(0.406849 0 -0.154517)
(0.390548 0 -0.147432)
(0.372602 0 -0.139783)
(0.352929 0 -0.131568)
(0.331427 0 -0.122777)
(0.307997 0 -0.113399)
(0.282566 0 -0.103426)
(0.255087 0 -0.0928537)
(0.225485 0 -0.0816627)
(0.19368 0 -0.0698236)
(0.159604 0 -0.0573077)
(0.123194 0 -0.0440829)
(0.0844022 0 -0.0301167)
(0.0431279 0 -0.0153551)
(0.468988 0 -0.179903)
(0.46294 0 -0.177455)
(0.455623 0 -0.174362)
(0.447 0 -0.170632)
(0.437027 0 -0.166275)
(0.425654 0 -0.161304)
(0.412827 0 -0.15573)
(0.398484 0 -0.149563)
(0.382567 0 -0.142814)
(0.365011 0 -0.135493)
(0.345735 0 -0.127597)
(0.324668 0 -0.119127)
(0.301726 0 -0.110074)
(0.276825 0 -0.100428)
(0.249902 0 -0.0901821)
(0.220877 0 -0.0793141)
(0.189686 0 -0.0678048)
(0.15628 0 -0.0556358)
(0.120602 0 -0.0427802)
(0.082606 0 -0.0292118)
(0.0422007 0 -0.014885)
(0 0 0)
(0.458161 0 -0.17252)
(0.452341 0 -0.170277)
(0.445282 0 -0.167423)
(0.436942 0 -0.163959)
(0.427273 0 -0.159892)
(0.416224 0 -0.155227)
(0.40374 0 -0.149971)
(0.389764 0 -0.144132)
(0.374237 0 -0.137719)
(0.357077 0 -0.130729)
(0.33821 0 -0.123162)
(0.317594 0 -0.115027)
(0.295155 0 -0.106322)
(0.27081 0 -0.0970342)
(0.244489 0 -0.0871539)
(0.216093 0 -0.0766561)
(0.185554 0 -0.0655235)
(0.152845 0 -0.0537474)
(0.117926 0 -0.0413114)
(0.0807549 0 -0.0281944)
(0.041247 0 -0.0143585)
(0 0 0)
(0.447199 0 -0.1648)
(0.441567 0 -0.162734)
(0.434733 0 -0.160091)
(0.426648 0 -0.15687)
(0.417262 0 -0.15307)
(0.406523 0 -0.148694)
(0.394374 0 -0.143745)
(0.380758 0 -0.138227)
(0.365614 0 -0.132144)
(0.348861 0 -0.125491)
(0.330433 0 -0.118272)
(0.310294 0 -0.110498)
(0.288369 0 -0.102161)
(0.264576 0 -0.0932511)
(0.238853 0 -0.083762)
(0.211125 0 -0.0736784)
(0.181301 0 -0.0629778)
(0.149327 0 -0.0516463)
(0.115188 0 -0.0396792)
(0.0788629 0 -0.0270662)
(0.0402739 0 -0.0137762)
(0 0 0)
(0.436196 0 -0.156716)
(0.430716 0 -0.154803)
(0.424074 0 -0.15235)
(0.416217 0 -0.149351)
(0.407093 0 -0.145802)
(0.396646 0 -0.141702)
(0.38482 0 -0.13705)
(0.371555 0 -0.131847)
(0.356787 0 -0.126093)
(0.340451 0 -0.119789)
(0.322486 0 -0.112938)
(0.302833 0 -0.10554)
(0.281424 0 -0.0975908)
(0.25819 0 -0.0890854)
(0.23307 0 -0.0800175)
(0.206005 0 -0.0703793)
(0.176923 0 -0.0601566)
(0.14574 0 -0.0493289)
(0.112413 0 -0.0378857)
(0.0769462 0 -0.0258283)
(0.039289 0 -0.0131385)
(0 0 0)
(0.425246 0 -0.148228)
(0.419886 0 -0.146452)
(0.413406 0 -0.144173)
(0.405751 0 -0.14138)
(0.396866 0 -0.138069)
(0.386693 0 -0.134234)
(0.375176 0 -0.129873)
(0.362253 0 -0.124984)
(0.347862 0 -0.119567)
(0.331942 0 -0.113621)
(0.31443 0 -0.107146)
(0.295263 0 -0.100142)
(0.274378 0 -0.0926058)
(0.251713 0 -0.0845342)
(0.227207 0 -0.0759225)
(0.200803 0 -0.0667652)
(0.172448 0 -0.0570558)
(0.142078 0 -0.0467823)
(0.109613 0 -0.0359259)
(0.0750243 0 -0.024481)
(0.0383 0 -0.0124449)
(0 0 0)
(0.414443 0 -0.139287)
(0.409176 0 -0.137636)
(0.402832 0 -0.135517)
(0.395354 0 -0.132921)
(0.386686 0 -0.129839)
(0.376768 0 -0.126264)
(0.365543 0 -0.122192)
(0.35295 0 -0.117619)
(0.338928 0 -0.112544)
(0.323415 0 -0.106965)
(0.306348 0 -0.100882)
(0.287666 0 -0.0942927)
(0.267307 0 -0.087196)
(0.245211 0 -0.0795891)
(0.221321 0 -0.0714693)
(0.195584 0 -0.0628341)
(0.167948 0 -0.0536794)
(0.138375 0 -0.0440026)
(0.106782 0 -0.0337865)
(0.0730936 0 -0.0230148)
(0.0373108 0 -0.0116925)
(0 0 0)
(0.403887 0 -0.129827)
(0.39869 0 -0.128293)
(0.392459 0 -0.12633)
(0.385135 0 -0.123924)
(0.376662 0 -0.121067)
(0.366981 0 -0.11775)
(0.356031 0 -0.113968)
(0.343752 0 -0.109717)
(0.330085 0 -0.104994)
(0.314966 0 -0.0997957)
(0.298336 0 -0.0941223)
(0.280132 0 -0.0879725)
(0.260293 0 -0.0813447)
(0.238757 0 -0.0742349)
(0.215476 0 -0.0666438)
(0.190401 0 -0.0585731)
(0.163481 0 -0.0500201)
(0.134677 0 -0.0409838)
(0.10393 0 -0.0314558)
(0.0711652 0 -0.0214231)
(0.0363388 0 -0.0108813)
(0 0 0)
(0.393685 0 -0.119768)
(0.388539 0 -0.11835)
(0.3824 0 -0.11654)
(0.375211 0 -0.114324)
(0.366913 0 -0.111692)
(0.357447 0 -0.108637)
(0.346753 0 -0.105152)
(0.334772 0 -0.101232)
(0.321442 0 -0.0968731)
(0.306703 0 -0.092074)
(0.290495 0 -0.0868332)
(0.272761 0 -0.0811509)
(0.253425 0 -0.0750215)
(0.232422 0 -0.0684413)
(0.209737 0 -0.0614215)
(0.185317 0 -0.053964)
(0.159096 0 -0.0460623)
(0.131035 0 -0.0377174)
(0.101099 0 -0.02893)
(0.0692448 0 -0.0196976)
(0.0353849 0 -0.0100063)
(0 0 0)
(0.383953 0 -0.109012)
(0.378843 0 -0.107712)
(0.37278 0 -0.106057)
(0.365706 0 -0.104035)
(0.357564 0 -0.101636)
(0.348294 0 -0.0988505)
(0.337836 0 -0.0956732)
(0.326131 0 -0.0920989)
(0.313118 0 -0.0881239)
(0.298738 0 -0.083746)
(0.28293 0 -0.0789643)
(0.265638 0 -0.0737785)
(0.246784 0 -0.0681825)
(0.226312 0 -0.0621791)
(0.204207 0 -0.0557811)
(0.180413 0 -0.0489859)
(0.154864 0 -0.04179)
(0.127525 0 -0.0341962)
(0.0983599 0 -0.0262074)
(0.067346 0 -0.0178284)
(0.0344155 0 -0.00905149)
(0 0 0)
(0.374822 0 -0.0974377)
(0.369736 0 -0.0962619)
(0.363734 0 -0.0947702)
(0.35676 0 -0.0929513)
(0.348755 0 -0.0907954)
(0.33966 0 -0.0882948)
(0.329417 0 -0.0854432)
(0.317966 0 -0.0822358)
(0.305246 0 -0.0786695)
(0.291198 0 -0.0747423)
(0.275763 0 -0.070453)
(0.25888 0 -0.0658012)
(0.240488 0 -0.0607864)
(0.220538 0 -0.0554139)
(0.198982 0 -0.0496883)
(0.175772 0 -0.0436089)
(0.15086 0 -0.0371783)
(0.124205 0 -0.0304)
(0.095776 0 -0.0232783)
(0.0655485 0 -0.0158188)
(0.0334785 0 -0.00802124)
(0 0 0)
(0.366441 0 -0.0848944)
(0.361371 0 -0.0838539)
(0.355419 0 -0.0825386)
(0.348528 0 -0.0809381)
(0.340642 0 -0.0790439)
(0.331703 0 -0.076849)
(0.321652 0 -0.0743479)
(0.310429 0 -0.0715364)
(0.297976 0 -0.0684121)
(0.284232 0 -0.0649732)
(0.26914 0 -0.0612197)
(0.252639 0 -0.0571519)
(0.234674 0 -0.0527717)
(0.215192 0 -0.0480822)
(0.194143 0 -0.043087)
(0.171479 0 -0.0377893)
(0.147157 0 -0.0321929)
(0.12114 0 -0.0263023)
(0.0933963 0 -0.0201229)
(0.0639066 0 -0.0136616)
(0.0326358 0 -0.00692113)
(0 0 0)
(0.358986 0 -0.071197)
(0.353925 0 -0.0703078)
(0.348012 0 -0.0691875)
(0.341191 0 -0.0678274)
(0.333407 0 -0.0662204)
(0.324602 0 -0.0643606)
(0.314717 0 -0.0622436)
(0.303696 0 -0.0598663)
(0.291477 0 -0.0572268)
(0.278004 0 -0.0543243)
(0.263216 0 -0.0511592)
(0.247057 0 -0.047733)
(0.229471 0 -0.0440479)
(0.210405 0 -0.0401071)
(0.189809 0 -0.0359145)
(0.167636 0 -0.0314742)
(0.143844 0 -0.0267907)
(0.118399 0 -0.0218693)
(0.0912714 0 -0.016716)
(0.0624445 0 -0.0113377)
(0.0318886 0 -0.00573887)
(0 0 0)
(0.352663 0 -0.0561137)
(0.347607 0 -0.0553973)
(0.341724 0 -0.0544977)
(0.33496 0 -0.0534081)
(0.327259 0 -0.0521229)
(0.318565 0 -0.0506379)
(0.308821 0 -0.0489498)
(0.297968 0 -0.0470565)
(0.285948 0 -0.0449571)
(0.272702 0 -0.0426515)
(0.258174 0 -0.0401407)
(0.242305 0 -0.0374266)
(0.22504 0 -0.0345118)
(0.206327 0 -0.0313996)
(0.186116 0 -0.0280938)
(0.164361 0 -0.0245987)
(0.141022 0 -0.020919)
(0.116064 0 -0.0170598)
(0.0894615 0 -0.0130269)
(0.0611996 0 -0.00882676)
(0.0312531 0 -0.00446389)
(0 0 0)
(0.347725 0 -0.0393522)
(0.342672 0 -0.0388376)
(0.336811 0 -0.0381932)
(0.330089 0 -0.0374145)
(0.322452 0 -0.0364978)
(0.313843 0 -0.0354403)
(0.304207 0 -0.0342401)
(0.293485 0 -0.0328961)
(0.281619 0 -0.0314081)
(0.268552 0 -0.0297766)
(0.254226 0 -0.0280028)
(0.238583 0 -0.0260888)
(0.22157 0 -0.0240369)
(0.203133 0 -0.02185)
(0.183223 0 -0.0195316)
(0.161795 0 -0.0170853)
(0.138809 0 -0.0145151)
(0.114232 0 -0.0118253)
(0.0880403 0 -0.00902044)
(0.0602206 0 -0.00610576)
(0.0307529 0 -0.00308498)
(0 0 0)
(0.344485 0 -0.0205589)
(0.339433 0 -0.0202841)
(0.333586 0 -0.0199408)
(0.326891 0 -0.0195267)
(0.319295 0 -0.0190401)
(0.310742 0 -0.0184796)
(0.301176 0 -0.0178444)
(0.290539 0 -0.0171342)
(0.278775 0 -0.0163491)
(0.265824 0 -0.0154896)
(0.25163 0 -0.0145567)
(0.236137 0 -0.0135517)
(0.219288 0 -0.0124761)
(0.201032 0 -0.0113318)
(0.181319 0 -0.0101209)
(0.160105 0 -0.00884563)
(0.13735 0 -0.00750825)
(0.113022 0 -0.00611132)
(0.0870988 0 -0.00465749)
(0.0595694 0 -0.00314967)
(0.0304188 0 -0.00159007)
(0 0 0)
(0.343331 0 0)
(0.338278 0 0)
(0.332436 0 0)
(0.325751 0 0)
(0.318169 0 0)
(0.309636 0 0)
(0.300095 0 0)
(0.289489 0 0)
(0.277761 0 0)
(0.264852 0 0)
(0.250706 0 0)
(0.235266 0 0)
(0.218476 0 0)
(0.200285 0 0)
(0.180644 0 0)
(0.159507 0 0)
(0.136835 0 0)
(0.112598 0 0)
(0.0867716 0 0)
(0.0593478 0 0)
(0.0303142 0 0)
(0 0 0)
(0.550139 0 -0.237043)
(0.54056 0 -0.227819)
(0.530238 0 -0.218313)
(0.55034 0 -0.236819)
(0.540577 0 -0.228272)
(0.530045 0 -0.219337)
(0.518604 0 -0.210099)
(0.506112 0 -0.200627)
(0.549248 0 -0.235528)
(0.539467 0 -0.227692)
(0.528863 0 -0.219366)
(0.517321 0 -0.210646)
(0.504712 0 -0.201605)
(0.490906 0 -0.192298)
(0.546874 0 -0.233309)
(0.537214 0 -0.226184)
(0.526661 0 -0.218483)
(0.515124 0 -0.210305)
(0.502492 0 -0.201726)
(0.488648 0 -0.192807)
(0.473466 0 -0.183589)
(0.456819 0 -0.174102)
(0.543243 0 -0.230281)
(0.533829 0 -0.223849)
(0.523432 0 -0.216768)
(0.511993 0 -0.209139)
(0.499425 0 -0.201041)
(0.485622 0 -0.192533)
(0.470468 0 -0.18366)
(0.453844 0 -0.174453)
(0.435629 0 -0.16493)
(0.415701 0 -0.155099)
(0.538398 0 -0.22654)
(0.529331 0 -0.220771)
(0.519186 0 -0.214295)
(0.507928 0 -0.20721)
(0.495502 0 -0.199599)
(0.481814 0 -0.19152)
(0.466755 0 -0.183013)
(0.450213 0 -0.174111)
(0.432079 0 -0.164838)
(0.412241 0 -0.155202)
(0.39058 0 -0.145201)
(0.532429 0 -0.222184)
(0.523761 0 -0.217025)
(0.513944 0 -0.211129)
(0.502952 0 -0.20458)
(0.490744 0 -0.197459)
(0.477238 0 -0.189815)
(0.462326 0 -0.181685)
(0.445917 0 -0.173105)
(0.427916 0 -0.164103)
(0.408216 0 -0.154692)
(0.386705 0 -0.144871)
(0.363272 0 -0.134629)
(0.337804 0 -0.123946)
(0.525456 0 -0.217305)
(0.517215 0 -0.212698)
(0.50777 0 -0.207342)
(0.497101 0 -0.201309)
(0.485166 0 -0.194663)
(0.471893 0 -0.187451)
(0.457186 0 -0.179706)
(0.440959 0 -0.171461)
(0.423138 0 -0.16275)
(0.403625 0 -0.153589)
(0.38231 0 -0.143975)
(0.359088 0 -0.133903)
(0.333853 0 -0.123356)
(0.3065 0 -0.112306)
(0.517598 0 -0.211973)
(0.509794 0 -0.207862)
(0.50074 0 -0.202999)
(0.490416 0 -0.197443)
(0.478783 0 -0.191247)
(0.465782 0 -0.184455)
(0.451328 0 -0.177096)
(0.435346 0 -0.169203)
(0.417764 0 -0.160805)
(0.398482 0 -0.151913)
(0.377401 0 -0.142531)
(0.354433 0 -0.132659)
(0.329475 0 -0.122282)
(0.302426 0 -0.111377)
(0.273186 0 -0.0999122)
(0.241657 0 -0.0878485)
(0.508968 0 -0.20624)
(0.501586 0 -0.202565)
(0.492922 0 -0.198146)
(0.482957 0 -0.19303)
(0.471655 0 -0.187261)
(0.458952 0 -0.18087)
(0.444777 0 -0.173887)
(0.429081 0 -0.166349)
(0.411791 0 -0.158281)
(0.392794 0 -0.149682)
(0.371996 0 -0.140557)
(0.349319 0 -0.130911)
(0.324678 0 -0.120737)
(0.297975 0 -0.110013)
(0.269116 0 -0.0987132)
(0.238006 0 -0.0868023)
(0.204557 0 -0.0742386)
(0.499681 0 -0.200145)
(0.492692 0 -0.196849)
(0.484405 0 -0.192826)
(0.474798 0 -0.188111)
(0.463835 0 -0.182738)
(0.451458 0 -0.176733)
(0.437597 0 -0.17012)
(0.422204 0 -0.16293)
(0.405224 0 -0.155189)
(0.386562 0 -0.146903)
(0.366107 0 -0.138066)
(0.34377 0 -0.128676)
(0.319483 0 -0.118733)
(0.293165 0 -0.108226)
(0.264728 0 -0.0971306)
(0.234081 0 -0.0854168)
(0.20114 0 -0.073048)
(0.165823 0 -0.0599829)
(0.128058 0 -0.0461755)
(0.48985 0 -0.193716)
(0.483217 0 -0.190747)
(0.475284 0 -0.187073)
(0.466023 0 -0.182721)
(0.455397 0 -0.177713)
(0.443356 0 -0.172075)
(0.429839 0 -0.165824)
(0.414778 0 -0.15898)
(0.398119 0 -0.151563)
(0.379807 0 -0.143593)
(0.359741 0 -0.135065)
(0.337804 0 -0.125963)
(0.313916 0 -0.116285)
(0.288019 0 -0.106027)
(0.260042 0 -0.0951742)
(0.229899 0 -0.0837006)
(0.197507 0 -0.0715738)
(0.162792 0 -0.0587587)
(0.125685 0 -0.0452161)
(0.0861313 0 -0.0309067)
(0.479584 0 -0.186966)
(0.473265 0 -0.184278)
(0.465657 0 -0.180914)
(0.456726 0 -0.176888)
(0.446432 0 -0.172219)
(0.434727 0 -0.166925)
(0.421556 0 -0.16102)
(0.406849 0 -0.154517)
(0.390548 0 -0.147432)
(0.372602 0 -0.139783)
(0.352929 0 -0.131568)
(0.331427 0 -0.122777)
(0.307997 0 -0.113399)
(0.282566 0 -0.103426)
(0.255087 0 -0.0928537)
(0.225485 0 -0.0816627)
(0.19368 0 -0.0698236)
(0.159604 0 -0.0573077)
(0.123194 0 -0.0440829)
(0.0844022 0 -0.0301167)
(0.0431279 0 -0.0153551)
(0.468988 0 -0.179903)
(0.46294 0 -0.177455)
(0.455623 0 -0.174362)
(0.447 0 -0.170632)
(0.437027 0 -0.166275)
(0.425654 0 -0.161304)
(0.412827 0 -0.15573)
(0.398484 0 -0.149563)
(0.382567 0 -0.142814)
(0.365011 0 -0.135493)
(0.345735 0 -0.127597)
(0.324668 0 -0.119127)
(0.301726 0 -0.110074)
(0.276825 0 -0.100428)
(0.249902 0 -0.0901821)
(0.220877 0 -0.0793141)
(0.189686 0 -0.0678048)
(0.15628 0 -0.0556358)
(0.120602 0 -0.0427802)
(0.082606 0 -0.0292118)
(0.0422007 0 -0.014885)
(0 0 0)
(0.458161 0 -0.17252)
(0.452341 0 -0.170277)
(0.445282 0 -0.167423)
(0.436942 0 -0.163959)
(0.427273 0 -0.159892)
(0.416224 0 -0.155227)
(0.40374 0 -0.149971)
(0.389764 0 -0.144132)
(0.374237 0 -0.137719)
(0.357077 0 -0.130729)
(0.33821 0 -0.123162)
(0.317594 0 -0.115027)
(0.295155 0 -0.106322)
(0.27081 0 -0.0970342)
(0.244489 0 -0.0871539)
(0.216093 0 -0.0766561)
(0.185554 0 -0.0655235)
(0.152845 0 -0.0537474)
(0.117926 0 -0.0413114)
(0.0807549 0 -0.0281944)
(0.041247 0 -0.0143585)
(0 0 0)
(0.447199 0 -0.1648)
(0.441567 0 -0.162734)
(0.434733 0 -0.160091)
(0.426648 0 -0.15687)
(0.417262 0 -0.15307)
(0.406523 0 -0.148694)
(0.394374 0 -0.143745)
(0.380758 0 -0.138227)
(0.365614 0 -0.132144)
(0.348861 0 -0.125491)
(0.330433 0 -0.118272)
(0.310294 0 -0.110498)
(0.288369 0 -0.102161)
(0.264576 0 -0.0932511)
(0.238853 0 -0.083762)
(0.211125 0 -0.0736784)
(0.181301 0 -0.0629778)
(0.149327 0 -0.0516463)
(0.115188 0 -0.0396792)
(0.0788629 0 -0.0270662)
(0.0402739 0 -0.0137762)
(0 0 0)
(0.436196 0 -0.156716)
(0.430716 0 -0.154803)
(0.424074 0 -0.15235)
(0.416217 0 -0.149351)
(0.407093 0 -0.145802)
(0.396646 0 -0.141702)
(0.38482 0 -0.13705)
(0.371555 0 -0.131847)
(0.356787 0 -0.126093)
(0.340451 0 -0.119789)
(0.322486 0 -0.112938)
(0.302833 0 -0.10554)
(0.281424 0 -0.0975908)
(0.25819 0 -0.0890854)
(0.23307 0 -0.0800175)
(0.206005 0 -0.0703793)
(0.176923 0 -0.0601566)
(0.14574 0 -0.0493289)
(0.112413 0 -0.0378857)
(0.0769462 0 -0.0258283)
(0.039289 0 -0.0131385)
(0 0 0)
(0.425246 0 -0.148228)
(0.419886 0 -0.146452)
(0.413406 0 -0.144173)
(0.405751 0 -0.14138)
(0.396866 0 -0.138069)
(0.386693 0 -0.134234)
(0.375176 0 -0.129873)
(0.362253 0 -0.124984)
(0.347862 0 -0.119567)
(0.331942 0 -0.113621)
(0.31443 0 -0.107146)
(0.295263 0 -0.100142)
(0.274378 0 -0.0926058)
(0.251713 0 -0.0845342)
(0.227207 0 -0.0759225)
(0.200803 0 -0.0667652)
(0.172448 0 -0.0570558)
(0.142078 0 -0.0467823)
(0.109613 0 -0.0359259)
(0.0750243 0 -0.024481)
(0.0383 0 -0.0124449)
(0 0 0)
(0.414443 0 -0.139287)
(0.409176 0 -0.137636)
(0.402832 0 -0.135517)
(0.395354 0 -0.132921)
(0.386686 0 -0.129839)
(0.376768 0 -0.126264)
(0.365543 0 -0.122192)
(0.35295 0 -0.117619)
(0.338928 0 -0.112544)
(0.323415 0 -0.106965)
(0.306348 0 -0.100882)
(0.287666 0 -0.0942927)
(0.267307 0 -0.087196)
(0.245211 0 -0.0795891)
(0.221321 0 -0.0714693)
(0.195584 0 -0.0628341)
(0.167948 0 -0.0536794)
(0.138375 0 -0.0440026)
(0.106782 0 -0.0337865)
(0.0730936 0 -0.0230148)
(0.0373108 0 -0.0116925)
(0 0 0)
(0.403887 0 -0.129827)
(0.39869 0 -0.128293)
(0.392459 0 -0.12633)
(0.385135 0 -0.123924)
(0.376662 0 -0.121067)
(0.366981 0 -0.11775)
(0.356031 0 -0.113968)
(0.343752 0 -0.109717)
(0.330085 0 -0.104994)
(0.314966 0 -0.0997957)
(0.298336 0 -0.0941223)
(0.280132 0 -0.0879725)
(0.260293 0 -0.0813447)
(0.238757 0 -0.0742349)
(0.215476 0 -0.0666438)
(0.190401 0 -0.0585731)
(0.163481 0 -0.0500201)
(0.134677 0 -0.0409838)
(0.10393 0 -0.0314558)
(0.0711652 0 -0.0214231)
(0.0363388 0 -0.0108813)
(0 0 0)
(0.393685 0 -0.119768)
(0.388539 0 -0.11835)
(0.3824 0 -0.11654)
(0.375211 0 -0.114324)
(0.366913 0 -0.111692)
(0.357447 0 -0.108637)
(0.346753 0 -0.105152)
(0.334772 0 -0.101232)
(0.321442 0 -0.0968731)
(0.306703 0 -0.092074)
(0.290495 0 -0.0868332)
(0.272761 0 -0.0811509)
(0.253425 0 -0.0750215)
(0.232422 0 -0.0684413)
(0.209737 0 -0.0614215)
(0.185317 0 -0.053964)
(0.159096 0 -0.0460623)
(0.131035 0 -0.0377174)
(0.101099 0 -0.02893)
(0.0692448 0 -0.0196976)
(0.0353849 0 -0.0100063)
(0 0 0)
(0.383953 0 -0.109012)
(0.378843 0 -0.107712)
(0.37278 0 -0.106057)
(0.365706 0 -0.104035)
(0.357564 0 -0.101636)
(0.348294 0 -0.0988505)
(0.337836 0 -0.0956732)
(0.326131 0 -0.0920989)
(0.313118 0 -0.0881239)
(0.298738 0 -0.083746)
(0.28293 0 -0.0789643)
(0.265638 0 -0.0737785)
(0.246784 0 -0.0681825)
(0.226312 0 -0.0621791)
(0.204207 0 -0.0557811)
(0.180413 0 -0.0489859)
(0.154864 0 -0.04179)
(0.127525 0 -0.0341962)
(0.0983599 0 -0.0262074)
(0.067346 0 -0.0178284)
(0.0344155 0 -0.00905149)
(0 0 0)
(0.374822 0 -0.0974377)
(0.369736 0 -0.0962619)
(0.363734 0 -0.0947702)
(0.35676 0 -0.0929513)
(0.348755 0 -0.0907954)
(0.33966 0 -0.0882948)
(0.329417 0 -0.0854432)
(0.317966 0 -0.0822358)
(0.305246 0 -0.0786695)
(0.291198 0 -0.0747423)
(0.275763 0 -0.070453)
(0.25888 0 -0.0658012)
(0.240488 0 -0.0607864)
(0.220538 0 -0.0554139)
(0.198982 0 -0.0496883)
(0.175772 0 -0.0436089)
(0.15086 0 -0.0371783)
(0.124205 0 -0.0304)
(0.095776 0 -0.0232783)
(0.0655485 0 -0.0158188)
(0.0334785 0 -0.00802124)
(0 0 0)
(0.366441 0 -0.0848944)
(0.361371 0 -0.0838539)
(0.355419 0 -0.0825386)
(0.348528 0 -0.0809381)
(0.340642 0 -0.0790439)
(0.331703 0 -0.076849)
(0.321652 0 -0.0743479)
(0.310429 0 -0.0715364)
(0.297976 0 -0.0684121)
(0.284232 0 -0.0649732)
(0.26914 0 -0.0612197)
(0.252639 0 -0.0571519)
(0.234674 0 -0.0527717)
(0.215192 0 -0.0480822)
(0.194143 0 -0.043087)
(0.171479 0 -0.0377893)
(0.147157 0 -0.0321929)
(0.12114 0 -0.0263023)
(0.0933963 0 -0.0201229)
(0.0639066 0 -0.0136616)
(0.0326358 0 -0.00692113)
(0 0 0)
(0.358986 0 -0.071197)
(0.353925 0 -0.0703078)
(0.348012 0 -0.0691875)
(0.341191 0 -0.0678274)
(0.333407 0 -0.0662204)
(0.324602 0 -0.0643606)
(0.314717 0 -0.0622436)
(0.303696 0 -0.0598663)
(0.291477 0 -0.0572268)
(0.278004 0 -0.0543243)
(0.263216 0 -0.0511592)
(0.247057 0 -0.047733)
(0.229471 0 -0.0440479)
(0.210405 0 -0.0401071)
(0.189809 0 -0.0359145)
(0.167636 0 -0.0314742)
(0.143844 0 -0.0267907)
(0.118399 0 -0.0218693)
(0.0912714 0 -0.016716)
(0.0624445 0 -0.0113377)
(0.0318886 0 -0.00573887)
(0 0 0)
(0.352663 0 -0.0561137)
(0.347607 0 -0.0553973)
(0.341724 0 -0.0544977)
(0.33496 0 -0.0534081)
(0.327259 0 -0.0521229)
(0.318565 0 -0.0506379)
(0.308821 0 -0.0489498)
(0.297968 0 -0.0470565)
(0.285948 0 -0.0449571)
(0.272702 0 -0.0426515)
(0.258174 0 -0.0401407)
(0.242305 0 -0.0374266)
(0.22504 0 -0.0345118)
(0.206327 0 -0.0313996)
(0.186116 0 -0.0280938)
(0.164361 0 -0.0245987)
(0.141022 0 -0.020919)
(0.116064 0 -0.0170598)
(0.0894615 0 -0.0130269)
(0.0611996 0 -0.00882676)
(0.0312531 0 -0.00446389)
(0 0 0)
(0.347725 0 -0.0393522)
(0.342672 0 -0.0388376)
(0.336811 0 -0.0381932)
(0.330089 0 -0.0374145)
(0.322452 0 -0.0364978)
(0.313843 0 -0.0354403)
(0.304207 0 -0.0342401)
(0.293485 0 -0.0328961)
(0.281619 0 -0.0314081)
(0.268552 0 -0.0297766)
(0.254226 0 -0.0280028)
(0.238583 0 -0.0260888)
(0.22157 0 -0.0240369)
(0.203133 0 -0.02185)
(0.183223 0 -0.0195316)
(0.161795 0 -0.0170853)
(0.138809 0 -0.0145151)
(0.114232 0 -0.0118253)
(0.0880403 0 -0.00902044)
(0.0602206 0 -0.00610576)
(0.0307529 0 -0.00308498)
(0 0 0)
(0.344485 0 -0.0205589)
(0.339433 0 -0.0202841)
(0.333586 0 -0.0199408)
(0.326891 0 -0.0195267)
(0.319295 0 -0.0190401)
(0.310742 0 -0.0184796)
(0.301176 0 -0.0178444)
(0.290539 0 -0.0171342)
(0.278775 0 -0.0163491)
(0.265824 0 -0.0154896)
(0.25163 0 -0.0145567)
(0.236137 0 -0.0135517)
(0.219288 0 -0.0124761)
(0.201032 0 -0.0113318)
(0.181319 0 -0.0101209)
(0.160105 0 -0.00884563)
(0.13735 0 -0.00750825)
(0.113022 0 -0.00611132)
(0.0870988 0 -0.00465749)
(0.0595694 0 -0.00314967)
(0.0304188 0 -0.00159007)
(0 0 0)
(0.343331 0 0)
(0.338278 0 0)
(0.332436 0 0)
(0.325751 0 0)
(0.318169 0 0)
(0.309636 0 0)
(0.300095 0 0)
(0.289489 0 0)
(0.277761 0 0)
(0.264852 0 0)
(0.250706 0 0)
(0.235266 0 0)
(0.218476 0 0)
(0.200285 0 0)
(0.180644 0 0)
(0.159507 0 0)
(0.136835 0 0)
(0.112598 0 0)
(0.0867716 0 0)
(0.0593478 0 0)
(0.0303142 0 0)
(0 0 0)
)
;

boundaryField
{
    inlet
    {
        type            fixedValue;
        value           nonuniform 0();
    }
    outlet
    {
        type            fixedValue;
        value           uniform (0 0 0);
    }
    flap
    {
        type            fixedValue;
        value           nonuniform 0();
    }
    upperWall
    {
        type            slip;
    }
    lowerWall
    {
        type            slip;
    }
    frontAndBack
    {
        type            empty;
    }
    procBoundary2to1
    {
        type            processor;
    }
    procBoundary2to4
    {
        type            processor;
    }
    procBoundary2to5
    {
        type            processor;
    }
}


// ************************************************************************* //
