/*--------------------------------*- C++ -*----------------------------------*\
| =========                 |                                                 |
| \\      /  F ield         | OpenFOAM: The Open Source CFD Toolbox           |
|  \\    /   O peration     | Version:  dev                                   |
|   \\  /    A nd           | Web:      www.OpenFOAM.org                      |
|    \\/     M anipulation  |                                                 |
\*---------------------------------------------------------------------------*/
FoamFile
{
    version     2.0;
    format      ascii;
    class       volVectorField;
    location    "0.52";
    object      cellDisplacement;
}
// * * * * * * * * * * * * * * * * * * * * * * * * * * * * * * * * * * * * * //

dimensions      [0 1 0 0 0 0 0];

internalField   nonuniform List<vector> 
2790
(
(0.00439048 0 -6.83646e-06)
(0.0126138 0 -1.97439e-05)
(0.0197997 0 -3.13283e-05)
(0.0260404 0 -4.18422e-05)
(0.031428 0 -5.14509e-05)
(0.0360444 0 -6.03273e-05)
(0.0399572 0 -6.8595e-05)
(0.043228 0 -7.61295e-05)
(0.0459124 0 -8.2966e-05)
(0.0480553 0 -8.90332e-05)
(0.0496945 0 -9.4184e-05)
(0.0508607 0 -9.81966e-05)
(0.0515789 0 -0.00010075)
(0.0518683 0 -0.000101331)
(0.0517429 0 -9.93796e-05)
(0.0512126 0 -9.43317e-05)
(0.0502801 0 -8.47291e-05)
(0.0489438 0 -6.9442e-05)
(0.0471981 0 -4.6797e-05)
(0.0450348 0 -1.46998e-05)
(0.0424434 0 2.95375e-05)
(0.039413 0 8.92693e-05)
(0.0359372 0 0.000168637)
(0.0320181 0 0.00027277)
(0.0276744 0 0.000408181)
(0.0229581 0 0.000583624)
(0.0179982 0 0.000813012)
(0.0130363 0 0.00111162)
(0.00853929 0 0.00149169)
(0.00568061 0 0.00190855)
(0.00439211 0 -2.05235e-05)
(0.0126195 0 -5.9278e-05)
(0.0198104 0 -9.40736e-05)
(0.0260559 0 -0.000125674)
(0.0314492 0 -0.00015455)
(0.0360734 0 -0.000181238)
(0.0399948 0 -0.000206179)
(0.0432753 0 -0.000228881)
(0.0459722 0 -0.000249532)
(0.0481306 0 -0.000267921)
(0.0497885 0 -0.000283614)
(0.0509777 0 -0.000295969)
(0.0517238 0 -0.000304083)
(0.0520471 0 -0.000306376)
(0.051963 0 -0.000301166)
(0.0514831 0 -0.000286233)
(0.0506142 0 -0.000258754)
(0.0493568 0 -0.000214853)
(0.0477088 0 -0.000149616)
(0.045668 0 -5.70843e-05)
(0.0432302 0 7.04475e-05)
(0.0403933 0 0.000242527)
(0.0371629 0 0.000470838)
(0.0335582 0 0.000769578)
(0.0296197 0 0.0011562)
(0.0254171 0 0.00165331)
(0.0211068 0 0.00228617)
(0.0170031 0 0.00307785)
(0.0137052 0 0.00402075)
(0.0123427 0 0.00492125)
(0.00439546 0 -3.42353e-05)
(0.0126311 0 -9.88976e-05)
(0.0198322 0 -0.000156993)
(0.0260871 0 -0.000209821)
(0.031491 0 -0.000258073)
(0.0361313 0 -0.000302689)
(0.0400692 0 -0.000343988)
(0.0433681 0 -0.000381961)
(0.0460897 0 -0.000416674)
(0.0482784 0 -0.000447752)
(0.0499732 0 -0.000474508)
(0.0512072 0 -0.000495935)
(0.0520082 0 -0.000510795)
(0.0523979 0 -0.000516281)
(0.0523959 0 -0.000509919)
(0.0520161 0 -0.00048798)
(0.0512714 0 -0.000446668)
(0.0501682 0 -0.000379801)
(0.04871 0 -0.000279625)
(0.0469065 0 -0.000137373)
(0.0447651 0 5.86612e-05)
(0.0422987 0 0.00032265)
(0.0395324 0 0.00067153)
(0.0365153 0 0.00112479)
(0.033323 0 0.00170445)
(0.030077 0 0.00243342)
(0.0269662 0 0.0033282)
(0.0243171 0 0.00438924)
(0.0227446 0 0.00553167)
(0.0231342 0 0.00642839)
(0.00440049 0 -4.7955e-05)
(0.0126487 0 -0.000138556)
(0.0198658 0 -0.000220021)
(0.0261341 0 -0.000293829)
(0.0315524 0 -0.000361422)
(0.0362119 0 -0.000424009)
(0.0401744 0 -0.000481872)
(0.0435045 0 -0.000535376)
(0.0462629 0 -0.000584533)
(0.0484962 0 -0.000628866)
(0.050245 0 -0.000667486)
(0.0515448 0 -0.000699042)
(0.0524239 0 -0.000721557)
(0.0529096 0 -0.000732451)
(0.0530258 0 -0.000728296)
(0.052792 0 -0.000704608)
(0.0522266 0 -0.00065598)
(0.0513465 0 -0.000575169)
(0.0501656 0 -0.000452793)
(0.0487018 0 -0.000277428)
(0.0469817 0 -3.5696e-05)
(0.045037 0 0.000288757)
(0.0429139 0 0.000714887)
(0.0407008 0 0.00126197)
(0.038509 0 0.00194843)
(0.0364983 0 0.00278674)
(0.0348976 0 0.00377167)
(0.0340097 0 0.00486162)
(0.0342519 0 0.00590556)
(0.0361031 0 0.00654429)
(0.00440695 0 -6.16483e-05)
(0.0126719 0 -0.000178148)
(0.0199038 0 -0.000282671)
(0.0261886 0 -0.000377398)
(0.0316317 0 -0.000464363)
(0.0363194 0 -0.000545086)
(0.0403135 0 -0.00061966)
(0.043682 0 -0.000688963)
(0.0464881 0 -0.000753042)
(0.048779 0 -0.000811349)
(0.0505972 0 -0.000862881)
(0.0519802 0 -0.000906052)
(0.0529602 0 -0.000938382)
(0.0535695 0 -0.00095775)
(0.0538361 0 -0.000960047)
(0.053786 0 -0.000940321)
(0.0534453 0 -0.000892451)
(0.0528411 0 -0.000808643)
(0.0520035 0 -0.000679349)
(0.0509611 0 -0.000492039)
(0.0497594 0 -0.000233329)
(0.0484544 0 0.000112308)
(0.0471174 0 0.000562736)
(0.0458538 0 0.00113367)
(0.0448187 0 0.00183279)
(0.0441865 0 0.00265693)
(0.044178 0 0.00357542)
(0.0450284 0 0.00451127)
(0.046904 0 0.00529097)
(0.0497397 0 0.00561458)
(0.00441422 0 -7.52682e-05)
(0.0126928 0 -0.000217476)
(0.0199458 0 -0.00034505)
(0.0262567 0 -0.000460787)
(0.0317283 0 -0.000567144)
(0.0364464 0 -0.000665644)
(0.0404781 0 -0.00075696)
(0.0438965 0 -0.000842452)
(0.0467606 0 -0.00092199)
(0.0491208 0 -0.000995082)
(0.051022 0 -0.00106074)
(0.052505 0 -0.00111738)
(0.0536064 0 -0.00116275)
(0.0543621 0 -0.00119418)
(0.0548054 0 -0.00120776)
(0.0549695 0 -0.00119855)
(0.054889 0 -0.00116049)
(0.0546009 0 -0.00108601)
(0.0541477 0 -0.000966033)
(0.0535774 0 -0.000789584)
(0.052952 0 -0.000544688)
(0.0523488 0 -0.000218467)
(0.0518681 0 0.000201371)
(0.0516348 0 0.000723612)
(0.0518023 0 0.0013468)
(0.0525479 0 0.00205072)
(0.0540464 0 0.00278682)
(0.0564101 0 0.00346514)
(0.0595504 0 0.00392669)
(0.062884 0 0.00398299)
(0.00442268 0 -8.86672e-05)
(0.0127187 0 -0.000256215)
(0.0199913 0 -0.000406683)
(0.0263301 0 -0.000543224)
(0.0318344 0 -0.000668905)
(0.03659 0 -0.000785308)
(0.0406701 0 -0.000894099)
(0.0441453 0 -0.000996233)
(0.0470762 0 -0.00109187)
(0.0495157 0 -0.00118068)
(0.0515119 0 -0.00126182)
(0.0531085 0 -0.00133386)
(0.0543466 0 -0.00139476)
(0.0552659 0 -0.00144193)
(0.0559055 0 -0.00147179)
(0.0563053 0 -0.00147992)
(0.0565082 0 -0.00146098)
(0.0565609 0 -0.00140839)
(0.0565184 0 -0.00131486)
(0.0564437 0 -0.00117187)
(0.0564139 0 -0.000970666)
(0.0565214 0 -0.000702775)
(0.0568935 0 -0.000363187)
(0.0576595 0 4.90649e-05)
(0.0589576 0 0.000523213)
(0.0609449 0 0.0010292)
(0.0637306 0 0.00151135)
(0.0672906 0 0.00188804)
(0.0712093 0 0.00205515)
(0.074629 0 0.0019238)
(0.00443175 0 -0.000101791)
(0.0127482 0 -0.000294201)
(0.020045 0 -0.000467195)
(0.0264143 0 -0.000624515)
(0.0319548 0 -0.000769465)
(0.0367532 0 -0.000904235)
(0.0408861 0 -0.00103062)
(0.0444236 0 -0.00114975)
(0.0474281 0 -0.00126206)
(0.0499551 0 -0.00136745)
(0.0520552 0 -0.00146532)
(0.0537756 0 -0.00155454)
(0.055161 0 -0.00163345)
(0.0562556 0 -0.0016998)
(0.0571032 0 -0.00175069)
(0.0577499 0 -0.00178252)
(0.0582465 0 -0.00179139)
(0.058646 0 -0.00177209)
(0.0590165 0 -0.00172038)
(0.0594304 0 -0.00163084)
(0.059976 0 -0.00149927)
(0.0607603 0 -0.00132291)
(0.0619085 0 -0.00110308)
(0.0635355 0 -0.000845418)
(0.0657787 0 -0.000568577)
(0.068751 0 -0.000304557)
(0.0724944 0 -0.000104672)
(0.0768166 0 -2.33521e-05)
(0.0810598 0 -9.31158e-05)
(0.0842882 0 -0.000329831)
(0.00444117 0 -0.000114663)
(0.0127811 0 -0.000331604)
(0.0201061 0 -0.000526868)
(0.0265081 0 -0.000704701)
(0.0320875 0 -0.000868807)
(0.0369325 0 -0.00102185)
(0.0411215 0 -0.00116586)
(0.0447256 0 -0.0013022)
(0.0478088 0 -0.0014316)
(0.0504287 0 -0.00155427)
(0.0526387 0 -0.00166992)
(0.054489 0 -0.00177783)
(0.0560277 0 -0.00187684)
(0.0573026 0 -0.00196535)
(0.0583619 0 -0.0020413)
(0.0592557 0 -0.00210205)
(0.0600434 0 -0.0021461)
(0.0607846 0 -0.00217043)
(0.0615482 0 -0.00217269)
(0.0624133 0 -0.00215159)
(0.063473 0 -0.00210765)
(0.0648355 0 -0.00204442)
(0.0666042 0 -0.00196721)
(0.0688954 0 -0.00188961)
(0.0718161 0 -0.00183301)
(0.0754345 0 -0.00182539)
(0.0796931 0 -0.00189677)
(0.0842774 0 -0.00206388)
(0.0884987 0 -0.00230893)
(0.0913882 0 -0.00258403)
(0.00445555 0 -0.00012734)
(0.0128213 0 -0.000368277)
(0.0201732 0 -0.000585251)
(0.0266092 0 -0.000783171)
(0.0322293 0 -0.000966122)
(0.0371231 0 -0.00113718)
(0.0413705 0 -0.00129866)
(0.0450437 0 -0.00145222)
(0.0482083 0 -0.00159889)
(0.050924 0 -0.00173923)
(0.0532465 0 -0.00187336)
(0.0552285 0 -0.00200102)
(0.0569211 0 -0.00212168)
(0.0583752 0 -0.00223455)
(0.0596423 0 -0.00233865)
(0.0607791 0 -0.00243324)
(0.0618438 0 -0.00251761)
(0.0629002 0 -0.00259169)
(0.0640143 0 -0.00265524)
(0.0652661 0 -0.00271089)
(0.0667432 0 -0.00276337)
(0.0685391 0 -0.00282042)
(0.0707459 0 -0.00289324)
(0.0734529 0 -0.00299838)
(0.076727 0 -0.00315609)
(0.0805779 0 -0.00338586)
(0.0848753 0 -0.00369181)
(0.0892927 0 -0.00405764)
(0.0932012 0 -0.00442615)
(0.0956943 0 -0.00470283)
(0.00446996 0 -0.000139693)
(0.0128632 0 -0.000403987)
(0.0202442 0 -0.00064215)
(0.0267152 0 -0.000859671)
(0.0323772 0 -0.00106106)
(0.0373211 0 -0.00124978)
(0.041628 0 -0.00142847)
(0.0453715 0 -0.00159908)
(0.0486185 0 -0.00176299)
(0.0514304 0 -0.00192111)
(0.0538649 0 -0.00207398)
(0.0559766 0 -0.0022219)
(0.0578188 0 -0.00236497)
(0.0594448 0 -0.00250325)
(0.0609086 0 -0.00263698)
(0.0622686 0 -0.00276701)
(0.0635789 0 -0.00289324)
(0.0649032 0 -0.00301793)
(0.0663068 0 -0.00314405)
(0.0678613 0 -0.00327693)
(0.0696409 0 -0.00342442)
(0.0717186 0 -0.00359732)
(0.0741606 0 -0.00380968)
(0.077018 0 -0.00407832)
(0.0803091 0 -0.00441965)
(0.0839927 0 -0.00484271)
(0.087924 0 -0.00533681)
(0.0918131 0 -0.00585893)
(0.0951602 0 -0.00632051)
(0.0972345 0 -0.00659542)
(0.00448446 0 -0.00015163)
(0.012906 0 -0.000438532)
(0.020317 0 -0.00069721)
(0.0268233 0 -0.000933708)
(0.0325274 0 -0.00115297)
(0.0375213 0 -0.00135883)
(0.0418876 0 -0.00155425)
(0.0457007 0 -0.00174149)
(0.0490289 0 -0.00192227)
(0.0519348 0 -0.00209786)
(0.0544774 0 -0.00226922)
(0.0567127 0 -0.00243716)
(0.0586953 0 -0.00260242)
(0.060479 0 -0.00276583)
(0.0621184 0 -0.00292854)
(0.0636691 0 -0.00309221)
(0.0651857 0 -0.00325883)
(0.0667265 0 -0.00343197)
(0.0683502 0 -0.00361663)
(0.0701158 0 -0.00382001)
(0.0720796 0 -0.00405172)
(0.0742895 0 -0.00432386)
(0.0767784 0 -0.00465081)
(0.0795557 0 -0.00504773)
(0.082593 0 -0.00552671)
(0.0858101 0 -0.00608972)
(0.0890612 0 -0.00671726)
(0.0921271 0 -0.00735376)
(0.094692 0 -0.00789387)
(0.0963009 0 -0.00818716)
(0.00449858 0 -0.000163024)
(0.012948 0 -0.000471515)
(0.0203887 0 -0.000749782)
(0.0269295 0 -0.00100439)
(0.0326747 0 -0.00124071)
(0.0377175 0 -0.00146293)
(0.0421412 0 -0.00167432)
(0.0460215 0 -0.00187745)
(0.0494273 0 -0.00207434)
(0.0524223 0 -0.00226663)
(0.055066 0 -0.00245567)
(0.0574152 0 -0.00264272)
(0.0595247 0 -0.00282907)
(0.061448 0 -0.0030162)
(0.0632383 0 -0.003206)
(0.0649482 0 -0.00340093)
(0.0666294 0 -0.00360421)
(0.0683329 0 -0.00382037)
(0.0701079 0 -0.0040555)
(0.0719989 0 -0.00431752)
(0.0740418 0 -0.0046163)
(0.0762583 0 -0.00496339)
(0.0786486 0 -0.00537139)
(0.0811831 0 -0.00585215)
(0.0837932 0 -0.00641336)
(0.086368 0 -0.00705301)
(0.0887614 0 -0.00775069)
(0.0908191 0 -0.00845387)
(0.0924127 0 -0.00905819)
(0.0934392 0 -0.0093927)
(0.00451183 0 -0.000173812)
(0.0129877 0 -0.000502748)
(0.0204568 0 -0.000799565)
(0.0270306 0 -0.00107131)
(0.032815 0 -0.00132375)
(0.0379043 0 -0.0015614)
(0.0423828 0 -0.00178784)
(0.0463265 0 -0.00200592)
(0.049805 0 -0.00221795)
(0.0528823 0 -0.00242587)
(0.0556183 0 -0.00263137)
(0.0580696 0 -0.00283611)
(0.0602904 0 -0.00304179)
(0.062333 0 -0.00325039)
(0.064248 0 -0.00346432)
(0.0660843 0 -0.00368657)
(0.0678885 0 -0.00392096)
(0.0697037 0 -0.00417246)
(0.071568 0 -0.00444726)
(0.0735112 0 -0.00475295)
(0.0755505 0 -0.00509828)
(0.0776841 0 -0.00549264)
(0.0798852 0 -0.00594514)
(0.082095 0 -0.00646285)
(0.0842176 0 -0.00704835)
(0.0861214 0 -0.00769662)
(0.0876555 0 -0.00839112)
(0.0886929 0 -0.0090965)
(0.0892159 0 -0.00973649)
(0.0894576 0 -0.0101358)
(0.00452365 0 -0.000183939)
(0.0130234 0 -0.000532065)
(0.0205187 0 -0.000846299)
(0.0271232 0 -0.00113411)
(0.0329444 0 -0.00140164)
(0.0380772 0 -0.0016537)
(0.0426065 0 -0.00189415)
(0.0466089 0 -0.00212608)
(0.0501541 0 -0.00235206)
(0.053306 0 -0.00257428)
(0.0561241 0 -0.00279472)
(0.0586645 0 -0.0030153)
(0.0609799 0 -0.00323805)
(0.0631207 0 -0.00346523)
(0.0651343 0 -0.00369952)
(0.0670653 0 -0.00394414)
(0.068954 0 -0.00420301)
(0.0708355 0 -0.00448089)
(0.0727376 0 -0.00478338)
(0.0746768 0 -0.00511679)
(0.076655 0 -0.00548776)
(0.0786534 0 -0.00590241)
(0.0806284 0 -0.00636526)
(0.0825063 0 -0.00687748)
(0.0841821 0 -0.00743505)
(0.0855241 0 -0.00802725)
(0.0863876 0 -0.00863709)
(0.0866502 0 -0.00924649)
(0.0862852 0 -0.00983994)
(0.0856383 0 -0.0103348)
(0.00697542 0 -0.00236271)
(0.0123158 0 -0.00229845)
(0.0200007 0 -0.00207107)
(0.0282537 0 -0.00181817)
(0.035934 0 -0.00155979)
(0.0426006 0 -0.00131616)
(0.0481819 0 -0.00110821)
(0.0527599 0 -0.000936994)
(0.0564259 0 -0.000793705)
(0.0592983 0 -0.000674949)
(0.0614825 0 -0.000576617)
(0.0630574 0 -0.000493968)
(0.0640905 0 -0.000427062)
(0.0646338 0 -0.000371798)
(0.0647193 0 -0.00032565)
(0.0643661 0 -0.000286703)
(0.0635831 0 -0.000253462)
(0.0623698 0 -0.000224752)
(0.0607175 0 -0.000199638)
(0.0586104 0 -0.000177368)
(0.056026 0 -0.000157325)
(0.0529355 0 -0.000138991)
(0.0493043 0 -0.000121927)
(0.0450922 0 -0.000105797)
(0.0402534 0 -9.02399e-05)
(0.034733 0 -7.48295e-05)
(0.0284744 0 -5.945e-05)
(0.0214247 0 -4.37361e-05)
(0.0135191 0 -2.71728e-05)
(0.00467457 0 -9.32142e-06)
(0.0126324 0 -0.00668742)
(0.0176054 0 -0.00649707)
(0.0245559 0 -0.00589964)
(0.0319412 0 -0.00518446)
(0.0387988 0 -0.00446465)
(0.0447996 0 -0.00379208)
(0.0498727 0 -0.0032069)
(0.0540514 0 -0.00271653)
(0.0574056 0 -0.00230703)
(0.0600429 0 -0.00196716)
(0.0620486 0 -0.00168556)
(0.0634904 0 -0.00145053)
(0.0644245 0 -0.00125737)
(0.0648919 0 -0.00109696)
(0.0649192 0 -0.000962503)
(0.0645214 0 -0.000848667)
(0.063704 0 -0.00075124)
(0.062464 0 -0.000666885)
(0.0607909 0 -0.000592931)
(0.0586676 0 -0.000527221)
(0.0560707 0 -0.000467976)
(0.0529705 0 -0.000413694)
(0.0493315 0 -0.000363081)
(0.0451135 0 -0.000315194)
(0.0402714 0 -0.000268981)
(0.0347472 0 -0.000223057)
(0.0284833 0 -0.000177266)
(0.0214311 0 -0.000130476)
(0.0135249 0 -8.10776e-05)
(0.00467719 0 -2.7815e-05)
(0.0223565 0 -0.0100453)
(0.0268474 0 -0.00977371)
(0.0325662 0 -0.00894786)
(0.0384739 0 -0.00791378)
(0.043976 0 -0.00686384)
(0.0488376 0 -0.00588273)
(0.0529922 0 -0.00501338)
(0.0564417 0 -0.00426947)
(0.0592343 0 -0.00364552)
(0.0614437 0 -0.00312503)
(0.063123 0 -0.00269157)
(0.0643177 0 -0.00233004)
(0.0650639 0 -0.00202881)
(0.0653876 0 -0.00177655)
(0.0653046 0 -0.0015637)
(0.0648218 0 -0.00138248)
(0.0639386 0 -0.00122659)
(0.0626474 0 -0.001091)
(0.0609344 0 -0.000971648)
(0.0587799 0 -0.000865217)
(0.0561586 0 -0.00076895)
(0.0530395 0 -0.000680488)
(0.0493853 0 -0.000597713)
(0.0451553 0 -0.000519295)
(0.0403075 0 -0.000443587)
(0.0347762 0 -0.000368515)
(0.0284997 0 -0.000293)
(0.0214429 0 -0.00021547)
(0.0135367 0 -0.000133917)
(0.00468241 0 -4.59435e-05)
(0.0346311 0 -0.0124323)
(0.0384308 0 -0.0120554)
(0.0426254 0 -0.0110825)
(0.0468115 0 -0.00988008)
(0.0506908 0 -0.00864864)
(0.0541475 0 -0.00748668)
(0.05714 0 -0.00644283)
(0.0596525 0 -0.0055338)
(0.0617172 0 -0.00476245)
(0.0633652 0 -0.00411373)
(0.0646094 0 -0.003568)
(0.0654698 0 -0.00310898)
(0.0659593 0 -0.00272249)
(0.0660852 0 -0.00239569)
(0.0658493 0 -0.00211758)
(0.065248 0 -0.00187895)
(0.0642724 0 -0.00167223)
(0.0629089 0 -0.0014913)
(0.0611392 0 -0.00133115)
(0.0589401 0 -0.00118763)
(0.056284 0 -0.00105724)
(0.0531381 0 -0.000936965)
(0.0494617 0 -0.00082378)
(0.0452131 0 -0.000716437)
(0.0403515 0 -0.000612632)
(0.0348108 0 -0.000510122)
(0.0285299 0 -0.000405977)
(0.0214675 0 -0.000298565)
(0.0135548 0 -0.000185576)
(0.00469078 0 -6.3742e-05)
(0.048036 0 -0.013892)
(0.0509194 0 -0.013393)
(0.0535024 0 -0.0123441)
(0.0559225 0 -0.0110832)
(0.0581286 0 -0.00979638)
(0.0601137 0 -0.00857417)
(0.0618677 0 -0.00746413)
(0.0633726 0 -0.0064833)
(0.064635 0 -0.00563567)
(0.0656436 0 -0.00491192)
(0.0663888 0 -0.00429676)
(0.0668615 0 -0.00377292)
(0.0670494 0 -0.00332648)
(0.0669405 0 -0.00294465)
(0.0665213 0 -0.00261624)
(0.0657765 0 -0.0023317)
(0.064688 0 -0.00208297)
(0.0632354 0 -0.00186356)
(0.0613954 0 -0.001668)
(0.0591407 0 -0.00149164)
(0.0564407 0 -0.00133055)
(0.0532621 0 -0.00118135)
(0.0495579 0 -0.00104068)
(0.0452838 0 -0.000906197)
(0.0404007 0 -0.000775633)
(0.0348482 0 -0.000646477)
(0.028563 0 -0.000514911)
(0.0214946 0 -0.000379107)
(0.0135683 0 -0.000235818)
(0.00469178 0 -8.09899e-05)
(0.0613472 0 -0.0144596)
(0.0631441 0 -0.013857)
(0.0641985 0 -0.0128049)
(0.0649375 0 -0.0115825)
(0.0655755 0 -0.0103474)
(0.0661753 0 -0.00916863)
(0.0667497 0 -0.00808602)
(0.0672823 0 -0.00711613)
(0.0677484 0 -0.00626233)
(0.0681105 0 -0.00551807)
(0.0683426 0 -0.00487467)
(0.0684081 0 -0.00431869)
(0.0682737 0 -0.00383784)
(0.0679098 0 -0.00342081)
(0.0672889 0 -0.00305747)
(0.066384 0 -0.00273891)
(0.0651681 0 -0.00245733)
(0.063614 0 -0.00220662)
(0.0616931 0 -0.00198127)
(0.0593738 0 -0.00177653)
(0.0566222 0 -0.00158828)
(0.0534013 0 -0.00141293)
(0.049664 0 -0.00124698)
(0.0453644 0 -0.00108746)
(0.0404592 0 -0.000931775)
(0.0348939 0 -0.000777096)
(0.0285988 0 -0.000619721)
(0.0215138 0 -0.000456522)
(0.0135761 0 -0.000284139)
(0.00469444 0 -9.75946e-05)
(0.0735156 0 -0.0141554)
(0.0741693 0 -0.0135187)
(0.0738742 0 -0.012555)
(0.0731792 0 -0.0114719)
(0.0724673 0 -0.0103788)
(0.0718766 0 -0.00932841)
(0.071422 0 -0.00834974)
(0.0710866 0 -0.00745628)
(0.0708301 0 -0.00665268)
(0.0706004 0 -0.00593715)
(0.0703468 0 -0.0053046)
(0.0700174 0 -0.00474704)
(0.0695636 0 -0.00425588)
(0.0689422 0 -0.00382265)
(0.068114 0 -0.00343935)
(0.0670426 0 -0.0030986)
(0.0656915 0 -0.00279322)
(0.0640287 0 -0.00251851)
(0.0620202 0 -0.00226922)
(0.0596303 0 -0.00204074)
(0.0568219 0 -0.00182907)
(0.0535563 0 -0.00163068)
(0.0497823 0 -0.0014419)
(0.0454517 0 -0.00125931)
(0.0405224 0 -0.00108028)
(0.0349363 0 -0.000901613)
(0.0286283 0 -0.000719779)
(0.0215343 0 -0.000530637)
(0.0135867 0 -0.000330311)
(0.00469801 0 -0.000113468)
(0.0836798 0 -0.013053)
(0.0832917 0 -0.012492)
(0.0818951 0 -0.0117168)
(0.0801428 0 -0.0108616)
(0.078412 0 -0.00998817)
(0.0768862 0 -0.00913268)
(0.0756126 0 -0.0083161)
(0.0745693 0 -0.00754886)
(0.0737085 0 -0.00683838)
(0.0729688 0 -0.00618776)
(0.072287 0 -0.00559697)
(0.0716005 0 -0.00506331)
(0.0708508 0 -0.00458268)
(0.0699854 0 -0.00415018)
(0.0689568 0 -0.00376066)
(0.067722 0 -0.00340906)
(0.0662374 0 -0.00308974)
(0.0644632 0 -0.00279819)
(0.0623642 0 -0.00253071)
(0.0599005 0 -0.00228315)
(0.0570316 0 -0.00205181)
(0.0537149 0 -0.00183329)
(0.0499018 0 -0.00162441)
(0.0455423 0 -0.0014211)
(0.0405881 0 -0.00122062)
(0.0349816 0 -0.00101966)
(0.0286593 0 -0.000814492)
(0.0215549 0 -0.000600837)
(0.0135982 0 -0.000374131)
(0.00470182 0 -0.000128544)
(0.0912137 0 -0.0113274)
(0.0900514 0 -0.0109538)
(0.0879121 0 -0.0104548)
(0.085485 0 -0.00989159)
(0.0831185 0 -0.00929217)
(0.0809799 0 -0.00867617)
(0.0791391 0 -0.00805725)
(0.077583 0 -0.00744807)
(0.0762647 0 -0.0068593)
(0.0751218 0 -0.00629896)
(0.0740882 0 -0.00577229)
(0.073098 0 -0.00528186)
(0.0720886 0 -0.00482818)
(0.0710028 0 -0.00441023)
(0.0697883 0 -0.00402594)
(0.068397 0 -0.00367266)
(0.0667834 0 -0.00334736)
(0.0649022 0 -0.00304594)
(0.0627134 0 -0.0027657)
(0.0601753 0 -0.00250348)
(0.0572448 0 -0.00225611)
(0.053877 0 -0.00202049)
(0.0500232 0 -0.0017935)
(0.0456325 0 -0.00157162)
(0.0406528 0 -0.00135171)
(0.0350262 0 -0.00113033)
(0.0286891 0 -0.000903569)
(0.0215741 0 -0.000666962)
(0.0136088 0 -0.00041547)
(0.00470535 0 -0.000142776)
(0.0957793 0 -0.00926033)
(0.0942328 0 -0.0091423)
(0.0917778 0 -0.00896635)
(0.0890727 0 -0.00872535)
(0.0864348 0 -0.00841952)
(0.0840176 0 -0.00805688)
(0.0818813 0 -0.00764959)
(0.080024 0 -0.00721208)
(0.0784092 0 -0.00675877)
(0.0769835 0 -0.0063024)
(0.0756869 0 -0.0058532)
(0.0744572 0 -0.00541857)
(0.0732337 0 -0.00500333)
(0.0719592 0 -0.00461018)
(0.0705805 0 -0.00424012)
(0.0690474 0 -0.00389294)
(0.0673125 0 -0.00356747)
(0.0653294 0 -0.00326167)
(0.0630546 0 -0.00297358)
(0.0604442 0 -0.00270089)
(0.0574534 0 -0.00244106)
(0.0540355 0 -0.0021914)
(0.0501411 0 -0.00194905)
(0.0457186 0 -0.0017108)
(0.0407135 0 -0.00147347)
(0.0350672 0 -0.0012335)
(0.0287156 0 -0.000986865)
(0.0215904 0 -0.00072891)
(0.0136176 0 -0.00045425)
(0.00470816 0 -0.000156135)
(0.0973882 0 -0.0071908)
(0.0958766 0 -0.00732387)
(0.093544 0 -0.00745829)
(0.0909619 0 -0.00752401)
(0.088402 0 -0.00749637)
(0.0859995 0 -0.00737456)
(0.0838125 0 -0.00716989)
(0.0818512 0 -0.00689911)
(0.0800953 0 -0.00658022)
(0.0785068 0 -0.00622998)
(0.0770384 0 -0.00586272)
(0.0756378 0 -0.00548975)
(0.0742508 0 -0.00511947)
(0.0728247 0 -0.00475776)
(0.0713083 0 -0.00440833)
(0.0696524 0 -0.00407321)
(0.0678094 0 -0.0037531)
(0.065733 0 -0.00344762)
(0.0633781 0 -0.00315586)
(0.0606994 0 -0.00287637)
(0.0576508 0 -0.00260729)
(0.0541847 0 -0.00234641)
(0.050251 0 -0.0020912)
(0.045797 0 -0.00183875)
(0.0407673 0 -0.00158592)
(0.035102 0 -0.00132915)
(0.0287369 0 -0.00106432)
(0.0216023 0 -0.000786628)
(0.0136234 0 -0.000490429)
(0.0047099 0 -0.000168604)
(0.0963909 0 -0.00542347)
(0.0952717 0 -0.00574265)
(0.093453 0 -0.00612153)
(0.0913507 0 -0.0064357)
(0.0891713 0 -0.00663718)
(0.0870323 0 -0.00671715)
(0.0849988 0 -0.00668577)
(0.0830991 0 -0.00656115)
(0.0813351 0 -0.00636351)
(0.0796894 0 -0.0061121)
(0.0781322 0 -0.00582384)
(0.0766248 0 -0.00551263)
(0.0751235 0 -0.00518941)
(0.0735829 0 -0.0048624)
(0.0719565 0 -0.00453745)
(0.0701983 0 -0.00421845)
(0.0682623 0 -0.00390772)
(0.066103 0 -0.00360628)
(0.0636754 0 -0.00331428)
(0.0609336 0 -0.00303112)
(0.0578311 0 -0.00275561)
(0.0543196 0 -0.00248604)
(0.0503485 0 -0.00222025)
(0.0458645 0 -0.00195563)
(0.0408113 0 -0.00168916)
(0.0351285 0 -0.0014173)
(0.0287511 0 -0.00113592)
(0.0216087 0 -0.000840095)
(0.0136256 0 -0.000523984)
(0.0047103 0 -0.000180174)
(0.0934184 0 -0.00417205)
(0.0929464 0 -0.00458371)
(0.0919404 0 -0.00510863)
(0.0905811 0 -0.00558102)
(0.0889967 0 -0.00593514)
(0.0872954 0 -0.00615623)
(0.0855591 0 -0.00625248)
(0.0838417 0 -0.00624117)
(0.0821705 0 -0.00614218)
(0.0805514 0 -0.0059749)
(0.0789742 0 -0.00575683)
(0.0774158 0 -0.00550283)
(0.0758446 0 -0.00522505)
(0.0742243 0 -0.00493307)
(0.072515 0 -0.00463417)
(0.070675 0 -0.0043336)
(0.0686615 0 -0.00403491)
(0.066431 0 -0.00374025)
(0.0639391 0 -0.00345071)
(0.0611406 0 -0.00316646)
(0.0579889 0 -0.00288692)
(0.0544356 0 -0.00261088)
(0.0504298 0 -0.00233657)
(0.0459179 0 -0.00206166)
(0.0408431 0 -0.00178329)
(0.0351445 0 -0.00149801)
(0.0287566 0 -0.00120168)
(0.0216084 0 -0.000889305)
(0.0136234 0 -0.000554906)
(0.00470914 0 -0.000190842)
(0.0893642 0 -0.00352291)
(0.0896923 0 -0.00395367)
(0.0896449 0 -0.00451907)
(0.0891293 0 -0.00503971)
(0.0882163 0 -0.00545163)
(0.0870211 0 -0.0057396)
(0.0856492 0 -0.00590815)
(0.0841796 0 -0.0059701)
(0.0826639 0 -0.0059415)
(0.081129 0 -0.00583895)
(0.0795831 0 -0.00567829)
(0.078018 0 -0.00547356)
(0.0764142 0 -0.00523677)
(0.0747449 0 -0.00497785)
(0.0729774 0 -0.00470469)
(0.0710755 0 -0.00442332)
(0.069 0 -0.00413812)
(0.0667101 0 -0.00385207)
(0.0641632 0 -0.00356698)
(0.061315 0 -0.00328367)
(0.0581195 0 -0.00300211)
(0.0545286 0 -0.00272155)
(0.0504914 0 -0.00244056)
(0.0459544 0 -0.00215709)
(0.0408603 0 -0.00186847)
(0.0351482 0 -0.00157135)
(0.028752 0 -0.00126162)
(0.0216004 0 -0.000934262)
(0.0136162 0 -0.000583192)
(0.00470624 0 -0.000200604)
(0.0855069 0 -0.00348197)
(0.0866335 0 -0.00391005)
(0.08738 0 -0.00439565)
(0.0875479 0 -0.0048369)
(0.0872004 0 -0.00520494)
(0.0864582 0 -0.00548432)
(0.0854356 0 -0.00566989)
(0.0842236 0 -0.00576472)
(0.0828872 0 -0.00577718)
(0.0814672 0 -0.00571838)
(0.0799856 0 -0.00560052)
(0.0784455 0 -0.0054352)
(0.0768382 0 -0.00523312)
(0.0751453 0 -0.0050036)
(0.0733414 0 -0.00475442)
(0.0713954 0 -0.00449182)
(0.0692727 0 -0.00422056)
(0.0669352 0 -0.00394414)
(0.0643426 0 -0.00366486)
(0.0614521 0 -0.00338404)
(0.0582187 0 -0.00310209)
(0.0545948 0 -0.00281865)
(0.0505301 0 -0.00253261)
(0.0459712 0 -0.00224217)
(0.0408608 0 -0.00194484)
(0.0351377 0 -0.0016374)
(0.028736 0 -0.00131578)
(0.0215839 0 -0.000974973)
(0.0136036 0 -0.00060884)
(0.00470144 0 -0.000209461)
(0.00453381 0 -0.000193585)
(0.0130546 0 -0.000559981)
(0.0205732 0 -0.000890705)
(0.0272062 0 -0.00119378)
(0.0330616 0 -0.0014756)
(0.0382351 0 -0.00174127)
(0.042812 0 -0.00199487)
(0.0468688 0 -0.00223974)
(0.0504752 0 -0.00247864)
(0.0536946 0 -0.00271398)
(0.0565858 0 -0.00294794)
(0.0592037 0 -0.00318262)
(0.0615991 0 -0.00342022)
(0.0638197 0 -0.00366314)
(0.0659094 0 -0.00391409)
(0.0679079 0 -0.00417621)
(0.0698493 0 -0.0044531)
(0.0717613 0 -0.00474884)
(0.0736619 0 -0.00506788)
(0.0755576 0 -0.00541467)
(0.0774392 0 -0.00579312)
(0.0792784 0 -0.00620562)
(0.0810246 0 -0.00665178)
(0.0826035 0 -0.00712637)
(0.0839203 0 -0.00761756)
(0.0848674 0 -0.00810414)
(0.0853378 0 -0.00855012)
(0.0852594 0 -0.00889739)
(0.0846297 0 -0.00904506)
(0.0836043 0 -0.00882796)
(0.0045418 0 -0.00020278)
(0.0130799 0 -0.000586626)
(0.020619 0 -0.000933101)
(0.0272771 0 -0.0012506)
(0.0331641 0 -0.001546)
(0.0383752 0 -0.00182453)
(0.042996 0 -0.00209049)
(0.0471029 0 -0.00234742)
(0.0507651 0 -0.00259826)
(0.0540452 0 -0.00284554)
(0.0570008 0 -0.00309157)
(0.059685 0 -0.00333857)
(0.0621466 0 -0.00358877)
(0.0644303 0 -0.00384453)
(0.066576 0 -0.0041084)
(0.0686186 0 -0.00438317)
(0.0705865 0 -0.00467183)
(0.0725003 0 -0.00497748)
(0.074371 0 -0.00530305)
(0.0761975 0 -0.00565088)
(0.0779643 0 -0.00602203)
(0.0796406 0 -0.00641542)
(0.0811776 0 -0.00682655)
(0.0825096 0 -0.00724482)
(0.0835634 0 -0.00765306)
(0.0842689 0 -0.00802589)
(0.0845709 0 -0.00832383)
(0.0844607 0 -0.00849221)
(0.0840074 0 -0.00846397)
(0.0833468 0 -0.0081464)
(0.00454696 0 -0.000211372)
(0.0130973 0 -0.000611533)
(0.020653 0 -0.000972822)
(0.0273328 0 -0.00130383)
(0.0332469 0 -0.00161173)
(0.0384917 0 -0.00190219)
(0.0431517 0 -0.00217953)
(0.0473034 0 -0.00244742)
(0.051015 0 -0.00270897)
(0.0543479 0 -0.00296678)
(0.0573582 0 -0.0032232)
(0.0600972 0 -0.00348047)
(0.0626112 0 -0.00374074)
(0.0649418 0 -0.00400621)
(0.0671251 0 -0.00427911)
(0.0691914 0 -0.0045617)
(0.0711642 0 -0.00485618)
(0.0730589 0 -0.0051645)
(0.0748811 0 -0.00548805)
(0.0766255 0 -0.00582715)
(0.0782739 0 -0.00618027)
(0.0798003 0 -0.00654432)
(0.0811619 0 -0.00691142)
(0.0823056 0 -0.00726791)
(0.0831831 0 -0.00759555)
(0.083756 0 -0.00786929)
(0.0840108 0 -0.00805721)
(0.0839718 0 -0.00812097)
(0.0837112 0 -0.00801677)
(0.0833418 0 -0.00768143)
(0.00454873 0 -0.00021928)
(0.0131052 0 -0.000634481)
(0.0206726 0 -0.00100943)
(0.0273699 0 -0.00135299)
(0.0333068 0 -0.0016724)
(0.0385798 0 -0.00197355)
(0.0432739 0 -0.00226116)
(0.0474645 0 -0.00253882)
(0.0512186 0 -0.00280974)
(0.0545962 0 -0.00307655)
(0.0576517 0 -0.00334158)
(0.0604341 0 -0.00360697)
(0.0629875 0 -0.00387475)
(0.0653503 0 -0.00414682)
(0.0675553 0 -0.004425)
(0.0696288 0 -0.00471094)
(0.0715905 0 -0.00500598)
(0.0734517 0 -0.00531095)
(0.0752153 0 -0.00562585)
(0.0768747 0 -0.00594943)
(0.0784143 0 -0.00627865)
(0.0798093 0 -0.00660796)
(0.0810265 0 -0.00692766)
(0.0820315 0 -0.00722471)
(0.082796 0 -0.0074823)
(0.083305 0 -0.00767974)
(0.0835647 0 -0.00779332)
(0.0836092 0 -0.00779752)
(0.0835023 0 -0.00766557)
(0.0833354 0 -0.00736888)
(0.00454659 0 -0.000226425)
(0.0131023 0 -0.000655242)
(0.0206755 0 -0.00104258)
(0.027385 0 -0.00139749)
(0.0333402 0 -0.00172739)
(0.0386363 0 -0.00203814)
(0.0433576 0 -0.00233458)
(0.0475807 0 -0.00262072)
(0.0513706 0 -0.00289961)
(0.0547847 0 -0.00317382)
(0.0578758 0 -0.00344559)
(0.060691 0 -0.00371695)
(0.063272 0 -0.0039897)
(0.0656543 0 -0.00426543)
(0.0678678 0 -0.00454547)
(0.0699357 0 -0.00483083)
(0.0718747 0 -0.00512206)
(0.0736939 0 -0.005419)
(0.0753949 0 -0.00572051)
(0.076972 0 -0.0060242)
(0.0784133 0 -0.00632606)
(0.0796975 0 -0.00661905)
(0.0808018 0 -0.00689366)
(0.0817076 0 -0.00713859)
(0.0824013 0 -0.00733974)
(0.0828814 0 -0.00748133)
(0.0831633 0 -0.00754697)
(0.0832809 0 -0.00752099)
(0.0832865 0 -0.00739022)
(0.0832471 0 -0.00714846)
(0.00454007 0 -0.000232728)
(0.0130871 0 -0.00067359)
(0.0206595 0 -0.00107192)
(0.0273753 0 -0.00143689)
(0.0333432 0 -0.00177602)
(0.0386573 0 -0.00209527)
(0.043399 0 -0.00239929)
(0.0476474 0 -0.00269247)
(0.0514667 0 -0.00297793)
(0.0549092 0 -0.00325792)
(0.0580269 0 -0.00353458)
(0.0608651 0 -0.0038098)
(0.0634631 0 -0.00408512)
(0.0658542 0 -0.00436176)
(0.0680655 0 -0.00464062)
(0.0701183 0 -0.0049221)
(0.0720271 0 -0.00520604)
(0.0738001 0 -0.00549153)
(0.0754389 0 -0.00577661)
(0.0769394 0 -0.00605809)
(0.0782926 0 -0.00633125)
(0.0794855 0 -0.00658943)
(0.0805045 0 -0.00682422)
(0.0813401 0 -0.00702586)
(0.081989 0 -0.00718346)
(0.0824576 0 -0.00728578)
(0.0827642 0 -0.00732234)
(0.0829388 0 -0.00728471)
(0.0830219 0 -0.00716868)
(0.0830601 0 -0.00697808)
(0.00452872 0 -0.000238131)
(0.0130583 0 -0.000689353)
(0.0206225 0 -0.00109717)
(0.0273383 0 -0.00147082)
(0.0333129 0 -0.00181788)
(0.0386394 0 -0.00214435)
(0.0433992 0 -0.00245502)
(0.0476664 0 -0.00275393)
(0.0515041 0 -0.00304412)
(0.0549659 0 -0.003328)
(0.0581017 0 -0.00360775)
(0.0609538 0 -0.00388477)
(0.0635596 0 -0.00416042)
(0.0659502 0 -0.00443553)
(0.0681511 0 -0.00471057)
(0.0701817 0 -0.00498547)
(0.0720557 0 -0.00525951)
(0.0737809 0 -0.00553122)
(0.0753602 0 -0.00579819)
(0.0767918 0 -0.00605691)
(0.0780706 0 -0.00630266)
(0.0791901 0 -0.00652946)
(0.0801438 0 -0.0067302)
(0.0809291 0 -0.0068971)
(0.081549 0 -0.00702214)
(0.0820136 0 -0.00709782)
(0.0823411 0 -0.00711804)
(0.0825569 0 -0.00707929)
(0.0826914 0 -0.00698217)
(0.0827764 0 -0.00683353)
(0.00451225 0 -0.000242564)
(0.013015 0 -0.000702329)
(0.0205632 0 -0.00111802)
(0.0272717 0 -0.00149887)
(0.0332465 0 -0.00185244)
(0.038579 0 -0.00218473)
(0.0433494 0 -0.00250052)
(0.0476289 0 -0.00280368)
(0.051479 0 -0.00309721)
(0.0549526 0 -0.00338334)