/*--------------------------------*- C++ -*----------------------------------*\
| =========                 |                                                 |
| \\      /  F ield         | OpenFOAM: The Open Source CFD Toolbox           |
|  \\    /   O peration     | Version:  dev                                   |
|   \\  /    A nd           | Web:      www.OpenFOAM.org                      |
|    \\/     M anipulation  |                                                 |
\*---------------------------------------------------------------------------*/
FoamFile
{
    version     2.0;
    format      ascii;
    class       pointVectorField;
    location    "0.52";
    object      pointDisplacement;
}
// * * * * * * * * * * * * * * * * * * * * * * * * * * * * * * * * * * * * * //

dimensions      [0 1 0 0 0 0 0];

internalField   nonuniform List<vector> 
5828
(
(0 0 0)
(0.00856111 0 0)
(0.0162865 0 0)
(0.0229799 0 0)
(0.0287253 0 0)
(0.0336027 0 0)
(0.0376837 0 0)
(0.0410322 0 0)
(0.0437047 0 0)
(0.0457511 0 0)
(0.0472146 0 0)
(0.048133 0 0)
(0.0485391 0 0)
(0.0484618 0 0)
(0.0479256 0 0)
(0.0469523 0 0)
(0.0455613 0 0)
(0.0437706 0 0)
(0.0415979 0 0)
(0.0390618 0 0)
(0.0361832 0 0)
(0.0329876 0 0)
(0.0295069 0 0)
(0.0257837 0 0)
(0.021875 0 0)
(0.0178597 0 0)
(0.0138495 0 0)
(0.0100062 0 0)
(0.00658142 0 0)
(0.00405437 0 0)
(0 0 0)
(0 0 0)
(0.00856499 0 -3.85275e-06)
(0.0162948 0 -7.16678e-06)
(0.0229928 0 -9.716e-06)
(0.0287434 0 -1.14119e-05)
(0.0336264 0 -1.21566e-05)
(0.0377137 0 -1.18295e-05)
(0.0410695 0 -1.02793e-05)
(0.0437505 0 -7.31593e-06)
(0.0458066 0 -2.70397e-06)
(0.0472814 0 3.84616e-06)
(0.048213 0 1.26905e-05)
(0.0486345 0 2.42662e-05)
(0.0485751 0 3.91026e-05)
(0.0480598 0 5.78268e-05)
(0.0471109 0 8.12033e-05)
(0.0457483 0 0.000110168)
(0.0439907 0 0.000145843)
(0.0418565 0 0.000189587)
(0.0393652 0 0.000243045)
(0.0365389 0 0.000308223)
(0.0334041 0 0.000387578)
(0.0299947 0 0.000484126)
(0.026355 0 0.000601576)
(0.0225446 0 0.000744455)
(0.0186464 0 0.000918114)
(0.0147789 0 0.00112827)
(0.0111144 0 0.00137872)
(0.00791521 0 0.00166495)
(0.00565279 0 0.00195258)
(0.00257748 0 0.00248567)
(0 0 0)
(0.00857787 0 -7.75904e-06)
(0.0163208 0 -1.44425e-05)
(0.0230325 0 -1.96024e-05)
(0.0287979 0 -2.30666e-05)
(0.0336975 0 -2.46444e-05)
(0.0378037 0 -2.41005e-05)
(0.0411811 0 -2.11388e-05)
(0.043887 0 -1.5388e-05)
(0.0459722 0 -6.38789e-06)
(0.0474809 0 6.42582e-06)
(0.0484518 0 2.37458e-05)
(0.048919 0 4.64235e-05)
(0.0489128 0 7.54928e-05)
(0.0484598 0 0.000112158)
(0.0475833 0 0.000157891)
(0.0463051 0 0.000214494)
(0.0446457 0 0.00028411)
(0.0426259 0 0.000369309)
(0.0402676 0 0.000473178)
(0.037596 0 0.000599431)
(0.0346415 0 0.000752532)
(0.0314422 0 0.00093783)
(0.0280479 0 0.00116167)
(0.0245249 0 0.00143141)
(0.0209635 0 0.00175508)
(0.017498 0 0.0021403)
(0.0143224 0 0.00258837)
(0.0117088 0 0.00308126)
(0.0100837 0 0.00354714)
(0.0078482 0 0.00428104)
(0 0 0)
(0.00859922 0 -1.17693e-05)
(0.0163638 0 -2.193e-05)
(0.0230981 0 -2.98201e-05)
(0.0288881 0 -3.51939e-05)
(0.0338151 0 -3.77779e-05)
(0.0379523 0 -3.7234e-05)
(0.0413652 0 -3.31351e-05)
(0.0441124 0 -2.49449e-05)
(0.0462454 0 -1.19999e-05)
(0.0478099 0 6.50885e-06)
(0.0488457 0 3.1571e-05)
(0.0493878 0 6.44056e-05)
(0.0494684 0 0.000106466)
(0.0491167 0 0.000159448)
(0.0483585 0 0.000225444)
(0.0472181 0 0.000306977)
(0.0457189 0 0.000406996)
(0.043885 0 0.000529003)
(0.0417426 0 0.000677135)
(0.0393215 0 0.000856254)
(0.0366576 0 0.00107202)
(0.0337959 0 0.00133094)
(0.030794 0 0.00164022)
(0.0277276 0 0.00200737)
(0.0246941 0 0.00243962)
(0.0218334 0 0.00294103)
(0.0193549 0 0.0035034)
(0.0175218 0 0.00409014)
(0.0166652 0 0.00460232)
(0.0153683 0 0.00532951)
(0 0 0)
(0.00862895 0 -1.59292e-05)
(0.0164235 0 -2.97223e-05)
(0.0231892 0 -4.05152e-05)
(0.0290132 0 -4.80035e-05)
(0.0339779 0 -5.18464e-05)
(0.0381579 0 -5.16193e-05)
(0.0416199 0 -4.67848e-05)
(0.0444237 0 -3.66664e-05)
(0.0466226 0 -2.04271e-05)
(0.0482639 0 2.94253e-06)
(0.0493881 0 3.46636e-05)
(0.0500319 0 7.62268e-05)
(0.0502304 0 0.000129407)
(0.0500162 0 0.000196314)
(0.0494186 0 0.000279503)
(0.0484649 0 0.000381972)
(0.0471823 0 0.0005072)
(0.0455991 0 0.000659237)
(0.0437464 0 0.000842747)
(0.0416599 0 0.00106302)
(0.039382 0 0.00132593)
(0.0369649 0 0.00163774)
(0.034475 0 0.00200467)
(0.0319966 0 0.00243196)
(0.0296351 0 0.00292255)
(0.0275208 0 0.00347281)
(0.025852 0 0.00406265)
(0.024861 0 0.00464024)
(0.02476 0 0.00509917)
(0.0243075 0 0.00569983)
(0 0 0)
(0.00866679 0 -2.02786e-05)
(0.0164995 0 -3.79007e-05)
(0.0233048 0 -5.18162e-05)
(0.0291716 0 -6.16808e-05)
(0.034184 0 -6.71057e-05)
(0.0384179 0 -6.76027e-05)
(0.0419416 0 -6.25498e-05)
(0.0448165 0 -5.1162e-05)
(0.047098 0 -3.24639e-05)
(0.0488346 0 -5.30885e-06)
(0.0500677 0 3.16675e-05)
(0.0508379 0 8.01442e-05)
(0.0511842 0 0.000142136)
(0.0511418 0 0.000220028)
(0.0507436 0 0.000316611)
(0.0500209 0 0.000435109)
(0.0490051 0 0.000579212)
(0.0477297 0 0.000753094)
(0.046231 0 0.000961382)
(0.0445507 0 0.00120905)
(0.0427372 0 0.00150118)
(0.0408494 0 0.00184256)
(0.038959 0 0.0022368)
(0.0371546 0 0.00268503)
(0.0355434 0 0.00318355)
(0.034244 0 0.00372038)
(0.0334166 0 0.00426589)
(0.033229 0 0.00476141)
(0.0337753 0 0.00511217)
(0.0340094 0 0.00554799)
(0 0 0)
(0.00871235 0 -2.48504e-05)
(0.0165907 0 -4.65327e-05)
(0.0234435 0 -6.38299e-05)
(0.0293615 0 -7.63803e-05)
(0.0344306 0 -8.37708e-05)
(0.0387287 0 -8.54757e-05)
(0.0423256 0 -8.08198e-05)
(0.0452847 0 -6.89484e-05)
(0.0476633 0 -4.87944e-05)
(0.0495108 0 -1.91176e-05)
(0.0508719 0 2.14914e-05)
(0.051792 0 7.48053e-05)
(0.0523129 0 0.00014298)
(0.0524725 0 0.000228481)
(0.0523075 0 0.000334139)
(0.0518538 0 0.000463158)
(0.0511477 0 0.00061911)
(0.0502277 0 0.000805883)
(0.0491356 0 0.00102754)
(0.0479183 0 0.0012881)
(0.0466294 0 0.00159107)
(0.0453313 0 0.0019388)
(0.0440975 0 0.00233131)
(0.0430137 0 0.00276465)
(0.0421773 0 0.00322847)
(0.04169 0 0.00370384)
(0.0416595 0 0.00415598)
(0.0421686 0 0.00452921)
(0.043207 0 0.00475319)
(0.0439435 0 0.00502223)
(0 0 0)
(0.00876506 0 -2.96697e-05)
(0.0166962 0 -5.56701e-05)
(0.0236034 0 -7.66385e-05)
(0.0295801 0 -9.22218e-05)
(0.0347143 0 -0.000102009)
(0.0390856 0 -0.000105465)
(0.042766 0 -0.000101898)
(0.0458207 0 -9.04275e-05)
(0.0483087 0 -6.99575e-05)
(0.0502817 0 -3.9185e-05)
(0.0517885 0 3.30445e-06)
(0.0528783 0 5.92094e-05)
(0.0535953 0 0.000130669)
(0.0539808 0 0.000220114)
(0.0540761 0 0.000330214)
(0.0539215 0 0.000463906)
(0.0535581 0 0.000624353)
(0.0530292 0 0.000814805)
(0.0523817 0 0.00103836)
(0.0516666 0 0.00129761)
(0.0509407 0 0.00159404)
(0.0502672 0 0.00192715)
(0.0497163 0 0.0022932)
(0.0493637 0 0.0026835)
(0.049288 0 0.00308245)
(0.0495613 0 0.00346647)
(0.0502298 0 0.00380065)
(0.0512932 0 0.00403991)
(0.0526595 0 0.0041429)
(0.0537114 0 0.00425406)
(0 0 0)
(0.00882421 0 -3.47533e-05)
(0.0168143 0 -6.53474e-05)
(0.0237823 0 -9.02973e-05)
(0.0298243 0 -0.000109286)
(0.0350307 0 -0.000121932)
(0.0394832 0 -0.000127725)
(0.043256 0 -0.000125989)
(0.0464161 0 -0.000115866)
(0.0490245 0 -9.62899e-05)
(0.0511362 0 -6.59816e-05)
(0.052803 0 -2.35141e-05)
(0.0540764 0 3.26768e-05)
(0.0550052 0 0.000104465)
(0.0556346 0 0.000194094)
(0.0560096 0 0.000303938)
(0.0561752 0 0.000436448)
(0.0561765 0 0.00059415)
(0.0560612 0 0.000779401)
(0.0558801 0 0.000994085)
(0.0556874 0 0.00123915)
(0.0555409 0 0.00151397)
(0.0555012 0 0.00181536)
(0.0556307 0 0.00213639)
(0.0559893 0 0.00246497)
(0.0566286 0 0.00278252)
(0.0575822 0 0.00306387)
(0.0588326 0 0.00327812)
(0.0603046 0 0.00339419)
(0.061854 0 0.00339773)
(0.0630516 0 0.00338133)
(0 0 0)
(0.00888894 0 -4.01089e-05)
(0.0169433 0 -7.5581e-05)
(0.0239776 0 -0.000104833)
(0.0300905 0 -0.000127614)
(0.0353751 0 -0.000143599)
(0.0399154 0 -0.000152332)
(0.0437876 0 -0.000153194)
(0.047061 0 -0.000145388)
(0.049799 0 -0.00012793)
(0.0520595 0 -9.96509e-05)
(0.0538969 0 -5.92031e-05)
(0.0553645 0 -5.12079e-06)
(0.0565148 0 6.41325e-05)
(0.057398 0 0.000150347)
(0.0580641 0 0.000255423)
(0.0585615 0 0.000381204)
(0.0589377 0 0.000529438)
(0.0592442 0 0.000701454)
(0.0595348 0 0.000897829)
(0.0598652 0 0.00111791)
(0.0602923 0 0.00135917)
(0.0608717 0 0.00161639)
(0.0616547 0 0.00188061)
(0.0626811 0 0.00213826)
(0.063971 0 0.0023706)
(0.0655172 0 0.00255398)
(0.0672405 0 0.00266417)
(0.0690012 0 0.00268381)
(0.0706281 0 0.00261865)
(0.071835 0 0.00251141)
(0 0 0)
(0.00895827 0 -4.57354e-05)
(0.0170814 0 -8.6369e-05)
(0.0241862 0 -0.000120245)
(0.0303745 0 -0.000147204)
(0.035742 0 -0.00016701)
(0.0403752 0 -0.000179287)
(0.0443523 0 -0.000183508)
(0.0477449 0 -0.000178977)
(0.0506186 0 -0.000164839)
(0.0530342 0 -0.000140082)
(0.0550492 0 -0.000103557)
(0.0567183 0 -5.39954e-05)
(0.0580958 0 9.88349e-06)
(0.0592367 0 8.93548e-05)
(0.0601957 0 0.000185661)
(0.0610244 0 0.000299832)
(0.0617736 0 0.00043273)
(0.062496 0 0.000584712)
(0.0632469 0 0.00075511)
(0.0640823 0 0.000941876)
(0.0650565 0 0.00114107)
(0.0662187 0 0.00134628)
(0.0676078 0 0.00154799)
(0.0692433 0 0.00173326)
(0.0711163 0 0.00188589)
(0.0731777 0 0.00198705)
(0.075292 0 0.00202065)
(0.0772693 0 0.00197998)
(0.0789236 0 0.00188099)
(0.0800563 0 0.00173067)
(0 0 0)
(0.00903112 0 -5.16228e-05)
(0.0172264 0 -9.76921e-05)
(0.0244049 0 -0.000136503)
(0.030672 0 -0.000168017)
(0.0361259 0 -0.000192109)
(0.0408554 0 -0.000208516)
(0.044941 0 -0.000216827)
(0.0484563 0 -0.000216488)
(0.0514694 0 -0.000206805)
(0.0540433 0 -0.00018697)
(0.0562379 0 -0.000156085)
(0.0581109 0 -0.000113202)
(0.0597178 0 -5.73759e-05)
(0.0611161 0 1.22245e-05)
(0.0623614 0 9.62695e-05)
(0.0635095 0 0.000194906)
(0.0646167 0 0.000307839)
(0.0657357 0 0.000434479)
(0.0669201 0 0.000573222)
(0.0682246 0 0.000720948)
(0.0697003 0 0.000872836)
(0.0713898 0 0.00102216)
(0.0733201 0 0.0011602)
(0.075494 0 0.00127659)
(0.0778852 0 0.00135956)
(0.0804033 0 0.00139833)
(0.0828672 0 0.00138638)
(0.0850544 0 0.00132363)
(0.0867541 0 0.00122547)
(0.0878158 0 0.00108368)
(0 0 0)
(0.00910636 0 -5.77527e-05)
(0.017376 0 -0.000109514)
(0.0246304 0 -0.000153553)
(0.0309784 0 -0.000189975)
(0.0365207 0 -0.000218791)
(0.0413485 0 -0.000239873)
(0.0455444 0 -0.000252957)
(0.049184 0 -0.000257651)
(0.0523371 0 -0.000253458)
(0.0550693 0 -0.000239804)
(0.0574423 0 -0.000216079)
(0.0595158 0 -0.000181688)
(0.0613477 0 -0.000136117)
(0.062996 0 -7.90253e-05)
(0.0645166 0 -1.02929e-05)
(0.0659665 0 6.96216e-05)
(0.067405 0 0.000159383)
(0.0688877 0 0.000257138)
(0.0704647 0 0.00036058)
(0.0721868 0 0.000466033)
(0.0741019 0 0.000568216)
(0.0762457 0 0.000660738)
(0.0786363 0 0.000736502)
(0.0812669 0 0.000788842)
(0.0841026 0 0.000811842)
(0.0870277 0 0.000804527)
(0.0898417 0 0.000771521)
(0.0922999 0 0.000718856)
(0.0941409 0 0.000652365)
(0.0952723 0 0.000565978)
(0 0 0)
(0.00918281 0 -6.40989e-05)
(0.0175279 0 -0.000121782)
(0.0248593 0 -0.000171314)
(0.031289 0 -0.000212966)
(0.0369205 0 -0.000246903)
(0.041847 0 -0.000273155)
(0.0461532 0 -0.000291621)
(0.0499164 0 -0.000302094)
(0.0532081 0 -0.000304294)
(0.0560954 0 -0.000297902)
(0.0586419 0 -0.000282615)
(0.0609086 0 -0.000258202)
(0.0629548 0 -0.000224588)
(0.0648387 0 -0.000181935)
(0.0666173 0 -0.000130748)
(0.0683466 0 -7.20325e-05)
(0.0700839 0 -7.64662e-06)
(0.0718865 0 5.94583e-05)
(0.0738025 0 0.000126106)
(0.0758776 0 0.000188349)
(0.0781557 0 0.000240827)
(0.0806661 0 0.000277742)
(0.0834202 0 0.000293664)
(0.0864097 0 0.000285164)
(0.0895932 0 0.000252599)
(0.0928571 0 0.000204159)
(0.0960217 0 0.000156649)
(0.0988432 0 0.000128468)
(0.100993 0 0.000117359)
(0.102571 0 0.000142459)
(0 0 0)
(0.00925929 0 -7.06279e-05)
(0.0176799 0 -0.00013443)
(0.0250881 0 -0.000189686)
(0.0315992 0 -0.000236847)
(0.0373194 0 -0.000276253)
(0.0423437 0 -0.000308101)
(0.0467585 0 -0.000332471)
(0.0506426 0 -0.000349355)
(0.054069 0 -0.000358697)
(0.057106 0 -0.000360444)
(0.059818 0 -0.000354599)
(0.0622671 0 -0.000341294)
(0.0645129 0 -0.000320869)
(0.0666136 0 -0.000293963)
(0.0686258 0 -0.000261626)
(0.0706047 0 -0.000225445)
(0.0726044 0 -0.000187679)
(0.0746765 0 -0.000151608)
(0.0768677 0 -0.000121249)
(0.0792226 0 -0.00010108)
(0.0817776 0 -9.62142e-05)
(0.0845544 0 -0.000111914)
(0.0875592 0 -0.000152583)
(0.0907827 0 -0.000220194)
(0.0941805 0 -0.000311016)
(0.0976576 0 -0.000412435)
(0.101082 0 -0.000499464)
(0.104262 0 -0.000532305)
(0.106868 0 -0.000488572)
(0.109786 0 -0.000230631)
(0 0 0)
(0.0093352 0 -7.73686e-05)
(0.0178307 0 -0.000147493)
(0.0253151 0 -0.000208698)
(0.0319069 0 -0.000261647)
(0.0377146 0 -0.000306851)
(0.0428351 0 -0.000344693)
(0.0473561 0 -0.000375438)
(0.0513577 0 -0.000399285)
(0.0549137 0 -0.000416408)
(0.0580933 0 -0.000427012)
(0.0609615 0 -0.000431401)
(0.0635802 0 -0.000430043)
(0.0660091 0 -0.000423656)
(0.0683053 0 -0.000413299)
(0.070524 0 -0.000400469)
(0.0727181 0 -0.000387202)
(0.0749381 0 -0.000376157)
(0.0772283 0 -0.000370653)
(0.079633 0 -0.000375124)
(0.0821931 0 -0.000394486)
(0.0849349 0 -0.000433562)
(0.0878719 0 -0.00049727)
(0.0910033 0 -0.000589801)
(0.0943126 0 -0.000713636)
(0.0977505 0 -0.000867047)
(0.101234 0 -0.00104453)
(0.104663 0 -0.00123904)
(0.1079 0 -0.00144888)
(0.11073 0 -0.00171946)
(0.117013 0 -0.000606914)
(0 0 0)
(0.00856111 0 0)
(0.0162865 0 0)
(0.0229799 0 0)
(0.0287253 0 0)
(0.0336027 0 0)
(0.0376837 0 0)
(0.0410322 0 0)
(0.0437047 0 0)
(0.0457511 0 0)
(0.0472146 0 0)
(0.048133 0 0)
(0.0485391 0 0)
(0.0484618 0 0)
(0.0479256 0 0)
(0.0469523 0 0)
(0.0455613 0 0)
(0.0437706 0 0)
(0.0415979 0 0)
(0.0390618 0 0)
(0.0361832 0 0)
(0.0329876 0 0)
(0.0295069 0 0)
(0.0257837 0 0)
(0.021875 0 0)
(0.0178597 0 0)
(0.0138495 0 0)
(0.0100062 0 0)
(0.00658142 0 0)
(0.00405437 0 0)
(0 0 0)
(0 0 0)
(0.00856499 0 -3.85275e-06)
(0.0162948 0 -7.16678e-06)
(0.0229928 0 -9.716e-06)
(0.0287434 0 -1.14119e-05)
(0.0336264 0 -1.21566e-05)
(0.0377137 0 -1.18295e-05)
(0.0410695 0 -1.02793e-05)
(0.0437505 0 -7.31593e-06)
(0.0458066 0 -2.70397e-06)
(0.0472814 0 3.84616e-06)
(0.048213 0 1.26905e-05)
(0.0486345 0 2.42662e-05)
(0.0485751 0 3.91026e-05)
(0.0480598 0 5.78268e-05)
(0.0471109 0 8.12033e-05)
(0.0457483 0 0.000110168)
(0.0439907 0 0.000145843)
(0.0418565 0 0.000189587)
(0.0393652 0 0.000243045)
(0.0365389 0 0.000308223)
(0.0334041 0 0.000387578)
(0.0299947 0 0.000484126)
(0.026355 0 0.000601576)
(0.0225446 0 0.000744455)
(0.0186464 0 0.000918114)
(0.0147789 0 0.00112827)
(0.0111144 0 0.00137872)
(0.00791521 0 0.00166495)
(0.00565279 0 0.00195258)
(0.00257748 0 0.00248567)
(0 0 0)
(0.00857787 0 -7.75904e-06)
(0.0163208 0 -1.44425e-05)
(0.0230325 0 -1.96024e-05)
(0.0287979 0 -2.30666e-05)
(0.0336975 0 -2.46444e-05)
(0.0378037 0 -2.41005e-05)
(0.0411811 0 -2.11388e-05)
(0.043887 0 -1.5388e-05)
(0.0459722 0 -6.38789e-06)
(0.0474809 0 6.42582e-06)
(0.0484518 0 2.37458e-05)
(0.048919 0 4.64235e-05)
(0.0489128 0 7.54928e-05)
(0.0484598 0 0.000112158)
(0.0475833 0 0.000157891)
(0.0463051 0 0.000214494)
(0.0446457 0 0.00028411)
(0.0426259 0 0.000369309)
(0.0402676 0 0.000473178)
(0.037596 0 0.000599431)
(0.0346415 0 0.000752532)
(0.0314422 0 0.00093783)
(0.0280479 0 0.00116167)
(0.0245249 0 0.00143141)
(0.0209635 0 0.00175508)
(0.017498 0 0.0021403)
(0.0143224 0 0.00258837)
(0.0117088 0 0.00308126)
(0.0100837 0 0.00354714)
(0.0078482 0 0.00428104)
(0 0 0)
(0.00859922 0 -1.17693e-05)
(0.0163638 0 -2.193e-05)
(0.0230981 0 -2.98201e-05)
(0.0288881 0 -3.51939e-05)
(0.0338151 0 -3.77779e-05)
(0.0379523 0 -3.7234e-05)
(0.0413652 0 -3.31351e-05)
(0.0441124 0 -2.49449e-05)
(0.0462454 0 -1.19999e-05)
(0.0478099 0 6.50885e-06)
(0.0488457 0 3.1571e-05)
(0.0493878 0 6.44056e-05)
(0.0494684 0 0.000106466)
(0.0491167 0 0.000159448)
(0.0483585 0 0.000225444)
(0.0472181 0 0.000306977)
(0.0457189 0 0.000406996)
(0.043885 0 0.000529003)
(0.0417426 0 0.000677135)
(0.0393215 0 0.000856254)
(0.0366576 0 0.00107202)
(0.0337959 0 0.00133094)
(0.030794 0 0.00164022)
(0.0277276 0 0.00200737)
(0.0246941 0 0.00243962)
(0.0218334 0 0.00294103)
(0.0193549 0 0.0035034)
(0.0175218 0 0.00409014)
(0.0166652 0 0.00460232)
(0.0153683 0 0.00532951)
(0 0 0)
(0.00862895 0 -1.59292e-05)
(0.0164235 0 -2.97223e-05)
(0.0231892 0 -4.05152e-05)
(0.0290132 0 -4.80035e-05)
(0.0339779 0 -5.18464e-05)
(0.0381579 0 -5.16193e-05)
(0.0416199 0 -4.67848e-05)
(0.0444237 0 -3.66664e-05)
(0.0466226 0 -2.04271e-05)
(0.0482639 0 2.94253e-06)
(0.0493881 0 3.46636e-05)
(0.0500319 0 7.62268e-05)
(0.0502304 0 0.000129407)
(0.0500162 0 0.000196314)
(0.0494186 0 0.000279503)
(0.0484649 0 0.000381972)
(0.0471823 0 0.0005072)
(0.0455991 0 0.000659237)
(0.0437464 0 0.000842747)
(0.0416599 0 0.00106302)
(0.039382 0 0.00132593)
(0.0369649 0 0.00163774)
(0.034475 0 0.00200467)
(0.0319966 0 0.00243196)
(0.0296351 0 0.00292255)
(0.0275208 0 0.00347281)
(0.025852 0 0.00406265)
(0.024861 0 0.00464024)
(0.02476 0 0.00509917)
(0.0243075 0 0.00569983)
(0 0 0)
(0.00866679 0 -2.02786e-05)
(0.0164995 0 -3.79007e-05)
(0.0233048 0 -5.18162e-05)
(0.0291716 0 -6.16808e-05)
(0.034184 0 -6.71057e-05)
(0.0384179 0 -6.76027e-05)
(0.0419416 0 -6.25498e-05)
(0.0448165 0 -5.1162e-05)
(0.047098 0 -3.24639e-05)
(0.0488346 0 -5.30885e-06)
(0.0500677 0 3.16675e-05)
(0.0508379 0 8.01442e-05)
(0.0511842 0 0.000142136)
(0.0511418 0 0.000220028)
(0.0507436 0 0.000316611)
(0.0500209 0 0.000435109)
(0.0490051 0 0.000579212)
(0.0477297 0 0.000753094)
(0.046231 0 0.000961382)
(0.0445507 0 0.00120905)
(0.0427372 0 0.00150118)
(0.0408494 0 0.00184256)
(0.038959 0 0.0022368)
(0.0371546 0 0.00268503)
(0.0355434 0 0.00318355)
(0.034244 0 0.00372038)
(0.0334166 0 0.00426589)
(0.033229 0 0.00476141)
(0.0337753 0 0.00511217)
(0.0340094 0 0.00554799)
(0 0 0)
(0.00871235 0 -2.48504e-05)
(0.0165907 0 -4.65327e-05)
(0.0234435 0 -6.38299e-05)
(0.0293615 0 -7.63803e-05)
(0.0344306 0 -8.37708e-05)
(0.0387287 0 -8.54757e-05)
(0.0423256 0 -8.08198e-05)
(0.0452847 0 -6.89484e-05)
(0.0476633 0 -4.87944e-05)
(0.0495108 0 -1.91176e-05)
(0.0508719 0 2.14914e-05)
(0.051792 0 7.48053e-05)
(0.0523129 0 0.00014298)
(0.0524725 0 0.000228481)
(0.0523075 0 0.000334139)
(0.0518538 0 0.000463158)
(0.0511477 0 0.00061911)
(0.0502277 0 0.000805883)
(0.0491356 0 0.00102754)
(0.0479183 0 0.0012881)
(0.0466294 0 0.00159107)
(0.0453313 0 0.0019388)
(0.0440975 0 0.00233131)
(0.0430137 0 0.00276465)
(0.0421773 0 0.00322847)
(0.04169 0 0.00370384)
(0.0416595 0 0.00415598)
(0.0421686 0 0.00452921)
(0.043207 0 0.00475319)
(0.0439435 0 0.00502223)
(0 0 0)
(0.00876506 0 -2.96697e-05)
(0.0166962 0 -5.56701e-05)
(0.0236034 0 -7.66385e-05)
(0.0295801 0 -9.22218e-05)
(0.0347143 0 -0.000102009)
(0.0390856 0 -0.000105465)
(0.042766 0 -0.000101898)
(0.0458207 0 -9.04275e-05)
(0.0483087 0 -6.99575e-05)
(0.0502817 0 -3.9185e-05)
(0.0517885 0 3.30445e-06)
(0.0528783 0 5.92094e-05)
(0.0535953 0 0.000130669)
(0.0539808 0 0.000220114)
(0.0540761 0 0.000330214)
(0.0539215 0 0.000463906)
(0.0535581 0 0.000624353)
(0.0530292 0 0.000814805)
(0.0523817 0 0.00103836)
(0.0516666 0 0.00129761)
(0.0509407 0 0.00159404)
(0.0502672 0 0.00192715)
(0.0497163 0 0.0022932)
(0.0493637 0 0.0026835)
(0.049288 0 0.00308245)
(0.0495613 0 0.00346647)
(0.0502298 0 0.00380065)
(0.0512932 0 0.00403991)
(0.0526595 0 0.0041429)
(0.0537114 0 0.00425406)
(0 0 0)
(0.00882421 0 -3.47533e-05)
(0.0168143 0 -6.53474e-05)
(0.0237823 0 -9.02973e-05)
(0.0298243 0 -0.000109286)
(0.0350307 0 -0.000121932)
(0.0394832 0 -0.000127725)
(0.043256 0 -0.000125989)
(0.0464161 0 -0.000115866)
(0.0490245 0 -9.62899e-05)
(0.0511362 0 -6.59816e-05)
(0.052803 0 -2.35141e-05)
(0.0540764 0 3.26768e-05)
(0.0550052 0 0.000104465)
(0.0556346 0 0.000194094)
(0.0560096 0 0.000303938)
(0.0561752 0 0.000436448)
(0.0561765 0 0.00059415)
(0.0560612 0 0.000779401)
(0.0558801 0 0.000994085)
(0.0556874 0 0.00123915)
(0.0555409 0 0.00151397)
(0.0555012 0 0.00181536)
(0.0556307 0 0.00213639)
(0.0559893 0 0.00246497)
(0.0566286 0 0.00278252)
(0.0575822 0 0.00306387)
(0.0588326 0 0.00327812)
(0.0603046 0 0.00339419)
(0.061854 0 0.00339773)
(0.0630516 0 0.00338133)
(0 0 0)
(0.00888894 0 -4.01089e-05)
(0.0169433 0 -7.5581e-05)
(0.0239776 0 -0.000104833)
(0.0300905 0 -0.000127614)
(0.0353751 0 -0.000143599)
(0.0399154 0 -0.000152332)
(0.0437876 0 -0.000153194)
(0.047061 0 -0.000145388)
(0.049799 0 -0.00012793)
(0.0520595 0 -9.96509e-05)
(0.0538969 0 -5.92031e-05)
(0.0553645 0 -5.12079e-06)
(0.0565148 0 6.41325e-05)
(0.057398 0 0.000150347)
(0.0580641 0 0.000255423)
(0.0585615 0 0.000381204)
(0.0589377 0 0.000529438)
(0.0592442 0 0.000701454)
(0.0595348 0 0.000897829)
(0.0598652 0 0.00111791)
(0.0602923 0 0.00135917)
(0.0608717 0 0.00161639)
(0.0616547 0 0.00188061)
(0.0626811 0 0.00213826)
(0.063971 0 0.0023706)
(0.0655172 0 0.00255398)
(0.0672405 0 0.00266417)
(0.0690012 0 0.00268381)
(0.0706281 0 0.00261865)
(0.071835 0 0.00251141)
(0 0 0)
(0.00895827 0 -4.57354e-05)
(0.0170814 0 -8.6369e-05)
(0.0241862 0 -0.000120245)
(0.0303745 0 -0.000147204)
(0.035742 0 -0.00016701)
(0.0403752 0 -0.000179287)
(0.0443523 0 -0.000183508)
(0.0477449 0 -0.000178977)
(0.0506186 0 -0.000164839)
(0.0530342 0 -0.000140082)
(0.0550492 0 -0.000103557)
(0.0567183 0 -5.39954e-05)
(0.0580958 0 9.88349e-06)
(0.0592367 0 8.93548e-05)
(0.0601957 0 0.000185661)
(0.0610244 0 0.000299832)
(0.0617736 0 0.00043273)
(0.062496 0 0.000584712)
(0.0632469 0 0.00075511)
(0.0640823 0 0.000941876)
(0.0650565 0 0.00114107)
(0.0662187 0 0.00134628)
(0.0676078 0 0.00154799)
(0.0692433 0 0.00173326)
(0.0711163 0 0.00188589)
(0.0731777 0 0.00198705)
(0.075292 0 0.00202065)
(0.0772693 0 0.00197998)
(0.0789236 0 0.00188099)
(0.0800563 0 0.00173067)
(0 0 0)
(0.00903112 0 -5.16228e-05)
(0.0172264 0 -9.76921e-05)
(0.0244049 0 -0.000136503)
(0.030672 0 -0.000168017)
(0.0361259 0 -0.000192109)
(0.0408554 0 -0.000208516)
(0.044941 0 -0.000216827)
(0.0484563 0 -0.000216488)
(0.0514694 0 -0.000206805)
(0.0540433 0 -0.00018697)
(0.0562379 0 -0.000156085)
(0.0581109 0 -0.000113202)
(0.0597178 0 -5.73759e-05)
(0.0611161 0 1.22245e-05)
(0.0623614 0 9.62695e-05)
(0.0635095 0 0.000194906)
(0.0646167 0 0.000307839)
(0.0657357 0 0.000434479)
(0.0669201 0 0.000573222)
(0.0682246 0 0.000720948)
(0.0697003 0 0.000872836)
(0.0713898 0 0.00102216)
(0.0733201 0 0.0011602)
(0.075494 0 0.00127659)
(0.0778852 0 0.00135956)
(0.0804033 0 0.00139833)
(0.0828672 0 0.00138638)
(0.0850544 0 0.00132363)
(0.0867541 0 0.00122547)
(0.0878158 0 0.00108368)
(0 0 0)
(0.00910636 0 -5.77527e-05)
(0.017376 0 -0.000109514)
(0.0246304 0 -0.000153553)
(0.0309784 0 -0.000189975)
(0.0365207 0 -0.000218791)
(0.0413485 0 -0.000239873)
(0.0455444 0 -0.000252957)
(0.049184 0 -0.000257651)
(0.0523371 0 -0.000253458)
(0.0550693 0 -0.000239804)
(0.0574423 0 -0.000216079)
(0.0595158 0 -0.000181688)
(0.0613477 0 -0.000136117)
(0.062996 0 -7.90253e-05)
(0.0645166 0 -1.02929e-05)
(0.0659665 0 6.96216e-05)
(0.067405 0 0.000159383)
(0.0688877 0 0.000257138)
(0.0704647 0 0.00036058)
(0.0721868 0 0.000466033)
(0.0741019 0 0.000568216)
(0.0762457 0 0.000660738)
(0.0786363 0 0.000736502)
(0.0812669 0 0.000788842)
(0.0841026 0 0.000811842)
(0.0870277 0 0.000804527)
(0.0898417 0 0.000771521)
(0.0922999 0 0.000718856)
(0.0941409 0 0.000652365)
(0.0952723 0 0.000565978)
(0 0 0)
(0.00918281 0 -6.40989e-05)
(0.0175279 0 -0.000121782)
(0.0248593 0 -0.000171314)
(0.031289 0 -0.000212966)
(0.0369205 0 -0.000246903)
(0.041847 0 -0.000273155)
(0.0461532 0 -0.000291621)
(0.0499164 0 -0.000302094)
(0.0532081 0 -0.000304294)
(0.0560954 0 -0.000297902)
(0.0586419 0 -0.000282615)
(0.0609086 0 -0.000258202)
(0.0629548 0 -0.000224588)
(0.0648387 0 -0.000181935)
(0.0666173 0 -0.000130748)
(0.0683466 0 -7.20325e-05)
(0.0700839 0 -7.64662e-06)
(0.0718865 0 5.94583e-05)
(0.0738025 0 0.000126106)
(0.0758776 0 0.000188349)
(0.0781557 0 0.000240827)
(0.0806661 0 0.000277742)
(0.0834202 0 0.000293664)
(0.0864097 0 0.000285164)
(0.0895932 0 0.000252599)
(0.0928571 0 0.000204159)
(0.0960217 0 0.000156649)
(0.0988432 0 0.000128468)
(0.100993 0 0.000117359)
(0.102571 0 0.000142459)
(0 0 0)
(0.00925929 0 -7.06279e-05)
(0.0176799 0 -0.00013443)
(0.0250881 0 -0.000189686)
(0.0315992 0 -0.000236847)
(0.0373194 0 -0.000276253)
(0.0423437 0 -0.000308101)
(0.0467585 0 -0.000332471)
(0.0506426 0 -0.000349355)
(0.054069 0 -0.000358697)
(0.057106 0 -0.000360444)
(0.059818 0 -0.000354599)
(0.0622671 0 -0.000341294)
(0.0645129 0 -0.000320869)
(0.0666136 0 -0.000293963)
(0.0686258 0 -0.000261626)
(0.0706047 0 -0.000225445)
(0.0726044 0 -0.000187679)
(0.0746765 0 -0.000151608)
(0.0768677 0 -0.000121249)
(0.0792226 0 -0.00010108)
(0.0817776 0 -9.62142e-05)
(0.0845544 0 -0.000111914)
(0.0875592 0 -0.000152583)
(0.0907827 0 -0.000220194)
(0.0941805 0 -0.000311016)
(0.0976576 0 -0.000412435)
(0.101082 0 -0.000499464)
(0.104262 0 -0.000532305)
(0.106868 0 -0.000488572)
(0.109786 0 -0.000230631)
(0 0 0)
(0.0093352 0 -7.73686e-05)
(0.0178307 0 -0.000147493)
(0.0253151 0 -0.000208698)
(0.0319069 0 -0.000261647)
(0.0377146 0 -0.000306851)
(0.0428351 0 -0.000344693)
(0.0473561 0 -0.000375438)
(0.0513577 0 -0.000399285)
(0.0549137 0 -0.000416408)
(0.0580933 0 -0.000427012)
(0.0609615 0 -0.000431401)
(0.0635802 0 -0.000430043)
(0.0660091 0 -0.000423656)
(0.0683053 0 -0.000413299)
(0.070524 0 -0.000400469)
(0.0727181 0 -0.000387202)
(0.0749381 0 -0.000376157)
(0.0772283 0 -0.000370653)
(0.079633 0 -0.000375124)
(0.0821931 0 -0.000394486)
(0.0849349 0 -0.000433562)
(0.0878719 0 -0.00049727)
(0.0910033 0 -0.000589801)
(0.0943126 0 -0.000713636)
(0.0977505 0 -0.000867047)
(0.101234 0 -0.00104453)
(0.104663 0 -0.00123904)
(0.1079 0 -0.00144888)
(0.11073 0 -0.00171946)
(0.117013 0 -0.000606914)
(0 0 0)
(0.00484733 0 0)
(0.00848232 0 0)
(0.0134692 0 0)
(0.0191304 0 0)
(0.0249785 0 0)
(0.0306883 0 0)
(0.0360582 0 0)
(0.0409702 0 0)
(0.0453589 0 0)
(0.0491931 0 0)
(0.0524611 0 0)
(0.0551616 0 0)
(0.0572991 0 0)
(0.0588799 0 0)
(0.0599093 0 0)
(0.0603902 0 0)
(0.0603212 0 0)
(0.0596957 0 0)
(0.0585022 0 0)
(0.0567246 0 0)
(0.0543416 0 0)
(0.0513273 0 0)
(0.0476504 0 0)
(0.0432748 0 0)
(0.0381593 0 0)
(0.0322582 0 0)
(0.0255218 0 0)
(0.0178975 0 0)
(0.00932735 0 0)
(0 0 0)
(0.00238038 0 -0.00257857)
(0.00639818 0 -0.00228557)
(0.00991633 0 -0.00219164)
(0.0147435 0 -0.00204018)
(0.0202404 0 -0.00187415)
(0.0259325 0 -0.00171116)
(0.0314988 0 -0.00155686)
(0.0367418 0 -0.00141382)
(0.0415442 0 -0.00128288)
(0.0458396 0 -0.00116384)
(0.0495947 0 -0.001056)
(0.0527959 0 -0.000958459)
(0.0554403 0 -0.000870218)
(0.0575308 0 -0.000790312)
(0.0590722 0 -0.00071777)
(0.0600686 0 -0.000651407)
(0.0605221 0 -0.000590779)
(0.0604305 0 -0.000535521)
(0.0597861 0 -0.000484541)
(0.0585768 0 -0.000437215)
(0.056786 0 -0.000393047)
(0.054392 0 -0.000351493)
(0.0513684 0 -0.000312081)
(0.0476838 0 -0.000274245)
(0.0433018 0 -0.000237392)
(0.0381808 0 -0.000200915)
(0.0322748 0 -0.000164171)
(0.0255342 0 -0.000126462)
(0.0179058 0 -8.69929e-05)
(0.00933155 0 -4.48203e-05)
(0 0 0)
(0.00737469 0 -0.00471442)
(0.0107408 0 -0.00434864)
(0.0139888 0 -0.0041905)
(0.0184009 0 -0.00392499)
(0.0234471 0 -0.00362487)
(0.0286977 0 -0.00332401)
(0.0338538 0 -0.00303503)
(0.0387334 0 -0.00276436)
(0.0432209 0 -0.00251461)
(0.0472468 0 -0.00228611)
(0.0507726 0 -0.00207804)
(0.0537797 0 -0.001889)
(0.0562605 0 -0.00171737)
(0.0582135 0 -0.0015615)
(0.0596397 0 -0.00141974)
(0.0605401 0 -0.00129018)
(0.0609137 0 -0.00117156)
(0.0607554 0 -0.00106282)
(0.060055 0 -0.000962167)
(0.0587991 0 -0.000868567)
(0.0569693 0 -0.000781148)
(0.0545425 0 -0.000698801)
(0.0514914 0 -0.000620658)
(0.0477839 0 -0.000545581)
(0.0433826 0 -0.000472394)
(0.0382452 0 -0.000399896)
(0.032325 0 -0.000326823)
(0.0255715 0 -0.000251791)
(0.0179311 0 -0.000173227)
(0.00934451 0 -8.92567e-05)
(0 0 0)
(0.0146025 0 -0.00644952)
(0.0172458 0 -0.00607806)
(0.0201564 0 -0.00588708)
(0.0240042 0 -0.00555447)
(0.0284011 0 -0.00516448)
(0.0329949 0 -0.00476278)
(0.0375374 0 -0.00437071)
(0.0418682 0 -0.00399855)
(0.0458749 0 -0.00365127)
(0.0494847 0 -0.00333048)
(0.0526534 0 -0.00303598)
(0.055356 0 -0.00276658)
(0.0575785 0 -0.00252059)
(0.0593133 0 -0.0022961)
(0.0605561 0 -0.00209117)
(0.0613034 0 -0.00190393)
(0.0615489 0 -0.00173199)
(0.0612831 0 -0.00157328)
(0.0604932 0 -0.00142606)
(0.0591624 0 -0.00128877)
(0.0572693 0 -0.00115985)
(0.0547889 0 -0.00103812)
(0.0516931 0 -0.000922559)
(0.0479482 0 -0.000811377)
(0.0435154 0 -0.000702838)
(0.0383511 0 -0.000595189)
(0.0324075 0 -0.000486575)
(0.0256328 0 -0.000374956)
(0.0179725 0 -0.000258009)
(0.00936574 0 -0.000132958)
(0 0 0)
(0.0233106 0 -0.00781091)
(0.0252803 0 -0.00745844)
(0.0278054 0 -0.0072515)
(0.0310131 0 -0.00688909)
(0.0346523 0 -0.00645221)
(0.0384697 0 -0.00599052)
(0.0422781 0 -0.00553149)
(0.0459384 0 -0.0050885)
(0.0493464 0 -0.00466902)
(0.0524297 0 -0.00427665)
(0.055141 0 -0.0039126)
(0.0574497 0 -0.00357661)
(0.0593354 0 -0.0032675)
(0.0607841 0 -0.00298361)
(0.0617849 0 -0.00272302)
(0.0623283 0 -0.00248383)
(0.0624021 0 -0.00226337)
(0.0619925 0 -0.00205917)
(0.0610831 0 -0.00186959)
(0.059653 0 -0.00169232)
(0.057676 0 -0.00152485)
(0.0551237 0 -0.0013661)
(0.051967 0 -0.001215)
(0.0481716 0 -0.00106932)
(0.0436961 0 -0.000926817)
(0.0384952 0 -0.000785241)
(0.0325196 0 -0.000642199)
(0.0257163 0 -0.000495037)
(0.0180287 0 -0.000340719)
(0.00939454 0 -0.000175608)
(0 0 0)
(0.0328818 0 -0.00883674)
(0.0342444 0 -0.00850677)
(0.0363556 0 -0.00829533)
(0.0389011 0 -0.0079306)
(0.0417576 0 -0.00748322)
(0.0447682 0 -0.0069999)
(0.0477922 0 -0.00650824)
(0.0507173 0 -0.00602406)
(0.0534547 0 -0.00555748)
(0.0559384 0 -0.00511456)
(0.0581215 0 -0.00469849)
(0.0599705 0 -0.00431052)
(0.0614598 0 -0.00395048)
(0.0625691 0 -0.00361732)
(0.063281 0 -0.00330943)
(0.063579 0 -0.0030249)
(0.0634454 0 -0.00276137)
(0.0628613 0 -0.00251652)
(0.0618058 0 -0.00228845)
(0.0602541 0 -0.00207462)
(0.0581755 0 -0.00187232)
(0.0555361 0 -0.00167982)
(0.0523054 0 -0.00149561)
(0.0484479 0 -0.00131743)
(0.0439197 0 -0.00114268)
(0.0386737 0 -0.0009687)
(0.0326585 0 -0.00079262)
(0.0258195 0 -0.000611222)
(0.0180982 0 -0.000420808)
(0.00943009 0 -0.000216927)
(0 0 0)
(0.042786 0 -0.00955004)
(0.0436289 0 -0.00925495)