/*--------------------------------*- C++ -*----------------------------------*\
| =========                 |                                                 |
| \\      /  F ield         | OpenFOAM: The Open Source CFD Toolbox           |
|  \\    /   O peration     | Version:  dev                                   |
|   \\  /    A nd           | Web:      www.OpenFOAM.org                      |
|    \\/     M anipulation  |                                                 |
\*---------------------------------------------------------------------------*/
FoamFile
{
    version     2.0;
    format      ascii;
    class       volVectorField;
    location    "1.2";
    object      U;
}
// * * * * * * * * * * * * * * * * * * * * * * * * * * * * * * * * * * * * * //

dimensions      [0 1 -1 0 0 0 0];

internalField   nonuniform List<vector> 
465
(
(10.0184 1.26717e-18 3.60647)
(10.1927 -1.21063e-18 3.56153)
(10.3029 -5.08186e-21 3.87595)
(10.4389 -2.29545e-18 4.20093)
(10.3537 3.10478e-21 3.4998)
(10.4713 2.28297e-18 3.7926)
(10.6115 5.69503e-19 4.09139)
(10.7759 1.63689e-18 4.38934)
(10.9634 0 4.6764)
(10.5007 -1.66617e-18 3.42345)
(10.6232 2.17891e-18 3.69509)
(10.7655 -5.43716e-19 3.96898)
(10.928 0 4.23879)
(11.1092 -2.55255e-19 4.49654)
(11.3063 1.27889e-18 4.73427)
(11.5153 1.0085e-18 4.94377)
(10.6337 0 3.33449)
(10.7596 -1.06641e-18 3.58578)
(10.9026 -1.04155e-18 3.83647)
(11.0622 -1.27448e-19 4.08124)
(11.2369 3.80773e-19 4.31405)
(11.4239 -2.60994e-19 4.52905)
(11.6194 0 4.72093)
(11.8144 0 4.88464)
(12.0267 -4.96795e-19 5.02364)
(10.7535 0 3.23461)
(10.8816 -1.024e-18 3.46658)
(11.0243 1.02576e-20 3.69606)
(11.1807 0 3.91883)
(11.3491 5.00174e-19 4.13031)
(11.527 -9.9792e-19 4.32624)
(11.7111 -9.73563e-19 4.50309)
(11.8949 9.99967e-19 4.65768)
(12.0946 0 4.79112)
(10.8607 2.53351e-19 3.12518)
(10.9903 9.98875e-19 3.33904)
(11.132 1.00886e-18 3.54938)
(11.2851 -2.44754e-19 3.75287)
(11.4478 -2.45045e-19 3.94601)
(11.6177 -4.8941e-19 4.1257)
(11.7923 0 4.28959)
(11.9666 1.44769e-18 4.43576)
(12.156 -1.95873e-18 4.56458)
(10.9565 -4.86139e-19 3.00745)
(11.0866 0 3.20449)
(11.2271 0 3.39758)
(11.377 0 3.58408)
(11.5346 -9.60126e-19 3.7613)
(11.6977 1.86306e-20 3.92695)
(11.8643 1.45602e-18 4.07946)
(12.0307 -1.43044e-18 4.21767)
(12.2118 1.69309e-18 4.34184)
(11.0416 4.77093e-19 2.88251)
(11.1718 2.35343e-19 3.06399)
(11.3108 -2.39502e-19 3.24141)
(11.4578 4.69562e-19 3.41274)
(11.6109 -3.61235e-21 3.57592)
(11.7683 4.63864e-19 3.72924)
(11.9285 -2.36991e-18 3.87156)
(12.0882 1.89695e-18 4.00217)
(12.2624 -4.89425e-19 4.1214)
(11.1172 0 2.75123)
(11.2471 0 2.91833)
(11.3846 0 3.08144)
(11.5286 4.6287e-19 3.23904)
(11.6778 4.562e-19 3.3896)
(11.8304 -9.39056e-21 3.5318)
(11.9852 -2.32807e-19 3.66477)
(12.1396 0 3.78804)
(12.3082 -1.16388e-18 3.90205)
(11.184 -1.46629e-21 2.61422)
(11.3135 -2.20245e-19 2.76802)
(11.4494 -4.437e-19 2.91803)
(11.5907 -4.47136e-19 3.06309)
(11.7363 9.15509e-19 3.20209)
(11.8849 -1.36087e-18 3.334)
(12.0352 2.05942e-18 3.45818)
(12.1852 -1.15694e-18 3.57428)
(12.3492 0 3.68279)
(11.1199 0 2.32805)
(11.2427 -4.39476e-19 2.47198)
(11.3717 0 2.61342)
(11.506 4.43273e-19 2.75136)
(11.6449 0 2.88488)
(11.7874 0 3.01312)
(11.9324 0 3.13534)
(12.0789 0 3.25107)
(12.2252 8.93048e-19 3.36006)
(12.3854 -9.18473e-19 3.46281)
(11.1711 -2.13134e-19 2.19274)
(11.2939 -4.25125e-19 2.32496)
(11.4221 -4.25767e-19 2.45484)
(11.5549 4.36935e-19 2.58152)
(11.6916 4.3712e-19 2.70425)
(11.8314 0 2.82238)
(11.9734 0 2.93537)
(12.1167 0 3.04289)
(12.2598 2.21289e-19 3.14477)
(12.4167 0 3.2415)
(11.2156 0 2.05252)
(11.3381 4.16655e-19 2.17359)
(11.4654 4.17227e-19 2.2925)
(11.5967 -1.25804e-18 2.40853)
(11.7315 1.06536e-18 2.52106)
(11.8689 0 2.62957)
(12.0082 1.06472e-18 2.73368)
(12.1487 -1.72503e-18 2.83318)
(12.2891 1.7348e-18 2.92793)
(12.4431 -1.69957e-20 3.01842)
(11.2539 4.05071e-19 1.90784)
(11.3759 3.53253e-21 2.01822)
(11.5022 -4.08948e-19 2.12661)
(11.6321 6.10918e-19 2.23244)
(11.7649 -1.04117e-18 2.33519)
(11.9002 0 2.43447)
(12.0371 -2.10072e-19 2.52999)
(12.1751 0 2.6216)
(12.3131 0 2.70918)
(12.4644 0 2.79323)
(11.2862 -7.86115e-19 1.75901)
(11.4076 1.95319e-19 1.8591)
(11.5328 -1.98411e-19 1.95736)
(11.6612 7.97194e-19 2.05335)
(11.7923 -2.13143e-19 2.14666)
(11.9255 -8.2034e-19 2.23699)
(12.0602 -2.049e-19 2.32411)
(12.1959 8.19898e-19 2.4079)
(12.3317 -8.38537e-19 2.48827)
(12.4806 9.36864e-19 2.5657)
(11.3126 3.23481e-21 1.60627)
(11.4333 9.57212e-19 1.69641)
(11.5573 3.77948e-19 1.78487)
(11.6843 1.85702e-19 1.87133)
(11.8136 -5.96683e-19 1.95546)
(11.9449 0 2.03704)
(12.0776 2.0072e-19 2.11588)
(12.2112 0 2.19189)
(12.3449 -1.01714e-19 2.26499)
(12.4916 -1.02799e-19 2.33565)
(11.3333 1.84815e-19 1.44989)
(11.4531 7.43813e-19 1.53031)
(11.576 -9.49611e-19 1.60924)
(11.7015 9.48449e-19 1.6864)
(11.8293 -1.01216e-20 1.76156)
(11.9587 -7.819e-19 1.83453)
(12.0895 -9.7825e-20 1.90517)
(12.2211 7.84062e-19 1.9734)
(12.3529 -1.14469e-20 2.03917)
(12.4975 -1.3271e-20 2.10292)
(11.3488 -1.80676e-19 1.29)
(11.4676 -7.24651e-19 1.36089)
(11.5893 1.289e-18 1.43046)
(11.7134 -9.75725e-21 1.4985)
(11.8396 -1.31437e-18 1.56482)
(11.9673 7.62901e-19 1.62928)
(12.0963 9.56985e-20 1.69177)
(12.226 0 1.75223)
(12.356 1.94482e-19 1.8106)
(12.4986 0 1.86732)
(11.3595 0 1.12689)
(11.4773 0 1.18836)
(11.5977 3.58849e-19 1.2487)
(11.7204 -1.81525e-19 1.30773)
(11.845 -9.10993e-19 1.36532)
(11.971 9.43339e-21 1.42134)
(12.0982 7.51106e-19 1.47571)
(12.2262 -7.47936e-19 1.52837)
(12.3543 1.51905e-18 1.57929)
(12.495 -1.53326e-18 1.62887)
(11.3657 3.435e-19 0.960387)
(11.4824 0 1.01253)
(11.6015 -1.74976e-19 1.06372)
(11.7228 -6.13949e-19 1.11382)
(11.8458 8.07097e-19 1.16272)
(11.9702 8.06318e-19 1.21033)
(12.0956 -8.23295e-19 1.25657)
(12.2218 0 1.3014)
(12.3483 -8.75298e-19 1.34479)
(12.487 8.00607e-19 1.38711)
(11.3678 -3.3077e-19 0.791262)
(11.4832 3.38231e-19 0.83411)
(11.601 -7.61585e-19 0.876188)
(11.7208 6.91684e-19 0.917388)
(11.8422 -7.78002e-19 0.957621)
(11.9649 6.18687e-19 0.996816)
(12.0886 -5.27473e-19 1.03492)
(12.2131 7.20613e-19 1.0719)
(12.3378 4.51916e-20 1.10774)
(12.4745 -4.56472e-20 1.14274)
(11.3661 -8.08211e-20 0.618315)
(11.4802 -3.25564e-19 0.651861)
(11.5965 4.15762e-19 0.684806)
(11.7147 -1.21732e-22 0.717066)
(11.8345 -8.4553e-20 0.748576)
(11.9556 6.79644e-19 0.779281)
(12.0776 -7.81261e-19 0.809142)
(12.2003 7.36618e-19 0.838131)
(12.3234 -7.08511e-19 0.866227)
(12.4582 -7.27694e-19 0.89369)
(11.3607 3.94949e-19 0.444172)
(11.4733 -7.95541e-20 0.46841)
(11.588 0 0.49223)
(11.7046 -8.14619e-20 0.515573)
(11.8227 8.23376e-20 0.538393)
(11.942 0 0.560652)
(12.0622 -4.19915e-20 0.582322)
(12.1831 -6.36353e-20 0.603383)
(12.3043 3.40435e-19 0.623819)
(12.437 -3.26657e-19 0.643833)
(11.3521 -1.52114e-19 0.264217)
(11.4631 2.32915e-19 0.278896)
(11.5762 0 0.293301)
(11.6911 1.97776e-20 0.307398)
(11.8074 0 0.321163)
(11.925 -3.41516e-19 0.334576)
(12.0434 6.51435e-20 0.347623)
(12.1625 3.31753e-19 0.360297)
(12.2821 0 0.372594)
(12.413 1.05123e-20 0.384653)
(11.1566 -7.49472e-20 0.0883133)
(11.2636 0 0.0937204)
(11.3729 0 0.0990293)
(11.4842 -1.92967e-20 0.104225)
(11.5972 0 0.109297)
(11.7116 9.80854e-20 0.114233)
(11.827 -1.79197e-19 0.119028)
(11.9433 1.01036e-19 0.123673)
(12.0601 -8.07229e-20 0.128161)
(12.1882 7.23105e-20 0.132538)
(12.1434 2.10438e-19 5.08594)
(12.2042 1.45748e-18 4.8524)
(12.3046 -3.16059e-18 4.90561)
(12.3874 1.66058e-18 4.95452)
(12.2601 3.3435e-18 4.62484)
(12.3557 -1.68515e-18 4.67848)
(12.4348 0 4.72869)
(12.3114 -1.46261e-18 4.40076)
(12.4033 -1.5376e-18 4.45422)
(12.4796 2.13279e-20 4.50496)
(12.3584 -1.62348e-18 4.1786)
(12.4473 1.64512e-18 4.23128)
(12.5214 -1.00344e-19 4.28179)
(12.4012 1.52355e-18 3.9572)
(12.4876 3.85262e-22 4.00857)
(12.56 1.57202e-18 4.05819)
(12.4397 9.91964e-20 3.73559)
(12.5241 -9.88454e-20 3.78523)
(12.5949 1.94668e-19 3.8334)
(12.4738 0 3.51302)
(12.5564 0 3.56057)
(12.626 -9.56763e-20 3.60686)
(12.5033 -1.52687e-18 3.28893)
(12.5844 1.53914e-18 3.33408)
(12.6528 0 3.37816)
(12.5281 -3.01554e-18 3.06289)
(12.6078 1.51e-18 3.10542)
(12.6752 -4.63143e-20 3.147)
(12.5479 -4.62308e-20 2.8346)
(12.6265 -1.46549e-18 2.87433)
(12.6929 1.50564e-18 2.91319)
(12.5628 3.05047e-20 2.60387)
(12.6401 -1.38739e-20 2.64062)
(12.7057 -1.43175e-18 2.6766)
(12.5725 0 2.37051)
(12.6487 0 2.40416)
(12.7134 1.43578e-18 2.4371)
(12.5771 -1.3963e-18 2.13439)
(12.6523 -1.37633e-18 2.16483)
(12.7162 -3.26929e-20 2.19461)
(12.577 4.24776e-20 1.89533)
(12.6511 1.34592e-18 1.92245)
(12.7142 -3.0401e-20 1.94898)
(12.5722 1.29287e-18 1.65336)
(12.6453 -1.31523e-18 1.6771)
(12.7076 1.33399e-18 1.70031)
(12.563 1.29167e-18 1.40801)
(12.6352 -1.29479e-18 1.42829)
(12.6966 -1.27449e-18 1.44809)
(12.5494 1.97796e-20 1.16003)
(12.6206 0 1.1768)
(12.6812 0 1.19318)
(12.5321 1.23893e-18 0.907239)
(12.6022 0 0.920371)
(12.6619 -1.22233e-18 0.933187)
(12.5097 -1.87725e-20 0.653705)
(12.5788 1.18879e-18 0.663254)
(12.6379 -1.17944e-18 0.672556)
(12.4846 4.56353e-21 0.390549)
(12.5525 0 0.396196)
(12.6106 0 0.401687)
(12.2583 -1.46671e-19 0.134634)
(12.3251 1.07287e-21 0.136615)
(12.3822 1.41299e-19 0.138563)
(12.5298 0 5.03824)
(12.5719 0 4.81874)
(12.7128 4.43744e-19 4.90143)
(12.8636 -6.2851e-19 4.97536)
(13.0074 7.83582e-19 5.0401)
(12.6128 6.97296e-19 4.5985)
(12.752 -2.18873e-19 4.68782)
(12.9046 -1.0524e-19 4.77217)
(13.0561 -8.54857e-19 4.85131)
(13.1981 2.24573e-20 4.92595)
(13.3288 7.76944e-19 4.99717)
(12.6517 2.25599e-19 4.3767)
(12.7894 0 4.46932)
(12.9427 -1.05443e-19 4.55923)
(13.0983 5.01192e-20 4.64625)
(13.2494 2.43925e-20 4.73106)
(13.3948 -1.15742e-20 4.81476)
(13.5345 -7.5159e-19 4.89824)
(13.6674 7.86065e-19 4.98198)
(12.6878 -1.01596e-18 4.15273)
(12.8243 -1.08046e-19 4.2463)
(12.9776 9.22506e-19 4.33857)
(13.1357 -2.1188e-20 4.42933)
(13.2923 -1.55868e-18 4.51914)
(13.4468 7.42059e-19 4.60906)
(13.6 0 4.70002)
(13.7516 -8.44975e-20 4.79263)
(13.9008 5.60548e-19 4.88707)
(12.7208 -5.14736e-22 3.92618)
(12.856 1.05912e-19 4.01889)
(13.0092 0 4.11126)
(13.1687 0 4.20296)
(13.3287 0 4.2944)
(13.4891 7.244e-19 4.38649)
(13.6509 -7.53598e-19 4.48011)
(13.8143 0 4.57594)
(13.9791 -9.44396e-22 4.67436)
(12.7501 1.08311e-19 3.69675)
(12.8842 -1.04933e-19 3.78721)
(13.0369 1.01232e-19 3.87799)
(13.1972 -4.87356e-20 3.96864)
(13.3593 -2.34498e-20 4.0594)
(13.5234 0 4.151)
(13.6906 -4.18043e-22 4.24422)
(13.8615 0 4.33967)
(14.0361 -5.46828e-19 4.43785)
(12.7755 0 3.46428)
(12.9084 -4.05625e-22 3.55139)
(13.0604 -4.93284e-20 3.63927)
(13.2208 -7.09124e-19 3.72739)
(13.3841 1.47356e-18 3.81584)
(13.5505 -7.17586e-19 3.90516)
(13.7211 4.23684e-20 3.99599)
(13.8967 -4.10361e-20 4.08885)
(14.0775 6.17392e-19 4.18422)
(12.7965 0 3.22864)
(12.9282 -8.03279e-19 3.31155)
(13.0793 7.41372e-19 3.39553)
(13.2395 -4.7214e-20 3.48)
(13.4032 2.2599e-20 3.56491)
(13.5709 -5.47028e-21 3.65068)
(13.7436 0 3.73778)
(13.922 8.05115e-20 3.82664)
(14.1065 0 3.91763)
(12.8128 5.1505e-20 2.9898)
(12.9434 9.93951e-20 3.06783)
(13.0934 0 3.14712)
(13.2529 4.62095e-20 3.22706)
(13.4166 0 3.30751)
(13.5847 5.34934e-21 3.38877)
(13.7585 6.31495e-19 3.47119)
(13.9385 -6.82283e-19 3.55509)
(14.1251 0 3.64075)
(12.8243 7.5162e-19 2.74773)
(12.9536 -8.35891e-19 2.82035)
(13.1023 7.47612e-19 2.89433)
(13.2609 -7.355e-19 2.96905)
(13.4242 0 3.04432)
(13.5922 -6.62289e-19 3.12034)
(13.7663 3.59934e-20 3.19736)
(13.947 6.32236e-19 3.27562)
(14.1347 7.51328e-20 3.35532)
(12.8307 -1.5829e-18 2.50239)
(12.9587 8.19335e-19 2.56917)
(13.1061 0 2.63736)
(13.2636 0 2.70631)
(13.426 -6.81444e-19 2.77583)
(13.5935 6.75911e-19 2.84603)
(13.7673 0 2.91711)
(13.948 -6.05896e-19 2.98922)
(14.136 -5.75621e-20 3.06249)
(12.8322 7.31463e-19 2.25377)
(12.9589 -4.69564e-20 2.31438)
(13.1048 -2.27101e-20 2.37638)
(13.2609 0 2.43915)
(13.4223 0 2.50246)
(13.5889 6.33849e-19 2.56641)
(13.762 -6.33901e-19 2.63112)
(13.9422 0 2.69668)
(14.1297 -3.62732e-20 2.76319)
(12.829 -7.62878e-19 2.00178)
(12.9542 -6.83391e-19 2.05595)
(13.0986 7.38988e-19 2.11144)
(13.2532 1.07365e-20 2.16768)
(13.4132 0 2.22444)
(13.5786 -9.98903e-21 2.28177)
(13.7507 -5.886e-19 2.33976)
(13.9299 5.98391e-19 2.39847)
(14.1165 7.10095e-20 2.45795)
(12.8211 4.62975e-20 1.74656)
(12.9449 7.13472e-19 1.79407)
(13.0876 -7.22899e-19 1.84282)
(13.2406 1.89372e-23 1.89226)
(13.3991 0 1.94218)
(13.5631 -2.70177e-23 1.9926)
(13.7338 -6.14528e-19 2.04359)
(13.9117 6.22661e-19 2.09518)
(14.0971 -3.47393e-20 2.14741)
(12.8087 7.28081e-19 1.48761)
(12.9311 -7.19255e-19 1.52828)
(13.0721 1.38067e-18 1.57005)
(13.2234 -6.72975e-19 1.61244)
(13.3802 6.28125e-19 1.65526)
(13.5426 -6.0821e-19 1.69852)
(13.7117 5.8319e-19 1.74226)
(13.8881 -6.09349e-19 1.78649)
(14.072 0 1.83124)
(12.792 0 1.22586)
(12.9128 2.14214e-20 1.25955)
(13.0521 -6.48095e-19 1.29419)
(13.2016 1.27812e-18 1.32936)
(13.3566 -6.2508e-19 1.3649)
(13.5173 -5.82566e-19 1.40081)
(13.6847 5.82274e-19 1.43711)
(13.8594 5.6603e-19 1.47381)
(14.0416 -5.4008e-19 1.51093)
(12.7713 1.37688e-18 0.958826)
(12.8906 -6.72302e-19 0.985317)
(13.028 -2.02346e-20 1.01258)
(13.1756 4.88696e-21 1.04028)
(13.3289 -5.9909e-19 1.06827)
(13.4877 6.67411e-21 1.09655)
(13.6533 5.59498e-19 1.12513)
(13.8262 5.18909e-19 1.15402)
(14.0066 -5.2741e-19 1.18323)
(12.7459 6.66569e-19 0.691151)
(12.8636 -6.54673e-19 0.710433)
(12.9992 1.47784e-20 0.730311)
(13.1449 6.04519e-19 0.750505)
(13.2962 -5.94243e-19 0.77091)
(13.4532 5.5176e-24 0.791531)
(13.6168 1.71365e-20 0.812382)
(13.7877 0 0.833459)
(13.9661 5.02428e-19 0.854758)
(12.717 0 0.412747)
(12.833 0 0.424366)
(12.9667 -4.7892e-21 0.43635)
(13.1104 -2.9276e-19 0.448491)
(13.2598 2.89478e-19 0.460737)
(13.4147 -4.31899e-21 0.473105)
(13.5764 -8.33262e-21 0.485603)
(13.7453 0 0.49823)
(13.9217 0 0.510984)
(12.4867 0 0.142595)
(12.6005 -1.53408e-19 0.146911)
(12.7316 2.99175e-19 0.151349)
(12.8729 -1.47026e-19 0.155825)
(13.0198 -5.45913e-22 0.160335)
(13.1723 0 0.164886)
(13.3315 0 0.169482)
(13.498 0 0.174118)
(13.672 0 0.178796)
)
;

boundaryField
{
    inlet
    {
        type            fixedValue;
        value           nonuniform 0();
    }
    outlet
    {
        type            zeroGradient;
    }
    flap
    {
        type            movingWallVelocity;
        value           nonuniform 0();
    }
    upperWall
    {
        type            noSlip;
    }
    lowerWall
    {
        type            noSlip;
    }
    frontAndBack
    {
        type            empty;
    }
    procBoundary1to0
    {
        type            processor;
        value           nonuniform List<vector> 
18
(
(10.9954 -1.02152e-18 2.58179)
(11.0615 2.27385e-19 2.45792)
(11.0615 2.27385e-19 2.45792)
(11.0038 -1.08835e-19 2.18276)
(11.0542 -4.16775e-19 2.05907)
(11.0984 1.02266e-18 1.93001)
(11.1366 -4.00015e-19 1.79604)
(11.1691 -3.84791e-19 1.65754)
(11.1959 -1.25397e-21 1.51485)
(11.2171 -1.02248e-21 1.3683)
(11.2333 -3.58471e-19 1.21807)
(11.2448 0 1.0645)
(11.252 3.35952e-19 0.90747)
(11.2551 4.91013e-19 0.747782)
(11.2546 -4.0137e-19 0.58427)
(11.2506 -8.08676e-20 0.419589)
(11.2435 1.89567e-19 0.249305)
(11.0523 -1.10161e-19 0.0828271)
)
;
    }
    procBoundary1to2
    {
        type            processor;
        value           nonuniform List<vector> 
17
(
(14.0467 6.353e-19 4.983)
(14.1452 0 4.77538)
(14.2148 -6.94377e-19 4.53899)
(14.2638 6.08545e-19 4.28241)
(14.2974 1.47852e-19 4.01107)
(14.3187 -7.25249e-20 3.72843)
(14.3296 0 3.43663)
(14.3313 0 3.13704)
(14.3248 0 2.83071)
(14.3109 0 2.51824)
(14.2903 0 2.20028)
(14.2637 0 1.8765)
(14.2316 0 1.54845)
(14.1947 0 1.21273)
(14.1523 4.79431e-19 0.876276)
(14.1059 1.4853e-20 0.523865)
(13.8538 0 0.183515)
)
;
    }
    procBoundary1to3
    {
        type            processor;
        value           nonuniform List<vector> 9((9.94413 1.26978e-18 3.28976) (10.1054 0 3.26126) (10.2564 0 3.21689) (10.396 -1.12849e-18 3.15815) (10.5236 5.37724e-19 3.0866) (10.6394 -1.04888e-18 3.00377) (10.7436 2.50202e-19 2.9109) (10.8372 0 2.80902) (10.9209 1.1937e-19 2.69905));
    }
    procBoundary1to4
    {
        type            processor;
        value           nonuniform List<vector> 
30
(
(9.83192 -1.31144e-18 3.6324)
(10.118 0 3.94229)
(10.118 0 3.94229)
(10.2465 0 4.29426)
(10.6035 1.10281e-18 4.52979)
(10.6035 1.10281e-18 4.52979)
(10.7963 0 4.85097)
(11.1722 7.83343e-19 4.94196)
(11.1722 7.83343e-19 4.94196)
(11.397 -2.36712e-19 5.17249)
(11.7225 1.97294e-18 5.11702)
(11.7225 1.97294e-18 5.11702)
(11.9509 -1.04473e-18 5.26457)
(12.078 1.71189e-19 5.32918)
(12.2504 -1.46354e-18 5.13831)
(12.2504 -1.46354e-18 5.13831)
(12.3383 1.46417e-18 5.18514)
(12.488 0 5.25787)
(12.6724 -6.54692e-19 5.10901)
(12.6724 -6.54692e-19 5.10901)
(12.8183 9.81644e-19 5.16444)
(12.9471 -1.03255e-19 5.20417)
(13.134 0 5.09643)
(13.134 0 5.09643)
(13.2402 7.74712e-19 5.14554)
(13.4469 7.81857e-19 5.06578)
(13.4469 7.81857e-19 5.06578)
(13.5505 0 5.1321)
(13.7919 -8.15805e-19 5.06584)
(13.7919 -8.15805e-19 5.06584)
)
;
    }
}


// ************************************************************************* //
