/*--------------------------------*- C++ -*----------------------------------*\
| =========                 |                                                 |
| \\      /  F ield         | OpenFOAM: The Open Source CFD Toolbox           |
|  \\    /   O peration     | Version:  dev                                   |
|   \\  /    A nd           | Web:      www.OpenFOAM.org                      |
|    \\/     M anipulation  |                                                 |
\*---------------------------------------------------------------------------*/
FoamFile
{
    version     2.0;
    format      ascii;
    class       volVectorField;
    location    "4.04";
    object      cellDisplacement;
}
// * * * * * * * * * * * * * * * * * * * * * * * * * * * * * * * * * * * * * //

dimensions      [0 1 0 0 0 0 0];

internalField   nonuniform List<vector> 
2790
(
(0.00131469 0 1.75456e-06)
(0.00378219 0 5.1063e-06)
(0.00594598 0 8.20875e-06)
(0.00782725 0 1.11626e-05)
(0.00944664 0 1.40521e-05)
(0.0108232 0 1.69499e-05)
(0.0119744 0 1.99214e-05)
(0.0129157 0 2.30281e-05)
(0.0136609 0 2.63301e-05)
(0.0142224 0 2.9888e-05)
(0.0146108 0 3.3765e-05)
(0.0148353 0 3.80284e-05)
(0.0149038 0 4.27509e-05)
(0.0148231 0 4.80118e-05)
(0.0145993 0 5.38985e-05)
(0.0142375 0 6.05075e-05)
(0.0137428 0 6.79462e-05)
(0.0131201 0 7.63345e-05)
(0.0123749 0 8.58076e-05)
(0.0115137 0 9.65206e-05)
(0.0105448 0 0.000108654)
(0.0094789 0 0.000122421)
(0.00833043 0 0.000138083)
(0.00711839 0 0.00015595)
(0.00586795 0 0.000176392)
(0.00461261 0 0.000199799)
(0.00339765 0 0.000226489)
(0.00228646 0 0.000256386)
(0.00137388 0 0.00028805)
(0.000823353 0 0.000315278)
(0.0013161 0 5.25256e-06)
(0.00378638 0 1.52862e-05)
(0.00595294 0 2.45725e-05)
(0.00783712 0 3.34124e-05)
(0.00945972 0 4.20574e-05)
(0.0108399 0 5.07245e-05)
(0.0119952 0 5.96086e-05)
(0.0129412 0 6.88928e-05)
(0.0136921 0 7.87557e-05)
(0.01426 0 8.93774e-05)
(0.014656 0 0.000100945)
(0.0148893 0 0.000113659)
(0.0149681 0 0.000127732)
(0.0148995 0 0.000143399)
(0.0146897 0 0.000160916)
(0.0143442 0 0.000180567)
(0.0138683 0 0.000202663)
(0.0132672 0 0.000227551)
(0.0125468 0 0.00025562)
(0.011714 0 0.000287307)
(0.0107774 0 0.000323113)
(0.00974826 0 0.000363621)
(0.00864143 0 0.000409519)
(0.00747678 0 0.000461603)
(0.00628057 0 0.000520758)
(0.00508791 0 0.00058781)
(0.00394626 0 0.000663118)
(0.00292168 0 0.000745452)
(0.00210998 0 0.000829032)
(0.00165841 0 0.000895308)
(0.00131891 0 8.71661e-06)
(0.00379472 0 2.53663e-05)
(0.00596679 0 4.07727e-05)
(0.00785676 0 5.54328e-05)
(0.00948569 0 6.97622e-05)
(0.010873 0 8.41186e-05)
(0.0120364 0 9.88231e-05)
(0.0129919 0 0.000114176)
(0.0137537 0 0.00013047)
(0.0143344 0 0.000147999)
(0.0147453 0 0.000167069)
(0.014996 0 0.000188001)
(0.0150952 0 0.000211142)
(0.0150504 0 0.000236868)
(0.0148682 0 0.000265588)
(0.0145547 0 0.000297752)
(0.0141158 0 0.00033385)
(0.0135574 0 0.000374419)
(0.0128858 0 0.000420047)
(0.0121087 0 0.00047138)
(0.0112353 0 0.00052913)
(0.0102776 0 0.000594087)
(0.00925131 0 0.00066712)
(0.00817749 0 0.000749152)
(0.00708375 0 0.000841049)
(0.00600672 0 0.000943307)
(0.00499498 0 0.00105526)
(0.00411289 0 0.00117324)
(0.00344528 0 0.00128652)
(0.003104 0 0.00136879)
(0.00132308 0 1.21237e-05)
(0.00380708 0 3.5279e-05)
(0.0059873 0 5.66982e-05)
(0.00788584 0 7.70684e-05)
(0.00952412 0 9.69632e-05)
(0.010922 0 0.000116876)
(0.0120974 0 0.000137247)
(0.0130667 0 0.000158488)
(0.0138446 0 0.000180998)
(0.0144442 0 0.000205176)
(0.014877 0 0.000231434)
(0.0151534 0 0.000260203)
(0.0152824 0 0.000291947)
(0.0152724 0 0.000327163)
(0.0151306 0 0.000366388)
(0.014864 0 0.000410207)
(0.0144791 0 0.000459245)
(0.0139828 0 0.000514174)
(0.0133823 0 0.000575708)
(0.0126858 0 0.000644594)
(0.0119037 0 0.000721605)
(0.0110486 0 0.000807515)
(0.0101369 0 0.000903062)
(0.00919055 0 0.00100885)
(0.00823766 0 0.00112514)
(0.00731504 0 0.00125138)
(0.00646968 0 0.00138521)
(0.00575981 0 0.00152053)
(0.00525383 0 0.00164372)
(0.00502723 0 0.00172736)
(0.00132855 0 1.54514e-05)
(0.00382327 0 4.49584e-05)
(0.00601416 0 7.22413e-05)
(0.00792388 0 9.81683e-05)
(0.00957439 0 0.000123464)
(0.0109859 0 0.000148748)
(0.012177 0 0.000174574)
(0.0131644 0 0.000201455)
(0.0139633 0 0.000229885)
(0.0145873 0 0.000260357)
(0.0150485 0 0.000293374)
(0.015358 0 0.000329462)
(0.0155256 0 0.000369177)
(0.0155605 0 0.000413112)
(0.0154707 0 0.000461903)
(0.0152643 0 0.000516225)
(0.0149488 0 0.000576792)
(0.014532 0 0.000644345)
(0.0140221 0 0.000719638)
(0.0134283 0 0.000803406)
(0.0127617 0 0.000896325)
(0.0120354 0 0.000998941)
(0.0112662 0 0.00111157)
(0.0104755 0 0.00123412)
(0.00969074 0 0.00136579)
(0.0089465 0 0.00150456)
(0.00828524 0 0.00164628)
(0.00775615 0 0.00178314)
(0.00741009 0 0.0019012)
(0.00729039 0 0.00197663)
(0.00133522 0 1.86783e-05)
(0.00384303 0 5.43413e-05)
(0.00604692 0 8.72982e-05)
(0.00797028 0 0.000118588)
(0.00963566 0 0.000149075)
(0.0110639 0 0.000179497)
(0.0122739 0 0.000210511)
(0.0132832 0 0.000242721)
(0.0141074 0 0.000276703)
(0.0147608 0 0.000313028)
(0.0152563 0 0.000352274)
(0.0156056 0 0.000395039)
(0.0158196 0 0.000441948)
(0.0159081 0 0.000493661)
(0.0158805 0 0.000550873)
(0.0157457 0 0.000614309)
(0.0155126 0 0.000684716)
(0.01519 0 0.000762841)
(0.0147871 0 0.000849398)
(0.0143142 0 0.000945009)
(0.0137828 0 0.00105013)
(0.013206 0 0.00116492)
(0.0126002 0 0.00128909)
(0.0119852 0 0.00142162)
(0.0113854 0 0.00156047)
(0.0108306 0 0.00170203)
(0.010356 0 0.00184055)
(0.00999972 0 0.00196736)
(0.0097965 0 0.00206988)
(0.00976497 0 0.00213057)
(0.00134299 0 2.17838e-05)
(0.00386605 0 6.33678e-05)
(0.00608507 0 0.000101771)
(0.00802426 0 0.00013819)
(0.00970689 0 0.00017362)
(0.0111544 0 0.000208904)
(0.0123865 0 0.00024479)
(0.013421 0 0.00028196)
(0.0142744 0 0.00032106)
(0.0149616 0 0.000362723)
(0.0154963 0 0.00040758)
(0.0158911 0 0.00045628)
(0.0161578 0 0.000509489)
(0.0163072 0 0.000567901)
(0.01635 0 0.000632233)
(0.0162963 0 0.000703216)
(0.0161559 0 0.00078158)
(0.0159391 0 0.000868019)
(0.0156561 0 0.000963142)
(0.0153178 0 0.00106739)
(0.0149362 0 0.00118094)
(0.014524 0 0.0013035)
(0.014096 0 0.00143411)
(0.0136691 0 0.00157085)
(0.0132627 0 0.00171046)
(0.0128993 0 0.00184798)
(0.0126039 0 0.00197643)
(0.0124022 0 0.0020868)
(0.0123151 0 0.00216863)
(0.012346 0 0.0022115)
(0.00135173 0 2.47491e-05)
(0.00389195 0 7.19823e-05)
(0.00612796 0 0.000115569)
(0.00808493 0 0.000156851)
(0.00978691 0 0.000196937)
(0.011256 0 0.000236768)
(0.0125126 0 0.000277168)
(0.0135753 0 0.000318884)
(0.014461 0 0.000362615)
(0.0151857 0 0.000409039)
(0.0157636 0 0.000458822)
(0.0162085 0 0.000512636)
(0.0165329 0 0.000571163)
(0.016749 0 0.000635099)
(0.0168684 0 0.000705143)
(0.0169025 0 0.000781995)
(0.0168624 0 0.000866319)
(0.0167594 0 0.000958714)
(0.0166049 0 0.00105964)
(0.0164104 0 0.00116934)
(0.016188 0 0.00128768)
(0.0159498 0 0.00141397)
(0.0157081 0 0.00154669)
(0.0154759 0 0.00168323)
(0.015266 0 0.00181944)
(0.0150912 0 0.00194943)
(0.0149643 0 0.00206554)
(0.0148971 0 0.0021589)
(0.0148982 0 0.00222119)
(0.014966 0 0.00224824)
(0.00136131 0 2.75572e-05)
(0.00392029 0 8.01349e-05)
(0.00617489 0 0.000128612)
(0.00815129 0 0.000174457)
(0.00987436 0 0.000218884)
(0.011367 0 0.000262913)
(0.0126502 0 0.000307433)
(0.0137433 0 0.000353242)
(0.014664 0 0.000401078)
(0.0154288 0 0.000451642)
(0.0160531 0 0.000505617)
(0.0165513 0 0.000563674)
(0.0169371 0 0.000626484)
(0.0172237 0 0.000694712)
(0.0174237 0 0.000769011)
(0.0175497 0 0.000850006)
(0.0176142 0 0.000938266)
(0.0176295 0 0.00103426)
(0.0176079 0 0.00113828)
(0.0175617 0 0.00125036)
(0.0175027 0 0.00137012)
(0.0174421 0 0.00149659)
(0.0173901 0 0.00162792)
(0.0173548 0 0.00176115)
(0.0173417 0 0.0018918)
(0.017353 0 0.00201371)
(0.0173875 0 0.00211918)
(0.0174419 0 0.00219989)
(0.0175132 0 0.00224927)
(0.0176014 0 0.00226712)
(0.00137156 0 3.0193e-05)
(0.00395062 0 8.77821e-05)
(0.0062251 0 0.000140829)
(0.00822223 0 0.000190913)
(0.00996779 0 0.000239338)
(0.0114854 0 0.000287191)
(0.0127968 0 0.000335412)
(0.0139221 0 0.000384836)
(0.0148796 0 0.000436221)
(0.0156866 0 0.000490277)
(0.0163592 0 0.000547683)
(0.0169128 0 0.000609088)
(0.017362 0 0.000675126)
(0.0177209 0 0.000746405)
(0.0180034 0 0.000823498)
(0.018223 0 0.000906931)
(0.0183932 0 0.000997143)
(0.0185274 0 0.00109445)
(0.0186389 0 0.00119898)
(0.0187403 0 0.00131058)
(0.0188436 0 0.00142871)
(0.0189592 0 0.00155225)
(0.019095 0 0.00167933)
(0.0192551 0 0.00180706)
(0.0194382 0 0.00193126)
(0.0196363 0 0.00204628)
(0.0198339 0 0.00214504)
(0.0200117 0 0.00221997)
(0.0201535 0 0.00226532)
(0.0202619 0 0.00228161)
(0.00138231 0 3.2644e-05)
(0.00398244 0 9.48872e-05)
(0.00627775 0 0.000152161)
(0.0082966 0 0.00020614)
(0.0100657 0 0.0002582)
(0.0116094 0 0.000309484)
(0.0129501 0 0.00036097)
(0.0141086 0 0.000413512)
(0.015104 0 0.000467877)
(0.0159543 0 0.000524769)
(0.0166762 0 0.000584839)
(0.017286 0 0.0006487)
(0.0177991 0 0.000716923)
(0.0182305 0 0.000790037)
(0.018595 0 0.000868514)
(0.018907 0 0.000952753)
(0.0191811 0 0.00104305)
(0.0194313 0 0.00113954)
(0.0196717 0 0.0012422)
(0.0199154 0 0.00135072)
(0.0201746 0 0.00146444)
(0.0204591 0 0.00158226)
(0.0207756 0 0.00170253)
(0.0211255 0 0.00182285)
(0.0215027 0 0.00193994)
(0.0218912 0 0.00204937)
(0.0222635 0 0.00214543)
(0.0225833 0 0.00222129)
(0.0228169 0 0.00227047)
(0.0229605 0 0.00229064)
(0.00139339 0 3.48999e-05)
(0.00401521 0 0.00010142)
(0.00633198 0 0.00016256)
(0.00837318 0 0.000220073)
(0.0101664 0 0.000275394)
(0.0117368 0 0.000329705)
(0.0131075 0 0.000384009)
(0.0142998 0 0.000439168)
(0.0153335 0 0.000495944)
(0.0162272 0 0.000555017)
(0.0169985 0 0.000617001)
(0.0176641 0 0.00068245)
(0.0182402 0 0.000751859)
(0.0187425 0 0.000825659)
(0.0191865 0 0.0009042)
(0.0195874 0 0.000987739)
(0.0199604 0 0.00107641)
(0.0203202 0 0.00117018)
(0.0206813 0 0.00126884)
(0.0210574 0 0.00137194)
(0.0214606 0 0.00147877)
(0.0219009 0 0.0015883)
(0.0223847 0 0.00169922)
(0.0229125 0 0.00180988)
(0.0234768 0 0.00191828)
(0.0240579 0 0.00202193)
(0.0246212 0 0.00211729)
(0.0251156 0 0.0021988)
(0.0254826 0 0.002258)
(0.0256903 0 0.00228566)
(0.0014046 0 3.69527e-05)
(0.00404839 0 0.000107359)
(0.0063869 0 0.000171992)
(0.00845074 0 0.000232668)
(0.0102684 0 0.000290865)
(0.0118657 0 0.000347794)
(0.0132664 0 0.000404468)
(0.0144925 0 0.000461748)
(0.0155643 0 0.000520377)
(0.0165009 0 0.000580999)
(0.0173205 0 0.000644177)
(0.0180403 0 0.000710395)
(0.0186771 0 0.000780059)
(0.0192471 0 0.000853488)
(0.0197663 0 0.000930902)
(0.0202504 0 0.0010124)
(0.0207149 0 0.00109795)
(0.0211748 0 0.00118734)
(0.0216449 0 0.00128019)
(0.0221389 0 0.00137588)
(0.0226692 0 0.00147364)
(0.0232459 0 0.0015725)
(0.0238757 0 0.00167141)
(0.0245605 0 0.00176944)
(0.0252942 0 0.00186591)
(0.0260596 0 0.00196054)
(0.0268232 0 0.00205305)
(0.0275275 0 0.00214118)
(0.0280875 0 0.00221594)
(0.0284114 0 0.00225711)
(0.00141577 0 3.87968e-05)
(0.00408145 0 0.000112688)
(0.00644164 0 0.000180432)
(0.00852804 0 0.000243894)
(0.0103699 0 0.00030458)
(0.011994 0 0.000363719)
(0.0134244 0 0.000422323)
(0.0146837 0 0.000481241)
(0.0157927 0 0.000541184)
(0.0167709 0 0.000602755)
(0.0176369 0 0.000666455)
(0.0184084 0 0.00073269)
(0.0191025 0 0.000801767)
(0.0197357 0 0.000873889)
(0.0203241 0 0.00094914)
(0.0208838 0 0.00102746)
(0.0214301 0 0.00110865)
(0.0219781 0 0.00119232)
(0.0225423 0 0.00127789)
(0.0231362 0 0.00136461)
(0.0237719 0 0.00145153)
(0.0244594 0 0.00153765)
(0.0252061 0 0.00162199)
(0.0260151 0 0.00170388)
(0.0268841 0 0.00178335)
(0.0278024 0 0.00186175)
(0.0287467 0 0.00194229)
(0.0296707 0 0.00202928)
(0.0304826 0 0.00212147)
(0.0310125 0 0.00219028)
(0.00142669 0 4.04286e-05)
(0.00411381 0 0.000117398)
(0.0064953 0 0.000187867)
(0.00860386 0 0.000253736)
(0.0104696 0 0.000316528)
(0.0121197 0 0.000377476)
(0.0135791 0 0.000437583)
(0.0148705 0 0.000497674)
(0.0160152 0 0.000558426)
(0.0170331 0 0.00062039)
(0.017943 0 0.000683998)
(0.0187628 0 0.000749576)
(0.0195096 0 0.000817331)
(0.0202003 0 0.000887349)
(0.0208508 0 0.000959577)
(0.021477 0 0.00103381)
(0.0220938 0 0.00110968)
(0.022716 0 0.00118663)
(0.0233573 0 0.0012639)
(0.0240303 0 0.00134054)
(0.0247463 0 0.00141545)
(0.0255145 0 0.0014874)
(0.0263417 0 0.00155519)
(0.0272312 0 0.00161779)
(0.0281825 0 0.00167476)
(0.0291899 0 0.00172683)
(0.0302408 0 0.00177737)
(0.0313106 0 0.00183567)
(0.0323419 0 0.00192105)
(0.0331657 0 0.00203448)
(0.000798812 0 -0.000247717)
(0.00139778 0 -0.000228884)
(0.00239736 0 -0.000204386)
(0.00362981 0 -0.000180732)
(0.00498427 0 -0.000159571)
(0.00638346 0 -0.000141093)
(0.00777152 0 -0.000125032)
(0.00910754 0 -0.000111023)
(0.0103617 0 -9.8727e-05)
(0.0115124 0 -8.78691e-05)
(0.0125451 0 -7.82403e-05)
(0.013449 0 -6.96748e-05)
(0.014217 0 -6.20415e-05)
(0.0148443 0 -5.52327e-05)
(0.0153273 0 -4.9155e-05)
(0.0156629 0 -4.37257e-05)
(0.0158479 0 -3.8869e-05)
(0.0158789 0 -3.45158e-05)
(0.0157514 0 -3.0602e-05)
(0.01546 0 -2.70684e-05)
(0.0149981 0 -2.38598e-05)
(0.0143576 0 -2.09246e-05)
(0.013529 0 -1.82139e-05)
(0.0125014 0 -1.56801e-05)
(0.0112621 0 -1.32762e-05)
(0.00979705 0 -1.09538e-05)
(0.00809061 0 -8.66161e-06)
(0.00612582 0 -6.34253e-06)
(0.00388457 0 -3.9309e-06)
(0.00134734 0 -1.34744e-06)
(0.00160049 0 -0.000699668)
(0.00213237 0 -0.000654303)
(0.00304951 0 -0.000590765)
(0.00420323 0 -0.000526611)
(0.00548638 0 -0.00046767)
(0.00682188 0 -0.000415298)
(0.0081532 0 -0.000369213)
(0.00943869 0 -0.00032864)
(0.0106478 0 -0.000292779)
(0.0117587 0 -0.000260946)
(0.012756 0 -0.000232606)
(0.013629 0 -0.000207323)
(0.01437 0 -0.000184743)
(0.0149739 0 -0.000164569)
(0.0154366 0 -0.000146539)
(0.0157549 0 -0.000130415)
(0.0159251 0 -0.000115979)
(0.0159435 0 -0.000103029)
(0.0158053 0 -9.13774e-05)
(0.0155048 0 -8.08509e-05)
(0.0150352 0 -7.12868e-05)
(0.0143882 0 -6.25327e-05)
(0.0135541 0 -5.44435e-05)
(0.0125217 0 -4.68785e-05)
(0.0112784 0 -3.96981e-05)
(0.00980987 0 -3.27583e-05)
(0.00810034 0 -2.59062e-05)
(0.00613272 0 -1.89716e-05)
(0.00388877 0 -1.17588e-05)
(0.00134877 0 -4.0309e-06)
(0.00302248 0 -0.0010588)
(0.00347872 0 -0.00100467)
(0.00427405 0 -0.000921128)
(0.00529621 0 -0.000831538)
(0.00645265 0 -0.000745841)
(0.00767102 0 -0.000667438)
(0.00889577 0 -0.000596889)
(0.010085 0 -0.000533699)
(0.0112077 0 -0.000477102)
(0.0122414 0 -0.000426358)
(0.0131702 0 -0.000380847)
(0.0139828 0 -0.000340023)
(0.014671 0 -0.000303416)
(0.0152291 0 -0.000270608)
(0.0156523 0 -0.000241212)
(0.0159365 0 -0.000214871)
(0.0160777 0 -0.000191245)
(0.0160713 0 -0.000170019)
(0.015912 0 -0.000150895)
(0.0155937 0 -0.000133594)
(0.0151089 0 -0.000117856)
(0.0144491 0 -0.000103433)
(0.0136041 0 -9.00922e-05)
(0.0125624 0 -7.76032e-05)
(0.0113111 0 -6.57378e-05)
(0.00983555 0 -5.42608e-05)
(0.00811984 0 -4.29204e-05)
(0.00614655 0 -3.1437e-05)
(0.00389717 0 -1.94874e-05)
(0.00135163 0 -6.68078e-06)
(0.00492496 0 -0.00132401)
(0.00530325 0 -0.00127004)
(0.0059612 0 -0.00118174)
(0.00682407 0 -0.00108202)
(0.00781883 0 -0.000982397)
(0.0088819 0 -0.000887868)
(0.00996139 0 -0.00080023)
(0.0110168 0 -0.000719847)
(0.0120176 0 -0.000646521)
(0.0129413 0 -0.00057987)
(0.013772 0 -0.000519478)
(0.0144978 0 -0.0004649)
(0.0151099 0 -0.00041568)
(0.0156017 0 -0.000371374)
(0.0159675 0 -0.000331539)
(0.0162024 0 -0.000295736)
(0.0163013 0 -0.000263544)
(0.0162588 0 -0.000234555)
(0.0160688 0 -0.000208381)
(0.0157243 0 -0.000184657)
(0.0152174 0 -0.000163035)
(0.0145387 0 -0.000143188)
(0.0136776 0 -0.000124799)
(0.0126223 0 -0.000107559)
(0.0113592 0 -9.11575e-05)
(0.00987341 0 -7.52729e-05)
(0.00814859 0 -5.95607e-05)
(0.00616696 0 -4.36363e-05)
(0.00390956 0 -2.70545e-05)
(0.00135584 0 -9.27592e-06)
(0.00717241 0 -0.001503)
(0.00747456 0 -0.00145463)
(0.00799512 0 -0.00137258)
(0.00869096 0 -0.00127529)
(0.00950793 0 -0.00117322)
(0.0103932 0 -0.00107205)
(0.0113009 0 -0.000974774)
(0.0121944 0 -0.000882949)
(0.0130453 0 -0.000797333)
(0.0138324 0 -0.000718231)
(0.0145401 0 -0.000645693)
(0.0151566 0 -0.000579551)
(0.0156724 0 -0.000519498)
(0.01608 0 -0.000465151)
(0.0163729 0 -0.000416072)
(0.0165448 0 -0.000371799)
(0.0165897 0 -0.00033186)
(0.016501 0 -0.000295786)
(0.0162716 0 -0.000263127)
(0.0158936 0 -0.000233448)
(0.0153581 0 -0.000206334)
(0.014655 0 -0.000181389)
(0.0137733 0 -0.000158228)
(0.0127002 0 -0.00013647)
(0.0114218 0 -0.000115733)
(0.00992269 0 -9.56166e-05)
(0.00818602 0 -7.56905e-05)
(0.00619351 0 -5.5472e-05)
(0.00392568 0 -3.44006e-05)
(0.00136131 0 -1.17961e-05)
(0.00963863 0 -0.0016081)
(0.00987245 0 -0.00157028)
(0.010268 0 -0.0015025)
(0.010804 0 -0.00141652)
(0.0114416 0 -0.00132044)
(0.0121393 0 -0.00121999)
(0.0128598 0 -0.00111925)
(0.0135723 0 -0.00102107)
(0.0142528 0 -0.000927352)
(0.0148829 0 -0.000839258)
(0.0154483 0 -0.000757443)
(0.0159374 0 -0.000682129)
(0.0163406 0 -0.000613241)
(0.0166496 0 -0.000550524)
(0.0168566 0 -0.000493603)
(0.0169544 0 -0.000442028)
(0.0169353 0 -0.000395317)
(0.0167918 0 -0.000352974)
(0.0165155 0 -0.000314509)
(0.0160974 0 -0.000279443)
(0.0155277 0 -0.000247313)
(0.0147956 0 -0.000217669)
(0.0138889 0 -0.000190072)
(0.0127944 0 -0.000164083)
(0.0114976 0 -0.000139258)
(0.00998239 0 -0.000115128)
(0.00823138 0 -9.1184e-05)
(0.0062257 0 -6.6854e-05)
(0.00394522 0 -4.14709e-05)
(0.00136795 0 -1.42227e-05)
(0.0122171 0 -0.00165913)
(0.0123984 0 -0.00163561)
(0.0126906 0 -0.0015864)
(0.0130828 0 -0.00151611)
(0.0135482 0 -0.00143038)
(0.0140569 0 -0.00133491)
(0.0145822 0 -0.00123478)
(0.0151021 0 -0.00113404)
(0.0155988 0 -0.00103569)
(0.0160578 0 -0.000941729)
(0.016467 0 -0.000853406)
(0.0168159 0 -0.00077134)
(0.0170945 0 -0.000695709)
(0.0172939 0 -0.000626417)
(0.0174053 0 -0.000563178)
(0.01742 0 -0.000505594)
(0.0173293 0 -0.0004532)
(0.0171241 0 -0.000405504)
(0.0167948 0 -0.000362002)
(0.0163313 0 -0.000322195)
(0.0157227 0 -0.000285591)
(0.0149573 0 -0.000251707)
(0.0140221 0 -0.000220062)
(0.0129032 0 -0.000190176)
(0.0115851 0 -0.000161551)
(0.0100514 0 -0.00013366)
(0.00828379 0 -0.000105927)
(0.0062629 0 -7.77006e-05)
(0.0039678 0 -4.82152e-05)
(0.00137561 0 -1.65386e-05)
(0.0148384 0 -0.00168349)
(0.0149872 0 -0.00167396)
(0.0151992 0 -0.00164212)
(0.0154646 0 -0.00158654)
(0.0157662 0 -0.00151106)
(0.0160873 0 -0.00142149)
(0.0164141 0 -0.00132372)
(0.0167352 0 -0.00122275)
(0.0170403 0 -0.00112236)
(0.01732 0 -0.00102518)
(0.0175649 0 -0.000932883)
(0.0177656 0 -0.000846398)
(0.0179121 0 -0.000766114)
(0.0179949 0 -0.00069208)
(0.0180041 0 -0.000624111)
(0.0179298 0 -0.000561878)
(0.0177618 0 -0.00050496)
(0.0174898 0 -0.000452893)
(0.0171029 0 -0.000405185)
(0.0165899 0 -0.000361339)
(0.0159389 0 -0.000320855)
(0.0151369 0 -0.000283232)
(0.0141703 0 -0.00024797)
(0.0130242 0 -0.000214554)
(0.0116827 0 -0.00018245)
(0.0101283 0 -0.000151083)
(0.00834226 0 -0.00011982)
(0.0063044 0 -8.79392e-05)
(0.00399298 0 -5.4589e-05)
(0.00138416 0 -1.87286e-05)
(0.017478 0 -0.00170787)
(0.0176093 0 -0.00170694)
(0.0177556 0 -0.00168557)
(0.0179026 0 -0.0016388)
(0.0180434 0 -0.0015696)
(0.0181765 0 -0.00148405)
(0.018303 0 -0.00138852)
(0.0184228 0 -0.00128843)
(0.0185339 0 -0.00118786)
(0.0186317 0 -0.00108965)
(0.0187096 0 -0.000995662)
(0.0187591 0 -0.000906957)
(0.0187706 0 -0.000824044)
(0.0187337 0 -0.000747079)
(0.0186375 0 -0.000675972)
(0.0184708 0 -0.00061047)
(0.0182224 0 -0.000550215)
(0.0178805 0 -0.000494791)
(0.0174331 0 -0.000443742)
(0.0168679 0 -0.000396592)
(0.0161716 0 -0.000352854)
(0.0153307 0 -0.000312029)
(0.0143304 0 -0.000273607)
(0.0131552 0 -0.000237058)
(0.0117884 0 -0.000201822)
(0.0102117 0 -0.000167288)
(0.00840568 0 -0.000132777)
(0.00634942 0 -9.75068e-05)
(0.0040203 0 -6.05534e-05)
(0.00139343 0 -2.07794e-05)
(0.0201432 0 -0.00174699)
(0.0202592 0 -0.00174677)
(0.0203366 0 -0.00172581)
(0.0203583 0 -0.00167906)
(0.0203314 0 -0.00161003)
(0.0202723 0 -0.00152516)
(0.020197 0 -0.0014308)
(0.0201166 0 -0.00133209)
(0.0200361 0 -0.0012328)
(0.0199549 0 -0.0011355)
(0.0198685 0 -0.00104191)
(0.0197692 0 -0.000953038)
(0.0196471 0 -0.000869421)
(0.0194912 0 -0.000791272)
(0.0192897 0 -0.000718576)
(0.0190303 0 -0.000651161)
(0.0187006 0 -0.000588747)
(0.0182876 0 -0.000530981)
(0.0177784 0 -0.000477462)
(0.0171593 0 -0.000427757)
(0.0164163 0 -0.000381407)
(0.0155349 0 -0.000337931)
(0.0144995 0 -0.000296826)
(0.0132938 0 -0.00025756)
(0.0119002 0 -0.000219556)
(0.0103 0 -0.000182182)
(0.0084729 0 -0.000144724)
(0.00639714 0 -0.00010635)
(0.00404926 0 -6.60754e-05)
(0.00140326 0 -2.26797e-05)
(0.0228476 0 -0.00180006)
(0.022934 0 -0.00179349)
(0.0229173 0 -0.00176281)
(0.0227892 0 -0.00170704)
(0.0225779 0 -0.0016321)
(0.0223193 0 -0.00154487)
(0.022043 0 -0.00145093)
(0.0217681 0 -0.00135431)
(0.0215041 0 -0.00125781)
(0.0212527 0 -0.00116329)
(0.0210103 0 -0.00107208)
(0.0207692 0 -0.000984988)
(0.0205193 0 -0.000902475)
(0.0202489 0 -0.000824783)
(0.0199453 0 -0.000751965)
(0.0195955 0 -0.000683933)
(0.0191858 0 -0.000620492)
(0.0187024 0 -0.000561371)
(0.0181314 0 -0.000506239)
(0.0174583 0 -0.000454719)
(0.0166682 0 -0.000406397)
(0.0157456 0 -0.000360826)
(0.0146744 0 -0.000317523)
(0.0134373 0 -0.000275963)
(0.0120162 0 -0.000235569)
(0.0103917 0 -0.000195695)
(0.00854266 0 -0.000155603)
(0.00644666 0 -0.000114427)
(0.0040793 0 -7.1128e-05)
(0.00141345 0 -2.44201e-05)
(0.0255874 0 -0.00185677)
(0.025611 0 -0.00183767)
(0.0254519 0 -0.0017879)
(0.0251347 0 -0.00171583)
(0.0247183 0 -0.00163132)
(0.0242562 0 -0.0015409)
(0.0237858 0 -0.00144823)
(0.0233292 0 -0.00135535)
(0.0228967 0 -0.00126358)
(0.02249 0 -0.00117386)
(0.0221053 0 -0.00108697)
(0.0217343 0 -0.00100346)
(0.0213664 0 -0.000923717)
(0.0209893 0 -0.000847987)
(0.0205898 0 -0.000776395)
(0.0201541 0 -0.000708943)
(0.0196679 0 -0.000645535)
(0.0191166 0 -0.000585991)
(0.0184855 0 -0.000530061)
(0.0177593 0 -0.000477441)
(0.0169225 0 -0.000427773)
(0.015959 0 -0.000380654)
(0.0148518 0 -0.000335632)
(0.0135832 0 -0.000292204)
(0.0121343 0 -0.000249802)
(0.010485 0 -0.000207776)
(0.00861372 0 -0.000165373)
(0.0064971 0 -0.000121704)
(0.00410989 0 -7.56905e-05)
(0.00142382 0 -2.59935e-05)
(0.0283252 0 -0.00190374)
(0.0282234 0 -0.0018624)
(0.0278513 0 -0.00178422)
(0.0273038 0 -0.00169283)
(0.0266713 0 -0.00160024)
(0.0260145 0 -0.00150985)
(0.0253692 0 -0.0014218)
(0.0247539 0 -0.00133565)
(0.0241761 0 -0.00125115)
(0.0236355 0 -0.00116839)
(0.0231272 0 -0.00108769)
(0.0226422 0 -0.00100942)
(0.0221696 0 -0.00093392)
(0.0216967 0 -0.000861482)
(0.0212099 0 -0.000792311)
(0.0206951 0 -0.000726512)
(0.0201375 0 -0.000664095)
(0.0195222 0 -0.00060498)
(0.0188338 0 -0.000549012)
(0.0180567 0 -0.000495963)
(0.0171747 0 -0.000445543)
(0.0161712 0 -0.000397403)
(0.0150287 0 -0.000351132)
(0.0137289 0 -0.000306255)
(0.0122523 0 -0.000262222)
(0.0105784 0 -0.000218391)
(0.00868479 0 -0.000174005)
(0.00654752 0 -0.000128158)
(0.00414045 0 -7.97481e-05)
(0.00143418 0 -2.73945e-05)
(0.0309511 0 -0.00192001)
(0.0306137 0 -0.0018363)
(0.0299581 0 -0.00172464)
(0.0291685 0 -0.0016216)
(0.0283412 0 -0.00153124)
(0.0275242 0 -0.00144935)
(0.0267409 0 -0.00137194)
(0.0260021 0 -0.00129661)
(0.0253102 0 -0.00122224)
(0.0246629 0 -0.00114855)
(0.0240541 0 -0.00107572)
(0.0234746 0 -0.00100411)
(0.0229132 0 -0.000934095)
(0.0223575 0 -0.000866061)
(0.021794 0 -0.000800322)
(0.0212085 0 -0.000737095)
(0.0205862 0 -0.000676505)
(0.0199121 0 -0.000618578)
(0.0191705 0 -0.000563255)
(0.0183454 0 -0.000510393)
(0.0174205 0 -0.000459774)
(0.0163787 0 -0.000411109)
(0.015202 0 -0.000364035)
(0.0138718 0 -0.000318114)
(0.0123683 0 -0.000272821)
(0.0106701 0 -0.000227528)
(0.0087546 0 -0.000181485)
(0.006597 0 -0.000133778)
(0.00417039 0 -8.32921e-05)
(0.00144432 0 -2.86202e-05)
(0.0331196 0 -0.00184047)
(0.0324456 0 -0.00169061)
(0.0315333 0 -0.00157195)
(0.0305785 0 -0.00148894)
(0.0296353 0 -0.00142225)
(0.0287258 0 -0.00136135)
(0.0278604 0 -0.00130162)
(0.0270436 0 -0.00124119)
(0.0262755 0 -0.00117948)
(0.0255527 0 -0.00111657)
(0.0248695 0 -0.00105293)
(0.024217 0 -0.000989035)
(0.0235847 0 -0.000925443)
(0.0229609 0 -0.000862674)
(0.0223325 0 -0.000801165)
(0.021686 0 -0.00074126)
(0.0210068 0 -0.000683194)
(0.0202799 0 -0.000627103)
(0.0194899 0 -0.000573022)
(0.0186208 0 -0.000520895)
(0.0176559 0 -0.00047058)
(0.016578 0 -0.000421849)
(0.0153689 0 -0.000374391)
(0.0140097 0 -0.000327811)
(0.0124802 0 -0.000281613)
(0.0107587 0 -0.000235193)
(0.00882189 0 -0.000187811)
(0.00664462 0 -0.000138561)
(0.00419915 0 -8.63194e-05)
(0.00145404 0 -2.9669e-05)
(0.00143742 0 4.18653e-05)
(0.0041456 0 0.000121542)
(0.00654793 0 0.000194413)
(0.00867833 0 0.000262349)
(0.0105675 0 0.000326903)
(0.0122433 0 0.000389297)
(0.0137309 0 0.000450518)
(0.0150534 0 0.00051136)
(0.0162325 0 0.000572458)
(0.0172882 0 0.000634305)
(0.0182395 0 0.000697267)
(0.0191042 0 0.000761582)
(0.0198997 0 0.000827358)
(0.0206422 0 0.000894569)
(0.0213477 0 0.000963037)
(0.0220313 0 0.00103242)
(0.0227076 0 0.0011022)
(0.0233901 0 0.00117165)
(0.0240914 0 0.00123986)
(0.0248228 0 0.00130571)
(0.0255939 0 0.00136787)
(0.0264118 0 0.00142485)
(0.0272814 0 0.00147499)
(0.0282039 0 0.00151647)
(0.0291763 0 0.00154719)
(0.0301906 0 0.00156421)
(0.0312314 0 0.00156202)
(0.0322727 0 0.00152719)
(0.033278 0 0.0014249)
(0.034181 0 0.00117834)
(0.0014478 0 4.31077e-05)
(0.00417644 0 0.000125114)
(0.00659917 0 0.000200033)
(0.0087508 0 0.000269731)
(0.010663 0 0.000335698)
(0.0123637 0 0.000399178)
(0.0138787 0 0.000461127)
(0.0152314 0 0.000522305)
(0.0164433 0 0.000583297)
(0.0175348 0 0.000644538)
(0.0185247 0 0.000706322)
(0.0194308 0 0.000768804)
(0.0202701 0 0.000832)
(0.0210587 0 0.000895775)
(0.0218116 0 0.000959838)
(0.0225435 0 0.00102373)
(0.0232676 0 0.0010868)
(0.0239964 0 0.0011482)
(0.0247408 0 0.00120687)
(0.0255102 0 0.00126154)
(0.0263118 0 0.0013107)
(0.0271502 0 0.0013526)
(0.028027 0 0.00138515)
(0.0289399 0 0.00140572)
(0.029881 0 0.00141093)
(0.0308367 0 0.0013956)
(0.0317859 0 0.00135095)
(0.0326938 0 0.00126247)
(0.0335071 0 0.00110699)
(0.0341745 0 0.000845689)
(0.0014575 0 4.4137e-05)
(0.00420539 0 0.000128068)
(0.00664758 0 0.000204636)
(0.00881955 0 0.000275722)
(0.0107535 0 0.000342785)
(0.0124782 0 0.000406976)
(0.0140192 0 0.000469269)
(0.0154002 0 0.000530376)
(0.0166429 0 0.000590836)
(0.0177674 0 0.00065102)
(0.0187924 0 0.000711155)
(0.0197357 0 0.000771319)
(0.0206135 0 0.000831438)
(0.0214414 0 0.00089129)
(0.0222339 0 0.000950485)
(0.0230042 0 0.00100846)
(0.0237647 0 0.00106448)
(0.0245262 0 0.00111759)
(0.0252978 0 0.00116664)
(0.0260868 0 0.00121025)
(0.026898 0 0.00124678)
(0.027733 0 0.0012743)
(0.0285907 0 0.00129054)
(0.0294658 0 0.00129229)
(0.0303462 0 0.00127582)
(0.0312153 0 0.00123575)
(0.0320461 0 0.00116466)
(0.0328019 0 0.00105269)
(0.0334442 0 0.000885183)
(0.0339356 0 0.000633302)
(0.00146628 0 4.49434e-05)
(0.00423178 0 0.000130376)
(0.00669202 0 0.000208207)
(0.00888315 0 0.000280281)
(0.0108376 0 0.000348065)
(0.0125845 0 0.000412655)
(0.0141499 0 0.000474912)
(0.0155572 0 0.000535566)
(0.016828 0 0.0005951)
(0.0179825 0 0.000653823)
(0.019039 0 0.0007119)
(0.0200147 0 0.000769339)
(0.0209255 0 0.000825992)
(0.0217861 0 0.000881559)
(0.0226101 0 0.000935577)
(0.0234097 0 0.000987414)
(0.0241958 0 0.00103626)
(0.0249777 0 0.00108111)
(0.0257627 0 0.00112076)
(0.0265561 0 0.00115379)
(0.0273603 0 0.00117852)
(0.0281747 0 0.00119295)
(0.0289973 0 0.00119473)
(0.0298191 0 0.00118098)
(0.0306244 0 0.00114823)
(0.0313954 0 0.00109222)
(0.0321078 0 0.00100782)
(0.0327341 0 0.000887986)
(0.0332459 0 0.000722991)
(0.0336121 0 0.000498471)
(0.00147391 0 4.55194e-05)
(0.00425493 0 0.000132017)
(0.00673146 0 0.000210715)
(0.00894009 0 0.000283407)
(0.0109136 0 0.000351512)
(0.012681 0 0.000416134)
(0.0142685 0 0.000478062)
(0.0156997 0 0.0005379)
(0.0169959 0 0.000596155)
(0.0181769 0 0.000653061)
(0.0192608 0 0.000708738)
(0.0202643 0 0.000763133)
(0.0212025 0 0.000816034)
(0.0220893 0 0.000867082)
(0.0229373 0 0.000915764)
(0.0237575 0 0.000961404)
(0.0245595 0 0.00100316)
(0.0253511 0 0.00104002)
(0.0261381 0 0.00107078)
(0.026924 0 0.00109404)
(0.0277099 0 0.00110817)
(0.0284937 0 0.00111122)
(0.0292699 0 0.00110112)
(0.0300278 0 0.00107571)
(0.0307538 0 0.00103212)
(0.0314316 0 0.000967167)
(0.0320419 0 0.000877215)
(0.0325641 0 0.0007579)
(0.0329771 0 0.000604192)
(0.0332594 0 0.000411788)
(0.00148016 0 4.58603e-05)
(0.0042742 0 0.000132978)
(0.00676489 0 0.000212142)
(0.00898904 0 0.00028508)
(0.0109796 0 0.000353157)
(0.0127656 0 0.000417422)
(0.0143729 0 0.000478676)
(0.0158253 0 0.000537439)
(0.0171438 0 0.000594106)
(0.0183477 0 0.000648888)
(0.019455 0 0.000701896)
(0.0204815 0 0.000753016)
(0.0214416 0 0.000801981)
(0.0223484 0 0.000848399)
(0.0232133 0 0.000891726)
(0.0240464 0 0.000931275)
(0.024856 0 0.000966207)
(0.0256485 0 0.000995536)
(0.0264284 0 0.00101812)
(0.027198 0 0.00103265)
(0.0279575 0 0.00103765)
(0.0287027 0 0.00103141)
(0.0294263 0 0.00101239)
(0.0301195 0 0.000978756)
(0.0307706 0 0.000928422)
(0.0313662 0 0.000859209)
(0.0318912 0 0.000768876)
(0.0323306 0 0.000655214)
(0.0326697 0 0.000516608)
(0.0328953 0 0.00035362)
(0.00148483 0 4.59637e-05)
(0.00428901 0 0.000133255)
(0.00679135 0 0.000212483)
(0.00902876 0 0.000285299)
(0.0110341 0 0.000353004)
(0.0128363 0 0.000416596)
(0.0144613 0 0.000476813)
(0.015932 0 0.000534185)
(0.0172695 0 0.000589026)
(0.0184925 0 0.000641501)
(0.0196188 0 0.000691631)
(0.0206639 0 0.000739334)
(0.0216408 0 0.000784278)
(0.0225617 0 0.000826067)
(0.0234373 0 0.000864148)
(0.0242766 0 0.000897848)
(0.0250867 0 0.000926363)
(0.0258731 0 0.000948769)
(0.026639 0 0.000964025)
(0.0273859 0 0.000970987)
(0.0281135 0 0.000968412)
(0.0288158 0 0.000955053)
(0.0294862 0 0.000929562)
(0.0301183 0 0.000890557)
(0.0307021 0 0.000836663)
(0.0312268 0 0.000766577)
(0.0316814 0 0.000679199)
(0.0320553 0 0.000573866)
(0.0323388 0 0.00045091)
(0.0325247 0 0.000312633)
(0.00148773 0 4.583e-05)
(0.00429878 0 0.00013285)
(0.00681 0 0.000211744)
(0.0090581 0 0.000284078)
(0.0110758 0 0.000351083)
(0.0128917 0 0.000413698)