/*--------------------------------*- C++ -*----------------------------------*\
| =========                 |                                                 |
| \\      /  F ield         | OpenFOAM: The Open Source CFD Toolbox           |
|  \\    /   O peration     | Version:  dev                                   |
|   \\  /    A nd           | Web:      www.OpenFOAM.org                      |
|    \\/     M anipulation  |                                                 |
\*---------------------------------------------------------------------------*/
FoamFile
{
    version     2.0;
    format      ascii;
    class       surfaceScalarField;
    location    "1.29";
    object      meshPhi;
}
// * * * * * * * * * * * * * * * * * * * * * * * * * * * * * * * * * * * * * //

dimensions      [0 3 -1 0 0 0 0];

internalField   nonuniform List<scalar> 
5457
(
-4.95492e-05
1.53622e-06
-9.1189e-05
4.24018e-06
-0.000122905
6.27264e-06
-0.000144987
7.6655e-06
-0.000157638
8.49348e-06
-0.000161191
8.82096e-06
-0.000156338
8.71365e-06
-0.000144239
8.24755e-06
-0.000126487
7.50899e-06
-0.000104954
6.59289e-06
-8.15678e-05
5.58197e-06
-5.81311e-05
4.55085e-06
-3.61719e-05
3.56555e-06
-1.68405e-05
2.6705e-06
-8.71318e-07
1.89151e-06
1.14001e-05
1.23895e-06
1.99828e-05
7.11905e-07
2.51547e-05
3.02438e-07
2.73827e-05
-1.27747e-09
2.72668e-05
-2.12355e-07
2.47799e-05
-3.31954e-07
2.04451e-05
-3.62043e-07
1.56879e-05
-3.33592e-07
1.12193e-05
-2.7736e-07
7.32873e-06
-2.02794e-07
4.23755e-06
-1.22485e-07
2.07712e-06
-6.05909e-08
7.97183e-07
-3.04948e-08
2.08464e-07
-1.75284e-08
-7.3577e-09
-4.96494e-05
3.08041e-06
-9.14099e-05
8.50389e-06
-0.000123295
1.25844e-05
-0.000145586
1.53828e-05
-0.000158447
1.7044e-05
-0.000162175
1.77044e-05
-0.000157435
1.7499e-05
-0.000145369
1.65721e-05
-0.000127574
1.50948e-05
-0.000105934
1.32536e-05
-8.23896e-05
1.12223e-05
-5.87623e-05
9.1548e-06
-3.66019e-05
7.179e-06
-1.70751e-05
5.38361e-06
-9.28631e-07
3.82041e-06
1.14943e-05
2.51004e-06
2.01984e-05
1.45057e-06
2.54586e-05
6.26134e-07
2.77376e-05
1.32296e-08
2.76186e-05
-4.14364e-07
2.51434e-05
-6.57907e-07
2.08042e-05
-7.20972e-07
1.59996e-05
-6.70304e-07
1.15049e-05
-5.72983e-07
7.55039e-06
-4.37476e-07
4.32286e-06
-2.64051e-07
2.03777e-06
-1.0094e-07
7.56903e-07
-1.84746e-08
2.25133e-07
-1.11125e-08
-1.1545e-08
-4.97085e-05
4.62412e-06
-9.15724e-05
1.27684e-05
-0.000123625
1.89038e-05
-0.000146135
2.31239e-05
-0.000159244
2.56454e-05
-0.000163207
2.66658e-05
-0.000158655
2.63822e-05
-0.000146709
2.50103e-05
-0.00012896
2.28041e-05
-0.000107292
2.0036e-05
-8.36496e-05
1.69795e-05
-5.98691e-05
1.38735e-05
-3.75165e-05
1.09027e-05
-1.77751e-05
8.20028e-06
-1.40678e-06
5.84457e-06
1.12325e-05
3.86675e-06
2.01364e-05
2.26396e-06
2.55706e-05
1.0126e-06
2.79892e-05
7.79465e-08
2.79657e-05
-5.7957e-07
2.5548e-05
-9.57289e-07
2.12025e-05
-1.05456e-06
1.63723e-05
-9.8343e-07
1.19094e-05
-8.70658e-07
7.95676e-06
-7.26784e-07
4.55967e-06
-4.89907e-07
2.00378e-06
-1.78156e-07
6.3649e-07
3.48846e-08
2.13874e-07
4.86e-08
-2.82286e-10
-4.9714e-05
6.15838e-06
-9.16436e-05
1.70101e-05
-0.000123841
2.5199e-05
-0.00014657
3.08541e-05
-0.000159951
3.42634e-05
-0.000164202
3.5676e-05
-0.000159919
3.53439e-05
-0.000148194
3.3555e-05
-0.000130595
3.06451e-05
-0.000108994
2.6975e-05
-8.53405e-05
2.29096e-05
-6.14723e-05
1.87689e-05
-3.89623e-05
1.48002e-05
-1.90085e-05
1.11832e-05
-2.3897e-06
8.0241e-06
1.05204e-05
5.36515e-06
1.96988e-05
3.20294e-06
2.53952e-05
1.50682e-06
2.8052e-05
2.30768e-07
2.82344e-05
-6.78357e-07
2.5928e-05
-1.20883e-06
2.15645e-05
-1.34269e-06
1.66841e-05
-1.23126e-06
1.22863e-05
-1.09754e-06
8.50651e-06
-1.01618e-06
5.09681e-06
-8.44294e-07
2.16765e-06
-4.25897e-07
4.76906e-07
3.03851e-08
1.21312e-07
1.56806e-07
4.17679e-08
-4.96969e-05
7.67987e-06
-9.16912e-05
2.12215e-05
-0.000124058
3.1462e-05
-0.000147058
3.85656e-05
-0.000160784
4.28875e-05
-0.000165409
4.4726e-05
-0.000161484
4.43844e-05
-0.000150069
4.22172e-05
-0.000132697
3.86393e-05
-0.000111222
3.41009e-05
-8.75939e-05
2.90508e-05
-6.36493e-05
2.38861e-05
-4.09665e-05
1.89202e-05
-2.07621e-05
1.43831e-05
-3.83561e-06
1.04105e-05
9.41661e-06
7.05645e-06
1.89495e-05
4.31822e-06
2.49928e-05
2.15792e-06
2.79739e-05
5.17347e-07
2.84496e-05
-6.71724e-07
2.63322e-05
-1.39132e-06
2.19652e-05
-1.58884e-06
1.69238e-05
-1.40855e-06
1.24475e-05
-1.16758e-06
8.93363e-06
-1.12539e-06
5.87689e-06
-1.18681e-06
2.74782e-06
-8.9547e-07
4.5896e-07
-1.99077e-07
-6.75585e-08
2.30036e-07
1.1213e-07
-4.96539e-05
9.1888e-06
-9.17098e-05
2.5401e-05
-0.000124269
3.76872e-05
-0.00014759
4.62523e-05
-0.00016173
5.15185e-05
-0.000166811
5.38262e-05
-0.000163335
5.35245e-05
-0.000152316
5.10286e-05
-0.000135253
4.68276e-05
-0.000113974
4.14563e-05
-9.04179e-05
3.54477e-05
-6.64194e-05
2.92777e-05
-4.35599e-05
2.33252e-05
-2.30781e-05
1.78667e-05
-5.79797e-06
1.30693e-05
7.86071e-06
9.00241e-06
1.78231e-05
5.66719e-06
2.42902e-05
3.02052e-06
2.76698e-05
9.92813e-07
2.85219e-05
-5.03181e-07
2.67182e-05
-1.46513e-06
2.24617e-05
-1.80676e-06
1.71948e-05
-1.59026e-06
1.23274e-05
-1.11991e-06
8.83905e-06
-8.96636e-07
6.45073e-06
-1.17975e-06
3.70798e-06
-1.36696e-06
8.06285e-07
-7.26722e-07
-2.9843e-07
1.24886e-07
1.75041e-07
-4.95772e-05
1.06832e-05
-9.16832e-05
2.95443e-05
-0.000124458
4.38743e-05
-0.000148147
5.39228e-05
-0.00016277
6.01742e-05
-0.000168391
6.30043e-05
-0.000165455
6.28022e-05
-0.000154924
6.0037e-05
-0.000138256
5.52668e-05
-0.000117244
4.91055e-05
-9.38165e-05
4.21689e-05
-6.98018e-05
3.50137e-05
-4.67832e-05
2.80876e-05
-2.60161e-05
2.17089e-05
-8.3491e-06
1.60752e-05
5.77372e-06
1.12749e-05
1.62407e-05
7.31512e-06
2.32057e-05
4.1542e-06
2.70441e-05
1.71802e-06
2.8331e-05
-1.02281e-07
2.69635e-05
-1.34932e-06
2.30298e-05
-1.94772e-06
1.7693e-05
-1.85398e-06
1.22203e-05
-1.17838e-06
8.16056e-06
-4.68802e-07
6.23059e-06
-5.80556e-07
4.55356e-06
-1.35909e-06
1.55267e-06
-1.32378e-06
-4.47916e-07
-2.44316e-07
1.65873e-07
-4.94592e-05
1.21554e-05
-9.15984e-05
3.36375e-05
-0.00012461
5.00173e-05
-0.000148718
6.15814e-05
-0.000163891
6.8866e-05
-0.000170136
7.22799e-05
-0.000167833
7.2246e-05
-0.000157889
6.92806e-05
-0.000141707
6.40045e-05
-0.000121045
5.7105e-05
-9.78069e-05
4.92771e-05
-7.38224e-05
4.11583e-05
-5.06801e-05
3.32673e-05
-2.96387e-05
2.59697e-05
-1.15696e-05
1.94944e-05
3.05401e-06
1.3949e-05
1.40872e-05
9.34249e-06
2.16276e-05
5.63367e-06
2.59894e-05
2.75681e-06
2.77429e-05
5.96263e-07
2.68452e-05
-9.34699e-07
2.34101e-05
-1.84175e-06
1.84087e-05
-2.09434e-06
1.2584e-05
-1.53355e-06
7.43552e-06
-3.19733e-07
5.02359e-06
3.54777e-07
4.46506e-06
-4.95426e-07
2.3194e-06
-1.4373e-06
-3.80234e-07
-7.43078e-07
3.43302e-08
-4.92977e-05
1.35995e-05
-9.14558e-05
3.76644e-05
-0.000124723
5.60898e-05
-0.000149296
6.91946e-05
-0.000165086
7.75599e-05
-0.000172037
8.1623e-05
-0.000170464
8.18333e-05
-0.000161204
7.87474e-05
-0.000145607
7.30418e-05
-0.000125384
6.54703e-05
-0.00010241
5.68024e-05
-7.85137e-05
4.77568e-05
-5.52936e-05
3.89229e-05
-3.40091e-05
3.07192e-05
-1.55465e-05
2.34068e-05
-4.12981e-07
1.71104e-05
1.12195e-05
1.18418e-05
1.94055e-05
7.55256e-06
2.43766e-05
4.18649e-06
2.66313e-05
1.65088e-06
2.61157e-05
-1.28094e-07
2.31335e-05
-1.2557e-06
1.88515e-05
-1.93722e-06
1.34341e-05
-1.95839e-06
7.3856e-06
-7.81257e-07
3.36751e-06
9.02247e-07
2.88571e-06
9.96814e-07
2.38957e-06
-5.60685e-07
-8.38849e-08
-9.63747e-07
-1.75617e-07
-4.90892e-05
1.50112e-05
-9.12493e-05
4.16107e-05
-0.000124786
6.20659e-05
-0.000149862
7.67288e-05
-0.00016633
8.62216e-05
-0.000174067
9.10026e-05
-0.000173315
9.15397e-05
-0.00016484
8.84233e-05
-0.000149932
8.23786e-05
-0.000130249
7.42203e-05
-0.000107631
6.47878e-05
-8.39026e-05
5.48711e-05
-6.067e-05
4.51301e-05
-3.91965e-05
3.60423e-05
-2.03775e-05
2.79033e-05
-4.74999e-06
2.08538e-05
7.48128e-06
1.49137e-05
1.6346e-05
1.00264e-05
2.20101e-05
6.12473e-06
2.48355e-05
3.14919e-06
2.45808e-05
1.13183e-06
2.17692e-05
-4.52362e-08
1.81849e-05
-9.52721e-07
1.38843e-05
-1.73503e-06
7.9688e-06
-1.40849e-06
2.13556e-06
5.8921e-07
1.72082e-07
2.24224e-06
1.19412e-06
1.1882e-06
1.74296e-07
-4.41245e-07
-2.76036e-07
-4.88278e-05
1.63864e-05
-9.09683e-05
4.54657e-05
-0.000124785
6.79311e-05
-0.000150398
8.4168e-05
-0.000167598
9.48355e-05
-0.000176191
0.00010041
-0.000176348
0.000101374
-0.00016876
9.83332e-05
-0.000154648
9.20485e-05
-0.000135619
8.33968e-05
-0.000113473
7.32868e-05
-9.00158e-05
6.25673e-05
-6.6857e-05
5.19647e-05
-4.52667e-05
4.20184e-05
-2.61585e-05
3.30667e-05
-1.00959e-05
2.5277e-05
2.68851e-06
1.86755e-05
1.22084e-05
1.31931e-05
1.85988e-05
8.73611e-06
2.20822e-05
5.25413e-06
2.20782e-05
2.9286e-06
1.9153e-05
1.77693e-06
1.57748e-05
9.96357e-07
1.25526e-05
-1.59689e-07
7.8935e-06
-1.01652e-06
1.51933e-06
2.60459e-08
-2.50092e-06
2.51609e-06
-1.18928e-06
2.93873e-06
-2.83985e-07
1.00904e-06
5.38105e-08
-4.85088e-05
1.77251e-05
-9.0605e-05
4.92294e-05
-0.000124709
7.36857e-05
-0.000150889
9.15125e-05
-0.000168869
0.000103403
-0.000178387
0.00010985
-0.000179538
0.000111343
-0.000172937
0.000108488
-0.000159731
0.00010207
-0.000141475
9.30222e-05
-0.000119926
8.23163e-05
-9.68615e-05
7.08679e-05
-7.38891e-05
5.94694e-05
-5.22844e-05
4.87165e-05
-3.29831e-05
3.8987e-05
-1.65853e-05
3.04822e-05
-3.34703e-06
2.32444e-05
6.73264e-06
1.71974e-05
1.37839e-05
1.2214e-05
1.79497e-05
8.21137e-06
1.83284e-05
5.46523e-06
1.52737e-05
4.20845e-06
1.15341e-05
3.72825e-06
8.56199e-06
2.86961e-06
5.34861e-06
1.4133e-06
3.01334e-07
8.09118e-07
-4.47377e-06
2.40792e-06
-4.22734e-06
3.99792e-06
-2.21036e-06
3.04226e-06
9.82251e-07
-4.81298e-05
1.90273e-05
-9.01567e-05
5.29021e-05
-0.000124556
7.93287e-05
-0.000151328
9.87581e-05
-0.000170129
0.000111917
-0.000180632
0.000119302
-0.000182857
0.000121404
-0.000177337
0.000118837
-0.000165146
0.000112406
-0.000147781
0.000103075
-0.000126959
9.18807e-05
-0.000104425
7.98046e-05
-8.17765e-05
6.76954e-05
-6.02986e-05
5.62048e-05
-4.09344e-05
4.57517e-05
-2.43252e-05
3.65667e-05
-1.07775e-05
2.87258e-05
-3.12671e-07
2.21674e-05
7.21227e-06
1.67355e-05
1.19316e-05
1.22911e-05
1.28168e-05
9.08615e-06
9.88618e-06
7.50104e-06
5.60818e-06
7.15616e-06
1.9764e-06
6.95789e-06
-7.07769e-07
5.91719e-06
-3.68762e-06
4.32407e-06
-7.20787e-06
4.01967e-06
-7.99508e-06
5.26829e-06
-5.61133e-06
5.27913e-06
2.34122e-06
-4.76901e-05
2.02868e-05
-8.9626e-05
5.64677e-05
-0.000124333
8.48333e-05
-0.000151713
0.000105866
-0.00017136
0.000120323
-0.000182888
0.000128703
-0.000186248
0.000131494
-0.000181901
0.000129323
-0.000170834
0.000123009
-0.000154485
0.000113538
-0.000134533
0.000101989
-0.000112684
8.94075e-05
-9.05152e-05
7.66899e-05
-6.93231e-05
6.454e-05
-5.00637e-05
5.34302e-05
-3.34048e-05
4.36212e-05
-1.97189e-05
3.52209e-05
-9.08569e-06
2.82048e-05
-1.37221e-06
2.24264e-05
3.58779e-06
1.77021e-05
4.90372e-06
1.41537e-05
2.34105e-06
1.21527e-05
-2.23548e-06
1.16515e-05
-6.84974e-06
1.19528e-05
-1.01757e-05
1.19084e-05
-1.21086e-05
1.073e-05
-1.36425e-05
9.29529e-06
-1.3635e-05
8.89413e-06
-9.66569e-06
8.02895e-06
3.95722e-06
-4.72471e-05
2.14654e-05
-8.90518e-05
5.98725e-05
-0.000124042
9.02009e-05
-0.000152042
0.000112866
-0.000172545
0.000128649
-0.000185119
0.000138087
-0.000189665
0.00014167
-0.000186575
0.00014002
-0.000176751
0.000133963
-0.000161554
0.000124498
-0.000142621
0.000112728
-0.000121632
9.97572e-05
-0.00010013
8.65476e-05
-7.94106e-05
7.38452e-05
-6.04571e-05
6.21658e-05
-4.39553e-05
5.18069e-05
-3.03343e-05
4.29074e-05
-1.97704e-05
3.54905e-05
-1.21948e-05
2.94603e-05
-7.42181e-06
2.46346e-05
-6.01057e-06
2.09835e-05
-8.23418e-06
1.87315e-05
-1.28234e-05
1.79836e-05
-1.81699e-05
1.8438e-05
-2.26663e-05
1.92785e-05
-2.5022e-05
1.93721e-05
-2.50986e-05
1.82531e-05
-2.17925e-05
1.60878e-05
-1.31374e-05
1.20681e-05
6.70446e-06
3.22767e-06
-9.09284e-08
4.93608e-05
-1.37199e-06
0.000224302
-4.87111e-06
0.000422059
-5.29848e-06
0.000416379
-2.79226e-06
0.000280986
1.57911e-07
0.000167622
1.16991e-06
0.000105988
1.80239e-06
7.7972e-05
3.21934e-06
6.78692e-05
4.58235e-06
6.74752e-05
5.43223e-06
7.30977e-05
6.01058e-06
8.2716e-05
6.79626e-06
9.48386e-05
7.77256e-06
0.00010823
8.67511e-06
0.000121786
9.34642e-06
0.000134504
9.78053e-06
0.000145484
1.00259e-05
0.000153937
1.01076e-05
0.000159201
1.00127e-05
0.000160758
9.71259e-06
0.000158249
9.18733e-06
0.000151493
8.44268e-06
0.000140476
7.51292e-06
0.000125343
6.45168e-06
0.000106375
5.31688e-06
8.39501e-05
4.15532e-06
5.85056e-05
2.99108e-06
3.04077e-05
1.81045e-06
6.11152e-07
3.56518e-06
-9.59567e-08
5.57373e-05
-3.01266e-06
0.000237841
-1.09567e-05
0.000425233
-1.39833e-05
0.000405354
-9.20264e-06
0.000268724
-6.23068e-07
0.000159635
3.91994e-06
0.000101602
5.2398e-06
7.55799e-05
7.17145e-06
6.6527e-05
9.2559e-06
6.68602e-05
1.07223e-05
7.29763e-05
1.19902e-05
8.29274e-05
1.36099e-05
9.5274e-05
1.54931e-05
0.000108821
1.72096e-05
0.000122486
1.85028e-05
0.000135277
1.93603e-05
0.000146294
1.98572e-05
0.00015475
2.00226e-05
0.000159987
1.98223e-05
0.000161489
1.92032e-05
0.000158903
1.81326e-05
0.000152053
1.66289e-05
0.000140931
1.47658e-05
0.000125686
1.26527e-05
0.000106605
1.04053e-05
8.40741e-05
8.11576e-06
5.85454e-05
5.83027e-06
3.0397e-05
3.52156e-06
1.18677e-06
4.3053e-06
-1.20027e-07
6.57947e-05
-4.78404e-06
0.000249542
-1.67389e-05
0.000405754
-2.30886e-05
0.000364115
-1.60493e-05
0.000234999
-1.02669e-06
0.000140073
7.43066e-06
9.10893e-05
9.73459e-06
6.96473e-05
1.16164e-05
6.30066e-05
1.39068e-05
6.48077e-05
1.59372e-05
7.18666e-05
1.79606e-05
8.23969e-05
2.03578e-05
9.51019e-05
2.30009e-05
0.000108882
2.54156e-05
0.000122704
2.72883e-05
0.000135596
2.85711e-05
0.000146664
2.93294e-05
0.000155127
2.95688e-05
0.000160335
2.92291e-05
0.000161782
2.82494e-05
0.000159123
2.65981e-05
0.00015219
2.43176e-05
0.000140986
2.15259e-05
0.000125666
1.83889e-05
0.000106519
1.5078e-05
8.39449e-05
1.17267e-05
5.84096e-05
8.40033e-06
3.03008e-05
5.05827e-06
1.70035e-06
5.83378e-06
-3.87222e-07
7.71807e-05
-6.65706e-06
0.000249099
-1.94725e-05
0.000357145
-2.61959e-05
0.00029678
-1.83673e-05
0.000185974
-1.26494e-06
0.000112254
9.43823e-06
7.58879e-05
1.34975e-05
6.08277e-05
1.59188e-05
5.75386e-05
1.84873e-05
6.13211e-05
2.11524e-05
6.96492e-05
2.38999e-05
8.09468e-05
2.69432e-05
9.41175e-05
3.0182e-05
0.00010819
3.31822e-05
0.000122203
3.55913e-05
0.000135222
3.72892e-05
0.000146357
3.83039e-05
0.000154839
3.85864e-05
0.000160038
3.80476e-05
0.000161452
3.66491e-05
0.000158751
3.43746e-05
0.000151778
3.13014e-05
0.000140545
2.7597e-05
0.000125214
2.34826e-05
0.000106077
1.91809e-05
8.35383e-05
1.4863e-05
5.80798e-05
1.06093e-05
3.0104e-05
6.36519e-06
2.13347e-06
8.84374e-06
-1.12815e-06
8.73451e-05
-8.57356e-06
0.000231629
-1.83592e-05
0.000288072
-2.17837e-05
0.000220871
-1.48932e-05
0.000135025
-1.56075e-06
8.32388e-05
8.95422e-06
5.9339e-05
1.52985e-05
5.08244e-05
1.9388e-05
5.1057e-05
2.28782e-05
5.6982e-05
2.63264e-05
6.67293e-05
2.97408e-05
7.89142e-05
3.33116e-05
9.26365e-05
3.70181e-05
0.000107051
4.05045e-05
0.00012128
4.3387e-05
0.000134448
4.54441e-05
0.000145691
4.66484e-05
0.000154229
4.69121e-05
0.000159432
4.61162e-05
0.000160828
4.42326e-05
0.000158099
4.12924e-05
0.000151102
3.74174e-05
0.00013986
3.28279e-05
0.000124544
2.7798e-05
0.000105449
2.25968e-05
8.29772e-05
1.74285e-05
5.76244e-05
1.23866e-05
2.98263e-05
7.40072e-06
2.47287e-06
1.37049e-05
-2.37571e-06
9.22683e-05
-1.01902e-05
0.000194765
-1.42301e-05
0.000208138
-1.17724e-05
0.000148752
-6.44693e-06
9.07001e-05
-4.32659e-07
5.81771e-05
7.11954e-06
4.43424e-05
1.50342e-05
4.11655e-05
2.14732e-05
4.44219e-05
2.67042e-05
5.23091e-05
3.12695e-05
6.34364e-05
3.53785e-05
7.65224e-05
3.9416e-05
9.08235e-05
4.35056e-05
0.000105621
4.73635e-05
0.000120095
5.06254e-05
0.000133403
5.29666e-05
0.000144747
5.42451e-05
0.000153352
5.43808e-05
0.000158568
5.32579e-05
0.00015995
5.08299e-05
0.0001572
4.71904e-05
0.00015019
4.25182e-05
0.000138955
3.70885e-05
0.000123678
3.12237e-05
0.000104657
2.52325e-05
8.22867e-05
1.93475e-05
5.7069e-05
1.36748e-05
2.94833e-05
8.12903e-06
2.70681e-06
1.9803e-05
-3.86992e-06
8.86917e-05
-1.13628e-05
0.000143784
-9.52383e-06
0.000130184
-6.72268e-07
8.86177e-05
3.84925e-06
5.67617e-05
3.31646e-06
3.95057e-05
6.32713e-06
3.27437e-05
1.38858e-05
3.30707e-05
2.22353e-05
3.83888e-05
2.96172e-05
4.77732e-05
3.57025e-05
6.00771e-05
4.06628e-05
7.40048e-05
4.51768e-05
8.8874e-05
4.96155e-05
0.000104043
5.3749e-05
0.000118759
5.7254e-05
0.000132191
5.97699e-05
0.000143572
6.1022e-05
0.000152181
6.09101e-05
0.000157398
5.93485e-05
0.000158769
5.63186e-05
0.000156011
5.1959e-05
0.000149007
4.65111e-05
0.000137803
4.03037e-05
0.000122596
3.37018e-05
0.000103691
2.70452e-05
8.14751e-05
2.05882e-05
5.64406e-05
1.44489e-05
2.91024e-05
8.53233e-06
2.82841e-06
2.50601e-05
-4.95462e-06
7.57058e-05
-1.14571e-05
9.01951e-05
-5.89714e-06
6.63321e-05
7.07773e-06
4.39739e-05
1.2249e-05
3.26598e-05
9.16975e-06
2.68068e-05
8.40552e-06
2.48729e-05
1.38188e-05
2.71583e-05
2.26125e-05
3.35039e-05
3.17209e-05
4.37884e-05
3.94289e-05
5.69542e-05
4.54151e-05
7.15633e-05
5.04978e-05
8.69316e-05
5.52828e-05
0.000102396
5.96437e-05
0.000117274
6.32573e-05
0.000130796
6.57713e-05
0.000142193
6.68663e-05
0.000150778
6.63939e-05
0.000155975
6.42918e-05
0.000157332
6.06059e-05
0.000154575
5.55217e-05
0.000147591
4.9338e-05
0.000136438
4.24332e-05
0.000121324
3.52083e-05
0.000102567
2.80252e-05
8.05529e-05
2.11512e-05
5.57569e-05
1.47125e-05
2.87054e-05
8.61223e-06
2.8374e-06
2.66134e-05
-4.98307e-06
5.56858e-05
-1.0232e-05
4.6383e-05
-4.28425e-06
2.36196e-05
9.09151e-06
1.45027e-05
1.6383e-05
1.5659e-05
1.53393e-05
1.77804e-05
1.34256e-05
1.96322e-05
1.63227e-05
2.32438e-05
2.4006e-05
2.99963e-05
3.36882e-05
4.06502e-05
4.2563e-05
5.43013e-05
4.95473e-05
6.93418e-05
5.53023e-05
8.50497e-05
6.04473e-05
0.000100734
6.49587e-05
0.000115715
6.85536e-05
0.000129277
7.08889e-05
0.000140677
7.16608e-05
0.000149242
7.07064e-05
0.000154408
6.7992e-05
0.000155746
6.36188e-05
0.000152988
5.78261e-05
0.000146031
5.0966e-05
0.000134937
4.34604e-05
0.000119922
3.57401e-05
0.000101325
2.81812e-05
7.95375e-05
2.10547e-05
5.50236e-05
1.44884e-05
2.8298e-05
8.38651e-06
2.74039e-06
2.24944e-05
-3.60436e-06
3.51545e-05
-8.33568e-06
2.03123e-05
-5.8579e-06
2.29906e-06
4.98068e-06
-2.27866e-06
1.53581e-05
3.28826e-06
1.95048e-05
1.01015e-05
1.95719e-05
1.53147e-05
2.12589e-05
2.04634e-05
2.72696e-05
2.76623e-05
3.63346e-05
3.84371e-05
4.5524e-05
5.22151e-05
5.31838e-05
6.74425e-05
5.95516e-05
8.33291e-05
6.50215e-05
9.91491e-05
6.95771e-05
0.000114197
7.30107e-05
0.000127762
7.50146e-05
0.000139131
7.53162e-05
0.000147649
7.37728e-05
0.000152767
7.03898e-05
0.000154073
6.53208e-05
0.000151309
5.88574e-05
0.00014438
5.13985e-05
0.000133349
4.34024e-05
0.000118439
3.53224e-05
0.000100001
2.75432e-05
7.84479e-05
2.03321e-05
5.4241e-05
1.38108e-05
2.7875e-05
7.88337e-06
2.54872e-06
1.27695e-05
-8.50996e-07
2.0454e-05
-5.58414e-06
1.2325e-05
-9.69782e-06
-1.8763e-06
-3.54669e-06
-8.63674e-06
9.06199e-06
-4.88127e-06
1.90892e-05
3.17989e-06
2.36261e-05
1.08837e-05
2.65603e-05
1.789e-05
3.18508e-05
2.59871e-05
3.99365e-05
3.69873e-05
4.8716e-05
5.07132e-05
5.65682e-05
6.5948e-05
6.32904e-05
8.189e-05
6.89283e-05
9.77533e-05
7.33973e-05
0.000112805
7.65254e-05
0.00012633
7.80545e-05
0.000137632
7.77614e-05
0.000146074
7.5546e-05
0.000151121
7.14613e-05
0.000152376
6.57121e-05
0.000149595
5.86373e-05
0.000142687
5.06742e-05
0.000131721
4.23082e-05
0.00011692
3.40081e-05
9.86418e-05
2.61619e-05
7.73179e-05
1.90294e-05
5.34233e-05
1.27199e-05
2.7436e-05
7.13361e-06
2.27469e-06
-1.05572e-06
3.42575e-06
1.066e-05
7.17213e-07
1.49998e-05
-1.07559e-05
4.83339e-06
-1.17944e-05
-5.98587e-06
-3.40273e-07
-7.41524e-06
1.35068e-05
-1.47225e-06
2.32051e-05
6.83395e-06
2.96289e-05
1.52995e-05
3.6087e-05
2.45709e-05
4.39384e-05
3.60275e-05
5.22088e-05
4.97276e-05
5.98694e-05
6.48984e-05
6.65928e-05
8.08e-05
7.21475e-05
9.66266e-05
7.63472e-05
0.000111621
7.9016e-05
0.000125061
7.994e-05
0.000136258
7.89532e-05
0.000144589
7.60106e-05
0.000149537
7.12175e-05
0.000150717
6.48276e-05
0.000147897
5.72202e-05
0.000140998
4.88617e-05
0.000130093
4.02547e-05
0.000115402
3.1875e-05
9.72831e-05
2.41091e-05
7.61834e-05
1.72069e-05
5.25947e-05
1.12628e-05
2.69888e-05
6.16936e-06
1.93036e-06
-1.71365e-05
9.04863e-06
-2.08839e-06
1.3e-05
1.5649e-05
-2.2038e-06
1.31307e-05
-1.1418e-05
1.75913e-06
-5.67734e-06
-4.28302e-06
7.37396e-06
-2.26451e-06
1.99558e-05
4.54889e-06
3.00046e-05
1.32885e-05
3.88595e-05
2.34071e-05
4.75529e-05
3.53721e-05
5.57235e-05
4.91495e-05
6.30471e-05
6.42774e-05
6.94543e-05
8.01009e-05
7.46534e-05
9.5836e-05
7.83775e-05
0.000110721
8.04303e-05
0.000124029
8.06342e-05
0.00013508
7.8881e-05
0.000143263
7.51841e-05
0.000148075
6.97022e-05
0.000149148
6.2733e-05
0.000146263
5.46883e-05
0.000139353
4.6054e-05
0.000128494
3.73397e-05
0.000113909
2.90197e-05
9.59498e-05
2.14734e-05
7.50703e-05
1.49388e-05
5.17776e-05
9.49517e-06
2.65449e-05
5.02581e-06
1.52806e-06
-3.00952e-05
1.27227e-05
-2.26805e-05
2.60577e-05
3.20702e-06
1.5595e-05
1.16973e-05
1.94314e-06
6.28558e-06
1.06383e-08
2.49354e-07
7.63486e-06
-2.72557e-07
1.88408e-05
4.44309e-06
3.01453e-05
1.24314e-05
4.08512e-05
2.2729e-05
5.06832e-05
3.50312e-05
5.89687e-05
4.8954e-05
6.58772e-05
6.4087e-05
7.17676e-05
7.98299e-05
7.63909e-05
9.5441e-05
7.94486e-05
0.000110172
8.0742e-05
0.000123303
8.01316e-05
0.000134162
7.75659e-05
0.000142154
7.31156e-05
0.000146791
6.69886e-05
0.00014772
5.95203e-05
0.000144736
5.11462e-05
0.000137785
4.23621e-05
0.000126953
3.36752e-05
0.00011246
2.55499e-05
9.46563e-05
1.83526e-05
7.39931e-05
1.23074e-05
5.09866e-05
7.47863e-06
2.61137e-05
3.74093e-06
1.08068e-06
-3.03312e-05
9.3589e-06
-3.59923e-05
2.01036e-05
-1.44709e-05
1.98444e-05
-4.03285e-08
1.30484e-05
2.67779e-06
1.02186e-05
1.11797e-06
1.38451e-05
1.34454e-06
2.20224e-05
5.2574e-06
3.23479e-05
1.25106e-05
4.33241e-05
2.26478e-05
5.34799e-05
3.51051e-05
6.1649e-05
4.91579e-05
6.81365e-05
6.43106e-05
7.34252e-05
7.99662e-05
7.73078e-05
9.54228e-05
7.95321e-05
0.000109956
7.9939e-05
0.000122859
7.84381e-05
0.000133475
7.50338e-05
0.000141226
6.98504e-05
0.000145643
6.31387e-05
0.000146391
5.52634e-05
0.000143278
4.66748e-05
0.000136262
3.78692e-05
0.000125439
2.93429e-05
0.000111031
2.15427e-05
9.33832e-05
1.48164e-05
7.29399e-05
9.37107e-06
5.02189e-05
5.25676e-06
2.56976e-05
2.34089e-06
5.96474e-07
-4.86868e-05
2.25295e-05
-9.19215e-05
6.30095e-05
-0.000128475
9.53524e-05
-0.000158189
0.000119828
-0.000180384
0.00013705
-0.000194557
0.00014762
-0.000200563
0.000152102
-0.000198748
0.000151106
-0.000189958
0.000145446
-0.00017552
0.000136123
-0.000157079
0.000124274
-0.000136355
0.000111051
-0.000114929
9.74743e-05
-9.41194e-05
8.43338e-05
-7.49734e-05
7.21808e-05
-5.82405e-05
6.13576e-05
-4.44128e-05
5.20398e-05
-3.37802e-05
4.42946e-05
-2.63876e-05
3.80976e-05
-2.2083e-05
3.33212e-05
-2.10364e-05
2.98338e-05
-2.33385e-05
2.76642e-05
-2.80793e-05
2.68713e-05
-3.39933e-05
2.7342e-05
-3.95946e-05
2.86595e-05
-4.28458e-05
2.98416e-05
-4.1716e-05
2.95459e-05
-3.38636e-05
2.65331e-05
-1.93262e-05
2.02541e-05
1.11656e-05
-2.33065e-06
-4.956e-05
2.35158e-05
-9.36606e-05
6.58521e-05
-0.000131243
0.000100028
-0.000162321
0.000126465
-0.000186031
0.000145468
-0.000201717
0.000157343
-0.000209242
0.000162796
-0.000208912
0.000162578
-0.000201489
0.000157476
-0.000188229
0.000148456
-0.000170779
0.000136679
-0.000150849
0.000123353
-0.000130038
0.000109535
-0.000109686
9.60696e-05
-9.08748e-05
8.35553e-05
-7.44151e-05
7.23718e-05
-6.08634e-05
6.27361e-05
-5.06086e-05
5.47556e-05
-4.38396e-05
4.84765e-05
-4.05098e-05
4.38593e-05
-4.03989e-05
4.07413e-05
-4.31936e-05
3.89718e-05
-4.81556e-05
3.84502e-05
-5.42426e-05
3.90367e-05
-6.00907e-05
4.04934e-05
-6.325e-05
4.20372e-05
-6.04048e-05
4.20309e-05
-4.89551e-05
3.87518e-05
-3.10134e-05
3.1983e-05
2.34036e-05
-1.58838e-05
-5.04247e-05
2.44316e-05
-9.53867e-05
6.84456e-05
-0.000133936
0.00010413
-0.000166386
0.000132271
-0.000191831
0.000153327
-0.000209209
0.000167026
-0.000218353
0.000173689
-0.000219691
0.000174371
-0.000213839
0.000170007
-0.000201949
0.000161456
-0.000185697
0.000149893
-0.000166792
0.000136597
-0.000146832
0.000122674
-0.000127196
0.000109017
-0.000108989
9.62656e-05
-9.3074e-05
8.48373e-05
-8.00944e-05
7.49967e-05
-7.05134e-05
6.68836e-05
-6.466e-05
6.06017e-05
-6.26533e-05
5.62025e-05
-6.39796e-05
5.35491e-05
-6.76206e-05
5.23512e-05
-7.28585e-05
5.2311e-05
-7.87692e-05
5.31171e-05
-8.38608e-05
5.44606e-05
-8.5575e-05
5.56583e-05
-8.04101e-05
5.51694e-05
-6.66339e-05
5.14222e-05
-4.743e-05
4.43855e-05
3.59961e-05
-3.07278e-05
-5.12033e-05
2.52406e-05
-9.69648e-05
7.07636e-05
-0.000136379
0.000107768
-0.000170019
0.000137175
-0.000197334
0.000159944
-0.000216877
0.000175911
-0.000227911
0.000184532
-0.000231086
0.000186466
-0.000227006
0.000183
-0.000216636
0.000175053
-0.000201781
0.000163832
-0.000184123
0.000150722
-0.000165243
0.000136838
-0.000146553
0.000123112
-0.000129193
0.000110237
-0.000114075
9.86772e-05
-0.000101916
8.87308e-05
-9.32475e-05
8.05743e-05
-8.85017e-05
7.43533e-05
-8.7945e-05
7.01664e-05
-9.08596e-05
6.78966e-05
-9.55934e-05
6.72286e-05
-0.000101222
6.77671e-05
-0.000106452
6.88302e-05
-0.000109819
6.98275e-05
-0.000109126
7.02152e-05
-0.000101448
6.87817e-05
-8.64832e-05
6.44907e-05
-6.79365e-05
5.76762e-05
5.01616e-05
-5.24286e-05
-5.18497e-05
2.59275e-05
-9.83133e-05
7.27576e-05
-0.000138496
0.000110955
-0.000173057
0.000141431
-0.000201915
0.00016534
-0.000223932
0.000183133
-0.000237582
0.000194272
-0.000243092
0.000198464
-0.000240971
0.000196401
-0.000232196
0.000189153
-0.000218936
0.000178376
-0.000202738
0.000165622
-0.000185127
0.000151924
-0.00016757
0.000138241
-0.000151242
0.000125333
-0.000137105
0.000113723
-0.00012592
0.00010374
-0.000118278
9.55907e-05
-0.000114647
8.94372e-05
-0.000115312
8.53773e-05
-0.000119186
8.32208e-05
-0.000124695
8.2654e-05
-0.000130888
8.3445e-05
-0.000135543
8.48035e-05
-0.000137076
8.57019e-05
-0.000133595
8.52894e-05
-0.000123529
8.27478e-05
-0.00010804
7.78842e-05
-9.05579e-05
7.13565e-05
6.46448e-05
-7.63126e-05
-5.23405e-05
2.64936e-05
-9.93703e-05
7.44069e-05
-0.00014021
0.000113621
-0.000175542
0.000145066
-0.000205444
0.000169886
-0.000229406
0.000188729
-0.000246048
0.000201703
-0.000254733
0.000208478
-0.000255308
0.000208883
-0.000248509
0.00020332
-0.00023696
0.000193373
-0.000222431
0.000181098
-0.000206247
0.000167741
-0.000189961
0.000154211
-0.000174755
0.000141344
-0.000161675
0.000129724
-0.000151496
0.000119729
-0.000144819
0.000111577
-0.00014208
0.000105425
-0.000143453
0.000101339
-0.000147259
9.89998e-05
-0.000152228
9.7958e-05
-0.000158043
9.81228e-05
-0.000162532
9.91434e-05
-0.000163415
0.00010006
-0.000158155
9.9527e-05
-0.00014652
9.6596e-05
-0.000130668
9.14056e-05
-0.000113805
8.4915e-05
7.85285e-05
-0.000100264
-5.26464e-05
2.69233e-05
-0.000100063
7.56631e-05
-0.00014141
0.000115686
-0.000177398
0.000147949
-0.000208118
0.000173601
-0.000233268
0.000193257
-0.000252153
0.000207222
-0.000263934
0.000215564
-0.00026822
0.000218425
-0.000264786
0.000215829
-0.000255605
0.000208149
-0.000242901
0.000196949
-0.000228211
0.000184008
-0.000213297
0.000170717
-0.000199199
0.000157961
-0.00018713
0.000146334
-0.000177852
0.000136304
-0.000171916
0.00012809
-0.000169677
0.000121818
-0.000171145
0.000117504
-0.000174141
0.000114718
-0.00017723
0.000112816
-0.000180862
0.000111731
-0.000184087
0.000111489
-0.000184503
0.000111491
-0.000179348
0.000110703
-0.000168372
0.000108275
-0.000153015
0.000103811
-0.000136444
9.7775e-05
9.14837e-05
-0.000122893
-5.2713e-05
2.71864e-05
-0.000100304
7.64654e-05
-0.000141985
0.000117085
-0.000178486
0.000150005
-0.000209921
0.000176375
-0.000235981
0.000196821
-0.000256227
0.000211626
-0.000270097
0.000220951
-0.000277735
0.000225246
-0.00027866
0.000224999
-0.000273275
0.000220261
-0.000263245
0.000211499
-0.00025058
0.000200089
-0.000237046
0.000187477
-0.000223887
0.000174803
-0.000212689
0.000163126
-0.000204094
0.000153029
-0.000198552
0.000144657
-0.000196313
0.000138095
-0.00019725
0.000133328
-0.000198882
0.000129823
-0.000199491
0.000126806
-0.000200044
0.000124281
-0.000200393
0.000122441
-0.000198747
0.000120841
-0.000193599
0.000118915
-0.000184376
0.000116273
-0.000171088
0.00011253
-0.000155863
0.000107665
0.000102323
-0.000142774
-5.25036e-05
2.72835e-05
-0.000100036
7.68085e-05
-0.000141839
0.000117781
-0.000178664
0.000151166
-0.000210652
0.000178109
-0.000237517
0.000199229
-0.000258842
0.000214833
-0.000274253
0.000225162
-0.000283995
0.000230542
-0.000288245
0.000231535
-0.000286884
0.000228613
-0.000280792
0.000222327
-0.000271523
0.000213517
-0.000260143
0.000202882
-0.000248072
0.000191191
-0.000237476
0.000179668
-0.000229288
0.000169421
-0.000223695
0.00016078
-0.000220919
0.000153747
-0.000220721
0.000148306
-0.00022048
0.000143856
-0.000218371
0.000139563
-0.000215745
0.00013548
-0.0002128
0.00013197
-0.000208318
0.000128793
-0.000201688
0.000125516
-0.000192524
0.000121843
-0.000180876
0.000117706
-0.000167628
0.000113201
0.000108409
-0.000155767
-5.19909e-05
2.72074e-05
-9.91929e-05
7.66657e-05
-0.000140864
0.000117723
-0.000177777
0.000151347
-0.000210116
0.000178695
-0.000237618
0.000200368
-0.000259903
0.000216696
-0.000276681
0.000227943
-0.000287994
0.000234397
-0.000294236
0.000236503
-0.000295604
0.000234763
-0.000293088
0.000229968
-0.000287637
0.000223033
-0.000279885
0.000214688
-0.000270296
0.000205281
-0.000260612
0.000195086
-0.00025251
0.000185034
-0.000246371
0.000175991
-0.000242557
0.000168319
-0.000240672
0.000162024
-0.000238162
0.00015646
-0.000233192
0.000150776
-0.0002274
0.000145085
-0.000221375
0.000139937
-0.000214286
0.000135255
-0.000205617
0.000130689
-0.000195153
0.000125999
-0.000183244
0.00012109
-0.000170341
0.000115964
0.000110522
-0.000158519
-5.11341e-05
2.69402e-05
-9.76939e-05
7.59893e-05
-0.000138967
0.000116867
-0.000175721
0.000150517
-0.00020816
0.000178069
-0.000236064
0.000200134
-0.000259095
0.000217062
-0.000276996
0.000229115