/*--------------------------------*- C++ -*----------------------------------*\
| =========                 |                                                 |
| \\      /  F ield         | OpenFOAM: The Open Source CFD Toolbox           |
|  \\    /   O peration     | Version:  dev                                   |
|   \\  /    A nd           | Web:      www.OpenFOAM.org                      |
|    \\/     M anipulation  |                                                 |
\*---------------------------------------------------------------------------*/
FoamFile
{
    version     2.0;
    format      ascii;
    class       surfaceScalarField;
    location    "0.39";
    object      meshPhi;
}
// * * * * * * * * * * * * * * * * * * * * * * * * * * * * * * * * * * * * * //

dimensions      [0 3 -1 0 0 0 0];

internalField   nonuniform List<scalar> 
5457
(
1.92057e-06
-9.49802e-08
3.06622e-06
-2.64232e-07
2.99136e-06
-3.92648e-07
1.54777e-06
-4.75952e-07
-1.21173e-06
-5.14771e-07
-5.0849e-06
-5.11228e-07
-9.76208e-06
-4.68681e-07
-1.48659e-05
-3.9179e-07
-1.99887e-05
-2.86671e-07
-2.47286e-05
-1.61012e-07
-2.87221e-05
-2.40159e-08
-3.16759e-05
1.14009e-07
-3.33913e-05
2.42477e-07
-3.37798e-05
3.51311e-07
-3.2869e-05
4.32095e-07
-3.07973e-05
4.7955e-07
-2.77957e-05
4.92247e-07
-2.41594e-05
4.72721e-07
-2.02106e-05
4.27083e-07
-1.62599e-05
3.63953e-07
-1.24737e-05
2.91213e-07
-9.00663e-06
2.15665e-07
-6.10288e-06
1.46261e-07
-3.86273e-06
9.07043e-08
-2.24348e-06
5.10548e-08
-1.15921e-06
2.5559e-08
-5.02943e-07
1.09557e-08
-1.62706e-07
3.66632e-09
-3.17523e-08
6.53673e-10
1.22836e-10
2.01106e-06
-1.90994e-07
3.22658e-06
-5.3138e-07
3.2011e-06
-7.89834e-07
1.78995e-06
-9.5793e-07
-9.53371e-07
-1.03699e-06
-4.82587e-06
-1.03127e-06
-9.51691e-06
-9.47416e-07
-1.46478e-05
-7.94679e-07
-1.98092e-05
-5.85178e-07
-2.45965e-05
-3.34164e-07
-2.86425e-05
-5.99635e-08
-3.16501e-05
2.16804e-07
-3.34173e-05
4.7482e-07
-3.38517e-05
6.93839e-07
-3.29783e-05
8.57118e-07
-3.09336e-05
9.54025e-07
-2.79483e-05
9.81473e-07
-2.43186e-05
9.4436e-07
-2.03681e-05
8.54794e-07
-1.64083e-05
7.29934e-07
-1.2611e-05
5.85481e-07
-9.12238e-06
4.34681e-07
-6.18795e-06
2.95331e-07
-3.92322e-06
1.83491e-07
-2.28367e-06
1.03669e-07
-1.18261e-06
5.21837e-08
-5.1409e-07
2.2516e-08
-1.66789e-07
7.62246e-09
-3.28595e-08
1.4945e-09
1.89962e-10
2.1236e-06
-2.8824e-07
3.43279e-06
-8.02064e-07
3.48312e-06
-1.19271e-06
2.1333e-06
-1.44779e-06
-5.62385e-07
-1.56947e-06
-4.40097e-06
-1.56417e-06
-9.07237e-06
-1.44183e-06
-1.41987e-05
-1.21617e-06
-1.93714e-05
-9.05164e-07
-2.41866e-05
-5.31343e-07
-2.8275e-05
-1.21947e-07
-3.13372e-05
2.92121e-07
-3.31702e-05
6.78936e-07
-3.36782e-05
1.00856e-06
-3.28818e-05
1.25626e-06
-3.09137e-05
1.40592e-06
-2.80003e-05
1.45252e-06
-2.44337e-05
1.40298e-06
-2.05346e-05
1.27494e-06
-1.66125e-05
1.0936e-06
-1.28267e-05
8.81608e-07
-9.31372e-06
6.57696e-07
-6.33865e-06
4.48714e-07
-4.03478e-06
2.80106e-07
-2.35927e-06
1.59351e-07
-1.22693e-06
8.09886e-08
-5.34754e-07
3.53964e-08
-1.73854e-07
1.22456e-08
-3.46002e-08
2.6879e-09
3.57557e-10
2.25098e-06
-3.86718e-07
3.67386e-06
-1.07637e-06
3.82483e-06
-1.60164e-06
2.5654e-06
-1.94642e-06
-4.92583e-08
-2.11393e-06
-3.81696e-06
-2.11284e-06
-8.42975e-06
-1.95643e-06
-1.35128e-05
-1.66278e-06
-1.86612e-05
-1.25551e-06
-2.34755e-05
-7.64119e-07
-2.7588e-05
-2.24308e-07
-3.0698e-05
3.23183e-07
-3.2604e-05
8.36472e-07
-3.32085e-05
1.27663e-06
-3.25269e-05
1.61112e-06
-3.06854e-05
1.81819e-06
-2.79019e-05
1.89069e-06
-2.44593e-05
1.83705e-06
-2.06699e-05
1.67961e-06
-1.68365e-05
1.4507e-06
-1.30892e-05
1.1783e-06
-9.55576e-06
8.85131e-07
-6.53571e-06
6.07625e-07
-4.18189e-06
3.81959e-07
-2.45813e-06
2.19236e-07
-1.28426e-06
1.12733e-07
-5.60883e-07
5.00544e-08
-1.82251e-07
1.77817e-08
-3.64811e-08
4.29337e-09
6.26507e-10
2.41156e-06
-4.86517e-07
3.98068e-06
-1.35461e-06
4.26316e-06
-2.01726e-06
3.12388e-06
-2.45498e-06
6.19263e-07
-2.67227e-06
-3.04944e-06
-2.68028e-06
-7.57706e-06
-2.4956e-06
-1.25929e-05
-2.14064e-06
-1.76973e-05
-1.64436e-06
-2.24958e-05
-1.04294e-06
-2.6626e-05
-3.79847e-07
-2.97884e-05
2.95533e-07
-3.17806e-05
9.32232e-07
-3.25043e-05
1.4825e-06
-3.19695e-05
1.90609e-06
-3.02935e-05
2.17598e-06
-2.76828e-05
2.28277e-06
-2.44078e-05
2.23558e-06
-2.07685e-05
2.06044e-06
-1.70575e-05
1.79551e-06
-1.33695e-05
1.47214e-06
-9.82183e-06
1.11528e-06
-6.75448e-06
7.7148e-07
-4.34451e-06
4.89099e-07
-2.56502e-06
2.83638e-07
-1.34399e-06
1.47651e-07
-5.86965e-07
6.65612e-08
-1.90182e-07
2.42215e-08
-3.8104e-08
6.24392e-09
9.69089e-10
2.60531e-06
-5.87634e-07
4.35233e-06
-1.63681e-06
4.79604e-06
-2.43973e-06
3.80544e-06
-2.97392e-06
1.43872e-06
-3.24553e-06
-2.10379e-06
-3.26835e-06
-6.52026e-06
-3.06243e-06
-1.14451e-05
-2.65434e-06
-1.64846e-05
-2.07815e-06
-2.12503e-05
-1.37616e-06
-2.53871e-05
-5.98842e-07
-2.86007e-05
1.9691e-07
-3.06877e-05
9.52018e-07
-3.15483e-05
1.61044e-06
-3.11857e-05
2.12487e-06
-2.97064e-05
2.46334e-06
-2.73039e-05
2.61375e-06
-2.42327e-05
2.58501e-06
-2.0778e-05
2.40545e-06
-1.72197e-05
2.11782e-06
-1.36143e-05
1.75496e-06
-1.00673e-05
1.34224e-06
-6.96058e-06
9.36505e-07
-4.49792e-06
5.99385e-07
-2.6636e-06
3.51389e-07
-1.39648e-06
1.85084e-07
-6.0857e-07
8.4547e-08
-1.96325e-07
3.1337e-08
-3.92321e-08
8.40034e-09
1.33386e-09
2.83164e-06
-6.89988e-07
4.78701e-06
-1.92274e-06
5.42007e-06
-2.86877e-06
4.605e-06
-3.50305e-06
2.40246e-06
-3.83381e-06
-9.88043e-07
-3.8778e-06
-5.26833e-06
-3.65858e-06
-1.00787e-05
-3.20681e-06
-1.50325e-05
-2.56131e-06
-1.97483e-05
-1.76987e-06
-2.38786e-05
-8.89139e-07
-2.71364e-05
1.73881e-08
-2.932e-05
8.83559e-07
-3.03266e-05
1.64626e-06
-3.01526e-05
2.25209e-06
-2.88922e-05
2.66428e-06
-2.67244e-05
2.86751e-06
-2.38857e-05
2.86965e-06
-2.06437e-05
2.70002e-06
-1.7263e-05
2.40424e-06
-1.3764e-05
2.01493e-06
-1.02409e-05
1.55633e-06
-7.11405e-06
1.09547e-06
-4.61422e-06
7.07889e-07
-2.73728e-06
4.19543e-07
-1.43398e-06
2.23487e-07
-6.22926e-07
1.03248e-07
-1.99972e-07
3.87603e-08
-3.97895e-08
1.06093e-08
1.69264e-09
3.08967e-06
-7.93439e-07
5.28235e-06
-2.212e-06
6.13093e-06
-3.30373e-06
5.51608e-06
-4.0416e-06
3.50185e-06
-4.43642e-06
2.87334e-07
-4.50825e-06
-3.8332e-06
-4.28429e-06
-8.50656e-06
-3.79921e-06
-1.33541e-05
-3.09621e-06
-1.80027e-05
-2.22793e-06
-2.21132e-05
-1.25632e-06
-2.54056e-05
-2.5049e-07
-2.76812e-05
7.17493e-07
-2.88343e-05
1.57869e-06
-2.88549e-05
2.27444e-06
-2.78257e-05
2.76352e-06
-2.59091e-05
3.02733e-06
-2.33229e-05
3.07199e-06
-2.03145e-05
2.92664e-06
-1.713e-05
2.63807e-06
-1.37615e-05
2.23678e-06
-1.02933e-05
1.74483e-06
-7.17689e-06
1.23871e-06
-4.66811e-06
8.07788e-07
-2.77242e-06
4.83722e-07
-1.45078e-06
2.60422e-07
-6.28284e-07
1.21509e-07
-2.00801e-07
4.60404e-08
-3.97797e-08
1.2739e-08
2.03579e-09
3.37841e-06
-8.97821e-07
5.83568e-06
-2.50406e-06
6.92354e-06
-3.74369e-06
6.53093e-06
-4.5883e-06
4.7266e-06
-5.05193e-06
1.70972e-06
-5.1583e-06
-2.2294e-06
-4.93846e-06
-6.74455e-06
-4.43097e-06
-1.14658e-05
-3.68306e-06
-1.60296e-05
-2.75163e-06
-2.01054e-05
-1.70303e-06
-2.34207e-05
-6.10959e-07
-2.57794e-05
4.47814e-07
-2.70739e-05
1.39972e-06
-2.7288e-05
2.18177e-06
-2.6493e-05
2.7488e-06
-2.48343e-05
3.07899e-06
-2.25103e-05
3.17616e-06
-1.97476e-05
3.06819e-06
-1.67738e-05
2.80155e-06
-1.35616e-05
2.40357e-06
-1.01877e-05
1.89341e-06
-7.12282e-06
1.35559e-06
-4.64198e-06
8.91772e-07
-2.75874e-06
5.3914e-07
-1.44225e-06
2.93086e-07
-6.23208e-07
1.37998e-07
-1.98602e-07
5.27134e-08
-3.92128e-08
1.46908e-08
2.34848e-09
3.69699e-06
-1.00297e-06
6.44426e-06
-2.79836e-06
7.7923e-06
-4.18756e-06
7.64089e-06
-5.14155e-06
6.06507e-06
-5.67831e-06
3.26479e-06
-5.8257e-06
-4.73553e-07
-5.61875e-06
-4.81107e-06
-5.09987e-06
-9.38725e-06
-4.32001e-06
-1.38484e-05
-3.33969e-06
-1.78737e-05
-2.22883e-06
-2.11975e-05
-1.0647e-06
-2.36271e-05
7.24468e-08
-2.50537e-05
1.10558e-06
-2.54549e-05
1.96833e-06
-2.489e-05
2.6123e-06
-2.34882e-05
3.01259e-06
-2.14287e-05
3.17031e-06
-1.8918e-05
3.11111e-06
-1.61668e-05
2.87989e-06
-1.31377e-05
2.50044e-06
-9.90285e-06
1.98901e-06
-6.93726e-06
1.43602e-06
-4.52612e-06
9.52785e-07
-2.69024e-06
5.81318e-07
-1.40539e-06
3.18966e-07
-6.06596e-07
1.51542e-07
-1.93116e-07
5.83789e-08
-3.80603e-08
1.63906e-08
2.62403e-09
4.04489e-06
-1.10876e-06
7.10564e-06
-3.09439e-06
8.73144e-06
-4.63421e-06
8.83664e-06
-5.69946e-06
7.50461e-06
-6.31303e-06
4.93691e-06
-6.50737e-06
1.41615e-06
-6.32172e-06
-2.72638e-06
-5.80224e-06
-7.14003e-06
-5.00329e-06
-1.14816e-05
-3.98842e-06
-1.54399e-05
-2.83035e-06
-1.87568e-05
-1.6089e-06
-2.12432e-05
-4.06719e-07
-2.27893e-05
6.96858e-07
-2.33665e-05
1.6331e-06
-2.30233e-05
2.35105e-06
-2.18729e-05
2.82304e-06
-2.00763e-05
3.04723e-06
-1.78218e-05
3.04636e-06
-1.53036e-05
2.86271e-06
-1.24843e-05
2.51665e-06
-9.43378e-06
2.02193e-06
-6.61643e-06
1.4723e-06
-4.31828e-06
9.85254e-07
-2.56563e-06
6.06603e-07
-1.33917e-06
3.3597e-07
-5.77673e-07
1.61151e-07
-1.83919e-07
6.26877e-08
-3.62049e-08
1.77703e-08
2.8598e-09
4.42233e-06
-1.21514e-06
7.8181e-06
-3.3918e-06
9.73513e-06
-5.08249e-06
1.01084e-05
-6.25992e-06
9.03182e-06
-6.95311e-06
6.70947e-06
-7.19959e-06
3.42034e-06
-7.04295e-06
-5.12148e-07
-6.53307e-06
-4.7476e-06
-5.72737e-06
-8.95375e-06
-4.69191e-06
-1.28293e-05
-3.50147e-06
-1.61237e-05
-2.23751e-06
-1.86518e-05
-9.84023e-07
-2.03031e-05
1.78423e-07
-2.10437e-05
1.17971e-06
-2.09114e-05
1.96707e-06
-2.0005e-05
2.51046e-06
-1.84686e-05
2.80506e-06
-1.64734e-05
2.87023e-06
-1.41992e-05
2.74488e-06
-1.16151e-05
2.44632e-06
-8.79108e-06
1.98651e-06
-6.16785e-06
1.45965e-06
-4.02313e-06
9.85561e-07
-2.38695e-06
6.12521e-07
-1.24365e-06
3.42616e-07
-5.35555e-07
1.6608e-07
-1.70248e-07
6.53525e-08
-3.33602e-08
1.87669e-08
3.05135e-09
4.83074e-06
-1.32224e-06
8.58121e-06
-3.69055e-06
1.07977e-05
-5.5314e-06
1.14459e-05
-6.82068e-06
1.06327e-05
-7.59525e-06
8.56519e-06
-7.89807e-06
5.51885e-06
-7.77723e-06
1.80905e-06
-7.28625e-06
-2.23455e-06
-6.4853e-06
-6.29102e-06
-5.44243e-06
-1.00692e-05
-4.23379e-06
-1.33262e-05
-2.94167e-06
-1.58813e-05
-1.65048e-06
-1.76237e-05
-4.4103e-07
-1.85146e-05
6.16099e-07
-1.85824e-05
1.4671e-06
-1.79126e-05
2.08004e-06
-1.66341e-05
2.44725e-06
-1.49024e-05
2.58451e-06
-1.28835e-05
2.52677e-06
-1.05582e-05
2.28885e-06
-7.9968e-06
1.88144e-06
-5.60669e-06
1.3965e-06
-3.64975e-06
9.52202e-07
-2.15816e-06
5.97883e-07
-1.11912e-06
3.38127e-07
-4.7883e-07
1.65914e-07
-1.50707e-07
6.62071e-08
-2.88782e-08
1.93445e-08
3.19544e-09
5.27327e-06
-1.43041e-06
9.39644e-06
-3.99113e-06
1.19134e-05
-5.98021e-06
1.28389e-05
-7.37938e-06
1.22929e-05
-8.23586e-06
1.04863e-05
-8.59807e-06
7.69111e-06
-8.5187e-06
4.21425e-06
-8.05484e-06
3.74048e-07
-7.26904e-06
-3.52031e-06
-6.23082e-06
-7.18805e-06
-5.01708e-06
-1.03943e-05
-3.71029e-06
-1.29627e-05
-2.39444e-06
-1.47831e-05
-1.14968e-06
-1.58125e-05
-4.6198e-08
-1.60707e-05
8.61913e-07
-1.56315e-05
1.54136e-06
-1.46098e-05
1.98194e-06
-1.31469e-05
2.19582e-06
-1.13955e-05
2.21369e-06
-9.34926e-06
2.04826e-06
-7.07877e-06
1.70936e-06
-4.95161e-06
1.28409e-06
-3.20879e-06
8.85503e-07
-1.8834e-06
5.62611e-07
-9.65209e-07
3.22376e-07
-4.0488e-07
1.60651e-07
-1.22566e-07
6.53403e-08
-2.11803e-08
1.95747e-08
3.31633e-09
5.71063e-06
-1.52926e-06
1.02414e-05
-4.27811e-06
1.30854e-05
-6.42622e-06
1.42839e-05
-7.93991e-06
1.40066e-05
-8.87765e-06
1.24652e-05
-9.3017e-06
9.92813e-06
-9.26875e-06
6.6936e-06
-8.83942e-06
3.06766e-06
-8.07831e-06
-6.52996e-07
-7.05575e-06
-4.19814e-06
-5.84893e-06
-7.34113e-06
-4.53991e-06
-9.91077e-06
-3.21155e-06
-1.17977e-05
-1.94255e-06
-1.29556e-05
-8.0188e-07
-1.3397e-05
1.56791e-07
-1.3185e-05
8.99394e-07
-1.24216e-05
1.41358e-06
-1.12347e-05
1.70802e-06
-9.76428e-06
1.80902e-06
-8.01534e-06
1.72739e-06
-6.05687e-06
1.47204e-06
-4.21414e-06
1.12293e-06
-2.70451e-06
7.85086e-07
-1.56115e-06
5.06005e-07
-7.76376e-07
2.94826e-07
-3.05931e-07
1.50264e-07
-7.74736e-08
6.32497e-08
-2.82198e-09
1.99228e-08
3.57451e-09
6.31461e-08
3.67381e-10
3.22177e-07
3.06927e-09
1.02449e-06
9.11646e-09
2.38423e-06
2.20844e-08
4.55091e-06
4.28526e-08
7.61338e-06
6.94065e-08
1.16099e-05
9.76936e-08
1.65337e-05
1.22644e-07
2.2341e-05
1.39761e-07
2.84558e-05
1.40847e-07
3.43716e-05
1.14035e-07
4.02068e-05
5.78895e-08
4.59268e-05
-1.79303e-08
5.13047e-05
-1.05159e-07
5.61048e-05
-1.98267e-07
6.00978e-05
-2.91787e-07
6.3086e-05
-3.81078e-07
6.4914e-05
-4.62529e-07
6.54822e-05
-5.33511e-07
6.47523e-05
-5.91921e-07
6.27436e-05
-6.35744e-07
5.95223e-05
-6.63203e-07
5.51834e-05
-6.72725e-07
4.98332e-05
-6.62588e-07
4.35716e-05
-6.3094e-07
3.6474e-05
-5.7586e-07
2.85783e-05
-4.95455e-07
1.98751e-05
-3.87988e-07
1.02987e-05
-2.51985e-07
-8.89114e-08
6.42299e-08
9.37315e-10
3.27657e-07
6.00326e-09
1.03575e-06
1.81665e-08
2.39734e-06
4.34255e-08
4.55794e-06
8.31672e-08
7.60786e-06
1.33513e-07
1.1589e-05
1.86575e-07
1.6494e-05
2.32691e-07
2.22677e-05
2.63056e-07
2.83935e-05
2.62627e-07
3.43427e-05
2.09128e-07
4.01851e-05
9.87535e-08
4.5924e-05
-5.03121e-08
5.13212e-05
-2.21751e-07
5.61342e-05
-4.04781e-07
6.01326e-05
-5.89011e-07
6.31193e-05
-7.65457e-07
6.49394e-05
-9.2664e-07
6.54946e-05
-1.06691e-06
6.47493e-05
-1.18216e-06
6.27251e-05
-1.26879e-06
5.94901e-05
-1.32331e-06
5.51407e-05
-1.34222e-06
4.97845e-05
-1.32199e-06
4.35214e-05
-1.25887e-06
3.64271e-05
-1.14901e-06
2.85391e-05
-9.88597e-07
1.98471e-05
-7.74154e-07
1.02843e-05
-5.02746e-07
-1.77372e-07
6.47615e-08
1.39145e-09
3.29689e-07
8.49758e-09
1.03312e-06
2.61252e-08
2.3747e-06
6.16249e-08
4.49631e-06
1.16381e-07
7.4926e-06
1.8492e-07
1.14123e-05
2.56147e-07
1.62515e-05
3.16555e-07
2.19542e-05
3.53502e-07
2.80517e-05
3.46925e-07
3.40104e-05
2.66721e-07
3.98622e-05
1.06208e-07
4.56235e-05
-1.10039e-07
5.10468e-05
-3.5885e-07
5.58828e-05
-6.24982e-07
5.98988e-05
-8.93612e-07
6.28975e-05
-1.15163e-06
6.4726e-05
-1.38811e-06
6.52876e-05
-1.59495e-06
6.45491e-05
-1.76576e-06
6.25339e-05
-1.89447e-06
5.9311e-05
-1.97552e-06
5.4977e-05
-2.00369e-06
4.96394e-05
-1.97359e-06
4.33976e-05
-1.87951e-06
3.63267e-05
-1.71562e-06
2.84632e-05
-1.47618e-06
1.97965e-05
-1.15599e-06
1.02592e-05
-7.50683e-07
-2.64826e-07
6.41419e-08
1.73097e-09
3.25296e-07
1.03002e-08
1.01032e-06
3.19171e-08
2.30866e-06
7.44272e-08
4.36153e-06
1.3879e-07
7.26918e-06
2.18226e-07
1.10877e-05
2.99303e-07
1.58205e-05
3.65477e-07
2.14185e-05
4.01036e-07
2.74442e-05
3.82637e-07
3.33839e-05
2.75307e-07
3.9246e-05
6.98212e-08
4.5029e-05
-2.05479e-07
5.04796e-05
-5.22596e-07
5.53439e-05
-8.62837e-07
5.93866e-05
-1.20759e-06
6.24102e-05
-1.5402e-06
6.42641e-05
-1.84681e-06
6.48532e-05
-2.11669e-06
6.41458e-05
-2.34069e-06
6.21668e-05
-2.50994e-06
5.8984e-05
-2.61667e-06
5.4693e-05
-2.65388e-06
4.94e-05
-2.61418e-06
4.32028e-05
-2.48982e-06
3.6175e-05
-2.27293e-06
2.83526e-05
-1.95587e-06
1.97245e-05
-1.5317e-06
1.02237e-05
-9.94654e-07
-3.50882e-07
6.25992e-08
1.92587e-09
3.16119e-07
1.12861e-08
9.74362e-07
3.50735e-08
2.21749e-06
8.09635e-08
4.18879e-06
1.49232e-07
6.99351e-06
2.32036e-07
1.0693e-05
3.14374e-07
1.52991e-05
3.77463e-07
2.07694e-05
4.03318e-07
2.66995e-05
3.6701e-07
3.26063e-05
2.31708e-07
3.84735e-05
-1.37259e-08
4.42743e-05
-3.39983e-07
4.97492e-05
-7.16313e-07
5.46399e-05
-1.12143e-06
5.87101e-05
-1.53388e-06
6.17618e-05
-1.93417e-06
6.36474e-05
-2.30556e-06
6.42737e-05
-2.63394e-06
6.36098e-05
-2.90726e-06
6.16808e-05
-3.11448e-06
5.85529e-05
-3.24566e-06
5.43205e-05
-3.29149e-06
4.90874e-05
-3.24235e-06
4.29494e-05
-3.08837e-06
3.59785e-05
-2.81961e-06
2.82094e-05
-2.42648e-06
1.96312e-05
-1.90034e-06
1.01776e-05
-1.23405e-06
-4.35324e-07
6.0274e-08
1.96566e-09
3.03462e-07
1.13855e-08
9.30687e-07
3.54713e-08
2.11406e-06
8.11581e-08
3.9992e-06
1.47894e-07
6.696e-06
2.26971e-07
1.02705e-05
3.02392e-07
1.47421e-05
3.54033e-07
2.00736e-05
3.62397e-07
2.58937e-05
3.02322e-07
3.17533e-05
1.37719e-07
3.76128e-05
-1.43596e-07
4.34177e-05
-5.13499e-07
4.89049e-05
-9.40516e-07
5.38126e-05
-1.40178e-06
5.79045e-05
-1.87381e-06
6.09826e-05
-2.33458e-06
6.29013e-05
-2.76447e-06
6.35703e-05
-3.14631e-06
6.29586e-05
-3.46525e-06
6.109e-05
-3.70802e-06
5.80295e-05
-3.86225e-06
5.38688e-05
-3.91607e-06
4.87091e-05
-3.85751e-06
4.26434e-05
-3.67446e-06
3.57414e-05
-3.35488e-06
2.80369e-05
-2.88727e-06
1.95186e-05
-2.26129e-06
1.01219e-05
-1.46845e-06
-5.18006e-07
5.75469e-08
1.8657e-09
2.89444e-07
1.06437e-08
8.85977e-07
3.3314e-08
2.01244e-06
7.56075e-08
3.8144e-06
1.36034e-07
6.40594e-06
2.05182e-07
9.85941e-06
2.66527e-07
1.41992e-05
2.99428e-07
1.93915e-05
2.83578e-07
2.50946e-05
1.9463e-07
3.08943e-05
-7.56259e-10
3.67296e-05
-3.14859e-07
4.25183e-05
-7.22206e-07
4.79976e-05
-1.19246e-06
5.29059e-05
-1.70215e-06
5.70075e-05
-2.22632e-06
6.01052e-05
-2.74073e-06
6.20543e-05
-3.2232e-06
6.27666e-05
-3.65388e-06
6.22113e-05
-4.01521e-06
6.04105e-05
-4.29121e-06
5.74268e-05
-4.46692e-06
5.33487e-05
-4.52787e-06
4.82736e-05
-4.45965e-06
4.22913e-05
-4.24789e-06
3.54688e-05
-3.87843e-06
2.78384e-05
-3.33787e-06
1.9389e-05
-2.6142e-06
1.00577e-05
-1.69761e-06
-5.98833e-07
5.48911e-08
1.62336e-09
2.76271e-07
9.19339e-09
8.4597e-07
2.89725e-08
1.92386e-06
6.52057e-08
3.6538e-06
1.15412e-07
6.15233e-06
1.69632e-07
9.49685e-06
2.11212e-07
1.37152e-05
2.19551e-07
1.87754e-05
1.74159e-07
2.43602e-05
5.23357e-08
3.00865e-05
-1.75151e-07
3.58777e-05
-5.19967e-07
4.16275e-05
-9.60371e-07
4.70755e-05
-1.46832e-06
5.19633e-05
-2.02027e-06
5.60569e-05
-2.59035e-06
5.91615e-05
-3.15263e-06
6.11336e-05
-3.68266e-06
6.18859e-05
-4.15806e-06
6.13877e-05
-4.55849e-06
5.96589e-05
-4.86523e-06
5.67588e-05
-5.06061e-06
5.27716e-05
-5.12754e-06
4.77903e-05
-5.04915e-06
4.19006e-05
-4.80879e-06
3.51664e-05
-4.39022e-06
2.76183e-05
-3.77813e-06
1.92452e-05
-2.95889e-06
9.98629e-06
-1.92136e-06
-6.77741e-07
5.27868e-08
1.26685e-09
2.65926e-07
7.20654e-09
8.15301e-07
2.29107e-08
1.85671e-06
5.09823e-08
3.5318e-06
8.79332e-08
5.95711e-06
1.23415e-07
9.21178e-06
1.4095e-07
1.33253e-05
1.20397e-07
1.82666e-05
4.16072e-08
2.37364e-05
-1.15989e-07
2.93762e-05
-3.76884e-07
3.51002e-05
-7.51661e-07
4.07865e-05
-1.22267e-06
4.6178e-05
-1.76469e-06
5.10212e-05
-2.35447e-06
5.5086e-05
-2.96566e-06
5.8181e-05
-3.57105e-06
6.01648e-05
-4.14425e-06
6.09509e-05
-4.66046e-06
6.05078e-05
-5.0967e-06
5.88525e-05
-5.4315e-06
5.60402e-05
-5.64447e-06
5.21499e-05
-5.71591e-06
4.72694e-05
-5.62653e-06
4.14794e-05
-5.35742e-06
3.48404e-05
-4.89027e-06
2.73809e-05
-4.20794e-06
1.90899e-05
-3.29518e-06
9.90919e-06
-2.13957e-06
-7.54678e-07
5.17306e-08
8.37581e-10
2.60298e-07
4.84428e-09
7.98301e-07
1.559e-08
1.8184e-06
3.39256e-08
3.45916e-06
5.53645e-08
5.83482e-06
6.93016e-08
9.02327e-06
5.96803e-08
1.30532e-05
7.16369e-09
1.78928e-05
-1.0764e-07
2.32538e-05
-3.02994e-07
2.87958e-05
-5.98616e-07
3.44298e-05
-1.00369e-06
4.00267e-05
-1.50447e-06
4.53353e-05
-2.07861e-06
5.01088e-05
-2.70336e-06
5.41226e-05
-3.35217e-06
5.71899e-05
-3.99687e-06
5.91721e-05
-4.6094e-06
5.99835e-05
-5.16278e-06
5.95911e-05
-5.63149e-06
5.80085e-05
-5.99144e-06
5.52859e-05
-6.21961e-06
5.14962e-05
-6.29377e-06
4.67211e-05
-6.19225e-06
4.10361e-05
-5.89395e-06
3.44973e-05
-5.37857e-06
2.71311e-05
-4.62715e-06
1.89266e-05
-3.62289e-06
9.82801e-06
-2.35208e-06
-8.29578e-07
5.23401e-08
3.63246e-10
2.61522e-07
2.20583e-09
7.99618e-07
7.33913e-09
1.81635e-06
1.4759e-08
3.44567e-06
1.90141e-08
5.79718e-06
9.37698e-09
8.94493e-06
-2.95841e-08
1.29144e-05
-1.16148e-07
1.76711e-05
-2.68642e-07
2.29308e-05
-5.03061e-07
2.8365e-05
-8.34753e-07
3.38877e-05
-1.27134e-06
3.93707e-05
-1.80234e-06
4.4571e-05
-2.40803e-06
4.925e-05
-3.06617e-06
5.31905e-05
-3.75017e-06
5.62116e-05
-4.43113e-06
5.81778e-05
-5.07959e-06
5.90044e-05
-5.66661e-06
5.86566e-05
-6.16439e-06
5.7144e-05
-6.54635e-06
5.45107e-05
-6.787e-06
5.08232e-05
-6.86173e-06
4.61563e-05
-6.74661e-06
4.05793e-05
-6.41842e-06
3.41439e-05
-5.85495e-06
2.68739e-05
-5.03549e-06
1.87584e-05
-3.94172e-06
9.74443e-06
-2.55866e-06
-9.0236e-07
5.56596e-08
-1.66974e-10
2.7277e-07
-7.31289e-10
8.25476e-07
-1.7977e-09
1.85942e-06
-6.30307e-09
3.50172e-06
-2.05789e-08
5.85498e-06
-5.53244e-08
8.98749e-06
-1.25183e-07
1.29202e-05
-2.47204e-07
1.76133e-05
-4.38452e-07
2.27786e-05
-7.12832e-07
2.80949e-05
-1.08198e-06
3.34869e-05
-1.5519e-06
3.88337e-05
-2.1145e-06
4.39022e-05
-2.75211e-06
4.84635e-05
-3.44294e-06
5.23097e-05
-4.16042e-06
5.52663e-05
-4.87509e-06
5.72021e-05
-5.55631e-06
5.80331e-05
-6.17347e-06
5.77226e-05
-6.69671e-06
5.62754e-05
-7.09725e-06
5.37295e-05
-7.34734e-06
5.01437e-05
-7.42016e-06
4.55856e-05
-7.28964e-06
4.01178e-05
-6.93063e-06
3.37871e-05
-6.31905e-06
2.66145e-05
-5.43253e-06
1.85889e-05
-4.25126e-06
9.6602e-06
-2.75902e-06
-9.72915e-07
6.39586e-08
-8.32836e-10
2.99997e-07
-4.21852e-09
8.85989e-07
-1.22658e-08
1.96024e-06
-2.98374e-08
3.64015e-06
-6.39564e-08
6.0196e-06
-1.25129e-07
9.16045e-06
-2.27103e-07
1.30792e-05
-3.85611e-07
1.77296e-05
-6.1635e-07
2.28051e-05
-9.31407e-07
2.799e-05
-1.33944e-06
3.32337e-05
-1.84486e-06
3.84251e-05
-2.44093e-06
4.3341e-05
-3.11134e-06
4.77641e-05
-3.83459e-06
5.14966e-05
-4.58415e-06
5.43719e-05
-5.33014e-06
5.62632e-05
-6.04097e-06
5.70876e-05
-6.6846e-06
5.68061e-05
-7.22945e-06
5.54187e-05
-7.64482e-06
5.29564e-05
-7.90096e-06
4.94702e-05
-7.96903e-06
4.50195e-05
-7.82107e-06
3.96603e-05
-7.43007e-06
3.34337e-05
-6.77025e-06
2.63578e-05
-5.81763e-06
1.84214e-05
-4.55098e-06
9.57702e-06
-2.95279e-06
-1.0411e-06
8.27034e-08
-1.85646e-09
3.55655e-07
-8.9959e-09
9.98971e-07
-2.53813e-08
2.13808e-06
-5.75965e-08
3.87839e-06
-1.13055e-07
6.30449e-06
-2.01964e-07
9.47291e-06
-3.37146e-07
1.33994e-05
-5.33006e-07
1.80355e-05
-8.03832e-07
2.30203e-05
-1.16024e-06
2.80485e-05
-1.60866e-06
3.31295e-05
-2.15182e-06
3.81505e-05
-2.7833e-06
4.28966e-05
-3.4874e-06
4.71634e-05
-4.24274e-06
5.07651e-05
-5.02289e-06
5.35437e-05
-5.79768e-06
5.53772e-05
-6.53474e-06
5.61841e-05
-7.20091e-06
5.59229e-05
-7.76318e-06
5.45886e-05
-8.18927e-06
5.22047e-05
-8.44771e-06
4.88142e-05
-8.50793e-06
4.44681e-05
-8.34024e-06
3.92148e-05
-7.91594e-06
3.30901e-05
-7.20767e-06
2.61087e-05
-6.18995e-06
1.82591e-05
-4.84014e-06
9.49652e-06
-3.13947e-06
-1.10675e-06
1.33192e-07
-3.49252e-09
4.727e-07
-1.7706e-08
1.20012e-06
-4.48306e-08
2.42582e-06
-9.37764e-08
4.24354e-06
-1.7239e-07
6.72921e-06
-2.90602e-07
9.93625e-06
-4.60313e-07
1.38879e-05
-6.94601e-07
1.85142e-05
-1.00602e-06
2.33923e-05
-1.40442e-06
2.82574e-05
-1.89541e-06
3.31744e-05
-2.4791e-06
3.80151e-05
-3.14796e-06
4.25754e-05
-3.88643e-06
4.66694e-05
-4.67327e-06
5.01247e-05
-5.48233e-06
5.27923e-05
-6.28319e-06
5.45556e-05
-7.04289e-06
5.53341e-05
-7.72739e-06
5.50842e-05
-8.3026e-06
5.37955e-05
-8.73497e-06
5.14841e-05
-8.99164e-06
4.81843e-05
-9.04054e-06
4.39384e-05
-8.85044e-06
3.87874e-05
-8.39114e-06
3.27609e-05
-7.6338e-06
2.58706e-05
-6.55151e-06
1.81042e-05
-5.12027e-06
9.41986e-06
-3.32003e-06
-1.17019e-06
6.29427e-06
-1.60925e-06
1.14404e-05
-4.52338e-06
1.48356e-05
-6.84429e-06
1.64056e-05
-8.50223e-06
1.63941e-05
-9.53257e-06
1.50741e-05
-1.00199e-05
1.27163e-05
-1.00383e-05
9.62081e-06
-9.65082e-06
6.09102e-06
-8.92361e-06
2.4208e-06
-7.92701e-06
-1.12023e-06
-6.73803e-06
-4.30565e-06
-5.43801e-06
-6.96356e-06
-4.10804e-06
-8.98214e-06
-2.82464e-06
-1.03105e-05
-1.65488e-06
-1.09549e-05
-6.51364e-07
-1.09706e-05
1.5159e-07
-1.04512e-05
7.39866e-07
-9.51592e-06
1.11888e-06
-8.29653e-06
1.31046e-06
-6.80744e-06
1.32374e-06
-5.11538e-06
1.16633e-06
-3.51345e-06
9.08862e-07
-2.20213e-06
6.45949e-07
-1.21536e-06
4.22733e-07
-5.47897e-07
2.50319e-07
-1.59631e-07
1.30197e-07
1.60832e-08
5.64308e-08
6.10903e-08
1.82667e-08
2.9663e-09
5.35508e-08
6.72599e-06
-1.67916e-06
1.23708e-05
-4.72835e-06
1.63681e-05
-7.19816e-06
1.84619e-05
-9.02455e-06
1.87869e-05
-1.01913e-05
1.77214e-05
-1.07578e-05
1.55984e-05
-1.08301e-05
1.27097e-05
-1.04913e-05
9.34825e-06
-9.80684e-06
5.79875e-06
-8.8455e-06
2.32705e-06
-7.68389e-06
-8.44412e-07
-6.40267e-06
-3.54621e-06
-5.0806e-06
-5.66617e-06
-3.79143e-06
-7.15001e-06
-2.59982e-06
-7.99774e-06
-1.55685e-06
-8.25624e-06
-6.9667e-07
-8.00916e-06
-3.47975e-08
-7.365e-06
4.31244e-07
-6.44452e-06
7.19031e-07
-5.26918e-06
8.36523e-07
-3.89656e-06
7.89062e-07
-2.58134e-06
6.3525e-07
-1.50636e-06
4.58399e-07
-7.05441e-07
3.01357e-07
-1.75606e-07
1.76809e-07
1.18672e-07
8.86689e-08
2.37581e-07
3.39337e-08
2.56284e-07
5.03145e-09
-7.39426e-09
2.55962e-07
7.15092e-06
-1.74563e-06
1.32145e-05
-4.91561e-06
1.77348e-05
-7.49576e-06
2.04763e-05
-9.46034e-06
2.13379e-05
-1.07971e-05
2.05985e-05
-1.14979e-05
1.87218e-05
-1.16432e-05
1.60633e-05
-1.13573e-05
1.28923e-05
-1.07241e-05
9.48026e-06
-9.80629e-06
6.09283e-06
-8.68e-06
2.94775e-06
-7.42614e-06
2.10889e-07
-6.12046e-06
-2.00571e-06
-4.83341e-06
-3.6447e-06
-3.62689e-06
-4.69994e-06
-2.55023e-06
-5.20981e-06
-1.63713e-06
-5.24783e-06
-9.04203e-07
-4.91159e-06
-3.51472e-07
-4.31088e-06
3.51224e-08
-3.47483e-06
2.64288e-07
-2.4371e-06
3.36349e-07
-1.41362e-06
2.93196e-07
-5.81494e-07
2.09099e-07
2.90834e-08
1.26087e-07
4.2023e-07
5.6971e-08
6.24893e-07
7.5924e-09
6.98879e-07
-2.26169e-08
7.13436e-07
-3.81649e-08
-4.4833e-08
7.41577e-07
7.59832e-06
-1.80739e-06
1.40748e-05
-5.09169e-06
1.90062e-05
-7.7684e-06
2.23028e-05
-9.82576e-06
2.38488e-05
-1.12979e-05
2.36539e-05
-1.21751e-05
2.20964e-05
-1.24578e-05
1.96872e-05
-1.22486e-05
1.67309e-05
-1.1674e-05
1.34698e-05
-1.08067e-05
1.01814e-05
-9.7217e-06
7.07608e-06
-8.50288e-06
4.31452e-06
-7.2214e-06
2.00845e-06
-5.94385e-06
2.18106e-07
-4.72933e-06
-1.04399e-06
-3.62531e-06
-1.80741e-06
-2.66502e-06
-2.13511e-06
-1.86595e-06
-2.11338e-06
-1.23038e-06
-1.84151e-06
-7.47175e-07
-1.35977e-06
-4.05006e-07
-6.68052e-07
-2.06702e-07
6.50187e-08
-1.30521e-07
6.60336e-07
-1.16451e-07
1.0876e-06
-1.21894e-07
1.34978e-06
-1.30972e-07
1.48028e-06
-1.36582e-07
1.53202e-06
-1.37595e-07
1.5727e-06
-1.35476e-07
-1.32643e-07
1.65941e-06
8.06689e-06
-1.86427e-06
1.49839e-05
-5.25451e-06
2.03194e-05
-8.02432e-06
2.40375e-05
-1.0161e-05
2.61671e-05
-1.17163e-05
2.66781e-05
-1.27305e-05
2.56643e-05
-1.31977e-05
2.3599e-05
-1.31423e-05
2.08803e-05
-1.2659e-05
1.77758e-05
-1.18444e-05
1.46029e-05
-1.08035e-05
1.15539e-05
-9.62721e-06
8.78107e-06
-8.37741e-06
6.39673e-06
-7.11641e-06
4.46379e-06
-5.90085e-06
3.00185e-06
-4.77644e-06
1.99076e-06
-3.77616e-06
1.37883e-06
-2.91844e-06
1.09237e-06
-2.20789e-06
1.04467e-06
-1.63717e-06
1.18878e-06
-1.19552e-06
1.53175e-06
-8.79467e-07
1.96031e-06
-6.74781e-07
2.32459e-06
-5.47264e-07
2.58433e-06
-4.66118e-07
2.73747e-06
-4.11134e-07
2.81602e-06
-3.70363e-07
2.87031e-06
-3.38651e-07
2.96241e-06
-3.14901e-07
-2.99003e-07
3.12702e-06
8.5592e-06
-1.91609e-06
1.59412e-05
-5.4035e-06
2.17134e-05
-8.26034e-06
2.58418e-05
-1.04755e-05
2.8406e-05
-1.21001e-05
2.95138e-05
-1.31919e-05
2.91919e-05
-1.37922e-05
2.76725e-05
-1.3919e-05
2.53099e-05
-1.36025e-05
2.24159e-05
-1.29007e-05
1.93709e-05
-1.19239e-05
1.64004e-05
-1.07949e-05
1.3633e-05
-9.58416e-06
1.11866e-05
-8.34618e-06
9.12511e-06
-7.13629e-06
7.47701e-06
-5.99845e-06
6.23215e-06
-4.96618e-06
5.35093e-06
-4.05872e-06
4.77382e-06
-3.28312e-06
4.43012e-06
-2.63635e-06
4.27492e-06
-2.1094e-06
4.29321e-06
-1.6915e-06
4.41335e-06
-1.36958e-06
4.5439e-06
-1.12758e-06
4.64684e-06
-9.48043e-07
4.71268e-06
-8.16477e-07
4.76277e-06
-7.217e-07
4.84006e-06
-6.53699e-07
4.99969e-06
-6.06159e-07
-5.74809e-07
5.25227e-06
9.07742e-06
-1.96258e-06
1.69506e-05
-5.53795e-06
2.31863e-05
-8.47531e-06
2.77598e-05
-1.07652e-05
3.07443e-05
-1.24606e-05
3.22911e-05
-1.36168e-05
3.25442e-05
-1.42912e-05
3.16388e-05
-1.45318e-05
2.98312e-05
-1.43851e-05
2.73441e-05
-1.38793e-05
2.45085e-05
-1.30529e-05
2.16409e-05
-1.2005e-05
1.88968e-05
-1.08375e-05
1.64115e-05
-9.62809e-06
1.42396e-05
-8.43042e-06
1.24251e-05
-7.28552e-06
1.09673e-05
-6.22973e-06
9.83864e-06
-5.28225e-06
8.99468e-06
-4.4521e-06
8.38152e-06
-3.74e-06
7.95423e-06
-3.13624e-06
7.68644e-06
-2.62699e-06
7.53454e-06
-2.2062e-06
7.44617e-06
-1.86763e-06
7.40068e-06
-1.59878e-06
7.39366e-06
-1.38934e-06
7.43726e-06
-1.23097e-06
7.55803e-06
-1.11632e-06
7.79746e-06
-1.03904e-06
-9.8987e-07
8.14211e-06
9.62358e-06
-2.00353e-06
1.8016e-05
-5.65717e-06
2.47436e-05
-8.6681e-06
2.97902e-05
-1.10285e-05
3.32322e-05
-1.27932e-05
3.5209e-05
-1.40192e-05
3.59082e-05
-1.47636e-05
3.55049e-05
-1.508e-05
3.42644e-05
-1.50352e-05
3.23439e-05
-1.46866e-05
2.99099e-05
-1.40549e-05
2.72549e-05
-1.3173e-05
2.46027e-05
-1.21146e-05
2.21042e-05
-1.09598e-05
1.98418e-05
-9.77626e-06
1.78892e-05
-8.62922e-06
1.62482e-05
-7.56017e-06
1.49024e-05
-6.58424e-06
1.38226e-05
-5.71183e-06
1.29708e-05
-4.94698e-06
1.22973e-05
-4.27886e-06
1.17761e-05
-3.69002e-06
1.13936e-05
-3.18097e-06
1.11209e-05
-2.7585e-06
1.0948e-05
-2.41654e-06
1.08784e-05
-2.14332e-06
1.09256e-05
-1.92871e-06
1.11054e-05
-1.76671e-06
1.14423e-05
-1.65249e-06
-1.57641e-06
1.18988e-05
1.01995e-05
-2.0386e-06
1.91408e-05
-5.7602e-06
2.63903e-05
-8.83717e-06
3.19401e-05
-1.12633e-05
3.58703e-05
-1.30953e-05
3.83199e-05
-1.43912e-05
3.94694e-05
-1.52092e-05
3.95159e-05
-1.56065e-05
3.87212e-05
-1.56434e-05
3.72922e-05
-1.53841e-05
3.53425e-05
-1.48777e-05
3.3069e-05
-1.41615e-05
3.06698e-05
-1.32791e-05
2.82653e-05
-1.22641e-05
2.59709e-05
-1.11536e-05
2.39125e-05
-1.00236e-05
2.21306e-05
-8.94997e-06
2.0608e-05
-7.95895e-06
1.93335e-05
-7.05781e-06
1.82833e-05
-6.25432e-06
1.74e-05
-5.53567e-06
1.66561e-05
-4.8807e-06
1.60734e-05
-4.29679e-06
1.56485e-05
-3.80285e-06
1.53745e-05
-3.39788e-06
1.52554e-05
-3.07122e-06
1.5304e-05
-2.81344e-06
1.5537e-05
-2.61594e-06
1.59722e-05
-2.47139e-06
-2.37154e-06
1.65454e-05
1.08062e-05
-2.06731e-06
2.03271e-05
-5.84564e-06
2.81291e-05
-8.98025e-06
3.42131e-05
-1.14666e-05
3.86628e-05
-1.33627e-05
4.16173e-05
-1.47278e-05
4.32542e-05
-1.56206e-05
4.37747e-05
-1.60995e-05
4.34053e-05
-1.62233e-05
4.23685e-05
-1.60498e-05
4.08217e-05
-1.56296e-05
3.89517e-05
-1.50175e-05
3.69061e-05
-1.42675e-05
3.47782e-05
-1.34153e-05
3.26204e-05
-1.24666e-05
3.05454e-05
-1.14371e-05
2.86729e-05
-1.03939e-05
2.70203e-05
-9.39889e-06
2.56014e-05
-8.48186e-06
2.43984e-05
-7.65384e-06