/*--------------------------------*- C++ -*----------------------------------*\
| =========                 |                                                 |
| \\      /  F ield         | OpenFOAM: The Open Source CFD Toolbox           |
|  \\    /   O peration     | Version:  dev                                   |
|   \\  /    A nd           | Web:      www.OpenFOAM.org                      |
|    \\/     M anipulation  |                                                 |
\*---------------------------------------------------------------------------*/
FoamFile
{
    version     2.0;
    format      ascii;
    class       surfaceVectorField;
    location    "0.39";
    object      Uf;
}
// * * * * * * * * * * * * * * * * * * * * * * * * * * * * * * * * * * * * * //

dimensions      [0 1 -1 0 0 0 0];

internalField   nonuniform List<vector> 
5457
(
(9.91054 -1.31922e-21 0.0259254)
(9.95839 -2.63758e-22 0.0417812)
(9.80189 -1.31954e-20 0.0345208)
(9.91107 5.46684e-20 0.0523944)
(9.67314 1.39987e-20 0.0417622)
(9.8308 2.09623e-22 0.0641016)
(9.52301 -1.59424e-23 0.0490616)
(9.71816 2.84613e-20 0.0770784)
(9.35198 -1.58462e-20 0.0565047)
(9.58168 6.99948e-22 0.090477)
(9.16057 -3.16586e-20 0.0641687)
(9.42491 3.23475e-20 0.104275)
(8.94886 -1.6028e-20 0.072204)
(9.24768 3.12454e-20 0.118718)
(8.71652 2.80635e-22 0.080752)
(9.04916 1.5719e-20 0.134032)
(8.463 -1.4373e-23 0.0899263)
(8.82876 2.59426e-22 0.150388)
(8.1876 -2.80422e-22 0.0998269)
(8.5859 1.99213e-21 0.167926)
(7.88946 5.3858e-21 0.110551)
(8.31986 -1.17653e-21 0.186772)
(7.56763 4.92101e-21 0.12219)
(8.02976 -2.60454e-22 0.207042)
(7.22114 -3.20194e-22 0.134816)
(7.71462 -9.68484e-24 0.22882)
(6.84903 1.45887e-21 0.148481)
(7.37344 3.36276e-22 0.252136)
(6.45048 1.42177e-21 0.163201)
(7.00528 -6.97482e-22 0.276961)
(6.02489 0 0.178942)
(6.60934 7.39676e-22 0.303178)
(5.57206 0 0.19558)
(6.18511 9.36072e-21 0.330536)
(5.09243 -1.4274e-20 0.21286)
(5.73253 2.96033e-20 0.35859)
(4.58736 8.70901e-21 0.230339)
(5.25227 -3.67858e-22 0.38664)
(4.05947 6.22907e-21 0.247312)
(4.74597 -6.79106e-21 0.413657)
(3.51315 -2.36874e-20 0.262681)
(4.21667 -1.03668e-22 0.438194)
(2.95508 -2.56193e-20 0.274799)
(3.66918 5.62473e-20 0.458215)
(2.39494 1.03485e-21 0.281375)
(3.11061 -8.46644e-20 0.470944)
(1.84606 -2.08562e-20 0.27952)
(2.55081 8.92127e-20 0.472828)
(1.32572 2.25811e-20 0.26615)
(2.0027 -2.23623e-19 0.459651)
(0.854863 5.83862e-20 0.239045)
(1.48219 1.94611e-19 0.426974)
(0.456316 2.19093e-20 0.198397)
(1.00728 0 0.371226)
(0.151268 2.13788e-20 0.142019)
(0.598732 6.44593e-19 0.291038)
(-0.0353333 0 0.047546)
(0.278424 1.5497e-21 0.176494)
(0.144058 -6.33468e-19 -0.0283677)
(9.9913 5.66807e-20 0.0561641)
(9.98577 -2.70114e-20 0.0458708)
(9.94312 6.7251e-20 0.0778321)
(9.96382 8.31525e-20 0.0756702)
(9.86945 1.50808e-20 0.0970215)
(9.91254 -1.46e-20 0.100833)
(9.77252 2.88038e-20 0.116726)
(9.82964 -8.59168e-22 0.1269)
(9.65275 4.92997e-20 0.137115)
(9.72239 9.37472e-22 0.153893)
(9.51056 9.52197e-20 0.158308)
(9.59444 1.66283e-20 0.181807)
(9.34605 6.27859e-20 0.180617)
(9.44591 4.53865e-20 0.211037)
(9.15899 1.54985e-20 0.20435)
(9.27612 -3.23774e-20 0.242017)
(8.9489 2.28865e-21 0.229751)
(9.0846 -2.21073e-21 0.2751)
(8.71509 1.05499e-21 0.257025)
(8.87086 4.06921e-20 0.310581)
(8.4567 -6.82299e-21 0.286355)
(8.63425 -1.17674e-21 0.348726)
(8.17281 -5.19959e-21 0.31789)
(8.37397 -2.52683e-20 0.38977)
(7.86241 6.5127e-22 0.351718)
(8.0891 -9.96604e-21 0.433887)
(7.52449 -1.84095e-21 0.387849)
(7.77866 3.36422e-22 0.481166)
(7.15814 -1.36904e-21 0.426177)
(7.44168 -3.57213e-21 0.531578)
(6.76262 1.02147e-20 0.466434)
(7.07725 -7.84867e-22 0.584915)
(6.33755 3.92346e-20 0.508118)
(6.68465 3.09648e-20 0.640715)
(5.88311 4.32922e-20 0.550399)
(6.2635 2.29232e-20 0.698152)
(5.40029 -1.60068e-20 0.592029)
(5.81394 8.22129e-20 0.755918)
(4.89122 -1.32516e-20 0.631232)
(5.33687 -4.35656e-20 0.81208)
(4.35956 8.07161e-20 0.66556)
(4.8343 1.05999e-19 0.86394)
(3.81083 -4.5744e-21 0.691716)
(4.30969 1.43283e-21 0.907833)
(3.25267 5.80527e-21 0.705507)
(3.7681 -3.46615e-20 0.938973)
(2.695 -1.1774e-19 0.701995)
(3.21641 2.80016e-19 0.951506)
(2.14967 -4.67865e-20 0.675972)
(2.66322 -4.39077e-19 0.938833)
(1.62976 1.33177e-19 0.622967)
(2.11853 1.35107e-19 0.894362)
(1.14833 6.31853e-19 0.540831)
(1.5928 -3.91749e-20 0.812821)
(0.71666 6.28898e-19 0.426883)
(1.09571 6.26545e-19 0.692025)
(0.336006 -5.76706e-19 0.262726)
(0.649647 3.35593e-19 0.527422)
(0.355376 -8.60927e-19 0.27273)
(9.98367 7.76927e-22 0.0680713)
(9.98338 4.20093e-22 0.0534738)
(9.93836 -1.45855e-22 0.101862)
(9.95878 -5.4723e-20 0.0974623)
(9.86797 -3.03982e-20 0.133502)
(9.90838 8.86502e-22 0.1358)
(9.77572 -2.87471e-20 0.166057)
(9.82836 -2.91216e-20 0.174158)
(9.66249 -3.15435e-20 0.199931)
(9.72491 -1.86586e-21 0.213685)
(9.52864 -3.28504e-20 0.235333)
(9.60174 -3.11331e-20 0.254603)
(9.37439 -5.07881e-20 0.27269)
(9.45924 -3.42855e-20 0.29741)
(9.19967 -4.96939e-20 0.312461)
(9.29691 -1.67986e-20 0.342696)
(9.00416 3.6749e-20 0.355043)
(9.11441 -4.49395e-23 0.390986)
(8.7873 3.79268e-20 0.40078)
(8.91144 -3.36493e-20 0.442735)
(8.54841 -1.99323e-20 0.449975)
(8.68755 -2.36846e-21 0.498345)
(8.28669 -2.98441e-20 0.502877)
(8.44212 -1.46908e-20 0.558162)
(8.00125 -1.01519e-20 0.55966)
(8.17445 1.91113e-20 0.622467)
(7.69112 -1.44466e-21 0.620375)
(7.88375 -1.32265e-21 0.691446)
(7.35534 -2.95446e-21 0.684898)
(7.56916 -1.55938e-23 0.765128)
(6.99299 2.04364e-20 0.752842)
(7.22983 -5.9299e-21 0.843302)
(6.60337 1.47314e-20 0.823456)
(6.86499 -2.43075e-20 0.925417)
(6.18605 6.2766e-20 0.895485)
(6.47399 -3.23765e-20 1.01045)
(5.74116 5.30861e-20 0.967019)
(6.05645 2.79397e-20 1.09673)
(5.26953 7.75166e-20 1.03532)
(5.61238 -2.82368e-20 1.18174)
(4.77312 2.52162e-20 1.09664)
(5.14245 1.87471e-21 1.26192)
(4.25515 -2.92347e-20 1.14612)
(4.64823 -9.37502e-20 1.3325)
(3.72018 2.43665e-19 1.17779)
(4.13223 -1.62201e-19 1.38745)
(3.17404 -5.01115e-20 1.18479)
(3.598 2.09201e-19 1.41954)
(2.62357 -2.50368e-19 1.16002)
(3.05007 -2.53545e-19 1.42082)
(2.076 -3.96881e-20 1.09729)
(2.49373 0 1.38349)
(1.53835 -3.89118e-20 0.992919)
(1.93458 -1.94143e-19 1.30131)
(1.01738 3.37e-19 0.846856)
(1.37715 1.88931e-20 1.17161)
(0.51368 1.77987e-19 0.653975)
(0.833006 3.12493e-19 0.996853)
(0.451784 -1.01036e-20 0.740202)
(9.97955 -5.57668e-20 0.0834188)
(9.98212 4.20078e-22 0.0630048)
(9.93441 -5.29011e-20 0.130787)
(9.9559 -1.64053e-19 0.119175)
(9.86501 1.76458e-21 0.175691)
(9.9055 -1.11452e-19 0.170272)
(9.77398 -1.87181e-21 0.221007)
(9.8267 -5.78058e-20 0.220788)
(9.66255 -1.84126e-21 0.267644)
(9.72505 -3.74325e-21 0.272514)
(9.53121 -3.25843e-20 0.316102)
(9.60413 5.97017e-20 0.326026)
(9.38023 -6.28136e-23 0.366992)
(9.46445 -2.81881e-20 0.38194)
(9.20968 3.30503e-20 0.420945)
(9.30564 3.12767e-20 0.440963)
(9.0194 -7.08662e-20 0.478534)
(9.12745 -6.65759e-20 0.503755)
(8.8091 -7.35396e-20 0.540265)
(8.92972 -3.61749e-20 0.570896)
(8.57832 2.71099e-21 0.606575)
(8.71215 3.48115e-20 0.642896)
(8.32653 3.46973e-20 0.677837)
(8.47435 -1.67227e-20 0.720195)
(8.05312 2.76876e-20 0.754338)
(8.21581 1.15921e-20 0.803163)
(7.7574 1.23883e-22 0.836234)
(7.93594 -1.32368e-21 0.89207)
(7.43865 -3.06699e-21 0.923466)
(7.63414 1.41299e-21 0.987011)
(7.09614 -5.09415e-20 1.01566)
(7.30976 -4.40887e-21 1.08782)
(6.72914 -7.15278e-20 1.11201)
(6.96214 -2.17607e-20 1.19395)
(6.33705 -6.64472e-20 1.21108)
(6.59062 2.4556e-20 1.30434)
(5.91946 -5.41107e-20 1.31066)
(6.19459 -9.32409e-20 1.41718)
(5.47625 -1.03614e-19 1.40748)
(5.77353 -1.40245e-20 1.52975)
(5.0078 -1.18471e-19 1.49706)
(5.32712 -3.04023e-20 1.6381)
(4.5151 -2.27877e-19 1.57361)
(4.8553 -2.95723e-20 1.73694)
(3.99983 -1.92622e-19 1.6301)
(4.3584 -1.31721e-19 1.81963)
(3.46435 3.77617e-22 1.65847)
(3.83724 2.00441e-19 1.87822)
(2.91164 3.68708e-22 1.65042)
(3.29321 -3.47381e-19 1.90394)
(2.3451 -1.56408e-19 1.5986)
(2.72832 1.44746e-19 1.88819)
(1.76849 -1.33911e-19 1.49844)
(2.14542 -4.14411e-20 1.82405)
(1.18608 -2.83908e-21 1.35143)
(1.54755 1.77662e-19 1.70883)
(0.599275 1.3593e-19 1.14183)
(0.937082 -1.85907e-19 1.54928)
(0.501068 1.68871e-19 1.30143)
(9.97766 -1.10014e-19 0.0994746)
(9.98154 -1.05827e-19 0.0734185)
(9.93232 -2.2189e-19 0.158992)
(9.95463 -1.09053e-19 0.140992)
(9.86396 -1.70288e-19 0.215957)
(9.90452 -8.53832e-22 0.204228)
(9.77442 -5.89499e-20 0.273124)
(9.82713 -1.52315e-25 0.266661)
(9.66498 5.86344e-20 0.331822)
(9.72761 -1.24424e-19 0.330296)
(9.5362 6.29494e-20 0.39283)
(9.60933 6.3254e-20 0.396063)
(9.38834 3.92319e-21 0.456891)
(9.47278 -5.95294e-20 0.464736)
(9.22147 -6.96127e-20 0.524743)
(9.31766 0 0.537122)
(9.0355 -3.14903e-20 0.597061)
(9.14376 -6.83455e-20 0.613989)
(8.83023 7.30967e-20 0.674438)
(8.95094 3.58957e-20 0.696017)
(8.60533 1.47206e-20 0.75739)
(8.73899 4.73971e-21 0.783806)
(8.36039 -3.94841e-20 0.84636)
(8.50758 -2.62198e-20 0.877874)
(8.09496 -1.75923e-20 0.941698)
(8.25628 -1.78221e-20 0.978664)
(7.80853 0 1.04362)
(7.98462 2.08376e-20 1.0865)
(7.50058 0 1.15211)
(7.6921 0 1.20154)
(7.17051 2.45942e-20 1.26685)
(7.37819 0 1.32366)
(6.81774 7.50382e-20 1.38703)
(7.04229 2.4309e-20 1.45238)
(6.4416 -3.67963e-21 1.51124)
(6.68376 4.68933e-22 1.58666)
(6.04141 -5.21088e-20 1.63719)
(6.30183 2.56705e-20 1.72477)
(5.61648 5.91872e-20 1.76151)
(5.89566 8.11558e-20 1.86398)
(5.1661 5.88261e-20 1.8795)
(5.46425 5.85475e-20 2.00039)
(4.68962 6.57843e-20 1.98507)
(5.00645 -5.75309e-20 2.12867)
(4.18659 2.66233e-19 2.0707)
(4.52104 1.88521e-19 2.24203)
(3.65689 -1.53829e-19 2.12778)
(4.00691 6.90533e-21 2.33222)
(3.10088 -1.97643e-19 2.14727)
(3.46329 -3.49145e-19 2.39)
(2.51975 2.58268e-19 2.12103)
(2.89008 2.86899e-19 2.40603)
(1.91589 2.7279e-19 2.04389)
(2.28854 1.14061e-19 2.37251)
(1.29382 -1.02321e-20 1.91814)
(1.66189 1.19864e-19 2.28554)
(0.658462 -1.6207e-19 1.73424)
(1.00408 -1.44096e-19 2.15242)
(0.528637 4.15233e-20 1.93628)
(9.97691 -1.04954e-19 0.11579)
(9.98131 1.67918e-21 0.0841844)
(9.93169 1.13387e-19 0.18684)
(9.95436 2.16463e-19 0.162756)
(9.86469 1.69395e-19 0.25554)
(9.90499 1.10568e-19 0.237514)
(9.77718 -6.71372e-20 0.324468)
(9.8294 5.95872e-20 0.311494)
(9.67033 -1.17305e-19 0.395141)
(9.73248 -3.74504e-21 0.386719)
(9.54471 -6.0805e-20 0.468542)
(9.61739 -1.83712e-19 0.464389)
(9.40059 -6.26764e-20 0.545533)
(9.48461 -7.63551e-23 0.545447)
(9.23803 3.63524e-22 0.626951)
(9.33385 4.0721e-21 0.630809)
(9.05697 3.5431e-22 0.713562)
(9.16494 6.85515e-20 0.721338)
(8.8572 -3.28511e-20 0.806053)
(8.97773 -4.44714e-21 0.817809)
(8.63844 -3.65994e-20 0.905022)
(8.77203 -1.0095e-19 0.920905)
(8.40032 -4.45737e-21 1.01099)
(8.54751 6.69428e-20 1.03122)
(8.14241 2.11076e-20 1.12437)
(8.30374 9.92686e-21 1.14927)
(7.86425 2.05836e-20 1.24543)
(8.04027 -5.03273e-21 1.27543)
(7.56533 0 1.37421)
(7.75656 1.35885e-21 1.40992)
(7.24511 0 1.51046)
(7.45206 -1.39022e-21 1.55268)
(6.90294 -5.068e-20 1.65344)
(7.12611 5.90747e-21 1.7033)
(6.5381 3.01934e-20 1.80183)
(6.77794 -6.84869e-20 1.86087)
(6.14965 1.59976e-19 1.95346)
(6.40662 7.85237e-20 2.02379)
(5.73646 8.02634e-20 2.10509)
(6.01095 1.4461e-20 2.18955)
(5.29709 -5.94853e-20 2.25218)
(5.58943 -2.75228e-20 2.35449)
(4.82984 6.82816e-20 2.3887)
(5.14016 1.16302e-19 2.51355)
(4.33284 -7.37557e-20 2.5071)
(4.6609 3.79259e-21 2.66012)
(3.80431 -1.92441e-19 2.5985)
(4.14921 -1.30468e-19 2.78596)
(3.24291 1.43225e-19 2.65332)
(3.60284 -2.22258e-22 2.88154)
(2.64845 1.40318e-19 2.66256)
(3.02028 3.50542e-19 2.9368)
(2.02257 -3.89609e-20 2.61983)
(2.4017 -1.45845e-19 2.94276)
(1.36955 -1.76638e-20 2.52628)
(1.75111 -2.30098e-22 2.89386)
(0.695956 6.2501e-20 2.3588)
(1.05443 -5.92729e-20 2.79557)
(0.543388 6.50501e-22 2.58257)
(9.97681 3.25808e-19 0.132102)
(9.98128 -1.04076e-19 0.0949996)
(9.93214 2.12187e-19 0.214225)
(9.95477 1.70453e-21 0.184256)
(9.86678 8.24252e-23 0.294204)
(9.90658 -3.48609e-21 0.26999)
(9.78172 1.22098e-19 0.374505)
(9.83312 1.79042e-21 0.355078)
(9.67795 -7.25355e-20 0.456748)
(9.73921 4.85363e-21 0.441516)
(9.55608 -1.20578e-19 0.542097)
(9.62783 -6.89702e-20 0.530687)
(9.41635 6.67055e-20 0.631559)
(9.49943 6.33929e-20 0.623705)
(9.25885 7.30711e-20 0.726075)
(9.35373 7.305e-20 0.721597)
(9.0835 6.28005e-20 0.826513)
(9.19058 -3.22625e-21 0.825323)
(8.8901 -7.37737e-20 0.933645)
(9.00983 -3.98539e-23 0.935752)
(8.67836 4.71021e-21 1.04816)
(8.81128 -8.80147e-23 1.05366)
(8.44787 8.06137e-20 1.17064)
(8.59458 3.35688e-20 1.17972)
(8.1982 -1.64082e-20 1.30157)
(8.35928 -3.4026e-20 1.31452)
(7.92883 -2.41909e-20 1.44128)
(8.10486 -1.57018e-20 1.45852)
(7.63916 -6.54312e-23 1.5899)
(7.8307 -2.49812e-20 1.61202)
(7.32855 4.61281e-21 1.74724)
(7.53612 -1.39239e-21 1.77505)
(6.99619 -1.27782e-20 1.91269)
(7.22028 5.91993e-21 1.94733)
(6.64114 -1.84073e-20 2.08509)
(6.88221 -1.2388e-20 2.12811)
(6.26218 -6.81977e-20 2.26251)
(6.52067 -6.40199e-21 2.31602)
(5.85775 -9.42016e-20 2.44199)
(6.1341 -4.11287e-20 2.50886)
(5.42583 1.50636e-19 2.61936)
(5.7205 -5.4449e-20 2.70336)
(4.96397 5.03756e-20 2.78892)
(5.27738 1.76209e-19 2.89491)
(4.46931 -5.44023e-20 2.94334)
(4.80169 -1.22012e-19 3.07728)
(3.93887 6.41101e-20 3.07368)
(4.29 -5.4819e-20 3.24247)
(3.37013 2.11317e-19 3.16987)
(3.73888 0 3.38077)
(2.76195 5.83005e-20 3.22181)
(3.14569 3.41218e-19 3.48131)
(2.11558 -1.05485e-19 3.22138)
(2.50959 -1.46228e-19 3.53349)
(1.43569 -4.31659e-20 3.16808)
(1.83605 1.12404e-19 3.52928)
(0.726937 -1.20695e-19 3.03515)
(1.10418 -1.57579e-19 3.47419)
(0.561632 -8.14872e-20 3.31322)
(9.97711 -4.26774e-19 0.148198)
(9.98137 -2.10491e-19 0.105674)
(9.93341 -2.1401e-19 0.24097)
(9.95565 -1.06923e-19 0.205292)
(9.86999 -1.71198e-21 0.331747)
(9.90903 1.73371e-21 0.301502)
(9.78775 -1.15386e-19 0.422981)
(9.83808 -3.54677e-21 0.397221)
(9.68755 7.41107e-21 0.516369)
(9.74757 3.72344e-21 0.494433)
(9.56998 1.16681e-19 0.613228)
(9.64039 1.18208e-19 0.594655)
(9.43529 6.98643e-20 0.714702)
(9.51695 0 0.699152)
(9.28358 -4.22247e-21 0.821841)
(9.37698 1.40973e-19 0.809068)
(9.11475 -6.60176e-20 0.935606)
(9.22034 -1.45761e-19 0.925463)
(8.92861 7.36251e-20 1.05686)
(9.0469 1.31342e-20 1.0493)
(8.72484 2.91824e-20 1.18639)
(8.85644 5.94892e-20 1.18145)
(8.50303 -8.19319e-20 1.32486)
(8.64858 -3.78914e-20 1.32269)
(8.26267 -3.30929e-20 1.47285)
(8.42285 7.18947e-20 1.4737)
(8.00315 -1.66056e-20 1.63078)
(8.17864 1.02049e-20 1.63504)
(7.72376 -2.6032e-20 1.79887)
(7.91524 -1.07538e-22 1.80713)
(7.42364 0 1.97708)
(7.63178 -2.64059e-21 1.99015)
(7.10178 6.11408e-21 2.16498)
(7.32723 -4.20912e-21 2.18399)
(6.75692 -2.87317e-22 2.36162)
(7.0003 3.0679e-20 2.38813)
(6.38746 2.04221e-20 2.56539)
(6.64942 4.19272e-20 2.6015)
(5.99138 -1.2939e-21 2.77374)
(6.27259 1.35611e-20 2.82231)
(5.56615 -2.65304e-20 2.98299)
(5.8673 1.24667e-20 3.04779)
(5.10859 0 3.18794)
(5.43044 2.74656e-20 3.27388)
(4.615 -1.21724e-19 3.38165)
(4.95819 -2.24202e-19 3.49493)
(4.08138 -1.18642e-19 3.5553)
(4.4462 8.90522e-20 3.70333)
(3.50407 1.33821e-19 3.69827)
(3.88985 0 3.88931)
(2.88093 1.30331e-19 3.79912)
(3.28515 -1.30312e-19 4.04108)
(2.21291 7.51553e-20 3.84713)
(2.62973 -6.90379e-20 4.14585)
(1.5062 -5.37011e-21 3.8388)
(1.93044 1.46014e-19 4.19125)
(0.77311 -1.23698e-19 3.74761)
(1.16427 -4.00419e-20 4.17664)
(0.590251 4.30007e-19 4.04401)
(9.9777 1.10638e-19 0.163908)
(9.98156 1.38583e-21 0.116078)
(9.93531 1.10247e-19 0.266908)
(9.95689 3.21545e-19 0.225695)
(9.87415 -1.61465e-22 0.367995)
(9.91218 5.18617e-21 0.331894)
(9.7951 1.15604e-19 0.469688)
(9.84408 -3.54586e-21 0.437737)
(9.69892 1.15992e-19 0.573751)
(9.75737 1.17521e-19 0.545233)
(9.58617 0 0.68163)
(9.65486 0 0.656003)
(9.45713 7.2949e-20 0.794597)
(9.53693 1.15739e-19 0.771445)
(9.31189 -4.24984e-21 0.91381)
(9.40332 -4.86904e-20 0.892822)
(9.15038 -6.46041e-20 1.04033)
(9.25392 5.04064e-20 1.02129)
(8.97238 -4.14351e-22 1.17512)
(9.08861 1.72454e-20 1.15792)
(8.77758 -8.80632e-21 1.31906)
(8.90715 -1.78644e-20 1.30367)
(8.56554 1.17319e-19 1.47293)
(8.70918 8.23349e-20 1.45944)
(8.33568 1.14445e-19 1.63742)
(8.49418 3.91061e-20 1.62602)
(8.08731 2.65908e-20 1.81307)
(8.26147 -8.85415e-20 1.80412)
(7.81958 2.32751e-20 2.00027)
(8.01025 3.64529e-20 1.9943)
(7.53144 -6.87457e-21 2.19915)
(7.73951 3.95215e-20 2.19695)
(7.22159 2.07992e-20 2.40952)
(7.44796 1.33251e-21 2.41219)
(6.88844 7.31612e-20 2.63076)
(7.13405 -3.97828e-21 2.63982)
(6.52997 3.47417e-20 2.86164)
(6.7958 6.04005e-22 2.87916)
(6.14369 2.74131e-20 3.10013)
(6.43076 -6.42579e-20 3.12891)
(5.72643 6.69548e-20 3.34313)
(6.03588 -5.73544e-20 3.38691)
(5.27432 -2.0067e-19 3.58611)
(5.60734 4.09011e-20 3.64983)
(4.78274 -8.61494e-21 3.82272)
(5.14053 -4.69145e-20 3.91274)
(4.24655 2.08184e-19 4.04435)
(4.63002 2.40328e-19 4.16864)
(3.66065 -2.68006e-19 4.23994)
(4.0698 0 4.40791)
(3.02126 -3.30928e-19 4.39633)
(3.45402 -2.65844e-19 4.61794)
(2.32812 3.79978e-21 4.49893)
(2.77749 -2.95358e-19 4.78341)
(1.58855 1.09083e-19 4.53595)
(2.04512 2.04504e-21 4.88589)
(0.828242 5.14488e-19 4.45902)
(1.22569 1.82748e-19 4.90763)
(0.596419 4.76381e-19 4.70659)
(9.97848 2.16446e-19 0.179101)
(9.98181 4.18083e-19 0.126115)
(9.93772 2.12186e-19 0.291886)
(9.95843 2.37243e-21 0.24532)
(9.87913 1.69476e-21 0.40278)
(9.91593 2.16528e-19 0.36101)
(9.8036 0 0.514416)
(9.85101 3.52629e-21 0.476446)
(9.71186 0 0.628633)
(9.76847 -3.60443e-21 0.593692)
(9.60444 1.17228e-19 0.746988)
(9.67108 0 0.714459)
(9.48163 -7.973e-21 0.870871)
(9.55918 -1.30327e-19 0.840262)
(9.34353 7.22805e-21 1.00155)
(9.43255 -1.28599e-19 0.972476)
(9.19008 1.31767e-19 1.14018)
(9.29108 1.24602e-19 1.11236)
(9.02109 -6.47849e-22 1.28784)
(9.13468 1.5194e-19 1.26108)
(8.83623 7.45291e-20 1.4455)
(8.96315 -8.94492e-21 1.41971)
(8.63506 3.60241e-21 1.61407)
(8.77609 9.23407e-21 1.58927)
(8.41695 -1.65469e-19 1.79438)
(8.573 -1.41965e-19 1.77067)
(8.18116 -7.71859e-20 1.98715)
(8.35316 5.73893e-20 1.9648)
(7.92669 5.27583e-20 2.19294)
(8.11569 -6.96873e-20 2.17241)
(7.65234 4.73125e-20 2.41216)
(7.85946 -4.10671e-20 2.39413)
(7.35656 -2.35598e-20 2.64493)
(7.58302 3.73614e-20 2.63042)
(7.03741 -7.6716e-20 2.89102)
(7.28455 -2.89029e-20 2.88147)
(6.69248 -9.94402e-20 3.14969)
(6.96174 -2.51041e-20 3.14708)
(6.31872 -1.4949e-19 3.41955)
(6.61166 -3.80106e-21 3.42658)
(5.91237 -8.27632e-20 3.69824)
(6.23068 1.27117e-21 3.71855)
(5.46875 1.95659e-19 3.98209)
(5.81427 1.33341e-20 4.02058)
(4.98221 2.06797e-19 4.26555)
(5.35687 1.68335e-19 4.32873)
(4.44619 2.79464e-20 4.54053)
(4.85179 -1.69601e-19 4.63692)
(3.85364 0 4.79577)
(4.29132 0 4.93603)
(3.19805 -2.30041e-19 5.01646)
(3.66718 0 5.21308)
(2.47557 -2.93931e-19 5.18422)
(2.97017 2.19837e-20 5.45063)
(1.6875 7.7249e-20 5.28163)
(2.20117 -6.98138e-20 5.6262)
(0.832519 1.42399e-19 5.24406)
(1.32492 -3.78636e-20 5.72645)
(0.612243 1.94344e-20 5.70718)
(9.97943 1.98643e-19 0.193667)
(9.98212 7.52748e-22 0.13571)
(9.94054 9.66614e-21 0.315762)
(9.9602 -2.092e-19 0.264042)
(9.88482 2.15467e-19 0.435937)
(9.9202 2.13245e-19 0.388703)
(9.81316 -1.64258e-22 0.556969)
(9.85879 -2.19081e-19 0.513174)
(9.72627 -3.55632e-21 0.680775)
(9.78078 -3.60296e-21 0.639596)
(9.62466 -2.49142e-19 0.809013)
(9.68893 0 0.769762)
(9.50863 -2.50845e-19 0.943181)
(9.58357 -1.23358e-19 0.905291)
(9.37831 -7.97909e-21 1.08465)
(9.4645 1.25152e-19 1.04766)
(9.23366 1.45119e-19 1.23468)
(9.33163 -8.1733e-21 1.19824)
(9.07451 1.41592e-19 1.39444)
(9.18492 8.42518e-21 1.35827)
(8.90055 -7.39681e-20 1.56504)
(9.02418 -8.71954e-21 1.52897)
(8.71135 -1.38164e-19 1.74751)
(8.84907 -6.41419e-20 1.71144)
(8.50629 8.33249e-20 1.94283)
(8.65907 9.37916e-21 1.90678)
(8.28455 6.33187e-20 2.15193)
(8.45349 6.88295e-20 2.11604)
(8.04511 -1.63233e-19 2.37561)
(8.23142 -7.85094e-20 2.3402)
(7.78662 -5.01142e-20 2.61459)
(7.99167 -4.21598e-20 2.58021)
(7.50736 3.1291e-20 2.86938)
(7.73271 -6.28392e-20 2.83687)
(7.20513 2.28988e-20 3.14025)
(7.45254 1.06063e-20 3.11086)
(6.87714 7.11097e-20 3.42709)
(7.1486 2.27519e-20 3.4026)
(6.51986 1.47825e-19 3.72926)
(6.81758 3.67229e-20 3.71219)
(6.12884 9.80968e-20 4.04538)
(6.4553 9.94939e-20 4.03916)
(5.69858 -1.33055e-20 4.37288)
(6.05649 -4.7421e-20 4.38228)
(5.22224 -2.14941e-19 4.70741)
(5.61455 -1.32329e-20 4.73898)
(4.69161 -1.97017e-19 5.04192)
(5.12136 4.55654e-21 5.10459)
(4.09716 0 5.36547)
(4.56714 2.0319e-19 5.47126)
(3.42852 2.57399e-19 5.66211)
(3.94075 0 5.82641)
(2.67597 2.49192e-19 5.90921)
(3.22782 6.96319e-19 6.15129)
(1.83634 -1.82172e-19 6.07468)
(2.4178 0 6.41637)
(0.963375 -1.61621e-19 6.03972)
(1.42109 3.26188e-19 6.55698)
(0.638576 -1.20194e-18 6.16179)
(9.98052 -4.09707e-19 0.207511)
(9.98247 -2.08161e-19 0.144798)
(9.94374 1.60911e-22 0.338403)
(9.96217 -3.29056e-21 0.281748)
(9.89117 -2.26993e-19 0.467307)
(9.92491 -2.15009e-19 0.41483)
(9.82371 -2.19603e-19 0.597153)
(9.8673 1.90019e-22 0.54775)
(9.74206 0 0.729943)
(9.79417 0 0.682738)
(9.64672 1.24039e-19 0.867424)
(9.70825 1.16846e-19 0.821661)
(9.538 2.55675e-19 1.01119)
(9.60989 1.22405e-19 0.966232)
(9.41607 1.23215e-19 1.16272)
(9.4989 1.56413e-20 1.11802)
(9.28092 -1.44523e-19 1.32336)
(9.37526 1.1172e-19 1.27849)
(9.13242 -1.41974e-19 1.49439)
(9.23895 -1.34794e-19 1.449)
(8.97031 3.9617e-22 1.67703)
(9.08984 1.27193e-19 1.63083)
(8.79418 8.42281e-20 1.87246)
(8.92763 1.49062e-19 1.82524)
(8.60344 -4.37909e-21 2.08182)
(8.75188 2.37348e-19 2.03348)
(8.3973 -7.477e-20 2.30626)
(8.56192 -2.12217e-20 2.25678)
(8.17473 4.29531e-20 2.54686)
(8.35691 7.95154e-20 2.49638)
(7.93434 -5.51446e-20 2.80468)
(8.13567 1.20085e-19 2.75353)
(7.67433 -8.27047e-20 3.0807)
(7.89666 -3.25731e-20 3.02945)
(7.39237 1.05877e-20 3.37578)
(7.63787 -1.01912e-20 3.32538)
(7.08541 -1.15987e-20 3.69057)
(7.35664 -2.09927e-20 3.64247)
(6.74953 -1.12885e-20 4.02542)
(7.04946 -3.3456e-20 3.98173)
(6.3797 -4.81292e-20 4.38013)
(6.71178 0 4.34393)
(5.96958 -4.71066e-20 4.75366)
(6.33772 -9.56845e-22 4.72935)
(5.5111 2.09865e-19 5.14342)
(5.9197 4.56821e-20 5.13732)
(4.99425 4.13133e-19 5.54427)
(5.44803 2.0958e-19 5.56548)
(4.4067 2.02874e-19 5.94687)
(4.91057 -1.70485e-19 6.00843)
(3.73362 4.5305e-19 6.3357)
(4.29314 -1.84928e-19 6.45578)
(2.9567 4.37592e-19 6.6875)
(3.57818 6.30336e-19 6.89092)
(2.0419 5.22466e-19 6.98024)
(2.7568 5.68888e-19 7.29624)
(0.841206 -7.29086e-19 7.0549)
(1.66424 -6.82537e-19 7.72197)
(0.88806 -3.09686e-18 8.01364)
(9.98171 2.00839e-19 0.220553)
(9.98286 2.08604e-19 0.153329)
(9.94723 -2.2123e-19 0.359693)
(9.9643 -2.10474e-19 0.298345)
(9.89805 1.50043e-20 0.496741)
(9.92996 -2.16778e-19 0.43927)
(9.83508 2.19641e-19 0.634789)
(9.87639 2.29453e-19 0.580027)
(9.759 1.18351e-19 0.775918)
(9.8084 -7.05094e-21 0.722937)
(9.67032 1.1529e-19 0.921956)
(9.72875 -1.09355e-22 0.869937)
(9.56938 -1.18843e-19 1.07459)
(9.63777 -7.51484e-21 1.02282)
(9.45638 5.45603e-21 1.23537)
(9.53532 -1.09611e-19 1.18325)
(9.33136 1.18231e-19 1.40576)
(9.42143 7.8743e-21 1.35276)
(9.19424 1.37565e-19 1.58713)
(9.29614 -1.62867e-20 1.5328)
(9.04483 2.76032e-19 1.78081)
(9.15939 -6.19837e-23 1.72476)
(8.88279 3.03198e-19 1.98811)
(9.01096 -3.47994e-23 1.93002)
(8.70759 2.173e-19 2.21037)
(8.85049 1.8307e-20 2.14996)
(8.51854 1.34177e-19 2.44892)
(8.67743 1.27481e-19 2.38601)
(8.31465 1.57063e-19 2.70515)
(8.49103 7.80884e-20 2.63965)
(8.0946 1.40843e-19 2.9805)
(8.29025 1.02579e-22 2.91245)
(7.85666 4.01867e-20 3.27644)
(8.07368 6.20922e-20 3.20609)
(7.5985 -4.19214e-20 3.59451)
(7.83941 -2.09762e-20 3.52235)
(7.31704 -4.30018e-20 3.93624)
(7.58493 2.15552e-20 3.8632)
(7.00824 -2.18231e-20 4.30316)
(7.30685 1.04679e-19 4.23073)
(6.66674 4.74351e-20 4.6966)
(7.00065 -4.3243e-20 4.62715)
(6.28559 9.29007e-20 5.11751)
(6.66027 4.70769e-20 5.05466)
(5.8557 4.55256e-20 5.56596)
(6.27763 8.70359e-20 5.51529)
(5.36531 -3.88516e-19 6.04019)
(5.8419 -4.26836e-20 6.01029)
(4.79954 -5.7265e-19 6.53506)
(5.33881 -2.11924e-19 6.53896)
(4.14037 -1.17759e-20 7.03996)
(4.75111 -2.01222e-20 7.09644)
(3.36786 7.83978e-19 7.53864)
(4.06098 -1.93064e-19 7.67118)
(2.46591 -7.24987e-19 8.04383)
(3.29774 3.46164e-19 8.24396)
(1.40757 -3.27e-18 8.47633)
(2.35805 -9.71127e-19 8.86814)
(1.74021 -1.76087e-18 9.33623)
(9.98298 -2.08183e-19 0.23273)
(9.98328 -2.04295e-19 0.161268)
(9.95093 -2.0612e-19 0.379534)
(9.96655 -2.02191e-19 0.313766)
(9.90533 3.68679e-21 0.524117)
(9.93525 -2.08796e-19 0.461932)
(9.84706 -3.17732e-22 0.669722)
(9.88588 -6.76001e-21 0.609892)
(9.77682 -1.25313e-19 0.818514)
(9.82323 6.97552e-21 0.760052)
(9.69512 -1.22905e-19 0.972389)
(9.75006 -1.16743e-19 0.914415)
(9.60234 3.55239e-22 1.13311)
(9.66676 -7.4577e-21 1.07485)
(9.49871 -1.05597e-19 1.30232)
(9.57321 7.65695e-23 1.24308)
(9.38433 -1.26804e-19 1.48155)
(9.4695 -2.3643e-19 1.42072)
(9.25922 -1.53534e-19 1.67225)
(9.35575 -1.60798e-19 1.60931)
(9.12325 -2.75782e-19 1.87587)
(9.23197 -1.1916e-19 1.81031)
(8.97618 -2.84325e-19 2.09385)
(9.09807 -1.39926e-19 2.0252)
(8.81762 -6.99399e-20 2.32766)
(8.9538 -1.2658e-19 2.2555)
(8.64699 7.08621e-20 2.57888)
(8.79877 -7.41672e-20 2.50281)
(8.46348 -7.96715e-20 2.84916)
(8.63243 -3.71041e-20 2.76884)
(8.26594 -7.7819e-20 3.14031)
(8.45393 -4.06669e-20 3.05546)
(8.05283 0 3.45431)
(8.26215 1.34405e-19 3.36475)
(7.82207 4.29466e-20 3.79339)
(8.05552 0 3.69908)
(7.57086 1.70238e-19 4.16004)
(7.83192 1.8656e-21 4.06118)
(7.29542 8.18297e-20 4.55709)
(7.58852 8.40204e-20 4.45425)
(6.99065 -4.28799e-20 4.98767)
(7.3214 -8.48956e-20 4.88203)
(6.64962 4.15303e-20 5.45528)
(7.02523 3.82432e-20 5.34901)
(6.26298 -2.53524e-21 5.96362)
(6.69264 1.18494e-19 5.86052)
(5.8181 1.39112e-19 6.5161)
(6.3133 8.30412e-20 6.42283)
(5.29839 3.58924e-19 7.11427)
(5.87229 3.36587e-19 7.04256)
(4.68477 -2.12138e-19 7.75338)
(5.34699 -1.17422e-19 7.72352)
(3.96799 -6.90987e-19 8.40282)
(4.69506 -6.64831e-19 8.45305)
(3.21085 6.15477e-20 8.9572)
(3.87553 -8.57945e-19 9.13573)
(2.75721 -1.36457e-18 8.99356)
(2.71054 4.92398e-19 9.40005)
(0.524863 -2.00702e-18 8.19335)
(9.9843 -1.98288e-19 0.244005)
(9.98372 -3.98186e-19 0.168588)
(9.95479 -2.05022e-19 0.397873)
(9.96889 -1.91109e-19 0.327967)
(9.91286 -2.16463e-19 0.549363)
(9.94077 -1.17025e-20 0.482763)
(9.85942 7.14708e-22 0.701858)
(9.89576 -7.51718e-21 0.637282)
(9.79517 1.38855e-20 0.857592)
(9.83865 -1.94885e-19 0.794004)
(9.72066 9.83755e-23 1.01853)
(9.77223 2.21586e-19 0.954988)
(9.63631 -7.63566e-21 1.18649)
(9.6969 -6.85956e-21 1.12216)
(9.54239 -1.33774e-19 1.3632)
(9.61262 -7.7297e-21 1.29733)
(9.43909 -2.6941e-19 1.55026)
(9.51952 5.81424e-21 1.48215)
(9.3265 -1.25922e-19 1.74919)
(9.41781 -4.06518e-20 1.67823)
(9.20459 1.6334e-20 1.96152)
(9.30763 1.39795e-19 1.88709)
(9.07327 1.78732e-20 2.1888)
(9.189 0 2.11031)
(8.93231 -1.30015e-19 2.43265)
(9.06185 1.79722e-20 2.3495)
(8.78132 -1.81458e-19 2.69481)
(8.926 -1.48295e-19 2.6064)
(8.61973 1.80733e-21 2.97721)
(8.78114 -3.77474e-20 2.88291)
(8.4467 1.73539e-19 3.28197)
(8.62676 3.86958e-20 3.18115)
(8.26109 1.32815e-19 3.61154)
(8.46215 -9.21956e-21 3.50355)
(8.06129 -4.10365e-20 3.96876)
(8.28629 0 3.85293)
(7.84514 -8.32931e-20 4.35702)
(8.09778 -4.12576e-20 4.23267)
(7.60968 -8.4182e-20 4.78041)
(7.89474 -5.64523e-21 4.64692)
(7.35083 -2.67877e-21 5.24393)
(7.67459 -1.56144e-19 5.1008)
(7.06294 1.16053e-19 5.75382)
(7.43381 -1.95098e-19 5.60086)
(6.73804 2.0373e-19 6.31802)
(7.16755 -7.90617e-20 6.15567)
(6.3645 2.81938e-19 6.94667)
(6.86888 4.17474e-19 6.77687)
(5.92389 -1.42507e-19 7.6526)
(6.52721 2.81957e-19 7.48098)
(5.38221 -5.71395e-19 8.45215)
(6.12493 1.53717e-20 8.29385)
(4.65756 -8.34188e-19 9.3645)
(5.62218 4.48373e-20 9.26709)
(3.50006 -3.1267e-19 10.4211)
(4.9574 -5.32838e-19 10.5388)
(1.14959 -4.53686e-18 11.8198)
(4.20192 1.28792e-18 12.5224)
(2.16606 7.56324e-18 16.3127)
(-0.521605 0 0.520211)
(-0.247896 0 0.761446)
(-1.39798 1.0756e-19 0.542265)
(-1.07841 -2.15284e-20 0.787252)
(-2.33065 2.52945e-20 0.553454)
(-2.0113 1.70445e-19 0.842528)
(-3.31055 -7.4097e-20 0.551683)
(-2.97708 -1.67044e-19 0.878861)
(-4.32021 1.09198e-20 0.537929)
(-3.97702 -2.21848e-20 0.892171)
(-5.34287 0 0.515909)
(-4.99453 2.24557e-20 0.887665)
(-6.36322 0 0.487816)
(-6.01478 -2.17101e-20 0.868945)
(-7.36669 -1.20291e-20 0.454741)
(-7.02358 -1.20076e-20 0.838009)
(-8.33876 1.73191e-22 0.417175)
(-8.00687 1.17599e-20 0.795806)
(-9.26436 1.19383e-20 0.375306)
(-8.95012 -3.27811e-21 0.742642)
(-10.1274 1.32517e-20 0.329188)
(-9.83781 -3.97506e-21 0.678464)
(-10.9107 1.44402e-20 0.278856)
(-10.6531 2.786e-20 0.603093)
(-11.5957 -8.71253e-22 0.224408)
(-11.378 -1.7495e-21 0.516441)
(-12.1632 -5.06577e-23 0.166073)
(-11.993 -1.49901e-20 0.41874)
(-12.5936 4.29593e-21 0.104189)
(-12.4785 -1.1533e-20 0.310746)
(-12.8679 3.50484e-21 0.0390467)
(-12.815 3.19046e-23 0.193762)
(-12.9682 -1.59499e-21 -0.0292753)
(-12.9834 3.77422e-21 0.0693089)
(-12.8775 -2.3454e-21 -0.100753)
(-12.9654 -3.30064e-21 -0.0612638)
(-12.5823 -5.4528e-21 -0.173963)
(-12.7492 -7.22496e-22 -0.194885)
(-12.0775 -4.84047e-21 -0.24616)
(-12.3276 5.86132e-22 -0.325758)
(-11.3651 0 -0.314979)
(-11.6996 0 -0.449316)
(-10.453 6.43928e-21 -0.378665)
(-10.8706 0 -0.562261)
(-9.35388 1.2324e-20 -0.436033)
(-9.85098 3.75162e-23 -0.662164)
(-8.08409 5.83786e-21 -0.486646)
(-8.65576 8.60398e-22 -0.747628)
(-6.66128 0 -0.53135)
(-7.30289 0 -0.818743)
(-5.09987 0 -0.573967)
(-5.81042 2.62694e-22 -0.87816)
(-3.39949 0 -0.623321)
(-4.19578 -2.60963e-22 -0.9347)
(-1.52511 0 -0.688662)
(-2.47488 2.23014e-23 -1.00704)
(0.612665 0 -0.892393)
(-0.463808 5.31831e-22 -1.12275)
(2.48257 2.80771e-24 -1.5514)
(-0.857081 -2.02659e-20 1.15466)
(-0.450283 0 1.39629)
(-1.71543 4.2433e-20 1.23175)
(-1.28282 1.7474e-21 1.61252)
(-2.6484 -1.59414e-20 1.2898)
(-2.22141 7.58696e-20 1.71353)
(-3.62604 -1.15842e-19 1.32022)
(-3.17571 -1.82505e-20 1.76783)
(-4.62909 -1.03184e-20 1.32465)
(-4.15816 -1.18996e-19 1.78377)
(-5.64143 1.50946e-21 1.30765)
(-5.15301 8.76214e-20 1.76888)
(-6.6484 -3.38325e-20 1.27224)
(-6.14713 -2.07278e-20 1.72791)
(-7.6359 1.10556e-20 1.22002)
(-7.12763 -1.20127e-20 1.66366)
(-8.58974 8.38651e-21 1.15156)
(-8.08144 7.27577e-20 1.57748)
(-9.495 -1.90262e-20 1.06681)