/*--------------------------------*- C++ -*----------------------------------*\
| =========                 |                                                 |
| \\      /  F ield         | OpenFOAM: The Open Source CFD Toolbox           |
|  \\    /   O peration     | Version:  dev                                   |
|   \\  /    A nd           | Web:      www.OpenFOAM.org                      |
|    \\/     M anipulation  |                                                 |
\*---------------------------------------------------------------------------*/
FoamFile
{
    version     2.0;
    format      ascii;
    class       volVectorField;
    location    "1.79";
    object      Force;
}
// * * * * * * * * * * * * * * * * * * * * * * * * * * * * * * * * * * * * * //

dimensions      [1 1 -2 0 0 0 0];

internalField   uniform (0 0 0);

boundaryField
{
    inlet
    {
        type            calculated;
        value           nonuniform 0();
    }
    outlet
    {
        type            calculated;
        value           nonuniform 0();
    }
    flap
    {
        type            calculated;
        value           nonuniform List<vector> 
33
(
(2.41198 2.04225e-17 -0.195232)
(2.35779 2.01486e-17 -0.478794)
(2.21657 9.30556e-22 -0.737868)
(1.99772 1.42559e-17 -0.913335)
(1.73929 1.95474e-17 -1.00425)
(1.47764 9.23131e-18 -1.02564)
(1.23649 -4.16434e-21 -0.997597)
(1.02882 -1.17549e-38 -0.938752)
(0.856639 6.38511e-18 -0.863213)
(0.716741 1.71134e-17 -0.779743)
(0.603287 1.64772e-17 -0.693096)
(0.506688 0 -0.602603)
(0.416284 1.22275e-21 -0.503894)
(0.320973 1.30714e-17 -0.38946)
(0.206964 1.75601e-18 -0.249865)
(0.64501 2.04392e-17 0.519812)
(0.426076 1.16397e-17 0.341719)
(0.204887 8.52506e-18 0.16593)
(0.0559838 -1.37753e-40 -0.00468483)
(0.0555331 1.16672e-17 -0.0113831)
(0.0546126 1.00883e-22 -0.0184008)
(0.0532562 -1.26609e-22 -0.0245708)
(0.0516331 1.25543e-17 -0.0301036)
(0.0499186 1.28657e-17 -0.0350165)
(0.048277 -1.693e-22 -0.0393828)
(0.0468017 1.80411e-22 -0.0432493)
(0.045613 5.57872e-23 -0.0466347)
(0.0447766 2.90071e-17 -0.0495215)
(0.0442192 1.44674e-17 -0.0517777)
(0.0439232 1.51979e-17 -0.0533782)
(0.0439608 4.89257e-24 -0.0545219)
(0.0449096 2.07328e-17 -0.0554757)
(0.0545033 1.26243e-22 -0.0683219)
)
;
    }
    upperWall
    {
        type            calculated;
        value           nonuniform 0();
    }
    lowerWall
    {
        type            calculated;
        value           uniform (0 0 0);
    }
    frontAndBack
    {
        type            empty;
    }
    procBoundary4to1
    {
        type            processor;
        value           uniform (0 0 0);
    }
    procBoundary4to2
    {
        type            processor;
        value           uniform (0 0 0);
    }
    procBoundary4to3
    {
        type            processor;
        value           uniform (0 0 0);
    }
    procBoundary4to5
    {
        type            processor;
        value           uniform (0 0 0);
    }
}


// ************************************************************************* //
