/*--------------------------------*- C++ -*----------------------------------*\
| =========                 |                                                 |
| \\      /  F ield         | OpenFOAM: The Open Source CFD Toolbox           |
|  \\    /   O peration     | Version:  dev                                   |
|   \\  /    A nd           | Web:      www.OpenFOAM.org                      |
|    \\/     M anipulation  |                                                 |
\*---------------------------------------------------------------------------*/
FoamFile
{
    version     2.0;
    format      ascii;
    class       surfaceScalarField;
    location    "3.56";
    object      phi;
}
// * * * * * * * * * * * * * * * * * * * * * * * * * * * * * * * * * * * * * //

dimensions      [0 3 -1 0 0 0 0];

internalField   nonuniform List<scalar> 
881
(
0.198352
0.0016481
0.196368
0.00198481
0.194016
0.0023512
0.191263
0.00275204
0.188111
0.0031507
0.184565
0.00354375
0.180624
0.00393934
0.176277
0.00434494
0.171509
0.00476568
0.166302
0.00520543
0.160633
0.00566742
0.154478
0.00615426
0.147809
0.00666774
0.140601
0.00720851
0.132826
0.00777567
0.12446
0.00836613
0.115488
0.00897395
0.1059
0.00958939
0.0957031
0.010198
0.0849251
0.0107795
0.0113069
0.199938
0.00171061
0.199157
0.00276602
0.197908
0.00359959
0.196227
0.0044324
0.194114
0.00526241
0.19157
0.00608556
0.188593
0.00691441
0.185173
0.00776264
0.181296
0.00864055
0.176944
0.00955613
0.172093
0.0105161
0.16672
0.0115261
0.160797
0.0125902
0.154296
0.0137102
0.147187
0.0148851
0.139444
0.0161098
0.131046
0.0173733
0.121979
0.0186576
0.112243
0.0199351
0.101858
0.0211663
0.0222982
0.199789
0.00192194
0.199071
0.00348483
0.197894
0.00477566
0.196314
0.0060114
0.194341
0.0072347
0.191974
0.00845059
0.189212
0.00967426
0.186048
0.0109239
0.182472
0.0122145
0.178468
0.0135583
0.174017
0.0149655
0.169098
0.0164448
0.163684
0.0180031
0.15775
0.0196443
0.151267
0.0213687
0.144207
0.0231708
0.136543
0.0250381
0.128255
0.0269474
0.119328
0.0288628
0.109765
0.0307313
0.0324795
0.199706
0.00221644
0.19899
0.0042016
0.197834
0.00593068
0.196281
0.0075637
0.194347
0.00916774
0.192034
0.0107615
0.189342
0.0123636
0.186269
0.0139954
0.182806
0.0156757
0.178942
0.01742
0.174664
0.0192416
0.169956
0.021152
0.164798
0.0231601
0.15917
0.0252721
0.15305
0.0274896
0.146413
0.0298084
0.139236
0.032216
0.131497
0.0346883
0.123175
0.0371857
0.114259
0.0396489
0.0419932
0.199668
0.00254948
0.198945
0.00492453
0.19781
0.00706555
0.196286
0.0090863
0.194392
0.011061
0.192131
0.013021
0.189503
0.0149895
0.186505
0.0169907
0.183132
0.0190463
0.179376
0.0211747
0.175224
0.0233916
0.170665
0.0257104
0.165682
0.0281418
0.16026
0.0306936
0.154382
0.0333689
0.148026
0.0361648
0.141173
0.0390699
0.133802
0.0420611
0.12589
0.0450995
0.117415
0.0481251
0.0510509
0.199651
0.00289872
0.198929
0.00564765
0.197818
0.00817602
0.196333
0.0105707
0.194488
0.0129049
0.192288
0.0152191
0.189734
0.0175417
0.186822
0.0198997
0.183549
0.0223172
0.179907
0.0248153
0.175885
0.0274118
0.171472
0.0301219
0.166655
0.032958
0.16142
0.0359291
0.155749
0.0390401
0.149625
0.0422895
0.143028
0.0456681
0.135935
0.0491553
0.12832
0.0527156
0.120154
0.0562931
0.0598048
0.199648
0.00325164
0.198934
0.00636237
0.197852
0.00925704
0.196413
0.0120095
0.194626
0.0146902
0.192498
0.0173453
0.19003
0.0200082
0.187219
0.0227088
0.18406
0.0254736
0.180547
0.0283261
0.176671
0.0312862
0.172421
0.034371
0.167783
0.0375947
0.162744
0.0409682
0.157287
0.044498
0.151391
0.0481853
0.145037
0.0520238
0.138196
0.0559972
0.130838
0.0600757
0.122921
0.0642107
0.068329
0.199652
0.00360055
0.198954
0.00706085
0.197908
0.010303
0.196521
0.0133961
0.194802
0.0164083
0.192756
0.0193894
0.190385
0.0223773
0.187687
0.0254045
0.184658
0.0285003
0.181292
0.0316902
0.17758
0.0349964
0.173512
0.038438
0.169074
0.0420313
0.164253
0.0457896
0.159029
0.0497219
0.153382
0.0538328
0.147286
0.0581205
0.14071
0.0625745
0.133614
0.067173
0.125948
0.0718782
0.0766306
0.199661
0.00394029
0.198986
0.0077365
0.197981
0.0113081
0.196653
0.014724
0.195009
0.0180511
0.193055
0.0213419
0.190792
0.0246378
0.188221
0.0279743
0.185336
0.031383
0.182132
0.0348915
0.178603
0.0385242
0.174737
0.0423026
0.170522
0.0462453
0.165943
0.0503683
0.160981
0.0546843
0.155612
0.059202
0.149808
0.0639253
0.143532
0.0688516
0.136737
0.0739694
0.129362
0.0792546
0.0846652
0.199674
0.00426717
0.199028
0.00838388
0.198069
0.0122669
0.196806
0.0159869
0.195245
0.0196111
0.193391
0.0231938
0.191247
0.0267795
0.188813
0.0304065
0.186086
0.0341082
0.183061
0.0379147
0.179731
0.0418523
0.176087
0.045945
0.172117
0.050214
0.167807
0.0546784
0.163136
0.0593549
0.158081
0.0642573
0.152611
0.0693966
0.146685
0.0747792
0.140249
0.080406
0.133236
0.0862695
0.0923492
0.19969
0.00457841
0.199076
0.00899851
0.198169
0.0131744
0.196977
0.0171793
0.195505
0.0210816
0.19376
0.0249373
0.191745
0.0287933
0.189459
0.0326902
0.186901
0.0366638
0.184068
0.0407457
0.180954
0.0449646
0.177551
0.0493466
0.173848
0.0539156
0.169832
0.0586941
0.165484
0.0637029
0.16078
0.0689615
0.155689
0.0744884
0.150169
0.0803001
0.144165
0.0864113
0.137603
0.092833
0.09957
0.199708
0.00487186
0.199131
0.00957671
0.19828
0.014026
0.197163
0.018296
0.195787
0.0224565
0.194158
0.0265652
0.192278
0.0306709
0.19015
0.0348162
0.187773
0.0390387
0.185145
0.0433719
0.182261
0.0478463
0.179116
0.0524901
0.175701
0.0573299
0.172004
0.062391
0.168008
0.0676985
0.163692
0.0732776
0.159027
0.0791539
0.153974
0.0853544
0.148478
0.0919078
0.142468
0.0988445
0.106197
0.199728
0.00514579
0.19919
0.0101154
0.198399
0.0148181
0.197362
0.0193327
0.196087
0.0237308
0.19458
0.0280714
0.192844
0.0324051
0.190882
0.0367761
0.188695
0.0412236
0.186282
0.0457825
0.183642
0.0504849
0.18077
0.0553607
0.17766
0.0604388
0.174303
0.0657472
0.170686
0.0713147
0.166793
0.0771712
0.162598
0.083349
0.158069
0.0898844
0.153159
0.0968189
0.147803
0.104201
0.11209
0.199749
0.00539885
0.199254
0.0106123
0.198525
0.0155474
0.197572
0.0202855
0.196402
0.0248999
0.195022
0.0294508
0.193435
0.03399
0.191646
0.0385632
0.189657
0.0432105
0.187469
0.0479683
0.185083
0.0528696
0.182496
0.0579458
0.179706
0.0632273
0.176708
0.0687443
0.173495
0.0745282
0.170053
0.0806126
0.166367
0.0870351
0.162413
0.0938389
0.158158
0.101076
0.153551
0.108808
0.117117
0.199771
0.19932
0.198657
0.0162114
0.197791
0.0211516
0.19673
0.0259605
0.19548
0.0306994
0.194047
0.0354211
0.192436
0.0401722
0.190651
0.0449937
0.188695
0.0499225
0.18657
0.0549927
0.184278
0.0602362
0.18182
0.0656844
0.179194
0.0713687
0.1764
0.077322
0.173432
0.0835802
0.170284
0.0901836
0.166944
0.0971794
0.163395
0.104625
0.159613
0.112592
0.121172
0.206409
0.205605
0.021956
0.204622
0.0269431
0.203467
0.0318529
0.202148
0.0367388
0.200671
0.0416478
0.199041
0.0466216
0.197264
0.0516973
0.195346
0.0569091
0.193291
0.0622893
0.191104
0.0678693
0.188791
0.0736807
0.186356
0.0797566
0.183803
0.086133
0.181136
0.0928506
0.178359
0.0999569
0.175475
0.107509
0.172487
0.11558
0.124261
0.210835
0.209954
0.0278236
0.208923
0.0328828
0.20775
0.0379104
0.206442
0.0429533
0.205009
0.0480532
0.203457
0.0532471
0.201795
0.0585688
0.200033
0.0640502
0.198179
0.0697217
0.196244
0.0756142
0.194241
0.0817592
0.192182
0.0881911
0.190085
0.0949478
0.187969
0.102073
0.185859
0.109619
0.18379
0.11765
0.126243
0.215438
0.214542
0.033778
0.213528
0.038923
0.212405
0.044074
0.211184
0.0492722
0.209875
0.0545539
0.20849
0.059952
0.207041
0.065497
0.205544
0.0712177
0.204014
0.0771428
0.202471
0.0833012
0.200938
0.0897232
0.199444
0.0964417
0.198024
0.103493
0.196724
0.11092
0.195605
0.118769
0.127096
0.220324
0.219481
0.0397646
0.218557
0.0449965
0.217563
0.0502638
0.216514
0.0556016
0.215422
0.0610413
0.214306
0.0666111
0.213185
0.0723377
0.21208
0.0782464
0.211018
0.084362
0.210031
0.0907094
0.209158
0.0973143
0.208447
0.104204
0.207962
0.111405
0.207782
0.118949
0.126863
0.225609
0.224895
0.0457089
0.224142
0.051015
0.223365
0.0563763
0.222582
0.0618221
0.221814
0.067378
0.221082
0.0730672
0.220416
0.0789113
0.219847
0.0849299
0.219414
0.0911414
0.219164
0.0975631
0.219157
0.104211
0.219463
0.111098
0.220176
0.118236
0.125628
0.231415
0.230913
0.23042
0.0568672
0.229956
0.0622837
0.229545
0.0677873
0.229213
0.0733974
0.228992
0.079131
0.228918
0.0850022
0.229036
0.0910225
0.229398
0.0972002
0.230068
0.10354
0.231123
0.110043
0.232656
0.116702
0.1235
0.237668
0.23753
0.0624196
0.237481
0.067834
0.237551
0.0733254
0.237774
0.0789064
0.23819
0.0845852
0.238845
0.0903663
0.239794
0.09625
0.241102
0.102231
0.242846
0.108299
0.245115
0.114432
0.1206
0.245286
0.245601
0.24607
0.0728543
0.246729
0.0782452
0.24762
0.0836929
0.248789
0.0891958
0.250291
0.0947469
0.252188
0.100333
0.254552
0.105934
0.257463
0.11152
0.117051
0.254741
0.255823
0.257168
0.0823467
0.258821
0.0875415
0.260833
0.0927331
0.263263
0.0979024
0.266172
0.103023
0.269631
0.10806
0.112969
0.266795
0.268895
0.0854396
0.271371
0.0902557
0.274273
0.0949993
0.277654
0.0996407
0.28157
0.104143
0.108461
0.278975
0.281864
0.285178
0.0916842
0.288959
0.0958586
0.293249
0.0998514
0.10362
0.29595
0.300063
0.304653
0.0952605
0.0985266
0.315777
)
;

boundaryField
{
    inlet
    {
        type            calculated;
        value           nonuniform List<scalar> 
15
(
-0.2
-0.2
-0.2
-0.2
-0.2
-0.2
-0.2
-0.2
-0.2
-0.2
-0.2
-0.2
-0.2
-0.2
-0.2
)
;
    }
    outlet
    {
        type            calculated;
        value           nonuniform 0();
    }
    flap
    {
        type            calculated;
        value           nonuniform 0();
    }
    upperWall
    {
        type            calculated;
        value           nonuniform 0();
    }
    lowerWall
    {
        type            calculated;
        value           uniform 0;
    }
    frontAndBack
    {
        type            empty;
        value           nonuniform 0();
    }
    procBoundary3to0
    {
        type            processor;
        value           nonuniform List<scalar> 
34
(
0.0056299
0.0110653
-0.207026
0.0168294
-0.211557
0.0226789
-0.216206
0.0285924
-0.221074
0.0345279
-0.22627
0.0404244
-0.231908
0.0462011
0.0515153
-0.237869
0.0570667
-0.245095
0.0622268
0.0675175
-0.253882
0.0719928
0.0771615
-0.265024
0.0805739
-0.276467
0.08293
0.0873645
-0.292283
0.0880158
0.0917441
-0.310954
0.0904357
0.0932486
)
;
    }
    procBoundary3to1
    {
        type            processor;
        value           nonuniform List<scalar> 9(0.221411 0.234784 0.248015 0.261012 0.273712 0.286077 0.298089 0.309745 0.321054);
    }
    procBoundary3to4
    {
        type            processor;
        value           nonuniform List<scalar> 
19
(
0.0736196
0.0908682
0.0995851
0.104747
0.108359
0.111401
0.114399
0.117648
0.121329
0.125553
0.130384
0.135843
0.141911
0.148525
0.155559
0.1694
0.181809
0.194752
0.208016
)
;
    }
}


// ************************************************************************* //
