/*--------------------------------*- C++ -*----------------------------------*\
| =========                 |                                                 |
| \\      /  F ield         | OpenFOAM: The Open Source CFD Toolbox           |
|  \\    /   O peration     | Version:  dev                                   |
|   \\  /    A nd           | Web:      www.OpenFOAM.org                      |
|    \\/     M anipulation  |                                                 |
\*---------------------------------------------------------------------------*/
FoamFile
{
    version     2.0;
    format      ascii;
    class       volVectorField;
    location    "0.32";
    object      Force;
}
// * * * * * * * * * * * * * * * * * * * * * * * * * * * * * * * * * * * * * //

dimensions      [1 1 -2 0 0 0 0];

internalField   uniform (0 0 0);

boundaryField
{
    inlet
    {
        type            calculated;
        value           nonuniform 0();
    }
    outlet
    {
        type            calculated;
        value           nonuniform 0();
    }
    flap
    {
        type            calculated;
        value           nonuniform List<vector> 
33
(
(2.37239 2.42091e-22 -0.060283)
(2.35999 1.70474e-17 -0.11823)
(2.34499 -1.83634e-17 -0.162801)
(2.324 1.49606e-17 -0.184905)
(2.29712 1.56197e-18 -0.187574)
(2.26401 -6.70328e-23 -0.17411)
(2.22405 -4.30499e-23 -0.148816)
(2.17655 1.58773e-17 -0.115675)
(2.11796 1.58415e-17 -0.0790453)
(2.04239 -9.18355e-41 -0.0436546)
(1.93988 -1.5924e-17 -0.0132071)
(1.79429 -4.78318e-25 0.00910175)
(1.57601 -1.61385e-17 0.0213797)
(1.21897 8.05971e-23 0.0236629)
(0.536359 9.02145e-23 0.0157381)
(-0.0177321 7.98388e-18 1.59432)
(-0.0225168 -8.13891e-18 1.38953)
(-0.0141484 8.05487e-18 1.10814)
(1.51281 -2.2225e-23 -0.039026)
(1.52009 2.23645e-23 -0.0762348)
(1.53357 1.47745e-17 -0.106366)
(1.55823 1.60882e-17 -0.123545)
(1.59527 -1.0841e-18 -0.129588)
(1.64451 1.76128e-17 -0.125679)
(1.70335 2.51889e-23 -0.112994)
(1.76567 1.67332e-17 -0.0927659)
(1.82362 6.11371e-19 -0.0671241)
(1.8686 -3.13159e-19 -0.0394392)
(1.89405 8.19296e-24 -0.0132779)
(1.89676 1.75231e-23 0.00814929)
(1.87758 1.64885e-17 0.0221106)
(1.84169 -3.67342e-40 0.0286011)
(1.79632 -3.0394e-19 0.0280827)
)
;
    }
    upperWall
    {
        type            calculated;
        value           nonuniform 0();
    }
    lowerWall
    {
        type            calculated;
        value           uniform (0 0 0);
    }
    frontAndBack
    {
        type            empty;
    }
    procBoundary4to1
    {
        type            processor;
        value           uniform (0 0 0);
    }
    procBoundary4to2
    {
        type            processor;
        value           uniform (0 0 0);
    }
    procBoundary4to3
    {
        type            processor;
        value           uniform (0 0 0);
    }
    procBoundary4to5
    {
        type            processor;
        value           uniform (0 0 0);
    }
}


// ************************************************************************* //
