/*--------------------------------*- C++ -*----------------------------------*\
| =========                 |                                                 |
| \\      /  F ield         | OpenFOAM: The Open Source CFD Toolbox           |
|  \\    /   O peration     | Version:  dev                                   |
|   \\  /    A nd           | Web:      www.OpenFOAM.org                      |
|    \\/     M anipulation  |                                                 |
\*---------------------------------------------------------------------------*/
FoamFile
{
    version     2.0;
    format      ascii;
    class       surfaceScalarField;
    location    "4.2";
    object      phi;
}
// * * * * * * * * * * * * * * * * * * * * * * * * * * * * * * * * * * * * * //

dimensions      [0 3 -1 0 0 0 0];

internalField   nonuniform List<scalar> 
882
(
0.133148
0.236466
0.130241
0.240328
0.137478
0.144656
0.250358
0.126549
0.254976
0.13286
0.26066
0.138972
0.267551
0.144758
0.150065
0.26387
0.122235
0.269048
0.127681
0.275189
0.132832
0.282374
0.137572
0.290663
0.141776
0.300074
0.145307
0.148015
0.276958
0.117441
0.28254
0.1221
0.28897
0.126402
0.296289
0.130253
0.304515
0.133551
0.313627
0.136194
0.323561
0.138081
0.3342
0.139117
0.139105
0.345352
0.289606
0.112286
0.295466
0.11624
0.302062
0.119807
0.309404
0.122911
0.317482
0.125473
0.326254
0.127422
0.335644
0.12869
0.345538
0.129224
0.128871
0.35577
0.301819
0.106867
0.307858
0.110202
0.314526
0.11314
0.321815
0.115622
0.329696
0.117593
0.338116
0.119001
0.346999
0.119808
0.356239
0.119983
0.119411
0.365699
0.313611
0.101265
0.319753
0.104062
0.326427
0.106467
0.333612
0.108438
0.341271
0.109934
0.349346
0.110925
0.357765
0.111389
0.366435
0.111312
0.110605
0.375241
0.325008
0.095545
0.331193
0.0978781
0.337826
0.0998358
0.344877
0.101388
0.352304
0.102508
0.360052
0.103178
0.368053
0.103388
0.376226
0.103138
0.102355
0.384476
0.336041
0.0897569
0.342227
0.0916939
0.348786
0.0932781
0.355685
0.0944891
0.362882
0.0953114
0.370324
0.0957365
0.377949
0.095763
0.38569
0.0953969
0.0945793
0.393466
0.346747
0.0839401
0.352902
0.0855408
0.359366
0.0868151
0.366106
0.0877502
0.373079
0.0883385
0.380238
0.088578
0.387528
0.0884729
0.394891
0.088033
0.0872098
0.40226
0.351349
0.0765192
0.357167
0.0781243
0.363268
0.0794411
0.369625
0.0804594
0.376203
0.0811724
0.382964
0.081578
0.389863
0.0816787
0.396854
0.0814819
0.403887
0.0809996
0.0801913
0.410905
0.36155
0.0709884
0.367344
0.0723312
0.373377
0.0734093
0.37962
0.0742172
0.38604
0.0747525
0.392602
0.0750168
0.399265
0.0750154
0.405989
0.0747578
0.412731
0.0742566
0.0734775
0.419444
0.371569
0.0654569
0.377325
0.0665758
0.383281
0.067454
0.389409
0.0680898
0.395678
0.0684839
0.402054
0.0686402
0.408503
0.0685659
0.414989
0.0682712
0.421476
0.0677687
0.0670292
0.427923
0.38145
0.059939
0.387159
0.0608673
0.393034
0.0615789
0.399049
0.0620747
0.405175
0.0623576
0.411382
0.062433
0.417638
0.0623088
0.423913
0.0619955
0.430175
0.061505
0.0608124
0.436391
0.391237
0.0544436
0.396894
0.05521
0.40269
0.0557833
0.408598
0.0561661
0.414592
0.0563625
0.420646
0.0563788
0.42673
0.0562232
0.432819
0.0559056
0.438885
0.0554374
0.0547971
0.444899
0.400979
0.048975
0.406584
0.0496043
0.412303
0.0500632
0.418113
0.0503554
0.423989
0.0504856
0.429906
0.0504605
0.435839
0.0502882
0.441766
0.0499778
0.447661
0.0495397
0.0489555
0.453501
0.410724
0.0435334
0.416281
0.0440467
0.421931
0.0444113
0.427654
0.0446314
0.433426
0.0447123
0.439224
0.0446603
0.445027
0.044483
0.450814
0.0441888
0.456565
0.043787
0.0432619
0.462257
0.420524
0.038115
0.426038
0.0385301
0.431631
0.0388173
0.437279
0.0389809
0.442963
0.0390261
0.448662
0.0389589
0.454357
0.0387862
0.460028
0.0385154
0.465658
0.0381548
0.0376907
0.471227
0.430428
0.0327127
0.435912
0.0330446
0.441458
0.0332683
0.447048
0.0333881
0.452663
0.0334089
0.458283
0.033336
0.463891
0.0331756
0.46947
0.0329341
0.475003
0.0326185
0.0322175
0.480474
0.440492
0.0273159
0.445956
0.0275768
0.451473
0.0277486
0.457023
0.0278351
0.462588
0.0278405
0.468152
0.0277696
0.473696
0.0276276
0.479207
0.02742
0.48467
0.0271524
0.0268154
0.49007
0.450765
0.0219109
0.456227
0.0221108
0.461732
0.0222398
0.467263
0.0223013
0.472801
0.0222988
0.47833
0.0222362
0.483837
0.0221178
0.489305
0.021948
0.494723
0.0217314
0.0214607
0.500075
0.461309
0.0164806
0.466788
0.0166271
0.472303
0.0167206
0.477837
0.0167635
0.483373
0.0167587
0.488896
0.0167092
0.494392
0.0166182
0.499847
0.0164889
0.50525
0.0163248
0.01612
0.510587
0.472174
0.0110053
0.477692
0.0111043
0.48324
0.0111675
0.488802
0.0111969
0.494362
0.0111943
0.499905
0.0111618
0.505417
0.0111017
0.510886
0.0110163
0.516299
0.0109079
0.0107732
0.521642
0.483424
0.00546147
0.489007
0.00551624
0.494617
0.00555255
0.500238
0.00557139
0.505853
0.00557377
0.511449
0.00556077
0.517013
0.00553355
0.522531
0.00549329
0.527994
0.00544118
0.00537568
0.533388
0.48717
0.492681
0.498228
0.503794
0.509362
0.514918
0.520447
0.525935
0.531372
0.536744
0.0689844
0.360916
0.0638383
0.366103
0.0640862
0.0645146
0.371347
0.370437
0.0590992
0.375208
0.0593149
0.0596937
0.380029
0.379637
0.0547024
0.384059
0.0548925
0.0552297
0.388523
0.388584
0.0505937
0.392713
0.0507636
0.0510654
0.396877
0.39733
0.0467287
0.401211
0.0468821
0.0471536
0.405123
0.405917
0.0430715
0.409588
0.043211
0.043456
0.413285
0.414383
0.0395928
0.417873
0.0397202
0.0399416
0.421388
0.422767
0.0362686
0.426102
0.036385
0.0365849
0.429459
0.431113
0.0330785
0.434313
0.0331846
0.0333648
0.437533
0.439464
0.0300051
0.442547
0.0301015
0.0302633
0.445648
0.44787
0.0270329
0.450851
0.0271199
0.0272645
0.45385
0.456385
0.024148
0.459279
0.0242259
0.0243543
0.462189
0.465066
0.0213373
0.467885
0.0214062
0.0215191
0.470721
0.473975
0.0185881
0.476732
0.0186482
0.0187462
0.479505
0.483173
0.0158876
0.485882
0.015939
0.0160226
0.488606
0.492732
0.0132237
0.495404
0.0132664
0.0133361
0.498091
0.502715
0.0105819
0.505365
0.0106159
0.0106715
0.50803
0.513217
0.00795056
0.515856
0.00797606
0.0080183
0.51851
0.52428
0.00531053
0.526928
0.00532715
0.00535466
0.529593
0.536042
0.00265411
0.538707
0.00266134
0.00267489
0.541388
0.539396
0.542056
0.544732
0.132174
0.389817
0.122385
0.399516
0.12557
0.40875
0.127915
0.1294
0.397636
0.113271
0.406833
0.116372
0.415875
0.118871
0.424522
0.120751
0.432543
0.121972
0.122524
0.405395
0.104753
0.414062
0.107704
0.422729
0.110203
0.431235
0.112243
0.439416
0.113789
0.447115
0.114822
0.454191
0.115336
0.115341
0.41313
0.0967465
0.421309
0.0995247
0.42956
0.101951
0.437775
0.104027
0.445842
0.105721
0.453645
0.107016
0.461076
0.107902
0.468035
0.108378
0.108459
0.420856
0.0891756
0.428606
0.0917742
0.436463
0.0940933
0.444351
0.0961374
0.45219
0.0978808
0.459897
0.0993074
0.467392
0.100405
0.474598
0.10117
0.101608
0.428586
0.0819774
0.435965
0.0843952
0.443469
0.0865887
0.451042
0.0885638
0.458624
0.0902978
0.466154
0.0917761
0.473571
0.0929866
0.480816
0.0939226
0.094586
0.436337
0.0750999
0.443395
0.0773376
0.450588
0.0793945
0.457875
0.0812768
0.465207
0.0829645
0.472538
0.0844438
0.479821
0.0857028
0.487008
0.0867334
0.0875346
0.444133
0.0684998
0.450912
0.0705589
0.457835
0.0724719
0.464866
0.0742451
0.47197
0.0758607
0.479106
0.0773061
0.486239
0.0785696
0.493328
0.0796422
0.0805211
0.452008
0.0621405
0.458545
0.0640225
0.465231
0.0657866
0.472037
0.0674387
0.478934
0.0689634
0.485891
0.0703491
0.492875
0.0715846
0.499855
0.0726608
0.0735735
0.460002
0.0559896
0.466329
0.0576964
0.472808
0.059308
0.479416
0.0608302
0.48613
0.0622495
0.492924
0.0635555
0.49977
0.064738
0.506642
0.065788
0.0667007
0.468162
0.0500183
0.474307
0.0515515
0.480608
0.0530082
0.487045
0.0543936
0.493598
0.0556963
0.500247
0.0569071
0.506968
0.0580168
0.513739
0.0590168
0.0599023
0.476541
0.0441993
0.482533
0.0455607
0.488681
0.0468606
0.494971
0.0481042
0.501387
0.0492815
0.50791
0.0503847
0.514521
0.0514056
0.521202
0.0523366
0.0531727
0.485199
0.0385066
0.491063
0.0396976
0.497085
0.0408395
0.503253
0.0419372
0.509554
0.0429822
0.515971
0.0439679
0.522491
0.0448873
0.529094
0.0457334
0.0465021
0.494199
0.0329143
0.499962
0.0339359
0.505884
0.0349189
0.511955
0.0358673
0.518164
0.0367745
0.524498
0.0376347
0.530945
0.0384421
0.537489
0.0391907
0.0398768
0.503611
0.027396
0.509299
0.0282491
0.515147
0.029072
0.521148
0.0298685
0.52729
0.0306331
0.533565
0.0313613
0.539961
0.0320481
0.546464
0.0326887
0.0332799
0.513503
0.0219243
0.519145
0.0226088
0.524948
0.0232707
0.530905
0.0239128
0.537009
0.0245309
0.54325
0.0251215
0.549619
0.0256808
0.556105
0.0262047
0.0266907
0.523965
0.0164707
0.529589
0.0169866
0.535375
0.0174857
0.541319
0.0179709
0.547413
0.018439
0.553649
0.0188873
0.560019
0.0193129
0.566513
0.019713
0.0200854
0.535061
0.0110033
0.540701
0.0113485
0.546504
0.0116843
0.552466
0.0120105
0.558582
0.0123252
0.564845
0.012627
0.571246
0.012914
0.577777
0.0131842
0.0134362
0.546905
0.0054873
0.55259
0.00566522
0.558441
0.00583476
0.564455
0.00599837
0.570626
0.00615633
0.576947
0.00630796
0.583412
0.00645207
0.590011
0.0065876
0.00671388
0.55022
0.555887
0.561724
0.567724
0.573882
0.580192
0.586647
0.593237
)
;

boundaryField
{
    inlet
    {
        type            calculated;
        value           nonuniform 0();
    }
    outlet
    {
        type            calculated;
        value           nonuniform 0();
    }
    flap
    {
        type            calculated;
        value           nonuniform 0();
    }
    upperWall
    {
        type            calculated;
        value           nonuniform List<scalar> 
22
(
0
0
0
0
0
0
0
0
0
0
0
1.48035e-15
2.9596e-15
0
0
0
0
0
0
0
0
-7.26911e-15
)
;
    }
    lowerWall
    {
        type            calculated;
        value           nonuniform 0();
    }
    frontAndBack
    {
        type            empty;
        value           nonuniform 0();
    }
    procBoundary1to0
    {
        type            processor;
        value           nonuniform List<scalar> 
18
(
-0.330251
-0.340928
-0.0820291
-0.345838
-0.356018
-0.366036
-0.375931
-0.385742
-0.395511
-0.405284
-0.415107
-0.425029
-0.435098
-0.445364
-0.455883
-0.466704
-0.477886
-0.481715
)
;
    }
    procBoundary1to2
    {
        type            processor;
        value           nonuniform List<scalar> 
17
(
0.474441
0.481446
0.487837
0.494058
0.500341
0.506802
0.513515
0.520538
0.527932
0.535766
0.544116
0.553063
0.562697
0.573121
0.584429
0.596736
0.599954
)
;
    }
    procBoundary1to3
    {
        type            processor;
        value           nonuniform List<scalar> 9(-0.220326 -0.23356 -0.246666 -0.259555 -0.272163 -0.284449 -0.296398 -0.308008 -0.319286);
    }
    procBoundary1to4
    {
        type            processor;
        value           nonuniform List<scalar> 
30
(
-0.135102
0.222278
-0.141341
-0.149667
0.245338
-0.15165
-0.158286
0.275771
-0.154718
-0.158507
0.310566
-0.149757
-0.150257
-0.0746155
0.350983
-0.0692741
-0.0697592
-0.142659
0.381831
-0.13527
-0.13715
-0.137824
0.417172
-0.129995
-0.12972
0.439737
-0.122415
-0.12168
0.460528
-0.114867
)
;
    }
}


// ************************************************************************* //
