/*--------------------------------*- C++ -*----------------------------------*\
| =========                 |                                                 |
| \\      /  F ield         | OpenFOAM: The Open Source CFD Toolbox           |
|  \\    /   O peration     | Version:  dev                                   |
|   \\  /    A nd           | Web:      www.OpenFOAM.org                      |
|    \\/     M anipulation  |                                                 |
\*---------------------------------------------------------------------------*/
FoamFile
{
    version     2.0;
    format      ascii;
    class       surfaceScalarField;
    location    "4";
    object      meshPhi;
}
// * * * * * * * * * * * * * * * * * * * * * * * * * * * * * * * * * * * * * //

dimensions      [0 3 -1 0 0 0 0];

internalField   nonuniform List<scalar> 
865
(
-2.64838e-06
-2.91301e-08
-1.86008e-06
-2.15216e-08
-1.21601e-06
-1.48078e-08
-7.25466e-07
-9.43791e-09
-3.8212e-07
-5.44366e-09
-1.67446e-07
-2.73661e-09
-5.43607e-08
-1.12921e-09
-1.07598e-08
-3.54228e-10
-5.74837e-11
-2.67198e-06
-5.70223e-08
-1.87574e-06
-4.207e-08
-1.22584e-06
-2.88636e-08
-7.31046e-07
-1.83492e-08
-3.84841e-07
-1.05549e-08
-1.685e-07
-5.28965e-09
-5.46551e-08
-2.17311e-09
-1.08206e-08
-6.73618e-10
-1.13156e-10
-2.69533e-06
-8.17292e-08
-1.89207e-06
-6.01527e-08
-1.23647e-06
-4.11105e-08
-7.37242e-07
-2.60373e-08
-3.87917e-07
-1.49188e-08
-1.69698e-07
-7.44313e-09
-5.49865e-08
-3.03837e-09
-1.08897e-08
-9.27516e-10
-1.55876e-10
-2.71453e-06
-1.01336e-07
-1.90662e-06
-7.42889e-08
-1.24642e-06
-5.05066e-08
-7.43249e-07
-3.18219e-08
-3.90971e-07
-1.81343e-08
-1.70904e-07
-8.99252e-09
-5.53211e-08
-3.64131e-09
-1.09587e-08
-1.09385e-09
-1.82421e-10
-2.73441e-06
-1.14244e-07
-1.92221e-06
-8.3239e-08
-1.25733e-06
-5.61682e-08
-7.49944e-07
-3.51208e-08
-3.94415e-07
-1.98573e-08
-1.72281e-07
-9.76374e-09
-5.57078e-08
-3.91345e-09
-1.10362e-08
-1.15633e-09
-1.90527e-10
-2.75367e-06
-1.19069e-07
-1.93775e-06
-8.59185e-08
-1.26843e-06
-5.73129e-08
-7.56843e-07
-3.54133e-08
-3.98e-07
-1.97784e-08
-1.73733e-07
-9.60127e-09
-5.61214e-08
-3.79477e-09
-1.11172e-08
-1.10049e-09
-1.78457e-10
-2.76995e-06
-1.1479e-07
-1.95143e-06
-8.15085e-08
-1.27846e-06
-5.33362e-08
-7.63165e-07
-3.22867e-08
-4.01311e-07
-1.76465e-08
-1.7508e-07
-8.37642e-09
-5.65064e-08
-3.23456e-09
-1.11906e-08
-9.13116e-10
-1.44571e-10
-2.77959e-06
-1.009e-07
-1.96056e-06
-6.95633e-08
-1.28554e-06
-4.38797e-08
-7.67744e-07
-2.54733e-08
-4.03711e-07
-1.32836e-08
-1.76037e-07
-5.98957e-09
-5.67679e-08
-2.18952e-09
-1.12363e-08
-5.81198e-10
-8.64587e-11
-2.77771e-06
-7.75219e-08
-1.9615e-06
-5.00951e-08
-1.28719e-06
-2.88802e-08
-7.69009e-07
-1.48709e-08
-4.04323e-07
-6.58694e-09
-1.76195e-07
-2.36389e-09
-5.67641e-08
-6.17441e-10
-1.12233e-08
-8.89482e-11
-8.36921e-13
-2.75835e-06
-4.54802e-08
-1.94987e-06
-2.36147e-08
-1.28036e-06
-8.58547e-09
-7.65012e-07
-5.39275e-10
-4.02035e-07
2.48788e-09
-1.75018e-07
2.57438e-09
-5.62983e-08
1.53733e-09
-1.11057e-08
5.89222e-10
1.18573e-10
-2.71492e-06
-6.29138e-09
-1.92076e-06
8.87822e-09
-1.26158e-06
1.64646e-08
-7.53479e-07
1.73299e-08
-3.95491e-07
1.39649e-08
-1.71808e-07
8.93494e-09
-5.50942e-08
4.37368e-09
-1.08101e-08
1.50443e-09
2.85041e-10
-2.64063e-06
3.7907e-08
-1.86904e-06
4.59479e-08
-1.22713e-06
4.54804e-08
-7.31837e-07
3.84582e-08
-3.83046e-07
2.79043e-08
-1.65632e-07
1.69279e-08
-5.27267e-08
8.09103e-09
-1.01987e-08
2.76843e-09
5.29848e-10
-2.52904e-06
8.44721e-08
-1.78963e-06
8.5793e-08
-1.1731e-06
7.74635e-08
-6.97166e-07
6.25166e-08
-3.62608e-07
4.4461e-08
-1.55117e-07
2.69579e-08
-4.84412e-08
1.30986e-08
-8.96164e-09
4.63581e-09
9.31035e-10
-2.37439e-06
1.3039e-07
-1.67768e-06
1.26308e-07
-1.09543e-06
1.1121e-07
-6.46061e-07
8.91119e-08
-3.31361e-07
6.39079e-08
-1.38041e-07
3.97349e-08
-4.07093e-08
2.02163e-08
-6.29654e-09
7.70272e-09
1.69474e-09
-2.17055e-06
1.72841e-07
-1.52767e-06
1.65565e-07
-9.89014e-07
1.45698e-07
-5.73753e-07
1.18125e-07
-2.84783e-07
8.70074e-08
-1.10076e-07
5.68368e-08
-2.54221e-08
3.16262e-08
1.40996e-09
1.41983e-08
3.84586e-09
1.78585e-08
-1.52933e-10
9.14246e-08
-9.5181e-10
2.88898e-07
-3.54439e-09
6.7517e-07
-9.31423e-09
1.30717e-06
-1.96785e-08
2.22723e-06
-3.59205e-08
3.4576e-06
-5.90735e-08
4.99714e-06
-8.98664e-08
6.82075e-06
-1.28763e-07
-1.72946e-07
1.81167e-08
-2.99839e-10
9.27521e-08
-1.91267e-09
2.92721e-07
-7.05617e-09
6.8324e-07
-1.84832e-08
1.32146e-06
-3.89757e-08
2.24968e-06
-7.10558e-08
3.48979e-06
-1.16761e-07
5.03962e-06
-1.77522e-07
6.87067e-06
-2.54187e-07
-3.41541e-07
1.84182e-08
-4.46929e-10
9.42871e-08
-2.85243e-09
2.97033e-07
-1.04048e-08
6.92116e-07
-2.71371e-08
1.33683e-06
-5.709e-08
2.27344e-06
-1.03942e-07
3.52354e-06
-1.70689e-07
5.08425e-06
-2.5945e-07
6.92602e-06
-3.71425e-07
-4.99573e-07
1.8715e-08
-5.86561e-10
9.57728e-08
-3.72504e-09
3.01126e-07
-1.34462e-08
7.00367e-07
-3.4913e-08
1.35085e-06
-7.328e-08
2.2948e-06
-1.33278e-07
3.55368e-06
-2.18813e-07
5.12445e-06
-3.32698e-07
6.97809e-06
-4.76549e-07
-6.42082e-07
1.90537e-08
-7.10989e-10
9.74327e-08
-4.48901e-09
3.05701e-07
-1.60647e-08
7.09595e-07
-4.15489e-08
1.3665e-06
-8.70476e-08
2.31858e-06
-1.58232e-07
3.58719e-06
-2.59874e-07
5.16918e-06
-3.95507e-07
7.03554e-06
-5.6724e-07
-7.66175e-07
1.94393e-08
-8.13696e-10
9.92896e-08
-5.11126e-09
3.10843e-07
-1.81712e-08
7.20013e-07
-4.68601e-08
1.38415e-06
-9.80713e-08
2.34528e-06
-1.78308e-07
3.62455e-06
-2.93175e-07
5.21857e-06
-4.46958e-07
7.09809e-06
-6.42354e-07
-8.7047e-07
1.98826e-08
-8.89963e-10
1.014e-07
-5.57054e-09
3.16728e-07
-1.9713e-08
7.32006e-07
-5.07536e-08
1.40446e-06
-1.06224e-07
2.37581e-06
-1.93367e-07
3.66682e-06
-3.18593e-07
5.27364e-06
-4.86989e-07
7.16651e-06
-7.01927e-07
-9.55109e-07
2.04106e-08
-9.37924e-10
1.03891e-07
-5.85869e-09
3.23716e-07
-2.06791e-08
7.46299e-07
-5.3237e-08
1.42861e-06
-1.11579e-07
2.41181e-06
-2.03621e-07
3.71601e-06
-3.36573e-07
5.33661e-06
-5.16362e-07
7.24304e-06
-7.47125e-07
-1.02166e-06
2.10797e-08
-9.57471e-10
1.07013e-07
-5.97974e-09
3.32465e-07
-2.10994e-08
7.64139e-07
-5.44168e-08
1.45852e-06
-1.14408e-07
2.45591e-06
-2.09626e-07
3.77537e-06
-3.48086e-07
5.41123e-06
-5.36599e-07
7.33167e-06
-7.80129e-07
-1.07297e-06
2.19992e-08
-9.4992e-10
1.11216e-07
-5.94684e-09
3.44085e-07
-2.10388e-08
7.87515e-07
-5.44909e-08
1.49715e-06
-1.15168e-07
2.51195e-06
-2.12257e-07
3.84958e-06
-3.54595e-07
5.50286e-06
-5.49899e-07
7.43827e-06
-8.03994e-07
-1.11293e-06
2.33801e-08
-9.15326e-10
1.17295e-07
-5.77623e-09
3.60406e-07
-2.05884e-08
8.19482e-07
-5.37394e-08
1.54872e-06
-1.14495e-07
2.58521e-06
-2.12696e-07
3.94482e-06
-3.58009e-07
5.61857e-06
-5.59049e-07
7.57061e-06
-8.22495e-07
-1.14628e-06
2.56587e-08
-8.48472e-10
1.26712e-07
-5.47643e-09
3.84458e-07
-1.98562e-08
8.64668e-07
-5.25247e-08
1.61915e-06
-1.13209e-07
2.68257e-06
-2.12431e-07
4.06879e-06
-3.60661e-07
5.76703e-06
-5.67353e-07
7.73849e-06
-8.39979e-07
-1.17834e-06
2.98303e-08
-7.27987e-10
1.42323e-07
-5.02904e-09
4.21423e-07
-1.89635e-08
9.30102e-07
-5.13167e-08
1.71658e-06
-1.12366e-07
2.81264e-06
-2.1331e-07
4.23046e-06
-3.65327e-07
5.95828e-06
-5.78576e-07
7.95412e-06
-8.61218e-07
-1.21482e-06
3.84333e-08
-4.92275e-10
1.70157e-07
-4.35335e-09
4.80417e-07
-1.80631e-08
1.02644e-06
-5.07786e-08
1.85189e-06
-1.13383e-07
2.98572e-06
-2.17648e-07
4.43945e-06
-3.75277e-07
6.20286e-06
-5.96921e-07
8.23392e-06
-8.91278e-07
-1.26159e-06
6.25421e-08
7.59319e-11
2.27468e-07
-2.97544e-09
5.80514e-07
-1.73794e-08
1.17206e-06
-5.2053e-08
2.04173e-06
-1.18429e-07
3.216e-06
-2.28665e-07
4.70719e-06
-3.94736e-07
6.51156e-06
-6.27515e-07
8.57638e-06
-9.35947e-07
-1.98163e-06
2.09326e-07
-1.38164e-06
2.02015e-07
-8.77129e-07
1.80312e-07
-4.88791e-07
1.4993e-07
-2.208e-07
1.15222e-07
-6.21959e-08
8.08701e-08
1.05143e-08
5.10933e-08
2.9198e-08
2.89168e-08
1.58199e-08
2.44722e-08
-1.67638e-06
2.36681e-07
-1.14047e-06
2.33362e-07
-6.87271e-07
2.13511e-07
-3.38541e-07
1.83847e-07
-9.98065e-08
1.4882e-07
3.87534e-08
1.13244e-07
9.95559e-08
8.14009e-08
1.13719e-07
5.65049e-08
4.07409e-08
1.16752e-07
-1.26308e-06
2.51178e-07
-7.97138e-07
2.56118e-07
-4.01442e-07
2.41746e-07
-9.58589e-08
2.16641e-07
1.12502e-07
1.84937e-07
2.33521e-07
1.51672e-07
2.89397e-07
1.21123e-07
3.11655e-07
9.67894e-08
8.123e-08
3.34012e-07
-7.04448e-07
-3.17025e-07
2.63392e-07
2.09868e-08
2.59869e-07
2.84454e-07
2.42038e-07
4.65109e-07
2.16688e-07
5.75702e-07
1.88905e-07
6.38642e-07
1.62561e-07
6.85991e-07
1.41484e-07
1.27989e-07
7.4493e-07
3.65234e-07
6.337e-07
8.55208e-07
2.48786e-07
1.01597e-06
2.34028e-07
1.12681e-06
2.12672e-07
1.20993e-06
1.91467e-07
1.2971e-06
1.74249e-07
1.62455e-07
1.40463e-06
1.68956e-06
1.83184e-06
1.95179e-06
2.05136e-07
2.06636e-06
1.89787e-07
2.2034e-06
1.73369e-07
1.60162e-07
2.36646e-06
3.11904e-06
3.27087e-06
3.46359e-06
1.14059e-07
9.67077e-08
3.68558e-06
5.12978e-06
5.41757e-06
2.5989e-08
5.28534e-09
3.10146e-08
4.47787e-09
4.03816e-09
4.51673e-08
1.26803e-07
1.68973e-08
1.45562e-07
1.53454e-08
1.35555e-08
1.88547e-07
3.65647e-07
3.71164e-08
4.06456e-07
3.47861e-08
3.03993e-08
4.82355e-07
8.09739e-07
6.07717e-08
8.79523e-07
5.73653e-08
4.92514e-08
9.93234e-07
1.50943e-06
7.78112e-08
1.61197e-06
7.26233e-08
5.98719e-08
1.76594e-06
2.51444e-06
7.52119e-08
2.65067e-06
6.70593e-08
4.90159e-08
2.84412e-06
3.87678e-06
3.99733e-08
4.04486e-06
2.70995e-08
3.19686e-09
4.27377e-06
5.65481e-06
5.84921e-06
-5.63032e-08
-8.76784e-08
6.10517e-06
8.08925e-06
8.37108e-06
1.39186e-07
6.41407e-09
3.62042e-07
6.70453e-10
7.83183e-07
-1.69113e-08
1.45045e-06
-5.6809e-08
2.40107e-06
-1.30754e-07
3.66036e-06
-2.50994e-07
5.24256e-06
-4.29566e-07
7.15145e-06
-6.77251e-07
-1.00298e-06
3.21819e-07
2.06098e-08
6.13225e-07
8.33369e-09
1.10603e-06
-1.75161e-08
1.84551e-06
-6.78531e-08
2.86531e-06
-1.5473e-07
4.18957e-06
-2.90426e-07
5.83207e-06
-4.86812e-07
7.79685e-06
-7.54226e-07
-1.10144e-06
6.71753e-07
4.41935e-08
1.03556e-06
1.82074e-08
1.60276e-06
-2.33158e-08
2.41353e-06
-9.10144e-08
3.49835e-06
-1.97389e-07
4.87924e-06
-3.54733e-07
6.566e-06
-5.7457e-07
8.55696e-06
-8.66856e-07
-1.2399e-06
1.2403e-06
6.71412e-08
1.67521e-06
2.06164e-08
2.31402e-06
-4.4152e-08
3.19103e-06
-1.36562e-07
4.33308e-06
-2.69268e-07
5.75789e-06
-4.54351e-07
7.4703e-06
-7.02944e-07
9.4627e-06
-1.02467e-06
-1.42662e-06
2.07075e-06
7.01848e-08
2.5728e-06
-2.01532e-09
3.27663e-06
-9.60878e-08
4.21149e-06
-2.19321e-07
5.39957e-06
-3.84066e-07
6.8536e-06
-6.01969e-07
8.57416e-06
-8.83669e-07
1.05483e-05
-1.23816e-06
-1.67074e-06
3.20333e-06
2.82685e-08
3.76601e-06
-7.24833e-08
4.52549e-06
-1.99527e-07
5.50644e-06
-3.57464e-07
6.72659e-06
-5.57898e-07
8.19436e-06
-8.11742e-07
9.90662e-06
-1.12893e-06
1.18466e-05
-1.51779e-06
-1.98131e-06
4.67969e-06
-8.45241e-08
5.29244e-06
-2.14719e-07
6.0952e-06
-3.75925e-07
7.10785e-06
-5.69837e-07
8.34403e-06
-8.07017e-07
9.80854e-06
-1.09743e-06
1.14953e-05
-1.45013e-06
1.3386e-05
-1.87269e-06
-2.36537e-06
6.54439e-06
-2.89843e-07
7.19144e-06
-4.49677e-07
8.02234e-06
-6.44241e-07
9.0497e-06
-8.7289e-07
1.02835e-05
-1.14527e-06
1.1726e-05
-1.47029e-06
1.3369e-05
-1.85599e-06
1.51935e-05
-2.30908e-06
-2.82675e-06
8.8376e-06
9.50486e-06
-7.94083e-07
1.03475e-05
-1.01772e-06
1.13699e-05
-1.2779e-06
1.25795e-05
-1.58171e-06
1.39797e-05
-1.93718e-06
1.55586e-05
-2.3511e-06
1.72982e-05
-2.82921e-06
-3.36548e-06
1.22426e-05
1.30935e-05
1.41052e-05
1.52739e-05
-2.11827e-06
1.66069e-05
-2.4998e-06
1.80979e-05
-2.93486e-06
1.97323e-05
-3.43033e-06
-3.97674e-06
1.83737e-05
1.96393e-05
2.10279e-05
-3.5996e-06
2.25322e-05
-4.1062e-06
-4.65057e-06
2.4348e-05
2.5726e-05
-5.36867e-06
)
;

boundaryField
{
    inlet
    {
        type            calculated;
        value           nonuniform 0();
    }
    outlet
    {
        type            calculated;
        value           nonuniform 0();
    }
    flap
    {
        type            calculated;
        value           uniform 0;
    }
    upperWall
    {
        type            calculated;
        value           nonuniform 0();
    }
    lowerWall
    {
        type            calculated;
        value           uniform 0;
    }
    frontAndBack
    {
        type            empty;
        value           nonuniform 0();
    }
    procBoundary4to1
    {
        type            processor;
        value           nonuniform List<scalar> 
30
(
2.41838e-07
-8.77763e-08
2.27831e-07
2.49025e-07
-1.52432e-06
2.01907e-07
2.11867e-07
-2.99033e-06
1.23745e-07
1.2569e-07
-4.87882e-06
-4.94572e-08
-6.06638e-08
-3.84687e-08
-7.86847e-06
-2.09486e-07
-2.42671e-07
-6.12692e-07
-1.15574e-05
-1.25523e-06
-1.49792e-06
-1.78519e-06
-1.72356e-05
-2.73156e-06
-3.14162e-06
-2.30406e-05
-4.29523e-06
-4.82348e-06
-2.92742e-05
-6.06452e-06
)
;
    }
    procBoundary4to2
    {
        type            processor;
        value           nonuniform List<scalar> 
11
(
1.07541e-05
1.16224e-05
1.26552e-05
1.3893e-05
1.53601e-05
1.7081e-05
1.90825e-05
2.13941e-05
2.40465e-05
2.70729e-05
3.0468e-05
)
;
    }
    procBoundary4to3
    {
        type            processor;
        value           nonuniform List<scalar> 
19
(
3.52406e-06
3.55158e-06
3.57889e-06
3.60089e-06
3.62274e-06
3.64271e-06
3.65773e-06
3.66316e-06
3.6528e-06
3.61919e-06
3.55412e-06
3.44926e-06
3.29682e-06
3.09011e-06
2.82222e-06
2.57842e-06
2.1924e-06
1.68229e-06
1.0061e-06
)
;
    }
    procBoundary4to5
    {
        type            processor;
        value           nonuniform List<scalar> 
18
(
8.76116e-06
8.82549e-06
8.89523e-06
8.95908e-06
9.0288e-06
9.10398e-06
9.18511e-06
9.2742e-06
9.37511e-06
9.49361e-06
9.63729e-06
9.81547e-06
1.00392e-05
1.03221e-05
1.06545e-05
-1.32514e-06
9.30773e-06
9.99236e-06
)
;
    }
}


// ************************************************************************* //
