/*--------------------------------*- C++ -*----------------------------------*\
| =========                 |                                                 |
| \\      /  F ield         | OpenFOAM: The Open Source CFD Toolbox           |
|  \\    /   O peration     | Version:  dev                                   |
|   \\  /    A nd           | Web:      www.OpenFOAM.org                      |
|    \\/     M anipulation  |                                                 |
\*---------------------------------------------------------------------------*/
FoamFile
{
    version     2.0;
    format      ascii;
    class       volScalarField;
    location    "4";
    object      p;
}
// * * * * * * * * * * * * * * * * * * * * * * * * * * * * * * * * * * * * * //

dimensions      [0 2 -2 0 0 0 0];

internalField   nonuniform List<scalar> 
465
(
183.587
185.499
187.11
188.368
189.247
189.75
189.901
189.943
190.076
183.435
185.371
187.011
188.3
189.201
189.687
189.813
189.968
190.158
182.817
184.772
186.454
187.813
188.817
189.465
189.844
190.158
190.451
181.86
183.822
185.55
187.006
188.171
189.06
189.739
190.288
190.78
180.609
182.566
184.337
185.895
187.231
188.358
189.31
190.103
190.807
179.076
181.005
182.797
184.433
185.91
187.23
188.403
189.383
190.231
177.259
179.127
180.898
182.564
184.121
185.568
186.892
187.996
188.938
175.147
176.909
178.602
180.228
181.788
183.277
184.675
185.85
186.869
172.728
174.325
175.869
177.367
178.829
180.255
181.635
182.823
183.914
169.991
171.354
172.66
173.92
175.155
176.379
177.61
178.718
179.864
166.935
167.986
168.947
169.833
170.669
171.491
172.365
173.22
174.36
163.573
164.225
164.723
165.069
165.282
165.408
165.572
165.822
166.77
159.935
160.103
160.014
159.633
158.94
157.947
156.798
155.692
155.884
156.075
155.687
154.896
153.605
151.692
149.026
145.576
141.464
138.996
152.066
151.078
149.515
147.183
143.793
138.89
131.791
121.246
108.423
4.06481
4.02267
3.91154
3.75183
3.57644
3.40642
3.25094
3.11303
2.9927
2.88797
3.99924
3.94897
3.84102
3.69194
3.52886
3.36968
3.22275
3.09137
2.97618
2.87607
3.91677
3.85906
3.75525
3.6181
3.46944
3.32329
3.187
3.06409
2.95557
2.86042
3.83607
3.7733
3.67411
3.54817
3.41329
3.27971
3.15381
3.03921
2.93723
2.84746
3.77729
3.7132
3.62004
3.50437
3.38116
3.2579
3.14036
3.03207
2.93415
2.84692
3.7586
3.69581
3.60907
3.50143
3.38622
3.26973
3.15734
3.05259
2.95682
2.86997
3.79359
3.73178
3.64857
3.54363
3.4307
3.31596
3.20442
3.0993
3.00192
2.91211
3.88719
3.82045
3.73311
3.62389
3.50708
3.38909
3.27441
3.16556
3.06348
2.96795
4.02829
3.94824
3.84721
3.72696
3.60144
3.4769
3.35678
3.24258
3.13443
3.03169
4.19184
4.0913
3.96953
3.83455
3.69908
3.568
3.44285
3.32368
3.20983
3.09953
4.34745
4.21856
4.07312
3.92614
3.78574
3.65257
3.52578
3.40384
3.28516
3.16877
4.4616
4.30738
4.14161
3.98888
3.85124
3.7236
3.60078
3.47998
3.35979
3.23914
4.50294
4.30516
4.13845
4.00506
3.8886
3.77853
3.66687
3.55127
3.43238
3.30931
4.34059
4.08856
3.9865
3.93872
3.88012
3.81026
3.72183
3.61593
3.50179
3.37906
3.58025
3.37604
3.57377
3.79897
3.83398
3.82379
3.77225
3.67456
3.56762
3.45023
147.927
146.329
143.98
140.584
135.655
128.302
116.672
95.0405
36.337
143.716
141.545
138.488
134.194
128.088
119.161
105.69
86.3947
58.4661
139.557
136.906
133.315
128.461
121.895
113.035
101.237
87.0848
70.6427
135.546
132.537
128.61
123.52
116.978
108.694
98.3403
85.877
70.8982
128.501
124.399
119.266
112.907
105.129
95.6967
84.458
71.6391
115.597
109.51
102.279
93.8066
84.0929
73.5539
100.093
92.5635
84.1803
75.2788
84.3465
76.6722
-47.8981
-27.4663
-8.71971
38.6403
31.1889
19.039
53.1162
41.0974
30.142
54.7352
44.5328
36.694
59.2254
51.1213
44.5071
63.6102
56.8398
51.0577
66.875
61.1026
56.1362
69.4731
64.5325
60.2849
67.3955
63.7329
0.681464
1.29543
2.80209
3.80889
3.76994
3.80414
3.84275
3.73654
3.63306
5.8305
3.47744
4.84374
4.40121
3.31076
3.6993
4.11312
3.83182
3.66939
16.4633
8.7823
6.14797
4.24573
4.1387
5.14806
4.8065
3.59942
3.47102
26.1313
16.7494
11.3176
7.94974
6.28682
5.50134
4.37421
3.8032
4.26281
35.2462
25.7935
18.8176
13.7737
10.2627
7.86852
6.13612
5.12861
4.76796
43.1073
34.3772
26.7268
20.4945
15.723
12.1916
9.58048
7.68364
6.3633
49.5274
41.8469
34.2341
27.4947
21.9914
17.6157
14.1383
11.3959
9.28169
54.7719
48.124
40.9723
34.2401
28.4367
23.5489
19.4448
16.0333
13.2424
59.0562
53.2985
46.7808
40.3646
34.5924
29.5137
25.0618
21.1973
17.8874
57.5321
51.672
45.7186
40.1867
35.154
30.5892
26.4855
22.8432
45.1122
40.2694
35.7589
31.5907
27.7854
40.4328
36.3212
32.4821
36.7986
)
;

boundaryField
{
    inlet
    {
        type            zeroGradient;
    }
    outlet
    {
        type            fixedValue;
        value           nonuniform 0();
    }
    flap
    {
        type            zeroGradient;
    }
    upperWall
    {
        type            zeroGradient;
    }
    lowerWall
    {
        type            zeroGradient;
    }
    frontAndBack
    {
        type            empty;
    }
    procBoundary4to1
    {
        type            processor;
        value           nonuniform List<scalar> 
30
(
131.751
131.751
124.818
120.656
120.656
112.458
106.721
106.721
98.387
91.6755
91.6755
84.5583
77.8811
71.6631
71.6631
69.7821
66.5905
62.555
62.555
61.0062
55.7544
50.3017
50.3017
49.3692
44.7875
44.7875
44.5682
40.585
40.585
40.6793
)
;
    }
    procBoundary4to2
    {
        type            processor;
        value           nonuniform List<scalar> 
11
(
3.78448
4.56163
4.36368
5.3485
7.6357
10.9641
15.0742
19.6432
24.3484
28.9345
33.2342
)
;
    }
    procBoundary4to3
    {
        type            processor;
        value           nonuniform List<scalar> 
19
(
181.433
181.264
180.649
179.715
178.504
177.032
175.306
173.323
171.076
168.565
165.795
162.779
159.547
156.14
152.613
148.967
145.23
141.494
137.831
)
;
    }
    procBoundary4to5
    {
        type            processor;
        value           nonuniform List<scalar> 
18
(
2.79527
2.78776
2.77681
2.76815
2.77009
2.79118
2.82854
2.87697
2.93253
2.99196
3.05418
3.11784
3.18176
3.24543
3.31009
3.53105
3.53105
3.62036
)
;
    }
}


// ************************************************************************* //
