/*--------------------------------*- C++ -*----------------------------------*\
| =========                 |                                                 |
| \\      /  F ield         | OpenFOAM: The Open Source CFD Toolbox           |
|  \\    /   O peration     | Version:  dev                                   |
|   \\  /    A nd           | Web:      www.OpenFOAM.org                      |
|    \\/     M anipulation  |                                                 |
\*---------------------------------------------------------------------------*/
FoamFile
{
    version     2.0;
    format      ascii;
    class       pointVectorField;
    location    "4";
    object      pointDisplacement;
}
// * * * * * * * * * * * * * * * * * * * * * * * * * * * * * * * * * * * * * //

dimensions      [0 1 0 0 0 0 0];

internalField   nonuniform List<vector> 
1062
(
(0.00958345 0 0)
(0.00870178 0 0)
(0.00772887 0 0)
(0.00667483 0 0)
(0.00555624 0 0)
(0.00440051 0 0)
(0.00325369 0 0)
(0.00219643 0 0)
(0.00138466 0 0)
(0 0 0)
(0.00969087 0 0.000232549)
(0.00883083 0 0.000265841)
(0.00788417 0 0.000305515)
(0.00686217 0 0.000352988)
(0.00578295 0 0.00040984)
(0.00467589 0 0.000477561)
(0.00358943 0 0.000556767)
(0.00260596 0 0.000644894)
(0.00187478 0 0.00072914)
(0.000922264 0 0.000907666)
(0.0100076 0 0.000457047)
(0.00921041 0 0.000520805)
(0.0083396 0 0.000596146)
(0.00740935 0 0.000685338)
(0.00644132 0 0.000790679)
(0.00546876 0 0.000913812)
(0.00454304 0 0.00105402)
(0.00374371 0 0.00120396)
(0.00319428 0 0.00133912)
(0.00252487 0 0.00156507)
(0.0105178 0 0.000666095)
(0.00981931 0 0.000755112)
(0.00906605 0 0.000858878)
(0.00827568 0 0.000979656)
(0.0074733 0 0.00111926)
(0.00669443 0 0.00127796)
(0.00598848 0 0.00145205)
(0.00542137 0 0.00162899)
(0.00507511 0 0.00177787)
(0.00469969 0 0.00199413)
(0.0111969 0 0.000853725)
(0.0106246 0 0.00096126)
(0.0100193 0 0.00108434)
(0.00940114 0 0.00122442)
(0.00879693 0 0.00138193)
(0.00824104 0 0.00155489)
(0.00777541 0 0.00173656)
(0.00744573 0 0.00191134)
(0.00729075 0 0.00204866)
(0.00716603 0 0.00222638)
(0.0120133 0 0.00101594)
(0.0115852 0 0.00113472)
(0.0111455 0 0.00126767)
(0.0107153 0 0.00141492)
(0.0103203 0 0.0015751)
(0.00999016 0 0.00174407)
(0.00975545 0 0.00191314)
(0.00963963 0 0.00206659)
(0.00964363 0 0.00217914)
(0.00971145 0 0.00231203)
(0.0129313 0 0.00115085)
(0.0126557 0 0.00127401)
(0.0123872 0 0.00140833)
(0.0121457 0 0.00155249)
(0.0119531 0 0.0017034)
(0.0118316 0 0.00185537)
(0.0117985 0 0.00199917)
(0.011857 0 0.00212129)
(0.0119795 0 0.00220419)
(0.0121803 0 0.00229386)
(0.0139138 0 0.00125849)
(0.0137905 0 0.00138023)
(0.0136886 0 0.00150927)
(0.0136249 0 0.00164295)
(0.0136154 0 0.0017769)
(0.013673 0 0.00190462)
(0.0138019 0 0.00201744)
(0.0139888 0 0.00210525)
(0.014189 0 0.00215857)
(0.0144713 0 0.0022066)
(0.0149249 0 0.0013404)
(0.0149465 0 0.00145641)
(0.0149991 0 0.00157569)
(0.0150947 0 0.00169467)
(0.0152422 0 0.00180825)
(0.0154445 0 0.00190981)
(0.0156935 0 0.00199184)
(0.0159643 0 0.00204773)
(0.0162047 0 0.00207497)
(0.0165163 0 0.00208674)
(0.0159315 0 0.00139914)
(0.0160855 0 0.00150662)
(0.0162755 0 0.0016138)
(0.0165084 0 0.00171672)
(0.0167853 0 0.00181018)
(0.0170992 0 0.00188802)
(0.0174316 0 0.00194413)
(0.0177491 0 0.00197469)
(0.0179999 0 0.00198219)
(0.0182946 0 0.00196566)
(0.0169044 0 0.00143774)
(0.0171749 0 0.00153522)
(0.017483 0 0.00162968)
(0.0178304 0 0.0017173)
(0.0182115 0 0.00179342)
(0.0186106 0 0.0018529)
(0.019 0 0.00189108)
(0.0193404 0 0.00190596)
(0.0195837 0 0.00190233)
(0.0198324 0 0.0018704)
(0.0178193 0 0.00145932)
(0.0181882 0 0.00154629)
(0.018594 0 0.00162845)
(0.0190344 0 0.00170263)
(0.0194986 0 0.00176529)
(0.0199649 0 0.00181284)
(0.020399 0 0.00184227)
(0.0207561 0 0.00185251)
(0.0209904 0 0.00184771)
(0.0211819 0 0.00181537)
(0.0186564 0 0.00146681)
(0.0191045 0 0.0015433)
(0.0195873 0 0.001614)
(0.0201 0 0.00167666)
(0.0206296 0 0.00172924)
(0.0211522 0 0.00177019)
(0.021631 0 0.00179863)
(0.0220174 0 0.00181434)
(0.0222614 0 0.00181839)
(0.0224198 0 0.00180225)
(0.0194012 0 0.00146284)
(0.0199084 0 0.00152915)
(0.0204468 0 0.00158911)
(0.0210109 0 0.00164141)
(0.021588 0 0.00168547)
(0.0221566 0 0.00172188)
(0.0226837 0 0.00175254)
(0.0231227 0 0.00177944)
(0.0234145 0 0.00180051)
(0.0236201 0 0.00181814)
(0.0200436 0 0.00144979)
(0.0205897 0 0.00150633)
(0.0211617 0 0.00155604)
(0.0217541 0 0.0015982)
(0.0223562 0 0.00163304)
(0.0229515 0 0.00166239)
(0.0235161 0 0.00169043)
(0.0240157 0 0.00172348)
(0.0243925 0 0.00176314)
(0.0248146 0 0.00184035)
(0.0205838 0 0.00142961)
(0.0211494 0 0.00147684)
(0.0217332 0 0.00151664)
(0.0223297 0 0.00154837)
(0.0229295 0 0.00157197)
(0.0235192 0 0.00158812)
(0.024082 0 0.00159807)
(0.0245974 0 0.00160199)
(0.0250295 0 0.00159172)
(0.0260205 0 0.00184823)
(0.00958345 0 0)
(0.00870178 0 0)
(0.00772887 0 0)
(0.00667483 0 0)
(0.00555624 0 0)
(0.00440051 0 0)
(0.00325369 0 0)
(0.00219643 0 0)
(0.00138466 0 0)
(0 0 0)
(0.00969087 0 0.000232549)
(0.00883083 0 0.000265841)
(0.00788417 0 0.000305515)
(0.00686217 0 0.000352988)
(0.00578295 0 0.00040984)
(0.00467589 0 0.000477561)
(0.00358943 0 0.000556767)
(0.00260596 0 0.000644894)
(0.00187478 0 0.00072914)
(0.000922264 0 0.000907666)
(0.0100076 0 0.000457047)
(0.00921041 0 0.000520805)
(0.0083396 0 0.000596146)
(0.00740935 0 0.000685338)
(0.00644132 0 0.000790679)
(0.00546876 0 0.000913812)
(0.00454304 0 0.00105402)
(0.00374371 0 0.00120396)
(0.00319428 0 0.00133912)
(0.00252487 0 0.00156507)
(0.0105178 0 0.000666095)
(0.00981931 0 0.000755112)
(0.00906605 0 0.000858878)
(0.00827568 0 0.000979656)
(0.0074733 0 0.00111926)
(0.00669443 0 0.00127796)
(0.00598848 0 0.00145205)
(0.00542137 0 0.00162899)
(0.00507511 0 0.00177787)
(0.00469969 0 0.00199413)
(0.0111969 0 0.000853725)
(0.0106246 0 0.00096126)
(0.0100193 0 0.00108434)
(0.00940114 0 0.00122442)
(0.00879693 0 0.00138193)
(0.00824104 0 0.00155489)
(0.00777541 0 0.00173656)
(0.00744573 0 0.00191134)
(0.00729075 0 0.00204866)
(0.00716603 0 0.00222638)
(0.0120133 0 0.00101594)
(0.0115852 0 0.00113472)
(0.0111455 0 0.00126767)
(0.0107153 0 0.00141492)
(0.0103203 0 0.0015751)
(0.00999016 0 0.00174407)
(0.00975545 0 0.00191314)
(0.00963963 0 0.00206659)
(0.00964363 0 0.00217914)
(0.00971145 0 0.00231203)
(0.0129313 0 0.00115085)
(0.0126557 0 0.00127401)
(0.0123872 0 0.00140833)
(0.0121457 0 0.00155249)
(0.0119531 0 0.0017034)
(0.0118316 0 0.00185537)
(0.0117985 0 0.00199917)
(0.011857 0 0.00212129)
(0.0119795 0 0.00220419)
(0.0121803 0 0.00229386)
(0.0139138 0 0.00125849)
(0.0137905 0 0.00138023)
(0.0136886 0 0.00150927)
(0.0136249 0 0.00164295)
(0.0136154 0 0.0017769)
(0.013673 0 0.00190462)
(0.0138019 0 0.00201744)
(0.0139888 0 0.00210525)
(0.014189 0 0.00215857)
(0.0144713 0 0.0022066)
(0.0149249 0 0.0013404)
(0.0149465 0 0.00145641)
(0.0149991 0 0.00157569)
(0.0150947 0 0.00169467)
(0.0152422 0 0.00180825)
(0.0154445 0 0.00190981)
(0.0156935 0 0.00199184)
(0.0159643 0 0.00204773)
(0.0162047 0 0.00207497)
(0.0165163 0 0.00208674)
(0.0159315 0 0.00139914)
(0.0160855 0 0.00150662)
(0.0162755 0 0.0016138)
(0.0165084 0 0.00171672)
(0.0167853 0 0.00181018)
(0.0170992 0 0.00188802)
(0.0174316 0 0.00194413)
(0.0177491 0 0.00197469)
(0.0179999 0 0.00198219)
(0.0182946 0 0.00196566)
(0.0169044 0 0.00143774)
(0.0171749 0 0.00153522)
(0.017483 0 0.00162968)
(0.0178304 0 0.0017173)
(0.0182115 0 0.00179342)
(0.0186106 0 0.0018529)
(0.019 0 0.00189108)
(0.0193404 0 0.00190596)
(0.0195837 0 0.00190233)
(0.0198324 0 0.0018704)
(0.0178193 0 0.00145932)
(0.0181882 0 0.00154629)
(0.018594 0 0.00162845)
(0.0190344 0 0.00170263)
(0.0194986 0 0.00176529)
(0.0199649 0 0.00181284)
(0.020399 0 0.00184227)
(0.0207561 0 0.00185251)
(0.0209904 0 0.00184771)
(0.0211819 0 0.00181537)
(0.0186564 0 0.00146681)
(0.0191045 0 0.0015433)
(0.0195873 0 0.001614)
(0.0201 0 0.00167666)
(0.0206296 0 0.00172924)
(0.0211522 0 0.00177019)
(0.021631 0 0.00179863)
(0.0220174 0 0.00181434)
(0.0222614 0 0.00181839)
(0.0224198 0 0.00180225)
(0.0194012 0 0.00146284)
(0.0199084 0 0.00152915)
(0.0204468 0 0.00158911)
(0.0210109 0 0.00164141)
(0.021588 0 0.00168547)
(0.0221566 0 0.00172188)
(0.0226837 0 0.00175254)
(0.0231227 0 0.00177944)
(0.0234145 0 0.00180051)
(0.0236201 0 0.00181814)
(0.0200436 0 0.00144979)
(0.0205897 0 0.00150633)
(0.0211617 0 0.00155604)
(0.0217541 0 0.0015982)
(0.0223562 0 0.00163304)
(0.0229515 0 0.00166239)
(0.0235161 0 0.00169043)
(0.0240157 0 0.00172348)
(0.0243925 0 0.00176314)
(0.0248146 0 0.00184035)
(0.0205838 0 0.00142961)
(0.0211494 0 0.00147684)
(0.0217332 0 0.00151664)
(0.0223297 0 0.00154837)
(0.0229295 0 0.00157197)
(0.0235192 0 0.00158812)
(0.024082 0 0.00159807)
(0.0245974 0 0.00160199)
(0.0250295 0 0.00159172)
(0.0260205 0 0.00184823)
(0 0 0)
(0.00137948 0 0)
(0.00226894 0 0)
(0.00342785 0 0)
(0.00468473 0 0)
(0.00594403 0 0)
(0.00715178 0 0)
(0.00827738 0 0)
(0.00930381 0 0)
(0.010222 0 0)
(0.0110277 0 0)
(0.000789552 0 -0.000669543)
(0.00185494 0 -0.000510297)
(0.00268025 0 -0.000443253)
(0.0037723 0 -0.000368454)
(0.00497013 0 -0.000299807)
(0.0061797 0 -0.000241058)
(0.00734627 0 -0.00019237)
(0.008438 0 -0.000152683)
(0.00943658 0 -0.000120621)
(0.0103319 0 -9.48409e-05)
(0.0111187 0 -7.41652e-05)
(0.00238417 0 -0.00110708)
(0.00315405 0 -0.000913448)
(0.00382864 0 -0.000805572)
(0.00474996 0 -0.000679139)
(0.00578927 0 -0.000558823)
(0.00686136 0 -0.000453256)
(0.00791203 0 -0.000364209)
(0.0089072 0 -0.000290671)
(0.00982574 0 -0.000230657)
(0.0106548 0 -0.000182012)
(0.0113867 0 -0.00014274)
(0.00454479 0 -0.00134692)
(0.00502633 0 -0.00116495)
(0.00552328 0 -0.00104494)
(0.00622399 0 -0.000896503)
(0.00704522 0 -0.000748945)
(0.00792011 0 -0.000615159)
(0.00879963 0 -0.000499462)
(0.00964921 0 -0.000402034)
(0.0104451 0 -0.000321272)
(0.0111713 0 -0.000254966)
(0.0118172 0 -0.000200866)
(0.00700342 0 -0.00142302)
(0.00723844 0 -0.00127104)
(0.00755974 0 -0.00115749)
(0.00803072 0 -0.00101082)
(0.00861295 0 -0.000858809)
(0.00926241 0 -0.000716045)
(0.00993956 0 -0.000588929)
(0.0106123 0 -0.000479261)
(0.011256 0 -0.000386495)
(0.0118523 0 -0.000309034)
(0.0123881 0 -0.000244925)
(0.00955288 0 -0.00137415)
(0.00959041 0 -0.0012559)
(0.00975497 0 -0.00115921)
(0.0100139 0 -0.00103005)
(0.0103656 0 -0.000890836)
(0.0107883 0 -0.000755195)
(0.0112543 0 -0.000630401)
(0.0117368 0 -0.000519628)
(0.0122125 0 -0.000423611)
(0.0126627 0 -0.000341749)
(0.0130724 0 -0.000272792)
(0.0120347 0 -0.00123265)
(0.0119264 0 -0.00114835)
(0.0119625 0 -0.00107406)
(0.0120426 0 -0.000971592)
(0.0121911 0 -0.000856382)
(0.0124051 0 -0.000739309)
(0.0126688 0 -0.000627383)
(0.0129626 0 -0.000524624)
(0.0132671 0 -0.000432927)
(0.0135646 0 -0.000352787)
(0.0138403 0 -0.00028385)
(0.0143389 0 -0.00102565)
(0.0141359 0 -0.000977623)
(0.0140763 0 -0.000928416)
(0.014018 0 -0.000856959)
(0.0140007 0 -0.000771508)
(0.0140349 0 -0.000679577)
(0.0141166 0 -0.000587231)
(0.0142343 0 -0.000498829)
(0.0143738 0 -0.000417133)
(0.0145209 0 -0.000343614)
(0.0146615 0 -0.000278802)
(0.0164 0 -0.000785405)
(0.0161517 0 -0.000773068)
(0.0160302 0 -0.000748967)
(0.0158748 0 -0.000708602)
(0.0157307 0 -0.000653863)
(0.0156184 0 -0.000589114)
(0.0155437 0 -0.000519261)
(0.015504 0 -0.000448624)
(0.0154918 0 -0.000380467)
(0.0154967 0 -0.000316961)
(0.0155073 0 -0.000259358)
(0.0181948 0 -0.000543358)
(0.0179477 0 -0.000562978)
(0.0177946 0 -0.000560834)
(0.0175778 0 -0.000547583)
(0.0173416 0 -0.000520274)
(0.0171135 0 -0.00048084)
(0.0169087 0 -0.000433087)
(0.016733 0 -0.000380982)
(0.0165857 0 -0.000327879)
(0.0164612 0 -0.00027628)
(0.0163512 0 -0.000227882)
(0.0197436 0 -0.000329926)
(0.0195337 0 -0.000371622)
(0.01937 0 -0.000384999)
(0.0191158 0 -0.000391227)
(0.0188121 0 -0.000384678)
(0.0184926 0 -0.000365778)
(0.0181807 0 -0.000337289)
(0.0178903 0 -0.000302476)
(0.0176264 0 -0.000264321)
(0.0173882 0 -0.000225238)
(0.01717 0 -0.000187044)
(0.0211043 0 -0.000165174)
(0.020945 0 -0.000215503)
(0.0207761 0 -0.000235278)
(0.0204914 0 -0.000250813)
(0.0201316 0 -0.000256432)
(0.0197367 0 -0.000251816)
(0.0193369 0 -0.000238509)
(0.0189516 0 -0.000218608)
(0.0185904 0 -0.000194241)
(0.0182555 0 -0.000167342)
(0.0179439 0 -0.00013955)
(0.022354 0 -5.79889e-05)
(0.0222236 0 -0.000100001)
(0.0220336 0 -0.00011555)
(0.0217067 0 -0.000129736)
(0.0212903 0 -0.00013929)
(0.0208299 0 -0.000143164)
(0.0203585 0 -0.000141106)
(0.0198976 0 -0.000133525)
(0.0194586 0 -0.000121334)
(0.0190454 0 -0.000105722)
(0.0186567 0 -8.7947e-05)
(0.023563 0 -2.62706e-06)
(0.0233864 0 -1.64932e-05)
(0.0231382 0 -1.75865e-05)
(0.0227464 0 -2.2823e-05)
(0.0222704 0 -3.16434e-05)
(0.0217548 0 -4.08065e-05)
(0.0212294 0 -4.74775e-05)
(0.0207133 0 -5.0161e-05)
(0.0202169 0 -4.85368e-05)
(0.0197445 0 -4.30441e-05)
(0.0192957 0 -3.45223e-05)
(0.0247693 0 1.84044e-05)
(0.0243734 0 6.21898e-05)
(0.0240296 0 8.03529e-05)
(0.0235663 0 8.18648e-05)
(0.0230431 0 7.10906e-05)
(0.0224927 0 5.57615e-05)
(0.0219363 0 4.09536e-05)
(0.0213877 0 2.92978e-05)
(0.0208556 0 2.1795e-05)
(0.0203437 0 1.84583e-05)
(0.0198524 0 1.87433e-05)
(0.0259898 0 1.89223e-05)
(0.025019 0 0.000254865)
(0.0246082 0 0.000224946)
(0.0241198 0 0.000199788)
(0.0235908 0 0.000173484)
(0.0230394 0 0.000147439)
(0.0224799 0 0.000123761)
(0.0219232 0 0.000103911)
(0.0213766 0 8.85408e-05)
(0.0208441 0 7.76443e-05)
(0.0203268 0 7.07818e-05)
(0 0 0)
(0.00137948 0 0)
(0.00226894 0 0)
(0.00342785 0 0)
(0.00468473 0 0)
(0.00594403 0 0)
(0.00715178 0 0)
(0.00827738 0 0)
(0.00930381 0 0)
(0.010222 0 0)
(0.0110277 0 0)
(0.000789552 0 -0.000669543)
(0.00185494 0 -0.000510297)
(0.00268025 0 -0.000443253)
(0.0037723 0 -0.000368454)
(0.00497013 0 -0.000299807)
(0.0061797 0 -0.000241058)
(0.00734627 0 -0.00019237)
(0.008438 0 -0.000152683)
(0.00943658 0 -0.000120621)
(0.0103319 0 -9.48409e-05)
(0.0111187 0 -7.41652e-05)
(0.00238417 0 -0.00110708)
(0.00315405 0 -0.000913448)
(0.00382864 0 -0.000805572)
(0.00474996 0 -0.000679139)
(0.00578927 0 -0.000558823)
(0.00686136 0 -0.000453256)
(0.00791203 0 -0.000364209)
(0.0089072 0 -0.000290671)
(0.00982574 0 -0.000230657)
(0.0106548 0 -0.000182012)
(0.0113867 0 -0.00014274)
(0.00454479 0 -0.00134692)
(0.00502633 0 -0.00116495)
(0.00552328 0 -0.00104494)
(0.00622399 0 -0.000896503)
(0.00704522 0 -0.000748945)
(0.00792011 0 -0.000615159)
(0.00879963 0 -0.000499462)
(0.00964921 0 -0.000402034)
(0.0104451 0 -0.000321272)
(0.0111713 0 -0.000254966)
(0.0118172 0 -0.000200866)
(0.00700342 0 -0.00142302)
(0.00723844 0 -0.00127104)
(0.00755974 0 -0.00115749)
(0.00803072 0 -0.00101082)
(0.00861295 0 -0.000858809)
(0.00926241 0 -0.000716045)
(0.00993956 0 -0.000588929)
(0.0106123 0 -0.000479261)
(0.011256 0 -0.000386495)
(0.0118523 0 -0.000309034)
(0.0123881 0 -0.000244925)
(0.00955288 0 -0.00137415)
(0.00959041 0 -0.0012559)
(0.00975497 0 -0.00115921)
(0.0100139 0 -0.00103005)
(0.0103656 0 -0.000890836)
(0.0107883 0 -0.000755195)
(0.0112543 0 -0.000630401)
(0.0117368 0 -0.000519628)
(0.0122125 0 -0.000423611)
(0.0126627 0 -0.000341749)
(0.0130724 0 -0.000272792)
(0.0120347 0 -0.00123265)
(0.0119264 0 -0.00114835)
(0.0119625 0 -0.00107406)
(0.0120426 0 -0.000971592)
(0.0121911 0 -0.000856382)
(0.0124051 0 -0.000739309)
(0.0126688 0 -0.000627383)
(0.0129626 0 -0.000524624)
(0.0132671 0 -0.000432927)
(0.0135646 0 -0.000352787)
(0.0138403 0 -0.00028385)
(0.0143389 0 -0.00102565)
(0.0141359 0 -0.000977623)
(0.0140763 0 -0.000928416)
(0.014018 0 -0.000856959)
(0.0140007 0 -0.000771508)
(0.0140349 0 -0.000679577)
(0.0141166 0 -0.000587231)
(0.0142343 0 -0.000498829)
(0.0143738 0 -0.000417133)
(0.0145209 0 -0.000343614)
(0.0146615 0 -0.000278802)
(0.0164 0 -0.000785405)
(0.0161517 0 -0.000773068)
(0.0160302 0 -0.000748967)
(0.0158748 0 -0.000708602)
(0.0157307 0 -0.000653863)
(0.0156184 0 -0.000589114)
(0.0155437 0 -0.000519261)
(0.015504 0 -0.000448624)
(0.0154918 0 -0.000380467)
(0.0154967 0 -0.000316961)
(0.0155073 0 -0.000259358)
(0.0181948 0 -0.000543358)
(0.0179477 0 -0.000562978)
(0.0177946 0 -0.000560834)
(0.0175778 0 -0.000547583)
(0.0173416 0 -0.000520274)
(0.0171135 0 -0.00048084)
(0.0169087 0 -0.000433087)
(0.016733 0 -0.000380982)
(0.0165857 0 -0.000327879)
(0.0164612 0 -0.00027628)
(0.0163512 0 -0.000227882)
(0.0197436 0 -0.000329926)
(0.0195337 0 -0.000371622)
(0.01937 0 -0.000384999)
(0.0191158 0 -0.000391227)
(0.0188121 0 -0.000384678)
(0.0184926 0 -0.000365778)
(0.0181807 0 -0.000337289)
(0.0178903 0 -0.000302476)
(0.0176264 0 -0.000264321)
(0.0173882 0 -0.000225238)
(0.01717 0 -0.000187044)
(0.0211043 0 -0.000165174)
(0.020945 0 -0.000215503)
(0.0207761 0 -0.000235278)
(0.0204914 0 -0.000250813)
(0.0201316 0 -0.000256432)
(0.0197367 0 -0.000251816)
(0.0193369 0 -0.000238509)
(0.0189516 0 -0.000218608)
(0.0185904 0 -0.000194241)
(0.0182555 0 -0.000167342)
(0.0179439 0 -0.00013955)
(0.022354 0 -5.79889e-05)
(0.0222236 0 -0.000100001)
(0.0220336 0 -0.00011555)
(0.0217067 0 -0.000129736)
(0.0212903 0 -0.00013929)
(0.0208299 0 -0.000143164)
(0.0203585 0 -0.000141106)
(0.0198976 0 -0.000133525)
(0.0194586 0 -0.000121334)
(0.0190454 0 -0.000105722)
(0.0186567 0 -8.7947e-05)
(0.023563 0 -2.62707e-06)
(0.0233864 0 -1.64932e-05)
(0.0231382 0 -1.75865e-05)
(0.0227464 0 -2.2823e-05)
(0.0222704 0 -3.16434e-05)
(0.0217548 0 -4.08065e-05)
(0.0212294 0 -4.74775e-05)
(0.0207133 0 -5.0161e-05)
(0.0202169 0 -4.85368e-05)
(0.0197445 0 -4.30441e-05)
(0.0192957 0 -3.45223e-05)
(0.0247693 0 1.84044e-05)
(0.0243734 0 6.21898e-05)
(0.0240296 0 8.03529e-05)
(0.0235663 0 8.18648e-05)
(0.0230431 0 7.10906e-05)
(0.0224927 0 5.57615e-05)
(0.0219363 0 4.09536e-05)
(0.0213877 0 2.92978e-05)
(0.0208556 0 2.1795e-05)
(0.0203437 0 1.84583e-05)
(0.0198524 0 1.87433e-05)
(0.0259898 0 1.89223e-05)
(0.025019 0 0.000254865)
(0.0246082 0 0.000224946)
(0.0241198 0 0.000199788)
(0.0235908 0 0.000173484)
(0.0230394 0 0.000147439)
(0.0224799 0 0.000123761)
(0.0219232 0 0.000103911)
(0.0213766 0 8.85408e-05)
(0.0208441 0 7.76443e-05)
(0.0203268 0 7.07818e-05)
(0.0210287 0 0.0014036)
(0.0215966 0 0.001442)
(0.0221732 0 0.00147232)
(0.0227522 0 0.00149368)
(0.0233242 0 0.00150515)
(0.0238766 0 0.00150537)
(0.0243939 0 0.00149118)
(0.0248583 0 0.00145465)
(0.025251 0 0.00137776)
(0.0255543 0 0.00122969)
(0.0213822 0 0.001373)
(0.021939 0 0.00140324)
(0.0224944 0 0.00142484)
(0.0230415 0 0.0014367)
(0.0235707 0 0.00143743)
(0.0240691 0 0.00142495)
(0.0245213 0 0.00139581)
(0.0249103 0 0.0013439)
(0.0252207 0 0.00125775)
(0.0254207 0 0.00112976)
(0.021651 0 0.00133905)
(0.022188 0 0.00136198)
(0.0227142 0 0.00137597)
(0.0232221 0 0.00137988)
(0.0237026 0 0.00137238)
(0.0241435 0 0.00135163)
(0.0245315 0 0.00131495)
(0.0248542 0 0.00125809)
(0.0251002 0 0.00117346)
(0.0252418 0 0.00106641)
(0.0218445 0 0.00130284)
(0.0223563 0 0.00131945)
(0.0228488 0 0.0013272)
(0.0233149 0 0.00132506)
(0.0237464 0 0.00131194)
(0.0241336 0 0.00128647)
(0.0244668 0 0.00124669)
(0.0247369 0 0.00118988)
(0.0249351 0 0.00111215)
(0.0250426 0 0.0010241)
(0.0224542 0 0.00127678)
(0.0229113 0 0.00127965)
(0.0233366 0 0.00127319)
(0.0237233 0 0.00125655)
(0.0240643 0 0.00122876)
(0.0243523 0 0.00118863)
(0.024581 0 0.00113474)
(0.0247445 0 0.0010658)
(0.0248306 0 0.000993116)
(0.0233019 0 0.00122447)
(0.0236493 0 0.00120586)
(0.0239511 0 0.00117747)
(0.0242023 0 0.00113872)
(0.0243986 0 0.00108918)
(0.0245365 0 0.00102891)
(0.0246082 0 0.000968224)
(0.0238043 0 0.00113153)
(0.0240254 0 0.00109517)
(0.0241962 0 0.00105042)
(0.024315 0 0.000997926)
(0.0243763 0 0.000946617)
(0.0239777 0 0.00101637)
(0.0240816 0 0.000970598)
(0.0241351 0 0.000926715)
(0.0210287 0 0.0014036)
(0.0215966 0 0.001442)
(0.0221732 0 0.00147232)
(0.0227522 0 0.00149368)
(0.0233242 0 0.00150515)
(0.0238766 0 0.00150537)
(0.0243939 0 0.00149118)
(0.0248583 0 0.00145465)
(0.025251 0 0.00137776)
(0.0255543 0 0.00122969)
(0.0213822 0 0.001373)
(0.021939 0 0.00140324)
(0.0224944 0 0.00142484)
(0.0230415 0 0.0014367)
(0.0235707 0 0.00143743)
(0.0240691 0 0.00142495)
(0.0245213 0 0.00139581)
(0.0249103 0 0.0013439)
(0.0252207 0 0.00125775)
(0.0254207 0 0.00112976)
(0.021651 0 0.00133905)
(0.022188 0 0.00136198)
(0.0227142 0 0.00137597)
(0.0232221 0 0.00137988)
(0.0237026 0 0.00137238)
(0.0241435 0 0.00135163)
(0.0245315 0 0.00131495)
(0.0248542 0 0.00125809)
(0.0251002 0 0.00117346)
(0.0252418 0 0.00106641)
(0.0218445 0 0.00130284)
(0.0223563 0 0.00131945)
(0.0228488 0 0.0013272)
(0.0233149 0 0.00132506)
(0.0237464 0 0.00131194)
(0.0241336 0 0.00128647)
(0.0244668 0 0.00124669)
(0.0247369 0 0.00118988)
(0.0249351 0 0.00111215)
(0.0250426 0 0.0010241)
(0.0224542 0 0.00127678)
(0.0229113 0 0.00127965)
(0.0233366 0 0.00127319)
(0.0237233 0 0.00125655)
(0.0240643 0 0.00122876)
(0.0243523 0 0.00118863)
(0.024581 0 0.00113474)
(0.0247445 0 0.0010658)
(0.0248306 0 0.000993116)
(0.0233019 0 0.00122447)
(0.0236493 0 0.00120586)
(0.0239511 0 0.00117747)
(0.0242023 0 0.00113872)
(0.0243986 0 0.00108918)
(0.0245365 0 0.00102891)
(0.0246082 0 0.000968224)
(0.0238043 0 0.00113153)
(0.0240254 0 0.00109517)
(0.0241962 0 0.00105042)
(0.024315 0 0.000997926)
(0.0243763 0 0.000946617)
(0.0239777 0 0.00101637)
(0.0240816 0 0.000970598)
(0.0241351 0 0.000926715)
(0.0260107 0 0.0012291)
(0.0260028 0 0.000644578)
(0.0256967 0 0.0010357)
(0.0256935 0 0.000835694)
(0.025547 0 0.00063567)
(0.025499 0 0.000995199)
(0.0254979 0 0.000871419)
(0.0254182 0 0.000732078)
(0.025289 0 0.000969416)
(0.025289 0 0.00088592)
(0.0252423 0 0.000785626)
(0.0250758 0 0.000951101)
(0.0250764 0 0.000889924)
(0.025045 0 0.000814485)
(0.0248566 0 0.000935871)
(0.0248575 0 0.000888468)
(0.0248341 0 0.000829274)
(0.0246298 0 0.000921834)
(0.024631 0 0.000883647)
(0.0246125 0 0.000835615)
(0.0243949 0 0.000908077)
(0.0243962 0 0.00087645)
(0.0243809 0 0.000836477)
(0.0241514 0 0.0008941)
(0.0241528 0 0.000867375)
(0.0241399 0 0.000833478)
(0.0238993 0 0.000879585)
(0.0239006 0 0.000856665)
(0.0238894 0 0.000827515)
(0.0260107 0 0.0012291)
(0.0260028 0 0.000644578)
(0.0256967 0 0.0010357)
(0.0256935 0 0.000835694)
(0.025547 0 0.00063567)
(0.025499 0 0.000995199)
(0.0254979 0 0.000871419)
(0.0254182 0 0.000732078)
(0.025289 0 0.000969416)
(0.025289 0 0.00088592)
(0.0252423 0 0.000785626)
(0.0250758 0 0.000951101)
(0.0250764 0 0.000889924)
(0.025045 0 0.000814485)
(0.0248566 0 0.000935871)
(0.0248575 0 0.000888468)
(0.0248341 0 0.000829274)
(0.0246298 0 0.000921834)
(0.024631 0 0.000883647)
(0.0246125 0 0.000835615)
(0.0243949 0 0.000908077)
(0.0243962 0 0.00087645)
(0.0243809 0 0.000836477)
(0.0241514 0 0.0008941)
(0.0241528 0 0.000867375)
(0.0241399 0 0.000833478)
(0.0238993 0 0.000879585)
(0.0239006 0 0.000856665)
(0.0238894 0 0.000827515)
(0.0252475 0 0.000476224)
(0.0248677 0 0.000381409)
(0.0244239 0 0.000319049)
(0.0239341 0 0.000272147)
(0.0234139 0 0.00023361)
(0.0228768 0 0.000201049)
(0.0223331 0 0.000173833)
(0.0217907 0 0.000151733)
(0.021254 0 0.000134418)
(0.0252212 0 0.000593778)
(0.0249207 0 0.000491605)
(0.0245484 0 0.000417269)
(0.0241185 0 0.000359185)
(0.0236472 0 0.000311707)
(0.0231477 0 0.000271995)
(0.0226311 0 0.000238647)
(0.0221062 0 0.00021093)
(0.0215781 0 0.000188262)
(0.0251041 0 0.00067004)
(0.0248664 0 0.000571073)
(0.0245572 0 0.000494412)
(0.0241876 0 0.000432083)
(0.0237696 0 0.000379906)
(0.0233146 0 0.000335591)
(0.022833 0 0.000297764)
(0.0223336 0 0.000265634)
(0.0218225 0 0.000238614)
(0.0249416 0 0.000719343)
(0.0247509 0 0.000628931)
(0.0244923 0 0.000554371)
(0.0241745 0 0.000491575)
(0.0238062 0 0.000437748)
(0.0233963 0 0.000391139)
(0.0229531 0 0.000350611)
(0.0224842 0 0.000315457)
(0.0219956 0 0.000285141)
(0.0247526 0 0.000750543)
(0.0245964 0 0.000670367)
(0.0243778 0 0.000600512)
(0.0241029 0 0.00053955)
(0.0237779 0 0.000485999)
(0.0234093 0 0.000438721)
(0.0230037 0 0.000396906)
(0.0225671 0 0.000359988)
(0.0221045 0 0.000327477)
(0.0245458 0 0.000769651)
(0.0244149 0 0.000699347)
(0.0242277 0 0.000635362)
(0.0239879 0 0.000577657)
(0.0236997 0 0.000525713)
(0.0233677 0 0.000478955)
(0.0229967 0 0.000436895)
(0.0225913 0 0.000399148)
(0.0221557 0 0.000365363)
(0.0243248 0 0.000780469)
(0.0242129 0 0.000718928)
(0.0240505 0 0.000661029)
(0.0238393 0 0.000607314)
(0.023582 0 0.000557839)
(0.0232817 0 0.000512451)
(0.0229417 0 0.000470942)
(0.0225654 0 0.000433105)
(0.0221558 0 0.000398724)
(0.0240915 0 0.000785347)
(0.0239942 0 0.000731335)
(0.0238514 0 0.000679237)
(0.0236636 0 0.000629759)
(0.0234322 0 0.000583238)
(0.0231592 0 0.000539794)
(0.0228465 0 0.000499425)
(0.0224965 0 0.000462079)
(0.0221112 0 0.000427643)
(0.0238469 0 0.000785733)
(0.023761 0 0.000738129)
(0.0236337 0 0.000691338)
(0.0234651 0 0.000646041)
(0.0232554 0 0.000602684)
(0.0230056 0 0.000561529)
(0.0227169 0 0.000522714)
(0.0223905 0 0.000486299)
(0.0220277 0 0.000452263)
(0.0235918 0 0.000782506)
(0.0235147 0 0.000740363)
(0.0234 0 0.000698335)
(0.023247 0 0.000657013)
(0.0230554 0 0.000616845)
(0.0228255 0 0.000578153)
(0.0225576 0 0.000541156)
(0.0222521 0 0.000505993)
(0.0219097 0 0.000472705)
(0.0230118 0 0.000663306)
(0.0228354 0 0.000626251)
(0.0226222 0 0.000590091)
(0.0223722 0 0.000555072)
(0.0220853 0 0.000521376)
(0.0217613 0 0.000489094)
(0.0223989 0 0.000597646)
(0.0221643 0 0.000564696)
(0.0218934 0 0.000532629)
(0.0215859 0 0.000501545)
(0.0216798 0 0.000539845)
(0.0213868 0 0.000510114)
(0.0252475 0 0.000476224)
(0.0248677 0 0.000381409)
(0.0244239 0 0.000319049)
(0.0239341 0 0.000272147)
(0.0234139 0 0.00023361)
(0.0228768 0 0.000201049)
(0.0223331 0 0.000173833)
(0.0217907 0 0.000151733)
(0.021254 0 0.000134418)
(0.0252212 0 0.000593778)
(0.0249207 0 0.000491605)
(0.0245484 0 0.000417269)
(0.0241185 0 0.000359185)
(0.0236472 0 0.000311707)
(0.0231477 0 0.000271995)
(0.0226311 0 0.000238647)
(0.0221062 0 0.00021093)
(0.0215781 0 0.000188262)
(0.0251041 0 0.00067004)
(0.0248664 0 0.000571073)
(0.0245572 0 0.000494412)
(0.0241876 0 0.000432083)
(0.0237696 0 0.000379906)
(0.0233146 0 0.000335591)
(0.022833 0 0.000297764)
(0.0223336 0 0.000265634)
(0.0218225 0 0.000238614)
(0.0249416 0 0.000719343)
(0.0247509 0 0.000628931)
(0.0244923 0 0.000554371)
(0.0241745 0 0.000491575)
(0.0238062 0 0.000437748)
(0.0233963 0 0.000391139)
(0.0229531 0 0.000350611)
(0.0224842 0 0.000315457)
(0.0219956 0 0.000285141)
(0.0247526 0 0.000750543)
(0.0245964 0 0.000670367)
(0.0243778 0 0.000600512)
(0.0241029 0 0.00053955)
(0.0237779 0 0.000485999)
(0.0234093 0 0.000438721)
(0.0230037 0 0.000396906)
(0.0225671 0 0.000359988)
(0.0221045 0 0.000327477)
(0.0245458 0 0.000769651)
(0.0244149 0 0.000699347)
(0.0242277 0 0.000635362)
(0.0239879 0 0.000577657)
(0.0236997 0 0.000525713)
(0.0233677 0 0.000478955)
(0.0229967 0 0.000436895)
(0.0225913 0 0.000399148)
(0.0221557 0 0.000365363)
(0.0243248 0 0.000780469)
(0.0242129 0 0.000718928)
(0.0240505 0 0.000661029)
(0.0238393 0 0.000607314)
(0.023582 0 0.000557839)
(0.0232817 0 0.000512451)
(0.0229417 0 0.000470942)
(0.0225654 0 0.000433105)
(0.0221558 0 0.000398724)
(0.0240915 0 0.000785347)
(0.0239942 0 0.000731335)
(0.0238514 0 0.000679237)
(0.0236636 0 0.000629759)
(0.0234322 0 0.000583238)
(0.0231592 0 0.000539794)
(0.0228465 0 0.000499425)
(0.0224965 0 0.000462079)
(0.0221112 0 0.000427643)
(0.0238469 0 0.000785733)
(0.023761 0 0.000738129)
(0.0236337 0 0.000691338)
(0.0234651 0 0.000646041)
(0.0232554 0 0.000602684)
(0.0230056 0 0.000561529)
(0.0227169 0 0.000522714)
(0.0223905 0 0.000486299)
(0.0220277 0 0.000452263)
(0.0235918 0 0.000782506)
(0.0235147 0 0.000740363)
(0.0234 0 0.000698335)
(0.023247 0 0.000657013)
(0.0230554 0 0.000616845)
(0.0228255 0 0.000578153)
(0.0225576 0 0.000541156)
(0.0222521 0 0.000505993)
(0.0219097 0 0.000472705)
(0.0230118 0 0.000663306)
(0.0228354 0 0.000626251)
(0.0226222 0 0.000590091)
(0.0223722 0 0.000555072)
(0.0220853 0 0.000521376)
(0.0217613 0 0.000489094)
(0.0223989 0 0.000597646)
(0.0221643 0 0.000564696)
(0.0218934 0 0.000532629)
(0.0215859 0 0.000501545)
(0.0216798 0 0.000539845)
(0.0213868 0 0.000510114)
)
;

boundaryField
{
    inlet
    {
        type            fixedValue;
        value           nonuniform 0();
    }
    outlet
    {
        type            fixedValue;
        value           nonuniform 0();
    }
    flap
    {
        type            fixedValue;
        value           nonuniform List<vector> 
68
(
(0 0 0)
(0.000922264 0 0.000907666)
(0.000922264 0 0.000907666)
(0 0 0)
(0.00252487 0 0.00156507)
(0.00252487 0 0.00156507)
(0.00469969 0 0.00199413)
(0.00469969 0 0.00199413)
(0.00716603 0 0.00222638)
(0.00716603 0 0.00222638)
(0.00971145 0 0.00231203)
(0.00971145 0 0.00231203)
(0.0121803 0 0.00229386)
(0.0121803 0 0.00229386)
(0.0144713 0 0.0022066)
(0.0144713 0 0.0022066)
(0.0165163 0 0.00208674)
(0.0165163 0 0.00208674)
(0.0182946 0 0.00196566)
(0.0182946 0 0.00196566)
(0.0198324 0 0.0018704)
(0.0198324 0 0.0018704)
(0.0211819 0 0.00181537)
(0.0211819 0 0.00181537)
(0.0224198 0 0.00180225)
(0.0224198 0 0.00180225)
(0.0236201 0 0.00181814)
(0.0236201 0 0.00181814)
(0.0248146 0 0.00184035)
(0.0248146 0 0.00184035)
(0.0260205 0 0.00184823)
(0.0260205 0 0.00184823)
(0.0260107 0 0.0012291)
(0.0260107 0 0.0012291)
(0.0260028 0 0.000644578)
(0.0260028 0 0.000644578)
(0.0259898 0 1.89223e-05)
(0.0259898 0 1.89223e-05)
(0 0 0)
(0 0 0)
(0.000789552 0 -0.000669543)
(0.000789552 0 -0.000669543)
(0.00238417 0 -0.00110708)
(0.00238417 0 -0.00110708)
(0.00454479 0 -0.00134692)
(0.00454479 0 -0.00134692)
(0.00700342 0 -0.00142302)
(0.00700342 0 -0.00142302)
(0.00955288 0 -0.00137415)
(0.00955288 0 -0.00137415)
(0.0120347 0 -0.00123265)
(0.0120347 0 -0.00123265)
(0.0143389 0 -0.00102565)
(0.0143389 0 -0.00102565)
(0.0164 0 -0.000785405)
(0.0164 0 -0.000785405)
(0.0181948 0 -0.000543358)
(0.0181948 0 -0.000543358)
(0.0197436 0 -0.000329926)
(0.0197436 0 -0.000329926)
(0.0211043 0 -0.000165174)
(0.0211043 0 -0.000165174)
(0.022354 0 -5.79889e-05)
(0.022354 0 -5.79889e-05)
(0.023563 0 -2.62707e-06)
(0.023563 0 -2.62706e-06)
(0.0247693 0 1.84044e-05)
(0.0247693 0 1.84044e-05)
)
;
    }
    upperWall
    {
        type            slip;
    }
    lowerWall
    {