/*--------------------------------*- C++ -*----------------------------------*\
| =========                 |                                                 |
| \\      /  F ield         | OpenFOAM: The Open Source CFD Toolbox           |
|  \\    /   O peration     | Version:  dev                                   |
|   \\  /    A nd           | Web:      www.OpenFOAM.org                      |
|    \\/     M anipulation  |                                                 |
\*---------------------------------------------------------------------------*/
FoamFile
{
    version     2.0;
    format      ascii;
    class       volVectorField;
    location    "4";
    object      U;
}
// * * * * * * * * * * * * * * * * * * * * * * * * * * * * * * * * * * * * * //

dimensions      [0 1 -1 0 0 0 0];

internalField   nonuniform List<vector> 
465
(
(3.36958 6.8238e-20 0.298038)
(2.7549 -3.52641e-20 0.320107)
(2.12781 1.23131e-20 0.339416)
(1.49911 0 0.354038)
(0.882758 -2.65294e-20 0.362986)
(0.284528 8.2355e-20 0.35905)
(-0.45479 -1.12624e-19 -0.122639)
(-0.321069 0 -0.348978)
(-0.0991563 -5.90932e-20 -0.400908)
(4.24208 -1.7839e-19 0.738261)
(3.63825 8.08066e-20 0.77918)
(3.01777 -1.20816e-20 0.808515)
(2.39275 5.01074e-20 0.820564)
(1.78306 -1.82253e-19 0.807549)
(1.20322 2.41519e-19 0.75275)
(0.697134 0 0.565134)
(0.285413 0 0.274158)
(0.0852117 -2.94771e-19 -0.368542)
(4.71758 1.98458e-19 1.21413)
(4.15543 -1.81715e-19 1.28591)
(3.57216 0 1.33851)
(2.97756 -4.93201e-20 1.36143)
(2.38684 3.58137e-19 1.33961)
(1.81382 -7.9219e-19 1.24622)
(1.27387 4.91454e-19 1.02614)
(0.750809 5.65703e-20 0.676044)
(0.398975 -1.17569e-19 0.0541506)
(5.01682 -2.16716e-20 1.64887)
(4.49281 0 1.75389)
(3.94364 -4.64907e-20 1.83536)
(3.37465 -4.8252e-20 1.87918)
(2.79361 5.02622e-20 1.86619)
(2.20727 3.6469e-19 1.76839)
(1.62089 -1.34824e-18 1.54646)
(1.01126 8.37955e-19 1.19137)
(0.536326 0 0.660099)
(5.23292 -4.23658e-20 2.05414)
(4.73655 3.55071e-19 2.19272)
(4.21104 -3.6457e-19 2.3065)
(3.65741 -3.34042e-19 2.37968)
(3.07737 3.93105e-19 2.39194)
(2.47174 5.1009e-20 2.31734)
(1.84148 5.30107e-20 2.12466)
(1.15476 0 1.80164)
(0.573733 5.77089e-20 1.30427)
(5.414 -6.68845e-19 2.44015)
(4.93602 3.88394e-19 2.6137)
(4.42479 -2.71597e-19 2.76416)
(3.8779 7.4633e-19 2.87542)
(3.2928 -3.85678e-19 2.92721)
(2.66613 -1.00438e-19 2.8952)
(1.99796 -3.35354e-22 2.75152)
(1.25161 0 2.48249)
(0.597468 -5.70179e-20 2.03646)
(5.58684 8.2106e-20 2.81288)
(5.12154 3.41601e-19 3.02362)
(4.61868 -3.5148e-19 3.21546)
(4.07319 -4.5401e-20 3.37278)
(3.4795 0 3.47574)
(2.83137 4.94507e-20 3.50051)
(2.12971 7.70748e-19 3.41936)
(1.33545 -1.72291e-18 3.21478)
(0.623269 8.77674e-19 2.82277)
(5.76724 -5.20643e-22 3.17531)
(5.31255 -8.32569e-20 3.42589)
(4.81586 -4.33816e-20 3.66379)
(4.26986 4.49268e-20 3.87442)
(3.6665 2.29496e-20 4.03848)
(2.99693 -2.3829e-20 4.13183)
(2.26272 8.02864e-19 4.12446)
(1.42297 2.45172e-20 3.99181)
(0.655432 1.94536e-20 3.65314)
(5.96508 2.76873e-19 3.52774)
(5.52216 4.39124e-20 3.82092)
(5.03295 2.90729e-21 4.10948)
(4.48792 -6.95467e-19 4.38036)
(3.87638 -2.55973e-20 4.61514)
(3.18618 2.06351e-20 4.78899)
(2.41789 3.87169e-19 4.86816)
(1.52772 -4.13093e-19 4.81842)
(0.6981 4.06414e-19 4.53759)
(6.18679 2.70746e-19 3.86819)
(5.75964 -3.3545e-19 4.20641)
(5.28254 2.0213e-20 4.54989)
(4.74357 -3.38533e-19 4.88786)
(4.12869 6.97084e-19 5.20358)
(3.42096 -3.48549e-19 5.47206)
(2.61677 0 5.65547)
(1.66636 0 5.70769)
(0.758608 -3.96157e-19 5.49859)
(6.43649 3.78052e-20 4.1928)
(6.03156 1.94497e-20 4.57757)
(5.57447 -2.00142e-20 4.97933)
(5.05078 -3.26588e-19 5.39072)
(4.44228 3.24329e-19 5.7983)
(3.72493 -3.58044e-19 6.17895)
(2.88614 -1.79853e-21 6.49232)
(1.86329 3.73522e-19 6.67923)
(0.85003 0 6.57149)
(6.71633 1.45349e-19 4.49614)
(6.34212 0 4.92732)
(5.91615 -3.06101e-19 5.38884)
(5.42178 -5.28258e-22 5.87824)
(4.83625 3.40518e-19 6.38809)
(4.12625 -3.29198e-19 6.90146)
(3.26337 -4.25227e-22 7.38127)
(2.15846 7.00767e-19 7.7588)
(0.997273 -3.65887e-19 7.81423)
(7.02634 -1.4147e-19 4.77167)
(6.69282 1.44231e-19 5.24662)
(6.31184 -1.46886e-19 5.76606)
(5.86599 1.4984e-19 6.33406)
(5.32924 2.84335e-19 6.95279)
(4.65883 -2.0987e-21 7.61876)
(3.80368 -6.29721e-19 8.31195)
(2.62371 6.41051e-19 8.97457)
(1.25284 -3.44995e-19 9.33492)
(7.36417 1.19926e-19 5.01235)
(7.0817 -1.39354e-19 5.52516)
(6.76114 8.66007e-21 6.09577)
(6.38723 -1.415e-19 6.73576)
(5.93528 1.62018e-19 7.45992)
(5.35936 1.33107e-19 8.28703)
(4.58847 -1.4477e-19 9.23799)
(3.40127 -2.77951e-19 10.3307)
(1.74308 3.0177e-19 11.3767)
(7.72473 1.32612e-19 5.21111)
(7.50247 -1.34472e-19 5.75221)
(7.25679 1.25256e-19 6.3612)
(6.97876 -1.36052e-19 7.05609)
(6.65371 1.19016e-19 7.86388)
(6.25142 2.8228e-21 8.8284)
(5.72168 -1.30957e-19 10.0297)
(4.80896 0 11.6681)
(2.82511 -7.22809e-20 14.52)
(0.143849 -2.51484e-21 -0.158104)
(0.362951 0 -0.14614)
(0.575884 0 -0.117493)
(0.759212 0 -0.0885313)
(0.9028 0 -0.0630483)
(1.00774 0 -0.0413464)
(1.07843 0 -0.0231326)
(1.11919 -5.84632e-22 -0.00821902)
(1.13399 7.66232e-22 0.00332722)
(1.12799 0 0.0112007)
(0.0982011 -2.4721e-21 -0.35136)
(0.322015 -5.83989e-22 -0.336778)
(0.521619 0 -0.279209)
(0.696895 4.08312e-21 -0.21919)
(0.841272 -3.98064e-21 -0.165649)
(0.956114 3.09691e-21 -0.119119)
(1.04501 -3.4644e-21 -0.0788837)
(1.11119 1.9595e-22 -0.0445448)
(1.15731 0 -0.016113)
(1.18524 -1.21391e-21 0.00606842)
(0.056744 -1.1872e-21 -0.544828)
(0.256547 5.83032e-22 -0.524501)
(0.416134 -7.48969e-21 -0.439625)
(0.558125 8.34865e-21 -0.352132)
(0.677081 6.5531e-21 -0.274257)
(0.774761 -5.98488e-21 -0.206236)
(0.853699 4.12791e-21 -0.146961)
(0.915952 -6.32092e-21 -0.0958275)
(0.963237 3.02972e-21 -0.0526912)
(0.997421 -1.56339e-21 -0.0177718)
(0.0230018 1.98234e-20 -0.703493)
(0.186183 -1.81709e-20 -0.66757)
(0.296602 -1.96619e-23 -0.557062)
(0.397669 -1.0003e-21 -0.449116)
(0.482327 7.42751e-21 -0.354703)
(0.55387 -1.50976e-20 -0.272503)
(0.613994 1.33449e-20 -0.200824)
(0.663648 -4.09841e-21 -0.138747)
(0.703977 -3.01903e-21 -0.0855859)
(0.735153 3.51472e-22 -0.0418669)
(-0.00699276 0 -0.821534)
(0.110488 -5.5298e-22 -0.761684)
(0.166503 -1.0629e-21 -0.629093)
(0.222608 6.65284e-24 -0.508177)
(0.266615 3.76248e-24 -0.404272)
(0.304726 0 -0.314164)
(0.338093 -1.67157e-21 -0.235772)
(0.36624 1.18348e-21 -0.168435)
(0.391013 3.73652e-22 -0.111729)
(0.411548 2.78841e-21 -0.0631057)
(-0.0345384 3.6683e-20 -0.892136)
(0.0310423 1.96715e-22 -0.802278)
(0.0311816 -1.65535e-20 -0.65241)
(0.0405261 1.00095e-21 -0.524086)
(0.040238 9.33542e-21 -0.415129)
(0.0392985 -7.27121e-21 -0.32072)
(0.0387058 8.40554e-22 -0.237587)
(0.0352824 -7.94003e-22 -0.163995)
(0.0256049 -7.55936e-22 -0.100688)
(0.0193893 -3.56582e-22 -0.0483164)
(-0.061136 0 -0.908347)
(-0.0505217 0 -0.785504)
(-0.103198 -5.31084e-22 -0.625698)
(-0.140995 0 -0.495209)
(-0.183699 6.59175e-21 -0.386705)
(-0.223686 -1.49515e-20 -0.294684)
(-0.259556 6.95937e-21 -0.215923)
(-0.289464 6.77097e-21 -0.148605)
(-0.312706 -5.4519e-21 -0.0914599)
(-0.32975 3.65931e-22 -0.0433675)
(-0.0896467 1.88374e-20 -0.864765)
(-0.131397 -1.86055e-20 -0.717743)
(-0.231928 -1.72349e-20 -0.558536)
(-0.31228 2.44774e-20 -0.433705)
(-0.388935 -7.97223e-21 -0.332716)
(-0.455999 -7.28653e-21 -0.249709)
(-0.512101 1.3973e-20 -0.180343)
(-0.556774 -6.69841e-21 -0.121736)
(-0.59075 -3.85648e-22 -0.0721155)
(-0.614897 -3.2705e-21 -0.0305975)
(-0.122161 -9.72313e-21 -0.764273)
(-0.210033 3.6237e-22 -0.604526)
(-0.354158 9.06595e-21 -0.453801)
(-0.470704 -7.5954e-21 -0.341345)
(-0.574214 1.63643e-20 -0.254888)
(-0.661211 -1.49597e-20 -0.186695)
(-0.731833 7.28391e-21 -0.13123)
(-0.787346 -4.16759e-22 -0.0849607)
(-0.829311 6.26745e-21 -0.0459519)
(-0.859893 -6.12178e-21 -0.0131744)
(-0.160806 1.06461e-20 -0.610126)
(-0.294478 -7.79439e-23 -0.447441)
(-0.478551 7.16518e-23 -0.314531)
(-0.627198 -2.70727e-22 -0.22411)
(-0.753232 7.87359e-21 -0.159466)
(-0.856212 -3.94541e-23 -0.110913)
(-0.938156 -7.47044e-21 -0.0726416)
(-1.00165 0 -0.0411396)
(-1.04985 -2.0607e-22 -0.0143512)
(-1.08499 3.0195e-21 0.0086206)
(-0.209407 1.02433e-20 -0.399529)
(-0.396625 -2.5191e-22 -0.249605)
(-0.624251 -9.89464e-21 -0.142283)
(-0.804495 0 -0.0811895)
(-0.948378 0 -0.0463407)
(-1.06023 0 -0.0243468)
(-1.14651 0 -0.00766595)
(-1.21269 2.23455e-22 0.00690773)
(-1.26307 2.05764e-22 0.0207172)
(-1.30211 0 0.0343745)
(-0.283898 -1.88563e-22 -0.083111)
(-0.541822 -1.05553e-20 0.0495639)
(-0.805906 1.50615e-22 0.0840079)
(-1.00285 -7.14784e-23 0.0830844)
(-1.15168 -8.4576e-21 0.0730386)
(-1.26493 8.23448e-21 0.0635702)
(-1.35224 -7.52436e-21 0.058095)
(-1.42045 3.45895e-21 0.0566737)
(-1.4743 1.21819e-22 0.0587999)
(-1.51768 3.15746e-21 0.0641535)
(-0.357617 -2.41338e-22 0.35575)
(-0.69115 -1.05673e-20 0.384126)
(-0.997691 3.70746e-23 0.315868)
(-1.20941 9.0693e-21 0.246337)
(-1.36202 -8.71406e-21 0.19142)
(-1.47439 4.12236e-21 0.150758)
(-1.56017 -3.94506e-21 0.12426)
(-1.62803 1.13612e-22 0.1082)
(-1.68251 -3.43048e-21 0.099266)
(-1.72735 2.24247e-22 0.0967654)
(-0.473595 0 0.908608)
(-0.906382 4.81144e-21 0.794214)
(-1.25478 -4.72495e-21 0.573943)
(-1.45685 0 0.405331)
(-1.59188 -6.7239e-23 0.303685)
(-1.68914 -6.41498e-23 0.232267)
(-1.76345 3.81513e-21 0.186422)
(-1.82484 -3.84392e-21 0.15845)
(-1.87561 2.72782e-23 0.139275)
(-1.91783 1.63929e-24 0.129371)
(-0.738588 0 1.86657)
(-1.2722 4.08212e-21 1.34473)
(-1.63187 -4.00022e-21 0.802721)
(-1.75588 0 0.500339)
(-1.82873 2.62203e-22 0.398675)
(-1.89492 -1.28548e-22 0.302914)
(-1.94603 6.16932e-23 0.23494)
(-1.99453 3.78574e-21 0.201623)
(-2.03795 -3.63989e-21 0.174423)
(-2.07277 -1.63635e-24 0.157915)
(8.11392 1.68017e-20 5.36636)
(7.96038 1.25177e-19 5.92323)
(7.80241 -3.81643e-21 6.55218)
(7.64144 0 7.27367)
(7.48239 3.88816e-21 8.11926)
(7.33878 5.51487e-20 9.14103)
(7.29312 -5.47846e-20 10.4294)
(7.77006 1.94557e-20 12.1217)
(7.9748 5.65989e-20 14.8321)
(8.51724 6.60022e-20 5.47028)
(8.43489 0 6.02753)
(8.36728 1.92351e-21 6.65322)
(8.32544 1.0925e-22 7.36408)
(8.33095 -1.6848e-21 8.1829)
(8.42269 0 9.13912)
(8.65069 5.26009e-21 10.2657)
(9.29603 4.70988e-21 11.5092)
(9.7777 -3.08621e-20 12.6023)
(8.92307 -7.01485e-21 5.52104)
(8.9082 0 6.06373)
(8.92246 1.73461e-21 6.66461)
(8.98011 -1.06204e-22 7.33291)
(9.1029 1.3937e-20 8.07711)
(9.32198 -6.55976e-21 8.89906)
(9.64304 1.06551e-20 9.78761)
(10.2019 0 10.6939)
(10.8794 5.07349e-21 11.4176)
(9.32007 -2.63705e-20 5.5196)
(9.36438 0 6.03591)
(9.4458 0 6.59741)
(9.57734 6.05673e-21 7.20681)
(9.77549 -6.13246e-21 7.86373)
(10.063 4.95289e-21 8.56114)
(10.446 -2.11715e-20 9.28423)
(10.994 -7.49551e-21 10.0249)
(11.7742 1.64934e-20 10.6737)
(9.79268 1.20735e-20 5.95262)
(9.92662 -1.22516e-20 6.46773)
(10.1118 5.73553e-21 7.01445)
(10.361 2.42272e-21 7.58892)
(10.6914 -1.09727e-20 8.18317)
(11.113 -8.67558e-21 8.78258)
(11.6497 9.74116e-21 9.37726)
(12.39 7.38507e-21 9.89388)
(10.5834 7.9741e-21 6.77494)
(10.865 2.02974e-20 7.27304)
(11.2164 -2.08309e-20 7.77518)
(11.6449 -9.43362e-21 8.26609)
(12.1513 3.17035e-20 8.73039)
(12.8172 -2.44725e-20 9.12761)
(11.6469 -4.77596e-21 7.35167)
(12.0638 0 7.7529)
(12.536 4.1563e-21 8.12027)
(13.1343 -3.63596e-21 8.43395)
(12.8336 9.12901e-24 7.55471)
(13.3719 -2.8093e-20 7.80623)
(9.44829 3.21105e-20 12.9718)
(6.09171 -3.85709e-20 10.4832)
(-1.54048 2.83727e-21 4.44001)
(10.3163 2.99006e-20 11.1571)
(9.72369 -3.27899e-21 9.79801)
(8.15514 5.68982e-21 7.84229)
(11.3961 -2.12877e-20 11.1137)
(11.5894 -1.12252e-20 10.5407)
(11.3169 4.87615e-21 9.57545)
(12.2661 -1.01215e-20 10.7271)
(12.5944 -4.67796e-22 10.5507)
(12.6864 0 10.1118)
(12.8257 -5.61201e-21 10.0065)
(13.1831 4.34619e-21 9.99783)
(13.4167 0 9.85233)
(13.2053 -4.04666e-20 9.24837)
(13.5575 4.27753e-20 9.30829)
(13.8342 -3.42526e-20 9.29823)
(13.4808 4.76032e-20 8.54424)
(13.8065 -3.73273e-21 8.62089)
(14.0766 -3.80283e-20 8.65973)
(13.6802 4.92109e-20 7.89873)
(13.9731 2.80793e-21 7.96989)
(14.2199 -2.46526e-21 8.01902)
(14.0833 -4.51132e-20 7.36756)
(14.3047 4.35949e-20 7.41376)
(-2.5679 -6.02691e-21 1.21251)
(-2.05556 5.47819e-22 0.885836)
(-2.25771 5.23427e-22 0.507952)
(-2.09375 -2.05194e-21 0.520995)
(-2.02556 3.75954e-21 0.534305)
(-2.08392 -1.83765e-21 0.339614)
(-2.09859 0 0.231739)
(-2.12171 0 0.236207)
(-2.15739 1.1027e-22 0.211661)
(6.00852 -8.20108e-22 5.2098)
(3.49429 2.72323e-22 3.27322)
(1.04536 -7.89635e-22 1.65966)
(-1.725 -5.74713e-22 0.299174)
(-2.12345 0 0.191057)
(-2.29912 -1.96785e-21 0.0768934)
(-2.18175 -3.48233e-23 0.220989)
(-2.14601 2.14186e-21 0.360526)
(-2.2135 -1.07553e-22 0.270663)
(10.2033 -4.86678e-21 7.49052)
(8.41411 -1.48832e-21 5.68043)
(6.4177 -1.11511e-21 4.19177)
(4.40542 1.34079e-21 2.95061)
(2.63188 0 1.95386)
(1.01527 -1.23248e-21 1.04979)
(-1.54787 1.21248e-21 0.208725)
(-2.00459 -9.94952e-25 0.159747)
(-2.26552 0 0.0292082)
(12.3346 4.57857e-21 8.71309)
(11.4088 -1.67169e-21 7.24656)
(10.1245 4.02895e-21 5.90861)
(8.66462 -6.70654e-22 4.71041)
(7.1384 9.17691e-22 3.69144)
(5.65394 -5.52773e-22 2.85861)
(4.08844 2.60704e-22 2.14482)
(2.69169 4.25923e-23 1.52881)
(1.51993 9.91176e-22 0.98965)
(13.5177 -6.33292e-21 9.07964)
(13.1903 1.69499e-21 8.05516)
(12.5221 6.93245e-21 6.98778)
(11.6137 2.99702e-21 5.95977)
(10.5462 -1.2224e-21 5.02591)
(9.39846 -4.76428e-23 4.20751)
(8.19002 2.70345e-22 3.47052)
(6.96195 -2.29615e-22 2.81485)
(5.76725 9.38685e-22 2.27115)
(14.1619 1.95048e-20 8.93895)
(14.2115 3.77916e-21 8.30756)
(14.0032 2.41536e-21 7.54665)
(13.5587 -2.7448e-21 6.74294)
(12.9226 -6.13919e-21 5.95062)
(12.1491 1.30822e-21 5.20232)
(11.2788 -4.48125e-23 4.5051)
(10.3435 0 3.87079)
(9.37483 9.31568e-22 3.31669)
(14.4881 2.05724e-20 8.53175)
(14.7493 -1.70018e-20 8.18647)
(14.8479 -3.57135e-21 7.69287)
(14.7521 -4.65109e-21 7.11194)
(14.473 -2.50341e-22 6.49006)
(14.0438 5.11142e-21 5.86242)
(13.4978 -9.10619e-22 5.25086)
(12.8616 -1.08778e-21 4.67099)
(12.1591 1.14306e-22 4.13593)
(14.6391 -2.51644e-21 8.00368)
(14.9962 -4.24579e-21 7.83989)
(15.2728 3.47967e-21 7.54672)
(15.4119 1.69681e-21 7.15625)
(15.4 -4.95107e-21 6.70087)
(15.2517 4.60585e-21 6.20959)
(14.9865 0 5.70506)
(14.6229 5.91386e-22 5.20454)
(14.1785 -6.63943e-22 4.72181)
(14.6989 0 7.44448)
(15.081 -1.85592e-20 7.3819)
(15.4411 3.3975e-20 7.2216)
(15.7174 -1.71588e-20 6.97493)
(15.8838 -2.56491e-22 6.65995)
(15.9411 6.07383e-21 6.29606)
(15.8969 -5.78976e-21 5.90124)
(15.7604 9.91309e-22 5.49114)
(15.5422 6.37955e-22 5.07901)
(15.082 0 6.88712)
(15.4654 -2.38744e-21 6.80567)
(15.8061 0 6.65629)
(16.0753 -1.30858e-20 6.44682)
(16.2662 1.28432e-20 6.18803)
(16.3787 1.14202e-21 5.89172)
(16.4143 3.02701e-21 5.56968)
(16.3771 4.60616e-22 5.23286)
(16.0906 -1.92037e-22 6.13078)
(16.356 -1.5426e-21 5.9505)
(16.5666 0 5.73375)
(16.7195 0 5.48812)
(16.8139 -9.77955e-22 5.22152)
(16.5704 1.66984e-21 5.48036)
(16.7933 -1.2091e-20 5.29531)
(16.9733 1.0405e-20 5.08802)
(16.9561 0 4.87319)
)
;

boundaryField
{
    inlet
    {
        type            fixedValue;
        value           nonuniform 0();
    }
    outlet
    {
        type            zeroGradient;
    }
    flap
    {
        type            movingWallVelocity;
        value           nonuniform List<vector> 
33
(
(-9.33931e-17 0 -6.84292e-15)
(-3.30164e-16 -5.53858e-35 -1.38699e-14)
(0 -2.77556e-14 0)
(-1.02187e-15 0 -2.77179e-14)
(0 0 0)
(-2.05346e-15 0 -5.54351e-14)
(-1.89968e-15 -2.77556e-14 -5.5207e-14)
(-3.40857e-15 1.15695e-33 -1.10918e-13)
(0 2.77556e-14 0)
(2.56148e-15 5.55112e-14 1.10883e-13)
(0 0 0)
(1.19612e-18 0 6.44085e-17)
(-1.99676e-15 0 -1.10924e-13)
(0 0 0)
(-4.01343e-15 0 -2.21909e-13)
(0 0 0)
(-3.46838e-15 0 6.08346e-17)
(-4.41462e-35 2.77556e-14 -2.35108e-33)
(-8.30011e-17 7.10179e-36 -6.9379e-15)
(0 0 0)
(0 0 0)
(-1.02338e-15 0 -2.77178e-14)
(0 -2.77556e-14 0)
(2.03066e-15 -2.77556e-14 5.46624e-14)
(0 -2.77556e-14 0)
(-3.41676e-15 0 -1.10917e-13)
(-9.97953e-18 0 -3.72014e-16)
(4.68446e-33 -2.77556e-14 -1.08477e-34)
(-2.26531e-15 -2.77556e-14 -1.11259e-13)
(-4.85908e-18 -2.34639e-33 -2.59634e-16)
(0 0 0)
(0 0 0)
(0 0 0)
)
;
    }
    upperWall
    {
        type            noSlip;
    }
    lowerWall
    {
        type            noSlip;
    }
    frontAndBack
    {
        type            empty;
    }
    procBoundary4to1
    {
        type            processor;
        value           nonuniform List<vector> 
30
(
(9.69914 -2.50169e-20 5.47023)
(9.69914 -2.50169e-20 5.47023)
(10.1868 0 5.82343)
(10.3605 0 6.28985)
(10.3605 0 6.28985)
(10.9926 2.31273e-20 6.50174)
(11.2911 -1.56756e-20 6.93025)
(11.2911 -1.56756e-20 6.93025)
(11.9972 -7.2374e-23 6.92778)
(12.3953 4.36033e-21 7.25828)
(12.3953 4.36033e-21 7.25828)
(13.0617 -1.08122e-23 7.02761)
(13.5467 3.77008e-21 7.23089)
(13.8216 -3.04472e-21 7.30687)
(13.8216 -3.04472e-21 7.30687)
(14.1533 1.40357e-21 6.81472)
(14.3516 1.38138e-21 6.85505)
(14.7111 0 6.89994)
(14.7111 0 6.89994)
(15.0417 0 6.39588)
(15.4162 0 6.3572)
(15.7745 2.22981e-21 6.26801)
(15.7745 2.22981e-21 6.26801)
(16.0107 -3.94098e-22 5.76401)
(16.308 1.51263e-20 5.63805)
(16.308 1.51263e-20 5.63805)
(16.4706 3.42519e-21 5.17409)
(16.7279 -1.45103e-21 5.034)
(16.7279 -1.45103e-21 5.034)
(16.8378 1.23451e-20 4.61052)
)
;
    }
    procBoundary4to2
    {
        type            processor;
        value           nonuniform List<vector> 
11
(
(-2.22087 1.57382e-21 0.0572476)
(-0.164889 9.46028e-22 0.409557)
(4.56949 0 1.81528)
(8.39386 5.55998e-22 2.83136)
(11.4131 0 3.64752)
(13.6717 2.12098e-22 4.26478)
(15.2546 -7.02132e-22 4.6745)
(16.2735 6.86366e-21 4.8904)
(16.8515 0 4.94139)
(17.109 4.05235e-21 4.86385)
(17.1523 0 4.69525)
)
;
    }
    procBoundary4to3
    {
        type            processor;
        value           nonuniform List<vector> 
19
(
(3.96355 3.27833e-20 0.274766)
(4.82088 -7.5469e-20 0.690255)
(5.25219 -2.11256e-20 1.13106)
(5.51228 2.06728e-19 1.53076)
(5.69981 -3.07869e-22 1.90262)
(5.86092 -2.00846e-19 2.25565)
(6.01881 3.9417e-20 2.59484)
(6.18592 -7.77877e-20 2.92252)
(6.36934 -1.13384e-19 3.23877)
(6.57326 0 3.54187)
(6.80004 0 3.82875)
(7.05051 2.84131e-19 4.0953)
(7.324 0 4.3368)
(7.61819 1.34471e-19 4.54841)
(7.92907 0 4.72531)
(8.26261 1.83515e-19 4.86756)
(8.60811 5.78246e-20 4.96916)
(8.95764 -5.54129e-20 5.02835)
(9.30309 -1.94896e-20 5.04462)
)
;
    }
    procBoundary4to5
    {
        type            processor;
        value           nonuniform List<vector> 
18
(
(1.1071 -3.30339e-22 0.0156549)
(1.19526 -1.66827e-22 0.0208815)
(1.02109 -1.18857e-21 0.00801227)
(0.759542 2.71141e-21 -0.00898375)
(0.419973 2.72498e-21 -0.021146)
(0.0120187 -2.68788e-21 -0.00646401)
(-0.34161 3.06122e-21 -0.00424415)
(-0.630982 -3.53723e-21 0.00295172)
(-0.880117 3.14799e-21 0.0135116)
(-1.11011 2.76461e-21 0.0282712)
(-1.33314 3.68728e-22 0.0476324)
(-1.55376 -1.85892e-22 0.0716259)
(-1.76614 -3.12225e-21 0.099099)
(-1.95605 -2.45801e-23 0.127801)
(-2.10658 3.23942e-21 0.155304)
(-2.17984 5.14833e-23 0.183427)
(-2.17984 5.14833e-23 0.183427)
(-2.22747 -1.06582e-22 0.172921)
)
;
    }
}


// ************************************************************************* //
