/*--------------------------------*- C++ -*----------------------------------*\
| =========                 |                                                 |
| \\      /  F ield         | OpenFOAM: The Open Source CFD Toolbox           |
|  \\    /   O peration     | Version:  dev                                   |
|   \\  /    A nd           | Web:      www.OpenFOAM.org                      |
|    \\/     M anipulation  |                                                 |
\*---------------------------------------------------------------------------*/
FoamFile
{
    version     2.0;
    format      ascii;
    class       volVectorField;
    location    "0.81";
    object      cellDisplacement;
}
// * * * * * * * * * * * * * * * * * * * * * * * * * * * * * * * * * * * * * //

dimensions      [0 1 0 0 0 0 0];

internalField   nonuniform List<vector> 
2790
(
(0.00937424 0 -2.1551e-05)
(0.0268012 0 -6.19021e-05)
(0.0417649 0 -9.75219e-05)
(0.0544889 0 -0.000129295)
(0.0652067 0 -0.000157933)
(0.0741114 0 -0.000184384)
(0.0813825 0 -0.00020815)
(0.0871836 0 -0.00022982)
(0.0916461 0 -0.000249464)
(0.0948833 0 -0.000267065)
(0.0969924 0 -0.000282605)
(0.0980584 0 -0.000295268)
(0.0981565 0 -0.000304775)
(0.0973508 0 -0.000310525)
(0.095697 0 -0.000311678)
(0.0932443 0 -0.000307156)
(0.0900368 0 -0.000295583)
(0.0861139 0 -0.000275126)
(0.0815126 0 -0.000243386)
(0.0762752 0 -0.000197795)
(0.0704453 0 -0.00013447)
(0.0640708 0 -4.84794e-05)
(0.0572064 0 6.66459e-05)
(0.0499189 0 0.000219449)
(0.0422942 0 0.000421306)
(0.0344498 0 0.000687669)
(0.0265597 0 0.00104093)
(0.0189466 0 0.0015165)
(0.0122766 0 0.00216036)
(0.00838479 0 0.00291346)
(0.00938294 0 -6.47839e-05)
(0.0268275 0 -0.000186111)
(0.0418092 0 -0.000293261)
(0.0545523 0 -0.000388892)
(0.0652937 0 -0.000475028)
(0.0742216 0 -0.000553042)
(0.0815169 0 -0.000624289)
(0.087349 0 -0.000689386)
(0.0918471 0 -0.000748447)
(0.0951256 0 -0.000801406)
(0.0972823 0 -0.000848523)
(0.0984025 0 -0.000886903)
(0.0985639 0 -0.000916036)
(0.0978319 0 -0.000934141)
(0.0962638 0 -0.000938767)
(0.093911 0 -0.000926789)
(0.0908207 0 -0.000894276)
(0.0870359 0 -0.000835969)
(0.0825936 0 -0.000744623)
(0.0775448 0 -0.000613575)
(0.0719404 0 -0.00043152)
(0.065839 0 -0.000184728)
(0.0593102 0 0.000144725)
(0.0524443 0 0.000580199)
(0.0453649 0 0.00115219)
(0.0382554 0 0.00190003)
(0.0313595 0 0.00287595)
(0.0250682 0 0.00414365)
(0.0202394 0 0.00572913)
(0.0191977 0 0.00731134)
(0.00940059 0 -0.000108051)
(0.0268801 0 -0.000310448)
(0.0418973 0 -0.000489278)
(0.0546767 0 -0.000649)
(0.065454 0 -0.000792848)
(0.0744283 0 -0.000922694)
(0.0817815 0 -0.00104197)
(0.0876758 0 -0.00115111)
(0.0922452 0 -0.00125032)
(0.0956063 0 -0.00133931)
(0.0978554 0 -0.00141711)
(0.0990831 0 -0.00148236)
(0.0993706 0 -0.00153306)
(0.098785 0 -0.00156619)
(0.097387 0 -0.00157788)
(0.0952322 0 -0.00156327)
(0.0923745 0 -0.00151648)
(0.0888664 0 -0.00142973)
(0.0847489 0 -0.00129264)
(0.0800741 0 -0.00109237)
(0.0749144 0 -0.000813522)
(0.069348 0 -0.000436817)
(0.0634684 0 6.29201e-05)
(0.0573996 0 0.000717187)
(0.0513129 0 0.00156513)
(0.0455125 0 0.00264959)
(0.0403861 0 0.00401055)
(0.0364865 0 0.00566196)
(0.0345814 0 0.00753318)
(0.0369956 0 0.00896471)
(0.00942685 0 -0.000151085)
(0.0269583 0 -0.00043413)
(0.0420284 0 -0.000684321)
(0.054862 0 -0.000908)
(0.0656966 0 -0.00110964)
(0.0747403 0 -0.00129283)
(0.0821751 0 -0.0014608)
(0.0881615 0 -0.00161478)
(0.0928358 0 -0.00175518)
(0.0963165 0 -0.00188151)
(0.0987042 0 -0.00199183)
(0.100095 0 -0.0020865)
(0.100569 0 -0.00216207)
(0.100201 0 -0.00221461)
(0.0990546 0 -0.00223912)
(0.0971912 0 -0.00222934)
(0.0946739 0 -0.00217841)
(0.0915626 0 -0.00207666)
(0.0879187 0 -0.00191231)
(0.0837993 0 -0.00166818)
(0.0792866 0 -0.00132663)
(0.0744997 0 -0.000868224)
(0.0695635 0 -0.000266489)
(0.0646503 0 0.000508019)
(0.0599786 0 0.00148999)
(0.0558878 0 0.00270491)
(0.05294 0 0.0041413)
(0.0518677 0 0.0057164)
(0.0533634 0 0.00723629)
(0.0587591 0 0.00791885)
(0.00946132 0 -0.000193818)
(0.0270608 0 -0.000556972)
(0.0422012 0 -0.000878121)
(0.0551064 0 -0.00116565)
(0.0660173 0 -0.00142503)
(0.0751516 0 -0.00166147)
(0.0826915 0 -0.0018785)
(0.0887975 0 -0.00207798)
(0.0936089 0 -0.00226062)
(0.0972472 0 -0.00242612)
(0.0998187 0 -0.00257316)
(0.101421 0 -0.00270062)
(0.102141 0 -0.00280535)
(0.102055 0 -0.00288298)
(0.101237 0 -0.00292784)
(0.099751 0 -0.00293234)
(0.0976749 0 -0.00289045)
(0.0950786 0 -0.00279121)
(0.092037 0 -0.00262189)
(0.0886325 0 -0.00236673)
(0.0849652 0 -0.00200845)
(0.081163 0 -0.00152734)
(0.0773986 0 -0.000903692)
(0.0738886 0 -0.000118248)
(0.0709604 0 0.0008359)
(0.0689306 0 0.00195576)
(0.0683709 0 0.00317908)
(0.0700851 0 0.00432169)
(0.0745977 0 0.00509162)
(0.0821123 0 0.0048612)
(0.00950395 0 -0.000236387)
(0.0271868 0 -0.000679383)
(0.0424149 0 -0.00107132)
(0.0554074 0 -0.00142171)
(0.0664111 0 -0.00173864)
(0.0756565 0 -0.0020284)
(0.0833241 0 -0.00229499)
(0.089576 0 -0.00254081)
(0.0945545 0 -0.00276702)
(0.0983852 0 -0.00297366)
(0.101179 0 -0.00315975)
(0.103038 0 -0.00332365)
(0.104055 0 -0.00346259)
(0.104313 0 -0.00357213)
(0.103895 0 -0.00364672)
(0.102875 0 -0.00367967)
(0.101332 0 -0.00366242)
(0.099356 0 -0.0035861)
(0.0970379 0 -0.00343928)
(0.094473 0 -0.00320763)
(0.091809 0 -0.00288078)
(0.0891807 0 -0.00244282)
(0.086788 0 -0.0018844)
(0.084867 0 -0.00120055)
(0.0838118 0 -0.000417284)
(0.083995 0 0.000417399)
(0.0858822 0 0.00119913)
(0.0900711 0 0.00169932)
(0.0967696 0 0.00162601)
(0.105396 0 0.000630469)
(0.00955509 0 -0.000278718)
(0.027335 0 -0.000801123)
(0.0426537 0 -0.00126329)
(0.0557497 0 -0.0016765)
(0.0668741 0 -0.00205146)
(0.0762513 0 -0.00239499)
(0.0840687 0 -0.00271191)
(0.0904913 0 -0.00300527)
(0.0956655 0 -0.00327676)
(0.0997212 0 -0.00352686)
(0.102775 0 -0.00375497)
(0.104932 0 -0.00395935)
(0.106293 0 -0.00413809)
(0.106949 0 -0.00428689)
(0.10699 0 -0.0044008)
(0.106507 0 -0.00447482)
(0.105575 0 -0.00449819)
(0.10431 0 -0.0044665)
(0.102823 0 -0.00437167)
(0.10123 0 -0.00420345)
(0.0996625 0 -0.00395209)
(0.0983327 0 -0.00361863)
(0.0974552 0 -0.00320648)
(0.097276 0 -0.00272849)
(0.0981646 0 -0.00223523)
(0.100489 0 -0.00181184)
(0.104634 0 -0.00159731)
(0.110788 0 -0.0017904)
(0.118807 0 -0.00259756)
(0.127543 0 -0.00406127)
(0.00961467 0 -0.000320523)
(0.0275047 0 -0.000921382)
(0.0429279 0 -0.00145313)
(0.0561424 0 -0.00192972)
(0.0674014 0 -0.00236282)
(0.0769286 0 -0.00276051)
(0.0849155 0 -0.0031285)
(0.0915312 0 -0.00347056)
(0.0969263 0 -0.00378898)
(0.101236 0 -0.00408488)
(0.104581 0 -0.0043582)
(0.107071 0 -0.00460698)
(0.108819 0 -0.00483133)
(0.109919 0 -0.00502684)
(0.110468 0 -0.00518931)
(0.110573 0 -0.0053154)
(0.110328 0 -0.00539833)
(0.109839 0 -0.00543198)
(0.109262 0 -0.00541663)
(0.108735 0 -0.00534846)
(0.108388 0 -0.00522178)
(0.108428 0 -0.0050453)
(0.10912 0 -0.00484261)
(0.110725 0 -0.0046474)
(0.11351 0 -0.00452044)
(0.117775 0 -0.00456561)
(0.123792 0 -0.00493236)
(0.131299 0 -0.00573658)
(0.139867 0 -0.0070631)
(0.147913 0 -0.00867637)
(0.00968381 0 -0.000361949)
(0.0276954 0 -0.00103999)
(0.0432329 0 -0.0016404)
(0.0565783 0 -0.00217964)
(0.0679848 0 -0.00267057)
(0.0776771 0 -0.00312245)
(0.0858504 0 -0.00354191)
(0.0926779 0 -0.00393354)
(0.0983147 0 -0.00430028)
(0.102902 0 -0.00464406)
(0.106565 0 -0.00496596)
(0.109427 0 -0.00526553)
(0.111597 0 -0.00554153)
(0.113178 0 -0.00579113)
(0.114274 0 -0.00601093)
(0.115014 0 -0.00620201)
(0.115507 0 -0.00636045)
(0.115861 0 -0.00648135)
(0.116241 0 -0.00656902)
(0.116808 0 -0.00662694)
(0.117726 0 -0.0066612)
(0.11919 0 -0.00668709)
(0.121439 0 -0.00673657)
(0.124761 0 -0.00686591)
(0.129284 0 -0.00713255)
(0.13523 0 -0.00764261)
(0.142566 0 -0.00849924)
(0.150806 0 -0.00974359)
(0.159281 0 -0.0113338)
(0.166226 0 -0.0128593)
(0.00974681 0 -0.000402362)
(0.0278911 0 -0.00115665)
(0.0435654 0 -0.00182548)
(0.0570539 0 -0.00242693)
(0.0686204 0 -0.00297554)
(0.0784918 0 -0.0034818)
(0.0868671 0 -0.00395333)
(0.093923 0 -0.0043955)
(0.0998197 0 -0.00481198)
(0.104705 0 -0.00520559)
(0.108714 0 -0.00557945)
(0.11197 0 -0.00593363)
(0.114586 0 -0.00626625)
(0.116677 0 -0.00657703)
(0.118359 0 -0.00686473)
(0.119765 0 -0.0071316)
(0.12101 0 -0.00737606)
(0.122252 0 -0.00760357)
(0.123607 0 -0.00781247)
(0.125284 0 -0.00801968)
(0.127456 0 -0.0082382)
(0.130303 0 -0.00848982)
(0.134045 0 -0.00881426)
(0.138885 0 -0.00926642)
(0.144887 0 -0.00990277)
(0.152138 0 -0.0108099)
(0.160259 0 -0.0120122)
(0.168709 0 -0.013496)
(0.176633 0 -0.0151168)
(0.182473 0 -0.0164428)
(0.00981981 0 -0.000442304)
(0.0281067 0 -0.00127166)
(0.0439225 0 -0.0020079)
(0.0575634 0 -0.00267087)
(0.0693006 0 -0.00327688)
(0.0793629 0 -0.00383756)
(0.0879528 0 -0.00436155)
(0.0952506 0 -0.00485509)
(0.101421 0 -0.00532242)
(0.106628 0 -0.00576978)
(0.111 0 -0.00619825)
(0.114658 0 -0.00660783)
(0.117737 0 -0.00700133)
(0.12036 0 -0.00737968)
(0.122657 0 -0.00774486)
(0.124743 0 -0.00809614)
(0.126768 0 -0.00843996)
(0.12888 0 -0.00878236)
(0.131205 0 -0.00912657)
(0.133964 0 -0.00949569)
(0.137325 0 -0.00990901)
(0.14144 0 -0.0103896)
(0.146485 0 -0.0109777)
(0.152581 0 -0.0117209)
(0.159749 0 -0.0126676)
(0.167837 0 -0.0138527)
(0.176361 0 -0.0152554)
(0.184691 0 -0.0168048)
(0.191892 0 -0.0183054)
(0.196774 0 -0.0194016)
(0.00988502 0 -0.000481092)
(0.0283245 0 -0.00138444)
(0.0442999 0 -0.00218708)
(0.0581003 0 -0.00291066)
(0.0700175 0 -0.00357356)
(0.0802806 0 -0.00418848)
(0.0890954 0 -0.00476509)
(0.0966451 0 -0.00531064)
(0.103111 0 -0.00583202)
(0.108653 0 -0.00633496)
(0.113394 0 -0.00681992)
(0.117476 0 -0.00729021)
(0.121029 0 -0.00774788)
(0.124175 0 -0.00819462)
(0.127075 0 -0.00863933)
(0.129844 0 -0.00908212)
(0.132632 0 -0.00953076)
(0.135573 0 -0.00999164)
(0.138857 0 -0.0104827)
(0.142606 0 -0.0110134)
(0.14701 0 -0.0116124)
(0.152215 0 -0.0123071)
(0.158325 0 -0.0131285)
(0.165397 0 -0.0141124)
(0.173357 0 -0.0152838)
(0.18191 0 -0.0166327)
(0.190568 0 -0.0181082)
(0.198655 0 -0.0196015)
(0.205166 0 -0.0209018)
(0.209285 0 -0.021775)
(0.00995611 0 -0.000519265)
(0.0285432 0 -0.00149511)
(0.0446831 0 -0.00236332)
(0.0586625 0 -0.00314762)
(0.0707694 0 -0.00386727)
(0.0812422 0 -0.00453645)
(0.0902916 0 -0.00516598)
(0.0981079 0 -0.00576446)
(0.104874 0 -0.0063401)
(0.110746 0 -0.00689696)
(0.115857 0 -0.00743791)
(0.120363 0 -0.00797065)
(0.124379 0 -0.00849345)
(0.128052 0 -0.00901267)
(0.131535 0 -0.00953772)
(0.134954 0 -0.0100723)
(0.138449 0 -0.0106242)
(0.142189 0 -0.0112081)
(0.146321 0 -0.0118382)
(0.150946 0 -0.0125235)
(0.156227 0 -0.0132911)
(0.162281 0 -0.0141668)
(0.169187 0 -0.0151779)
(0.176901 0 -0.0163371)
(0.185295 0 -0.0176471)
(0.19405 0 -0.0190719)
(0.202674 0 -0.02053)
(0.210507 0 -0.0218918)
(0.216556 0 -0.0229578)
(0.220211 0 -0.0236156)
(0.0100312 0 -0.000556454)
(0.028773 0 -0.00160297)
(0.045081 0 -0.00253577)
(0.0592415 0 -0.00337964)
(0.0715431 0 -0.00415522)
(0.0822306 0 -0.00487809)
(0.0915185 0 -0.00556009)
(0.0996016 0 -0.00621077)
(0.106662 0 -0.00683839)
(0.112859 0 -0.00744893)
(0.118339 0 -0.00804632)
(0.123252 0 -0.00863861)
(0.127726 0 -0.00922784)
(0.131918 0 -0.00982288)
(0.135953 0 -0.0104276)
(0.13998 0 -0.0110525)
(0.144141 0 -0.0117078)
(0.148576 0 -0.0124051)
(0.153394 0 -0.0131546)
(0.15873 0 -0.0139749)
(0.164682 0 -0.0148834)
(0.171339 0 -0.015902)
(0.178729 0 -0.0170472)
(0.186781 0 -0.0183213)
(0.195321 0 -0.0197062)
(0.204034 0 -0.0211471)
(0.212493 0 -0.0225475)
(0.220093 0 -0.0237572)
(0.226024 0 -0.0245956)
(0.22968 0 -0.0250285)
(0.0101083 0 -0.00059231)
(0.029008 0 -0.00170704)
(0.0454845 0 -0.00270214)
(0.0598254 0 -0.00360361)
(0.0723225 0 -0.00443348)
(0.0832252 0 -0.00520867)
(0.0927505 0 -0.00594191)
(0.101096 0 -0.00664353)
(0.108447 0 -0.00732231)
(0.114971 0 -0.00798688)
(0.120819 0 -0.00864281)
(0.126125 0 -0.00929402)
(0.131034 0 -0.0099478)
(0.135702 0 -0.0106137)
(0.140256 0 -0.011297)
(0.144831 0 -0.0120072)
(0.149554 0 -0.0127536)
(0.154539 0 -0.0135455)
(0.159903 0 -0.0143969)
(0.165751 0 -0.0153234)
(0.172161 0 -0.0163402)
(0.179179 0 -0.0174612)
(0.18679 0 -0.0186934)
(0.194895 0 -0.0200294)
(0.203304 0 -0.0214408)
(0.211725 0 -0.0228688)
(0.219808 0 -0.024222)
(0.227059 0 -0.0253485)
(0.232989 0 -0.0260637)
(0.237171 0 -0.0262872)
(0.0118264 0 -0.00387562)
(0.0231114 0 -0.00424009)
(0.0402144 0 -0.00427472)
(0.0591323 0 -0.00408015)
(0.0772736 0 -0.00381016)
(0.0934159 0 -0.0034934)
(0.107291 0 -0.0031825)
(0.118946 0 -0.00288861)
(0.128598 0 -0.00261498)
(0.136437 0 -0.00237371)
(0.142676 0 -0.00215575)
(0.147436 0 -0.00195149)
(0.150826 0 -0.00177858)
(0.152939 0 -0.00162064)
(0.153833 0 -0.00147846)
(0.15354 0 -0.00134706)
(0.15208 0 -0.00122161)
(0.149458 0 -0.00111021)
(0.145653 0 -0.00100781)
(0.140639 0 -0.000912611)
(0.134384 0 -0.000824502)
(0.126838 0 -0.000738362)
(0.117932 0 -0.000654932)
(0.107599 0 -0.000573312)
(0.0957609 0 -0.000492352)
(0.0823362 0 -0.000410876)
(0.0672358 0 -0.000327518)
(0.0503706 0 -0.000241076)
(0.0316338 0 -0.00014942)
(0.010894 0 -5.1278e-05)
(0.0201801 0 -0.0113575)
(0.0316045 0 -0.0122565)
(0.0477368 0 -0.0122804)
(0.0652849 0 -0.0117626)
(0.0821553 0 -0.0109898)
(0.0972445 0 -0.0101149)
(0.110303 0 -0.00923901)
(0.12133 0 -0.00841334)
(0.130497 0 -0.00763608)
(0.137969 0 -0.00694996)
(0.143911 0 -0.00632798)
(0.148438 0 -0.00575284)
(0.151644 0 -0.00524053)
(0.153606 0 -0.00478011)
(0.15438 0 -0.0043671)
(0.15399 0 -0.00398448)
(0.152451 0 -0.00362564)
(0.149762 0 -0.00329965)
(0.145903 0 -0.00299815)
(0.140842 0 -0.00271661)
(0.13455 0 -0.0024492)
(0.126977 0 -0.00219371)
(0.118047 0 -0.00194663)
(0.107694 0 -0.00170472)
(0.0958389 0 -0.0014645)
(0.0824001 0 -0.00122256)
(0.0672863 0 -0.000974718)
(0.0504148 0 -0.000717786)
(0.0316654 0 -0.000446205)
(0.0109028 0 -0.000153188)
(0.0351514 0 -0.0180695)
(0.0465543 0 -0.0191923)
(0.0610015 0 -0.0191307)
(0.0763045 0 -0.0183624)
(0.0910276 0 -0.0172227)
(0.104324 0 -0.0159424)
(0.115932 0 -0.0146331)
(0.125831 0 -0.013395)
(0.134121 0 -0.0122246)
(0.140903 0 -0.0111589)
(0.14629 0 -0.0101977)
(0.150375 0 -0.00931481)
(0.153226 0 -0.00850754)
(0.154903 0 -0.00777656)
(0.155442 0 -0.00711011)
(0.154862 0 -0.00649834)
(0.153169 0 -0.00593145)
(0.150353 0 -0.00540806)
(0.14639 0 -0.0049205)
(0.141248 0 -0.00446464)
(0.134887 0 -0.00402625)
(0.127252 0 -0.00360855)
(0.118274 0 -0.00320436)
(0.10788 0 -0.00280794)
(0.0959921 0 -0.00241352)
(0.0825254 0 -0.00201585)
(0.0673825 0 -0.00160744)
(0.0504717 0 -0.00118392)
(0.0316963 0 -0.000736572)
(0.010917 0 -0.000253025)
(0.0547676 0 -0.0240014)
(0.0655623 0 -0.024996)
(0.0779341 0 -0.0247869)
(0.0906151 0 -0.0238241)
(0.102774 0 -0.0224437)
(0.113854 0 -0.0209045)
(0.123629 0 -0.0193064)
(0.132076 0 -0.017776)
(0.139198 0 -0.0163276)
(0.145037 0 -0.0149717)
(0.149664 0 -0.0137288)
(0.153131 0 -0.0125882)
(0.155491 0 -0.0115451)
(0.156764 0 -0.0105853)
(0.15697 0 -0.00969718)
(0.15612 0 -0.00888087)
(0.154206 0 -0.00812426)
(0.151208 0 -0.00742143)
(0.147093 0 -0.00676168)
(0.141827 0 -0.00613862)
(0.135369 0 -0.00554474)
(0.127648 0 -0.00497462)
(0.118599 0 -0.00442125)
(0.108149 0 -0.00387722)
(0.0962109 0 -0.00333445)
(0.0827066 0 -0.00278699)
(0.0675232 0 -0.00222529)
(0.0505631 0 -0.00163958)
(0.0317509 0 -0.00101971)
(0.0109373 0 -0.000350325)
(0.0769988 0 -0.0290507)
(0.086607 0 -0.0297306)
(0.0967145 0 -0.0293137)
(0.106749 0 -0.0282226)
(0.11624 0 -0.0266998)
(0.124997 0 -0.0250175)
(0.132812 0 -0.0232656)
(0.139618 0 -0.0215457)
(0.145395 0 -0.0199082)
(0.150134 0 -0.0183601)
(0.153853 0 -0.0169109)
(0.156581 0 -0.0155669)
(0.158327 0 -0.0143233)
(0.1591 0 -0.013174)
(0.158899 0 -0.0121062)
(0.157713 0 -0.0111147)
(0.15552 0 -0.0101904)
(0.152295 0 -0.0093285)
(0.147994 0 -0.00851346)
(0.142572 0 -0.00773677)
(0.13598 0 -0.00699696)
(0.12815 0 -0.0062845)
(0.119013 0 -0.00559085)
(0.108489 0 -0.00490713)
(0.0964858 0 -0.00422224)
(0.0829137 0 -0.00353075)
(0.0676786 0 -0.00282177)
(0.0506791 0 -0.00208036)
(0.0318234 0 -0.00129404)
(0.0109634 0 -0.00044462)
(0.100069 0 -0.0331112)
(0.108111 0 -0.0334265)
(0.11595 0 -0.0328081)
(0.123478 0 -0.0316371)
(0.130498 0 -0.0300746)
(0.137021 0 -0.0283429)
(0.142897 0 -0.026542)
(0.148025 0 -0.0247348)
(0.152376 0 -0.0229817)
(0.155922 0 -0.021308)
(0.158661 0 -0.0197282)
(0.160566 0 -0.0182412)
(0.161623 0 -0.0168443)
(0.16183 0 -0.0155436)
(0.161161 0 -0.0143274)
(0.159585 0 -0.0131885)
(0.157066 0 -0.0121185)
(0.15357 0 -0.0111114)
(0.149051 0 -0.0101584)
(0.143447 0 -0.00924842)
(0.136701 0 -0.00837593)
(0.128743 0 -0.00753213)
(0.119499 0 -0.00670785)
(0.108894 0 -0.00589361)
(0.0968138 0 -0.0050769)
(0.0831633 0 -0.00424779)
(0.0678668 0 -0.00339551)
(0.0508161 0 -0.00250432)
(0.0319097 0 -0.00155817)
(0.0109942 0 -0.000535439)
(0.122615 0 -0.0361247)
(0.129074 0 -0.0361469)
(0.134717 0 -0.0353875)
(0.14 0 -0.0342003)
(0.144866 0 -0.0326796)
(0.149324 0 -0.0309707)
(0.153365 0 -0.0291855)
(0.156885 0 -0.0273758)
(0.159825 0 -0.0255835)
(0.162167 0 -0.0238445)
(0.163873 0 -0.0221792)
(0.164911 0 -0.0205971)
(0.165247 0 -0.0190973)
(0.164851 0 -0.0176866)
(0.163674 0 -0.0163542)
(0.161673 0 -0.0150958)
(0.158802 0 -0.0139048)
(0.155007 0 -0.0127727)
(0.150239 0 -0.0116975)
(0.144429 0 -0.010668)
(0.13751 0 -0.00967578)
(0.129407 0 -0.00871205)
(0.120042 0 -0.00776716)
(0.109331 0 -0.00683073)
(0.097165 0 -0.00588988)
(0.0834423 0 -0.00493169)
(0.0680791 0 -0.00394385)
(0.0509699 0 -0.00290986)
(0.0320078 0 -0.00181108)
(0.0110298 0 -0.000622448)
(0.143696 0 -0.0381445)
(0.148656 0 -0.0379869)
(0.152395 0 -0.0371914)
(0.15577 0 -0.0360465)
(0.1588 0 -0.0346232)
(0.161468 0 -0.0330022)
(0.163815 0 -0.0312767)
(0.16583 0 -0.0295116)
(0.167441 0 -0.0277394)
(0.168619 0 -0.0259934)
(0.169307 0 -0.024292)
(0.169479 0 -0.0226557)
(0.169078 0 -0.0210876)
(0.168052 0 -0.0195944)
(0.166347 0 -0.0181751)
(0.163903 0 -0.0168233)
(0.160659 0 -0.0155348)
(0.156554 0 -0.0143037)
(0.151522 0 -0.0131254)
(0.145491 0 -0.0119911)
(0.138385 0 -0.0108923)
(0.130125 0 -0.00982027)
(0.120628 0 -0.0087652)
(0.109811 0 -0.00771653)
(0.0975519 0 -0.00665996)
(0.0837433 0 -0.00557994)
(0.0683075 0 -0.00446438)
(0.0511347 0 -0.0032952)
(0.0321152 0 -0.00205177)
(0.01107 0 -0.000705319)
(0.162788 0 -0.0393421)
(0.166359 0 -0.0390972)
(0.168634 0 -0.0383576)
(0.170457 0 -0.0373094)
(0.171928 0 -0.0360123)
(0.173084 0 -0.0345223)
(0.173948 0 -0.0328987)
(0.174575 0 -0.0312065)
(0.174947 0 -0.0294871)
(0.175037 0 -0.0277717)
(0.174774 0 -0.0260789)
(0.174116 0 -0.024428)
(0.172996 0 -0.0228277)
(0.171346 0 -0.0212828)
(0.169112 0 -0.0198014)
(0.16622 0 -0.01838)
(0.162596 0 -0.0170153)
(0.15817 0 -0.0157032)
(0.152865 0 -0.0144387)
(0.146604 0 -0.0132146)
(0.139303 0 -0.012022)
(0.130878 0 -0.0108534)
(0.121241 0 -0.00969852)
(0.110298 0 -0.00854609)
(0.0979429 0 -0.00738341)
(0.0840573 0 -0.00619062)
(0.0685451 0 -0.00495544)
(0.0513055 0 -0.00365911)
(0.0322331 0 -0.00227976)
(0.0111191 0 -0.000784417)
(0.179746 0 -0.0399291)
(0.182196 0 -0.0396758)
(0.183343 0 -0.0390407)
(0.183892 0 -0.0381188)
(0.184039 0 -0.0369609)
(0.18388 0 -0.0356098)
(0.183488 0 -0.0341154)
(0.182904 0 -0.0325251)
(0.182163 0 -0.0308812)
(0.181242 0 -0.029218)
(0.180094 0 -0.0275598)
(0.178664 0 -0.0259234)
(0.176868 0 -0.0243184)
(0.174633 0 -0.0227537)
(0.17189 0 -0.0212364)
(0.168559 0 -0.0197677)
(0.16456 0 -0.0183468)
(0.159813 0 -0.0169712)
(0.154235 0 -0.0156366)
(0.147742 0 -0.0143371)
(0.140242 0 -0.0130631)
(0.131646 0 -0.0118093)
(0.121865 0 -0.0105653)
(0.110799 0 -0.00931879)
(0.0983467 0 -0.00805732)
(0.084379 0 -0.006762)
(0.0687836 0 -0.00541533)
(0.0514731 0 -0.00400009)
(0.0323287 0 -0.0024922)
(0.0111477 0 -0.000857238)
(0.194657 0 -0.0401041)
(0.196241 0 -0.0398987)
(0.196517 0 -0.0393841)
(0.195976 0 -0.0385892)
(0.194981 0 -0.0375637)
(0.193684 0 -0.036347)
(0.1922 0 -0.0349826)
(0.190598 0 -0.0335105)
(0.188905 0 -0.0319658)
(0.187098 0 -0.0303766)
(0.185156 0 -0.0287696)
(0.183013 0 -0.0271652)
(0.180596 0 -0.0255774)
(0.177818 0 -0.024013)
(0.174598 0 -0.0224806)
(0.170852 0 -0.0209843)
(0.166493 0 -0.0195252)
(0.161434 0 -0.0181025)
(0.15559 0 -0.0167133)
(0.148873 0 -0.0153535)
(0.141178 0 -0.0140139)
(0.13241 0 -0.0126865)
(0.122486 0 -0.0113639)
(0.111295 0 -0.0100328)
(0.0987305 0 -0.0086807)
(0.0846794 0 -0.00729153)
(0.069016 0 -0.00584306)
(0.0516352 0 -0.00431756)
(0.0324325 0 -0.00269104)
(0.0111875 0 -0.000926016)
(0.207706 0 -0.0400667)
(0.208602 0 -0.0399299)
(0.208107 0 -0.0395083)
(0.206602 0 -0.0388105)
(0.20461 0 -0.0378926)
(0.202341 0 -0.0367974)
(0.199937 0 -0.0355587)
(0.197477 0 -0.0342069)
(0.194989 0 -0.0327699)
(0.192456 0 -0.0312725)
(0.189842 0 -0.0297375)
(0.187082 0 -0.0281828)
(0.184111 0 -0.026627)
(0.180842 0 -0.0250796)
(0.177186 0 -0.0235495)
(0.173055 0 -0.0220423)
(0.168359 0 -0.0205608)
(0.163006 0 -0.0191057)
(0.156904 0 -0.0176753)
(0.149961 0 -0.0162662)
(0.142077 0 -0.0148729)
(0.133151 0 -0.0134847)
(0.12309 0 -0.0120942)
(0.111777 0 -0.0106875)
(0.0991035 0 -0.00925409)
(0.0849725 0 -0.00777853)
(0.069239 0 -0.00623792)
(0.0517834 0 -0.00461051)
(0.0325078 0 -0.00287303)
(0.0112051 0 -0.000988022)
(0.219129 0 -0.0400285)
(0.219363 0 -0.039901)
(0.218024 0 -0.039485)
(0.215639 0 -0.0388285)
(0.212773 0 -0.037991)
(0.209705 0 -0.0370062)
(0.206567 0 -0.035889)
(0.203429 0 -0.0346578)
(0.200311 0 -0.0333324)
(0.197193 0 -0.0319331)
(0.194034 0 -0.03048)
(0.190771 0 -0.0289908)
(0.187334 0 -0.0274822)
(0.183639 0 -0.0259663)
(0.179599 0 -0.0244529)
(0.175123 0 -0.0229489)
(0.170118 0 -0.0214588)
(0.164492 0 -0.0199844)
(0.158149 0 -0.0185252)
(0.150995 0 -0.0170786)
(0.142928 0 -0.0156397)
(0.133848 0 -0.0142004)
(0.123662 0 -0.0127531)
(0.112233 0 -0.0112822)
(0.0994492 0 -0.00977622)
(0.0852254 0 -0.00822184)
(0.0694234 0 -0.00659758)
(0.0519154 0 -0.00487886)
(0.0325814 0 -0.00304046)
(0.0112268 0 -0.00104524)
(0.22907 0 -0.0400927)
(0.228381 0 -0.0398083)
(0.226037 0 -0.0392887)
(0.222849 0 -0.0386395)
(0.219289 0 -0.0378804)
(0.215637 0 -0.0370061)
(0.211981 0 -0.0360104)
(0.208365 0 -0.0348996)
(0.204793 0 -0.0336868)
(0.201241 0 -0.0323886)
(0.197664 0 -0.0310227)
(0.194005 0 -0.0296062)
(0.190191 0 -0.0281545)
(0.186143 0 -0.0266808)
(0.181776 0 -0.0251956)
(0.177001 0 -0.023707)
(0.171725 0 -0.0222202)
(0.165854 0 -0.0207383)
(0.159293 0 -0.0192617)
(0.151945 0 -0.0177887)
(0.143708 0 -0.0163151)
(0.134483 0 -0.0148344)
(0.12417 0 -0.013339)
(0.112635 0 -0.0118151)
(0.0997577 0 -0.0102471)
(0.0854532 0 -0.00862333)
(0.0695868 0 -0.00692278)
(0.0520276 0 -0.00512134)
(0.0326452 0 -0.003192)
(0.0112468 0 -0.00109718)
(0.236806 0 -0.0400011)
(0.234873 0 -0.0393709)
(0.231609 0 -0.0387824)
(0.227912 0 -0.0382097)
(0.22402 0 -0.0375724)
(0.220084 0 -0.0368261)
(0.216162 0 -0.0359566)
(0.212279 0 -0.034966)
(0.20843 0 -0.0338653)
(0.20459 0 -0.0326687)
(0.200721 0 -0.0313927)
(0.196767 0 -0.0300531)
(0.192663 0 -0.028665)
(0.188333 0 -0.0272414)
(0.183697 0 -0.0257934)
(0.178669 0 -0.0243296)
(0.173159 0 -0.022856)
(0.167074 0 -0.0213766)
(0.160318 0 -0.0198925)
(0.152795 0 -0.0184029)
(0.144404 0 -0.0169043)
(0.135042 0 -0.0153908)
(0.124604 0 -0.0138548)
(0.112969 0 -0.0122847)
(0.100017 0 -0.0106647)
(0.0856432 0 -0.00898075)
(0.06972 0 -0.00721315)
(0.0521156 0 -0.005338)
(0.0326943 0 -0.00332754)
(0.011262 0 -0.00114366)
(0.0101869 0 -0.000627362)
(0.0292485 0 -0.00180887)
(0.0458962 0 -0.00286496)
(0.0604187 0 -0.00382295)
(0.0731136 0 -0.00470626)
(0.0842344 0 -0.0055332)
(0.0939983 0 -0.00631721)
(0.102604 0 -0.00706935)
(0.110251 0 -0.00780041)
(0.117104 0 -0.0085193)
(0.123303 0 -0.00923148)
(0.128986 0 -0.00994125)
(0.134311 0 -0.0106584)
(0.139417 0 -0.0113909)
(0.144428 0 -0.0121454)
(0.149459 0 -0.0129288)
(0.154633 0 -0.0137517)
(0.160057 0 -0.0146242)
(0.165829 0 -0.0155584)
(0.172026 0 -0.0165667)
(0.178697 0 -0.0176597)
(0.18585 0 -0.0188444)
(0.193436 0 -0.0201197)
(0.201334 0 -0.0214721)
(0.209344 0 -0.0228708)
(0.217193 0 -0.0242677)
(0.224558 0 -0.0256045)
(0.231047 0 -0.0268302)
(0.236371 0 -0.0279969)
(0.240486 0 -0.0294002)
(0.0102667 0 -0.000661741)
(0.0294936 0 -0.00190892)
(0.0463161 0 -0.00302516)
(0.0610218 0 -0.00403881)
(0.0739171 0 -0.00497492)
(0.0852599 0 -0.00585341)
(0.0952647 0 -0.00668802)
(0.104136 0 -0.00749103)
(0.112076 0 -0.0082747)
(0.119238 0 -0.00904534)
(0.125766 0 -0.00980983)
(0.131806 0 -0.0105754)
(0.137507 0 -0.0113512)
(0.142991 0 -0.0121426)
(0.148381 0 -0.0129578)
(0.15379 0 -0.0138045)
(0.159323 0 -0.0146918)
(0.165072 0 -0.0156289)
(0.171113 0 -0.0166252)
(0.177497 0 -0.0176893)
(0.184244 0 -0.018827)
(0.19133 0 -0.020039)
(0.198678 0 -0.0213184)
(0.206149 0 -0.022648)
(0.213542 0 -0.0239988)
(0.220601 0 -0.0253339)
(0.22704 0 -0.0266186)
(0.232584 0 -0.0278453)
(0.23699 0 -0.0290532)
(0.24017 0 -0.0303747)
(0.0103455 0 -0.000694939)
(0.0297391 0 -0.00200581)
(0.0467379 0 -0.00318069)
(0.0616237 0 -0.00424845)
(0.0747222 0 -0.00523689)
(0.0862878 0 -0.0061658)
(0.0965279 0 -0.00704927)
(0.105655 0 -0.00790096)
(0.113864 0 -0.00873264)
(0.121307 0 -0.00955088)
(0.128135 0 -0.0103639)
(0.134491 0 -0.0111794)
(0.140511 0 -0.0120053)
(0.146316 0 -0.0128482)
(0.15202 0 -0.0137153)
(0.157724 0 -0.0146139)
(0.163519 0 -0.0155518)
(0.169479 0 -0.0165363)
(0.175659 0 -0.0175739)
(0.182087 0 -0.0186694)
(0.188757 0 -0.0198243)
(0.195623 0 -0.0210345)
(0.202591 0 -0.0222896)
(0.209518 0 -0.023572)
(0.216217 0 -0.0248566)
(0.22247 0 -0.0261181)
(0.22805 0 -0.0273363)
(0.232731 0 -0.028505)
(0.236349 0 -0.0296476)
(0.238868 0 -0.0308626)
(0.0104214 0 -0.000726655)
(0.0299832 0 -0.00209921)
(0.0471612 0 -0.00333095)
(0.0622325 0 -0.00445149)
(0.0755226 0 -0.00548964)
(0.0872877 0 -0.00646517)
(0.0977479 0 -0.00739429)
(0.107112 0 -0.0082907)
(0.115564 0 -0.00916576)
(0.123266 0 -0.0100277)
(0.130363 0 -0.0108848)
(0.136994 0 -0.0117446)
(0.143288 0 -0.0126145)
(0.149358 0 -0.013501)
(0.155308 0 -0.0144108)
(0.161228 0 -0.0153501)
(0.167194 0 -0.016325)
(0.173265 0 -0.0173408)
(0.179475 0 -0.0184012)
(0.185833 0 -0.0195077)
(0.192316 0 -0.0206584)
(0.198863 0 -0.0218463)
(0.205378 0 -0.0230596)
(0.211727 0 -0.0242827)
(0.217753 0 -0.0254966)
(0.223268 0 -0.0266797)
(0.228078 0 -0.027814)
(0.232042 0 -0.0288979)
(0.235072 0 -0.0299548)
(0.237131 0 -0.031038)
(0.010511 0 -0.000757882)
(0.0302335 0 -0.00218886)
(0.0475655 0 -0.00347312)
(0.0628081 0 -0.00464287)
(0.076276 0 -0.00572674)
(0.0882308 0 -0.00674592)
(0.0988965 0 -0.00771733)
(0.108477 0 -0.00865489)
(0.117154 0 -0.00956992)
(0.125087 0 -0.0104714)
(0.13242 0 -0.0113676)
(0.139287 0 -0.0122659)
(0.145806 0 -0.0131731)
(0.152086 0 -0.0140953)
(0.158218 0 -0.0150384)
(0.164283 0 -0.0160074)
(0.170342 0 -0.0170067)
(0.176437 0 -0.0180395)
(0.182591 0 -0.0191073)
(0.188796 0 -0.0202089)
(0.19502 0 -0.0213399)
(0.201195 0 -0.022492)
(0.207245 0 -0.0236566)
(0.21304 0 -0.024817)
(0.218429 0 -0.0259538)
(0.223271 0 -0.0270506)
(0.22744 0 -0.0280979)
(0.230844 0 -0.0290962)
(0.23343 0 -0.0300594)
(0.235176 0 -0.031009)
(0.010589 0 -0.000786518)
(0.0304583 0 -0.00227132)
(0.0479359 0 -0.00360437)
(0.0633359 0 -0.0048195)
(0.0769696 0 -0.00594572)
(0.0891002 0 -0.00700515)
(0.0999543 0 -0.00801525)
(0.109732 0 -0.00899009)
(0.11861 0 -0.00994116)
(0.126747 0 -0.0108776)
(0.134282 0 -0.0118076)
(0.141344 0 -0.0127384)
(0.148043 0 -0.013676)
(0.15448 0 -0.0146261)
(0.160736 0 -0.0155935)
(0.166881 0 -0.016582)
(0.172965 0 -0.0175944)
(0.179018 0 -0.0186322)
(0.185051 0 -0.0196949)
(0.191049 0 -0.0207797)
(0.196974 0 -0.0218809)
(0.202772 0 -0.0229918)
(0.208358 0 -0.0241012)
(0.213612 0 -0.0251916)
(0.218427 0 -0.0262499)
(0.222701 0 -0.0272647)
(0.226349 0 -0.0282294)
(0.229311 0 -0.0291439)
(0.231557 0 -0.0300137)
(0.233083 0 -0.0308441)
(0.0106546 0 -0.000812167)
(0.030653 0 -0.00234567)
(0.0482631 0 -0.00372314)
(0.0638055 0 -0.00497948)
(0.0775906 0 -0.00614421)
(0.0898815 0 -0.00724006)
(0.100904 0 -0.00828486)
(0.110857 0 -0.00929286)
(0.119912 0 -0.0102756)
(0.128224 0 -0.0112422)
(0.135928 0 -0.0122006)
(0.143146 0 -0.0131576)
(0.149981 0 -0.0141189)
(0.156526 0 -0.0150892)
(0.162855 0 -0.0160725)
(0.169026 0 -0.0170713)
(0.175079 0 -0.0180872)
(0.181038 0 -0.0191201)
(0.186906 0 -0.0201682)
(0.192665 0 -0.0212278)
(0.19828 0 -0.0222935)
(0.203694 0 -0.0233567)
(0.208826 0 -0.024405)
(0.213592 0 -0.0254263)
(0.21791 0 -0.0264104)
(0.221708 0 -0.0273486)
(0.22493 0 -0.0282358)
(0.227538 0 -0.0290704)
(0.22952 0 -0.0298531)
(0.230881 0 -0.0305826)
(0.0107071 0 -0.00083459)
(0.0308133 0 -0.00241102)
(0.0485391 0 -0.00382793)
(0.0642073 0 -0.00512087)
(0.0781272 0 -0.00631982)
(0.0905608 0 -0.00744787)
(0.101732 0 -0.00852307)
(0.111836 0 -0.00955975)
(0.121043 0 -0.0105693)
(0.129501 0 -0.0115611)
(0.137341 0 -0.0125425)
(0.144678 0 -0.0135198)
(0.151608 0 -0.014498)
(0.158218 0 -0.0154813)
(0.164574 0 -0.0164727)
(0.170726 0 -0.0174739)
(0.176708 0 -0.0184851)
(0.182536 0 -0.0195052)
(0.188208 0 -0.0205314)
(0.193711 0 -0.0215598)
(0.199012 0 -0.0225851)
(0.204053 0 -0.0235969)
(0.208768 0 -0.0245843)
(0.213101 0 -0.0255395)
(0.216992 0 -0.0264539)
(0.220391 0 -0.0273209)
(0.223262 0 -0.0281359)
(0.225583 0 -0.0288965)
(0.227353 0 -0.0296009)
(0.228584 0 -0.0302459)
(0.0107455 0 -0.000853507)
(0.0309354 0 -0.00246647)
(0.0487569 0 -0.00391726)
(0.0645322 0 -0.00524177)
(0.0785686 0 -0.00647019)
(0.0911256 0 -0.00762584)
(0.102425 0 -0.00872684)
(0.112657 0 -0.00978749)
(0.121988 0 -0.0108191)
(0.130564 0 -0.0118307)
(0.138508 0 -0.0128295)
(0.145929 0 -0.0138212)
(0.152919 0 -0.0148101)
(0.159555 0 -0.0157997)
(0.1659 0 -0.0167923)
(0.172 0 -0.0177892)
(0.177878 0 -0.0187891)
(0.183549 0 -0.0197902)
(0.189011 0 -0.0207892)
(0.194251 0 -0.021782)
(0.199243 0 -0.0227635)
(0.203933 0 -0.0237229)
(0.208272 0 -0.0246515)
(0.212226 0 -0.0255442)
(0.215751 0 -0.0263939)
(0.218814 0 -0.027195)
(0.221393 0 -0.0279434)
(0.223478 0 -0.0286365)
(0.225074 0 -0.0292716)
(0.226196 0 -0.0298456)
(0.0107688 0 -0.000868625)
(0.0310156 0 -0.00251112)
(0.0489105 0 -0.00398971)
(0.0647725 0 -0.00534026)
(0.0789054 0 -0.00659303)
(0.0915654 0 -0.00777132)