/*--------------------------------*- C++ -*----------------------------------*\
| =========                 |                                                 |
| \\      /  F ield         | OpenFOAM: The Open Source CFD Toolbox           |
|  \\    /   O peration     | Version:  dev                                   |
|   \\  /    A nd           | Web:      www.OpenFOAM.org                      |
|    \\/     M anipulation  |                                                 |
\*---------------------------------------------------------------------------*/
FoamFile
{
    version     2.0;
    format      ascii;
    class       volScalarField;
    location    "0.81";
    object      p;
}
// * * * * * * * * * * * * * * * * * * * * * * * * * * * * * * * * * * * * * //

dimensions      [0 2 -2 0 0 0 0];

internalField   nonuniform List<scalar> 
2790
(
171.511
171.383
171.594
172.146
172.922
173.858
174.943
176.177
177.556
179.074
180.724
182.5
184.394
186.399
188.502
190.69
192.947
195.248
197.568
199.873
202.126
204.282
206.296
208.117
209.699
211.001
211.994
212.665
213.02
213.168
171.34
171.307
171.539
172.088
172.861
173.795
174.876
176.105
177.478
178.99
180.632
182.4
184.285
186.281
188.375
190.554
192.802
195.098
197.413
199.718
201.975
204.141
206.169
208.012
209.622
210.954
211.977
212.672
213.055
213.362
171.166
171.205
171.453
171.993
172.755
173.678
174.747
175.961
177.317
178.808
180.428
182.171
184.028
185.992
188.052
190.195
192.405
194.661
196.938
199.206
201.431
203.573
205.589
207.434
209.062
210.437
211.53
212.342
212.899
213.368
170.976
171.05
171.31
171.841
172.59
173.5
174.553
175.747
177.08
178.545
180.134
181.842
183.66
185.581
187.593
189.683
191.836
194.033
196.249
198.457
200.625
202.719
204.698
206.524
208.158
209.568
210.731
211.646
212.3
212.709
170.76
170.852
171.12
171.644
172.379
173.272
174.304
175.473
176.776
178.206
179.757
181.421
183.19
185.055
187.006
189.03
191.112
193.233
195.371
197.501
199.594
201.62
203.545
205.334
206.957
208.384
209.589
210.551
211.22
211.48
170.514
170.614
170.886
171.401
172.12
172.991
173.997
175.136
176.403
177.793
179.297
180.908
182.618
184.419
186.298
188.245
190.242
192.274
194.32
196.356
198.358
200.298
202.149
203.881
205.468
206.883
208.095
209.062
209.735
209.918
170.237
170.339
170.61
171.115
171.814
172.66
173.636
174.739
175.965
177.307
178.758
180.309
181.952
183.678
185.476
187.333
189.235
191.165
193.105
195.032
196.925
198.761
200.515
202.165
203.686
205.055
206.241
207.192
207.89
208.125
169.927
170.028
170.293
170.785
171.463
172.281
173.222
174.285
175.464
176.753
178.143
179.626
181.194
182.836
184.542
186.3
188.095
189.911
191.729
193.531
195.297
197.005
198.637
200.171
201.589
202.872
203.996
204.912
205.646
206.03
169.585
169.682
169.939
170.415
171.069
171.855
172.758
173.775
174.903
176.132
177.455
178.864
180.348
181.898
183.503
185.151
186.827
188.514
190.196
191.854
193.469
195.023
196.496
197.873
199.139
200.281
201.29
202.129
202.868
203.429
169.211
169.303
169.549
170.006
170.633
171.384
172.246
173.214
174.285
175.45
176.7
178.027
179.42
180.87
182.364
183.891
185.435
186.979
188.507
189.999
191.437
192.802
194.074
195.238
196.284
197.205
198.01
198.685
199.343
200.04
168.807
168.893
169.124
169.561
170.159
170.872
171.688
172.604
173.614
174.709
175.881
177.119
178.415
179.756
181.131
182.526
183.925
185.311
186.666
187.969
189.199
190.333
191.351
192.232
192.966
193.549
194.009
194.361
194.774
195.509
168.373
168.452
168.668
169.081
169.647
170.321
171.088
171.947
172.892
173.914
175.002
176.147
177.338
178.563
179.81
181.063
182.305
183.518
184.68
185.767
186.755
187.614
188.315
188.83
189.136
189.221
189.119
188.873
188.724
189.241
167.91
167.982
168.181
168.569
169.101
169.733
170.449
171.249
172.125
173.069
174.068
175.114
176.195
177.298
178.409
179.51
180.583
181.608
182.558
183.405
184.117
184.655
184.975
185.031
184.773
184.157
183.182
181.873
180.521
180.091
167.422
167.485
167.666
168.027
168.524
169.111
169.774
170.511
171.316
172.178
173.085
174.028
174.994
175.968
176.936
177.877
178.771
179.594
180.315
180.899
181.306
181.482
181.364
180.875
179.918
178.375
176.124
173.026
169.198
165.779
166.909
166.964
167.125
167.457
167.917
168.458
169.066
169.738
170.469
171.246
172.058
172.894
173.741
174.582
175.4
176.175
176.882
177.493
177.972
178.279
178.36
178.146
177.552
176.461
174.709
172.057
168.144
162.344
153.729
140.882
87.7876
87.4305
86.3561
84.2614
81.0982
76.9134
71.8015
65.8768
59.2658
52.1052
44.5419
36.7377
28.8677
21.1178
13.6842
6.77067
0.581655
-4.68411
-8.83784
-11.7094
-13.1751
-13.1601
-11.6502
-8.74371
-4.6548
0.385383
6.17178
11.9113
14.6413
8.93482
87.9771
87.5674
86.427
84.255
81.025
76.7855
71.6266
65.6588
59.0064
51.8044
44.1999
36.3543
28.4427
20.6512
13.1765
6.22222
-0.00732933
-5.31558
-9.52158
-12.4682
-14.0312
-14.1302
-12.7624
-10.0397
-6.18894
-1.47351
3.85913
9.12951
11.8598
6.90782
88.3253
87.6893
86.279
83.8904
80.5
76.1459
70.9072
64.8844
58.1933
50.9628
43.3352
35.4678
27.5324
19.7137
12.2072
5.21602
-1.05464
-6.40746
-10.6659
-13.6831
-15.3347
-15.534
-14.2845
-11.7098
-8.04859
-3.59877
1.34166
6.18233
8.88719
5.05749
88.5817
87.5708
85.7791
83.0904
79.4834
74.9783
69.6357
63.5404
56.7962
49.5231
41.8567
33.949
25.9687
18.0987
10.534
3.47782
-2.8636
-8.29101
-12.628
-15.7336
-17.4931
-17.8174
-16.701
-14.2736
-10.7749
-6.51581
-1.81861
2.78851
5.65734
3.37522
88.4088
86.9317
84.7629
81.7734
77.9484
73.2938
67.8523
61.693
54.9062
47.6021
39.909
31.9738
23.9612
16.0513
8.43754
1.32281
-5.08612
-10.5885
-15.0059
-18.2008
-20.0714
-20.522
-19.5338
-17.2373
-13.8676
-9.73355
-5.16565
-0.648888
2.52088
1.8771
87.4571
85.5311
83.0916
79.8739
75.8826
71.1145
65.5995
59.3942
52.5773
45.2491
37.5311
29.5656
21.514
13.5542
5.87875
-1.30853
-7.79865
-13.3867
-17.8883
-21.163
-23.1183
-23.6616
-22.7639
-20.5457
-17.2333
-13.1254
-8.55379
-3.97533
-0.384867
0.556818
85.4814
83.2727
80.7433
77.4136
73.3393
68.5147
62.9637
56.7356
49.9028
42.5599
34.8232
26.8313
18.7434
10.7362
3.00183
-4.25566
-10.8256
-16.4993
-21.0852
-24.4329
-26.4441
-27.0493
-26.2145
-24.027
-20.7071
-16.5395
-11.8535
-7.08794
-3.00057
-0.596216
82.4779
80.271
77.8462
74.5243
70.4524
65.6263
60.0744
53.8444
47.007
39.655
31.9028
23.8864
15.7634
7.70958
-0.083559
-7.41153
-14.0617
-19.8202
-24.4856
-27.8919
-29.9352
-30.5703
-29.7569
-27.5489
-24.1602
-19.8612
-14.974
-9.92669
-5.30502
-1.59257
78.7566
76.8455
74.6613
71.4311
67.4211
62.6275
57.0928
50.8699
44.0309
36.6692
28.8996
20.8576
12.6994
4.59988
-3.24988
-10.6449
-17.3708
-23.2093
-27.9482
-31.4038
-33.4612
-34.0952
-33.2615
-30.9861
-27.4783
-22.9957
-17.8489
-12.4576
-7.29392
-2.44158
74.8574
73.4407
71.5316
68.4162
64.483
59.7224
54.1978
47.9719
41.1213
33.7414
25.9478
17.8761
9.68159
1.53748
-6.36586
-13.8234
-20.6196
-26.5326
-31.3406
-34.8407
-36.8999
-37.5029
-36.6075
-34.225
-30.5607
-25.863
-20.4278
-14.662
-8.97053
-3.15177
71.3803
70.5268
68.8229
65.7766
61.8811
57.1154
51.5673
45.3087
38.4218
31.0053
23.1754
15.067
6.83385
-1.35362
-9.30712
-16.8223
-23.6833
-29.6655
-34.539
-38.0838
-40.1419
-40.6846
-39.6842
-37.1649
-33.3198
-28.395
-22.6705
-16.5301
-10.342
-3.7302
68.8687
68.5219
66.868
63.7791
59.8302
54.9853
49.3565
43.0201
36.0606
28.5811
20.6974
12.5424
4.26766
-3.96222
-11.9626
-19.5306
-26.4512
-32.4983
-37.4354
-41.0307
-43.0939
-43.5384
-42.392
-39.7246
-35.6853
-30.5366
-24.5454
-18.0585
-11.4181
-4.18117
67.7404
67.7257
65.9151
62.6185
58.4842
53.4656
47.6847
41.2122
34.1368
26.5653
18.6088
10.3969
2.07942
-6.19159
-14.2357
-21.8515
-28.8267
-34.9348
-39.9322
-43.58
-45.643
-45.9856
-44.6876
-41.8542
-37.614
-32.2529
-26.0311
-19.2476
-12.2107
-4.50677
68.1459
68.2884
66.0939
62.3908
57.9165
52.6158
46.5957
39.9297
32.7076
25.0262
16.99
8.72297
0.355343
-7.96211
-16.0459
-23.7022
-30.7253
-36.8891
-41.9381
-45.6435
-47.7166
-47.9742
-46.5341
-43.532
-39.0928
-33.5333
-27.1194
-20.1027
-12.7353
-4.70763
69.949
70.2268
67.345
63.052
58.0969
52.4098
46.0765
39.1749
31.7824
23.981
15.8641
7.5412
-0.870205
-9.21399
-17.3135
-24.9856
-32.0309
-38.2257
-43.3404
-47.1078
-49.213
-49.4285
-47.8816
-44.7303
-40.1178
-34.3918
-27.8286
-20.6436
-13.0177
-4.7865
166.363
166.409
166.55
166.851
167.272
167.764
168.314
168.918
169.571
170.26
170.973
171.697
172.419
173.121
173.783
174.384
174.895
175.284
175.511
175.528
175.269
174.653
173.568
171.859
169.294
165.504
159.831
150.879
134.993
89.3132
165.778
165.814
165.933
166.202
166.581
167.022
167.51
168.044
168.615
169.211
169.819
170.427
171.018
171.574
172.074
172.493
172.801
172.962
172.931
172.652
172.053
171.041
169.487
167.215
163.962
159.31
152.555
142.425
128.498
110.112
165.157
165.183
165.279
165.514
165.849
166.236
166.661
167.12
167.607
168.106
168.607
169.094
169.55
169.957
170.29
170.524
170.626
170.558
170.27
169.703
168.782
167.407
165.45
162.739
159.042
154.047
147.402
138.754
129.027
119.631
164.502
164.517
164.589
164.788
165.078
165.41
165.769
166.152
166.55
166.951
167.341
167.704
168.024
168.279
168.445
168.494
168.392
168.099
167.565
166.729
165.515
163.83
161.555
158.548
154.636
149.637
143.414
135.841
127.06
117.099
163.813
163.817
163.863
164.027
164.27
164.545
164.836
165.14
165.449
165.75
166.027
166.266
166.448
166.551
166.552
166.419
166.12
165.614
164.85
163.77
162.304
160.366
157.858
154.666
150.67
145.749
139.809
132.726
124.431
115.194
163.093
163.085
163.105
163.231
163.427
163.643
163.865
164.09
164.308
164.508
164.673
164.787
164.833
164.787
164.625
164.318
163.832
163.126
162.154
160.861
159.184
157.049
154.377
151.081
147.074
142.273
136.615
130.056
122.622
114.671
162.343
162.322
162.315
162.404
162.551
162.708
162.861
163.005
163.133
163.231
163.284
163.276
163.187
162.997
162.68
162.207
161.546
160.659
159.503
158.029
156.181
153.9
151.122
147.784
143.825
139.195
133.868
127.849
121.184
114.114
161.565
161.531
161.497
161.548
161.646
161.743
161.826
161.891
161.929
161.926
161.87
161.741
161.523
161.194
160.73
160.103
159.282
158.234
156.919
155.294
153.314
150.93
148.094
144.761
140.892
136.46
131.459
125.904
119.826
113.408
160.761
160.715
160.653
160.665
160.714
160.753
160.767
160.752
160.701
160.601
160.437
160.193
159.851
159.391
158.789
158.02
157.057
155.867
154.417
152.672
150.593
148.143
145.286
141.992
138.237
134.009
129.309
124.155
118.575
112.726
159.935
159.876
159.787
159.761
159.761
159.742
159.687
159.595
159.457
159.262
158.995
158.64
158.181
157.598
156.87
155.974
154.884
153.573
152.012
150.172
148.024
145.537
142.689
139.457
135.83
131.802
127.382
122.59
117.452
112.1
159.09
159.018
158.902
158.838
158.791
158.714
158.592
158.425
158.203
157.917
157.552
157.093
156.524
155.828
154.986
153.976
152.776
151.363
149.713
147.802
145.609
143.11
140.29
137.136
133.643
129.811
125.652
121.186
116.436
111.514
158.23
158.145
158.003
157.901
157.808
157.675
157.489
157.248
156.947
156.574
156.116
155.559
154.89
154.091
153.146
152.036
150.742
149.245
147.526
145.565
143.346
140.854
138.078
135.012
131.654
128.009
124.091
119.918
115.511
110.964
157.358
157.261
157.094
156.956
156.817
156.63
156.382
156.072
155.695
155.24
154.695
154.049
153.287
152.396
151.36
150.164
148.791
147.227
145.455
143.461
141.234
138.763
136.041
133.068
129.844
126.377
122.679
118.77
114.666
110.45
156.48
156.371
156.179
156.006
155.823
155.585
155.278
154.903
154.454
153.923
153.298
152.569
151.725
150.751
149.636
148.367
146.93
145.312
143.502
141.49
139.267
136.827
134.167
131.288
128.194
124.894
121.4
117.727
113.894
109.969
155.601
155.48
155.264
155.058
154.834
154.547
154.185
153.748
153.232
152.63
151.933
151.13
150.21
149.165
147.982
146.651
145.162
143.504
141.669
139.65
137.441
135.04
132.446
129.661
126.692
123.546
120.237
116.779
113.187
109.519
154.724
154.593
154.354
154.117
153.854
153.521
153.107
152.613
152.036
151.37
150.606
149.736
148.752
147.643
146.403
145.021
143.491
141.804
139.954
137.937
135.75
133.393
130.866
128.174
125.322
122.321
119.18
115.915
112.537
109.098
153.858
153.716
153.456
153.189
152.889
152.514
152.052
151.505
150.873
150.148
149.325
148.396
147.355
146.193
144.904
143.482
141.919
140.212
138.356
136.349
134.19
131.879
129.419
126.816
124.075
121.206
118.219
115.127
111.941
108.705
153.006
152.855
152.576
152.281
151.947
151.532
151.026
150.432
149.749
148.972
148.097
147.116
146.025
144.818
143.49
142.035
140.449
138.73
136.875
134.882
132.754
130.491
128.098
125.579
122.941
120.193
117.345
114.408
111.393
108.337
152.177
152.017
151.72
151.399
151.034
150.583
150.037
149.4
148.671
147.849
146.927
145.901
144.769
143.524
142.163
140.683
139.082
137.357
135.507
133.534
131.438
129.223
126.893
124.454
121.911
119.274
116.552
113.754
110.89
107.993
151.376
151.208
150.894
150.55
150.157
149.674
149.092
148.416
147.647
146.783
145.822
144.758
143.59
142.314
140.928
139.43
137.818
136.092
134.252
132.3
130.238
128.07
125.801
123.435
120.98
118.443
115.833
113.159
110.43
107.672
150.61
150.435
150.106
149.741
149.323
148.81
148.196
147.486
146.682
145.783
144.787
143.691
142.494
141.193
139.787
138.276
136.658
134.935
133.108
131.178
129.15
127.027
124.814
122.516
120.14
117.694
115.184
112.62
110.01
107.376
149.887
149.705
149.364
148.98
148.538
147.999
147.357
146.617
145.783
144.854
143.829
142.706
141.484
140.164
138.743
137.223
135.603
133.886
132.073
130.166
128.171
126.09
123.929
121.693
119.389
117.023
114.602
112.135
109.629
107.103
149.214
149.027
148.674
148.273
147.81
147.249
146.582
145.817
144.957
144.002
142.952
141.807
140.566
139.23
137.799
136.273
134.654
132.945
131.146
129.263
127.298
125.257
123.143
120.963
118.722
116.428
114.085
111.703
109.287
106.855
148.6
148.408
148.044
147.628
147.147
146.566
145.879
145.091
144.209
143.233
142.163
141
139.744
138.396
136.957
135.429
133.813
132.112
130.329
128.467
126.531
124.526
122.455
120.324
118.139
115.907
113.633
111.324
108.986
106.634
148.053
147.856
147.482
147.052
146.556
145.958
145.253
144.447
143.547
142.553
141.467
140.29
139.022
137.665
136.222
134.693
133.081
131.389
129.62
127.779
125.868
123.895
121.861
119.774
117.637
115.458
113.242
110.996
108.724
106.44
147.582
147.38
146.996
146.554
146.045
145.433
144.713
143.892
142.977
141.969
140.871
139.682
138.406
137.044
135.597
134.069
132.462
130.779
129.024
127.2
125.313
123.366
121.365
119.315
117.219
115.085
112.918
110.724
108.508
106.281
147.196
146.989
146.595
146.141
145.62
144.996
144.264
143.431
142.504
141.486
140.378
139.181
137.899
136.532
135.085
133.558
131.956
130.281
128.538
126.73
124.862
122.938
120.964
118.943
116.881
114.783
112.655
110.503
108.331
106.148
146.909
146.691
146.285
145.822
145.293
144.66
143.919
143.078
142.142
141.116
140.001
138.799
137.512
136.144
134.696
133.172
131.574
129.907
128.174
126.378
124.526
122.621
120.668
118.671
116.636
114.568
112.471
110.352
108.215
106.068
146.735
146.488
146.064
145.594
145.059
144.422
143.675
142.828
141.887
140.856
139.737
138.532
137.243
135.874
134.427
132.905
131.311
129.649
127.922
126.136
124.294
122.402
120.463
118.482
116.464
114.414
112.338
110.239
108.124
105.998
146.713
146.414
145.965
145.487
144.948
144.306
143.555
142.704
141.76
140.727
139.607
138.401
137.113
135.745
134.3
132.781
131.192
129.535
127.815
126.037
124.204
122.321
120.393
118.424
116.418
114.382
112.319
110.235
108.135
106.023
9.41758
28.8366
52.1942
98.6652
97.0702
94.4619
109.923
103.191
97.7315
106.348
99.8374
95.2336
106.587
101.125
96.7002
107.445
102.556
98.2603
107.588
103.103
99.0967
107.459
103.365
99.7019
107.302
103.562
100.223
107.13
103.697
100.647
106.937
103.774
100.98
106.734
103.809
101.24
106.526
103.812
101.442
106.318
103.792
101.597
106.111
103.754
101.712
105.908
103.7
101.795
105.708
103.636
101.851
105.513
103.562
101.884
105.324
103.48
101.897
105.141
103.394
101.894
104.967
103.305
101.878
104.802
103.215
101.852
104.648
103.127
101.818
104.508
103.044
101.783
104.383
102.968
101.747
104.283
102.908
101.72
104.195
102.854
101.693
104.154
102.839
101.697
104.107
102.81
101.684
104.156
102.874
101.755
73.6767
73.2666
69.1863
64.3522
58.8588
52.7089
46.0208
38.8662
31.298
23.3795
15.1905
6.82881
-1.59167
-9.92752
-18.0109
-25.6655
-32.6992
-38.8991
-44.0482
-47.8396
-49.9779
-50.1891
-48.5828
-45.3537
-40.6846
-34.8754
-28.2167
-20.9223
-13.1095
-4.76836
88.3514
79.2783
72.4085
66.2898
59.9865
53.3105
46.2831
38.9075
31.196
23.1914
14.961
6.59266
-1.80473
-10.0988
-18.1327
-25.7352
-32.7189
-38.8742
-43.9714
-47.7288
-49.8641
-50.1415
-48.5345
-45.3023
-40.7125
-34.9297
-28.262
-20.9433
-13.0558
-4.72355
89.6087
80.4383
73.8836
67.5667
60.8485
53.8549
46.6363
39.1493
31.3784
23.355
15.1395
6.81374
-1.51879
-9.73228
-17.6781
-25.1895
-32.0821
-38.1488
-43.1582
-46.8488
-48.9597
-49.2849
-47.749
-44.6202
-40.1549
-34.5131
-27.9587
-20.7313
-12.9427
-4.75048
88.5352
80.3337
73.9458
67.7285
61.0877
54.1257
46.9235
39.4661
31.7466
23.7957
15.6716
7.45348
-0.758103
-8.84129
-16.6527
-24.0296
-30.7907
-36.7334
-41.633
-45.2458
-47.3349
-47.7205
-46.3373
-43.3565
-39.0684
-33.6859
-27.3681
-20.345
-12.756
-4.75945
90.0009
81.8257
74.7671
68.0637
61.2889
54.3579
47.232
39.8725
32.2744
24.4675
16.5049
8.4608
0.431091
-7.46653
-15.0933
-22.291
-28.8827
-34.6722
-39.4459
-42.9793
-45.0612
-45.5369
-44.3579
-41.6011
-37.5657
-32.4986
-26.5223
-19.8079
-12.4988
-4.73968
91.9149
83.9978
76.4252
69.1467
62.032
54.9572
47.8127
40.5186
33.0441
25.402
17.6339
9.80486
2.00216
-5.66423
-13.0629
-20.0425
-26.4333
-32.0485
-36.6881
-40.1483
-42.2427
-42.838
-41.8898
-39.4557
-35.7401
-31.0183
-25.4594
-19.1358
-12.1678
-4.68099
93.41
86.0847
78.4366
70.8563
63.4689
56.197
48.942
41.632
34.2267
26.7192
19.1331
11.5195
3.95432
-3.46339
-10.613
-17.3538
-23.5272
-28.9593
-33.4665
-36.8658
-38.9942
-39.7354
-39.0486
-36.9813
-33.6589
-29.3364
-24.2066
-18.3273
-11.7502
-4.57063
94.6537
87.9967
80.5791
72.9913
65.5189
58.1383
50.7841
43.4201
36.0267
28.5979
21.148
13.7151
6.36221
-0.824154
-7.73609
-14.2462
-20.21
-25.4697
-29.8602
-33.2196
-35.4055
-36.3166
-35.9136
-34.2306
-31.3694
-27.4778
-22.7704
-17.3591
-11.2191
-4.3962
95.7195
89.7036
82.6981
75.3374
67.9837
60.6518
53.3037
45.9358
38.5581
31.1824
23.8289
16.5331
9.35008
2.35558
-4.35496
-10.668
-16.4544
-21.5735
-25.8793
-29.2301
-31.5022
-32.6066
-32.5049
-31.2177
-28.8197
-25.4181
-21.1673
-16.2046
-10.5408
-4.14948
96.5997
91.168
84.6642
77.6893
70.6244
63.5048
56.3076
49.0488
41.7611
34.476
27.2264
20.0538
13.0133
6.17567
-0.372635
-6.52991
-12.1813
-17.2023
-21.4648
-24.8452
-27.2361
-28.5589
-28.7757
-27.8955
-25.9713
-23.0862
-19.33
-14.8444
-9.68685
-3.82715
97.3157
92.4004
86.4167
79.9072
73.2416
66.4612
59.548
52.5249
45.4359
38.3254
31.2371
24.2203
17.3338
10.6477
4.2437
-1.78463
-7.33375
-12.293
-16.5493
-19.9947
-22.5351
-24.1001
-24.6524
-24.1921
-22.7547
-20.4015
-17.2016
-13.2495
-8.64804
-3.43572
97.9009
93.4352
87.9471
81.9213
75.7047
69.3379
62.8013
56.116
49.3282
42.4867
35.6406
28.8434
22.1566
15.6504
9.40399
3.50503
-1.95141
-6.86544
-11.1364
-14.6687
-17.3786
-19.2026
-20.1036
-20.075
-19.1396
-17.3435
-14.7462
-11.4081
-7.45316
-2.98938
98.3819
94.3058
89.2698
83.7088
77.9459
72.0187
65.9042
59.6182
53.2029
46.7057
40.1755
33.6655
27.2366
20.9574
14.9037
9.15788
3.80792
-1.05521
-5.34079
-8.96308
-11.847
-13.934
-15.1877
-15.5966
-15.1749
-13.9584
-11.999
-9.35635
-6.14425
-2.50684
98.7781
95.0396
90.4072
85.2743
79.9424
74.4463
68.7605
62.8946
56.8848
50.7742
44.6076
38.4346
32.3122
26.3048
20.483
14.9232
9.70602
4.91426
0.62993
-3.0697
-6.11662
-8.4569
-10.055
-10.8969
-10.9907
-10.366
-9.07155
-7.17428
-4.76515
-2.0025
99.1041
95.6582
91.3824
86.635
81.6981
76.6048
71.3281
65.8726
60.2687
54.5539
48.7677
42.9542
37.1646
31.457
25.8952
20.5485
15.4895
10.7927
6.53162
2.77577
-0.413447
-2.98654
-4.90965
-6.16739
-6.76445
-6.72606
-6.09795
-4.94729
-3.36585
-1.49428
99.3709
96.1786
92.2166
87.8123
83.2299
78.502
73.6012
68.5281
63.3081
57.9735
52.5585
47.1013
41.6465
36.245
30.9534
25.8326
20.9469
16.3623
12.1439
8.35343
5.04584
2.266
0.0454535
-1.6003
-2.67376
-3.19672
-3.21134
-2.78178
-1.9973
-0.982889
99.5869
96.6147
92.9279
88.8266
84.5591
80.157
75.5934
70.8662
65.9965
61.0121
55.9423
50.8198
45.6829
40.5755
35.5466
30.6491
25.9389
21.4734
17.3096
13.5015
10.0977
7.13821
4.65178
2.6533
1.14168
0.0981814
-0.515087
-0.756962
-0.709592
-0.486702
99.7592
96.9774
93.5315
89.697
85.7069
81.5925
77.3274
72.9075
68.3502
63.6797
58.9209
54.1018
49.2548
44.4176
39.632
34.9435
30.4
26.051
21.9457
18.1308
14.6488
11.5348
8.81467
6.50215
4.59714
3.08371
1.9286
1.07951
0.463264
-0.021142
99.8938
97.2764
94.0408
90.4401
86.6933
82.831
78.8278
74.6779
70.3957
66.0019
61.518
56.9675
52.3781
47.7817
43.214
38.7137
34.3216
30.0801
26.0313
22.2154
18.6689
15.4227
12.4993
9.91148
7.6597
5.73063
4.09562
2.70927
1.50811
0.405087
99.9959
97.52
94.4672
91.0708
87.5365
83.8941
80.1192
76.2047
72.1623
68.0099
63.7659
59.4501
55.0858
50.7001
46.3233
41.9883
37.7299
33.584
29.5865
25.7719
22.1716
18.8122
15.7136
12.8871
10.3337
8.04241
5.98892
4.13445
2.4249
0.786807
100.071
97.7157
94.8215
91.6027
88.2529
84.8012
81.2242
77.5136
73.6789
69.7356
65.6992
61.5863
57.4167
53.2132
49.0015
44.8095
40.6669
36.604
32.6516
28.8391
25.1934
21.7374
18.4886
15.4569
12.6438
10.0402
7.62578
5.36767
3.22021
1.12204
100.122
97.8711
95.1133
92.0481
88.8576
85.5704
82.1638
78.6286
74.9727
71.209
67.3509
63.4123
59.4096
55.3623
51.2921
47.2227
43.1792
39.1876
35.2741
31.4637
27.7796
24.2416
20.8647
17.658
14.6231
11.7526
9.02959
6.4263
3.90425
1.41225
100.156
97.9923
95.3513
92.4179
89.364
86.2174
82.9564
79.5711
76.0677
72.4572
68.751
64.9607
61.1001
57.1855
53.2354
49.2701
45.3107
41.3797
37.4991
33.6907
29.9743
26.367
22.8819
19.5271
16.3042
13.2075
10.2227
7.32645
4.48623
1.65932
100.177
98.0868
95.5449
92.7234
89.7854
86.758
83.6202
80.3616
76.987
73.5058
69.9278
66.2625
62.5215
58.7186
54.8696
50.9917
47.1031
43.2228
39.3701
35.5634
31.82
28.1547
24.5791
21.1001
17.7196
14.433
11.2285
8.08606
4.97808
1.86838
100.189
98.1586
95.6994
92.9717
90.1307
87.2027
84.1676
81.0146
77.7472
74.3737
70.9022
67.3408
63.699
59.9888
56.2235
52.418
48.5879
44.7496
40.9198
37.1146
33.3488
29.6355
25.9848
22.4031
18.8921
15.4481
12.0612
8.71449
5.38421
2.03969
100.199
98.2184
95.8272
93.1767
90.4152
87.5686
84.6175
81.5508
78.371
75.0853
71.7006
68.2237
64.6627
61.0278
57.3306
53.5838
49.8012
45.997
42.1858
38.3816
34.5976
30.8453
27.1336
23.4684
19.8513
16.2794
12.7441
9.231
5.71927
2.18186
100.203
98.2609
95.9234
93.3342
90.6356
87.8534
84.9686
81.97
78.8593
75.6427
72.3263
68.9159
65.4183
61.8425
58.1985
54.4977
50.7521
46.9744
43.1774
39.3738
35.5753
31.7921
28.0323
24.3012
20.6005
16.9276
13.2753
9.63084
5.9762
2.28811
100.227
98.3129
96.0164
93.4738
90.8229
88.0891
85.2543
82.3069
79.248
76.0833
72.818
69.4572
66.0068
62.4748
58.8703
55.2034
51.4849
47.7263
43.9394
40.1354
36.3252
32.5181
28.7215
24.9404
21.1763
17.4269
13.6857
9.94147
6.17784
2.37324
100.234
98.3366
96.0667
93.5555
90.9366
88.2351
85.4334
82.52
79.4955
76.3651
73.1337
69.8057
66.3867
62.8838
59.3054
55.6609
51.9604
48.2146
44.4343
40.6303
36.8124
32.9896
29.1688
25.3545
21.5482
17.7477
13.947
10.1353
6.29779
2.41666
100.304
98.4088
96.1545
93.6624
91.0616
88.3776
85.5936
82.6981
79.6913
76.5782
73.3634
70.0512
66.6467
63.1568
59.5896
55.9541
52.26
48.5176
44.7374
40.9299
37.1047
33.2703
29.4335
25.5988
21.7676
17.9376
14.1023
10.2505
6.3645
2.417
)
;

boundaryField
{
    inlet
    {
        type            zeroGradient;
    }
    outlet
    {
        type            fixedValue;
        value           uniform 0;
    }
    flap
    {
        type            zeroGradient;
    }
    upperWall
    {
        type            zeroGradient;
    }
    lowerWall
    {
        type            zeroGradient;
    }
    frontAndBack
    {
        type            empty;
    }
}


// ************************************************************************* //
