/*--------------------------------*- C++ -*----------------------------------*\
| =========                 |                                                 |
| \\      /  F ield         | OpenFOAM: The Open Source CFD Toolbox           |
|  \\    /   O peration     | Version:  dev                                   |
|   \\  /    A nd           | Web:      www.OpenFOAM.org                      |
|    \\/     M anipulation  |                                                 |
\*---------------------------------------------------------------------------*/
FoamFile
{
    version     2.0;
    format      ascii;
    class       surfaceVectorField;
    location    "0.81";
    object      Uf;
}
// * * * * * * * * * * * * * * * * * * * * * * * * * * * * * * * * * * * * * //

dimensions      [0 1 -1 0 0 0 0];

internalField   nonuniform List<vector> 
5457
(
(9.91066 -1.45326e-21 0.0233374)
(9.95892 0 0.0385856)
(9.80995 1.6272e-21 0.0300034)
(9.91843 -1.42879e-21 0.0449153)
(9.69523 -1.79917e-21 0.035521)
(9.85131 -2.96258e-21 0.0530517)
(9.56425 -1.29272e-21 0.0412263)
(9.75721 1.5122e-21 0.0627795)
(9.41697 3.14706e-21 0.0471446)
(9.64393 3.2434e-21 0.0731182)
(9.25356 0 0.0533284)
(9.51452 -1.32385e-20 0.083993)
(9.07376 7.37645e-21 0.0599122)
(9.36849 -1.38193e-20 0.0956208)
(8.87702 -5.57928e-22 0.0670248)
(9.2048 3.5591e-23 0.108204)
(8.66264 -7.43044e-21 0.0747783)
(9.0227 -4.41322e-23 0.121902)
(8.42976 1.68069e-20 0.0832831)
(8.82152 7.82495e-21 0.13687)
(8.17741 -5.48355e-21 0.0926557)
(8.60045 -4.90845e-20 0.153272)
(7.90449 -3.93611e-20 0.103018)
(8.35845 5.06462e-20 0.171284)
(7.60984 1.21633e-21 0.114493)
(8.09442 4.89824e-20 0.19108)
(7.29226 1.83413e-20 0.127209)
(7.80721 -5.74799e-20 0.212821)
(6.95054 0 0.141289)
(7.4956 -7.79715e-20 0.236659)
(6.58356 -4.39044e-20 0.156847)
(7.15838 8.05585e-20 0.262714)
(6.19036 -8.51629e-21 0.173979)
(6.79444 -3.26269e-20 0.291054)
(5.77023 4.48785e-20 0.19275)
(6.40287 4.44939e-20 0.321679)
(5.32283 1.15766e-20 0.213173)
(5.98302 2.3386e-20 0.354473)
(4.84837 2.62055e-20 0.235166)
(5.53463 0 0.389147)
(4.34789 2.53861e-20 0.25853)
(5.05806 -4.57257e-19 0.425178)
(3.82339 -5.72101e-20 0.282918)
(4.5545 0 0.461754)
(3.27818 1.83827e-19 0.307798)
(4.02617 -1.91239e-21 0.497714)
(2.71704 -1.30849e-20 0.332378)
(3.47656 -5.71723e-19 0.531455)
(2.14654 -2.40074e-19 0.355457)
(2.91059 1.66212e-18 0.5608)
(1.57533 0 0.374827)
(2.33492 5.47836e-21 0.582779)
(1.01457 1.05813e-18 0.382154)
(1.75798 -1.007e-18 0.592876)
(0.480027 -4.21732e-21 0.312056)
(1.18819 3.10178e-18 0.579128)
(0.0435819 1.32937e-18 0.0300757)
(0.58391 -3.07153e-18 0.460879)
(0.328439 1.10535e-18 0.0613744)
(9.99881 0 0.0480811)
(9.98886 -4.13088e-20 0.039092)
(9.96299 -6.04326e-21 0.0639855)
(9.97641 -2.84768e-21 0.0608746)
(9.90706 4.17748e-22 0.078001)
(9.94065 -1.77786e-20 0.0788956)
(9.83256 6.07377e-21 0.0929463)
(9.87829 1.84196e-20 0.0984676)
(9.73945 -1.34388e-20 0.108832)
(9.796 3.83693e-20 0.119325)
(9.6278 -2.70781e-20 0.125713)
(9.69697 5.39493e-23 0.14136)
(9.49745 -2.09228e-20 0.143864)
(9.58096 1.38213e-20 0.164924)
(9.34797 5.49392e-22 0.16356)
(9.44709 -2.15979e-20 0.190398)
(9.17876 1.53463e-20 0.185043)
(9.29473 -5.26553e-20 0.218103)
(8.98906 -5.90188e-20 0.208556)
(9.12331 1.24841e-19 0.248351)
(8.77796 8.7114e-21 0.234357)
(8.93215 -1.14109e-19 0.281478)
(8.54444 1.38981e-19 0.262708)
(8.7203 7.20482e-20 0.317852)
(8.28734 -1.14616e-20 0.293864)
(8.48679 -7.06042e-20 0.357824)
(8.00549 -1.54145e-19 0.328065)
(8.23052 2.16423e-19 0.401738)
(7.69764 5.1517e-21 0.365523)
(7.95032 -3.85713e-19 0.449923)
(7.36262 9.00105e-20 0.406388)
(7.645 8.37573e-20 0.502656)
(6.99932 2.16652e-20 0.450723)
(7.31339 5.04186e-19 0.560118)
(6.60688 2.26378e-20 0.498458)
(6.9544 -3.37195e-19 0.622357)
(6.18473 1.13668e-20 0.54931)
(6.56718 -1.1417e-20 0.689214)
(5.73277 -4.90921e-19 0.602709)
(6.15111 0 0.760199)
(5.25155 -4.76612e-19 0.657697)
(5.70597 -4.33274e-19 0.834374)
(4.74254 5.60038e-20 0.712838)
(5.23215 0 0.91023)
(4.20831 -7.64468e-19 0.766105)
(4.73082 -5.27211e-20 0.98555)
(3.65279 1.13004e-18 0.814698)
(4.20407 -8.08053e-19 1.05718)
(3.08144 1.891e-18 0.854655)
(3.65495 3.53748e-18 1.12064)
(2.50184 -1.0066e-18 0.879601)
(3.08751 1.66759e-20 1.16942)
(1.92473 1.05282e-18 0.876196)
(2.50635 -2.96034e-18 1.19245)
(1.36396 1.24471e-20 0.810329)
(1.91498 6.27993e-18 1.16587)
(0.792705 -3.08905e-18 0.669517)
(1.27676 -9.73565e-18 1.04076)
(0.812413 4.80146e-18 0.800697)
(9.99169 -4.35584e-20 0.0544778)
(9.98654 2.71267e-21 0.042693)
(9.95953 -1.48662e-20 0.0790329)
(9.97166 4.26248e-20 0.0752352)
(9.9074 8.44279e-22 0.102217)
(9.93709 -1.18488e-20 0.103035)
(9.83808 5.10863e-20 0.126914)
(9.87783 3.6871e-20 0.131733)
(9.75193 5.1193e-20 0.153315)
(9.79949 1.28458e-20 0.162146)
(9.64894 4.11931e-20 0.181537)
(9.7053 1.33996e-20 0.194355)
(9.52899 1.25409e-20 0.211948)
(9.59527 -2.74605e-20 0.228782)
(9.3918 -7.53342e-20 0.244949)
(9.46871 -5.76245e-20 0.265933)
(9.2369 5.98408e-20 0.28092)
(9.32509 5.92459e-20 0.306274)
(9.06368 6.57807e-20 0.320257)
(9.16404 -7.2614e-21 0.350263)
(8.87139 -4.76885e-20 0.363387)
(8.985 -2.66098e-22 0.398398)
(8.65915 -1.39915e-19 0.410753)
(8.78725 1.35471e-19 0.451204)
(8.42597 1.61954e-19 0.462791)
(8.57005 -2.94985e-19 0.509213)
(8.17079 -2.48581e-20 0.519926)
(8.33252 2.97273e-19 0.572953)
(7.89245 -2.99629e-19 0.582546)
(8.07371 -3.07862e-19 0.64294)
(7.58979 5.04703e-19 0.650951)
(7.79262 -1.80659e-21 0.719634)
(7.26162 1.32173e-19 0.725311)
(7.48818 5.04256e-19 0.803385)
(6.90689 -3.66109e-19 0.805592)
(7.15933 -2.18776e-20 0.894369)
(6.52467 -2.25403e-20 0.891433)
(6.80513 -3.81887e-19 0.992499)
(6.11429 5.066e-20 0.982008)
(6.42469 7.5674e-19 1.09726)
(5.67538 4.91593e-20 1.07588)
(6.01721 -8.27472e-19 1.20753)
(5.20814 -1.09412e-19 1.1708)
(5.58214 -8.19447e-19 1.32138)
(4.71342 -1.06867e-19 1.26352)
(5.11921 8.41184e-19 1.43586)
(4.19277 1.65188e-18 1.34933)
(4.62845 1.08252e-19 1.54667)
(3.64833 1.63305e-18 1.42159)
(4.10991 1.85929e-18 1.64754)
(3.08222 -1.95059e-18 1.47048)
(3.56318 1.11748e-20 1.72946)
(2.49419 2.27623e-18 1.47998)
(2.98582 2.10474e-18 1.77909)
(1.87245 -3.36142e-18 1.42415)
(2.37267 3.73609e-18 1.77576)
(1.17344 -1.54718e-18 1.30862)
(1.68472 -7.7149e-18 1.69484)
(1.04305 8.0807e-19 1.5669)
(9.98721 8.95468e-20 0.0640191)
(9.98512 4.405e-20 0.0482287)
(9.95527 4.46152e-20 0.0987145)
(9.96838 4.54124e-20 0.0895033)
(9.90403 2.5053e-20 0.131907)
(9.93366 4.71122e-20 0.126774)
(9.83578 -1.7533e-21 0.166303)
(9.87543 2.46e-20 0.164502)
(9.75125 -2.49333e-20 0.202591)
(9.79858 -5.09492e-20 0.204187)
(9.65049 -5.59792e-20 0.241144)
(9.70621 7.96168e-20 0.246229)
(9.53347 -9.81516e-20 0.282472)
(9.5985 -1.09935e-19 0.291116)
(9.40006 7.8961e-20 0.327121)
(9.4749 -1.44332e-20 0.339436)
(9.24997 -8.96078e-21 0.375629)
(9.335 6.02394e-20 0.391768)
(9.08279 -7.32303e-20 0.428555)
(9.17855 -1.2436e-19 0.448707)
(8.89796 1.85164e-19 0.486484)
(9.00514 4.8254e-20 0.510878)
(8.69489 -2.65831e-20 0.550024)
(8.81426 1.35537e-19 0.578921)
(8.4729 -1.50142e-19 0.619788)
(8.60538 1.40437e-19 0.653501)
(8.23123 4.5075e-21 0.69639)
(8.37789 -2.84412e-19 0.735296)
(7.96908 -5.06037e-21 0.780414)
(8.13114 0 0.824981)
(7.68556 5.61599e-21 0.872358)
(7.86445 -6.21179e-21 0.923195)
(7.37972 3.41979e-19 0.972572)
(7.57702 8.45426e-23 1.03047)
(7.05061 -4.26685e-20 1.08118)
(7.26798 3.48278e-19 1.14713)
(6.69731 4.14678e-19 1.19792)
(6.93651 -4.03632e-19 1.27326)
(6.31888 -1.43617e-19 1.32197)
(6.58168 7.57364e-19 1.40845)
(5.91437 -1.69639e-18 1.45174)
(6.20244 -8.77409e-19 1.55164)
(5.48285 1.51165e-19 1.58462)
(5.7975 -9.19352e-19 1.70077)
(5.02341 1.0478e-18 1.71668)
(5.36544 9.49053e-19 1.85262)
(4.53488 3.36866e-19 1.84213)
(4.90431 -1.82242e-18 2.00232)
(4.0154 2.25317e-19 1.95262)
(4.41115 2.1383e-19 2.14267)
(3.46099 4.05133e-18 2.03647)
(3.88149 5.42461e-18 2.26338)
(2.86283 3.58695e-18 2.07735)
(3.30733 -3.56364e-18 2.35016)
(2.20274 -5.80604e-19 2.05129)
(2.67843 7.3465e-18 2.38339)
(1.46742 -5.12611e-18 1.9646)
(1.97155 -7.73089e-18 2.33365)
(1.2341 -6.43941e-19 2.24789)
(9.98494 -5.90029e-23 0.0743874)
(9.98436 8.7617e-20 0.0547445)
(9.95261 4.79504e-20 0.1179)
(9.96661 -1.35961e-19 0.103953)
(9.90213 4.6245e-20 0.160008)
(9.93185 5.12781e-23 0.150167)
(9.83497 -2.59252e-20 0.203281)
(9.87463 4.8808e-20 0.196763)
(9.7519 5.59198e-20 0.248831)
(9.79933 2.52321e-20 0.245517)
(9.65306 2.23435e-20 0.297265)
(9.70886 2.66677e-20 0.297144)
(9.53843 -2.45768e-20 0.349178)
(9.60347 -2.20155e-22 0.352215)
(9.40793 -3.19096e-20 0.405197)
(9.48266 -5.69359e-20 0.41138)
(9.26136 -5.82666e-20 0.465964)
(9.34609 1.77451e-19 0.475318)
(9.09839 0 0.532147)
(9.19358 -1.53249e-19 0.544744)
(8.91862 0 0.604428)
(9.0248 0 0.620386)
(8.72159 3.02667e-19 0.68351)
(8.83935 0 0.70297)
(8.50681 -4.87655e-22 0.770118)
(8.63682 3.72084e-20 0.793268)
(8.27378 -2.84565e-19 0.864985)
(8.41675 2.86518e-19 0.892056)
(8.02199 -1.24773e-21 0.96884)
(8.17869 -2.9792e-19 1.00011)
(7.75084 -1.16456e-20 1.08236)
(7.92224 -9.95602e-24 1.11823)
(7.45962 1.16087e-20 1.20605)
(7.64681 -1.02845e-20 1.24713)
(7.14759 -2.39247e-20 1.34021)
(7.35166 6.98538e-19 1.3873)
(6.81392 -4.37308e-20 1.48474)
(7.03612 -1.49822e-20 1.53899)
(6.45762 5.53987e-22 1.63902)
(6.69928 -1.45317e-18 1.70201)
(6.07736 -1.00276e-19 1.80151)
(6.33994 8.44772e-19 1.87552)
(5.67145 -9.83566e-20 1.96957)
(5.95632 1.30296e-20 2.0576)
(5.23759 -1.95045e-18 2.13907)
(5.54606 1.42748e-20 2.24509)
(4.77224 -1.9308e-18 2.30385)
(5.10568 -5.25435e-18 2.4331)
(4.27024 5.42946e-18 2.45472)
(4.62989 3.39942e-18 2.61407)
(3.72367 -2.16322e-18 2.57853)
(4.1113 7.17588e-18 2.77671)
(3.1204 1.43972e-19 2.65724)
(3.53885 -1.11104e-17 2.9045)
(2.44358 3.36236e-19 2.66256)
(2.89917 1.12637e-17 2.97462)
(1.70158 -3.015e-18 2.59039)
(2.1911 -1.07817e-17 2.94098)
(1.39992 4.28208e-18 2.85358)
(9.98382 -5.21122e-20 0.0851344)
(9.98394 5.55972e-21 0.0617424)
(9.95124 -1.81306e-19 0.136881)
(9.96582 -3.979e-20 0.118519)
(9.90166 3.51287e-21 0.187643)
(9.93136 -5.87953e-20 0.173152)
(9.83592 9.95562e-20 0.239773)
(9.87532 -2.43298e-20 0.228355)
(9.75468 -3.99844e-21 0.294583)
(9.80184 2.53289e-20 0.285963)
(9.6581 3.62648e-21 0.352829)
(9.71364 -5.28954e-20 0.346922)
(9.5462 -3.35389e-20 0.415165)
(9.61095 5.46442e-20 0.411897)
(9.41893 1.56374e-19 0.482289)
(9.49334 -8.58158e-20 0.481597)
(9.27612 7.70575e-20 0.554943)
(9.36052 2.36835e-19 0.556792)
(9.11751 -1.50812e-19 0.633899)
(9.21231 -2.45497e-19 0.638303)
(8.94276 0 0.719929)
(9.04849 -1.28643e-19 0.726947)
(8.7515 -2.65027e-19 0.813831)
(8.86868 2.62818e-19 0.823535)
(8.54332 3.28082e-19 0.916424)
(8.67251 -2.65873e-21 0.928931)
(8.31781 2.64567e-19 1.02852)
(8.45966 2.92687e-19 1.04399)
(8.07465 -2.92324e-19 1.15096)
(8.22967 -2.79787e-19 1.16953)
(7.81344 1.20173e-21 1.28458)
(7.9823 1.2206e-21 1.30649)
(7.5336 6.87323e-19 1.43009)
(7.71713 6.46789e-19 1.45579)
(7.23447 6.98253e-19 1.58793)
(7.43343 6.84757e-19 1.61809)
(6.91529 -1.44423e-18 1.75821)
(7.13054 -6.32653e-19 1.7938)
(6.57497 -5.80693e-19 1.94057)
(6.80752 -1.45538e-18 1.98302)
(6.2119 9.48821e-19 2.13377)
(6.46304 2.32521e-18 2.18526)
(5.82375 1.27584e-19 2.33539)
(6.09485 1.62664e-18 2.39894)
(5.40717 -3.33622e-18 2.54144)
(5.69973 1.42929e-20 2.62119)
(4.95692 1.28022e-19 2.74571)
(5.27308 -3.37606e-18 2.84742)
(4.4655 5.16949e-18 2.93844)
(4.80798 6.77524e-18 3.06988)
(3.92269 -1.77373e-18 3.10459)
(4.29492 -1.58222e-18 3.2761)
(3.31552 -6.93145e-20 3.22223)
(3.72141 -3.48619e-18 3.44622)
(2.62894 3.24791e-19 3.25509)
(3.07064 6.9866e-18 3.55234)
(1.87838 -3.06929e-18 3.18459)
(2.36133 -3.87862e-18 3.53103)
(1.53871 -3.77117e-18 3.42235)
(9.98337 1.70139e-20 0.0960456)
(9.9837 -8.20974e-20 0.0689337)
(9.95089 8.23329e-20 0.155645)
(9.96567 9.61568e-20 0.133047)
(9.90239 -8.60085e-20 0.214717)
(9.93188 1.05134e-19 0.195649)
(9.83833 -9.7723e-20 0.275442)
(9.87722 -1.94385e-19 0.259154)
(9.75925 -2.49443e-20 0.339227)
(9.8058 -2.53937e-20 0.325362)
(9.66532 0 0.406953)
(9.7202 0 0.395368)
(9.5566 0 0.47935)
(9.62063 -5.42178e-20 0.469931)
(9.43305 0 0.557193)
(9.50669 0 0.54982)
(9.29454 -9.36856e-20 0.641321)
(9.37812 0 0.635892)
(9.14085 -2.21447e-19 0.732604)
(9.23477 -2.14136e-19 0.729058)
(8.97169 1.40409e-19 0.831901)
(9.07649 -6.60864e-20 0.83023)
(8.7867 5.2136e-19 0.940091)
(8.90292 2.63052e-19 0.940307)
(8.58553 -3.3494e-20 1.05808)
(8.71369 2.58641e-19 1.06023)
(8.36781 -2.60778e-19 1.18671)
(8.50861 -2.83929e-19 1.19094)
(8.13324 1.81941e-20 1.32693)
(8.28718 6.24068e-19 1.33327)
(7.88152 6.56503e-19 1.47974)
(8.04905 -6.22355e-19 1.48829)
(7.6121 6.45422e-19 1.64602)
(7.79393 1.25481e-18 1.65715)
(7.32429 -6.64437e-19 1.8264)
(7.52111 2.80749e-21 1.84068)
(7.01726 -6.54287e-19 2.02127)
(7.22975 -1.33352e-18 2.03951)
(6.68983 1.49838e-18 2.23058)
(6.91877 0 2.25403)
(6.34004 2.99782e-18 2.4535)
(6.58673 1.48273e-18 2.48423)
(5.96489 1.50145e-18 2.68805)
(6.23088 1.51704e-18 2.72904)
(5.56011 -5.04762e-20 2.93065)
(5.84708 -1.18055e-20 2.9861)
(5.11928 3.32984e-18 3.17518)
(5.42989 -1.56386e-18 3.25124)
(4.63328 6.02685e-21 3.41122)
(4.97117 4.87838e-18 3.51659)
(4.09007 -3.28996e-18 3.62152)
(4.45945 -6.61444e-18 3.7684)
(3.47615 3.54658e-18 3.77928)
(3.88143 3.3005e-18 3.98328)
(2.77729 2.85859e-18 3.83957)
(3.21619 3.70646e-18 4.1283)
(2.0069 -4.58208e-18 3.76853)
(2.49601 -4.4348e-19 4.12652)
(1.65204 -3.8412e-18 3.99517)
(9.98332 0 0.10694)
(9.98354 0 0.076147)
(9.95129 1.19073e-19 0.174071)
(9.96597 8.97674e-20 0.147379)
(9.90405 -8.69298e-21 0.2411)
(9.93317 -6.95546e-20 0.217573)
(9.8419 -1.19071e-19 0.310121)
(9.8801 -2.44182e-20 0.289058)
(9.76526 0 0.382579)
(9.81097 0 0.36357)
(9.67435 -5.51555e-20 0.459459)
(9.72829 5.22058e-20 0.442296)
(9.56923 -5.33269e-20 0.54157)
(9.63223 -5.40313e-20 0.526091)
(9.44989 0 0.629755)
(9.52242 1.68357e-19 0.615787)
(9.31622 -1.23916e-19 0.72494)
(9.39861 -5.78442e-20 0.712315)
(9.16804 -5.63548e-20 0.828084)
(9.2607 -1.82159e-19 0.816674)
(9.00508 6.17151e-20 0.940139)
(9.10852 -1.88012e-19 0.929868)
(8.82702 0 1.06206)
(8.94176 2.58182e-19 1.05288)
(8.63358 0 1.19483)
(8.76015 0 1.18672)
(8.42441 6.14806e-19 1.33937)
(8.56362 -2.79681e-19 1.33239)
(8.19912 -3.4022e-20 1.4967)
(8.35162 8.93411e-19 1.49089)
(7.95728 1.59132e-21 1.66798)
(8.12348 -6.41839e-19 1.66335)
(7.69844 5.9589e-19 1.85429)
(7.87894 6.65953e-19 1.85109)
(7.42182 -6.827e-19 2.0565)
(7.6174 6.67303e-19 2.0552)
(7.12637 -6.63035e-19 2.27525)
(7.33774 -1.32777e-18 2.27654)
(6.81069 0 2.51095)
(7.03864 -2.11218e-20 2.5159)
(6.47253 0 2.76333)
(6.71843 -2.17255e-20 2.7738)
(6.10824 -1.19127e-20 3.03097)
(6.37392 2.22992e-20 3.04988)
(5.71259 -1.53656e-18 3.31089)
(6.00016 -2.99182e-22 3.34245)
(5.27817 9.3259e-21 3.59723)
(5.59089 -1.42497e-18 3.64791)
(4.79448 -1.76828e-18 3.87893)
(5.13682 4.61437e-18 3.95854)
(4.2476 -1.09774e-20 4.13664)
(4.62436 -6.58523e-18 4.25961)
(3.62283 3.45003e-18 4.33906)
(4.03935 -1.4039e-19 4.52482)
(2.90576 4.30102e-19 4.43372)
(3.35603 -2.11051e-19 4.71699)
(2.1038 2.13949e-19 4.37201)
(2.61303 2.09172e-19 4.75087)
(1.74824 3.64351e-18 4.61286)
(9.98353 9.13186e-20 0.11768)
(9.98347 0 0.083268)
(9.95224 -1.01883e-19 0.192045)
(9.9666 1.11989e-19 0.161385)
(9.90648 -8.44427e-20 0.266691)
(9.93505 -1.16707e-19 0.238826)
(9.84647 9.51307e-20 0.343688)
(9.88382 6.51459e-22 0.317957)
(9.77257 5.31235e-20 0.424493)
(9.81723 4.97136e-20 0.400439)
(9.68504 5.15305e-20 0.51017)
(9.73779 1.03933e-19 0.487527)
(9.58394 1.71407e-19 0.601604)
(9.64562 1.6158e-19 0.58016)
(9.4693 1.06872e-19 0.69971)
(9.54039 1.64064e-21 0.679232)
(9.34101 -1.18077e-19 0.805498)
(9.42186 -2.31505e-19 0.785757)
(9.19886 -3.1399e-19 0.920013)
(9.28991 5.92393e-20 0.900841)
(9.04264 1.51939e-20 1.04428)
(9.14438 5.97992e-20 1.02554)
(8.87212 2.54482e-19 1.17931)
(8.98501 3.24419e-19 1.16089)
(8.68714 -2.83933e-19 1.32617)
(8.81171 -3.3085e-19 1.30792)
(8.4874 1.52018e-20 1.48593)
(8.62446 -2.80081e-19 1.4678)
(8.27231 2.64518e-19 1.65975)
(8.42268 2.51758e-19 1.64176)
(8.04126 4.0401e-20 1.84888)
(8.20553 1.8345e-20 1.83107)
(7.79376 7.37473e-19 2.05462)
(7.97259 1.98943e-20 2.03707)
(7.529 -2.46732e-23 2.27807)
(7.72328 6.53109e-19 2.26113)
(7.24568 -6.712e-19 2.52027)
(7.45629 -6.5775e-19 2.50449)
(6.94205 -4.29131e-20 2.78213)
(7.17001 -1.32951e-18 2.76839)
(6.61553 9.47181e-22 3.06406)
(6.86245 1.35297e-18 3.05394)
(6.26198 3.38277e-20 3.3654)
(6.53003 -1.48134e-18 3.36163)
(5.87527 1.05465e-19 3.68397)
(6.16726 9.08438e-20 3.69069)
(5.44694 3.21034e-18 4.01449)
(5.76701 -9.54099e-20 4.03834)
(4.96494 -2.32038e-19 4.3457)
(5.31859 4.40009e-18 4.39761)
(4.41327 -6.71794e-18 4.65679)
(4.80634 -3.08174e-19 4.7537)
(3.77491 -3.79344e-18 4.91309)
(4.21448 -6.47911e-18 5.07867)
(3.03404 -4.54447e-19 5.05655)
(3.51111 -3.40492e-18 5.33205)
(2.1911 3.65633e-18 5.02421)
(2.73425 3.31351e-18 5.42458)
(1.83978 2.1122e-18 5.30686)
(9.98394 2.25826e-20 0.128155)
(9.98346 -1.08033e-20 0.0902125)
(9.95365 9.27968e-20 0.209459)
(9.96745 -5.59959e-20 0.174951)
(9.90957 -2.94593e-20 0.291387)
(9.9374 -2.25875e-20 0.259312)
(9.85194 -4.39334e-20 0.376016)
(9.88827 -1.90108e-22 0.345735)
(9.78109 1.01474e-19 0.464804)
(9.82446 4.94423e-20 0.435824)
(9.69727 2.14975e-19 0.558884)
(9.74855 1.54644e-19 0.530883)
(9.60061 -1.08697e-20 0.659207)
(9.66064 1.07978e-19 0.63192)
(9.49114 -3.40671e-19 0.76677)
(9.56042 -2.77364e-19 0.739894)
(9.36874 -4.96054e-20 0.882684)
(9.44761 -5.88325e-20 0.855933)
(9.23318 4.33352e-19 1.00806)
(9.32208 6.07541e-20 0.981246)
(9.08428 3.73289e-19 1.14395)
(9.18381 3.72315e-19 1.1169)
(8.92196 -2.70832e-19 1.29141)
(9.03258 2.57211e-19 1.26392)
(8.74611 -3.26396e-19 1.45158)
(8.86838 -2.63549e-19 1.42341)
(8.55647 -3.61637e-20 1.62579)
(8.69107 2.74308e-19 1.59669)
(8.35244 2.15606e-21 1.81539)
(8.50012 -5.93614e-19 1.7853)
(8.13326 -2.14691e-21 2.02173)
(8.29491 3.69211e-20 1.99067)
(7.8983 -5.75283e-20 2.24625)
(8.07478 4.85162e-19 2.2142)
(7.64664 -1.94375e-20 2.49041)
(7.83902 -6.29699e-19 2.45754)
(7.37677 -1.32322e-18 2.75566)
(7.5862 -1.18409e-18 2.72236)
(7.0866 8.97226e-20 3.0435)
(7.31453 -2.74975e-20 3.0104)
(6.77327 -1.51405e-19 3.3551)
(7.02164 1.2978e-18 3.32339)
(6.43223 -1.41786e-18 3.69079)
(6.70376 -7.47557e-20 3.66285)
(6.05659 -1.11909e-19 4.0495)
(6.35511 -1.54498e-18 4.0292)
(5.6368 1.10842e-18 4.42699)
(5.96755 -2.75072e-19 4.42097)
(5.15906 4.32324e-18 4.81289)
(5.52903 1.47345e-18 4.83277)
(4.60495 -9.75708e-20 5.18641)
(5.02194 3.21387e-18 5.25132)
(3.95335 -6.06128e-18 5.51098)
(4.42743 -4.1969e-18 5.64929)
(3.1846 4.4759e-19 5.72489)
(3.70536 -1.4649e-18 5.98436)
(2.29046 1.64741e-18 5.74962)
(2.8847 4.95244e-18 6.16579)
(1.94093 -3.48525e-18 6.1027)
(9.98445 -8.99787e-20 0.138282)
(9.98358 1.6114e-19 0.0969349)
(9.95537 -1.70898e-19 0.226212)
(9.96847 1.21559e-19 0.187983)
(9.91321 7.08211e-21 0.315078)
(9.94012 2.29455e-20 0.278923)
(9.85817 9.41019e-20 0.406975)
(9.89337 4.84114e-20 0.372285)
(9.79063 1.04423e-19 0.503353)
(9.8326 -1.48995e-19 0.469596)
(9.71085 4.68304e-20 0.6054)
(9.7605 1.54192e-19 0.572196)
(9.61901 -1.64891e-19 0.714144)
(9.67722 -1.59436e-19 0.681167)
(9.5151 8.07637e-21 0.830675)
(9.58238 1.09221e-19 0.797561)
(9.39899 5.34664e-20 0.956199)
(9.47561 2.28434e-19 0.922619)
(9.27056 4.21768e-21 1.09187)
(9.35694 1.76983e-19 1.05757)
(9.12974 2.54459e-19 1.23874)
(9.22655 -5.46355e-19 1.20349)
(8.97646 2.57401e-19 1.39791)
(9.08418 4.41728e-19 1.36145)
(8.81051 3.45246e-19 1.57066)
(8.92992 1.32451e-19 1.53268)
(8.63161 -2.94662e-19 1.75848)
(8.76329 3.41394e-19 1.71863)
(8.43935 -5.51384e-19 1.96299)
(8.58385 -5.79849e-21 1.92099)
(8.23307 5.30156e-19 2.18568)
(8.39145 -1.06439e-18 2.14143)
(8.01197 -9.92356e-20 2.42818)
(8.18532 1.25193e-18 2.38152)
(7.77498 -1.80259e-18 2.69231)
(7.96453 -6.86198e-19 2.6432)
(7.52047 1.23184e-19 2.98001)
(7.72774 -2.41965e-18 2.92863)
(7.24613 1.19389e-18 3.29335)
(7.4732 2.46294e-18 3.24002)
(6.9489 1.36676e-18 3.63436)
(7.19806 -1.28508e-18 3.57974)
(6.62401 -2.08349e-19 4.00468)
(6.89858 1.44667e-18 3.95046)
(6.26401 -1.70517e-18 4.40467)
(6.56915 -2.78735e-18 4.35423)
(5.85828 9.5581e-20 4.83194)
(6.20072 8.40672e-20 4.79141)
(5.39143 3.62225e-19 5.27853)
(5.78026 1.7982e-19 5.2593)
(4.84194 -9.45231e-19 5.72605)
(5.28833 1.83401e-19 5.74843)
(4.18242 4.65988e-19 6.13884)
(4.7014 -1.29759e-18 6.23559)
(3.38442 3.15282e-18 6.4538)
(3.96869 1.53785e-18 6.68041)
(2.42409 -3.31019e-19 6.57458)
(3.09822 1.62114e-18 6.99413)
(2.07312 -3.56638e-18 7.04163)
(9.98512 3.72269e-19 0.147994)
(9.98385 2.22277e-22 0.103368)
(9.95738 3.13547e-19 0.242212)
(9.9697 3.80385e-22 0.200416)
(9.91735 6.48389e-20 0.337652)
(9.94317 1.38351e-19 0.297555)
(9.86519 -1.98213e-19 0.436437)
(9.89903 -1.4262e-19 0.397475)
(9.80125 -9.40973e-20 0.539987)
(9.8416 -2.47062e-19 0.501606)
(9.72586 -5.73358e-20 0.649548)
(9.77362 5.12576e-20 0.611296)
(9.63916 1.19091e-19 0.766239)
(9.69526 -2.74988e-22 0.727729)
(9.54112 3.31602e-19 0.891243)
(9.60605 1.77411e-21 0.852069)
(9.43168 3.5129e-19 1.02581)
(9.50564 5.12764e-22 0.985602)
(9.31086 -3.84483e-19 1.17109)
(9.39435 4.69738e-19 1.12953)
(9.17873 -3.45249e-19 1.32818)
(9.2723 -7.87929e-19 1.28495)
(9.03519 3.12524e-19 1.49832)
(9.13934 1.88777e-19 1.45304)
(8.87995 1.31361e-19 1.68289)
(8.99561 2.57241e-19 1.63523)
(8.71261 6.2663e-19 1.8835)
(8.84046 -7.91092e-19 1.83306)
(8.53294 -5.31262e-19 2.10189)
(8.67349 1.02755e-18 2.04823)
(8.34052 -3.17224e-19 2.33982)
(8.49483 -1.20621e-18 2.28257)
(8.13456 6.45176e-19 2.59918)
(8.30385 5.86266e-19 2.538)
(7.91396 -1.31971e-18 2.88219)
(8.09953 -1.46679e-19 2.81673)
(7.67717 -3.8067e-20 3.19131)
(7.88088 -1.46e-18 3.12135)
(7.42183 -4.82015e-20 3.5291)
(7.6463 1.25467e-18 3.45463)
(7.14471 -1.19254e-18 3.89852)
(7.39274 -1.1701e-19 3.81959)
(6.84113 -1.15878e-18 4.30276)
(7.11673 1.26575e-18 4.22002)
(6.50363 -9.79945e-19 4.74414)
(6.81315 -1.16067e-18 4.65984)
(6.12098 1.68791e-19 5.223)
(6.47297 1.70361e-19 5.14201)
(5.6765 0 5.73573)
(6.08302 0 5.66777)
(5.1452 -1.82275e-19 6.2698)
(5.62256 -1.32368e-18 6.23425)
(4.49148 -1.77077e-19 6.7959)
(5.06293 1.33967e-18 6.82756)
(3.67104 0 7.25557)
(4.34143 0 7.4176)
(2.63017 -1.67256e-18 7.5367)
(3.43061 -8.75123e-20 7.92818)
(2.27857 -1.64048e-18 8.19268)
(9.98596 -3.71769e-19 0.157226)
(9.98416 -1.71822e-19 0.109438)
(9.95968 -1.72338e-19 0.257391)
(9.9711 -3.75593e-19 0.212201)
(9.92189 -7.41183e-20 0.359009)
(9.94643 2.05282e-19 0.315162)
(9.87283 -1.93293e-19 0.464266)
(9.90504 -2.10772e-22 0.421198)
(9.81279 -9.66491e-20 0.574556)
(9.85117 1.46523e-19 0.531707)
(9.74204 1.07485e-19 0.691175)
(9.78752 -5.05643e-20 0.648046)
(9.66072 -1.176e-19 0.815332)
(9.71429 2.10322e-19 0.771485)
(9.56886 -3.29623e-19 0.948269)
(9.63095 -1.10301e-19 0.903246)
(9.46652 1.25932e-19 1.09124)
(9.53732 -1.13106e-19 1.04462)
(9.3538 4.81153e-20 1.24539)
(9.43387 4.65299e-19 1.19683)
(9.23076 -2.39925e-19 1.4119)
(9.32064 -4.17207e-19 1.36099)
(9.09739 1.34261e-19 1.59214)
(9.19756 1.21831e-19 1.53839)
(8.95346 -6.79441e-19 1.78769)
(9.06474 1.9287e-19 1.73061)
(8.79859 -3.68666e-19 2.00016)
(8.92171 -8.59443e-19 1.93935)
(8.63254 3.27048e-19 2.23136)
(8.76823 6.15247e-21 2.16626)
(8.45511 -2.82668e-19 2.48325)
(8.60441 4.75021e-19 2.41325)
(8.26567 -2.14534e-19 2.75806)
(8.42982 -6.3467e-19 2.68254)
(8.0633 -2.9796e-19 3.05835)
(8.24366 6.93909e-20 2.97661)
(7.84673 -1.44847e-19 3.38707)
(8.04535 6.52988e-20 3.29838)
(7.61386 1.17778e-18 3.74739)
(7.83351 6.70874e-19 3.65121)
(7.36161 2.3587e-18 4.14315)
(7.60561 2.45567e-18 4.03882)
(7.0857 1.2548e-18 4.57902)
(7.35876 1.26568e-18 4.46593)
(6.77946 0 5.05969)
(7.08869 2.47074e-18 4.93827)
(6.43219 0 5.58934)
(6.78785 -1.24866e-18 5.46189)
(6.02696 -1.34037e-18 6.1707)
(6.44453 0 6.04321)
(5.53651 2.35609e-19 6.80143)
(6.03898 -1.33009e-18 6.68857)
(4.91706 1.49633e-18 7.46778)
(5.54059 1.36369e-18 7.39985)
(4.10194 -8.98439e-20 8.13178)
(4.87834 1.12375e-18 8.17211)
(2.98549 -8.58436e-20 8.68773)
(3.97964 -1.34026e-18 8.96947)
(2.64666 0 9.65663)
(9.98682 -1.79063e-19 0.165935)
(9.98444 0 0.11514)
(9.9621 1.29588e-20 0.271705)
(9.97254 1.53022e-19 0.223293)
(9.92664 2.75578e-19 0.379093)
(9.94986 2.3058e-20 0.331705)
(9.88077 3.42288e-19 0.490369)
(9.91133 9.47827e-20 0.443407)
(9.82476 1.89393e-19 0.606943)
(9.86113 1.96221e-19 0.559825)
(9.75882 5.6514e-20 0.730156)
(9.80194 -2.01327e-19 0.682357)
(9.6831 2.12677e-19 0.861259)
(9.73403 -1.03446e-19 0.812301)
(9.59776 1.06401e-19 1.00151)
(9.65686 -2.14398e-19 0.950887)
(9.50297 2.34956e-19 1.15219)
(9.57036 1.10608e-19 1.09942)
(9.39882 -1.27083e-20 1.31449)
(9.47512 4.60794e-19 1.25917)
(9.28536 -4.7821e-20 1.48964)
(9.37116 -4.72688e-19 1.43132)
(9.1626 1.81466e-19 1.67911)
(9.25843 3.05441e-19 1.6172)
(9.03044 0 1.8846)
(9.13694 -3.72853e-19 1.8185)
(8.88875 -4.74264e-19 2.10782)
(9.00661 0 2.03698)
(8.73737 1.588e-19 2.35056)
(8.86747 -4.69089e-19 2.27434)
(8.57616 1.11553e-19 2.61496)
(8.71955 2.11099e-19 2.53253)
(8.40477 -3.44454e-19 2.90346)
(8.56263 4.69759e-19 2.81393)
(8.2226 4.33078e-19 3.2189)
(8.39637 -4.17791e-19 3.12121)
(8.02874 8.87222e-19 3.56464)
(8.22046 -4.24121e-19 3.45757)
(7.82169 1.96394e-18 3.94447)
(8.03403 1.03127e-18 3.82676)
(7.59915 1.3548e-18 4.36302)
(7.83562 1.9525e-18 4.23311)
(7.35779 2.49174e-18 4.82618)
(7.62337 5.93717e-19 4.68207)
(7.09257 1.19887e-18 5.34104)
(7.39455 2.48087e-18 5.18077)
(6.79499 -1.24043e-18 5.91604)
(7.14441 -6.5522e-19 5.73808)
(6.45067 0 6.56153)
(6.86534 -1.35401e-18 6.36567)
(6.03465 -1.65623e-19 7.28938)
(6.54351 4.60301e-19 7.07984)
(5.50129 9.8624e-19 8.1132)
(6.15634 -1.63517e-19 7.90307)
(4.76473 -2.02811e-19 9.04862)
(5.64434 7.02402e-19 8.87379)
(3.64436 -1.23283e-18 10.096)
(4.92422 -1.21015e-18 10.0568)
(3.37154 -5.03621e-19 11.6042)
(9.98765 3.34751e-19 0.174098)
(9.9847 0 0.120485)
(9.96462 1.60863e-19 0.285101)
(9.97401 4.80217e-19 0.23364)
(9.93164 -1.56555e-19 0.397841)
(9.95349 -1.83801e-19 0.347107)
(9.88908 -4.9632e-20 0.514678)
(9.91798 1.76579e-19 0.464044)
(9.8372 -2.01265e-19 0.637057)
(9.87154 4.18967e-20 0.585918)
(9.77623 -3.59837e-19 0.766347)
(9.81694 -2.48033e-19 0.71414)
(9.7064 -5.32548e-19 0.903819)
(9.7546 -1.67913e-20 0.850027)
(9.62789 -2.05447e-19 1.05074)
(9.68389 -2.27857e-19 0.994822)
(9.54091 3.41664e-19 1.2084)
(9.60481 1.1281e-19 1.14984)
(9.44565 -1.23543e-20 1.37807)
(9.51805 3.41506e-19 1.31638)
(9.34219 -1.0875e-19 1.56104)
(9.42375 -5.6929e-19 1.49569)
(9.23053 -2.57969e-19 1.75883)
(9.32179 1.23896e-19 1.68919)
(9.1107 -3.68513e-19 1.97317)
(9.21226 -2.63752e-19 1.89856)
(8.98283 0 2.20581)
(9.09536 -4.7799e-19 2.12553)
(8.84698 -4.10022e-19 2.45861)
(8.9714 4.8766e-19 2.37186)
(8.70313 5.72104e-19 2.73377)
(8.84046 -5.39227e-19 2.63957)
(8.55122 3.88612e-19 3.03387)
(8.70255 1.62184e-18 2.93106)
(8.39103 -1.27806e-18 3.36192)
(8.55783 -1.09073e-18 3.24912)
(8.22218 -2.70854e-19 3.72151)
(8.40637 -3.33798e-19 3.59706)
(8.04402 1.02544e-18 4.11685)
(8.24801 4.48976e-20 3.97878)
(7.85547 1.18436e-18 4.55311)
(8.08256 -7.42954e-20 4.39888)
(7.65486 5.90237e-19 5.03699)
(7.90966 6.03151e-20 4.86319)
(7.43971 6.04841e-19 5.57726)
(7.72883 -5.46304e-19 5.37946)
(7.20576 -7.72747e-19 6.18575)
(7.53927 1.02925e-18 5.95805)
(6.94544 -8.7886e-19 6.87928)
(7.34004 -1.24322e-18 6.61365)
(6.64492 4.54312e-19 7.68348)
(7.12929 1.28134e-18 7.36864)
(6.2758 -4.34894e-19 8.64347)
(6.90826 -5.46285e-19 8.26033)
(5.7727 -3.95552e-19 9.86201)
(6.6781 -1.90557e-19 9.36669)
(4.9446 -2.88453e-19 11.8287)
(6.64006 -2.0896e-19 10.8984)
(6.04782 -6.27491e-19 14.375)
(0.0410971 2.50657e-20 0.0943404)
(0.157645 8.06756e-19 -0.0231472)
(-0.435497 -1.51005e-19 0.288798)
(-0.297163 -7.79455e-19 0.343022)
(-1.10165 3.10052e-20 0.316789)
(-0.982192 -2.05817e-19 0.437347)
(-1.86473 2.19808e-19 0.320991)
(-1.75187 9.55086e-20 0.489452)
(-2.67847 0 0.319225)
(-2.58692 0 0.523448)
(-3.51246 3.22257e-20 0.312616)
(-3.45019 -3.62881e-19 0.543028)
(-4.34613 -3.52115e-20 0.301216)
(-4.3171 4.17402e-19 0.550092)
(-5.1653 -6.62943e-20 0.285525)
(-5.17138 -2.45238e-19 0.546557)
(-5.95965 -2.40165e-20 0.266194)
(-6.00186 6.70765e-20 0.534156)
(-6.72099 -2.41836e-20 0.243769)
(-6.80021 5.28982e-20 0.514214)
(-7.4421 1.62179e-20 0.218636)
(-7.55943 -3.09846e-21 0.487625)
(-8.11571 1.63824e-20 0.191078)
(-8.27271 -3.28388e-21 0.454974)
(-8.73461 0 0.161316)
(-8.93312 1.20254e-20 0.416625)
(-9.29141 -2.80654e-21 0.129512)
(-9.53374 1.56528e-20 0.372836)
(-9.77833 -2.84278e-21 0.0957345)
(-10.0672 -6.99187e-21 0.323786)
(-10.1871 0 0.0599481)
(-10.5255 0 0.269557)
(-10.5088 6.67922e-22 0.0220144)
(-10.9003 1.05741e-21 0.210132)
(-10.7341 8.28284e-23 -0.0183109)
(-11.1829 -1.82596e-21 0.145522)
(-10.8535 -6.6665e-22 -0.0616046)
(-11.3641 -5.27397e-21 0.0759071)
(-10.8569 0 -0.109247)
(-11.4342 2.10272e-21 0.00107166)
(-10.73 0 -0.16368)
(-11.3841 5.53962e-21 -0.0812165)
(-10.456 0 -0.226961)
(-11.2012 5.51536e-21 -0.172447)
(-10.0188 1.71797e-21 -0.30046)
(-10.8723 0 -0.271823)
(-9.40156 1.74067e-21 -0.386629)
(-10.3862 9.60162e-22 -0.379556)
(-8.58459 0 -0.49002)
(-9.73199 -1.72479e-22 -0.497276)
(-7.54315 1.00162e-21 -0.619843)
(-8.89115 1.18613e-22 -0.62782)
(-6.23764 1.19182e-21 -0.796199)
(-7.81919 -2.37074e-21 -0.779797)
(-4.57671 2.27522e-21 -1.05197)
(-6.44629 -3.31014e-22 -0.983469)
(-2.37303 9.93504e-22 -1.40447)
(-4.77043 -3.82002e-21 -1.29449)
(-3.02979 6.48691e-21 -1.57718)
(-0.366772 9.51666e-20 0.374747)
(-0.13592 7.85017e-19 0.298966)
(-0.888714 -8.54854e-19 0.616357)
(-0.613598 -1.57657e-18 0.74888)
(-1.62547 -1.49466e-19 0.722269)
(-1.34434 1.48995e-20 0.945456)
(-2.46558 -1.28547e-19 0.783433)
(-2.16921 1.29535e-18 1.04831)
(-3.34986 -3.63631e-19 0.820183)
(-3.05117 -1.17896e-18 1.10775)
(-4.245 2.70209e-20 0.838281)
(-3.95096 1.65822e-19 1.1373)
(-5.13124 2.09049e-19 0.840736)
(-4.84588 -6.87941e-20 1.14301)
(-5.9958 -1.10702e-19 0.829996)
(-5.72188 1.33892e-19 1.12901)
(-6.82965 1.46873e-19 0.808061)
(-6.56974 6.63741e-20 1.09862)
(-7.62546 7.50317e-20 0.776301)
(-7.38256 -6.02785e-21 1.05417)