/*--------------------------------*- C++ -*----------------------------------*\
| =========                 |                                                 |
| \\      /  F ield         | OpenFOAM: The Open Source CFD Toolbox           |
|  \\    /   O peration     | Version:  dev                                   |
|   \\  /    A nd           | Web:      www.OpenFOAM.org                      |
|    \\/     M anipulation  |                                                 |
\*---------------------------------------------------------------------------*/
FoamFile
{
    version     2.0;
    format      ascii;
    class       pointVectorField;
    location    "0.66";
    object      pointDisplacement;
}
// * * * * * * * * * * * * * * * * * * * * * * * * * * * * * * * * * * * * * //

dimensions      [0 1 0 0 0 0 0];

internalField   nonuniform List<vector> 
1030
(
(0 0 0)
(0.0121434 0 0)
(0.023041 0 0)
(0.0323973 0 0)
(0.0403381 0 0)
(0.0469861 0 0)
(0.0524526 0 0)
(0.0568369 0 0)
(0.0602273 0 0)
(0.062702 0 0)
(0.0643305 0 0)
(0.0651736 0 0)
(0.065285 0 0)
(0.0647127 0 0)
(0.0635001 0 0)
(0.0616873 0 0)
(0.059312 0 0)
(0.0564113 0 0)
(0.0530236 0 0)
(0.0491898 0 0)
(0.044956 0 0)
(0.0403758 0 0)
(0 0 0)
(0.0121512 0 -2.74877e-05)
(0.023057 0 -5.2247e-05)
(0.0324215 0 -7.3656e-05)
(0.040371 0 -9.19608e-05)
(0.0470283 0 -0.000107304)
(0.0525051 0 -0.000119726)
(0.056901 0 -0.000129171)
(0.0603045 0 -0.000135444)
(0.0627942 0 -0.000138245)
(0.0644398 0 -0.000137201)
(0.0653025 0 -0.000131831)
(0.0654364 0 -0.000121474)
(0.0648897 0 -0.000105335)
(0.0637065 0 -8.25472e-05)
(0.061927 0 -5.20847e-05)
(0.0595897 0 -1.27616e-05)
(0.0567322 0 3.67678e-05)
(0.0533931 0 9.80104e-05)
(0.0496142 0 0.000172631)
(0.045442 0 0.000262443)
(0.0409308 0 0.000369384)
(0 0 0)
(0.0121762 0 -5.50613e-05)
(0.0231063 0 -0.000104673)
(0.0324953 0 -0.000147599)
(0.0404701 0 -0.000184344)
(0.0471549 0 -0.000215197)
(0.0526623 0 -0.000240245)
(0.0570928 0 -0.000259407)
(0.0605352 0 -0.00027229)
(0.0630693 0 -0.000278306)
(0.0647659 0 -0.00027673)
(0.0656872 0 -0.00026666)
(0.0658881 0 -0.000246779)
(0.0654179 0 -0.000215511)
(0.064322 0 -0.000171196)
(0.0626422 0 -0.000111837)
(0.0604182 0 -3.51293e-05)
(0.0576892 0 6.15314e-05)
(0.0544954 0 0.00018105)
(0.05088 0 0.000326617)
(0.0468914 0 0.000501666)
(0.0425857 0 0.00070981)
(0 0 0)
(0.0122177 0 -8.27952e-05)
(0.0231881 0 -0.000157434)
(0.0326172 0 -0.000222081)
(0.0406341 0 -0.000277524)
(0.0473641 0 -0.000324206)
(0.052922 0 -0.000362274)
(0.0574097 0 -0.000391681)
(0.0609165 0 -0.00041184)
(0.063524 0 -0.000421876)
(0.0653048 0 -0.000420763)
(0.0663221 0 -0.000407139)
(0.0666326 0 -0.000379215)
(0.066288 0 -0.000334814)
(0.0653359 0 -0.000271496)
(0.06382 0 -0.000186397)
(0.0617822 0 -7.62361e-05)
(0.0592642 0 6.26712e-05)
(0.0563088 0 0.000234402)
(0.0529619 0 0.000443384)
(0.0492744 0 0.000694307)
(0.0453055 0 0.000991957)
(0 0 0)
(0.0122757 0 -0.000110751)
(0.0233022 0 -0.00021066)
(0.0327871 0 -0.000297312)
(0.0408622 0 -0.000371824)
(0.0476545 0 -0.000434795)
(0.0532823 0 -0.000486431)
(0.0578487 0 -0.000526679)
(0.0614436 0 -0.000554884)
(0.0641519 0 -0.000570079)
(0.0660485 0 -0.000570889)
(0.0671971 0 -0.000555426)
(0.0676577 0 -0.000521662)
(0.0674859 0 -0.000467069)
(0.0667309 0 -0.000388477)
(0.0654395 0 -0.000282309)
(0.0636566 0 -0.000144528)
(0.0614274 0 2.93613e-05)
(0.058798 0 0.000244274)
(0.0558175 0 0.000505461)
(0.0525403 0 0.000818355)
(0.0490289 0 0.00118829)
(0 0 0)
(0.0123503 0 -0.000138977)
(0.023448 0 -0.000264456)
(0.0330036 0 -0.000373453)
(0.0411521 0 -0.000467371)
(0.0480224 0 -0.00054706)
(0.0537367 0 -0.0006129)
(0.0584009 0 -0.000664714)
(0.062107 0 -0.000701937)
(0.0649434 0 -0.000723754)
(0.0669856 0 -0.0007284)
(0.0683002 0 -0.000713619)
(0.0689512 0 -0.000677166)
(0.0689968 0 -0.000616188)
(0.0684896 0 -0.000527072)
(0.0674799 0 -0.000405756)
(0.0660169 0 -0.000247716)
(0.0641497 0 -4.7982e-05)
(0.0619287 0 0.000198798)
(0.0594072 0 0.000498204)
(0.0566427 0 0.000855819)
(0.0536992 0 0.0012769)
(0 0 0)
(0.0124413 0 -0.000167505)
(0.0236246 0 -0.000318809)
(0.0332619 0 -0.000450405)
(0.0414961 0 -0.000564037)
(0.0484603 0 -0.00066092)
(0.0542787 0 -0.000741749)
(0.0590595 0 -0.000806288)
(0.0628998 0 -0.000853981)
(0.0658888 0 -0.000884029)
(0.0681032 0 -0.000894592)
(0.0696154 0 -0.000883388)
(0.0704928 0 -0.00084791)
(0.0707963 0 -0.000785027)
(0.0705826 0 -0.000690955)
(0.0699062 0 -0.000561407)
(0.0688213 0 -0.000391681)
(0.0673821 0 -0.000176698)
(0.0656443 0 8.88903e-05)
(0.0636661 0 0.000410457)
(0.0615099 0 0.000793058)
(0.059241 0 0.00124131)
(0 0 0)
(0.0125457 0 -0.000196263)
(0.0238247 0 -0.00037354)
(0.033556 0 -0.000527997)
(0.0418899 0 -0.000661914)
(0.0489642 0 -0.000776754)
(0.0549037 0 -0.000873368)
(0.0598185 0 -0.00095177)
(0.0638112 0 -0.00101149)
(0.066973 0 -0.00105156)
(0.0693839 0 -0.00107035)
(0.0711212 0 -0.00106578)
(0.0722557 0 -0.00103518)
(0.0728518 0 -0.000975345)
(0.0729705 0 -0.000882508)
(0.0726709 0 -0.00075239)
(0.0720128 0 -0.000580445)
(0.0710568 0 -0.000361874)
(0.0698643 0 -9.1749e-05)
(0.0685002 0 0.000234589)
(0.0670328 0 0.000621152)
(0.065534 0 0.001071)
(0 0 0)
(0.0126569 0 -0.000225103)
(0.0240437 0 -0.000428615)
(0.0338853 0 -0.000606417)
(0.0423335 0 -0.000761172)
(0.0495284 0 -0.000894609)
(0.0556005 0 -0.00100777)
(0.0606648 0 -0.0011011)
(0.0648271 0 -0.00117441)
(0.0681817 0 -0.00122674)
(0.0708123 0 -0.00125661)
(0.0727993 0 -0.00126203)
(0.0742177 0 -0.0012405)
(0.0751363 0 -0.001189)
(0.0756208 0 -0.00110399)
(0.0757342 0 -0.00098138)
(0.075543 0 -0.000817141)
(0.0751146 0 -0.000607141)
(0.0745166 0 -0.000347217)
(0.0738214 0 -3.38909e-05)
(0.0731032 0 0.000335428)
(0.0724397 0 0.00076174)
(0 0 0)
(0.012777 0 -0.000254085)
(0.0242849 0 -0.000484194)
(0.034247 0 -0.000685679)
(0.0428168 0 -0.000861535)
(0.0501425 0 -0.00101413)
(0.0563602 0 -0.0011449)
(0.0615895 0 -0.00125459)
(0.0659379 0 -0.0013432)
(0.0695016 0 -0.0014099)
(0.0723689 0 -0.00145352)
(0.0746245 0 -0.00147232)
(0.0763483 0 -0.00146415)
(0.0776133 0 -0.00142636)
(0.0784904 0 -0.0013559)
(0.0790483 0 -0.0012493)
(0.0793584 0 -0.00110308)
(0.079491 0 -0.000913805)
(0.079522 0 -0.000678632)
(0.0795335 0 -0.00039579)
(0.0796053 0 -6.45069e-05)
(0.079818 0 0.000314155)
(0 0 0)
(0.0129106 0 -0.000283332)
(0.0245461 0 -0.000540173)
(0.0346313 0 -0.000765401)
(0.0433316 0 -0.000962818)
(0.0508021 0 -0.00113547)
(0.0571787 0 -0.00128499)
(0.0625836 0 -0.00141227)
(0.0671273 0 -0.00151763)
(0.0709102 0 -0.00160053)
(0.0740264 0 -0.00166032)
(0.0765652 0 -0.00169581)
(0.0786093 0 -0.00170516)
(0.0802367 0 -0.00168624)
(0.0815238 0 -0.00163676)
(0.082548 0 -0.00155433)
(0.0833824 0 -0.0014362)
(0.0840997 0 -0.00127978)
(0.0847816 0 -0.0010835)
(0.0855182 0 -0.000847497)
(0.0863993 0 -0.000573574)
(0.0875091 0 -0.000265028)
(0 0 0)
(0.0130537 0 -0.000312698)
(0.0248186 0 -0.000596207)
(0.0350332 0 -0.000845417)
(0.0438772 0 -0.0010651)
(0.0515025 0 -0.00125854)
(0.0580432 0 -0.00142753)
(0.0636285 0 -0.00157331)
(0.0683753 0 -0.0016968)
(0.0723881 0 -0.00179806)
(0.0757647 0 -0.00187674)
(0.078597 0 -0.00193213)
(0.0809711 0 -0.00196293)
(0.0829697 0 -0.00196771)
(0.0846747 0 -0.00194505)
(0.086169 0 -0.00189366)
(0.087531 0 -0.00181211)
(0.0888417 0 -0.00169953)
(0.0901841 0 -0.0015555)
(0.0916463 0 -0.00138126)
(0.0933304 0 -0.00118155)
(0.095329 0 -0.000962589)
(0 0 0)
(0.0132 0 -0.000341957)
(0.0250991 0 -0.000652175)
(0.0354527 0 -0.000925757)
(0.044448 0 -0.0011682)
(0.0522311 0 -0.00138274)
(0.0589388 0 -0.00157171)
(0.0647109 0 -0.00173716)
(0.0696696 0 -0.00188045)
(0.073921 0 -0.00200213)
(0.0775649 0 -0.00210221)
(0.0806958 0 -0.00218045)
(0.0834036 0 -0.00223629)
(0.0857754 0 -0.00226911)
(0.0878972 0 -0.00227844)
(0.0898551 0 -0.00226407)
(0.0917342 0 -0.00222614)
(0.0936227 0 -0.00216573)
(0.0956085 0 -0.00208448)
(0.0977769 0 -0.00198473)
(0.100234 0 -0.00187327)
(0.103081 0 -0.0017595)
(0 0 0)
(0.0133464 0 -0.000371022)
(0.0253872 0 -0.000708058)
(0.035887 0 -0.00100625)
(0.045035 0 -0.0012716)
(0.0529757 0 -0.00150755)
(0.059856 0 -0.00171723)
(0.0658226 0 -0.00190355)
(0.0709979 0 -0.0020681)
(0.0754905 0 -0.00221185)
(0.0794027 0 -0.00233535)
(0.0828319 0 -0.00243896)
(0.085871 0 -0.00252288)
(0.0886106 0 -0.00258737)
(0.0911399 0 -0.00263298)
(0.0935479 0 -0.00266072)
(0.0959236 0 -0.00267223)
(0.0983578 0 -0.0026702)
(0.100943 0 -0.00265858)
(0.103771 0 -0.00264209)
(0.106945 0 -0.00262918)
(0.110564 0 -0.00263121)
(0 0 0)
(0.0134918 0 -0.000399824)
(0.0256789 0 -0.000763657)
(0.0363282 0 -0.0010865)
(0.045629 0 -0.00137473)
(0.0537295 0 -0.0016325)
(0.0607872 0 -0.00186373)
(0.066951 0 -0.00207178)
(0.0723436 0 -0.00225865)
(0.0770763 0 -0.00242581)
(0.0812539 0 -0.0025744)
(0.0849761 0 -0.0027054)
(0.0883382 0 -0.00281979)
(0.0914331 0 -0.00291874)
(0.0943521 0 -0.00300384)
(0.0971862 0 -0.00307729)
(0.100026 0 -0.0031422)
(0.102964 0 -0.00320286)
(0.106091 0 -0.00326502)
(0.109506 0 -0.00333613)
(0.113309 0 -0.00342642)
(0.117585 0 -0.00354851)
(0 0 0)
(0.0136349 0 -0.000428508)
(0.025973 0 -0.000819252)
(0.0367731 0 -0.00116682)
(0.046227 0 -0.00147809)
(0.0544929 0 -0.00175823)
(0.0617316 0 -0.00201179)
(0.0680929 0 -0.00224237)
(0.0737021 0 -0.00245256)
(0.0786726 0 -0.00264437)
(0.0831111 0 -0.00281952)
(0.0871188 0 -0.00297964)
(0.0907927 0 -0.00312648)
(0.0942268 0 -0.00326208)
(0.0975135 0 -0.00338903)
(0.100744 0 -0.00351067)
(0.104009 0 -0.00363143)
(0.107398 0 -0.00375704)
(0.111003 0 -0.00389489)
(0.114919 0 -0.00405452)
(0.119238 0 -0.00424754)
(0.124031 0 -0.00448761)
(0 0 0)
(0.0121434 0 0)
(0.023041 0 0)
(0.0323973 0 0)
(0.0403381 0 0)
(0.0469861 0 0)
(0.0524526 0 0)
(0.0568369 0 0)
(0.0602273 0 0)
(0.062702 0 0)
(0.0643305 0 0)
(0.0651736 0 0)
(0.065285 0 0)
(0.0647127 0 0)
(0.0635001 0 0)
(0.0616873 0 0)
(0.059312 0 0)
(0.0564113 0 0)
(0.0530236 0 0)
(0.0491898 0 0)
(0.044956 0 0)
(0.0403758 0 0)
(0 0 0)
(0.0121512 0 -2.74877e-05)
(0.023057 0 -5.2247e-05)
(0.0324215 0 -7.3656e-05)
(0.040371 0 -9.19608e-05)
(0.0470283 0 -0.000107304)
(0.0525051 0 -0.000119726)
(0.056901 0 -0.000129171)
(0.0603045 0 -0.000135444)
(0.0627942 0 -0.000138245)
(0.0644398 0 -0.000137201)
(0.0653025 0 -0.000131831)
(0.0654364 0 -0.000121474)
(0.0648897 0 -0.000105335)
(0.0637065 0 -8.25472e-05)
(0.061927 0 -5.20847e-05)
(0.0595897 0 -1.27616e-05)
(0.0567322 0 3.67678e-05)
(0.0533931 0 9.80104e-05)
(0.0496142 0 0.000172631)
(0.045442 0 0.000262443)
(0.0409308 0 0.000369384)
(0 0 0)
(0.0121762 0 -5.50613e-05)
(0.0231063 0 -0.000104673)
(0.0324953 0 -0.000147599)
(0.0404701 0 -0.000184344)
(0.0471549 0 -0.000215197)
(0.0526623 0 -0.000240245)
(0.0570928 0 -0.000259407)
(0.0605352 0 -0.00027229)
(0.0630693 0 -0.000278306)
(0.0647659 0 -0.00027673)
(0.0656872 0 -0.00026666)
(0.0658881 0 -0.000246779)
(0.0654179 0 -0.000215511)
(0.064322 0 -0.000171196)
(0.0626422 0 -0.000111837)
(0.0604182 0 -3.51293e-05)
(0.0576892 0 6.15314e-05)
(0.0544954 0 0.00018105)
(0.05088 0 0.000326617)
(0.0468914 0 0.000501666)
(0.0425857 0 0.00070981)
(0 0 0)
(0.0122177 0 -8.27952e-05)
(0.0231881 0 -0.000157434)
(0.0326172 0 -0.000222081)
(0.0406341 0 -0.000277524)
(0.0473641 0 -0.000324206)
(0.052922 0 -0.000362274)
(0.0574097 0 -0.000391681)
(0.0609165 0 -0.00041184)
(0.063524 0 -0.000421876)
(0.0653048 0 -0.000420763)
(0.0663221 0 -0.000407139)
(0.0666326 0 -0.000379215)
(0.066288 0 -0.000334814)
(0.0653359 0 -0.000271496)
(0.06382 0 -0.000186397)
(0.0617822 0 -7.62361e-05)
(0.0592642 0 6.26712e-05)
(0.0563088 0 0.000234402)
(0.0529619 0 0.000443384)
(0.0492744 0 0.000694307)
(0.0453055 0 0.000991957)
(0 0 0)
(0.0122757 0 -0.000110751)
(0.0233022 0 -0.00021066)
(0.0327871 0 -0.000297312)
(0.0408622 0 -0.000371824)
(0.0476545 0 -0.000434795)
(0.0532823 0 -0.000486431)
(0.0578487 0 -0.000526679)
(0.0614436 0 -0.000554884)
(0.0641519 0 -0.000570079)
(0.0660485 0 -0.000570889)
(0.0671971 0 -0.000555426)
(0.0676577 0 -0.000521662)
(0.0674859 0 -0.000467069)
(0.0667309 0 -0.000388477)
(0.0654395 0 -0.000282309)
(0.0636566 0 -0.000144528)
(0.0614274 0 2.93613e-05)
(0.058798 0 0.000244274)
(0.0558175 0 0.000505461)
(0.0525403 0 0.000818355)
(0.0490289 0 0.00118829)
(0 0 0)
(0.0123503 0 -0.000138977)
(0.023448 0 -0.000264456)
(0.0330036 0 -0.000373453)
(0.0411521 0 -0.000467371)
(0.0480224 0 -0.00054706)
(0.0537367 0 -0.0006129)
(0.0584009 0 -0.000664714)
(0.062107 0 -0.000701937)
(0.0649434 0 -0.000723754)
(0.0669856 0 -0.0007284)
(0.0683002 0 -0.000713619)
(0.0689512 0 -0.000677166)
(0.0689968 0 -0.000616188)
(0.0684896 0 -0.000527072)
(0.0674799 0 -0.000405756)
(0.0660169 0 -0.000247716)
(0.0641497 0 -4.7982e-05)
(0.0619287 0 0.000198798)
(0.0594072 0 0.000498204)
(0.0566427 0 0.000855819)
(0.0536992 0 0.0012769)
(0 0 0)
(0.0124413 0 -0.000167505)
(0.0236246 0 -0.000318809)
(0.0332619 0 -0.000450405)
(0.0414961 0 -0.000564037)
(0.0484603 0 -0.00066092)
(0.0542787 0 -0.000741749)
(0.0590595 0 -0.000806288)
(0.0628998 0 -0.000853981)
(0.0658888 0 -0.000884029)
(0.0681032 0 -0.000894592)
(0.0696154 0 -0.000883388)
(0.0704928 0 -0.00084791)
(0.0707963 0 -0.000785027)
(0.0705826 0 -0.000690955)
(0.0699062 0 -0.000561407)
(0.0688213 0 -0.000391681)
(0.0673821 0 -0.000176698)
(0.0656443 0 8.88903e-05)
(0.0636661 0 0.000410457)
(0.0615099 0 0.000793058)
(0.059241 0 0.00124131)
(0 0 0)
(0.0125457 0 -0.000196263)
(0.0238247 0 -0.00037354)
(0.033556 0 -0.000527997)
(0.0418899 0 -0.000661914)
(0.0489642 0 -0.000776754)
(0.0549037 0 -0.000873368)
(0.0598185 0 -0.00095177)
(0.0638112 0 -0.00101149)
(0.066973 0 -0.00105156)
(0.0693839 0 -0.00107035)
(0.0711212 0 -0.00106578)
(0.0722557 0 -0.00103518)
(0.0728518 0 -0.000975345)
(0.0729705 0 -0.000882508)
(0.0726709 0 -0.00075239)
(0.0720128 0 -0.000580445)
(0.0710568 0 -0.000361874)
(0.0698643 0 -9.1749e-05)
(0.0685002 0 0.000234589)
(0.0670328 0 0.000621152)
(0.065534 0 0.001071)
(0 0 0)
(0.0126569 0 -0.000225103)
(0.0240437 0 -0.000428615)
(0.0338853 0 -0.000606417)
(0.0423335 0 -0.000761172)
(0.0495284 0 -0.000894609)
(0.0556005 0 -0.00100777)
(0.0606648 0 -0.0011011)
(0.0648271 0 -0.00117441)
(0.0681817 0 -0.00122674)
(0.0708123 0 -0.00125661)
(0.0727993 0 -0.00126203)
(0.0742177 0 -0.0012405)
(0.0751363 0 -0.001189)
(0.0756208 0 -0.00110399)
(0.0757342 0 -0.00098138)
(0.075543 0 -0.000817141)
(0.0751146 0 -0.000607141)
(0.0745166 0 -0.000347217)
(0.0738214 0 -3.38909e-05)
(0.0731032 0 0.000335428)
(0.0724397 0 0.00076174)
(0 0 0)
(0.012777 0 -0.000254085)
(0.0242849 0 -0.000484194)
(0.034247 0 -0.000685679)
(0.0428168 0 -0.000861535)
(0.0501425 0 -0.00101413)
(0.0563602 0 -0.0011449)
(0.0615895 0 -0.00125459)
(0.0659379 0 -0.0013432)
(0.0695016 0 -0.0014099)
(0.0723689 0 -0.00145352)
(0.0746245 0 -0.00147232)
(0.0763483 0 -0.00146415)
(0.0776133 0 -0.00142636)
(0.0784904 0 -0.0013559)
(0.0790483 0 -0.0012493)
(0.0793584 0 -0.00110308)
(0.079491 0 -0.000913805)
(0.079522 0 -0.000678632)
(0.0795335 0 -0.00039579)
(0.0796053 0 -6.45069e-05)
(0.079818 0 0.000314155)
(0 0 0)
(0.0129106 0 -0.000283332)
(0.0245461 0 -0.000540173)
(0.0346313 0 -0.000765401)
(0.0433316 0 -0.000962818)
(0.0508021 0 -0.00113547)
(0.0571787 0 -0.00128499)
(0.0625836 0 -0.00141227)
(0.0671273 0 -0.00151763)
(0.0709102 0 -0.00160053)
(0.0740264 0 -0.00166032)
(0.0765652 0 -0.00169581)
(0.0786093 0 -0.00170516)
(0.0802367 0 -0.00168624)
(0.0815238 0 -0.00163676)
(0.082548 0 -0.00155433)
(0.0833824 0 -0.0014362)
(0.0840997 0 -0.00127978)
(0.0847816 0 -0.0010835)
(0.0855182 0 -0.000847497)
(0.0863993 0 -0.000573574)
(0.0875091 0 -0.000265028)
(0 0 0)
(0.0130537 0 -0.000312698)
(0.0248186 0 -0.000596207)
(0.0350332 0 -0.000845417)
(0.0438772 0 -0.0010651)
(0.0515025 0 -0.00125854)
(0.0580432 0 -0.00142753)
(0.0636285 0 -0.00157331)
(0.0683753 0 -0.0016968)
(0.0723881 0 -0.00179806)
(0.0757647 0 -0.00187674)
(0.078597 0 -0.00193213)
(0.0809711 0 -0.00196293)
(0.0829697 0 -0.00196771)
(0.0846747 0 -0.00194505)
(0.086169 0 -0.00189366)
(0.087531 0 -0.00181211)
(0.0888417 0 -0.00169953)
(0.0901841 0 -0.0015555)
(0.0916463 0 -0.00138126)
(0.0933304 0 -0.00118155)
(0.095329 0 -0.000962589)
(0 0 0)
(0.0132 0 -0.000341957)
(0.0250991 0 -0.000652175)
(0.0354527 0 -0.000925757)
(0.044448 0 -0.0011682)
(0.0522311 0 -0.00138274)
(0.0589388 0 -0.00157171)
(0.0647109 0 -0.00173716)
(0.0696696 0 -0.00188045)
(0.073921 0 -0.00200213)
(0.0775649 0 -0.00210221)
(0.0806958 0 -0.00218045)
(0.0834036 0 -0.00223629)
(0.0857754 0 -0.00226911)
(0.0878972 0 -0.00227844)
(0.0898551 0 -0.00226407)
(0.0917342 0 -0.00222614)
(0.0936227 0 -0.00216573)
(0.0956085 0 -0.00208448)
(0.0977769 0 -0.00198473)
(0.100234 0 -0.00187327)
(0.103081 0 -0.0017595)
(0 0 0)
(0.0133464 0 -0.000371022)
(0.0253872 0 -0.000708058)
(0.035887 0 -0.00100625)
(0.045035 0 -0.0012716)
(0.0529757 0 -0.00150755)
(0.059856 0 -0.00171723)
(0.0658226 0 -0.00190355)
(0.0709979 0 -0.0020681)
(0.0754905 0 -0.00221185)
(0.0794027 0 -0.00233535)
(0.0828319 0 -0.00243896)
(0.085871 0 -0.00252288)
(0.0886106 0 -0.00258737)
(0.0911399 0 -0.00263298)
(0.0935479 0 -0.00266072)
(0.0959236 0 -0.00267223)
(0.0983578 0 -0.0026702)
(0.100943 0 -0.00265858)
(0.103771 0 -0.00264209)
(0.106945 0 -0.00262918)
(0.110564 0 -0.00263121)
(0 0 0)
(0.0134918 0 -0.000399824)
(0.0256789 0 -0.000763657)
(0.0363282 0 -0.0010865)
(0.045629 0 -0.00137473)
(0.0537295 0 -0.0016325)
(0.0607872 0 -0.00186373)
(0.066951 0 -0.00207178)
(0.0723436 0 -0.00225865)
(0.0770763 0 -0.00242581)
(0.0812539 0 -0.0025744)
(0.0849761 0 -0.0027054)
(0.0883382 0 -0.00281979)
(0.0914331 0 -0.00291874)
(0.0943521 0 -0.00300384)
(0.0971862 0 -0.00307729)
(0.100026 0 -0.0031422)
(0.102964 0 -0.00320286)
(0.106091 0 -0.00326502)
(0.109506 0 -0.00333613)
(0.113309 0 -0.00342642)
(0.117585 0 -0.00354851)
(0 0 0)
(0.0136349 0 -0.000428508)
(0.025973 0 -0.000819252)
(0.0367731 0 -0.00116682)
(0.046227 0 -0.00147809)
(0.0544929 0 -0.00175823)
(0.0617316 0 -0.00201179)
(0.0680929 0 -0.00224237)
(0.0737021 0 -0.00245256)
(0.0786726 0 -0.00264437)
(0.0831111 0 -0.00281952)
(0.0871188 0 -0.00297964)
(0.0907927 0 -0.00312648)
(0.0942268 0 -0.00326208)
(0.0975135 0 -0.00338903)
(0.100744 0 -0.00351067)
(0.104009 0 -0.00363143)
(0.107398 0 -0.00375704)
(0.111003 0 -0.00389489)
(0.114919 0 -0.00405452)
(0.119238 0 -0.00424754)
(0.124031 0 -0.00448761)
(0.0262671 0 -0.000875332)
(0.0372202 0 -0.001248)
(0.0468321 0 -0.00158297)
(0.0552699 0 -0.00188625)
(0.0626927 0 -0.00216287)
(0.0692522 0 -0.0024169)
(0.0750779 0 -0.00265155)
(0.0802843 0 -0.0028693)
(0.0849791 0 -0.00307247)
(0.0892644 0 -0.00326335)
(0.0932379 0 -0.0034444)
(0.0969938 0 -0.00361848)
(0.100624 0 -0.00378907)
(0.104217 0 -0.00396054)
(0.107863 0 -0.00413838)
(0.111647 0 -0.00432949)
(0.115655 0 -0.00454252)
(0.119976 0 -0.00478853)
(0.124685 0 -0.00507949)
(0.129833 0 -0.0054291)
(0.0376665 0 -0.00132956)
(0.0474386 0 -0.00168878)
(0.0560491 0 -0.00201573)
(0.0636574 0 -0.002316)
(0.0704155 0 -0.0025943)
(0.076455 0 -0.00285425)
(0.0818917 0 -0.00309891)
(0.0868341 0 -0.00333114)
(0.0913844 0 -0.00355383)
(0.0956397 0 -0.0037701)
(0.0996931 0 -0.0039835)
(0.103634 0 -0.00419827)
(0.107549 0 -0.00441953)
(0.111521 0 -0.00465352)
(0.11563 0 -0.00490791)
(0.119954 0 -0.00519196)
(0.124567 0 -0.00551719)
(0.129522 0 -0.00589499)
(0.13485 0 -0.00633824)
(0.0480368 0 -0.00179388)
(0.0568159 0 -0.00214471)
(0.0646072 0 -0.00246901)
(0.07156 0 -0.00277193)
(0.077806 0 -0.00305757)
(0.0834626 0 -0.0033295)
(0.0886383 0 -0.0035911)
(0.0934346 0 -0.00384579)
(0.0979471 0 -0.00409723)
(0.102266 0 -0.00434951)
(0.106477 0 -0.0046074)
(0.110662 0 -0.00487647)
(0.114898 0 -0.00516335)
(0.119254 0 -0.00547588)
(0.123797 0 -0.00582324)
(0.128581 0 -0.00621609)
(0.133641 0 -0.00666507)
(0.13899 0 -0.00718195)
(0.0575598 0 -0.00227158)
(0.0655264 0 -0.00261982)
(0.0726644 0 -0.00294723)
(0.0791053 0 -0.00325839)
(0.0849669 0 -0.00355736)
(0.090357 0 -0.00384794)
(0.0953755 0 -0.00413401)
(0.100115 0 -0.0044196)
(0.104663 0 -0.0047092)
(0.1091 0 -0.00500782)
(0.113501 0 -0.00532125)
(0.117934 0 -0.0056561)
(0.122459 0 -0.00601992)
(0.127128 0 -0.0064212)
(0.131979 0 -0.00686925)
(0.13703 0 -0.00737362)
(0.14228 0 -0.00794444)
(0.0663986 0 -0.00276652)
(0.0737099 0 -0.00311792)
(0.0803315 0 -0.00345405)
(0.0863804 0 -0.00377935)
(0.0919631 0 -0.00409797)
(0.0971772 0 -0.00441413)
(0.102112 0 -0.00473214)
(0.106851 0 -0.00505663)
(0.111467 0 -0.00539272)
(0.11603 0 -0.00574609)
(0.120599 0 -0.00612306)
(0.125223 0 -0.00653057)
(0.12994 0 -0.00697611)
(0.134775 0 -0.00746754)
(0.139733 0 -0.00801281)
(0.144801 0 -0.00861984)
(0.0746813 0 -0.00328204)
(0.0814676 0 -0.00364225)
(0.0876849 0 -0.00399281)
(0.0934371 0 -0.00433812)
(0.0988191 0 -0.00468261)
(0.103917 0 -0.00503074)
(0.108807 0 -0.00538714)
(0.11356 0 -0.00575683)
(0.118235 0 -0.00614519)
(0.122883 0 -0.006558)
(0.127545 0 -0.00700139)
(0.132248 0 -0.0074817)
(0.137004 0 -0.00800528)
(0.141809 0 -0.00857822)
(0.146644 0 -0.00920659)
(0.0888633 0 -0.00419492)
(0.0947615 0 -0.00456522)
(0.100284 0 -0.00493589)
(0.105512 0 -0.00531139)
(0.110518 0 -0.00569628)
(0.115366 0 -0.0060953)
(0.120108 0 -0.00651337)
(0.124788 0 -0.0069556)
(0.129438 0 -0.00742721)
(0.134076 0 -0.00793333)
(0.138709 0 -0.00847887)
(0.143325 0 -0.00906828)
(0.147902 0 -0.0097059)
(0.0959217 0 -0.00477602)
(0.101557 0 -0.00517037)
(0.106886 0 -0.00557022)
(0.111974 0 -0.00597987)
(0.116879 0 -0.0064037)
(0.121649 0 -0.00684609)
(0.126321 0 -0.00731142)
(0.130919 0 -0.00780395)
(0.135458 0 -0.00832766)
(0.139937 0 -0.00888617)
(0.144344 0 -0.00948253)
(0.148654 0 -0.0101189)
(0.108029 0 -0.00580339)
(0.113168 0 -0.00623396)
(0.1181 0 -0.00667807)
(0.122865 0 -0.00713947)
(0.127496 0 -0.00762185)
(0.132013 0 -0.00812853)
(0.136426 0 -0.00866245)
(0.140734 0 -0.00922603)
(0.144923 0 -0.00982106)
(0.148967 0 -0.0104476)
(0.119032 0 -0.00691477)
(0.123765 0 -0.00739017)
(0.12833 0 -0.00788397)
(0.132745 0 -0.0083987)
(0.137017 0 -0.00893633)
(0.141143 0 -0.00949826)
(0.145113 0 -0.0100852)
(0.1489 0 -0.0106956)
(0.124364 0 -0.00759531)
(0.128846 0 -0.00809544)
(0.133143 0 -0.00861282)
(0.137264 0 -0.00914863)
(0.141207 0 -0.00970338)
(0.144961 0 -0.0102768)
(0.148507 0 -0.0108664)
(0.133237 0 -0.00876967)
(0.137204 0 -0.00929912)
(0.140966 0 -0.00984227)
(0.144512 0 -0.0103977)
(0.14783 0 -0.010963)
(0.140452 0 -0.00991494)
(0.143803 0 -0.0104495)
(0.146912 0 -0.0109885)
(0.0262671 0 -0.000875332)
(0.0372202 0 -0.001248)
(0.0468321 0 -0.00158297)
(0.0552699 0 -0.00188625)
(0.0626927 0 -0.00216287)
(0.0692522 0 -0.0024169)
(0.0750779 0 -0.00265155)
(0.0802843 0 -0.0028693)
(0.0849791 0 -0.00307247)
(0.0892644 0 -0.00326335)
(0.0932379 0 -0.0034444)
(0.0969938 0 -0.00361848)
(0.100624 0 -0.00378907)
(0.104217 0 -0.00396054)
(0.107863 0 -0.00413838)
(0.111647 0 -0.00432949)
(0.115655 0 -0.00454252)
(0.119976 0 -0.00478853)
(0.124685 0 -0.00507949)
(0.129833 0 -0.0054291)
(0.0376665 0 -0.00132956)
(0.0474386 0 -0.00168878)
(0.0560491 0 -0.00201573)
(0.0636574 0 -0.002316)
(0.0704155 0 -0.0025943)
(0.076455 0 -0.00285425)
(0.0818917 0 -0.00309891)
(0.0868341 0 -0.00333114)
(0.0913844 0 -0.00355383)
(0.0956397 0 -0.0037701)
(0.0996931 0 -0.0039835)
(0.103634 0 -0.00419827)
(0.107549 0 -0.00441953)
(0.111521 0 -0.00465352)
(0.11563 0 -0.00490791)
(0.119954 0 -0.00519196)
(0.124567 0 -0.00551719)
(0.129522 0 -0.00589499)
(0.13485 0 -0.00633824)
(0.0480368 0 -0.00179388)
(0.0568159 0 -0.00214471)
(0.0646072 0 -0.00246901)
(0.07156 0 -0.00277193)
(0.077806 0 -0.00305757)
(0.0834626 0 -0.0033295)
(0.0886383 0 -0.0035911)
(0.0934346 0 -0.00384579)
(0.0979471 0 -0.00409723)
(0.102266 0 -0.00434951)
(0.106477 0 -0.0046074)
(0.110662 0 -0.00487647)
(0.114898 0 -0.00516335)
(0.119254 0 -0.00547588)
(0.123797 0 -0.00582324)
(0.128581 0 -0.00621609)
(0.133641 0 -0.00666507)
(0.13899 0 -0.00718195)
(0.0575598 0 -0.00227158)
(0.0655264 0 -0.00261982)
(0.0726644 0 -0.00294723)
(0.0791053 0 -0.00325839)
(0.0849669 0 -0.00355736)
(0.090357 0 -0.00384794)
(0.0953755 0 -0.00413401)
(0.100115 0 -0.0044196)
(0.104663 0 -0.0047092)
(0.1091 0 -0.00500782)
(0.113501 0 -0.00532125)
(0.117934 0 -0.0056561)
(0.122459 0 -0.00601992)
(0.127128 0 -0.0064212)
(0.131979 0 -0.00686925)
(0.13703 0 -0.00737362)
(0.14228 0 -0.00794444)
(0.0663986 0 -0.00276652)
(0.0737099 0 -0.00311792)
(0.0803315 0 -0.00345405)
(0.0863804 0 -0.00377935)
(0.0919631 0 -0.00409797)
(0.0971772 0 -0.00441413)
(0.102112 0 -0.00473214)
(0.106851 0 -0.00505663)
(0.111467 0 -0.00539272)
(0.11603 0 -0.00574609)
(0.120599 0 -0.00612306)
(0.125223 0 -0.00653057)
(0.12994 0 -0.00697611)
(0.134775 0 -0.00746754)
(0.139733 0 -0.00801281)
(0.144801 0 -0.00861984)
(0.0746813 0 -0.00328204)
(0.0814676 0 -0.00364225)
(0.0876849 0 -0.00399281)
(0.0934371 0 -0.00433812)
(0.0988191 0 -0.00468261)
(0.103917 0 -0.00503074)
(0.108807 0 -0.00538714)
(0.11356 0 -0.00575683)
(0.118235 0 -0.00614519)
(0.122883 0 -0.006558)
(0.127545 0 -0.00700139)
(0.132248 0 -0.0074817)
(0.137004 0 -0.00800528)
(0.141809 0 -0.00857822)
(0.146644 0 -0.00920659)
(0.0888633 0 -0.00419492)
(0.0947615 0 -0.00456522)
(0.100284 0 -0.00493589)
(0.105512 0 -0.00531139)
(0.110518 0 -0.00569628)
(0.115366 0 -0.0060953)
(0.120108 0 -0.00651337)
(0.124788 0 -0.0069556)
(0.129438 0 -0.00742721)
(0.134076 0 -0.00793333)
(0.138709 0 -0.00847887)
(0.143325 0 -0.00906828)
(0.147902 0 -0.0097059)
(0.0959217 0 -0.00477602)
(0.101557 0 -0.00517037)
(0.106886 0 -0.00557022)
(0.111974 0 -0.00597987)
(0.116879 0 -0.0064037)
(0.121649 0 -0.00684609)
(0.126321 0 -0.00731142)
(0.130919 0 -0.00780395)
(0.135458 0 -0.00832766)
(0.139937 0 -0.00888617)
(0.144344 0 -0.00948253)
(0.148654 0 -0.0101189)
(0.108029 0 -0.00580339)
(0.113168 0 -0.00623396)
(0.1181 0 -0.00667807)
(0.122865 0 -0.00713947)
(0.127496 0 -0.00762185)
(0.132013 0 -0.00812853)
(0.136426 0 -0.00866245)
(0.140734 0 -0.00922603)
(0.144923 0 -0.00982106)
(0.148967 0 -0.0104476)
(0.119032 0 -0.00691477)
(0.123765 0 -0.00739017)
(0.12833 0 -0.00788397)
(0.132745 0 -0.0083987)
(0.137017 0 -0.00893633)
(0.141143 0 -0.00949826)
(0.145113 0 -0.0100852)
(0.1489 0 -0.0106956)
(0.124364 0 -0.00759531)
(0.128846 0 -0.00809544)
(0.133143 0 -0.00861282)
(0.137264 0 -0.00914863)
(0.141207 0 -0.00970338)
(0.144961 0 -0.0102768)
(0.148507 0 -0.0108664)
(0.133237 0 -0.00876967)
(0.137204 0 -0.00929912)
(0.140966 0 -0.00984227)
(0.144512 0 -0.0103977)
(0.14783 0 -0.010963)
(0.140452 0 -0.00991494)
(0.143803 0 -0.0104495)
(0.146912 0 -0.0109885)
)
;

boundaryField
{
    inlet
    {
        type            fixedValue;
        value           uniform (0 0 0);
    }
    outlet
    {
        type            fixedValue;
        value           nonuniform 0();
    }
    flap
    {
        type            fixedValue;
        value           nonuniform 0();
    }
    upperWall
    {
        type            slip;
    }
    lowerWall
    {
        type            slip;
    }
    frontAndBack
    {
        type            empty;
    }
    procBoundary3to0
    {
        type            processor;
    }
    procBoundary3to1
    {
        type            processor;
    }
    procBoundary3to4
    {
        type            processor;
    }
}


// ************************************************************************* //
