/*--------------------------------*- C++ -*----------------------------------*\
| =========                 |                                                 |
| \\      /  F ield         | OpenFOAM: The Open Source CFD Toolbox           |
|  \\    /   O peration     | Version:  dev                                   |
|   \\  /    A nd           | Web:      www.OpenFOAM.org                      |
|    \\/     M anipulation  |                                                 |
\*---------------------------------------------------------------------------*/
FoamFile
{
    version     2.0;
    format      ascii;
    class       volVectorField;
    location    "1.16";
    object      U;
}
// * * * * * * * * * * * * * * * * * * * * * * * * * * * * * * * * * * * * * //

dimensions      [0 1 -1 0 0 0 0];

internalField   nonuniform List<vector> 
2790
(
(9.93473 0 0.0181177)
(9.86699 -4.67987e-21 0.0245437)
(9.77713 4.88949e-21 0.0285122)
(9.67061 1.02543e-20 0.0326534)
(9.55274 -1.06852e-20 0.0369925)
(9.42466 0 0.0414667)
(9.28594 -2.34553e-20 0.0461901)
(9.13545 4.88846e-20 0.0513102)
(8.97224 -2.54511e-20 0.0569417)
(8.79563 0 0.0631802)
(8.60464 5.59785e-20 0.0701331)
(8.39815 -1.23825e-19 0.077919)
(8.17487 6.06356e-20 0.0866561)
(7.93349 0 0.0964945)
(7.67253 -6.69668e-20 0.107642)
(7.39028 6.93223e-20 0.120312)
(7.08486 -1.82225e-20 0.134689)
(6.75437 0 0.150999)
(6.39694 0 0.169539)
(6.0105 -2.09938e-19 0.1906)
(5.59302 1.73703e-19 0.214467)
(5.14265 0 0.24145)
(4.65771 0 0.27188)
(4.13688 -1.98222e-19 0.306115)
(3.57922 0 0.344573)
(2.98432 0 0.387748)
(2.35209 -2.18197e-19 0.436128)
(1.68236 0 0.489829)
(0.968253 -4.38237e-19 0.543191)
(0.297315 0 0.421665)
(10.0004 0 0.0349391)
(9.99427 -9.34486e-21 0.0487787)
(9.9673 9.75849e-21 0.0579806)
(9.92148 0 0.0681281)
(9.86118 4.27746e-20 0.07927)
(9.78774 8.1822e-23 0.0911632)
(9.70102 0 0.104013)
(9.60006 0 0.11815)
(9.48406 -5.07454e-20 0.133828)
(9.35249 0 0.151258)
(9.20452 0 0.170694)
(9.03914 7.2246e-21 0.192432)
(8.85513 1.50777e-20 0.216768)
(8.65116 -9.84327e-22 0.244045)
(8.42582 0 0.274729)
(8.17759 3.43898e-20 0.309332)
(7.90458 -1.79447e-20 0.348286)
(7.6047 -6.05427e-19 0.392041)
(7.27605 6.25306e-19 0.441174)
(6.91647 4.10955e-20 0.496235)
(6.52362 0 0.557669)
(6.09515 0 0.625836)
(5.6287 -1.50034e-18 0.700971)
(5.12187 1.76007e-19 0.783131)
(4.57209 1.99698e-18 0.872217)
(3.97631 -4.12642e-19 0.967959)
(3.33017 -3.61376e-18 1.06972)
(2.62567 3.42202e-18 1.17641)
(1.82656 -2.98064e-18 1.29134)
(1.04466 3.67705e-18 1.41882)
(9.9978 1.34514e-19 0.0341839)
(9.98925 9.32747e-21 0.0535779)
(9.96491 0 0.0688921)
(9.92404 0 0.0855757)
(9.86981 -4.27071e-20 0.103976)
(9.80368 -1.03834e-22 0.123841)
(9.7256 -9.32072e-20 0.145415)
(9.6348 9.67481e-20 0.169158)
(9.53059 -5.09556e-20 0.19545)
(9.41254 1.05295e-19 0.224623)
(9.27994 -2.21405e-19 0.257085)
(9.13196 4.6033e-19 0.293336)
(8.96761 -4.95461e-19 0.333918)
(8.78559 4.98542e-19 0.379404)
(8.58462 -7.86558e-19 0.430489)
(8.36349 1.05892e-18 0.488015)
(8.12065 -5.31812e-19 0.55284)
(7.85402 0 0.625794)
(7.5617 6.25348e-19 0.707826)
(7.2417 -8.06422e-19 0.799958)
(6.89155 -1.68533e-19 0.90315)
(6.50847 -1.06472e-18 1.01828)
(6.08937 1.45366e-18 1.14608)
(5.63064 0 1.28707)
(5.12767 -2.61462e-21 1.44164)
(4.5741 4.03204e-18 1.61032)
(3.96013 4.36962e-19 1.79435)
(3.26966 -3.29707e-18 1.99706)
(2.47006 0 2.22102)
(1.52468 0 2.58233)
(9.99587 1.60992e-19 0.0356609)
(9.98484 1.30327e-19 0.0623116)
(9.96032 -3.9e-20 0.0852371)
(9.92043 8.14416e-20 0.108902)
(9.86755 -4.24579e-20 0.134295)
(9.8031 0 0.161496)
(9.72714 0 0.19087)
(9.63907 9.6673e-20 0.223006)
(9.53841 0 0.258425)
(9.42479 0 0.297604)
(9.29767 5.4844e-20 0.341097)
(9.15638 -5.71951e-20 0.389567)
(9.00028 -2.98233e-20 0.443781)
(8.82843 1.16718e-20 0.504559)
(8.63978 -8.10808e-21 0.572788)
(8.43337 0 0.649541)
(8.20813 -1.13665e-18 0.736082)
(7.96254 1.1723e-18 0.833707)
(7.69501 0 0.943772)
(7.40392 1.60212e-19 1.06781)
(7.08718 4.98202e-19 1.20747)
(6.74221 -3.46349e-19 1.36442)
(6.36582 0 1.54032)
(5.95392 -3.6801e-19 1.73689)
(5.50098 -3.81772e-18 1.95604)
(4.999 2.70804e-18 2.20025)
(4.43607 0 2.47375)
(3.79045 0 2.78735)
(3.08136 7.68182e-19 3.11392)
(2.00552 8.41938e-19 3.72982)
(9.99484 -2.86161e-19 0.0387141)
(9.98226 1.48489e-19 0.0712491)
(9.95742 -1.55404e-19 0.10056)
(9.91827 -1.62396e-19 0.130294)
(9.86657 0 0.161942)
(9.80359 0 0.195939)
(9.72939 -6.33075e-22 0.232742)
(9.64351 9.58339e-20 0.272989)
(9.54557 2.01706e-19 0.317295)
(9.43525 -2.08915e-19 0.366252)
(9.31209 5.44513e-20 0.420514)
(9.17555 1.26084e-22 0.480834)
(9.02516 8.89469e-20 0.548102)
(8.86031 -5.04679e-19 0.623336)
(8.68023 5.21161e-19 0.707623)
(8.48413 0 0.802196)
(8.27125 0 0.908555)
(8.04068 7.25779e-20 1.02837)
(7.79128 -1.21764e-18 1.16341)
(7.52182 1.25216e-18 1.31567)
(7.23087 -3.27969e-18 1.48742)
(6.91643 -2.69257e-18 1.6812)
(6.57578 -2.80918e-18 1.89975)
(6.20514 6.11585e-18 2.14616)
(5.79931 -3.29675e-18 2.42413)
(5.35075 6.75772e-18 2.73849)
(4.84967 2.3387e-20 3.09498)
(4.2644 -3.65969e-19 3.51327)
(3.70758 -1.24012e-17 3.89998)
(2.52636 -7.2651e-18 4.74582)
(9.99429 -2.85139e-19 0.0425559)
(9.98085 -2.59798e-19 0.0802616)
(9.95593 3.87922e-20 0.115523)
(9.91765 2.43089e-19 0.151322)
(9.86735 0 0.189296)
(9.80613 0 0.230116)
(9.73401 -1.84312e-19 0.274306)
(9.65065 0 0.322522)
(9.55575 -3.00733e-19 0.375466)
(9.44901 3.12007e-19 0.433841)
(9.33007 4.35793e-19 0.498395)
(9.19849 6.00731e-20 0.569956)
(9.05389 -5.51549e-20 0.649512)
(8.89581 4.96841e-19 0.738235)
(8.72375 9.11444e-21 0.837411)
(8.53714 -1.04105e-18 0.94843)
(8.3354 0 1.07294)
(8.11803 -1.43502e-19 1.2129)
(7.88438 0 1.37041)
(7.63354 -1.53926e-19 1.54789)
(7.36469 3.21166e-19 1.74815)
(7.07657 0 1.97451)
(6.76745 0 2.23088)
(6.43442 -5.25243e-18 2.5216)
(6.07327 6.82093e-19 2.85171)
(5.67799 5.00973e-18 3.22789)
(5.24443 3.55591e-19 3.65482)
(4.72184 3.5737e-19 4.16527)
(4.3443 1.08171e-17 4.56728)
(3.07536 -1.25609e-17 5.6002)
(9.99403 2.84765e-19 0.0467913)
(9.98022 3.70242e-20 0.0893386)
(9.95552 -3.86422e-20 0.130178)
(9.91827 -3.22935e-19 0.171827)
(9.86959 0 0.215911)
(9.8104 -1.75802e-19 0.263277)
(9.74072 1.83909e-19 0.314528)
(9.66029 1.91964e-19 0.370357)
(9.56885 9.99646e-20 0.431549)
(9.46619 -1.0377e-19 0.498916)
(9.35201 -1.0803e-19 0.573282)
(9.22597 0 0.655545)
(9.08773 5.82906e-20 0.746772)
(8.93696 -9.75727e-19 0.848242)
(8.77345 -8.50159e-21 0.961392)
(8.59676 1.02855e-18 1.08776)
(8.40639 0 1.22912)
(8.20221 2.34181e-18 1.38759)
(7.98402 -4.83053e-18 1.56562)
(7.75126 -1.98366e-20 1.76597)
(7.50347 2.49036e-18 1.99185)
(7.24 0 2.24714)
(6.96042 -5.29694e-18 2.53678)
(6.66325 5.36757e-18 2.86634)
(6.34559 3.38574e-19 3.24181)
(6.00271 -1.69722e-19 3.67076)
(5.63855 -3.86022e-19 4.15361)
(5.17354 0 4.74329)
(4.97979 1.00485e-17 5.12721)
(3.63606 -1.15005e-17 6.31)
(9.99393 5.6705e-19 0.0511945)
(9.9801 0 0.098376)
(9.95591 0 0.144445)
(9.91988 3.22328e-19 0.191669)
(9.87299 0 0.241625)
(9.81607 1.75379e-19 0.295282)
(9.74916 0 0.353306)
(9.67202 -3.81781e-19 0.416425)
(9.58448 1.96684e-19 0.485504)
(9.48637 0 0.561438)
(9.3775 0 0.64512)
(9.25759 1.00509e-18 0.737512)
(9.12637 -1.9094e-18 0.83976)
(8.98358 9.57833e-19 0.953194)
(8.82924 0 1.07936)
(8.66319 -3.22577e-20 1.21999)
(8.48502 1.07632e-18 1.37695)
(8.29474 -1.10631e-18 1.55243)
(8.09248 1.4407e-19 1.74914)
(7.87826 2.96092e-19 1.97022)
(7.65189 2.44618e-18 2.21921)
(7.41329 2.49211e-18 2.50035)
(7.16266 0 2.81907)
(6.90027 -5.67908e-18 3.18205)
(6.62533 1.01145e-17 3.59614)
(6.3337 -1.02521e-17 4.0693)
(6.0391 1.029e-17 4.59472)
(5.62417 -1.48613e-17 5.25184)
(5.60681 9.6334e-18 5.59738)
(4.19899 1.07514e-17 6.90619)
(9.99391 -5.66131e-19 0.0556324)
(9.98031 5.14086e-19 0.10726)
(9.95693 7.67758e-20 0.158242)
(9.92233 0 0.210767)
(9.87738 1.67668e-19 0.266352)
(9.82294 -1.74124e-19 0.326024)
(9.75907 0 0.390497)
(9.68557 -1.89301e-19 0.460542)
(9.60232 0 0.537096)
(9.50919 -2.0416e-19 0.621126)
(9.40609 4.26321e-19 0.713569)
(9.29285 5.55381e-19 0.81546)
(9.16927 -9.13111e-19 0.928034)
(9.03523 1.18487e-19 1.05265)
(8.89069 0 1.19086)
(8.73586 3.19673e-20 1.34458)
(8.57077 2.15194e-18 1.51585)
(8.39531 1.56844e-20 1.70688)
(8.20977 1.55011e-20 1.92051)
(8.01472 -4.76854e-18 2.16019)
(7.81049 2.36401e-18 2.42981)
(7.59766 4.89224e-18 2.73392)
(7.37667 -9.84603e-18 3.07814)
(7.14892 5.12568e-18 3.46962)
(6.91602 0 3.91582)
(6.67412 0 4.42541)
(6.44848 4.77954e-18 4.98244)
(6.07733 -5.80792e-18 5.69645)
(6.22253 2.18535e-18 5.99494)
(4.76019 6.11545e-19 7.41379)
(9.99394 0 0.0600266)
(9.98073 -1.09877e-18 0.115888)
(9.95842 -7.64897e-20 0.17148)
(9.92545 0 0.229042)
(9.88257 -4.99788e-19 0.290002)
(9.83084 -3.47388e-19 0.355377)
(9.77036 1.8033e-19 0.425936)
(9.70086 -3.75335e-19 0.502514)
(9.62226 0 0.586113)
(9.53453 2.03224e-19 0.677747)
(9.43765 2.10234e-19 0.778381)
(9.3315 -2.18936e-19 0.8891)
(9.21606 0 1.01122)
(9.09144 -1.0592e-18 1.14617)
(8.95743 9.67974e-19 1.29548)
(8.81439 1.25063e-19 1.46109)
(8.66287 -3.24977e-20 1.64522)
(8.5029 0 1.85026)
(8.33489 -2.20214e-18 2.07908)
(8.15975 -1.15283e-20 2.33526)
(7.97838 2.29607e-18 2.62293)
(7.79188 -3.68286e-20 2.94695)
(7.60149 -1.46871e-19 3.31322)
(7.40914 4.74963e-18 3.7289)
(7.21821 -5.32579e-18 4.2014)
(7.02456 -5.74588e-19 4.74054)
(6.86631 0 5.32067)
(6.53587 1.09427e-18 6.0811)
(6.82465 -2.11095e-18 6.33644)
(5.3187 -9.90828e-18 7.84772)
(9.99405 -5.96193e-19 0.0643176)
(9.98136 6.20834e-19 0.124178)
(9.96024 0 0.184083)
(9.92904 4.77203e-19 0.24642)
(9.88847 3.32506e-19 0.312476)
(9.83973 3.46332e-19 0.383203)
(9.78292 -1.79299e-19 0.459456)
(9.71772 3.73926e-19 0.542156)
(9.6441 3.88784e-19 0.632343)
(9.56216 -4.01521e-19 0.731056)
(9.47197 8.36243e-19 0.839284)
(9.37337 -8.62598e-19 0.958156)
(9.26644 -2.23295e-19 1.08902)
(9.15153 0 1.23337)
(9.0286 -2.38409e-19 1.39278)
(8.89801 -1.23789e-19 1.56912)
(8.76048 -1.26571e-19 1.76472)
(8.61645 0 1.98214)
(8.46657 -1.33255e-19 2.22426)
(8.3121 -2.19388e-18 2.49476)
(8.1544 2.22641e-18 2.79794)
(7.99473 0 3.13877)
(7.83541 -4.39786e-18 3.52337)
(7.67911 3.98277e-18 3.95899)
(7.53055 5.66853e-19 4.45254)
(7.38461 5.54287e-19 5.01519)
(7.29151 0 5.61256)
(7.00266 0 6.40781)
(7.41021 0 6.64083)
(5.8764 0 8.23136)
(9.99434 5.94969e-19 0.0684261)
(9.98234 6.17236e-19 0.132073)
(9.96238 -7.58578e-20 0.19602)
(9.933 3.15667e-19 0.262828)
(9.89503 -1.65246e-19 0.333647)
(9.84952 1.71442e-19 0.409364)
(9.79656 0 0.490924)
(9.73585 3.71612e-19 0.579322)
(9.66742 1.68157e-21 0.675621)
(9.59148 1.15051e-22 0.780841)
(9.50821 -2.07065e-19 0.896016)
(9.41752 -2.13343e-19 1.02235)
(9.31952 4.42152e-19 1.1612)
(9.21469 9.15664e-19 1.31401)
(9.10328 -7.03159e-19 1.48242)
(8.9857 2.41506e-19 1.6683)
(8.86264 1.25053e-19 1.87398)
(8.73499 2.30131e-18 2.10211)
(8.60366 -1.21405e-19 2.35556)
(8.47022 -2.12456e-18 2.63803)
(8.33665 0 2.9541)
(8.2045 -4.88743e-18 3.30869)
(8.07663 4.36168e-18 3.70785)
(7.95683 -5.2449e-19 4.15889)
(7.85097 1.0488e-18 4.66822)
(7.75321 0 5.24844)
(7.72303 1.9345e-18 5.85966)
(7.48322 0 6.67684)
(7.98023 3.45493e-18 6.92909)
(6.44788 0 8.60869)
(9.99473 -5.56531e-19 0.0722772)
(9.98351 -1.26122e-21 0.139535)
(9.96469 6.03803e-19 0.207287)
(9.93718 -4.73283e-19 0.278214)
(9.90197 -1.63905e-19 0.353412)
(9.85987 0 0.433755)
(9.81092 0 0.520241)
(9.75489 -3.68832e-19 0.613915)
(9.69185 -2.85601e-23 0.715844)
(9.62218 -3.96105e-19 0.827014)
(9.54601 0 0.948476)
(9.46339 -2.13929e-19 1.08153)
(9.37473 6.52182e-19 1.22751)
(9.28038 0 1.38782)
(9.18078 1.85706e-18 1.56411)
(9.07651 -2.13874e-18 1.75829)
(8.96831 0 1.97265)
(8.8574 -2.50677e-19 2.2098)
(8.74503 2.55656e-19 2.4726)
(8.63266 -2.06544e-18 2.76466)
(8.52302 2.08582e-18 3.09072)
(8.41859 -3.13232e-18 3.45575)
(8.32249 4.18025e-18 3.86551)
(8.23953 1.03927e-18 4.32714)
(8.1767 1.96721e-18 4.84679)
(8.12817 -5.79446e-18 5.43771)
(8.15904 -1.85967e-18 6.06006)
(7.98383 3.32915e-18 6.88538)
(8.55205 -3.33755e-18 7.20812)
(7.06728 -6.80221e-18 9.02917)
(9.99513 5.20699e-19 0.0758413)
(9.98472 -5.41017e-19 0.146539)
(9.96712 -4.51766e-19 0.217857)
(9.94163 -1.56635e-19 0.292532)
(9.90931 6.51867e-19 0.371709)
(9.87076 -3.38788e-19 0.456304)
(9.82599 0 0.54733)
(9.77479 0 0.645835)
(9.7174 3.77691e-19 0.752859)
(9.65438 3.90894e-19 0.869396)
(9.58557 -8.11132e-19 0.996519)
(9.51115 -4.222e-19 1.13552)
(9.4319 1.28915e-18 1.28773)
(9.34814 -4.41896e-19 1.45454)
(9.26045 1.37143e-18 1.63759)
(9.16958 -1.8651e-18 1.83879)
(9.07646 1.43774e-18 2.06033)
(8.98256 3.77722e-21 2.30476)
(8.8894 -2.47167e-18 2.57498)
(8.79831 0 2.8744)
(8.71232 -4.52596e-18 3.20749)
(8.63505 -4.54486e-18 3.57927)
(8.57041 -3.97335e-18 3.99524)
(8.5239 7.82485e-18 4.4622)
(8.50402 -2.86461e-18 4.98604)
(8.50573 1.83563e-18 5.57909)
(8.59654 3.31375e-18 6.20743)
(8.50869 -3.36268e-18 7.02269)
(9.14988 -2.75721e-18 7.45717)
(7.78276 3.05546e-18 9.52324)
(9.99551 -1.10331e-18 0.079105)
(9.98601 7.17607e-20 0.153037)
(9.96991 3.73335e-19 0.227654)
(9.94666 1.55826e-19 0.305706)
(9.91733 -6.49932e-19 0.388467)
(9.88243 3.37662e-19 0.476939)
(9.84196 -3.50362e-19 0.572117)
(9.79571 7.25052e-19 0.675)
(9.74407 -1.12635e-18 0.78657)
(9.68767 -2.84828e-21 0.90787)
(9.62633 7.99481e-19 1.04005)
(9.56034 0 1.1843)
(9.49058 4.25143e-19 1.34191)
(9.4175 8.76175e-19 1.51426)
(9.34177 1.34918e-18 1.70298)
(9.26433 -1.83112e-18 1.90991)
(9.18628 4.69937e-19 2.13713)
(9.10926 0 2.3871)
(9.03491 2.8926e-18 2.66272)
(8.96505 -1.46322e-18 2.9673)
(8.90275 -1.45436e-18 3.30471)
(8.85205 0 3.67956)
(8.81774 0 4.09706)
(8.80622 0 4.56344)
(8.82768 1.78025e-18 5.08382)
(8.87925 -1.66508e-18 5.6682)
(9.02883 3.2538e-18 6.29102)
(9.05243 -5.861e-18 7.06726)
(9.78332 0 7.61678)
(8.65756 2.35767e-18 10.1313)
(0.231934 0 -0.231152)
(0.527784 0 -0.185726)
(0.880762 -8.98271e-19 -0.146526)
(1.27221 6.21201e-19 -0.123943)
(1.70409 -2.06343e-19 -0.114138)
(2.14666 0 -0.109834)
(2.55745 0 -0.104657)
(2.90659 5.89804e-20 -0.0962629)
(3.18416 -3.08072e-19 -0.0843221)
(3.38679 1.21949e-21 -0.0691648)
(3.5145 -2.44763e-19 -0.0510408)
(3.56793 6.05527e-20 -0.0299119)
(3.5476 8.7648e-20 -0.00664599)
(3.46047 2.83776e-20 0.0148702)
(3.32993 -2.6347e-20 0.0306256)
(3.17492 -7.62049e-20 0.0400461)
(3.01089 0 0.0434856)
(2.85062 9.11967e-20 0.0415996)
(2.70543 1.03531e-20 0.0354629)
(2.58419 -1.02173e-20 0.0263208)
(2.49571 -4.40217e-21 0.0152501)
(2.45365 -6.2548e-20 0.00316961)
(2.4485 0 -0.00969526)
(2.49644 0 -0.027841)
(2.61849 4.71655e-20 -0.0560377)
(2.83105 0 -0.0968874)
(3.14635 0 -0.152244)
(3.57061 0 -0.221821)
(4.12065 0 -0.302157)
(4.95952 6.60358e-21 -0.397425)
(0.0518554 -3.47957e-22 -0.343645)
(0.280964 -2.0376e-18 -0.311316)
(0.594108 1.33723e-18 -0.283849)
(0.946769 8.22106e-19 -0.274788)
(1.31882 -1.64155e-18 -0.273417)
(1.67925 8.65113e-19 -0.265806)
(1.9866 -4.25038e-19 -0.246016)
(2.21513 7.79291e-19 -0.213459)
(2.35719 -2.47651e-19 -0.170042)
(2.41327 0 -0.118028)
(2.38764 1.22751e-19 -0.0596073)
(2.28841 0 0.00120951)
(2.13887 -1.48108e-21 0.0569939)
(1.96564 -1.14483e-19 0.101084)
(1.77546 5.32288e-20 0.131784)
(1.58023 5.06714e-20 0.14965)
(1.3908 1.96174e-19 0.155731)
(1.21718 -9.23216e-20 0.151138)
(1.06805 2.1003e-20 0.137054)
(0.951894 -1.62302e-19 0.114737)
(0.876017 -3.7103e-20 0.0846855)
(0.850693 1.01856e-19 0.0466645)
(0.867947 -7.74164e-20 -0.00526159)
(0.948223 6.10653e-20 -0.0737975)
(1.09777 -5.4141e-20 -0.158713)
(1.3194 0 -0.259834)
(1.61763 6.56431e-20 -0.375639)
(1.99458 0 -0.502839)
(2.46028 3.19389e-20 -0.639887)
(3.04311 5.41401e-21 -0.805647)
(-0.0383686 -2.19002e-18 -0.456059)
(0.0660619 9.96533e-19 -0.434442)
(0.307349 -1.75907e-18 -0.414294)
(0.574909 1.65235e-18 -0.40036)
(0.848991 0 -0.387771)
(1.09396 -8.63255e-19 -0.363471)
(1.27098 8.96396e-19 -0.31988)
(1.36445 0 -0.257503)
(1.37578 1.23332e-19 -0.181321)
(1.31375 0 -0.095868)
(1.19092 -2.44532e-19 -0.00774353)
(1.03274 2.44968e-19 0.0733422)
(0.856896 0 0.139747)
(0.665031 -2.27702e-19 0.189456)
(0.467274 0 0.221413)
(0.272591 0 0.23468)
(0.0896052 4.60345e-22 0.229746)
(-0.0736529 1.86149e-19 0.207994)
(-0.209876 -4.21701e-20 0.171277)
(-0.312622 2.02839e-19 0.121507)
(-0.37504 1.48658e-19 0.0603255)
(-0.390322 -1.62864e-20 -0.0117822)
(-0.358776 7.75398e-20 -0.0975989)
(-0.274677 -4.19e-20 -0.200905)
(-0.136216 8.24805e-20 -0.321165)
(0.0529397 4.62931e-21 -0.458342)
(0.294724 -7.08506e-20 -0.6128)
(0.585201 0 -0.782986)
(0.915443 -3.2309e-20 -0.969877)
(1.21545 -1.25482e-21 -1.18793)
(-0.0865694 -4.39935e-22 -0.5344)
(-0.097234 -2.91268e-18 -0.504278)
(0.074867 8.76668e-19 -0.498089)
(0.252825 -8.31712e-19 -0.480901)
(0.428654 -8.43288e-19 -0.452749)
(0.555513 0 -0.407399)
(0.610773 -7.32428e-21 -0.338303)
(0.593081 0 -0.248087)
(0.510721 -2.50417e-19 -0.144585)
(0.37742 0 -0.0361901)
(0.21549 0 0.0667471)
(0.040387 -4.8864e-19 0.156031)
(-0.147239 -2.32672e-19 0.228591)
(-0.341592 4.55947e-19 0.282516)
(-0.536271 -4.34443e-19 0.315481)
(-0.724807 0 0.326167)
(-0.900723 -5.84721e-19 0.314602)
(-1.05736 -1.82971e-19 0.281819)
(-1.18794 -4.15182e-20 0.229469)
(-1.28595 4.09893e-20 0.159507)
(-1.3455 -1.11317e-19 0.073581)
(-1.36161 -3.48594e-20 -0.0281404)
(-1.33203 0 -0.148232)
(-1.2605 -1.06763e-19 -0.286549)
(-1.14686 -9.39097e-20 -0.440444)
(-0.997456 0 -0.608662)
(-0.817823 -1.26217e-19 -0.789015)
(-0.620178 9.37299e-20 -0.978626)
(-0.434405 -6.39302e-22 -1.17477)
(-0.323249 -1.04827e-20 -1.36873)
(-0.108683 0 -0.589238)
(-0.223741 -1.90274e-18 -0.536376)
(-0.112823 4.36195e-18 -0.543296)
(-0.0187649 -1.69674e-18 -0.514711)
(0.0564627 1.73955e-18 -0.468491)
(0.0778493 0 -0.399212)
(0.0365328 7.52146e-21 -0.305274)
(-0.0594844 0 -0.193316)
(-0.196699 2.58439e-19 -0.0740448)
(-0.358921 1.01029e-18 0.0431568)
(-0.530459 5.01019e-19 0.150226)
(-0.71434 4.16862e-21 0.243981)
(-0.906354 3.79184e-21 0.320917)
(-1.1017 0 0.376983)
(-1.29519 4.274e-19 0.408893)
(-1.48139 9.97051e-20 0.414751)
(-1.65462 3.79947e-19 0.394083)
(-1.80891 -4.54726e-19 0.34765)
(-1.9383 0 0.277161)
(-2.03725 0 0.185015)
(-2.10124 -3.4701e-20 0.0738034)
(-2.12706 2.85004e-21 -0.0547911)
(-2.11232 3.10911e-20 -0.200627)
(-2.06507 9.32336e-20 -0.363068)
(-1.98611 1.92762e-19 -0.538929)
(-1.88249 -1.51523e-19 -0.724855)
(-1.76396 2.45793e-19 -0.916622)
(-1.64683 -3.68942e-21 -1.10911)
(-1.56102 -5.38277e-20 -1.29675)
(-1.53281 1.76459e-20 -1.45394)
(-0.106126 0 -0.625862)
(-0.321311 3.74656e-18 -0.539727)
(-0.262922 -1.75389e-18 -0.549729)
(-0.249477 1.74534e-18 -0.504631)
(-0.263532 -9.04015e-19 -0.436575)
(-0.325664 0 -0.3448)
(-0.433 0 -0.233502)
(-0.573479 -2.54874e-19 -0.110715)
(-0.735507 -5.09993e-19 0.0149931)
(-0.904676 5.08654e-19 0.13471)
(-1.0852 -4.98139e-19 0.245357)
(-1.27408 8.00225e-21 0.342821)
(-1.46814 7.03814e-19 0.421895)
(-1.66379 6.73543e-19 0.477923)
(-1.85689 0 0.507213)
(-2.04279 0 0.507432)
(-2.21648 0 0.477755)
(-2.37274 3.57656e-19 0.418751)
(-2.50637 -8.09037e-20 0.332164)
(-2.61266 -2.29174e-19 0.220674)
(-2.68806 3.41651e-20 0.0874688)
(-2.73046 2.24456e-19 -0.0645752)
(-2.7377 2.58865e-19 -0.233269)
(-2.71919 1.76458e-19 -0.416205)
(-2.67664 -1.78875e-19 -0.60921)
(-2.61673 2.9632e-19 -0.80665)
(-2.55195 -1.03736e-20 -1.00235)
(-2.49848 -8.16746e-20 -1.19)
(-2.47817 5.33554e-20 -1.36249)
(-2.48805 -1.77086e-20 -1.49228)
(-0.0763225 1.11944e-18 -0.648558)
(-0.39312 -1.85603e-18 -0.51793)
(-0.380331 -3.55415e-18 -0.519053)
(-0.437719 -9.00526e-19 -0.452764)
(-0.522436 1.88991e-18 -0.364626)
(-0.64178 0 -0.256478)
(-0.787652 0 -0.134954)
(-0.950202 -7.74018e-19 -0.0071997)
(-1.11702 1.04125e-18 0.118566)
(-1.29266 -5.07543e-19 0.240004)
(-1.47619 4.95028e-19 0.352991)
(-1.66608 -4.79555e-19 0.452218)
(-1.86027 -9.02763e-21 0.531941)
(-2.056 -8.93798e-19 0.586921)
(-2.24984 -6.33105e-19 0.612961)
(-2.43776 2.04856e-19 0.607302)
(-2.61536 -1.84548e-19 0.568772)
(-2.77796 1.8222e-19 0.497754)
(-2.92087 0 0.396028)
(-3.0398 3.06275e-19 0.26658)
(-3.13161 2.79735e-19 0.113345)
(-3.19472 -2.86494e-19 -0.0593036)
(-3.22737 6.90796e-23 -0.247119)
(-3.23852 -1.75509e-19 -0.446285)
(-3.23129 -1.80069e-19 -0.651943)
(-3.21215 5.69489e-21 -0.85668)
(-3.1929 -1.15078e-19 -1.05295)
(-3.18886 -2.04185e-21 -1.23392)
(-3.21313 -4.55316e-20 -1.39132)
(-3.24457 5.1291e-22 -1.49957)
(-0.0120408 1.12278e-18 -0.664882)
(-0.436896 -1.8455e-18 -0.470187)
(-0.465277 3.63318e-18 -0.452874)
(-0.577835 -1.9729e-22 -0.365271)
(-0.712031 -3.71763e-18 -0.260682)
(-0.865086 2.07002e-18 -0.143068)
(-1.0285 0 -0.0177833)
(-1.19346 0 0.108247)
(-1.36279 5.2896e-19 0.234162)
(-1.53805 0 0.356769)
(-1.71998 0 0.471262)
(-1.90809 0 0.571665)
(-2.10115 9.21394e-19 0.651665)
(-2.29702 -2.33101e-19 0.705471)
(-2.49277 6.3125e-19 0.728425)
(-2.68488 -1.95615e-19 0.717371)
(-2.8693 1.9302e-19 0.670823)
(-3.04175 0 0.589004)
(-3.19785 0 0.473728)
(-3.33365 -7.27167e-20 0.328231)
(-3.44619 -2.05556e-19 0.157055)
(-3.53403 -2.49224e-19 -0.0341009)
(-3.59543 -3.29306e-21 -0.238987)
(-3.63646 0 -0.4519)
(-3.66276 1.69127e-19 -0.667473)
(-3.68029 -1.32445e-19 -0.877316)
(-3.69952 -7.64604e-21 -1.07308)
(-3.73453 0 -1.24754)
(-3.79081 4.68068e-20 -1.39202)
(-3.83605 0 -1.48448)
(0.101494 0 -0.686355)
(-0.461032 1.85304e-18 -0.390072)
(-0.514513 1.88215e-18 -0.355923)
(-0.665993 -3.97684e-18 -0.249505)
(-0.827908 1.83221e-18 -0.134907)
(-0.993469 2.71723e-19 -0.0142339)
(-1.15589 -5.41174e-19 0.107925)
(-1.31759 1.63866e-18 0.232734)
(-1.48177 -5.32055e-19 0.358845)
(-1.6514 0 0.482743)
(-1.82814 0 0.598971)
(-2.0124 4.81862e-19 0.700914)
(-2.20353 -1.32727e-20 0.781689)
(-2.39984 -4.48666e-21 0.834986)
(-2.59879 -6.29659e-19 0.855701)
(-2.79716 3.99914e-19 0.840294)
(-2.99114 -1.92721e-19 0.786974)
(-3.17663 -8.49323e-20 0.69581)
(-3.3494 4.08863e-19 0.56866)
(-3.50557 0 0.40901)
(-3.6421 0 0.221936)
(-3.75745 2.47611e-19 0.0141274)
(-3.85059 -2.20921e-19 -0.206517)
(-3.92185 -1.66608e-19 -0.432366)
(-3.98068 -1.26221e-20 -0.656473)
(-4.03142 -9.1683e-21 -0.870733)
(-4.08338 0 -1.06624)
(-4.1501 0 -1.23541)
(-4.2306 -8.25011e-20 -1.36974)
(-4.28541 4.50139e-22 -1.45087)
(0.282801 1.01714e-17 -0.720711)
(-0.473429 -3.74689e-18 -0.277506)
(-0.529339 0 -0.233345)
(-0.699806 2.65029e-19 -0.114969)
(-0.867074 0 0.00242007)
(-1.02631 -2.80983e-19 0.118647)
(-1.17843 -5.61535e-19 0.238184)
(-1.32826 -1.11557e-18 0.362357)
(-1.48084 0 0.489548)
(-1.64022 0 0.615795)
(-1.80882 0 0.734939)
(-1.9876 -4.97169e-19 0.83969)
(-2.1763 4.75611e-19 0.922589)
(-2.37353 2.26076e-19 0.976816)
(-2.57701 -6.45341e-19 0.996814)
(-2.78365 0 0.978646)
(-2.98974 -1.82337e-19 0.920209)
(-3.19125 1.8009e-19 0.821424)
(-3.38392 -4.00721e-19 0.684179)
(-3.56369 7.69592e-20 0.512184)
(-3.72717 0 0.31096)
(-3.87214 2.4047e-19 0.0878943)
(-3.99751 0 -0.147903)
(-4.10178 3.72403e-19 -0.38683)
(-4.19149 0 -0.619364)
(-4.27269 0 -0.838392)
(-4.35437 1.97217e-19 -1.03473)
(-4.44783 -1.37914e-19 -1.20047)
(-4.54765 8.148e-20 -1.3275)
(-4.60954 4.22645e-22 -1.40059)
(0.513416 -1.13806e-18 -0.763901)
(-0.474735 0 -0.133936)
(-0.513443 -1.58334e-18 -0.0953193)
(-0.678449 1.96411e-18 0.0255085)
(-0.830118 2.3348e-18 0.137623)
(-0.969054 -2.93224e-18 0.250098)
(-1.09987 0 0.367911)
(-1.22964 -9.00389e-21 0.492738)
(-1.36467 0 0.622969)
(-1.50973 0 0.753727)
(-1.66766 0 0.87796)
(-1.83964 9.89565e-19 0.98767)
(-2.02554 -9.58679e-19 1.0748)
(-2.22409 -4.50891e-19 1.13202)
(-2.43312 -4.36158e-19 1.15339)
(-2.64972 0 1.1346)
(-2.87017 3.77203e-19 1.07318)
(-3.09043 -4.33503e-19 0.968854)
(-3.30596 8.32477e-20 0.823466)
(-3.51216 -3.63046e-19 0.640882)
(-3.70525 6.95469e-20 0.427058)
(-3.8823 -2.39297e-19 0.190012)
(-4.04145 -2.45941e-20 -0.0603829)
(-4.18126 -1.59466e-19 -0.313194)
(-4.30207 3.01564e-19 -0.556063)
(-4.41218 -6.88782e-21 -0.781073)
(-4.52109 -9.39159e-22 -0.979915)
(-4.63807 2.63576e-19 -1.14456)
(-4.75415 -7.22414e-20 -1.26704)
(-4.82161 2.35665e-20 -1.33465)
(0.800801 0 -0.793866)
(-0.469845 0 0.0288404)
(-0.47126 -4.22214e-19 0.0369718)
(-0.605401 0 0.153518)
(-0.720902 0 0.262811)
(-0.824184 6.02601e-19 0.372609)
(-0.922479 0 0.490252)
(-1.0242 1.74574e-18 0.61847)
(-1.13612 -9.32804e-21 0.754955)
(-1.26316 -5.5106e-19 0.893692)
(-1.40822 5.24235e-19 1.02642)
(-1.57232 -5.02057e-19 1.14424)
(-1.75518 4.91383e-19 1.23854)
(-1.95543 9.24935e-19 1.30155)
(-2.1709 8.59889e-19 1.32694)
(-2.39878 0 1.31012)
(-2.63536 -3.75729e-19 1.24826)
(-2.87646 -3.50767e-19 1.14076)
(-3.11735 0 0.989288)
(-3.35275 2.91619e-19 0.79774)
(-3.57812 0 0.572451)
(-3.7897 0 0.322047)
(-3.98465 0 0.0571665)
(-4.16116 0 -0.209825)
(-4.31702 -3.09771e-19 -0.466249)
(-4.45574 2.44032e-19 -0.698984)
(-4.59056 -1.86333e-19 -0.902442)
(-4.72971 -6.33179e-21 -1.06866)
(-4.86036 7.22423e-20 -1.18929)
(-4.93253 -2.36117e-20 -1.25357)
(1.12681 4.17141e-18 -0.802515)
(-0.461314 0 0.173293)
(-0.406766 1.53716e-19 0.13541)
(-0.481971 -2.5294e-18 0.258234)
(-0.540748 2.50606e-18 0.366031)
(-0.593079 6.30365e-19 0.474664)
(-0.647216 -6.19528e-19 0.596483)
(-0.712901 0 0.733443)
(-0.796676 0 0.881273)
(-0.902625 -5.56492e-19 1.03274)
(-1.03307 5.34175e-19 1.17849)
(-1.18847 -1.03545e-18 1.30849)
(-1.36802 0 1.41364)
(-1.57018 -6.95944e-19 1.48593)
(-1.79278 -2.23696e-19 1.51873)
(-2.03295 -1.98268e-19 1.507)
(-2.28693 2.87011e-19 1.44761)
(-2.5503 -1.00185e-20 1.33962)
(-2.81809 -8.30275e-20 1.18444)
(-3.08475 5.77833e-19 0.98596)
(-3.3448 0 0.750785)
(-3.59338 4.57921e-19 0.488123)
(-3.82653 3.99382e-19 0.209272)
(-4.04152 0 -0.0729432)
(-4.23626 2.89017e-19 -0.34508)
(-4.40781 -1.36202e-20 -0.59103)
(-4.56912 1.57905e-21 -0.802321)
(-4.73061 -1.22153e-19 -0.972983)
(-4.87537 0 -1.09465)
(-4.95191 0 -1.15762)
(1.46865 6.59146e-19 -0.857567)
(-0.398497 -2.69729e-18 0.35921)
(-0.307834 2.21602e-18 0.213251)
(-0.302733 -6.55186e-19 0.333463)
(-0.288445 0 0.43341)
(-0.275616 -6.33209e-19 0.542045)
(-0.273957 -1.40697e-20 0.675995)
(-0.296115 0 0.83145)
(-0.347342 5.91799e-19 0.99871)
(-0.429951 -5.77954e-19 1.16909)
(-0.544822 0 1.33287)
(-0.691108 -7.91892e-19 1.47963)
(-0.866973 2.54336e-19 1.59978)
(-1.07067 0 1.68523)
(-1.30026 0 1.72932)
(-1.55292 0 1.72634)
(-1.82482 -9.21321e-20 1.67279)
(-2.11149 8.64875e-20 1.56748)
(-2.40781 0 1.41144)
(-2.7079 -5.42096e-19 1.20825)
(-3.00556 -3.38999e-20 0.964553)
(-3.29475 -4.43243e-19 0.690013)
(-3.57001 -4.11366e-19 0.396694)
(-3.82669 2.41974e-21 0.0982622)
(-4.06111 -5.63487e-19 -0.190806)
(-4.27269 -2.27981e-19 -0.455661)
(-4.46254 1.64394e-19 -0.678384)
(-4.64719 -1.10052e-19 -0.856676)
(-4.8073 -8.50792e-23 -0.982727)
(-4.88878 0 -1.04658)
(1.91451 0 -0.821494)
(-0.405938 -7.20037e-21 0.202861)
(-0.200464 0 0.267152)
(-0.071506 6.50183e-19 0.37709)
(0.0278794 -1.32571e-18 0.449133)
(0.125934 6.35137e-19 0.55928)
(0.197199 1.925e-18 0.71702)
(0.225616 -1.26033e-18 0.901621)
(0.210833 6.15627e-19 1.09801)
(0.152529 0 1.29787)
(0.0525287 -1.14093e-18 1.48905)
(-0.0843615 5.33335e-19 1.65769)
(-0.25578 -5.15431e-19 1.7964)
(-0.459826 4.852e-19 1.89806)
(-0.695138 0 1.95672)
(-0.959219 0 1.96639)
(-1.24812 0 1.92237)
(-1.55769 1.41104e-18 1.82341)
(-1.8831 6.41115e-19 1.67009)
(-2.21803 0 1.46513)
(-2.55543 0 1.2153)
(-2.88826 0 0.930646)
(-3.20957 3.82156e-19 0.623706)
(-3.51268 2.78992e-21 0.30896)
(-3.79176 2.74005e-19 0.00140863)
(-4.04551 1.90066e-21 -0.283113)
(-4.27767 -1.64747e-19 -0.528)
(-4.48789 2.13991e-19 -0.718259)
(-4.66466 7.92489e-22 -0.851822)
(-4.75173 -1.54869e-22 -0.918917)
(9.99576 -1.06042e-18 0.0821312)
(9.98723 5.4924e-19 0.159084)
(9.97291 -5.74465e-19 0.236755)
(9.9521 -7.46244e-19 0.317918)
(9.92572 1.55201e-19 0.403979)
(9.89442 0 0.496013)
(9.85835 0 0.595)
(9.81726 0 0.701875)
(9.77163 0 0.817553)
(9.72199 -3.70725e-19 0.943106)
(9.6684 0 1.07974)
(9.61135 -3.9161e-19 1.22859)
(9.55156 -1.21095e-18 1.39083)
(9.4896 4.11734e-19 1.56785)
(9.42629 -1.69811e-18 1.76121)
(9.36269 4.28739e-19 1.97265)
(9.30018 1.32457e-18 2.20416)
(9.2403 -1.7901e-18 2.45806)
(9.18476 4.4742e-19 2.7371)
(9.13622 1.364e-18 3.04437)
(9.09806 9.02801e-19 3.38319)
(9.07415 -4.48416e-18 3.75749)
(9.07 4.59605e-20 4.1719)
(9.0926 3.47451e-18 4.63127)
(9.15308 -1.67424e-18 5.13911)
(9.25293 1.47268e-18 5.70145)
(9.45825 -2.97199e-18 6.29852)
(9.61403 3.97475e-18 6.99131)
(10.5949 9.7933e-20 7.54006)
(11.7526 4.77081e-18 10.376)
(9.99589 1.0277e-18 0.0849626)
(9.98839 -5.35011e-19 0.164658)
(9.97604 0 0.245104)
(9.95782 5.80982e-19 0.329164)
(9.93443 -6.01975e-19 0.418288)
(9.90683 6.24602e-19 0.513537)
(9.87536 6.47086e-19 0.615914)
(9.83976 0 0.72634)
(9.80047 -6.93877e-19 0.845671)
(9.75783 7.14065e-19 0.974959)
(9.71213 0 1.1154)
(9.66409 -3.78389e-19 1.26807)
(9.61435 1.94474e-18 1.43411)
(9.5636 -2.38985e-18 1.61487)
(9.51281 1.62699e-18 1.81175)
(9.46307 -4.16807e-19 2.02636)
(9.41602 2.11006e-18 2.26067)
(9.37309 -3.41517e-18 2.51681)
(9.33613 3.4321e-18 2.79716)
(9.30845 -1.73032e-18 3.10436)
(9.29336 -8.67237e-19 3.44116)
(9.29479 4.24293e-18 3.81086)
(9.31913 -8.32421e-18 4.21714)
(9.37291 4.87177e-18 4.66258)
(9.46693 -3.05132e-18 5.14818)
(9.60665 8.21889e-20 5.67393)
(9.84923 0 6.21828)
(10.0809 1.90419e-18 6.77904)
(10.6948 -1.70645e-18 7.20483)
(11.476 -1.50031e-18 8.05606)
(9.99607 2.83882e-20 0.0875637)
(9.98969 -1.06879e-18 0.169668)
(9.97935 0 0.252569)
(9.96378 -5.62134e-19 0.339292)
(9.94363 5.85847e-19 0.431218)
(9.91995 -3.0407e-19 0.529293)
(9.89318 -1.8841e-18 0.634592)
(9.86319 -3.23543e-19 0.748095)
(9.83028 6.70862e-19 0.870606)
(9.79475 3.45832e-19 1.00311)
(9.7571 -7.09932e-19 1.14672)
(9.71812 3.63801e-19 1.30248)
(9.67845 7.48688e-19 1.47149)
(9.639 -7.64943e-19 1.655)
(9.60077 0 1.85429)
(9.56476 0 2.07083)
(9.53272 0 2.30646)
(9.5063 -8.16529e-19 2.5631)
(9.48761 -8.17913e-19 2.84264)
(9.48008 1.01129e-20 3.14721)
(9.48656 2.44761e-18 3.47894)
(9.51119 0 3.84035)
(9.5606 1.59216e-18 4.2336)
(9.64031 -1.54553e-18 4.6589)
(9.75989 -1.45449e-18 5.11443)
(9.92404 2.82023e-18 5.59339)
(10.1669 -1.97705e-18 6.07075)
(10.4036 -6.59664e-19 6.50153)
(10.7089 0 6.81743)
(11.3079 5.30908e-20 7.33494)
(9.99636 -1.94226e-18 0.0898607)
(9.99122 2.01579e-18 0.174056)
(9.98277 -5.24358e-19 0.259086)
(9.96981 5.47215e-19 0.348145)
(9.95315 8.49986e-19 0.442538)