/*--------------------------------*- C++ -*----------------------------------*\
| =========                 |                                                 |
| \\      /  F ield         | OpenFOAM: The Open Source CFD Toolbox           |
|  \\    /   O peration     | Version:  dev                                   |
|   \\  /    A nd           | Web:      www.OpenFOAM.org                      |
|    \\/     M anipulation  |                                                 |
\*---------------------------------------------------------------------------*/
FoamFile
{
    version     2.0;
    format      ascii;
    class       volVectorField;
    location    "2.36";
    object      cellDisplacement;
}
// * * * * * * * * * * * * * * * * * * * * * * * * * * * * * * * * * * * * * //

dimensions      [0 1 0 0 0 0 0];

internalField   nonuniform List<vector> 
2790
(
(0.0122336 0 -5.77145e-05)
(0.0348707 0 -0.000164903)
(0.0540732 0 -0.000258175)
(0.0701542 0 -0.000339922)
(0.083458 0 -0.000412245)
(0.0942849 0 -0.000476601)
(0.102895 0 -0.000533955)
(0.109512 0 -0.000584878)
(0.114333 0 -0.000629742)
(0.117523 0 -0.000670066)
(0.119232 0 -0.000702557)
(0.119593 0 -0.00072814)
(0.11872 0 -0.000746129)
(0.116716 0 -0.000755521)
(0.113671 0 -0.000755051)
(0.109669 0 -0.000743169)
(0.104788 0 -0.000718005)
(0.0991008 0 -0.000677326)
(0.0926814 0 -0.000618485)
(0.0856034 0 -0.000538392)
(0.0779454 0 -0.000433494)
(0.0697917 0 -0.000299515)
(0.0612351 0 -0.000131404)
(0.0523837 0 7.66496e-05)
(0.0433687 0 0.00033124)
(0.0343586 0 0.000639963)
(0.0255924 0 0.00101254)
(0.0174773 0 0.00146317)
(0.0106784 0 0.00199327)
(0.00681635 0 0.00252972)
(0.0122506 0 -0.000173431)
(0.0349209 0 -0.000495604)
(0.0541549 0 -0.000776082)
(0.0702668 0 -0.00102199)
(0.0836038 0 -0.0012397)
(0.0944667 0 -0.00143359)
(0.103116 0 -0.00160656)
(0.109778 0 -0.00176033)
(0.11465 0 -0.00189556)
(0.117894 0 -0.00201195)
(0.119663 0 -0.00210973)
(0.120094 0 -0.00218743)
(0.119301 0 -0.00224267)
(0.117387 0 -0.0022725)
(0.114445 0 -0.00227321)
(0.11056 0 -0.00224028)
(0.105812 0 -0.00216827)
(0.100278 0 -0.0020507)
(0.0940341 0 -0.00187987)
(0.0871588 0 -0.00164684)
(0.0797376 0 -0.00134155)
(0.0718635 0 -0.000951771)
(0.0636418 0 -0.00046311)
(0.0551987 0 0.000140931)
(0.0466935 0 0.000878889)
(0.0383303 0 0.0017714)
(0.0303576 0 0.00284255)
(0.0232162 0 0.00410522)
(0.01775 0 0.00553534)
(0.0159596 0 0.00685382)
(0.0122845 0 -0.000289249)
(0.0350214 0 -0.000826689)
(0.0543177 0 -0.00129487)
(0.070491 0 -0.00170547)
(0.0838939 0 -0.00206927)
(0.0948288 0 -0.00239362)
(0.103557 0 -0.0026834)
(0.110307 0 -0.00294151)
(0.115275 0 -0.00316885)
(0.118629 0 -0.00336324)
(0.120524 0 -0.00352923)
(0.121096 0 -0.00366255)
(0.120462 0 -0.00375934)
(0.118729 0 -0.0038149)
(0.115991 0 -0.00382339)
(0.11234 0 -0.00377763)
(0.107858 0 -0.00366904)
(0.102629 0 -0.00348747)
(0.0967343 0 -0.00322085)
(0.0902601 0 -0.00285511)
(0.0833061 0 -0.00237564)
(0.0759802 0 -0.00176397)
(0.0684061 0 -0.000998867)
(0.0607366 0 -5.67724e-05)
(0.0531761 0 0.00108694)
(0.0460193 0 0.00245399)
(0.0396334 0 0.00405692)
(0.0344948 0 0.00588203)
(0.0313802 0 0.00784832)
(0.0328984 0 0.00936156)
(0.0123346 0 -0.000404626)
(0.0351712 0 -0.00115659)
(0.0545602 0 -0.00181222)
(0.0708238 0 -0.00238722)
(0.0843246 0 -0.00289719)
(0.0953661 0 -0.00335242)
(0.104212 0 -0.00375985)
(0.111092 0 -0.00412373)
(0.116206 0 -0.00444582)
(0.119725 0 -0.00472581)
(0.121806 0 -0.00496473)
(0.122587 0 -0.00515907)
(0.122189 0 -0.00530407)
(0.120722 0 -0.0053937)
(0.118288 0 -0.00542046)
(0.114982 0 -0.00537506)
(0.110895 0 -0.00524649)
(0.106117 0 -0.00502202)
(0.100741 0 -0.0046863)
(0.0948573 0 -0.00422071)
(0.0885948 0 -0.00361049)
(0.0820822 0 -0.0028334)
(0.0754713 0 -0.00186581)
(0.0689491 0 -0.000683245)
(0.0627561 0 0.000737802)
(0.0572416 0 0.00240722)
(0.0529528 0 0.0042996)
(0.0506495 0 0.00632294)
(0.0510502 0 0.00830924)
(0.0564925 0 0.00936545)
(0.0124 0 -0.000519983)
(0.0353697 0 -0.00148659)
(0.05488 0 -0.00232798)
(0.071261 0 -0.00306707)
(0.0848913 0 -0.00372353)
(0.0960735 0 -0.00431044)
(0.105074 0 -0.0048369)
(0.112126 0 -0.00530872)
(0.117431 0 -0.00572867)
(0.121166 0 -0.00609733)
(0.123491 0 -0.00641442)
(0.124545 0 -0.0066765)
(0.124456 0 -0.00687833)
(0.123338 0 -0.00701305)
(0.121301 0 -0.00707222)
(0.118447 0 -0.0070452)
(0.114875 0 -0.00691951)
(0.11069 0 -0.00668159)
(0.105999 0 -0.00631506)
(0.100905 0 -0.00579991)
(0.0955376 0 -0.00511566)
(0.0900727 0 -0.00424524)
(0.084691 0 -0.00316735)
(0.0796301 0 -0.00186527)
(0.0752281 0 -0.000336898)
(0.071855 0 0.00140895)
(0.070104 0 0.00331039)
(0.0709747 0 0.00516741)
(0.0756218 0 0.00660779)
(0.085487 0 0.00662103)
(0.0124795 0 -0.000635141)
(0.0355975 0 -0.00181571)
(0.055259 0 -0.00284321)
(0.0717998 0 -0.00374778)
(0.0855918 0 -0.00455206)
(0.0969481 0 -0.00527249)
(0.106141 0 -0.00592048)
(0.113405 0 -0.00650367)
(0.118947 0 -0.00702586)
(0.122949 0 -0.00748837)
(0.125572 0 -0.00789062)
(0.126963 0 -0.00822931)
(0.127254 0 -0.00849902)
(0.126565 0 -0.00869256)
(0.125016 0 -0.00880158)
(0.122714 0 -0.00881466)
(0.11977 0 -0.00871855)
(0.116305 0 -0.00850119)
(0.112439 0 -0.00814588)
(0.108306 0 -0.00763552)
(0.104032 0 -0.00694592)
(0.0998451 0 -0.00607128)
(0.0959577 0 -0.00499699)
(0.09265 0 -0.00371861)
(0.0902918 0 -0.00225316)
(0.0894393 0 -0.000669435)
(0.0907343 0 0.000913947)
(0.0950511 0 0.00223946)
(0.104074 0 0.00267761)
(0.118718 0 0.00118227)
(0.0125727 0 -0.00074942)
(0.0358696 0 -0.00214284)
(0.055711 0 -0.00335782)
(0.072437 0 -0.00442859)
(0.0864199 0 -0.00538193)
(0.0979818 0 -0.00623775)
(0.1074 0 -0.00700987)
(0.114916 0 -0.00770812)
(0.120738 0 -0.00833734)
(0.125053 0 -0.00889967)
(0.128028 0 -0.00939493)
(0.129814 0 -0.0098202)
(0.13055 0 -0.0101703)
(0.130363 0 -0.010438)
(0.129384 0 -0.0106168)
(0.127729 0 -0.0106949)
(0.125513 0 -0.0106579)
(0.122888 0 -0.0105002)
(0.119983 0 -0.010205)
(0.116955 0 -0.00975874)
(0.113966 0 -0.00914553)
(0.111246 0 -0.0083614)
(0.109059 0 -0.0074077)
(0.10779 0 -0.0063137)
(0.107794 0 -0.00511206)
(0.109661 0 -0.00390881)
(0.114315 0 -0.00294471)
(0.122503 0 -0.00252705)
(0.135914 0 -0.00343219)
(0.155234 0 -0.00673669)
(0.0126788 0 -0.000862685)
(0.0361822 0 -0.00246744)
(0.0562293 0 -0.00386872)
(0.0731646 0 -0.00510547)
(0.087364 0 -0.00620818)
(0.0991595 0 -0.00720053)
(0.108835 0 -0.00809865)
(0.116638 0 -0.00891527)
(0.122777 0 -0.00965604)
(0.127447 0 -0.0103242)
(0.13082 0 -0.0109206)
(0.133053 0 -0.0114431)
(0.134293 0 -0.0118872)
(0.134671 0 -0.0122455)
(0.134337 0 -0.0125165)
(0.133418 0 -0.0126888)
(0.132048 0 -0.012753)
(0.130369 0 -0.0126979)
(0.128541 0 -0.0125144)
(0.12675 0 -0.0121971)
(0.125194 0 -0.0117405)
(0.124134 0 -0.0111536)
(0.123868 0 -0.0104523)
(0.124785 0 -0.00968255)
(0.127406 0 -0.00894064)
(0.132356 0 -0.00837407)
(0.14045 0 -0.0082594)
(0.15287 0 -0.00909166)
(0.170572 0 -0.0115819)
(0.194228 0 -0.0168276)
(0.0127969 0 -0.000974751)
(0.0365313 0 -0.00278893)
(0.0568087 0 -0.00437525)
(0.0739765 0 -0.00577784)
(0.0884155 0 -0.00703017)
(0.10047 0 -0.00816037)
(0.110432 0 -0.00918631)
(0.118554 0 -0.0101251)
(0.125046 0 -0.0109824)
(0.130109 0 -0.0117631)
(0.133923 0 -0.0124695)
(0.136651 0 -0.0131009)
(0.138449 0 -0.0136545)
(0.139467 0 -0.0141279)
(0.139846 0 -0.0145149)
(0.139732 0 -0.014809)
(0.139289 0 -0.0150091)
(0.13865 0 -0.0151002)
(0.137995 0 -0.0150808)
(0.137561 0 -0.0149613)
(0.137565 0 -0.0147442)
(0.138292 0 -0.0144511)
(0.140111 0 -0.0141286)
(0.143423 0 -0.0138431)
(0.148788 0 -0.0137224)
(0.157035 0 -0.0140118)
(0.168783 0 -0.0149874)
(0.185459 0 -0.0172912)
(0.207453 0 -0.0215585)
(0.235021 0 -0.0287453)
(0.0129265 0 -0.00108599)
(0.0369147 0 -0.00310833)
(0.0574473 0 -0.00487912)
(0.0748663 0 -0.00644506)
(0.0895651 0 -0.00784703)
(0.101903 0 -0.00911667)
(0.112184 0 -0.0102771)
(0.120658 0 -0.0113429)
(0.127536 0 -0.0123224)
(0.133027 0 -0.0132227)
(0.137321 0 -0.0140485)
(0.140588 0 -0.0148006)
(0.14299 0 -0.0154782)
(0.144698 0 -0.016085)
(0.145844 0 -0.0166099)
(0.146586 0 -0.017051)
(0.147116 0 -0.0174154)
(0.147595 0 -0.0176982)
(0.148221 0 -0.0179038)
(0.149233 0 -0.0180472)
(0.150896 0 -0.0181496)
(0.153524 0 -0.01825)
(0.157525 0 -0.0184182)
(0.163371 0 -0.0187587)
(0.171705 0 -0.0194474)
(0.183229 0 -0.0207357)
(0.198924 0 -0.0230456)
(0.219693 0 -0.0269399)
(0.24598 0 -0.03311)
(0.277012 0 -0.0421511)
(0.0130667 0 -0.00119616)
(0.0373276 0 -0.00342483)
(0.0581221 0 -0.00537797)
(0.075814 0 -0.00710728)
(0.0908078 0 -0.00866093)
(0.103462 0 -0.0100729)
(0.114087 0 -0.0113707)
(0.122932 0 -0.0125666)
(0.130222 0 -0.0136733)
(0.136172 0 -0.0146998)
(0.140979 0 -0.0156541)
(0.144818 0 -0.016538)
(0.147857 0 -0.0173517)
(0.150281 0 -0.0181041)
(0.15224 0 -0.01879)
(0.15391 0 -0.0194133)
(0.155469 0 -0.0199775)
(0.157119 0 -0.0204924)
(0.159076 0 -0.0209709)
(0.161602 0 -0.0214396)
(0.164987 0 -0.0219346)
(0.169575 0 -0.0225126)
(0.175862 0 -0.0232852)
(0.184322 0 -0.0243747)
(0.195672 0 -0.0260083)
(0.210596 0 -0.0284625)
(0.230259 0 -0.0322574)
(0.255093 0 -0.0378582)
(0.285553 0 -0.0459636)
(0.31961 0 -0.0567151)
(0.0132148 0 -0.00130436)
(0.0377646 0 -0.0037361)
(0.0588407 0 -0.00586988)
(0.0768266 0 -0.00776407)
(0.0921318 0 -0.00946972)
(0.10512 0 -0.0110244)
(0.116104 0 -0.012458)
(0.125341 0 -0.0137869)
(0.133066 0 -0.0150254)
(0.139496 0 -0.0161835)
(0.144844 0 -0.0172752)
(0.149286 0 -0.0183026)
(0.153008 0 -0.0192724)
(0.156186 0 -0.0201896)
(0.15899 0 -0.0210567)
(0.16162 0 -0.0218871)
(0.164235 0 -0.0226797)
(0.167091 0 -0.0234641)
(0.170417 0 -0.0242614)
(0.174488 0 -0.0251086)
(0.179634 0 -0.0260631)
(0.186236 0 -0.0272034)
(0.194775 0 -0.0286511)
(0.205875 0 -0.0305967)
(0.220179 0 -0.0332698)
(0.238623 0 -0.0370499)
(0.262036 0 -0.0423868)
(0.290973 0 -0.0498021)
(0.325419 0 -0.0598118)
(0.362129 0 -0.0721141)
(0.0133693 0 -0.00141035)
(0.0382219 0 -0.00404146)
(0.059596 0 -0.00635354)
(0.0778901 0 -0.0084108)
(0.0935192 0 -0.0102677)
(0.106855 0 -0.0119649)
(0.118218 0 -0.0135366)
(0.127866 0 -0.0150015)
(0.136044 0 -0.0163765)
(0.142987 0 -0.0176775)
(0.148902 0 -0.0189155)
(0.153971 0 -0.0200973)
(0.158395 0 -0.0212347)
(0.162344 0 -0.0223305)
(0.166003 0 -0.0233944)
(0.169592 0 -0.0244477)
(0.173305 0 -0.0255033)
(0.177384 0 -0.0265903)
(0.182081 0 -0.0277427)
(0.187693 0 -0.0290115)
(0.194589 0 -0.0304756)
(0.203181 0 -0.0322368)
(0.213962 0 -0.0344368)
(0.227572 0 -0.0372906)
(0.244801 0 -0.0410997)
(0.266532 0 -0.0462552)
(0.293487 0 -0.0531926)
(0.326371 0 -0.0624692)
(0.364488 0 -0.0743063)
(0.403607 0 -0.0880531)
(0.0135287 0 -0.00151383)
(0.0386955 0 -0.00434014)
(0.0603807 0 -0.00682764)
(0.0789959 0 -0.00904602)
(0.0949592 0 -0.0110533)
(0.108662 0 -0.0128966)
(0.120422 0 -0.0146091)
(0.130499 0 -0.0162128)
(0.139151 0 -0.0177294)
(0.146621 0 -0.019178)
(0.153109 0 -0.0205678)
(0.158813 0 -0.0219106)
(0.16393 0 -0.0232181)
(0.168663 0 -0.0245065)
(0.173208 0 -0.0257902)
(0.177768 0 -0.0270874)
(0.182568 0 -0.0284247)
(0.187854 0 -0.0298378)
(0.1939 0 -0.0313731)
(0.201011 0 -0.0330924)
(0.209607 0 -0.0351028)
(0.220087 0 -0.0375148)
(0.23299 0 -0.0405037)
(0.248946 0 -0.0443009)
(0.268837 0 -0.0492662)
(0.293401 0 -0.0557719)
(0.323539 0 -0.0643343)
(0.359824 0 -0.0754549)
(0.401016 0 -0.0890577)
(0.442486 0 -0.104323)
(0.0136934 0 -0.00161509)
(0.0391843 0 -0.00463277)
(0.0611923 0 -0.00729302)
(0.0801419 0 -0.00967101)
(0.0964619 0 -0.0118294)
(0.110542 0 -0.0138189)
(0.122699 0 -0.0156716)
(0.133213 0 -0.0174157)
(0.142347 0 -0.0190758)
(0.150337 0 -0.0206699)
(0.157408 0 -0.0222166)
(0.163752 0 -0.0237274)
(0.169587 0 -0.0252214)
(0.17511 0 -0.0267139)
(0.180533 0 -0.0282287)
(0.18604 0 -0.0297799)
(0.191906 0 -0.0314143)
(0.198371 0 -0.033171)
(0.205716 0 -0.035107)
(0.214273 0 -0.0373002)
(0.224429 0 -0.0398585)
(0.236656 0 -0.0429332)
(0.251442 0 -0.0467001)
(0.26951 0 -0.0514447)
(0.291542 0 -0.0574893)
(0.318353 0 -0.0652734)
(0.350797 0 -0.0753445)
(0.389154 0 -0.088159)
(0.431711 0 -0.103437)
(0.475484 0 -0.120742)
(0.0101317 0 -0.00355777)
(0.0233623 0 -0.00443771)
(0.0528932 0 -0.00568927)
(0.0995968 0 -0.00706017)
(0.155689 0 -0.0082579)
(0.208886 0 -0.00895685)
(0.251841 0 -0.00914872)
(0.283888 0 -0.00904846)
(0.306991 0 -0.00878744)
(0.323247 0 -0.00841089)
(0.334222 0 -0.00796059)
(0.341022 0 -0.00748002)
(0.344395 0 -0.00696805)
(0.344855 0 -0.00648838)
(0.342721 0 -0.00597566)
(0.338193 0 -0.00550544)
(0.331367 0 -0.00506229)
(0.322285 0 -0.00464341)
(0.310952 0 -0.00424616)
(0.297344 0 -0.00386755)
(0.281413 0 -0.00350428)
(0.2631 0 -0.00315274)
(0.242333 0 -0.00280907)
(0.219032 0 -0.00246919)
(0.193111 0 -0.00212869)
(0.164483 0 -0.00178281)
(0.133057 0 -0.00142627)
(0.0987453 0 -0.00105311)
(0.0614734 0 -0.000656603)
(0.02103 0 -0.000227148)
(0.0175519 0 -0.0109127)
(0.032229 0 -0.0135775)
(0.0626931 0 -0.0171605)
(0.109229 0 -0.0211096)
(0.163978 0 -0.0244474)
(0.215234 0 -0.0263368)
(0.256538 0 -0.0268941)
(0.287399 0 -0.0265707)
(0.309661 0 -0.0258097)
(0.3253 0 -0.024707)
(0.335822 0 -0.0233838)
(0.342287 0 -0.0219841)
(0.345412 0 -0.0205338)
(0.345681 0 -0.0190806)
(0.343402 0 -0.0176263)
(0.338758 0 -0.016261)
(0.331838 0 -0.0149686)
(0.322682 0 -0.0137436)
(0.311287 0 -0.012579)
(0.297628 0 -0.0114666)
(0.281655 0 -0.0103971)
(0.263307 0 -0.00936012)
(0.24251 0 -0.00834461)
(0.219184 0 -0.00733867)
(0.193241 0 -0.00632946)
(0.164593 0 -0.005303)
(0.133149 0 -0.00424376)
(0.0988178 0 -0.0031342)
(0.0615236 0 -0.00195445)
(0.0210504 0 -0.000676164)
(0.0316556 0 -0.0188146)
(0.0489918 0 -0.0233018)
(0.0810054 0 -0.0290422)
(0.127228 0 -0.0351799)
(0.179387 0 -0.0400843)
(0.22719 0 -0.0427911)
(0.265513 0 -0.0435896)
(0.294156 0 -0.0430403)
(0.314808 0 -0.0417377)
(0.329261 0 -0.0399563)
(0.338923 0 -0.0378721)
(0.344741 0 -0.0356151)
(0.347375 0 -0.0332868)
(0.347272 0 -0.0309405)
(0.34471 0 -0.0286636)
(0.33984 0 -0.0264908)
(0.33274 0 -0.0244228)
(0.323436 0 -0.0224548)
(0.311921 0 -0.0205776)
(0.298163 0 -0.018779)
(0.282108 0 -0.0170446)
(0.263691 0 -0.0153584)
(0.242837 0 -0.0137029)
(0.219462 0 -0.0120594)
(0.193478 0 -0.0104072)
(0.164793 0 -0.00872372)
(0.133313 0 -0.00698398)
(0.0989465 0 -0.00515947)
(0.0616119 0 -0.00321795)
(0.0210854 0 -0.00111326)
(0.0518416 0 -0.0276602)
(0.0723442 0 -0.0338625)
(0.106287 0 -0.0416307)
(0.151724 0 -0.0494515)
(0.200347 0 -0.0553439)
(0.243701 0 -0.0584907)
(0.278088 0 -0.0593001)
(0.303711 0 -0.0584804)
(0.322125 0 -0.0566285)
(0.334939 0 -0.0541866)
(0.343372 0 -0.0513862)
(0.348252 0 -0.0483245)
(0.350188 0 -0.0451835)
(0.349562 0 -0.0420769)
(0.34659 0 -0.0390586)
(0.341394 0 -0.0361604)
(0.33403 0 -0.0333899)
(0.324513 0 -0.0307431)
(0.312823 0 -0.0282096)
(0.298919 0 -0.0257741)
(0.282745 0 -0.0234182)
(0.264229 0 -0.0211211)
(0.243292 0 -0.0188598)
(0.219847 0 -0.0166094)
(0.193802 0 -0.0143422)
(0.165063 0 -0.0120279)
(0.133534 0 -0.0096327)
(0.0991166 0 -0.00711788)
(0.061726 0 -0.00443982)
(0.0211293 0 -0.00153574)
(0.0772653 0 -0.0376822)
(0.101078 0 -0.045509)
(0.136856 0 -0.0550044)
(0.180914 0 -0.0639528)
(0.225325 0 -0.0702933)
(0.263567 0 -0.0734571)
(0.293407 0 -0.0740248)
(0.315465 0 -0.0727995)
(0.331206 0 -0.0704234)
(0.342008 0 -0.0673406)
(0.34891 0 -0.0638151)
(0.352655 0 -0.0600471)
(0.353744 0 -0.0562285)
(0.35246 0 -0.052453)
(0.348969 0 -0.0487783)
(0.343357 0 -0.0452361)
(0.335658 0 -0.0418365)
(0.325866 0 -0.0385766)
(0.313952 0 -0.0354448)
(0.299864 0 -0.0324236)
(0.283536 0 -0.0294916)
(0.264893 0 -0.026624)
(0.243849 0 -0.0237932)
(0.220314 0 -0.0209687)
(0.194193 0 -0.0181169)
(0.165386 0 -0.0152004)
(0.133794 0 -0.0121773)
(0.0993149 0 -0.00899973)
(0.0618569 0 -0.00561371)
(0.0211787 0 -0.00194128)
(0.107105 0 -0.0489827)
(0.134105 0 -0.0583204)
(0.171287 0 -0.0691517)
(0.213282 0 -0.0786491)
(0.25289 0 -0.0848803)
(0.285614 0 -0.0876529)
(0.310576 0 -0.0877355)
(0.328763 0 -0.0859793)
(0.341542 0 -0.0830289)
(0.350089 0 -0.0793186)
(0.3553 0 -0.0751624)
(0.357785 0 -0.0708043)
(0.357902 0 -0.0664003)
(0.355856 0 -0.0620462)
(0.351759 0 -0.0578003)
(0.345658 0 -0.053694)
(0.337562 0 -0.0497385)
(0.327447 0 -0.0459311)
(0.315266 0 -0.0422596)
(0.300958 0 -0.0387051)
(0.284448 0 -0.0352435)
(0.265653 0 -0.0318471)
(0.244483 0 -0.0284845)
(0.220842 0 -0.0251206)
(0.19463 0 -0.0217163)
(0.165744 0 -0.0182281)
(0.13408 0 -0.0146069)
(0.0995297 0 -0.0107967)
(0.0619966 0 -0.00673423)
(0.0212305 0 -0.00232794)
(0.140586 0 -0.0615443)
(0.170473 0 -0.0722388)
(0.208398 0 -0.083955)
(0.247491 0 -0.0933773)
(0.281768 0 -0.0989647)
(0.308763 0 -0.100987)
(0.328739 0 -0.100375)
(0.342941 0 -0.0979827)
(0.352632 0 -0.0944225)
(0.358843 0 -0.0901346)
(0.362305 0 -0.0854523)
(0.363447 0 -0.0805897)
(0.362512 0 -0.0756899)
(0.359631 0 -0.0708451)
(0.354862 0 -0.0661115)
(0.348219 0 -0.0615191)
(0.339679 0 -0.0570793)
(0.329199 0 -0.0527893)
(0.316718 0 -0.0486366)
(0.302161 0 -0.0446012)
(0.285445 0 -0.0406571)
(0.266479 0 -0.0367745)
(0.245166 0 -0.0329187)
(0.221406 0 -0.0290511)
(0.195093 0 -0.0251279)
(0.16612 0 -0.0211001)
(0.134376 0 -0.0169124)
(0.0997496 0 -0.0125018)
(0.0621377 0 -0.00779688)
(0.0212821 0 -0.0026941)
(0.177024 0 -0.0752773)
(0.209379 0 -0.0871242)
(0.24713 0 -0.0991806)
(0.28235 0 -0.107877)
(0.310843 0 -0.112343)
(0.332056 0 -0.113326)
(0.347106 0 -0.111861)
(0.357369 0 -0.10876)
(0.364029 0 -0.104602)
(0.367959 0 -0.0998171)
(0.36967 0 -0.0946894)
(0.36944 0 -0.0894073)
(0.367415 0 -0.0840987)
(0.363658 0 -0.0788484)
(0.358179 0 -0.0737077)
(0.350955 0 -0.0687048)
(0.341939 0 -0.0638501)
(0.331066 0 -0.0591409)
(0.318259 0 -0.0545645)
(0.303433 0 -0.0500999)
(0.286493 0 -0.0457202)
(0.267341 0 -0.0413938)
(0.245873 0 -0.0370842)
(0.221983 0 -0.0327493)
(0.195562 0 -0.0283417)
(0.166496 0 -0.0238076)
(0.134669 0 -0.0190866)
(0.0999645 0 -0.0141095)
(0.0622737 0 -0.00879805)
(0.021331 0 -0.00303849)
(0.215844 0 -0.0900515)
(0.250136 0 -0.102776)
(0.286478 0 -0.114498)
(0.316761 0 -0.121815)
(0.339126 0 -0.124767)
(0.354646 0 -0.124509)
(0.364964 0 -0.122094)
(0.371515 0 -0.118274)
(0.375363 0 -0.113585)
(0.377135 0 -0.108379)
(0.377152 0 -0.102888)
(0.37557 0 -0.0972706)
(0.372455 0 -0.0916372)
(0.367811 0 -0.0860631)
(0.361606 0 -0.0805929)
(0.353784 0 -0.0752516)
(0.344272 0 -0.0700487)
(0.332989 0 -0.0649814)
(0.319842 0 -0.0600369)
(0.304733 0 -0.0551941)
(0.287557 0 -0.0504245)
(0.268207 0 -0.0456966)
(0.246576 0 -0.0409723)
(0.222552 0 -0.0362071)
(0.196018 0 -0.0313502)
(0.166856 0 -0.026344)
(0.134946 0 -0.0211237)
(0.100165 0 -0.0156154)
(0.0623985 0 -0.00973501)
(0.0213753 0 -0.00336017)
(0.256604 0 -0.105715)
(0.292094 0 -0.118926)
(0.325384 0 -0.129475)
(0.349663 0 -0.134798)
(0.365718 0 -0.135956)
(0.375775 0 -0.13435)
(0.381743 0 -0.130982)
(0.38499 0 -0.126519)
(0.386313 0 -0.121383)
(0.386101 0 -0.11584)
(0.384528 0 -0.11007)
(0.381655 0 -0.104201)
(0.377482 0 -0.0983236)
(0.371969 0 -0.0925045)
(0.365044 0 -0.0867783)
(0.356622 0 -0.0811669)
(0.34661 0 -0.0756788)
(0.33491 0 -0.0703116)
(0.321416 0 -0.0650527)
(0.306018 0 -0.0598809)
(0.2886 0 -0.0547656)
(0.269047 0 -0.0496775)
(0.247249 0 -0.0445775)
(0.223088 0 -0.0394188)
(0.196443 0 -0.0341481)
(0.167187 0 -0.0287043)
(0.135195 0 -0.0230198)
(0.100342 0 -0.0170164)
(0.062507 0 -0.0106058)
(0.021413 0 -0.00365848)
(0.298993 0 -0.122118)
(0.334469 0 -0.135185)
(0.362617 0 -0.143548)
(0.379983 0 -0.146375)
(0.389778 0 -0.145605)
(0.394854 0 -0.142685)
(0.397083 0 -0.138483)
(0.397504 0 -0.133493)
(0.396617 0 -0.128013)
(0.394628 0 -0.122227)
(0.391602 0 -0.116266)
(0.38753 0 -0.110228)
(0.382359 0 -0.104183)
(0.376018 0 -0.0981958)
(0.368397 0 -0.0922826)
(0.359391 0 -0.0864645)
(0.348888 0 -0.0807504)
(0.336775 0 -0.075138)
(0.322935 0 -0.0696155)
(0.307252 0 -0.0641624)
(0.28959 0 -0.0587421)
(0.269832 0 -0.0533341)
(0.247868 0 -0.0478968)
(0.223573 0 -0.0423814)
(0.19682 0 -0.0367327)
(0.167473 0 -0.0308857)
(0.135405 0 -0.024772)
(0.100487 0 -0.0183107)
(0.0625947 0 -0.0114094)
(0.0214426 0 -0.00393306)
(0.342759 0 -0.139095)
(0.376019 0 -0.15091)
(0.396656 0 -0.155994)
(0.406607 0 -0.156045)
(0.410675 0 -0.153448)
(0.411603 0 -0.149425)
(0.410779 0 -0.144575)
(0.408837 0 -0.139203)
(0.406067 0 -0.133502)
(0.402527 0 -0.127577)
(0.39821 0 -0.121516)
(0.393053 0 -0.115388)
(0.38696 0 -0.109244)
(0.379836 0 -0.103139)
(0.371563 0 -0.0971027)
(0.362001 0 -0.0911368)
(0.351028 0 -0.0852522)
(0.338518 0 -0.079447)
(0.324345 0 -0.0737103)
(0.308392 0 -0.0680262)
(0.290498 0 -0.0623561)
(0.270533 0 -0.0566671)
(0.248408 0 -0.0509302)
(0.223985 0 -0.0450942)
(0.197135 0 -0.0391033)
(0.167704 0 -0.0328866)
(0.135564 0 -0.0263789)
(0.100596 0 -0.0194975)
(0.0626584 0 -0.0121452)
(0.0214631 0 -0.0041838)
(0.387335 0 -0.156281)
(0.414537 0 -0.164979)
(0.42568 0 -0.16592)
(0.428792 0 -0.163384)
(0.428259 0 -0.159331)
(0.425957 0 -0.15452)
(0.422697 0 -0.149254)
(0.418819 0 -0.143667)
(0.414454 0 -0.137863)
(0.4096 0 -0.131905)
(0.404171 0 -0.125831)
(0.398067 0 -0.119692)
(0.391166 0 -0.113527)
(0.383338 0 -0.107369)
(0.37446 0 -0.101258)
(0.364384 0 -0.0951979)
(0.352972 0 -0.0891946)
(0.340087 0 -0.0832455)
(0.325596 0 -0.0773402)
(0.309364 0 -0.0714614)
(0.291249 0 -0.0655834)
(0.271113 0 -0.0596613)
(0.248839 0 -0.0536639)
(0.224299 0 -0.0475445)
(0.197373 0 -0.0412514)
(0.167874 0 -0.0347078)
(0.135664 0 -0.0278402)
(0.100663 0 -0.0205773)
(0.0626961 0 -0.0128137)
(0.0214729 0 -0.00441068)
(0.43056 0 -0.172457)
(0.446475 0 -0.17558)
(0.448834 0 -0.172613)
(0.446574 0 -0.16809)
(0.442522 0 -0.163099)
(0.437751 0 -0.157898)
(0.432623 0 -0.152501)
(0.427254 0 -0.146913)
(0.421629 0 -0.141151)
(0.415706 0 -0.135256)
(0.409361 0 -0.129253)
(0.402462 0 -0.123175)
(0.394869 0 -0.117053)
(0.386439 0 -0.110917)
(0.37703 0 -0.104793)
(0.366492 0 -0.0986907)
(0.35468 0 -0.0926166)
(0.34145 0 -0.0865684)
(0.326663 0 -0.0805364)
(0.310178 0 -0.0745034)
(0.291853 0 -0.0684438)
(0.271549 0 -0.0623214)
(0.249139 0 -0.0560993)
(0.224487 0 -0.0497313)
(0.19746 0 -0.0431632)
(0.167905 0 -0.0363288)
(0.13568 0 -0.0291479)
(0.100686 0 -0.0215474)
(0.0627162 0 -0.0134174)
(0.0214725 0 -0.00461424)
(0.465529 0 -0.18394)
(0.471091 0 -0.180994)
(0.465876 0 -0.175007)
(0.459743 0 -0.16973)
(0.45329 0 -0.164669)
(0.446837 0 -0.159589)
(0.440427 0 -0.154374)
(0.434011 0 -0.148985)
(0.427499 0 -0.143421)
(0.420783 0 -0.137704)
(0.413727 0 -0.131857)
(0.40619 0 -0.12591)
(0.398026 0 -0.119891)
(0.389085 0 -0.113827)
(0.379218 0 -0.107739)
(0.368275 0 -0.101642)
(0.356107 0 -0.0955401)
(0.342568 0 -0.0894335)
(0.327514 0 -0.0833133)
(0.3108 0 -0.0771636)
(0.292286 0 -0.0709601)
(0.271829 0 -0.0646703)
(0.249295 0 -0.0582564)
(0.224547 0 -0.0516726)
(0.197445 0 -0.0448641)
(0.167843 0 -0.0377661)
(0.135599 0 -0.0303026)
(0.100581 0 -0.0223923)
(0.0626306 0 -0.0139373)
(0.0214459 0 -0.00479101)
(0.0138644 0 -0.00171555)
(0.0396913 0 -0.00492337)
(0.0620378 0 -0.00775653)
(0.0813378 0 -0.0102949)
(0.0980263 0 -0.0126051)
(0.112491 0 -0.0147393)
(0.125059 0 -0.0167348)
(0.136024 0 -0.018622)
(0.145653 0 -0.0204303)
(0.154195 0 -0.0221819)
(0.161865 0 -0.0238938)
(0.168865 0 -0.0255818)
(0.175425 0 -0.0272717)
(0.181727 0 -0.0289751)
(0.188007 0 -0.0307267)
(0.194477 0 -0.0325531)
(0.20139 0 -0.0344993)
(0.208988 0 -0.0366107)
(0.21758 0 -0.0389608)
(0.227493 0 -0.0416361)
(0.23911 0 -0.0447554)
(0.252865 0 -0.0484717)
(0.269315 0 -0.0530043)
(0.289027 0 -0.058612)
(0.312594 0 -0.0656191)
(0.340786 0 -0.0744992)
(0.374098 0 -0.0857683)
(0.41204 0 -0.0998269)
(0.451906 0 -0.116805)
(0.488045 0 -0.137088)
(0.0140405 0 -0.00181516)
(0.0402138 0 -0.00521195)
(0.0629129 0 -0.00821783)
(0.0825829 0 -0.0109184)
(0.099654 0 -0.0133819)
(0.114521 0 -0.015664)
(0.127517 0 -0.0178059)
(0.138959 0 -0.0198451)
(0.149112 0 -0.0218097)
(0.158221 0 -0.0237259)
(0.166494 0 -0.0256082)
(0.174151 0 -0.0274788)
(0.181427 0 -0.0293685)
(0.188527 0 -0.0312988)
(0.195671 0 -0.033302)
(0.203076 0 -0.0354116)
(0.210996 0 -0.037677)
(0.219676 0 -0.0401509)
(0.229437 0 -0.0429196)
(0.24057 0 -0.0460668)
(0.253488 0 -0.0497342)
(0.268539 0 -0.0540602)
(0.286255 0 -0.0592759)
(0.307031 0 -0.0656021)
(0.331411 0 -0.0733768)
(0.359796 0 -0.0829794)
(0.39198 0 -0.0947101)
(0.4264 0 -0.108527)
(0.459289 0 -0.123631)
(0.485329 0 -0.138284)
(0.0142204 0 -0.00191285)
(0.040745 0 -0.00549509)
(0.0638099 0 -0.00867335)
(0.0838661 0 -0.0115364)
(0.101333 0 -0.0141543)
(0.116616 0 -0.016586)
(0.130062 0 -0.0188782)
(0.14199 0 -0.021072)
(0.152659 0 -0.0231922)
(0.162326 0 -0.0252717)
(0.171204 0 -0.0273288)
(0.17953 0 -0.0293921)
(0.187528 0 -0.0314907)
(0.195403 0 -0.0336514)
(0.203373 0 -0.0359076)
(0.211676 0 -0.0383041)
(0.220547 0 -0.0408897)
(0.230233 0 -0.0437245)
(0.241017 0 -0.0468889)
(0.253234 0 -0.0504926)
(0.267168 0 -0.0546434)
(0.283221 0 -0.0595134)
(0.301698 0 -0.0652665)
(0.322946 0 -0.0721271)
(0.347254 0 -0.0803535)
(0.374557 0 -0.090158)
(0.403889 0 -0.101491)
(0.433185 0 -0.11393)
(0.459238 0 -0.126494)
(0.479108 0 -0.13822)
(0.0144062 0 -0.00200873)
(0.0413074 0 -0.00577534)
(0.0647451 0 -0.00912348)
(0.0851777 0 -0.0121449)
(0.103047 0 -0.0149161)
(0.118754 0 -0.0174983)
(0.132654 0 -0.0199401)
(0.145064 0 -0.0222858)
(0.156262 0 -0.0245677)
(0.166496 0 -0.0268147)
(0.175981 0 -0.0290509)
(0.184959 0 -0.0313073)
(0.193645 0 -0.0336131)
(0.202266 0 -0.0360041)
(0.211027 0 -0.0385134)
(0.220166 0 -0.0411917)
(0.2299 0 -0.0440864)
(0.240476 0 -0.0472631)
(0.252154 0 -0.0508027)
(0.26521 0 -0.0548025)
(0.279903 0 -0.0593708)
(0.296557 0 -0.0646632)
(0.31531 0 -0.0707934)
(0.336405 0 -0.0779525)
(0.359818 0 -0.0862798)
(0.385005 0 -0.0957703)
(0.410674 0 -0.106147)
(0.435021 0 -0.116916)
(0.455957 0 -0.127388)
(0.471681 0 -0.136932)
(0.0145939 0 -0.00210171)
(0.0418686 0 -0.00604658)
(0.0656797 0 -0.00955873)
(0.0864987 0 -0.0127359)
(0.104773 0 -0.0156577)
(0.120906 0 -0.0183885)
(0.135272 0 -0.0209834)
(0.148183 0 -0.0234847)
(0.159906 0 -0.0259282)
(0.170685 0 -0.0283397)
(0.18076 0 -0.0307533)
(0.190367 0 -0.0332011)
(0.199722 0 -0.0357142)
(0.209049 0 -0.0383322)
(0.218546 0 -0.0410891)
(0.228428 0 -0.0440309)
(0.238918 0 -0.0472139)
(0.250231 0 -0.050697)
(0.262624 0 -0.0545673)
(0.27627 0 -0.0588924)
(0.291453 0 -0.0637963)
(0.308298 0 -0.0693688)
(0.326883 0 -0.0757048)
(0.347249 0 -0.0829148)
(0.369111 0 -0.0910174)
(0.391647 0 -0.0998407)
(0.413701 0 -0.10908)
(0.433976 0 -0.118336)
(0.451171 0 -0.127163)
(0.464097 0 -0.135067)
(0.0147794 0 -0.00219029)
(0.0424194 0 -0.00630496)
(0.0666091 0 -0.00997717)
(0.0878231 0 -0.0133071)
(0.106506 0 -0.0163766)
(0.123079 0 -0.0192557)
(0.137907 0 -0.0220009)
(0.151296 0 -0.0246527)
(0.163523 0 -0.027251)
(0.174847 0 -0.0298294)
(0.185504 0 -0.0324209)
(0.195708 0 -0.0350552)
(0.205693 0 -0.0377707)
(0.215664 0 -0.0406028)
(0.225822 0 -0.0435924)
(0.236359 0 -0.0467802)
(0.247469 0 -0.0502164)
(0.259383 0 -0.0539719)
(0.272273 0 -0.0581073)
(0.286298 0 -0.062692)
(0.301659 0 -0.0678227)
(0.318329 0 -0.0735336)
(0.336332 0 -0.0798965)
(0.355538 0 -0.0869422)
(0.375441 0 -0.0945731)
(0.395275 0 -0.102586)
(0.414192 0 -0.110741)
(0.431267 0 -0.118731)
(0.445677 0 -0.12625)
(0.456637 0 -0.132911)
(0.0149652 0 -0.00227448)
(0.0429875 0 -0.0065536)
(0.0675518 0 -0.0103788)
(0.0891367 0 -0.0138524)
(0.108224 0 -0.0170641)
(0.125231 0 -0.0200867)
(0.1405 0 -0.0229737)
(0.15437 0 -0.0257756)
(0.167106 0 -0.0285297)
(0.178954 0 -0.0312699)
(0.190146 0 -0.0340287)
(0.200917 0 -0.0368439)
(0.21148 0 -0.0397501)
(0.222033 0 -0.0427841)
(0.23276 0 -0.0459824)
(0.243847 0 -0.0493897)
(0.255454 0 -0.0530464)
(0.267815 0 -0.0570279)
(0.280996 0 -0.0613617)
(0.295165 0 -0.0661216)
(0.310386 0 -0.0713568)
(0.326575 0 -0.0770747)
(0.343695 0 -0.0833146)
(0.361431 0 -0.0900181)
(0.379289 0 -0.0970604)
(0.396699 0 -0.104283)
(0.413013 0 -0.111482)
(0.427586 0 -0.118427)
(0.439857 0 -0.124885)
(0.449343 0 -0.130577)
(0.0151461 0 -0.00235278)
(0.0435365 0 -0.00678478)
(0.0684652 0 -0.0107527)
(0.0904139 0 -0.0143618)
(0.109904 0 -0.0177109)
(0.127341 0 -0.0208719)
(0.143058 0 -0.0238981)
(0.157394 0 -0.0268444)
(0.170595 0 -0.0297427)
(0.182937 0 -0.0326364)
(0.194646 0 -0.0355574)
(0.205933 0 -0.0385406)
(0.217008 0 -0.0416208)
(0.22807 0 -0.0448375)
(0.239271 0 -0.0482195)
(0.250795 0 -0.0518125)
(0.262786 0 -0.0556552)
(0.275398 0 -0.0597975)
(0.288677 0 -0.0642609)
(0.30276 0 -0.0691073)
(0.317594 0 -0.0743409)
(0.333086 0 -0.0799595)
(0.349079 0 -0.0859436)
(0.365252 0 -0.0922129)
(0.381221 0 -0.0986641)
(0.396533 0 -0.105158)
(0.410704 0 -0.111529)
(0.423288 0 -0.117606)
(0.433894 0 -0.123203)
(0.44222 0 -0.128125)
(0.0153189 0 -0.0024239)
(0.0440615 0 -0.00699549)
(0.0693477 0 -0.011096)
(0.0916719 0 -0.014835)
(0.111552 0 -0.0183127)
(0.129385 0 -0.0216003)
(0.145535 0 -0.0247593)
(0.160316 0 -0.0278401)
(0.173971 0 -0.0308765)
(0.186773 0 -0.033913)
(0.198947 0 -0.0369827)
(0.210694 0 -0.0401175)
(0.222231 0 -0.0433581)
(0.233702 0 -0.0467276)
(0.245296 0 -0.050269)
(0.257141 0 -0.054011)
(0.269359 0 -0.0579867)
(0.282051 0 -0.0622285)
(0.295274 0 -0.066761)
(0.309066 0 -0.0716086)
(0.323327 0 -0.0767528)
(0.337934 0 -0.0821724)
(0.352712 0 -0.0878273)
(0.3674 0 -0.093647)
(0.381679 0 -0.0995353)
(0.395197 0 -0.105374)
(0.407601 0 -0.111034)
(0.418576 0 -0.116381)
(0.427853 0 -0.121274)
(0.435236 0 -0.125573)
(0.0154805 0 -0.00248656)
(0.0445555 0 -0.00718232)
(0.0701849 0 -0.0114026)
(0.0928624 0 -0.0152584)
(0.113124 0 -0.018855)
(0.131363 0 -0.0222642)
(0.14792 0 -0.0255447)
(0.163103 0 -0.0287462)
(0.177183 0 -0.0319105)
(0.190414 0 -0.035078)
(0.203006 0 -0.0382807)
(0.215161 0 -0.0415511)
(0.227077 0 -0.044926)
(0.238877 0 -0.0484235)
(0.250768 0 -0.0520926)
(0.262816 0 -0.0559429)
(0.275117 0 -0.06)
(0.28777 0 -0.0642941)
(0.300773 0 -0.0688277)
(0.314085 0 -0.0735931)
(0.327625 0 -0.0785723)
(0.341279 0 -0.0837381)
(0.354878 0 -0.0890442)
(0.3682 0 -0.094423)
(0.38099 0 -0.0997896)
(0.39298 0 -0.105047)
(0.403923 0 -0.110098)
(0.413576 0 -0.11483)
(0.421755 0 -0.119134)
(0.42835 0 -0.12292)
(0.0156284 0 -0.00253943)
(0.0450123 0 -0.00734155)
(0.0709671 0 -0.0116666)
(0.0940001 0 -0.0156291)
(0.114628 0 -0.0193325)