/*--------------------------------*- C++ -*----------------------------------*\
| =========                 |                                                 |
| \\      /  F ield         | OpenFOAM: The Open Source CFD Toolbox           |
|  \\    /   O peration     | Version:  dev                                   |
|   \\  /    A nd           | Web:      www.OpenFOAM.org                      |
|    \\/     M anipulation  |                                                 |
\*---------------------------------------------------------------------------*/
FoamFile
{
    version     2.0;
    format      ascii;
    class       volScalarField;
    location    "1.64";
    object      p;
}
// * * * * * * * * * * * * * * * * * * * * * * * * * * * * * * * * * * * * * //

dimensions      [0 2 -2 0 0 0 0];

internalField   nonuniform List<scalar> 
2790
(
79.5095
79.3475
79.4645
79.7966
80.2556
80.8157
81.4769
82.2404
83.1053
84.0711
85.1381
86.308
87.5826
88.9644
90.4558
92.059
93.775
95.6032
97.5405
99.5802
101.711
103.916
106.168
108.435
110.668
112.809
114.786
116.511
117.881
118.754
79.3589
79.2918
79.4291
79.7593
80.2163
80.7751
81.434
82.194
83.0544
84.0146
85.075
86.2371
87.5026
88.8738
90.3531
91.9425
93.6429
95.4536
97.3719
99.3914
101.502
103.686
105.92
108.172
110.397
112.539
114.528
116.283
117.707
118.744
79.2214
79.228
79.3832
79.7058
80.1545
80.7062
81.3566
82.106
82.9536
83.8987
84.9416
86.0829
87.3239
88.6664
90.112
91.6617
93.3156
95.0723
96.9278
98.8751
100.903
102.995
105.126
107.266
109.37
111.383
113.235
114.835
116.044
116.498
79.0843
79.1296
79.2989
79.6153
80.055
80.5977
81.2373
81.9732
82.8041
83.7293
84.7485
85.8619
87.0697
88.3729
89.7718
91.2664
92.8551
94.5348
96.2996
98.1403
100.043
101.99
103.952
105.895
107.768
109.504
111.007
112.118
112.638
111.197
78.9386
79.0047
79.1864
79.4996
79.9299
80.4612
81.087
81.8053
82.6149
83.5145
84.5035
85.5811
86.7468
88.0003
89.3406
90.7661
92.2733
93.8568
95.5083
97.2153
98.9605
100.72
102.461
104.138
105.686
107.012
107.97
108.272
107.813
103.477
78.7801
78.8577
79.0478
79.3573
79.7767
80.2937
80.902
81.599
82.3828
83.2519
84.205
85.2403
86.3564
87.5515
88.8234
90.1684
91.5809
93.0528
94.5728
96.1246
97.6859
99.2264
100.704
102.06
103.209
104.02
104.294
103.558
102.093
94.5108
78.6065
78.6904
78.8849
79.1894
79.5964
80.0969
80.6849
81.3573
82.1115
82.9455
83.8574
84.8445
85.9041
87.0331
88.2276
89.482
90.7884
92.1359
93.5096
94.8889
96.246
97.5425
98.726
99.7215
100.419
100.65
100.17
98.2709
95.9377
85.3248
78.4167
78.5039
78.6992
78.9971
79.3904
79.8722
80.4372
81.0817
81.8026
82.5974
83.4633
84.3966
85.3935
86.4496
87.559
88.7144
89.9052
91.1179
92.3334
93.5268
94.664
95.6989
96.5671
97.1773
97.3965
97.0159
95.7766
92.6779
89.6635
76.5765
78.2104
78.2988
78.4923
78.7817
79.1597
79.6208
80.1603
80.774
81.4584
82.2102
83.0258
83.9006
84.8295
85.8067
86.8248
87.8741
88.9418
90.0111
91.0596
92.0573
92.9642
93.726
94.2672
94.4811
94.2137
93.2205
91.2553
86.9975
83.4574
68.5715
77.9878
78.0761
78.2655
78.5447
78.9058
79.3445
79.8561
80.4365
81.0813
81.7868
82.5484
83.3606
84.2171
85.1107
86.0323
86.9699
87.9086
88.8285
89.7037
90.4997
91.1706
91.6544
91.8653
91.6829
90.9362
89.3479
86.7105
81.383
77.3878
61.3455
77.7492
77.8364
78.0202
78.2874
78.6302
79.0447
79.5265
80.0712
80.6739
81.3302
82.0348
82.781
83.5614
84.3676
85.1886
86.0107
86.8165
87.5833
88.2818
88.8736
89.3072
89.5137
89.3986
88.8294
87.6216
85.4692
82.2138
75.9262
71.424
54.7179
77.4954
77.5809
77.7576
78.0113
78.3344
78.7232
79.1735
79.6804
80.2389
80.8436
81.4885
82.166
82.8677
83.5837
84.3015
85.0056
85.6763
86.2885
86.8098
87.1982
87.3973
87.3325
86.902
85.9631
84.3208
81.6427
77.8062
70.6739
65.4643
48.3285
77.2272
77.3103
77.4788
77.7178
78.02
78.3817
78.799
79.2666
79.7789
80.3302
80.9134
81.5203
82.1414
82.7655
83.3785
83.9635
84.4987
84.957
85.3033
85.492
85.4634
85.1379
84.4077
83.1222
81.0776
77.9156
73.5138
65.6576
59.3983
41.6664
76.9456
77.0259
77.1853
77.4085
77.6885
78.0221
78.4052
78.8321
79.2969
79.7932
80.3135
80.8485
81.3879
81.9192
82.4271
82.8933
83.2945
83.6014
83.777
83.773
83.5269
82.9555
81.9464
80.3435
77.9349
74.3398
69.3961
60.9552
53.2293
34.0704
76.6515
76.7287
76.8782
77.0848
77.3418
77.6464
77.9942
78.3795
78.7958
79.2363
79.6928
80.1553
80.6127
81.0514
81.4553
81.8046
82.0746
82.2349
82.2465
82.0597
81.6099
80.8117
79.5503
77.6664
74.9431
70.9904
65.5829
56.7609
47.3482
24.6897
4.22457
4.23619
4.23703
4.22719
4.19539
4.13035
4.04224
3.94636
3.84983
3.75438
3.66117
3.5711
3.48481
3.40361
3.32979
3.26522
3.20954
3.16251
3.12371
3.08642
3.03867
2.97385
2.89044
2.78205
2.6349
2.43177
2.15202
1.7684
1.24662
0.551846
4.20785
4.21491
4.21219
4.20179
4.16794
4.10111
4.01277
3.91794
3.82322
3.72999
3.63906
3.55129
3.4673
3.38818
3.31651
3.25419
3.20003
3.15504
3.12066
3.08744
3.03987
2.97469
2.89589
2.79697
2.66068
2.46844
2.20037
1.82724
1.30744
0.582807
4.18202
4.18475
4.17528
4.16133
4.12285
4.05395
3.96737
3.87654
3.78667
3.69865
3.61309
3.53062
3.45175
3.37715
3.31038
3.25432
3.20411
3.16011
3.13248
3.11622
3.08412
3.02253
2.93846
2.83227
2.69098
2.4952
2.22235
1.84314
1.31909
0.582753
4.14695
4.14621
4.12704
4.107
4.06314
3.99417
3.91282
3.82973
3.74845
3.66909
3.59209
3.51838
3.44896
3.38329
3.32393
3.27853
3.24544
3.21613
3.18847
3.16009
3.12237
3.06413
2.98176
2.87174
2.71995
2.50949
2.22113
1.8265
1.28937
0.536796
4.10142
4.09926
4.06845
4.04191
3.99521
3.93058
3.859
3.78782
3.71918
3.65189
3.58651
3.52474
3.46885
3.41971
3.37698
3.34173
3.31354
3.28514
3.25706
3.22768
3.18424
3.11845
3.0266
2.90225
2.73213
2.50203
2.19222
1.77415
1.2139
0.461269
4.04439
4.04412
4.00177
3.97132
3.92707
3.87224
3.81415
3.75745
3.70393
3.65189
3.60138
3.55487
3.51387
3.47953
3.45185
3.42797
3.40349
3.37712
3.34749
3.30917
3.25288
3.1719
3.06191
2.91461
2.7199
2.46638
2.13387
1.69425
1.11542
0.389544
3.97539
3.98148
3.93115
3.90205
3.86624
3.82547
3.78248
3.74046
3.70138
3.66532
3.63216
3.60353
3.57996
3.56166
3.54588
3.52929
3.51
3.48456
3.44909
3.39792
3.324
3.22177
3.08624
2.91022
2.68672
2.40578
2.04902
1.59057
1.00835
0.333811
3.89473
3.91298
3.8614
3.84012
3.81615
3.78895
3.75992
3.73217
3.7083
3.68925
3.67483
3.6652
3.65973
3.65603
3.65223
3.64538
3.63071
3.60361
3.55939
3.49266
3.39784
3.27013
3.10458
2.89659
2.64211
2.3327
1.95279
1.48044
0.907457
0.291645
3.80268
3.84087
3.79463
3.78504
3.77285
3.75725
3.74007
3.72596
3.71856
3.7188
3.72519
3.73539
3.74794
3.76104
3.77135
3.77408
3.76326
3.73318
3.67863
3.59475
3.47708
3.32154
3.12404
2.88286
2.59661
2.25912
1.85841
1.37797
0.821957
0.259285
3.69977
3.76397
3.72772
3.73056
3.72854
3.72258
3.71699
3.71763
3.72914
3.75126
3.78054
3.81282
3.84527
3.87597
3.90112
3.91424
3.90766
3.8745
3.80932
3.70787
3.56669
3.3826
3.15311
2.8788
2.56055
2.19554
1.776
1.29138
0.754414
0.235141
3.58941
3.67505
3.65355
3.66929
3.67867
3.68114
3.68628
3.70397
3.73873
3.78757
3.84264
3.89762
3.95023
3.99955
4.04133
4.06686
4.06607
4.0308
3.95565
3.83717
3.67293
3.46094
3.20021
2.89306
2.54276
2.15021
1.71237
1.22457
0.704543
0.218012
3.47915
3.56103
3.56682
3.59963
3.6197
3.63094
3.64679
3.68308
3.74591
3.82727
3.91174
3.98992
4.06238
4.13162
4.19322
4.23475
4.24246
4.20683
4.12302
3.9887
3.80255
3.56388
3.27285
2.93306
2.55017
2.12894
1.67145
1.17863
0.670769
0.206688
3.35864
3.41459
3.46507
3.52348
3.55192
3.56517
3.59007
3.64994
3.75094
3.87496
3.9925
4.0917
4.18166
4.27249
4.35928
4.42244
4.44233
4.40839
4.31742
4.16878
3.96215
3.69792
3.37735
3.00468
2.58763
2.13525
1.65477
1.15268
0.650626
0.199744
3.13325
3.21975
3.35433
3.44317
3.47056
3.47804
3.51111
3.60224
3.75811
3.94139
4.09378
4.20534
4.30663
4.42182
4.54319
4.63628
4.67236
4.64163
4.54485
4.38355
4.15793
3.86866
3.51874
3.11209
2.65816
2.17068
1.66205
1.14452
0.640866
0.195553
2.26216
3.01319
3.26576
3.39011
3.38523
3.36918
3.40471
3.53374
3.77351
4.04665
4.22875
4.33032
4.43114
4.57694
4.74986
4.88428
4.9392
4.91145
4.80995
4.63824
4.39554
4.08171
3.70049
3.25798
2.76407
2.23553
1.69175
1.15112
0.637775
0.192461
76.3403
76.414
76.5529
76.7417
76.9746
77.2489
77.5602
77.9022
78.2685
78.6516
79.0427
79.4314
79.8056
80.1511
80.4506
80.6835
80.8241
80.8409
80.6939
80.3326
79.6913
78.6844
77.1974
75.0723
72.0945
67.8905
62.1882
53.3501
42.7704
12.7235
76.0083
76.0782
76.2056
76.3756
76.5829
76.8255
77.0986
77.3957
77.7101
78.0341
78.3581
78.6714
78.9612
79.2126
79.4077
79.5252
79.5388
79.4163
79.1176
78.5922
77.7751
76.5829
74.9053
72.5925
69.4465
65.1456
59.461
51.2979
42.3623
37.0784
75.6581
75.7238
75.8391
75.9893
76.1701
76.3798
76.6136
76.8646
77.126
77.3897
77.6458
77.8831
78.0885
78.2464
78.3388
78.3437
78.2347
77.9797
77.5392
76.8638
75.8912
74.5429
72.7172
70.2808
67.0699
62.8539
57.5519
50.8323
44.1337
42.2343
75.2902
75.3515
75.454
75.5838
75.7372
75.9131
76.1066
76.3107
76.5184
76.7212
76.9092
77.0708
77.1925
77.2587
77.251
77.1475
76.9221
76.5435
75.9733
75.1646
74.0599
72.5883
70.6601
68.1668
64.9905
60.997
56.2037
50.5601
44.2844
39.0895
74.9055
74.962
75.0513
75.1599
75.2855
75.4271
75.5796
75.7362
75.8898
76.0317
76.1519
76.2387
76.2784
76.2555
76.1517
75.9454
75.6114
75.1195
74.4336
73.5107
72.2994
70.7382
68.753
66.2634
63.1938
59.4758
55.1382
50.1805
44.5619
39.3955
74.5051
74.5564
74.6318
74.7188
74.8163
74.9234
75.0345
75.1434
75.243
75.3244
75.3777
75.3914
75.3516
75.2431
75.048
74.7456
74.3119
73.7184
72.9323
71.9152
70.6231
69.0048
67.0036
64.5638
61.6414
58.2077
54.2925
49.9444
45.2125
40.7526
74.09
74.1359
74.197
74.2619
74.3313
74.4038
74.4735
74.535
74.5811
74.6029
74.5909
74.5336
74.4175
74.2278
73.9472
73.5565
73.0328
72.3503
71.4802
70.3891
69.0405
67.3945
65.4096
63.0505
60.2956
57.1415
53.6212
49.7965
45.7267
41.7443
73.6617
73.7019
73.7484
73.7911
73.8322
73.8702
73.899
73.9138
73.9074
73.8711
73.7957
73.6701
73.4814
73.2157
72.8566
72.3857
71.7823
71.0241
70.086
68.9397
67.5568
65.9076
63.9631
61.7038
59.1239
56.2326
53.0615
49.6628
46.0872
42.5378
73.2215
73.2558
73.2877
73.3083
73.3212
73.3248
73.3135
73.2826
73.2253
73.1329
72.9966
72.8059
72.5492
72.2133
71.7826
71.24
70.5679
69.7471
68.7557
67.5718
66.1743
64.5408
62.6534
60.5047
58.0975
55.446
52.5792
49.5408
46.378
43.2323
72.7713
72.7995
72.8168
72.8155
72.8004
72.7704
72.7198
72.6445
72.5381
72.3921
72.1979
71.946
71.6262
71.2263
70.7311
70.1258
69.3959
68.5247
67.4939
66.2881
64.8916
63.288
61.4691
59.4349
57.1924
54.7575
52.157
49.4281
46.6122
43.812
72.3129
72.335
72.3379
72.3149
72.2723
72.2094
72.1208
72.0029
71.8497
71.6526
71.4038
71.0952
70.7177
70.2599
69.7078
69.0487
68.2713
67.3609
66.3035
65.0888
63.7052
62.1425
60.3987
58.4779
56.3891
54.1486
51.7806
49.3165
46.7908
44.2814
71.8486
71.8643
71.8528
71.8089
71.7395
71.6447
71.5197
71.3611
71.1635
70.9183
70.6189
70.2581
69.8282
69.3189
68.7173
68.0132
67.1977
66.2586
65.1857
63.9725
62.6112
61.0967
59.4307
57.619
55.6717
53.6048
51.4396
49.2024
46.9213
44.6576
71.381
71.3899
71.364
71.3001
71.2048
71.0793
70.9196
70.7226
70.483
70.1932
69.8471
69.4389
68.9624
68.4078
67.7636
67.0226
66.178
65.2195
64.1403
62.9369
61.6048
60.1427
58.554
56.8454
55.0275
53.1151
51.1268
49.0844
47.0113
44.9558
70.9125
70.9141
70.874
70.7909
70.6712
70.5164
70.3237
70.0905
69.812
69.4811
69.0924
68.6416
68.1239
67.5302
66.8503
66.08
65.2139
64.2439
63.1662
61.9791
60.681
59.2728
57.7589
56.1466
54.4461
52.6709
50.837
48.9627
47.0669
45.1886
70.4457
70.4397
70.3856
70.2844
70.1417
69.959
69.7352
69.4684
69.1539
68.7855
68.3586
67.87
67.3163
66.6892
65.9804
65.1874
64.3064
63.3318
62.2617
61.0956
59.8341
58.4796
57.037
55.5136
53.9192
52.2657
50.5667
48.8376
47.0938
45.3668
69.9831
69.9697
69.9019
69.7834
69.6191
69.4103
69.1577
68.8598
68.5125
68.11
67.649
67.1274
66.5426
65.8876
65.156
64.3463
63.4563
62.4826
61.4244
60.2825
59.0587
57.7564
56.3809
54.9391
53.44
51.8941
50.3132
48.71
47.0969
45.4996
69.5275
69.5068
69.4264
69.2913
69.1063
68.8736
68.5943
68.2681
67.8911
67.458
66.9669
66.417
65.8056
65.1275
64.3785
63.5576
62.6635
61.6949
60.6518
59.5358
58.3497
57.0976
55.7845
54.417
53.0032
51.5525
50.0749
48.5809
47.0807
45.5951
69.0819
69.0543
68.962
68.8113
68.6069
68.352
68.0488
67.6964
67.2924
66.8327
66.3156
65.7413
65.1078
64.4114
63.6495
62.8218
61.9277
60.9672
59.9412
58.8519
57.7028
56.498
55.2424
53.9422
52.6048
51.2381
49.8508
48.4516
47.0489
45.6599
68.6495
68.6155
68.5119
68.3465
68.1244
67.8491
67.5241
67.1483
66.72
66.2369
65.6978
65.1029
64.4514
63.741
62.9702
62.1391
61.248
60.2978
59.2902
58.2277
57.114
55.9534
54.7504
53.5109
52.2413
50.9488
49.6405
48.3237
47.0054
45.6997
68.2334
68.1939
68.08
67.9006
67.6621
67.3681
67.0233
66.627
66.1773
65.6738
65.1161
64.5045
63.8388
63.1178
62.3412
61.5095
60.6237
59.6853
58.6965
57.6601
56.58
55.4601
54.3049
53.1198
51.9105
50.6831
49.4437
48.1985
46.9533
45.7198
67.8369
67.7931
67.6702
67.4769
67.2229
66.9126
66.5502
66.1355
65.6676
65.1467
64.5735
63.9483
63.2714
62.5429
61.763
60.9328
60.0539
59.1282
58.1581
57.1467
56.0978
55.0152
53.9031
52.7665
51.6103
50.44
49.2606
48.0775
46.8956
45.7244
67.4646
67.4165
67.2853
67.0789
66.8107
66.4863
66.1083
65.6775
65.194
64.6586
64.0724
63.4363
62.751
62.0173
61.2362
60.4091
59.538
58.6252
57.6733
56.6854
55.6652
54.6163
53.5428
52.4491
51.3396
50.2191
49.0919
47.9625
46.8352
45.7178
67.1213
67.0679
66.9278
66.7102
66.4298
66.0926
65.7011
65.2564
64.7596
64.2121
63.6153
62.9705
62.279
61.542
60.7612
59.9383
59.0755
58.1753
57.2406
56.2743
55.2802
54.2615
53.2222
52.1661
51.0973
50.0199
48.9377
47.8546
46.7742
45.7029
66.8111
66.7513
66.6022
66.3746
66.0835
65.7351
65.3318
64.8754
64.3675
63.81
63.2047
62.5532
61.8572
61.1186
60.3391
59.521
58.6666
57.7785
56.8596
55.913
54.942
53.9501
52.9407
51.9173
50.8837
49.8433
48.7997
47.7561
46.7157
45.6839
66.5374
66.4711
66.313
66.0762
65.7756
65.4174
65.004
64.5376
64.0205
63.4548
62.8426
62.186
61.487
60.7477
59.9703
59.1571
58.3106
57.4336
56.529
55.5998
54.6492
53.6805
52.6967
51.7013
50.6976
49.6887
48.6777
47.6674
46.6607
45.6619
66.305
66.2319
66.0643
65.8186
65.5097
65.1433
64.7216
64.2472
63.7227
63.1505
62.5332
61.8729
61.1721
60.4329
59.6578
58.8494
58.0102
57.1431
56.251
55.3368
54.4036
53.4545
52.4924
51.5206
50.5418
49.5592
48.5753
47.5928
46.6141
45.643
66.1192
66.0383
65.8598
65.6051
65.2887
64.9151
64.4864
64.0052
63.4747
62.8975
62.2762
61.6133
60.9113
60.1727
59.4001
58.596
57.7633
56.9047
56.0231
55.1214
54.2025
53.2694
52.325
51.3721
50.4135
49.4518
48.4896
47.5291
46.5726
45.623
65.9877
65.8944
65.7037
65.4421
65.1208
64.7419
64.3077
63.8213
63.2862
62.7052
62.081
61.4163
60.7136
59.9756
59.2051
58.4046
57.5771
56.7253
55.8521
54.9602
54.0527
53.1322
52.2016
51.2635
50.3207
49.3755
48.4302
47.4872
46.5484
45.6164
65.9224
65.798
65.5887
65.3216
64.9977
64.6156
64.1779
63.6885
63.1508
62.5678
61.9422
61.2768
60.5741
59.8371
59.0684
58.2708
57.4471
56.6001
55.7327
54.8476
53.9477
53.0357
52.1143
51.186
50.2534
49.3189
48.3846
47.4526
46.5248
45.6032
65.9526
65.7752
65.5429
65.2697
64.9424
64.5568
64.1158
63.6238
63.0841
62.4997
61.8732
61.2074
60.505
59.7688
59.0016
58.2062
57.3853
56.5418
55.6786
54.7982
53.9036
52.9973
52.082
51.1602
50.2345
49.3069
48.3797
47.4547
46.534
45.6189
-73.6225
-46.8589
-19.1723
30.3393
26.4808
23.2611
33.1203
24.9026
20.2007
30.621
25.5684
22.552
33.8851
30.2335
27.4266
36.3745
33.2753
30.7187
37.9486
35.3108
33.1186
39.2553
36.9963
35.107
40.3632
38.3894
36.733
41.2699
39.5211
38.0527
42.0085
40.4451
39.1319
42.6101
41.2014
40.0175
43.098
41.8195
40.7445
43.4915
42.3235
41.341
43.8069
42.7332
41.8297
44.0573
43.0647
42.229
44.254
43.3311
42.5539
44.4062
43.5437
42.8169
44.5218
43.7117
43.0286
44.6076
43.843
43.1977
44.6693
43.9442
43.3317
44.7121
44.0212
43.437
44.7399
44.0786
43.5187
44.7576
44.1218
43.5826
44.7664
44.1522
43.6307
44.774
44.1779
43.6707
44.7745
44.1932
43.698
44.7855
44.2158
43.7291
44.7833
44.2222
43.7425
44.8117
44.2594
43.7836
5.91737
4.76134
3.40664
3.30055
3.15803
3.1096
3.16538
3.38166
3.80395
4.23201
4.41917
4.45932
4.5412
4.73264
4.98843
5.18067
5.25309
5.22499
5.12014
4.94178
4.6849
4.34664
3.93056
3.44681
2.909
2.33143
1.74192
1.16794
0.635159
0.186859
17.073
7.63546
4.15532
3.78458
3.76238
3.60933
3.55641
3.83057
4.32746
4.63315
4.62037
4.52575
4.57958
4.88104
5.28126
5.53188
5.60996
5.57795
5.47592
5.29892
5.03088
4.66713
4.21422
3.68459
3.0942
2.46695
1.82459
1.19275
0.625322
0.169774
15.66
9.83451
7.05055
6.09903
5.48836
4.89798
4.52267
4.45813
4.55098
4.61969
4.64909
4.72217
5.00867
5.4605
5.81109
5.95773
5.96748
5.92307
5.83788
5.67863
5.41223
5.03098
4.54488
3.96783
3.31698
2.61896
1.91149
1.24034
0.633166
0.136826
19.0463
14.8137
11.7783
9.79333
8.36423
7.26062
6.48214
6.01648
5.7635
5.61483
5.52107
5.50508
5.62692
5.8391
6.04477
6.20641
6.32763
6.39839
6.37454
6.21005
5.89485
5.45241
4.90907
4.27874
3.57187
2.8083
2.02214
1.25994
0.590752
0.0748667
23.8876
19.9575
16.5169
13.8059
11.7661
10.2157
9.04715
8.20081
7.60524
7.18109
6.87765
6.69187
6.63747
6.68603
6.77372
6.84318
6.86355
6.82068
6.70166
6.49229
6.1811
5.76022
5.22385
4.57127
3.81386
2.98043
2.11861
1.29128
0.573719
0.0284743
27.585
24.0639
20.6172
17.643
15.2747
13.4022
11.9107
10.7353
9.82348
9.12013
8.58311
8.19281
7.93726
7.78637
7.68922
7.59713
7.48087
7.32503
7.11389
6.82726
6.44694
5.96305
5.37332
4.68038
3.89404
3.03796
2.15492
1.30515
0.56774
0.00544658
30.4622
27.3858
24.1406
21.1549
18.6467
16.5729
14.8467
13.4151
12.2414
11.2877
10.5192
9.90895
9.43424
9.06566
8.76446
8.49251
8.22089
7.92785
7.59278
7.19533
6.7192
6.15503
5.49961
4.75484
3.93083
3.05163
2.1593
1.31342
0.593723
0.0370162
32.815
30.1039
27.1124
24.2338
21.7102
19.5427
17.6734
16.0645
14.6922
13.5316
12.5553
11.737
11.0526
10.4757
9.9754
9.51987
9.08133
8.63618
8.16336
7.64439
7.06446
6.4137
5.68784
4.88909
4.02898
3.13208
2.23831
1.40174
0.6905
0.122099
34.7205
32.3066
29.5716
26.857
24.3982
22.2193
20.2839
18.5678
17.0579
15.7393
14.5925
13.5954
12.7266
11.9633
11.2797
10.6492
10.0475
9.45225
8.84354
8.20417
7.52042
6.78291
5.98782
5.13807
4.24534
3.33241
2.43412
1.59508
0.868276
0.260707
36.2656
34.1
31.6043
29.0718
26.7195
24.5815
22.6351
20.8665
19.2707
17.8407
16.5635
15.4222
14.4
13.478
12.6338
11.8463
11.0954
10.3613
9.62574
8.87309
8.09105
7.27123
6.41046
5.51178
4.58564
3.65121
2.73634
1.87487
1.10433
0.425336
37.5304
35.5744
33.2926
30.9387
28.7095
26.6414
24.7203
22.9389
21.2979
19.7959
18.4249
17.1732
16.0288
14.9764
13.9972
13.0749
12.1936
11.3359
10.4859
9.62992
8.75733
7.86067
6.937
5.98871
5.02414
4.05807
3.1109
2.20604
1.3672
0.591369
38.571
36.793
34.6997
32.5126
30.4096
28.4261
26.5523
24.7853
23.1292
21.5863
20.1526
18.8206
17.5823
16.426
15.3368
14.3024
13.3099
12.3448
11.3935
10.4448
9.48915
8.52014
7.53477
6.53424
5.52431
4.51522
3.52058
2.55487
1.63082
0.743565
39.429
37.8032
35.8752
33.8406
31.8602
29.9671
28.1536
26.4186
24.7685
23.2081
21.7366
20.3496
19.042
17.805
16.6281
15.5021
14.4163
13.3589
12.3191
11.2872
10.2552
9.21731
8.17029
7.11412
6.05197
4.98989
3.93575
2.89712
1.87883
0.875246
40.137
38.6422
36.8592
34.9621
33.0972
31.295
29.5482
27.8565
26.2272
24.6667
23.1766
21.7547
20.3978
19.0999
17.8546
16.6547
15.4909
14.3545
13.2374
12.1312
11.0288
9.92482
8.81604
7.70123
6.5813
5.45887
4.3373
3.21908
2.10384
0.985756
40.7211
39.3395
37.6836
35.9098
34.1519
32.4374
30.7595
29.1176
27.5191
25.9711
24.4766
23.0354
21.6453
20.3031
19.0053
17.746
16.5178
15.3145
14.1301
12.9572
11.7897
10.6226
9.45247
8.27717
7.09588
5.90859
4.71538
3.51525
2.30463
1.07777
41.2024
39.9186
38.3743
36.7107
35.0505
33.4191
31.8092
30.22
28.6583
27.1314
25.6432
24.1944
22.7843
21.4115
20.0741
18.7678
17.4873
16.2279
14.9846
13.7518
12.5242
11.2971
10.0668
8.83067
7.58659
6.3326
5.06654
3.78523
2.4833
1.15518
41.5979
40.399
38.9526
37.3869
35.8154
34.2612
32.7168
31.1807
29.6592
28.1591
26.6847
25.2374
23.8176
22.4251
21.0587
19.7158
18.393
17.0866
15.7922
14.5057
13.2231
11.9396
10.6514
9.35545
8.04904
6.7287
5.39081
4.03102
2.6431
1.22166
41.922
40.7965
39.4359
37.9571
36.4656
34.9824
33.4998
32.0156
30.5354
29.0655
27.61
26.1709
24.7491
23.3451
21.9584
20.5875
19.2312
17.886
16.5476
15.2133
13.8806
12.5447
11.2014
9.84814
8.48144
7.09668
5.6896
4.25531
2.78723
1.2801
42.1863
41.1246
39.8389
38.437
37.0171
35.5985
34.1734
32.7389
31.2995
29.8612
28.4279
27.0015
25.5834
24.1744
22.7746
21.3833
20.0004
18.6231
17.2472
15.8714
14.4938
13.109
11.7137
10.3068
8.88334
7.43741
5.96475
4.46056
2.91821
1.33252
42.4008
41.3942
40.1741
38.84
37.4838
36.1236
34.7512
33.3632
31.9633
30.5568
29.1472
27.7364
26.3259
24.9169
23.5096
22.1041
20.7003
19.2963
17.8891
16.4778
15.0605
13.6316
12.1887
10.7315
9.25467
7.75139
6.21756
4.64853
3.03778
1.38016
42.5739
41.6147
40.4517
39.1772
37.8775
36.5695
35.245
33.8999
32.5374
31.1618
29.7763
28.3828
26.9826
25.577
24.1666
22.7517
21.3323
19.9069
18.4738
17.0318
15.5788
14.1106
12.6252
11.1216
9.59475
8.03854
6.44858
4.82001
3.1466
1.42329
42.7128
41.7944
40.6809
39.4584
38.2085
36.9469
35.6653
34.3594
33.0315
31.6852
30.3235
28.9479
27.5596
26.1599
24.7495
23.3288
21.8977
20.4554
19.0009
17.5325
16.0484
14.5457
13.0226
11.4769
9.90446
8.3001
6.65908
4.9763
3.24583
1.46258
42.8233
41.9396
40.8689
39.6916
38.4851
37.2643
36.0208
34.7501
33.4536
32.1346
30.7954
29.4374
28.0617
26.6693
25.261
23.8372
22.3979
20.9426
19.4702
17.9797
16.4694
14.937
13.3801
11.7966
10.1833
8.53545
6.84825
5.11649
3.33454
1.49731
42.9114
42.0571
41.0229
39.8845
38.7156
37.5303
36.3202
35.0806
33.8123
32.518
31.1997
29.8585
28.4953
27.111
25.7063
24.2814
22.8366
21.3713
19.8846
18.3757
16.8432
15.2849
13.6986
12.0822
10.4328
8.74631
7.01796
5.24261
3.4148
1.52902
42.98
42.1503
41.1469
40.0415
38.9045
37.7496
36.5683
35.3556
34.112
32.8395
31.54
30.2142
28.8628
27.4866
26.0861
24.6615
23.2129
21.7399
20.2418
18.7178
17.1666
15.5864
13.975
12.3301
10.6493
8.92869
7.16388
5.35026
3.48258
1.55493
43.0363
42.2265
41.2487
40.1709
39.0606
37.9311
36.7741
35.5843
34.3617
33.1082
31.825
30.5128
29.1723
27.8037
26.4077
24.9842
23.5334
22.0548
20.5479
19.0119
17.4455
15.8471
14.2146
12.546
10.8386
9.08903
7.29297
5.4464
3.54422
1.57956
43.0775
42.2833
41.3258
40.27
39.1812
38.0722
36.9348
35.7635
34.5581
33.32
32.0504
30.7496
29.4181
28.0562
26.6641
25.242
23.7897
22.3069
20.7931
19.2474
17.6687
16.0556
14.406
12.7178
10.9885
9.21499
7.39321
5.5192
3.58857
1.59519
43.1172
42.3344
41.3926
40.354
39.2818
38.1887
37.0664
35.9096
34.7176
33.4918
32.2328
30.9411
29.617
28.2605
26.8719
25.4511
23.9981
22.5124
20.9934
19.4404
17.8524
16.2279
14.565
12.8615
11.115
9.3226
7.48041
5.58419
3.62997
1.61156
43.1381
42.3617
41.4298
40.4029
39.3421
38.2595
37.1473
36.0001
34.8171
33.5993
32.3475
31.0619
29.7426
28.3898
27.0034
25.5836
24.13
22.6422
21.1195
19.5616
17.9674
16.3352
14.6632
12.9493
11.191
9.38547
7.52906
5.61736
3.64668
1.61316
43.1777
42.3991
41.4726
40.4532
39.3992
38.3225
37.2159
36.0739
34.8958
33.6823
32.4341
31.1515
29.8344
28.4831
27.0974
25.6774
24.223
22.7334
21.2079
19.6464
18.0481
16.4109
14.733
13.0124
11.2467
9.43278
7.56704
5.6439
3.65761
1.6004
)
;

boundaryField
{
    inlet
    {
        type            zeroGradient;
    }
    outlet
    {
        type            fixedValue;
        value           uniform 0;
    }
    flap
    {
        type            zeroGradient;
    }
    upperWall
    {
        type            zeroGradient;
    }
    lowerWall
    {
        type            zeroGradient;
    }
    frontAndBack
    {
        type            empty;
    }
}


// ************************************************************************* //
