/*--------------------------------*- C++ -*----------------------------------*\
| =========                 |                                                 |
| \\      /  F ield         | OpenFOAM: The Open Source CFD Toolbox           |
|  \\    /   O peration     | Version:  dev                                   |
|   \\  /    A nd           | Web:      www.OpenFOAM.org                      |
|    \\/     M anipulation  |                                                 |
\*---------------------------------------------------------------------------*/
FoamFile
{
    version     2.0;
    format      ascii;
    class       volVectorField;
    location    "1.54";
    object      cellDisplacement;
}
// * * * * * * * * * * * * * * * * * * * * * * * * * * * * * * * * * * * * * //

dimensions      [0 1 0 0 0 0 0];

internalField   nonuniform List<vector> 
465
(
(0.315518 0 -0.0776911)
(0.326508 0 -0.0825775)
(0.346077 0 -0.0900712)
(0.367384 0 -0.0985291)
(0.335795 0 -0.0868277)
(0.354651 0 -0.0942727)
(0.374601 0 -0.10243)
(0.395139 0 -0.111172)
(0.415604 0 -0.120307)
(0.343361 0 -0.0903804)
(0.361215 0 -0.0976161)
(0.379605 0 -0.105324)
(0.398066 0 -0.113367)
(0.416067 0 -0.12157)
(0.432984 0 -0.1297)
(0.448202 0 -0.137501)
(0.349266 0 -0.0932098)
(0.365918 0 -0.100109)
(0.382687 0 -0.107288)
(0.399223 0 -0.114635)
(0.415099 0 -0.121996)
(0.42986 0 -0.129189)
(0.443087 0 -0.136025)
(0.45443 0 -0.142324)
(0.463596 0 -0.147883)
(0.353569 0 -0.0952961)
(0.368939 0 -0.101786)
(0.384181 0 -0.108431)
(0.398995 0 -0.115123)
(0.413053 0 -0.121734)
(0.426017 0 -0.128121)
(0.437623 0 -0.134156)
(0.447612 0 -0.139691)
(0.455764 0 -0.144568)
(0.356401 0 -0.0966582)
(0.370541 0 -0.102727)
(0.384379 0 -0.108854)
(0.397676 0 -0.114945)
(0.41018 0 -0.120896)
(0.421651 0 -0.126595)
(0.431894 0 -0.131943)
(0.44074 0 -0.136832)
(0.448029 0 -0.141142)
(0.357961 0 -0.097349)
(0.370949 0 -0.103001)
(0.383518 0 -0.108638)
(0.395479 0 -0.114182)
(0.406647 0 -0.119549)
(0.416862 0 -0.124659)
(0.425964 0 -0.129424)
(0.433827 0 -0.133759)
(0.440361 0 -0.137587)
(0.358428 0 -0.0974158)
(0.370354 0 -0.102665)
(0.381782 0 -0.107847)
(0.392565 0 -0.112893)
(0.402595 0 -0.117751)
(0.411731 0 -0.122347)
(0.419843 0 -0.126603)
(0.426863 0 -0.130467)
(0.432731 0 -0.133881)
(0.357957 0 -0.0968976)
(0.368914 0 -0.101764)
(0.379327 0 -0.106527)
(0.389088 0 -0.111131)
(0.398112 0 -0.115531)
(0.406303 0 -0.11967)
(0.413561 0 -0.123486)
(0.419848 0 -0.126943)
(0.425123 0 -0.129998)
(0.356684 0 -0.0958241)
(0.366759 0 -0.100331)
(0.376264 0 -0.104707)
(0.385132 0 -0.108915)
(0.393283 0 -0.112909)
(0.400637 0 -0.11664)
(0.407147 0 -0.12007)
(0.412786 0 -0.123172)
(0.417527 0 -0.125913)
(0.344927 0 -0.0899377)
(0.354726 0 -0.0942162)
(0.364002 0 -0.0983842)
(0.372708 0 -0.102411)
(0.380781 0 -0.106258)
(0.38815 0 -0.109883)
(0.394773 0 -0.113253)
(0.400622 0 -0.116344)
(0.405685 0 -0.119133)
(0.409943 0 -0.121596)
(0.343091 0 -0.0881085)
(0.352189 0 -0.0920864)
(0.360757 0 -0.0959425)
(0.368746 0 -0.0996444)
(0.376095 0 -0.103156)
(0.382772 0 -0.106449)
(0.38875 0 -0.1095)
(0.394014 0 -0.112289)
(0.39856 0 -0.114801)
(0.402378 0 -0.117017)
(0.34071 0 -0.085748)
(0.349185 0 -0.0894437)
(0.35711 0 -0.0930048)
(0.364438 0 -0.0964006)
(0.371143 0 -0.0996062)
(0.377205 0 -0.1026)
(0.38261 0 -0.105363)
(0.387351 0 -0.107882)
(0.391433 0 -0.110145)
(0.39485 0 -0.11214)
(0.337895 0 -0.0828567)
(0.345798 0 -0.0862809)
(0.353126 0 -0.0895595)
(0.359862 0 -0.0926707)
(0.365992 0 -0.0955949)
(0.371505 0 -0.0983153)
(0.376398 0 -0.100818)
(0.380671 0 -0.103093)
(0.384332 0 -0.105133)
(0.387383 0 -0.106928)
(0.334723 0 -0.0794208)
(0.342096 0 -0.0825817)
(0.348888 0 -0.0855928)
(0.355093 0 -0.0884375)
(0.360708 0 -0.0911008)
(0.365731 0 -0.0935697)
(0.370164 0 -0.0958343)
(0.374016 0 -0.0978871)
(0.377297 0 -0.0997236)
(0.380012 0 -0.101336)
(0.331287 0 -0.0754275)
(0.338173 0 -0.0783293)
(0.344479 0 -0.0810833)
(0.350207 0 -0.0836754)
(0.35536 0 -0.0860938)
(0.359943 0 -0.0883288)
(0.363966 0 -0.0903729)
(0.367438 0 -0.092221)
(0.370375 0 -0.0938704)
(0.372783 0 -0.095315)
(0.327672 0 -0.0708478)
(0.334117 0 -0.073495)
(0.339984 0 -0.0759992)
(0.345283 0 -0.0783489)
(0.350023 0 -0.0805347)
(0.354213 0 -0.0825491)
(0.357867 0 -0.0843864)
(0.360998 0 -0.0860435)
(0.363622 0 -0.087519)
(0.365751 0 -0.0888081)
(0.32397 0 -0.0656452)
(0.330017 0 -0.0680395)
(0.335492 0 -0.0702984)
(0.340407 0 -0.0724123)
(0.344777 0 -0.0743736)
(0.348616 0 -0.0761766)
(0.35194 0 -0.0778173)
(0.354765 0 -0.0792936)
(0.357108 0 -0.0806049)
(0.358984 0 -0.0817479)
(0.320278 0 -0.0597734)
(0.325971 0 -0.061913)
(0.331096 0 -0.063927)
(0.335671 0 -0.0658075)
(0.339713 0 -0.0675486)
(0.343241 0 -0.0691456)
(0.346271 0 -0.0705958)
(0.348823 0 -0.0718978)
(0.350915 0 -0.0730518)
(0.352564 0 -0.0740551)
(0.3167 0 -0.0531746)
(0.322081 0 -0.0550531)
(0.326899 0 -0.0568182)
(0.331176 0 -0.0584632)
(0.334931 0 -0.0599836)
(0.338185 0 -0.0613756)
(0.340957 0 -0.0626373)
(0.343268 0 -0.0637679)
(0.345139 0 -0.0647679)
(0.346585 0 -0.0656353)
(0.313351 0 -0.0457778)
(0.318463 0 -0.0473832)
(0.323017 0 -0.0488895)
(0.327036 0 -0.0502916)
(0.330544 0 -0.0515856)
(0.333562 0 -0.0527686)
(0.336112 0 -0.0538392)
(0.338215 0 -0.054797)
(0.339893 0 -0.0556426)
(0.341163 0 -0.0563744)
(0.310356 0 -0.0374959)
(0.315243 0 -0.0388091)
(0.319576 0 -0.0400403)
(0.323381 0 -0.0411852)
(0.326682 0 -0.0422407)
(0.329503 0 -0.0432048)
(0.331866 0 -0.0440762)
(0.333795 0 -0.0448548)
(0.335311 0 -0.0455411)
(0.336433 0 -0.0461339)
(0.307855 0 -0.0282228)
(0.312564 0 -0.0292159)
(0.316723 0 -0.0301467)
(0.320358 0 -0.0310119)
(0.323495 0 -0.0318093)
(0.326159 0 -0.032537)
(0.328375 0 -0.0331943)
(0.330165 0 -0.033781)
(0.331551 0 -0.0342975)
(0.332555 0 -0.0347428)
(0.306005 0 -0.0178292)
(0.310588 0 -0.018463)
(0.314622 0 -0.0190572)
(0.318136 0 -0.0196096)
(0.321156 0 -0.0201186)
(0.323709 0 -0.0205831)
(0.325819 0 -0.0210025)
(0.32751 0 -0.0213765)
(0.328804 0 -0.0217056)
(0.329722 0 -0.0219889)
(0.304984 0 -0.00617238)
(0.309499 0 -0.00639407)
(0.313466 0 -0.00660202)
(0.316914 0 -0.0067954)
(0.319872 0 -0.00697362)
(0.322365 0 -0.00713625)
(0.324418 0 -0.00728306)
(0.326054 0 -0.00741399)
(0.327298 0 -0.0075291)
(0.32817 0 -0.00762812)
(0.468978 0 -0.151504)
(0.460646 0 -0.147762)
(0.463485 0 -0.149723)
(0.465914 0 -0.151509)
(0.45246 0 -0.143976)
(0.455067 0 -0.145723)
(0.457331 0 -0.147325)
(0.444379 0 -0.140113)
(0.446762 0 -0.141674)
(0.448854 0 -0.143113)
(0.436369 0 -0.136139)
(0.438539 0 -0.137537)
(0.440459 0 -0.13883)
(0.42841 0 -0.132022)
(0.430377 0 -0.133277)
(0.432126 0 -0.13444)
(0.420489 0 -0.127729)
(0.422264 0 -0.128857)
(0.423848 0 -0.129903)
(0.412603 0 -0.123229)
(0.414198 0 -0.124242)
(0.415622 0 -0.125184)
(0.404759 0 -0.118484)
(0.406183 0 -0.119395)
(0.407455 0 -0.120242)
(0.39697 0 -0.113459)
(0.398235 0 -0.114277)
(0.399361 0 -0.115039)
(0.389262 0 -0.108112)
(0.390378 0 -0.108847)
(0.391367 0 -0.10953)
(0.381669 0 -0.102398)
(0.382646 0 -0.103056)
(0.383506 0 -0.103667)
(0.374234 0 -0.0962647)
(0.375083 0 -0.0968519)
(0.375822 0 -0.0973978)
(0.367013 0 -0.0896535)
(0.367743 0 -0.0901754)
(0.36837 0 -0.0906603)
(0.360074 0 -0.0824955)
(0.360695 0 -0.0829564)
(0.361219 0 -0.0833842)
(0.353497 0 -0.0747098)
(0.354019 0 -0.0751127)
(0.35445 0 -0.0754864)
(0.347379 0 -0.0661999)
(0.347814 0 -0.0665469)
(0.34816 0 -0.0668684)
(0.341836 0 -0.0568498)
(0.342193 0 -0.0571416)
(0.342465 0 -0.0574115)
(0.337002 0 -0.0465182)
(0.337294 0 -0.0467538)
(0.337503 0 -0.0469716)
(0.333042 0 -0.0350312)
(0.333281 0 -0.0352078)
(0.333439 0 -0.0353709)
(0.33015 0 -0.0221722)
(0.330351 0 -0.0222843)
(0.330473 0 -0.0223878)
(0.328565 0 -0.00769222)
(0.328745 0 -0.00773134)
(0.328847 0 -0.00776745)
(0.468939 0 -0.153923)
(0.460206 0 -0.149505)
(0.462793 0 -0.151864)
(0.464162 0 -0.153656)
(0.464315 0 -0.154836)
(0.451549 0 -0.145081)
(0.454063 0 -0.147238)
(0.455501 0 -0.148907)
(0.455839 0 -0.150043)
(0.455088 0 -0.150624)
(0.453271 0 -0.150642)
(0.442956 0 -0.140608)
(0.445342 0 -0.142573)
(0.446772 0 -0.144115)
(0.447206 0 -0.14519)
(0.446632 0 -0.145772)
(0.44505 0 -0.145846)
(0.442462 0 -0.145404)
(0.43887 0 -0.144444)
(0.434418 0 -0.136044)
(0.436639 0 -0.13783)
(0.438006 0 -0.139245)
(0.438467 0 -0.140247)
(0.437997 0 -0.14081)
(0.436579 0 -0.140916)
(0.434199 0 -0.14055)
(0.430846 0 -0.139707)
(0.426506 0 -0.138384)
(0.425931 0 -0.131351)
(0.427964 0 -0.132969)
(0.429227 0 -0.13426)
(0.429663 0 -0.135184)
(0.429238 0 -0.135714)
(0.427924 0 -0.135831)
(0.425695 0 -0.135519)
(0.422528 0 -0.134766)
(0.418401 0 -0.133566)
(0.417498 0 -0.126488)
(0.419329 0 -0.127951)
(0.420459 0 -0.129122)
(0.420832 0 -0.129965)
(0.420407 0 -0.130454)
(0.419147 0 -0.130569)
(0.417019 0 -0.130292)
(0.413993 0 -0.129608)
(0.410037 0 -0.128509)
(0.409128 0 -0.121417)
(0.410749 0 -0.122735)
(0.411729 0 -0.123792)
(0.41201 0 -0.124554)
(0.411549 0 -0.124997)
(0.410304 0 -0.1251)
(0.408238 0 -0.124844)
(0.405311 0 -0.124214)
(0.401488 0 -0.123198)
(0.400839 0 -0.116095)
(0.402249 0 -0.11728)
(0.403067 0 -0.118228)
(0.403237 0 -0.118911)
(0.402713 0 -0.119305)
(0.401453 0 -0.119389)
(0.399413 0 -0.119145)
(0.396553 0 -0.118557)
(0.392831 0 -0.117611)
(0.392657 0 -0.110477)
(0.393859 0 -0.111538)
(0.394509 0 -0.112386)
(0.394554 0 -0.112993)
(0.393949 0 -0.113337)
(0.392649 0 -0.113398)
(0.390611 0 -0.11316)
(0.387788 0 -0.112605)
(0.384139 0 -0.111719)
(0.384617 0 -0.104515)
(0.385615 0 -0.105462)
(0.386096 0 -0.106215)
(0.38601 0 -0.106749)
(0.385311 0 -0.107045)
(0.383955 0 -0.107083)
(0.381896 0 -0.106846)
(0.379089 0 -0.106319)
(0.375489 0 -0.105487)
(0.376765 0 -0.0981532)
(0.377567 0 -0.0989948)
(0.377881 0 -0.09966)
(0.37766 0 -0.100126)
(0.376859 0 -0.100376)
(0.375435 0 -0.10039)
(0.373341 0 -0.100154)
(0.370532 0 -0.0996523)
(0.366962 0 -0.0988699)
(0.369156 0 -0.0913304)
(0.369772 0 -0.0920738)
(0.369925 0 -0.0926571)
(0.36957 0 -0.0930602)
(0.368663 0 -0.0932665)
(0.367163 0 -0.0932599)
(0.365023 0 -0.0930251)
(0.362199 0 -0.0925476)
(0.358644 0 -0.091814)
(0.361859 0 -0.0839743)
(0.362301 0 -0.084626)
(0.3623 0 -0.0851331)
(0.361814 0 -0.0854777)
(0.360802 0 -0.0856448)
(0.359222 0 -0.0856198)
(0.35703 0 -0.0853884)
(0.354182 0 -0.0849374)
(0.35063 0 -0.084254)
(0.354956 0 -0.0760009)
(0.355237 0 -0.0765661)
(0.355092 0 -0.077002)
(0.354482 0 -0.0772927)
(0.353368 0 -0.0774248)
(0.351708 0 -0.0773852)
(0.34946 0 -0.0771609)
(0.346581 0 -0.0767399)
(0.343024 0 -0.0761107)
(0.348545 0 -0.06731)
(0.34868 0 -0.0677927)
(0.348403 0 -0.0681615)
(0.347678 0 -0.0684025)
(0.346467 0 -0.068504)
(0.34473 0 -0.0684543)
(0.342427 0 -0.0682421)
(0.339513 0 -0.0678566)
(0.335946 0 -0.0672876)
(0.342744 0 -0.0577816)
(0.342749 0 -0.0581839)
(0.342354 0 -0.0584885)
(0.341525 0 -0.0586834)
(0.340226 0 -0.0587585)
(0.338417 0 -0.0587039)
(0.33606 0 -0.05851)
(0.333113 0 -0.0581673)
(0.329531 0 -0.0576671)
(0.337692 0 -0.0472694)
(0.337585 0 -0.0475916)
(0.337089 0 -0.0478332)
(0.33617 0 -0.0479846)
(0.334792 0 -0.0480375)
(0.33292 0 -0.0479837)
(0.330515 0 -0.0478153)
(0.327535 0 -0.0475246)
(0.323938 0 -0.0471045)
(0.333556 0 -0.0355932)
(0.333359 0 -0.0358328)
(0.33278 0 -0.0360109)
(0.331787 0 -0.0361203)
(0.330345 0 -0.0361545)
(0.328421 0 -0.0361076)
(0.325974 0 -0.0359734)
(0.322966 0 -0.0357462)
(0.319356 0 -0.0354207)
(0.330536 0 -0.0225285)
(0.330274 0 -0.0226795)
(0.329634 0 -0.022791)
(0.328587 0 -0.0228581)
(0.327099 0 -0.0228769)
(0.325135 0 -0.0228435)
(0.322658 0 -0.0227539)
(0.319629 0 -0.0226046)
(0.316007 0 -0.0223922)
(0.328882 0 -0.00781644)
(0.328583 0 -0.00786889)
(0.327911 0 -0.00790742)
(0.326834 0 -0.00793032)
(0.325319 0 -0.00793619)
(0.323333 0 -0.00792364)
(0.320838 0 -0.00789136)
(0.317797 0 -0.00783807)
(0.314168 0 -0.00776263)
)
;

boundaryField
{
    inlet
    {
        type            cellMotion;
        value           nonuniform 0();
    }
    outlet
    {
        type            cellMotion;
        value           nonuniform 0();
    }
    flap
    {
        type            cellMotion;
        value           nonuniform 0();
    }
    upperWall
    {
        type            slip;
    }
    lowerWall
    {
        type            slip;
    }
    frontAndBack
    {
        type            empty;
    }
    procBoundary1to0
    {
        type            processor;
        value           nonuniform List<vector> 
18
(
(0.346566 0 -0.0919791)
(0.34612 0 -0.0912316)
(0.34612 0 -0.0912316)
(0.334662 0 -0.0855844)
(0.333488 0 -0.0840339)
(0.331723 0 -0.0819456)
(0.329459 0 -0.0793147)
(0.326807 0 -0.0761405)
(0.323847 0 -0.0724042)
(0.320666 0 -0.0680798)
(0.317357 0 -0.0631336)
(0.314016 0 -0.0575228)
(0.310749 0 -0.0511945)
(0.307668 0 -0.0440829)
(0.304898 0 -0.0361081)
(0.302575 0 -0.0271729)
(0.300851 0 -0.0171594)
(0.299898 0 -0.00593827)
)
;
    }
    procBoundary1to2
    {
        type            processor;
        value           nonuniform List<vector> 
17
(
(0.421169 0 -0.136585)
(0.413293 0 -0.131918)
(0.405123 0 -0.12699)
(0.396736 0 -0.12179)
(0.38821 0 -0.1163)
(0.379622 0 -0.110494)
(0.371054 0 -0.104341)
(0.362588 0 -0.0977982)
(0.354315 0 -0.0908155)
(0.346332 0 -0.0833301)
(0.338748 0 -0.0752656)
(0.331682 0 -0.0665285)
(0.325275 0 -0.0570039)
(0.319686 0 -0.0465507)
(0.315103 0 -0.0349936)
(0.311754 0 -0.0221148)
(0.309914 0 -0.00766431)
)
;
    }
    procBoundary1to3
    {
        type            processor;
        value           nonuniform List<vector> 9((0.29772 0 -0.0712997) (0.308728 0 -0.075968) (0.318295 0 -0.0801222) (0.326416 0 -0.0837145) (0.333078 0 -0.086696) (0.338318 0 -0.08904) (0.34217 0 -0.0907235) (0.344728 0 -0.0917526) (0.346145 0 -0.0921611));
    }
    procBoundary1to4
    {
        type            processor;
        value           nonuniform List<vector> 
30
(
(0.302843 0 -0.0722348)
(0.335443 0 -0.0850537)
(0.335443 0 -0.0850537)
(0.357704 0 -0.0935845)
(0.39001 0 -0.107898)
(0.39001 0 -0.107898)
(0.413206 0 -0.117995)
(0.435128 0 -0.129528)
(0.435128 0 -0.129528)
(0.45283 0 -0.138492)
(0.461205 0 -0.14472)
(0.461205 0 -0.14472)
(0.471589 0 -0.151109)
(0.477522 0 -0.155242)
(0.472057 0 -0.153713)
(0.472057 0 -0.153713)
(0.474636 0 -0.155709)
(0.47776 0 -0.158381)
(0.471519 0 -0.156493)
(0.471519 0 -0.156493)
(0.472715 0 -0.158398)
(0.472574 0 -0.159596)
(0.463301 0 -0.155391)
(0.463301 0 -0.155391)
(0.461168 0 -0.15532)
(0.450412 0 -0.150095)
(0.450412 0 -0.150095)
(0.446529 0 -0.148989)
(0.434273 0 -0.142971)
(0.434273 0 -0.142971)
)
;
    }
}


// ************************************************************************* //
