/*--------------------------------*- C++ -*----------------------------------*\
| =========                 |                                                 |
| \\      /  F ield         | OpenFOAM: The Open Source CFD Toolbox           |
|  \\    /   O peration     | Version:  dev                                   |
|   \\  /    A nd           | Web:      www.OpenFOAM.org                      |
|    \\/     M anipulation  |                                                 |
\*---------------------------------------------------------------------------*/
FoamFile
{
    version     2.0;
    format      ascii;
    class       pointVectorField;
    location    "4.92";
    object      pointDisplacement;
}
// * * * * * * * * * * * * * * * * * * * * * * * * * * * * * * * * * * * * * //

dimensions      [0 1 0 0 0 0 0];

internalField   nonuniform List<vector> 
5828
(
(0 0 0)
(0.0193893 0 0)
(0.0366484 0 0)
(0.0512885 0 0)
(0.0635551 0 0)
(0.0736853 0 0)
(0.0818869 0 0)
(0.0883408 0 0)
(0.093207 0 0)
(0.0966297 0 0)
(0.0987358 0 0)
(0.0996356 0 0)
(0.0994264 0 0)
(0.0981955 0 0)
(0.0960217 0 0)
(0.0929776 0 0)
(0.0891313 0 0)
(0.0845488 0 0)
(0.0792959 0 0)
(0.0734399 0 0)
(0.0670519 0 0)
(0.0602103 0 0)
(0.0530034 0 0)
(0.0455349 0 0)
(0.0379297 0 0)
(0.0303446 0 0)
(0.0229861 0 0)
(0.0161459 0 0)
(0.0102592 0 0)
(0.00611253 0 0)
(0 0 0)
(0 0 0)
(0.0194029 0 -0.000126266)
(0.0366756 0 -0.000240172)
(0.0513289 0 -0.000339821)
(0.0636095 0 -0.000427422)
(0.0737549 0 -0.000504708)
(0.0819735 0 -0.000572853)
(0.0884462 0 -0.000632802)
(0.0933328 0 -0.000684286)
(0.0967783 0 -0.000726777)
(0.0989105 0 -0.000760218)
(0.0998398 0 -0.000783883)
(0.0996641 0 -0.000796694)
(0.0984711 0 -0.000797249)
(0.0963402 0 -0.00078382)
(0.0933446 0 -0.000754335)
(0.0895533 0 -0.000706375)
(0.085033 0 -0.000637176)
(0.0798506 0 -0.000543622)
(0.0740747 0 -0.000422187)
(0.0677778 0 -0.000268916)
(0.0610401 0 -7.95064e-05)
(0.0539521 0 0.000150614)
(0.0466205 0 0.000426161)
(0.0391741 0 0.000751728)
(0.0317734 0 0.00113145)
(0.0246289 0 0.00156841)
(0.0180425 0 0.00206281)
(0.0124796 0 0.00260326)
(0.00875882 0 0.00313002)
(0.00364223 0 0.00386461)
(0 0 0)
(0.0194456 0 -0.000252893)
(0.0367592 0 -0.000481113)
(0.0514523 0 -0.000680856)
(0.0637743 0 -0.000856552)
(0.0739651 0 -0.0010117)
(0.0822344 0 -0.00114859)
(0.0887624 0 -0.00126858)
(0.0937087 0 -0.00137168)
(0.0972219 0 -0.0014575)
(0.0994316 0 -0.00152556)
(0.100449 0 -0.00157437)
(0.100372 0 -0.00160183)
(0.0992916 0 -0.00160522)
(0.097288 0 -0.00158118)
(0.0944364 0 -0.00152569)
(0.0908079 0 -0.00143404)
(0.0864718 0 -0.00130089)
(0.0814979 0 -0.00112025)
(0.0759588 0 -0.000885392)
(0.069931 0 -0.000588749)
(0.0634998 0 -0.000222186)
(0.0567628 0 0.000222782)
(0.0498354 0 0.000754664)
(0.0428601 0 0.00138113)
(0.036013 0 0.00210786)
(0.0295154 0 0.00293696)
(0.0236765 0 0.00386191)
(0.0190077 0 0.00484822)
(0.0164193 0 0.0057633)
(0.0122221 0 0.00698243)
(0 0 0)
(0.0195169 0 -0.000379829)
(0.0368987 0 -0.000722773)
(0.0516571 0 -0.0010231)
(0.0640471 0 -0.00128747)
(0.0743127 0 -0.00152123)
(0.082664 0 -0.00172776)
(0.0892817 0 -0.00190826)
(0.0943282 0 -0.00206364)
(0.0979552 0 -0.00219444)
(0.100293 0 -0.00229927)
(0.101456 0 -0.00237596)
(0.101543 0 -0.00242153)
(0.100649 0 -0.0024321)
(0.0988553 0 -0.0024029)
(0.0962415 0 -0.00232818)
(0.0928818 0 -0.00220125)
(0.088849 0 -0.00201451)
(0.0842184 0 -0.00175972)
(0.0790688 0 -0.00142761)
(0.073483 0 -0.0010077)
(0.0675537 0 -0.000489044)
(0.0613884 0 0.000139404)
(0.0551143 0 0.000888286)
(0.0488969 0 0.00176582)
(0.0429433 0 0.00277516)
(0.0375027 0 0.00391072)
(0.0328888 0 0.00514957)
(0.0295924 0 0.00642454)
(0.0286268 0 0.00752294)
(0.0257453 0 0.00898077)
(0 0 0)
(0.0196166 0 -0.000506841)
(0.0370931 0 -0.000964393)
(0.0519409 0 -0.00136517)
(0.0644245 0 -0.00171842)
(0.0747934 0 -0.00203129)
(0.083257 0 -0.00230847)
(0.0899984 0 -0.00255146)
(0.0951854 0 -0.00276159)
(0.0989709 0 -0.00293989)
(0.101487 0 -0.00308463)
(0.10285 0 -0.0031932)
(0.103165 0 -0.0032619)
(0.102527 0 -0.00328598)
(0.101024 0 -0.00325954)
(0.0987389 0 -0.0031755)
(0.0957505 0 -0.0030256)
(0.0921358 0 -0.00280039)
(0.0879784 0 -0.00249028)
(0.0833666 0 -0.00208458)
(0.0783906 0 -0.00157081)
(0.0731533 0 -0.000936603)
(0.0677768 0 -0.000170483)
(0.0624006 0 0.000738253)
(0.0572033 0 0.0017961)
(0.0524242 0 0.00299879)
(0.0483681 0 0.00432474)
(0.0453916 0 0.00572424)
(0.0439185 0 0.00709788)
(0.044965 0 0.00815907)
(0.0435551 0 0.00965255)
(0 0 0)
(0.0197398 0 -0.000633773)
(0.037333 0 -0.00120567)
(0.0522966 0 -0.00170684)
(0.0649018 0 -0.00214937)
(0.0754026 0 -0.00254201)
(0.0840092 0 -0.00289046)
(0.090907 0 -0.00319749)
(0.0962704 0 -0.00346497)
(0.100255 0 -0.00369374)
(0.102996 0 -0.00388224)
(0.104611 0 -0.0040276)
(0.105212 0 -0.00412574)
(0.104897 0 -0.00417136)
(0.10376 0 -0.00415785)
(0.101889 0 -0.00407727)
(0.0993689 0 -0.00392044)
(0.0962851 0 -0.00367717)
(0.0927273 0 -0.00333681)
(0.0887929 0 -0.00288771)
(0.0845842 0 -0.00231718)
(0.080215 0 -0.00161288)
(0.075829 0 -0.00076539)
(0.0715895 0 0.000232132)
(0.0676788 0 0.00138123)
(0.0643447 0 0.00266849)
(0.0619356 0 0.00405289)
(0.0608905 0 0.00544795)
(0.0616281 0 0.00671896)
(0.064988 0 0.00752891)
(0.0651028 0 0.00889933)
(0 0 0)
(0.0198853 0 -0.000760271)
(0.0376162 0 -0.00144654)
(0.0527211 0 -0.00204865)
(0.065475 0 -0.00258121)
(0.076133 0 -0.00305454)
(0.0849098 0 -0.00347512)
(0.0919963 0 -0.00384749)
(0.097572 0 -0.0041748)
(0.101795 0 -0.00445756)
(0.104803 0 -0.00469438)
(0.106721 0 -0.00488242)
(0.107662 0 -0.00501748)
(0.107732 0 -0.00509415)
(0.107031 0 -0.00510562)
(0.105653 0 -0.00504362)
(0.103689 0 -0.00489843)
(0.10124 0 -0.0046609)
(0.0984013 0 -0.00432001)
(0.0952763 0 -0.00386326)
(0.0919827 0 -0.00327981)
(0.0886492 0 -0.00255923)
(0.0854335 0 -0.00169503)
(0.0825225 0 -0.000687154)
(0.0801312 0 0.000454558)
(0.0785183 0 0.00170414)
(0.078014 0 0.00300504)
(0.0791188 0 0.00423364)
(0.0823201 0 0.00520735)
(0.0881928 0 0.00556649)
(0.0898874 0 0.00667891)
(0 0 0)
(0.0200563 0 -0.000886139)
(0.0379466 0 -0.0016864)
(0.0532129 0 -0.00238954)
(0.0661373 0 -0.00301254)
(0.0769754 0 -0.00356748)
(0.0859491 0 -0.00406226)
(0.0932564 0 -0.00450284)
(0.0990789 0 -0.00489315)
(0.103577 0 -0.00523399)
(0.106894 0 -0.00552441)
(0.109159 0 -0.00576182)
(0.110491 0 -0.00594227)
(0.111004 0 -0.00606071)
(0.110803 0 -0.00611071)
(0.109991 0 -0.00608433)
(0.108668 0 -0.00597221)
(0.106942 0 -0.00576594)
(0.104923 0 -0.00545564)
(0.102724 0 -0.00503036)
(0.100476 0 -0.00448171)
(0.098333 0 -0.00380431)
(0.0964626 0 -0.00299655)
(0.0950587 0 -0.00206472)
(0.0943703 0 -0.00103149)
(0.0946966 0 5.66099e-05)
(0.0963529 0 0.00112529)
(0.0998 0 0.00202871)
(0.105572 0 0.00253355)
(0.114061 0 0.00227017)
(0.117427 0 0.00298651)
(0 0 0)
(0.0202431 0 -0.00101112)
(0.0383159 0 -0.00192495)
(0.0537665 0 -0.00272915)
(0.0668825 0 -0.00344301)
(0.0779247 0 -0.00408066)
(0.0871216 0 -0.00465183)
(0.0946772 0 -0.00516351)
(0.100776 0 -0.00562013)
(0.105583 0 -0.00602343)
(0.109245 0 -0.00637311)
(0.111898 0 -0.0066671)
(0.113667 0 -0.00690194)
(0.114672 0 -0.00707354)
(0.115029 0 -0.00717652)
(0.114847 0 -0.00720381)
(0.114238 0 -0.0071476)
(0.113316 0 -0.00700012)
(0.112204 0 -0.00675371)
(0.111031 0 -0.0064013)
(0.109943 0 -0.00593822)
(0.109109 0 -0.00536422)
(0.108724 0 -0.00468679)
(0.109008 0 -0.00392342)
(0.110204 0 -0.00310574)
(0.112632 0 -0.0022986)
(0.11665 0 -0.00160484)
(0.122615 0 -0.00118089)
(0.131023 0 -0.00129308)
(0.142147 0 -0.00231004)
(0.147233 0 -0.00209783)
(0 0 0)
(0.0204439 0 -0.00113514)
(0.0387209 0 -0.00216237)
(0.0543775 0 -0.00306782)
(0.0677054 0 -0.00387317)
(0.0789732 0 -0.00459471)
(0.0884164 0 -0.00524397)
(0.0962444 0 -0.0058291)
(0.102646 0 -0.00635541)
(0.10779 0 -0.00682566)
(0.111831 0 -0.00724046)
(0.114908 0 -0.0075985)
(0.117151 0 -0.00789687)
(0.118692 0 -0.00813324)
(0.119654 0 -0.00830404)
(0.120156 0 -0.00840334)
(0.120318 0 -0.00842543)
(0.120267 0 -0.00836479)
(0.120136 0 -0.00821689)
(0.120071 0 -0.00797924)
(0.120241 0 -0.00765414)
(0.120827 0 -0.00724697)
(0.122035 0 -0.00677233)
(0.124125 0 -0.00626373)
(0.127364 0 -0.00576815)
(0.132044 0 -0.00535975)
(0.138552 0 -0.00516844)
(0.147182 0 -0.00536414)
(0.158319 0 -0.00622189)
(0.172015 0 -0.00807705)
(0.178821 0 -0.0084506)
(0 0 0)
(0.0206639 0 -0.00125803)
(0.0391608 0 -0.00239782)
(0.0550388 0 -0.00340412)
(0.0685957 0 -0.00430114)
(0.0801076 0 -0.00510738)
(0.0898164 0 -0.00583614)
(0.0979371 0 -0.00649686)
(0.104663 0 -0.00709595)
(0.11017 0 -0.00763743)
(0.114616 0 -0.00812308)
(0.118146 0 -0.00855265)
(0.120899 0 -0.00892462)
(0.123013 0 -0.00923829)
(0.12462 0 -0.00949169)
(0.125847 0 -0.00968105)
(0.126827 0 -0.0098037)
(0.127697 0 -0.00985737)
(0.128602 0 -0.00984163)
(0.129707 0 -0.00975994)
(0.131201 0 -0.00962142)
(0.133289 0 -0.00944219)
(0.136189 0 -0.00924501)
(0.140165 0 -0.00907237)
(0.145534 0 -0.00899336)
(0.152587 0 -0.00909581)
(0.16169 0 -0.00952341)
(0.173103 0 -0.0104576)
(0.187033 0 -0.0121582)
(0.203166 0 -0.014883)
(0.211709 0 -0.0159095)
(0 0 0)
(0.0209 0 -0.00137955)
(0.0396307 0 -0.00263077)
(0.0557439 0 -0.00373733)
(0.0695448 0 -0.00472604)
(0.0813167 0 -0.00561762)
(0.0913079 0 -0.00642715)
(0.0997385 0 -0.00716549)
(0.106808 0 -0.00784028)
(0.112696 0 -0.00845705)
(0.117569 0 -0.00901909)
(0.121577 0 -0.0095275)
(0.124867 0 -0.00998278)
(0.127584 0 -0.0103856)
(0.129864 0 -0.0107355)
(0.131844 0 -0.0110318)
(0.133672 0 -0.0112758)
(0.135495 0 -0.0114694)
(0.137471 0 -0.0116167)
(0.139787 0 -0.0117295)
(0.142644 0 -0.0118237)
(0.146264 0 -0.0119241)
(0.150903 0 -0.0120698)
(0.156828 0 -0.0123126)
(0.164367 0 -0.0127347)
(0.173867 0 -0.0134482)
(0.185644 0 -0.0145987)
(0.199902 0 -0.0163643)
(0.216625 0 -0.0189629)
(0.235005 0 -0.0225317)
(0.245449 0 -0.0242266)
(0 0 0)
(0.02115 0 -0.00149966)
(0.0401269 0 -0.00286124)
(0.0564878 0 -0.0040675)
(0.0705459 0 -0.00514793)
(0.0825917 0 -0.00612548)
(0.0928796 0 -0.00701707)
(0.101635 0 -0.00783504)
(0.109062 0 -0.00858823)
(0.115349 0 -0.00928408)
(0.120667 0 -0.00992773)
(0.12517 0 -0.0105216)
(0.129014 0 -0.0110682)
(0.132349 0 -0.0115701)
(0.135318 0 -0.0120289)
(0.138067 0 -0.0124471)
(0.140757 0 -0.0128313)
(0.143549 0 -0.0131877)
(0.146607 0 -0.0135254)
(0.150138 0 -0.0138641)
(0.154364 0 -0.0142299)
(0.159515 0 -0.0146562)
(0.165866 0 -0.0151939)
(0.173728 0 -0.015915)
(0.183428 0 -0.0169116)
(0.195356 0 -0.018316)
(0.20979 0 -0.0202717)
(0.226886 0 -0.0229418)
(0.246325 0 -0.0264539)
(0.266746 0 -0.0307964)
(0.27966 0 -0.0331485)
(0 0 0)
(0.0214102 0 -0.00161771)
(0.0406431 0 -0.00308798)
(0.0572612 0 -0.00439285)
(0.0715866 0 -0.00556452)
(0.083917 0 -0.00662821)
(0.0945124 0 -0.00760268)
(0.103603 0 -0.00850185)
(0.1114 0 -0.0093364)
(0.118099 0 -0.0101154)
(0.123874 0 -0.0108453)
(0.128884 0 -0.0115304)
(0.133291 0 -0.0121754)
(0.137252 0 -0.012785)
(0.140915 0 -0.0133634)
(0.144437 0 -0.0139172)
(0.14799 0 -0.014457)
(0.151737 0 -0.0149933)
(0.155866 0 -0.0155437)
(0.16059 0 -0.0161339)
(0.166137 0 -0.0167977)
(0.172766 0 -0.0175831)
(0.180754 0 -0.0185499)
(0.190436 0 -0.0197865)
(0.20217 0 -0.0214032)
(0.216347 0 -0.0235438)
(0.233239 0 -0.026354)
(0.252969 0 -0.0299752)
(0.274868 0 -0.0343941)
(0.297165 0 -0.039452)
(0.314065 0 -0.0424473)
(0 0 0)
(0.021678 0 -0.00173331)
(0.0411741 0 -0.00331028)
(0.0580569 0 -0.00471237)
(0.0726575 0 -0.00597449)
(0.0852804 0 -0.00712414)
(0.0961915 0 -0.00818199)
(0.105627 0 -0.00916375)
(0.113804 0 -0.0100824)
(0.120922 0 -0.0109477)
(0.127158 0 -0.0117673)
(0.132679 0 -0.0125485)
(0.13765 0 -0.0132976)
(0.142234 0 -0.0140219)
(0.146585 0 -0.0147281)
(0.150873 0 -0.0154282)
(0.155269 0 -0.0161353)
(0.159943 0 -0.0168644)
(0.165098 0 -0.0176409)
(0.170957 0 -0.0184988)
(0.177745 0 -0.0194776)
(0.185734 0 -0.0206364)
(0.195219 0 -0.0220508)
(0.206518 0 -0.0238155)
(0.219997 0 -0.0260575)
(0.23603 0 -0.0289319)
(0.254858 0 -0.0325891)
(0.276525 0 -0.0371501)
(0.300137 0 -0.0424802)
(0.324046 0 -0.0483333)
(0.348473 0 -0.0519122)
(0 0 0)
(0.021954 0 -0.0018474)
(0.0417214 0 -0.00352994)
(0.0588769 0 -0.0050286)
(0.0737612 0 -0.00638108)
(0.0866855 0 -0.00761715)
(0.0979208 0 -0.00875935)
(0.107709 0 -0.00982531)
(0.116272 0 -0.0108295)
(0.123813 0 -0.0117835)
(0.130515 0 -0.012697)
(0.136549 0 -0.0135787)
(0.142083 0 -0.0144373)
(0.147284 0 -0.0152824)
(0.152314 0 -0.0161242)
(0.157349 0 -0.0169783)
(0.162555 0 -0.0178602)
(0.168118 0 -0.0187921)
(0.174241 0 -0.0198039)
(0.181147 0 -0.0209356)
(0.189074 0 -0.0222376)
(0.198271 0 -0.0237721)
(0.209032 0 -0.025626)
(0.221644 0 -0.0279007)
(0.236439 0 -0.0307318)
(0.2537 0 -0.0342751)
(0.273538 0 -0.0386848)
(0.295773 0 -0.0440985)
(0.319266 0 -0.0504776)
(0.342456 0 -0.058014)
(0.382903 0 -0.0614501)
(0 0 0)
(0.0193893 0 0)
(0.0366484 0 0)
(0.0512885 0 0)
(0.0635551 0 0)
(0.0736853 0 0)
(0.0818869 0 0)
(0.0883408 0 0)
(0.093207 0 0)
(0.0966297 0 0)
(0.0987358 0 0)
(0.0996356 0 0)
(0.0994264 0 0)
(0.0981955 0 0)
(0.0960217 0 0)
(0.0929776 0 0)
(0.0891313 0 0)
(0.0845488 0 0)
(0.0792959 0 0)
(0.0734399 0 0)
(0.0670519 0 0)
(0.0602103 0 0)
(0.0530034 0 0)
(0.0455349 0 0)
(0.0379297 0 0)
(0.0303446 0 0)
(0.0229861 0 0)
(0.0161459 0 0)
(0.0102592 0 0)
(0.00611253 0 0)
(0 0 0)
(0 0 0)
(0.0194029 0 -0.000126266)
(0.0366756 0 -0.000240172)
(0.0513289 0 -0.000339821)
(0.0636095 0 -0.000427422)
(0.0737549 0 -0.000504708)
(0.0819735 0 -0.000572853)
(0.0884462 0 -0.000632802)
(0.0933328 0 -0.000684286)
(0.0967783 0 -0.000726777)
(0.0989105 0 -0.000760218)
(0.0998398 0 -0.000783883)
(0.0996641 0 -0.000796694)
(0.0984711 0 -0.000797249)
(0.0963402 0 -0.00078382)
(0.0933446 0 -0.000754335)
(0.0895533 0 -0.000706375)
(0.085033 0 -0.000637176)
(0.0798506 0 -0.000543622)
(0.0740747 0 -0.000422187)
(0.0677778 0 -0.000268916)
(0.0610401 0 -7.95064e-05)
(0.0539521 0 0.000150614)
(0.0466205 0 0.000426161)
(0.0391741 0 0.000751728)
(0.0317734 0 0.00113145)
(0.0246289 0 0.00156841)
(0.0180425 0 0.00206281)
(0.0124796 0 0.00260326)
(0.00875882 0 0.00313002)
(0.00364223 0 0.00386461)
(0 0 0)
(0.0194456 0 -0.000252893)
(0.0367592 0 -0.000481113)
(0.0514523 0 -0.000680856)
(0.0637743 0 -0.000856552)
(0.0739651 0 -0.0010117)
(0.0822344 0 -0.00114859)
(0.0887624 0 -0.00126858)
(0.0937087 0 -0.00137168)
(0.0972219 0 -0.0014575)
(0.0994316 0 -0.00152556)
(0.100449 0 -0.00157437)
(0.100372 0 -0.00160183)
(0.0992916 0 -0.00160522)
(0.097288 0 -0.00158118)
(0.0944364 0 -0.00152569)
(0.0908079 0 -0.00143404)
(0.0864718 0 -0.00130089)
(0.0814979 0 -0.00112025)
(0.0759588 0 -0.000885392)
(0.069931 0 -0.000588749)
(0.0634998 0 -0.000222186)
(0.0567628 0 0.000222782)
(0.0498354 0 0.000754664)
(0.0428601 0 0.00138113)
(0.036013 0 0.00210786)
(0.0295154 0 0.00293696)
(0.0236765 0 0.00386191)
(0.0190077 0 0.00484822)
(0.0164193 0 0.0057633)
(0.0122221 0 0.00698243)
(0 0 0)
(0.0195169 0 -0.000379829)
(0.0368987 0 -0.000722773)
(0.0516571 0 -0.0010231)
(0.0640471 0 -0.00128747)
(0.0743127 0 -0.00152123)
(0.082664 0 -0.00172776)
(0.0892817 0 -0.00190826)
(0.0943282 0 -0.00206364)
(0.0979552 0 -0.00219444)
(0.100293 0 -0.00229927)
(0.101456 0 -0.00237596)
(0.101543 0 -0.00242153)
(0.100649 0 -0.0024321)
(0.0988553 0 -0.0024029)
(0.0962415 0 -0.00232818)
(0.0928818 0 -0.00220125)
(0.088849 0 -0.00201451)
(0.0842184 0 -0.00175972)
(0.0790688 0 -0.00142761)
(0.073483 0 -0.0010077)
(0.0675537 0 -0.000489044)
(0.0613884 0 0.000139404)
(0.0551143 0 0.000888286)
(0.0488969 0 0.00176582)
(0.0429433 0 0.00277516)
(0.0375027 0 0.00391072)
(0.0328888 0 0.00514957)
(0.0295924 0 0.00642454)
(0.0286268 0 0.00752294)
(0.0257453 0 0.00898077)
(0 0 0)
(0.0196166 0 -0.000506841)
(0.0370931 0 -0.000964393)
(0.0519409 0 -0.00136517)
(0.0644245 0 -0.00171842)
(0.0747934 0 -0.00203129)
(0.083257 0 -0.00230847)
(0.0899984 0 -0.00255146)
(0.0951854 0 -0.00276159)
(0.0989709 0 -0.00293989)
(0.101487 0 -0.00308463)
(0.10285 0 -0.0031932)
(0.103165 0 -0.0032619)
(0.102527 0 -0.00328598)
(0.101024 0 -0.00325954)
(0.0987389 0 -0.0031755)
(0.0957505 0 -0.0030256)
(0.0921358 0 -0.00280039)
(0.0879784 0 -0.00249028)
(0.0833666 0 -0.00208458)
(0.0783906 0 -0.00157081)
(0.0731533 0 -0.000936603)
(0.0677768 0 -0.000170483)
(0.0624006 0 0.000738253)
(0.0572033 0 0.0017961)
(0.0524242 0 0.00299879)
(0.0483681 0 0.00432474)
(0.0453916 0 0.00572424)
(0.0439185 0 0.00709788)
(0.044965 0 0.00815907)
(0.0435551 0 0.00965255)
(0 0 0)
(0.0197398 0 -0.000633773)
(0.037333 0 -0.00120567)
(0.0522966 0 -0.00170684)
(0.0649018 0 -0.00214937)
(0.0754026 0 -0.00254201)
(0.0840092 0 -0.00289046)
(0.090907 0 -0.00319749)
(0.0962704 0 -0.00346497)
(0.100255 0 -0.00369374)
(0.102996 0 -0.00388224)
(0.104611 0 -0.0040276)
(0.105212 0 -0.00412574)
(0.104897 0 -0.00417136)
(0.10376 0 -0.00415785)
(0.101889 0 -0.00407727)
(0.0993689 0 -0.00392044)
(0.0962851 0 -0.00367717)
(0.0927273 0 -0.00333681)
(0.0887929 0 -0.00288771)
(0.0845842 0 -0.00231718)
(0.080215 0 -0.00161288)
(0.075829 0 -0.00076539)
(0.0715895 0 0.000232132)
(0.0676788 0 0.00138123)
(0.0643447 0 0.00266849)
(0.0619356 0 0.00405289)
(0.0608905 0 0.00544795)
(0.0616281 0 0.00671896)
(0.064988 0 0.00752891)
(0.0651028 0 0.00889933)
(0 0 0)
(0.0198853 0 -0.000760271)
(0.0376162 0 -0.00144654)
(0.0527211 0 -0.00204865)
(0.065475 0 -0.00258121)
(0.076133 0 -0.00305454)
(0.0849098 0 -0.00347512)
(0.0919963 0 -0.00384749)
(0.097572 0 -0.0041748)
(0.101795 0 -0.00445756)
(0.104803 0 -0.00469438)
(0.106721 0 -0.00488242)
(0.107662 0 -0.00501748)
(0.107732 0 -0.00509415)
(0.107031 0 -0.00510562)
(0.105653 0 -0.00504362)
(0.103689 0 -0.00489843)
(0.10124 0 -0.0046609)
(0.0984013 0 -0.00432001)
(0.0952763 0 -0.00386326)
(0.0919827 0 -0.00327981)
(0.0886492 0 -0.00255923)
(0.0854335 0 -0.00169503)
(0.0825225 0 -0.000687154)
(0.0801312 0 0.000454558)
(0.0785183 0 0.00170414)
(0.078014 0 0.00300504)
(0.0791188 0 0.00423364)
(0.0823201 0 0.00520735)
(0.0881928 0 0.00556649)
(0.0898874 0 0.00667891)
(0 0 0)
(0.0200563 0 -0.000886139)
(0.0379466 0 -0.0016864)
(0.0532129 0 -0.00238954)
(0.0661373 0 -0.00301254)
(0.0769754 0 -0.00356748)
(0.0859491 0 -0.00406226)
(0.0932564 0 -0.00450284)
(0.0990789 0 -0.00489315)
(0.103577 0 -0.00523399)
(0.106894 0 -0.00552441)
(0.109159 0 -0.00576182)
(0.110491 0 -0.00594227)
(0.111004 0 -0.00606071)
(0.110803 0 -0.00611071)
(0.109991 0 -0.00608433)
(0.108668 0 -0.00597221)
(0.106942 0 -0.00576594)
(0.104923 0 -0.00545564)
(0.102724 0 -0.00503036)
(0.100476 0 -0.00448171)
(0.098333 0 -0.00380431)
(0.0964626 0 -0.00299655)
(0.0950587 0 -0.00206472)
(0.0943703 0 -0.00103149)
(0.0946966 0 5.66099e-05)
(0.0963529 0 0.00112529)
(0.0998 0 0.00202871)
(0.105572 0 0.00253355)
(0.114061 0 0.00227017)
(0.117427 0 0.00298651)
(0 0 0)
(0.0202431 0 -0.00101112)
(0.0383159 0 -0.00192495)
(0.0537665 0 -0.00272915)
(0.0668825 0 -0.00344301)
(0.0779247 0 -0.00408066)
(0.0871216 0 -0.00465183)
(0.0946772 0 -0.00516351)
(0.100776 0 -0.00562013)
(0.105583 0 -0.00602343)
(0.109245 0 -0.00637311)
(0.111898 0 -0.0066671)
(0.113667 0 -0.00690194)
(0.114672 0 -0.00707354)
(0.115029 0 -0.00717652)
(0.114847 0 -0.00720381)
(0.114238 0 -0.0071476)
(0.113316 0 -0.00700012)
(0.112204 0 -0.00675371)
(0.111031 0 -0.0064013)
(0.109943 0 -0.00593822)
(0.109109 0 -0.00536422)
(0.108724 0 -0.00468679)
(0.109008 0 -0.00392342)
(0.110204 0 -0.00310574)
(0.112632 0 -0.0022986)
(0.11665 0 -0.00160484)
(0.122615 0 -0.00118089)
(0.131023 0 -0.00129308)
(0.142147 0 -0.00231004)
(0.147233 0 -0.00209783)
(0 0 0)
(0.0204439 0 -0.00113514)
(0.0387209 0 -0.00216237)
(0.0543775 0 -0.00306782)
(0.0677054 0 -0.00387317)
(0.0789732 0 -0.00459471)
(0.0884164 0 -0.00524397)
(0.0962444 0 -0.0058291)
(0.102646 0 -0.00635541)
(0.10779 0 -0.00682566)
(0.111831 0 -0.00724046)
(0.114908 0 -0.0075985)
(0.117151 0 -0.00789687)
(0.118692 0 -0.00813324)
(0.119654 0 -0.00830404)
(0.120156 0 -0.00840334)
(0.120318 0 -0.00842543)
(0.120267 0 -0.00836479)
(0.120136 0 -0.00821689)
(0.120071 0 -0.00797924)
(0.120241 0 -0.00765414)
(0.120827 0 -0.00724697)
(0.122035 0 -0.00677233)
(0.124125 0 -0.00626373)
(0.127364 0 -0.00576815)
(0.132044 0 -0.00535975)
(0.138552 0 -0.00516844)
(0.147182 0 -0.00536414)
(0.158319 0 -0.00622189)
(0.172015 0 -0.00807705)
(0.178821 0 -0.0084506)
(0 0 0)
(0.0206639 0 -0.00125803)
(0.0391608 0 -0.00239782)
(0.0550388 0 -0.00340412)
(0.0685957 0 -0.00430114)
(0.0801076 0 -0.00510738)
(0.0898164 0 -0.00583614)
(0.0979371 0 -0.00649686)
(0.104663 0 -0.00709595)
(0.11017 0 -0.00763743)
(0.114616 0 -0.00812308)
(0.118146 0 -0.00855265)
(0.120899 0 -0.00892462)
(0.123013 0 -0.00923829)
(0.12462 0 -0.00949169)
(0.125847 0 -0.00968105)
(0.126827 0 -0.0098037)
(0.127697 0 -0.00985737)
(0.128602 0 -0.00984163)
(0.129707 0 -0.00975994)
(0.131201 0 -0.00962142)
(0.133289 0 -0.00944219)
(0.136189 0 -0.00924501)
(0.140165 0 -0.00907237)
(0.145534 0 -0.00899336)
(0.152587 0 -0.00909581)
(0.16169 0 -0.00952341)
(0.173103 0 -0.0104576)
(0.187033 0 -0.0121582)
(0.203166 0 -0.014883)
(0.211709 0 -0.0159095)
(0 0 0)
(0.0209 0 -0.00137955)
(0.0396307 0 -0.00263077)
(0.0557439 0 -0.00373733)
(0.0695448 0 -0.00472604)
(0.0813167 0 -0.00561762)
(0.0913079 0 -0.00642715)
(0.0997385 0 -0.00716549)
(0.106808 0 -0.00784028)
(0.112696 0 -0.00845705)
(0.117569 0 -0.00901909)
(0.121577 0 -0.0095275)
(0.124867 0 -0.00998278)
(0.127584 0 -0.0103856)
(0.129864 0 -0.0107355)
(0.131844 0 -0.0110318)
(0.133672 0 -0.0112758)
(0.135495 0 -0.0114694)
(0.137471 0 -0.0116167)
(0.139787 0 -0.0117295)
(0.142644 0 -0.0118237)
(0.146264 0 -0.0119241)
(0.150903 0 -0.0120698)
(0.156828 0 -0.0123126)
(0.164367 0 -0.0127347)
(0.173867 0 -0.0134482)
(0.185644 0 -0.0145987)
(0.199902 0 -0.0163643)
(0.216625 0 -0.0189629)
(0.235005 0 -0.0225317)
(0.245449 0 -0.0242266)
(0 0 0)
(0.02115 0 -0.00149966)
(0.0401269 0 -0.00286124)
(0.0564878 0 -0.0040675)
(0.0705459 0 -0.00514793)
(0.0825917 0 -0.00612548)
(0.0928796 0 -0.00701707)
(0.101635 0 -0.00783504)
(0.109062 0 -0.00858823)
(0.115349 0 -0.00928408)
(0.120667 0 -0.00992773)
(0.12517 0 -0.0105216)
(0.129014 0 -0.0110682)
(0.132349 0 -0.0115701)
(0.135318 0 -0.0120289)
(0.138067 0 -0.0124471)
(0.140757 0 -0.0128313)
(0.143549 0 -0.0131877)
(0.146607 0 -0.0135254)
(0.150138 0 -0.0138641)
(0.154364 0 -0.0142299)
(0.159515 0 -0.0146562)
(0.165866 0 -0.0151939)
(0.173728 0 -0.015915)
(0.183428 0 -0.0169116)
(0.195356 0 -0.018316)
(0.20979 0 -0.0202717)
(0.226886 0 -0.0229418)
(0.246325 0 -0.0264539)
(0.266746 0 -0.0307964)
(0.27966 0 -0.0331485)
(0 0 0)
(0.0214102 0 -0.00161771)
(0.0406431 0 -0.00308798)
(0.0572612 0 -0.00439285)
(0.0715866 0 -0.00556452)
(0.083917 0 -0.00662821)
(0.0945124 0 -0.00760268)
(0.103603 0 -0.00850185)
(0.1114 0 -0.0093364)
(0.118099 0 -0.0101154)
(0.123874 0 -0.0108453)
(0.128884 0 -0.0115304)
(0.133291 0 -0.0121754)
(0.137252 0 -0.012785)
(0.140915 0 -0.0133634)
(0.144437 0 -0.0139172)
(0.14799 0 -0.014457)
(0.151737 0 -0.0149933)
(0.155866 0 -0.0155437)
(0.16059 0 -0.0161339)
(0.166137 0 -0.0167977)
(0.172766 0 -0.0175831)
(0.180754 0 -0.0185499)
(0.190436 0 -0.0197865)
(0.20217 0 -0.0214032)
(0.216347 0 -0.0235438)
(0.233239 0 -0.026354)
(0.252969 0 -0.0299752)
(0.274868 0 -0.0343941)
(0.297165 0 -0.039452)
(0.314065 0 -0.0424473)
(0 0 0)
(0.021678 0 -0.00173331)
(0.0411741 0 -0.00331028)
(0.0580569 0 -0.00471237)
(0.0726575 0 -0.00597449)
(0.0852804 0 -0.00712414)
(0.0961915 0 -0.00818199)
(0.105627 0 -0.00916375)
(0.113804 0 -0.0100824)
(0.120922 0 -0.0109477)
(0.127158 0 -0.0117673)
(0.132679 0 -0.0125485)
(0.13765 0 -0.0132976)
(0.142234 0 -0.0140219)
(0.146585 0 -0.0147281)
(0.150873 0 -0.0154282)
(0.155269 0 -0.0161353)
(0.159943 0 -0.0168644)
(0.165098 0 -0.0176409)
(0.170957 0 -0.0184988)
(0.177745 0 -0.0194776)
(0.185734 0 -0.0206364)
(0.195219 0 -0.0220508)
(0.206518 0 -0.0238155)
(0.219997 0 -0.0260575)
(0.23603 0 -0.0289319)
(0.254858 0 -0.0325891)
(0.276525 0 -0.0371501)
(0.300137 0 -0.0424802)
(0.324046 0 -0.0483333)
(0.348473 0 -0.0519122)
(0 0 0)
(0.021954 0 -0.0018474)
(0.0417214 0 -0.00352994)
(0.0588769 0 -0.0050286)
(0.0737612 0 -0.00638108)
(0.0866855 0 -0.00761715)
(0.0979208 0 -0.00875935)
(0.107709 0 -0.00982531)
(0.116272 0 -0.0108295)
(0.123813 0 -0.0117835)
(0.130515 0 -0.012697)
(0.136549 0 -0.0135787)
(0.142083 0 -0.0144373)
(0.147284 0 -0.0152824)
(0.152314 0 -0.0161242)
(0.157349 0 -0.0169783)
(0.162555 0 -0.0178602)
(0.168118 0 -0.0187921)
(0.174241 0 -0.0198039)
(0.181147 0 -0.0209356)
(0.189074 0 -0.0222376)
(0.198271 0 -0.0237721)
(0.209032 0 -0.025626)
(0.221644 0 -0.0279007)
(0.236439 0 -0.0307318)
(0.2537 0 -0.0342751)
(0.273538 0 -0.0386848)
(0.295773 0 -0.0440985)
(0.319266 0 -0.0504776)
(0.342456 0 -0.058014)
(0.382903 0 -0.0614501)
(0 0 0)
(0.00919155 0 0)
(0.0193822 0 0)
(0.0366229 0 0)
(0.0598462 0 0)
(0.0866446 0 0)
(0.114112 0 0)
(0.139712 0 0)
(0.161952 0 0)
(0.180356 0 0)
(0.194955 0 0)
(0.206056 0 0)
(0.214084 0 0)
(0.219399 0 0)
(0.222291 0 0)
(0.222991 0 0)
(0.221674 0 0)
(0.218454 0 0)
(0.213394 0 0)
(0.206534 0 0)
(0.197878 0 0)
(0.187373 0 0)
(0.174978 0 0)
(0.160658 0 0)
(0.144339 0 0)
(0.125943 0 0)
(0.105372 0 0)
(0.0825216 0 0)
(0.0573115 0 0)
(0.0296317 0 0)
(0 0 0)
(0.00322368 0 -0.00426776)
(0.0118315 0 -0.00466516)
(0.0222588 0 -0.00536523)
(0.0396487 0 -0.0062411)
(0.0628424 0 -0.00714873)
(0.0894523 0 -0.00794192)
(0.116611 0 -0.00852493)
(0.141831 0 -0.00884224)
(0.163702 0 -0.00892076)
(0.181779 0 -0.0088141)
(0.196098 0 -0.00855776)
(0.206974 0 -0.00821192)
(0.214819 0 -0.00781661)
(0.219986 0 -0.00737279)
(0.222762 0 -0.00689853)
(0.223375 0 -0.00641852)
(0.221987 0 -0.00593794)
(0.218711 0 -0.00547378)
(0.213609 0 -0.00502048)
(0.206714 0 -0.00457437)
(0.198029 0 -0.004148)
(0.187502 0 -0.00373642)
(0.17509 0 -0.00333246)
(0.160757 0 -0.00293602)
(0.144427 0 -0.00254415)
(0.126015 0 -0.00215299)
(0.105429 0 -0.00175981)
(0.0825668 0 -0.00135545)
(0.0573455 0 -0.00093203)
(0.0296523 0 -0.000480371)
(0 0 0)
(0.0109165 0 -0.00860091)
(0.0195629 0 -0.00948871)
(0.0307338 0 -0.0109121)
(0.0485486 0 -0.012641)
(0.0716635 0 -0.0143841)
(0.0977244 0 -0.0158788)
(0.123946 0 -0.0169373)
(0.148057 0 -0.0174874)
(0.168849 0 -0.0175928)
(0.185956 0 -0.0173475)
(0.199448 0 -0.016822)
(0.209656 0 -0.0161201)
(0.216965 0 -0.015317)
(0.221704 0 -0.0144335)
(0.224145 0 -0.0135061)
(0.224498 0 -0.0125766)
(0.222905 0 -0.0116484)
(0.219466 0 -0.0107386)
(0.214238 0 -0.009854)
(0.207239 0 -0.00898917)
(0.198468 0 -0.00815585)
(0.187876 0 -0.00735168)
(0.175413 0 -0.00656293)
(0.161035 0 -0.00578804)
(0.144664 0 -0.00502309)
(0.12621 0 -0.00425758)
(0.105583 0 -0.00348272)
(0.0826873 0 -0.00268389)
(0.0574322 0 -0.0018462)
(0.0297 0 -0.000951778)
(0 0 0)
(0.0231769 0 -0.0132544)
(0.0319884 0 -0.0146621)
(0.0443179 0 -0.0168213)
(0.0627063 0 -0.0193405)
(0.0856351 0 -0.0218025)
(0.110759 0 -0.0238385)
(0.135468 0 -0.0252052)
(0.15784 0 -0.025857)
(0.176935 0 -0.0258912)
(0.192517 0 -0.0254427)
(0.204725 0 -0.0246279)
(0.213891 0 -0.0235685)
(0.220363 0 -0.0223649)
(0.224438 0 -0.0210701)
(0.226356 0 -0.0197259)
(0.226295 0 -0.0183745)
(0.224375 0 -0.0170335)
(0.220678 0 -0.0157154)
(0.215245 0 -0.014431)
(0.208081 0 -0.013181)
(0.199172 0 -0.0119709)
(0.188472 0 -0.0108013)
(0.175923 0 -0.00965633)
(0.161466 0 -0.00852943)
(0.145024 0 -0.00741278)
(0.126507 0 -0.00629163)
(0.105823 0 -0.00515092)
(0.0828736 0 -0.00397186)
(0.0575648 0 -0.00273337)
(0.0297719 0 -0.00140952)
(0 0 0)
(0.0394558 0 -0.0184647)
(0.0486544 0 -0.0203702)
(0.062368 0 -0.0232433)
(0.0813495 0 -0.0264487)
(0.103898 0 -0.0294593)
(0.127662 0 -0.0318267)
(0.150355 0 -0.0333139)
(0.17046 0 -0.0339099)
(0.187367 0 -0.0337604)
(0.201009 0 -0.0330461)
(0.211589 0 -0.0319238)
(0.219426 0 -0.0305189)
(0.224827 0 -0.0289408)
(0.228048 0 -0.0272676)
(0.229285 0 -0.025542)
(0.22868 0 -0.0238014)
(0.226329 0 -0.0220789)
(0.22229 0 -0.0203893)
(0.216583 0 -0.0187417)
(0.2092 0 -0.0171426)
(0.200108 0 -0.0155912)
(0.189258 0 -0.014085)
(0.176587 0 -0.0126101)
(0.162024 0 -0.0111549)
(0.14549 0 -0.00970613)
(0.126891 0 -0.00824668)
(0.106132 0 -0.00675679)
(0.0831125 0 -0.00521319)
(0.0577332 0 -0.00358912)
(0.0298621 0 -0.00185124)
(0 0 0)
(0.0593408 0 -0.0243905)
(0.0690152 0 -0.0267228)
(0.0841701 0 -0.0302534)
(0.103643 0 -0.0340057)
(0.125517 0 -0.0373522)
(0.147484 0 -0.0398091)
(0.167704 0 -0.0412053)
(0.185157 0 -0.0415998)
(0.199548 0 -0.0411753)
(0.210966 0 -0.0401442)
(0.219671 0 -0.0386898)
(0.225973 0 -0.036948)
(0.230136 0 -0.0350268)
(0.232359 0 -0.0330043)
(0.232794 0 -0.0309289)
(0.231549 0 -0.0288419)
(0.228687 0 -0.0267779)
(0.224239 0 -0.0247545)
(0.218203 0 -0.022785)
(0.21055 0 -0.0208723)
(0.201236 0 -0.0190124)
(0.190203 0 -0.0171985)
(0.17738 0 -0.0154176)
(0.162688 0 -0.0136552)
(0.146041 0 -0.0118945)
(0.127344 0 -0.0101152)
(0.106496 0 -0.00829375)
(0.0833921 0 -0.00640253)
(0.0579287 0 -0.00440961)
(0.0299659 0 -0.00227486)
(0 0 0)
(0.0824246 0 -0.0311111)
(0.0925657 0 -0.033771)
(0.109075 0 -0.0378652)
(0.128784 0 -0.0419792)
(0.149567 0 -0.045415)
(0.16929 0 -0.0477144)
(0.186665 0 -0.0488128)
(0.201202 0 -0.0488715)
(0.212869 0 -0.048097)
(0.221895 0 -0.0467131)
(0.228587 0 -0.0449137)
(0.233234 0 -0.042841)
(0.236049 0 -0.0405987)
(0.237179 0 -0.0382578)
(0.236736 0 -0.0358706)
(0.234787 0 -0.0334805)
(0.231362 0 -0.031122)
(0.226457 0 -0.0288105)
(0.220047 0 -0.0265582)
(0.212087 0 -0.0243652)
(0.20252 0 -0.0222262)
(0.191276 0 -0.0201324)
(0.178276 0 -0.0180701)
(0.163435 0 -0.0160227)
(0.14666 0 -0.0139707)
(0.127849 0 -0.0118908)
(0.106899 0 -0.00975626)
(0.0837008 0 -0.00753538)
(0.0581429 0 -0.00519157)
(0.0300786 0 -0.00267864)
(0 0 0)
(0.108314 0 -0.03862)
(0.118855 0 -0.0415092)
(0.136489 0 -0.0460325)
(0.156003 0 -0.0502731)
(0.175146 0 -0.053516)
(0.192186 0 -0.0554189)
(0.206441 0 -0.056048)
(0.217878 0 -0.0556483)
(0.226725 0 -0.0544616)
(0.233314 0 -0.0527097)
(0.237958 0 -0.0505749)
(0.240905 0 -0.0481874)
(0.242322 0 -0.0456446)
(0.242322 0 -0.0430213)
(0.240971 0 -0.0403678)
(0.238288 0 -0.0377216)
(0.234265 0 -0.035113)
(0.228871 0 -0.0325552)
(0.222058 0 -0.0300561)
(0.213764 0 -0.0276152)