/*--------------------------------*- C++ -*----------------------------------*\
| =========                 |                                                 |
| \\      /  F ield         | OpenFOAM: The Open Source CFD Toolbox           |
|  \\    /   O peration     | Version:  dev                                   |
|   \\  /    A nd           | Web:      www.OpenFOAM.org                      |
|    \\/     M anipulation  |                                                 |
\*---------------------------------------------------------------------------*/
FoamFile
{
    version     2.0;
    format      ascii;
    class       surfaceVectorField;
    location    "1.26";
    object      Uf;
}
// * * * * * * * * * * * * * * * * * * * * * * * * * * * * * * * * * * * * * //

dimensions      [0 1 -1 0 0 0 0];

internalField   nonuniform List<vector> 
882
(
(10.2228 -4.68507e-19 3.26066)
(10.3629 -9.01849e-19 3.37562)
(10.3725 -1.33601e-18 3.1986)
(10.4997 4.27619e-19 3.6648)
(10.4982 8.35398e-19 3.47304)
(10.6488 1.28525e-18 3.75399)
(10.5082 4.25283e-19 3.29621)
(10.5081 -4.6812e-19 3.12325)
(10.6482 1.7093e-18 3.56261)
(10.6377 9.05865e-19 3.37725)
(10.8122 4.12114e-19 3.83074)
(10.7885 4.15305e-19 3.63396)
(11.0004 0 4.09306)
(10.9617 3.84793e-19 3.88786)
(11.1558 0 4.13085)
(10.6384 5.79792e-21 3.20485)
(10.6299 3.2099e-20 3.03661)
(10.7793 -4.21224e-19 3.44951)
(10.7614 -4.18972e-19 3.27088)
(10.9401 3.87574e-19 3.69275)
(10.9106 -1.03098e-19 3.5051)
(11.1202 3.85874e-19 3.92817)
(11.0779 -4.57501e-19 3.73437)
(11.3171 -1.83496e-19 4.14773)
(11.2616 0 3.95213)
(11.5264 -3.5652e-19 4.34228)
(11.4585 -5.12975e-21 4.15088)
(11.6643 -3.59515e-19 4.3229)
(10.754 -4.00181e-19 3.10353)
(10.7385 -7.98855e-19 2.94037)
(10.8943 -9.56744e-20 3.32776)
(10.8702 5.02297e-21 3.15597)
(11.0509 -9.72039e-19 3.54854)
(11.0166 -4.75841e-19 3.36974)
(11.2227 -8.5408e-19 3.76055)
(11.1777 -8.73257e-19 3.57725)
(11.4075 1.82533e-19 3.95761)
(11.3518 0 3.77329)
(11.6017 -1.08713e-20 4.13344)
(11.5358 1.8175e-19 3.95233)
(11.7998 1.82835e-19 4.28224)
(11.7263 1.68567e-19 4.10939)
(11.9936 3.44529e-19 4.40226)
(11.9151 -1.65192e-19 4.23994)
(12.1165 -3.41373e-19 4.34595)
(12.1802 1.95345e-19 4.4867)
(10.8559 -3.87963e-19 2.99395)
(10.8344 -1.90999e-20 2.83612)
(10.9944 -3.83703e-19 3.19933)
(10.965 0 3.03434)
(11.1462 -3.72253e-19 3.40009)
(11.1081 3.95436e-19 3.22952)
(11.3102 3.37094e-21 3.59182)
(11.2632 7.73315e-19 3.41786)
(11.4843 0 3.76984)
(11.4285 -9.1072e-20 3.59531)
(11.6653 3.64442e-19 3.9298)
(11.6013 -1.74489e-19 3.75787)
(11.8491 -1.89132e-19 4.06816)
(11.7786 3.58952e-19 3.90223)
(12.0301 -8.69301e-19 4.18314)
(11.9548 -7.15311e-19 4.02579)
(12.1434 -1.82416e-19 4.12895)
(12.2045 5.74974e-19 4.26609)
(10.945 3.79588e-19 2.87767)
(10.9182 -6.57653e-20 2.7252)
(11.081 7.99934e-19 3.06582)
(11.0472 0 2.90736)
(11.228 1.57123e-18 3.24871)
(11.1868 7.10048e-19 3.08569)
(11.3848 6.75634e-19 3.42283)
(11.3361 5.22893e-19 3.25711)
(11.5494 -2.69967e-19 3.58468)
(11.4934 2.56776e-19 3.41861)
(11.7191 -1.76473e-19 3.73126)
(11.6566 -1.81218e-19 3.56724)
(11.8906 -1.90007e-19 3.86035)
(11.8228 1.7039e-19 3.70073)
(12.0602 -5.63188e-21 3.9706)
(11.9879 -1.8436e-19 3.81755)
(12.1654 5.16021e-19 3.9178)
(12.2244 -6.92349e-19 4.05217)
(11.0221 -4.55598e-19 2.75597)
(10.9906 -4.52613e-19 2.60872)
(11.1553 -9.40835e-20 2.92838)
(11.1177 -3.61897e-19 2.77604)
(11.2977 -3.65853e-19 3.09528)
(11.2537 -4.45766e-19 2.93912)
(11.448 9.26232e-20 3.25402)
(11.3976 -4.47655e-19 3.09558)
(11.6043 3.45739e-19 3.40207)
(11.548 3.57725e-19 3.24322)
(11.7643 1.75835e-19 3.53723)
(11.7028 -3.47554e-19 3.37991)
(11.9255 1.72411e-19 3.65804)
(11.8598 3.4909e-19 3.50395)
(12.0851 3.58067e-19 3.76356)
(12.0155 0 3.61439)
(12.1834 1.82625e-19 3.71141)
(12.2405 1.01643e-18 3.84331)
(11.0881 -3.56448e-19 2.62975)
(11.0526 3.60126e-19 2.48751)
(11.2184 -7.23068e-19 2.78777)
(11.1776 5.79468e-20 2.64114)
(11.3563 -5.30025e-19 2.94036)
(11.31 -6.16756e-19 2.79046)
(11.5007 -1.74206e-19 3.08555)
(11.4489 1.65485e-19 2.93357)
(11.6499 -3.5505e-19 3.22156)
(11.593 -1.71198e-19 3.0689)
(11.8018 -1.66796e-19 3.34681)
(11.7408 -1.83163e-19 3.19507)
(11.9544 1.70438e-19 3.46018)
(11.89 6.31209e-21 3.31079)
(12.1056 -1.76786e-19 3.56097)
(12.038 0 3.41527)
(12.1979 1.58909e-19 3.50874)
(12.2534 -2.13806e-19 3.63842)
(11.144 7.8654e-19 2.49973)
(11.1051 4.38513e-19 2.36225)
(11.2715 1.67256e-19 2.64462)
(11.2279 3.59607e-19 2.50324)
(11.4052 9.73518e-20 2.78435)
(11.357 -9.34377e-20 2.64009)
(11.5442 1.67846e-19 2.91742)
(11.4914 1.87016e-19 2.77122)
(11.687 4.53149e-21 3.04263)
(11.63 3.23884e-19 2.89548)
(11.8322 -4.81368e-21 3.15894)
(11.7714 -3.29749e-19 3.01205)
(11.9777 -1.68194e-19 3.2655)
(11.9141 -1.73067e-19 3.1201)
(12.122 3.44761e-19 3.36164)
(12.0557 8.32654e-20 3.2189)
(12.2089 3.41546e-19 3.30864)
(12.2634 -5.6535e-19 3.43647)
(11.1909 3.79744e-22 2.36639)
(11.149 -1.59409e-19 2.23337)
(11.3157 9.20148e-20 2.49925)
(11.2697 7.82028e-20 2.36263)
(11.4457 -1.0315e-21 2.62737)
(11.3958 -1.54521e-19 2.48806)
(11.5799 3.471e-19 2.74954)
(11.5264 -1.69316e-19 2.6084)
(11.7172 -2.06062e-20 2.86492)
(11.66 5.10645e-19 2.7227)
(11.8563 -5.01484e-19 2.97291)
(11.796 -1.88439e-19 2.83044)
(11.9958 8.56156e-20 3.07293)
(11.933 0 2.93113)
(12.1343 8.25351e-20 3.16436)
(12.0692 -7.8683e-20 3.02427)
(12.2168 0 3.11001)
(12.2705 9.64077e-20 3.23633)
(11.1127 -5.03543e-20 2.10524)
(11.0719 -1.87725e-19 1.98044)
(11.2297 -7.96447e-20 2.23003)
(11.1853 -9.22501e-20 2.10117)
(11.352 -1.74855e-19 2.35175)
(11.304 1.65751e-19 2.21945)
(11.4788 -3.27096e-19 2.46924)
(11.4274 -3.35188e-19 2.33431)
(11.6089 0 2.58155)
(11.5545 0 2.44477)
(11.7415 3.36191e-19 2.68801)
(11.6841 -1.59911e-19 2.55004)
(11.8754 3.26017e-19 2.78819)
(11.8154 1.74547e-19 2.64964)
(12.0097 -1.68476e-19 2.88177)
(11.9476 -8.03897e-20 2.74328)
(12.1432 -1.62606e-19 2.96829)
(12.079 3.12358e-19 2.83069)
(12.2219 -3.28217e-19 2.9121)
(12.275 0 3.03705)
(11.1462 -2.308e-19 1.97671)
(11.1031 -5.57542e-19 1.8556)
(11.2615 1.59634e-19 2.09082)
(11.2152 3.19367e-19 1.96591)
(11.3815 8.78534e-22 2.20211)
(11.3319 0 2.07385)
(11.5053 8.54334e-22 2.30977)
(11.4527 -3.06985e-19 2.17882)
(11.6319 -1.64247e-19 2.41301)
(11.5766 3.15138e-19 2.28011)
(11.7604 -3.24523e-19 2.51123)
(11.7026 -1.63458e-19 2.37698)
(11.8901 -2.42738e-19 2.60408)
(11.8301 -1.64615e-19 2.46897)
(12.0199 4.13456e-19 2.69136)
(11.9582 -3.15931e-19 2.55586)
(12.1491 1.43222e-19 2.77278)
(12.0856 7.32429e-19 2.63753)
(12.2243 -4.16079e-19 2.71432)
(12.2771 -2.20147e-19 2.83802)
(11.1739 7.21981e-21 1.84494)
(11.129 -3.05361e-19 1.72729)
(11.2876 1.5537e-19 1.949)
(11.2399 1.04525e-20 1.82782)
(11.4052 -3.16041e-19 2.05048)
(11.3546 1.52247e-19 1.92609)
(11.5261 1.64171e-20 2.14889)
(11.4727 -6.1635e-19 2.02175)
(11.6495 3.14957e-19 2.2436)
(11.5936 6.30977e-19 2.11432)
(11.7746 4.70873e-22 2.33405)
(11.7164 1.54034e-19 2.20316)
(11.9005 -2.40038e-19 2.41989)
(11.8405 -3.05294e-19 2.28785)
(12.0266 1.48365e-20 2.50102)
(11.965 7.29156e-20 2.3682)
(12.1522 1.56903e-19 2.57722)
(12.0891 5.54486e-19 2.44416)
(12.2242 -1.01331e-20 2.51611)
(12.2768 -7.01933e-21 2.63868)
(11.1966 -3.01992e-19 1.7101)
(11.15 -1.52167e-19 1.59573)
(11.3087 7.32567e-21 1.80477)
(11.2596 -1.53066e-19 1.68704)
(11.4241 -1.56647e-19 1.8971)
(11.3724 3.03212e-19 1.77634)
(11.5423 1.6162e-20 1.98673)
(11.4881 2.8208e-19 1.86324)
(11.6626 4.65015e-19 2.07323)
(11.6062 8.96177e-20 1.9474)
(11.7845 -1.60473e-19 2.15613)
(11.7261 4.54856e-19 2.02841)
(11.9072 1.65022e-20 2.23514)
(11.847 -3.18181e-19 2.10596)
(12.03 6.27813e-19 2.31018)
(11.9685 9.01406e-20 2.17987)
(12.1525 3.84509e-19 2.38107)
(12.0896 3.15598e-19 2.25008)
(12.2216 3.50655e-20 2.317)
(12.2742 3.80881e-20 2.43855)
(11.2145 8.18928e-22 1.57241)
(11.1664 2.82917e-19 1.46129)
(11.325 1.50972e-19 1.65822)
(11.2745 -1.43438e-19 1.54379)
(11.4383 7.53481e-19 1.74195)
(11.3855 7.03548e-21 1.62452)
(11.554 3.57277e-19 1.82324)
(11.4991 1.74272e-19 1.70308)
(11.6716 7.98274e-20 1.90177)
(11.6147 -8.42328e-20 1.77917)
(11.7906 2.91396e-19 1.97726)
(11.7319 1.43777e-20 1.85257)
(11.9104 -2.41578e-19 2.04952)
(11.8501 2.91969e-19 1.92308)
(12.0303 -2.2941e-19 2.11846)
(11.9688 -6.04289e-19 1.99055)
(12.15 -3.95936e-20 2.18391)
(12.0872 2.6367e-19 2.05494)
(12.2164 -2.9974e-19 2.11662)
(12.2692 -1.15584e-19 2.23721)
(11.2279 1.34685e-19 1.43221)
(11.1786 1.47397e-20 1.32437)
(11.3367 -2.91154e-19 1.50946)
(11.2851 2.67885e-19 1.39825)
(11.4481 -5.87427e-19 1.58489)
(11.3944 -7.07143e-19 1.47061)
(11.5616 -2.79352e-19 1.65813)
(11.5059 -2.29707e-19 1.54106)
(11.6768 -1.51201e-19 1.72896)
(11.6194 1.51835e-19 1.60937)
(11.7932 1.54127e-20 1.79721)
(11.7341 -2.98307e-19 1.67538)
(11.9104 -8.20087e-20 1.86277)
(11.8498 3.05039e-19 1.73895)
(12.0277 -9.64089e-20 1.92556)
(11.966 -4.50521e-19 1.79999)
(12.1449 -5.48485e-21 1.98542)
(12.0819 5.38503e-20 1.85845)
(12.2086 -6.81309e-21 1.91471)
(12.2617 6.02764e-19 2.03436)
(11.2373 1.51718e-19 1.28977)
(11.1869 -1.66214e-20 1.18513)
(11.3444 -1.60063e-19 1.35861)
(11.2919 -1.81104e-19 1.25055)
(11.454 -3.3936e-19 1.42587)
(11.3994 -3.00248e-19 1.31467)
(11.5654 2.13522e-19 1.49126)
(11.5091 3.56749e-19 1.37719)
(11.6784 1.92776e-22 1.5546)
(11.6203 6.95469e-20 1.4379)
(11.7925 0 1.61577)
(11.7329 0 1.49666)
(11.9072 -7.45432e-20 1.67467)
(11.8462 7.03125e-20 1.55336)
(12.0221 -2.95153e-19 1.73126)
(11.9601 -3.53082e-21 1.60796)
(12.137 4.81986e-20 1.78541)
(12.0738 -2.58139e-19 1.66042)
(12.1981 3.39319e-19 1.71108)
(12.2516 1.52395e-19 1.82982)
(11.243 -3.58666e-19 1.14507)
(11.1916 4.69291e-19 1.04359)
(11.3485 -3.25182e-19 1.20566)
(11.295 -2.97306e-19 1.10075)
(11.4562 4.15394e-19 1.2649)
(11.4008 2.78379e-19 1.1568)
(11.5656 2.0862e-19 1.32259)
(11.5085 -1.95359e-19 1.21151)
(11.6765 6.92893e-20 1.37856)
(11.6178 7.12617e-20 1.26471)
(11.7883 7.22943e-20 1.43271)
(11.7282 6.80441e-20 1.31628)
(11.9008 1.43131e-19 1.48497)
(11.8394 3.78477e-20 1.36615)
(12.0136 3.40963e-20 1.53531)
(11.9511 -1.67292e-19 1.41428)
(12.1263 3.86058e-20 1.58361)
(12.0628 -6.73512e-20 1.46062)
(12.1848 3.22545e-19 1.50552)
(12.2388 6.93549e-20 1.62333)
(11.245 5.32176e-19 0.998277)
(11.1927 1.38071e-19 0.899819)
(11.3489 3.23305e-19 1.05077)
(11.2946 3.36216e-19 0.948861)
(11.4548 -3.49603e-19 1.10214)
(11.3987 -2.60207e-19 0.996956)
(11.5623 -3.36353e-19 1.15222)
(11.5046 -3.42562e-19 1.04394)
(11.6711 6.99757e-20 1.20088)
(11.612 3.55073e-21 1.0897)
(11.7809 3.26148e-20 1.24803)
(11.7204 2.7078e-19 1.13412)
(11.8913 -2.81326e-19 1.29363)
(11.8296 -1.02286e-19 1.17714)
(12.002 -2.71364e-19 1.33764)
(11.9392 -2.80578e-19 1.21873)
(12.1127 2.21688e-19 1.37997)
(12.0489 2.49503e-21 1.25887)
(12.1689 2.55461e-19 1.29787)
(12.2233 1.66006e-19 1.41487)
(11.2437 -6.34154e-20 0.849136)
(11.1905 -2.49119e-19 0.753898)
(11.3459 -2.63944e-19 0.893647)
(11.291 4.34524e-19 0.794894)
(11.45 -2.52998e-19 0.937224)
(11.3934 -5.16787e-19 0.835112)
(11.5557 7.0894e-21 0.979747)
(11.4975 2.55604e-19 0.874433)
(11.6627 2.10152e-19 1.02112)
(11.603 -5.08542e-19 0.912759)
(11.7705 1.3187e-19 1.06126)
(11.7095 2.10052e-19 0.950016)
(11.8789 -1.01628e-19 1.10015)
(11.8167 2.26285e-19 0.986153)
(11.9876 1.26914e-21 1.13773)
(11.9244 -3.47241e-20 1.02114)
(12.0965 3.39703e-20 1.17396)
(12.0322 1.84218e-20 1.05495)
(12.1502 0 1.08788)
(12.2051 6.25332e-19 1.20388)
(11.2392 2.6312e-19 0.698334)
(11.1855 -2.49676e-19 0.605888)
(11.3398 1.74387e-19 0.734902)
(11.2844 3.86678e-19 0.638867)
(11.4422 6.53492e-21 0.770726)
(11.3851 -2.60232e-19 0.671234)
(11.5461 -2.74984e-19 0.805713)
(11.4875 2.59462e-19 0.7029)
(11.6512 -5.08576e-19 0.839791)
(11.5911 -7.7469e-19 0.733791)
(11.7571 3.07218e-19 0.872906)
(11.6958 6.88759e-21 0.763852)
(11.8636 2.95114e-19 0.905023)
(11.8011 5.59235e-19 0.793045)
(11.9705 -1.70617e-20 0.936122)
(11.907 0 0.821347)
(12.0774 -1.65615e-20 0.966143)
(12.013 2.39327e-19 0.848744)
(12.1289 -2.78802e-19 0.875481)
(12.1842 0 0.990999)
(11.232 -1.22748e-19 0.544626)
(11.1779 -3.32026e-20 0.455843)
(11.331 -6.05414e-20 0.573257)
(11.2751 5.44096e-20 0.480791)
(11.4317 0 0.601314)
(11.3741 -1.43843e-21 0.505285)
(11.5338 -2.54724e-19 0.628729)
(11.4747 -1.20566e-19 0.529261)
(11.637 -2.44134e-19 0.655447)
(11.5765 -3.75168e-19 0.552666)
(11.7411 2.66244e-19 0.681429)
(11.6793 1.26331e-19 0.575461)
(11.8458 2.55487e-19 0.706647)
(11.7828 2.63178e-19 0.597615)
(11.9508 2.63986e-19 0.731085)
(11.8867 0 0.619108)
(12.056 -2.78025e-20 0.754692)
(11.9908 3.06679e-20 0.639926)
(12.1048 -1.64574e-20 0.660251)
(12.1611 -1.86165e-19 0.774254)
(11.2222 1.49252e-19 0.390462)
(11.1679 2.32872e-21 0.303867)
(11.3195 1.15351e-19 0.411148)
(11.2634 1.77658e-19 0.32074)
(11.4184 -1.25597e-19 0.43144)
(11.3607 1.29078e-20 0.337312)
(11.5187 -2.44481e-19 0.451291)
(11.4594 -2.39879e-19 0.353539)
(11.62 6.27769e-21 0.470662)
(11.5593 -1.32091e-20 0.369388)
(11.7221 1.23039e-19 0.489526)
(11.6602 1.19394e-19 0.384836)
(11.8249 0 0.507864)
(11.7618 1.11325e-19 0.399863)
(11.928 -2.40612e-19 0.525664)
(11.8638 -2.41314e-19 0.414463)
(12.0312 4.26493e-20 0.542888)
(11.9661 -1.18482e-19 0.42863)
(12.0781 2.79664e-19 0.442507)
(12.1343 1.80975e-19 0.557181)
(11.2103 3.14246e-20 0.231562)
(11.0644 -2.84105e-20 0.150491)
(11.3058 7.22158e-20 0.244107)
(11.1569 5.90633e-20 0.159185)
(11.4029 -1.0464e-19 0.256396)
(11.2513 -2.70855e-20 0.167715)
(11.5012 -1.56305e-21 0.268403)
(11.3473 -6.24063e-20 0.17606)
(11.6007 1.0332e-19 0.280108)
(11.4445 9.25561e-20 0.184205)
(11.701 1.07321e-19 0.291498)
(11.5428 -4.36246e-22 0.192136)
(11.8019 -1.37229e-19 0.302565)
(11.6419 1.22093e-19 0.199845)
(11.9031 -1.15405e-19 0.313307)
(11.7415 -2.48942e-19 0.207325)
(12.0046 1.22693e-19 0.323707)
(11.8415 6.7429e-20 0.214572)
(11.951 6.03753e-20 0.221663)
(12.106 2.28113e-21 0.33232)
(11.0094 0 0.0769141)
(11.1008 -4.31793e-20 0.0815495)
(11.194 1.64021e-20 0.0860922)
(11.2887 3.44579e-20 0.0905303)
(11.3848 -1.42248e-20 0.0948542)
(11.4818 1.47404e-20 0.0990567)
(11.5796 7.2984e-21 0.103132)
(11.6779 -6.07651e-20 0.107075)
(11.7766 2.50431e-21 0.110876)
(11.8754 3.80719e-20 0.113987)
(12.2266 7.43785e-19 4.39325)
(12.2915 -7.96549e-20 4.30151)
(12.2466 1.26641e-20 4.17596)
(12.3746 4.9113e-19 4.33666)
(12.3408 -1.24864e-18 4.21508)
(12.4184 1.74316e-18 4.24978)
(12.4568 1.25319e-18 4.37035)
(12.3063 -1.189e-18 4.08816)
(12.2628 -2.66401e-20 3.9644)
(12.3849 -6.66867e-21 4.12517)
(12.3519 -1.1486e-18 4.00451)
(12.4257 9.47916e-20 4.04108)
(12.4628 6.11956e-19 4.16258)
(12.3181 7.30403e-21 3.8794)
(12.2757 5.20313e-19 3.75723)
(12.3929 -1.06096e-18 3.91755)
(12.3605 -6.02901e-19 3.79769)
(12.4312 -1.141e-18 3.83532)
(12.4673 -2.29103e-19 3.95748)
(12.3273 -1.10103e-19 3.67414)
(12.2858 -6.58549e-19 3.5534)
(12.3989 -6.77222e-19 3.71269)
(12.367 -3.69821e-20 3.59362)
(12.4349 -6.13911e-19 3.63157)
(12.4703 -4.21005e-19 3.75408)
(12.3342 -5.83794e-19 3.47146)
(12.2933 -5.25438e-19 3.35187)
(12.4031 3.57181e-20 3.5098)
(12.3714 0 3.39139)
(12.4369 1.38133e-21 3.42906)
(12.4719 4.76516e-20 3.55171)
(12.3387 7.14508e-20 3.27031)
(12.2981 7.29834e-20 3.1516)
(12.4053 -3.51175e-20 3.30799)
(12.3736 -5.59733e-19 3.19007)
(12.4371 1.07084e-18 3.227)
(12.4719 -2.31561e-19 3.3497)
(12.3409 -5.71342e-19 3.0698)
(12.3005 0 2.95182)
(12.4055 5.49307e-19 3.10644)
(12.3739 -2.10023e-20 2.98891)
(12.4357 6.17506e-19 3.0247)
(12.4704 1.46427e-18 3.14736)
(12.341 5.63057e-19 2.86929)
(12.3007 3.43522e-20 2.75194)
(12.404 3.97372e-20 2.90455)
(12.3722 5.48173e-19 2.78736)
(12.4324 -2.50685e-20 2.82167)
(12.4672 -6.94794e-19 2.9442)
(12.3391 1.70732e-20 2.66828)
(12.2987 2.8717e-20 2.55147)
(12.4006 4.89836e-19 2.70187)
(12.3684 -5.58168e-19 2.58497)
(12.4274 5.1417e-19 2.61752)
(12.4624 6.80162e-20 2.73983)
(12.335 -5.60007e-19 2.46633)
(12.2943 -7.29001e-20 2.34996)
(12.3952 -5.48096e-19 2.49799)
(12.3625 -5.54177e-19 2.38135)
(12.4203 -5.1847e-19 2.4119)
(12.4558 2.52143e-20 2.53393)
(12.3286 -6.67488e-20 2.26304)
(12.2875 5.03907e-19 2.14705)
(12.3876 -5.24395e-19 2.29259)
(12.3544 -4.98916e-19 2.17616)
(12.4111 -5.27188e-19 2.20452)
(12.4471 -1.61706e-19 2.32621)
(12.3199 6.81227e-20 2.05812)
(12.2783 5.70572e-19 1.94251)
(12.3779 -5.01237e-19 2.08538)
(12.3439 -1.01654e-18 1.96918)
(12.3996 1.02306e-18 1.99519)
(12.4363 2.22992e-19 2.11647)
(12.3087 -5.29795e-19 1.8514)
(12.2664 -7.3498e-22 1.73613)
(12.3656 5.19829e-19 1.87624)
(12.3309 -5.18098e-19 1.76024)
(12.3856 1.01467e-18 1.78376)
(12.4231 1.56874e-18 1.90459)
(12.2948 1.57485e-20 1.64265)
(12.2519 1.60382e-20 1.52775)
(12.3508 -3.10866e-20 1.66493)
(12.3152 -4.90716e-19 1.54918)
(12.3691 4.65932e-19 1.57009)
(12.4073 -4.16126e-20 1.69038)
(12.2783 -4.99307e-19 1.43186)
(12.2347 4.59699e-19 1.31716)
(12.3334 6.90054e-21 1.45146)
(12.297 -1.44492e-18 1.33581)
(12.35 5.14582e-19 1.35399)
(12.389 6.75087e-19 1.47387)
(12.2592 -4.94447e-19 1.21844)
(12.2148 4.72767e-19 1.10422)
(12.3134 -9.50013e-19 1.23526)
(12.2761 -5.14449e-19 1.11999)
(12.3283 2.66648e-22 1.13537)
(12.3682 1.81201e-19 1.2545)
(12.2374 4.61033e-19 1.00309)
(12.1924 0 0.888643)
(12.2908 4.56074e-19 1.01706)
(12.2527 9.14767e-19 0.901426)
(12.304 -4.44479e-19 0.913875)
(12.3447 -1.71229e-19 1.03304)
(12.2133 4.56279e-19 0.783753)
(12.1672 0 0.670469)
(12.2658 6.55106e-21 0.794731)
(12.2264 4.72335e-19 0.680203)
(12.277 -4.64878e-19 0.689699)
(12.3188 -6.10637e-19 0.807294)
(12.1857 1.0442e-20 0.56411)
(12.1393 1.67164e-21 0.449098)
(12.2374 6.23839e-23 0.572107)
(12.1975 2.18788e-19 0.45565)
(12.2471 -2.18745e-19 0.461996)
(12.2897 1.54402e-19 0.581248)
(12.1563 2.13824e-19 0.336442)
(12.0109 9.57228e-23 0.225482)
(12.2069 -4.64988e-22 0.341172)
(12.0678 2.14871e-19 0.228752)
(12.1165 -1.12105e-19 0.231979)
(12.2582 -2.83771e-19 0.346596)
(11.9245 -1.65562e-21 0.115446)
(11.9741 1.04501e-19 0.117119)
(12.0242 1.0132e-19 0.119074)
(12.5512 -6.56157e-19 4.30525)
(12.6116 -2.37609e-19 4.22643)
(12.5527 4.02151e-19 4.10299)
(12.7561 2.4159e-19 4.27308)
(12.6824 7.89808e-20 4.15739)
(12.8915 5.4607e-19 4.30933)
(12.8213 -2.87137e-19 4.20379)
(12.9558 2.95948e-19 4.24224)
(12.6112 7.31832e-19 4.0289)
(12.5535 1.30314e-18 3.90158)
(12.7532 -4.56057e-19 4.08497)
(12.68 -3.9589e-19 3.96263)
(12.8898 -5.50492e-19 4.13354)
(12.8178 -5.31131e-19 4.01818)
(13.0191 5.31195e-19 4.17614)
(12.9545 -3.04615e-19 4.06815)
(13.1394 2.98821e-19 4.21454)
(13.0833 8.24734e-19 4.11365)
(13.2031 -5.28257e-19 4.15641)
(12.61 1.93205e-19 3.83045)
(12.5532 6.57656e-19 3.70033)
(12.7497 -4.735e-19 3.89281)
(12.677 -4.00434e-19 3.76563)
(12.8864 -2.80745e-19 3.94968)
(12.8134 0 3.8272)
(13.0189 -2.23965e-20 4.00234)
(12.9511 -2.8548e-19 3.88483)
(13.146 8.82435e-22 4.05232)
(13.0839 5.65708e-19 3.93938)
(13.267 6.62615e-21 4.10118)
(13.211 -5.30955e-19 3.99232)
(13.381 5.44104e-19 4.15044)
(13.3329 2.61529e-19 4.04521)
(13.4493 2.4446e-19 4.09949)
(12.6079 7.62843e-20 3.6308)
(12.5518 -2.73191e-19 3.49877)
(12.7454 7.73662e-20 3.69705)
(12.6731 3.46843e-19 3.56635)
(12.8817 0 3.75929)
(12.8081 -2.88086e-19 3.63154)
(13.0161 3.02441e-19 3.81855)
(12.9462 2.84495e-19 3.69401)
(13.1477 4.03299e-20 3.8761)
(13.0814 2.91097e-19 3.75436)
(13.276 -2.84117e-19 3.93327)
(13.2134 -2.70409e-19 3.81379)
(13.4007 -4.5514e-20 3.99141)
(13.3429 -1.86251e-22 3.87366)
(13.5214 1.97765e-19 4.05184)
(13.4699 -3.03654e-20 3.93524)
(13.5943 2.32215e-19 3.99975)
(12.6048 -1.40156e-20 3.42971)
(12.5492 -3.24868e-19 3.2964)
(12.7402 -1.58603e-20 3.49789)
(12.6683 -5.85583e-19 3.36468)
(12.8759 -5.24405e-21 3.56322)
(12.8019 8.62651e-19 3.4316)
(13.0114 2.72864e-19 3.62648)
(12.9399 -2.72381e-19 3.49671)
(13.146 -1.69842e-20 3.68869)
(13.0767 -2.54855e-20 3.5604)
(13.2794 1.5731e-20 3.75096)
(13.2121 0 3.62364)
(13.4115 1.59173e-20 3.81441)
(13.3469 4.86002e-19 3.68754)
(13.5422 0 3.88022)
(13.4813 -2.1716e-19 3.75318)
(13.6154 -4.53262e-19 3.82166)
(12.6005 -9.04664e-19 3.22685)
(12.5452 -4.62664e-20 3.09279)
(12.734 2.90775e-19 3.29543)
(12.6623 -9.18963e-19 3.16049)
(12.8689 6.08754e-19 3.36203)
(12.7945 1.18568e-18 3.2276)
(13.0049 -5.82736e-19 3.42727)
(12.9322 -5.77597e-19 3.29361)
(13.1415 -8.55162e-21 3.49192)
(13.07 -5.22302e-19 3.35872)
(13.2786 4.73032e-19 3.55688)
(13.2077 1.01636e-18 3.42371)
(13.416 2.60278e-19 3.62307)
(13.3463 4.83534e-19 3.48945)
(13.5538 -6.77704e-19 3.69146)
(13.486 -2.65565e-19 3.55683)
(13.6271 -9.21226e-19 3.62678)
(12.5949 -3.73878e-20 3.02198)
(12.5398 -9.1002e-19 2.88759)
(12.7266 -3.80091e-20 3.08969)
(12.6551 5.90228e-19 2.95367)
(12.8607 0 3.15611)
(12.7859 -5.58803e-19 3.01973)
(12.9968 -5.16592e-19 3.22169)
(12.923 5.50642e-19 3.08522)
(13.1347 4.98478e-19 3.28704)
(13.0613 -5.26534e-19 3.15023)
(13.2743 1.03757e-18 3.35285)
(13.2005 1.53808e-18 3.21533)
(13.4155 -4.1483e-20 3.41985)
(13.3418 -3.4193e-20 3.28122)
(13.5585 -5.02748e-19 3.48883)
(13.4853 -4.25196e-20 3.34862)
(13.6314 -9.19367e-19 3.41826)
(12.5879 -3.08786e-19 2.8149)
(12.5328 -8.95056e-19 2.68055)
(12.7179 7.93981e-20 2.8807)
(12.6465 6.07704e-19 2.74413)
(12.851 -1.32131e-20 2.94574)
(12.7759 -5.72675e-19 2.80812)
(12.987 5.61429e-19 3.01035)
(12.9122 5.64405e-19 2.87195)
(13.1256 4.98859e-19 3.075)
(13.0505 -5.09939e-19 2.93559)
(13.2668 4.69918e-19 3.1402)
(13.1907 5.2123e-19 2.9995)
(13.4107 -3.51549e-20 3.20652)
(13.3338 4.54163e-19 3.06421)
(13.5574 -4.5291e-19 3.2746)
(13.48 -2.72487e-20 3.13028)
(13.6297 -4.63169e-19 3.19829)
(12.5793 2.00087e-21 2.60546)
(12.524 8.45381e-19 2.47144)
(12.7077 -3.69488e-20 2.6685)
(12.6361 -5.74724e-19 2.5318)
(12.8397 0 2.73118)
(12.7641 -5.42959e-19 2.59288)
(12.9752 -5.12582e-19 2.79374)
(12.8996 1.05721e-18 2.6541)
(13.1141 -5.07834e-19 2.85652)
(13.0376 -1.54061e-18 2.71537)
(13.2564 5.06311e-19 2.91993)
(13.1783 5.08418e-19 2.77701)
(13.4021 4.71816e-19 2.9844)
(13.3224 5.03557e-19 2.83945)
(13.5513 -2.91981e-20 3.0504)
(13.4705 -1.10975e-21 2.90312)
(13.6227 0 2.96846)
(12.5689 2.94203e-19 2.39352)
(12.5132 1.15466e-18 2.26009)
(12.6957 -1.09423e-18 2.4531)
(12.6238 -5.68836e-19 2.31664)
(12.8265 5.11024e-19 2.51262)
(12.7504 -5.56861e-19 2.37413)
(12.9613 5.55897e-20 2.57224)
(12.8848 1.59876e-18 2.43195)
(13.1001 -5.40589e-19 2.63222)
(13.0224 -1.05525e-18 2.48999)
(13.2429 5.05603e-19 2.69287)
(13.163 1.87556e-20 2.54849)
(13.3897 2.84231e-20 2.75451)
(13.3077 0 2.60777)
(13.5407 2.88285e-20 2.8175)
(13.4569 4.41042e-19 2.66815)
(13.6107 1.50319e-20 2.72999)
(12.5563 3.16876e-19 2.17899)
(12.5002 6.12827e-19 2.04637)
(12.6816 -1.78622e-20 2.23453)
(12.6094 -5.52954e-19 2.09863)
(12.8112 5.16834e-19 2.29021)
(12.7345 5.07968e-19 2.15194)
(12.9451 5.13359e-19 2.34616)
(12.8677 1.17033e-20 2.20573)
(13.0835 -5.03426e-19 2.40257)
(13.0045 -1.15847e-20 2.25985)
(13.2263 -4.99803e-19 2.45966)
(13.1448 -5.00724e-19 2.31447)
(13.3736 4.14423e-19 2.51767)
(13.2896 -4.43615e-19 2.36984)
(13.5257 4.35577e-19 2.57686)
(13.4393 8.80939e-19 2.42621)
(13.5941 -1.07963e-20 2.48384)
(12.5415 -2.45439e-19 1.96184)
(12.4848 2.84671e-19 1.83021)
(12.6651 -3.63448e-20 2.01285)
(12.5925 -5.32412e-19 1.87776)
(12.7934 -2.3611e-21 2.06416)
(12.7162 1.05222e-18 1.92641)
(12.9264 -5.27173e-19 2.11583)
(12.8481 -1.04388e-18 1.97562)
(13.064 1.85556e-21 2.16801)
(12.9839 4.74267e-19 2.02523)
(13.2065 -4.4417e-19 2.22087)
(13.1236 -4.68732e-19 2.07535)
(13.3539 7.6099e-21 2.27457)
(13.2681 -9.12535e-19 2.12619)
(13.5064 4.41114e-19 2.32932)
(13.4178 4.94478e-19 2.17793)
(13.573 3.92722e-19 2.23075)
(12.5242 1.68743e-20 1.74195)
(12.4669 0 1.61149)
(12.6462 5.50402e-19 1.78803)
(12.5732 8.49661e-22 1.65398)
(12.7731 2.33372e-20 1.83448)
(12.6953 5.45173e-19 1.69757)
(12.9049 -4.85359e-20 1.88135)
(12.8259 -5.20344e-19 1.74175)
(13.0417 1.17556e-20 1.92875)
(12.9606 4.90918e-19 1.78635)
(13.1835 -9.4029e-19 1.97681)
(13.0994 -4.8352e-19 1.83146)
(13.3306 -4.42433e-19 2.02563)
(13.2432 -8.97294e-19 1.87723)
(13.483 4.46922e-19 2.07537)
(13.3926 4.39794e-19 1.9238)
(13.5477 4.31254e-19 1.97131)
(12.5043 -1.64837e-20 1.51943)
(12.4464 2.66679e-19 1.3901)
(12.6248 -1.6789e-20 1.56021)
(12.5513 -7.96583e-22 1.42724)
(12.7502 7.6964e-21 1.60142)
(12.6719 -7.77989e-21 1.46541)
(12.8807 1.15397e-20 1.64306)
(12.801 7.87172e-21 1.50417)
(13.0164 3.77346e-21 1.68523)
(12.9344 3.7949e-21 1.54334)
(13.1573 -4.30206e-19 1.728)
(13.0722 -2.24568e-19 1.583)
(13.3037 -1.97596e-20 1.77146)
(13.2151 -2.28906e-19 1.62325)
(13.4558 4.23986e-19 1.81572)
(13.3638 4.39616e-19 1.6642)
(13.5185 1.96717e-19 1.70594)
(12.4819 2.89188e-19 1.29372)
(12.4234 2.23114e-20 1.16591)
(12.6008 8.63105e-21 1.32891)
(12.5268 -2.481e-19 1.19743)
(12.7247 -7.95895e-21 1.36452)
(12.6459 3.61982e-21 1.22989)
(12.8538 0 1.40055)
(12.7734 4.65353e-19 1.26289)
(12.9882 -2.25846e-19 1.43707)
(12.9055 -2.28547e-19 1.29627)
(13.1281 -1.75934e-20 1.47413)
(13.042 -2.27644e-19 1.3301)
(13.2736 2.28684e-19 1.5118)
(13.1838 2.23554e-19 1.36444)
(13.4249 2.11219e-19 1.55014)
(13.3316 1.34104e-20 1.39938)
(13.4854 2.02413e-19 1.43497)
(12.4569 -5.24119e-19 1.06568)
(12.3978 -2.75293e-19 0.938762)
(12.5741 -2.58031e-19 1.09504)
(12.4998 -2.72512e-19 0.964427)
(12.6965 4.81021e-19 1.12479)
(12.6172 1.19716e-20 0.990911)
(12.8241 2.4618e-19 1.15492)
(12.7432 4.86362e-19 1.01786)
(12.9572 -2.30442e-19 1.18547)
(12.8737 -2.35359e-19 1.04515)
(13.0957 1.00899e-20 1.2165)
(13.0088 3.50755e-21 1.07281)
(13.2401 6.76555e-21 1.24805)
(13.1493 -1.96395e-19 1.1009)
(13.3904 5.11004e-23 1.28015)
(13.2959 1.87727e-19 1.12947)
(13.4487 1.87979e-19 1.15858)
(12.4294 -1.6126e-20 0.833047)
(12.3693 2.34886e-19 0.708501)
(12.545 0 0.856267)
(12.4699 -2.35455e-19 0.728115)
(12.6657 7.1882e-21 0.87982)
(12.5856 2.28301e-19 0.748368)
(12.7917 7.3166e-21 0.903689)
(12.7098 -2.22287e-19 0.768998)
(12.9232 0 0.927911)
(12.8387 0 0.789898)
(13.0604 -2.04498e-19 0.952516)
(12.9722 -2.05316e-19 0.811091)
(13.2034 -1.89904e-20 0.97753)
(13.1113 -7.37794e-21 0.832622)
(13.3524 3.81373e-19 1.00299)
(13.2564 2.98937e-21 0.854522)
(13.4078 5.64672e-19 0.876825)
(12.3985 2.36438e-20 0.600033)
(12.338 2.59239e-19 0.474952)
(12.5124 -1.15712e-20 0.617034)
(12.437 -2.46684e-19 0.48828)
(12.6314 1.75682e-21 0.634297)
(12.5508 2.35693e-19 0.502114)
(12.7557 -2.35358e-19 0.651798)
(12.6732 -2.35409e-19 0.516185)
(12.8855 -2.06755e-19 0.669566)
(12.8003 -2.54797e-23 0.53043)
(13.021 -6.91809e-21 0.687626)
(12.9321 -2.1197e-19 0.544876)
(13.1624 1.50726e-20 0.705993)
(13.0694 2.07099e-19 0.559555)
(13.3099 1.78537e-19 0.724687)
(13.2129 -2.89222e-19 0.574483)
(13.3627 4.74e-19 0.589681)
(12.3653 -3.62941e-21 0.35786)
(12.2056 -5.83337e-20 0.23809)
(12.4772 -3.69764e-21 0.368146)
(12.3025 -3.72017e-21 0.245053)
(12.5943 1.69884e-21 0.37858)
(12.4142 0 0.252146)
(12.7167 1.70392e-21 0.389135)
(12.5343 1.7407e-21 0.259324)
(12.8447 -2.61288e-23 0.399839)
(12.6593 -1.60685e-24 0.266594)
(12.9783 -1.53074e-21 0.410713)
(12.7889 0 0.273969)
(13.1179 -9.48402e-20 0.421766)
(12.9241 -9.70712e-23 0.281456)
(13.2637 -2.94082e-21 0.433008)
(13.0654 -9.55133e-20 0.289062)
(13.2132 5.05807e-20 0.296798)
(12.1287 -5.97999e-20 0.123215)
(12.2381 0 0.12703)
(12.3527 0 0.13089)
(12.4726 2.50096e-23 0.134781)
(12.5981 2.54556e-23 0.13872)
(12.7293 1.49118e-21 0.142715)
(12.8665 1.51676e-21 0.146768)
(13.0098 -4.38078e-20 0.150882)
)
;

boundaryField
{
    inlet
    {
        type            calculated;
        value           nonuniform 0();
    }
    outlet
    {
        type            calculated;
        value           nonuniform 0();
    }
    flap
    {
        type            calculated;
        value           nonuniform 0();
    }
    upperWall
    {
        type            calculated;
        value           uniform (0 0 0);
    }
    lowerWall
    {
        type            calculated;
        value           nonuniform 0();
    }
    frontAndBack
    {
        type            empty;
        value           nonuniform 0();
    }
    procBoundary1to0
    {
        type            processor;
        value           nonuniform List<vector> 
18
(
(11.0237 5.11102e-20 2.35147)
(11.0723 8.58904e-20 2.23026)
(11.0343 2.01405e-19 2.10161)
(11.0017 5.05528e-21 1.97851)
(11.036 -2.47078e-19 1.8606)
(11.0646 -4.24732e-21 1.73886)
(11.0884 -3.01792e-19 1.61354)
(11.1075 1.45937e-19 1.48496)
(11.1222 1.48809e-19 1.35357)
(11.1331 -2.80927e-19 1.21972)
(11.1402 4.0667e-19 1.08341)
(11.1436 3.93932e-19 0.944852)
(11.1436 -1.28006e-19 0.803846)
(11.1407 -3.72545e-19 0.661139)
(11.135 -1.2065e-19 0.515508)
(11.1269 -8.58089e-20 0.369442)
(11.1167 2.7157e-20 0.218796)
(10.9201 -2.99419e-22 0.0722019)
)
;
    }
    procBoundary1to2
    {
        type            processor;
        value           nonuniform List<vector> 
17
(
(13.6381 6.75209e-19 4.11572)
(13.6717 0 3.94947)
(13.6924 -4.69053e-19 3.76302)
(13.7035 -4.64944e-19 3.56059)
(13.7072 -5.14181e-19 3.34507)
(13.7045 -3.64984e-19 3.11845)
(13.6962 3.86189e-19 2.88223)
(13.6826 4.60018e-19 2.63755)
(13.6642 -2.67657e-20 2.38535)
(13.6411 4.28561e-19 2.12621)
(13.6137 3.87376e-19 1.8609)
(13.5823 3.96213e-19 1.58926)
(13.5469 1.85998e-19 1.31289)
(13.5078 5.60656e-19 1.02893)
(13.4638 5.61672e-19 0.743735)
(13.4159 9.34124e-20 0.444456)
(13.1596 -1.29811e-19 0.15506)
)
;
    }
    procBoundary1to3
    {
        type            processor;
        value           nonuniform List<vector> 9((10.1004 -5.0087e-19 3.14304) (10.2517 -9.35827e-19 3.09685) (10.3906 2.15409e-20 3.03636) (10.5168 8.61782e-19 2.96353) (10.6302 -6.13106e-19 2.88018) (10.7314 -3.94089e-19 2.78776) (10.8208 7.65242e-19 2.68753) (10.8988 -1.10656e-18 2.58075) (10.9662 3.28581e-19 2.46847));
    }
    procBoundary1to4
    {
        type            processor;
        value           nonuniform List<vector> 
30
(
(10.0595 -9.70064e-21 3.30713)
(10.2021 9.32228e-19 3.44057)
(10.3421 5.30399e-19 3.55598)
(10.49 -7.7291e-20 3.8624)
(10.665 1.48914e-18 3.95985)
(10.8269 6.3305e-19 4.03547)
(11.0311 -2.04082e-19 4.30777)
(11.2104 -7.57668e-19 4.3394)
(11.3672 -9.34942e-19 4.35313)
(11.591 -5.37986e-19 4.5426)
(11.7406 -5.23704e-19 4.5024)
(11.8669 4.00952e-21 4.46046)