/*--------------------------------*- C++ -*----------------------------------*\
| =========                 |                                                 |
| \\      /  F ield         | OpenFOAM: The Open Source CFD Toolbox           |
|  \\    /   O peration     | Version:  dev                                   |
|   \\  /    A nd           | Web:      www.OpenFOAM.org                      |
|    \\/     M anipulation  |                                                 |
\*---------------------------------------------------------------------------*/
FoamFile
{
    version     2.0;
    format      ascii;
    class       volVectorField;
    location    "0.93";
    object      cellDisplacement;
}
// * * * * * * * * * * * * * * * * * * * * * * * * * * * * * * * * * * * * * //

dimensions      [0 1 0 0 0 0 0];

internalField   nonuniform List<vector> 
2790
(
(0.0110275 0 -2.88873e-05)
(0.0314731 0 -8.2778e-05)
(0.048915 0 -0.000129965)
(0.0636292 0 -0.000171598)
(0.07591 0 -0.000208687)
(0.0860009 0 -0.000242481)
(0.0941258 0 -0.000272328)
(0.100489 0 -0.000299001)
(0.105255 0 -0.000322581)
(0.108568 0 -0.000342988)
(0.110552 0 -0.000360058)
(0.111316 0 -0.000373622)
(0.110955 0 -0.000382475)
(0.109553 0 -0.000386119)
(0.107187 0 -0.000383659)
(0.103924 0 -0.000373905)
(0.099825 0 -0.000355359)
(0.0949486 0 -0.000326064)
(0.0893496 0 -0.000283515)
(0.0830898 0 -0.000225134)
(0.076233 0 -0.000147038)
(0.0688482 0 -4.44292e-05)
(0.0610111 0 8.89291e-05)
(0.05281 0 0.000261141)
(0.0443531 0 0.000482834)
(0.0357811 0 0.000768233)
(0.0272914 0 0.0011379)
(0.0192338 0 0.0016251)
(0.0122915 0 0.00227259)
(0.00831131 0 0.00302217)
(0.01104 0 -8.68494e-05)
(0.0315107 0 -0.000248914)
(0.0489771 0 -0.000390892)
(0.0637164 0 -0.000516215)
(0.076028 0 -0.000627799)
(0.0861487 0 -0.000727449)
(0.0943048 0 -0.00081696)
(0.100706 0 -0.000897131)
(0.105517 0 -0.000968099)
(0.108879 0 -0.00102962)
(0.110919 0 -0.00108118)
(0.111748 0 -0.00112273)
(0.111461 0 -0.00115003)
(0.110144 0 -0.00116202)
(0.107876 0 -0.00115607)
(0.104724 0 -0.00112871)
(0.100756 0 -0.00107564)
(0.0960301 0 -0.000991231)
(0.0906022 0 -0.000867858)
(0.0845427 0 -0.000698891)
(0.077922 0 -0.000472938)
(0.0708198 0 -0.000176601)
(0.0633264 0 0.000207463)
(0.0555526 0 0.000701588)
(0.047643 0 0.00133458)
(0.0398025 0 0.00214315)
(0.0322897 0 0.0031758)
(0.0255144 0 0.00449032)
(0.0203509 0 0.00610977)
(0.0191797 0 0.00772338)
(0.0110652 0 -0.000144894)
(0.0315855 0 -0.000415344)
(0.0490998 0 -0.00065241)
(0.0638873 0 -0.000861768)
(0.0762476 0 -0.00104822)
(0.0864286 0 -0.00121416)
(0.0946576 0 -0.00136413)
(0.101137 0 -0.0014987)
(0.106035 0 -0.00161816)
(0.109497 0 -0.0017221)
(0.111651 0 -0.00180945)
(0.112607 0 -0.00187828)
(0.112466 0 -0.0019262)
(0.111318 0 -0.00194987)
(0.109243 0 -0.00194487)
(0.106315 0 -0.00190569)
(0.102604 0 -0.0018259)
(0.0981825 0 -0.0016971)
(0.0931059 0 -0.00150827)
(0.0874447 0 -0.00124618)
(0.0812912 0 -0.000895369)
(0.0747446 0 -0.000437048)
(0.0679178 0 0.000153259)
(0.0609537 0 0.00090592)
(0.0540419 0 0.00185837)
(0.0475118 0 0.00305084)
(0.0417672 0 0.00452008)
(0.0373817 0 0.00627596)
(0.0351315 0 0.00825152)
(0.0375405 0 0.00978517)
(0.0111026 0 -0.000202688)
(0.031697 0 -0.000581102)
(0.0492823 0 -0.000913021)
(0.0641413 0 -0.00120628)
(0.0765788 0 -0.00146785)
(0.0868502 0 -0.00170224)
(0.095183 0 -0.00191369)
(0.101778 0 -0.00210386)
(0.106806 0 -0.00227335)
(0.110416 0 -0.0024217)
(0.112738 0 -0.00254733)
(0.113883 0 -0.00264675)
(0.113962 0 -0.00271963)
(0.113066 0 -0.00276052)
(0.111279 0 -0.00276358)
(0.108679 0 -0.00272158)
(0.105349 0 -0.00262697)
(0.101363 0 -0.00246907)
(0.096802 0 -0.00223544)
(0.0917377 0 -0.00190799)
(0.0862685 0 -0.00146855)
(0.0805381 0 -0.000898623)
(0.0746912 0 -0.000172346)
(0.0689173 0 0.000738902)
(0.0634485 0 0.00186929)
(0.05865 0 0.00324153)
(0.0551075 0 0.0048432)
(0.0536471 0 0.00658587)
(0.0550096 0 0.00827543)
(0.0608408 0 0.00908034)
(0.0111515 0 -0.000260156)
(0.0318442 0 -0.000746006)
(0.049523 0 -0.00117256)
(0.0644754 0 -0.00154956)
(0.0770168 0 -0.00188644)
(0.0874064 0 -0.00218937)
(0.0958732 0 -0.00246301)
(0.102619 0 -0.00270986)
(0.107817 0 -0.00293099)
(0.111621 0 -0.00312606)
(0.114163 0 -0.00329346)
(0.115562 0 -0.00343033)
(0.115929 0 -0.00353411)
(0.115362 0 -0.00359954)
(0.113952 0 -0.00362012)
(0.111781 0 -0.00358686)
(0.108946 0 -0.00349322)
(0.105532 0 -0.00332662)
(0.101631 0 -0.00307358)
(0.0973444 0 -0.00271762)
(0.09278 0 -0.00223957)
(0.0880912 0 -0.00162064)
(0.0834762 0 -0.000842325)
(0.0791649 0 0.000114661)
(0.0755087 0 0.0012565)
(0.072866 0 0.00257458)
(0.0718193 0 0.00401076)
(0.0733723 0 0.00536026)
(0.0782315 0 0.00629705)
(0.0869653 0 0.00609333)
(0.011211 0 -0.00031749)
(0.0320268 0 -0.000910649)
(0.0498199 0 -0.00143086)
(0.0648856 0 -0.00189135)
(0.0775561 0 -0.00230375)
(0.0880907 0 -0.00267559)
(0.0967207 0 -0.00301233)
(0.10365 0 -0.00331727)
(0.109057 0 -0.00359211)
(0.113098 0 -0.0038368)
(0.115909 0 -0.00404995)
(0.117616 0 -0.00422894)
(0.118334 0 -0.00437041)
(0.118169 0 -0.00446926)
(0.117223 0 -0.00451947)
(0.115588 0 -0.00451282)
(0.113357 0 -0.00443935)
(0.110636 0 -0.00428812)
(0.107537 0 -0.00404748)
(0.104177 0 -0.00370283)
(0.100696 0 -0.00323925)
(0.0972694 0 -0.0026436)
(0.0941296 0 -0.00190864)
(0.091536 0 -0.00103031)
(0.0898491 0 -2.75286e-05)
(0.0896186 0 0.00102756)
(0.0913225 0 0.00203323)
(0.0957265 0 0.00273108)
(0.103471 0 0.00272866)
(0.114287 0 0.0015528)
(0.0112799 0 -0.000374575)
(0.0322262 0 -0.00107437)
(0.0501552 0 -0.00168825)
(0.0653685 0 -0.00223287)
(0.0781934 0 -0.00272141)
(0.088899 0 -0.00316306)
(0.0977208 0 -0.00356428)
(0.104867 0 -0.00392919)
(0.110519 0 -0.00426041)
(0.114838 0 -0.00455828)
(0.117965 0 -0.00482178)
(0.120033 0 -0.00504863)
(0.121161 0 -0.00523541)
(0.121463 0 -0.00537722)
(0.121053 0 -0.00546959)
(0.12004 0 -0.00550573)
(0.118514 0 -0.00547316)
(0.116594 0 -0.00536331)
(0.114423 0 -0.00516978)
(0.112136 0 -0.00488108)
(0.109894 0 -0.00448823)
(0.107878 0 -0.00398435)
(0.106396 0 -0.00338296)
(0.105739 0 -0.0027033)
(0.106217 0 -0.0019824)
(0.108441 0 -0.0013419)
(0.112859 0 -0.00093783)
(0.119865 0 -0.00102139)
(0.129774 0 -0.00192987)
(0.141663 0 -0.00382821)
(0.0113579 0 -0.00043105)
(0.0324573 0 -0.00123667)
(0.0505423 0 -0.00194469)
(0.0659202 0 -0.00257352)
(0.0789218 0 -0.00313871)
(0.0898225 0 -0.00365109)
(0.0988619 0 -0.00411816)
(0.106253 0 -0.00454491)
(0.112185 0 -0.0049353)
(0.116819 0 -0.00529)
(0.120305 0 -0.00560869)
(0.122779 0 -0.0058896)
(0.12437 0 -0.00612972)
(0.125194 0 -0.00632408)
(0.125386 0 -0.00647149)
(0.125057 0 -0.00656452)
(0.124321 0 -0.00659491)
(0.123314 0 -0.0065575)
(0.12218 0 -0.00644616)
(0.121076 0 -0.00625588)
(0.12022 0 -0.00599145)
(0.119794 0 -0.00565321)
(0.120072 0 -0.0052621)
(0.121445 0 -0.00487305)
(0.124217 0 -0.0045474)
(0.128864 0 -0.00442305)
(0.135721 0 -0.00467642)
(0.14496 0 -0.00553395)
(0.156279 0 -0.00716851)
(0.168366 0 -0.00946508)
(0.0114446 0 -0.000486824)
(0.0327172 0 -0.0013972)
(0.0509752 0 -0.00219855)
(0.0665326 0 -0.00291106)
(0.0797301 0 -0.00355292)
(0.0908467 0 -0.00413651)
(0.100126 0 -0.0046705)
(0.107788 0 -0.00516045)
(0.114028 0 -0.00561267)
(0.119009 0 -0.0060277)
(0.122888 0 -0.00640636)
(0.12581 0 -0.00674772)
(0.127909 0 -0.00704995)
(0.129319 0 -0.00731044)
(0.13017 0 -0.00752671)
(0.13059 0 -0.0076943)
(0.130706 0 -0.00780787)
(0.13069 0 -0.00786956)
(0.130685 0 -0.00787504)
(0.130874 0 -0.00782709)
(0.131464 0 -0.00773427)
(0.132735 0 -0.00762264)
(0.134894 0 -0.00751464)
(0.13835 0 -0.00748596)
(0.143408 0 -0.00762149)
(0.15035 0 -0.00805129)
(0.159338 0 -0.00893634)
(0.170279 0 -0.0104376)
(0.182317 0 -0.0125411)
(0.194003 0 -0.014941)
(0.0115391 0 -0.000542046)
(0.0330044 0 -0.00155638)
(0.0514495 0 -0.00244945)
(0.0671989 0 -0.00324493)
(0.0806098 0 -0.00396342)
(0.0919614 0 -0.00461874)
(0.1015 0 -0.00522085)
(0.109461 0 -0.00577806)
(0.116038 0 -0.00629524)
(0.121394 0 -0.00677418)
(0.125699 0 -0.0072177)
(0.129102 0 -0.00762577)
(0.131749 0 -0.00799845)
(0.133782 0 -0.00833461)
(0.135336 0 -0.00863233)
(0.136557 0 -0.00889141)
(0.137595 0 -0.00911129)
(0.138599 0 -0.00929174)
(0.139781 0 -0.00944342)
(0.141329 0 -0.0095745)
(0.143444 0 -0.0096987)
(0.146421 0 -0.00985322)
(0.150518 0 -0.0100809)
(0.15604 0 -0.0104542)
(0.163275 0 -0.0110709)
(0.17231 0 -0.0120354)
(0.183122 0 -0.0134662)
(0.195202 0 -0.0154062)
(0.207455 0 -0.0177169)
(0.21845 0 -0.0200078)
(0.0116396 0 -0.000596543)
(0.0332983 0 -0.00171307)
(0.0519454 0 -0.00269714)
(0.0679145 0 -0.00357591)
(0.0815563 0 -0.00437127)
(0.0931613 0 -0.00509901)
(0.102985 0 -0.00577091)
(0.111265 0 -0.00639709)
(0.118193 0 -0.00698134)
(0.123945 0 -0.00752717)
(0.128701 0 -0.00804011)
(0.132611 0 -0.00852045)
(0.135835 0 -0.00897096)
(0.138522 0 -0.00939245)
(0.140808 0 -0.00978271)
(0.142866 0 -0.0101479)
(0.144861 0 -0.0104923)
(0.146939 0 -0.0108163)
(0.149331 0 -0.0111379)
(0.152228 0 -0.0114702)
(0.15591 0 -0.011847)
(0.160584 0 -0.0122984)
(0.166549 0 -0.0128835)
(0.174021 0 -0.0136671)
(0.183238 0 -0.0147442)
(0.194105 0 -0.0161775)
(0.206404 0 -0.018024)
(0.219223 0 -0.0201982)
(0.231463 0 -0.0225065)
(0.241763 0 -0.0245705)
(0.0117455 0 -0.000649947)
(0.0336118 0 -0.001867)
(0.0524741 0 -0.00294169)
(0.0686729 0 -0.00390314)
(0.0825594 0 -0.00477531)
(0.0944321 0 -0.00557583)
(0.104553 0 -0.00631794)
(0.11316 0 -0.00701213)
(0.120457 0 -0.00766565)
(0.126634 0 -0.00828401)
(0.13186 0 -0.00887078)
(0.136294 0 -0.00942784)
(0.140117 0 -0.00996325)
(0.143484 0 -0.0104794)
(0.146534 0 -0.0109753)
(0.149438 0 -0.0114574)
(0.152384 0 -0.0119366)
(0.155561 0 -0.012424)
(0.159162 0 -0.0129339)
(0.16341 0 -0.0134899)
(0.168574 0 -0.0141298)
(0.174848 0 -0.0148876)
(0.182534 0 -0.0158293)
(0.191744 0 -0.0170019)
(0.202679 0 -0.0184903)
(0.215063 0 -0.020302)
(0.228505 0 -0.0224226)
(0.241932 0 -0.0246858)
(0.254228 0 -0.0268677)
(0.264072 0 -0.028676)
(0.011857 0 -0.000702432)
(0.0339432 0 -0.00201849)
(0.0530301 0 -0.00318245)
(0.0694675 0 -0.00422577)
(0.0836097 0 -0.00517443)
(0.0957612 0 -0.00604784)
(0.106189 0 -0.00686058)
(0.115137 0 -0.00762387)
(0.122825 0 -0.0083494)
(0.129437 0 -0.00904285)
(0.135141 0 -0.00970626)
(0.14012 0 -0.0103468)
(0.144552 0 -0.0109722)
(0.148593 0 -0.0115867)
(0.152409 0 -0.0121953)
(0.156169 0 -0.0128058)
(0.160055 0 -0.0134294)
(0.164303 0 -0.0140897)
(0.169064 0 -0.0147966)
(0.174609 0 -0.0155871)
(0.181109 0 -0.0164858)
(0.188848 0 -0.017548)
(0.198007 0 -0.0188206)
(0.208689 0 -0.0203459)
(0.220976 0 -0.0221754)
(0.234528 0 -0.0242778)
(0.248859 0 -0.026576)
(0.2629 0 -0.0288563)
(0.27555 0 -0.0308816)
(0.285368 0 -0.0324701)
(0.0119737 0 -0.000753863)
(0.0342888 0 -0.00216704)
(0.0536072 0 -0.00341866)
(0.0702902 0 -0.00454277)
(0.0846962 0 -0.00556733)
(0.0971349 0 -0.00651347)
(0.107875 0 -0.00739706)
(0.117181 0 -0.00823226)
(0.125272 0 -0.00903139)
(0.132318 0 -0.00979925)
(0.138508 0 -0.0105421)
(0.144047 0 -0.0112722)
(0.149081 0 -0.0119903)
(0.153793 0 -0.0127076)
(0.158362 0 -0.0134339)
(0.162953 0 -0.0141771)
(0.167751 0 -0.0149513)
(0.17299 0 -0.0157834)
(0.178841 0 -0.0166903)
(0.185522 0 -0.0177036)
(0.19322 0 -0.0188547)
(0.202183 0 -0.0201961)
(0.2125 0 -0.021758)
(0.224299 0 -0.0235843)
(0.237512 0 -0.0256848)
(0.251837 0 -0.0280134)
(0.266778 0 -0.0304543)
(0.281405 0 -0.0327738)
(0.294734 0 -0.0347127)
(0.305117 0 -0.0361487)
(0.012095 0 -0.000804082)
(0.0346453 0 -0.00231211)
(0.054199 0 -0.00364942)
(0.0711331 0 -0.00485293)
(0.0858087 0 -0.00595244)
(0.098541 0 -0.00697084)
(0.109606 0 -0.00792589)
(0.119281 0 -0.00883534)
(0.127772 0 -0.00970859)
(0.135255 0 -0.0105522)
(0.141946 0 -0.0113791)
(0.14803 0 -0.012198)
(0.153662 0 -0.0130126)
(0.159028 0 -0.0138348)
(0.164302 0 -0.0146761)
(0.169655 0 -0.0155474)
(0.175319 0 -0.016475)
(0.18147 0 -0.0174763)
(0.188275 0 -0.0185719)
(0.195894 0 -0.0197859)
(0.204588 0 -0.0211682)
(0.214455 0 -0.0227443)
(0.225589 0 -0.0245472)
(0.238068 0 -0.026609)
(0.25175 0 -0.0289206)
(0.266335 0 -0.0314309)
(0.281382 0 -0.0340307)
(0.296141 0 -0.0365104)
(0.309862 0 -0.0385767)
(0.321437 0 -0.0399974)
(0.0118733 0 -0.00385268)
(0.0243376 0 -0.00439407)
(0.0450669 0 -0.00469068)
(0.0700355 0 -0.00477097)
(0.0954184 0 -0.00467769)
(0.118888 0 -0.00450294)
(0.139473 0 -0.00428034)
(0.156964 0 -0.00401559)
(0.171433 0 -0.00374073)
(0.183158 0 -0.00349554)
(0.192402 0 -0.00325065)
(0.199368 0 -0.00300912)
(0.204244 0 -0.00278729)
(0.207208 0 -0.00257578)
(0.208367 0 -0.00236763)
(0.207809 0 -0.00218486)
(0.205585 0 -0.00200962)
(0.201721 0 -0.00184499)
(0.196214 0 -0.00168618)
(0.189065 0 -0.00152863)
(0.180247 0 -0.00138237)
(0.169688 0 -0.00124176)
(0.15735 0 -0.00110744)
(0.143165 0 -0.000972138)
(0.127042 0 -0.000836622)
(0.108897 0 -0.000699335)
(0.0886406 0 -0.000558287)
(0.0661807 0 -0.000411226)
(0.0414299 0 -0.000255572)
(0.0142369 0 -8.78462e-05)
(0.0202572 0 -0.0114275)
(0.0332766 0 -0.0128858)
(0.0534037 0 -0.013643)
(0.0771378 0 -0.0138504)
(0.101219 0 -0.0135974)
(0.123571 0 -0.0131001)
(0.143222 0 -0.0124537)
(0.159978 0 -0.0117347)
(0.173895 0 -0.0109813)
(0.185173 0 -0.0102577)
(0.194038 0 -0.00955298)
(0.200701 0 -0.00885539)
(0.205339 0 -0.00821443)
(0.208105 0 -0.00760139)
(0.209105 0 -0.00701041)
(0.208414 0 -0.0064612)
(0.206083 0 -0.00594565)
(0.202133 0 -0.00546366)
(0.196562 0 -0.00499788)
(0.189357 0 -0.00454473)
(0.180484 0 -0.00411395)
(0.169878 0 -0.00369691)
(0.157505 0 -0.00328972)
(0.143298 0 -0.00288798)
(0.127153 0 -0.00248614)
(0.108988 0 -0.00207878)
(0.0887141 0 -0.00165995)
(0.0662371 0 -0.00122298)
(0.041468 0 -0.000760222)
(0.0142514 0 -0.000261344)
(0.0355438 0 -0.0186356)
(0.0493053 0 -0.0206962)
(0.0683218 0 -0.0217297)
(0.0900424 0 -0.0219834)
(0.111927 0 -0.021616)
(0.132299 0 -0.0208648)
(0.150323 0 -0.0198904)
(0.165765 0 -0.0188091)
(0.178622 0 -0.0176852)
(0.189029 0 -0.0165411)
(0.197193 0 -0.0154426)
(0.203287 0 -0.01436)
(0.207461 0 -0.0133336)
(0.209846 0 -0.0123588)
(0.21054 0 -0.0114368)
(0.209596 0 -0.010554)
(0.207055 0 -0.00972196)
(0.202934 0 -0.00893219)
(0.197227 0 -0.00817833)
(0.189911 0 -0.00745687)
(0.180946 0 -0.00675813)
(0.170269 0 -0.00607824)
(0.157831 0 -0.00540944)
(0.143562 0 -0.00475086)
(0.12737 0 -0.00409197)
(0.109166 0 -0.00342306)
(0.0888563 0 -0.00273442)
(0.0663452 0 -0.00201525)
(0.0415402 0 -0.00125307)
(0.0142787 0 -0.000430842)
(0.056109 0 -0.0255993)
(0.0702344 0 -0.0278399)
(0.0878297 0 -0.0289642)
(0.1071 0 -0.0291789)
(0.126341 0 -0.0287178)
(0.144248 0 -0.0277833)
(0.160196 0 -0.0265904)
(0.173871 0 -0.0252157)
(0.185292 0 -0.0237965)
(0.194513 0 -0.0223306)
(0.201696 0 -0.0208882)
(0.20699 0 -0.019491)
(0.210505 0 -0.0181348)
(0.212352 0 -0.01684)
(0.212599 0 -0.0156045)
(0.211296 0 -0.014435)
(0.208462 0 -0.0133188)
(0.204096 0 -0.0122463)
(0.198185 0 -0.0112231)
(0.190703 0 -0.0102389)
(0.181605 0 -0.00928811)
(0.170817 0 -0.00836101)
(0.158286 0 -0.00745289)
(0.143937 0 -0.00655038)
(0.127678 0 -0.00564559)
(0.109417 0 -0.00472507)
(0.0890565 0 -0.00377599)
(0.0664966 0 -0.00278378)
(0.0416415 0 -0.00173145)
(0.0143172 0 -0.000595404)
(0.0802958 0 -0.0322367)
(0.0942048 0 -0.0343545)
(0.11011 0 -0.0353849)
(0.126794 0 -0.0354998)
(0.143271 0 -0.0349512)
(0.158528 0 -0.033889)
(0.172159 0 -0.0325426)
(0.183832 0 -0.0309722)
(0.193546 0 -0.0293117)
(0.201339 0 -0.0276068)
(0.207328 0 -0.0258883)
(0.211629 0 -0.0242073)
(0.214337 0 -0.0225869)
(0.215516 0 -0.0210231)
(0.215204 0 -0.0195103)
(0.21344 0 -0.0180693)
(0.210235 0 -0.0167001)
(0.205568 0 -0.0153836)
(0.199409 0 -0.0141177)
(0.191719 0 -0.0128904)
(0.182445 0 -0.0117038)
(0.171506 0 -0.0105438)
(0.158852 0 -0.00940211)
(0.144405 0 -0.00826869)
(0.128061 0 -0.00713177)
(0.10973 0 -0.00597187)
(0.0893042 0 -0.00477417)
(0.0666824 0 -0.00352075)
(0.0417671 0 -0.00219059)
(0.0143657 0 -0.00075335)
(0.106576 0 -0.0383627)
(0.119701 0 -0.0401863)
(0.133759 0 -0.0410267)
(0.147937 0 -0.0410265)
(0.161733 0 -0.0404021)
(0.174388 0 -0.0392653)
(0.185589 0 -0.0377934)
(0.195129 0 -0.0360944)
(0.202956 0 -0.034244)
(0.209171 0 -0.0323459)
(0.213837 0 -0.0304281)
(0.217016 0 -0.0285173)
(0.218786 0 -0.0266584)
(0.219199 0 -0.0248703)
(0.218257 0 -0.0231351)
(0.21596 0 -0.0214571)
(0.212311 0 -0.0198522)
(0.207289 0 -0.0183167)
(0.20084 0 -0.0168341)
(0.19291 0 -0.0153944)
(0.183434 0 -0.0139932)
(0.172334 0 -0.012619)
(0.159537 0 -0.0112584)
(0.144952 0 -0.00990549)
(0.128503 0 -0.00854447)
(0.110093 0 -0.00715804)
(0.0895893 0 -0.0057245)
(0.0668943 0 -0.0042228)
(0.041917 0 -0.00262871)
(0.0144291 0 -0.00090489)
(0.133645 0 -0.0438106)
(0.145612 0 -0.0452992)
(0.157817 0 -0.0459446)
(0.169696 0 -0.0458497)
(0.180969 0 -0.045158)
(0.191121 0 -0.0439744)
(0.199864 0 -0.0423993)
(0.207234 0 -0.040598)
(0.21314 0 -0.0386192)
(0.217679 0 -0.0365608)
(0.220941 0 -0.0344878)
(0.222934 0 -0.0324121)
(0.223694 0 -0.0303602)
(0.223267 0 -0.0283754)
(0.221634 0 -0.0264518)
(0.218768 0 -0.0245846)
(0.214633 0 -0.0227755)
(0.209203 0 -0.0210358)
(0.202432 0 -0.019362)
(0.194234 0 -0.0177303)
(0.184534 0 -0.016135)
(0.173249 0 -0.0145658)
(0.160297 0 -0.0130101)
(0.145585 0 -0.011456)
(0.129019 0 -0.00988529)
(0.110499 0 -0.00828402)
(0.0899037 0 -0.00662732)
(0.0671222 0 -0.00488995)
(0.042045 0 -0.00304329)
(0.0144653 0 -0.00104708)
(0.160532 0 -0.0485269)
(0.17121 0 -0.0497285)
(0.181678 0 -0.0502259)
(0.191498 0 -0.0500671)
(0.200379 0 -0.0493075)
(0.208102 0 -0.0480662)
(0.214508 0 -0.0464194)
(0.219711 0 -0.0445242)
(0.223703 0 -0.0424584)
(0.226556 0 -0.0402816)
(0.228374 0 -0.0380799)
(0.229147 0 -0.0358751)
(0.228882 0 -0.0336845)
(0.227572 0 -0.0315346)
(0.225222 0 -0.0294559)
(0.221757 0 -0.02743)
(0.217125 0 -0.0254593)
(0.211264 0 -0.0235431)
(0.204136 0 -0.021694)
(0.195653 0 -0.0198911)
(0.185711 0 -0.0181221)
(0.174226 0 -0.0163771)
(0.161105 0 -0.0146428)
(0.146251 0 -0.0129047)
(0.129562 0 -0.0111449)
(0.11093 0 -0.00934456)
(0.0902361 0 -0.00747876)
(0.0673619 0 -0.00551962)
(0.0421887 0 -0.00343522)
(0.0145122 0 -0.00118141)
(0.186635 0 -0.0525708)
(0.19609 0 -0.0535783)
(0.20498 0 -0.0539813)
(0.21288 0 -0.0537619)
(0.219489 0 -0.0529224)
(0.224871 0 -0.0516)
(0.229042 0 -0.0498879)
(0.232123 0 -0.0479093)
(0.234246 0 -0.0457682)
(0.235476 0 -0.0435163)
(0.23587 0 -0.0412184)
(0.23544 0 -0.0389159)
(0.234159 0 -0.0366219)
(0.231984 0 -0.0343524)
(0.228903 0 -0.0321446)
(0.224833 0 -0.02999)
(0.219695 0 -0.0278852)
(0.213408 0 -0.0258295)
(0.205911 0 -0.0238249)
(0.197125 0 -0.0218707)
(0.186931 0 -0.0199485)
(0.175235 0 -0.0180467)
(0.161937 0 -0.0161515)
(0.146933 0 -0.0142467)
(0.130115 0 -0.0123134)
(0.111368 0 -0.0103302)
(0.090572 0 -0.0082711)
(0.0676025 0 -0.00610608)
(0.0423347 0 -0.00380051)
(0.0145613 0 -0.00130675)
(0.211668 0 -0.0560928)
(0.220087 0 -0.0570028)
(0.227505 0 -0.0573292)
(0.233481 0 -0.057003)
(0.237876 0 -0.0560443)
(0.240976 0 -0.0546096)
(0.242974 0 -0.052814)
(0.244064 0 -0.0507682)
(0.244424 0 -0.0485701)
(0.244118 0 -0.0462667)
(0.243177 0 -0.0439101)
(0.241607 0 -0.0415427)
(0.239359 0 -0.0391775)
(0.236366 0 -0.0368298)
(0.23257 0 -0.0345202)
(0.227906 0 -0.0322635)
(0.222269 0 -0.0300516)
(0.215568 0 -0.0278841)
(0.207712 0 -0.0257571)
(0.198616 0 -0.0236737)
(0.188165 0 -0.0216188)
(0.176254 0 -0.0195793)
(0.162774 0 -0.0175406)
(0.147616 0 -0.0154855)
(0.130665 0 -0.0133942)
(0.111802 0 -0.0112436)
(0.0909027 0 -0.00900637)
(0.0678381 0 -0.00665076)
(0.0424777 0 -0.00413996)
(0.0146096 0 -0.00142323)
(0.235637 0 -0.059315)
(0.243185 0 -0.0601688)
(0.24906 0 -0.0603528)
(0.252972 0 -0.0598247)
(0.255107 0 -0.0586788)
(0.255974 0 -0.0570996)
(0.255917 0 -0.0552133)
(0.255174 0 -0.0531137)
(0.253927 0 -0.0508807)
(0.252226 0 -0.0485525)
(0.250071 0 -0.0461672)
(0.247463 0 -0.0437652)
(0.244326 0 -0.0413595)
(0.240579 0 -0.038965)
(0.23613 0 -0.0365937)
(0.230904 0 -0.0342632)
(0.224791 0 -0.0319713)
(0.217686 0 -0.0297167)
(0.209487 0 -0.0274966)
(0.200091 0 -0.0253082)
(0.189386 0 -0.0231409)
(0.17726 0 -0.0209819)
(0.163598 0 -0.0188164)
(0.148285 0 -0.0166267)
(0.131201 0 -0.0143921)
(0.112222 0 -0.0120885)
(0.0912209 0 -0.00968746)
(0.0680633 0 -0.00715573)
(0.0426142 0 -0.0044548)
(0.0146559 0 -0.00153127)
(0.258754 0 -0.06245)
(0.265345 0 -0.0631742)
(0.26929 0 -0.0630404)
(0.270861 0 -0.0621785)
(0.270673 0 -0.0607829)
(0.26941 0 -0.0590479)
(0.267489 0 -0.0570841)
(0.265126 0 -0.0549539)
(0.262481 0 -0.0527138)
(0.25958 0 -0.0503924)
(0.25639 0 -0.0480137)
(0.25288 0 -0.0456085)
(0.248962 0 -0.0431927)
(0.244539 0 -0.0407796)
(0.239509 0 -0.0383809)
(0.233772 0 -0.0360074)
(0.227215 0 -0.0336615)
(0.219727 0 -0.0313431)
(0.211198 0 -0.0290497)
(0.201516 0 -0.0267772)
(0.190565 0 -0.0245165)
(0.178228 0 -0.0222554)
(0.164388 0 -0.0199791)
(0.148922 0 -0.0176699)
(0.131707 0 -0.0153066)
(0.112616 0 -0.0128643)
(0.0915165 0 -0.0103137)
(0.0682706 0 -0.00762041)
(0.0427388 0 -0.00474457)
(0.0146981 0 -0.00163066)
(0.281187 0 -0.0655999)
(0.286188 0 -0.0659386)
(0.287484 0 -0.0652252)
(0.286445 0 -0.0639244)
(0.283993 0 -0.0622733)
(0.28083 0 -0.0604174)
(0.27735 0 -0.0584212)
(0.273689 0 -0.0563059)
(0.269928 0 -0.0540978)
(0.266062 0 -0.0518159)
(0.262038 0 -0.049478)
(0.257784 0 -0.0471037)
(0.253205 0 -0.044708)
(0.248196 0 -0.0423035)
(0.242649 0 -0.039901)
(0.236452 0 -0.0375092)
(0.229491 0 -0.0351322)
(0.221649 0 -0.0327708)
(0.21281 0 -0.0304233)
(0.202858 0 -0.0280853)
(0.191673 0 -0.0257485)
(0.179136 0 -0.0234015)
(0.165123 0 -0.0210299)
(0.14951 0 -0.0186159)
(0.132171 0 -0.016138)
(0.112973 0 -0.013571)
(0.0917807 0 -0.0108849)
(0.0684535 0 -0.00804455)
(0.0428474 0 -0.00500907)
(0.0147344 0 -0.00172132)
(0.302454 0 -0.0685887)
(0.304494 0 -0.0680457)
(0.302402 0 -0.0665485)
(0.298829 0 -0.0648561)
(0.294538 0 -0.0630656)
(0.289975 0 -0.0611949)
(0.285372 0 -0.0592407)
(0.280789 0 -0.0571971)
(0.276227 0 -0.0550684)
(0.271643 0 -0.052864)
(0.26697 0 -0.0505967)
(0.262122 0 -0.048281)
(0.257 0 -0.0459306)
(0.251498 0 -0.0435576)
(0.245503 0 -0.0411724)
(0.238903 0 -0.0387832)
(0.23158 0 -0.0363948)
(0.223416 0 -0.034009)
(0.214293 0 -0.0316247)
(0.204091 0 -0.0292378)
(0.192688 0 -0.0268409)
(0.179962 0 -0.0244233)
(0.165787 0 -0.0219708)
(0.150036 0 -0.0194659)
(0.132579 0 -0.0168872)
(0.113282 0 -0.0142091)
(0.0920056 0 -0.0114014)
(0.068606 0 -0.00842825)
(0.0429361 0 -0.00524833)
(0.0147635 0 -0.00180323)
(0.319559 0 -0.0704119)
(0.31793 0 -0.0685269)
(0.312969 0 -0.0665365)
(0.307612 0 -0.0647968)
(0.302213 0 -0.0631167)
(0.296875 0 -0.0613929)
(0.291637 0 -0.0595836)
(0.286491 0 -0.0576756)
(0.281403 0 -0.0556702)
(0.276319 0 -0.053576)
(0.271169 0 -0.051405)
(0.265866 0 -0.0491707)
(0.260313 0 -0.0468862)
(0.254406 0 -0.0445637)
(0.248035 0 -0.0422137)
(0.241088 0 -0.0398444)
(0.233449 0 -0.0374614)
(0.224999 0 -0.0350673)
(0.21562 0 -0.0326616)
(0.205191 0 -0.0302409)
(0.193588 0 -0.0277984)
(0.180688 0 -0.0253241)
(0.166363 0 -0.0228044)
(0.150485 0 -0.0202219)
(0.132921 0 -0.0175554)
(0.113534 0 -0.0147795)
(0.0921839 0 -0.0118636)
(0.0687229 0 -0.00877188)
(0.0430015 0 -0.00546252)
(0.0147843 0 -0.00187647)
(0.0122234 0 -0.000854092)
(0.0350145 0 -0.00245578)
(0.0548096 0 -0.00387811)
(0.0720032 0 -0.00516086)
(0.0869565 0 -0.00633542)
(0.0999908 0 -0.0074265)
(0.111393 0 -0.00845398)
(0.121444 0 -0.00943849)
(0.130336 0 -0.0103867)
(0.138273 0 -0.0113104)
(0.145464 0 -0.0122227)
(0.152073 0 -0.013129)
(0.158286 0 -0.0140408)
(0.164269 0 -0.0149664)
(0.1702 0 -0.0159197)
(0.176303 0 -0.0169252)
(0.182773 0 -0.0180038)
(0.189726 0 -0.019165)
(0.197304 0 -0.0204279)
(0.205703 0 -0.0218257)
(0.215126 0 -0.0234016)
(0.225597 0 -0.0251695)
(0.237182 0 -0.0271584)
(0.249891 0 -0.0293893)
(0.263514 0 -0.0318446)
(0.277717 0 -0.0344842)
(0.292047 0 -0.0372533)
(0.305757 0 -0.0400955)
(0.317999 0 -0.04313)
(0.328413 0 -0.0471137)
(0.0123382 0 -0.000902352)
(0.0353747 0 -0.00259658)
(0.0554332 0 -0.00410443)
(0.0728983 0 -0.0054667)
(0.0881368 0 -0.00671646)
(0.101479 0 -0.00788057)
(0.113235 0 -0.00898259)
(0.123665 0 -0.0100419)
(0.132961 0 -0.0110659)
(0.141354 0 -0.0120719)
(0.14902 0 -0.0130669)
(0.156142 0 -0.0140613)
(0.162905 0 -0.0150675)
(0.169482 0 -0.0160974)
(0.176079 0 -0.0171715)
(0.18289 0 -0.0183109)
(0.190032 0 -0.0195241)
(0.197628 0 -0.0208244)
(0.205828 0 -0.0222359)
(0.214809 0 -0.0237914)
(0.224672 0 -0.0255161)
(0.235427 0 -0.0274243)
(0.247077 0 -0.0295347)
(0.259552 0 -0.0318565)
(0.272564 0 -0.0343617)
(0.285724 0 -0.037016)
(0.298504 0 -0.039778)
(0.310193 0 -0.042617)
(0.320185 0 -0.0456307)
(0.327881 0 -0.0490094)
(0.0124556 0 -0.000949346)
(0.035739 0 -0.00273404)
(0.0560614 0 -0.00432552)
(0.0738033 0 -0.00576629)
(0.0893324 0 -0.00709077)
(0.102991 0 -0.00832772)
(0.115101 0 -0.00950433)
(0.125901 0 -0.0106368)
(0.135609 0 -0.0117386)
(0.144437 0 -0.0128235)
(0.152558 0 -0.0138998)
(0.160171 0 -0.0149814)
(0.16746 0 -0.0160816)
(0.174614 0 -0.0172176)
(0.181822 0 -0.0184081)
(0.189202 0 -0.0196615)
(0.19687 0 -0.0209885)
(0.204962 0 -0.0224077)
(0.213603 0 -0.0239407)
(0.222929 0 -0.0256154)
(0.232963 0 -0.0274425)
(0.243685 0 -0.0294324)
(0.25504 0 -0.031593)
(0.266871 0 -0.0339189)
(0.278861 0 -0.0363776)
(0.290623 0 -0.038937)
(0.301676 0 -0.0415636)
(0.311496 0 -0.0442498)
(0.319556 0 -0.0470138)
(0.325417 0 -0.0499163)
(0.0125739 0 -0.000994876)
(0.0361018 0 -0.00286706)
(0.0566896 0 -0.00453997)
(0.074711 0 -0.0060577)
(0.090528 0 -0.0074553)
(0.104512 0 -0.00876585)
(0.116975 0 -0.0100158)
(0.128147 0 -0.0112216)
(0.138247 0 -0.0123985)
(0.147477 0 -0.0135577)
(0.156037 0 -0.0147141)
(0.164118 0 -0.0158811)
(0.171913 0 -0.0170757)
(0.179591 0 -0.0183119)
(0.18728 0 -0.019599)
(0.195094 0 -0.0209459)
(0.20316 0 -0.0223678)
(0.211591 0 -0.0238814)
(0.220486 0 -0.0255041)
(0.229919 0 -0.0272541)
(0.23987 0 -0.0291347)
(0.250296 0 -0.0311511)
(0.261086 0 -0.0332999)
(0.272048 0 -0.0355675)
(0.282886 0 -0.0379249)
(0.29325 0 -0.0403412)
(0.302777 0 -0.0427992)
(0.311022 0 -0.0452668)
(0.317589 0 -0.0477255)
(0.322234 0 -0.050209)
(0.012691 0 -0.00103853)
(0.0364566 0 -0.00299442)
(0.0573139 0 -0.00474695)
(0.0756177 0 -0.00633921)
(0.0917267 0 -0.00780841)
(0.106029 0 -0.0091905)
(0.118831 0 -0.0105118)
(0.130356 0 -0.0117878)
(0.140823 0 -0.0130351)
(0.150442 0 -0.0142674)
(0.159421 0 -0.0155021)
(0.167946 0 -0.0167525)
(0.176181 0 -0.0180317)
(0.184261 0 -0.0193486)
(0.19231 0 -0.0207128)
(0.200449 0 -0.0221365)
(0.208783 0 -0.0236325)
(0.217401 0 -0.0252138)
(0.226369 0 -0.0268929)
(0.235714 0 -0.0286791)
(0.245404 0 -0.0305742)
(0.255364 0 -0.0325756)
(0.265458 0 -0.0346737)
(0.275489 0 -0.0368503)
(0.2852 0 -0.0390802)
(0.294324 0 -0.0413433)
(0.302526 0 -0.0436061)
(0.309474 0 -0.0458287)
(0.314946 0 -0.0480023)
(0.318791 0 -0.0501264)
(0.0128067 0 -0.00107999)
(0.0368206 0 -0.00311671)
(0.0579254 0 -0.00494386)
(0.0764929 0 -0.00660633)
(0.0928991 0 -0.00814533)
(0.107518 0 -0.00959626)
(0.120643 0 -0.0109851)
(0.132495 0 -0.0123274)
(0.143311 0 -0.0136426)
(0.153304 0 -0.0149464)
(0.162666 0 -0.0162535)
(0.171556 0 -0.0175748)
(0.180124 0 -0.0189206)
(0.18851 0 -0.0203021)
(0.196829 0 -0.0217293)
(0.205188 0 -0.0232124)
(0.213672 0 -0.0247616)
(0.222347 0 -0.0263864)
(0.231249 0 -0.028094)
(0.240378 0 -0.0298884)
(0.249687 0 -0.0317677)
(0.259086 0 -0.033725)
(0.268438 0 -0.0357476)
(0.277559 0 -0.0378162)
(0.286254 0 -0.039913)
(0.294271 0 -0.0420084)
(0.301347 0 -0.0440651)
(0.307283 0 -0.0460604)
(0.311939 0 -0.0479796)
(0.315235 0 -0.0498056)
(0.0129169 0 -0.0011186)
(0.0371673 0 -0.00323074)
(0.0585143 0 -0.00512795)
(0.0773499 0 -0.00685888)
(0.0940506 0 -0.0084648)
(0.108959 0 -0.00997943)
(0.122371 0 -0.0114291)
(0.134541 0 -0.012835)
(0.145689 0 -0.0142145)
(0.156006 0 -0.0155814)
(0.16567 0 -0.0169476)
(0.174849 0 -0.0183264)
(0.183683 0 -0.0197279)
(0.1923 0 -0.0211621)
(0.200807 0 -0.0226379)
(0.209291 0 -0.0241637)
(0.217823 0 -0.0257469)
(0.226447 0 -0.0273934)
(0.235179 0 -0.0291067)
(0.244001 0 -0.0308863)
(0.252857 0 -0.0327276)
(0.261659 0 -0.0346215)
(0.270279 0 -0.0365549)
(0.278564 0 -0.0385104)
(0.286334 0 -0.0404651)
(0.293382 0 -0.0423874)
(0.299541 0 -0.0442535)
(0.30468 0 -0.0460433)
(0.308716 0 -0.04774)
(0.31161 0 -0.0493228)
(0.0130184 0 -0.0011538)
(0.0374975 0 -0.00333598)
(0.0590994 0 -0.0053003)
(0.0781876 0 -0.00709449)
(0.0951378 0 -0.00875962)
(0.110318 0 -0.0103329)
(0.124013 0 -0.0118405)
(0.13646 0 -0.0133024)
(0.147877 0 -0.0147352)
(0.15846 0 -0.0161545)
(0.168381 0 -0.0175718)
(0.177793 0 -0.0189987)
(0.18683 0 -0.020445)
(0.19561 0 -0.0219198)
(0.204226 0 -0.0234303)
(0.212755 0 -0.024983)
(0.221249 0 -0.0265829)
(0.22974 0 -0.0282329)
(0.238229 0 -0.0299333)
(0.246687 0 -0.0316807)
(0.255053 0 -0.0334677)
(0.263265 0 -0.0352885)
(0.271202 0 -0.0371278)
(0.278709 0 -0.038962)
(0.285648 0 -0.0407704)
(0.291881 0 -0.042531)
(0.297292 0 -0.0442236)
(0.301795 0 -0.0458305)
(0.305343 0 -0.0473354)
(0.307926 0 -0.0487193)
(0.0131365 0 -0.00118752)
(0.0378233 0 -0.00343242)
(0.0596413 0 -0.00545578)
(0.0789675 0 -0.00730696)
(0.0961582 0 -0.00902639)
(0.111576 0 -0.0106513)
(0.125505 0 -0.0122077)
(0.138186 0 -0.0137166)
(0.149835 0 -0.0151952)
(0.160641 0 -0.0166581)
(0.170768 0 -0.0181174)
(0.180362 0 -0.0195833)
(0.189546 0 -0.0210642)
(0.198425 0 -0.0225677)
(0.207084 0 -0.0240997)
(0.215588 0 -0.0256651)
(0.223978 0 -0.0272666)
(0.232275 0 -0.0289049)
(0.240473 0 -0.030578)
(0.24854 0 -0.032281)
(0.256422 0 -0.034006)
(0.264058 0 -0.0357452)
(0.27134 0 -0.0374811)
(0.278144 0 -0.039193)
(0.284369 0 -0.0408639)
(0.289918 0 -0.0424758)
(0.294712 0 -0.044012)
(0.298699 0 -0.0454573)
(0.301854 0 -0.0467977)
(0.304182 0 -0.0480173)
(0.013243 0 -0.0012169)
(0.0381374 0 -0.00351809)
(0.060145 0 -0.00559241)
(0.0796586 0 -0.00749071)
(0.0970564 0 -0.00925626)
(0.112681 0 -0.0109247)
(0.126815 0 -0.0125227)
(0.139699 0 -0.0140714)
(0.151543 0 -0.015588)
(0.162529 0 -0.0170863)
(0.172816 0 -0.0185781)
(0.182539 0 -0.0200725)
(0.191816 0 -0.0215775)
(0.200741 0 -0.023099)
(0.209387 0 -0.024641)
(0.21781 0 -0.0262063)
(0.226047 0 -0.0277968)
(0.234108 0 -0.0294111)