/*--------------------------------*- C++ -*----------------------------------*\
| =========                 |                                                 |
| \\      /  F ield         | OpenFOAM: The Open Source CFD Toolbox           |
|  \\    /   O peration     | Version:  dev                                   |
|   \\  /    A nd           | Web:      www.OpenFOAM.org                      |
|    \\/     M anipulation  |                                                 |
\*---------------------------------------------------------------------------*/
FoamFile
{
    version     2.0;
    format      ascii;
    class       volVectorField;
    location    "0.93";
    object      U;
}
// * * * * * * * * * * * * * * * * * * * * * * * * * * * * * * * * * * * * * //

dimensions      [0 1 -1 0 0 0 0];

internalField   nonuniform List<vector> 
2790
(
(9.93119 -1.44063e-21 0.0190236)
(9.86219 4.47168e-21 0.0266574)
(9.76646 -3.09483e-21 0.0317279)
(9.64776 -2.57633e-20 0.0369046)
(9.51356 0 0.0422923)
(9.36605 0 0.0478428)
(9.20456 0 0.0536628)
(9.02819 -1.51225e-20 0.0599077)
(8.83624 0 0.0667053)
(8.62799 -4.11778e-20 0.0741622)
(8.40249 6.84748e-20 0.0823939)
(8.15868 -3.33153e-20 0.0915288)
(7.89539 1.16353e-21 0.101706)
(7.61125 7.81472e-20 0.113077)
(7.30483 -8.07773e-20 0.125804)
(6.9746 2.11917e-20 0.140054)
(6.61903 0 0.155993)
(6.23662 0 0.173783)
(5.82599 0 0.19356)
(5.386 0 0.215425)
(4.9159 0 0.239421)
(4.41546 0 0.26549)
(3.88522 -1.14682e-19 0.293407)
(3.3268 0 0.322739)
(2.74321 1.23635e-19 0.352771)
(2.1392 0 0.382294)
(1.52145 0 0.409045)
(0.902117 -1.33652e-18 0.424393)
(0.210493 1.07251e-18 0.331069)
(-0.127201 2.82089e-19 -0.250543)
(9.9939 0 0.0378724)
(9.98363 0 0.0552539)
(9.94836 1.23778e-20 0.0677219)
(9.88829 3.86219e-20 0.0809351)
(9.80987 2.67635e-20 0.0951362)
(9.7155 2.77923e-20 0.110126)
(9.60474 0 0.126095)
(9.47682 4.53637e-20 0.143387)
(9.33117 -1.56647e-19 0.162287)
(9.16717 -4.15498e-20 0.183036)
(8.98394 1.35369e-19 0.205902)
(8.78051 -2.21319e-21 0.23118)
(8.55576 -1.4949e-19 0.259183)
(8.30837 1.53199e-19 0.290248)
(8.0369 0 0.324716)
(7.73984 -6.27983e-20 0.362915)
(7.41557 -4.36722e-20 0.405138)
(7.06248 -3.67118e-19 0.451609)
(6.679 7.62109e-19 0.502432)
(6.2637 4.04195e-19 0.557523)
(5.81539 -9.28288e-19 0.616551)
(5.33334 -8.59509e-19 0.678802)
(4.81735 -7.90891e-19 0.742959)
(4.26803 6.96254e-19 0.806941)
(3.68726 -1.20892e-19 0.86765)
(3.07854 0 0.920277)
(2.44746 0 0.956623)
(1.80525 -1.82667e-18 0.958735)
(1.11031 2.09508e-18 0.875817)
(0.710892 -4.71969e-18 0.652686)
(9.99108 -9.19297e-20 0.0393755)
(9.97826 9.50563e-20 0.0644238)
(9.94551 2.47274e-20 0.0850931)
(9.89033 -2.56325e-20 0.106885)
(9.81801 -1.06732e-19 0.130368)
(9.73117 -2.77566e-20 0.155366)
(9.62948 5.76882e-20 0.182124)
(9.5123 -9.04519e-20 0.211125)
(9.37922 3.03695e-20 0.242799)
(9.22971 8.08096e-20 0.277534)
(9.06304 0 0.315768)
(8.87845 2.83184e-19 0.357991)
(8.67495 -2.92332e-19 0.404731)
(8.45141 -9.55082e-21 0.456561)
(8.20655 1.99051e-20 0.514069)
(7.93898 4.15819e-20 0.577834)
(7.6472 1.29853e-19 0.6484)
(7.32961 -9.01601e-20 0.726225)
(6.98452 -8.51139e-19 0.811591)
(6.61022 -8.50418e-21 0.904496)
(6.20499 9.14841e-19 1.00455)
(5.76736 1.70812e-18 1.11082)
(5.29578 -3.31002e-18 1.2214)
(4.78881 3.88807e-18 1.33314)
(4.24553 4.86463e-19 1.44122)
(3.66511 -1.94199e-18 1.53829)
(3.04559 -3.50956e-18 1.6128)
(2.38402 -1.66636e-20 1.64484)
(1.6223 4.096e-18 1.6045)
(0.980687 5.44999e-19 1.46452)
(9.98921 9.18741e-20 0.043242)
(9.97399 -9.49888e-20 0.0775575)
(9.94114 0 0.107846)
(9.88702 0 0.138617)
(9.81613 1.06672e-19 0.171023)
(9.73117 5.57887e-20 0.205249)
(9.63189 -1.72439e-19 0.241711)
(9.51782 1.20122e-19 0.281034)
(9.38875 -3.74055e-19 0.323803)
(9.24427 3.22902e-19 0.370569)
(9.08384 -3.36612e-20 0.42193)
(8.90694 0 0.478552)
(8.71286 0 0.541167)
(8.50077 9.5095e-21 0.610566)
(8.26975 -6.9564e-19 0.687572)
(8.01876 1.31878e-18 0.773019)
(7.74668 -7.69019e-19 0.867732)
(7.45224 8.08178e-19 0.972471)
(7.13403 -2.14315e-18 1.08783)
(6.79049 1.73317e-18 1.2141)
(6.41971 0 1.3511)
(6.01989 0 1.49813)
(5.58866 -1.23238e-21 1.65344)
(5.12269 3.59981e-18 1.81369)
(4.61807 -3.6866e-18 1.97376)
(4.06927 -3.34124e-18 2.12612)
(3.46725 -5.09916e-19 2.26026)
(2.80021 8.4284e-18 2.36125)
(2.01145 -3.98851e-18 2.41394)
(1.22679 -4.59182e-21 2.43639)
(9.98833 1.83194e-19 0.0486525)
(9.97169 2.37097e-20 0.0908421)
(9.93855 2.46892e-20 0.129492)
(9.88528 -1.02295e-19 0.168323)
(9.81575 5.335e-20 0.208902)
(9.73247 -2.20941e-19 0.251801)
(9.63525 5.71492e-20 0.297587)
(9.52373 -2.39396e-19 0.346941)
(9.39779 5.58174e-19 0.400545)
(9.25707 -5.48194e-19 0.459066)
(9.10115 5.7005e-19 0.523213)
(8.92962 -2.77815e-19 0.593761)
(8.74197 -5.91946e-19 0.671577)
(8.5376 5.9151e-19 0.757602)
(8.31587 7.84766e-20 0.852826)
(8.07605 4.07449e-20 0.95827)
(7.81737 0 1.07498)
(7.53892 -8.80974e-20 1.20398)
(7.2397 1.29309e-18 1.34617)
(6.91846 -1.70905e-18 1.50222)
(6.57337 -1.9722e-19 1.67238)
(6.20241 2.04345e-19 1.85637)
(5.80301 3.19726e-18 2.05313)
(5.37099 -3.49135e-18 2.26005)
(4.90038 -3.74823e-21 2.47279)
(4.38267 -4.64631e-19 2.68534)
(3.80516 0 2.89013)
(3.15304 6.7467e-18 3.07854)
(2.39419 -7.72809e-18 3.23396)
(1.50712 -5.22314e-19 3.4366)
(9.98791 -1.83025e-19 0.0547955)
(9.97053 0 0.104169)
(9.9374 -4.91639e-20 0.150736)
(9.88517 1.53131e-19 0.197583)
(9.81729 -6.08905e-23 0.246358)
(9.73604 1.09864e-19 0.297904)
(9.64125 -1.7218e-19 0.352917)
(9.53265 1.17298e-19 0.412112)
(9.41015 1.84386e-19 0.476243)
(9.27347 0 0.546096)
(9.12226 5.35421e-19 0.622497)
(8.95617 -5.52079e-19 0.706322)
(8.77476 -5.69497e-19 0.798531)
(8.57763 6.05405e-19 0.900196)
(8.36433 -1.95466e-20 1.01245)
(8.13432 -4.04754e-20 1.13647)
(7.88705 8.37162e-20 1.27349)
(7.62191 1.74263e-19 1.42475)
(7.33818 3.61692e-19 1.59145)
(7.03489 0 1.77468)
(6.71049 1.94893e-19 1.9752)
(6.36292 -3.83037e-18 2.19333)
(5.98953 3.71848e-18 2.42887)
(5.58597 0 2.68054)
(5.14575 -4.4626e-21 2.94556)
(4.65951 3.6036e-18 3.21986)
(4.11386 -1.09856e-17 3.49821)
(3.49023 7.87873e-18 3.77716)
(2.80324 -7.67133e-18 4.01949)
(1.83014 8.04554e-18 4.3888)
(9.98775 -2.2813e-20 0.0612879)
(9.97008 -1.64915e-19 0.117504)
(9.93733 -2.44745e-19 0.171583)
(9.88638 -5.10979e-20 0.226194)
(9.82041 1.05598e-19 0.282912)
(9.74147 -1.09475e-19 0.34279)
(9.64951 -2.28465e-19 0.406672)
(9.54428 3.54847e-19 0.475324)
(9.42571 -2.44941e-19 0.549566)
(9.29358 -5.12064e-19 0.63029)
(9.14764 5.27973e-19 0.718446)
(8.9876 3.43259e-20 0.815006)
(8.81307 -5.73619e-19 0.920991)
(8.62375 -3.84631e-22 1.03757)
(8.41928 1.8303e-18 1.16599)
(8.19927 5.1177e-20 1.30757)
(7.96333 1.14758e-20 1.46368)
(7.7111 -2.83404e-18 1.63578)
(7.44194 1.06124e-18 1.82536)
(7.15498 -2.95893e-18 2.03389)
(6.84905 3.03238e-18 2.26268)
(6.52244 3.94483e-19 2.51279)
(6.17256 -3.6547e-18 2.785)
(5.79503 3.31419e-18 3.07935)
(5.38376 6.40272e-18 3.39484)
(4.93006 2.84782e-20 3.72934)
(4.42217 -7.04711e-18 4.07842)
(3.83262 7.34344e-18 4.44369)
(3.24143 -6.92465e-18 4.75072)
(2.18968 7.73164e-18 5.26138)
(9.98783 -3.6359e-19 0.0678988)
(9.9702 1.88248e-19 0.130731)
(9.93802 1.95434e-19 0.191928)
(9.88863 0 0.253977)
(9.82486 0 0.318367)
(9.74858 0 0.386291)
(9.65983 2.27418e-19 0.458714)
(9.55843 -1.16238e-19 0.536464)
(9.44431 -3.6555e-19 0.620425)
(9.31726 -5.08714e-19 0.711572)
(9.17712 5.24239e-19 0.810952)
(9.02379 -3.41626e-20 0.919636)
(8.85694 5.68272e-19 1.03873)
(8.67617 5.71169e-19 1.16947)
(8.48129 9.99881e-21 1.31324)
(8.27201 -1.29542e-18 1.47141)
(8.04801 -8.18598e-20 1.64549)
(7.80918 -1.44155e-18 1.83718)
(7.55495 1.56713e-18 2.04829)
(7.28448 -2.89811e-18 2.28065)
(6.99692 2.78057e-18 2.53604)
(6.69065 0 2.81622)
(6.36359 0 3.1231)
(6.01201 -3.23258e-18 3.45802)
(5.63016 3.285e-18 3.82137)
(5.21024 0 4.21265)
(4.74408 0 4.62705)
(4.18895 6.58826e-18 5.07277)
(3.70208 -1.36177e-17 5.4267)
(2.5758 7.45699e-18 6.05232)
(9.98805 7.25595e-19 0.0744705)
(9.97069 -3.74654e-19 0.143742)
(9.93932 0 0.211703)
(9.89171 -2.01822e-19 0.280824)
(9.83039 2.10095e-19 0.352581)
(9.75707 -2.17145e-19 0.428238)
(9.67193 1.12702e-19 0.508835)
(9.57481 4.68839e-19 0.595277)
(9.46564 3.66484e-19 0.688524)
(9.34423 -3.76293e-19 0.789618)
(9.21048 0 0.899645)
(9.06445 0 1.01977)
(8.90592 0 1.15123)
(8.73449 1.81798e-20 1.29537)
(8.55004 0 1.45359)
(8.35242 -1.24834e-18 1.62738)
(8.14137 -9.96002e-21 1.81836)
(7.91671 1.40615e-18 2.02843)
(7.67813 0 2.25976)
(7.42514 0 2.51455)
(7.15701 1.8164e-21 2.79506)
(6.87202 -2.80454e-18 3.10362)
(6.56849 6.29497e-18 3.44309)
(6.24386 -3.11114e-18 3.81622)
(5.89296 1.96615e-19 4.22457)
(5.50809 -9.95092e-20 4.66895)
(5.08612 6.46915e-18 5.14313)
(4.56325 -6.50745e-18 5.66467)
(4.17793 0 6.05711)
(2.97988 0 6.77812)
(9.98829 -2.33272e-20 0.0809109)
(9.97142 -2.26444e-20 0.156419)
(9.94121 2.42162e-19 0.230803)
(9.89557 2.0145e-19 0.306631)
(9.83688 0 0.385423)
(9.76681 -2.17e-19 0.468459)
(9.68563 1.11633e-19 0.556829)
(9.59316 -4.67011e-19 0.651521)
(9.48935 4.81055e-19 0.753573)
(9.37408 -7.51042e-19 0.864079)
(9.24735 1.03512e-18 0.98415)
(9.10924 -1.07165e-18 1.11501)
(8.95959 5.52616e-19 1.25806)
(8.79819 7.14903e-20 1.41472)
(8.625 1.19002e-18 1.58644)
(8.43995 -2.46889e-18 1.77479)
(8.24292 1.25963e-18 1.98157)
(8.03355 2.61489e-18 2.20884)
(7.81172 -2.67393e-18 2.45899)
(7.57733 -2.76557e-18 2.73461)
(7.32983 2.99843e-18 3.03852)
(7.06789 2.71883e-18 3.37374)
(6.78999 -6.09192e-18 3.74379)
(6.4941 3.00086e-18 4.15251)
(6.17616 -1.91886e-19 4.60293)
(5.82815 9.68909e-20 5.09731)
(5.45234 0 5.62718)
(4.95961 -6.51744e-18 6.22234)
(4.66686 5.43838e-18 6.65644)
(3.39912 0 7.46641)
(9.98857 -3.60725e-19 0.0871516)
(9.97241 4.73843e-20 0.168654)
(9.9436 -2.41642e-19 0.249124)
(9.90008 -1.00351e-19 0.331303)
(9.84425 3.11315e-19 0.416769)
(9.77777 0 0.506795)
(9.70086 -2.23751e-19 0.602516)
(9.61336 8.09444e-19 0.704997)
(9.51528 -1.07745e-18 0.815332)
(9.40661 6.1855e-19 0.934658)
(9.28744 1.27942e-19 1.06412)
(9.1578 0 1.20502)
(9.01758 0 1.35883)
(8.86683 -7.09817e-20 1.52708)
(8.70562 -1.10004e-18 1.71122)
(8.53392 1.11626e-20 1.91295)
(8.35172 1.23778e-18 2.13429)
(8.15882 0 2.37746)
(7.95521 0 2.64497)
(7.74083 0 2.93969)
(7.51539 2.75524e-18 3.26498)
(7.27834 2.79995e-18 3.62464)
(7.02863 -5.68443e-18 4.02295)
(6.7642 5.68406e-18 4.46458)
(6.48202 0 4.95406)
(6.17379 0 5.49585)
(5.84689 -3.60933e-19 6.07959)
(5.38525 -5.41848e-18 6.74914)
(5.17504 6.60866e-18 7.24018)
(3.84002 0 8.15263)
(9.98891 2.2443e-20 0.0931256)
(9.97362 3.48168e-19 0.180363)
(9.94637 0 0.266595)
(9.90511 1.9925e-19 0.354758)
(9.85234 -2.06441e-19 0.446496)
(9.78969 -2.13923e-19 0.543091)
(9.71734 -2.22388e-19 0.645721)
(9.63516 4.59639e-19 0.755504)
(9.54319 -3.55194e-19 0.873572)
(9.44151 -4.92912e-19 1.00109)
(9.33034 3.7947e-19 1.13926)
(9.20962 0 1.28943)
(9.07935 0 1.45316)
(8.93985 0 1.63198)
(8.79127 -7.2226e-20 1.82742)
(8.63363 7.38154e-20 2.04129)
(8.46704 0 2.27578)
(8.29161 -2.50801e-18 2.53328)
(8.10746 -9.1266e-20 2.81645)
(7.91464 2.69568e-18 3.12838)
(7.7131 -2.6734e-18 3.4728)
(7.50288 -2.54235e-18 3.85412)
(7.28383 1.48719e-19 4.27761)
(7.05413 5.78992e-18 4.74891)
(6.81166 -5.5693e-18 5.27403)
(6.54774 0 5.86047)
(6.27484 1.03002e-18 6.49818)
(5.85215 6.7145e-19 7.24536)
(5.71946 -4.03052e-18 7.82085)
(4.32261 6.33373e-18 8.87865)
(9.98918 -4.47087e-20 0.0987884)
(9.97497 1.38573e-19 0.191468)
(9.94948 -9.57215e-20 0.283141)
(9.91065 -1.98835e-19 0.376913)
(9.86111 2.06041e-19 0.474502)
(9.80248 0 0.577223)
(9.73492 -2.20968e-19 0.686293)
(9.65834 2.27661e-19 0.802863)
(9.57279 0 0.928084)
(9.47849 2.43118e-19 1.06314)
(9.37569 0 1.2093)
(9.2643 -1.04103e-18 1.36797)
(9.14449 1.06766e-18 1.54071)
(9.01679 0 1.72905)
(8.88138 -1.13721e-18 1.93458)
(8.73837 1.08941e-18 2.15926)
(8.58813 -2.39653e-18 2.40538)
(8.43103 -9.97546e-21 2.67544)
(8.26737 2.57602e-18 2.97227)
(8.0975 -8.01647e-20 3.29915)
(7.92174 -2.59217e-18 3.66005)
(7.74061 -2.78746e-18 4.05984)
(7.5546 1.61097e-19 4.50452)
(7.36304 -4.95822e-19 5.00105)
(7.1652 -5.26903e-18 5.55715)
(6.95234 5.28017e-18 6.18383)
(6.74249 -6.58553e-19 6.87509)
(6.37788 -1.90069e-18 7.70241)
(6.33082 -1.30271e-18 8.40098)
(4.88814 -3.41061e-19 9.69494)
(9.98942 -3.55655e-19 0.10412)
(9.9764 0 0.201899)
(9.95283 0 0.298682)
(9.91661 3.94647e-19 0.39769)
(9.87047 0 0.500702)
(9.81602 -2.12182e-19 0.609088)
(9.75346 2.18735e-19 0.724103)
(9.6827 0 0.846918)
(9.60386 4.6888e-19 0.978684)
(9.51722 -7.23974e-19 1.1206)
(9.42305 0 1.27399)
(9.32136 1.0291e-18 1.44034)
(9.21249 -1.98249e-18 1.62112)
(9.09706 2.17444e-18 1.81786)
(8.97528 -9.75169e-19 2.03226)
(8.84743 0 2.26635)
(8.71412 0 2.52243)
(8.57594 -2.39921e-18 2.8031)
(8.43367 4.8828e-18 3.11131)
(8.28791 -4.96202e-18 3.45045)
(8.13945 2.513e-18 3.82465)
(7.98953 2.21722e-18 4.23912)
(7.83912 -2.87004e-18 4.70019)
(7.68917 3.20807e-19 5.21589)
(7.54138 0 5.79578)
(7.38864 0 6.45417)
(7.25567 0 7.19274)
(6.98403 -3.45158e-18 8.09308)
(7.05717 4.76894e-18 8.95427)
(5.61154 -4.55156e-18 10.6688)
(9.98968 3.55071e-19 0.109102)
(9.97789 -9.15973e-20 0.211609)
(9.95636 4.73895e-19 0.313145)
(9.92291 -3.9381e-19 0.417003)
(9.88032 2.03826e-19 0.525002)
(9.83023 -4.20467e-19 0.638576)
(9.77285 4.3603e-19 0.759023)
(9.70813 -4.48866e-19 0.887521)
(9.63622 0 1.02521)
(9.55747 0 1.1733)
(9.47212 0 1.33316)
(9.38042 0 1.50628)
(9.28289 -1.30888e-19 1.6941)
(9.18004 0 1.89814)
(9.07221 -1.37943e-19 2.12014)
(8.95998 0 2.36219)
(8.84407 -1.15134e-18 2.62655)
(8.72527 1.17094e-18 2.91574)
(8.6049 -2.38469e-18 3.23282)
(8.48396 2.41569e-18 3.58122)
(8.36374 0 3.96506)
(8.24632 3.09086e-19 4.38962)
(8.13362 0 4.86128)
(8.02844 0 5.38834)
(7.9355 5.9443e-19 5.98126)
(7.85249 1.1622e-18 6.65608)
(7.81308 -3.36551e-18 7.42229)
(7.68456 2.1196e-19 8.36115)
(7.95787 3.38427e-18 9.37508)
(6.6039 -3.55124e-18 11.9334)
(0.299878 0 -0.172445)
(0.414586 -4.38963e-19 -0.00719941)
(0.380759 5.07032e-19 0.0522891)
(0.278411 3.75915e-19 0.0782195)
(0.0655921 -5.58141e-21 0.107315)
(-0.255878 -3.49255e-19 0.133925)
(-0.667588 -1.64624e-19 0.154139)
(-1.14659 1.74701e-19 0.167226)
(-1.66855 0 0.17357)
(-2.2128 1.43946e-19 0.173974)
(-2.76276 1.43593e-19 0.169373)
(-3.30656 0 0.160716)
(-3.83405 -5.91524e-20 0.148573)
(-4.33558 -7.88657e-20 0.133191)
(-4.80247 2.51166e-20 0.114686)
(-5.22565 4.1861e-20 0.0931148)
(-5.59572 0 0.0685953)
(-5.90345 3.12628e-20 0.0413896)
(-6.13954 0 0.0117815)
(-6.29527 1.72821e-20 -0.0202813)
(-6.362 5.22346e-21 -0.0557394)
(-6.33165 0 -0.0967816)
(-6.18767 0 -0.146393)
(-5.91166 0 -0.206004)
(-5.49203 -1.05003e-20 -0.276916)
(-4.90593 -1.30027e-20 -0.36343)
(-4.10439 1.12409e-20 -0.476419)
(-3.02915 1.07794e-20 -0.639226)
(-1.68854 -2.18213e-22 -0.878877)
(0.0909282 4.30274e-21 -1.17508)
(-0.0245194 -1.0242e-18 -0.215196)
(-0.052798 8.81323e-19 -0.0098162)
(-0.22684 -1.01049e-19 0.105405)
(-0.483341 -1.88707e-19 0.203848)
(-0.835262 1.78644e-19 0.293188)
(-1.27391 1.71295e-19 0.368822)
(-1.78245 5.6803e-19 0.428912)
(-2.33935 -6.69437e-19 0.473577)
(-2.92404 0 0.503719)
(-3.51943 0 0.520749)
(-4.11221 0 0.526202)
(-4.69215 2.4369e-19 0.521409)
(-5.24973 -1.83461e-19 0.507078)
(-5.77628 5.23752e-20 0.483462)
(-6.26411 8.8158e-20 0.450605)
(-6.70522 -1.27976e-19 0.408419)
(-7.09139 0 0.356915)
(-7.41436 -3.06886e-20 0.296338)
(-7.66521 0 0.2272)
(-7.83502 -1.19454e-20 0.149832)
(-7.91557 -1.38337e-21 0.0632654)
(-7.8994 -4.00232e-20 -0.035477)
(-7.78169 0 -0.147881)
(-7.55413 0 -0.272077)
(-7.21095 -1.03283e-20 -0.407987)
(-6.74211 1.12495e-20 -0.559217)
(-6.13012 -1.35348e-20 -0.736774)
(-5.36931 -7.92983e-21 -0.961753)
(-4.54037 1.54969e-20 -1.23767)
(-3.93472 -4.43384e-21 -1.46683)
(-0.128353 1.94571e-18 -0.0994422)
(-0.325958 -3.48832e-18 0.153607)
(-0.614103 4.13042e-19 0.318282)
(-0.978776 1.31864e-18 0.461213)
(-1.42123 1.23093e-18 0.58684)
(-1.92924 -1.54866e-18 0.691671)
(-2.48674 8.22827e-20 0.773311)
(-3.07577 -6.11052e-19 0.831388)
(-3.6803 6.95826e-19 0.867071)
(-4.28767 7.17478e-20 0.882409)
(-4.88781 1.34318e-19 0.879281)
(-5.47289 1.24164e-19 0.859207)
(-6.03506 -1.13279e-19 0.823109)
(-6.56691 -2.96998e-19 0.771497)
(-7.06164 1.9679e-19 0.70472)
(-7.51234 9.77155e-21 0.622966)
(-7.91178 5.57964e-21 0.526509)
(-8.25242 0 0.41592)
(-8.52626 4.95258e-20 0.292283)
(-8.72498 1.97206e-20 0.157047)
(-8.84097 -5.43055e-20 0.0110731)
(-8.8672 1.68214e-20 -0.146223)
(-8.80345 -4.77091e-21 -0.316973)
(-8.64609 -6.11653e-21 -0.502447)
(-8.39297 -2.97899e-21 -0.700384)
(-8.04269 5.03176e-21 -0.910136)
(-7.59479 0 -1.13537)
(-7.06131 -1.56271e-20 -1.38433)
(-6.51713 -1.41902e-20 -1.65046)
(-6.17044 -6.32506e-22 -1.86733)
(-0.128058 -1.85079e-21 0.141847)
(-0.441221 -6.40491e-21 0.420991)
(-0.826525 1.5775e-18 0.615287)
(-1.27255 -2.63493e-18 0.785642)
(-1.77712 0 0.933001)
(-2.32774 0 1.05437)
(-2.91023 -1.37627e-18 1.14762)
(-3.51085 4.97139e-20 1.21271)
(-4.11845 1.15889e-18 1.25134)
(-4.72431 -7.67027e-19 1.26581)
(-5.32137 -6.83175e-19 1.25809)
(-5.90389 -5.95064e-19 1.22949)
(-6.46573 4.67882e-19 1.18081)
(-7.00051 -9.8231e-20 1.11248)
(-7.50186 -8.97193e-20 1.02482)
(-7.96304 0 0.917879)
(-8.37696 6.7974e-20 0.791605)
(-8.7362 0 0.646144)
(-9.03309 -4.91065e-20 0.482011)
(-9.26038 0 0.30023)
(-9.41138 2.33266e-21 0.101953)
(-9.4794 -2.66793e-20 -0.112216)
(-9.46428 2.4844e-20 -0.342325)
(-9.3682 0 -0.587045)
(-9.19149 1.51127e-20 -0.84276)
(-8.93769 8.37381e-21 -1.10562)
(-8.6132 2.00977e-20 -1.37359)
(-8.23425 1.90776e-20 -1.64633)
(-7.86167 0 -1.9137)
(-7.63949 0 -2.12252)
(-0.0643008 -3.22569e-18 0.453256)
(-0.450393 6.82728e-18 0.761892)
(-0.908417 -2.67054e-20 0.972614)
(-1.41231 -3.01146e-18 1.15613)
(-1.95723 -2.82531e-18 1.3127)
(-2.53105 2.78023e-18 1.44012)
(-3.12231 1.42293e-18 1.53665)
(-3.7218 -1.29162e-18 1.60265)
(-4.32284 -1.17376e-18 1.63998)
(-4.91984 1.16662e-18 1.65037)
(-5.50813 0 1.63526)
(-6.08323 0 1.59541)
(-6.64017 1.10613e-19 1.53108)
(-7.17348 1.98277e-19 1.44239)
(-7.67716 0 1.32942)
(-8.14456 -2.89793e-19 1.19213)
(-8.56878 2.59451e-19 1.03062)
(-8.94264 -1.18579e-19 0.845424)
(-9.25882 0 0.637663)
(-9.51087 -7.20665e-20 0.409131)
(-9.69326 3.20748e-20 0.162264)
(-9.80071 1.5004e-20 -0.100155)
(-9.82941 2.09956e-20 -0.37605)
(-9.78732 -9.45363e-21 -0.664987)
(-9.67654 0 -0.962487)
(-9.50303 2.67926e-20 -1.26149)
(-9.27575 -3.36788e-20 -1.55545)
(-9.01171 2.16067e-20 -1.83886)
(-8.75903 0 -2.10041)
(-8.61499 5.93942e-21 -2.29409)
(0.0488704 1.8125e-21 0.820572)
(-0.377038 -4.22666e-19 1.15436)
(-0.887994 -3.94804e-19 1.37195)
(-1.42868 2.59919e-18 1.55802)
(-1.99476 -5.38822e-18 1.71445)
(-2.57485 2.80635e-18 1.84029)
(-3.16123 -1.34886e-18 1.93475)
(-3.74916 2.54172e-18 1.99834)
(-4.33537 -1.23403e-18 2.03236)
(-4.9168 1.41797e-19 2.03781)
(-5.49068 8.21218e-19 2.01551)
(-6.05352 -2.36909e-19 1.96563)
(-6.60126 2.1348e-19 1.88795)
(-7.12909 1.89641e-19 1.78221)
(-7.63142 0 1.64814)
(-8.10195 1.40951e-19 1.48553)
(-8.53403 -1.29934e-20 1.29438)
(-8.92069 0 1.07524)
(-9.25483 -8.15387e-20 0.82937)
(-9.52992 1.02923e-19 0.558766)
(-9.74074 -3.07401e-20 0.266445)
(-9.88318 -4.95572e-20 -0.0432917)
(-9.95437 9.68389e-21 -0.365635)
(-9.96013 0 -0.697225)
(-9.90653 0 -1.03315)
(-9.80009 -2.34649e-20 -1.36386)
(-9.65096 1.23785e-20 -1.67937)
(-9.4762 -1.6566e-20 -1.97082)
(-9.31303 0 -2.22631)
(-9.22375 -9.77141e-21 -2.40558)
(0.207289 -4.1461e-18 1.22751)
(-0.23445 2.92829e-18 1.58037)
(-0.782942 0 1.79698)
(-1.34117 3.77015e-19 1.97762)
(-1.91045 -3.63719e-19 2.12763)
(-2.48136 4.36383e-20 2.24721)
(-3.05056 8.36886e-20 2.33644)
(-3.61723 0 2.39577)
(-4.18089 0 2.42548)
(-4.74057 0 2.42575)
(-5.29483 2.60826e-19 2.39657)
(-5.84108 2.37671e-19 2.33741)
(-6.37591 -2.13799e-19 2.24746)
(-6.89496 1.63412e-19 2.12595)
(-7.393 -3.47527e-19 1.97212)
(-7.864 6.08036e-21 1.7855)
(-8.30148 -6.50169e-21 1.566)
(-8.69869 8.79364e-20 1.31428)
(-9.04881 -5.38296e-21 1.03197)
(-9.34548 0 0.721708)
(-9.5835 0 0.387521)
(-9.75938 2.3943e-20 0.0351861)
(-9.87123 1.55527e-20 -0.328468)
(-9.92052 -1.58666e-20 -0.697627)
(-9.91743 0 -1.06653)
(-9.86818 0 -1.42381)
(-9.78353 -1.576e-20 -1.75681)
(-9.6804 1.28197e-21 -2.05425)
(-9.58705 -3.04411e-22 -2.30374)
(-9.53886 4.15833e-21 -2.47058)
(0.405598 -1.0121e-20 1.66311)
(-0.033084 -5.76988e-18 2.02567)
(-0.605646 3.55664e-18 2.23376)
(-1.16255 0 2.40256)
(-1.71762 -2.90049e-18 2.54184)
(-2.26468 2.83298e-18 2.65283)
(-2.8052 -2.5421e-19 2.73569)
(-3.34153 1.25595e-18 2.79021)
(-3.8755 -1.23896e-18 2.81563)
(-4.40772 0 2.81123)
(-4.93762 0 2.77607)
(-5.46327 -4.4299e-19 2.70889)
(-5.98177 6.39616e-19 2.60828)
(-6.48907 -1.79025e-19 2.47288)
(-6.98025 -1.46514e-19 2.30149)
(-7.44959 2.80808e-19 2.09335)
(-7.8908 -1.14086e-19 1.84835)
(-8.29744 -8.04067e-20 1.56722)
(-8.66298 1.32396e-20 1.2519)
(-8.98116 0 0.905551)
(-9.24644 0 0.532926)
(-9.45501 0 0.140757)
(-9.60552 0 -0.262495)
(-9.69394 2.32624e-20 -0.666797)
(-9.73552 0 -1.0654)
(-9.73572 6.08178e-22 -1.44629)
(-9.70522 -5.98391e-22 -1.79459)
(-9.66089 0 -2.09708)
(-9.62389 -1.12715e-22 -2.34112)
(-9.60816 1.20188e-22 -2.4974)
(0.637272 1.2839e-20 2.11751)
(0.217395 6.52995e-18 2.47741)
(-0.365578 -3.56673e-18 2.66938)
(-0.90125 0 2.82132)
(-1.42488 -2.9415e-18 2.94765)
(-1.934 2.83105e-18 3.04959)
(-2.43499 -1.17137e-18 3.12653)
(-2.93275 1.64669e-18 3.17698)
(-3.43065 0 3.19914)
(-3.9302 1.07556e-18 3.19132)
(-4.43141 1.05504e-18 3.1517)
(-4.93277 0 3.07827)
(-5.43169 -2.05369e-19 2.96895)
(-5.92444 5.10565e-19 2.82185)
(-6.40638 -3.2504e-19 2.6354)
(-6.87214 -2.3896e-19 2.40853)
(-7.31579 2.07373e-19 2.14105)
(-7.73123 -1.69465e-19 1.83378)
(-8.11209 6.62609e-20 1.48882)
(-8.45189 -1.88579e-20 1.10963)
(-8.74435 1.86597e-20 0.701331)
(-8.98455 1.36647e-20 0.271463)
(-9.17002 0 -0.169251)
(-9.29778 -8.85996e-21 -0.606985)
(-9.37939 3.80818e-22 -1.03281)
(-9.42333 1.17703e-20 -1.43541)
(-9.43931 -1.12866e-20 -1.79785)
(-9.44439 -2.05969e-22 -2.1051)
(-9.45431 2.67301e-22 -2.34432)
(-9.46547 -2.96793e-21 -2.49148)
(0.894935 0 2.57938)
(0.507842 0 2.92262)
(-0.0699219 0 3.0912)
(-0.562602 0 3.22297)
(-1.03773 -2.99222e-18 3.33642)
(-1.49581 3.05951e-18 3.43061)
(-1.94755 0 3.50325)
(-2.39951 -3.2793e-19 3.5514)
(-2.85576 0 3.57212)
(-3.31808 0 3.56274)
(-3.78665 0 3.52061)
(-4.26019 4.26961e-19 3.44301)
(-4.73625 -6.13128e-19 3.32733)
(-5.21139 1.67955e-19 3.17117)
(-5.68131 0 2.97258)
(-6.14112 7.46518e-21 2.73029)
(-6.58541 -8.53977e-20 2.44389)
(-7.00837 1.62007e-19 2.11417)
(-7.40365 2.24721e-20 1.74314)
(-7.76426 -3.64697e-20 1.33427)
(-8.08289 1.41126e-20 0.892981)
(-8.35334 -1.59737e-20 0.427866)
(-8.57288 2.99668e-21 -0.047967)
(-8.74333 2.65578e-21 -0.518446)
(-8.86215 -4.28761e-21 -0.970683)
(-8.94597 -9.83694e-21 -1.39407)
(-9.0031 -1.2872e-20 -1.77029)
(-9.05095 -1.90084e-20 -2.08254)
(-9.10138 -1.56964e-22 -2.31758)
(-9.13602 2.66364e-21 -2.45659)
(1.17068 -3.62365e-18 3.03395)
(0.830115 -4.03357e-19 3.34672)
(0.27611 -3.19074e-18 3.48604)
(-0.149767 3.21509e-18 3.59658)
(-0.560113 -1.92918e-19 3.69932)
(-0.95548 0 3.78864)
(-1.3499 -3.49204e-19 3.85987)
(-1.75023 0 3.90838)
(-2.16026 1.47152e-18 3.93007)
(-2.58149 -1.14341e-18 3.92143)
(-3.01384 4.75216e-19 3.87914)
(-3.45603 -4.64493e-19 3.79991)
(-3.90563 1.96387e-19 3.68059)
(-4.35946 -3.3169e-19 3.51839)
(-4.81366 -2.62452e-19 3.31107)
(-5.26399 2.41537e-19 3.05712)
(-5.70565 -6.89114e-21 2.75589)
(-6.13329 -1.37675e-19 2.40783)
(-6.5407 0 2.01464)
(-6.92075 9.5777e-21 1.57963)
(-7.26568 -9.47629e-21 1.10853)
(-7.56845 -1.08247e-20 0.6111)
(-7.82533 -3.09345e-21 0.102095)
(-8.03775 3.05274e-21 -0.40097)
(-8.19218 4.43369e-21 -0.88019)
(-8.3137 -4.35013e-21 -1.32396)
(-8.40911 6.10256e-20 -1.7142)
(-8.49576 1.95081e-20 -2.03224)
(-8.58293 -2.02317e-20 -2.26385)
(-8.63943 -8.33525e-21 -2.39527)
(1.45645 0 3.46224)
(1.17837 6.15e-19 3.73268)
(0.668535 3.22131e-18 3.83896)
(0.335527 -3.09749e-18 3.9303)
(0.00420539 1.98877e-19 4.027)
(-0.319036 -1.85601e-18 4.11592)
(-0.650138 2.15683e-18 4.1897)
(-0.994609 -1.28048e-18 4.24205)
(-1.35502 6.42024e-19 4.26773)
(-1.73194 -5.27668e-19 4.26268)
(-2.12481 7.13516e-19 4.22307)
(-2.5321 -4.58424e-19 4.14506)
(-2.95135 0 4.02507)
(-3.37952 3.21442e-19 3.86005)
(-3.81324 2.57118e-19 3.64763)
(-4.24906 -2.41187e-20 3.38617)
(-4.68304 -7.87632e-21 3.07462)
(-5.11054 1.92798e-21 2.71296)
(-5.52599 3.10049e-20 2.30239)
(-5.92285 8.0664e-21 1.846)
(-6.29351 2.80063e-21 1.34976)
(-6.63011 5.61193e-21 0.823861)
(-6.92702 -3.97458e-20 0.282818)
(-7.18398 0 -0.255353)
(-7.37249 0 -0.762055)
(-7.53133 -2.9223e-21 -1.22528)
(-7.66522 -3.16591e-20 -1.63024)
(-7.78983 -2.38325e-21 -1.95561)
(-7.91281 -5.45637e-21 -2.18489)
(-7.9914 1.86628e-20 -2.3088)
(1.74175 3.61484e-18 3.84016)
(1.55155 -3.59121e-18 4.06079)
(1.10187 -3.54917e-18 4.13161)
(0.891714 -1.3845e-19 4.21048)
(0.649664 3.27499e-18 4.30957)
(0.405312 3.84128e-19 4.40438)
(0.141339 -1.75578e-18 4.486)
(-0.144578 1.35814e-18 4.54659)
(-0.453013 3.04679e-19 4.57966)
(-0.783011 -2.71845e-19 4.58139)
(-1.13347 -2.46676e-19 4.54776)
(-1.50256 0 4.47401)
(-1.88754 0 4.35636)
(-2.28538 -1.58994e-19 4.19166)
(-2.69313 0 3.97774)
(-3.10829 -9.6728e-20 3.71301)
(-3.52802 6.24039e-20 3.3959)
(-3.94864 4.6334e-20 3.02589)
(-4.36567 -5.5214e-20 2.60361)
(-4.77365 -3.57097e-20 2.13193)
(-5.16575 0 1.61644)
(-5.53329 4.17745e-20 1.06626)
(-5.86685 5.32825e-20 0.49472)
(-6.15695 0 -0.0764674)
(-6.40059 8.3434e-21 -0.613298)
(-6.59774 6.19979e-20 -1.09618)
(-6.77401 3.06372e-21 -1.51699)
(-6.93965 -3.01319e-21 -1.8522)
(-7.1011 2.63124e-20 -2.08115)
(-7.2045 -1.06022e-20 -2.19723)
(1.99902 0 4.15473)
(1.92354 -3.45984e-18 4.30499)
(1.58704 3.72635e-18 4.34717)
(1.50786 0 4.42192)
(1.3674 0 4.53169)
(1.20648 -1.49538e-18 4.6409)
(1.01394 1.45847e-18 4.73843)
(0.790251 0 4.81458)
(0.536747 2.81854e-19 4.86191)
(0.250768 -2.16757e-20 4.87489)
(-0.0559373 0 4.84948)
(-0.384134 0 4.78225)
(-0.731328 0 4.66908)
(-1.09438 1.49317e-19 4.50748)
(-1.4704 0 4.29594)
(-1.8582 9.76532e-20 4.03234)
(-2.25627 0 3.71453)
(-2.66202 0 3.34171)
(-3.07204 -5.32959e-21 2.91375)
(-3.48207 9.01858e-21 2.43356)
(-3.88618 7.36187e-21 1.90563)
(-4.27521 5.25816e-21 1.33665)
(-4.63746 0 0.739152)
(-4.96484 9.00202e-20 0.139068)
(-5.26951 5.08326e-21 -0.427947)
(-5.50814 -7.59635e-20 -0.932889)
(-5.73223 0 -1.36997)
(-5.94608 -1.32625e-21 -1.71846)
(-6.15347 1.3072e-21 -1.95094)
(-6.28842 0 -2.05894)
(2.24058 4.36054e-18 4.2018)
(2.23685 -3.39253e-18 4.37262)
(2.12316 1.70937e-18 4.47147)
(2.16764 -1.26687e-18 4.55563)
(2.13674 3.9952e-19 4.68119)
(2.06012 1.11048e-18 4.81537)
(1.9398 -3.84692e-19 4.93806)
(1.77898 -9.88051e-19 5.03685)
(1.58249 5.91456e-19 5.10398)
(1.35184 -2.68467e-19 5.13341)
(1.09375 0 5.12117)
(0.811154 -3.89793e-19 5.0651)
(0.507044 3.82962e-19 4.96174)
(0.180701 -1.5082e-19 4.80613)
(-0.163776 0 4.59611)
(-0.51875 7.66228e-20 4.33508)
(-0.887612 -7.52994e-20 4.01925)
(-1.26948 0 3.64722)
(-1.66211 2.22069e-20 3.21956)
(-2.06267 0 2.73757)
(-2.46791 -7.49267e-21 2.20339)
(-2.86892 -5.75947e-20 1.6236)
(-3.25228 -8.44282e-20 1.01342)
(-3.61424 -1.02546e-19 0.39559)
(-3.97932 5.92161e-21 -0.204163)
(-4.25542 -5.79345e-21 -0.73108)
(-4.53108 -7.90291e-20 -1.18066)
(-4.80313 0 -1.54592)
(-5.06959 -3.90542e-20 -1.78861)
(-5.25055 0 -1.88984)
(9.98998 -6.79056e-19 0.1138)
(9.97945 2.62774e-19 0.220746)
(9.96007 -2.73371e-19 0.326748)
(9.92955 -2.81724e-19 0.435154)
(9.89069 1.94483e-19 0.547797)
(9.84518 4.03787e-19 0.666176)
(9.79327 2.09155e-19 0.791638)
(9.73492 -1.07427e-18 0.925362)
(9.67031 8.86709e-19 1.06847)
(9.59983 -4.56013e-19 1.22217)
(9.52378 -2.3441e-19 1.38781)
(9.44268 0 1.56688)
(9.35717 0 1.76085)
(9.26763 0 1.9712)
(9.17454 -1.04417e-18 2.19964)
(9.07879 2.62734e-19 2.44824)
(8.98133 8.15536e-19 2.71921)
(8.88315 0 3.01495)
(8.7858 -2.78787e-19 3.33836)
(8.69089 0 3.69285)
(8.60045 -2.27995e-18 4.08237)
(8.5173 -2.29575e-18 4.51183)
(8.44474 2.27104e-18 4.98714)
(8.38754 -4.51834e-18 5.51578)
(8.35379 2.77921e-18 6.10721)
(8.34868 -3.29658e-18 6.77526)
(8.41705 9.76441e-19 7.53052)
(8.48759 -1.30309e-19 8.42933)
(9.27337 -9.85119e-19 9.39691)
(10.1122 -1.46747e-18 12.0688)
(9.99035 2.05265e-21 0.118213)
(9.98114 -3.41719e-19 0.229322)
(9.96401 0 0.339488)
(9.93662 1.83414e-19 0.452109)
(9.90172 -3.79564e-19 0.569024)
(9.861 5.85691e-19 0.69179)
(9.81479 0 0.821802)
(9.76307 4.16481e-19 0.960238)
(9.70603 0 1.1082)
(9.64411 0 1.26686)
(9.57773 1.35588e-21 1.43749)
(9.50754 -9.34537e-19 1.62158)
(9.43429 1.91443e-18 1.82065)
(9.3585 2.36242e-21 2.03617)
(9.28067 -1.00128e-18 2.26972)
(9.20184 7.66553e-19 2.52321)
(9.12328 -2.86236e-18 2.79883)
(9.04633 2.63425e-19 3.09883)
(8.97255 2.72651e-19 3.42576)
(8.90407 4.32008e-18 3.78271)
(8.84377 -1.11104e-20 4.17328)
(8.79508 2.17864e-18 4.60157)
(8.7625 -2.1461e-18 5.07228)
(8.75236 1.09324e-18 5.59089)
(8.77518 -1.00819e-18 6.16354)
(8.84151 2.07096e-18 6.79686)
(8.99835 0 7.49075)
(9.19065 0 8.25203)
(9.75384 8.8971e-19 8.99702)
(10.4052 6.81294e-19 9.97479)
(9.99073 2.11482e-21 0.122264)
(9.98293 -2.48011e-19 0.237207)
(9.96821 -8.58058e-20 0.351195)
(9.9441 3.54647e-19 0.467657)
(9.9133 0 0.588437)
(9.87755 -7.5867e-19 0.715148)
(9.83723 -3.9185e-19 0.849227)
(9.79233 -2.01661e-19 0.991842)
(9.7431 -4.15883e-19 1.14406)
(9.69011 4.26672e-19 1.30697)
(9.63378 2.20097e-19 1.4818)
(9.57477 9.01412e-19 1.66999)
(9.51396 -1.15131e-18 1.8731)
(9.45215 9.44341e-19 2.09255)
(9.38988 1.11504e-21 2.32977)
(9.32823 -1.96304e-18 2.58651)
(9.26877 9.97831e-19 2.86478)
(9.21313 2.48386e-19 3.16659)
(9.16306 5.08016e-19 3.49411)
(9.12103 0 3.8499)
(9.09035 -5.12661e-19 4.23682)
(9.07492 0 4.65786)
(9.0799 0 5.11602)
(9.11199 -9.82046e-19 5.61395)
(9.18132 2.99657e-18 6.15325)
(9.29641 -1.951e-18 6.7323)
(9.48665 0 7.33975)
(9.70264 -5.57209e-20 7.94659)
(10.0259 -8.2993e-19 8.5116)
(10.5574 1.7412e-18 9.17297)
(9.99111 6.2492e-19 0.125903)
(9.9848 -2.39736e-19 0.244289)
(9.97267 6.47248e-23 0.361706)
(9.952 -7.75955e-19 0.481608)
(9.9254 3.5565e-19 0.60581)
(9.89471 3.68633e-19 0.735967)
(9.86043 -7.5804e-19 0.873568)
(9.82251 7.81916e-19 1.01975)
(9.78135 0 1.17551)
(9.73759 4.11746e-19 1.34188)