/*--------------------------------*- C++ -*----------------------------------*\
| =========                 |                                                 |
| \\      /  F ield         | OpenFOAM: The Open Source CFD Toolbox           |
|  \\    /   O peration     | Version:  dev                                   |
|   \\  /    A nd           | Web:      www.OpenFOAM.org                      |
|    \\/     M anipulation  |                                                 |
\*---------------------------------------------------------------------------*/
FoamFile
{
    version     2.0;
    format      ascii;
    class       surfaceScalarField;
    location    "3.65";
    object      meshPhi;
}
// * * * * * * * * * * * * * * * * * * * * * * * * * * * * * * * * * * * * * //

dimensions      [0 3 -1 0 0 0 0];

internalField   nonuniform List<scalar> 
5457
(
-3.06096e-06
-1.10736e-07
-5.73355e-06
-3.1244e-07
-7.87773e-06
-4.77641e-07
-9.48901e-06
-6.05266e-07
-1.05975e-05
-6.9857e-07
-1.12574e-05
-7.61466e-07
-1.15386e-05
-7.98124e-07
-1.1518e-05
-8.12689e-07
-1.12717e-05
-8.09072e-07
-1.08685e-05
-7.90794e-07
-1.03644e-05
-7.60897e-07
-9.8e-06
-7.21911e-07
-9.1994e-06
-6.75887e-07
-8.57239e-06
-6.24475e-07
-7.91817e-06
-5.6905e-07
-7.23064e-06
-5.10837e-07
-6.5041e-06
-4.51036e-07
-5.7382e-06
-3.90903e-07
-4.94132e-06
-3.31792e-07
-4.1318e-06
-2.75138e-07
-3.30779e-06
-2.20593e-07
-2.49953e-06
-1.67693e-07
-1.77724e-06
-1.19782e-07
-1.17691e-06
-8.03805e-08
-7.11058e-07
-5.0106e-08
-3.79042e-07
-2.83448e-08
-1.67976e-07
-1.40116e-08
-5.50727e-08
-5.68343e-09
-1.09564e-08
-1.72644e-09
-2.83784e-10
-3.07937e-06
-2.21767e-07
-5.7665e-06
-6.2565e-07
-7.92126e-06
-9.56347e-07
-9.54e-06
-1.21177e-06
-1.06532e-05
-1.39849e-06
-1.13156e-05
-1.52436e-06
-1.15978e-05
-1.59772e-06
-1.15774e-05
-1.62689e-06
-1.13313e-05
-1.6197e-06
-1.09288e-05
-1.58319e-06
-1.04267e-05
-1.52346e-06
-9.86552e-06
-1.44557e-06
-9.26949e-06
-1.35359e-06
-8.64784e-06
-1.25084e-06
-7.99899e-06
-1.14002e-06
-7.3159e-06
-1.02359e-06
-6.5919e-06
-9.03909e-07
-5.82586e-06
-7.83493e-07
-5.02553e-06
-6.65031e-07
-4.20859e-06
-5.51358e-07
-3.3754e-06
-4.41993e-07
-2.55502e-06
-3.36081e-07
-1.81804e-06
-2.40005e-07
-1.20481e-06
-1.60892e-07
-7.2832e-07
-1.00168e-07
-3.88348e-07
-5.65622e-08
-1.72081e-07
-2.78852e-08
-5.64207e-08
-1.12625e-08
-1.12578e-08
-3.38705e-09
-5.63863e-10
-3.10312e-06
-3.32792e-07
-5.81017e-06
-9.38786e-07
-7.98116e-06
-1.43483e-06
-9.61324e-06
-1.8179e-06
-1.07374e-05
-2.09792e-06
-1.1409e-05
-2.28668e-06
-1.1699e-05
-2.39674e-06
-1.16857e-05
-2.44055e-06
-1.14465e-05
-2.42985e-06
-1.10512e-05
-2.37523e-06
-1.05566e-05
-2.28578e-06
-1.00035e-05
-2.1691e-06
-9.41558e-06
-2.0313e-06
-8.80142e-06
-1.87729e-06
-8.15858e-06
-1.71114e-06
-7.47904e-06
-1.53649e-06
-6.75522e-06
-1.35689e-06
-5.98522e-06
-1.17607e-06
-5.17643e-06
-9.98067e-07
-4.34664e-06
-8.27096e-07
-3.49556e-06
-6.62752e-07
-2.65158e-06
-5.03876e-07
-1.88931e-06
-3.59627e-07
-1.25365e-06
-2.4074e-07
-7.58632e-07
-1.49591e-07
-4.04729e-07
-8.4237e-08
-1.79311e-07
-4.13589e-08
-5.87778e-08
-1.65955e-08
-1.17692e-08
-4.92307e-09
-8.16077e-10
-3.13079e-06
-4.43416e-07
-5.86247e-06
-1.25075e-06
-8.05502e-06
-1.91145e-06
-9.70627e-06
-2.42159e-06
-1.08478e-05
-2.79448e-06
-1.15354e-05
-3.04588e-06
-1.18406e-05
-3.19251e-06
-1.18419e-05
-3.25096e-06
-1.1617e-05
-3.23684e-06
-1.12356e-05
-3.16421e-06
-1.07546e-05
-3.04519e-06
-1.0214e-05
-2.88986e-06
-9.63725e-06
-2.70636e-06
-9.03202e-06
-2.50121e-06
-8.39501e-06
-2.27982e-06
-7.71732e-06
-2.04701e-06
-6.99055e-06
-1.80749e-06
-6.2123e-06
-1.56625e-06
-5.38988e-06
-1.32864e-06
-4.54161e-06
-1.10031e-06
-3.66405e-06
-8.81047e-07
-2.78566e-06
-6.69461e-07
-1.98838e-06
-4.77341e-07
-1.32154e-06
-3.18971e-07
-8.0072e-07
-1.97714e-07
-4.27421e-07
-1.10946e-07
-1.89278e-07
-5.41974e-08
-6.19884e-08
-2.15791e-08
-1.24415e-08
-6.30988e-09
-1.03672e-09
-3.16605e-06
-5.53355e-07
-5.92964e-06
-1.56074e-06
-8.15043e-06
-2.38497e-06
-9.82705e-06
-3.02127e-06
-1.09918e-05
-3.48634e-06
-1.17013e-05
-3.79991e-06
-1.20273e-05
-3.98285e-06
-1.20487e-05
-4.05584e-06
-1.18433e-05
-4.03832e-06
-1.14808e-05
-3.94779e-06
-1.10176e-05
-3.79934e-06
-1.04934e-05
-3.60552e-06
-9.93067e-06
-3.37645e-06
-9.33625e-06
-3.12029e-06
-8.70575e-06
-2.84378e-06
-8.02922e-06
-2.5529e-06
-7.29744e-06
-2.25356e-06
-6.50745e-06
-1.95197e-06
-5.6665e-06
-1.65483e-06
-4.79343e-06
-1.36924e-06
-3.88095e-06
-1.09532e-06
-2.95797e-06
-8.31507e-07
-2.1155e-06
-5.92118e-07
-1.40846e-06
-3.94856e-07
-8.54428e-07
-2.44061e-07
-4.56239e-07
-1.36422e-07
-2.01855e-07
-6.62796e-08
-6.59949e-08
-2.61806e-08
-1.32563e-08
-7.55408e-09
-1.22911e-09
-3.20903e-06
-6.62308e-07
-6.01176e-06
-1.86791e-06
-8.26735e-06
-2.85405e-06
-9.97541e-06
-3.61516e-06
-1.11692e-05
-4.17137e-06
-1.19059e-05
-4.54639e-06
-1.22581e-05
-4.76521e-06
-1.23047e-05
-4.85254e-06
-1.21237e-05
-4.83159e-06
-1.17846e-05
-4.72322e-06
-1.13433e-05
-4.54546e-06
-1.08388e-05
-4.31328e-06
-1.02926e-05
-4.03882e-06
-9.71043e-06
-3.73181e-06
-9.08671e-06
-3.40033e-06
-8.4104e-06
-3.05158e-06
-7.67131e-06
-2.69262e-06
-6.86595e-06
-2.33091e-06
-6.00152e-06
-1.97452e-06
-5.09743e-06
-1.63199e-06
-4.14216e-06
-1.30391e-06
-3.16519e-06
-9.88688e-07
-2.26816e-06
-7.02997e-07
-1.51265e-06
-4.67775e-07
-9.18652e-07
-2.88292e-07
-4.90605e-07
-1.60521e-07
-2.1681e-07
-7.75812e-08
-7.07332e-08
-3.04233e-08
-1.42013e-08
-8.68007e-09
-1.40073e-09
-3.25982e-06
-7.69967e-07
-6.10886e-06
-2.17135e-06
-8.40567e-06
-3.31725e-06
-1.0151e-05
-4.20135e-06
-1.13793e-05
-4.84728e-06
-1.21485e-05
-5.28273e-06
-1.25318e-05
-5.53679e-06
-1.26085e-05
-5.63813e-06
-1.24564e-05
-5.61363e-06
-1.21447e-05
-5.48745e-06
-1.17287e-05
-5.28049e-06
-1.12466e-05
-5.01011e-06
-1.07187e-05
-4.69041e-06
-1.01497e-05
-4.33276e-06
-9.53256e-06
-3.94658e-06
-8.85513e-06
-3.54025e-06
-8.10624e-06
-3.12205e-06
-7.2818e-06
-2.70066e-06
-6.38902e-06
-2.28555e-06
-5.44801e-06
-1.8867e-06
-4.44279e-06
-1.5053e-06
-3.40354e-06
-1.13987e-06
-2.44366e-06
-8.09243e-07
-1.63239e-06
-5.37342e-07
-9.92479e-07
-3.30274e-07
-5.30151e-07
-1.83264e-07
-2.3406e-07
-8.81821e-08
-7.62097e-08
-3.43788e-08
-1.5283e-08
-9.72402e-09
-1.56042e-09
-3.31848e-06
-8.76032e-07
-6.22092e-06
-2.47017e-06
-8.56513e-06
-3.77311e-06
-1.03533e-05
-4.77786e-06
-1.16212e-05
-5.51166e-06
-1.24278e-05
-6.00621e-06
-1.28468e-05
-6.29464e-06
-1.29578e-05
-6.4095e-06
-1.28384e-05
-6.38126e-06
-1.25575e-05
-6.23727e-06
-1.21696e-05
-6.0012e-06
-1.17119e-05
-5.69279e-06
-1.12036e-05
-5.3281e-06
-1.0648e-05
-4.9201e-06
-1.00368e-05
-4.47957e-06
-9.35659e-06
-4.01615e-06
-8.59521e-06
-3.53929e-06
-7.74806e-06
-3.05896e-06
-6.82236e-06
-2.58598e-06
-5.83902e-06
-2.1318e-06
-4.77764e-06
-1.6983e-06
-3.6692e-06
-1.28428e-06
-2.63958e-06
-9.10489e-07
-1.76642e-06
-6.03502e-07
-1.07545e-06
-3.70139e-07
-5.74874e-07
-2.04852e-07
-2.53752e-07
-9.82622e-08
-8.25271e-08
-3.81587e-08
-1.65306e-08
-1.0731e-08
-1.71593e-09
-3.38504e-06
-9.80225e-07
-6.34784e-06
-2.76354e-06
-8.74537e-06
-4.22019e-06
-1.05816e-05
-5.34271e-06
-1.18938e-05
-6.16206e-06
-1.27422e-05
-6.71401e-06
-1.3201e-05
-7.03572e-06
-1.335e-05
-7.16349e-06
-1.32667e-05
-7.13124e-06
-1.30193e-05
-6.96942e-06
-1.26615e-05
-6.70438e-06
-1.22294e-05
-6.35818e-06
-1.17411e-05
-5.9488e-06
-1.11985e-05
-5.49086e-06
-1.0592e-05
-4.99653e-06
-9.90706e-06
-4.47672e-06
-9.13051e-06
-3.9421e-06
-8.25724e-06
-3.40392e-06
-7.29459e-06
-2.87433e-06
-6.26433e-06
-2.36622e-06
-5.14183e-06
-1.88228e-06
-3.95896e-06
-1.42168e-06
-2.85432e-06
-1.00686e-06
-1.9143e-06
-6.66607e-07
-1.16786e-06
-4.08323e-07
-6.25351e-07
-2.25683e-07
-2.76368e-07
-1.08105e-07
-8.99248e-08
-4.19152e-08
-1.8006e-08
-1.1757e-08
-1.87752e-09
-3.45955e-06
-1.08232e-06
-6.48953e-06
-3.05071e-06
-8.94592e-06
-4.65717e-06
-1.08349e-05
-5.89395e-06
-1.21957e-05
-6.79603e-06
-1.30898e-05
-7.40334e-06
-1.3592e-05
-7.75699e-06
-1.37823e-05
-7.89693e-06
-1.37376e-05
-7.86038e-06
-1.35255e-05
-7.68073e-06
-1.3199e-05
-7.38693e-06
-1.2793e-05
-7.00327e-06
-1.23243e-05
-6.54969e-06
-1.17937e-05
-6.04242e-06
-1.11903e-05
-5.49508e-06
-1.04984e-05
-4.91988e-06
-9.7041e-06
-4.32876e-06
-8.80185e-06
-3.73423e-06
-7.79909e-06
-3.14976e-06
-6.71847e-06
-2.58959e-06
-5.53148e-06
-2.0573e-06
-4.27085e-06
-1.55252e-06
-3.0876e-06
-1.09906e-06
-2.07697e-06
-7.27492e-07
-1.2712e-06
-4.45619e-07
-6.83024e-07
-2.46389e-07
-3.02907e-07
-1.18125e-07
-9.8864e-08
-4.5859e-08
-1.98286e-08
-1.28777e-08
-2.05871e-09
-3.54213e-06
-1.18215e-06
-6.6459e-06
-3.33112e-06
-9.1662e-06
-5.08286e-06
-1.11122e-05
-6.42975e-06
-1.25253e-05
-7.41123e-06
-1.34685e-05
-8.0715e-06
-1.40171e-05
-8.45553e-06
-1.4251e-05
-8.60681e-06
-1.42469e-05
-8.56566e-06
-1.40714e-05
-8.36826e-06
-1.37765e-05
-8.04603e-06
-1.33962e-05
-7.62545e-06
-1.29461e-05
-7.12834e-06
-1.24257e-05
-6.57262e-06
-1.18234e-05
-5.97339e-06
-1.11224e-05
-5.3442e-06
-1.03082e-05
-4.69827e-06
-9.37487e-06
-4.04939e-06
-8.33009e-06
-3.41228e-06
-7.19726e-06
-2.80241e-06
-5.94432e-06
-2.22428e-06
-4.60474e-06
-1.67804e-06
-3.34115e-06
-1.18852e-06
-2.25727e-06
-7.87561e-07
-1.38865e-06
-4.83256e-07
-7.50655e-07
-2.67911e-07
-3.35219e-07
-1.28934e-07
-1.10208e-07
-5.03065e-08
-2.22371e-08
-1.42106e-08
-2.28339e-09
-3.63298e-06
-1.27971e-06
-6.81694e-06
-3.60449e-06
-9.40554e-06
-5.49633e-06
-1.14121e-05
-6.94845e-06
-1.28807e-05
-8.00546e-06
-1.38757e-05
-8.71589e-06
-1.44732e-05
-9.12857e-06
-1.47527e-05
-9.29029e-06
-1.47903e-05
-9.24432e-06
-1.46519e-05
-9.02939e-06
-1.43884e-05
-8.67926e-06
-1.40326e-05
-8.22252e-06
-1.35993e-05
-7.68288e-06
-1.3087e-05
-7.07995e-06
-1.24834e-05
-6.43033e-06
-1.17712e-05
-5.749e-06
-1.09355e-05
-5.05047e-06
-9.97026e-06
-4.34978e-06
-8.88317e-06
-3.66281e-06
-7.69827e-06
-3.00613e-06
-6.3802e-06
-2.38509e-06
-4.96287e-06
-1.80035e-06
-3.61914e-06
-1.27739e-06
-2.4605e-06
-8.48866e-07
-1.52571e-06
-5.23009e-07
-8.33017e-07
-2.91636e-07
-3.76624e-07
-1.41477e-07
-1.25619e-07
-5.57824e-08
-2.57407e-08
-1.59683e-08
-2.59916e-09
-3.73256e-06
-1.37511e-06
-7.00284e-06
-3.87089e-06
-9.66319e-06
-5.89695e-06
-1.17331e-05
-7.44855e-06
-1.32597e-05
-8.57662e-06
-1.43088e-05
-9.33411e-06
-1.4957e-05
-9.77351e-06
-1.52835e-05
-9.94479e-06
-1.53636e-05
-9.89386e-06
-1.52621e-05
-9.66182e-06
-1.50289e-05
-9.28459e-06
-1.46958e-05
-8.79279e-06
-1.42769e-05
-8.212e-06
-1.37702e-05
-7.56351e-06
-1.3163e-05
-6.86551e-06
-1.24379e-05
-6.1344e-06
-1.158e-05
-5.38604e-06
-1.05832e-05
-4.63664e-06
-9.45551e-06
-3.90318e-06
-8.22114e-06
-3.20309e-06
-6.84143e-06
-2.54248e-06
-5.35012e-06
-1.92243e-06
-3.92858e-06
-1.36866e-06
-2.69499e-06
-9.14198e-07
-1.69104e-06
-5.67349e-07
-9.3797e-07
-3.19605e-07
-4.33077e-07
-1.57278e-07
-1.48451e-07
-6.32383e-08
-3.15288e-08
-1.85899e-08
-3.1148e-09
-3.84162e-06
-1.46878e-06
-7.20412e-06
-4.13101e-06
-9.93826e-06
-6.28451e-06
-1.20734e-05
-7.92871e-06
-1.36598e-05
-9.1228e-06
-1.47648e-05
-9.92385e-06
-1.54651e-05
-1.03879e-05
-1.58396e-05
-1.05679e-05
-1.59624e-05
-1.05121e-05
-1.58971e-05
-1.02636e-05
-1.56925e-05
-9.86041e-06
-1.538e-05
-9.33505e-06
-1.49727e-05
-8.71493e-06
-1.44689e-05
-8.02305e-06
-1.38557e-05
-7.2792e-06
-1.31164e-05
-6.50124e-06
-1.22365e-05
-5.70639e-06
-1.12103e-05
-4.91201e-06
-1.00459e-05
-4.136e-06
-8.76746e-06
-3.39648e-06
-7.3327e-06
-2.70008e-06
-5.77405e-06
-2.0481e-06
-4.2794e-06
-1.46611e-06
-2.97242e-06
-9.87158e-07
-1.89728e-06
-6.19612e-07
-1.078e-06
-3.54806e-07
-5.15353e-07
-1.7885e-07
-1.8592e-07
-7.45188e-08
-4.2708e-08
-2.30943e-08
-4.12365e-09
-3.95218e-06
-1.55196e-06
-7.4165e-06
-4.37197e-06
-1.02319e-05
-6.65705e-06
-1.2433e-05
-8.39274e-06
-1.40808e-05
-9.64716e-06
-1.52431e-05
-1.04884e-05
-1.59968e-05
-1.09752e-05
-1.64201e-05
-1.11632e-05
-1.65856e-05
-1.11028e-05
-1.65556e-05
-1.08388e-05
-1.63781e-05
-1.0411e-05
-1.60835e-05
-9.85372e-06
-1.5685e-05
-9.1963e-06
-1.51812e-05
-8.46341e-06
-1.456e-05
-7.67644e-06
-1.38056e-05
-6.85479e-06
-1.29048e-05
-6.01701e-06
-1.18529e-05
-5.18159e-06
-1.06582e-05
-4.36725e-06
-9.34433e-06
-3.59257e-06
-7.86464e-06
-2.86441e-06
-6.24839e-06
-2.1839e-06
-4.68791e-06
-1.57604e-06
-3.31147e-06
-1.07374e-06
-2.16526e-06
-6.85528e-07
-1.27565e-06
-4.02775e-07
-6.46734e-07
-2.11578e-07
-2.59207e-07
-9.46582e-08
-7.32014e-08
-3.34094e-08
-7.42188e-09
2.64001e-09
-2.31741e-10
1.30206e-08
-1.4861e-09
3.91745e-08
-5.44384e-09
8.46698e-08
-1.41942e-08
1.45906e-07
-2.96324e-08
2.10324e-07
-5.3102e-08
2.55955e-07
-8.51243e-08
2.52464e-07
-1.25267e-07
1.63776e-07
-1.72201e-07
-6.26573e-08
-2.20083e-07
-4.76097e-07
-2.59492e-07
-1.08985e-06
-2.86673e-07
-1.89847e-06
-3.02438e-07
-2.88578e-06
-3.0645e-07
-4.01561e-06
-2.98314e-07
-5.2341e-06
-2.78708e-07
-6.47437e-06
-2.49286e-07
-7.6627e-06
-2.12435e-07
-8.72498e-06
-1.7097e-07
-9.59248e-06
-1.27809e-07
-1.0206e-05
-8.5699e-08
-1.05182e-05
-4.70079e-08
-1.04939e-05
-1.36168e-08
-1.01093e-05
1.31086e-08
-9.35004e-06
3.22832e-08
-8.20959e-06
4.34384e-08
-6.68789e-06
4.64592e-08
-4.79089e-06
4.15489e-08
-2.53082e-06
2.92343e-08
1.07265e-08
2.76558e-09
-4.70015e-10
1.36602e-08
-3.01919e-09
4.10331e-08
-1.09681e-08
8.86097e-08
-2.84647e-08
1.52874e-07
-5.92364e-08
2.21216e-07
-1.05916e-07
2.7141e-07
-1.69503e-07
2.72604e-07
-2.49095e-07
1.87776e-07
-3.41951e-07
-3.59244e-08
-4.36793e-07
-4.50239e-07
-5.15052e-07
-1.06931e-06
-5.68661e-07
-1.8857e-06
-5.99377e-07
-2.88281e-06
-6.06937e-07
-4.02365e-06
-5.90486e-07
-5.25331e-06
-5.51361e-07
-6.50389e-06
-4.92841e-07
-7.70083e-06
-4.19655e-07
-8.76948e-06
-3.37377e-07
-9.64086e-06
-2.51784e-07
-1.02559e-05
-1.68309e-07
-1.05673e-05
-9.16401e-08
-1.05405e-05
-2.55009e-08
-1.01518e-05
2.74012e-08
-9.38733e-06
6.53073e-08
-8.24077e-06
8.72803e-08
-6.71216e-06
9.30824e-08
-4.80751e-06
8.31081e-08
-2.53911e-06
5.84035e-08
2.14107e-08
2.91002e-09
-7.20027e-10
1.44132e-08
-4.59806e-09
4.32704e-08
-1.65178e-08
9.35078e-08
-4.25824e-08
1.61917e-07
-8.82176e-08
2.36079e-07
-1.57239e-07
2.93699e-07
-2.51062e-07
3.0347e-07
-3.68292e-07
2.27542e-07
-5.04771e-07
1.07437e-08
-6.44303e-07
-4.02034e-07
-7.59693e-07
-1.02494e-06
-8.38309e-07
-1.84891e-06
-8.82874e-07
-2.85695e-06
-8.93508e-07
-4.01114e-06
-8.689e-07
-5.25538e-06
-8.10992e-07
-6.52049e-06
-7.24584e-07
-7.73076e-06
-6.1662e-07
-8.81069e-06
-4.95283e-07
-9.69075e-06
-3.69065e-07
-1.03115e-05
-2.4596e-07
-1.06259e-05
-1.32877e-07
-1.05992e-05
-3.53189e-08
-1.02081e-05
4.26987e-08
-9.43888e-06
9.85505e-08
-8.2855e-06
1.30819e-07
-6.74813e-06
1.39123e-07
-4.83291e-06
1.24019e-07
-2.55228e-06
8.70537e-08
3.18897e-08
3.05672e-09
-9.77536e-10
1.51916e-08
-6.19046e-09
4.56491e-08
-2.19839e-08
9.89124e-08
-5.62556e-08
1.72311e-07
-1.15944e-07
2.53878e-07
-2.059e-07
3.21455e-07
-3.27877e-07
3.43403e-07
-4.79998e-07
2.81118e-07
-6.56793e-07
7.51782e-08
-8.37639e-07
-3.33508e-07
-9.87381e-07
-9.58272e-07
-1.08899e-06
-1.789e-06
-1.14614e-06
-2.80834e-06
-1.15944e-06
-3.97744e-06
-1.12715e-06
-5.23891e-06
-1.05175e-06
-6.52215e-06
-9.39421e-07
-7.75008e-06
-7.99108e-07
-8.84598e-06
-6.41386e-07
-9.73945e-06
-4.77253e-07
-1.03705e-05
-3.1708e-07
-1.06916e-05
-1.69864e-07
-1.06679e-05
-4.27976e-08
-1.02764e-05
5.88377e-08
-9.50327e-06
1.31557e-07
-8.34268e-06
1.73444e-07
-6.79501e-06
1.83939e-07
-4.8666e-06
1.63726e-07
-2.57011e-06
1.14812e-07
4.20332e-08
3.23762e-09
-1.23494e-09
1.61404e-08
-7.75237e-09
4.85691e-08
-2.72429e-08
1.05615e-07
-6.9213e-08
1.85292e-07
-1.41904e-07
2.76199e-07
-2.51032e-07
3.56355e-07
-3.98598e-07
3.93721e-07
-5.8225e-07
3.48685e-07
-7.95329e-07
1.56393e-07
-1.01332e-06
-2.47252e-07
-1.19394e-06
-8.74459e-07
-1.31612e-06
-1.71375e-06
-1.3844e-06
-2.74732e-06
-1.39992e-06
-3.93522e-06
-1.36058e-06
-5.21848e-06
-1.26929e-06
-6.52473e-06
-1.13343e-06
-7.77516e-06
-9.6374e-07
-8.89155e-06
-7.7291e-07
-9.80232e-06
-5.74184e-07
-1.04467e-05
-3.80099e-07
-1.07766e-05
-2.01567e-07
-1.07573e-05
-4.73598e-08
-1.03653e-05
7.60305e-08
-9.58721e-06
1.64272e-07
-8.41734e-06
2.14932e-07
-6.85633e-06
2.27235e-07
-4.91074e-06
2.01944e-07
-2.59351e-06
1.41476e-07
5.17674e-08
3.45967e-09
-1.48222e-09
1.72834e-08
-9.23082e-09
5.20757e-08
-3.21511e-08
1.13656e-07
-8.11611e-08
2.00804e-07
-1.6559e-07
3.02708e-07
-2.9184e-07
3.97533e-07
-4.62051e-07
4.52733e-07
-6.73401e-07
4.27505e-07
-9.18159e-07
2.50574e-07
-1.16849e-06
-1.48188e-07
-1.37601e-06
-7.79466e-07
-1.51603e-06
-1.62983e-06
-1.59385e-06
-2.68093e-06
-1.61114e-06
-3.89147e-06
-1.56547e-06
-5.20065e-06
-1.46012e-06
-6.53408e-06
-1.30349e-06
-7.81096e-06
-1.10782e-06
-8.95138e-06
-8.87633e-07
-9.88242e-06
-6.58139e-07
-1.05423e-05
-4.33778e-07
-1.08826e-05
-2.27185e-07
-1.08679e-05
-4.8584e-08
-1.04751e-05
9.43957e-08
-9.69069e-06
1.96593e-07
-8.50931e-06
2.55043e-07
-6.93182e-06
2.68713e-07
-4.96508e-06
2.38392e-07
-2.62231e-06
1.66846e-07
6.10191e-08
3.71947e-09
-1.70874e-09
1.8599e-08
-1.05723e-08
5.6092e-08
-3.65663e-08
1.22834e-07
-9.1821e-08
2.18392e-07
-1.86545e-07
3.32503e-07
-3.2764e-07
4.43386e-07
-5.1728e-07
5.17855e-07
-7.52161e-07
5.13763e-07
-1.02359e-06
3.52621e-07
-1.30102e-06
-4.2619e-08
-1.53107e-06
-6.80648e-07
-1.686e-06
-1.54534e-06
-1.77168e-06
-2.61755e-06
-1.79028e-06
-3.85442e-06
-1.73909e-06
-5.19313e-06
-1.6217e-06
-6.55706e-06
-1.4473e-06
-7.86333e-06
-1.22936e-06
-9.03021e-06
-9.83942e-07
-9.98334e-06
-7.27877e-07
-1.066e-05
-4.77246e-07
-1.1011e-05
-2.46189e-07
-1.10008e-05
-4.62335e-08
-1.06062e-05
1.13934e-07
-9.81379e-06
2.28351e-07
-8.61841e-06
2.93504e-07
-7.02121e-06
3.08062e-07
-5.02936e-06
2.72787e-07
-2.65636e-06
1.90721e-07
6.97156e-08
3.9978e-09
-1.90566e-09
1.99994e-08
-1.17327e-08
6.03707e-08
-4.03755e-08
1.3262e-07
-1.00975e-07
2.37086e-07
-2.04421e-07
3.63973e-07
-3.57937e-07
4.91429e-07
-5.63619e-07
5.85482e-07
-8.17674e-07
6.02484e-07
-1.11052e-06
4.56147e-07
-1.40955e-06
6.1819e-08
-1.65756e-06
-5.86669e-07
-1.82434e-06
-1.46962e-06
-1.91615e-06
-2.56675e-06
-1.93561e-06
-3.83342e-06
-1.87978e-06
-5.20459e-06
-1.75245e-06
-6.60138e-06
-1.56345e-06
-7.93878e-06
-1.32718e-06
-9.13327e-06
-1.06087e-06
-1.01091e-05
-7.82684e-07
-1.08025e-05
-5.10038e-07
-1.11638e-05
-2.58349e-07
-1.11572e-05
-4.02835e-08
-1.07592e-05
1.34505e-07
-9.95662e-06
2.59288e-07
-8.7445e-06
3.29991e-07
-7.12425e-06
3.44951e-07
-5.1033e-06
3.04838e-07
-2.69547e-06
2.12901e-07
7.77837e-08
4.25265e-09
-2.06809e-09
2.13089e-08
-1.26883e-08
6.44457e-08
-4.35216e-08
1.4208e-07
-1.08518e-07
2.55296e-07
-2.19052e-07
3.94684e-07
-3.82502e-07
5.38195e-07
-6.00786e-07
6.50924e-07
-8.6961e-07
6.87543e-07
-1.17859e-06
5.53549e-07
-1.4936e-06
1.56247e-07
-1.75491e-06
-5.07396e-07
-1.93044e-06
-1.41312e-06
-2.02665e-06
-2.53911e-06
-2.04649e-06
-3.83865e-06
-1.9869e-06
-5.24443e-06
-1.85181e-06
-6.67532e-06
-1.65143e-06
-8.0443e-06
-1.40085e-06
-9.26619e-06
-1.11812e-06
-1.0264e-05
-8.22392e-07
-1.09731e-05
-5.32122e-07
-1.13432e-05
-2.63759e-07
-1.13381e-05
-3.09417e-08
-1.09345e-05
1.55812e-07
-1.01193e-05
2.89045e-07
-8.88742e-06
3.64125e-07
-7.24065e-06
3.79014e-07
-5.18665e-06
3.34239e-07
-2.73949e-06
2.33177e-07
8.51485e-08
4.40797e-09
-2.19861e-09
2.22322e-08
-1.34499e-08
6.75727e-08
-4.60355e-08
1.49788e-07
-1.14507e-07
2.70714e-07
-2.30523e-07
4.21277e-07
-4.01453e-07
5.79161e-07
-6.28959e-07
7.08406e-07
-9.08261e-07
7.61765e-07
-1.22822e-06
6.36156e-07
-1.55373e-06
2.30673e-07
-1.82368e-06
-4.53776e-07
-2.00483e-06
-1.38728e-06
-2.10367e-06
-2.546e-06
-2.1234e-06
-3.88094e-06
-2.06091e-06
-5.32251e-06
-1.92019e-06
-6.78749e-06
-1.71167e-06
-8.18709e-06
-1.45077e-06
-9.43471e-06
-1.15609e-06
-1.04523e-05
-8.47399e-07
-1.11747e-05
-5.43908e-07
-1.1551e-05
-2.62852e-07
-1.15449e-05
-1.86633e-08
-1.11329e-05
1.77383e-07
-1.03018e-05
3.17152e-07
-9.04698e-06
3.95453e-07
-7.3701e-06
4.09847e-07
-5.27909e-06
3.60662e-07
-2.78824e-06
2.51333e-07
9.17324e-08
4.32843e-09
-2.31173e-09
2.22946e-08
-1.40826e-08
6.86285e-08
-4.80771e-08
1.53703e-07
-1.19223e-07
2.80174e-07
-2.39238e-07
4.39345e-07
-4.15326e-07
6.08672e-07
-6.48857e-07
7.51124e-07
-9.34636e-07
8.17164e-07
-1.26082e-06
6.94491e-07
-1.59165e-06
2.74143e-07
-1.86563e-06
-4.37707e-07
-2.04919e-06
-1.40431e-06
-2.14882e-06
-2.59935e-06
-2.1679e-06
-3.97146e-06
-2.10333e-06
-5.44889e-06
-1.95905e-06
-6.94658e-06
-1.74548e-06
-8.37433e-06
-1.47815e-06
-9.64452e-06
-1.17584e-06
-1.06784e-05
-8.58662e-07
-1.14103e-05
-5.46256e-07
-1.17892e-05
-2.56405e-07
-1.17785e-05
-4.15671e-09
-1.13545e-05
1.98569e-07
-1.05043e-05
3.43017e-07
-9.2229e-06
4.23447e-07
-7.51225e-06
4.36999e-07
-5.38031e-06
3.83754e-07
-2.84152e-06
2.67139e-07
9.74547e-08
3.7524e-09
-2.44568e-09
2.07034e-08
-1.47452e-08
6.59161e-08
-5.00071e-08
1.50957e-07
-1.23262e-07
2.79459e-07
-2.4601e-07
4.43261e-07
-4.25148e-07
6.19841e-07
-6.61794e-07
7.71329e-07
-9.50521e-07
8.45414e-07
-1.2789e-06
7.18723e-07
-1.61044e-06
2.74855e-07
-1.88382e-06
-4.71944e-07
-2.06632e-06
-1.47701e-06
-2.16479e-06
-2.71139e-06
-2.18264e-06
-4.12142e-06
-2.11669e-06
-5.63346e-06
-1.97075e-06
-7.161e-06
-1.75505e-06
-8.61289e-06
-1.48493e-06
-9.90096e-06
-1.1791e-06
-1.09462e-05
-8.57679e-07
-1.16827e-05
-5.40456e-07
-1.20594e-05
-2.45526e-07
-1.20397e-05
1.16232e-08
-1.15998e-05
2.18546e-07
-1.07265e-05
3.6593e-07
-9.41483e-06
4.47504e-07
-7.66665e-06
4.59975e-07
-5.48992e-06
4.03141e-07
-2.89911e-06
2.80355e-07
1.02231e-07
2.10386e-09
-2.69252e-09
1.60154e-08
-1.57822e-08
5.67774e-08
-5.25216e-08
1.37509e-07
-1.27666e-07
2.63021e-07
-2.52155e-07
4.25935e-07
-4.32479e-07
6.04324e-07
-6.69659e-07
7.6038e-07
-9.5846e-07
8.38843e-07
-1.28627e-06
6.99426e-07
-1.61482e-06
2.20006e-07
-1.88253e-06
-5.70065e-07
-2.05987e-06
-1.61848e-06
-2.15518e-06
-2.89423e-06
-2.1712e-06
-4.34168e-06
-2.1045e-06
-5.88561e-06
-1.95859e-06
-7.43858e-06
-1.74337e-06
-8.90902e-06
-1.4738e-06
-1.02088e-05
-1.16821e-06
-1.1259e-05
-8.46446e-07
-1.19941e-05
-5.28196e-07
-1.23631e-05
-2.31632e-07
-1.23292e-05
2.74944e-08
-1.18687e-05
2.3633e-07
-1.09681e-05
3.85072e-07
-9.6222e-06
4.66953e-07
-7.83273e-06
4.78241e-07
-5.60746e-06
4.18424e-07
-2.96074e-06
2.9073e-07
1.05975e-07
-2.04068e-09
-3.28432e-09
5.35468e-09
-1.79417e-08
3.68764e-08
-5.69095e-08
1.07633e-07
-1.34111e-07
2.23632e-07
-2.59589e-07
3.78495e-07
-4.39415e-07
5.51868e-07
-6.7479e-07
7.08395e-07
-9.61465e-07
7.92713e-07
-1.28826e-06
6.28994e-07
-1.61179e-06
9.46319e-08
-1.86705e-06
-7.46528e-07
-2.03375e-06
-1.84173e-06
-2.12427e-06
-3.15945e-06
-2.13805e-06
-4.64228e-06
-2.07107e-06
-6.2138e-06
-1.92661e-06
-7.78616e-06
-1.71413e-06
-9.26803e-06
-1.44802e-06
-1.05719e-05
-1.146e-06
-1.16196e-05
-8.27381e-07
-1.23461e-05
-5.11502e-07
-1.27007e-05
-2.16398e-07
-1.2647e-05
4.20831e-08
-1.21608e-05
2.508e-07
-1.12284e-05
3.99537e-07
-9.84429e-06
4.81067e-07
-8.00978e-06
4.9123e-07
-5.73235e-06
4.2919e-07
-3.02611e-06
2.98009e-07
1.08596e-07
-1.46566e-08
-5.34927e-09
-1.86816e-08
-2.36853e-08
-1.8741e-09
-6.61323e-08
5.25053e-08
-1.45566e-07
1.51292e-07
-2.71196e-07
2.89172e-07
-4.48753e-07
4.4854e-07
-6.79804e-07
6.0123e-07
-9.6215e-07
6.82766e-07
-1.28372e-06
4.75743e-07
-1.59468e-06
-1.2451e-07
-1.83341e-06
-1.01791e-06
-1.99026e-06
-2.16071e-06
-2.0766e-06
-3.51946e-06
-2.08795e-06
-5.03417e-06
-2.02095e-06
-6.62745e-06
-1.87901e-06
-8.21163e-06
-1.67113e-06
-9.69631e-06
-1.41096e-06
-1.09952e-05
-1.11539e-06
-1.20316e-05
-8.02982e-07
-1.27414e-05
-4.92466e-07
-1.30744e-05
-2.01546e-07
-1.29944e-05
5.39913e-08
-1.24769e-05
2.60836e-07
-1.15078e-05
4.08438e-07
-1.00812e-05
4.89156e-07
-8.19779e-06
4.98422e-07
-5.86456e-06
4.35072e-07
-3.09516e-06
3.01969e-07
1.10022e-07
-4.20276e-06
-1.61645e-06
-7.91204e-06
-4.56979e-06
-1.09434e-05
-6.99313e-06
-1.33081e-05
-8.84026e-06
-1.50835e-05
-1.01594e-05
-1.63518e-05
-1.10367e-05
-1.71917e-05
-1.15447e-05
-1.76832e-05
-1.17405e-05
-1.79e-05
-1.16763e-05
-1.79051e-05
-1.1398e-05
-1.77473e-05
-1.09469e-05
-1.74578e-05
-1.03596e-05
-1.70506e-05
-9.66704e-06
-1.65249e-05
-8.89558e-06
-1.587e-05
-8.06829e-06
-1.50712e-05
-7.20612e-06
-1.41168e-05
-6.32895e-06
-1.30034e-05
-5.45637e-06
-1.17407e-05
-4.60784e-06
-1.03526e-05
-3.80222e-06
-8.7847e-06
-3.04636e-06
-7.0605e-06
-2.34054e-06
-5.38197e-06
-1.70861e-06
-3.88742e-06
-1.18338e-06
-2.62684e-06
-7.73956e-07
-1.62917e-06
-4.71911e-07
-9.01447e-07
-2.63379e-07
-4.27351e-07
-1.31267e-07
-1.69648e-07
-5.69873e-08
-2.25584e-08
-5.81912e-08
-4.38977e-06
-1.6696e-06
-8.29046e-06
-4.72557e-06
-1.15225e-05
-7.26239e-06
-1.40597e-05
-9.23623e-06
-1.59572e-05
-1.06512e-05
-1.73201e-05
-1.15726e-05
-1.82412e-05
-1.20987e-05
-1.87999e-05
-1.23027e-05
-1.90691e-05
-1.22361e-05
-1.91113e-05
-1.19452e-05
-1.89758e-05
-1.14729e-05
-1.86946e-05
-1.08581e-05
-1.82824e-05
-1.01332e-05
-1.77401e-05
-9.32645e-06
-1.70588e-05
-8.46237e-06
-1.62265e-05
-7.56348e-06
-1.52337e-05
-6.651e-06
-1.40798e-05
-5.74556e-06
-1.27763e-05
-4.86727e-06
-1.13481e-05
-4.03533e-06
-9.73283e-06
-3.25643e-06
-7.93879e-06
-2.52885e-06
-6.17196e-06
-1.87396e-06
-4.58318e-06
-1.32509e-06
-3.22577e-06
-8.92902e-07
-2.13109e-06
-5.69554e-07
-1.30761e-06
-3.41349e-07
-7.42501e-07
-1.91329e-07
-4.00515e-07
-1.01158e-07
-5.41111e-08
-2.42521e-07
-4.58183e-06
-1.71709e-06
-8.66325e-06
-4.85856e-06
-1.20847e-05
-7.47221e-06
-1.48248e-05
-9.54349e-06
-1.689e-05
-1.10772e-05
-1.83651e-05
-1.20827e-05
-1.93713e-05
-1.26378e-05
-2.00026e-05
-1.28488e-05
-2.03281e-05
-1.27825e-05
-2.04093e-05
-1.24815e-05
-2.0297e-05
-1.19905e-05
-2.0024e-05
-1.13515e-05
-1.96063e-05
-1.05983e-05
-1.90469e-05
-9.76038e-06
-1.83397e-05
-8.86392e-06
-1.74759e-05
-7.93289e-06
-1.64496e-05
-6.9898e-06
-1.52635e-05
-6.05617e-06
-1.39329e-05
-5.15277e-06
-1.24863e-05
-4.29937e-06
-1.086e-05
-3.50379e-06
-9.01877e-06
-2.75922e-06
-7.16885e-06
-2.08082e-06
-5.49318e-06
-1.50597e-06
-4.04262e-06
-1.04901e-06
-2.85335e-06
-7.01818e-07
-1.93416e-06
-4.51142e-07
-1.27469e-06
-2.8008e-07
-8.44321e-07
-1.70715e-07
-1.08134e-07
-6.1995e-07
-4.78541e-06
-1.75795e-06
-9.05287e-06
-4.97446e-06
-1.26463e-05
-7.64911e-06
-1.55748e-05
-9.77692e-06
-1.78427e-05
-1.13976e-05
-1.94792e-05
-1.25168e-05
-2.05881e-05
-1.31483e-05
-2.12972e-05
-1.33815e-05
-2.16844e-05
-1.33179e-05
-2.18066e-05
-1.30097e-05
-2.17192e-05
-1.25027e-05
-2.14555e-05
-1.18437e-05
-2.10331e-05
-1.10669e-05
-2.04576e-05
-1.02028e-05
-1.97264e-05
-9.27901e-06
-1.88345e-05
-8.32094e-06
-1.77804e-05
-7.35224e-06
-1.65706e-05
-6.39514e-06
-1.52249e-05
-5.47078e-06
-1.37789e-05
-4.59923e-06
-1.21795e-05
-3.79e-06
-1.03335e-05
-3.03341e-06
-8.42103e-06
-2.33585e-06
-6.66327e-06
-1.73398e-06
-5.1234e-06
-1.24867e-06
-3.84488e-06
-8.7454e-07
-2.83335e-06
-5.98122e-07
-2.08157e-06
-4.02597e-07
-1.56372e-06
-2.70615e-07
-1.89086e-07
-1.27074e-06
-5.00078e-06
-1.79219e-06
-9.46718e-06
-5.07195e-06
-1.32377e-05
-7.80039e-06
-1.63325e-05
-9.97017e-06
-1.87867e-05
-1.16332e-05
-2.06224e-05
-1.28321e-05
-2.18845e-05
-1.35736e-05
-2.26935e-05
-1.38861e-05
-2.31483e-05
-1.38482e-05
-2.33129e-05
-1.35334e-05
-2.32538e-05
-1.30119e-05
-2.30025e-05
-1.23383e-05
-2.25778e-05
-1.15436e-05
-2.19887e-05
-1.06589e-05
-2.12366e-05
-9.7134e-06
-2.03212e-05
-8.73374e-06
-1.92449e-05
-7.74467e-06
-1.80181e-05
-6.76882e-06
-1.66634e-05
-5.82708e-06
-1.52191e-05
-4.93852e-06
-1.36355e-05
-4.11078e-06
-1.18219e-05
-3.33791e-06
-9.91972e-06
-2.62767e-06
-8.12151e-06
-2.00785e-06
-6.51227e-06
-1.49664e-06
-5.1495e-06
-1.09344e-06
-4.0494e-06
-7.88123e-07
-3.21029e-06
-5.65117e-07
-2.60673e-06
-4.07395e-07
-3.0382e-07
-2.24268e-06
-5.22916e-06
-1.81982e-06
-9.90724e-06
-5.15106e-06
-1.38689e-05
-7.9243e-06
-1.71344e-05
-1.01319e-05
-1.97493e-05
-1.18235e-05
-2.17655e-05
-1.30539e-05
-2.32158e-05
-1.38643e-05
-2.41711e-05
-1.42768e-05
-2.4722e-05
-1.43211e-05
-2.49426e-05
-1.4044e-05
-2.49156e-05
-1.35231e-05
-2.46823e-05
-1.28394e-05
-2.42594e-05
-1.20335e-05
-2.36611e-05
-1.11341e-05
-2.28924e-05
-1.01726e-05
-2.19584e-05
-9.17677e-06
-2.08655e-05
-8.17259e-06
-1.96267e-05
-7.18273e-06
-1.8265e-05
-6.22741e-06
-1.68137e-05
-5.32436e-06
-1.52085e-05
-4.47806e-06
-1.34142e-05
-3.68469e-06
-1.15745e-05
-2.9588e-06
-9.81569e-06
-2.32519e-06
-8.2051e-06
-1.79385e-06
-6.79516e-06
-1.36334e-06
-5.62283e-06
-1.02782e-06
-4.70045e-06
-7.75168e-07
-4.01294e-06
-5.89859e-07
-4.62332e-07
-3.57842e-06
-5.47174e-06
-1.84085e-06
-1.03754e-05
-5.21184e-06
-1.45417e-05
-8.02092e-06
-1.79926e-05
-1.02601e-05
-2.07721e-05
-1.1979e-05
-2.29413e-05
-1.32291e-05
-2.4559e-05
-1.40628e-05
-2.56785e-05
-1.45241e-05
-2.63729e-05
-1.46537e-05
-2.66972e-05
-1.44767e-05
-2.67244e-05
-1.40207e-05
-2.65168e-05
-1.33532e-05
-2.61012e-05
-1.25411e-05
-2.55003e-05
-1.16328e-05
-2.47199e-05
-1.06614e-05
-2.37731e-05
-9.65435e-06
-2.26696e-05
-8.64051e-06
-2.14243e-05
-7.64175e-06
-2.00595e-05
-6.67749e-06
-1.86044e-05
-5.76467e-06
-1.69849e-05
-4.90635e-06
-1.51919e-05
-4.09723e-06
-1.33891e-05
-3.35342e-06
-1.16908e-05
-2.70184e-06
-1.01352e-05
-2.1508e-06
-8.74713e-06
-1.69584e-06
-7.55679e-06
-1.32993e-06
-6.58066e-06
-1.04448e-06
-5.82207e-06
-8.28899e-07
-6.75999e-07
-5.32148e-06
-5.72975e-06
-1.8553e-06
-1.08741e-05
-5.25434e-06
-1.52598e-05
-8.09032e-06
-1.89101e-05
-1.03551e-05
-2.18698e-05
-1.2098e-05
-2.41974e-05
-1.33705e-05
-2.59615e-05
-1.42239e-05
-2.72254e-05
-1.47062e-05
-2.80688e-05
-1.48726e-05
-2.85364e-05
-1.47695e-05
-2.86678e-05
-1.44135e-05
-2.8518e-05
-1.38265e-05
-2.81314e-05
-1.30579e-05
-2.75361e-05
-1.21615e-05
-2.67483e-05
-1.11827e-05
-2.57962e-05
-1.01681e-05
-2.46902e-05
-9.15093e-06
-2.34462e-05
-8.14924e-06
-2.2087e-05
-7.1815e-06
-2.06408e-05
-6.26415e-06
-1.90361e-05
-5.3988e-06
-1.72618e-05
-4.57848e-06
-1.54851e-05
-3.82003e-06
-1.3825e-05
-3.15149e-06
-1.23125e-05
-2.5812e-06
-1.09692e-05
-2.10391e-06
-9.80981e-06
-1.71152e-06
-8.83585e-06
-1.39557e-06
-8.04897e-06
-1.14706e-06
-9.62219e-07
-7.51139e-06
-6.00442e-06
-1.86318e-06
-1.14059e-05
-5.27853e-06
-1.60269e-05
-8.13241e-06
-1.98923e-05
-1.04166e-05
-2.30475e-05
-1.21801e-05
-2.5551e-05
-1.34742e-05
-2.74704e-05
-1.43501e-05
-2.88745e-05
-1.48579e-05
-2.98435e-05
-1.50481e-05
-3.04393e-05
-1.49724e-05
-3.06955e-05
-1.46693e-05
-3.06507e-05
-1.41661e-05
-3.03446e-05
-1.34928e-05
-2.97909e-05
-1.26719e-05
-2.90125e-05
-1.17289e-05