/*--------------------------------*- C++ -*----------------------------------*\
| =========                 |                                                 |
| \\      /  F ield         | OpenFOAM: The Open Source CFD Toolbox           |
|  \\    /   O peration     | Version:  dev                                   |
|   \\  /    A nd           | Web:      www.OpenFOAM.org                      |
|    \\/     M anipulation  |                                                 |
\*---------------------------------------------------------------------------*/
FoamFile
{
    version     2.0;
    format      ascii;
    class       volScalarField;
    location    "1.34";
    object      p;
}
// * * * * * * * * * * * * * * * * * * * * * * * * * * * * * * * * * * * * * //

dimensions      [0 2 -2 0 0 0 0];

internalField   nonuniform List<scalar> 
465
(
63.2815
61.8307
59.912
57.5889
60.5035
58.6274
56.4103
53.8317
50.8982
59.2971
57.4832
55.3857
53.0001
50.3455
47.4675
44.4302
58.2054
56.466
54.4932
52.2931
49.8881
47.3167
44.6299
41.8814
39.2151
57.2201
55.5616
53.7134
51.6865
49.5031
47.1954
44.805
42.3766
40.0088
56.3317
54.7571
53.0295
51.1617
49.1739
47.093
44.9525
42.788
40.6717
55.5312
54.0409
52.4278
50.7043
48.8882
47.0022
45.073
43.1288
41.2251
54.8108
53.4029
51.8962
50.3025
48.6371
46.9188
45.1695
43.4113
41.6875
54.1629
52.8336
51.4248
49.9471
48.4137
46.8405
45.245
43.6448
42.074
53.5798
52.3244
51.0049
49.6307
48.2132
46.7656
45.3026
43.8375
42.3974
54.1819
53.0548
51.8683
50.6298
49.3479
48.0322
46.6936
45.3446
43.9957
42.6682
53.6564
52.5822
51.4591
50.2939
49.0942
47.8682
46.6247
45.374
44.1249
42.8948
53.1818
52.157
51.092
49.9928
48.8662
47.719
46.5588
45.3936
44.2308
43.0847
52.7542
51.775
50.7629
49.723
48.6611
47.5833
46.4957
45.405
44.3172
43.2441
52.37
51.4328
50.4685
49.4816
48.477
47.46
46.4359
45.4101
44.3875
43.3778
52.0263
51.1273
50.2059
49.266
48.3119
47.3482
46.3796
45.4102
44.4442
43.4896
51.7204
50.8557
49.9725
49.0741
48.1645
47.2475
46.3271
45.4067
44.4897
43.5829
51.4499
50.6158
49.7662
48.9044
48.0336
47.1572
46.2785
45.4004
44.5257
43.6602
51.2136
50.4064
49.5864
48.7563
47.9191
47.0777
46.2348
45.393
44.5548
43.7246
51.0095
50.2257
49.4311
48.6283
47.8197
47.008
46.1956
45.3845
44.577
43.7766
50.8391
50.0751
49.302
48.522
47.7375
46.9507
46.1636
45.3783
44.5966
43.8215
50.6994
49.9516
49.1959
48.4344
47.6692
46.9023
46.1356
45.3708
44.6094
43.8538
50.5961
49.861
49.1191
48.3722
47.6223
46.8712
46.1207
45.3723
44.6276
43.8884
50.5231
49.7964
49.0635
48.3261
47.586
46.8451
46.1047
45.3664
44.6315
43.9015
50.4942
49.7735
49.047
48.3163
47.5832
46.8494
46.1163
45.3853
44.6577
43.9344
36.9139
37.9509
36.544
35.3606
38.8184
37.5491
36.4831
39.5462
38.3943
37.428
40.1574
39.1059
38.2251
40.6715
39.7066
38.8994
41.1045
40.2143
39.4709
41.4703
40.6448
39.9567
41.7794
41.0102
40.3703
42.0409
41.3206
40.7227
42.2626
41.585
41.0238
42.4507
41.8104
41.2813
42.61
42.0024
41.5013
42.7448
42.1659
41.6892
42.8583
42.3044
41.849
42.9543
42.4223
41.985
43.0333
42.5201
42.0985
43.1017
42.6047
42.196
43.1525
42.669
42.2713
43.2042
42.7318
42.3418
43.2278
42.7642
42.381
43.2734
42.8181
42.4385
33.9126
35.1804
33.6171
31.8587
30.0906
36.2492
34.8238
33.1906
31.5187
29.9432
28.4889
37.1529
35.8484
34.3302
32.7528
31.2435
29.8274
28.4949
27.2415
37.9192
36.7209
35.3072
33.8199
32.3787
31.0077
29.6988
28.4486
27.2597
38.5707
37.4656
36.1466
34.7438
33.3699
32.0477
30.7696
29.5328
28.3404
39.126
38.1029
36.8691
35.5447
34.2356
32.9635
31.7207
30.5044
29.3182
39.6002
38.6494
37.4921
36.2396
34.9921
33.7697
32.5647
31.3739
30.2006
40.0056
39.1187
38.0299
36.8432
35.6533
34.4791
33.3127
32.1504
30.9952
40.3531
39.5223
38.4947
37.3675
36.231
35.1028
33.9746
32.8424
31.7086
40.6509
39.8694
38.8962
37.8229
36.7354
35.6503
34.5592
33.4574
32.347
40.9061
40.1676
39.2427
38.2176
37.1747
36.1297
35.0737
34.0019
32.9156
41.1245
40.4233
39.5409
38.559
37.5562
36.5479
35.5248
34.4816
33.4194
41.3105
40.6413
39.7961
38.8523
37.8855
36.9103
35.9174
34.9012
33.8621
41.4687
40.8267
40.0137
39.1033
38.1683
37.2225
36.2569
35.2654
34.2481
41.6009
40.9815
40.1959
39.3142
38.4067
37.4867
36.5451
35.5758
34.5782
41.7131
41.1119
40.3492
39.4919
38.6078
37.7099
36.7892
35.8393
34.8593
41.8009
41.2134
40.4689
39.6313
38.7663
37.8864
36.9828
36.0488
35.0834
41.8787
41.3007
40.5704
39.7488
38.899
38.0336
37.1437
36.2228
35.2695
41.9244
41.3509
40.6292
39.8181
38.9785
38.1224
37.2413
36.3288
35.3833
41.9802
41.4049
40.6888
39.8855
39.0529
38.2031
37.3279
36.4211
35.4808
)
;

boundaryField
{
    inlet
    {
        type            zeroGradient;
    }
    outlet
    {
        type            fixedValue;
        value           nonuniform 0();
    }
    flap
    {
        type            zeroGradient;
    }
    upperWall
    {
        type            zeroGradient;
    }
    lowerWall
    {
        type            zeroGradient;
    }
    frontAndBack
    {
        type            empty;
    }
    procBoundary1to0
    {
        type            processor;
        value           nonuniform List<scalar> 
18
(
55.4042
54.7628
54.7628
55.2435
54.6762
54.1614
53.6957
53.2759
52.8993
52.5633
52.2657
52.0053
51.7802
51.5919
51.4375
51.3227
51.2418
51.2075
)
;
    }
    procBoundary1to2
    {
        type            processor;
        value           nonuniform List<scalar> 
17
(
26.1341
27.1957
28.1654
29.0488
29.851
30.577
31.2312
31.8177
32.3404
32.8021
33.2065
33.5537
33.8502
34.0872
34.2843
34.405
34.5074
)
;
    }
    procBoundary1to3
    {
        type            processor;
        value           nonuniform List<scalar> 9(64.8163 63.3953 62.0712 60.8462 59.7196 58.6886 57.7478 56.8909 56.1117);
    }
    procBoundary1to4
    {
        type            processor;
        value           nonuniform List<scalar> 
30
(
64.8539
61.3479
61.3479
58.9434
54.8179
54.8179
51.5808
47.6616
47.6616
44.202
41.2948
41.2948
38.2827
35.675
35.3437
35.3437
34.0208
32.4009
32.192
32.192
30.2993
28.4377
28.4549
28.4549
26.9744
27.1438
27.1438
25.9009
26.0683
26.0683
)
;
    }
}


// ************************************************************************* //
