/*--------------------------------*- C++ -*----------------------------------*\
| =========                 |                                                 |
| \\      /  F ield         | OpenFOAM: The Open Source CFD Toolbox           |
|  \\    /   O peration     | Version:  dev                                   |
|   \\  /    A nd           | Web:      www.OpenFOAM.org                      |
|    \\/     M anipulation  |                                                 |
\*---------------------------------------------------------------------------*/
FoamFile
{
    version     2.0;
    format      ascii;
    class       surfaceVectorField;
    location    "4.49";
    object      Uf;
}
// * * * * * * * * * * * * * * * * * * * * * * * * * * * * * * * * * * * * * //

dimensions      [0 1 -1 0 0 0 0];

internalField   nonuniform List<vector> 
881
(
(9.91478 0 0.0235079)
(9.96252 0 0.0385904)
(9.8168 1.23649e-21 0.0304915)
(9.92249 -4.69388e-21 0.0456908)
(9.70395 -7.07965e-23 0.0362646)
(9.85513 3.64576e-21 0.0543197)
(9.5741 -1.23503e-21 0.0422027)
(9.76141 -3.75754e-21 0.0644991)
(9.42717 0 0.0483508)
(9.64836 -2.61568e-21 0.0752911)
(9.26328 0 0.0547692)
(9.51843 5.36785e-21 0.0866163)
(9.08213 0 0.0616073)
(9.37104 0 0.0987147)
(8.88307 6.1947e-21 0.0690085)
(9.20516 -1.45006e-21 0.111821)
(8.66524 -3.73962e-22 0.0770966)
(9.01995 1.97407e-20 0.126115)
(8.42765 3.26119e-22 0.0859961)
(8.81452 -1.8775e-20 0.141771)
(8.16909 -1.46477e-20 0.0958371)
(8.58784 6.21843e-21 0.158979)
(7.88827 -5.8826e-21 0.106751)
(8.33874 -2.06636e-20 0.17793)
(7.58378 1.40439e-20 0.118874)
(8.06584 1.60315e-20 0.198801)
(7.25418 -1.20563e-20 0.132346)
(7.7677 5.60806e-20 0.22177)
(6.898 4.82636e-21 0.147305)
(7.44285 -1.39804e-19 0.246997)
(6.51385 2.04097e-20 0.163869)
(7.08982 1.45991e-19 0.274598)
(6.10049 1.33623e-20 0.182125)
(6.70723 -5.87847e-20 0.304612)
(5.65705 1.84344e-20 0.202107)
(6.29388 -1.60569e-19 0.336963)
(5.18311 -7.35618e-22 0.22376)
(5.84898 -1.98475e-21 0.371405)
(4.67905 1.1267e-20 0.246916)
(5.37227 -2.18926e-20 0.407458)
(4.86428 1.62195e-19 0.444334)
(9.9985 -4.7641e-21 0.048652)
(9.99093 0 0.0392676)
(9.96298 -2.15073e-21 0.0654301)
(9.97744 -8.96139e-24 0.0622545)
(9.90698 -1.4298e-22 0.0801878)
(9.94019 1.212e-20 0.081268)
(9.83202 -5.12033e-21 0.0958188)
(9.87718 2.54133e-21 0.101732)
(9.73797 2.87783e-21 0.112384)
(9.79428 -1.03692e-20 0.123485)
(9.62481 5.28543e-21 0.12996)
(9.69401 5.36815e-21 0.146421)
(9.49229 -1.4722e-21 0.14886)
(9.57604 0 0.170931)
(9.33985 1.24169e-20 0.169397)
(9.43952 -2.89359e-21 0.19746)
(9.16671 7.51453e-22 0.191848)
(9.2837 1.21347e-20 0.22637)
(8.97191 -1.25088e-20 0.216488)
(9.10778 -1.24895e-20 0.258018)
(8.75432 -2.00854e-22 0.243604)
(8.91085 6.09718e-22 0.292791)
(8.51267 1.80148e-21 0.273474)
(8.69186 0 0.331073)
(8.24556 5.86638e-20 0.30637)
(8.44953 5.33777e-20 0.373242)
(7.95153 -7.45817e-20 0.342548)
(8.18249 1.22913e-21 0.419676)
(7.62905 5.55461e-21 0.382221)
(7.8893 -1.2796e-19 0.470714)
(7.27664 6.37893e-20 0.425519)
(7.56849 1.21708e-19 0.526625)
(6.89294 -2.34314e-19 0.472431)
(7.21862 -5.47993e-20 0.587541)
(6.47682 -1.78995e-19 0.522737)
(6.83834 -1.52035e-19 0.653374)
(6.0276 -2.36777e-20 0.575921)
(6.42653 6.79492e-21 0.723714)
(5.54525 1.31188e-19 0.631067)
(5.98248 -3.39545e-19 0.797692)
(5.50607 4.99206e-19 0.873831)
(9.99116 4.76238e-21 0.0554826)
(9.98861 -9.09606e-21 0.0432726)
(9.95892 1.44639e-20 0.0812937)
(9.97255 4.69245e-21 0.0772966)
(9.90646 1.46743e-20 0.105642)
(9.93629 -4.83402e-21 0.106531)
(9.83639 -2.89399e-21 0.131449)
(9.87625 2.50451e-20 0.136557)
(9.749 -7.63519e-21 0.15896)
(9.79721 -2.32577e-20 0.168286)
(9.64424 0 0.188325)
(9.70171 2.15239e-20 0.201812)
(9.52191 -1.46562e-21 0.219976)
(9.58967 -3.8929e-20 0.237625)
(9.38158 -2.94873e-21 0.25438)
(9.46044 2.15398e-20 0.276321)
(9.22265 -1.48161e-21 0.291973)
(9.31341 -1.5043e-21 0.318435)
(9.04431 8.25415e-22 0.333203)
(9.14791 1.5545e-21 0.364486)
(8.84562 8.01219e-22 0.378541)
(8.96327 -5.17095e-20 0.41503)
(8.62549 5.23739e-20 0.428461)
(8.75867 -6.59695e-22 0.470631)
(8.3827 -4.84104e-21 0.483437)
(8.53308 1.10944e-19 0.531872)
(8.11591 -5.40676e-20 0.543918)
(8.28536 -5.48839e-20 0.599334)
(7.82368 -8.13479e-21 0.610289)
(8.01429 1.22916e-19 0.673549)
(7.50458 5.68388e-22 0.682822)
(7.71861 -1.26473e-19 0.754965)
(7.15715 2.60477e-20 0.761581)
(7.39703 -8.302e-21 0.843875)
(6.78006 3.58678e-20 0.846304)
(7.04824 2.96895e-19 0.940301)
(6.37217 -3.14463e-19 0.936258)
(6.67102 4.26302e-21 1.04383)
(5.93271 3.93499e-20 1.03005)
(6.26426 -6.27498e-19 1.15343)
(5.82712 6.35577e-19 1.26722)
(9.98682 -8.96055e-21 0.0656055)
(9.98728 2.04176e-20 0.0492438)
(9.95471 -1.47563e-20 0.101916)
(9.9694 -1.1673e-20 0.0922807)
(9.90318 6.00865e-21 0.136696)
(9.93297 -4.85925e-21 0.131355)
(9.83424 3.9621e-21 0.172635)
(9.87403 1.00484e-20 0.170827)
(9.74855 6.59924e-21 0.21045)
(9.79664 -1.55003e-20 0.212228)
(9.64616 -1.83473e-20 0.250565)
(9.70314 2.15267e-20 0.255973)
(9.52692 -1.4994e-20 0.293585)
(9.59363 -2.22271e-20 0.302652)
(9.39057 2.2638e-20 0.340151)
(9.46763 -4.32121e-20 0.352982)
(9.23665 1.57788e-21 0.390872)
(9.32462 4.74996e-20 0.407635)
(9.06459 -5.17765e-20 0.446366)
(9.16406 4.16571e-24 0.467256)
(8.87372 -5.24069e-20 0.507277)
(8.98547 -5.25369e-20 0.532523)
(8.66323 5.95667e-20 0.574277)
(8.78827 -6.59899e-22 0.604156)
(8.43223 5.84658e-20 0.648043)
(8.57164 6.28229e-20 0.682906)
(8.17971 1.24731e-19 0.729231)
(8.33474 0 0.769522)
(7.90457 9.83678e-22 0.818421)
(8.07666 1.21416e-21 0.8647)
(7.6057 -1.33655e-19 0.916075)
(7.79645 6.62784e-21 0.969052)
(7.28193 2.67002e-19 1.02243)
(7.49311 -3.30082e-20 1.08304)
(6.93209 2.61463e-19 1.13736)
(7.16559 5.55094e-19 1.20684)
(6.55499 -3.17434e-19 1.26017)
(6.81283 -2.6176e-19 1.34019)
(6.14949 -1.41483e-20 1.38932)
(6.43362 -2.62583e-19 1.48213)
(6.02676 3.16228e-19 1.63067)
(9.9847 1.71913e-20 0.0765441)
(9.98663 2.94856e-20 0.056178)
(9.95219 -1.6662e-21 0.121982)
(9.9678 -2.34184e-21 0.107453)
(9.90149 -5.87063e-22 0.166033)
(9.93135 5.44198e-23 0.155784)
(9.8338 -9.79912e-21 0.211228)
(9.87352 -1.98889e-20 0.204489)
(9.74981 0 0.258678)
(9.79794 0 0.255318)
(9.6496 1.69638e-20 0.30905)
(9.70663 -2.13813e-20 0.308996)
(9.53307 -5.07629e-20 0.363072)
(9.59973 3.87051e-20 0.366227)
(9.40001 -1.69762e-20 0.421498)
(9.4769 -1.06472e-19 0.42783)
(9.25004 4.52252e-20 0.485045)
(9.3377 4.70681e-20 0.494591)
(9.0827 -1.52811e-21 0.554428)
(9.18165 5.05669e-20 0.56726)
(8.89747 0 0.630404)
(9.00834 0 0.646616)
(8.69374 3.52843e-21 0.713775)
(8.81731 0 0.733505)
(8.47078 3.42743e-21 0.805359)
(8.60788 1.46412e-23 0.82881)
(8.22786 -1.2354e-19 0.905947)
(8.37941 0 0.933405)
(7.96417 6.8932e-21 1.01627)
(8.13121 -1.21826e-19 1.04811)
(7.67888 1.06805e-19 1.13693)
(7.86252 1.09713e-19 1.17369)
(7.37111 2.63445e-19 1.26833)
(7.57256 -1.19443e-22 1.31075)
(7.03992 2.08061e-20 1.41052)
(7.26048 4.3236e-21 1.45962)
(6.68427 -2.0664e-19 1.56296)
(6.92535 -4.4261e-21 1.62024)
(6.30291 7.58098e-20 1.72426)
(6.56601 3.72936e-20 1.79187)
(6.18112 5.73017e-19 1.97274)
(9.98371 9.43533e-21 0.0878428)
(9.98635 -2.26538e-20 0.0635594)
(9.95102 -5.83438e-22 0.141815)
(9.96718 1.39797e-20 0.122717)
(9.9013 -1.95515e-20 0.194836)
(9.93107 -8.31641e-24 0.179745)
(9.83523 -9.77871e-21 0.249225)
(9.87459 -1.07032e-23 0.237354)
(9.75334 -2.1713e-20 0.306274)
(9.8011 -2.05653e-20 0.297347)
(9.65571 1.28544e-21 0.3668)
(9.71238 -1.08219e-20 0.360678)
(9.5423 -1.92044e-20 0.431618)
(9.60855 1.10307e-20 0.428136)
(9.41295 -4.00974e-20 0.501584)
(9.48937 -9.73861e-20 0.500632)
(9.26734 5.2472e-20 0.577517)
(9.3545 4.65618e-20 0.579072)
(9.10507 5.13635e-20 0.660228)
(9.20347 4.90704e-20 0.664309)
(8.92566 0 0.750584)
(9.03594 0 0.757215)
(8.72858 -3.51396e-21 0.849503)
(8.85146 0 0.858737)
(8.51326 -3.41454e-21 0.957922)
(8.64946 -1.17113e-19 0.969868)
(8.27907 0 1.07675)
(8.42941 3.42242e-19 1.09158)
(8.02539 -1.57357e-20 1.20683)
(8.19072 2.91797e-21 1.22481)
(7.75152 1.17829e-21 1.34894)
(7.93272 -2.44395e-19 1.37045)
(7.4567 -2.59312e-19 1.5036)
(7.65473 3.66039e-22 1.52926)
(7.14009 -2.11904e-20 1.67107)
(7.35592 -5.38759e-19 1.70174)
(6.8007 2.404e-19 1.85104)
(7.03536 1.0721e-18 1.88805)
(6.43726 5.41679e-19 2.04243)
(6.69184 6.96795e-21 2.08772)
(6.32391 6.16181e-19 2.29943)
(9.98338 -1.74932e-20 0.0992672)
(9.98627 -4.06205e-20 0.071092)
(9.95089 1.4331e-20 0.161378)
(9.96721 -1.38629e-20 0.13789)
(9.90236 1.95337e-20 0.222979)
(9.93186 9.6055e-21 0.203142)
(9.83818 -1.11188e-20 0.28624)
(9.87694 -9.87531e-21 0.269293)
(9.75874 -9.5245e-21 0.352552)
(9.80577 -1.03906e-20 0.338137)
(9.66414 -7.32068e-22 0.422854)
(9.72005 -2.12486e-20 0.410786)
(9.55436 -6.8785e-20 0.498041)
(9.6198 4.35657e-20 0.488098)
(9.4293 -8.55091e-21 0.579076)
(9.50483 -5.14623e-20 0.571063)
(9.28869 4.32127e-20 0.666892)
(9.37488 5.28738e-20 0.660716)
(9.13215 -3.02198e-21 0.762403)
(9.22952 8.85882e-20 0.758008)
(8.95925 0 0.866565)
(9.06846 -9.71976e-20 0.863899)
(8.76953 -1.15298e-19 0.980397)
(8.89128 0 0.979429)
(8.56246 2.35091e-19 1.10493)
(8.69749 -1.10317e-19 1.10568)
(8.33751 3.40582e-19 1.24117)
(8.48662 3.42479e-19 1.24373)
(8.09409 -2.29173e-19 1.3901)
(8.25808 -4.34979e-21 1.39463)
(7.83153 -2.41976e-19 1.55263)
(8.01125 -4.72846e-19 1.55941)
(7.54909 -2.86408e-19 1.72945)
(7.74543 2.49742e-19 1.739)
(7.24588 5.75829e-19 1.92102)
(7.45975 -2.83507e-19 1.93412)
(6.92078 8.25619e-19 2.12731)
(7.15315 8.29304e-19 2.14516)
(6.57237 8.95114e-20 2.34764)
(6.82425 5.69773e-19 2.372)
(6.47126 -5.31217e-19 2.61387)
(9.98345 -3.65203e-20 0.110619)
(9.98632 4.47775e-21 0.0785913)
(9.95155 -1.82165e-20 0.180528)
(9.9677 -4.63292e-21 0.152795)
(9.90444 -2.01142e-20 0.250317)
(9.93345 -1.90857e-20 0.225866)
(9.84237 -9.1777e-21 0.322089)
(9.88036 -1.61875e-22 0.300191)
(9.76573 -2.22836e-20 0.397299)
(9.81174 -4.0712e-20 0.377516)
(9.67462 2.40442e-20 0.476991)
(9.7294 1.01091e-20 0.459074)
(9.56901 5.94875e-20 0.562136)
(9.63322 5.45532e-20 0.545822)
(9.44881 1.15258e-20 0.653788)
(9.52298 -2.82876e-20 0.63881)
(9.3138 9.87764e-20 0.752988)
(9.39851 4.64265e-20 0.739172)
(9.16367 -8.27217e-21 0.86074)
(9.25947 9.77433e-20 0.847957)
(8.99805 -9.58401e-20 0.978091)
(9.1056 -1.00381e-19 0.966209)
(8.81652 3.44819e-21 1.10615)
(8.93651 1.04087e-19 1.09506)
(8.6186 3.35329e-21 1.24605)
(8.75181 -1.03352e-19 1.23568)
(8.40378 -7.37256e-21 1.3989)
(8.55106 3.4606e-21 1.38926)
(8.17148 -2.54346e-19 1.56582)
(8.33366 -4.83529e-23 1.55698)
(7.92101 2.85481e-20 1.74787)
(8.09897 -2.4401e-19 1.74003)
(7.65158 2.45912e-19 1.94599)
(7.84628 2.65941e-19 1.93954)
(7.36217 -1.60102e-20 2.16084)
(7.57463 -1.60003e-22 2.15646)
(7.05147 5.70123e-19 2.39276)
(7.28281 0 2.39153)
(6.7177 -6.33233e-20 2.64152)
(6.96919 1.42194e-20 2.64505)
(6.63139 -5.19121e-20 2.91689)
(9.98379 3.61631e-20 0.121746)
(9.98646 6.26992e-20 0.0859364)
(9.95277 -5.73266e-21 0.199133)
(9.96852 1.84925e-20 0.16729)
(9.90732 1.13897e-21 0.27673)
(9.93563 -2.85704e-20 0.247805)
(9.84765 -3.23489e-20 0.356631)
(9.88467 1.96472e-20 0.329914)
(9.77413 -7.54445e-21 0.44033)
(9.81891 -5.08344e-20 0.41531)
(9.68691 4.13094e-20 0.52898)
(9.74024 2.10744e-20 0.505333)
(9.58594 -3.44684e-20 0.623631)
(9.64855 0 0.601057)
(9.47112 7.71596e-21 0.725404)
(9.54352 -1.3494e-19 0.703581)
(9.34231 4.61306e-20 0.835429)
(9.42507 1.44284e-19 0.8141)
(9.19927 2.78346e-21 0.9548)
(9.29299 1.08138e-19 0.933759)
(9.04168 1.02493e-19 1.08465)
(9.147 -2.25205e-21 1.06369)
(8.86917 -5.58114e-21 1.22617)
(8.98678 2.08088e-19 1.2051)
(8.68133 -1.01826e-19 1.38061)
(8.81203 -3.16282e-19 1.35926)
(8.47767 1.07421e-20 1.54922)
(8.62238 8.74114e-22 1.52749)
(8.25758 7.1344e-21 1.73325)
(8.41718 7.23317e-21 1.71112)
(8.02035 0 1.93395)
(8.19582 2.35918e-19 1.91151)
(7.76513 1.62751e-20 2.15248)
(7.95757 -2.48898e-19 2.12998)
(7.49081 1.5876e-20 2.38986)
(7.70137 5.23797e-22 2.3678)
(7.19582 -5.56324e-19 2.64685)
(7.42595 -5.19475e-19 2.62612)
(6.87798 2.44054e-20 2.92383)
(7.12937 -3.21855e-21 2.90587)
(6.80869 5.45478e-19 3.2076)
(9.98432 4.42292e-20 0.132536)
(9.98666 4.01043e-20 0.0930439)
(9.95443 -5.13306e-21 0.217072)
(9.96959 4.61103e-21 0.181261)
(9.91088 -9.33298e-21 0.302091)
(9.9383 -9.48279e-21 0.26884)
(9.85389 7.24116e-23 0.389715)
(9.88972 1.94632e-20 0.35832)
(9.7838 -2.11221e-20 0.481467)
(9.82713 -2.01243e-20 0.451367)
(9.7008 -2.05628e-20 0.578604)
(9.75242 8.31637e-20 0.549389)
(9.60487 -1.02472e-19 0.682258)
(9.66554 -2.14142e-20 0.653583)
(9.49593 5.71258e-21 0.793601)
(9.56616 -8.99358e-20 0.765096)
(9.37392 2.0581e-19 0.913835)
(9.45426 1.02575e-22 0.885159)
(9.23863 1.01578e-19 1.04415)
(9.32972 1.90714e-19 1.01502)
(9.08979 1.0629e-19 1.18574)
(9.19229 -5.22677e-21 1.15589)
(8.9271 -1.09802e-19 1.3399)
(9.04171 1.04004e-19 1.30904)
(8.75025 -2.09345e-19 1.50798)
(8.87778 -2.11257e-19 1.47583)
(8.55877 -2.5556e-21 1.69139)
(8.70013 -2.22572e-19 1.65773)
(8.35204 2.39085e-19 1.89153)
(8.50821 -2.15422e-21 1.85624)
(8.12937 -1.89653e-20 2.10986)
(8.30145 4.65849e-19 2.07287)
(7.88989 -2.61775e-19 2.34781)
(8.07911 -2.41734e-19 2.30918)
(7.63238 -5.41404e-19 2.60679)
(7.84011 7.45595e-21 2.56679)
(7.35512 3.94053e-20 2.88815)
(7.58309 -5.28123e-19 2.84736)
(7.05559 5.24361e-19 3.19297)
(7.30596 1.07347e-20 3.15254)
(7.00555 5.39039e-19 3.4837)
(9.98498 -1.15087e-22 0.142902)
(9.98691 -2.44916e-22 0.0998523)
(9.95643 0 0.234239)
(9.97084 -9.131e-21 0.194613)
(9.91499 1.97704e-20 0.326277)
(9.94135 9.3978e-21 0.288865)
(9.86095 -1.34526e-21 0.421197)
(9.89539 2.61276e-23 0.385283)
(9.79458 8.57333e-20 0.52055)
(9.83623 -2.02041e-20 0.48554)
(9.7161 8.0764e-20 0.625673)
(9.76576 1.24701e-19 0.59108)
(9.62557 -9.8685e-21 0.737779)
(9.684 -4.28185e-20 0.703197)
(9.52298 -9.424e-20 0.858084)
(9.59068 2.83743e-23 0.823097)
(9.40828 -1.23448e-20 0.987855)
(9.48579 -1.03689e-19 0.952043)
(9.28135 8.11649e-20 1.12837)
(9.36929 8.86216e-20 1.09137)
(9.14197 -6.02691e-21 1.28089)
(9.24104 -9.7474e-20 1.24237)
(8.98993 -1.66574e-21 1.44679)
(9.10085 -1.13885e-19 1.40637)
(8.82494 -2.24602e-19 1.62753)
(8.94854 -3.31885e-21 1.58481)
(8.6466 -2.19529e-19 1.82466)
(8.78378 -1.26444e-20 1.77932)
(8.4544 2.30436e-19 2.03978)
(8.60619 2.22241e-19 1.99152)
(8.24771 2.34562e-19 2.27454)
(8.41531 4.22624e-21 2.22311)
(8.02563 3.07161e-20 2.53068)
(8.21041 7.48789e-21 2.47591)
(7.78692 1.48608e-20 2.81005)
(7.99051 1.55173e-20 2.75193)
(7.5298 -5.51393e-19 3.11464)
(7.75418 8.68942e-22 3.05335)
(7.25171 2.99364e-20 3.44635)
(7.49939 -5.38241e-19 3.38253)
(7.22321 5.48996e-19 3.74181)
(9.98574 -9.39072e-21 0.152774)
(9.98719 -3.1124e-20 0.106315)
(9.9587 5.97508e-22 0.250543)
(9.97224 -1.36733e-20 0.207267)
(9.91957 -1.0494e-20 0.34918)
(9.94473 9.40023e-21 0.307788)
(9.86867 -1.91447e-20 0.450949)
(9.90157 -3.87842e-20 0.410698)
(9.80628 2.09397e-20 0.557427)
(9.84607 9.26149e-24 0.517692)
(9.73264 -1.3892e-21 0.670008)
(9.78011 2.07358e-20 0.630245)
(9.64787 -3.22962e-20 0.789974)
(9.70377 -6.36912e-20 0.749711)
(9.55201 -1.08916e-20 0.918588)
(9.61687 -1.10521e-20 0.877355)
(9.44508 0 1.05718)
(9.51938 9.05515e-20 1.01449)
(9.32701 -9.26541e-20 1.20708)
(9.41136 -9.28158e-20 1.1625)
(9.19773 -2.05655e-19 1.36965)
(9.29282 -7.94646e-20 1.32274)
(9.05707 -1.14191e-19 1.54631)
(9.16363 -3.12639e-19 1.49661)
(8.90476 2.08579e-19 1.73864)
(9.02362 1.89006e-19 1.68567)
(8.74052 4.32368e-19 1.94832)
(8.8726 2.14343e-19 1.8916)
(8.56401 -6.72133e-21 2.1771)
(8.71036 4.38363e-19 2.11615)
(8.37469 -2.23146e-19 2.42686)
(8.53658 -4.54598e-19 2.36121)
(8.17175 -7.63747e-21 2.69966)
(8.35064 -4.5843e-19 2.62889)
(7.954 1.34352e-21 2.99782)
(8.15174 9.29886e-19 2.92155)
(7.7198 8.62117e-21 3.3239)
(7.93859 2.69897e-21 3.24185)
(7.46682 -8.24298e-21 3.6807)
(7.70947 -4.97356e-19 3.59282)
(7.46187 -5.01735e-19 3.97783)
(9.98659 -3.52157e-20 0.162094)
(9.98749 -3.10032e-20 0.112394)
(9.9612 -4.46846e-21 0.265904)
(9.97376 -4.06221e-20 0.219158)
(9.92454 -1.96428e-20 0.370707)
(9.94837 -1.86479e-20 0.325529)
(9.87697 -1.90617e-20 0.478856)
(9.90819 -3.84807e-20 0.434469)
(9.8188 1.16518e-22 0.591955)
(9.85655 1.98521e-20 0.547706)
(9.75026 -4.2821e-20 0.711439)
(9.79534 2.05696e-20 0.666734)
(9.67156 -4.16881e-20 0.838643)
(9.7247 -4.23076e-20 0.792949)
(9.58278 9.18598e-20 0.974881)
(9.6445 0 0.927676)
(9.484 -4.80516e-21 1.12152)
(9.55476 -2.14186e-20 1.07227)
(9.37526 -7.9448e-20 1.27996)
(9.45562 -1.1639e-19 1.22813)
(9.25659 -1.89602e-19 1.4516)
(9.34725 1.90051e-19 1.39667)
(9.12786 -2.98914e-21 1.63797)
(9.22951 -4.80338e-19 1.57938)
(8.98895 1.9502e-19 1.84073)
(9.10237 4.04213e-19 1.7779)
(8.83971 2.23022e-19 2.06162)
(8.96586 2.1431e-19 1.99394)
(8.67996 -2.009e-20 2.30255)
(8.81989 -2.11521e-19 2.22934)
(8.50932 -6.90183e-19 2.56562)
(8.66429 -4.2958e-21 2.48618)
(8.32718 4.94662e-19 2.85321)
(8.4987 -6.83355e-19 2.7668)
(8.13263 9.22443e-19 3.16803)
(8.3226 1.16732e-18 3.07387)
(7.92434 -5.08303e-19 3.51318)
(8.1351 -1.31419e-20 3.41046)
(7.70039 -9.91796e-19 3.8923)
(7.93496 -9.82635e-19 3.78017)
(7.72028 -1.72864e-20 4.18738)
(9.9875 -3.6622e-20 0.170817)
(9.98781 4.37808e-21 0.118062)
(9.96387 -5.44593e-20 0.280256)
(9.97538 -4.53296e-21 0.23023)
(9.92983 -3.78307e-20 0.390775)
(9.95223 -1.86529e-20 0.342016)
(9.88577 1.29756e-21 0.504816)
(9.91518 1.91303e-20 0.456509)
(9.83201 4.03173e-20 0.62401)
(9.86757 1.98467e-20 0.575472)
(9.76883 2.01653e-20 0.749818)
(9.81131 2.04684e-20 0.700413)
(9.69646 0 0.88362)
(9.74662 -2.08309e-20 0.832762)
(9.61506 -1.13626e-19 1.02677)
(9.67339 -2.14538e-20 0.973886)
(9.52478 -1.34376e-19 1.18067)
(9.59168 2.11435e-20 1.12516)
(9.42577 1.57318e-19 1.34673)
(9.50181 -9.16722e-20 1.28801)
(9.3181 -1.0951e-19 1.52644)
(9.40394 1.78207e-19 1.4639)
(9.20179 -6.18956e-20 1.72138)
(9.29803 -2.81731e-19 1.65437)
(9.07687 4.21186e-19 1.93327)
(9.18427 2.13542e-19 1.86109)
(8.9434 -2.25499e-19 2.16389)
(9.06288 2.20573e-19 2.08579)
(8.80134 -1.93446e-19 2.41528)
(8.93391 -6.48567e-19 2.3304)
(8.65053 -4.90167e-21 2.68972)
(8.79741 4.38668e-19 2.59713)
(8.49071 8.96007e-21 2.98983)
(8.65335 -2.24598e-19 2.88846)
(8.32138 2.19042e-19 3.31862)
(8.5016 4.38966e-19 3.20728)
(8.14173 -4.96871e-19 3.67966)
(8.34185 -2.20586e-19 3.55694)
(7.95049 1.37726e-21 4.07728)
(8.17352 -7.34419e-21 3.94152)
(7.99563 -2.13206e-20 4.36613)
(9.98846 3.62712e-20 0.178904)
(9.96669 3.10569e-20 0.293537)
(9.9354 3.88663e-20 0.409305)
(9.95626 -1.73137e-20 0.357187)
(9.89499 3.76924e-20 0.528728)
(9.92246 -1.48523e-20 0.476745)
(9.84582 0 0.65346)
(9.87903 -1.12168e-22 0.600901)
(9.78819 -2.11384e-20 0.784983)
(9.82792 1.90269e-20 0.731177)
(9.72239 -4.23031e-20 0.92471)
(9.76937 3.77085e-20 0.869024)
(9.64864 1.13957e-19 1.07402)
(9.70335 -6.20011e-20 1.01584)
(9.56717 6.23568e-20 1.23433)
(9.62999 9.42705e-20 1.173)
(9.47819 -6.7251e-20 1.40709)
(9.5497 -9.07403e-20 1.34195)
(9.38187 0 1.59382)
(9.46267 1.09887e-19 1.52421)
(9.27838 0 1.79613)
(9.36902 -1.12462e-19 1.72132)
(9.16796 1.28391e-20 2.01574)
(9.26919 2.30279e-20 1.93491)
(9.05083 -2.12928e-19 2.2545)
(9.1635 -1.89292e-19 2.16676)
(8.92718 -3.9228e-21 2.5145)
(9.05223 -4.48385e-20 2.41885)
(8.79715 2.11499e-19 2.79815)
(8.93571 1.89315e-20 2.69342)
(8.66086 2.12582e-19 3.10817)
(8.81427 -3.51164e-22 2.993)
(8.51834 -7.44559e-21 3.44778)
(8.68828 6.41121e-19 3.32058)
(8.36948 2.71638e-19 3.82084)
(8.55805 -8.74435e-19 3.67965)
(8.21392 -3.00213e-20 4.23215)
(8.42389 4.88937e-19 4.07451)
(8.28601 -5.0248e-20 4.51063)
(9.94127 -7.3081e-20 0.426575)
(9.90471 -5.42318e-20 0.550969)
(9.93026 -3.8103e-20 0.495771)
(9.86038 1.95572e-20 0.680789)
(9.89128 3.58844e-20 0.624733)
(9.8086 8.00638e-20 0.81753)
(9.84563 1.04646e-21 0.759909)
(9.74972 1.77389e-20 0.962621)
(9.7936 9.89928e-20 0.902757)
(9.68405 -8.32663e-20 1.11746)
(9.73522 -2.16755e-20 1.05469)
(9.61187 -6.37339e-20 1.28346)
(9.67072 -4.26881e-20 1.21709)
(9.53348 9.21285e-20 1.46211)
(9.60053 1.96158e-20 1.39141)
(9.44918 -5.51031e-21 1.65492)
(9.52498 9.19661e-20 1.57916)
(9.35932 -8.94333e-20 1.8635)
(9.44439 5.96528e-20 1.78187)
(9.26431 -1.85541e-19 2.08953)
(9.35934 -2.00416e-19 2.00112)
(9.16456 -1.58803e-20 2.3349)
(9.27032 -2.46168e-20 2.23869)
(9.06054 -2.1805e-20 2.60171)
(9.17785 2.39809e-20 2.49655)
(8.95274 -2.01441e-19 2.89236)
(9.0826 1.02636e-20 2.77687)
(8.84174 4.39262e-19 3.2096)
(8.98531 -3.91512e-19 3.08218)
(8.72817 -2.4578e-19 3.55668)
(8.88686 6.39646e-19 3.41536)
(8.61272 -6.62414e-19 3.93752)
(8.78827 -6.77532e-19 3.77986)
(8.4962 4.73052e-19 4.35702)
(8.69083 -1.76543e-19 4.17989)
(8.59612 7.05791e-19 4.62073)
(9.915 5.43913e-20 0.571471)
(9.87572 1.68117e-20 0.705875)
(9.90411 -3.32908e-20 0.646385)
(9.83006 2.06599e-20 0.847266)
(9.86414 1.67648e-20 0.785909)
(9.77838 5.83698e-20 0.997077)
(9.81886 7.61136e-20 0.93314)
(9.72107 1.98636e-20 1.15671)
(9.76837 7.75222e-20 1.08949)
(9.65849 4.28017e-20 1.32758)
(9.71298 -5.83076e-20 1.25634)
(9.59106 1.9529e-20 1.51115)
(9.65317 4.24107e-20 1.43512)
(9.51921 1.58785e-19 1.70894)
(9.58942 -1.04473e-19 1.62732)
(9.44346 -5.40108e-20 1.92248)
(9.52226 2.85653e-19 1.83439)
(9.36438 -3.54755e-20 2.15343)
(9.45235 -2.29523e-19 2.0579)
(9.28262 1.62355e-20 2.40363)
(9.38039 2.10696e-19 2.29953)
(9.19892 5.68558e-20 2.67512)
(9.30718 -1.45862e-19 2.56117)
(9.11415 -1.84131e-19 2.9702)
(9.23368 2.20925e-19 2.8449)
(9.02934 -1.88394e-19 3.29151)
(9.16104 -6.11131e-19 3.15304)
(8.94576 1.99884e-19 3.64214)
(9.09065 3.94197e-19 3.48828)
(8.86495 -1.81658e-19 4.02578)
(9.02423 4.86242e-20 3.85377)
(8.78888 5.77927e-20 4.44699)
(8.96394 -1.41659e-20 4.25327)
(8.91265 6.5001e-20 4.69136)
(9.89175 -3.32207e-20 0.728416)
(9.85242 7.37068e-20 0.873865)
(9.88336 1.66617e-21 0.808884)
(9.8082 9.57404e-20 1.02773)
(9.84506 7.38117e-20 0.959831)
(9.75952 -2.76122e-21 1.19141)
(9.8027 4.04117e-20 1.11985)
(9.70684 -5.85806e-20 1.36629)
(9.75666 -5.99184e-20 1.2903)
(9.65068 -8.48011e-20 1.5538)
(9.70751 -7.80162e-20 1.47257)
(9.59161 2.57014e-20 1.7554)
(9.65585 -2.49189e-20 1.66808)
(9.53032 1.05772e-19 1.97255)
(9.60237 2.67346e-20 1.87822)
(9.46752 2.27549e-20 2.20684)
(9.54786 1.87593e-19 2.10446)
(9.4041 4.49223e-20 2.46001)
(9.49321 -8.38312e-20 2.3484)
(9.34109 2.20549e-20 2.73396)
(9.43946 2.26368e-20 2.61174)
(9.27969 -2.1554e-19 3.03079)
(9.38788 -2.26021e-20 2.89636)
(9.2214 -1.61031e-20 3.35289)
(9.33996 -1.92786e-19 3.20434)
(9.16804 2.39673e-19 3.703)
(9.29754 2.17405e-19 3.538)
(9.12188 2.20475e-19 4.0843)
(9.26289 2.60861e-20 3.89997)
(9.08591 -6.96442e-21 4.50062)
(9.23892 2.18178e-19 4.29329)
(9.22938 -4.03113e-20 4.72146)
(9.87553 1.93166e-21 0.896935)
(9.83897 1.70682e-20 1.05412)
(9.872 3.67941e-20 0.982502)
(9.79915 -1.82778e-20 1.22101)
(9.83794 -1.87572e-20 1.14539)
(9.75659 -7.98485e-20 1.39896)
(9.80144 -7.31547e-20 1.31853)
(9.71193 -1.66634e-20 1.58933)
(9.76313 -2.37316e-20 1.50327)
(9.66587 -2.39025e-20 1.79349)
(9.72373 6.13185e-20 1.7009)
(9.6192 1.10531e-19 2.01282)
(9.68405 1.44684e-20 1.91276)
(9.57285 7.84744e-20 2.24879)
(9.64502 1.11907e-19 2.14018)
(9.52788 -1.06688e-19 2.50297)
(9.60769 -2.73458e-20 2.38459)
(9.48556 -2.30773e-20 2.77706)
(9.57332 -1.25154e-19 2.64751)
(9.44743 8.89461e-22 3.07288)
(9.5434 -2.27746e-20 2.93053)
(9.41533 4.56084e-20 3.39246)
(9.51972 2.31482e-20 3.23539)
(9.39152 -1.21728e-21 3.73803)
(9.50445 1.7376e-19 3.56393)
(9.37884 2.3475e-20 4.11207)
(9.50026 -3.73142e-19 3.91815)
(9.38092 1.85309e-19 4.51736)
(9.51047 2.22337e-19 4.3002)
(9.53928 9.38713e-21 4.71232)
(9.87045 0 1.07591)
(9.83962 -7.50687e-20 1.24514)
(9.87381 3.44493e-20 1.16576)
(9.80733 -1.56457e-20 1.42516)
(9.84694 -1.10122e-19 1.34065)
(9.77429 5.61885e-20 1.61726)
(9.81955 5.7417e-20 1.52677)
(9.7413 1.00609e-19 1.82268)
(9.79244 -7.3558e-20 1.72532)
(9.70929 1.59003e-20 2.04271)
(9.76653 8.13743e-20 1.93751)
(9.67931 3.57457e-21 2.27866)
(9.74286 -4.94583e-21 2.16453)
(9.65261 -4.61144e-20 2.53188)
(9.72261 8.36554e-20 2.40761)
(9.63065 -1.24882e-19 2.8038)
(9.70721 -1.07789e-19 2.66802)
(9.61519 0 3.09593)
(9.69831 0 2.94703)
(9.60833 1.5437e-19 3.40982)
(9.69789 0 3.24598)
(9.61261 -2.06366e-19 3.74711)
(9.70832 1.13429e-19 3.56618)
(9.63118 -1.70467e-19 4.1095)
(9.73243 -3.58014e-19 3.90894)
(9.66793 4.22814e-20 4.49865)
(9.77372 1.7919e-19 4.2755)
(9.8364 -9.28464e-20 4.66692)
(9.8806 -1.67979e-21 1.26344)
(9.85861 -3.51203e-20 1.44451)
(9.83718 -7.56572e-20 1.63717)
(9.87624 0 1.54271)
(9.81718 -9.32596e-20 1.84257)
(9.86131 -9.3131e-20 1.74096)
(9.79966 5.99991e-20 2.06182)
(9.84897 -1.94411e-20 1.95211)
(9.78576 7.71175e-20 2.29605)
(9.84033 1.159e-19 2.17717)
(9.77687 2.06147e-20 2.54639)
(9.83668 -7.53668e-20 2.41717)
(9.77457 2.01261e-20 2.81395)
(9.83953 9.74694e-20 2.67308)
(9.78075 0 3.09987)
(9.85064 0 2.94585)
(9.79765 -4.20417e-20 3.40522)
(9.87206 0 3.23638)
(9.82792 -4.10772e-20 3.73102)
(9.9062 -1.98608e-21 3.54547)
(9.87476 -7.71716e-22 4.07817)
(9.95593 7.918e-20 3.87374)
(9.94197 4.12603e-20 4.44732)
(10.0246 -1.32358e-21 4.22162)
(10.1161 4.17387e-20 4.58913)
(9.89997 -1.79925e-20 1.64876)
(9.89274 -1.75332e-20 1.85282)
(9.92965 1.6645e-20 1.74756)
(9.88934 3.77935e-20 2.06985)
(9.9305 0 1.95631)
(9.89101 -4.03786e-20 2.30074)
(9.93637 -6.95132e-20 2.17793)
(9.89919 3.26131e-21 2.54638)
(9.94859 6.79881e-20 2.41319)
(9.91552 7.68657e-20 2.80757)
(9.96871 4.14363e-20 2.66279)
(9.94195 0 3.08505)
(9.9985 -7.43107e-20 2.92734)
(9.98071 4.10302e-20 3.37942)
(10.04 1.1308e-19 3.20731)
(10.0344 1.21165e-19 3.69112)
(10.0955 4.10398e-20 3.50302)
(10.1061 7.88466e-20 4.02034)
(10.1678 8.11106e-20 3.81451)
(10.1992 -5.56441e-22 4.36687)
(10.2599 -1.37298e-21 4.14149)
(10.3752 -3.8483e-20 4.4832)
(9.96719 3.45869e-20 1.85326)
(9.97738 -1.09972e-19 2.06667)
(9.99389 4.14811e-20 2.29271)
(10.0299 -7.54504e-20 2.1668)
(10.0182 1.07077e-19 2.53199)
(10.0571 1.14089e-19 2.39582)
(10.0518 -1.13447e-19 2.78502)
(10.0933 -1.09212e-19 2.63749)
(10.0968 4.13908e-20 3.05216)
(10.1402 -4.01647e-20 2.89213)
(10.1552 1.13091e-19 3.33358)
(10.1997 4.34866e-20 3.15982)
(10.2295 0 3.62921)
(10.2741 0 3.44043)
(10.3224 -8.28405e-22 3.93866)
(10.3657 0 3.73354)
(10.437 -4.01327e-20 4.26106)
(10.4773 -3.70457e-20 4.03832)
(10.6116 -4.39123e-20 4.35345)
(10.0933 -1.10672e-21 2.27212)
(10.1325 -1.07423e-19 2.50359)
(10.182 -3.41653e-20 2.74694)
(10.2119 -1.40435e-19 2.59779)
(10.2437 -3.81684e-20 3.0022)
(10.2742 2.01417e-20 2.84113)
(10.3194 -7.23454e-20 3.26918)
(10.3497 -5.60747e-20 3.0952)
(10.4113 0 3.54739)
(10.4403 0 3.35953)
(10.5219 -3.71041e-20 3.83598)
(10.548 3.36527e-20 3.63331)
(10.6535 -4.08136e-20 4.13367)
(10.6752 -3.53266e-20 3.91536)
(10.824 3.00063e-20 4.20401)
(10.3047 -8.48707e-20 2.69417)
(10.381 1.76064e-21 2.93638)
(10.3993 -1.65963e-20 2.77543)
(10.4716 1.80382e-20 3.18788)
(10.4886 8.52376e-20 3.01496)
(10.5783 3.44812e-20 3.44787)
(10.5928 0 3.26228)
(10.7031 3.54646e-20 3.7152)
(10.7137 5.17786e-22 3.51634)
(10.8479 3.7255e-20 3.98831)
(10.853 3.57792e-20 3.77575)
(11.0124 1.61093e-21 4.03865)
(10.5079 6.89298e-20 2.85607)
(10.611 6.67273e-20 3.09146)
(10.7297 -3.48048e-20 3.33291)
(10.7308 3.20057e-20 3.15066)
(10.8656 8.70743e-22 3.57909)
(10.862 -6.68713e-20 3.38508)
(11.02 -7.61406e-22 3.82831)
(11.0104 3.47933e-20 3.62239)
(11.1772 -3.4685e-20 3.86074)
(10.865 -8.96985e-22 3.2047)
(11.0091 -3.20623e-20 3.43024)
(11.1702 0 3.65664)
(11.1479 -1.2389e-19 3.45793)
(11.3191 -1.39816e-20 3.67318)
(11.2995 -1.38165e-19 3.47589)
)
;

boundaryField
{
    inlet
    {
        type            calculated;
        value           uniform (10 0 0);
    }
    outlet
    {
        type            calculated;
        value           nonuniform 0();
    }
    flap
    {
        type            calculated;
        value           nonuniform 0();
    }
    upperWall
    {
        type            calculated;
        value           nonuniform 0();
    }
    lowerWall
    {
        type            calculated;
        value           uniform (0 0 0);
    }
    frontAndBack
    {
        type            empty;
        value           nonuniform 0();
    }
    procBoundary3to0
    {
        type            processor;
        value           nonuniform List<vector> 
34
(
(9.98815 3.31972e-20 0.123297)
(9.97707 3.63816e-20 0.24044)
(9.96967 -1.36866e-20 0.305938)
(9.96058 -6.90309e-20 0.371495)
(9.9475 -3.30288e-20 0.442559)
(9.93845 6.89815e-20 0.513118)
(9.92575 -2.11401e-20 0.589966)
(9.91745 -3.80543e-20 0.665618)
(9.90833 -2.21534e-21 0.748094)
(9.90315 -3.58774e-20 0.828559)
(9.8992 0 0.916193)
(9.89946 1.51094e-22 1.00085)
(9.90237 3.5491e-20 1.0928)
(9.91001 6.86232e-20 1.18065)
(9.89276 -1.04283e-19 1.3563)
(9.90994 -6.8187e-20 1.45669)
(9.93265 -3.37227e-20 1.55083)
(9.96205 1.80245e-21 1.65179)
(9.99677 3.54624e-20 1.74495)
(10.0103 -2.74912e-22 1.95003)
(10.0628 3.50181e-20 2.05233)
(10.1201 2.38735e-21 2.14397)
(10.1611 -1.02809e-19 2.3654)
(10.241 -1.36648e-19 2.46173)
(10.3235 -1.02395e-19 2.54445)
(10.419 -3.24773e-20 2.62773)
(10.5147 -2.95765e-20 2.69626)
(10.6155 1.00743e-19 2.92065)
(10.7369 6.51384e-20 2.98172)
(10.8541 3.23379e-20 3.02663)
(10.9931 -9.50883e-20 3.24181)
(11.1342 -1.89112e-19 3.27102)
(11.2661 -1.26905e-19 3.28468)
(11.4395 -2.94116e-20 3.47845)
)
;
    }
    procBoundary3to1
    {
        type            processor;
        value           nonuniform List<vector> 9((9.72773 -8.75192e-20 4.9161) (10.0342 1.27189e-19 4.83873) (10.3179 8.11674e-20 4.72999) (10.5766 -3.8174e-20 4.595) (10.8089 -8.34272e-20 4.43858) (11.0146 1.05744e-19 4.26513) (11.1943 -6.83192e-20 4.07847) (11.3491 0 3.88189) (11.4804 -1.24795e-19 3.6781));
    }
    procBoundary3to4
    {
        type            processor;
        value           nonuniform List<vector> 
19
(
(4.14622 2.0406e-20 0.271247)
(5.03063 1.39246e-19 0.686751)
(5.46151 3.53012e-19 1.12545)
(5.71462 5.63623e-19 1.52219)
(5.89436 7.89297e-20 1.89175)
(6.04797 5.21234e-19 2.24286)
(6.19857 -5.45375e-19 2.58025)
(6.35838 -1.21524e-18 2.90616)
(6.5343 5.55847e-19 3.22066)
(6.73037 -1.6846e-20 3.52201)
(6.94906 5.5097e-19 3.80698)
(7.1916 -1.01418e-20 4.07122)