/*--------------------------------*- C++ -*----------------------------------*\
| =========                 |                                                 |
| \\      /  F ield         | OpenFOAM: The Open Source CFD Toolbox           |
|  \\    /   O peration     | Version:  dev                                   |
|   \\  /    A nd           | Web:      www.OpenFOAM.org                      |
|    \\/     M anipulation  |                                                 |
\*---------------------------------------------------------------------------*/
FoamFile
{
    version     2.0;
    format      ascii;
    class       surfaceVectorField;
    location    "0.51";
    object      Uf;
}
// * * * * * * * * * * * * * * * * * * * * * * * * * * * * * * * * * * * * * //

dimensions      [0 1 -1 0 0 0 0];

internalField   nonuniform List<vector> 
879
(
(-9.43145 0 0.36048)
(-9.06854 -7.75582e-20 0.694762)
(-10.33 -9.04575e-21 0.325275)
(-9.97562 6.10816e-20 0.649132)
(-11.1672 4.08929e-21 0.286588)
(-10.8269 -1.7935e-20 0.595062)
(-11.929 1.37105e-20 0.244456)
(-11.6085 4.76925e-20 0.532536)
(-12.6006 0 0.198926)
(-12.3059 -3.79214e-20 0.461562)
(-13.1667 5.22984e-21 0.150077)
(-12.9038 -3.12674e-20 0.382299)
(-13.6116 2.52339e-22 0.097996)
(-13.3863 2.58136e-20 0.29516)
(-13.9197 -5.22491e-21 0.042662)
(-13.7381 5.48593e-21 0.200806)
(-14.0759 -9.81939e-21 -0.0162279)
(-13.9437 0 0.0999635)
(-14.065 -5.23475e-21 -0.079391)
(-13.9874 -2.50755e-20 -0.00688357)
(-13.8713 5.72305e-22 -0.147923)
(-13.8547 1.4539e-20 -0.119518)
(-13.4816 -9.87252e-21 -0.223032)
(-13.5378 -1.18835e-22 -0.236041)
(-12.8826 -6.85679e-22 -0.307235)
(-13.025 5.85745e-21 -0.356301)
(-12.0546 4.98292e-21 -0.40607)
(-12.3031 1.94552e-21 -0.483601)
(-10.966 0 -0.529662)
(-11.3504 0 -0.624409)
(-9.5646 0 -0.697906)
(-10.1261 -7.14552e-22 -0.789427)
(-7.75509 0 -0.954266)
(-8.5528 2.93393e-21 -1.00132)
(-5.31609 0 -1.39189)
(-6.50155 0 -1.32605)
(-1.73151 0 -2.32079)
(-3.77501 0 -1.91525)
(0.773325 0 -3.10682)
(-9.59055 -1.88666e-20 1.00326)
(-9.00189 -1.19601e-19 1.36366)
(-10.4503 5.29064e-20 0.931697)
(-9.86047 1.30155e-19 1.27096)
(-11.2464 2.49176e-20 0.847567)
(-10.6638 -6.75861e-20 1.16145)
(-11.9648 -2.53991e-21 0.750793)
(-11.3984 9.27128e-20 1.03502)
(-12.5904 -6.92508e-20 0.641438)
(-12.0497 -7.64996e-20 0.891658)
(-13.1075 -1.14617e-20 0.519875)
(-12.6022 -2.0923e-20 0.731644)
(-13.5004 3.12893e-20 0.386835)
(-13.0402 -1.19721e-20 0.555827)
(-13.7533 1.07633e-20 0.243259)
(-13.348 6.41723e-20 0.365614)
(-13.8514 -1.49406e-20 0.0900537)
(-13.5105 -2.13138e-20 0.162708)
(-13.7812 -5.55704e-21 -0.071696)
(-13.5118 -2.50336e-20 -0.0509823)
(-13.533 1.41052e-20 -0.239253)
(-13.3411 1.97556e-20 -0.272702)
(-13.0985 1.58264e-20 -0.410843)
(-12.9945 -4.13092e-21 -0.499239)
(-12.4676 8.51464e-21 -0.589267)
(-12.463 4.66153e-21 -0.73156)
(-11.6257 -3.2292e-21 -0.782001)
(-11.7372 1.0037e-20 -0.975328)
(-10.5496 -7.0787e-22 -1.00323)
(-10.8018 -4.76611e-22 -1.24159)
(-9.20085 2.36327e-21 -1.28182)
(-9.62892 -2.28502e-21 -1.54925)
(-7.51234 2.96089e-21 -1.68282)
(-8.17025 2.16267e-21 -1.93576)
(-5.38059 0 -2.33734)
(-6.35175 -1.18778e-21 -2.48521)
(-2.68367 0 -3.43168)
(-4.09003 4.03213e-23 -3.3565)
(-1.40922 -3.97774e-23 -4.74524)
(-9.25105 2.62229e-20 1.62029)
(-8.58022 5.94383e-20 1.98967)
(-10.053 1.26764e-20 1.49289)
(-9.38083 6.90684e-20 1.85229)
(-10.795 -1.22346e-21 1.34416)
(-10.131 3.60239e-20 1.69022)
(-11.4634 2.15225e-20 1.17403)
(-10.8176 -1.5284e-20 1.50311)
(-12.0434 -2.87035e-20 0.982699)
(-11.4258 -1.02482e-19 1.29073)
(-12.5195 -2.17574e-20 0.770974)
(-11.9401 9.35584e-20 1.05339)
(-12.8757 1.98163e-20 0.540439)
(-12.3442 -2.09377e-20 0.792253)
(-13.0967 3.31076e-20 0.293389)
(-12.6222 1.20686e-19 0.509541)
(-13.168 -3.14409e-20 0.032749)
(-12.7586 -6.5287e-20 0.208229)
(-13.0773 -8.64242e-23 -0.237944)
(-12.7373 1.16657e-20 -0.108042)
(-12.8159 1.74858e-21 -0.515561)
(-12.5513 1.97797e-20 -0.434125)
(-12.3775 -1.51045e-20 -0.79936)
(-12.1979 1.02375e-20 -0.764911)
(-11.7559 6.44286e-21 -1.09304)
(-11.6718 -1.43974e-20 -1.10132)
(-10.9425 1.26595e-20 -1.40624)
(-10.9679 2.07166e-20 -1.45048)
(-9.92305 -2.03683e-21 -1.75638)
(-10.0774 -5.72452e-21 -1.82633)
(-8.67519 -1.92009e-21 -2.17552)
(-8.985 1.82309e-22 -2.25229)
(-7.16683 -1.84051e-21 -2.72726)
(-7.66925 -3.43321e-21 -2.77061)
(-5.37472 -1.15863e-21 -3.52511)
(-6.10772 -2.31063e-21 -3.45987)
(-3.34653 3.84553e-22 -4.66437)
(-4.30394 -1.82944e-22 -4.44069)
(-2.52367 9.00996e-23 -5.72825)
(-8.69025 1.02217e-19 2.20957)
(-7.97331 1.16919e-19 2.57395)
(-9.43861 9.38392e-20 2.0375)
(-8.71754 0 2.39624)
(-10.1332 2.34525e-20 1.83681)
(-9.41764 9.54722e-20 2.18614)
(-10.7602 -1.38083e-19 1.60701)
(-10.0603 -9.38229e-20 1.94272)
(-11.3043 1.67439e-20 1.34797)
(-10.6303 -8.47697e-20 1.66532)
(-11.7493 9.53558e-20 1.06033)
(-11.1114 -7.38877e-21 1.35406)
(-12.0783 7.80437e-20 0.745811)
(-11.4864 7.82152e-20 1.0104)
(-12.2752 2.45776e-20 0.407233)
(-11.7387 6.78979e-20 0.637531)
(-12.3257 -2.2925e-20 0.0485053)
(-11.8523 -4.39728e-20 0.240159)
(-12.2187 3.17125e-20 -0.324618)
(-11.8107 -2.26144e-20 -0.175702)
(-11.9481 2.85203e-20 -0.70523)
(-11.6121 8.90295e-21 -0.601464)
(-11.5118 1.13294e-20 -1.09043)
(-11.2562 -5.73903e-20 -1.02953)
(-10.9081 -8.3715e-23 -1.48469)
(-10.742 1.02424e-20 -1.46065)
(-10.1336 2.14452e-21 -1.89959)
(-10.0688 -7.44348e-21 -1.90298)
(-9.18256 -3.77329e-21 -2.35511)
(-9.23336 -1.77536e-20 -2.37198)
(-8.04703 -1.2562e-21 -2.88433)
(-8.23089 1.75274e-21 -2.89216)
(-6.72373 -3.20567e-21 -3.5431)
(-7.06086 2.70517e-21 -3.50314)
(-5.23942 -1.44263e-21 -4.4125)
(-5.7386 3.38661e-21 -4.26727)
(-3.71376 8.92494e-23 -5.50294)
(-4.31552 -2.08491e-21 -5.25644)
(-3.05562 4.89802e-22 -6.37216)
(-7.98157 1.59683e-20 2.75328)
(-7.23089 1.581e-20 3.1165)
(-8.67679 6.23624e-22 2.53852)
(-7.91735 -3.72157e-20 2.90308)
(-9.32451 -1.90202e-20 2.28671)
(-8.56607 -5.85277e-20 2.64951)
(-9.91048 -4.08038e-20 1.99672)
(-9.1636 -1.06756e-19 2.35404)
(-10.4189 -1.10878e-19 1.6681)
(-9.69447 8.68393e-20 2.01541)
(-10.8326 -2.65346e-20 1.30168)
(-10.1415 -1.14013e-19 1.63345)
(-11.1339 6.80241e-20 0.900192)
(-10.4868 -5.33675e-20 1.20991)
(-11.3065 6.90471e-22 0.468445)
(-10.7129 7.19753e-20 0.749221)
(-11.3364 -4.39604e-20 0.0133409)
(-10.8035 -4.73911e-20 0.258498)
(-11.2142 -4.58275e-20 -0.455968)
(-10.7415 2.46776e-20 -0.253322)
(-10.9371 -7.67891e-20 -0.930174)
(-10.5321 2.11624e-20 -0.773136)
(-10.5073 -5.88966e-20 -1.40543)
(-10.1773 -3.62765e-20 -1.29043)
(-9.92776 3.24506e-21 -1.88633)
(-9.68058 1.78553e-20 -1.80581)
(-9.19974 -2.7244e-20 -2.38518)
(-9.04529 -1.57195e-22 -2.3285)
(-8.32379 -1.24107e-20 -2.922)
(-8.27261 1.85785e-20 -2.87465)
(-7.30349 5.42966e-21 -3.5268)
(-7.36525 -5.59548e-21 -3.46717)
(-6.156 1.02727e-20 -4.24317)
(-6.33673 -2.53505e-21 -4.1384)
(-4.93673 2.6887e-21 -5.12003)
(-5.22636 1.92685e-22 -4.93053)
(-3.78284 -1.70348e-21 -6.11301)
(-4.10482 8.11579e-22 -5.87341)
(-3.18272 -2.34524e-22 -6.81817)
(-7.14814 -3.6831e-20 3.25768)
(-6.37186 0 3.61483)
(-7.78707 -9.62951e-20 3.0057)
(-6.99662 3.88186e-20 3.37043)
(-8.3849 -1.45929e-19 2.70854)
(-7.59018 -1.48665e-19 3.07811)
(-8.92722 1.76039e-20 2.36431)
(-8.13918 8.08912e-20 2.73514)
(-9.39782 8.56836e-20 1.97206)
(-8.62806 1.80166e-19 2.33951)
(-9.77894 -1.42503e-19 1.53251)
(-9.03918 -1.17737e-19 1.89058)
(-10.0521 -5.1901e-20 1.04904)
(-9.35367 -1.70921e-19 1.39024)
(-10.2 2.4865e-20 0.528239)
(-9.55324 1.69948e-19 0.844343)
(-10.2094 2.08132e-20 -0.0200124)
(-9.62054 -9.69356e-20 0.263201)
(-10.0728 9.21535e-20 -0.582253)
(-9.53755 1.17899e-19 -0.340478)
(-9.79143 6.27144e-20 -1.14483)
(-9.31918 -2.26905e-20 -0.947805)
(-9.37256 4.05216e-20 -1.70214)
(-8.96892 6.12755e-20 -1.54501)
(-8.82337 1.48291e-20 -2.25938)
(-8.49538 0 -2.13307)
(-8.14881 4.59025e-20 -2.82959)
(-7.90512 1.08253e-23 -2.72291)
(-7.35347 2.55179e-20 -3.43153)
(-7.20211 3.28074e-20 -3.33113)
(-6.44826 -1.37789e-20 -4.0894)
(-6.3933 5.46545e-21 -3.97733)
(-5.46267 -1.23528e-20 -4.83219)
(-5.49981 -1.15367e-20 -4.684)
(-4.46569 -1.44888e-21 -5.68143)
(-4.57397 3.79049e-21 -5.47276)
(-3.58648 2.41737e-21 -6.56449)
(-3.68787 2.68485e-21 -6.3433)
(-3.00544 -2.97209e-22 -7.13549)
(-6.20214 7.55386e-20 3.71878)
(-5.4077 1.93292e-19 4.06509)
(-6.78021 -1.0939e-20 3.43428)
(-5.96573 -1.14805e-19 3.79469)
(-7.32388 7.34305e-20 3.09631)
(-6.49936 4.78294e-20 3.46873)
(-7.8189 2.40931e-19 2.70198)
(-6.99563 3.88191e-20 3.08336)
(-8.24891 -1.87411e-20 2.24963)
(-7.43922 7.21891e-20 2.6356)
(-8.59572 -1.45245e-19 1.73973)
(-7.81239 3.27471e-20 2.12421)
(-8.83991 4.54889e-20 1.17642)
(-8.09538 -7.23447e-20 1.55086)
(-8.96304 5.08124e-20 0.568925)
(-8.26843 -4.47293e-21 0.922742)
(-8.95225 -1.74261e-21 -0.0685003)
(-8.31264 2.29455e-21 0.254344)
(-8.80193 4.22441e-21 -0.717036)
(-8.20828 -2.1508e-21 -0.436725)
(-8.51854 -2.48143e-20 -1.35856)
(-7.98284 -2.22896e-20 -1.1241)
(-8.11484 2.13492e-20 -1.98621)
(-7.64065 3.43507e-23 -1.79063)
(-7.60219 -1.48174e-20 -2.60658)
(-7.19582 0 -2.43872)
(-6.98771 -1.31108e-20 -3.23393)
(-6.65712 -1.49617e-20 -3.08227)
(-6.27781 1.25107e-20 -3.88526)
(-6.02955 1.54001e-21 -3.73857)
(-5.48674 7.86604e-21 -4.57754)
(-5.32152 -4.98343e-21 -4.4231)
(-4.64944 4.9563e-21 -5.3248)
(-4.55629 -7.29925e-21 -5.14735)
(-3.83808 8.21463e-21 -6.12708)
(-3.79185 8.14037e-21 -5.91377)
(-3.16531 0 -6.90113)
(-3.09036 0 -6.70246)
(-2.59135 0 -7.36113)
(-5.15324 8.1308e-21 4.13223)
(-4.34868 7.95115e-21 4.46267)
(-5.66518 -5.85413e-20 3.82045)
(-4.83437 -1.91382e-19 4.1717)
(-6.14994 1.32194e-20 3.44702)
(-5.30285 1.36389e-19 3.81777)
(-6.59371 -1.30238e-19 3.00797)
(-5.7419 -1.27085e-19 3.39579)
(-6.98036 1.25731e-19 2.50072)
(-6.13684 0 2.90172)
(-7.29152 1.08349e-19 1.92521)
(-6.47024 -3.26876e-20 2.33337)
(-7.50697 -1.22976e-19 1.28595)
(-6.72164 -2.55387e-20 1.69187)
(-7.60649 -5.30711e-20 0.595039)
(-6.86898 4.60026e-21 0.98512)
(-7.57645 1.73461e-21 -0.127626)
(-6.89108 7.94708e-20 0.232547)
(-7.41331 -2.82282e-20 -0.856221)
(-6.76546 -1.28941e-19 -0.541533)
(-7.13003 2.3703e-21 -1.56725)
(-6.53548 7.34054e-20 -1.30066)
(-6.74564 -2.15384e-20 -2.25317)
(-6.20557 -2.13287e-20 -2.02472)
(-6.27513 0 -2.92345)
(-5.79505 0 -2.71934)
(-5.7263 0 -3.59465)
(-5.31357 -1.65538e-20 -3.40323)
(-5.10531 -1.60205e-20 -4.28198)
(-4.76553 2.98876e-20 -4.09491)
(-4.42663 -1.99798e-20 -4.99474)
(-4.15885 -2.95788e-20 -4.80537)
(-3.72569 -4.00689e-21 -5.73263)
(-3.51502 4.95761e-21 -5.53496)
(-3.07085 0 -6.47939)
(-2.89374 1.32993e-20 -6.2693)
(-2.55784 0 -7.15059)
(-2.33944 0 -6.97576)
(-1.98971 0 -7.51666)
(-4.01175 -1.87597e-19 4.49353)
(-3.2064 -1.8546e-19 4.80256)
(-4.45195 0 4.16026)
(-3.6138 -1.81829e-19 4.49692)
(-4.87275 1.33922e-21 3.75744)
(-4.01144 1.78234e-19 4.12132)
(-5.26119 1.36868e-21 3.27986)
(-4.38826 -4.70159e-20 3.66943)
(-5.60175 -1.58009e-19 2.72382)
(-4.73078 0 3.1359)
(-5.87611 -1.67058e-19 2.08829)
(-5.02249 -2.17669e-19 2.51728)
(-6.06347 1.01331e-19 1.37756)
(-5.24243 4.94678e-20 1.8137)
(-6.14166 1.36376e-19 0.606505)
(-5.36496 1.07902e-19 1.03298)
(-6.09457 -4.94762e-20 -0.197568)
(-5.36561 -7.44083e-24 0.199247)
(-5.92017 -2.78503e-20 -0.999301)
(-5.2202 -5.15782e-20 -0.653886)
(-5.63999 5.06478e-20 -1.76904)
(-4.99047 1.01752e-19 -1.47557)
(-5.27971 0 -2.49997)
(-4.67916 4.73479e-20 -2.24427)
(-4.85679 -1.63921e-20 -3.20653)
(-4.30943 0 -2.97159)
(-4.37789 1.329e-20 -3.90899)
(-3.89015 -1.65534e-20 -3.6832)
(-3.84742 1.64427e-20 -4.62106)
(-3.424 2.98868e-20 -4.39911)
(-3.27815 -4.64953e-21 -5.34429)
(-2.91732 -1.34048e-20 -5.12572)
(-2.70308 2.22242e-20 -6.06523)
(-2.38777 8.96519e-21 -5.85256)
(-2.18269 1.34199e-20 -6.75482)
(-1.89482 -1.37279e-22 -6.55128)
(-1.79782 0 -7.33116)
(-1.46119 -3.35979e-22 -7.18005)
(-1.23772 3.29912e-22 -7.61598)
(-2.79019 -1.79689e-19 4.79781)
(-1.99532 -1.60057e-19 5.07947)
(-3.15253 -1.06235e-20 4.44943)
(-2.31822 -1.8174e-19 4.76533)
(-3.50358 1.31938e-19 4.02406)
(-2.63856 1.78161e-19 4.3749)
(-3.83175 -4.93415e-20 3.51515)
(-2.94684 -4.87941e-20 3.90061)
(-4.12273 -5.67763e-20 2.91751)
(-3.23156 0 3.33569)
(-4.3587 -8.16858e-21 2.22863)
(-3.47819 -1.72573e-19 2.67489)
(-4.51827 5.36659e-20 1.45187)
(-3.666 2.23642e-19 1.91663)
(-4.57811 -2.77953e-20 0.60433)
(-3.76344 1.18654e-19 1.06838)
(-4.51721 -1.69402e-21 -0.277333)
(-3.73897 -2.05528e-19 0.156619)
(-4.33478 7.83169e-20 -1.14455)
(-3.57961 8.39213e-20 -0.771635)
(-4.06349 9.89948e-20 -1.96105)
(-3.3605 -5.33249e-20 -1.64513)
(-3.73418 4.78177e-20 -2.72322)
(-3.07843 -1.89011e-22 -2.44499)
(-3.36483 0 -3.4528)
(-2.75769 4.38497e-20 -3.19179)
(-2.95912 0 -4.17497)
(-2.40513 -3.85423e-20 -3.92017)
(-2.51891 0 -4.9025)
(-2.02176 -1.49859e-20 -4.65125)
(-2.0546 0 -5.62951)
(-1.61198 8.61561e-21 -5.38658)
(-1.59541 -1.32366e-20 -6.3308)
(-1.18939 5.825e-21 -6.10561)
(-1.19269 -1.38147e-20 -6.96621)
(-0.811381 -1.33599e-20 -6.76879)
(-0.914268 1.32804e-24 -7.45606)
(-0.480159 8.39709e-21 -7.32691)
(-0.363545 3.29873e-22 -7.66947)
(-1.50464 -1.61898e-19 5.03976)
(-0.733929 1.4334e-19 5.28814)
(-1.78243 0 4.68276)
(-0.966476 -1.31091e-19 4.97143)
(-2.05652 0 4.24208)
(-1.20252 0 4.57289)
(-2.31726 0 3.70969)
(-1.43431 0 4.08402)
(-2.55247 -1.13891e-19 3.07839)
(-1.65295 -1.14592e-19 3.49669)
(-2.74602 4.94212e-20 2.34342)
(-1.8474 5.62611e-20 2.80348)
(-2.87623 2.90611e-19 1.50692)
(-1.99871 2.31642e-19 1.99975)
(-2.91967 -5.5659e-20 0.587991)
(-2.0675 1.79979e-19 1.09276)
(-2.84865 -1.22919e-19 -0.365551)
(-2.00004 -1.79104e-19 0.107254)
(-2.66635 -4.68439e-20 -1.28837)
(-1.84667 5.75524e-20 -0.88944)
(-2.41579 -1.53973e-19 -2.13838)
(-1.65801 -5.46682e-20 -1.8018)
(-2.12784 -4.98675e-21 -2.91882)
(-1.42193 -5.12474e-20 -2.62041)
(-1.81857 6.12016e-21 -3.66071)
(-1.16077 -9.1788e-20 -3.37594)
(-1.48871 -5.37567e-20 -4.39385)
(-0.878955 2.23381e-22 -4.11249)
(-1.13712 -6.2223e-21 -5.12962)
(-0.577333 3.27819e-21 -4.85218)
(-0.772318 1.46918e-20 -5.85551)
(-0.259817 2.35764e-20 -5.59099)
(-0.418888 5.87887e-21 -6.5362)
(0.0632784 5.82476e-21 -6.29968)
(-0.119881 8.65327e-21 -7.12281)
(0.339714 1.50439e-21 -6.9294)
(0.0681073 8.81915e-21 -7.53523)
(0.579909 -1.41983e-21 -7.42489)
(0.611939 2.96592e-21 -7.68669)
(-0.176202 1.80469e-19 5.21656)
(0.553834 3.46519e-19 5.42402)
(-0.363076 -1.32614e-19 4.85706)
(0.416332 -3.72767e-19 5.10981)
(-0.552083 0 4.40836)
(0.270989 3.99889e-19 4.70891)
(-0.735547 -1.1327e-19 3.86141)
(0.124235 -2.04866e-19 4.21235)
(-0.903908 4.95232e-20 3.20701)
(-0.017188 1.09944e-21 3.61105)
(-1.04488 2.32879e-19 2.43681)
(-0.146486 1.18912e-19 2.89613)
(-1.14261 1.21576e-19 1.5496)
(-0.248945 -2.41912e-19 2.06109)
(-1.16929 6.20093e-20 0.565201)
(-0.274852 1.23496e-19 1.10607)
(-1.08949 4.72153e-21 -0.454481)
(-0.150677 -6.1444e-20 0.0521984)
(-0.92459 4.61988e-20 -1.42223)
(-0.0338956 1.73897e-19 -0.99614)
(-0.7141 4.63346e-20 -2.29265)
(0.0999588 4.88308e-20 -1.93337)
(-0.482151 -1.38946e-19 -3.08038)
(0.269556 -1.04544e-19 -2.76147)
(-0.239431 -9.86339e-20 -3.82806)
(0.458577 -1.36283e-19 -3.52008)
(0.0139421 5.74095e-20 -4.57029)
(0.663828 3.89436e-20 -4.25975)
(0.280037 3.35983e-20 -5.31157)
(0.884876 -1.48754e-20 -5.00367)
(0.552475 1.51022e-20 -6.03142)
(1.1179 2.11512e-20 -5.74292)
(0.809828 1.49038e-21 -6.68797)
(1.35248 1.54285e-20 -6.44011)
(1.01662 -8.63408e-21 -7.22641)
(1.54348 -1.92135e-23 -7.03935)
(1.12907 -7.29283e-21 -7.57235)
(1.70499 -8.6416e-21 -7.48198)
(1.67037 2.97579e-21 -7.67794)
(1.16501 -1.94933e-19 5.32131)
(1.83981 -9.94901e-20 5.48413)
(1.07354 1.46982e-19 4.96568)
(1.79911 -2.64687e-19 5.17653)
(0.976232 2.06657e-19 4.51655)
(1.748 5.02462e-19 4.77764)
(0.879592 -9.28915e-20 3.96462)
(1.69224 -3.58108e-19 4.27842)
(0.791008 6.91271e-20 3.30012)
(1.63773 1.79843e-21 3.66949)
(0.719191 -3.46527e-19 2.51213)
(1.5889 5.97154e-20 2.94137)
(0.678017 -2.51708e-19 1.58725)
(1.55642 -4.23945e-19 2.08439)
(0.697324 4.13607e-22 0.54005)
(1.58892 5.90318e-20 1.08892)
(0.77828 1.16997e-19 -0.534345)
(1.73084 -8.20622e-22 -0.00360497)
(0.891045 1.70621e-19 -1.52924)
(1.80658 1.18738e-19 -1.06944)
(1.03054 -1.04832e-19 -2.41197)
(1.87616 5.21859e-20 -2.02042)
(1.18478 -1.02494e-19 -3.20357)
(1.96617 -5.21991e-20 -2.8548)
(1.34849 -2.62046e-22 -3.95052)
(2.07403 -2.74678e-22 -3.61668)
(1.52132 -3.29392e-20 -4.69099)
(2.20035 1.83136e-20 -4.35947)
(1.70623 -2.74556e-20 -5.43248)
(2.34611 -1.77691e-20 -5.10816)
(1.8978 2.13563e-20 -6.14801)
(2.5062 6.1904e-21 -5.84887)
(2.07496 1.40624e-20 -6.78665)
(2.66673 -2.71603e-20 -6.5357)
(2.20716 6.64581e-23 -7.28912)
(2.78771 -1.52344e-21 -7.10826)
(2.25812 1.57064e-21 -7.58283)
(2.88361 1.8657e-21 -7.50571)
(2.78981 -6.35193e-21 -7.64783)
(2.48914 -1.67246e-19 5.34804)
(3.09739 -1.85145e-19 5.46886)
(2.4929 7.80915e-20 4.99844)
(3.15124 -1.69594e-22 5.17113)
(2.4887 -4.57699e-20 4.55094)
(3.19326 2.03351e-19 4.77756)
(2.48239 -2.67572e-19 3.9963)
(3.22886 -2.00484e-19 4.27928)
(2.48031 -7.18358e-21 3.32453)
(3.26356 -1.13844e-19 3.6669)
(2.49065 -6.05444e-21 2.52458)
(3.3013 1.12456e-19 2.92993)
(2.5263 -1.28599e-19 1.58855)
(3.34941 -1.21138e-19 2.0559)
(2.58841 5.91184e-20 0.540432)
(3.43473 5.88604e-20 1.04375)
(2.65196 5.21639e-21 -0.542405)
(3.55894 6.07024e-20 -0.047834)
(2.70834 -1.94288e-22 -1.55987)
(3.60689 -5.75894e-20 -1.10664)
(2.76784 1.03927e-19 -2.46032)
(3.61918 5.47383e-20 -2.05735)
(2.83604 4.96802e-20 -3.26361)
(3.63118 4.91292e-20 -2.89532)
(2.91796 1.81815e-20 -4.01961)
(3.65901 4.37276e-20 -3.66405)
(3.01694 3.37256e-20 -4.76859)
(3.71277 1.83135e-20 -4.41561)
(3.13344 1.56461e-20 -5.5155)
(3.79477 -1.74573e-20 -5.17299)
(3.2579 -4.21243e-20 -6.22769)
(3.89542 2.69805e-20 -5.9166)
(3.36871 -4.29242e-20 -6.84938)
(3.99591 -3.4488e-22 -6.59414)
(3.43742 3.75355e-22 -7.31865)
(4.05817 0 -7.1422)
(3.43409 -5.88964e-21 -7.56743)
(4.09673 -8.48497e-21 -7.49998)
(3.94705 -3.36413e-21 -7.59762)
(3.77115 -2.03336e-20 5.30173)
(4.31213 -2.32231e-20 5.38106)
(3.86653 1.22529e-19 4.96089)
(4.4556 4.40383e-20 5.09588)
(3.95251 5.65442e-20 4.51773)
(4.58601 1.02605e-19 4.71038)
(4.03446 -4.79797e-20 3.96325)
(4.70806 -4.8316e-20 4.21603)
(4.11772 0 3.28769)
(4.82616 0 3.60373)
(4.20733 0 2.4807)
(4.94278 5.14055e-20 2.86348)
(4.30386 5.90422e-20 1.53984)
(5.05956 0 1.98617)
(4.39131 6.04252e-20 0.495613)
(5.17896 6.08283e-20 0.981965)
(4.44543 -3.11484e-21 -0.572692)
(5.28497 2.04728e-21 -0.0855805)
(4.45921 -9.25278e-22 -1.57516)
(5.30124 -1.7979e-21 -1.11637)
(4.45015 0 -2.47133)
(5.26253 0 -2.05125)
(4.4405 4.30749e-20 -3.28)
(5.20895 -2.25192e-20 -2.88805)
(4.44897 4.39578e-20 -4.0473)
(5.17108 4.3161e-21 -3.66726)
(4.48507 -3.25509e-20 -4.80884)
(5.16821 -1.65795e-20 -4.43465)
(4.54651 -6.47639e-21 -5.56389)
(5.20283 -3.34938e-20 -5.20592)
(4.61802 6.8957e-20 -6.27388)
(5.25952 3.27913e-20 -5.95417)
(4.67477 4.25136e-20 -6.87932)
(5.31336 -1.88523e-21 -6.62232)
(4.68917 -8.78279e-21 -7.31794)
(5.3267 1.40715e-21 -7.14626)
(4.63654 -5.97386e-21 -7.52767)
(5.31437 -2.38252e-21 -7.46756)
(5.1104 3.4082e-21 -7.52753)
(4.83029 2.01247e-20 5.41312)
(5.2514 1.81116e-20 5.38995)
(5.02905 4.13666e-20 5.18296)
(5.49762 1.70784e-21 5.2176)
(5.21194 2.15068e-20 4.85439)
(5.72531 1.04051e-21 4.94821)
(5.38343 0 4.4194)
(5.93827 -2.11762e-20 4.5744)
(5.54747 0 3.86961)
(6.1397 0 4.08832)
(5.70681 5.17854e-20 3.19641)
(6.33172 2.34385e-20 3.48202)
(5.86079 5.29849e-20 2.39271)
(6.51362 1.27685e-19 2.74816)
(5.99891 0 1.46387)
(6.68009 -9.95978e-20 1.8847)
(6.09551 8.99256e-22 0.447617)
(6.81912 1.02365e-19 0.91199)
(6.12634 2.38209e-21 -0.583603)
(6.90752 -1.00927e-19 -0.108438)
(6.09492 -7.08984e-23 -1.55718)
(6.89462 4.91169e-20 -1.0961)
(6.02788 -2.27109e-20 -2.4422)
(6.8176 0 -2.00703)
(5.9586 -6.37269e-20 -3.25666)
(6.72047 -6.0426e-22 -2.84244)
(5.91463 -5.78664e-20 -4.04055)
(6.64284 -2.13912e-20 -3.63781)
(5.9082 -1.70647e-20 -4.8204)
(6.60855 3.33403e-20 -4.42832)
(5.93256 5.41305e-21 -5.58653)
(6.61676 -8.81406e-21 -5.21774)
(5.96571 -3.97903e-20 -6.29423)
(6.64482 -2.54702e-20 -5.97042)
(5.97907 -4.46068e-20 -6.88226)
(6.66202 -2.70853e-20 -6.62631)
(5.9459 7.96782e-21 -7.29059)
(6.6317 1.4512e-21 -7.12328)
(5.84738 7.05181e-21 -7.46449)
(6.57026 6.81849e-21 -7.40815)
(6.30949 -5.1188e-21 -7.43291)
(5.93643 -5.09599e-22 5.20253)
(6.21458 -3.94469e-20 4.99205)
(6.4757 -4.19977e-20 4.67909)
(6.90222 -1.00385e-19 4.73295)
(6.72242 -2.16879e-20 4.25651)
(7.18475 7.69175e-20 4.3751)
(6.95625 2.34444e-20 3.71715)
(7.45213 0 3.9032)
(7.17631 9.91871e-20 3.05476)
(7.70305 1.10542e-21 3.31126)
(7.37646 -2.08476e-20 2.26751)
(7.93284 3.03778e-20 2.5959)
(7.54044 5.12292e-22 1.36841)
(8.13082 -1.0201e-19 1.76226)
(7.64228 2.5742e-21 0.398124)
(8.2795 5.51688e-20 0.836984)
(7.66232 -5.39121e-20 -0.580827)
(8.35704 -1.04312e-19 -0.123943)
(7.60839 5.03137e-20 -1.51411)
(8.33139 5.46206e-21 -1.05973)
(7.51231 2.23533e-20 -2.38307)
(8.24135 0 -1.94226)
(7.41568 4.28627e-20 -3.20544)
(8.13498 2.28605e-20 -2.77786)
(7.35124 7.07563e-20 -4.01157)
(8.0551 5.59926e-20 -3.59452)
(7.32941 4.25175e-20 -4.81417)
(8.02236 1.99661e-20 -4.41209)
(7.33642 -4.01145e-20 -5.59171)
(8.0276 -1.54107e-20 -5.21901)
(7.34349 -1.25644e-20 -6.29389)
(8.04056 -3.06128e-20 -5.97114)
(7.31973 1.94179e-20 -6.86027)
(8.02728 2.4472e-20 -6.60822)
(7.2411 0 -7.23578)
(7.95463 -6.34944e-22 -7.07314)
(7.09507 -5.48575e-21 -7.37428)
(7.84269 6.23147e-22 -7.32001)
(7.52099 4.96603e-21 -7.31153)
(7.63192 1.6212e-20 4.44005)
(7.93833 1.0082e-19 4.03565)
(8.22638 -2.26951e-20 3.51452)
(8.63474 0 3.67046)
(8.49093 -6.96005e-20 2.8737)
(8.92475 -2.32393e-20 3.10191)
(8.72165 -4.74469e-20 2.11675)
(9.18443 -2.51779e-20 2.41699)
(8.90056 -4.9017e-20 1.26219)
(9.39958 4.48915e-20 1.62619)
(9.00467 -5.01197e-20 0.349943)
(9.55177 -7.25687e-20 0.759013)
(9.02068 -4.49666e-20 -0.569702)
(9.62445 -4.4205e-20 -0.136498)
(8.96323 -4.59465e-20 -1.46066)
(9.60433 -1.15953e-21 -1.01975)
(8.87033 0 -2.31577)
(9.53336 0 -1.87798)
(8.78628 3.56843e-20 -3.15066)
(9.45968 0 -2.72006)
(8.73976 4.78024e-21 -3.98222)
(9.41879 1.9925e-21 -3.56185)
(8.73166 -3.8683e-20 -4.80611)
(9.41825 -3.8299e-20 -4.40415)
(8.73859 -5.34197e-21 -5.5888)
(9.43717 -5.61997e-21 -5.22008)
(8.72707 6.25563e-21 -6.27689)
(9.4402 4.5222e-21 -5.96019)
(8.66744 4.47555e-21 -6.81395)
(9.39491 7.4634e-21 -6.56777)
(8.54137 5.28718e-23 -7.15223)
(9.27541 1.14307e-20 -6.99343)
(8.34413 1.12104e-20 -7.25492)
(9.1078 5.65425e-23 -7.19974)
(8.71938 5.70467e-21 -7.15963)
(9.35622 0 3.27181)
(9.6439 2.21023e-20 2.66314)
(10.0404 0 2.86954)
(9.88934 6.75336e-20 1.94822)
(10.3043 1.27582e-21 2.22286)
(10.0746 2.38913e-20 1.14812)
(10.521 8.65539e-20 1.48265)
(10.1819 -6.7171e-20 0.298889)
(10.6723 -2.28705e-20 0.677409)
(10.2083 -2.32596e-22 -0.56296)
(10.7525 -8.6367e-20 -0.156472)
(10.1782 4.55626e-20 -1.41838)
(10.7676 1.24631e-19 -0.99795)
(10.1315 0 -2.26789)
(10.7567 -3.65348e-20 -1.84421)
(10.1041 -3.45194e-20 -3.11993)
(10.7564 0 -2.69953)
(10.1095 -4.12176e-20 -3.97402)
(10.7833 -3.52987e-20 -3.56301)
(10.1335 -5.11235e-21 -4.80884)
(10.8269 1.73717e-21 -4.41692)
(10.1451 4.46383e-21 -5.58237)
(10.8574 1.78256e-20 -5.22392)
(10.1112 5.89868e-21 -6.2425)
(10.8405 3.49834e-21 -5.93463)
(10.0086 1.4501e-20 -6.73992)
(10.7511 2.39478e-21 -6.49948)
(9.82755 1.16823e-20 -7.03562)
(10.5737 1.15189e-21 -6.87825)
(9.57247 -5.69102e-21 -7.10202)
(10.3418 1.19529e-20 -7.04197)
(9.88003 -9.90571e-21 -6.97276)
(10.7225 -2.13641e-20 2.43674)
(10.9576 1.83922e-20 1.76793)
(11.1385 4.16573e-20 1.02395)
(11.6429 4.15585e-20 1.34009)
(11.2549 -4.09305e-20 0.232555)
(11.7893 1.96054e-20 0.587871)
(11.3168 3.71622e-20 -0.584349)
(11.8942 -4.20872e-20 -0.202699)
(11.353 4.43524e-20 -1.41927)
(11.9712 6.21454e-20 -1.02352)
(11.3918 -3.73682e-20 -2.27193)
(12.0437 -1.99686e-20 -1.87043)
(11.4473 0 -3.13775)
(12.1255 -2.32517e-20 -2.73628)
(11.5119 7.88466e-21 -3.99936)
(12.2105 -7.48919e-21 -3.60447)
(11.5596 2.48863e-20 -4.82381)
(12.2752 3.13263e-20 -4.4456)
(11.559 1.72581e-20 -5.56704)
(12.2891 -2.37173e-21 -5.21947)
(11.4843 0 -6.18258)
(12.2259 0 -5.8818)
(11.3225 -1.11857e-20 -6.62998)
(12.0712 -1.88228e-22 -6.39191)
(11.0745 1.18866e-21 -6.87892)
(11.8208 -1.69022e-21 -6.71853)
(10.7534 8.11986e-21 -6.91011)
(11.5149 -1.08993e-20 -6.84007)
(10.9747 -2.04548e-22 -6.74646)
(12.314 1.97103e-20 0.896845)
(12.4449 2.01529e-20 0.142991)
(12.5587 -1.93921e-20 -0.651978)
(13.2574 8.5956e-21 -0.288547)
(12.6718 -2.0667e-21 -1.48188)
(13.386 -3.63651e-20 -1.10644)
(12.789 -5.06715e-21 -2.33722)
(13.5126 1.85501e-20 -1.95405)
(12.9006 -3.13238e-20 -3.2004)
(13.6296 1.3438e-20 -2.81353)
(12.9846 1.56341e-20 -4.04397)
(13.7169 -9.23172e-21 -3.66009)
(13.0135 4.17656e-21 -4.83182)
(13.7485 4.68651e-20 -4.46149)
(12.9627 -2.00264e-20 -5.52366)
(13.7005 -1.94071e-20 -5.18075)
(12.8178 -1.8867e-22 -6.08089)
(13.557 4.54548e-22 -5.78095)
(12.5766 9.57517e-21 -6.47175)
(13.3145 -6.38453e-22 -6.23001)
(12.2489 -1.37837e-20 -6.67345)
(12.978 8.13919e-22 -6.50425)
(11.855 -1.96026e-20 -6.67353)
(12.5917 -1.31227e-20 -6.58793)
(11.9722 4.79266e-22 -6.47736)
(14.099 -7.7731e-21 -0.751551)
(14.2399 -1.6562e-20 -1.58031)
(15.0129 -1.31841e-20 -1.21172)
(14.3667 3.76787e-20 -2.42591)
(15.1247 3.13992e-22 -2.04604)
(14.4586 3.6558e-20 -3.26406)
(15.2019 3.81324e-20 -2.87744)
(14.4918 2.15103e-20 -4.06544)
(15.2225 -8.55515e-22 -3.6799)
(14.4446 2.42373e-20 -4.79692)
(15.1658 1.16334e-21 -4.42365)
(14.3021 1.13175e-21 -5.4247)
(15.0166 -1.61056e-20 -5.07738)
(14.0597 6.1021e-24 -5.91808)
(14.7685 -1.16797e-20 -5.61149)
(13.7235 -9.54863e-21 -6.25274)
(14.4256 -2.04572e-21 -6.00113)
(13.3094 1.75706e-21 -6.41188)
(13.999 -2.09366e-21 -6.2286)
(12.8416 7.15321e-21 -6.38844)
(13.5339 1.16847e-20 -6.28268)
(12.8423 -3.18292e-22 -6.16485)
(15.913 3.82793e-21 -1.66225)
(15.9745 -4.8772e-23 -2.47985)
(15.9788 6.94897e-22 -3.27445)
(16.6589 -2.79105e-21 -2.87639)
(15.9074 -2.14727e-20 -4.01933)
(16.5735 2.29402e-20 -3.62275)
(15.7468 -3.94983e-20 -4.68638)
(16.4028 -2.27256e-20 -4.30281)
(15.4905 -2.93262e-20 -5.2483)
(16.1399 -6.22837e-22 -4.89089)
(15.1408 -1.40452e-20 -5.68113)
(15.7851 -1.69754e-21 -5.36354)
(14.7087 5.59101e-21 -5.96646)
(15.3472 1.0533e-20 -5.70168)
(14.213 7.8026e-21 -6.0921)
(14.8405 -1.29186e-22 -5.89215)
(13.679 4.43588e-21 -6.05523)
(14.3085 4.06625e-22 -5.92721)
(13.5604 4.1195e-21 -5.81238)
(17.2652 1.94302e-20 -3.20085)
(17.0785 2.26791e-20 -3.88441)
(17.6253 -1.34331e-20 -3.47712)
(16.8039 1.63558e-20 -4.48795)
(17.3507 -1.4866e-20 -4.09483)
(16.4412 2.7267e-20 -4.98955)
(16.9903 1.67212e-20 -4.62298)
(15.9972 2.30484e-20 -5.37048)
(16.5491 1.32996e-20 -5.04298)
(15.4856 4.98878e-21 -5.61682)
(16.0384 -7.37302e-21 -5.34003)
(14.9259 -7.57812e-21 -5.71985)
(15.4741 -7.59867e-21 -5.50437)
(14.3428 0 -5.67995)
(14.8964 0 -5.53084)
(14.1147 0 -5.4278)
(17.9046 -5.15203e-20 -3.66682)
(17.5431 -1.51991e-20 -4.21177)
(17.1032 2.49011e-21 -4.66109)
(17.5356 0 -4.29182)
(16.5947 -1.72936e-20 -4.99999)
(17.041 1.15481e-20 -4.66822)
(16.0321 -2.01594e-20 -5.21777)
(16.4893 -1.37994e-20 -4.93392)
(15.4346 0 -5.30821)
(15.8962 2.68795e-21 -5.08152)
(14.8253 0 -5.27382)
(15.298 5.19369e-21 -5.10766)
(14.5086 0 -5.02225)
(17.4764 9.02139e-21 -4.28604)
(16.9383 1.55642e-20 -4.59142)
(17.2822 -3.33747e-21 -4.26307)
(16.3568 9.22856e-21 -4.78904)
(16.7212 1.01437e-20 -4.5049)
(15.7499 7.81014e-21 -4.87434)
(16.1277 2.75343e-21 -4.64244)
(15.1383 5.30986e-21 -4.85094)
(15.5335 -8.44511e-22 -4.67347)
(14.7605 0 -4.60814)
(17.0661 -9.05962e-21 -4.16778)
(16.4939 3.72064e-21 -4.35096)
(15.902 -6.16381e-21 -4.43556)
(16.2062 -5.38007e-21 -4.20456)
(15.3085 -6.28528e-21 -4.42545)
(15.6353 -5.14533e-21 -4.24272)
(14.898 4.56967e-22 -4.19709)
(15.9308 -4.13797e-21 -4.0063)
(15.3702 6.13537e-22 -4.00925)
(15.6401 -2.63559e-21 -3.82656)
(14.951 8.6356e-22 -3.79838)
(15.3569 -4.43641e-21 -3.61084)
(14.9462 4.05101e-22 -3.4184)
)
;

boundaryField
{
    inlet
    {
        type            calculated;
        value           nonuniform 0();
    }
    outlet
    {
        type            calculated;
        value           nonuniform List<vector> 
30
(
(4.1956 0 -2.97959)
(0.44035 0 -4.12288)
(-1.47308 -7.95533e-23 -5.33341)
(-2.48693 2.59743e-22 -6.10107)
(-2.93291 3.56834e-22 -6.62689)
(-2.9812 -5.94447e-22 -6.99902)
(-2.73396 0 -7.26504)
(-2.25915 0 -7.4521)
(-1.60525 0 -7.5771)
(-0.808017 6.59785e-22 -7.65182)
(0.106296 0 -7.6854)
(1.11873 5.9315e-21 -7.68614)
(2.20799 1.3937e-22 -7.66706)
(3.34641 -1.2784e-20 -7.62729)
(4.51153 6.01381e-21 -7.56703)
(5.68269 7.03022e-22 -7.48571)
(6.88692 -1.1081e-20 -7.37835)
(8.08788 2.13582e-20 -7.24262)
(9.26277 -1.02949e-20 -7.07427)
(10.3852 -9.50714e-21 -6.86861)
(11.4256 9.32192e-21 -6.62133)
(12.3527 -8.57765e-21 -6.32998)
(13.1389 8.1413e-21 -5.99571)
(13.7657 0 -5.62434)
(14.2297 0 -5.22589)
(14.5432 0 -4.81279)
(14.7308 0 -4.39756)
(14.8223 9.25097e-22 -3.99088)
(14.8463 8.00516e-22 -3.60055)
(14.8258 0 -3.23141)
)
;
    }
    flap
    {
        type            calculated;
        value           nonuniform 0();
    }
    upperWall
    {
        type            calculated;
        value           nonuniform 0();
    }
    lowerWall
    {
        type            calculated;
        value           uniform (0 0 0);
    }
    frontAndBack
    {
        type            empty;
        value           nonuniform 0();
    }
    procBoundary5to2
    {
        type            processor;
        value           nonuniform List<vector> 
34
(
(6.29193 8.19058e-20 5.13354)
(6.60457 -3.70822e-20 4.98351)
(7.30998 -9.81058e-20 4.73303)
(7.99992 -1.5369e-19 4.4616)
(8.32399 1.37619e-19 4.12227)
(9.0409 3.76639e-20 3.76703)
(9.74673 1.84621e-20 3.41027)
(10.4515 1.89035e-20 3.01146)
(11.2154 1.94389e-20 2.64629)
(11.4458 -3.91737e-20 2.03344)
(12.1513 -1.78866e-20 1.59943)
(12.9869 0 1.21026)
(13.1241 2.01724e-20 0.486172)
(13.9577 8.60417e-21 0.04135)
(14.8838 1.26532e-20 -0.396865)
(15.8139 7.69751e-21 -0.846179)
(16.631 3.83278e-21 -1.28594)
(16.6724 -2.33681e-20 -2.08945)
(17.3704 -2.66476e-20 -2.46066)
(17.8149 -2.1436e-20 -2.79085)