/*--------------------------------*- C++ -*----------------------------------*\
| =========                 |                                                 |
| \\      /  F ield         | OpenFOAM: The Open Source CFD Toolbox           |
|  \\    /   O peration     | Version:  dev                                   |
|   \\  /    A nd           | Web:      www.OpenFOAM.org                      |
|    \\/     M anipulation  |                                                 |
\*---------------------------------------------------------------------------*/
FoamFile
{
    version     2.0;
    format      ascii;
    class       surfaceVectorField;
    location    "4.81";
    object      Uf;
}
// * * * * * * * * * * * * * * * * * * * * * * * * * * * * * * * * * * * * * //

dimensions      [0 1 -1 0 0 0 0];

internalField   nonuniform List<vector> 
5457
(
(9.91372 7.61394e-21 0.0224114)
(9.96493 -2.01711e-21 0.0373222)
(9.81868 0 0.028487)
(9.92649 -1.39875e-20 0.0424531)
(9.71205 0 0.0333996)
(9.86349 0 0.0493973)
(9.59142 -4.59862e-21 0.0384921)
(9.77828 1.72859e-20 0.0579337)
(9.45661 -4.43424e-21 0.0437895)
(9.67698 -8.54539e-24 0.0670907)
(9.30765 0 0.0493365)
(9.5614 1.88331e-20 0.0767804)
(9.14422 5.21404e-21 0.0552667)
(9.43089 -2.92566e-20 0.0872058)
(8.9657 5.03597e-21 0.0617188)
(9.28454 2.40421e-23 0.0985843)
(8.77122 0 0.0688176)
(9.12158 2.13967e-20 0.111105)
(8.55979 1.48653e-21 0.0766822)
(8.94117 2.25936e-20 0.124946)
(8.33022 6.59749e-22 0.0854387)
(8.74228 -4.32694e-20 0.14029)
(8.08124 -2.65892e-20 0.0952236)
(8.52374 -6.85468e-24 0.157341)
(7.81141 2.13789e-21 0.106184)
(8.28421 -2.50195e-20 0.176312)
(7.51922 2.98196e-20 0.118477)
(8.02224 2.66826e-20 0.197421)
(7.20307 -4.04091e-21 0.132268)
(7.73627 -1.12162e-19 0.22089)
(6.86132 -7.26253e-21 0.147727)
(7.42469 1.15742e-19 0.246933)
(6.49237 0 0.165015)
(7.08582 1.3858e-19 0.275736)
(6.0947 0 0.184279)
(6.71805 -1.1129e-19 0.307424)
(5.66702 7.34361e-20 0.205625)
(6.31984 0 0.342034)
(5.20841 7.25207e-20 0.229105)
(5.88992 7.2312e-20 0.379463)
(4.71844 8.19666e-20 0.254676)
(5.42735 -2.96607e-19 0.419403)
(4.19745 -4.51611e-21 0.282167)
(4.93178 -5.77679e-19 0.461264)
(3.64677 -3.72291e-20 0.311227)
(4.40356 -8.63682e-20 0.504078)
(3.06902 2.2494e-19 0.34124)
(3.84409 3.36694e-19 0.546381)
(2.4685 1.34133e-19 0.371172)
(3.25604 9.27877e-20 0.586006)
(1.85176 -2.83411e-19 0.399265)
(2.6438 -7.29211e-19 0.619735)
(1.22834 -2.37045e-19 0.421106)
(2.01373 5.50045e-19 0.642769)
(0.61188 3.91867e-19 0.378905)
(1.37831 8.57749e-19 0.646419)
(0.0686336 -4.7132e-20 0.01241)
(0.676866 -3.73783e-19 0.560559)
(0.299644 -4.11556e-19 0.0787494)
(10.0021 -2.36844e-20 0.0452188)
(9.9949 -9.67784e-21 0.0364077)
(9.97216 -1.37211e-20 0.0593505)
(9.98455 1.96209e-21 0.0558055)
(9.92454 1.76099e-20 0.0715821)
(9.95297 3.31757e-20 0.0714367)
(9.86061 2.15544e-20 0.0847479)
(9.89952 3.76957e-23 0.0886128)
(9.78018 2.35947e-20 0.0988625)
(9.82916 2.2537e-20 0.107096)
(9.68319 -1.12934e-20 0.113963)
(9.74384 1.88815e-20 0.126753)
(9.5694 -3.39358e-20 0.130321)
(9.64319 -1.95036e-20 0.147908)
(9.4383 1.67542e-20 0.148244)
(9.52641 -1.52611e-20 0.170971)
(9.28914 4.39988e-20 0.168014)
(9.39286 2.13994e-20 0.196317)
(9.12102 -2.33025e-20 0.189906)
(9.24182 2.25969e-20 0.224303)
(8.93284 -4.32156e-20 0.214212)
(9.07238 -4.76334e-20 0.255308)
(8.72338 1.1488e-21 0.241245)
(8.88349 9.49646e-20 0.289746)
(8.49127 3.89407e-22 0.271332)
(8.67393 -1.00736e-19 0.328051)
(8.235 -1.17589e-19 0.304806)
(8.44236 0 0.370677)
(7.95299 1.13441e-20 0.342003)
(8.18732 -1.13012e-20 0.418092)
(7.64354 2.61997e-19 0.383231)
(7.90724 2.27816e-20 0.470759)
(7.30497 2.33651e-20 0.42874)
(7.60047 1.23401e-19 0.529095)
(6.93561 -1.09547e-19 0.478674)
(7.26531 -1.58872e-19 0.593419)
(6.53393 0 0.533015)
(6.90009 0 0.663889)
(6.09865 -3.02256e-19 0.5915)
(6.50321 0 0.740411)
(5.62887 -9.60787e-19 0.653514)
(6.07326 -3.70218e-19 0.82251)
(5.12431 -6.53259e-19 0.717965)
(5.60914 -1.23058e-18 0.909166)
(4.58547 2.9106e-19 0.783127)
(5.11016 1.26273e-18 0.998619)
(4.01396 2.00756e-19 0.846382)
(4.57626 -2.80554e-19 1.08811)
(3.41283 -7.76157e-19 0.903739)
(4.00814 -1.01879e-21 1.17344)
(2.7873 1.1571e-19 0.94874)
(3.40737 -8.58292e-19 1.24804)
(2.14634 1.64677e-18 0.968874)
(2.77608 9.69892e-19 1.30078)
(1.50736 7.74305e-20 0.927575)
(2.11909 2.06761e-18 1.30815)
(0.869454 -7.47048e-19 0.786419)
(1.38667 -3.76223e-18 1.21147)
(0.851545 3.0064e-18 0.936336)
(9.99487 1.62549e-20 0.0495866)
(9.99255 -3.08079e-20 0.0386353)
(9.96851 4.94845e-20 0.0711514)
(9.9797 1.59804e-20 0.0676044)
(9.92452 1.49617e-20 0.0913492)
(9.94924 8.86472e-24 0.0918496)
(9.86551 1.41049e-21 0.113072)
(9.89875 -1.72736e-20 0.116998)
(9.79166 1.77514e-20 0.136511)
(9.83214 1.80366e-20 0.143902)
(9.70284 9.97752e-21 0.161752)
(9.75141 -1.86505e-20 0.172595)
(9.59886 -7.49424e-22 0.189165)
(9.65641 -2.93042e-20 0.203469)
(9.47931 -9.98658e-21 0.219202)
(9.54652 4.03565e-20 0.237079)
(9.34359 0 0.2523)
(9.4212 0 0.273957)
(9.19095 -2.94025e-21 0.288911)
(9.27989 -8.8655e-20 0.314623)
(9.02048 9.29398e-20 0.32952)
(9.12187 -3.93437e-21 0.359633)
(8.83112 -1.01909e-20 0.374647)
(8.94628 2.95392e-19 0.409588)
(8.62168 -9.94905e-20 0.424843)
(8.75216 -2.00875e-19 0.465127)
(8.39085 1.06122e-19 0.480684)
(8.53841 0 0.526928)
(8.13717 7.19875e-22 0.542755)
(8.30382 3.45701e-19 0.595702)
(7.85909 -1.14212e-19 0.611622)
(8.04708 -1.11497e-19 0.672175)
(7.55495 -6.31721e-20 0.687768)
(7.76675 -2.23164e-19 0.757036)
(7.22304 -4.67674e-20 0.771531)
(7.46132 -4.73259e-20 0.850868)
(6.8616 0 0.863008)
(7.12918 0 0.954068)
(6.46892 -7.35225e-20 0.961929)
(6.76862 0 1.06673)
(6.04338 -6.5332e-19 1.06747)
(6.3779 -7.18494e-20 1.18849)
(5.58357 7.16891e-19 1.17804)
(5.95521 -5.73693e-19 1.31825)
(5.08835 6.7249e-19 1.29103)
(5.49866 1.26678e-18 1.45393)
(4.55693 -4.79836e-19 1.4024)
(5.00631 6.42455e-19 1.59214)
(3.98891 -9.28518e-20 1.50599)
(4.47593 -1.24132e-18 1.72763)
(3.38387 7.59525e-21 1.59224)
(3.9046 -2.96466e-21 1.85237)
(2.7396 1.39399e-18 1.6457)
(3.28709 1.59855e-18 1.95422)
(2.04349 -1.79195e-18 1.64004)
(2.61693 -2.32982e-19 2.01429)
(1.23914 5.70577e-20 1.56354)
(1.83677 -2.98168e-18 2.01186)
(1.10111 3.16698e-18 1.94111)
(9.99035 -3.02785e-20 0.0571679)
(9.99113 -3.76671e-23 0.0428211)
(9.96417 -3.37829e-20 0.0877063)
(9.97638 0 0.0793258)
(9.92103 -3.25319e-20 0.116778)
(9.94573 -3.31548e-20 0.111879)
(9.86302 0 0.14709)
(9.89623 0 0.144923)
(9.7907 -1.90223e-20 0.179311)
(9.83104 3.57326e-20 0.179979)
(9.70401 -5.8115e-20 0.213775)
(9.75209 -1.88631e-20 0.217377)
(9.60282 1.3034e-20 0.251008)
(9.65936 -3.93718e-20 0.257586)
(9.48685 4.96554e-20 0.291621)
(9.55235 1.10905e-19 0.301267)
(9.35567 -9.0166e-20 0.336221)
(9.43064 0 0.349083)
(9.20871 -8.82046e-20 0.385429)
(9.29378 -1.14488e-20 0.401686)
(9.04529 2.03532e-19 0.439912)
(9.14122 -1.72609e-19 0.459773)
(8.86461 9.6507e-20 0.500384)
(8.97231 4.76202e-19 0.524099)
(8.66579 -9.81161e-20 0.567602)
(8.78633 -9.57395e-20 0.595467)
(8.44784 2.45167e-19 0.642372)
(8.58242 -2.06582e-19 0.674732)
(8.20967 2.26238e-19 0.725534)
(8.3597 2.41304e-19 0.762811)
(7.95009 -2.22152e-19 0.817926)
(8.11717 2.03065e-19 0.860658)
(7.66781 -2.04666e-19 0.920325)
(7.85378 -4.43331e-19 0.96921)
(7.36139 1.61115e-22 1.03336)
(7.56835 -4.66607e-19 1.08933)
(7.02928 0 1.15742)
(7.25956 9.67368e-19 1.2217)
(6.66977 5.06131e-22 1.29251)
(6.92594 7.45234e-20 1.36675)
(6.28091 4.92054e-22 1.438)
(6.56572 -4.85728e-19 1.52444)
(5.86053 0 1.59233)
(6.17678 0 1.69399)
(5.40607 1.22948e-18 1.75275)
(5.75642 1.50619e-19 1.87356)
(4.91436 -1.34883e-19 1.91493)
(5.3012 1.21455e-18 2.05993)
(4.38105 -1.14074e-18 2.0724)
(4.80642 -1.82467e-19 2.24816)
(3.79939 1.59578e-18 2.21583)
(4.26525 -1.32229e-18 2.43106)
(3.1575 -2.38251e-20 2.33238)
(3.667 1.24143e-18 2.59906)
(2.43198 -1.44022e-18 2.40516)
(2.9994 -3.87985e-18 2.73989)
(1.5865 2.00313e-19 2.44385)
(2.21676 -6.59828e-21 2.8418)
(1.35408 3.40576e-18 2.94838)
(9.98805 3.02565e-20 0.0655862)
(9.99038 9.20841e-20 0.0479991)
(9.96146 0 0.103759)
(9.9746 0 0.0912392)
(9.91906 0 0.140593)
(9.94386 0 0.131579)
(9.86208 3.63907e-20 0.178645)
(9.89529 0 0.172364)
(9.79119 3.49205e-20 0.218992)
(9.83162 3.58168e-20 0.215363)
(9.70642 -4.47819e-22 0.262198)
(9.75459 -3.70632e-20 0.261204)
(9.60764 6.1163e-20 0.308897)
(9.66419 -2.14529e-22 0.310465)
(9.49459 5.93587e-20 0.359802)
(9.56 1.41071e-19 0.363898)
(9.36694 7.85497e-20 0.415627)
(9.44168 -8.33339e-20 0.42227)
(9.22423 -9.85089e-20 0.477107)
(9.30884 1.97587e-19 0.486341)
(9.06592 1.10763e-19 0.545032)
(9.16104 -4.6745e-19 0.556928)
(8.89139 2.74607e-19 0.620249)
(8.99777 6.59873e-19 0.63491)
(8.69996 -2.06025e-19 0.703657)
(8.81845 -1.93818e-19 0.721222)
(8.49088 -2.03442e-19 0.796224)
(8.62243 -4.13886e-19 0.816865)
(8.26335 2.1747e-19 0.898972)
(8.40899 2.06483e-19 0.922914)
(8.0165 -2.79307e-20 1.01295)
(8.1774 2.28311e-19 1.0405)
(7.74939 -7.05702e-19 1.13918)
(7.9269 -2.64644e-19 1.17076)
(7.46096 5.21561e-19 1.27858)
(7.65664 -4.67111e-19 1.31482)
(7.14997 1.02981e-18 1.43185)
(7.36558 4.58351e-19 1.47365)
(6.81494 -4.1897e-19 1.5994)
(7.05249 5.3231e-19 1.64805)
(6.4539 -4.79967e-19 1.78107)
(6.71581 5.49135e-19 1.83848)
(6.06428 1.52462e-19 1.97582)
(6.35337 -1.39441e-20 2.04478)
(5.64266 1.48918e-19 2.18136)
(5.9621 1.175e-18 2.26577)
(5.18425 1.15294e-18 2.39399)
(5.53761 1.51332e-19 2.49905)
(4.68199 -3.68015e-19 2.60827)
(5.07382 1.29951e-18 2.74088)
(4.12535 -1.65828e-18 2.81688)
(4.56182 -1.32909e-18 2.98583)
(3.49903 -2.619e-18 3.01077)
(3.98851 -8.42524e-21 3.22681)
(2.77949 -2.48631e-18 3.17588)
(3.33854 7.43266e-20 3.45541)
(1.95687 3.34687e-18 3.33106)
(2.59751 -2.70236e-18 3.64681)
(1.63982 2.99141e-18 3.9076)
(9.98691 6.02421e-20 0.0743933)
(9.98998 8.44278e-23 0.0536726)
(9.96004 0 0.119624)
(9.97377 0 0.103281)
(9.91849 0 0.163975)
(9.94326 4.9178e-20 0.1509)
(9.86287 7.83507e-23 0.209757)
(9.89579 5.12785e-20 0.199173)
(9.79379 -3.74799e-20 0.258225)
(9.8339 -3.53482e-20 0.249875)
(9.71132 -3.6184e-20 0.310105)
(9.75916 -3.68989e-20 0.303884)
(9.61532 8.21589e-20 0.366119)
(9.67149 -3.83869e-20 0.36191)
(9.50557 -5.47199e-21 0.427059)
(9.57053 1.4098e-19 0.424779)
(9.38179 4.03782e-20 0.493732)
(9.45604 -1.66217e-19 0.493335)
(9.24362 -1.8239e-19 0.566981)
(9.32767 9.8694e-20 0.568437)
(9.09059 1.00063e-19 0.647708)
(9.18507 -4.65942e-19 0.651009)
(8.92223 1.77639e-19 0.736882)
(9.02781 7.6055e-19 0.742033)
(8.73798 -4.05295e-19 0.835535)
(8.85544 -2.01846e-19 0.842564)
(8.53723 5.78696e-21 0.944778)
(8.66741 -4.11329e-19 0.953738)
(8.31934 2.17725e-19 1.06578)
(8.46313 2.06679e-19 1.07676)
(8.08365 -1.5889e-20 1.19977)
(8.24204 1.40412e-20 1.2129)
(7.82951 -2.88458e-20 1.34797)
(8.00353 -4.91699e-19 1.36345)
(7.55608 -5.17134e-19 1.51157)
(7.74703 5.04716e-19 1.52978)
(7.26236 -3.90536e-20 1.69162)
(7.47166 -4.47706e-19 1.71317)
(6.9471 1.50144e-18 1.88894)
(7.1763 5.22268e-19 1.91476)
(6.6085 1.01035e-18 2.10402)
(6.85956 2.18008e-18 2.13558)
(6.24387 1.02072e-18 2.33661)
(6.51954 -2.62528e-20 2.37625)
(5.84932 1.1668e-18 2.58539)
(6.15308 3.45596e-18 2.63659)
(5.41929 3.09425e-19 2.84785)
(5.75529 -2.35581e-18 2.91538)
(4.94571 3.20332e-19 3.12008)
(5.31966 1.51483e-18 3.21034)
(4.41683 3.25041e-19 3.39658)
(4.83679 1.62101e-19 3.51774)
(3.81736 2.67227e-18 3.67065)
(4.29347 -2.52322e-18 3.83158)
(3.1238 -9.57827e-20 3.92495)
(3.66885 4.97476e-18 4.14627)
(2.34722 -2.78842e-18 4.17806)
(2.99631 -2.66026e-18 4.40958)
(1.95819 -2.66828e-19 4.80399)
(9.98642 -6.01809e-20 0.0833823)
(9.98983 -7.98652e-21 0.0595564)
(9.95961 5.01213e-20 0.1353)
(9.97358 -7.89941e-21 0.115306)
(9.91903 1.00499e-19 0.186836)
(9.9436 -6.53926e-20 0.169779)
(9.86503 1.43064e-20 0.240075)
(9.89747 1.19239e-19 0.225229)
(9.79809 -3.48021e-20 0.296352)
(9.83763 1.99578e-23 0.283354)
(9.71828 -3.9144e-20 0.356554)
(9.7655 4.60022e-23 0.345234)
(9.62547 2.34943e-20 0.421499)
(9.68093 3.82249e-20 0.411711)
(9.5195 -2.50117e-20 0.492054)
(9.58365 -1.88694e-20 0.483654)
(9.40015 -1.03547e-19 0.569114)
(9.4735 -1.24121e-19 0.561972)
(9.26711 -1.94118e-19 0.653624)
(9.3502 1.72423e-19 0.647627)
(9.12002 2.14388e-19 0.746584)
(9.21345 -5.27659e-19 0.741643)
(8.95847 3.65823e-19 0.849066)
(9.0629 5.37648e-19 0.845087)
(8.782 -2.11036e-19 0.962227)
(8.89815 1.42405e-20 0.959122)
(8.59011 -2.01031e-19 1.08731)
(8.71877 -2.0261e-19 1.08502)
(8.38226 -4.15381e-23 1.2256)
(8.52429 -6.59952e-21 1.22412)
(8.15794 -4.69362e-19 1.37845)
(8.31427 -4.43986e-19 1.37777)
(7.91666 5.57559e-20 1.54728)
(8.08817 -1.40137e-20 1.54741)
(7.65776 5.61336e-19 1.73356)
(7.84562 4.75834e-19 1.73466)
(7.38029 1.26599e-19 1.93869)
(7.5859 1.04033e-18 1.94117)
(7.08307 1.2218e-18 2.16394)
(7.30779 1.20479e-20 2.16845)
(6.76452 1.11986e-18 2.41045)
(7.01005 1.73602e-19 2.41799)
(6.42221 2.44341e-18 2.67893)
(6.69094 5.43621e-20 2.69119)
(6.05213 -1.18659e-19 2.96925)
(6.34761 2.29293e-18 2.9891)
(5.64837 -1.1234e-18 3.28036)
(5.97522 -2.50735e-18 3.31189)
(5.20294 1.34857e-18 3.6099)
(5.5671 1.20946e-18 3.65864)
(4.70438 -2.68999e-18 3.9534)
(5.11418 -2.37471e-18 4.02704)
(4.13846 -2.13921e-19 4.30481)
(4.6047 -2.68104e-18 4.41092)
(3.47928 2.49361e-18 4.64065)
(4.00726 2.55243e-18 4.80825)
(2.75165 -6.86885e-20 4.97296)
(3.41536 2.44305e-18 5.12988)
(2.30373 -6.60774e-22 5.64081)
(9.98637 4.44171e-20 0.0923744)
(9.98982 -7.53117e-21 0.0654622)
(9.9599 -1.24471e-19 0.150678)
(9.97384 -7.06097e-20 0.127181)
(9.9205 -4.32619e-20 0.209043)
(9.94468 -8.1786e-20 0.188128)
(9.86838 1.02834e-19 0.269419)
(9.90018 2.68358e-22 0.250405)
(9.80389 3.48813e-20 0.333194)
(9.84264 3.63136e-22 0.315648)
(9.72709 7.81021e-20 0.401394)
(9.77337 -1.0958e-19 0.385084)
(9.63788 -5.13725e-21 0.474918)
(9.69228 1.53003e-19 0.459656)
(9.53617 -1.19808e-19 0.554683)
(9.59914 -1.97279e-19 0.540258)
(9.42181 1.56787e-19 0.641667)
(9.49386 -1.60006e-22 0.627866)
(9.29456 -1.7238e-19 0.736911)
(9.37621 1.72914e-19 0.723547)
(9.1541 -1.87644e-19 0.841509)
(9.24596 -3.57868e-19 0.828413)
(9.00009 1.77786e-19 0.956622)
(9.10283 2.07953e-19 0.943623)
(8.83214 1.9442e-20 1.08352)
(8.94645 -1.85934e-19 1.07044)
(8.64986 -5.10309e-21 1.22357)
(8.77647 2.11332e-19 1.21024)
(8.45286 -4.57119e-19 1.37818)
(8.59258 -4.27143e-19 1.36445)
(8.24071 1.72371e-20 1.54879)
(8.39454 -1.27431e-20 1.53456)
(8.013 4.13217e-19 1.73703)
(8.18183 4.35711e-19 1.72215)
(7.76922 9.62151e-19 1.94469)
(7.95401 -2.94721e-20 1.92906)
(7.50848 9.14618e-19 2.17354)
(7.71062 1.00868e-18 2.15738)
(7.22955 -1.03343e-18 2.42529)
(7.45053 -2.17674e-20 2.40902)
(6.93089 -8.93958e-19 2.7017)
(7.17259 -1.03619e-18 2.68596)
(6.61036 -7.48146e-20 3.00444)
(6.87491 -1.04277e-18 2.99025)
(6.26439 -1.38396e-19 3.33474)
(6.55493 1.99402e-18 3.32413)
(5.88713 -1.47738e-19 3.69295)
(6.20855 -1.02067e-18 3.6893)
(5.47077 -2.53159e-18 4.07812)
(5.82906 -2.37257e-18 4.08613)
(5.00455 -2.38168e-18 4.48626)
(5.40755 -1.53978e-19 4.51352)
(4.47538 9.65712e-20 4.91115)
(4.93493 8.08601e-22 4.96443)
(3.85303 2.35697e-18 5.32259)
(4.36377 8.26787e-20 5.44226)
(3.16776 2.40528e-18 5.72259)
(3.8549 2.41388e-18 5.81566)
(2.67227 6.41343e-20 6.43254)
(9.98657 -1.23574e-19 0.101234)
(9.98985 -5.32696e-20 0.071281)
(9.96074 -2.80661e-20 0.165646)
(9.9744 -1.32803e-19 0.138779)
(9.92277 -3.66965e-20 0.230484)
(9.94638 5.30183e-22 0.205833)
(9.87281 -1.02218e-19 0.297663)
(9.90377 -1.35169e-19 0.274573)
(9.81102 -1.46084e-19 0.368614)
(9.84874 -1.94743e-22 0.34663)
(9.73753 -3.01884e-20 0.444459)
(9.78257 3.57331e-20 0.423275)
(9.65233 -4.51142e-20 0.526156)
(9.70532 3.86246e-20 0.505526)
(9.55537 -7.43717e-20 0.614669)
(9.61678 -1.57538e-19 0.59433)
(9.44654 1.87401e-20 0.711055)
(9.51684 2.85595e-19 0.690723)
(9.32567 -2.10237e-20 0.816448)
(9.40536 -1.89632e-19 0.795854)
(9.19251 4.67176e-20 0.932031)
(9.28221 -1.76104e-19 0.91093)
(9.04676 -1.61933e-19 1.05907)
(9.14715 2.26974e-19 1.0372)
(8.88809 1.17798e-20 1.19891)
(8.99981 -2.04285e-19 1.17604)
(8.71623 -2.20048e-19 1.353)
(8.84002 1.97738e-19 1.32886)
(8.53098 2.29626e-20 1.52286)
(8.6676 -7.41958e-21 1.49714)
(8.33205 4.12275e-19 1.71012)
(8.48248 1.47554e-20 1.68256)
(8.11894 -1.36052e-20 1.91658)
(8.28429 -1.54122e-22 1.88694)
(7.89118 2.98683e-20 2.14434)
(8.07231 0 2.11231)
(7.64814 5.99687e-20 2.39558)
(7.84629 -1.39376e-20 2.36106)
(7.38874 -3.42418e-20 2.67253)
(7.60547 -9.56236e-19 2.63558)
(7.11141 -1.18416e-18 2.9775)
(7.34886 9.11669e-19 2.93845)
(6.81393 1.05063e-18 3.31304)
(7.07447 -1.11133e-18 3.27247)
(6.49323 1.09348e-18 3.68175)
(6.7797 1.11008e-18 3.64081)
(6.1441 -3.25415e-18 4.08539)
(6.46126 2.04267e-18 4.04668)
(5.75887 5.06706e-21 4.5243)
(6.11289 -2.22785e-18 4.49186)
(5.32696 2.21646e-18 4.99502)
(5.72508 1.17423e-19 4.97656)
(4.83602 -2.35405e-21 5.49113)
(5.29245 2.20137e-18 5.49269)
(4.25043 -4.53158e-21 5.97643)
(4.74664 -4.29493e-18 6.05151)
(3.59715 -1.96004e-20 6.44184)
(4.31758 2.16662e-18 6.4788)
(3.06328 -4.45578e-22 7.19998)
(9.98693 -6.396e-20 0.109858)
(9.98985 1.27829e-19 0.0769457)
(9.96203 -1.01705e-19 0.180085)
(9.97523 5.45951e-20 0.149971)
(9.92573 -1.00478e-19 0.251041)
(9.94865 6.47414e-20 0.222779)
(9.87809 -3.0703e-20 0.32469)
(9.90804 3.31945e-20 0.297648)
(9.81924 1.8233e-19 0.402475)
(9.85569 3.52579e-20 0.376191)
(9.74937 1.04648e-19 0.485561)
(9.79293 9.98563e-22 0.459652)
(9.66857 -7.71327e-20 0.574972)
(9.71986 -7.49492e-20 0.549122)
(9.57679 2.09781e-19 0.67173)
(9.63628 -3.94345e-20 0.645637)
(9.47397 6.96622e-20 0.776953)
(9.54211 2.04441e-19 0.750271)
(9.36001 -3.44649e-19 0.891863)
(9.43727 -2.10128e-19 0.864238)
(9.23472 1.0246e-20 1.01774)
(9.32175 -1.76285e-19 0.988849)
(9.09785 1.78371e-19 1.15594)
(9.19528 3.391e-19 1.12546)
(8.94916 -1.24543e-20 1.30787)
(9.05761 -1.85326e-19 1.27547)
(8.78855 4.07682e-19 1.475)
(8.90882 -1.22863e-20 1.44033)
(8.61598 -1.49378e-20 1.65897)
(8.7488 4.14325e-19 1.62157)
(8.43128 -3.98731e-19 1.86167)
(8.57745 -4.05519e-19 1.82103)
(8.23396 1.34794e-20 2.08512)
(8.39468 4.61413e-22 2.04092)
(8.02349 -4.40019e-20 2.33164)
(8.19981 -6.79489e-21 2.28344)
(7.79943 -1.04134e-18 2.60378)
(7.99266 8.74332e-19 2.55116)
(7.56107 6.5871e-21 2.90432)
(7.77274 -2.83683e-18 2.84688)
(7.30706 9.6782e-19 3.2363)
(7.53918 2.86937e-18 3.17384)
(7.03512 -1.03552e-18 3.60313)
(7.29039 -3.73504e-21 3.53584)
(6.74226 2.06236e-18 4.00863)
(7.02384 -4.89122e-20 3.93693)
(6.42408 3.05913e-18 4.45598)
(6.73658 3.07098e-18 4.3816)
(6.07316 -2.10531e-18 4.94697)
(6.4231 -5.30983e-23 4.87339)
(5.67836 1.05799e-19 5.4793)
(6.07284 -1.0666e-19 5.41434)
(5.22728 -2.14646e-18 6.04711)
(5.68448 1.17995e-19 5.9957)
(4.67843 -2.30976e-18 6.61016)
(5.1655 -4.28932e-18 6.63917)
(4.04632 2.08033e-18 7.14965)
(4.81125 4.36117e-18 7.13296)
(3.48229 -2.27184e-18 7.97035)
(9.98743 2.45083e-19 0.118153)
(9.98985 7.72388e-21 0.0823971)
(9.96374 2.21294e-19 0.193885)
(9.97629 1.17007e-19 0.160632)
(9.92926 1.979e-19 0.270632)
(9.95135 9.7124e-20 0.238897)
(9.88406 9.92021e-20 0.350409)
(9.91285 3.38787e-20 0.319576)
(9.82838 -1.46758e-19 0.434641)
(9.86338 2.74762e-22 0.404212)
(9.76247 -1.79995e-19 0.524526)
(9.80432 -1.30514e-21 0.494044)
(9.6864 -3.66546e-20 0.621164)
(9.73572 3.73347e-20 0.590265)
(9.60016 -4.09009e-20 0.725631)
(9.65744 0 0.693979)
(9.50375 -8.20067e-20 0.839093)
(9.56941 -1.8095e-22 0.80628)
(9.39716 -4.10922e-20 0.962858)
(9.4716 1.66045e-19 0.928435)
(9.28024 1.60395e-19 1.09831)
(9.36408 -1.70877e-19 1.06187)
(9.1528 -3.23069e-20 1.24684)
(9.24668 5.14446e-19 1.20802)
(9.01482 -1.82844e-19 1.40989)
(9.11933 -5.96832e-19 1.36826)
(8.86634 0 1.58898)
(8.9823 0 1.54407)
(8.70729 1.29733e-20 1.78586)
(8.83554 2.43381e-20 1.73713)
(8.53758 -7.24133e-22 2.00266)
(8.67879 2.52128e-20 1.94942)
(8.35704 -1.99367e-20 2.24169)
(8.51218 2.56344e-20 2.18334)
(8.16532 9.22074e-19 2.50545)
(8.33556 -9.18495e-23 2.44135)
(7.96203 -9.5769e-19 2.79682)
(8.14887 6.93408e-20 2.72624)
(7.74655 7.58672e-20 3.11904)
(7.95178 -6.25799e-20 3.04128)
(7.51793 1.87774e-18 3.47598)
(7.74327 9.85887e-19 3.39024)
(7.27436 9.81652e-19 3.87208)
(7.52257 -3.74501e-21 3.77782)
(7.01301 9.76325e-19 4.31227)
(7.28781 4.61288e-20 4.20918)
(6.72995 0 4.80133)
(7.03604 9.45461e-19 4.6901)
(6.41806 2.00723e-18 5.34302)
(6.76272 -1.99667e-18 5.22632)
(6.06524 -7.30851e-20 5.93711)
(6.45631 3.89771e-18 5.82267)
(5.65764 -2.07789e-18 6.58014)
(6.11913 -2.31503e-18 6.47103)
(5.14823 2.21001e-18 7.23171)
(5.63402 0 7.2061)
(4.52959 -8.39006e-19 7.86873)
(5.3525 1.96338e-18 7.79153)
(3.94507 -2.1698e-18 8.77981)
(9.98803 -1.1865e-19 0.126042)
(9.98997 6.45983e-21 0.0875866)
(9.96571 -7.59741e-21 0.206962)
(9.97748 -7.74577e-21 0.170689)
(9.9332 -6.80803e-20 0.289191)
(9.9543 1.59697e-19 0.25412)
(9.89061 -6.57041e-20 0.37473)
(9.9181 -1.00002e-19 0.340277)
(9.83836 1.45775e-19 0.464973)
(9.87176 -6.89859e-20 0.430569)
(9.77668 2.16819e-19 0.561188)
(9.81663 1.43076e-19 0.526307)
(9.70564 7.34176e-20 0.664551)
(9.75275 1.48759e-19 0.628797)
(9.62527 4.07411e-20 0.776174)
(9.68005 -7.63179e-20 0.739174)
(9.53563 2.50595e-19 0.897258)
(9.59848 1.19108e-19 0.858549)
(9.43673 3.12716e-20 1.02919)
(9.50803 2.48861e-19 0.988249)
(9.32854 1.93234e-19 1.17342)
(9.40883 -4.32267e-20 1.12977)
(9.21108 -6.57307e-20 1.33136)
(9.30097 2.25843e-19 1.28456)
(9.08447 -4.05925e-19 1.50446)
(9.18457 -6.84345e-19 1.45398)
(8.94887 2.46774e-20 1.69435)
(9.05981 3.25286e-19 1.63957)
(8.80418 3.66198e-20 1.90294)
(8.92686 2.35014e-22 1.84323)
(8.65032 5.16137e-20 2.13245)
(8.78557 -4.57987e-19 2.06706)
(8.48745 4.5258e-20 2.38539)
(8.63613 4.17935e-19 2.31345)
(8.31567 -8.53594e-19 2.66452)
(8.47879 -8.26793e-19 2.58502)
(8.13485 9.63421e-19 2.97308)
(8.31378 2.13303e-20 2.88492)
(7.94437 8.60294e-19 3.3148)
(8.14116 1.79482e-18 3.21698)
(7.74356 -9.05936e-19 3.6942)
(7.96007 -9.13623e-19 3.58537)
(7.53148 -9.43359e-19 4.11671)
(7.77031 0 3.9954)
(7.30589 1.3344e-20 4.58854)
(7.57108 -9.39977e-19 4.4535)
(7.06327 -1.06152e-18 5.11647)
(7.3598 9.48889e-19 4.96697)
(6.79714 -1.01685e-19 5.70703)
(7.13338 -1.99979e-18 5.54407)
(6.49466 1.66233e-18 6.36333)
(6.88012 1.89949e-18 6.19367)
(6.13888 -2.26888e-19 7.08779)
(6.60576 -7.48028e-21 6.91138)
(5.67864 -2.38441e-19 7.84635)
(6.17205 0 7.74695)
(5.07548 -9.51854e-20 8.62519)
(5.97188 -4.06229e-20 8.4629)
(4.48574 1.24168e-19 9.67398)
(9.98874 1.17077e-19 0.133477)
(9.99023 1.33559e-19 0.0924698)
(9.96784 1.62754e-19 0.21926)
(9.97876 1.53588e-20 0.180119)
(9.93745 1.2313e-19 0.306636)
(9.95737 -9.4554e-20 0.268381)
(9.89771 -1.02743e-19 0.397545)
(9.92374 -1.32144e-19 0.359638)
(9.84909 -6.81018e-20 0.493347)
(9.88076 -6.89614e-20 0.455151)
(9.79185 7.50573e-20 0.595408)
(9.82973 -7.0943e-20 0.556332)
(9.72608 -4.66922e-21 0.704975)
(9.77074 1.03374e-21 0.66459)
(9.65186 5.112e-21 0.823181)
(9.70386 -7.42969e-22 0.781071)
(9.56928 1.19313e-19 0.951261)
(9.62896 -7.78351e-20 0.906911)
(9.47841 1.70089e-19 1.09064)
(9.54612 2.18573e-22 1.04348)
(9.37939 -6.71942e-21 1.2428)
(9.45565 1.70038e-19 1.19227)
(9.27242 -4.05682e-19 1.40916)
(9.35783 -5.21106e-19 1.35473)
(9.15765 6.05364e-20 1.59119)
(9.25287 3.74537e-20 1.53229)
(9.03528 2.96969e-19 1.79064)
(9.14077 3.71915e-19 1.72654)
(8.90552 -5.00374e-19 2.0096)
(9.02193 -2.41824e-20 1.93945)
(8.76849 -8.23591e-20 2.25032)
(8.89672 -8.28893e-20 2.17325)
(8.62439 -4.67783e-19 2.51537)
(8.76543 -6.46792e-20 2.43037)
(8.47359 5.56075e-20 2.80771)
(8.62844 -2.46273e-20 2.71352)
(8.31645 8.67792e-19 3.131)
(8.48611 5.22424e-22 3.02604)
(8.15288 0 3.48948)
(8.33924 -8.37548e-19 3.37224)
(7.98259 0 3.88813)
(8.1878 8.47379e-19 3.75672)
(7.80538 0 4.33321)
(8.03189 0 4.18518)
(7.62001 0 4.8323)
(7.87192 0 4.66524)
(7.42405 4.04514e-21 5.39446)
(7.7066 8.39651e-19 5.20566)
(7.21253 4.03024e-21 6.02974)
(7.53496 -7.30999e-19 5.81724)
(6.9733 2.21413e-19 6.74677)
(7.34698 1.98764e-19 6.51416)
(6.68619 2.19821e-19 7.55905)
(7.15349 2.21443e-19 7.30023)
(6.29958 1.98333e-19 8.44947)
(6.80572 1.4518e-18 8.24197)
(5.73716 1.87861e-19 9.44658)
(6.72081 -4.76432e-19 9.13853)
(5.17142 -2.37779e-19 10.711)
(9.9895 2.95966e-20 0.140427)
(9.99064 -1.18659e-19 0.0970233)
(9.97008 -2.44213e-19 0.230736)
(9.98007 3.06099e-20 0.188894)
(9.94193 -3.50556e-19 0.322884)
(9.96052 -1.59399e-19 0.281618)
(9.90525 -9.73213e-20 0.418746)
(9.92975 -6.63232e-20 0.377556)
(9.86047 -7.18345e-20 0.519661)
(9.89035 6.80967e-20 0.47786)
(9.80784 -1.43861e-19 0.627086)
(9.84352 6.98934e-20 0.584037)
(9.74749 4.91362e-21 0.742322)
(9.78959 7.22634e-20 0.697556)
(9.67957 -8.48968e-20 0.866516)
(9.72869 -7.46602e-20 0.819579)
(9.60423 -1.95917e-19 1.00092)
(9.66064 -1.56549e-19 0.951252)
(9.52172 2.54739e-21 1.14695)
(9.58564 4.01776e-20 1.09393)
(9.43233 -3.54292e-19 1.30612)
(9.50424 -1.22903e-19 1.24908)
(9.33633 -7.03809e-20 1.47989)
(9.41677 -4.87914e-20 1.41822)
(9.2338 3.53326e-19 1.66978)
(9.32347 -3.90677e-19 1.60293)
(9.125 4.55346e-20 1.87755)
(9.22447 4.43816e-20 1.80473)
(9.01055 3.93357e-19 2.10531)
(9.1202 3.68998e-19 2.02546)
(8.89094 -6.46747e-20 2.35549)
(9.01143 4.36927e-19 2.26748)
(8.76652 3.79396e-19 2.63069)
(8.89883 -3.96809e-19 2.5334)
(8.63774 -7.86406e-20 2.93394)
(8.78295 7.15203e-19 2.82595)
(8.50537 -1.71569e-18 3.26915)
(8.66429 -7.79097e-19 3.14849)
(8.37025 1.87798e-20 3.64095)
(8.54433 -8.40138e-19 3.50547)
(8.23285 8.44327e-19 4.05469)
(8.42409 8.50244e-19 3.90186)
(8.0937 0 4.51733)
(8.30436 -1.00906e-19 4.34376)
(7.95311 8.43734e-19 5.03754)
(8.18708 8.07143e-19 4.83938)
(7.81058 1.07565e-19 5.62626)
(8.07305 -1.63362e-19 5.39845)
(7.66403 -5.36903e-19 6.29737)
(7.96408 -7.39009e-19 6.0338)
(7.50538 1.9886e-19 7.06722)
(7.85511 7.42509e-19 6.76469)
(7.3157 1.46241e-18 7.96528)
(7.76632 -1.08942e-18 7.60629)
(7.05316 1.01759e-18 9.00803)
(7.56044 8.20283e-19 8.64148)
(6.61087 -1.72632e-18 10.3526)
(7.67679 -2.1241e-19 9.75989)
(6.11619 3.28344e-19 11.9649)
(9.99032 -1.15114e-19 0.146872)
(9.99117 -2.46387e-19 0.101222)
(9.9724 1.11839e-19 0.241345)
(9.98141 -9.88372e-20 0.197009)
(9.94665 1.26659e-19 0.337847)
(9.96374 6.71764e-20 0.293764)
(9.91327 1.0144e-19 0.438231)
(9.93601 2.93957e-21 0.393924)
(9.87248 2.09931e-19 0.543827)
(9.90031 -5.80982e-20 0.498625)
(9.82456 2.86206e-19 0.656138)
(9.85778 1.43052e-19 0.609366)
(9.7698 -9.63162e-21 0.776502)
(9.80906 -5.66524e-20 0.727621)
(9.70838 -1.47633e-19 0.906076)
(9.75433 -8.32939e-20 0.854601)
(9.64052 8.26146e-20 1.04609)
(9.69339 2.18459e-19 0.991457)
(9.56659 -8.75687e-20 1.19794)
(9.62656 1.57741e-19 1.13947)
(9.487 1.83889e-19 1.36316)
(9.55448 -9.14344e-20 1.30011)
(9.40206 -3.73647e-19 1.54332)
(9.47749 -4.87161e-20 1.475)
(9.31204 -6.95365e-19 1.73999)
(9.39597 -3.90214e-19 1.66575)
(9.21734 3.71574e-19 1.95479)
(9.31047 -1.79251e-21 1.87384)
(9.11863 4.1344e-19 2.18981)
(9.22138 7.2016e-19 2.10099)
(9.01672 9.64763e-20 2.44756)
(9.12949 -2.14294e-19 2.34956)
(8.91236 -5.05482e-20 2.73075)
(9.03598 3.18511e-19 2.62224)
(8.80634 3.11433e-21 3.04243)
(8.94175 -4.61298e-19 2.92179)
(8.69975 9.86448e-20 3.38648)
(8.84774 7.42862e-19 3.25149)
(8.59418 0 3.76762)
(8.75581 -3.25432e-21 3.61564)
(8.4912 -1.01586e-19 4.19147)
(8.66789 -7.46473e-19 4.0193)
(8.39259 7.11092e-19 4.66535)
(8.58613 -8.92781e-21 4.46864)
(8.30063 -1.99586e-19 5.19837)
(8.5142 9.84577e-20 4.97173)
(8.21766 -1.00725e-18 5.80226)
(8.45548 6.03797e-20 5.53836)
(8.1462 5.46677e-19 6.49361)
(8.41561 1.71486e-19 6.1818)
(8.08719 -5.25884e-19 7.29538)
(8.39775 2.31272e-19 6.92276)
(8.03377 -1.72286e-18 8.25138)
(8.43644 -1.88496e-19 7.78398)
(7.97788 -3.43287e-19 9.42229)
(8.44013 -1.24727e-18 8.8502)
(7.85407 1.64903e-18 11.3313)
(9.00641 2.88031e-19 10.1168)
(8.71209 6.68386e-19 13.4444)
(0.164981 1.20562e-20 -0.105054)
(0.105215 -3.40899e-20 -0.139133)
(0.382522 -1.14886e-20 -0.108994)
(0.261013 -5.66407e-21 -0.172356)
(0.588947 0 -0.0902156)
(0.465861 0 -0.148658)
(0.770382 8.64644e-21 -0.0713923)
(0.663303 4.59922e-21 -0.12164)
(0.927754 -5.69624e-22 -0.0567165)
(0.838649 8.82075e-21 -0.100618)
(1.0644 -9.20918e-21 -0.0458719)
(0.991867 -2.56329e-20 -0.0850864)
(1.1841 -6.55284e-22 -0.0378223)
(1.12642 1.69337e-20 -0.073782)
(1.28953 -4.29475e-21 -0.0313944)
(1.24609 1.66465e-20 -0.0650401)
(1.382 4.07911e-21 -0.025624)
(1.35302 -1.25293e-20 -0.05742)
(1.46153 9.38054e-21 -0.0198294)
(1.44831 2.06906e-21 -0.0497677)
(1.5271 -9.86789e-22 -0.0136321)
(1.53197 -4.79743e-23 -0.0413261)
(1.5773 2.92987e-21 -0.00701039)
(1.60312 -2.01582e-21 -0.0317693)
(1.61116 4.98041e-21 -0.000425031)
(1.66101 3.94211e-21 -0.0214096)
(1.62895 -1.8581e-23 0.00529699)
(1.70494 -2.00371e-21 -0.0111078)
(1.6326 0 0.0094058)
(1.73493 -3.73476e-21 -0.00197926)
(1.62539 -1.69812e-21 0.0116278)
(1.75223 0 0.0050419)
(1.61113 -1.71435e-21 0.0121258)
(1.75951 -1.02594e-23 0.00958864)
(1.59375 0 0.0112192)
(1.76047 -1.60756e-21 0.011576)
(1.57696 -3.31366e-22 0.00929576)
(1.75901 0 0.0111698)
(1.56375 6.27961e-22 0.00672182)
(1.75841 -3.33363e-22 0.00888106)
(1.5563 4.01319e-22 0.00383614)
(1.76094 -9.40943e-22 0.0052346)
(1.55548 -5.71178e-22 0.00110237)
(1.76743 -1.13272e-21 0.0010635)
(1.5605 -4.32099e-22 -0.00104958)
(1.77753 0 -0.00255437)
(1.56977 -4.36951e-22 -0.00248723)
(1.79046 1.03847e-24 -0.00514915)
(1.58178 0 -0.00331447)
(1.80514 7.30659e-22 -0.00678523)
(1.59531 0 -0.00370377)
(1.82049 0 -0.00766081)
(1.60952 8.15522e-24 -0.00382561)
(1.83614 -9.66589e-22 -0.00801244)
(1.62395 4.63097e-24 -0.00382994)
(1.8518 5.68198e-23 -0.00807545)
(1.63848 -6.66194e-23 -0.00386299)
(1.86715 -3.99178e-22 -0.00806338)
(1.88497 -1.35737e-22 -0.00815732)
(0.150422 -4.13134e-20 -0.233666)
(0.0819414 -4.84963e-20 -0.286206)
(0.350253 5.59953e-21 -0.243884)
(0.208985 -4.23087e-20 -0.330441)
(0.552654 4.46511e-21 -0.208657)
(0.408234 3.44882e-20 -0.291267)
(0.738877 4.68617e-21 -0.172962)
(0.596346 -4.91232e-21 -0.243918)
(0.905585 -1.68086e-20 -0.145149)
(0.765848 0 -0.205626)
(1.05447 6.82909e-22 -0.124675)
(0.91722 -1.90758e-20 -0.177032)
(1.18804 3.41632e-20 -0.109465)
(1.05193 1.68698e-20 -0.155947)
(1.30883 8.71761e-21 -0.0973216)
(1.17292 1.14976e-22 -0.139782)