/*--------------------------------*- C++ -*----------------------------------*\
| =========                 |                                                 |
| \\      /  F ield         | OpenFOAM: The Open Source CFD Toolbox           |
|  \\    /   O peration     | Version:  dev                                   |
|   \\  /    A nd           | Web:      www.OpenFOAM.org                      |
|    \\/     M anipulation  |                                                 |
\*---------------------------------------------------------------------------*/
FoamFile
{
    version     2.0;
    format      ascii;
    class       volVectorField;
    location    "4.57";
    object      U;
}
// * * * * * * * * * * * * * * * * * * * * * * * * * * * * * * * * * * * * * //

dimensions      [0 1 -1 0 0 0 0];

internalField   nonuniform List<vector> 
465
(
(9.76529 0 5.05509)
(10.0793 -8.25563e-20 4.96649)
(10.217 8.61327e-20 5.38643)
(10.3943 0 5.82533)
(10.3689 -1.63833e-19 4.84601)
(10.5313 -6.44783e-23 5.2278)
(10.7309 0 5.62025)
(10.9728 1.51242e-19 6.01867)
(11.2619 -1.41292e-19 6.41644)
(10.6316 -1.52898e-19 4.69935)
(10.8119 7.47029e-20 5.04374)
(11.0257 0 5.39238)
(11.2764 6.80307e-20 5.74043)
(11.5666 -7.53066e-21 6.08171)
(11.8979 -1.38538e-19 6.40882)
(12.271 0 6.71283)
(10.8667 1.05419e-19 4.53175)
(11.0589 -1.09855e-19 4.84062)
(11.2806 0 5.14902)
(11.5338 0 5.45244)
(11.8195 1.31619e-19 5.7455)
(12.1378 -6.90847e-20 6.02215)
(12.488 0 6.27575)
(12.8625 0 6.49929)
(13.3078 0 6.68953)
(11.0742 -6.92121e-20 4.34787)
(11.2735 7.04652e-20 4.62375)
(11.4983 0 4.89586)
(11.7495 0 5.16022)
(12.0272 0 5.41232)
(12.3305 -1.26703e-19 5.64734)
(12.6579 0 5.86033)
(13.0026 2.8376e-19 6.0462)
(13.4046 -2.57543e-19 6.20292)
(11.2549 -2.00008e-19 4.1517)
(11.4575 6.92432e-20 4.39739)
(11.6819 1.94923e-19 4.63714)
(11.9281 -1.3187e-19 4.86755)
(12.1956 0 5.08495)
(12.4831 6.18503e-20 5.2856)
(12.7886 -5.95413e-20 5.46585)
(13.1065 -5.73054e-20 5.62212)
(13.4714 2.73861e-20 5.75331)
(11.41 -6.59715e-20 3.94656)
(11.613 6.49465e-20 4.16492)
(11.8345 -6.41242e-20 4.37603)
(12.0738 -2.45772e-19 4.57706)
(12.33 9.87961e-21 4.76511)
(12.6017 1.85202e-19 4.93731)
(12.8869 -1.39981e-19 5.09102)
(13.1807 2.31756e-19 5.22378)
(13.5139 -1.83582e-19 5.3351)
(11.5411 -6.22029e-20 3.73515)
(11.7425 1.8325e-19 3.92895)
(11.9592 5.35121e-20 4.11483)
(12.1904 -1.86299e-19 4.29049)
(12.435 -2.33962e-19 4.45366)
(12.6915 2.97018e-19 4.6022)
(12.9579 1.9462e-19 4.73421)
(13.2303 1.74472e-20 4.84801)
(13.5361 -2.75205e-19 4.94355)
(11.6502 -1.34822e-21 3.51966)
(11.8483 2.97446e-19 3.69148)
(12.0591 -3.01448e-19 3.85517)
(12.2816 -5.9154e-20 4.00889)
(12.5146 2.88949e-20 4.1509)
(12.7567 2.23591e-19 4.27962)
(13.0061 -2.2785e-19 4.3937)
(13.2593 -2.72797e-20 4.49202)
(13.5415 2.65708e-20 4.57481)
(11.7392 1.13958e-19 3.30179)
(11.933 -2.35453e-19 3.454)
(12.1371 2.27433e-19 3.59817)
(12.3506 -2.31864e-19 3.73288)
(12.5724 -2.83173e-20 3.8568)
(12.801 0 3.96878)
(13.0349 0 4.06788)
(13.2711 0 4.15337)
(13.5329 0 4.22564)
(11.6308 -2.2903e-19 2.9417)
(11.8102 5.69012e-20 3.08289)
(11.9988 2.22383e-19 3.21758)
(12.1959 -4.47565e-19 3.34457)
(12.4006 2.25127e-19 3.46273)
(12.6116 0 3.57109)
(12.8277 0 3.66881)
(13.0475 -2.67374e-20 3.75525)
(13.2687 -2.33239e-19 3.82994)
(13.5124 2.1095e-19 3.89338)
(11.6897 -2.7168e-19 2.73863)
(11.8651 4.38099e-19 2.86396)
(12.0482 -2.4815e-19 2.98299)
(12.2382 2.41567e-19 3.09479)
(12.4341 -4.04747e-19 3.19849)
(12.6349 2.17089e-19 3.29336)
(12.8395 2.08653e-19 3.37882)
(13.0466 -1.86519e-19 3.45443)
(13.2543 5.16748e-20 3.51992)
(13.4823 -1.86857e-19 3.57581)
(11.7351 -1.34758e-19 2.53474)
(11.9061 0 2.64572)
(12.0834 -1.82859e-19 2.75073)
(12.2663 1.87187e-19 2.84905)
(12.4539 -2.63478e-20 2.94003)
(12.6451 0 3.02312)
(12.8391 0 3.09793)
(13.0347 -2.01854e-19 3.16417)
(13.2304 1.80463e-19 3.22169)
(13.4444 3.48302e-23 3.27103)
(11.7686 -4.75153e-20 2.3307)
(11.935 4.37806e-19 2.42866)
(12.1065 -2.33728e-19 2.52108)
(12.2825 -2.02868e-19 2.60738)
(12.4621 4.0888e-19 2.68709)
(12.6445 -3.0604e-20 2.75981)
(12.8288 -2.04724e-19 2.82527)
(13.0141 0 2.88331)
(13.1989 0 2.93385)
(13.4006 -1.22875e-20 2.97741)
(11.7921 -1.72914e-19 2.12697)
(11.9537 3.50146e-19 2.21309)
(12.1195 -4.08773e-21 2.29413)
(12.2889 -2.01924e-19 2.36966)
(12.4611 1.96779e-19 2.43931)
(12.6353 -3.47025e-19 2.50283)
(12.8108 1.87481e-19 2.56001)
(12.9867 -3.8699e-19 2.61077)
(13.1619 1.053e-20 2.65511)
(13.3526 3.91723e-19 2.69351)
(11.807 -1.92333e-19 1.92381)
(11.964 1.96504e-19 1.99912)
(12.1243 2.16908e-19 2.06984)
(12.2875 -3.64483e-19 2.13564)
(12.4528 4.1221e-19 2.19626)
(12.6195 -2.19934e-19 2.25151)
(12.7869 -3.80692e-19 2.30129)
(12.9544 3.76337e-19 2.34554)
(13.121 0 2.3843)
(13.302 0 2.41802)
(11.8151 -1.86933e-19 1.72137)
(11.9675 1.9099e-19 1.78675)
(12.1227 0 1.84804)
(12.2801 -2.37255e-20 1.90499)
(12.439 -2.36932e-20 1.95743)
(12.5989 -1.74838e-19 2.00521)
(12.7591 -1.69899e-19 2.04829)
(12.9191 3.91247e-19 2.08665)
(13.078 0 2.12033)
(13.2503 0 2.14977)
(11.8177 1.81797e-19 1.51955)
(11.9659 -1.62559e-19 1.57576)
(12.1162 0 1.62837)
(12.2683 1.82524e-19 1.67721)
(12.4215 -1.86276e-19 1.72216)
(12.5752 -1.15306e-20 1.76313)
(12.729 -1.14807e-20 1.80008)
(12.8823 0 1.83304)
(13.0344 0 1.86205)
(13.1992 0 1.88751)
(11.8163 -1.76908e-19 1.31837)
(11.9605 3.23887e-21 1.36603)
(12.1064 3.58873e-19 1.41059)
(12.2537 -1.81445e-19 1.45194)
(12.4017 1.89198e-19 1.48997)
(12.55 -1.92844e-19 1.52465)
(12.698 1.12359e-20 1.55595)
(12.8455 -1.77291e-19 1.58391)
(12.9916 1.80846e-19 1.60857)
(13.1498 1.75888e-19 1.6303)
(11.8121 -1.75202e-19 1.11714)
(11.9527 0 1.15678)
(12.0947 1.09122e-20 1.19381)
(12.2377 0 1.22815)
(12.3811 -1.84644e-19 1.25974)
(12.5246 1.88215e-19 1.28853)
(12.6678 0 1.31455)
(12.8101 0 1.33782)
(12.9511 -5.46752e-21 1.35838)
(13.1036 5.458e-21 1.37655)
(11.8063 0 0.916313)
(11.9437 1.06054e-20 0.948342)
(12.0823 -3.15182e-23 0.978248)
(12.2215 0 1.00597)
(12.3611 -1.69498e-19 1.03147)
(12.5005 1.72992e-19 1.05473)
(12.6394 0 1.07576)
(12.7773 1.69519e-19 1.09459)
(12.914 -1.67589e-19 1.11127)
(13.0616 -5.33997e-21 1.12605)
(11.8001 0 0.713717)
(11.9348 -1.03695e-20 0.738456)
(12.0704 1.54345e-19 0.761541)
(12.2066 -3.04535e-21 0.782929)
(12.3429 -3.3406e-19 0.802597)
(12.4789 1.63653e-19 0.820538)
(12.6142 0 0.836763)
(12.7487 5.23128e-21 0.851298)
(12.8818 -1.65614e-19 0.864183)
(13.0254 1.68947e-19 0.875613)
(11.7944 0 0.511809)
(11.9268 1.60203e-19 0.529491)
(12.0601 2.23404e-21 0.545993)
(12.1937 -3.25368e-19 0.56129)
(12.3273 1.64583e-19 0.575366)
(12.4606 -1.56697e-19 0.58822)
(12.5932 3.24523e-19 0.599861)
(12.7247 -1.70366e-19 0.610309)
(12.8549 1.64523e-19 0.619595)
(12.9953 -1.65229e-19 0.627866)
(11.7901 7.66462e-20 0.304377)
(11.9209 7.57097e-20 0.315036)
(12.0523 -8.72569e-20 0.324966)
(12.1841 7.87001e-20 0.334156)
(12.3157 -1.56741e-19 0.342599)
(12.447 8.05202e-20 0.3503)
(12.5775 2.49729e-21 0.357266)
(12.707 0 0.363516)
(12.8352 -8.16585e-20 0.369073)
(12.9734 5.29762e-22 0.374045)
(11.5963 -1.6949e-20 0.100368)
(11.722 2.4123e-21 0.104267)
(11.8485 -3.59866e-20 0.107912)
(11.9756 3.92219e-20 0.111296)
(12.1027 -2.43737e-21 0.114416)
(12.2297 0 0.117271)
(12.356 0 0.119861)
(12.4814 -3.87948e-20 0.122192)
(12.6058 3.9585e-20 0.124266)
(12.7398 1.22468e-21 0.12613)
(13.5601 -2.27824e-20 6.763)
(13.6304 -3.31035e-19 6.26414)
(13.845 3.74008e-19 6.31396)
(14.0261 0 6.354)
(13.6751 -2.28464e-20 5.80511)
(13.8683 -1.09632e-20 5.84768)
(14.0312 -3.28071e-19 5.88242)
(13.6988 3.90262e-19 5.37951)
(13.874 3.5312e-19 5.41637)
(14.0217 -3.52159e-19 5.4468)
(13.7052 -3.53692e-19 4.98208)
(13.8652 3.64237e-19 5.01437)
(14 -3.22495e-19 5.04132)
(13.6971 0 4.60855)
(13.8441 -2.16046e-20 4.63709)
(13.9681 -3.32938e-19 4.66118)
(13.6767 -3.48366e-19 4.2554)
(13.8126 7.03567e-19 4.2808)
(13.9273 -7.09615e-21 4.30245)
(13.6461 0 3.91975)
(13.7724 -5.2875e-21 3.94245)
(13.879 0 3.96199)
(13.6071 1.81827e-20 3.59924)
(13.725 6.73236e-19 3.61957)
(13.8245 -6.54335e-19 3.6372)
(13.5614 -6.82121e-19 3.29189)
(13.6719 1.32915e-18 3.3101)
(13.7652 -1.56489e-20 3.32601)
(13.5107 -6.61585e-19 2.99596)
(13.6147 6.60979e-19 3.01226)
(13.7025 -6.38846e-19 3.0266)
(13.4566 0 2.70997)
(13.5548 0 2.72452)
(13.6378 6.30109e-19 2.73739)
(13.4006 -5.04925e-21 2.43257)
(13.4937 0 2.44548)
(13.5724 0 2.45697)
(13.3441 4.94633e-21 2.16253)
(13.4328 2.43805e-21 2.17392)
(13.5077 0 2.18408)
(13.2888 0 1.89859)
(13.3734 -2.38785e-21 1.90852)
(13.4451 0 1.91741)
(13.2357 -3.0951e-19 1.6398)
(13.3169 5.94587e-19 1.64833)
(13.3857 -5.96541e-19 1.656)
(13.1864 2.33412e-21 1.38452)
(13.2646 2.29895e-21 1.39169)
(13.3309 0 1.39815)
(13.1417 0 1.13257)
(13.2174 0 1.13844)
(13.2816 2.83732e-19 1.14374)
(13.1033 0 0.880646)
(13.177 0 0.885185)
(13.2394 2.76913e-19 0.889286)
(13.0714 -2.77709e-19 0.631517)
(13.1434 2.7855e-19 0.634807)
(13.2046 1.06784e-21 0.637776)
(13.0482 1.36961e-19 0.376174)
(13.119 -1.34857e-19 0.378031)
(13.179 1.34542e-19 0.379685)
(12.8126 0 0.126878)
(12.8814 2.59727e-22 0.127498)
(12.9398 6.54682e-20 0.128057)
(14.3549 -2.26562e-20 6.40395)
(14.3276 3.39759e-20 5.93165)
(14.6433 1.72516e-19 5.95086)
(14.9882 -1.8178e-20 5.93073)
(15.3223 -8.69341e-21 5.86772)
(14.2902 0 5.49261)
(14.5786 -1.65252e-19 5.51741)
(14.9002 1.41934e-19 5.51419)
(15.2226 1.44019e-19 5.47945)
(15.5268 -1.24639e-19 5.41323)
(15.8065 3.40874e-21 5.31716)
(14.2449 3.72777e-19 5.08335)
(14.5086 -1.78077e-19 5.10958)
(14.8053 1.95691e-20 5.1148)
(15.1083 0 5.09615)
(15.4022 -8.05406e-21 5.05331)
(15.6826 0 4.98705)
(15.9464 -1.02413e-22 4.89865)
(16.1898 -3.2131e-21 4.79009)
(14.1928 1.9099e-19 4.69968)
(14.4351 0 4.72575)
(14.7086 0 4.7354)
(14.9908 0 4.72631)
(15.2687 0 4.69814)
(15.5394 1.21661e-19 4.65132)
(15.801 -1.19307e-19 4.5866)
(16.0507 3.1489e-21 4.50517)
(16.2853 6.16451e-21 4.40871)
(14.1349 -1.78615e-19 4.33779)
(14.3586 0 4.36309)
(14.6117 0 4.37521)
(14.8742 0 4.3722)
(15.135 -4.47173e-21 4.35375)
(15.3921 0 4.3201)
(15.6445 2.98184e-23 4.27177)
(15.8904 1.0582e-19 4.20953)
(16.1271 -1.09847e-19 4.13453)
(14.0718 -2.3211e-20 3.99445)
(14.2795 1.72041e-19 4.01873)
(14.5147 -1.68532e-19 4.03224)
(14.7595 -1.49697e-19 4.03334)
(15.0041 1.51082e-19 4.02169)
(15.247 0 3.99745)
(15.4878 1.18963e-19 3.96096)
(15.7252 -2.26327e-19 3.91273)
(15.9572 6.76792e-21 3.85361)
(14.0045 2.10585e-19 3.667)
(14.1983 1.10116e-20 3.69008)
(14.4178 0 3.70432)
(14.647 1.50672e-19 3.70827)
(14.8769 -1.52205e-19 3.70159)
(15.1062 0 3.68436)
(15.335 1.21508e-19 3.65678)
(15.5624 -1.20978e-19 3.6192)
(15.7869 0 3.57223)
(13.934 -7.42674e-19 3.35326)
(14.1155 6.4467e-22 3.37503)
(14.3214 3.34545e-19 3.3895)
(14.5367 -4.86021e-21 3.3954)
(14.7533 -2.82873e-19 3.3924)
(14.9702 2.78214e-19 3.38051)
(15.1877 0 3.35983)
(15.4051 -1.12779e-19 3.33059)
(15.6211 1.12357e-19 3.29321)
(13.8614 3.66432e-19 3.05144)
(14.0322 0 3.07177)
(14.226 3.20034e-19 3.08608)
(14.429 -7.48836e-21 3.09325)
(14.6338 -5.71694e-19 3.09294)
(14.8394 2.76467e-19 3.08513)
(15.0464 0 3.06986)
(15.2542 -1.15937e-19 3.04725)
(15.4617 1.13675e-19 3.01759)
(13.7879 -3.61333e-19 2.75992)
(13.9492 -5.3417e-21 2.77873)
(14.1323 5.07418e-21 2.79258)
(14.3245 -4.80044e-21 2.80045)
(14.5187 -2.86992e-19 2.80207)
(14.7142 2.76863e-19 2.79736)
(14.9115 0 2.78632)
(15.1103 0 2.76902)
(15.3098 0 2.74562)
(13.7148 -5.50508e-21 2.47725)
(13.8678 5.23333e-21 2.49448)
(14.0414 4.29229e-23 2.50761)
(14.2239 7.08007e-21 2.51577)
(14.4086 2.22045e-21 2.51869)
(14.595 0 2.51629)
(14.7835 0 2.50854)
(14.9741 -2.33822e-19 2.49546)
(15.166 2.29237e-19 2.47715)
(13.6433 3.52903e-19 2.20216)
(13.7889 -6.67179e-19 2.21777)
(13.9541 3.15275e-19 2.22998)
(14.128 -2.94464e-19 2.23808)
(14.3044 9.91153e-21 2.2418)
(14.4825 2.72993e-19 2.24107)
(14.6632 0 2.23584)
(14.8463 0 2.22611)
(15.0312 0 2.21193)
(13.5746 3.31228e-19 1.93334)
(13.7137 -3.24705e-19 1.94726)
(13.8716 -2.43667e-21 1.95841)
(14.038 -2.30023e-21 1.96615)
(14.2069 -1.09981e-21 1.97027)
(14.3778 1.28964e-22 1.97069)
(14.5514 0 1.96736)
(14.7277 2.30326e-19 1.96025)
(14.9062 -2.27621e-19 1.94939)
(13.51 0 1.66981)
(13.6435 0 1.682)
(13.795 2.38567e-21 1.69195)
(13.9547 2.28245e-21 1.69912)
(14.1171 2.73448e-19 1.70331)
(14.2816 -5.25048e-19 1.70446)
(14.449 2.53956e-19 1.70252)
(14.6192 3.66673e-21 1.69745)
(14.7919 -1.0842e-19 1.68925)
(13.4507 -2.5648e-21 1.40985)
(13.5793 0 1.42028)
(13.7253 1.48431e-19 1.42891)
(13.8793 -1.48817e-19 1.43531)
(14.0361 1.34256e-19 1.4393)
(14.195 -1.31583e-19 1.44083)
(14.3569 -9.54558e-22 1.43985)
(14.5219 1.12149e-19 1.43633)
(14.6895 -2.22566e-19 1.43025)
(13.3977 -1.62439e-19 1.15335)
(13.5222 -1.50283e-19 1.16199)
(13.6635 2.9547e-19 1.16923)
(13.8127 -2.79638e-19 1.17471)
(13.9647 2.683e-19 1.1783)
(14.1189 -2.54508e-19 1.17995)
(14.2762 1.23003e-19 1.17962)
(14.4365 0 1.17728)
(14.5998 3.36613e-21 1.1729)
(13.3523 -3.1521e-19 0.896777)
(13.4734 1.49432e-19 0.903556)
(13.6109 0 0.909293)
(13.7562 -1.07893e-21 0.9137)
(13.9042 0 0.916677)
(14.0545 -4.88452e-22 0.918188)
(14.2079 0 0.918197)
(14.3645 0 0.916671)
(14.5241 1.67121e-21 0.913597)
(13.3152 2.40926e-21 0.643194)
(13.4337 1.15846e-21 0.648154)
(13.5681 5.55531e-22 0.652398)
(13.7103 0 0.655703)
(13.8552 1.2746e-19 0.658001)
(14.0025 -1.25167e-19 0.659272)
(14.1528 0 0.659489)
(14.3064 -1.0897e-19 0.658626)
(14.4631 1.03544e-19 0.656672)
(13.2877 0 0.38279)
(13.4042 0 0.385784)
(13.5365 6.8414e-20 0.38836)
(13.6763 -1.32597e-19 0.39034)
(13.8189 6.42367e-20 0.391699)
(13.9639 2.3529e-22 0.39244)
(14.112 0 0.392549)
(14.2633 0 0.392009)
(14.4178 1.6055e-21 0.390813)
(13.0454 -7.40939e-20 0.129218)
(13.1585 3.59729e-20 0.130445)
(13.2869 -3.39752e-20 0.131525)
(13.4228 6.49541e-20 0.132378)
(13.5615 -8.71585e-22 0.133007)
(13.7025 -3.00506e-20 0.133415)
(13.8466 0 0.133598)
(13.9939 2.62613e-20 0.133547)
(14.1442 -2.57433e-20 0.133258)
)
;

boundaryField
{
    inlet
    {
        type            fixedValue;
        value           nonuniform 0();
    }
    outlet
    {
        type            zeroGradient;
    }
    flap
    {
        type            movingWallVelocity;
        value           nonuniform 0();
    }
    upperWall
    {
        type            noSlip;
    }
    lowerWall
    {
        type            noSlip;
    }
    frontAndBack
    {
        type            empty;
    }
    procBoundary1to0
    {
        type            processor;
        value           nonuniform List<vector> 
18
(
(11.4653 -1.2086e-19 3.34153)
(11.5565 -1.77498e-19 3.14305)
(11.5565 -1.77498e-19 3.14305)
(11.4612 -2.24509e-19 2.79524)
(11.5226 2.7591e-19 2.60801)
(11.571 -5.33866e-20 2.41861)
(11.6081 1.78224e-19 2.22783)
(11.6353 4.99035e-20 2.03626)
(11.6542 -2.19616e-19 1.8443)
(11.6661 2.13085e-19 1.6522)
(11.6724 -1.40764e-22 1.45999)
(11.6745 -2.22855e-20 1.26778)
(11.6735 -1.93117e-19 1.07503)
(11.6705 2.11001e-20 0.882249)
(11.6668 1.75633e-19 0.687385)
(11.6631 -1.00139e-20 0.492989)
(11.6604 7.74295e-20 0.293013)
(11.472 2.95902e-22 0.0962251)
)
;
    }
    procBoundary1to2
    {
        type            processor;
        value           nonuniform List<vector> 
17
(
(16.5021 0 4.29927)
(16.3524 -8.81225e-20 4.04823)
(16.1822 -1.0499e-19 3.78465)
(16.0071 6.01133e-21 3.51664)
(15.8346 -9.83322e-20 3.24826)
(15.6681 -1.99505e-19 2.98129)
(15.5091 -3.21542e-19 2.71643)
(15.3585 2.04392e-19 2.45382)
(15.2172 -6.61631e-21 2.19343)
(15.0863 2.0781e-19 1.93486)
(14.9666 -1.03069e-19 1.67799)
(14.8594 -1.0531e-19 1.42166)
(14.7655 0 1.1665)
(14.6862 -9.94525e-20 0.908986)
(14.6225 -1.00176e-19 0.653629)
(14.5751 -7.60602e-22 0.388963)
(14.2973 2.41756e-20 0.132731)
)
;
    }
    procBoundary1to3
    {
        type            processor;
        value           nonuniform List<vector> 9((9.69279 -4.46215e-19 4.62721) (9.97467 8.33372e-20 4.56761) (10.2384 -3.20101e-19 4.47806) (10.4813 1.68006e-21 4.36282) (10.7018 7.44637e-20 4.22605) (10.8992 0 4.07165) (11.0734 -6.73158e-20 3.90314) (11.2252 2.83861e-21 3.72359) (11.3553 6.189e-20 3.53565));
    }
    procBoundary1to4
    {
        type            processor;
        value           nonuniform List<vector> 
30
(
(9.43049 -7.49097e-21 5.10588)
(9.87015 -1.71345e-19 5.51238)
(9.87015 -1.71345e-19 5.51238)
(10.0155 1.73854e-19 5.99881)
(10.6187 0 6.27929)
(10.6187 0 6.27929)
(10.8979 -2.28026e-19 6.74202)
(11.6025 -7.99366e-20 6.80499)
(11.6025 -7.99366e-20 6.80499)
(11.9971 1.79751e-19 7.17222)
(12.6773 0 6.98441)
(12.6773 0 6.98441)
(13.1733 -2.09913e-19 7.21908)
(13.4576 3.45483e-19 7.30862)
(13.8003 2.15584e-20 6.82194)
(13.8003 2.15584e-20 6.82194)
(14.003 0 6.86803)
(14.3665 0 6.90927)
(14.697 1.74207e-19 6.40731)
(14.697 1.74207e-19 6.40731)
(15.0558 -1.8612e-19 6.35332)
(15.3818 -1.04079e-19 6.24085)
(15.6223 1.25801e-19 5.76335)
(15.6223 1.25801e-19 5.76335)
(15.8803 -9.74528e-20 5.62144)
(16.0576 -1.04515e-22 5.1938)
(16.0576 -1.04515e-22 5.1938)
(16.2758 -2.69691e-21 5.04663)
(16.409 0 4.66397)
(16.409 0 4.66397)
)
;
    }
}


// ************************************************************************* //
