/*--------------------------------*- C++ -*----------------------------------*\
| =========                 |                                                 |
| \\      /  F ield         | OpenFOAM: The Open Source CFD Toolbox           |
|  \\    /   O peration     | Version:  dev                                   |
|   \\  /    A nd           | Web:      www.OpenFOAM.org                      |
|    \\/     M anipulation  |                                                 |
\*---------------------------------------------------------------------------*/
FoamFile
{
    version     2.0;
    format      ascii;
    class       volScalarField;
    location    "4.29";
    object      p;
}
// * * * * * * * * * * * * * * * * * * * * * * * * * * * * * * * * * * * * * //

dimensions      [0 2 -2 0 0 0 0];

internalField   nonuniform List<scalar> 
2790
(
140.536
140.41
140.622
141.158
141.913
142.837
143.923
145.173
146.583
148.149
149.865
151.724
153.72
155.842
158.079
160.412
162.821
165.276
167.743
170.179
172.533
174.749
176.765
178.52
179.959
181.039
181.742
182.033
182.142
182.244
140.352
140.325
140.56
141.093
141.845
142.766
143.848
145.092
146.495
148.053
149.759
151.609
153.594
155.705
157.93
160.253
162.651
165.099
167.562
169.999
172.359
174.589
176.625
178.407
179.876
180.983
181.688
181.968
182.149
182.357
140.165
140.209
140.462
140.986
141.726
142.635
143.702
144.929
146.312
147.846
149.526
151.345
153.297
155.371
157.556
159.835
162.189
164.592
167.012
169.41
171.742
173.956
175.995
177.801
179.321
180.512
181.355
181.884
182.283
182.691
139.958
140.035
140.3
140.816
141.541
142.434
143.483
144.687
146.043
147.545
149.189
150.967
152.871
154.893
157.019
159.235
161.521
163.854
166.203
168.536
170.811
172.983
175.003
176.825
178.405
179.717
180.763
181.586
182.267
182.945
139.721
139.813
140.087
140.595
141.304
142.178
143.202
144.377
145.698
147.16
148.756
150.481
152.325
154.28
156.332
158.467
160.667
162.909
165.167
167.411
169.606
171.715
173.698
175.521
177.153
178.579
179.806
180.86
181.745
182.591
139.449
139.548
139.824
140.323
141.013
141.862
142.857
143.996
145.274
146.688
148.229
149.89
151.663
153.538
155.503
157.542
159.64
161.774
163.921
166.056
168.148
170.169
172.089
173.882
175.53
177.024
178.361
179.546
180.52
181.407
139.141
139.241
139.515
140.001
140.67
141.49
142.451
143.548
144.778
146.135
147.611
149.2
150.891
152.675
154.539
156.469
158.448
160.457
162.475
164.478
166.443
168.347
170.167
171.888
173.495
174.982
176.339
177.55
178.515
179.341
138.796
138.894
139.162
139.633
140.277
141.065
141.986
143.036
144.211
145.505
146.909
148.415
150.015
151.697
153.448
155.255
157.1
158.967
160.834
162.683
164.492
166.243
167.919
169.509
171.005
172.398
173.675
174.81
175.683
176.378
138.414
138.509
138.767
139.219
139.836
140.588
141.465
142.464
143.578
144.802
146.126
147.542
149.04
150.609
152.236
153.906
155.602
157.308
159.005
160.672
162.292
163.849
165.327
166.719
168.018
169.218
170.304
171.252
171.952
172.458
137.997
138.087
138.332
138.763
139.35
140.063
140.892
141.834
142.883
144.03
145.268
146.586
147.974
149.421
150.911
152.431
153.964
155.491
156.992
158.45
159.844
161.158
162.377
163.491
164.493
165.378
166.138
166.76
167.179
167.429
137.546
137.629
137.86
138.267
138.821
139.492
140.27
141.151
142.129
143.195
144.34
145.554
146.824
148.139
149.484
150.842
152.195
153.524
154.808
156.026
157.155
158.175
159.064
159.808
160.392
160.812
161.065
161.159
161.115
160.988
137.062
137.138
137.352
137.734
138.253
138.879
139.603
140.419
141.322
142.303
143.35
144.453
145.599
146.774
147.963
149.148
150.309
151.423
152.468
153.416
154.241
154.911
155.398
155.668
155.695
155.455
154.945
154.192
153.335
152.549
136.548
136.616
136.812
137.166
137.648
138.227
138.894
139.643
140.468
141.358
142.303
143.29
144.306
145.336
146.362
147.364
148.32
149.205
149.991
150.644
151.127
151.399
151.409
151.102
150.412
149.275
147.642
145.51
143.133
140.948
136.004
136.064
136.241
136.566
137.009
137.539
138.147
138.826
139.57
140.367
141.206
142.074
142.956
143.835
144.692
145.504
146.248
146.892
147.403
147.74
147.855
147.687
147.161
146.181
144.623
142.327
139.105
134.75
129.381
123.619
135.435
135.486
135.642
135.937
136.34
136.819
137.366
137.974
138.634
139.337
140.068
140.813
141.558
142.282
142.967
143.585
144.11
144.507
144.735
144.745
144.475
143.845
142.748
141.04
138.511
134.851
129.583
121.9
110.699
93.782
2.31349
2.2974
2.22664
2.11592
1.99505
1.88307
1.78798
1.71286
1.65893
1.62604
1.6124
1.61487
1.62914
1.64982
1.67134
1.68871
1.6976
1.69435
1.67617
1.64081
1.58604
1.50995
1.41113
1.28877
1.14273
0.973841
0.784106
0.576756
0.355834
0.125644
2.24157
2.22
2.14999
2.0475
1.93785
1.83682
1.75131
1.6842
1.63673
1.60899
1.59982
1.60658
1.62492
1.64914
1.67344
1.69285
1.70321
1.70116
1.68382
1.64871
1.5938
1.51737
1.41806
1.295
1.148
0.977862
0.786726
0.578008
0.355669
0.123226
2.14125
2.11791
2.05022
1.95735
1.86135
1.77411
1.70102
1.64468
1.60634
1.58622
1.58342
1.59555
1.61885
1.64847
1.67831
1.70222
1.71564
1.71541
1.69902
1.66422
1.6091
1.5321
1.43197
1.30782
1.15936
0.987322
0.793949
0.58292
0.358271
0.122015
2.02663
2.00492
1.94036
1.85739
1.77578
1.70353
1.64441
1.60052
1.57293
1.56187
1.56675
1.58565
1.61512
1.65022
1.68491
1.71312
1.73006
1.7325
1.71806
1.68473
1.63068
1.55426
1.45406
1.32896
1.17853
1.00349
0.806277
0.591108
0.362712
0.122845
1.91228
1.89634
1.83655
1.76438
1.6973
1.64015
1.59531
1.56433
1.54785
1.5459
1.55801
1.58285
1.61749
1.65718
1.69601
1.72806
1.74859
1.75425
1.74258
1.71151
1.65914
1.58373
1.48368
1.35768
1.20513
1.02674
0.825059
0.604525
0.370607
0.125361
1.81094
1.80368
1.7498
1.68923
1.63607
1.59321
1.56209
1.54352
1.53779
1.54473
1.56366
1.59338
1.63133
1.67342
1.71441
1.74894
1.77245
1.78147
1.77327
1.74544
1.69571
1.62198
1.52234
1.39527
1.24006
1.05742
0.85008
0.622824
0.381407
0.128915
1.73266
1.73368
1.686
1.6367
1.59609
1.56579
1.54672
1.53903
1.54255
1.55689
1.58138
1.61481
1.65493
1.6982
1.74025
1.77646
1.80263
1.81512
1.81085
1.78692
1.74053
1.66912
1.57038
1.44244
1.28437
1.09683
0.882649
0.646793
0.395244
0.133339
1.68328
1.68944
1.64671
1.60616
1.57533
1.55528
1.54629
1.54776
1.55894
1.57916
1.60777
1.64369
1.68504
1.72892
1.77174
1.8096
1.83864
1.85518
1.85565
1.83657
1.79455
1.72642
1.6293
1.50085
1.33983
1.14668
0.92418
0.676784
0.411597
0.13824
1.66143
1.6679
1.62729
1.59176
1.56775
1.55619
1.556
1.56549
1.58324
1.60831
1.64005
1.67766
1.71973
1.76404
1.80771
1.84755
1.88011
1.90164
1.9081
1.89526
1.85896
1.79529
1.70071
1.57229
1.40828
1.20875
0.975743
0.713162
0.430843
0.14432
1.65856
1.65944
1.61587
1.582
1.56428
1.56163
1.57073
1.58842
1.61253
1.64195
1.67625
1.71512
1.75777
1.8026
1.84743
1.88976
1.92666
1.95446
1.96853
1.96372
1.93488
1.87721
1.78636
1.65867
1.4917
1.28491
1.03879
0.757583
0.455027
0.152177
1.65749
1.6405
1.59017
1.55975
1.55299
1.56373
1.58529
1.61297
1.64419
1.67802
1.7146
1.75449
1.79778
1.84347
1.88988
1.93524
1.97749
2.0132
2.03708
2.04268
2.02354
1.97382
1.88823
1.76218
1.59228
1.37692
1.11542
0.812447
0.485817
0.162325
1.6249
1.5669
1.51351
1.50112
1.51957
1.55404
1.5945
1.63573
1.67574
1.71449
1.75319
1.79386
1.83803
1.88523
1.93377
1.98265
2.03128
2.07699
2.11365
2.13283
2.12624
2.08681
2.00831
1.88504
1.71234
1.48714
1.20788
0.879845
0.524792
0.175245
1.50162
1.40639
1.36228
1.39036
1.45469
1.52726
1.5952
1.65439
1.7053
1.74981
1.7903
1.83107
1.87643
1.92635
1.97784
2.03038
2.08615
2.14444
2.19792
2.23488
2.24429
2.21786
2.14852
2.0294
1.85423
1.61803
1.31849
0.961722
0.573214
0.191324
1.19593
1.05371
1.08328
1.22335
1.37221
1.49699
1.59569
1.67145
1.73259
1.78385
1.82528
1.86391
1.91043
1.96552
2.02138
2.07677
2.13953
2.21338
2.2893
2.3496
2.37909
2.36855
2.31067
2.19738
2.0203
1.77216
1.44974
1.05998
0.632142
0.210861
0.430157
0.232776
0.524281
0.985692
1.28336
1.46434
1.59961
1.69288
1.76069
1.81932
1.86008
1.88991
1.93621
2.00189
2.06514
2.12045
2.18769
2.28044
2.38695
2.4782
2.53227
2.5404
2.49642
2.39105
2.21297
1.95218
1.60416
1.17645
0.70248
0.234103
134.829
134.871
135.007
135.27
135.63
136.057
136.541
137.074
137.649
138.252
138.872
139.492
140.095
140.662
141.168
141.588
141.889
142.033
141.972
141.649
140.987
139.888
138.216
135.775
132.269
127.22
119.776
108.141
87.6697
29.9076
134.181
134.213
134.327
134.556
134.872
135.244
135.662
136.118
136.604
137.105
137.61
138.1
138.558
138.962
139.288
139.505
139.579
139.467
139.117
138.463
137.419
135.871
133.664
130.572
126.256
120.171
111.381
98.1899
79.7017
53.7769
133.495
133.517
133.608
133.802
134.072
134.388
134.738
135.115
135.509
135.907
136.293
136.652
136.963
137.204
137.348
137.364
137.213
136.851
136.221
135.254
133.857
131.914
129.264
125.689
120.883
114.422
105.784
94.3556
80.8688
66.1734
132.772
132.784
132.851
133.01
133.233
133.491
133.771
134.067
134.369
134.662
134.93
135.157
135.322
135.4
135.365
135.184
134.817
134.217
133.327
132.076
130.374
128.107
125.132
121.262
116.269
109.886
101.867
91.932
80.077
66.164
132.014
132.016
132.058
132.181
132.356
132.555
132.766
132.981
133.189
133.377
133.528
133.624
133.645
133.565
133.357
132.987
132.416
131.596
130.473
128.976
127.024
124.514
121.325
117.313
112.314
106.153
98.668
89.6604
78.9893
66.9925
131.223
131.214
131.232
131.318
131.445
131.585
131.726
131.859
131.975
132.059
132.094
132.063
131.943
131.711
131.339
130.792
130.034
129.018
127.691
125.992
123.846
121.168
117.86
113.813
108.915
103.049
96.1202
88.0557
78.8646
69.0073
130.401
130.381
130.375
130.424
130.503
130.585
130.656
130.709
130.733
130.715
130.638
130.483
130.23
129.854
129.328
128.62
127.693
126.506
125.01
123.151
120.865
118.084
114.732
110.734
106.013
100.506
94.1747
87.0228
79.102
70.7556
129.551
129.521
129.49
129.502
129.534
129.557
129.56
129.534
129.47
129.353
129.168
128.895
128.516
128.006
127.339
126.486
125.413
124.081
122.449
120.47
118.093
115.265
111.93
108.038
103.545
98.4205
92.6601
86.2922
79.3695
72.1593
128.676
128.635
128.581
128.557
128.542
128.508
128.444
128.342
128.192
127.981
127.693
127.31
126.813
126.181
125.388
124.407
123.209
121.76
120.023
117.962
115.535
112.704
109.431
105.684
101.44
96.6919
91.4512
85.7553
79.6585
73.3795
127.78
127.729
127.651
127.591
127.531
127.442
127.314
127.139
126.907
126.607
126.222
125.737
125.133
124.39
123.486
122.396
121.095
119.553
117.741
115.629
113.187
110.388
107.207
103.626
99.6386
95.2484
90.4767
85.364
79.9626
74.4476
126.866
126.806
126.705
126.611
126.507
126.365
126.175
125.931
125.623
125.239
124.765
124.186
123.486
122.645
121.645
120.464
119.079
117.468
115.606
113.471
111.042
108.3
105.231
101.827
98.0912
94.0348
89.6828
85.0745
80.2565
75.3682
125.939
125.87
125.748
125.621
125.475
125.283
125.035
124.725
124.345
123.884
123.329
122.665
121.879
120.954
119.873
118.617
117.169
115.509
113.62
111.485
109.088
106.421
103.475
100.251
96.7559
93.0058
89.0263
84.8529
80.5259
76.1568
125.004
124.926
124.783
124.626
124.44
124.201
123.898
123.528
123.082
122.55
121.921
121.184
120.323
119.326
118.178
116.864
115.369
113.678
111.78
109.661
107.314
104.732
101.915
98.8664
95.5976
92.1257
88.4749
84.6767
80.7653
76.8306
124.066
123.979
123.818
123.631
123.408
123.125
122.772
122.346
121.84
121.245
120.551
119.748
118.823
117.766
116.565
115.206
113.68
111.974
110.081
107.993
105.704
103.215
100.527
97.6468
94.5876
91.3661
88.0048
84.5308
80.9731
77.4042
123.13
123.036
122.856
122.643
122.386
122.062
121.663
121.186
120.626
119.975
119.224
118.364
117.386
116.281
115.038
113.648
112.103
110.395
108.518
106.47
104.247
101.852
99.2902
96.5694
93.7022
90.7051
87.5983
84.4049
81.1493
77.8903
122.202
122.101
121.905
121.667
121.378
121.017
120.577
120.055
119.447
118.746
117.946
117.039
116.017
114.873
113.599
112.189
110.636
108.936
107.085
105.083
102.929
100.629
98.1878
95.6148
92.9223
90.1254
87.242
84.2919
81.2953
78.3004
121.288
121.18
120.97
120.709
120.392
119.998
119.52
118.958
118.308
117.565
116.724
115.777
114.72
113.547
112.252
110.83
109.278
107.593
105.774
103.822
101.739
99.5311
97.2038
94.767
92.2324
89.6136
86.9262
84.1871
81.4135
78.6445
120.394
120.281
120.058
119.777
119.434
119.01
118.499
117.902
117.216
116.437
115.561
114.583
113.498
112.304
110.996
109.57
108.026
106.362
104.58
102.68
100.667
98.546
96.3251
94.0128
91.62
89.1591
86.6436
84.0879
81.5064
78.9314
119.526
119.409
119.174
118.875
118.509
118.059
117.521
116.893
116.176
115.367
114.463
113.46
112.355
111.146
109.831
108.408
106.877
105.239
103.494
101.647
99.7012
97.6635
95.5406
93.3413
91.0754
88.7541
86.3891
83.9926
81.577
79.1689
118.693
118.571
118.326
118.011
117.625
117.153
116.59
115.937
115.194
114.36
113.433
112.411
111.292
110.075
108.759
107.343
105.829
104.218
102.512
100.717
98.8351
96.8744
94.8411
92.7436
90.5907
88.3924
86.1589
83.9008
81.6284
79.3639
117.899
117.774
117.52
117.191
116.789
116.297
115.713
115.038
114.275
113.421
112.477
111.441
110.312
109.091
107.778
106.373
104.878
103.296
101.629
99.8825
98.0612
96.1713
94.2193
92.2127
90.1599
88.0696
85.9507
83.8124
81.6636
79.5228
117.153
117.025
116.763
116.423
116.005
115.497
114.896
114.204
113.423
112.554
111.597
110.551
109.417
108.196
106.889
105.497
104.023
102.469
100.84
99.1397
97.3738
95.5482
93.669
91.7433
89.7785
87.7825
85.7631
83.7283
81.6859
79.6512
116.462
116.331
116.063
115.712
115.282
114.76
114.144
113.438
112.644
111.763
110.796
109.745
108.609
107.39
106.091
104.713
103.26
101.735
100.141
98.4835
96.7681
95.0002
93.1857
91.331
89.443
87.5287
85.5951
83.6493
81.6979
79.7538
115.833
115.7
115.426
115.067
114.626
114.092
113.465
112.747
111.943
111.053
110.08
109.025
107.889
106.675
105.386
104.023
102.59
101.091
99.5297
97.9114
96.241
94.5242
92.7663
90.9734
89.1518
87.3077
85.4476
83.5775
81.7035
79.8363
115.274
115.139
114.86
114.493
114.043
113.5
112.863
112.136
111.324
110.428
109.451
108.395
107.261
106.053
104.773
103.424
102.01
100.536
99.0038
97.4199
95.7891
94.1165
92.4074
90.6674
88.9022
87.1176
85.3193
83.5129
81.7037
79.9006
114.794
114.657
114.372
113.998
113.54
112.989
112.345
111.612
110.794
109.894
108.915
107.859
106.728
105.526
104.255
102.92
101.524
100.071
98.5645
97.0104
95.4134
93.7784
92.1104
90.4147
88.6966
86.9615
85.2145
83.4607
81.7052
79.9554
114.403
114.262
113.97
113.588
113.123
112.566
111.916
111.178
110.356
109.453
108.472
107.417
106.29
105.094
103.832
102.509
101.127
99.6923
98.2077
96.6783
95.1091
93.5048
91.8702
90.2102
88.5299
86.8342
85.128
83.416
81.7027
79.9941
114.111
113.962
113.662
113.273
112.804
112.242
111.588
110.846
110.021
109.116
108.136
107.082
105.957
104.767
103.512
102.199
100.83
99.4095
97.9421
96.4323
94.885
93.3048
91.6963
90.0641
88.4132
86.7482
85.0737
83.3943
81.7142
80.0386
113.936
113.76
113.442
113.047
112.575
112.011
111.354
110.61
109.784
108.879
107.899
106.847
105.726
104.539
103.291
101.984
100.624
99.214
97.7586
96.2622
94.7297
93.1657
91.5746
89.961
88.3295
86.6846
85.0308
83.3722
81.713
80.0573
113.916
113.688
113.345
112.944
112.468
111.9
111.24
110.494
109.667
108.762
107.782
106.731
105.613
104.429
103.185
101.884
100.53
99.1268
97.6794
96.192
94.6694
93.1159
91.536
89.9342
88.3149
86.6826
85.0415
83.3959
81.7496
80.1062
-67.3861
-44.2717
-18.7287
34.3979
28.1432
18.502
49.4903
37.6743
27.3468
50.4776
40.5786
33.2597
55.1626
47.4477
41.2581
59.6083
53.1941
47.7589
62.8213
57.3676
52.7052
65.3742
60.7199
56.7393
67.5272
63.5133
60.0828
69.3391
65.8343
62.8447
70.8603
67.7677
65.1352
72.1421
69.3877
67.0469
73.225
70.7508
68.6507
74.141
71.9012
70.0018
74.916
72.8741
71.1435
75.5718
73.6982
72.1106
76.1259
74.3963
72.9307
76.5931
74.9873
73.6261
76.986
75.4868
74.2153
77.3152
75.9081
74.7137
77.5896
76.2621
75.134
77.8177
76.5586
75.4873
78.0055
76.8052
75.7825
78.1609
77.0106
76.029
78.2859
77.1776
76.2306
78.3917
77.3182
76.3991
78.4696
77.4239
76.5279
78.5469
77.5225
76.6427
78.5848
77.5757
76.7089
78.6541
77.6583
76.7976
-1.66023
-2.16262
-0.599979
0.904057
1.27782
1.39843
1.61359
1.74045
1.79222
1.85706
1.90022
1.90604
1.94761
2.03616
2.11419
2.16172
2.22563
2.34125
2.49198
2.62572
2.70937
2.73857
2.71121
2.61673
2.43922
2.16494
1.78773
1.3156
0.786677
0.261772
2.78866
-0.461844
1.72591
2.14212
1.12637
1.07016
1.78853
1.90433
1.76541
1.86222
1.97743
1.91898
1.9295
2.06324
2.17995
2.20156
2.24193
2.38574
2.60552
2.80019
2.91763
2.96846
2.96073
2.88178
2.70767
2.41904
2.00803
1.48318
0.887849
0.294607
13.6157
5.95643
3.87531
1.96132
1.38123
2.51804
2.91466
1.94294
1.33739
1.90391
2.3036
1.93382
1.78421
2.04349
2.30216
2.24824
2.21624
2.39226
2.72515
3.01215
3.16252
3.22976
3.24485
3.1892
3.02338
2.71973
2.2696
1.68258
1.00757
0.332666
23.4624
14.5786
9.4351
6.02787
4.19639
3.53329
2.42904
1.55651
1.86489
3.09183
2.88557
1.49676
1.24316
2.11367
2.68006
2.32758
2.08741
2.2897
2.84673
3.2936
3.45304
3.51784
3.56174
3.54411
3.39477
3.07496
2.57871
1.91846
1.1481
0.375909
32.6596
23.7579
17.0713
12.1562
8.68235
6.29897
4.47472
3.35017
3.06823
3.03069
2.14711
1.20706
1.66386
3.10945
3.20121
2.09236
1.58924
2.04786
3.11219
3.73327
3.78456
3.81295
3.90526
3.95418
3.83322
3.49333
2.94069
2.19447
1.3118
0.423572
40.3721
32.2106
24.9434
18.964
14.3355
10.8678
8.27547
6.39262
5.11253
4.13954
3.14441
2.43533
2.55579
2.98267
2.63538
1.82447
1.69973
2.62661
3.80712
4.15559
3.98285
4.02105
4.24639
4.42516
4.34835
3.98171
3.3578
2.51038
1.50274
0.473484
46.5789
39.4467
32.2812
25.8845
20.6236
16.4127
13.0469
10.3757
8.30876
6.70835
5.40422
4.4233
3.91238
3.63954
3.17953
2.6284
2.54502
3.0824
3.75096
4.07099
4.20751
4.5096
4.90709
5.11085
4.98223
4.54762
3.81695
2.84933
1.72653
0.51984
51.6272
45.4682
38.7779
32.4418
26.9567
22.3178
18.4041
15.1353
12.4578
10.2852
8.5047
7.08317
6.05448
5.31925
4.66456
4.08563
3.83879
4.02285
4.40004
4.68298
4.86532
5.10016
5.36617
5.49068
5.34956
4.90932
4.16421
3.15549
1.97116
0.517614
55.7371
50.3999
44.3243
38.3209
32.9074
28.1334
23.9374
20.287
17.1602
14.5113
12.2787
10.4296
8.95669
7.79831
6.8415
6.06712
5.5865
5.45037
5.52653
5.62454
5.6922
5.78769
5.89082
5.87579
5.62722
5.09814
4.28571
3.21949
1.95814
0.279418
59.0863
54.4221
48.9683
43.4172
38.2544
33.5541
29.2873
25.4494
22.0451
19.0627
16.4756
14.261
12.4011
10.8574
9.57327
8.53052
7.76643
7.29309
7.03117
6.86128
6.72376
6.61648
6.50371
6.29011
5.88087
5.22713
4.31916
3.16909
1.7958
-0.0409526
61.8381
57.7219
52.8354
47.7597
42.9294
38.4242
34.2301
30.3569
26.826
23.6469
20.8144
18.3181
16.1459
14.2772
12.6836
11.3493
10.2787
9.46543
8.85922
8.38314
7.97905
7.61465
7.24579
6.79888
6.19808
5.39498
4.37085
3.12384
1.6562
-0.222771
64.1206
60.4529
56.0602
51.4332
46.9552
42.7014
38.664
34.8578
31.3116
28.0457
25.0679
22.3788
19.975
17.8479
15.9838
14.371
13.0032
11.8679
10.9303
10.1372
9.43738
8.78928
8.14729
7.45196
6.64178
5.67148
4.51765
3.17242
1.63947
-0.212045
66.028
62.731
58.7606
54.5369
50.3977
46.411
42.5699
38.8896
35.4002
32.1267
29.0839
26.2796
23.7174
21.3965
19.3117
17.4561
15.8221
14.3966
13.1539
12.0558
11.06
10.1259
9.21073
8.26515
7.23898
6.09231
4.80154
3.35837
1.77247
-0.0363536
67.6312
64.6438
61.0332
57.1638
53.3355
49.6087
45.9758
42.4494
39.0583
35.8286
32.778
29.9184
27.2576
24.7999
22.5454
20.4912
18.6314
16.9551
15.4432
14.0674
12.7944
11.5886
10.4124
9.22486
7.9853
6.66005
5.22796
3.68247
2.0374
0.252266
68.9844
66.258
62.9544
59.3934
55.844
52.3592
48.9302
45.5666
42.2943
39.1384
36.1174
33.2448
30.5309
27.9827
25.6037
23.3942
21.3506
19.465
17.7231
16.1044
14.5829
13.1293
11.7121
10.2979
8.85378
7.35226
5.7755
4.11876
2.39668
0.598803
70.1303
67.6251
64.5841
61.291
57.9886
54.7241
51.487
48.2839
45.1376
42.071
39.1022
36.245
33.5105
30.9073
28.4411
26.114
23.9249
21.8687
19.9352
18.1094
16.3714
14.698
13.0638
11.4416
9.8054
8.13269
6.40877
4.62994
2.80873
0.956012
71.1022
68.7853
65.9697
62.9092
59.8244
56.7576
53.6971
50.6466
47.6255
44.6546
41.7505
38.9265
36.194
33.5621
31.0375
28.6239
26.322
24.1291
22.0382
20.0385
18.1152
16.2504
14.4236
12.6134
10.7989
8.96167
7.08947
5.17847
3.23719
1.29015
71.9271
69.7709
67.1493
64.2907
61.3968
58.5062
55.6058
52.6971
49.7962
46.9214
44.088
41.3081
38.5926
35.9508
33.3898
30.9143
28.5264
26.2251
24.0062
21.862
19.7816
17.7513
15.7552
13.7762
11.7973
9.80347
7.78365
5.73312
3.65548
1.58223
72.627
70.6082
68.1536
65.4701
62.7435
60.0088
57.2523
54.4732
51.685
48.9036
46.1423
43.4124
40.7238
38.0854
35.5045
32.9862
30.5337
28.1473
25.8248
23.561
21.3481
19.1756
17.0312
14.9012
12.7717
10.6298
8.46509
6.27142
4.04735
1.82608
73.22
71.3186
69.0079
66.4762
63.8956
61.2983
58.67
56.0082
53.3239
50.6307
47.9404
45.2628
42.6069
39.9811
37.3924
34.8462
32.3461
29.8935
27.4876
25.1253
22.8008
20.5064
18.2325
15.9678
13.7009
11.4202
9.11566
6.77927
4.4051
2.02451
73.7211
71.92
69.7331
67.3328
64.8792
62.4022
59.8874
57.3306
54.7406
52.1293
49.5067
46.8814
44.2613
41.654
39.0663
36.5033
33.969
31.4655
28.993
26.5497
24.1316
21.733
19.3462
16.962
14.5704
12.1611
9.72375
7.24878
4.72661
2.18473
74.1434
72.4278
70.3469
68.0599
65.7163
63.3441
60.9289
58.4651
55.9599
53.4232
50.8638
48.2889
45.7054
43.1202
40.5394
37.968
35.4099
32.8678
30.3424
27.8329
25.3366
22.8492
20.3645
17.8748
15.3712
12.844
10.2828
7.67653
5.01303
2.31502
74.4973
72.854
70.8636
68.6737
66.4247
64.1432
61.8145
59.4323
57.0021
54.5325
52.0308
49.5031
46.9555
44.3938
41.8237
39.2498
36.6761
34.105
31.5379
28.9746
26.4134
23.8508
21.2818
18.6998
16.0966
13.4629
10.7882
8.06048
5.26566
2.42167
74.7928
73.2104
71.2968
69.1893
67.021
64.8169
62.5627
60.2511
57.8864
55.4759
53.0259
50.5414
48.0275
45.4894
42.932
40.3597
37.7761
35.1837
32.5842
29.9776
27.3629
24.7373
22.0964
19.4345
16.7439
14.0157
11.2391
8.40148
5.4876
2.51049
75.0358
73.5038
71.6543
69.616
67.5155
65.3767
63.1854
60.934
58.6255
56.2661
53.8611
51.4149
48.9316
46.4158
43.8718
41.3036
38.7143
36.1066
33.482
30.8409
28.1826
25.5047
22.8034
20.0735
17.3077
14.4971
11.631
8.69638
5.67726
2.58225
75.2372
73.7463
71.9495
69.9682
67.9234
65.8385
63.6995
61.4981
59.2365
56.9202
54.5536
52.1403
49.6839
47.1882
44.6571
42.0941
39.5021
36.8836
34.24
31.5719
28.8787
26.1583
23.4074
20.6209
17.7918
14.9115
11.9689
8.95088
5.84107
2.64309
75.3936
73.9351
72.1799
70.2438
68.2434
66.2015
64.1041
61.9428
59.719
57.4375
55.1021
52.7159
50.2818
47.8031
45.2834
42.7256
40.1326
37.5065
34.8488
32.16
29.4396
26.6858
23.8952
21.0631
18.1827
15.2453
12.2399
9.15297
5.9683
2.68563
75.5261
74.0915
72.3681
70.4665
68.4997
66.4903
64.4246
62.2939
60.099
57.8443
55.533
53.1678
50.7511
48.2861
45.7756
43.2226
40.6295
37.9984
35.3306
32.6267
29.886
27.107
24.2865
21.4196
18.4997
15.518
12.4635
9.32239
6.07797
2.72457
75.6083
74.1885
72.4859
70.6076
68.6635
66.6759
64.6314
62.5211
60.3456
58.1087
55.8136
53.4625
51.0577
48.6018
46.0978
43.5481
40.9551
38.3208
35.6464
32.9323
30.1782
27.3823
24.5415
21.6509
18.7041
15.6921
12.6035
9.42429
6.13769
2.7354
75.6962
74.2773
72.5862
70.7222
68.7912
66.8155
64.7825
62.6833
60.5182
58.2908
56.0042
53.6604
51.2615
48.8101
46.3089
43.7605
41.167
38.5304
35.8518
33.1318
30.3698
27.5643
24.712
21.8084
18.8466
15.8176
12.7099
9.50809
6.1926
2.74168
)
;

boundaryField
{
    inlet
    {
        type            zeroGradient;
    }
    outlet
    {
        type            fixedValue;
        value           uniform 0;
    }
    flap
    {
        type            zeroGradient;
    }
    upperWall
    {
        type            zeroGradient;
    }
    lowerWall
    {
        type            zeroGradient;
    }
    frontAndBack
    {
        type            empty;
    }
}


// ************************************************************************* //
