/*--------------------------------*- C++ -*----------------------------------*\
| =========                 |                                                 |
| \\      /  F ield         | OpenFOAM: The Open Source CFD Toolbox           |
|  \\    /   O peration     | Version:  dev                                   |
|   \\  /    A nd           | Web:      www.OpenFOAM.org                      |
|    \\/     M anipulation  |                                                 |
\*---------------------------------------------------------------------------*/
FoamFile
{
    version     2.0;
    format      ascii;
    class       pointVectorField;
    location    "3.98";
    object      pointDisplacement;
}
// * * * * * * * * * * * * * * * * * * * * * * * * * * * * * * * * * * * * * //

dimensions      [0 1 0 0 0 0 0];

internalField   nonuniform List<vector> 
5828
(
(0 0 0)
(0.00194705 0 0)
(0.00371888 0 0)
(0.00527473 0 0)
(0.00663227 0 0)
(0.00780779 0 0)
(0.00881594 0 0)
(0.00966978 0 0)
(0.0103809 0 0)
(0.0109593 0 0)
(0.0114138 0 0)
(0.0117517 0 0)
(0.0119791 0 0)
(0.0121011 0 0)
(0.0121212 0 0)
(0.0120422 0 0)
(0.0118657 0 0)
(0.0115924 0 0)
(0.011222 0 0)
(0.0107535 0 0)
(0.0101854 0 0)
(0.00951622 0 0)
(0.00874487 0 0)
(0.0078719 0 0)
(0.00690105 0 0)
(0.00584213 0 0)
(0.00471598 0 0)
(0.00356379 0 0)
(0.00246651 0 0)
(0.00159601 0 0)
(0 0 0)
(0 0 0)
(0.00194756 0 6.58465e-06)
(0.00372 0 1.27496e-05)
(0.0052765 0 1.84908e-05)
(0.00663479 0 2.39679e-05)
(0.00781116 0 2.93152e-05)
(0.00882031 0 3.46498e-05)
(0.00967534 0 4.00782e-05)
(0.0103879 0 4.57026e-05)
(0.010968 0 5.16263e-05)
(0.0114245 0 5.79582e-05)
(0.0117649 0 6.4819e-05)
(0.0119953 0 7.23467e-05)
(0.0121208 0 8.07039e-05)
(0.0121454 0 9.00866e-05)
(0.0120717 0 0.000100735)
(0.0119017 0 0.000112946)
(0.0116363 0 0.000127091)
(0.0112756 0 0.00014364)
(0.0108191 0 0.000163186)
(0.0102659 0 0.000186477)
(0.00961505 0 0.000214464)
(0.00886659 0 0.000248343)
(0.00802222 0 0.000289607)
(0.00708731 0 0.000340083)
(0.00607381 0 0.000401916)
(0.0050054 0 0.000477371)
(0.00392692 0 0.000568042)
(0.0029224 0 0.000672117)
(0.00215576 0 0.000775039)
(0.00111397 0 0.00101178)
(0 0 0)
(0.00194934 0 1.31356e-05)
(0.0037236 0 2.54334e-05)
(0.00528204 0 3.6884e-05)
(0.0066425 0 4.78051e-05)
(0.00782139 0 5.84633e-05)
(0.00883349 0 6.90908e-05)
(0.00969204 0 7.98983e-05)
(0.0104088 0 9.10877e-05)
(0.010994 0 0.000102861)
(0.0114565 0 0.000115433)
(0.0118042 0 0.000129037)
(0.0120435 0 0.000143941)
(0.0121796 0 0.000160459)
(0.0122171 0 0.000178966)
(0.0121591 0 0.00019992)
(0.0120082 0 0.000223884)
(0.0117662 0 0.000251556)
(0.0114341 0 0.000283811)
(0.0110127 0 0.000321741)
(0.0105027 0 0.000366711)
(0.00990535 0 0.000420421)
(0.00922308 0 0.000484963)
(0.00846092 0 0.000562855)
(0.00762829 0 0.000657018)
(0.00674211 0 0.00077055)
(0.00583178 0 0.00090604)
(0.00494708 0 0.00106365)
(0.0041703 0 0.00123603)
(0.0036336 0 0.00139488)
(0.00298574 0 0.00167417)
(0 0 0)
(0.00195229 0 1.96181e-05)
(0.00372956 0 3.79829e-05)
(0.00529121 0 5.50779e-05)
(0.00665525 0 7.1375e-05)
(0.00783826 0 8.72696e-05)
(0.00885521 0 0.000103105)
(0.00971953 0 0.000119191)
(0.0104431 0 0.000135824)
(0.0110366 0 0.000153299)
(0.0115091 0 0.000171923)
(0.0118686 0 0.000192035)
(0.0121222 0 0.000214014)
(0.0122757 0 0.000238302)
(0.0123341 0 0.000265424)
(0.0123015 0 0.000296011)
(0.0121814 0 0.000330833)
(0.0119768 0 0.000370834)
(0.0116904 0 0.000417173)
(0.0113248 0 0.000471276)
(0.0108832 0 0.000534884)
(0.0103696 0 0.0006101)
(0.00979001 0 0.000699409)
(0.0091538 0 0.000805621)
(0.00847516 0 0.000931664)
(0.00777597 0 0.00108003)
(0.00708922 0 0.00125146)
(0.00646315 0 0.00144217)
(0.00596396 0 0.00163806)
(0.00567213 0 0.00180365)
(0.00538817 0 0.00204431)
(0 0 0)
(0.00195637 0 2.59962e-05)
(0.00373776 0 5.03276e-05)
(0.0053038 0 7.29679e-05)
(0.00667275 0 9.45372e-05)
(0.00786142 0 0.000115554)
(0.00888501 0 0.000136468)
(0.0097572 0 0.000157681)
(0.0104902 0 0.000179576)
(0.0110948 0 0.000202528)
(0.0115808 0 0.00022693)
(0.0119565 0 0.000253201)
(0.0122294 0 0.000281812)
(0.0124062 0 0.000313302)
(0.0124927 0 0.000348302)
(0.012494 0 0.000387561)
(0.0124148 0 0.000431975)
(0.0122597 0 0.000482622)
(0.0120333 0 0.000540798)
(0.0117404 0 0.000608051)
(0.0113869 0 0.000686208)
(0.0109802 0 0.000777376)
(0.0105299 0 0.000883879)
(0.0100494 0 0.00100808)
(0.00955684 0 0.00115199)
(0.00907674 0 0.00131637)
(0.00864116 0 0.00149915)
(0.00828922 0 0.00169258)
(0.00806172 0 0.00187858)
(0.00798587 0 0.00202289)
(0.00797506 0 0.00220052)
(0 0 0)
(0.00196148 0 3.22343e-05)
(0.00374805 0 6.23974e-05)
(0.00531959 0 9.04495e-05)
(0.00669466 0 0.000117152)
(0.00789039 0 0.00014314)
(0.00892225 0 0.00016896)
(0.00980423 0 0.0001951)
(0.0105489 0 0.000222018)
(0.0111674 0 0.000250158)
(0.0116699 0 0.000279978)
(0.0120655 0 0.000311962)
(0.0123622 0 0.000346643)
(0.0125674 0 0.000384619)
(0.0126879 0 0.000426579)
(0.01273 0 0.000473324)
(0.0126999 0 0.000525787)
(0.0126038 0 0.000585063)
(0.012448 0 0.000652423)
(0.01224 0 0.000729326)
(0.0119881 0 0.000817401)
(0.0117028 0 0.000918395)
(0.0113968 0 0.00103402)
(0.0110863 0 0.00116567)
(0.0107915 0 0.00131389)
(0.0105364 0 0.00147744)
(0.0103478 0 0.00165178)
(0.0102506 0 0.00182694)
(0.010258 0 0.00198494)
(0.010352 0 0.0020983)
(0.0105332 0 0.00222317)
(0 0 0)
(0.00196754 0 3.82976e-05)
(0.00376022 0 7.41242e-05)
(0.00533824 0 0.000107422)
(0.00672053 0 0.000139085)
(0.00792456 0 0.000169857)
(0.00896614 0 0.000200373)
(0.00985959 0 0.000231196)
(0.0106178 0 0.000262846)
(0.0112526 0 0.000295825)
(0.0117743 0 0.000330638)
(0.0121928 0 0.000367809)
(0.0125168 0 0.000407902)
(0.0127545 0 0.000451539)
(0.0129137 0 0.000499414)
(0.0130019 0 0.000552314)
(0.0130267 0 0.000611124)
(0.0129957 0 0.000676842)
(0.0129175 0 0.000750573)
(0.0128012 0 0.000833503)
(0.0126576 0 0.000926842)
(0.0124994 0 0.00103171)
(0.0123412 0 0.00114894)
(0.0122006 0 0.00127871)
(0.0120973 0 0.00142003)
(0.0120521 0 0.00156993)
(0.0120835 0 0.00172246)
(0.0122012 0 0.00186755)
(0.0123938 0 0.00199038)
(0.0126106 0 0.00207236)
(0.0129245 0 0.0021582)
(0 0 0)
(0.00197441 0 4.41532e-05)
(0.00377402 0 8.54434e-05)
(0.00535936 0 0.00012379)
(0.00674981 0 0.000160211)
(0.0079632 0 0.000195547)
(0.00901572 0 0.000230513)
(0.00992206 0 0.000265735)
(0.0106955 0 0.000301787)
(0.0113483 0 0.00033921)
(0.0118914 0 0.000378537)
(0.0123352 0 0.00042031)
(0.0126891 0 0.000465095)
(0.0129623 0 0.0005135)
(0.0131633 0 0.000566179)
(0.013301 0 0.000623842)
(0.0133839 0 0.000687255)
(0.0134215 0 0.000757228)
(0.0134234 0 0.000834588)
(0.0134007 0 0.000920125)
(0.0133656 0 0.00101449)
(0.013332 0 0.00111807)
(0.0133152 0 0.0012307)
(0.0133323 0 0.00135138)
(0.0134005 0 0.00147781)
(0.0135352 0 0.0016059)
(0.0137459 0 0.00172929)
(0.0140283 0 0.00183928)
(0.014353 0 0.00192556)
(0.0146496 0 0.00197822)
(0.0150537 0 0.00202918)
(0 0 0)
(0.00198194 0 4.97705e-05)
(0.00378914 0 9.62955e-05)
(0.0053825 0 0.000139467)
(0.00678188 0 0.000180414)
(0.0080055 0 0.000220066)
(0.00906994 0 0.000259206)
(0.00999026 0 0.000298516)
(0.0107802 0 0.000338605)
(0.0114524 0 0.000380041)
(0.0120184 0 0.000423368)
(0.0124891 0 0.000469122)
(0.0128747 0 0.000517849)
(0.013185 0 0.000570105)
(0.0134296 0 0.000626466)
(0.0136181 0 0.000687521)
(0.0137602 0 0.000753859)
(0.0138664 0 0.000826042)
(0.0139476 0 0.000904556)
(0.0140157 0 0.000989733)
(0.0140837 0 0.00108163)
(0.0141655 0 0.00117988)
(0.0142759 0 0.00128344)
(0.0144298 0 0.00139033)
(0.0146405 0 0.00149734)
(0.014917 0 0.00159984)
(0.0152598 0 0.00169181)
(0.0156535 0 0.00176652)
(0.0160578 0 0.00181809)
(0.0163939 0 0.00184407)
(0.01684 0 0.00186148)
(0 0 0)
(0.00198997 0 5.51218e-05)
(0.00380526 0 0.000106626)
(0.00540717 0 0.000154373)
(0.00681604 0 0.000199591)
(0.00805053 0 0.000243287)
(0.00912761 0 0.000286304)
(0.0100627 0 0.000329364)
(0.01087 0 0.000373103)
(0.0115626 0 0.0004181)
(0.0121524 0 0.000464894)
(0.0126509 0 0.000513999)
(0.013069 0 0.000565912)
(0.013417 0 0.000621118)
(0.0137052 0 0.000680084)
(0.0139442 0 0.000743246)
(0.0141443 0 0.000810984)
(0.0143168 0 0.000883585)
(0.014473 0 0.000961175)
(0.0146253 0 0.00104363)
(0.0147865 0 0.00113047)
(0.0149698 0 0.00122068)
(0.0151881 0 0.00131252)
(0.015453 0 0.00140338)
(0.0157731 0 0.00148958)
(0.0161507 0 0.00156648)
(0.0165782 0 0.00162885)
(0.0170323 0 0.00167192)
(0.0174674 0 0.00169343)
(0.0178065 0 0.00169669)
(0.0182421 0 0.00168216)
(0 0 0)
(0.00199832 0 6.01823e-05)
(0.00382202 0 0.000116388)
(0.00543281 0 0.000168439)
(0.00685155 0 0.000217653)
(0.00809734 0 0.000265104)
(0.00918751 0 0.000311682)
(0.0101379 0 0.000358138)
(0.010963 0 0.000405127)
(0.0116763 0 0.000453224)
(0.0122903 0 0.00050295)
(0.0128168 0 0.000554781)
(0.0132672 0 0.000609152)
(0.0136524 0 0.000666456)
(0.0139833 0 0.000727034)
(0.0142707 0 0.000791156)
(0.0145258 0 0.000858984)
(0.0147597 0 0.000930532)
(0.0149843 0 0.00100559)
(0.0152114 0 0.00108364)
(0.0154531 0 0.00116375)
(0.0157209 0 0.00124445)
(0.0160253 0 0.0013236)
(0.016374 0 0.00139828)
(0.0167705 0 0.00146484)
(0.017211 0 0.00151907)
(0.0176811 0 0.00155679)
(0.0181524 0 0.00157501)
(0.0185784 0 0.00157399)
(0.0188912 0 0.00156073)
(0.0192711 0 0.00152207)
(0 0 0)
(0.0020068 0 6.49308e-05)
(0.00383903 0 0.000125541)
(0.00545886 0 0.000181609)
(0.00688765 0 0.000234529)
(0.00814492 0 0.00028543)
(0.00924837 0 0.00033524)
(0.0102142 0 0.000384733)
(0.0110572 0 0.000434566)
(0.0117913 0 0.000485305)
(0.0124292 0 0.000537442)
(0.0129832 0 0.000591402)
(0.013465 0 0.000647547)
(0.0138859 0 0.000706171)
(0.0142572 0 0.000767484)
(0.0145899 0 0.000831589)
(0.0148952 0 0.000898444)
(0.0151844 0 0.000967814)
(0.0154688 0 0.00103921)
(0.0157596 0 0.00111181)
(0.0160673 0 0.00118437)
(0.0164017 0 0.00125518)
(0.0167701 0 0.00132195)
(0.0171766 0 0.00138185)
(0.0176199 0 0.00143163)
(0.0180911 0 0.00146792)
(0.0185713 0 0.00148784)
(0.0190291 0 0.00149001)
(0.01942 0 0.00147628)
(0.0196886 0 0.00145493)
(0.0199794 0 0.00140505)
(0 0 0)
(0.00201519 0 6.93495e-05)
(0.0038559 0 0.00013405)
(0.00548472 0 0.000193834)
(0.00692355 0 0.000250159)
(0.00819226 0 0.000304199)
(0.00930893 0 0.000356909)
(0.01029 0 0.000409076)
(0.0111507 0 0.000461354)
(0.011905 0 0.00051429)
(0.0125662 0 0.000568339)
(0.0131466 0 0.000623869)
(0.0136582 0 0.000681168)
(0.0141126 0 0.000740428)
(0.0145211 0 0.000801731)
(0.0148948 0 0.000865029)
(0.0152447 0 0.000930099)
(0.0155817 0 0.000996507)
(0.0159165 0 0.00106355)
(0.0162589 0 0.00113021)
(0.016618 0 0.0011951)
(0.0170012 0 0.00125641)
(0.017413 0 0.00131199)
(0.0178542 0 0.00135936)
(0.0183198 0 0.00139597)
(0.0187977 0 0.00141957)
(0.0192664 0 0.00142881)
(0.0196947 0 0.0014239)
(0.020042 0 0.00140774)
(0.0202647 0 0.00138773)
(0.0204624 0 0.00134335)
(0 0 0)
(0.00202329 0 7.3424e-05)
(0.00387222 0 0.00014189)
(0.00550983 0 0.00020508)
(0.00695846 0 0.000264502)
(0.00823838 0 0.000321364)
(0.00936796 0 0.000376641)
(0.0103639 0 0.000431126)
(0.0112417 0 0.000485461)
(0.0120155 0 0.00054017)
(0.0126987 0 0.000595666)
(0.013304 0 0.000652262)
(0.0138433 0 0.000710166)
(0.0143283 0 0.000769476)
(0.0147701 0 0.000830164)
(0.0151799 0 0.000892047)
(0.0155681 0 0.000954762)
(0.015945 0 0.00101773)
(0.0163201 0 0.00108011)
(0.0167022 0 0.00114079)
(0.0170985 0 0.00119834)
(0.0175142 0 0.00125108)
(0.0179512 0 0.00129709)
(0.0184078 0 0.00133442)
(0.0188768 0 0.00136134)
(0.0193444 0 0.0013768)
(0.0197899 0 0.00138093)
(0.020185 0 0.00137566)
(0.0204956 0 0.00136492)
(0.0206872 0 0.00135419)
(0.0208286 0 0.00133275)
(0 0 0)
(0.0020309 0 7.71431e-05)
(0.0038876 0 0.000149041)
(0.00553357 0 0.000215322)
(0.00699161 0 0.00027753)
(0.00828231 0 0.000336899)
(0.00942427 0 0.000394417)
(0.0104344 0 0.000450872)
(0.0113284 0 0.000506895)
(0.0121206 0 0.00056298)
(0.0128244 0 0.0006195)
(0.0134525 0 0.000676709)
(0.0140169 0 0.000734746)
(0.0145291 0 0.000793627)
(0.0150002 0 0.000853225)
(0.0154407 0 0.000913258)
(0.0158606 0 0.00097326)
(0.0162692 0 0.00103256)
(0.0166751 0 0.00109026)
(0.0170856 0 0.00114523)
(0.017506 0 0.00119612)
(0.0179397 0 0.00124142)
(0.0183867 0 0.0012796)
(0.0188433 0 0.0013092)
(0.0193012 0 0.00132924)
(0.0197471 0 0.00133958)
(0.0201628 0 0.00134146)
(0.0205258 0 0.001338)
(0.0208116 0 0.00133442)
(0.0209948 0 0.00133579)
(0.0211497 0 0.00134943)
(0 0 0)
(0.00203788 0 8.0542e-05)
(0.00390177 0 0.000155554)
(0.00555559 0 0.000224624)
(0.00702254 0 0.000289331)
(0.00832348 0 0.000350916)
(0.00947721 0 0.000410371)
(0.0105008 0 0.000468479)
(0.01141 0 0.000525853)
(0.0122193 0 0.000582958)
(0.0129421 0 0.000640125)
(0.013591 0 0.000697558)
(0.0141779 0 0.000755332)
(0.0147141 0 0.000813391)
(0.0152101 0 0.000871537)
(0.0156761 0 0.000929413)
(0.0161213 0 0.000986491)
(0.0165542 0 0.00104206)
(0.016982 0 0.00109522)
(0.0174107 0 0.0011449)
(0.0178441 0 0.00118989)
(0.0182838 0 0.00122893)
(0.0187284 0 0.00126081)
(0.0191731 0 0.00128455)
(0.0196093 0 0.00129966)
(0.0200249 0 0.00130642)
(0.0204049 0 0.00130615)
(0.0207328 0 0.00130121)
(0.0209938 0 0.00129455)
(0.0211753 0 0.00128692)
(0.0214754 0 0.00136384)
(0 0 0)
(0.00194705 0 0)
(0.00371888 0 0)
(0.00527473 0 0)
(0.00663227 0 0)
(0.00780779 0 0)
(0.00881594 0 0)
(0.00966978 0 0)
(0.0103809 0 0)
(0.0109593 0 0)
(0.0114138 0 0)
(0.0117517 0 0)
(0.0119791 0 0)
(0.0121011 0 0)
(0.0121212 0 0)
(0.0120422 0 0)
(0.0118657 0 0)
(0.0115924 0 0)
(0.011222 0 0)
(0.0107535 0 0)
(0.0101854 0 0)
(0.00951622 0 0)
(0.00874487 0 0)
(0.0078719 0 0)
(0.00690105 0 0)
(0.00584213 0 0)
(0.00471598 0 0)
(0.00356379 0 0)
(0.00246651 0 0)
(0.00159601 0 0)
(0 0 0)
(0 0 0)
(0.00194756 0 6.58465e-06)
(0.00372 0 1.27496e-05)
(0.0052765 0 1.84908e-05)
(0.00663479 0 2.39679e-05)
(0.00781116 0 2.93152e-05)
(0.00882031 0 3.46498e-05)
(0.00967534 0 4.00782e-05)
(0.0103879 0 4.57026e-05)
(0.010968 0 5.16263e-05)
(0.0114245 0 5.79582e-05)
(0.0117649 0 6.4819e-05)
(0.0119953 0 7.23467e-05)
(0.0121208 0 8.07039e-05)
(0.0121454 0 9.00866e-05)
(0.0120717 0 0.000100735)
(0.0119017 0 0.000112946)
(0.0116363 0 0.000127091)
(0.0112756 0 0.00014364)
(0.0108191 0 0.000163186)
(0.0102659 0 0.000186477)
(0.00961505 0 0.000214464)
(0.00886659 0 0.000248343)
(0.00802222 0 0.000289607)
(0.00708731 0 0.000340083)
(0.00607381 0 0.000401916)
(0.0050054 0 0.000477371)
(0.00392692 0 0.000568042)
(0.0029224 0 0.000672117)
(0.00215576 0 0.000775039)
(0.00111397 0 0.00101178)
(0 0 0)
(0.00194934 0 1.31356e-05)
(0.0037236 0 2.54334e-05)
(0.00528204 0 3.6884e-05)
(0.0066425 0 4.78051e-05)
(0.00782139 0 5.84633e-05)
(0.00883349 0 6.90908e-05)
(0.00969204 0 7.98983e-05)
(0.0104088 0 9.10877e-05)
(0.010994 0 0.000102861)
(0.0114565 0 0.000115433)
(0.0118042 0 0.000129037)
(0.0120435 0 0.000143941)
(0.0121796 0 0.000160459)
(0.0122171 0 0.000178966)
(0.0121591 0 0.00019992)
(0.0120082 0 0.000223884)
(0.0117662 0 0.000251556)
(0.0114341 0 0.000283811)
(0.0110127 0 0.000321741)
(0.0105027 0 0.000366711)
(0.00990535 0 0.000420421)
(0.00922308 0 0.000484963)
(0.00846092 0 0.000562855)
(0.00762829 0 0.000657018)
(0.00674211 0 0.00077055)
(0.00583178 0 0.00090604)
(0.00494708 0 0.00106365)
(0.0041703 0 0.00123603)
(0.0036336 0 0.00139488)
(0.00298574 0 0.00167417)
(0 0 0)
(0.00195229 0 1.96181e-05)
(0.00372956 0 3.79829e-05)
(0.00529121 0 5.50779e-05)
(0.00665525 0 7.1375e-05)
(0.00783826 0 8.72696e-05)
(0.00885521 0 0.000103105)
(0.00971953 0 0.000119191)
(0.0104431 0 0.000135824)
(0.0110366 0 0.000153299)
(0.0115091 0 0.000171923)
(0.0118686 0 0.000192035)
(0.0121222 0 0.000214014)
(0.0122757 0 0.000238302)
(0.0123341 0 0.000265424)
(0.0123015 0 0.000296011)
(0.0121814 0 0.000330833)
(0.0119768 0 0.000370834)
(0.0116904 0 0.000417173)
(0.0113248 0 0.000471276)
(0.0108832 0 0.000534884)
(0.0103696 0 0.0006101)
(0.00979001 0 0.000699409)
(0.0091538 0 0.000805621)
(0.00847516 0 0.000931664)
(0.00777597 0 0.00108003)
(0.00708922 0 0.00125146)
(0.00646315 0 0.00144217)
(0.00596396 0 0.00163806)
(0.00567213 0 0.00180365)
(0.00538817 0 0.00204431)
(0 0 0)
(0.00195637 0 2.59962e-05)
(0.00373776 0 5.03276e-05)
(0.0053038 0 7.29679e-05)
(0.00667275 0 9.45372e-05)
(0.00786142 0 0.000115554)
(0.00888501 0 0.000136468)
(0.0097572 0 0.000157681)
(0.0104902 0 0.000179576)
(0.0110948 0 0.000202528)
(0.0115808 0 0.00022693)
(0.0119565 0 0.000253201)
(0.0122294 0 0.000281812)
(0.0124062 0 0.000313302)
(0.0124927 0 0.000348302)
(0.012494 0 0.000387561)
(0.0124148 0 0.000431975)
(0.0122597 0 0.000482622)
(0.0120333 0 0.000540798)
(0.0117404 0 0.000608051)
(0.0113869 0 0.000686208)
(0.0109802 0 0.000777376)
(0.0105299 0 0.000883879)
(0.0100494 0 0.00100808)
(0.00955684 0 0.00115199)
(0.00907674 0 0.00131637)
(0.00864116 0 0.00149915)
(0.00828922 0 0.00169258)
(0.00806172 0 0.00187858)
(0.00798587 0 0.00202289)
(0.00797506 0 0.00220052)
(0 0 0)
(0.00196148 0 3.22343e-05)
(0.00374805 0 6.23974e-05)
(0.00531959 0 9.04495e-05)
(0.00669466 0 0.000117152)
(0.00789039 0 0.00014314)
(0.00892225 0 0.00016896)
(0.00980423 0 0.0001951)
(0.0105489 0 0.000222018)
(0.0111674 0 0.000250158)
(0.0116699 0 0.000279978)
(0.0120655 0 0.000311962)
(0.0123622 0 0.000346643)
(0.0125674 0 0.000384619)
(0.0126879 0 0.000426579)
(0.01273 0 0.000473324)
(0.0126999 0 0.000525787)
(0.0126038 0 0.000585063)
(0.012448 0 0.000652423)
(0.01224 0 0.000729326)
(0.0119881 0 0.000817401)
(0.0117028 0 0.000918395)
(0.0113968 0 0.00103402)
(0.0110863 0 0.00116567)
(0.0107915 0 0.00131389)
(0.0105364 0 0.00147744)
(0.0103478 0 0.00165178)
(0.0102506 0 0.00182694)
(0.010258 0 0.00198494)
(0.010352 0 0.0020983)
(0.0105332 0 0.00222317)
(0 0 0)
(0.00196754 0 3.82976e-05)
(0.00376022 0 7.41242e-05)
(0.00533824 0 0.000107422)
(0.00672053 0 0.000139085)
(0.00792456 0 0.000169857)
(0.00896614 0 0.000200373)
(0.00985959 0 0.000231196)
(0.0106178 0 0.000262846)
(0.0112526 0 0.000295825)
(0.0117743 0 0.000330638)
(0.0121928 0 0.000367809)
(0.0125168 0 0.000407902)
(0.0127545 0 0.000451539)
(0.0129137 0 0.000499414)
(0.0130019 0 0.000552314)
(0.0130267 0 0.000611124)
(0.0129957 0 0.000676842)
(0.0129175 0 0.000750573)
(0.0128012 0 0.000833503)
(0.0126576 0 0.000926842)
(0.0124994 0 0.00103171)
(0.0123412 0 0.00114894)
(0.0122006 0 0.00127871)
(0.0120973 0 0.00142003)
(0.0120521 0 0.00156993)
(0.0120835 0 0.00172246)
(0.0122012 0 0.00186755)
(0.0123938 0 0.00199038)
(0.0126106 0 0.00207236)
(0.0129245 0 0.0021582)
(0 0 0)
(0.00197441 0 4.41532e-05)
(0.00377402 0 8.54434e-05)
(0.00535936 0 0.00012379)
(0.00674981 0 0.000160211)
(0.0079632 0 0.000195547)
(0.00901572 0 0.000230513)
(0.00992206 0 0.000265735)
(0.0106955 0 0.000301787)
(0.0113483 0 0.00033921)
(0.0118914 0 0.000378537)
(0.0123352 0 0.00042031)
(0.0126891 0 0.000465095)
(0.0129623 0 0.0005135)
(0.0131633 0 0.000566179)
(0.013301 0 0.000623842)
(0.0133839 0 0.000687255)
(0.0134215 0 0.000757228)
(0.0134234 0 0.000834588)
(0.0134007 0 0.000920125)
(0.0133656 0 0.00101449)
(0.013332 0 0.00111807)
(0.0133152 0 0.0012307)
(0.0133323 0 0.00135138)
(0.0134005 0 0.00147781)
(0.0135352 0 0.0016059)
(0.0137459 0 0.00172929)
(0.0140283 0 0.00183928)
(0.014353 0 0.00192556)
(0.0146496 0 0.00197822)
(0.0150537 0 0.00202918)
(0 0 0)
(0.00198194 0 4.97705e-05)
(0.00378914 0 9.62955e-05)
(0.0053825 0 0.000139467)
(0.00678188 0 0.000180414)
(0.0080055 0 0.000220066)
(0.00906994 0 0.000259206)
(0.00999026 0 0.000298516)
(0.0107802 0 0.000338605)
(0.0114524 0 0.000380041)
(0.0120184 0 0.000423368)
(0.0124891 0 0.000469122)
(0.0128747 0 0.000517849)
(0.013185 0 0.000570105)
(0.0134296 0 0.000626466)
(0.0136181 0 0.000687521)
(0.0137602 0 0.000753859)
(0.0138664 0 0.000826042)
(0.0139476 0 0.000904556)
(0.0140157 0 0.000989733)
(0.0140837 0 0.00108163)
(0.0141655 0 0.00117988)
(0.0142759 0 0.00128344)
(0.0144298 0 0.00139033)
(0.0146405 0 0.00149734)
(0.014917 0 0.00159984)
(0.0152598 0 0.00169181)
(0.0156535 0 0.00176652)
(0.0160578 0 0.00181809)
(0.0163939 0 0.00184407)
(0.01684 0 0.00186148)
(0 0 0)
(0.00198997 0 5.51218e-05)
(0.00380526 0 0.000106626)
(0.00540717 0 0.000154373)
(0.00681604 0 0.000199591)
(0.00805053 0 0.000243287)
(0.00912761 0 0.000286304)
(0.0100627 0 0.000329364)
(0.01087 0 0.000373103)
(0.0115626 0 0.0004181)
(0.0121524 0 0.000464894)
(0.0126509 0 0.000513999)
(0.013069 0 0.000565912)
(0.013417 0 0.000621118)
(0.0137052 0 0.000680084)
(0.0139442 0 0.000743246)
(0.0141443 0 0.000810984)
(0.0143168 0 0.000883585)
(0.014473 0 0.000961175)
(0.0146253 0 0.00104363)
(0.0147865 0 0.00113047)
(0.0149698 0 0.00122068)
(0.0151881 0 0.00131252)
(0.015453 0 0.00140338)
(0.0157731 0 0.00148958)
(0.0161507 0 0.00156648)
(0.0165782 0 0.00162885)
(0.0170323 0 0.00167192)
(0.0174674 0 0.00169343)
(0.0178065 0 0.00169669)
(0.0182421 0 0.00168216)
(0 0 0)
(0.00199832 0 6.01823e-05)
(0.00382202 0 0.000116388)
(0.00543281 0 0.000168439)
(0.00685155 0 0.000217653)
(0.00809734 0 0.000265104)
(0.00918751 0 0.000311682)
(0.0101379 0 0.000358138)
(0.010963 0 0.000405127)
(0.0116763 0 0.000453224)
(0.0122903 0 0.00050295)
(0.0128168 0 0.000554781)
(0.0132672 0 0.000609152)
(0.0136524 0 0.000666456)
(0.0139833 0 0.000727034)
(0.0142707 0 0.000791156)
(0.0145258 0 0.000858984)
(0.0147597 0 0.000930532)
(0.0149843 0 0.00100559)
(0.0152114 0 0.00108364)
(0.0154531 0 0.00116375)
(0.0157209 0 0.00124445)
(0.0160253 0 0.0013236)
(0.016374 0 0.00139828)
(0.0167705 0 0.00146484)
(0.017211 0 0.00151907)
(0.0176811 0 0.00155679)
(0.0181524 0 0.00157501)
(0.0185784 0 0.00157399)
(0.0188912 0 0.00156073)
(0.0192711 0 0.00152207)
(0 0 0)
(0.0020068 0 6.49308e-05)
(0.00383903 0 0.000125541)
(0.00545886 0 0.000181609)
(0.00688765 0 0.000234529)
(0.00814492 0 0.00028543)
(0.00924837 0 0.00033524)
(0.0102142 0 0.000384733)
(0.0110572 0 0.000434566)
(0.0117913 0 0.000485305)
(0.0124292 0 0.000537442)
(0.0129832 0 0.000591402)
(0.013465 0 0.000647547)
(0.0138859 0 0.000706171)
(0.0142572 0 0.000767484)
(0.0145899 0 0.000831589)
(0.0148952 0 0.000898444)
(0.0151844 0 0.000967814)
(0.0154688 0 0.00103921)
(0.0157596 0 0.00111181)
(0.0160673 0 0.00118437)
(0.0164017 0 0.00125518)
(0.0167701 0 0.00132195)
(0.0171766 0 0.00138185)
(0.0176199 0 0.00143163)
(0.0180911 0 0.00146792)
(0.0185713 0 0.00148784)
(0.0190291 0 0.00149001)
(0.01942 0 0.00147628)
(0.0196886 0 0.00145493)
(0.0199794 0 0.00140505)
(0 0 0)
(0.00201519 0 6.93495e-05)
(0.0038559 0 0.00013405)
(0.00548472 0 0.000193834)
(0.00692355 0 0.000250159)
(0.00819226 0 0.000304199)
(0.00930893 0 0.000356909)
(0.01029 0 0.000409076)
(0.0111507 0 0.000461354)
(0.011905 0 0.00051429)
(0.0125662 0 0.000568339)
(0.0131466 0 0.000623869)
(0.0136582 0 0.000681168)
(0.0141126 0 0.000740428)
(0.0145211 0 0.000801731)
(0.0148948 0 0.000865029)
(0.0152447 0 0.000930099)
(0.0155817 0 0.000996507)
(0.0159165 0 0.00106355)
(0.0162589 0 0.00113021)
(0.016618 0 0.0011951)
(0.0170012 0 0.00125641)
(0.017413 0 0.00131199)
(0.0178542 0 0.00135936)
(0.0183198 0 0.00139597)
(0.0187977 0 0.00141957)
(0.0192664 0 0.00142881)
(0.0196947 0 0.0014239)
(0.020042 0 0.00140774)
(0.0202647 0 0.00138773)
(0.0204624 0 0.00134335)
(0 0 0)
(0.00202329 0 7.3424e-05)
(0.00387222 0 0.00014189)
(0.00550983 0 0.00020508)
(0.00695846 0 0.000264502)
(0.00823838 0 0.000321364)
(0.00936796 0 0.000376641)
(0.0103639 0 0.000431126)
(0.0112417 0 0.000485461)
(0.0120155 0 0.00054017)
(0.0126987 0 0.000595666)
(0.013304 0 0.000652262)
(0.0138433 0 0.000710166)
(0.0143283 0 0.000769476)
(0.0147701 0 0.000830164)
(0.0151799 0 0.000892047)
(0.0155681 0 0.000954762)
(0.015945 0 0.00101773)
(0.0163201 0 0.00108011)
(0.0167022 0 0.00114079)
(0.0170985 0 0.00119834)
(0.0175142 0 0.00125108)
(0.0179512 0 0.00129709)
(0.0184078 0 0.00133442)
(0.0188768 0 0.00136134)
(0.0193444 0 0.0013768)
(0.0197899 0 0.00138093)
(0.020185 0 0.00137566)
(0.0204956 0 0.00136492)
(0.0206872 0 0.00135419)
(0.0208286 0 0.00133275)
(0 0 0)
(0.0020309 0 7.71431e-05)
(0.0038876 0 0.000149041)
(0.00553357 0 0.000215322)
(0.00699161 0 0.00027753)
(0.00828231 0 0.000336899)
(0.00942427 0 0.000394417)
(0.0104344 0 0.000450872)
(0.0113284 0 0.000506895)
(0.0121206 0 0.00056298)
(0.0128244 0 0.0006195)
(0.0134525 0 0.000676709)
(0.0140169 0 0.000734746)
(0.0145291 0 0.000793627)
(0.0150002 0 0.000853225)
(0.0154407 0 0.000913258)
(0.0158606 0 0.00097326)
(0.0162692 0 0.00103256)
(0.0166751 0 0.00109026)
(0.0170856 0 0.00114523)
(0.017506 0 0.00119612)
(0.0179397 0 0.00124142)
(0.0183867 0 0.0012796)
(0.0188433 0 0.0013092)
(0.0193012 0 0.00132924)
(0.0197471 0 0.00133958)
(0.0201628 0 0.00134146)
(0.0205258 0 0.001338)
(0.0208116 0 0.00133442)
(0.0209948 0 0.00133579)
(0.0211497 0 0.00134943)
(0 0 0)
(0.00203788 0 8.0542e-05)
(0.00390177 0 0.000155554)
(0.00555559 0 0.000224624)
(0.00702254 0 0.000289331)
(0.00832348 0 0.000350916)
(0.00947721 0 0.000410371)
(0.0105008 0 0.000468479)
(0.01141 0 0.000525853)
(0.0122193 0 0.000582958)
(0.0129421 0 0.000640125)
(0.013591 0 0.000697558)
(0.0141779 0 0.000755332)
(0.0147141 0 0.000813391)
(0.0152101 0 0.000871537)
(0.0156761 0 0.000929413)
(0.0161213 0 0.000986491)
(0.0165542 0 0.00104206)
(0.016982 0 0.00109522)
(0.0174107 0 0.0011449)
(0.0178441 0 0.00118989)
(0.0182838 0 0.00122893)
(0.0187284 0 0.00126081)
(0.0191731 0 0.00128455)
(0.0196093 0 0.00129966)
(0.0200249 0 0.00130642)
(0.0204049 0 0.00130615)
(0.0207328 0 0.00130121)
(0.0209938 0 0.00129455)
(0.0211753 0 0.00128692)
(0.0214754 0 0.00136384)
(0 0 0)
(0.00161724 0 0)
(0.00257559 0 0)
(0.00377653 0 0)
(0.00503183 0 0)
(0.00624689 0 0)
(0.00737517 0 0)
(0.00839533 0 0)
(0.00929939 0 0)
(0.0100863 0 0)
(0.0107584 0 0)
(0.0113194 0 0)
(0.0117729 0 0)
(0.0121222 0 0)
(0.0123696 0 0)
(0.0125167 0 0)
(0.0125635 0 0)
(0.0125092 0 0)
(0.0123516 0 0)
(0.0120875 0 0)
(0.0117122 0 0)
(0.01122 0 0)
(0.0106039 0 0)
(0.00985556 0 0)
(0.00896543 0 0)
(0.00792257 0 0)
(0.00671474 0 0)
(0.00532837 0 0)
(0.00374856 0 0)
(0.0019591 0 0)
(0 0 0)
(0.000991997 0 -0.000825254)
(0.00215971 0 -0.00060083)
(0.00303192 0 -0.000510264)
(0.00414699 0 -0.000411523)
(0.00532949 0 -0.000322862)
(0.0064854 0 -0.000248525)
(0.00756631 0 -0.000188181)
(0.00854872 0 -0.000140096)
(0.00942273 0 -0.000102246)
(0.0101857 0 -7.2727e-05)
(0.0108387 0 -4.98818e-05)
(0.0113844 0 -3.23298e-05)
(0.0118257 0 -1.89479e-05)
(0.0121651 0 -8.8369e-06)
(0.0124046 0 -1.28466e-06)
(0.0125451 0 4.26816e-06)
(0.0125867 0 8.25828e-06)
(0.0125281 0 1.10249e-05)
(0.012367 0 1.28304e-05)
(0.0121 0 1.38763e-05)
(0.0117224 0 1.43166e-05)
(0.0112282 0 1.42678e-05)
(0.0106105 0 1.38165e-05)
(0.00986085 0 1.30257e-05)
(0.00896961 0 1.1939e-05)
(0.00792582 0 1.05843e-05)
(0.0067172 0 8.97606e-06)
(0.00533013 0 7.11732e-06)
(0.00374971 0 5.00106e-06)
(0.00195964 0 2.61111e-06)
(0 0 0)
(0.00284564 0 -0.00131654)
(0.00361014 0 -0.00105275)
(0.0042852 0 -0.00090993)
(0.00518565 0 -0.000745713)
(0.00617569 0 -0.00059219)
(0.00716993 0 -0.000459846)
(0.00811863 0 -0.000350337)
(0.00899424 0 -0.000261878)
(0.00978244 0 -0.000191549)
(0.0104766 0 -0.000136278)
(0.0110744 0 -9.32461e-05)
(0.0115757 0 -6.00267e-05)
(0.0119812 0 -3.46028e-05)
(0.0122918 0 -1.53357e-05)
(0.0125079 0 -9.1304e-07)
(0.0126295 0 9.7052e-06)
(0.0126556 0 1.73368e-05)
(0.0125843 0 2.26208e-05)
(0.0124129 0 2.60536e-05)
(0.0121374 0 2.80184e-05)
(0.0117528 0 2.88089e-05)
(0.0112529 0 2.86479e-05)
(0.0106304 0 2.77011e-05)
(0.00987675 0 2.60893e-05)
(0.0089822 0 2.3896e-05)
(0.00793565 0 2.1174e-05)
(0.00672469 0 1.79505e-05)
(0.00533559 0 1.423e-05)
(0.00375331 0 9.9973e-06)
(0.00196146 0 5.21924e-06)
(0 0 0)
(0.00522891 0 -0.00153228)
(0.00563144 0 -0.00129992)
(0.00608527 0 -0.00114595)
(0.00671846 0 -0.000957586)
(0.00745073 0 -0.000772511)
(0.00821765 0 -0.000607074)
(0.00897423 0 -0.000466513)
(0.00969098 0 -0.000350713)
(0.0103493 0 -0.000257248)
(0.0109379 0 -0.00018292)
(0.0114501 0 -0.0001245)
(0.0118821 0 -7.90549e-05)
(0.0122313 0 -4.40592e-05)
(0.0124962 0 -1.74105e-05)
(0.0126751 0 2.60734e-06)
(0.0127663 0 1.73741e-05)
(0.0127675 0 2.7988e-05)
(0.0126759 0 3.53156e-05)
(0.0124878 0 4.00357e-05)
(0.0121985 0 4.26762e-05)
(0.0118025 0 4.36436e-05)
(0.0112932 0 4.32477e-05)
(0.0106629 0 4.17198e-05)
(0.00990283 0 3.92282e-05)
(0.0090029 0 3.58891e-05)
(0.00795182 0 3.17752e-05)
(0.00673701 0 2.69224e-05)
(0.00534455 0 2.13339e-05)
(0.00375924 0 1.49844e-05)
(0.00196445 0 7.82169e-06)
(0 0 0)
(0.00780616 0 -0.00154233)
(0.00793374 0 -0.00136131)
(0.00818082 0 -0.00122023)
(0.00854702 0 -0.00103849)
(0.00900543 0 -0.000851378)
(0.00951887 0 -0.000677761)
(0.0100531 0 -0.000525851)
(0.0105807 0 -0.000397749)
(0.0110809 0 -0.000292398)
(0.0115385 0 -0.00020733)
(0.011943 0 -0.000139625)
(0.0122865 0 -8.64131e-05)
(0.0125633 0 -4.50943e-05)
(0.0127688 0 -1.34263e-05)
(0.012899 0 1.04706e-05)
(0.0129501 0 2.81407e-05)
(0.0129185 0 4.08344e-05)
(0.0127998 0 4.95524e-05)
(0.0125892 0 5.50882e-05)
(0.0122814 0 5.80647e-05)
(0.0118701 0 5.89657e-05)
(0.0113481 0 5.81619e-05)
(0.0107073 0 5.59313e-05)
(0.00993839 0 5.2476e-05)
(0.00903112 0 4.7935e-05)
(0.00797387 0 4.23937e-05)
(0.0067538 0 3.58912e-05)
(0.00535677 0 2.84258e-05)
(0.00376731 0 1.99585e-05)
(0.00196851 0 1.04161e-05)
(0 0 0)
(0.0103675 0 -0.00141362)
(0.0102925 0 -0.00127705)
(0.0103633 0 -0.00115931)
(0.0104918 0 -0.00100218)
(0.0106941 0 -0.000833964)
(0.0109597 0 -0.000672281)
(0.0112682 0 -0.000526454)
(0.0115976 0 -0.000400272)
(0.0119277 0 -0.000294216)
(0.0122415 0 -0.000206991)
(0.0125253 0 -0.000136494)
(0.0127683 0 -8.03734e-05)
(0.0129616 0 -3.63429e-05)
(0.0130977 0 -2.32695e-06)
(0.0131705 0 2.34808e-05)
(0.0131742 0 4.26082e-05)
(0.0131031 0 5.6322e-05)
(0.0129517 0 6.5656e-05)
(0.0127141 0 7.14432e-05)
(0.0123837 0 7.43464e-05)
(0.0119537 0 7.48856e-05)
(0.0114161 0 7.34626e-05)
(0.0107622 0 7.038e-05)
(0.00998252 0 6.58576e-05)
(0.00906615 0 6.00453e-05)
(0.00800124 0 5.30324e-05)
(0.00677464 0 4.4855e-05)
(0.00537192 0 3.55014e-05)
(0.0037773 0 2.49157e-05)
(0.00197354 0 1.3e-05)
(0 0 0)
(0.0127717 0 -0.00118588)
(0.0125467 0 -0.00108544)
(0.0124758 0 -0.000995119)
(0.0124089 0 -0.000871975)
(0.0123921 0 -0.000735637)
(0.0124372 0 -0.000599947)
(0.0125371 0 -0.000473511)
(0.012677 0 -0.000360871)
(0.0128396 0 -0.000263754)