/*--------------------------------*- C++ -*----------------------------------*\
| =========                 |                                                 |
| \\      /  F ield         | OpenFOAM: The Open Source CFD Toolbox           |
|  \\    /   O peration     | Version:  dev                                   |
|   \\  /    A nd           | Web:      www.OpenFOAM.org                      |
|    \\/     M anipulation  |                                                 |
\*---------------------------------------------------------------------------*/
FoamFile
{
    version     2.0;
    format      ascii;
    class       volVectorField;
    location    "0.69";
    object      cellDisplacement;
}
// * * * * * * * * * * * * * * * * * * * * * * * * * * * * * * * * * * * * * //

dimensions      [0 1 0 0 0 0 0];

internalField   nonuniform List<vector> 
2790
(
(0.00664818 0 -8.82727e-06)
(0.0190341 0 -2.53118e-05)
(0.0297116 0 -3.96526e-05)
(0.0388092 0 -5.20448e-05)
(0.0464654 0 -6.26289e-05)
(0.0528064 0 -7.14911e-05)
(0.057945 0 -7.86484e-05)
(0.0619821 0 -8.40182e-05)
(0.0650077 0 -8.74885e-05)
(0.0671013 0 -8.88932e-05)
(0.0683326 0 -8.80075e-05)
(0.0687634 0 -8.45416e-05)
(0.068448 0 -7.80606e-05)
(0.0674358 0 -6.81295e-05)
(0.0657719 0 -5.42223e-05)
(0.0634984 0 -3.57338e-05)
(0.0606563 0 -1.19744e-05)
(0.0572875 0 1.78308e-05)
(0.0534363 0 5.45328e-05)
(0.0491519 0 9.90321e-05)
(0.0444849 0 0.000152217)
(0.0394955 0 0.00021511)
(0.0342564 0 0.000288772)
(0.0288622 0 0.000374491)
(0.0234277 0 0.0004732)
(0.0180972 0 0.000585725)
(0.0130587 0 0.000712318)
(0.00856328 0 0.000851441)
(0.00496686 0 0.000996439)
(0.00291117 0 0.00112491)
(0.00665742 0 -2.65066e-05)
(0.0190613 0 -7.60121e-05)
(0.0297564 0 -0.000119093)
(0.038872 0 -0.000156342)
(0.0465471 0 -0.000188179)
(0.0529091 0 -0.000214872)
(0.058071 0 -0.000236489)
(0.0621341 0 -0.000252768)
(0.0651893 0 -0.000263387)
(0.0673166 0 -0.000267859)
(0.0685867 0 -0.000265522)
(0.0690618 0 -0.000255555)
(0.0687968 0 -0.000236614)
(0.0678422 0 -0.000207446)
(0.0662438 0 -0.000166497)
(0.0640446 0 -0.000111982)
(0.0612863 0 -4.18742e-05)
(0.0580114 0 4.61087e-05)
(0.0542655 0 0.000154474)
(0.0501022 0 0.00028589)
(0.0455709 0 0.000442812)
(0.0407327 0 0.000628202)
(0.0356579 0 0.000844808)
(0.0304472 0 0.00109653)
(0.0252172 0 0.00138529)
(0.0201153 0 0.00171262)
(0.0153373 0 0.00207785)
(0.0111539 0 0.00247395)
(0.00793981 0 0.00287625)
(0.00631591 0 0.00321166)
(0.00667571 0 -4.42545e-05)
(0.0191152 0 -0.000126924)
(0.0298451 0 -0.000198909)
(0.0389959 0 -0.000261221)
(0.0467084 0 -0.000314552)
(0.053112 0 -0.000359379)
(0.0583201 0 -0.00039588)
(0.0624347 0 -0.000423562)
(0.0655487 0 -0.000441942)
(0.0677434 0 -0.000450241)
(0.0690905 0 -0.000447388)
(0.0696542 0 -0.000432224)
(0.0694895 0 -0.000402302)
(0.0686499 0 -0.00035577)
(0.067182 0 -0.000290085)
(0.0651308 0 -0.000202393)
(0.0625396 0 -8.94499e-05)
(0.059452 0 5.23957e-05)
(0.055913 0 0.000227148)
(0.0519827 0 0.000438525)
(0.0477202 0 0.00069072)
(0.0431854 0 0.00098838)
(0.0384472 0 0.00133633)
(0.0336009 0 0.00173821)
(0.0287759 0 0.00219546)
(0.0241178 0 0.00270811)
(0.0198248 0 0.00327137)
(0.0161972 0 0.00386983)
(0.0136169 0 0.0044559)
(0.0126476 0 0.00491198)
(0.00670319 0 -6.21068e-05)
(0.0191958 0 -0.00017816)
(0.0299776 0 -0.000279296)
(0.0391809 0 -0.000367)
(0.0469487 0 -0.000442201)
(0.0534144 0 -0.00050563)
(0.0586914 0 -0.000557722)
(0.0628822 0 -0.000597596)
(0.0660836 0 -0.000624729)
(0.0683783 0 -0.000638092)
(0.0698395 0 -0.000636179)
(0.0705308 0 -0.000617081)
(0.0705134 0 -0.000578529)
(0.0698431 0 -0.00051774)
(0.0685675 0 -0.000431178)
(0.0667343 0 -0.000315122)
(0.0643895 0 -0.000165347)
(0.0615785 0 2.29138e-05)
(0.0583532 0 0.000254538)
(0.0547676 0 0.00053456)
(0.05089 0 0.000868577)
(0.046785 0 0.00126209)
(0.0425368 0 0.00172012)
(0.0382353 0 0.00224474)
(0.0340104 0 0.0028362)
(0.0300114 0 0.00349051)
(0.026419 0 0.00419704)
(0.0235196 0 0.00492582)
(0.0217508 0 0.00560883)
(0.0215949 0 0.00609783)
(0.00674 0 -8.00939e-05)
(0.019303 0 -0.000229812)
(0.0301535 0 -0.000360416)
(0.0394261 0 -0.000473959)
(0.0472657 0 -0.000571522)
(0.0538138 0 -0.00065413)
(0.0591796 0 -0.000722003)
(0.0634693 0 -0.000774987)
(0.0667847 0 -0.000812102)
(0.0692099 0 -0.000832138)
(0.0708193 0 -0.000833261)
(0.0716783 0 -0.000812852)
(0.0718541 0 -0.000768929)
(0.0714058 0 -0.000698175)
(0.0703808 0 -0.000595954)
(0.0688319 0 -0.000458058)
(0.0668091 0 -0.000279606)
(0.0643572 0 -5.48476e-05)
(0.0615391 0 0.000221506)
(0.058411 0 0.000555353)
(0.0550378 0 0.000952713)
(0.0514899 0 0.00141913)
(0.0478585 0 0.00195844)
(0.0442454 0 0.00257155)
(0.0407803 0 0.00325523)
(0.0376146 0 0.00399958)
(0.0349235 0 0.00478413)
(0.0329169 0 0.00556825)
(0.032067 0 0.0062666)
(0.0328011 0 0.00671279)
(0.0067864 0 -9.8238e-05)
(0.0194362 0 -0.000281952)
(0.0303719 0 -0.000442365)
(0.0397283 0 -0.000581779)
(0.0476541 0 -0.000702138)
(0.0542969 0 -0.000804494)
(0.059772 0 -0.000889007)
(0.0641881 0 -0.000956425)
(0.0676431 0 -0.00100503)
(0.0702277 0 -0.00103374)
(0.0720192 0 -0.00104056)
(0.0730867 0 -0.00102276)
(0.0734978 0 -0.000977495)
(0.0733133 0 -0.000901164)
(0.0725921 0 -0.00078957)
(0.071389 0 -0.000637721)
(0.069761 0 -0.000440584)
(0.0677585 0 -0.000191847)
(0.0654376 0 0.000114693)
(0.0628657 0 0.000484398)
(0.0601081 0 0.000923072)
(0.0572322 0 0.00143589)
(0.0543463 0 0.00202471)
(0.051551 0 0.00268783)
(0.0489792 0 0.00341716)
(0.0467798 0 0.00419544)
(0.0451199 0 0.00499198)
(0.0441717 0 0.00576042)
(0.0442745 0 0.00640323)
(0.0459048 0 0.00674753)
(0.00684289 0 -0.000116551)
(0.0195937 0 -0.000334356)
(0.0306191 0 -0.000524679)
(0.0400746 0 -0.00069032)
(0.048109 0 -0.000834182)
(0.0548649 0 -0.000957114)
(0.0604706 0 -0.00105984)
(0.0650302 0 -0.00114246)
(0.0686467 0 -0.00120424)
(0.0714173 0 -0.00124389)
(0.0734209 0 -0.0012594)
(0.0747294 0 -0.00124778)
(0.0754136 0 -0.00120595)
(0.075536 0 -0.00112991)
(0.0751663 0 -0.00101611)
(0.0743614 0 -0.000859157)
(0.0731857 0 -0.000654001)
(0.071701 0 -0.000394854)
(0.0699577 0 -7.51143e-05)
(0.0680311 0 0.000310021)
(0.0659958 0 0.000764892)
(0.0639225 0 0.00129403)
(0.0618975 0 0.00189794)
(0.0600286 0 0.00257081)
(0.0584624 0 0.00329907)
(0.0573363 0 0.00405805)
(0.0567933 0 0.00480916)
(0.0569809 0 0.00549692)
(0.0580762 0 0.00602684)
(0.0605619 0 0.00623014)
(0.0068969 0 -0.000134756)
(0.0197628 0 -0.000386804)
(0.0309017 0 -0.000607531)
(0.0404723 0 -0.000800192)
(0.0486267 0 -0.000967738)
(0.0555094 0 -0.00111205)
(0.0612574 0 -0.0012339)
(0.0659789 0 -0.00133322)
(0.0697819 0 -0.00141015)
(0.0727624 0 -0.00146322)
(0.0750053 0 -0.00149075)
(0.0765834 0 -0.00148927)
(0.0775745 0 -0.00145604)
(0.078048 0 -0.00138741)
(0.0780737 0 -0.00127946)
(0.0777124 0 -0.00112692)
(0.0770407 0 -0.000925698)
(0.07612 0 -0.00067012)
(0.0750137 0 -0.000354587)
(0.0738024 0 2.48139e-05)
(0.0725671 0 0.000471117)
(0.0713937 0 0.000985533)
(0.0703462 0 0.00156676)
(0.069528 0 0.00220755)
(0.0690564 0 0.00289074)
(0.0690905 0 0.00358199)
(0.0697268 0 0.00423761)
(0.0710572 0 0.00479793)
(0.0731833 0 0.00517628)
(0.0764639 0 0.00521938)
(0.00695918 0 -0.00015305)
(0.019955 0 -0.000439702)
(0.031217 0 -0.000690868)
(0.0409052 0 -0.000910686)
(0.0491921 0 -0.00110249)
(0.0562225 0 -0.00126925)
(0.0621291 0 -0.00141146)
(0.0670323 0 -0.00152975)
(0.0710399 0 -0.00162401)
(0.0742514 0 -0.0016931)
(0.0767505 0 -0.00173515)
(0.0786214 0 -0.00174789)
(0.0799466 0 -0.00172853)
(0.0808004 0 -0.00167376)
(0.0812573 0 -0.00158011)
(0.0813893 0 -0.00144316)
(0.0812667 0 -0.00125841)
(0.0809605 0 -0.00102172)
(0.0805382 0 -0.000728188)
(0.0800962 0 -0.000375987)
(0.0797193 0 3.60342e-05)
(0.0794934 0 0.000506699)
(0.0795 0 0.00103126)
(0.0798315 0 0.00159925)
(0.0805538 0 0.00219406)
(0.0818251 0 0.00277579)
(0.0836978 0 0.00329667)
(0.0861998 0 0.00369816)
(0.0893439 0 0.00390567)
(0.0933502 0 0.00378777)
(0.0070276 0 -0.000171375)
(0.0201553 0 -0.000492499)
(0.0315512 0 -0.000774311)
(0.041377 0 -0.00102192)
(0.0498104 0 -0.00123906)
(0.056997 0 -0.00142865)
(0.0630741 0 -0.00159231)
(0.0681721 0 -0.00173104)
(0.0723983 0 -0.00184467)
(0.075854 0 -0.00193237)
(0.0786273 0 -0.00199231)
(0.0808129 0 -0.00202354)
(0.0824931 0 -0.0020233)
(0.0837485 0 -0.00198879)
(0.0846606 0 -0.00191728)
(0.0853121 0 -0.00180584)
(0.0857689 0 -0.00165007)
(0.0861146 0 -0.0014477)
(0.0864294 0 -0.00119559)
(0.0867917 0 -0.000891411)
(0.0873128 0 -0.000538395)
(0.0880828 0 -0.000140322)
(0.0891892 0 0.000295122)
(0.090713 0 0.000755242)
(0.0927141 0 0.00122256)
(0.0952875 0 0.00165891)
(0.0984517 0 0.00201558)
(0.102159 0 0.00223986)
(0.106321 0 0.00227152)
(0.110998 0 0.00200174)
(0.00710148 0 -0.000189695)
(0.0203732 0 -0.000545384)
(0.031914 0 -0.000858351)
(0.0418823 0 -0.00113372)
(0.0504627 0 -0.00137641)
(0.0578151 0 -0.00158964)
(0.0640793 0 -0.00177604)
(0.0693837 0 -0.00193673)
(0.0738398 0 -0.00207173)
(0.0775538 0 -0.00218076)
(0.0806213 0 -0.00226277)
(0.0831366 0 -0.00231677)
(0.0851872 0 -0.0023408)
(0.0868585 0 -0.00233272)
(0.0882392 0 -0.00229091)
(0.0894129 0 -0.00221314)
(0.090462 0 -0.00209741)
(0.0914761 0 -0.00194284)
(0.092549 0 -0.00174943)
(0.0937532 0 -0.00151549)
(0.0951854 0 -0.00124396)
(0.0969676 0 -0.000944509)
(0.099193 0 -0.000627704)
(0.101939 0 -0.000307918)
(0.105267 0 -3.35188e-06)
(0.109173 0 0.000258807)
(0.113683 0 0.000428694)
(0.118651 0 0.000465939)
(0.123867 0 0.000326272)
(0.129188 0 -8.05646e-05)
(0.00718068 0 -0.000208062)
(0.0206067 0 -0.000598463)
(0.032289 0 -0.000942162)
(0.0424051 0 -0.00124547)
(0.0511495 0 -0.00151448)
(0.0586788 0 -0.00175275)
(0.0651382 0 -0.00196303)
(0.0706587 0 -0.00214733)
(0.0753536 0 -0.00230565)
(0.0793362 0 -0.00243856)
(0.0827065 0 -0.00254568)
(0.085561 0 -0.00262638)
(0.0879908 0 -0.00267952)
(0.0900834 0 -0.00270345)
(0.0919382 0 -0.00269838)
(0.093639 0 -0.00266284)
(0.0952804 0 -0.00259709)
(0.096958 0 -0.00250215)
(0.0987678 0 -0.00237991)
(0.100807 0 -0.00223365)
(0.103157 0 -0.00206625)
(0.105929 0 -0.00188714)
(0.109253 0 -0.00171413)
(0.113201 0 -0.0015616)
(0.117828 0 -0.00144795)
(0.123093 0 -0.00138981)
(0.128997 0 -0.0014275)
(0.135303 0 -0.00158455)
(0.141671 0 -0.00188533)
(0.147661 0 -0.00240901)
(0.00726443 0 -0.000226422)
(0.0208407 0 -0.000651031)
(0.0326708 0 -0.00102546)
(0.0429513 0 -0.0013576)
(0.0518667 0 -0.00165351)
(0.0595785 0 -0.00191752)
(0.0662383 0 -0.00215262)
(0.0719759 0 -0.00236106)
(0.0769126 0 -0.00254424)
(0.0811683 0 -0.00270316)
(0.0848445 0 -0.002838)
(0.0880403 0 -0.00294879)
(0.0908506 0 -0.00303537)
(0.0933738 0 -0.0030977)
(0.0957009 0 -0.00313569)
(0.0979181 0 -0.00314929)
(0.100137 0 -0.00314169)
(0.102456 0 -0.00311614)
(0.104975 0 -0.00307654)
(0.107793 0 -0.00302876)
(0.111014 0 -0.00298107)
(0.114729 0 -0.00294167)
(0.119084 0 -0.00293231)
(0.124148 0 -0.0029689)
(0.129975 0 -0.00306814)
(0.136566 0 -0.00324381)
(0.143857 0 -0.00351532)
(0.151565 0 -0.00388155)
(0.15924 0 -0.00433531)
(0.166013 0 -0.00494873)
(0.00733966 0 -0.000244278)
(0.021072 0 -0.000702888)
(0.0330665 0 -0.00110861)
(0.0435157 0 -0.00146975)
(0.0526069 0 -0.00179297)
(0.060499 0 -0.00208255)
(0.0673537 0 -0.00234284)
(0.0733108 0 -0.00257646)
(0.0784961 0 -0.00278607)
(0.0830257 0 -0.00297281)
(0.087006 0 -0.00313759)
(0.0905396 0 -0.00328122)
(0.0937265 0 -0.00340463)
(0.0966699 0 -0.00350941)
(0.0994526 0 -0.00359543)
(0.102178 0 -0.00366531)
(0.104943 0 -0.00372178)
(0.107867 0 -0.00377271)
(0.111044 0 -0.00382367)
(0.114576 0 -0.0038831)
(0.118567 0 -0.00396218)
(0.123133 0 -0.00407457)
(0.128392 0 -0.00424122)
(0.134415 0 -0.00448105)
(0.14127 0 -0.00481239)
(0.148991 0 -0.00524794)
(0.157504 0 -0.00579062)
(0.166541 0 -0.00640855)
(0.17565 0 -0.00703653)
(0.183441 0 -0.00769811)
(0.00741812 0 -0.000261973)
(0.0213109 0 -0.000754429)
(0.0334721 0 -0.00119129)
(0.0440927 0 -0.0015815)
(0.0533494 0 -0.00193136)
(0.0614204 0 -0.00224666)
(0.0684789 0 -0.00253306)
(0.0746608 0 -0.00279352)
(0.0800933 0 -0.00303083)
(0.0848942 0 -0.00324693)
(0.0891735 0 -0.00344347)
(0.0930364 0 -0.00362211)
(0.0965852 0 -0.00378468)
(0.0999209 0 -0.00393346)
(0.103137 0 -0.00407067)
(0.106338 0 -0.0042006)
(0.109614 0 -0.00432614)
(0.113092 0 -0.00445778)
(0.116857 0 -0.0046031)
(0.121012 0 -0.00477312)
(0.12566 0 -0.00498192)
(0.130923 0 -0.00524725)
(0.136895 0 -0.00559084)
(0.143638 0 -0.00603506)
(0.151217 0 -0.00660349)
(0.159683 0 -0.00731662)
(0.168949 0 -0.00817709)
(0.178798 0 -0.00914512)
(0.188887 0 -0.0100729)
(0.197982 0 -0.0107649)
(0.00330677 0 -0.00122087)
(0.00652273 0 -0.00127951)
(0.0125825 0 -0.00133586)
(0.0209463 0 -0.00139157)
(0.0308767 0 -0.00143907)
(0.0415964 0 -0.00146838)
(0.0524284 0 -0.00147594)
(0.0628426 0 -0.00146237)
(0.0724615 0 -0.00143062)
(0.0810391 0 -0.00138689)
(0.0884483 0 -0.00132935)
(0.0946503 0 -0.00126483)
(0.0996404 0 -0.00119516)
(0.103443 0 -0.00112258)
(0.106093 0 -0.00104895)
(0.107622 0 -0.0009757)
(0.108057 0 -0.0009055)
(0.107412 0 -0.000831498)
(0.1057 0 -0.000761011)
(0.102917 0 -0.000693458)
(0.0990493 0 -0.00062845)
(0.0940737 0 -0.000565655)
(0.087959 0 -0.000504418)
(0.0806466 0 -0.000444817)
(0.0720789 0 -0.000383661)
(0.062209 0 -0.00032118)
(0.0509684 0 -0.000256729)
(0.0382884 0 -0.000189343)
(0.0241007 0 -0.0001178)
(0.00831429 0 -4.04695e-05)
(0.00644037 0 -0.00364745)
(0.00972469 0 -0.00382429)
(0.01577 0 -0.00400044)
(0.0240562 0 -0.00417178)
(0.033835 0 -0.00431591)
(0.0443256 0 -0.00440088)
(0.0548878 0 -0.00441968)
(0.065018 0 -0.0043757)
(0.0743578 0 -0.00427723)
(0.0826598 0 -0.00413301)
(0.0898164 0 -0.00395696)
(0.0958009 0 -0.003764)
(0.1006 0 -0.00355607)
(0.10424 0 -0.00333997)
(0.106752 0 -0.00312105)
(0.108167 0 -0.00290281)
(0.108506 0 -0.00268792)
(0.107783 0 -0.00247275)
(0.106006 0 -0.00226491)
(0.103169 0 -0.00206527)
(0.0992559 0 -0.00187273)
(0.0942424 0 -0.00168653)
(0.0880933 0 -0.00150433)
(0.0807552 0 -0.00132469)
(0.0721707 0 -0.00114252)
(0.0622836 0 -0.000956537)
(0.0510268 0 -0.000764683)
(0.0383312 0 -0.000564044)
(0.0241278 0 -0.000350968)
(0.00832399 0 -0.000120586)
(0.012352 0 -0.0060472)
(0.0158622 0 -0.00635321)
(0.0219408 0 -0.00665998)
(0.0301124 0 -0.00695262)
(0.0395718 0 -0.00717587)
(0.0496031 0 -0.00729966)
(0.0596431 0 -0.0073166)
(0.0692265 0 -0.00723358)
(0.0780164 0 -0.0070649)
(0.085791 0 -0.00681683)
(0.09248 0 -0.00652026)
(0.0980387 0 -0.00619091)
(0.102466 0 -0.00584359)
(0.10579 0 -0.00548566)
(0.108036 0 -0.00512517)
(0.109229 0 -0.00476706)
(0.109384 0 -0.00441461)
(0.108511 0 -0.00406838)
(0.106607 0 -0.00372974)
(0.103665 0 -0.00340423)
(0.0996638 0 -0.0030892)
(0.0945767 0 -0.00278441)
(0.0883669 0 -0.00248495)
(0.0809792 0 -0.00218646)
(0.072355 0 -0.00188598)
(0.0624328 0 -0.00157923)
(0.051143 0 -0.00126274)
(0.0384159 0 -0.000931601)
(0.024181 0 -0.000579792)
(0.00834277 0 -0.000199232)
(0.0207906 0 -0.00847388)
(0.0246223 0 -0.00890303)
(0.0307856 0 -0.00933712)
(0.0387534 0 -0.00973029)
(0.0477255 0 -0.0100066)
(0.0571212 0 -0.0101452)
(0.0664343 0 -0.0101416)
(0.0752506 0 -0.0100068)
(0.0832465 0 -0.00975146)
(0.0902759 0 -0.00940232)
(0.0962889 0 -0.00898872)
(0.101243 0 -0.00852712)
(0.105153 0 -0.00804674)
(0.10803 0 -0.00755307)
(0.109898 0 -0.00705791)
(0.110773 0 -0.00656679)
(0.110663 0 -0.00608485)
(0.109571 0 -0.00561487)
(0.107488 0 -0.00515701)
(0.104392 0 -0.00471178)
(0.100261 0 -0.00427849)
(0.0950635 0 -0.00385519)
(0.0887666 0 -0.00343919)
(0.0813075 0 -0.00302592)
(0.072624 0 -0.00261112)
(0.0626504 0 -0.00218682)
(0.051312 0 -0.00174897)
(0.0385385 0 -0.00129062)
(0.0242576 0 -0.000803424)
(0.0083698 0 -0.000276117)
(0.0314477 0 -0.010969)
(0.0356503 0 -0.0115056)
(0.0418991 0 -0.0120472)
(0.0495545 0 -0.0125039)
(0.0579409 0 -0.0128094)
(0.0665538 0 -0.0129375)
(0.0749699 0 -0.0128919)
(0.0827867 0 -0.0126786)
(0.0897821 0 -0.0123215)
(0.0958917 0 -0.0118615)
(0.101074 0 -0.0113328)
(0.105288 0 -0.0107504)
(0.108543 0 -0.0101408)
(0.11086 0 -0.00952096)
(0.112258 0 -0.0089018)
(0.112735 0 -0.00828804)
(0.112292 0 -0.00768523)
(0.110921 0 -0.00709781)
(0.108608 0 -0.00652803)
(0.105322 0 -0.00597071)
(0.101033 0 -0.00542609)
(0.0957038 0 -0.00489048)
(0.0892909 0 -0.00436259)
(0.0817309 0 -0.0038386)
(0.0729686 0 -0.00331155)
(0.0629301 0 -0.00277367)
(0.051528 0 -0.00221893)
(0.0386943 0 -0.00163782)
(0.0243545 0 -0.00101987)
(0.00840412 0 -0.000350553)
(0.0440103 0 -0.0135519)
(0.0485815 0 -0.0141769)
(0.054861 0 -0.0147933)
(0.0621332 0 -0.0152825)
(0.0698307 0 -0.0155811)
(0.0775207 0 -0.015663)
(0.084852 0 -0.0155413)
(0.0914926 0 -0.0152249)
(0.0973579 0 -0.0147578)
(0.102412 0 -0.0141813)
(0.106627 0 -0.013533)
(0.109976 0 -0.0128322)
(0.112477 0 -0.0120998)
(0.114157 0 -0.0113616)
(0.115017 0 -0.0106301)
(0.115034 0 -0.00990366)
(0.114201 0 -0.00918972)
(0.112507 0 -0.00849417)
(0.109922 0 -0.00781685)
(0.106412 0 -0.00715582)
(0.101938 0 -0.00650886)
(0.0964552 0 -0.00587302)
(0.0899122 0 -0.00524396)
(0.0822455 0 -0.00461677)
(0.0733927 0 -0.00398355)
(0.0632677 0 -0.00333887)
(0.0517861 0 -0.00267208)
(0.038879 0 -0.00197271)
(0.0244678 0 -0.0012279)
(0.00844485 0 -0.000422117)
(0.0581675 0 -0.016224)
(0.0630707 0 -0.0169191)
(0.0693026 0 -0.0175756)
(0.0761129 0 -0.01806)
(0.083002 0 -0.0183081)
(0.0896213 0 -0.0183028)
(0.0956991 0 -0.0180656)
(0.101053 0 -0.0176289)
(0.105673 0 -0.017039)
(0.109574 0 -0.0163437)
(0.112713 0 -0.015571)
(0.115126 0 -0.0147553)
(0.116823 0 -0.0139147)
(0.11781 0 -0.0130694)
(0.118075 0 -0.0122328)
(0.117589 0 -0.0114054)
(0.116329 0 -0.0105896)
(0.114277 0 -0.00979529)
(0.111392 0 -0.00902111)
(0.107634 0 -0.00826587)
(0.102952 0 -0.00752529)
(0.0972973 0 -0.00679742)
(0.0906094 0 -0.00607466)
(0.0828209 0 -0.005352)
(0.0738562 0 -0.00462072)
(0.0636353 0 -0.00387593)
(0.052078 0 -0.00310394)
(0.0391071 0 -0.00229322)
(0.0246165 0 -0.00142817)
(0.0084925 0 -0.000490775)
(0.0736331 0 -0.0189812)
(0.0788136 0 -0.0197278)
(0.0849059 0 -0.0203877)
(0.0911325 0 -0.0208187)
(0.0970629 0 -0.0209644)
(0.10247 0 -0.0208294)
(0.107152 0 -0.0204424)
(0.111116 0 -0.0198636)
(0.114412 0 -0.0191398)
(0.117088 0 -0.0183223)
(0.119122 0 -0.017436)
(0.120568 0 -0.016514)
(0.121427 0 -0.0155743)
(0.121696 0 -0.0146354)
(0.12133 0 -0.0137013)
(0.120316 0 -0.0127836)
(0.118614 0 -0.0118818)
(0.116185 0 -0.0110006)
(0.112982 0 -0.0101401)
(0.108959 0 -0.0093011)
(0.104051 0 -0.00847507)
(0.0982065 0 -0.00766004)
(0.0913632 0 -0.00685125)
(0.0834446 0 -0.00604119)
(0.0743633 0 -0.00522079)
(0.0640353 0 -0.00438087)
(0.0523921 0 -0.0035103)
(0.0393339 0 -0.00259409)
(0.0247561 0 -0.00161647)
(0.00854238 0 -0.000555686)
(0.0901617 0 -0.0218173)
(0.0955479 0 -0.022592)
(0.101366 0 -0.0232077)
(0.106826 0 -0.0235238)
(0.111602 0 -0.0235062)
(0.115615 0 -0.0231924)
(0.118808 0 -0.022632)
(0.121326 0 -0.021897)
(0.123262 0 -0.0210365)
(0.124691 0 -0.0200976)
(0.125634 0 -0.01911)
(0.126117 0 -0.0180946)
(0.126136 0 -0.0170675)
(0.12568 0 -0.0160467)
(0.124689 0 -0.0150336)
(0.123143 0 -0.0140381)
(0.12099 0 -0.0130613)
(0.118178 0 -0.0121049)
(0.114645 0 -0.0111682)
(0.110346 0 -0.0102528)
(0.105212 0 -0.00935159)
(0.0991686 0 -0.00845802)
(0.0921539 0 -0.0075703)
(0.0840872 0 -0.00667977)
(0.0748829 0 -0.00577774)
(0.0644532 0 -0.00485144)
(0.0527228 0 -0.00388995)
(0.0395779 0 -0.00287675)
(0.0249042 0 -0.00179266)
(0.00859332 0 -0.000616302)
(0.107551 0 -0.0247181)
(0.113038 0 -0.025489)
(0.118365 0 -0.0259936)
(0.122797 0 -0.0261173)
(0.12618 0 -0.0258722)
(0.128623 0 -0.025335)
(0.130278 0 -0.0245866)
(0.131336 0 -0.0236943)
(0.131932 0 -0.0227042)
(0.132154 0 -0.0216576)
(0.13204 0 -0.0205812)
(0.131598 0 -0.0194876)
(0.130808 0 -0.0183885)
(0.129641 0 -0.0172977)
(0.128053 0 -0.0162221)
(0.12599 0 -0.0151636)
(0.123395 0 -0.0141242)
(0.120203 0 -0.0131047)
(0.116345 0 -0.0121033)
(0.111763 0 -0.011119)
(0.106395 0 -0.0101511)
(0.100154 0 -0.00919068)
(0.0929658 0 -0.00823294)
(0.0847492 0 -0.00726976)
(0.0754164 0 -0.00629149)
(0.064877 0 -0.00528586)
(0.0530425 0 -0.00423989)
(0.0398128 0 -0.00313774)
(0.0250566 0 -0.00195681)
(0.00864417 0 -0.000672706)
(0.125632 0 -0.0276629)
(0.131041 0 -0.0283775)
(0.135525 0 -0.0286717)
(0.138574 0 -0.0285102)
(0.140317 0 -0.0279793)
(0.141083 0 -0.027197)
(0.141174 0 -0.0262584)
(0.140815 0 -0.025221)
(0.140144 0 -0.0241201)
(0.139243 0 -0.022986)
(0.13815 0 -0.0218395)
(0.136852 0 -0.0206863)
(0.135313 0 -0.0195335)
(0.133486 0 -0.0183896)
(0.131333 0 -0.0172647)
(0.128783 0 -0.0161571)
(0.125765 0 -0.0150683)
(0.12221 0 -0.013998)
(0.118042 0 -0.0129447)
(0.11319 0 -0.0119051)
(0.107587 0 -0.0108795)
(0.101145 0 -0.00986018)
(0.0937843 0 -0.00884067)
(0.0854177 0 -0.00781254)
(0.0759551 0 -0.00676559)
(0.0653025 0 -0.00568742)
(0.0533636 0 -0.00456382)
(0.0400327 0 -0.00337758)
(0.0251894 0 -0.00210703)
(0.00869195 0 -0.000724622)
(0.144239 0 -0.0306207)
(0.149216 0 -0.0311771)
(0.152307 0 -0.0311141)
(0.153556 0 -0.0305716)
(0.153459 0 -0.0297219)
(0.152519 0 -0.0287024)
(0.151114 0 -0.0275986)
(0.149456 0 -0.0264472)
(0.147654 0 -0.0252663)
(0.145754 0 -0.0240716)
(0.143797 0 -0.0228786)
(0.141744 0 -0.0216872)
(0.139545 0 -0.0205016)
(0.137135 0 -0.0193251)
(0.13447 0 -0.0181659)
(0.131471 0 -0.0170236)
(0.128063 0 -0.0158983)
(0.124166 0 -0.0147893)
(0.119703 0 -0.0136949)
(0.114595 0 -0.0126124)
(0.108765 0 -0.0115393)
(0.102127 0 -0.0104695)
(0.0945962 0 -0.00939601)
(0.0860813 0 -0.00831024)
(0.0764894 0 -0.00720166)
(0.0657231 0 -0.00605754)
(0.0536809 0 -0.00486288)
(0.0402533 0 -0.00359961)
(0.0253217 0 -0.00224565)
(0.00873764 0 -0.000772375)
(0.163121 0 -0.0335226)
(0.166938 0 -0.033711)
(0.167883 0 -0.0331047)
(0.166971 0 -0.0321248)
(0.164989 0 -0.0309823)
(0.16246 0 -0.0297807)
(0.159745 0 -0.0285679)
(0.156994 0 -0.0273522)
(0.154264 0 -0.0261345)
(0.151556 0 -0.0249161)
(0.148885 0 -0.0237041)
(0.1462 0 -0.0224981)
(0.143439 0 -0.0212994)
(0.140535 0 -0.02011)
(0.137421 0 -0.0189336)
(0.134022 0 -0.0177707)
(0.130257 0 -0.0166215)
(0.126045 0 -0.0154852)
(0.121305 0 -0.0143599)
(0.115953 0 -0.0132431)
(0.109908 0 -0.0121314)
(0.103082 0 -0.011019)
(0.0953859 0 -0.00989912)
(0.0867266 0 -0.00876283)
(0.0770083 0 -0.00759943)
(0.0661303 0 -0.00639594)
(0.0539875 0 -0.00513683)
(0.0404674 0 -0.00380337)
(0.0254499 0 -0.00237304)
(0.0087812 0 -0.000816208)
(0.181502 0 -0.0361425)
(0.182909 0 -0.035585)
(0.180994 0 -0.0343079)
(0.177889 0 -0.0329655)
(0.1743 0 -0.031658)
(0.17056 0 -0.0303916)
(0.166877 0 -0.0291571)
(0.163322 0 -0.0279406)
(0.159903 0 -0.0267326)
(0.156599 0 -0.0255287)
(0.15338 0 -0.0243288)
(0.150193 0 -0.0231324)
(0.146971 0 -0.02194)
(0.143648 0 -0.0207532)
(0.140149 0 -0.0195741)
(0.136399 0 -0.0184036)
(0.132316 0 -0.017242)
(0.127819 0 -0.0160887)
(0.122823 0 -0.014942)
(0.117245 0 -0.0137993)
(0.110998 0 -0.012657)
(0.103993 0 -0.0115098)
(0.0961393 0 -0.0103506)
(0.0873417 0 -0.00917059)
(0.0775017 0 -0.007959)
(0.0665163 0 -0.00670262)
(0.0542771 0 -0.00538556)
(0.0406692 0 -0.00398867)
(0.0255703 0 -0.00248898)
(0.00882173 0 -0.000856081)
(0.196531 0 -0.03763)
(0.194798 0 -0.0359769)
(0.190417 0 -0.0343162)
(0.185764 0 -0.0329423)
(0.181181 0 -0.0317107)
(0.176753 0 -0.030537)
(0.172516 0 -0.0293845)
(0.168473 0 -0.0282365)
(0.164606 0 -0.0270854)
(0.160887 0 -0.0259293)
(0.15727 0 -0.0247683)
(0.153699 0 -0.0236026)
(0.150114 0 -0.0224338)
(0.146446 0 -0.0212638)
(0.142625 0 -0.0200948)
(0.138574 0 -0.0189282)
(0.134214 0 -0.0177645)
(0.129462 0 -0.0166035)
(0.124236 0 -0.0154438)
(0.11845 0 -0.0142832)
(0.112016 0 -0.0131179)
(0.104845 0 -0.0119429)
(0.0968438 0 -0.0107512)
(0.0879157 0 -0.00953407)
(0.0779605 0 -0.00828068)
(0.0668734 0 -0.00697773)
(0.0545437 0 -0.00560913)
(0.040854 0 -0.00415545)
(0.0256798 0 -0.00259339)
(0.00885823 0 -0.000891969)
(0.00749973 0 -0.000279813)
(0.021557 0 -0.000806337)
(0.0338902 0 -0.00127464)
(0.0446752 0 -0.00169364)
(0.0540989 0 -0.00207057)
(0.062362 0 -0.00241314)
(0.0696276 0 -0.00272672)
(0.0760358 0 -0.0030151)
(0.0817156 0 -0.00328152)
(0.0867866 0 -0.00352863)
(0.0913608 0 -0.00375884)
(0.0955453 0 -0.00397462)
(0.0994434 0 -0.0041787)
(0.103156 0 -0.00437431)
(0.10678 0 -0.00456522)
(0.110413 0 -0.00475657)
(0.114164 0 -0.00495491)
(0.118135 0 -0.00516957)
(0.122409 0 -0.00541041)
(0.127086 0 -0.00569073)
(0.132259 0 -0.00602684)
(0.138042 0 -0.00643958)
(0.144496 0 -0.00695043)
(0.151656 0 -0.00758503)
(0.159558 0 -0.00837365)
(0.168207 0 -0.00935221)
(0.177414 0 -0.0105502)
(0.186881 0 -0.0120437)
(0.196048 0 -0.014011)
(0.204364 0 -0.0170497)
(0.00758379 0 -0.000297869)
(0.0218081 0 -0.000858823)
(0.0343088 0 -0.00135869)
(0.0452634 0 -0.0018068)
(0.0548677 0 -0.00221232)
(0.0633244 0 -0.00258293)
(0.0707996 0 -0.00292476)
(0.0774353 0 -0.00324225)
(0.0833618 0 -0.0035392)
(0.0887 0 -0.00381892)
(0.0935633 0 -0.00408455)
(0.0980592 0 -0.00433933)
(0.102291 0 -0.00458687)
(0.106359 0 -0.00483132)
(0.11036 0 -0.00507768)
(0.11439 0 -0.00533221)
(0.118557 0 -0.00560353)
(0.122947 0 -0.00590046)
(0.127636 0 -0.00623413)
(0.132712 0 -0.00661921)
(0.138254 0 -0.00707314)
(0.144352 0 -0.00761811)
(0.151015 0 -0.00827124)
(0.158246 0 -0.00905895)
(0.166018 0 -0.0100114)
(0.174222 0 -0.0111612)
(0.182572 0 -0.0125359)
(0.190694 0 -0.0141994)
(0.198113 0 -0.0162747)
(0.204142 0 -0.0189021)
(0.00766847 0 -0.000315889)
(0.0220593 0 -0.000911177)
(0.0347196 0 -0.00144236)
(0.0458501 0 -0.00192031)
(0.0556414 0 -0.00235466)
(0.0642889 0 -0.00275362)
(0.0719722 0 -0.00312427)
(0.0788319 0 -0.00347155)
(0.0849992 0 -0.00379981)
(0.0905957 0 -0.00411299)
(0.0957349 0 -0.00441488)
(0.100524 0 -0.00470944)
(0.105066 0 -0.005001)
(0.109458 0 -0.00529453)
(0.113794 0 -0.00559594)
(0.118167 0 -0.0059124)
(0.122681 0 -0.00625403)
(0.127399 0 -0.00662788)
(0.132389 0 -0.00704605)
(0.137723 0 -0.00752331)
(0.143461 0 -0.00807648)
(0.149646 0 -0.0087247)
(0.156252 0 -0.00948203)
(0.163247 0 -0.010371)
(0.17054 0 -0.0114141)
(0.177961 0 -0.0126335)
(0.185234 0 -0.0140524)
(0.192033 0 -0.0157143)
(0.197894 0 -0.0176512)
(0.20233 0 -0.0199022)
(0.00775208 0 -0.000333643)
(0.0223069 0 -0.000962793)
(0.0351271 0 -0.0015251)
(0.0464229 0 -0.00203264)
(0.0563963 0 -0.00249572)
(0.0652411 0 -0.00292361)
(0.0731286 0 -0.00332336)
(0.0802056 0 -0.0037007)
(0.0866041 0 -0.00406056)
(0.0924454 0 -0.00440742)
(0.0978426 0 -0.00474565)
(0.102901 0 -0.0050798)
(0.107722 0 -0.00541475)
(0.112398 0 -0.00575606)
(0.11702 0 -0.00611016)
(0.121675 0 -0.00648476)
(0.126449 0 -0.00688945)
(0.131392 0 -0.00733109)
(0.136566 0 -0.00782167)
(0.142021 0 -0.00837447)
(0.147789 0 -0.00900384)
(0.153875 0 -0.00972448)
(0.160242 0 -0.0105496)
(0.166819 0 -0.011495)
(0.173488 0 -0.012575)
(0.180069 0 -0.0138036)
(0.186332 0 -0.0151969)
(0.191962 0 -0.0167597)
(0.196618 0 -0.0184867)
(0.200004 0 -0.0204003)
(0.00783247 0 -0.000350871)
(0.0225456 0 -0.00101294)
(0.0355222 0 -0.00160569)
(0.0469802 0 -0.00214225)
(0.0571297 0 -0.00263395)
(0.0661625 0 -0.00309036)
(0.0742469 0 -0.003519)
(0.0815299 0 -0.00392608)
(0.0881453 0 -0.00431716)
(0.0942131 0 -0.00469713)
(0.0998449 0 -0.00507088)
(0.105144 0 -0.00544335)
(0.110207 0 -0.00581981)
(0.115122 0 -0.0062061)
(0.119975 0 -0.00660877)
(0.12484 0 -0.00703533)
(0.129788 0 -0.00749411)
(0.134868 0 -0.00799323)
(0.140123 0 -0.00854291)
(0.145584 0 -0.00915426)
(0.15126 0 -0.00983878)
(0.157134 0 -0.0106075)
(0.163152 0 -0.0114705)
(0.169232 0 -0.0124378)
(0.175247 0 -0.0135175)
(0.181041 0 -0.0147174)
(0.186395 0 -0.0160347)
(0.191067 0 -0.017458)
(0.194847 0 -0.0189817)
(0.197545 0 -0.0205974)
(0.00790806 0 -0.000367393)
(0.022771 0 -0.00106111)
(0.0358974 0 -0.00168326)
(0.0475111 0 -0.00224794)
(0.0578269 0 -0.00276729)
(0.0670352 0 -0.00325126)
(0.0753039 0 -0.00370796)
(0.0827794 0 -0.004144)
(0.0895938 0 -0.0045653)
(0.0958658 0 -0.00497709)
(0.101705 0 -0.00538471)
(0.107212 0 -0.00579336)
(0.112478 0 -0.00620846)
(0.117587 0 -0.00663589)
(0.122614 0 -0.00708205)
(0.127626 0 -0.00755396)
(0.132681 0 -0.00805911)
(0.13782 0 -0.00860522)
(0.143071 0 -0.00920083)
(0.14845 0 -0.00985476)
(0.15395 0 -0.0105756)
(0.159538 0 -0.0113711)
(0.165158 0 -0.0122482)
(0.170724 0 -0.0132129)
(0.176118 0 -0.0142672)
(0.18119 0 -0.0154081)
(0.185769 0 -0.016625)
(0.189696 0 -0.0179082)
(0.192831 0 -0.0192445)
(0.195064 0 -0.020612)
(0.0079773 0 -0.000383012)
(0.0229788 0 -0.00110673)
(0.0362454 0 -0.0017569)
(0.0480054 0 -0.00234846)
(0.0584759 0 -0.00289422)
(0.0678469 0 -0.00340457)
(0.0762847 0 -0.00388803)
(0.0839356 0 -0.00435172)
(0.0909296 0 -0.00480181)
(0.0973833 0 -0.00524385)
(0.103402 0 -0.00568313)
(0.109084 0 -0.00612524)
(0.114514 0 -0.00657548)
(0.11977 0 -0.00703962)
(0.124921 0 -0.00752367)
(0.130024 0 -0.00803399)
(0.135125 0 -0.0085772)
(0.140258 0 -0.00915997)
(0.145441 0 -0.00978914)
(0.150674 0 -0.0104713)
(0.155943 0 -0.0112125)
(0.161208 0 -0.0120173)
(0.166421 0 -0.0128919)
(0.171491 0 -0.0138355)
(0.176302 0 -0.0148434)
(0.180742 0 -0.0159092)
(0.184689 0 -0.0170233)
(0.188034 0 -0.0181736)
(0.190687 0 -0.0193438)
(0.192587 0 -0.0205098)
(0.00803867 0 -0.000397523)
(0.0231645 0 -0.00114921)
(0.0365592 0 -0.00182564)
(0.0484536 0 -0.00244247)
(0.0590659 0 -0.00301311)
(0.0685851 0 -0.00354834)
(0.0771761 0 -0.00405703)
(0.0849835 0 -0.00454661)
(0.0921354 0 -0.0050235)
(0.0987464 0 -0.00549361)
(0.104917 0 -0.00596214)
(0.110741 0 -0.00643451)
(0.116297 0 -0.0069159)
(0.121659 0 -0.00741192)
(0.126887 0 -0.00792793)
(0.132031 0 -0.00846961)
(0.137129 0 -0.00904254)
(0.142205 0 -0.00965218)
(0.147269 0 -0.0103037)
(0.152317 0 -0.0110019)
(0.157325 0 -0.0117502)
(0.162263 0 -0.0125526)
(0.167072 0 -0.0134097)
(0.171665 0 -0.0143158)
(0.175958 0 -0.0152664)
(0.179863 0 -0.0162541)
(0.183295 0 -0.0172687)
(0.186181 0 -0.0182974)
(0.188465 0 -0.0193241)
(0.190116 0 -0.0203271)
(0.00809074 0 -0.000410706)
(0.0233239 0 -0.00118791)
(0.0368323 0 -0.00188847)
(0.0488471 0 -0.00252863)
(0.0595866 0 -0.00312227)
(0.0692384 0 -0.00368054)
(0.0779653 0 -0.00421257)
(0.08591 0 -0.004726)
(0.0931978 0 -0.00522744)
(0.0999399 0 -0.00572278)
(0.106235 0 -0.00621747)
(0.112169 0 -0.0067166)