/*--------------------------------*- C++ -*----------------------------------*\
| =========                 |                                                 |
| \\      /  F ield         | OpenFOAM: The Open Source CFD Toolbox           |
|  \\    /   O peration     | Version:  dev                                   |
|   \\  /    A nd           | Web:      www.OpenFOAM.org                      |
|    \\/     M anipulation  |                                                 |
\*---------------------------------------------------------------------------*/
FoamFile
{
    version     2.0;
    format      ascii;
    class       volScalarField;
    location    "3.61";
    object      p;
}
// * * * * * * * * * * * * * * * * * * * * * * * * * * * * * * * * * * * * * //

dimensions      [0 2 -2 0 0 0 0];

internalField   nonuniform List<scalar> 
2790
(
145.848
145.783
146.084
146.672
147.456
148.415
149.55
150.856
152.328
153.96
155.744
157.673
159.738
161.927
164.223
166.607
169.052
171.526
173.989
176.394
178.687
180.809
182.7
184.304
185.576
186.489
187.048
187.249
187.321
187.459
145.656
145.69
146.016
146.601
147.382
148.339
149.469
150.769
152.234
153.858
155.633
157.552
159.607
161.785
164.071
166.445
168.882
171.351
173.812
176.221
178.524
180.663
182.577
184.21
185.513
186.451
187.013
187.21
187.365
187.576
145.458
145.563
145.908
146.484
147.252
148.195
149.311
150.593
152.037
153.636
155.384
157.273
159.294
161.436
163.682
166.016
168.412
170.841
173.267
175.648
177.935
180.073
182.008
183.684
185.057
186.096
186.804
187.235
187.569
187.905
145.236
145.374
145.731
146.298
147.05
147.978
149.074
150.332
151.748
153.314
155.025
156.871
158.845
160.933
163.123
165.395
167.728
170.094
172.461
174.79
177.038
179.16
181.105
182.829
184.295
185.485
186.412
187.124
187.696
188.23
144.979
145.132
145.498
146.056
146.793
147.699
148.769
149.997
151.377
152.901
154.563
156.355
158.267
160.289
162.406
164.6
166.852
169.135
171.422
173.68
175.873
177.961
179.907
181.675
183.241
184.591
185.737
186.703
187.493
188.206
144.683
144.843
145.211
145.759
146.476
147.356
148.395
149.586
150.921
152.395
153.999
155.727
157.567
159.509
161.539
163.641
165.795
167.979
170.168
172.336
174.451
176.486
178.412
180.204
181.847
183.332
184.659
185.828
186.783
187.624
144.346
144.508
144.873
145.409
146.102
146.953
147.955
149.103
150.387
151.802
153.34
154.993
156.75
158.601
160.531
162.525
164.566
166.634
168.707
170.762
172.777
174.731
176.604
178.383
180.059
181.627
183.078
184.393
185.469
186.416
143.968
144.128
144.487
145.006
145.674
146.49
147.452
148.55
149.777
151.127
152.59
154.158
155.822
157.569
159.387
161.26
163.172
165.105
167.041
168.96
170.845
172.682
174.459
176.172
177.819
179.399
180.902
182.304
183.467
184.527
143.55
143.707
144.055
144.555
145.193
145.972
146.888
147.932
149.096
150.373
151.753
153.229
154.789
156.422
158.115
159.853
161.62
163.399
165.174
166.928
168.648
170.323
171.949
173.526
175.061
176.563
178.028
179.444
180.653
181.844
143.092
143.244
143.58
144.057
144.663
145.401
146.267
147.252
148.347
149.545
150.836
152.211
153.659
155.167
156.723
158.311
159.916
161.521
163.11
164.668
166.181
167.642
169.048
170.403
171.722
173.023
174.323
175.64
176.825
178.157
142.596
142.742
143.063
143.515
144.087
144.781
145.593
146.515
147.536
148.649
149.844
151.111
152.438
153.813
155.221
156.646
158.072
159.483
160.859
162.186
163.448
164.635
165.741
166.77
167.737
168.671
169.615
170.642
171.655
173.109
142.064
142.203
142.508
142.933
143.468
144.115
144.87
145.724
146.668
147.691
148.785
149.937
151.136
152.368
153.618
154.868
156.101
157.297
158.436
159.498
160.462
161.312
162.031
162.612
163.06
163.402
163.695
164.091
164.601
166.05
141.497
141.629
141.916
142.312
142.808
143.406
144.101
144.885
145.747
146.677
147.664
148.697
149.762
150.845
151.927
152.991
154.017
154.981
155.86
156.626
157.25
157.701
157.946
157.951
157.688
157.146
156.355
155.503
154.757
155.701
140.899
141.023
141.291
141.657
142.111
142.658
143.292
144.003
144.78
145.613
146.491
147.4
148.326
149.253
150.162
151.032
151.84
152.559
153.159
153.604
153.852
153.854
153.548
152.859
151.693
149.939
147.481
144.344
140.622
139.193
140.271
140.387
140.635
140.97
141.382
141.875
142.445
143.081
143.772
144.506
145.271
146.054
146.838
147.605
148.336
149.007
149.59
150.055
150.364
150.472
150.323
149.845
148.941
147.48
145.27
142.028
137.3
130.438
120.069
108.325
0.719288
0.675506
0.571188
0.424549
0.267086
0.121324
-0.00261405
-0.102594
-0.180491
-0.24028
-0.286681
-0.323585
-0.353778
-0.379165
-0.400828
-0.419039
-0.433374
-0.442929
-0.446581
-0.443323
-0.432607
-0.414353
-0.388469
-0.354655
-0.312463
-0.261604
-0.203153
-0.140028
-0.0765079
-0.0169143
0.671751
0.620478
0.517337
0.376205
0.226292
0.0881662
-0.0290619
-0.123347
-0.196094
-0.251372
-0.294338
-0.328786
-0.357276
-0.381589
-0.402727
-0.420854
-0.435393
-0.445247
-0.449084
-0.445793
-0.434903
-0.416495
-0.390663
-0.357018
-0.314807
-0.263513
-0.204239
-0.140158
-0.076089
-0.0180965
0.608483
0.547375
0.446213
0.311554
0.170985
0.0426448
-0.0656993
-0.152387
-0.218905
-0.268966
-0.307379
-0.338086
-0.363692
-0.386041
-0.40619
-0.42425
-0.439404
-0.450127
-0.454533
-0.451165
-0.439706
-0.420768
-0.39496
-0.361889
-0.320054
-0.268309
-0.208135
-0.143134
-0.0781932
-0.0206195
0.54763
0.477002
0.377484
0.248444
0.11652
-0.00275123
-0.102935
-0.182589
-0.243033
-0.288346
-0.322753
-0.349871
-0.372732
-0.393328
-0.412683
-0.430731
-0.446383
-0.457884
-0.463099
-0.460408
-0.449528
-0.431173
-0.405867
-0.372934
-0.330796
-0.278624
-0.217354
-0.150444
-0.0838069
-0.0251477
0.513125
0.435203
0.336814
0.212083
0.0862257
-0.0273836
-0.123316
-0.200133
-0.258039
-0.300922
-0.333932
-0.359908
-0.382091
-0.402525
-0.422441
-0.441656
-0.458472
-0.470893
-0.476902
-0.475145
-0.465422
-0.448213
-0.423636
-0.39069
-0.347839
-0.29473
-0.232085
-0.163125
-0.0944117
-0.0313447
0.530388
0.446983
0.348085
0.224784
0.100423
-0.0138567
-0.111492
-0.190472
-0.25443
-0.303762
-0.339214
-0.367436
-0.391777
-0.414211
-0.435795
-0.45633
-0.474416
-0.488208
-0.495878
-0.496149
-0.488555
-0.473057
-0.449278
-0.416014
-0.371916
-0.316918
-0.252589
-0.182034
-0.110406
-0.0383736
0.620686
0.529997
0.424946
0.294288
0.161548
0.0376446
-0.0703698
-0.161768
-0.236703
-0.294464
-0.338043
-0.372557
-0.401683
-0.427794
-0.452172
-0.474926
-0.495108
-0.511173
-0.521434
-0.524511
-0.519529
-0.505882
-0.482745
-0.448818
-0.40292
-0.345369
-0.278741
-0.206677
-0.130918
-0.0461276
0.787705
0.681577
0.557556
0.407158
0.254285
0.11111
-0.0159576
-0.124437
-0.212607
-0.281461
-0.334958
-0.377549
-0.413011
-0.444061
-0.472306
-0.498242
-0.521365
-0.540459
-0.553962
-0.560324
-0.558221
-0.546482
-0.523857
-0.488942
-0.440754
-0.380075
-0.310506
-0.236468
-0.155058
-0.054617
1.00867
0.875325
0.717418
0.535343
0.354205
0.185864
0.0369721
-0.0882782
-0.190033
-0.270736
-0.334349
-0.385333
-0.427638
-0.464229
-0.496988
-0.526762
-0.553454
-0.576169
-0.593432
-0.603479
-0.604509
-0.594792
-0.57264
-0.536472
-0.485457
-0.421044
-0.348038
-0.270756
-0.181884
-0.0638378
1.24441
1.07468
0.873953
0.655387
0.440785
0.246522
0.0783715
-0.0623444
-0.17671
-0.267861
-0.340236
-0.398667
-0.447378
-0.489472
-0.526944
-0.560871
-0.591505
-0.618255
-0.639713
-0.653862
-0.658384
-0.650949
-0.629375
-0.591798
-0.537446
-0.468486
-0.391059
-0.309344
-0.210971
-0.0733507
1.46286
1.25945
1.00645
0.744927
0.498977
0.281052
0.096355
-0.0561826
-0.179553
-0.2778
-0.356066
-0.419861
-0.473769
-0.520837
-0.562867
-0.60095
-0.635637
-0.666676
-0.692744
-0.711516
-0.720064
-0.71534
-0.694543
-0.655406
-0.597133
-0.522597
-0.439283
-0.351289
-0.241718
-0.0836277
1.6759
1.40058
1.08841
0.780299
0.504725
0.27113
0.0787946
-0.0780175
-0.20439
-0.304657
-0.384518
-0.450561
-0.507887
-0.559123
-0.605339
-0.647311
-0.685882
-0.721304
-0.752428
-0.776556
-0.789961
-0.788655
-0.76901
-0.728215
-0.665379
-0.584038
-0.492957
-0.396265
-0.273441
-0.0942811
1.83743
1.43359
1.05487
0.717573
0.431353
0.199712
0.0156439
-0.133872
-0.255516
-0.35151
-0.427314
-0.491495
-0.550166
-0.604875
-0.654978
-0.700388
-0.742364
-0.782089
-0.818811
-0.849345
-0.86883
-0.87194
-0.853911
-0.811229
-0.74286
-0.652966
-0.551574
-0.443234
-0.30513
-0.105027
1.78889
1.21941
0.820446
0.512995
0.254193
0.0526762
-0.0985041
-0.225225
-0.334693
-0.420179
-0.484837
-0.541855
-0.599914
-0.658116
-0.712246
-0.76046
-0.804842
-0.848464
-0.891436
-0.929854
-0.957149
-0.966054
-0.950252
-0.905381
-0.830278
-0.729663
-0.614843
-0.4915
-0.336168
-0.115604
1.32371
0.496739
0.236948
0.132062
-0.0335166
-0.174033
-0.260056
-0.345203
-0.440575
-0.511896
-0.556041
-0.598389
-0.65463
-0.718094
-0.77742
-0.827602
-0.872559
-0.919217
-0.969332
-1.01778
-1.05533
-1.07189
-1.05906
-1.01153
-0.928183
-0.814263
-0.682372
-0.540401
-0.366176
-0.125759
139.604
139.712
139.939
140.24
140.608
141.046
141.55
142.109
142.71
143.341
143.99
144.642
145.279
145.883
146.431
146.896
147.248
147.452
147.462
147.223
146.665
145.693
144.176
141.924
138.64
133.834
126.592
115.031
92.9145
32.5382
138.89
138.988
139.193
139.46
139.781
140.162
140.598
141.075
141.583
142.109
142.638
143.155
143.641
144.076
144.436
144.691
144.807
144.745
144.453
143.867
142.905
141.455
139.36
136.391
132.195
126.189
117.334
103.904
84.4986
56.4043
138.134
138.223
138.405
138.635
138.909
139.231
139.595
139.99
140.403
140.82
141.227
141.606
141.94
142.205
142.375
142.42
142.302
141.978
141.391
140.474
139.136
137.257
134.675
131.162
126.395
119.92
111.146
99.4584
85.4334
69.105
137.338
137.416
137.575
137.768
137.993
138.255
138.547
138.858
139.174
139.481
139.764
140.007
140.187
140.283
140.266
140.105
139.76
139.184
138.322
137.101
135.432
133.197
130.248
126.388
121.372
114.911
106.708
96.4399
84.0317
68.9986
136.503
136.571
136.705
136.861
137.036
137.237
137.456
137.682
137.901
138.099
138.259
138.365
138.395
138.325
138.127
137.767
137.207
136.399
135.286
133.8
131.855
129.346
126.145
122.097
117.022
110.723
102.996
93.5997
82.3536
69.4653
135.631
135.689
135.799
135.917
136.042
136.181
136.327
136.469
136.591
136.68
136.72
136.692
136.576
136.346
135.975
135.429
134.669
133.651
132.319
130.611
128.448
125.742
122.388
118.268
113.25
107.202
99.9988
91.5414
81.819
71.2504
134.725
134.773
134.858
134.938
135.013
135.091
135.165
135.223
135.25
135.233
135.155
134.998
134.741
134.36
133.827
133.109
132.171
130.968
129.451
127.564
125.241
122.407
118.982
114.878
110.009
104.296
97.6846
90.1632
81.7754
72.8564
133.789
133.826
133.887
133.929
133.955
133.972
133.976
133.951
133.886
133.766
133.575
133.295
132.905
132.383
131.7
130.828
129.732
128.372
126.705
124.682
122.248
119.347
115.917
111.898
107.239
101.9
95.8653
89.1562
81.8218
74.1329
132.825
132.852
132.889
132.894
132.871
132.83
132.764
132.66
132.505
132.287
131.988
131.592
131.079
130.427
129.611
128.602
127.371
125.882
124.097
121.977
119.479
116.558
113.173
109.286
104.868
99.9038
94.4001
88.3905
81.9287
75.241
131.837
131.855
131.868
131.837
131.767
131.669
131.536
131.356
131.116
130.804
130.405
129.901
129.275
128.506
127.572
126.446
125.102
123.51
121.639
119.457
116.931
114.03
110.726
106.997
102.832
98.2296
93.209
87.8091
82.0833
76.215
130.831
130.839
130.829
130.764
130.649
130.495
130.298
130.046
129.727
129.327
128.834
128.232
127.505
126.632
125.595
124.37
122.935
121.265
119.335
117.121
114.598
111.745
108.546
104.991
101.078
96.8167
92.2312
87.3604
82.2528
77.055
129.811
129.809
129.778
129.679
129.521
129.315
129.058
128.738
128.344
127.864
127.286
126.595
125.777
124.815
123.69
122.384
120.879
119.153
117.188
114.966
112.469
109.685
106.606
103.23
99.561
95.6152
91.4172
87.0035
82.4162
77.7729
128.781
128.771
128.719
128.588
128.389
128.135
127.822
127.439
126.976
126.423
125.768
124.998
124.101
123.062
121.865
120.496
118.938
117.176
115.196
112.985
110.532
107.831
104.879
101.68
98.243
94.5847
90.73
86.7111
82.5641
78.3839
127.749
127.73
127.658
127.498
127.261
126.962
126.597
126.156
125.631
125.011
124.288
123.45
122.485
121.382
120.127
118.709
117.115
115.333
113.354
111.17
108.773
106.163
103.341
100.314
97.0919
93.6937
90.1417
86.4642
82.6918
78.9009
126.719
126.692
126.603
126.415
126.143
125.802
125.389
124.897
124.315
123.637
122.854
121.957
120.935
119.78
118.48
117.027
115.41
113.623
111.658
109.511
107.179
104.664
101.97
99.1048
96.0817
92.917
89.6316
86.2497
82.7971
79.3357
125.698
125.664
125.558
125.345
125.041
124.662
124.207
123.667
123.036
122.307
121.472
120.525
119.457
118.26
116.927
115.451
113.824
112.042
110.101
107.999
105.736
103.316
100.746
98.0329
95.1909
92.2352
89.184
86.0584
82.8799
79.699
124.693
124.652
124.531
124.295
123.963
123.55
123.056
122.475
121.801
121.027
120.149
119.161
118.055
116.827
115.471
113.981
112.353
110.585
108.675
106.623
104.432
102.106
99.6519
97.0802
94.4024
91.6327
88.7873
85.8842
82.9413
80.0001
123.711
123.664
123.528
123.273
122.914
122.471
121.944
121.327
120.615
119.804
118.89
117.868
116.734
115.483
114.112
112.617
110.996
109.248
107.374
105.375
103.254
101.019
98.6746
96.232
93.7021
91.0976
88.4328
85.7229
82.9831
80.2477
122.758
122.706
122.558
122.284
121.903
121.433
120.877
120.229
119.486
118.644
117.7
116.652
115.496
114.23
112.851
111.358
109.75
108.027
106.191
104.246
102.194
100.044
97.8015
95.4764
93.079
90.6207
88.1141
85.5721
83.0077
80.4491
121.842
121.785
121.626
121.336
120.935
120.443
119.862
119.188
118.418
117.551
116.584
115.516
114.345
113.07
111.689
110.203
108.611
106.916
105.12
103.228
101.243
99.1718
97.0225
94.8036
92.5243
90.1951
87.8267
85.4306
83.0176
80.6112
120.971
120.909
120.741
120.437
120.019
119.508
118.905
118.209
117.418
116.53
115.546
114.464
113.283
112.003
110.625
109.15
107.578
105.912
104.156
102.314
100.392
98.3942
96.3296
94.2057
92.0312
89.8153
87.5676
85.2978
83.0155
80.74
120.152
120.087
119.909
119.594
119.162
118.634
118.014
117.3
116.492
115.588
114.59
113.498
112.312
111.032
109.66
108.198
106.647
105.011
103.294
101.5
99.6352
97.7048
95.7162
93.6768
91.5946
89.4778
87.3348
85.1743
83.0044
80.8414
119.393
119.325
119.14
118.815
118.37
117.828
117.194
116.466
115.644
114.728
113.721
112.623
111.434
110.157
108.794
107.346
105.817
104.211
102.53
100.781
98.9683
97.0981
95.1771
93.2121
91.2105
89.1796
87.1271
85.0604
82.9868
80.9197
118.703
118.631
118.44
118.106
117.651
117.098
116.452
115.713
114.88
113.956
112.942
111.841
110.653
109.381
108.028
106.595
105.087
103.508
101.862
100.153
98.3876
96.5708
94.7091
92.8089
90.877
88.9201
86.9449
84.9582
82.9664
80.9808
118.09
118.016
117.818
117.476
117.012
116.45
115.795
115.047
114.206
113.276
112.258
111.156
109.97
108.704
107.361
105.944
104.456
102.902
101.286
99.6138
97.8894
96.119
94.3084
92.4637
90.5911
88.6968
86.7868
84.8673
82.9441
81.0264
117.564
117.486
117.282
116.932
116.461
115.892
115.229
114.475
113.629
112.695
111.675
110.573
109.39
108.131
106.798
105.395
103.926
102.394
100.805
99.1639
97.475
95.7439
93.9765
92.1784
90.3553
88.513
86.6572
84.7933
82.9268
81.0655
117.133
117.051
116.84
116.482
116.005
115.429
114.76
114
113.151
112.214
111.194
110.093
108.914
107.661
106.337
104.947
103.493
101.981
100.415
98.799
97.1392
95.4404
93.708
91.9474
90.1641
88.3634
86.5506
84.7308
82.909
81.0914
116.811
116.721
116.5
116.137
115.655
115.074
114.402
113.638
112.786
111.847
110.827
109.727
108.552
107.305
105.989
104.609
103.168
101.671
100.123
98.5283
96.8915
95.218
93.5129
91.7816
90.0292
88.2608
86.4814
84.6959
82.9091
81.1264
116.615
116.498
116.259
115.889
115.405
114.822
114.147
113.381
112.528
111.589
110.57
109.472
108.3
107.058
105.748
104.375
102.944
101.458
99.9222
98.3414
96.7202
95.0637
93.3769
91.6651
89.9331
88.186
86.4284
84.665
82.9003
81.1388
116.587
116.417
116.152
115.775
115.286
114.7
114.022
113.254
112.4
111.461
110.443
109.347
108.177
106.938
105.633
104.266
102.841
101.362
99.8351
98.2637
96.6527
95.0072
93.3322
91.6326
89.9134
88.1793
86.435
84.6851
82.9338
81.1851
-52.2099
-32.4527
-12.212
37.4211
31.335
20.6857
51.8496
40.0643
29.1594
52.6733
42.3046
34.3117
56.9353
48.7357
42.0389
61.2475
54.4209
48.5836
64.4098
58.5984
53.5977
66.9089
61.9481
57.6846
69.0145
64.7402
61.0724
70.7856
67.0582
63.8665
72.2689
68.9836
66.1767
73.5142
70.5912
68.0979
74.5619
71.9386
69.7035
75.4439
73.0709
71.0505
76.1863
74.0242
72.1842
76.8108
74.8278
73.1403
77.335
75.5051
73.9475
77.774
76.0755
74.629
78.1401
76.5548
75.2036
78.4443
76.9566
75.6872
78.6955
77.292
76.093
78.9022
77.5712
76.4324
79.0706
77.8018
76.7145
79.2086
77.9926
76.9489
79.3183
78.1466
77.1396
79.4112
78.2761
77.2988
79.4784
78.3726
77.4196
79.5477
78.4641
77.5282
79.5802
78.5125
77.5904
79.6475
78.5935
77.6778
-1.01018
-1.74783
-1.05374
-0.321272
-0.353541
-0.488906
-0.4769
-0.479258
-0.569512
-0.628356
-0.638099
-0.653388
-0.709468
-0.784205
-0.852075
-0.903034
-0.945185
-0.993275
-1.05204
-1.11393
-1.16546
-1.19243
-1.18362
-1.1328
-1.03929
-0.908961
-0.755549
-0.590523
-0.395625
-0.135402
4.91313
-0.284127
0.125714
0.0657069
-0.862038
-1.18632
-0.763152
-0.506077
-0.678713
-0.776463
-0.739273
-0.697256
-0.759799
-0.857987
-0.939305
-0.987863
-1.02052
-1.06718
-1.13763
-1.21875
-1.29008
-1.33149
-1.32805
-1.27282
-1.16655
-1.01612
-0.835649
-0.641384
-0.423476
-0.144333
14.3184
5.09093
2.06408
0.0956112
-0.80181
-0.69297
-0.109285
-0.30883
-0.992389
-1.16086
-0.898106
-0.664858
-0.766543
-0.924255
-1.03561
-1.08269
-1.09608
-1.13619
-1.22353
-1.33189
-1.43022
-1.49078
-1.49389
-1.43233
-1.31003
-1.13589
-0.922688
-0.690965
-0.446627
-0.151881
23.4499
13.5114
7.65006
3.8154
1.56911
0.474078
-0.0274905
-0.569875
-0.938728
-0.943277
-0.515138
-0.445794
-0.820966
-1.09582
-1.22068
-1.2219
-1.1639
-1.17922
-1.29521
-1.44506
-1.58235
-1.67032
-1.68261
-1.61222
-1.46987
-1.26922
-1.01887
-0.7391
-0.461696
-0.157053
32.6691
22.9218
15.5105
10.0367
6.18906
3.60241
1.89624
0.718221
-0.0332266
-0.418316
-0.469966
-0.617963
-0.820247
-1.01929
-1.14628
-1.14886
-1.11364
-1.19993
-1.39341
-1.59891
-1.77678
-1.88839
-1.90102
-1.81086
-1.64098
-1.41281
-1.12536
-0.787422
-0.463791
-0.158272
40.5875
31.6996
23.7529
17.2157
12.182
8.43195
5.68281
3.66308
2.19176
1.17195
0.516003
0.0225499
-0.379643
-0.727852
-0.980814
-1.11219
-1.18152
-1.28167
-1.44823
-1.66508
-1.87945
-2.02565
-2.05568
-1.96661
-1.79042
-1.55685
-1.24694
-0.849368
-0.449505
-0.152949
46.9768
39.2368
31.4667
24.5357
18.842
14.2932
10.6893
7.84662
5.62731
3.93534
2.67268
1.69975
0.910038
0.261119
-0.239037
-0.594364
-0.853733
-1.08773
-1.34253
-1.621
-1.88127
-2.06688
-2.13551
-2.07961
-1.92092
-1.67775
-1.3321
-0.885953
-0.404555
-0.164682
52.1707
45.5078
38.2889
31.4578
25.5467
20.5564
16.3664
12.878
10.0115
7.69081
5.83017
4.3251
3.08635
2.06566
1.24253
0.593611
0.0739874
-0.374306
-0.793841
-1.19146
-1.53976
-1.79788
-1.93351
-1.93833
-1.82551
-1.60742
-1.28112
-0.865127
-0.435695
-0.335928
56.3949
50.6353
44.1003
37.6498
31.8349
26.7123
22.2194
18.3157
14.9687
12.1332
9.74951
7.74643
6.05767
4.63515
3.44577
2.45827
1.63238
0.921939
0.291193
-0.271083
-0.751443
-1.12398
-1.36635
-1.47166
-1.44818
-1.3076
-1.06097
-0.744846
-0.461905
-0.549523
59.8285
54.8047
48.9509
42.9998
37.4657
32.4298
27.8625
23.7566
20.1121
16.9135
14.128
11.7124
9.62126
7.81489
6.26069
4.92784
3.78205
2.787
1.91319
1.14679
0.49128
-0.0393831
-0.431696
-0.681509
-0.795817
-0.788728
-0.682813
-0.52849
-0.433943
-0.679787
62.6396
58.2122
52.9751
47.5417
42.3709
37.5485
33.0608
28.9167
25.1351
21.7212
18.664
15.9412
13.5258
11.3901
9.50839
7.85504
6.40265
5.12332
3.9934
2.99897
2.1376
1.41475
0.836724
0.4041
0.108755
-0.0663213
-0.150388
-0.197804
-0.303331
-0.682603
64.962
61.0209
56.3181
51.3701
46.5803
42.0295
37.7101
33.637
29.8375
26.329
23.1148
20.1877
17.5351
15.1411
12.9884
11.0584
9.33121
7.78629
6.40563
5.17685
4.0947
3.15922
2.3714
1.72847
1.2207
0.829498
0.524047
0.254003
-0.0552094
-0.56242
66.8951
63.3546
59.1072
54.5935
50.1684
45.9044
41.7952
37.8559
34.1164
30.5997
27.3176
24.273
21.4631
18.8816
16.5191
14.3641
12.4036
10.6236
9.01104
7.55605
6.25258
5.09773
4.0891
3.22152
2.48425
1.85877
1.31626
0.814232
0.29761
-0.346114
68.5132
65.3064
61.446
57.313
53.2217
49.2363
45.3495
41.5744
37.9399
34.471
31.1837
28.0869
25.1844
22.4767
19.9608
17.6313
15.4808
13.5008
11.6828
10.0193
8.50486
7.13538
5.90669
4.81232
3.84136
2.97659
2.19293
1.45642
0.727771
-0.0690373
69.8738
66.9473
63.4163
59.6143
55.822
52.0959
48.4272
44.8262
41.3192
37.931
34.6792
31.5759
28.629
25.8435
23.221
20.7609
18.4603
16.3151
14.3202
12.4708
10.7624
9.19093
7.75154
6.43744
5.23823
4.13859
3.11751
2.14851
1.20355
0.234322
71.0212
68.3319
65.0822
61.5673
58.0398
54.5497
51.0867
47.658
44.2869
40.9966
37.8049
34.7252
31.7679
28.9405
26.248
23.6932
21.2766
18.9972
16.853
14.8414
12.9591
11.2025
9.56693
8.04597
6.63005
5.30587
4.05601
2.85967
1.69598
0.536496
71.9906
69.5028
66.4944
63.2285
59.9341
56.6561
53.3827
50.1182
46.8828
43.6976
40.5797
37.5426
34.5978
31.7545
29.0196
26.3982
23.8933
21.5065
19.2378
17.0865
15.0507
13.1275
11.3128
9.60082
7.98298
6.44779
4.98064
3.56456
2.18261
0.819647
72.8101
70.4941
67.693
64.6431
61.5535
58.4645
55.3633
52.2518
49.147
46.0679
43.0301
40.047
37.1299
34.2888
31.5319
28.8657
26.295
23.8229
21.4514
19.181
17.0111
14.9398
12.9635
11.0773
9.2736
7.54237
5.87097
4.24475
2.64846
1.07512
73.5027
71.3335
68.7108
65.8482
62.9378
60.0162
57.0701
54.0989
51.1169
48.1408
45.1849
42.2614
39.3815
36.5552
33.7912
31.0969
28.4782
25.9393
23.4834
21.1123
18.8263
16.6244
14.5038
12.4601
10.4869
8.57503
6.71328
4.8882
3.08492
1.30096
74.0871
72.0434
69.5743
66.8741
64.1201
61.3463
58.5384
55.6943
52.8257
49.9472
47.0715
44.2097
41.3724
38.5692
35.8089
33.0991
30.4465
27.856
25.3316
22.8759
20.4901
18.174
15.9254
13.7405
11.6137
9.53677
7.49909
5.4879
3.48803
1.49915
74.5791
72.6426
70.3056
67.7458
65.128
62.4836
59.7982
57.068
54.3027
51.5148
48.7155
45.9148
43.1223
40.3472
37.598
34.8823
32.2068
29.5771
26.9976
24.4715
22.0007
19.5854
17.2241
14.9137
12.6489
10.4221
8.22328
6.03987
3.85626
1.67286
74.992
73.1469
70.9232
68.4845
65.9847
63.453
60.8751
58.246
55.5734
52.8682
50.1401
47.3979
44.6504
41.9059
39.1725
36.4576
33.7679
31.109
28.4857
25.9016
23.3588
20.8581
18.3985
15.9773
13.5895
11.2281
8.88323
6.54244
4.18972
1.82541
75.3367
73.569
71.442
69.1071
66.7088
64.2746
61.7903
59.2499
56.6595
54.0285
51.3653
48.6777
45.9734
43.26
40.5451
37.8356
35.1381
32.4581
29.8004
27.1688
24.5657
21.9922
19.4476
16.9296
14.4334
11.9523
9.47662
6.99394
4.48802
1.95855
75.6235
73.9211
71.8761
69.6293
67.3175
64.9668
62.563
60.0993
57.5807
55.0151
52.4099
49.7719
47.1078
44.4246
41.7292
39.028
36.3272
33.6322
30.9479
28.278
25.6249
22.99
20.3729
17.7714
15.1809
12.5948
10.0037
7.39509
4.75262
2.07475
75.8584
74.2103
72.2337
70.0609
67.8218
65.5414
63.2058
60.8075
58.3504
55.8413
53.2867
50.6925
48.0647
45.4094
42.7329
40.0413
37.3404
34.6353
31.9306
29.23
26.5361
23.8502
21.1721
18.4996
15.8284
13.1518
10.4607
7.7425
4.98081
2.1727
76.0527
74.4488
72.5286
70.4166
68.2373
66.015
63.7358
61.392
58.9863
56.5248
54.0131
51.4564
48.8601
46.2296
43.5707
40.8889
38.1896
35.4778
32.7579
30.0333
27.3066
24.5791
21.8508
19.1194
16.3807
13.6281
10.8523
8.04093
5.1775
2.25678
76.2031
74.6342
72.7585
70.6949
68.5631
66.3871
64.153
61.8527
59.4884
57.0654
54.5886
52.0627
49.4923
46.8827
44.2388
41.5659
38.8691
36.153
33.4218
30.6789
27.9266
25.1664
22.3979
19.6192
16.8261
14.0118
11.167
8.27942
5.33269
2.31988
76.3309
74.7879
72.9461
70.9191
68.8234
66.6823
64.4824
62.2153
59.8825
57.4888
55.0388
52.5365
49.9864
47.393
44.7611
42.0955
39.4011
36.6822
33.9429
31.1863
28.4149
25.6298
22.8308
20.016
17.181
14.3191
11.4208
8.47365
5.46129
2.3735
76.4101
74.8833
73.0638
71.0618
68.9903
66.8727
64.6956
62.4508
60.1392
57.7653
55.3333
52.8471
50.3107
47.7283
45.1046
42.4442
39.7517
37.0312
34.2866
31.5211
28.737
25.9353
23.1158
20.2766
17.4133
14.5188
11.5837
8.59524
5.53704
2.39762
76.497
74.9714
73.1639
71.1768
69.119
67.0138
64.8488
62.6156
60.315
57.9511
55.5281
53.0497
50.5198
47.9425
45.3222
42.6635
39.9708
37.2483
34.4998
31.7284
28.9364
26.1248
23.2933
20.4401
17.5607
14.6479
11.6921
8.67951
5.59153
2.40614
)
;

boundaryField
{
    inlet
    {
        type            zeroGradient;
    }
    outlet
    {
        type            fixedValue;
        value           uniform 0;
    }
    flap
    {
        type            zeroGradient;
    }
    upperWall
    {
        type            zeroGradient;
    }
    lowerWall
    {
        type            zeroGradient;
    }
    frontAndBack
    {
        type            empty;
    }
}


// ************************************************************************* //
