/*--------------------------------*- C++ -*----------------------------------*\
| =========                 |                                                 |
| \\      /  F ield         | OpenFOAM: The Open Source CFD Toolbox           |
|  \\    /   O peration     | Version:  dev                                   |
|   \\  /    A nd           | Web:      www.OpenFOAM.org                      |
|    \\/     M anipulation  |                                                 |
\*---------------------------------------------------------------------------*/
FoamFile
{
    version     2.0;
    format      ascii;
    class       volScalarField;
    location    "4.94";
    object      p;
}
// * * * * * * * * * * * * * * * * * * * * * * * * * * * * * * * * * * * * * //

dimensions      [0 2 -2 0 0 0 0];

internalField   nonuniform List<scalar> 
465
(
136.778
138.973
141.065
142.998
144.71
146.14
147.229
147.929
148.227
136.581
138.777
140.878
142.827
144.564
146.027
147.156
147.896
148.41
135.907
138.046
140.096
142.009
143.731
145.211
146.413
147.312
148.087
134.902
136.932
138.876
140.689
142.325
143.739
144.895
145.726
146.2
133.613
135.492
137.277
138.924
140.385
141.605
142.512
142.982
142.563
132.072
133.76
135.333
136.745
137.935
138.823
139.279
139.204
137.489
130.301
131.759
133.072
134.182
135.011
135.451
135.298
134.603
131.411
128.316
129.511
130.518
131.266
131.658
131.565
130.69
129.372
124.697
126.134
127.032
127.693
128.03
127.923
127.233
125.559
123.635
117.573
123.772
124.345
124.624
124.505
123.846
122.51
119.968
117.427
110.088
121.251
121.475
121.339
120.724
119.463
117.424
113.941
110.696
102.086
118.597
118.449
117.87
116.722
114.805
111.99
107.457
103.286
93.1678
115.836
115.301
114.258
112.543
109.917
106.22
100.479
94.9543
82.6129
113.004
112.075
110.556
108.254
104.874
100.181
93.0203
85.4258
69.2043
110.142
108.824
106.838
103.954
99.8173
94.0703
85.3381
74.7708
50.8132
1.89147
1.89389
1.85982
1.80236
1.75752
1.75003
1.78545
1.85595
1.94792
2.04767
1.85407
1.84778
1.80564
1.75128
1.71475
1.71623
1.7599
1.83741
1.93494
2.03894
1.78934
1.77605
1.72222
1.67128
1.64644
1.66193
1.71926
1.80861
1.91566
2.02706
1.69527
1.6799
1.6124
1.56599
1.55602
1.59035
1.66643
1.77205
1.89225
2.014
1.57013
1.56101
1.47949
1.44104
1.45087
1.5092
1.6088
1.73452
1.87069
2.00494
1.41311
1.42041
1.32632
1.30227
1.33819
1.42614
1.5533
1.70174
1.85562
2.00367
1.22466
1.25845
1.15653
1.15619
1.22587
1.34868
1.50622
1.67863
1.85084
2.01308
1.00555
1.07409
0.975684
1.01089
1.12208
1.28345
1.47237
1.66856
1.85858
2.03452
0.753834
0.868601
0.792842
0.875793
1.03387
1.23508
1.45417
1.67264
1.87922
2.06805
0.469883
0.65103
0.619262
0.758088
0.963259
1.20324
1.451
1.69019
1.9121
2.11297
0.171654
0.434849
0.458224
0.653455
0.907037
1.18547
1.46109
1.71983
1.95596
2.16799
-0.103302
0.204099
0.297495
0.551139
0.858908
1.17939
1.48309
1.76027
2.0094
2.23138
-0.374638
-0.0972992
0.105617
0.436633
0.812791
1.18476
1.51717
1.81079
2.07104
2.30089
-0.902562
-0.532525
-0.14445
0.287731
0.761669
1.21185
1.56954
1.87083
2.13899
2.37447
-2.11655
-0.972084
-0.443581
0.0357873
0.699891
1.32445
1.65732
1.9264
2.2123
2.45709
107.237
105.545
103.115
99.6926
94.8758
88.1829
78.0628
64.1678
22.8694
104.315
102.285
99.4746
95.6292
90.3614
83.203
72.8702
60.0568
46.4585
101.444
99.1361
96.0498
91.9673
86.6029
79.7308
70.9531
61.3776
54.451
98.6779
96.17
92.9287
88.7985
83.614
77.3101
69.7794
61.1144
52.252
93.4333
90.1444
86.0943
81.1893
75.3889
68.6247
60.8063
52.6759
83.7845
79.1879
73.8747
67.8497
61.1494
54.3279
72.7136
67.3748
61.5829
55.6662
61.9539
56.7647
-81.2592
-52.5497
-22.82
33.0094
28.0552
21.6682
42.1268
31.9019
24.2779
40.3791
32.9779
27.9767
44.2514
38.7361
34.4041
47.6708
43.0675
39.2043
49.9916
46.0784
42.7689
51.8931
48.5525
45.7215
50.6321
48.1775
-0.0899527
-0.640978
-1.28565
-0.620609
0.827599
1.74736
1.72062
1.89762
2.32428
9.43301
-0.0305598
-0.301611
1.65142
3.03342
2.41466
1.27817
1.79556
2.67784
14.7171
6.63346
4.39108
3.93063
2.99528
1.82198
2.08334
3.4968
3.60008
21.4584
14.5993
10.4672
7.8601
5.8473
4.48204
4.03392
3.76294
2.79322
28.5433
22.1003
16.9405
13.0759
10.2087
8.10402
6.62024
5.48766
4.57224
34.1617
28.4312
23.0727
18.5894
15.0521
12.2745
10.1193
8.48229
7.26342
38.5804
33.6493
28.5316
23.8889
20.0088
16.8174
14.2095
12.1079
10.431
42.189
37.9309
33.2223
28.7088
24.7603
21.3758
18.482
16.0311
13.9849
45.1356
41.4192
37.1604
32.9232
29.0806
25.6698
22.6478
19.9935
17.697
44.2706
40.4395
36.5294
32.8845
29.5588
26.5289
23.7897
21.3463
36.1772
32.9974
30.0359
27.2953
24.789
33.1446
30.4562
27.9479
30.7931
)
;

boundaryField
{
    inlet
    {
        type            zeroGradient;
    }
    outlet
    {
        type            fixedValue;
        value           nonuniform 0();
    }
    flap
    {
        type            zeroGradient;
    }
    upperWall
    {
        type            zeroGradient;
    }
    lowerWall
    {
        type            zeroGradient;
    }
    frontAndBack
    {
        type            empty;
    }
    procBoundary4to1
    {
        type            processor;
        value           nonuniform List<scalar> 
30
(
96.0622
96.0622
90.944
87.6853
87.6853
81.8114
77.5397
77.5397
71.7996
67.0413
67.0413
62.3072
57.7494
53.527
53.527
52.3606
50.2069
47.5465
47.5465
46.6252
43.1739
39.5886
39.5886
39.0043
35.9959
35.9959
35.8702
33.2644
33.2644
33.3259
)
;
    }
    procBoundary4to2
    {
        type            processor;
        value           nonuniform List<scalar> 
11
(
2.51306
2.43964
4.28569
6.4469
9.13361
12.3178
15.7452
19.1977
22.5255
25.6331
28.4718
)
;
    }
    procBoundary4to3
    {
        type            processor;
        value           nonuniform List<scalar> 
19
(
134.529
134.336
133.723
132.824
131.678
130.311
128.744
126.99
125.064
122.981
120.759
118.421
115.988
113.489
110.957
108.373
105.751
103.143
100.592
)
;
    }
    procBoundary4to5
    {
        type            processor;
        value           nonuniform List<scalar> 
18
(
2.14465
2.13912
2.13292
2.12798
2.12882
2.1386
2.15948
2.19215
2.23655
2.29194
2.3571
2.43023
2.50917
2.59237
2.6784
2.57614
2.57614
2.70517
)
;
    }
}


// ************************************************************************* //
