/*--------------------------------*- C++ -*----------------------------------*\
| =========                 |                                                 |
| \\      /  F ield         | OpenFOAM: The Open Source CFD Toolbox           |
|  \\    /   O peration     | Version:  dev                                   |
|   \\  /    A nd           | Web:      www.OpenFOAM.org                      |
|    \\/     M anipulation  |                                                 |
\*---------------------------------------------------------------------------*/
FoamFile
{
    version     2.0;
    format      ascii;
    class       volVectorField;
    location    "3.3";
    object      Force;
}
// * * * * * * * * * * * * * * * * * * * * * * * * * * * * * * * * * * * * * //

dimensions      [1 1 -2 0 0 0 0];

internalField   uniform (0 0 0);

boundaryField
{
    inlet
    {
        type            calculated;
        value           uniform (0 0 0);
    }
    outlet
    {
        type            calculated;
        value           uniform (0 0 0);
    }
    flap
    {
        type            calculated;
        value           nonuniform List<vector> 
33
(
(3.72189 1.72258e-17 -0.0761608)
(3.71028 -1.23504e-18 -0.156704)
(3.70282 1.69649e-17 -0.233459)
(3.69377 1.17549e-38 -0.296764)
(3.6737 -2.46824e-18 -0.352824)
(3.63707 1.68127e-17 -0.404403)
(3.58131 3.49561e-23 -0.451392)
(3.5059 4.74497e-18 -0.490424)
(3.41061 1.66738e-17 -0.519092)
(3.29371 -6.11859e-23 -0.535609)
(3.15178 -3.78362e-38 -0.537982)
(2.97546 -1.6354e-17 -0.524876)
(2.74537 -1.23646e-17 -0.49356)
(2.41931 -4.59055e-23 -0.437131)
(1.88623 -4.43734e-22 -0.339806)
(0.0919814 8.57517e-18 0.491834)
(0.0488674 8.76219e-22 0.264801)
(0.00981024 7.70642e-18 0.062954)
(-0.0738771 1.27898e-20 0.00143582)
(-0.073861 -2.55058e-20 0.00300879)
(-0.0737959 -1.27262e-23 0.00443232)
(-0.0738091 5.07776e-20 0.00560889)
(-0.0741973 -5.10188e-20 0.00673579)
(-0.0753731 -5.18484e-20 0.00794862)
(-0.0778398 -1.83671e-40 0.00936346)
(-0.0820304 -5.73972e-42 0.011063)
(-0.0878471 -1.21076e-19 0.0130411)
(-0.0947922 -2.01858e-22 0.0152068)
(-0.102462 -1.61382e-17 0.0174593)
(-0.111589 3.06371e-22 0.0199654)
(-0.121924 -1.62911e-17 0.0225388)
(-0.130992 7.15713e-23 0.0247515)
(-0.131775 4.89871e-24 0.0252692)
)
;
    }
    upperWall
    {
        type            calculated;
        value           uniform (0 0 0);
    }
    lowerWall
    {
        type            calculated;
        value           uniform (0 0 0);
    }
    frontAndBack
    {
        type            empty;
    }
}


// ************************************************************************* //
