/*--------------------------------*- C++ -*----------------------------------*\
| =========                 |                                                 |
| \\      /  F ield         | OpenFOAM: The Open Source CFD Toolbox           |
|  \\    /   O peration     | Version:  dev                                   |
|   \\  /    A nd           | Web:      www.OpenFOAM.org                      |
|    \\/     M anipulation  |                                                 |
\*---------------------------------------------------------------------------*/
FoamFile
{
    version     2.0;
    format      ascii;
    class       surfaceScalarField;
    location    "3.3";
    object      meshPhi;
}
// * * * * * * * * * * * * * * * * * * * * * * * * * * * * * * * * * * * * * //

dimensions      [0 3 -1 0 0 0 0];

internalField   nonuniform List<scalar> 
5457
(
-0.000340484
2.49152e-06
-0.000642934
7.05361e-06
-0.000898966
1.08974e-05
-0.00111361
1.40931e-05
-0.0012918
1.6764e-05
-0.00143766
1.90065e-05
-0.00155461
2.089e-05
-0.00164555
2.24612e-05
-0.00171303
2.37519e-05
-0.00175924
2.47813e-05
-0.00178609
2.55575e-05
-0.0017952
2.60792e-05
-0.00178796
2.63333e-05
-0.00176559
2.62907e-05
-0.00172928
2.59131e-05
-0.00168015
2.51688e-05
-0.00161765
2.40404e-05
-0.0015419
2.24405e-05
-0.00145481
2.02099e-05
-0.00135748
1.72408e-05
-0.00125043
1.34385e-05
-0.00113403
8.64964e-06
-0.0010087
2.67114e-06
-0.000875148
-4.75988e-06
-0.000734989
-1.39878e-05
-0.00059114
-2.54151e-05
-0.000448546
-3.93864e-05
-0.000316576
-5.59219e-05
-0.000217572
-7.39029e-05
-9.31595e-05
-0.00034098
4.98503e-06
-0.000643846
1.41136e-05
-0.00090018
2.18062e-05
-0.00111509
2.82028e-05
-0.00129364
3.35505e-05
-0.00143996
3.80441e-05
-0.00155744
4.18228e-05
-0.00164897
4.49797e-05
-0.00171713
4.75787e-05
-0.00176414
4.96595e-05
-0.0017919
5.12385e-05
-0.00180207
5.23164e-05
-0.00179605
5.28702e-05
-0.00177505
5.2842e-05
-0.00174028
5.21491e-05
-0.00169388
5.07231e-05
-0.00163418
4.8581e-05
-0.00156057
4.55618e-05
-0.00147647
4.12863e-05
-0.00138307
3.55645e-05
-0.00128094
2.82644e-05
-0.00117061
1.91063e-05
-0.00105275
7.73927e-06
-0.000928144
-6.26135e-06
-0.000798965
-2.34605e-05
-0.000669141
-4.45218e-05
-0.000544764
-6.99259e-05
-0.000436169
-9.95044e-05
-0.000364752
-0.000130974
-0.000165389
-0.000342004
7.48093e-06
-0.000645713
2.1182e-05
-0.000902632
3.27312e-05
-0.00111806
4.23366e-05
-0.00129731
5.03707e-05
-0.00144455
5.71305e-05
-0.00156309
6.28263e-05
-0.00165582
6.75964e-05
-0.00172534
7.15373e-05
-0.00177393
7.47121e-05
-0.00180351
7.71457e-05
-0.00181581
7.88461e-05
-0.00181227
7.97898e-05
-0.00179399
7.98934e-05
-0.0017618
7.9016e-05
-0.0017195
7.71207e-05
-0.00166567
7.4282e-05
-0.00159739
7.01177e-05
-0.00151911
6.40664e-05
-0.00143343
5.60273e-05
-0.00134088
4.58684e-05
-0.00124239
3.32037e-05
-0.00113927
1.7626e-05
-0.0010326
-1.33517e-06
-0.000924881
-2.42817e-05
-0.000821099
-5.17581e-05
-0.000729844
-8.39456e-05
-0.000663287
-0.000120148
-0.000640156
-0.000156977
-0.000196371
-0.000343605
9.97822e-06
-0.000648616
2.82569e-05
-0.000906373
4.36713e-05
-0.0011225
5.64938e-05
-0.00130279
6.72245e-05
-0.00145144
7.62701e-05
-0.00157159
8.39137e-05
-0.00166608
9.03355e-05
-0.00173764
9.56653e-05
-0.0017886
9.99958e-05
-0.0018209
0.000103357
-0.00183634
0.000105754
-0.00183649
0.000107178
-0.00182252
0.000107575
-0.0017944
0.000106809
-0.00175563
0.000104827
-0.00170901
0.000101549
-0.0016503
9.64638e-05
-0.0015812
8.91459e-05
-0.00150679
7.95583e-05
-0.00142792
6.75023e-05
-0.00134611
5.25739e-05
-0.00126373
3.43888e-05
-0.00118302
1.25619e-05
-0.00110645
-1.32347e-05
-0.00103838
-4.30547e-05
-0.000989834
-7.64917e-05
-0.000975409
-0.000111924
-0.00100944
-0.000144976
-0.000175512
-0.000345868
1.24744e-05
-0.000652705
3.53329e-05
-0.000911496
5.4621e-05
-0.00112839
7.06669e-05
-0.00131005
8.41008e-05
-0.00146064
9.54531e-05
-0.00158294
0.000105083
-0.00167975
0.000113204
-0.00175396
0.00011996
-0.00180803
0.000125483
-0.00184388
0.000129842
-0.00186333
0.000133028
-0.00186829
0.000135041
-0.00186049
0.000135918
-0.00183949
0.000135596
-0.00180604
0.000133881
-0.00176599
0.00013045
-0.00171815
0.000124908
-0.00166172
0.000117075
-0.0016018
0.000106868
-0.00154011
9.4046e-05
-0.00147867
7.82843e-05
-0.00142081
5.92925e-05
-0.00137068
3.69364e-05
-0.00133166
1.13944e-05
-0.00130698
-1.68276e-05
-0.00130544
-4.67177e-05
-0.0013426
-7.56583e-05
-0.00142909
-9.87407e-05
-0.000112109
-0.000348898
1.49652e-05
-0.000658193
4.24003e-05
-0.000918118
6.55705e-05
-0.00113563
8.48409e-05
-0.00131896
0.000100976
-0.00147209
0.000114653
-0.00159706
0.000126298
-0.00169661
0.000136136
-0.00177396
0.000144333
-0.00183185
0.000151087
-0.00187204
0.000156534
-0.00189634
0.000160658
-0.00190705
0.000163436
-0.00190748
0.000165011
-0.0018967
0.000165424
-0.00187318
0.000164361
-0.00184045
0.000161345
-0.00180196
0.000156023
-0.00176022
0.000148386
-0.00171754
0.000138458
-0.00167604
0.000126067
-0.00163774
0.000110971
-0.00160664
9.30006e-05
-0.00158853
7.2328e-05
-0.00158822
4.95846e-05
-0.00160944
2.58009e-05
-0.00165428
2.46766e-06
-0.00173483
-1.75275e-05
-0.00185905
-2.96929e-05
-2.7984e-05
-0.000352815
1.74445e-05
-0.000665407
4.94454e-05
-0.000926408
7.65089e-05
-0.00114396
9.8998e-05
-0.00132924
0.000117798
-0.00148558
0.000133781
-0.00161373
0.000147452
-0.00171633
0.000159032
-0.00179726
0.000168719
-0.00185977
0.000176812
-0.00190515
0.000183502
-0.00193505
0.00018874
-0.00195184
0.000192432
-0.00195974
0.000194716
-0.00195859
0.000195877
-0.00194734
0.000195863
-0.00192648
0.000194101
-0.00190036
0.000189922
-0.00187514
0.000183303
-0.00185199
0.000174589
-0.00183332
0.000163864
-0.00181992
0.000150946
-0.00181632
0.000135697
-0.00183042
0.00011856
-0.00186694
0.00010052
-0.00192979
8.28654e-05
-0.00201632
6.70977e-05
-0.0021308
5.5435e-05
-0.00227674
5.10989e-05
5.76325e-05
-0.000357731
1.99033e-05
-0.000674863
5.6449e-05
-0.000936222
8.72919e-05
-0.00115241
0.000112842
-0.0013403
0.000134341
-0.00150089
0.000152713
-0.00163286
0.000168473
-0.00173873
0.000181903
-0.00182358
0.000193149
-0.00189165
0.000202665
-0.001943
0.000210728
-0.0019791
0.000217253
-0.00200174
0.000222114
-0.00201321
0.00022529
-0.00201732
0.000227192
-0.00201771
0.000228241
-0.00201505
0.000228108
-0.002009
0.000225945
-0.00200292
0.000221441
-0.00200132
0.000215057
-0.00200885
0.00020734
-0.00202108
0.000198139
-0.00204313
0.000187076
-0.00208887
0.000174965
-0.0021602
0.000163151
-0.00225916
0.000152749
-0.00238181
0.000144776
-0.00252235
0.000140048
-0.00267959
0.000140082
0.00014325
-0.000363674
2.23292e-05
-0.000684739
6.32468e-05
-0.000944675
9.75762e-05
-0.00116137
0.000126146
-0.0013536
0.0001506
-0.00151809
0.000171476
-0.00165363
0.000189163
-0.00176252
0.000204348
-0.00185222
0.000217338
-0.00192701
0.000228479
-0.0019851
0.000238046
-0.00202809
0.000246053
-0.0020572
0.000252413
-0.00207297
0.000257055
-0.00208277
0.000260312
-0.00209428
0.000262687
-0.0021096
0.000264134
-0.00212462
0.000264123
-0.00213842
0.000262342
-0.00215836
0.000259045
-0.00219127
0.000255067
-0.00222966
0.000250854
-0.00227883
0.000245806
-0.00235548
0.0002403
-0.00245936
0.000235947
-0.00259057
0.000233807
-0.00274469
0.00023425
-0.00290703
0.000236613
-0.00307331
0.000240656
0.000241347
-0.000368301
2.46588e-05
-0.000690639
6.97114e-05
-0.000951463
0.000107529
-0.00117505
0.000139402
-0.00137059
0.000166714
-0.00153497
0.000189746
-0.00167334
0.000209206
-0.00178701
0.000226165
-0.00188353
0.000241133
-0.00196544
0.000254138
-0.00203111
0.000265383
-0.00208199
0.000275105
-0.00211909
0.000283202
-0.00214413
0.000289634
-0.00216482
0.000294739
-0.00218837
0.000298983
-0.00221643
0.00030239
-0.00224653
0.000304703
-0.00227812
0.000305912
-0.00231681
0.00030627
-0.00236674
0.000306419
-0.0024318
0.000307553
-0.00251543
0.000309759
-0.00262194
0.000312507
-0.00275484
0.000316957
-0.00291339
0.000324246
-0.00309298
0.000334244
-0.00327698
0.000345436
-0.00345564
0.00035599
0.000362059
-0.000369438
2.69056e-05
-0.000692801
7.60705e-05
-0.000961378
0.000117555
-0.00119292
0.000152594
-0.00138662
0.000182209
-0.00154987
0.000207236
-0.00169344
0.000228937
-0.00181489
0.000248045
-0.00191858
0.000264916
-0.00200673
0.00027966
-0.00208095
0.000292683
-0.00214087
0.00030435
-0.00218695
0.000314414
-0.00222245
0.000322725
-0.0022554
0.000329696
-0.002292
0.000336055
-0.00233134
0.00034189
-0.00237383
0.000346989
-0.00242144
0.000351625
-0.00247733
0.000356283
-0.00254237
0.000361483
-0.00263244
0.000368401
-0.00274828
0.000377738
-0.00288124
0.000389157
-0.00303843
0.000403327
-0.00321852
0.000421086
-0.00341669
0.000441991
-0.00361987
0.000463859
-0.00380986
0.000482715
0.000500149
-0.000369517
2.912e-05
-0.000695375
8.23966e-05
-0.000972554
0.000127448
-0.00120759
0.000165282
-0.00140005
0.000197174
-0.0015678
0.000224606
-0.0017188
0.00024876
-0.00184736
0.000270024
-0.00195633
0.00028867
-0.00204993
0.000304937
-0.00213171
0.000319387
-0.00219918
0.000332525
-0.00225371
0.000344381
-0.00230016
0.000354943
-0.00234665
0.000364461
-0.00239757
0.00037351
-0.00244904
0.000382148
-0.00250392
0.000390246
-0.00256711
0.00039846
-0.00264078
0.000407569
-0.00272663
0.00041819
-0.00283727
0.000431224
-0.00297291
0.00044738
-0.00312655
0.000466983
-0.00330216
0.000490636
-0.00349745
0.000518816
-0.00370709
0.000550884
-0.00392027
0.000583734
-0.00411177
0.000609873
0.000638881
-0.000370572
3.12801e-05
-0.000699283
8.85577e-05
-0.000980724
0.000137038
-0.00121827
0.000177729
-0.00141627
0.000212215
-0.00159149
0.000242091
-0.00174822
0.00026837
-0.00188245
0.000291637
-0.00199511
0.000312109
-0.00209261
0.0003298
-0.002178
0.000345276
-0.00224935
0.000359308
-0.00231209
0.000372605
-0.00237339
0.000385636
-0.0024377
0.000398355
-0.00250487
0.000410787
-0.00256806
0.000422617
-0.00263338
0.000433632
-0.00271149
0.000445213
-0.00280217
0.000458571
-0.00290792
0.000474133
-0.00303431
0.000492645
-0.00318251
0.000514938
-0.00335025
0.000541621
-0.00353666
0.000573126
-0.00373834
0.00060976
-0.00394925
0.000650926
-0.00415916
0.000692967
-0.00434107
0.000724124
0.000764829
-0.000372206
3.33735e-05
-0.000703705
9.45305e-05
-0.000987975
0.000146366
-0.00122971
0.000189991
-0.00143552
0.000227084
-0.00161689
0.000259188
-0.00177859
0.000287423
-0.00191776
0.000312471
-0.00203283
0.00033459
-0.00213321
0.000353903
-0.00222168
0.000370918
-0.00229823
0.000386465
-0.00237097
0.000401466
-0.00244737
0.000416512
-0.00252822
0.000431576
-0.00260996
0.000446746
-0.00268287
0.000461575
-0.0027578
0.00047563
-0.00285035
0.000490566
-0.00295571
0.000507761
-0.00307594
0.000527505
-0.00321389
0.000550438
-0.00337095
0.000577358
-0.0035455
0.000608819
-0.00373384
0.000644928
-0.00393095
0.000685687
-0.00412933
0.000730614
-0.0043198
0.000777327
-0.00448324
0.000814203
0.000890383
-0.000374165
3.54005e-05
-0.000708516
0.00010033
-0.000996156
0.000155454
-0.00124271
0.000201934
-0.00145484
0.000241538
-0.00164141
0.000275816
-0.00180798
0.000305924
-0.00195046
0.000332454
-0.00206924
0.000356127
-0.0021746
0.000377454
-0.00226925
0.000396468
-0.00235543
0.000413986
-0.00243892
0.00043094
-0.00252536
0.000447647
-0.00261571
0.000464183
-0.00270383
0.00048063
-0.00278481
0.00049741
-0.00287426
0.000514957
-0.00298094
0.000533673
-0.00309821
0.000554165
-0.00322861
0.000577082
-0.00337387
0.000602999
-0.00353473
0.000632508
-0.00370888
0.000665805
-0.00389077
0.000702309
-0.00407301
0.000740957
-0.00424401
0.000779589
-0.00438659
0.00081335
-0.00447402
0.000828799
0.00111894
-0.000279863
0.000145001
-0.000487079
0.000146691
-0.000780996
0.000153287
-0.00112318
0.000156391
-0.00147848
0.000157424
-0.00181954
0.000157992
-0.00212369
0.000157155
-0.00238864
0.00015236
-0.00261984
0.000145967
-0.00281256
0.000141556
-0.00296189
0.000138926
-0.00306853
0.000135716
-0.00313842
0.000130985
-0.00317632
0.000125458
-0.00318529
0.000119044
-0.00316776
0.000110604
-0.00312666
9.96808e-05
-0.00306415
8.79161e-05
-0.00298118
7.7668e-05
-0.00287846
6.99711e-05
-0.00275101
6.40311e-05
-0.00259016
5.85688e-05
-0.00239689
5.33747e-05
-0.00217435
4.83213e-05
-0.0019245
4.31109e-05
-0.00162978
3.84347e-05
-0.00125967
3.36979e-05
-0.000846062
2.63316e-05
-0.000431418
1.62737e-05
5.48508e-06
-0.000432994
0.000283963
-0.000637417
0.000284994
-0.000920857
0.000297611
-0.00124803
0.000304626
-0.00158636
0.000307273
-0.00190845
0.000306957
-0.00219205
0.000303705
-0.002443
0.000295718
-0.00266636
0.000284846
-0.00285087
0.000274511
-0.00299101
0.000265724
-0.00308968
0.000256882
-0.00315336
0.000246044
-0.00318709
0.000234278
-0.00319311
0.000221937
-0.00317307
0.000205766
-0.00313051
0.000184627
-0.00306721
0.000162238
-0.00298353
0.000143514
-0.00288028
0.000130349
-0.00275321
0.000122105
-0.00259229
0.000116063
-0.00239817
0.000108928
-0.00217386
9.99622e-05
-0.00191817
8.97034e-05
-0.00161889
7.89835e-05
-0.00125774
6.71854e-05
-0.000854988
5.1872e-05
-0.000437555
3.269e-05
1.12561e-05
-0.000718024
0.000405111
-0.000916263
0.000406463
-0.00118223
0.000425817
-0.00148106
0.000438642
-0.00178345
0.00044342
-0.00206659
0.000440399
-0.00231679
0.00043312
-0.0025471
0.000424204
-0.00275268
0.000411921
-0.00291722
0.000394771
-0.0030396
0.000376553
-0.00312522
0.000360358
-0.00317692
0.000342129
-0.00320186
0.000320946
-0.00320286
0.000300891
-0.00318095
0.000280546
-0.00313975
0.000258596
-0.00307776
0.000237292
-0.00299238
0.000217768
-0.00288482
0.000200764
-0.00275437
0.000187876
-0.00259295
0.000178135
-0.00239869
0.00016765
-0.00217199
0.000154202
-0.00191007
0.000138174
-0.00160658
0.000120436
-0.00125375
0.000100504
-0.000861532
7.68349e-05
-0.000442792
4.881e-05
1.69816e-05
-0.00109675
0.000497298
-0.0012848
0.000505745
-0.00152535
0.000532378
-0.00178335
0.000551474
-0.00203727
0.000560275
-0.00227546
0.000558793
-0.00249204
0.00055126
-0.00269555
0.00054172
-0.00287057
0.000527994
-0.00300587
0.000506607
-0.00310643
0.000481526
-0.00317458
0.000458358
-0.00321112
0.000434718
-0.00322507
0.000407387
-0.00322078
0.000381083
-0.00319968
0.00036001
-0.0031609
0.000342102
-0.00309975
0.000324352
-0.00301131
0.000304632
-0.00289616
0.000281981
-0.00275763
0.000259532
-0.00259325
0.000241385
-0.00239888
0.000225416
-0.00216973
0.000206445
-0.00190279
0.000183861
-0.00159665
0.000159098
-0.0012482
0.000131603
-0.000862366
0.000100045
-0.000444733
6.36041e-05
2.2187e-05
-0.00152217
0.000562529
-0.00169746
0.000585506
-0.00190211
0.000619391
-0.0021143
0.000643894
-0.00232543
0.000658614
-0.00252467
0.000662796
-0.00270729
0.000658058
-0.00287713
0.00064865
-0.00301498
0.000633899
-0.00311653
0.000610173
-0.00319023
0.000579956
-0.00323491
0.000549166
-0.00325905
0.000521545
-0.0032664
0.000495428
-0.00325782
0.00046967
-0.00323516
0.00044777
-0.00319317
0.00042848
-0.00312868
0.000408297
-0.00303774
0.000386147
-0.00291714
0.000360709
-0.00276818
0.000332994
-0.0025966
0.000307522
-0.00240159
0.000284423
-0.00216982
0.000258259
-0.00189722
0.00022819
-0.00158852
0.000196357
-0.00124218
0.000161621
-0.000860516
0.000122409
-0.000445145
7.78111e-05
2.71771e-05
-0.00195473
0.000616699
-0.00211923
0.000656546
-0.0022905
0.000698097
-0.00246326
0.000727951
-0.00263699
0.000746573
-0.00279695
0.000753761
-0.00294111
0.000750145
-0.00307162
0.000739854
-0.00317078
0.000724162
-0.00323907
0.00070028
-0.00328502
0.000668797
-0.00330822
0.000634901
-0.00332285
0.00060458
-0.00332451
0.000578226
-0.00330963
0.000553023
-0.00327868
0.000528896
-0.00322688
0.000504517
-0.00315568
0.000479545
-0.00306242
0.000455162
-0.00294113
0.000430927
-0.00278524
0.000404091
-0.00260543
0.000373404
-0.0024099
0.000341798
-0.00217478
0.000308668
-0.00189382
0.000271919
-0.00158174
0.000232562
-0.00123615
0.000190296
-0.000857575
0.000143772
-0.000445505
9.14892e-05
3.20214e-05
-0.00237599
0.000680474
-0.00253548
0.000730343
-0.00268565
0.000776319
-0.00282419
0.000808431
-0.00295622
0.000827058
-0.00307353
0.000833768
-0.00317581
0.000829554
-0.00325897
0.000816384
-0.00332014
0.000797687
-0.00336475
0.000775043
-0.00339026
0.000746703
-0.00339863
0.000714582
-0.00340143
0.000683981
-0.00339055
0.000655258
-0.00336316
0.000626449
-0.00332076
0.000598592
-0.00325834
0.000570795
-0.00317863
0.000542139
-0.0030792
0.000514119
-0.00295672
0.000487303
-0.00280136
0.00045896
-0.00261761
0.000424982
-0.00241864
0.000387855
-0.0021801
0.00035079
-0.00189343
0.000310487
-0.00157774
0.000265288
-0.00122944
0.000216093
-0.000853272
0.000162561
-0.000446725
0.000103468
3.6373e-05
-0.00278594
0.000762735
-0.00294071
0.000810436
-0.00307132
0.000854081
-0.00317554
0.000882969
-0.00326584
0.000898471
-0.00334139
0.000902821
-0.00340185
0.000897243
-0.00343984
0.000882732
-0.00346802
0.000862405
-0.00349284
0.000839541
-0.00350041
0.000812756
-0.00349406
0.00078181
-0.00348157
0.000750626
-0.00345504
0.000720548
-0.00341148
0.000689104
-0.00335788
0.000657574
-0.00328863
0.00062787
-0.00320069
0.000597676
-0.00309269
0.000566287
-0.00296434
0.000534216
-0.00281083
0.000501143
-0.00262707
0.000465428
-0.00242069
0.000426523
-0.00217923
0.000386208
-0.00189318
0.000342395
-0.00157595
0.000293177
-0.00122481
0.000239095
-0.000850305
0.000179582
-0.000450269
0.000114274
4.03294e-05
-0.00318831
0.000853788
-0.00332731
0.000890182
-0.00343086
0.000926287
-0.00350138
0.000948709
-0.00355349
0.000959302
-0.00359017
0.000960122
-0.00361319
0.000952606
-0.00361949
0.000938059
-0.00362027
0.000918393
-0.00361974
0.000895281
-0.00360726
0.000868644
-0.00358387
0.000838423
-0.00355236
0.000806135
-0.00351171
0.000774332
-0.00345723
0.000742817
-0.0033935
0.000710577
-0.00331825
0.000679033
-0.00322346
0.000647188
-0.00310865
0.000613638
-0.00297316
0.000578387
-0.0028166
0.000541747
-0.00263255
0.000503737
-0.00242055
0.000462975
-0.00217598
0.000419072
-0.00189051
0.000370899
-0.00157368
0.000317432
-0.00122475
0.000258913
-0.000851508
0.000194757
-0.000454193
0.000124035
4.37409e-05
-0.00357677
0.000932804
-0.00368578
0.000958757
-0.00375521
0.000986322
-0.00379293
0.00100169
-0.00381004
0.00100724
-0.00381235
0.00100473
-0.00380375
0.000995562
-0.00378604
0.000981011
-0.00376387
0.00096234
-0.00373903
0.000940228
-0.00370759
0.000914703
-0.00366791
0.000885897
-0.00361844
0.00085428
-0.00356513
0.000821964
-0.00350441
0.000790443
-0.003432
0.000758427
-0.00334819
0.000725513
-0.00324675
0.000691695
-0.00312644
0.000656356
-0.00298565
0.000619289
-0.00282384
0.000580485
-0.0026371
0.000539726
-0.00242222
0.000496175
-0.00217524
0.000449191
-0.00189047
0.000397698
-0.00157388
0.000340497
-0.00122498
0.000277284
-0.00085236
0.000208295
-0.000455772
0.000132745
4.68466e-05
-0.00393247
0.000985827
-0.00400484
0.00100874
-0.00403755
0.00103013
-0.00404308
0.0010397
-0.00402946
0.00104106
-0.00400321
0.00103626
-0.00396896
0.0010265
-0.0039302
0.00101269
-0.00388921
0.000995543
-0.00384607
0.00097519
-0.00379896
0.000951531
-0.00374584
0.00092468
-0.00368478
0.000895039
-0.00362055
0.000863881
-0.00355117
0.000832237
-0.00347059
0.000799735
-0.00337798
0.00076604
-0.00326988
0.000731038
-0.00314416
0.000694391
-0.00299894
0.000655859
-0.00283258
0.00061527
-0.00264208
0.0005723
-0.00242443
0.000526308
-0.00217613
0.00047661
-0.00189333
0.00042224
-0.0015771
0.000362076
-0.00122583
0.000295269
-0.000852558
0.000221688
-0.000455572
0.000140875
4.95671e-05
-0.00423412
0.00101373
-0.00427245
0.00104026
-0.00427194
0.00105733
-0.00424821
0.00106223
-0.00420899
0.00106072
-0.00416039
0.00105513
-0.00410663
0.00104612
-0.00405119
0.00103407
-0.00399544
0.00101917
-0.00393862
0.00100117
-0.00387941
0.000979884
-0.00381589
0.00095539
-0.00374674
0.000927936
-0.00367345
0.000898295
-0.00359453
0.000867266
-0.00350616
0.000834889
-0.00340622
0.000800967
-0.00329197
0.000765375
-0.00316111
0.000727888
-0.00301152
0.000688272
-0.00284111
0.000646283
-0.00264721
0.000601554
-0.00242698
0.00055351
-0.00217743
0.000501466
-0.00189552
0.000444531
-0.0015804
0.000381675
-0.00123087
0.000311951
-0.000856189
0.000234645
-0.000453169
0.000148642
5.19621e-05
-0.00447115
0.00103101
-0.00448223
0.00105927
-0.00445435
0.00106948
-0.00440659
0.00106953
-0.00434771
0.00106683
-0.00428319
0.0010624
-0.00421605
0.00105576
-0.00414893
0.00104656
-0.00408265
0.00103457
-0.00401605
0.00101937
-0.00394792
0.00100078
-0.00387659
0.000978867
-0.00380065
0.000953816
-0.00372005
0.000926085
-0.00363355
0.000896237
-0.00353837
0.000864494
-0.00343214
0.000830817
-0.0033124
0.000795105
-0.0031768
0.00075719
-0.00302311
0.000716854
-0.00284906
0.000673823
-0.0026521
0.000627713
-0.00242957
0.000577977
-0.00217872
0.000523934
-0.00189699
0.000464731
-0.00158299
0.000399392
-0.00123629
0.000326898
-0.000860323
0.000246242
-0.000450439
0.000155908
5.43809e-05
-0.00464862
0.00105958
-0.00463791
0.00106961
-0.00458605
0.00106468
-0.00451959
0.00106108
-0.00444751
0.00106046
-0.00437354
0.00105979
-0.00429904
0.00105719
-0.00422524
0.0010518
-0.00415237
0.00104322
-0.00407932
0.00103114
-0.00400493
0.00101545
-0.00392783
0.000996226
-0.00384662
0.000973653
-0.00376037
0.000948042
-0.00366785
0.00091977
-0.00356693
0.000889081
-0.00345534
0.000856036
-0.00333077
0.000820583
-0.0031909
0.000782591
-0.00303346
0.000741859
-0.00285613
0.000698106
-0.00265645
0.000650943
-0.00243184
0.000599838
-0.00217976
0.000544116
-0.00189786
0.000482946
-0.00158455
0.000415358
-0.0012391
0.000340275
-0.000862051
0.000256494
-0.000448896
0.000162313
5.65397e-05
-0.00485323
0.00119007
-0.00476551
0.000999158
-0.00467715
0.0010189
-0.00459465
0.00103244
-0.00451517
0.00104264
-0.00443728
0.0010493
-0.00436016
0.00105221
-0.00428359
0.00105128
-0.00420728
0.00104645
-0.00413036
0.00103768
-0.00405183
0.00102502
-0.00397052
0.00100856
-0.00388516
0.000988504
-0.00379453
0.000965093
-0.00369728
0.000938608
-0.00359163
0.000909262
-0.0034755
0.00087715
-0.00334672
0.000842258
-0.00320306
0.000804482
-0.00304225
0.000763636
-0.00286199
0.000719441
-0.00265988
0.000671509
-0.00243345
0.000619317
-0.00218025
0.000562198
-0.00189804
0.00049933
-0.00158508
0.000429739
-0.00124013
0.000352297
-0.000862298
0.000265674
-0.000447652
0.000168083
5.85129e-05
-0.000390809
3.73863e-05
-0.000741097
0.000106019
-0.00104354
0.000164371
-0.00130436
0.000213646
-0.0015303
0.000255714
-0.00172894
0.000292151
-0.00190547
0.000324121
-0.00205773
0.000352316
-0.00218798
0.000377603
-0.00230279
0.000400602
-0.0024085
0.000421473
-0.00250925
0.000440972
-0.00260578
0.000459784
-0.00270261
0.000478126
-0.00280125
0.000496127
-0.00289326
0.000513644
-0.00298738
0.000531964
-0.00309889
0.000552501
-0.00322137
0.000574353
-0.00335199
0.000597252
-0.00349375
0.000622121
-0.0036477
0.000649401
-0.00381366
0.000679311
-0.00398821
0.000711502
-0.00416464
0.00074464
-0.00433437
0.000776481
-0.00448475
0.000803018
-0.00459802
0.000816881
-0.00465473
0.000805804
0.000765337
-0.00436972
-0.000402987
3.93226e-05
-0.000765113
0.000111553
-0.0010788
0.000173032
-0.00135063
0.000225025
-0.00158732
0.000269507
-0.00179552
0.000308075
-0.00197985
0.000341927
-0.0021419
0.000371906
-0.00228139
0.000398622
-0.00240389
0.000422911
-0.00252102
0.00044568
-0.00263415
0.000467226
-0.00274161
0.00048775
-0.00284747
0.000507655
-0.00295279
0.000527187
-0.00305193
0.000546446
-0.00316015
0.000566567
-0.00328628
0.000588615
-0.0034182
0.000611842
-0.00355689
0.000635918
-0.00370437
0.000661396
-0.00386084
0.000688428
-0.00402507
0.000716802
-0.00419292
0.000745702
-0.00435786
0.000773473
-0.00451231
0.000797597
-0.00464758
0.000814535
-0.00475702
0.000819693
-0.00484229
0.000807837
0.000783329
-0.00491423
-0.000415821
4.11779e-05
-0.000790221
0.000116849
-0.00111548
0.00018132
-0.00139846
0.000235921
-0.00164588
0.000282716
-0.00186385
0.000323336
-0.00205686
0.000359019
-0.00222789
0.000390675
-0.00237607
0.000418942
-0.00250959
0.000444796
-0.00263882
0.000469231
-0.00276206
0.00049237
-0.00287952
0.000514351
-0.0029944
0.000535646
-0.00310799
0.000556581
-0.00321968
0.000577487
-0.00333972
0.000599007
-0.00347185
0.0006216
-0.00360917
0.000645045
-0.00375236
0.000669183
-0.00390191
0.000694088
-0.00405715
0.000719601
-0.00421596
0.000745201
-0.00437415
0.000769864
-0.00452619
0.000792014
-0.00466604
0.000809575
-0.00478771
0.000820088
-0.00488759
0.000820978
-0.00496556
0.000809477
0.000793758
-0.00502367
-0.000429176
4.29316e-05
-0.000816227
0.000121854
-0.00115335
0.000189156
-0.00144763
0.000246224
-0.0017058
0.0002952
-0.00193372
0.000337762
-0.00213593
0.000375198
-0.0023157
0.000408495
-0.00247473
0.000438448
-0.00262062
0.000465909
-0.00275974
0.000491628
-0.00289172
0.00051594
-0.00301835
0.000539119
-0.00314204
0.000561543
-0.0032645
0.000583543
-0.00338742
0.000605446
-0.00351567
0.000627635
-0.00365112
0.000650336
-0.00379147
0.00067346
-0.00393625
0.000696851
-0.00408494
0.000720343
-0.00423618
0.000743579
-0.00438746
0.000765898
-0.00453496
0.000786314
-0.0046744
0.000803551
-0.00480118
0.000816126
-0.00491088
0.000822401
-0.00500106
0.000820894
-0.00507211
0.000810498
0.000800606
-0.00512367
-0.000442932
4.45637e-05
-0.000842944
0.000126514
-0.00119215
0.000196457
-0.00149786
0.000255829
-0.00176686
0.00030684
-0.00200493
0.000351218
-0.0022168
0.000390297
-0.00240622
0.000425121
-0.00257656
0.000456553
-0.00273334
0.000485377
-0.0028812
0.000512246
-0.00302172
0.000537576
-0.00315684
0.0005617
-0.00328868
0.000584958
-0.00341911
0.000607651
-0.00355004
0.000630049
-0.00368411
0.000652385
-0.0038224
0.00067476
-0.00396404
0.00069709
-0.00410826
0.000719186
-0.00425402
0.00074076
-0.00439968
0.000761389
-0.00454276
0.000780443
-0.00467999
0.000797058
-0.00480797
0.000810257
-0.00492306
0.000818994
-0.00502203
0.000822234
-0.00510349
0.000819303
-0.00516823
0.000810197
0.000803308
-0.00521403
-0.000456972
4.60542e-05
-0.000870178
0.000130774
-0.00123165
0.000203141
-0.0015489
0.00026463
-0.00182879
0.000317513
-0.00207718
0.000363558
-0.00229894
0.000404141
-0.00249824
0.000440347
-0.00267899
0.00047306
-0.00284574
0.000503034
-0.00300231
0.000530877
-0.00315102
0.000557032
-0.00329394
0.000581853
-0.00343307
0.000605652
-0.00357021
0.00062869
-0.00370705
0.000651176
-0.00384519
0.000673245
-0.00398527
0.000694926
-0.0041268
0.000716104
-0.004269
0.000736582
-0.00441067
0.000756056
-0.00455011
0.00077408
-0.00468505
0.000790098
-0.00481269
0.000803393
-0.00493016
0.000813226
-0.00503474
0.000818923
-0.00512439
0.000819962
-0.00519845
0.000816197
-0.00525754
0.000808029
0.00080227
-0.00529858
-0.000471181
4.73832e-05
-0.000897733
0.000134579
-0.00127159
0.000209123
-0.00160045
0.00027252
-0.0018913
0.000327089
-0.00215007
0.000374635
-0.00238181
0.000416562
-0.0025909
0.000453979
-0.00278144
0.000487781
-0.00295747
0.000518703
-0.00312242
0.000547328
-0.00327881
0.000574102
-0.0034288
0.000599379
-0.0035743
0.000623446
-0.00371694
0.000646524
-0.00385812
0.000668768
-0.00399891
0.000690252
-0.00413972
0.000710971
-0.0042802
0.000730814
-0.00441956
0.00074956
-0.0045566
0.000766911
-0.00468963
0.000782438
-0.00481656
0.00079565
-0.00493512
0.00080603
-0.00504307
0.000813079
-0.00513856
0.000816422
-0.00522036
0.000815861
-0.00528811
0.000811492
-0.0053422
0.000803792
0.000798154
-0.00537937
-0.000485448
4.85309e-05
-0.00092541
0.000137873
-0.0013117
0.000214318
-0.0016522
0.00027939
-0.00195401
0.000335441
-0.00222317
0.000384302
-0.00246483
0.000427394
-0.0026835
0.000465838
-0.00288331
0.000500535
-0.00306803
0.000532208
-0.00324088
0.00056142
-0.00340438
0.000588607
-0.00356069
0.000614112
-0.00371165
0.000638205
-0.0038587
0.000661067
-0.00400302
0.000682824
-0.00414545
0.000703531
-0.00428621
0.000723149
-0.00442501
0.000741559
-0.00456101
0.000758525
-0.00469301
0.000773753
-0.00481949
0.000786903
-0.00493872
0.000797601
-0.00504895
0.000805498
-0.00514858
0.000810295
-0.00523634
0.000811807
-0.00531146
0.000810015
-0.00537377
0.000805112
-0.00542353
0.000797525
0.000791552
-0.00545755
-0.000499658
4.9478e-05
-0.000953006
0.000140602
-0.00135172
0.000218644
-0.00170384
0.000285134
-0.00201657
0.000342443
-0.00229603
0.000392413
-0.00254746
0.000436477
-0.00277541
0.000475757
-0.00298401
0.000511153
-0.00317691
0.000543384
-0.00335712
0.000572995
-0.0035271
0.000600394
-0.00368899
0.000625924
-0.00384464
0.000649858
-0.00399526
0.000672334
-0.00414185
0.000693441
-0.00428515
0.000713234
-0.00442524
0.000731641
-0.00456174
0.000748521
-0.00469388
0.000763681
-0.00482062
0.000776883
-0.00494072
0.000787872
-0.00505285
0.00079639
-0.00515569
0.000802211
-0.00524811
0.000805176
-0.00532926
0.000805227
-0.00539867
0.000802435
-0.00545629
0.000797019
-0.00550234
0.000789338
0.000782885
-0.0055338
-0.000513702
5.02058e-05
-0.000980321
0.000142713
-0.00139138
0.00022202
-0.00175504
0.000289648
-0.00207858
0.00034797
-0.00236821
0.000398832
-0.00262919
0.000443664
-0.00286607
0.000483577
-0.00308299
0.000519476
-0.00328358
0.000552091
-0.00347068
0.000581936
-0.00364657
0.000609387
-0.00381343
0.000634784
-0.00397307
0.000658391
-0.00412654
0.000680328
-0.00427469
0.00070065
-0.00441813
0.000719391
-0.00455688
0.000736491
-0.00469059
0.000751831
-0.00481866
0.000765263
-0.00494026
0.00077661
-0.00505443
0.00078569
-0.00516015
0.000792337
-0.00525648
0.000796423
-0.00534264
0.000797883
-0.0054181
0.000796736
-0.00548259
0.000793097
-0.00553617
0.000787179
-0.00557908
0.000779277
0.000772278
-0.00560852
-0.000527474
5.06979e-05
-0.00100716
0.00014416
-0.00143042
0.000224372
-0.00180547
0.000292837
-0.00213968
0.000351913
-0.00243928
0.000403436
-0.00270957
0.000448829
-0.00295508
0.000489193
-0.00317994
0.000525424
-0.00338775
0.000558242
-0.0035812
0.000588142
-0.00376251
0.00061549
-0.00393379
0.000640606
-0.0040967
0.000663722
-0.00425228
0.000684962
-0.00440131
0.000704386
-0.00454428
0.000722012
-0.00468124
0.0007378
-0.00481199
0.000751665
-0.00493605
0.000763499
-0.00505281
0.00077318
-0.00516155
0.000780592
-0.00526154
0.000785641
-0.00535214
0.000788272
-0.00543285
0.000788483
-0.00550336
0.000786338
-0.00556357
0.000781967
-0.00561363
0.000775564
-0.00565384
0.000767366
0.000759786
-0.00568158
-0.00054089
5.09397e-05
-0.00103337
0.0001449
-0.0014686
0.000225635
-0.00185485
0.000294614
-0.00219953
0.000354167