/*--------------------------------*- C++ -*----------------------------------*\
| =========                 |                                                 |
| \\      /  F ield         | OpenFOAM: The Open Source CFD Toolbox           |
|  \\    /   O peration     | Version:  dev                                   |
|   \\  /    A nd           | Web:      www.OpenFOAM.org                      |
|    \\/     M anipulation  |                                                 |
\*---------------------------------------------------------------------------*/
FoamFile
{
    version     2.0;
    format      ascii;
    class       pointVectorField;
    location    "0.57";
    object      pointDisplacement;
}
// * * * * * * * * * * * * * * * * * * * * * * * * * * * * * * * * * * * * * //

dimensions      [0 1 0 0 0 0 0];

internalField   nonuniform List<vector> 
1030
(
(0.115825 0 -0.0120226)
(0.113002 0 -0.011616)
(0.110193 0 -0.0111792)
(0.117234 0 -0.0118449)
(0.114427 0 -0.0114924)
(0.111596 0 -0.0111025)
(0.108732 0 -0.010682)
(0.10581 0 -0.0102365)
(0.118219 0 -0.0116249)
(0.115475 0 -0.0113243)
(0.112671 0 -0.0109807)
(0.109798 0 -0.0106009)
(0.106843 0 -0.0101908)
(0.103782 0 -0.00975546)
(0.118822 0 -0.0113735)
(0.116171 0 -0.0111205)
(0.113424 0 -0.0108206)
(0.110579 0 -0.0104805)
(0.107624 0 -0.0101059)
(0.104541 0 -0.00970165)
(0.101303 0 -0.00927196)
(0.0978778 0 -0.00882015)
(0.119087 0 -0.0110994)
(0.116546 0 -0.0108885)
(0.113879 0 -0.0106287)
(0.111085 0 -0.010326)
(0.108156 0 -0.00998574)
(0.105076 0 -0.00961246)
(0.101822 0 -0.00921018)
(0.0983674 0 -0.00878217)
(0.094676 0 -0.00833109)
(0.0907083 0 -0.00785889)
(0.119057 0 -0.0108094)
(0.116633 0 -0.0106349)
(0.114058 0 -0.0104109)
(0.111331 0 -0.0101425)
(0.108446 0 -0.00983451)
(0.105389 0 -0.0094911)
(0.102141 0 -0.00911596)
(0.098677 0 -0.00871216)
(0.0949639 0 -0.00828222)
(0.0909651 0 -0.00782804)
(0.0866378 0 -0.00735087)
(0.118767 0 -0.0105084)
(0.116462 0 -0.0103645)
(0.113985 0 -0.0101717)
(0.111335 0 -0.00993418)
(0.108507 0 -0.00965599)
(0.105488 0 -0.00934079)
(0.102262 0 -0.00899186)
(0.0988047 0 -0.008612)
(0.0950869 0 -0.00820355)
(0.0910736 0 -0.00776823)
(0.0867245 0 -0.00730719)
(0.0819944 0 -0.00682098)
(0.076833 0 -0.00630936)
(0.118251 0 -0.0101997)
(0.116061 0 -0.010081)
(0.113683 0 -0.00991488)
(0.111115 0 -0.00970465)
(0.108352 0 -0.0094535)
(0.105383 0 -0.00916449)
(0.10219 0 -0.00884043)
(0.0987534 0 -0.0084838)
(0.0950445 0 -0.00809665)
(0.091031 0 -0.00768057)
(0.0866746 0 -0.00723656)
(0.0819324 0 -0.0067651)
(0.0767559 0 -0.00626591)
(0.0710904 0 -0.00573791)
(0.117535 0 -0.0098854)
(0.115454 0 -0.00978696)
(0.113173 0 -0.00964332)
(0.11069 0 -0.00945677)
(0.107997 0 -0.00922977)
(0.105084 0 -0.00896473)
(0.101934 0 -0.00866397)
(0.0985282 0 -0.00832955)
(0.0948397 0 -0.00796322)
(0.0908378 0 -0.00756636)
(0.0864865 0 -0.00713985)
(0.0817445 0 -0.00668405)
(0.0765651 0 -0.00619859)
(0.0708958 0 -0.00568241)
(0.0646797 0 -0.00513369)
(0.0578542 0 -0.00454962)
(0.116645 0 -0.00956635)
(0.114665 0 -0.00948398)
(0.112477 0 -0.00935894)
(0.110076 0 -0.0091927)
(0.107455 0 -0.008987)
(0.104603 0 -0.00874365)
(0.101503 0 -0.00846444)
(0.0981361 0 -0.00815102)
(0.0944773 0 -0.00780482)
(0.0904973 0 -0.00742694)
(0.0861614 0 -0.0070181)
(0.0814303 0 -0.00657852)
(0.0762592 0 -0.00610783)
(0.0705978 0 -0.00560495)
(0.0643912 0 -0.00506813)
(0.0575787 0 -0.00449463)
(0.0500918 0 -0.00388065)
(0.115601 0 -0.00924264)
(0.113714 0 -0.00917276)
(0.111613 0 -0.00906293)
(0.109293 0 -0.00891391)
(0.106744 0 -0.00872682)
(0.103954 0 -0.00850292)
(0.100908 0 -0.00824348)
(0.0975859 0 -0.00794975)
(0.0939641 0 -0.00762281)
(0.0900142 0 -0.00726351)
(0.0857029 0 -0.00687234)
(0.0809924 0 -0.00644941)
(0.0758396 0 -0.00599428)
(0.0701965 0 -0.0055059)
(0.0640097 0 -0.00498251)
(0.0572206 0 -0.0044215)
(0.0497635 0 -0.00381925)
(0.0415676 0 -0.00317116)
(0.0325563 0 -0.00247139)
(0.114425 0 -0.00891381)
(0.112621 0 -0.00885341)
(0.110601 0 -0.00875583)
(0.108356 0 -0.00862129)
(0.105877 0 -0.00845034)
(0.10315 0 -0.00824375)
(0.10016 0 -0.00800235)
(0.0968876 0 -0.00772697)
(0.0933085 0 -0.00741838)
(0.0893954 0 -0.00707713)
(0.0851164 0 -0.00670353)
(0.0804348 0 -0.00629754)
(0.0753094 0 -0.00585863)
(0.0696938 0 -0.00538575)
(0.0635366 0 -0.00487719)
(0.0567812 0 -0.00433044)
(0.0493647 0 -0.0037421)
(0.0412195 0 -0.00310788)
(0.0322712 0 -0.00242227)
(0.0224363 0 -0.00167832)
(0.113134 0 -0.00857881)
(0.111404 0 -0.0085254)
(0.109458 0 -0.00843761)
(0.107284 0 -0.00831515)
(0.104871 0 -0.00815816)
(0.102207 0 -0.00796694)
(0.0992739 0 -0.00774193)
(0.0960527 0 -0.00748361)
(0.0925202 0 -0.00719242)
(0.0886492 0 -0.00686867)
(0.0844088 0 -0.00651247)
(0.0797635 0 -0.00612361)
(0.0746734 0 -0.00570151)
(0.0690939 0 -0.00524507)
(0.0629754 0 -0.00475263)
(0.0562635 0 -0.00422181)
(0.0488979 0 -0.00364943)
(0.0408136 0 -0.00303144)
(0.0319393 0 -0.00236269)
(0.0221962 0 -0.00163684)
(0.0114925 0 -0.000845802)
(0.111744 0 -0.00823594)
(0.110081 0 -0.00818767)
(0.1082 0 -0.00810767)
(0.106092 0 -0.00799533)
(0.103743 0 -0.00785039)
(0.101139 0 -0.00767282)
(0.0982623 0 -0.00746272)
(0.095094 0 -0.00722026)
(0.0916107 0 -0.0069456)
(0.0877859 0 -0.00663881)
(0.0835891 0 -0.0062998)
(0.078986 0 -0.00592824)
(0.0739381 0 -0.00552345)
(0.0684023 0 -0.00508434)
(0.0623309 0 -0.00460926)
(0.0556714 0 -0.00409598)
(0.0483665 0 -0.00354151)
(0.0403533 0 -0.00294204)
(0.0315637 0 -0.00229283)
(0.0219237 0 -0.00158807)
(0.0113464 0 -0.000820368)
(0 0 0)
(0.110271 0 -0.00788332)
(0.108666 0 -0.00783878)
(0.106846 0 -0.00776502)
(0.104798 0 -0.00766116)
(0.102508 0 -0.0075267)
(0.0999613 0 -0.00736133)
(0.0971404 0 -0.00716486)
(0.0940253 0 -0.00693719)
(0.0905928 0 -0.00667826)
(0.0868169 0 -0.00638794)
(0.0826677 0 -0.00606595)
(0.0781118 0 -0.00571185)
(0.0731119 0 -0.0053249)
(0.0676264 0 -0.00490396)
(0.0616094 0 -0.00444747)
(0.0550107 0 -0.0039533)
(0.0477751 0 -0.00341864)
(0.0398427 0 -0.00283999)
(0.0311488 0 -0.00221297)
(0.0216228 0 -0.00153226)
(0.0111842 0 -0.000791207)
(0 0 0)
(0.108731 0 -0.00751881)
(0.107178 0 -0.00747696)
(0.105412 0 -0.00740825)
(0.103418 0 -0.0073116)
(0.101184 0 -0.00718635)
(0.0986914 0 -0.00703196)
(0.0959243 0 -0.00684805)
(0.0928617 0 -0.0066343)
(0.0894808 0 -0.00639045)
(0.0857555 0 -0.00611619)
(0.0816567 0 -0.00581112)
(0.0771519 0 -0.00547469)
(0.0722047 0 -0.0051061)
(0.0667751 0 -0.00470422)
(0.060819 0 -0.00426753)
(0.0542881 0 -0.00379402)
(0.0471298 0 -0.0032811)
(0.0392871 0 -0.00272553)
(0.0306986 0 -0.00212332)
(0.021298 0 -0.00146966)
(0.0110103 0 -0.00075857)
(0 0 0)
(0.107141 0 -0.00714001)
(0.105634 0 -0.00710013)
(0.103916 0 -0.00703558)
(0.101972 0 -0.00694519)
(0.0997875 0 -0.00682816)
(0.0973467 0 -0.00668383)
(0.0946309 0 -0.00651163)
(0.0916197 0 -0.00631111)
(0.08829 0 -0.00608184)
(0.0846163 0 -0.00582339)
(0.0805699 0 -0.00553524)
(0.0761189 0 -0.00521677)
(0.0712282 0 -0.00486714)
(0.0658591 0 -0.00448523)
(0.0599692 0 -0.00406958)
(0.0535122 0 -0.00361832)
(0.046438 0 -0.00312906)
(0.0386927 0 -0.00259884)
(0.0302181 0 -0.00202405)
(0.0209524 0 -0.00140037)
(0.0108258 0 -0.000722494)
(0 0 0)
(0.105518 0 -0.00674423)
(0.104051 0 -0.00670585)
(0.102375 0 -0.00664486)
(0.100476 0 -0.00656006)
(0.0983387 0 -0.00645056)
(0.0959456 0 -0.00631559)
(0.0932786 0 -0.00615451)
(0.090317 0 -0.00596675)
(0.0870378 0 -0.00575176)
(0.0834158 0 -0.00550902)
(0.0794226 0 -0.00523794)
(0.0750274 0 -0.00493783)
(0.0701958 0 -0.00460784)
(0.0648906 0 -0.0042469)
(0.059071 0 -0.00385361)
(0.0526928 0 -0.00342623)
(0.0457084 0 -0.0029626)
(0.0380666 0 -0.00246002)
(0.029713 0 -0.00191526)
(0.0205898 0 -0.0013245)
(0.0106327 0 -0.000683028)
(0 0 0)
(0.103882 0 -0.00632843)
(0.102449 0 -0.00629132)
(0.100811 0 -0.00623355)
(0.0989525 0 -0.00615392)
(0.0968571 0 -0.0060515)
(0.0945082 0 -0.00592549)
(0.091887 0 -0.00577518)
(0.0889728 0 -0.00559992)
(0.0857428 0 -0.00539912)
(0.0821717 0 -0.00517218)
(0.0782321 0 -0.00491847)
(0.0738934 0 -0.00463728)
(0.0691227 0 -0.00432778)
(0.0638837 0 -0.00398891)
(0.0581374 0 -0.00361939)
(0.0518415 0 -0.00321762)
(0.0449509 0 -0.00278164)
(0.0374174 0 -0.00230906)
(0.0291899 0 -0.00179699)
(0.0202149 0 -0.00124207)
(0.0104333 0 -0.000640198)
(0 0 0)
(0.102251 0 -0.00588919)
(0.100849 0 -0.00585332)
(0.0992444 0 -0.00579865)
(0.0974214 0 -0.005724)
(0.0953644 0 -0.00562848)
(0.0930561 0 -0.00551126)
(0.0904776 0 -0.00537161)
(0.0876083 0 -0.00520886)
(0.0844254 0 -0.00502239)
(0.080904 0 -0.00481156)
(0.0770172 0 -0.00457573)
(0.0727351 0 -0.00431421)
(0.0680256 0 -0.00402617)
(0.0628539 0 -0.00371065)
(0.0571825 0 -0.00336645)
(0.0509711 0 -0.00299214)
(0.0441768 0 -0.00258597)
(0.0367544 0 -0.0021458)
(0.0286562 0 -0.00166914)
(0.0198329 0 -0.00115306)
(0.0102303 0 -0.000593997)
(0 0 0)
(0.10065 0 -0.00542264)
(0.0992735 0 -0.00538812)
(0.0976978 0 -0.00533663)
(0.0959066 0 -0.00526702)
(0.093884 0 -0.00517845)
(0.0916126 0 -0.0050701)
(0.0890736 0 -0.00494128)
(0.0862462 0 -0.00479129)
(0.083108 0 -0.00461952)
(0.0796344 0 -0.00442536)
(0.0757988 0 -0.00420816)
(0.0715722 0 -0.00396727)
(0.0669235 0 -0.00370191)
(0.0618189 0 -0.00341119)
(0.0562225 0 -0.00309404)
(0.050096 0 -0.0027492)
(0.0433988 0 -0.00237512)
(0.0360883 0 -0.00196995)
(0.0281205 0 -0.00153153)
(0.0194497 0 -0.00105734)
(0.0100269 0 -0.000544378)
(0 0 0)
(0.0991015 0 -0.00492431)
(0.0977474 0 -0.00489144)
(0.0961968 0 -0.00484339)
(0.0944335 0 -0.00477909)
(0.0924415 0 -0.00469775)
(0.0902034 0 -0.00459862)
(0.0877003 0 -0.00448103)
(0.0849117 0 -0.00434433)
(0.0818152 0 -0.00418793)
(0.0783867 0 -0.00401125)
(0.0746 0 -0.0038137)
(0.070427 0 -0.00359465)
(0.0658372 0 -0.00335341)
(0.0607982 0 -0.0030892)
(0.0552755 0 -0.00280107)
(0.0492326 0 -0.00248791)
(0.0426311 0 -0.0021484)
(0.0354313 0 -0.00178097)
(0.0275921 0 -0.00138378)
(0.0190719 0 -0.000954712)
(0.00982637 0 -0.00049124)
(0 0 0)
(0.0976339 0 -0.00438904)
(0.0962986 0 -0.00435826)
(0.0947695 0 -0.00431409)
(0.0930304 0 -0.00425558)
(0.0910653 0 -0.004182)
(0.0888567 0 -0.00409269)
(0.0863858 0 -0.00398703)
(0.0836323 0 -0.00386443)
(0.0805741 0 -0.00372436)
(0.0771874 0 -0.00356629)
(0.0734464 0 -0.0033897)
(0.0693238 0 -0.00319402)
(0.0647899 0 -0.00297866)
(0.0598135 0 -0.00274294)
(0.0543615 0 -0.00248605)
(0.0483989 0 -0.00220706)
(0.0418897 0 -0.00190486)
(0.0347966 0 -0.00157814)
(0.0270816 0 -0.00122538)
(0.0187069 0 -0.000844831)
(0.00963267 0 -0.000434426)
(0 0 0)
(0.0962778 0 -0.0038108)
(0.0949581 0 -0.00378269)
(0.0934472 0 -0.00374304)
(0.0917287 0 -0.00369101)
(0.0897866 0 -0.00362598)
(0.0876036 0 -0.00354737)
(0.0851611 0 -0.00345463)
(0.0824387 0 -0.00334728)
(0.0794147 0 -0.00322484)
(0.0760657 0 -0.00308685)
(0.0723664 0 -0.00293287)
(0.0682899 0 -0.00276244)
(0.0638076 0 -0.00257506)
(0.0588892 0 -0.00237015)
(0.0535029 0 -0.00214707)
(0.0476154 0 -0.00190505)
(0.0411925 0 -0.0016432)
(0.0341994 0 -0.00136046)
(0.026601 0 -0.0010556)
(0.0183631 0 -0.000727236)
(0.00945011 0 -0.00037371)
(0 0 0)
(0.0950677 0 -0.00318249)
(0.0937607 0 -0.0031578)
(0.0922646 0 -0.0031235)
(0.0905631 0 -0.00307889)
(0.0886403 0 -0.00302346)
(0.0864789 0 -0.00295674)
(0.0840604 0 -0.00287827)
(0.0813648 0 -0.00278766)
(0.0783704 0 -0.00268451)
(0.0750541 0 -0.00256848)
(0.0713914 0 -0.0024392)
(0.0673557 0 -0.0022963)
(0.0629192 0 -0.00213939)
(0.0580525 0 -0.00196804)
(0.052725 0 -0.00178173)
(0.0469049 0 -0.00157988)
(0.0405597 0 -0.00136179)
(0.0336568 0 -0.00112665)
(0.0261638 0 -0.000873517)
(0.0180499 0 -0.000601321)
(0.00928361 0 -0.000308792)
(0 0 0)
(0.0940427 0 -0.0024957)
(0.0927454 0 -0.00247535)
(0.0912609 0 -0.00244745)
(0.0895729 0 -0.00241147)
(0.0876654 0 -0.00236701)
(0.0855213 0 -0.00231371)
(0.0831223 0 -0.00225124)
(0.0804484 0 -0.00217929)
(0.0774783 0 -0.00209757)
(0.0741892 0 -0.00200582)
(0.0705568 0 -0.00190378)
(0.0665552 0 -0.00179119)
(0.0621572 0 -0.00166776)
(0.0573341 0 -0.00153318)
(0.0520564 0 -0.00138709)
(0.0462934 0 -0.00122907)
(0.0400144 0 -0.00105861)
(0.0331884 0 -0.000875136)
(0.0257857 0 -0.000677962)
(0.0177783 0 -0.00046632)
(0.00913891 0 -0.000239297)
(0 0 0)
(0.0932466 0 -0.00174041)
(0.0919563 0 -0.00172551)
(0.0904802 0 -0.00170534)
(0.0888019 0 -0.00167951)
(0.0869057 0 -0.00164776)
(0.0847744 0 -0.00160985)
(0.0823898 0 -0.00156555)
(0.0797322 0 -0.00151467)
(0.0767804 0 -0.00145703)
(0.0735118 0 -0.00139246)
(0.0699025 0 -0.00132079)
(0.0659269 0 -0.00124185)
(0.0615584 0 -0.00115548)
(0.056769 0 -0.00106148)
(0.0515297 0 -0.000959629)
(0.045811 0 -0.00084965)
(0.0395832 0 -0.000731234)
(0.0328173 0 -0.000604004)
(0.0254851 0 -0.000467528)
(0.0175616 0 -0.000321311)
(0.00902293 0 -0.000164767)
(0 0 0)
(0.0927292 0 -0.000904595)
(0.0914432 0 -0.000896536)
(0.0899722 0 -0.000885723)
(0.0882999 0 -0.000871957)
(0.0864106 0 -0.000855108)
(0.0842872 0 -0.000835053)
(0.0819117 0 -0.000811686)
(0.0792642 0 -0.000784909)
(0.0763239 0 -0.000754637)
(0.0730683 0 -0.000720789)
(0.0694736 0 -0.000683291)
(0.0655146 0 -0.000642068)
(0.061165 0 -0.000597039)
(0.0563971 0 -0.000548114)
(0.0511825 0 -0.000495189)
(0.0454924 0 -0.000438137)
(0.0392978 0 -0.000376808)
(0.0325707 0 -0.000311023)
(0.0252845 0 -0.000240572)
(0.017416 0 -0.000165215)
(0.00894446 0 -8.46689e-05)
(0 0 0)
(0.0925467 0 0)
(0.091262 0 0)
(0.0897927 0 0)
(0.0881225 0 0)
(0.0862355 0 0)
(0.0841149 0 0)
(0.0817424 0 0)
(0.0790985 0 0)
(0.0761622 0 0)
(0.0729111 0 0)
(0.0693215 0 0)
(0.0653683 0 0)
(0.0610253 0 0)
(0.0562649 0 0)
(0.051059 0 0)
(0.045379 0 0)
(0.0391962 0 0)
(0.0324828 0 0)
(0.025213 0 0)
(0.0173641 0 0)
(0.00891703 0 0)
(0 0 0)
(0.115825 0 -0.0120226)
(0.113002 0 -0.011616)
(0.110193 0 -0.0111792)
(0.117234 0 -0.0118449)
(0.114427 0 -0.0114924)
(0.111596 0 -0.0111025)
(0.108732 0 -0.010682)
(0.10581 0 -0.0102365)
(0.118219 0 -0.0116249)
(0.115475 0 -0.0113243)
(0.112671 0 -0.0109807)
(0.109798 0 -0.0106009)
(0.106843 0 -0.0101908)
(0.103782 0 -0.00975546)
(0.118822 0 -0.0113735)
(0.116171 0 -0.0111205)
(0.113424 0 -0.0108206)
(0.110579 0 -0.0104805)
(0.107624 0 -0.0101059)
(0.104541 0 -0.00970165)
(0.101303 0 -0.00927196)
(0.0978778 0 -0.00882015)
(0.119087 0 -0.0110994)
(0.116546 0 -0.0108885)
(0.113879 0 -0.0106287)
(0.111085 0 -0.010326)
(0.108156 0 -0.00998574)
(0.105076 0 -0.00961246)
(0.101822 0 -0.00921018)
(0.0983674 0 -0.00878217)
(0.094676 0 -0.00833109)
(0.0907083 0 -0.00785889)
(0.119057 0 -0.0108094)
(0.116633 0 -0.0106349)
(0.114058 0 -0.0104109)
(0.111331 0 -0.0101425)
(0.108446 0 -0.00983451)
(0.105389 0 -0.0094911)
(0.102141 0 -0.00911596)
(0.098677 0 -0.00871216)
(0.0949639 0 -0.00828222)
(0.0909651 0 -0.00782804)
(0.0866378 0 -0.00735087)
(0.118767 0 -0.0105084)
(0.116462 0 -0.0103645)
(0.113985 0 -0.0101717)
(0.111335 0 -0.00993418)
(0.108507 0 -0.00965599)
(0.105488 0 -0.00934079)
(0.102262 0 -0.00899186)
(0.0988047 0 -0.008612)
(0.0950869 0 -0.00820355)
(0.0910736 0 -0.00776823)
(0.0867245 0 -0.00730719)
(0.0819944 0 -0.00682098)
(0.076833 0 -0.00630936)
(0.118251 0 -0.0101997)
(0.116061 0 -0.010081)
(0.113683 0 -0.00991488)
(0.111115 0 -0.00970465)
(0.108352 0 -0.0094535)
(0.105383 0 -0.00916449)
(0.10219 0 -0.00884043)
(0.0987534 0 -0.0084838)
(0.0950445 0 -0.00809665)
(0.091031 0 -0.00768057)
(0.0866746 0 -0.00723656)
(0.0819324 0 -0.0067651)
(0.0767559 0 -0.00626591)
(0.0710904 0 -0.00573791)
(0.117535 0 -0.0098854)
(0.115454 0 -0.00978696)
(0.113173 0 -0.00964332)
(0.11069 0 -0.00945677)
(0.107997 0 -0.00922977)
(0.105084 0 -0.00896473)
(0.101934 0 -0.00866397)
(0.0985282 0 -0.00832955)
(0.0948397 0 -0.00796322)
(0.0908378 0 -0.00756636)
(0.0864865 0 -0.00713985)
(0.0817445 0 -0.00668405)
(0.0765651 0 -0.00619859)
(0.0708958 0 -0.00568241)
(0.0646797 0 -0.00513369)
(0.0578542 0 -0.00454962)
(0.116645 0 -0.00956635)
(0.114665 0 -0.00948398)
(0.112477 0 -0.00935894)
(0.110076 0 -0.0091927)
(0.107455 0 -0.008987)
(0.104603 0 -0.00874365)
(0.101503 0 -0.00846444)
(0.0981361 0 -0.00815102)
(0.0944773 0 -0.00780482)
(0.0904973 0 -0.00742694)
(0.0861614 0 -0.0070181)
(0.0814303 0 -0.00657852)
(0.0762592 0 -0.00610783)
(0.0705978 0 -0.00560495)
(0.0643912 0 -0.00506813)
(0.0575787 0 -0.00449463)
(0.0500918 0 -0.00388065)
(0.115601 0 -0.00924264)
(0.113714 0 -0.00917276)
(0.111613 0 -0.00906293)
(0.109293 0 -0.00891391)
(0.106744 0 -0.00872682)
(0.103954 0 -0.00850292)
(0.100908 0 -0.00824348)
(0.0975859 0 -0.00794975)
(0.0939641 0 -0.00762281)
(0.0900142 0 -0.00726351)
(0.0857029 0 -0.00687234)
(0.0809924 0 -0.00644941)
(0.0758396 0 -0.00599428)
(0.0701965 0 -0.0055059)
(0.0640097 0 -0.00498251)
(0.0572206 0 -0.0044215)
(0.0497635 0 -0.00381925)
(0.0415676 0 -0.00317116)
(0.0325563 0 -0.00247139)
(0.114425 0 -0.00891381)
(0.112621 0 -0.00885341)
(0.110601 0 -0.00875583)
(0.108356 0 -0.00862129)
(0.105877 0 -0.00845034)
(0.10315 0 -0.00824375)
(0.10016 0 -0.00800235)
(0.0968876 0 -0.00772697)
(0.0933085 0 -0.00741838)
(0.0893954 0 -0.00707713)
(0.0851164 0 -0.00670353)
(0.0804348 0 -0.00629754)
(0.0753094 0 -0.00585863)
(0.0696938 0 -0.00538575)
(0.0635366 0 -0.00487719)
(0.0567812 0 -0.00433044)
(0.0493647 0 -0.0037421)
(0.0412195 0 -0.00310788)
(0.0322712 0 -0.00242227)
(0.0224363 0 -0.00167832)
(0.113134 0 -0.00857881)
(0.111404 0 -0.0085254)
(0.109458 0 -0.00843761)
(0.107284 0 -0.00831515)
(0.104871 0 -0.00815816)
(0.102207 0 -0.00796694)
(0.0992739 0 -0.00774193)
(0.0960527 0 -0.00748361)
(0.0925202 0 -0.00719242)
(0.0886492 0 -0.00686867)
(0.0844088 0 -0.00651247)
(0.0797635 0 -0.00612361)
(0.0746734 0 -0.00570151)
(0.0690939 0 -0.00524507)
(0.0629754 0 -0.00475263)
(0.0562635 0 -0.00422181)
(0.0488979 0 -0.00364943)
(0.0408136 0 -0.00303144)
(0.0319393 0 -0.00236269)
(0.0221962 0 -0.00163684)
(0.0114925 0 -0.000845802)
(0.111744 0 -0.00823594)
(0.110081 0 -0.00818767)
(0.1082 0 -0.00810767)
(0.106092 0 -0.00799533)
(0.103743 0 -0.00785039)
(0.101139 0 -0.00767282)
(0.0982623 0 -0.00746272)
(0.095094 0 -0.00722026)
(0.0916107 0 -0.0069456)
(0.0877859 0 -0.00663881)
(0.0835891 0 -0.0062998)
(0.078986 0 -0.00592824)
(0.0739381 0 -0.00552345)
(0.0684023 0 -0.00508434)
(0.0623309 0 -0.00460926)
(0.0556714 0 -0.00409598)
(0.0483665 0 -0.00354151)
(0.0403533 0 -0.00294204)
(0.0315637 0 -0.00229283)
(0.0219237 0 -0.00158807)
(0.0113464 0 -0.000820368)
(0 0 0)
(0.110271 0 -0.00788332)
(0.108666 0 -0.00783878)
(0.106846 0 -0.00776502)
(0.104798 0 -0.00766116)
(0.102508 0 -0.0075267)
(0.0999613 0 -0.00736133)
(0.0971404 0 -0.00716486)
(0.0940253 0 -0.00693719)
(0.0905928 0 -0.00667826)
(0.0868169 0 -0.00638794)
(0.0826677 0 -0.00606595)
(0.0781118 0 -0.00571185)
(0.0731119 0 -0.0053249)
(0.0676264 0 -0.00490396)
(0.0616094 0 -0.00444747)
(0.0550107 0 -0.0039533)
(0.0477751 0 -0.00341864)
(0.0398427 0 -0.00283999)
(0.0311488 0 -0.00221297)
(0.0216228 0 -0.00153226)
(0.0111842 0 -0.000791207)
(0 0 0)
(0.108731 0 -0.00751881)
(0.107178 0 -0.00747696)
(0.105412 0 -0.00740825)
(0.103418 0 -0.0073116)
(0.101184 0 -0.00718635)
(0.0986914 0 -0.00703196)
(0.0959243 0 -0.00684805)
(0.0928617 0 -0.0066343)
(0.0894808 0 -0.00639045)
(0.0857555 0 -0.00611619)
(0.0816567 0 -0.00581112)
(0.0771519 0 -0.00547469)
(0.0722047 0 -0.0051061)
(0.0667751 0 -0.00470422)
(0.060819 0 -0.00426753)
(0.0542881 0 -0.00379402)
(0.0471298 0 -0.0032811)
(0.0392871 0 -0.00272553)
(0.0306986 0 -0.00212332)
(0.021298 0 -0.00146966)
(0.0110103 0 -0.00075857)
(0 0 0)
(0.107141 0 -0.00714001)
(0.105634 0 -0.00710013)
(0.103916 0 -0.00703558)
(0.101972 0 -0.00694519)
(0.0997875 0 -0.00682816)
(0.0973467 0 -0.00668383)
(0.0946309 0 -0.00651163)
(0.0916197 0 -0.00631111)
(0.08829 0 -0.00608184)
(0.0846163 0 -0.00582339)
(0.0805699 0 -0.00553524)
(0.0761189 0 -0.00521677)
(0.0712282 0 -0.00486714)
(0.0658591 0 -0.00448523)
(0.0599692 0 -0.00406958)
(0.0535122 0 -0.00361832)
(0.046438 0 -0.00312906)
(0.0386927 0 -0.00259884)
(0.0302181 0 -0.00202405)
(0.0209524 0 -0.00140037)
(0.0108258 0 -0.000722494)
(0 0 0)
(0.105518 0 -0.00674423)
(0.104051 0 -0.00670585)
(0.102375 0 -0.00664486)
(0.100476 0 -0.00656006)
(0.0983387 0 -0.00645056)
(0.0959456 0 -0.00631559)
(0.0932786 0 -0.00615451)
(0.090317 0 -0.00596675)
(0.0870378 0 -0.00575176)
(0.0834158 0 -0.00550902)
(0.0794226 0 -0.00523794)
(0.0750274 0 -0.00493783)
(0.0701958 0 -0.00460784)
(0.0648906 0 -0.0042469)
(0.059071 0 -0.00385361)
(0.0526928 0 -0.00342623)
(0.0457084 0 -0.0029626)
(0.0380666 0 -0.00246002)
(0.029713 0 -0.00191526)
(0.0205898 0 -0.0013245)
(0.0106327 0 -0.000683028)
(0 0 0)
(0.103882 0 -0.00632843)
(0.102449 0 -0.00629132)
(0.100811 0 -0.00623355)
(0.0989525 0 -0.00615392)
(0.0968571 0 -0.0060515)
(0.0945082 0 -0.00592549)
(0.091887 0 -0.00577518)
(0.0889728 0 -0.00559992)
(0.0857428 0 -0.00539912)
(0.0821717 0 -0.00517218)
(0.0782321 0 -0.00491847)
(0.0738934 0 -0.00463728)
(0.0691227 0 -0.00432778)
(0.0638837 0 -0.00398891)
(0.0581374 0 -0.00361939)
(0.0518415 0 -0.00321762)
(0.0449509 0 -0.00278164)
(0.0374174 0 -0.00230906)
(0.0291899 0 -0.00179699)
(0.0202149 0 -0.00124207)
(0.0104333 0 -0.000640198)
(0 0 0)
(0.102251 0 -0.00588919)
(0.100849 0 -0.00585332)
(0.0992444 0 -0.00579865)
(0.0974214 0 -0.005724)
(0.0953644 0 -0.00562848)
(0.0930561 0 -0.00551126)
(0.0904776 0 -0.00537161)
(0.0876083 0 -0.00520886)
(0.0844254 0 -0.00502239)
(0.080904 0 -0.00481156)
(0.0770172 0 -0.00457573)
(0.0727351 0 -0.00431421)
(0.0680256 0 -0.00402617)
(0.0628539 0 -0.00371065)
(0.0571825 0 -0.00336645)
(0.0509711 0 -0.00299214)
(0.0441768 0 -0.00258597)
(0.0367544 0 -0.0021458)
(0.0286562 0 -0.00166914)
(0.0198329 0 -0.00115306)
(0.0102303 0 -0.000593997)
(0 0 0)
(0.10065 0 -0.00542264)
(0.0992735 0 -0.00538812)
(0.0976978 0 -0.00533663)
(0.0959066 0 -0.00526702)
(0.093884 0 -0.00517845)
(0.0916126 0 -0.0050701)
(0.0890736 0 -0.00494128)
(0.0862462 0 -0.00479129)
(0.083108 0 -0.00461952)
(0.0796344 0 -0.00442536)
(0.0757988 0 -0.00420816)
(0.0715722 0 -0.00396727)
(0.0669235 0 -0.00370191)
(0.0618189 0 -0.00341119)
(0.0562225 0 -0.00309404)
(0.050096 0 -0.0027492)
(0.0433988 0 -0.00237512)
(0.0360883 0 -0.00196995)
(0.0281205 0 -0.00153153)
(0.0194497 0 -0.00105734)
(0.0100269 0 -0.000544378)
(0 0 0)
(0.0991015 0 -0.00492431)
(0.0977474 0 -0.00489144)
(0.0961968 0 -0.00484339)
(0.0944335 0 -0.00477909)
(0.0924415 0 -0.00469775)
(0.0902034 0 -0.00459862)
(0.0877003 0 -0.00448103)
(0.0849117 0 -0.00434433)
(0.0818152 0 -0.00418793)
(0.0783867 0 -0.00401125)
(0.0746 0 -0.0038137)
(0.070427 0 -0.00359465)
(0.0658372 0 -0.00335341)
(0.0607982 0 -0.0030892)
(0.0552755 0 -0.00280107)
(0.0492326 0 -0.00248791)
(0.0426311 0 -0.0021484)
(0.0354313 0 -0.00178097)
(0.0275921 0 -0.00138378)
(0.0190719 0 -0.000954712)
(0.00982637 0 -0.00049124)
(0 0 0)
(0.0976339 0 -0.00438904)
(0.0962986 0 -0.00435826)
(0.0947695 0 -0.00431409)
(0.0930304 0 -0.00425558)
(0.0910653 0 -0.004182)
(0.0888567 0 -0.00409269)
(0.0863858 0 -0.00398703)
(0.0836323 0 -0.00386443)
(0.0805741 0 -0.00372436)
(0.0771874 0 -0.00356629)
(0.0734464 0 -0.0033897)
(0.0693238 0 -0.00319402)
(0.0647899 0 -0.00297866)
(0.0598135 0 -0.00274294)
(0.0543615 0 -0.00248605)
(0.0483989 0 -0.00220706)
(0.0418897 0 -0.00190486)
(0.0347966 0 -0.00157814)
(0.0270816 0 -0.00122538)
(0.0187069 0 -0.000844831)
(0.00963267 0 -0.000434426)
(0 0 0)
(0.0962778 0 -0.0038108)
(0.0949581 0 -0.00378269)
(0.0934472 0 -0.00374304)
(0.0917287 0 -0.00369101)
(0.0897866 0 -0.00362598)
(0.0876036 0 -0.00354737)
(0.0851611 0 -0.00345463)
(0.0824387 0 -0.00334728)
(0.0794147 0 -0.00322484)
(0.0760657 0 -0.00308685)
(0.0723664 0 -0.00293287)
(0.0682899 0 -0.00276244)
(0.0638076 0 -0.00257506)
(0.0588892 0 -0.00237015)
(0.0535029 0 -0.00214707)
(0.0476154 0 -0.00190505)
(0.0411925 0 -0.0016432)
(0.0341994 0 -0.00136046)
(0.026601 0 -0.0010556)
(0.0183631 0 -0.000727236)
(0.00945011 0 -0.00037371)
(0 0 0)
(0.0950677 0 -0.00318249)
(0.0937607 0 -0.0031578)
(0.0922646 0 -0.0031235)
(0.0905631 0 -0.00307889)
(0.0886403 0 -0.00302346)
(0.0864789 0 -0.00295674)
(0.0840604 0 -0.00287827)
(0.0813648 0 -0.00278766)
(0.0783704 0 -0.00268451)
(0.0750541 0 -0.00256848)
(0.0713914 0 -0.0024392)
(0.0673557 0 -0.0022963)
(0.0629192 0 -0.00213939)
(0.0580525 0 -0.00196804)
(0.052725 0 -0.00178173)
(0.0469049 0 -0.00157988)
(0.0405597 0 -0.00136179)
(0.0336568 0 -0.00112665)
(0.0261638 0 -0.000873517)
(0.0180499 0 -0.000601321)
(0.00928361 0 -0.000308792)
(0 0 0)
(0.0940427 0 -0.0024957)
(0.0927454 0 -0.00247535)
(0.0912609 0 -0.00244745)
(0.0895729 0 -0.00241147)
(0.0876654 0 -0.00236701)
(0.0855213 0 -0.00231371)
(0.0831223 0 -0.00225124)
(0.0804484 0 -0.00217929)
(0.0774783 0 -0.00209757)
(0.0741892 0 -0.00200582)
(0.0705568 0 -0.00190378)
(0.0665552 0 -0.00179119)
(0.0621572 0 -0.00166776)
(0.0573341 0 -0.00153318)
(0.0520564 0 -0.00138709)
(0.0462934 0 -0.00122907)
(0.0400144 0 -0.00105861)
(0.0331884 0 -0.000875136)
(0.0257857 0 -0.000677962)
(0.0177783 0 -0.00046632)
(0.00913891 0 -0.000239297)
(0 0 0)
(0.0932466 0 -0.00174041)
(0.0919563 0 -0.00172551)
(0.0904802 0 -0.00170534)
(0.0888019 0 -0.00167951)
(0.0869057 0 -0.00164776)
(0.0847744 0 -0.00160985)
(0.0823898 0 -0.00156555)
(0.0797322 0 -0.00151467)
(0.0767804 0 -0.00145703)
(0.0735118 0 -0.00139246)
(0.0699025 0 -0.00132079)
(0.0659269 0 -0.00124185)
(0.0615584 0 -0.00115548)
(0.056769 0 -0.00106148)
(0.0515297 0 -0.000959629)
(0.045811 0 -0.00084965)
(0.0395832 0 -0.000731234)
(0.0328173 0 -0.000604004)
(0.0254851 0 -0.000467528)
(0.0175616 0 -0.000321311)
(0.00902293 0 -0.000164767)
(0 0 0)
(0.0927292 0 -0.000904595)
(0.0914432 0 -0.000896536)
(0.0899722 0 -0.000885723)
(0.0882999 0 -0.000871957)
(0.0864106 0 -0.000855108)
(0.0842872 0 -0.000835053)
(0.0819117 0 -0.000811686)
(0.0792642 0 -0.000784909)
(0.0763239 0 -0.000754637)
(0.0730683 0 -0.000720789)
(0.0694736 0 -0.000683291)
(0.0655146 0 -0.000642068)
(0.061165 0 -0.000597039)
(0.0563971 0 -0.000548114)
(0.0511825 0 -0.000495189)
(0.0454924 0 -0.000438137)
(0.0392978 0 -0.000376808)
(0.0325707 0 -0.000311023)
(0.0252845 0 -0.000240572)
(0.017416 0 -0.000165215)
(0.00894446 0 -8.46689e-05)
(0 0 0)
(0.0925467 0 0)
(0.091262 0 0)
(0.0897927 0 0)
(0.0881225 0 0)
(0.0862355 0 0)
(0.0841149 0 0)
(0.0817424 0 0)
(0.0790985 0 0)
(0.0761622 0 0)
(0.0729111 0 0)
(0.0693215 0 0)
(0.0653683 0 0)
(0.0610253 0 0)
(0.0562649 0 0)
(0.051059 0 0)
(0.045379 0 0)
(0.0391962 0 0)
(0.0324828 0 0)
(0.025213 0 0)
(0.0173641 0 0)
(0.00891703 0 0)
(0 0 0)
)
;

boundaryField
{
    inlet
    {
        type            fixedValue;
        value           nonuniform 0();
    }
    outlet
    {
        type            fixedValue;
        value           uniform (0 0 0);
    }
    flap
    {
        type            fixedValue;
        value           nonuniform 0();
    }
    upperWall
    {
        type            slip;
    }
    lowerWall
    {
        type            slip;
    }
    frontAndBack
    {
        type            empty;
    }
    procBoundary2to1
    {
        type            processor;
    }
    procBoundary2to4
    {
        type            processor;
    }
    procBoundary2to5
    {
        type            processor;
    }
}


// ************************************************************************* //
