/*--------------------------------*- C++ -*----------------------------------*\
| =========                 |                                                 |
| \\      /  F ield         | OpenFOAM: The Open Source CFD Toolbox           |
|  \\    /   O peration     | Version:  dev                                   |
|   \\  /    A nd           | Web:      www.OpenFOAM.org                      |
|    \\/     M anipulation  |                                                 |
\*---------------------------------------------------------------------------*/
FoamFile
{
    version     2.0;
    format      ascii;
    class       volVectorField;
    location    "4.66";
    object      U;
}
// * * * * * * * * * * * * * * * * * * * * * * * * * * * * * * * * * * * * * //

dimensions      [0 1 -1 0 0 0 0];

internalField   nonuniform List<vector> 
465
(
(9.78801 3.29602e-19 4.92689)
(10.0862 3.13567e-19 4.84325)
(10.2221 -1.6398e-19 5.25504)
(10.3967 -5.39807e-19 5.68493)
(10.362 0 4.72872)
(10.5212 0 5.10358)
(10.7164 1.48904e-19 5.48857)
(10.9524 0 5.87884)
(11.2335 0 6.26769)
(10.6132 -1.43579e-19 4.58873)
(10.7892 0 4.92738)
(10.9976 -7.04024e-20 5.26998)
(11.2416 -7.01242e-20 5.61167)
(11.5234 -1.31967e-19 5.94631)
(11.8442 1.70437e-21 6.26682)
(12.2043 3.55425e-19 6.56482)
(10.8389 1.40603e-19 4.42822)
(11.0261 -6.75594e-20 4.73244)
(11.242 2.05398e-19 5.03605)
(11.4881 1.97051e-21 5.33461)
(11.7655 2.61088e-19 5.62284)
(12.0739 1.34861e-21 5.89497)
(12.4124 0 6.14478)
(12.7735 -5.60203e-20 6.36573)
(13.2023 -3.08378e-19 6.55563)
(11.0389 -1.49241e-19 4.25162)
(11.233 -2.6089e-19 4.5238)
(11.4518 2.6137e-19 4.7922)
(11.696 -1.28649e-19 5.05292)
(11.9656 2.42578e-19 5.3016)
(12.2598 -6.59936e-20 5.53364)
(12.5768 0 5.74439)
(12.9101 -2.70385e-19 5.92912)
(13.2983 2.71971e-19 6.08637)
(11.2139 2.25836e-21 4.06273)
(11.4112 3.19653e-21 4.30553)
(11.6296 1.25534e-19 4.54248)
(11.8692 6.12473e-20 4.77025)
(12.1292 0 4.98531)
(12.4083 -5.89231e-20 5.18409)
(12.7047 -5.67772e-20 5.36317)
(13.0127 0 5.51922)
(13.3662 0 5.65149)
(11.3649 -4.39703e-22 3.86472)
(11.5627 2.41571e-19 4.08088)
(11.7784 -3.08122e-19 4.28992)
(12.0114 -6.00677e-20 4.48911)
(12.2608 0 4.67564)
(12.525 -2.23479e-19 4.84677)
(12.8021 6.6486e-20 5.00004)
(13.0874 2.21283e-19 5.13314)
(13.4109 4.03293e-19 5.24582)
(11.4933 0 3.66022)
(11.6897 -5.88576e-20 3.85237)
(11.9009 -5.90259e-20 4.03677)
(12.1262 0 4.21119)
(12.3646 0 4.37345)
(12.6143 -2.18367e-19 4.5215)
(12.8737 2.22642e-19 4.65354)
(13.1387 0 4.76802)
(13.4363 -2.59045e-20 4.86505)
(11.6009 0 3.45133)
(11.7942 5.76721e-20 3.62196)
(11.9999 0 3.78463)
(12.2169 -2.20754e-19 3.93757)
(12.4443 3.8731e-19 4.07911)
(12.6804 -3.80771e-19 4.20773)
(12.9235 1.64312e-19 4.32216)
(13.1704 4.08534e-19 4.42134)
(13.4456 -3.65935e-19 4.50563)
(11.6893 0 3.23975)
(11.8785 0 3.39111)
(12.0779 0 3.53462)
(12.2865 5.43061e-20 3.6689)
(12.5031 -1.57789e-19 3.79266)
(12.7264 1.6283e-19 3.9048)
(12.9548 5.22848e-20 4.00443)
(13.1855 0 4.09087)
(13.4411 -4.17502e-19 4.1646)
(11.585 5.44112e-20 2.88624)
(11.7604 -1.59571e-19 3.02676)
(11.9448 5.37562e-21 3.1609)
(12.1376 2.16479e-19 3.28749)
(12.3377 -4.07008e-22 3.40547)
(12.544 0 3.51389)
(12.7554 -4.07925e-19 3.61193)
(12.9703 4.1605e-19 3.69901)
(13.1866 0 3.77466)
(13.4251 0 3.83948)
(11.6443 0 2.68848)
(11.816 -2.59287e-19 2.81337)
(11.9952 2.10945e-19 2.93208)
(12.1812 0 3.04369)
(12.373 3.54897e-19 3.14739)
(12.5696 -4.65863e-19 3.24246)
(12.7699 0 3.32834)
(12.9727 0 3.40462)
(13.1761 0 3.47105)
(13.3994 0 3.52822)
(11.6905 5.04905e-20 2.48958)
(11.858 0 2.6003)
(12.0318 5.04081e-20 2.70516)
(12.211 5.02557e-20 2.80346)
(12.3949 0 2.89456)
(12.5823 4.99772e-20 2.97794)
(12.7724 -4.14564e-19 3.05323)
(12.9642 3.97713e-19 3.12015)
(13.156 -2.42484e-20 3.17857)
(13.3659 3.76164e-19 3.22909)
(11.7251 -4.94244e-20 2.29023)
(11.8882 -1.45692e-19 2.38808)
(12.0565 1.00411e-19 2.48047)
(12.2292 -4.92168e-20 2.56686)
(12.4054 3.8592e-19 2.64677)
(12.5843 -7.77553e-19 2.71985)
(12.7651 4.15735e-19 2.78582)
(12.9469 0 2.84452)
(13.1283 2.37589e-20 2.8959)
(13.3263 0 2.94054)
(11.7498 -4.39049e-20 2.0909)
(11.9084 1.92684e-19 2.17701)
(12.0712 3.78395e-19 2.25813)
(12.2376 -7.63262e-19 2.33382)
(12.4067 3.61388e-19 2.40374)
(12.5777 0 2.46764)
(12.75 -3.7256e-19 2.52533)
(12.9228 3.80117e-19 2.57674)
(13.0949 2.32936e-20 2.62185)
(13.2822 -3.52114e-19 2.66123)
(11.766 2.33659e-19 1.89188)
(11.9202 -3.13893e-22 1.96726)
(12.0778 4.14473e-19 2.03812)
(12.2381 -3.98701e-19 2.10413)
(12.4006 2.32447e-20 2.16505)
(12.5644 -3.88714e-19 2.2207)
(12.729 3.73117e-19 2.27097)
(12.8936 0 2.31583)
(13.0573 3.10044e-24 2.3553)
(13.2353 3.57166e-19 2.3899)
(11.7754 0 1.69335)
(11.9252 3.12436e-19 1.75885)
(12.0778 1.53163e-20 1.82031)
(12.2326 -3.42913e-19 1.87751)
(12.3889 -2.25619e-20 1.93026)
(12.5462 2.2605e-20 1.97844)
(12.7037 -3.55918e-19 2.02199)
(12.8611 3.63193e-19 2.0609)
(13.0174 3.19542e-19 2.09523)
(13.187 -3.71407e-19 2.12545)
(11.7793 -3.47259e-19 1.49523)
(11.925 3.76604e-19 1.55158)
(12.0729 -4.40345e-20 1.60439)
(12.2226 -2.19937e-20 1.65349)
(12.3733 7.74729e-23 1.69874)
(12.5246 0 1.74009)
(12.6759 -3.25868e-19 1.77748)
(12.8268 3.54971e-19 1.81095)
(12.9765 1.0936e-20 1.84053)
(13.1387 0 1.86668)
(11.7789 0 1.29755)
(11.9208 -2.14386e-20 1.34538)
(12.0645 3.61211e-19 1.39015)
(12.2095 1.47824e-20 1.43174)
(12.3552 -3.25794e-19 1.47007)
(12.5012 0 1.50508)
(12.647 3.07685e-19 1.53678)
(12.7922 -3.36188e-19 1.56519)
(12.9361 0 1.59037)
(13.0918 0 1.61269)
(11.7756 0 1.0997)
(11.914 -1.65095e-19 1.1395)
(12.0539 1.68628e-19 1.17673)
(12.1947 0 1.21129)
(12.336 3.32102e-19 1.24314)
(12.4774 -6.81198e-21 1.27225)
(12.6183 -3.39122e-19 1.29862)
(12.7585 -1.04879e-20 1.32227)
(12.8975 -1.04689e-20 1.34328)
(13.0477 0 1.36196)
(11.7704 -1.60256e-19 0.902105)
(11.9057 2.83027e-21 0.934286)
(12.0422 1.64342e-19 0.964368)
(12.1794 -1.01973e-20 0.992292)
(12.3169 -1.51836e-19 1.01802)
(12.4543 1.75687e-19 1.04154)
(12.5911 1.22281e-23 1.06287)
(12.7271 0 1.08203)
(12.8617 1.02402e-20 1.09908)
(13.0071 0 1.11429)
(11.7645 0 0.702694)
(11.8972 1.66731e-19 0.727562)
(12.0308 -1.60224e-19 0.750793)
(12.165 -1.47873e-19 0.772347)
(12.2992 1.51193e-19 0.792202)
(12.4333 -1.00058e-20 0.810354)
(12.5667 1.0014e-20 0.826815)
(12.6991 0 0.841612)
(12.8303 0 0.854784)
(12.9718 0 0.866553)
(11.7588 -1.52298e-19 0.503901)
(11.8893 1.45946e-19 0.52168)
(12.0205 0 0.538293)
(12.1522 0 0.553713)
(12.2838 0 0.567928)
(12.4151 0 0.580936)
(12.5457 0 0.59275)
(12.6753 -1.54968e-19 0.603389)
(12.8036 1.53265e-19 0.612883)
(12.9419 1.52179e-19 0.6214)
(11.7541 -8.01793e-20 0.299635)
(11.8829 7.46319e-20 0.310351)
(12.0123 -8.0964e-20 0.320346)
(12.1421 0 0.329608)
(12.2717 -7.53727e-20 0.338134)
(12.401 7.69594e-20 0.345925)
(12.5296 2.38692e-21 0.352993)
(12.6571 -7.56955e-20 0.359353)
(12.7834 8.44271e-20 0.365032)
(12.9195 -7.31775e-20 0.370147)
(11.5593 4.58166e-21 0.0988653)
(11.683 3.65173e-20 0.102785)
(11.8076 -3.26826e-20 0.106452)
(11.9327 0 0.109861)
(12.0579 -3.69044e-20 0.113007)
(12.1829 6.97758e-22 0.115891)
(12.3073 3.54256e-20 0.118513)
(12.4308 -3.70897e-20 0.120879)
(12.5533 3.55147e-20 0.122991)
(12.6853 0 0.124898)
(13.4455 -2.33622e-20 6.6307)
(13.5167 3.59545e-19 6.14918)
(13.7241 -1.53623e-20 6.20094)
(13.8991 -3.21374e-19 6.24342)
(13.5636 -3.60698e-19 5.70483)
(13.7508 -3.12575e-19 5.74919)
(13.9087 4.24569e-20 5.78604)
(13.5907 -1.40391e-18 5.29171)
(13.7609 6.57606e-19 5.33019)
(13.9044 4.94467e-22 5.36247)
(13.601 2.13369e-20 4.90494)
(13.7568 2.0597e-20 4.93869)
(13.8882 -1.99282e-20 4.96725)
(13.5974 6.93697e-19 4.54061)
(13.7408 -6.72169e-19 4.57046)
(13.8618 1.014e-20 4.59594)
(13.5817 6.63024e-19 4.19547)
(13.7145 0 4.22203)
(13.8266 6.25197e-19 4.24489)
(13.556 0 3.86686)
(13.6796 0 3.89058)
(13.7839 6.31246e-19 3.91116)
(13.5218 6.51642e-19 3.55256)
(13.6373 -1.28949e-18 3.5738)
(13.7348 6.27169e-19 3.59236)
(13.4807 -6.45721e-19 3.25075)
(13.5891 0 3.26977)
(13.6806 9.70614e-21 3.2865)
(13.4344 -9.96958e-21 2.95982)
(13.5365 0 2.97684)
(13.6228 6.1189e-19 2.99189)
(13.3844 6.345e-19 2.67833)
(13.4809 4.8354e-21 2.69352)
(13.5625 0 2.70701)
(13.3322 -1.01818e-20 2.40501)
(13.4238 -1.4335e-20 2.41849)
(13.5012 -6.02722e-19 2.4305)
(13.2793 0 2.13871)
(13.3665 0 2.15059)
(13.4403 -4.60674e-21 2.16121)
(13.227 0 1.8782)
(13.3103 0 1.88855)
(13.3809 5.75369e-19 1.89785)
(13.1765 -4.5694e-21 1.62257)
(13.2565 -5.74297e-19 1.63147)
(13.3242 6.56975e-21 1.63948)
(13.1292 4.47239e-21 1.37024)
(13.2063 2.20293e-21 1.37773)
(13.2716 4.34957e-21 1.38448)
(13.086 5.5736e-19 1.12106)
(13.1607 -5.54837e-19 1.12719)
(13.224 -2.1364e-21 1.13272)
(13.0486 0 0.871791)
(13.1212 2.6719e-19 0.87653)
(13.1827 1.35538e-21 0.880818)
(13.0169 -2.7042e-19 0.6252)
(13.0879 2.63616e-19 0.628634)
(13.1482 -2.65594e-19 0.631738)
(12.9932 1.3268e-19 0.372363)
(13.0629 0 0.374304)
(13.122 0 0.376037)
(12.7569 -5.04022e-22 0.125675)
(12.8247 0 0.126322)
(12.8823 6.26887e-20 0.126906)
(14.2173 0 6.29985)
(14.1963 3.59806e-19 5.84043)
(14.5034 2.04163e-20 5.86688)
(14.8401 1.73862e-19 5.85624)
(15.1676 -1.35311e-19 5.80459)
(14.1654 0 5.41253)
(14.4466 -4.08649e-20 5.44306)
(14.7607 -1.81912e-20 5.44728)
(15.0768 0 5.42146)
(15.3764 -1.16728e-19 5.36532)
(15.6535 1.18153e-19 5.28013)
(14.1268 -2.25276e-20 5.01282)
(14.3842 4.15199e-20 5.04368)
(14.6745 0 5.05486)
(14.9717 0 5.04331)
(15.261 0 5.00848)
(15.5382 -7.21159e-21 4.95087)
(15.8004 0 4.87148)
(16.0439 0 4.77192)
(14.0812 3.94818e-19 4.63742)
(14.318 -7.11728e-19 4.66727)
(14.586 3.40032e-19 4.68172)
(14.863 -2.77805e-19 4.67835)
(15.1365 2.72456e-19 4.65661)
(15.4038 -2.29206e-19 4.61672)
(15.6631 2.27628e-19 4.55922)
(15.9118 -3.23374e-21 4.48504)
(16.1466 -5.43345e-21 4.39552)
(14.0297 -3.86594e-19 4.28275)
(14.2486 2.08101e-20 4.31117)
(14.4967 -1.93662e-20 4.32719)
(14.7545 -9.24238e-21 4.32882)
(15.0112 2.6151e-19 4.31556)
(15.2649 -2.54524e-19 4.28754)
(15.5147 8.67621e-22 4.24505)
(15.7587 6.53114e-21 4.18869)
(15.9945 0 4.11939)
(13.9727 -3.6224e-19 3.94577)
(14.1763 0 3.97265)
(14.407 3.17976e-19 3.9894)
(14.6475 -2.92916e-19 3.99428)
(14.8882 0 3.98688)
(15.1277 -3.95941e-21 3.96722)
(15.3656 0 3.9355)
(15.6007 -3.29516e-21 3.89212)
(15.8311 -6.38098e-21 3.83776)
(13.9113 0 3.62398)
(14.1013 3.2875e-19 3.64928)
(14.3169 -1.33925e-20 3.66622)
(14.5421 -5.91293e-19 3.6733)
(14.7683 5.52404e-19 3.6701)
(14.9943 -2.62172e-19 3.65664)
(15.2202 -9.4996e-22 3.63302)
(15.4451 2.15517e-19 3.59951)
(15.6674 -2.11775e-19 3.5566)
(13.8462 0 3.31536)
(14.0245 -3.27047e-19 3.33901)
(14.2267 3.10831e-19 3.35574)
(14.4384 2.79967e-19 3.36424)
(14.6516 -2.83646e-19 3.36414)
(14.8653 -1.02552e-21 3.3554)
(15.0798 -9.87327e-22 3.33807)
(15.2944 2.19611e-19 3.31231)
(15.5079 -2.09066e-19 3.27846)
(13.7787 -3.50964e-19 3.01812)
(13.9466 3.245e-19 3.04006)
(14.1371 -1.1443e-20 3.05629)
(14.3368 -2.91501e-19 3.06564)
(14.5383 2.71434e-19 3.06778)
(14.7409 -2.65167e-19 3.06265)
(14.9449 1.87988e-21 3.05025)
(15.1499 0 3.03067)
(15.3548 0 3.00415)
(13.71 3.37329e-19 2.73074)
(13.8687 -6.51884e-19 2.75095)
(14.0487 6.19263e-19 2.76643)
(14.2378 -5.90369e-19 2.77619)
(14.429 2.81785e-19 2.7799)
(14.6215 -2.54804e-19 2.77749)
(14.816 2.49894e-19 2.76894)
(15.012 3.62031e-21 2.7543)
(15.2088 2.09081e-19 2.73371)
(13.6413 0 2.45182)
(13.7918 -3.17455e-19 2.47027)
(13.9626 6.12554e-19 2.48484)
(14.1422 -2.95499e-19 2.49464)
(14.3241 0 2.49936)
(14.5077 -2.54102e-19 2.49895)
(14.6935 2.49198e-19 2.49338)
(14.8814 -3.54616e-21 2.48266)
(15.0706 6.7921e-21 2.46688)
(13.5736 -5.1901e-21 2.18019)
(13.7169 0 2.19683)
(13.8796 0 2.21031)
(14.0509 -4.10375e-23 2.21983)
(14.2245 0 2.22513)
(14.4001 0 2.22614)
(14.5781 0 2.22283)
(14.7586 0 2.2152)
(14.9409 -2.16979e-19 2.20329)
(13.5084 -2.07542e-21 1.91455)
(13.6454 -3.21006e-19 1.92936)
(13.8009 4.67357e-21 1.94159)
(13.9648 4.41222e-21 1.95057)
(14.1312 0 1.95607)
(14.2996 -5.0041e-22 1.95802)
(14.4707 2.36623e-19 1.95639)
(14.6445 -2.28496e-19 1.95113)
(14.8205 0 1.94231)
(13.4467 3.23645e-19 1.65395)
(13.5781 4.79224e-21 1.6669)
(13.7274 -9.17323e-21 1.67778)
(13.8848 0 1.68601)
(14.0449 -2.61897e-19 1.6914)
(14.207 2.5678e-19 1.69389)
(14.372 0 1.69343)
(14.5399 4.12447e-23 1.68999)
(14.7103 -2.01751e-19 1.68359)
(13.3897 0 1.39673)
(13.5164 -2.93499e-19 1.40779)
(13.6602 1.21908e-20 1.4172)
(13.8121 2.81256e-19 1.4245)
(13.9666 -2.57183e-19 1.42952)
(14.1233 8.09466e-21 1.4322)
(14.283 2.39845e-19 1.43249)
(14.4457 3.35406e-23 1.43037)
(14.6111 -6.54458e-21 1.42584)
(13.3383 0 1.14279)
(13.461 -2.9736e-19 1.15194)
(13.6003 2.84773e-19 1.15982)
(13.7474 -2.10748e-21 1.16605)
(13.8973 2.52001e-22 1.17049)
(14.0494 -2.40978e-19 1.1731)
(14.2045 2.3631e-19 1.17382)
(14.3628 -3.42548e-21 1.17264)
(14.5239 -3.26451e-21 1.16956)
(13.294 -1.50082e-19 0.888661)
(13.4134 2.27087e-21 0.895849)
(13.5489 1.08159e-21 0.902085)
(13.6921 1.03826e-21 0.907078)
(13.838 -1.84596e-22 0.91072)
(13.9863 0 0.912975)
(14.1376 0 0.913815)
(14.2922 1.6983e-21 0.913221)
(14.4498 -2.1916e-23 0.91119)
(13.2572 1.44126e-19 0.637414)
(13.374 -2.86414e-19 0.642678)
(13.5065 2.74474e-19 0.647293)
(13.6466 -1.3288e-19 0.651028)
(13.7895 1.22235e-19 0.653805)
(13.9347 -1.19916e-19 0.655609)
(14.083 -1.11371e-19 0.656429)
(14.2346 1.06702e-19 0.65625)
(14.3893 1.5635e-21 0.655064)
(13.2291 0 0.379295)
(13.344 -5.43826e-22 0.382478)
(13.4742 -1.04086e-21 0.385289)
(13.6121 0 0.387539)
(13.7526 0 0.389195)
(13.8956 0 0.390265)
(14.0416 1.28916e-21 0.390744)
(14.191 0 0.390621)
(14.3435 1.54319e-21 0.389892)
(12.9863 -3.57948e-20 0.128117)
(13.0976 -3.32131e-20 0.129408)
(13.2241 3.30846e-20 0.130569)
(13.358 0 0.131516)
(13.4947 2.94018e-20 0.132249)
(13.6338 -2.88299e-20 0.132775)
(13.7759 -2.702e-20 0.133088)
(13.9213 2.60854e-20 0.133181)
(14.0697 0 0.133053)
)
;

boundaryField
{
    inlet
    {
        type            fixedValue;
        value           nonuniform 0();
    }
    outlet
    {
        type            zeroGradient;
    }
    flap
    {
        type            movingWallVelocity;
        value           nonuniform 0();
    }
    upperWall
    {
        type            noSlip;
    }
    lowerWall
    {
        type            noSlip;
    }
    frontAndBack
    {
        type            empty;
    }
    procBoundary1to0
    {
        type            processor;
        value           nonuniform List<vector> 
18
(
(11.4204 0 3.27454)
(11.5109 -1.70363e-19 3.08198)
(11.5109 -1.70363e-19 3.08198)
(11.4192 -2.18306e-19 2.74056)
(11.4808 1.59141e-19 2.55839)
(11.5298 5.09404e-20 2.37379)
(11.5677 2.47022e-19 2.18755)
(11.5959 -3.8311e-21 2.00026)
(11.6159 -4.967e-20 1.81236)
(11.6289 4.47526e-20 1.6241)
(11.6363 -2.66094e-22 1.43555)
(11.6393 -2.1367e-19 1.24684)
(11.6391 0 1.05744)
(11.6367 -1.62087e-19 0.867912)
(11.6332 0 0.67625)
(11.6295 1.53905e-19 0.484995)
(11.6264 1.16462e-21 0.288219)
(11.4369 0 0.0947037)
)
;
    }
    procBoundary1to2
    {
        type            processor;
        value           nonuniform List<vector> 
17
(
(16.3647 0 4.29237)
(16.2197 7.2738e-20 4.03835)
(16.0549 -6.91e-22 3.7733)
(15.8856 2.35956e-20 3.50496)
(15.7192 -1.18509e-20 3.23705)
(15.5586 -6.27421e-21 2.97106)
(15.4054 2.00889e-19 2.70747)
(15.2604 0 2.44626)
(15.1243 -2.06342e-19 2.18726)
(14.9981 0 1.93001)
(14.8826 -2.0447e-19 1.6743)
(14.7788 2.02618e-19 1.41897)
(14.6876 0 1.16462)
(14.61 -3.0353e-21 0.907739)
(14.5468 2.96739e-21 0.65288)
(14.4989 -4.58555e-20 0.388566)
(14.221 0 0.132707)
)
;
    }
    procBoundary1to3
    {
        type            processor;
        value           nonuniform List<vector> 9((9.71464 -1.66037e-19 4.50728) (9.98257 1.6211e-19 4.45175) (10.234 -3.08552e-19 4.36719) (10.4664 0 4.25762) (10.6781 7.07564e-20 4.12701) (10.8684 1.67191e-19 3.97904) (11.0372 -3.22404e-19 3.81706) (11.1849 2.48913e-19 3.64403) (11.3122 -1.20875e-19 3.46247));
    }
    procBoundary1to4
    {
        type            processor;
        value           nonuniform List<vector> 
30
(
(9.47097 -6.94898e-19 4.97403)
(9.8933 3.34085e-19 5.37491)
(9.8933 3.34085e-19 5.37491)
(10.0383 -1.59353e-19 5.85082)
(10.6168 7.53571e-20 6.12871)
(10.6168 7.53571e-20 6.12871)
(10.8892 7.63969e-20 6.57975)
(11.5634 3.85044e-19 6.64687)
(11.5634 3.85044e-19 6.64687)
(11.9438 -1.34653e-19 7.00486)
(12.5949 -4.7085e-22 6.83154)
(12.5949 -4.7085e-22 6.83154)
(13.071 1.46673e-19 7.06471)
(13.3443 -3.93973e-19 7.15592)
(13.6769 -3.342e-19 6.69177)
(13.6769 -3.342e-19 6.69177)
(13.8724 0 6.74077)
(14.2236 -1.56719e-19 6.7906)
(14.5498 -1.84373e-19 6.31264)
(14.5498 -1.84373e-19 6.31264)
(14.8998 4.84423e-20 6.27098)
(15.2197 1.42047e-19 6.17306)
(15.4634 0 5.71295)
(15.4634 0 5.71295)
(15.72 0 5.58464)
(15.9042 -1.45147e-21 5.16802)
(15.9042 -1.45147e-21 5.16802)
(16.124 0 5.03198)
(16.2649 -5.54882e-21 4.65433)
(16.2649 -5.54882e-21 4.65433)
)
;
    }
}


// ************************************************************************* //
