/*--------------------------------*- C++ -*----------------------------------*\
| =========                 |                                                 |
| \\      /  F ield         | OpenFOAM: The Open Source CFD Toolbox           |
|  \\    /   O peration     | Version:  dev                                   |
|   \\  /    A nd           | Web:      www.OpenFOAM.org                      |
|    \\/     M anipulation  |                                                 |
\*---------------------------------------------------------------------------*/
FoamFile
{
    version     2.0;
    format      ascii;
    class       surfaceVectorField;
    location    "4.66";
    object      Uf;
}
// * * * * * * * * * * * * * * * * * * * * * * * * * * * * * * * * * * * * * //

dimensions      [0 1 -1 0 0 0 0];

internalField   nonuniform List<vector> 
882
(
(9.93529 3.21682e-19 4.8854)
(10.1527 7.26905e-20 5.05158)
(10.2224 1.58669e-19 4.78628)
(10.308 -3.53832e-19 5.47265)
(10.3699 -8.29676e-20 5.17948)
(10.5546 -1.99675e-19 5.58676)
(10.4408 0 4.91844)
(10.4861 -7.09314e-20 4.65904)
(10.6182 7.53982e-20 5.29853)
(10.6536 0 5.01572)
(10.8343 7.34542e-20 5.68632)
(10.8553 4.05436e-20 5.37942)
(11.0936 0 6.07602)
(11.0953 -3.46507e-20 5.74534)
(11.3767 -6.52106e-20 6.10709)
(10.701 -7.08905e-20 4.76019)
(10.7247 -3.25692e-21 4.50885)
(10.8935 -3.56606e-20 5.10092)
(10.9062 -3.33798e-20 4.83025)
(11.1202 -7.01857e-20 5.44314)
(11.1184 6.57299e-20 5.15334)
(11.3837 -1.01486e-19 5.78136)
(11.3634 -3.45004e-20 5.47353)
(11.6858 -6.41416e-20 6.10893)
(11.643 6.20661e-20 5.78518)
(12.027 1.81276e-19 6.4181)
(11.9577 1.3576e-21 6.08193)
(12.3072 1.79812e-19 6.35655)
(10.9327 3.51865e-20 4.58228)
(10.9377 -2.59574e-21 4.34037)
(11.1346 7.0669e-20 4.88625)
(11.1283 -1.63081e-19 4.62858)
(11.3661 1.0229e-19 5.18737)
(11.3456 2.33054e-19 4.91465)
(11.6283 1.33308e-19 5.48076)
(11.5908 -6.24305e-20 5.19443)
(11.9218 1.29322e-19 5.76089)
(11.8644 2.51942e-19 5.46313)
(12.2458 6.64213e-22 6.02175)
(12.1657 -3.20536e-20 5.71557)
(12.5981 -2.84372e-20 6.25701)
(12.4936 0 5.94632)
(12.9746 -1.8424e-19 6.46171)
(12.841 -1.61904e-19 6.14971)
(13.2497 -2.16675e-20 6.32387)
(13.3717 -1.15394e-19 6.60622)
(11.1365 -2.05793e-19 4.38948)
(11.1254 -7.44679e-20 4.15771)
(11.3432 3.65272e-21 4.65979)
(11.321 -1.30504e-19 4.41526)
(11.5751 6.3684e-20 4.92434)
(11.5396 1.94362e-19 4.66803)
(11.8325 5.95776e-20 5.17901)
(11.7815 -3.48212e-20 4.91244)
(12.1149 8.60457e-20 5.41929)
(12.0464 1.22721e-19 5.14454)
(12.4209 -3.25133e-20 5.64057)
(12.3331 -6.24501e-20 5.36026)
(12.7479 -1.37199e-19 5.83818)
(12.64 -2.8052e-20 5.55558)
(13.0922 1.08356e-21 6.00853)
(12.9608 -1.368e-19 5.72646)
(13.3319 1.37611e-19 5.87175)
(13.4501 3.30756e-19 6.12869)
(11.3133 2.73363e-21 4.18572)
(11.2885 8.53739e-22 3.96435)
(11.5215 6.51372e-20 4.42559)
(11.4861 1.2097e-19 4.19392)
(11.7508 9.29504e-20 4.65792)
(11.7031 -8.86344e-20 4.41703)
(12.0009 3.01959e-20 4.87928)
(11.9394 1.3549e-21 4.63068)
(12.2709 -2.98799e-20 5.08612)
(12.1942 0 4.83169)
(12.5589 -5.78347e-20 5.27493)
(12.4659 -1.40226e-19 5.01694)
(12.8625 -2.79765e-20 5.44237)
(12.7528 4.09894e-21 5.18346)
(13.1784 0 5.58595)
(13.0496 1.09324e-19 5.32844)
(13.3883 1.99235e-19 5.45131)
(13.5033 -2.42108e-19 5.68743)
(11.4648 1.2217e-19 3.97423)
(11.4283 -2.2247e-22 3.76318)
(11.6718 -3.69121e-20 4.1868)
(11.6254 9.3142e-20 3.96744)
(11.8964 -1.824e-19 4.39088)
(11.8389 -1.85013e-19 4.16429)
(12.1379 -2.96176e-20 4.58367)
(12.0681 -3.03902e-20 4.35126)
(12.3949 -1.13307e-19 4.76241)
(12.312 0 4.52586)
(12.6658 -7.63691e-20 4.9245)
(12.5691 -2.20953e-19 4.6857)
(12.9481 1.45316e-19 5.06757)
(12.8375 1.43635e-19 4.82865)
(13.239 3.13643e-19 5.18995)
(13.1127 1.11961e-19 4.95276)
(13.4235 1.91263e-19 5.05792)
(13.5356 -8.11739e-19 5.27674)
(11.5926 -2.98203e-20 3.75757)
(11.5465 0 3.55657)
(11.7966 -5.89429e-20 3.94581)
(11.7413 -1.31872e-21 3.73806)
(12.0151 -2.91112e-20 4.12517)
(11.9498 -2.9864e-20 3.91173)
(12.2471 0 4.29344)
(12.171 -1.09064e-19 4.07557)
(12.4914 -1.10699e-19 4.4485)
(12.4039 1.91351e-19 4.22766)
(12.7461 5.28613e-21 4.58845)
(12.6469 -2.98602e-19 4.36621)
(13.0092 1.09759e-19 4.71162)
(12.8983 1.93825e-19 4.48969)
(13.2781 -1.31414e-20 4.81691)
(13.1544 2.01827e-19 4.59677)
(13.4409 -1.93875e-19 4.68768)
(13.5506 5.80358e-21 4.89194)
(11.6987 2.92202e-20 3.53778)
(11.6445 0 3.3464)
(11.8983 2.84484e-20 3.70439)
(11.8359 2.918e-20 3.5075)
(12.1099 -1.11873e-19 3.86214)
(12.0384 0 3.66072)
(12.3323 8.74592e-20 4.00931)
(12.2513 -8.48632e-20 3.80448)
(12.5641 -2.05956e-21 4.14431)
(12.4734 1.17989e-19 3.9373)
(12.8039 -1.04406e-19 4.26574)
(12.7031 -1.12199e-19 4.05787)
(13.0496 2.88115e-19 4.37246)
(12.9389 1.0896e-19 4.1651)
(13.2992 2.08579e-20 4.46378)
(13.1778 2.06711e-19 4.25812)
(13.4434 -3.91416e-19 4.33732)
(13.5508 3.45286e-19 4.52921)
(11.7851 0 3.31644)
(11.7244 -7.88312e-20 3.13417)
(11.9795 0 3.46383)
(11.9113 2.65568e-21 3.27703)
(12.1837 2.75197e-20 3.60267)
(12.1074 1.06946e-19 3.4122)
(12.3964 -5.31812e-20 3.73162)
(12.3118 2.72973e-20 3.53847)
(12.6165 4.75012e-21 3.8495)
(12.5233 -7.98373e-20 3.65471)
(12.8423 1.06801e-19 3.9553)
(12.7407 -1.19134e-19 3.75996)
(13.0725 2.5784e-20 4.04826)
(12.9625 2.3199e-19 3.85349)
(13.3051 -2.1171e-19 4.12796)
(13.186 0 3.9347)
(13.4332 -2.1126e-19 4.00413)
(13.5385 3.09162e-19 4.18541)
(11.6737 -5.3998e-20 2.95743)
(11.6143 2.7532e-20 2.78824)
(11.8538 -7.60118e-20 3.09472)
(11.7879 -2.08811e-19 2.92103)
(12.0425 1.12342e-19 3.22504)
(11.9697 1.06929e-19 3.04755)
(12.2391 1.06578e-19 3.34728)
(12.1592 1.09536e-19 3.16677)
(12.4424 -2.00756e-22 3.46042)
(12.3552 1.75135e-19 3.27774)
(12.6513 -2.06725e-19 3.56358)
(12.5567 -2.30141e-19 3.37961)
(12.8645 9.73859e-21 3.65606)
(12.7625 -2.06407e-19 3.47172)
(13.0806 2.05199e-19 3.73737)
(12.9715 2.10521e-19 3.55354)
(13.2981 0 3.80726)
(13.1814 0 3.62472)
(13.4124 0 3.68585)
(13.5157 0 3.85794)
(11.7312 -1.31363e-19 2.75175)
(11.6671 2.49418e-20 2.58995)
(11.9068 -2.1046e-20 2.87351)
(11.8368 -1.312e-19 2.70784)
(12.0895 1.04063e-19 2.98863)
(12.0133 1.3164e-19 2.81972)
(12.2785 1.79827e-19 3.09624)
(12.196 2.48262e-20 2.92478)
(12.4728 -6.10446e-20 3.19556)
(12.3838 1.79579e-19 3.02229)
(12.6713 -2.29796e-19 3.28598)
(12.5759 -2.11051e-19 3.11164)
(12.8729 0 3.367)
(12.7712 -2.04791e-19 3.19234)
(13.0763 0 3.4383)
(12.9685 1.96466e-19 3.26407)
(13.2804 0 3.49978)
(13.1662 -1.19783e-20 3.32661)
(13.3829 1.85814e-19 3.38056)
(13.4841 4.37412e-19 3.54464)
(11.7753 2.49102e-20 2.54567)
(11.7076 1.15031e-21 2.39086)
(11.9461 2.55394e-20 2.65343)
(11.8729 -7.19692e-20 2.49523)
(12.1226 5.03309e-20 2.75497)
(12.044 7.51235e-20 2.59395)
(12.3042 2.47922e-20 2.84962)
(12.22 1.13146e-21 2.68639)
(12.4899 2.53228e-20 2.93681)
(12.4001 1.90638e-19 2.772)
(12.6788 -1.85403e-19 3.01609)
(12.5833 -3.58807e-19 2.85033)
(12.8698 -2.92423e-21 3.08714)
(12.7688 -4.41674e-21 2.92106)
(13.0618 1.83905e-19 3.14976)
(12.9557 2.01253e-19 2.98398)
(13.254 1.78706e-19 3.20394)
(13.1423 -5.32542e-22 3.03898)
(13.3463 1.90354e-19 3.08665)
(13.4454 -3.10834e-19 3.2437)
(11.8077 -9.81969e-20 2.3398)
(11.7373 -4.66979e-20 2.19155)
(11.9735 -2.10042e-20 2.43489)
(11.8982 2.14685e-20 2.28361)
(12.144 2.46016e-20 2.52424)
(12.0638 2.37714e-19 2.37045)
(12.3185 1.71249e-19 2.60735)
(12.2333 -4.01933e-19 2.45158)
(12.4961 -2.03606e-19 2.6838)
(12.406 3.73802e-19 2.52659)
(12.676 -1.72909e-19 2.75327)
(12.5811 -3.93468e-19 2.59517)
(12.8574 2.05096e-19 2.81556)
(12.7577 2.63461e-20 2.65709)
(13.0392 1.20378e-20 2.87056)
(12.935 1.87763e-19 2.71224)
(13.2207 1.17177e-20 2.91831)
(13.1118 2.35291e-20 2.76057)
(13.3045 -1.73925e-19 2.80266)
(13.4011 -6.69254e-21 2.95354)
(11.8301 7.59552e-20 2.13453)
(11.7578 9.31866e-20 1.99241)
(11.9909 2.86772e-19 2.21811)
(11.9142 9.73634e-20 2.07323)
(12.1556 -2.00029e-19 2.29648)
(12.0745 3.96205e-19 2.14929)
(12.3233 -1.93444e-19 2.36924)
(12.2379 -5.83186e-19 2.22023)
(12.4934 1.78294e-19 2.43611)
(12.4036 1.94358e-19 2.28573)
(12.6651 -1.88753e-19 2.49687)
(12.5711 -1.92005e-19 2.34559)
(12.8376 8.81635e-21 2.55138)
(12.7396 -4.23461e-21 2.39965)
(13.0103 1.99338e-19 2.5996)
(12.9084 1.9236e-19 2.44786)
(13.1822 -1.66948e-19 2.64161)
(13.0763 1.1788e-20 2.49023)
(13.259 -1.77992e-21 2.52729)
(13.3529 3.11094e-19 2.67277)
(11.8441 1.15121e-19 1.93007)
(11.7707 1.18246e-19 1.79365)
(12.0001 2.0983e-19 2.00316)
(11.9227 1.54176e-19 1.86416)
(12.1591 2.4809e-21 2.07156)
(12.0778 2.17315e-19 1.9304)
(12.3205 -1.84933e-19 2.13499)
(12.2354 -3.7115e-19 1.99208)
(12.4836 -1.85463e-19 2.19324)
(12.3948 6.1922e-22 2.04898)
(12.6479 -2.72388e-21 2.24617)
(12.5554 -1.85553e-19 2.10097)
(12.8125 1.84091e-19 2.2937)
(12.7165 1.30245e-20 2.14796)
(12.9768 1.57071e-24 2.33583)
(12.8776 1.79391e-19 2.18991)
(13.1403 1.80984e-19 2.37266)
(13.0376 1.5783e-19 2.22688)
(13.2114 -2.68896e-21 2.25934)
(13.3024 1.09744e-19 2.4001)
(11.8513 1.58288e-19 1.72653)
(11.7773 -1.71519e-19 1.59536)
(12.0026 1.61901e-19 1.78999)
(11.9251 3.4413e-19 1.65635)
(12.1563 -1.66184e-19 1.84929)
(12.0754 -1.39945e-20 1.71356)
(12.3118 -1.8062e-19 1.90423)
(12.2276 -1.84405e-19 1.76677)
(12.4686 3.19886e-22 1.95467)
(12.3812 -1.13824e-20 1.81584)
(12.6261 -1.69155e-19 2.0005)
(12.5355 1.14401e-20 1.86067)
(12.7835 8.40848e-21 2.0417)
(12.69 -3.41076e-19 1.9012)
(12.9405 3.4108e-19 2.0783)
(12.8442 3.59132e-19 1.93746)
(13.0964 -2.78462e-20 2.11038)
(12.9972 1.67121e-19 1.96947)
(13.1631 -1.8797e-19 1.99771)
(13.2509 -1.22053e-19 2.1344)
(11.8531 1.94662e-20 1.52378)
(11.7791 -1.75746e-19 1.39746)
(12 1.63502e-19 1.57834)
(11.9229 1.80015e-19 1.44961)
(12.1488 -3.28685e-20 1.62926)
(12.0688 1.56112e-19 1.49846)
(12.299 -1.08124e-20 1.67642)
(12.2161 -3.83347e-21 1.54387)
(12.45 3.82258e-23 1.71969)
(12.3643 -1.60871e-19 1.58572)
(12.6013 -1.6508e-19 1.75903)
(12.513 0 1.62396)
(12.7524 1.90541e-20 1.79443)
(12.6616 -1.29623e-20 1.65857)
(12.9028 1.80693e-19 1.82594)
(12.8097 1.36177e-20 1.68956)
(13.0521 5.39529e-21 1.85363)
(12.9566 5.5349e-21 1.71699)
(13.1156 0 1.74126)
(13.1998 0 1.87446)
(11.8508 -1.08611e-20 1.32178)
(11.7773 0 1.19976)
(11.9936 1.72415e-19 1.36806)
(11.9175 -9.23875e-20 1.24363)
(12.138 1.85698e-19 1.41122)
(12.0592 2.66099e-19 1.28469)
(12.2833 -1.57765e-19 1.45116)
(12.2022 7.48178e-21 1.32283)
(12.4292 -1.60753e-19 1.48781)
(12.3457 -8.79186e-22 1.35798)
(12.5751 1.55864e-19 1.52114)
(12.4894 -3.36421e-21 1.39009)
(12.7206 -1.84981e-20 1.55118)
(12.6328 -1.17489e-20 1.41918)
(12.8652 -1.6589e-19 1.57795)
(12.7756 -1.75338e-19 1.44526)
(13.0086 0 1.60155)
(12.917 -5.17012e-21 1.4684)
(13.07 0 1.48895)
(13.1504 -3.06802e-21 1.61936)
(11.8457 -8.3639e-20 1.11986)
(11.773 -7.91438e-20 1.00197)
(11.9849 3.97354e-21 1.15836)
(11.9099 -8.21643e-20 1.03802)
(12.1252 8.32027e-20 1.19424)
(12.0481 1.66511e-19 1.07173)
(12.2663 1.68236e-19 1.22743)
(12.1871 -5.03592e-21 1.10303)
(12.4076 1.60402e-19 1.25789)
(12.3266 9.31125e-20 1.13187)
(12.5488 -1.75164e-19 1.28561)
(12.4659 8.33131e-20 1.15823)
(12.6894 -1.72652e-19 1.3106)
(12.6049 -1.71647e-19 1.18212)
(12.829 -1.04783e-20 1.33292)
(12.743 -5.30866e-21 1.20357)
(12.9674 -5.16537e-21 1.35263)
(12.8798 -2.43377e-22 1.22262)
(13.0276 0 1.23959)
(13.1041 3.00298e-21 1.36755)
(11.839 -7.76342e-20 0.918408)
(11.7675 -8.11161e-20 0.803657)
(11.9749 8.46549e-20 0.949526)
(11.9015 8.3769e-20 0.832237)
(12.1118 7.59232e-20 0.978514)
(12.0366 4.06418e-21 0.858949)
(12.2491 -8.19475e-20 1.00533)
(12.1723 -7.81828e-20 0.883742)
(12.3865 1.4081e-20 1.02994)
(12.3082 -2.19878e-21 0.906588)
(12.5236 8.66991e-20 1.05235)
(12.4439 8.3989e-20 0.927476)
(12.66 6.03409e-24 1.07257)
(12.579 4.95332e-21 0.94642)
(12.7954 5.18698e-21 1.09067)
(12.7133 0 0.963449)
(12.9294 5.05277e-21 1.10669)
(12.8462 5.18365e-21 0.97861)
(12.9897 0 0.992158)
(13.0617 3.7425e-19 1.11886)
(11.8318 8.44664e-20 0.715292)
(11.7617 -7.52052e-20 0.6043)
(11.9649 1.09519e-21 0.73933)
(11.8933 1.56472e-19 0.625668)
(12.0988 -1.53968e-19 0.761712)
(12.0257 -8.11076e-20 0.64563)
(12.233 3.62852e-21 0.782405)
(12.1586 -7.48563e-20 0.664154)
(12.3672 6.95373e-20 0.801397)
(12.2916 7.65377e-20 0.681223)
(12.5009 1.35018e-22 0.818692)
(12.4243 -5.06527e-21 0.696833)
(12.6338 4.94158e-21 0.83431)
(12.5563 5.06944e-21 0.710995)
(12.7656 0 0.848285)
(12.6874 -7.65165e-20 0.723731)
(12.8961 0 0.860669)
(12.8171 7.5675e-20 0.735072)
(12.9571 7.51382e-20 0.745204)
(13.025 0 0.870091)
(11.8249 -1.20725e-21 0.512908)
(11.7565 -1.16688e-19 0.403289)
(11.9558 7.20119e-20 0.530096)
(11.8861 1.10734e-19 0.417608)
(12.0872 0 0.546104)
(12.0165 -3.99759e-20 0.430982)
(12.2189 0 0.560914)
(12.1472 0 0.443391)
(12.3503 0 0.574518)
(12.2779 -3.72139e-20 0.454826)
(12.4813 0 0.586921)
(12.4081 3.79967e-20 0.465289)
(12.6114 -7.84948e-20 0.598139)
(12.5377 1.17846e-21 0.474789)
(12.7403 1.1672e-21 0.608198)
(12.6663 -1.1583e-19 0.483348)
(12.8679 1.52715e-19 0.617141)
(12.7936 1.19284e-19 0.490995)
(12.9308 4.09228e-20 0.497877)
(12.9938 -1.31849e-19 0.623967)
(11.8193 -1.75318e-21 0.305063)
(11.6579 -3.83261e-20 0.199953)
(11.9485 -4.19152e-21 0.315414)
(11.7842 5.581e-20 0.207279)
(12.0781 -3.99504e-20 0.325038)
(11.9112 -5.71271e-20 0.214118)
(12.2078 -3.81803e-20 0.333927)
(12.0387 0 0.220461)
(12.3373 1.79228e-21 0.34208)
(12.1662 -5.6377e-20 0.226304)
(12.4662 3.91863e-20 0.349505)
(12.2933 3.93017e-20 0.231649)
(12.5942 -3.71633e-20 0.356215)
(12.4198 1.87045e-20 0.236502)
(12.7211 5.41165e-21 0.36223)
(12.5454 -5.66325e-20 0.240872)
(12.8466 4.59476e-21 0.367588)
(12.6697 6.02788e-20 0.244773)
(12.8038 -3.70441e-20 0.248289)
(12.9705 6.5184e-20 0.371645)
(11.622 2.07599e-20 0.100851)
(11.7461 1.46151e-21 0.104643)
(11.871 -1.61268e-20 0.108179)
(11.9962 -1.86939e-20 0.111455)
(12.1213 -1.78563e-20 0.114468)
(12.2459 1.82897e-20 0.117219)
(12.3699 -1.30451e-21 0.119712)
(12.4929 -3.1385e-22 0.121949)
(12.6146 1.75255e-20 0.123945)
(12.7348 -3.38457e-22 0.125423)
(13.4807 1.65809e-19 6.3932)
(13.6299 1.69116e-19 6.17542)
(13.5399 3.70049e-21 5.93004)
(13.8119 -1.68582e-19 6.22221)
(13.7373 -1.6219e-19 5.9783)
(13.9039 -1.41639e-19 6.01812)
(13.996 -2.15339e-19 6.26178)
(13.6658 -3.34434e-19 5.72733)
(13.577 -8.76084e-19 5.50104)
(13.83 -1.34816e-19 5.76764)
(13.7558 1.66706e-19 5.54261)
(13.9066 2.17062e-20 5.57729)
(13.9959 1.43223e-19 5.80374)
(13.6836 -3.66839e-19 5.31123)
(13.5958 -6.99786e-19 5.10088)
(13.8328 3.28803e-19 5.34635)
(13.7589 3.42932e-19 5.13711)
(13.8964 -9.61086e-21 5.16762)
(13.9833 3.31412e-22 5.37876)
(13.6861 2.09662e-20 4.92207)
(13.5992 3.53499e-19 4.72515)
(13.8226 3.21092e-22 4.95298)
(13.7489 -3.21631e-19 4.75704)
(13.8752 -5.07443e-21 4.78413)
(13.9602 -2.07851e-20 4.98207)
(13.6757 6.3005e-21 4.55576)
(13.5896 6.78537e-19 4.37027)
(13.8014 -3.30812e-19 4.5832)
(13.7278 -3.4012e-19 4.39855)
(13.8444 3.13972e-19 4.42277)
(13.9279 1.36929e-19 4.60942)
(13.6543 3.30904e-19 4.20896)
(13.569 3.35485e-19 4.03327)
(13.7707 3.12771e-19 4.23347)
(13.6973 0 4.05847)
(13.8055 6.28185e-19 4.08023)
(13.8877 2.94476e-19 4.25719)
(13.6235 0 3.87891)
(13.5391 3.21909e-19 3.71171)
(13.7318 3.15789e-19 3.90088)
(13.6587 -6.36979e-19 3.73424)
(13.7596 6.29232e-19 3.75384)
(13.8407 3.06406e-19 3.9224)
(13.5849 -3.22757e-19 3.56335)
(13.5015 1.07643e-20 3.40356)
(13.6861 -3.30664e-19 3.58309)
(13.6135 -6.52522e-19 3.42374)
(13.708 3.22163e-19 3.44141)
(13.7878 4.20583e-19 3.60263)
(13.54 -3.22406e-19 3.26042)
(13.4578 -3.31678e-19 3.10711)
(13.6349 4.85552e-21 3.27814)
(13.5631 0 3.12517)
(13.652 3.07163e-19 3.14108)
(13.7303 6.50956e-21 3.29586)
(13.4902 -4.97836e-21 2.96847)
(13.4097 3.08373e-19 2.82084)
(13.5797 3.06102e-19 2.98437)
(13.509 2.38843e-21 2.83698)
(13.593 3.09645e-19 2.85126)
(13.6695 2.96796e-19 3.0004)
(13.4372 3.19295e-19 2.68605)
(13.3586 3.16063e-19 2.54339)
(13.5218 2.41641e-21 2.70027)
(13.4527 -4.63419e-21 2.55774)
(13.5323 -2.97706e-19 2.57051)
(13.6067 1.11056e-19 2.7147)
(13.3823 -1.39705e-20 2.41187)
(13.3061 -5.15273e-21 2.27352)
(13.4626 -3.08694e-19 2.4245)
(13.3955 -7.25473e-21 2.28622)
(13.4711 -3.07301e-19 2.29755)
(13.5431 -4.04322e-19 2.43741)
(13.327 0 2.14475)
(13.2534 0 2.01009)
(13.4034 -2.30466e-21 2.1559)
(13.3387 0 2.02122)
(13.4109 2.81845e-19 2.03119)
(13.4801 -4.79874e-21 2.16736)
(13.2726 0 1.88347)
(13.202 -2.25677e-21 1.75197)
(13.3456 2.8785e-19 1.8932)
(13.2837 -2.83631e-19 1.76161)
(13.3529 2.94451e-19 1.77028)
(13.4189 3.86828e-19 1.90325)
(13.2203 -2.89671e-19 1.6271)
(13.1531 -1.0342e-22 1.49801)
(13.2904 -2.83687e-19 1.63548)
(13.2317 -2.89592e-19 1.50622)
(13.2982 5.474e-21 1.51361)
(13.3607 1.09501e-19 1.64417)
(13.1714 3.33678e-21 1.37405)
(13.1079 2.77505e-19 1.24715)
(13.239 3.27691e-21 1.3811)
(13.1838 -2.72875e-19 1.25397)
(13.2481 1.14664e-21 1.26013)
(13.3068 2.91847e-21 1.38844)
(13.1269 -3.86655e-22 1.12418)
(13.0676 2.82139e-19 0.9981)
(13.1924 -2.78313e-19 1.12996)
(13.1412 -1.48931e-19 1.00355)
(13.2036 -4.11538e-22 1.00846)
(13.258 -1.43354e-21 1.13598)
(13.0884 1.33685e-19 0.874207)
(13.033 -1.33521e-19 0.749856)
(13.152 1.34185e-19 0.878676)
(13.1048 2.65426e-19 0.753959)
(13.1657 -1.3045e-19 0.757683)
(13.2158 -4.78587e-20 0.883352)
(13.0558 -3.23227e-21 0.626952)
(13.0052 -7.1408e-20 0.500697)
(13.1181 -1.1674e-21 0.630187)
(13.0756 1.33469e-19 0.503413)
(13.1353 -1.34471e-19 0.505821)
(13.1807 -1.30817e-19 0.633571)
(13.0314 6.62997e-20 0.373355)
(12.8765 6.69175e-20 0.250092)
(13.0925 0 0.375172)
(12.9453 0 0.25135)
(13.0036 3.0954e-20 0.252525)
(13.1538 0 0.377087)
(12.7941 -2.51861e-22 0.126005)
(12.8535 3.13653e-20 0.126614)
(12.9132 3.04264e-20 0.127297)
(14.2069 1.77744e-19 6.07441)
(14.3362 1.91735e-19 5.85315)
(14.181 1.82063e-19 5.63019)
(14.6772 9.64126e-20 5.86183)
(14.4753 -9.91233e-21 5.65892)
(15.0072 1.94958e-20 5.83081)
(14.8009 7.89363e-20 5.6557)
(15.1228 -6.84748e-20 5.61667)
(14.2932 -2.02321e-20 5.42729)
(14.1463 -1.11284e-20 5.21595)
(14.6083 -2.96378e-20 5.44534)
(14.4158 -1.24869e-22 5.24685)
(14.9217 -9.18411e-21 5.43463)
(14.7181 -9.20541e-21 5.25464)
(15.2259 -5.77927e-20 5.39369)
(15.0249 0 5.23588)
(15.5134 -5.15181e-22 5.32314)
(15.3194 -5.90725e-20 5.19016)
(15.5966 5.62256e-20 5.11839)
(14.2435 9.17587e-21 5.02777)
(14.1043 1.83664e-19 4.82806)
(14.5334 2.09646e-20 5.04938)
(14.3515 -3.30598e-19 4.85858)
(14.8257 0 5.04926)
(14.6308 1.67963e-19 4.87151)
(15.1156 0 5.02609)
(14.918 -1.37222e-19 4.86407)
(15.398 -3.56991e-21 4.97995)
(15.1995 1.34576e-19 4.83569)
(15.668 -3.64186e-21 4.91157)
(15.4718 -1.1685e-19 4.78675)
(15.9211 0 4.8222)
(15.7326 1.12426e-19 4.71804)
(15.9786 -1.59711e-21 4.63082)
(14.1884 -1.48051e-19 4.65188)
(14.0558 8.79261e-21 4.46276)
(14.4556 -1.88761e-19 4.67457)
(14.2838 -3.49849e-19 4.49202)
(14.7269 3.42001e-20 4.68017)
(14.5419 1.62474e-19 4.50737)
(14.999 -5.11988e-21 4.66761)
(14.8094 -1.45149e-19 4.50655)
(15.2686 2.41426e-20 4.63686)
(15.0746 2.6705e-19 4.48904)
(15.5322 -3.06859e-21 4.58826)
(15.3351 -2.41711e-19 4.45499)
(15.7864 1.13361e-19 4.52251)
(15.5898 1.15631e-19 4.40485)
(16.0281 -4.32247e-21 4.44074)
(15.8362 1.5954e-21 4.33937)
(16.0715 -2.74995e-21 4.25972)
(14.1286 -1.84991e-19 4.29653)
(14.0016 -3.74564e-19 4.11672)
(14.3759 9.25552e-22 4.31924)
(14.2129 1.05306e-20 4.14448)
(14.6278 -1.43554e-20 4.3281)
(14.4524 1.47267e-19 4.16096)
(14.8822 1.24767e-19 4.32227)
(14.7017 -1.49349e-19 4.16427)
(15.1365 6.19863e-21 4.30169)
(14.9505 1.32341e-19 4.15396)
(15.3885 -1.2812e-19 4.26651)
(15.1971 -1.30768e-19 4.13008)
(15.6357 3.67072e-21 4.21716)
(15.4411 4.39092e-22 4.0929)
(15.8756 3.29866e-21 4.1544)
(15.6807 1.67166e-21 4.04291)
(15.9138 -3.15151e-21 3.98092)
(14.0645 -1.83004e-19 3.9588)
(13.9424 -1.83306e-19 3.78717)
(14.2946 1.5736e-19 3.98106)
(14.1392 1.6239e-19 3.81335)
(14.5293 1.41551e-20 3.99191)
(14.3625 1.54285e-19 3.83027)
(14.7672 -1.47951e-19 3.99063)
(14.5954 -4.40298e-19 3.83631)
(15.0065 -1.95953e-21 3.97714)
(14.829 2.72851e-19 3.83103)
(15.2454 -1.99985e-21 3.95152)
(15.0618 -1.31494e-19 3.81446)
(15.4822 -1.63083e-21 3.91404)
(15.2938 -4.69198e-22 3.78676)
(15.715 -4.82239e-21 3.86522)
(15.5239 1.04777e-19 3.74824)
(15.7502 -1.07813e-19 3.6995)
(13.9968 1.62653e-19 3.63625)
(13.8791 0 3.47184)
(14.2118 1.57769e-19 3.65778)
(14.0633 4.81776e-21 3.49638)
(14.4314 -3.00732e-19 3.66982)
(14.2723 1.46748e-19 3.51328)
(14.6546 -2.50855e-20 3.67173)
(14.4909 -1.60945e-19 3.52112)
(14.8799 1.49389e-19 3.66343)
(14.7106 1.39454e-19 3.5195)
(15.1061 -1.32898e-19 3.64495)
(14.9306 -1.33186e-19 3.5084)
(15.3317 1.06178e-19 3.61645)
(15.1508 -9.67114e-22 3.48791)
(15.5553 3.96284e-21 3.57828)
(15.3707 2.17539e-19 3.45823)
(15.5886 -2.10427e-19 3.41978)
(13.9264 -1.618e-19 3.32683)
(13.8129 -1.73357e-19 3.16879)
(14.128 -9.9126e-21 3.34739)
(13.986 -5.22039e-21 3.19164)
(14.3344 2.95559e-19 3.36003)
(14.1824 1.51648e-19 3.20818)
(14.5444 8.6009e-22 3.36421)
(14.3882 -2.29097e-21 3.21715)
(14.7571 -1.43794e-19 3.35981)
(14.5956 -9.47866e-21 3.2182)
(14.9714 -1.00662e-21 3.34682)
(14.8038 -1.31488e-19 3.21127)
(15.1862 1.08181e-19 3.32532)
(15.0132 4.31061e-22 3.1964)
(15.4003 7.38453e-21 3.29556)
(15.223 1.11145e-19 3.17371)
(15.4323 -1.0581e-19 3.14348)
(13.8541 -1.68095e-20 3.02877)
(13.7448 -1.09907e-20 2.87638)
(14.0441 1.56912e-19 3.04818)
(13.9081 -1.57768e-19 2.8975)
(14.2386 -1.51167e-19 3.06099)
(14.0934 3.0008e-19 2.91341)
(14.437 -1.29629e-20 3.06671)
(14.2879 -4.39118e-19 2.92301)
(14.6383 6.01096e-21 3.06524)
(14.4843 2.76546e-19 2.92596)
(14.8418 -1.33024e-19 3.05651)
(14.6819 -2.60049e-19 2.9222)
(15.0465 9.49623e-22 3.04057)
(14.8812 1.24375e-19 2.91173)
(15.2514 0 3.01755)
(15.0818 1.78806e-21 2.89461)
(15.2827 1.03263e-19 2.87102)
(13.7812 -1.4902e-19 2.74054)
(13.6761 1.70715e-19 2.59315)
(13.9608 -2.17494e-20 2.75869)
(13.8307 -4.86702e-19 2.61252)
(14.1449 1.97187e-20 2.77133)
(14.0062 6.1595e-19 2.62759)
(14.3328 -1.58667e-19 2.77804)
(14.1906 -4.44726e-19 2.63741)
(14.524 1.62895e-20 2.7787)
(14.3772 1.4261e-19 2.64165)
(14.7177 -5.09658e-21 2.77326)
(14.5653 -2.54457e-19 2.64026)
(14.9131 1.28031e-19 2.7617)
(14.7555 2.4955e-19 2.63321)
(15.1095 1.05291e-19 2.74412)
(14.9475 7.74592e-23 2.62052)
(15.1405 1.09174e-19 2.60232)
(13.7087 -1.57034e-19 2.46076)
(13.6079 -2.56342e-21 2.3178)
(13.8792 1.4378e-19 2.47755)
(13.7548 -1.60662e-19 2.33538)
(14.054 1.62315e-19 2.48975)
(13.9216 3.10013e-19 2.34945)
(14.2327 -1.49303e-19 2.49698)
(14.0971 -1.49571e-19 2.35914)
(14.4147 -1.2572e-19 2.49915)
(14.2749 0 2.36418)
(14.5995 -5.10266e-21 2.49619)
(14.4545 -1.28604e-19 2.3645)
(14.7866 1.24138e-19 2.48808)
(14.6365 1.26123e-19 2.36007)
(14.9751 1.56947e-21 2.47486)
(14.8207 -1.79479e-21 2.35089)
(15.0065 -1.03728e-19 2.33703)
(13.6378 -2.6228e-21 2.18826)
(13.5414 -3.65042e-21 2.04912)
(13.8001 0 2.20357)
(13.6816 -1.58541e-19 2.06489)
(13.9667 -2.03016e-23 2.21508)
(13.8407 2.30821e-21 2.07777)
(14.1372 -2.07353e-23 2.22246)
(14.0084 2.16036e-21 2.08705)
(14.3112 0 2.22562)
(14.1784 0 2.09248)
(14.4881 0 2.2245)
(14.3504 -2.47139e-22 2.09398)
(14.6675 0 2.21906)
(14.5251 1.16861e-19 2.09152)
(14.8489 -1.07363e-19 2.20931)
(14.7022 -1.12847e-19 2.08508)
(14.8814 -1.09821e-19 2.0747)
(13.5697 -1.57368e-19 1.92173)
(13.4779 1.58788e-19 1.78593)
(13.7249 -1.59905e-19 1.93547)
(13.6122 -1.60104e-19 1.79984)
(13.8843 4.54428e-21 1.94608)
(13.7646 -2.16609e-21 1.81142)
(14.0475 2.22948e-21 1.9533)
(13.9253 2.23319e-21 1.82006)
(14.2143 -2.47563e-22 1.95703)
(14.0885 -1.2934e-19 1.82553)
(14.3842 1.16815e-19 1.95721)
(14.2539 1.26559e-19 1.82776)
(14.5568 6.45874e-21 1.95379)
(14.422 1.19766e-19 1.82673)
(14.7317 -1.15438e-19 1.94677)
(14.5928 -1.15635e-19 1.82238)
(14.7661 -9.96339e-20 1.81477)
(13.5055 1.65929e-19 1.66023)
(13.4185 1.63815e-19 1.52705)
(13.6544 -2.11571e-21 1.67233)
(13.5476 -1.42517e-19 1.53908)
(13.8075 -4.6355e-21 1.6819)
(13.6942 1.37881e-21 1.54926)
(13.9644 -1.29557e-19 1.68868)
(13.8489 1.38895e-19 1.55705)
(14.1249 -5.38731e-21 1.69263)
(14.0062 -2.59569e-19 1.56228)
(14.2886 1.29743e-19 1.69366)
(14.1657 1.33971e-19 1.56488)
(14.4552 2.04061e-23 1.69173)
(14.3281 1.18443e-19 1.56481)
(14.6243 -9.98006e-20 1.68682)
(14.4934 3.51972e-23 1.56203)
(14.6613 -1.05357e-19 1.55657)
(13.4463 -1.45174e-19 1.40209)
(13.3643 0 1.27132)
(13.5899 -1.41439e-19 1.41249)
(13.489 -2.95406e-19 1.28145)
(13.7375 1.46066e-19 1.42086)
(13.6307 1.46795e-19 1.29012)
(13.8889 1.4905e-20 1.42699)
(13.7802 1.41328e-19 1.2969)
(14.0439 -1.26032e-19 1.43084)
(13.9324 -1.30059e-19 1.30165)
(14.2022 1.22709e-19 1.43234)
(14.0868 -1.14899e-19 1.3043)
(14.3636 1.212e-19 1.43144)
(14.2442 2.381e-19 1.30482)
(14.5277 -3.22107e-21 1.42813)
(14.4047 -1.67516e-21 1.30317)
(14.568 -4.92487e-21 1.29937)
(13.3931 -1.47082e-19 1.14722)
(13.3164 -7.41078e-20 1.01751)
(13.5322 -8.62338e-21 1.15588)
(13.4375 -1.49408e-19 1.0257)
(13.6752 1.42869e-19 1.16294)
(13.5749 1.44693e-19 1.03279)
(13.822 -9.40337e-22 1.16826)
(13.7201 -5.54184e-22 1.03843)
(13.9723 -1.1908e-19 1.17178)
(13.868 3.6256e-23 1.0425)
(14.126 -4.90004e-21 1.17345)
(14.0182 -1.21989e-19 1.04495)
(14.2829 1.17705e-19 1.17324)
(14.1715 1.19626e-19 1.04574)
(14.4426 -3.34584e-21 1.17112)
(14.3279 -8.95481e-22 1.04487)
(14.4873 -1.66047e-21 1.04232)
(13.3472 -7.47247e-20 0.892139)
(13.2758 -4.81811e-21 0.764382)
(13.4826 1.68264e-21 0.898963)
(13.3939 -1.40264e-19 0.770617)
(13.6218 1.06016e-21 0.904583)
(13.5279 1.36066e-19 0.776044)
(13.7647 4.33372e-22 0.908885)
(13.6696 -6.50817e-20 0.780417)
(13.9112 -9.32819e-23 0.911833)
(13.8141 6.02585e-20 0.783633)
(14.0611 0 0.913389)
(13.9608 -5.92072e-20 0.785664)
(14.2142 8.4019e-22 0.913522)
(14.1107 -5.49882e-20 0.786493)
(14.3703 8.47237e-22 0.912217)
(14.2638 5.3544e-20 0.786102)
(14.4199 7.58731e-22 0.784486)
(13.3092 -6.7864e-20 0.639959)
(13.2433 7.29721e-20 0.510506)
(13.4416 -8.63846e-21 0.644982)
(13.3592 -1.45282e-19 0.514713)
(13.5778 7.26441e-20 0.649162)
(13.4906 1.38453e-19 0.51847)
(13.7177 -6.68909e-21 0.652406)
(13.6296 -6.72784e-20 0.521502)
(13.8611 2.48812e-21 0.654695)
(13.7713 6.18887e-20 0.523749)
(14.008 -1.15689e-19 0.656013)
(13.9154 -6.07147e-20 0.525213)
(14.1581 -3.47786e-21 0.656341)
(14.0626 -5.57501e-20 0.525887)
(14.3113 5.46864e-20 0.655664)
(14.2131 5.40238e-20 0.525756)
(14.3667 1.55639e-21 0.524815)
(13.2803 -2.68988e-22 0.380834)
(13.1092 -1.76744e-20 0.254422)
(13.4105 -7.89658e-22 0.383882)
(13.2223 -1.66758e-20 0.256787)
(13.5444 -5.26029e-22 0.386415)
(13.3507 1.58092e-20 0.25876)
(13.682 0 0.388361)
(13.4866 0 0.260317)
(13.8231 0 0.389723)
(13.6253 1.45176e-20 0.261486)
(13.9677 6.37726e-22 0.390501)
(13.7663 -1.42354e-20 0.262266)
(14.1155 6.51393e-22 0.390684)
(13.9104 -1.26881e-20 0.262642)
(14.2665 7.63466e-22 0.390261)
(14.0578 1.28804e-20 0.262604)
(14.2083 7.81195e-22 0.262152)
(13.0358 -3.45179e-20 0.128743)
(13.1622 -3.42133e-22 0.129987)
(13.2923 1.67204e-20 0.131042)
(13.4261 1.45431e-20 0.13188)
(13.5633 6.0518e-22 0.132509)
(13.704 -2.79346e-20 0.13293)
(13.8479 -7.46356e-22 0.133134)
(13.9948 1.31802e-20 0.133118)
)
;

boundaryField
{
    inlet
    {
        type            calculated;
        value           nonuniform 0();
    }
    outlet
    {
        type            calculated;
        value           nonuniform 0();
    }
    flap
    {
        type            calculated;
        value           nonuniform 0();
    }
    upperWall
    {
        type            calculated;
        value           uniform (0 0 0);
    }
    lowerWall
    {
        type            calculated;
        value           nonuniform 0();
    }
    frontAndBack
    {
        type            empty;
        value           nonuniform 0();
    }
    procBoundary1to0
    {
        type            processor;
        value           nonuniform List<vector> 
18
(
(11.5116 0 3.3641)
(11.6011 -8.40549e-20 3.1619)
(11.5475 -5.93444e-20 2.98494)
(11.503 -8.01492e-20 2.81436)
(11.5635 7.85187e-20 2.62429)
(11.6111 5.07125e-20 2.43245)
(11.6474 9.68346e-20 2.23957)
(11.6738 -2.41417e-20 2.04618)
(11.6919 9.38673e-20 1.85265)
(11.7031 2.20797e-20 1.65918)
(11.7087 -1.76061e-19 1.46578)
(11.71 -1.0542e-19 1.27253)
(11.7083 0 1.07885)
(11.7044 -1.61159e-19 0.885235)
(11.6998 0 0.689647)
(11.695 -1.2189e-21 0.494573)
(11.6911 -4.00446e-20 0.294002)
(11.4989 2.32105e-21 0.0968119)
)
;
    }
    procBoundary1to2
    {
        type            processor;
        value           nonuniform List<vector> 
17
(
(16.2546 -2.74424e-21 4.34447)
(16.1061 3.60004e-20 4.07929)
(15.942 -3.56488e-21 3.80586)
(15.7755 -9.52875e-20 3.53104)
(15.6126 -1.11465e-19 3.25797)
(15.4558 -3.10499e-21 2.98778)
(15.3062 2.04976e-19 2.72073)
(15.1646 3.43104e-21 2.45668)
(15.0318 -2.11673e-19 2.19536)
(14.9085 0 1.93622)
(14.7956 -2.03061e-19 1.679)
(14.6942 9.69467e-20 1.42244)
(14.605 -1.64931e-21 1.16712)
(14.5291 -1.51284e-21 0.909483)
(14.4673 2.25809e-21 0.653984)
(14.4204 -2.19076e-20 0.389237)
(14.1447 0 0.132882)
)
;
    }
    procBoundary1to3
    {
        type            processor;
        value           nonuniform List<vector> 9((9.74929 8.43827e-20 4.71938) (10.0329 2.38679e-19 4.64973) (10.297 -1.52484e-19 4.55009) (10.5393 -7.26557e-20 4.42519) (10.7585 1.06114e-19 4.2795) (10.954 6.97516e-21 4.11706) (11.1261 -1.57973e-19 3.94148) (11.2756 1.22664e-19 3.75581) (11.4036 -5.96433e-20 3.56264));
    }
    procBoundary1to4
    {
        type            processor;
        value           nonuniform List<vector> 
30
(
(9.62754 -1.88955e-19 4.95096)
(9.83842 3.32711e-19 5.15344)
(10.0557 8.80436e-20 5.31508)
(10.2153 -3.47162e-19 5.76768)
(10.5056 -2.28406e-19 5.90973)
(10.7826 3.81208e-20 6.00366)
(11.0593 3.86456e-20 6.42348)
(11.4001 1.9541e-19 6.46011)
(11.7021 1.95342e-19 6.45716)
(12.0725 1.0727e-19 6.78597)
(12.4055 1.73918e-19 6.70036)
(12.6831 -2.78918e-20 6.60125)
(13.1359 -7.81492e-20 6.81345)
(13.3943 -2.10911e-19 6.89684)
(13.5719 -1.76542e-19 6.66167)
(13.7002 -1.76689e-19 6.44991)
(13.8856 -1.58761e-19 6.49585)
(14.2205 -7.92985e-20 6.55008)
(14.3692 -9.13312e-20 6.30578)
(14.5269 -8.32109e-20 6.09427)
(14.8703 1.10464e-19 6.06782)