/*--------------------------------*- C++ -*----------------------------------*\
| =========                 |                                                 |
| \\      /  F ield         | OpenFOAM: The Open Source CFD Toolbox           |
|  \\    /   O peration     | Version:  dev                                   |
|   \\  /    A nd           | Web:      www.OpenFOAM.org                      |
|    \\/     M anipulation  |                                                 |
\*---------------------------------------------------------------------------*/
FoamFile
{
    version     2.0;
    format      ascii;
    class       surfaceScalarField;
    location    "3.28";
    object      phi;
}
// * * * * * * * * * * * * * * * * * * * * * * * * * * * * * * * * * * * * * //

dimensions      [0 3 -1 0 0 0 0];

internalField   nonuniform List<scalar> 
879
(
0.207429
0.00605852
0.0115655
0.212472
0.00628441
0.21207
0.0119795
0.0173552
0.217639
0.0064891
0.21728
0.0123507
0.216761
0.0178837
0.0231641
0.222932
0.00667016
0.222622
0.0126745
0.222174
0.0183419
0.221596
0.0237484
0.0289721
0.228356
0.00682518
0.228098
0.0129468
0.227727
0.018724
0.22725
0.0242322
0.226676
0.0295492
0.0347434
0.233912
0.00695194
0.233711
0.0131634
0.233423
0.0190243
0.233054
0.0246086
0.232614
0.0299931
0.232112
0.0352455
0.0404226
0.239605
0.00704835
0.239464
0.0133208
0.239263
0.0192378
0.239009
0.0248714
0.23871
0.0302966
0.238377
0.0355797
0.238022
0.0407762
0.237658
0.0459326
0.0510882
0.245436
0.00711251
0.245359
0.0134157
0.24525
0.0193601
0.245116
0.0250151
0.244965
0.0304535
0.244807
0.0357394
0.244656
0.0409264
0.244526
0.0460589
0.244436
0.0511734
0.0562992
0.251409
0.0071428
0.251398
0.0134454
0.251385
0.0193875
0.251376
0.0250354
0.251377
0.0304586
0.251401
0.0357192
0.251459
0.0408683
0.251568
0.0459476
0.251746
0.0509906
0.252016
0.0560239
0.252401
0.0610672
0.0661353
0.257527
0.00713783
0.257585
0.0134077
0.257671
0.0193173
0.257789
0.0249289
0.257947
0.0303086
0.258155
0.0355157
0.258426
0.0405987
0.258776
0.0455963
0.259224
0.0505391
0.259792
0.0554506
0.260506
0.0603472
0.261395
0.0652401
0.262491
0.0701344
0.0750298
0.263793
0.00709658
0.263921
0.0133012
0.264108
0.0191476
0.264357
0.0246935
0.264673
0.0300014
0.265067
0.0351273
0.265551
0.0401166
0.266142
0.0450054
0.266858
0.0498211
0.26772
0.054584
0.268754
0.0593077
0.269989
0.0639998
0.271455
0.068662
0.273187
0.0732907
0.0778766
0.270211
0.00701833
0.27041
0.013125
0.270699
0.0188774
0.271078
0.0243285
0.271554
0.0295365
0.272134
0.0345541
0.27283
0.0394235
0.273659
0.0441777
0.274638
0.0488414
0.275787
0.0534319
0.27713
0.0579598
0.278695
0.0624301
0.280509
0.0668417
0.282606
0.0711882
0.285019
0.0754579
0.287784
0.0796329
0.0836896
0.276784
0.00690257
0.277055
0.0128788
0.277445
0.0185067
0.277955
0.0238342
0.278589
0.0289149
0.279353
0.033798
0.280259
0.0385225
0.281321
0.0431183
0.282555
0.0476074
0.28398
0.0520044
0.285619
0.0563176
0.287496
0.0605495
0.289636
0.0646969
0.292067
0.0687518
0.294818
0.0727011
0.29792
0.0765265
0.301399
0.0802055
0.305282
0.0837112
0.0870128
0.283515
0.00674909
0.283857
0.0125627
0.284349
0.0180361
0.284989
0.0232119
0.285778
0.0281389
0.286723
0.0328626
0.287833
0.0374188
0.289121
0.0418345
0.2906
0.0461291
0.29229
0.0503147
0.294208
0.0543977
0.296375
0.0583788
0.298815
0.0622535
0.301549
0.0660128
0.304603
0.0696433
0.307997
0.0731273
0.311754
0.0764438
0.315893
0.0795683
0.320427
0.0824743
0.325366
0.0851328
0.0875125
0.290408
0.00655805
0.29082
0.0121778
0.291412
0.0174675
0.292179
0.0224642
0.29312
0.0272123
0.294241
0.0317532
0.295548
0.0361195
0.297052
0.0403355
0.298766
0.0444181
0.300704
0.0483775
0.302883
0.0522184
0.305319
0.0559403
0.308032
0.059538
0.311039
0.0630021
0.314359
0.0663199
0.318008
0.0694748
0.322
0.072448
0.326346
0.0752183
0.331053
0.077763
0.336125
0.0800577
0.297466
0.00632993
0.297948
0.0117255
0.298637
0.0168032
0.299526
0.021595
0.300615
0.0261402
0.301905
0.0304764
0.303401
0.0346331
0.305111
0.038632
0.307046
0.0424878
0.309217
0.0462091
0.311637
0.0497992
0.31432
0.0532569
0.317279
0.0565768
0.32053
0.05975
0.324082
0.0627644
0.327949
0.0656056
0.332137
0.0682569
0.336651
0.0707007
0.341493
0.0729184
0.0748898
0.304694
0.00606546
0.305242
0.0112077
0.306025
0.0160466
0.307034
0.0206086
0.308264
0.0249284
0.309715
0.0290397
0.31139
0.0329691
0.313295
0.0367358
0.315437
0.0403524
0.317824
0.0438262
0.320465
0.0471597
0.323372
0.0503513
0.326553
0.0533957
0.330017
0.0562848
0.333773
0.0590078
0.337824
0.0615524
0.342175
0.0639045
0.346823
0.0660498
0.351766
0.0679735
0.0696597
0.312094
0.00576558
0.312707
0.0106269
0.313581
0.0152014
0.314703
0.0195102
0.316068
0.0235836
0.317672
0.0274517
0.319516
0.031138
0.321603
0.0346592
0.323937
0.0380265
0.326523
0.0412461
0.329367
0.0443196
0.332476
0.0472455
0.335854
0.050019
0.339506
0.0526329
0.343436
0.0550781
0.347644
0.0573442
0.352128
0.0594199
0.356883
0.0612938
0.361901
0.0629549
0.0643909
0.319671
0.00543141
0.320347
0.00998576
0.321307
0.0142716
0.322537
0.0183055
0.324029
0.0221132
0.325778
0.0257213
0.327781
0.0291503
0.330037
0.032415
0.332548
0.035525
0.335317
0.0384854
0.338344
0.0412977
0.341634
0.0439603
0.345187
0.0464692
0.349004
0.0488182
0.353084
0.0509999
0.357423
0.0530059
0.362017
0.0548274
0.366855
0.0564559
0.371927
0.0578832
0.0591004
0.32743
0.00506416
0.328165
0.00928696
0.329207
0.0132616
0.33054
0.0170003
0.332152
0.0205246
0.334036
0.0238575
0.336186
0.027017
0.338599
0.0300158
0.341274
0.032862
0.344209
0.0355601
0.347403
0.0381114
0.350855
0.0405146
0.354563
0.0427661
0.358524
0.0448613
0.362733
0.0467941
0.367183
0.0485581
0.371866
0.0501467
0.376771
0.0515537
0.381882
0.0527736
0.0538001
0.335374
0.00466505
0.336166
0.00853336
0.337285
0.0121757
0.338715
0.0156004
0.34044
0.0188252
0.34245
0.0218695
0.344737
0.0247486
0.347296
0.0274735
0.35012
0.0300511
0.353207
0.0324851
0.356551
0.0347768
0.360149
0.0369252
0.363994
0.0389275
0.368082
0.04078
0.372403
0.0424782
0.376948
0.0440174
0.381706
0.0453928
0.386663
0.0466002
0.391804
0.0476364
0.048497
0.343509
0.00423524
0.344354
0.00772756
0.345547
0.011018
0.347068
0.0141116
0.348898
0.0170221
0.351026
0.0197656
0.353441
0.022355
0.356133
0.0247993
0.359096
0.0271044
0.362321
0.0292736
0.365801
0.0313079
0.36953
0.0332066
0.373499
0.0349677
0.377698
0.0365885
0.382118
0.0380658
0.386745
0.0393961
0.391568
0.0405763
0.396569
0.041604
0.401734
0.0424773
0.0431935
0.351838
0.00377567
0.352735
0.0068718
0.353999
0.00979217
0.355605
0.0125389
0.357534
0.0151219
0.359772
0.0175538
0.362305
0.0198451
0.365122
0.0220032
0.368211
0.0240329
0.371563
0.025937
0.375168
0.0277164
0.379017
0.0293707
0.383097
0.0308985
0.387397
0.0322979
0.391906
0.0335666
0.396607
0.0347026
0.401488
0.0357038
0.40653
0.0365691
0.411716
0.0372978
0.0378884
0.360368
0.00328685
0.361315
0.00596751
0.362646
0.00850112
0.364333
0.0108869
0.366356
0.0131306
0.368697
0.0152412
0.37134
0.0172269
0.374272
0.0190939
0.377479
0.0208458
0.380949
0.0224848
0.384669
0.0240118
0.388628
0.0254266
0.392811
0.0267282
0.397205
0.0279155
0.401796
0.0289869
0.406568
0.0299413
0.411503
0.0307777
0.416586
0.0314957
0.421797
0.0320954
0.0325761
0.369103
0.00276843
0.370101
0.00501481
0.371497
0.00714667
0.373261
0.00915923
0.375373
0.0110528
0.377811
0.0128333
0.380558
0.0145069
0.383598
0.0160782
0.386916
0.0175501
0.390496
0.0189241
0.394325
0.0202009
0.398388
0.0213805
0.402669
0.0224622
0.407153
0.0234454
0.411824
0.0243293
0.416664
0.0251131
0.421657
0.0257966
0.426784
0.0263799
0.432027
0.0268638
0.0272478
0.378051
0.00221826
0.379102
0.00401132
0.380562
0.00572955
0.382401
0.00735902
0.384596
0.00889318
0.387126
0.0103354
0.389971
0.0116907
0.393114
0.0129621
0.396536
0.0141516
0.400222
0.0152601
0.404155
0.0162882
0.408318
0.0172358
0.412695
0.0181026
0.417269
0.0188883
0.422021
0.0195923
0.426934
0.0202146
0.431989
0.020755
0.437168
0.0212141
0.442452
0.0215927
0.021891
0.387222
0.00162958
0.388331
0.00295038
0.389857
0.00424801
0.391771
0.00548652
0.394048
0.00665283
0.396668
0.00774986
0.399608
0.00878136
0.402849
0.00974901
0.406373
0.0106536
0.410162
0.0114958
0.414196
0.0122758
0.418459
0.0129935
0.422932
0.013649
0.427597
0.0142419
0.432434
0.014772
0.437426
0.0152393
0.442552
0.0156442
0.447795
0.015987
0.453134
0.0162686
0.0164893
0.396635
0.000980663
0.397806
0.00182883
0.399393
0.00270711
0.401377
0.00354563
0.403734
0.00433477
0.40644
0.00507931
0.409473
0.00578119
0.412812
0.00644036
0.416437
0.00705677
0.420328
0.00763055
0.424466
0.0081618
0.428831
0.00865045
0.433405
0.00909636
0.438167
0.0094994
0.443099
0.00985947
0.44818
0.0101766
0.453391
0.0104511
0.458711
0.0106834
0.464123
0.0108741
0.0110234
0.406374
0.000171326
0.407612
0.000641921
0.40926
0.00110675
0.411312
0.00153783
0.413743
0.00194453
0.416528
0.0023313
0.419646
0.00269781
0.423075
0.00304307
0.426795
0.00336663
0.430785
0.00366839
0.435024
0.00394825
0.439492
0.00420607
0.44417
0.00444171
0.449036
0.00465505
0.45407
0.00484602
0.459252
0.00501464
0.464562
0.00516104
0.469979
0.00528546
0.475483
0.00538827
0.00546964
0.415546
0.416241
0.417397
0.41898
0.420967
0.423337
0.42607
0.429146
0.432544
0.436241
0.440216
0.444448
0.448914
0.453592
0.45846
0.463496
0.468678
0.473983
0.479391
)
;

boundaryField
{
    inlet
    {
        type            calculated;
        value           nonuniform List<scalar> 
30
(
-0.20766
-0.212683
-0.217828
-0.223097
-0.228493
-0.23402
-0.239681
-0.245479
-0.251417
-0.257499
-0.263728
-0.270107
-0.276641
-0.283333
-0.290186
-0.297206
-0.304395
-0.311758
-0.3193
-0.327023
-0.334934
-0.343036
-0.351334
-0.359832
-0.368536
-0.377451
-0.386582
-0.395933
-0.40551
-0.415319
)
;
    }
    outlet
    {
        type            calculated;
        value           nonuniform 0();
    }
    flap
    {
        type            calculated;
        value           nonuniform 0();
    }
    upperWall
    {
        type            calculated;
        value           nonuniform List<scalar> 
20
(
0
0
0
0
0
0
0
0
0
0
0
0
0
0
0
0
-8.41603e-15
0
0
-7.795e-15
)
;
    }
    lowerWall
    {
        type            calculated;
        value           nonuniform 0();
    }
    frontAndBack
    {
        type            empty;
        value           nonuniform 0();
    }
    procBoundary0to1
    {
        type            processor;
        value           nonuniform List<scalar> 
18
(
0.330714
0.341554
0.0820784
0.346658
0.356994
0.367168
0.377217
0.387183
0.397109
0.407041
0.417027
0.427117
0.437364
0.44782
0.458548
0.469603
0.481053
0.484878
)
;
    }
    procBoundary0to3
    {
        type            processor;
        value           nonuniform List<scalar> 
34
(
-0.00581403
-0.0111133
0.206988
-0.0167628
0.211486
-0.0224868
0.216089
-0.0282701
0.220895
-0.0340817
0.226013
-0.0398727
0.231559
-0.0455731
-0.0507388
0.237302
-0.0562751
0.244405
-0.0614595
-0.0666734
0.252931
-0.0712378
-0.0763786
0.263832
-0.0799205
0.275224
-0.0824037
-0.0868485
0.290937
-0.0876
-0.0913306
0.309595
-0.0900764
-0.0928652
)
;
    }
}


// ************************************************************************* //
