/*--------------------------------*- C++ -*----------------------------------*\
| =========                 |                                                 |
| \\      /  F ield         | OpenFOAM: The Open Source CFD Toolbox           |
|  \\    /   O peration     | Version:  dev                                   |
|   \\  /    A nd           | Web:      www.OpenFOAM.org                      |
|    \\/     M anipulation  |                                                 |
\*---------------------------------------------------------------------------*/
FoamFile
{
    version     2.0;
    format      ascii;
    class       volVectorField;
    location    "3.28";
    object      U;
}
// * * * * * * * * * * * * * * * * * * * * * * * * * * * * * * * * * * * * * //

dimensions      [0 1 -1 0 0 0 0];

internalField   nonuniform List<vector> 
465
(
(10.0028 8.86145e-21 0.129727)
(9.98599 -2.72806e-20 0.26171)
(10.0033 -3.43201e-20 0.134377)
(9.98809 1.76076e-20 0.271113)
(9.96279 -1.81052e-20 0.408725)
(10.0039 5.84478e-20 0.138542)
(9.99028 -8.61561e-21 0.279531)
(9.96791 1.76647e-20 0.421416)
(9.94196 0 0.56497)
(10.0044 -3.25072e-20 0.142171)
(9.99253 0 0.28686)
(9.97319 0 0.432443)
(9.95153 1.75111e-20 0.579652)
(9.92606 -1.80951e-20 0.730056)
(10.005 0 0.145218)
(9.99483 -1.61454e-20 0.293007)
(9.97858 -1.66136e-20 0.441675)
(9.96128 1.69589e-20 0.591895)
(9.94134 6.99954e-20 0.74521)
(9.91775 -8.96029e-20 0.903142)
(10.0056 0 0.147641)
(9.99716 3.12079e-20 0.29789)
(9.98403 -3.20636e-20 0.448987)
(9.97113 3.30433e-20 0.601538)
(9.95676 -1.01694e-19 0.757048)
(9.93988 1.73684e-20 0.917006)
(9.92097 7.10922e-20 1.0828)
(10.0062 -2.95065e-20 0.149401)
(9.99949 -4.56431e-20 0.301431)
(9.98949 7.79644e-20 0.454266)
(9.981 -6.39289e-20 0.608438)
(9.97219 -1.638e-20 0.765394)
(9.96199 3.36534e-20 0.926582)
(9.9509 -1.73151e-20 1.09334)
(9.93976 -8.82143e-20 1.26692)
(9.92932 5.40972e-20 1.44851)
(10.0067 2.87986e-20 0.150465)
(10.0018 -1.47248e-20 0.303564)
(9.99492 -4.53595e-20 0.457417)
(9.9908 3.11365e-20 0.612466)
(9.98748 1.59651e-20 0.770098)
(9.98388 0 0.931699)
(9.98049 1.66187e-20 1.09854)
(9.97815 1.71522e-20 1.27181)
(9.97764 0 1.45257)
(9.9797 0 1.64182)
(10.0073 -3.46978e-20 0.150806)
(10.0041 7.13408e-21 0.304236)
(10.0003 -1.445e-20 0.458358)
(10.0004 -4.49886e-20 0.613523)
(10.0025 6.15127e-20 0.77104)
(10.0054 -3.14312e-20 0.932227)
(10.0095 -1.62179e-20 1.09828)
(10.0157 0 1.27029)
(10.0248 0 1.44923)
(10.0375 0 1.63597)
(10.0546 0 1.83131)
(10.0772 -7.11284e-20 2.03593)
(10.0078 2.70776e-20 0.150403)
(10.0063 -2.75716e-20 0.303404)
(10.0055 2.8509e-20 0.457029)
(10.0098 2.92404e-20 0.611531)
(10.0172 -5.97963e-20 0.768132)
(10.0263 6.12393e-20 0.928072)
(10.0376 0 1.09246)
(10.052 -6.38127e-20 1.2623)
(10.0703 8.14832e-20 1.43844)
(10.0931 0 1.62167)
(10.1212 0 1.81261)
(10.1557 2.11134e-22 2.01181)
(10.1975 -1.76226e-20 2.2197)
(10.2479 0 2.43659)
(10.0083 1.63509e-21 0.149241)
(10.0084 5.19647e-20 0.30104)
(10.0105 0 0.45339)
(10.0189 -2.81158e-20 0.606441)
(10.0313 -2.8789e-20 0.761324)
(10.0464 5.90049e-20 0.919189)
(10.0646 -3.02562e-20 1.08106)
(10.0869 0 1.24783)
(10.1138 -1.58343e-20 1.42026)
(10.1461 0 1.59899)
(10.1845 0 1.78454)
(10.2299 -4.95615e-20 1.9773)
(10.2834 4.11586e-22 2.17754)
(10.3459 3.46543e-20 2.38538)
(10.4188 -3.48652e-20 2.60078)
(10.0088 2.5364e-20 0.147312)
(10.0105 -2.45687e-20 0.297128)
(10.0154 -2.82456e-20 0.44742)
(10.0276 2.74494e-20 0.598233)
(10.0447 4.20911e-20 0.750599)
(10.0655 -4.3078e-20 0.905578)
(10.0903 -1.46097e-20 1.0641)
(10.1199 1.48545e-20 1.22695)
(10.1549 3.04975e-20 1.39479)
(10.196 0 1.56814)
(10.2439 0 1.74739)
(10.2993 3.18701e-20 1.93281)
(10.3632 3.24024e-20 2.1245)
(10.4365 1.08966e-22 2.32245)
(10.5204 0 2.52645)
(10.6157 0 2.73609)
(10.7238 -3.41481e-20 2.95078)
(10.0093 2.27719e-20 0.144616)
(10.0124 4.49198e-26 0.291669)
(10.0199 2.75675e-20 0.439121)
(10.0358 -2.63861e-20 0.586916)
(10.0575 0 0.735981)
(10.0836 6.92059e-21 0.88728)
(10.1146 -7.08526e-21 1.04165)
(10.151 -4.3439e-20 1.19977)
(10.1935 1.47445e-20 1.3622)
(10.2426 1.49455e-20 1.52936)
(10.299 1.50288e-20 1.70152)
(10.3634 -3.69093e-22 1.87882)
(10.4366 -3.11763e-20 2.06126)
(10.5193 0 2.24867)
(10.6125 0 2.44072)
(10.717 -8.04295e-21 2.6369)
(10.8338 4.05658e-20 2.8365)
(10.9637 -6.55346e-20 3.03857)
(11.1075 0 3.24197)
(10.0097 -4.48543e-20 0.141157)
(10.0142 -3.05274e-21 0.284673)
(10.0242 6.25965e-21 0.428514)
(10.0435 1.93466e-20 0.572523)
(10.0694 6.55617e-21 0.717523)
(10.1005 -6.71577e-21 0.86438)
(10.1371 0 1.01383)
(10.1798 1.74263e-21 1.16647)
(10.2291 2.65409e-20 1.32276)
(10.2855 0 1.483)
(10.3496 -5.8867e-20 1.64737)
(10.4219 -3.00458e-20 1.81592)
(10.5031 3.71743e-22 1.98852)
(10.5939 0 2.16492)
(10.6949 0 2.3447)
(10.8069 -6.19865e-20 2.52726)
(10.9306 3.11593e-20 2.71185)
(11.0664 3.17941e-20 2.89749)
(11.215 -9.40587e-20 3.08303)
(11.3768 6.38614e-20 3.26715)
(11.5521 -1.25234e-19 3.44831)
(10.01 4.60273e-20 0.136948)
(10.0159 -1.17521e-20 0.276167)
(10.0282 -4.84633e-20 0.415639)
(10.0506 3.72097e-20 0.555116)
(10.0804 1.26985e-20 0.695313)
(10.1161 -1.30077e-20 0.837003)
(10.1579 -2.64006e-20 0.980828)
(10.2063 0 1.12729)
(10.2617 -4.13897e-20 1.27675)
(10.3246 8.07511e-23 1.42944)
(10.3955 4.2855e-20 1.58544)
(10.4746 0 1.74471)
(10.5627 5.84794e-20 1.90705)
(10.6602 -2.9673e-20 2.07214)
(10.7677 -5.9668e-20 2.23949)
(10.8856 3.06698e-20 2.40848)
(11.0144 -3.04987e-20 2.57832)
(11.1545 0 2.74806)
(11.3062 6.10148e-20 2.91662)
(11.4696 0 3.08277)
(11.6447 -3.06765e-20 3.24514)
(10.0103 -3.32898e-22 0.132008)
(10.0174 1.71952e-22 0.266188)
(10.0319 2.36255e-20 0.400557)
(10.0572 -1.88875e-22 0.53478)
(10.0905 0 0.669471)
(10.1304 0 0.805306)
(10.1768 -2.539e-20 0.94284)
(10.2303 1.21001e-22 1.08249)
(10.2912 2.66933e-20 1.22453)
(10.3598 -2.69383e-20 1.36912)
(10.4365 -2.73797e-20 1.51626)
(10.5215 2.79765e-20 1.66585)
(10.6154 0 1.81764)
(10.7184 5.70878e-20 1.97125)
(10.831 5.72628e-20 2.12617)
(10.9534 -5.80745e-20 2.28176)
(11.0859 5.79975e-20 2.43726)
(11.2288 5.72622e-20 2.59177)
(11.382 -2.4862e-21 2.74429)
(11.5456 -1.18934e-19 2.89371)
(10.0106 -8.68733e-20 0.126359)
(10.0188 2.23374e-20 0.254784)
(10.0352 0 0.383341)
(10.0631 -2.34453e-20 0.511621)
(10.0997 -4.76102e-20 0.640138)
(10.1432 2.44127e-20 0.769477)
(10.1938 2.13809e-22 0.900109)
(10.2518 0 1.03237)
(10.3175 0 1.16647)
(10.391 2.63192e-20 1.3025)
(10.4727 -2.64499e-20 1.4404)
(10.5627 0 1.58001)
(10.6613 0 1.72106)
(10.7687 -5.51596e-20 1.86314)
(10.8852 5.531e-20 2.00574)
(11.0109 -2.82305e-20 2.14823)
(11.1459 -1.12034e-19 2.28989)
(11.2902 2.26773e-19 2.4299)
(11.4438 -1.43347e-19 2.56734)
(11.6065 0 2.70126)
(10.0108 9.47898e-20 0.120029)
(10.0201 -1.07916e-20 0.242012)
(10.0381 0 0.36408)
(10.0684 -2.26057e-20 0.485762)
(10.1078 4.63964e-20 0.607477)
(10.1546 2.35236e-20 0.729725)
(10.2089 -2.38541e-20 0.8529)
(10.2708 2.63614e-22 0.977267)
(10.3406 5.00326e-20 1.10297)
(10.4184 5.04953e-20 1.23005)
(10.5042 -1.81287e-22 1.3584)
(10.5983 -7.78109e-20 1.48784)
(10.7006 1.05475e-19 1.61806)
(10.8115 -1.06276e-19 1.74866)
(10.9308 1.88416e-19 1.87914)
(11.0587 -8.21903e-20 2.0089)
(11.1951 -2.71441e-20 2.13729)
(11.34 0 2.26354)
(11.493 1.09014e-19 2.38688)
(11.6538 -2.47719e-19 2.50646)
(10.011 -4.10159e-20 0.113049)
(10.0211 2.08629e-20 0.227935)
(10.0408 -2.14316e-20 0.342871)
(10.0731 2.19751e-20 0.457337)
(10.115 2.23471e-20 0.571666)
(10.1647 -2.29814e-20 0.686275)
(10.2221 2.32417e-20 0.801489)
(10.2874 4.73663e-20 0.917511)
(10.3607 -3.15197e-22 1.03443)
(10.442 -1.22565e-19 1.15225)
(10.5313 2.49674e-20 1.27083)
(10.6285 2.53493e-20 1.38997)
(10.7338 0 1.50935)
(10.8472 -1.28487e-19 1.62859)
(10.9685 2.34356e-19 1.74721)
(11.0977 -1.31999e-19 1.86467)
(11.2347 -1.04518e-19 1.98036)
(11.3792 1.06953e-19 2.09362)
(11.5309 -1.32042e-19 2.20377)
(11.6894 1.07944e-19 2.31011)
(10.0112 -9.91343e-21 0.105453)
(10.0221 -5.07766e-20 0.21262)
(10.0431 -2.07553e-20 0.319817)
(10.0772 8.51502e-20 0.426489)
(10.1213 -6.5406e-20 0.532888)
(10.1735 0 0.639359)
(10.2336 2.24002e-20 0.74616)
(10.3017 -4.61736e-20 0.853443)
(10.378 4.66469e-20 0.961257)
(10.4621 -1.18536e-19 1.06956)
(10.5541 1.20847e-19 1.1782)
(10.6539 0 1.28698)
(10.7614 -2.46066e-20 1.39558)
(10.8765 0 1.50363)
(10.999 -1.00148e-19 1.6107)
(11.1288 1.0227e-19 1.71629)
(11.2656 2.56973e-20 1.81987)
(11.4092 -2.55859e-20 1.92087)
(11.559 5.16111e-20 2.01871)
(11.7148 -7.64771e-20 2.11279)
(10.0113 0 0.0972722)
(10.0229 1.97849e-20 0.196136)
(10.045 0 0.295024)
(10.0807 -2.05954e-20 0.393361)
(10.1267 2.10331e-20 0.491331)
(10.181 4.29452e-20 0.589209)
(10.2434 -4.39775e-20 0.687194)
(10.3139 2.22446e-20 0.785393)
(10.3925 0 0.883821)
(10.479 0 0.982411)
(10.5731 -4.67456e-20 1.08101)
(10.6748 -9.41928e-20 1.17941)
(10.7838 1.22655e-21 1.27732)
(10.9 9.73246e-20 1.37439)
(11.0232 0 1.47022)
(11.153 -2.45131e-20 1.5644)
(11.2891 0 1.65644)
(11.4312 2.14429e-22 1.74586)
(11.5789 -2.51282e-20 1.83219)
(11.7317 0 1.91491)
(10.0114 -9.34576e-21 0.0885395)
(10.0236 -9.55972e-21 0.178548)
(10.0468 6.99625e-23 0.268592)
(10.0838 2.0124e-20 0.358096)
(10.1313 -2.05514e-20 0.447178)
(10.1874 -2.08251e-20 0.536049)
(10.2517 0 0.624859)
(10.3241 4.30076e-20 0.713675)
(10.4046 -2.2577e-20 0.802487)
(10.4929 -2.29955e-20 0.891211)
(10.5887 -4.56955e-20 0.979699)
(10.6917 0 1.06774)
(10.8017 2.33155e-20 1.15507)
(10.9185 -2.33752e-20 1.24138)
(11.0418 2.35911e-20 1.32631)
(11.1711 2.39711e-20 1.4095)
(11.3062 -1.19727e-20 1.49053)
(11.4467 2.42698e-20 1.56902)
(11.592 0 1.64455)
(11.7416 -2.05229e-19 1.71672)
(10.0114 -1.81604e-20 0.0792821)
(10.0241 1.64707e-23 0.159915)
(10.0482 3.81745e-20 0.240617)
(10.0864 -1.94603e-20 0.320827)
(10.1352 3.98526e-20 0.400602)
(10.1928 2.03489e-20 0.480093)
(10.2586 0 0.559406)
(10.3326 4.20531e-20 0.638576)
(10.4146 4.27382e-20 0.717572)
(10.5042 -6.46039e-20 0.796304)
(10.6012 8.81883e-20 0.874627)
(10.7051 -8.86151e-20 0.952345)
(10.8158 -1.02461e-20 1.02922)
(10.9327 1.1443e-19 1.10498)
(11.0557 6.82382e-20 1.17931)
(11.1843 -1.04816e-19 1.25191)
(11.3181 1.17088e-20 1.32243)
(11.4567 0 1.39054)
(11.5995 -1.17534e-20 1.4559)
(11.7462 -1.75773e-19 1.51821)
(10.0114 1.76156e-20 0.0695194)
(10.0247 1.80685e-20 0.140281)
(10.0495 -1.85291e-20 0.211178)
(10.0886 3.76864e-20 0.281672)
(10.1386 -9.65589e-20 0.351759)
(10.1973 3.95017e-20 0.421535)
(10.2644 -2.00179e-20 0.491067)
(10.3396 -1.01861e-19 0.560365)
(10.4227 6.24754e-20 0.629385)
(10.5134 1.05013e-20 0.698035)
(10.6111 -3.20707e-20 0.766175)
(10.7156 -9.68277e-20 0.83363)
(10.8265 1.19349e-20 0.900189)
(10.9434 8.89311e-20 0.965614)
(11.0659 0 1.02965)
(11.1936 1.12888e-20 1.09202)
(11.3259 7.86774e-20 1.15246)
(11.4626 -1.39456e-21 1.2107)
(11.603 -8.08972e-20 1.26646)
(11.7467 1.8249e-19 1.31949)
(10.0115 -1.72157e-20 0.0592556)
(10.0251 1.75721e-20 0.119669)
(10.0507 -5.39782e-20 0.180336)
(10.0907 3.67771e-20 0.240733)
(10.1415 5.63204e-20 0.300782)
(10.2012 -2.8845e-20 0.360522)
(10.2692 9.73408e-20 0.419989)
(10.3454 -7.96337e-20 0.479178)
(10.4294 0 0.538039)
(10.5208 -9.1764e-20 0.596481)
(10.6191 8.34267e-20 0.654381)
(10.7239 -7.30757e-20 0.711584)
(10.8348 9.60932e-20 0.767911)
(10.9514 0 0.823163)
(11.0732 -8.61869e-20 0.877125)
(11.1998 8.80583e-20 0.929577)
(11.3307 1.09525e-19 0.980297)
(11.4655 -1.88416e-19 1.02907)
(11.6037 1.42009e-21 1.07568)
(11.7447 9.02964e-20 1.11993)
(10.0115 2.50416e-20 0.0484635)
(10.0257 -8.55884e-21 0.0980644)
(10.052 0 0.148127)
(10.0926 -1.79462e-20 0.198113)
(10.1442 0 0.247857)
(10.2046 -9.33785e-21 0.297345)
(10.2734 0 0.346583)
(10.3503 8.65542e-20 0.395547)
(10.4349 9.17778e-21 0.444178)
(10.5268 -6.83719e-22 0.492389)
(10.6254 -6.0899e-20 0.54007)
(10.7303 7.11196e-20 0.587092)
(10.8411 -9.35123e-20 0.633305)
(10.9572 0 0.678549)
(11.0784 -8.38399e-20 0.722653)
(11.204 7.50484e-20 0.765442)
(11.3335 7.43846e-20 0.806742)
(11.4666 -1.24596e-21 0.846386)
(11.6027 -1.36526e-21 0.884215)
(11.7413 -7.70338e-20 0.920082)
(10.0116 -8.16918e-21 0.0370416)
(10.0264 -8.33492e-21 0.0753975)
(10.0535 0 0.114486)
(10.0948 8.70511e-21 0.153635)
(10.1471 0 0.192612)
(10.2081 0 0.231406)
(10.2775 -3.68177e-20 0.270025)
(10.3549 2.82855e-20 0.308436)
(10.44 -8.56028e-20 0.346577)
(10.5321 8.74862e-20 0.384368)
(10.6309 -9.84169e-21 0.421715)
(10.7358 9.96771e-21 0.45851)
(10.8464 -8.00465e-20 0.494634)
(10.9621 7.16767e-20 0.529957)
(11.0825 8.16231e-20 0.564345)
(11.2071 -7.81984e-20 0.597664)
(11.3355 -8.81167e-20 0.62978)
(11.4671 1.17775e-20 0.660568)
(11.6014 7.99293e-20 0.689908)
(11.7379 -1.06424e-20 0.717693)
(10.012 7.92997e-21 0.0246606)
(10.0276 -8.12287e-21 0.0517616)
(10.0555 0 0.0801775)
(10.0974 -8.50494e-21 0.108714)
(10.1501 4.32942e-21 0.137051)
(10.2116 0 0.165216)
(10.2814 0 0.19323)
(10.3592 -3.18962e-20 0.22106)
(10.4446 3.26859e-20 0.248655)
(10.537 -9.45177e-21 0.275959)
(10.6359 -4.77882e-21 0.302905)
(10.7407 3.85546e-20 0.329421)
(10.8511 -3.94263e-20 0.355422)
(10.9664 9.92613e-21 0.380819)
(11.0862 7.95374e-20 0.40552)
(11.2101 -7.62249e-20 0.42943)
(11.3374 5.09492e-21 0.45246)
(11.4678 -5.11738e-21 0.47452)
(11.6007 1.03089e-20 0.495532)
(11.7357 0 0.515421)
(10.0133 7.73442e-21 0.00991286)
(10.0312 3.94722e-21 0.0244703)
(10.0602 -8.11089e-21 0.0412047)
(10.1024 0 0.0583295)
(10.1553 -4.22947e-21 0.0754546)
(10.217 0 0.0925931)
(10.2871 -3.49674e-20 0.10973)
(10.365 2.9111e-20 0.126806)
(10.4505 4.53759e-21 0.14376)
(10.5428 0 0.160541)
(10.6416 4.66967e-21 0.177098)
(10.7463 0 0.193378)
(10.8564 -3.80238e-20 0.209325)
(10.9714 4.55095e-22 0.22488)
(11.0907 7.8059e-20 0.239985)
(11.2139 -3.96372e-20 0.254583)
(11.3405 -2.47998e-21 0.268617)
(11.47 4.46787e-20 0.282037)
(11.6019 -4.55561e-20 0.294795)
(11.7357 0 0.30685)
(10.0009 0 0.000818705)
(10.008 -7.72767e-21 0.00457473)
(10.0245 3.959e-21 0.00962139)
(10.0537 8.06585e-21 0.0149719)
(10.094 -8.26703e-21 0.0204359)
(10.1437 0 0.0260135)
(10.2023 0 0.0316859)
(10.2695 1.08599e-20 0.0374162)
(10.3446 -1.77051e-20 0.0431712)
(10.4273 9.02556e-21 0.0489244)
(10.5169 0 0.0546514)
(10.613 0 0.0603274)
(10.7149 0 0.0659273)
(10.8222 1.87789e-20 0.0714254)
(10.9343 -3.81586e-20 0.0767964)
(11.0507 1.93794e-20 0.0820153)
(11.1709 2.42782e-21 0.0870583)
(11.2943 0 0.091903)
(11.4204 0 0.0965292)
(11.5488 0 0.100918)
)
;

boundaryField
{
    inlet
    {
        type            fixedValue;
        value           uniform (10 0 0);
    }
    outlet
    {
        type            zeroGradient;
    }
    flap
    {
        type            movingWallVelocity;
        value           nonuniform 0();
    }
    upperWall
    {
        type            noSlip;
    }
    lowerWall
    {
        type            noSlip;
    }
    frontAndBack
    {
        type            empty;
    }
    procBoundary0to1
    {
        type            processor;
        value           nonuniform List<vector> 
18
(
(11.7408 -9.59265e-20 3.62485)
(11.8313 8.9261e-20 3.40229)
(11.7193 0 3.03885)
(11.7193 0 3.03885)
(11.7778 1.12577e-19 2.83064)
(11.8222 -1.11279e-19 2.62143)
(11.8543 0 2.41192)
(11.8759 -1.04536e-19 2.20255)
(11.889 1.25198e-20 1.99359)
(11.8951 -4.0271e-19 1.78517)
(11.896 -1.88058e-19 1.57717)
(11.8931 1.86267e-19 1.36958)
(11.888 -9.0645e-20 1.16167)
(11.8819 -8.82846e-20 0.95386)
(11.8762 0 0.743831)
(11.8722 -5.19803e-21 0.534126)
(11.8709 4.78935e-20 0.318165)
(11.6788 -2.48579e-21 0.105055)
)
;
    }
    procBoundary0to3
    {
        type            processor;
        value           nonuniform List<vector> 
34
(
(10.0022 0 0.124675)
(9.98399 2.0747e-23 0.251479)
(9.95786 -2.86424e-23 0.394537)
(9.95786 -2.86424e-23 0.394537)
(9.93266 0 0.548026)
(9.93266 0 0.548026)
(9.91104 5.5959e-20 0.711787)
(9.91104 5.5959e-20 0.711787)
(9.89578 -9.27483e-20 0.8852)
(9.89578 -9.27483e-20 0.8852)
(9.89096 -1.83367e-20 1.06713)
(9.89096 -1.83367e-20 1.06713)
(9.90085 -3.65103e-20 1.25577)
(9.90085 -3.65103e-20 1.25577)
(9.88025 1.3097e-19 1.43718)
(9.92033 -7.38604e-20 1.6392)
(9.92033 -7.38604e-20 1.6392)
(9.98519 0 1.84047)
(9.98519 0 1.84047)
(9.99508 -2.24306e-22 2.04937)
(10.1063 3.61602e-20 2.25044)
(10.1063 3.61602e-20 2.25044)
(10.1432 -7.39679e-20 2.47535)
(10.3082 -3.56991e-20 2.66264)
(10.3082 -3.56991e-20 2.66264)
(10.5032 -6.4662e-23 2.82351)
(10.5032 -6.4662e-23 2.82351)
(10.6005 3.59511e-20 3.05315)
(10.8457 -5.9665e-20 3.16967)
(10.8457 -5.9665e-20 3.16967)
(10.9826 2.5831e-20 3.39163)
(11.266 -6.49742e-20 3.44527)
(11.266 -6.49742e-20 3.44527)
(11.4396 -3.10253e-20 3.64683)
)
;
    }
}


// ************************************************************************* //
