/*--------------------------------*- C++ -*----------------------------------*\
| =========                 |                                                 |
| \\      /  F ield         | OpenFOAM: The Open Source CFD Toolbox           |
|  \\    /   O peration     | Version:  dev                                   |
|   \\  /    A nd           | Web:      www.OpenFOAM.org                      |
|    \\/     M anipulation  |                                                 |
\*---------------------------------------------------------------------------*/
FoamFile
{
    version     2.0;
    format      ascii;
    class       volVectorField;
    location    "0.47";
    object      cellDisplacement;
}
// * * * * * * * * * * * * * * * * * * * * * * * * * * * * * * * * * * * * * //

dimensions      [0 1 0 0 0 0 0];

internalField   nonuniform List<vector> 
465
(
(0.0740981 0 0.000658778)
(0.0734071 0 0.000524589)
(0.0724159 0 0.000397798)
(0.0710804 0 0.000285514)
(0.0693222 0 0.000190813)
(0.0670117 0 0.00010899)
(0.063969 0 1.77348e-05)
(0.0601116 0 -0.000138113)
(0.0578553 0 -0.000372773)
(0.0744037 0 0.00201183)
(0.073828 0 0.00160712)
(0.0730122 0 0.00122322)
(0.0719651 0 0.000884493)
(0.0707154 0 0.000605974)
(0.0693656 0 0.000393367)
(0.0682213 0 0.000238795)
(0.0680683 0 0.000122382)
(0.0711922 0 1.08387e-05)
(0.0749806 0 0.00348169)
(0.0746092 0 0.00280058)
(0.0740866 0 0.00214793)
(0.0734731 0 0.00156454)
(0.0728851 0 0.00108708)
(0.0725369 0 0.000742487)
(0.0727817 0 0.000553522)
(0.0739623 0 0.000542293)
(0.0754666 0 0.000676757)
(0.075761 0 0.00513776)
(0.0756326 0 0.00416209)
(0.0754327 0 0.00321497)
(0.0752426 0 0.00235431)
(0.0751927 0 0.00163729)
(0.0754565 0 0.00110623)
(0.0761955 0 0.000787846)
(0.0773552 0 0.000692773)
(0.0783568 0 0.000779849)
(0.0766548 0 0.00702873)
(0.0767626 0 0.00573864)
(0.076842 0 0.00446335)
(0.0769704 0 0.00328505)
(0.0772447 0 0.00228102)
(0.0777555 0 0.00150385)
(0.078521 0 0.000961557)
(0.0793802 0 0.000606799)
(0.07995 0 0.000383628)
(0.0775812 0 0.00921925)
(0.0778967 0 0.00760372)
(0.0781945 0 0.00597073)
(0.0785299 0 0.00443027)
(0.0789569 0 0.00309317)
(0.0795011 0 0.00204402)
(0.0801148 0 0.0013052)
(0.0806498 0 0.000802803)
(0.080917 0 0.000405805)
(0.0784837 0 0.0118074)
(0.0789746 0 0.00986414)
(0.0794356 0 0.00784355)
(0.0798964 0 0.00588621)
(0.0803781 0 0.00415206)
(0.0808736 0 0.00279297)
(0.0813229 0 0.00192019)
(0.0816122 0 0.00158946)
(0.0816657 0 0.00176835)
(0.0793233 0 0.0149157)
(0.0799646 0 0.0126618)
(0.0805529 0 0.0102307)
(0.081095 0 0.00778736)
(0.0815923 0 0.00554349)
(0.0820354 0 0.00372276)
(0.0823976 0 0.00248876)
(0.0826392 0 0.00184235)
(0.082744 0 0.00157799)
(0.0800704 0 0.0186847)
(0.0808492 0 0.0161755)
(0.0815514 0 0.0133381)
(0.0821615 0 0.0103427)
(0.0826649 0 0.00744829)
(0.0830589 0 0.00498043)
(0.0833599 0 0.00324415)
(0.0835859 0 0.00233786)
(0.0837095 0 0.00197001)
(0.0806954 0 0.0232614)
(0.081611 0 0.0206189)
(0.0824359 0 0.0174452)
(0.0831292 0 0.0138727)
(0.0836486 0 0.0101712)
(0.0839826 0 0.00677574)
(0.0841907 0 0.00426344)
(0.0843867 0 0.00316001)
(0.0845897 0 0.00348475)
(0.0811601 0 0.0287527)
(0.0822186 0 0.0262013)
(0.0831965 0 0.0228927)
(0.0840266 0 0.018853)
(0.0846166 0 0.0142609)
(0.0848926 0 0.00954124)
(0.0848886 0 0.00540913)
(0.0849091 0 0.00273895)
(0.0854963 0 0.00196685)
(0.0814137 0 0.0352039)
(0.0826144 0 0.0330861)
(0.0837861 0 0.0300365)
(0.0848546 0 0.0259024)
(0.0856727 0 0.0206167)
(0.0860041 0 0.0143963)
(0.0855877 0 0.00795271)
(0.0843686 0 0.0025867)
(0.0829497 0 -0.00014503)
(0.0813895 0 0.0426211)
(0.0827021 0 0.0414162)
(0.0840802 0 0.0392976)
(0.0855098 0 0.0359329)
(0.0868888 0 0.030927)
(0.0879238 0 0.0239523)
(0.0880659 0 0.0152131)
(0.0867741 0 0.00624546)
(0.0843791 0 0.000190383)
(0.0810201 0 0.0509229)
(0.0823405 0 0.0512294)
(0.0838125 0 0.0510499)
(0.0855532 0 0.05016)
(0.0877444 0 0.0482245)
(0.0906519 0 0.0448813)
(0.0946885 0 0.0396978)
(0.10014 0 0.0331925)
(0.10662 0 0.0247961)
(0.0802736 0 0.0596978)
(0.081426 0 0.0618894)
(0.0826823 0 0.0643395)
(0.0841598 0 0.0672389)
(0.0860833 0 0.0709016)
(0.0888352 0 0.0756593)
(0.0929907 0 0.0814422)
(0.0990918 0 0.0867967)
(0.106829 0 0.0904937)
(0.0525247 0 -0.00335424)
(0.0637901 0 -0.00221103)
(0.0690315 0 -0.000975837)
(0.0715076 0 -0.000387723)
(0.0728462 0 -8.28284e-05)
(0.0736288 0 0.000104707)
(0.0740667 0 0.000246134)
(0.0742405 0 0.000369984)
(0.0741834 0 0.000485896)
(0.0739115 0 0.000595258)
(0.0788753 0 -0.0043426)
(0.0752249 0 -0.00298101)
(0.0734956 0 -0.00159355)
(0.073331 0 -0.000663659)
(0.07369 0 -5.01791e-05)
(0.0740822 0 0.000401381)
(0.0743409 0 0.000783595)
(0.074417 0 0.00113893)
(0.0742983 0 0.00148027)
(0.0739838 0 0.00180549)
(0.0757833 0 -0.000507031)
(0.0755805 0 -0.000946218)
(0.0749577 0 -0.000697014)
(0.0746547 0 -0.000194246)
(0.0746505 0 0.000352747)
(0.0747459 0 0.000898519)
(0.0747971 0 0.00144775)
(0.0747285 0 0.00200328)
(0.0745058 0 0.00255634)
(0.0741144 0 0.00309006)
(0.0759426 0 0.000526088)
(0.0759561 0 0.000279158)
(0.0758206 0 0.000256128)
(0.0756638 0 0.000518984)
(0.0755591 0 0.000982536)
(0.0754736 0 0.00158006)
(0.075344 0 0.00226818)
(0.0751201 0 0.00300999)
(0.0747712 0 0.00376787)
(0.0742804 0 0.00450442)
(0.0760706 0 0.000944441)
(0.0764299 0 0.000954521)
(0.0765807 0 0.000999341)
(0.0765451 0 0.00123916)
(0.0764071 0 0.00171602)
(0.0761981 0 0.00240355)
(0.075913 0 0.00324793)
(0.075536 0 0.00418539)
(0.0750524 0 0.00515153)
(0.0744505 0 0.00608817)
(0.0775264 0 0.00168989)
(0.0775579 0 0.00161421)
(0.0775669 0 0.00165461)
(0.0774653 0 0.00193506)
(0.0772364 0 0.00250719)
(0.0768952 0 0.00335085)
(0.0764563 0 0.00439749)
(0.0759266 0 0.00555795)
(0.0753064 0 0.00674339)
(0.0745905 0 0.00787756)
(0.0787613 0 0.00206409)
(0.0786858 0 0.00206176)
(0.0786 0 0.00218594)
(0.0783926 0 0.00259235)
(0.0780296 0 0.00335496)
(0.0775312 0 0.00444244)
(0.0769286 0 0.0057571)
(0.0762449 0 0.00717936)
(0.0754908 0 0.00859767)
(0.0746656 0 0.00992293)
(0.0794992 0 0.00235772)
(0.0796842 0 0.00243898)
(0.0796241 0 0.00264804)
(0.079294 0 0.00324925)
(0.0787502 0 0.00431378)
(0.0780607 0 0.00575373)
(0.0772803 0 0.00741458)
(0.0764432 0 0.00913865)
(0.0755641 0 0.010796)
(0.0746418 0 0.0122939)
(0.0811149 0 0.00313839)
(0.0810576 0 0.00286226)
(0.08074 0 0.0030416)
(0.0801337 0 0.00394498)
(0.0793266 0 0.00547758)
(0.0784096 0 0.00740767)
(0.0774454 0 0.00949525)
(0.076467 0 0.0115465)
(0.0754834 0 0.0134272)
(0.0744869 0 0.0150565)
(0.0825868 0 0.00296678)
(0.0824147 0 0.00259672)
(0.0817334 0 0.00315033)
(0.0807411 0 0.00475014)
(0.0796175 0 0.00703917)
(0.0784669 0 0.00962117)
(0.0773409 0 0.012191)
(0.0762561 0 0.014552)
(0.0752064 0 0.0165966)
(0.074172 0 0.0182796)
(0.0846481 0 0.00120566)
(0.0836941 0 0.0013434)
(0.0823174 0 0.00311761)
(0.0808529 0 0.00603163)
(0.0794296 0 0.0094035)
(0.0781017 0 0.0127403)
(0.076882 0 0.0157578)
(0.0757579 0 0.018325)
(0.0747015 0 0.0204064)
(0.0736785 0 0.0220173)
(0.085151 0 -0.00282032)
(0.0835882 0 -0.00034417)
(0.0817751 0 0.00395875)
(0.0800663 0 0.00876319)
(0.0785307 0 0.0133262)
(0.0771818 0 0.0172803)
(0.0759972 0 0.020512)
(0.0749364 0 0.0230397)
(0.0739528 0 0.0249386)
(0.0730013 0 0.0262971)
(0.0809188 0 -0.00410662)
(0.0805448 0 0.00198426)
(0.079391 0 0.00882018)
(0.077997 0 0.0150613)
(0.076705 0 0.0201439)
(0.0755928 0 0.0240337)
(0.0746315 0 0.0269005)
(0.0737693 0 0.0289367)
(0.072954 0 0.0303172)
(0.0721406 0 0.0311801)
(0.0791469 0 0.00748711)
(0.0772005 0 0.0153326)
(0.0758256 0 0.0217807)
(0.0747852 0 0.0270403)
(0.074019 0 0.0307926)
(0.073408 0 0.0333159)
(0.0728588 0 0.0349599)
(0.0723223 0 0.0359398)
(0.0717584 0 0.0364334)
(0.0711377 0 0.036559)
(0.0647391 0 0.0624364)
(0.0675217 0 0.0526049)
(0.0691082 0 0.0484089)
(0.070022 0 0.0465655)
(0.0705346 0 0.0456292)
(0.0707813 0 0.0449783)
(0.0708284 0 0.0443775)
(0.0707121 0 0.0437389)
(0.070451 0 0.0430266)
(0.0700529 0 0.0422266)
(0.0792223 0 0.0680603)
(0.0800692 0 0.0718705)
(0.0808512 0 0.0764327)
(0.081535 0 0.0820807)
(0.0820139 0 0.0892104)
(0.0820334 0 0.098071)
(0.0810784 0 0.108614)
(0.0786255 0 0.119744)
(0.0737332 0 0.129968)
(0.0779887 0 0.0752142)
(0.0785092 0 0.0799747)
(0.0788277 0 0.0855243)
(0.0788543 0 0.0920316)
(0.0784368 0 0.099569)
(0.0773561 0 0.107965)
(0.0753739 0 0.116683)
(0.0723668 0 0.124781)
(0.0681969 0 0.131511)
(0.0766873 0 0.0809535)
(0.0769351 0 0.0860901)
(0.0769155 0 0.0918335)
(0.0765502 0 0.0981902)
(0.0757384 0 0.105041)
(0.0743765 0 0.112081)
(0.0723941 0 0.118814)
(0.0697743 0 0.124638)
(0.0664407 0 0.129)
(0.0753965 0 0.0853353)
(0.0754483 0 0.0904624)
(0.0752199 0 0.0959676)
(0.0746617 0 0.101768)
(0.0737236 0 0.107684)
(0.0723696 0 0.113424)
(0.0705937 0 0.118608)
(0.0684224 0 0.122806)
(0.0659065 0 0.125532)
(0.0740887 0 0.0934075)
(0.0737515 0 0.0984772)
(0.0731255 0 0.103608)
(0.0721937 0 0.108618)
(0.0709554 0 0.113267)
(0.0694337 0 0.117267)
(0.0676815 0 0.120301)
(0.0657969 0 0.122018)
(0.0718635 0 0.104256)
(0.071002 0 0.10847)
(0.0699171 0 0.112236)
(0.0686446 0 0.115341)
(0.0672454 0 0.11756)
(0.0658129 0 0.118671)
(0.0691172 0 0.110677)
(0.0680675 0 0.11311)
(0.0669503 0 0.114763)
(0.0658395 0 0.115504)
(0.0667077 0 0.111971)
(0.0658296 0 0.112479)
(0.062523 0 0.140431)
(0.0567024 0 0.140907)
(0.0512318 0 0.133082)
(0.0624846 0 0.135842)
(0.0594376 0 0.135445)
(0.0570426 0 0.131939)
(0.0632758 0 0.130305)
(0.0615033 0 0.129831)
(0.0601211 0 0.12794)
(0.063941 0 0.125838)
(0.062793 0 0.125334)
(0.0618473 0 0.124062)
(0.0644488 0 0.121984)
(0.063644 0 0.121512)
(0.0629507 0 0.120562)
(0.0648234 0 0.118515)
(0.0642251 0 0.118095)
(0.0636946 0 0.117346)
(0.0650799 0 0.115304)
(0.0646158 0 0.114936)
(0.0641957 0 0.114326)
(0.0652279 0 0.112268)
(0.0648566 0 0.111947)
(0.0645149 0 0.111439)
(0.0649712 0 0.109064)
(0.0646873 0 0.108635)
(0.0542006 0 0.112533)
(0.0591531 0 0.0919619)
(0.0628924 0 0.0775492)
(0.0654365 0 0.0680654)
(0.0671091 0 0.0618229)
(0.0681616 0 0.0575442)
(0.0687784 0 0.0544013)
(0.0690678 0 0.0519533)
(0.0691023 0 0.0499108)
(0.0563944 0 0.122341)
(0.0581267 0 0.108515)
(0.0605618 0 0.0951412)
(0.0628879 0 0.0839232)
(0.064754 0 0.0752469)
(0.0661044 0 0.0687455)
(0.0670153 0 0.0637847)
(0.0675647 0 0.0598742)
(0.0678159 0 0.0566661)
(0.058914 0 0.122861)
(0.0591909 0 0.113516)
(0.0604008 0 0.103329)
(0.0619368 0 0.0936253)
(0.0634352 0 0.0850114)
(0.0647003 0 0.0777697)
(0.0656606 0 0.0718221)
(0.066312 0 0.0669428)
(0.06668 0 0.0628627)
(0.0607829 0 0.120934)
(0.0604889 0 0.114494)
(0.0609596 0 0.106827)
(0.0618527 0 0.0988567)
(0.0628867 0 0.0912508)
(0.0638744 0 0.0843365)
(0.0647068 0 0.0782285)
(0.0653278 0 0.0729239)
(0.065718 0 0.0683173)
(0.0620941 0 0.118383)
(0.0616105 0 0.113738)
(0.0616776 0 0.107924)
(0.0621215 0 0.101506)
(0.0627656 0 0.0949838)
(0.0634584 0 0.0887301)
(0.0640931 0 0.0829214)
(0.0645993 0 0.0776362)
(0.0649359 0 0.0728711)
(0.0630064 0 0.115705)
(0.0624867 0 0.112204)
(0.062342 0 0.107693)
(0.0624966 0 0.10253)
(0.0628439 0 0.0970361)
(0.0632795 0 0.09151)
(0.0637126 0 0.0861704)
(0.0640751 0 0.0811265)
(0.0643186 0 0.0764267)
(0.0636329 0 0.113027)
(0.0631321 0 0.110296)
(0.062883 0 0.106723)
(0.062856 0 0.102513)
(0.0629911 0 0.0979032)
(0.063219 0 0.0930957)
(0.0634716 0 0.0882744)
(0.0636892 0 0.083578)
(0.0638245 0 0.079077)
(0.0640455 0 0.110381)
(0.0635798 0 0.10819)
(0.063283 0 0.105295)
(0.0631444 0 0.10182)
(0.063132 0 0.0979278)
(0.0632005 0 0.0937684)
(0.0633013 0 0.0894718)
(0.0633863 0 0.0851609)
(0.0634129 0 0.0809295)
(0.0642891 0 0.107755)
(0.0638616 0 0.105956)
(0.0635459 0 0.103566)
(0.0633395 0 0.100659)
(0.0632256 0 0.0973498)
(0.0631752 0 0.0937443)
(0.0631533 0 0.089934)
(0.0631234 0 0.0860169)
(0.0630491 0 0.0820875)
(0.0640013 0 0.103621)
(0.0636817 0 0.101616)
(0.0634345 0 0.0991551)
(0.0632515 0 0.0963159)
(0.0631132 0 0.0931725)
(0.0629951 0 0.0898005)
(0.0628689 0 0.0862671)
(0.0627052 0 0.0826435)
(0.0632005 0 0.0949228)
(0.0629979 0 0.0921687)
(0.0628053 0 0.0891731)
(0.0626006 0 0.0859924)
(0.0623602 0 0.0826745)
(0.0625707 0 0.0881335)
(0.062303 0 0.0852657)
(0.0619976 0 0.082232)
(0.0616072 0 0.0813675)
)
;

boundaryField
{
    inlet
    {
        type            cellMotion;
        value           nonuniform 0();
    }
    outlet
    {
        type            cellMotion;
        value           nonuniform 0();
    }
    flap
    {
        type            cellMotion;
        value           nonuniform List<vector> 
33
(
(0.0556435 0 -0.000459409)
(0.0925643 0 0.000317669)
(0.076041 0 0.000920518)
(0.0791304 0 0.00104785)
(0.0803622 0 0.000116772)
(0.0810584 0 -0.000309217)
(0.081512 0 0.002534)
(0.0828138 0 0.00119455)
(0.0837792 0 0.00143565)
(0.0846363 0 0.00505124)
(0.0881309 0 0.00255266)
(0.0811074 0 -0.00150393)
(0.0784243 0 -0.0068427)
(0.113242 0 0.0101461)
(0.11111 0 0.0966797)
(0.0699998 0 0.16268)
(0.0514859 0 0.154113)
(0.0414648 0 0.128473)
(0.0484525 0 -0.00669334)
(0.0832519 0 -0.00568378)
(0.073113 0 0.00191795)
(0.0759581 0 0.000848259)
(0.0753249 0 0.00076702)
(0.0776556 0 0.00189727)
(0.0790057 0 0.00210033)
(0.0790236 0 0.00208948)
(0.0811909 0 0.00363364)
(0.0821781 0 0.00395658)
(0.0855736 0 0.00231113)
(0.0880293 0 -0.00480282)
(0.0795665 0 -0.0113222)
(0.0807731 0 0.00226286)
(0.0641707 0 0.0639008)
)
;
    }
    upperWall
    {
        type            slip;
    }
    lowerWall
    {
        type            slip;
    }
    frontAndBack
    {
        type            empty;
    }
    procBoundary4to1
    {
        type            processor;
        value           nonuniform List<vector> 
30
(
(0.0741616 0 0.088514)
(0.0741616 0 0.088514)
(0.0728621 0 0.0952177)
(0.0724845 0 0.099786)
(0.0724845 0 0.099786)
(0.070807 0 0.104072)
(0.0700435 0 0.107612)
(0.0700435 0 0.107612)
(0.0684647 0 0.108783)
(0.0676042 0 0.110715)
(0.0676042 0 0.110715)
(0.0664702 0 0.109195)
(0.065764 0 0.109552)
(0.0652753 0 0.109346)
(0.0652753 0 0.109346)
(0.0649776 0 0.106239)
(0.064737 0 0.105871)
(0.0643934 0 0.105128)
(0.0643934 0 0.105128)
(0.0640192 0 0.101194)
(0.0637028 0 0.0994874)
(0.0634312 0 0.0973794)
(0.0634312 0 0.0973794)
(0.0630718 0 0.0932303)
(0.0628213 0 0.0908032)
(0.0628213 0 0.0908032)
(0.0622857 0 0.086732)
(0.0619664 0 0.0841366)
(0.0619664 0 0.0841366)
(0.0611841 0 0.080118)
)
;
    }
    procBoundary4to2
    {
        type            processor;
        value           nonuniform List<vector> 
11
(
(0.0667883 0 0.0593803)
(0.0658754 0 0.0642933)
(0.0650828 0 0.0685658)
(0.0644106 0 0.0720741)
(0.0638411 0 0.0748048)
(0.0633457 0 0.076824)
(0.062898 0 0.0781988)
(0.0624754 0 0.0789948)
(0.0620591 0 0.0792711)
(0.0616344 0 0.079076)
(0.0611913 0 0.0784539)
)
;
    }
    procBoundary4to3
    {
        type            processor;
        value           nonuniform List<vector> 
19
(
(0.0745144 0 0.000792682)
(0.0747398 0 0.00241402)
(0.0751699 0 0.00415263)
(0.0757645 0 0.0060851)
(0.0764625 0 0.00825828)
(0.0772017 0 0.010724)
(0.0779334 0 0.0135662)
(0.0786185 0 0.0168828)
(0.0792232 0 0.0207758)
(0.0797144 0 0.0253355)
(0.080055 0 0.0305978)
(0.0802054 0 0.0365614)
(0.0801227 0 0.0431597)
(0.0797754 0 0.0502705)
(0.0791566 0 0.0576478)
(0.0783135 0 0.0647578)
(0.0773132 0 0.0710627)
(0.0762256 0 0.0763528)
(0.0751064 0 0.0805987)
)
;
    }
    procBoundary4to5
    {
        type            processor;
        value           nonuniform List<vector> 
18
(
(0.073433 0 0.000696172)
(0.0734745 0 0.00210641)
(0.0735479 0 0.003585)
(0.0736373 0 0.00518606)
(0.07372 0 0.0069478)
(0.0737699 0 0.00890224)
(0.0737601 0 0.0110924)
(0.0736644 0 0.0135745)
(0.0734592 0 0.0163946)
(0.0731253 0 0.0195942)
(0.0726522 0 0.0231961)
(0.0720399 0 0.0271979)
(0.0712909 0 0.0316284)
(0.0704358 0 0.036394)
(0.0695175 0 0.0413327)
(0.0689238 0 0.0481021)
(0.0689238 0 0.0481021)
(0.067813 0 0.0539287)
)
;
    }
}


// ************************************************************************* //
