/*--------------------------------*- C++ -*----------------------------------*\
| =========                 |                                                 |
| \\      /  F ield         | OpenFOAM: The Open Source CFD Toolbox           |
|  \\    /   O peration     | Version:  dev                                   |
|   \\  /    A nd           | Web:      www.OpenFOAM.org                      |
|    \\/     M anipulation  |                                                 |
\*---------------------------------------------------------------------------*/
FoamFile
{
    version     2.0;
    format      ascii;
    class       volVectorField;
    location    "2.37";
    object      U;
}
// * * * * * * * * * * * * * * * * * * * * * * * * * * * * * * * * * * * * * //

dimensions      [0 1 -1 0 0 0 0];

internalField   nonuniform List<vector> 
465
(
(9.93994 4.64884e-20 0.018368)
(9.86841 0 0.025222)
(9.77207 -3.1663e-21 0.029573)
(9.6602 9.93913e-21 0.0340116)
(9.53729 -6.91325e-21 0.0385195)
(9.40381 -2.90347e-20 0.0430423)
(9.25938 -1.528e-20 0.0477237)
(9.10358 -6.42329e-23 0.0527154)
(8.9359 0 0.058128)
(8.75576 0 0.0640518)
(8.56239 0 0.0705878)
(8.35482 0 0.0778665)
(8.13189 4.59092e-20 0.0860417)
(7.89227 -4.23006e-20 0.0952817)
(7.6344 0 0.105772)
(7.35657 1.00963e-19 0.117724)
(7.05687 1.71523e-21 0.131376)
(6.73323 -1.03537e-19 0.146993)
(6.38342 1.10996e-19 0.164877)
(6.00509 -2.31565e-19 0.18537)
(5.59581 1.81529e-19 0.208844)
(10.0055 -1.39219e-19 0.0356037)
(9.99541 0 0.0506463)
(9.96197 0 0.0609353)
(9.91092 0 0.0719115)
(9.84575 0 0.0835076)
(9.76713 5.77207e-20 0.0955174)
(9.67499 3.01687e-20 0.108228)
(9.56908 4.77285e-20 0.121975)
(9.44905 1.39723e-22 0.137015)
(9.31443 7.00338e-20 0.15357)
(9.16454 -9.07899e-20 0.171888)
(8.9985 0 0.192286)
(8.81525 -5.0222e-21 0.215131)
(8.61355 0 0.240833)
(8.39192 -2.76482e-21 0.269841)
(8.14871 -1.81988e-19 0.302652)
(7.88205 -3.36162e-21 0.339819)
(7.58986 2.04039e-19 0.381933)
(7.26984 -5.39895e-20 0.429616)
(6.9195 0 0.483552)
(6.53617 -1.79011e-19 0.544402)
(10.0029 9.85029e-20 0.035213)
(9.99045 -6.01734e-21 0.0565755)
(9.95966 0 0.0736982)
(9.91377 0 0.0917509)
(9.85488 -2.76733e-20 0.110909)
(9.78364 -2.89784e-20 0.130986)
(9.70017 6.06805e-20 0.152341)
(9.60432 -6.26084e-20 0.175436)
(9.49584 -6.55291e-20 0.200665)
(9.37435 -6.89886e-20 0.228392)
(9.2393 1.81785e-20 0.259029)
(9.08995 0 0.293089)
(8.92538 -1.99383e-20 0.331174)
(8.74453 0 0.373956)
(8.54613 -3.51771e-19 0.422179)
(8.32874 -1.75191e-20 0.476678)
(8.09074 3.60326e-19 0.538404)
(7.8303 0 0.608394)
(7.54524 -3.77714e-19 0.687734)
(7.23321 1.23796e-18 0.777643)
(6.89167 -8.14345e-19 0.879432)
(10.0011 -1.90456e-19 0.0370495)
(9.98607 6.00367e-21 0.0664443)
(9.95496 -7.52797e-20 0.0918623)
(9.91022 -2.62462e-20 0.117375)
(9.85284 0 0.143831)
(9.78326 0 0.171385)
(9.70188 0 0.200516)
(9.60871 1.1034e-22 0.231819)
(9.50363 -3.28766e-20 0.265848)
(9.38642 6.896e-20 0.303118)
(9.25665 1.45508e-19 0.344205)
(9.11377 1.9246e-21 0.389808)
(8.95707 -1.18022e-19 0.440738)
(8.78574 3.35195e-19 0.497901)
(8.59879 -3.463e-19 0.562298)
(8.39515 0 0.635049)
(8.17357 2.4024e-20 0.717453)
(7.93278 8.11256e-19 0.811014)
(7.67101 1.43456e-20 0.91731)
(7.38623 2.35864e-19 1.03807)
(7.07651 1.58991e-20 1.17536)
(10.0002 3.57125e-19 0.040454)
(9.98355 1.19751e-20 0.0765418)
(9.95203 -1.00038e-19 0.109015)
(9.90812 0 0.141033)
(9.85203 -1.09621e-19 0.17406)
(9.78395 0 0.208589)
(9.7044 1.19874e-19 0.245138)
(9.6135 6.28179e-20 0.284366)
(9.51121 6.57174e-20 0.326942)
(9.39735 -1.86117e-22 0.37351)
(9.27153 0 0.424774)
(9.13333 0 0.481566)
(8.98219 -1.97231e-20 0.544842)
(8.81751 3.11687e-19 0.615688)
(8.63859 -3.43056e-19 0.695291)
(8.44464 0 0.784976)
(8.23474 0 0.886286)
(8.00807 0 1.0011)
(7.76354 0 1.13148)
(7.49949 8.73614e-19 1.27961)
(7.21442 -2.72384e-18 1.44813)
(9.99969 -1.18635e-20 0.0446489)
(9.98212 2.268e-19 0.0867126)
(9.95055 1.75151e-19 0.125794)
(9.9075 0 0.164295)
(9.8528 1.09432e-19 0.203948)
(9.78652 -1.14715e-19 0.245462)
(9.70917 -5.48523e-22 0.289364)
(9.62091 0 0.336361)
(9.52177 0 0.387238)
(9.41157 -1.365e-19 0.442774)
(9.29 0 0.503799)
(9.15668 7.44784e-20 0.571243)
(9.01117 3.1433e-19 0.64617)
(8.85308 -3.44787e-19 0.729813)
(8.68194 -6.88117e-19 0.823531)
(8.49718 1.42931e-18 0.928831)
(8.29812 -7.64831e-19 1.04744)
(8.08415 4.85561e-20 1.18147)
(7.85489 0 1.33343)
(7.60929 -1.12067e-21 1.50601)
(7.34616 -1.09857e-19 1.7023)
(9.99941 1.82508e-19 0.0492609)
(9.98146 -2.14505e-19 0.096938)
(9.95019 2.48696e-20 0.142257)
(9.90808 5.22134e-20 0.187065)
(9.85485 2.72384e-19 0.233126)
(9.79055 -1.13444e-19 0.281313)
(9.71561 0 0.332221)
(9.63024 1.23994e-19 0.38662)
(9.53453 -1.29516e-19 0.445402)
(9.42837 -2.04635e-19 0.509477)
(9.31155 2.81795e-19 0.57979)
(9.18377 -3.71806e-19 0.657364)
(9.04461 3.84408e-19 0.743329)
(8.89384 7.30757e-19 0.839009)
(8.73125 -6.70231e-19 0.945923)
(8.55641 0 1.06576)
(8.36886 -7.05574e-19 1.20042)
(8.16812 -5.87222e-20 1.35212)
(7.95418 7.4296e-19 1.52366)
(7.72671 -1.0433e-19 1.7182)
(7.48506 1.08354e-19 1.93931)
(9.99937 -3.53872e-19 0.0540498)
(9.98139 -1.18496e-20 0.107111)
(9.95063 0 0.158337)
(9.90964 -5.19846e-20 0.209219)
(9.85813 -5.42625e-20 0.26145)
(9.79612 1.13163e-19 0.316028)
(9.72397 0 0.373649)
(9.64189 -4.25139e-22 0.435137)
(9.55002 -1.22977e-21 0.501463)
(9.44836 2.67733e-19 0.573636)
(9.33679 0 0.652709)
(9.21514 -2.94594e-19 0.739818)
(9.08304 2.27351e-19 0.836155)
(8.94033 6.01603e-19 0.943073)
(8.787 -6.60958e-19 1.06221)
(8.62282 6.97441e-19 1.19545)
(8.44764 -7.28534e-19 1.34487)
(8.26108 0 1.51276)
(8.06328 4.9014e-20 1.70204)
(7.85457 1.67687e-18 1.91625)
(7.63491 -8.49259e-20 2.15939)
(9.9995 -2.27248e-20 0.0588496)
(9.98175 2.35977e-20 0.11712)
(9.95175 0 0.173956)
(9.91218 -1.03468e-19 0.230628)
(9.86276 1.07566e-19 0.288747)
(9.80346 -1.12521e-19 0.349417)
(9.73453 -3.51568e-19 0.413437)
(9.65618 1.02164e-21 0.481683)
(9.5686 -3.82723e-19 0.555168)
(9.47189 2.67864e-19 0.634975)
(9.36601 -4.15268e-19 0.722255)
(9.25089 1.44416e-19 0.818246)
(9.12641 7.52137e-20 0.924221)
(8.99244 0 1.04155)
(8.84899 0 1.17193)
(8.6961 0 1.31737)
(8.53403 -1.46723e-18 1.48015)
(8.36255 1.43721e-18 1.66268)
(8.18186 1.52905e-18 1.86788)
(7.99282 -3.93886e-20 2.09952)
(7.79597 -1.50914e-18 2.362)
(9.99969 0 0.0635585)
(9.98236 -3.7552e-19 0.126861)
(9.95334 0 0.189016)
(9.91542 2.0506e-19 0.251155)
(9.86834 -2.14048e-19 0.314848)
(9.812 -1.11098e-19 0.381297)
(9.74659 -1.167e-19 0.45139)
(9.67232 6.08465e-19 0.526037)
(9.58943 -2.52554e-19 0.60627)
(9.4981 0 0.693236)
(9.39836 6.90523e-19 0.788177)
(9.29019 -1.28892e-18 0.892374)
(9.17376 3.69756e-19 1.00716)
(9.04913 -1.54222e-19 1.134)
(8.91626 0 1.27459)
(8.77543 8.30742e-20 1.43102)
(8.62707 4.35105e-20 1.60568)
(8.47149 2.25301e-20 1.80119)
(8.309 4.59165e-20 2.02048)
(8.1405 5.99801e-21 2.26732)
(7.96725 1.56843e-18 2.54641)
(9.99987 2.25117e-20 0.0681338)
(9.98304 7.25e-19 0.136265)
(9.95514 0 0.203451)
(9.91899 -7.14696e-19 0.270737)
(9.87431 2.12982e-19 0.339676)
(9.82102 4.44911e-19 0.411557)
(9.75934 -1.15473e-19 0.487351)
(9.68948 2.42132e-19 0.567989)
(9.61173 -2.50316e-19 0.654521)
(9.52623 -2.62494e-19 0.748146)
(9.43311 1.35282e-19 0.850166)
(9.33253 0 0.961882)
(9.22471 1.47347e-19 1.08466)
(9.10987 7.65458e-19 1.22004)
(8.98817 -7.86389e-19 1.36978)
(8.86002 -8.22471e-20 1.53595)
(8.72588 1.35966e-18 1.72099)
(8.58671 -1.39074e-18 1.92769)
(8.44316 -4.52546e-20 2.15908)
(8.29603 -9.13761e-20 2.41889)
(8.14715 -1.86481e-19 2.71189)
(10.0001 0 0.0725487)
(9.98388 -7.44389e-19 0.145274)
(9.9573 0 0.217199)
(9.92313 4.0675e-19 0.289328)
(9.88098 -1.06121e-19 0.363192)
(9.83087 3.31318e-19 0.440135)
(9.77308 -2.30408e-19 0.521206)
(9.70786 2.38446e-19 0.607376)
(9.63551 -2.48076e-19 0.699716)
(9.55617 0 0.79946)
(9.47009 1.34736e-19 0.907933)
(9.37754 -5.60005e-19 1.02644)
(9.27881 -4.78741e-21 1.15639)
(9.17422 -5.01395e-21 1.29936)
(9.06414 6.19135e-19 1.45712)
(8.94913 0 1.63177)
(8.82982 0 1.82571)
(8.70744 0 2.04175)
(8.58307 -1.22523e-18 2.28312)
(8.45787 1.51074e-18 2.55355)
(8.33396 1.8286e-19 2.85776)
(10.0004 -3.55469e-19 0.0767531)
(9.98494 7.40212e-19 0.153798)
(9.95989 0 0.230162)
(9.92794 1.01068e-19 0.306837)
(9.88853 -1.04946e-19 0.385307)
(9.84184 0 0.466937)
(9.78818 -2.28413e-19 0.552861)
(9.72777 -2.37716e-19 0.644103)
(9.66095 4.92419e-19 0.741745)
(9.58795 0 0.847035)
(9.50915 2.64295e-19 0.961305)
(9.42484 8.25728e-19 1.08586)
(9.33542 -2.83834e-19 1.22212)
(9.24143 1.46474e-19 1.37167)
(9.14331 -4.57322e-19 1.5363)
(9.04181 -6.32931e-19 1.71812)
(8.93785 1.1246e-18 1.91947)
(8.83263 1.32495e-18 2.14309)
(8.72764 -1.64796e-19 2.39228)
(8.62462 -2.74787e-18 2.67084)
(8.52601 1.39015e-18 2.98341)
(10.0007 7.08137e-19 0.0807036)
(9.9861 -3.68617e-19 0.161772)
(9.9627 3.83543e-19 0.242261)
(9.93309 -2.99628e-19 0.323167)
(9.89665 -2.08818e-19 0.405903)
(9.85361 1.08421e-19 0.491836)
(9.80424 0 0.582198)
(9.7488 0 0.678067)
(9.68769 1.48163e-21 0.780502)
(9.62121 -1.09785e-22 0.890732)
(9.54986 -1.04868e-18 1.01011)
(9.47403 -1.669e-21 1.13994)
(9.39417 -5.59964e-19 1.28162)
(9.31099 4.34624e-19 1.43673)
(9.225 8.96999e-19 1.60706)
(9.13717 6.72905e-21 1.79467)
(9.04875 -2.66529e-18 2.00187)
(8.96093 1.59998e-18 2.23129)
(8.8755 1.30867e-18 2.48618)
(8.79469 -2.64915e-18 2.77031)
(8.7214 1.33555e-18 3.08828)
(10.0011 -3.5266e-19 0.0843794)
(9.9873 0 0.169176)
(9.96552 -1.52816e-21 0.253472)
(9.93831 2.99238e-19 0.338268)
(9.90501 -3.10088e-19 0.424906)
(9.86573 0 0.514759)
(9.82071 -1.13129e-21 0.609148)
(9.77043 6.96669e-19 0.709184)
(9.71529 1.33747e-21 0.815888)
(9.65558 -7.51083e-19 0.930469)
(9.59187 7.74338e-19 1.05428)
(9.52473 2.67981e-19 1.18863)
(9.45459 2.76645e-19 1.33486)
(9.38232 -5.68835e-19 1.49455)
(9.30859 5.78527e-19 1.66945)
(9.23448 0 1.86151)
(9.16153 4.32231e-21 2.07299)
(9.09105 6.2454e-19 2.30645)
(9.02505 -1.57918e-18 2.56495)
(8.96614 0 2.85213)
(8.91757 0 3.17243)
(9.96849 -3.66091e-19 0.263981)
(9.94384 -3.79819e-19 0.352367)
(9.9139 -9.72904e-20 0.442596)
(9.87857 1.02749e-19 0.536064)
(9.83813 -6.40411e-19 0.634133)
(9.79333 -1.64678e-22 0.737907)
(9.74452 -2.28995e-19 0.848405)
(9.69195 -4.75995e-19 0.966829)
(9.63626 4.89461e-19 1.09448)
(9.57819 0 1.23265)
(9.51825 -5.22576e-19 1.38265)
(9.45731 2.68381e-19 1.54598)
(9.3963 -2.76672e-19 1.72437)
(9.33642 -1.1269e-18 1.91964)
(9.27928 1.43607e-18 2.13389)
(9.22649 1.46049e-18 2.3696)
(9.18033 8.80313e-19 2.62967)
(9.1436 -5.15048e-21 2.91737)
(9.11977 -1.18849e-18 3.23681)
(9.94987 1.78807e-21 0.36542)
(9.92344 5.7677e-19 0.458928)
(9.89217 1.98401e-19 0.555695)
(9.85652 4.14465e-19 0.657062)
(9.81738 -2.12216e-19 0.764116)
(9.77498 2.22782e-19 0.877895)
(9.72968 1.83202e-21 0.999593)
(9.68224 -4.71244e-19 1.13043)
(9.6334 0 1.27165)
(9.5839 0 1.42454)
(9.53451 2.58118e-19 1.59053)
(9.4863 0 1.77122)
(9.44077 1.33959e-18 1.9683)
(9.39946 -1.09109e-18 2.18368)
(9.36426 1.65281e-18 2.41972)
(9.33772 -1.67943e-18 2.67902)
(9.32279 0 2.96446)
(9.32324 0 3.27955)
(9.93339 3.70388e-19 0.473725)
(9.90627 -1.93531e-19 0.573438)
(9.87565 6.09596e-22 0.677686)
(9.84236 4.13281e-19 0.787559)
(9.80651 1.06662e-18 0.904117)
(9.76863 4.4038e-19 1.0285)
(9.7296 -4.50666e-19 1.16184)
(9.6901 1.32973e-21 1.30533)
(9.65107 -9.55695e-19 1.46022)
(9.61332 0 1.62784)
(9.57802 0 1.80967)
(9.54688 -7.64656e-19 2.00721)
(9.52119 0 2.22214)
(9.50319 5.17025e-19 2.4566)
(9.49577 -1.056e-18 2.71286)
(9.50188 -1.04726e-18 2.99325)
(9.52554 2.08572e-18 3.30065)
(9.92075 -1.86563e-19 0.589036)
(9.89539 1.92682e-19 0.695691)
(9.86808 -7.99755e-19 0.807902)
(9.83892 2.3352e-23 0.926707)
(9.80857 -4.27473e-19 1.05313)
(9.77803 4.38653e-19 1.18824)
(9.74804 0 1.33319)
(9.71943 4.6207e-19 1.48913)
(9.69315 -4.66775e-19 1.6573)
(9.6707 0 1.839)
(9.65375 4.90433e-19 2.03562)
(9.64336 -4.88732e-19 2.24856)
(9.64209 0 2.47958)
(9.65292 0 2.73051)
(9.67878 0 3.00315)
(9.72372 0 3.29965)
(9.91568 -1.86117e-19 0.71088)
(9.89434 3.8336e-19 0.824922)
(9.87196 7.93536e-19 0.945389)
(9.84933 -1.22549e-18 1.07317)
(9.82732 1.73454e-21 1.20929)
(9.8068 0 1.35488)
(9.7886 0 1.51097)
(9.7737 5.79201e-21 1.67859)
(9.7638 0 1.85891)
(9.7604 0 2.05318)
(9.76483 1.40677e-18 2.26258)
(9.77964 -9.45087e-19 2.48837)
(9.8075 -4.66995e-19 2.73184)
(9.85139 0 2.99428)
(9.91515 0 3.27705)
(9.92102 -1.21237e-21 0.838401)
(9.90558 -3.8523e-19 0.959891)
(9.89066 1.1789e-18 1.08835)
(9.87712 2.18957e-21 1.22475)
(9.86593 -4.10501e-19 1.37013)
(9.85802 -8.40491e-19 1.52543)
(9.85434 8.62232e-19 1.69147)
(9.85651 -8.71224e-19 1.86924)
(9.86589 1.76661e-18 2.0598)
(9.88433 -1.7816e-18 2.26409)
(9.91416 1.34555e-18 2.48294)
(9.95766 -4.46887e-19 2.71713)
(10.0177 8.81493e-19 2.96738)
(10.0976 -1.69991e-20 3.23418)
(9.93213 -1.84178e-21 1.09847)
(9.92693 -7.72597e-19 1.2344)
(9.92488 2.54532e-21 1.37873)
(9.92691 8.10599e-19 1.53228)
(9.934 0 1.69572)
(9.94765 0 1.86987)
(9.96926 0 2.05549)
(10.0007 0 2.25323)
(10.0441 -4.16837e-19 2.46361)
(10.1017 1.2753e-18 2.68703)
(10.1758 0 2.92353)
(10.2691 -1.89978e-20 3.17284)
(9.97624 3.74031e-19 1.23808)
(9.98302 0 1.38053)
(9.99458 0 1.53142)
(10.0119 0 1.69131)
(10.0364 0 1.86077)
(10.0695 0 2.04034)
(10.1128 0 2.23036)
(10.1682 0 2.43103)
(10.238 -4.08594e-19 2.64242)
(10.3238 7.9583e-19 2.86408)
(10.4279 -1.57322e-20 3.09506)
(10.0607 -3.71513e-19 1.52283)
(10.0877 3.73816e-19 1.67828)
(10.1222 0 1.84213)
(10.1657 -1.14586e-18 2.01467)
(10.2196 7.7562e-19 2.19601)
(10.2855 -1.15163e-18 2.38602)
(10.3654 3.94621e-19 2.5845)
(10.4607 0 2.79062)
(10.5732 3.59392e-19 3.00299)
(10.2042 -3.61804e-19 1.81426)
(10.257 1.10034e-18 1.97895)
(10.3202 -3.70925e-19 2.15084)
(10.3951 7.39524e-19 2.32955)
(10.4833 -3.5897e-19 2.51457)
(10.5861 7.33773e-19 2.70485)
(10.7048 -7.3613e-19 2.89882)
(10.3428 -1.05348e-18 1.93372)
(10.414 3.55281e-19 2.09559)
(10.4964 -7.08335e-19 2.26258)
(10.5912 7.12945e-19 2.43393)
(10.6996 -3.55363e-19 2.60849)
(10.8222 5.25537e-19 2.78479)
(10.5887 -4.99929e-21 2.18616)
(10.6887 -3.41964e-19 2.34397)
(10.8008 0 2.50335)
(10.9255 2.50398e-19 2.66296)
(10.8901 0 2.39112)
(11.0156 -5.30837e-21 2.53516)
)
;

boundaryField
{
    inlet
    {
        type            fixedValue;
        value           uniform (10 0 0);
    }
    outlet
    {
        type            zeroGradient;
    }
    flap
    {
        type            movingWallVelocity;
        value           nonuniform 0();
    }
    upperWall
    {
        type            noSlip;
    }
    lowerWall
    {
        type            noSlip;
    }
    frontAndBack
    {
        type            empty;
    }
    procBoundary3to0
    {
        type            processor;
        value           nonuniform List<vector> 
34
(
(10.0015 -2.1074e-20 0.087829)
(9.9886 2.18608e-20 0.176132)
(9.9886 2.18608e-20 0.176132)
(9.97174 0 0.27376)
(9.97174 0 0.27376)
(9.95626 -3.58274e-19 0.377258)
(9.95626 -3.58274e-19 0.377258)
(9.94354 3.60428e-19 0.486808)
(9.94354 3.60428e-19 0.486808)
(9.93577 -1.8028e-19 0.602307)
(9.93577 -1.8028e-19 0.602307)
(9.93634 -1.78665e-19 0.723084)
(9.93634 -1.78665e-19 0.723084)
(9.94803 -3.57906e-19 0.84812)
(9.93946 7.37705e-19 0.969988)
(9.93946 7.37705e-19 0.969988)
(9.97326 3.61737e-19 1.10334)
(9.97326 3.61737e-19 1.10334)
(10.0246 0 1.23561)
(10.04 -1.48123e-21 1.37542)
(10.04 -1.48123e-21 1.37542)
(10.1247 -3.54664e-19 1.50651)
(10.1606 1.08253e-18 1.65679)
(10.1606 1.08253e-18 1.65679)
(10.2817 0 1.77749)
(10.2817 0 1.77749)
(10.4223 3.39863e-19 1.87954)
(10.5002 3.41586e-19 2.03106)
(10.5002 3.41586e-19 2.03106)
(10.672 3.2595e-19 2.10142)
(10.7756 1.59244e-19 2.24612)
(10.7756 1.59244e-19 2.24612)
(10.9678 -3.53266e-19 2.27315)
(11.093 2.46727e-21 2.40282)
)
;
    }
    procBoundary3to1
    {
        type            processor;
        value           nonuniform List<vector> 9((10.0035 -9.41031e-19 3.58142) (10.2018 -8.71994e-19 3.51795) (10.3857 2.02721e-20 3.43469) (10.5538 7.73339e-19 3.3345) (10.7054 -9.14033e-21 3.2203) (10.8407 7.1996e-19 3.09503) (10.9598 -3.49372e-19 2.96133) (11.0633 -8.43605e-20 2.82137) (11.1522 0 2.67694));
    }
    procBoundary3to4
    {
        type            processor;
        value           nonuniform List<vector> 
19
(
(5.15312 2.58516e-19 0.23567)
(6.11695 0 0.612711)
(6.51747 0 0.994304)
(6.73913 2.90473e-18 1.33135)
(6.90654 -1.87185e-18 1.64019)
(7.0645 -1.62188e-18 1.92622)
(7.22883 -2.24442e-19 2.19147)
(7.40449 1.7144e-18 2.43643)
(7.59215 0 2.66065)
(7.79081 1.59131e-18 2.86338)
(7.99872 3.06234e-18 3.04392)
(8.21398 0 3.20157)
(8.43463 2.44356e-18 3.33565)
(8.65863 3.37587e-19 3.44554)
(8.88315 -3.16353e-18 3.53118)
(9.11386 1.17317e-18 3.5931)
(9.34453 5.26511e-19 3.62882)
(9.57194 2.02206e-18 3.63855)
(9.79265 -1.92845e-18 3.62236)
)
;
    }
}


// ************************************************************************* //
