/*--------------------------------*- C++ -*----------------------------------*\
| =========                 |                                                 |
| \\      /  F ield         | OpenFOAM: The Open Source CFD Toolbox           |
|  \\    /   O peration     | Version:  dev                                   |
|   \\  /    A nd           | Web:      www.OpenFOAM.org                      |
|    \\/     M anipulation  |                                                 |
\*---------------------------------------------------------------------------*/
FoamFile
{
    version     2.0;
    format      ascii;
    class       surfaceScalarField;
    location    "0.33";
    object      meshPhi;
}
// * * * * * * * * * * * * * * * * * * * * * * * * * * * * * * * * * * * * * //

dimensions      [0 3 -1 0 0 0 0];

internalField   nonuniform List<scalar> 
881
(
1.90359e-05
-1.70983e-06
-2.12976e-06
2.00595e-05
-2.15e-06
2.3426e-05
-2.60207e-06
2.67678e-05
-3.12361e-06
-3.71287e-06
2.13301e-05
-2.64692e-06
2.45762e-05
-3.12408e-06
2.78274e-05
-3.66203e-06
3.09684e-05
-4.26221e-06
-4.91592e-06
2.29357e-05
-3.20819e-06
2.60355e-05
-3.70263e-06
2.91388e-05
-4.24953e-06
3.21541e-05
-4.84888e-06
3.49586e-05
-5.49427e-06
3.73962e-05
-6.17111e-06
-6.85554e-06
2.49124e-05
-3.83924e-06
2.78564e-05
-4.34196e-06
3.08006e-05
-4.88917e-06
3.36501e-05
-5.48104e-06
3.63093e-05
-6.10983e-06
3.86573e-05
-6.76197e-06
4.0601e-05
-7.42151e-06
4.20546e-05
-8.06806e-06
-8.67272e-06
2.73061e-05
-4.54247e-06
3.00794e-05
-5.04341e-06
3.28482e-05
-5.5817e-06
3.5523e-05
-6.15776e-06
3.80107e-05
-6.76339e-06
4.02108e-05
-7.38641e-06
4.20434e-05
-8.011e-06
4.3424e-05
-8.61745e-06
4.42856e-05
-9.18681e-06
-9.69176e-06
3.01631e-05
-5.31705e-06
3.27478e-05
-5.80523e-06
3.53229e-05
-6.32459e-06
3.78056e-05
-6.87626e-06
4.01091e-05
-7.45146e-06
4.21433e-05
-8.03868e-06
4.38251e-05
-8.62258e-06
4.50762e-05
-9.18437e-06
4.58367e-05
-9.70324e-06
4.60398e-05
-1.01572e-05
4.56014e-05
-1.05148e-05
-1.07378e-05
3.35295e-05
-6.15766e-06
3.59041e-05
-6.62186e-06
3.82653e-05
-7.11202e-06
4.05367e-05
-7.63069e-06
4.26374e-05
-8.16846e-06
4.44824e-05
-8.71343e-06
4.59898e-05
-9.25064e-06
4.70844e-05
-9.76211e-06
4.76989e-05
-1.02275e-05
4.77737e-05
-1.06238e-05
4.72403e-05
-1.0923e-05
4.60551e-05
-1.10991e-05
-1.11208e-05
3.74491e-05
-7.05329e-06
3.95883e-05
-7.48257e-06
4.17135e-05
-7.93414e-06
4.37532e-05
-8.41193e-06
4.56295e-05
-8.90571e-06
4.72601e-05
-9.40252e-06
4.85664e-05
-9.88748e-06
4.94745e-05
-1.03436e-05
4.99153e-05
-1.0751e-05
4.98251e-05
-1.10872e-05
4.9141e-05
-1.13264e-05
4.78177e-05
-1.14417e-05
4.58044e-05
-1.1406e-05
4.30316e-05
-1.1183e-05
-1.07312e-05
4.19589e-05
-7.98834e-06
4.38348e-05
-8.37023e-06
4.57012e-05
-8.77563e-06
4.74865e-05
-9.20625e-06
4.91146e-05
-9.65034e-06
5.05053e-05
-1.00943e-05
5.15822e-05
-1.05229e-05
5.22726e-05
-1.09196e-05
5.25074e-05
-1.12654e-05
5.22209e-05
-1.15388e-05
5.13507e-05
-1.17155e-05
4.98421e-05
-1.17691e-05
4.76461e-05
-1.16716e-05
4.47041e-05
-1.13902e-05
4.09762e-05
-1.08944e-05
-1.01503e-05
4.70723e-05
-8.91645e-06
4.8667e-05
-9.25654e-06
5.02542e-05
-9.61566e-06
5.17619e-05
-9.9964e-06
5.31165e-05
-1.03871e-05
5.42416e-05
-1.07746e-05
5.50609e-05
-1.1144e-05
5.55019e-05
-1.14786e-05
5.54964e-05
-1.17602e-05
5.49786e-05
-1.19687e-05
5.38849e-05
-1.20809e-05
5.21562e-05
-1.20714e-05
4.97374e-05
-1.19126e-05
4.65732e-05
-1.15743e-05
4.26211e-05
-1.10252e-05
3.78324e-05
-1.02346e-05
3.21405e-05
-9.16367e-06
-7.77087e-06
5.27927e-05
-9.8062e-06
5.41027e-05
-1.01171e-05
5.53945e-05
-1.04334e-05
5.66022e-05
-1.0764e-05
5.76572e-05
-1.10994e-05
5.8488e-05
-1.14279e-05
5.90203e-05
-1.17357e-05
5.918e-05
-1.20066e-05
5.88993e-05
-1.22227e-05
5.81136e-05
-1.23651e-05
5.67581e-05
-1.2412e-05
5.4771e-05
-1.2339e-05
5.20935e-05
-1.21197e-05
4.86695e-05
-1.17253e-05
4.4448e-05
-1.11256e-05
3.9382e-05
-1.02889e-05
3.34152e-05
-9.18021e-06
2.65091e-05
-7.76582e-06
-6.0127e-06
5.91543e-05
-1.06624e-05
6.01673e-05
-1.0939e-05
6.11439e-05
-1.12108e-05
6.20275e-05
-1.14901e-05
6.27552e-05
-1.1769e-05
6.32603e-05
-1.2037e-05
6.34728e-05
-1.22817e-05
6.33191e-05
-1.24879e-05
6.27285e-05
-1.26383e-05
6.16371e-05
-1.27145e-05
5.99809e-05
-1.26963e-05
5.76962e-05
-1.25607e-05
5.47217e-05
-1.22823e-05
5.0999e-05
-1.18339e-05
4.64733e-05
-1.11862e-05
4.10925e-05
-1.03086e-05
3.48049e-05
-9.16823e-06
2.757e-05
-7.73235e-06
1.93474e-05
-5.96938e-06
-3.84352e-06
6.6203e-05
-1.14692e-05
6.68873e-05
-1.17038e-05
6.75205e-05
-1.19277e-05
6.80515e-05
-1.21541e-05
6.8422e-05
-1.23755e-05
6.85693e-05
-1.25826e-05
6.8427e-05
-1.27638e-05
6.79255e-05
-1.29052e-05
6.69905e-05
-1.29906e-05
6.55553e-05
-1.30019e-05
6.35588e-05
-1.292e-05
6.09369e-05
-1.27237e-05
5.76262e-05
-1.23889e-05
5.35661e-05
-1.18897e-05
4.8699e-05
-1.11983e-05
4.29699e-05
-1.02852e-05
3.63271e-05
-9.11948e-06
2.87249e-05
-7.66963e-06
2.0123e-05
-5.90409e-06
1.04775e-05
-3.79053e-06
-1.32977e-06
7.39559e-05
-1.21964e-05
7.42745e-05
-1.23858e-05
7.45316e-05
-1.25598e-05
7.46782e-05
-1.27324e-05
7.46596e-05
-1.28963e-05
7.44161e-05
-1.3043e-05
7.38841e-05
-1.31615e-05
7.29978e-05
-1.32394e-05
7.16829e-05
-1.32615e-05
6.98676e-05
-1.32102e-05
6.74915e-05
-1.30676e-05
6.44928e-05
-1.28139e-05
6.08068e-05
-1.24267e-05
5.6371e-05
-1.18814e-05
5.11254e-05
-1.11518e-05
4.50131e-05
-1.02099e-05
3.79806e-05
-9.02637e-06
2.99793e-05
-7.5712e-06
2.0966e-05
-5.81396e-06
1.08999e-05
-3.7242e-06
-1.30446e-06
8.24021e-05
-1.28119e-05
8.23207e-05
-1.29555e-05
8.21685e-05
-1.30797e-05
8.18985e-05
-1.31989e-05
8.14581e-05
-1.33065e-05
8.07902e-05
-1.33944e-05
7.98338e-05
-1.34525e-05
7.85252e-05
-1.34693e-05
7.67942e-05
-1.34309e-05
7.45647e-05
-1.3321e-05
7.17717e-05
-1.31222e-05
6.83574e-05
-1.28158e-05
6.42577e-05
-1.23816e-05
5.94086e-05
-1.17964e-05
5.37483e-05
-1.10357e-05
4.7218e-05
-1.0073e-05
3.97622e-05
-8.88076e-06
3.13301e-05
-7.43047e-06
2.1876e-05
-5.69321e-06
1.13581e-05
-3.64008e-06
-1.27354e-06
9.15094e-05
-1.32823e-05
9.09974e-05
-1.33815e-05
9.0405e-05
-1.34574e-05
8.9687e-05
-1.35255e-05
8.8793e-05
-1.35794e-05
8.76682e-05
-1.36115e-05
8.62537e-05
-1.36127e-05
8.44874e-05
-1.35724e-05
8.23039e-05
-1.3478e-05
7.96267e-05
-1.33146e-05
7.63833e-05
-1.30653e-05
7.25166e-05
-1.27129e-05
6.79666e-05
-1.22386e-05
6.26683e-05
-1.16214e-05
5.65586e-05
-1.08382e-05
4.95769e-05
-9.8643e-06
4.16658e-05
-8.67397e-06
3.27721e-05
-7.24036e-06
2.28478e-05
-5.53615e-06
1.18488e-05
-3.53386e-06
-1.2352e-06
0.000101224
-1.3573e-05
0.000100255
-1.36306e-05
9.91948e-05
-1.36617e-05
9.80002e-05
-1.36823e-05
9.66233e-05
-1.36865e-05
9.50113e-05
-1.36674e-05
9.31074e-05
-1.36169e-05
9.08514e-05
-1.3525e-05
8.81803e-05
-1.33805e-05
8.50225e-05
-1.31699e-05
8.12996e-05
-1.28778e-05
7.69483e-05
-1.24877e-05
7.19139e-05
-1.19821e-05
6.61332e-05
-1.13422e-05
5.95417e-05
-1.05468e-05
5.20774e-05
-9.57303e-06
4.36811e-05
-8.39693e-06
3.42973e-05
-6.9935e-06
2.38753e-05
-5.33707e-06
1.23677e-05
-3.40163e-06
-1.18795e-06
0.000111469
-1.36493e-05
0.000110021
-1.36694e-05
0.00010847
-1.36605e-05
0.000106775
-1.36386e-05
0.000104889
-1.35987e-05
0.000102764
-1.35346e-05
0.000100343
-1.34388e-05
9.75691e-05
-1.33026e-05
9.43802e-05
-1.31156e-05
9.07108e-05
-1.28661e-05
8.64818e-05
-1.25401e-05
8.16198e-05
-1.21219e-05
7.60712e-05
-1.15956e-05
6.97785e-05
-1.09443e-05
6.26766e-05
-1.01488e-05
5.47021e-05
-9.18813e-06
4.5794e-05
-8.04037e-06
3.58946e-05
-6.68239e-06
2.49504e-05
-5.09032e-06
1.29105e-05
-3.23971e-06
-1.13048e-06
0.000122142
-1.34768e-05
0.000120199
-1.34646e-05
0.000118139
-1.34216e-05
0.000115924
-1.33638e-05
0.00011351
-1.32868e-05
0.00011085
-1.31852e-05
0.000107891
-1.30523e-05
0.000104576
-1.28804e-05
0.000100846
-1.26603e-05
9.66381e-05
-1.23816e-05
9.18785e-05
-1.20319e-05
8.64866e-05
-1.15973e-05
8.04014e-05
-1.10629e-05
7.35718e-05
-1.04131e-05
6.59356e-05
-9.63121e-06
5.74279e-05
-8.69853e-06
4.79859e-05
-7.59501e-06
3.75498e-05
-6.2996e-06
2.60633e-05
-4.79038e-06
1.34719e-05
-3.04464e-06
-1.06158e-06
0.000133113
-1.30223e-05
0.000130665
-1.29839e-05
0.000128086
-1.29138e-05
0.000125339
-1.28279e-05
0.000122384
-1.27221e-05
0.000119175
-1.2592e-05
0.000115663
-1.24316e-05
0.000111791
-1.22342e-05
0.000107503
-1.19919e-05
0.000102738
-1.16955e-05
9.74283e-05
-1.13345e-05
9.1492e-05
-1.08966e-05
8.48558e-05
-1.03677e-05
7.74716e-05
-9.7341e-06
6.92837e-05
-8.98148e-06
6.02257e-05
-8.09339e-06
5.02335e-05
-7.05186e-06
3.92453e-05
-5.83799e-06
2.7202e-05
-4.43197e-06
1.40456e-05
-2.81314e-06
-9.80118e-07
0.000144221
-1.22545e-05
0.000141267
-1.2197e-05
0.000138166
-1.2108e-05
0.000134884
-1.20026e-05
0.000131383
-1.18777e-05
0.000127621
-1.17292e-05
0.000123548
-1.15523e-05
0.000119113
-1.13412e-05
0.00011426
-1.1089e-05
0.00010893
-1.0788e-05
0.000103059
-1.04294e-05
9.65675e-05
-1.00021e-05
8.93739e-05
-9.49388e-06
8.14275e-05
-8.89326e-06
7.26784e-05
-8.18763e-06
6.30606e-05
-7.36255e-06
5.25091e-05
-6.40249e-06
4.09601e-05
-5.29088e-06
2.83523e-05
-4.01026e-06
1.46246e-05
-2.54224e-06
-8.8508e-07
0.000155273
-1.11457e-05
0.000151821
-1.10767e-05
0.000148205
-1.09778e-05
0.000144395
-1.08628e-05
0.000140355
-1.07292e-05
0.000136043
-1.05738e-05
0.000131415
-1.03924e-05
0.000126421
-1.01804e-05
0.000121006
-9.93213e-06
0.000115113
-9.64096e-06
0.000108681
-9.29949e-06
0.000101634
-8.89861e-06
9.38881e-05
-8.42851e-06
8.5382e-05
-7.87912e-06
7.60702e-05
-7.23927e-06
6.58918e-05
-6.497e-06
5.47801e-05
-5.63941e-06
4.267e-05
-4.65239e-06
2.94981e-05
-3.52099e-06
1.52007e-05
-2.22934e-06
-7.75587e-07
0.000166041
-9.67258e-06
0.000162109
-9.60034e-06
0.000157998
-9.50101e-06
0.000153678
-9.38698e-06
0.000149117
-9.25621e-06
0.000144275
-9.10612e-06
0.00013911
-8.93354e-06
0.000133573
-8.73465e-06
0.000127612
-8.50496e-06
0.000121171
-8.23924e-06
0.00011419
-7.93147e-06
0.000106601
-7.57472e-06
9.83186e-05
-7.16113e-06
8.92666e-05
-6.68174e-06
7.9402e-05
-6.12745e-06
6.86726e-05
-5.48914e-06
5.70101e-05
-4.75643e-06
4.43481e-05
-3.91771e-06
3.06215e-05
-2.96072e-06
1.57648e-05
-1.87238e-06
-6.50944e-07
0.000176258
-7.81776e-06
0.00017188
-7.75095e-06
0.000167306
-7.66142e-06
0.00016251
-7.55944e-06
0.000157461
-7.44353e-06
0.000152122
-7.31178e-06
0.000146452
-7.16182e-06
0.000140406
-6.99082e-06
0.000133931
-6.79541e-06
0.000126973
-6.57168e-06
0.000119473
-6.31512e-06
0.000111368
-6.02072e-06
0.000102573
-5.68225e-06
9.30012e-05
-5.29259e-06
8.26097e-05
-4.8452e-06
7.13522e-05
-4.33337e-06
5.91599e-05
-3.74908e-06
4.59655e-05
-3.08345e-06
3.17035e-05
-2.32708e-06
1.63076e-05
-1.46999e-06
-5.10697e-07
0.000185619
-5.57177e-06
0.000180842
-5.51924e-06
0.000175854
-5.44991e-06
0.000170631
-5.37142e-06
0.000165146
-5.28278e-06
0.000159362
-5.18271e-06
0.000153239
-5.06966e-06
0.000146734
-4.94173e-06
0.000139795
-4.79667e-06
0.00013237
-4.63188e-06
0.000124399
-4.44434e-06
0.000115822
-4.23063e-06
0.000106554
-3.98631e-06
9.65044e-05
-3.70699e-06
8.5627e-05
-3.38883e-06
7.38777e-05
-3.02684e-06
6.1189e-05
-2.61519e-06
4.74935e-05
-2.14804e-06
3.27257e-05
-1.6191e-06
1.682e-05
-1.02165e-06
-3.54692e-07
0.000193777
-2.93455e-06
0.000188662
-2.90513e-06
0.000183327
-2.86646e-06
0.00017775
-2.82289e-06
0.0001719
-2.77389e-06
0.000165745
-2.71883e-06
0.000159244
-2.65692e-06
0.000152353
-2.58722e-06
0.000145023
-2.5086e-06
0.0001372
-2.41975e-06
0.000128826
-2.31911e-06
0.000119839
-2.20488e-06
0.00011016
-2.07462e-06
9.96965e-05
-1.92666e-06
8.83898e-05
-1.75964e-06
7.61979e-05
-1.57034e-06
6.30592e-05
-1.35543e-06
4.89057e-05
-1.11215e-06
3.36718e-05
-8.37426e-07
1.72939e-05
-5.27915e-07
-1.83166e-07
0.000200401
0.000195034
0.000189445
0.000183608
0.000177492
0.000171063
0.000164281
0.000157101
0.000149474
0.000141346
0.000132656
0.000123343
0.000113332
0.000102532
9.0867e-05
7.82951e-05
6.47643e-05
5.02043e-05
3.45488e-05
1.77361e-05
)
;

boundaryField
{
    inlet
    {
        type            calculated;
        value           nonuniform 0();
    }
    outlet
    {
        type            calculated;
        value           uniform 0;
    }
    flap
    {
        type            calculated;
        value           nonuniform 0();
    }
    upperWall
    {
        type            calculated;
        value           nonuniform List<scalar> 
21
(
-7.46618e-15
0
0
0
0
0
0
-4.39488e-15
0
0
0
0
1.47988e-14
0
0
0
0
-5.53147e-15
0
0
0
)
;
    }
    lowerWall
    {
        type            calculated;
        value           nonuniform 0();
    }
    frontAndBack
    {
        type            empty;
        value           nonuniform 0();
    }
    procBoundary2to1
    {
        type            processor;
        value           nonuniform List<scalar> 
17
(
-5.14434e-05
-5.80567e-05
-6.54023e-05
-7.3496e-05
-8.23167e-05
-9.18266e-05
-0.000101968
-0.000112659
-0.000123791
-0.00013523
-0.000146806
-0.000158318
-0.000169527
-0.000180156
-0.000189883
-0.000198343
-0.000205185
)
;
    }
    procBoundary2to4
    {
        type            processor;
        value           nonuniform List<scalar> 
11
(
-1.56268e-05
-1.67519e-05
-1.81498e-05
-1.9884e-05
-2.2002e-05
-2.45524e-05
-2.75847e-05
-3.11498e-05
-3.52968e-05
-4.00734e-05
-4.54696e-05
)
;
    }
    procBoundary2to5
    {
        type            processor;
        value           nonuniform List<scalar> 
34
(
1.31811e-06
1.69607e-06
2.24453e-05
2.6238e-06
3.18133e-06
2.99307e-05
4.3497e-06
3.38242e-05
5.59754e-06
6.27296e-06
3.93724e-05
7.51697e-06
8.11541e-06
4.29387e-05
9.1885e-06
4.45435e-05
1.0082e-05
1.03077e-05
4.44821e-05
1.07776e-05
4.4157e-05
1.09342e-05
1.04895e-05
3.9461e-05
1.00041e-05
3.64042e-05
9.10532e-06
7.71567e-06
2.55106e-05
6.01875e-06
1.862e-05
3.87766e-06
1.00846e-05
1.351e-06
)
;
    }
}


// ************************************************************************* //
