/*--------------------------------*- C++ -*----------------------------------*\
| =========                 |                                                 |
| \\      /  F ield         | OpenFOAM: The Open Source CFD Toolbox           |
|  \\    /   O peration     | Version:  dev                                   |
|   \\  /    A nd           | Web:      www.OpenFOAM.org                      |
|    \\/     M anipulation  |                                                 |
\*---------------------------------------------------------------------------*/
FoamFile
{
    version     2.0;
    format      ascii;
    class       volVectorField;
    location    "3.42";
    object      Force;
}
// * * * * * * * * * * * * * * * * * * * * * * * * * * * * * * * * * * * * * //

dimensions      [1 1 -2 0 0 0 0];

internalField   uniform (0 0 0);

boundaryField
{
    inlet
    {
        type            calculated;
        value           uniform (0 0 0);
    }
    outlet
    {
        type            calculated;
        value           uniform (0 0 0);
    }
    flap
    {
        type            calculated;
        value           nonuniform List<vector> 
33
(
(3.73079 1.68751e-17 -0.0485218)
(3.72382 1.6775e-17 -0.09952)
(3.72354 1.25094e-18 -0.146975)
(3.72466 -1.54331e-17 -0.188225)
(3.71639 1.66815e-17 -0.228504)
(3.69211 8.30824e-39 -0.269661)
(3.64838 5.87747e-38 -0.309958)
(3.58429 1.66329e-17 -0.344177)
(3.49994 -3.32845e-23 -0.368892)
(3.39385 2.11082e-17 -0.382618)
(3.26204 2.2161e-21 -0.384826)
(3.09362 -2.89837e-23 -0.375985)
(2.86654 -1.79998e-38 -0.354646)
(2.53356 -2.65405e-38 -0.314873)
(1.96761 -1.30406e-38 -0.243181)
(0.0680427 1.67498e-17 0.521066)
(0.0383781 -2.00782e-19 0.298494)
(0.00995797 -7.77911e-18 0.0913146)
(-0.045654 1.57245e-17 0.00057715)
(-0.0452156 5.07653e-26 0.00104553)
(-0.0446232 -1.59009e-17 0.00148363)
(-0.044103 1.59014e-17 0.00185561)
(-0.0440186 -3.81862e-25 0.00226888)
(-0.0447928 -1.67627e-25 0.00279788)
(-0.0468853 -3.20321e-20 0.00350333)
(-0.0505868 3.45642e-20 0.00441662)
(-0.0556875 2.53297e-26 0.00550963)
(-0.0616044 -1.61173e-17 0.00670147)
(-0.0678621 -2.3601e-39 0.00791915)
(-0.0749885 1.83671e-40 0.00932344)
(-0.0825603 -1.12227e-19 0.0107244)
(-0.088067 0 0.0118562)
(-0.0858753 -2.75506e-40 0.0118381)
)
;
    }
    upperWall
    {
        type            calculated;
        value           uniform (0 0 0);
    }
    lowerWall
    {
        type            calculated;
        value           uniform (0 0 0);
    }
    frontAndBack
    {
        type            empty;
    }
}


// ************************************************************************* //
