/*--------------------------------*- C++ -*----------------------------------*\
| =========                 |                                                 |
| \\      /  F ield         | OpenFOAM: The Open Source CFD Toolbox           |
|  \\    /   O peration     | Version:  dev                                   |
|   \\  /    A nd           | Web:      www.OpenFOAM.org                      |
|    \\/     M anipulation  |                                                 |
\*---------------------------------------------------------------------------*/
FoamFile
{
    version     2.0;
    format      ascii;
    class       surfaceScalarField;
    location    "3.42";
    object      meshPhi;
}
// * * * * * * * * * * * * * * * * * * * * * * * * * * * * * * * * * * * * * //

dimensions      [0 3 -1 0 0 0 0];

internalField   nonuniform List<scalar> 
5457
(
2.8459e-08
1.85641e-08
6.22127e-07
5.06197e-08
2.14845e-06
7.19911e-08
4.72398e-06
8.08224e-08
8.25076e-06
7.68116e-08
1.24797e-05
6.05071e-08
1.70674e-05
3.32697e-08
2.16295e-05
-2.71295e-09
2.5788e-05
-4.44588e-08
2.92111e-05
-8.83248e-08
3.16443e-05
-1.30268e-07
3.2931e-05
-1.66231e-07
3.30213e-05
-1.92605e-07
3.19703e-05
-2.06722e-07
2.99235e-05
-2.07263e-07
2.70953e-05
-1.94508e-07
2.37409e-05
-1.70352e-07
2.01257e-05
-1.38046e-07
1.64989e-05
-1.01699e-07
1.3072e-05
-6.56149e-08
9.92156e-06
-3.46736e-08
7.11592e-06
-1.23451e-08
4.80513e-06
1.71805e-09
3.03637e-06
9.01115e-09
1.76097e-06
1.08381e-08
9.07157e-07
9.12703e-09
3.91141e-07
5.93619e-09
1.25568e-07
2.9314e-09
2.46007e-08
1.02563e-09
1.85135e-10
-5.73191e-08
3.74918e-08
4.73748e-07
1.0226e-07
1.96225e-06
1.45551e-07
4.52144e-06
1.6367e-07
8.05174e-06
1.56009e-07
1.23016e-05
1.23633e-07
1.69244e-05
6.92222e-08
2.15319e-05
-2.88973e-09
2.57417e-05
-8.67663e-08
2.92174e-05
-1.75126e-07
3.17e-05
-2.59855e-07
3.30289e-05
-3.32771e-07
3.31512e-05
-3.86565e-07
3.212e-05
-4.15781e-07
3.00807e-05
-4.1766e-07
2.72488e-05
-3.92664e-07
2.38813e-05
-3.44524e-07
2.02467e-05
-2.79743e-07
1.65964e-05
-2.066e-07
1.31427e-05
-1.33819e-07
9.97529e-06
-7.12454e-08
7.15789e-06
-2.5955e-08
4.83181e-06
2.58741e-09
3.05275e-06
1.74135e-08
1.77038e-06
2.123e-08
9.12038e-07
1.79272e-08
3.93299e-07
1.16502e-08
1.26306e-07
5.73471e-09
2.47736e-08
1.98911e-09
3.66619e-10
-1.63925e-07
5.69446e-08
2.83463e-07
1.55385e-07
1.71289e-06
2.2141e-07
4.23518e-06
2.49516e-07
7.74943e-06
2.3879e-07
1.20024e-05
1.90777e-07
1.66455e-05
1.09424e-07
2.12877e-05
1.15097e-09
2.55435e-05
-1.25207e-07
2.90726e-05
-2.58763e-07
3.16117e-05
-3.87332e-07
3.29959e-05
-4.98565e-07
3.31682e-05
-5.81352e-07
3.21783e-05
-6.2731e-07
3.01696e-05
-6.32075e-07
2.73564e-05
-5.96121e-07
2.39963e-05
-5.24878e-07
2.03589e-05
-4.28018e-07
1.66977e-05
-3.17977e-07
1.3227e-05
-2.07962e-07
1.00456e-05
-1.12907e-07
7.21515e-06
-4.37187e-08
4.87309e-06
1.33454e-10
3.08078e-06
2.32472e-08
1.78786e-06
2.97664e-08
9.21684e-07
2.54997e-08
3.97729e-07
1.66491e-08
1.27829e-07
8.1933e-09
2.51133e-08
2.82243e-09
5.22375e-10
-2.85067e-07
7.70675e-08
6.02953e-08
2.10419e-07
1.40981e-06
3.00264e-07
3.87316e-06
3.39314e-07
7.34858e-06
3.26355e-07
1.15823e-05
2.63382e-07
1.6225e-05
1.55544e-07
2.08849e-05
1.12668e-08
2.5175e-05
-1.57803e-07
2.87524e-05
-3.37248e-07
3.13505e-05
-5.10855e-07
3.28e-05
-6.62092e-07
3.30394e-05
-7.75972e-07
3.21135e-05
-8.41036e-07
3.01614e-05
-8.51105e-07
2.73943e-05
-8.06427e-07
2.40676e-05
-7.13893e-07
2.04504e-05
-5.86156e-07
1.6797e-05
-4.39704e-07
1.33242e-05
-2.92205e-07
1.01338e-05
-1.63782e-07
7.28993e-06
-6.9438e-08
4.93175e-06
-8.86654e-09
3.12293e-06
2.40165e-08
1.81519e-06
3.46894e-08
9.37162e-07
3.07425e-08
4.0495e-07
2.03408e-08
1.30319e-07
1.00543e-08
2.56536e-08
3.45484e-09
6.38761e-10
-4.39177e-07
9.80614e-08
-2.26478e-07
2.67946e-07
1.01697e-06
3.8305e-07
3.39973e-06
4.34334e-07
6.81906e-06
4.20294e-07
1.10206e-05
3.43336e-07
1.56549e-05
2.09736e-07
2.03296e-05
2.98123e-08
2.46563e-05
-1.82097e-07
2.82899e-05
-4.0816e-07
3.09601e-05
-6.2821e-07
3.24927e-05
-8.21553e-07
3.28204e-05
-9.69253e-07
3.19818e-05
-1.05661e-06
3.01102e-05
-1.07537e-06
2.74119e-05
-1.02526e-06
2.41387e-05
-9.14275e-07
2.05583e-05
-7.57777e-07
1.69251e-05
-5.76109e-07
1.34574e-05
-3.91326e-07
1.02588e-05
-2.28713e-07
7.39726e-06
-1.07513e-07
5.01686e-06
-2.80333e-08
3.18449e-06
1.69701e-08
1.8552e-06
3.40795e-08
9.59821e-07
3.24528e-08
4.15507e-07
2.20754e-08
1.33948e-07
1.10372e-08
2.64293e-08
3.80432e-09
7.01834e-10
-6.27489e-07
1.20131e-07
-5.78483e-07
3.28561e-07
5.32544e-07
4.70725e-07
2.81285e-06
5.35881e-07
6.15847e-06
5.22253e-07
1.03145e-05
4.32625e-07
1.49315e-05
2.74304e-07
1.9617e-05
5.93713e-08
2.39817e-05
-1.95307e-07
2.76785e-05
-4.68642e-07
3.04332e-05
-7.36643e-07
3.20663e-05
-9.74508e-07
3.25036e-05
-1.15931e-06
3.17765e-05
-1.27295e-06
3.00106e-05
-1.30482e-06
2.74059e-05
-1.25372e-06
2.42091e-05
-1.12837e-06
2.06848e-05
-9.46413e-07
1.70867e-05
-7.31749e-07
1.36343e-05
-5.10661e-07
1.04295e-05
-3.13325e-07
7.54462e-06
-1.6314e-07
5.13345e-06
-6.16441e-08
3.26858e-06
-1.13303e-09
1.9096e-06
2.56789e-08
9.90437e-07
2.922e-08
4.29664e-07
2.10941e-08
1.38769e-07
1.08152e-08
2.74438e-08
3.77027e-09
6.94379e-10
-8.511e-07
1.43486e-07
-9.97298e-07
3.92866e-07
-4.52344e-08
5.6426e-07
2.11054e-06
6.45282e-07
5.36438e-06
6.3393e-07
9.4608e-06
5.33327e-07
1.40505e-05
3.51714e-07
1.87415e-05
1.02777e-07
2.31442e-05
-1.94286e-07
2.69097e-05
-5.15339e-07
2.97601e-05
-8.32747e-07
3.15102e-05
-1.11772e-06
3.20784e-05
-1.34334e-06
3.14872e-05
-1.48797e-06
2.98535e-05
-1.53837e-06
2.73691e-05
-1.492e-06
2.4274e-05
-1.35776e-06
2.08278e-05
-1.15505e-06
1.72826e-05
-9.10936e-07
1.38586e-05
-6.55629e-07
1.06513e-05
-4.23579e-07
7.73628e-06
-2.41934e-07
5.28409e-06
-1.14336e-07
3.3764e-06
-3.38011e-08
1.97867e-06
7.05085e-09
1.02882e-06
1.95303e-08
4.47144e-07
1.65907e-08
1.44612e-07
9.04365e-09
2.86428e-08
3.24381e-09
5.98904e-10
-1.11119e-06
1.68335e-07
-1.48467e-06
4.61469e-07
-7.18257e-07
6.64629e-07
1.29076e-06
7.6388e-07
4.43431e-06
7.57052e-07
8.45609e-06
6.47593e-07
1.30073e-05
4.44572e-07
1.76969e-05
1.63102e-07
2.21356e-05
-1.75515e-07
2.59734e-05
-5.44354e-07
2.89289e-05
-9.12387e-07
3.0811e-05
-1.24701e-06
3.153e-05
-1.51741e-06
3.10989e-05
-1.6983e-06
2.96243e-05
-1.77355e-06
2.72881e-05
-1.73884e-06
2.43221e-05
-1.60269e-06
2.09783e-05
-1.3855e-06
1.75059e-05
-1.11683e-06
1.41261e-05
-8.30567e-07
1.09216e-05
-5.64602e-07
7.97041e-06
-3.48963e-07
5.4669e-06
-1.90455e-07
3.50589e-06
-8.44339e-08
2.06031e-06
-2.42002e-08
1.07331e-06
1.9025e-09
4.66879e-07
7.78254e-09
1.50989e-07
5.39203e-09
2.98888e-08
2.12135e-09
3.98916e-10
-1.40909e-06
1.9489e-07
-2.04252e-06
5.34974e-07
-1.48841e-06
7.72797e-07
3.51643e-07
8.92999e-07
3.36603e-06
8.93348e-07
7.29728e-06
7.77608e-07
1.17973e-05
5.55581e-07
1.64766e-05
2.43621e-07
2.0947e-05
-1.35129e-07
2.48579e-05
-5.51263e-07
2.79251e-05
-9.70667e-07
2.99518e-05
-1.3572e-06
3.08399e-05
-1.67629e-06
3.05916e-05
-1.89901e-06
2.93019e-05
-2.00608e-06
2.71421e-05
-1.99086e-06
2.43337e-05
-1.86085e-06
2.1119e-05
-1.63703e-06
1.77418e-05
-1.35058e-06
1.44229e-05
-1.03825e-06
1.1228e-05
-7.40137e-07
8.23546e-06
-4.88065e-07
5.67197e-06
-2.93321e-07
3.64979e-06
-1.55701e-07
2.14944e-06
-7.00976e-08
1.12038e-06
-2.49789e-08
4.86844e-07
-6.02581e-09
1.57037e-07
-4.30498e-10
3.09437e-08
3.14845e-10
7.9888e-11
-1.7464e-06
2.23358e-07
-2.67298e-06
6.13972e-07
-2.35744e-06
8.89698e-07
-7.08234e-07
1.03392e-06
2.15791e-06
1.04449e-06
5.98179e-06
9.25525e-07
1.04163e-05
6.87468e-07
1.50741e-05
3.47725e-07
1.9569e-05
-6.90027e-08
2.35506e-05
-5.31176e-07
2.67327e-05
-1.00197e-06
2.89131e-05
-1.44206e-06
2.99852e-05
-1.81337e-06
2.99395e-05
-2.08342e-06
2.88591e-05
-2.22946e-06
2.69035e-05
-2.24202e-06
2.42809e-05
-2.1273e-06
2.12228e-05
-1.90621e-06
1.79651e-05
-1.61069e-06
1.47247e-05
-1.27925e-06
1.15472e-05
-9.5219e-07
8.51071e-06
-6.61761e-07
5.88114e-06
-4.25218e-07
3.79438e-06
-2.49399e-07
2.2372e-06
-1.32028e-07
1.16454e-06
-6.21247e-08
5.03968e-07
-2.54254e-08
1.61472e-07
-8.67992e-09
3.14483e-08
-2.25288e-09
-3.70453e-10
-2.1251e-06
2.53948e-07
-3.37846e-06
6.99044e-07
-3.32679e-06
1.01622e-06
-1.88955e-06
1.18783e-06
8.09285e-07
1.21205e-06
4.50814e-06
1.09339e-06
8.86102e-06
8.42887e-07
1.34835e-05
4.78809e-07
1.79922e-05
2.71219e-08
2.20383e-05
-4.78884e-07
2.53342e-05
-1.00011e-06
2.76729e-05
-1.49445e-06
2.89396e-05
-1.92072e-06
2.91131e-05
-2.24296e-06
2.82642e-05
-2.43477e-06
2.6538e-05
-2.4839e-06
2.41267e-05
-2.39482e-06
2.12502e-05
-2.18719e-06
1.81358e-05
-1.89276e-06
1.49939e-05
-1.55073e-06
1.18462e-05
-1.19956e-06
8.76902e-06
-8.70083e-07
6.07254e-06
-5.86882e-07
3.92193e-06
-3.66493e-07
2.31082e-06
-2.10884e-07
1.19799e-06
-1.10284e-07
5.14047e-07
-5.09615e-08
1.62515e-07
-1.96462e-08
3.08636e-08
-5.68572e-09
-9.75448e-10
-2.54787e-06
2.86867e-07
-4.16184e-06
7.90757e-07
-4.3974e-06
1.15318e-06
-3.19187e-06
1.3558e-06
-6.79064e-07
1.39742e-06
2.87634e-06
1.28306e-06
7.1297e-06
1.02429e-06
1.17002e-05
6.40113e-07
1.62086e-05
1.5745e-07
2.03084e-05
-3.89064e-07
2.37117e-05
-9.58517e-07
2.6208e-05
-1.50652e-06
2.76747e-05
-1.98919e-06
2.80793e-05
-2.36733e-06
2.74789e-05
-2.61115e-06
2.60017e-05
-2.70572e-06
2.38236e-05
-2.65299e-06
2.11525e-05
-2.47041e-06
1.82045e-05
-2.18841e-06
1.51825e-05
-1.84573e-06
1.2082e-05
-1.47696e-06
8.97582e-06
-1.10961e-06
6.2202e-06
-7.76607e-07
4.01253e-06
-5.06606e-07
2.35506e-06
-3.07079e-07
1.21067e-06
-1.70183e-07
5.11588e-07
-8.33671e-08
1.57629e-07
-3.38463e-08
2.82758e-08
-1.02219e-08
-1.79629e-09
-3.01843e-06
3.22336e-07
-5.02689e-06
8.89678e-07
-5.56946e-06
1.30132e-06
-4.61328e-06
1.53869e-06
-2.30448e-06
1.60172e-06
1.08853e-06
1.49605e-06
5.22272e-06
1.2338e-06
9.7218e-06
8.34546e-07
1.42116e-05
3.25908e-07
1.83495e-05
-2.5655e-07
2.18485e-05
-8.70597e-07
2.44952e-05
-1.47008e-06
2.61607e-05
-2.00894e-06
2.68019e-05
-2.44523e-06
2.64598e-05
-2.74623e-06
2.52451e-05
-2.89415e-06
2.33191e-05
-2.8879e-06
2.08751e-05
-2.74206e-06
1.81163e-05
-2.48467e-06
1.52364e-05
-2.15276e-06
1.22052e-05
-1.77499e-06
9.09038e-06
-1.37354e-06
6.29285e-06
-9.90226e-07
4.04283e-06
-6.67757e-07
2.3527e-06
-4.20252e-07
1.19079e-06
-2.4255e-07
4.8915e-07
-1.23886e-07
1.42647e-07
-5.24162e-08
2.17908e-08
-1.65007e-08
-3.01954e-09
-3.54208e-06
3.60596e-07
-5.97864e-06
9.96411e-07
-6.84192e-06
1.4613e-06
-6.14993e-06
1.73717e-06
-4.06198e-06
1.82578e-06
-8.506e-07
1.73348e-06
3.14319e-06
1.47302e-06
7.54849e-06
1.06447e-06
1.19976e-05
5.35877e-07
1.6153e-05
-7.66744e-08
1.97299e-05
-7.30131e-07
2.25133e-05
-1.37713e-06
2.43688e-05
-1.97e-06
2.52439e-05
-2.46476e-06
2.51629e-05
-2.82622e-06
2.42195e-05
-3.03368e-06
2.256e-05
-3.08282e-06
2.03617e-05
-2.98489e-06
1.78138e-05
-2.76465e-06
1.50994e-05
-2.45621e-06
1.21646e-05
-2.08034e-06
9.07067e-06
-1.65185e-06
6.25762e-06
-1.22125e-06
3.98765e-06
-8.4656e-07
2.2847e-06
-5.49498e-07
1.12344e-06
-3.28308e-07
4.35038e-07
-1.74591e-07
1.09273e-07
-7.77163e-08
6.78053e-09
-2.62108e-08
-5.23539e-09
-4.07438e-06
3.99134e-07
-6.99289e-06
1.10748e-06
-8.22082e-06
1.6333e-06
-7.80228e-06
1.95347e-06
-5.95144e-06
2.07191e-06
-2.94164e-06
1.998e-06
8.88545e-07
1.74504e-06
5.1746e-06
1.33362e-06
9.55685e-06
7.91966e-07
1.37046e-05
1.56269e-07
1.73361e-05
-5.30071e-07
2.02363e-05
-1.21901e-06
2.2266e-05
-1.86184e-06
2.33648e-05
-2.41332e-06
2.35417e-05
-2.83653e-06
2.28731e-05
-3.10807e-06
2.14901e-05
-3.22024e-06
1.95538e-05
-3.18071e-06
1.72387e-05
-3.01044e-06
1.47164e-05
-2.73963e-06
1.19116e-05
-2.37935e-06
8.87711e-06
-1.93461e-06
6.0833e-06
-1.46356e-06
3.82228e-06
-1.04022e-06
2.13004e-06
-6.9482e-07
9.88332e-07
-4.29628e-07
3.2874e-07
-2.39225e-07
3.67292e-08
-1.14529e-07
-3.56464e-08
-4.43728e-08
-1.04835e-08
-7.92498e-08
6.0953e-10
-4.0983e-07
3.8357e-09
-1.31297e-06
1.44844e-08
-3.10907e-06
3.93696e-08
-6.0849e-06
8.68396e-08
-1.04518e-05
1.66199e-07
-1.6316e-05
2.86739e-07
-2.36676e-05
4.56447e-07
-3.23865e-05
6.80892e-07
-4.16248e-05
9.44991e-07
-5.06278e-05
1.21561e-06
-5.94617e-05
1.48061e-06
-6.80302e-05
1.74173e-06
-7.60291e-05
1.99074e-06
-8.31701e-05
2.21604e-06
-8.91924e-05
2.40801e-06
-9.3869e-05
2.5598e-06
-9.70127e-05
2.66749e-06
-9.84803e-05
2.72964e-06
-9.81761e-05
2.74655e-06
-9.60516e-05
2.71928e-06
-9.21017e-05
2.64885e-06
-8.63569e-05
2.53543e-06
-7.88708e-05
2.37796e-06
-6.9706e-05
2.1739e-06
-5.89175e-05
1.91921e-06
-4.65376e-05
1.60855e-06
-3.25631e-05
1.23544e-06
-1.69397e-05
7.92264e-07
2.77831e-07
-8.03454e-08
1.19083e-09
-4.15324e-07
7.67967e-09
-1.32858e-06
2.88322e-08
-3.14087e-06
7.82829e-08
-6.13768e-06
1.72569e-07
-1.05275e-05
3.30099e-07
-1.64128e-05
5.69223e-07
-2.3778e-05
9.05597e-07
-3.24865e-05
1.3496e-06
-4.1754e-05
1.87285e-06
-5.07908e-05
2.41102e-06
-5.96115e-05
2.93765e-06
-6.81753e-05
3.45617e-06
-7.61719e-05
3.95158e-06
-8.33108e-05
4.40038e-06
-8.93293e-05
4.78328e-06
-9.39995e-05
5.08661e-06
-9.71333e-05
5.30248e-06
-9.85874e-05
5.42795e-06
-9.82666e-05
5.46348e-06
-9.61233e-05
5.41111e-06
-9.2154e-05
5.27268e-06
-8.63903e-05
5.04846e-06
-7.88877e-05
4.73622e-06
-6.97099e-05
4.33081e-06
-5.89126e-05
3.82415e-06
-4.65283e-05
3.20558e-06
-3.25537e-05
2.46218e-06
-1.69337e-05
1.57889e-06
5.53641e-07
-8.13405e-08
1.77009e-09
-4.20121e-07
1.14693e-08
-1.34117e-06
4.2761e-08
-3.16344e-06
1.15845e-07
-6.16837e-06
2.5501e-07
-1.05593e-05
4.87238e-07
-1.64341e-05
8.3936e-07
-2.37737e-05
1.33409e-06
-3.24401e-05
1.98584e-06
-4.16913e-05
2.75528e-06
-5.07166e-05
3.55064e-06
-5.95051e-05
4.3304e-06
-6.80523e-05
5.09885e-06
-7.60441e-05
5.83508e-06
-8.31865e-05
6.50382e-06
-8.92136e-05
7.07618e-06
-9.38943e-05
7.53155e-06
-9.7038e-05
7.85789e-06
-9.85003e-05
8.05044e-06
-9.81855e-05
8.1095e-06
-9.60463e-05
8.03769e-06
-9.20799e-05
7.83741e-06
-8.63192e-05
7.50875e-06
-7.88205e-05
7.04814e-06
-6.96483e-05
6.44776e-06
-5.88588e-05
5.69552e-06
-4.64848e-05
4.77551e-06
-3.25228e-05
3.66861e-06
-1.69174e-05
2.3526e-06
8.24907e-07
-8.19665e-08
2.33367e-09
-4.22858e-07
1.50946e-08
-1.34681e-06
5.59509e-08
-3.16851e-06
1.51159e-07
-6.16272e-06
3.3208e-07
-1.05259e-05
6.33487e-07
-1.63514e-05
1.08988e-06
-2.36207e-05
1.7303e-06
-3.22054e-05
2.57267e-06
-4.13836e-05
3.56902e-06
-5.03505e-05
4.60479e-06
-5.9095e-05
5.62472e-06
-6.7619e-05
6.63264e-06
-7.56077e-05
7.60166e-06
-8.27632e-05
8.48519e-06
-8.88147e-05
9.2449e-06
-9.35262e-05
9.85315e-06
-9.67035e-05
1.02934e-05
-9.81993e-05
1.05587e-05
-9.79166e-05
1.06487e-05
-9.58078e-05
1.05659e-05
-9.18702e-05
1.03129e-05
-8.61371e-05
9.88926e-06
-7.86652e-05
9.28982e-06
-6.95192e-05
8.50402e-06
-5.87555e-05
7.51581e-06
-4.6407e-05
6.30424e-06
-3.24704e-05
4.84423e-06
-1.68908e-05
3.10685e-06
1.08939e-06
-8.24892e-08
2.86296e-09
-4.24884e-07
1.84605e-08
-1.34958e-06
6.8152e-08
-3.16515e-06
1.83588e-07
-6.1377e-06
4.02393e-07
-1.04555e-05
7.66224e-07
-1.62074e-05
1.31634e-06
-2.33763e-05
2.08728e-06
-3.18432e-05
3.1e-06
-4.09133e-05
4.3002e-06
-4.98028e-05
5.55593e-06
-5.84982e-05
6.80023e-06
-6.69994e-05
8.03487e-06
-7.499e-05
9.22657e-06
-8.21675e-05
1.0318e-05
-8.82549e-05
1.12618e-05
-9.30105e-05
1.20232e-05
-9.62353e-05
1.2581e-05
-9.77789e-05
1.29254e-05
-9.75424e-05
1.30547e-05
-9.54775e-05
1.2971e-05
-9.15816e-05
1.26762e-05
-8.58883e-05
1.21691e-05
-7.84545e-05
1.14425e-05
-6.93453e-05
1.04832e-05
-5.86173e-05
9.27109e-06
-4.63035e-05
7.78045e-06
-3.2401e-05
5.98058e-06
-1.68557e-05
3.83633e-06
1.34524e-06
-8.29477e-08
3.34767e-09
-4.26423e-07
2.15175e-08
-1.35005e-06
7.9217e-08
-3.15463e-06
2.12774e-07
-6.09588e-06
4.65209e-07
-1.0353e-05
8.84118e-07
-1.60096e-05
1.51654e-06
-2.3051e-05
2.40161e-06
-3.13683e-05
3.56281e-06
-4.03018e-05
4.94187e-06
-4.90997e-05
6.39487e-06
-5.77432e-05
7.84558e-06
-6.62233e-05
9.29208e-06
-7.42206e-05
1.06942e-05
-8.14271e-05
1.19848e-05
-8.75592e-05
1.31076e-05
-9.23689e-05
1.40212e-05
-9.56517e-05
1.46994e-05
-9.72539e-05
1.51291e-05
-9.70745e-05
1.53066e-05
-9.50643e-05
1.52327e-05
-9.12208e-05
1.49083e-05
-8.55776e-05
1.43305e-05
-7.81921e-05
1.34902e-05
-6.91293e-05
1.2371e-05
-5.84461e-05
1.09491e-05
-4.61755e-05
9.19407e-06
-3.23153e-05
7.0701e-06
-1.68124e-05
4.53627e-06
1.59082e-06
-8.33943e-08
3.78379e-09
-4.27795e-07
2.42659e-08
-1.34918e-06
8.91304e-08
-3.1391e-06
2.38696e-07
-6.04175e-06
5.2055e-07
-1.02267e-05
9.87321e-07
-1.5772e-05
1.6907e-06
-2.26645e-05
2.67328e-06
-3.08075e-05
3.96072e-06
-3.9583e-05
5.49309e-06
-4.8279e-05
7.11976e-06
-5.687e-05
8.75794e-06
-6.5331e-05
1.04001e-05
-7.33381e-05
1.19982e-05
-8.05776e-05
1.34767e-05
-8.67592e-05
1.47716e-05
-9.16283e-05
1.58346e-05
-9.49753e-05
1.66346e-05
-9.66426e-05
1.71549e-05
-9.65273e-05
1.7389e-05
-9.45794e-05
1.73357e-05
-9.07962e-05
1.69941e-05
-8.52115e-05
1.63593e-05
-7.78825e-05
1.54195e-05
-6.88745e-05
1.41554e-05
-5.82441e-05
1.25393e-05
-4.60246e-05
1.05365e-05
-3.22143e-05
8.10621e-06
-1.67614e-05
5.20248e-06
1.82466e-06
-8.39368e-08
4.17605e-09
-4.29576e-07
2.67556e-08
-1.34865e-06
9.80356e-08
-3.12246e-06
2.61741e-07
-5.98303e-06
5.69275e-07
-1.0089e-05
1.07712e-06
-1.55126e-05
1.84032e-06
-2.22447e-05
2.90466e-06
-3.02011e-05
4.29802e-06
-3.88084e-05
5.96024e-06
-4.73983e-05
7.73793e-06
-5.59347e-05
9.54324e-06
-6.43741e-05
1.13622e-05
-7.23899e-05
1.31403e-05
-7.96617e-05
1.47938e-05
-8.58921e-05
1.62511e-05
-9.08206e-05
1.74584e-05
-9.42323e-05
1.83798e-05
-9.59661e-05
1.89944e-05
-9.59175e-05
1.92925e-05
-9.40356e-05
1.927e-05
-9.03176e-05
1.89233e-05
-8.47971e-05
1.8245e-05
-7.75312e-05
1.72205e-05
-6.85847e-05
1.58271e-05
-5.8014e-05
1.40334e-05
-4.58525e-05
1.18005e-05
-3.2099e-05
9.08341e-06
-1.67032e-05
5.83145e-06
2.04553e-06
-8.4781e-08
4.54025e-09
-4.32774e-07
2.90811e-08
-1.35135e-06
1.06247e-07
-3.11115e-06
2.82725e-07
-5.9305e-06
6.12869e-07
-9.95485e-06
1.1557e-06
-1.52539e-05
1.96912e-06
-2.18272e-05
3.10243e-06
-2.95989e-05
4.5849e-06
-3.80397e-05
6.35647e-06
-4.65268e-05
8.26366e-06
-5.50071e-05
1.02148e-05
-6.34182e-05
1.21902e-05
-7.14335e-05
1.41292e-05
-7.87279e-05
1.59418e-05
-8.49991e-05
1.75502e-05
-8.99804e-05
1.88949e-05
-9.34511e-05
1.9935e-05
-9.52473e-05
2.06456e-05
-9.5263e-05
2.10133e-05
-9.34469e-05
2.10302e-05
-8.97955e-05
2.06897e-05
-8.43423e-05
1.99809e-05
-7.71438e-05
1.88862e-05
-6.82641e-05
1.73792e-05
-5.77589e-05
1.5425e-05
-4.56614e-05
1.29807e-05
-3.19708e-05
9.99739e-06
-1.66383e-05
6.42037e-06
2.25243e-06
-8.62877e-08
4.89521e-09
-4.3908e-07
3.13795e-08
-1.36179e-06
1.1424e-07
-3.11394e-06
3.02731e-07
-5.89817e-06
6.53374e-07
-9.84672e-06
1.22708e-06
-1.5031e-05
2.08448e-06
-2.14585e-05
3.27742e-06
-2.9057e-05
4.83541e-06
-3.73393e-05
6.69859e-06
-4.57284e-05
8.71491e-06
-5.41544e-05
1.07909e-05
-6.25317e-05
1.29013e-05
-7.0533e-05
1.49802e-05
-7.78314e-05
1.69333e-05
-8.41247e-05
1.86788e-05
-8.91437e-05
2.01516e-05
-9.26612e-05
2.13055e-05
-9.45098e-05
2.21118e-05
-9.45824e-05
2.25525e-05
-9.28274e-05
2.26159e-05
-8.92409e-05
2.22912e-05
-8.38554e-05
2.15639e-05
-7.67266e-05
2.04126e-05
-6.79171e-05
1.88075e-05
-5.74818e-05
1.67098e-05
-4.54532e-05
1.40732e-05
-3.18309e-05
1.0845e-05
-1.65675e-05
6.96711e-06
2.44462e-06
-8.91023e-08
5.26928e-09
-4.51358e-07
3.38462e-08
-1.38699e-06
1.22721e-07
-3.14302e-06
3.23322e-07
-5.90599e-06
6.93809e-07
-9.79705e-06
1.29676e-06
-1.48889e-05
2.19484e-06
-2.11927e-05
3.44124e-06
-2.86383e-05
5.06499e-06
-3.67743e-05
7.00575e-06
-4.50677e-05
9.11292e-06
-5.34358e-05
1.12927e-05
-6.17707e-05
1.35157e-05
-6.97436e-05
1.57125e-05
-7.70263e-05
1.77864e-05
-8.33159e-05
1.96522e-05
-8.83468e-05
2.12408e-05
-9.18914e-05
2.25014e-05
-9.37766e-05
2.34006e-05
-9.38938e-05
2.39159e-05
-9.21913e-05
2.40305e-05
-8.86644e-05
2.37294e-05
-8.33445e-05
2.29939e-05
-7.62854e-05
2.17987e-05
-6.75481e-05
2.01099e-05
-5.71858e-05
1.78855e-05
-4.52301e-05
1.50754e-05
-3.16807e-05
1.1624e-05
-1.64913e-05
7.47024e-06
2.62156e-06
-9.45135e-08
5.69482e-09
-4.74778e-07
3.67865e-08
-1.43874e-06
1.32785e-07
-3.21767e-06
3.46827e-07
-5.98159e-06
7.38074e-07
-9.84349e-06
1.37062e-06
-1.48745e-05
2.30877e-06
-2.10859e-05
3.60595e-06
-2.84085e-05
5.28991e-06
-3.6415e-05
7.29788e-06
-4.46114e-05
9.47914e-06
-5.29105e-05
1.17415e-05
-6.11858e-05
1.40548e-05
-6.91094e-05
1.63474e-05
-7.63534e-05
1.85211e-05
-8.26123e-05
2.04888e-05
-8.76244e-05
2.21785e-05
-9.11687e-05
2.35363e-05
-9.3069e-05
2.45236e-05
-9.32139e-05
2.51123e-05
-9.15515e-05
2.52807e-05
-8.80762e-05
2.50089e-05
-8.28173e-05
2.42737e-05
-7.58262e-05
2.30455e-05
-6.71615e-05
2.12866e-05
-5.68741e-05
1.89512e-05
-4.49943e-05
1.59863e-05
-3.15214e-05
1.23334e-05
-1.64103e-05
7.92886e-06
2.78293e-06
-1.05585e-07
6.24078e-09
-5.19342e-07
4.07794e-08
-1.53635e-06
1.46089e-07
-3.36658e-06
3.76299e-07
-6.1619e-06
7.91122e-07
-1.00292e-05
1.45583e-06
-1.50367e-05
2.43559e-06
-2.11944e-05
3.78382e-06
-2.8433e-05
5.52695e-06
-3.6328e-05
7.59538e-06
-4.44191e-05
9.83398e-06
-5.26324e-05
1.21572e-05
-6.08249e-05
1.45388e-05
-6.86703e-05
1.69052e-05
-7.5844e-05
1.91577e-05
-8.20419e-05
2.12081e-05
-8.70039e-05
2.29834e-05
-9.05162e-05
2.4427e-05
-9.24052e-05
2.54948e-05
-9.25571e-05
2.61532e-05
-9.09195e-05
2.63753e-05
-8.74851e-05
2.61363e-05
-8.22806e-05
2.54079e-05
-7.53543e-05
2.4156e-05
-6.67612e-05
2.2339e-05
-5.65496e-05
1.99076e-05
-4.47476e-05
1.68058e-05
-3.13542e-05
1.29726e-05
-1.63251e-05
8.3426e-06
2.92857e-06
-1.31654e-07
7.3053e-09
-6.07022e-07
4.73678e-08
-1.71332e-06
1.65777e-07
-3.6313e-06
4.16601e-07
-6.49487e-06
8.59776e-07
-1.04048e-05
1.56102e-06
-1.54264e-05
2.58546e-06
-2.15732e-05
3.98739e-06
-2.87807e-05
5.79501e-06
-3.65768e-05
7.92157e-06
-4.45361e-05
1.01969e-05
-5.26434e-05
1.2557e-05
-6.07269e-05
1.49874e-05
-6.84599e-05
1.7407e-05
-7.55254e-05
1.97171e-05
-8.16257e-05
2.1831e-05
-8.65039e-05
2.36756e-05
-8.9951e-05
2.51911e-05
-9.17989e-05
2.63292e-05
-9.19346e-05
2.70511e-05
-9.03045e-05
2.73248e-05
-8.68987e-05
2.71197e-05
-8.17406e-05
2.64025e-05
-7.48742e-05
2.51345e-05
-6.63508e-05
2.327e-05
-5.62147e-05
2.07563e-05
-4.44918e-05
1.75347e-05
-3.118e-05
1.35421e-05
-1.6236e-05
8.71143e-06
3.05843e-06
-2.20195e-07
1.49315e-08
-8.07695e-07
6.31135e-08
-2.04733e-06
2.01797e-07
-4.08889e-06
4.80305e-07
-7.05342e-06
9.5817e-07
-1.10366e-05
1.70073e-06
-1.61024e-05
2.77257e-06
-2.22778e-05
4.23065e-06
-2.94779e-05
6.09455e-06
-3.71683e-05
8.2585e-06
-4.49876e-05
1.05611e-05
-5.29767e-05
1.29563e-05
-6.09228e-05
1.5424e-05
-6.85031e-05
1.7878e-05
-7.54168e-05
2.02249e-05
-8.1378e-05
2.23831e-05
-8.61347e-05
2.42799e-05
-8.94815e-05
2.5853e-05
-9.1257e-05
2.70502e-05
-9.13517e-05
2.78282e-05
-8.97101e-05
2.81495e-05
-8.63194e-05
2.79778e-05
-8.11987e-05
2.72743e-05
-7.43871e-05
2.59956e-05
-6.59307e-05
2.4092e-05
-5.58697e-05
2.15076e-05
-4.42269e-05
1.81811e-05
-3.09987e-05
1.40477e-05
-1.6143e-05
9.03906e-06
3.17379e-06
-4.69695e-06
4.35712e-07
-8.26322e-06
1.21601e-06
-1.00472e-05
1.81155e-06
-9.95866e-06
2.18929e-06
-8.29573e-06
2.34569e-06
-5.40223e-06
2.29544e-06
-1.62152e-06
2.05632e-06
2.67544e-06
1.64916e-06
7.12567e-06
1.10218e-06
1.13945e-05
4.51162e-07
1.51941e-05
-2.60584e-07
1.83015e-05
-9.84801e-07
2.05686e-05
-1.67237e-06
2.19246e-05
-2.27745e-06
2.23666e-05
-2.76209e-06
2.19577e-05
-3.10065e-06
2.0817e-05
-3.28225e-06
1.90951e-05
-3.31094e-06
1.69583e-05
-3.2037e-06
1.4572e-05
-2.98638e-06
1.18392e-05
-2.65909e-06
8.79906e-06
-2.21373e-06
5.95995e-06
-1.71325e-06
3.65447e-06
-1.24832e-06
1.9324e-06
-8.58987e-07
7.82167e-07
-5.52075e-07
1.34118e-07
-3.25384e-07
-1.32669e-07
-1.71221e-07
-1.74532e-07
-7.83995e-08
-3.15327e-08
-1.19245e-07
-5.19803e-06
4.72627e-07
-9.32713e-06
1.32228e-06
-1.1765e-05
1.98594e-06
-1.2213e-05
2.43341e-06
-1.08502e-05
2.64629e-06
-8.14032e-06
2.63006e-06
-4.49656e-06
2.41115e-06
-2.83986e-07
2.01625e-06
4.13906e-06
1.47273e-06
8.44122e-06
8.15276e-07
1.23324e-05
8.67302e-08
1.55857e-05
-6.64777e-07
1.80469e-05
-1.39039e-06
1.96355e-05
-2.04427e-06
2.03388e-05
-2.58786e-06
2.02077e-05
-2.99387e-06
1.93466e-05
-3.24876e-06
1.78932e-05
-3.35328e-06
1.60038e-05
-3.32089e-06
1.38364e-05
-3.17386e-06
1.12778e-05
-2.90198e-06
8.33284e-06
-2.47855e-06
5.52651e-06
-1.96418e-06
3.23614e-06
-1.46795e-06
1.52307e-06
-1.04268e-06
3.81536e-07
-6.99343e-07
-2.5847e-07
-4.38798e-07
-5.19398e-07
-2.54337e-07
-5.60509e-07
-1.34392e-07
-6.41234e-08
-5.52523e-07
-5.71142e-06
5.11538e-07
-1.0333e-05
1.43221e-06
-1.33546e-05
2.15806e-06
-1.44911e-05
2.67125e-06
-1.36606e-05
2.95666e-06
-1.12265e-05
2.9984e-06
-7.74797e-06
2.81235e-06
-3.65946e-06
2.43771e-06
6.98067e-07
1.90763e-06
5.00011e-06
1.25374e-06
8.95263e-06
5.1821e-07
1.23262e-05
-2.50974e-07
1.49612e-05
-1.00592e-06
1.67689e-05
-1.70143e-06
1.77276e-05
-2.29881e-06
1.78767e-05
-2.76963e-06
1.73064e-05
-3.09822e-06
1.61429e-05
-3.28262e-06
1.45345e-05
-3.33371e-06
1.26375e-05
-3.27268e-06
1.03427e-05
-3.08685e-06
7.55652e-06
-2.71914e-06
4.80057e-06
-2.20799e-06
2.54079e-06
-1.69053e-06
8.3603e-07
-1.23964e-06
-3.13185e-07
-8.67035e-07
-9.7853e-07
-5.76905e-07
-1.28496e-06
-3.63178e-07
-1.39803e-06
-2.14542e-07
-1.16495e-07
-1.48906e-06
-6.27281e-06
5.52099e-07
-1.14021e-05
1.5476e-06
-1.49065e-05
2.33688e-06
-1.66522e-05
2.90682e-06
-1.65308e-05
3.25894e-06
-1.46198e-05
3.37897e-06
-1.14012e-05
3.25522e-06
-7.47447e-06
2.91676e-06
-3.22665e-06
2.41054e-06
1.0394e-06
1.77108e-06
5.01836e-06
1.03923e-06
8.4805e-06
2.6354e-07
1.12631e-05
-5.10033e-07
1.32702e-05
-1.23757e-06
1.44715e-05
-1.88072e-06
1.48951e-05
-2.41038e-06
1.46184e-05
-2.80915e-06
1.37563e-05
-3.07262e-06
1.24502e-05
-3.20926e-06
1.08598e-05
-3.23979e-06
8.90876e-06
-3.1546e-06
6.37031e-06
-2.87965e-06
3.69514e-06
-2.41845e-06
1.4563e-06
-1.90369e-06
-2.57087e-07
-1.43426e-06
-1.44043e-06
-1.04021e-06
-2.17677e-06
-7.26496e-07
-2.59749e-06
-4.85636e-07
-2.87502e-06
-3.07497e-07
-1.77684e-07
-3.15489e-06
-6.88387e-06
5.94185e-07
-1.25763e-05
1.66766e-06
-1.65802e-05
2.52468e-06
-1.88184e-05
3.15237e-06
-1.9326e-05
3.55907e-06
-1.81268e-05
3.74962e-06
-1.54151e-05
3.71196e-06
-1.17606e-05
3.44637e-06
-7.66757e-06
2.98509e-06
-3.47249e-06
2.37002e-06
4.92206e-07
1.6526e-06
4.0049e-06
8.83162e-07
6.9018e-06
1.03556e-07
9.08079e-06
-6.4411e-07
1.05033e-05
-1.32213e-06
1.11869e-05
-1.90116e-06
1.11962e-05
-2.36225e-06
1.06335e-05
-2.69831e-06
9.62896e-06
-2.91398e-06
8.33438e-06
-3.0246e-06
6.68981e-06
-3.01134e-06
4.46759e-06
-2.81705e-06
2.00274e-06
-2.45792e-06
-1.71499e-07
-2.02519e-06
-1.89777e-06
-1.59068e-06
-3.14913e-06
-1.19533e-06
-4.00521e-06
-8.61916e-07
-4.60506e-06
-5.96529e-07
-5.11977e-06
-3.89566e-07
-2.2615e-07
-5.64589e-06
-7.5504e-06
6.37587e-07
-1.38605e-05
1.79184e-06
-1.84264e-05
2.71993e-06
-2.1173e-05
3.41044e-06
-2.21876e-05
3.87254e-06
-2.16226e-05
4.11801e-06
-1.95925e-05
4.1536e-06
-1.64257e-05
3.9783e-06
-1.26148e-05
3.60001e-06
-8.56739e-06
3.04364e-06
-4.6574e-06
2.3594e-06
-1.13949e-06
1.60906e-06
1.83161e-06
8.37718e-07
4.1462e-06
8.38545e-08
5.75933e-06
-6.15443e-07
6.67844e-06
-1.23113e-06
6.95524e-06
-1.7427e-06
6.67654e-06
-2.14029e-06
5.95454e-06
-2.42388e-06
4.9154e-06
-2.60116e-06
3.4789e-06
-2.64213e-06
1.54378e-06
-2.5042e-06
-5.9789e-07
-2.23312e-06
-2.58403e-06
-1.9125e-06
-4.27147e-06
-1.58115e-06
-5.60264e-06
-1.25139e-06
-6.61442e-06
-9.38656e-07
-7.43421e-06
-6.6072e-07
-8.21977e-06
-4.24498e-07
-2.27553e-07
-9.01328e-06
-8.27745e-06
6.82005e-07
-1.52646e-05
1.91928e-06
-2.04508e-05
2.92138e-06
-2.37721e-05
3.67856e-06
-2.53115e-05
4.20213e-06
-2.52635e-05
4.50384e-06
-2.38434e-05
4.59693e-06
-2.12747e-05
4.49283e-06
-1.79476e-05
4.20672e-06
-1.4227e-05
3.75139e-06
-1.04601e-05
3.1461e-06
-6.98579e-06
2.44022e-06
-3.98683e-06
1.69109e-06
-1.58271e-06
9.46431e-07
1.80279e-07
2.41874e-07
1.29999e-06
-3.95057e-07
1.81498e-06
-9.42023e-07
1.79534e-06
-1.38698e-06
1.33274e-06
-1.72603e-06
5.26706e-07
-1.96175e-06
-7.05698e-07
-2.06439e-06
-2.39338e-06
-1.99387e-06
-4.24392e-06
-1.79416e-06
-5.99654e-06
-1.55299e-06
-7.58152e-06
-1.31096e-06
-8.95869e-06
-1.07064e-06
-1.01394e-05
-8.3187e-07
-1.11991e-05
-5.9422e-07
-1.22588e-05
-3.59516e-07
-1.38805e-07
-1.33105e-05
-9.06932e-06
7.27032e-07
-1.67966e-05
2.04886e-06
-2.26655e-05
3.12727e-06
-2.66229e-05
3.95449e-06
-2.8757e-05
4.54421e-06
-2.92532e-05
4.91006e-06
-2.83661e-05
5.066e-06
-2.63541e-05
5.02646e-06
-2.35772e-05
4.81402e-06
-2.03359e-05
4.45234e-06
-1.68748e-05
3.95299e-06
-1.35464e-05
3.33826e-06
-1.0595e-05
2.65251e-06
-8.15431e-06
1.9421e-06
-6.29247e-06
1.24801e-06
-5.01701e-06
6.06582e-07
-4.30173e-06
4.16196e-08
-4.0934e-06
-4.34533e-07
-4.31951e-06
-8.15053e-07
-4.8992e-06
-1.09883e-06
-5.89024e-06
-1.25983e-06
-7.3139e-06
-1.2641e-06
-8.91464e-06
-1.14851e-06
-1.04719e-05
-9.8492e-07
-1.1948e-05
-8.05507e-07
-1.3336e-05
-6.21249e-07
-1.46599e-05
-4.40234e-07
-1.59549e-05
-2.57692e-07
-1.72979e-05
-6.49237e-08
1.30248e-07
-1.86213e-05
-9.93015e-06
7.72247e-07
-1.84648e-05
2.17937e-06
-2.50821e-05
3.33575e-06
-2.97409e-05
4.23582e-06
-3.25355e-05
4.89584e-06
-3.36528e-05
5.33138e-06
-3.33428e-05
5.55788e-06
-3.18865e-05
5.59177e-06
-2.96262e-05
5.45329e-06
-2.68683e-05
5.16772e-06
-2.38245e-05
4.75742e-06
-2.07892e-05
4.24599e-06
-1.79989e-05
3.66206e-06
-1.56079e-05
3.03319e-06
-1.37181e-05
2.38942e-06
-1.23385e-05
1.76711e-06
-1.14678e-05
1.2018e-06
-1.10675e-05
7.12302e-07
-1.10832e-05
3.06001e-07
-1.14498e-05
-1.26789e-08
-1.21987e-05
-2.23074e-07
-1.3346e-05
-2.99054e-07
-1.46965e-05
-2.66864e-07
-1.60785e-05
-1.79885e-07
-1.74618e-05
-6.36148e-08
-1.88462e-05
7.35412e-08
-2.02587e-05
2.25757e-07
-2.17399e-05
3.88227e-07
-2.33455e-05
5.59128e-07
7.36418e-07
-2.49323e-05
-1.08639e-05
8.17112e-07
-2.0277e-05
2.30928e-06
-2.77121e-05
3.54438e-06
-3.31413e-05
4.51929e-06
-3.66655e-05
5.25289e-06
-3.84734e-05
5.76279e-06
-3.88137e-05
6.06594e-06
-3.79712e-05
6.17992e-06
-3.62588e-05
6.12462e-06
-3.39796e-05
5.92256e-06
-3.13772e-05
5.59658e-06
-2.87105e-05
5.17471e-06
-2.61785e-05
4.68717e-06
-2.39497e-05
4.16161e-06
-2.21279e-05
3.61527e-06
-2.07179e-05
3.05953e-06
-1.97445e-05
2.5232e-06
-1.91982e-05
2.03892e-06
-1.90411e-05
1.62512e-06
-1.92225e-05
1.28838e-06
-1.97504e-05
1.04237e-06
-2.06346e-05
9.04548e-07
-2.17475e-05
8.60638e-07
-2.29641e-05
8.78166e-07
-2.42604e-05