/*--------------------------------*- C++ -*----------------------------------*\
| =========                 |                                                 |
| \\      /  F ield         | OpenFOAM: The Open Source CFD Toolbox           |
|  \\    /   O peration     | Version:  dev                                   |
|   \\  /    A nd           | Web:      www.OpenFOAM.org                      |
|    \\/     M anipulation  |                                                 |
\*---------------------------------------------------------------------------*/
FoamFile
{
    version     2.0;
    format      ascii;
    class       surfaceScalarField;
    location    "5";
    object      phi;
}
// * * * * * * * * * * * * * * * * * * * * * * * * * * * * * * * * * * * * * //

dimensions      [0 3 -1 0 0 0 0];

internalField   nonuniform List<scalar> 
879
(
0.207069
0.0115757
0.0149494
0.212107
0.0121421
0.211421
0.0156319
0.0186985
0.217274
0.0126855
0.216621
0.0162803
0.215884
0.019438
0.0225781
0.22257
0.0132016
0.221956
0.0168885
0.22127
0.0201253
0.220509
0.0233486
0.0266215
0.227998
0.013685
0.22743
0.0174496
0.226803
0.0207528
0.226116
0.0240443
0.225365
0.027389
0.0308332
0.233562
0.0141302
0.233047
0.0179568
0.232488
0.0213114
0.231885
0.0246556
0.231228
0.028061
0.230511
0.0315712
0.0351925
0.239266
0.014531
0.238811
0.0184021
0.238329
0.0217929
0.237814
0.0251776
0.237261
0.0286283
0.236674
0.0321781
0.236054
0.0358374
0.2354
0.0396335
0.0435951
0.245113
0.014881
0.244728
0.0187759
0.244327
0.0221916
0.243903
0.0256071
0.243467
0.0290777
0.243025
0.0326399
0.242568
0.036318
0.2421
0.0401282
0.24163
0.0440931
0.0482443
0.251105
0.0151751
0.250794
0.0190739
0.250482
0.0224996
0.250169
0.025925
0.249863
0.0293953
0.249564
0.0329569
0.249276
0.0366287
0.249004
0.0404264
0.248752
0.0443724
0.248553
0.0484709
0.248427
0.0527545
0.05724
0.257244
0.015409
0.25701
0.019294
0.256799
0.0227046
0.256613
0.0261134
0.256444
0.0295744
0.256293
0.0331247
0.25618
0.0367629
0.256111
0.0405206
0.256097
0.0444137
0.256164
0.0484309
0.25633
0.0526139
0.256632
0.0569617
0.257116
0.0614684
0.0661394
0.263537
0.0155763
0.263388
0.0194268
0.263287
0.0227975
0.26323
0.0261712
0.263201
0.0296112
0.263211
0.0331289
0.263282
0.0367122
0.263421
0.0404044
0.263651
0.0442096
0.263989
0.0481188
0.264465
0.0521631
0.265119
0.0563313
0.265991
0.0606179
0.267131
0.0650168
0.0695003
0.269989
0.015669
0.269935
0.0194616
0.269947
0.0227744
0.270015
0.0261016
0.27013
0.029502
0.270313
0.0329586
0.270578
0.0364646
0.270941
0.0400626
0.271424
0.0437509
0.272043
0.0475244
0.272833
0.051397
0.273827
0.0553607
0.27506
0.0594053
0.276582
0.0635132
0.27844
0.0676571
0.280689
0.071805
0.0759157
0.276602
0.0156789
0.27665
0.0193923
0.276775
0.0226354
0.27697
0.0259026
0.277241
0.0292336
0.277608
0.0326016
0.278079
0.0360083
0.278674
0.0394864
0.27941
0.0430364
0.280305
0.046652
0.281391
0.0503339
0.2827
0.0540742
0.284267
0.0578578
0.286136
0.0616627
0.288347
0.0654601
0.290949
0.0692152
0.293987
0.0728858
0.297507
0.0764233
0.0797832
0.283381
0.0155987
0.283531
0.0192168
0.283772
0.0223783
0.284105
0.025562
0.284546
0.028793
0.285102
0.0320518
0.28578
0.0353418
0.2866
0.038683
0.287579
0.042076
0.288739
0.0455127
0.290106
0.0489871
0.291712
0.0524888
0.293589
0.0559998
0.295772
0.0594964
0.298298
0.0629492
0.301202
0.0663227
0.304522
0.0695752
0.30828
0.0726715
0.312493
0.075575
0.317177
0.0782125
0.0805116
0.290326
0.0154237
0.290583
0.0189311
0.290948
0.0219941
0.291428
0.0250704
0.292037
0.0281807
0.29278
0.0313128
0.293662
0.034468
0.294702
0.037656
0.295919
0.0408751
0.297333
0.0441164
0.298968
0.0473704
0.300851
0.0506235
0.303012
0.0538568
0.305478
0.0570459
0.308278
0.0601627
0.311441
0.0631714
0.314985
0.0660396
0.318922
0.0687412
0.323278
0.0712244
0.328065
0.0734276
0.29744
0.0151503
0.29781
0.0185291
0.298305
0.0214759
0.298935
0.0244256
0.299711
0.0273978
0.300638
0.030386
0.301721
0.0333894
0.302977
0.0364096
0.304423
0.0394411
0.30608
0.0424744
0.307966
0.045499
0.310107
0.0484984
0.312524
0.0514543
0.315243
0.0543409
0.318283
0.0571355
0.321655
0.0598091
0.325379
0.0623244
0.329472
0.0646549
0.333944
0.0667565
0.0685911
0.304728
0.0147748
0.305215
0.018006
0.305844
0.0208196
0.306625
0.0236261
0.307567
0.026445
0.308675
0.0292735
0.309955
0.0321101
0.31142
0.0349498
0.313087
0.0377828
0.314973
0.0405989
0.317095
0.0433891
0.319473
0.0461329
0.322124
0.0488157
0.325059
0.0514173
0.328299
0.0539058
0.331856
0.0562608
0.335739
0.058449
0.339958
0.0604416
0.344504
0.0622139
0.0637375
0.312193
0.0142939
0.3128
0.0173586
0.313566
0.0200229
0.314498
0.0226716
0.315604
0.0253232
0.316891
0.0279782
0.318363
0.0306345
0.32003
0.0332839
0.321907
0.0359106
0.324012
0.0385004
0.326355
0.0410539
0.328944
0.0435532
0.331798
0.0459709
0.334929
0.0482942
0.338348
0.0504945
0.342067
0.052549
0.346081
0.0544399
0.350387
0.0561396
0.354977
0.0576267
0.0588837
0.319838
0.0137051
0.320568
0.0165843
0.321472
0.0190836
0.322556
0.0215614
0.323825
0.0240345
0.325286
0.0265042
0.326946
0.0289657
0.328812
0.0314152
0.330886
0.0338359
0.333188
0.0362013
0.335731
0.0385145
0.338518
0.0407712
0.341559
0.0429356
0.344868
0.0449897
0.348447
0.0469209
0.352293
0.0487069
0.356406
0.0503296
0.360778
0.0517695
0.365396
0.0530098
0.0540397
0.327667
0.0130067
0.328523
0.0156804
0.329569
0.0179981
0.330807
0.020292
0.332237
0.0225807
0.333861
0.0248617
0.335695
0.0271189
0.337748
0.0293541
0.340018
0.0315616
0.342507
0.0337099
0.345231
0.03579
0.348201
0.0378015
0.351416
0.0397216
0.354878
0.0415296
0.358588
0.0432114
0.362544
0.0447514
0.366739
0.0461344
0.371162
0.0473456
0.375798
0.0483729
0.0492101
0.335685
0.0121967
0.336667
0.014646
0.337855
0.0167668
0.339244
0.0188673
0.34083
0.0209652
0.342618
0.0230507
0.344619
0.0251009
0.346844
0.0271163
0.349295
0.0290998
0.351969
0.0310288
0.354868
0.0328864
0.358
0.034665
0.361368
0.0363504
0.364968
0.0379262
0.368798
0.039379
0.37285
0.0406962
0.377115
0.0418656
0.38158
0.0428767
0.386227
0.0437208
0.0443953
0.343898
0.0112715
0.345006
0.0134823
0.346328
0.0153963
0.347859
0.0172952
0.349601
0.0191904
0.351557
0.0210671
0.353728
0.0229065
0.35612
0.0247065
0.358737
0.0264677
0.361579
0.0281749
0.364643
0.0298122
0.36793
0.0313686
0.37144
0.0328328
0.375166
0.0341919
0.379103
0.0354345
0.383242
0.0365504
0.387569
0.0375305
0.392071
0.0383669
0.396729
0.0390539
0.0395916
0.352308
0.0102303
0.35354
0.01219
0.354994
0.0138889
0.356669
0.0155758
0.358564
0.0172565
0.360682
0.0189165
0.36302
0.0205413
0.365577
0.0221261
0.368356
0.0236682
0.371357
0.0251567
0.374575
0.0265782
0.378008
0.0279217
0.38165
0.0291773
0.385495
0.0303348
0.389533
0.0313848
0.393752
0.0323192
0.398139
0.0331313
0.402678
0.0338155
0.407351
0.0343683
0.0347915
0.360918
0.00907387
0.362275
0.0107682
0.363865
0.012242
0.365683
0.0137076
0.367731
0.0151661
0.370005
0.0166045
0.372502
0.0180111
0.37522
0.0193797
0.378158
0.0207054
0.381312
0.0219793
0.384679
0.0231908
0.388251
0.0243303
0.392021
0.0253889
0.39598
0.0263586
0.400115
0.0272319
0.404415
0.0280026
0.408864
0.0286656
0.413445
0.0292173
0.418141
0.0296555
0.0299832
0.369735
0.00780057
0.37122
0.00921459
0.372947
0.0104539
0.37491
0.0116911
0.377106
0.0129219
0.379534
0.0141345
0.382187
0.0153196
0.385063
0.0164707
0.388156
0.0175819
0.391461
0.0186455
0.394973
0.019653
0.398682
0.0205965
0.402579
0.0214687
0.406652
0.022263
0.410888
0.0229737
0.415272
0.023596
0.41979
0.0241263
0.424423
0.0245623
0.429153
0.0249029
0.0251516
0.378767
0.00640663
0.380385
0.00752467
0.38225
0.0085232
0.384356
0.00952723
0.3867
0.0105256
0.389278
0.0115088
0.392086
0.0124695
0.395116
0.0134017
0.398363
0.0142993
0.40182
0.0151557
0.405477
0.0159644
0.409325
0.0167188
0.413351
0.0174133
0.417544
0.0180427
0.421887
0.0186027
0.426366
0.0190897
0.430964
0.0195012
0.435663
0.0198359
0.440446
0.0200933
0.0202768
0.388024
0.00488311
0.389782
0.00569097
0.391788
0.00644761
0.394038
0.00721481
0.396531
0.00797647
0.399262
0.00872682
0.402223
0.00946079
0.405409
0.0101726
0.408811
0.0108568
0.41242
0.0115082
0.416226
0.0121217
0.420218
0.0126924
0.424381
0.0132161
0.428702
0.0136888
0.433164
0.0141075
0.437752
0.0144696
0.442447
0.0147736
0.447232
0.0150186
0.452088
0.0152046
0.0153344
0.397528
0.00320443
0.399428
0.00371095
0.401572
0.00423174
0.403964
0.00475624
0.406605
0.00527529
0.409488
0.0057886
0.412605
0.00629219
0.415949
0.00678092
0.41951
0.00725041
0.423279
0.00769688
0.427243
0.00811679
0.431389
0.00850685
0.435702
0.00886406
0.440167
0.00918586
0.444766
0.00947017
0.449483
0.00971539
0.454298
0.00992049
0.459194
0.010085
0.464152
0.010209
0.0102948
0.407357
0.001271
0.4094
0.00158559
0.41168
0.00187673
0.414214
0.00215299
0.416998
0.00242655
0.420029
0.00269936
0.423298
0.00296811
0.426798
0.00322933
0.430518
0.00348045
0.434449
0.00371938
0.438576
0.00394424
0.442886
0.00415328
0.447362
0.0043449
0.451987
0.00451779
0.456744
0.00467084
0.461614
0.00480326
0.466578
0.00491454
0.471616
0.00500446
0.476709
0.00507313
0.00512169
0.416501
0.418002
0.419801
0.421882
0.424242
0.426879
0.42979
0.432964
0.436393
0.440062
0.443958
0.448064
0.452363
0.456834
0.461459
0.466217
0.471085
0.476044
0.481071
)
;

boundaryField
{
    inlet
    {
        type            calculated;
        value           nonuniform List<scalar> 
30
(
-0.20766
-0.212683
-0.217828
-0.223097
-0.228493
-0.23402
-0.239681
-0.245479
-0.251417
-0.257499
-0.263728
-0.270107
-0.276641
-0.283333
-0.290186
-0.297206
-0.304395
-0.311758
-0.3193
-0.327023
-0.334934
-0.343036
-0.351334
-0.359832
-0.368536
-0.377451
-0.386582
-0.395933
-0.40551
-0.415319
)
;
    }
    outlet
    {
        type            calculated;
        value           nonuniform 0();
    }
    flap
    {
        type            calculated;
        value           nonuniform 0();
    }
    upperWall
    {
        type            calculated;
        value           nonuniform List<scalar> 
20
(
0
0
0
0
0
0
0
0
0
0
0
0
0
9.53516e-15
0
0
0
0
4.13209e-15
0
)
;
    }
    lowerWall
    {
        type            calculated;
        value           nonuniform 0();
    }
    frontAndBack
    {
        type            empty;
        value           nonuniform 0();
    }
    procBoundary0to1
    {
        type            processor;
        value           nonuniform List<scalar> 
18
(
0.322347
0.333263
0.0753152
0.338784
0.349361
0.359834
0.370241
0.380626
0.391038
0.401526
0.41214
0.422933
0.433964
0.445295
0.457
0.469156
0.481841
0.486148
)
;
    }
    procBoundary0to3
    {
        type            processor;
        value           nonuniform List<scalar> 
34
(
-0.0109929
-0.0142398
0.206357
-0.0179131
0.21064
-0.0217433
0.21506
-0.0257625
0.219668
-0.0299825
0.224536
-0.0343968
0.229741
-0.0389528
-0.0428941
0.234728
-0.0477591
0.241172
-0.0526034
-0.0571811
0.248391
-0.0619327
-0.0668409
0.257832
-0.0709505
0.268593
-0.074044
-0.0786102
0.28339
-0.0799379
-0.08381
0.301536
-0.082896
-0.0856816
)
;
    }
}


// ************************************************************************* //
