/*--------------------------------*- C++ -*----------------------------------*\
| =========                 |                                                 |
| \\      /  F ield         | OpenFOAM: The Open Source CFD Toolbox           |
|  \\    /   O peration     | Version:  dev                                   |
|   \\  /    A nd           | Web:      www.OpenFOAM.org                      |
|    \\/     M anipulation  |                                                 |
\*---------------------------------------------------------------------------*/
FoamFile
{
    version     2.0;
    format      ascii;
    class       volVectorField;
    location    "5";
    object      U;
}
// * * * * * * * * * * * * * * * * * * * * * * * * * * * * * * * * * * * * * //

dimensions      [0 1 -1 0 0 0 0];

internalField   nonuniform List<vector> 
465
(
(9.99252 3.71989e-19 0.0936523)
(9.98422 1.67351e-21 0.182057)
(9.99279 -2.25142e-20 0.0970304)
(9.98563 -2.16051e-20 0.188612)
(9.97232 7.26327e-19 0.280022)
(9.99309 0 0.100103)
(9.98714 7.22974e-19 0.194565)
(9.9759 -7.51157e-19 0.288798)
(9.95804 -9.75875e-20 0.38552)
(9.99341 3.16654e-19 0.102821)
(9.98875 -2.37372e-20 0.199827)
(9.97973 4.74318e-20 0.29652)
(9.96484 -2.82048e-19 0.395701)
(9.94604 -1.00073e-19 0.498961)
(9.99372 -1.75722e-21 0.105144)
(9.99041 -7.2173e-19 0.204326)
(9.98367 3.97667e-19 0.303101)
(9.97178 3.66726e-19 0.404325)
(9.95684 -5.67764e-19 0.509661)
(9.9396 1.96787e-19 0.620498)
(9.99402 -3.19095e-19 0.107042)
(9.99209 6.58163e-19 0.208002)
(9.98768 8.54225e-20 0.308447)
(9.97894 -8.84499e-20 0.411269)
(9.96791 3.67494e-19 0.518209)
(9.95523 -1.89363e-19 0.63068)
(9.94154 -2.74074e-22 0.749739)
(9.9943 0 0.108482)
(9.99382 -3.1974e-19 0.210788)
(9.99179 -8.2705e-20 0.312456)
(9.9862 3.41396e-19 0.416424)
(9.97897 8.85273e-20 0.524502)
(9.97092 0 0.638061)
(9.96295 0 0.757994)
(9.95541 0 0.885078)
(9.94868 -4.0047e-19 1.02049)
(9.99454 5.95673e-19 0.109429)
(9.99563 -3.07836e-19 0.212598)
(9.99609 0 0.315078)
(9.9934 -4.1546e-19 0.419775)
(9.98977 2.56943e-19 0.528429)
(9.98652 -1.76662e-19 0.642396)
(9.98439 0 0.762601)
(9.98322 0 0.889668)
(9.98331 3.81312e-19 1.02459)
(9.98607 -3.92577e-19 1.1686)
(9.99478 -5.80616e-19 0.109857)
(9.99739 2.99996e-19 0.213352)
(10.0004 3.08933e-19 0.316236)
(10.0007 8.01778e-20 0.421276)
(10.0008 -8.27958e-20 0.529918)
(10.0021 0 0.643574)
(10.0053 -3.49927e-19 0.763402)
(10.0105 0 0.889905)
(10.0173 -3.71874e-19 1.02373)
(10.0275 -5.64846e-19 1.166)
(10.042 5.77526e-19 1.31737)
(10.0612 -3.92028e-19 1.47818)
(9.99513 1.75191e-20 0.109766)
(9.99898 -3.06747e-19 0.213066)
(10.0042 -3.76009e-19 0.315812)
(10.008 7.75713e-20 0.420668)
(10.0123 0 0.528844)
(10.0176 0 0.6417)
(10.0257 6.78384e-19 0.760468)
(10.037 0 0.885675)
(10.0504 0 1.01775)
(10.0678 3.66616e-19 1.15755)
(10.0902 -7.44375e-19 1.30571)
(10.1178 7.58025e-19 1.46257)
(10.1519 3.83889e-19 1.6285)
(10.1934 -3.83409e-21 1.80367)
(9.99551 1.69691e-20 0.109152)
(10.0005 2.63819e-19 0.211767)
(10.0079 0 0.313734)
(10.0151 2.99055e-19 0.417753)
(10.0234 0 0.525069)
(10.0328 -4.76597e-19 0.636784)
(10.0457 -1.65021e-19 0.753861)
(10.0625 0 0.87698)
(10.0822 1.71603e-19 1.00658)
(10.1066 1.73519e-19 1.14322)
(10.1363 7.16232e-19 1.28745)
(10.1717 -3.66603e-19 1.43958)
(10.2141 0 1.59977)
(10.2642 -3.77345e-19 1.76805)
(10.3232 0 1.94427)
(9.99583 5.07917e-19 0.107987)
(10.0022 1.69742e-20 0.209381)
(10.0118 -3.51145e-20 0.309981)
(10.022 -2.55089e-19 0.412615)
(10.0336 3.729e-19 0.51861)
(10.0472 7.83206e-20 0.628696)
(10.0649 1.582e-19 0.743494)
(10.0869 0 0.863853)
(10.1126 0 0.990291)
(10.1433 -3.5682e-21 1.12311)
(10.1797 -3.88804e-21 1.26272)
(10.2223 0 1.40938)
(10.2721 0 1.5631)
(10.3299 0 1.72374)
(10.3968 0 1.89103)
(10.4735 -3.69274e-19 2.06456)
(10.5613 0 2.24373)
(9.99619 -3.44684e-21 0.106237)
(10.0038 0 0.205838)
(10.0156 -3.05066e-19 0.304589)
(10.0284 2.44799e-19 0.405426)
(10.0429 -2.18085e-19 0.509545)
(10.0607 7.42773e-20 0.617338)
(10.0831 -7.63993e-20 0.729294)
(10.1098 0 0.846332)
(10.141 -3.18005e-19 0.968957)
(10.1776 -3.2777e-19 1.09731)
(10.2202 -6.64048e-19 1.23167)
(10.2693 3.35421e-19 1.37221)
(10.3258 0 1.51882)
(10.3904 0 1.67126)
(10.4639 1.73798e-19 1.82913)
(10.5471 -1.77131e-19 1.99191)
(10.6408 8.78368e-20 2.15889)
(10.7456 -4.47392e-19 2.32915)
(10.8624 -4.02084e-19 2.50154)
(9.99659 -5.03242e-19 0.10388)
(10.0053 5.31485e-19 0.201186)
(10.0189 4.77334e-19 0.297671)
(10.034 -2.38755e-19 0.396238)
(10.0516 6.98651e-20 0.49784)
(10.0733 -7.19502e-20 0.602688)
(10.0999 7.35748e-20 0.711278)
(10.1312 -2.88077e-22 0.824465)
(10.1675 2.32583e-19 0.94267)
(10.2095 3.12757e-19 1.06597)
(10.2577 3.21722e-19 1.19452)
(10.3126 -3.77698e-21 1.32838)
(10.375 0 1.46736)
(10.4455 0 1.61116)
(10.5246 -8.36112e-20 1.7593)
(10.6131 -1.67315e-19 1.91118)
(10.7114 -1.25469e-21 2.066)
(10.8201 2.53369e-19 2.22281)
(10.9397 0 2.38059)
(11.0703 3.02192e-19 2.53804)
(11.2121 1.28082e-19 2.69368)
(9.99693 0 0.100936)
(10.0067 -3.4119e-21 0.19552)
(10.0219 -1.81337e-21 0.289311)
(10.039 0 0.385016)
(10.0596 0 0.483424)
(10.0851 -2.07443e-19 0.584755)
(10.1156 -7.13268e-20 0.689495)
(10.1511 7.26732e-20 0.798321)
(10.192 1.47408e-19 0.911563)
(10.2389 7.29357e-20 1.02928)
(10.2921 -3.06874e-19 1.15153)
(10.3522 -3.15053e-19 1.27825)
(10.4197 3.15621e-19 1.40922)
(10.4951 0 1.54407)
(10.5789 -3.22157e-19 1.68229)
(10.6716 3.28898e-19 1.82324)
(10.7735 0 1.96608)
(10.8849 -1.88708e-19 2.10989)
(11.006 2.08141e-20 2.25371)
(11.1371 -1.6391e-19 2.39643)
(11.2778 -1.65751e-19 2.53667)
(9.99716 -4.62407e-19 0.0974436)
(10.0079 -4.79797e-19 0.18886)
(10.0247 -2.47809e-19 0.279474)
(10.0439 0 0.371726)
(10.0673 0 0.466344)
(10.096 5.03998e-19 0.563633)
(10.1301 3.44764e-20 0.664034)
(10.1695 -2.80274e-19 0.768021)
(10.2146 -2.88681e-19 0.875827)
(10.2658 -2.89883e-21 0.987503)
(10.3235 2.99235e-19 1.10303)
(10.388 -3.00527e-19 1.22225)
(10.4598 -3.07937e-19 1.34492)
(10.5394 3.84763e-20 1.47064)
(10.6269 5.86007e-19 1.59885)
(10.7228 0 1.72892)
(10.8274 3.92838e-20 1.86009)
(10.9405 -1.20955e-19 1.99146)
(11.0621 8.03974e-20 2.12209)
(11.1926 2.78326e-21 2.251)
(9.99733 4.51461e-19 0.0934306)
(10.009 0 0.18119)
(10.0273 0 0.268116)
(10.0486 -2.45573e-19 0.356391)
(10.0745 0 0.44671)
(10.1061 -2.61014e-19 0.539462)
(10.1434 0 0.63504)
(10.1863 2.73275e-19 0.733736)
(10.2352 0 0.835681)
(10.2902 -2.84057e-19 0.940916)
(10.3517 -3.57655e-20 1.04937)
(10.4201 3.29809e-19 1.16082)
(10.4955 0 1.27498)
(10.5784 2.97155e-19 1.39146)
(10.6689 -4.53463e-19 1.5097)
(10.7671 0 1.62908)
(10.8733 -7.58542e-20 1.74893)
(10.9872 -7.71807e-20 1.86844)
(11.1088 -1.53198e-19 1.98666)
(11.238 0 2.1027)
(9.99745 -3.40827e-21 0.0889052)
(10.01 3.51262e-21 0.172505)
(10.0298 -3.61763e-21 0.255249)
(10.053 2.43315e-19 0.339072)
(10.0811 0 0.424626)
(10.1153 -3.92186e-21 0.512366)
(10.1555 4.03233e-21 0.602671)
(10.2016 8.19534e-21 0.695666)
(10.2537 -8.40899e-21 0.791352)
(10.3121 0 0.889785)
(10.377 -2.76315e-19 0.990892)
(10.4485 0 1.09438)
(10.5269 3.19364e-19 1.19991)
(10.6124 -3.62265e-19 1.30713)
(10.705 1.83144e-19 1.41553)
(10.8048 -1.46072e-19 1.52453)
(10.9117 1.47022e-19 1.63348)
(11.0257 -2.94994e-19 1.74164)
(11.1466 3.00284e-19 1.84815)
(11.274 1.48596e-19 1.95222)
(9.99752 4.28941e-19 0.0838777)
(10.0109 2.10473e-19 0.16282)
(10.0321 0 0.240903)
(10.0571 -2.30557e-19 0.319838)
(10.0873 1.48199e-20 0.400191)
(10.1236 -1.52533e-20 0.482463)
(10.1664 1.55306e-20 0.567067)
(10.2154 -3.1805e-20 0.654004)
(10.2703 1.62679e-20 0.743113)
(10.3315 1.64363e-20 0.834421)
(10.3992 2.52794e-19 0.927923)
(10.4734 0 1.02334)
(10.554 -2.77162e-19 1.12026)
(10.6414 1.38772e-19 1.21832)
(10.7354 6.99229e-20 1.31706)
(10.8361 2.12219e-19 1.41597)
(10.9433 -2.87761e-19 1.51443)
(11.0568 1.43972e-19 1.61175)
(11.1764 -1.45566e-19 1.70722)
(11.3018 -1.45458e-19 1.80017)
(9.99755 -8.22805e-19 0.0783668)
(10.0117 -1.3183e-21 0.152139)
(10.0342 2.17344e-19 0.225077)
(10.0609 4.76578e-19 0.298725)
(10.093 -2.88318e-20 0.37355)
(10.1312 2.94133e-20 0.449975)
(10.176 -2.70685e-19 0.528408)
(10.2275 0 0.608888)
(10.2849 3.12615e-20 0.691201)
(10.3484 -3.18323e-19 0.775237)
(10.4182 -3.19969e-20 0.860964)
(10.4944 6.61375e-20 0.948192)
(10.5768 -1.32771e-19 1.03654)
(10.6656 -1.35541e-19 1.12556)
(10.7605 -3.26494e-22 1.21485)
(10.8615 -2.75095e-19 1.30394)
(10.9685 0 1.39229)
(11.0812 2.78477e-19 1.4793)
(11.1992 -1.39232e-19 1.56438)
(11.3222 -2.77859e-19 1.64698)
(9.99758 4.1333e-19 0.0723946)
(10.0124 1.15789e-20 0.140485)
(10.0361 -4.49677e-19 0.207773)
(10.0644 -2.45386e-19 0.275738)
(10.0982 1.16539e-22 0.344807)
(10.138 2.86444e-20 0.415175)
(10.1845 2.34619e-19 0.487059)
(10.2378 2.37773e-19 0.560644)
(10.2972 2.4224e-19 0.635879)
(10.3627 4.33115e-19 0.712543)
(10.4343 -6.30899e-20 0.790446)
(10.512 0 0.869416)
(10.5957 1.29897e-19 0.949147)
(10.6853 1.59309e-21 1.02923)
(10.7807 2.65205e-19 1.10928)
(10.8818 2.66162e-19 1.18886)
(10.9882 1.32981e-19 1.26751)
(11.0996 -2.71465e-19 1.34474)
(11.2158 1.36187e-19 1.42005)
(11.3363 2.69629e-19 1.49297)
(9.99766 1.93716e-19 0.0659679)
(10.0131 -3.99176e-19 0.127934)
(10.0377 1.17065e-21 0.189147)
(10.0671 -2.10518e-19 0.251038)
(10.1023 -5.4006e-20 0.31402)
(10.1438 2.76614e-19 0.378087)
(10.192 5.64637e-20 0.443225)
(10.2467 -5.20528e-19 0.509662)
(10.3077 -1.77782e-19 0.577517)
(10.3747 -2.40179e-19 0.646578)
(10.4477 -1.82194e-19 0.716567)
(10.5265 1.24039e-19 0.787273)
(10.6111 -1.25539e-19 0.858433)
(10.7013 0 0.929706)
(10.7968 0 1.00073)
(10.8975 -1.29474e-19 1.07113)
(11.003 3.87281e-19 1.14051)
(11.113 -2.63649e-19 1.20844)
(11.2272 -1.31075e-19 1.27452)
(11.3451 -1.31682e-19 1.33838)
(9.99776 -1.89397e-19 0.0590825)
(10.0137 1.94511e-19 0.114558)
(10.039 2.00122e-19 0.169382)
(10.0693 2.0557e-19 0.224853)
(10.1056 0 0.281304)
(10.1486 -3.76712e-19 0.338671)
(10.1984 -5.51127e-20 0.396871)
(10.2545 2.24968e-19 0.456065)
(10.3167 5.68529e-20 0.516371)
(10.3848 -5.73593e-20 0.577637)
(10.4588 1.18498e-19 0.639606)
(10.5384 -1.18968e-19 0.70205)
(10.6235 1.21843e-19 0.764723)
(10.7139 -1.22186e-19 0.827332)
(10.8092 -1.23014e-19 0.889558)
(10.9092 2.50471e-19 0.951072)
(11.0136 -2.5213e-19 1.01154)
(11.1221 1.26513e-19 1.07061)
(11.2342 2.55423e-19 1.12795)
(11.3495 1.9272e-19 1.18326)
(9.99783 -1.83422e-19 0.051749)
(10.0142 0 0.100376)
(10.0403 -4.84092e-20 0.148507)
(10.0715 4.98791e-20 0.197239)
(10.1087 5.08992e-20 0.246794)
(10.1529 2.09227e-19 0.297119)
(10.2038 2.39351e-22 0.348158)
(10.2609 -4.01541e-22 0.399986)
(10.3241 -5.57982e-20 0.452653)
(10.3931 -7.88392e-22 0.506044)
(10.4678 2.75542e-22 0.559948)
(10.5479 1.16308e-19 0.614151)
(10.6332 -1.18188e-19 0.668426)
(10.7234 2.37891e-19 0.722518)
(10.8183 -1.1982e-19 0.776156)
(10.9175 -1.21717e-19 0.829059)
(11.0207 1.22729e-19 0.880945)
(11.1275 -6.21832e-20 0.931534)
(11.2375 -1.24392e-19 0.980557)
(11.3503 -3.09627e-19 1.02777)
(9.9979 1.79367e-19 0.0439744)
(10.0147 0 0.0853809)
(10.0416 -2.35418e-19 0.126508)
(10.0735 -9.64239e-20 0.168217)
(10.1116 -4.92857e-20 0.210615)
(10.1566 -1.01715e-19 0.253654)
(10.2083 2.07269e-19 0.297298)
(10.2664 1.05412e-19 0.341564)
(10.3303 7.71537e-22 0.386453)
(10.3999 1.0928e-19 0.431868)
(10.475 -1.11376e-19 0.477643)
(10.5553 6.0492e-22 0.523593)
(10.6405 0 0.569517)
(10.7304 -1.16233e-19 0.615199)
(10.8247 1.15458e-19 0.660414)
(10.9229 -5.98282e-20 0.704927)
(11.0248 5.92472e-20 0.748508)
(11.1299 -2.9745e-19 0.790932)
(11.2379 3.02977e-19 0.831985)
(11.3484 -6.04566e-20 0.871477)
(9.99799 1.63232e-19 0.0357267)
(10.0153 -1.11311e-20 0.0695451)
(10.0429 2.07011e-19 0.103403)
(10.0755 4.73941e-20 0.137877)
(10.1143 1.93109e-19 0.172951)
(10.1599 -9.86158e-20 0.208565)
(10.2123 -1.00776e-19 0.244688)
(10.2708 -5.21703e-20 0.281303)
(10.3352 1.03423e-19 0.318373)
(10.4052 -1.07179e-19 0.355809)
(10.4805 0 0.393477)
(10.5608 1.0967e-19 0.431225)
(10.6458 0 0.468886)
(10.7352 1.68342e-19 0.506283)
(10.8287 -1.6908e-19 0.543234)
(10.9259 7.43664e-22 0.579552)
(11.0265 2.28809e-19 0.615056)
(11.13 -2.3436e-19 0.64957)
(11.2361 -5.86913e-20 0.68293)
(11.3443 -1.74566e-19 0.71499)
(9.99817 -1.80878e-19 0.0268931)
(10.0162 -9.78728e-20 0.0528097)
(10.0445 -2.22314e-20 0.0791567)
(10.0778 1.83249e-19 0.106083)
(10.1171 -4.70476e-20 0.133482)
(10.1632 9.58389e-20 0.16133)
(10.216 2.44746e-19 0.189615)
(10.2749 -2.52514e-22 0.218305)
(10.3396 -1.01811e-19 0.247347)
(10.4097 -1.03494e-19 0.276658)
(10.485 0 0.306133)
(10.5651 0 0.335647)
(10.6497 -1.0704e-19 0.365066)
(10.7385 5.50204e-20 0.39425)
(10.8312 5.51831e-20 0.423055)
(10.9273 5.57199e-20 0.451336)
(11.0265 -5.62087e-20 0.478953)
(11.1285 0 0.505773)
(11.2328 -2.82752e-19 0.531672)
(11.3391 2.31036e-19 0.556543)
(9.9986 8.28774e-20 0.0171301)
(10.0176 8.50564e-20 0.0352662)
(10.0466 4.35427e-20 0.0545096)
(10.0804 -4.48197e-20 0.074198)
(10.12 -4.56706e-20 0.0941283)
(10.1664 -9.35671e-20 0.11434)
(10.2195 -9.54852e-20 0.134847)
(10.2786 -4.86518e-20 0.155618)
(10.3434 0 0.176606)
(10.4134 -1.00188e-19 0.197753)
(10.4885 5.12521e-20 0.218986)
(10.5683 -5.16574e-20 0.24022)
(10.6525 -1.04112e-19 0.261363)
(10.7406 5.42513e-20 0.282317)
(10.8324 1.07796e-19 0.302981)
(10.9275 -1.34399e-19 0.323255)
(11.0255 1.58631e-21 0.343042)
(11.126 2.19935e-19 0.362249)
(11.2287 -1.66047e-19 0.380793)
(11.3332 8.45338e-20 0.398599)
(10 -1.31601e-19 0.00515338)
(10.0212 1.03721e-20 0.0143919)
(10.0512 -1.06215e-19 0.0256659)
(10.0852 -4.94221e-23 0.0374709)
(10.1248 -2.221e-20 0.0495162)
(10.1712 2.28234e-20 0.0618341)
(10.2242 2.32088e-20 0.0744106)
(10.2832 -2.36451e-20 0.0871906)
(10.3477 0 0.100119)
(10.4175 4.89732e-20 0.113146)
(10.4921 0 0.12622)
(10.5714 1.25597e-19 0.139281)
(10.6549 2.48765e-20 0.152271)
(10.7422 -1.54742e-19 0.165124)
(10.8331 2.64036e-20 0.177779)
(10.9271 1.3084e-19 0.190173)
(11.0239 -1.20189e-19 0.202248)
(11.1231 0 0.213947)
(11.2243 0 0.225222)
(11.3272 1.35907e-20 0.236028)
(9.98604 3.9554e-20 -0.000837415)
(9.99509 -5.04871e-21 0.00119521)
(10.0115 4.66944e-20 0.00446513)
(10.0315 0 0.00807184)
(10.0579 2.17495e-20 0.0118615)
(10.0918 1.10685e-20 0.0158402)
(10.133 -3.40404e-20 0.0199893)
(10.1808 1.16041e-20 0.024275)
(10.2348 1.17937e-20 0.0286677)
(10.2947 1.18759e-20 0.0331427)
(10.36 -1.21735e-20 0.0376763)
(10.4305 -2.45768e-20 0.0422437)
(10.5057 -2.48894e-20 0.0468193)
(10.5853 0 0.0513769)
(10.6689 5.07119e-20 0.0558902)
(10.7561 -5.13561e-20 0.0603338)
(10.8464 6.47748e-20 0.064683)
(10.9394 -2.63116e-20 0.0689148)
(11.0349 -2.60992e-20 0.0730081)
(11.1322 3.99367e-20 0.0769448)
)
;

boundaryField
{
    inlet
    {
        type            fixedValue;
        value           uniform (10 0 0);
    }
    outlet
    {
        type            zeroGradient;
    }
    flap
    {
        type            movingWallVelocity;
        value           nonuniform 0();
    }
    upperWall
    {
        type            noSlip;
    }
    lowerWall
    {
        type            noSlip;
    }
    frontAndBack
    {
        type            empty;
    }
    procBoundary0to1
    {
        type            processor;
        value           nonuniform List<vector> 
18
(
(11.3649 -2.56283e-19 2.84591)
(11.4278 1.62902e-19 2.67305)
(11.3315 -3.19254e-19 2.37702)
(11.3315 -3.19254e-19 2.37702)
(11.3744 -1.49775e-19 2.21562)
(11.4077 1.48706e-19 2.05311)
(11.4324 -1.3469e-21 1.88998)
(11.4497 -2.85101e-19 1.72657)
(11.4606 4.08769e-19 1.56308)
(11.4663 -6.60808e-20 1.39966)
(11.4677 6.46204e-20 1.23625)
(11.4656 -2.48121e-19 1.07296)
(11.461 0 0.909236)
(11.4544 5.49826e-20 0.745622)
(11.4469 -5.77048e-20 0.580291)
(11.4391 1.94274e-19 0.415603)
(11.4314 2.72981e-20 0.246331)
(11.2312 0 0.0807092)
)
;
    }
    procBoundary0to3
    {
        type            processor;
        value           nonuniform List<vector> 
34
(
(9.99226 3.86947e-19 0.0900244)
(9.98287 8.53174e-19 0.17499)
(9.9689 8.99092e-19 0.270294)
(9.9689 8.99092e-19 0.270294)
(9.9515 -1.00495e-19 0.37388)
(9.9515 -1.00495e-19 0.37388)
(9.93543 -3.01324e-19 0.486224)
(9.93543 -3.01324e-19 0.486224)
(9.92406 6.07588e-19 0.607658)
(9.92406 6.07588e-19 0.607658)
(9.92034 -9.29198e-22 0.738061)
(9.92034 -9.29198e-22 0.738061)
(9.92764 -4.02874e-19 0.876301)
(9.92764 -4.02874e-19 0.876301)
(9.91383 -2.07741e-19 1.01153)
(9.94376 -2.98367e-23 1.16543)
(9.94376 -2.98367e-23 1.16543)
(9.99216 -4.01983e-19 1.32234)
(9.99216 -4.01983e-19 1.32234)
(10.0023 9.70031e-22 1.48624)
(10.0862 -4.0007e-19 1.64898)
(10.0862 -4.0007e-19 1.64898)
(10.1182 4.07865e-19 1.83021)
(10.2436 0 1.98818)
(10.2436 0 1.98818)
(10.3924 0 2.12821)
(10.3924 0 2.12821)
(10.4729 5.76839e-19 2.3194)
(10.661 -3.66266e-19 2.42767)
(10.661 -3.66266e-19 2.42767)
(10.7736 -7.3848e-19 2.61525)
(10.9915 3.54487e-19 2.6747)
(10.9915 3.54487e-19 2.6747)
(11.1334 4.07554e-20 2.847)
)
;
    }
}


// ************************************************************************* //
