/*--------------------------------*- C++ -*----------------------------------*\
| =========                 |                                                 |
| \\      /  F ield         | OpenFOAM: The Open Source CFD Toolbox           |
|  \\    /   O peration     | Version:  dev                                   |
|   \\  /    A nd           | Web:      www.OpenFOAM.org                      |
|    \\/     M anipulation  |                                                 |
\*---------------------------------------------------------------------------*/
FoamFile
{
    version     2.0;
    format      ascii;
    class       volScalarField;
    location    "0.37";
    object      p;
}
// * * * * * * * * * * * * * * * * * * * * * * * * * * * * * * * * * * * * * //

dimensions      [0 2 -2 0 0 0 0];

internalField   nonuniform List<scalar> 
465
(
56.8791
53.3234
49.8155
45.4981
50.0566
46.4857
42.1982
37.1001
31.1048
47.0848
43.519
39.3305
34.4595
28.8587
22.504
15.4043
44.4036
40.8951
36.8528
32.2412
27.0379
21.2394
14.8674
7.96019
0.732378
42.0009
38.5874
34.721
30.3831
25.5671
20.2819
14.556
8.42936
2.07693
39.8597
36.5677
32.8944
28.8331
24.3873
19.5727
14.4197
8.96598
3.35243
37.9609
34.8073
31.3352
27.5455
23.4478
19.061
14.4144
9.54247
4.55879
36.2841
33.2786
30.0087
26.4803
22.7061
18.706
14.5073
10.1408
5.69822
34.8086
31.9553
28.8837
25.6028
22.1267
18.4751
14.6727
10.7466
6.77115
33.5144
30.8131
27.9326
24.8835
21.6804
18.3417
14.8898
11.3483
7.7775
34.7814
32.3828
29.8299
27.1309
24.2969
21.3422
18.284
15.1419
11.9368
8.71731
33.6786
31.3959
28.9858
26.4571
23.8211
21.0915
18.2839
15.4156
12.5047
9.59077
32.7078
30.5377
28.2629
25.8926
23.4377
20.911
18.3266
15.6998
13.0464
10.3983
31.8561
29.7936
27.6455
25.4211
23.1307
20.7861
18.4
15.9859
13.5574
11.1407
31.1116
29.1505
27.1199
25.0287
22.8867
20.7047
18.4942
16.2668
14.0346
11.8187
30.4637
28.5969
26.674
24.7035
22.6945
20.6569
18.6009
16.537
14.4754
12.4336
29.9033
28.123
26.2977
24.4354
22.5446
20.6344
18.7138
16.7921
14.8783
12.9867
29.4218
27.7198
25.9819
24.2157
22.429
20.6301
18.8271
17.0283
15.2416
13.4788
29.013
27.3808
25.7201
24.038
22.3418
20.6391
18.9373
17.2437
15.5654
13.9122
28.6701
27.0987
25.5048
23.895
22.2762
20.6554
19.0392
17.4343
15.847
14.2855
28.391
26.8714
25.3339
23.7849
22.2309
20.6782
19.1332
17.6017
16.0895
14.6036
28.1682
26.6909
25.1993
23.6995
22.1975
20.6995
19.2111
17.738
16.2853
14.8589
28.007
26.5625
25.1063
23.6443
22.1823
20.726
19.281
17.8524
16.4453
15.0647
27.8956
26.4734
25.0412
23.6046
22.1695
20.7411
19.325
17.9259
16.5487
15.1977
27.8523
26.4427
25.024
23.6016
22.1812
20.7681
19.3675
17.9841
16.6226
15.2868
-6.14843
-3.94572
-8.1204
-11.7109
-1.94784
-5.61943
-8.76214
-0.125387
-3.36728
-6.13063
1.54298
-1.32998
-3.77065
3.07205
0.517311
-1.64751
4.47325
2.194
0.265994
5.75571
3.71551
1.99138
6.9269
5.09435
3.54604
7.9932
6.34103
4.94446
8.96019
7.46457
6.19896
9.83304
8.47303
7.3203
10.6162
9.37331
8.31767
11.3142
10.1721
9.1996
11.9301
10.874
9.97245
12.4686
11.4854
10.6437
12.9294
12.007
11.2154
13.32
12.4474
11.6964
13.6316
12.7987
12.0805
13.8818
13.0787
12.3841
14.0433
13.261
12.5836
14.1555
13.3895
12.7211
-16.2508
-12.7055
-17.761
-23.9762
-30.6719
-9.58054
-13.993
-19.4398
-25.3466
-31.2491
-37.0537
-6.80732
-10.6799
-15.4626
-20.6665
-25.8826
-31.0223
-36.0835
-41.026
-4.33512
-7.75278
-11.9666
-16.5579
-21.1667
-25.7116
-30.1893
-34.5644
-38.7703
-2.1251
-5.15778
-8.88559
-12.9482
-17.0288
-21.0534
-25.0189
-28.8951
-32.624
-0.146837
-2.85279
-6.16556
-9.7739
-13.3986
-16.9731
-20.495
-23.9389
-27.2549
1.62405
-0.80396
-3.76218
-6.98086
-10.2138
-13.4011
-16.5412
-19.6132
-22.5743
3.20768
1.01648
-1.63877
-4.5236
-7.4205
-10.2758
-13.0886
-15.8418
-18.4989
4.62095
2.63175
0.235332
-2.36375
-4.97298
-7.54421
-10.0771
-12.5577
-14.9548
5.87838
4.06153
1.88609
-0.468763
-2.83216
-5.16082
-7.45486
-9.70281
-11.8782
6.99233
5.32241
3.33536
1.1888
-0.965006
-3.08705
-5.17778
-7.22781
-9.21435
7.97376
6.42886
4.60193
2.63245
0.656731
-1.28994
-3.2082
-5.09038
-6.91678
8.8313
7.39234
5.70088
3.88117
2.05598
0.257414
-1.51532
-3.25588
-4.94714
9.57372
8.22382
6.64613
4.95212
3.25317
1.5787
-0.0721745
-1.69418
-3.27226
10.2052
8.92932
7.44596
5.85614
4.26176
2.69
1.13993
-0.384026
-1.86851
10.7343
9.5187
8.11217
6.6071
5.0977
3.60935
2.1411
0.696712
-0.711798
11.1576
9.98957
8.64343
7.20506
5.76256
4.33985
2.93596
1.55416
0.205406
11.4885
10.3556
9.05463
7.66605
6.27339
4.89952
3.54349
2.20821
0.903893
11.7085
10.598
9.32686
7.97209
6.61317
5.2721
3.94816
2.64412
1.36966
11.8489
10.7417
9.48491
8.14826
6.80674
5.48202
4.17391
2.88523
1.6254
)
;

boundaryField
{
    inlet
    {
        type            zeroGradient;
    }
    outlet
    {
        type            fixedValue;
        value           nonuniform 0();
    }
    flap
    {
        type            zeroGradient;
    }
    upperWall
    {
        type            zeroGradient;
    }
    lowerWall
    {
        type            zeroGradient;
    }
    frontAndBack
    {
        type            empty;
    }
    procBoundary1to0
    {
        type            processor;
        value           nonuniform List<scalar> 
18
(
37.4396
36.0301
36.0301
37.0208
35.8275
34.7661
33.8255
32.9955
32.2668
31.6311
31.0807
30.6099
30.2123
29.8865
29.6252
29.4341
29.3022
29.2471
)
;
    }
    procBoundary1to2
    {
        type            processor;
        value           nonuniform List<scalar> 
17
(
-42.73
-36.1387
-30.3855
-25.3751
-21.0173
-17.2319
-13.9492
-11.1099
-8.66342
-6.56801
-4.78775
-3.29678
-2.06924
-1.09629
-0.356369
0.137296
0.406609
)
;
    }
    procBoundary1to3
    {
        type            processor;
        value           nonuniform List<scalar> 9(59.5083 56.1479 53.0041 50.0933 47.4219 44.9883 42.7854 40.8021 39.0252);
    }
    procBoundary1to4
    {
        type            processor;
        value           nonuniform List<scalar> 
30
(
60.7046
53.5185
53.5185
49.2623
40.234
40.234
33.8814
24.1501
24.1501
16.2153
7.59378
7.59378
-0.67154
-8.58044
-10.9176
-10.9176
-15.0382
-20.31
-22.0734
-22.0734
-29.1569
-36.6977
-37.3245
-37.3245
-43.8407
-42.7619
-42.7619
-48.331
-45.7749
-45.7749
)
;
    }
}


// ************************************************************************* //
