/*--------------------------------*- C++ -*----------------------------------*\
| =========                 |                                                 |
| \\      /  F ield         | OpenFOAM: The Open Source CFD Toolbox           |
|  \\    /   O peration     | Version:  dev                                   |
|   \\  /    A nd           | Web:      www.OpenFOAM.org                      |
|    \\/     M anipulation  |                                                 |
\*---------------------------------------------------------------------------*/
FoamFile
{
    version     2.0;
    format      ascii;
    class       surfaceScalarField;
    location    "2.22";
    object      meshPhi;
}
// * * * * * * * * * * * * * * * * * * * * * * * * * * * * * * * * * * * * * //

dimensions      [0 3 -1 0 0 0 0];

internalField   nonuniform List<scalar> 
5457
(
-2.05995e-05
6.19102e-07
-3.61517e-05
1.66377e-06
-4.48085e-05
2.32523e-06
-4.64567e-05
2.58667e-06
-4.15027e-05
2.47685e-06
-3.07923e-05
2.0395e-06
-1.55999e-05
1.33372e-06
2.44211e-06
4.32973e-07
2.14551e-05
-5.76486e-07
3.95164e-05
-1.60102e-06
5.49098e-05
-2.54932e-06
6.63402e-05
-3.34271e-06
7.30877e-05
-3.92432e-06
7.50549e-05
-4.261e-06
7.26968e-05
-4.34844e-06
6.68771e-05
-4.21185e-06
5.86824e-05
-3.89342e-06
4.92381e-05
-3.4455e-06
3.95577e-05
-2.92614e-06
3.04307e-05
-2.38667e-06
2.25091e-05
-1.87139e-06
1.60147e-05
-1.41372e-06
1.08495e-05
-1.02465e-06
6.94595e-06
-7.05815e-07
4.13672e-06
-4.56992e-07
2.22681e-06
-2.72921e-07
1.02291e-06
-1.45204e-07
3.5237e-07
-6.39493e-08
7.25785e-08
-1.9985e-08
-3.37575e-09
-2.08272e-05
1.2476e-06
-3.65632e-05
3.3538e-06
-4.53723e-05
4.69068e-06
-4.71427e-05
5.2252e-06
-4.22623e-05
5.01475e-06
-3.15561e-05
4.14543e-06
-1.62836e-05
2.73278e-06
1.92442e-06
9.25944e-07
2.11762e-05
-1.10201e-06
3.9522e-05
-3.16491e-06
5.5211e-05
-5.07898e-06
6.69107e-05
-6.68417e-06
7.38687e-05
-7.86278e-06
7.59713e-05
-8.54962e-06
7.36729e-05
-8.73815e-06
6.78465e-05
-8.47631e-06
5.95925e-05
-7.84821e-06
5.00548e-05
-6.95968e-06
4.02697e-05
-5.92464e-06
3.10448e-05
-4.84542e-06
2.30255e-05
-3.81151e-06
1.64396e-05
-2.8887e-06
1.11983e-05
-2.10096e-06
7.22353e-06
-1.4534e-06
4.34745e-06
-9.45846e-07
2.37637e-06
-5.68584e-07
1.11803e-06
-3.05636e-07
3.9947e-07
-1.37061e-07
8.86099e-08
-4.41388e-08
-7.76535e-09
-2.10286e-05
1.88495e-06
-3.69364e-05
5.06912e-06
-4.58988e-05
7.0967e-06
-4.78037e-05
7.9198e-06
-4.30209e-05
7.62436e-06
-3.2349e-05
6.33768e-06
-1.70252e-05
4.22977e-06
1.32713e-06
1.52078e-06
2.08106e-05
-1.53079e-06
3.94584e-05
-4.64545e-06
5.54904e-05
-7.54611e-06
6.75365e-05
-9.98894e-06
7.48063e-05
-1.17916e-05
7.716e-05
-1.28574e-05
7.50385e-05
-1.31779e-05
6.93108e-05
-1.28188e-05
6.10821e-05
-1.1905e-05
5.15075e-05
-1.05969e-05
4.16407e-05
-9.06081e-06
3.23047e-05
-7.44811e-06
2.41439e-05
-5.8933e-06
1.73985e-05
-4.49265e-06
1.19973e-05
-3.28748e-06
7.86054e-06
-2.29077e-06
4.82326e-06
-1.50279e-06
2.70144e-06
-9.10222e-07
1.31637e-06
-4.93075e-07
4.97249e-07
-2.24067e-07
1.2401e-07
-7.42885e-08
-1.40807e-08
-2.11767e-05
2.52962e-06
-3.7224e-05
6.80641e-06
-4.6327e-05
9.54099e-06
-4.837e-05
1.06722e-05
-4.37066e-05
1.03143e-05
-3.31072e-05
8.63423e-06
-1.77797e-05
5.85375e-06
6.68759e-07
2.25846e-06
2.03473e-05
-1.8111e-06
3.92852e-05
-5.98341e-06
5.56809e-05
-9.88882e-06
6.81308e-05
-1.32e-05
7.58087e-05
-1.56703e-05
7.85382e-05
-1.71654e-05
7.67282e-05
-1.7667e-05
7.12262e-05
-1.7256e-05
6.31319e-05
-1.60943e-05
5.36052e-05
-1.4396e-05
4.37047e-05
-1.23815e-05
3.42653e-05
-1.02515e-05
2.59316e-05
-8.17964e-06
1.89589e-05
-6.2872e-06
1.33095e-05
-4.63766e-06
8.91681e-06
-3.26135e-06
5.61941e-06
-2.16269e-06
3.2433e-06
-1.32403e-06
1.63571e-06
-7.22287e-07
6.51309e-07
-3.29431e-07
1.83658e-07
-1.11176e-07
-2.30162e-08
-2.13406e-05
3.1836e-06
-3.75515e-05
8.57204e-06
-4.68254e-05
1.20354e-05
-4.90422e-05
1.35009e-05
-4.45353e-05
1.31108e-05
-3.40428e-05
1.10698e-05
-1.87364e-05
7.64673e-06
-1.96187e-07
3.18845e-06
1.97003e-05
-1.88651e-06
3.89821e-05
-7.11862e-06
5.58273e-05
-1.20481e-05
6.87933e-05
-1.62647e-05
7.70097e-05
-1.94564e-05
8.02516e-05
-2.14439e-05
7.8884e-05
-2.21925e-05
7.37205e-05
-2.17949e-05
6.58462e-05
-2.0445e-05
5.64248e-05
-1.84026e-05
4.65204e-05
-1.59422e-05
3.69807e-05
-1.33163e-05
2.8442e-05
-1.07321e-05
2.11726e-05
-8.33059e-06
1.51874e-05
-6.20275e-06
1.04441e-05
-4.40702e-06
6.78929e-06
-2.95739e-06
4.05679e-06
-1.83407e-06
2.11645e-06
-1.01032e-06
8.8087e-07
-4.62358e-07
2.73441e-07
-1.58188e-07
-3.56963e-08
-2.15238e-05
3.85028e-06
-3.79233e-05
1.03761e-05
-4.73991e-05
1.45967e-05
-4.98262e-05
1.64298e-05
-4.55148e-05
1.60443e-05
-3.51665e-05
1.36795e-05
-1.9909e-05
9.6504e-06
-1.28658e-06
4.36022e-06
1.88427e-05
-1.70161e-06
3.85142e-05
-7.99333e-06
5.58897e-05
-1.39699e-05
6.94835e-05
-1.91374e-05
7.8369e-05
-2.31117e-05
8.22631e-05
-2.5665e-05
8.14774e-05
-2.67411e-05
7.67833e-05
-2.64382e-05
6.92388e-05
-2.49771e-05
6.00013e-05
-2.26546e-05
5.0141e-05
-1.97934e-05
4.0523e-05
-1.66995e-05
3.17609e-05
-1.36108e-05
2.41318e-05
-1.06793e-05
1.77237e-05
-8.03021e-06
1.2531e-05
-5.76652e-06
8.41198e-06
-3.91939e-06
5.21227e-06
-2.46743e-06
2.82122e-06
-1.38017e-06
1.22376e-06
-6.40148e-07
3.97593e-07
-2.22642e-07
-5.31506e-08
-2.17287e-05
4.53268e-06
-3.83427e-05
1.22274e-05
-4.80522e-05
1.72396e-05
-5.07275e-05
1.94802e-05
-4.66528e-05
1.91438e-05
-3.64884e-05
1.65006e-05
-2.13122e-05
1.19094e-05
-2.62382e-06
5.82539e-06
1.77475e-05
-1.20049e-06
3.78481e-05
-8.55072e-06
5.58258e-05
-1.55974e-05
7.0151e-05
-2.17625e-05
7.98348e-05
-2.65867e-05
8.45266e-05
-2.97893e-05
8.44717e-05
-3.1285e-05
8.03904e-05
-3.11685e-05
7.33061e-05
-2.96793e-05
6.43595e-05
-2.71516e-05
5.46206e-05
-2.39525e-05
4.49745e-05
-2.04349e-05
3.59916e-05
-1.6859e-05
2.79481e-05
-1.33808e-05
2.10283e-05
-1.01665e-05
1.52795e-05
-7.37775e-06
1.05852e-05
-5.07821e-06
6.79793e-06
-3.2523e-06
3.82194e-06
-1.86063e-06
1.71786e-06
-8.85456e-07
5.50296e-07
-3.1295e-07
-7.4967e-08
-2.19578e-05
5.23031e-06
-3.88136e-05
1.41251e-05
-4.87898e-05
1.99646e-05
-5.17535e-05
2.2656e-05
-4.79594e-05
2.24215e-05
-3.80212e-05
1.95596e-05
-2.29637e-05
1.44634e-05
-4.23359e-06
7.63291e-06
1.63825e-05
-3.25411e-07
3.69457e-05
-8.72484e-06
5.55865e-05
-1.68558e-05
7.07353e-05
-2.40579e-05
8.13419e-05
-2.97986e-05
8.69783e-05
-3.37388e-05
8.78124e-05
-3.57574e-05
8.44996e-05
-3.5936e-05
7.802e-05
-3.45224e-05
6.94948e-05
-3.18814e-05
5.99888e-05
-2.84213e-05
5.04039e-05
-2.45389e-05
4.12315e-05
-2.05065e-05
3.2733e-05
-1.64722e-05
2.52201e-05
-1.26519e-05
1.88008e-05
-9.28128e-06
1.34027e-05
-6.467e-06
8.88568e-06
-4.21215e-06
5.16011e-06
-2.47078e-06
2.36372e-06
-1.21148e-06
7.07703e-07
-4.30846e-07
-9.80244e-08
-2.22131e-05
5.94259e-06
-3.93394e-05
1.60682e-05
-4.96154e-05
2.27712e-05
-5.29073e-05
2.59595e-05
-4.94395e-05
2.58845e-05
-3.97751e-05
2.28708e-05
-2.48804e-05
1.7338e-05
-6.14243e-06
9.8226e-06
1.47056e-05
9.79737e-07
3.57474e-05
-8.44279e-06
5.50977e-05
-1.76598e-05
7.115e-05
-2.59317e-05
8.27936e-05
-3.26536e-05
8.9519e-05
-3.74254e-05
9.14066e-05
-4.00796e-05
8.90365e-05
-4.06747e-05
8.33321e-05
-3.94585e-05
7.53845e-05
-3.68132e-05
6.62534e-05
-3.3183e-05
5.68556e-05
-2.90076e-05
4.75551e-05
-2.45611e-05
3.85737e-05
-1.9972e-05
3.03934e-05
-1.55138e-05
2.31943e-05
-1.15129e-05
1.69346e-05
-8.12157e-06
1.1492e-05
-5.36756e-06
6.80419e-06
-3.21296e-06
3.09896e-06
-1.60813e-06
8.31858e-07
-5.65115e-07
-1.16793e-07
-2.24975e-05
6.67059e-06
-3.99245e-05
1.80596e-05
-5.05327e-05
2.56643e-05
-5.41908e-05
2.93982e-05
-5.1095e-05
2.95436e-05
-4.17558e-05
2.64489e-05
-2.70756e-05
2.0556e-05
-8.37665e-06
1.24309e-05
1.26695e-05
2.76834e-06
3.41824e-05
-7.63471e-06
5.42703e-05
-1.79278e-05
7.12911e-05
-2.7295e-05
8.40749e-05
-3.50585e-05
9.2027e-05
-4.07527e-05
9.51303e-05
-4.41533e-05
9.38839e-05
-4.52861e-05
8.91452e-05
-4.43939e-05
8.19594e-05
-4.18678e-05
7.3375e-05
-3.81771e-05
6.43212e-05
-3.37995e-05
5.49775e-05
-2.89993e-05
4.54991e-05
-2.38711e-05
3.6582e-05
-1.87571e-05
2.84924e-05
-1.40907e-05
2.11751e-05
-1.00624e-05
1.45446e-05
-6.72003e-06
8.62033e-06
-4.05481e-06
3.79828e-06
-2.02566e-06
8.86448e-07
-6.8698e-07
-1.25203e-07
-2.2817e-05
7.41754e-06
-4.05774e-05
2.01079e-05
-5.15498e-05
2.86559e-05
-5.56115e-05
3.29865e-05
-5.29326e-05
3.34166e-05
-4.39719e-05
3.03171e-05
-2.95644e-05
2.4148e-05
-1.09617e-05
1.54968e-05
1.02322e-05
5.08885e-06
3.21838e-05
-6.23681e-06
5.30103e-05
-1.75761e-05
7.10421e-05
-2.80457e-05
8.50491e-05
-3.68946e-05
9.43461e-05
-4.35853e-05
9.8816e-05
-4.7835e-05
9.88693e-05
-4.96302e-05
9.52923e-05
-4.91967e-05
8.90715e-05
-4.69254e-05
8.12289e-05
-4.33005e-05
7.27001e-05
-3.8831e-05
6.34162e-05
-3.3756e-05
5.34288e-05
-2.81183e-05
4.37004e-05
-2.23389e-05
3.45843e-05
-1.69772e-05
2.59746e-05
-1.22548e-05
1.78397e-05
-8.22563e-06
1.03617e-05
-4.92069e-06
4.30179e-06
-2.38365e-06
8.48896e-07
-7.57083e-07
-1.18068e-07
-2.3181e-05
8.18666e-06
-4.13117e-05
2.2221e-05
-5.26792e-05
3.17554e-05
-5.71801e-05
3.67343e-05
-5.49624e-05
3.7515e-05
-4.64349e-05
3.44906e-05
-3.23648e-05
2.81361e-05
-1.39241e-05
1.90528e-05
7.35387e-06
7.98682e-06
2.96856e-05
-4.18668e-06
5.12172e-05
-1.65183e-05
7.02658e-05
-2.80695e-05
8.55413e-05
-3.80212e-05
9.62718e-05
-4.57659e-05
0.000102241
-5.09593e-05
0.000103758
-5.35372e-05
0.000101528
-5.36941e-05
9.64768e-05
-5.18157e-05
8.95817e-05
-4.83948e-05
8.17616e-05
-4.39597e-05
7.26434e-05
-3.87057e-05
6.213e-05
-3.26039e-05
5.14826e-05
-2.61534e-05
4.11592e-05
-2.00577e-05
3.10097e-05
-1.45835e-05
2.10419e-05
-9.77365e-06
1.17386e-05
-5.70835e-06
4.4797e-06
-2.61197e-06
7.11147e-07
-7.46004e-07
-9.16898e-08
-2.35997e-05
8.97738e-06
-4.21428e-05
2.43968e-05
-5.39341e-05
3.49562e-05
-5.89066e-05
4.06303e-05
-5.71911e-05
4.1826e-05
-4.91511e-05
3.89587e-05
-3.54881e-05
3.25168e-05
-1.72899e-05
2.31104e-05
3.98772e-06
1.14959e-05
2.66154e-05
-1.42598e-06
4.87824e-05
-1.46694e-05
6.88106e-05
-2.72542e-05
8.53571e-05
-3.83014e-05
9.75686e-05
-4.71324e-05
0.000105131
-5.3337e-05
0.000108244
-5.67961e-05
0.000107522
-5.76658e-05
0.000103821
-5.63158e-05
9.80623e-05
-5.32401e-05
9.11144e-05
-4.89743e-05
8.22548e-05
-4.36522e-05
7.11917e-05
-3.71482e-05
5.94776e-05
-3.00259e-05
4.77312e-05
-2.3148e-05
3.57906e-05
-1.68497e-05
2.37284e-05
-1.11754e-05
1.25219e-05
-6.29997e-06
4.27911e-06
-2.67195e-06
4.73076e-07
-6.48579e-07
-4.49163e-08
-2.40835e-05
9.78977e-06
-4.3087e-05
2.66347e-05
-5.53259e-05
3.82524e-05
-6.07973e-05
4.46614e-05
-5.96197e-05
4.63329e-05
-5.21182e-05
4.3704e-05
-3.8936e-05
3.72776e-05
-2.10776e-05
2.7671e-05
8.95401e-08
1.56399e-05
2.29028e-05
2.09227e-06
4.55992e-05
-1.19585e-05
6.65223e-05
-2.54967e-05
8.42901e-05
-3.75935e-05
9.79712e-05
-4.75034e-05
0.000107161
-5.47521e-05
0.000111952
-5.91654e-05
0.000112855
-6.08531e-05
0.000110641
-6.01563e-05
0.000106162
-5.75596e-05
0.000100205
-5.35956e-05
9.16731e-05
-4.83211e-05
8.0026e-05
-4.14901e-05
6.70862e-05
-3.37087e-05
5.37017e-05
-2.60049e-05
3.97412e-05
-1.88053e-05
2.54971e-05
-1.22172e-05
1.259e-05
-6.58112e-06
3.72199e-06
-2.54809e-06
1.38168e-07
-4.85084e-07
2.22865e-08
-2.45613e-05
1.05448e-05
-4.41097e-05
2.8817e-05
-5.68776e-05
4.16247e-05
-6.28692e-05
4.88642e-05
-6.22621e-05
5.10717e-05
-5.53496e-05
4.87684e-05
-4.27257e-05
4.24635e-05
-2.53189e-05
3.27827e-05
-4.39923e-06
2.04786e-05
1.84582e-05
6.44767e-06
4.15413e-05
-8.28404e-06
6.32195e-05
-2.26655e-05
8.20993e-05
-3.57304e-05
9.71819e-05
-4.66814e-05
0.000107974
-5.49793e-05
0.000114465
-6.0392e-05
0.000117053
-6.29802e-05
0.000116407
-6.30454e-05
0.000113292
-6.1051e-05
0.000108386
-5.75173e-05
0.000100224
-5.24138e-05
8.7957e-05
-4.5348e-05
7.36637e-05
-3.69432e-05
5.8467e-05
-2.83924e-05
4.23746e-05
-2.02474e-05
2.61246e-05
-1.2767e-05
1.19707e-05
-6.50295e-06
2.88757e-06
-2.22881e-06
-3.09075e-07
-2.59843e-07
1.36227e-07
-3.11853e-06
7.47072e-08
-2.21104e-05
4.35994e-07
-8.1011e-05
1.25848e-06
-0.000165615
1.6309e-06
-0.000222657
1.28245e-06
-0.000235592
4.76986e-07
-0.000229473
-2.86714e-07
-0.000225415
-1.08618e-06
-0.000229922
-1.65367e-06
-0.000240554
-1.72235e-06
-0.000253521
-1.41498e-06
-0.000268558
-5.43203e-07
-0.000284828
6.88318e-07
-0.000300194
1.92548e-06
-0.000312993
3.37281e-06
-0.000322081
5.0947e-06
-0.000326637
6.9025e-06
-0.000326194
8.65757e-06
-0.000320591
1.02308e-05
-0.000309919
1.15124e-05
-0.000294447
1.24207e-05
-0.000274552
1.29062e-05
-0.00025066
1.29481e-05
-0.000223191
1.25471e-05
-0.000192529
1.1716e-05
-0.000158999
1.04717e-05
-0.00012285
8.82853e-06
-8.4268e-05
6.79457e-06
-4.32439e-05
4.36356e-06
1.53654e-06
-3.47431e-06
1.42389e-07
-2.4078e-05
8.37623e-07
-8.44048e-05
2.19906e-06
-0.000167303
2.67831e-06
-0.000221131
2.00952e-06
-0.000232553
5.58001e-07
-0.000226543
-9.29583e-07
-0.000223282
-2.18882e-06
-0.000228642
-2.99762e-06
-0.00024014
-3.1101e-06
-0.000253974
-2.43763e-06
-0.0002695
-8.34277e-07
-0.000285885
1.34762e-06
-0.000301228
3.86285e-06
-0.000314015
6.87927e-06
-0.000323046
1.0315e-05
-0.00032751
1.38932e-05
-0.000326951
1.73522e-05
-0.00032122
2.04421e-05
-0.000310418
2.29499e-05
-0.000294822
2.47183e-05
-0.000274815
2.5652e-05
-0.000250824
2.57113e-05
-0.000223273
2.48977e-05
-0.000192547
2.3236e-05
-0.000158971
2.07586e-05
-0.000122795
1.74933e-05
-8.42075e-05
1.34559e-05
-4.32038e-05
8.63538e-06
3.03873e-06
-3.97844e-06
2.30674e-07
-2.62296e-05
1.20896e-06
-8.55258e-05
2.84127e-06
-0.000161232
3.31797e-06
-0.00020807
2.25992e-06
-0.00021836
1.66829e-07
-0.000214939
-1.87803e-06
-0.000214762
-3.29832e-06
-0.00022247
-4.10243e-06
-0.000235738
-4.1634e-06
-0.00025094
-3.09835e-06
-0.000267301
-8.16453e-07
-0.000284183
2.29258e-06
-0.000299875
6.15534e-06
-0.000312915
1.07426e-05
-0.000322127
1.58311e-05
-0.000326723
2.10839e-05
-0.00032626
2.61332e-05
-0.000320602
3.06232e-05
-0.000309855
3.42499e-05
-0.000294302
3.67893e-05
-0.000274328
3.81054e-05
-0.000250367
3.81412e-05
-0.000222844
3.68976e-05
-0.000192149
3.44091e-05
-0.000158612
3.07211e-05
-0.000122486
2.58728e-05
-8.39667e-05
1.98873e-05
-4.30629e-05
1.27517e-05
4.48366e-06
-4.53224e-06
3.37511e-07
-2.75556e-05
1.51315e-06
-8.218e-05
3.12211e-06
-0.00014591
3.35733e-06
-0.000183804
1.8267e-06
-0.0001941
-7.5052e-07
-0.000195391
-2.99767e-06
-0.000199969
-4.3266e-06
-0.000211034
-4.96431e-06
-0.000226658
-4.74984e-06
-0.000243621
-3.22065e-06
-0.000261224
-2.3156e-07
-0.000279064
3.93947e-06
-0.000295499
9.1352e-06
-0.000309117
1.51959e-05
-0.000318813
2.18234e-05
-0.00032383
2.86053e-05
-0.000323741
3.5083e-05
-0.000318418
4.08114e-05
-0.000307968
4.5411e-05
-0.000292676
4.86014e-05
-0.000272931
5.02115e-05
-0.000249167
5.01679e-05
-0.000221818
4.84691e-05
-0.000191279
4.51558e-05
-0.000157887
4.0283e-05
-0.000121907
3.38991e-05
-8.35462e-05
2.60347e-05
-4.28311e-05
1.66768e-05
5.8586e-06
-5.08952e-06
4.40571e-07
-2.78232e-05
1.68273e-06
-7.52389e-05
2.99454e-06
-0.000125517
2.79058e-06
-0.000154917
8.96297e-07
-0.000165972
-1.78118e-06
-0.000172345
-3.86953e-06
-0.000181855
-4.93556e-06
-0.000196456
-5.27584e-06
-0.000214563
-4.62953e-06
-0.000233511
-2.53982e-06
-0.000252701
1.20817e-06
-0.000271761
6.4581e-06
-0.00028915
1.29108e-05
-0.00030355
2.03366e-05
-0.000313923
2.83627e-05
-0.000319545
3.65036e-05
-0.000320005
4.42244e-05
-0.000315179
5.10087e-05
-0.000305177
5.64168e-05
-0.000290283
6.01233e-05
-0.000270887
6.19275e-05
-0.000247429
6.17406e-05
-0.000220347
5.9557e-05
-0.000190047
5.54199e-05
-0.000156875
4.93907e-05
-0.000121111
4.15248e-05
-8.29767e-05
3.18599e-05
-4.25205e-05
2.03855e-05
7.15458e-06
-5.5233e-06
5.18684e-07
-2.66914e-05
1.65007e-06
-6.53615e-05
2.44484e-06
-0.000103037
1.79661e-06
-0.000125876
-1.13176e-07
-0.000138209
-2.39241e-06
-0.000149036
-4.04249e-06
-0.000162806
-4.78747e-06
-0.000180595
-4.78303e-06
-0.000200968
-3.72635e-06
-0.0002218
-1.02183e-06
-0.000242635
3.60079e-06
-0.000262971
9.90464e-06
-0.000281397
1.75388e-05
-0.00029668
2.62085e-05
-0.000307838
3.54739e-05
-0.000314176
4.4786e-05
-0.000315296
5.35502e-05
-0.000311078
6.11961e-05
-0.000301629
6.72391e-05
-0.000287233
7.13193e-05
-0.00026828
7.32121e-05
-0.000245213
7.28146e-05
-0.000218478
7.0115e-05
-0.000188488
6.51556e-05
-0.000155603
5.80011e-05
-0.000120116
4.87123e-05
-8.22702e-05
3.73333e-05
-4.21379e-05
2.38586e-05
8.36486e-06
-5.69587e-06
5.51554e-07
-2.40931e-05
1.42118e-06
-5.37641e-05
1.63025e-06
-8.12173e-05
6.88228e-07
-9.98184e-05
-9.32779e-07
-0.000113569
-2.57329e-06
-0.000127727
-3.68983e-06
-0.000144656
-4.07294e-06
-0.000164845
-3.66649e-06
-0.000187041
-2.08366e-06
-0.000209538
1.36632e-06
-0.000231865
6.93309e-06
-0.000253401
1.42736e-05
-0.000272833
2.30089e-05
-0.000289001
3.27919e-05
-0.000300967
4.31271e-05
-0.000308059
5.34159e-05
-0.000309888
6.302e-05
-0.000306332
7.13318e-05
-0.000297498
7.7836e-05
-0.000283662
8.21478e-05
-0.000265215
8.40244e-05
-0.000242601
8.33497e-05
-0.000216272
8.01041e-05
-0.000186649
7.43263e-05
-0.000154105
6.60813e-05
-0.000118949
5.54335e-05
-8.1444e-05
4.24335e-05
-4.16921e-05
2.70828e-05
9.48485e-06
-5.52186e-06
5.30305e-07
-2.03874e-05
1.06301e-06
-4.20117e-05
7.89638e-07
-6.20999e-05
-2.24879e-07
-7.82016e-05
-1.42286e-06
-9.30355e-05
-2.43781e-06
-0.000109343
-3.02589e-06
-0.000128336
-2.96571e-06
-0.000150159
-2.00266e-06
-0.000173719
3.27462e-07
-0.000197569
4.65211e-06
-0.000221135
1.11703e-05
-0.000243693
1.9512e-05
-0.000264013
2.92592e-05
-0.000280986
4.00188e-05
-0.000293709
5.12518e-05
-0.000301525
6.23242e-05
-0.000304051
7.25695e-05
-0.000301162
8.13583e-05
-0.000292957
8.8157e-05
-0.000279708
9.2565e-05
-0.000261799
9.43258e-05
-0.000239676
9.33117e-05
-0.000213792
8.94941e-05
-0.000184579
8.2905e-05
-0.000152418
7.3608e-05
-0.000117636
6.16699e-05
-8.05178e-05
4.71474e-05
-4.11936e-05
3.00502e-05
1.05121e-05
-5.00381e-06
4.57934e-07
-1.62069e-05
6.70052e-07
-3.1498e-05
1.37685e-07
-4.67238e-05
-7.47214e-07
-6.12863e-05
-1.51859e-06
-7.66576e-05
-1.9958e-06
-9.41482e-05
-2.04682e-06
-0.000114359
-1.40241e-06
-0.000137238
3.02789e-07
-0.000161736
3.51793e-06
-0.000186556
8.77475e-06
-0.000211048
1.62404e-05
-0.000234392
2.55325e-05
-0.000255416
3.61936e-05
-0.000273052
4.77901e-05
-0.000286419
5.97514e-05
-0.000294875
7.14215e-05
-0.000298036
8.21205e-05
-0.000295772
9.12099e-05
-0.000288174
9.81487e-05
-0.000275503
0.000102528
-0.000258138
0.000104083
-0.00023652
0.000102674
-0.000211105
9.82637e-05
-0.000182328
9.08743e-05
-0.000150582
8.0567e-05
-0.000116208
6.74117e-05
-7.95127e-05
5.1469e-05
-4.0654e-05
3.27584e-05
1.14461e-05
-4.22298e-06
3.47784e-07
-1.22017e-05
3.24081e-07
-2.30655e-05
-2.17201e-07
-3.52199e-05
-8.40406e-07
-4.86685e-05
-1.24726e-06
-6.41208e-05
-1.27808e-06
-8.21579e-05
-7.52596e-07
-0.000103009
6.26255e-07
-0.000126479
3.22229e-06
-0.000151536
7.42575e-06
-0.000176962
1.36588e-05
-0.000202051
2.20519e-05
-0.000225916
3.22306e-05
-0.000247425
4.36988e-05
-0.000265539
5.59915e-05
-0.000279397
6.85175e-05
-0.000288365
8.06111e-05
-0.000292059
9.15908e-05
-0.000290343
0.00010082
-0.000283295
0.00010776
-0.000271167
0.000112
-0.000254328
0.000113268
-0.000233211
0.000111417
-0.000208273
0.000106402
-0.000179947
9.82258e-05
-0.000148634
8.69524e-05
-0.000114695
7.26567e-05
-7.84501e-05
5.5399e-05
-4.00856e-05
3.52096e-05
1.22883e-05
-3.30109e-06
2.19402e-07
-8.82755e-06
6.84111e-08
-1.69133e-05
-2.94793e-07
-2.71375e-05
-5.98672e-07
-3.96785e-05
-6.72676e-07
-5.49466e-05
-2.70064e-07
-7.31525e-05
8.86048e-07
-9.42717e-05
3.10006e-06
-0.000118019
6.70053e-06
-0.000143362
1.19895e-05
-0.00016911
1.92437e-05
-0.00019451
2.85231e-05
-0.000218636
3.94904e-05
-0.000240403
5.1649e-05
-0.000258791
6.44957e-05
-0.000272957
7.74288e-05
-0.000282278
8.9783e-05
-0.00028637
0.000100885
-0.00028509
0.000110111
-0.000278505
0.000116928
-0.000266854
0.00012093
-0.000250492
0.000121842
-0.00022985
0.000119514
-0.00020537
0.000113884
-0.000177483
0.000104947
-0.00014661
9.27653e-05
-0.000113123
7.74105e-05
-7.73488e-05
5.89426e-05
-3.94991e-05
3.74083e-05
1.30409e-05
-2.3624e-06
9.26015e-08
-6.27267e-06
-8.99928e-08
-1.27767e-05
-1.95809e-07
-2.18218e-05
-1.66727e-07
-3.36805e-05
1.47011e-07
-4.86723e-05
1.06198e-06
-6.68501e-05
2.91978e-06
-8.80484e-05
6.03516e-06
-0.000111912
1.07094e-05
-0.000137351
1.71364e-05
-0.000163173
2.54211e-05
-0.000188635
3.55411e-05
-0.000212794
4.7196e-05
-0.000234592
5.99198e-05
-0.000253041
7.31802e-05
-0.000267317
8.63706e-05
-0.000276811
9.88352e-05
-0.000281143
0.000109918
-0.000280164
0.000119011
-0.000273932
0.000125597
-0.000262668
0.000129276
-0.000246718
0.000129775
-0.000226498
0.000126936
-0.000202438
0.000120685
-0.000174976
0.000111023
-0.00014455
9.80039e-05
-0.000111524
8.16772e-05
-7.62279e-05
6.21076e-05
-3.89039e-05
3.93627e-05
1.37072e-05
-1.52692e-06
-1.01445e-08
-4.54488e-06
-1.55888e-07
-1.02466e-05
-7.1003e-09
-1.86951e-05
3.79365e-07
-3.01666e-05
1.1813e-06
-4.49215e-05
2.72299e-06
-6.30051e-05
5.37266e-06
-8.42176e-05
9.45404e-06
-0.000108145
1.52454e-05
-0.000133555
2.28194e-05
-0.000159208
3.20896e-05
-0.000184467
4.29849e-05
-0.000208422
5.52462e-05
-0.00023002
6.84153e-05
-0.000248306
8.19548e-05
-0.000262486
9.52626e-05
-0.000271966
0.000107701
-0.000276375
0.000118637
-0.00027556
0.000127486
-0.000269567
0.000133748
-0.000258604
0.000137035
-0.000242998
0.000137072
-0.00022315
0.000133697
-0.000199488
0.000126831
-0.000172449
0.000116472
-0.00014246
0.000102661
-0.00010989
8.5438e-05
-7.50834e-05
6.48819e-05
-3.82993e-05
4.10679e-05
1.4286e-05
-9.43224e-07
-5.57617e-08
-3.64081e-06
-1.18566e-07
-9.08774e-06
2.96309e-07
-1.73724e-05
1.06548e-06
-2.87348e-05
2.44147e-06
-4.33978e-05
4.72466e-06
-6.14296e-05
8.26462e-06
-8.26597e-05
1.33842e-05
-0.000106657
2.03447e-05
-0.000131921
2.90634e-05
-0.000157173
3.92376e-05
-0.000182005
5.08009e-05
-0.000205528
6.35702e-05
-0.000226702
7.70668e-05
-0.000244607
9.07525e-05
-0.000258487
0.000104044
-0.00026777
0.00011633
-0.000272096
0.000127007
-0.000271308
0.000135514
-0.000265443
0.000141374
-0.000254692
0.000144209
-0.000239365
0.000143749
-0.000219846
0.000139826
-0.000196555
0.000132357
-0.000169917
0.000121328
-0.000140342
0.000106765
-0.000108216
8.87201e-05
-7.39082e-05
6.72826e-05
-3.76773e-05
4.2529e-05
1.4778e-05
-9.71789e-07
1.25426e-07
-3.87462e-06
9.62826e-08
-9.3933e-06
8.11566e-07
-1.77354e-05
2.05146e-06
-2.9171e-05
4.09056e-06
-4.38949e-05
7.20772e-06
-6.19668e-05
1.1717e-05
-8.32627e-05
1.7932e-05
-0.00010725
2.60331e-05
-0.000132185
3.57886e-05
-0.000156889
4.68172e-05
-0.000181137
5.90174e-05
-0.00020403
7.22016e-05
-0.000224558
8.59018e-05
-0.000241868
9.95969e-05
-0.000255247
0.000112741
-0.000264153
0.000124755
-0.000268237
0.000135067
-0.000267344
0.000143144
-0.0002615
0.000148529
-0.000250881
0.000150858
-0.000235776
0.000149867
-0.000216548
0.000145385
-0.000193603
0.000137321
-0.000167353
0.000125652
-0.0001382
0.000110396
-0.000106529
9.16062e-05
-7.2721e-05
6.93763e-05
-3.70467e-05
4.3792e-05
1.52007e-05
-2.58353e-05
1.11771e-05
-4.67457e-05
3.07416e-05
-6.07953e-05
4.48902e-05
-6.76938e-05
5.32526e-05
-6.76915e-05
5.6158e-05
-6.11822e-05
5.42659e-05
-4.8737e-05
4.81941e-05
-3.12548e-05
3.85687e-05
-9.95171e-06
2.61382e-05
1.36455e-05
1.17825e-05
3.783e-05
-3.48053e-06
6.09348e-05
-1.85792e-05
8.15213e-05
-3.25126e-05
9.85043e-05
-4.44423e-05
0.000111278
-5.37704e-05
0.000119733
-6.02059e-05
0.00012416
-6.37565e-05
0.000125134
-6.46761e-05
0.000123341
-6.33975e-05
0.000119368
-6.04192e-05
0.000111341
-5.56281e-05
9.79965e-05
-4.84581e-05
8.16933e-05
-3.94937e-05
6.39741e-05
-3.01045e-05
4.51809e-05
-2.10468e-05
2.66977e-05
-1.28007e-05
1.13078e-05
-6.09734e-06
1.94135e-06
-1.70045e-06
-1.14359e-06
2.25507e-07
4.85924e-07
-5.76829e-07
-2.66279e-05
1.17563e-05
-4.85124e-05
3.24251e-05
-6.38666e-05
4.77704e-05
-7.20239e-05
5.75028e-05
-7.28637e-05
6.15329e-05
-6.69368e-05
6.02579e-05
-5.49694e-05
5.45193e-05
-3.78182e-05
4.50968e-05
-1.66111e-05
3.27078e-05
7.20844e-06
1.81957e-05
3.19772e-05
2.56724e-06
5.60292e-05
-1.30958e-05
7.7901e-05
-2.77666e-05
9.64602e-05
-4.05755e-05
0.000110998
-5.08784e-05
0.000121297
-5.83222e-05
0.000127531
-6.28569e-05
0.000130152
-6.46864e-05
0.000129753
-6.42064e-05
0.000126825
-6.18986e-05
0.000119223
-5.76071e-05
0.000105066
-5.05362e-05
8.6848e-05
-4.11088e-05
6.68143e-05
-3.09363e-05
4.5837e-05
-2.11038e-05
2.59175e-05
-1.23042e-05
9.97323e-06
-5.34432e-06
4.50323e-07
-8.5236e-07
-2.93583e-06
1.22007e-06
1.73698e-06
-3.11779e-06
-2.74066e-05
1.23266e-05
-5.00879e-05
3.40255e-05
-6.655e-05
5.02997e-05
-7.62825e-05
6.11997e-05
-7.85691e-05
6.6698e-05
-7.35189e-05
6.6602e-05
-6.21475e-05
6.14638e-05
-4.55229e-05
5.2385e-05
-2.46267e-05
4.02268e-05
-7.99328e-07
2.57412e-05
2.43096e-05
9.92937e-06
4.90672e-05
-6.11195e-06
7.19962e-05
-2.13544e-05
9.19246e-05
-3.49024e-05
0.000108057
-4.60723e-05
0.00012006
-5.44564e-05
0.000127985
-5.9944e-05
0.000132161
-6.26848e-05
0.000133099
-6.30401e-05
0.000131258
-6.14982e-05
0.000124565
-5.79999e-05
0.000109879
-5.13774e-05
8.96686e-05
-4.16038e-05
6.75638e-05
-3.07401e-05
4.49001e-05
-2.03533e-05
2.41106e-05
-1.12227e-05
7.86738e-06
-4.12868e-06
-2.02674e-06
4.96741e-07
-6.18924e-06
2.83692e-06
3.68876e-06
-7.12979e-06
-2.82283e-05
1.28757e-05
-5.1682e-05
3.55843e-05
-6.8963e-05
5.27099e-05
-8.00038e-05
6.44397e-05
-8.41918e-05
7.11633e-05
-8.08119e-05
7.27027e-05
-7.04018e-05
6.88624e-05
-5.45065e-05
6.0464e-05
-3.41799e-05
4.87255e-05
-1.05749e-05
3.44637e-05
1.45938e-05
1.86567e-05
3.97512e-05
2.4466e-06
6.34372e-05
-1.31612e-05
8.44419e-05
-2.72669e-05
0.000101897
-3.91525e-05
0.000115352
-4.83588e-05
0.000124733
-5.47135e-05
0.000130251
-5.83085e-05
0.000132343
-5.94657e-05
0.000131501
-5.86707e-05
0.000126078
-5.59885e-05
0.000111557
-5.01274e-05
8.98917e-05
-4.06034e-05
6.61045e-05
-2.94564e-05
4.22571e-05
-1.87105e-05
2.10417e-05
-9.4288e-06
4.57747e-06
-2.2802e-06
-5.96231e-06
2.52643e-06
-1.14188e-05
5.24871e-06
6.58434e-06
-1.37551e-05
-2.90906e-05
1.34013e-05
-5.33717e-05
3.70867e-05
-7.14369e-05
5.50741e-05
-8.33829e-05
6.75562e-05
-8.91374e-05
7.50855e-05
-8.80257e-05
7.79628e-05
-7.95356e-05
7.59518e-05
-6.493e-05
6.91041e-05
-4.54544e-05
5.82442e-05
-2.22884e-05
4.43706e-05
2.62488e-06
2.87515e-05
2.78223e-05
1.26058e-05
5.18931e-05
-3.13539e-06
7.35947e-05
-1.75756e-05
9.20069e-05
-2.9978e-05
0.000106565
-3.9843e-05
0.000117063
-4.69304e-05
0.000123593
-5.12671e-05
0.00012649
-5.31119e-05
0.0001262
-5.28782e-05
0.000121261
-5.05218e-05
0.000107533
-4.51405e-05
8.62176e-05
-3.65552e-05
6.19337e-05
-2.62176e-05
3.76788e-05
-1.58674e-05
1.63198e-05
-6.74575e-06
-4.12919e-07
4.2462e-07
-1.18405e-05
5.44766e-06
-1.88905e-05
8.60518e-06
1.04817e-05
-2.2885e-05
-2.99971e-05
1.38997e-05
-5.51545e-05
3.85214e-05
-7.40771e-05
5.73557e-05
-8.68717e-05
7.06159e-05
-9.36727e-05
7.88635e-05
-9.44276e-05
8.25757e-05
-8.85116e-05
8.1979e-05
-7.61771e-05
7.70378e-05
-5.82938e-05
6.79159e-05
-3.60707e-05
5.52081e-05
-1.174e-05
4.0174e-05
1.308e-05
2.43276e-05
3.71236e-05
8.70735e-06
5.90713e-05
-5.82886e-06
7.79925e-05
-1.85103e-05
9.32177e-05
-2.88193e-05
0.000104413
-3.64589e-05
0.000111546
-4.13885e-05
0.000114801
-4.37831e-05
0.000114446
-4.39493e-05
0.000108843
-4.17172e-05
9.56241e-05
-3.65323e-05
7.60416e-05
-2.87857e-05
5.32967e-05
-1.98183e-05
3.0187e-05
-1.08114e-05
9.242e-06
-2.5489e-06
-7.74014e-06
4.33933e-06
-2.02072e-05
9.52077e-06
-2.89254e-05
1.31137e-05
1.55077e-05
-3.46238e-05
-3.09459e-05
1.43625e-05
-5.70272e-05
3.98643e-05
-7.68667e-05
5.95207e-05
-9.06074e-05
7.3565e-05
-9.83943e-05
8.25888e-05
-0.000100393
8.7058e-05
-9.65678e-05
8.73496e-05
-8.67964e-05
8.37103e-05
-7.15931e-05
7.64655e-05
-5.15885e-05
6.59107e-05
-2.85731e-05
5.25204e-05
-4.57566e-06
3.75111e-05
1.90071e-05
2.22547e-05
4.07112e-05
7.87405e-06
5.96478e-05
-4.83629e-06
7.50421e-05
-1.53558e-05
8.64693e-05
-2.33357e-05
9.37794e-05
-2.86877e-05
9.70013e-05
-3.15123e-05
9.62452e-05
-3.20417e-05
8.99687e-05
-3.01468e-05
7.69507e-05
-2.5445e-05
5.89851e-05
-1.85091e-05
3.87604e-05
-1.07441e-05
1.80497e-05
-3.11501e-06
-1.50348e-06
3.95585e-06
-1.83086e-05
1.01262e-05
-3.16998e-05
1.51634e-05
-4.19704e-05
1.90334e-05
2.1861e-05
-4.92688e-05
-3.19382e-05
1.47877e-05
-5.89961e-05
4.11082e-05
-7.98131e-05
6.15493e-05
-9.45761e-05
7.6371e-05
-0.000103476
8.61951e-05
-0.000106672
9.15124e-05
-0.000104365
9.26962e-05
-9.66538e-05
9.00709e-05
-8.42488e-05
8.41573e-05
-6.74866e-05
7.54967e-05
-4.7085e-05
6.43205e-05
-2.48273e-05
5.11507e-05
-2.45643e-06
3.71093e-05
1.85063e-05
2.33577e-05
3.69872e-05
1.08458e-05
5.20534e-05
3.32204e-07
6.32451e-05
-7.77433e-06
7.03298e-05
-1.33698e-05
7.32531e-05
-1.65174e-05
7.20705e-05
-1.74174e-05
6.56916e-05
-1.60289e-05
5.33851e-05
-1.21542e-05
3.70509e-05
-6.37772e-06
1.90927e-05
1.2599e-07
7.105e-07
6.59407e-06
-1.69975e-05
1.26526e-05
-3.305e-05
1.80569e-05
-4.68969e-05
2.27111e-05
-5.84591e-05
2.6607e-05
2.9737e-05
-6.72943e-05
-3.29758e-05
1.51695e-05
-6.10602e-05
4.22333e-05
-8.29124e-05
6.3407e-05
-9.87785e-05
7.89898e-05
-0.000108897
8.96294e-05
-0.000113463
9.58334e-05
-0.000112695
9.80002e-05
-0.000106854
9.65037e-05
-9.66872e-05
9.18039e-05
-8.28484e-05
8.44772e-05
-6.56779e-05
7.49941e-05
-4.63787e-05
6.38737e-05
-2.64362e-05
5.18494e-05
-7.15148e-06
3.96559e-05
1.0201e-05
2.80799e-05
2.44964e-05
1.79413e-05
3.50223e-05
9.90322e-06
4.15578e-05
4.22241e-06
4.40323e-05
8.2738e-07
4.25287e-05
-4.65137e-07
3.64681e-05
2.82041e-07
2.55131e-05
3.11661e-06
1.11962e-05
7.56705e-06
-4.67052e-06
1.27472e-05
-2.10947e-05
1.80483e-05
-3.71789e-05
2.31611e-05
-5.23034e-05
2.78856e-05
-6.61153e-05
3.21191e-05
-7.85019e-05
3.58473e-05
3.9006e-05
-8.85765e-05
-3.40525e-05
1.54959e-05
-6.32096e-05
4.32111e-05
-8.61623e-05
6.50624e-05
-0.000103212
8.13783e-05
-0.000114645
9.28281e-05
-0.000120707
9.99428e-05
-0.000121658
0.000103148
-0.000117835
0.000102839
-0.000109837
9.94553e-05
-9.84136e-05
9.3499e-05
-8.41305e-05
8.54653e-05
-6.80983e-05
7.59879e-05
-5.13615e-05
6.57921e-05
-3.50248e-05
5.5546e-05
-2.00044e-05
4.57716e-05
-7.20361e-06
3.6825e-05
2.29534e-06
2.9259e-05
8.08874e-06
2.36086e-05
1.00618e-05
2.00145e-05
8.38033e-06
1.83216e-05