/*--------------------------------*- C++ -*----------------------------------*\
| =========                 |                                                 |
| \\      /  F ield         | OpenFOAM: The Open Source CFD Toolbox           |
|  \\    /   O peration     | Version:  dev                                   |
|   \\  /    A nd           | Web:      www.OpenFOAM.org                      |
|    \\/     M anipulation  |                                                 |
\*---------------------------------------------------------------------------*/
FoamFile
{
    version     2.0;
    format      ascii;
    class       volScalarField;
    location    "2.22";
    object      p;
}
// * * * * * * * * * * * * * * * * * * * * * * * * * * * * * * * * * * * * * //

dimensions      [0 2 -2 0 0 0 0];

internalField   nonuniform List<scalar> 
2790
(
88.769
88.6317
88.7859
89.1562
89.6544
90.2567
90.9632
91.7756
92.6935
93.7165
94.8451
96.0807
97.4248
98.8787
100.443
102.116
103.898
105.785
107.77
109.844
111.995
114.202
116.44
118.674
120.859
122.938
124.844
126.497
127.806
128.645
88.6164
88.5739
88.7482
89.1166
89.6129
90.2137
90.9178
91.7267
92.64
93.6574
94.7793
96.0072
97.3425
98.7862
100.339
102
103.767
105.638
107.606
109.664
111.797
113.988
116.212
118.437
120.619
122.705
124.63
126.318
127.678
128.644
88.4744
88.5056
88.6977
89.0582
89.546
90.1394
90.8348
91.6328
92.5332
93.5354
94.6395
95.8465
97.1576
98.5733
100.093
101.716
103.44
105.261
107.172
109.164
111.223
113.333
115.469
117.598
119.68
121.662
123.476
125.034
126.198
126.554
88.3304
88.4005
88.6065
88.9608
89.4392
90.0233
90.7075
91.4917
92.3752
93.357
94.4373
95.6163
96.8945
98.2716
99.7465
101.317
102.979
104.728
106.556
108.451
110.399
112.381
114.369
116.33
118.218
119.968
121.491
122.638
123.218
121.924
88.1756
88.2666
88.485
88.8357
89.3045
89.8768
90.5467
91.313
92.1746
93.1305
94.1801
95.3234
96.5598
97.8882
99.3063
100.811
102.396
104.055
105.778
107.552
109.359
111.176
112.972
114.706
116.321
117.731
118.808
119.299
119.105
115.597
88.0056
88.1084
88.3351
88.6819
89.1394
89.6968
90.3487
91.0933
91.9287
92.8534
93.8666
94.9674
96.1545
97.4256
98.7772
100.204
101.7
103.255
104.857
106.49
108.132
109.756
111.324
112.785
114.064
115.052
115.581
115.269
114.321
108.628
87.8183
87.9277
88.1587
88.5002
88.9448
89.4852
90.1162
90.8356
91.6407
92.5297
93.5012
94.5534
95.6842
96.8901
98.1664
99.5064
100.901
102.34
103.807
105.282
106.741
108.149
109.461
110.614
111.517
112.031
111.965
110.788
109.208
101.708
87.6127
87.7256
87.9575
88.2918
88.7221
89.2432
89.8507
90.5415
91.3125
92.1614
93.0862
94.0842
95.1524
96.2861
97.4792
98.7234
100.008
101.319
102.639
103.944
105.204
106.38
107.416
108.238
108.738
108.753
108.087
106.043
103.955
95.1108
87.3884
87.5028
87.7328
88.0582
88.4725
88.9724
89.5537
90.2128
90.9462
91.7512
92.6247
93.5634
94.5634
95.6188
96.7219
97.8628
99.029
100.204
101.367
102.491
103.541
104.471
105.217
105.694
105.779
105.285
104.033
101.149
98.6357
88.8167
87.1457
87.2603
87.4862
87.8006
88.1974
88.6741
89.2268
89.8515
90.5442
91.3016
92.1199
92.995
93.922
94.8938
95.9012
96.9328
97.974
99.006
100.005
100.94
101.771
102.446
102.893
103.017
102.681
101.676
99.8525
96.1631
93.2316
82.6282
86.8849
86.9988
87.2188
87.5206
87.8984
88.3501
88.8721
89.4599
90.1092
90.8159
91.5755
92.3834
93.2334
94.1172
95.0242
95.9414
96.8524
97.7359
98.5649
99.3053
99.9121
100.327
100.472
100.238
99.4797
97.9648
95.5712
91.094
87.6557
76.2354
86.607
86.7193
86.932
87.2197
87.5769
88.0021
88.4915
89.0402
89.6437
90.2971
90.9952
91.7327
92.5024
93.2946
94.0977
94.897
95.6741
96.4054
97.0613
97.6039
97.9837
98.1372
97.9784
97.3881
96.2081
94.1809
91.2021
85.9294
81.7743
69.2574
86.3127
86.4227
86.627
86.8994
87.2347
87.6319
88.087
88.5949
89.1505
89.7484
90.3827
91.0473
91.7342
92.4324
93.129
93.8081
94.4491
95.0264
95.5079
95.852
96.0053
95.8993
95.44
94.4974
92.8992
90.3594
86.763
80.6613
75.4374
61.2476
86.0032
86.1104
86.3051
86.5611
86.8735
87.2414
87.6608
88.1262
88.6323
89.173
89.7418
90.3319
90.9341
91.5367
92.1254
92.6829
93.1872
93.6107
93.9185
94.0661
93.9968
93.6367
92.8845
91.5997
89.5941
86.551
82.3039
75.3336
68.5475
51.6259
85.6793
85.7833
85.9679
86.2065
86.4949
86.8325
87.215
87.6369
88.0923
88.5745
89.0767
89.5912
90.1079
90.614
91.0945
91.5308
91.8993
92.1708
92.3081
92.2643
91.9798
91.3756
90.3443
88.7365
86.3489
82.8366
77.9488
70.1455
61.3384
39.4525
4.61263
4.60748
4.56392
4.43882
4.21387
3.92466
3.62075
3.32854
3.0545
2.79833
2.55945
2.3379
2.13448
1.95115
1.7915
1.65828
1.54891
1.45752
1.38159
1.32426
1.28744
1.26461
1.24193
1.20672
1.15402
1.07918
0.968356
0.802351
0.565041
0.245844
4.6133
4.60621
4.5572
4.42656
4.19847
3.90976
3.60795
3.31768
3.04492
2.78933
2.55068
2.32919
2.12532
1.94078
1.78026
1.64825
1.54108
1.45015
1.37248
1.3147
1.28137
1.2649
1.24775
1.21467
1.16415
1.09548
0.990713
0.825416
0.581543
0.244054
4.61652
4.60736
4.54901
4.40743
4.17262
3.88395
3.58525
3.29814
3.0275
2.77292
2.53498
2.31405
2.10989
1.92356
1.76184
1.63313
1.53016
1.43824
1.35495
1.29514
1.26882
1.26558
1.25952
1.22849
1.17358
1.10045
0.989975
0.81682
0.563978
0.21636
4.62444
4.61346
4.5424
4.38514
4.14082
3.85159
3.55614
3.27266
3.00451
2.75092
2.51428
2.29508
2.09108
1.90222
1.73815
1.61481
1.52294
1.43375
1.34336
1.27462
1.24433
1.24086
1.23694
1.20991
1.15651
1.07585
0.954606
0.77505
0.519658
0.183088
4.63974
4.6275
4.54024
4.36329
4.10754
3.81707
3.52424
3.24434
2.97882
2.72556
2.49109
2.27844
2.07927
1.88627
1.71231
1.58361
1.49691
1.41902
1.33681
1.26673
1.2256
1.20741
1.19112
1.15756
1.09887
1.00899
0.878804
0.695322
0.446438
0.148404
4.66589
4.65322
4.54595
4.34623
4.078
3.78539
3.4939
3.21692
2.95681
2.70502
2.46426
2.2472
2.05296
1.87129
1.70574
1.57351
1.47651
1.3946
1.31471
1.24397
1.19267
1.15749
1.12394
1.07697
1.0074
0.909078
0.774526
0.592391
0.360273
0.113381
4.70755
4.69531
4.5642
4.33976
4.05836
3.76108
3.4693
3.18604
2.92015
2.67276
2.4396
2.2247
2.03036
1.85269
1.69389
1.56225
1.45707
1.36597
1.28041
1.2032
1.13938
1.08626
1.03368
0.970212
0.887867
0.782801
0.647941
0.473164
0.266859
0.0779782
4.77231
4.75999
4.60074
4.34737
4.04712
3.73555
3.43244
3.1481
2.88149
2.63345
2.40364
2.19338
2.00243
1.82883
1.67415
1.54203
1.43013
1.32982
1.23515
1.1469
1.06733
0.994342
0.921196
0.84001
0.745258
0.63525
0.50339
0.341631
0.168406
0.0420234
4.87172
4.85304
4.65472
4.3611
4.02927
3.69842
3.38561
3.09473
2.82648
2.58007
2.35451
2.14962
1.96412
1.79608
1.64544
1.51268
1.39463
1.28491
1.179
1.07657
0.978603
0.883962
0.788992
0.689503
0.583037
0.469204
0.342972
0.199339
0.065335
0.00527179
5.01816
4.97379
4.71334
4.36383
3.99599
3.64231
3.3155
3.01817
2.74973
2.50775
2.28937
2.09227
1.91419
1.75292
1.60695
1.4744
1.35129
1.23234
1.11383
0.994947
0.876345
0.758231
0.639953
0.521205
0.403035
0.28563
0.166571
0.0459409
-0.0429907
-0.0326829
5.21902
5.11449
4.7577
4.34185
3.93122
3.55139
3.2109
2.91055
2.64683
2.41412
2.20685
2.02067
1.85239
1.69946
1.55931
1.42838
1.30179
1.17442
1.04278
0.905863
0.764596
0.620775
0.476774
0.336292
0.204376
0.0839871
-0.0260818
-0.120216
-0.157896
-0.0724188
5.48663
5.25015
4.76592
4.27217
3.81394
3.40852
3.06037
2.76556
2.51514
2.29876
2.1076
1.93571
1.77962
1.63688
1.50429
1.37697
1.24891
1.11447
0.969863
0.813935
0.648048
0.475706
0.302415
0.1361
-0.013447
-0.138954
-0.238343
-0.301401
-0.281224
-0.114679
5.80867
5.33535
4.69969
4.12183
3.61683
3.19537
2.85413
2.57991
2.35535
2.1642
1.99458
1.83997
1.69793
1.56712
1.44424
1.32306
1.19601
1.05634
0.899535
0.724084
0.531671
0.327353
0.11981
-0.0783758
-0.251797
-0.387057
-0.475641
-0.501093
-0.413768
-0.160029
6.11455
5.2988
4.50878
3.84518
3.30743
2.89462
2.58688
2.35575
2.1731
2.01679
1.8733
1.73756
1.61021
1.49259
1.38178
1.26979
1.14672
1.00412
0.836455
0.641565
0.42113
0.18136
-0.0661611
-0.303973
-0.510087
-0.662734
-0.742795
-0.723209
-0.555141
-0.209075
5.85542
5.09498
4.11764
3.3821
2.8528
2.49646
2.26349
2.10496
1.98177
1.86819
1.75217
1.63347
1.51887
1.41462
1.31843
1.2192
1.10347
0.960588
0.783854
0.570289
0.32117
0.043317
-0.24924
-0.534172
-0.781784
-0.959091
-1.03245
-0.962037
-0.702828
-0.261853
85.3359
85.4364
85.6099
85.83
86.0932
86.399
86.7432
87.1198
87.5226
87.9445
88.378
88.8149
89.2441
89.6522
90.023
90.337
90.5693
90.689
90.6574
90.4259
89.9319
89.0936
87.799
85.8934
83.1645
79.2559
73.8416
65.4696
54.8029
22.8949
84.9689
85.0654
85.227
85.4274
85.6639
85.9363
86.2402
86.5696
86.9178
87.2771
87.6397
87.9968
88.3365
88.6445
88.9042
89.0951
89.1911
89.1604
88.9634
88.5501
87.8567
86.8003
85.2693
83.1106
80.1183
75.9659
70.353
62.2101
52.7476
45.0063
84.5809
84.6733
84.8222
85.0018
85.2103
85.448
85.7104
85.991
86.283
86.5783
86.8687
87.1446
87.3939
87.6016
87.7503
87.819
87.7812
87.6044
87.2487
86.6639
85.7869
84.537
82.8084
80.4612
77.3184
73.1373
67.7848
60.9311
53.7679
50.1516
84.1726
84.2606
84.3961
84.5538
84.7334
84.9354
85.1551
85.386
85.6206
85.8508
86.0682
86.2626
86.4215
86.5294
86.5686
86.5179
86.3505
86.0341
85.5292
84.7871
83.7475
82.3352
80.4565
77.9949
74.819
70.7836
65.8703
60.0028
53.2724
46.8934
83.7449
83.8281
83.9497
84.0847
84.2343
84.3997
84.5762
84.7564
84.9329
85.0977
85.2419
85.3552
85.4247
85.4344
85.3667
85.2007
84.91
84.4628
83.8211
82.9394
81.7622
80.2227
78.244
75.7375
72.6149
68.797
64.278
59.0145
52.8964
46.8024
83.2987
83.3769
83.4841
83.5957
83.7146
83.8429
83.9753
84.1044
84.2227
84.3223
84.3939
84.4271
84.4088
84.3229
84.1525
83.877
83.4708
82.9035
82.1396
81.1384
79.8501
78.2191
76.1866
73.6894
70.6716
67.0918
62.949
58.2553
53.0209
47.8204
82.8352
82.9082
83.0006
83.0883
83.176
83.2669
83.3549
83.4326
83.4931
83.5281
83.5282
83.4832
83.3796
83.2019
82.934
82.556
82.0435
81.3682
80.4984
79.3986
78.0255
76.3362
74.2887
71.8396
68.9561
65.6217
61.847
57.6695
53.1263
48.5274
82.3561
82.4234
82.5006
82.5642
82.6208
82.6739
82.7174
82.7439
82.7473
82.719
82.6496
82.5287
82.3432
82.0784
81.7193
81.2467
80.6382
79.8683
78.9096
77.7314
76.2987
74.5804
72.5478
70.1728
67.4385
64.3433
60.9042
57.1589
53.1447
49.0617
81.8632
81.9243
81.9858
82.0254
82.051
82.0664
82.0656
82.0419
81.9893
81.8992
81.7624
81.5689
81.3056
80.9597
80.5163
79.9577
79.2645
78.414
77.3826
76.1455
74.676
72.9528
70.9568
68.6713
66.0902
63.2202
60.081
56.708
53.1407
49.5251
81.3582
81.4127
81.4582
81.4742
81.469
81.447
81.4028
81.3302
81.223
81.073
80.8717
80.609
80.2732
79.8524
79.3322
78.6971
77.9308
77.0129
75.9246
74.6469
73.1603
71.4504
69.5055
67.3176
64.8878
62.2267
59.3556
56.3072
53.1192
49.9005
80.8433
80.8908
80.9203
80.9128
80.8773
80.8185
80.7322
80.6121
80.4521
80.245
79.9824
79.6549
79.2519
78.7625
78.1735
77.472
76.6437
75.6715
74.5413
73.239
71.7508
70.0675
68.1831
66.0961
63.8115
61.3424
58.7096
55.9424
53.0739
50.1878
80.3206
80.3611
80.3747
80.3441
80.2788
80.1843
80.0572
79.8913
79.681
79.4197
79.0996
78.7119
78.2475
77.6961
77.0467
76.2883
75.4087
74.3949
73.2363
71.9224
70.4444
68.7971
66.9788
64.9922
62.8448
60.5503
58.1282
55.6042
53.0064
50.4007
79.7929
79.826
79.8237
79.7707
79.6767
79.5478
79.3814
79.1717
78.9138
78.6017
78.2281
77.7853
77.2652
76.659
75.9573
75.1512
74.2308
73.1866
72.0106
70.6957
69.2369
67.6319
65.8824
63.9932
61.9736
59.8368
57.6008
55.2873
52.9201
50.5517
79.2629
79.2884
79.2705
79.1956
79.0741
78.9124
78.7085
78.4572
78.1546
77.7954
77.3728
76.8799
76.3101
75.6561
74.9102
74.065
73.1133
72.0481
70.8638
69.5565
68.1234
66.5648
64.8842
63.0882
61.1863
59.1913
57.119
54.9881
52.8183
50.6515
78.7333
78.7513
78.7182
78.6223
78.4744
78.2816
78.0424
77.752
77.4077
77.0052
76.538
76.0004
75.387
74.692
73.9093
73.0332
72.0583
70.9801
69.7951
68.5015
67.0986
65.5883
63.9754
62.2671
60.4731
58.605
56.6769
54.7045
52.704
50.7093
78.2073
78.2181
78.1705
78.0541
77.8811
77.6589
77.3867
77.0603
76.6775
76.2354
75.7283
75.1512
74.5002
73.7706
72.9578
72.0578
71.0669
69.9823
68.8026
67.5274
66.1575
64.6958
63.148
61.5216
59.8258
58.0711
56.2698
54.435
52.5804
50.7333
77.6881
77.6921
77.6307
77.4947
77.2979
77.0482
76.7453
76.3859
75.9685
75.4906
74.9479
74.3364
73.6533
72.8949
72.0583
71.1405
70.1396
69.0542
67.8843
66.6306
65.2949
63.8811
62.3952
60.8446
59.2376
57.584
55.8941
54.1791
52.4505
50.7305
77.1794
77.1768
77.1024
76.948
76.7288
76.4534
76.1223
75.7331
75.2845
74.7748
74.2008
73.5598
72.8495
72.0678
71.2126
70.2825
69.2764
68.1945
67.0376
65.8074
64.5064
63.1389
61.7111
60.2299
58.7031
57.1391
55.5471
53.9366
52.317
50.7066
76.685
76.676
76.5894
76.4177
76.1776
75.8788
75.5221
75.106
74.6295
74.0917
73.4906
72.8245
72.0919
71.2915
70.4225
69.4844
68.4772
67.402
66.2603
65.0546
63.7878
62.4644
61.0905
59.6725
58.2176
56.7331
55.2271
53.7076
52.1825
50.667
76.2089
76.1936
76.0956
75.9079
75.6487
75.3284
74.9486
74.5084
74.0074
73.4452
72.8209
72.1337
71.3828
70.5681
69.6892
68.7467
67.7416
66.6753
65.5502
64.3691
63.1354
61.8534
60.5291
59.1683
57.7776
56.3635
54.9329
53.4927
52.0496
50.616
75.7554
75.7338
75.6251
75.4226
75.1459
74.8064
74.4061
73.9445
73.4221
72.8389
72.195
71.4903
70.7249
69.8992
69.0138
68.0699
67.069
66.0133
64.9054
63.7485
62.5461
61.3026
60.0234
58.7141
57.3804
56.0283
54.6637
53.2924
51.9204
50.5577
75.3288
75.301
75.182
74.9662
74.6737
74.317
73.8984
73.4182
72.8772
72.2761
71.6159
70.897
70.1202
69.2866
68.3974
67.4542
66.4592
65.4149
64.3243
63.1906
62.0174
60.8091
59.5707
58.3073
57.0242
55.7264
54.4193
53.1079
51.7973
50.4958
74.9336
74.8996
74.771
74.5429
74.2363
73.8642
73.4297
72.9334
72.3765
71.7605
71.0868
70.3565
69.571
68.7319
67.8409
66.9001
65.912
64.8794
63.8054
62.6935
61.5473
60.3708
59.1688
57.9461
56.7071
55.4567
54.1995
52.9398
51.682
50.4331
74.5745
74.5344
74.3965
74.1571
73.838
73.4526
73.0043
72.4942
71.9239
71.2955
70.6109
69.8717
69.0799
68.2372
67.346
66.4087
65.428
64.4069
63.3486
62.2568
61.1348
59.9868
58.817
57.6297
56.4292
55.2198
54.0054
52.79
51.5773
50.3734
74.2565
74.2104
74.0633
73.8135
73.4832
73.0862
72.6261
72.1043
71.523
70.8844
70.191
69.445
68.6484
67.8037
66.9134
65.98
65.0067
63.9965
62.9527
61.8788
60.7783
59.6551
58.5132
57.3565
56.189
55.0143
53.8363
52.6583
51.4837
50.3174
73.9851
73.9326
73.7761
73.5164
73.1765
72.7698
72.3
71.7688
71.1785
70.532
69.8319
69.0808
68.2811
67.4355
66.5466
65.6175
64.6512
63.6509
62.6199
61.5617
60.4798
59.3779
58.2596
57.1288
55.9889
54.8434
53.6957
52.549
51.4062
50.2715
73.7668
73.7065
73.5392
73.2698
72.9214
72.5064
72.0283
71.4892
70.8917
70.2389
69.5338
68.779
67.9773
67.1316
66.2446
65.3195
64.3595
63.3678
62.3477
61.3027
60.2363
59.1518
58.0529
56.943
55.8255
54.7035
53.5802
52.4583
51.3407
50.2306
73.6096
73.537
73.3576
73.0809
72.7267
72.3056
71.8212
71.276
70.6732
70.0158
69.307
68.5496
67.7467
66.9011
66.016
65.0944
64.1396
63.1549
62.1437
61.1092
60.055
58.9844
57.9008
56.8074
55.7074
54.6038
53.4995
52.3973
51.2996
50.2095
73.5265
73.4227
73.2247
72.9423
72.585
72.1601
71.6717
71.1229
70.517
69.8571
69.1463
68.3878
67.5845
66.7396
65.8561
64.9373
63.9865
63.0068
62.0018
60.9747
59.9288
58.8675
57.7942
56.7118
55.6234
54.5319
53.4401
52.3505
51.2656
50.1877
73.5475
73.3905
73.1696
72.8809
72.5201
72.0914
71.5995
71.0479
70.4398
69.7784
69.0666
68.3077
67.5047
66.6606
65.7787
64.8623
63.9144
62.9385
61.9378
60.9157
59.8755
58.8204
57.7537
56.6784
55.5973
54.5135
53.4293
52.3475
51.2703
50.1995
-65.2155
-37.3457
-10.6904
36.5137
33.1085
28.7965
40.1308
31.3961
25.4776
37.1489
31.119
27.1654
40.1086
35.6391
32.1274
42.5061
38.7478
35.6132
43.9698
40.786
38.1187
45.1485
42.4398
40.1621
46.129
43.782
41.8033
46.9107
44.8472
43.1058
47.5285
45.6953
44.1466
48.015
46.3715
44.9811
48.3941
46.9086
45.6499
48.6857
47.333
46.1851
48.9063
47.6661
46.6121
49.0691
47.925
46.9511
49.1852
48.1234
47.2184
49.2638
48.273
47.4271
49.3125
48.383
47.5882
49.338
48.4614
47.7109
49.3457
48.515
47.8026
49.3408
48.5496
47.8702
49.3269
48.5697
47.9186
49.3091
48.581
47.9539
49.2882
48.5844
47.9778
49.2718
48.5883
47.9983
49.2536
48.5863
48.0101
49.2514
48.5964
48.03
49.241
48.5947
48.0359
49.2659
48.6287
48.0741
10.4679
5.58069
3.14868
2.4862
2.09394
1.92191
1.85579
1.82633
1.7905
1.72791
1.63669
1.52912
1.42349
1.33345
1.25589
1.17368
1.06875
0.928214
0.744464
0.513772
0.236679
-0.0797194
-0.419185
-0.754592
-1.04814
-1.25518
-1.32874
-1.2194
-0.880667
-0.319713
18.6976
6.57377
2.87765
2.52864
2.36494
2.15925
2.00697
1.89571
1.78944
1.67257
1.54693
1.42304
1.31644
1.24011
1.18382
1.12284
1.03405
0.900555
0.713385
0.468209
0.16475
-0.189166
-0.574307
-0.958242
-1.29538
-1.52983
-1.6003
-1.45051
-1.04805
-0.392519
18.3033
10.0715
6.34663
4.91145
3.89185
3.0393
2.44886
2.08336
1.85289
1.68804
1.55294
1.43338
1.32985
1.24903
1.18713
1.12483
1.03449
0.893956
0.693259
0.427448
0.094311
-0.298171
-0.727574
-1.15533
-1.5266
-1.77424
-1.82738
-1.63103
-1.17532
-0.432645
22.2104
16.241
11.9293
9.05481
6.96825
5.38613
4.23307
3.41752
2.83021
2.38903
2.04579
1.77429
1.56167
1.40037
1.27777
1.17138
1.05208
0.893514
0.677515
0.392058
0.0327852
-0.39121
-0.853724
-1.30994
-1.69779
-1.94422
-1.97841
-1.75894
-1.27589
-0.406302
27.5786
22.3261
17.5952
13.8311
10.9744
8.78074
7.08268
5.77084
4.75274
3.95256
3.31565
2.80542
2.39699
2.07044
1.80424
1.57211
1.34492
1.09602
0.805177
0.459392
0.0549612
-0.398357
-0.873837
-1.32667
-1.69661
-1.91651
-1.92969
-1.71756
-1.20064
-0.27856
31.7044
27.1591
22.553
18.5152
15.2567
12.6387
10.507
8.76802
7.35208
6.19622
5.24718
4.46412
3.8155
3.27448
2.81498
2.40957
2.0302
1.65128
1.25277
0.822221
0.357065
-0.132413
-0.620732
-1.06718
-1.41968
-1.62339
-1.63312
-1.41566
-0.902882
-0.1502
34.8608
30.9858
26.7511
22.7804
19.3932
16.5458
14.1304
12.0794
10.3456
8.88191
7.64352
6.59231
5.69617
4.92652
4.25642
3.65925
3.10902
2.58228
2.06051
1.53237
0.996065
0.461244
-0.0500321
-0.504052
-0.859294
-1.07321
-1.11044
-0.929872
-0.541462
-0.0673884
37.3882
34.0338
30.211
26.4615
23.1228
20.2081
17.651
15.4087
13.4535
11.7544
10.2782
8.9937
7.87236
6.88757
6.01431
5.22844
4.50684
3.82898
3.17876
2.54625
1.92959
1.3364
0.783992
0.298117
-0.0903676
-0.350504
-0.456057
-0.393996
-0.206065
0.000212855
39.3899
36.4393
33.005
29.5363
26.3466
23.4758
20.8861
18.5541
16.467
14.6079
12.9553
11.4862
10.1776
9.00675
7.95271
6.99494
6.11368
5.29149
4.51481
3.7751
3.0701
2.40473
1.79104
1.24705
0.793774
0.451092
0.233264
0.135217
0.110835
0.0776204
40.9753
38.3493
35.2593
32.0764
29.0783
26.3137
23.7623
21.4133
19.2649
17.3104
15.5385
13.9344
12.48
11.1577
9.95158
8.84506
7.82179
6.86738
5.97056
5.12394
4.3248
3.5756
2.88362
2.25999
1.71733
1.26624
0.911153
0.64003
0.412545
0.167501
42.2442
39.8841
37.0898
34.1721
31.3739
28.7442
26.2715
23.953
21.7932
19.7931
17.9492
16.253
14.691
13.2508
11.9215
10.6906
9.54475
8.47233
7.46417
6.51381
5.6181
4.77749
3.99554
3.27801
2.63096
2.05812
1.5575
1.11578
0.700824
0.267654
43.2662
41.1271
38.5847
35.904
33.298
30.8121
28.4389
26.1794
24.0418
22.0319
20.1518
18.3974
16.7601
15.2319
13.8061
12.4735
11.2238
10.0478
8.93814
7.88932
6.89791
5.9628
5.08482
4.26592
3.50767
2.80921
2.16497
1.56211
0.975954
0.373482
44.0916
42.1385
39.8117
37.34
34.9117
32.5676
30.302
28.1172
26.0233
24.0287
22.1383
20.352
18.6655
17.0745
15.575
14.1606
12.8239
11.558
10.3571
9.21643
8.13268
7.10369
6.12837
5.2061
4.33558
3.51333
2.73217
1.97983
1.23739
0.480447
44.7589
42.9641
40.8226
38.5345
36.2677
34.0582
31.9009
29.7982
27.7607
25.7978
23.916
22.1178
20.4025
18.7686
17.2139
15.7348
14.3263
12.9834
11.7013
10.4764
9.30547
8.18584
7.11523
6.09141
5.11134
4.17017
3.26019
2.37006
1.48475
0.585236
45.2983
43.6391
41.6575
39.5305
37.4088
35.3245
33.2721
31.2535
29.2789
27.3579
25.4977
23.7025
21.9742
20.3131
18.7187
17.1896
15.7228
14.3145
12.9611
11.66
10.4083
9.20303
8.04135
6.92015
5.83549
4.78185
3.75156
2.73432
1.71764
0.685744
45.7335
44.191
42.348
40.3622
38.3702
36.4006
34.4472
32.5113
30.6021
28.729
26.8992
25.1181
23.3888
21.7129
20.0912
18.5245
17.0113
15.548
14.1324
12.7632
11.4378
10.1531
8.90593
7.69299
6.50989
5.35097
4.20884
3.07415
1.93613
0.780957
46.0834
44.6417
42.9191
41.0572
39.1806
37.315
35.4537
33.5971
31.7532
29.9309
28.137
26.3775
24.6562
22.9752
21.3362
19.7421
18.1921
16.6831
15.2142
13.7851
12.3932
11.0357
9.70957
8.41131
7.13657
5.8798
4.63405
3.3908
2.14047
0.870419
46.3635
45.009
43.3911
41.6379
39.8638
38.0919
36.3153
34.5332
32.7527
30.9816
29.2265
27.4932
25.786
24.1073
22.4595
20.8463
19.2678
17.7217
16.208
14.7265
13.2754
11.852
10.4535
9.07671
7.71737
6.37022
5.02877
3.68526
2.33085
0.95392
46.5862
45.3074
43.7807
42.1229
40.4394
38.7516
37.052
35.339
33.6187
31.8977
30.1823
28.478
26.7892
25.1182
23.4683
21.8429
20.2426
18.6665
17.1152
15.5886
14.0852
12.6028
11.1389
9.69045
8.25364
6.82351
5.39402
3.95803
2.50741
1.03148
46.7622
45.5489
44.1017
42.5274
40.924
39.3111
37.681
36.0315
34.3672
32.6944
31.0184
29.3443
27.6763
26.0169
24.3693
22.7369
21.1205
19.5206
17.9382
16.3732
14.8243
13.2896
11.767
10.2538
8.74667
7.24085
5.73079
4.20993
2.67079
1.10335
46.9
45.7436
44.3655
42.8642
41.3312
39.7848
38.2169
36.6248
35.0123
33.3846
31.7465
30.1025
28.4563
26.8107
25.169
23.5338
21.9065
20.2884
18.6802
17.0825
15.4944
13.9139
12.339
10.7678
9.19724
7.62281
6.03941
4.44105
2.82085
1.16931
47.0073
45.9
44.5818
43.1441
41.6728
40.1849
38.6724
37.1318
35.5662
33.9801
32.3777
30.7628
29.1388
27.5086
25.875
24.2402
22.6062
20.9739
19.3445
17.7196
16.0983
14.4775
12.8562
11.2335
9.60633
7.97028
6.32073
4.65219
2.95824
1.22982
47.09
46.0249
44.7585
43.3758
41.9581
40.5214
39.0576
37.5627
36.0392
34.4909
32.9215
31.3341
29.7317
28.1171
26.4928
24.8608
23.2229
21.5802
19.9336
18.2859
16.6362
14.9807
13.319
11.651
9.97361
8.28266
6.5739
4.8423
3.08191
1.28415
47.1542
46.1253
44.9031
43.5677
42.1963
40.8039
39.3825
37.9277
36.4414
34.9269
33.3872
31.8251
30.2431
28.6438
27.0293
25.4014
23.7619
22.1117
20.4521
18.7852
17.1107
15.4259
13.7301
12.0229
10.3014
8.56205
6.80095
5.01338
3.19377
1.33368
47.2029
46.2044
45.0197
43.7244
42.3922
41.0376
39.6525
38.2323
36.7782
35.2932
33.7799
32.2404
30.6771
29.0921
27.4871
25.8639
24.224
22.5687
20.8991
19.2166
17.521
15.8112
14.0865
12.3455
10.5859
8.80456
6.99786
5.16139
3.28996
1.37565
47.2433
46.27
45.1165
43.8545
42.5551
41.232
39.8774
38.4864
37.0597
35.5999
34.1092
32.5896
31.0427
29.4704
27.8743
26.2559
24.6168
22.958
21.2806
19.5854
17.8728
16.1424
14.3933
12.6239
10.8322
9.01529
7.16969
5.2913
3.3751
1.41347
47.2722
46.3192
45.1906
43.9554
42.6822
41.3847
40.0547
38.6873
37.2828
35.8436
34.3716
32.8683
31.3352
29.7735
28.1849
26.5709
24.9328
23.2717
21.5883
19.8833
18.1573
16.41
14.6409
12.8485
11.0305
9.18427
7.30666
5.39384
3.441
1.4416
47.3033
46.3658
45.2565
44.0418
42.7888
41.5108
40.1998
38.8505
37.4633
36.0401
34.5826
33.0921
31.5696
30.0163
28.4335
26.8231
25.1861
23.5232
21.8352
20.1229
18.3864
16.6259
14.8412
13.0308
11.1922
9.32258
7.41936
5.47881
3.49632
1.46575
47.319
46.3915
45.2949
44.0943
42.8551
41.5903
40.2921
38.9552
37.5797
36.1673
34.7197
33.238
31.7232
30.1755
28.5964
26.9885
25.3527
23.6889
21.9979
20.2805
18.5371
16.7676
14.9722
13.1495
11.2968
9.41121
7.49049
5.53085
3.52781
1.4761
47.3565
46.428
45.3378
44.1457
42.9143
41.6565
40.3649
39.0343
37.6646
36.2575
34.8145
33.337
31.8258
30.2805
28.7025
27.0954
25.4596
23.7943
22.1005
20.3795
18.6313
16.8559
15.0535
13.2229
11.3612
9.46543
7.53271
5.55949
3.54032
1.46503
)
;

boundaryField
{
    inlet
    {
        type            zeroGradient;
    }
    outlet
    {
        type            fixedValue;
        value           uniform 0;
    }
    flap
    {
        type            zeroGradient;
    }
    upperWall
    {
        type            zeroGradient;
    }
    lowerWall
    {
        type            zeroGradient;
    }
    frontAndBack
    {
        type            empty;
    }
}


// ************************************************************************* //
