/*--------------------------------*- C++ -*----------------------------------*\
| =========                 |                                                 |
| \\      /  F ield         | OpenFOAM: The Open Source CFD Toolbox           |
|  \\    /   O peration     | Version:  dev                                   |
|   \\  /    A nd           | Web:      www.OpenFOAM.org                      |
|    \\/     M anipulation  |                                                 |
\*---------------------------------------------------------------------------*/
FoamFile
{
    version     2.0;
    format      ascii;
    class       pointVectorField;
    location    "2.22";
    object      pointDisplacement;
}
// * * * * * * * * * * * * * * * * * * * * * * * * * * * * * * * * * * * * * //

dimensions      [0 1 0 0 0 0 0];

internalField   nonuniform List<vector> 
5828
(
(0 0 0)
(0.0247289 0 0)
(0.0466314 0 0)
(0.065081 0 0)
(0.0804372 0 0)
(0.0930419 0 0)
(0.103187 0 0)
(0.111125 0 0)
(0.117087 0 0)
(0.121272 0 0)
(0.123847 0 0)
(0.124959 0 0)
(0.124736 0 0)
(0.123292 0 0)
(0.120724 0 0)
(0.117125 0 0)
(0.112576 0 0)
(0.107154 0 0)
(0.100934 0 0)
(0.093993 0 0)
(0.0864065 0 0)
(0.078255 0 0)
(0.069626 0 0)
(0.0606177 0 0)
(0.0513453 0 0)
(0.0419525 0 0)
(0.032635 0 0)
(0.0237059 0 0)
(0.0157243 0 0)
(0.00998869 0 0)
(1.1023e-09 0 0)
(0 0 0)
(0.0247456 0 -0.000246974)
(0.0466636 0 -0.00046865)
(0.0651292 0 -0.000662165)
(0.0805021 0 -0.000832815)
(0.0931255 0 -0.000984554)
(0.10329 0 -0.00112028)
(0.111249 0 -0.00124158)
(0.117234 0 -0.00134944)
(0.121446 0 -0.00144458)
(0.124051 0 -0.0015268)
(0.125197 0 -0.00159563)
(0.125013 0 -0.00165075)
(0.123612 0 -0.00168935)
(0.121095 0 -0.00170806)
(0.117553 0 -0.00170477)
(0.11307 0 -0.0016759)
(0.107722 0 -0.00161657)
(0.101587 0 -0.00152263)
(0.0947453 0 -0.00138871)
(0.0872751 0 -0.00120658)
(0.0792609 0 -0.00096717)
(0.0707968 0 -0.000659885)
(0.0619908 0 -0.000271924)
(0.0529725 0 0.000212213)
(0.0439074 0 0.000810903)
(0.035016 0 0.00154637)
(0.0266326 0 0.0024443)
(0.0193647 0 0.00352087)
(0.0147128 0 0.00467653)
(0.0070799 0 0.00661355)
(0 0 0)
(0.0247953 0 -0.000494565)
(0.0467617 0 -0.000938598)
(0.0652754 0 -0.0013264)
(0.0806983 0 -0.0016686)
(0.0933746 0 -0.00197299)
(0.103597 0 -0.00224407)
(0.111619 0 -0.00248632)
(0.117677 0 -0.00270314)
(0.121969 0 -0.00289482)
(0.124665 0 -0.0030609)
(0.125912 0 -0.00320034)
(0.125842 0 -0.00331159)
(0.124571 0 -0.00339043)
(0.122202 0 -0.00343171)
(0.118829 0 -0.00343046)
(0.114542 0 -0.00337986)
(0.109419 0 -0.0032713)
(0.103541 0 -0.0030957)
(0.096994 0 -0.00284191)
(0.0898693 0 -0.00249539)
(0.0822611 0 -0.00203946)
(0.0742815 0 -0.00145511)
(0.0660637 0 -0.000719656)
(0.057772 0 0.000193989)
(0.0496308 0 0.00131569)
(0.0419549 0 0.00267532)
(0.0351876 0 0.00429279)
(0.0300089 0 0.00615279)
(0.0282242 0 0.00796308)
(0.0232254 0 0.0109504)
(0 0 0)
(0.0248779 0 -0.000741904)
(0.0469242 0 -0.0014082)
(0.0655177 0 -0.0019904)
(0.081023 0 -0.00250454)
(0.0937858 0 -0.00296243)
(0.104102 0 -0.00337109)
(0.112233 0 -0.00373708)
(0.118412 0 -0.00406528)
(0.122838 0 -0.0043563)
(0.125683 0 -0.0046096)
(0.127099 0 -0.00482356)
(0.127218 0 -0.00499442)
(0.126161 0 -0.00511838)
(0.124037 0 -0.00519025)
(0.120944 0 -0.00520147)
(0.116976 0 -0.00514238)
(0.112223 0 -0.00500265)
(0.106771 0 -0.00476805)
(0.100715 0 -0.00442146)
(0.0941598 0 -0.00394488)
(0.0872175 0 -0.00331669)
(0.0800302 0 -0.00251398)
(0.0727711 0 -0.00151053)
(0.0656493 0 -0.000275427)
(0.0589552 0 0.00122064)
(0.0531213 0 0.00299267)
(0.0488188 0 0.00500803)
(0.0469083 0 0.00715437)
(0.0492036 0 0.00888792)
(0.0475883 0 0.012005)
(0 0 0)
(0.0249921 0 -0.00098821)
(0.0471491 0 -0.00187599)
(0.0658529 0 -0.00265218)
(0.081473 0 -0.00333826)
(0.0943575 0 -0.00395037)
(0.104807 0 -0.00449875)
(0.113086 0 -0.00499123)
(0.11943 0 -0.00543349)
(0.124041 0 -0.00582725)
(0.127093 0 -0.00617202)
(0.128742 0 -0.00646623)
(0.129125 0 -0.00670565)
(0.128366 0 -0.00688569)
(0.126582 0 -0.00700023)
(0.123875 0 -0.00703882)
(0.120344 0 -0.00698918)
(0.116093 0 -0.00684007)
(0.111224 0 -0.00657567)
(0.105843 0 -0.00617558)
(0.100074 0 -0.00562006)
(0.094051 0 -0.00488573)
(0.0879461 0 -0.0039494)
(0.081983 0 -0.00278866)
(0.0764363 0 -0.00138204)
(0.0716828 0 0.000279399)
(0.0682424 0 0.0021764)
(0.0669511 0 0.00420095)
(0.0690299 0 0.00606408)
(0.076198 0 0.00697483)
(0.0782027 0 0.00949312)
(0 0 0)
(0.0251365 0 -0.00123325)
(0.0474337 0 -0.00234161)
(0.0662776 0 -0.00331135)
(0.082044 0 -0.00416947)
(0.0950843 0 -0.00493671)
(0.105702 0 -0.00562603)
(0.114168 0 -0.00624671)
(0.120721 0 -0.00680599)
(0.125564 0 -0.00730657)
(0.128877 0 -0.00774794)
(0.130821 0 -0.00812956)
(0.131538 0 -0.00844827)
(0.131158 0 -0.00869768)
(0.129802 0 -0.00887037)
(0.127584 0 -0.00895595)
(0.12461 0 -0.00894139)
(0.120994 0 -0.00881365)
(0.116854 0 -0.00855704)
(0.112318 0 -0.00815215)
(0.107531 0 -0.00758028)
(0.102656 0 -0.00682071)
(0.0979011 0 -0.00585528)
(0.0935377 0 -0.00467237)
(0.0899092 0 -0.00327011)
(0.0874873 0 -0.00167575)
(0.0869297 0 2.53085e-05)
(0.089114 0 0.00164228)
(0.0955083 0 0.00269695)
(0.10786 0 0.00218088)
(0.113511 0 0.00361416)
(0 0 0)
(0.0253101 0 -0.00147735)
(0.0477763 0 -0.00280576)
(0.0667891 0 -0.00396905)
(0.0827326 0 -0.00499971)
(0.0959609 0 -0.00592237)
(0.10678 0 -0.00675324)
(0.115469 0 -0.00750438)
(0.122271 0 -0.00818441)
(0.127394 0 -0.0087971)
(0.131023 0 -0.00934325)
(0.133322 0 -0.00982261)
(0.13444 0 -0.0102318)
(0.134512 0 -0.0105643)
(0.133667 0 -0.0108131)
(0.132032 0 -0.0109685)
(0.129727 0 -0.0110192)
(0.126873 0 -0.0109504)
(0.123602 0 -0.0107466)
(0.120063 0 -0.0103923)
(0.116433 0 -0.00987479)
(0.112912 0 -0.00918109)
(0.109742 0 -0.00830265)
(0.107243 0 -0.00724572)
(0.105838 0 -0.00604082)
(0.106069 0 -0.00475801)
(0.108709 0 -0.00355968)
(0.114774 0 -0.00275375)
(0.125718 0 -0.00295572)
(0.143178 0 -0.00530765)
(0.152268 0 -0.0052579)
(0 0 0)
(0.0255121 0 -0.00172074)
(0.0481748 0 -0.00326895)
(0.0673837 0 -0.00462609)
(0.0835307 0 -0.00583001)
(0.0969752 0 -0.00690849)
(0.108029 0 -0.00788226)
(0.11698 0 -0.00876708)
(0.124073 0 -0.00957236)
(0.12952 0 -0.0103034)
(0.133515 0 -0.0109638)
(0.136228 0 -0.0115523)
(0.137807 0 -0.0120643)
(0.138398 0 -0.0124953)
(0.138142 0 -0.0128395)
(0.137174 0 -0.013089)
(0.135626 0 -0.0132332)
(0.133639 0 -0.0132606)
(0.131364 0 -0.01316)
(0.128971 0 -0.0129202)
(0.126662 0 -0.012536)
(0.124676 0 -0.0120063)
(0.123296 0 -0.0113385)
(0.12289 0 -0.010562)
(0.123947 0 -0.0097439)
(0.127111 0 -0.00901548)
(0.133198 0 -0.00860617)
(0.14339 0 -0.0089529)
(0.159009 0 -0.0107656)
(0.181311 0 -0.0151892)
(0.193478 0 -0.0166757)
(0 0 0)
(0.0257402 0 -0.00196238)
(0.0486246 0 -0.00372924)
(0.0680546 0 -0.00527981)
(0.0844294 0 -0.00665729)
(0.0981178 0 -0.00789383)
(0.109442 0 -0.00901412)
(0.118689 0 -0.0100365)
(0.12611 0 -0.0109719)
(0.131924 0 -0.0118273)
(0.136328 0 -0.0126084)
(0.1395 0 -0.0133148)
(0.141595 0 -0.0139425)
(0.142765 0 -0.0144879)
(0.143164 0 -0.0149483)
(0.142941 0 -0.0153187)
(0.142239 0 -0.0155901)
(0.141215 0 -0.0157556)
(0.140045 0 -0.0158104)
(0.138923 0 -0.015751)
(0.138076 0 -0.0155814)
(0.137778 0 -0.0153152)
(0.138359 0 -0.0149811)
(0.140244 0 -0.0146397)
(0.143967 0 -0.0143942)
(0.150249 0 -0.0144351)
(0.160006 0 -0.015076)
(0.174434 0 -0.0168422)
(0.194688 0 -0.0205019)
(0.221511 0 -0.0270891)
(0.236376 0 -0.0301053)
(0 0 0)
(0.0259913 0 -0.00220125)
(0.0491202 0 -0.00418469)
(0.0687943 0 -0.00592755)
(0.0854219 0 -0.00747862)
(0.0993819 0 -0.0088751)
(0.111004 0 -0.0101448)
(0.120579 0 -0.0113081)
(0.12836 0 -0.0123782)
(0.134574 0 -0.0133638)
(0.139426 0 -0.0142721)
(0.143098 0 -0.0151058)
(0.145757 0 -0.015863)
(0.147565 0 -0.016542)
(0.148683 0 -0.0171423)
(0.149273 0 -0.0176614)
(0.149498 0 -0.0180967)
(0.149524 0 -0.0184438)
(0.149546 0 -0.0187047)
(0.149792 0 -0.018889)
(0.150517 0 -0.0190127)
(0.152031 0 -0.0191067)
(0.154702 0 -0.0192231)
(0.159015 0 -0.0194567)
(0.165573 0 -0.0199582)
(0.175125 0 -0.0209633)
(0.188703 0 -0.0228738)
(0.207398 0 -0.0262592)
(0.232175 0 -0.0319003)
(0.263118 0 -0.0406062)
(0.280372 0 -0.0450551)
(0 0 0)
(0.0262628 0 -0.0024369)
(0.0496569 0 -0.00463455)
(0.0695964 0 -0.00656837)
(0.0864995 0 -0.00829274)
(0.100755 0 -0.00984966)
(0.112699 0 -0.0112704)
(0.122627 0 -0.0125776)
(0.130799 0 -0.0137871)
(0.137446 0 -0.0149102)
(0.142784 0 -0.0159561)
(0.146999 0 -0.0169287)
(0.150265 0 -0.0178296)
(0.152761 0 -0.0186613)
(0.154652 0 -0.0194243)
(0.156106 0 -0.0201179)
(0.157311 0 -0.0207476)
(0.158453 0 -0.0213173)
(0.159742 0 -0.0218358)
(0.161434 0 -0.0223247)
(0.163812 0 -0.0228153)
(0.16722 0 -0.0233582)
(0.172071 0 -0.0240314)
(0.178904 0 -0.0249659)
(0.188387 0 -0.0263589)
(0.201336 0 -0.0285024)
(0.218796 0 -0.0318498)
(0.241737 0 -0.0369904)
(0.270924 0 -0.0446726)
(0.305519 0 -0.0553439)
(0.325032 0 -0.0610973)
(0 0 0)
(0.0265534 0 -0.00266948)
(0.0502319 0 -0.00507912)
(0.0704564 0 -0.0072027)
(0.0876556 0 -0.0091002)
(0.102228 0 -0.0108183)
(0.114517 0 -0.0123918)
(0.124823 0 -0.0138462)
(0.133412 0 -0.0152001)
(0.140526 0 -0.0164688)
(0.146383 0 -0.0176618)
(0.151171 0 -0.0187837)
(0.155079 0 -0.0198408)
(0.158292 0 -0.0208392)
(0.160991 0 -0.021783)
(0.163356 0 -0.0226776)
(0.165586 0 -0.0235333)
(0.167895 0 -0.0243649)
(0.170504 0 -0.025188)
(0.173685 0 -0.0260352)
(0.177766 0 -0.0269586)
(0.183119 0 -0.0280292)
(0.1902 0 -0.0293526)
(0.199596 0 -0.0310946)
(0.212038 0 -0.0334985)
(0.228423 0 -0.0369146)
(0.249715 0 -0.0418096)
(0.276838 0 -0.0487884)
(0.310263 0 -0.0584943)
(0.348059 0 -0.0709256)
(0.370091 0 -0.0778633)
(0 0 0)
(0.0268616 0 -0.00289905)
(0.0508419 0 -0.00551849)
(0.0713691 0 -0.00783066)
(0.0888831 0 -0.00990111)
(0.103791 0 -0.0117811)
(0.116445 0 -0.0135091)
(0.127151 0 -0.0151136)
(0.136181 0 -0.016616)
(0.143783 0 -0.0180345)
(0.150177 0 -0.0193803)
(0.155561 0 -0.0206602)
(0.160136 0 -0.0218852)
(0.164096 0 -0.0230654)
(0.167632 0 -0.0242096)
(0.170944 0 -0.0253307)
(0.174232 0 -0.0264416)
(0.177726 0 -0.0275651)
(0.181677 0 -0.0287315)
(0.186375 0 -0.0299859)
(0.192172 0 -0.0313967)
(0.199475 0 -0.0330583)
(0.208788 0 -0.0351068)
(0.220721 0 -0.0377357)
(0.23608 0 -0.0412376)
(0.255782 0 -0.0459995)
(0.280762 0 -0.0525066)
(0.311936 0 -0.0613665)
(0.349297 0 -0.073013)
(0.389901 0 -0.0870098)
(0.41538 0 -0.0951032)
(0 0 0)
(0.0271835 0 -0.00312432)
(0.0514794 0 -0.00595022)
(0.0723238 0 -0.00844881)
(0.0901673 0 -0.0106911)
(0.105427 0 -0.0127327)
(0.118462 0 -0.0146162)
(0.129585 0 -0.016373)
(0.13907 0 -0.0180265)
(0.147174 0 -0.019598)
(0.154124 0 -0.0211022)
(0.160126 0 -0.0225501)
(0.165391 0 -0.0239558)
(0.170124 0 -0.0253342)
(0.174518 0 -0.0266963)
(0.178782 0 -0.0280601)
(0.183135 0 -0.0294479)
(0.187821 0 -0.0308907)
(0.193112 0 -0.0324324)
(0.19932 0 -0.0341311)
(0.206805 0 -0.0360688)
(0.216015 0 -0.0383653)
(0.227483 0 -0.0411841)
(0.241862 0 -0.0447515)
(0.259971 0 -0.0493902)
(0.282713 0 -0.0555107)
(0.311091 0 -0.0636436)
(0.345934 0 -0.0743611)
(0.386726 0 -0.087845)
(0.429784 0 -0.10331)
(0.460785 0 -0.112653)
(0 0 0)
(0.027515 0 -0.00334399)
(0.0521371 0 -0.00637193)
(0.0733099 0 -0.00905379)
(0.0914943 0 -0.0114658)
(0.107117 0 -0.013668)
(0.120546 0 -0.0157071)
(0.132098 0 -0.0176177)
(0.142054 0 -0.0194261)
(0.150678 0 -0.0211563)
(0.158199 0 -0.0228257)
(0.164837 0 -0.0244507)
(0.170805 0 -0.0260469)
(0.176312 0 -0.0276319)
(0.181565 0 -0.0292241)
(0.18678 0 -0.0308457)
(0.192194 0 -0.0325285)
(0.198062 0 -0.0343126)
(0.204667 0 -0.0362512)
(0.212337 0 -0.0384171)
(0.22145 0 -0.040907)
(0.232467 0 -0.0438591)
(0.245951 0 -0.0474645)
(0.262576 0 -0.0519782)
(0.283106 0 -0.0577288)
(0.308456 0 -0.0651615)
(0.339641 0 -0.0748426)
(0.377264 0 -0.087282)
(0.42036 0 -0.102455)
(0.465193 0 -0.119444)
(0.506172 0 -0.130355)
(0 0 0)
(0.0278564 0 -0.00355933)
(0.0528159 0 -0.00678612)
(0.0743292 0 -0.00964933)
(0.0928665 0 -0.0122302)
(0.108866 0 -0.0145938)
(0.122707 0 -0.0167908)
(0.134705 0 -0.0188584)
(0.14515 0 -0.0208268)
(0.154308 0 -0.0227216)
(0.162411 0 -0.0245616)
(0.169691 0 -0.026369)
(0.176367 0 -0.0281634)
(0.182654 0 -0.0299653)
(0.188772 0 -0.0318006)
(0.194937 0 -0.0336946)
(0.201394 0 -0.0356856)
(0.208416 0 -0.0378254)
(0.216291 0 -0.0401757)
(0.225361 0 -0.0428223)
(0.236012 0 -0.0458764)
(0.248697 0 -0.0494863)
(0.263994 0 -0.053866)
(0.282536 0 -0.0592792)
(0.30503 0 -0.0660617)
(0.332354 0 -0.0746817)
(0.36531 0 -0.0856807)
(0.40403 0 -0.099495)
(0.446889 0 -0.116099)
(0.489807 0 -0.135068)
(0.551606 0 -0.148172)
(0 0 0)
(0.0247289 0 0)
(0.0466314 0 0)
(0.065081 0 0)
(0.0804372 0 0)
(0.0930419 0 0)
(0.103187 0 0)
(0.111125 0 0)
(0.117087 0 0)
(0.121272 0 0)
(0.123847 0 0)
(0.124959 0 0)
(0.124736 0 0)
(0.123292 0 0)
(0.120724 0 0)
(0.117125 0 0)
(0.112576 0 0)
(0.107154 0 0)
(0.100934 0 0)
(0.093993 0 0)
(0.0864065 0 0)
(0.078255 0 0)
(0.069626 0 0)
(0.0606177 0 0)
(0.0513453 0 0)
(0.0419525 0 0)
(0.032635 0 0)
(0.0237059 0 0)
(0.0157243 0 0)
(0.00998869 0 0)
(0 0 0)
(0 0 0)
(0.0247456 0 -0.000246974)
(0.0466636 0 -0.00046865)
(0.0651292 0 -0.000662165)
(0.0805021 0 -0.000832815)
(0.0931255 0 -0.000984554)
(0.10329 0 -0.00112028)
(0.111249 0 -0.00124158)
(0.117234 0 -0.00134944)
(0.121446 0 -0.00144458)
(0.124051 0 -0.0015268)
(0.125197 0 -0.00159563)
(0.125013 0 -0.00165075)
(0.123612 0 -0.00168935)
(0.121095 0 -0.00170806)
(0.117553 0 -0.00170477)
(0.11307 0 -0.0016759)
(0.107722 0 -0.00161657)
(0.101587 0 -0.00152263)
(0.0947453 0 -0.00138871)
(0.0872751 0 -0.00120658)
(0.0792609 0 -0.00096717)
(0.0707968 0 -0.000659885)
(0.0619908 0 -0.000271924)
(0.0529725 0 0.000212213)
(0.0439074 0 0.000810903)
(0.035016 0 0.00154637)
(0.0266326 0 0.0024443)
(0.0193647 0 0.00352087)
(0.0147128 0 0.00467653)
(0.0070799 0 0.00661355)
(0 0 0)
(0.0247953 0 -0.000494565)
(0.0467617 0 -0.000938598)
(0.0652754 0 -0.0013264)
(0.0806983 0 -0.0016686)
(0.0933746 0 -0.00197299)
(0.103597 0 -0.00224407)
(0.111619 0 -0.00248632)
(0.117677 0 -0.00270314)
(0.121969 0 -0.00289482)
(0.124665 0 -0.0030609)
(0.125912 0 -0.00320034)
(0.125842 0 -0.00331159)
(0.124571 0 -0.00339043)
(0.122202 0 -0.00343171)
(0.118829 0 -0.00343046)
(0.114542 0 -0.00337986)
(0.109419 0 -0.0032713)
(0.103541 0 -0.0030957)
(0.096994 0 -0.00284191)
(0.0898693 0 -0.00249539)
(0.0822611 0 -0.00203946)
(0.0742815 0 -0.00145511)
(0.0660637 0 -0.000719656)
(0.057772 0 0.000193989)
(0.0496308 0 0.00131569)
(0.0419549 0 0.00267532)
(0.0351876 0 0.00429279)
(0.0300089 0 0.00615279)
(0.0282242 0 0.00796308)
(0.0232254 0 0.0109504)
(0 0 0)
(0.0248779 0 -0.000741904)
(0.0469242 0 -0.0014082)
(0.0655177 0 -0.0019904)
(0.081023 0 -0.00250454)
(0.0937858 0 -0.00296243)
(0.104102 0 -0.00337109)
(0.112233 0 -0.00373708)
(0.118412 0 -0.00406528)
(0.122838 0 -0.0043563)
(0.125683 0 -0.0046096)
(0.127099 0 -0.00482356)
(0.127218 0 -0.00499442)
(0.126161 0 -0.00511838)
(0.124037 0 -0.00519025)
(0.120944 0 -0.00520147)
(0.116976 0 -0.00514238)
(0.112223 0 -0.00500265)
(0.106771 0 -0.00476805)
(0.100715 0 -0.00442146)
(0.0941598 0 -0.00394488)
(0.0872175 0 -0.00331669)
(0.0800302 0 -0.00251398)
(0.0727711 0 -0.00151053)
(0.0656493 0 -0.000275427)
(0.0589552 0 0.00122064)
(0.0531213 0 0.00299267)
(0.0488188 0 0.00500803)
(0.0469083 0 0.00715437)
(0.0492036 0 0.00888792)
(0.0475883 0 0.012005)
(0 0 0)
(0.0249921 0 -0.00098821)
(0.0471491 0 -0.00187599)
(0.0658529 0 -0.00265218)
(0.081473 0 -0.00333826)
(0.0943575 0 -0.00395037)
(0.104807 0 -0.00449875)
(0.113086 0 -0.00499123)
(0.11943 0 -0.00543349)
(0.124041 0 -0.00582725)
(0.127093 0 -0.00617202)
(0.128742 0 -0.00646623)
(0.129125 0 -0.00670565)
(0.128366 0 -0.00688569)
(0.126582 0 -0.00700023)
(0.123875 0 -0.00703882)
(0.120344 0 -0.00698918)
(0.116093 0 -0.00684007)
(0.111224 0 -0.00657567)
(0.105843 0 -0.00617558)
(0.100074 0 -0.00562006)
(0.094051 0 -0.00488573)
(0.0879461 0 -0.0039494)
(0.081983 0 -0.00278866)
(0.0764363 0 -0.00138204)
(0.0716828 0 0.000279399)
(0.0682424 0 0.0021764)
(0.0669511 0 0.00420095)
(0.0690299 0 0.00606408)
(0.076198 0 0.00697483)
(0.0782027 0 0.00949312)
(0 0 0)
(0.0251365 0 -0.00123325)
(0.0474337 0 -0.00234161)
(0.0662776 0 -0.00331135)
(0.082044 0 -0.00416947)
(0.0950843 0 -0.00493671)
(0.105702 0 -0.00562603)
(0.114168 0 -0.00624671)
(0.120721 0 -0.00680599)
(0.125564 0 -0.00730657)
(0.128877 0 -0.00774794)
(0.130821 0 -0.00812956)
(0.131538 0 -0.00844827)
(0.131158 0 -0.00869768)
(0.129802 0 -0.00887037)
(0.127584 0 -0.00895595)
(0.12461 0 -0.00894139)
(0.120994 0 -0.00881365)
(0.116854 0 -0.00855704)
(0.112318 0 -0.00815215)
(0.107531 0 -0.00758028)
(0.102656 0 -0.00682071)
(0.0979011 0 -0.00585528)
(0.0935377 0 -0.00467237)
(0.0899092 0 -0.00327011)
(0.0874873 0 -0.00167575)
(0.0869297 0 2.53085e-05)
(0.089114 0 0.00164228)
(0.0955083 0 0.00269695)
(0.10786 0 0.00218088)
(0.113511 0 0.00361416)
(0 0 0)
(0.0253101 0 -0.00147735)
(0.0477763 0 -0.00280576)
(0.0667891 0 -0.00396905)
(0.0827326 0 -0.00499971)
(0.0959609 0 -0.00592237)
(0.10678 0 -0.00675324)
(0.115469 0 -0.00750438)
(0.122271 0 -0.00818441)
(0.127394 0 -0.0087971)
(0.131023 0 -0.00934325)
(0.133322 0 -0.00982261)
(0.13444 0 -0.0102318)
(0.134512 0 -0.0105643)
(0.133667 0 -0.0108131)
(0.132032 0 -0.0109685)
(0.129727 0 -0.0110192)
(0.126873 0 -0.0109504)
(0.123602 0 -0.0107466)
(0.120063 0 -0.0103923)
(0.116433 0 -0.00987479)
(0.112912 0 -0.00918109)
(0.109742 0 -0.00830265)
(0.107243 0 -0.00724572)
(0.105838 0 -0.00604082)
(0.106069 0 -0.00475801)
(0.108709 0 -0.00355968)
(0.114774 0 -0.00275375)
(0.125718 0 -0.00295572)
(0.143178 0 -0.00530765)
(0.152268 0 -0.0052579)
(0 0 0)
(0.0255121 0 -0.00172074)
(0.0481748 0 -0.00326895)
(0.0673837 0 -0.00462609)
(0.0835307 0 -0.00583001)
(0.0969752 0 -0.00690849)
(0.108029 0 -0.00788226)
(0.11698 0 -0.00876708)
(0.124073 0 -0.00957236)
(0.12952 0 -0.0103034)
(0.133515 0 -0.0109638)
(0.136228 0 -0.0115523)
(0.137807 0 -0.0120643)
(0.138398 0 -0.0124953)
(0.138142 0 -0.0128395)
(0.137174 0 -0.013089)
(0.135626 0 -0.0132332)
(0.133639 0 -0.0132606)
(0.131364 0 -0.01316)
(0.128971 0 -0.0129202)
(0.126662 0 -0.012536)
(0.124676 0 -0.0120063)
(0.123296 0 -0.0113385)
(0.12289 0 -0.010562)
(0.123947 0 -0.0097439)
(0.127111 0 -0.00901548)
(0.133198 0 -0.00860617)
(0.14339 0 -0.0089529)
(0.159009 0 -0.0107656)
(0.181311 0 -0.0151892)
(0.193478 0 -0.0166757)
(0 0 0)
(0.0257402 0 -0.00196238)
(0.0486246 0 -0.00372924)
(0.0680546 0 -0.00527981)
(0.0844294 0 -0.00665729)
(0.0981178 0 -0.00789383)
(0.109442 0 -0.00901412)
(0.118689 0 -0.0100365)
(0.12611 0 -0.0109719)
(0.131924 0 -0.0118273)
(0.136328 0 -0.0126084)
(0.1395 0 -0.0133148)
(0.141595 0 -0.0139425)
(0.142765 0 -0.0144879)
(0.143164 0 -0.0149483)
(0.142941 0 -0.0153187)
(0.142239 0 -0.0155901)
(0.141215 0 -0.0157556)
(0.140045 0 -0.0158104)
(0.138923 0 -0.015751)
(0.138076 0 -0.0155814)
(0.137778 0 -0.0153152)
(0.138359 0 -0.0149811)
(0.140244 0 -0.0146397)
(0.143967 0 -0.0143942)
(0.150249 0 -0.0144351)
(0.160006 0 -0.015076)
(0.174434 0 -0.0168422)
(0.194688 0 -0.0205019)
(0.221511 0 -0.0270891)
(0.236376 0 -0.0301053)
(0 0 0)
(0.0259913 0 -0.00220125)
(0.0491202 0 -0.00418469)
(0.0687943 0 -0.00592755)
(0.0854219 0 -0.00747862)
(0.0993819 0 -0.0088751)
(0.111004 0 -0.0101448)
(0.120579 0 -0.0113081)
(0.12836 0 -0.0123782)
(0.134574 0 -0.0133638)
(0.139426 0 -0.0142721)
(0.143098 0 -0.0151058)
(0.145757 0 -0.015863)
(0.147565 0 -0.016542)
(0.148683 0 -0.0171423)
(0.149273 0 -0.0176614)
(0.149498 0 -0.0180967)
(0.149524 0 -0.0184438)
(0.149546 0 -0.0187047)
(0.149792 0 -0.018889)
(0.150517 0 -0.0190127)
(0.152031 0 -0.0191067)
(0.154702 0 -0.0192231)
(0.159015 0 -0.0194567)
(0.165573 0 -0.0199582)
(0.175125 0 -0.0209633)
(0.188703 0 -0.0228738)
(0.207398 0 -0.0262592)
(0.232175 0 -0.0319003)
(0.263118 0 -0.0406062)
(0.280372 0 -0.0450551)
(0 0 0)
(0.0262628 0 -0.0024369)
(0.0496569 0 -0.00463455)
(0.0695964 0 -0.00656837)
(0.0864995 0 -0.00829274)
(0.100755 0 -0.00984966)
(0.112699 0 -0.0112704)
(0.122627 0 -0.0125776)
(0.130799 0 -0.0137871)
(0.137446 0 -0.0149102)
(0.142784 0 -0.0159561)
(0.146999 0 -0.0169287)
(0.150265 0 -0.0178296)
(0.152761 0 -0.0186613)
(0.154652 0 -0.0194243)
(0.156106 0 -0.0201179)
(0.157311 0 -0.0207476)
(0.158453 0 -0.0213173)
(0.159742 0 -0.0218358)
(0.161434 0 -0.0223247)
(0.163812 0 -0.0228153)
(0.16722 0 -0.0233582)
(0.172071 0 -0.0240314)
(0.178904 0 -0.0249659)
(0.188387 0 -0.0263589)
(0.201336 0 -0.0285024)
(0.218796 0 -0.0318498)
(0.241737 0 -0.0369904)
(0.270924 0 -0.0446726)
(0.305519 0 -0.0553439)
(0.325032 0 -0.0610973)
(0 0 0)
(0.0265534 0 -0.00266948)
(0.0502319 0 -0.00507912)
(0.0704564 0 -0.0072027)
(0.0876556 0 -0.0091002)
(0.102228 0 -0.0108183)
(0.114517 0 -0.0123918)
(0.124823 0 -0.0138462)
(0.133412 0 -0.0152001)
(0.140526 0 -0.0164688)
(0.146383 0 -0.0176618)
(0.151171 0 -0.0187837)
(0.155079 0 -0.0198408)
(0.158292 0 -0.0208392)
(0.160991 0 -0.021783)
(0.163356 0 -0.0226776)
(0.165586 0 -0.0235333)
(0.167895 0 -0.0243649)
(0.170504 0 -0.025188)
(0.173685 0 -0.0260352)
(0.177766 0 -0.0269586)
(0.183119 0 -0.0280292)
(0.1902 0 -0.0293526)
(0.199596 0 -0.0310946)
(0.212038 0 -0.0334985)
(0.228423 0 -0.0369146)
(0.249715 0 -0.0418096)
(0.276838 0 -0.0487884)
(0.310263 0 -0.0584943)
(0.348059 0 -0.0709256)
(0.370091 0 -0.0778633)
(0 0 0)
(0.0268616 0 -0.00289905)
(0.0508419 0 -0.00551849)
(0.0713691 0 -0.00783066)
(0.0888831 0 -0.00990111)
(0.103791 0 -0.0117811)
(0.116445 0 -0.0135091)
(0.127151 0 -0.0151136)
(0.136181 0 -0.016616)
(0.143783 0 -0.0180345)
(0.150177 0 -0.0193803)
(0.155561 0 -0.0206602)
(0.160136 0 -0.0218852)
(0.164096 0 -0.0230654)
(0.167632 0 -0.0242096)
(0.170944 0 -0.0253307)
(0.174232 0 -0.0264416)
(0.177726 0 -0.0275651)
(0.181677 0 -0.0287315)
(0.186375 0 -0.0299859)
(0.192172 0 -0.0313967)
(0.199475 0 -0.0330583)
(0.208788 0 -0.0351068)
(0.220721 0 -0.0377357)
(0.23608 0 -0.0412376)
(0.255782 0 -0.0459995)
(0.280762 0 -0.0525066)
(0.311936 0 -0.0613665)
(0.349297 0 -0.073013)
(0.389901 0 -0.0870098)
(0.41538 0 -0.0951032)
(0 0 0)
(0.0271835 0 -0.00312432)
(0.0514794 0 -0.00595022)
(0.0723238 0 -0.00844881)
(0.0901673 0 -0.0106911)
(0.105427 0 -0.0127327)
(0.118462 0 -0.0146162)
(0.129585 0 -0.016373)
(0.13907 0 -0.0180265)
(0.147174 0 -0.019598)
(0.154124 0 -0.0211022)
(0.160126 0 -0.0225501)
(0.165391 0 -0.0239558)
(0.170124 0 -0.0253342)
(0.174518 0 -0.0266963)
(0.178782 0 -0.0280601)
(0.183135 0 -0.0294479)
(0.187821 0 -0.0308907)
(0.193112 0 -0.0324324)
(0.19932 0 -0.0341311)
(0.206805 0 -0.0360688)
(0.216015 0 -0.0383653)
(0.227483 0 -0.0411841)
(0.241862 0 -0.0447515)
(0.259971 0 -0.0493902)
(0.282713 0 -0.0555107)
(0.311091 0 -0.0636436)
(0.345934 0 -0.0743611)
(0.386726 0 -0.087845)
(0.429784 0 -0.10331)
(0.460785 0 -0.112653)
(0 0 0)
(0.027515 0 -0.00334399)
(0.0521371 0 -0.00637193)
(0.0733099 0 -0.00905379)
(0.0914943 0 -0.0114658)
(0.107117 0 -0.013668)
(0.120546 0 -0.0157071)
(0.132098 0 -0.0176177)
(0.142054 0 -0.0194261)
(0.150678 0 -0.0211563)
(0.158199 0 -0.0228257)
(0.164837 0 -0.0244507)
(0.170805 0 -0.0260469)
(0.176312 0 -0.0276319)
(0.181565 0 -0.0292241)
(0.18678 0 -0.0308457)
(0.192194 0 -0.0325285)
(0.198062 0 -0.0343126)
(0.204667 0 -0.0362512)
(0.212337 0 -0.0384171)
(0.22145 0 -0.040907)
(0.232467 0 -0.0438591)
(0.245951 0 -0.0474645)
(0.262576 0 -0.0519782)
(0.283106 0 -0.0577288)
(0.308456 0 -0.0651615)
(0.339641 0 -0.0748426)
(0.377264 0 -0.087282)
(0.42036 0 -0.102455)
(0.465193 0 -0.119444)
(0.506172 0 -0.130355)
(0 0 0)
(0.0278564 0 -0.00355933)
(0.0528159 0 -0.00678612)
(0.0743292 0 -0.00964933)
(0.0928665 0 -0.0122302)
(0.108866 0 -0.0145938)
(0.122707 0 -0.0167908)
(0.134705 0 -0.0188584)
(0.14515 0 -0.0208268)
(0.154308 0 -0.0227216)
(0.162411 0 -0.0245616)
(0.169691 0 -0.026369)
(0.176367 0 -0.0281634)
(0.182654 0 -0.0299653)
(0.188772 0 -0.0318006)
(0.194937 0 -0.0336946)
(0.201394 0 -0.0356856)
(0.208416 0 -0.0378254)
(0.216291 0 -0.0401757)
(0.225361 0 -0.0428223)
(0.236012 0 -0.0458764)
(0.248697 0 -0.0494863)
(0.263994 0 -0.053866)
(0.282536 0 -0.0592792)
(0.30503 0 -0.0660617)
(0.332354 0 -0.0746817)
(0.36531 0 -0.0856807)
(0.40403 0 -0.099495)
(0.446889 0 -0.116099)
(0.489807 0 -0.135068)
(0.551606 0 -0.148172)
(0 0 0)
(0.0209138 0 0)
(0.0478524 0 0)
(0.0953078 0 0)
(0.156693 0 0)
(0.217469 0 0)
(0.267218 0 0)
(0.304126 0 0)
(0.330454 0 0)
(0.348827 0 0)
(0.361214 0 0)
(0.368954 0 0)
(0.37295 0 0)
(0.373797 0 0)
(0.371883 0 0)
(0.36744 0 0)
(0.360593 0 0)
(0.3514 0 0)
(0.339874 0 0)
(0.325998 0 0)
(0.309732 0 0)
(0.291018 0 0)
(0.269788 0 0)
(0.245965 0 0)
(0.219464 0 0)
(0.1902 0 0)
(0.158085 0 0)
(0.123029 0 0)
(0.0849538 0 0)
(0.04372 0 0)
(0 0 0)
(0.00580629 0 -0.00815707)
(0.0255156 0 -0.00968086)
(0.0530648 0 -0.0123904)
(0.100498 0 -0.0154703)
(0.161128 0 -0.0181208)
(0.220847 0 -0.0196908)
(0.269686 0 -0.02023)
(0.305942 0 -0.020036)
(0.331828 0 -0.0194226)
(0.349888 0 -0.018598)
(0.362044 0 -0.0176414)
(0.369611 0 -0.0166236)
(0.373476 0 -0.0155523)
(0.374224 0 -0.0144407)
(0.372235 0 -0.013362)
(0.367734 0 -0.0123446)
(0.36084 0 -0.011381)
(0.351608 0 -0.0104683)
(0.340051 0 -0.00960198)
(0.326149 0 -0.00877647)
(0.309861 0 -0.00798509)
(0.29113 0 -0.00722048)
(0.269885 0 -0.00647469)
(0.246049 0 -0.00573923)
(0.219538 0 -0.00500503)
(0.190265 0 -0.00426226)
(0.158141 0 -0.00350015)
(0.123077 0 -0.00270661)
(0.0849934 0 -0.00186797)
(0.0437479 0 -0.000966695)
(0 0 0)
(0.0191722 0 -0.0165946)
(0.0388245 0 -0.0197463)
(0.0681227 0 -0.0250041)
(0.115565 0 -0.0308084)
(0.17415 0 -0.0356793)
(0.230879 0 -0.038538)
(0.27706 0 -0.0394977)
(0.311382 0 -0.0391316)
(0.33593 0 -0.0379753)
(0.35304 0 -0.036377)
(0.3645 0 -0.0345128)
(0.371547 0 -0.0325038)
(0.375019 0 -0.0304004)
(0.375475 0 -0.0282715)
(0.373263 0 -0.0262097)
(0.368586 0 -0.0242463)
(0.36155 0 -0.0223799)
(0.352203 0 -0.0206071)
(0.340552 0 -0.0189202)
(0.326573 0 -0.0173089)
(0.310221 0 -0.0157607)
(0.291436 0 -0.0142618)
(0.270146 0 -0.0127968)
(0.246273 0 -0.0113495)
(0.21973 0 -0.00990233)
(0.190428 0 -0.00843617)
(0.158278 0 -0.00692999)
(0.123189 0 -0.00536016)
(0.0850767 0 -0.00369991)
(0.0437956 0 -0.00191483)
(0 0 0)
(0.0399677 0 -0.0259527)
(0.0596129 0 -0.0305535)
(0.0912744 0 -0.0381096)
(0.138558 0 -0.0461582)
(0.194096 0 -0.0526696)
(0.246452 0 -0.0563935)
(0.288681 0 -0.0575627)
(0.320054 0 -0.0569757)
(0.3425 0 -0.0553052)
(0.358093 0 -0.0529837)
(0.368436 0 -0.050276)
(0.374651 0 -0.0473497)
(0.377502 0 -0.044314)
(0.377491 0 -0.0412867)
(0.374917 0 -0.0383487)
(0.369952 0 -0.0355318)
(0.362685 0 -0.0328436)
(0.353151 0 -0.0302815)
(0.341346 0 -0.027836)
(0.327241 0 -0.0254931)
(0.310784 0 -0.0232356)
(0.291912 0 -0.021044)
(0.270551 0 -0.0188969)
(0.246616 0 -0.0167709)
(0.220022 0 -0.0146407)
(0.190675 0 -0.0124788)
(0.158484 0 -0.0102545)
(0.123354 0 -0.00793359)
(0.0851986 0 -0.00547698)
(0.0438643 0 -0.00283451)
(0 0 0)
(0.0667748 0 -0.0366666)
(0.086614 0 -0.0424333)
(0.12074 0 -0.0519742)
(0.167512 0 -0.0617292)
(0.21923 0 -0.0692658)
(0.266304 0 -0.0733796)
(0.303726 0 -0.0744944)
(0.331425 0 -0.0735737)
(0.351178 0 -0.0713674)
(0.364795 0 -0.068365)
(0.373672 0 -0.0648772)
(0.378793 0 -0.0611272)
(0.380826 0 -0.0572798)
(0.380191 0 -0.0534593)
(0.377131 0 -0.0497408)
(0.371778 0 -0.0461612)
(0.364199 0 -0.0427327)
(0.35441 0 -0.0394536)
(0.342397 0 -0.0363133)
(0.32812 0 -0.0332952)
(0.311522 0 -0.0303782)
(0.292533 0 -0.0275382)
(0.271073 0 -0.0247482)
(0.247057 0 -0.021979)
(0.220393 0 -0.0191983)
(0.190987 0 -0.0163708)
(0.158741 0 -0.0134573)
(0.123558 0 -0.0104137)
(0.0853462 0 -0.0071896)
(0.0439461 0 -0.0037205)
(0 0 0)
(0.0984783 0 -0.0489115)
(0.1186 0 -0.0555372)
(0.154926 0 -0.0667059)
(0.200637 0 -0.0775721)
(0.247906 0 -0.0855001)
(0.289163 0 -0.0895358)
(0.321306 0 -0.0903311)
(0.344875 0 -0.0889458)
(0.361525 0 -0.0861624)
(0.372827 0 -0.0825035)
(0.379973 0 -0.0783015)
(0.383801 0 -0.0738234)
(0.384861 0 -0.06927)
(0.383475 0 -0.064755)
(0.379821 0 -0.0603521)
(0.373994 0 -0.0560999)
(0.366031 0 -0.0520131)
(0.35593 0 -0.0480906)
(0.343661 0 -0.044321)
(0.329172 0 -0.0406857)
(0.3124 0 -0.0371609)
(0.293266 0 -0.0337185)
(0.271687 0 -0.0303272)
(0.247571 0 -0.0269524)
(0.220822 0 -0.0235558)
(0.191342 0 -0.0200953)
(0.159031 0 -0.016524)
(0.123785 0 -0.0127888)
(0.0855089 0 -0.00882948)
(0.0440348 0 -0.00456834)
(0 0 0)
(0.134064 0 -0.0626277)
(0.154468 0 -0.0698307)
(0.192462 0 -0.0822229)
(0.236411 0 -0.093584)
(0.278685 0 -0.101295)
(0.313853 0 -0.104829)
(0.34052 0 -0.105063)
(0.359722 0 -0.103084)
(0.373028 0 -0.0996722)
(0.381803 0 -0.095361)
(0.387062 0 -0.0905178)
(0.389478 0 -0.0854211)
(0.389456 0 -0.0802628)
(0.387222 0 -0.0751524)
(0.382893 0 -0.0701601)
(0.376523 0 -0.0653243)
(0.368119 0 -0.0606605)
(0.357657 0 -0.0561681)
(0.345091 0 -0.0518351)
(0.330357 0 -0.0476416)
(0.313382 0 -0.0435616)
(0.294081 0 -0.0395643)
(0.272363 0 -0.0356145)
(0.248132 0 -0.0316732)
(0.221286 0 -0.027697)
(0.191723 0 -0.0236379)
(0.159338 0 -0.0194423)
(0.124023 0 -0.0150492)
(0.0856766 0 -0.0103896)
(0.0441249 0 -0.00537429)
(0 0 0)
(0.172671 0 -0.0776001)
(0.193273 0 -0.0851584)
(0.232213 0 -0.098327)
(0.273571 0 -0.109559)
(0.310347 0 -0.116489)
(0.339292 0 -0.119136)
(0.360451 0 -0.118584)
(0.375232 0 -0.115897)
(0.385128 0 -0.11183)
(0.391333 0 -0.106912)
(0.394667 0 -0.101521)
(0.395616 0 -0.0959116)
(0.394448 0 -0.0902503)
(0.391303 0 -0.0846421)
(0.386243 0 -0.0791533)
(0.379279 0 -0.0738208)
(0.37039 0 -0.0686598)
(0.35953 0 -0.0636698)
(0.346636 0 -0.0588387)
(0.331631 0 -0.0541459)
(0.314432 0 -0.0495637)
(0.294945 0 -0.0450592)
(0.273074 0 -0.0405945)
(0.248716 0 -0.036127)
(0.221764 0 -0.0316089)
(0.192111 0 -0.0269871)
(0.159646 0 -0.0222023)
(0.124259 0 -0.017187)
(0.0858404 0 -0.0118643)
(0.0442118 0 -0.00613531)
(0 0 0)
(0.213546 0 -0.0935867)
(0.234232 0 -0.101307)
(0.273243 0 -0.114759)
(0.311042 0 -0.125223)
(0.341827 0 -0.13086)
(0.364505 0 -0.132297)
(0.380259 0 -0.130771)
(0.390738 0 -0.127303)
(0.397348 0 -0.122605)
(0.401082 0 -0.11717)
(0.40253 0 -0.11133)
(0.402006 0 -0.105303)
(0.399669 0 -0.099237)
(0.395584 0 -0.0932258)
(0.389761 0 -0.0873303)