/*--------------------------------*- C++ -*----------------------------------*\
| =========                 |                                                 |
| \\      /  F ield         | OpenFOAM: The Open Source CFD Toolbox           |
|  \\    /   O peration     | Version:  dev                                   |
|   \\  /    A nd           | Web:      www.OpenFOAM.org                      |
|    \\/     M anipulation  |                                                 |
\*---------------------------------------------------------------------------*/
FoamFile
{
    version     2.0;
    format      ascii;
    class       surfaceScalarField;
    location    "2.7";
    object      meshPhi;
}
// * * * * * * * * * * * * * * * * * * * * * * * * * * * * * * * * * * * * * //

dimensions      [0 3 -1 0 0 0 0];

internalField   nonuniform List<scalar> 
879
(
-0.000302495
-4.95198e-06
-0.000314938
-4.79852e-06
-0.000327915
-4.15549e-06
-0.000341428
-3.14893e-06
-0.00035474
-1.72604e-06
-0.000366852
1.05643e-07
-0.00037644
2.02622e-06
-0.000382253
3.93191e-06
-0.000383309
5.77835e-06
-0.000378809
7.40217e-06
-0.000368209
8.70817e-06
-0.000351187
9.60221e-06
-0.000327589
1.00489e-05
-0.000297542
1.00741e-05
-0.000261317
9.6331e-06
-0.000219197
8.74904e-06
-0.000171557
7.46726e-06
-0.000118836
5.79233e-06
-6.13341e-05
3.7337e-06
1.31403e-06
-0.000299337
-9.54134e-06
-0.000311999
-9.30083e-06
-0.00032541
-8.00973e-06
-0.000339513
-5.90439e-06
-0.000353388
-3.09614e-06
-0.000365885
3.89575e-07
-0.00037578
4.15733e-06
-0.000381875
7.94256e-06
-0.000383152
1.1564e-05
-0.000378803
1.47327e-05
-0.000368275
1.72649e-05
-0.000351273
1.90111e-05
-0.000327676
1.98855e-05
-0.000297599
1.99159e-05
-0.000261319
1.90533e-05
-0.00021916
1.73255e-05
-0.000171499
1.47888e-05
-0.000118771
1.14694e-05
-6.12842e-05
7.39003e-06
2.59969e-06
-0.000289341
-1.34881e-05
-0.00030306
-1.30425e-05
-0.000317646
-1.11461e-05
-0.000332905
-7.99765e-06
-0.000347883
-3.84842e-06
-0.000361327
1.13854e-06
-0.000372045
6.60354e-06
-0.000378848
1.21195e-05
-0.000380696
1.73506e-05
-0.000376805
2.19322e-05
-0.000366616
2.55758e-05
-0.000349869
2.81109e-05
-0.000326498
2.93963e-05
-0.000296609
2.94155e-05
-0.000260478
2.81403e-05
-0.000218457
2.55997e-05
-0.00017094
2.18498e-05
-0.000118367
1.69407e-05
-6.10608e-05
1.09102e-05
3.83621e-06
-0.000273003
-1.66166e-05
-0.000288456
-1.57901e-05
-0.000304838
-1.32662e-05
-0.000321775
-9.17201e-06
-0.000338316
-3.78637e-06
-0.000353177
2.56007e-06
-0.000365132
9.50931e-06
-0.000373
1.65426e-05
-0.000375736
2.31829e-05
-0.000372593
2.90227e-05
-0.000363052
3.36764e-05
-0.000346855
3.69125e-05
-0.000323963
3.85545e-05
-0.000294499
3.85377e-05
-0.000258741
3.68441e-05
-0.000217058
3.35074e-05
-0.000169867
2.85895e-05
-0.000117624
2.21568e-05
-6.0671e-05
1.42616e-05
5.01218e-06
-0.000253005
-1.87644e-05
-0.000270467
-1.74958e-05
-0.000288931
-1.4281e-05
-0.00030785
-9.30179e-06
-0.000326208
-2.83552e-06
-0.000342708
4.69803e-06
-0.000356098
1.29153e-05
-0.000365221
2.12573e-05
-0.000369072
2.91364e-05
-0.0003669
3.60652e-05
-0.000358217
4.1597e-05
-0.000342766
4.54222e-05
-0.000320519
4.73356e-05
-0.000291626
4.72418e-05
-0.000256378
4.51198e-05
-0.000215163
4.10055e-05
-0.000168421
3.49672e-05
-0.000116629
2.70842e-05
-6.01511e-05
1.74221e-05
6.1196e-06
-0.000231202
-1.98164e-05
-0.000250772
-1.80698e-05
-0.000271363
-1.41703e-05
-0.000292282
-8.39887e-06
-0.000312466
-1.00507e-06
-0.000330635
7.56514e-06
-0.000345547
1.68805e-05
-0.000356041
2.63267e-05
-0.000361135
3.52557e-05
-0.000360075
4.30896e-05
-0.000352372
4.93333e-05
-0.000337786
5.36218e-05
-0.000316302
5.57162e-05
-0.00028809
5.54962e-05
-0.000253461
5.29323e-05
-0.000212821
4.80595e-05
-0.000166634
4.0951e-05
-0.0001154
3.16967e-05
-5.95106e-05
2.03743e-05
7.15231e-06
-0.000209309
-1.97747e-05
-0.00023085
-1.75146e-05
-0.000253383
-1.29886e-05
-0.000276123
-6.51192e-06
-0.000297992
1.69062e-06
-0.000317751
1.11689e-05
-0.000334152
2.14142e-05
-0.000346023
3.17651e-05
-0.000352375
4.15332e-05
-0.000352458
5.00823e-05
-0.000345784
5.68715e-05
-0.000332121
6.14924e-05
-0.000311468
6.36746e-05
-0.000284011
6.32754e-05
-0.000250078
6.0254e-05
-0.000210096
5.46425e-05
-0.000164551
4.65168e-05
-0.000113967
3.59748e-05
-5.87639e-05
2.31054e-05
8.10584e-06
-0.000188723
-1.87422e-05
-0.000211881
-1.59424e-05
-0.000236007
-1.08254e-05
-0.000260285
-3.68625e-06
-0.000283621
5.23093e-06
-0.000304789
1.54745e-05
-0.000322528
2.64712e-05
-0.000335663
3.75332e-05
-0.000343198
4.79411e-05
-0.000344377
5.70195e-05
-0.000338713
6.41913e-05
-0.000325977
6.90144e-05
-0.000306176
7.11913e-05
-0.00027951
7.0559e-05
-0.000246322
6.70648e-05
-0.000207058
6.07355e-05
-0.000162222
5.16478e-05
-0.000112362
3.99055e-05
-5.79273e-05
2.5607e-05
8.9773e-06
-0.000170405
-1.6864e-05
-0.000194733
-1.34951e-05
-0.000220056
-7.77554e-06
-0.000245522
-9.38707e-09
-0.000270026
9.53648e-06
-0.000292334
2.04025e-05
-0.000311184
3.19851e-05
-0.000325395
4.35768e-05
-0.000333965
5.44381e-05
-0.000336131
6.38692e-05
-0.0003314
7.12681e-05
-0.000319547
7.6168e-05
-0.00030058
7.82494e-05
-0.000274708
7.73321e-05
-0.000242286
7.3351e-05
-0.000203774
6.63265e-05
-0.000159695
5.63339e-05
-0.000110617
4.34813e-05
-5.70175e-05
2.78748e-05
9.7653e-06
-0.000154887
-1.42462e-05
-0.000179969
-1.02779e-05
-0.000206094
-3.95001e-06
-0.000232375
4.40159e-06
-0.000257703
1.44953e-05
-0.000280841
2.58601e-05
-0.000300527
3.7878e-05
-0.000315577
4.98324e-05
-0.000324983
6.09749e-05
-0.000327977
7.05944e-05
-0.000324062
7.80749e-05
-0.000313005
8.29335e-05
-0.00029482
8.48349e-05
-0.000269715
8.35842e-05
-0.000238056
7.91049e-05
-0.000200312
7.14099e-05
-0.000157019
6.05715e-05
-0.000108764
4.67e-05
-5.60509e-05
2.99079e-05
1.04697e-05
-0.000142386
-1.09876e-05
-0.000167867
-6.38659e-06
-0.00019443
5.39775e-07
-0.000221172
9.43642e-06
-0.000246984
2.00011e-05
-0.000270631
3.17526e-05
-0.000290857
4.40683e-05
-0.000306481
5.62322e-05
-0.000316495
6.74982e-05
-0.000320127
7.71552e-05
-0.000316874
8.45834e-05
-0.000306501
8.92923e-05
-0.000289016
9.09363e-05
-0.00026463
8.9309e-05
-0.000233709
8.43238e-05
-0.00019673
7.59853e-05
-0.000154238
6.43617e-05
-0.000106834
4.95637e-05
-5.50428e-05
3.17085e-05
1.10915e-05
-0.000132912
-7.18351e-06
-0.0001585
-1.91851e-06
-0.000185195
5.59816e-06
-0.000212084
1.49976e-05
-0.00023806
2.59571e-05
-0.000261904
3.79894e-05
-0.000282373
5.0475e-05
-0.000298298
6.27077e-05
-0.000308676
7.39534e-05
-0.000312737
8.35108e-05
-0.000309976
9.07653e-05
-0.000300152
9.52265e-05
-0.000283269
9.6544e-05
-0.000259534
9.45035e-05
-0.000229312
8.90089e-05
-0.000193081
8.0057e-05
-0.00015139
6.77102e-05
-0.000104853
5.20782e-05
-5.4007e-05
3.32811e-05
1.16326e-05
-0.000126326
-2.90029e-06
-0.00015181
3.05717e-06
-0.000178391
1.11493e-05
-0.000205155
2.10022e-05
-0.000231008
3.22768e-05
-0.000254757
4.44861e-05
-0.000275185
5.70207e-05
-0.000291142
6.91917e-05
-0.000301639
8.02862e-05
-0.000305915
8.96201e-05
-0.000303464
9.65921e-05
-0.000294045
0.000100719
-0.000277654
0.00010165
-0.000254493
9.9167e-05
-0.000224919
9.31648e-05
-0.000189407
8.36324e-05
-0.00014851
7.06258e-05
-0.000102842
5.42519e-05
-5.29551e-05
3.46321e-05
1.20954e-05
-0.000122438
1.80661e-06
-0.000147661
8.49227e-06
-0.000173935
1.71361e-05
-0.000200339
2.73805e-05
-0.000225813
3.88823e-05
-0.000249203
5.11638e-05
-0.000269328
6.36313e-05
-0.000285061
7.5619e-05
-0.00029544
8.64432e-05
-0.00029972
9.54426e-05
-0.0002974
0.000102036
-0.000288238
0.000105754
-0.000272225
0.000106249
-0.000249553
0.000103301
-0.00022057
9.67985e-05
-0.000185745
8.67218e-05
-0.000145624
7.31199e-05
-0.000100822
5.60955e-05
-5.1897e-05
3.57693e-05
1.2483e-05
-0.000121062
7.02429e-06
-0.000145886
1.44196e-05
-0.000171671
2.35534e-05
-0.000197504
3.4113e-05
-0.00022236
4.5745e-05
-0.000245138
5.79905e-05
-0.000264708
7.02847e-05
-0.000279979
8.19816e-05
-0.000290015
9.24254e-05
-0.000294098
0.000100987
-0.000291738
0.000107114
-0.000282695
0.000110356
-0.000266953
0.000110371
-0.000244693
0.00010694
-0.000216252
9.9946e-05
-0.000182085
8.93605e-05
-0.000142729
7.52246e-05
-9.87935e-05
5.76354e-05
-5.08361e-05
3.67114e-05
1.28024e-05
-0.000103263
6.74652e-06
-0.000126809
1.28901e-05
-0.000152045
2.09064e-05
-0.000178158
3.04645e-05
-0.000204192
4.12594e-05
-0.000229153
5.29257e-05
-0.000251941
6.50338e-05
-0.000271442
7.70454e-05
-0.000286575
8.83406e-05
-0.000296409
9.82952e-05
-0.000300236
0.000106325
-0.000297566
0.000111906
-0.000288149
0.000114605
-0.000271961
0.000114095
-0.00024918
0.00011016
-0.000220141
0.000102676
-0.000185299
9.16092e-05
-0.0001452
7.69899e-05
-0.000100467
5.8909e-05
-5.16757e-05
3.74808e-05
1.30608e-05
-0.000109609
-0.000133365
-0.000158633
2.79341e-05
-0.000184542
3.79135e-05
-0.000210167
4.88378e-05
-0.000234653
6.04243e-05
-0.000256893
7.22989e-05
-0.000275788
8.39189e-05
-0.000290305
9.47027e-05
-0.000299542
0.000104069
-0.000302825
0.000111476
-0.000299684
0.000116437
-0.000289863
0.000118536
-0.000273336
0.000117463
-0.000250267
0.000113003
-0.000220978
0.000105032
-0.000185918
9.35069e-05
-0.000145624
7.84496e-05
-0.000100719
5.9943e-05
-5.17824e-05
3.80957e-05
1.32651e-05
-0.000167506
-0.000193269
-0.000218332
5.67857e-05
-0.000242066
6.82199e-05
-0.000263528
7.97333e-05
-0.000281565
9.08669e-05
-0.000295222
0.000101044
-0.000303621
0.000109734
-0.000306135
0.00011643
-0.000302313
0.000120695
-0.000291918
0.000122145
-0.00027492
0.000120481
-0.000251462
0.000115484
-0.000221857
0.000107032
-0.000186537
9.50742e-05
-0.000146028
7.96224e-05
-0.000100948
6.07533e-05
-5.18754e-05
3.85668e-05
1.34193e-05
-0.000228526
-0.000251491
7.61482e-05
-0.00027191
8.73602e-05
-0.000288807
9.78767e-05
-0.000301374
0.000107348
-0.00030868
0.000115277
-0.000310201
0.000121178
-0.000305508
0.000124685
-0.000294373
0.000125438
-0.000276763
0.000123149
-0.000252816
0.000117611
-0.000222826
0.000108695
-0.000187197
9.63323e-05
-0.000146443
8.05287e-05
-0.000101177
6.13564e-05
-5.19664e-05
3.89057e-05
1.35274e-05
-0.000262289
-0.000281881
-0.000297639
0.000104838
-0.00030883
0.000113677
-0.00031472
0.000120695
-0.000315032
0.000125695
-0.000309288
0.000128401
-0.000297246
0.000128422
-0.000278886
0.000125482
-0.000254348
0.000119394
-0.000223905
0.000110025
-0.000187922
9.72916e-05
-0.000146893
8.11858e-05
-0.000101423
6.17694e-05
-5.20653e-05
3.91242e-05
1.35939e-05
-0.000307314
-0.000317425
-0.000321798
0.000125862
-0.000320617
0.000129999
-0.000313659
0.000131828
-0.000300546
0.000131098
-0.000281308
0.00012749
-0.000256069
0.000120845
-0.000225082
0.000111027
-0.0001887
9.79501e-05
-0.000147383
8.15958e-05
-0.000101705
6.20049e-05
-5.21852e-05
3.92358e-05
1.36242e-05
-0.000329536
-0.000326992
0.000133819
-0.000318642
0.000135005
-0.000304254
0.000133469
-0.000284023
0.000129163
-0.000257989
0.000121977
-0.000226373
0.000111727
-0.000189526
9.83278e-05
-0.000147895
8.17605e-05
-0.000102008
6.20505e-05
-5.23267e-05
3.92323e-05
1.36168e-05
-0.000333429
-0.000324072
-0.000308406
0.000135452
-0.000287009
0.000130535
-0.000260109
0.00012279
-0.000227795
0.00011214
-0.000190428
9.84486e-05
-0.000148426
8.16996e-05
-0.000102289
6.19058e-05
-5.24498e-05
3.90952e-05
1.35601e-05
-0.000312707
-0.000290287
0.000131405
-0.000262437
0.00012332
-0.000229337
0.000112274
-0.000191411
9.8311e-05
-0.000148999
8.14291e-05
-0.000102566
6.16014e-05
-5.2542e-05
3.88493e-05
1.3463e-05
-0.000293384
-0.000264878
-0.000231023
0.000112085
-0.000192461
9.79423e-05
-0.000149624
8.09515e-05
-0.00010288
6.11501e-05
-5.26492e-05
3.85184e-05
1.3339e-05
-0.000232697
-0.000193593
9.72199e-05
-0.000150305
8.02843e-05
-0.000103231
6.05507e-05
-5.27874e-05
3.80928e-05
1.31832e-05
-0.000194592
-0.000151002
-0.000103625
5.97763e-05
-5.29409e-05
3.75793e-05
1.29924e-05
-0.000104005
-5.3108e-05
3.69156e-05
1.27665e-05
-5.3251e-05
1.24692e-05
)
;

boundaryField
{
    inlet
    {
        type            calculated;
        value           nonuniform 0();
    }
    outlet
    {
        type            calculated;
        value           uniform 0;
    }
    flap
    {
        type            calculated;
        value           nonuniform 0();
    }
    upperWall
    {
        type            calculated;
        value           nonuniform 0();
    }
    lowerWall
    {
        type            calculated;
        value           uniform 0;
    }
    frontAndBack
    {
        type            empty;
        value           nonuniform 0();
    }
    procBoundary5to2
    {
        type            processor;
        value           nonuniform List<scalar> 
34
(
1.23479e-05
1.92754e-05
0.000142147
3.51174e-05
4.56194e-05
0.000203725
6.45256e-05
0.000239635
8.3137e-05
9.45243e-05
0.000292101
0.000110452
0.000119302
0.000325873
0.000129804
0.00033639
0.000136014
0.000137317
0.000328911
0.000136298
0.00031605
0.000130995
0.000123167
0.000266832
0.000111119
0.00023379
9.57284e-05
7.9217e-05
0.000151488
5.86247e-05
0.000104201
3.59914e-05
5.33072e-05
1.20822e-05
)
;
    }
    procBoundary5to4
    {
        type            processor;
        value           nonuniform List<scalar> 
18
(
0.000286812
0.000283255
0.000272525
0.000255176
0.000233938
0.000210824
0.000187724
0.000166173
0.000147203
0.000131325
0.000118713
0.000109308
0.000102899
9.92348e-05
9.80968e-05
-1.74535e-06
8.21723e-05
8.81215e-05
)
;
    }
}


// ************************************************************************* //
