/*--------------------------------*- C++ -*----------------------------------*\
| =========                 |                                                 |
| \\      /  F ield         | OpenFOAM: The Open Source CFD Toolbox           |
|  \\    /   O peration     | Version:  dev                                   |
|   \\  /    A nd           | Web:      www.OpenFOAM.org                      |
|    \\/     M anipulation  |                                                 |
\*---------------------------------------------------------------------------*/
FoamFile
{
    version     2.0;
    format      ascii;
    class       surfaceScalarField;
    location    "1.49";
    object      meshPhi;
}
// * * * * * * * * * * * * * * * * * * * * * * * * * * * * * * * * * * * * * //

dimensions      [0 3 -1 0 0 0 0];

internalField   nonuniform List<scalar> 
879
(
-1.84997e-06
-1.22504e-06
-2.25134e-06
-1.75671e-06
-1.28077e-06
-5.89938e-06
-2.46303e-06
-3.80993e-07
-1.74853e-06
-1.36515e-06
-5.80731e-06
-2.65768e-06
-1.36069e-05
-6.78486e-07
5.23729e-06
-1.6935e-06
-1.47301e-06
-5.72913e-06
-2.94325e-06
-1.34347e-05
-1.03895e-06
-2.53282e-05
4.79731e-06
1.44813e-05
-1.57828e-06
-1.61024e-06
-5.51271e-06
-3.32128e-06
-1.3159e-05
-1.59082e-06
-2.49032e-05
4.16457e-06
-4.0507e-05
1.37569e-05
2.66363e-05
-1.38109e-06
-1.78124e-06
-5.12623e-06
-3.8058e-06
-1.25929e-05
-2.33903e-06
-2.41914e-05
3.20546e-06
-3.95892e-05
1.26683e-05
-5.80691e-05
2.54325e-05
4.06876e-05
-1.08079e-06
-1.98967e-06
-4.52801e-06
-4.40652e-06
-1.16924e-05
-3.29763e-06
-2.29909e-05
1.91872e-06
-3.81345e-05
1.10949e-05
-5.63571e-05
2.36478e-05
-7.6668e-05
3.87429e-05
-9.78534e-05
5.54415e-05
7.25525e-05
-6.57944e-07
-2.23711e-06
-3.68227e-06
-5.12839e-06
-1.04053e-05
-4.47499e-06
-2.12421e-05
2.90157e-07
-3.59356e-05
9.02795e-06
-5.37675e-05
2.11793e-05
-7.37492e-05
3.5934e-05
-9.47376e-05
5.23441e-05
-0.00011526
6.93376e-05
8.57127e-05
-9.55493e-08
-2.52299e-06
-2.55417e-06
-5.97126e-06
-8.68061e-06
-5.87275e-06
-1.88767e-05
-1.68111e-06
-3.29136e-05
6.46611e-06
-5.01131e-05
1.80333e-05
-6.9526e-05
3.22364e-05
-9.00296e-05
4.81512e-05
-0.000110368
6.47431e-05
-0.000129246
8.09932e-05
-0.0001455
9.59765e-05
0.000108729
6.2189e-07
-2.846e-06
-1.11178e-06
-6.93044e-06
-6.47292e-06
-7.48126e-06
-1.58393e-05
-3.98048e-06
-2.89962e-05
3.42755e-06
-4.53105e-05
1.42306e-05
-6.387e-05
2.76771e-05
-8.36056e-05
4.28761e-05
-0.000103335
5.88609e-05
-0.000121971
7.46559e-05
-0.000138486
8.93608e-05
-0.000152005
0.000102264
-0.000161875
0.000112788
0.000120374
1.5074e-06
-3.20189e-06
6.69138e-07
-7.9938e-06
-3.74557e-06
-9.28207e-06
-1.20833e-05
-6.5826e-06
-2.41303e-05
-5.02395e-08
-3.92952e-05
9.81972e-06
-5.67123e-05
2.23165e-05
-7.53575e-05
3.65858e-05
-9.41423e-05
5.17158e-05
-0.000112011
6.68009e-05
-0.000128009
8.10033e-05
-0.000141499
9.36175e-05
-0.000151876
0.000104062
-0.000158866
0.000112087
0.000117435
2.57137e-06
-3.58427e-06
2.80888e-06
-9.14303e-06
-4.68747e-07
-1.12446e-05
-7.57146e-06
-9.44561e-06
-1.82804e-05
-3.91063e-06
-3.20291e-05
4.87655e-06
-4.80067e-05
1.62391e-05
-6.52423e-05
2.938e-05
-8.27053e-05
4.34338e-05
-9.94114e-05
5.75511e-05
-0.000114482
7.09684e-05
-0.00012721
8.30068e-05
-0.000137035
9.31086e-05
-0.000143891
0.000100942
-0.000147482
0.000106423
-0.000147435
0.000109502
0.000110076
3.8214e-06
-3.98454e-06
5.32106e-06
-1.03532e-05
3.37276e-06
-1.33258e-05
-2.28414e-06
-1.25076e-05
-1.14258e-05
-8.07814e-06
-2.35056e-05
-5.00886e-07
-3.775e-05
9.57571e-06
-5.32597e-05
2.14028e-05
-6.90532e-05
3.41817e-05
-8.41981e-05
4.71098e-05
-9.78815e-05
5.94778e-05
-0.000109396
7.06603e-05
-0.000118208
8.01256e-05
-0.000124076
8.7543e-05
-0.000126967
9.27573e-05
-0.00012669
9.57068e-05
-0.000123379
9.6545e-05
-0.000117278
9.55243e-05
9.2678e-05
5.26242e-06
-4.39314e-06
8.21157e-06
-1.15924e-05
7.78175e-06
-1.5473e-05
3.77554e-06
-1.56927e-05
-3.57139e-06
-1.2448e-05
-1.37413e-05
-6.18718e-06
-2.59871e-05
2.48043e-06
-3.94644e-05
1.2847e-05
-5.32658e-05
2.41753e-05
-6.64891e-05
3.57246e-05
-7.83699e-05
4.68235e-05
-8.8258e-05
5.69038e-05
-9.56261e-05
6.54827e-05
-0.000100193
7.22334e-05
-0.000101833
7.69883e-05
-0.000100467
7.96963e-05
-9.63747e-05
8.04439e-05
-8.96653e-05
7.93909e-05
-8.03635e-05
7.67656e-05
-6.86526e-05
7.27605e-05
6.70838e-05
6.89346e-06
-4.79688e-06
1.14786e-05
-1.28223e-05
1.27568e-05
-1.76243e-05
1.05939e-05
-1.89161e-05
5.2467e-06
-1.6904e-05
-2.78235e-06
-1.20284e-05
-1.27886e-05
-4.86447e-06
-2.39627e-05
3.93042e-06
-3.54712e-05
1.36721e-05
-4.64667e-05
2.36885e-05
-5.6215e-05
3.33552e-05
-6.41393e-05
4.2152e-05
-6.97439e-05
4.96559e-05
-7.27228e-05
5.55558e-05
-7.29303e-05
5.96778e-05
-7.03167e-05
6.19638e-05
-6.50062e-05
6.24634e-05
-5.7123e-05
6.1314e-05
-4.69118e-05
5.87235e-05
-3.45648e-05
5.48749e-05
8.70796e-06
-5.17785e-06
1.51124e-05
-1.39989e-05
1.82856e-05
-1.9712e-05
1.81513e-05
-2.20797e-05
1.49856e-05
-2.13206e-05
9.29893e-06
-1.7864e-05
1.75043e-06
-1.22551e-05
-6.89697e-06
-5.10044e-06
-1.58648e-05
2.97121e-06
-2.43912e-05
1.13543e-05
-3.17872e-05
1.94891e-05
-3.75199e-05
2.68969e-05
-4.11401e-05
3.31963e-05
-4.23331e-05
3.81016e-05
-4.0935e-05
4.1438e-05
-3.68884e-05
4.3139e-05
-3.02588e-05
4.32344e-05
-2.11769e-05
4.18361e-05
-9.8537e-06
3.91265e-05
3.53126e-05
1.07018e-05
-5.52369e-06
1.91026e-05
-1.508e-05
2.43412e-05
-2.16599e-05
2.64057e-05
-2.50724e-05
2.55922e-05
-2.55523e-05
2.24112e-05
-2.35126e-05
1.74897e-05
-1.94626e-05
1.15323e-05
-1.39605e-05
5.26136e-06
-7.57651e-06
-6.40425e-07
-8.57279e-07
-5.54742e-06
5.69802e-06
-8.9462e-06
1.16565e-05
-1.04227e-05
1.66673e-05
-9.67529e-06
2.04707e-05
-6.53138e-06
2.29029e-05
-9.28345e-07
2.38935e-05
7.0954e-06
2.34557e-05
1.74257e-05
2.16719e-05
2.98715e-05
1.868e-05
1.47643e-05
1.28703e-05
-5.82241e-06
2.34306e-05
-1.60211e-05
3.0884e-05
-2.33855e-05
3.52867e-05
-2.77727e-05
3.69608e-05
-2.94302e-05
3.64036e-05
-2.87546e-05
3.4211e-05
-2.62161e-05
3.10358e-05
-2.23248e-05
2.75376e-05
-1.75952e-05
2.43441e-05
-1.25186e-05
2.20229e-05
-7.54369e-06
2.10569e-05
-3.05796e-06
2.18294e-05
6.24526e-07
2.46184e-05
3.27033e-06
2.95916e-05
4.72901e-06
3.68161e-05
4.92992e-06
4.62699e-05
3.87378e-06
5.78593e-05
1.62047e-06
7.14153e-05
-1.72159e-06
-5.78577e-06
1.51987e-05
-6.05397e-06
2.806e-05
-1.67662e-05
3.78463e-05
-2.47941e-05
4.46825e-05
-3.00437e-05
4.89235e-05
-3.27731e-05
5.10544e-05
-3.33603e-05
5.16383e-05
-3.22394e-05
5.12846e-05
-2.98727e-05
5.05975e-05
-2.6723e-05
5.01537e-05
-2.32292e-05
5.04706e-05
-1.97896e-05
5.19879e-05
-1.67472e-05
5.5055e-05
-1.43796e-05
5.99257e-05
-1.28943e-05
6.67577e-05
-1.24273e-05
7.56189e-05
-1.30463e-05
8.64987e-05
-1.47584e-05
9.93214e-05
-1.75198e-05
0.000113939
-2.12428e-05
-2.54921e-05
1.76504e-05
-6.19322e-06
3.29189e-05
-1.72475e-05
4.5118e-05
-2.57807e-05
5.44459e-05
-3.17444e-05
6.12901e-05
-3.54043e-05
6.61312e-05
-3.71169e-05
6.95047e-05
-3.72811e-05
7.19765e-05
-3.63135e-05
7.41034e-05
-3.46263e-05
7.64092e-05
-3.2608e-05
7.93618e-05
-3.06087e-05
8.33575e-05
-2.89288e-05
8.87113e-05
-2.78114e-05
9.56526e-05
-2.74384e-05
0.000104326
-2.79305e-05
0.000114798
-2.93504e-05
0.000127064
-3.1709e-05
0.000141064
-3.49733e-05
0.000156668
-3.90702e-05
-4.35114e-05
2.01727e-05
-6.21881e-06
3.79112e-05
-1.74032e-05
5.2571e-05
-2.62515e-05
6.44212e-05
-3.27502e-05
7.38785e-05
-3.71658e-05
8.14213e-05
-3.9832e-05
8.75628e-05
-4.11117e-05
9.28284e-05
-4.13771e-05
9.77284e-05
-4.09921e-05
0.000102737
-4.0297e-05
0.000108276
-3.95966e-05
0.000114699
-3.91513e-05
0.000122287
-3.91712e-05
0.000131246
-3.98139e-05
0.000141706
-4.11844e-05
0.000153728
-4.33387e-05
0.000167314
-4.62886e-05
0.000182412
-5.00081e-05
0.000198906
-5.44349e-05
-5.90468e-05
2.27157e-05
-6.11575e-06
4.29492e-05
-1.71882e-05
6.00866e-05
-2.61302e-05
7.44589e-05
-3.29536e-05
8.65091e-05
-3.79184e-05
9.67145e-05
-4.13327e-05
0.000105567
-4.3523e-05
0.000113556
-4.48183e-05
0.00012115
-4.55363e-05
0.000128776
-4.59719e-05
0.000136812
-4.63874e-05
0.000145574
-4.70058e-05
0.000155309
-4.80064e-05
0.000166201
-4.95237e-05
0.000178364
-5.16472e-05
0.000191853
-5.4425e-05
0.000206671
-5.78679e-05
0.000222772
-6.19543e-05
0.000240051
-6.66297e-05
-7.13581e-05
2.52377e-05
-5.87222e-06
4.79524e-05
-1.65659e-05
6.75496e-05
-2.53533e-05
8.44099e-05
-3.22635e-05
9.89996e-05
-3.75423e-05
0.000111795
-4.14699e-05
0.000123268
-4.43352e-05
0.000133878
-4.64251e-05
0.000144052
-4.80135e-05
0.000154178
-4.93525e-05
0.000164593
-5.06646e-05
0.000175577
-5.21382e-05
0.000187347
-5.39242e-05
0.000200064
-5.6135e-05
0.000213827
-5.88454e-05
0.000228684
-6.20953e-05
0.000244635
-6.5893e-05
0.00026164
-7.02194e-05
0.0002796
-7.50263e-05
-7.97828e-05
2.76976e-05
-5.47936e-06
5.28393e-05
-1.55085e-05
7.484e-05
-2.38718e-05
9.41189e-05
-3.06081e-05
0.000111161
-3.59429e-05
0.000126441
-4.01246e-05
0.000140415
-4.34044e-05
0.000153512
-4.60277e-05
0.000166127
-4.82266e-05
0.000178611
-5.02129e-05
0.000191264
-5.21722e-05
0.000204332
-5.42609e-05
0.000218008
-5.66034e-05
0.000232429
-5.9292e-05
0.000247679
-6.23875e-05
0.000263798
-6.59215e-05
0.000280783
-6.98994e-05
0.000298594
-7.43036e-05
0.000317138
-7.9091e-05
-8.37544e-05
3.00536e-05
-4.9318e-06
5.7526e-05
-1.39986e-05
8.18344e-05
-2.16537e-05
0.000103426
-2.79398e-05
0.0001228
-3.30557e-05
0.000140428
-3.72153e-05
0.000156754
-4.06309e-05
0.000172181
-4.35074e-05
0.000187074
-4.60366e-05
0.000201752
-4.83924e-05
0.000216484
-5.07261e-05
0.000231488
-5.31643e-05
0.000246929
-5.58074e-05
0.000262926
-5.8729e-05
0.000279549
-6.1977e-05
0.000296827
-6.55754e-05
0.000314752
-6.95266e-05
0.000333283
-7.38143e-05
0.000352332
-7.83997e-05
-8.28179e-05
3.22633e-05
-4.22817e-06
6.1928e-05
-1.20308e-05
8.84077e-05
-1.86871e-05
0.000112168
-2.42384e-05
0.000133718
-2.8852e-05
0.000153528
-3.2704e-05
0.000172028
-3.59669e-05
0.000189602
-3.88057e-05
0.000206589
-4.13732e-05
0.000223282
-4.38071e-05
0.000239922
-4.62267e-05
0.000256701
-4.87313e-05
0.000273764
-5.13987e-05
0.00029121
-5.42859e-05
0.000309096
-5.7429e-05
0.000327439
-6.08453e-05
0.000346227
-6.45347e-05
0.000365415
-6.84823e-05
0.000384917
-7.26545e-05
-7.66457e-05
3.42855e-05
-3.37152e-06
6.59619e-05
-9.61268e-06
9.44347e-05
-1.49821e-05
0.00012018
-1.95155e-05
0.000143714
-2.3344e-05
0.000165504
-2.66035e-05
0.00018597
-2.94255e-05
0.000205481
-3.19347e-05
0.000224358
-3.42463e-05
0.000242868
-3.64632e-05
0.000261232
-3.86743e-05
0.00027962
-4.09531e-05
0.00029816
-4.3357e-05
0.000316932
-4.59273e-05
0.00033598
-4.86901e-05
0.000355314
-5.16567e-05
0.000374911
-5.48258e-05
0.000394724
-5.81842e-05
0.000414667
-6.17046e-05
-6.5059e-05
3.60816e-05
-2.36944e-06
6.95468e-05
-6.76601e-06
9.979e-05
-1.0573e-05
0.000127293
-1.38173e-05
0.000152575
-1.65901e-05
0.000176104
-1.89842e-05
0.000198293
-2.10889e-05
0.000219502
-2.29884e-05
0.000240035
-2.47603e-05
0.000260144
-2.64734e-05
0.000280032
-2.81873e-05
0.000299855
-2.99508e-05
0.000319721
-3.18019e-05
0.000339701
-3.3768e-05
0.000359826
-3.58657e-05
0.000380096
-3.81017e-05
0.00040048
-4.04741e-05
0.000420928
-4.29729e-05
0.000441349
-4.5578e-05
-4.80581e-05
3.76182e-05
-1.23385e-06
7.26079e-05
-3.5264e-06
0.00010435
-5.51947e-06
0.000133331
-7.22846e-06
0.000160076
-8.70052e-06
0.000185055
-9.98308e-06
0.000208679
-1.11216e-05
0.000231303
-1.21586e-05
0.000253222
-1.31335e-05
0.000274679
-1.4081e-05
0.000295867
-1.50312e-05
0.000316929
-1.60087e-05
0.000337964
-1.70327e-05
0.000359031
-1.81167e-05
0.000380154
-1.92689e-05
0.000401324
-2.04924e-05
0.000422505
-2.17857e-05
0.000443639
-2.31428e-05
0.000464635
-2.45518e-05
-2.58959e-05
3.88934e-05
7.5096e-05
0.000108004
0.000138112
0.000165955
0.00019201
0.000216693
0.000240358
0.0002633
0.00028576
0.000307927
0.000329938
0.00035189
0.000373835
0.000395792
0.000417748
0.000439663
0.000461474
0.000483091
)
;

boundaryField
{
    inlet
    {
        type            calculated;
        value           uniform 0;
    }
    outlet
    {
        type            calculated;
        value           nonuniform 0();
    }
    flap
    {
        type            calculated;
        value           nonuniform 0();
    }
    upperWall
    {
        type            calculated;
        value           nonuniform List<scalar> 
20
(
0
0
0
0
0
0
0
0
0
0
0
-1.03168e-14
0
0
-9.42932e-15
0
0
0
0
0
)
;
    }
    lowerWall
    {
        type            calculated;
        value           nonuniform 0();
    }
    frontAndBack
    {
        type            empty;
        value           nonuniform 0();
    }
    procBoundary0to1
    {
        type            processor;
        value           nonuniform List<scalar> 
18
(
-5.42327e-05
-1.99097e-05
4.96451e-05
3.25933e-06
4.37217e-05
8.60322e-05
0.000129298
0.000172709
0.000215555
0.000257235
0.000297242
0.000335167
0.000370693
0.000403579
0.000433637
0.000460685
0.000484461
0.000503481
)
;
    }
    procBoundary0to3
    {
        type            processor;
        value           nonuniform List<scalar> 
34
(
1.09481e-06
1.67678e-06
-6.41565e-06
-2.82913e-07
-1.41957e-05
-5.97378e-06
-2.60433e-05
-1.53381e-05
-4.1457e-05
-2.7719e-05
-5.9414e-05
-4.21293e-05
-7.8648e-05
-5.75065e-05
-7.4405e-05
-0.000117917
-8.84996e-05
-0.000133499
-0.00010033
-0.000111989
-0.0001578
-0.00011841
-0.000124272
-0.00016735
-0.000124269
-0.000161615
-0.000119697
-0.000118867
-0.000143925
-0.000108283
-0.000104398
-0.00010839
-8.80775e-05
-8.16535e-05
)
;
    }
}


// ************************************************************************* //
