/*--------------------------------*- C++ -*----------------------------------*\
| =========                 |                                                 |
| \\      /  F ield         | OpenFOAM: The Open Source CFD Toolbox           |
|  \\    /   O peration     | Version:  dev                                   |
|   \\  /    A nd           | Web:      www.OpenFOAM.org                      |
|    \\/     M anipulation  |                                                 |
\*---------------------------------------------------------------------------*/
FoamFile
{
    version     2.0;
    format      ascii;
    class       volVectorField;
    location    "4.88";
    object      cellDisplacement;
}
// * * * * * * * * * * * * * * * * * * * * * * * * * * * * * * * * * * * * * //

dimensions      [0 1 0 0 0 0 0];

internalField   nonuniform List<vector> 
2790
(
(0.00975691 0 -2.93997e-05)
(0.0278571 0 -8.42365e-05)
(0.0433117 0 -0.000132112)
(0.0563451 0 -0.000174138)
(0.0671987 0 -0.000211111)
(0.0760886 0 -0.000243666)
(0.0832024 0 -0.00027225)
(0.088702 0 -0.000297257)
(0.0927323 0 -0.000318125)
(0.0954242 0 -0.000334872)
(0.0968909 0 -0.00034724)
(0.0972319 0 -0.000354796)
(0.0965356 0 -0.00035694)
(0.0948813 0 -0.000352915)
(0.0923416 0 -0.00034181)
(0.088984 0 -0.000322563)
(0.0848733 0 -0.000293966)
(0.0800723 0 -0.000254594)
(0.0746447 0 -0.000202811)
(0.0686568 0 -0.000136782)
(0.0621804 0 -5.44878e-05)
(0.0552965 0 4.62528e-05)
(0.048098 0 0.000167772)
(0.0406958 0 0.000312481)
(0.033226 0 0.0004828)
(0.0258621 0 0.000681073)
(0.0188399 0 0.00090924)
(0.0124996 0 0.00116723)
(0.00735432 0 0.001446)
(0.00442058 0 0.00170237)
(0.00977196 0 -8.82786e-05)
(0.0278993 0 -0.00025297)
(0.0433792 0 -0.00039678)
(0.0564386 0 -0.000523092)
(0.0673197 0 -0.000634251)
(0.07624 0 -0.000732192)
(0.0833886 0 -0.000818223)
(0.0889262 0 -0.000893833)
(0.0929979 0 -0.000956894)
(0.0957372 0 -0.00100772)
(0.0972578 0 -0.00104555)
(0.0976598 0 -0.00106908)
(0.0970327 0 -0.00107657)
(0.0954569 0 -0.00106576)
(0.0930059 0 -0.00103397)
(0.0897487 0 -0.000978045)
(0.0857517 0 -0.000894471)
(0.0810799 0 -0.000779046)
(0.0757987 0 -0.000626954)
(0.069977 0 -0.000432819)
(0.0636895 0 -0.000190747)
(0.0570209 0 0.000105579)
(0.050069 0 0.000462804)
(0.0429509 0 0.00088759)
(0.0358103 0 0.00138607)
(0.0288269 0 0.00196319)
(0.0222426 0 0.00262119)
(0.0164331 0 0.0033556)
(0.0119873 0 0.00413165)
(0.00995428 0 0.00480257)
(0.00980248 0 -0.000147372)
(0.0279838 0 -0.000422421)
(0.0435134 0 -0.000662656)
(0.0566244 0 -0.000873919)
(0.0675596 0 -0.00105994)
(0.0765403 0 -0.00122405)
(0.0837585 0 -0.00136823)
(0.0893697 0 -0.00149325)
(0.093523 0 -0.00159935)
(0.0963566 0 -0.00168557)
(0.097984 0 -0.00175055)
(0.0985073 0 -0.00179224)
(0.0980175 0 -0.00180782)
(0.0965972 0 -0.00179368)
(0.0943219 0 -0.00174548)
(0.0912629 0 -0.00165817)
(0.0874907 0 -0.00152627)
(0.0830737 0 -0.0013431)
(0.0780812 0 -0.00110104)
(0.0725866 0 -0.000791657)
(0.0666705 0 -0.000405819)
(0.0604247 0 6.6097e-05)
(0.053957 0 0.000633911)
(0.047398 0 0.001307)
(0.0409135 0 0.00209271)
(0.0347028 0 0.00299474)
(0.0290081 0 0.00401081)
(0.0241877 0 0.00511952)
(0.0209241 0 0.00624581)
(0.0203813 0 0.00713728)
(0.00984973 0 -0.000206768)
(0.0281108 0 -0.000592058)
(0.0437137 0 -0.000928835)
(0.0569016 0 -0.00122554)
(0.0679164 0 -0.00148688)
(0.076986 0 -0.00171785)
(0.0843009 0 -0.00192101)
(0.090023 0 -0.00209671)
(0.094304 0 -0.0022478)
(0.0972783 0 -0.00237158)
(0.0990647 0 -0.00246649)
(0.0997682 0 -0.00252989)
(0.0994827 0 -0.00255804)
(0.0982935 0 -0.00254622)
(0.0962796 0 -0.00248864)
(0.0935145 0 -0.00237848)
(0.0900757 0 -0.00220913)
(0.0860366 0 -0.00197183)
(0.0814719 0 -0.00165675)
(0.0764611 0 -0.00125323)
(0.0710925 0 -0.000749951)
(0.0654664 0 -0.000135348)
(0.0597021 0 0.000601732)
(0.053942 0 0.00147138)
(0.0483905 0 0.00247857)
(0.0432775 0 0.00362051)
(0.0388945 0 0.0048789)
(0.0355627 0 0.00620995)
(0.033864 0 0.00749759)
(0.0352421 0 0.00837864)
(0.00989676 0 -0.000265901)
(0.0282624 0 -0.000761512)
(0.0439774 0 -0.00119528)
(0.0572664 0 -0.00157641)
(0.0683842 0 -0.00191312)
(0.0775708 0 -0.00221149)
(0.085015 0 -0.00247478)
(0.0908851 0 -0.00270468)
(0.0953324 0 -0.00290354)
(0.0984907 0 -0.00306772)
(0.100486 0 -0.00319627)
(0.101426 0 -0.00328612)
(0.101408 0 -0.00333291)
(0.100522 0 -0.00333107)
(0.0988512 0 -0.00327372)
(0.0964694 0 -0.00315201)
(0.0934672 0 -0.00295998)
(0.0899233 0 -0.00268699)
(0.0859195 0 -0.00232181)
(0.0815441 0 -0.00185257)
(0.0768956 0 -0.00126722)
(0.0720866 0 -0.00055394)
(0.0672554 0 0.000297061)
(0.06255 0 0.00129497)
(0.0581717 0 0.00243988)
(0.0544081 0 0.00371479)
(0.0516166 0 0.00507853)
(0.050171 0 0.00645181)
(0.0504514 0 0.00769871)
(0.0539774 0 0.00835232)
(0.009959 0 -0.00032482)
(0.0284529 0 -0.000930935)
(0.0442896 0 -0.00146161)
(0.0577032 0 -0.00192759)
(0.068959 0 -0.0023407)
(0.0782914 0 -0.00270765)
(0.0858963 0 -0.00303271)
(0.0919481 0 -0.00331829)
(0.0965935 0 -0.00356519)
(0.0999749 0 -0.00377272)
(0.102224 0 -0.00393918)
(0.103452 0 -0.00406114)
(0.103761 0 -0.00413387)
(0.103245 0 -0.00415139)
(0.101996 0 -0.00410659)
(0.100095 0 -0.00399081)
(0.097626 0 -0.00379435)
(0.094687 0 -0.00350819)
(0.0913673 0 -0.00312064)
(0.0877646 0 -0.00261982)
(0.0839901 0 -0.00199442)
(0.080165 0 -0.00123336)
(0.0764604 0 -0.000331567)
(0.0730562 0 0.000712047)
(0.0701329 0 0.00189183)
(0.0679718 0 0.00318065)
(0.0669925 0 0.00450779)
(0.0676741 0 0.00574661)
(0.0703283 0 0.00674274)
(0.0760045 0 0.00699296)
(0.0100343 0 -0.000383405)
(0.0286799 0 -0.00109936)
(0.0446607 0 -0.00172686)
(0.0582206 0 -0.00227901)
(0.0696361 0 -0.00276934)
(0.0791403 0 -0.00320615)
(0.0869339 0 -0.00359472)
(0.0931939 0 -0.00393797)
(0.0980728 0 -0.00423604)
(0.101721 0 -0.00449124)
(0.104269 0 -0.00470086)
(0.105835 0 -0.00486166)
(0.106525 0 -0.00496886)
(0.106441 0 -0.00501643)
(0.10568 0 -0.00499733)
(0.104338 0 -0.00490406)
(0.102492 0 -0.0047235)
(0.10026 0 -0.00445002)
(0.0977392 0 -0.00407203)
(0.09504 0 -0.00357895)
(0.092294 0 -0.00296282)
(0.0896298 0 -0.00221435)
(0.0872032 0 -0.00132974)
(0.0852663 0 -0.00032373)
(0.0840294 0 0.000784644)
(0.0837528 0 0.00195541)
(0.0847818 0 0.00310551)
(0.0877346 0 0.00405582)
(0.0929059 0 0.00461221)
(0.100751 0 0.0043165)
(0.0101211 0 -0.000441823)
(0.0289424 0 -0.00126742)
(0.0450868 0 -0.00199082)
(0.0588099 0 -0.00262873)
(0.0704053 0 -0.00319666)
(0.0801047 0 -0.00370423)
(0.0881126 0 -0.00415786)
(0.0946103 0 -0.00456134)
(0.0997585 0 -0.00491621)
(0.103708 0 -0.0052237)
(0.106594 0 -0.00548217)
(0.108542 0 -0.00568914)
(0.109664 0 -0.00584008)
(0.110067 0 -0.00592931)
(0.109856 0 -0.00595015)
(0.109132 0 -0.00589508)
(0.108 0 -0.00575573)
(0.106564 0 -0.005523)
(0.104941 0 -0.00518859)
(0.10325 0 -0.00474386)
(0.101659 0 -0.00418782)
(0.100317 0 -0.00351734)
(0.0993738 0 -0.00273176)
(0.0990546 0 -0.00184944)
(0.0996384 0 -0.000911682)
(0.101445 0 1.48708e-05)
(0.104716 0 0.000843193)
(0.11 0 0.00137002)
(0.117635 0 0.00135348)
(0.127684 0 0.000409524)
(0.0102173 0 -0.000499937)
(0.0292225 0 -0.00143428)
(0.0455503 0 -0.0022536)
(0.0594662 0 -0.00297798)
(0.0712626 0 -0.00362433)
(0.0811794 0 -0.00420404)
(0.0894262 0 -0.00472476)
(0.096189 0 -0.0051913)
(0.101635 0 -0.00560622)
(0.105917 0 -0.00597072)
(0.109176 0 -0.00628385)
(0.111545 0 -0.00654474)
(0.113142 0 -0.0067492)
(0.11408 0 -0.00689228)
(0.114472 0 -0.00696818)
(0.114423 0 -0.00696966)
(0.114072 0 -0.00689501)
(0.113511 0 -0.00673248)
(0.112875 0 -0.00647802)
(0.11231 0 -0.00612847)
(0.111969 0 -0.00568306)
(0.112026 0 -0.00514692)
(0.112709 0 -0.00453807)
(0.114187 0 -0.00387558)
(0.11674 0 -0.00320975)
(0.12075 0 -0.00263678)
(0.126455 0 -0.00226476)
(0.134132 0 -0.00227745)
(0.144198 0 -0.00295974)
(0.156325 0 -0.00459551)
(0.010322 0 -0.00055738)
(0.029532 0 -0.00159961)
(0.0460615 0 -0.00251536)
(0.0601836 0 -0.0033262)
(0.0721992 0 -0.00405166)
(0.0823533 0 -0.00470478)
(0.0908605 0 -0.00529455)
(0.097912 0 -0.00582688)
(0.10368 0 -0.00630533)
(0.108321 0 -0.00673156)
(0.111981 0 -0.00710491)
(0.114806 0 -0.00742763)
(0.116914 0 -0.00769549)
(0.118428 0 -0.00790479)
(0.119469 0 -0.00805158)
(0.120159 0 -0.00813174)
(0.120627 0 -0.00814207)
(0.120995 0 -0.0080774)
(0.121402 0 -0.00793586)
(0.122038 0 -0.00772449)
(0.123041 0 -0.0074442)
(0.124612 0 -0.00710842)
(0.126962 0 -0.00673934)
(0.130364 0 -0.00638405)
(0.135067 0 -0.00609738)
(0.141358 0 -0.00597389)
(0.149571 0 -0.00616256)
(0.159749 0 -0.00681533)
(0.172206 0 -0.00821873)
(0.186207 0 -0.0105415)
(0.0104346 0 -0.000614323)
(0.029869 0 -0.00176383)
(0.0466127 0 -0.00277441)
(0.0609511 0 -0.00367103)
(0.0732009 0 -0.00447574)
(0.0836088 0 -0.00520308)
(0.092394 0 -0.00586339)
(0.0997528 0 -0.00646382)
(0.105863 0 -0.00700905)
(0.110885 0 -0.00750169)
(0.114978 0 -0.00794373)
(0.118288 0 -0.00833639)
(0.120936 0 -0.00867725)
(0.123056 0 -0.00896461)
(0.124778 0 -0.0091968)
(0.126239 0 -0.00937304)
(0.127569 0 -0.0094917)
(0.128908 0 -0.00955266)
(0.13042 0 -0.00956048)
(0.132266 0 -0.00952044)
(0.134661 0 -0.00945187)
(0.137819 0 -0.00937717)
(0.141932 0 -0.00932181)
(0.147287 0 -0.00934196)
(0.15421 0 -0.00952247)
(0.162867 0 -0.00994256)
(0.173631 0 -0.0107733)
(0.186405 0 -0.0121423)
(0.201201 0 -0.0142857)
(0.216852 0 -0.0172496)
(0.0105532 0 -0.000670588)
(0.0302137 0 -0.00192565)
(0.047185 0 -0.00303041)
(0.0617635 0 -0.00401327)
(0.0742625 0 -0.00489767)
(0.0849394 0 -0.00570024)
(0.0940185 0 -0.00643276)
(0.101701 0 -0.00710371)
(0.108171 0 -0.00771906)
(0.113595 0 -0.00828285)
(0.118139 0 -0.00879855)
(0.12195 0 -0.00926796)
(0.125158 0 -0.00969065)
(0.127904 0 -0.010067)
(0.130327 0 -0.0103978)
(0.132577 0 -0.0106865)
(0.134792 0 -0.0109339)
(0.137118 0 -0.0111438)
(0.139758 0 -0.0113316)
(0.142867 0 -0.0115053)
(0.146649 0 -0.011686)
(0.151373 0 -0.0119149)
(0.157274 0 -0.0122336)
(0.16459 0 -0.0126957)
(0.173703 0 -0.013408)
(0.184788 0 -0.014457)
(0.198116 0 -0.0159966)
(0.21352 0 -0.01813)
(0.230599 0 -0.0209985)
(0.247713 0 -0.0245287)
(0.0106767 0 -0.000725801)
(0.0305772 0 -0.00208488)
(0.0477878 0 -0.00328352)
(0.0626136 0 -0.00435205)
(0.0753732 0 -0.00531623)
(0.0863314 0 -0.00619479)
(0.095717 0 -0.00700091)
(0.103737 0 -0.00774446)
(0.110579 0 -0.0084328)
(0.116416 0 -0.00907127)
(0.121423 0 -0.00966557)
(0.125749 0 -0.0102183)
(0.12953 0 -0.0107307)
(0.13291 0 -0.0112054)
(0.136039 0 -0.0116459)
(0.13909 0 -0.0120623)
(0.142193 0 -0.0124561)
(0.14552 0 -0.0128386)
(0.149252 0 -0.0132244)
(0.153611 0 -0.0136411)
(0.158785 0 -0.0141115)
(0.165022 0 -0.0146783)
(0.17262 0 -0.0154072)
(0.181855 0 -0.016366)
(0.193068 0 -0.0176621)
(0.206505 0 -0.0194013)
(0.222267 0 -0.0216912)
(0.240241 0 -0.0246205)
(0.259527 0 -0.0281794)
(0.278033 0 -0.032202)
(0.0108054 0 -0.000780125)
(0.0309573 0 -0.00224183)
(0.048415 0 -0.00353308)
(0.0634935 0 -0.00468639)
(0.0765223 0 -0.00573015)
(0.087772 0 -0.00668523)
(0.0974735 0 -0.007566)
(0.105839 0 -0.00838384)
(0.113063 0 -0.00914759)
(0.119324 0 -0.00986435)
(0.1248 0 -0.0105414)
(0.129643 0 -0.0111824)
(0.133997 0 -0.0117909)
(0.138013 0 -0.012372)
(0.141857 0 -0.0129347)
(0.145682 0 -0.0134859)
(0.149658 0 -0.0140394)
(0.15396 0 -0.01461)
(0.158767 0 -0.0152161)
(0.164287 0 -0.0158864)
(0.170785 0 -0.0166691)
(0.178461 0 -0.0176039)
(0.187616 0 -0.0187639)
(0.19861 0 -0.0202484)
(0.211663 0 -0.0221438)
(0.227125 0 -0.024591)
(0.244992 0 -0.027659)
(0.265232 0 -0.0314181)
(0.286466 0 -0.0356453)
(0.306507 0 -0.0401487)
(0.0109384 0 -0.000833404)
(0.0313511 0 -0.00239599)
(0.0490609 0 -0.00377835)
(0.0643944 0 -0.00501518)
(0.0776984 0 -0.00613791)
(0.0892475 0 -0.00716977)
(0.0992709 0 -0.00812583)
(0.107987 0 -0.00901911)
(0.115596 0 -0.00986002)
(0.122279 0 -0.010657)
(0.128227 0 -0.0114202)
(0.133588 0 -0.0121538)
(0.13851 0 -0.0128634)
(0.143151 0 -0.0135567)
(0.147694 0 -0.0142488)
(0.152288 0 -0.0149475)
(0.157099 0 -0.0156684)
(0.1623 0 -0.0164297)
(0.168116 0 -0.0172657)
(0.174721 0 -0.0182021)
(0.182389 0 -0.019296)
(0.191347 0 -0.020604)
(0.201847 0 -0.0221958)
(0.214258 0 -0.0241884)
(0.228738 0 -0.0266651)
(0.245621 0 -0.0297815)
(0.264865 0 -0.0336132)
(0.286346 0 -0.0382151)
(0.308491 0 -0.0431853)
(0.330434 0 -0.0484448)
(0.00559013 0 -0.00208806)
(0.0118464 0 -0.00235304)
(0.0246336 0 -0.0026973)
(0.0435527 0 -0.0030934)
(0.0667675 0 -0.00345838)
(0.0918057 0 -0.00374469)
(0.11625 0 -0.00393293)
(0.138409 0 -0.00401243)
(0.15737 0 -0.00399105)
(0.172869 0 -0.0039004)
(0.185133 0 -0.00375846)
(0.194443 0 -0.00358033)
(0.201081 0 -0.00339621)
(0.205327 0 -0.00319296)
(0.207409 0 -0.00299311)
(0.207497 0 -0.00277846)
(0.205713 0 -0.00257662)
(0.202136 0 -0.00236584)
(0.196825 0 -0.00216357)
(0.189777 0 -0.00196925)
(0.180995 0 -0.00178168)
(0.170451 0 -0.00159996)
(0.158068 0 -0.00142579)
(0.14382 0 -0.00124471)
(0.12762 0 -0.00106855)
(0.109355 0 -0.000893206)
(0.0890018 0 -0.00070918)
(0.0664623 0 -0.000521408)
(0.0416028 0 -0.000323842)
(0.0142926 0 -0.000111371)
(0.0104601 0 -0.0063424)
(0.0171662 0 -0.00712967)
(0.0303629 0 -0.00818175)
(0.0493694 0 -0.00932781)
(0.072333 0 -0.0103732)
(0.0968908 0 -0.0111953)
(0.120678 0 -0.0116975)
(0.142136 0 -0.011909)
(0.160428 0 -0.011829)
(0.175355 0 -0.01155)
(0.187142 0 -0.0111316)
(0.196063 0 -0.0106054)
(0.202388 0 -0.010043)
(0.206378 0 -0.00943297)
(0.208258 0 -0.00882635)
(0.208188 0 -0.00821101)
(0.206278 0 -0.00759996)
(0.202606 0 -0.00699765)
(0.197213 0 -0.00640026)
(0.190099 0 -0.00582832)
(0.181264 0 -0.00527479)
(0.170671 0 -0.00473739)
(0.158263 0 -0.00421437)
(0.143995 0 -0.00368759)
(0.127754 0 -0.00316702)
(0.10948 0 -0.00264212)
(0.089114 0 -0.00210262)
(0.0665369 0 -0.00154674)
(0.041651 0 -0.000960966)
(0.0143107 0 -0.000330536)
(0.0197639 0 -0.0107921)
(0.0274743 0 -0.0121331)
(0.0414203 0 -0.0138876)
(0.0604835 0 -0.0156972)
(0.0830015 0 -0.0173334)
(0.106582 0 -0.0185593)
(0.129117 0 -0.0192795)
(0.149244 0 -0.0195248)
(0.166264 0 -0.0193319)
(0.180108 0 -0.0188395)
(0.190996 0 -0.0181496)
(0.199165 0 -0.0172805)
(0.204889 0 -0.0163464)
(0.208404 0 -0.0153644)
(0.209897 0 -0.0143547)
(0.209524 0 -0.0133624)
(0.207371 0 -0.0123659)
(0.203511 0 -0.0114001)
(0.197968 0 -0.0104427)
(0.190727 0 -0.00951768)
(0.181789 0 -0.00861789)
(0.171114 0 -0.00774331)
(0.158641 0 -0.00688053)
(0.144318 0 -0.00603111)
(0.128035 0 -0.00518454)
(0.109722 0 -0.00432608)
(0.0893032 0 -0.00344921)
(0.0666748 0 -0.00253937)
(0.0417403 0 -0.00157842)
(0.0143436 0 -0.000543039)
(0.0332086 0 -0.015615)
(0.0423375 0 -0.0175421)
(0.057112 0 -0.0199138)
(0.0761958 0 -0.0222865)
(0.0979871 0 -0.024368)
(0.120146 0 -0.0258449)
(0.140898 0 -0.0266426)
(0.159142 0 -0.0268133)
(0.174445 0 -0.0264615)
(0.186792 0 -0.0257142)
(0.196419 0 -0.0247312)
(0.203546 0 -0.0235379)
(0.20844 0 -0.0222559)
(0.211287 0 -0.0209309)
(0.212239 0 -0.0195621)
(0.211434 0 -0.0182061)
(0.208939 0 -0.0168646)
(0.204803 0 -0.0155501)
(0.199043 0 -0.014267)
(0.191626 0 -0.0130166)
(0.182543 0 -0.0117914)
(0.171757 0 -0.0106033)
(0.159186 0 -0.00943043)
(0.144771 0 -0.00827494)
(0.128417 0 -0.00712033)
(0.110041 0 -0.00595005)
(0.0895566 0 -0.00474939)
(0.0668628 0 -0.00349912)
(0.0418614 0 -0.00217597)
(0.0143877 0 -0.000748767)
(0.0503687 0 -0.0209371)
(0.0611253 0 -0.0234468)
(0.0766659 0 -0.0263363)
(0.0957099 0 -0.0291569)
(0.116386 0 -0.031467)
(0.136721 0 -0.033028)
(0.155242 0 -0.033747)
(0.171243 0 -0.0337468)
(0.184475 0 -0.033179)
(0.195009 0 -0.0321604)
(0.203114 0 -0.0308682)
(0.208992 0 -0.0293724)
(0.212865 0 -0.0277651)
(0.214881 0 -0.0261065)
(0.215173 0 -0.0244186)
(0.213833 0 -0.0227346)
(0.210912 0 -0.0210751)
(0.20643 0 -0.0194408)
(0.200395 0 -0.0178552)
(0.192762 0 -0.0163091)
(0.183498 0 -0.0147924)
(0.172556 0 -0.0133159)
(0.159859 0 -0.0118616)
(0.145332 0 -0.0104202)
(0.128885 0 -0.00897516)
(0.110427 0 -0.00750772)
(0.0898624 0 -0.00599786)
(0.0670897 0 -0.00442166)
(0.0420067 0 -0.00275078)
(0.01444 0 -0.000946687)
(0.0707918 0 -0.0268264)
(0.0831214 0 -0.0298552)
(0.0993553 0 -0.0331684)
(0.118109 0 -0.0362652)
(0.137304 0 -0.0386103)
(0.155443 0 -0.0400557)
(0.17146 0 -0.0405801)
(0.184908 0 -0.0403057)
(0.195815 0 -0.0394466)
(0.204351 0 -0.0381438)
(0.210761 0 -0.0365503)
(0.215238 0 -0.0347593)
(0.217957 0 -0.0328496)
(0.219035 0 -0.030888)
(0.218574 0 -0.0289066)
(0.216621 0 -0.0269248)
(0.213213 0 -0.0249805)
(0.208337 0 -0.0230676)
(0.201978 0 -0.0212089)
(0.194086 0 -0.0193964)
(0.184609 0 -0.017622)
(0.173486 0 -0.0158836)
(0.160638 0 -0.0141673)
(0.145981 0 -0.0124595)
(0.129422 0 -0.0107419)
(0.110865 0 -0.00899343)
(0.0902085 0 -0.00718998)
(0.0673454 0 -0.00530333)
(0.0421693 0 -0.00330041)
(0.014498 0 -0.00113592)
(0.0940181 0 -0.0332914)
(0.107756 0 -0.0367606)
(0.124494 0 -0.0403732)
(0.142546 0 -0.0435283)
(0.159917 0 -0.0457173)
(0.17553 0 -0.0468672)
(0.188764 0 -0.047056)
(0.199494 0 -0.0464355)
(0.207959 0 -0.045244)
(0.214388 0 -0.043636)
(0.219011 0 -0.0417473)
(0.222005 0 -0.0396764)
(0.223497 0 -0.0374897)
(0.223573 0 -0.0352532)
(0.222306 0 -0.0330114)
(0.219701 0 -0.0307758)
(0.215763 0 -0.0285824)
(0.210458 0 -0.0264327)
(0.203744 0 -0.0243351)
(0.195561 0 -0.0222852)
(0.185844 0 -0.0202758)
(0.174518 0 -0.0182991)
(0.161499 0 -0.0163416)
(0.146696 0 -0.0143869)
(0.130011 0 -0.012415)
(0.111342 0 -0.0104024)
(0.0905829 0 -0.00832177)
(0.0676206 0 -0.00614104)
(0.0423429 0 -0.00382283)
(0.0145594 0 -0.00131574)
(0.119607 0 -0.0402984)
(0.134546 0 -0.0441221)
(0.151455 0 -0.0478697)
(0.168326 0 -0.0508574)
(0.183438 0 -0.0526747)
(0.196199 0 -0.0533604)
(0.206451 0 -0.0530892)
(0.21441 0 -0.052071)
(0.220401 0 -0.0505232)
(0.224702 0 -0.048605)
(0.227524 0 -0.0464334)
(0.229022 0 -0.0441054)
(0.229269 0 -0.0416709)
(0.228337 0 -0.0392024)
(0.226249 0 -0.0367376)
(0.222977 0 -0.0342937)
(0.218489 0 -0.0318909)
(0.212731 0 -0.0295349)
(0.20564 0 -0.0272292)
(0.197144 0 -0.0249701)
(0.187167 0 -0.0227496)
(0.175621 0 -0.0205577)
(0.162417 0 -0.0183798)
(0.147455 0 -0.0161978)
(0.130634 0 -0.0139901)
(0.111844 0 -0.0117309)
(0.0909741 0 -0.00939001)
(0.0679061 0 -0.00693224)
(0.0425218 0 -0.00431636)
(0.0146223 0 -0.00148555)
(0.147148 0 -0.0477814)
(0.163014 0 -0.051852)
(0.17961 0 -0.0555271)
(0.194701 0 -0.0580942)
(0.207084 0 -0.0593275)
(0.216726 0 -0.0594081)
(0.223917 0 -0.0586031)
(0.229107 0 -0.0571474)
(0.232669 0 -0.0552369)
(0.234905 0 -0.0530191)
(0.235975 0 -0.0505848)
(0.236032 0 -0.0480324)
(0.235092 0 -0.0453971)
(0.23319 0 -0.0427437)
(0.230296 0 -0.0400997)
(0.226358 0 -0.0374823)
(0.221313 0 -0.0349053)
(0.215091 0 -0.0323742)
(0.207613 0 -0.0298899)
(0.198793 0 -0.0274482)
(0.188542 0 -0.0250409)
(0.176766 0 -0.0226563)
(0.163366 0 -0.0202788)
(0.148238 0 -0.0178891)
(0.131272 0 -0.015464)
(0.112356 0 -0.0129758)
(0.0913705 0 -0.0103921)
(0.0681935 0 -0.00767493)
(0.0427004 0 -0.00477969)
(0.0146846 0 -0.00164487)
(0.176269 0 -0.055649)
(0.192697 0 -0.0598276)
(0.208287 0 -0.0631599)
(0.220873 0 -0.0650275)
(0.230068 0 -0.0654857)
(0.23641 0 -0.0648634)
(0.240554 0 -0.0634898)
(0.243073 0 -0.0615942)
(0.244337 0 -0.0593375)
(0.244648 0 -0.0568515)
(0.24412 0 -0.0542023)
(0.242849 0 -0.051467)
(0.24082 0 -0.048682)
(0.238003 0 -0.0458861)
(0.234339 0 -0.0431028)
(0.229753 0 -0.0403471)
(0.224163 0 -0.037629)
(0.21748 0 -0.0349527)
(0.209612 0 -0.0323178)
(0.200464 0 -0.0297194)
(0.189936 0 -0.0271488)
(0.177924 0 -0.0245933)
(0.164324 0 -0.0220366)
(0.149024 0 -0.0194585)
(0.13191 0 -0.0168343)
(0.112864 0 -0.0141351)
(0.0917612 0 -0.0113263)
(0.0684747 0 -0.00836763)
(0.0428738 0 -0.00521182)
(0.0147445 0 -0.00179335)
(0.206648 0 -0.0638032)
(0.223087 0 -0.0678823)
(0.236676 0 -0.070507)
(0.24595 0 -0.0713868)
(0.251579 0 -0.0709287)
(0.254572 0 -0.0695676)
(0.255803 0 -0.067642)
(0.255858 0 -0.0653454)
(0.255086 0 -0.0628018)
(0.253706 0 -0.0601015)
(0.251789 0 -0.0572973)
(0.249345 0 -0.0544338)
(0.246326 0 -0.0515401)
(0.242666 0 -0.0486416)
(0.238283 0 -0.0457561)
(0.233083 0 -0.0428957)
(0.226969 0 -0.0400676)
(0.21984 0 -0.0372747)
(0.211592 0 -0.0345157)
(0.202119 0 -0.0317851)
(0.191314 0 -0.0290737)
(0.179067 0 -0.0263686)
(0.165266 0 -0.0236527)
(0.149794 0 -0.020905)
(0.132531 0 -0.0181)
(0.113355 0 -0.0152074)
(0.092136 0 -0.0121913)
(0.0687421 0 -0.00900931)
(0.0430371 0 -0.00561208)
(0.0148005 0 -0.00193076)
(0.238003 0 -0.0721426)
(0.253454 0 -0.0757483)
(0.263689 0 -0.077189)
(0.268888 0 -0.0768356)
(0.27078 0 -0.0754154)
(0.270567 0 -0.073363)
(0.26922 0 -0.0709766)
(0.267191 0 -0.068372)
(0.264736 0 -0.0656275)
(0.261954 0 -0.0627894)
(0.258854 0 -0.0598878)
(0.255395 0 -0.0569474)
(0.251502 0 -0.0539876)
(0.247085 0 -0.0510247)
(0.242046 0 -0.0480718)
(0.236278 0 -0.0451382)
(0.229674 0 -0.0422292)
(0.222121 0 -0.0393465)
(0.213508 0 -0.0364882)
(0.203721 0 -0.0336485)
(0.192647 0 -0.0308179)
(0.180169 0 -0.0279833)
(0.16617 0 -0.0251274)
(0.150529 0 -0.0222285)
(0.13312 0 -0.0192605)
(0.113816 0 -0.0161922)
(0.0924853 0 -0.0129864)
(0.0689887 0 -0.00959942)
(0.0431862 0 -0.00598008)
(0.0148511 0 -0.00205696)
(0.269909 0 -0.0804929)
(0.282448 0 -0.0829126)
(0.287814 0 -0.0826593)
(0.288481 0 -0.080976)
(0.286858 0 -0.0787094)
(0.283998 0 -0.0761513)
(0.280614 0 -0.073459)
(0.27698 0 -0.0706789)
(0.273201 0 -0.0678329)
(0.269295 0 -0.0649348)
(0.265221 0 -0.061996)
(0.260908 0 -0.0590284)
(0.256264 0 -0.0560437)
(0.251185 0 -0.0530525)
(0.245561 0 -0.0500643)
(0.239279 0 -0.0470866)
(0.232224 0 -0.0441235)
(0.224277 0 -0.0411758)
(0.215321 0 -0.0382412)
(0.205237 0 -0.035314)
(0.193906 0 -0.0323846)
(0.181207 0 -0.0294398)
(0.167017 0 -0.0264622)
(0.151212 0 -0.0234299)
(0.133663 0 -0.0203163)
(0.114238 0 -0.0170896)
(0.0928002 0 -0.0137117)
(0.0692082 0 -0.0101378)
(0.0433171 0 -0.0063157)
(0.0148949 0 -0.0021719)
(0.300979 0 -0.0882936)
(0.30748 0 -0.088373)
(0.307129 0 -0.0861922)
(0.303889 0 -0.0834748)
(0.299543 0 -0.0806805)
(0.294813 0 -0.077892)
(0.290002 0 -0.0751033)
(0.285209 0 -0.0722933)
(0.280445 0 -0.0694495)
(0.275674 0 -0.0665678)
(0.270829 0 -0.0636502)
(0.265823 0 -0.0607022)
(0.260552 0 -0.0577313)
(0.254906 0 -0.0547444)
(0.248773 0 -0.0517501)
(0.242037 0 -0.0487548)
(0.234577 0 -0.045762)
(0.226271 0 -0.0427719)
(0.216999 0 -0.0397822)
(0.206638 0 -0.0367874)
(0.195065 0 -0.0337781)
(0.182157 0 -0.0307413)
(0.167788 0 -0.0276595)
(0.151828 0 -0.0245108)
(0.134147 0 -0.0212685)
(0.114608 0 -0.0179002)
(0.0930728 0 -0.0143674)
(0.0693949 0 -0.0106247)
(0.0434263 0 -0.00661908)
(0.0149309 0 -0.00227565)
(0.326162 0 -0.0935155)
(0.326401 0 -0.0906184)
(0.320941 0 -0.0870465)
(0.315004 0 -0.0840457)
(0.309034 0 -0.0812996)
(0.303176 0 -0.0786333)
(0.297475 0 -0.0759684)
(0.291921 0 -0.0732703)
(0.286476 0 -0.0705251)
(0.281078 0 -0.0677292)
(0.275651 0 -0.0648851)
(0.270101 0 -0.0619981)
(0.264326 0 -0.0590756)
(0.258207 0 -0.0561214)
(0.251641 0 -0.0531465)
(0.244511 0 -0.0501574)
(0.236696 0 -0.047157)
(0.22807 0 -0.0441448)
(0.218512 0 -0.0411192)
(0.207898 0 -0.0380751)
(0.196104 0 -0.0350035)
(0.183003 0 -0.0318915)
(0.168467 0 -0.0287221)
(0.152364 0 -0.0254734)
(0.134561 0 -0.0221185)
(0.114919 0 -0.0186251)
(0.0932959 0 -0.0149545)
(0.0695437 0 -0.0110607)
(0.0435106 0 -0.00689051)
(0.0149578 0 -0.00236831)
(0.0110766 0 -0.000886388)
(0.0317621 0 -0.00254956)
(0.0497289 0 -0.00402189)
(0.0653191 0 -0.00534166)
(0.0789118 0 -0.00654534)
(0.0907727 0 -0.00765552)
(0.101127 0 -0.00868848)
(0.110202 0 -0.00965924)
(0.118202 0 -0.0105799)
(0.125318 0 -0.0114604)
(0.131743 0 -0.0123146)
(0.137616 0 -0.0131444)
(0.143102 0 -0.0139605)
(0.14837 0 -0.0147747)
(0.153584 0 -0.0155989)
(0.158922 0 -0.0164518)
(0.164525 0 -0.0173463)
(0.170584 0 -0.0183079)
(0.177316 0 -0.0193745)
(0.184924 0 -0.0205855)
(0.193597 0 -0.0219844)
(0.203596 0 -0.0236463)
(0.21516 0 -0.0256486)
(0.228543 0 -0.0280966)
(0.243897 0 -0.0310929)
(0.261351 0 -0.0347736)
(0.280707 0 -0.0392455)
(0.301437 0 -0.0446511)
(0.321672 0 -0.0510335)
(0.340086 0 -0.0595432)
(0.01122 0 -0.000939366)
(0.0321739 0 -0.00270212)
(0.0504059 0 -0.00426464)
(0.0662878 0 -0.00567025)
(0.0801818 0 -0.00695636)
(0.0923539 0 -0.00814553)
(0.103046 0 -0.00925724)
(0.112489 0 -0.0103078)
(0.120887 0 -0.0113112)
(0.128446 0 -0.0122807)
(0.135344 0 -0.0132274)
(0.141727 0 -0.0141572)
(0.147775 0 -0.0150851)
(0.153657 0 -0.0160251)
(0.159527 0 -0.0169891)
(0.16555 0 -0.0179948)
(0.171902 0 -0.0190677)
(0.178769 0 -0.0202364)
(0.186312 0 -0.0215299)
(0.194753 0 -0.0230004)
(0.204242 0 -0.0246886)
(0.21502 0 -0.026673)
(0.227265 0 -0.0290284)
(0.241111 0 -0.0318437)
(0.256602 0 -0.0352119)
(0.273604 0 -0.0392219)
(0.291634 0 -0.0439274)
(0.309661 0 -0.0493072)
(0.32599 0 -0.0552179)
(0.339232 0 -0.0617165)
(0.0113693 0 -0.000991854)
(0.0325984 0 -0.00285269)
(0.0510959 0 -0.00450464)
(0.067273 0 -0.00599637)
(0.081475 0 -0.00736435)
(0.0939654 0 -0.00863308)
(0.104999 0 -0.00982433)
(0.11481 0 -0.0109556)
(0.123616 0 -0.0120444)
(0.131612 0 -0.0131043)
(0.138971 0 -0.0141454)
(0.145862 0 -0.0151801)
(0.15245 0 -0.0162208)
(0.158906 0 -0.0172849)
(0.16539 0 -0.018389)
(0.172051 0 -0.0195492)
(0.179082 0 -0.0207972)
(0.186629 0 -0.0221593)
(0.194843 0 -0.0236654)
(0.203921 0 -0.0253674)
(0.214006 0 -0.0273119)
(0.225242 0 -0.0295599)
(0.237737 0 -0.0321778)
(0.251495 0 -0.035227)
(0.266406 0 -0.0387658)
(0.282095 0 -0.0428076)
(0.297895 0 -0.0473224)
(0.312828 0 -0.0522085)
(0.325854 0 -0.0573877)
(0.335802 0 -0.0627196)
(0.0115031 0 -0.00104177)
(0.0330129 0 -0.00299902)
(0.0518086 0 -0.00474158)
(0.0682793 0 -0.006318)
(0.0827779 0 -0.00776605)
(0.0955906 0 -0.00911454)
(0.106965 0 -0.0103855)
(0.11715 0 -0.0116001)
(0.126356 0 -0.0127744)
(0.13477 0 -0.013922)
(0.142586 0 -0.0150598)
(0.149964 0 -0.0161996)
(0.157064 0 -0.017354)
(0.164052 0 -0.0185401)
(0.171085 0 -0.0197779)
(0.178325 0 -0.0210892)
(0.185929 0 -0.0225002)
(0.194017 0 -0.0240352)
(0.202757 0 -0.0257329)
(0.212272 0 -0.0276314)
(0.222678 0 -0.0297759)
(0.234037 0 -0.03221)
(0.246368 0 -0.0349818)
(0.25955 0 -0.0381158)
(0.273342 0 -0.0416273)
(0.287306 0 -0.0454868)
(0.300851 0 -0.0496418)
(0.313251 0 -0.0540054)
(0.32372 0 -0.0584691)
(0.331463 0 -0.0628489)
(0.0116405 0 -0.00109053)
(0.0334334 0 -0.00314217)
(0.0525205 0 -0.00497272)
(0.0692784 0 -0.00663089)
(0.0840734 0 -0.00815742)
(0.0972103 0 -0.00958495)
(0.108936 0 -0.0109368)
(0.119488 0 -0.0122339)
(0.129067 0 -0.0134914)
(0.13789 0 -0.0147278)
(0.146148 0 -0.0159617)
(0.153978 0 -0.0172028)
(0.161549 0 -0.0184671)
(0.169019 0 -0.0197716)
(0.176544 0 -0.0211377)
(0.184272 0 -0.0225873)
(0.192334 0 -0.0241436)
(0.200827 0 -0.0258282)
(0.209917 0 -0.0276837)
(0.219654 0 -0.0297319)
(0.230114 0 -0.0320118)
(0.241284 0 -0.0345464)
(0.253095 0 -0.0373599)
(0.265369 0 -0.040453)
(0.277842 0 -0.043818)
(0.290116 0 -0.0474149)
(0.301709 0 -0.0511842)
(0.312079 0 -0.0550463)
(0.320645 0 -0.0588715)
(0.326919 0 -0.0625142)
(0.0117781 0 -0.00113749)
(0.0338506 0 -0.00327984)
(0.0532216 0 -0.00519497)
(0.0702586 0 -0.00693213)
(0.0853504 0 -0.00853636)
(0.09881 0 -0.0100413)
(0.110879 0 -0.0114722)
(0.121781 0 -0.0128487)
(0.131727 0 -0.0141885)
(0.140945 0 -0.0155134)
(0.149611 0 -0.0168397)
(0.157854 0 -0.0181773)
(0.165838 0 -0.0195428)
(0.173747 0 -0.0209613)
(0.181686 0 -0.0224441)
(0.1898 0 -0.0240152)
(0.198194 0 -0.0256939)
(0.206967 0 -0.0275037)
(0.216219 0 -0.0294738)
(0.225962 0 -0.0316179)
(0.236228 0 -0.0339632)
(0.246956 0 -0.0365184)
(0.258046 0 -0.0392923)
(0.269311 0 -0.0422756)
(0.28049 0 -0.0454446)
(0.291244 0 -0.0487554)
(0.301212 0 -0.052155)
(0.309964 0 -0.0555536)
(0.317106 0 -0.0588384)
(0.322375 0 -0.0619104)
(0.0119126 0 -0.00118195)
(0.0342575 0 -0.00341031)
(0.0539057 0 -0.00540601)
(0.0712294 0 -0.00722034)
(0.086605 0 -0.0088988)
(0.100369 0 -0.0104782)
(0.112772 0 -0.0119856)
(0.124011 0 -0.013439)
(0.134307 0 -0.0148585)
(0.143894 0 -0.0162681)
(0.15293 0 -0.0176813)
(0.161539 0 -0.0191086)
(0.169899 0 -0.0205707)
(0.17817 0 -0.0220896)
(0.186431 0 -0.0236725)
(0.194829 0 -0.0253454)
(0.203439 0 -0.0271216)
(0.212334 0 -0.0290205)
(0.221559 0 -0.0310573)
(0.231131 0 -0.033247)
(0.241035 0 -0.0356025)
(0.251198 0 -0.0381263)
(0.261498 0 -0.0408141)
(0.271757 0 -0.0436494)
(0.281747 0 -0.0466037)
(0.291194 0 -0.0496348)
(0.2998 0 -0.0526828)
(0.307262 0 -0.0556677)
(0.313337 0 -0.0585105)
(0.317877 0 -0.0611352)
(0.0120424 0 -0.00122352)
(0.0346499 0 -0.00353245)
(0.0545653 0 -0.00560401)
(0.0721626 0 -0.00749091)
(0.087819 0 -0.00923978)
(0.101884 0 -0.0108916)
(0.114594 0 -0.0124706)
(0.126147 0 -0.0139964)
(0.136769 0 -0.0154907)
(0.146695 0 -0.0169797)
(0.15606 0 -0.0184732)
(0.164992 0 -0.019983)
(0.17367 0 -0.0215317)
(0.182213 0 -0.0231332)
(0.19071 0 -0.0247984)
(0.199275 0 -0.0265472)
(0.207966 0 -0.0283894)
(0.216841 0 -0.03034)
(0.225924 0 -0.0324099)
(0.235211 0 -0.0346074)
(0.244666 0 -0.0369365)
(0.254206 0 -0.039393)
(0.263709 0 -0.0419658)
(0.273016 0 -0.0446339)
(0.281953 0 -0.047374)
(0.290281 0 -0.050137)
(0.297757 0 -0.0528617)
(0.304192 0 -0.0554915)
(0.309443 0 -0.0579695)
(0.313424 0 -0.0602379)
(0.0121648 0 -0.0012615)
(0.0350207 0 -0.00364433)
(0.0551904 0 -0.00578589)
(0.0730443 0 -0.00773974)
(0.0889842 0 -0.00955667)
(0.103335 0 -0.0112755)
(0.116319 0 -0.0129195)
(0.128158 0 -0.0145117)
(0.139088 0 -0.016077)
(0.14931 0 -0.0176366)
(0.158951 0 -0.0191998)
(0.168155 0 -0.0207821)
(0.177072 0 -0.0224011)
(0.185803 0 -0.0240675)
(0.194441 0 -0.0257938)
(0.203073 0 -0.0275939)
(0.211752 0 -0.0294774)
(0.220515 0 -0.0314533)
(0.22937 0 -0.0335279)
(0.238301 0 -0.0357037)
(0.247258 0 -0.0379788)
(0.256161 0 -0.0403446)
(0.264899 0 -0.0427862)
(0.273354 0 -0.045288)
(0.281356 0 -0.047816)
(0.288708 0 -0.0503206)
(0.295256 0 -0.0527593)
(0.300873 0 -0.0550878)
(0.305471 0 -0.0572633)
(0.309004 0 -0.0592427)
(0.0122784 0 -0.00129539)
(0.0353651 0 -0.00374439)
(0.0557747 0 -0.00594935)
(0.0738859 0 -0.0079658)
(0.090084 0 -0.00984389)
(0.104679 0 -0.0116207)
(0.117918 0 -0.0133237)
(0.130026 0 -0.0149771)
(0.141221 0 -0.0166041)
(0.151679 0 -0.0182218)
(0.161545 0 -0.0198437)
(0.170956 0 -0.0214839)
(0.180039 0 -0.0231569)
(0.188892 0 -0.0248729)