/*--------------------------------*- C++ -*----------------------------------*\
| =========                 |                                                 |
| \\      /  F ield         | OpenFOAM: The Open Source CFD Toolbox           |
|  \\    /   O peration     | Version:  dev                                   |
|   \\  /    A nd           | Web:      www.OpenFOAM.org                      |
|    \\/     M anipulation  |                                                 |
\*---------------------------------------------------------------------------*/
FoamFile
{
    version     2.0;
    format      ascii;
    class       volVectorField;
    location    "2.83";
    object      cellDisplacement;
}
// * * * * * * * * * * * * * * * * * * * * * * * * * * * * * * * * * * * * * //

dimensions      [0 1 0 0 0 0 0];

internalField   nonuniform List<vector> 
465
(
(0.0106224 0 -0.000714359)
(0.0304753 0 -0.00205639)
(0.0107535 0 -0.000757344)
(0.0308629 0 -0.00218096)
(0.0484137 0 -0.00344788)
(0.0108885 0 -0.000799933)
(0.0312605 0 -0.00230441)
(0.0490682 0 -0.00364511)
(0.0646416 0 -0.00485639)
(0.0110267 0 -0.000841832)
(0.031664 0 -0.00242577)
(0.0497298 0 -0.00383904)
(0.0655675 0 -0.00511854)
(0.079503 0 -0.00629447)
(0.0111687 0 -0.000882959)
(0.032069 0 -0.00254396)
(0.0503896 0 -0.00402778)
(0.0664908 0 -0.0053741)
(0.0806966 0 -0.00661384)
(0.0933063 0 -0.00777355)
(0.0112905 0 -0.000921162)
(0.0324478 0 -0.00265632)
(0.0510396 0 -0.00420995)
(0.067399 0 -0.00562037)
(0.0818654 0 -0.00692147)
(0.0947548 0 -0.00814208)
(0.106311 0 -0.00930271)
(0.0114101 0 -0.000957337)
(0.0328125 0 -0.00276257)
(0.0516464 0 -0.00438082)
(0.0682562 0 -0.00585229)
(0.0829891 0 -0.00721322)
(0.0961486 0 -0.0084921)
(0.107986 0 -0.00971094)
(0.118722 0 -0.010888)
(0.128566 0 -0.0120407)
(0.0115224 0 -0.000990604)
(0.0331526 0 -0.00286018)
(0.0522156 0 -0.00453836)
(0.0690643 0 -0.00606729)
(0.0840461 0 -0.00748386)
(0.0974596 0 -0.00881713)
(0.109558 0 -0.01009)
(0.120562 0 -0.0113215)
(0.130672 0 -0.012528)
(0.140057 0 -0.0137224)
(0.0116242 0 -0.00102038)
(0.0334614 0 -0.0029477)
(0.0527361 0 -0.00468014)
(0.0698051 0 -0.0062611)
(0.0850149 0 -0.00772814)
(0.0986614 0 -0.0091108)
(0.110996 0 -0.0104326)
(0.122239 0 -0.0117127)
(0.132583 0 -0.0129672)
(0.142195 0 -0.0142097)
(0.151222 0 -0.0154519)
(0.159796 0 -0.0167045)
(0.0117128 0 -0.00104612)
(0.0337324 0 -0.00302365)
(0.0531975 0 -0.00480373)
(0.0704654 0 -0.00643057)
(0.0858809 0 -0.0079422)
(0.0997366 0 -0.00936852)
(0.112282 0 -0.0107333)
(0.123734 0 -0.0120558)
(0.134278 0 -0.013352)
(0.144078 0 -0.0146351)
(0.153276 0 -0.0159166)
(0.161996 0 -0.0172066)
(0.170343 0 -0.0185134)
(0.178406 0 -0.0198449)
(0.0117861 0 -0.00106728)
(0.0339598 0 -0.0030865)
(0.0535907 0 -0.00490672)
(0.0710337 0 -0.0065725)
(0.0866306 0 -0.00812215)
(0.10067 0 -0.00958568)
(0.113399 0 -0.0109869)
(0.125028 0 -0.0123451)
(0.135741 0 -0.0136759)
(0.145693 0 -0.0149921)
(0.155021 0 -0.0163046)
(0.163844 0 -0.0176227)
(0.172258 0 -0.0189541)
(0.180346 0 -0.020305)
(0.188169 0 -0.0216803)
(0.0118422 0 -0.00108334)
(0.0341386 0 -0.00313477)
(0.0539079 0 -0.00498672)
(0.0715003 0 -0.00668375)
(0.0872528 0 -0.00826412)
(0.10145 0 -0.00975774)
(0.114333 0 -0.0111883)
(0.12611 0 -0.0125749)
(0.136958 0 -0.0139327)
(0.147028 0 -0.015274)
(0.156448 0 -0.016609)
(0.165334 0 -0.0179462)
(0.173777 0 -0.0192926)
(0.181849 0 -0.0206529)
(0.189608 0 -0.0220305)
(0.197094 0 -0.0234278)
(0.204333 0 -0.0248454)
(0.0118797 0 -0.00109381)
(0.0342647 0 -0.00316699)
(0.0541429 0 -0.00504142)
(0.0718573 0 -0.00676122)
(0.0877386 0 -0.00836429)
(0.102065 0 -0.00988021)
(0.115074 0 -0.0113323)
(0.12697 0 -0.0127396)
(0.137923 0 -0.0141167)
(0.148076 0 -0.0154748)
(0.157554 0 -0.0168233)
(0.166468 0 -0.0181708)
(0.174907 0 -0.0195233)
(0.182932 0 -0.0208835)
(0.190596 0 -0.0222541)
(0.197938 0 -0.023636)
(0.204982 0 -0.0250288)
(0.211736 0 -0.0264303)
(0.218198 0 -0.027837)
(0.0118975 0 -0.0010982)
(0.0343352 0 -0.00318175)
(0.0542911 0 -0.00506855)
(0.0720991 0 -0.00680189)
(0.0880818 0 -0.00841899)
(0.10251 0 -0.00994878)
(0.115614 0 -0.011414)
(0.1276 0 -0.0128338)
(0.138631 0 -0.0142221)
(0.148839 0 -0.0155888)
(0.158339 0 -0.0169417)
(0.167255 0 -0.018291)
(0.175666 0 -0.0196415)
(0.183618 0 -0.0209929)
(0.191165 0 -0.0223477)
(0.198346 0 -0.0237061)
(0.205183 0 -0.0250668)
(0.211687 0 -0.0264268)
(0.21786 0 -0.0277821)
(0.223691 0 -0.029127)
(0.229166 0 -0.0304548)
(0.011895 0 -0.00109605)
(0.0343482 0 -0.00317774)
(0.0543499 0 -0.00506598)
(0.0722226 0 -0.00680288)
(0.0882794 0 -0.00842468)
(0.102783 0 -0.00995942)
(0.11595 0 -0.0114284)
(0.128 0 -0.0128522)
(0.13909 0 -0.0142441)
(0.149329 0 -0.0156113)
(0.15884 0 -0.0169624)
(0.167729 0 -0.0183048)
(0.176072 0 -0.0196423)
(0.183925 0 -0.0209761)
(0.191338 0 -0.022307)
(0.198346 0 -0.0236344)
(0.204972 0 -0.0249563)
(0.211229 0 -0.0262695)
(0.217122 0 -0.0275696)
(0.222648 0 -0.0288509)
(0.227796 0 -0.0301069)
(0.0118727 0 -0.00108697)
(0.0343039 0 -0.00315365)
(0.0543191 0 -0.00503156)
(0.0722276 0 -0.00676128)
(0.0883325 0 -0.00837785)
(0.102889 0 -0.00990847)
(0.116114 0 -0.0113743)
(0.128201 0 -0.0127931)
(0.139305 0 -0.0141775)
(0.149547 0 -0.015536)
(0.159039 0 -0.0168759)
(0.167878 0 -0.0182028)
(0.176138 0 -0.0195198)
(0.183878 0 -0.0208282)
(0.191145 0 -0.022128)
(0.197974 0 -0.0234181)
(0.20439 0 -0.024696)
(0.210409 0 -0.0259583)
(0.216038 0 -0.0272005)
(0.22128 0 -0.0284173)
(0.0118309 0 -0.00107058)
(0.0342034 0 -0.00310834)
(0.0541998 0 -0.00496336)
(0.0721154 0 -0.00667439)
(0.0882418 0 -0.00827504)
(0.102826 0 -0.00979138)
(0.116078 0 -0.0112438)
(0.128179 0 -0.0126482)
(0.139279 0 -0.0140166)
(0.149501 0 -0.0153574)
(0.158952 0 -0.0166771)
(0.167724 0 -0.0179802)
(0.175889 0 -0.0192693)
(0.183506 0 -0.0205451)
(0.190621 0 -0.0218074)
(0.197271 0 -0.0230545)
(0.203482 0 -0.0242838)
(0.209273 0 -0.0254918)
(0.214655 0 -0.0266743)
(0.219637 0 -0.0278263)
(0.0117698 0 -0.00104651)
(0.0340478 0 -0.00304076)
(0.053994 0 -0.00485963)
(0.0718887 0 -0.0065398)
(0.0880108 0 -0.00811314)
(0.102598 0 -0.0096044)
(0.115852 0 -0.0110328)
(0.127945 0 -0.012413)
(0.139023 0 -0.0137562)
(0.149207 0 -0.0150704)
(0.158602 0 -0.0163611)
(0.167293 0 -0.0176323)
(0.175353 0 -0.0188859)
(0.182841 0 -0.0201224)
(0.189803 0 -0.021341)
(0.196277 0 -0.0225401)
(0.202291 0 -0.0237168)
(0.207867 0 -0.0248678)
(0.21302 0 -0.0259891)
(0.217763 0 -0.0270761)
(0.0116906 0 -0.00101442)
(0.0338401 0 -0.00294988)
(0.0537065 0 -0.00471866)
(0.0715537 0 -0.00635509)
(0.0876473 0 -0.00788908)
(0.102214 0 -0.00934387)
(0.115449 0 -0.0107374)
(0.127516 0 -0.0120832)
(0.138556 0 -0.0133916)
(0.148687 0 -0.0146698)
(0.158011 0 -0.0159228)
(0.166613 0 -0.017154)
(0.174563 0 -0.0183647)
(0.181919 0 -0.0195552)
(0.18873 0 -0.0207245)
(0.195033 0 -0.0218707)
(0.20086 0 -0.0229911)
(0.206235 0 -0.0240824)
(0.211178 0 -0.0251411)
(0.215703 0 -0.0261629)
(0.0115949 0 -0.000974037)
(0.0335849 0 -0.00283479)
(0.0533442 0 -0.00453886)
(0.0711196 0 -0.006118)
(0.0871627 0 -0.00759998)
(0.10169 0 -0.00900633)
(0.114886 0 -0.0103536)
(0.126911 0 -0.0116543)
(0.137899 0 -0.0129178)
(0.147966 0 -0.0141505)
(0.157211 0 -0.015357)
(0.165717 0 -0.0165399)
(0.173553 0 -0.0177004)
(0.180778 0 -0.0188382)
(0.187441 0 -0.0199524)
(0.193582 0 -0.0210409)
(0.199233 0 -0.0221013)
(0.204423 0 -0.0231304)
(0.209172 0 -0.0241248)
(0.2135 0 -0.0250811)
(0.0114848 0 -0.000925103)
(0.0332883 0 -0.00269468)
(0.0529165 0 -0.00431878)
(0.0705986 0 -0.00582643)
(0.0865718 0 -0.00724307)
(0.101041 0 -0.00858842)
(0.114184 0 -0.00987762)
(0.126153 0 -0.011122)
(0.137079 0 -0.01233)
(0.147073 0 -0.0135074)
(0.156233 0 -0.0146581)
(0.164639 0 -0.0157843)
(0.172362 0 -0.0168868)
(0.179459 0 -0.0179652)
(0.185981 0 -0.0190183)
(0.191968 0 -0.0200443)
(0.197456 0 -0.0210406)
(0.202474 0 -0.0220045)
(0.207048 0 -0.022933)
(0.211198 0 -0.0238228)
(0.0113631 0 -0.000867388)
(0.0329576 0 -0.00252878)
(0.0524346 0 -0.00405707)
(0.0700056 0 -0.00547838)
(0.0858929 0 -0.0068157)
(0.100291 0 -0.00808688)
(0.113368 0 -0.00930553)
(0.125271 0 -0.0104819)
(0.136126 0 -0.0116233)
(0.146042 0 -0.012735)
(0.155113 0 -0.0138202)
(0.16342 0 -0.0148808)
(0.171031 0 -0.0159172)
(0.178005 0 -0.0169289)
(0.184393 0 -0.0179147)
(0.190238 0 -0.0188728)
(0.195575 0 -0.0198008)
(0.200438 0 -0.0206961)
(0.204852 0 -0.0215561)
(0.208842 0 -0.022378)
(0.0112328 0 -0.000800692)
(0.0326018 0 -0.00233644)
(0.0519123 0 -0.00375248)
(0.0693584 0 -0.00507196)
(0.0851476 0 -0.00631533)
(0.0994633 0 -0.00749844)
(0.112466 0 -0.0086334)
(0.124296 0 -0.0097292)
(0.135076 0 -0.0107924)
(0.144911 0 -0.0118273)
(0.153893 0 -0.0128368)
(0.162101 0 -0.0138222)
(0.169605 0 -0.0147839)
(0.176463 0 -0.0157212)
(0.182727 0 -0.0166328)
(0.18844 0 -0.0175169)
(0.193641 0 -0.0183715)
(0.198362 0 -0.0191942)
(0.202634 0 -0.0199825)
(0.206481 0 -0.0207341)
(0.0110976 0 -0.000724832)
(0.0322309 0 -0.00211702)
(0.0513655 0 -0.00340381)
(0.0686778 0 -0.00460534)
(0.0843611 0 -0.00573942)
(0.0985879 0 -0.00681987)
(0.111511 0 -0.00785723)
(0.123264 0 -0.0088593)
(0.133967 0 -0.00983165)
(0.14372 0 -0.010778)
(0.152615 0 -0.0117007)
(0.16073 0 -0.0126008)
(0.168133 0 -0.0134782)
(0.174884 0 -0.0143324)
(0.181034 0 -0.015162)
(0.186628 0 -0.0159654)
(0.191705 0 -0.0167406)
(0.196301 0 -0.0174855)
(0.200446 0 -0.018198)
(0.204167 0 -0.0188759)
(0.0109615 0 -0.000639642)
(0.0318569 0 -0.00186995)
(0.0508124 0 -0.00300997)
(0.0679877 0 -0.00407677)
(0.083562 0 -0.00508549)
(0.0976975 0 -0.00604789)
(0.110539 0 -0.00697291)
(0.122216 0 -0.00786714)
(0.132842 0 -0.00873525)
(0.142517 0 -0.00958031)
(0.15133 0 -0.0104041)
(0.159358 0 -0.0112074)
(0.166668 0 -0.0119901)
(0.173321 0 -0.0127515)
(0.179369 0 -0.0134902)
(0.184857 0 -0.0142049)
(0.189826 0 -0.0148936)
(0.194311 0 -0.0155545)
(0.198345 0 -0.0161857)
(0.201956 0 -0.0167853)
(0.0108293 0 -0.000544975)
(0.0314931 0 -0.0015947)
(0.0502741 0 -0.00256989)
(0.0673154 0 -0.00348454)
(0.0827831 0 -0.00435108)
(0.0968294 0 -0.00517919)
(0.109592 0 -0.00597619)
(0.121196 0 -0.00674747)
(0.13175 0 -0.0074968)
(0.141352 0 -0.00822661)
(0.15009 0 -0.00893827)
(0.15804 0 -0.00963225)
(0.165268 0 -0.0103083)
(0.171835 0 -0.0109658)
(0.177794 0 -0.0116034)
(0.18319 0 -0.0122198)
(0.188065 0 -0.0128133)
(0.192455 0 -0.0133824)
(0.196394 0 -0.0139253)
(0.199912 0 -0.0144406)
(0.0107065 0 -0.000440697)
(0.0311552 0 -0.00129079)
(0.0497745 0 -0.0020826)
(0.0666921 0 -0.00282702)
(0.0820613 0 -0.00353378)
(0.0960258 0 -0.00421043)
(0.108717 0 -0.00486271)
(0.120254 0 -0.00549478)
(0.130744 0 -0.00610955)
(0.140283 0 -0.00670883)
(0.148955 0 -0.00729361)
(0.156837 0 -0.00786413)
(0.163995 0 -0.0084201)
(0.17049 0 -0.00896079)
(0.176373 0 -0.00948517)
(0.181692 0 -0.009992)
(0.186489 0 -0.0104799)
(0.190801 0 -0.0109475)
(0.194663 0 -0.0113933)
(0.198103 0 -0.0118162)
(0.0105993 0 -0.000326699)
(0.0308613 0 -0.000957803)
(0.0493417 0 -0.0015472)
(0.0661535 0 -0.00210268)
(0.0814391 0 -0.00263125)
(0.0953341 0 -0.00313833)
(0.107965 0 -0.00362805)
(0.119447 0 -0.00410338)
(0.129884 0 -0.00456636)
(0.13937 0 -0.00501825)
(0.147989 0 -0.00545968)
(0.155817 0 -0.00589073)
(0.162919 0 -0.00631111)
(0.169356 0 -0.00672017)
(0.17518 0 -0.00711706)
(0.180439 0 -0.00750077)
(0.185175 0 -0.00787021)
(0.189426 0 -0.00822426)
(0.193226 0 -0.00856184)
(0.196606 0 -0.00888192)
(0.0105159 0 -0.000202904)
(0.0306338 0 -0.000595425)
(0.049009 0 -0.00096295)
(0.0657416 0 -0.00131018)
(0.0809648 0 -0.00164135)
(0.0948085 0 -0.00195975)
(0.107395 0 -0.00226787)
(0.118836 0 -0.0025675)
(0.129234 0 -0.00285985)
(0.138683 0 -0.00314565)
(0.147264 0 -0.00342524)
(0.155053 0 -0.00369861)
(0.162116 0 -0.00396551)
(0.168512 0 -0.00422548)
(0.174295 0 -0.00447794)
(0.179511 0 -0.0047222)
(0.184204 0 -0.00495751)
(0.188412 0 -0.00518311)
(0.192169 0 -0.00539829)
(0.195507 0 -0.00560235)
(0.0104669 0 -6.92952e-05)
(0.0305015 0 -0.000203494)
(0.0488177 0 -0.000329386)
(0.0655065 0 -0.000448544)
(0.0806954 0 -0.000562389)
(0.094511 0 -0.000672027)
(0.107073 0 -0.000778295)
(0.118492 0 -0.000881793)
(0.12887 0 -0.000982923)
(0.138298 0 -0.00108192)
(0.146859 0 -0.00117889)
(0.154627 0 -0.00127381)
(0.161669 0 -0.00136658)
(0.168043 0 -0.00145703)
(0.173804 0 -0.00154495)
(0.178998 0 -0.00163007)
(0.183668 0 -0.00171212)
(0.187853 0 -0.00179084)
(0.191588 0 -0.00186596)
(0.194904 0 -0.00193721)
)
;

boundaryField
{
    inlet
    {
        type            cellMotion;
        value           uniform (0 0 0);
    }
    outlet
    {
        type            cellMotion;
        value           nonuniform 0();
    }
    flap
    {
        type            cellMotion;
        value           nonuniform 0();
    }
    upperWall
    {
        type            slip;
    }
    lowerWall
    {
        type            slip;
    }
    frontAndBack
    {
        type            empty;
    }
    procBoundary0to1
    {
        type            processor;
        value           nonuniform List<vector> 
18
(
(0.234261 0 -0.0317566)
(0.232554 0 -0.0313299)
(0.226131 0 -0.0296025)
(0.226131 0 -0.0296025)
(0.224218 0 -0.028942)
(0.2221 0 -0.0281236)
(0.21982 0 -0.0271433)
(0.217419 0 -0.025995)
(0.214939 0 -0.0246702)
(0.212424 0 -0.0231583)
(0.209922 0 -0.0214457)
(0.207483 0 -0.0195165)
(0.205164 0 -0.0173509)
(0.203028 0 -0.0149259)
(0.201142 0 -0.0122141)
(0.199586 0 -0.00918301)
(0.198446 0 -0.00579431)
(0.197821 0 -0.00200427)
)
;
    }
    procBoundary0to3
    {
        type            processor;
        value           nonuniform List<vector> 
34
(
(0.0104969 0 -0.000671538)
(0.0301036 0 -0.00193239)
(0.0477745 0 -0.00324908)
(0.0477745 0 -0.00324908)
(0.0637254 0 -0.00459028)
(0.0637254 0 -0.00459028)
(0.0783036 0 -0.00596726)
(0.0783036 0 -0.00596726)
(0.0918268 0 -0.00739163)
(0.0918268 0 -0.00739163)
(0.10457 0 -0.00887361)
(0.10457 0 -0.00887361)
(0.116751 0 -0.0104205)
(0.116751 0 -0.0104205)
(0.126293 0 -0.0115126)
(0.13769 0 -0.013181)
(0.13769 0 -0.013181)
(0.148874 0 -0.0149177)
(0.148874 0 -0.0149177)
(0.157257 0 -0.0161245)
(0.168031 0 -0.0179773)
(0.168031 0 -0.0179773)
(0.176024 0 -0.0192791)
(0.186258 0 -0.0212078)
(0.186258 0 -0.0212078)
(0.195775 0 -0.0230839)
(0.195775 0 -0.0230839)
(0.203194 0 -0.0245178)
(0.211336 0 -0.0262823)
(0.211336 0 -0.0262823)
(0.218096 0 -0.0277356)
(0.224357 0 -0.0292438)
(0.224357 0 -0.0292438)
(0.230191 0 -0.0306443)
)
;
    }
}


// ************************************************************************* //
