/*--------------------------------*- C++ -*----------------------------------*\
| =========                 |                                                 |
| \\      /  F ield         | OpenFOAM: The Open Source CFD Toolbox           |
|  \\    /   O peration     | Version:  dev                                   |
|   \\  /    A nd           | Web:      www.OpenFOAM.org                      |
|    \\/     M anipulation  |                                                 |
\*---------------------------------------------------------------------------*/
FoamFile
{
    version     2.0;
    format      ascii;
    class       volVectorField;
    location    "2.68";
    object      Force;
}
// * * * * * * * * * * * * * * * * * * * * * * * * * * * * * * * * * * * * * //

dimensions      [1 1 -2 0 0 0 0];

internalField   uniform (0 0 0);

boundaryField
{
    inlet
    {
        type            calculated;
        value           nonuniform 0();
    }
    outlet
    {
        type            calculated;
        value           nonuniform 0();
    }
    flap
    {
        type            calculated;
        value           nonuniform List<vector> 
33
(
(3.13179 1.9227e-17 -0.186908)
(3.09462 1.89089e-17 -0.431834)
(3.0229 -2.98795e-21 -0.66674)
(2.9113 2.62726e-17 -0.851692)
(2.7683 4.29385e-21 -0.988486)
(2.60675 -4.36565e-22 -1.08059)
(2.43812 -1.77228e-17 -1.13363)
(2.27133 8.44757e-23 -1.15404)
(2.10813 3.43845e-17 -1.14798)
(1.94688 1.68962e-17 -1.11917)
(1.78511 -1.11299e-17 -1.06914)
(1.61624 1.01978e-17 -0.996828)
(1.42956 2.18663e-21 -0.898186)
(1.20772 1.83146e-21 -0.764128)
(0.915792 -1.71915e-22 -0.580328)
(0.378646 1.87405e-18 0.590636)
(0.221631 3.28749e-21 0.346405)
(0.0743719 7.73358e-18 0.118941)
(-0.00963065 -3.53431e-21 0.000575554)
(-0.00976475 -1.34705e-17 0.0013457)
(-0.0100634 -1.48235e-20 0.00219159)
(-0.0106158 3.88312e-23 0.00305104)
(-0.0115333 0 0.00402981)
(-0.0129589 1.4564e-17 0.00523915)
(-0.015099 0 0.00683998)
(-0.018223 1.51125e-17 0.00904805)
(-0.0226171 -1.52738e-17 0.0121025)
(-0.0285776 1.54875e-17 0.0162464)
(-0.0366768 -1.15574e-19 0.0219262)
(-0.0470939 -2.93874e-39 0.0292833)
(-0.0587921 1.67274e-17 0.0376272)
(-0.0678427 -1.84386e-17 0.0443264)
(-0.058525 1.78881e-22 0.0393598)
)
;
    }
    upperWall
    {
        type            calculated;
        value           nonuniform 0();
    }
    lowerWall
    {
        type            calculated;
        value           uniform (0 0 0);
    }
    frontAndBack
    {
        type            empty;
    }
    procBoundary4to1
    {
        type            processor;
        value           uniform (0 0 0);
    }
    procBoundary4to2
    {
        type            processor;
        value           uniform (0 0 0);
    }
    procBoundary4to3
    {
        type            processor;
        value           uniform (0 0 0);
    }
    procBoundary4to5
    {
        type            processor;
        value           uniform (0 0 0);
    }
}


// ************************************************************************* //
