/*--------------------------------*- C++ -*----------------------------------*\
| =========                 |                                                 |
| \\      /  F ield         | OpenFOAM: The Open Source CFD Toolbox           |
|  \\    /   O peration     | Version:  dev                                   |
|   \\  /    A nd           | Web:      www.OpenFOAM.org                      |
|    \\/     M anipulation  |                                                 |
\*---------------------------------------------------------------------------*/
FoamFile
{
    version     2.0;
    format      ascii;
    class       pointVectorField;
    location    "4.37";
    object      pointDisplacement;
}
// * * * * * * * * * * * * * * * * * * * * * * * * * * * * * * * * * * * * * //

dimensions      [0 1 0 0 0 0 0];

internalField   nonuniform List<vector> 
5828
(
(0 0 0)
(0.00822626 0 0)
(0.0156485 0 0)
(0.022076 0 0)
(0.0275874 0 0)
(0.0322576 0 0)
(0.0361543 0 0)
(0.0393378 0 0)
(0.0418617 0 0)
(0.0437732 0 0)
(0.0451139 0 0)
(0.0459198 0 0)
(0.0462226 0 0)
(0.0460503 0 0)
(0.0454277 0 0)
(0.0443772 0 0)
(0.0429197 0 0)
(0.0410757 0 0)
(0.0388662 0 0)
(0.0363135 0 0)
(0.033443 0 0)
(0.0302855 0 0)
(0.02688 0 0)
(0.0232768 0 0)
(0.0195418 0 0)
(0.0157606 0 0)
(0.0120464 0 0)
(0.00855365 0 0)
(0.00550978 0 0)
(0.00331384 0 0)
(0 0 0)
(0 0 0)
(0.00823042 0 -2.07982e-06)
(0.0156573 0 -3.72908e-06)
(0.0220897 0 -4.71253e-06)
(0.0276063 0 -4.88808e-06)
(0.0322824 0 -4.11361e-06)
(0.0361856 0 -2.23192e-06)
(0.0393765 0 9.39675e-07)
(0.041909 0 5.61777e-06)
(0.0438305 0 1.20604e-05)
(0.0451826 0 2.05748e-05)
(0.0460018 0 3.15258e-05)
(0.04632 0 4.53462e-05)
(0.0461654 0 6.25478e-05)
(0.0455634 0 8.37307e-05)
(0.0445365 0 0.000109591)
(0.0431062 0 0.000140947)
(0.0412934 0 0.000178764)
(0.03912 0 0.000224147)
(0.0366087 0 0.000278306)
(0.0337855 0 0.00034268)
(0.0306818 0 0.000419017)
(0.0273374 0 0.000509348)
(0.0238036 0 0.000616081)
(0.0201479 0 0.0007421)
(0.0164591 0 0.000890445)
(0.0128545 0 0.00106369)
(0.00949464 0 0.00126251)
(0.0066131 0 0.00148108)
(0.00460213 0 0.00169262)
(0.00201333 0 0.00206095)
(0 0 0)
(0.00824423 0 -4.22199e-06)
(0.015685 0 -7.58442e-06)
(0.0221318 0 -9.62116e-06)
(0.0276639 0 -1.00536e-05)
(0.0323571 0 -8.60302e-06)
(0.0362797 0 -4.96125e-06)
(0.0394928 0 1.22998e-06)
(0.0420507 0 1.03952e-05)
(0.0440016 0 2.30398e-05)
(0.0453878 0 3.97647e-05)
(0.0462465 0 6.12819e-05)
(0.0466104 0 8.84353e-05)
(0.0465086 0 0.000122222)
(0.0459676 0 0.00016381)
(0.0450112 0 0.000214539)
(0.0436617 0 0.000275986)
(0.0419418 0 0.000350015)
(0.0398755 0 0.000438769)
(0.0374873 0 0.000544474)
(0.0348042 0 0.000669764)
(0.03186 0 0.000817861)
(0.0286969 0 0.000992319)
(0.0253673 0 0.00119714)
(0.0219434 0 0.00143714)
(0.0185214 0 0.00171684)
(0.0152278 0 0.00203876)
(0.0122339 0 0.00240039)
(0.00977659 0 0.00278509)
(0.00821459 0 0.00313845)
(0.00616987 0 0.00366266)
(0 0 0)
(0.00826724 0 -6.48786e-06)
(0.0157311 0 -1.169e-05)
(0.0222017 0 -1.49182e-05)
(0.0277594 0 -1.57683e-05)
(0.032481 0 -1.38363e-05)
(0.0364355 0 -8.67519e-06)
(0.039685 0 2.34462e-07)
(0.0422849 0 1.35079e-05)
(0.0442842 0 3.18767e-05)
(0.0457265 0 5.62085e-05)
(0.0466502 0 8.75278e-05)
(0.0470894 0 0.000127045)
(0.0470743 0 0.000176189)
(0.0466336 0 0.000236641)
(0.045793 0 0.000310273)
(0.0445764 0 0.000399292)
(0.0430081 0 0.000506328)
(0.0411154 0 0.000634242)
(0.0389268 0 0.000786042)
(0.0364719 0 0.000965321)
(0.0337872 0 0.00117619)
(0.0309191 0 0.00142284)
(0.0279226 0 0.00170989)
(0.0248709 0 0.00204217)
(0.0218649 0 0.00242277)
(0.0190412 0 0.00285118)
(0.0165778 0 0.00331793)
(0.0146973 0 0.00379293)
(0.0136936 0 0.00420195)
(0.0122917 0 0.00475512)
(0 0 0)
(0.00829919 0 -8.93523e-06)
(0.015795 0 -1.61626e-05)
(0.0222985 0 -2.07849e-05)
(0.0278917 0 -2.22889e-05)
(0.0326524 0 -2.01616e-05)
(0.036651 0 -1.38354e-05)
(0.0399507 0 -2.65075e-06)
(0.0426083 0 1.4173e-05)
(0.0446742 0 3.75624e-05)
(0.0461937 0 6.86132e-05)
(0.0472069 0 0.000108611)
(0.0477494 0 0.000159066)
(0.047853 0 0.000221759)
(0.0475484 0 0.000298739)
(0.0468649 0 0.000392291)
(0.0458292 0 0.000505122)
(0.0444682 0 0.000640349)
(0.0428106 0 0.000801179)
(0.0408903 0 0.000991232)
(0.0387421 0 0.00121465)
(0.0364053 0 0.00147564)
(0.0339305 0 0.00177825)
(0.0313782 0 0.00212644)
(0.0288209 0 0.00252269)
(0.0263552 0 0.00296657)
(0.0241153 0 0.00345251)
(0.0222779 0 0.00396231)
(0.0210413 0 0.00445492)
(0.0206186 0 0.00484926)
(0.0198334 0 0.00534913)
(0 0 0)
(0.00833977 0 -1.16166e-05)
(0.0158761 0 -2.11086e-05)
(0.0224214 0 -2.73866e-05)
(0.0280593 0 -2.98495e-05)
(0.0328693 0 -2.7897e-05)
(0.0369234 0 -2.08641e-05)
(0.0402863 0 -7.97807e-06)
(0.0430164 0 1.16743e-05)
(0.045166 0 3.91753e-05)
(0.0467822 0 7.58007e-05)
(0.0479075 0 0.000123031)
(0.0485785 0 0.000182562)
(0.0488288 0 0.000256394)
(0.0486924 0 0.000346832)
(0.0482026 0 0.000456491)
(0.0473908 0 0.000588382)
(0.0462867 0 0.000745785)
(0.0449221 0 0.000932112)
(0.0433336 0 0.00115117)
(0.0415608 0 0.00140694)
(0.0396472 0 0.00170307)
(0.0376454 0 0.00204267)
(0.0356195 0 0.00242764)
(0.0336434 0 0.00285703)
(0.0318089 0 0.00332601)
(0.0302286 0 0.0038228)
(0.029059 0 0.00432164)
(0.0284661 0 0.00477577)
(0.0285803 0 0.00510927)
(0.0283353 0 0.00551372)
(0 0 0)
(0.00838853 0 -1.45781e-05)
(0.0159734 0 -2.66212e-05)
(0.0225686 0 -3.48684e-05)
(0.0282599 0 -3.86561e-05)
(0.0331288 0 -3.7322e-05)
(0.037249 0 -3.01316e-05)
(0.0406871 0 -1.62315e-05)
(0.0435031 0 5.38566e-06)
(0.0457517 0 3.59117e-05)
(0.0474822 0 7.67504e-05)
(0.0487391 0 0.000129467)
(0.0495595 0 0.000195822)
(0.0499812 0 0.000277971)
(0.0500431 0 0.000378403)
(0.0497813 0 0.000499878)
(0.0492311 0 0.000645439)
(0.0484264 0 0.000818326)
(0.0474032 0 0.00102191)
(0.0462009 0 0.00125967)
(0.0448621 0 0.00153488)
(0.0434334 0 0.00185018)
(0.0419687 0 0.00220694)
(0.0405302 0 0.00260435)
(0.0391896 0 0.00303796)
(0.0380306 0 0.00349804)
(0.0371429 0 0.00396728)
(0.0366435 0 0.00441536)
(0.0366479 0 0.00479521)
(0.0372152 0 0.00504454)
(0.0373971 0 0.00533391)
(0 0 0)
(0.00844487 0 -1.7858e-05)
(0.0160857 0 -3.27782e-05)
(0.0227383 0 -4.33511e-05)
(0.028491 0 -4.88799e-05)
(0.0334273 0 -4.86687e-05)
(0.0376232 0 -4.19449e-05)
(0.041147 0 -2.78105e-05)
(0.0440611 0 -5.20695e-06)
(0.0464219 0 2.71142e-05)
(0.0482817 0 7.06186e-05)
(0.0496859 0 0.000126862)
(0.0506745 0 0.000197592)
(0.0512904 0 0.000285048)
(0.0515764 0 0.000391758)
(0.0515714 0 0.000520386)
(0.0513141 0 0.00067381)
(0.0508431 0 0.000855024)
(0.0501988 0 0.00106702)
(0.0494236 0 0.00131263)
(0.0485629 0 0.00159414)
(0.0476652 0 0.00191279)
(0.0467836 0 0.00226797)
(0.0459761 0 0.00265616)
(0.0453052 0 0.00306952)
(0.0448372 0 0.00349428)
(0.0446371 0 0.00390955)
(0.0447749 0 0.00428347)
(0.0453047 0 0.00457334)
(0.0462267 0 0.00473456)
(0.0467073 0 0.00490477)
(0 0 0)
(0.00850805 0 -2.1486e-05)
(0.0162115 0 -3.96395e-05)
(0.0229282 0 -5.2928e-05)
(0.0287493 0 -6.06526e-05)
(0.0337607 0 -6.21151e-05)
(0.0380405 0 -5.65378e-05)
(0.0416593 0 -4.30165e-05)
(0.0446814 0 -2.04874e-05)
(0.0471659 0 1.22987e-05)
(0.0491669 0 5.67966e-05)
(0.0507319 0 0.00011451)
(0.0519053 0 0.000187088)
(0.0527339 0 0.000276691)
(0.0532631 0 0.000385732)
(0.0535357 0 0.000516642)
(0.0535943 0 0.000671957)
(0.0534818 0 0.000854206)
(0.0532425 0 0.00106576)
(0.0529222 0 0.00130857)
(0.0525684 0 0.00158377)
(0.0522305 0 0.00189111)
(0.0519591 0 0.00222813)
(0.0518052 0 0.00258906)
(0.0518178 0 0.00296361)
(0.0520404 0 0.00333569)
(0.0525054 0 0.00368305)
(0.053231 0 0.00397536)
(0.0542107 0 0.00417738)
(0.0553989 0 0.00426184)
(0.0560591 0 0.00433763)
(0 0 0)
(0.0085772 0 -2.54822e-05)
(0.0163491 0 -4.72459e-05)
(0.0231357 0 -6.36625e-05)
(0.0290312 0 -7.40635e-05)
(0.0341241 0 -7.77803e-05)
(0.0384947 0 -7.40644e-05)
(0.0422161 0 -6.20444e-05)
(0.0453546 0 -4.06966e-05)
(0.0479714 0 -8.82666e-06)
(0.0501233 0 3.49453e-05)
(0.0518597 0 9.20403e-05)
(0.0532301 0 0.000163892)
(0.0542843 0 0.00025243)
(0.0550695 0 0.000359854)
(0.0556331 0 0.000488222)
(0.0560215 0 0.00063957)
(0.0562816 0 0.000815797)
(0.0564612 0 0.00101847)
(0.056609 0 0.00124856)
(0.0567745 0 0.001506)
(0.0570067 0 0.00178919)
(0.0573529 0 0.00209421)
(0.0578558 0 0.00241393)
(0.0585485 0 0.00273702)
(0.0594489 0 0.00304721)
(0.0605526 0 0.00332346)
(0.0618245 0 0.00353946)
(0.0631994 0 0.00366827)
(0.064595 0 0.00369603)
(0.0653575 0 0.00371185)
(0 0 0)
(0.00865137 0 -2.98566e-05)
(0.0164966 0 -5.5618e-05)
(0.0233579 0 -7.55864e-05)
(0.0293327 0 -8.91567e-05)
(0.0345122 0 -9.57217e-05)
(0.0389793 0 -9.45958e-05)
(0.042809 0 -8.49777e-05)
(0.04607 0 -6.59281e-05)
(0.0488258 0 -3.63592e-05)
(0.0511351 0 4.9674e-06)
(0.0530505 0 5.93583e-05)
(0.0546258 0 0.000127977)
(0.0559124 0 0.00021236)
(0.0569597 0 0.000314381)
(0.0578198 0 0.000435643)
(0.0585426 0 0.000577556)
(0.0591783 0 0.000741267)
(0.0597775 0 0.00092745)
(0.0603915 0 0.00113604)
(0.0610711 0 0.00136586)
(0.0618647 0 0.00161421)
(0.0628161 0 0.00187627)
(0.0639597 0 0.00214455)
(0.0653138 0 0.00240831)
(0.0668719 0 0.00265331)
(0.068594 0 0.00286226)
(0.0703943 0 0.00301471)
(0.0721481 0 0.00309102)
(0.0737351 0 0.00308416)
(0.0745844 0 0.00307021)
(0 0 0)
(0.00872948 0 -3.46091e-05)
(0.0166518 0 -6.47558e-05)
(0.0235915 0 -8.86998e-05)
(0.0296494 0 -0.000105931)
(0.0349195 0 -0.000115935)
(0.039487 0 -0.00011812)
(0.0434291 0 -0.000111789)
(0.0468169 0 -9.61282e-05)
(0.0497156 0 -7.02005e-05)
(0.0521863 0 -3.29631e-05)
(0.0542856 0 1.66962e-05)
(0.0560686 0 7.96946e-05)
(0.0575876 0 0.000157093)
(0.0588966 0 0.000250266)
(0.0600512 0 0.00036031)
(0.0611036 0 0.000487939)
(0.0621066 0 0.000633484)
(0.0631131 0 0.00079669)
(0.0641761 0 0.000976479)
(0.065347 0 0.00117068)
(0.0666737 0 0.00137578)
(0.0681968 0 0.00158658)
(0.0699446 0 0.00179608)
(0.0719243 0 0.00199552)
(0.0741114 0 0.00217461)
(0.0764392 0 0.0023222)
(0.0787783 0 0.0024255)
(0.0809434 0 0.00247085)
(0.0827568 0 0.00245048)
(0.0837392 0 0.00243007)
(0 0 0)
(0.00881044 0 -3.97294e-05)
(0.0168126 0 -7.46386e-05)
(0.0238333 0 -0.000102971)
(0.0299769 0 -0.000124341)
(0.0353401 0 -0.000138354)
(0.0400105 0 -0.000144542)
(0.0440674 0 -0.000142345)
(0.0475838 0 -0.000131103)
(0.0506271 0 -0.000110069)
(0.0532604 0 -7.84284e-05)
(0.0555435 0 -3.53354e-05)
(0.0575316 0 1.98674e-05)
(0.0592788 0 8.77503e-05)
(0.0608436 0 0.000169084)
(0.0622831 0 0.000264404)
(0.0636514 0 0.00037371)
(0.0650029 0 0.0004965)
(0.0663918 0 0.000631604)
(0.0678718 0 0.000776999)
(0.0694941 0 0.00092964)
(0.0713056 0 0.00108537)
(0.0733448 0 0.00123894)
(0.0756364 0 0.0013843)
(0.0781824 0 0.00151527)
(0.0809513 0 0.00162665)
(0.0838651 0 0.00171535)
(0.0867696 0 0.00177897)
(0.0894244 0 0.00181152)
(0.0915608 0 0.00179859)
(0.0928293 0 0.00179692)
(0 0 0)
(0.00889307 0 -4.51968e-05)
(0.0169766 0 -8.5226e-05)
(0.0240799 0 -0.000118339)
(0.0303105 0 -0.000144299)
(0.0357681 0 -0.000162857)
(0.0405422 0 -0.000173694)
(0.0447145 0 -0.00017641)
(0.0483596 0 -0.000170531)
(0.0515466 0 -0.000155523)
(0.0543404 0 -0.000130826)
(0.0568026 0 -9.58841e-05)
(0.0589889 0 -5.03142e-05)
(0.0609565 0 5.90795e-06)
(0.0627658 0 7.29284e-05)
(0.0644738 0 0.000150743)
(0.0661363 0 0.000238626)
(0.067808 0 0.000335283)
(0.0695431 0 0.000438691)
(0.0713945 0 0.000545966)
(0.0734123 0 0.000653286)
(0.0756414 0 0.000755948)
(0.0781181 0 0.00084862)
(0.0808653 0 0.000925976)
(0.0838851 0 0.000983964)
(0.0871493 0 0.00102178)
(0.0905888 0 0.00104446)
(0.0940555 0 0.00106331)
(0.0972871 0 0.00108868)
(0.0999066 0 0.00110409)
(0.101869 0 0.0011751)
(0 0 0)
(0.00897621 0 -5.09813e-05)
(0.0171415 0 -9.64582e-05)
(0.0243277 0 -0.000134712)
(0.0306457 0 -0.000165675)
(0.0361975 0 -0.000189267)
(0.041075 0 -0.000205336)
(0.0453614 0 -0.000213663)
(0.0491332 0 -0.000213977)
(0.0524607 0 -0.000205978)
(0.0554102 0 -0.000189378)
(0.0580441 0 -0.000163936)
(0.0604193 0 -0.000129547)
(0.0625948 0 -8.66333e-05)
(0.0646311 0 -3.57135e-05)
(0.0665851 0 2.26092e-05)
(0.0685132 0 8.69944e-05)
(0.0704689 0 0.000155437)
(0.0725046 0 0.000225168)
(0.0746711 0 0.000292568)
(0.0770151 0 0.000353141)
(0.079578 0 0.000401648)
(0.0823923 0 0.000432437)
(0.0854783 0 0.000440157)
(0.0888382 0 0.000421111)
(0.0924504 0 0.000375543)
(0.0962646 0 0.000311473)
(0.100163 0 0.000251175)
(0.103924 0 0.000233655)
(0.107154 0 0.000279024)
(0.110861 0 0.000571236)
(0 0 0)
(0.00905945 0 -5.71198e-05)
(0.0173065 0 -0.000108369)
(0.0245753 0 -0.000152108)
(0.0309801 0 -0.000188483)
(0.0366255 0 -0.000217576)
(0.0416052 0 -0.000239425)
(0.0460039 0 -0.000254004)
(0.0498994 0 -0.000261258)
(0.0533632 0 -0.000261133)
(0.0564622 0 -0.000253622)
(0.0592593 0 -0.000238815)
(0.0618132 0 -0.000216959)
(0.064182 0 -0.00018873)
(0.0664254 0 -0.000155223)
(0.0686011 0 -0.000117746)
(0.0707631 0 -7.81285e-05)
(0.0729625 0 -3.89514e-05)
(0.0752487 0 -3.57257e-06)
(0.0776679 0 2.38208e-05)
(0.0802617 0 3.822e-05)
(0.0830649 0 3.39191e-05)
(0.0861031 0 4.77601e-06)
(0.0893895 0 -5.53218e-05)
(0.0929207 0 -0.000151723)
(0.096672 0 -0.000288123)
(0.100593 0 -0.000465699)
(0.104578 0 -0.00068167)
(0.108453 0 -0.000939706)
(0.111956 0 -0.00130213)
(0.119862 0 -3.04767e-05)
(0 0 0)
(0.00822626 0 0)
(0.0156485 0 0)
(0.022076 0 0)
(0.0275874 0 0)
(0.0322576 0 0)
(0.0361543 0 0)
(0.0393378 0 0)
(0.0418617 0 0)
(0.0437732 0 0)
(0.0451139 0 0)
(0.0459198 0 0)
(0.0462226 0 0)
(0.0460503 0 0)
(0.0454277 0 0)
(0.0443772 0 0)
(0.0429197 0 0)
(0.0410757 0 0)
(0.0388662 0 0)
(0.0363135 0 0)
(0.033443 0 0)
(0.0302855 0 0)
(0.02688 0 0)
(0.0232768 0 0)
(0.0195418 0 0)
(0.0157606 0 0)
(0.0120464 0 0)
(0.00855365 0 0)
(0.00550978 0 0)
(0.00331384 0 0)
(0 0 0)
(0 0 0)
(0.00823042 0 -2.07982e-06)
(0.0156573 0 -3.72908e-06)
(0.0220897 0 -4.71253e-06)
(0.0276063 0 -4.88808e-06)
(0.0322824 0 -4.11361e-06)
(0.0361856 0 -2.23192e-06)
(0.0393765 0 9.39675e-07)
(0.041909 0 5.61777e-06)
(0.0438305 0 1.20604e-05)
(0.0451826 0 2.05748e-05)
(0.0460018 0 3.15258e-05)
(0.04632 0 4.53462e-05)
(0.0461654 0 6.25478e-05)
(0.0455634 0 8.37307e-05)
(0.0445365 0 0.000109591)
(0.0431062 0 0.000140947)
(0.0412934 0 0.000178764)
(0.03912 0 0.000224147)
(0.0366087 0 0.000278306)
(0.0337855 0 0.00034268)
(0.0306818 0 0.000419017)
(0.0273374 0 0.000509348)
(0.0238036 0 0.000616081)
(0.0201479 0 0.0007421)
(0.0164591 0 0.000890445)
(0.0128545 0 0.00106369)
(0.00949464 0 0.00126251)
(0.0066131 0 0.00148108)
(0.00460213 0 0.00169262)
(0.00201333 0 0.00206095)
(0 0 0)
(0.00824423 0 -4.22199e-06)
(0.015685 0 -7.58442e-06)
(0.0221318 0 -9.62116e-06)
(0.0276639 0 -1.00536e-05)
(0.0323571 0 -8.60302e-06)
(0.0362797 0 -4.96125e-06)
(0.0394928 0 1.22998e-06)
(0.0420507 0 1.03952e-05)
(0.0440016 0 2.30398e-05)
(0.0453878 0 3.97647e-05)
(0.0462465 0 6.12819e-05)
(0.0466104 0 8.84353e-05)
(0.0465086 0 0.000122222)
(0.0459676 0 0.00016381)
(0.0450112 0 0.000214539)
(0.0436617 0 0.000275986)
(0.0419418 0 0.000350015)
(0.0398755 0 0.000438769)
(0.0374873 0 0.000544474)
(0.0348042 0 0.000669764)
(0.03186 0 0.000817861)
(0.0286969 0 0.000992319)
(0.0253673 0 0.00119714)
(0.0219434 0 0.00143714)
(0.0185214 0 0.00171684)
(0.0152278 0 0.00203876)
(0.0122339 0 0.00240039)
(0.00977659 0 0.00278509)
(0.00821459 0 0.00313845)
(0.00616987 0 0.00366266)
(0 0 0)
(0.00826724 0 -6.48786e-06)
(0.0157311 0 -1.169e-05)
(0.0222017 0 -1.49182e-05)
(0.0277594 0 -1.57683e-05)
(0.032481 0 -1.38363e-05)
(0.0364355 0 -8.67519e-06)
(0.039685 0 2.34462e-07)
(0.0422849 0 1.35079e-05)
(0.0442842 0 3.18767e-05)
(0.0457265 0 5.62085e-05)
(0.0466502 0 8.75278e-05)
(0.0470894 0 0.000127045)
(0.0470743 0 0.000176189)
(0.0466336 0 0.000236641)
(0.045793 0 0.000310273)
(0.0445764 0 0.000399292)
(0.0430081 0 0.000506328)
(0.0411154 0 0.000634242)
(0.0389268 0 0.000786042)
(0.0364719 0 0.000965321)
(0.0337872 0 0.00117619)
(0.0309191 0 0.00142284)
(0.0279226 0 0.00170989)
(0.0248709 0 0.00204217)
(0.0218649 0 0.00242277)
(0.0190412 0 0.00285118)
(0.0165778 0 0.00331793)
(0.0146973 0 0.00379293)
(0.0136936 0 0.00420195)
(0.0122917 0 0.00475512)
(0 0 0)
(0.00829919 0 -8.93523e-06)
(0.015795 0 -1.61626e-05)
(0.0222985 0 -2.07849e-05)
(0.0278917 0 -2.22889e-05)
(0.0326524 0 -2.01616e-05)
(0.036651 0 -1.38354e-05)
(0.0399507 0 -2.65075e-06)
(0.0426083 0 1.4173e-05)
(0.0446742 0 3.75624e-05)
(0.0461937 0 6.86132e-05)
(0.0472069 0 0.000108611)
(0.0477494 0 0.000159066)
(0.047853 0 0.000221759)
(0.0475484 0 0.000298739)
(0.0468649 0 0.000392291)
(0.0458292 0 0.000505122)
(0.0444682 0 0.000640349)
(0.0428106 0 0.000801179)
(0.0408903 0 0.000991232)
(0.0387421 0 0.00121465)
(0.0364053 0 0.00147564)
(0.0339305 0 0.00177825)
(0.0313782 0 0.00212644)
(0.0288209 0 0.00252269)
(0.0263552 0 0.00296657)
(0.0241153 0 0.00345251)
(0.0222779 0 0.00396231)
(0.0210413 0 0.00445492)
(0.0206186 0 0.00484926)
(0.0198334 0 0.00534913)
(0 0 0)
(0.00833977 0 -1.16166e-05)
(0.0158761 0 -2.11086e-05)
(0.0224214 0 -2.73866e-05)
(0.0280593 0 -2.98495e-05)
(0.0328693 0 -2.7897e-05)
(0.0369234 0 -2.08641e-05)
(0.0402863 0 -7.97807e-06)
(0.0430164 0 1.16743e-05)
(0.045166 0 3.91753e-05)
(0.0467822 0 7.58007e-05)
(0.0479075 0 0.000123031)
(0.0485785 0 0.000182562)
(0.0488288 0 0.000256394)
(0.0486924 0 0.000346832)
(0.0482026 0 0.000456491)
(0.0473908 0 0.000588382)
(0.0462867 0 0.000745785)
(0.0449221 0 0.000932112)
(0.0433336 0 0.00115117)
(0.0415608 0 0.00140694)
(0.0396472 0 0.00170307)
(0.0376454 0 0.00204267)
(0.0356195 0 0.00242764)
(0.0336434 0 0.00285703)
(0.0318089 0 0.00332601)
(0.0302286 0 0.0038228)
(0.029059 0 0.00432164)
(0.0284661 0 0.00477577)
(0.0285803 0 0.00510927)
(0.0283353 0 0.00551372)
(0 0 0)
(0.00838853 0 -1.45781e-05)
(0.0159734 0 -2.66212e-05)
(0.0225686 0 -3.48684e-05)
(0.0282599 0 -3.86561e-05)
(0.0331288 0 -3.7322e-05)
(0.037249 0 -3.01316e-05)
(0.0406871 0 -1.62315e-05)
(0.0435031 0 5.38566e-06)
(0.0457517 0 3.59117e-05)
(0.0474822 0 7.67504e-05)
(0.0487391 0 0.000129467)
(0.0495595 0 0.000195822)
(0.0499812 0 0.000277971)
(0.0500431 0 0.000378403)
(0.0497813 0 0.000499878)
(0.0492311 0 0.000645439)
(0.0484264 0 0.000818326)
(0.0474032 0 0.00102191)
(0.0462009 0 0.00125967)
(0.0448621 0 0.00153488)
(0.0434334 0 0.00185018)
(0.0419687 0 0.00220694)
(0.0405302 0 0.00260435)
(0.0391896 0 0.00303796)
(0.0380306 0 0.00349804)
(0.0371429 0 0.00396728)
(0.0366435 0 0.00441536)
(0.0366479 0 0.00479521)
(0.0372152 0 0.00504454)
(0.0373971 0 0.00533391)
(0 0 0)
(0.00844487 0 -1.7858e-05)
(0.0160857 0 -3.27782e-05)
(0.0227383 0 -4.33511e-05)
(0.028491 0 -4.88799e-05)
(0.0334273 0 -4.86687e-05)
(0.0376232 0 -4.19449e-05)
(0.041147 0 -2.78105e-05)
(0.0440611 0 -5.20695e-06)
(0.0464219 0 2.71142e-05)
(0.0482817 0 7.06186e-05)
(0.0496859 0 0.000126862)
(0.0506745 0 0.000197592)
(0.0512904 0 0.000285048)
(0.0515764 0 0.000391758)
(0.0515714 0 0.000520386)
(0.0513141 0 0.00067381)
(0.0508431 0 0.000855024)
(0.0501988 0 0.00106702)
(0.0494236 0 0.00131263)
(0.0485629 0 0.00159414)
(0.0476652 0 0.00191279)
(0.0467836 0 0.00226797)
(0.0459761 0 0.00265616)
(0.0453052 0 0.00306952)
(0.0448372 0 0.00349428)
(0.0446371 0 0.00390955)
(0.0447749 0 0.00428347)
(0.0453047 0 0.00457334)
(0.0462267 0 0.00473456)
(0.0467073 0 0.00490477)
(0 0 0)
(0.00850805 0 -2.1486e-05)
(0.0162115 0 -3.96395e-05)
(0.0229282 0 -5.2928e-05)
(0.0287493 0 -6.06526e-05)
(0.0337607 0 -6.21151e-05)
(0.0380405 0 -5.65378e-05)
(0.0416593 0 -4.30165e-05)
(0.0446814 0 -2.04874e-05)
(0.0471659 0 1.22987e-05)
(0.0491669 0 5.67966e-05)
(0.0507319 0 0.00011451)
(0.0519053 0 0.000187088)
(0.0527339 0 0.000276691)
(0.0532631 0 0.000385732)
(0.0535357 0 0.000516642)
(0.0535943 0 0.000671957)
(0.0534818 0 0.000854206)
(0.0532425 0 0.00106576)
(0.0529222 0 0.00130857)
(0.0525684 0 0.00158377)
(0.0522305 0 0.00189111)
(0.0519591 0 0.00222813)
(0.0518052 0 0.00258906)
(0.0518178 0 0.00296361)
(0.0520404 0 0.00333569)
(0.0525054 0 0.00368305)
(0.053231 0 0.00397536)
(0.0542107 0 0.00417738)
(0.0553989 0 0.00426184)
(0.0560591 0 0.00433763)
(0 0 0)
(0.0085772 0 -2.54822e-05)
(0.0163491 0 -4.72459e-05)
(0.0231357 0 -6.36625e-05)
(0.0290312 0 -7.40635e-05)
(0.0341241 0 -7.77803e-05)
(0.0384947 0 -7.40644e-05)
(0.0422161 0 -6.20444e-05)
(0.0453546 0 -4.06966e-05)
(0.0479714 0 -8.82666e-06)
(0.0501233 0 3.49453e-05)
(0.0518597 0 9.20403e-05)
(0.0532301 0 0.000163892)
(0.0542843 0 0.00025243)
(0.0550695 0 0.000359854)
(0.0556331 0 0.000488222)
(0.0560215 0 0.00063957)
(0.0562816 0 0.000815797)
(0.0564612 0 0.00101847)
(0.056609 0 0.00124856)
(0.0567745 0 0.001506)
(0.0570067 0 0.00178919)
(0.0573529 0 0.00209421)
(0.0578558 0 0.00241393)
(0.0585485 0 0.00273702)
(0.0594489 0 0.00304721)
(0.0605526 0 0.00332346)
(0.0618245 0 0.00353946)
(0.0631994 0 0.00366827)
(0.064595 0 0.00369603)
(0.0653575 0 0.00371185)
(0 0 0)
(0.00865137 0 -2.98566e-05)
(0.0164966 0 -5.5618e-05)
(0.0233579 0 -7.55864e-05)
(0.0293327 0 -8.91567e-05)
(0.0345122 0 -9.57217e-05)
(0.0389793 0 -9.45958e-05)
(0.042809 0 -8.49777e-05)
(0.04607 0 -6.59281e-05)
(0.0488258 0 -3.63592e-05)
(0.0511351 0 4.9674e-06)
(0.0530505 0 5.93583e-05)
(0.0546258 0 0.000127977)
(0.0559124 0 0.00021236)
(0.0569597 0 0.000314381)
(0.0578198 0 0.000435643)
(0.0585426 0 0.000577556)
(0.0591783 0 0.000741267)
(0.0597775 0 0.00092745)
(0.0603915 0 0.00113604)
(0.0610711 0 0.00136586)
(0.0618647 0 0.00161421)
(0.0628161 0 0.00187627)
(0.0639597 0 0.00214455)
(0.0653138 0 0.00240831)
(0.0668719 0 0.00265331)
(0.068594 0 0.00286226)
(0.0703943 0 0.00301471)
(0.0721481 0 0.00309102)
(0.0737351 0 0.00308416)
(0.0745844 0 0.00307021)
(0 0 0)
(0.00872948 0 -3.46091e-05)
(0.0166518 0 -6.47558e-05)
(0.0235915 0 -8.86998e-05)
(0.0296494 0 -0.000105931)
(0.0349195 0 -0.000115935)
(0.039487 0 -0.00011812)
(0.0434291 0 -0.000111789)
(0.0468169 0 -9.61282e-05)
(0.0497156 0 -7.02005e-05)
(0.0521863 0 -3.29631e-05)
(0.0542856 0 1.66962e-05)
(0.0560686 0 7.96946e-05)
(0.0575876 0 0.000157093)
(0.0588966 0 0.000250266)
(0.0600512 0 0.00036031)
(0.0611036 0 0.000487939)
(0.0621066 0 0.000633484)
(0.0631131 0 0.00079669)
(0.0641761 0 0.000976479)
(0.065347 0 0.00117068)
(0.0666737 0 0.00137578)
(0.0681968 0 0.00158658)
(0.0699446 0 0.00179608)
(0.0719243 0 0.00199552)
(0.0741114 0 0.00217461)
(0.0764392 0 0.0023222)
(0.0787783 0 0.0024255)
(0.0809434 0 0.00247085)
(0.0827568 0 0.00245048)
(0.0837392 0 0.00243007)
(0 0 0)
(0.00881044 0 -3.97294e-05)
(0.0168126 0 -7.46386e-05)
(0.0238333 0 -0.000102971)
(0.0299769 0 -0.000124341)
(0.0353401 0 -0.000138354)
(0.0400105 0 -0.000144542)
(0.0440674 0 -0.000142345)
(0.0475838 0 -0.000131103)
(0.0506271 0 -0.000110069)
(0.0532604 0 -7.84284e-05)
(0.0555435 0 -3.53354e-05)
(0.0575316 0 1.98674e-05)
(0.0592788 0 8.77503e-05)
(0.0608436 0 0.000169084)
(0.0622831 0 0.000264404)
(0.0636514 0 0.00037371)
(0.0650029 0 0.0004965)
(0.0663918 0 0.000631604)
(0.0678718 0 0.000776999)
(0.0694941 0 0.00092964)
(0.0713056 0 0.00108537)
(0.0733448 0 0.00123894)
(0.0756364 0 0.0013843)
(0.0781824 0 0.00151527)
(0.0809513 0 0.00162665)
(0.0838651 0 0.00171535)
(0.0867696 0 0.00177897)
(0.0894244 0 0.00181152)
(0.0915608 0 0.00179859)
(0.0928293 0 0.00179692)
(0 0 0)
(0.00889307 0 -4.51968e-05)
(0.0169766 0 -8.5226e-05)
(0.0240799 0 -0.000118339)
(0.0303105 0 -0.000144299)
(0.0357681 0 -0.000162857)
(0.0405422 0 -0.000173694)
(0.0447145 0 -0.00017641)
(0.0483596 0 -0.000170531)
(0.0515466 0 -0.000155523)
(0.0543404 0 -0.000130826)
(0.0568026 0 -9.58841e-05)
(0.0589889 0 -5.03142e-05)
(0.0609565 0 5.90795e-06)
(0.0627658 0 7.29284e-05)
(0.0644738 0 0.000150743)
(0.0661363 0 0.000238626)
(0.067808 0 0.000335283)
(0.0695431 0 0.000438691)
(0.0713945 0 0.000545966)
(0.0734123 0 0.000653286)
(0.0756414 0 0.000755948)
(0.0781181 0 0.00084862)
(0.0808653 0 0.000925976)
(0.0838851 0 0.000983964)
(0.0871493 0 0.00102178)
(0.0905888 0 0.00104446)
(0.0940555 0 0.00106331)
(0.0972871 0 0.00108868)
(0.0999066 0 0.00110409)
(0.101869 0 0.0011751)
(0 0 0)
(0.00897621 0 -5.09813e-05)
(0.0171415 0 -9.64582e-05)
(0.0243277 0 -0.000134712)
(0.0306457 0 -0.000165675)
(0.0361975 0 -0.000189267)
(0.041075 0 -0.000205336)
(0.0453614 0 -0.000213663)
(0.0491332 0 -0.000213977)
(0.0524607 0 -0.000205978)
(0.0554102 0 -0.000189378)
(0.0580441 0 -0.000163936)
(0.0604193 0 -0.000129547)
(0.0625948 0 -8.66333e-05)
(0.0646311 0 -3.57135e-05)
(0.0665851 0 2.26092e-05)
(0.0685132 0 8.69944e-05)
(0.0704689 0 0.000155437)
(0.0725046 0 0.000225168)
(0.0746711 0 0.000292568)
(0.0770151 0 0.000353141)
(0.079578 0 0.000401648)
(0.0823923 0 0.000432437)
(0.0854783 0 0.000440157)
(0.0888382 0 0.000421111)
(0.0924504 0 0.000375543)
(0.0962646 0 0.000311473)
(0.100163 0 0.000251175)
(0.103924 0 0.000233655)
(0.107154 0 0.000279024)
(0.110861 0 0.000571236)
(0 0 0)
(0.00905945 0 -5.71198e-05)
(0.0173065 0 -0.000108369)
(0.0245753 0 -0.000152108)
(0.0309801 0 -0.000188483)
(0.0366255 0 -0.000217576)
(0.0416052 0 -0.000239425)
(0.0460039 0 -0.000254004)
(0.0498994 0 -0.000261258)
(0.0533632 0 -0.000261133)
(0.0564622 0 -0.000253622)
(0.0592593 0 -0.000238815)
(0.0618132 0 -0.000216959)
(0.064182 0 -0.00018873)
(0.0664254 0 -0.000155223)
(0.0686011 0 -0.000117746)
(0.0707631 0 -7.81285e-05)
(0.0729625 0 -3.89514e-05)
(0.0752487 0 -3.57257e-06)
(0.0776679 0 2.38208e-05)
(0.0802617 0 3.822e-05)
(0.0830649 0 3.39191e-05)
(0.0861031 0 4.77601e-06)
(0.0893895 0 -5.53218e-05)
(0.0929207 0 -0.000151723)
(0.096672 0 -0.000288123)
(0.100593 0 -0.000465699)
(0.104578 0 -0.00068167)
(0.108453 0 -0.000939706)
(0.111956 0 -0.00130213)
(0.119862 0 -3.04767e-05)
(0 0 0)
(0.00381497 0 0)
(0.00683932 0 0)
(0.0111483 0 0)
(0.0162196 0 0)
(0.0216443 0 0)
(0.0271132 0 0)
(0.0323996 0 0)
(0.0373454 0 0)
(0.041848 0 0)
(0.0458477 0 0)
(0.0493116 0 0)
(0.0522239 0 0)
(0.054578 0 0)
(0.0563721 0 0)
(0.0576065 0 0)
(0.0582818 0 0)
(0.0583958 0 0)
(0.0579422 0 0)
(0.056911 0 0)
(0.0552872 0 0)
(0.0530512 0 0)
(0.0501784 0 0)
(0.046639 0 0)
(0.0423984 0 0)
(0.0374173 0 0)
(0.0316521 0 0)
(0.0250554 0 0)
(0.0175773 0 0)
(0.00916269 0 0)
(0 0 0)
(0.00182008 0 -0.00196592)
(0.00507439 0 -0.00178583)
(0.00802386 0 -0.00173667)
(0.0122277 0 -0.00165493)
(0.0171866 0 -0.00156241)
(0.0225007 0 -0.00146799)
(0.0278641 0 -0.00137479)
(0.033052 0 -0.00128414)
(0.0379068 0 -0.00119598)
(0.0423272 0 -0.00111002)
(0.0462544 0 -0.0010272)
(0.049655 0 -0.000947719)
(0.0525129 0 -0.000872416)
(0.0548208 0 -0.000802006)
(0.0565752 0 -0.000736062)
(0.057776 0 -0.000674212)
(0.0584229 0 -0.000616311)
(0.0585131 0 -0.000562181)
(0.0580395 0 -0.000511421)
(0.0569915 0 -0.000463686)
(0.0553536 0 -0.000418591)
(0.0531059 0 -0.000375717)
(0.0502231 0 -0.000334606)
(0.0466755 0 -0.000294764)
(0.0424279 0 -0.000255659)
(0.0374408 0 -0.000216719)
(0.0316703 0 -0.00017731)
(0.0250689 0 -0.000136717)
(0.0175864 0 -9.4116e-05)
(0.00916727 0 -4.85132e-05)
(0 0 0)
(0.00580389 0 -0.00364381)
(0.00864224 0 -0.00343553)
(0.0114243 0 -0.0033592)
(0.015356 0 -0.00321962)
(0.0200067 0 -0.00305397)
(0.0250099 0 -0.0028802)
(0.0300711 0 -0.00270487)
(0.0349705 0 -0.00253058)
(0.0395574 0 -0.00235928)
(0.043737 0 -0.00219197)
(0.0474523 0 -0.00203045)
(0.0506686 0 -0.00187562)
(0.0533685 0 -0.00172858)
(0.0555403 0 -0.00159028)
(0.0571778 0 -0.00146045)
(0.058279 0 -0.00133838)
(0.058842 0 -0.00122396)
(0.0588618 0 -0.00111696)
(0.0583291 0 -0.00101649)
(0.0572313 0 -0.000921933)
(0.0555517 0 -0.000832536)
(0.053269 0 -0.000747484)
(0.0503569 0 -0.000665872)
(0.0467846 0 -0.000586723)
(0.0425161 0 -0.000508992)
(0.0375111 0 -0.000431542)
(0.031725 0 -0.000353121)
(0.0251096 0 -0.000272312)
(0.0176137 0 -0.000187477)
(0.00918129 0 -9.66438e-05)
(0 0 0)
(0.0117175 0 -0.00508367)
(0.0140953 0 -0.00488809)
(0.0166775 0 -0.00480586)
(0.0202396 0 -0.00463677)
(0.0244487 0 -0.00442459)
(0.0289855 0 -0.00419287)
(0.0335763 0 -0.00395158)
(0.0380227 0 -0.00370565)
(0.0421914 0 -0.00346042)
(0.0459958 0 -0.00322012)
(0.0493782 0 -0.0029873)
(0.0523038 0 -0.00276423)
(0.054751 0 -0.00255177)
(0.0567037 0 -0.00235043)
(0.0581535 0 -0.00216086)
(0.0590957 0 -0.00198251)
(0.0595246 0 -0.00181498)
(0.0594308 0 -0.00165757)
(0.0588021 0 -0.00150937)
(0.0576236 0 -0.00136973)
(0.0558761 0 -0.00123755)
(0.0535363 0 -0.00111165)
(0.0505764 0 -0.000990706)
(0.0469638 0 -0.000873283)
(0.0426611 0 -0.000757841)
(0.0376268 0 -0.000642711)
(0.0318151 0 -0.000526042)
(0.0251765 0 -0.000405741)
(0.0176588 0 -0.000279381)
(0.00920429 0 -0.000144034)
(0 0 0)
(0.0190668 0 -0.00631716)
(0.0210074 0 -0.00614174)
(0.0233672 0 -0.00606269)
(0.02651 0 -0.00588427)
(0.0301959 0 -0.00564824)
(0.0341554 0 -0.00537848)
(0.0381537 0 -0.00508798)
(0.042031 0 -0.00478609)
(0.0456711 0 -0.00448055)
(0.0489938 0 -0.00417815)
(0.0519439 0 -0.00388316)
(0.054487 0 -0.00359917)
(0.0565986 0 -0.00332773)
(0.0582608 0 -0.00306964)
(0.0594622 0 -0.00282592)
(0.060194 0 -0.00259672)
(0.0604449 0 -0.00238104)
(0.0602002 0 -0.00217743)
(0.0594435 0 -0.00198485)
(0.0581562 0 -0.0018026)
(0.056317 0 -0.00162978)
(0.0539001 0 -0.00146493)
(0.0508753 0 -0.00130632)
(0.0472079 0 -0.00115209)
(0.0428588 0 -0.00100025)
(0.0377846 0 -0.000848623)
(0.0319379 0 -0.000694802)
(0.0252677 0 -0.000536047)
(0.0177201 0 -0.00036918)
(0.00923561 0 -0.000190355)
(0 0 0)
(0.0274262 0 -0.00736714)
(0.0289619 0 -0.00721012)
(0.0310853 0 -0.00713814)
(0.0337911 0 -0.00696331)
(0.0369108 0 -0.00671915)
(0.0402328 0 -0.0064279)
(0.0435743 0 -0.00610452)
(0.0468101 0 -0.00576154)
(0.0498422 0 -0.00540915)
(0.0526019 0 -0.00505604)
(0.0550418 0 -0.00470875)
(0.0571296 0 -0.00437207)
(0.0588408 0 -0.00404892)
(0.0601558 0 -0.00374097)
(0.0610588 0 -0.00344928)
(0.0615358 0 -0.00317425)
(0.0615701 0 -0.00291495)
(0.0611432 0 -0.00267008)
(0.060233 0 -0.0024379)
(0.0588139 0 -0.00221661)
(0.056862 0 -0.00200582)
(0.0543503 0 -0.0018044)
(0.0512456 0 -0.00161023)
(0.0475108 0 -0.00142106)
(0.0431042 0 -0.00123446)
(0.0379805 0 -0.00104784)
(0.0320903 0 -0.000858252)
(0.0253809 0 -0.000662365)
(0.0177962 0 -0.000456287)
(0.00927445 0 -0.000235306)
(0 0 0)
(0.0364044 0 -0.00824469)
(0.0375904 0 -0.00811307)
(0.0394739 0 -0.00805207)
(0.0417488 0 -0.0078893)
(0.0442961 0 -0.00764734)
(0.0469626 0 -0.00734609)
(0.0496166 0 -0.00700185)