/*--------------------------------*- C++ -*----------------------------------*\
| =========                 |                                                 |
| \\      /  F ield         | OpenFOAM: The Open Source CFD Toolbox           |
|  \\    /   O peration     | Version:  dev                                   |
|   \\  /    A nd           | Web:      www.OpenFOAM.org                      |
|    \\/     M anipulation  |                                                 |
\*---------------------------------------------------------------------------*/
FoamFile
{
    version     2.0;
    format      ascii;
    class       surfaceVectorField;
    location    "4.61";
    object      Uf;
}
// * * * * * * * * * * * * * * * * * * * * * * * * * * * * * * * * * * * * * //

dimensions      [0 1 -1 0 0 0 0];

internalField   nonuniform List<vector> 
865
(
(3.77528 2.7784e-20 0.291431)
(4.51187 -1.28653e-19 0.474625)
(3.20748 3.01469e-19 0.317379)
(3.9621 9.02388e-20 0.51162)
(2.62102 -9.64179e-21 0.342711)
(3.38804 -8.87643e-20 0.54564)
(2.02306 -2.43177e-19 0.366047)
(2.79517 -1.97579e-19 0.57403)
(1.42319 -5.00555e-20 0.385602)
(2.19121 4.89401e-19 0.593363)
(0.833106 -1.06984e-19 0.391856)
(1.58842 0 0.599675)
(0.263612 -6.41602e-19 0.194898)
(0.982063 -5.39075e-21 0.585849)
(-0.0718478 -6.16249e-20 -0.155673)
(0.358828 4.11704e-19 0.339505)
(0.227392 -4.39694e-19 -0.0693981)
(4.68353 -6.38384e-20 0.733463)
(5.1853 -3.65213e-22 0.936967)
(4.12581 -3.0277e-19 0.787871)
(4.66264 6.40661e-20 1.01465)
(3.54405 -2.78589e-19 0.836071)
(4.11147 -2.78304e-19 1.08709)
(2.94483 5.42719e-19 0.873126)
(3.53554 -3.29201e-21 1.14873)
(2.33817 5.36418e-19 0.891316)
(2.94048 -2.33811e-19 1.19144)
(1.74117 1.0434e-19 0.87348)
(2.3359 -8.00627e-19 1.2013)
(1.18971 1.04824e-18 0.765256)
(1.72056 1.72571e-18 1.14479)
(0.580026 6.95266e-20 0.475839)
(1.09988 9.4146e-19 0.94346)
(0.621313 -8.80082e-19 0.506414)
(5.15175 1.28207e-19 1.20593)
(5.54056 -4.76626e-20 1.36198)
(4.63461 8.45477e-20 1.30093)
(5.05783 6.73885e-19 1.48078)
(4.08873 -4.34197e-22 1.38655)
(4.54414 -8.87384e-20 1.59391)
(3.51748 -7.82147e-19 1.45441)
(4.00009 -1.46289e-18 1.69352)
(2.92592 -1.57514e-18 1.49192)
(3.42664 6.30624e-19 1.76823)
(2.31883 8.36456e-19 1.47718)
(2.82524 -7.98898e-19 1.80095)
(1.68945 1.61976e-18 1.37374)
(2.18993 1.61586e-18 1.7635)
(0.981425 0 1.15021)
(1.48948 1.51841e-18 1.62141)
(0.875941 -1.71543e-18 1.32898)
(5.43594 5.06382e-19 1.63482)
(5.76683 -6.42407e-19 1.75471)
(4.95604 4.91616e-19 1.77139)
(5.31711 6.70455e-19 1.91341)
(4.44413 -1.56581e-18 1.89856)
(4.83531 -8.81415e-20 2.06815)
(3.89906 -3.39791e-20 2.00615)
(4.31875 -2.97631e-18 2.21014)
(3.31873 1.39282e-18 2.07994)
(3.76356 2.86098e-18 2.32716)
(2.69676 0 2.09927)
(3.16429 -1.87362e-19 2.40316)
(2.01579 1.51318e-18 2.03816)
(2.51149 0 2.41587)
(1.24025 -1.82661e-19 1.88431)
(1.7659 1.50964e-18 2.34546)
(1.05041 -1.70142e-18 2.17789)
(5.63902 -4.63161e-19 2.03428)
(5.94141 -5.53695e-19 2.1241)
(5.18712 8.141e-20 2.21141)
(5.51607 -1.29673e-18 2.32145)
(4.70088 -1.52911e-18 2.38163)
(5.05802 1.32939e-18 2.51835)
(4.1753 -3.24719e-20 2.53444)
(4.56205 -2.8128e-18 2.7062)
(3.60323 1.25918e-18 2.65597)
(4.0208 2.87233e-18 2.87307)
(2.97363 -1.86346e-19 2.72816)
(3.42489 -9.44183e-20 3.00403)
(2.26922 8.6769e-22 2.72932)
(2.76413 1.59467e-18 3.07917)
(1.4734 8.4889e-22 2.65234)
(2.00726 -1.47908e-18 3.07702)
(1.2185 0 3.00052)
(5.81088 -1.39586e-18 2.41376)
(6.10068 0 2.4768)
(5.37928 -2.23439e-20 2.63119)
(5.69387 -1.30248e-18 2.71222)
(4.91168 5.95669e-21 2.84615)
(5.25353 1.24978e-18 2.95189)
(4.40058 1.35451e-19 3.04858)
(4.77305 -2.64155e-18 3.18807)
(3.83612 1.49937e-18 3.22518)
(4.24306 2.78433e-18 3.40932)
(3.20606 1.69221e-18 3.35887)
(3.65208 -1.23415e-18 3.60074)
(2.49491 1.16833e-19 3.42625)
(2.98902 2.89949e-18 3.74224)
(1.70007 -1.44435e-18 3.41701)
(2.2394 -1.42612e-18 3.8011)
(1.39281 0 3.7924)
(5.97719 7.88741e-20 2.77869)
(6.26261 -7.32877e-20 2.81635)
(5.56154 -4.11018e-21 3.03671)
(5.87173 1.43936e-21 3.08996)
(5.10837 -1.43424e-18 3.29789)
(5.44623 -1.26188e-18 3.37332)
(4.609 4.53356e-20 3.55301)
(4.97869 2.23712e-20 3.65973)
(4.0521 2.63543e-20 3.78889)
(4.45871 1.36991e-18 3.93837)
(3.42509 -9.19925e-21 3.98761)
(3.87352 -1.3263e-18 4.19351)
(2.71306 1.34973e-18 4.12048)
(3.20884 1.35062e-18 4.40364)
(1.91973 4.69777e-20 4.16823)
(2.47078 -2.86215e-18 4.52072)
(1.57289 3.03325e-18 4.56579)
(6.15151 -1.50104e-19 3.13154)
(6.43652 1.114e-18 3.14378)
(5.75067 -1.26923e-18 3.43091)
(6.06163 -2.43404e-18 3.45607)
(5.31073 2.04526e-19 3.73986)
(5.65104 2.30614e-20 3.78433)
(4.82229 1.35642e-18 4.05012)
(5.19654 4.38004e-20 4.12298)
(4.27305 0 4.34842)
(4.68681 1.24977e-18 4.462)
(3.64954 4.42518e-20 4.61513)
(4.10801 0 4.78468)
(2.93558 -2.88324e-18 4.815)
(3.43967 6.45919e-20 5.06794)
(2.13434 3.19695e-19 4.91615)
(2.70832 -2.86246e-18 5.248)
(1.75875 3.07958e-18 5.34326)
(6.34165 -1.20412e-18 3.47238)
(6.62785 2.3381e-18 3.45826)
(5.95693 -1.12153e-18 3.81405)
(6.27102 -3.4784e-18 3.80969)
(5.53166 -1.38125e-19 4.17259)
(5.87784 1.20892e-18 4.18413)
(5.05553 -5.62012e-20 4.54084)
(5.43907 -2.51961e-18 4.57742)
(4.51491 1.24143e-18 4.90564)
(4.94197 2.48639e-18 4.98078)
(3.89427 2.07786e-20 5.24578)
(4.37125 0 5.37713)
(3.17421 6.43894e-20 5.5198)
(3.69728 -3.86884e-20 5.7425)
(2.35186 9.43577e-20 5.68103)
(2.96343 4.35616e-20 5.99924)
(1.95501 4.96294e-20 6.1541)
(6.55273 1.25945e-20 3.79948)
(6.84001 2.22546e-18 3.75745)
(6.18742 -1.10805e-18 4.18422)
(6.50514 -2.22865e-18 4.14808)
(5.78062 -1.20381e-18 4.59428)
(6.13402 1.12219e-18 4.56967)
(5.32073 5.99329e-20 5.0241)
(5.71632 -3.45248e-18 5.02015)
(4.7919 1.2255e-18 5.46156)
(5.23732 2.39567e-18 5.49303)
(4.17488 -6.00198e-20 5.88489)
(4.67943 -1.21536e-18 5.97231)
(3.44458 -5.87484e-20 6.24786)
(4.00097 3.59972e-18 6.43477)
(2.58696 -1.60894e-21 6.48806)
(3.25539 -2.49597e-18 6.79259)
(2.17312 -2.72337e-21 7.03399)
(6.78824 -5.29162e-20 4.10952)
(7.075 1.07734e-18 4.03768)
(6.44754 3.03466e-20 4.5375)
(6.76763 -6.03722e-20 4.46669)
(6.06545 -1.16138e-18 5.00058)
(6.4254 -1.01347e-18 4.93551)
(5.62888 -1.0718e-18 5.496)
(6.03711 -2.2776e-18 5.44514)
(5.11893 -7.9128e-20 6.01443)
(5.58608 2.19298e-18 5.99321)
(4.51058 2.51082e-18 6.53588)
(5.0514 -1.1835e-18 6.56751)
(3.76948 1.12139e-18 7.01238)
(4.37681 4.79327e-18 7.14912)
(2.8637 -2.43589e-18 7.36684)
(3.61591 -3.66674e-18 7.64643)
(2.43543 -7.62052e-20 8.02825)
(7.05026 1.06261e-18 4.39765)
(7.33352 1.02659e-18 4.29418)
(6.74121 -1.11116e-18 4.86783)
(7.06039 2.06331e-18 4.75925)
(6.39275 -2.1415e-18 5.38418)
(6.75598 -4.18229e-18 5.27362)
(5.99064 1.02729e-18 5.94845)
(6.40898 2.03658e-18 5.84241)
(5.51276 1.05849e-18 6.55704)
(6.00161 6.10679e-22 6.46975)
(4.92654 1.17558e-18 7.19644)
(5.50966 -2.74152e-20 7.15188)
(4.1834 -6.09935e-20 7.8235)
(4.8612 1.1282e-18 7.88128)
(3.22269 -1.21575e-18 8.35323)
(4.09783 -1.16943e-18 8.57531)
(2.78514 -1.12582e-18 9.19876)
(7.3392 2.03709e-18 4.65775)
(7.61481 9.98972e-19 4.52148)
(7.07028 -1.05097e-18 5.16696)
(7.38313 1.07029e-18 5.01805)
(6.76716 4.38965e-20 5.73418)
(7.12697 -1.07756e-18 5.5732)
(6.41553 9.9308e-19 6.3674)
(6.83658 2.10224e-18 6.19698)
(5.99152 -1.08891e-18 7.07277)
(6.49527 -1.95036e-18 6.90224)
(5.45522 -6.2218e-20 7.85159)
(6.07879 -9.40467e-19 7.69997)
(4.73946 0 8.68051)
(5.50385 9.03327e-19 8.60673)
(3.73748 -1.07499e-18 9.49347)
(4.79237 0 9.57703)
(3.31034 -1.60263e-19 10.6409)
(7.65352 2.99858e-20 4.88282)
(7.91618 -3.04347e-20 4.71393)
(7.43369 1.03336e-18 5.42467)
(7.73276 5.78533e-20 5.23465)
(7.18945 1.00901e-18 6.0357)
(7.53534 1.88514e-18 5.82137)
(6.90894 -8.7294e-19 6.73102)
(7.31839 -9.41155e-19 6.48892)
(6.57083 -1.79312e-18 7.53019)
(7.07068 -8.05714e-19 7.25934)
(6.13422 5.50843e-20 8.46014)
(6.77718 -1.62352e-18 8.16295)
(5.51804 8.87956e-19 9.54809)
(6.36321 2.72401e-18 9.25627)
(4.55406 9.12235e-19 10.8488)
(5.86316 -1.99412e-20 10.5887)
(4.19219 2.21773e-19 12.5215)
(7.98908 -1.74668e-21 5.06611)
(8.23548 0 4.86675)
(7.82646 9.23828e-19 5.63048)
(8.10611 -5.55283e-20 5.40164)
(7.65406 -7.6897e-20 6.27179)
(7.97639 5.23796e-19 6.00586)
(7.4666 -8.66813e-19 7.01101)
(7.84757 -1.85889e-19 6.6969)
(7.25352 -6.43626e-19 7.88031)
(7.71978 -1.24172e-20 7.50206)
(6.99073 1.08789e-18 8.93577)
(7.60157 -9.84402e-19 8.46536)
(6.62047 1.84799e-18 10.2853)
(7.474 1.61818e-18 9.67814)
(5.98119 -1.17248e-18 12.4755)
(7.65558 -5.52484e-19 11.3255)
(7.09154 -5.91772e-19 15.1193)
(0.176247 8.98542e-21 -0.118788)
(0.113285 2.13529e-20 -0.151507)
(0.390901 -1.08675e-21 -0.116868)
(0.270527 -1.07693e-20 -0.176823)
(0.591553 -9.97579e-21 -0.097454)
(0.468476 -9.78667e-21 -0.155522)
(0.765971 0 -0.0780093)
(0.658131 -1.77619e-20 -0.129922)
(0.914336 -5.05626e-22 -0.0617566)
(0.82341 1.72575e-20 -0.107801)
(1.03901 -5.1406e-22 -0.0483789)
(0.963468 -1.49752e-20 -0.0891799)
(1.14256 2.80944e-21 -0.0371559)
(1.08206 1.48655e-20 -0.0733211)
(1.22704 -8.65516e-22 -0.0273491)
(1.18237 -3.61105e-21 -0.0593948)
(1.29341 -4.63876e-21 -0.018282)
(1.26635 -3.61262e-21 -0.0463838)
(1.33475 1.44111e-20 -0.0335696)
(0.155594 1.68429e-20 -0.251139)
(0.0904335 -1.90088e-20 -0.308512)
(0.354727 -2.1768e-20 -0.254633)
(0.21992 1.96013e-20 -0.341961)
(0.54857 -1.74252e-20 -0.220288)
(0.405966 3.71386e-20 -0.304644)
(0.722396 1.76565e-21 -0.184049)
(0.581692 -1.80211e-20 -0.25849)
(0.874366 2.98334e-21 -0.153097)
(0.735978 -1.68229e-20 -0.2178)
(1.00655 3.77533e-22 -0.127283)
(0.869112 -1.56865e-20 -0.183633)
(1.12149 8.42295e-21 -0.105323)
(0.984394 3.13681e-20 -0.154809)
(1.22121 -6.49724e-21 -0.0858144)
(1.0846 -2.18125e-20 -0.129736)
(1.30714 1.5237e-20 -0.0674825)
(1.17185 1.17453e-22 -0.106747)
(1.24752 1.52366e-20 -0.0847405)
(0.106831 -3.56998e-20 -0.404981)
(0.0665213 -4.09439e-20 -0.4607)
(0.279814 7.81036e-20 -0.404456)
(0.148633 7.9607e-20 -0.485937)
(0.448351 2.98282e-20 -0.353639)
(0.315902 1.57822e-22 -0.431966)
(0.599834 -3.7922e-20 -0.300516)
(0.466334 -3.53918e-20 -0.368633)
(0.73218 -3.5447e-20 -0.254456)
(0.596458 -4.6319e-22 -0.312441)
(0.847096 1.52925e-20 -0.215723)
(0.708174 -3.00247e-21 -0.265193)
(0.947167 1.25725e-21 -0.182739)
(0.804234 1.45098e-20 -0.225648)
(1.03478 -1.53297e-20 -0.153583)
(0.887538 -2.10188e-21 -0.191751)
(1.11167 0 -0.126577)
(0.960543 -1.4818e-20 -0.161159)
(1.02493 -1.79782e-21 -0.13253)
(0.0517831 3.79786e-20 -0.544123)
(0.0471472 -3.98613e-20 -0.606366)
(0.199284 -1.21365e-20 -0.529359)
(0.0705704 7.67634e-20 -0.607097)
(0.341022 -7.22083e-20 -0.460655)
(0.221122 -3.71348e-20 -0.535191)
(0.4663 8.23592e-22 -0.392301)
(0.343402 -3.50773e-20 -0.456755)
(0.574072 3.20127e-20 -0.333148)
(0.445904 6.6378e-20 -0.387506)
(0.66598 -3.91411e-21 -0.283622)
(0.531893 -2.98952e-20 -0.32925)
(0.74463 1.1116e-20 -0.241959)
(0.603533 1.94021e-22 -0.280808)
(0.812963 -1.49479e-21 -0.205584)
(0.664543 1.51927e-20 -0.240052)
(0.873243 -1.6695e-20 -0.172588)
(0.717533 -1.48143e-20 -0.204052)
(0.764615 1.45759e-22 -0.171146)
(-0.00676106 -6.19329e-20 -0.666741)
(0.0331491 3.77336e-20 -0.740665)
(0.11525 3.86817e-20 -0.630459)
(-0.0116687 -1.0887e-19 -0.703182)
(0.229427 -9.03425e-24 -0.5437)
(0.124036 7.11057e-20 -0.612854)
(0.32614 3.23436e-20 -0.461982)
(0.2151 0 -0.520487)
(0.405751 3.18467e-21 -0.39155)
(0.287621 3.27172e-20 -0.439733)
(0.470369 -2.63955e-20 -0.332676)
(0.344591 -6.19857e-20 -0.372101)
(0.52348 3.85257e-21 -0.284169)
(0.389427 2.08904e-21 -0.316859)
(0.568639 1.9145e-21 -0.243269)
(0.425735 3.25298e-20 -0.271545)
(0.608333 1.80255e-21 -0.207004)
(0.456098 1.87407e-20 -0.232377)
(0.482899 -2.3931e-20 -0.19722)
(-0.0652448 8.65718e-20 -0.768374)
(0.0255511 7.76695e-20 -0.85713)
(0.0297974 -2.30865e-20 -0.70491)
(-0.0946486 -2.19297e-19 -0.771007)
(0.114789 7.20601e-20 -0.599738)
(0.0255872 1.40975e-19 -0.662953)
(0.180259 0 -0.505048)
(0.0816977 0 -0.557078)
(0.22866 -3.34486e-20 -0.425001)
(0.122794 -3.46676e-20 -0.466261)
(0.26436 -3.34498e-20 -0.359848)
(0.150204 3.2941e-22 -0.392169)
(0.291591 3.0523e-20 -0.306883)
(0.168683 1.39278e-22 -0.333148)
(0.312759 4.94369e-20 -0.262523)
(0.181012 -4.50154e-22 -0.28516)
(0.330249 -6.55676e-21 -0.223814)
(0.1899 4.56056e-20 -0.244532)
(0.197572 -1.42593e-20 -0.20883)
(-0.120974 -7.02309e-20 -0.842995)
(0.0245895 -7.28724e-20 -0.947732)
(-0.0559947 6.49947e-20 -0.748575)
(-0.175066 -7.15874e-20 -0.806544)
(-0.00310997 7.06304e-20 -0.626623)
(-0.0746884 3.57474e-20 -0.682923)
(0.028694 -3.42974e-20 -0.521962)
(-0.0562763 3.34888e-20 -0.564433)
(0.0463867 1.50571e-22 -0.435253)
(-0.046824 -3.26184e-20 -0.467199)
(0.0552808 3.43359e-20 -0.365967)
(-0.0468921 -3.74202e-22 -0.390676)
(0.0584311 -3.07684e-20 -0.310724)
(-0.0522584 2.78613e-20 -0.330663)
(0.0583338 -4.43951e-21 -0.265467)
(-0.0600958 -6.66186e-20 -0.282608)
(0.0573039 3.80985e-20 -0.227046)
(-0.0679462 6.16811e-20 -0.242929)
(-0.0741496 -7.94183e-21 -0.20893)
(-0.172235 -7.43301e-20 -0.884356)
(0.0285961 -6.1684e-22 -1.00305)
(-0.14071 -3.31578e-20 -0.759364)
(-0.249498 -1.37084e-19 -0.806555)
(-0.124285 8.13233e-22 -0.622978)
(-0.178333 3.41036e-20 -0.669132)
(-0.126881 3.58206e-20 -0.510221)
(-0.198362 3.34525e-20 -0.541664)
(-0.138009 -3.206e-20 -0.421795)
(-0.21979 2.05769e-21 -0.444273)
(-0.153194 -6.29067e-21 -0.353632)
(-0.245169 -3.44081e-20 -0.36997)
(-0.16976 -7.18538e-21 -0.300246)
(-0.270872 3.1661e-20 -0.312783)
(-0.185417 -5.27862e-22 -0.257499)
(-0.294339 -3.17418e-20 -0.268168)
(-0.198579 1.62645e-20 -0.222117)
(-0.31407 2.71351e-20 -0.232252)
(-0.329405 -1.54281e-20 -0.202168)
(-0.216339 2.01477e-19 -0.88755)
(0.0351067 7.21789e-20 -1.01521)
(-0.224301 2.3057e-20 -0.731315)
(-0.315297 -1.37964e-19 -0.765356)
(-0.250404 6.87453e-20 -0.586559)
(-0.287679 6.81396e-20 -0.617106)
(-0.286239 0 -0.474479)
(-0.346179 0 -0.490775)
(-0.324203 0 -0.390376)
(-0.398498 0 -0.399556)
(-0.360858 4.01076e-21 -0.326826)
(-0.447557 0 -0.332175)
(-0.393701 8.0495e-21 -0.278544)
(-0.490739 3.75287e-20 -0.282285)
(-0.421441 -3.84916e-21 -0.240962)
(-0.526869 -2.87858e-20 -0.244602)
(-0.443589 -4.19529e-21 -0.21057)
(-0.555827 -2.45943e-20 -0.214965)
(-0.578106 3.60916e-20 -0.190465)
(-0.251033 -5.47124e-22 -0.849158)
(0.0463161 1.05549e-21 -0.979452)
(-0.309054 -2.73186e-22 -0.661683)
(-0.375447 -1.0161e-19 -0.673266)
(-0.381144 0 -0.517033)
(-0.408364 6.79348e-20 -0.524839)
(-0.452405 0 -0.41347)
(-0.506011 -3.36225e-20 -0.410706)
(-0.517865 0 -0.338919)
(-0.589622 0 -0.332818)
(-0.57443 3.31427e-20 -0.285376)
(-0.660581 3.44598e-20 -0.27897)
(-0.621411 -2.37484e-22 -0.246376)
(-0.718667 -2.94895e-22 -0.241169)
(-0.659222 -4.94259e-20 -0.216933)
(-0.764987 -3.27526e-20 -0.213683)
(-0.688731 1.56795e-20 -0.193471)
(-0.801132 8.72065e-21 -0.192441)
(-0.82877 1.5659e-20 -0.174772)
(-0.284653 2.18381e-19 -0.754509)
(0.0625316 1.1429e-21 -0.88282)
(-0.402016 1.65005e-20 -0.542192)
(-0.441487 -1.34545e-19 -0.52281)
(-0.525826 2.77123e-20 -0.412484)
(-0.552 6.52618e-20 -0.389204)
(-0.635176 -3.38405e-20 -0.325873)
(-0.689389 -2.05418e-21 -0.299762)
(-0.726817 3.41308e-20 -0.269284)
(-0.801394 4.31993e-21 -0.245846)
(-0.800732 -1.27925e-21 -0.231829)
(-0.889968 3.44233e-20 -0.212884)
(-0.859083 -3.40868e-20 -0.206141)
(-0.958665 -3.37105e-20 -0.191888)
(-0.904515 2.50525e-20 -0.187345)
(-1.0115 0 -0.177436)
(-0.939378 8.76695e-21 -0.172308)
(-1.05188 2.11785e-20 -0.166247)
(-1.08256 -1.21723e-20 -0.156254)
(-0.336191 -3.28746e-20 -0.589244)
(0.0674021 3.29938e-20 -0.694174)
(-0.521909 8.96412e-21 -0.371508)
(-0.534041 -3.49267e-20 -0.308733)
(-0.700609 4.10195e-20 -0.269957)
(-0.742095 -3.14823e-20 -0.208232)
(-0.844945 3.60142e-20 -0.214159)
(-0.912465 6.80029e-20 -0.161772)
(-0.957396 4.35927e-21 -0.184984)
(-1.04165 2.1112e-21 -0.143803)
(-1.04288 0 -0.169697)
(-1.13792 -5.31254e-20 -0.139011)
(-1.10742 0 -0.160841)
(-1.20917 1.77643e-20 -0.138752)
(-1.1563 -4.23636e-21 -0.154542)
(-1.26239 0 -0.139149)
(-1.19326 -3.39388e-23 -0.148832)
(-1.3025 -2.69595e-20 -0.138827)
(-1.33279 1.77086e-20 -0.136768)
(-0.424309 2.60626e-19 -0.335773)
(0.0161424 3.31106e-20 -0.361343)
(-0.703656 -5.44003e-20 -0.14258)
(-0.707228 -2.65322e-21 -0.0111513)
(-0.931022 8.11715e-21 -0.0927832)
(-1.01159 -2.87057e-20 0.0108115)
(-1.09574 2.53372e-20 -0.0861234)
(-1.19382 3.69121e-20 -0.0109623)
(-1.214 -6.03151e-20 -0.0943181)
(-1.31648 1.82128e-21 -0.0401687)
(-1.29881 -3.46123e-20 -0.105732)
(-1.40093 -4.85059e-20 -0.0677731)
(-1.36018 1.79875e-20 -0.115465)
(-1.46159 1.77776e-20 -0.089384)
(-1.40599 -2.23896e-20 -0.122047)
(-1.50691 0 -0.103913)
(-1.44048 -9.46496e-21 -0.125655)
(-1.54133 -1.81699e-20 -0.113602)
(-1.56715 8.60694e-21 -0.118982)
(-0.598402 1.89486e-21 0.102166)
(-0.162306 -2.30158e-20 0.2466)
(-0.990695 -5.71987e-23 0.193058)
(-0.969263 2.21372e-20 0.379828)
(-1.24849 -2.01061e-21 0.115189)
(-1.34763 -1.66723e-20 0.244839)
(-1.40083 4.40873e-21 0.0378542)
(-1.51525 -2.66669e-21 0.121107)
(-1.49538 9.12056e-21 -0.0153387)
(-1.60071 3.44403e-20 0.0390972)
(-1.55901 4.72452e-21 -0.0516063)
(-1.65646 -1.72297e-20 -0.0163154)
(-1.60417 0 -0.077455)
(-1.69742 -2.48428e-21 -0.0543891)
(-1.63949 4.52669e-21 -0.0947615)
(-1.72827 -1.97159e-20 -0.0774786)
(-1.66717 1.78792e-23 -0.106248)
(-1.75311 2.87738e-20 -0.0937792)
(-1.77138 1.43611e-20 -0.105786)
(-0.836992 -2.03376e-19 0.73379)
(-1.41103 -2.43105e-20 1.25273)
(-1.31276 5.76311e-21 0.600875)
(-1.33878 2.15786e-20 0.84426)
(-1.60835 -2.12814e-20 0.299311)
(-1.82312 -1.50675e-20 0.508083)
(-1.70438 3.08839e-20 0.108584)
(-1.88503 -2.73102e-21 0.195617)
(-1.75004 3.49039e-21 0.0376274)
(-1.8488 3.17114e-20 0.0744725)
(-1.792 -2.56648e-20 -0.00973643)
(-1.87336 -2.10785e-20 0.0166963)
(-1.81767 -2.19926e-20 -0.0533186)
(-1.90207 6.37172e-22 -0.0364252)
(-1.83814 5.39764e-21 -0.0783633)
(-1.91029 -1.75746e-20 -0.0632042)
(-1.85828 4.33762e-20 -0.0929116)
(-1.92152 1.57681e-20 -0.0794995)
(8.35186 -5.51095e-20 5.20475)
(8.57707 -4.53036e-19 4.97827)
(8.2542 -4.79067e-19 5.77809)
(8.5065 3.39215e-19 5.51493)
(8.1654 4.2239e-19 6.42944)
(8.45073 -8.25597e-19 6.11825)
(8.09078 7.11198e-19 7.18076)
(8.41844 8.48078e-19 6.80382)
(8.04035 -3.34492e-19 8.06656)
(8.42319 -3.05524e-19 7.59448)
(8.0357 -4.20741e-19 9.14604)
(8.49949 4.37818e-20 8.5232)
(8.14333 -5.17859e-19 10.505)
(8.6663 -2.25705e-19 9.63884)
(8.74276 -5.54582e-19 12.7095)
(9.3804 -5.20332e-19 10.8529)
(10.0153 9.92409e-20 11.9223)
(12.7102 4.09497e-19 13.1284)
(8.7279 -5.1454e-20 5.29061)
(8.92494 -4.09122e-20 5.04268)
(8.69703 -8.23254e-21 5.85638)
(8.91216 -3.46701e-19 5.56769)
(8.69329 -4.00005e-19 6.4925)
(8.92709 -3.34454e-20 6.15067)
(8.73176 -1.82906e-19 7.21456)
(8.98269 8.85348e-20 6.80096)
(8.84068 9.0796e-20 8.04235)
(9.09813 -3.51081e-19 7.52809)
(9.0788 2.75278e-19 8.99771)
(9.31211 2.821e-19 8.33427)
(9.5676 5.08513e-21 10.0675)
(9.62348 7.11498e-20 9.20361)
(10.3641 0 11.2131)
(10.2545 6.39501e-20 10.0953)
(10.9971 0 11.2078)
(11.0863 -1.82261e-19 10.648)
(9.10551 -3.40977e-19 5.32229)
(9.27083 4.34416e-19 5.0593)
(9.13659 -3.72056e-19 5.86498)
(9.31064 -6.82482e-19 5.56114)
(9.20738 4.66763e-19 6.46387)
(9.38635 3.84971e-19 6.10897)
(9.33508 -8.36269e-20 7.12486)
(9.51082 8.70799e-20 6.7058)
(9.54476 -1.64685e-19 7.84973)
(9.70023 -1.73757e-19 7.35209)
(9.86639 8.15793e-20 8.62767)
(9.98199 9.91146e-20 8.04241)
(10.3223 1.40383e-19 9.42966)
(10.3481 5.44732e-20 8.7642)
(10.881 6.34134e-20 10.2119)
(10.8814 -6.71548e-20 9.52913)
(11.6543 9.0542e-20 10.3652)
(11.6927 4.34195e-20 10.3588)
(9.47323 8.97497e-20 5.302)
(9.55665 8.78068e-20 5.81058)
(9.69069 4.18178e-21 5.5019)
(9.68485 -4.06176e-21 6.35984)
(9.81466 8.10983e-20 6.00674)
(9.87145 -3.93508e-21 6.94902)
(9.98876 -4.71796e-20 6.54477)
(10.1322 9.83048e-20 7.57264)
(10.2248 3.58347e-20 7.11289)
(10.4817 7.32415e-20 8.21605)
(10.5412 9.63007e-20 7.70488)
(10.9352 -1.5569e-19 8.86865)
(10.9394 -2.45229e-20 8.30571)
(11.5271 -3.5457e-20 9.52816)
(11.4477 -1.3322e-19 8.90583)
(12.19 1.87315e-19 9.4769)
(12.3467 -1.9932e-19 9.9024)
(9.94726 -2.6876e-21 5.70428)
(10.1173 3.73855e-20 6.20022)
(10.3427 -5.29884e-21 6.71971)
(10.4142 7.07636e-20 6.33641)
(10.6346 3.39382e-20 7.25599)
(10.6796 -1.10174e-19 6.83059)
(11.0053 -4.3922e-21 7.7966)
(11.0136 6.8268e-20 7.33144)
(11.4672 -2.44637e-21 8.33013)
(11.4215 -6.77259e-20 7.82227)
(12.0363 9.74656e-20 8.84567)
(11.9045 1.12775e-19 8.28856)
(12.563 -1.80621e-20 8.72054)
(12.7135 -3.16788e-19 9.17588)
(10.7537 -3.704e-20 6.45465)
(11.0622 -7.4491e-20 6.91305)
(11.4363 3.71649e-21 7.3636)
(11.4064 7.26956e-20 6.94158)
(11.8793 5.10801e-20 7.79215)
(11.8041 1.18565e-19 7.34474)
(12.3917 1.01918e-21 8.18601)
(12.254 -8.46847e-21 7.71772)
(12.8347 -1.91183e-19 8.05561)
(12.9719 -2.879e-19 8.45405)
(11.7829 1.9098e-19 6.93026)
(12.1982 5.6735e-20 7.2777)
(12.6628 -1.98981e-19 7.58881)
(12.5246 -1.26969e-19 7.18687)
(13.0425 -1.02331e-19 7.45279)
(13.1759 -5.60852e-20 7.80705)
(12.8734 -2.7697e-20 7.04595)
(13.3292 1.94936e-19 7.2227)
(7.0541 2.51097e-19 10.8445)
(10.671 1.33605e-19 9.65899)
(3.02863 0 7.92056)
(8.46528 7.88097e-20 7.69286)
(4.89708 0 5.8691)
(0.387159 0 4.58049)
(10.5578 -8.75691e-20 9.32639)
(11.4605 -5.93671e-21 10.7705)
(9.64582 7.84361e-20 7.92799)
(11.1692 1.83614e-19 9.58059)
(10.3163 -7.72343e-20 8.3)
(8.43993 -3.4801e-22 6.53524)
(11.9597 5.84614e-20 9.95123)
(12.146 -1.47089e-19 10.2072)
(11.8694 -5.2846e-20 9.2738)
(12.3816 -6.77906e-20 9.77831)
(12.2941 3.24341e-20 9.17628)
(11.4652 -5.02394e-20 8.31425)
(12.6443 -2.76858e-19 9.84228)
(12.6381 -4.6033e-19 9.54476)
(12.7887 1.16152e-20 9.57759)
(12.9641 -7.34194e-20 9.45942)
(13.1163 3.55064e-19 9.23322)
(12.7686 1.2728e-19 9.00918)
(13.0162 -2.49055e-19 9.21771)
(12.9506 -4.35581e-19 8.85325)
(13.2636 2.61478e-19 9.1648)
(13.2852 1.69787e-19 8.8927)
(13.5255 2.64233e-19 8.845)
(13.4353 2.91999e-19 8.90523)
(13.2608 -8.69972e-22 8.5285)
(13.1739 -1.66864e-19 8.17644)
(13.5334 1.67944e-19 8.56608)
(13.4887 3.05768e-19 8.25057)
(13.7429 4.20355e-22 8.27782)
(13.7752 -2.62895e-20 8.48236)
(13.4357 1.52795e-19 7.88268)
(13.3417 1.49236e-19 7.55267)
(13.6937 1.37769e-19 7.94522)
(13.625 1.46646e-19 7.62758)
(13.8619 -3.20775e-19 7.67707)
(13.9429 -2.33239e-20 7.94358)
(13.5594 1.43797e-19 7.28799)
(13.7922 -3.18033e-19 7.34904)
(13.7161 -1.10015e-20 7.05221)
(13.9287 -3.00548e-19 7.10213)
(14.0248 -3.57355e-19 7.3788)
(13.853 1.01251e-20 6.79725)
(14.0629 -3.25847e-20 6.8353)
(-0.956082 7.30458e-22 0.689568)
(2.18253 -5.33064e-22 2.99707)
(-1.92912 7.57408e-22 0.232232)
(1.55177 3.39011e-22 1.84731)
(-2.19567 0 0.049434)
(0.127222 -1.52447e-21 0.775152)
(-1.98596 0 0.0761006)
(-1.20302 0 -0.0144893)
(-1.93 2.31559e-21 0.10451)
(-1.86798 0 0.0201172)
(-2.00026 4.73109e-21 0.0113185)
(-2.02246 -1.25495e-20 0.0784344)
(-1.99998 4.98014e-21 -0.0714939)
(-2.03086 2.418e-21 -0.041623)
(-1.98498 -6.81142e-21 -0.0758116)
(-2.01031 1.70769e-21 -0.0780697)
(-2.02028 -8.07392e-21 -0.0652102)
(5.61201 -2.25805e-21 4.14219)
(8.8373 6.31461e-20 6.00593)
(3.282 1.22242e-21 2.57007)
(6.94695 8.15599e-21 4.32074)
(1.05623 -1.55787e-21 1.14429)
(4.89467 3.89495e-23 3.10741)
(-0.843338 0 0.129181)
(2.60666 0 1.93652)
(-1.90059 -2.24731e-21 -0.19841)
(0.990752 5.2683e-21 1.08704)
(-2.18053 -2.30182e-21 -0.222824)
(0.102824 -7.63609e-21 0.363415)
(-2.04031 -2.49721e-21 -0.115016)
(-0.938002 -3.20114e-21 -0.164588)
(-1.98405 -7.3578e-21 -0.0032575)
(-1.78759 -1.16075e-22 -0.125057)
(-1.98259 -9.952e-21 0.0187549)
(9.9499 6.59138e-20 6.3246)
(11.662 2.80396e-20 7.67387)
(8.22158 6.84621e-21 4.85149)
(10.5002 3.24193e-20 6.19115)
(6.51084 -2.46263e-21 3.61811)
(9.03576 -2.02559e-20 4.93131)
(4.72775 5.28237e-21 2.57366)
(7.47606 4.86384e-21 3.80769)
(2.99288 1.43888e-20 1.69403)
(5.91401 5.40547e-21 2.87455)
(1.19267 -8.67088e-21 0.83489)
(4.4827 -5.47197e-21 2.17497)
(-0.508972 -8.34374e-22 0.134298)
(2.71718 1.42959e-20 1.5066)
(-1.61756 -1.92911e-20 -0.166526)
(1.14467 1.72104e-20 0.944384)
(0.342612 -5.16149e-21 0.4423)
(12.1892 -5.28885e-21 7.58044)
(13.0378 -8.59873e-20 8.33972)
(11.227 1.83978e-20 6.34863)
(12.5356 5.07095e-20 7.25878)
(10.061 -1.38098e-20 5.22486)
(11.7118 -4.65673e-20 6.2006)
(8.74207 4.97434e-21 4.21664)
(10.6939 4.98618e-21 5.21721)
(7.35267 0 3.34719)
(9.55087 1.51059e-21 4.33163)
(5.99823 2.90158e-21 2.61515)
(8.36114 -2.89258e-21 3.5682)
(4.6369 5.50372e-21 1.98293)
(7.12655 2.97131e-21 2.88144)
(3.30359 2.59529e-21 1.41326)
(5.8775 2.59796e-21 2.26583)
(4.69416 -3.14682e-21 1.74294)
(13.3988 -3.13184e-20 8.05618)
(13.7532 -1.25463e-19 8.39679)
(13.0137 -8.50234e-21 7.16522)
(13.6828 7.8567e-20 7.70145)
(12.3698 -2.89534e-20 6.2579)
(13.3503 -2.04459e-20 6.91975)
(11.5367 1.51489e-21 5.38858)
(12.802 0 6.12759)
(10.5754 -1.06128e-21 4.59286)
(12.0873 2.19266e-21 5.36078)
(9.54632 -2.961e-21 3.88002)
(11.2592 -2.49944e-21 4.64811)
(8.46477 0 3.23205)
(10.354 0 3.99423)
(7.34462 -3.15117e-21 2.64456)
(9.39284 0 3.39567)
(8.39997 -1.42784e-21 2.86267)
(14.0348 -1.917e-20 8.04888)
(14.1019 -7.68032e-20 8.10484)
(14.0332 6.98324e-20 7.47672)
(14.284 4.42003e-20 7.71282)
(13.7992 9.37428e-21 6.81743)
(14.2887 2.33944e-20 7.19224)
(13.3734 7.16767e-22 6.13031)
(14.1041 -5.82211e-21 6.60636)
(12.795 1.31408e-21 5.45314)
(13.7501 -1.50762e-20 5.99542)
(12.1035 5.95125e-22 4.80723)
(13.2609 1.62884e-20 5.39048)
(11.3286 0 4.20024)
(12.6684 0 4.80895)
(10.4913 1.7706e-21 3.64119)
(11.9968 4.60378e-21 4.25822)
(11.2654 -1.06016e-21 3.74759)
(14.3338 -1.66842e-20 7.76194)
(14.2513 8.40548e-20 7.64563)
(14.5591 -2.9365e-21 7.43325)
(14.5579 6.40644e-20 7.45685)
(14.6085 8.45595e-21 6.99524)
(14.7674 -7.07541e-20 7.14358)
(14.4931 -2.18021e-20 6.49238)
(14.8355 4.55691e-20 6.74461)
(14.2316 -8.41523e-22 5.95873)
(14.7571 -8.09331e-20 6.29239)
(13.848 1.60528e-20 5.41954)
(14.5497 5.14668e-20 5.81402)
(13.3653 4.61283e-21 4.89155)
(14.2344 -2.88105e-20 5.32933)
(12.8028 2.09322e-21 4.38704)
(13.8295 2.99749e-20 4.85165)
(13.3506 -9.37727e-21 4.39218)
(14.4498 1.67003e-19 7.33147)
(14.3023 1.69709e-20 7.13149)
(14.786 -5.45272e-21 7.16527)
(14.6513 1.61157e-19 7.06032)
(15.0073 -3.51799e-20 6.89829)
(14.9647 -1.40603e-19 6.89048)
(15.1055 -1.19692e-20 6.55612)
(15.187 1.20441e-19 6.63863)
(15.0829 -3.097e-20 6.16359)
(15.2982 -2.11792e-20 6.32501)
(14.9491 7.50806e-21 5.74232)
(15.3024 -9.64421e-21 5.96926)
(14.7168 -4.31865e-21 5.30939)
(15.2096 -4.71149e-20 5.58846)
(14.3992 1.94386e-20 4.87805)
(15.0297 4.22938e-20 5.19646)
(14.7732 -6.73184e-21 4.8047)
(14.4748 4.31295e-21 6.84989)
(14.8473 2.63514e-20 6.77932)
(14.6544 1.55141e-19 6.6085)
(15.1549 1.4569e-20 6.62935)
(15.0044 -1.85521e-19 6.52656)
(15.3817 1.14304e-19 6.4108)
(15.305 1.26958e-19 6.37761)
(15.5201 4.42035e-22 6.13822)
(15.5304 4.27239e-20 6.17148)
(15.5692 -6.46046e-20 5.82655)
(15.6766 -4.56904e-20 5.92007)
(15.5327 -1.66435e-21 5.48948)
(15.7453 2.09734e-20 5.6354)
(15.4169 1.67846e-20 5.139)
(15.7394 -2.37087e-20 5.32865)
(15.6635 4.23523e-21 5.00983)
(14.8257 -5.6641e-20 6.34764)
(15.1628 -7.42824e-20 6.26949)
(15.4531 5.55271e-20 6.13623)
(15.6858 -2.25639e-21 5.95473)
(15.5748 3.65685e-21 5.90226)
(15.8543 4.05075e-20 5.7336)
(15.8038 -4.79165e-20 5.73072)
(15.9564 -6.20605e-22 5.48205)
(15.9771 1.31718e-19 5.52547)
(15.9926 -3.72117e-20 5.20917)
(16.0929 -8.07198e-20 5.29415)
(16.1512 3.65402e-20 5.04435)
(15.6896 -4.19817e-20 5.67577)
(15.9253 4.14457e-20 5.52261)
(16.1142 5.45661e-20 5.33998)
(16.0163 9.3988e-20 5.31151)
(16.2536 -7.86199e-21 5.13388)
(16.2076 -8.41296e-20 5.14094)
(16.3557 6.99265e-20 4.95021)
(16.1078 -4.40807e-20 5.11144)
(16.3087 -7.94693e-21 4.95802)
(16.3774 4.33097e-20 4.76799)
)
;

boundaryField
{
    inlet
    {
        type            calculated;
        value           nonuniform 0();
    }
    outlet
    {
        type            calculated;
        value           nonuniform 0();
    }
    flap
    {
        type            calculated;
        value           nonuniform List<vector> 
33
(
(2.14661e-17 -2.77556e-14 3.85345e-16)
(-4.81046e-15 0 -4.10699e-14)
(-4.42708e-15 0 -2.58057e-14)
(-5.59203e-15 0 -2.65791e-14)
(0 0 0)
(-1.33228e-14 -2.77556e-14 -5.25746e-14)
(-1.40226e-14 -2.77556e-14 -5.366e-14)
(-2.72271e-14 0 -1.03886e-13)
(0 0 0)
(0 0 0)
(-2.52e-14 0 -1.04973e-13)
(-5.01327e-14 -2.77556e-14 -2.16872e-13)
(-2.43879e-14 -1.46424e-32 -1.08663e-13)
(-1.28479e-15 -2.77556e-14 -5.83177e-15)
(-2.33062e-14 0 -1.05893e-13)
(2.34879e-14 -7.33651e-32 -5.21399e-15)
(1.94627e-14 -2.77556e-14 -4.21896e-15)
(-2.91927e-15 0 6.4926e-16)
(-3.86855e-16 -2.77556e-14 -6.91726e-15)
(-1.71191e-15 -2.77556e-14 -1.44951e-14)
(0 0 0)
(-5.60131e-15 -2.77556e-14 -2.6575e-14)
(-1.24677e-14 -2.77556e-14 -5.25534e-14)
(-8.38561e-16 0 -3.30669e-15)
(-1.35825e-14 0 -5.19607e-14)
(-1.54025e-14 -2.77556e-14 -5.87498e-14)
(-2.85461e-14 -2.77556e-14 -1.10819e-13)
(2.77116e-14 0 1.11033e-13)
(-1.51405e-15 -7.26378e-32 -6.30324e-15)
(-2.57885e-14 0 -1.11477e-13)
(-2.50681e-14 0 -1.11626e-13)
(0 -2.77556e-14 0)
(-2.33238e-14 -2.77556e-14 -1.05885e-13)
)
;
    }
    upperWall
    {
        type            calculated;
        value           nonuniform 0();
    }
    lowerWall
    {
        type            calculated;
        value           uniform (0 0 0);
    }
    frontAndBack
    {
        type            empty;
        value           nonuniform 0();
    }
    procBoundary4to1
    {
        type            processor;
        value           nonuniform List<vector> 
30
(
(9.60615 -1.72478e-19 5.03108)
(9.82227 -2.60378e-19 5.23563)
(10.045 -6.3693e-21 5.39839)
(10.2056 1.21618e-19 5.85723)
(10.5035 1.56133e-19 6.00017)
(10.7875 2.37201e-19 6.09397)
(11.0686 -2.59604e-19 6.52026)
(11.4189 -1.07618e-19 6.55568)
(11.7289 3.24917e-20 6.55073)
(12.1078 1.90348e-19 6.88456)
(12.45 0 6.79443)
(12.7348 2.88457e-20 6.69098)
(13.1992 -2.7587e-20 6.90412)
(13.4641 3.20115e-19 6.98661)
(13.6451 1.61209e-19 6.74403)
(13.7753 -1.82705e-19 6.52626)
(13.965 9.82229e-21 6.5706)
(14.3074 -6.03464e-20 6.62021)
(14.4571 8.59144e-20 6.36812)
(14.6159 -7.39737e-21 6.15018)
(14.9649 -1.25133e-19 6.11678)
(15.2927 6.77022e-20 6.03296)