/*--------------------------------*- C++ -*----------------------------------*\
| =========                 |                                                 |
| \\      /  F ield         | OpenFOAM: The Open Source CFD Toolbox           |
|  \\    /   O peration     | Version:  dev                                   |
|   \\  /    A nd           | Web:      www.OpenFOAM.org                      |
|    \\/     M anipulation  |                                                 |
\*---------------------------------------------------------------------------*/
FoamFile
{
    version     2.0;
    format      ascii;
    class       volVectorField;
    location    "3.71";
    object      cellDisplacement;
}
// * * * * * * * * * * * * * * * * * * * * * * * * * * * * * * * * * * * * * //

dimensions      [0 1 0 0 0 0 0];

internalField   nonuniform List<vector> 
465
(
(0.00959579 0 -0.00162086)
(0.00934166 0 -0.00155254)
(0.00912815 0 -0.00158681)
(0.00887381 0 -0.00160324)
(0.00913444 0 -0.00147934)
(0.00894419 0 -0.00149846)
(0.00872433 0 -0.00149987)
(0.00848463 0 -0.00147953)
(0.00823765 0 -0.00143337)
(0.00896507 0 -0.00140437)
(0.00880067 0 -0.00141166)
(0.00861514 0 -0.00140226)
(0.00841766 0 -0.00137335)
(0.00821914 0 -0.00132246)
(0.00803193 0 -0.00124779)
(0.00786891 0 -0.00114881)
(0.00882535 0 -0.00132978)
(0.00868716 0 -0.00132821)
(0.00853396 0 -0.00131143)
(0.00837396 0 -0.00127764)
(0.00821635 0 -0.00122553)
(0.00807085 0 -0.00115451)
(0.00794705 0 -0.00106512)
(0.00785363 0 -0.000959338)
(0.00779725 0 -0.000840841)
(0.00870821 0 -0.00125696)
(0.00859521 0 -0.00124903)
(0.00847143 0 -0.00122758)
(0.00834402 0 -0.00119158)
(0.00822051 0 -0.00114051)
(0.00810849 0 -0.00107451)
(0.00801504 0 -0.000994604)
(0.00794616 0 -0.000902829)
(0.00790617 0 -0.000802242)
(0.00860768 0 -0.00118671)
(0.0085181 0 -0.00117446)
(0.00842053 0 -0.00115038)
(0.00832106 0 -0.00111402)
(0.00822581 0 -0.00106534)
(0.00814065 0 -0.00100489)
(0.00807083 0 -0.000933855)
(0.00802055 0 -0.000854087)
(0.00799264 0 -0.000768047)
(0.00851892 0 -0.00111938)
(0.00845062 0 -0.00110441)
(0.00837605 0 -0.00107921)
(0.00830035 0 -0.0010437)
(0.00822845 0 -0.000998165)
(0.00816492 0 -0.000943315)
(0.00811365 0 -0.000880326)
(0.00807764 0 -0.000810804)
(0.00805881 0 -0.000736703)
(0.00843803 0 -0.00105504)
(0.00838876 0 -0.00103857)
(0.00833421 0 -0.00101332)
(0.00827863 0 -0.000979434)
(0.00822604 0 -0.000937373)
(0.00817999 0 -0.000887903)
(0.00814342 0 -0.000832104)
(0.00811851 0 -0.00077133)
(0.0081066 0 -0.00070713)
(0.00836186 0 -0.000993585)
(0.00832952 0 -0.0009765)
(0.0082923 0 -0.000951905)
(0.00825376 0 -0.000920098)
(0.00821716 0 -0.0008816)
(0.00818532 0 -0.000837159)
(0.00816049 0 -0.000787735)
(0.00814432 0 -0.000734454)
(0.00813776 0 -0.000678551)
(0.00828814 0 -0.000934729)
(0.00827074 0 -0.000917672)
(0.00824848 0 -0.000894207)
(0.00822437 0 -0.000864704)
(0.00820107 0 -0.000829698)
(0.00818085 0 -0.000789884)
(0.00816549 0 -0.000746095)
(0.00815626 0 -0.000699265)
(0.0081539 0 -0.000650383)
(0.00821119 0 -0.00088905)
(0.00821512 0 -0.000878142)
(0.00821095 0 -0.00086154)
(0.00820162 0 -0.000839489)
(0.00818973 0 -0.000812373)
(0.00817753 0 -0.000780704)
(0.00816688 0 -0.000745109)
(0.00815922 0 -0.000706303)
(0.00815557 0 -0.000665057)
(0.00815652 0 -0.000622171)
(0.00812663 0 -0.000834215)
(0.00814204 0 -0.000823338)
(0.00814935 0 -0.000807526)
(0.00815113 0 -0.00078706)
(0.0081496 0 -0.000762326)
(0.00814669 0 -0.000733801)
(0.00814396 0 -0.000702037)
(0.00814261 0 -0.000667644)
(0.00814348 0 -0.000631265)
(0.00814708 0 -0.000593547)
(0.00804278 0 -0.000780404)
(0.00806826 0 -0.000769885)
(0.00808553 0 -0.00075508)
(0.00809683 0 -0.000736287)
(0.00810411 0 -0.000713877)
(0.008109 0 -0.000688284)
(0.00811286 0 -0.000659995)
(0.0081167 0 -0.000629528)
(0.00812127 0 -0.000597418)
(0.00812701 0 -0.000564197)
(0.00795921 0 -0.000727285)
(0.00799353 0 -0.000717343)
(0.00801943 0 -0.000703677)
(0.0080389 0 -0.000686583)
(0.00805365 0 -0.000666406)
(0.00806512 0 -0.000643539)
(0.00807448 0 -0.000618405)
(0.00808264 0 -0.000591446)
(0.00809024 0 -0.00056311)
(0.00809772 0 -0.000533836)
(0.00787587 0 -0.000674479)
(0.00791793 0 -0.000665263)
(0.00795131 0 -0.000652808)
(0.00797779 0 -0.000637397)
(0.0079989 0 -0.000619348)
(0.00801592 0 -0.000599009)
(0.0080299 0 -0.000576748)
(0.00804165 0 -0.000552943)
(0.00805177 0 -0.00052797)
(0.00806067 0 -0.000502194)
(0.00779305 0 -0.000621572)
(0.00784186 0 -0.000613177)
(0.0078817 0 -0.000601965)
(0.0079142 0 -0.000588198)
(0.00794073 0 -0.000572166)
(0.00796245 0 -0.000554174)
(0.00798031 0 -0.000534543)
(0.00799506 0 -0.000513595)
(0.00800728 0 -0.000491645)
(0.00801735 0 -0.000469001)
(0.00771133 0 -0.000568118)
(0.007766 0 -0.000560599)
(0.00781142 0 -0.000550633)
(0.00784907 0 -0.00053846)
(0.00788022 0 -0.000524336)
(0.00790592 0 -0.000508532)
(0.00792705 0 -0.000491322)
(0.00794433 0 -0.000472981)
(0.00795828 0 -0.000453778)
(0.00796933 0 -0.000433968)
(0.00763155 0 -0.000513621)
(0.00769129 0 -0.000507007)
(0.00774151 0 -0.000498275)
(0.00778356 0 -0.000487638)
(0.00781863 0 -0.000475325)
(0.00784771 0 -0.000461569)
(0.0078716 0 -0.000446607)
(0.00789099 0 -0.000430673)
(0.00790641 0 -0.000413992)
(0.00791826 0 -0.000396781)
(0.00755484 0 -0.000457532)
(0.00761893 0 -0.000451832)
(0.00767325 0 -0.00044431)
(0.00771905 0 -0.000435156)
(0.00775745 0 -0.000424568)
(0.00778937 0 -0.000412746)
(0.00781559 0 -0.000399893)
(0.00783675 0 -0.000386204)
(0.00785339 0 -0.000371872)
(0.0078659 0 -0.000357077)
(0.00748258 0 -0.000399224)
(0.00755038 0 -0.000394434)
(0.00760816 0 -0.000388098)
(0.00765713 0 -0.00038038)
(0.00769832 0 -0.000371447)
(0.00773262 0 -0.000361471)
(0.00776078 0 -0.00035062)
(0.00778343 0 -0.000339059)
(0.00780107 0 -0.000326948)
(0.00781414 0 -0.000314436)
(0.00741644 0 -0.000337974)
(0.00748733 0 -0.000334084)
(0.00754801 0 -0.00032891)
(0.0075996 0 -0.000322591)
(0.00764311 0 -0.000315265)
(0.00767938 0 -0.000307073)
(0.00770914 0 -0.000298154)
(0.00773301 0 -0.000288643)
(0.00775148 0 -0.00027867)
(0.00776499 0 -0.000268358)
(0.00735835 0 -0.000272934)
(0.00743176 0 -0.000269929)
(0.00749478 0 -0.0002659)
(0.0075485 0 -0.000260957)
(0.00759388 0 -0.000255211)
(0.00763174 0 -0.000248773)
(0.00766279 0 -0.000241752)
(0.00768763 0 -0.000234257)
(0.00770677 0 -0.000226387)
(0.00772064 0 -0.000218241)
(0.00731054 0 -0.00020309)
(0.0073859 0 -0.000200956)
(0.00745073 0 -0.000198064)
(0.00750609 0 -0.000194495)
(0.00755291 0 -0.000190329)
(0.00759199 0 -0.000185649)
(0.00762403 0 -0.000180536)
(0.00764962 0 -0.000175067)
(0.00766927 0 -0.000169317)
(0.00768342 0 -0.000163358)
(0.00727557 0 -0.00012722)
(0.00735228 0 -0.000125947)
(0.00741837 0 -0.000124196)
(0.00747487 0 -0.00012202)
(0.00752269 0 -0.000119468)
(0.00756262 0 -0.000116591)
(0.00759535 0 -0.00011344)
(0.00762146 0 -0.000110063)
(0.00764146 0 -0.000106508)
(0.00765579 0 -0.000102818)
(0.00725634 0 -4.38363e-05)
(0.00733374 0 -4.34133e-05)
(0.00740048 0 -4.28251e-05)
(0.00745758 0 -4.20889e-05)
(0.00750593 0 -4.12222e-05)
(0.0075463 0 -4.02426e-05)
(0.00757939 0 -3.91673e-05)
(0.00760577 0 -3.80132e-05)
(0.00762595 0 -3.67964e-05)
(0.00764038 0 -3.55323e-05)
(0.00778559 0 -0.000746015)
(0.0078994 0 -0.000722776)
(0.00790249 0 -0.00066972)
(0.0079131 0 -0.000616646)
(0.00798939 0 -0.000700682)
(0.00799293 0 -0.000655769)
(0.00800212 0 -0.000610795)
(0.0080581 0 -0.000679059)
(0.0080619 0 -0.000640662)
(0.00806989 0 -0.000602186)
(0.00810775 0 -0.000657421)
(0.00811167 0 -0.000624333)
(0.00811865 0 -0.000591158)
(0.00814028 0 -0.000635412)
(0.00814423 0 -0.000606711)
(0.00815035 0 -0.000577927)
(0.00815745 0 -0.000612752)
(0.00816136 0 -0.000587727)
(0.00816672 0 -0.000562625)
(0.00816084 0 -0.000589212)
(0.00816469 0 -0.000567302)
(0.00816938 0 -0.000545326)
(0.00815199 0 -0.000564593)
(0.00815575 0 -0.000545353)
(0.00815985 0 -0.000526059)
(0.00813236 0 -0.000538711)
(0.00813602 0 -0.000521782)
(0.0081396 0 -0.000504813)
(0.00810342 0 -0.000511385)
(0.00810696 0 -0.000496477)
(0.00811007 0 -0.000481543)
(0.00806663 0 -0.000482426)
(0.00807007 0 -0.000469305)
(0.00807276 0 -0.00045617)
(0.00802352 0 -0.00045163)
(0.00802684 0 -0.000440105)
(0.00802916 0 -0.000428577)
(0.00797565 0 -0.000418766)
(0.00797888 0 -0.000408682)
(0.00798085 0 -0.000398607)
(0.00792471 0 -0.000383564)
(0.00792783 0 -0.000374801)
(0.00792951 0 -0.000366053)
(0.00787244 0 -0.000345707)
(0.00787548 0 -0.00033817)
(0.00787689 0 -0.000330655)
(0.00782076 0 -0.000304812)
(0.00782371 0 -0.000298435)
(0.00782489 0 -0.000292081)
(0.00777168 0 -0.000260418)
(0.00777456 0 -0.000255158)
(0.00777554 0 -0.000249921)
(0.00772737 0 -0.000211963)
(0.0077302 0 -0.000207803)
(0.00773101 0 -0.000203665)
(0.00769018 0 -0.00015876)
(0.00769296 0 -0.000155713)
(0.00769364 0 -0.000152684)
(0.00766258 0 -9.99681e-05)
(0.00766533 0 -9.80792e-05)
(0.00766592 0 -9.62013e-05)
(0.00764716 0 -3.45559e-05)
(0.00764991 0 -3.39082e-05)
(0.00765046 0 -3.32641e-05)
(0.00794063 0 -0.00053658)
(0.00802464 0 -0.000542765)
(0.00807876 0 -0.000452996)
(0.00815586 0 -0.000366433)
(0.00825313 0 -0.00028536)
(0.00808845 0 -0.00054386)
(0.00813146 0 -0.000466254)
(0.00819214 0 -0.000390427)
(0.00826846 0 -0.000318184)
(0.00835733 0 -0.000251013)
(0.00845455 0 -0.000190044)
(0.00813398 0 -0.000540786)
(0.00816818 0 -0.000473312)
(0.00821576 0 -0.000406687)
(0.00827528 0 -0.000342321)
(0.00834442 0 -0.000281456)
(0.00842002 0 -0.0002251)
(0.00849829 0 -0.000173971)
(0.00857484 0 -0.000128528)
(0.00816301 0 -0.000534166)
(0.00819008 0 -0.000475222)
(0.00822709 0 -0.000416516)
(0.00827295 0 -0.00035915)
(0.00832589 0 -0.000304141)
(0.00838347 0 -0.00025236)
(0.00844265 0 -0.000204501)
(0.00849986 0 -0.00016106)
(0.00855126 0 -0.000122312)
(0.00817715 0 -0.000524429)
(0.00819837 0 -0.000472737)
(0.00822674 0 -0.000420882)
(0.00826138 0 -0.00036973)
(0.00830091 0 -0.000320103)
(0.0083434 0 -0.000272742)
(0.00838636 0 -0.000228276)
(0.0084269 0 -0.000187194)
(0.00846171 0 -0.000149836)
(0.00817791 0 -0.000511866)
(0.00819428 0 -0.000466399)
(0.00821551 0 -0.000420509)
(0.00824086 0 -0.000374878)
(0.00826921 0 -0.00033017)
(0.00829898 0 -0.000287008)
(0.00832814 0 -0.000245942)
(0.00835426 0 -0.000207431)
(0.00837454 0 -0.00017183)
(0.00816674 0 -0.000496671)
(0.00817904 0 -0.000456596)
(0.0081943 0 -0.000415933)
(0.00821189 0 -0.000375224)
(0.00823086 0 -0.000335004)
(0.00824988 0 -0.000295788)
(0.00826726 0 -0.000258054)
(0.00828092 0 -0.000222218)
(0.00828846 0 -0.000188622)
(0.00814506 0 -0.000478961)
(0.00815392 0 -0.000443597)
(0.00816416 0 -0.000407549)
(0.00817521 0 -0.000371245)
(0.00818625 0 -0.00033512)
(0.00819614 0 -0.000299598)
(0.00820343 0 -0.000265086)
(0.00820632 0 -0.000231952)
(0.00820272 0 -0.000200517)
(0.0081143 0 -0.000458792)
(0.0081202 0 -0.000427581)
(0.00812619 0 -0.000395635)
(0.00813171 0 -0.000363298)
(0.00813602 0 -0.000330917)
(0.00813812 0 -0.000298846)
(0.00813673 0 -0.000267425)
(0.0081303 0 -0.000236978)
(0.00811698 0 -0.000207794)
(0.0080759 0 -0.000436164)
(0.00807926 0 -0.000408647)
(0.00808161 0 -0.000380377)
(0.00808241 0 -0.000351633)
(0.00808098 0 -0.000322694)
(0.00807641 0 -0.000293848)
(0.00806758 0 -0.000265385)
(0.00805307 0 -0.00023758)
(0.00803126 0 -0.000210693)
(0.00803134 0 -0.000411025)
(0.0080325 0 -0.000386825)
(0.00803174 0 -0.000361881)
(0.0080285 0 -0.000336416)
(0.00802216 0 -0.000310656)
(0.00801187 0 -0.000284838)
(0.00799662 0 -0.000259201)
(0.00797512 0 -0.000233984)
(0.00794591 0 -0.000209412)
(0.00798218 0 -0.000383272)
(0.00798145 0 -0.000362082)
(0.007978 0 -0.000340175)
(0.0079713 0 -0.00031773)
(0.00796075 0 -0.000294931)
(0.00794555 0 -0.000271969)
(0.00792477 0 -0.000249044)
(0.00789723 0 -0.000226359)
(0.00786159 0 -0.000204108)
(0.00793009 0 -0.000352747)
(0.00792771 0 -0.000334321)
(0.00792195 0 -0.000315218)
(0.00791229 0 -0.000295586)
(0.00789812 0 -0.000275568)
(0.00787871 0 -0.000255323)
(0.00785318 0 -0.000235016)
(0.00782043 0 -0.000214815)
(0.00777922 0 -0.000194889)
(0.00787681 0 -0.000319228)
(0.00787301 0 -0.000303375)
(0.00786528 0 -0.000286899)
(0.00785307 0 -0.000269917)
(0.00783582 0 -0.000252545)
(0.00781282 0 -0.000234912)
(0.00778321 0 -0.000217152)
(0.00774599 0 -0.000199407)
(0.00769999 0 -0.000181817)
(0.00782424 0 -0.000282426)
(0.00781921 0 -0.000269007)
(0.0078098 0 -0.000255028)
(0.00779545 0 -0.000240583)
(0.00777558 0 -0.000225766)
(0.00774952 0 -0.000210677)
(0.00771647 0 -0.000195426)
(0.00767545 0 -0.00018013)
(0.00762537 0 -0.000164906)
(0.0077744 0 -0.000241967)
(0.00776834 0 -0.000230894)
(0.00775752 0 -0.000219336)
(0.00774137 0 -0.000207365)
(0.00771932 0 -0.000195055)
(0.00769072 0 -0.000182486)
(0.00765477 0 -0.000169745)
(0.00761058 0 -0.000156925)
(0.00755707 0 -0.000144122)
(0.00772947 0 -0.000197382)
(0.00772257 0 -0.000188622)
(0.0077106 0 -0.000179461)
(0.00769298 0 -0.000169955)
(0.00766916 0 -0.000160159)
(0.00763848 0 -0.000150134)
(0.0076002 0 -0.000139947)
(0.00755342 0 -0.000129671)
(0.00749712 0 -0.00011938)
(0.00769178 0 -0.000148085)
(0.00768423 0 -0.000141664)
(0.00767137 0 -0.000134939)
(0.00765261 0 -0.000127949)
(0.00762742 0 -0.000120733)
(0.00759515 0 -0.000113335)
(0.00755505 0 -0.000105804)
(0.00750626 0 -9.81923e-05)
(0.00744781 0 -9.05542e-05)
(0.00766384 0 -9.33499e-05)
(0.00765583 0 -8.93651e-05)
(0.00764235 0 -8.51857e-05)
(0.0076228 0 -8.08362e-05)
(0.00759665 0 -7.63404e-05)
(0.00756326 0 -7.17251e-05)
(0.0075219 0 -6.70202e-05)
(0.00747172 0 -6.22583e-05)
(0.00741176 0 -5.74737e-05)
(0.00764829 0 -3.22858e-05)
(0.00764004 0 -3.09181e-05)
(0.00762621 0 -2.94825e-05)
(0.00760625 0 -2.79873e-05)
(0.00757959 0 -2.64405e-05)
(0.0075456 0 -2.48513e-05)
(0.00750357 0 -2.32303e-05)
(0.00745266 0 -2.15886e-05)
(0.00739192 0 -1.99386e-05)
)
;

boundaryField
{
    inlet
    {
        type            cellMotion;
        value           nonuniform 0();
    }
    outlet
    {
        type            cellMotion;
        value           nonuniform 0();
    }
    flap
    {
        type            cellMotion;
        value           nonuniform 0();
    }
    upperWall
    {
        type            slip;
    }
    lowerWall
    {
        type            slip;
    }
    frontAndBack
    {
        type            empty;
    }
    procBoundary1to0
    {
        type            processor;
        value           nonuniform List<vector> 
18
(
(0.00838518 0 -0.00100317)
(0.00829706 0 -0.000945263)
(0.00829706 0 -0.000945263)
(0.00819534 0 -0.000894316)
(0.00809983 0 -0.000840097)
(0.0080061 0 -0.000786542)
(0.00791371 0 -0.000733394)
(0.00782255 0 -0.000680348)
(0.00773284 0 -0.000627053)
(0.00764507 0 -0.000573104)
(0.00756003 0 -0.000518047)
(0.00747877 0 -0.000461357)
(0.00740262 0 -0.000402429)
(0.00733322 0 -0.000340556)
(0.00727246 0 -0.0002749)
(0.00722258 0 -0.000204459)
(0.00718616 0 -0.000128018)
(0.00716612 0 -4.40968e-05)
)
;
    }
    procBoundary1to2
    {
        type            processor;
        value           nonuniform List<vector> 
17
(
(0.00859203 0 -8.85322e-05)
(0.00848668 0 -0.000116528)
(0.00838528 0 -0.000139518)
(0.00828652 0 -0.000157679)
(0.00818952 0 -0.000171206)
(0.00809382 0 -0.000180297)
(0.00799932 0 -0.000185135)
(0.00790625 0 -0.000185881)
(0.00781518 0 -0.000182664)
(0.00772692 0 -0.000175584)
(0.0076426 0 -0.0001647)
(0.00756361 0 -0.000150037)
(0.00749165 0 -0.00013158)
(0.0074287 0 -0.000109276)
(0.00737706 0 -8.30397e-05)
(0.00733938 0 -5.27592e-05)
(0.00731871 0 -1.83092e-05)
)
;
    }
    procBoundary1to3
    {
        type            processor;
        value           nonuniform List<vector> 9((0.00976859 0 -0.00155693) (0.00950847 0 -0.00150519) (0.00928797 0 -0.00144634) (0.00910086 0 -0.00138326) (0.00894127 0 -0.00131819) (0.00880368 0 -0.00125273) (0.00868319 0 -0.00118798) (0.00857557 0 -0.00112459) (0.00847733 0 -0.00106291));
    }
    procBoundary1to4
    {
        type            processor;
        value           nonuniform List<vector> 
30
(
(0.00990576 0 -0.00168001)
(0.00936491 0 -0.00167376)
(0.00936491 0 -0.00167376)
(0.00907913 0 -0.00171007)
(0.00858805 0 -0.00159634)
(0.00858805 0 -0.00159634)
(0.00828467 0 -0.00156008)
(0.00799857 0 -0.00135777)
(0.00799857 0 -0.00135777)
(0.00778452 0 -0.00125022)
(0.00774252 0 -0.00102692)
(0.00774252 0 -0.00102692)
(0.0076633 0 -0.000886193)
(0.00764429 0 -0.000771475)
(0.00778781 0 -0.000682594)
(0.00778781 0 -0.000682594)
(0.00780004 0 -0.000619229)
(0.00783387 0 -0.00052399)
(0.00800887 0 -0.000432073)
(0.00800887 0 -0.000432073)
(0.00810685 0 -0.000332978)
(0.00823028 0 -0.000242171)
(0.00836601 0 -0.000211578)
(0.00836601 0 -0.000211578)
(0.00848895 0 -0.00014625)
(0.00855509 0 -0.000136023)
(0.00855509 0 -0.000136023)
(0.0086536 0 -8.92643e-05)
(0.00864485 0 -8.8997e-05)
(0.00864485 0 -8.8997e-05)
)
;
    }
}


// ************************************************************************* //
