/*--------------------------------*- C++ -*----------------------------------*\
| =========                 |                                                 |
| \\      /  F ield         | OpenFOAM: The Open Source CFD Toolbox           |
|  \\    /   O peration     | Version:  dev                                   |
|   \\  /    A nd           | Web:      www.OpenFOAM.org                      |
|    \\/     M anipulation  |                                                 |
\*---------------------------------------------------------------------------*/
FoamFile
{
    version     2.0;
    format      ascii;
    class       volVectorField;
    location    "3.94";
    object      Force;
}
// * * * * * * * * * * * * * * * * * * * * * * * * * * * * * * * * * * * * * //

dimensions      [1 1 -2 0 0 0 0];

internalField   uniform (0 0 0);

boundaryField
{
    inlet
    {
        type            calculated;
        value           nonuniform 0();
    }
    outlet
    {
        type            calculated;
        value           nonuniform 0();
    }
    flap
    {
        type            calculated;
        value           nonuniform List<vector> 
33
(
(3.88856 -6.46851e-19 -0.0778216)
(3.8647 2.21402e-22 -0.132924)
(3.84729 1.65367e-17 -0.168409)
(3.83528 6.97704e-22 -0.174542)
(3.82473 3.70802e-23 -0.160368)
(3.80874 6.65094e-22 -0.133601)
(3.78361 -6.44033e-19 -0.101102)
(3.74678 1.60628e-17 -0.0667928)
(3.69463 4.83082e-24 -0.0333077)
(3.6226 3.2244e-23 -0.00216428)
(3.52351 -3.73082e-40 0.025955)
(3.38487 2.75506e-40 0.0486191)
(3.18145 5.39872e-19 0.0627916)
(2.85478 -1.5839e-17 0.0663578)
(2.23921 1.83671e-39 0.0559816)
(-0.00721847 -1.51612e-22 0.465074)
(-0.00562159 5.73735e-23 0.268635)
(-0.00338246 7.2052e-21 0.0850305)
(-0.0753937 1.80058e-25 0.00136374)
(-0.0746569 -1.05425e-26 0.00237634)
(-0.0734939 6.72786e-24 0.00290348)
(-0.0722809 2.74914e-24 0.00287844)
(-0.0714458 1.64597e-17 0.00251809)
(-0.0714319 1.65413e-17 0.00199351)
(-0.0725678 2.43887e-20 0.0014234)
(-0.0749391 -1.85914e-25 0.00086403)
(-0.078255 -8.48897e-26 0.000316532)
(-0.0818978 1.65742e-17 -0.000227639)
(-0.0851832 3.30885e-17 -0.000748651)
(-0.0878098 1.6495e-17 -0.00112862)
(-0.0887458 2.99434e-23 -0.00134031)
(-0.085099 1.43028e-20 -0.00121277)
(-0.069642 2.74437e-23 -0.000624557)
)
;
    }
    upperWall
    {
        type            calculated;
        value           nonuniform 0();
    }
    lowerWall
    {
        type            calculated;
        value           uniform (0 0 0);
    }
    frontAndBack
    {
        type            empty;
    }
    procBoundary4to1
    {
        type            processor;
        value           uniform (0 0 0);
    }
    procBoundary4to2
    {
        type            processor;
        value           uniform (0 0 0);
    }
    procBoundary4to3
    {
        type            processor;
        value           uniform (0 0 0);
    }
    procBoundary4to5
    {
        type            processor;
        value           uniform (0 0 0);
    }
}


// ************************************************************************* //
