/*--------------------------------*- C++ -*----------------------------------*\
| =========                 |                                                 |
| \\      /  F ield         | OpenFOAM: The Open Source CFD Toolbox           |
|  \\    /   O peration     | Version:  dev                                   |
|   \\  /    A nd           | Web:      www.OpenFOAM.org                      |
|    \\/     M anipulation  |                                                 |
\*---------------------------------------------------------------------------*/
FoamFile
{
    version     2.0;
    format      ascii;
    class       volVectorField;
    location    "3.05";
    object      U;
}
// * * * * * * * * * * * * * * * * * * * * * * * * * * * * * * * * * * * * * //

dimensions      [0 1 -1 0 0 0 0];

internalField   nonuniform List<vector> 
465
(
(-0.713943 4.26701e-21 0.765566)
(-1.1006 8.23479e-21 0.706806)
(3.4272 -1.20927e-20 1.7006)
(2.54928 0 1.38809)
(1.76803 7.65685e-21 1.13369)
(1.09098 0 0.937943)
(7.43599 -4.47664e-21 2.63456)
(6.58286 0 2.26317)
(5.76824 -7.08781e-21 1.94437)
(4.9992 7.0328e-21 1.67404)
(4.28168 3.96465e-22 1.44779)
(10.6831 2.54145e-21 3.41531)
(9.98517 -2.52149e-21 3.02275)
(9.2906 4.05032e-21 2.67485)
(8.60765 -4.0123e-21 2.36929)
(7.94315 -6.86488e-21 2.10355)
(7.30285 6.68041e-21 1.87501)
(6.69157 3.92882e-21 1.68107)
(13.0942 0 4.01047)
(12.5885 0 3.62348)
(12.0632 1.27911e-21 3.27092)
(11.5276 -1.26604e-21 2.95316)
(10.9893 0 2.66987)
(10.455 -9.03092e-21 2.42008)
(9.93004 -6.8199e-21 2.20231)
(9.41881 7.56124e-21 2.01496)
(8.92557 0 1.85622)
(14.7521 -8.9737e-21 4.40672)
(14.4371 -6.42778e-22 4.04688)
(14.0885 1.66241e-21 3.71054)
(13.7153 -1.64338e-21 3.40006)
(13.3254 3.22463e-22 3.11683)
(12.9257 -2.86159e-21 2.86132)
(12.5223 9.90728e-21 2.63334)
(12.1204 -7.16947e-21 2.43212)
(11.7246 0 2.25641)
(11.3396 3.76214e-22 2.10426)
(15.7915 -3.75106e-20 4.61686)
(15.644 -1.19713e-21 4.29719)
(15.4568 -5.56472e-22 3.99079)
(15.2374 0 3.70131)
(14.9929 0 3.43135)
(14.7299 1.0636e-20 3.18257)
(14.4543 -9.4718e-21 2.9558)
(14.1717 2.24075e-21 2.75113)
(13.8869 -1.16102e-20 2.56794)
(13.6048 0 2.40484)
(13.3295 5.83368e-21 2.25969)
(13.065 -1.00762e-21 2.12959)
(16.3605 0 4.67047)
(16.3464 4.39392e-21 4.39596)
(16.2927 9.88548e-21 4.12638)
(16.2048 0 3.86591)
(16.0884 -1.74587e-20 3.6178)
(15.949 8.64913e-22 3.38445)
(15.7918 6.93366e-21 3.16742)
(15.622 -1.28493e-20 2.96747)
(15.4443 9.03265e-21 2.7846)
(15.2631 -9.77983e-21 2.61802)
(15.0825 -4.92184e-21 2.46618)
(14.9059 2.27129e-21 2.32688)
(14.7363 -4.60529e-21 2.19739)
(16.5999 9.10152e-21 4.60446)
(16.682 3.50569e-20 4.37388)
(16.7288 -1.72113e-20 4.14233)
(16.7435 -4.62946e-20 3.91387)
(16.7302 3.06775e-20 3.69189)
(16.6929 0 3.47906)
(16.6358 0 3.27733)
(16.5633 -2.78698e-21 3.08792)
(16.4792 0 2.9113)
(16.3875 2.10393e-20 2.74725)
(16.2916 3.93253e-21 2.59482)
(16.1945 -7.82511e-21 2.4525)
(16.0986 3.43178e-21 2.31833)
(16.0054 -4.36057e-21 2.19016)
(15.9154 4.80522e-21 2.06603)
(16.6295 1.17695e-21 4.45586)
(16.7737 0 4.26415)
(16.8887 1.38784e-20 4.06786)
(16.9764 0 3.87058)
(17.0389 -1.26892e-20 3.67543)
(17.0792 -3.10302e-20 3.48503)
(17.1 1.94646e-20 3.30143)
(17.1046 3.00879e-20 3.12605)
(17.0962 -2.8468e-20 2.95972)
(17.0777 2.70613e-20 2.80262)
(17.0519 -1.14328e-20 2.65435)
(17.0212 -1.79474e-22 2.51402)
(16.9874 8.26054e-21 2.38039)
(16.9515 -1.24029e-20 2.2521)
(16.9138 1.85058e-20 2.12802)
(16.8738 -1.04347e-20 2.00762)
(16.5399 -2.07388e-20 4.25627)
(16.719 0 4.09689)
(16.8756 8.8091e-21 3.9311)
(17.01 5.68901e-20 3.76186)
(17.1236 -4.3574e-20 3.59186)
(17.2177 1.09253e-21 3.42346)
(17.2943 1.0919e-20 3.25859)
(17.3555 0 3.09876)
(17.4036 1.75981e-20 2.94493)
(17.4408 -2.66228e-20 2.7976)
(17.469 2.48806e-20 2.65678)
(17.49 1.3056e-22 2.5221)
(17.5052 -9.8284e-21 2.39291)
(17.515 6.69255e-21 2.26853)
(17.5197 -1.06387e-20 2.14848)
(17.5187 1.21767e-20 2.03281)
(17.5109 -9.84854e-21 1.92243)
(17.495 -9.48152e-21 1.81942)
(16.3918 1.06633e-20 4.0288)
(16.5873 0 3.89559)
(16.7658 8.70695e-22 3.75522)
(16.9271 0 3.61008)
(17.0716 1.54176e-20 3.46241)
(17.1999 3.77342e-20 3.31425)
(17.3132 -3.82737e-20 3.16733)
(17.4128 0 3.02309)
(17.5002 -1.71712e-20 2.88258)
(17.5767 0 2.74645)
(17.6438 0 2.61503)
(17.7027 -1.12832e-20 2.48833)
(17.7541 1.92191e-20 2.36618)
(17.7985 -1.89706e-20 2.2484)
(17.8358 -6.4783e-21 2.13499)
(17.8655 1.31557e-21 2.0264)
(17.8869 5.00644e-21 1.92374)
(17.8991 5.46762e-21 1.82895)
(17.9018 -5.67256e-21 1.74489)
(16.2212 6.05745e-21 3.78816)
(16.4218 7.125e-20 3.67611)
(16.6097 -1.55635e-20 3.55676)
(16.7843 -6.41425e-20 3.43201)
(16.9457 6.21641e-20 3.30372)
(17.0939 -4.47894e-20 3.1736)
(17.2295 0 3.0432)
(17.3532 -1.20034e-20 2.91382)
(17.466 -1.71833e-20 2.78651)
(17.5687 3.98266e-21 2.66205)
(17.6622 5.01355e-20 2.54093)
(17.7472 1.455e-20 2.42347)
(17.8242 -1.09548e-20 2.30984)
(17.8934 2.00282e-20 2.20021)
(17.9548 -8.90365e-21 2.09493)
(18.0078 0 1.99468)
(18.0521 0 1.90064)
(18.0871 0 1.81463)
(18.1128 5.79309e-21 1.73905)
(18.1296 -1.31902e-21 1.67679)
(16.0463 8.91198e-20 3.54248)
(16.2462 1.0828e-20 3.44784)
(16.4364 -1.05222e-20 3.34606)
(16.6163 -1.85345e-20 3.23866)
(16.7857 1.27878e-21 3.12717)
(16.9444 4.38503e-20 3.01303)
(17.0926 -9.57097e-20 2.89759)
(17.2308 6.3409e-20 2.78206)
(17.3592 2.09728e-20 2.66742)
(17.4785 -6.1683e-20 2.55451)
(17.5892 -6.69502e-20 2.44396)
(17.6916 1.9808e-21 2.33625)
(17.7861 0 2.23181)
(17.8728 1.02904e-20 2.13105)
(17.9514 -1.44749e-21 2.03454)
(18.0219 0 1.9431)
(18.0839 1.29589e-20 1.85792)
(18.1371 3.91546e-21 1.78062)
(18.1816 -3.86382e-21 1.71327)
(18.2181 3.86143e-21 1.65824)
(18.2542 1.89053e-21 1.61761)
(15.8756 6.11599e-21 3.29578)
(16.0719 -1.80749e-20 3.21575)
(16.2608 -7.76971e-20 3.1289)
(16.4416 9.39727e-21 3.03645)
(16.6141 -1.70861e-20 2.93966)
(16.7778 0 2.83976)
(16.9328 -1.39787e-20 2.73791)
(17.0792 1.35663e-20 2.63519)
(17.2171 0 2.53256)
(17.3468 2.0015e-20 2.43083)
(17.4686 1.76855e-20 2.33073)
(17.5827 1.54947e-20 2.23286)
(17.6892 -1.48063e-20 2.13779)
(17.7882 -1.27313e-20 2.0461)
(17.8796 0 1.95848)
(17.9632 0 1.87582)
(18.039 7.64895e-21 1.79927)
(18.1068 -1.03575e-20 1.7303)
(18.167 4.3789e-21 1.67067)
(18.22 -4.08703e-21 1.62234)
(18.2783 -1.52631e-21 1.58706)
(15.7123 9.98083e-20 3.0498)
(15.9038 1.16117e-20 2.9822)
(16.0896 -8.46633e-20 2.90822)
(16.2693 5.56733e-21 2.82883)
(16.4421 7.61828e-20 2.74505)
(16.6079 0 2.65792)
(16.7664 4.27627e-20 2.56846)
(16.9175 -1.79932e-20 2.47762)
(17.0612 -4.51959e-21 2.3863)
(17.1976 -8.86467e-20 2.29531)
(17.3269 4.14689e-20 2.20537)
(17.4491 0 2.11718)
(17.5643 3.01994e-20 2.03138)
(17.6725 2.31402e-20 1.94865)
(17.7736 -4.42721e-20 1.86976)
(17.8677 2.00652e-20 1.7956)
(17.9547 -3.59871e-20 1.72726)
(18.0346 -5.43762e-21 1.66607)
(18.108 1.6429e-21 1.61353)
(18.1752 4.06194e-21 1.57131)
(18.2529 -4.2853e-22 1.54086)
(15.5574 -2.0317e-19 2.80519)
(15.7437 1.99388e-19 2.74826)
(15.9259 0 2.68544)
(16.1033 1.04925e-20 2.61753)
(16.2753 0 2.54534)
(16.4415 0 2.46974)
(16.6016 -4.527e-20 2.39161)
(16.7554 5.95277e-20 2.31179)
(16.9029 4.93424e-20 2.2311)
(17.044 -4.85138e-20 2.15032)
(17.1787 0 2.07018)
(17.307 1.88242e-20 1.99138)
(17.4289 -4.53886e-20 1.9146)
(17.5444 5.71026e-20 1.84059)
(17.6535 -9.51496e-21 1.7701)
(17.7563 2.13648e-20 1.70404)
(17.8529 1.50948e-20 1.64343)
(17.9433 -1.0889e-21 1.58944)
(18.0282 -9.13373e-21 1.54338)
(18.1079 -1.07745e-20 1.50665)
(18.2026 0 1.48054)
(15.4115 6.67007e-21 2.56207)
(15.5928 0 2.51433)
(15.771 -1.76162e-19 2.46125)
(15.9456 8.1442e-20 2.40345)
(16.116 5.11268e-21 2.3416)
(16.2818 7.32965e-20 2.27642)
(16.4425 1.65009e-20 2.20865)
(16.598 1.50307e-20 2.13903)
(16.7481 6.46443e-20 2.0683)
(16.8926 -1.08196e-19 1.99719)
(17.0314 4.49999e-20 1.92639)
(17.1646 -1.84067e-20 1.85661)
(17.2921 3.13762e-20 1.78853)
(17.4138 -4.48455e-20 1.72287)
(17.5299 -2.46166e-20 1.66043)
(17.6404 0 1.60203)
(17.7454 1.6094e-20 1.54864)
(17.8453 1.84602e-20 1.5013)
(17.9404 8.91523e-21 1.46115)
(18.0312 -1.49466e-21 1.4294)
(18.1412 1.00333e-21 1.40715)
(15.2751 -6.53181e-21 2.32031)
(15.4515 0 2.28049)
(15.6259 0 2.23591)
(15.7975 0 2.18703)
(15.966 -8.57405e-20 2.1344)
(16.1308 6.52965e-20 2.07861)
(16.2916 6.24859e-22 2.02029)
(16.4481 -1.47067e-20 1.96008)
(16.5999 -5.17528e-20 1.89863)
(16.747 1.10501e-19 1.83661)
(16.8893 -1.55356e-20 1.77466)
(17.0265 -4.12935e-20 1.71346)
(17.1588 1.48254e-20 1.65367)
(17.286 -5.99802e-20 1.596)
(17.4083 5.31539e-20 1.54118)
(17.5257 0 1.49)
(17.6384 5.3489e-22 1.44335)
(17.7468 -1.3077e-20 1.40215)
(17.8513 -1.00604e-20 1.36741)
(17.9523 6.92262e-21 1.34015)
(18.0761 -1.05775e-21 1.32137)
(15.149 0 2.07971)
(15.3208 1.92577e-19 2.04672)
(15.4913 -1.7735e-19 2.00954)
(15.66 0 1.96852)
(15.8264 -2.75916e-22 1.92411)
(15.99 8.94905e-21 1.87678)
(16.1504 -1.64115e-20 1.82705)
(16.3074 4.32958e-20 1.77548)
(16.4606 -5.72666e-20 1.72264)
(16.6097 0 1.66912)
(16.7548 -2.04547e-20 1.6155)
(16.8955 4.22273e-20 1.56242)
(17.032 1.72635e-20 1.51049)
(17.1641 0 1.46037)
(17.2919 1.16024e-20 1.41275)
(17.4156 -2.40683e-20 1.36837)
(17.5354 -8.75525e-21 1.328)
(17.6515 -6.08211e-21 1.29249)
(17.7646 1.16693e-20 1.26269)
(17.8748 2.95916e-21 1.23952)
(18.0111 -1.54322e-21 1.22384)
(15.0338 -6.63826e-21 1.83972)
(15.2014 0 1.81264)
(15.3684 -1.1374e-20 1.78192)
(15.5342 0 1.74784)
(15.6985 9.78251e-21 1.71073)
(15.8608 -9.25744e-21 1.671)
(16.0206 -6.50704e-20 1.62907)
(16.1777 4.03374e-21 1.58541)
(16.3318 9.85492e-20 1.54051)
(16.4826 -6.59397e-20 1.49489)
(16.63 -1.12208e-20 1.44907)
(16.7738 1.03691e-20 1.40361)
(16.9139 3.40037e-20 1.35908)
(17.0503 -3.34431e-20 1.31608)
(17.1832 0 1.27523)
(17.3125 0 1.2372)
(17.4387 0 1.20269)
(17.5619 6.24765e-21 1.17243)
(17.6827 -1.14699e-20 1.14717)
(17.8013 -4.48006e-21 1.1277)
(17.949 3.71551e-21 1.1148)
(14.9305 2.14039e-19 1.60014)
(15.0943 0 1.57818)
(15.258 0 1.55312)
(15.4213 -8.30905e-20 1.52516)
(15.5835 8.15509e-20 1.49458)
(15.7444 -1.95692e-22 1.46169)
(15.9036 -8.52945e-21 1.42684)
(16.0607 1.52757e-20 1.39042)
(16.2154 0 1.35284)
(16.3675 6.1747e-20 1.31455)
(16.5168 -3.65849e-20 1.276)
(16.6632 -4.93164e-20 1.23769)
(16.8065 4.77681e-20 1.20012)
(16.9468 0 1.16382)
(17.0841 3.93018e-20 1.12934)
(17.2185 -5.77604e-20 1.09727)
(17.3503 1.23065e-20 1.06823)
(17.4799 8.29491e-21 1.04284)
(17.6076 5.19174e-21 1.02176)
(17.7338 4.42574e-21 1.00566)
(17.8917 2.27343e-22 0.99525)
(14.8402 1.96396e-21 1.35971)
(15.0007 -1.0568e-19 1.3422)
(15.1616 0 1.3221)
(15.3224 8.26966e-20 1.29956)
(15.4829 -8.11583e-20 1.2748)
(15.6425 -6.18755e-20 1.24806)
(15.801 7.79736e-20 1.21963)
(15.9579 -7.81244e-21 1.18983)
(16.1131 7.14138e-21 1.15899)
(16.2663 0 1.12749)
(16.4172 -2.3142e-20 1.09571)
(16.5657 0 1.06407)
(16.7118 -4.3723e-20 1.03302)
(16.8554 3.41004e-20 1.00299)
(16.9966 -1.35825e-20 0.974475)
(17.1355 1.14291e-20 0.947976)
(17.2724 -9.62921e-21 0.924016)
(17.4075 0 0.903138)
(17.5414 -4.40533e-21 0.885902)
(17.6742 4.33583e-21 0.872868)
(17.841 -1.35422e-21 0.864668)
(14.7639 1.00344e-19 1.11907)
(14.9217 -1.86555e-19 1.10547)
(15.0802 9.23243e-20 1.08976)
(15.239 0 1.07208)
(15.3979 0 1.05257)
(15.5564 -7.96572e-20 1.03144)
(15.7143 6.92274e-20 1.0089)
(15.8711 1.54046e-20 0.985202)
(16.0266 -6.98196e-21 0.960622)
(16.1806 0 0.935458)
(16.3329 2.31232e-20 0.910031)
(16.4833 0 0.884682)
(16.6318 0 0.859771)
(16.7782 8.11958e-21 0.835678)
(16.9228 0 0.812801)
(17.0655 0 0.791559)
(17.2067 8.35368e-22 0.772386)
(17.3467 8.42982e-21 0.755736)
(17.4859 -7.69236e-21 0.742067)
(17.6246 -2.45738e-21 0.731842)
(17.7992 2.59878e-21 0.725597)
(14.7033 -9.57833e-20 0.874662)
(14.8589 9.70595e-20 0.864487)
(15.0154 -8.13517e-20 0.852685)
(15.1727 4.18376e-21 0.839345)
(15.3303 7.47308e-20 0.824585)
(15.488 7.87888e-20 0.808547)
(15.6453 -7.69262e-20 0.791399)
(15.8021 -7.44089e-20 0.773331)
(15.9579 6.51045e-20 0.754554)
(16.1127 -4.89358e-20 0.735299)
(16.2661 3.66626e-20 0.715816)
(16.4181 4.44641e-20 0.696371)
(16.5685 -7.32174e-20 0.677248)
(16.7174 -3.99449e-21 0.658748)
(16.8647 3.65508e-20 0.641185)
(17.0107 0 0.624894)
(17.1555 -3.75517e-21 0.61022)
(17.2995 1.49067e-20 0.597525)
(17.4432 1.1844e-21 0.587178)
(17.5868 5.86398e-23 0.579548)
(17.7677 -1.97191e-21 0.575093)
(14.6597 -3.09597e-21 0.630736)
(14.8136 -9.14624e-20 0.62371)
(14.9688 -1.40246e-21 0.615518)
(15.125 8.40476e-20 0.606222)
(15.2818 -6.96643e-20 0.595902)
(15.4389 1.37565e-19 0.584658)
(15.5959 -5.95428e-20 0.572607)
(15.7527 6.21906e-20 0.559884)
(15.9089 -1.08946e-20 0.546637)
(16.0643 -5.24463e-20 0.533031)
(16.2187 -5.72664e-21 0.519245)
(16.372 -5.07544e-21 0.50547)
(16.5241 -1.26171e-20 0.491912)
(16.6749 1.68829e-20 0.478788)
(16.8246 -1.95551e-20 0.466329)
(16.9732 2.31534e-20 0.45478)
(17.121 -1.51325e-20 0.444398)
(17.2683 0 0.435453)
(17.4156 2.20958e-21 0.428228)
(17.5632 -5.0074e-22 0.423006)
(17.7495 6.99632e-22 0.420135)
(14.6342 -4.6254e-20 0.376601)
(14.7872 3.39962e-21 0.37238)
(14.9416 4.40475e-20 0.367456)
(15.0971 -4.05648e-20 0.361867)
(15.2534 4.09195e-20 0.35566)
(15.4102 3.82782e-20 0.348895)
(15.5672 -3.53267e-20 0.341644)
(15.724 1.8421e-21 0.333988)
(15.8806 2.63026e-20 0.326019)
(16.0365 -2.58319e-20 0.317835)
(16.1917 5.59501e-21 0.309546)
(16.346 -2.52823e-21 0.301267)
(16.4993 -4.45469e-21 0.293124)
(16.6516 0 0.28525)
(16.8029 -1.69869e-21 0.277789)
(16.9534 -3.80872e-21 0.270891)
(17.1034 5.15523e-21 0.264722)
(17.2531 -1.8389e-21 0.259462)
(17.403 1.09187e-21 0.255323)
(17.5533 -1.07383e-21 0.252566)
(17.7428 -6.83097e-22 0.251682)
(14.3671 2.19811e-20 0.128015)
(14.5165 -2.44333e-20 0.126615)
(14.6672 0 0.124956)
(14.819 1.23579e-21 0.123052)
(14.9715 -2.30523e-21 0.120917)
(15.1244 -1.66907e-20 0.118574)
(15.2775 1.83654e-20 0.116046)
(15.4303 -1.23412e-20 0.113364)
(15.5827 9.62068e-22 0.110559)
(15.7345 2.44766e-20 0.107667)
(15.8853 -1.15507e-20 0.104726)
(16.0352 2.4764e-21 0.101777)
(16.184 0 0.0988666)
(16.3316 0 0.0960415)
(16.4782 -1.44177e-21 0.0933539)
(16.6239 1.64858e-21 0.0908598)
(16.769 2.07624e-21 0.0886216)
(16.9137 5.46254e-22 0.0867121)
(17.0587 -2.34975e-22 0.0852281)
(17.2046 -5.30086e-22 0.0843184)
(17.3897 0 0.0844165)
)
;

boundaryField
{
    inlet
    {
        type            fixedValue;
        value           nonuniform 0();
    }
    outlet
    {
        type            zeroGradient;
    }
    flap
    {
        type            movingWallVelocity;
        value           nonuniform 0();
    }
    upperWall
    {
        type            noSlip;
    }
    lowerWall
    {
        type            noSlip;
    }
    frontAndBack
    {
        type            empty;
    }
    procBoundary2to1
    {
        type            processor;
        value           nonuniform List<vector> 
17
(
(16.1799 1.02491e-19 4.15245)
(16.0085 0 3.89101)
(15.8376 1.03227e-19 3.62849)
(15.6728 -9.91088e-20 3.36783)
(15.5159 1.01308e-19 3.11011)
(15.3675 -2.31008e-19 2.85554)
(15.2278 2.3198e-19 2.60394)
(15.0973 -2.31999e-19 2.35495)
(14.9765 -3.55998e-21 2.10818)
(14.8662 3.48503e-21 1.86292)
(14.7671 4.45933e-19 1.61881)
(14.6805 4.46924e-21 1.37449)
(14.6073 0 1.13047)
(14.5492 0 0.883144)
(14.5073 0 0.636556)
(14.4829 5.26424e-20 0.380095)
(14.2193 2.58527e-20 0.12915)
)
;
    }
    procBoundary2to4
    {
        type            processor;
        value           nonuniform List<vector> 
11
(
(0.0733169 1.81772e-20 0.965566)
(4.40173 4.04671e-21 2.0737)
(8.31816 5.5945e-21 3.06142)
(11.374 -6.28835e-21 3.85439)
(13.5692 0 4.43075)
(15.0235 -1.23897e-20 4.7865)
(15.8912 -2.64898e-20 4.94495)
(16.3295 0 4.94477)
(16.4796 0 4.82935)
(16.4554 0 4.63909)
(16.3383 8.8725e-20 4.40613)
)
;
    }
    procBoundary2to5
    {
        type            processor;
        value           nonuniform List<vector> 
34
(
(-1.92815 3.62309e-20 0.716579)
(-1.95245 7.92302e-21 0.728147)
(-1.31985 0 0.671474)
(-1.31985 0 0.671474)
(-1.43228 1.5287e-20 0.647406)
(0.526968 7.36497e-21 0.802566)
(0.526968 7.36497e-21 0.802566)
(3.62233 6.83947e-21 1.26195)
(3.62233 6.83947e-21 1.26195)
(3.02784 6.72549e-21 1.11391)
(6.11358 -3.27907e-21 1.5199)
(6.11358 -3.27907e-21 1.5199)
(5.57335 0 1.3901)
(8.45467 0 1.72379)
(8.45467 0 1.72379)
(10.9697 1.17971e-20 1.97299)
(10.9697 1.17971e-20 1.97299)
(10.6191 4.62991e-21 1.85926)
(12.8147 -4.80106e-21 2.01114)
(12.8147 -4.80106e-21 2.01114)
(14.5757 -6.21517e-21 2.07471)
(14.5757 -6.21517e-21 2.07471)
(14.4252 8.2977e-21 1.95591)
(15.8283 -5.21559e-22 1.9446)
(15.8283 -5.21559e-22 1.9446)
(16.83 -6.50246e-21 1.89146)
(16.83 -6.50246e-21 1.89146)
(16.7806 -7.21766e-21 1.7816)
(17.4702 -2.77991e-21 1.72708)
(17.4702 -2.77991e-21 1.72708)
(17.8953 -9.99041e-22 1.67507)
(17.8953 -9.99041e-22 1.67507)
(18.1398 0 1.63036)
(18.1398 0 1.63036)
)
;
    }
}


// ************************************************************************* //
