/*--------------------------------*- C++ -*----------------------------------*\
| =========                 |                                                 |
| \\      /  F ield         | OpenFOAM: The Open Source CFD Toolbox           |
|  \\    /   O peration     | Version:  dev                                   |
|   \\  /    A nd           | Web:      www.OpenFOAM.org                      |
|    \\/     M anipulation  |                                                 |
\*---------------------------------------------------------------------------*/
FoamFile
{
    version     2.0;
    format      ascii;
    class       surfaceVectorField;
    location    "1.84";
    object      Uf;
}
// * * * * * * * * * * * * * * * * * * * * * * * * * * * * * * * * * * * * * //

dimensions      [0 1 -1 0 0 0 0];

internalField   nonuniform List<vector> 
5457
(
(9.91403 -7.6762e-23 0.0210152)
(9.96856 1.65036e-21 0.035594)
(9.82422 -5.60842e-22 0.0259736)
(9.93342 -4.00595e-21 0.038397)
(9.72722 0 0.0297211)
(9.87705 -4.069e-20 0.0431257)
(9.62059 0 0.0335442)
(9.80436 5.00706e-21 0.0492915)
(9.50437 1.41394e-20 0.0374299)
(9.72064 0 0.0558334)
(9.37878 2.84377e-20 0.0414111)
(9.62707 1.38894e-20 0.0626495)
(9.24371 1.82809e-21 0.0456116)
(9.52323 3.09533e-21 0.0699349)
(9.0987 -5.4731e-21 0.0501559)
(9.40854 -2.42184e-20 0.077889)
(8.94309 6.2051e-21 0.055151)
(9.28241 -6.2986e-21 0.0866815)
(8.77603 2.16755e-20 0.0606992)
(9.14422 -6.74337e-21 0.0964653)
(8.59656 2.03564e-21 0.0669171)
(8.99321 -7.02189e-21 0.107412)
(8.40352 -1.81973e-20 0.0739456)
(8.82833 1.45246e-20 0.119739)
(8.19553 0 0.0819479)
(8.64837 6.27808e-20 0.133702)
(7.97101 -1.79414e-20 0.0911102)
(8.45189 -2.93667e-21 0.14959)
(7.72815 3.91534e-20 0.101648)
(8.23726 -1.55769e-19 0.167731)
(7.46491 2.02234e-20 0.113813)
(8.00261 5.40449e-20 0.188502)
(7.179 -7.53682e-20 0.127903)
(7.74582 1.24731e-19 0.212336)
(6.86786 2.86267e-21 0.144265)
(7.46447 -1.0153e-19 0.239726)
(6.52867 4.2265e-20 0.163308)
(7.1559 4.29714e-20 0.271229)
(6.15834 -2.46237e-20 0.185501)
(6.81712 0 0.307456)
(5.75354 -2.38553e-20 0.211389)
(6.44483 -1.93383e-19 0.349057)
(5.31074 0 0.241603)
(6.03544 -4.01675e-19 0.396706)
(4.82626 1.16705e-19 0.276892)
(5.58504 -2.18889e-19 0.451067)
(4.29633 -5.34649e-21 0.318175)
(5.08942 5.54212e-19 0.512744)
(3.71703 -1.16764e-19 0.366617)
(4.54387 3.52332e-19 0.582232)
(3.08433 0 0.423735)
(3.94313 -6.00157e-19 0.65981)
(2.39352 -2.67212e-19 0.491681)
(3.28052 0 0.745146)
(1.63878 5.1436e-19 0.574107)
(2.54637 -2.65763e-19 0.83588)
(0.806259 2.40275e-19 0.650998)
(1.70479 7.91193e-19 0.92566)
(0.948526 1.40434e-18 0.926493)
(10.007 -2.46357e-21 0.0407947)
(10.0001 -1.09484e-21 0.0326439)
(9.98512 -4.49447e-20 0.0515772)
(9.9947 -5.71928e-21 0.0476886)
(9.94956 -3.47229e-20 0.0603148)
(9.97124 -4.55814e-20 0.0588534)
(9.90185 4.90215e-21 0.0697142)
(9.93156 5.50513e-20 0.0712509)
(9.84203 4.7104e-23 0.0797)
(9.87978 0 0.0844731)
(9.77025 -1.16674e-20 0.0902827)
(9.81726 4.61662e-23 0.098356)
(9.6865 -2.34979e-20 0.101711)
(9.74379 1.15977e-20 0.113199)
(9.59049 -2.47075e-20 0.114261)
(9.65893 1.02284e-22 0.129364)
(9.48171 -1.92578e-20 0.128184)
(9.56218 -1.26763e-20 0.147183)
(9.35947 -3.54386e-20 0.143733)
(9.45305 -6.69539e-21 0.166974)
(9.22289 5.87844e-21 0.161201)
(9.33089 -1.43601e-20 0.189093)
(9.07089 9.63817e-20 0.18094)
(9.19478 4.77576e-20 0.213975)
(8.90222 5.8593e-20 0.203357)
(9.04362 3.79321e-22 0.242126)
(8.71537 -1.43546e-19 0.228916)
(8.87616 6.97675e-20 0.274121)
(8.50864 -1.37106e-19 0.25815)
(8.69091 -1.37611e-19 0.310627)
(8.28004 1.59769e-19 0.291673)
(8.48619 -1.47176e-19 0.352415)
(8.02733 9.46326e-20 0.330192)
(8.26003 1.45752e-19 0.400376)
(7.74795 -5.89569e-20 0.374515)
(8.01021 2.40352e-19 0.45554)
(7.43903 0 0.425552)
(7.73419 -3.3768e-19 0.51909)
(7.09733 -1.71534e-19 0.4843)
(7.4291 5.79877e-19 0.592354)
(6.71924 -5.74075e-19 0.551832)
(7.09165 -9.1792e-19 0.676793)
(6.3007 -6.17965e-19 0.629286)
(6.71805 -7.90786e-19 0.774003)
(5.83718 2.27969e-19 0.717837)
(6.30398 9.69346e-20 0.885703)
(5.32349 9.09198e-19 0.818729)
(5.84436 -9.77083e-20 1.01371)
(4.75333 -1.37677e-19 0.933394)
(5.33284 1.38269e-18 1.15997)
(4.11863 -5.95508e-19 1.06363)
(4.76117 -1.40784e-18 1.32678)
(3.40718 0 1.21252)
(4.1177 9.73429e-19 1.5173)
(2.5958 0 1.38971)
(3.38403 -7.33292e-19 1.73748)
(1.62915 2.02904e-18 1.65489)
(2.51703 1.95591e-18 2.00536)
(1.55877 1.1436e-20 2.41619)
(10.0001 -4.434e-21 0.0420758)
(9.9979 -2.19478e-21 0.0326124)
(9.98221 -7.08596e-21 0.0582416)
(9.99004 -6.84657e-21 0.0553883)
(9.95045 4.64318e-20 0.072685)
(9.96781 1.04902e-19 0.0730385)
(9.90768 4.89994e-20 0.0881594)
(9.93109 6.99477e-20 0.0911066)
(9.85422 0 0.104742)
(9.8829 -1.04428e-20 0.110258)
(9.79007 2.35272e-20 0.122476)
(9.8246 0 0.130473)
(9.7152 3.49691e-20 0.141683)
(9.7562 2.2561e-23 0.152097)
(9.62937 1.18831e-20 0.162759)
(9.67732 -3.63988e-20 0.175614)
(9.53216 0 0.186092)
(9.58755 7.55973e-20 0.201493)
(9.42299 1.4244e-20 0.212092)
(9.4865 2.65052e-20 0.230194)
(9.30111 2.86928e-20 0.241243)
(9.37364 3.42037e-23 0.262233)
(9.16563 -4.9101e-20 0.274119)
(9.24822 4.20229e-23 0.298232)
(9.01546 1.27528e-20 0.311383)
(9.10935 -1.86375e-19 0.338916)
(8.84933 7.19709e-20 0.353798)
(8.95599 1.96836e-19 0.38511)
(8.66578 -1.47737e-19 0.402253)
(8.78694 1.34996e-19 0.437779)
(8.46311 -1.55927e-19 0.457777)
(8.60084 -1.43102e-19 0.498043)
(8.23939 2.93136e-19 0.521564)
(8.39608 -1.52125e-19 0.567209)
(7.99239 -4.77886e-20 0.595)
(8.17085 3.00353e-19 0.646809)
(7.71954 2.56783e-19 0.679675)
(7.92307 -3.37563e-19 0.738639)
(7.41788 -1.89503e-19 0.777374)
(7.65036 4.92055e-19 0.844768)
(7.08394 -1.13309e-18 0.890101)
(7.34988 -7.48391e-19 0.967554)
(6.71361 -6.43153e-20 1.02009)
(7.01824 -4.84595e-19 1.1097)
(6.30194 -2.29771e-19 1.16983)
(6.65136 4.16623e-19 1.27435)
(5.84276 3.91891e-19 1.34209)
(6.24417 -1.27801e-18 1.46513)
(5.32776 9.42736e-20 1.54042)
(5.7899 1.77558e-18 1.68652)
(4.745 1.68232e-19 1.77018)
(5.27908 -8.06194e-19 1.94456)
(4.07607 2.54939e-19 2.04134)
(4.69824 9.65999e-19 2.24878)
(3.28632 1.17142e-18 2.36946)
(4.0229 -3.04537e-18 2.61901)
(2.36079 -1.70328e-19 2.86391)
(3.26569 5.64755e-18 3.06037)
(2.13662 -3.86682e-18 3.88479)
(9.99538 -4.64998e-21 0.0464244)
(9.99643 0 0.0345435)
(9.97768 1.0765e-19 0.0695726)
(9.98648 -7.71566e-20 0.0630094)
(9.94665 1.2764e-19 0.0907069)
(9.96393 -4.25325e-20 0.0869143)
(9.90469 8.8752e-21 0.112406)
(9.92804 -9.95712e-20 0.110617)
(9.85246 -1.0232e-20 0.135232)
(9.88096 -1.04463e-20 0.135486)
(9.79003 -2.34876e-20 0.159456)
(9.82403 -2.19655e-20 0.161781)
(9.71738 -7.20486e-20 0.185535)
(9.75736 -9.20452e-20 0.189905)
(9.63435 2.94918e-20 0.214)
(9.68069 -4.90186e-20 0.220431)
(9.54064 1.01205e-19 0.24539)
(9.59369 1.51163e-19 0.253947)
(9.43578 1.18197e-20 0.280266)
(9.49605 -5.23902e-20 0.291033)
(9.31921 -2.8611e-20 0.319283)
(9.38735 -1.39526e-20 0.332339)
(9.1902 -1.40567e-19 0.363207)
(9.267 1.43275e-20 0.378645)
(9.04793 4.64069e-21 0.412922)
(9.13428 -1.24006e-19 0.430847)
(8.89141 2.58804e-19 0.469448)
(8.98841 1.24176e-19 0.489977)
(8.71952 1.34788e-19 0.533973)
(8.82845 1.36613e-19 0.557239)
(8.53097 -1.39361e-19 0.607886)
(8.6534 2.65671e-21 0.634038)
(8.32428 -1.37272e-19 0.692815)
(8.46205 -1.39638e-19 0.722015)
(8.09779 0 0.790682)
(8.25309 2.95239e-19 0.823116)
(7.84955 -8.87129e-20 0.903738)
(8.02503 -3.23943e-19 0.939663)
(7.57728 -8.60711e-20 1.03458)
(7.77614 -4.41812e-20 1.07438)
(7.27823 -9.692e-20 1.18624)
(7.50442 6.36563e-19 1.23048)
(6.94898 8.19844e-21 1.3623)
(7.20735 7.43283e-19 1.41175)
(6.58521 -6.507e-19 1.56701)
(6.88179 -7.85923e-19 1.62282)
(6.18124 1.31399e-19 1.80561)
(6.52376 6.45646e-20 1.8694)
(5.7291 8.5902e-19 2.0849)
(6.12784 2.55144e-18 2.15882)
(5.21701 0 2.41481)
(5.68622 -3.43357e-18 2.50111)
(4.62863 -2.28775e-18 2.81378)
(5.18946 -1.07378e-20 2.91061)
(3.92453 1.08642e-18 3.29451)
(4.60311 -2.45039e-19 3.4228)
(3.18194 9.11517e-19 3.97859)
(4.06604 3.54484e-18 3.96225)
(2.79376 -1.96195e-18 5.14208)
(9.99283 -7.4038e-20 0.0516809)
(9.99565 -1.34631e-19 0.0375294)
(9.9746 -2.26578e-19 0.0805259)
(9.9844 -4.63154e-21 0.0708617)
(9.94412 -2.71043e-19 0.107301)
(9.96154 -7.63032e-20 0.100556)
(9.90289 -1.17052e-19 0.134426)
(9.92634 -4.00522e-20 0.129803)
(9.85168 -2.24153e-20 0.16287)
(9.88039 0 0.160246)
(9.79063 -9.19004e-20 0.193124)
(9.82484 -6.54787e-20 0.192425)
(9.71975 -6.81398e-20 0.225735)
(9.75988 2.21993e-20 0.226836)
(9.6389 7.65412e-20 0.261327)
(9.6853 4.72205e-20 0.264125)
(9.54786 -6.29284e-21 0.300541)
(9.60087 1.75872e-19 0.304977)
(9.44626 -7.74994e-20 0.344053)
(9.50633 -1.31107e-19 0.350083)
(9.33362 2.95065e-20 0.392643)
(9.40133 0 0.400216)
(9.20936 2.84795e-20 0.447221)
(9.28538 2.88516e-20 0.456281)
(9.07283 0 0.508831)
(9.15795 0 0.519316)
(8.92329 2.14258e-21 0.578686)
(9.0184 0 0.590513)
(8.75989 2.07162e-21 0.6582)
(8.86605 1.86532e-20 0.671266)
(8.5817 -7.07038e-23 0.749029)
(8.7002 -2.81115e-19 0.763208)
(8.38769 2.99843e-19 0.853128)
(8.51999 5.75318e-19 0.868231)
(8.17671 -3.80857e-20 0.972834)
(8.32454 1.08803e-20 0.988606)
(7.94745 -2.75398e-19 1.11093)
(8.11293 -9.31103e-19 1.12707)
(7.69842 6.87502e-19 1.27071)
(7.8841 7.0773e-19 1.28689)
(7.42786 1.47781e-18 1.45608)
(7.63692 7.23982e-19 1.47194)
(7.13346 -6.74708e-20 1.67184)
(7.36998 1.13845e-19 1.68698)
(6.81228 -6.91628e-20 1.92396)
(7.0815 -7.88728e-19 1.93791)
(6.4604 2.4953e-18 2.22001)
(6.76927 8.98672e-19 2.23225)
(6.07238 -1.73216e-18 2.57002)
(6.43049 1.58167e-18 2.57973)
(5.64016 -3.47147e-18 2.98741)
(6.06075 -3.40596e-18 2.9936)
(5.15711 1.98473e-18 3.49568)
(5.66018 1.60309e-18 3.48851)
(4.57522 1.97786e-18 4.09475)
(5.17137 3.27311e-19 4.12062)
(4.06035 -9.81787e-20 4.88456)
(4.91377 -1.04021e-19 4.67178)
(3.51935 0 6.1347)
(9.99145 -6.27169e-20 0.0573924)
(9.99527 1.38182e-19 0.0410838)
(9.97274 1.44093e-19 0.0913691)
(9.9833 8.15381e-20 0.0789225)
(9.94286 1.55535e-19 0.123582)
(9.96037 1.60893e-19 0.113939)
(9.90262 7.78745e-20 0.156189)
(9.92597 3.99739e-20 0.148548)
(9.8527 -4.43921e-20 0.190326)
(9.88136 -2.09035e-20 0.184405)
(9.79332 5.03891e-20 0.226625)
(9.82748 5.35057e-23 0.222264)
(9.72451 1.38136e-19 0.265707)
(9.76454 -4.43921e-20 0.262732)
(9.64616 1.49036e-19 0.30827)
(9.69242 -9.48782e-20 0.30653)
(9.5581 4.53301e-20 0.355046)
(9.61092 3.25386e-23 0.354421)
(9.46002 -5.1227e-20 0.40682)
(9.51985 5.13624e-20 0.407193)
(9.35156 -1.37873e-22 0.464487)
(9.41893 0 0.465727)
(9.23225 -1.33137e-22 0.529082)
(9.3078 -1.1522e-19 0.531035)
(9.10158 0 0.601785)
(9.18603 8.89406e-20 0.604271)
(8.959 1.6825e-20 0.68397)
(9.05316 0 0.686752)
(8.80392 -2.69454e-19 0.777243)
(8.9087 2.64278e-19 0.780025)
(8.6357 3.07821e-19 0.883469)
(8.75226 -8.30113e-19 0.885905)
(8.45368 2.78041e-19 1.00484)
(8.58329 8.59814e-19 1.00648)
(8.25717 -8.96223e-19 1.14402)
(8.40119 -8.98999e-19 1.14424)
(8.04546 7.41261e-20 1.3042)
(8.20559 -4.41054e-20 1.30226)
(7.81779 7.45042e-19 1.48922)
(7.99608 6.64203e-19 1.48416)
(7.57342 -6.43544e-19 1.7037)
(7.77237 4.59225e-20 1.69438)
(7.31135 -6.18982e-19 1.95342)
(7.53416 -7.21526e-19 1.93838)
(7.03037 1.91505e-19 2.24564)
(7.2812 1.85031e-19 2.22299)
(6.72905 -2.88141e-21 2.58972)
(7.01336 1.23318e-21 2.55697)
(6.40572 -9.83501e-20 2.99775)
(6.73097 -9.45524e-20 2.95156)
(6.05734 1.59269e-18 3.48446)
(6.4333 0 3.42191)
(5.69028 -4.3052e-20 4.07539)
(6.13412 1.15402e-19 3.97807)
(5.24256 -1.72487e-18 4.75212)
(5.73709 -2.17329e-19 4.70645)
(4.93744 0 5.56743)
(5.76973 0 5.20091)
(4.27321 0 6.87208)
(9.99079 2.81404e-19 0.0633627)
(9.99515 1.39107e-19 0.0449111)
(9.97189 1.00062e-19 0.102135)
(9.98288 -1.25431e-19 0.0870664)
(9.9427 4.27126e-20 0.139514)
(9.96013 -1.85697e-20 0.127025)
(9.90365 -6.01064e-20 0.177405)
(9.92667 5.86804e-20 0.166755)
(9.8553 2.3994e-20 0.217001)
(9.88358 -6.18528e-20 0.207831)
(9.79791 -9.56583e-20 0.259054)
(9.83164 2.16343e-19 0.251144)
(9.73152 -2.78518e-19 0.304282)
(9.77105 -9.03259e-20 0.297415)
(9.65608 -2.42185e-19 0.353462)
(9.70175 -2.36854e-19 0.347435)
(9.57144 6.99017e-21 0.407409)
(9.6236 -1.00398e-19 0.402034)
(9.47739 1.01737e-19 0.467006)
(9.53647 -1.8855e-22 0.462086)
(9.37364 -1.1712e-19 0.53325)
(9.44015 -1.26677e-21 0.528563)
(9.25985 -2.26257e-20 0.607276)
(9.33439 2.61307e-20 0.602567)
(9.13566 8.74914e-20 0.690371)
(9.21889 2.39078e-19 0.685341)
(9.0007 2.51821e-19 0.784021)
(9.09336 -2.45272e-19 0.7783)
(8.85462 -3.13803e-19 0.889985)
(8.95747 2.00429e-20 0.883092)
(8.69707 -2.52072e-19 1.01031)
(8.81115 -2.81518e-19 1.00169)
(8.52763 -3.43524e-19 1.14736)
(8.65416 5.68585e-19 1.13638)
(8.34603 -3.60887e-20 1.30401)
(8.48612 -1.48845e-18 1.28979)
(8.15212 5.55708e-19 1.48374)
(8.30717 1.18913e-18 1.46515)
(7.94589 -4.25788e-20 1.69078)
(8.11749 6.39456e-19 1.66637)
(7.7275 -4.1656e-20 1.93026)
(7.91755 -6.54053e-19 1.89824)
(7.49731 9.04461e-20 2.20861)
(7.70814 4.19478e-20 2.16669)
(7.25596 -5.47268e-21 2.53392)
(7.4905 1.28773e-21 2.47913)
(7.00467 -9.11382e-20 2.91651)
(7.26657 -9.40657e-20 2.84494)
(6.74579 2.99207e-21 3.36944)
(7.03981 8.87046e-20 3.27591)
(6.48094 -1.45554e-18 3.90629)
(6.81226 1.44939e-18 3.78815)
(6.22935 -1.57524e-20 4.55307)
(6.61432 -2.84825e-18 4.3823)
(5.91271 1.48586e-18 5.27323)
(6.29768 1.42223e-18 5.18539)
(5.77115 0 6.05977)
(6.5986 0 5.58214)
(5.01914 0 7.39493)
(9.99055 -2.73073e-19 0.069423)
(9.99517 3.21798e-21 0.0488367)
(9.97175 -2.41821e-19 0.112736)
(9.9829 4.17292e-21 0.0951715)
(9.94337 -9.56172e-22 0.154996)
(9.96057 -1.03608e-19 0.139765)
(9.90567 5.44769e-20 0.197928)
(9.9282 1.98752e-20 0.184354)
(9.85912 1.36094e-19 0.242743)
(9.88679 1.65796e-23 0.230418)
(9.80399 2.15722e-19 0.290297)
(9.83701 1.29728e-19 0.278935)
(9.74035 -5.13932e-20 0.341393)
(9.77904 1.34853e-19 0.330724)
(9.66818 -9.24566e-20 0.396876)
(9.71289 -3.90411e-22 0.386644)
(9.5874 -1.05719e-19 0.457633)
(9.63848 9.76016e-20 0.447587)
(9.49786 -1.03276e-19 0.524625)
(9.55572 -1.0391e-19 0.514497)
(9.39937 1.42584e-19 0.598929)
(9.46448 -1.26802e-21 0.588419)
(9.2917 2.91618e-19 0.681759)
(9.36462 4.2195e-19 0.670525)
(9.17465 -1.01679e-19 0.774489)
(9.25599 -1.39468e-19 0.762132)
(9.04798 -4.73069e-19 0.878683)
(9.13845 -4.9036e-19 0.864735)
(8.9116 4.73353e-20 0.996195)
(9.01184 2.3753e-20 0.980023)
(8.76548 5.52313e-19 1.12924)
(8.87629 2.67941e-19 1.11006)
(8.60952 -6.05307e-19 1.28037)
(8.73195 8.39098e-19 1.25734)
(8.44372 -2.29057e-19 1.45255)
(8.57887 -2.01997e-18 1.42463)
(8.26848 1.26563e-18 1.64938)
(8.41744 1.80616e-18 1.61517)
(8.08445 1.64221e-20 1.87533)
(8.24843 2.75348e-20 1.833)
(7.89264 -5.64211e-19 2.13588)
(8.07299 -6.14055e-19 2.08314)
(7.69466 -4.68903e-20 2.43779)
(7.89289 1.30245e-18 2.37175)
(7.49293 -8.77431e-20 2.7895)
(7.71073 -1.41143e-18 2.70647)
(7.29115 8.49431e-20 3.2015)
(7.53033 -1.29833e-18 3.09678)
(7.09529 1.51912e-18 3.68691)
(7.35799 9.97978e-20 3.55414)
(6.9103 1.73545e-19 4.25698)
(7.19687 4.0096e-18 4.09553)
(6.76661 -1.41266e-18 4.9367)
(7.096 -1.41728e-18 4.70839)
(6.57102 0 5.67574)
(6.84839 -1.16622e-18 5.5676)
(6.54133 0 6.40934)
(7.3793 0 5.85272)
(5.73462 0 7.75582)
(9.99056 2.80588e-19 0.0754538)
(9.99527 3.22901e-22 0.0527587)
(9.9721 1.40089e-19 0.123093)
(9.98321 1.43298e-19 0.103135)
(9.94466 -8.01518e-20 0.169962)
(9.96152 -1.48655e-19 0.152097)
(9.90847 -3.50343e-20 0.217683)
(9.9304 -7.8508e-20 0.201278)
(9.86391 -3.80584e-21 0.267464)
(9.89083 4.10052e-20 0.252077)
(9.81127 4.88538e-20 0.320238)
(9.84338 8.44944e-20 0.305524)
(9.75066 1.83394e-19 0.376884)
(9.78826 -4.39536e-20 0.362518)
(9.68211 1.91591e-19 0.43831)
(9.72554 9.39197e-20 0.423982)
(9.60558 9.59207e-20 0.505463)
(9.65519 -9.6216e-20 0.490871)
(9.52098 0 0.579369)
(9.57716 1.01723e-19 0.564186)
(9.42822 2.85356e-19 0.661165)
(9.49143 -3.17444e-19 0.645023)
(9.32721 -1.84997e-20 0.752124)
(9.39795 4.99967e-19 0.734597)
(9.21788 -5.34101e-19 0.853688)
(9.29672 -1.75146e-19 0.834279)
(9.10018 1.44758e-20 0.967483)
(9.18776 -2.45122e-19 0.945631)
(8.97416 2.48276e-19 1.0954)
(9.07118 2.20795e-19 1.07039)
(8.84007 5.62694e-19 1.23975)
(8.94707 5.21451e-19 1.21062)
(8.69826 -6.12704e-19 1.40323)
(8.81593 2.00952e-20 1.3689)
(8.54912 6.07669e-20 1.5889)
(8.67843 -1.11219e-18 1.54814)
(8.39342 5.50651e-19 1.80039)
(8.53524 1.18968e-18 1.75161)
(8.23239 -6.08705e-19 2.04224)
(8.38757 -1.20931e-18 1.9834)
(8.06784 1.26629e-18 2.32006)
(8.23722 -4.21423e-20 2.24852)
(7.90249 -6.51242e-20 2.64069)
(8.08683 -6.42282e-19 2.55315)
(7.74028 -2.6187e-18 3.01256)
(7.94017 -6.21916e-20 2.90488)
(7.58697 -1.30228e-18 3.4458)
(7.8026 -1.33565e-18 3.31301)
(7.45151 2.53856e-18 3.95293)
(7.68282 1.67616e-19 3.78815)
(7.34076 2.63679e-18 4.54262)
(7.58348 2.55764e-18 4.34824)
(7.29353 -1.37334e-18 5.23822)
(7.57281 -4.6525e-20 4.96567)
(7.20772 -1.21341e-18 5.98167)
(7.38579 -1.15709e-18 5.86542)
(7.24456 0 6.66053)
(8.10438 0 6.04732)
(6.40974 4.11069e-19 8.00296)
(9.99074 -1.34275e-19 0.0813666)
(9.99544 -1.4551e-19 0.0566032)
(9.97284 -1.51984e-19 0.133128)
(9.98375 -1.32413e-19 0.110866)
(9.94651 -1.45547e-19 0.18435)
(9.96289 -4.22459e-22 0.163952)
(9.91196 0 0.236598)
(9.9332 1.15747e-19 0.217458)
(9.86956 1.30234e-19 0.291074)
(9.89562 -2.07682e-22 0.272728)
(9.81959 -1.07905e-20 0.348763)
(9.85069 8.52133e-20 0.330818)
(9.76223 -1.31013e-19 0.410609)
(9.79862 -1.33554e-19 0.392686)
(9.69755 -1.9749e-19 0.477582)
(9.73955 -1.84254e-19 0.459316)
(9.62557 -8.70579e-20 0.550689)
(9.6735 -9.79091e-20 0.531722)
(9.54628 -2.2298e-19 0.631)
(9.60051 1.0184e-19 0.610952)
(9.45967 -8.95031e-20 0.719689)
(9.52064 -2.13878e-19 0.698129)
(9.36579 3.32533e-19 0.818064)
(9.43396 1.11224e-19 0.794496)
(9.26474 1.13139e-19 0.927611)
(9.34059 2.85576e-19 0.901449)
(9.15667 -3.1786e-20 1.05001)
(9.24071 -1.75496e-19 1.02058)
(9.04175 4.98181e-19 1.18718)
(9.13468 -3.13478e-20 1.15372)
(8.92034 -2.70139e-20 1.34143)
(9.02266 5.22143e-19 1.30291)
(8.79318 -4.93865e-19 1.5155)
(8.90532 -8.12698e-21 1.47067)
(8.6612 4.34419e-20 1.71253)
(8.78382 -1.08467e-18 1.65994)
(8.52554 -5.94272e-19 1.93619)
(8.65924 5.65657e-19 1.87408)
(8.38799 -6.35319e-19 2.19097)
(8.53325 4.84245e-20 2.11712)
(8.25107 -1.95436e-18 2.48237)
(8.40826 -5.86846e-19 2.39395)
(8.1184 -6.44124e-19 2.81713)
(8.28761 -1.86466e-18 2.71061)
(7.9952 1.22111e-18 3.20343)
(8.17603 1.25909e-18 3.07445)
(7.88878 1.11095e-19 3.65079)
(8.08009 -1.85699e-19 3.49442)
(7.81025 1.54779e-19 4.17097)
(8.01052 2.87495e-19 3.98014)
(7.76775 0 4.76987)
(7.96831 0 4.55055)
(7.80416 0 5.47029)
(8.03951 0 5.16402)
(7.82003 0 6.21169)
(7.90883 -1.70117e-18 6.0902)
(7.8874 4.56863e-19 6.84989)
(8.77593 3.1104e-18 6.19592)
(7.04486 -1.4526e-18 8.17757)
(9.99106 -1.43337e-19 0.0870878)
(9.99565 -1.69638e-20 0.0603155)
(9.9739 2.20938e-20 0.142765)
(9.98446 1.72433e-20 0.11829)
(9.94883 2.6348e-19 0.198088)
(9.96461 1.54458e-21 0.175257)
(9.9161 1.13226e-19 0.254599)
(9.93652 -3.83324e-20 0.232821)
(9.87604 -4.35916e-20 0.31349)
(9.90113 -1.20279e-19 0.292286)
(9.82894 -4.17597e-20 0.375781)
(9.85892 -8.44147e-20 0.354718)
(9.77504 -1.87732e-19 0.442469)
(9.81015 -8.77906e-20 0.42112)
(9.71445 -8.31198e-20 0.514579)
(9.75497 -9.36568e-20 0.49253)
(9.64727 9.45828e-20 0.593165)
(9.69348 2.86286e-19 0.570009)
(9.57358 1.05747e-19 0.679325)
(9.62578 0 0.654631)
(9.49348 -7.68946e-21 0.774254)
(9.55205 7.17482e-22 0.747536)
(9.40713 6.67735e-20 0.879279)
(9.47248 -8.30339e-22 0.849982)
(9.31476 -9.91916e-21 0.9959)
(9.3873 1.70875e-19 0.963376)
(9.2167 -1.73135e-19 1.12584)
(9.29683 -2.33831e-19 1.08933)
(9.11332 0 1.27107)
(9.20158 -5.94856e-20 1.2297)
(9.00515 5.34683e-19 1.43382)
(9.10198 -4.97631e-19 1.38655)
(8.89316 -6.09625e-19 1.6168)
(8.99891 1.5516e-18 1.56227)
(8.77866 -5.47872e-19 1.82312)
(8.89374 -1.64586e-18 1.75974)
(8.6633 1.20436e-18 2.05646)
(8.78798 6.2437e-19 1.9823)
(8.54937 9.42142e-20 2.32118)
(8.68377 5.7743e-19 2.23388)
(8.44001 -5.07733e-19 2.62258)
(8.58402 -1.66964e-18 2.51924)
(8.3396 3.76212e-20 2.96716)
(8.4927 -1.09341e-18 2.84413)
(8.25437 -1.44973e-19 3.36266)
(8.41534 0 3.21553)
(8.19278 -1.27389e-20 3.818)
(8.35936 -3.98447e-21 3.64197)
(8.16745 1.38071e-19 4.3442)
(8.33727 3.84958e-19 4.13207)
(8.18771 0 4.94495)
(8.34818 0 4.70597)
(8.29526 -1.63074e-18 5.64453)
(8.49234 0 5.31264)
(8.41074 -2.49873e-19 6.38136)
(8.41906 5.08409e-19 6.24972)
(8.48231 5.76226e-19 7.00837)
(9.39988 -9.28561e-19 6.32492)
(7.65678 8.13596e-19 8.31349)
(9.99147 1.44484e-19 0.0925605)
(9.99589 -2.76766e-19 0.0638586)
(9.97519 -3.66684e-21 0.151933)
(9.98529 1.49845e-19 0.125344)
(9.95155 -3.01318e-19 0.211096)
(9.96658 -4.69032e-22 0.185939)
(9.92083 -2.73656e-19 0.271593)
(9.94026 -4.0101e-20 0.247279)
(9.88333 -1.6046e-19 0.334601)
(9.90723 7.94995e-20 0.310644)
(9.83937 -1.3055e-19 0.401165)
(9.86796 -2.9126e-19 0.377097)
(9.7892 6.25704e-21 0.472327)
(9.82271 -1.43254e-21 0.447678)
(9.73298 2.82674e-19 0.549156)
(9.77167 9.0904e-20 0.523477)
(9.67085 1.8687e-19 0.632732)
(9.71496 1.9023e-19 0.605587)
(9.60299 -1.05114e-19 0.724164)
(9.65279 -1.96235e-19 0.69508)
(9.52964 7.49045e-21 0.824653)
(9.58543 3.02796e-19 0.793095)
(9.45106 1.05972e-19 0.935542)
(9.51318 -1.02359e-19 0.900899)
(9.36762 -5.89154e-20 1.05834)
(9.4364 -1.08813e-19 1.0199)
(9.27975 -1.17637e-19 1.19478)
(9.35553 5.4509e-20 1.15172)
(9.18807 -5.63191e-19 1.34682)
(9.27121 4.69745e-19 1.2982)
(9.09338 5.42771e-19 1.51665)
(9.1842 -9.80295e-19 1.46135)
(8.99684 4.83583e-19 1.70684)
(9.09556 1.0251e-18 1.64346)
(8.90004 -4.52932e-19 1.92043)
(9.00684 -5.25879e-19 1.84729)
(8.80504 -3.80922e-21 2.16099)
(8.91992 1.10408e-21 2.07609)
(8.71456 -1.19769e-18 2.43274)
(8.8373 -6.99213e-20 2.33363)
(8.6323 -2.26109e-18 2.74075)
(8.76235 -2.06263e-18 2.62445)
(8.5633 -1.1341e-18 3.09107)
(8.69959 -2.21029e-18 2.95394)
(8.51453 1.40378e-19 3.49102)
(8.65517 0 3.32863)
(8.49538 3.90729e-19 3.94894)
(8.63717 1.41566e-19 3.75663)
(8.51945 2.56139e-19 4.47526)
(8.65961 -2.56231e-19 4.24577)
(8.59811 0 5.07312)
(8.7204 0 4.81719)
(8.76636 2.11522e-18 5.76983)
(8.92875 0 5.41754)
(8.98446 -1.59861e-19 6.49973)
(8.92049 1.51938e-18 6.34518)
(9.05577 2.34527e-18 7.1652)
(9.98136 -4.85921e-18 6.45303)
(8.28809 3.43749e-18 8.43443)
(9.99195 -2.63146e-19 0.0977434)
(9.99616 7.59793e-21 0.0672061)
(9.97665 1.49791e-19 0.160575)
(9.98621 -8.67992e-21 0.131986)
(9.95456 2.6015e-19 0.223302)
(9.96875 1.71923e-21 0.195947)
(9.92598 3.15729e-19 0.287486)
(9.94431 1.13605e-19 0.260769)
(9.89121 -5.84385e-20 0.354294)
(9.91378 1.99882e-19 0.327721)
(9.85057 -1.56754e-19 0.424784)
(9.87758 8.0222e-20 0.397862)
(9.80432 8.49639e-20 0.500038)
(9.83599 8.65729e-20 0.472262)
(9.75267 0 0.581163)
(9.78922 -8.96452e-20 0.552053)
(9.69581 -1.99663e-19 0.669246)
(9.73747 1.85815e-19 0.638338)
(9.63401 2.19857e-19 0.765382)
(9.68101 -4.86385e-19 0.732175)
(9.5676 1.87054e-19 0.870772)
(9.6202 6.06564e-19 0.834683)
(9.49699 -3.1766e-19 0.986759)
(9.55546 -2.10428e-19 0.947133)
(9.42263 6.91964e-21 1.11485)
(9.48724 2.14642e-19 1.07093)
(9.34514 6.48037e-19 1.25676)
(9.41611 -4.42959e-19 1.20766)
(9.26529 3.61808e-20 1.41437)
(9.34287 6.44979e-19 1.35911)
(9.18414 -4.76914e-19 1.58979)
(9.26849 -4.82813e-19 1.52721)
(9.10307 0 1.78547)
(9.19426 4.85048e-19 1.71414)
(9.0239 -6.65208e-20 2.00435)
(9.12188 -4.93929e-19 1.92254)
(8.94902 -6.55939e-20 2.24981)
(9.05353 -5.70098e-19 2.15548)
(8.88156 -9.42935e-19 2.52583)
(8.99206 1.27176e-18 2.4165)
(8.82562 -2.02393e-18 2.83717)
(8.94119 -1.58466e-18 2.70983)
(8.78681 -1.08207e-18 3.18942)
(8.90588 -1.08038e-18 3.04049)
(8.77267 0 3.58941)
(8.89277 0 3.41449)
(8.79335 -4.97987e-19 4.04496)
(8.91052 0 3.83941)
(8.86314 -5.18293e-19 4.56626)
(8.97434 8.26786e-19 4.32256)
(8.99683 0 5.15724)
(9.08235 -1.65021e-18 4.88487)
(9.21896 -6.67308e-19 5.84874)
(9.34632 1.45204e-18 5.47853)
(9.54271 -1.6058e-18 6.56933)
(9.41647 -7.00848e-19 6.3715)
(9.65323 2.54733e-18 7.33451)
(10.5238 -1.28505e-18 6.57764)
(8.99334 2.09679e-18 8.56136)
(9.99248 2.61871e-19 0.102605)
(9.99645 2.76263e-19 0.0703349)
(9.97825 -1.56657e-19 0.168648)
(9.98721 -8.687e-21 0.138179)
(9.95779 -1.42661e-19 0.234659)
(9.97108 -4.8414e-22 0.20524)
(9.93144 -6.65091e-22 0.302221)
(9.9486 -1.51636e-19 0.273247)
(9.89951 3.36411e-19 0.372501)
(9.92065 -1.17278e-19 0.343467)
(9.86229 3.24014e-19 0.446568)
(9.88762 4.43868e-20 0.416964)
(9.82006 -9.12996e-20 0.525532)
(9.84976 -8.48716e-20 0.494826)
(9.77308 1.00923e-19 0.610518)
(9.80735 -2.17553e-21 0.578202)
(9.72161 -1.11871e-19 0.702605)
(9.76066 2.77656e-19 0.668192)
(9.66603 -8.2743e-20 0.802866)
(9.71006 -9.91804e-20 0.765824)
(9.60675 1.96741e-19 0.912488)
(9.65594 3.10725e-21 0.872201)
(9.54426 3.28555e-19 1.0328)
(9.59887 -1.03268e-19 0.988587)
(9.47912 -2.44e-19 1.16528)
(9.53935 5.34662e-19 1.11635)
(9.4121 -4.33677e-19 1.31159)
(9.478 -7.75251e-19 1.25704)
(9.34415 1.13328e-19 1.47353)
(9.41585 4.50998e-19 1.41234)
(9.27651 4.90672e-19 1.6531)
(9.35406 5.75041e-19 1.58409)
(9.21075 -1.62313e-20 1.85263)
(9.29406 -3.3808e-19 1.77436)
(9.14892 -9.99493e-19 2.07487)
(9.23773 -1.61628e-20 1.98559)
(9.09368 7.75983e-19 2.32297)
(9.18748 -1.95657e-20 2.22063)
(9.04849 6.27742e-19 2.60061)
(9.14643 5.369e-19 2.48274)
(9.0178 -6.44876e-19 2.9122)
(9.1186 -8.87447e-19 2.77582)
(9.00761 0 3.26284)
(9.1093 0 3.10441)
(9.02599 0 3.65872)
(9.12556 -4.65414e-19 3.47389)
(9.08369 1.31524e-18 4.1072)
(9.17652 0 3.89115)
(9.19556 -2.44225e-19 4.61807)
(9.27821 9.10981e-19 4.36289)
(9.3807 -3.78731e-19 5.19663)
(9.43046 -1.66628e-18 4.90795)
(9.65367 1.51982e-18 5.87547)
(9.74112 -1.08132e-18 5.49015)
(10.0811 -3.60019e-19 6.58305)
(9.90406 5.64512e-19 6.32089)
(10.3166 2.37266e-18 7.50367)
(11.0283 -8.59747e-19 6.66239)
(9.80949 9.84457e-19 8.71909)
(9.99305 0 0.107116)
(9.99675 0 0.0732276)
(9.97996 1.47773e-19 0.17612)
(9.98828 0 0.143895)
(9.96121 -1.25367e-20 0.24513)
(9.97354 -1.56419e-19 0.213793)
(9.93716 -2.67682e-19 0.315762)
(9.95308 -1.18688e-19 0.284686)
(9.90812 -4.06573e-19 0.389189)
(9.92778 2.79008e-20 0.357854)
(9.8744 -3.67288e-19 0.466494)
(9.89799 -1.3808e-19 0.434373)
(9.83626 5.74745e-21 0.548793)
(9.86395 -8.6593e-20 0.51534)
(9.79404 1.79326e-19 0.637206)
(9.826 -7.64383e-20 0.601892)
(9.74808 2.84483e-19 0.73279)
(9.78449 -7.72441e-20 0.695106)
(9.69884 -1.15446e-20 0.836588)
(9.73988 3.73052e-19 0.795982)
(9.64681 -2.98942e-19 0.949777)
(9.69259 -3.84049e-19 0.905595)
(9.59256 1.11364e-19 1.07367)
(9.64327 -5.79708e-19 1.02521)
(9.53671 -1.34532e-20 1.20968)
(9.59251 4.10007e-19 1.15617)
(9.48012 1.24342e-19 1.35939)
(9.541 -2.22958e-19 1.29992)
(9.42395 9.14856e-19 1.5245)
(9.48995 -7.06616e-20 1.45803)
(9.36963 -2.62046e-19 1.70688)
(9.44066 4.79783e-19 1.6322)
(9.31886 -3.3646e-19 1.9087)
(9.39471 -3.06259e-19 1.82439)
(9.27388 9.66604e-19 2.1325)
(9.35412 4.89935e-19 2.03684)
(9.23757 -2.56413e-19 2.38112)
(9.32147 4.97126e-19 2.2721)
(9.2136 -9.8198e-19 2.65793)
(9.30005 -3.13625e-19 2.53315)
(9.20674 -2.42957e-19 2.96688)
(9.29416 -2.49151e-19 2.82342)
(9.2233 -4.63678e-19 3.31248)
(9.3093 0 3.14689)
(9.27168 -4.72235e-19 3.7002)
(9.35282 -4.76821e-20 3.50821)
(9.3632 -4.24964e-19 4.13663)
(9.43418 -7.83333e-19 3.91326)
(9.513 -4.45135e-19 4.63045)
(9.56968 -4.0354e-19 4.36773)
(9.74432 -2.46305e-18 5.18833)
(9.76182 1.32804e-18 4.88647)
(10.0665 -1.98844e-18 5.83905)
(10.1086 -1.96798e-18 5.44587)
(10.5867 8.78778e-20 6.52084)
(10.3702 2.06204e-19 6.18404)
(11.0561 -2.08904e-18 7.62999)
(11.5316 -4.148e-19 6.60217)
(11.5497 -1.0969e-18 8.72974)
(0.0672892 -4.70214e-20 -0.0562198)
(0.042391 1.68928e-20 -0.0478068)
(0.200503 -5.67515e-20 -0.0570415)
(0.101163 8.11328e-21 -0.0731537)
(0.379994 -4.92469e-20 -0.0459752)
(0.267358 -3.3629e-20 -0.0695943)
(0.598707 -2.32936e-20 -0.0381519)
(0.48233 -5.24165e-20 -0.0663586)
(0.815215 0 -0.0338216)
(0.714843 0 -0.062375)
(1.0012 0 -0.0315413)
(0.923477 0 -0.0589626)
(1.15833 0 -0.0302556)
(1.09956 0 -0.0568749)
(1.29507 0 -0.0294787)
(1.24775 0 -0.0553838)
(1.41681 0 -0.0287276)
(1.37411 0 -0.0538205)
(1.52578 1.16295e-20 -0.0276751)
(1.4837 0 -0.051652)
(1.62307 1.15053e-20 -0.0263084)
(1.57944 -1.03451e-20 -0.0488404)
(1.70984 -1.38934e-21 -0.0246989)
(1.66302 0 -0.045682)
(1.78709 -5.76709e-23 -0.0228098)
(1.73612 -1.39805e-21 -0.0423363)
(1.85511 7.19705e-22 -0.0204756)
(1.79977 1.21e-20 -0.038612)
(1.91322 -3.3563e-23 -0.017639)
(1.85446 -3.2063e-21 -0.0340273)
(1.96081 6.33929e-22 -0.0145857)
(1.89977 -4.36847e-21 -0.0286788)
(1.99864 4.95881e-21 -0.0116692)
(1.93527 -2.39451e-21 -0.0234395)
(2.02831 4.46269e-21 -0.00892294)
(1.96199 1.87593e-21 -0.0188997)
(2.05073 -5.28944e-22 -0.00628193)
(1.98177 -1.58174e-21 -0.014711)
(2.06633 0 -0.0041427)
(1.99543 7.47464e-21 -0.0106299)
(2.077 -1.67356e-22 -0.00334495)
(2.00274 -6.68744e-21 -0.0076209)
(2.08715 1.31686e-23 -0.00443038)
(2.00476 -1.68077e-22 -0.00746431)
(2.10232 1.65672e-22 -0.00711359)
(2.0053 -4.74874e-21 -0.0110256)
(2.12656 -1.52313e-21 -0.0107209)
(2.00946 0 -0.0174855)
(2.16164 -1.52999e-21 -0.0151532)
(2.0209 -4.80998e-23 -0.0254033)
(2.20888 0 -0.021373)
(2.0409 -2.17771e-21 -0.0345302)
(2.27164 3.71114e-22 -0.0308566)
(2.07033 1.3823e-21 -0.0464266)
(2.35603 3.51572e-22 -0.044049)
(2.11264 -8.01304e-22 -0.0632556)
(2.46747 -7.74437e-24 -0.0575178)
(2.17555 -2.1249e-23 -0.0848878)
(2.2959 1.10121e-22 -0.10241)
(0.033618 6.0292e-20 -0.0875123)
(0.0213749 7.23298e-22 -0.0820599)
(0.149856 5.24467e-20 -0.113128)
(0.0359148 1.04377e-19 -0.135418)
(0.35144 -2.25105e-20 -0.109407)
(0.204448 -6.39329e-24 -0.144036)
(0.60109 -2.33497e-20 -0.103899)
(0.4199 -2.66056e-20 -0.140003)
(0.841176 0 -0.0983954)
(0.650855 2.58628e-20 -0.131496)
(1.0398 0 -0.093715)
(0.852116 3.14781e-20 -0.123405)
(1.20049 0 -0.0897954)
(1.01418 4.63528e-21 -0.117607)
(1.33318 0 -0.0862463)
(1.14256 2.05379e-20 -0.112765)
(1.44474 0 -0.0824488)
(1.24423 2.53239e-22 -0.107826)
(1.53965 -2.2923e-20 -0.0780089)
(1.32541 0 -0.102291)
(1.62082 -2.26767e-20 -0.0730189)
(1.3909 -1.09199e-21 -0.0959179)
(1.6901 0 -0.0677994)
(1.44318 -1.65903e-20 -0.0889507)
(1.74934 1.07771e-20 -0.0623907)