/*--------------------------------*- C++ -*----------------------------------*\
| =========                 |                                                 |
| \\      /  F ield         | OpenFOAM: The Open Source CFD Toolbox           |
|  \\    /   O peration     | Version:  dev                                   |
|   \\  /    A nd           | Web:      www.OpenFOAM.org                      |
|    \\/     M anipulation  |                                                 |
\*---------------------------------------------------------------------------*/
FoamFile
{
    version     2.0;
    format      ascii;
    class       surfaceScalarField;
    location    "2.8";
    object      phi;
}
// * * * * * * * * * * * * * * * * * * * * * * * * * * * * * * * * * * * * * //

dimensions      [0 3 -1 0 0 0 0];

internalField   nonuniform List<scalar> 
881
(
0.197887
0.00208928
0.195576
0.00228872
0.193026
0.00253007
0.190198
0.00281071
0.187097
0.00308579
0.183736
0.00335029
0.180116
0.00361276
0.176234
0.0038811
0.17208
0.00415872
0.167642
0.00444905
0.162902
0.0047544
0.157842
0.00507791
0.152439
0.00542321
0.146667
0.00579268
0.140498
0.00618874
0.133902
0.0066137
0.126846
0.00706993
0.1193
0.00755743
0.111233
0.00807456
0.102617
0.00862015
0.00919011
0.199672
0.00239323
0.198671
0.00326779
0.197304
0.00387701
0.19561
0.0044873
0.193596
0.00508516
0.19127
0.00566461
0.188636
0.00623966
0.185693
0.00682323
0.182434
0.00742291
0.178846
0.00804648
0.174917
0.0086981
0.170629
0.00938438
0.165959
0.0101137
0.160882
0.0108907
0.15537
0.0117207
0.149392
0.0126086
0.142917
0.0135596
0.135908
0.014578
0.128329
0.0156615
0.120146
0.0168077
0.0180126
0.199529
0.00284094
0.198602
0.0041728
0.197311
0.00514832
0.195718
0.00606212
0.193839
0.00694863
0.191679
0.00781297
0.18924
0.00867231
0.186521
0.00954047
0.183519
0.0104297
0.180224
0.0113514
0.176623
0.0123137
0.172698
0.013327
0.16843
0.014402
0.163796
0.0155466
0.158767
0.0167695
0.153314
0.0180796
0.147403
0.0194857
0.140995
0.020997
0.13405
0.0226152
0.126522
0.0243403
0.026174
0.199437
0.00338017
0.198515
0.00507371
0.19724
0.00640305
0.195666
0.0076185
0.193813
0.00878575
0.191689
0.00992537
0.189296
0.0110578
0.186637
0.0121984
0.183708
0.0133628
0.180504
0.0145644
0.177014
0.0158188
0.17322
0.0171393
0.169106
0.0185356
0.164654
0.02002
0.159839
0.0216051
0.154633
0.0233037
0.149004
0.0251297
0.142917
0.0270959
0.136326
0.0292147
0.12918
0.0314919
0.0339368
0.199392
0.00396531
0.198461
0.00598302
0.1972
0.00764427
0.195644
0.00915592
0.193816
0.0105989
0.191721
0.012008
0.189364
0.0134069
0.186747
0.0148138
0.183866
0.0162473
0.180716
0.0177237
0.177286
0.0192631
0.173562
0.0208811
0.169529
0.0225888
0.165169
0.024402
0.160458
0.0263368
0.155369
0.0284106
0.149872
0.0306422
0.143931
0.0330501
0.137499
0.0356555
0.130519
0.0384777
0.041538
0.19937
0.00457271
0.198433
0.00689856
0.197188
0.00887005
0.195657
0.0106686
0.193858
0.0123816
0.191799
0.0140546
0.189484
0.0157139
0.186913
0.017382
0.184083
0.01908
0.180988
0.020828
0.177617
0.0226484
0.173956
0.024559
0.169991
0.0265745
0.165701
0.0287135
0.161063
0.0309959
0.156048
0.0334441
0.150625
0.0360818
0.144749
0.0389393
0.138372
0.0420411
0.131435
0.0454219
0.0491269
0.199362
0.00518861
0.198427
0.00781245
0.197201
0.0100764
0.195698
0.0121531
0.193933
0.0141306
0.191915
0.0160598
0.189648
0.0179721
0.187131
0.0198953
0.184362
0.0218523
0.181332
0.0238662
0.178029
0.0259639
0.17444
0.0281656
0.170548
0.0304869
0.166332
0.0329511
0.161766
0.035583
0.156818
0.0384116
0.15145
0.0414661
0.145619
0.044784
0.13927
0.0484009
0.132323
0.0523752
0.0567757
0.199362
0.00580462
0.198436
0.00871766
0.197234
0.0112593
0.195764
0.0136043
0.194041
0.0158374
0.192074
0.0180137
0.189864
0.0201723
0.187412
0.022344
0.184711
0.0245542
0.181755
0.0268301
0.17853
0.0292015
0.175023
0.0316896
0.171216
0.0343138
0.167086
0.0371025
0.162605
0.0400856
0.157734
0.043302
0.152428
0.0467895
0.146643
0.0505836
0.140315
0.0547395
0.133359
0.0593393
0.0644703
0.199368
0.00641582
0.198456
0.00960903
0.197282
0.0124141
0.195853
0.0150147
0.194181
0.0174932
0.192271
0.0199092
0.190126
0.0223073
0.187746
0.0247196
0.185124
0.0271762
0.182252
0.0297096
0.179116
0.0323492
0.175705
0.035117
0.171998
0.0380396
0.167971
0.0411509
0.163589
0.0444891
0.158813
0.0480977
0.153602
0.0520188
0.147894
0.0563069
0.141608
0.0610372
0.134664
0.0662922
0.0721804
0.199377
0.00701829
0.198485
0.010481
0.197346
0.013534
0.195965
0.0163778
0.194347
0.0190942
0.192499
0.0217426
0.190425
0.0243702
0.188125
0.0270137
0.185593
0.0297082
0.182817
0.0324909
0.179786
0.0353913
0.176487
0.0384317
0.172899
0.0416465
0.168995
0.045076
0.164734
0.0487708
0.160081
0.0527713
0.154993
0.0571255
0.1494
0.0619152
0.143226
0.067224
0.136368
0.0731601
0.0798627
0.199391
0.00760757
0.198525
0.0113277
0.197425
0.0146151
0.196094
0.0176904
0.194536
0.0206348
0.192758
0.0235054
0.190765
0.026352
0.188554
0.0292171
0.186122
0.0321395
0.183454
0.0351624
0.180542
0.0383133
0.177373
0.0416155
0.173922
0.0451152
0.17016
0.0488585
0.166054
0.0528983
0.161568
0.057278
0.156641
0.0620703
0.151212
0.0673611
0.145212
0.0732369
0.138526
0.0798571
0.0873924
0.19941
0.00817903
0.198575
0.0121446
0.197515
0.0156558
0.196238
0.0189494
0.194746
0.022108
0.193047
0.025189
0.191143
0.028244
0.189032
0.0313203
0.186707
0.0344619
0.18416
0.037712
0.181385
0.0410971
0.178364
0.0446493
0.175073
0.0484241
0.171478
0.0524729
0.167557
0.0568396
0.163273
0.0615825
0.158571
0.066791
0.153386
0.072563
0.147624
0.0790123
0.141206
0.0862866
0.0945906
0.199431
0.00873039
0.19863
0.0129278
0.197617
0.0166511
0.196397
0.02015
0.194979
0.0235084
0.193365
0.0267866
0.191558
0.030038
0.189554
0.0333148
0.187347
0.0366645
0.184937
0.0401239
0.182314
0.0437271
0.179456
0.0475195
0.176343
0.0515531
0.172953
0.0558811
0.169258
0.0605551
0.165214
0.0656463
0.160786
0.0712374
0.155914
0.077452
0.150504
0.0844364
0.1445
0.0923029
0.101293
0.199453
0.0092609
0.198692
0.0136726
0.197729
0.0175957
0.196573
0.0212873
0.195232
0.024831
0.19371
0.0282918
0.192005
0.0317283
0.190116
0.0351936
0.188044
0.0387312
0.185785
0.0423826
0.183326
0.0461922
0.180646
0.0502098
0.177732
0.0544805
0.174576
0.0590553
0.171143
0.0640066
0.167396
0.069412
0.1633
0.0753522
0.158809
0.0819598
0.15388
0.0893801
0.148444
0.0977507
0.107321
0.199477
0.198753
0.197842
0.0184893
0.196751
0.0223589
0.19549
0.0260733
0.194061
0.0297033
0.192462
0.0333124
0.190697
0.0369483
0.188766
0.0406555
0.186662
0.0444849
0.184373
0.0484843
0.181889
0.0527026
0.179197
0.057185
0.176287
0.0619809
0.173136
0.0671748
0.169721
0.0728461
0.166009
0.0790818
0.161973
0.0860118
0.157607
0.0937614
0.152862
0.102509
0.112484
0.205564
0.204514
0.0233897
0.203302
0.0272657
0.201931
0.0310561
0.200403
0.0348241
0.198721
0.0386169
0.196883
0.0424853
0.194884
0.0464802
0.192721
0.0506492
0.190387
0.0550438
0.187876
0.0597074
0.185173
0.0646979
0.182265
0.0700995
0.179148
0.0759809
0.175808
0.0824384
0.172242
0.0895952
0.168462
0.0975555
0.164481
0.106504
0.116639
0.209693
0.208554
0.0283848
0.207269
0.0323209
0.205845
0.0362308
0.204282
0.0401662
0.202578
0.0441789
0.200735
0.0483184
0.198747
0.0526364
0.196616
0.0571802
0.194344
0.0619878
0.191922
0.0671325
0.189346
0.0726904
0.186632
0.0787116
0.183785
0.085302
0.180828
0.0925683
0.17781
0.100589
0.174797
0.10953
0.119538
0.213972
0.212791
0.0334819
0.211486
0.0375171
0.21006
0.041577
0.208515
0.0457122
0.206852
0.0499741
0.205069
0.0544174
0.203178
0.0590741
0.20119
0.0639825
0.199099
0.0692341
0.19692
0.0748826
0.194685
0.0809612
0.192418
0.0875852
0.190172
0.0948288
0.188039
0.102737
0.186132
0.111451
0.121039
0.218494
0.217326
0.0386664
0.216056
0.04283
0.214688
0.0470666
0.213224
0.0514293
0.211677
0.0559604
0.210069
0.0606831
0.208403
0.0656527
0.206687
0.0709583
0.204962
0.0766195
0.203264
0.0826725
0.201638
0.0892247
0.200182
0.0962994
0.199007
0.103927
0.198268
0.112203
0.121116
0.223367
0.222269
0.0439101
0.221095
0.0482263
0.219858
0.0526556
0.218585
0.0572276
0.21729
0.0619762
0.215976
0.0669696
0.214679
0.0722611
0.213453
0.0778548
0.212335
0.0838022
0.211409
0.0901639
0.210785
0.0969362
0.210579
0.104146
0.210973
0.111822
0.119902
0.228694
0.227741
0.226769
0.0536159
0.225797
0.058192
0.224836
0.0629332
0.223911
0.0678958
0.223075
0.073101
0.222378
0.0785586
0.221876
0.0843141
0.221666
0.0903854
0.221847
0.0967664
0.222546
0.10346
0.223938
0.110442
0.117633
0.233961
0.233306
0.058837
0.232705
0.0635287
0.232201
0.0683991
0.231845
0.0734597
0.231685
0.0787238
0.231792
0.0842146
0.232255
0.0899321
0.233173
0.0958602
0.23467
0.101975
0.236899
0.108225
0.114526
0.241097
0.240875
0.240798
0.0684731
0.240913
0.0733451
0.241275
0.0783666
0.241954
0.0835417
0.243036
0.088859
0.244614
0.0942915
0.246801
0.0997989
0.249719
0.105319
0.110766
0.249638
0.250211
0.251069
0.0775109
0.252282
0.0823347
0.253925
0.0872228
0.256084
0.0921414
0.25885
0.0970422
0.262321
0.101859
0.106518
0.261015
0.262714
0.080639
0.264857
0.0850863
0.267514
0.0894924
0.270757
0.0938074
0.274658
0.0979687
0.101914
0.273202
0.27578
0.278857
0.0864224
0.282486
0.0901863
0.286715
0.0937487
0.0970493
0.290083
0.294019
0.298497
0.0892782
0.09201
0.31001
)
;

boundaryField
{
    inlet
    {
        type            calculated;
        value           nonuniform List<scalar> 
15
(
-0.2
-0.2
-0.2
-0.2
-0.2
-0.2
-0.2
-0.2
-0.2
-0.2
-0.2
-0.2
-0.2
-0.2
-0.2
)
;
    }
    outlet
    {
        type            calculated;
        value           nonuniform 0();
    }
    flap
    {
        type            calculated;
        value           nonuniform 0();
    }
    upperWall
    {
        type            calculated;
        value           nonuniform 0();
    }
    lowerWall
    {
        type            calculated;
        value           uniform 0;
    }
    frontAndBack
    {
        type            empty;
        value           nonuniform 0();
    }
    procBoundary3to0
    {
        type            processor;
        value           nonuniform List<scalar> 
34
(
0.00976958
0.0143802
-0.206446
0.0193539
-0.210682
0.0243605
-0.215025
0.0294177
-0.219558
0.0345249
-0.224384
0.0396628
-0.229606
0.0448028
0.0491634
-0.234647
0.0542882
-0.24142
0.0591476
0.0637437
-0.249297
0.0681258
0.0727717
-0.259691
0.0761872
-0.271065
0.0785035
0.0825124
-0.286657
0.0830016
0.0862566
-0.305349
0.0846234
0.0868615
)
;
    }
    procBoundary3to1
    {
        type            processor;
        value           nonuniform List<scalar> 9(0.212201 0.226222 0.24002 0.253492 0.266582 0.279275 0.29159 0.303546 0.315166);
    }
    procBoundary3to4
    {
        type            processor;
        value           nonuniform List<scalar> 
19
(
0.0934284
0.111325
0.118362
0.121419
0.12292
0.123848
0.124678
0.125668
0.126959
0.128691
0.131003
0.134016
0.137807
0.142426
0.14771
0.160339
0.171911
0.184645
0.198205
)
;
    }
}


// ************************************************************************* //
