/*--------------------------------*- C++ -*----------------------------------*\
| =========                 |                                                 |
| \\      /  F ield         | OpenFOAM: The Open Source CFD Toolbox           |
|  \\    /   O peration     | Version:  dev                                   |
|   \\  /    A nd           | Web:      www.OpenFOAM.org                      |
|    \\/     M anipulation  |                                                 |
\*---------------------------------------------------------------------------*/
FoamFile
{
    version     2.0;
    format      ascii;
    class       surfaceScalarField;
    location    "0.09";
    object      phi;
}
// * * * * * * * * * * * * * * * * * * * * * * * * * * * * * * * * * * * * * //

dimensions      [0 3 -1 0 0 0 0];

internalField   nonuniform List<scalar> 
5457
(
0.198445
0.00155453
0.196597
0.00184851
0.19442
0.00217604
0.191876
0.00254405
0.188967
0.00290918
0.185712
0.00325444
0.182138
0.00357433
0.178269
0.00386874
0.174125
0.00414367
0.169715
0.00441076
0.16503
0.00468423
0.160053
0.00497741
0.154753
0.00530047
0.149093
0.00565965
0.143036
0.00605753
0.136542
0.00649361
0.129577
0.00696477
0.122112
0.00746557
0.114123
0.00798822
0.105601
0.00852243
0.0965457
0.00905528
0.0869744
0.00957132
0.0769215
0.0100529
0.0664406
0.0104808
0.0556044
0.0108362
0.0445029
0.0111014
0.0332399
0.011263
0.0219275
0.0113124
0.0106719
0.0112556
0.0106719
0.199978
0.00157626
0.199279
0.00254739
0.198114
0.00334075
0.196481
0.00417655
0.194354
0.00503631
0.191729
0.0058795
0.188626
0.00667735
0.18508
0.00741421
0.181132
0.00809164
0.176815
0.00872806
0.172147
0.00935215
0.16713
0.00999431
0.161751
0.0106802
0.155982
0.0114279
0.149793
0.0122471
0.143146
0.0131407
0.136005
0.0141051
0.12834
0.0151315
0.120122
0.0162058
0.111336
0.0173086
0.101976
0.0184149
0.0920533
0.019494
0.0815957
0.0205104
0.0706516
0.0214249
0.0592905
0.0221972
0.0476027
0.0227893
0.0356958
0.0231699
0.0236911
0.023317
0.0117158
0.0232309
0.0223877
0.199829
0.00174745
0.199187
0.00318884
0.198087
0.00444031
0.19654
0.00572307
0.194521
0.00705514
0.192017
0.00838413
0.189038
0.00965651
0.185614
0.0108378
0.181783
0.0119221
0.177579
0.0129324
0.173021
0.0139098
0.168115
0.0149012
0.162847
0.0159478
0.157195
0.0170802
0.151125
0.0183166
0.144602
0.0196644
0.137586
0.0211213
0.13004
0.0226767
0.121934
0.0243122
0.113242
0.0260011
0.103948
0.0277081
0.094053
0.0293893
0.0835715
0.030992
0.0725397
0.0324566
0.061017
0.0337198
0.0490876
0.0347187
0.036861
0.0353965
0.0244732
0.0357049
0.0120803
0.0356237
0.034468
0.199747
0.00200011
0.199106
0.00382965
0.198027
0.00551907
0.196508
0.00724193
0.19453
0.00903291
0.192081
0.0108335
0.189169
0.0125678
0.185824
0.0141828
0.182081
0.0156653
0.177971
0.0170419
0.173515
0.0183662
0.168716
0.0197003
0.163563
0.0211008
0.158033
0.0226106
0.152093
0.024257
0.145704
0.0260526
0.138828
0.0279977
0.131423
0.0300815
0.123452
0.0322832
0.114882
0.0345711
0.105688
0.0369022
0.0958564
0.0392209
0.085389
0.0414593
0.0743079
0.0435377
0.0626606
0.0453671
0.0505249
0.0468544
0.0380128
0.0479085
0.025273
0.0484447
0.012473
0.0484237
0.046941
0.199709
0.00229048
0.199061
0.0044777
0.198002
0.00657788
0.196515
0.00872875
0.194582
0.0109654
0.192193
0.0132227
0.189356
0.015405
0.186097
0.0174413
0.182452
0.0193107
0.17845
0.0210436
0.174111
0.0227051
0.169439
0.0243725
0.164423
0.0261173
0.159039
0.0279949
0.153254
0.0300418
0.14703
0.032277
0.140323
0.0347046
0.133089
0.0373156
0.125283
0.0400886
0.116864
0.0429899
0.107796
0.045971
0.0980485
0.0489679
0.0876087
0.0518991
0.0764814
0.054665
0.0646992
0.0571492
0.0523308
0.0592228
0.0394876
0.0607517
0.0263268
0.0616055
0.0130269
0.0617236
0.0599679
0.199693
0.00259681
0.199044
0.00512694
0.198009
0.00761288
0.196562
0.0101757
0.194683
0.0128435
0.192364
0.0155418
0.189613
0.0181564
0.186455
0.0205991
0.182924
0.0228416
0.17905
0.0249178
0.174851
0.026904
0.170331
0.0288921
0.16548
0.0309683
0.160275
0.0332005
0.154681
0.0356351
0.14866
0.0382985
0.142165
0.0411999
0.135146
0.044334
0.127553
0.047682
0.119332
0.0512105
0.110433
0.0548699
0.10081
0.0585909
0.0904273
0.062282
0.0792667
0.0658255
0.0673385
0.0690773
0.0546934
0.0718679
0.0414335
0.0740115
0.0277216
0.0753175
0.0137658
0.0756795
0.0737336
0.19969
0.00290696
0.199047
0.00576883
0.198041
0.00861919
0.196641
0.0115757
0.194826
0.0146581
0.192588
0.0177798
0.189935
0.0208089
0.186893
0.0236409
0.183494
0.0262404
0.179768
0.0286444
0.175732
0.0309398
0.171391
0.0332328
0.166736
0.0356239
0.161743
0.0381937
0.156379
0.040999
0.150603
0.0440743
0.144367
0.0474357
0.137617
0.0510841
0.130294
0.0550057
0.122332
0.0591718
0.113666
0.063536
0.104228
0.0680294
0.093954
0.0725556
0.082795
0.0769844
0.0707259
0.0811463
0.0577641
0.0848297
0.0439886
0.087787
0.0295612
0.0897448
0.0147302
0.0905105
0.0884638
0.199693
0.00321348
0.199066
0.00639562
0.198094
0.00959119
0.196748
0.0129218
0.195006
0.0164001
0.192859
0.0199259
0.190318
0.0233499
0.187407
0.0265521
0.184157
0.02949
0.180598
0.0322036
0.176748
0.03479
0.172612
0.0373689
0.168181
0.0400548
0.163434
0.0429408
0.158338
0.0460946
0.152853
0.0495599
0.146927
0.0533612
0.140504
0.0575074
0.133516
0.0619936
0.125888
0.0668
0.117535
0.071889
0.108364
0.0771995
0.0982805
0.0826395
0.0871895
0.0880754
0.0750152
0.0933206
0.0617197
0.0981251
0.0473353
0.102172
0.0320059
0.105074
0.0160171
0.106499
0.104481
0.199702
0.00351139
0.199096
0.00700083
0.198164
0.010523
0.196879
0.0142073
0.195218
0.0180608
0.193174
0.0219697
0.190756
0.0257671
0.18799
0.0293183
0.184906
0.0325741
0.181533
0.035577
0.177889
0.0384333
0.173982
0.041276
0.169804
0.0442327
0.165336
0.0474092
0.160546
0.050884
0.155396
0.0547106
0.149833
0.0589235
0.143799
0.0635418
0.13722
0.0685724
0.130011
0.0740091
0.12207
0.0798302
0.113278
0.0859916
0.103499
0.092418
0.0925867
0.0989878
0.0803922
0.105515
0.066792
0.111725
0.0517307
0.117233
0.0352935
0.121511
0.0177851
0.124008
0.122266
0.199714
0.00379713
0.199135
0.00757914
0.198249
0.0114092
0.19703
0.015426
0.195458
0.0196325
0.193526
0.0239015
0.191244
0.0280492
0.188636
0.0319266
0.185732
0.0354778
0.182562
0.0387472
0.179145
0.0418501
0.17549
0.0449313
0.171591
0.0481314
0.167432
0.0515679
0.162986
0.0553303
0.158214
0.0594825
0.153068
0.0640694
0.147488
0.0691223
0.141398
0.0746626
0.134705
0.0807023
0.127292
0.0872423
0.119018
0.0942665
0.109704
0.101732
0.09914
0.109551
0.0870856
0.11757
0.0732903
0.125521
0.0575452
0.132978
0.0397911
0.139265
0.0202887
0.14351
0.142555
0.199729
0.00406804
0.199182
0.00812618
0.198346
0.0122446
0.1972
0.0165719
0.195724
0.0211079
0.193913
0.0257128
0.191776
0.0301861
0.189337
0.0343651
0.186628
0.0381873
0.183676
0.0416988
0.180504
0.0450225
0.177121
0.0483143
0.173525
0.0517266
0.169705
0.0553883
0.165636
0.0593992
0.161285
0.0638335
0.156608
0.0687469
0.151546
0.0741836
0.146027
0.0801813
0.139956
0.0867739
0.133207
0.0939909
0.125619
0.101854
0.116979
0.110372
0.107011
0.119519
0.0953664
0.129214
0.0816217
0.139265
0.0653184
0.149281
0.0460878
0.158496
0.0239412
0.165657
0.166496
0.199746
0.00432208
0.199233
0.00863841
0.198453
0.0130249
0.197384
0.0176398
0.196011
0.0224808
0.194328
0.0273958
0.192345
0.0321687
0.190087
0.0366234
0.187583
0.0406909
0.184864
0.0444181
0.181951
0.0479349
0.178859
0.0514069
0.175588
0.0549973
0.172131
0.0588453
0.16847
0.06306
0.164579
0.0677254
0.160418
0.0729073
0.155939
0.0786629
0.151074
0.0850464
0.145733
0.0921146
0.139794
0.0999296
0.133089
0.10856
0.125383
0.118078
0.11635
0.128553
0.105532
0.140032
0.0923028
0.152494
0.0758375
0.165746
0.0551781
0.179155
0.0295899
0.191245
0.196086
0.199764
0.00455764
0.199289
0.00911295
0.198568
0.0137464
0.197582
0.0186254
0.196317
0.0237457
0.194768
0.0289441
0.192947
0.0339895
0.190878
0.0386929
0.18859
0.0429786
0.186114
0.046894
0.183474
0.0505744
0.180687
0.0541943
0.177758
0.057926
0.174686
0.0619176
0.171459
0.0662867
0.168059
0.0711253
0.164458
0.0765084
0.160617
0.0825038
0.156483
0.0891811
0.151979
0.0966185
0.146998
0.10491
0.141387
0.114171
0.134918
0.124547
0.127248
0.136223
0.117856
0.149424
0.105935
0.164416
0.0902225
0.181458
0.0688006
0.200577
0.0391043
0.220941
0.23519
0.199784
0.00477352
0.199349
0.00954752
0.198689
0.0144061
0.197789
0.0195249
0.196636
0.0248983
0.195228
0.0303526
0.193575
0.0356424
0.191701
0.0405665
0.189637
0.0450426
0.187414
0.0491174
0.185057
0.052931
0.182586
0.0566648
0.180013
0.0604991
0.177342
0.0645892
0.174569
0.0690595
0.171686
0.074008
0.168678
0.0795165
0.165521
0.0856608
0.162181
0.0925216
0.158606
0.100193
0.15472
0.108795
0.150408
0.118483
0.145489
0.129466
0.139674
0.142038
0.132479
0.156618
0.123069
0.173826
0.109906
0.194622
0.0899606
0.220522
0.0568698
0.254032
0.29206
0.199804
0.00496874
0.199411
0.00994033
0.198816
0.0150015
0.198005
0.0203355
0.196968
0.0259351
0.195703
0.0316171
0.194223
0.0371228
0.19255
0.0422391
0.190716
0.0468769
0.188751
0.051082
0.186684
0.0549977
0.184538
0.0588107
0.18233
0.0627077
0.180069
0.0668496
0.177763
0.0713654
0.175414
0.0763571
0.173021
0.0819097
0.170578
0.0881033
0.168076
0.0950236
0.165497
0.102773
0.162809
0.111483
0.159961
0.12133
0.156867
0.132561
0.153374
0.145531
0.149209
0.160783
0.143845
0.17919
0.136164
0.202303
0.123374
0.233313
0.0957845
0.281622
0.387845
-0.00966581
0.00966581
-0.0191942
0.00952842
-0.0280925
0.0088983
-0.0357962
0.00770362
-0.0417213
0.00592506
-0.0453085
0.00358716
-0.0460826
0.00077401
-0.0437088
-0.00237402
-0.0380679
-0.00564102
-0.0293382
-0.00872989
-0.0179676
-0.0113708
-0.00459306
-0.0133747
0.0100747
-0.0146679
0.0253313
-0.0152568
0.0405917
-0.0152605
0.0554038
-0.0148123
0.069442
-0.0140384
0.0824948
-0.0130529
0.0944456
-0.0119509
0.105252
-0.0108065
0.114925
-0.00967322
0.123512
-0.00858705
0.131081
-0.00756941
0.137712
-0.00663074
0.143486
-0.00577353
0.14848
-0.00499487
0.152769
-0.00428859
0.156416
-0.00364721
0.159482
-0.003066
-0.00258286
-0.0100542
0.01972
-0.0199947
0.0194689
-0.0292589
0.0181625
-0.0372884
0.0157331
-0.0434703
0.0121069
-0.047202
0.00731882
-0.047965
0.00153696
-0.0453953
-0.00494393
-0.0393612
-0.0116752
-0.0300655
-0.0180258
-0.0180277
-0.0234088
-0.00398455
-0.027418
0.0112865
-0.0299392
0.0270805
-0.031051
0.0428186
-0.0309988
0.0580522
-0.030046
0.0724665
-0.0284528
0.0858617
-0.0264481
0.0981313
-0.0242206
0.10924
-0.0219155
0.119204
-0.0196372
0.128072
-0.0174551
0.135913
-0.0154103
0.142805
-0.0135226
0.148828
-0.0117963
0.154058
-0.0102257
0.158568
-0.00879825
0.162419
-0.00749845
0.165664
-0.00631095
-0.00523888
-0.010899
0.030619
-0.0216641
0.0302341
-0.0317355
0.0282338
-0.0405277
0.0245253
-0.0473707
0.0189498
-0.0515761
0.0115242
-0.0525365
0.00249722
-0.0498139
-0.00766668
-0.0432505
-0.0182388
-0.0331254
-0.028151
-0.0201296
-0.0364047
-0.00514746
-0.0424003
0.0109323
-0.046019
0.0273467
-0.0474656
0.0435184
-0.0471707
0.0590234
-0.0455512
0.0735789
-0.0430084
0.0870178
-0.0398872
0.0992639
-0.0364668
0.110307
-0.0329585
0.120181
-0.0295119
0.128951
-0.0262246
0.136693
-0.0231526
0.143492
-0.0203216
0.149431
-0.0177353
0.154588
-0.015383
0.159035
-0.0132448
0.162832
-0.0112958
0.16603
-0.00950891
-0.00786808
-0.012129
0.042748
-0.0241676
0.0422727
-0.035525
0.0395912
-0.0455447
0.0345449
-0.0534573
0.0268624
-0.0584341
0.0165008
-0.0597148
0.00377784
-0.056721
-0.0106606
-0.049258
-0.0257019
-0.0377782
-0.039631
-0.0232403
-0.0509428
-0.00677813
-0.0588626
0.0105291
-0.0633264
0.0278616
-0.0647983
0.0446588
-0.063968
0.0605415
-0.061434
0.0752797
-0.0577467
0.0887586
-0.0533663
0.100948
-0.0486561
0.111874
-0.0438852
0.121602
-0.0392394
0.130213
-0.0348358
0.137799
-0.0307391
0.144453
-0.0269752
0.150261
-0.0235435
0.155304
-0.0204258
0.159653
-0.0175931
0.163367
-0.0150102
0.166496
-0.0126382
-0.0104464
-0.0137582
0.0565062
-0.0275546
0.0560691
-0.0407145
0.0527511
-0.0524783
0.0463087
-0.0619102
0.0362942
-0.0679522
0.0225428
-0.0696036
0.00542915
-0.0660764
-0.0141879
-0.0571995
-0.0345791
-0.0437378
-0.0530928
-0.0270395
-0.0676413
-0.00858101
-0.0773213
0.0103306
-0.0822382
0.0288289
-0.0832967
0.046397
-0.0815363
0.0627257
-0.0777628
0.0776593
-0.0726804
0.0911533
-0.0668604
0.103238
-0.0607411
0.11399
-0.0546368
0.123507
-0.0487571
0.131899
-0.043228
0.139273
-0.0381133
0.145731
-0.0334327
0.151364
-0.0291766
0.156254
-0.0253162
0.160473
-0.0218113
0.164078
-0.0186156
0.167118
-0.0156782
-0.0129561
-0.0158341
0.0723402
-0.0318835
0.0721185
-0.0473515
0.0682191
-0.0613345
0.0602917
-0.0726306
0.0475903
-0.0798444
0.0297565
-0.0816568
0.00724144
-0.0770656
-0.0187792
-0.0661152
-0.0455296
-0.0500549
-0.0691532
-0.0307106
-0.0869857
-0.00991751
-0.0981146
0.0108086
-0.102965
0.0305873
-0.103076
0.0489692
-0.0999183
0.0657358
-0.0945295
0.0808213
-0.087766
0.0942653
-0.0803046
0.10617
-0.0726462
0.116669
-0.0651356
0.125903
-0.0579907
0.134007
-0.0513328
0.141109
-0.0452146
0.147317
-0.0396417
0.152731
-0.0345898
0.157431
-0.0300163
0.161488
-0.0258681
0.164959
-0.0220864
0.167889
-0.0186088
-0.0153801
-0.0183318
0.090672
-0.0369969
0.0907836
-0.0550713
0.0862935
-0.0714403
0.0766607
-0.0845465
0.0606964
-0.0925943
0.0378042
-0.0939356
0.0085827
-0.0874897
-0.0252252
-0.0738279
-0.0591915
-0.0548291
-0.0881522
-0.0327576
-0.109057
-0.009692
-0.12118
0.0127302
-0.125387
0.0336555
-0.124001
0.0527204
-0.118983
0.069795
-0.111604
0.0849044
-0.102876
0.0981759
-0.0935763
0.109788
-0.0842581
0.119932
-0.0752799
0.128792
-0.0668511
0.136533
-0.0590741
0.143297
-0.0519786
0.149204
-0.0455481
0.154352
-0.0397384
0.158825
-0.0344894
0.16269
-0.0297332
0.166002
-0.0253981
0.168804
-0.0214103
-0.0177028
-0.020931
0.111603
-0.0420964
0.111949
-0.0624824
0.10668
-0.0807451
0.0949233
-0.0949752
0.0749265
-0.103028
0.0458574
-0.102958
0.00851256
-0.093878
-0.0343057
-0.0772082
-0.0758615
-0.0554673
-0.109893
-0.031169
-0.133356
-0.00645772
-0.145892
0.017094
-0.148939
0.0387065
-0.145614
0.0580956
-0.138373
0.0751865
-0.128695
0.0900798
-0.117769
0.102981
-0.106478
0.114138
-0.0954152
0.123797
-0.0849382
0.132178
-0.0752322
0.13947
-0.0663663
0.145828
-0.0583366
0.151377
-0.0510968
0.156216
-0.0445777
0.160426
-0.0386992
0.16407
-0.0333775
0.1672
-0.0285275
0.169853
-0.0240641
-0.0199094
-0.0227682
0.134371
-0.0454032
0.134584
-0.0669266
0.128203
-0.085861
0.113858
-0.100033
0.0890984
-0.107055
0.052879
-0.104631
0.00608846
-0.0924942
-0.0464422
-0.073093
-0.0952628
-0.0494278
-0.133559
-0.0239471
-0.158837
0.00123654
-0.171076
0.0249053
-0.172608
0.0464597
-0.167168
0.06558
-0.157493
0.0822182
-0.145334
0.0965302
-0.132081
0.108781
-0.118729
0.119269
-0.105903
0.128278
-0.0939478
0.136056
-0.0830105
0.142805
-0.0731155
0.148685
-0.0642166
0.15382
-0.056232
0.158307
-0.0490642
0.162219
-0.0426117
0.165616
-0.0367738
0.168541
-0.0314527
0.17103
-0.026553
-0.0219865
-0.0225359
0.156907
-0.0445574
0.156606
-0.0652564
0.148902
-0.0831749
0.131776
-0.0959469
0.10187
-0.100939
0.0578705
-0.0953904
0.000540267
-0.0803532
-0.0614795
-0.0591443
-0.116472
-0.034907
-0.157796
-0.00976775
-0.183976
0.014444
-0.195288
0.0370187
-0.195182
0.0575418
-0.187691
0.0755989
-0.17555
0.0911572
-0.160892
0.104408
-0.145333
0.11565
-0.129971
0.125207
-0.115459
0.133377
-0.102118
0.140414
-0.0900481
0.14652
-0.0792213
0.151848
-0.0695449
0.156515
-0.0608987
0.160607
-0.0531563
0.16419
-0.0461946
0.167314
-0.0398971
0.170015
-0.0341542
0.172323
-0.0288612
-0.0239215
-0.0190061
0.175913
-0.0374753
0.175075
-0.0548598
0.166287
-0.0698368
0.146753
-0.0799979
0.112031
-0.0820323
0.0599048
-0.0727684
-0.00872371
-0.0556394
-0.0786087
-0.0342359
-0.137875
-0.0110436
-0.180989
0.0118036
-0.206823
0.033537
-0.217021
0.0539363
-0.215582
0.0723349
-0.20609
0.0884013
-0.191617
0.102146
-0.174637
0.113781
-0.156968
0.123608
-0.139798
0.131943
-0.123794
0.13907
-0.109245
0.145223
-0.0962019
0.150585
-0.0845833
0.15529
-0.07425
0.159437
-0.0650454
0.163097
-0.0568159
0.166321
-0.0494191
0.169149
-0.0427251
0.171609
-0.0366143
0.173723
-0.0309749
-0.0257034
-0.0114981
0.187411
-0.0229559
0.186533
-0.0342197
0.17755
-0.0440991
0.156632
-0.0506946
0.118627
-0.0484958
0.0577059
-0.0356443
-0.0215753
-0.0180226
-0.0962304
0.00162266
-0.157521
0.0214274
-0.200793
0.0404556
-0.225851
0.0587648
-0.235331
0.0757188
-0.232536
0.0908385
-0.22121
0.10395
-0.204729
0.115125
-0.185811
0.124576
-0.16642
0.13258
-0.147801
0.139407
-0.130621
0.145294
-0.115133
0.15043
-0.101339
0.154957
-0.0891102
0.158976
-0.0782687
0.162557
-0.0686269
0.165752
-0.06001
0.168593
-0.0522607
0.171107
-0.0452389
0.173311
-0.0388184
0.175219
-0.0328824
-0.0273228
-0.000123449
0.187535
-0.00112079
0.18753
-0.00365632
0.180086
-0.00645433
0.15943
-0.00612902
0.118302
0.00219491
0.049382
0.0157926
-0.0351731
0.0310086
-0.111446
0.0464184
-0.172931
0.0615205
-0.215896
0.0760637
-0.240395
0.0895908
-0.248858
0.101817
-0.244763
0.112572
-0.231965
0.121849
-0.214006
0.129774
-0.193737
0.136544
-0.17319
0.142372
-0.15363
0.147452
-0.135701
0.15194
-0.119621
0.155954
-0.105352
0.159575
-0.0927318
0.16286
-0.081553
0.165842
-0.0716097
0.168546
-0.062714
0.170986
-0.0547004
0.173171
-0.0474237
0.175107
-0.0407544
0.176799
-0.034574
-0.0287718
0.0148913
0.172643
0.0267408
0.17568
0.0343398
0.172487
0.0413647
0.152405
0.0518045
0.107862
0.0644921
0.0366942
0.0760756
-0.0467567
0.0878235
-0.123194
0.0987321
-0.18384
0.108497
-0.22566
0.1171
-0.248998
0.12457
-0.256328
0.13101
-0.251203
0.136545
-0.2375
0.141326
-0.218787
0.145514
-0.197925
0.149259
-0.176935
0.15268
-0.157051
0.155861
-0.138882
0.158854
-0.122614
0.161684
-0.108183
0.164361
-0.0954092
0.166886
-0.0840774
0.169252
-0.0739757
0.171452
-0.0649143
0.173479
-0.0567272
0.175325
-0.04927
0.176985
-0.0424142
0.178454
-0.0360423
-0.0300442
0.035926
0.136717
0.0606332
0.150973
0.0776746
0.155445
0.0945106
0.135569
0.112059
0.0903131
0.128112
0.020641
0.140678
-0.0593224
0.149734
-0.132251
0.155671
-0.189776
0.159139
-0.229129
0.160854
-0.250713
0.161453
-0.256927
0.161476
-0.251227
0.161335
-0.237359
0.161308
-0.218761
0.161563
-0.198179
0.162167
-0.177539
0.163118
-0.158003
0.16437
-0.140134
0.165853
-0.124097
0.167495
-0.109824
0.169226
-0.097141
0.17099
-0.0858414
0.172739
-0.0757244
0.174434
-0.0666096
0.176046
-0.0583392
0.177552
-0.0507754
0.178932
-0.0437946
0.180174
-0.0372838
-0.0311359
0.207479
0.00514899
0.207116
0.0103028
0.206568
0.01555
0.205822
0.0210805
0.204871
0.0268859
0.203715
0.0327736
0.202365
0.0384722
0.200847
0.043757
0.199192
0.0485318
0.197434
0.0528405
0.195603
0.0568282
0.193728
0.0606862
0.19183
0.0646052
0.189929
0.0687503
0.188042
0.0732527
0.186183
0.0782158
0.184368
0.0837246
0.182614
0.0898579
0.180938
0.0966992
0.179363
0.104348
0.177916
0.11293
0.17663
0.122616
0.175552
0.133639
0.174749
0.146333
0.174342
0.161191
0.174569
0.178962
0.176055
0.200818
0.181176
0.228192
0.204644
0.258153
0.275805
0.316684
0.212522
0.00530936
0.212199
0.0106254
0.211712
0.0160372
0.211051
0.0217409
0.21021
0.0277265
0.209191
0.0337928
0.208007
0.0396563
0.206682
0.0450813
0.20525
0.0499642
0.203744
0.0543461
0.202199
0.0583731
0.200647
0.0622386
0.199116
0.0661363
0.197633
0.0702328
0.196226
0.0746598
0.194923
0.0795188
0.193756
0.084891
0.192766
0.0908484
0.192
0.0974647
0.191524
0.104824
0.191424
0.11303
0.191825
0.122215
0.192913
0.132551
0.194989
0.144257
0.19858
0.1576
0.2047
0.172841
0.215487
0.190031
0.234914
0.208765
0.265011
0.228056
0.246739
0.294077
0.217689
0.00544793
0.21741
0.0109041
0.216989
0.0164575
0.216421
0.0223091
0.215699
0.0284474
0.214829
0.0346633
0.213823
0.0406619
0.212707
0.046197
0.211514
0.0511577
0.210278
0.0555814
0.209038
0.0596137
0.207827
0.0634487
0.206683
0.067281
0.205638
0.0712771
0.204732
0.0755665
0.204004
0.0802464
0.203505
0.0853904
0.203294
0.0910593
0.203448
0.0973101
0.20407
0.104203
0.205295
0.111804
0.207318
0.120192
0.210419
0.129451
0.215016
0.13966
0.22175
0.150867
0.231558
0.163033
0.245628
0.175961
0.265017
0.189376
0.289681
0.203392
0.214957
0.321464
0.222981
0.00556292
0.22275
0.0111355
0.222401
0.0168056
0.221932
0.0227781
0.221339
0.0290398
0.220628
0.0353745
0.219813
0.0414768
0.218919
0.0470906
0.217979
0.0520977
0.217029
0.0565312
0.216108
0.0605345
0.215255
0.0643014
0.214511
0.0680253
0.213917
0.0718706
0.213521
0.0759632
0.213374
0.0803934
0.213539
0.0852247
0.214095
0.0905035
0.215139
0.0962661
0.216798
0.102543
0.21924
0.109363
0.222688
0.116743
0.227447
0.124692
0.233925
0.133182
0.242653
0.142138
0.25428
0.151406
0.269517
0.160723
0.289258
0.169635
0.31504
0.17761
0.182048
0.347949
0.228403
0.00565275
0.228222
0.0113165
0.22795
0.0170769
0.227586
0.0231417
0.22713
0.0294961
0.226587
0.0359172
0.225973
0.0420906
0.225312
0.0477508
0.224638
0.0527724
0.223985
0.0571834
0.223395
0.0611244
0.22291
0.0647866
0.222574
0.0683614
0.222435
0.0720096
0.222546
0.0758517
0.22297
0.0799697
0.223779
0.084416
0.225061
0.0892209
0.226928
0.0943995
0.229517
0.0999544
0.233004
0.105875
0.237612
0.112135
0.243623
0.118681
0.251386
0.125419
0.261322
0.132202
0.273928
0.1388
0.289783
0.144868
0.30956
0.149859
0.334015
0.153155
0.153582
0.362481
0.233957
0.00571603
0.233829
0.0114443
0.233638
0.0172673
0.233385
0.0233947
0.233071
0.0298097
0.232704
0.0362839
0.2323
0.0424947
0.231882
0.0481685
0.231481
0.0531726
0.231135
0.0575298
0.230883
0.0613763
0.230769
0.0649003
0.230841
0.0682892
0.231152
0.0716994
0.231758
0.0752451
0.232728
0.0789999
0.234139
0.0830045
0.236086
0.0872741
0.238681
0.0918043
0.242062
0.0965736
0.246395
0.101542
0.251883
0.106648
0.258765
0.111799
0.267321
0.116863
0.27787
0.121653
0.290756
0.125914
0.306322
0.129301
0.324821
0.131359
0.34638
0.131596
0.129434
0.370528
0.239645
0.00575162
0.239573
0.0115166
0.239466
0.0173736
0.239328
0.0235327
0.239162
0.0299753
0.238977
0.0364684
0.238789
0.0426827
0.23862
0.0483373
0.2385
0.0532927
0.238463
0.0575659
0.238551
0.0612885
0.238807
0.064644
0.239281
0.0678154
0.240026
0.070954
0.241104
0.0741673
0.242583
0.077521
0.244542
0.0810451
0.247074
0.084742
0.250287
0.0885913
0.254307
0.0925533
0.259282
0.0965675
0.265379
0.10055
0.272788
0.10439
0.281712
0.107938
0.29236
0.111005
0.304922
0.113352
0.319537
0.114686
0.336235
0.114662
0.354928
0.112903
0.109079
0.375282
0.245472
0.00575865
0.245456
0.0115318
0.245436
0.0173933
0.245416
0.0235526
0.245401
0.0299894
0.245403
0.0364669
0.245434
0.0426506
0.245518
0.0482536
0.24568
0.0531302
0.245955
0.0572917
0.246379
0.0608639
0.246998
0.0640253
0.247859
0.0669538
0.249018
0.0697953
0.250534
0.0726514
0.252474
0.0755802
0.254916
0.0786035
0.257944
0.0817135
0.261657
0.0848789
0.266162
0.0880479
0.271581
0.0911487
0.278043
0.0940884
0.285682
0.0967502
0.29463
0.0989903
0.304999
0.100636
0.316866
0.101485
0.330243
0.101309
0.345048
0.0998573
0.361077
0.0968736
0.0921918
0.377964
0.251439
0.00573652
0.251481
0.0114887
0.25155
0.0173248
0.251649
0.0234525
0.251789
0.0298498
0.251978
0.0362773
0.252232
0.0423968
0.252568
0.0479168
0.253012
0.0526864
0.253592
0.0567109
0.254346
0.0601102
0.255314
0.0630571
0.256544
0.0657242
0.258087
0.0682521
0.260001
0.0707371
0.262349
0.0732318
0.265201
0.0757514
0.268633
0.0782817
0.272727
0.080785
0.277571
0.0832039
0.283256
0.0854633
0.289874
0.0874705
0.297509
0.0891151
0.30623
0.090269
0.316079
0.0907871
0.327053
0.0905104
0.33909
0.089272
0.35204
0.0869066
0.365652
0.0832616
0.0782721
0.379572
0.25755
0.00568493
0.257651
0.0113867
0.257808
0.0171674
0.258029
0.0232317
0.258322
0.0295561
0.2587
0.0358996
0.259174
0.0419223
0.259761
0.0473295
0.260481
0.0519659
0.261361
0.0558312
0.262432
0.0590392
0.263732
0.0617569
0.265305
0.0641513
0.267199
0.0663582
0.269466
0.0684695
0.272164
0.0705337
0.275353
0.0725623
0.279097
0.0745381
0.283461
0.076421
0.288511
0.0781536
0.294311
0.0796632
0.300917
0.0808645
0.308371
0.0816602
0.316697
0.0819435
0.325883
0.0816003
0.33588
0.0805139
0.34658
0.0785718
0.357812
0.0756749
0.369327
0.071746
0.0667784
0.38082
0.263808
0.00560392
0.263968
0.011226
0.264214
0.0169213
0.264555
0.0228908
0.265001
0.0291093
0.265564
0.0353359
0.266256
0.0412304
0.267089
0.0464968
0.268078
0.0509764
0.269245
0.0546638
0.270618
0.0576667
0.272228
0.060146
0.274116
0.0622635
0.276324
0.0641506
0.278897
0.0658958
0.281886
0.067545
0.28534
0.0691086
0.289309
0.0705688
0.293842
0.0718873
0.298986
0.0730102
0.304777
0.0738719
0.311243
0.0743981
0.318395
0.0745082
0.32622
0.074118
0.334677
0.0731432
0.343687
0.0715041
0.353127
0.0691315
0.362828
0.0659738
0.37257
0.0620035
0.0572462
0.382102
0.270217
0.00549379
0.270435
0.0110071
0.270768
0.0165877
0.271227
0.0224315
0.271824
0.0285122
0.272569
0.03459
0.273473
0.0403266
0.274543
0.0454264
0.275791
0.0497285
0.277232
0.0532229
0.278887
0.0560115
0.280784
0.058249
0.282955
0.060092
0.285437
0.0616682
0.28827
0.0630635
0.291492
0.064323
0.295142
0.0654575
0.29926
0.0664514
0.303877
0.0672703
0.30902
0.0678667
0.314707
0.0681846
0.320942
0.0681626
0.327713
0.0677373
0.334985
0.0668459
0.342698
0.06543
0.350762
0.0634397
0.359056
0.0608379
0.367424
0.0576053
0.375683
0.0537444
0.049297
0.383632
0.276779
0.00535516
0.277054
0.0107312
0.277473
0.0161685
0.278047
0.0218569
0.27879
0.027769
0.279712
0.0336677
0.28082
0.0392186
0.282118
0.0441284
0.283611
0.0482352
0.285308
0.0515252
0.287225
0.0540946
0.289382
0.056092
0.291805
0.0576691
0.294523
0.0589498
0.297567
0.0600188
0.300969
0.0609214
0.304756
0.06167
0.308955
0.0622529
0.313583
0.0626415
0.318654
0.0627961
0.324167
0.062671
0.330112
0.0622182
0.336459
0.0613902
0.343161
0.060143
0.350152
0.0584393
0.35734
0.0562515
0.364613
0.0535651
0.371836
0.0503811
0.378862
0.0467189
0.0426258
0.385533
0.283498
0.00518889
0.283829
0.0104002
0.28433
0.0156665
0.285016
0.0211709
0.285899
0.0268852
0.28699
0.0325763
0.288293
0.0379158
0.289806
0.0426147
0.29153
0.0465115
0.293466
0.0495893
0.295621
0.0519386
0.298011
0.0537023
0.300653
0.0550269
0.303569
0.0560334
0.306783
0.0568052
0.310316
0.0573886
0.314187
0.057799
0.31841
0.0580294
0.322994
0.0580575
0.327938
0.0578522
0.333231
0.057378
0.338849
0.0565993
0.344757
0.0554824
0.350901
0.0539989
0.357212
0.0521276
0.363607
0.0498568
0.369985
0.0471868
0.376235
0.0441308
0.382238
0.0407159
0.0369891
0.387874
0.290378
0.00499607
0.290762
0.0100161
0.291343
0.015085
0.292135
0.0203784
0.293152
0.0258673
0.294404
0.0313244
0.29589
0.0364292
0.297606
0.0408988
0.299543
0.0445738
0.301698
0.0474347
0.304069
0.0495668
0.306665
0.051107
0.309495
0.0521968
0.312574
0.0529542
0.315917
0.0534618
0.319538
0.0537671
0.323448
0.053889
0.327652
0.0538254
0.332148
0.0535608
0.336928
0.0530723
0.341972
0.0523338
0.347251
0.0513203
0.352723
0.05001
0.358336
0.0483861
0.364024
0.0464393
0.369712
0.044169
0.375314
0.0415842
0.38074
0.0387045
0.385896
0.0355594
0.0321925
0.390693
0.297423
0.00477802
0.297857
0.00958159
0.298513
0.0144282
0.299406
0.019485
0.30055
0.0247229
0.301953
0.0299216
0.303611
0.0347706
0.305514
0.0389952
0.307649
0.0424392
0.310002
0.0450815
0.312566
0.0470024
0.31534
0.0483325
0.318328
0.0492083
0.321538
0.0497446
0.324976
0.0500232
0.32865
0.0500929
0.332563
0.049976
0.336713
0.0496753
0.341092
0.0491817
0.345685
0.0484795
0.350467
0.0475512
0.355407
0.0463806
0.360462
0.0449548
0.365582
0.0432662
0.370707
0.0413136
0.375773
0.0391031
0.380708
0.0366488
0.38544
0.0339726
0.389895
0.0311035
0.0280802
0.394007
0.304636
0.00453619
0.305118
0.00909954
0.305845
0.0137004
0.306832
0.0184969
0.308095
0.0234601
0.309638
0.0283782
0.311455
0.0329527
0.313531
0.0369189
0.315845
0.0401253
0.318376
0.0425499
0.321111
0.0442678
0.324039
0.0454037
0.327159
0.0460884
0.33047
0.0464333
0.333975
0.0465188
0.337672
0.0463953
0.34156
0.0460876
0.345632
0.0456034
0.349875
0.044939
0.354269
0.0440852
0.358788
0.0430314
0.3634
0.0417685
0.368065
0.0402903
0.372735
0.0385956
0.37736
0.0366885
0.381884
0.0345792
0.386248
0.0322838
0.390396
0.0298242
0.394272
0.0272275
0.0245268
0.397825
0.312022
0.00427212
0.312547
0.00857298
0.313341
0.0129063
0.314417
0.0174206
0.315789
0.0220875
0.317462
0.0267049
0.319426
0.0309883
0.32166
0.034685
0.324135
0.0376495
0.326826
0.0398591
0.329709
0.0413844
0.332769
0.0423434
0.335996
0.042861
0.339385
0.0430445
0.342931
0.0429729
0.346629
0.0426969
0.350472
0.0422441
0.35445
0.0416257
0.358546
0.0408429
0.362739
0.0398916
0.367004
0.0387669
0.371307
0.0374648
0.375613
0.0359844
0.37988
0.0343284
0.384064
0.0325042
0.388119
0.0305239
0.391999
0.028404
0.395658
0.0261651
0.399054
0.0238312
0.0214305
0.40215
0.319583
0.00398739
0.320151
0.00800502
0.321006
0.0120506
0.322163
0.0162626
0.323637
0.0206134
0.325429
0.0249121
0.327527
0.0288901
0.329903
0.0323082
0.332524
0.0350281
0.335356
0.0370274
0.338369
0.0383717
0.34154
0.0391719
0.344854
0.0395467
0.3483
0.0395987
0.351868
0.0394046
0.35555
0.0390149
0.359335
0.0384589
0.363209
0.0377509
0.367156
0.0368958
0.371154
0.0358936
0.375177
0.0347436
0.379196
0.0334457
0.383178
0.0320022
0.387088
0.0304187
0.390888
0.0287041
0.394541
0.026871
0.39801
0.0249351
0.401259
0.022915
0.404259
0.0208317
0.0187086
0.40698
0.327326
0.00368357
0.327932
0.00739872
0.328844
0.011138
0.330076
0.0150293
0.331643
0.0190462
0.333544
0.0230103
0.335764
0.0266704
0.338269
0.0298025
0.34102
0.0322769
0.343976
0.0340714
0.3471
0.0352469
0.350365
0.035907
0.353749
0.036163
0.357235
0.0361122
0.360812
0.0358281
0.364466
0.0353605
0.368185
0.0347396
0.371954
0.0339816
0.375756
0.0330943
0.379568
0.0320807
0.383369
0.0309431
0.38713
0.0296841
0.390824
0.0283082
0.39442
0.0268222
0.397889
0.0252357
0.401199
0.0235609
0.404321
0.0218121
0.407231
0.0200058
0.409903
0.0181596
0.0162929
0.412318
0.335254
0.00336211
0.335895
0.00675694
0.33686
0.0101729
0.338162
0.0137268
0.339813
0.0173939
0.341814
0.0210092
0.344144
0.0243406
0.346765
0.0271809
0.349632
0.0294097
0.352697
0.031006
0.355919
0.0320252
0.359262
0.0325632
0.362701
0.0327235
0.366217
0.0325969
0.369791
0.0322532
0.373412
0.0317404
0.377062
0.0310886
0.380728
0.0303154
0.384392
0.0294303
0.388034
0.0284385
0.391633
0.0273443
0.395165
0.0261519
0.398607
0.0248669
0.401932
0.0234969
0.405116
0.0220511
0.408136
0.0205408
0.41097
0.0189788
0.413596
0.0173792
0.415999
0.0157567
0.0141271