/*--------------------------------*- C++ -*----------------------------------*\
| =========                 |                                                 |
| \\      /  F ield         | OpenFOAM: The Open Source CFD Toolbox           |
|  \\    /   O peration     | Version:  dev                                   |
|   \\  /    A nd           | Web:      www.OpenFOAM.org                      |
|    \\/     M anipulation  |                                                 |
\*---------------------------------------------------------------------------*/
FoamFile
{
    version     2.0;
    format      ascii;
    class       surfaceScalarField;
    location    "0.09";
    object      phi;
}
// * * * * * * * * * * * * * * * * * * * * * * * * * * * * * * * * * * * * * //

dimensions      [0 3 -1 0 0 0 0];

internalField   nonuniform List<scalar> 
5457
(
0.198491
0.00150779
0.196672
0.00181843
0.19451
0.00216158
0.191968
0.00254154
0.189053
0.00291527
0.185786
0.00326651
0.182196
0.00359059
0.178308
0.00388809
0.174143
0.00416563
0.169708
0.00443525
0.164997
0.00471142
0.159991
0.00500755
0.154658
0.0053338
0.148962
0.00569631
0.142865
0.00609747
0.13633
0.00653651
0.12932
0.00701
0.121809
0.00751206
0.113775
0.0080344
0.105209
0.00856618
0.0961149
0.00909398
0.0865131
0.0096019
0.0764412
0.010072
0.0659558
0.0104854
0.0551329
0.0108229
0.0440654
0.0110674
0.0328617
0.0112037
0.0216468
0.0112148
0.0105944
0.0110525
0.0105944
0.200026
0.00148081
0.199358
0.00248609
0.198208
0.00331087
0.196578
0.00417081
0.194445
0.00504809
0.191808
0.00590366
0.188688
0.00671027
0.185123
0.00745365
0.181153
0.0081365
0.176811
0.00877805
0.172115
0.00940751
0.167068
0.0100555
0.161655
0.0107477
0.15585
0.0115019
0.149621
0.0123277
0.142931
0.0132272
0.135745
0.0141962
0.128032
0.0152251
0.119768
0.0162988
0.110938
0.0173966
0.10154
0.0184926
0.0915869
0.019555
0.081111
0.020548
0.070164
0.0214324
0.0588184
0.0221686
0.0471656
0.0227202
0.0353112
0.0230581
0.0233616
0.0231645
0.0113714
0.0230427
0.0219657
0.199876
0.00160373
0.199265
0.00309657
0.19818
0.00439523
0.196636
0.00571424
0.194611
0.00707274
0.192095
0.00842046
0.189099
0.00970611
0.185656
0.0108972
0.181803
0.0119896
0.177574
0.0130074
0.17299
0.0139926
0.168054
0.0149924
0.162754
0.0160481
0.157067
0.01719
0.150959
0.018436
0.144395
0.0197925
0.137335
0.0212563
0.129745
0.0228157
0.121594
0.0244505
0.112858
0.0261324
0.103527
0.0278244
0.0936008
0.0294809
0.0831008
0.031048
0.0720671
0.0324661
0.0605633
0.0336723
0.0486785
0.034605
0.0365277
0.0352089
0.0242547
0.0354374
0.0120296
0.0352678
0.0339953
0.199795
0.00180835
0.199184
0.00370637
0.19812
0.0054586
0.196604
0.00722966
0.194621
0.00905582
0.19216
0.0108813
0.189233
0.0126333
0.185869
0.0142613
0.182105
0.0157542
0.177972
0.0171406
0.173491
0.0184747
0.168665
0.0198196
0.163482
0.0212317
0.157919
0.0227538
0.151943
0.0244125
0.145517
0.0262195
0.1386
0.0281738
0.131153
0.0302632
0.123139
0.0324648
0.114527
0.0347445
0.105295
0.0370568
0.095432
0.0393438
0.0849446
0.0415355
0.0738599
0.0435509
0.0622309
0.0453013
0.0501412
0.0466948
0.0377067
0.0476433
0.0250744
0.0480698
0.012397
0.0479452
0.0463922
0.199757
0.00205096
0.199139
0.00432334
0.198095
0.00650168
0.196612
0.00871248
0.194675
0.0109928
0.192275
0.013281
0.189423
0.0154851
0.186147
0.0175372
0.182483
0.0194193
0.17846
0.0211638
0.174098
0.0228371
0.169401
0.0245173
0.164358
0.0262759
0.158945
0.028168
0.153128
0.0302296
0.14687
0.0324787
0.140126
0.0349179
0.132853
0.0375364
0.125008
0.0403105
0.116549
0.0432034
0.107443
0.0461637
0.0976628
0.0491238
0.0871991
0.0519992
0.076062
0.054688
0.0642895
0.0570737
0.0519552
0.0590291
0.0391725
0.060426
0.0260956
0.0611466
0.0128985
0.0611423
0.0592908
0.19974
0.00230989
0.199122
0.00494145
0.198102
0.00752055
0.196659
0.0101547
0.194777
0.0128745
0.192449
0.0156093
0.189684
0.0182495
0.186511
0.0207107
0.182963
0.0229679
0.17907
0.0250573
0.174851
0.0270567
0.17031
0.0290592
0.165436
0.0311508
0.160205
0.0333995
0.154585
0.0358509
0.148534
0.0385302
0.142007
0.0414454
0.134955
0.0445891
0.127325
0.0479399
0.119068
0.0514613
0.110132
0.0550998
0.100474
0.0587821
0.0900609
0.062412
0.0788801
0.0658688
0.0669467
0.069007
0.0543164
0.0716594
0.0410959
0.0736465
0.0274528
0.0747897
0.0136125
0.0749826
0.0729033
0.199736
0.00257307
0.199125
0.0055522
0.198134
0.00851031
0.196739
0.0115492
0.194922
0.0146915
0.192676
0.0178552
0.190012
0.0209135
0.186957
0.0237663
0.183543
0.0263819
0.179801
0.0288003
0.175748
0.03111
0.171389
0.0334184
0.166715
0.0358261
0.161701
0.0384137
0.156316
0.0412372
0.150516
0.0443301
0.144255
0.0477072
0.137477
0.0513672
0.130124
0.0552941
0.122129
0.0594556
0.113428
0.0638013
0.103953
0.0682573
0.0936428
0.0727221
0.0824513
0.0770603
0.0703591
0.0810993
0.0573907
0.0846277
0.0436348
0.0874024
0.0292662
0.0891582
0.0145443
0.0897045
0.0874476
0.199739
0.00283316
0.199143
0.00614787
0.198187
0.00946529
0.196847
0.012889
0.195103
0.0164347
0.192951
0.0200076
0.1904
0.0234639
0.187478
0.0266888
0.184216
0.0296441
0.180644
0.0323729
0.176781
0.0349741
0.172631
0.0375689
0.168186
0.040272
0.163423
0.0431765
0.158312
0.0463492
0.15281
0.0498331
0.146866
0.0536513
0.140423
0.0578111
0.133412
0.0623051
0.125757
0.0671103
0.117373
0.0721853
0.108167
0.0774637
0.098042
0.0828472
0.0869071
0.0881952
0.0746912
0.0933151
0.0613664
0.0979525
0.0469791
0.10179
0.0316931
0.104444
0.0158072
0.10559
0.103255
0.199747
0.00308529
0.199172
0.00672204
0.198257
0.0103797
0.196978
0.0141673
0.195317
0.0180953
0.193269
0.0220559
0.190844
0.0258885
0.188069
0.0294641
0.184975
0.0327381
0.181592
0.0357563
0.177939
0.0386277
0.174023
0.0414861
0.169836
0.0444599
0.165358
0.0476547
0.16056
0.0511483
0.1554
0.0549936
0.149827
0.0592239
0.143782
0.0638568
0.13719
0.0688973
0.129964
0.0743366
0.122
0.0801494
0.113177
0.0862868
0.103357
0.0926666
0.0923938
0.0991588
0.0801419
0.105567
0.0664886
0.111606
0.0513973
0.116881
0.0349813
0.12086
0.0175932
0.122978
0.120848
0.199758
0.00332602
0.19921
0.00726945
0.198341
0.0112479
0.19713
0.0153777
0.19556
0.0196655
0.193625
0.0239906
0.191337
0.0281759
0.188723
0.0320789
0.185812
0.0356486
0.182636
0.0389333
0.179213
0.0420507
0.175553
0.045147
0.17165
0.0483633
0.167488
0.0518171
0.16304
0.0555973
0.158267
0.0597672
0.15312
0.0643707
0.14754
0.0694381
0.141448
0.0749891
0.134751
0.0810341
0.127329
0.0875713
0.119035
0.0945806
0.109689
0.102013
0.0990754
0.109772
0.0869549
0.117687
0.0730862
0.125474
0.0572828
0.132684
0.0395196
0.138623
0.0200855
0.142412
0.140934
0.199772
0.00355283
0.199255
0.00778581
0.198437
0.012065
0.1973
0.0165145
0.195827
0.0211381
0.194015
0.0258029
0.191874
0.030316
0.189432
0.0345214
0.186719
0.0383622
0.183764
0.0418883
0.18059
0.0452256
0.177206
0.0485312
0.173612
0.0519581
0.169794
0.0556352
0.16573
0.0596618
0.161387
0.0641115
0.156718
0.0690393
0.151668
0.0744884
0.146162
0.0804957
0.140102
0.0870939
0.133363
0.094311
0.125776
0.102167
0.117125
0.110665
0.107124
0.119773
0.0954185
0.129393
0.0815881
0.139305
0.065195
0.149077
0.045913
0.157905
0.0237723
0.164553
0.164706
0.199788
0.00376384
0.199305
0.00826769
0.198543
0.0128266
0.197485
0.0175724
0.196116
0.0225067
0.194433
0.0274852
0.192449
0.0322996
0.190189
0.0367813
0.187685
0.0408669
0.184966
0.0446079
0.182055
0.0481367
0.178966
0.0516206
0.175701
0.0552234
0.172253
0.059084
0.168604
0.0633113
0.164727
0.0679885
0.160586
0.0731809
0.15613
0.0789447
0.151293
0.0853336
0.145983
0.0924038
0.140077
0.100217
0.133403
0.108841
0.125721
0.118346
0.116694
0.1288
0.105849
0.140238
0.0925428
0.152611
0.0759536
0.165666
0.055171
0.178688
0.0295105
0.190214
0.194216
0.199805
0.00395762
0.19936
0.00871232
0.198657
0.0135291
0.197681
0.018547
0.196422
0.0237661
0.194875
0.0290311
0.193055
0.0341194
0.190987
0.0388499
0.188701
0.0431531
0.186228
0.0470808
0.183594
0.0507714
0.180814
0.0544007
0.177896
0.0581418
0.174838
0.0621426
0.171629
0.0665203
0.168252
0.0713659
0.16468
0.0767537
0.160874
0.082751
0.156781
0.0894263
0.152328
0.0968573
0.147407
0.105138
0.141864
0.114383
0.135469
0.124741
0.127873
0.136396
0.118534
0.149577
0.106605
0.16454
0.0907666
0.181505
0.0690706
0.200384
0.0389452
0.220339
0.233162
0.199824
0.00413311
0.199417
0.00911753
0.198776
0.0141696
0.197888
0.0194348
0.196742
0.0249118
0.195337
0.0304354
0.193687
0.0357693
0.191816
0.0407203
0.189757
0.0452128
0.187539
0.0492984
0.185191
0.0531199
0.182732
0.0568603
0.180174
0.0607006
0.177521
0.0647957
0.174772
0.0692696
0.171919
0.0742193
0.168948
0.0797254
0.165836
0.0858631
0.162551
0.0927114
0.159044
0.100364
0.155244
0.108938
0.151038
0.118589
0.146253
0.129527
0.140603
0.142046
0.133608
0.156572
0.124403
0.173745
0.111343
0.194564
0.091123
0.220604
0.0566523
0.25481
0.289814
0.199843
0.00428913
0.199478
0.00948139
0.198902
0.0147454
0.198103
0.0202326
0.197074
0.0259404
0.195815
0.0316941
0.194339
0.0372445
0.192672
0.0423874
0.190845
0.0470404
0.188889
0.0512543
0.186834
0.0551752
0.184703
0.0589917
0.182513
0.0628908
0.180276
0.0670331
0.177999
0.0715468
0.175686
0.0765328
0.173337
0.082075
0.170948
0.0882516
0.168513
0.0951465
0.166017
0.10286
0.163436
0.111519
0.160728
0.121297
0.15782
0.132434
0.154589
0.145276
0.15081
0.160351
0.146049
0.178505
0.13938
0.201233
0.128552
0.231432
0.106695
0.276666
0.396509
-0.00951106
0.00951105
-0.0189284
0.00941731
-0.0276766
0.00874814
-0.035235
0.00755834
-0.0410329
0.00579771
-0.0445154
0.00348232
-0.0452092
0.000693503
-0.0427814
-0.00242822
-0.0371165
-0.00566532
-0.0283953
-0.00872164
-0.0170637
-0.0113321
-0.00375072
-0.0133134
0.0108332
-0.0145844
0.0259925
-0.0151597
0.0411516
-0.0151595
0.0558641
-0.0147128
0.0698082
-0.0139443
0.0827747
-0.0129666
0.0946482
-0.0118736
0.105386
-0.0107382
0.115
-0.00961341
0.123535
-0.00853459
0.131058
-0.00752298
0.137647
-0.0065889
0.143382
-0.00573481
0.14834
-0.00495783
0.152592
-0.00425178
0.156202
-0.00360924
0.159228
-0.00302556
-0.00254005
-0.0099778
0.0194888
-0.0196918
0.0191313
-0.0287911
0.0178474
-0.0366797
0.0154468
-0.0427385
0.0118564
-0.0463664
0.00711003
-0.0470479
0.0013747
-0.0444218
-0.00505472
-0.0383629
-0.0117247
-0.0290771
-0.0180079
-0.0170807
-0.023329
-0.00310745
-0.0272871
0.0120707
-0.029763
0.0277638
-0.0308532
0.0433968
-0.0307928
0.0585274
-0.0298437
0.0728449
-0.028262
0.0861518
-0.0262736
0.0983424
-0.0240644
0.109382
-0.0217776
0.119285
-0.0195163
0.128099
-0.0173491
0.135893
-0.0153165
0.142743
-0.0134382
0.148726
-0.0117184
0.15392
-0.0101513
0.158394
-0.00872469
0.162208
-0.0074229
0.165414
-0.00623066
-0.0051533
-0.0106524
0.0301412
-0.0212666
0.0297455
-0.0312033
0.027784
-0.0398712
0.0241146
-0.0465983
0.0185833
-0.050699
0.0112105
-0.0515735
0.00224888
-0.0487896
-0.007839
-0.0421983
-0.0183164
-0.0320844
-0.0281223
-0.0191395
-0.0362745
-0.00423881
-0.0421883
0.0117392
-0.0457414
0.0280427
-0.0471572
0.0441022
-0.0468527
0.0594995
-0.0452413
0.0739552
-0.042718
0.0873043
-0.0396229
0.0994708
-0.036231
0.110444
-0.0327509
0.120258
-0.0293303
0.128975
-0.0260655
0.13667
-0.0230121
0.143428
-0.0201952
0.149328
-0.0176187
0.154449
-0.0152718
0.15886
-0.0131349
0.16262
-0.011183
0.165779
-0.00938904
-0.00774022
-0.0118786
0.0420198
-0.0237291
0.041596
-0.0349456
0.0390005
-0.044841
0.03401
-0.0526356
0.0263777
-0.0575013
0.016076
-0.0586857
0.00343295
-0.0556196
-0.0109055
-0.0481233
-0.0258131
-0.0366596
-0.0395866
-0.0221854
-0.0507491
-0.00582221
-0.058552
0.0113661
-0.0629302
0.0285735
-0.064365
0.0452484
-0.0635281
0.0610168
-0.06101
0.0756514
-0.0573528
0.0890385
-0.0530102
0.101148
-0.0483402
0.112005
-0.0436083
0.121673
-0.0389979
0.130232
-0.0346248
0.137773
-0.0305529
0.144386
-0.0268079
0.150157
-0.0233892
0.155164
-0.0202787
0.159477
-0.0174476
0.163155
-0.0148607
0.166246
-0.0124792
-0.0102767
-0.0135043
0.055524
-0.0271154
0.055207
-0.0401204
0.0520054
-0.0517458
0.0456353
-0.0610439
0.0356756
-0.0669562
0.0219881
-0.0684916
0.00496801
-0.0648754
-0.0145221
-0.0559589
-0.0347301
-0.0425219
-0.0530241
-0.0259041
-0.0673675
-0.00756831
-0.0768882
0.0112005
-0.0816995
0.0295566
-0.0827215
0.0469904
-0.0809624
0.0631971
-0.077217
0.0780228
-0.0721787
0.0914231
-0.0664107
0.103428
-0.0603448
0.114111
-0.0542913
0.12357
-0.048457
0.131911
-0.0429664
0.139242
-0.0378828
0.14566
-0.0332258
0.151257
-0.0289857
0.156112
-0.0251341
0.160296
-0.021631
0.163866
-0.0184301
0.166868
-0.0154807
-0.0127449
-0.0155994
0.0711234
-0.031475
0.0710826
-0.0467829
0.0673132
-0.0606088
0.0594612
-0.0717437
0.0468103
-0.0787962
0.0290404
-0.0804608
0.00663223
-0.0757564
-0.0192268
-0.0647619
-0.0457252
-0.0487369
-0.0690496
-0.0294952
-0.0866098
-0.00885052
-0.0975334
0.0117097
-0.10226
0.0313259
-0.102338
0.0495608
-0.0991977
0.0661979
-0.0938544
0.0811716
-0.0871527
0.0945207
-0.07976
0.106346
-0.07217
0.116777
-0.064723
0.125954
-0.0576339
0.134011
-0.0510228
0.14107
-0.0449419
0.147241
-0.039397
0.15262
-0.034364
0.157287
-0.0298007
0.161311
-0.0256542
0.164747
-0.0218659
0.16764
-0.0183735
-0.0151281
-0.0181754
0.0892989
-0.0366688
0.089576
-0.0545906
0.085235
-0.0707831
0.0756535
-0.0836894
0.0597165
-0.0915309
0.0368815
-0.0926776
0.00777864
-0.0860876
-0.0258173
-0.0723759
-0.0594374
-0.053425
-0.0880011
-0.0314782
-0.108557
-0.00858875
-0.120423
0.0136446
-0.124494
0.0343923
-0.123086
0.0533003
-0.118106
0.0702396
-0.110794
0.0852349
-0.102148
0.0984114
-0.0929368
0.109945
-0.0837036
0.120024
-0.0748025
0.128831
-0.0664403
0.136526
-0.0587184
0.143251
-0.0516662
0.149122
-0.0452679
0.154238
-0.0394795
0.158679
-0.0342417
0.162512
-0.0294869
0.165791
-0.0251437
0.168556
-0.0211381
-0.0174107
-0.0208274
0.110126
-0.0419292
0.110678
-0.0621864
0.105492
-0.080246
0.093713
-0.0942197
0.07369
-0.102003
0.0446641
-0.101673
0.00744874
-0.0924135
-0.0350772
-0.0756912
-0.0761603
-0.0540158
-0.109677
-0.0298645
-0.132709
-0.005353
-0.144936
0.0179946
-0.147842
0.0394219
-0.144514
0.0586492
-0.137334
0.0756026
-0.127748
0.090382
-0.116928
0.103191
-0.105746
0.114273
-0.0947856
0.12387
-0.0843998
0.132201
-0.0747713
0.139451
-0.0659684
0.145773
-0.0579877
0.151288
-0.0507836
0.156097
-0.0442879
0.160277
-0.0384214
0.163891
-0.0331005
0.166988
-0.0282404
0.169607
-0.023756
-0.0195781
-0.0228412
0.132967
-0.0455188
0.133355
-0.0669355
0.126909
-0.085622
0.112399
-0.0994551
0.0875228
-0.106116
0.0513252
-0.10335
0.00468199
-0.0910062
-0.0474215
-0.0715569
-0.0956102
-0.0479807
-0.133254
-0.0226717
-0.158019
0.00229667
-0.169905
0.0257579
-0.171304
0.0471297
-0.165887
0.0660891
-0.156294
0.0825922
-0.144251
0.0967942
-0.13113
0.108957
-0.117909
0.119375
-0.105204
0.128329
-0.0933536
0.136061
-0.0825042
0.142773
-0.0726796
0.14862
-0.0638347
0.153725
-0.0558889
0.158184
-0.0487461
0.162068
-0.0423057
0.165436
-0.0364677
0.168331
-0.0311344
0.170786
-0.0262101
-0.0216168
-0.0229819
0.155949
-0.0451117
0.155485
-0.0656887
0.147486
-0.0832799
0.129991
-0.0956039
0.0998466
-0.100104
0.0558252
-0.0941284
-0.00129423
-0.0788897
-0.0626608
-0.0576445
-0.116856
-0.0335308
-0.157368
-0.00858927
-0.182961
0.0154134
-0.193908
0.0377966
-0.193688
0.0581412
-0.186232
0.0760434
-0.174197
0.0914739
-0.159682
0.104623
-0.14428
0.115786
-0.129071
0.12528
-0.114698
0.133402
-0.101475
0.1404
-0.0895025
0.146473
-0.0787526
0.151773
-0.0691342
0.156413
-0.0605292
0.16048
-0.0528127
0.164037
-0.0458628
0.167134
-0.0395637
0.169806
-0.033806
0.172082
-0.0284848
-0.0235145
-0.0197307
0.17568
-0.0385622
0.174317
-0.0557628
0.164686
-0.0703089
0.144537
-0.079928
0.109465
-0.0812997
0.0571966
-0.0715501
-0.0110443
-0.0542656
-0.0799458
-0.0328522
-0.13827
-0.00981891
-0.180402
0.0128355
-0.205616
0.0343807
-0.215454
0.0546045
-0.213912
0.0728366
-0.204464
0.0887603
-0.190121
0.10239
-0.173313
0.113936
-0.155827
0.123696
-0.138831
0.131979
-0.122981
0.139066
-0.108563
0.145187
-0.0956243
0.150522
-0.0840876
0.155204
-0.0738152
0.159328
-0.0646531
0.162965
-0.0564496
0.166166
-0.0490638
0.16897
-0.0423664
0.171402
-0.036238
0.173485
-0.0305664
-0.0252602
-0.0126197
0.1883
-0.0244484
0.186145
-0.0354237
0.175661
-0.0448165
0.153929
-0.0508819
0.115531
-0.0478012
0.0541156
-0.0345452
-0.0243007
-0.0167999
-0.0976916
0.0027735
-0.157844
0.0224228
-0.200052
0.0412971
-0.224491
0.0594536
-0.233611
0.0762456
-0.230705
0.0912163
-0.219436
0.104204
-0.203109
0.115282
-0.184391
0.124662
-0.165207
0.132612
-0.146782
0.139401
-0.12977
0.145259
-0.114421
0.150372
-0.100737
0.154878
-0.0885941
0.158878
-0.0778149
0.162441
-0.0682159
0.165616
-0.0596243
0.168437
-0.0518844
0.170928
-0.0448569
0.173106
-0.0384156
0.174984
-0.0324432
-0.0268446
-0.00130098
0.189601
-0.00250329
0.187347
-0.00467226
0.17783
-0.00704035
0.156297
-0.00611518
0.114605
0.00281407
0.0451861
0.0166219
-0.0381091
0.0318963
-0.112967
0.0472232
-0.173172
0.0622659
-0.215096
0.0766866
-0.238912
0.0900784
-0.247003
0.102168
-0.242796
0.112801
-0.230069
0.12198
-0.212289
0.129832
-0.192244
0.136552
-0.171927
0.142346
-0.152576
0.147402
-0.134826
0.151873
-0.118892
0.155872
-0.104737
0.15948
-0.0922023
0.162751
-0.0810856
0.165719
-0.0711841
0.168407
-0.062312
0.170829
-0.0543056
0.172993
-0.0470204
0.174905
-0.0403269
0.176568
-0.0341055
-0.0282599
0.0169074
0.172693
0.0269931
0.177262
0.0344735
0.17035
0.0415336
0.149237
0.0522558
0.103883
0.064849
0.0325925
0.0765032
-0.0497637
0.0882953
-0.124759
0.0991889
-0.184066
0.108912
-0.224819
0.117435
-0.247437
0.124809
-0.254378
0.131153
-0.24914
0.136605
-0.235521
0.141322
-0.217007
0.145468
-0.19639
0.149187
-0.175647
0.152595
-0.155984
0.155768
-0.138
0.158755
-0.121879
0.16158
-0.107562
0.164251
-0.0948732
0.166767
-0.0836016
0.169123
-0.0735394
0.17131
-0.0644991
0.173321
-0.0563165
0.175149
-0.0488476
0.176787
-0.0419637
0.178228
-0.0355462
-0.0295002
0.0333067
0.139387
0.0621145
0.148454
0.0784632
0.154001
0.0949221
0.132778
0.112327
0.0864776
0.128195
0.0167241
0.140716
-0.0622848
0.149781
-0.133825
0.155724
-0.19001
0.15918
-0.228276
0.160862
-0.249118
0.161416
-0.254933
0.161394
-0.249119
0.161217
-0.235345
0.161169
-0.216959
0.161416
-0.196637
0.162021
-0.176253
0.16298
-0.156943
0.16424
-0.13926
0.165729
-0.123369
0.167374
-0.109207
0.169106
-0.0966048
0.170866
-0.0853618
0.172607
-0.0752807
0.174292
-0.0661838
0.175891
-0.0579146
0.177379
-0.0503355
0.178739
-0.0433226
0.179954
-0.0367613
-0.0305608
0.207517
0.00443092
0.207182
0.0098151
0.206653
0.015274
0.205921
0.0209641
0.204979
0.0268817
0.203829
0.0328432
0.202486
0.0385871
0.200976
0.0438979
0.19933
0.0486864
0.197583
0.0530015
0.195766
0.0569917
0.193909
0.0608495
0.192034
0.0647664
0.19016
0.0689067
0.188306
0.073401
0.186488
0.078351
0.184723
0.0838403
0.18303
0.0899453
0.18143
0.0967468
0.179949
0.10434
0.178622
0.112846
0.177495
0.122425
0.176632
0.133296
0.17614
0.145769
0.176206
0.160285
0.177218
0.177494
0.180094
0.198357
0.187577
0.223948
0.212951
0.251292
0.270846
0.338615
0.212559
0.00455384
0.212264
0.010109
0.211796
0.0157409
0.21115
0.02161
0.210319
0.0277113
0.209309
0.0338532
0.208133
0.0397624
0.206819
0.0452124
0.205398
0.0501072
0.203906
0.0544932
0.202378
0.0585195
0.200847
0.0623812
0.199342
0.0662721
0.19789
0.0703584
0.19652
0.0747708
0.195263
0.079609
0.194151
0.0849521
0.193227
0.0908697
0.192542
0.0974315
0.192166
0.104716
0.192192
0.11282
0.192754
0.121863
0.194053
0.131997
0.196408
0.143413
0.200368
0.156325
0.206942
0.170919
0.218138
0.187161
0.237506
0.204581
0.266709
0.222089
0.241355
0.2962
0.217724
0.00465638
0.217472
0.0103597
0.217072
0.0161405
0.216518
0.0221628
0.215809
0.0284201
0.214949
0.0347129
0.213954
0.0407572
0.21285
0.0463162
0.21167
0.0512869
0.210451
0.0557122
0.20923
0.0597405
0.208043
0.0635678
0.206927
0.0673886
0.205917
0.0713689
0.205051
0.0756371
0.204371
0.0802884
0.203929
0.0853942
0.203787
0.091012
0.204024
0.0971946
0.204745
0.103996
0.206091
0.111474
0.208259
0.119695
0.211529
0.128727
0.216316
0.138625
0.223236
0.149405
0.233158
0.160997
0.247139
0.173179
0.266047
0.185673
0.289469
0.198667
0.211265
0.319559
0.223015
0.00473708
0.22281
0.0105638
0.222482
0.0164678
0.222028
0.0226157
0.221448
0.0289992
0.220749
0.0354119
0.219946
0.0415596
0.219066
0.0471961
0.218141
0.0522111
0.21721
0.0566435
0.216311
0.0606396
0.215484
0.0643947
0.214771
0.0681025
0.214213
0.0719266
0.213859
0.0759916
0.213761
0.0803859
0.213985
0.0851705
0.214609
0.0903885
0.215732
0.0960718
0.217482
0.102245
0.220027
0.108929
0.223586
0.116136
0.228456
0.123857
0.235027
0.132054
0.243796
0.140637
0.255346
0.149447
0.27029
0.158235
0.28934
0.166622
0.313732
0.174275
0.17956
0.345437
0.228435
0.00479469
0.228279
0.0107184
0.228028
0.0167183
0.22768
0.0229625
0.227238
0.029441
0.226708
0.0359411
0.226108
0.0421594
0.225463
0.0478406
0.224806
0.0528679
0.224174
0.0572754
0.223607
0.0612059
0.223149
0.0648526
0.222845
0.0684068
0.222743
0.0720288
0.222897
0.0758375
0.22337
0.0799132
0.224235
0.0843058
0.225581
0.0890426
0.227518
0.0941348
0.230183
0.0995801
0.233747
0.105365
0.238428
0.111455
0.244495
0.11779
0.252277
0.124272
0.26216
0.130754
0.274587
0.137019
0.290063
0.142759
0.309177
0.147508
0.332663
0.150789
0.151727
0.360496
0.233986
0.00482812
0.233882
0.0108211
0.233711
0.0168882
0.233475
0.0231981
0.233176
0.029739
0.232824
0.0362927
0.232435
0.0425478
0.232034
0.0482412
0.231653
0.0532492
0.231328
0.0576002
0.2311
0.0614333
0.231015
0.0649381
0.231119
0.0683024
0.231466
0.0716819
0.232114
0.0751895
0.23313
0.078897
0.234593
0.082843
0.236595
0.0870403
0.239249
0.0914814
0.242687
0.0961418
0.247072
0.100979
0.252599
0.105928
0.259494
0.110894
0.268017
0.115748
0.278458
0.120313
0.291128
0.124349
0.306335
0.127552
0.324319
0.129524
0.345259
0.129849
0.128015
0.36897
0.239672
0.00483656
0.239622
0.0108699
0.239535
0.0169744
0.239413
0.0233184
0.239263
0.0298883
0.239095
0.0364611
0.238923
0.042719
0.238772
0.048392
0.238671
0.0533495
0.238657
0.0576141
0.23877
0.0613204
0.239054
0.0646535
0.239559
0.0677969
0.24034
0.0709012
0.241456
0.0740729
0.242977
0.0773761
0.244981
0.0808391
0.247559
0.0844623
0.250817
0.0882238
0.254877
0.0920819
0.259881
0.0959753
0.265989
0.09982
0.273377
0.103506
0.282235
0.10689
0.292752
0.109796
0.305101
0.112
0.319411
0.113242
0.335722
0.113213
0.353998
0.111573
0.107981
0.374032
0.245495
0.00481956
0.2455
0.0108634
0.245499
0.0169747
0.245496
0.0233207
0.245498
0.0298855
0.245516
0.0364427
0.245565
0.0426694
0.245667
0.0482897
0.245849
0.0531667
0.246145
0.0573174
0.246595
0.0608709
0.247241
0.0640073
0.248132
0.0669051
0.249324
0.0697097
0.250875
0.0725218
0.252852
0.0753985
0.255331
0.0783603
0.258395
0.0813981
0.262138
0.0844799
0.266667
0.0875534
0.272095
0.0905472
0.278545
0.09337
0.286141
0.0959087
0.295005
0.0980268
0.305238
0.0995626
0.316909
0.100329
0.330032
0.100118
0.344543
0.0987014
0.360277
0.0958383
0.0913291
0.376929
0.251458
0.00477698
0.25152
0.0108008
0.251605
0.016888
0.251722
0.0232032
0.251878
0.0297289
0.252084
0.0362358
0.252355
0.0423976
0.252711
0.0479339
0.253175
0.0527024
0.253778
0.0567142
0.254555
0.0600929
0.255549
0.0630129
0.256807
0.0656474
0.258379
0.0681369
0.260324
0.070577
0.262703
0.0730195
0.265584
0.0754791
0.269041
0.0779409
0.273153
0.0803673
0.278005
0.0827013
0.283683
0.0848693
0.290271
0.0867811
0.297849
0.0883312
0.306477
0.0893982
0.316193
0.0898465
0.326993
0.0895287
0.338821
0.0882906
0.351544
0.0859782
0.364937
0.0824448
0.0775908
0.378675
0.257566
0.00470894
0.257683
0.010682
0.257856
0.0167137
0.258093
0.0229655
0.258403
0.0294181
0.258797
0.0358406
0.259289
0.0419049
0.259895
0.0473274
0.260636
0.0519614
0.261537
0.0558127
0.262631
0.0589987
0.263955
0.0616883
0.265553
0.0640492
0.267472
0.0662172
0.269765
0.068284
0.272486
0.0702975
0.275696
0.0722693
0.279455
0.0741819
0.283825
0.0759962
0.288871
0.0776556
0.29465
0.0790897
0.301215
0.0802162
0.308604
0.0809423
0.316834
0.0811672
0.325896
0.0807842
0.33574
0.0796846
0.346267
0.0777635
0.357318
0.0749268
0.368664
0.0710987
0.066242
0.380013
0.263819
0.00461585
0.263993
0.0105074
0.264253
0.0164525
0.264608
0.0226086
0.265071
0.0289546
0.265651
0.0352594
0.266361
0.0411948
0.267212
0.0464757
0.268221
0.0509521
0.269408
0.0546246
0.270802
0.0576048
0.272434
0.0600554
0.274343
0.0621393
0.276572
0.063988
0.279165
0.0656901
0.282171
0.0672916
0.285637
0.0688027
0.289612
0.0702064
0.294143
0.0714653
0.299271
0.0725271
0.305032
0.0733285
0.311449
0.0737983
0.318531
0.0738599
0.326264
0.0734338
0.334607
0.0724411
0.343484
0.0708073
0.35278
0.0684673
0.362335
0.0653716
0.371942
0.0614916
0.0568276
0.381356
0.270223
0.00449838
0.270451
0.0102779
0.270797
0.0161058
0.271269
0.0221346
0.271882
0.0283415
0.272643
0.0344966
0.273564
0.0402734
0.274652
0.045387
0.275918
0.0496853
0.277378
0.0531645
0.279052
0.0559301
0.280967
0.0581391
0.283157
0.0599492
0.285656
0.0614883
0.288502
0.062843
0.291735
0.0640585
0.295391
0.065146
0.299506
0.0660907
0.304111
0.0668594
0.309231
0.0674064
0.314882
0.0676779
0.321064
0.0676154
0.327764
0.0671587
0.334949
0.0662486
0.342559
0.0648305
0.350509
0.0628575
0.358681
0.0602945
0.36693
0.0571225
0.375078
0.0533424
0.0489748
0.382931
0.27678
0.00435752
0.277061
0.00999525
0.27749
0.015676
0.278076
0.0215468
0.278834
0.0275834
0.279771
0.0335583
0.280895
0.0391486
0.282209
0.0440718
0.283719
0.0481746
0.285434
0.0514494
0.287367
0.0539962
0.28954
0.0559658
0.291977
0.0575113
0.294707
0.0587572
0.297761
0.0597888
0.301167
0.0606516
0.304953
0.0613591
0.309142
0.0619004
0.313753
0.062248
0.318794
0.0623641
0.324267
0.0622049
0.330156
0.0617249
0.336435
0.0608791
0.343057
0.0596261
0.349956
0.057931
0.357045
0.0557679
0.364216
0.0531229
0.371341
0.0499966
0.378277
0.0464065
0.0423821
0.384869
0.283494
0.00419448
0.283826
0.00966149
0.284335
0.0151662
0.285031
0.0208496
0.285927
0.0266861
0.287032
0.0324521
0.28835
0.0378303
0.289878
0.0425422
0.291617
0.0464352
0.293567
0.0494982
0.295737
0.0518258
0.298139
0.053563
0.300792
0.0548579
0.303716
0.0558323
0.306933
0.0565703
0.310465
0.0571189
0.314329
0.0574942
0.318538
0.0576902
0.323099
0.0576859
0.328011
0.0574519
0.33326
0.0569543
0.338825
0.0561592
0.344668
0.0550351
0.350738
0.0535551
0.356969
0.0516995
0.363278
0.0494576
0.369571
0.0468294
0.37574
0.0438271
0.381669
0.0404762
0.0368088
0.387241
0.290368
0.00401066
0.290749
0.00927913
0.291334
0.0145803
0.292134
0.0200481
0.293162
0.0256565
0.294427
0.0311868
0.295926
0.0363296
0.297655
0.0408122
0.299606
0.0444837
0.301773
0.0473307
0.304155
0.0494423
0.30676
0.0509578
0.309596
0.0520204
0.312679
0.0527488
0.316022
0.0532266
0.319638
0.0535019
0.323536
0.0535946
0.327722
0.0535036
0.332192
0.0532145
0.336937
0.0527055
0.341938
0.0519523
0.347165
0.0509312
0.352577
0.0496215
0.358124
0.0480077
0.363741
0.0460812
0.369356
0.0438416
0.374886
0.0412974
0.380245
0.0384671
0.385342
0.0353787
0.0320632
0.390086
0.297407
0.00380768
0.297833
0.00885113
0.29849
0.0139225
0.299388
0.0191485
0.300541
0.0245026
0.301954
0.0297726
0.303624
0.0346588
0.305539
0.0388964
0.307684
0.0423376
0.310047
0.0449671
0.312619
0.046869
0.315399
0.0481766
0.318391
0.0490279
0.3216
0.0495386
0.325034
0.0497914
0.328699
0.0498361
0.332597
0.0496955
0.336725
0.0493737
0.341076
0.0488623
0.345634
0.0481468
0.350374
0.0472109
0.355265
0.0460393
0.360265
0.0446199
0.365326
0.0429458
0.37039
0.041016
0.375393
0.0388365
0.380269
0.0364208
0.384945
0.0337895
0.389352
0.0309704
0.0279916
0.393422
0.304614
0.00358725
0.305082
0.00838065
0.305806
0.0131976
0.306796
0.0181573
0.308064
0.0232327
0.309616
0.0282199
0.311443
0.0328307
0.313528
0.03681
0.31585
0.0400145
0.318389
0.0424276
0.321129
0.0441285
0.32406
0.0452442
0.32718
0.0459072
0.330488
0.0462299
0.333984
0.0462938
0.337669
0.0461497
0.34154
0.0458237
0.345589
0.0453238
0.349802
0.0446475
0.354161
0.0437862
0.358641
0.0427303
0.363207
0.0414713
0.367822
0.0400036
0.372441
0.0383261
0.377012
0.0364429
0.381484
0.0343639
0.385799
0.0321043
0.389901
0.0296853
0.393738
0.0271325
0.0244703
0.397258
0.311992
0.00335117
0.3125
0.00787105
0.313286
0.0124106
0.31436
0.0170811
0.315736
0.0218557
0.317415
0.0265398
0.319386
0.0308585
0.321627
0.0345685
0.324109
0.0375318
0.326804
0.0397315
0.329689
0.0412419
0.332749
0.0421831
0.335974
0.042682
0.339356
0.0428468
0.342891
0.0427573
0.346575
0.0424651
0.350399
0.0419984
0.354352
0.0413692
0.358419
0.0405792
0.362579
0.0396251
0.366805
0.0385024
0.371068
0.0372078
0.375329
0.0357405
0.379551
0.0341031
0.383689
0.0323029
0.3877
0.0303514
0.391539
0.0282645
0.395161
0.0260619
0.398525
0.0237666
0.0213991
0.401595
0.319547
0.00310123
0.320091
0.00732571
0.320933
0.0115666
0.322086
0.0159269
0.32356
0.0203803
0.325356
0.024743
0.327458
0.0287551
0.329839
0.0321865
0.332464
0.0349063
0.335297
0.0368972
0.33831
0.0382285
0.341478
0.0390136
0.344787
0.0393726
0.348224
0.0394091
0.351779
0.0392006
0.355445
0.0387985
0.359209
0.0382326
0.36306
0.0375178
0.366978
0.0366594
0.370944
0.035658
0.374932
0.034513
0.378914
0.033225
0.382857
0.0317961
0.386727
0.0302317
0.390488
0.0285404
0.394104
0.0267342
0.397539
0.0248283
0.400759
0.0228405
0.403733
0.0207908
0.0186963
0.406434
0.327283
0.0028392
0.327859
0.00674794
0.328753
0.0106705
0.329977
0.0147014
0.331541
0.0188152
0.333443
0.02284
0.335664
0.0265328
0.338172
0.0296783
0.340924
0.0321534
0.343879
0.0339411
0.347001
0.0351058
0.350261
0.0357531
0.353636
0.035996
0.357112
0.0359327
0.360674
0.0356375
0.364311
0.0351608
0.368009
0.0345334
0.371754
0.0337718
0.375528
0.0328842
0.379311
0.031874
0.383079
0.0307435
0.386807
0.0294959
0.390466
0.0281352
0.394029
0.0266681
0.397464
0.0251037
0.400744
0.0234536
0.403839
0.0217318
0.406724
0.019954
0.409376
0.018137
0.016295
0.411776
0.335204
0.00256674
0.335809
0.00614082
0.336751
0.00972687
0.33804
0.0134108
0.339686
0.0171685
0.341684
0.0208407
0.344012
0.0242033
0.346633
0.0270568
0.349498
0.0292872
0.352561
0.0308781
0.355777
0.0318885
0.359113
0.032416
0.362543
0.0325657
0.366046
0.0324293
0.369605
0.0320773
0.373207
0.0315583
0.376837
0.0309027
0.380479
0.0301285
0.384117
0.0292454
0.387731
0.0282588
0.391301
0.027173
0.394803
0.0259926
0.398214
0.0247229
0.401511
0.0233709
0.404668
0.0219456
0.407662
0.0204579
0.410473
0.0189199
0.413081
0.0173452