/*--------------------------------*- C++ -*----------------------------------*\
| =========                 |                                                 |
| \\      /  F ield         | OpenFOAM: The Open Source CFD Toolbox           |
|  \\    /   O peration     | Version:  dev                                   |
|   \\  /    A nd           | Web:      www.OpenFOAM.org                      |
|    \\/     M anipulation  |                                                 |
\*---------------------------------------------------------------------------*/
FoamFile
{
    version     2.0;
    format      ascii;
    class       pointVectorField;
    location    "0.09";
    object      pointDisplacement;
}
// * * * * * * * * * * * * * * * * * * * * * * * * * * * * * * * * * * * * * //

dimensions      [0 1 0 0 0 0 0];

internalField   nonuniform List<vector> 
5828
(
(0 0 0)
(0.000296622 0 0)
(0.000567236 0 0)
(0.000805901 0 0)
(0.00101536 0 0)
(0.00119812 0 0)
(0.00135645 0 0)
(0.00149239 0 0)
(0.00160775 0 0)
(0.00170413 0 0)
(0.00178295 0 0)
(0.00184545 0 0)
(0.00189268 0 0)
(0.00192553 0 0)
(0.00194475 0 0)
(0.00195091 0 0)
(0.00194447 0 0)
(0.00192569 0 0)
(0.0018947 0 0)
(0.00185143 0 0)
(0.0017956 0 0)
(0.00172662 0 0)
(0.00164352 0 0)
(0.0015448 0 0)
(0.00142825 0 0)
(0.00129084 0 0)
(0.00112906 0 0)
(0.000940588 0 0)
(0.000730493 0 0)
(0.000531799 0 0)
(0 0 0)
(0 0 0)
(0.000296666 0 3.34176e-06)
(0.00056734 0 6.4559e-06)
(0.000806068 0 9.32529e-06)
(0.0010156 0 1.20167e-05)
(0.00119845 0 1.45843e-05)
(0.00135688 0 1.7073e-05)
(0.00149294 0 1.95201e-05)
(0.00160845 0 2.19575e-05)
(0.00170501 0 2.44126e-05)
(0.00178405 0 2.69097e-05)
(0.00184681 0 2.94702e-05)
(0.00189435 0 3.21142e-05)
(0.00192758 0 3.48603e-05)
(0.00194725 0 3.77271e-05)
(0.00195398 0 4.0734e-05)
(0.00194822 0 4.39031e-05)
(0.0019303 0 4.7262e-05)
(0.00190039 0 5.08495e-05)
(0.00185851 0 5.47241e-05)
(0.00180449 0 5.89799e-05)
(0.00173795 0 6.37726e-05)
(0.00165822 0 6.93631e-05)
(0.0015643 0 7.61895e-05)
(0.00145482 0 8.49751e-05)
(0.00132808 0 9.68787e-05)
(0.00118266 0 0.000113639)
(0.00101926 0 0.000137495)
(0.000846133 0 0.000170041)
(0.000693505 0 0.000207094)
(0.000459146 0 0.000324007)
(0 0 0)
(0.000296835 0 6.66862e-06)
(0.000567682 0 1.28828e-05)
(0.000806597 0 1.86082e-05)
(0.00101634 0 2.39777e-05)
(0.00119945 0 2.90995e-05)
(0.00135818 0 3.40626e-05)
(0.0014946 0 3.89417e-05)
(0.00161055 0 4.37998e-05)
(0.00170764 0 4.86915e-05)
(0.00178731 0 5.36646e-05)
(0.00185083 0 5.87619e-05)
(0.0018993 0 6.40222e-05)
(0.00193365 0 6.94823e-05)
(0.00195468 0 7.51776e-05)
(0.00196306 0 8.11446e-05)
(0.00195933 0 8.74237e-05)
(0.00194392 0 9.4064e-05)
(0.00191717 0 0.000101132)
(0.00187929 0 0.000108724)
(0.00183047 0 0.000116994)
(0.00177082 0 0.000126185)
(0.0017005 0 0.000136699)
(0.00161976 0 0.000149186)
(0.00152922 0 0.000164683)
(0.00143027 0 0.000184764)
(0.00132596 0 0.00021161)
(0.00122251 0 0.000247634)
(0.00113166 0 0.000293537)
(0.00107184 0 0.000341781)
(0.00104177 0 0.000450835)
(0 0 0)
(0.000297114 0 9.96524e-06)
(0.000568246 0 1.92509e-05)
(0.00080747 0 2.78049e-05)
(0.00101757 0 3.58255e-05)
(0.00120109 0 4.34739e-05)
(0.00136032 0 5.08826e-05)
(0.00149733 0 5.81624e-05)
(0.00161399 0 6.54072e-05)
(0.00171194 0 7.26977e-05)
(0.00179265 0 8.01043e-05)
(0.00185742 0 8.76897e-05)
(0.00190739 0 9.55107e-05)
(0.00194355 0 0.00010362)
(0.00196677 0 0.000112066)
(0.00197781 0 0.000120901)
(0.00197733 0 0.000130174)
(0.00196591 0 0.000139947)
(0.0019441 0 0.000150294)
(0.00191245 0 0.000161319)
(0.00187155 0 0.000173176)
(0.00182219 0 0.000186098)
(0.00176547 0 0.000200446)
(0.00170312 0 0.00021677)
(0.00163787 0 0.00023587)
(0.00157406 0 0.000258824)
(0.00151837 0 0.000286841)
(0.0014801 0 0.000320659)
(0.00146931 0 0.00035883)
(0.0014873 0 0.000393842)
(0.00159636 0 0.000452454)
(0 0 0)
(0.000297496 0 1.32161e-05)
(0.000569018 0 2.55297e-05)
(0.000808663 0 3.6871e-05)
(0.00101924 0 4.75018e-05)
(0.00120333 0 5.76348e-05)
(0.00136323 0 6.74451e-05)
(0.00150106 0 7.70786e-05)
(0.00161869 0 8.66585e-05)
(0.00171782 0 9.62904e-05)
(0.00179993 0 0.000106066)
(0.00186639 0 0.000116067)
(0.00191838 0 0.000126365)
(0.00195697 0 0.000137026)
(0.00198312 0 0.000148111)
(0.00199769 0 0.000159677)
(0.00200148 0 0.00017178)
(0.00199527 0 0.000184478)
(0.00197983 0 0.000197837)
(0.00195602 0 0.000211932)
(0.00192488 0 0.000226864)
(0.00188776 0 0.000242763)
(0.00184658 0 0.000259802)
(0.0018041 0 0.00027819)
(0.00176437 0 0.000298126)
(0.00173315 0 0.00031968)
(0.00171814 0 0.000342503)
(0.00172796 0 0.00036532)
(0.00176788 0 0.000385297)
(0.00182708 0 0.000398177)
(0.00198883 0 0.000401839)
(0 0 0)
(0.000297971 0 1.64058e-05)
(0.000569977 0 3.16895e-05)
(0.000810145 0 4.57627e-05)
(0.00102132 0 5.89488e-05)
(0.00120611 0 7.15107e-05)
(0.00136686 0 8.36642e-05)
(0.00150569 0 9.55886e-05)
(0.00162453 0 0.000107435)
(0.0017251 0 0.000119333)
(0.00180895 0 0.000131393)
(0.00187748 0 0.000143713)
(0.00193194 0 0.000156379)
(0.0019735 0 0.000169466)
(0.00200318 0 0.000183044)
(0.00202199 0 0.000197171)
(0.00203087 0 0.000211901)
(0.00203075 0 0.000227279)
(0.00202264 0 0.000243345)
(0.00200767 0 0.000260125)
(0.00198719 0 0.000277631)
(0.00196293 0 0.000295844)
(0.00193719 0 0.000314686)
(0.00191307 0 0.000333955)
(0.00189474 0 0.000353214)
(0.00188749 0 0.000371593)
(0.00189739 0 0.000387529)
(0.00192965 0 0.000398569)
(0.0019842 0 0.000401835)
(0.00204616 0 0.00039685)
(0.00218147 0 0.000362561)
(0 0 0)
(0.000298526 0 1.95197e-05)
(0.000571097 0 3.77015e-05)
(0.000811878 0 5.44379e-05)
(0.00102376 0 7.01116e-05)
(0.00120937 0 8.50333e-05)
(0.0013711 0 9.94576e-05)
(0.00151112 0 0.000113596)
(0.00163137 0 0.000127625)
(0.00173362 0 0.000141695)
(0.00181948 0 0.000155936)
(0.0018904 0 0.000170459)
(0.0019477 0 0.000185361)
(0.00199263 0 0.000200725)
(0.00202633 0 0.000216623)
(0.00204989 0 0.000233113)
(0.0020644 0 0.00025024)
(0.00207095 0 0.000268031)
(0.00207072 0 0.000286491)
(0.00206499 0 0.000305589)
(0.0020553 0 0.000325244)
(0.00204348 0 0.000345291)
(0.00203179 0 0.000365431)
(0.00202298 0 0.000385147)
(0.00202032 0 0.000403585)
(0.00202731 0 0.000419399)
(0.00204694 0 0.000430644)
(0.00208007 0 0.000434921)
(0.00212266 0 0.000430382)
(0.00216213 0 0.000418974)
(0.00221903 0 0.000377407)
(0 0 0)
(0.000299145 0 2.25438e-05)
(0.000572349 0 4.35386e-05)
(0.000813816 0 6.2857e-05)
(0.00102648 0 8.09384e-05)
(0.00121302 0 9.81386e-05)
(0.00137586 0 0.000114749)
(0.00151719 0 0.00013101)
(0.00163902 0 0.000147124)
(0.00174315 0 0.00016326)
(0.00183124 0 0.000179562)
(0.00190479 0 0.000196154)
(0.00196522 0 0.000213141)
(0.00201383 0 0.000230611)
(0.00205186 0 0.000248636)
(0.00208051 0 0.000267271)
(0.00210096 0 0.000286549)
(0.00211445 0 0.000306477)
(0.00212223 0 0.000327025)
(0.00212571 0 0.000348113)
(0.0021264 0 0.000369582)
(0.00212603 0 0.000391166)
(0.00212649 0 0.000412432)
(0.0021298 0 0.000432719)
(0.00213784 0 0.000451059)
(0.00215194 0 0.000466142)
(0.00217205 0 0.000476383)
(0.00219569 0 0.000480301)
(0.00221717 0 0.000477482)
(0.00222931 0 0.000470496)
(0.00221605 0 0.000452245)
(0 0 0)
(0.000299811 0 2.54651e-05)
(0.000573697 0 4.91757e-05)
(0.000815906 0 7.09836e-05)
(0.00102943 0 9.13815e-05)
(0.00121697 0 0.000110768)
(0.00138101 0 0.000129468)
(0.00152377 0 0.000147751)
(0.00164731 0 0.000165839)
(0.00175346 0 0.000183919)
(0.00184393 0 0.000202149)
(0.00192031 0 0.000220662)
(0.00198404 0 0.000239568)
(0.00203651 0 0.000258959)
(0.00207905 0 0.000278905)
(0.00211293 0 0.000299454)
(0.00213943 0 0.000320628)
(0.00215984 0 0.000342415)
(0.0021755 0 0.000364759)
(0.00218778 0 0.000387542)
(0.00219814 0 0.000410562)
(0.00220804 0 0.000433505)
(0.00221888 0 0.000455901)
(0.00223183 0 0.000477098)
(0.00224752 0 0.000496247)
(0.00226551 0 0.000512357)
(0.0022838 0 0.000524486)
(0.00229847 0 0.00053214)
(0.00230452 0 0.000535843)
(0.00230002 0 0.000537363)
(0.00225994 0 0.000545033)
(0 0 0)
(0.000300505 0 2.82717e-05)
(0.000575103 0 5.45896e-05)
(0.000818092 0 7.8784e-05)
(0.00103251 0 0.000101398)
(0.00122112 0 0.000122868)
(0.00138643 0 0.000143553)
(0.0015307 0 0.000163745)
(0.00165603 0 0.000183687)
(0.0017643 0 0.00020358)
(0.00185726 0 0.000223594)
(0.00193655 0 0.000243868)
(0.00200368 0 0.000264517)
(0.00206009 0 0.000285633)
(0.00210717 0 0.000307282)
(0.00214627 0 0.000329506)
(0.00217871 0 0.000352316)
(0.00220584 0 0.000375685)
(0.00222898 0 0.000399541)
(0.00224948 0 0.000423746)
(0.00226863 0 0.000448085)
(0.00228763 0 0.000472242)
(0.00230742 0 0.000495786)
(0.0023285 0 0.00051816)
(0.0023506 0 0.000538719)
(0.00237238 0 0.000556814)
(0.00239115 0 0.000571979)
(0.0024032 0 0.000584178)
(0.00240526 0 0.000593923)
(0.00239843 0 0.000601544)
(0.00236779 0 0.000618713)
(0 0 0)
(0.000301205 0 3.09527e-05)
(0.000576527 0 5.97592e-05)
(0.000820314 0 8.62277e-05)
(0.00103566 0 0.000110947)
(0.00122537 0 0.000134391)
(0.00139198 0 0.000156946)
(0.00153781 0 0.000178927)
(0.00166498 0 0.000200594)
(0.00177542 0 0.000222162)
(0.00187091 0 0.000243806)
(0.00195314 0 0.000265674)
(0.00202367 0 0.00028788)
(0.00208399 0 0.000310517)
(0.00213553 0 0.000333645)
(0.00217968 0 0.0003573)
(0.00221781 0 0.000381485)
(0.00225126 0 0.000406162)
(0.00228134 0 0.000431248)
(0.00230931 0 0.000456604)
(0.00233633 0 0.000482023)
(0.00236334 0 0.000507221)
(0.00239096 0 0.000531834)
(0.0024193 0 0.000555431)
(0.0024477 0 0.000577545)
(0.00247456 0 0.000597749)
(0.00249744 0 0.000615734)
(0.00251349 0 0.000631366)
(0.00252088 0 0.000644514)
(0.00252105 0 0.000654311)
(0.00251384 0 0.000668168)
(0 0 0)
(0.000301891 0 3.3498e-05)
(0.000577927 0 6.46651e-05)
(0.000822509 0 9.32869e-05)
(0.00103878 0 0.000119994)
(0.0012296 0 0.000145294)
(0.00139753 0 0.000169598)
(0.00154494 0 0.000193241)
(0.00167395 0 0.000216497)
(0.00178656 0 0.000239592)
(0.00188457 0 0.00026271)
(0.00196971 0 0.000285997)
(0.00204356 0 0.000309572)
(0.00210766 0 0.000333521)
(0.00216347 0 0.000357903)
(0.0022124 0 0.000382745)
(0.00225583 0 0.000408041)
(0.00229508 0 0.00043375)
(0.00233142 0 0.000459784)
(0.00236602 0 0.00048601)
(0.00239991 0 0.000512241)
(0.00243389 0 0.000538238)
(0.00246839 0 0.000563709)
(0.00250335 0 0.000588332)
(0.00253809 0 0.000611769)
(0.00257123 0 0.000633688)
(0.00260085 0 0.00065374)
(0.00262485 0 0.000671458)
(0.00264177 0 0.000686006)
(0.00265152 0 0.000695877)
(0.0026649 0 0.000706737)
(0 0 0)
(0.00030254 0 3.58986e-05)
(0.000579259 0 6.92902e-05)
(0.000824611 0 9.9937e-05)
(0.0010418 0 0.000128507)
(0.0012337 0 0.000155539)
(0.00140295 0 0.000181464)
(0.0015519 0 0.000206637)
(0.00168274 0 0.000231343)
(0.00179747 0 0.000255815)
(0.00189794 0 0.000280242)
(0.00198588 0 0.000304774)
(0.00206292 0 0.000329525)
(0.0021306 0 0.000354579)
(0.0021904 0 0.000379988)
(0.00224374 0 0.000405773)
(0.00229197 0 0.000431922)
(0.00233639 0 0.000458387)
(0.00237821 0 0.000485083)
(0.00241853 0 0.000511883)
(0.00245828 0 0.000538624)
(0.00249815 0 0.000565105)
(0.0025385 0 0.000591101)
(0.00257929 0 0.000616365)
(0.00262 0 0.000640645)
(0.00265966 0 0.000663657)
(0.00269683 0 0.000685003)
(0.0027298 0 0.000703983)
(0.00275657 0 0.000719314)
(0.00277457 0 0.000729083)
(0.00279593 0 0.000736737)
(0 0 0)
(0.000303128 0 3.81465e-05)
(0.000580476 0 7.36192e-05)
(0.000826555 0 0.000106157)
(0.00104461 0 0.00013646)
(0.00123758 0 0.000165093)
(0.00140809 0 0.000192509)
(0.00155855 0 0.000219075)
(0.00169115 0 0.000245087)
(0.00180793 0 0.000270784)
(0.00191074 0 0.000296357)
(0.00200133 0 0.000321957)
(0.00208135 0 0.000347693)
(0.00215235 0 0.000373646)
(0.00221579 0 0.000399861)
(0.00227308 0 0.000426351)
(0.00232555 0 0.000453097)
(0.00237444 0 0.000480048)
(0.00242092 0 0.000507117)
(0.00246599 0 0.000534186)
(0.00251051 0 0.000561107)
(0.00255509 0 0.000587709)
(0.0026001 0 0.000613805)
(0.00264557 0 0.0006392)
(0.00269121 0 0.000663695)
(0.00273641 0 0.000687056)
(0.00278022 0 0.000708945)
(0.00282116 0 0.000728737)
(0.00285666 0 0.000745216)
(0.00288193 0 0.000756219)
(0.00290725 0 0.000762994)
(0 0 0)
(0.00030363 0 4.02347e-05)
(0.000581533 0 7.7639e-05)
(0.000828274 0 0.000111927)
(0.00104715 0 0.00014383)
(0.00124111 0 0.000173932)
(0.00141282 0 0.000202704)
(0.00156471 0 0.000230524)
(0.00169899 0 0.000257697)
(0.0018177 0 0.000284466)
(0.0019227 0 0.000311023)
(0.00201576 0 0.000337515)
(0.00209852 0 0.000364051)
(0.00217251 0 0.000390702)
(0.00223919 0 0.000417507)
(0.00229993 0 0.000444472)
(0.00235603 0 0.00047157)
(0.00240867 0 0.000498745)
(0.00245893 0 0.000525907)
(0.00250774 0 0.00055294)
(0.00255589 0 0.000579704)
(0.00260394 0 0.000606039)
(0.00265222 0 0.000631775)
(0.00270085 0 0.000656732)
(0.00274969 0 0.000680726)
(0.0027984 0 0.000703559)
(0.00284636 0 0.000724993)
(0.0028925 0 0.000744711)
(0.00293455 0 0.000762176)
(0.00296717 0 0.000775853)
(0.00300795 0 0.000794162)
(0 0 0)
(0.000304029 0 4.2176e-05)
(0.000582393 0 8.13725e-05)
(0.000829715 0 0.000117281)
(0.00104933 0 0.000150658)
(0.00124422 0 0.000182106)
(0.00141706 0 0.000212109)
(0.0015703 0 0.000241054)
(0.00170615 0 0.000269253)
(0.00182666 0 0.00029695)
(0.0019337 0 0.000324338)
(0.00202902 0 0.000351561)
(0.00211425 0 0.00037872)
(0.00219091 0 0.000405883)
(0.00226043 0 0.000433078)
(0.00232413 0 0.000460303)
(0.00238325 0 0.000487524)
(0.00243891 0 0.000514677)
(0.00249211 0 0.000541667)
(0.0025437 0 0.000568375)
(0.00259437 0 0.000594656)
(0.00264463 0 0.000620351)
(0.00269476 0 0.00064528)
(0.00274485 0 0.000669246)
(0.00279482 0 0.000692032)
(0.00284435 0 0.000713388)
(0.00289293 0 0.00073301)
(0.00293965 0 0.000750482)
(0.00298292 0 0.000765177)
(0.00301912 0 0.000775476)
(0.00309889 0 0.000818254)
(0 0 0)
(0.000296622 0 0)
(0.000567236 0 0)
(0.000805901 0 0)
(0.00101536 0 0)
(0.00119812 0 0)
(0.00135645 0 0)
(0.00149239 0 0)
(0.00160775 0 0)
(0.00170413 0 0)
(0.00178295 0 0)
(0.00184545 0 0)
(0.00189268 0 0)
(0.00192553 0 0)
(0.00194475 0 0)
(0.00195091 0 0)
(0.00194447 0 0)
(0.00192569 0 0)
(0.0018947 0 0)
(0.00185143 0 0)
(0.0017956 0 0)
(0.00172662 0 0)
(0.00164352 0 0)
(0.0015448 0 0)
(0.00142825 0 0)
(0.00129084 0 0)
(0.00112906 0 0)
(0.000940588 0 0)
(0.000730493 0 0)
(0.000531799 0 0)
(0 0 0)
(0 0 0)
(0.000296666 0 3.34176e-06)
(0.00056734 0 6.4559e-06)
(0.000806068 0 9.32529e-06)
(0.0010156 0 1.20167e-05)
(0.00119845 0 1.45843e-05)
(0.00135688 0 1.7073e-05)
(0.00149294 0 1.95201e-05)
(0.00160845 0 2.19575e-05)
(0.00170501 0 2.44126e-05)
(0.00178405 0 2.69097e-05)
(0.00184681 0 2.94702e-05)
(0.00189435 0 3.21142e-05)
(0.00192758 0 3.48603e-05)
(0.00194725 0 3.77271e-05)
(0.00195398 0 4.0734e-05)
(0.00194822 0 4.39031e-05)
(0.0019303 0 4.7262e-05)
(0.00190039 0 5.08495e-05)
(0.00185851 0 5.47241e-05)
(0.00180449 0 5.89799e-05)
(0.00173795 0 6.37726e-05)
(0.00165822 0 6.93631e-05)
(0.0015643 0 7.61895e-05)
(0.00145482 0 8.49751e-05)
(0.00132808 0 9.68787e-05)
(0.00118266 0 0.000113639)
(0.00101926 0 0.000137495)
(0.000846133 0 0.000170041)
(0.000693505 0 0.000207094)
(0.000459146 0 0.000324007)
(0 0 0)
(0.000296835 0 6.66862e-06)
(0.000567682 0 1.28828e-05)
(0.000806597 0 1.86082e-05)
(0.00101634 0 2.39777e-05)
(0.00119945 0 2.90995e-05)
(0.00135818 0 3.40626e-05)
(0.0014946 0 3.89417e-05)
(0.00161055 0 4.37998e-05)
(0.00170764 0 4.86915e-05)
(0.00178731 0 5.36646e-05)
(0.00185083 0 5.87619e-05)
(0.0018993 0 6.40222e-05)
(0.00193365 0 6.94823e-05)
(0.00195468 0 7.51776e-05)
(0.00196306 0 8.11446e-05)
(0.00195933 0 8.74237e-05)
(0.00194392 0 9.4064e-05)
(0.00191717 0 0.000101132)
(0.00187929 0 0.000108724)
(0.00183047 0 0.000116994)
(0.00177082 0 0.000126185)
(0.0017005 0 0.000136699)
(0.00161976 0 0.000149186)
(0.00152922 0 0.000164683)
(0.00143027 0 0.000184764)
(0.00132596 0 0.00021161)
(0.00122251 0 0.000247634)
(0.00113166 0 0.000293537)
(0.00107184 0 0.000341781)
(0.00104177 0 0.000450835)
(0 0 0)
(0.000297114 0 9.96524e-06)
(0.000568246 0 1.92509e-05)
(0.00080747 0 2.78049e-05)
(0.00101757 0 3.58255e-05)
(0.00120109 0 4.34739e-05)
(0.00136032 0 5.08826e-05)
(0.00149733 0 5.81624e-05)
(0.00161399 0 6.54072e-05)
(0.00171194 0 7.26977e-05)
(0.00179265 0 8.01043e-05)
(0.00185742 0 8.76897e-05)
(0.00190739 0 9.55107e-05)
(0.00194355 0 0.00010362)
(0.00196677 0 0.000112066)
(0.00197781 0 0.000120901)
(0.00197733 0 0.000130174)
(0.00196591 0 0.000139947)
(0.0019441 0 0.000150294)
(0.00191245 0 0.000161319)
(0.00187155 0 0.000173176)
(0.00182219 0 0.000186098)
(0.00176547 0 0.000200446)
(0.00170312 0 0.00021677)
(0.00163787 0 0.00023587)
(0.00157406 0 0.000258824)
(0.00151837 0 0.000286841)
(0.0014801 0 0.000320659)
(0.00146931 0 0.00035883)
(0.0014873 0 0.000393842)
(0.00159636 0 0.000452454)
(0 0 0)
(0.000297496 0 1.32161e-05)
(0.000569018 0 2.55297e-05)
(0.000808663 0 3.6871e-05)
(0.00101924 0 4.75018e-05)
(0.00120333 0 5.76348e-05)
(0.00136323 0 6.74451e-05)
(0.00150106 0 7.70786e-05)
(0.00161869 0 8.66585e-05)
(0.00171782 0 9.62904e-05)
(0.00179993 0 0.000106066)
(0.00186639 0 0.000116067)
(0.00191838 0 0.000126365)
(0.00195697 0 0.000137026)
(0.00198312 0 0.000148111)
(0.00199769 0 0.000159677)
(0.00200148 0 0.00017178)
(0.00199527 0 0.000184478)
(0.00197983 0 0.000197837)
(0.00195602 0 0.000211932)
(0.00192488 0 0.000226864)
(0.00188776 0 0.000242763)
(0.00184658 0 0.000259802)
(0.0018041 0 0.00027819)
(0.00176437 0 0.000298126)
(0.00173315 0 0.00031968)
(0.00171814 0 0.000342503)
(0.00172796 0 0.00036532)
(0.00176788 0 0.000385297)
(0.00182708 0 0.000398177)
(0.00198883 0 0.000401839)
(0 0 0)
(0.000297971 0 1.64058e-05)
(0.000569977 0 3.16895e-05)
(0.000810145 0 4.57627e-05)
(0.00102132 0 5.89488e-05)
(0.00120611 0 7.15107e-05)
(0.00136686 0 8.36642e-05)
(0.00150569 0 9.55886e-05)
(0.00162453 0 0.000107435)
(0.0017251 0 0.000119333)
(0.00180895 0 0.000131393)
(0.00187748 0 0.000143713)
(0.00193194 0 0.000156379)
(0.0019735 0 0.000169466)
(0.00200318 0 0.000183044)
(0.00202199 0 0.000197171)
(0.00203087 0 0.000211901)
(0.00203075 0 0.000227279)
(0.00202264 0 0.000243345)
(0.00200767 0 0.000260125)
(0.00198719 0 0.000277631)
(0.00196293 0 0.000295844)
(0.00193719 0 0.000314686)
(0.00191307 0 0.000333955)
(0.00189474 0 0.000353214)
(0.00188749 0 0.000371593)
(0.00189739 0 0.000387529)
(0.00192965 0 0.000398569)
(0.0019842 0 0.000401835)
(0.00204616 0 0.00039685)
(0.00218147 0 0.000362561)
(0 0 0)
(0.000298526 0 1.95197e-05)
(0.000571097 0 3.77015e-05)
(0.000811878 0 5.44379e-05)
(0.00102376 0 7.01116e-05)
(0.00120937 0 8.50333e-05)
(0.0013711 0 9.94576e-05)
(0.00151112 0 0.000113596)
(0.00163137 0 0.000127625)
(0.00173362 0 0.000141695)
(0.00181948 0 0.000155936)
(0.0018904 0 0.000170459)
(0.0019477 0 0.000185361)
(0.00199263 0 0.000200725)
(0.00202633 0 0.000216623)
(0.00204989 0 0.000233113)
(0.0020644 0 0.00025024)
(0.00207095 0 0.000268031)
(0.00207072 0 0.000286491)
(0.00206499 0 0.000305589)
(0.0020553 0 0.000325244)
(0.00204348 0 0.000345291)
(0.00203179 0 0.000365431)
(0.00202298 0 0.000385147)
(0.00202032 0 0.000403585)
(0.00202731 0 0.000419399)
(0.00204694 0 0.000430644)
(0.00208007 0 0.000434921)
(0.00212266 0 0.000430382)
(0.00216213 0 0.000418974)
(0.00221903 0 0.000377407)
(0 0 0)
(0.000299145 0 2.25438e-05)
(0.000572349 0 4.35386e-05)
(0.000813816 0 6.2857e-05)
(0.00102648 0 8.09384e-05)
(0.00121302 0 9.81386e-05)
(0.00137586 0 0.000114749)
(0.00151719 0 0.00013101)
(0.00163902 0 0.000147124)
(0.00174315 0 0.00016326)
(0.00183124 0 0.000179562)
(0.00190479 0 0.000196154)
(0.00196522 0 0.000213141)
(0.00201383 0 0.000230611)
(0.00205186 0 0.000248636)
(0.00208051 0 0.000267271)
(0.00210096 0 0.000286549)
(0.00211445 0 0.000306477)
(0.00212223 0 0.000327025)
(0.00212571 0 0.000348113)
(0.0021264 0 0.000369582)
(0.00212603 0 0.000391166)
(0.00212649 0 0.000412432)
(0.0021298 0 0.000432719)
(0.00213784 0 0.000451059)
(0.00215194 0 0.000466142)
(0.00217205 0 0.000476383)
(0.00219569 0 0.000480301)
(0.00221717 0 0.000477482)
(0.00222931 0 0.000470496)
(0.00221605 0 0.000452245)
(0 0 0)
(0.000299811 0 2.54651e-05)
(0.000573697 0 4.91757e-05)
(0.000815906 0 7.09836e-05)
(0.00102943 0 9.13815e-05)
(0.00121697 0 0.000110768)
(0.00138101 0 0.000129468)
(0.00152377 0 0.000147751)
(0.00164731 0 0.000165839)
(0.00175346 0 0.000183919)
(0.00184393 0 0.000202149)
(0.00192031 0 0.000220662)
(0.00198404 0 0.000239568)
(0.00203651 0 0.000258959)
(0.00207905 0 0.000278905)
(0.00211293 0 0.000299454)
(0.00213943 0 0.000320628)
(0.00215984 0 0.000342415)
(0.0021755 0 0.000364759)
(0.00218778 0 0.000387542)
(0.00219814 0 0.000410562)
(0.00220804 0 0.000433505)
(0.00221888 0 0.000455901)
(0.00223183 0 0.000477098)
(0.00224752 0 0.000496247)
(0.00226551 0 0.000512357)
(0.0022838 0 0.000524486)
(0.00229847 0 0.00053214)
(0.00230452 0 0.000535843)
(0.00230002 0 0.000537363)
(0.00225994 0 0.000545033)
(0 0 0)
(0.000300505 0 2.82717e-05)
(0.000575103 0 5.45896e-05)
(0.000818092 0 7.8784e-05)
(0.00103251 0 0.000101398)
(0.00122112 0 0.000122868)
(0.00138643 0 0.000143553)
(0.0015307 0 0.000163745)
(0.00165603 0 0.000183687)
(0.0017643 0 0.00020358)
(0.00185726 0 0.000223594)
(0.00193655 0 0.000243868)
(0.00200368 0 0.000264517)
(0.00206009 0 0.000285633)
(0.00210717 0 0.000307282)
(0.00214627 0 0.000329506)
(0.00217871 0 0.000352316)
(0.00220584 0 0.000375685)
(0.00222898 0 0.000399541)
(0.00224948 0 0.000423746)
(0.00226863 0 0.000448085)
(0.00228763 0 0.000472242)
(0.00230742 0 0.000495786)
(0.0023285 0 0.00051816)
(0.0023506 0 0.000538719)
(0.00237238 0 0.000556814)
(0.00239115 0 0.000571979)
(0.0024032 0 0.000584178)
(0.00240526 0 0.000593923)
(0.00239843 0 0.000601544)
(0.00236779 0 0.000618713)
(0 0 0)
(0.000301205 0 3.09527e-05)
(0.000576527 0 5.97592e-05)
(0.000820314 0 8.62277e-05)
(0.00103566 0 0.000110947)
(0.00122537 0 0.000134391)
(0.00139198 0 0.000156946)
(0.00153781 0 0.000178927)
(0.00166498 0 0.000200594)
(0.00177542 0 0.000222162)
(0.00187091 0 0.000243806)
(0.00195314 0 0.000265674)
(0.00202367 0 0.00028788)
(0.00208399 0 0.000310517)
(0.00213553 0 0.000333645)
(0.00217968 0 0.0003573)
(0.00221781 0 0.000381485)
(0.00225126 0 0.000406162)
(0.00228134 0 0.000431248)
(0.00230931 0 0.000456604)
(0.00233633 0 0.000482023)
(0.00236334 0 0.000507221)
(0.00239096 0 0.000531834)
(0.0024193 0 0.000555431)
(0.0024477 0 0.000577545)
(0.00247456 0 0.000597749)
(0.00249744 0 0.000615734)
(0.00251349 0 0.000631366)
(0.00252088 0 0.000644514)
(0.00252105 0 0.000654311)
(0.00251384 0 0.000668168)
(0 0 0)
(0.000301891 0 3.3498e-05)
(0.000577927 0 6.46651e-05)
(0.000822509 0 9.32869e-05)
(0.00103878 0 0.000119994)
(0.0012296 0 0.000145294)
(0.00139753 0 0.000169598)
(0.00154494 0 0.000193241)
(0.00167395 0 0.000216497)
(0.00178656 0 0.000239592)
(0.00188457 0 0.00026271)
(0.00196971 0 0.000285997)
(0.00204356 0 0.000309572)
(0.00210766 0 0.000333521)
(0.00216347 0 0.000357903)
(0.0022124 0 0.000382745)
(0.00225583 0 0.000408041)
(0.00229508 0 0.00043375)
(0.00233142 0 0.000459784)
(0.00236602 0 0.00048601)
(0.00239991 0 0.000512241)
(0.00243389 0 0.000538238)
(0.00246839 0 0.000563709)
(0.00250335 0 0.000588332)
(0.00253809 0 0.000611769)
(0.00257123 0 0.000633688)
(0.00260085 0 0.00065374)
(0.00262485 0 0.000671458)
(0.00264177 0 0.000686006)
(0.00265152 0 0.000695877)
(0.0026649 0 0.000706737)
(0 0 0)
(0.00030254 0 3.58986e-05)
(0.000579259 0 6.92902e-05)
(0.000824611 0 9.9937e-05)
(0.0010418 0 0.000128507)
(0.0012337 0 0.000155539)
(0.00140295 0 0.000181464)
(0.0015519 0 0.000206637)
(0.00168274 0 0.000231343)
(0.00179747 0 0.000255815)
(0.00189794 0 0.000280242)
(0.00198588 0 0.000304774)
(0.00206292 0 0.000329525)
(0.0021306 0 0.000354579)
(0.0021904 0 0.000379988)
(0.00224374 0 0.000405773)
(0.00229197 0 0.000431922)
(0.00233639 0 0.000458387)
(0.00237821 0 0.000485083)
(0.00241853 0 0.000511883)
(0.00245828 0 0.000538624)
(0.00249815 0 0.000565105)
(0.0025385 0 0.000591101)
(0.00257929 0 0.000616365)
(0.00262 0 0.000640645)
(0.00265966 0 0.000663657)
(0.00269683 0 0.000685003)
(0.0027298 0 0.000703983)
(0.00275657 0 0.000719314)
(0.00277457 0 0.000729083)
(0.00279593 0 0.000736737)
(0 0 0)
(0.000303128 0 3.81465e-05)
(0.000580476 0 7.36192e-05)
(0.000826555 0 0.000106157)
(0.00104461 0 0.00013646)
(0.00123758 0 0.000165093)
(0.00140809 0 0.000192509)
(0.00155855 0 0.000219075)
(0.00169115 0 0.000245087)
(0.00180793 0 0.000270784)
(0.00191074 0 0.000296357)
(0.00200133 0 0.000321957)
(0.00208135 0 0.000347693)
(0.00215235 0 0.000373646)
(0.00221579 0 0.000399861)
(0.00227308 0 0.000426351)
(0.00232555 0 0.000453097)
(0.00237444 0 0.000480048)
(0.00242092 0 0.000507117)
(0.00246599 0 0.000534186)
(0.00251051 0 0.000561107)
(0.00255509 0 0.000587709)
(0.0026001 0 0.000613805)
(0.00264557 0 0.0006392)
(0.00269121 0 0.000663695)
(0.00273641 0 0.000687056)
(0.00278022 0 0.000708945)
(0.00282116 0 0.000728737)
(0.00285666 0 0.000745216)
(0.00288193 0 0.000756219)
(0.00290725 0 0.000762994)
(0 0 0)
(0.00030363 0 4.02347e-05)
(0.000581533 0 7.7639e-05)
(0.000828274 0 0.000111927)
(0.00104715 0 0.00014383)
(0.00124111 0 0.000173932)
(0.00141282 0 0.000202704)
(0.00156471 0 0.000230524)
(0.00169899 0 0.000257697)
(0.0018177 0 0.000284466)
(0.0019227 0 0.000311023)
(0.00201576 0 0.000337515)
(0.00209852 0 0.000364051)
(0.00217251 0 0.000390702)
(0.00223919 0 0.000417507)
(0.00229993 0 0.000444472)
(0.00235603 0 0.00047157)
(0.00240867 0 0.000498745)
(0.00245893 0 0.000525907)
(0.00250774 0 0.00055294)
(0.00255589 0 0.000579704)
(0.00260394 0 0.000606039)
(0.00265222 0 0.000631775)
(0.00270085 0 0.000656732)
(0.00274969 0 0.000680726)
(0.0027984 0 0.000703559)
(0.00284636 0 0.000724993)
(0.0028925 0 0.000744711)
(0.00293455 0 0.000762176)
(0.00296717 0 0.000775853)
(0.00300795 0 0.000794162)
(0 0 0)
(0.000304029 0 4.2176e-05)
(0.000582393 0 8.13725e-05)
(0.000829715 0 0.000117281)
(0.00104933 0 0.000150658)
(0.00124422 0 0.000182106)
(0.00141706 0 0.000212109)
(0.0015703 0 0.000241054)
(0.00170615 0 0.000269253)
(0.00182666 0 0.00029695)
(0.0019337 0 0.000324338)
(0.00202902 0 0.000351561)
(0.00211425 0 0.00037872)
(0.00219091 0 0.000405883)
(0.00226043 0 0.000433078)
(0.00232413 0 0.000460303)
(0.00238325 0 0.000487524)
(0.00243891 0 0.000514677)
(0.00249211 0 0.000541667)
(0.0025437 0 0.000568375)
(0.00259437 0 0.000594656)
(0.00264463 0 0.000620351)
(0.00269476 0 0.00064528)
(0.00274485 0 0.000669246)
(0.00279482 0 0.000692032)
(0.00284435 0 0.000713388)
(0.00289293 0 0.00073301)
(0.00293965 0 0.000750482)
(0.00298292 0 0.000765177)
(0.00301912 0 0.000775476)
(0.00309889 0 0.000818254)
(0 0 0)
(0.000517225 0 0)
(0.000716399 0 0)
(0.000925852 0 0)
(0.00111339 0 0)
(0.00127424 0 0)
(0.00141089 0 0)
(0.00152693 0 0)
(0.00162536 0 0)
(0.00170836 0 0)
(0.00177738 0 0)
(0.00183337 0 0)
(0.00187686 0 0)
(0.00190812 0 0)
(0.0019272 0 0)
(0.00193399 0 0)
(0.00192819 0 0)
(0.00190938 0 0)
(0.00187698 0 0)
(0.00183025 0 0)
(0.00176832 0 0)
(0.00169014 0 0)
(0.00159449 0 0)
(0.00147999 0 0)
(0.00134505 0 0)
(0.00118789 0 0)
(0.00100652 0 0)
(0.000798722 0 0)
(0.000562056 0 0)
(0.000293852 0 0)
(0 0 0)
(0.000428639 0 -0.000257075)
(0.000674134 0 -0.000127971)
(0.000829276 0 -8.49082e-05)
(0.00100287 0 -4.59101e-05)
(0.00116593 0 -1.71552e-05)
(0.00131078 0 2.44542e-06)
(0.001437 0 1.52603e-05)
(0.00154613 0 2.33677e-05)
(0.00163987 0 2.82893e-05)
(0.00171957 0 3.10679e-05)
(0.00178621 0 3.24012e-05)
(0.00184042 0 3.27532e-05)
(0.00188254 0 3.24339e-05)
(0.00191273 0 3.16532e-05)
(0.00193097 0 3.05547e-05)
(0.00193706 0 2.92378e-05)
(0.00193071 0 2.77715e-05)
(0.00191144 0 2.62032e-05)
(0.00187866 0 2.4565e-05)
(0.00183162 0 2.28775e-05)
(0.00176943 0 2.11524e-05)
(0.00169103 0 1.93942e-05)
(0.00159521 0 1.76012e-05)
(0.00148056 0 1.57663e-05)
(0.00134549 0 1.38772e-05)
(0.00118823 0 1.19159e-05)
(0.00100677 0 9.85861e-06)
(0.000798899 0 7.67445e-06)
(0.000562167 0 5.32443e-06)
(0.000293901 0 2.75944e-06)
(0 0 0)
(0.00100737 0 -0.000304141)
(0.00104376 0 -0.000174331)
(0.0011086 0 -0.000115341)
(0.00120182 0 -5.86111e-05)
(0.00130625 0 -1.47199e-05)
(0.00141093 0 1.63111e-05)
(0.00151003 0 3.71551e-05)
(0.00160069 0 5.05851e-05)
(0.00168158 0 5.88045e-05)
(0.0017521 0 6.34085e-05)
(0.00181199 0 6.55102e-05)
(0.00186109 0 6.58766e-05)
(0.00189927 0 6.50352e-05)
(0.00192636 0 6.3352e-05)
(0.0019421 0 6.10829e-05)
(0.00194618 0 5.84077e-05)
(0.00193818 0 5.54527e-05)
(0.00191756 0 5.2306e-05)
(0.00188366 0 4.90272e-05)
(0.0018357 0 4.56546e-05)
(0.00177274 0 4.22097e-05)
(0.00169371 0 3.87002e-05)
(0.00159735 0 3.51223e-05)
(0.00148226 0 3.14613e-05)
(0.00134683 0 2.76922e-05)
(0.00118926 0 2.37789e-05)
(0.00100755 0 1.96739e-05)
(0.000799456 0 1.53155e-05)
(0.00056253 0 1.06259e-05)
(0.000294082 0 5.50704e-06)
(0 0 0)
(0.00155589 0 -0.00020507)
(0.00145152 0 -0.000121567)
(0.00143896 0 -7.42948e-05)
(0.00145356 0 -2.46315e-05)
(0.00149434 0 1.6788e-05)
(0.00155168 0 4.78616e-05)
(0.00161661 0 6.96791e-05)
(0.00168269 0 8.41424e-05)
(0.00174568 0 9.30674e-05)
(0.00180293 0 9.79283e-05)
(0.00185277 0 9.98451e-05)
(0.0018941 0 9.96437e-05)
(0.00192616 0 9.79239e-05)
(0.00194835 0 9.51212e-05)
(0.00196014 0 9.15512e-05)
(0.001961 0 8.74421e-05)
(0.00195036 0 8.29579e-05)
(0.00192755 0 7.82143e-05)
(0.00189184 0 7.32906e-05)
(0.00184238 0 6.82375e-05)
(0.00177817 0 6.30829e-05)
(0.00169809 0 5.78358e-05)
(0.00160087 0 5.24887e-05)
(0.00148506 0 4.70183e-05)
(0.00134903 0 4.13866e-05)
(0.00119096 0 3.55394e-05)
(0.00100882 0 2.94051e-05)
(0.00080037 0 2.28917e-05)
(0.000563125 0 1.58826e-05)
(0.000294378 0 8.2316e-06)
(0 0 0)
(0.00194028 0 -2.68673e-05)
(0.00178444 0 -2.0077e-06)
(0.00173053 0 2.0198e-05)
(0.00169549 0 4.79092e-05)
(0.00168956 0 7.44259e-05)
(0.00170748 0 9.64584e-05)
(0.00174083 0 0.000113056)
(0.00178214 0 0.000124481)
(0.00182581 0 0.000131487)
(0.0018679 0 0.000134928)
(0.00190575 0 0.000135593)
(0.0019375 0 0.000134147)
(0.00196183 0 0.000131122)
(0.00197773 0 0.000126933)
(0.00198437 0 0.0001219)
(0.00198098 0 0.000116262)
(0.00196682 0 0.000110197)
(0.00194109 0 0.000103835)
(0.00190295 0 9.7262e-05)
(0.00185146 0 9.05364e-05)
(0.00178556 0 8.36877e-05)
(0.00170408 0 7.67232e-05)
(0.00160568 0 6.96295e-05)
(0.00148888 0 6.23742e-05)
(0.00135203 0 5.49053e-05)