/*--------------------------------*- C++ -*----------------------------------*\
| =========                 |                                                 |
| \\      /  F ield         | OpenFOAM: The Open Source CFD Toolbox           |
|  \\    /   O peration     | Version:  dev                                   |
|   \\  /    A nd           | Web:      www.OpenFOAM.org                      |
|    \\/     M anipulation  |                                                 |
\*---------------------------------------------------------------------------*/
FoamFile
{
    version     2.0;
    format      ascii;
    class       pointVectorField;
    location    "0.09";
    object      pointDisplacement;
}
// * * * * * * * * * * * * * * * * * * * * * * * * * * * * * * * * * * * * * //

dimensions      [0 1 0 0 0 0 0];

internalField   nonuniform List<vector> 
5828
(
(0 0 0)
(0.000304048 0 0)
(0.000581537 0 0)
(0.000826456 0 0)
(0.00104168 0 0)
(0.00122982 0 0)
(0.00139326 0 0)
(0.0015341 0 0)
(0.00165424 0 0)
(0.00175538 0 0)
(0.001839 0 0)
(0.0019064 0 0)
(0.00195874 0 0)
(0.00199699 0 0)
(0.00202198 0 0)
(0.00203442 0 0)
(0.00203488 0 0)
(0.0020238 0 0)
(0.0020015 0 0)
(0.00196816 0 0)
(0.00192379 0 0)
(0.00186818 0 0)
(0.00180075 0 0)
(0.00172038 0 0)
(0.00162497 0 0)
(0.00151094 0 0)
(0.00137262 0 0)
(0.00120251 0 0)
(0.000996424 0 0)
(0.000780049 0 0)
(0 0 0)
(0 0 0)
(0.000304079 0 4.94795e-06)
(0.000581616 0 9.54238e-06)
(0.000826588 0 1.37437e-05)
(0.00104187 0 1.76381e-05)
(0.00123009 0 2.12931e-05)
(0.00139361 0 2.47607e-05)
(0.00153456 0 2.80797e-05)
(0.00165483 0 3.12772e-05)
(0.00175612 0 3.43691e-05)
(0.00183993 0 3.7361e-05)
(0.00190756 0 4.02474e-05)
(0.00196017 0 4.30117e-05)
(0.00199874 0 4.56251e-05)
(0.00202413 0 4.80459e-05)
(0.00203705 0 5.02198e-05)
(0.00203808 0 5.20799e-05)
(0.00202771 0 5.35512e-05)
(0.00200629 0 5.45579e-05)
(0.00197406 0 5.504e-05)
(0.00193114 0 5.49829e-05)
(0.00187747 0 5.44691e-05)
(0.00181279 0 5.37668e-05)
(0.00173648 0 5.34743e-05)
(0.00164743 0 5.47514e-05)
(0.00154391 0 5.96699e-05)
(0.00142362 0 7.16786e-05)
(0.00128496 0 9.59207e-05)
(0.00113196 0 0.000137976)
(0.00099029 0 0.000194774)
(0.000787041 0 0.000434224)
(0 0 0)
(0.000304212 0 9.8788e-06)
(0.000581887 0 1.90519e-05)
(0.000827012 0 2.74405e-05)
(0.00104248 0 3.52164e-05)
(0.00123091 0 4.25147e-05)
(0.00139469 0 4.94395e-05)
(0.00153595 0 5.60687e-05)
(0.00165661 0 6.24567e-05)
(0.00175836 0 6.86365e-05)
(0.00184272 0 7.46199e-05)
(0.00191102 0 8.03977e-05)
(0.00196442 0 8.59384e-05)
(0.00200396 0 9.1187e-05)
(0.00203051 0 9.6063e-05)
(0.00204482 0 0.00010046)
(0.00204755 0 0.000104248)
(0.00203926 0 0.000107276)
(0.0020204 0 0.000109386)
(0.00199139 0 0.000110442)
(0.00195261 0 0.000110372)
(0.00190442 0 0.000109254)
(0.00184729 0 0.000107444)
(0.00178184 0 0.000105782)
(0.0017092 0 0.00010589)
(0.00163147 0 0.000110539)
(0.00155292 0 0.00012398)
(0.00148189 0 0.000151688)
(0.00143292 0 0.000197808)
(0.00142219 0 0.000255145)
(0.00157194 0 0.000406568)
(0 0 0)
(0.000304432 0 1.47738e-05)
(0.000582336 0 2.84924e-05)
(0.000827712 0 4.1038e-05)
(0.00104347 0 5.26678e-05)
(0.00123225 0 6.3584e-05)
(0.00139646 0 7.3943e-05)
(0.00153824 0 8.38621e-05)
(0.00165951 0 9.3424e-05)
(0.00176202 0 0.00010268)
(0.00184728 0 0.00011165)
(0.00191666 0 0.000120325)
(0.00197137 0 0.000128661)
(0.00201247 0 0.000136581)
(0.00204089 0 0.000143974)
(0.00205747 0 0.000150686)
(0.00206292 0 0.000156528)
(0.00205793 0 0.000161276)
(0.00204312 0 0.000164686)
(0.00201912 0 0.000166519)
(0.00198663 0 0.000166588)
(0.00194654 0 0.000164838)
(0.00190008 0 0.000161463)
(0.00184916 0 0.000157077)
(0.00179685 0 0.000152912)
(0.00174822 0 0.000150961)
(0.0017114 0 0.000153868)
(0.00169832 0 0.00016406)
(0.00172212 0 0.000181384)
(0.00178122 0 0.000199253)
(0.00202532 0 0.000204378)
(0 0 0)
(0.000304733 0 1.96132e-05)
(0.000582947 0 3.78258e-05)
(0.000828666 0 5.44811e-05)
(0.00104482 0 6.99212e-05)
(0.00123409 0 8.4415e-05)
(0.00139887 0 9.8171e-05)
(0.00154135 0 0.000111346)
(0.00166348 0 0.000124054)
(0.00176701 0 0.000136364)
(0.0018535 0 0.000148308)
(0.00192435 0 0.000159881)
(0.00198082 0 0.000171032)
(0.00202402 0 0.00018167)
(0.00205495 0 0.000191658)
(0.00207453 0 0.000200808)
(0.0020836 0 0.000208881)
(0.00208294 0 0.000215587)
(0.00207336 0 0.000220596)
(0.0020557 0 0.000223552)
(0.00203097 0 0.000224109)
(0.00200045 0 0.000221979)
(0.0019659 0 0.000217011)
(0.00192993 0 0.000209273)
(0.00189635 0 0.000199125)
(0.00187076 0 0.00018719)
(0.00186069 0 0.000174103)
(0.00187459 0 0.0001599)
(0.00191702 0 0.000143425)
(0.00197567 0 0.000124448)
(0.00210758 0 5.06654e-05)
(0 0 0)
(0.000305104 0 2.43778e-05)
(0.000583702 0 4.70146e-05)
(0.000829847 0 6.77159e-05)
(0.0010465 0 8.69071e-05)
(0.00123636 0 0.000104923)
(0.00140187 0 0.000122025)
(0.00154522 0 0.00013841)
(0.0016684 0 0.000154221)
(0.00177319 0 0.000169552)
(0.00186119 0 0.000184449)
(0.00193385 0 0.000198913)
(0.00199248 0 0.000212896)
(0.00203824 0 0.0002263)
(0.00207223 0 0.000238973)
(0.00209544 0 0.000250705)
(0.00210881 0 0.000261223)
(0.00211327 0 0.000270186)
(0.00210977 0 0.000277193)
(0.00209934 0 0.00028178)
(0.00208316 0 0.000283435)
(0.0020627 0 0.000281615)
(0.0020399 0 0.000275773)
(0.00201729 0 0.000265373)
(0.00199824 0 0.000249899)
(0.0019869 0 0.00022884)
(0.00198766 0 0.0002017)
(0.00200333 0 0.000168274)
(0.00203137 0 0.000129939)
(0.00205937 0 9.37358e-05)
(0.00207075 0 2.60811e-05)
(0 0 0)
(0.000305534 0 2.90491e-05)
(0.000584578 0 5.60233e-05)
(0.000831218 0 8.06908e-05)
(0.00104845 0 0.000103559)
(0.00123901 0 0.000125028)
(0.00140536 0 0.00014541)
(0.00154973 0 0.000164944)
(0.00167414 0 0.000183805)
(0.0017804 0 0.000202112)
(0.00187016 0 0.000219928)
(0.00194491 0 0.000237268)
(0.00200602 0 0.000254091)
(0.00205473 0 0.000270303)
(0.00209219 0 0.000285751)
(0.00211949 0 0.000300218)
(0.00213769 0 0.000313415)
(0.00214782 0 0.000324979)
(0.00215093 0 0.000334462)
(0.00214817 0 0.000341328)
(0.0021408 0 0.000344942)
(0.00213029 0 0.000344565)
(0.00211836 0 0.00033934)
(0.00210703 0 0.000328278)
(0.00209853 0 0.00031027)
(0.00209493 0 0.000284168)
(0.00209743 0 0.000249135)
(0.00210504 0 0.000205641)
(0.00211332 0 0.000157711)
(0.00211604 0 0.000116681)
(0.00209058 0 6.80432e-05)
(0 0 0)
(0.00030601 0 3.36094e-05)
(0.000585548 0 6.48175e-05)
(0.00083274 0 9.33563e-05)
(0.00105062 0 0.000119813)
(0.00124196 0 0.000144651)
(0.00140926 0 0.000168235)
(0.00155477 0 0.000190845)
(0.00168055 0 0.000212688)
(0.00178846 0 0.000233911)
(0.00188017 0 0.000254599)
(0.00195724 0 0.000274785)
(0.00202108 0 0.000294443)
(0.002073 0 0.000313493)
(0.00211424 0 0.000331793)
(0.00214596 0 0.000349137)
(0.00216931 0 0.000365246)
(0.00218539 0 0.000379761)
(0.00219537 0 0.000392232)
(0.00220041 0 0.000402104)
(0.00220178 0 0.000408701)
(0.00220078 0 0.000411201)
(0.00219879 0 0.000408614)
(0.00219711 0 0.000399761)
(0.00219678 0 0.000383304)
(0.00219814 0 0.000357892)
(0.00220033 0 0.000322625)
(0.0022009 0 0.00027814)
(0.00219666 0 0.000228773)
(0.00218737 0 0.000186034)
(0.00216182 0 0.00012491)
(0 0 0)
(0.000306515 0 3.80414e-05)
(0.000586581 0 7.33642e-05)
(0.000834365 0 0.000105664)
(0.00105295 0 0.000135606)
(0.00124514 0 0.000163717)
(0.00141346 0 0.00019041)
(0.00156021 0 0.000216008)
(0.00168748 0 0.000240752)
(0.00179715 0 0.000264817)
(0.00189096 0 0.000288314)
(0.00197051 0 0.000311297)
(0.00203725 0 0.000333764)
(0.00209257 0 0.000355657)
(0.00213776 0 0.000376861)
(0.00217407 0 0.000397195)
(0.0022027 0 0.000416415)
(0.00222484 0 0.000434198)
(0.00224168 0 0.000450137)
(0.00225441 0 0.000463724)
(0.0022642 0 0.000474336)
(0.0022722 0 0.000481208)
(0.00227939 0 0.000483416)
(0.00228649 0 0.000479875)
(0.00229363 0 0.000469375)
(0.00230011 0 0.000450742)
(0.00230412 0 0.000423204)
(0.00230304 0 0.000387144)
(0.00229494 0 0.000345552)
(0.0022822 0 0.000307133)
(0.00225142 0 0.000226895)
(0 0 0)
(0.000307032 0 4.23287e-05)
(0.000587643 0 8.16311e-05)
(0.000836043 0 0.000117568)
(0.00105536 0 0.000150879)
(0.00124844 0 0.000182151)
(0.00141785 0 0.000211849)
(0.0015659 0 0.000240333)
(0.00169473 0 0.00026788)
(0.00180626 0 0.000294695)
(0.00190226 0 0.000320918)
(0.00198438 0 0.000346628)
(0.00205412 0 0.000371853)
(0.00211292 0 0.000396564)
(0.00216212 0 0.000420681)
(0.00220304 0 0.000444069)
(0.00223694 0 0.000466534)
(0.00226503 0 0.000487822)
(0.00228854 0 0.000507609)
(0.00230862 0 0.000525495)
(0.0023264 0 0.000540991)
(0.00234283 0 0.000553513)
(0.00235865 0 0.000562377)
(0.00237417 0 0.000566814)
(0.0023891 0 0.000566035)
(0.00240233 0 0.00055937)
(0.00241192 0 0.000546528)
(0.00241557 0 0.00052803)
(0.00241191 0 0.000505894)
(0.00240319 0 0.000485111)
(0.00236992 0 0.000434062)
(0 0 0)
(0.000307543 0 4.64553e-05)
(0.000588697 0 8.95875e-05)
(0.00083772 0 0.000129023)
(0.00105779 0 0.000165574)
(0.00125178 0 0.000199884)
(0.0014223 0 0.000232465)
(0.0015717 0 0.000263719)
(0.00170213 0 0.000293957)
(0.00181556 0 0.000323414)
(0.0019138 0 0.000352259)
(0.00199851 0 0.000380602)
(0.00207126 0 0.0004085)
(0.00213353 0 0.000435963)
(0.00218671 0 0.000462953)
(0.00223214 0 0.00048939)
(0.00227111 0 0.000515147)
(0.0023049 0 0.000540058)
(0.0023347 0 0.000563911)
(0.00236167 0 0.000586453)
(0.00238684 0 0.000607388)
(0.00241107 0 0.000626388)
(0.00243497 0 0.000643102)
(0.00245871 0 0.0006572)
(0.00248192 0 0.000668434)
(0.00250358 0 0.000676757)
(0.00252211 0 0.000682499)
(0.00253573 0 0.000686558)
(0.00254327 0 0.000690453)
(0.00254548 0 0.000695413)
(0.0025457 0 0.000723942)
(0 0 0)
(0.000308028 0 5.0406e-05)
(0.000589705 0 9.7204e-05)
(0.000839338 0 0.000139987)
(0.00106015 0 0.000179635)
(0.00125506 0 0.000216847)
(0.0014267 0 0.000252179)
(0.00157745 0 0.000286073)
(0.0017095 0 0.000318873)
(0.00182483 0 0.000350845)
(0.00192529 0 0.000382186)
(0.00201258 0 0.000413038)
(0.00208829 0 0.000443492)
(0.00215392 0 0.000473596)
(0.00221092 0 0.000503361)
(0.00226064 0 0.000532762)
(0.00230441 0 0.000561751)
(0.00234348 0 0.000590255)
(0.00237906 0 0.000618187)
(0.00241227 0 0.000645454)
(0.00244409 0 0.00067197)
(0.00247536 0 0.000697676)
(0.00250662 0 0.000722566)
(0.00253808 0 0.000746722)
(0.00256954 0 0.000770367)
(0.00260031 0 0.000793897)
(0.00262932 0 0.000817877)
(0.00265517 0 0.000842877)
(0.00267629 0 0.000868811)
(0.00269079 0 0.000892644)
(0.00271391 0 0.000949373)
(0 0 0)
(0.000308467 0 5.41664e-05)
(0.000590626 0 0.000104453)
(0.000840839 0 0.00015042)
(0.00106238 0 0.00019301)
(0.00125818 0 0.000232975)
(0.00143093 0 0.000270914)
(0.00158301 0 0.000307305)
(0.00171665 0 0.000342522)
(0.00183384 0 0.000376863)
(0.00193647 0 0.000410553)
(0.00202625 0 0.000443764)
(0.00210479 0 0.000476621)
(0.00217364 0 0.000509209)
(0.00223422 0 0.000541585)
(0.00228793 0 0.000573785)
(0.00233608 0 0.00060583)
(0.00237992 0 0.000637739)
(0.00242063 0 0.000669542)
(0.0024593 0 0.000701294)
(0.00249689 0 0.000733093)
(0.0025342 0 0.000765109)
(0.00257179 0 0.000797605)
(0.00260998 0 0.000830961)
(0.00264877 0 0.000865667)
(0.00268787 0 0.000902245)
(0.00272661 0 0.000940993)
(0.00276383 0 0.000981383)
(0.00279732 0 0.00102082)
(0.00282258 0 0.00105254)
(0.00284584 0 0.0010907)
(0 0 0)
(0.000308837 0 5.77229e-05)
(0.00059142 0 0.000111308)
(0.000842162 0 0.000160284)
(0.00106438 0 0.000205651)
(0.00126105 0 0.00024821)
(0.00143485 0 0.000288599)
(0.00158823 0 0.000327328)
(0.00172339 0 0.000364805)
(0.00184238 0 0.000401352)
(0.00194708 0 0.000437223)
(0.00203922 0 0.000472616)
(0.00212043 0 0.000507687)
(0.00219225 0 0.000542557)
(0.00225613 0 0.000577324)
(0.00231344 0 0.000612073)
(0.00236547 0 0.000646889)
(0.00241347 0 0.000681866)
(0.00245858 0 0.000717126)
(0.00250184 0 0.000752834)
(0.00254416 0 0.000789223)
(0.00258631 0 0.000826606)
(0.00262888 0 0.0008654)
(0.00267225 0 0.000906113)
(0.00271657 0 0.000949291)
(0.00276179 0 0.000995347)
(0.0028075 0 0.00104416)
(0.00285266 0 0.00109425)
(0.00289472 0 0.00114131)
(0.00292762 0 0.0011765)
(0.00299151 0 0.00122057)
(0 0 0)
(0.000309117 0 6.10628e-05)
(0.000592044 0 0.000117745)
(0.000843249 0 0.000169544)
(0.00106608 0 0.000217514)
(0.00126355 0 0.000262497)
(0.00143836 0 0.000305168)
(0.00159295 0 0.000346069)
(0.00172957 0 0.000385633)
(0.00185025 0 0.000424207)
(0.00195689 0 0.000462071)
(0.00205122 0 0.000499445)
(0.00213489 0 0.000536512)
(0.00220941 0 0.000573421)
(0.00227622 0 0.000610304)
(0.00233669 0 0.000647284)
(0.00239207 0 0.000684491)
(0.00244357 0 0.000722072)
(0.00249226 0 0.000760205)
(0.00253915 0 0.00079912)
(0.00258507 0 0.000839106)
(0.00263075 0 0.000880528)
(0.00267672 0 0.00092382)
(0.00272334 0 0.000969451)
(0.00277079 0 0.00101784)
(0.00281901 0 0.00106918)
(0.00286757 0 0.00112303)
(0.00291542 0 0.00117771)
(0.00295998 0 0.00122918)
(0.00299508 0 0.00126916)
(0.00302981 0 0.00130052)
(0 0 0)
(0.000309288 0 6.42052e-05)
(0.00059246 0 0.000123798)
(0.000844043 0 0.000178247)
(0.00106742 0 0.000228657)
(0.00126562 0 0.000275906)
(0.00144136 0 0.000320703)
(0.00159709 0 0.000363615)
(0.00173506 0 0.000405101)
(0.00185732 0 0.000445529)
(0.00196576 0 0.000485197)
(0.00206211 0 0.000524349)
(0.00214799 0 0.000563185)
(0.00222492 0 0.000601875)
(0.00229432 0 0.000640575)
(0.00235749 0 0.000679434)
(0.00241568 0 0.000718604)
(0.00247001 0 0.000758257)
(0.0025215 0 0.000798594)
(0.00257106 0 0.000839852)
(0.00261947 0 0.000882311)
(0.00266734 0 0.000926292)
(0.00271511 0 0.00097213)
(0.00276303 0 0.00102012)
(0.00281112 0 0.0010704)
(0.00285911 0 0.00112283)
(0.00290631 0 0.00117663)
(0.00295128 0 0.00123012)
(0.00299149 0 0.00128028)
(0.00302207 0 0.0013216)
(0.00309107 0 0.00143207)
(0 0 0)
(0.000304048 0 0)
(0.000581537 0 0)
(0.000826456 0 0)
(0.00104168 0 0)
(0.00122982 0 0)
(0.00139326 0 0)
(0.0015341 0 0)
(0.00165424 0 0)
(0.00175538 0 0)
(0.001839 0 0)
(0.0019064 0 0)
(0.00195874 0 0)
(0.00199699 0 0)
(0.00202198 0 0)
(0.00203442 0 0)
(0.00203488 0 0)
(0.0020238 0 0)
(0.0020015 0 0)
(0.00196816 0 0)
(0.00192379 0 0)
(0.00186818 0 0)
(0.00180075 0 0)
(0.00172038 0 0)
(0.00162497 0 0)
(0.00151094 0 0)
(0.00137262 0 0)
(0.00120251 0 0)
(0.000996424 0 0)
(0.000780049 0 0)
(0 0 0)
(0 0 0)
(0.000304079 0 4.94795e-06)
(0.000581616 0 9.54238e-06)
(0.000826588 0 1.37437e-05)
(0.00104187 0 1.76381e-05)
(0.00123009 0 2.12931e-05)
(0.00139361 0 2.47607e-05)
(0.00153456 0 2.80797e-05)
(0.00165483 0 3.12772e-05)
(0.00175612 0 3.43691e-05)
(0.00183993 0 3.7361e-05)
(0.00190756 0 4.02474e-05)
(0.00196017 0 4.30117e-05)
(0.00199874 0 4.56251e-05)
(0.00202413 0 4.80459e-05)
(0.00203705 0 5.02198e-05)
(0.00203808 0 5.20799e-05)
(0.00202771 0 5.35512e-05)
(0.00200629 0 5.45579e-05)
(0.00197406 0 5.504e-05)
(0.00193114 0 5.49829e-05)
(0.00187747 0 5.44691e-05)
(0.00181279 0 5.37668e-05)
(0.00173648 0 5.34743e-05)
(0.00164743 0 5.47514e-05)
(0.00154391 0 5.96699e-05)
(0.00142362 0 7.16786e-05)
(0.00128496 0 9.59207e-05)
(0.00113196 0 0.000137976)
(0.00099029 0 0.000194774)
(0.000787041 0 0.000434224)
(0 0 0)
(0.000304212 0 9.8788e-06)
(0.000581887 0 1.90519e-05)
(0.000827012 0 2.74405e-05)
(0.00104248 0 3.52164e-05)
(0.00123091 0 4.25147e-05)
(0.00139469 0 4.94395e-05)
(0.00153595 0 5.60687e-05)
(0.00165661 0 6.24567e-05)
(0.00175836 0 6.86365e-05)
(0.00184272 0 7.46199e-05)
(0.00191102 0 8.03977e-05)
(0.00196442 0 8.59384e-05)
(0.00200396 0 9.1187e-05)
(0.00203051 0 9.6063e-05)
(0.00204482 0 0.00010046)
(0.00204755 0 0.000104248)
(0.00203926 0 0.000107276)
(0.0020204 0 0.000109386)
(0.00199139 0 0.000110442)
(0.00195261 0 0.000110372)
(0.00190442 0 0.000109254)
(0.00184729 0 0.000107444)
(0.00178184 0 0.000105782)
(0.0017092 0 0.00010589)
(0.00163147 0 0.000110539)
(0.00155292 0 0.00012398)
(0.00148189 0 0.000151688)
(0.00143292 0 0.000197808)
(0.00142219 0 0.000255145)
(0.00157194 0 0.000406568)
(0 0 0)
(0.000304432 0 1.47738e-05)
(0.000582336 0 2.84924e-05)
(0.000827712 0 4.1038e-05)
(0.00104347 0 5.26678e-05)
(0.00123225 0 6.3584e-05)
(0.00139646 0 7.3943e-05)
(0.00153824 0 8.38621e-05)
(0.00165951 0 9.3424e-05)
(0.00176202 0 0.00010268)
(0.00184728 0 0.00011165)
(0.00191666 0 0.000120325)
(0.00197137 0 0.000128661)
(0.00201247 0 0.000136581)
(0.00204089 0 0.000143974)
(0.00205747 0 0.000150686)
(0.00206292 0 0.000156528)
(0.00205793 0 0.000161276)
(0.00204312 0 0.000164686)
(0.00201912 0 0.000166519)
(0.00198663 0 0.000166588)
(0.00194654 0 0.000164838)
(0.00190008 0 0.000161463)
(0.00184916 0 0.000157077)
(0.00179685 0 0.000152912)
(0.00174822 0 0.000150961)
(0.0017114 0 0.000153868)
(0.00169832 0 0.00016406)
(0.00172212 0 0.000181384)
(0.00178122 0 0.000199253)
(0.00202532 0 0.000204378)
(0 0 0)
(0.000304733 0 1.96132e-05)
(0.000582947 0 3.78258e-05)
(0.000828666 0 5.44811e-05)
(0.00104482 0 6.99212e-05)
(0.00123409 0 8.4415e-05)
(0.00139887 0 9.8171e-05)
(0.00154135 0 0.000111346)
(0.00166348 0 0.000124054)
(0.00176701 0 0.000136364)
(0.0018535 0 0.000148308)
(0.00192435 0 0.000159881)
(0.00198082 0 0.000171032)
(0.00202402 0 0.00018167)
(0.00205495 0 0.000191658)
(0.00207453 0 0.000200808)
(0.0020836 0 0.000208881)
(0.00208294 0 0.000215587)
(0.00207336 0 0.000220596)
(0.0020557 0 0.000223552)
(0.00203097 0 0.000224109)
(0.00200045 0 0.000221979)
(0.0019659 0 0.000217011)
(0.00192993 0 0.000209273)
(0.00189635 0 0.000199125)
(0.00187076 0 0.00018719)
(0.00186069 0 0.000174103)
(0.00187459 0 0.0001599)
(0.00191702 0 0.000143425)
(0.00197567 0 0.000124448)
(0.00210758 0 5.06654e-05)
(0 0 0)
(0.000305104 0 2.43778e-05)
(0.000583702 0 4.70146e-05)
(0.000829847 0 6.77159e-05)
(0.0010465 0 8.69071e-05)
(0.00123636 0 0.000104923)
(0.00140187 0 0.000122025)
(0.00154522 0 0.00013841)
(0.0016684 0 0.000154221)
(0.00177319 0 0.000169552)
(0.00186119 0 0.000184449)
(0.00193385 0 0.000198913)
(0.00199248 0 0.000212896)
(0.00203824 0 0.0002263)
(0.00207223 0 0.000238973)
(0.00209544 0 0.000250705)
(0.00210881 0 0.000261223)
(0.00211327 0 0.000270186)
(0.00210977 0 0.000277193)
(0.00209934 0 0.00028178)
(0.00208316 0 0.000283435)
(0.0020627 0 0.000281615)
(0.0020399 0 0.000275773)
(0.00201729 0 0.000265373)
(0.00199824 0 0.000249899)
(0.0019869 0 0.00022884)
(0.00198766 0 0.0002017)
(0.00200333 0 0.000168274)
(0.00203137 0 0.000129939)
(0.00205937 0 9.37358e-05)
(0.00207075 0 2.60811e-05)
(0 0 0)
(0.000305534 0 2.90491e-05)
(0.000584578 0 5.60233e-05)
(0.000831218 0 8.06908e-05)
(0.00104845 0 0.000103559)
(0.00123901 0 0.000125028)
(0.00140536 0 0.00014541)
(0.00154973 0 0.000164944)
(0.00167414 0 0.000183805)
(0.0017804 0 0.000202112)
(0.00187016 0 0.000219928)
(0.00194491 0 0.000237268)
(0.00200602 0 0.000254091)
(0.00205473 0 0.000270303)
(0.00209219 0 0.000285751)
(0.00211949 0 0.000300218)
(0.00213769 0 0.000313415)
(0.00214782 0 0.000324979)
(0.00215093 0 0.000334462)
(0.00214817 0 0.000341328)
(0.0021408 0 0.000344942)
(0.00213029 0 0.000344565)
(0.00211836 0 0.00033934)
(0.00210703 0 0.000328278)
(0.00209853 0 0.00031027)
(0.00209493 0 0.000284168)
(0.00209743 0 0.000249135)
(0.00210504 0 0.000205641)
(0.00211332 0 0.000157711)
(0.00211604 0 0.000116681)
(0.00209058 0 6.80432e-05)
(0 0 0)
(0.00030601 0 3.36094e-05)
(0.000585548 0 6.48175e-05)
(0.00083274 0 9.33563e-05)
(0.00105062 0 0.000119813)
(0.00124196 0 0.000144651)
(0.00140926 0 0.000168235)
(0.00155477 0 0.000190845)
(0.00168055 0 0.000212688)
(0.00178846 0 0.000233911)
(0.00188017 0 0.000254599)
(0.00195724 0 0.000274785)
(0.00202108 0 0.000294443)
(0.002073 0 0.000313493)
(0.00211424 0 0.000331793)
(0.00214596 0 0.000349137)
(0.00216931 0 0.000365246)
(0.00218539 0 0.000379761)
(0.00219537 0 0.000392232)
(0.00220041 0 0.000402104)
(0.00220178 0 0.000408701)
(0.00220078 0 0.000411201)
(0.00219879 0 0.000408614)
(0.00219711 0 0.000399761)
(0.00219678 0 0.000383304)
(0.00219814 0 0.000357892)
(0.00220033 0 0.000322625)
(0.0022009 0 0.00027814)
(0.00219666 0 0.000228773)
(0.00218737 0 0.000186034)
(0.00216182 0 0.00012491)
(0 0 0)
(0.000306515 0 3.80414e-05)
(0.000586581 0 7.33642e-05)
(0.000834365 0 0.000105664)
(0.00105295 0 0.000135606)
(0.00124514 0 0.000163717)
(0.00141346 0 0.00019041)
(0.00156021 0 0.000216008)
(0.00168748 0 0.000240752)
(0.00179715 0 0.000264817)
(0.00189096 0 0.000288314)
(0.00197051 0 0.000311297)
(0.00203725 0 0.000333764)
(0.00209257 0 0.000355657)
(0.00213776 0 0.000376861)
(0.00217407 0 0.000397195)
(0.0022027 0 0.000416415)
(0.00222484 0 0.000434198)
(0.00224168 0 0.000450137)
(0.00225441 0 0.000463724)
(0.0022642 0 0.000474336)
(0.0022722 0 0.000481208)
(0.00227939 0 0.000483416)
(0.00228649 0 0.000479875)
(0.00229363 0 0.000469375)
(0.00230011 0 0.000450742)
(0.00230412 0 0.000423204)
(0.00230304 0 0.000387144)
(0.00229494 0 0.000345552)
(0.0022822 0 0.000307133)
(0.00225142 0 0.000226895)
(0 0 0)
(0.000307032 0 4.23287e-05)
(0.000587643 0 8.16311e-05)
(0.000836043 0 0.000117568)
(0.00105536 0 0.000150879)
(0.00124844 0 0.000182151)
(0.00141785 0 0.000211849)
(0.0015659 0 0.000240333)
(0.00169473 0 0.00026788)
(0.00180626 0 0.000294695)
(0.00190226 0 0.000320918)
(0.00198438 0 0.000346628)
(0.00205412 0 0.000371853)
(0.00211292 0 0.000396564)
(0.00216212 0 0.000420681)
(0.00220304 0 0.000444069)
(0.00223694 0 0.000466534)
(0.00226503 0 0.000487822)
(0.00228854 0 0.000507609)
(0.00230862 0 0.000525495)
(0.0023264 0 0.000540991)
(0.00234283 0 0.000553513)
(0.00235865 0 0.000562377)
(0.00237417 0 0.000566814)
(0.0023891 0 0.000566035)
(0.00240233 0 0.00055937)
(0.00241192 0 0.000546528)
(0.00241557 0 0.00052803)
(0.00241191 0 0.000505894)
(0.00240319 0 0.000485111)
(0.00236992 0 0.000434062)
(0 0 0)
(0.000307543 0 4.64553e-05)
(0.000588697 0 8.95875e-05)
(0.00083772 0 0.000129023)
(0.00105779 0 0.000165574)
(0.00125178 0 0.000199884)
(0.0014223 0 0.000232465)
(0.0015717 0 0.000263719)
(0.00170213 0 0.000293957)
(0.00181556 0 0.000323414)
(0.0019138 0 0.000352259)
(0.00199851 0 0.000380602)
(0.00207126 0 0.0004085)
(0.00213353 0 0.000435963)
(0.00218671 0 0.000462953)
(0.00223214 0 0.00048939)
(0.00227111 0 0.000515147)
(0.0023049 0 0.000540058)
(0.0023347 0 0.000563911)
(0.00236167 0 0.000586453)
(0.00238684 0 0.000607388)
(0.00241107 0 0.000626388)
(0.00243497 0 0.000643102)
(0.00245871 0 0.0006572)
(0.00248192 0 0.000668434)
(0.00250358 0 0.000676757)
(0.00252211 0 0.000682499)
(0.00253573 0 0.000686558)
(0.00254327 0 0.000690453)
(0.00254548 0 0.000695413)
(0.0025457 0 0.000723942)
(0 0 0)
(0.000308028 0 5.0406e-05)
(0.000589705 0 9.7204e-05)
(0.000839338 0 0.000139987)
(0.00106015 0 0.000179635)
(0.00125506 0 0.000216847)
(0.0014267 0 0.000252179)
(0.00157745 0 0.000286073)
(0.0017095 0 0.000318873)
(0.00182483 0 0.000350845)
(0.00192529 0 0.000382186)
(0.00201258 0 0.000413038)
(0.00208829 0 0.000443492)
(0.00215392 0 0.000473596)
(0.00221092 0 0.000503361)
(0.00226064 0 0.000532762)
(0.00230441 0 0.000561751)
(0.00234348 0 0.000590255)
(0.00237906 0 0.000618187)
(0.00241227 0 0.000645454)
(0.00244409 0 0.00067197)
(0.00247536 0 0.000697676)
(0.00250662 0 0.000722566)
(0.00253808 0 0.000746722)
(0.00256954 0 0.000770367)
(0.00260031 0 0.000793897)
(0.00262932 0 0.000817877)
(0.00265517 0 0.000842877)
(0.00267629 0 0.000868811)
(0.00269079 0 0.000892644)
(0.00271391 0 0.000949373)
(0 0 0)
(0.000308467 0 5.41664e-05)
(0.000590626 0 0.000104453)
(0.000840839 0 0.00015042)
(0.00106238 0 0.00019301)
(0.00125818 0 0.000232975)
(0.00143093 0 0.000270914)
(0.00158301 0 0.000307305)
(0.00171665 0 0.000342522)
(0.00183384 0 0.000376863)
(0.00193647 0 0.000410553)
(0.00202625 0 0.000443764)
(0.00210479 0 0.000476621)
(0.00217364 0 0.000509209)
(0.00223422 0 0.000541585)
(0.00228793 0 0.000573785)
(0.00233608 0 0.00060583)
(0.00237992 0 0.000637739)
(0.00242063 0 0.000669542)
(0.0024593 0 0.000701294)
(0.00249689 0 0.000733093)
(0.0025342 0 0.000765109)
(0.00257179 0 0.000797605)
(0.00260998 0 0.000830961)
(0.00264877 0 0.000865667)
(0.00268787 0 0.000902245)
(0.00272661 0 0.000940993)
(0.00276383 0 0.000981383)
(0.00279732 0 0.00102082)
(0.00282258 0 0.00105254)
(0.00284584 0 0.0010907)
(0 0 0)
(0.000308837 0 5.77229e-05)
(0.00059142 0 0.000111308)
(0.000842162 0 0.000160284)
(0.00106438 0 0.000205651)
(0.00126105 0 0.00024821)
(0.00143485 0 0.000288599)
(0.00158823 0 0.000327328)
(0.00172339 0 0.000364805)
(0.00184238 0 0.000401352)
(0.00194708 0 0.000437223)
(0.00203922 0 0.000472616)
(0.00212043 0 0.000507687)
(0.00219225 0 0.000542557)
(0.00225613 0 0.000577324)
(0.00231344 0 0.000612073)
(0.00236547 0 0.000646889)
(0.00241347 0 0.000681866)
(0.00245858 0 0.000717126)
(0.00250184 0 0.000752834)
(0.00254416 0 0.000789223)
(0.00258631 0 0.000826606)
(0.00262888 0 0.0008654)
(0.00267225 0 0.000906113)
(0.00271657 0 0.000949291)
(0.00276179 0 0.000995347)
(0.0028075 0 0.00104416)
(0.00285266 0 0.00109425)
(0.00289472 0 0.00114131)
(0.00292762 0 0.0011765)
(0.00299151 0 0.00122057)
(0 0 0)
(0.000309117 0 6.10628e-05)
(0.000592044 0 0.000117745)
(0.000843249 0 0.000169544)
(0.00106608 0 0.000217514)
(0.00126355 0 0.000262497)
(0.00143836 0 0.000305168)
(0.00159295 0 0.000346069)
(0.00172957 0 0.000385633)
(0.00185025 0 0.000424207)
(0.00195689 0 0.000462071)
(0.00205122 0 0.000499445)
(0.00213489 0 0.000536512)
(0.00220941 0 0.000573421)
(0.00227622 0 0.000610304)
(0.00233669 0 0.000647284)
(0.00239207 0 0.000684491)
(0.00244357 0 0.000722072)
(0.00249226 0 0.000760205)
(0.00253915 0 0.00079912)
(0.00258507 0 0.000839106)
(0.00263075 0 0.000880528)
(0.00267672 0 0.00092382)
(0.00272334 0 0.000969451)
(0.00277079 0 0.00101784)
(0.00281901 0 0.00106918)
(0.00286757 0 0.00112303)
(0.00291542 0 0.00117771)
(0.00295998 0 0.00122918)
(0.00299508 0 0.00126916)
(0.00302981 0 0.00130052)
(0 0 0)
(0.000309288 0 6.42052e-05)
(0.00059246 0 0.000123798)
(0.000844043 0 0.000178247)
(0.00106742 0 0.000228657)
(0.00126562 0 0.000275906)
(0.00144136 0 0.000320703)
(0.00159709 0 0.000363615)
(0.00173506 0 0.000405101)
(0.00185732 0 0.000445529)
(0.00196576 0 0.000485197)
(0.00206211 0 0.000524349)
(0.00214799 0 0.000563185)
(0.00222492 0 0.000601875)
(0.00229432 0 0.000640575)
(0.00235749 0 0.000679434)
(0.00241568 0 0.000718604)
(0.00247001 0 0.000758257)
(0.0025215 0 0.000798594)
(0.00257106 0 0.000839852)
(0.00261947 0 0.000882311)
(0.00266734 0 0.000926292)
(0.00271511 0 0.00097213)
(0.00276303 0 0.00102012)
(0.00281112 0 0.0010704)
(0.00285911 0 0.00112283)
(0.00290631 0 0.00117663)
(0.00295128 0 0.00123012)
(0.00299149 0 0.00128028)
(0.00302207 0 0.0013216)
(0.00309107 0 0.00143207)
(0 0 0)
(0.00079682 0 0)
(0.00101812 0 0)
(0.00122466 0 0)
(0.00139265 0 0)
(0.00152747 0 0)
(0.00163743 0 0)
(0.00172867 0 0)
(0.00180504 0 0)
(0.00186878 0 0)
(0.0019211 0 0)
(0.00196258 0 0)
(0.00199345 0 0)
(0.00201366 0 0)
(0.002023 0 0)
(0.00202113 0 0)
(0.00200758 0 0)
(0.00198177 0 0)
(0.00194297 0 0)
(0.00189033 0 0)
(0.00182287 0 0)
(0.00173945 0 0)
(0.00163875 0 0)
(0.00151931 0 0)
(0.00137945 0 0)
(0.00121731 0 0)
(0.00103079 0 0)
(0.000817577 0 0)
(0.000575124 0 0)
(0.000300622 0 0)
(0 0 0)
(0.000789508 0 -0.000442265)
(0.00100583 0 -0.00019312)
(0.00115264 0 -0.00013125)
(0.00130612 0 -8.0249e-05)
(0.00144268 0 -4.43568e-05)
(0.00155954 0 -1.93486e-05)
(0.00165909 0 -1.43993e-06)
(0.00174407 0 1.17288e-05)
(0.00181648 0 2.15219e-05)
(0.00187758 0 2.87538e-05)
(0.00192804 0 3.39579e-05)
(0.00196816 0 3.7523e-05)
(0.00199798 0 3.97562e-05)
(0.00201736 0 4.0911e-05)
(0.00202604 0 4.11991e-05)
(0.00202363 0 4.07967e-05)
(0.00200963 0 3.98482e-05)
(0.00198345 0 3.84699e-05)
(0.00194434 0 3.67535e-05)
(0.00189145 0 3.47688e-05)
(0.00182377 0 3.25672e-05)
(0.00174017 0 3.01838e-05)
(0.00163933 0 2.76392e-05)
(0.00151976 0 2.49413e-05)
(0.0013798 0 2.2086e-05)
(0.00121757 0 1.90575e-05)
(0.00103098 0 1.58282e-05)
(0.000817711 0 1.23577e-05)
(0.000575206 0 8.59127e-06)
(0.000300655 0 4.45794e-06)
(0 0 0)
(0.00157771 0 -0.000406921)
(0.00143539 0 -0.000247615)
(0.00145057 0 -0.000179822)
(0.0014999 0 -0.000115682)
(0.00156896 0 -6.44971e-05)
(0.00164433 0 -2.50649e-05)
(0.0017184 0 5.27596e-06)
(0.00178733 0 2.8644e-05)
(0.00184921 0 4.65019e-05)
(0.00190307 0 5.98793e-05)
(0.00194833 0 6.95587e-05)
(0.00198454 0 7.61781e-05)
(0.00201133 0 8.02776e-05)
(0.0020283 0 8.23214e-05)
(0.00203504 0 8.27056e-05)
(0.00203103 0 8.17635e-05)
(0.00201572 0 7.97698e-05)
(0.00198844 0 7.69469e-05)
(0.00194842 0 7.347e-05)
(0.00189477 0 6.9473e-05)
(0.00182647 0 6.50541e-05)
(0.00174234 0 6.028e-05)
(0.00164106 0 5.51897e-05)
(0.00152113 0 4.97973e-05)
(0.00138086 0 4.40933e-05)
(0.00121838 0 3.80453e-05)
(0.00103158 0 3.15976e-05)
(0.000818137 0 2.4669e-05)
(0.000575481 0 1.71502e-05)
(0.000300792 0 8.89911e-06)
(0 0 0)
(0.00203133 0 -0.000194187)
(0.00179217 0 -0.00017954)
(0.00173519 0 -0.000144958)
(0.00171121 0 -9.91825e-05)
(0.00172244 0 -5.2743e-05)
(0.00175651 0 -1.07078e-05)
(0.00180204 0 2.51293e-05)
(0.00185121 0 5.44835e-05)
(0.00189913 0 7.77048e-05)
(0.00194283 0 9.53987e-05)
(0.00198043 0 0.000108262)
(0.00201072 0 0.000116999)
(0.00203282 0 0.000122279)
(0.00204601 0 0.000124709)
(0.00204964 0 0.000124822)
(0.00204308 0 0.000123076)
(0.00202565 0 0.00011985)
(0.0019966 0 0.000115453)
(0.00195511 0 0.000110129)
(0.00190022 0 0.000104065)
(0.00183088 0 9.73964e-05)
(0.00174589 0 9.02162e-05)
(0.00164389 0 8.25768e-05)
(0.00152336 0 7.44951e-05)
(0.0013826 0 6.59539e-05)
(0.00121971 0 5.69028e-05)
(0.00103257 0 4.72566e-05)
(0.000818836 0 3.68932e-05)
(0.000575932 0 2.56482e-05)
(0.000301015 0 1.33085e-05)
(0 0 0)
(0.00211806 0 -2.9983e-05)
(0.00198397 0 -8.53904e-05)
(0.00192493 0 -7.81104e-05)
(0.00188123 0 -5.26477e-05)
(0.00186538 0 -1.63302e-05)
(0.00187313 0 2.27324e-05)
(0.00189629 0 5.93881e-05)
(0.00192748 0 9.10712e-05)
(0.00196119 0 0.000116857)
(0.00199364 0 0.000136737)
(0.00202225 0 0.000151163)
(0.00204528 0 0.000160791)
(0.00206144 0 0.000166327)
(0.00206974 0 0.000168454)
(0.00206931 0 0.00016779)
(0.00205936 0 0.000164873)
(0.0020391 0 0.000160153)
(0.00200768 0 0.000154001)
(0.00196419 0 0.000146708)
(0.00190764 0 0.000138498)
(0.0018369 0 0.000129534)
(0.00175073 0 0.000119925)
(0.00164775 0 0.000109731)
(0.00152641 0 9.89673e-05)
(0.00138497 0 8.7605e-05)
(0.00122151 0 7.55736e-05)
(0.00103391 0 6.27574e-05)