/*--------------------------------*- C++ -*----------------------------------*\
| =========                 |                                                 |
| \\      /  F ield         | OpenFOAM: The Open Source CFD Toolbox           |
|  \\    /   O peration     | Version:  dev                                   |
|   \\  /    A nd           | Web:      www.OpenFOAM.org                      |
|    \\/     M anipulation  |                                                 |
\*---------------------------------------------------------------------------*/
FoamFile
{
    version     2.0;
    format      ascii;
    class       surfaceVectorField;
    location    "0.09";
    object      Uf;
}
// * * * * * * * * * * * * * * * * * * * * * * * * * * * * * * * * * * * * * //

dimensions      [0 1 -1 0 0 0 0];

internalField   nonuniform List<vector> 
5457
(
(9.92154 3.24897e-22 0.023603)
(9.97 -5.95087e-24 0.0383413)
(9.82844 3.43795e-22 0.030928)
(9.93005 6.70765e-22 0.0466046)
(9.71904 7.01138e-22 0.0367662)
(9.8612 -1.65955e-23 0.0561064)
(9.59129 1.82575e-22 0.042398)
(9.7661 -6.92378e-22 0.0671128)
(9.44535 -3.74773e-22 0.0477501)
(9.64931 1.12958e-23 0.078549)
(9.28219 -1.74551e-22 0.0527509)
(9.512 -1.23338e-23 0.0899581)
(9.10308 -2.09119e-22 0.0574879)
(9.35445 -2.46768e-23 0.101162)
(8.9093 -2.2815e-22 0.0621452)
(9.17765 -3.8431e-22 0.112123)
(8.7018 0 0.0669653)
(8.98321 0 0.122981)
(8.48099 0 0.0722157)
(8.77253 0 0.134062)
(8.24655 -1.84647e-22 0.0781509)
(8.54636 4.63649e-22 0.145807)
(7.9975 -2.44416e-22 0.0849846)
(8.30462 6.00292e-23 0.158669)
(7.73234 7.51468e-23 0.0928793)
(8.04651 1.94183e-22 0.173043)
(7.44928 -6.79395e-24 0.101951)
(7.77066 -3.98062e-22 0.189224)
(7.14639 1.23251e-23 0.11228)
(7.47538 -4.30415e-22 0.207411)
(6.82176 1.4661e-22 0.123913)
(7.15881 8.86825e-22 0.227705)
(6.47365 2.54446e-22 0.136873)
(6.81912 -9.21919e-22 0.250119)
(6.10059 -9.77427e-23 0.151146)
(6.45464 3.32597e-22 0.274576)
(5.70146 -3.32685e-22 0.166684)
(6.06396 -3.42582e-22 0.300898)
(5.2757 5.64095e-24 0.183384)
(5.64611 -1.46236e-21 0.328789)
(4.82336 0 0.20109)
(5.20063 1.60332e-21 0.357819)
(4.34524 -1.77525e-21 0.219578)
(4.72778 -3.25358e-21 0.38741)
(3.84304 5.61407e-23 0.23857)
(4.2286 5.03852e-21 0.41684)
(3.31938 1.27977e-21 0.257732)
(3.70508 -1.74182e-21 0.445259)
(2.77787 3.56105e-21 0.276704)
(3.16022 -8.01063e-21 0.471731)
(2.22298 6.12781e-21 0.295113)
(2.59799 9.78498e-21 0.495301)
(1.65999 -6.48085e-21 0.312567)
(2.02335 4.11512e-21 0.515052)
(1.09478 -8.46161e-21 0.328814)
(1.442 -8.56089e-21 0.530115)
(0.533107 0 0.338641)
(0.856209 3.55554e-20 0.539983)
(0.355499 1.8521e-20 0.525445)
(9.99817 3.54029e-22 0.0492816)
(9.99605 -1.64174e-21 0.0392348)
(9.96255 3.03015e-22 0.0677093)
(9.9802 7.15763e-24 0.0644407)
(9.90369 -1.41678e-21 0.0842997)
(9.93866 -3.55395e-22 0.0862898)
(9.82151 -8.5475e-22 0.101854)
(9.8704 -1.09729e-21 0.110292)
(9.71465 3.73146e-22 0.120065)
(9.77776 2.28788e-22 0.136066)
(9.58293 1.37306e-22 0.138335)
(9.6611 -5.65774e-22 0.16258)
(9.42737 -2.04046e-22 0.156324)
(9.52036 -4.9577e-23 0.189029)
(9.24972 -1.5142e-22 0.17398)
(9.3565 2.54807e-22 0.214908)
(9.05199 0 0.191566)
(9.17141 0 0.240174)
(8.83584 4.69217e-22 0.209609)
(8.96706 -8.83138e-22 0.265298)
(8.6022 7.04023e-22 0.228779)
(8.74489 6.95248e-22 0.291116)
(8.35116 5.00716e-22 0.249738)
(8.50548 3.94086e-24 0.318605)
(8.08203 -2.86298e-22 0.27305)
(8.24856 2.5752e-22 0.348679)
(7.79353 -8.22022e-22 0.299129)
(7.97316 -5.34152e-22 0.382083)
(7.48403 4.59259e-22 0.328241)
(7.67778 2.64375e-22 0.419348)
(7.15173 -2.03852e-22 0.360502)
(7.36068 1.63314e-21 0.460794)
(6.79485 -8.2818e-22 0.395888)
(7.01999 -3.07458e-21 0.506542)
(6.41178 8.07094e-23 0.434228)
(6.6539 1.35979e-21 0.556515)
(6.00121 -1.48577e-21 0.475184)
(6.26081 0 0.610422)
(5.56231 1.67967e-22 0.51823)
(5.83943 -1.47378e-21 0.667725)
(5.09483 -1.70866e-21 0.562632)
(5.38897 1.50855e-21 0.727608)
(4.59927 3.64594e-21 0.607442)
(4.90925 -6.47021e-21 0.788945)
(4.07702 3.16709e-21 0.651518)
(4.40087 1.68596e-20 0.850288)
(3.53051 -1.10968e-20 0.693572)
(3.86539 -3.37735e-21 0.909889)
(2.96322 -1.61204e-21 0.732265)
(3.30543 -1.43686e-20 0.965769)
(2.37975 7.80592e-21 0.766326)
(2.72477 7.98364e-21 1.01583)
(1.78564 2.02023e-21 0.794646)
(2.12833 1.03884e-21 1.058)
(1.18718 3.59545e-20 0.816542)
(1.52231 -2.09797e-21 1.09031)
(0.590572 5.54067e-20 0.820738)
(0.906491 3.33354e-20 1.11171)
(0.374819 3.65844e-20 1.0948)
(9.99071 -1.97053e-21 0.0569841)
(9.99375 -6.54038e-24 0.0437758)
(9.95796 -6.57392e-22 0.0860174)
(9.97525 -6.86327e-22 0.0808347)
(9.90237 -4.36195e-23 0.11485)
(9.93457 -1.34824e-21 0.114798)
(9.82448 3.36519e-24 0.146237)
(9.86918 6.64557e-22 0.151208)
(9.72304 -7.19685e-22 0.179673)
(9.78014 4.54804e-23 0.190664)
(9.59735 -7.46452e-22 0.213898)
(9.66763 6.57497e-22 0.231877)
(9.44798 4.12885e-22 0.247863)
(9.5315 -5.8443e-22 0.273393)
(9.27642 4.03081e-22 0.281052)
(9.37257 -5.02526e-22 0.314161)
(9.08457 -8.93744e-22 0.313618)
(9.19257 2.13024e-22 0.353882)
(8.87407 -6.37783e-22 0.346322)
(8.99338 -4.41609e-22 0.393099)
(8.64594 -1.29786e-23 0.380291)
(8.77645 -8.16106e-25 0.432993)
(8.4004 -2.36212e-22 0.416738)
(8.54238 -1.68153e-21 0.475032)
(8.13687 0 0.456748)
(8.291 4.96913e-22 0.520654)
(7.85417 5.61934e-22 0.501173)
(8.02138 0 0.571066)
(7.55068 1.45426e-21 0.550595)
(7.73209 1.11951e-21 0.62717)
(7.22455 -1.29449e-21 0.605339)
(7.42134 2.08207e-21 0.689552)
(6.87388 -8.34804e-22 0.665473)
(7.0872 -2.12248e-21 0.758499)
(6.49686 1.26277e-21 0.730803)
(6.72772 3.32451e-22 0.834)
(6.09189 -5.684e-24 0.800849)
(6.34104 0 0.91573)
(5.65774 -1.01301e-22 0.874797)
(5.92556 2.90746e-21 1.003)
(5.19367 -3.34869e-21 0.951458)
(5.48002 -3.22387e-21 1.09469)
(4.69965 6.99677e-21 1.02924)
(5.00373 -3.2167e-21 1.18922)
(4.17647 1.01214e-20 1.10612)
(4.49666 1.00669e-20 1.28447)
(3.62597 -6.74429e-21 1.17975)
(3.95973 1.427e-22 1.37782)
(3.05118 -4.55825e-21 1.24747)
(3.39492 -6.84105e-21 1.46616)
(2.45638 1.13157e-21 1.30658)
(2.80552 3.82643e-21 1.54608)
(1.8471 -3.11584e-21 1.3544)
(2.19616 -1.79636e-20 1.61408)
(1.22999 -4.2807e-21 1.389)
(1.5735 1.64512e-20 1.66674)
(0.612031 1.62261e-20 1.39335)
(0.935149 1.94111e-20 1.70216)
(0.384298 9.24968e-21 1.68196)
(9.98664 1.27092e-21 0.0680909)
(9.99255 8.92167e-24 0.0503032)
(9.95393 -1.38504e-21 0.10894)
(9.97232 -2.09248e-23 0.0972086)
(9.89939 -6.16642e-22 0.15043)
(9.93155 -2.16121e-23 0.142768)
(9.8229 6.98363e-22 0.19503)
(9.86747 7.50686e-22 0.191393)
(9.72351 1.42941e-21 0.24244)
(9.78044 -9.12415e-23 0.244153)
(9.60059 8.0406e-22 0.291142)
(9.6705 7.54029e-22 0.299646)
(9.45462 -1.49892e-21 0.339627)
(9.53758 1.94494e-22 0.355837)
(9.28699 -6.83986e-22 0.38705)
(9.38251 -9.06809e-22 0.41114)
(9.09951 6.56897e-22 0.433511)
(9.20691 -6.23874e-22 0.464999)
(8.89375 2.0071e-22 0.479988)
(9.01259 4.41297e-22 0.518023)
(8.67069 -1.68966e-21 0.528017)
(8.80092 6.76012e-22 0.571718)
(8.43054 -9.21898e-22 0.579296)
(8.57253 -4.87298e-22 0.628026)
(8.17274 4.90949e-22 0.63539)
(8.32721 4.96913e-22 0.688887)
(7.89613 5.71089e-22 0.697561)
(8.06407 0 0.755974)
(7.5991 1.75876e-21 0.766715)
(7.78167 5.64319e-22 0.830571)
(7.27975 1.2042e-21 0.843405)
(7.47823 1.7719e-21 0.913556)
(6.93608 -9.25913e-22 0.927845)
(7.15172 -1.1575e-21 1.00543)
(6.5661 -9.34342e-22 1.01989)
(6.80003 1.29547e-21 1.10631)
(6.16793 2.94809e-21 1.11903)
(6.42107 6.62069e-23 1.21591)
(5.73996 -2.82456e-22 1.22426)
(6.01288 2.93829e-21 1.3335)
(5.28094 -3.09182e-21 1.33408)
(5.57373 -5.84161e-21 1.45777)
(4.79025 0 1.44639)
(5.10232 0 1.58679)
(4.26799 0 1.55844)
(4.5979 0 1.71786)
(3.7153 0 1.66686)
(4.0606 0 1.84753)
(3.13457 1.67088e-21 1.76775)
(3.49164 -1.76587e-21 1.97157)
(2.52963 -1.55256e-20 1.85689)
(2.89362 3.4816e-21 2.08511)
(1.90586 1.92099e-21 1.93002)
(2.27075 -1.8873e-20 2.18297)
(1.27017 4.01848e-20 1.98388)
(1.63022 1.44307e-20 2.25997)
(0.630178 1.30723e-20 1.99548)
(0.967313 2.37078e-20 2.31318)
(0.395533 -1.77146e-20 2.29392)
(9.98477 -1.28328e-21 0.0799836)
(9.99201 -3.72708e-25 0.0577465)
(9.95171 1.34223e-21 0.131231)
(9.97096 0 0.113759)
(9.89817 1.3546e-21 0.184206)
(9.93033 2.68474e-21 0.170223)
(9.82329 -4.90453e-23 0.241241)
(9.86763 4.38205e-23 0.230732)
(9.72617 -7.56522e-22 0.302148)
(9.78284 1.44077e-21 0.296419)
(9.60627 1.37761e-22 0.365092)
(9.67583 -7.51281e-22 0.365754)
(9.46401 7.73305e-22 0.428017)
(9.54656 2.32065e-21 0.436186)
(9.30072 -8.43326e-22 0.489657)
(9.39584 -9.93237e-22 0.50561)
(9.11813 -8.26846e-22 0.549989)
(9.22525 2.0558e-22 0.573215)
(8.91777 9.19602e-22 0.61017)
(9.03654 4.37698e-22 0.639668)
(8.70059 1.86414e-21 0.672119)
(8.83104 -4.46213e-22 0.706789)
(8.46678 9.43432e-22 0.738019)
(8.60935 1.43148e-21 0.776976)
(8.21581 0 0.809916)
(8.37129 -4.87721e-22 0.852667)
(7.94652 0 0.889502)
(8.11598 -1.04246e-21 0.935996)
(7.65726 5.92001e-22 0.978033)
(7.84198 -2.46551e-23 1.02864)
(7.3461 -6.24322e-22 1.07634)
(7.54746 1.70249e-21 1.13182)
(7.01092 1.09415e-21 1.18483)
(7.23031 -1.18824e-21 1.24627)
(6.64948 2.2837e-21 1.30349)
(6.88825 2.24129e-21 1.37233)
(6.25961 9.43959e-23 1.43184)
(6.51891 -2.57489e-21 1.50985)
(5.83924 -2.71474e-21 1.56883)
(6.11992 -2.81234e-21 1.65814)
(5.38655 -2.67972e-21 1.71276)
(5.68899 8.78492e-21 1.81586)
(4.90016 0 1.86112)
(5.22408 -5.11102e-22 1.98086)
(4.37938 0 2.0105)
(4.72357 6.25854e-21 2.15002)
(3.82445 -1.78706e-21 2.15659)
(4.18657 1.64299e-21 2.31913)
(3.23693 1.0193e-22 2.29417)
(3.61326 -2.0513e-23 2.48283)
(2.62006 -1.2728e-22 2.41738)
(3.00533 -1.82436e-21 2.6347)
(1.979 -6.05898e-21 2.52008)
(2.36632 9.54436e-21 2.76759)
(1.32106 -1.93988e-21 2.59743)
(1.70404 -1.20478e-20 2.87407)
(0.654935 -6.85836e-21 2.6207)
(1.01151 2.13948e-21 2.94962)
(0.412293 -4.57472e-21 2.93584)
(9.98398 1.28315e-21 0.0921877)
(9.99182 1.27858e-21 0.0655727)
(9.95088 1.37484e-21 0.153211)
(9.97057 2.65545e-21 0.130332)
(9.89854 1.34214e-21 0.21727)
(9.93049 1.35177e-21 0.19706)
(9.82567 1.55043e-21 0.28652)
(9.86945 0 0.269018)
(9.73128 1.41965e-21 0.360642)
(9.78727 9.15473e-23 0.347218)
(9.61489 1.46853e-21 0.437433)
(9.68367 -9.2812e-23 0.429924)
(9.47693 5.14061e-22 0.514323)
(9.55861 -1.52937e-21 0.514105)
(9.31869 6.97008e-23 0.589669)
(9.41292 6.00004e-22 0.597164)
(9.14183 1.47266e-21 0.663358)
(9.24813 1.04222e-21 0.678036)
(8.94784 -9.38726e-22 0.736735)
(9.06596 2.14956e-21 0.757442)
(8.73766 -8.56034e-22 0.812104)
(8.86769 -3.13645e-21 0.837504)
(8.51149 -2.30068e-23 0.89212)
(8.65393 -4.65924e-22 0.921064)
(8.2688 -1.53683e-21 0.979309)
(8.42452 4.76533e-22 1.01105)
(8.00843 -1.05455e-21 1.07579)
(8.17859 -1.04246e-21 1.11005)
(7.72875 1.10669e-21 1.18321)
(7.91473 -2.46552e-23 1.22017)
(7.42773 1.10411e-21 1.30269)
(7.63108 -1.13402e-21 1.34297)
(7.10312 0 1.43491)
(7.32544 4.66171e-21 1.47952)
(6.75247 -2.67279e-21 1.58007)
(6.99535 5.66932e-23 1.63042)
(6.3732 -5.48393e-21 1.73785)
(6.63816 -5.80288e-21 1.79579)
(5.96274 8.82337e-21 1.90729)
(6.25101 -8.2599e-21 1.97513)
(5.51855 1.08544e-20 2.0866)
(5.83098 1.13707e-20 2.16724)
(5.03837 5.81383e-21 2.27307)
(5.37516 -5.96062e-21 2.36993)
(4.52041 7.84701e-21 2.46276)
(4.88082 1.2488e-20 2.57985)
(3.96373 3.39452e-21 2.65047)
(4.34574 -1.44981e-21 2.79223)
(3.36871 -1.97662e-21 2.82961)
(3.76864 -1.17506e-20 3.00065)
(2.73765 7.98881e-21 2.99244)
(3.14982 6.9635e-21 3.19702)
(2.07529 3.33788e-21 3.13044)
(2.49165 7.79541e-21 3.37186)
(1.38948 -7.78158e-21 3.23634)
(1.80237 -4.07794e-21 3.51465)
(0.690834 4.3729e-21 3.27511)
(1.07266 -7.84897e-21 3.61786)
(0.436576 8.06524e-23 3.61192)
(9.98381 2.66764e-21 0.104443)
(9.99182 -1.02136e-25 0.0734842)
(9.95108 2.61701e-21 0.174794)
(9.97081 -4.08208e-23 0.146713)
(9.9002 -6.3186e-24 0.249447)
(9.93169 -1.31576e-21 0.223155)
(9.82969 -1.45748e-21 0.330446)
(9.87262 -1.38163e-21 0.306063)
(9.73849 -1.42285e-21 0.417281)
(9.79343 -2.7738e-21 0.396299)
(9.62616 -3.10759e-21 0.507375)
(9.69373 -9.16559e-23 0.491854)
(9.49315 -1.4179e-21 0.597685)
(9.57348 -2.2525e-23 0.589228)
(9.34072 1.57754e-21 0.686212)
(9.43351 1.59671e-21 0.68536)
(9.17047 1.73241e-21 0.772744)
(9.27534 0 0.778938)
(8.98387 -1.11923e-22 0.8588)
(9.10063 1.69628e-21 0.870729)
(8.78185 -2.71429e-21 0.947049)
(8.91067 4.43692e-22 0.963144)
(8.56463 4.51368e-23 1.04061)
(8.70605 -1.39928e-21 1.05945)
(8.33171 9.52688e-22 1.14247)
(8.48667 -9.4565e-22 1.16305)
(8.08197 0 1.25521)
(8.2517 0 1.27701)
(7.81375 -2.27853e-21 1.38085)
(7.99978 0 1.40384)
(7.52502 2.49278e-21 1.52089)
(7.72904 -1.1254e-21 1.54551)
(7.21337 4.66412e-21 1.67634)
(7.43722 2.40038e-21 1.70345)
(6.87613 -3.14204e-21 1.84772)
(7.12172 2.47343e-21 1.87866)
(6.51033 -8.61128e-21 2.035)
(6.77959 -5.00354e-21 2.07159)
(6.1128 -5.49334e-21 2.23747)
(6.40751 -5.42263e-21 2.28215)
(5.68021 -5.64963e-21 2.45353)
(6.00186 5.39997e-21 2.50945)
(5.20919 9.18975e-22 2.68043)
(5.55872 -5.2734e-21 2.75159)
(4.69659 3.03621e-21 2.914)
(5.07404 5.60989e-22 3.00527)
(4.13985 -1.67047e-20 3.1483)
(4.5439 1.02028e-20 3.26545)
(3.53761 -2.60954e-21 3.37541)
(3.96498 -1.83645e-20 3.52488)
(2.89055 6.80493e-21 3.58545)
(3.33541 1.40635e-20 3.77381)
(2.20245 2.5642e-22 3.76682)
(2.65544 -7.25613e-21 3.99998)
(1.48137 -4.21097e-21 3.90856)
(1.93303 3.84624e-21 4.18874)
(0.739984 -1.20547e-20 3.9676)
(1.15586 -7.81839e-21 4.32765)
(0.470475 -2.00543e-20 4.33345)
(9.98401 -2.70865e-21 0.116538)
(9.99195 2.0077e-23 0.0812976)
(9.95206 -3.98816e-21 0.195811)
(9.9715 -9.13015e-23 0.162708)
(9.90291 -2.69156e-21 0.280545)
(9.93369 -1.35105e-21 0.248362)
(9.8351 -2.71469e-21 0.372778)
(9.87693 -2.7886e-21 0.341687)
(9.74755 -1.41038e-21 0.47179)
(9.80109 3.0034e-21 0.44342)
(9.63983 2.9938e-21 0.574621)
(9.70578 -9.16553e-23 0.551243)
(9.51241 3.01112e-21 0.677766)
(9.59092 3.0358e-21 0.661194)
(9.36653 0 0.778879)
(9.45735 0 0.769768)
(9.20375 -1.5108e-23 0.87765)
(9.30657 -1.61389e-21 0.875412)
(9.02553 2.23674e-21 0.975758)
(9.14022 -3.80487e-21 0.978934)
(8.83279 1.73562e-21 1.07622)
(8.95957 2.65847e-21 1.08301)
(8.62581 -2.38409e-21 1.18261)
(8.76527 -4.5677e-22 1.19132)
(8.40413 -1.887e-21 1.29837)
(8.55725 9.51862e-22 1.30772)
(8.16668 0 1.42653)
(8.33479 -1.97312e-21 1.43574)
(7.91187 1.13966e-21 1.56953)
(8.09658 3.09514e-21 1.57833)
(7.63763 -1.17551e-21 1.72929)
(7.84081 8.42205e-23 1.73788)
(7.34149 2.1134e-22 1.90721)
(7.56522 2.2141e-21 1.91626)
(7.02055 5.25101e-22 2.10425)
(7.26709 -1.04885e-21 2.1149)
(6.6715 -1.82002e-21 2.32082)
(6.94324 -1.84207e-21 2.33478)
(6.29058 5.59372e-21 2.55669)
(6.58996 0 2.57636)
(5.87357 5.64714e-21 2.81069)
(6.20291 5.52782e-21 2.83937)
(5.41586 -5.56225e-21 3.08044)
(5.77713 6.2675e-21 3.1225)
(4.91262 7.85027e-21 3.36185)
(5.30706 -1.17494e-20 3.42298)
(4.35915 8.23963e-21 3.64863)
(4.78667 1.41582e-20 3.73599)
(3.75155 -1.31205e-21 3.93177)
(4.20992 -6.44631e-21 4.05393)
(3.08787 -2.34655e-22 4.19911)
(3.57169 1.00189e-20 4.36568)
(2.36968 -3.55672e-21 4.43522)
(2.86861 -1.03489e-20 4.65597)
(1.6043 1.13318e-22 4.62376)
(2.10673 1.59493e-20 4.90482)
(0.806093 -1.59283e-20 4.71106)
(1.26921 -1.08598e-20 5.09253)
(0.517738 -1.20972e-20 5.11834)
(9.98446 2.63586e-21 0.128311)
(9.99217 2.52936e-21 0.0888899)
(9.95361 2.53072e-21 0.2161)
(9.97252 2.5875e-21 0.178152)
(9.90648 -1.46577e-21 0.310398)
(9.93632 -4.19913e-23 0.27253)
(9.84172 2.99841e-21 0.413311)
(9.8822 1.33674e-21 0.37571)
(9.75825 4.28454e-21 0.523913)
(9.81008 1.60011e-21 0.488347)
(9.65566 -1.16132e-23 0.638854)
(9.71959 -9.02568e-23 0.607802)
(9.53444 -1.13375e-23 0.754181)
(9.61066 -1.32749e-21 0.729658)
(9.39581 -1.63326e-21 0.867208)
(9.48413 -1.9247e-22 0.849978)
(9.24132 -5.42921e-21 0.977529)
(9.34148 1.18991e-21 0.966977)
(9.0724 -3.30468e-21 1.08697)
(9.18432 -1.70435e-21 1.08149)
(8.89002 4.2849e-22 1.19888)
(9.01394 2.14852e-21 1.19644)
(8.69449 2.89497e-21 1.31724)
(8.83105 -9.03792e-22 1.31589)
(8.48546 8.29422e-22 1.44597)
(8.63567 4.72426e-21 1.44414)
(8.26195 1.18283e-21 1.58854)
(8.42718 -2.93367e-21 1.58516)
(8.02244 2.00304e-21 1.74782)
(8.2044 1.09702e-21 1.74235)
(7.76494 3.49892e-21 1.92617)
(7.96563 -3.1206e-21 1.91853)
(7.48692 9.15802e-22 2.12548)
(7.70867 2.2674e-21 2.11604)
(7.1854 -3.42421e-21 2.34724)
(7.43081 -4.56255e-21 2.33686)
(6.85676 0 2.59248)
(7.12873 0 2.5826)
(6.49672 0 2.86166)
(6.7984 -1.2141e-21 2.85447)
(6.10021 6.164e-21 3.15443)
(6.43493 0 3.1531)
(5.6613 -1.28237e-22 3.46916)
(6.03234 1.2095e-20 3.47823)
(5.17321 -5.1432e-21 3.80248)
(5.58349 -1.29289e-20 3.82818)
(4.62856 -7.64503e-22 4.14838)
(5.07997 7.63564e-22 4.19913)
(4.01996 5.07722e-21 4.49734)
(4.51229 -1.59027e-21 4.58404)
(3.34124 -3.28414e-22 4.8352)
(3.87072 1.27953e-20 4.97123)
(2.58974 9.47549e-21 5.14209)
(3.14602 -2.60522e-20 5.3428)
(1.76988 4.60906e-21 5.39424)
(2.33937 2.79595e-20 5.67244)
(0.896885 -6.7263e-21 5.52328)
(1.4261 -2.48724e-20 5.92978)
(0.585059 1.1317e-20 5.99009)
(9.9851 2.48218e-21 0.139637)
(9.99245 -2.51205e-21 0.0961732)
(9.95561 -1.63992e-23 0.235516)
(9.97378 -5.17302e-21 0.192912)
(9.91079 2.77636e-21 0.338848)
(9.93947 0 0.295516)
(9.84939 -5.83412e-23 0.451846)
(9.88827 2.74334e-21 0.407967)
(9.77039 -2.79425e-21 0.573398)
(9.82022 -2.73578e-21 0.530868)
(9.67342 -1.42051e-21 0.699767)
(9.73496 -9.02559e-23 0.661268)
(9.55897 -1.49455e-21 0.82656)
(9.63246 -1.31553e-21 0.794299)
(9.42824 2.64662e-21 0.950766)
(9.51355 -1.71699e-21 0.925611)
(9.28279 4.87869e-21 1.07187)
(9.37969 1.2092e-21 1.05319)
(9.12404 3.79448e-21 1.19184)
(9.23249 2.08408e-21 1.17787)
(8.953 7.79629e-22 1.31432)
(9.07326 2.33194e-24 1.30282)
(8.77006 9.93132e-22 1.44369)
(8.90279 -1.4777e-23 1.43244)
(8.57499 8.69136e-22 1.5843)
(8.7212 1.87792e-21 1.57145)
(8.36697 -2.9711e-21 1.74006)
(8.52805 -1.96259e-23 1.72423)
(8.14461 -4.07697e-21 1.91428)
(8.32232 -9.99758e-22 1.89463)
(7.90603 -4.28568e-21 2.1098)
(8.10249 3.07889e-21 2.0859)
(7.64882 -3.29091e-21 2.32902)
(7.86653 -2.21409e-21 2.30089)
(7.36995 -1.08481e-21 2.57407)
(7.61184 -1.08685e-21 2.54215)
(7.06568 -1.22862e-21 2.84676)
(7.33515 4.53688e-21 2.81205)
(6.73137 -1.19962e-21 3.14849)
(7.03231 4.78892e-21 3.11273)
(6.36122 6.07569e-21 3.48007)
(6.69804 -1.22826e-20 3.44601)
(5.94807 -9.92071e-22 3.84125)
(6.32564 -8.00564e-21 3.81313)
(5.48311 -6.85907e-21 4.2301)
(5.90651 2.32515e-21 4.21424)
(4.95585 -9.03175e-23 4.64199)
(5.42981 -9.14086e-23 4.64759)
(4.35431 6.29954e-21 5.06807)
(4.88211 4.28174e-21 5.10814)
(3.66611 -1.33857e-20 5.49329)
(4.24761 -9.57049e-22 5.58546)
(2.88103 -6.99054e-21 5.8935)
(3.50813 -3.13118e-20 6.06064)
(1.99631 -2.27804e-21 6.23524)
(2.65488 2.24382e-20 6.5012)
(1.02493 -7.3469e-21 6.42866)
(1.64793 -1.05975e-21 6.86187)
(0.683854 -2.82382e-21 6.98145)
(9.98586 -1.01982e-20 0.150418)
(9.99278 -2.53859e-21 0.103081)
(9.95797 -5.09381e-21 0.253931)
(9.97524 -2.57681e-21 0.206877)
(9.9157 0 0.365744)
(9.94304 0 0.31719)
(9.85796 0 0.4882)
(9.89504 2.59589e-21 0.438302)
(9.78379 0 0.620017)
(9.83135 1.72998e-22 0.570789)
(9.69286 0 0.75708)
(9.75169 -8.86497e-23 0.7114)
(9.58569 -1.54282e-21 0.894569)
(9.65606 0 0.85483)
(9.46348 -3.11856e-21 1.02916)
(9.54528 -3.01434e-21 0.996324)
(9.32774 -1.57411e-21 1.16022)
(9.42081 -1.59321e-21 1.13364)
(9.17993 -1.73207e-21 1.28982)
(9.28425 0 1.26761)
(9.02112 -7.91365e-22 1.4219)
(9.13695 -1.71153e-21 1.40159)
(8.85181 8.92866e-22 1.56118)
(8.97978 1.55171e-23 1.54031)
(8.67191 9.665e-22 1.71244)
(8.81304 9.06713e-22 1.68885)
(8.4808 1.93824e-21 1.87997)
(8.63645 -1.62687e-24 1.852)
(8.27731 6.20077e-21 2.06755)
(8.44924 -1.87076e-21 2.034)
(8.05976 5.08652e-21 2.27845)
(8.25015 3.14078e-21 2.23853)
(7.82594 8.85966e-25 2.51567)
(8.03742 1.99431e-21 2.46893)
(7.573 4.59728e-21 2.782)
(7.80873 5.35179e-23 2.72838)
(7.29725 1.05558e-20 3.08014)
(7.56104 8.10112e-23 3.02002)
(6.99394 -6.49314e-21 3.4127)
(7.29037 1.44772e-21 3.34706)
(6.65688 -2.63182e-20 3.78199)
(6.99145 -1.22707e-20 3.71277)
(6.27797 -4.56584e-21 4.18975)
(6.65723 -1.38568e-20 4.12033)
(5.84662 9.06315e-21 4.63649)
(6.27822 4.06295e-21 4.57248)
(5.34912 4.33284e-21 5.12044)
(5.84158 5.13563e-21 5.07083)
(4.76812 -3.04225e-21 5.63558)
(5.32997 5.6395e-21 5.61447)
(4.08271 -1.92477e-20 6.16853)
(4.72056 -1.65085e-20 6.19736)
(3.27024 -1.28233e-21 6.6931)
(3.9829 -6.53621e-21 6.80369)
(2.3125 2.33675e-20 7.16531)
(3.09031 9.2394e-21 7.39847)
(1.20975 3.67162e-21 7.46449)
(1.9721 1.5557e-20 7.91995)
(0.836442 -2.18883e-20 8.15156)
(9.98674 5.08132e-21 0.160575)
(9.99315 2.51152e-21 0.109563)
(9.9606 2.54744e-21 0.271235)
(9.97685 2.58844e-21 0.219958)
(9.92112 2.62712e-21 0.390953)
(9.94695 2.56933e-21 0.33744)
(9.8673 2.73968e-21 0.522208)
(9.90236 -1.67672e-22 0.466579)
(9.79827 8.12093e-23 0.663563)
(9.84331 -2.46988e-21 0.60794)
(9.71378 -8.75841e-23 0.810542)
(9.76958 -8.86487e-23 0.757988)
(9.61434 -1.50833e-21 0.957913)
(9.6812 -1.8235e-22 0.910996)
(9.50114 -1.47254e-21 1.10203)
(9.579 1.70678e-21 1.06182)
(9.37572 0 1.24216)
(9.46442 0 1.20798)
(9.23953 0 1.38044)
(9.33908 0 1.3503)
(9.09373 -8.83936e-22 1.52105)
(9.20438 -1.63563e-21 1.49228)
(8.93894 3.98732e-23 1.66905)
(9.06128 -1.61292e-23 1.63893)
(8.77528 -7.05934e-23 1.82956)
(8.91026 1.76249e-21 1.79567)
(8.60234 -3.83091e-21 2.00727)
(8.75129 -2.41566e-23 1.96763)
(8.41925 -4.87111e-21 2.20635)
(8.58388 -1.89753e-21 2.1594)
(8.22465 3.68038e-23 2.43052)
(8.4071 -2.04975e-21 2.37506)
(8.01666 2.0262e-21 2.68332)
(8.2196 2.00272e-21 2.61842)
(7.79278 -4.45789e-21 2.96825)
(8.01949 8.9899e-23 2.89322)
(7.54968 -9.00712e-21 3.28897)
(7.80421 -4.45219e-21 3.20339)
(7.28286 -4.49661e-21 3.64938)
(7.57031 -4.51614e-21 3.55324)
(6.98622 1.44693e-22 4.05363)
(7.313 2.25522e-21 3.94759)
(6.65136 -5.00991e-21 4.50601)
(7.02562 2.06062e-22 4.39186)
(6.26664 1.53634e-22 5.01054)
(6.69869 -5.1771e-21 4.89207)
(5.81579 6.45226e-21 5.57015)
(6.31856 5.13515e-21 5.45449)
(5.27614 -8.09741e-21 6.1848)
(5.8653 1.35724e-21 6.08487)
(4.6166 -3.6437e-21 6.84779)
(5.30977 -7.01698e-21 6.78627)
(3.79627 4.21898e-21 7.53757)
(4.60734 5.46903e-21 7.55397)
(2.76749 1.54523e-21 8.20491)
(3.70419 -3.44199e-21 8.36217)
(1.49309 -9.50164e-21 8.68854)
(2.47025 7.87708e-21 9.14224)
(1.09289 -1.70012e-20 9.60004)
(9.98769 1.95712e-23 0.170044)
(9.99354 9.70708e-24 0.115579)
(9.96347 2.61007e-21 0.287336)
(9.97859 -9.74428e-24 0.232082)
(9.92695 -2.57611e-22 0.414358)
(9.95113 -4.05482e-23 0.356168)
(9.87727 -5.40427e-21 0.553727)
(9.91016 -2.76298e-21 0.492679)
(9.81367 -2.61109e-21 0.70386)
(9.85596 1.27072e-22 0.642176)
(9.73592 -1.8454e-22 0.859938)
(9.78842 2.86226e-21 0.800853)
(9.64459 3.05413e-21 1.01633)
(9.70761 2.58182e-21 0.962582)
(9.54086 3.15757e-21 1.16908)
(9.61436 3.38149e-21 1.12184)
(9.42624 0 1.31733)
(9.5101 -2.83219e-21 1.27591)
(9.30225 -1.65523e-21 1.46327)
(9.39645 2.72736e-21 1.42558)
(9.1701 -7.48415e-22 1.61127)
(9.27488 -1.69157e-24 1.57447)
(9.03058 1.72797e-21 1.76669)
(9.14647 1.66094e-23 1.72782)
(8.88404 1.7875e-21 1.93494)
(9.01189 -1.48913e-23 1.89132)
(8.73034 1.88607e-21 2.12106)
(8.87138 9.16804e-22 2.07039)
(8.56895 9.20046e-22 2.32955)
(8.72479 9.67851e-22 2.26994)
(8.39893 -3.72471e-23 2.56453)
(8.57161 -3.8234e-21 2.49436)
(8.2189 4.63931e-23 2.83003)
(8.41098 1.97992e-21 2.74784)
(8.02692 4.11212e-23 3.13019)
(8.24163 4.16174e-23 3.0346)
(7.82029 3.27852e-23 3.46959)
(8.06173 0 3.35928)
(7.59527 2.30024e-21 3.85345)
(7.86872 2.13756e-21 3.72716)
(7.3465 2.27424e-21 4.28785)
(7.65891 1.03967e-22 4.14456)
(7.06628 -2.24351e-23 4.77996)
(7.42689 -2.11918e-21 4.61916)
(6.74327 -6.33973e-23 5.33815)
(7.16461 2.1451e-21 5.16048)
(6.36049 0 5.9719)
(6.85977 -2.12408e-21 5.78033)
(5.892 2.33074e-21 6.69101)
(6.49301 4.3071e-21 6.49337)
(5.29763 2.27582e-21 7.50319)
(6.03321 -4.37375e-21 7.31709)
(4.51468 -2.22257e-21 8.40606)
(5.42585 -3.98896e-21 8.27009)
(3.44748 3.24861e-21 9.36798)
(4.58725 1.85854e-21 9.36165)
(1.96762 2.66736e-22 10.196)
(3.2856 5.3815e-21 10.561)
(1.57413 -5.00333e-21 11.5079)
(9.98871 -1.99358e-23 0.178775)
(9.99396 4.77218e-24 0.121098)
(9.96651 -2.66001e-21 0.302157)
(9.98041 -2.45714e-23 0.243191)
(9.93311 -2.57804e-21 0.435864)
(9.95552 -5.15165e-21 0.373296)
(9.88776 2.80211e-21 0.582639)
(9.91831 4.08026e-23 0.516507)
(9.82979 5.63242e-21 0.740766)
(9.86916 5.48352e-21 0.673376)
(9.75907 5.62523e-21 0.905101)
(9.80802 2.32002e-24 0.839851)
(9.67615 2.91876e-21 1.06963)
(9.73503 2.7299e-21 1.00942)
(9.58222 -2.68275e-21 1.23009)
(9.65101 -2.52873e-21 1.17618)
(9.47882 -3.8021e-23 1.38548)
(9.55739 4.44946e-24 1.3372)
(9.36746 4.34713e-21 1.53802)
(9.4558 -3.88447e-22 1.4932)
(9.24947 7.6259e-22 1.69222)
(9.34776 -1.5245e-21 1.64786)
(9.12581 -1.72542e-21 1.85368)
(9.23449 -8.40678e-22 1.80661)
(8.99705 -8.73067e-22 2.02807)
(9.11687 -8.83638e-22 1.97536)
(8.86339 0 2.22067)
(8.99542 -2.5663e-21 2.15977)
(8.72471 -3.83048e-21 2.43627)
(8.87038 -8.90967e-22 2.36494)
(8.58056 -1.7401e-21 2.67931)
(8.74171 -1.91954e-21 2.59552)
(8.43017 1.95258e-21 2.95417)
(8.60914 1.97615e-21 2.85596)
(8.27237 0 3.26554)
(8.47215 0 3.15083)
(8.10543 2.13022e-21 3.61872)
(8.32987 0 3.48526)
(7.92682 -8.01493e-23 4.02008)
(8.18098 2.105e-21 3.86526)
(7.73274 -4.31566e-21 4.47745)
(8.02345 -2.14378e-21 4.2983)
(7.51741 7.45624e-23 5.00075)
(7.85412 -2.144e-21 4.79392)
(7.27185 3.35468e-23 5.60286)
(7.66798 4.27385e-21 5.36465)
(6.98163 2.25939e-21 6.30074)
(7.45698 5.74468e-24 6.02752)
(6.62275 -2.41436e-21 7.11707)
(7.20757 8.02973e-21 6.80647)
(6.15348 -1.06006e-20 8.08249)
(6.89627 -6.64299e-21 7.73638)
(5.4971 1.85068e-22 9.23689)
(6.47679 -6.99378e-21 8.87057)
(4.5025 4.69219e-21 10.6287)
(5.86706 2.9249e-21 10.2931)
(2.85184 6.71123e-22 12.1696)
(4.7386 2.38269e-21 12.1432)
(2.61804 -8.5415e-21 14.2967)
(9.98977 -2.59094e-25 0.186729)
(9.99439 -4.54778e-21 0.126098)
(9.96969 -2.57791e-21 0.315637)
(9.98231 -4.65461e-21 0.25324)
(9.93953 -2.47039e-21 0.455384)
(9.96007 -2.5657e-21 0.388766)
(9.89865 2.78767e-21 0.608827)
(9.92675 2.47816e-21 0.537987)
(9.84649 -2.11341e-22 0.774125)
(9.88278 -2.25785e-21 0.701451)
(9.78297 -2.85794e-21 0.945826)
(9.82823 -5.47421e-21 0.87487)
(9.7087 -2.77952e-21 1.11755)
(9.76327 -2.5315e-21 1.05137)
(9.62485 1.87353e-22 1.28475)
(9.68874 -2.55275e-23 1.2247)
(9.53293 -3.50256e-22 1.44625)
(9.60605 -5.98747e-23 1.39169)
(9.43453 -6.27176e-21 1.60427)
(9.51685 -2.8117e-21 1.55294)
(9.33105 -3.11954e-21 1.76344)
(9.42269 -6.0067e-22 1.71222)
(9.22364 0 1.9295)
(9.32496 -3.39098e-21 1.87505)
(9.11311 -2.597e-21 2.10834)
(9.22473 3.47975e-21 2.04751)
(9.00002 -3.43585e-21 2.30541)
(9.12284 -2.53468e-21 2.23539)
(8.88468 1.00503e-21 2.52569)
(9.01992 2.34172e-21 2.44396)
(8.76721 1.84076e-21 2.7738)
(8.91645 2.74273e-21 2.67797)
(8.64757 0 3.05437)
(8.81281 -8.61259e-22 2.94201)
(8.52549 0 3.37239)
(8.70933 0 3.24079)
(8.40047 0 3.73364)
(8.60626 1.75215e-21 3.57965)
(8.27162 0 4.1452)
(8.50379 1.80043e-21 3.96495)
(8.1374 2.76391e-23 4.61611)
(8.40198 -1.83145e-21 4.40472)
(7.99525 2.09369e-21 5.15829)
(8.3007 -1.7648e-21 4.90942)
(7.84083 4.16998e-21 5.78805)
(8.19947 3.92356e-21 5.49323)
(7.6666 5.84728e-21 6.52861)
(8.09724 3.82847e-21 6.17618)
(7.45891 3.67875e-21 7.41468)
(7.99211 -7.25386e-22 6.988)
(7.19143 -3.04172e-21 8.50166)
(7.88132 5.91264e-22 7.97579)
(6.80819 -4.11058e-21 9.88711)
(7.76022 6.57395e-22 9.22165)
(6.16956 5.83255e-22 11.7906)
(7.65923 -4.00962e-23 10.8917)
(4.79151 -7.76033e-21 14.9345)
(7.69466 1.71327e-21 13.4645)
(6.95581 -5.6236e-20 18.9855)
(-0.483981 6.95348e-21 0.226755)
(-0.246446 -1.59544e-20 0.470954)
(-0.961178 2.35468e-20 0.210985)
(-0.743626 1.55418e-20 0.453988)
(-1.4061 0 0.182522)
(-1.2196 0 0.413665)
(-1.79089 0 0.142196)
(-1.6464 0 0.349696)
(-2.08662 0 0.0914391)
(-1.99488 0 0.262629)
(-2.26546 -1.46038e-21 0.0322361)
(-2.23556 0 0.155159)
(-2.30372 7.09542e-22 -0.033056)
(-2.34276 -4.45753e-21 0.0324137)
(-2.18473 2.17314e-21 -0.101092)
(-2.29744 5.78182e-21 -0.0985385)
(-1.90257 -2.63095e-22 -0.166342)
(-2.08621 -7.04933e-23 -0.228184)
(-1.46616 -5.08456e-22 -0.222497)
(-1.71359 -8.85696e-22 -0.34467)
(-0.89786 -3.69146e-22 -0.264726)
(-1.19396 -1.30923e-21 -0.438309)
(-0.229496 -1.07122e-22 -0.290613)
(-0.55665 -4.53821e-24 -0.503396)
(0.503454 -8.81966e-24 -0.300436)
(0.169213 3.22718e-22 -0.539082)
(1.26582 -9.03193e-24 -0.296823)
(0.925039 -5.71942e-22 -0.547547)
(2.02838 0 -0.283391)
(1.7012 2.50597e-22 -0.534817)
(2.76858 1.50478e-23 -0.263382)
(2.4659 4.41388e-23 -0.506925)
(3.47015 2.01108e-24 -0.239555)
(3.19886 7.9058e-24 -0.469169)
(4.12252 -2.36431e-23 -0.214118)
(3.8866 -7.96488e-23 -0.426006)
(4.71987 -1.61992e-23 -0.188705)
(4.521 -3.18613e-23 -0.380903)
(5.26008 -6.48363e-24 -0.164425)
(5.09826 2.45446e-23 -0.336363)
(5.7437 0 -0.141952)
(5.6178 0 -0.294047)
(6.17309 1.22312e-23 -0.121622)
(6.08125 0 -0.254931)
(6.55166 1.25251e-23 -0.103531)
(6.49164 -2.65625e-23 -0.219476)
(6.88337 0 -0.0876138)
(6.85275 2.64475e-24 -0.187782)
(7.17227 0 -0.0737079)
(7.16865 -6.94471e-25 -0.159707)
(7.42229 0 -0.0616002)
(7.44338 2.09932e-25 -0.134969)
(7.63706 -3.21586e-24 -0.0510644)
(7.68071 4.5717e-25 -0.113215)
(7.81983 -2.14566e-24 -0.0418974)
(7.88407 -4.85623e-25 -0.0940808)
(7.9736 1.17482e-24 -0.0342421)
(8.05638 3.32171e-25 -0.0772988)
(8.2293 -1.21803e-24 -0.0636536)
(-0.498574 -7.6182e-21 0.705518)
(-0.26262 4.04714e-21 0.967136)
(-0.997502 -7.80533e-21 0.662505)
(-0.788828 -7.71608e-21 0.929941)
(-1.46202 0 0.584876)
(-1.29595 -1.498e-20 0.846185)
(-1.86409 0 0.472559)
(-1.75259 1.76035e-22 0.715264)
(-2.17328 0 0.327222)
(-2.12722 1.7575e-20 0.537176)
(-2.35972 -2.94419e-21 0.154157)
(-2.38774 0 0.316794)
(-2.39766 7.26286e-22 -0.037794)
(-2.5057 -9.03215e-21 0.0644116)
(-2.26901 3.60302e-21 -0.235842)
(-2.46028 5.32776e-21 -0.205199)
(-1.96728 -7.65792e-22 -0.423393)
(-2.23361 1.45888e-21 -0.472299)
(-1.50262 -1.66214e-21 -0.583871)
(-1.83084 2.09452e-22 -0.711723)
(-0.901001 -9.56415e-22 -0.705047)
(-1.27173 -2.65769e-21 -0.90237)
(-0.199223 4.25231e-22 -0.781603)
(-0.591704 3.19494e-22 -1.03199)
(0.563886 -2.41038e-22 -0.815109)
(0.174523 4.11777e-22 -1.10037)
(1.35312 -3.22776e-22 -0.812247)