/*--------------------------------*- C++ -*----------------------------------*\
| =========                 |                                                 |
| \\      /  F ield         | OpenFOAM: The Open Source CFD Toolbox           |
|  \\    /   O peration     | Version:  dev                                   |
|   \\  /    A nd           | Web:      www.OpenFOAM.org                      |
|    \\/     M anipulation  |                                                 |
\*---------------------------------------------------------------------------*/
FoamFile
{
    version     2.0;
    format      ascii;
    class       pointVectorField;
    location    "0.44";
    object      pointDisplacement;
}
// * * * * * * * * * * * * * * * * * * * * * * * * * * * * * * * * * * * * * //

dimensions      [0 1 0 0 0 0 0];

internalField   nonuniform List<vector> 
1062
(
(0.0328413 0 0)
(0.0304652 0 0)
(0.0276986 0 0)
(0.0245395 0 0)
(0.0210067 0 0)
(0.0171608 0 0)
(0.0131429 0 0)
(0.00924075 0 0)
(0.00613672 0 0)
(0 0 0)
(0.0331766 0 0.000257976)
(0.0308932 0 0.000379889)
(0.0282443 0 0.000539904)
(0.0252358 0 0.000748383)
(0.0218968 0 0.00101824)
(0.0183002 0 0.00136572)
(0.0146121 0 0.00180904)
(0.0111557 0 0.00235441)
(0.00861029 0 0.00294443)
(0.00460161 0 0.00423059)
(0.034157 0 0.000480028)
(0.0321382 0 0.000709765)
(0.0298282 0 0.00100924)
(0.0272527 0 0.00139535)
(0.0244672 0 0.00188795)
(0.0215733 0 0.00250902)
(0.0187724 0 0.00327477)
(0.016432 0 0.00416526)
(0.0151577 0 0.00504264)
(0.0131393 0 0.00654988)
(0.0357196 0 0.000633632)
(0.0341083 0 0.000943402)
(0.0323176 0 0.00134272)
(0.0303993 0 0.0018499)
(0.0284404 0 0.00248324)
(0.0265739 0 0.00325653)
(0.0250044 0 0.00416399)
(0.02406 0 0.00514163)
(0.0241427 0 0.00599281)
(0.0240005 0 0.00728746)
(0.0377694 0 0.000693865)
(0.0366728 0 0.00104696)
(0.0355257 0 0.0014954)
(0.0344064 0 0.00205367)
(0.0334252 0 0.00273126)
(0.0327297 0 0.00352461)
(0.0324995 0 0.00440035)
(0.0329303 0 0.00526128)
(0.0341292 0 0.00590523)
(0.0354115 0 0.00675502)
(0.0401788 0 0.000646301)
(0.0396575 0 0.00100296)
(0.0392153 0 0.00144743)
(0.0389491 0 0.00198667)
(0.0389775 0 0.00261828)
(0.039433 0 0.00332175)
(0.0404373 0 0.00404372)
(0.0420076 0 0.00467947)
(0.0439509 0 0.00506871)
(0.0461121 0 0.00550264)
(0.0427948 0 0.000488292)
(0.0428558 0 0.000810625)
(0.0431088 0 0.00120284)
(0.0436597 0 0.00166349)
(0.0446204 0 0.00217956)
(0.0460847 0 0.00272044)
(0.0480792 0 0.0032285)
(0.0504481 0 0.00361697)
(0.0527811 0 0.00378811)
(0.0553777 0 0.0039444)
(0.0454557 0 0.000229258)
(0.0460534 0 0.000485757)
(0.0469288 0 0.000787575)
(0.0481831 0 0.00112673)
(0.0499057 0 0.00148433)
(0.052139 0 0.00182821)
(0.0548095 0 0.00211215)
(0.0576392 0 0.00228163)
(0.0600998 0 0.00229718)
(0.0628872 0 0.0022782)
(0.0480102 0 -0.000111333)
(0.0490558 0 5.78585e-05)
(0.0504276 0 0.000245279)
(0.0522076 0 0.000439469)
(0.0544519 0 0.000621498)
(0.0571548 0 0.000765424)
(0.0601782 0 0.00084408)
(0.0631852 0 0.000837845)
(0.0656049 0 0.000752607)
(0.0684286 0 0.000632165)
(0.0503291 0 -0.000505993)
(0.0517015 0 -0.000433946)
(0.053402 0 -0.000368695)
(0.055488 0 -0.000323082)
(0.0579845 0 -0.000312721)
(0.0608516 0 -0.000352845)
(0.063929 0 -0.000450325)
(0.0668778 0 -0.000593991)
(0.0691465 0 -0.000745083)
(0.071894 0 -0.000922433)
(0.0523143 0 -0.000922613)
(0.0538785 0 -0.000946306)
(0.0557302 0 -0.000997119)
(0.0579014 0 -0.00108774)
(0.0603912 0 -0.00122961)
(0.0631412 0 -0.00142752)
(0.0659998 0 -0.00167083)
(0.0686762 0 -0.0019246)
(0.0706997 0 -0.00212656)
(0.073263 0 -0.00236444)
(0.0539174 0 -0.00133062)
(0.0555459 0 -0.00143899)
(0.0573913 0 -0.00158898)
(0.0594582 0 -0.00179198)
(0.0617215 0 -0.00205557)
(0.0641145 0 -0.0023773)
(0.0665136 0 -0.00273542)
(0.0687118 0 -0.00307968)
(0.0703766 0 -0.00332966)
(0.0725676 0 -0.00363352)
(0.0551384 0 -0.00170469)
(0.0567275 0 -0.00187975)
(0.0584455 0 -0.00210405)
(0.06027 0 -0.00238705)
(0.0621534 0 -0.00273359)
(0.0640216 0 -0.00313822)
(0.0657793 0 -0.00357632)
(0.0673133 0 -0.00399249)
(0.0684728 0 -0.0042925)
(0.0700295 0 -0.00465693)
(0.0560106 0 -0.00202629)
(0.0574897 0 -0.0022462)
(0.0590072 0 -0.00251586)
(0.0605184 0 -0.00284202)
(0.061956 0 -0.00322728)
(0.0632354 0 -0.00366645)
(0.0642739 0 -0.00414017)
(0.0650247 0 -0.00460225)
(0.0655203 0 -0.00495583)
(0.0661359 0 -0.00538668)
(0.0565876 0 -0.0022849)
(0.0579211 0 -0.00252732)
(0.0592146 0 -0.00281352)
(0.06041 0 -0.00314638)
(0.061429 0 -0.00352507)
(0.0621804 0 -0.00394386)
(0.0625801 0 -0.00439125)
(0.062595 0 -0.00484568)
(0.062357 0 -0.00524423)
(0.0615328 0 -0.00581192)
(0.0569334 0 -0.00248022)
(0.0581133 0 -0.00272546)
(0.0591956 0 -0.00300362)
(0.0601203 0 -0.00331253)
(0.0608134 0 -0.00364528)
(0.0611934 0 -0.00398845)
(0.0611889 0 -0.00432045)
(0.0607705 0 -0.00460673)
(0.0600465 0 -0.00477512)
(0.0568232 0 -0.00601936)
(0.0328413 0 0)
(0.0304652 0 0)
(0.0276986 0 0)
(0.0245395 0 0)
(0.0210067 0 0)
(0.0171608 0 0)
(0.0131429 0 0)
(0.00924075 0 0)
(0.00613672 0 0)
(0 0 0)
(0.0331766 0 0.000257976)
(0.0308932 0 0.000379889)
(0.0282443 0 0.000539904)
(0.0252358 0 0.000748383)
(0.0218968 0 0.00101824)
(0.0183002 0 0.00136572)
(0.0146121 0 0.00180904)
(0.0111557 0 0.00235441)
(0.00861029 0 0.00294443)
(0.00460161 0 0.00423059)
(0.034157 0 0.000480028)
(0.0321382 0 0.000709765)
(0.0298282 0 0.00100924)
(0.0272527 0 0.00139535)
(0.0244672 0 0.00188795)
(0.0215733 0 0.00250902)
(0.0187724 0 0.00327477)
(0.016432 0 0.00416526)
(0.0151577 0 0.00504264)
(0.0131393 0 0.00654988)
(0.0357196 0 0.000633632)
(0.0341083 0 0.000943402)
(0.0323176 0 0.00134272)
(0.0303993 0 0.0018499)
(0.0284404 0 0.00248324)
(0.0265739 0 0.00325653)
(0.0250044 0 0.00416399)
(0.02406 0 0.00514163)
(0.0241427 0 0.00599281)
(0.0240005 0 0.00728746)
(0.0377694 0 0.000693865)
(0.0366728 0 0.00104696)
(0.0355257 0 0.0014954)
(0.0344064 0 0.00205367)
(0.0334252 0 0.00273126)
(0.0327297 0 0.00352461)
(0.0324995 0 0.00440035)
(0.0329303 0 0.00526128)
(0.0341292 0 0.00590523)
(0.0354115 0 0.00675502)
(0.0401788 0 0.000646301)
(0.0396575 0 0.00100296)
(0.0392153 0 0.00144743)
(0.0389491 0 0.00198667)
(0.0389775 0 0.00261828)
(0.039433 0 0.00332175)
(0.0404373 0 0.00404372)
(0.0420076 0 0.00467947)
(0.0439509 0 0.00506871)
(0.0461121 0 0.00550264)
(0.0427948 0 0.000488292)
(0.0428558 0 0.000810625)
(0.0431088 0 0.00120284)
(0.0436597 0 0.00166349)
(0.0446204 0 0.00217956)
(0.0460847 0 0.00272044)
(0.0480792 0 0.0032285)
(0.0504481 0 0.00361697)
(0.0527811 0 0.00378811)
(0.0553777 0 0.0039444)
(0.0454557 0 0.000229258)
(0.0460534 0 0.000485757)
(0.0469288 0 0.000787575)
(0.0481831 0 0.00112673)
(0.0499057 0 0.00148433)
(0.052139 0 0.00182821)
(0.0548095 0 0.00211215)
(0.0576392 0 0.00228163)
(0.0600998 0 0.00229718)
(0.0628872 0 0.0022782)
(0.0480102 0 -0.000111333)
(0.0490558 0 5.78585e-05)
(0.0504276 0 0.000245279)
(0.0522076 0 0.000439469)
(0.0544519 0 0.000621498)
(0.0571548 0 0.000765424)
(0.0601782 0 0.00084408)
(0.0631852 0 0.000837845)
(0.0656049 0 0.000752607)
(0.0684286 0 0.000632165)
(0.0503291 0 -0.000505993)
(0.0517015 0 -0.000433946)
(0.053402 0 -0.000368695)
(0.055488 0 -0.000323082)
(0.0579845 0 -0.000312721)
(0.0608516 0 -0.000352845)
(0.063929 0 -0.000450325)
(0.0668778 0 -0.000593991)
(0.0691465 0 -0.000745083)
(0.071894 0 -0.000922433)
(0.0523143 0 -0.000922613)
(0.0538785 0 -0.000946306)
(0.0557302 0 -0.000997119)
(0.0579014 0 -0.00108774)
(0.0603912 0 -0.00122961)
(0.0631412 0 -0.00142752)
(0.0659998 0 -0.00167083)
(0.0686762 0 -0.0019246)
(0.0706997 0 -0.00212656)
(0.073263 0 -0.00236444)
(0.0539174 0 -0.00133062)
(0.0555459 0 -0.00143899)
(0.0573913 0 -0.00158898)
(0.0594582 0 -0.00179198)
(0.0617215 0 -0.00205557)
(0.0641145 0 -0.0023773)
(0.0665136 0 -0.00273542)
(0.0687118 0 -0.00307968)
(0.0703766 0 -0.00332966)
(0.0725676 0 -0.00363352)
(0.0551384 0 -0.00170469)
(0.0567275 0 -0.00187975)
(0.0584455 0 -0.00210405)
(0.06027 0 -0.00238705)
(0.0621534 0 -0.00273359)
(0.0640216 0 -0.00313822)
(0.0657793 0 -0.00357632)
(0.0673133 0 -0.00399249)
(0.0684728 0 -0.0042925)
(0.0700295 0 -0.00465693)
(0.0560106 0 -0.00202629)
(0.0574897 0 -0.0022462)
(0.0590072 0 -0.00251586)
(0.0605184 0 -0.00284202)
(0.061956 0 -0.00322728)
(0.0632354 0 -0.00366645)
(0.0642739 0 -0.00414017)
(0.0650247 0 -0.00460225)
(0.0655203 0 -0.00495583)
(0.0661359 0 -0.00538668)
(0.0565876 0 -0.0022849)
(0.0579211 0 -0.00252732)
(0.0592146 0 -0.00281352)
(0.06041 0 -0.00314638)
(0.061429 0 -0.00352507)
(0.0621804 0 -0.00394386)
(0.0625801 0 -0.00439125)
(0.062595 0 -0.00484568)
(0.062357 0 -0.00524423)
(0.0615328 0 -0.00581192)
(0.0569334 0 -0.00248022)
(0.0581133 0 -0.00272546)
(0.0591956 0 -0.00300362)
(0.0601203 0 -0.00331253)
(0.0608134 0 -0.00364528)
(0.0611934 0 -0.00398845)
(0.0611889 0 -0.00432045)
(0.0607705 0 -0.00460673)
(0.0600465 0 -0.00477512)
(0.0568232 0 -0.00601936)
(0 0 0)
(0.00773528 0 0)
(0.0126065 0 0)
(0.0184276 0 0)
(0.0241545 0 0)
(0.0292747 0 0)
(0.0336315 0 0)
(0.037232 0 0)
(0.0401443 0 0)
(0.0424467 0 0)
(0.0442148 0 0)
(0.00401644 0 -0.00409156)
(0.0100407 0 -0.00321146)
(0.0146145 0 -0.00290524)
(0.0200628 0 -0.00248844)
(0.0254362 0 -0.00207783)
(0.0302555 0 -0.00171024)
(0.0343742 0 -0.00139657)
(0.0377924 0 -0.00113657)
(0.0405662 0 -0.000924752)
(0.0427645 0 -0.000753328)
(0.0444555 0 -0.000616076)
(0.0120474 0 -0.00684104)
(0.016281 0 -0.00581862)
(0.0201133 0 -0.00529786)
(0.0245825 0 -0.0045787)
(0.0290044 0 -0.00385268)
(0.0330097 0 -0.00319362)
(0.0364772 0 -0.00262518)
(0.0393902 0 -0.00214966)
(0.041777 0 -0.00175928)
(0.0436821 0 -0.00144201)
(0.0451535 0 -0.00118642)
(0.0225676 0 -0.00858187)
(0.0250222 0 -0.00755432)
(0.0278825 0 -0.006924)
(0.0310487 0 -0.00605137)
(0.0341795 0 -0.00514901)
(0.037066 0 -0.00431445)
(0.0396186 0 -0.00358264)
(0.0418058 0 -0.00296153)
(0.0436275 0 -0.00244522)
(0.0450981 0 -0.00202152)
(0.0462379 0 -0.00167677)
(0.0339596 0 -0.0093533)
(0.0348442 0 -0.00842847)
(0.0366374 0 -0.00776825)
(0.0384336 0 -0.0068684)
(0.040194 0 -0.00592063)
(0.041866 0 -0.00502601)
(0.0433977 0 -0.0042265)
(0.0447552 0 -0.0035359)
(0.0459168 0 -0.00295264)
(0.0468699 0 -0.00246718)
(0.0476079 0 -0.00206687)
(0.0448745 0 -0.00931471)
(0.0445528 0 -0.00855173)
(0.0453174 0 -0.00792698)
(0.0458639 0 -0.00709218)
(0.0463612 0 -0.00619984)
(0.0468778 0 -0.00533995)
(0.0474137 0 -0.00455619)
(0.0479423 0 -0.00386603)
(0.0484287 0 -0.00327238)
(0.0488412 0 -0.0027696)
(0.0491514 0 -0.00234812)
(0.0544797 0 -0.00867814)
(0.0532964 0 -0.00807984)
(0.0531708 0 -0.00753793)
(0.0526873 0 -0.00682758)
(0.0521367 0 -0.00605984)
(0.0516646 0 -0.00530486)
(0.0513229 0 -0.00460175)
(0.0511012 0 -0.00396942)
(0.0509621 0 -0.00341377)
(0.0508622 0 -0.00293304)
(0.0507579 0 -0.00252177)
(0.0623116 0 -0.00760916)
(0.0605398 0 -0.00716514)
(0.0597166 0 -0.00673889)
(0.0584553 0 -0.00618973)
(0.0571181 0 -0.00559029)
(0.0558908 0 -0.00498778)
(0.0548537 0 -0.00441197)
(0.0540163 0 -0.00387997)
(0.0533494 0 -0.00339933)
(0.0528047 0 -0.00297206)
(0.0523305 0 -0.00259693)
(0.0681091 0 -0.00623035)
(0.0659759 0 -0.00593947)
(0.0646745 0 -0.00565463)
(0.0629001 0 -0.00529128)
(0.0610471 0 -0.00488632)
(0.0593182 0 -0.00446483)
(0.0578033 0 -0.00404529)
(0.0565239 0 -0.00364081)
(0.0554594 0 -0.00326004)
(0.054565 0 -0.00290835)
(0.0537881 0 -0.00258844)
(0.0717532 0 -0.004639)
(0.0694524 0 -0.00452408)
(0.0679109 0 -0.00440214)
(0.0658982 0 -0.00424096)
(0.0638035 0 -0.00404371)
(0.0618252 0 -0.00381541)
(0.0600545 0 -0.00356425)
(0.0585172 0 -0.00329989)
(0.0571994 0 -0.00303172)
(0.0560645 0 -0.00276788)
(0.0550656 0 -0.00251464)
(0.0731736 0 -0.00295316)
(0.0709424 0 -0.00304969)
(0.0694142 0 -0.00310264)
(0.0674436 0 -0.00314773)
(0.0653789 0 -0.00315649)
(0.0633962 0 -0.00311754)
(0.0615795 0 -0.00303155)
(0.0599581 0 -0.00290603)
(0.0585271 0 -0.00275133)
(0.0572613 0 -0.00257801)
(0.0561241 0 -0.00239543)
(0.0724271 0 -0.00133859)
(0.0705663 0 -0.00167052)
(0.0693053 0 -0.00188876)
(0.067648 0 -0.00212311)
(0.0658658 0 -0.00231643)
(0.0640986 0 -0.00244515)
(0.0624211 0 -0.00250558)
(0.060868 0 -0.00250457)
(0.0594475 0 -0.00245354)
(0.0581494 0 -0.00236493)
(0.0569511 0 -0.00225033)
(0.0698382 0 -2.44516e-05)
(0.0686346 0 -0.000555032)
(0.067864 0 -0.000897341)
(0.0667527 0 -0.0012754)
(0.065458 0 -0.00160803)
(0.0640774 0 -0.00186373)
(0.0626801 0 -0.00203698)
(0.0613121 0 -0.0021346)
(0.0599987 0 -0.00216847)
(0.0587476 0 -0.00215176)
(0.0575529 0 -0.00209696)
(0.0659307 0 0.000760084)
(0.0656735 0 0.00015812)
(0.0655546 0 -0.000244236)
(0.0651378 0 -0.000694278)
(0.0644455 0 -0.00109817)
(0.0635424 0 -0.00142321)
(0.0625024 0 -0.00166377)
(0.0613877 0 -0.0018257)
(0.0602427 0 -0.00191945)
(0.0590933 0 -0.00195694)
(0.0579498 0 -0.00194985)
(0.0613126 0 0.00100813)
(0.062485 0 0.000396605)
(0.0630528 0 -1.96693e-06)
(0.063308 0 -0.000432173)
(0.0631853 0 -0.000822161)
(0.0627407 0 -0.00114907)
(0.0620567 0 -0.00140624)
(0.0612087 0 -0.00159501)
(0.0602548 0 -0.00172124)
(0.0592346 0 -0.0017931)
(0.0581713 0 -0.00181966)
(0.0565877 0 0.000948326)
(0.0601453 0 -0.000105886)
(0.0611155 0 -0.000238969)
(0.0617593 0 -0.000489607)
(0.0620059 0 -0.000768967)
(0.061895 0 -0.00103403)
(0.0614968 0 -0.00126257)
(0.0608818 0 -0.00144472)
(0.0601088 0 -0.00157832)
(0.0592219 0 -0.00166578)
(0.0582508 0 -0.00171209)
(0 0 0)
(0.00773528 0 0)
(0.0126065 0 0)
(0.0184276 0 0)
(0.0241545 0 0)
(0.0292747 0 0)
(0.0336315 0 0)
(0.037232 0 0)
(0.0401443 0 0)
(0.0424467 0 0)
(0.0442148 0 0)
(0.00401644 0 -0.00409156)
(0.0100407 0 -0.00321146)
(0.0146145 0 -0.00290524)
(0.0200628 0 -0.00248844)
(0.0254362 0 -0.00207783)
(0.0302555 0 -0.00171024)
(0.0343742 0 -0.00139657)
(0.0377924 0 -0.00113657)
(0.0405662 0 -0.000924752)
(0.0427645 0 -0.000753328)
(0.0444555 0 -0.000616076)
(0.0120474 0 -0.00684104)
(0.016281 0 -0.00581862)
(0.0201133 0 -0.00529786)
(0.0245825 0 -0.0045787)
(0.0290044 0 -0.00385268)
(0.0330097 0 -0.00319362)
(0.0364772 0 -0.00262518)
(0.0393902 0 -0.00214966)
(0.041777 0 -0.00175928)
(0.0436821 0 -0.00144201)
(0.0451535 0 -0.00118642)
(0.0225676 0 -0.00858187)
(0.0250222 0 -0.00755432)
(0.0278825 0 -0.006924)
(0.0310487 0 -0.00605137)
(0.0341795 0 -0.00514901)
(0.037066 0 -0.00431445)
(0.0396186 0 -0.00358264)
(0.0418058 0 -0.00296153)
(0.0436275 0 -0.00244522)
(0.0450981 0 -0.00202152)
(0.0462379 0 -0.00167677)
(0.0339596 0 -0.0093533)
(0.0348442 0 -0.00842847)
(0.0366374 0 -0.00776825)
(0.0384336 0 -0.0068684)
(0.040194 0 -0.00592063)
(0.041866 0 -0.00502601)
(0.0433977 0 -0.0042265)
(0.0447552 0 -0.0035359)
(0.0459168 0 -0.00295264)
(0.0468699 0 -0.00246718)
(0.0476079 0 -0.00206687)
(0.0448745 0 -0.00931471)
(0.0445528 0 -0.00855173)
(0.0453174 0 -0.00792698)
(0.0458639 0 -0.00709218)
(0.0463612 0 -0.00619984)
(0.0468778 0 -0.00533995)
(0.0474137 0 -0.00455619)
(0.0479423 0 -0.00386603)
(0.0484287 0 -0.00327238)
(0.0488412 0 -0.0027696)
(0.0491514 0 -0.00234812)
(0.0544797 0 -0.00867814)
(0.0532964 0 -0.00807984)
(0.0531708 0 -0.00753793)
(0.0526873 0 -0.00682758)
(0.0521367 0 -0.00605984)
(0.0516646 0 -0.00530486)
(0.0513229 0 -0.00460175)
(0.0511012 0 -0.00396942)
(0.0509621 0 -0.00341377)
(0.0508622 0 -0.00293304)
(0.0507579 0 -0.00252177)
(0.0623116 0 -0.00760916)
(0.0605398 0 -0.00716514)
(0.0597166 0 -0.00673889)
(0.0584553 0 -0.00618973)
(0.0571181 0 -0.00559029)
(0.0558908 0 -0.00498778)
(0.0548537 0 -0.00441197)
(0.0540163 0 -0.00387997)
(0.0533494 0 -0.00339933)
(0.0528047 0 -0.00297206)
(0.0523305 0 -0.00259693)
(0.0681091 0 -0.00623035)
(0.0659759 0 -0.00593947)
(0.0646745 0 -0.00565463)
(0.0629001 0 -0.00529128)
(0.0610471 0 -0.00488632)
(0.0593182 0 -0.00446483)
(0.0578033 0 -0.00404529)
(0.0565239 0 -0.00364081)
(0.0554594 0 -0.00326004)
(0.054565 0 -0.00290835)
(0.0537881 0 -0.00258844)
(0.0717532 0 -0.004639)
(0.0694524 0 -0.00452408)
(0.0679109 0 -0.00440214)
(0.0658982 0 -0.00424096)
(0.0638035 0 -0.00404371)
(0.0618252 0 -0.00381541)
(0.0600545 0 -0.00356425)
(0.0585172 0 -0.00329989)
(0.0571994 0 -0.00303172)
(0.0560645 0 -0.00276788)
(0.0550656 0 -0.00251464)
(0.0731736 0 -0.00295316)
(0.0709424 0 -0.00304969)
(0.0694142 0 -0.00310264)
(0.0674436 0 -0.00314773)
(0.0653789 0 -0.00315649)
(0.0633962 0 -0.00311754)
(0.0615795 0 -0.00303155)
(0.0599581 0 -0.00290603)
(0.0585271 0 -0.00275133)
(0.0572613 0 -0.00257801)
(0.0561241 0 -0.00239543)
(0.0724271 0 -0.00133859)
(0.0705663 0 -0.00167052)
(0.0693053 0 -0.00188876)
(0.067648 0 -0.00212311)
(0.0658658 0 -0.00231643)
(0.0640986 0 -0.00244515)
(0.0624211 0 -0.00250558)
(0.060868 0 -0.00250457)
(0.0594475 0 -0.00245354)
(0.0581494 0 -0.00236493)
(0.0569511 0 -0.00225033)
(0.0698382 0 -2.44518e-05)
(0.0686346 0 -0.000555032)
(0.067864 0 -0.000897341)
(0.0667527 0 -0.0012754)
(0.065458 0 -0.00160803)
(0.0640774 0 -0.00186373)
(0.0626801 0 -0.00203698)
(0.0613121 0 -0.0021346)
(0.0599987 0 -0.00216847)
(0.0587476 0 -0.00215176)
(0.0575529 0 -0.00209696)
(0.0659307 0 0.000760083)
(0.0656735 0 0.00015812)
(0.0655546 0 -0.000244236)
(0.0651378 0 -0.000694278)
(0.0644455 0 -0.00109817)
(0.0635424 0 -0.00142321)
(0.0625024 0 -0.00166377)
(0.0613877 0 -0.0018257)
(0.0602427 0 -0.00191945)
(0.0590933 0 -0.00195694)
(0.0579498 0 -0.00194985)
(0.0613126 0 0.00100813)
(0.062485 0 0.000396605)
(0.0630528 0 -1.96693e-06)
(0.063308 0 -0.000432173)
(0.0631853 0 -0.000822161)
(0.0627407 0 -0.00114907)
(0.0620567 0 -0.00140624)
(0.0612087 0 -0.00159501)
(0.0602548 0 -0.00172124)
(0.0592346 0 -0.0017931)
(0.0581713 0 -0.00181966)
(0.0565877 0 0.000948326)
(0.0601453 0 -0.000105886)
(0.0611155 0 -0.000238969)
(0.0617593 0 -0.000489607)
(0.0620059 0 -0.000768967)
(0.061895 0 -0.00103403)
(0.0614968 0 -0.00126257)
(0.0608818 0 -0.00144472)
(0.0601088 0 -0.00157832)
(0.0592219 0 -0.00166578)
(0.0582508 0 -0.00171209)
(0.0571056 0 -0.00261852)
(0.0581409 0 -0.00285141)
(0.0590431 0 -0.00310398)
(0.0597605 0 -0.0033691)
(0.0602357 0 -0.00363381)
(0.0604148 0 -0.0038761)
(0.0602627 0 -0.00406029)
(0.0597871 0 -0.00412991)
(0.0590655 0 -0.00399462)
(0.0582305 0 -0.00352172)
(0.0571462 0 -0.00270601)
(0.0580563 0 -0.00291669)
(0.0588175 0 -0.0031343)
(0.0593907 0 -0.00334855)
(0.0597397 0 -0.00354372)
(0.0598404 0 -0.00369706)
(0.0596929 0 -0.00377652)
(0.0593364 0 -0.00374019)
(0.058852 0 -0.00353022)
(0.0584061 0 -0.00310422)
(0.0570886 0 -0.00275051)
(0.0578978 0 -0.00293419)
(0.0585554 0 -0.00311429)
(0.0590367 0 -0.0032797)
(0.0593237 0 -0.00341529)
(0.0594132 0 -0.00350176)
(0.0593229 0 -0.00351536)
(0.0590967 0 -0.00342786)
(0.0588047 0 -0.00320322)
(0.0585759 0 -0.00285634)
(0.0569574 0 -0.00276065)
(0.0576888 0 -0.00291631)
(0.058274 0 -0.00306077)
(0.0587007 0 -0.0031839)
(0.058964 0 -0.00327299)
(0.0590714 0 -0.00331321)
(0.0590459 0 -0.00328809)
(0.0589276 0 -0.00318021)
(0.0587728 0 -0.00297239)
(0.0586644 0 -0.00270119)
(0.0574409 0 -0.00287333)
(0.0579778 0 -0.00298668)
(0.0583745 0 -0.00307569)
(0.0586339 0 -0.00313049)
(0.0587683 0 -0.00314048)
(0.0588007 0 -0.00309516)
(0.0587646 0 -0.00298537)
(0.0587021 0 -0.00280594)
(0.0586623 0 -0.00259527)
(0.0580468 0 -0.00296396)
(0.0583115 0 -0.00299464)
(0.0584732 0 -0.00298624)
(0.0585526 0 -0.00293277)
(0.0585763 0 -0.00283058)
(0.0585744 0 -0.00268044)
(0.0585751 0 -0.00251569)
(0.0581663 0 -0.00284975)
(0.0582817 0 -0.00279537)
(0.0583476 0 -0.00270459)
(0.0583853 0 -0.00258052)
(0.0584107 0 -0.00245026)
(0.058072 0 -0.00259867)
(0.0581355 0 -0.00249647)
(0.0581759 0 -0.00239223)
(0.0571056 0 -0.00261852)
(0.0581409 0 -0.00285141)
(0.0590431 0 -0.00310398)
(0.0597605 0 -0.0033691)
(0.0602357 0 -0.00363381)
(0.0604148 0 -0.0038761)
(0.0602627 0 -0.00406029)
(0.0597871 0 -0.00412991)
(0.0590655 0 -0.00399462)
(0.0582305 0 -0.00352172)
(0.0571462 0 -0.00270601)
(0.0580563 0 -0.00291669)
(0.0588175 0 -0.0031343)
(0.0593907 0 -0.00334855)
(0.0597397 0 -0.00354372)
(0.0598404 0 -0.00369706)
(0.0596929 0 -0.00377652)
(0.0593364 0 -0.00374019)
(0.058852 0 -0.00353022)
(0.0584061 0 -0.00310422)
(0.0570886 0 -0.00275051)
(0.0578978 0 -0.00293419)
(0.0585554 0 -0.00311429)
(0.0590367 0 -0.0032797)
(0.0593237 0 -0.00341529)
(0.0594132 0 -0.00350176)
(0.0593229 0 -0.00351536)
(0.0590967 0 -0.00342786)
(0.0588047 0 -0.00320322)
(0.0585759 0 -0.00285634)
(0.0569574 0 -0.00276065)
(0.0576888 0 -0.00291631)
(0.058274 0 -0.00306077)
(0.0587007 0 -0.0031839)
(0.058964 0 -0.00327299)
(0.0590714 0 -0.00331321)
(0.0590459 0 -0.00328809)
(0.0589276 0 -0.00318021)
(0.0587728 0 -0.00297239)
(0.0586644 0 -0.00270119)
(0.0574409 0 -0.00287333)
(0.0579778 0 -0.00298668)
(0.0583745 0 -0.00307569)
(0.0586339 0 -0.00313049)
(0.0587683 0 -0.00314048)
(0.0588007 0 -0.00309516)
(0.0587646 0 -0.00298537)
(0.0587021 0 -0.00280594)
(0.0586623 0 -0.00259527)
(0.0580468 0 -0.00296396)
(0.0583115 0 -0.00299464)
(0.0584732 0 -0.00298624)
(0.0585526 0 -0.00293277)
(0.0585763 0 -0.00283058)
(0.0585744 0 -0.00268044)
(0.0585751 0 -0.00251569)
(0.0581663 0 -0.00284975)
(0.0582817 0 -0.00279537)
(0.0583476 0 -0.00270459)
(0.0583853 0 -0.00258052)
(0.0584107 0 -0.00245026)
(0.058072 0 -0.00259867)
(0.0581355 0 -0.00249647)
(0.0581759 0 -0.00239223)
(0.0567426 0 -0.00380503)
(0.0566715 0 -0.00124152)
(0.0577372 0 -0.00280683)
(0.0577201 0 -0.00205555)
(0.0582199 0 -0.00134956)
(0.0581845 0 -0.00261592)
(0.0581871 0 -0.00217322)
(0.058429 0 -0.00170415)
(0.0584859 0 -0.00252219)
(0.0584969 0 -0.00224036)
(0.0586178 0 -0.00191775)
(0.0586326 0 -0.00246572)
(0.058647 0 -0.00227195)
(0.058716 0 -0.00204205)
(0.0586582 0 -0.00242328)
(0.0586741 0 -0.00228298)
(0.0587189 0 -0.00211324)
(0.0585855 0 -0.00238603)
(0.0586022 0 -0.0022806)
(0.0586339 0 -0.0021514)
(0.0584292 0 -0.00234998)
(0.058446 0 -0.00226849)
(0.0584698 0 -0.0021677)
(0.0581989 0 -0.00231304)
(0.0582155 0 -0.00224867)
(0.058234 0 -0.00216846)
(0.0579025 0 -0.00227413)
(0.0579185 0 -0.00222237)
(0.057933 0 -0.00215747)
(0.0567426 0 -0.00380503)
(0.0566715 0 -0.00124152)
(0.0577372 0 -0.00280683)
(0.0577201 0 -0.00205555)
(0.0582199 0 -0.00134956)
(0.0581845 0 -0.00261592)
(0.0581871 0 -0.00217322)
(0.058429 0 -0.00170415)
(0.0584859 0 -0.00252219)
(0.0584969 0 -0.00224036)
(0.0586178 0 -0.00191775)
(0.0586326 0 -0.00246572)
(0.058647 0 -0.00227195)
(0.058716 0 -0.00204205)
(0.0586582 0 -0.00242328)
(0.0586741 0 -0.00228298)
(0.0587189 0 -0.00211324)
(0.0585855 0 -0.00238603)
(0.0586022 0 -0.0022806)
(0.0586339 0 -0.0021514)
(0.0584292 0 -0.00234998)
(0.058446 0 -0.00226849)
(0.0584698 0 -0.0021677)
(0.0581989 0 -0.00231304)
(0.0582155 0 -0.00224867)
(0.058234 0 -0.00216846)
(0.0579025 0 -0.00227413)
(0.0579185 0 -0.00222237)
(0.057933 0 -0.00215747)
(0.0591569 0 -0.000859793)
(0.0600468 0 -0.000694474)
(0.0607138 0 -0.000730502)
(0.0610806 0 -0.000866804)
(0.0611407 0 -0.00104019)
(0.0609266 0 -0.00121345)
(0.0604851 0 -0.00136597)
(0.059862 0 -0.00148773)
(0.0590962 0 -0.00157523)
(0.0589462 0 -0.00128765)
(0.0595572 0 -0.00106066)
(0.0600747 0 -0.00099352)
(0.060409 0 -0.0010278)
(0.0605175 0 -0.00111835)
(0.0603973 0 -0.00123139)
(0.0600675 0 -0.00134409)
(0.0595554 0 -0.00144248)
(0.058889 0 -0.001519)
(0.05891 0 -0.00157865)
(0.0593048 0 -0.00134328)
(0.0596646 0 -0.00122854)
(0.0599151 0 -0.0011999)
(0.0600078 0 -0.00122831)
(0.0599209 0 -0.00128871)
(0.0596533 0 -0.00136135)
(0.059216 0 -0.001432)
(0.058625 0 -0.00149144)
(0.0588874 0 -0.0017736)
(0.0591333 0 -0.00155564)
(0.059366 0 -0.00142305)
(0.0595285 0 -0.00135879)
(0.0595786 0 -0.00134494)
(0.0594896 0 -0.00136438)
(0.0592497 0 -0.00140198)
(0.058858 0 -0.0014454)
(0.0583201 0 -0.00148558)
(0.0588222 0 -0.00190143)
(0.0589695 0 -0.00171062)
(0.0591072 0 -0.00157712)
(0.0591942 0 -0.00149496)
(0.0591963 0 -0.00145436)
(0.0590883 0 -0.00144426)
(0.0588544 0 -0.00145377)
(0.0584867 0 -0.00147318)
(0.0579837 0 -0.00149459)
(0.0586966 0 -0.00198303)
(0.058779 0 -0.0018202)
(0.0588478 0 -0.00169462)
(0.0588745 0 -0.00160598)
(0.0588325 0 -0.00154985)
(0.0586997 0 -0.00151966)
(0.0584599 0 -0.00150804)
(0.0581021 0 -0.00150778)
(0.0576203 0 -0.00151246)
(0.0585069 0 -0.00203236)
(0.058546 0 -0.00189471)
(0.0585656 0 -0.00178075)
(0.0585457 0 -0.0016925)
(0.0584661 0 -0.00162866)
(0.0583083 0 -0.00158573)
(0.0580571 0 -0.00155905)
(0.0577005 0 -0.00154352)
(0.0572301 0 -0.00153425)
(0.0582543 0 -0.00205837)
(0.0582639 0 -0.00194217)
(0.0582481 0 -0.00184069)
(0.0581928 0 -0.00175662)
(0.0580826 0 -0.00169024)
(0.0579021 0 -0.00164003)
(0.0576377 0 -0.00160324)
(0.0572774 0 -0.00157644)
(0.0568119 0 -0.00155611)
(0.0579414 0 -0.00206689)
(0.0579303 0 -0.0019685)
(0.057889 0 -0.00187898)
(0.057807 0 -0.00180089)
(0.0576723 0 -0.00173523)
(0.0574723 0 -0.00168159)
(0.0571948 0 -0.00163853)
(0.0568286 0 -0.00160387)
(0.0563639 0 -0.00157516)
(0.0575721 0 -0.00206174)
(0.0575459 0 -0.00197803)
(0.0574857 0 -0.00189932)
(0.0573834 0 -0.00182783)
(0.0572292 0 -0.00176477)
(0.0570128 0 -0.00171034)
(0.0567234 0 -0.00166388)
(0.0563505 0 -0.0016241)
(0.0558844 0 -0.00158941)
(0.0569199 0 -0.00183976)
(0.0567503 0 -0.00178027)
(0.0565202 0 -0.00172669)
(0.0562202 0 -0.00167888)
(0.0558406 0 -0.00163615)
(0.055372 0 -0.00159747)
(0.0559931 0 -0.00173141)
(0.0556837 0 -0.00168363)
(0.0552975 0 -0.00163948)
(0.0548259 0 -0.00159843)
(0.054722 0 -0.00163405)
(0.0542469 0 -0.00159181)
(0.0591569 0 -0.000859793)
(0.0600468 0 -0.000694474)
(0.0607138 0 -0.000730502)
(0.0610806 0 -0.000866804)
(0.0611407 0 -0.00104019)
(0.0609266 0 -0.00121345)
(0.0604851 0 -0.00136597)
(0.059862 0 -0.00148773)
(0.0590962 0 -0.00157523)
(0.0589462 0 -0.00128765)
(0.0595572 0 -0.00106066)
(0.0600747 0 -0.00099352)
(0.060409 0 -0.0010278)
(0.0605175 0 -0.00111835)
(0.0603973 0 -0.00123139)
(0.0600675 0 -0.00134409)
(0.0595554 0 -0.00144248)
(0.058889 0 -0.001519)
(0.05891 0 -0.00157865)
(0.0593048 0 -0.00134328)
(0.0596646 0 -0.00122854)
(0.0599151 0 -0.0011999)
(0.0600078 0 -0.00122831)
(0.0599209 0 -0.00128871)
(0.0596533 0 -0.00136135)
(0.059216 0 -0.001432)
(0.058625 0 -0.00149144)
(0.0588874 0 -0.0017736)
(0.0591333 0 -0.00155564)
(0.059366 0 -0.00142305)
(0.0595285 0 -0.00135879)
(0.0595786 0 -0.00134494)
(0.0594896 0 -0.00136438)
(0.0592497 0 -0.00140198)
(0.058858 0 -0.0014454)
(0.0583201 0 -0.00148558)
(0.0588222 0 -0.00190143)
(0.0589695 0 -0.00171062)
(0.0591072 0 -0.00157712)
(0.0591942 0 -0.00149496)
(0.0591963 0 -0.00145436)
(0.0590883 0 -0.00144426)
(0.0588544 0 -0.00145377)
(0.0584867 0 -0.00147318)
(0.0579837 0 -0.00149459)
(0.0586966 0 -0.00198303)
(0.058779 0 -0.0018202)
(0.0588478 0 -0.00169462)
(0.0588745 0 -0.00160598)
(0.0588325 0 -0.00154985)
(0.0586997 0 -0.00151966)
(0.0584599 0 -0.00150804)
(0.0581021 0 -0.00150778)
(0.0576203 0 -0.00151246)
(0.0585069 0 -0.00203236)
(0.058546 0 -0.00189471)
(0.0585656 0 -0.00178075)
(0.0585457 0 -0.0016925)
(0.0584661 0 -0.00162866)
(0.0583083 0 -0.00158573)
(0.0580571 0 -0.00155905)
(0.0577005 0 -0.00154352)
(0.0572301 0 -0.00153425)
(0.0582543 0 -0.00205837)
(0.0582639 0 -0.00194217)
(0.0582481 0 -0.00184069)
(0.0581928 0 -0.00175662)
(0.0580826 0 -0.00169024)
(0.0579021 0 -0.00164003)
(0.0576377 0 -0.00160324)
(0.0572774 0 -0.00157644)
(0.0568119 0 -0.00155611)
(0.0579414 0 -0.00206689)
(0.0579303 0 -0.0019685)
(0.057889 0 -0.00187898)
(0.057807 0 -0.00180089)
(0.0576723 0 -0.00173523)
(0.0574723 0 -0.00168159)
(0.0571948 0 -0.00163853)
(0.0568286 0 -0.00160387)
(0.0563639 0 -0.00157516)
(0.0575721 0 -0.00206174)
(0.0575459 0 -0.00197803)
(0.0574857 0 -0.00189932)
(0.0573834 0 -0.00182783)
(0.0572292 0 -0.00176477)
(0.0570128 0 -0.00171034)
(0.0567234 0 -0.00166388)
(0.0563505 0 -0.0016241)
(0.0558844 0 -0.00158941)
(0.0569199 0 -0.00183976)
(0.0567503 0 -0.00178027)
(0.0565202 0 -0.00172669)
(0.0562202 0 -0.00167888)
(0.0558406 0 -0.00163615)
(0.055372 0 -0.00159747)
(0.0559931 0 -0.00173141)
(0.0556837 0 -0.00168363)
(0.0552975 0 -0.00163948)
(0.0548259 0 -0.00159843)
(0.054722 0 -0.00163405)
(0.0542469 0 -0.00159181)
)
;

boundaryField
{
    inlet
    {
        type            fixedValue;
        value           nonuniform 0();
    }
    outlet
    {
        type            fixedValue;
        value           nonuniform 0();
    }
    flap
    {
        type            fixedValue;
        value           nonuniform List<vector> 
68
(
(0 0 0)
(0.00460161 0 0.00423059)
(0.00460161 0 0.00423059)
(0 0 0)
(0.0131393 0 0.00654988)
(0.0131393 0 0.00654988)
(0.0240005 0 0.00728746)
(0.0240005 0 0.00728746)
(0.0354115 0 0.00675502)
(0.0354115 0 0.00675502)
(0.0461121 0 0.00550264)
(0.0461121 0 0.00550264)
(0.0553777 0 0.0039444)
(0.0553777 0 0.0039444)
(0.0628872 0 0.0022782)
(0.0628872 0 0.0022782)
(0.0684286 0 0.000632165)
(0.0684286 0 0.000632165)
(0.071894 0 -0.000922433)
(0.071894 0 -0.000922433)
(0.073263 0 -0.00236444)
(0.073263 0 -0.00236444)
(0.0725676 0 -0.00363352)
(0.0725676 0 -0.00363352)
(0.0700295 0 -0.00465693)
(0.0700295 0 -0.00465693)
(0.0661359 0 -0.00538668)
(0.0661359 0 -0.00538668)
(0.0615328 0 -0.00581192)
(0.0615328 0 -0.00581192)
(0.0568232 0 -0.00601936)
(0.0568232 0 -0.00601936)
(0.0567426 0 -0.00380503)
(0.0567426 0 -0.00380503)
(0.0566715 0 -0.00124152)
(0.0566715 0 -0.00124152)
(0.0565877 0 0.000948326)
(0.0565877 0 0.000948326)
(0 0 0)
(0 0 0)
(0.00401644 0 -0.00409156)
(0.00401644 0 -0.00409156)
(0.0120474 0 -0.00684104)
(0.0120474 0 -0.00684104)
(0.0225676 0 -0.00858187)
(0.0225676 0 -0.00858187)
(0.0339596 0 -0.0093533)
(0.0339596 0 -0.0093533)
(0.0448745 0 -0.00931471)
(0.0448745 0 -0.00931471)
(0.0544797 0 -0.00867814)
(0.0544797 0 -0.00867814)
(0.0623116 0 -0.00760916)
(0.0623116 0 -0.00760916)
(0.0681091 0 -0.00623035)
(0.0681091 0 -0.00623035)
(0.0717532 0 -0.004639)
(0.0717532 0 -0.004639)
(0.0731736 0 -0.00295316)
(0.0731736 0 -0.00295316)
(0.0724271 0 -0.00133859)
(0.0724271 0 -0.00133859)
(0.0698382 0 -2.44518e-05)
(0.0698382 0 -2.44516e-05)
(0.0659307 0 0.000760083)
(0.0659307 0 0.000760084)
(0.0613126 0 0.00100813)
(0.0613126 0 0.00100813)
)
;
    }
    upperWall
    {
        type            slip;
    }
    lowerWall
    {
        type            slip;
    }
    frontAndBack
    {
        type            empty;
    }
    procBoundary4to1
    {