/*--------------------------------*- C++ -*----------------------------------*\
| =========                 |                                                 |
| \\      /  F ield         | OpenFOAM: The Open Source CFD Toolbox           |
|  \\    /   O peration     | Version:  dev                                   |
|   \\  /    A nd           | Web:      www.OpenFOAM.org                      |
|    \\/     M anipulation  |                                                 |
\*---------------------------------------------------------------------------*/
FoamFile
{
    version     2.0;
    format      ascii;
    class       volVectorField;
    location    "0.44";
    object      U;
}
// * * * * * * * * * * * * * * * * * * * * * * * * * * * * * * * * * * * * * //

dimensions      [0 1 -1 0 0 0 0];

internalField   nonuniform List<vector> 
465
(
(3.66579 0 0.283137)
(3.08657 1.23814e-19 0.303002)
(2.49646 -1.27843e-19 0.318595)
(1.90723 1.01624e-19 0.325893)
(1.33569 -1.39426e-19 0.318483)
(0.806382 0 0.287431)
(0.355674 0 0.223695)
(0.0317504 7.59641e-20 0.126804)
(-0.0113932 -6.33038e-19 -0.0163544)
(4.54985 -2.31482e-19 0.711639)
(3.98245 5.60773e-20 0.753133)
(3.39867 5.04347e-19 0.783303)
(2.80838 -1.6318e-19 0.795468)
(2.22407 -5.50642e-19 0.780523)
(1.66045 5.66404e-19 0.726987)
(1.13373 -1.46459e-19 0.622773)
(0.648845 -1.27548e-18 0.462339)
(0.33241 1.25174e-18 0.229599)
(5.00053 0 1.16982)
(4.47033 -5.91853e-20 1.24384)
(3.91716 -4.97719e-19 1.30114)
(3.3467 4.48081e-19 1.33232)
(2.76532 0 1.32574)
(2.17883 1.25733e-18 1.2685)
(1.59192 -1.00404e-18 1.14985)
(0.991131 1.47925e-19 0.972071)
(0.501755 1.08505e-18 0.735189)
(5.26851 -5.00719e-19 1.58934)
(4.77 4.01001e-19 1.69853)
(4.24326 4.87242e-19 1.78927)
(3.68966 -5.01322e-19 1.85069)
(3.11038 0 1.87009)
(2.50541 -1.36741e-19 1.83449)
(1.87498 0 1.7345)
(1.20125 -7.32272e-20 1.57602)
(0.612008 2.90146e-18 1.35937)
(5.45618 4.82547e-19 1.98406)
(4.97946 5.68296e-20 2.12935)
(4.4704 5.86632e-20 2.25731)
(3.92701 -8.69613e-19 2.35655)
(3.34688 2.05154e-18 2.41404)
(2.72677 -9.2812e-19 2.41661)
(2.06622 1.24852e-18 2.35438)
(1.34929 -1.21469e-18 2.23146)
(0.698525 -2.25839e-19 2.04207)
(5.61368 5.23495e-20 2.36315)
(5.15116 -9.44078e-19 2.54594)
(4.65266 8.54713e-19 2.71459)
(4.11384 -1.20647e-19 2.85771)
(3.52998 0 2.96193)
(2.89611 -1.30559e-19 3.01301)
(2.21223 -6.86761e-20 2.99849)
(1.46645 -2.25091e-18 2.9167)
(0.773028 2.3006e-18 2.75042)
(5.76746 4.06391e-19 2.73132)
(5.31505 1.07078e-19 2.95338)
(4.82311 0 3.16611)
(4.28542 5.7531e-20 3.35826)
(3.69567 0 3.51601)
(3.04771 -6.23123e-20 3.6233)
(2.34148 -3.36058e-20 3.66354)
(1.56889 -1.69068e-20 3.62682)
(0.839746 -3.59122e-20 3.4791)
(5.93235 -5.03482e-20 3.09052)
(5.48919 -1.1186e-21 3.3539)
(5.00288 -8.70532e-19 3.61413)
(4.46558 7.79602e-19 3.86037)
(3.86919 9.40373e-19 4.07826)
(3.20603 -1.88282e-18 4.24962)
(2.47476 9.75827e-19 4.35278)
(1.66908 1.87452e-20 4.3683)
(0.902226 -8.52365e-21 4.24021)
(6.11728 -3.82988e-19 3.44029)
(5.68539 -5.07034e-20 3.74714)
(5.20682 8.63614e-19 4.05837)
(4.67202 -7.76525e-19 4.36413)
(4.07041 0 4.64991)
(3.39152 9.451e-19 4.89544)
(2.63099 -9.70919e-19 5.07359)
(1.78073 -2.01398e-21 5.15434)
(0.965947 -7.90192e-21 5.05463)
(6.328 -7.44531e-19 3.77802)
(5.91201 4.06572e-19 4.13024)
(5.44632 -1.30572e-20 4.49597)
(4.91932 -2.62139e-20 4.86713)
(4.31706 0 5.23014)
(3.62444 -2.81698e-22 5.56358)
(2.8312 -1.0415e-20 5.83516)
(1.92173 0 6.003)
(1.03962 1.61113e-20 5.95)
(6.56822 -1.09951e-20 4.09946)
(6.17493 3.4732e-19 4.4981)
(5.73034 -3.84741e-19 4.92116)
(5.22039 0 5.36351)
(4.62694 -8.10746e-19 5.81441)
(3.92784 1.66329e-18 6.25376)
(3.10251 -6.79188e-21 6.64612)
(2.11818 -9.28877e-19 6.93734)
(1.13786 -2.85894e-20 6.96604)
(6.83983 1.08888e-20 4.39896)
(6.47795 0 4.84347)
(6.06566 -3.69409e-19 5.32492)
(5.58681 3.68321e-19 5.84278)
(5.01874 -3.7754e-19 6.39205)
(4.32998 3.63755e-19 6.9587)
(3.48351 4.47823e-19 7.51047)
(2.41336 -3.98174e-19 7.98561)
(1.28838 2.55025e-21 8.1669)
(7.14274 -3.27412e-19 4.66984)
(6.82227 -3.33305e-19 5.1572)
(6.4562 3.42176e-19 5.69488)
(6.0277 1.04071e-20 6.28862)
(5.511 -2.09058e-20 6.94287)
(4.8653 2.28827e-20 7.65738)
(4.03154 -2.33168e-20 8.41754)
(2.88534 1.19604e-20 9.17612)
(1.54944 2.49708e-20 9.6675)
(7.47443 3.11456e-19 4.90495)
(7.20576 -3.05997e-19 5.42889)
(6.90131 -9.61849e-21 6.01569)
(6.54661 -1.02824e-20 6.67832)
(6.1176 2.06097e-20 7.43378)
(5.57089 0 8.30441)
(4.83002 0 9.31768)
(3.68553 0 10.5072)
(2.05723 0 11.7144)
(7.82966 1.55592e-19 5.0973)
(7.62188 -3.05246e-19 5.64791)
(7.39338 1.58624e-19 6.27061)
(7.13628 0 6.98449)
(6.83715 -1.36765e-19 7.81836)
(6.4694 1.23369e-19 8.81943)
(5.9819 0 10.0744)
(5.13993 0 11.8009)
(3.17608 -9.17637e-22 14.8872)
(-0.0908173 0 0.214488)
(-0.535876 0 0.369062)
(-1.25335 0 0.436413)
(-2.07946 -2.90621e-20 0.467051)
(-2.97916 0 0.476507)
(-3.92563 4.76496e-20 0.473625)
(-4.89919 -6.08775e-20 0.462528)
(-5.88386 0 0.445228)
(-6.86551 0 0.422736)
(-7.83045 1.87599e-20 0.395539)
(-0.295163 6.06741e-20 0.595433)
(-0.850147 2.3981e-19 0.845247)
(-1.60586 -2.28693e-19 0.986758)
(-2.43627 2.86753e-20 1.07525)
(-3.32823 2.93149e-20 1.12701)
(-4.26064 -7.92338e-20 1.15266)
(-5.21624 8.90512e-20 1.15792)
(-6.18018 0 1.14591)
(-7.13892 1.81698e-19 1.11814)
(-8.07905 -1.60935e-19 1.0752)
(-0.326829 -6.03749e-20 1.18872)
(-0.936515 4.78202e-19 1.49478)
(-1.71842 -9.28265e-19 1.6819)
(-2.53646 4.52992e-19 1.80574)
(-3.3968 -8.84513e-20 1.87927)
(-4.28622 -2.99727e-20 1.91345)
(-5.1927 3.1317e-20 1.91508)
(-6.10466 3.37747e-20 1.88824)
(-7.0107 -7.08635e-20 1.83505)
(-7.89895 0 1.75632)
(-0.28348 0 1.88838)
(-0.89858 -4.82475e-19 2.20209)
(-1.68705 4.33266e-20 2.39499)
(-2.47749 4.60894e-19 2.52655)
(-3.29339 1.20018e-19 2.60438)
(-4.12785 0 2.63727)
(-4.97446 0 2.63117)
(-5.82558 -1.02967e-19 2.58977)
(-6.67252 -2.29933e-19 2.51484)
(-7.50524 2.94436e-19 2.40671)
(-0.203874 0 2.63152)
(-0.791444 0 2.92211)
(-1.56198 -1.20648e-19 3.09593)
(-2.30615 0 3.21749)
(-3.06507 -6.07996e-20 3.28857)
(-3.83524 6.51715e-20 3.31445)
(-4.61487 0 3.29872)
(-5.39961 6.92647e-20 3.24333)
(-6.18303 -3.48367e-19 3.14867)
(-6.95667 3.03605e-19 3.01374)
(-0.108103 1.02352e-18 3.36884)
(-0.644956 3.2023e-20 3.62074)
(-1.37187 -4.80396e-19 3.76372)
(-2.05007 4.92717e-19 3.8663)
(-2.73862 0 3.92472)
(-3.43442 -6.52385e-20 3.94076)
(-4.139 -7.08006e-20 3.91513)
(-4.85037 0 3.84747)
(-5.56382 7.87669e-20 3.73611)
(-6.27214 0 3.57836)
(-0.00886188 3.40978e-20 4.05649)
(-0.477362 -6.5192e-20 4.26503)
(-1.1348 5.62838e-19 4.37436)
(-1.72746 -5.14493e-19 4.45566)
(-2.33166 0 4.50018)
(-2.94189 -6.46335e-19 4.50656)
(-3.56196 7.03937e-19 4.47257)
(-4.19136 3.17553e-19 4.39536)
(-4.8267 -3.06355e-19 4.27097)
(-5.46178 0 4.09464)
(0.0861719 -5.16606e-20 4.65519)
(-0.299528 3.32231e-20 4.8248)
(-0.862761 5.53938e-19 4.90419)
(-1.35142 2.52649e-20 4.96704)
(-1.85732 -5.11175e-19 5.00032)
(-2.37015 6.71624e-19 5.00012)
(-2.89549 -2.9619e-20 4.9612)
(-3.43349 -6.11358e-19 4.87834)
(-3.98168 -1.25038e-19 4.74535)
(-4.5347 -3.7051e-19 4.55529)
(0.173585 2.25921e-20 5.13284)
(-0.11676 5.61754e-19 5.27476)
(-0.564049 -5.58435e-19 5.33253)
(-0.932316 5.60937e-19 5.38338)
(-1.32695 -3.5894e-20 5.41104)
(-1.73079 -3.82838e-20 5.40952)
(-2.15121 3.26945e-19 5.3708)
(-2.5883 -6.62418e-19 5.2874)
(-3.04009 3.34082e-19 5.15103)
(-3.50193 0 4.95277)
(0.252969 -9.18702e-21 5.46619)
(0.0690169 -5.92358e-19 5.59555)
(-0.245001 1.16646e-18 5.64253)
(-0.479246 2.54933e-20 5.69017)
(-0.75154 -1.21584e-18 5.71985)
(-1.03609 6.46558e-19 5.72388)
(-1.34236 0 5.69164)
(-1.66976 0 5.61362)
(-2.01645 4.46436e-20 5.47968)
(-2.37818 0 5.27924)
(0.325496 -1.22572e-18 5.64008)
(0.257237 5.95912e-19 5.77372)
(0.0886903 -6.21698e-19 5.82149)
(-0.000747624 -1.62752e-20 5.87613)
(-0.142354 6.09214e-19 5.91698)
(-0.299484 -2.02836e-20 5.9345)
(-0.484402 0 5.9156)
(-0.695065 -3.67987e-19 5.84907)
(-0.929413 3.12039e-19 5.72339)
(-1.18312 0 5.52687)
(0.393852 -3.1583e-19 5.64805)
(0.44681 2.36415e-21 5.80051)
(0.433412 3.10359e-19 5.86118)
(0.493575 -6.29908e-19 5.93334)
(0.488511 2.89611e-19 5.99536)
(0.463605 2.04081e-20 6.03506)
(0.404716 0 6.0376)
(0.315753 3.76526e-19 5.99024)
(0.198617 -3.20584e-19 5.87963)
(0.0580732 -5.09236e-20 5.69251)
(0.465857 -4.83737e-21 5.49051)
(0.642356 0 5.67084)
(0.791012 0 5.75837)
(0.996796 0 5.8585)
(1.13045 1.97079e-20 5.95144)
(1.23596 3.38416e-19 6.02103)
(1.30237 -3.30014e-19 6.05115)
(1.33475 0 6.02759)
(1.33656 3.96661e-19 5.9367)
(1.3128 -3.37731e-19 5.76486)
(0.550895 3.05159e-19 5.16771)
(0.852037 4.64031e-21 5.38246)
(1.16295 3.10571e-19 5.51315)
(1.50801 -2.97782e-19 5.65172)
(1.77744 0 5.78589)
(2.00778 3.24452e-19 5.89433)
(2.19437 -3.25677e-19 5.95892)
(2.34351 0 5.96439)
(2.46049 0 5.89711)
(2.55084 -1.82945e-19 5.74341)
(0.65413 9.73567e-21 4.65252)
(1.08586 -9.17811e-21 4.95179)
(1.55116 -4.62948e-21 5.14845)
(2.0261 -1.14382e-21 5.32794)
(2.42443 0 5.5093)
(2.77031 -1.49398e-19 5.66365)
(3.0676 1.59721e-19 5.76807)
(3.32483 1.08379e-20 5.8067)
(3.54919 0 5.76632)
(3.74678 -2.28603e-19 5.6337)
(8.21395 1.18663e-19 5.24495)
(8.07539 0 5.80935)
(7.93537 0 6.44905)
(7.79652 1.53266e-20 7.18511)
(7.66558 -1.14219e-19 8.05003)
(7.56086 1.30496e-19 9.0979)
(7.56867 0 10.4231)
(8.17352 -1.02632e-20 12.169)
(8.61595 8.22109e-22 15.062)
(8.61273 -2.39931e-19 5.34025)
(8.54558 1.39233e-19 5.9028)
(8.49608 0 6.53603)
(8.47637 3.92998e-20 7.25665)
(8.50973 -5.48767e-20 8.08722)
(8.63955 -1.06162e-20 9.05669)
(8.91675 -3.0872e-21 10.1965)
(9.64061 1.30143e-20 11.4465)
(10.2579 0 12.5233)
(9.01422 -5.79984e-20 5.38158)
(9.01442 -8.89567e-22 5.9273)
(9.04627 -1.3013e-20 6.53262)
(9.12465 -2.39487e-20 7.20632)
(9.2718 1.37427e-20 7.9558)
(9.52016 2.04322e-20 8.78082)
(9.8722 5.32962e-22 9.66548)
(10.4575 -8.53465e-21 10.5561)
(11.1782 0 11.2527)
(9.40705 -5.15853e-20 5.37016)
(9.46604 3.91501e-20 5.8874)
(9.56413 8.70578e-22 6.45076)
(9.71438 0 7.06241)
(9.9328 9.78312e-21 7.72102)
(10.2415 -8.25321e-21 8.4182)
(10.6441 0 9.13709)
(11.2042 -9.57276e-21 9.87112)
(11.9998 1.0198e-20 10.5259)
(9.88988 0 5.7919)
(10.0396 6.06669e-21 6.30684)
(10.242 -5.38445e-21 6.85388)
(10.5091 7.18809e-21 7.42878)
(10.8572 -8.8882e-21 8.02344)
(11.295 0 8.62341)
(11.8428 7.64468e-21 9.22096)
(12.5909 2.63522e-21 9.75345)
(10.7082 0 6.59889)
(11.0069 -8.02279e-21 7.09673)
(11.3754 0 7.59982)
(11.82 -5.2428e-21 8.0937)
(12.3397 0 8.56463)
(13.0163 1.50466e-21 8.97873)
(11.8023 0 7.15877)
(12.2371 5.13592e-21 7.56309)
(12.7266 3.39662e-21 7.93778)
(13.344 -1.47712e-21 8.26727)
(13.029 -3.33162e-21 7.34842)
(13.5943 1.93027e-21 7.6117)
(10.2777 -2.38425e-19 12.9895)
(6.86156 1.616e-19 10.0708)
(0.676111 1.26985e-19 6.39866)
(10.7956 7.98395e-21 10.8045)
(10.0966 3.04923e-20 9.06423)
(8.54979 3.78256e-20 7.37422)
(11.6849 -7.63554e-21 10.8714)
(11.8189 -4.18444e-21 10.1827)
(11.5057 5.88831e-21 9.29461)
(12.4894 0 10.5807)
(12.7924 4.0115e-21 10.3929)
(12.8521 -8.64605e-22 9.99686)
(13.0266 -4.64062e-21 9.87984)
(13.3766 2.69325e-20 9.88482)
(13.5984 -3.1427e-20 9.77098)
(13.4094 0 9.11457)
(13.7659 0 9.19345)
(14.0459 2.6636e-20 9.21079)
(13.7021 0 8.39083)
(14.0401 -1.27493e-20 8.48445)
(14.3219 1.35445e-20 8.54507)
(13.9194 0 7.71337)
(14.2298 8.07291e-21 7.79617)
(14.4933 -9.23643e-21 7.85971)
(14.3545 3.7527e-21 7.14623)
(14.5951 2.55923e-22 7.19941)
(-1.34204 -1.75893e-19 3.39237)
(1.14923 2.0878e-20 4.03611)
(1.92704 7.03006e-20 4.50323)
(2.54763 -6.69578e-20 4.83458)
(3.07949 1.46268e-19 5.11062)
(3.53739 -1.48731e-19 5.32863)
(3.93689 -1.67855e-19 5.47961)
(4.29374 1.48146e-19 5.5549)
(4.6178 -1.92781e-19 5.54419)
(6.24372 -2.15477e-20 5.23485)
(4.65671 -2.93509e-20 4.20193)
(3.76616 0 4.01685)
(3.6612 -7.93953e-21 4.24306)
(3.95316 -6.82504e-20 4.5764)
(4.36787 6.83779e-20 4.87349)
(4.80241 4.71083e-21 5.08863)
(5.22603 -8.70256e-20 5.21079)
(5.62997 1.77272e-19 5.23467)
(10.3358 1.86613e-20 7.52295)
(8.82611 1.39511e-20 6.08424)
(7.34046 -1.30007e-20 5.10857)
(6.30569 7.47056e-21 4.58878)
(5.80737 0 4.44409)
(5.7281 0 4.52347)
(5.91309 -7.3928e-20 4.67468)
(6.24063 7.68273e-20 4.79893)
(6.63335 -8.26584e-20 4.8459)
(12.4627 -1.75829e-20 8.80378)
(11.6306 -1.13531e-20 7.56124)
(10.5452 -2.77311e-21 6.49486)
(9.48492 2.51821e-20 5.66881)
(8.62155 -1.08509e-20 5.0941)
(8.03716 7.5716e-21 4.75398)
(7.75236 -3.48203e-20 4.5946)
(7.73107 7.10325e-20 4.53494)
(7.90402 -7.52842e-20 4.49379)
(13.6913 -2.98808e-20 9.1384)
(13.4199 2.96899e-20 8.28265)
(12.8705 -3.14744e-20 7.41187)
(12.1723 2.74227e-20 6.61767)
(11.4437 6.65003e-21 5.93583)
(10.7804 -3.61812e-21 5.38392)
(10.258 1.8877e-21 4.96231)
(9.92239 0 4.65008)
(9.78275 0 4.40771)
(14.391 -1.95526e-20 8.95067)
(14.4981 -2.45523e-20 8.44518)
(14.3921 3.94628e-20 7.82867)
(14.1031 -5.30552e-21 7.18473)
(13.6927 0 6.55847)
(13.2298 3.07239e-21 5.97806)
(12.779 -1.78752e-21 5.45877)
(12.394 -5.26539e-22 5.00221)
(12.1134 9.73217e-22 4.59722)
(14.7661 2.24481e-20 8.48701)
(15.0909 -2.37801e-20 8.23132)
(15.2906 3.11692e-20 7.84019)
(15.3365 6.43519e-21 7.36933)
(15.2468 -3.66883e-20 6.85816)
(15.0626 -2.67688e-20 6.3356)
(14.8279 2.05826e-20 5.8213)
(14.583 -1.25317e-21 5.32505)
(14.3632 -6.75692e-21 4.84737)
(14.9531 0 7.8895)
(15.3768 0 7.78429)
(15.7537 0 7.55846)
(16.0276 -3.12609e-20 7.23874)
(16.1885 3.07487e-20 6.85104)
(16.2553 4.14232e-20 6.4178)
(16.2535 -3.79692e-20 5.95681)
(16.2084 -2.58101e-20 5.47986)
(16.1447 2.39782e-20 4.99239)
(15.0332 -7.74207e-22 7.25361)
(15.4811 -1.32635e-21 7.2226)
(15.9365 1.96619e-21 7.09869)
(16.338 -2.61645e-21 6.88864)
(16.6616 3.07417e-20 6.60488)
(16.9112 -2.82924e-20 6.26076)
(17.0978 0 5.86859)
(17.2343 -4.24058e-20 5.43814)
(17.3347 4.31861e-20 4.9757)
(15.482 1.30348e-21 6.62738)
(15.9521 -4.41113e-22 6.55563)
(16.4044 4.96977e-22 6.41321)
(16.8117 -2.62075e-21 6.20344)
(17.1697 -1.8594e-21 5.93183)
(17.4806 0 5.60464)
(17.7479 0 5.22788)
(17.977 -8.12275e-23 4.80627)
(16.7605 2.57299e-21 5.72231)
(17.1649 -2.45145e-20 5.5022)
(17.5389 -5.6174e-21 5.22736)
(17.8806 5.83336e-20 4.90018)
(18.1893 -6.56376e-20 4.52308)
(17.395 -2.17203e-20 4.79464)
(17.7637 2.35758e-20 4.50849)
(18.1067 -3.14649e-22 4.173)
(17.8487 1.83831e-20 3.79718)
)
;

boundaryField
{
    inlet
    {
        type            fixedValue;
        value           nonuniform 0();
    }
    outlet
    {
        type            zeroGradient;
    }
    flap
    {
        type            movingWallVelocity;
        value           nonuniform List<vector> 
33
(
(0 0 0)
(-1.03787e-15 0 -1.37997e-14)
(-2.84706e-15 -2.77556e-14 -2.74604e-14)
(-3.23628e-15 4.37924e-33 -2.7373e-14)
(0 -2.77556e-14 0)
(0 0 0)
(0 0 0)
(0 0 0)
(-9.29064e-15 0 -1.10239e-13)
(-7.95589e-15 0 -1.10449e-13)
(-6.37604e-18 -2.77556e-14 -1.04976e-16)
(-5.65904e-15 0 -1.10733e-13)
(-4.89891e-15 0 -1.10806e-13)
(-8.96057e-15 -2.77556e-14 -2.21682e-13)
(-4.43535e-15 0 -1.10984e-13)
(0 0 0)
(0 0 0)
(-9.19026e-15 -2.77556e-14 3.8668e-16)
(-2.65283e-16 0 -6.92874e-15)
(-1.08593e-15 0 -1.43216e-14)
(-7.43509e-17 0 -7.14413e-16)
(6.47711e-15 2.77556e-14 5.47448e-14)
(0 0 0)
(6.46959e-15 2.77556e-14 5.47466e-14)
(0 0 0)
(-5.47345e-15 0 -5.63278e-14)
(9.83641e-17 9.27888e-33 1.16422e-15)
(0 0 0)
(0 0 0)
(-5.67484e-15 -1.91317e-33 -1.10731e-13)
(-4.9353e-15 0 -1.11418e-13)
(-4.4819e-15 1.5169e-33 -1.10841e-13)
(-4.43142e-15 -2.77556e-14 -1.10845e-13)
)
;
    }
    upperWall
    {
        type            noSlip;
    }
    lowerWall
    {
        type            noSlip;
    }
    frontAndBack
    {
        type            empty;
    }
    procBoundary4to1
    {
        type            processor;
        value           nonuniform List<vector> 
30
(
(9.78207 1.18398e-20 5.31044)
(9.78207 1.18398e-20 5.31044)
(10.2798 -6.11985e-22 5.65034)
(10.4688 -6.56029e-22 6.11489)
(10.4688 -6.56029e-22 6.11489)
(11.1129 6.30561e-21 6.30984)
(11.4287 -2.40885e-20 6.73698)
(11.4287 -2.40885e-20 6.73698)
(12.1503 0 6.71468)
(12.5688 0 7.04662)
(12.5688 0 7.04662)
(13.2598 -1.38325e-20 6.7909)
(13.7771 1.25578e-20 6.99954)
(14.072 4.34599e-21 7.07991)
(14.072 4.34599e-21 7.07991)
(14.4274 0 6.54061)
(14.6458 8.45547e-21 6.58127)
(15.0493 -1.94979e-20 6.63142)
(15.0493 -1.94979e-20 6.63142)
(15.4238 -1.61631e-20 6.04324)
(15.8742 1.72579e-20 5.99261)
(16.3281 -2.03282e-21 5.88601)
(16.3281 -2.03282e-21 5.88601)
(16.5969 -2.05246e-21 5.21743)
(17.0046 0 5.03093)
(17.0046 0 5.03093)
(17.1414 9.73364e-22 4.34983)
(17.5047 4.31312e-20 4.09629)
(17.5047 4.31312e-20 4.09629)
(17.5033 3.42512e-20 3.42451)
)
;
    }
    procBoundary4to2
    {
        type            processor;
        value           nonuniform List<vector> 
11
(
(7.04862 -8.05827e-20 4.79058)
(8.20072 -3.82428e-20 4.40827)
(9.81731 3.59413e-20 4.18596)
(11.9562 -8.30882e-21 4.22204)
(14.1959 -1.71412e-21 4.38089)
(16.0851 -5.3016e-21 4.49402)
(17.4139 1.61174e-21 4.48378)
(18.1749 4.02983e-20 4.3427)
(18.4659 0 4.09804)
(18.4209 0 3.78897)
(18.1683 -2.36587e-20 3.45247)
)
;
    }
    procBoundary4to3
    {
        type            processor;
        value           nonuniform List<vector> 
19
(
(4.22594 0 0.26143)
(5.09368 -2.71958e-20 0.663658)
(5.50366 1.7577e-22 1.08638)
(5.73798 2.34854e-19 1.47039)
(5.90233 5.12771e-20 1.83059)
(6.04393 3.99056e-19 2.17525)
(6.18551 7.37973e-19 2.50838)
(6.33874 -4.27003e-19 2.8315)
(6.5101 -3.50632e-19 3.14405)
(6.70336 1.74406e-20 3.44375)
(6.92064 1.0667e-20 3.72715)
(7.16268 -1.05739e-20 3.98992)
(7.42871 -6.38786e-19 4.22717)
(7.71637 0 4.43394)
(8.02153 1.45461e-19 4.60545)
(8.34985 1.333e-19 4.74143)
(8.69061 -1.15835e-19 4.83598)
(9.0358 -6.4492e-20 4.88742)
(9.37719 0 4.89541)
)
;
    }
    procBoundary4to5
    {
        type            processor;
        value           nonuniform List<vector> 
18
(
(-8.76472 0 0.363866)
(-8.98671 -8.24068e-20 1.01708)
(-8.75663 4.04409e-20 1.65202)
(-8.31214 1.29899e-19 2.26472)
(-7.70981 -4.27597e-20 2.83659)
(-6.9654 4.28778e-20 3.37061)
(-6.08748 0 3.86089)
(-5.08431 -4.78187e-20 4.30075)
(-3.9665 -1.34202e-21 4.68338)
(-2.7486 -3.72604e-19 5.00153)
(-1.45061 -5.27937e-20 5.24744)
(-0.0994886 5.35641e-20 5.41775)
(1.26941 -1.69898e-19 5.5002)
(2.62039 -2.56411e-19 5.49105)
(3.92329 -1.99572e-19 5.39665)
(4.9156 2.29221e-20 5.43551)
(4.9156 2.29221e-20 5.43551)
(6.01304 6.24026e-20 5.15274)
)
;
    }
}


// ************************************************************************* //
