/*--------------------------------*- C++ -*----------------------------------*\
| =========                 |                                                 |
| \\      /  F ield         | OpenFOAM: The Open Source CFD Toolbox           |
|  \\    /   O peration     | Version:  dev                                   |
|   \\  /    A nd           | Web:      www.OpenFOAM.org                      |
|    \\/     M anipulation  |                                                 |
\*---------------------------------------------------------------------------*/
FoamFile
{
    version     2.0;
    format      ascii;
    class       surfaceScalarField;
    location    "1.28";
    object      meshPhi;
}
// * * * * * * * * * * * * * * * * * * * * * * * * * * * * * * * * * * * * * //

dimensions      [0 3 -1 0 0 0 0];

internalField   nonuniform List<scalar> 
5457
(
-5.0054e-05
1.51346e-06
-9.20011e-05
4.17316e-06
-0.000123761
6.16118e-06
-0.00014566
7.50787e-06
-0.000157951
8.28883e-06
-0.000161009
8.57284e-06
-0.000155596
8.42973e-06
-0.000142944
7.93786e-06
-0.000124699
7.18555e-06
-0.000102772
6.26406e-06
-7.91309e-05
5.26365e-06
-5.55848e-05
4.255e-06
-3.36475e-05
3.29532e-06
-1.44548e-05
2.43015e-06
1.27838e-06
1.68514e-06
1.32409e-05
1.07052e-06
2.14694e-05
5.85017e-07
2.62722e-05
2.19578e-07
2.81479e-05
-3.96873e-08
2.7725e-05
-2.08702e-07
2.50163e-05
-2.94176e-07
2.05517e-05
-3.02723e-07
1.57274e-05
-2.63863e-07
1.12355e-05
-2.06519e-07
7.34589e-06
-1.39926e-07
4.25922e-06
-7.40361e-08
2.09289e-06
-2.79004e-08
8.00555e-07
-1.08424e-08
2.06122e-07
-7.2962e-09
-4.4799e-09
-5.01689e-05
3.03531e-06
-9.22468e-05
8.37079e-06
-0.000124182
1.23626e-05
-0.000146289
1.50719e-05
-0.000158788
1.66457e-05
-0.000162017
1.72151e-05
-0.000156706
1.69288e-05
-0.000144077
1.59493e-05
-0.000125774
1.44452e-05
-0.000103724
1.25985e-05
-7.99173e-05
1.05873e-05
-5.61757e-05
8.56021e-06
-3.4032e-05
6.63494e-06
-1.46411e-05
4.8991e-06
1.26928e-06
3.40369e-06
1.33803e-05
2.16912e-06
2.17241e-05
1.19281e-06
2.66065e-05
4.56787e-07
2.85229e-05
-6.65637e-08
2.80868e-05
-4.092e-07
2.53813e-05
-5.8354e-07
2.09073e-05
-6.02425e-07
1.60324e-05
-5.29479e-07
1.15131e-05
-4.27893e-07
7.56486e-06
-3.07269e-07
4.35392e-06
-1.65408e-07
2.06918e-06
-3.92221e-08
7.66876e-07
1.52943e-08
2.19766e-07
7.30945e-09
-5.55868e-09
-5.02451e-05
4.55729e-06
-9.24403e-05
1.25706e-05
-0.000124555
1.85731e-05
-0.000146888
2.2657e-05
-0.000159629
2.50427e-05
-0.00016308
2.59245e-05
-0.000157944
2.55193e-05
-0.000145418
2.40667e-05
-0.000127137
2.18209e-05
-0.000105036
1.90537e-05
-8.1116e-05
1.60264e-05
-5.7209e-05
1.29734e-05
-3.48636e-05
1.00775e-05
-1.52533e-05
7.4644e-06
8.78987e-07
5.21029e-06
1.32014e-05
3.34598e-06
2.17357e-05
1.86789e-06
2.67788e-05
7.495e-07
2.88188e-05
-4.9917e-08
2.8461e-05
-5.78657e-07
2.57989e-05
-8.51164e-07
2.13084e-05
-8.80985e-07
1.63967e-05
-7.74344e-07
1.18961e-05
-6.49595e-07
7.9467e-06
-5.20273e-07
4.58767e-06
-3.30107e-07
2.06186e-06
-8.64011e-08
6.70807e-07
7.1808e-08
2.08303e-07
6.52941e-08
6.43187e-09
-5.02687e-05
6.07062e-06
-9.25463e-05
1.67495e-05
-0.000124821
2.47604e-05
-0.000147382
3.0228e-05
-0.000160389
3.34459e-05
-0.000164114
3.46718e-05
-0.000159225
3.418e-05
-0.000146893
3.22805e-05
-0.000128737
2.93154e-05
-0.000106681
2.56464e-05
-8.27227e-05
2.16206e-05
-5.87056e-05
1.7551e-05
-3.61888e-05
1.36828e-05
-1.63592e-05
1.01855e-05
2.33635e-08
7.16185e-06
1.261e-05
4.65382e-06
2.14065e-05
2.65736e-06
2.66948e-05
1.13845e-06
2.89522e-05
4.34504e-08
2.87775e-05
-6.9221e-07
2.6208e-05
-1.08048e-06
2.16862e-05
-1.12393e-06
1.67088e-05
-9.6572e-07
1.22467e-05
-8.10667e-07
8.43871e-06
-7.29952e-07
5.07175e-06
-6.00024e-07
2.23179e-06
-2.79589e-07
5.56183e-07
7.07395e-08
1.30653e-07
1.55854e-07
4.18635e-08
-5.02732e-05
7.57215e-06
-9.26353e-05
2.09001e-05
-0.000125096
3.09173e-05
-0.000147935
3.77809e-05
-0.000161281
4.18547e-05
-0.000165363
4.34545e-05
-0.000160805
4.291e-05
-0.000148747
4.05993e-05
-0.000130786
3.69474e-05
-0.000108827
3.24042e-05
-8.48605e-05
2.74049e-05
-6.07388e-05
2.23346e-05
-3.80315e-05
1.74968e-05
-1.79428e-05
1.31104e-05
-1.25313e-06
9.30718e-06
1.16671e-05
6.1406e-06
2.08027e-05
3.6078e-06
2.64167e-05
1.66756e-06
2.89726e-05
2.53208e-07
2.90627e-05
-7.16813e-07
2.66574e-05
-1.25496e-06
2.21147e-05
-1.33747e-06
1.69673e-05
-1.10465e-06
1.24078e-05
-8.45263e-07
8.80566e-06
-7.88525e-07
5.73211e-06
-8.5227e-07
2.73653e-06
-6.48278e-07
5.70726e-07
-1.18075e-07
-1.93977e-08
2.08029e-07
9.61367e-08
-5.0254e-05
9.06218e-06
-9.26995e-05
2.50213e-05
-0.00012537
3.70384e-05
-0.000148535
4.53094e-05
-0.000162289
5.02681e-05
-0.000166806
5.22804e-05
-0.000162664
5.17273e-05
-0.000150959
4.9051e-05
-0.000133263
4.47546e-05
-0.000111461
3.9373e-05
-8.75319e-05
3.34266e-05
-6.33266e-05
2.73743e-05
-4.04223e-05
2.15783e-05
-2.00464e-05
1.63021e-05
-3.00404e-06
1.17077e-05
1.03119e-05
7.86386e-06
1.98586e-05
4.77182e-06
2.58719e-05
2.38568e-06
2.87972e-05
6.27378e-07
2.923e-05
-6.03897e-07
2.70995e-05
-1.34015e-06
2.26335e-05
-1.53383e-06
1.72598e-05
-1.25809e-06
1.23321e-05
-7.95353e-07
8.7179e-06
-5.79346e-07
6.18139e-06
-8.19374e-07
3.51342e-06
-1.00746e-06
8.75142e-07
-5.38421e-07
-1.97316e-07
1.14489e-07
1.4122e-07
-5.02019e-05
1.05388e-05
-9.27196e-05
2.91089e-05
-0.000125622
4.31234e-05
-0.000149161
5.28209e-05
-0.000163387
5.87015e-05
-0.000168419
6.11739e-05
-0.000164777
6.06659e-05
-0.000153512
5.76788e-05
-0.00013616
5.27885e-05
-0.00011458
4.66111e-05
-9.07406e-05
3.97487e-05
-6.64876e-05
3.27354e-05
-4.34018e-05
2.59958e-05
-2.27291e-05
1.98313e-05
-5.30169e-06
1.44338e-05
8.46493e-06
9.89071e-06
1.84942e-05
6.20949e-06
2.49783e-05
3.34633e-06
2.83319e-05
1.21874e-06
2.91631e-05
-2.945e-07
2.74112e-05
-1.26819e-06
2.31985e-05
-1.66983e-06
1.77325e-05
-1.48677e-06
1.22649e-05
-8.45828e-07
8.14378e-06
-2.26255e-07
5.96189e-06
-3.26826e-07
4.15949e-06
-9.89196e-07
1.46539e-06
-1.00252e-06
-3.20349e-07
-1.74117e-07
1.33502e-07
-5.01073e-05
1.19947e-05
-9.26789e-05
3.3149e-05
-0.000125832
4.91658e-05
-0.000149792
6.03185e-05
-0.000164556
6.71636e-05
-0.00017018
7.01508e-05
-0.000167126
6.97501e-05
-0.000156392
6.65161e-05
-0.000139472
6.10918e-05
-0.000118193
5.41695e-05
-9.45028e-05
4.64287e-05
-7.02488e-05
3.84788e-05
-4.70149e-05
3.08062e-05
-2.60543e-05
2.37549e-05
-8.22787e-06
1.75488e-05
6.02367e-06
1.22921e-05
1.65934e-05
7.9955e-06
2.36213e-05
4.61746e-06
2.74665e-05
2.08317e-06
2.87276e-05
2.66072e-07
2.73771e-05
-9.48328e-07
2.3559e-05
-1.60132e-06
1.83436e-05
-1.69538e-06
1.25541e-05
-1.13875e-06
7.51564e-06
-1.03554e-07
4.94647e-06
4.18256e-07
4.04798e-06
-3.16702e-07
2.0151e-06
-1.08656e-06
-3.16557e-07
-5.35176e-07
4.7e-08
-4.99661e-05
1.3424e-05
-9.25741e-05
3.71262e-05
-0.000125993
5.51395e-05
-0.000150416
6.77685e-05
-0.000165777
7.56198e-05
-0.000172072
7.918e-05
-0.000169696
7.89561e-05
-0.000159587
7.55497e-05
-0.000143194
6.96639e-05
-0.000122305
6.20615e-05
-9.88396e-05
5.3495e-05
-7.46465e-05
4.46484e-05
-5.13114e-05
3.60695e-05
-3.00905e-05
2.81456e-05
-1.18723e-05
2.11308e-05
2.87103e-06
1.51495e-05
1.40104e-05
1.02166e-05
2.16448e-05
6.28615e-06
2.60584e-05
3.29373e-06
2.77822e-05
1.13101e-06
2.67543e-05
-3.02022e-07
2.3289e-05
-1.133e-06
1.86551e-05
-1.57211e-06
1.31773e-05
-1.48085e-06
7.38099e-06
-4.60618e-07
3.54106e-06
8.70899e-07
2.73675e-06
8.56564e-07
1.94984e-06
-3.94451e-07
-2.05062e-07
-6.53691e-07
-7.89677e-08
-4.97732e-05
1.48228e-05
-9.23953e-05
4.10264e-05
-0.000126089
6.10191e-05
-0.000151005
7.51374e-05
-0.000167019
8.40352e-05
-0.000174058
8.82296e-05
-0.000172446
8.82586e-05
-0.00016306
8.47645e-05
-0.000147298
7.85033e-05
-0.000126902
7.03043e-05
-0.000103758
6.09876e-05
-7.97087e-05
5.13012e-05
-5.63431e-05
4.18553e-05
-3.49174e-05
3.30851e-05
-1.63392e-05
2.5269e-05
-1.11887e-06
1.8554e-05
1.05855e-05
1.29683e-05
1.88515e-05
8.45958e-06
2.39013e-05
4.95845e-06
2.61471e-05
2.38106e-06
2.53443e-05
7.2517e-07
2.2003e-05
-1.42058e-07
1.79511e-05
-7.57359e-07
1.33944e-05
-1.28545e-06
7.6801e-06
-9.36412e-07
2.36231e-06
6.89717e-07
4.10605e-07
1.9254e-06
8.11034e-07
1.0428e-06
-1.85362e-07
-1.69945e-07
-1.07263e-07
-4.9521e-05
1.61872e-05
-9.21289e-05
4.48398e-05
-0.000126098
6.67905e-05
-0.000151534
8.24092e-05
-0.000168245
9.23976e-05
-0.000176094
9.73008e-05
-0.000175332
9.76722e-05
-0.000166769
9.41835e-05
-0.000151748
8.76409e-05
-0.000131964
7.89367e-05
-0.000109261
6.89567e-05
-8.54616e-05
5.84997e-05
-6.21543e-05
4.82311e-05
-4.06053e-05
3.8641e-05
-2.17375e-05
3.00437e-05
-6.09161e-06
2.26042e-05
6.13314e-06
1.63629e-05
1.50009e-05
1.12668e-05
2.07092e-05
7.22574e-06
2.35429e-05
4.16563e-06
2.29619e-05
2.21992e-06
1.95264e-05
1.3777e-06
1.56684e-05
8.85189e-07
1.20348e-05
5.57359e-08
7.33469e-06
-5.46372e-07
1.49332e-06
3.80816e-07
-2.12997e-06
2.37624e-06
-1.34903e-06
2.61754e-06
-6.50911e-07
1.02476e-06
1.53651e-07
-4.92039e-05
1.75178e-05
-9.17647e-05
4.85672e-05
-0.000126009
7.24545e-05
-0.000151985
8.95857e-05
-0.000169434
0.00010071
-0.000178152
0.000106396
-0.000178321
0.000107201
-0.000170682
0.000103817
-0.000156517
9.70948e-05
-0.000137473
8.7981e-05
-0.000115348
7.74213e-05
-9.19265e-05
6.62705e-05
-6.87911e-05
5.52477e-05
-4.72203e-05
4.48874e-05
-2.81638e-05
3.55411e-05
-1.21881e-05
2.73982e-05
4.64459e-07
2.05158e-05
9.83442e-06
1.48488e-05
1.61277e-05
1.02812e-05
1.95518e-05
6.7182e-06
1.93071e-05
4.38264e-06
1.57877e-05
3.45605e-06
1.16563e-05
3.24934e-06
8.27033e-06
2.70067e-06
4.777e-06
1.62942e-06
-7.12355e-08
1.28144e-06
-4.33475e-06
2.65924e-06
-4.03397e-06
3.74868e-06
-2.05062e-06
2.65917e-06
8.34453e-07
-4.88197e-05
1.88156e-05
-9.12992e-05
5.22107e-05
-0.000125816
7.80114e-05
-0.000152348
9.66625e-05
-0.000170569
0.000108957
-0.000180208
0.000115476
-0.000181382
0.000116794
-0.000174766
0.000113619
-0.000161574
0.000106831
-0.000143401
9.7421e-05
-0.000121995
8.6389e-05
-9.90996e-05
7.46443e-05
-7.62829e-05
6.29553e-05
-5.48238e-05
5.18957e-05
-3.56981e-05
4.18463e-05
-1.95201e-05
3.30304e-05
-6.57974e-06
2.55355e-05
3.12649e-06
1.93334e-05
9.81219e-06
1.43002e-05
1.36861e-05
1.03e-05
1.38822e-05
7.53982e-06
1.05096e-05
6.34295e-06
5.94339e-06
6.30674e-06
2.02856e-06
6.38714e-06
-9.82999e-07
5.72856e-06
-4.10893e-06
4.62609e-06
-7.18133e-06
4.46452e-06
-7.15396e-06
5.06876e-06
-4.5397e-06
4.45641e-06
1.87168e-06
-4.8369e-05
2.00759e-05
-9.07364e-05
5.57575e-05
-0.000125524
8.34371e-05
-0.000152616
0.0001036
-0.000171624
0.000117085
-0.00018222
0.000124485
-0.000184464
0.000126395
-0.000178965
0.000123544
-0.000166867
0.000116825
-0.000149702
0.000107251
-0.00012917
9.58717e-05
-0.000106963
8.36505e-05
-8.46261e-05
7.13908e-05
-6.3442e-05
5.97086e-05
-4.44036e-05
4.90241e-05
-2.81802e-05
3.95908e-05
-1.51197e-05
3.15245e-05
-5.28217e-06
2.48336e-05
1.51991e-06
1.94197e-05
5.54374e-06
1.51176e-05
6.09881e-06
1.20351e-05
3.07727e-06
1.05015e-05
-1.72721e-06
1.04029e-05
-6.4575e-06
1.10149e-05
-9.93761e-06
1.13078e-05
-1.19873e-05
1.06108e-05
-1.29482e-05
9.44874e-06
-1.16354e-05
8.40259e-06
-7.65006e-06
6.64342e-06
3.06407e-06
-4.79025e-05
2.12468e-05
-9.01124e-05
5.91329e-05
-0.00012514
8.87273e-05
-0.000152787
0.000110434
-0.000172578
0.000125133
-0.000184151
0.000133481
-0.000187522
0.000136077
-0.000183238
0.000133667
-0.000172362
0.000127157
-0.000156351
0.000117559
-0.000136855
0.000105957
-0.000115518
9.33701e-05
-9.38509e-05
8.06495e-05
-7.31329e-05
6.84457e-05
-5.43773e-05
5.72121e-05
-3.82949e-05
4.723e-05
-2.5305e-05
3.86467e-05
-1.55674e-05
3.15251e-05
-8.95017e-06
2.58137e-05
-5.16739e-06
2.13618e-05
-4.57452e-06
1.81693e-05
-7.2969e-06
1.64511e-05
-1.20975e-05
1.62263e-05
-1.74141e-05
1.70955e-05
-2.17364e-05
1.8261e-05
-2.37373e-05
1.86658e-05
-2.28521e-05
1.76736e-05
-1.83126e-05
1.49918e-05
-1.04445e-05
1.00259e-05
5.05088e-06
2.05333e-06
-2.35812e-08
3.71114e-05
-9.32746e-07
0.000181678
-4.87336e-06
0.000370007
-8.78449e-06
0.000402327
-8.49179e-06
0.000302391
-3.89594e-06
0.000198922
9.41426e-07
0.000133768
3.48549e-06
9.90677e-05
4.09605e-06
8.2469e-05
4.3181e-06
7.65272e-05
4.72726e-06
7.76492e-05
5.44016e-06
8.39237e-05
6.43961e-06
9.37543e-05
7.51774e-06
0.000105753
8.47018e-06
0.000118625
9.17464e-06
0.000131169
9.60929e-06
0.000142304
9.81146e-06
0.000151094
9.82473e-06
0.000156772
9.668e-06
0.000158752
9.337e-06
0.000156637
8.82062e-06
0.000150226
8.12056e-06
0.000139501
7.26029e-06
0.000124609
6.27878e-06
0.000105833
5.21978e-06
8.35521e-05
4.11909e-06
5.82223e-05
2.99376e-06
3.0251e-05
1.82752e-06
6.20289e-07
2.1291e-06
3.86293e-08
4.1838e-05
-1.94529e-06
0.000194066
-9.66745e-06
0.000376535
-1.69464e-05
0.000395978
-1.60528e-05
0.000291985
-7.03488e-06
0.000190872
1.64024e-06
0.000128927
6.35728e-06
9.62533e-05
8.13259e-06
8.08483e-05
8.78752e-06
7.57089e-05
9.55281e-06
7.73676e-05
1.09446e-05
8.40118e-05
1.28837e-05
9.41008e-05
1.49631e-05
0.000106283
1.67962e-05
0.000119285
1.81578e-05
0.000131915
1.9008e-05
0.000143097
1.94109e-05
0.0001519
1.94399e-05
0.000157558
1.91236e-05
0.000159488
1.8453e-05
0.000157301
1.74086e-05
0.000150799
1.59985e-05
0.000139971
1.42756e-05
0.000124972
1.23205e-05
0.000106091
1.02216e-05
8.37085e-05
8.05033e-06
5.82829e-05
5.84035e-06
3.02424e-05
3.55936e-06
1.20673e-06
2.42334e-06
6.15113e-08
4.98922e-05
-3.30468e-06
0.000207211
-1.42801e-05
0.000366476
-2.39724e-05
0.00036286
-2.20026e-05
0.000260357
-8.96933e-06
0.000169993
2.43993e-06
0.00011662
8.79929e-06
8.90675e-05
1.19256e-05
7.66241e-05
1.3318e-05
7.33004e-05
1.45464e-05
7.60925e-05
1.65458e-05
8.34223e-05
1.92638e-05
9.39246e-05
2.21809e-05
0.00010636
2.47801e-05
0.00011952
2.6747e-05
0.000132244
2.80056e-05
0.000143473
2.86166e-05
0.000152284
2.86616e-05
0.000157918
2.81714e-05
0.000159796
2.71393e-05
0.000157537
2.55449e-05
0.000150957
2.34107e-05
0.000140051
2.08291e-05
0.000124981
1.79245e-05
0.000106042
1.48287e-05
8.36188e-05
1.16466e-05
5.8171e-05
8.42638e-06
3.01455e-05
5.12173e-06
1.7331e-06
3.41616e-06
-1.57244e-07
6.03433e-05
-5.29947e-06
0.000212753
-1.77249e-05
0.000331542
-2.67468e-05
0.000303587
-2.30386e-05
0.000211677
-8.80977e-06
0.000139553
3.23465e-06
9.86526e-05
1.06126e-05
7.83006e-05
1.51101e-05
7.00266e-05
1.76764e-05
6.92693e-05
1.96689e-05
7.36789e-05
2.22429e-05
8.19621e-05
2.5538e-05
9.30123e-05
2.90842e-05
0.000105762
3.23068e-05
0.000119101
3.48164e-05
0.000131925
3.64693e-05
0.000143206
3.72834e-05
0.000152031
3.73292e-05
0.000157654
3.66334e-05
0.000159497
3.52088e-05
0.000157195
3.3038e-05
0.000150578
3.01639e-05
0.000139643
2.67362e-05
0.000124562
2.29226e-05
0.000105637
1.88945e-05
8.32587e-05
1.47866e-05
5.78871e-05
1.0657e-05
2.99709e-05
6.45142e-06
2.17677e-06
5.89496e-06
-8.13554e-07
7.1718e-05
-7.88723e-06
0.000205324
-1.92546e-05
0.000275813
-2.42192e-05
0.000232392
-1.82998e-05
0.000158668
-6.56712e-06
0.000107248
3.5781e-06
7.92661e-05
1.14529e-05
6.61348e-05
1.74344e-05
6.21324e-05
2.15969e-05
6.41582e-05
2.47463e-05
7.04364e-05
2.79625e-05
7.98675e-05
3.16871e-05
9.15954e-05
3.56723e-05
0.000104737
3.93649e-05
0.000118293
4.2334e-05
0.000131234
4.43382e-05
0.000142577
4.53167e-05
0.000151427
4.53228e-05
0.000157053
4.43681e-05
0.000158897
4.24898e-05
0.000156584
3.97136e-05
0.000149947
3.61032e-05
0.000139003
3.1852e-05
0.000123931
2.71846e-05
0.000105046
2.23075e-05
8.27541e-05
1.73821e-05
5.75151e-05
1.24679e-05
2.97597e-05
7.50511e-06
2.52192e-06
1.03879e-05
-1.97967e-06
8.0052e-05
-1.03139e-05
0.000179992
-1.76872e-05
0.000205863
-1.65713e-05
0.000161435
-9.78204e-06
0.000110851
-3.2531e-06
7.86712e-05
3.43864e-06
6.16477e-05
1.12165e-05
5.44383e-05
1.86807e-05
5.39878e-05
2.479e-05
5.85327e-05
2.94995e-05
6.66782e-05
3.35301e-05
7.7331e-05
3.76476e-05
8.98098e-05
4.19447e-05
0.000103398
4.5958e-05
0.000117221
4.92565e-05
0.000130308
5.15266e-05
0.000141713
5.26109e-05
0.000150583
5.25095e-05
0.0001562
5.12367e-05
0.000158041
4.88351e-05
0.000155737
4.54101e-05
0.000149097
4.10788e-05
0.000138159
3.6049e-05
0.000123112
3.06009e-05
0.000104284
2.49767e-05
8.21082e-05
1.93574e-05
5.70458e-05
1.38088e-05
2.95008e-05
8.26173e-06
2.76248e-06
1.64049e-05
-3.44704e-06
8.02527e-05
-1.1699e-05
0.000137826
-1.30014e-05
0.000133715
-5.60926e-06
0.000100822
2.43627e-07
7.35042e-05
1.05537e-06
5.68194e-05
3.68266e-06
4.77688e-05
1.04416e-05
4.45935e-05
1.89773e-05
4.65171e-05
2.70985e-05
5.29626e-05
3.36375e-05
6.27408e-05
3.87025e-05
7.45802e-05
4.32798e-05
8.78445e-05
4.7849e-05
0.000101898
5.20837e-05
0.000115997
5.55605e-05
0.000129241
5.79577e-05
0.000140707
5.90538e-05
0.000149585
5.87605e-05
0.000155177
5.71066e-05
0.000156973
5.41521e-05
0.00015464
5.0053e-05
0.000148006
4.50038e-05
0.000137092
3.92518e-05
0.000122095
3.31093e-05
0.000103347
2.68529e-05
8.13008e-05
2.06766e-05
5.64416e-05
1.46561e-05
2.91688e-05
8.71238e-06
2.8977e-06
2.18753e-05
-4.59858e-06
6.99927e-05
-1.1698e-05
8.84871e-05
-7.74059e-06
7.17876e-05
4.28336e-06
5.5059e-05
9.63146e-06
4.67685e-05
7.05023e-06
4.15559e-05
6.01039e-06
3.79852e-05
1.06163e-05
3.72248e-05
1.91578e-05
4.03741e-05
2.87443e-05
4.79862e-05
3.70089e-05
5.90011e-05
4.32491e-05
7.18501e-05
4.84255e-05
8.5853e-05
5.32883e-05
0.000100361
5.76893e-05
0.000114687
6.12376e-05
0.000128026
6.36125e-05
0.000139524
6.45691e-05
0.00014839
6.39795e-05
0.000153956
6.18682e-05
0.000155711
5.83358e-05
0.000153341
5.3572e-05
0.000146708
4.78306e-05
0.000135837
4.142e-05
0.000120916
3.4681e-05
0.000102274
2.7917e-05
8.03684e-05
2.13348e-05
5.57272e-05
1.50105e-05
2.87717e-05
8.85553e-06
2.92831e-06
2.39307e-05
-4.79696e-06
5.24125e-05
-1.07941e-05
4.61258e-05
-5.19263e-06
2.80805e-05
8.67723e-06
2.33704e-05
1.60014e-05
2.73036e-05
1.43415e-05
3.02998e-05
1.14948e-05
3.10461e-05
1.33889e-05
3.20544e-05
2.05557e-05
3.58207e-05
3.04331e-05
4.4007e-05
3.979e-05
5.57877e-05
4.70913e-05
6.93465e-05
5.29815e-05
8.39161e-05
5.81844e-05
9.88113e-05
6.26891e-05
0.000113333
6.62066e-05
0.000126733
6.84228e-05
0.000138227
6.90894e-05
0.000147057
6.80887e-05
0.000152577
6.54486e-05
0.000154296
6.13063e-05
0.000151906
5.5895e-05
0.00014528
4.952e-05
0.000134459
4.25361e-05
0.000119631
3.53123e-05
0.00010112
2.8173e-05
7.93824e-05
2.13367e-05
5.49716e-05
1.48794e-05
2.83415e-05
8.70101e-06
2.85843e-06
2.04902e-05
-3.58765e-06
3.48266e-05
-9.70934e-06
2.12191e-05
-7.59452e-06
4.73591e-06
5.16352e-06
3.2074e-06
1.68355e-05
1.17743e-05
2.03753e-05
2.01158e-05
1.88736e-05
2.49318e-05
1.90325e-05
2.80538e-05
2.41264e-05
3.26141e-05
3.30194e-05
4.11547e-05
4.24646e-05
5.3274e-05
5.04037e-05
6.72333e-05
5.69301e-05
8.21745e-05
6.24571e-05
9.73437e-05
6.69946e-05
0.000112019
7.03593e-05
0.000125467
7.22794e-05
0.000136935
7.25309e-05
0.000145703
7.10184e-05
0.000151154
6.77925e-05
0.000152817
6.30288e-05
0.000150394
5.70044e-05
0.00014377
5.00694e-05
0.000132998
4.26143e-05
0.000118271
3.503e-05
9.99116e-05
2.76547e-05
7.83679e-05
2.0715e-05
5.42014e-05
1.4288e-05
2.78993e-05
8.26426e-06
2.69334e-06
1.09951e-05
-6.5748e-07
2.31595e-05
-7.56314e-06
1.58356e-05
-1.37686e-05
1.53276e-08
-5.6283e-06
-6.18784e-06
9.98021e-06
5.3097e-08
2.0837e-05
1.02271e-05
2.4177e-05
1.83857e-05
2.5343e-05
2.41342e-05
2.93007e-05
3.01517e-05
3.67817e-05
3.92434e-05
4.54915e-05
5.14944e-05
5.3498e-05
6.56245e-05
6.03655e-05
8.07718e-05
6.60624e-05
9.61035e-05
7.05228e-05
0.000110862
7.361e-05
0.00012431
7.51052e-05
0.000135717
7.48294e-05
0.000144395
7.27242e-05
0.000149752
6.88758e-05
0.000151336
6.34998e-05
0.000148862
5.69146e-05
0.000142226
4.95075e-05
0.000131493
4.16959e-05
0.000116866
3.38846e-05
9.86672e-05
2.64174e-05
7.73372e-05
1.95234e-05
5.34319e-05
1.32802e-05
2.74609e-05
7.57324e-06
2.44244e-06
-4.54494e-06
4.79791e-06
1.4646e-05
2.90634e-07
2.23231e-05
-1.62113e-05
9.20829e-06
-1.75691e-05
-4.02581e-06
-2.75365e-06
-4.83561e-06
1.36943e-05
2.89318e-06
2.36523e-05
1.21544e-05
2.89249e-05
2.01003e-05
3.40605e-05
2.79691e-05
4.10311e-05
3.79274e-05
4.89379e-05
5.03468e-05
5.65923e-05
6.45557e-05
6.34094e-05
7.97844e-05
6.90152e-05
9.51765e-05
7.32245e-05
0.000109944
7.58926e-05
0.00012334
7.6842e-05
0.000134646
7.59449e-05
0.000143199
7.31901e-05
0.00014843
6.8706e-05
0.000149908
6.27481e-05
0.000147361
5.56713e-05
0.000140696
4.7892e-05
0.000129986
3.9846e-05
0.000115446
3.19447e-05
9.74062e-05
2.45299e-05
7.62983e-05
1.78266e-05
5.26675e-05
1.19103e-05
2.70323e-05
6.66396e-06
2.1183e-06
-2.50166e-05
1.25542e-05
-1.3844e-06
1.73597e-05
2.45348e-05
-4.71462e-06
2.11563e-05
-1.80591e-05
5.9721e-06
-1.11001e-05
-1.72257e-06
4.75349e-06
7.28172e-07
1.88459e-05
8.22457e-06
2.88298e-05
1.68159e-05
3.68824e-05
2.6094e-05
4.47604e-05
3.69659e-05
5.24474e-05
4.96794e-05
5.96442e-05
6.39893e-05
6.60797e-05
7.92466e-05
7.13144e-05
9.46271e-05
7.50684e-05
0.000109337
7.7166e-05
0.000122626
7.74579e-05
0.000133786
7.58663e-05
0.000142173
7.24301e-05
0.000147242
6.73213e-05
0.000148581
6.08326e-05
0.000145934
5.33482e-05
0.000139218
4.53055e-05
0.000128514
3.71506e-05
0.000114046
2.92946e-05
9.61525e-05
2.20709e-05
7.52635e-05
1.56948e-05
5.19121e-05
1.02357e-05
2.66151e-05
5.57507e-06
1.73468e-06
-4.2305e-05
1.76086e-05
-3.02101e-05
3.56327e-05
7.32897e-06
2.01508e-05
1.96706e-05
-2.56119e-08
1.22992e-05
-4.29191e-06
3.96888e-06
4.01076e-06
2.64929e-06
1.63663e-05
7.33169e-06
2.80855e-05
1.51212e-05
3.85006e-05
2.48665e-05
4.77828e-05
3.63719e-05
5.56498e-05
4.94451e-05
6.23944e-05
6.39055e-05
6.82651e-05
7.91811e-05
7.29127e-05
9.45054e-05
7.6023e-05
0.000109103
7.74078e-05
0.000122232
7.69472e-05
0.000133195
7.46111e-05
0.000141369
7.04871e-05
0.000146233
6.47879e-05
0.000147395
5.78377e-05
0.000144617
5.00425e-05
0.000137824
4.18515e-05
0.000127106
3.37131e-05
0.000112693
2.60316e-05
9.493e-05
1.91274e-05
7.42488e-05
1.32019e-05
5.11728e-05
8.31443e-06
2.62108e-05
4.34477e-06
1.30521e-06
-4.17187e-05
1.26541e-05
-4.87849e-05
2.72493e-05
-1.76483e-05
2.59538e-05
3.38553e-06
1.4982e-05
7.44034e-06
8.92966e-06
5.0167e-06
1.13228e-05
4.41002e-06
1.94065e-05
7.89352e-06
2.97929e-05
1.47918e-05
4.05835e-05
2.44499e-05
5.03865e-05
3.62734e-05
5.82576e-05
4.96611e-05
6.4595e-05
6.42774e-05
6.98432e-05
7.95572e-05
7.37522e-05
9.47854e-05
7.60574e-05
0.000109217
7.66033e-05
0.000122127
7.53114e-05
0.000132838
7.21992e-05
0.000140747
6.73996e-05
0.000145359
6.1161e-05
0.000146305
5.38317e-05
0.000143365
4.58307e-05
0.000136475
3.76099e-05
0.000125731
2.9612e-05
0.000111366
2.22286e-05
9.37281e-05
1.57634e-05
7.32504e-05
1.04002e-05
5.0448e-05
6.18602e-06
2.58186e-05
2.99822e-06
8.38325e-07
-4.93144e-05
2.22852e-05
-9.29292e-05
6.21966e-05
-0.000129485
9.37684e-05
-0.000158765
0.000117226
-0.000180135
0.000133261
-0.000193186
0.000142625
-0.000197911
0.000146005
-0.000194828
0.000144155
-0.000184941
0.000137983
-0.000169671
0.0001285
-0.000150675
0.000116815
-0.000129612
0.000103992
-0.000108024
9.09304e-05
-8.72106e-05
7.83164e-05
-6.82419e-05
6.66278e-05
-5.19047e-05
5.61775e-05
-3.87085e-05
4.71509e-05
-2.89347e-05
3.96587e-05
-2.25508e-05
3.37216e-05
-1.92907e-05
2.92536e-05
-1.91194e-05
2.61819e-05
-2.19751e-05
2.45699e-05
-2.69316e-05
2.44005e-05
-3.2669e-05
2.54093e-05
-3.76774e-05
2.70836e-05
-3.98971e-05
2.84157e-05
-3.73674e-05
2.80372e-05
-2.86857e-05
2.46297e-05
-1.58064e-05
1.75785e-05
8.56156e-06
-2.23126e-06
-5.01099e-05
2.32319e-05
-9.45221e-05
6.49217e-05
-0.000132073
9.82711e-05
-0.000162671
0.000123654
-0.000185452
0.000141397
-0.000199894
0.000151946
-0.000206041
0.000156181
-0.00020439
0.000155012
-0.000195854
0.000149328
-0.000181774
0.000140114
-0.000163792
0.000128495
-0.000143549
0.000115576
-0.000122592
0.000102294
-0.000102239
8.93816e-05
-8.35803e-05
7.73496e-05
-6.74718e-05
6.65378e-05
-5.45032e-05
5.7166e-05
-4.50703e-05
4.93836e-05
-3.92943e-05
4.3291e-05
-3.69966e-05
3.88948e-05
-3.77559e-05
3.61042e-05
-4.11277e-05
3.48526e-05
-4.62919e-05
3.49959e-05
-5.20399e-05
3.62056e-05
-5.69119e-05
3.80691e-05
-5.85269e-05
3.97105e-05
-5.40757e-05
3.95428e-05
-4.21253e-05
3.5981e-05
-2.59822e-05
2.8894e-05
2.06549e-05
-1.32114e-05
-5.08628e-05
2.41029e-05
-9.60302e-05
6.73868e-05
-0.000134475
0.000102166
-0.000166413
0.000129196
-0.000190866
0.000148941
-0.000206885
0.000161223
-0.000214553
0.000166555
-0.000214516
0.000166187
-0.000207541
0.000161164
-0.000194853
0.000152377
-0.00017811
0.000140956
-0.000158932
0.000128074
-0.000138854
0.000114703
-0.000119222
0.000101612
-0.000101147
8.93556e-05
-8.55363e-05
7.83029e-05
-7.3058e-05
6.87004e-05
-6.42075e-05
6.07294e-05
-5.92675e-05
5.45528e-05
-5.82053e-05
5.02628e-05
-6.03273e-05
4.77924e-05
-6.45334e-05
4.69942e-05
-6.99402e-05
4.7585e-05
-7.53533e-05
4.90346e-05
-7.92136e-05
5.08198e-05
-7.9178e-05
5.21508e-05
-7.24373e-05
5.15603e-05
-5.82635e-05
4.76987e-05
-4.03959e-05
4.07107e-05
3.27017e-05
-2.54147e-05
-5.15137e-05
2.48747e-05
-9.73564e-05
6.95929e-05
-0.000136542
0.000105609
-0.0001696
0.00013383
-0.000195894
0.000155236
-0.000214005
0.000169709
-0.000223471
0.000176891
-0.000225218
0.00017767
-0.000220008
0.000173459
-0.000208872
0.000165225
-0.000193574
0.000154122
-0.000175704
0.000141426
-0.00015675
0.000128107
-0.000138078
0.000114961
-0.000120838
0.000102592
-0.000105976
9.14081e-05
-9.42228e-05
8.16846e-05
-8.61491e-05
7.36212e-05
-8.21707e-05
6.74159e-05
-8.2402e-05
6.32163e-05
-8.59836e-05
6.09701e-05
-9.1223e-05
6.05187e-05
-9.69553e-05
6.15258e-05
-0.000101576
6.31514e-05
-0.000103617
6.46029e-05
-0.000101231
6.51993e-05
-9.21671e-05
6.37916e-05
-7.68062e-05
5.95376e-05
-5.90082e-05
5.28882e-05
4.5664e-05
-4.45343e-05
-5.20289e-05
2.55364e-05
-9.84386e-05
7.14991e-05
-0.000138253
0.000108636
-0.000172119
0.000137861
-0.000199903
0.000160349
-0.000220453
0.000176577
-0.000232472
0.000186173
-0.000236497
0.000189082
-0.000233241
0.000186167
-0.000223737
0.000178573
-0.000210081
0.000167877
-0.000193735
0.000155513
-0.000176118
0.00014238
-0.000158624
0.000129302
-0.000142417
0.000116924
-0.00012849
0.000105694
-0.000117626
9.59325e-05
-0.000110427
8.78487e-05
-0.000107366
8.16355e-05
-0.000108626
7.74558e-05
-0.000113025
7.5213e-05
-0.000118931
7.47006e-05
-0.00012512
7.57155e-05
-0.000129098
7.74085e-05
-0.000129341
7.86454e-05
-0.000124389
7.8482e-05
-0.000113212
7.61167e-05
-9.73694e-05
7.14384e-05
-8.02954e-05
6.5164e-05
5.87492e-05
-6.66934e-05
-5.23783e-05
2.6077e-05
-9.92136e-05
7.30727e-05
-0.000139557
0.000111179
-0.000174076
0.000141326
-0.000202823
0.000164675
-0.000225291
0.000181912
-0.000240277
0.000193279
-0.000247423
0.000198649
-0.00024683
0.000198048
-0.000239329
0.000192016
-0.000227432
0.000182092
-0.000212809
0.000170169
-0.000196685
0.000157347
-0.000180528
0.000144426
-0.000165475
0.000132116
-0.000152581
0.000120902
-0.000142657
0.000111145
-0.000136294
0.000103058
-0.00013393
9.68102e-05
-0.00013569
9.25339e-05
-0.000139866
9.00238e-05
-0.000145097
8.8922e-05
-0.000150808
8.91428e-05
-0.000154594
9.0273e-05
-0.000154302
9.13079e-05
-0.000147847
9.0916e-05
-0.000135385
8.8176e-05
-0.000119293
8.32615e-05
-0.000102722
7.71182e-05
7.10762e-05
-8.96619e-05
-5.25264e-05
2.64797e-05
-9.96143e-05
7.42671e-05
-0.000140345
0.000113158
-0.000175419
0.000144095
-0.000204918
0.000168257
-0.000228552
0.000186289
-0.000245782
0.000198628
-0.000256006
0.000205513
-0.000259065
0.000207232
-0.000254895
0.000203963
-0.000245396
0.000196146
-0.000232645
0.000185215
-0.00021807
0.000172774
-0.000203342
0.000160079
-0.000189447
0.000147884
-0.000177574
0.000136694
-0.000168503
0.000126935
-0.000162782
0.000118799
-0.000160757
0.000112423
-0.000162424
0.000107887
-0.000165612
0.00010486
-0.000168835
0.000102811
-0.000172306
0.000101684
-0.000174887
0.000101432
-0.000174322
0.000101423
-0.000168221
0.000100646
-0.000156636
9.82875e-05
-0.000141182
9.40222e-05
-0.000124944
8.83194e-05
8.24212e-05
-0.000111878
-5.2434e-05
2.6729e-05
-9.95724e-05
7.50421e-05
-0.000140531
0.000114526
-0.000176028
0.000146115
-0.000206183
0.000170985
-0.000230719
0.000189803
-0.000249341
0.000202986
-0.000261684
0.000210848
-0.000268063
0.000213946
-0.000268165
0.000212875
-0.000262421
0.000207776
-0.000252362
0.000199088
-0.000239853
0.000188066
-0.000226551
0.000176004
-0.000213638
0.000163889
-0.000202659
0.000152671
-0.000194241
0.000142871
-0.00018883
0.000134595
-0.000186689
0.000127946
-0.000187686
0.00012296
-0.000189366
0.000119194
-0.000190002
0.000115986
-0.000190371
0.000113345
-0.000190209
0.000111422
-0.000187845
0.000109775
-0.000182009
0.000107844
-0.000172359
0.000105236
-0.000159084
0.000101599
-0.000144266
9.69345e-05
9.18955e-05
-0.000131738
-5.20759e-05
2.68253e-05
-9.90401e-05
7.53932e-05
-0.000140031
0.00011525
-0.000175774
0.000147315
-0.000206425
0.000172756
-0.000231771
0.000192268
-0.000251523
0.00020628
-0.00026545
0.000215137
-0.000273949
0.00021929
-0.000277329
0.000219406
-0.000275534
0.000215995
-0.00026936
0.000209575
-0.000260233
0.000200942
-0.000249101
0.000190704
-0.000237303
0.000179497
-0.000226945
0.000168432
-0.000218913
0.000158503
-0.000213396
0.000149984
-0.000210644
0.0001429
-0.000210422
0.000137276
-0.000210143
0.00013259
-0.000207991
0.000128102
-0.000205193
0.000123877
-0.000201891
0.000120266
-0.00019696
0.000117043
-0.000189927
0.000113786
-0.000180559
0.000110199
-0.000169024
0.000106202
-0.000156226
0.000101877
9.73535e-05
-0.000144987
-5.14273e-05
2.67597e-05
-9.79589e-05
7.52921e-05
-0.000138739
0.000115271
-0.000174509
0.000147605
-0.000205483
0.00017348
-0.000231475
0.000193585
-0.000252224
0.000208353
-0.000267559
0.000218132
-0.000277665
0.000223339
-0.000283042
0.000224529
-0.000283931
0.000222229
-0.000281258
0.000217177
-0.000275888
0.000210256
-0.000268339
0.000202121
-0.000259004
0.000193017
-0.000249562
0.000183177
-0.000241607
0.000173431
-0.000235514
0.000164552
-0.000231686
0.000156885
-0.000229738
0.000150455
-0.000227151
0.000144703
-0.000222115
0.000138863
-0.0002162
0.000133063
-0.000209969
0.000127847
-0.000202658
0.000123155
-0.000193839
0.000118652
-0.000183391
0.000114102
-0.000171725
0.000109403
-0.00015932
0.00010455
9.94935e-05
-0.000148136
-5.04479e-05
2.65127e-05
-9.62526e-05
7.46918e-05
-0.000136569
0.000114547
-0.000172133
0.000146952
-0.000203199
0.000173089
-0.000229613
0.000193644
-0.000251135
0.000209046
-0.000267634
0.000219652
-0.000279201