/*--------------------------------*- C++ -*----------------------------------*\
| =========                 |                                                 |
| \\      /  F ield         | OpenFOAM: The Open Source CFD Toolbox           |
|  \\    /   O peration     | Version:  dev                                   |
|   \\  /    A nd           | Web:      www.OpenFOAM.org                      |
|    \\/     M anipulation  |                                                 |
\*---------------------------------------------------------------------------*/
FoamFile
{
    version     2.0;
    format      ascii;
    class       volScalarField;
    location    "0.53";
    object      p;
}
// * * * * * * * * * * * * * * * * * * * * * * * * * * * * * * * * * * * * * //

dimensions      [0 2 -2 0 0 0 0];

internalField   nonuniform List<scalar> 
465
(
-64.1352
-72.3464
-80.5573
-88.4574
-95.6986
-101.904
-106.685
-109.664
-110.485
-108.829
-104.422
-97.1201
-86.9329
-73.9763
-58.449
-40.5838
-20.749
-0.397334
15.6716
18.535
-64.732
-73.0109
-81.2925
-89.2648
-96.5771
-102.85
-107.693
-110.728
-111.604
-110.007
-105.674
-98.4798
-88.4681
-75.7824
-60.6569
-43.4066
-24.5547
-5.53016
9.63035
11.9653
-66.2844
-74.5926
-82.9088
-90.9224
-98.2814
-104.603
-109.492
-112.567
-113.476
-111.901
-107.594
-100.462
-90.585
-78.1374
-63.3907
-46.7438
-28.8717
-11.1799
3.09158
6.80576
-68.5712
-76.9174
-85.2841
-93.3617
-100.796
-107.198
-112.167
-115.315
-116.284
-114.752
-110.488
-103.441
-93.7281
-81.5547
-67.2171
-51.1575
-34.1104
-17.3781
-3.43143
2.7316
-71.359
-79.7412
-88.1597
-96.306
-103.823
-110.315
-115.371
-118.596
-119.624
-118.124
-113.889
-106.913
-97.355
-85.4484
-71.5036
-55.97
-39.5644
-23.4175
-9.30218
-0.476367
-74.4862
-82.9141
-91.4
-99.6354
-107.259
-113.866
-119.033
-122.349
-123.431
-121.943
-117.705
-110.764
-101.323
-89.6368
-76.0136
-60.8793
-44.8828
-28.9595
-14.318
-3.01318
-77.7653
-86.2488
-94.8145
-103.153
-110.899
-117.636
-122.926
-126.337
-127.466
-125.967
-121.691
-114.748
-105.384
-93.8666
-80.4866
-65.6197
-49.8192
-33.8356
-18.4651
-5.01749
-81.0041
-89.5538
-98.2108
-106.665
-114.546
-121.429
-126.854
-130.364
-131.531
-129.993
-125.64
-118.653
-109.322
-97.9223
-84.7102
-69.9941
-54.2216
-37.9877
-21.809
-6.58834
-84.016
-92.6413
-101.398
-109.975
-117.999
-125.037
-130.607
-134.218
-135.412
-133.811
-129.345
-122.276
-112.942
-101.618
-88.513
-73.86
-58.0049
-41.4223
-24.4475
-7.80418
-86.6275
-95.3339
-104.191
-112.89
-121.057
-128.251
-133.973
-137.689
-138.904
-137.225
-132.619
-125.443
-116.081
-104.803
-91.7679
-77.1244
-61.1355
-44.1847
-26.4926
-8.73571
-88.689
-97.4743
-106.424
-115.232
-123.528
-130.87
-136.741
-140.565
-141.801
-140.045
-135.294
-128.007
-118.609
-107.367
-94.3937
-79.7511
-63.6282
-46.3433
-28.0521
-9.44292
-90.0862
-98.9359
-107.954
-116.843
-125.236
-132.694
-138.696
-142.624
-143.888
-142.089
-137.229
-129.859
-120.442
-109.244
-96.3426
-81.7462
-65.5275
-47.9627
-29.1942
-9.95662
-90.774
-99.6547
-108.697
-117.612
-126.041
-133.553
-139.632
-143.653
-144.968
-143.18
-138.293
-130.913
-121.536
-110.421
-97.6156
-83.0857
-66.8186
-49.0491
-29.9358
-10.2912
-90.7748
-99.6427
-108.653
-117.527
-125.918
-133.407
-139.49
-143.546
-144.89
-143.128
-138.317
-131.049
-121.818
-110.862
-98.1974
-83.7441
-67.4756
-49.5987
-30.2978
-10.4767
-90.1653
-98.9711
-107.89
-116.653
-124.927
-132.301
-138.283
-142.258
-143.558
-141.844
-137.221
-130.208
-121.245
-110.537
-98.0689
-83.7437
-67.5376
-49.6581
-30.3284
-10.548
-80.6257
-89.0287
-97.7067
-106.461
-115.033
-123.099
-130.26
-136.031
-139.83
-141.053
-139.427
-135.088
-128.451
-119.865
-109.479
-97.2603
-83.1128
-67.0373
-49.2644
-30.067
-10.5286
-79.1934
-87.4318
-95.897
-104.398
-112.686
-120.448
-127.298
-132.776
-136.351
-137.501
-136.016
-132.03
-125.846
-117.702
-107.687
-95.7537
-81.8291
-65.9586
-48.4136
-29.5192
-10.4329
-93.6667
-101.822
-109.737
-117.11
-123.578
-128.715
-132.052
-133.153
-131.848
-128.24
-122.524
-114.832
-105.191
-93.553
-79.8873
-64.2999
-47.1125
-28.697
-10.2686
-106.357
-113.273
-119.306
-124.073
-127.174
-128.252
-127.147
-123.9
-118.606
-111.311
-102.002
-90.6457
-77.2727
-62.0575
-45.3693
-27.6147
-10.0453
-109.125
-114.694
-119.081
-121.949
-123.011
-122.086
-119.12
-114.136
-107.131
-98.0804
-86.9922
-73.9634
-59.2317
-43.2005
-26.2925
-9.77155
-113.845
-116.486
-117.488
-116.638
-113.814
-108.995
-102.166
-93.326
-82.5333
-69.9443
-55.841
-40.6393
-24.7597
-9.45224
-111.403
-110.475
-107.651
-102.901
-96.217
-87.6292
-77.2386
-65.242
-51.9416
-37.7454
-23.0567
-9.08646
-103.159
-100.3
-95.6483
-89.1979
-81.0003
-71.1847
-59.9663
-47.6465
-34.61
-21.2349
-8.66769
-87.343
-81.2801
-73.6489
-64.5901
-54.319
-43.1214
-31.3499
-19.3529
-8.18826
-72.85
-65.9319
-57.7652
-48.5525
-38.5549
-28.0882
-17.4688
-7.64592
-51.0233
-42.9078
-34.1182
-24.9325
-15.6333
-7.04859
-37.5693
-29.9383
-21.9606
-13.8848
-6.41436
-19.2175
-12.2483
-5.7671
-10.7374
-5.13058
-4.52384
)
;

boundaryField
{
    inlet
    {
        type            zeroGradient;
    }
    outlet
    {
        type            fixedValue;
        value           uniform 0;
    }
    flap
    {
        type            zeroGradient;
    }
    upperWall
    {
        type            zeroGradient;
    }
    lowerWall
    {
        type            zeroGradient;
    }
    frontAndBack
    {
        type            empty;
    }
    procBoundary5to2
    {
        type            processor;
        value           nonuniform List<scalar> 
34
(
-77.5358
-85.5097
-85.5097
-91.1731
-98.8963
-98.8963
-102.708
-102.708
-104.71
-109.829
-109.829
-108.161
-110.555
-110.555
-104.262
-104.262
-94.5887
-91.7752
-91.7752
-78.3807
-78.3807
-64.3536
-58.2327
-58.2327
-44.6128
-44.6128
-32.6492
-26.0896
-26.0896
-16.7207
-16.7207
-9.3567
-9.3567
-3.95929
)
;
    }
    procBoundary5to4
    {
        type            processor;
        value           nonuniform List<scalar> 
18
(
-56.1922
-56.725
-58.2502
-60.5072
-63.2707
-66.3702
-69.6157
-72.812
-75.7707
-78.3187
-80.3105
-81.6405
-82.2815
-82.2662
-81.6802
-81.6802
-72.6473
-71.3243
)
;
    }
}


// ************************************************************************* //
