/*--------------------------------*- C++ -*----------------------------------*\
| =========                 |                                                 |
| \\      /  F ield         | OpenFOAM: The Open Source CFD Toolbox           |
|  \\    /   O peration     | Version:  dev                                   |
|   \\  /    A nd           | Web:      www.OpenFOAM.org                      |
|    \\/     M anipulation  |                                                 |
\*---------------------------------------------------------------------------*/
FoamFile
{
    version     2.0;
    format      ascii;
    class       surfaceScalarField;
    location    "2.75";
    object      meshPhi;
}
// * * * * * * * * * * * * * * * * * * * * * * * * * * * * * * * * * * * * * //

dimensions      [0 3 -1 0 0 0 0];

internalField   nonuniform List<scalar> 
879
(
-0.000273107
-3.68454e-06
-0.000288993
-3.44466e-06
-0.000304254
-2.73296e-06
-0.000319118
-1.64402e-06
-0.000333151
-1.92972e-07
-0.000345464
1.42358e-06
-0.000355121
3.18121e-06
-0.000361181
4.96147e-06
-0.000362743
6.58984e-06
-0.000359107
8.00785e-06
-0.000349685
9.08379e-06
-0.000334197
9.83648e-06
-0.000312489
1.01747e-05
-0.000284476
1.00579e-05
-0.000250372
9.55443e-06
-0.000210502
8.64297e-06
-0.000165114
7.33555e-06
-0.000114553
5.66688e-06
-5.91636e-05
3.64106e-06
1.27869e-06
-0.000270484
-7.0849e-06
-0.000286477
-6.59299e-06
-0.000302062
-5.18633e-06
-0.000317353
-3.00968e-06
-0.000331745
-2.2015e-07
-0.00034442
2.98898e-06
-0.000354399
6.44435e-06
-0.000360702
9.9131e-06
-0.000362469
1.31219e-05
-0.000358972
1.58907e-05
-0.000349681
1.80244e-05
-0.000334266
1.94612e-05
-0.000312557
2.00925e-05
-0.000284544
1.98786e-05
-0.000250437
1.88728e-05
-0.000210533
1.70617e-05
-0.000165106
1.44796e-05
-0.000114517
1.11838e-05
-5.91218e-05
7.18379e-06
2.52184e-06
-0.000262166
-1.00116e-05
-0.000278758
-9.166e-06
-0.000295167
-7.08321e-06
-0.000311328
-3.89071e-06
-0.000326582
1.65341e-07
-0.000340072
4.86246e-06
-0.000350784
9.88842e-06
-0.00035774
1.49184e-05
-0.00036006
1.95729e-05
-0.000357001
2.35673e-05
-0.000348097
2.66914e-05
-0.000332995
2.87386e-05
-0.00031151
2.96111e-05
-0.000283696
2.92956e-05
-0.000249754
2.77894e-05
-0.000209962
2.51088e-05
-0.000164642
2.13141e-05
-0.000114186
1.64612e-05
-5.89468e-05
1.05711e-05
3.70987e-06
-0.000248488
-1.22677e-05
-0.00026612
-1.10044e-05
-0.000283793
-8.21967e-06
-0.000301243
-4.08571e-06
-0.000317778
1.14947e-06
-0.000332466
7.18027e-06
-0.000344271
1.36066e-05
-0.000352198
2.00199e-05
-0.00035539
2.59752e-05
-0.000353103
3.10647e-05
-0.000344834
3.50306e-05
-0.000330269
3.76152e-05
-0.000309246
3.86902e-05
-0.000281828
3.82459e-05
-0.000248223
3.62566e-05
-0.000208725
3.27547e-05
-0.000163691
2.7808e-05
-0.000113538
2.14729e-05
-5.86206e-05
1.37845e-05
4.83594e-06
-0.000231573
-1.37166e-05
-0.000250499
-1.19962e-05
-0.000269668
-8.50583e-06
-0.000288659
-3.49189e-06
-0.000306695
2.793e-06
-0.000322806
9.99591e-06
-0.000335927
1.76396e-05
-0.000345021
2.52332e-05
-0.000349261
3.2315e-05
-0.000347913
3.83596e-05
-0.000340432
4.30276e-05
-0.000326538
4.60719e-05
-0.000306115
4.73185e-05
-0.000279226
4.67234e-05
-0.000246087
4.42665e-05
-0.000207015
3.99829e-05
-0.000162389
3.39379e-05
-0.000112649
2.61985e-05
-5.81623e-05
1.68106e-05
5.8951e-06
-0.000212985
-1.42993e-05
-0.0002333
-1.20741e-05
-0.00025402
-7.91269e-06
-0.000274606
-2.09499e-06
-0.000294203
5.10568e-06
-0.000311792
1.33039e-05
-0.000326296
2.19847e-05
-0.000336661
3.05812e-05
-0.000342021
3.85873e-05
-0.000341667
4.54321e-05
-0.000335077
5.07042e-05
-0.000321968
5.41226e-05
-0.000302249
5.54878e-05
-0.000275994
5.47185e-05
-0.000243429
5.17972e-05
-0.000204887
4.67599e-05
-0.000160769
3.96736e-05
-0.00011154
3.06126e-05
-5.7588e-05
1.96326e-05
6.88152e-06
-0.000194192
-1.40197e-05
-0.000215814
-1.12665e-05
-0.00023798
-6.47613e-06
-0.000260045
5.37188e-08
-0.000281103
8.04738e-06
-0.000300082
1.70796e-05
-0.000315898
2.66275e-05
-0.000327504
3.60702e-05
-0.000333999
4.48276e-05
-0.000334672
5.2316e-05
-0.000329022
5.80734e-05
-0.000316763
6.17677e-05
-0.000297809
6.318e-05
-0.000272253
6.22056e-05
-0.000240334
5.88206e-05
-0.000202398
5.30599e-05
-0.000158871
4.49918e-05
-0.000110238
3.46966e-05
-5.69125e-05
2.22383e-05
7.79088e-06
-0.000176385
-1.29377e-05
-0.0001991
-9.65786e-06
-0.000222478
-4.27715e-06
-0.000245784
2.88626e-06
-0.00026808
1.15687e-05
-0.000288277
2.13139e-05
-0.000305269
3.15707e-05
-0.000318007
4.16928e-05
-0.000325574
5.10428e-05
-0.000327246
5.90184e-05
-0.000322521
6.51236e-05
-0.000311112
6.89911e-05
-0.000292944
7.03798e-05
-0.000268118
6.91663e-05
-0.000236886
6.53178e-05
-0.000199612
5.88652e-05
-0.000156739
4.9877e-05
-0.000108772
3.84381e-05
-5.61507e-05
2.46196e-05
8.62045e-06
-0.000160405
-1.11459e-05
-0.000183926
-7.34417e-06
-0.000208204
-1.3989e-06
-0.000232462
6.35323e-06
-0.000255729
1.56331e-05
-0.000276912
2.59735e-05
-0.000294888
3.67909e-05
-0.000308591
4.74243e-05
-0.000317095
5.72073e-05
-0.000319666
6.55195e-05
-0.000315795
7.18411e-05
-0.000305194
7.57802e-05
-0.000287792
7.70762e-05
-0.000263697
7.55897e-05
-0.000233172
7.12776e-05
-0.000196592
6.41655e-05
-0.000154417
5.43206e-05
-0.000107172
4.18306e-05
-5.5318e-05
2.67725e-05
9.36891e-06
-0.000146758
-8.74111e-06
-0.000170787
-4.39896e-06
-0.000195653
2.09476e-06
-0.000220557
1.03918e-05
-0.000244509
2.01859e-05
-0.000266408
3.10008e-05
-0.000285123
4.22386e-05
-0.000299579
5.32289e-05
-0.000308841
6.32925e-05
-0.000312167
7.17981e-05
-0.000309039
7.82117e-05
-0.000299169
8.2125e-05
-0.000282482
8.32622e-05
-0.000259093
8.14702e-05
-0.00022927
7.66956e-05
-0.000193398
6.89576e-05
-0.00015195
5.83202e-05
-0.000105466
4.48726e-05
-5.44295e-05
2.86967e-05
1.00362e-05
-0.000135693
-5.80292e-06
-0.000159956
-8.9339e-07
-0.000185123
6.1369e-06
-0.000210377
1.4929e-05
-0.000234722
2.51567e-05
-0.000257057
3.63353e-05
-0.000276249
4.7862e-05
-0.000291221
5.90661e-05
-0.000301035
6.92672e-05
-0.000304942
7.78322e-05
-0.000302419
8.42214e-05
-0.000293173
8.80176e-05
-0.000277127
8.89343e-05
-0.000254397
8.68072e-05
-0.000225253
8.15731e-05
-0.000190086
7.32437e-05
-0.000149378
6.18787e-05
-0.000103682
4.75672e-05
-5.34992e-05
3.03944e-05
1.06234e-05
-0.000127254
-2.38957e-06
-0.000151525
3.10862e-06
-0.000176742
1.0661e-05
-0.00020208
1.98991e-05
-0.000226546
3.04807e-05
-0.000249043
4.1917e-05
-0.000268448
5.36088e-05
-0.000283692
6.48934e-05
-0.000293838
7.5099e-05
-0.000298137
8.35991e-05
-0.000296062
8.98566e-05
-0.000287316
9.34518e-05
-0.00027182
9.4092e-05
-0.000249685
9.1604e-05
-0.000221182
8.59158e-05
-0.000186705
7.70307e-05
-0.000146738
6.50033e-05
-0.000101845
4.99208e-05
-5.25397e-05
3.18706e-05
1.11323e-05
-0.000121349
1.4577e-06
-0.000145458
7.56228e-06
-0.000170522
1.56154e-05
-0.000195715
2.52448e-05
-0.000220053
3.6098e-05
-0.000242458
4.76882e-05
-0.000261825
5.94269e-05
-0.0002771
7.06672e-05
-0.000287357
8.07541e-05
-0.000291852
8.90753e-05
-0.00029006
9.51033e-05
-0.000281681
9.84219e-05
-0.000266631
9.87361e-05
-0.000245017
9.58665e-05
-0.000217108
8.97324e-05
-0.000183294
8.03291e-05
-0.000144061
6.77045e-05
-9.99753e-05
5.19428e-05
-5.15623e-05
3.31319e-05
1.15656e-05
-0.00011783
5.71285e-06
-0.000141651
1.24423e-05
-0.0001664
2.09607e-05
-0.000191251
3.09157e-05
-0.000215241
4.19523e-05
-0.000237322
5.3592e-05
-0.000256416
6.52638e-05
-0.000271493
7.63432e-05
-0.000281647
8.61979e-05
-0.000286146
9.42366e-05
-0.000284471
9.99476e-05
-0.000276322
0.000102923
-0.000261611
0.000102869
-0.00024044
9.96024e-05
-0.00021307
9.30344e-05
-0.000179887
8.3152e-05
-0.000141372
6.99954e-05
-9.80917e-05
5.36447e-05
-5.0576e-05
3.41866e-05
1.19262e-05
-0.000116518
1.04506e-05
-0.000139943
1.7783e-05
-0.000164237
2.67092e-05
-0.00018857
3.69171e-05
-0.000212009
4.80417e-05
-0.000233552
5.96245e-05
-0.000252153
7.1118e-05
-0.000266815
8.19252e-05
-0.00027666
9.14408e-05
-0.000280979
9.91004e-05
-0.000279262
0.000104414
-0.000271213
0.000106985
-0.000256741
0.000106526
-0.000235939
0.000102849
-0.00020906
9.58594e-05
-0.000176479
8.55351e-05
-0.000138672
7.1908e-05
-9.61966e-05
5.50523e-05
-4.95845e-05
3.50524e-05
1.22208e-05
-9.95267e-05
9.63166e-06
-0.000121859
1.57917e-05
-0.000145679
2.36552e-05
-0.000170303
3.29315e-05
-0.000194848
4.33086e-05
-0.000218419
5.44192e-05
-0.00024003
6.58457e-05
-0.000258625
7.70588e-05
-0.000273211
8.74865e-05
-0.000282915
9.65586e-05
-0.000287027
0.000103744
-0.000285037
0.000108581
-0.000276643
0.000110687
-0.000261748
0.000109782
-0.000240443
0.000105678
-0.000212977
9.8273e-05
-0.000179729
8.75359e-05
-0.000141181
7.34895e-05
-9.79047e-05
5.6201e-05
-5.0446e-05
3.57506e-05
1.24563e-05
-0.000105335
-0.000127872
-0.000151744
3.00385e-05
-0.000176196
3.96547e-05
-0.000200382
5.0094e-05
-0.000223543
6.10787e-05
-0.000244689
7.22529e-05
-0.000262776
8.30851e-05
-0.000276842
9.30326e-05
-0.000286042
0.00010157
-0.000289688
0.000108199
-0.000287276
0.000112485
-0.000278507
0.00011407
-0.000263283
0.000112682
-0.000241686
0.000108132
-0.000213959
0.000100316
-0.000180474
8.9191e-05
-0.000141707
7.47712e-05
-9.8231e-05
5.71151e-05
-5.05938e-05
3.62976e-05
1.2639e-05
-0.000159926
-0.000184267
-0.000207969
5.72077e-05
-0.000230479
6.80057e-05
-0.000250944
7.88036e-05
-0.000268282
8.91601e-05
-0.000281593
9.85374e-05
-0.000290054
0.000106456
-0.000293019
0.000112451
-0.00029
0.000116125
-0.000280703
0.000117142
-0.000265026
0.00011524
-0.000243043
0.000110231
-0.000214987
0.000102008
-0.000181223
9.0521e-05
-0.000142218
7.57715e-05
-9.85373e-05
5.78098e-05
-5.07288e-05
3.67036e-05
1.27723e-05
-0.000217474
-0.000239327
7.50332e-05
-0.000258878
8.55155e-05
-0.000275212
9.52767e-05
-0.00028756
0.000103993
-0.000295035
0.000111212
-0.000297096
0.00011649
-0.000293282
0.000119497
-0.000283299
0.000119911
-0.000267037
0.00011747
-0.000244566
0.000111993
-0.00021611
0.000103373
-0.000182017
9.15482e-05
-0.000142744
7.65108e-05
-9.88456e-05
5.83013e-05
-5.08624e-05
3.69793e-05
1.28602e-05
-0.000249514
-0.000268352
-0.000283689
0.000101332
-0.000294813
0.000109456
-0.000301006
0.000115838
-0.00030196
0.0001203
-0.000297169
0.000122599
-0.000286336
0.000122377
-0.000269358
0.00011938
-0.000246296
0.000113436
-0.000217362
0.00010443
-0.000182887
9.22942e-05
-0.00014331
7.70085e-05
-9.91726e-05
5.86055e-05
-5.10033e-05
3.71353e-05
1.29065e-05
-0.000293041
-0.000303206
-0.000308023
0.000120217
-0.000307604
0.000123903
-0.000301679
0.000125418
-0.000289824
0.000124538
-0.000272001
0.000120969
-0.000248256
0.000114565
-0.000218775
0.000105197
-0.000183861
9.27778e-05
-0.000143936
7.72821e-05
-9.95325e-05
5.87366e-05
-5.11588e-05
3.71811e-05
1.29145e-05
-0.000315745
-0.00031407
0.000127049
-0.000306835
0.000127996
-0.000293757
0.000126407
-0.000274966
0.000122234
-0.000250445
0.00011538
-0.000220349
0.000105671
-0.00018495
9.30053e-05
-0.000144639
7.73451e-05
-9.9936e-05
5.87069e-05
-5.13345e-05
3.71247e-05
1.28871e-05
-0.000320679
-0.000312488
-0.000298176
0.000127911
-0.000278243
0.000123213
-0.000252857
0.000115885
-0.000222056
0.00010585
-0.000186131
9.29696e-05
-0.00014542
7.71985e-05
-0.000100392
5.85249e-05
-5.15341e-05
3.69736e-05
1.28269e-05
-0.0003028
-0.000281855
0.000123727
-0.000255506
0.00011612
-0.000223885
0.000105758
-0.000187374
9.26689e-05
-0.000146246
7.68309e-05
-0.000100896
5.81861e-05
-5.17626e-05
3.67308e-05
1.27364e-05
-0.000285331
-0.000258298
-0.000225878
0.000105361
-0.000188675
9.21407e-05
-0.000147085
7.62431e-05
-0.000101408
5.76759e-05
-5.20127e-05
3.63847e-05
1.26126e-05
-0.000227876
-0.000190069
9.12858e-05
-0.000147953
7.54681e-05
-0.000101893
5.69997e-05
-5.224e-05
3.59151e-05
1.24429e-05
-0.000191333
-0.000148838
-0.000102387
5.61576e-05
-5.24296e-05
3.5351e-05
1.22332e-05
-0.000102875
-5.26321e-05
3.46614e-05
1.19968e-05
-5.2827e-05
1.16985e-05
)
;

boundaryField
{
    inlet
    {
        type            calculated;
        value           nonuniform 0();
    }
    outlet
    {
        type            calculated;
        value           uniform 0;
    }
    flap
    {
        type            calculated;
        value           nonuniform 0();
    }
    upperWall
    {
        type            calculated;
        value           nonuniform 0();
    }
    lowerWall
    {
        type            calculated;
        value           uniform 0;
    }
    frontAndBack
    {
        type            empty;
        value           nonuniform 0();
    }
    procBoundary5to2
    {
        type            processor;
        value           nonuniform List<scalar> 
34
(
1.47705e-05
2.16176e-05
0.000135934
3.65329e-05
4.65902e-05
0.000193967
6.40962e-05
0.000227902
8.1162e-05
9.17792e-05
0.000278169
0.000106134
0.000114257
0.00031157
0.000123469
0.000322749
0.000128721
0.000129781
0.000317648
0.000128384
0.000306554
0.000123091
0.000115731
0.000260628
0.000104262
0.0002293
8.97423e-05
7.43312e-05
0.000149508
5.49835e-05
0.000103181
3.37435e-05
5.29331e-05
1.13208e-05
)
;
    }
    procBoundary5to4
    {
        type            processor;
        value           nonuniform List<scalar> 
18
(
0.000253269
0.000250474
0.000241928
0.00022789
0.000210482
0.000191359
0.000172065
0.00015386
0.000137632
0.000123899
0.000112892
0.000104622
9.89614e-05
9.57196e-05
9.46961e-05
-5.04162e-06
7.92629e-05
8.47388e-05
)
;
    }
}


// ************************************************************************* //
