/*--------------------------------*- C++ -*----------------------------------*\
| =========                 |                                                 |
| \\      /  F ield         | OpenFOAM: The Open Source CFD Toolbox           |
|  \\    /   O peration     | Version:  dev                                   |
|   \\  /    A nd           | Web:      www.OpenFOAM.org                      |
|    \\/     M anipulation  |                                                 |
\*---------------------------------------------------------------------------*/
FoamFile
{
    version     2.0;
    format      ascii;
    class       volScalarField;
    location    "2.58";
    object      p;
}
// * * * * * * * * * * * * * * * * * * * * * * * * * * * * * * * * * * * * * //

dimensions      [0 2 -2 0 0 0 0];

internalField   nonuniform List<scalar> 
465
(
88.6026
86.2832
83.9248
81.0476
84.1136
81.7376
78.9115
75.5991
71.7756
82.0998
79.7409
76.9961
73.8463
70.284
66.3203
61.9893
80.2417
77.9248
75.2803
72.3008
68.9892
65.3624
61.4553
57.3077
53.0763
78.534
76.2768
73.7435
70.9345
67.859
64.5371
61.0027
57.2949
53.5331
76.9697
74.7839
72.3667
69.7236
66.8673
63.8191
60.6098
57.2743
53.9057
75.5404
73.4329
71.1325
68.6476
65.9926
63.1881
60.2613
57.2424
54.2053
74.2369
72.211
70.025
67.6888
65.217
62.6286
59.9475
57.1991
54.4429
73.05
71.1064
69.0303
66.8322
64.526
62.129
59.6616
57.1453
54.628
71.9707
70.1082
68.1361
66.065
63.9078
61.6799
59.3987
57.0823
54.7693
72.6768
70.9908
69.2064
67.3317
65.3766
63.3531
61.2745
59.1556
57.0117
54.8743
71.7302
70.1025
68.3924
66.6079
64.7582
62.854
60.9071
58.9301
56.9357
54.9495
70.87
69.2988
67.6585
65.9568
64.2024
62.4046
60.5738
58.7207
56.8559
55.0007
70.0908
68.5733
66.9979
65.3719
63.7031
62
60.2714
58.5266
56.7745
55.0326
69.3877
67.9206
66.405
64.8476
63.2556
61.6364
59.9977
58.3474
56.6932
55.0495
68.7565
67.3362
65.8751
64.3796
62.8559
61.3107
59.7508
58.183
56.6139
55.0552
68.1936
66.8163
65.4045
63.9642
62.5011
61.021
59.53
58.0338
56.5383
55.0531
67.6959
66.3575
64.9899
63.5985
62.1886
60.7653
59.334
57.8998
56.4677
55.0458
67.262
65.9583
64.6296
63.2811
61.9174
60.5433
59.1635
57.7825
56.4046
55.0368
66.889
65.6157
64.3209
63.0093
61.6853
60.353
59.0169
57.6809
56.3487
55.0262
66.5785
65.3313
64.0653
62.7849
61.4942
60.1971
58.8974
57.5989
56.305
55.0204
66.3266
65.1007
63.8583
62.6033
61.3395
60.0706
58.8002
57.5316
56.268
55.0131
66.1405
64.9316
63.7076
62.4725
61.2298
59.9831
58.7355
57.4904
56.2507
55.0196
66.0115
64.8141
63.6026
62.3809
61.1523
59.9201
58.6877
57.4578
56.2334
55.0172
65.9582
64.7683
63.5647
62.3513
61.1314
59.9082
58.6848
57.4642
56.2489
55.0413
49.0842
50.0287
47.6122
45.5621
50.7967
48.6558
46.8391
51.4226
49.5081
47.8824
51.9319
50.2055
48.7382
52.3454
50.7769
49.4423
52.6802
51.2454
50.0233
52.9503
51.6295
50.5032
53.1671
51.9441
50.8999
53.3402
52.2014
51.2278
53.4774
52.4113
51.4988
53.5855
52.5823
51.7225
53.6699
52.7211
51.9069
53.7359
52.834
52.0591
53.7869
52.9254
52.1842
53.8278
53.0007
52.2883
53.859
53.0608
52.3727
53.8883
53.114
52.4457
53.9079
53.1527
52.5008
53.9366
53.1959
52.5555
53.9474
53.2167
52.5854
53.986
53.2652
52.6387
43.0293
44.5878
41.777
38.4433
34.9582
45.8613
43.3266
40.3115
37.1295
34.0326
31.0754
46.9085
44.605
41.8602
38.943
36.0747
33.3038
30.6266
28.0498
47.7738
45.6661
43.152
40.4656
37.8027
35.2063
32.6722
30.2069
27.8263
48.4914
46.5509
44.2349
41.7495
39.2697
36.8335
34.436
32.0824
29.7875
49.0881
47.291
45.1459
42.8357
40.5184
38.2276
35.9575
33.7118
31.5037
49.585
47.9116
45.9143
43.7571
41.5835
39.4235
37.2707
35.127
33.0041
49.9993
48.4328
46.5637
44.5401
42.4934
40.4506
38.4045
36.3559
34.3145
50.3448
48.8707
47.1131
45.2062
43.2713
41.3329
39.3832
37.4218
35.4568
50.6329
49.239
47.5781
45.7731
43.9364
42.0905
40.2273
38.3452
36.4508
50.8731
49.5485
47.9716
46.2553
44.5047
42.7405
40.9543
39.1436
37.3137
51.0733
49.8087
48.3044
46.6653
44.9898
43.2972
41.5791
39.832
38.0604
51.2398
50.0267
48.5851
47.0126
45.4021
43.772
42.1136
40.4228
38.703
51.379
50.21
48.8219
47.3065
45.752
44.1757
42.5689
40.9272
39.2531
51.4935
50.3617
49.0189
47.5518
46.0446
44.5141
42.9515
41.3518
39.7171
51.5906
50.4897
49.1847
47.7576
46.2898
44.7974
43.2717
41.7074
40.1058
51.6664
50.5905
49.3156
47.9206
46.4844
45.0227
43.5267
41.991
40.4163
51.7351
50.6783
49.4266
48.0561
46.644
45.2057
43.7324
42.2186
40.6646
51.777
50.7327
49.4965
48.1429
46.7471
45.3246
43.8668
42.3676
40.8276
51.8302
50.7863
49.558
48.2145
46.828
45.4141
43.9643
42.4729
40.94
)
;

boundaryField
{
    inlet
    {
        type            zeroGradient;
    }
    outlet
    {
        type            fixedValue;
        value           nonuniform 0();
    }
    flap
    {
        type            zeroGradient;
    }
    upperWall
    {
        type            zeroGradient;
    }
    lowerWall
    {
        type            zeroGradient;
    }
    frontAndBack
    {
        type            empty;
    }
    procBoundary1to0
    {
        type            processor;
        value           nonuniform List<scalar> 
18
(
74.854
73.716
73.716
74.2585
73.269
72.3657
71.544
70.8
70.1298
69.5307
68.9997
68.5356
68.1359
67.8024
67.5313
67.33
67.1906
67.1306
)
;
    }
    procBoundary1to2
    {
        type            processor;
        value           nonuniform List<scalar> 
17
(
25.5435
27.5644
29.3459
30.9138
32.2909
33.4975
34.5524
35.4719
36.2704
36.9598
37.5514
38.0513
38.4705
38.8056
39.0731
39.2492
39.3682
)
;
    }
    procBoundary1to3
    {
        type            processor;
        value           nonuniform List<scalar> 9(90.4058 88.1906 86.0855 84.1024 82.248 80.5233 78.9263 77.4528 76.0974);
    }
    procBoundary1to4
    {
        type            processor;
        value           nonuniform List<scalar> 
30
(
91.0579
86.3068
86.3068
83.4234
77.5922
77.5922
73.5078
67.4399
67.4399
62.6214
57.3266
57.3266
52.5406
47.9282
46.3268
46.3268
43.9877
41.1034
39.8838
39.8838
36.173
32.3454
31.6114
31.6114
28.4624
28.253
28.253
25.5714
25.5893
25.5893
)
;
    }
}


// ************************************************************************* //
