/*--------------------------------*- C++ -*----------------------------------*\
| =========                 |                                                 |
| \\      /  F ield         | OpenFOAM: The Open Source CFD Toolbox           |
|  \\    /   O peration     | Version:  dev                                   |
|   \\  /    A nd           | Web:      www.OpenFOAM.org                      |
|    \\/     M anipulation  |                                                 |
\*---------------------------------------------------------------------------*/
FoamFile
{
    version     2.0;
    format      ascii;
    class       surfaceScalarField;
    location    "1.71";
    object      meshPhi;
}
// * * * * * * * * * * * * * * * * * * * * * * * * * * * * * * * * * * * * * //

dimensions      [0 3 -1 0 0 0 0];

internalField   nonuniform List<scalar> 
879
(
1.05332e-05
-6.81629e-06
-1.90836e-05
1.07569e-05
-7.20601e-06
2.04192e-05
-2.019e-05
-3.07235e-05
1.10013e-05
-7.58521e-06
2.08873e-05
-2.12621e-05
2.94868e-05
-3.23994e-05
-4.12412e-05
1.12504e-05
-7.94912e-06
2.13748e-05
-2.22955e-05
3.0203e-05
-3.40067e-05
3.78341e-05
-4.33813e-05
-5.06237e-05
1.15032e-05
-8.29479e-06
2.18721e-05
-2.32817e-05
3.09396e-05
-3.55548e-05
3.88259e-05
-4.54237e-05
4.53793e-05
-5.31686e-05
-5.87671e-05
1.17585e-05
-8.61849e-06
2.23763e-05
-2.42095e-05
3.16902e-05
-3.70195e-05
3.98293e-05
-4.73719e-05
4.66943e-05
-5.55596e-05
5.19582e-05
-6.16586e-05
-6.54873e-05
1.2013e-05
-8.91324e-06
2.28795e-05
-2.50581e-05
3.24426e-05
-3.83687e-05
4.08472e-05
-4.91821e-05
4.80138e-05
-5.78177e-05
5.36936e-05
-6.43562e-05
5.7442e-05
-6.87199e-05
5.86915e-05
-7.06753e-05
-6.99412e-05
1.22618e-05
-9.1725e-06
2.33756e-05
-2.58107e-05
3.31932e-05
-3.9582e-05
4.18771e-05
-5.08344e-05
4.93751e-05
-5.99101e-05
5.54563e-05
-6.69188e-05
5.97777e-05
-7.17901e-05
6.18808e-05
-7.43418e-05
6.14556e-05
-7.44866e-05
-7.21156e-05
1.25056e-05
-9.39587e-06
2.38675e-05
-2.64648e-05
3.39426e-05
-4.06467e-05
4.29157e-05
-5.23041e-05
5.07648e-05
-6.18009e-05
5.72914e-05
-6.92705e-05
6.21827e-05
-7.46742e-05
6.50642e-05
-7.78839e-05
6.57199e-05
-7.87851e-05
6.38992e-05
-7.73651e-05
5.93046e-05
-7.3553e-05
-6.73491e-05
1.27457e-05
-9.57918e-06
2.43534e-05
-2.70061e-05
3.46857e-05
-4.15371e-05
4.39535e-05
-5.35524e-05
5.21713e-05
-6.34425e-05
5.91811e-05
-7.13668e-05
6.47089e-05
-7.73168e-05
6.84376e-05
-8.11991e-05
7.01253e-05
-8.29225e-05
6.96458e-05
-8.24408e-05
6.68328e-05
-7.97204e-05
6.18814e-05
-7.49387e-05
5.50901e-05
-6.8412e-05
-6.04901e-05
1.29781e-05
-9.71299e-06
2.48251e-05
-2.74095e-05
3.54162e-05
-4.22233e-05
4.4994e-05
-5.45533e-05
5.36043e-05
-6.48071e-05
6.11267e-05
-7.31657e-05
6.73322e-05
-7.96512e-05
7.19536e-05
-8.42041e-05
7.47757e-05
-8.67628e-05
7.56553e-05
-8.72796e-05
7.45135e-05
-8.57567e-05
7.15895e-05
-8.23501e-05
6.71668e-05
-7.73275e-05
6.178e-05
-7.11508e-05
-6.42629e-05
1.32016e-05
-9.79337e-06
2.52875e-05
-2.76683e-05
3.61451e-05
-4.26966e-05
4.6043e-05
-5.52855e-05
5.50592e-05
-6.58561e-05
6.3114e-05
-7.46114e-05
7.00318e-05
-8.16102e-05
7.55912e-05
-8.68223e-05
7.95999e-05
-9.02081e-05
8.19304e-05
-9.17351e-05
8.25543e-05
-9.14224e-05
8.16356e-05
-8.94111e-05
7.9462e-05
-8.59436e-05
7.65595e-05
-8.13635e-05
7.33589e-05
-7.61194e-05
7.0083e-05
-7.05681e-05
-6.50111e-05
1.3419e-05
-9.81686e-06
2.57453e-05
-2.77724e-05
3.68753e-05
-4.29371e-05
4.70983e-05
-5.57149e-05
5.65349e-05
-6.65485e-05
6.51481e-05
-7.56612e-05
7.28034e-05
-8.31361e-05
7.93242e-05
-8.89733e-05
8.45494e-05
-9.31551e-05
8.8375e-05
-9.56702e-05
9.07878e-05
-9.65427e-05
9.1918e-05
-9.59002e-05
9.20337e-05
-9.3958e-05
9.15214e-05
-9.09981e-05
9.08531e-05
-8.73808e-05
9.03801e-05
-8.34431e-05
9.05969e-05
-7.95478e-05
9.18546e-05
-7.60599e-05
-7.31444e-05
1.36328e-05
-9.77784e-06
2.62017e-05
-2.77053e-05
3.76123e-05
-4.29224e-05
4.81749e-05
-5.58206e-05
5.80466e-05
-6.68553e-05
6.72299e-05
-7.62679e-05
7.5636e-05
-8.41672e-05
8.31305e-05
-9.05801e-05
8.95821e-05
-9.55063e-05
9.49058e-05
-9.89529e-05
9.90917e-05
-0.000100949
0.000102256
-0.000101615
0.000104625
-0.000101129
0.000106515
-9.97255e-05
0.000108305
-9.77127e-05
0.000110351
-9.53868e-05
0.000113096
-9.30296e-05
0.000116846
-9.09193e-05
0.000121753
-8.92959e-05
0.000127632
-8.82008e-05
-8.6951e-05
1.38526e-05
-9.68043e-06
2.66701e-05
-2.74662e-05
3.837e-05
-4.26383e-05
4.92857e-05
-5.5579e-05
5.96049e-05
-6.67441e-05
6.9367e-05
-7.63885e-05
7.85283e-05
-8.46467e-05
8.69939e-05
-9.15697e-05
9.46562e-05
-9.71679e-05
0.000101449
-0.000101463
0.000107361
-0.000104491
0.000112489
-0.000106362
0.000117023
-0.000107229
0.000121216
-0.000107274
0.000125369
-0.000106751
0.000129784
-0.000105908
0.000134791
-0.000104987
0.000140674
-0.000104243
0.0001477
-0.000103915
0.000155517
-0.000103877
1.4086e-05
-9.52189e-06
2.71607e-05
-2.70465e-05
3.91646e-05
-4.20716e-05
5.04503e-05
-5.49703e-05
6.12306e-05
-6.61869e-05
7.15807e-05
-7.59883e-05
8.14931e-05
-8.45263e-05
9.09104e-05
-9.18757e-05
9.97471e-05
-9.80556e-05
0.000107945
-0.000103093
0.000115498
-0.000107034
0.000122481
-0.000109975
0.000129034
-0.000112042
0.000135343
-0.000113371
0.000141641
-0.000114161
0.000148183
-0.000114627
0.000155239
-0.000114985
0.00016308
-0.000115452
0.000171948
-0.000116239
-0.000116999
1.43376e-05
-9.29686e-06
2.76913e-05
-2.64423e-05
4.0022e-05
-4.1217e-05
5.16998e-05
-5.39836e-05
6.29545e-05
-6.51645e-05
7.38908e-05
-7.50312e-05
8.4547e-05
-8.37629e-05
9.48876e-05
-9.14419e-05
0.000104837
-9.8089e-05
0.000114353
-0.000103746
0.000123428
-0.000108459
0.0001321
-0.000112299
0.000140456
-0.000115365
0.000148632
-0.000117774
0.000156817
-0.000119683
0.000165217
-0.00012127
0.000174047
-0.00012271
0.000183522
-0.000124173
0.000193815
-0.000125801
-0.000127203
1.46154e-05
-9.00361e-06
2.82836e-05
-2.56533e-05
4.09686e-05
-4.00707e-05
5.30547e-05
-5.25977e-05
6.48021e-05
-6.36544e-05
7.63347e-05
-7.34989e-05
8.77141e-05
-8.23172e-05
9.89325e-05
-9.02107e-05
0.000109927
-9.72044e-05
0.000120646
-0.000103333
0.000131069
-0.000108642
0.000141211
-0.000113188
0.000151126
-0.000117051
0.000160917
-0.000120332
0.000170722
-0.000123155
0.000180695
-0.000125655
0.000190997
-0.00012797
0.000201777
-0.000130228
0.000213129
-0.000132532
-0.000134518
1.49309e-05
-8.64226e-06
2.89532e-05
-2.46706e-05
4.20273e-05
-3.86219e-05
5.45469e-05
-5.08029e-05
6.68068e-05
-6.16351e-05
7.89478e-05
-7.13665e-05
9.10289e-05
-8.01601e-05
0.000103061
-8.81343e-05
0.000114994
-9.53281e-05
0.000126765
-0.000101764
0.000138346
-0.000107488
0.000149741
-0.000112552
0.000160982
-0.000117018
0.000172133
-0.000120964
0.000183284
-0.000124485
0.000194543
-0.000127681
0.00020602
-0.000130657
0.000217814
-0.000133511
0.00022998
-0.00013632
-0.000138768
1.52996e-05
-8.21747e-06
2.97182e-05
-2.34923e-05
4.32196e-05
-3.68556e-05
5.62161e-05
-4.85906e-05
6.90123e-05
-5.90911e-05
8.17495e-05
-6.85906e-05
9.44908e-05
-7.72417e-05
0.000107254
-8.51603e-05
0.000119998
-9.23969e-05
0.000132671
-9.89828e-05
0.000145241
-0.000104956
0.000157691
-0.000110354
0.000170029
-0.000115225
0.000182287
-0.000119628
0.000194516
-0.00012363
0.000206782
-0.000127309
0.000219154
-0.00013074
0.000231694
-0.000133995
0.000244432
-0.000137132
-0.000139892
1.57326e-05
-7.7273e-06
3.05993e-05
-2.21181e-05
4.45805e-05
-3.47725e-05
5.80895e-05
-4.59456e-05
7.14193e-05
-5.5987e-05
8.47201e-05
-6.51244e-05
9.80682e-05
-7.35092e-05
0.000111484
-8.12445e-05
0.000124938
-8.83863e-05
0.000138385
-9.49694e-05
0.000151781
-0.000101022
0.000165096
-0.000106572
0.000178314
-0.000111656
0.000191442
-0.000116314
0.000204498
-0.000120595
0.000217514
-0.000124553
0.000230526
-0.000128242
0.000243566
-0.000131713
0.000256645
-0.000135009
-0.000137921
1.62416e-05
-7.17521e-06
3.16154e-05
-2.05535e-05
4.6114e-05
-3.23636e-05
6.01449e-05
-4.284e-05
7.39967e-05
-5.22951e-05
8.78375e-05
-6.09483e-05
0.000101751
-6.8942e-05
0.000115758
-7.63669e-05
0.000129834
-8.32768e-05
0.000143934
-8.97041e-05
0.000158009
-9.56716e-05
0.000172014
-0.0001012
0.000185918
-0.000106314
0.000199702
-0.00011104
0.000213363
-0.000115411
0.000226903
-0.000119462
0.000240331
-0.000123229
0.000253655
-0.000126748
0.000266873
-0.000130045
-0.000132964
1.68206e-05
-6.5526e-06
3.27487e-05
-1.87806e-05
4.77864e-05
-2.96072e-05
6.23481e-05
-3.92552e-05
7.6727e-05
-4.80052e-05
9.10964e-05
-5.6053e-05
0.000105542
-6.35272e-05
0.000120085
-7.05091e-05
0.000134704
-7.70475e-05
0.000149353
-8.31709e-05
0.000163977
-8.88973e-05
0.000178523
-9.42407e-05
0.000192945
-9.92154e-05
0.000207207
-0.000103838
0.000221285
-0.000108128
0.000235161
-0.000112105
0.000248822
-0.000115793
0.000262258
-0.000119212
0.000275451
-0.000122378
-0.00012518
1.74438e-05
-5.84903e-06
3.39633e-05
-1.67797e-05
4.9569e-05
-2.64925e-05
6.46819e-05
-3.5185e-05
7.95954e-05
-4.31033e-05
9.44842e-05
-5.04184e-05
0.000109434
-5.72432e-05
0.000124467
-6.36489e-05
0.000139563
-6.96778e-05
0.000154675
-7.53539e-05
0.000169745
-8.06904e-05
0.000184711
-8.56956e-05
0.000199518
-9.03764e-05
0.000214118
-9.47406e-05
0.000228468
-9.87973e-05
0.000242537
-0.000102557
0.000256294
-0.00010603
0.000269715
-0.000109227
0.000282773
-0.000112156
-0.000114744
1.80922e-05
-5.06689e-06
3.52357e-05
-1.4552e-05
5.14378e-05
-2.30131e-05
6.712e-05
-3.0617e-05
8.25746e-05
-3.75719e-05
9.79758e-05
-4.4023e-05
0.00011341
-5.0066e-05
0.000128899
-5.57611e-05
0.000144423
-6.11436e-05
0.000159935
-6.62326e-05
0.000175373
-7.10369e-05
0.000190673
-7.55603e-05
0.000205771
-7.98044e-05
0.000220608
-8.37702e-05
0.000235133
-8.74595e-05
0.000249299
-9.08747e-05
0.000263067
-9.40187e-05
0.000276399
-9.68943e-05
0.000289264
-9.95038e-05
-0.000101804
1.87554e-05
-4.20675e-06
3.65441e-05
-1.2096e-05
5.33618e-05
-1.91619e-05
6.96256e-05
-2.55379e-05
8.56256e-05
-3.13926e-05
0.000101535
-3.68435e-05
0.00011744
-4.19685e-05
0.000133363
-4.68162e-05
0.000149286
-5.14145e-05
0.000165159
-5.57777e-05
0.000180922
-5.99111e-05
0.000196505
-6.38151e-05
0.00021184
-6.74874e-05
0.00022686
-7.0925e-05
0.000241508
-7.41248e-05
0.000255727
-7.70841e-05
0.000269471
-7.98006e-05
0.000282695
-8.2272e-05
0.00029536
-8.44965e-05
-8.64545e-05
1.94214e-05
-3.26841e-06
3.78618e-05
-9.40919e-06
5.53025e-05
-1.49314e-05
7.21531e-05
-1.99346e-05
8.87005e-05
-2.4546e-05
0.000105117
-2.88549e-05
0.000121489
-3.29203e-05
0.00013784
-3.67789e-05
0.000154151
-4.04514e-05
0.000170375
-4.39477e-05
0.000186449
-4.72704e-05
0.000202301
-5.04176e-05
0.00021786
-5.33852e-05
0.000233057
-5.61681e-05
0.000247824
-5.87608e-05
0.000262104
-6.1158e-05
0.000275841
-6.33545e-05
0.000288989
-6.53457e-05
0.000301504
-6.71276e-05
-6.86947e-05
2.00752e-05
-2.2514e-06
3.91586e-05
-6.48902e-06
5.72172e-05
-1.03147e-05
7.46517e-05
-1.37943e-05
9.17459e-05
-1.7013e-05
0.000108672
-2.00308e-05
0.000125516
-2.28876e-05
0.000142302
-2.56081e-05
0.000159014
-2.82058e-05
0.000175603
-3.06867e-05
0.000192007
-3.30516e-05
0.000208154
-3.5298e-05
0.000223968
-3.74216e-05
0.000239378
-3.94173e-05
0.000254314
-4.12793e-05
0.000268712
-4.30021e-05
0.000282515
-4.45802e-05
0.00029567
-4.60088e-05
0.000308136
-4.72833e-05
-4.84048e-05
2.07015e-05
-1.15549e-06
4.04041e-05
-3.33373e-06
5.90628e-05
-5.30677e-06
7.707e-05
-7.10705e-06
9.47071e-05
-8.77726e-06
0.000112146
-1.03478e-05
0.000129475
-1.18387e-05
0.00014672
-1.32624e-05
0.000163864
-1.46257e-05
0.000180861
-1.59311e-05
0.000197647
-1.71789e-05
0.000214149
-1.83671e-05
0.000230292
-1.9493e-05
0.000246
-2.05533e-05
0.0002612
-2.15443e-05
0.000275827
-2.24625e-05
0.000289819
-2.33043e-05
0.000303122
-2.40665e-05
0.00031569
-2.47463e-05
-2.53453e-05
2.13e-05
4.15704e-05
6.07788e-05
7.93151e-05
9.74615e-05
0.000115392
0.000133196
0.000150901
0.000168491
0.000185921
0.000203125
0.000220031
0.000236561
0.000252637
0.000268185
0.000283135
0.000297424
0.000310996
0.000323802
)
;

boundaryField
{
    inlet
    {
        type            calculated;
        value           uniform 0;
    }
    outlet
    {
        type            calculated;
        value           nonuniform 0();
    }
    flap
    {
        type            calculated;
        value           nonuniform 0();
    }
    upperWall
    {
        type            calculated;
        value           nonuniform List<scalar> 
20
(
0
0
0
0
0
0
1.21196e-14
0
0
0
0
0
-1.00572e-14
9.76074e-15
0
0
0
0
-1.13738e-20
0
)
;
    }
    lowerWall
    {
        type            calculated;
        value           nonuniform 0();
    }
    frontAndBack
    {
        type            empty;
        value           nonuniform 0();
    }
    procBoundary0to1
    {
        type            processor;
        value           nonuniform List<scalar> 
18
(
0.000133141
0.000162518
-0.000103295
0.000181085
0.000203957
0.000224166
0.000241774
0.000256777
0.000269315
0.000279659
0.000288189
0.000295348
0.000301615
0.000307482
0.000313445
0.000319997
0.000327626
0.000335953
)
;
    }
    procBoundary0to3
    {
        type            processor;
        value           nonuniform List<scalar> 
34
(
6.42126e-06
1.7952e-05
2.00106e-05
2.89601e-05
2.88122e-05
3.89367e-05
3.68451e-05
4.78156e-05
4.39947e-05
5.54606e-05
5.00748e-05
6.1745e-05
5.4939e-05
6.66116e-05
6.45162e-05
5.68637e-05
6.60659e-05
5.79526e-05
6.68973e-05
5.87452e-05
5.2069e-05
5.89913e-05
4.88129e-05
4.6881e-05
5.14274e-05
5.56798e-05
5.67946e-05
4.90758e-05
6.7295e-05
5.98061e-05
5.51609e-05
9.41957e-05
7.07431e-05
6.84475e-05
)
;
    }
}


// ************************************************************************* //
