/*--------------------------------*- C++ -*----------------------------------*\
| =========                 |                                                 |
| \\      /  F ield         | OpenFOAM: The Open Source CFD Toolbox           |
|  \\    /   O peration     | Version:  dev                                   |
|   \\  /    A nd           | Web:      www.OpenFOAM.org                      |
|    \\/     M anipulation  |                                                 |
\*---------------------------------------------------------------------------*/
FoamFile
{
    version     2.0;
    format      ascii;
    class       volScalarField;
    location    "4.57";
    object      p;
}
// * * * * * * * * * * * * * * * * * * * * * * * * * * * * * * * * * * * * * //

dimensions      [0 2 -2 0 0 0 0];

internalField   nonuniform List<scalar> 
2790
(
135.772
135.637
135.833
136.351
137.084
137.976
139.018
140.213
141.558
143.046
144.674
146.436
148.325
150.335
152.453
154.668
156.961
159.308
161.681
164.044
166.355
168.565
170.62
172.465
174.046
175.316
176.244
176.812
177.049
177.15
135.598
135.559
135.776
136.292
137.022
137.911
138.95
140.139
141.477
142.958
144.577
146.33
148.209
150.208
152.316
154.52
156.802
159.141
161.509
163.871
166.185
168.404
170.476
172.345
173.955
175.257
176.213
176.788
177.056
177.339
135.423
135.455
135.689
136.196
136.914
137.792
138.818
139.991
141.31
142.77
144.365
146.089
147.937
149.901
151.971
154.133
156.372
158.667
160.99
163.31
165.589
167.782
169.842
171.716
173.355
174.714
175.767
176.513
177.036
177.556
135.231
135.298
135.545
136.042
136.747
137.611
138.619
139.772
141.066
142.496
144.057
145.743
147.547
149.462
151.478
153.58
155.755
157.981
160.234
162.484
164.698
166.836
168.856
170.714
172.369
173.788
174.958
175.891
176.621
177.288
135.014
135.098
135.353
135.843
136.534
137.379
138.365
139.49
140.752
142.145
143.663
145.3
147.049
148.901
150.847
152.874
154.966
157.105
159.267
161.426
163.552
165.61
167.567
169.386
171.035
172.49
173.738
174.778
175.575
176.193
134.767
134.859
135.117
135.599
136.271
137.094
138.052
139.144
140.367
141.715
143.182
144.76
146.443
148.223
150.087
152.024
154.019
156.053
158.106
160.154
162.17
164.125
165.99
167.738
169.343
170.784
172.04
173.088
173.849
174.294
134.489
134.582
134.839
135.309
135.962
136.758
137.684
138.738
139.916
141.212
142.619
144.131
145.738
147.433
149.204
151.038
152.921
154.836
156.762
158.679
160.561
162.386
164.128
165.765
167.275
168.637
169.824
170.797
171.468
171.724
134.178
134.27
134.521
134.978
135.607
136.373
137.263
138.273
139.401
140.638
141.979
143.414
144.937
146.537
148.203
149.922
151.68
153.459
155.24
157.004
158.727
160.39
161.97
163.448
164.804
166.017
167.059
167.883
168.434
168.528
133.835
133.924
134.166
134.605
135.21
135.942
136.791
137.754
138.825
139.998
141.264
142.617
144.046
145.542
147.092
148.683
150.301
151.928
153.545
155.132
156.668
158.133
159.505
160.767
161.899
162.882
163.692
164.287
164.672
164.618
133.461
133.544
133.775
134.195
134.771
135.467
136.272
137.182
138.192
139.294
140.481
141.743
143.071
144.453
145.876
147.328
148.792
150.25
151.682
153.067
154.383
155.608
156.72
157.698
158.522
159.174
159.641
159.892
160.014
159.779
133.056
133.134
133.35
133.748
134.294
134.951
135.708
136.561
137.506
138.533
139.634
140.799
142.017
143.277
144.565
145.866
147.162
148.434
149.66
150.816
151.878
152.818
153.609
154.224
154.636
154.826
154.789
154.513
154.184
153.632
132.622
132.693
132.894
133.268
133.78
134.396
135.102
135.896
136.771
137.718
138.728
139.791
140.894
142.024
143.168
144.307
145.423
146.493
147.492
148.394
149.165
149.773
150.178
150.34
150.216
149.77
148.997
147.887
146.743
145.519
132.161
132.224
132.408
132.756
133.234
133.805
134.458
135.189
135.991
136.855
137.77
138.725
139.707
140.702
141.694
142.662
143.586
144.44
145.195
145.818
146.267
146.497
146.452
146.066
145.264
143.97
142.128
139.684
137.015
134.244
131.674
131.729
131.895
132.216
132.657
133.182
133.779
134.445
135.172
135.949
136.766
137.609
138.466
139.32
140.154
140.945
141.668
142.296
142.792
143.116
143.217
143.033
142.483
141.464
139.849
137.469
134.135
129.579
123.997
117.352
131.164
131.21
131.357
131.649
132.052
132.529
133.07
133.669
134.318
135.006
135.721
136.451
137.179
137.889
138.56
139.169
139.687
140.081
140.31
140.325
140.063
139.443
138.355
136.653
134.134
130.488
125.257
117.61
106.599
88.7954
4.56124
4.5577
4.50311
4.40546
4.29305
4.18533
4.0897
4.00724
3.93673
3.87606
3.8228
3.77401
3.72619
3.67564
3.61787
3.54768
3.46042
3.35231
3.22063
3.06362
2.88036
2.67097
2.43598
2.17595
1.89204
1.58602
1.26015
0.917008
0.559728
0.19161
4.51249
4.50336
4.44304
4.34836
4.2438
4.14494
4.05777
3.98293
3.91893
3.86354
3.81438
3.76894
3.72432
3.67703
3.62211
3.55413
3.46843
3.36127
3.23003
3.0731
2.88983
2.68012
2.44425
2.18309
1.898
1.59082
1.26379
0.919468
0.560806
0.190802
4.43467
4.42542
4.35893
4.2683
4.17439
4.08803
4.01325
3.94989
3.89594
3.84891
3.80652
3.76648
3.72615
3.6821
3.63058
3.56693
3.48521
3.38089
3.25113
3.09437
2.91023
2.69881
2.46078
2.19733
1.90996
1.60057
1.27137
0.92486
0.56379
0.189943
4.33059
4.32822
4.25679
4.17233
4.09155
4.02078
3.96174
3.91311
3.87221
3.83624
3.80287
3.77006
3.73559
3.69651
3.64906
3.58846
3.50957
3.40748
3.27871
3.12186
2.93672
2.72376
2.48382
2.21812
1.92824
1.61608
1.28379
0.933892
0.569215
0.191112
4.20754
4.21993
4.14726
4.07319
4.00852
3.95601
3.91534
3.88371
3.8577
3.83431
3.81111
3.78628
3.75794
3.72354
3.67955
3.62144
3.54428
3.44339
3.31527
3.15829
2.97218
2.75742
2.51495
2.2461
1.95262
1.63654
1.30009
0.945831
0.576646
0.193803
4.07718
4.11004
4.04073
3.98143
3.93565
3.90346
3.88263
3.86913
3.85892
3.84879
3.83635
3.81986
3.79763
3.76738
3.72586
3.66895
3.59213
3.49113
3.36266
3.20491
3.01739
2.80043
2.5549
2.28215
1.98409
1.66293
1.32103
0.961052
0.585803
0.196972
3.95323
4.00759
3.94643
3.90554
3.88043
3.86946
3.86875
3.87334
3.87876
3.88161
3.87957
3.87102
3.85443
3.82772
3.78796
3.73144
3.65413
3.55221
3.42261
3.2634
3.07383
2.85395
2.60449
2.32676
2.02266
1.69495
1.34644
0.979594
0.596818
0.200529
3.84679
3.91982
3.87121
3.85144
3.84704
3.8568
3.87552
3.89745
3.91764
3.93255
3.93996
3.93847
3.92677
3.90302
3.86458
3.80814
3.73007
3.62694
3.49583
3.33474
3.1426
2.91913
2.66457
2.38028
2.06898
1.73367
1.37701
1.00102
0.607987
0.20337
3.7611
3.85347
3.81878
3.81805
3.83401
3.86437
3.90238
3.94116
3.97531
4.00124
4.01699
4.0215
4.01385
3.99252
3.9552
3.89886
3.82019
3.71599
3.58341
3.42027
3.22514
2.99703
2.73595
2.44395
2.12419
1.77976
1.4131
1.02543
0.619801
0.206662
3.6946
3.80428
3.78374
3.79882
3.83621
3.88901
3.94754
4.00347
4.05109
4.08713
4.11014
4.11967
4.11537
4.09619
4.06006
4.0041
3.9252
3.82031
3.68656
3.5214
3.3228
3.08891
2.82007
2.51907
2.18926
1.83403
1.4553
1.05352
0.633472
0.210671
3.64099
3.75269
3.74613
3.78134
3.84663
3.92724
4.00941
4.08362
4.14453
4.18982
4.21898
4.23251
4.23097
4.21388
4.17927
4.12424
4.04573
3.94082
3.8065
3.63973
3.43702
3.19631
2.91861
2.60682
2.26501
1.89683
1.5037
1.08564
0.649657
0.215541
3.57616
3.66038
3.67458
3.74705
3.85616
3.97518
4.08645
4.18086
4.255
4.30871
4.3429
4.35931
4.35987
4.34503
4.31272
4.25952
4.18226
4.07826
3.94434
3.77643
3.56961
3.32136
3.03302
2.70817
2.35192
1.96829
1.55828
1.1219
0.668594
0.221308
3.43151
3.46071
3.52831
3.67654
3.85753
4.03124
4.17879
4.29531
4.38206
4.44319
4.48125
4.49897
4.50071
4.48861
4.46007
4.41006
4.33504
4.23306
4.10102
3.93305
3.72248
3.46582
3.16451
2.82369
2.45008
2.04826
1.61887
1.16222
0.690122
0.22786
3.06346
3.08498
3.26951
3.56701
3.86024
4.10204
4.29141
4.4297
4.5258
4.59305
4.63406
4.65054
4.65144
4.64294
4.62089
4.57611
4.50419
4.40524
4.27702
4.11126
3.89792
3.6316
3.31416
2.95358
2.55918
2.13639
1.68528
1.20636
0.713757
0.234932
2.1022
2.33399
2.81434
3.44311
3.91739
4.21765
4.43833
4.59162
4.68734
4.75909
4.80339
4.8135
4.80866
4.80512
4.79494
4.75856
4.68974
4.59407
4.47228
4.31268
4.09865
3.82089
3.48291
3.09753
2.67839
2.2321
1.75728
1.25392
0.738716
0.242131
130.621
130.659
130.786
131.047
131.41
131.838
132.319
132.848
133.416
134.012
134.623
135.234
135.83
136.391
136.896
137.317
137.624
137.778
137.734
137.432
136.8
135.736
134.106
131.719
128.292
123.364
116.143
104.922
85.7201
30.9106
130.041
130.069
130.174
130.404
130.725
131.1
131.519
131.975
132.459
132.959
133.462
133.951
134.41
134.819
135.152
135.381
135.473
135.385
135.065
134.45
133.454
131.966
129.831
126.836
122.657
116.779
108.34
95.7174
78.2002
54.1885
129.426
129.445
129.527
129.723
130.001
130.323
130.677
131.058
131.455
131.857
132.249
132.614
132.934
133.188
133.349
133.387
133.265
132.939
132.353
131.44
130.109
128.245
125.694
122.247
117.615
111.398
103.118
92.196
79.3931
65.9646
128.779
128.787
128.846
129.008
129.24
129.507
129.796
130.1
130.409
130.711
130.991
131.231
131.412
131.512
131.502
131.353
131.024
130.471
129.637
128.454
126.832
124.663
121.806
118.086
113.286
107.159
99.4861
90.0191
78.7731
65.7814
128.1
128.097
128.133
128.259
128.446
128.656
128.878
129.104
129.325
129.527
129.695
129.811
129.855
129.803
129.629
129.299
128.775
128.012
126.955
125.538
123.678
121.279
118.224
114.376
109.583
103.685
96.5407
87.978
77.8707
66.6132
127.391
127.378
127.389
127.479
127.62
127.774
127.928
128.076
128.208
128.311
128.368
128.362
128.272
128.075
127.743
127.244
126.541
125.59
124.339
122.727
120.684
118.127
114.962
111.09
106.404
100.802
94.2017
86.5469
77.8541
68.5943
126.654
126.63
126.616
126.671
126.765
126.862
126.949
127.02
127.065
127.07
127.019
126.895
126.676
126.341
125.861
125.207
124.342
123.227
121.813
120.049
117.873
115.22
112.018
108.198
103.69
98.4393
92.4163
85.6326
78.1429
70.2863
125.892
125.856
125.818
125.837
125.885
125.925
125.946
125.941
125.9
125.81
125.655
125.417
125.078
124.613
123.998
123.204
122.198
120.943
119.399
117.52
115.257
112.561
109.379
105.665
101.379
96.499
91.0235
84.985
78.437
71.6388
125.107
125.06
124.998
124.981
124.983
124.968
124.924
124.845
124.721
124.54
124.285
123.941
123.488
122.904
122.167
121.25
120.123
118.754
117.109
115.15
112.841
110.143
107.022
103.449
99.4055
94.8868
89.9074
84.5062
78.7372
72.8106
124.302
124.245
124.159
124.106
124.064
123.995
123.888
123.737
123.534
123.266
122.918
122.474
121.916
121.226
120.38
119.357
118.129
116.67
114.952
112.945
110.621
107.954
104.922
101.51
97.7121
93.5356
89.0024
84.1534
79.0397
73.829
123.481
123.414
123.304
123.218
123.131
123.011
122.843
122.625
122.346
121.996
121.561
121.025
120.374
119.588
118.649
117.535
116.227
114.7
112.932
110.902
108.59
105.977
103.052
99.8098
96.2526
92.3939
88.2591
83.8867
79.3222
74.6986
122.648
122.57
122.438
122.319
122.191
122.021
121.796
121.513
121.163
120.737
120.222
119.604
118.868
117.999
116.98
115.794
114.422
112.847
111.051
109.019
106.737
104.195
101.388
98.3161
94.9881
91.4202
87.6378
83.6757
79.5729
75.4357
121.807
121.719
121.566
121.415
121.248
121.03
120.751
120.408
119.993
119.498
118.91
118.217
117.408
116.468
115.382
114.137
112.718
111.112
109.306
107.288
105.051
102.59
99.9045
96.9996
93.8861
90.5814
87.1095
83.5008
79.7885
76.058
120.962
120.865
120.691
120.511
120.306
120.044
119.715
119.316
118.842
118.283
117.63
116.873
116
114.999
113.86
112.57
111.119
109.496
107.692
105.701
103.519
101.145
98.5812
95.8356
92.9201
89.8518
86.6527
83.349
79.9685
76.5803
120.118
120.013
119.82
119.612
119.372
119.069
118.694
118.244
117.715
117.1
116.39
115.576
114.649
113.599
112.417
111.095
109.623
107.996
106.206
104.251
102.13
99.844
97.3989
94.8029
92.0683
89.2114
86.2517
83.2116
80.1143
77.0159
119.281
119.168
118.957
118.724
118.451
118.111
117.693
117.197
116.62
115.955
115.195
114.333
113.361
112.271
111.058
109.713
108.231
106.608
104.841
102.928
100.87
98.6728
96.3409
93.8838
91.3135
88.6448
85.8948
83.0828
80.228
77.3764
118.456
118.335
118.109
117.851
117.55
117.175
116.719
116.182
115.562
114.854
114.051
113.148
112.14
111.019
109.782
108.424
106.94
105.329
103.59
101.723
99.7306
97.6185
95.3932
93.0637
90.6415
88.1398
85.5736
82.9592
80.3129
77.6721
117.648
117.521
117.28
117.001
116.672
116.267
115.777
115.204
114.546
113.801
112.962
112.026
110.988
109.845
108.592
107.228
105.749
104.156
102.448
100.628
98.7004
96.67
94.5438
92.3307
90.0412
87.6873
85.282
82.839
80.3722
77.9123
116.864
116.73
116.476
116.178
115.826
115.393
114.873
114.269
113.579
112.801
111.933
110.97
109.91
108.75
107.489
106.124
104.655
103.083
101.409
99.637
97.7712
95.8175
93.7825
91.6748
89.5039
87.2804
85.0156
82.7214
80.4093
78.1049
116.109
115.97
115.704
115.389
115.016
114.559
114.013
113.381
112.664
111.861
110.968
109.984
108.907
107.736
106.471
105.11
103.655
102.106
100.468
98.7424
96.9355
95.053
93.1013
91.0883
89.0227
86.9139
84.7718
82.6066
80.428
78.2572
115.39
115.247
114.97
114.64
114.248
113.77
113.203
112.548
111.808
110.982
110.07
109.07
107.982
106.805
105.539
104.186
102.747
101.223
99.6193
97.9388
96.187
94.3697
92.4933
90.5649
88.5924
86.5841
84.5488
82.4951
80.4316
78.3757
114.713
114.566
114.281
113.937
113.529
113.034
112.447
111.773
111.014
110.171
109.244
108.232
107.136
105.956
104.694
103.351
101.929
100.43
98.86
97.2215
95.5205
93.7626
91.9535
90.1
88.2092
86.2887
84.3459
82.3885
80.4238
78.4665
114.086
113.935
113.642
113.287
112.865
112.354
111.751
111.061
110.287
109.431
108.492
107.472
106.371
105.192
103.935
102.603
101.199
99.7252
98.1864
96.5868
94.9319
93.227
91.4777
89.6899
87.8704
86.0257
84.1626
82.2878
80.4077
78.5345
113.515
113.361
113.061
112.696
112.262
111.738
111.122
110.419
109.633
108.766
107.819
106.793
105.691
104.514
103.264
101.944
100.557
99.1064
97.5967
96.0324
94.4187
92.7606
91.0635
89.3329
87.5748
85.7952
84.0003
82.1958
80.3875
78.5856
113.007
112.851
112.545
112.17
111.725
111.191
110.564
109.851
109.056
108.181
107.228
106.199
105.096
103.922
102.679
101.371
100.001
98.5719
97.0885
95.5554
93.9776
92.3603
90.708
89.0262
87.3203
85.5959
83.8582
82.1128
80.3646
78.6221
112.572
112.412
112.099
111.716
111.263
110.72
110.085
109.364
108.561
107.68
106.723
105.693
104.591
103.421
102.186
100.889
99.5338
98.1238
96.6634
95.1573
93.6103
92.0274
90.413
88.7721
87.1097
85.431
83.741
82.0444
80.346
78.6528
112.217
112.053
111.732
111.34
110.879
110.329
109.687
108.959
108.151
107.266
106.307
105.276
104.176
103.011
101.782
100.495
99.1529
97.759
96.3179
94.834
93.3124
91.7575
90.1738
88.5658
86.9384
85.2962
83.6439
81.986
80.3266
78.6717
111.954
111.78
111.45
111.052
110.585
110.03
109.382
108.65
107.838
106.951
105.99
104.959
103.861
102.7
101.477
100.199
98.8668
97.486
96.0603
94.5942
93.0925
91.5598
90.0001
88.4178
86.8175
85.2038
83.5809
81.9532
80.3247
78.7005
111.797
111.596
111.248
110.844
110.375
109.816
109.166
108.431
107.617
106.728
105.767
104.737
103.642
102.483
101.266
99.993
98.6688
97.2972
95.8821
94.4281
92.94
91.4221
89.8784
88.3131
86.7308
85.1356
83.5318
81.9234
80.3142
78.7083
111.786
111.532
111.16
110.749
110.276
109.713
109.06
108.323
107.508
106.618
105.657
104.628
103.534
102.379
101.165
99.8967
98.5781
97.2129
95.8053
94.3596
92.8806
91.3724
89.8392
88.2849
86.714
85.1306
83.5387
81.9424
80.3454
78.7509
-68.37
-44.5631
-17.7273
35.6129
29.6093
20.8007
50.1941
38.7953
29.0695
50.8836
41.498
34.665
55.4556
48.1874
42.3923
59.743
53.701
48.598
62.8063
57.667
53.2857
65.2377
60.8496
57.1056
67.2849
63.4968
60.2662
69
65.6884
62.8692
70.4321
67.506
65.02
71.631
69.0212
66.8074
72.6361
70.2883
68.299
73.4787
71.35
69.5479
74.1845
72.2407
70.596
74.7745
72.9879
71.4766
75.2665
73.6144
72.2166
75.6751
74.1386
72.8381
76.0128
74.5758
73.3588
76.2902
74.9393
73.794
76.5166
75.2399
74.1563
76.7003
75.4876
74.4568
76.8479
75.69
74.7044
76.967
75.8559
74.9085
77.0602
75.9885
75.0732
77.1387
76.0995
75.2103
77.1943
76.1813
75.3136
77.254
76.2611
75.4084
77.28
76.3017
75.4612
77.3423
76.3769
75.5421
0.635499
0.417973
1.84238
3.49035
4.1561
4.35404
4.61544
4.80875
4.87405
4.94185
4.9957
4.99115
4.96927
4.97336
4.98654
4.96394
4.89574
4.80163
4.69008
4.54356
4.33259
4.04082
3.67545
3.25775
2.80868
2.33651
1.83634
1.30568
0.764554
0.249044
5.95942
2.11074
4.35381
5.2602
4.50589
4.22585
4.93315
5.22852
5.05968
5.08918
5.22263
5.19942
5.12708
5.13905
5.19981
5.20273
5.12624
5.02704
4.93155
4.81125
4.61091
4.30093
3.89718
3.43556
2.94955
2.45004
1.92433
1.36289
0.790488
0.254785
16.2102
8.72336
6.88369
5.38091
4.78234
5.71612
6.42579
5.69585
4.81052
5.12748
5.66624
5.51229
5.24281
5.24363
5.42865
5.49574
5.38234
5.26073
5.18876
5.1189
4.94439
4.60884
4.1501
3.62766
3.09542
2.5698
2.02249
1.42707
0.815107
0.257735
25.5443
17.1794
12.4403
9.3739
7.65538
6.9967
6.20726
5.34156
5.25521
6.37701
6.59397
5.61425
4.99016
5.18672
5.78947
5.93776
5.67332
5.48277
5.4377
5.46831
5.3548
4.97762
4.43897
3.83048
3.23715
2.69083
2.13453
1.50276
0.837399
0.255156
34.3585
26.0139
19.7766
15.2235
12
9.78342
8.14138
7.03005
6.57062
6.64403
6.1453
5.46516
5.24341
5.95376
6.61898
6.38707
5.80434
5.55104
5.61027
5.89111
5.89494
5.42771
4.7727
4.03938
3.35464
2.80012
2.26723
1.59887
0.85667
0.241724
41.691
34.05
27.2489
21.6719
17.3602
14.1219
11.7022
9.92145
8.68276
7.85163
7.07507
6.42328
6.13451
6.35833
6.52529
6.35681
6.02511
5.92248
6.17132
6.57955
6.51211
5.90235
5.10761
4.20463
3.38628
2.87453
2.44132
1.73106
0.871895
0.205876
47.5565
40.8855
34.1755
28.1927
23.276
19.3367
16.1891
13.6889
11.7494
10.281
9.11679
8.19008
7.57718
7.309
7.15175
6.90975
6.61044
6.46601
6.56893
6.7868
6.77906
6.31641
5.47855
4.41542
3.48704
3.07538
2.70602
1.88483
0.865436
0.119863
52.3199
46.5577
40.2883
34.3519
29.2158
24.8724
21.2088
18.1474
15.637
13.6127
11.9699
10.6417
9.63645
8.94519
8.44374
7.98855
7.56777
7.28524
7.18546
7.16888
6.99965
6.48179
5.63004
4.59092
3.67006
3.12433
2.62273
1.80559
0.80185
-0.0498068
56.1918
51.1931
45.4941
39.8613
34.7843
30.3079
26.3732
22.9484
20.0132
17.5314
15.4448
13.707
12.2991
11.1938
10.3124
9.5639
8.92151
8.41786
8.05718
7.75617
7.35128
6.70549
5.8158
4.79844
3.85815
3.13271
2.44785
1.57426
0.585175
-0.331332
59.3395
54.9649
49.8424
44.6264
39.7764
35.3616
31.3529
27.7449
24.5421
21.7348
19.2968
17.1992
15.4189
13.9273
12.674
11.601
10.6756
9.89148
9.22977
8.62395
7.96482
7.15833
6.19092
5.13712
4.12498
3.23634
2.38829
1.44818
0.457245
-0.4939
61.9183
58.0513
53.4544
48.6772
44.1315
39.8915
35.9428
32.2931
28.9617
25.9568
23.2719
20.8926
18.8023
16.9795
15.3917
14.0001
12.7729
11.6887
10.7196
9.81354
8.89661
7.90373
6.81732
5.67862
4.56403
3.52497
2.52764
1.5063
0.488422
-0.493492
64.0497
60.5977
56.4581
52.0953
47.8727
43.8608
40.0506
36.4548
33.0988
30.0005
27.1651
24.5891
22.2643
20.1777
18.3086
16.6309
15.1182
13.7464
12.4871
11.2997
10.1329
8.94142
7.70761
6.45095
5.21435
4.03034
2.89057
1.76961
0.689982
-0.346449
65.8231
62.7142
58.9653
54.9748
51.0633
47.2946
43.6608
40.1744
36.8624
33.7466
30.8383
28.1413
25.6543
23.371
21.2797
19.3631
17.6016
15.9738
14.4551
13.0143
11.6154
10.2261
8.8307
7.43581
6.06399
4.73581
3.45442
2.21506
1.03726
-0.0884853
67.3059
64.4837
61.0675
57.4039
53.7781
50.2466
46.8009
43.4513
40.2234
37.1398
34.2148
31.4561
28.8671
26.4466
24.189
22.084
20.1178
18.2739
16.5328
14.8711
13.2632
11.6861
10.1263
8.58355
7.06882
5.5948
4.16814
2.79261
1.48449
0.234651
68.5503
65.9694
62.837
59.458
56.0884
52.7783
49.5177
46.3142
43.1907
40.1691
37.2646
34.4868
31.8417
29.3319
26.9559
24.7083
22.5805
20.5605
18.6341
16.7843
14.9928
13.243
11.5235
9.83138
8.17079
6.54901
4.97225
3.44628
1.98333
0.579922
69.5967
67.2203
64.3308
61.199
58.0566
54.9482
51.8622
48.8038
45.7927
42.8491
39.988
37.2197
34.5517
31.9886
29.532
27.18
24.9278
22.7677
20.6897
18.6819
16.7313
14.8257
12.9561
11.1182
9.31253
7.54252
5.8123
4.12642
2.49254
0.913724
70.4775
68.2751
65.5941
62.677
59.7348
56.8076
53.8828
50.9628
48.0645
45.2061
42.4015
39.6611
36.9929
34.4028
31.8943
29.468
27.1219
24.8516
22.6506
20.5108
18.4232
16.3788
14.3705
12.3936
10.4466
8.53008
6.64571
4.79549
2.98239
1.2148
71.2189
69.1648
66.663
63.9323
61.166
58.4005
55.6222
52.8313
50.0419
47.2702
44.5288
41.8275
39.1743
36.5758
34.0366
31.5589
29.1429
26.7866
24.4862
22.2364
20.0311
17.8638
15.7286
13.6212
11.5387
9.47977
7.44354
5.4292
3.43539
1.4737
71.842
69.9146
67.5672
64.9983
62.3861
59.7639
57.1175
54.445
51.7583
49.0713
46.3954
43.7394
41.1111
38.5171
35.9626
33.451
30.9837
28.5606
26.1799
23.8385
21.5322
19.2563
17.0062
14.7776
12.5672
10.3719
8.18881
6.01454
3.84405
1.69004
72.3647
70.5455
68.3309
65.9024
63.4249
60.929
58.4003
55.8353
53.2435
50.6371
48.026
45.4182
42.8206
40.2399
37.6813
35.1487
32.6446
30.1701
27.7248
25.307
22.9142
20.5429
18.1893
15.8496
13.5198
11.1959
8.87339
6.54656
4.20758
1.86879
72.8017
71.0747
68.9745
66.6674
64.3071
61.922
59.4976
57.029
54.5238
51.9925
49.4437
46.8842
44.3205
41.7585
39.2035
36.6597
34.1301
31.6164
29.1193
26.6381
24.1714
21.7167
19.2708
16.8302
14.3906
11.9473
9.49444
7.02481
4.52849
2.0166
73.1658
71.5173
69.5151
67.3127
65.054
62.7655
60.4327
58.0497
55.6224
53.1598
50.6693
48.1567
45.6276
43.0876
40.5415
37.9935
35.4468
32.9037
30.3653
27.8318
25.3024
22.7753
20.2479
17.7168
15.1776
12.625
10.0524
7.45139
4.81078
2.13998
73.4674
71.8853
69.9667
67.854
65.6827
63.4778
61.2248
58.9169
56.5587
54.158
51.7209
49.2524
46.7572
44.2403
41.7063
39.159
36.6016
34.0367
31.4658
28.8894
26.3072
23.7179
21.1193
18.508
15.8796
13.2286
10.5478
7.82803
5.05733
2.2432
73.7167
72.1902
70.3425
68.3061
66.2093
64.0759
61.8915
59.6488
57.3511
55.005
52.6158
50.1876
47.7243
45.2304
42.7099
40.1665
37.6032
35.0226
32.4262
29.815
27.1888
24.5467
21.8867
19.2055
16.4988
13.7607
10.9837
8.15839
5.27229
2.33062
73.9194
72.4391
70.6504
68.6781
66.6439
64.5708
62.4446
60.2574
58.0115
55.7127
53.3654
50.973
48.5388
46.0665
43.5598
41.022
38.456
35.8642
33.2481
30.6089
27.9466
25.2603
22.5482
19.8071
17.0327
14.2191
11.3585
8.44113
5.45465
2.40203
74.0866
72.6436
70.9036
68.984
67.0015
64.9782
62.9002
60.7592
58.5568
56.2979
53.9863
51.6248
49.216
46.7631
44.2695
41.7381
39.1715
36.5719
33.941
31.2797
28.5883
25.8658
23.1106
20.3195
17.4882
14.6106
11.679
8.68345
5.61147
2.46308
74.2151
72.8016
71.1
69.2222
67.2808
65.2972
63.2578
61.1539
58.9865
56.7599
54.4774
52.1411
49.7534
47.317
44.8348
42.3094
39.7432
37.1384
34.4964
31.8181
29.1037
26.3525
23.5627
20.7312
17.8536
14.9238
11.9341
8.87444
5.73254
2.50642
74.326
72.934
71.2617
69.4159
67.5057
65.5523
63.5422
61.4666
59.3261
57.1243
54.8643
52.5477
50.1765
47.7532
45.2802
42.76
40.1948
37.5865
34.9365
32.2457
29.5142
26.7412
23.9249
21.0624
18.1491
15.179
12.1439
9.03387
5.83639
2.54577
74.3934
73.0146
71.3614
69.5373
67.6482
65.7149
63.7244
61.6678
59.5452
57.3601
55.1152
52.8119
50.4519
48.0374
45.5707
43.0542
40.4897
37.8792
35.224
32.5248
29.7818
26.9941
24.16
21.2764
18.3388
15.3408
12.2744
9.12905
5.89263
2.55837
74.4731
73.0942
71.4516
69.641
67.7641
65.8419
63.8621
61.8158
59.7028
57.5266
55.2895
52.9929
50.6385
48.2283
45.7644
43.2491
40.6844
38.072
35.4131
32.7086
29.9586
27.1623
24.3178
21.422
18.4705
15.4566
12.3719
9.20506
5.94096
2.56162
)
;

boundaryField
{
    inlet
    {
        type            zeroGradient;
    }
    outlet
    {
        type            fixedValue;
        value           uniform 0;
    }
    flap
    {
        type            zeroGradient;
    }
    upperWall
    {
        type            zeroGradient;
    }
    lowerWall
    {
        type            zeroGradient;
    }
    frontAndBack
    {
        type            empty;
    }
}


// ************************************************************************* //
