/*--------------------------------*- C++ -*----------------------------------*\
| =========                 |                                                 |
| \\      /  F ield         | OpenFOAM: The Open Source CFD Toolbox           |
|  \\    /   O peration     | Version:  dev                                   |
|   \\  /    A nd           | Web:      www.OpenFOAM.org                      |
|    \\/     M anipulation  |                                                 |
\*---------------------------------------------------------------------------*/
FoamFile
{
    version     2.0;
    format      ascii;
    class       surfaceScalarField;
    location    "4.57";
    object      phi;
}
// * * * * * * * * * * * * * * * * * * * * * * * * * * * * * * * * * * * * * //

dimensions      [0 3 -1 0 0 0 0];

internalField   nonuniform List<scalar> 
5457
(
0.198193
0.00181059
0.196159
0.00203998
0.193852
0.00231472
0.191228
0.00263343
0.188286
0.00295416
0.185025
0.00327315
0.18144
0.00359779
0.177516
0.00393491
0.173235
0.00428876
0.168578
0.00466236
0.163521
0.00505763
0.158041
0.00547742
0.152111
0.00592467
0.145701
0.00640047
0.138785
0.00690514
0.131335
0.00743771
0.123327
0.00799545
0.114742
0.00857357
0.105567
0.00916483
0.0957996
0.0097582
0.0854552
0.0103375
0.0745687
0.0108817
0.0632013
0.011364
0.0514476
0.0117514
0.0394432
0.012003
0.0273683
0.0120741
0.0154388
0.011929
0.00403968
0.0113989
-0.00192856
0.00596816
-0.00192857
0.199892
0.00192248
0.199118
0.00281934
0.197955
0.0034846
0.196435
0.00416418
0.194552
0.00484834
0.192307
0.00553125
0.189693
0.00622448
0.186697
0.006941
0.183306
0.00768901
0.179499
0.00847461
0.175255
0.009303
0.170549
0.0101805
0.165355
0.0111125
0.159645
0.012102
0.153388
0.0131507
0.146556
0.0142575
0.139121
0.0154182
0.131058
0.0166245
0.122349
0.0178633
0.112984
0.0191147
0.102966
0.0203486
0.0923179
0.0215245
0.0810881
0.0225903
0.0693585
0.0234787
0.0572594
0.0241006
0.0450014
0.0243312
0.0329785
0.0239515
0.0220562
0.0223209
0.0100228
0.0180015
0.00809423
0.199745
0.00218128
0.199036
0.00353273
0.197943
0.00458497
0.196519
0.005599
0.194767
0.00661164
0.192686
0.00762511
0.190269
0.00865371
0.187508
0.00971388
0.184388
0.0108169
0.180896
0.0119722
0.177012
0.0131892
0.172713
0.0144775
0.167974
0.0158448
0.162771
0.017297
0.157072
0.018838
0.150849
0.0204687
0.144069
0.0221856
0.136701
0.0239801
0.128717
0.0258368
0.120091
0.0277318
0.110803
0.0296293
0.100846
0.0314769
0.090228
0.0332044
0.0789841
0.0347201
0.0671863
0.0358968
0.0549637
0.0365528
0.0424991
0.0364155
0.0297981
0.0350216
0.0160146
0.0317849
0.0241088
0.199655
0.00252918
0.198948
0.0042444
0.197872
0.00566871
0.196467
0.00701425
0.194745
0.00834492
0.192706
0.00967732
0.190343
0.0110293
0.18765
0.0124185
0.184617
0.0138583
0.181233
0.0153618
0.177482
0.0169422
0.173346
0.0186117
0.168805
0.0203799
0.163839
0.0222552
0.158421
0.0242445
0.152526
0.0263515
0.146124
0.0285754
0.139182
0.03091
0.131666
0.0333418
0.123542
0.0358473
0.114771
0.0383922
0.10532
0.0409234
0.0951516
0.0433684
0.0842398
0.0456292
0.0725703
0.0475644
0.0601377
0.0489843
0.046923
0.0496294
0.0327927
0.0491516
0.0173043
0.0472731
0.041413
0.19961
0.0029218
0.198894
0.00496508
0.197832
0.00673781
0.196447
0.0084087
0.194754
0.0100502
0.19275
0.0116936
0.190432
0.013361
0.187791
0.0150704
0.184821
0.0168372
0.181511
0.0186779
0.177846
0.0206096
0.17381
0.0226462
0.169387
0.0247984
0.164556
0.0270772
0.159298
0.0294921
0.153588
0.03205
0.147397
0.0347543
0.140691
0.0376035
0.133433
0.040589
0.125578
0.0436931
0.117077
0.0468856
0.107874
0.0501201
0.0979053
0.0533331
0.0870868
0.0564446
0.0753296
0.0593196
0.0625499
0.0617626
0.0486541
0.0635244
0.0335646
0.0642407
0.0172861
0.0635515
0.0586991
0.199589
0.00333515
0.198866
0.00569246
0.19782
0.00779029
0.196463
0.00977498
0.194805
0.0117203
0.192844
0.0136676
0.190576
0.0156423
0.187995
0.0176632
0.185093
0.0197482
0.18186
0.0219181
0.178279
0.024193
0.174337
0.0265876
0.170016
0.0291145
0.165299
0.0317871
0.160163
0.0346173
0.154586
0.0376154
0.148536
0.0407918
0.141976
0.0441516
0.134863
0.0476912
0.127144
0.0514026
0.118756
0.0552661
0.10962
0.0592494
0.0996543
0.0632943
0.0887479
0.0673475
0.0767695
0.0712955
0.0636101
0.0749203
0.0491952
0.0779382
0.0335379
0.0798973
0.0169945
0.0800947
0.0756935
0.19958
0.00375663
0.198857
0.00641948
0.197832
0.00882187
0.196509
0.0111072
0.194892
0.0133494
0.19298
0.0155926
0.19077
0.0178646
0.188259
0.0201861
0.185438
0.02258
0.182291
0.0250719
0.178805
0.0276817
0.174967
0.0304256
0.170758
0.0333199
0.166158
0.0363804
0.161144
0.0396215
0.15569
0.0430579
0.149763
0.0467065
0.14332
0.050583
0.136308
0.0546924
0.128668
0.0590328
0.120324
0.0636016
0.11118
0.0683867
0.101126
0.0733432
0.0900416
0.0784278
0.0777985
0.0835357
0.06429
0.0884268
0.049488
0.0927389
0.0334878
0.0958968
0.0168226
0.0967596
0.0925159
0.199578
0.0041793
0.198864
0.00713669
0.197864
0.00982811
0.196578
0.0124024
0.195007
0.0149323
0.193152
0.0174606
0.191013
0.0200173
0.188583
0.0226276
0.185852
0.0253215
0.182805
0.0281266
0.17943
0.0310611
0.175711
0.034145
0.171629
0.0373984
0.167163
0.0408402
0.162286
0.0444892
0.156968
0.0483658
0.151173
0.0524901
0.144853
0.0568914
0.137946
0.061588
0.130383
0.0665854
0.122078
0.0718983
0.112924
0.0775335
0.102788
0.0834734
0.0915403
0.0896705
0.0790664
0.0960061
0.0652728
0.102218
0.0501666
0.107844
0.0338894
0.112173
0.0169985
0.11365
0.109514
0.199582
0.00459746
0.198884
0.00783766
0.197912
0.0108055
0.196667
0.0136566
0.195149
0.0164613
0.193361
0.0192619
0.191302
0.02209
0.188963
0.0249787
0.186332
0.0279638
0.183397
0.0310695
0.180147
0.0343161
0.176564
0.0377291
0.172629
0.0413311
0.168318
0.0451449
0.163604
0.0491952
0.158453
0.0535078
0.152818
0.058114
0.146649
0.0630484
0.139887
0.0683393
0.132449
0.0740135
0.124237
0.0801013
0.115133
0.0866295
0.104993
0.0936064
0.0936798
0.100979
0.0810744
0.108608
0.0670835
0.116206
0.0517129
0.123212
0.0350954
0.12879
0.0177037
0.131041
0.127218
0.19959
0.00500653
0.198911
0.00851888
0.197972
0.01175
0.196773
0.0148641
0.195317
0.0179288
0.193604
0.0209879
0.191631
0.0240759
0.18939
0.0272329
0.18687
0.0304952
0.184062
0.0338858
0.180953
0.0374314
0.177524
0.0411603
0.173756
0.0450973
0.169626
0.04927
0.165105
0.0537094
0.160153
0.0584501
0.154722
0.0635345
0.148763
0.0689971
0.142213
0.0748784
0.134983
0.0812332
0.126967
0.0881079
0.11804
0.0955478
0.108044
0.103596
0.0968253
0.112191
0.0842499
0.121178
0.0701841
0.130269
0.0545701
0.138824
0.0374562
0.145902
0.0191459
0.149351
0.146364
0.199602
0.00540281
0.198945
0.00917697
0.198043
0.0126575
0.196896
0.0160187
0.195508
0.0193285
0.193876
0.0226325
0.191996
0.025969
0.189862
0.0293808
0.187466
0.0329024
0.184799
0.0365624
0.181844
0.0403926
0.178587
0.0444202
0.17501
0.0486745
0.171088
0.0531888
0.16679
0.0580007
0.162077
0.0631546
0.156909
0.0686935
0.151236
0.0746596
0.144988
0.0811157
0.138079
0.0881325
0.1304
0.095777
0.121818
0.10412
0.112172
0.113234
0.101295
0.123062
0.0889958
0.133472
0.0750529
0.144208
0.0592589
0.154616
0.0414577
0.163702
0.0216746
0.169134
0.168038
0.199617
0.00578348
0.198987
0.00980761
0.198125
0.0135235
0.197035
0.0171161
0.195719
0.0206555
0.194174
0.0241902
0.192395
0.0277613
0.190379
0.0314107
0.188118
0.0351747
0.185602
0.0390891
0.182817
0.0431849
0.179751
0.0474897
0.176387
0.0520394
0.172701
0.0568727
0.168664
0.0620325
0.164244
0.0675674
0.159405
0.0735236
0.154097
0.0799581
0.148254
0.0869489
0.141798
0.0945788
0.134627
0.102938
0.1266
0.112138
0.117576
0.122248
0.107376
0.133256
0.0957185
0.145124
0.0822498
0.157673
0.0664967
0.170367
0.0479215
0.182276
0.0260375
0.191017
0.194076
0.199633
0.00614663
0.199034
0.0104066
0.198217
0.0143439
0.197188
0.0181525
0.195948
0.0219057
0.194495
0.0256552
0.192826
0.0294437
0.190938
0.0333128
0.188822
0.0373034
0.186469
0.0414523
0.183872
0.0457899
0.181018
0.0503487
0.177892
0.0551678
0.174473
0.0602904
0.170739
0.065763
0.166664
0.0716357
0.162217
0.077963
0.157353
0.0848128
0.152023
0.0922697
0.146165
0.100428
0.139685
0.109408
0.132467
0.119346
0.124402
0.130304
0.115295
0.142355
0.10481
0.155603
0.0924494
0.17003
0.0773882
0.185425
0.058448
0.201215
0.0340382
0.215427
0.228114
0.199651
0.00649084
0.199085
0.0109709
0.198317
0.0151142
0.197353
0.0191239
0.196193
0.0230749
0.19484
0.0270211
0.193289
0.0310082
0.191535
0.0350805
0.189573
0.0392786
0.187399
0.0436372
0.185007
0.0481912
0.182383
0.052978
0.179518
0.0580361
0.176397
0.0634113
0.173004
0.0691536
0.169321
0.0753144
0.165324
0.0819531
0.160986
0.0891431
0.156274
0.0969723
0.151147
0.105546
0.145538
0.115007
0.139401
0.125472
0.132661
0.137034
0.12514
0.149868
0.11655
0.164187
0.106358
0.180217
0.0935245
0.198256
0.0761321
0.218606
0.0503415
0.241217
0.278455
0.199669
0.00681557
0.199138
0.0114987
0.198423
0.0158319
0.197526
0.0200266
0.196452
0.0241586
0.195202
0.0282831
0.193772
0.0324514
0.192158
0.0367083
0.190359
0.0410907
0.188373
0.0456351
0.186194
0.0503796
0.183816
0.0553632
0.181231
0.0606255
0.17843
0.0662134
0.175405
0.0721769
0.172149
0.0785676
0.16865
0.0854464
0.164899
0.0928872
0.160885
0.100978
0.156592
0.109831
0.152018
0.119572
0.147187
0.130293
0.142077
0.142134
0.13663
0.155308
0.130731
0.17008
0.1241
0.186844
0.116073
0.206281
0.104959
0.229719
0.0851414
0.261034
0.363597
0.00349764
-0.00349789
0.00755246
-0.00405593
0.0113207
-0.00377146
0.0146025
-0.00328816
0.0174075
-0.00281514
0.0197755
-0.00238214
0.0217447
-0.00198675
0.0233441
-0.00161957
0.0245853
-0.00126331
0.0254696
-0.000905268
0.0259935
-0.000541569
0.0261656
-0.00018714
0.0260298
0.000122721
0.0256605
0.00035839
0.0251476
0.000504591
0.0245845
0.000557647
0.024058
0.000524182
0.0236344
0.000424497
0.0233534
0.000285401
0.0232306
0.000130746
0.0232634
-2.14185e-05
0.0234277
-0.000149402
0.0236837
-0.0002379
0.0239976
-0.000292904
0.0243488
-0.000327387
0.0247254
-0.000350282
0.0251213
-0.000367416
0.0255371
-0.000385113
0.0259721
-0.000402294
-0.000398828
0.00349263
-0.00699079
0.00726412
-0.00782857
0.0108283
-0.00733887
0.0140126
-0.00647892
0.0168116
-0.00562435
0.0192633
-0.00484782
0.0214073
-0.00414816
0.0232733
-0.00350563
0.0248824
-0.00289415
0.0262494
-0.00229315
0.0273781
-0.00168791
0.0282556
-0.00107967
0.0288648
-0.000499602
0.029222
-9.73445e-06
0.0294
0.000318058
0.0294956
0.000456416
0.029588
0.00042929
0.0297309
0.000282402
0.029947
7.34923e-05
0.0302289
-0.000143365
0.0305498
-0.000330926
0.0308896
-0.000474508
0.0312425
-0.000572729
0.0316018
-0.000631212
0.0319594
-0.000661201
0.0323087
-0.000673418
0.0326463
-0.000676495
0.0329713
-0.000679505
0.03329
-0.000688291
-0.000653354
0.00326782
-0.0102589
0.00652929
-0.0110912
0.00949078
-0.0103036
0.0121154
-0.00910988
0.0144208
-0.00793977
0.0164438
-0.00688457
0.0182265
-0.00594782
0.0198046
-0.00510309
0.0212003
-0.004311
0.022433
-0.00354635
0.0235158
-0.00278821
0.0244627
-0.0020416
0.0252902
-0.00134046
0.0259972
-0.00072795
0.0265683
-0.000261797
0.0270231
-4.43118e-06
0.0274082
4.12193e-05
0.0277507
-5.97242e-05
0.0280565
-0.000228386
0.0283274
-0.000406873
0.028567
-0.000559451
0.028774
-0.000667073
0.0289449
-0.000725852
0.0290772
-0.000742661
0.0291691
-0.000729567
0.0292206
-0.000698775
0.0292337
-0.000661202
0.0292153
-0.000630605
0.0291854
-0.000625841
-0.000654273
0.00303299
-0.0132922
0.00573275
-0.0137922
0.00803083
-0.0126049
0.0100112
-0.0110964
0.0117224
-0.0096606
0.0132007
-0.008376
0.0144921
-0.00725539
0.0156386
-0.00626808
0.0166698
-0.0053625
0.017609
-0.00450541
0.0184715
-0.00366797
0.019267
-0.00285209
0.0200013
-0.00208835
0.0206848
-0.00142306
0.0213148
-0.000901118
0.0218591
-0.000555341
0.0222924
-0.000395688
0.0226149
-0.000382439
0.0228328
-0.00044301
0.0229467
-0.000513924
0.0229566
-0.000558795
0.0228702
-0.000566649
0.0227041
-0.000542393
0.022481
-0.000499094
0.0222263
-0.00045158
0.0219683
-0.00041492
0.0217316
-0.000396375
0.0215278
-0.000396496
0.0213718
-0.000437481
-0.000568426
0.00270222
-0.0159947
0.00477302
-0.0158642
0.00638471
-0.0142198
0.00768623
-0.0124038
0.0087436
-0.0107271
0.00960678
-0.00925152
0.0103392
-0.00800299
0.0109882
-0.00693456
0.0115822
-0.00597568
0.0121413
-0.00508362
0.0126833
-0.00422692
0.0132143
-0.00339814
0.0137296
-0.0026175
0.0142162
-0.0019218
0.0146564
-0.00135121
0.0150238
-0.000930074
0.0152893
-0.000665491
0.0154438
-0.000537913
0.0154973
-0.000493986
0.0154689
-0.000479291
0.0153798
-0.000459775
0.0152492
-0.000422543
0.0150925
-0.000368878
0.0149199
-0.000306466
0.0147352
-0.00024401
0.0145359
-0.000190099
0.014319
-0.000151618
0.0140879
-0.00013536
0.0138459
-0.000163277
-0.000397838
0.00223845
-0.0182334
0.00359594
-0.0172229
0.00449283
-0.0151197
0.0050851
-0.0130017
0.00546258
-0.0111131
0.00571448
-0.00951488
0.00589717
-0.00819978
0.00603964
-0.00709333
0.00616853
-0.00612258
0.00630561
-0.0052389
0.00647025
-0.00440815
0.00667256
-0.00361562
0.00691314
-0.00287226
0.00718459
-0.00220588
0.00747033
-0.00164755
0.00774913
-0.00121696
0.00799513
-0.000916607
0.00818583
-0.000730418
0.00831375
-0.00062013
0.0083818
-0.000541846
0.00839515
-0.000463904
0.00835708
-0.000371618
0.00826737
-0.000262876
0.00812221
-0.000141785
0.00791534
-1.46793e-05
0.00763919
0.000111159
0.00728898
0.000226087
0.00687666
0.000306694
0.00646391
0.000281392
-5.45424e-05
0.00160313
-0.0198368
0.00216228
-0.0177832
0.00232337
-0.0152837
0.00220101
-0.0128845
0.00194771
-0.0108676
0.00165235
-0.00923005
0.0013474
-0.00790783
0.00106068
-0.00682172
0.000819532
-0.00589825
0.000643092
-0.00507973
0.000547484
-0.00432875
0.000543648
-0.003627
0.000634098
-0.00297719
0.000810911
-0.00239585
0.00105284
-0.00190073
0.0013293
-0.00150226
0.0016025
-0.00119574
0.00183517
-0.000965711
0.00200309
-0.000787075
0.00209468
-0.00062872
0.00210737
-0.000468095
0.00204275
-0.000294807
0.00190272
-0.000107128
0.00168663
9.32756e-05
0.00138828
0.000305637
0.000996405
0.000527695
0.000505028
0.000744577
-6.22384e-05
0.000903362
-0.000625133
0.000875913
0.000534841
0.000793621
-0.0206307
0.000504463
-0.0174951
-0.000121195
-0.0146607
-0.000931331
-0.0120791
-0.0017377
-0.0100684
-0.00248766
-0.0084897
-0.00315964
-0.00724777
-0.00373478
-0.00626054
-0.00420008
-0.00544863
-0.00454917
-0.004747
-0.00477861
-0.00411512
-0.00488936
-0.00353146
-0.00488882
-0.00299246
-0.00479332
-0.00250495
-0.00462853
-0.0020774
-0.00442715
-0.00171318
-0.00422408
-0.0014055
-0.00405299
-0.00114021
-0.00394116
-0.000898718
-0.0039053
-0.000660626
-0.00395361
-0.000412004
-0.00408905
-0.00014784
-0.00431214
0.000131049
-0.00462585
0.000425388
-0.00503665
0.000737868
-0.00554704
0.00106226
-0.00614089
0.00136513
-0.00676459
0.00155611
-0.00735048
0.0014931
0.00119838
-0.000121069
-0.0205099
-0.00137195
-0.0162452
-0.00282548
-0.0132096
-0.00424834
-0.0106606
-0.00554374
-0.0087795
-0.00667479
-0.00736739
-0.00762818
-0.00630531
-0.00840958
-0.00549207
-0.00902782
-0.00484501
-0.00949401
-0.00429633
-0.0098219
-0.00380265
-0.0100245
-0.00334408
-0.0101163
-0.00291554
-0.0101164
-0.00251885
-0.01005
-0.00215621
-0.0099468
-0.0018265
-0.0098372
-0.0015225
-0.00975023
-0.00123132
-0.0097133
-0.000936207
-0.00974901
-0.000621684
-0.00987284
-0.000281099
-0.0100912
8.13606e-05
-0.0104055
0.000459791
-0.0108163
0.000853989
-0.0113188
0.00126125
-0.0118936
0.00166075
-0.0124961
0.00199396
-0.0130681
0.00215674
-0.0136012
0.00205707
0.00183749
-0.00110388
-0.0194063
-0.00344363
-0.0139064
-0.00575811
-0.0108974
-0.00781714
-0.00860557
-0.00958233
-0.00702024
-0.0110417
-0.00591601
-0.0122208
-0.00513629
-0.0131584
-0.00456644
-0.01389
-0.00412715
-0.0144456
-0.00375545
-0.0148534
-0.00340997
-0.0151353
-0.00307731
-0.0153091
-0.0027567
-0.0153939
-0.00244832
-0.0154138
-0.00214904
-0.0153967
-0.00185434
-0.0153696
-0.00155757
-0.0153598
-0.00124584
-0.0153955
-0.000901725
-0.0155016
-0.000513023
-0.0156949
-8.13735e-05
-0.0159821
0.000378682
-0.016362
0.000853521
-0.0168273
0.00133655
-0.0173626
0.00181692
-0.0179377
0.00225907
-0.0185054
0.00258746
-0.0190274
0.0027069
-0.0195304
0.00259065
0.00244265
-0.00237126
-0.0170352
-0.0058896
-0.010389
-0.00911249
-0.00767664
-0.0118129
-0.00590884
-0.0139943
-0.00484432
-0.0157149
-0.00420277
-0.0170564
-0.00380415
-0.0180964
-0.00353765
-0.0188973
-0.00333918
-0.0195076
-0.00315927
-0.0199675
-0.00296475
-0.0203067
-0.0027531
-0.0205434
-0.00253506
-0.020694
-0.00231211
-0.020781
-0.00207512
-0.0208307
-0.00181567
-0.0208692
-0.00152753
-0.0209218
-0.00119852
-0.0210145
-0.000810763
-0.021173
-0.000352583
-0.0214157
0.000167078
-0.0217494
0.000721995
-0.0221691
0.00128649
-0.0226594
0.00184347
-0.0231974
0.00237483
-0.0237516
0.00283596
-0.0242841
0.00314533
-0.0247753
0.0032258
-0.0252602
0.00310568
0.00301296
-0.0042651
-0.0127704
-0.00906883
-0.00558607
-0.0131891
-0.00355835
-0.0164228
-0.00267858
-0.0188907
-0.00238155
-0.0207466
-0.00235372
-0.0221429
-0.00241665
-0.023202
-0.0024892
-0.0240071
-0.00254644
-0.0246182
-0.00256179
-0.0250872
-0.00251002
-0.02545
-0.00240521
-0.0257185
-0.00228147
-0.0259004
-0.00214466
-0.0260161
-0.00197258
-0.0260966
-0.00174648
-0.0261691
-0.00146375
-0.0262542
-0.0011191
-0.0263742
-0.00069297
-0.0265562
-0.000169076
-0.0268242
0.000440297
-0.0271869
0.00109382
-0.0276328
0.00174505
-0.0281361
0.00236295
-0.0286677
0.00292575
-0.0291995
0.00338989
-0.0297066
0.00367729
-0.0301809
0.00372745
-0.0306514
0.00360588
0.00354689
-0.00732342
-0.00544716
-0.0138157
0.000905363
-0.0186148
0.0012388
-0.0219776
0.000680973
-0.0243637
-4.09461e-07
-0.0260851
-0.000638925
-0.0273459
-0.00116417
-0.0282973
-0.00154807
-0.0290182
-0.00183739
-0.0295566
-0.0020366
-0.0299748
-0.00210585
-0.0303164
-0.00207821
-0.0305784
-0.00203435
-0.0307503
-0.00198707
-0.0308536
-0.00188245
-0.0309306
-0.00168078
-0.0310106
-0.00139266
-0.0311053
-0.00103031
-0.0312304
-0.000570375
-0.031417
1.86144e-05
-0.0316981
0.000726294
-0.0320848
0.00148915
-0.032556
0.00222848
-0.0330723
0.00289491
-0.0335974
0.00346961
-0.0341098
0.00392398
-0.0346001
0.004192
-0.0350677
0.00422196
-0.0355288
0.00409623
0.00405112
-0.0122478
0.00680035
-0.0204597
0.00911637
-0.0254719
0.00624904
-0.028418
0.00362378
-0.030282
0.00185881
-0.0315263
0.000598914
-0.0324008
-0.000297817
-0.0330982
-0.000860559
-0.0336482
-0.00129903
-0.0340332
-0.00166436
-0.0343329
-0.00181988
-0.0346194
-0.001806
-0.0348583
-0.00181008
-0.0349971
-0.00186239
-0.0350563
-0.00183622
-0.0351053
-0.00164312
-0.0351805
-0.00132625
-0.0352768
-0.000940028
-0.0353952
-0.000454689
-0.035573
0.000197341
-0.0358603
0.00101815
-0.036273
0.00191006
-0.0367766
0.0027439
-0.0373115
0.003445
-0.0378314
0.00400778
-0.0383242
0.00443802
-0.0388007
0.00469246
-0.0392693
0.00471704
-0.0397304
0.0045861
0.0045382
-0.0182412
0.0250412
-0.027801
0.0186752
-0.0331245
0.0115704
-0.0346795
0.00517542
-0.0355424
0.00271687
-0.0363417
0.00139183
-0.0367973
0.000149723
-0.0371782
-0.000489386
-0.0375614
-0.000927162
-0.0377497
-0.00148856
-0.0378748
-0.00170817
-0.0381107
-0.00158413
-0.0383541
-0.0015809
-0.0384538
-0.00177648
-0.0384318
-0.00187094
-0.0384277
-0.00165822
-0.0384994
-0.00126327
-0.0386037
-0.000841585
-0.0387089
-0.000352231
-0.038862
0.000351152
-0.0391461
0.00130659
-0.03959
0.00236197
-0.0401393
0.0033046
-0.0407024
0.0040229
-0.0412164
0.00453967
-0.041682
0.00492447
-0.0421408
0.00517468
-0.0426177
0.00521993
-0.0430948
0.00509162
0.00502078
0.207339
0.00712803
0.20683
0.0120036
0.206147
0.0165156
0.205295
0.0208839
0.204279
0.0251849
0.203097
0.0294765
0.20175
0.033812
0.200238
0.0382351
0.198559
0.0427825
0.196715
0.0474924
0.194701
0.0524033
0.192519
0.0575536
0.190164
0.0629857
0.187635
0.0687453
0.184934
0.0748782
0.182064
0.0814347
0.179032
0.0884739
0.175848
0.0960649
0.172529
0.10429
0.169102
0.11325
0.165634
0.12303
0.162205
0.133712
0.158896
0.145433
0.155839
0.158356
0.153225
0.172688
0.151339
0.188725
0.150706
0.206911
0.152614
0.22781
0.16431
0.249338
0.264671
0.263235
0.21238
0.00742196
0.211903
0.0124747
0.211268
0.0171501
0.21048
0.021676
0.209543
0.0261309
0.208458
0.0305734
0.207227
0.0350563
0.205853
0.0396235
0.204337
0.0443124
0.202681
0.0491615
0.200887
0.0542087
0.198958
0.0594918
0.196898
0.0650524
0.194714
0.0709326
0.192421
0.0771731
0.190033
0.0838209
0.187575
0.0909287
0.185079
0.0985554
0.182594
0.106768
0.180198
0.11564
0.177998
0.125221
0.17613
0.13557
0.174792
0.146762
0.174275
0.158865
0.175032
0.171924
0.177812
0.185942
0.184057
0.200662
0.196525
0.215342
0.216801
0.229061
0.244264
0.237209
0.217546
0.00769393
0.217107
0.0129067
0.216526
0.0177287
0.21581
0.0223947
0.214963
0.026985
0.213989
0.0315591
0.212891
0.0361682
0.211673
0.0408558
0.210339
0.0456604
0.208895
0.0506193
0.207346
0.0557692
0.205701
0.0611467
0.203972
0.0667892
0.202176
0.0727335
0.200335
0.079016
0.198479
0.0856766
0.196649
0.0927573
0.194897
0.100303
0.193302
0.108359
0.191971
0.116964
0.191042
0.126142
0.190696
0.135906
0.191185
0.146263
0.192855
0.157186
0.196186
0.168587
0.201831
0.180292
0.210561
0.19193
0.222883
0.203018
0.238091
0.213852
0.223521
0.258835
0.222839
0.00794083
0.222443
0.0132944
0.221924
0.0182444
0.221288
0.0230315
0.220542
0.0277371
0.21969
0.0324209
0.218738
0.0371331
0.217692
0.0419163
0.216559
0.0468085
0.215346
0.0518456
0.214066
0.0570621
0.212731
0.0624916
0.211362
0.0681666
0.209983
0.0741183
0.208626
0.0803767
0.207332
0.0869718
0.206155
0.0939335
0.205166
0.101289
0.204459
0.109061
0.20416
0.117259
0.20442
0.125875
0.205435
0.134883
0.207449
0.144239
0.210775
0.153852
0.215791
0.163565
0.222919
0.173161
0.232491
0.182355
0.244753
0.190755
0.260412
0.198193
0.203029
0.280902
0.228262
0.00815961
0.227915
0.0136328
0.227464
0.0186905
0.226918
0.0235781
0.226282
0.0283773
0.225564
0.0331471
0.224771
0.0379374
0.223912
0.0427895
0.222995
0.0477397
0.222033
0.0528218
0.22104
0.0580672
0.220037
0.0635055
0.219049
0.069164
0.218107
0.0750671
0.217251
0.0812371
0.216532
0.0876935
0.216013
0.0944526
0.215776
0.101525
0.215924
0.10891
0.216585
0.116593
0.217909
0.124546
0.220072
0.132714
0.223298
0.141005
0.227848
0.149295
0.233992
0.157415
0.241991
0.165158
0.252066
0.172278
0.26442
0.178398
0.279363
0.183249
0.185898
0.296494
0.233819
0.00834721
0.233525
0.0139171
0.233149
0.0190604
0.2327
0.0240261
0.232184
0.0288959
0.231611
0.0337274
0.230989
0.038569
0.23033
0.0434614
0.229644
0.0484388
0.228948
0.0535318
0.22826
0.0587682
0.227605
0.0641726
0.227012
0.0697666
0.226519
0.0755678
0.226171
0.0815901
0.226026
0.0878424
0.226152
0.094328
0.226634
0.101042
0.227576
0.107966
0.229098
0.115068
0.231337
0.122303
0.234453
0.129592
0.238635
0.136816
0.244073
0.143851
0.250937
0.150546
0.259381
0.156711
0.269523
0.162133
0.281378
0.166541
0.294899
0.169727
0.171049
0.309746
0.239513
0.00850069
0.239275
0.0141426
0.238981
0.0193479
0.238637
0.024368
0.238251
0.0292838
0.237832
0.0341515
0.237392
0.0390176
0.236944
0.0439208
0.236501
0.0488933
0.236084
0.0539627
0.235712
0.0591525
0.235415
0.0644819
0.235225
0.0699664
0.235184
0.075617
0.235341
0.0814391
0.235756
0.087432
0.236499
0.0935876
0.237653
0.0998882
0.239314
0.106304
0.24159
0.112791
0.244604
0.119286
0.248496
0.125695
0.253398
0.13191
0.259427
0.137817
0.26669
0.143279
0.275262
0.148135
0.28517
0.152222
0.296354
0.155355
0.308708
0.157372
0.157748
0.322008
0.245346
0.00861722
0.24517
0.0143049
0.244962
0.0195473
0.244729
0.0245968
0.244481
0.0295331
0.244226
0.0344106
0.243977
0.0392736
0.243749
0.0441584
0.243559
0.0490945
0.243428
0.0541061
0.24338
0.0592126
0.243445
0.0644282
0.24366
0.0697623
0.244066
0.0752193
0.244715
0.0807972
0.245665
0.0864868
0.246985
0.0922709
0.248753
0.0981224
0.251054
0.104004
0.253979
0.109864
0.257635
0.115629
0.262124
0.121202
0.267533
0.126498
0.273934
0.131414
0.281381
0.135829
0.289896
0.139617
0.29946
0.142655
0.309995
0.144819
0.321374
0.145991
0.145748
0.333372
0.251322
0.00869418
0.251211
0.0144001
0.251095
0.0196536
0.25098
0.0247066
0.250875
0.0296371
0.250791
0.0344974
0.250741
0.0393294
0.250741
0.0441667
0.25081
0.0490358
0.250969
0.0539573
0.251247
0.0589462
0.251673
0.0640123
0.252286
0.0691597
0.253127
0.0743867
0.254247
0.0796853
0.255699
0.0850398
0.257549
0.0904251
0.259866
0.0958085
0.262723
0.101148
0.266196
0.106391
0.270365
0.11146
0.275301
0.116265
0.281056
0.12074
0.287669
0.124798
0.29516
0.128336
0.303516
0.131258
0.312693
0.133476
0.322602
0.134908
0.333109
0.135482
0.134852
0.344004
0.257443
0.00872923
0.257402
0.0144247
0.257381
0.0196625
0.257388
0.0246924
0.257432
0.0295905
0.257525
0.0344066
0.257679
0.0391799
0.257911
0.0439412
0.258242
0.0487139
0.258694
0.053515
0.259295
0.0583557
0.260076
0.0632411
0.261074
0.0681708
0.262331
0.073138
0.263893
0.0781311
0.265809
0.0831298
0.268137
0.0881022
0.270936
0.0930125
0.274268
0.0978182
0.278194
0.102467
0.282767
0.106888
0.288025
0.111006
0.294002
0.114763
0.300714
0.118085
0.308154
0.120894
0.316291
0.12312
0.325065
0.124701
0.334384
0.125587
0.344124
0.12574
0.124871
0.354103
0.263714
0.00872035
0.263744
0.0143758
0.263822
0.0195704
0.263955
0.0245504
0.264152
0.0293893
0.264424
0.0341344
0.264785
0.038822
0.265252
0.04348
0.265844
0.0481288
0.266586
0.0527819
0.267504
0.0574468
0.268629
0.0621252
0.269996
0.0668126
0.271643
0.0714985
0.273614
0.0761676
0.275953
0.0807967
0.278708
0.0853523
0.281927
0.0897978
0.285657
0.0940914
0.289944
0.0981821
0.294821
0.102013
0.300305
0.105523
0.306412
0.108656
0.313141
0.111355
0.320471
0.113564
0.328356
0.115233
0.336732
0.116323
0.345512
0.116806
0.354587
0.116664
0.115655
0.363802
0.270137
0.00866597
0.27024
0.0142513
0.27042
0.0193748
0.270682
0.0242779
0.271034
0.0290312
0.271487
0.0336791
0.272055
0.038255
0.272755
0.042784
0.273606
0.0472833
0.274632
0.0517637
0.275857
0.0562294
0.277312
0.060679
0.279027
0.0651051
0.281038
0.0694948
0.283383
0.0738296
0.286101
0.0780846
0.28923
0.0822286
0.292805
0.0862264
0.296863
0.0900379
0.30143
0.0936179
0.306526
0.0969187
0.31216
0.0998909
0.318331
0.102487
0.325022
0.104664
0.332203
0.106383
0.339826
0.107611
0.347824
0.108325
0.356119
0.108511
0.364616
0.108165
0.107085
0.373185
0.276715
0.00856468
0.276894
0.0140493
0.277176
0.0190739
0.277568
0.0238733
0.278076
0.028515
0.278711
0.0330405
0.279485
0.0374801
0.280415
0.0418562
0.281519
0.0461832
0.282819
0.0504693
0.284339
0.0547161
0.286105
0.0589199
0.288146
0.0630712
0.290492
0.0671556
0.293175
0.0711533
0.296225
0.0750399
0.299673
0.0787858
0.303545
0.0823583
0.307865
0.0857216
0.312648
0.0888375
0.317903
0.091667
0.323627
0.0941696
0.329809
0.0963075
0.336424
0.0980504
0.343436
0.0993718
0.350796
0.100252
0.358442
0.100678
0.366303
0.100649
0.374299
0.100169
0.099064
0.38232
0.283452
0.00841546
0.283707
0.013769
0.284093
0.018667
0.284615
0.0233364
0.285278
0.0278414
0.286092
0.0322203
0.287069
0.0365007
0.288223
0.0407022
0.289572
0.0448368
0.291135
0.0489104
0.292934
0.0529228
0.294991
0.0568684
0.297331
0.0607367
0.29998
0.0645125
0.302963
0.0681763
0.306303
0.0717048
0.310022
0.075071
0.314139
0.0782458
0.318666
0.0811979
0.323611
0.0838956
0.328972
0.0863089
0.33474
0.0884052
0.340895
0.0901552
0.347408
0.0915387
0.354242
0.0925394
0.361348
0.0931465
0.36867
0.0933564
0.376146
0.0931735
0.383706
0.0926077
0.0915107
0.391259
0.290352
0.00821773
0.290683
0.01341
0.291173
0.0181542
0.291823
0.0226681
0.29264
0.0270123
0.29363
0.031222
0.294803
0.0353221
0.296174
0.0393296
0.297757
0.0432546
0.299568
0.047101
0.301627
0.0508672
0.303953
0.0545465
0.306567
0.0581281
0.309487
0.061597
0.312733
0.0649345
0.316323
0.0681194
0.32027
0.0711277
0.324586
0.0739341
0.329274
0.0765124
0.334335
0.0788378
0.339761
0.0808864
0.345537
0.0826325
0.351639
0.0840558
0.358036
0.0851438
0.36469
0.0858872
0.371555
0.0862822
0.378581
0.0863307
0.385713
0.0860413
0.392894
0.0854267
0.0843593
0.400045
0.297417
0.00797131
0.297824
0.0129727
0.298416
0.0175365
0.299194
0.0218704
0.30016
0.026031
0.30132
0.0300506
0.302684
0.0339513
0.304262
0.0377479
0.306066
0.0414488
0.308111
0.0450564
0.310411
0.048568
0.312983
0.0519769
0.315843
0.0552721
0.319004
0.0584394
0.32248
0.0614618
0.326282
0.0643204
0.330418
0.0669946
0.334892
0.0694629
0.339703
0.0717042
0.344843
0.0736999
0.350302
0.0754308
0.35606
0.0768773
0.362092
0.0780271
0.368364
0.0788733
0.374841
0.0794118
0.381481
0.0796434
0.388238
0.0795738
0.395066
0.0792137
0.401915
0.0785773
0.0775544
0.408719
0.304652
0.00767637
0.305133
0.0124581
0.305826
0.016816
0.306727
0.0209465
0.307839
0.0249021
0.309163
0.0287122
0.310709
0.0323965
0.312482
0.0359677
0.314495
0.0394326
0.316756
0.0427927
0.319279
0.0460448
0.322074
0.0491821
0.325154
0.0521943
0.328526
0.0550684
0.332201
0.0577894
0.336182
0.0603409
0.340473
0.0627055
0.345072
0.0648659
0.349973
0.0668052
0.355165
0.06851
0.360632
0.0699657
0.366354
0.071158
0.372303
0.0720802
0.378449
0.0727295
0.384756
0.0731059
0.391187
0.0732133
0.397701
0.0730596
0.404258
0.0726566
0.410816
0.0720184
0.0710499
0.41732
0.312061
0.0073334
0.312615
0.0118676
0.313405
0.0159953
0.314426
0.0199001
0.315677
0.023631
0.317159
0.0272141
0.318876
0.0306669
0.320835
0.0340003
0.323041
0.03722
0.325503
0.0403265
0.328228
0.0433168
0.331225
0.0461841
0.334499
0.0489192
0.338057
0.0515106
0.341902
0.0539454
0.346034
0.0562096
0.35045
0.0582893
0.355146
0.0601706
0.360111
0.0618406
0.365331
0.0632903
0.37079
0.0645091
0.376464
0.0654865
0.382325
0.06622
0.388346
0.0667102
0.394492
0.0669598
0.400731
0.0669747
0.407026
0.0667639
0.413343
0.0663393
0.419645
0.0657147
0.0648079
0.425887
0.319646
0.00694316
0.320272
0.0112033
0.321156
0.0150773
0.322292
0.0187359
0.323677
0.0222237
0.325308
0.0255641
0.327188
0.0287723
0.329318
0.0318577
0.331705
0.0348249
0.33435
0.0376742
0.33726
0.0404023
0.340437
0.0430034
0.343884
0.0454691
0.347603
0.0477896
0.351593
0.0499542
0.35585
0.0519514
0.360368
0.05377
0.365138
0.0553995
0.370147
0.0568304
0.37538
0.0580571
0.380817
0.0590726
0.386436
0.0598692
0.392209
0.0604473
0.398109
0.0608101
0.404107
0.0609619
0.410171
0.0609098
0.416271
0.0606632
0.422375
0.0602337
0.428454
0.0596344
0.0587943
0.434466
0.327414
0.00650657
0.328108
0.0104673
0.329083
0.0140657
0.330329
0.0174587
0.33184
0.0206867
0.333613