/*--------------------------------*- C++ -*----------------------------------*\
| =========                 |                                                 |
| \\      /  F ield         | OpenFOAM: The Open Source CFD Toolbox           |
|  \\    /   O peration     | Version:  dev                                   |
|   \\  /    A nd           | Web:      www.OpenFOAM.org                      |
|    \\/     M anipulation  |                                                 |
\*---------------------------------------------------------------------------*/
FoamFile
{
    version     2.0;
    format      ascii;
    class       pointVectorField;
    location    "2.07";
    object      pointDisplacement;
}
// * * * * * * * * * * * * * * * * * * * * * * * * * * * * * * * * * * * * * //

dimensions      [0 1 0 0 0 0 0];

internalField   nonuniform List<vector> 
1034
(
(0.387721 0 0)
(0.394388 0 0)
(0.397371 0 0)
(0.397251 0 0)
(0.394389 0 0)
(0.388982 0 0)
(0.381138 0 0)
(0.370903 0 0)
(0.358281 0 0)
(0.343249 0 0)
(0.325762 0 0)
(0.30576 0 0)
(0.283172 0 0)
(0.257921 0 0)
(0.229922 0 0)
(0.199088 0 0)
(0.165332 0 0)
(0.128566 0 0)
(0.0887119 0 0)
(0.0456266 0 0)
(0 0 0)
(0.388473 0 -0.0192743)
(0.394982 0 -0.0181123)
(0.397849 0 -0.0168758)
(0.397644 0 -0.0156601)
(0.394715 0 -0.0145069)
(0.389255 0 -0.0134114)
(0.381368 0 -0.0123735)
(0.371097 0 -0.0113902)
(0.358447 0 -0.0104566)
(0.343391 0 -0.00956607)
(0.325884 0 -0.00871137)
(0.305865 0 -0.00788437)
(0.283264 0 -0.00707637)
(0.258001 0 -0.00627814)
(0.229993 0 -0.00547976)
(0.199151 0 -0.00467051)
(0.165387 0 -0.00383861)
(0.128614 0 -0.0029708)
(0.0887516 0 -0.00205206)
(0.0456553 0 -0.00106298)
(0 0 0)
(0.390697 0 -0.0376795)
(0.396737 0 -0.035398)
(0.399257 0 -0.0330291)
(0.398795 0 -0.0307065)
(0.395665 0 -0.0284819)
(0.390044 0 -0.0263618)
(0.382027 0 -0.0243477)
(0.371651 0 -0.022435)
(0.358913 0 -0.0206146)
(0.343785 0 -0.0188745)
(0.326219 0 -0.0172009)
(0.306151 0 -0.0155782)
(0.283508 0 -0.0139899)
(0.258211 0 -0.0124182)
(0.230172 0 -0.0108437)
(0.199304 0 -0.00924565)
(0.165517 0 -0.007601)
(0.12872 0 -0.00588383)
(0.0888316 0 -0.00406471)
(0.0457016 0 -0.00210557)
(0 0 0)
(0.394283 0 -0.054903)
(0.399569 0 -0.0515923)
(0.401535 0 -0.0482193)
(0.400653 0 -0.0449097)
(0.397193 0 -0.0417196)
(0.39131 0 -0.0386686)
(0.383081 0 -0.0357611)
(0.372531 0 -0.0329917)
(0.359651 0 -0.0303483)
(0.344406 0 -0.0278146)
(0.326742 0 -0.0253711)
(0.306594 0 -0.0229962)
(0.283884 0 -0.0206662)
(0.258531 0 -0.0183555)
(0.230445 0 -0.0160364)
(0.199536 0 -0.0136787)
(0.165711 0 -0.011249)
(0.128876 0 -0.00870946)
(0.0889477 0 -0.00601723)
(0.0457676 0 -0.00311682)
(0 0 0)
(0.399075 0 -0.0709106)
(0.40337 0 -0.0666792)
(0.404599 0 -0.0624143)
(0.403149 0 -0.058225)
(0.399243 0 -0.0541733)
(0.393003 0 -0.0502858)
(0.384485 0 -0.0465693)
(0.373699 0 -0.0430181)
(0.360626 0 -0.0396179)
(0.345221 0 -0.036349)
(0.327425 0 -0.0331875)
(0.307167 0 -0.0301062)
(0.284367 0 -0.0270756)
(0.258938 0 -0.0240632)
(0.230789 0 -0.0210338)
(0.199824 0 -0.0179485)
(0.165949 0 -0.0147644)
(0.129067 0 -0.0114329)
(0.0890867 0 -0.00789893)
(0.0458452 0 -0.00409089)
(0 0 0)
(0.404868 0 -0.0856426)
(0.407992 0 -0.0806163)
(0.408333 0 -0.0755699)
(0.406192 0 -0.0706101)
(0.401739 0 -0.065801)
(0.39506 0 -0.0611725)
(0.386186 0 -0.0567331)
(0.375109 0 -0.0524768)
(0.361795 0 -0.0483882)
(0.346193 0 -0.0444448)
(0.328234 0 -0.0406191)
(0.307842 0 -0.0368798)
(0.28493 0 -0.0331921)
(0.259409 0 -0.0295176)
(0.231182 0 -0.0258144)
(0.200151 0 -0.0220362)
(0.166217 0 -0.0181313)
(0.129277 0 -0.0140415)
(0.0892379 0 -0.0097006)
(0.0459281 0 -0.00502282)
(0 0 0)
(0.411439 0 -0.0990712)
(0.413264 0 -0.0933727)
(0.412604 0 -0.0876581)
(0.409676 0 -0.082037)
(0.404595 0 -0.0765736)
(0.397409 0 -0.0712993)
(0.388122 0 -0.0662232)
(0.376707 0 -0.0613394)
(0.363115 0 -0.0566316)
(0.347284 0 -0.0520755)
(0.329135 0 -0.0476411)
(0.308587 0 -0.0432936)
(0.285546 0 -0.0389938)
(0.259918 0 -0.0346987)
(0.231603 0 -0.0303603)
(0.200497 0 -0.0259258)
(0.166495 0 -0.0213359)
(0.129494 0 -0.0165241)
(0.0893913 0 -0.0114144)
(0.0460111 0 -0.00590844)
(0 0 0)
(0.418549 0 -0.111202)
(0.419 0 -0.104938)
(0.417264 0 -0.098666)
(0.413482 0 -0.0924905)
(0.407714 0 -0.0864743)
(0.399971 0 -0.0806478)
(0.390228 0 -0.0750202)
(0.378438 0 -0.0695858)
(0.364538 0 -0.064328)
(0.348451 0 -0.0592214)
(0.330092 0 -0.0542341)
(0.30937 0 -0.0493288)
(0.286186 0 -0.0444633)
(0.260441 0 -0.0395901)
(0.232029 0 -0.0346568)
(0.200842 0 -0.0296043)
(0.16677 0 -0.0243672)
(0.129704 0 -0.0188718)
(0.0895381 0 -0.0130341)
(0.0460896 0 -0.0067444)
(0 0 0)
(0.42595 0 -0.122037)
(0.425003 0 -0.115316)
(0.422158 0 -0.108593)
(0.417485 0 -0.101968)
(0.410995 0 -0.0954976)
(0.402662 0 -0.0892097)
(0.392434 0 -0.0831136)
(0.380244 0 -0.0772039)
(0.366012 0 -0.0714641)
(0.349652 0 -0.0658684)
(0.331067 0 -0.060384)
(0.310159 0 -0.0549718)
(0.286823 0 -0.049587)
(0.260954 0 -0.0441794)
(0.232442 0 -0.0386922)
(0.201171 0 -0.0330614)
(0.167027 0 -0.0272161)
(0.129896 0 -0.0210775)
(0.0896703 0 -0.0145545)
(0.0461596 0 -0.00752817)
(0 0 0)
(0.433404 0 -0.131595)
(0.431083 0 -0.124522)
(0.427131 0 -0.117452)
(0.42156 0 -0.110478)
(0.414337 0 -0.103649)
(0.405398 0 -0.096987)
(0.39467 0 -0.0905018)
(0.382065 0 -0.0841894)
(0.367489 0 -0.0780336)
(0.350844 0 -0.072009)
(0.332023 0 -0.0660822)
(0.310922 0 -0.0602133)
(0.287428 0 -0.0543559)
(0.261432 0 -0.0484574)
(0.232819 0 -0.0424584)
(0.201467 0 -0.0362894)
(0.167251 0 -0.0298757)
(0.130058 0 -0.0231356)
(0.089781 0 -0.0159721)
(0.0462184 0 -0.00825806)
(0 0 0)
(0.440688 0 -0.139905)
(0.437057 0 -0.132584)
(0.432032 0 -0.125265)
(0.425578 0 -0.118029)
(0.417628 0 -0.110926)
(0.408088 0 -0.103972)
(0.396858 0 -0.0971728)
(0.383836 0 -0.0905273)
(0.368913 0 -0.0840198)
(0.351979 0 -0.0776253)
(0.33292 0 -0.0713107)
(0.311623 0 -0.0650355)
(0.287971 0 -0.0587527)
(0.261848 0 -0.0524082)
(0.233142 0 -0.0459419)
(0.201717 0 -0.03928)
(0.167431 0 -0.0323413)
(0.130181 0 -0.0250424)
(0.0898649 0 -0.0172848)
(0.0462653 0 -0.00893333)
(0 0 0)
(0.447588 0 -0.146988)
(0.442742 0 -0.13952)
(0.436712 0 -0.132048)
(0.429417 0 -0.124634)
(0.420765 0 -0.11733)
(0.410641 0 -0.110156)
(0.398923 0 -0.103115)
(0.385492 0 -0.0962038)
(0.370228 0 -0.0894071)
(0.35301 0 -0.0827009)
(0.333717 0 -0.0760526)
(0.312227 0 -0.0694219)
(0.288419 0 -0.0627614)
(0.262172 0 -0.0560164)
(0.233369 0 -0.0491258)
(0.201871 0 -0.0420159)
(0.167533 0 -0.0346003)
(0.130247 0 -0.0267901)
(0.0899154 0 -0.0184882)
(0.0463043 0 -0.00955366)
(0 0 0)
(0.453902 0 -0.15287)
(0.447965 0 -0.145349)
(0.441025 0 -0.137813)
(0.432964 0 -0.130313)
(0.423661 0 -0.122891)
(0.412987 0 -0.11557)
(0.400805 0 -0.108355)
(0.386983 0 -0.101241)
(0.371392 0 -0.0942147)
(0.353901 0 -0.0872518)
(0.334381 0 -0.0803212)
(0.312706 0 -0.0733834)
(0.288749 0 -0.066391)
(0.262383 0 -0.0592892)
(0.233483 0 -0.0520151)
(0.201914 0 -0.0444961)
(0.16754 0 -0.0366463)
(0.130238 0 -0.0283723)
(0.0898982 0 -0.0195735)
(0.0462914 0 -0.010109)
(0 0 0)
(0.45948 0 -0.157606)
(0.452604 0 -0.150126)
(0.444866 0 -0.142613)
(0.436124 0 -0.13511)
(0.426237 0 -0.12765)
(0.415061 0 -0.120254)
(0.402451 0 -0.112928)
(0.388266 0 -0.105671)
(0.372367 0 -0.0984691)
(0.354619 0 -0.0913008)
(0.334887 0 -0.084136)
(0.313038 0 -0.0769364)
(0.288943 0 -0.0696555)
(0.262469 0 -0.0622387)
(0.233487 0 -0.0546227)
(0.201862 0 -0.0467345)
(0.16746 0 -0.0384899)
(0.130151 0 -0.0297947)
(0.0898112 0 -0.0205447)
(0.0462238 0 -0.0106009)
(0 0 0)
(0.464216 0 -0.161268)
(0.456568 0 -0.153925)
(0.448156 0 -0.146517)
(0.438827 0 -0.139081)
(0.428428 0 -0.131648)
(0.416805 0 -0.124239)
(0.40381 0 -0.116861)
(0.389294 0 -0.109514)
(0.373115 0 -0.102187)
(0.355132 0 -0.0948609)
(0.335205 0 -0.087507)
(0.313199 0 -0.0800887)
(0.28898 0 -0.0725608)
(0.262414 0 -0.0648695)
(0.233366 0 -0.0569521)
(0.201702 0 -0.0487361)
(0.167287 0 -0.0401384)
(0.129989 0 -0.0310651)
(0.0896766 0 -0.0214116)
(0.0461398 0 -0.0110403)
(0 0 0)
(0.475783 0 -0.170936)
(0.468074 0 -0.163967)
(0.459816 0 -0.156844)
(0.450854 0 -0.149612)
(0.441033 0 -0.142307)
(0.430195 0 -0.13496)
(0.418184 0 -0.127591)
(0.404849 0 -0.120212)
(0.390039 0 -0.112823)
(0.373609 0 -0.105417)
(0.355414 0 -0.0979756)
(0.335314 0 -0.0904734)
(0.313169 0 -0.0828755)
(0.288844 0 -0.0751382)
(0.262201 0 -0.0672094)
(0.233105 0 -0.0590274)
(0.201421 0 -0.050521)
(0.167013 0 -0.0416083)
(0.129746 0 -0.0321966)
(0.0894881 0 -0.0221827)
(0.0460326 0 -0.0114311)
(0 0 0)
(0.387721 0 0)
(0.394388 0 0)
(0.397371 0 0)
(0.397251 0 0)
(0.394389 0 0)
(0.388982 0 0)
(0.381138 0 0)
(0.370903 0 0)
(0.358281 0 0)
(0.343249 0 0)
(0.325762 0 0)
(0.30576 0 0)
(0.283172 0 0)
(0.257921 0 0)
(0.229922 0 0)
(0.199088 0 0)
(0.165332 0 0)
(0.128566 0 0)
(0.0887119 0 0)
(0.0456266 0 0)
(0 0 0)
(0.388473 0 -0.0192743)
(0.394982 0 -0.0181123)
(0.397849 0 -0.0168758)
(0.397644 0 -0.0156601)
(0.394715 0 -0.0145069)
(0.389255 0 -0.0134114)
(0.381368 0 -0.0123735)
(0.371097 0 -0.0113902)
(0.358447 0 -0.0104566)
(0.343391 0 -0.00956607)
(0.325884 0 -0.00871137)
(0.305865 0 -0.00788437)
(0.283264 0 -0.00707637)
(0.258001 0 -0.00627814)
(0.229993 0 -0.00547976)
(0.199151 0 -0.00467051)
(0.165387 0 -0.00383861)
(0.128614 0 -0.0029708)
(0.0887516 0 -0.00205206)
(0.0456553 0 -0.00106298)
(0 0 0)
(0.390697 0 -0.0376795)
(0.396737 0 -0.035398)
(0.399257 0 -0.0330291)
(0.398795 0 -0.0307065)
(0.395665 0 -0.0284819)
(0.390044 0 -0.0263618)
(0.382027 0 -0.0243477)
(0.371651 0 -0.022435)
(0.358913 0 -0.0206146)
(0.343785 0 -0.0188745)
(0.326219 0 -0.0172009)
(0.306151 0 -0.0155782)
(0.283508 0 -0.0139899)
(0.258211 0 -0.0124182)
(0.230172 0 -0.0108437)
(0.199304 0 -0.00924565)
(0.165517 0 -0.007601)
(0.12872 0 -0.00588383)
(0.0888316 0 -0.00406471)
(0.0457016 0 -0.00210557)
(0 0 0)
(0.394283 0 -0.054903)
(0.399569 0 -0.0515923)
(0.401535 0 -0.0482193)
(0.400653 0 -0.0449097)
(0.397193 0 -0.0417196)
(0.39131 0 -0.0386686)
(0.383081 0 -0.0357611)
(0.372531 0 -0.0329917)
(0.359651 0 -0.0303483)
(0.344406 0 -0.0278146)
(0.326742 0 -0.0253711)
(0.306594 0 -0.0229962)
(0.283884 0 -0.0206662)
(0.258531 0 -0.0183555)
(0.230445 0 -0.0160364)
(0.199536 0 -0.0136787)
(0.165711 0 -0.011249)
(0.128876 0 -0.00870946)
(0.0889477 0 -0.00601723)
(0.0457676 0 -0.00311682)
(0 0 0)
(0.399075 0 -0.0709106)
(0.40337 0 -0.0666792)
(0.404599 0 -0.0624143)
(0.403149 0 -0.058225)
(0.399243 0 -0.0541733)
(0.393003 0 -0.0502858)
(0.384485 0 -0.0465693)
(0.373699 0 -0.0430181)
(0.360626 0 -0.0396179)
(0.345221 0 -0.036349)
(0.327425 0 -0.0331875)
(0.307167 0 -0.0301062)
(0.284367 0 -0.0270756)
(0.258938 0 -0.0240632)
(0.230789 0 -0.0210338)
(0.199824 0 -0.0179485)
(0.165949 0 -0.0147644)
(0.129067 0 -0.0114329)
(0.0890867 0 -0.00789893)
(0.0458452 0 -0.00409089)
(0 0 0)
(0.404868 0 -0.0856426)
(0.407992 0 -0.0806163)
(0.408333 0 -0.0755699)
(0.406192 0 -0.0706101)
(0.401739 0 -0.065801)
(0.39506 0 -0.0611725)
(0.386186 0 -0.0567331)
(0.375109 0 -0.0524768)
(0.361795 0 -0.0483882)
(0.346193 0 -0.0444448)
(0.328234 0 -0.0406191)
(0.307842 0 -0.0368798)
(0.28493 0 -0.0331921)
(0.259409 0 -0.0295176)
(0.231182 0 -0.0258144)
(0.200151 0 -0.0220362)
(0.166217 0 -0.0181313)
(0.129277 0 -0.0140415)
(0.0892379 0 -0.0097006)
(0.0459281 0 -0.00502282)
(0 0 0)
(0.411439 0 -0.0990712)
(0.413264 0 -0.0933727)
(0.412604 0 -0.0876581)
(0.409676 0 -0.082037)
(0.404595 0 -0.0765736)
(0.397409 0 -0.0712993)
(0.388122 0 -0.0662232)
(0.376707 0 -0.0613394)
(0.363115 0 -0.0566316)
(0.347284 0 -0.0520755)
(0.329135 0 -0.0476411)
(0.308587 0 -0.0432936)
(0.285546 0 -0.0389938)
(0.259918 0 -0.0346987)
(0.231603 0 -0.0303603)
(0.200497 0 -0.0259258)
(0.166495 0 -0.0213359)
(0.129494 0 -0.0165241)
(0.0893913 0 -0.0114144)
(0.0460111 0 -0.00590844)
(0 0 0)
(0.418549 0 -0.111202)
(0.419 0 -0.104938)
(0.417264 0 -0.098666)
(0.413482 0 -0.0924905)
(0.407714 0 -0.0864743)
(0.399971 0 -0.0806478)
(0.390228 0 -0.0750202)
(0.378438 0 -0.0695858)
(0.364538 0 -0.064328)
(0.348451 0 -0.0592214)
(0.330092 0 -0.0542341)
(0.30937 0 -0.0493288)
(0.286186 0 -0.0444633)
(0.260441 0 -0.0395901)
(0.232029 0 -0.0346568)
(0.200842 0 -0.0296043)
(0.16677 0 -0.0243672)
(0.129704 0 -0.0188718)
(0.0895381 0 -0.0130341)
(0.0460896 0 -0.0067444)
(0 0 0)
(0.42595 0 -0.122037)
(0.425003 0 -0.115316)
(0.422158 0 -0.108593)
(0.417485 0 -0.101968)
(0.410995 0 -0.0954976)
(0.402662 0 -0.0892097)
(0.392434 0 -0.0831136)
(0.380244 0 -0.0772039)
(0.366012 0 -0.0714641)
(0.349652 0 -0.0658684)
(0.331067 0 -0.060384)
(0.310159 0 -0.0549718)
(0.286823 0 -0.049587)
(0.260954 0 -0.0441794)
(0.232442 0 -0.0386922)
(0.201171 0 -0.0330614)
(0.167027 0 -0.0272161)
(0.129896 0 -0.0210775)
(0.0896703 0 -0.0145545)
(0.0461596 0 -0.00752817)
(0 0 0)
(0.433404 0 -0.131595)
(0.431083 0 -0.124522)
(0.427131 0 -0.117452)
(0.42156 0 -0.110478)
(0.414337 0 -0.103649)
(0.405398 0 -0.096987)
(0.39467 0 -0.0905018)
(0.382065 0 -0.0841894)
(0.367489 0 -0.0780336)
(0.350844 0 -0.072009)
(0.332023 0 -0.0660822)
(0.310922 0 -0.0602133)
(0.287428 0 -0.0543559)
(0.261432 0 -0.0484574)
(0.232819 0 -0.0424584)
(0.201467 0 -0.0362894)
(0.167251 0 -0.0298757)
(0.130058 0 -0.0231356)
(0.089781 0 -0.0159721)
(0.0462184 0 -0.00825806)
(0 0 0)
(0.440688 0 -0.139905)
(0.437057 0 -0.132584)
(0.432032 0 -0.125265)
(0.425578 0 -0.118029)
(0.417628 0 -0.110926)
(0.408088 0 -0.103972)
(0.396858 0 -0.0971728)
(0.383836 0 -0.0905273)
(0.368913 0 -0.0840198)
(0.351979 0 -0.0776253)
(0.33292 0 -0.0713107)
(0.311623 0 -0.0650355)
(0.287971 0 -0.0587527)
(0.261848 0 -0.0524082)
(0.233142 0 -0.0459419)
(0.201717 0 -0.03928)
(0.167431 0 -0.0323413)
(0.130181 0 -0.0250424)
(0.0898649 0 -0.0172848)
(0.0462653 0 -0.00893333)
(0 0 0)
(0.447588 0 -0.146988)
(0.442742 0 -0.13952)
(0.436712 0 -0.132048)
(0.429417 0 -0.124634)
(0.420765 0 -0.11733)
(0.410641 0 -0.110156)
(0.398923 0 -0.103115)
(0.385492 0 -0.0962038)
(0.370228 0 -0.0894071)
(0.35301 0 -0.0827009)
(0.333717 0 -0.0760526)
(0.312227 0 -0.0694219)
(0.288419 0 -0.0627614)
(0.262172 0 -0.0560164)
(0.233369 0 -0.0491258)
(0.201871 0 -0.0420159)
(0.167533 0 -0.0346003)
(0.130247 0 -0.0267901)
(0.0899154 0 -0.0184882)
(0.0463043 0 -0.00955366)
(0 0 0)
(0.453902 0 -0.15287)
(0.447965 0 -0.145349)
(0.441025 0 -0.137813)
(0.432964 0 -0.130313)
(0.423661 0 -0.122891)
(0.412987 0 -0.11557)
(0.400805 0 -0.108355)
(0.386983 0 -0.101241)
(0.371392 0 -0.0942147)
(0.353901 0 -0.0872518)
(0.334381 0 -0.0803212)
(0.312706 0 -0.0733834)
(0.288749 0 -0.066391)
(0.262383 0 -0.0592892)
(0.233483 0 -0.0520151)
(0.201914 0 -0.0444961)
(0.16754 0 -0.0366463)
(0.130238 0 -0.0283723)
(0.0898982 0 -0.0195735)
(0.0462914 0 -0.010109)
(0 0 0)
(0.45948 0 -0.157606)
(0.452604 0 -0.150126)
(0.444866 0 -0.142613)
(0.436124 0 -0.13511)
(0.426237 0 -0.12765)
(0.415061 0 -0.120254)
(0.402451 0 -0.112928)
(0.388266 0 -0.105671)
(0.372367 0 -0.0984691)
(0.354619 0 -0.0913008)
(0.334887 0 -0.084136)
(0.313038 0 -0.0769364)
(0.288943 0 -0.0696555)
(0.262469 0 -0.0622387)
(0.233487 0 -0.0546227)
(0.201862 0 -0.0467345)
(0.16746 0 -0.0384899)
(0.130151 0 -0.0297947)
(0.0898112 0 -0.0205447)
(0.0462238 0 -0.0106009)
(0 0 0)
(0.464216 0 -0.161268)
(0.456568 0 -0.153925)
(0.448156 0 -0.146517)
(0.438827 0 -0.139081)
(0.428428 0 -0.131648)
(0.416805 0 -0.124239)
(0.40381 0 -0.116861)
(0.389294 0 -0.109514)
(0.373115 0 -0.102187)
(0.355132 0 -0.0948609)
(0.335205 0 -0.087507)
(0.313199 0 -0.0800887)
(0.28898 0 -0.0725608)
(0.262414 0 -0.0648695)
(0.233366 0 -0.0569521)
(0.201702 0 -0.0487361)
(0.167287 0 -0.0401384)
(0.129989 0 -0.0310651)
(0.0896766 0 -0.0214116)
(0.0461398 0 -0.0110403)
(0 0 0)
(0.475783 0 -0.170936)
(0.468074 0 -0.163967)
(0.459816 0 -0.156844)
(0.450854 0 -0.149612)
(0.441033 0 -0.142307)
(0.430195 0 -0.13496)
(0.418184 0 -0.127591)
(0.404849 0 -0.120212)
(0.390039 0 -0.112823)
(0.373609 0 -0.105417)
(0.355414 0 -0.0979756)
(0.335314 0 -0.0904734)
(0.313169 0 -0.0828755)
(0.288844 0 -0.0751382)
(0.262201 0 -0.0672094)
(0.233105 0 -0.0590274)
(0.201421 0 -0.050521)
(0.167013 0 -0.0416083)
(0.129746 0 -0.0321966)
(0.0894881 0 -0.0221827)
(0.0460326 0 -0.0114311)
(0 0 0)
(0.479224 0 -0.172419)
(0.471036 0 -0.165801)
(0.462321 0 -0.158972)
(0.452929 0 -0.15198)
(0.442707 0 -0.144863)
(0.431502 0 -0.137655)
(0.41916 0 -0.130376)
(0.405531 0 -0.123042)
(0.390464 0 -0.115654)
(0.373812 0 -0.108209)
(0.355431 0 -0.100692)
(0.33518 0 -0.0930781)
(0.312916 0 -0.0853356)
(0.288503 0 -0.0774228)
(0.261803 0 -0.0692894)
(0.23268 0 -0.0608756)
(0.200996 0 -0.0521117)
(0.166616 0 -0.0429179)
(0.129404 0 -0.0332032)
(0.0892304 0 -0.022867)
(0.0458882 0 -0.0117764)
(0 0 0)
(0.48151 0 -0.173018)
(0.473031 0 -0.166817)
(0.464007 0 -0.16034)
(0.454304 0 -0.153641)
(0.443777 0 -0.146763)
(0.432282 0 -0.139739)
(0.419672 0 -0.132595)
(0.405799 0 -0.125347)
(0.390517 0 -0.118003)
(0.373679 0 -0.110558)
(0.355143 0 -0.103001)
(0.334766 0 -0.095312)
(0.312408 0 -0.0874596)
(0.287931 0 -0.0794053)
(0.261196 0 -0.0711008)
(0.232068 0 -0.0624886)
(0.200409 0 -0.0535013)
(0.166084 0 -0.0440615)
(0.128957 0 -0.0340809)
(0.0888985 0 -0.0234619)
(0.0457057 0 -0.0120755)
(0 0 0)
(0.464812 0 -0.160986)
(0.454912 0 -0.15462)
(0.444178 0 -0.148017)
(0.432474 0 -0.141216)
(0.419661 0 -0.134245)
(0.405601 0 -0.127122)
(0.390149 0 -0.119856)
(0.373166 0 -0.112448)
(0.354509 0 -0.104888)
(0.334038 0 -0.0971579)
(0.311615 0 -0.0892302)
(0.2871 0 -0.0810686)
(0.260358 0 -0.0726275)
(0.231251 0 -0.0638519)
(0.199644 0 -0.054677)
(0.165403 0 -0.0450285)
(0.128393 0 -0.0348213)
(0.0884854 0 -0.0239617)
(0.0454808 0 -0.0123253)
(0 0 0)
(0.443865 0 -0.148655)
(0.43203 0 -0.142107)
(0.419083 0 -0.13534)
(0.404892 0 -0.128373)
(0.389321 0 -0.121218)
(0.372235 0 -0.113879)
(0.353495 0 -0.106349)
(0.332965 0 -0.0986109)
(0.310508 0 -0.0906413)
(0.285986 0 -0.0824062)
(0.259266 0 -0.0738628)
(0.230211 0 -0.064959)
(0.198687 0 -0.0556331)
(0.164563 0 -0.0458142)
(0.127704 0 -0.035421)
(0.0879849 0 -0.0243642)
(0.0452104 0 -0.0125247)
(0 0 0)
(0.430916 0 -0.142434)
(0.4179 0 -0.135894)
(0.403637 0 -0.12911)
(0.387998 0 -0.122095)
(0.370854 0 -0.114854)
(0.352072 0 -0.107383)
(0.331519 0 -0.0996686)
(0.309062 0 -0.0916892)
(0.284567 0 -0.0834135)
(0.257901 0 -0.0748018)
(0.22893 0 -0.0658051)
(0.197524 0 -0.0563653)
(0.163551 0 -0.0464149)
(0.126881 0 -0.0358771)
(0.0873919 0 -0.0246676)
(0.0448918 0 -0.012673)
(0 0 0)
(0.401807 0 -0.129346)
(0.386152 0 -0.122494)
(0.368996 0 -0.115377)
(0.350214 0 -0.107993)
(0.329677 0 -0.100331)
(0.307257 0 -0.0923724)
(0.282824 0 -0.0840881)
(0.256247 0 -0.0754417)
(0.227397 0 -0.0663873)
(0.196143 0 -0.0568706)
(0.16236 0 -0.0468282)
(0.125919 0 -0.0361879)
(0.0867019 0 -0.0248708)
(0.0445231 0 -0.0127697)
(0 0 0)
(0.36664 0 -0.115456)
(0.347901 0 -0.108184)
(0.327421 0 -0.100602)
(0.305077 0 -0.092692)
(0.280742 0 -0.0844297)
(0.254291 0 -0.0757812)
(0.225598 0 -0.0667041)
(0.194536 0 -0.0571477)
(0.160982 0 -0.0470529)
(0.124812 0 -0.0363526)
(0.085912 0 -0.0249734)
(0.044103 0 -0.0128148)
(0 0 0)
(0.345119 0 -0.107961)
(0.324738 0 -0.100483)
(0.302509 0 -0.0926503)
(0.278312 0 -0.0844397)
(0.252025 0 -0.0758209)
(0.223527 0 -0.0667555)
(0.192696 0 -0.0571963)
(0.159412 0 -0.0470889)
(0.123557 0 -0.0363711)
(0.0850203 0 -0.0249753)
(0.0436307 0 -0.0128083)
(0 0 0)
(0.299547 0 -0.0922502)
(0.275527 0 -0.0841206)
(0.249443 0 -0.0755631)
(0.22118 0 -0.0665429)
(0.19062 0 -0.0570175)
(0.157649 0 -0.0469369)
(0.122153 0 -0.0362441)
(0.0840263 0 -0.0248774)
(0.0431062 0 -0.0127507)
(0 0 0)
(0.272385 0 -0.0834752)
(0.246545 0 -0.0750098)
(0.218557 0 -0.0660688)
(0.188309 0 -0.0566133)
(0.155693 0 -0.0465986)
(0.1206 0 -0.035973)
(0.082931 0 -0.0246806)
(0.0425302 0 -0.0126426)
(0 0 0)
(0.215661 0 -0.0653353)
(0.185767 0 -0.0559862)
(0.153548 0 -0.0460763)
(0.118903 0 -0.0355596)
(0.081737 0 -0.0243863)
(0.0419041 0 -0.0124848)
(0 0 0)
(0.183001 0 -0.0551384)
(0.151221 0 -0.045372)
(0.117066 0 -0.035006)
(0.0804484 0 -0.0239961)
(0.0412303 0 -0.0122783)
(0 0 0)
(0.115097 0 -0.034314)
(0.0790707 0 -0.0235115)
(0.0405117 0 -0.0120239)
(0 0 0)
(0.0776107 0 -0.0229339)
(0.0397522 0 -0.0117224)
(0 0 0)
(0.0389563 0 -0.0113746)
(0 0 0)
(0.479224 0 -0.172419)
(0.471036 0 -0.165801)
(0.462321 0 -0.158972)
(0.452929 0 -0.15198)
(0.442707 0 -0.144863)
(0.431502 0 -0.137655)
(0.41916 0 -0.130376)
(0.405531 0 -0.123042)
(0.390464 0 -0.115654)
(0.373812 0 -0.108209)
(0.355431 0 -0.100692)
(0.33518 0 -0.0930781)
(0.312916 0 -0.0853356)
(0.288503 0 -0.0774228)
(0.261803 0 -0.0692894)
(0.23268 0 -0.0608756)
(0.200996 0 -0.0521117)
(0.166616 0 -0.0429179)
(0.129404 0 -0.0332032)
(0.0892304 0 -0.022867)
(0.0458882 0 -0.0117764)
(0 0 0)
(0.48151 0 -0.173018)
(0.473031 0 -0.166817)
(0.464007 0 -0.16034)
(0.454304 0 -0.153641)
(0.443777 0 -0.146763)
(0.432282 0 -0.139739)
(0.419672 0 -0.132595)
(0.405799 0 -0.125347)
(0.390517 0 -0.118003)
(0.373679 0 -0.110558)
(0.355143 0 -0.103001)
(0.334766 0 -0.095312)
(0.312408 0 -0.0874596)
(0.287931 0 -0.0794053)
(0.261196 0 -0.0711008)
(0.232068 0 -0.0624886)
(0.200409 0 -0.0535013)
(0.166084 0 -0.0440615)
(0.128957 0 -0.0340809)
(0.0888985 0 -0.0234619)
(0.0457057 0 -0.0120755)
(0 0 0)
(0.464812 0 -0.160986)
(0.454912 0 -0.15462)
(0.444178 0 -0.148017)
(0.432474 0 -0.141216)
(0.419661 0 -0.134245)
(0.405601 0 -0.127122)
(0.390149 0 -0.119856)
(0.373166 0 -0.112448)
(0.354509 0 -0.104888)
(0.334038 0 -0.0971579)
(0.311615 0 -0.0892302)
(0.2871 0 -0.0810686)
(0.260358 0 -0.0726275)
(0.231251 0 -0.0638519)
(0.199644 0 -0.054677)
(0.165403 0 -0.0450285)
(0.128393 0 -0.0348213)
(0.0884854 0 -0.0239617)
(0.0454808 0 -0.0123253)
(0 0 0)
(0.443865 0 -0.148655)
(0.43203 0 -0.142107)
(0.419083 0 -0.13534)
(0.404892 0 -0.128373)
(0.389321 0 -0.121218)
(0.372235 0 -0.113879)
(0.353495 0 -0.106349)
(0.332965 0 -0.0986109)
(0.310508 0 -0.0906413)
(0.285986 0 -0.0824062)
(0.259266 0 -0.0738628)
(0.230211 0 -0.064959)
(0.198687 0 -0.0556331)
(0.164563 0 -0.0458142)
(0.127704 0 -0.035421)
(0.0879849 0 -0.0243642)
(0.0452104 0 -0.0125247)
(0 0 0)
(0.430916 0 -0.142434)
(0.4179 0 -0.135894)
(0.403637 0 -0.12911)
(0.387998 0 -0.122095)
(0.370854 0 -0.114854)
(0.352072 0 -0.107383)
(0.331519 0 -0.0996686)
(0.309062 0 -0.0916892)
(0.284567 0 -0.0834135)
(0.257901 0 -0.0748018)
(0.22893 0 -0.0658051)
(0.197524 0 -0.0563653)
(0.163551 0 -0.0464149)
(0.126881 0 -0.0358771)
(0.0873919 0 -0.0246676)
(0.0448918 0 -0.012673)
(0 0 0)
(0.401807 0 -0.129346)
(0.386152 0 -0.122494)
(0.368996 0 -0.115377)
(0.350214 0 -0.107993)
(0.329677 0 -0.100331)
(0.307257 0 -0.0923724)
(0.282824 0 -0.0840881)
(0.256247 0 -0.0754417)
(0.227397 0 -0.0663873)
(0.196143 0 -0.0568706)
(0.16236 0 -0.0468282)
(0.125919 0 -0.0361879)
(0.0867019 0 -0.0248708)
(0.0445231 0 -0.0127697)
(0 0 0)
(0.36664 0 -0.115456)
(0.347901 0 -0.108184)
(0.327421 0 -0.100602)
(0.305077 0 -0.092692)
(0.280742 0 -0.0844297)
(0.254291 0 -0.0757812)
(0.225598 0 -0.0667041)
(0.194536 0 -0.0571477)
(0.160982 0 -0.0470529)
(0.124812 0 -0.0363526)
(0.085912 0 -0.0249734)
(0.044103 0 -0.0128148)
(0 0 0)
(0.345119 0 -0.107961)
(0.324738 0 -0.100483)
(0.302509 0 -0.0926503)
(0.278312 0 -0.0844397)
(0.252025 0 -0.0758209)
(0.223527 0 -0.0667555)
(0.192696 0 -0.0571963)
(0.159412 0 -0.0470889)
(0.123557 0 -0.0363711)
(0.0850203 0 -0.0249753)
(0.0436307 0 -0.0128083)
(0 0 0)
(0.299547 0 -0.0922502)
(0.275527 0 -0.0841206)
(0.249443 0 -0.0755631)
(0.22118 0 -0.0665429)
(0.19062 0 -0.0570175)
(0.157649 0 -0.0469369)
(0.122153 0 -0.0362441)
(0.0840263 0 -0.0248774)
(0.0431062 0 -0.0127507)
(0 0 0)
(0.272385 0 -0.0834752)
(0.246545 0 -0.0750098)
(0.218557 0 -0.0660688)
(0.188309 0 -0.0566133)
(0.155693 0 -0.0465986)
(0.1206 0 -0.035973)
(0.082931 0 -0.0246806)
(0.0425302 0 -0.0126426)
(0 0 0)
(0.215661 0 -0.0653353)
(0.185767 0 -0.0559862)
(0.153548 0 -0.0460763)
(0.118903 0 -0.0355596)
(0.081737 0 -0.0243863)
(0.0419041 0 -0.0124848)
(0 0 0)
(0.183001 0 -0.0551384)
(0.151221 0 -0.045372)
(0.117066 0 -0.035006)
(0.0804484 0 -0.0239961)
(0.0412303 0 -0.0122783)
(0 0 0)
(0.115097 0 -0.034314)
(0.0790707 0 -0.0235115)
(0.0405117 0 -0.0120239)
(0 0 0)
(0.0776107 0 -0.0229339)
(0.0397522 0 -0.0117224)
(0 0 0)
(0.0389563 0 -0.0113746)
(0 0 0)
)
;

boundaryField
{
    inlet
    {
        type            fixedValue;
        value           nonuniform 0();
    }
    outlet
    {
        type            fixedValue;
        value           uniform (0 0 0);
    }
    flap
    {
        type            fixedValue;
        value           nonuniform 0();
    }
    upperWall
    {
        type            slip;
    }
    lowerWall
    {
        type            slip;
    }
    frontAndBack
    {
        type            empty;
    }
    procBoundary5to2
    {
        type            processor;
    }
    procBoundary5to4
    {
        type            processor;
    }
}


// ************************************************************************* //
