/*--------------------------------*- C++ -*----------------------------------*\
| =========                 |                                                 |
| \\      /  F ield         | OpenFOAM: The Open Source CFD Toolbox           |
|  \\    /   O peration     | Version:  dev                                   |
|   \\  /    A nd           | Web:      www.OpenFOAM.org                      |
|    \\/     M anipulation  |                                                 |
\*---------------------------------------------------------------------------*/
FoamFile
{
    version     2.0;
    format      ascii;
    class       volVectorField;
    location    "0.75";
    object      cellDisplacement;
}
// * * * * * * * * * * * * * * * * * * * * * * * * * * * * * * * * * * * * * //

dimensions      [0 1 0 0 0 0 0];

internalField   nonuniform List<vector> 
2790
(
(0.00736148 0 -1.25781e-05)
(0.0210625 0 -3.60697e-05)
(0.032845 0 -5.65486e-05)
(0.042856 0 -7.43421e-05)
(0.0512541 0 -8.972e-05)
(0.0581829 0 -0.000102833)
(0.0637722 0 -0.000113705)
(0.0681382 0 -0.000122341)
(0.0713828 0 -0.000128666)
(0.0735951 0 -0.000132521)
(0.0748542 0 -0.000133524)
(0.0752315 0 -0.000131364)
(0.0747904 0 -0.000125639)
(0.073588 0 -0.00011585)
(0.0716769 0 -0.000101408)
(0.0691069 0 -8.16521e-05)
(0.0659273 0 -5.58653e-05)
(0.0621841 0 -2.30968e-05)
(0.0579262 0 1.75422e-05)
(0.0532074 0 6.70053e-05)
(0.0480884 0 0.000126286)
(0.0426386 0 0.000196373)
(0.0369397 0 0.000278249)
(0.0310896 0 0.000372871)
(0.0252092 0 0.000481245)
(0.0194565 0 0.000604572)
(0.0140322 0 0.000743178)
(0.00920298 0 0.000895978)
(0.0053447 0 0.00105682)
(0.00314545 0 0.00120187)
(0.00737205 0 -3.77663e-05)
(0.0210937 0 -0.000108308)
(0.0328961 0 -0.000169822)
(0.0429274 0 -0.00022329)
(0.0513473 0 -0.000269537)
(0.0582994 0 -0.000309023)
(0.0639144 0 -0.000341804)
(0.0683096 0 -0.00036791)
(0.0715876 0 -0.000387136)
(0.0738376 0 -0.000399063)
(0.0751391 0 -0.000402462)
(0.0755648 0 -0.000396467)
(0.0751788 0 -0.00037989)
(0.0740389 0 -0.000351255)
(0.0721984 0 -0.000308821)
(0.0697076 0 -0.000250619)
(0.0666194 0 -0.000174643)
(0.0629786 0 -7.79316e-05)
(0.0588351 0 4.20581e-05)
(0.0542442 0 0.00018812)
(0.0492679 0 0.000363151)
(0.0439777 0 0.000569978)
(0.0384571 0 0.000811298)
(0.0328052 0 0.00108949)
(0.0271401 0 0.0014066)
(0.0216301 0 0.00176572)
(0.0164844 0 0.00216544)
(0.0119936 0 0.00259938)
(0.00855914 0 0.00304296)
(0.00685145 0 0.00341764)
(0.00739305 0 -6.30413e-05)
(0.0211557 0 -0.000180817)
(0.0329974 0 -0.000283579)
(0.0430686 0 -0.000372966)
(0.0515316 0 -0.000450397)
(0.05853 0 -0.000516688)
(0.0641958 0 -0.000571845)
(0.068649 0 -0.000615998)
(0.0719933 0 -0.000648836)
(0.0743188 0 -0.000669943)
(0.0757047 0 -0.000676871)
(0.0762269 0 -0.000668471)
(0.0759509 0 -0.000642822)
(0.0749359 0 -0.000597534)
(0.0732363 0 -0.000529779)
(0.0709022 0 -0.000436265)
(0.0679899 0 -0.000313633)
(0.064552 0 -0.000158028)
(0.0606349 0 3.51002e-05)
(0.0562969 0 0.00027019)
(0.0516028 0 0.000551801)
(0.0466287 0 0.000884227)
(0.0414627 0 0.00127134)
(0.0362113 0 0.00171606)
(0.0309872 0 0.0022211)
(0.02595 0 0.0027854)
(0.0213216 0 0.00340181)
(0.0174303 0 0.00405512)
(0.0146933 0 0.0046949)
(0.013728 0 0.00519409)
(0.0074246 0 -8.84458e-05)
(0.0212488 0 -0.000253731)
(0.0331488 0 -0.000398067)
(0.0432794 0 -0.00052374)
(0.051807 0 -0.00063284)
(0.0588741 0 -0.000726651)
(0.0646149 0 -0.000804913)
(0.0691543 0 -0.000868038)
(0.0725977 0 -0.000915545)
(0.0750322 0 -0.00094636)
(0.076542 0 -0.000958467)
(0.0772067 0 -0.000949904)
(0.077093 0 -0.000918038)
(0.0762623 0 -0.000859679)
(0.0747717 0 -0.000771094)
(0.0726751 0 -0.000647999)
(0.0700256 0 -0.000485579)
(0.0668835 0 -0.000279314)
(0.0633 0 -2.32994e-05)
(0.0593349 0 0.000288283)
(0.0550546 0 0.000661285)
(0.0505421 0 0.00110085)
(0.0458898 0 0.00161133)
(0.0412103 0 0.00219525)
(0.0366362 0 0.00285229)
(0.032318 0 0.00357472)
(0.0284519 0 0.00435012)
(0.0253386 0 0.00514466)
(0.0234805 0 0.00588383)
(0.0234237 0 0.00640692)
(0.00746674 0 -0.000114014)
(0.0213731 0 -0.000327155)
(0.03335 0 -0.000513497)
(0.043558 0 -0.000675916)
(0.0521719 0 -0.000817293)
(0.0593273 0 -0.000938555)
(0.0651651 0 -0.00104065)
(0.069817 0 -0.00112384)
(0.0733872 0 -0.0011874)
(0.0759661 0 -0.00122998)
(0.0776408 0 -0.00124968)
(0.0784925 0 -0.00124403)
(0.0785912 0 -0.00120983)
(0.0780016 0 -0.00114327)
(0.0767844 0 -0.00103994)
(0.0749977 0 -0.000894809)
(0.0726992 0 -0.00070235)
(0.0699485 0 -0.000456729)
(0.0668038 0 -0.000151457)
(0.0633282 0 0.000219987)
(0.0595856 0 0.000664373)
(0.0556726 0 0.00118669)
(0.0516813 0 0.00179079)
(0.0477331 0 0.00247712)
(0.0439652 0 0.00324092)
(0.040543 0 0.00406874)
(0.0376644 0 0.00493542)
(0.035537 0 0.00579465)
(0.0346507 0 0.0065516)
(0.0355887 0 0.00702314)
(0.00751935 0 -0.000139771)
(0.0215289 0 -0.000401154)
(0.0335986 0 -0.000629427)
(0.0438998 0 -0.000828861)
(0.0526122 0 -0.00100304)
(0.0598758 0 -0.00115248)
(0.0658392 0 -0.00127954)
(0.0706298 0 -0.00138417)
(0.0743568 0 -0.00146562)
(0.0771113 0 -0.00152225)
(0.0789856 0 -0.00155251)
(0.0800653 0 -0.00155355)
(0.080423 0 -0.00152179)
(0.0801271 0 -0.00145299)
(0.0792426 0 -0.00134231)
(0.0778328 0 -0.00118431)
(0.0759598 0 -0.000972952)
(0.0736868 0 -0.00070181)
(0.0710787 0 -0.000364134)
(0.0682079 0 4.63657e-05)
(0.065141 0 0.000537009)
(0.0619605 0 0.00111284)
(0.0587637 0 0.00177577)
(0.0556926 0 0.00252303)
(0.0528802 0 0.003345)
(0.0504988 0 0.00422041)
(0.0487333 0 0.00511289)
(0.0477765 0 0.00596664)
(0.0479525 0 0.00667684)
(0.0499352 0 0.00704491)
(0.00758172 0 -0.00016559)
(0.0217018 0 -0.00047519)
(0.033879 0 -0.000745567)
(0.0443009 0 -0.00098254)
(0.0531306 0 -0.00118958)
(0.0605209 0 -0.00136865)
(0.0666296 0 -0.00152191)
(0.0715821 0 -0.00164959)
(0.0754898 0 -0.00175098)
(0.0784492 0 -0.0018242)
(0.0805591 0 -0.00186853)
(0.0819047 0 -0.00188065)
(0.0825636 0 -0.00185681)
(0.0826087 0 -0.00179262)
(0.0821102 0 -0.00168308)
(0.081137 0 -0.00152267)
(0.0797566 0 -0.00130528)
(0.078037 0 -0.00102435)
(0.0760484 0 -0.000673122)
(0.0738733 0 -0.000245849)
(0.0715944 0 0.000263013)
(0.0692849 0 0.000857366)
(0.0670436 0 0.00153877)
(0.064983 0 0.00230238)
(0.0632496 0 0.0031323)
(0.0620379 0 0.00399879)
(0.0615058 0 0.00485669)
(0.0618144 0 0.00564165)
(0.0631634 0 0.00625291)
(0.066236 0 0.00647711)
(0.00765502 0 -0.000191485)
(0.0219023 0 -0.000549174)
(0.0341989 0 -0.000862035)
(0.044748 0 -0.00113677)
(0.0537133 0 -0.00137747)
(0.061254 0 -0.00158714)
(0.0675273 0 -0.00176792)
(0.0726633 0 -0.00192044)
(0.0767771 0 -0.00204425)
(0.0799725 0 -0.00213803)
(0.0823487 0 -0.00220043)
(0.0839951 0 -0.00222853)
(0.0849941 0 -0.00221869)
(0.0854236 0 -0.00216663)
(0.0853593 0 -0.00206748)
(0.084877 0 -0.00191611)
(0.0840499 0 -0.00170671)
(0.0829511 0 -0.00143308)
(0.0816518 0 -0.00108853)
(0.0802526 0 -0.000669315)
(0.0788329 0 -0.000170662)
(0.0774893 0 0.000408632)
(0.0763299 0 0.0010661)
(0.0754306 0 0.00179554)
(0.0749172 0 0.00258083)
(0.0749937 0 0.00338386)
(0.0758059 0 0.00415015)
(0.0774693 0 0.00481088)
(0.0800923 0 0.00527477)
(0.0842894 0 0.00531792)
(0.00772679 0 -0.00021716)
(0.0221162 0 -0.000623051)
(0.0345533 0 -0.000978724)
(0.0452472 0 -0.00129171)
(0.0543634 0 -0.00156674)
(0.0620669 0 -0.0018079)
(0.0685217 0 -0.00201756)
(0.0738602 0 -0.00219679)
(0.0782014 0 -0.00234544)
(0.0816545 0 -0.00246264)
(0.084322 0 -0.00254706)
(0.0862973 0 -0.00259615)
(0.0876676 0 -0.0026066)
(0.088516 0 -0.00257446)
(0.0889234 0 -0.00249524)
(0.0889752 0 -0.00236485)
(0.0887506 0 -0.00217819)
(0.0883316 0 -0.00193031)
(0.0878027 0 -0.00161594)
(0.0872498 0 -0.00123088)
(0.0867608 0 -0.000772701)
(0.086459 0 -0.000244126)
(0.0864497 0 0.000349284)
(0.0868318 0 0.000996185)
(0.0877076 0 0.00167961)
(0.0891738 0 0.00236576)
(0.0914427 0 0.00298554)
(0.0945627 0 0.00346932)
(0.0985528 0 0.0037368)
(0.103878 0 0.00356381)
(0.00781051 0 -0.000242954)
(0.0223547 0 -0.000697058)
(0.0349385 0 -0.0010955)
(0.0457821 0 -0.00144689)
(0.055063 0 -0.0017568)
(0.0629502 0 -0.00203071)
(0.0696011 0 -0.00227059)
(0.0751585 0 -0.0024784)
(0.0797445 0 -0.0026543)
(0.0834738 0 -0.00279791)
(0.0864532 0 -0.00290833)
(0.08878 0 -0.00298346)
(0.0905465 0 -0.00302054)
(0.0918406 0 -0.00301623)
(0.0927462 0 -0.00296629)
(0.0933641 0 -0.00286882)
(0.0937765 0 -0.00271937)
(0.0940735 0 -0.00251427)
(0.0943605 0 -0.0022518)
(0.0947138 0 -0.00192849)
(0.0952392 0 -0.0015444)
(0.0960349 0 -0.00110151)
(0.0972474 0 -0.000613)
(0.0989825 0 -9.35844e-05)
(0.10134 0 0.000434317)
(0.104339 0 0.000944715)
(0.108183 0 0.00136464)
(0.112876 0 0.00161922)
(0.118351 0 0.00163713)
(0.124727 0 0.00122317)
(0.00789182 0 -0.000268413)
(0.0226018 0 -0.000770638)
(0.0353501 0 -0.00121216)
(0.0463566 0 -0.00160241)
(0.0558173 0 -0.00194843)
(0.063895 0 -0.00225528)
(0.0707528 0 -0.00252657)
(0.0765427 0 -0.00276483)
(0.0813871 0 -0.00297031)
(0.0854066 0 -0.00314322)
(0.088714 0 -0.00328354)
(0.0914096 0 -0.00338965)
(0.0935907 0 -0.00345958)
(0.0953516 0 -0.00349104)
(0.0967889 0 -0.00348152)
(0.0979973 0 -0.00342868)
(0.0990688 0 -0.00333039)
(0.100097 0 -0.00318415)
(0.101203 0 -0.00299156)
(0.102486 0 -0.00275343)
(0.104067 0 -0.00247419)
(0.106029 0 -0.00215604)
(0.108497 0 -0.00181076)
(0.111626 0 -0.00146311)
(0.115509 0 -0.00113832)
(0.120195 0 -0.000865006)
(0.125706 0 -0.000695532)
(0.132076 0 -0.000716218)
(0.139106 0 -0.000988506)
(0.146483 0 -0.00165856)
(0.00798345 0 -0.000293918)
(0.0228687 0 -0.000844063)
(0.0357851 0 -0.00132851)
(0.0469632 0 -0.00175782)
(0.0566045 0 -0.00214005)
(0.0648812 0 -0.00248061)
(0.071963 0 -0.00278478)
(0.0779971 0 -0.00305536)
(0.0831091 0 -0.00329258)
(0.0874283 0 -0.00349741)
(0.0910751 0 -0.00367131)
(0.0941503 0 -0.003813)
(0.0967568 0 -0.00392148)
(0.0989958 0 -0.00399567)
(0.100973 0 -0.00403497)
(0.102779 0 -0.00403731)
(0.104519 0 -0.00400344)
(0.106302 0 -0.00393378)
(0.108229 0 -0.00382912)
(0.110437 0 -0.00369702)
(0.113047 0 -0.003545)
(0.116182 0 -0.00338366)
(0.119936 0 -0.00322285)
(0.124454 0 -0.0030863)
(0.129887 0 -0.0030107)
(0.136278 0 -0.00302455)
(0.143548 0 -0.00315971)
(0.151687 0 -0.00349565)
(0.160312 0 -0.00407407)
(0.168709 0 -0.00499629)
(0.0080698 0 -0.000318876)
(0.0231384 0 -0.000916604)
(0.0362385 0 -0.0014442)
(0.0475952 0 -0.00191268)
(0.0574259 0 -0.0023316)
(0.0659114 0 -0.0027074)
(0.0732247 0 -0.00304564)
(0.0795058 0 -0.00334914)
(0.0848903 0 -0.00362004)
(0.089523 0 -0.00386067)
(0.0935185 0 -0.00407179)
(0.0969794 0 -0.00425328)
(0.100016 0 -0.00440544)
(0.102732 0 -0.00452835)
(0.105232 0 -0.00462175)
(0.107628 0 -0.00468776)
(0.110031 0 -0.00472889)
(0.112558 0 -0.00474939)
(0.115309 0 -0.0047513)
(0.118406 0 -0.00474217)
(0.122004 0 -0.00473774)
(0.126236 0 -0.00475353)
(0.131227 0 -0.00480784)
(0.137088 0 -0.00492012)
(0.144006 0 -0.00513398)
(0.152015 0 -0.00547614)
(0.161073 0 -0.0059705)
(0.171034 0 -0.00666162)
(0.181351 0 -0.00755277)
(0.190813 0 -0.008695)
(0.00816234 0 -0.000343692)
(0.0234231 0 -0.000988883)
(0.0367077 0 -0.00155898)
(0.0482459 0 -0.00206648)
(0.0582718 0 -0.00252239)
(0.0669687 0 -0.00293376)
(0.0745107 0 -0.00330662)
(0.0810438 0 -0.00364436)
(0.0867143 0 -0.00395116)
(0.0916624 0 -0.00422971)
(0.0960024 0 -0.00448059)
(0.0998465 0 -0.00470523)
(0.103308 0 -0.0049053)
(0.106496 0 -0.00508232)
(0.109523 0 -0.00523825)
(0.112491 0 -0.00537474)
(0.115527 0 -0.00549853)
(0.11875 0 -0.00561617)
(0.122281 0 -0.00573611)
(0.126228 0 -0.00586615)
(0.130732 0 -0.00602241)
(0.135962 0 -0.00623152)
(0.14204 0 -0.00651559)
(0.149111 0 -0.00690281)
(0.157332 0 -0.00743534)
(0.166752 0 -0.00814322)
(0.177387 0 -0.00904532)
(0.189028 0 -0.0101436)
(0.201046 0 -0.0113685)
(0.211768 0 -0.012689)
(0.00825817 0 -0.000368197)
(0.0237047 0 -0.00105976)
(0.0371752 0 -0.00167185)
(0.0489076 0 -0.00221855)
(0.0591329 0 -0.00271163)
(0.068042 0 -0.00315879)
(0.0758163 0 -0.0035671)
(0.0826078 0 -0.00394116)
(0.0885616 0 -0.00428517)
(0.0938154 0 -0.00460198)
(0.098496 0 -0.00489473)
(0.102715 0 -0.00516502)
(0.106591 0 -0.00541616)
(0.110239 0 -0.00565131)
(0.113772 0 -0.00587464)
(0.117294 0 -0.0060887)
(0.12092 0 -0.00630005)
(0.124785 0 -0.00652033)
(0.12901 0 -0.00676111)
(0.133717 0 -0.00703651)
(0.139024 0 -0.00736173)
(0.145109 0 -0.00776987)
(0.15208 0 -0.00828817)
(0.1601 0 -0.00895374)
(0.169282 0 -0.00981075)
(0.179669 0 -0.0108983)
(0.191308 0 -0.0122484)
(0.203947 0 -0.0138389)
(0.217008 0 -0.0155067)
(0.229282 0 -0.0170359)
(0.0036325 0 -0.00134578)
(0.00723956 0 -0.00142408)
(0.0141856 0 -0.00151302)
(0.0240177 0 -0.00161508)
(0.0359408 0 -0.00171558)
(0.0490015 0 -0.00179461)
(0.0623027 0 -0.00184307)
(0.0750947 0 -0.00186287)
(0.0868394 0 -0.00184767)
(0.0972369 0 -0.00180793)
(0.106135 0 -0.001749)
(0.113486 0 -0.0016753)
(0.119309 0 -0.00159323)
(0.123652 0 -0.0015051)
(0.126574 0 -0.00141602)
(0.128132 0 -0.00132215)
(0.128376 0 -0.00122138)
(0.127349 0 -0.00112791)
(0.125071 0 -0.00103576)
(0.121547 0 -0.000944824)
(0.116769 0 -0.000856062)
(0.110703 0 -0.000769217)
(0.103309 0 -0.000684955)
(0.0945509 0 -0.000601873)
(0.0843707 0 -0.000518455)
(0.0727017 0 -0.000433695)
(0.0594728 0 -0.000346468)
(0.0446103 0 -0.000255396)
(0.0280414 0 -0.000158825)
(0.00966378 0 -5.45673e-05)
(0.00702179 0 -0.00402373)
(0.0107246 0 -0.00426126)
(0.0177006 0 -0.00454065)
(0.0275095 0 -0.00485519)
(0.0393207 0 -0.00515953)
(0.0521621 0 -0.00539108)
(0.0651836 0 -0.00552788)
(0.0776472 0 -0.00556627)
(0.0890531 0 -0.00551304)
(0.0991303 0 -0.0053849)
(0.107734 0 -0.00520571)
(0.114822 0 -0.00498351)
(0.12042 0 -0.00473915)
(0.12457 0 -0.00447598)
(0.127326 0 -0.00419979)
(0.128746 0 -0.00391721)
(0.128881 0 -0.0036296)
(0.127763 0 -0.00334952)
(0.125413 0 -0.00307567)
(0.12183 0 -0.00280768)
(0.117004 0 -0.00254573)
(0.110896 0 -0.00229018)
(0.103467 0 -0.00204065)
(0.0946806 0 -0.00179419)
(0.0844776 0 -0.00154614)
(0.0727885 0 -0.0012938)
(0.0595412 0 -0.00103389)
(0.0446612 0 -0.000762324)
(0.0280743 0 -0.000474178)
(0.00967578 0 -0.000162939)
(0.013401 0 -0.00668082)
(0.0174012 0 -0.00709962)
(0.0245196 0 -0.00759577)
(0.034332 0 -0.00813821)
(0.0458852 0 -0.00862084)
(0.0582792 0 -0.00897889)
(0.0707392 0 -0.00918127)
(0.0825789 0 -0.00922065)
(0.0933487 0 -0.00911531)
(0.102811 0 -0.00888863)
(0.11084 0 -0.00857255)
(0.117423 0 -0.00819926)
(0.122575 0 -0.00778186)
(0.126346 0 -0.00734424)
(0.128784 0 -0.00688339)
(0.129944 0 -0.00641731)
(0.129867 0 -0.0059536)
(0.128575 0 -0.00549577)
(0.126082 0 -0.00504888)
(0.122385 0 -0.00461396)
(0.117462 0 -0.00418694)
(0.111273 0 -0.00377328)
(0.103776 0 -0.00336521)
(0.0949355 0 -0.00296146)
(0.0846881 0 -0.00255336)
(0.072959 0 -0.00213757)
(0.0596752 0 -0.00170882)
(0.0447603 0 -0.0012604)
(0.0281377 0 -0.000784211)
(0.00969851 0 -0.000269525)
(0.0224903 0 -0.00939652)
(0.0269404 0 -0.0100075)
(0.0343437 0 -0.0107378)
(0.0440984 0 -0.0114844)
(0.0552439 0 -0.0121089)
(0.0670289 0 -0.0125555)
(0.0787104 0 -0.01279)
(0.0896459 0 -0.0127996)
(0.0994902 0 -0.0126189)
(0.108067 0 -0.0122855)
(0.115279 0 -0.0118261)
(0.121135 0 -0.0112912)
(0.125656 0 -0.0107021)
(0.128887 0 -0.0100821)
(0.130877 0 -0.00944808)
(0.131668 0 -0.00880964)
(0.131288 0 -0.00817769)
(0.129749 0 -0.00755646)
(0.127051 0 -0.00694836)
(0.123188 0 -0.00635828)
(0.118124 0 -0.00577933)
(0.111816 0 -0.00521366)
(0.104222 0 -0.00465335)
(0.0953016 0 -0.00409434)
(0.0849916 0 -0.00353152)
(0.073204 0 -0.00295765)
(0.059867 0 -0.0023653)
(0.0449016 0 -0.00174518)
(0.0282274 0 -0.00108612)
(0.00973054 0 -0.000373348)
(0.0339833 0 -0.012257)
(0.0390086 0 -0.0130627)
(0.0467588 0 -0.0140143)
(0.0563826 0 -0.0149202)
(0.0670552 0 -0.0156511)
(0.0780762 0 -0.0161414)
(0.0887127 0 -0.016349)
(0.0984752 0 -0.01628)
(0.107169 0 -0.0159932)
(0.114623 0 -0.0155242)
(0.120819 0 -0.0149224)
(0.125778 0 -0.0142284)
(0.129519 0 -0.0134749)
(0.132086 0 -0.0126862)
(0.133529 0 -0.0118905)
(0.13386 0 -0.0110902)
(0.133096 0 -0.0102984)
(0.131246 0 -0.00952698)
(0.128287 0 -0.00876773)
(0.124203 0 -0.00802583)
(0.118961 0 -0.00730316)
(0.112507 0 -0.00659216)
(0.104799 0 -0.00588875)
(0.0957793 0 -0.00518207)
(0.0853781 0 -0.00447111)
(0.0735144 0 -0.00374606)
(0.0601091 0 -0.00299694)
(0.0450792 0 -0.00221193)
(0.0283397 0 -0.00137696)
(0.00977045 0 -0.000473387)
(0.0476283 0 -0.015338)
(0.0533072 0 -0.0163322)
(0.0613957 0 -0.0174645)
(0.0708518 0 -0.0184843)
(0.0809191 0 -0.0192546)
(0.0909533 0 -0.0197162)
(0.100299 0 -0.0198301)
(0.108702 0 -0.0196411)
(0.116026 0 -0.019213)
(0.122173 0 -0.0185873)
(0.127216 0 -0.017833)
(0.131143 0 -0.0169823)
(0.13399 0 -0.0160701)
(0.13582 0 -0.0151343)
(0.136628 0 -0.0141861)
(0.136428 0 -0.0132389)
(0.13522 0 -0.0122988)
(0.133004 0 -0.0113835)
(0.129745 0 -0.0104849)
(0.125406 0 -0.00960142)
(0.119948 0 -0.00873933)
(0.113319 0 -0.00789349)
(0.10547 0 -0.00705282)
(0.0963365 0 -0.00621143)
(0.0858314 0 -0.00536188)
(0.0738776 0 -0.00449437)
(0.0603916 0 -0.00359702)
(0.0452856 0 -0.00265571)
(0.0284696 0 -0.00165365)
(0.00981626 0 -0.000568571)
(0.0632199 0 -0.0186904)
(0.0695917 0 -0.0198579)
(0.0779658 0 -0.0211176)
(0.0871305 0 -0.0221768)
(0.0963922 0 -0.0229009)
(0.105178 0 -0.0232435)
(0.113039 0 -0.0232039)
(0.119906 0 -0.0228512)
(0.12568 0 -0.0222424)
(0.130417 0 -0.0214496)
(0.134194 0 -0.020536)
(0.137001 0 -0.0195299)
(0.138901 0 -0.0184717)
(0.139921 0 -0.0173957)
(0.140038 0 -0.0163074)
(0.139265 0 -0.0152253)
(0.137583 0 -0.0141589)
(0.13496 0 -0.0131083)
(0.131368 0 -0.012082)
(0.126752 0 -0.0110745)
(0.121056 0 -0.0100855)
(0.114237 0 -0.00911346)
(0.106233 0 -0.00814569)
(0.09696 0 -0.00717771)
(0.0863377 0 -0.00619924)
(0.0742822 0 -0.00519873)
(0.0607052 0 -0.00416246)
(0.0455137 0 -0.00307422)
(0.0286122 0 -0.00191472)
(0.0098661 0 -0.000658391)
(0.080584 0 -0.0223343)
(0.0876432 0 -0.0236479)
(0.0961582 0 -0.0249599)
(0.104808 0 -0.0259612)
(0.113014 0 -0.0265428)
(0.12027 0 -0.0266744)
(0.12645 0 -0.0264161)
(0.131618 0 -0.0258549)
(0.135762 0 -0.0250515)
(0.139024 0 -0.0240824)
(0.14148 0 -0.0230062)
(0.14315 0 -0.0218582)
(0.144067 0 -0.0206654)
(0.144242 0 -0.0194578)
(0.143655 0 -0.0182493)
(0.142283 0 -0.0170475)
(0.140101 0 -0.0158652)
(0.137059 0 -0.0146998)
(0.133114 0 -0.0135594)
(0.128204 0 -0.0124398)
(0.122261 0 -0.0113372)
(0.115232 0 -0.0102469)
(0.107056 0 -0.0091656)
(0.0976342 0 -0.00808154)
(0.0868846 0 -0.00698391)
(0.0747184 0 -0.00585975)
(0.0610421 0 -0.00469377)
(0.0457577 0 -0.00346782)
(0.0287639 0 -0.0021604)
(0.00991873 0 -0.000742915)
(0.0995478 0 -0.0262521)
(0.107246 0 -0.0276739)
(0.115606 0 -0.028933)
(0.123401 0 -0.0297574)
(0.130192 0 -0.0300832)
(0.135686 0 -0.0299293)
(0.140029 0 -0.0294016)
(0.143396 0 -0.0285993)
(0.145903 0 -0.027598)
(0.147687 0 -0.0264569)
(0.148834 0 -0.0252298)
(0.149374 0 -0.0239513)
(0.149318 0 -0.0226392)
(0.148656 0 -0.021318)
(0.147363 0 -0.0200041)
(0.145393 0 -0.0186995)
(0.142698 0 -0.0174118)
(0.139234 0 -0.0161495)
(0.134931 0 -0.0149107)
(0.129721 0 -0.0136929)
(0.123529 0 -0.0124913)
(0.116287 0 -0.0112991)
(0.107923 0 -0.0101141)
(0.0983446 0 -0.00892412)
(0.0874603 0 -0.00771696)
(0.0751765 0 -0.00647839)
(0.0613948 0 -0.00519169)
(0.046012 0 -0.00383705)
(0.0289211 0 -0.002391)
(0.00997294 0 -0.00082225)
(0.119902 0 -0.0303866)
(0.128009 0 -0.0318444)
(0.135838 0 -0.0329322)
(0.142349 0 -0.0334487)
(0.147336 0 -0.0334068)
(0.150885 0 -0.0329114)
(0.153301 0 -0.0320873)
(0.154862 0 -0.0310402)
(0.155758 0 -0.0298454)
(0.156116 0 -0.0285466)
(0.156011 0 -0.0271866)
(0.155475 0 -0.0257958)
(0.154491 0 -0.024384)
(0.153024 0 -0.0229674)
(0.151053 0 -0.0215658)
(0.148509 0 -0.020178)
(0.145322 0 -0.0188069)
(0.141439 0 -0.0174617)
(0.136782 0 -0.0161396)
(0.131271 0 -0.0148373)
(0.124827 0 -0.0135498)
(0.117369 0 -0.0122706)
(0.108817 0 -0.0109936)
(0.0990767 0 -0.00970783)
(0.088053 0 -0.00840047)
(0.0756472 0 -0.00705634)
(0.0617561 0 -0.00565754)
(0.0462715 0 -0.00418286)
(0.0290807 0 -0.00260709)
(0.0100279 0 -0.0008966)
(0.141395 0 -0.0346616)
(0.14952 0 -0.0360478)
(0.156306 0 -0.0368137)
(0.161019 0 -0.0368821)
(0.163873 0 -0.0363897)
(0.165322 0 -0.0355179)
(0.165799 0 -0.0343983)
(0.165622 0 -0.0331246)
(0.165007 0 -0.0317597)
(0.164051 0 -0.0303297)
(0.162793 0 -0.0288611)
(0.161273 0 -0.0273816)
(0.159444 0 -0.0258948)
(0.157248 0 -0.0244089)
(0.154648 0 -0.0229394)
(0.151564 0 -0.0214871)
(0.147917 0 -0.0200538)
(0.143635 0 -0.0186426)
(0.138633 0 -0.0172522)
(0.132827 0 -0.0158789)
(0.126131 0 -0.0145176)
(0.118457 0 -0.0131617)
(0.109717 0 -0.0118033)
(0.0998137 0 -0.0104317)
(0.0886489 0 -0.00903337)
(0.0761193 0 -0.00759258)
(0.0621171 0 -0.00609044)
(0.0465296 0 -0.00450452)
(0.0292387 0 -0.00280818)
(0.010082 0 -0.00096578)
(0.163753 0 -0.0390003)
(0.171342 0 -0.0401531)
(0.176289 0 -0.0403757)
(0.178636 0 -0.0398594)
(0.179109 0 -0.0388749)
(0.178436 0 -0.0376403)
(0.177083 0 -0.0362646)
(0.175323 0 -0.0348075)
(0.17337 0 -0.0333135)
(0.171274 0 -0.0317921)
(0.169033 0 -0.0302531)
(0.166658 0 -0.0287138)
(0.164088 0 -0.0271775)
(0.161255 0 -0.0256488)
(0.15809 0 -0.0241345)
(0.154512 0 -0.0226367)
(0.150436 0 -0.0211565)
(0.145777 0 -0.0196948)
(0.140448 0 -0.0182499)
(0.134358 0 -0.0168184)
(0.127416 0 -0.015395)
(0.119529 0 -0.0139728)
(0.110604 0 -0.0125432)
(0.10054 0 -0.0110952)
(0.089235 0 -0.00961512)
(0.0765822 0 -0.00808651)
(0.0624697 0 -0.00648978)
(0.0467803 0 -0.00480152)
(0.0293913 0 -0.00299392)
(0.010134 0 -0.00102966)
(0.1866 0 -0.0432936)
(0.192604 0 -0.0438952)
(0.194694 0 -0.0433051)
(0.194244 0 -0.0421326)
(0.192305 0 -0.0406985)
(0.189684 0 -0.0391806)
(0.186774 0 -0.0376335)
(0.183736 0 -0.0360702)
(0.180702 0 -0.034505)
(0.177684 0 -0.0329377)
(0.174654 0 -0.0313695)
(0.171574 0 -0.0298051)
(0.168376 0 -0.0282465)
(0.164986 0 -0.026696)
(0.161324 0 -0.0251572)
(0.157303 0 -0.0236315)
(0.152834 0 -0.0221197)
(0.147828 0 -0.0206216)
(0.142193 0 -0.0191354)
(0.135834 0 -0.0176576)
(0.128657 0 -0.0161831)
(0.120565 0 -0.0147047)
(0.111461 0 -0.0132136)
(0.101241 0 -0.0116985)
(0.0897991 0 -0.0101455)
(0.077026 0 -0.00853786)
(0.062806 0 -0.00685525)
(0.0470181 0 -0.00507358)
(0.0295351 0 -0.00316411)
(0.0101827 0 -0.00108817)
(0.208925 0 -0.0472301)
(0.211596 0 -0.0467246)
(0.209954 0 -0.0451449)
(0.206768 0 -0.0434324)
(0.202869 0 -0.0417372)
(0.198783 0 -0.0400955)
(0.194734 0 -0.0384948)
(0.19079 0 -0.036916)
(0.186975 0 -0.0353492)
(0.183266 0 -0.0337871)
(0.179617 0 -0.0322267)
(0.175972 0 -0.0306681)
(0.172259 0 -0.0291122)
(0.168398 0 -0.0275607)
(0.164307 0 -0.0260155)
(0.159897 0 -0.024478)
(0.155078 0 -0.0229487)
(0.149757 0 -0.0214272)
(0.14384 0 -0.0199118)
(0.137231 0 -0.018399)
(0.129833 0 -0.0168836)
(0.121548 0 -0.0153587)
(0.112272 0 -0.0138153)
(0.101903 0 -0.0122421)
(0.0903304 0 -0.0106249)
(0.0774419 0 -0.00894667)
(0.0631192 0 -0.0071868)
(0.0472378 0 -0.00532061)
(0.0296668 0 -0.00331866)
(0.010227 0 -0.00114127)
(0.227125 0 -0.0496461)
(0.225732 0 -0.0475763)
(0.220878 0 -0.0453813)
(0.215743 0 -0.0435661)
(0.210667 0 -0.0419394)
(0.205757 0 -0.0403944)
(0.201049 0 -0.0388817)
(0.196539 0 -0.0373781)
(0.192206 0 -0.0358733)
(0.188013 0 -0.0343624)
(0.183908 0 -0.0328439)
(0.179829 0 -0.0313185)
(0.175705 0 -0.0297877)
(0.171459 0 -0.0282536)
(0.167008 0 -0.0267183)
(0.162264 0 -0.0251834)
(0.157137 0 -0.0236496)
(0.151536 0 -0.0221167)
(0.145365 0 -0.020583)
(0.138528 0 -0.0190453)
(0.130927 0 -0.0174988)
(0.12246 0 -0.0159365)
(0.113025 0 -0.0143496)
(0.102515 0 -0.0127267)
(0.0908186 0 -0.0110537)
(0.0778216 0 -0.00931323)
(0.0634028 0 -0.00748458)
(0.0474348 0 -0.00554266)
(0.0297836 0 -0.00345758)
(0.0102659 0 -0.00118897)
(0.00835829 0 -0.000392761)
(0.0239993 0 -0.00113092)
(0.0376602 0 -0.00178558)
(0.0495902 0 -0.0023719)
(0.0600171 0 -0.00290215)
(0.0691405 0 -0.00338572)
(0.0771516 0 -0.00383063)
(0.0842036 0 -0.00424223)
(0.0904403 0 -0.00462513)
(0.0960082 0 -0.00498381)
(0.10103 0 -0.00532118)
(0.105616 0 -0.00563964)
(0.109898 0 -0.00594493)
(0.113988 0 -0.00624151)
(0.117999 0 -0.00653443)
(0.122042 0 -0.00683017)
(0.126226 0 -0.00713519)
(0.130673 0 -0.00746137)
(0.135515 0 -0.00782605)
(0.140861 0 -0.00824508)
(0.146848 0 -0.00874107)
(0.153605 0 -0.00934432)
(0.161224 0 -0.010087)
(0.16985 0 -0.0110138)
(0.179524 0 -0.0121695)
(0.190219 0 -0.013607)
(0.201888 0 -0.0153999)
(0.214054 0 -0.0176161)
(0.225896 0 -0.0204586)
(0.236763 0 -0.0246992)
(0.00846422 0 -0.000417687)
(0.0243098 0 -0.00120316)
(0.0381604 0 -0.00190031)
(0.0502789 0 -0.00252609)
(0.0609125 0 -0.00309425)
(0.0702634 0 -0.00361564)
(0.0785167 0 -0.00409843)
(0.0858322 0 -0.004549)
(0.0923584 0 -0.0049729)
(0.0982397 0 -0.00537561)
(0.103592 0 -0.00575965)
(0.108545 0 -0.00613024)
(0.11322 0 -0.00649228)
(0.117734 0 -0.00685311)
(0.122193 0 -0.00721834)
(0.126708 0 -0.00759594)
(0.131393 0 -0.00799613)
(0.136356 0 -0.00843034)
(0.141725 0 -0.00891793)
(0.147588 0 -0.00947632)
(0.154078 0 -0.0101319)
(0.161279 0 -0.0109119)
(0.169244 0 -0.0118495)
(0.178069 0 -0.0129902)
(0.187678 0 -0.0143664)
(0.197942 0 -0.0160277)
(0.208597 0 -0.0180282)
(0.219039 0 -0.0204006)
(0.228594 0 -0.0232638)
(0.236411 0 -0.0267676)
(0.00857499 0 -0.000442673)
(0.024615 0 -0.00127449)
(0.0386517 0 -0.00201367)
(0.0509723 0 -0.00267961)
(0.0618188 0 -0.00328676)
(0.0713973 0 -0.00384654)
(0.0798933 0 -0.004368)
(0.0874706 0 -0.00485841)
(0.0942794 0 -0.0053241)
(0.10046 0 -0.00577076)
(0.106138 0 -0.00620299)
(0.111439 0 -0.00662685)
(0.116484 0 -0.0070476)
(0.121393 0 -0.00747375)
(0.126259 0 -0.00791133)
(0.131189 0 -0.00836967)
(0.136291 0 -0.00885971)
(0.141692 0 -0.00939922)
(0.147465 0 -0.0100009)
(0.153694 0 -0.0106845)
(0.160488 0 -0.0114772)
(0.167874 0 -0.0123993)
(0.17587 0 -0.0134811)
(0.184476 0 -0.0147572)
(0.193547 0 -0.0162473)
(0.202881 0 -0.0179831)
(0.212143 0 -0.0199894)
(0.220851 0 -0.0222895)
(0.228412 0 -0.0249107)
(0.234174 0 -0.0278668)
(0.00867495 0 -0.000466796)
(0.024911 0 -0.00134436)
(0.0391439 0 -0.00212603)
(0.0516648 0 -0.00283195)
(0.0627237 0 -0.00347807)
(0.0725282 0 -0.0040765)
(0.0812639 0 -0.00463695)
(0.0890972 0 -0.00516759)
(0.0961793 0 -0.00567543)
(0.102649 0 -0.00616673)
(0.108633 0 -0.0066472)
(0.114254 0 -0.00712301)
(0.11965 0 -0.00760366)
(0.12491 0 -0.00809381)
(0.130129 0 -0.00860139)
(0.135409 0 -0.00913667)
(0.140861 0 -0.00971305)
(0.146583 0 -0.0103455)
(0.152621 0 -0.0110452)
(0.159052 0 -0.0118321)
(0.165935 0 -0.0127285)
(0.173263 0 -0.0137497)
(0.181019 0 -0.0149191)
(0.189133 0 -0.0162586)
(0.197448 0 -0.0177825)
(0.205735 0 -0.0195043)
(0.213687 0 -0.0214331)
(0.220903 0 -0.0235667)
(0.226923 0 -0.0258807)
(0.231328 0 -0.0283625)
(0.00876195 0 -0.000489808)
(0.0251951 0 -0.00141262)
(0.0396305 0 -0.00223638)
(0.0523467 0 -0.00298165)
(0.0636141 0 -0.00366629)
(0.0736398 0 -0.00430311)
(0.0826093 0 -0.00490248)
(0.0906893 0 -0.00547314)
(0.0980319 0 -0.00602291)
(0.104774 0 -0.00655857)
(0.111042 0 -0.0070866)
(0.116967 0 -0.00761516)
(0.12267 0 -0.00815241)
(0.128228 0 -0.0087027)
(0.13374 0 -0.0092755)
(0.139303 0 -0.00988149)
(0.14501 0 -0.0105336)
(0.150922 0 -0.0112422)
(0.157093 0 -0.0120207)
(0.163568 0 -0.0128852)
(0.170369 0 -0.0138519)
(0.177475 0 -0.0149345)
(0.184832 0 -0.0161476)
(0.192342 0 -0.0175033)
(0.199849 0 -0.0190088)
(0.20714 0 -0.0206686)
(0.213943 0 -0.022474)
(0.219937 0 -0.0244014)
(0.22482 0 -0.026421)
(0.22834 0 -0.0285056)
(0.00884873 0 -0.000512161)
(0.0254595 0 -0.00147813)
(0.0400873 0 -0.00234256)
(0.0530057 0 -0.00312692)
(0.0644769 0 -0.00384935)
(0.0747151 0 -0.00452369)
(0.0839084 0 -0.00516123)
(0.0922229 0 -0.00577123)
(0.0998097 0 -0.00636197)
(0.106805 0 -0.00694079)
(0.113336 0 -0.00751519)
(0.119527 0 -0.0080935)
(0.125479 0 -0.00868168)
(0.13128 0 -0.00928688)
(0.137021 0 -0.00991797)
(0.142784 0 -0.0105848)
(0.148644 0 -0.0112983)
(0.154652 0 -0.0120686)
(0.160847 0 -0.0129073)
(0.167251 0 -0.0138265)
(0.173861 0 -0.0148379)
(0.18064 0 -0.015951)
(0.18752 0 -0.0171741)
(0.194392 0 -0.0185122)
(0.201129 0 -0.0199706)
(0.207526 0 -0.0215386)
(0.213344 0 -0.0231944)
(0.218373 0 -0.0249156)
(0.222423 0 -0.0266748)
(0.225343 0 -0.0284359)
(0.00893192 0 -0.000533397)
(0.0257127 0 -0.0015404)
(0.0405218 0 -0.00244375)
(0.0536294 0 -0.0032654)
(0.0652941 0 -0.00402411)
(0.0757331 0 -0.00473454)
(0.085135 0 -0.00540859)
(0.0936666 0 -0.00605624)
(0.101477 0 -0.0066861)
(0.1087 0 -0.00730595)
(0.115458 0 -0.00792321)
(0.121868 0 -0.00854585)
(0.128025 0 -0.00918047)
(0.134017 0 -0.00983444)
(0.139924 0 -0.0105159)
(0.145817 0 -0.0112337)
(0.151754 0 -0.011997)
(0.157777 0 -0.0128149)
(0.16391 0 -0.0136963)
(0.170158 0 -0.0146501)
(0.176504 0 -0.0156841)
(0.182902 0 -0.0168037)
(0.189278 0 -0.0180124)
(0.195546 0 -0.0193144)
(0.201566 0 -0.0207024)
(0.20716 0 -0.0221571)
(0.212169 0 -0.0236618)
(0.216448 0 -0.0251946)
(0.219876 0 -0.026729)
(0.222368 0 -0.0282302)
(0.00900887 0 -0.000553175)
(0.0259473 0 -0.00159847)
(0.0409228 0 -0.00253807)
(0.0542044 0 -0.00339461)
(0.0660485 0 -0.00418742)
(0.0766729 0 -0.00493181)
(0.086266 0 -0.0056402)
(0.0949933 0 -0.00632297)
(0.103002 0 -0.00698911)
(0.110423 0 -0.00764682)
(0.117375 0 -0.00830334)
(0.123965 0 -0.0089661)
(0.130285 0 -0.00964185)
(0.136418 0 -0.0103379)
(0.142434 0 -0.0110615)
(0.148394 0 -0.0118203)
(0.154345 0 -0.012622)
(0.160317 0 -0.0134737)
(0.166324 0 -0.0143823)
(0.17236 0 -0.0153536)
(0.178399 0 -0.0163921)
(0.184394 0 -0.0174999)
(0.190286 0 -0.01868)
(0.195977 0 -0.0199275)
(0.201339 0 -0.021228)
(0.206254 0 -0.0225679)
(0.210605 0 -0.0239304)
(0.214292 0 -0.025295)
(0.217243 0 -0.026638)
(0.219412 0 -0.02793)
(0.00907719 0 -0.000571153)
(0.0261566 0 -0.00165135)
(0.0412819 0 -0.00262411)
(0.0547207 0 -0.0035127)
(0.066728 0 -0.00433696)
(0.0775206 0 -0.0051127)
(0.0872855 0 -0.00585274)
(0.0961863 0 -0.00656776)
(0.104367 0 -0.00726695)
(0.111957 0 -0.00795852)
(0.119068 0 -0.00864994)
(0.125802 0 -0.00934808)
(0.132245 0 -0.0100594)
(0.138472 0 -0.0107906)
(0.144546 0 -0.0115479)
(0.150521 0 -0.012338)
(0.156432 0 -0.013167)
(0.162303 0 -0.0140403)
(0.168139 0 -0.0149626)
(0.173928 0 -0.0159372)
(0.179641 0 -0.0169658)