/*--------------------------------*- C++ -*----------------------------------*\
| =========                 |                                                 |
| \\      /  F ield         | OpenFOAM: The Open Source CFD Toolbox           |
|  \\    /   O peration     | Version:  dev                                   |
|   \\  /    A nd           | Web:      www.OpenFOAM.org                      |
|    \\/     M anipulation  |                                                 |
\*---------------------------------------------------------------------------*/
FoamFile
{
    version     2.0;
    format      ascii;
    class       volVectorField;
    location    "3.03";
    object      cellDisplacement;
}
// * * * * * * * * * * * * * * * * * * * * * * * * * * * * * * * * * * * * * //

dimensions      [0 1 0 0 0 0 0];

internalField   nonuniform List<vector> 
465
(
(0.101178 0 -0.00142128)
(0.106889 0 -0.00132465)
(0.111385 0 -0.0012298)
(0.114694 0 -0.00113683)
(0.116858 0 -0.00104898)
(0.117922 0 -0.000966228)
(0.117907 0 -0.000888375)
(0.11682 0 -0.000815302)
(0.114658 0 -0.000746336)
(0.111405 0 -0.0006797)
(0.107034 0 -0.000615308)
(0.101512 0 -0.000553553)
(0.0947919 0 -0.000492323)
(0.0868119 0 -0.000431503)
(0.0775286 0 -0.000370041)
(0.0668805 0 -0.000309195)
(0.0547728 0 -0.000246745)
(0.0411319 0 -0.000181898)
(0.0258843 0 -0.000113125)
(0.00892825 0 -3.88532e-05)
(0.102492 0 -0.00421128)
(0.10798 0 -0.00392882)
(0.112284 0 -0.00365075)
(0.115434 0 -0.00337623)
(0.11747 0 -0.00311858)
(0.118428 0 -0.00287523)
(0.118325 0 -0.00264558)
(0.117165 0 -0.00242974)
(0.114944 0 -0.00222602)
(0.111643 0 -0.00202809)
(0.10723 0 -0.00183637)
(0.101673 0 -0.0016482)
(0.0949283 0 -0.00146619)
(0.0869299 0 -0.00128563)
(0.0776263 0 -0.00110474)
(0.0669573 0 -0.000923648)
(0.0548336 0 -0.000737163)
(0.0411773 0 -0.000543607)
(0.0259148 0 -0.000338128)
(0.00893931 0 -0.000116143)
(0.105026 0 -0.00686563)
(0.110079 0 -0.0064122)
(0.114018 0 -0.00596637)
(0.116867 0 -0.00552905)
(0.118657 0 -0.00511487)
(0.11941 0 -0.00472175)
(0.119136 0 -0.00434902)
(0.117835 0 -0.00399843)
(0.115495 0 -0.00366121)
(0.1121 0 -0.00333728)
(0.107614 0 -0.00302431)
(0.101994 0 -0.00271818)
(0.0951918 0 -0.00241982)
(0.0871486 0 -0.00212269)
(0.0778041 0 -0.00182709)
(0.0671043 0 -0.00152901)
(0.0549514 0 -0.00122255)
(0.0412648 0 -0.000902057)
(0.0259745 0 -0.000561138)
(0.00896092 0 -0.000192755)
(0.108622 0 -0.00935182)
(0.113071 0 -0.00874404)
(0.116502 0 -0.00814797)
(0.118928 0 -0.00756844)
(0.120367 0 -0.00701303)
(0.120826 0 -0.00648269)
(0.120305 0 -0.00597679)
(0.118801 0 -0.00549712)
(0.116294 0 -0.00503433)
(0.112758 0 -0.0045916)
(0.108156 0 -0.0041645)
(0.102443 0 -0.00375036)
(0.0955712 0 -0.00334281)
(0.0874634 0 -0.00293659)
(0.0780552 0 -0.00253024)
(0.0672985 0 -0.00211877)
(0.0551032 0 -0.0016959)
(0.0413921 0 -0.00125237)
(0.0260658 0 -0.000780122)
(0.008994 0 -0.000267991)
(0.113109 0 -0.0116575)
(0.116822 0 -0.0109152)
(0.119629 0 -0.0101873)
(0.121531 0 -0.00947997)
(0.12253 0 -0.00879864)
(0.122621 0 -0.00814498)
(0.121793 0 -0.00751804)
(0.120028 0 -0.00691589)
(0.11731 0 -0.006341)
(0.113597 0 -0.00578866)
(0.108848 0 -0.00525477)
(0.103014 0 -0.00473521)
(0.0960415 0 -0.00422472)
(0.0878513 0 -0.00371829)
(0.0783706 0 -0.00320703)
(0.0675486 0 -0.00268712)
(0.0552975 0 -0.00215093)
(0.041533 0 -0.00158875)
(0.0261654 0 -0.000990546)
(0.00903881 0 -0.000340772)
(0.118289 0 -0.0137686)
(0.121172 0 -0.0129118)
(0.123271 0 -0.0120708)
(0.124572 0 -0.0112523)
(0.125065 0 -0.010461)
(0.124732 0 -0.00969888)
(0.123548 0 -0.00896549)
(0.121486 0 -0.00825777)
(0.118517 0 -0.00758021)
(0.114596 0 -0.00692736)
(0.109673 0 -0.00629453)
(0.103693 0 -0.00567682)
(0.0965933 0 -0.00506866)
(0.0883017 0 -0.00446487)
(0.0787417 0 -0.00385434)
(0.0678458 0 -0.00323144)
(0.0555289 0 -0.00258745)
(0.0417039 0 -0.0019117)
(0.0262725 0 -0.00119144)
(0.00907607 0 -0.000410095)
(0.123951 0 -0.0156761)
(0.125952 0 -0.0147249)
(0.127291 0 -0.0137899)
(0.127944 0 -0.0128776)
(0.127886 0 -0.0119925)
(0.127087 0 -0.011137)
(0.125514 0 -0.0103113)
(0.123125 0 -0.00951406)
(0.11988 0 -0.00874552)
(0.115726 0 -0.00800196)
(0.110608 0 -0.0072787)
(0.104462 0 -0.00657045)
(0.0972231 0 -0.00587114)
(0.088815 0 -0.00517399)
(0.0791603 0 -0.00446952)
(0.0681814 0 -0.0037494)
(0.0557906 0 -0.00300341)
(0.0419012 0 -0.00221995)
(0.0263857 0 -0.00138343)
(0.0091046 0 -0.000475674)
(0.129908 0 -0.0173813)
(0.130993 0 -0.0163493)
(0.131553 0 -0.0153396)
(0.131533 0 -0.0143507)
(0.130901 0 -0.0133879)
(0.129615 0 -0.0124541)
(0.127629 0 -0.0115498)
(0.124893 0 -0.0106742)
(0.121353 0 -0.00982617)
(0.116951 0 -0.00900229)
(0.111622 0 -0.00819798)
(0.1053 0 -0.00740768)
(0.0979098 0 -0.00662491)
(0.0893756 0 -0.00584214)
(0.0796158 0 -0.00505012)
(0.0685469 0 -0.00423904)
(0.0560745 0 -0.00339705)
(0.042102 0 -0.00251119)
(0.0265013 0 -0.00156552)
(0.00914103 0 -0.000538092)
(0.135966 0 -0.0188832)
(0.136146 0 -0.0177892)
(0.135922 0 -0.0167179)
(0.13523 0 -0.0156691)
(0.13402 0 -0.0146443)
(0.13224 0 -0.0136468)
(0.129834 0 -0.0126773)
(0.126741 0 -0.0117353)
(0.122898 0 -0.0108191)
(0.118239 0 -0.0099253)
(0.112691 0 -0.0090494)
(0.106183 0 -0.00818573)
(0.0986354 0 -0.00732749)
(0.0899681 0 -0.00646673)
(0.0800964 0 -0.00559403)
(0.0689334 0 -0.00469874)
(0.0563762 0 -0.00376709)
(0.042304 0 -0.00278535)
(0.0266112 0 -0.00173614)
(0.00918009 0 -0.000596873)
(0.14192 0 -0.0201749)
(0.141252 0 -0.0190425)
(0.140271 0 -0.0179258)
(0.138927 0 -0.0168321)
(0.137155 0 -0.0157604)
(0.134892 0 -0.0147134)
(0.132071 0 -0.0136919)
(0.128623 0 -0.0126955)
(0.124477 0 -0.0117222)
(0.119557 0 -0.0107688)
(0.113788 0 -0.0098308)
(0.10709 0 -0.00890247)
(0.0993817 0 -0.00797687)
(0.090577 0 -0.00704576)
(0.0805892 0 -0.00609951)
(0.0693327 0 -0.00512733)
(0.0566747 0 -0.0041126)
(0.0425002 0 -0.00304138)
(0.0267293 0 -0.00189592)
(0.00922099 0 -0.000651866)
(0.147605 0 -0.0212603)
(0.146153 0 -0.0201061)
(0.144476 0 -0.0189633)
(0.142525 0 -0.0178405)
(0.140225 0 -0.0167365)
(0.137503 0 -0.0156537)
(0.134285 0 -0.014593)
(0.130493 0 -0.0135538)
(0.12605 0 -0.0125344)
(0.120875 0 -0.0115315)
(0.114887 0 -0.0105407)
(0.108001 0 -0.00955644)
(0.10013 0 -0.00857156)
(0.0911872 0 -0.00757771)
(0.0810801 0 -0.00656502)
(0.0697207 0 -0.00552244)
(0.0569662 0 -0.00443262)
(0.0426999 0 -0.00327869)
(0.0268496 0 -0.00204418)
(0.00926228 0 -0.000702889)
(0.152877 0 -0.0221443)
(0.150733 0 -0.0209861)
(0.148434 0 -0.0198335)
(0.145937 0 -0.0186966)
(0.143155 0 -0.0175744)
(0.140011 0 -0.0164689)
(0.136423 0 -0.0153811)
(0.132308 0 -0.0143105)
(0.127583 0 -0.0132554)
(0.122164 0 -0.0122128)
(0.115963 0 -0.0111784)
(0.108893 0 -0.0101467)
(0.100864 0 -0.00911057)
(0.0917836 0 -0.00806152)
(0.0815567 0 -0.00698949)
(0.0700897 0 -0.00588305)
(0.0572419 0 -0.00472513)
(0.0428938 0 -0.00349646)
(0.026967 0 -0.00218046)
(0.0093024 0 -0.000749793)
(0.157615 0 -0.0228344)
(0.154894 0 -0.02169)
(0.152074 0 -0.0205453)
(0.149104 0 -0.0194085)
(0.145899 0 -0.0182814)
(0.142376 0 -0.0171656)
(0.138452 0 -0.0160621)
(0.134039 0 -0.0149706)
(0.129052 0 -0.0138897)
(0.123401 0 -0.0128166)
(0.116999 0 -0.0117472)
(0.109753 0 -0.010676)
(0.10157 0 -0.00959612)
(0.0923558 0 -0.00849901)
(0.0820104 0 -0.00737434)
(0.0704306 0 -0.00620985)
(0.0574922 0 -0.00498978)
(0.0430752 0 -0.00369429)
(0.027077 0 -0.00230442)
(0.00933968 0 -0.00079245)
(0.161771 0 -0.0233454)
(0.158592 0 -0.0222304)
(0.155355 0 -0.0211091)
(0.151992 0 -0.0199871)
(0.148425 0 -0.0188676)
(0.144573 0 -0.0177529)
(0.140349 0 -0.016644)
(0.135667 0 -0.0155413)
(0.130438 0 -0.0144434)
(0.124573 0 -0.013348)
(0.117981 0 -0.0122513)
(0.110568 0 -0.011148)
(0.102239 0 -0.0100313)
(0.0928958 0 -0.00889271)
(0.0824367 0 -0.0077218)
(0.0707541 0 -0.00650593)
(0.057729 0 -0.00522939)
(0.0432416 0 -0.00387316)
(0.0271767 0 -0.0024165)
(0.00937303 0 -0.000830999)
(0.16535 0 -0.0236967)
(0.161826 0 -0.0226249)
(0.158257 0 -0.0215386)
(0.154576 0 -0.0204429)
(0.150709 0 -0.0193415)
(0.146574 0 -0.0182374)
(0.142089 0 -0.0171323)
(0.137168 0 -0.0160267)
(0.131722 0 -0.0149198)
(0.125661 0 -0.0138097)
(0.118893 0 -0.0126928)
(0.111324 0 -0.0115641)
(0.102858 0 -0.0104171)
(0.0933935 0 -0.00924332)
(0.0828277 0 -0.00803235)
(0.0710507 0 -0.00677144)
(0.0579453 0 -0.00544495)
(0.0433906 0 -0.0040341)
(0.0272646 0 -0.00251735)
(0.0094022 0 -0.000865673)
(0.1722 0 -0.0248968)
(0.16842 0 -0.0239111)
(0.164646 0 -0.0228946)
(0.160823 0 -0.0218536)
(0.156889 0 -0.0207937)
(0.152772 0 -0.0197195)
(0.148398 0 -0.0186344)
(0.143686 0 -0.0175408)
(0.138551 0 -0.0164396)
(0.132909 0 -0.0153306)
(0.126668 0 -0.0142122)
(0.119738 0 -0.0130813)
(0.112024 0 -0.0119331)
(0.103428 0 -0.0107614)
(0.0938492 0 -0.00955776)
(0.083183 0 -0.00831199)
(0.0713185 0 -0.00701133)
(0.0581385 0 -0.00564024)
(0.0435211 0 -0.00418003)
(0.0273401 0 -0.00260879)
(0.00942693 0 -0.000897092)
(0.174917 0 -0.0249081)
(0.171 0 -0.024)
(0.16706 0 -0.0230485)
(0.163055 0 -0.0220617)
(0.158925 0 -0.021046)
(0.154609 0 -0.0200068)
(0.150035 0 -0.0189483)
(0.145128 0 -0.0178733)
(0.139807 0 -0.0167834)
(0.133989 0 -0.0156787)
(0.127586 0 -0.0145582)
(0.120507 0 -0.0134191)
(0.112657 0 -0.0122569)
(0.103941 0 -0.0110657)
(0.0942555 0 -0.00983739)
(0.083496 0 -0.00856185)
(0.0715509 0 -0.00722647)
(0.0583031 0 -0.00581583)
(0.0436293 0 -0.00431137)
(0.0274008 0 -0.00269109)
(0.00944627 0 -0.000925341)
(0.169042 0 -0.0230946)
(0.164918 0 -0.022168)
(0.16065 0 -0.0212026)
(0.156181 0 -0.0202044)
(0.151449 0 -0.0191785)
(0.146382 0 -0.0181282)
(0.140904 0 -0.0170555)
(0.134935 0 -0.0159611)
(0.128388 0 -0.0148441)
(0.121176 0 -0.0137023)
(0.113205 0 -0.0125316)
(0.104379 0 -0.0113263)
(0.0945976 0 -0.0100786)
(0.083754 0 -0.0087786)
(0.0717374 0 -0.00741388)
(0.0584304 0 -0.00596923)
(0.043709 0 -0.00442625)
(0.027443 0 -0.00276304)
(0.00945898 0 -0.00095001)
(0.162052 0 -0.0212696)
(0.157475 0 -0.0203167)
(0.152623 0 -0.0193281)
(0.14743 0 -0.0183074)
(0.141824 0 -0.017257)
(0.135727 0 -0.0161779)
(0.129058 0 -0.0150696)
(0.12173 0 -0.0139303)
(0.113653 0 -0.0127563)
(0.104731 0 -0.0115421)
(0.0948641 0 -0.0102802)
(0.0839472 0 -0.00896103)
(0.0718694 0 -0.00757241)
(0.0585135 0 -0.0060994)
(0.0437552 0 -0.00452387)
(0.0274635 0 -0.00282416)
(0.00946399 0 -0.000970922)
(0.158479 0 -0.0203484)
(0.153544 0 -0.0194006)
(0.148256 0 -0.0184132)
(0.142549 0 -0.0173893)
(0.13635 0 -0.0163299)
(0.129579 0 -0.015235)
(0.122155 0 -0.0141029)
(0.113987 0 -0.0129303)
(0.104983 0 -0.0117121)
(0.0950443 0 -0.0104412)
(0.0840663 0 -0.00910812)
(0.0719391 0 -0.00770109)
(0.058546 0 -0.00620549)
(0.0437632 0 -0.00460354)
(0.0274594 0 -0.00287398)
(0.00946031 0 -0.000987925)
(0.148851 0 -0.0184488)
(0.14307 0 -0.0174544)
(0.136792 0 -0.0164184)
(0.12994 0 -0.0153406)
(0.122437 0 -0.01422)
(0.114196 0 -0.0130534)
(0.105125 0 -0.011836)
(0.0951285 0 -0.0105609)
(0.0841027 0 -0.0092191)
(0.071939 0 -0.00779914)
(0.058522 0 -0.00628679)
(0.0437286 0 -0.00466471)
(0.027428 0 -0.00291216)
(0.00944701 0 -0.00100089)
(0.137044 0 -0.0164449)
(0.13013 0 -0.0153874)
(0.122567 0 -0.014282)
(0.11427 0 -0.0131255)
(0.105148 0 -0.0119133)
(0.0951082 0 -0.0106388)
(0.0840488 0 -0.0092934)
(0.0718629 0 -0.00786597)
(0.0584363 0 -0.00634274)
(0.0436475 0 -0.00470693)
(0.027367 0 -0.0029384)
(0.00942329 0 -0.00100973)
(0.130141 0 -0.0153763)
(0.122537 0 -0.0142895)
(0.114201 0 -0.013147)
(0.105044 0 -0.011944)
(0.0949763 0 -0.0106747)
(0.0838984 0 -0.00933067)
(0.0717051 0 -0.00790117)
(0.0582845 0 -0.00637298)
(0.0435167 0 -0.00472988)
(0.0272743 0 -0.0029525)
(0.00938848 0 -0.00101436)
(0.113986 0 -0.0131185)
(0.104807 0 -0.0119284)
(0.0947269 0 -0.0106686)
(0.0836464 0 -0.00933075)
(0.0714615 0 -0.00790453)
(0.058063 0 -0.00637725)
(0.0433336 0 -0.00473338)
(0.0271484 0 -0.00295435)
(0.00934208 0 -0.00101475)
(0.104433 0 -0.0118666)
(0.0943562 0 -0.0106205)
(0.0832899 0 -0.00929371)
(0.071129 0 -0.00787599)
(0.0577694 0 -0.00635547)
(0.0430966 0 -0.00471735)
(0.0269884 0 -0.00294388)
(0.0092838 0 -0.00101089)
(0.0828294 0 -0.0092201)
(0.070706 0 -0.00781564)
(0.0574023 0 -0.00630768)
(0.0428051 0 -0.00468184)
(0.0267939 0 -0.00292116)
(0.00921354 0 -0.0010028)
(0.0701918 0 -0.00772364)
(0.0569613 0 -0.00623399)
(0.0424596 0 -0.00462704)
(0.0265654 0 -0.00288629)
(0.00913149 0 -0.000990511)
(0.0420644 0 -0.00455351)
(0.0263043 0 -0.00283947)
(0.00903807 0 -0.000974101)
(0.0260127 0 -0.00278098)
(0.00893409 0 -0.00095366)
(0.00882147 0 -0.000929396)
)
;

boundaryField
{
    inlet
    {
        type            cellMotion;
        value           nonuniform 0();
    }
    outlet
    {
        type            cellMotion;
        value           uniform (0 0 0);
    }
    flap
    {
        type            cellMotion;
        value           nonuniform 0();
    }
    upperWall
    {
        type            slip;
    }
    lowerWall
    {
        type            slip;
    }
    frontAndBack
    {
        type            empty;
    }
    procBoundary5to2
    {
        type            processor;
        value           nonuniform List<vector> 
34
(
(0.177037 0 -0.0247997)
(0.173069 0 -0.0239749)
(0.173069 0 -0.0239749)
(0.170582 0 -0.0230423)
(0.166404 0 -0.0221802)
(0.166404 0 -0.0221802)
(0.163115 0 -0.0212519)
(0.163115 0 -0.0212519)
(0.159173 0 -0.0203022)
(0.154199 0 -0.019399)
(0.154199 0 -0.019399)
(0.149192 0 -0.018414)
(0.143373 0 -0.0174537)
(0.143373 0 -0.0174537)
(0.137085 0 -0.0164087)
(0.137085 0 -0.0164087)
(0.12995 0 -0.0153058)
(0.122338 0 -0.0142427)
(0.122338 0 -0.0142427)
(0.113604 0 -0.0130383)
(0.113604 0 -0.0130383)
(0.103902 0 -0.0117565)
(0.0938604 0 -0.0105304)
(0.0938604 0 -0.0105304)
(0.0822469 0 -0.00910775)
(0.0822469 0 -0.00910775)
(0.0695679 0 -0.00759774)
(0.0564468 0 -0.00613445)
(0.0564468 0 -0.00613445)
(0.041602 0 -0.00445919)
(0.041602 0 -0.00445919)
(0.0256748 0 -0.00270898)
(0.0256748 0 -0.00270898)
(0.00868207 0 -0.000899331)
)
;
    }
    procBoundary5to4
    {
        type            processor;
        value           nonuniform List<vector> 
18
(
(0.0942106 0 -0.00151962)
(0.095778 0 -0.00449521)
(0.0988111 0 -0.00732195)
(0.103117 0 -0.00996694)
(0.108468 0 -0.012409)
(0.114618 0 -0.0146354)
(0.121313 0 -0.0166397)
(0.128311 0 -0.0184205)
(0.135381 0 -0.0199757)
(0.1423 0 -0.0213055)
(0.14887 0 -0.0224118)
(0.154918 0 -0.0232986)
(0.1603 0 -0.0239725)
(0.164955 0 -0.024449)
(0.168891 0 -0.0247485)
(0.168891 0 -0.0247485)
(0.176033 0 -0.0258451)
(0.178854 0 -0.0257644)
)
;
    }
}


// ************************************************************************* //
