/*--------------------------------*- C++ -*----------------------------------*\
| =========                 |                                                 |
| \\      /  F ield         | OpenFOAM: The Open Source CFD Toolbox           |
|  \\    /   O peration     | Version:  dev                                   |
|   \\  /    A nd           | Web:      www.OpenFOAM.org                      |
|    \\/     M anipulation  |                                                 |
\*---------------------------------------------------------------------------*/
FoamFile
{
    version     2.0;
    format      ascii;
    class       pointVectorField;
    location    "2.14";
    object      pointDisplacement;
}
// * * * * * * * * * * * * * * * * * * * * * * * * * * * * * * * * * * * * * //

dimensions      [0 1 0 0 0 0 0];

internalField   nonuniform List<vector> 
1030
(
(0 0 0)
(0.0250319 0 0)
(0.0471958 0 0)
(0.0658579 0 0)
(0.0813873 0 0)
(0.0941269 0 0)
(0.104374 0 0)
(0.112398 0 0)
(0.118432 0 0)
(0.12267 0 0)
(0.125282 0 0)
(0.126414 0 0)
(0.126197 0 0)
(0.124745 0 0)
(0.122161 0 0)
(0.118536 0 0)
(0.113953 0 0)
(0.108491 0 0)
(0.102221 0 0)
(0.0952194 0 0)
(0.0875642 0 0)
(0.0793363 0 0)
(0 0 0)
(0.0250489 0 -0.000260096)
(0.0472283 0 -0.000493466)
(0.0659063 0 -0.000697092)
(0.0814531 0 -0.000876614)
(0.0942112 0 -0.00103653)
(0.104477 0 -0.00117967)
(0.112522 0 -0.00130798)
(0.11858 0 -0.00142285)
(0.122845 0 -0.00152469)
(0.125487 0 -0.0016135)
(0.126654 0 -0.00168951)
(0.126476 0 -0.00175043)
(0.125068 0 -0.00179354)
(0.122534 0 -0.00181747)
(0.118966 0 -0.00181937)
(0.114449 0 -0.00179552)
(0.109062 0 -0.00174132)
(0.102879 0 -0.00165084)
(0.0959774 0 -0.00151872)
(0.0884396 0 -0.0013381)
(0.0803508 0 -0.00109889)
(0 0 0)
(0.0250995 0 -0.000520867)
(0.0473274 0 -0.000988359)
(0.0660529 0 -0.00139645)
(0.0816486 0 -0.00175632)
(0.0944593 0 -0.00207577)
(0.104784 0 -0.00236168)
(0.112895 0 -0.00261921)
(0.119025 0 -0.00285013)
(0.123371 0 -0.00305519)
(0.126104 0 -0.00323425)
(0.127372 0 -0.00338667)
(0.127308 0 -0.00350935)
(0.126031 0 -0.00359848)
(0.123646 0 -0.0036505)
(0.120248 0 -0.00365973)
(0.115927 0 -0.00361908)
(0.110767 0 -0.00352)
(0.104845 0 -0.00335196)
(0.0982432 0 -0.00310354)
(0.0910543 0 -0.00276097)
(0.0833774 0 -0.00230645)
(0 0 0)
(0.0251836 0 -0.000781368)
(0.0474921 0 -0.00148291)
(0.066296 0 -0.00209562)
(0.0819708 0 -0.00263631)
(0.094868 0 -0.00311708)
(0.105292 0 -0.00354814)
(0.113513 0 -0.00393691)
(0.119764 0 -0.00428622)
(0.124245 0 -0.00459736)
(0.127127 0 -0.00486988)
(0.128563 0 -0.00510113)
(0.128689 0 -0.00528899)
(0.127628 0 -0.00543048)
(0.12549 0 -0.00551898)
(0.122374 0 -0.00554626)
(0.118375 0 -0.0055024)
(0.113584 0 -0.0053757)
(0.108092 0 -0.00515333)
(0.101989 0 -0.00481807)
(0.0953784 0 -0.00434959)
(0.0883772 0 -0.00372577)
(0 0 0)
(0.0253001 0 -0.00104074)
(0.0477204 0 -0.00197556)
(0.0666331 0 -0.00279248)
(0.0824197 0 -0.0035141)
(0.0954387 0 -0.00415765)
(0.105999 0 -0.00473599)
(0.11437 0 -0.00525799)
(0.120788 0 -0.00572831)
(0.125454 0 -0.006149)
(0.128545 0 -0.00651969)
(0.130215 0 -0.00683725)
(0.130605 0 -0.00709936)
(0.129844 0 -0.00730289)
(0.128047 0 -0.00744003)
(0.12532 0 -0.00750065)
(0.121764 0 -0.00747278)
(0.117479 0 -0.00734194)
(0.11257 0 -0.0070943)
(0.107149 0 -0.00671128)
(0.101337 0 -0.00616983)
(0.0952708 0 -0.00544611)
(0 0 0)
(0.0254478 0 -0.00129872)
(0.0480104 0 -0.00246591)
(0.067061 0 -0.00348663)
(0.0829903 0 -0.00438925)
(0.0961645 0 -0.00519601)
(0.106896 0 -0.00592263)
(0.115457 0 -0.00657989)
(0.122085 0 -0.00717417)
(0.126985 0 -0.00770855)
(0.130339 0 -0.00818325)
(0.132307 0 -0.00859594)
(0.133032 0 -0.00894279)
(0.132649 0 -0.0092204)
(0.131282 0 -0.00942177)
(0.129046 0 -0.00953549)
(0.126052 0 -0.00954898)
(0.122409 0 -0.00944696)
(0.118236 0 -0.00921406)
(0.113665 0 -0.00883255)
(0.108847 0 -0.00828256)
(0.103952 0 -0.00754389)
(0 0 0)
(0.0256259 0 -0.0015556)
(0.0483601 0 -0.002954)
(0.0675759 0 -0.00417758)
(0.0836768 0 -0.00526122)
(0.0970382 0 -0.00623191)
(0.107975 0 -0.0071083)
(0.116763 0 -0.00790336)
(0.123643 0 -0.00862532)
(0.128825 0 -0.00927855)
(0.132495 0 -0.00986421)
(0.134819 0 -0.0103808)
(0.135947 0 -0.0108251)
(0.136019 0 -0.0111929)
(0.135168 0 -0.0114771)
(0.133517 0 -0.0116671)
(0.131192 0 -0.0117514)
(0.128318 0 -0.0117167)
(0.125026 0 -0.0115466)
(0.121461 0 -0.0112241)
(0.11781 0 -0.0107376)
(0.114286 0 -0.0100766)
(0 0 0)
(0.0258281 0 -0.00181135)
(0.0487582 0 -0.00343977)
(0.0681695 0 -0.00486585)
(0.0844743 0 -0.00613127)
(0.0980544 0 -0.0072672)
(0.10923 0 -0.00829551)
(0.118281 0 -0.0092316)
(0.125453 0 -0.0100857)
(0.130961 0 -0.0108639)
(0.134997 0 -0.0115684)
(0.137732 0 -0.0121992)
(0.139327 0 -0.0127553)
(0.139927 0 -0.0132312)
(0.139668 0 -0.0136182)
(0.138688 0 -0.0139094)
(0.137127 0 -0.0140955)
(0.135125 0 -0.0141653)
(0.132834 0 -0.0141071)
(0.130426 0 -0.01391)
(0.128108 0 -0.0135686)
(0.12613 0 -0.0130846)
(0 0 0)
(0.0260521 0 -0.00206499)
(0.0492013 0 -0.00392265)
(0.0688379 0 -0.0055519)
(0.0853776 0 -0.00700019)
(0.0992061 0 -0.00830305)
(0.110651 0 -0.00948584)
(0.12 0 -0.0105666)
(0.127502 0 -0.0115578)
(0.133377 0 -0.0124675)
(0.137824 0 -0.0132992)
(0.14102 0 -0.0140542)
(0.143134 0 -0.0147335)
(0.14432 0 -0.0153325)
(0.14472 0 -0.015843)
(0.144487 0 -0.0162619)
(0.143778 0 -0.0165843)
(0.142746 0 -0.0168017)
(0.141568 0 -0.0169092)
(0.140446 0 -0.0169064)
(0.139603 0 -0.016794)
(0.139322 0 -0.0165886)
(0 0 0)
(0.0263003 0 -0.00231579)
(0.0496935 0 -0.0044012)
(0.0695782 0 -0.00623311)
(0.0863765 0 -0.00786439)
(0.10048 0 -0.00933527)
(0.112223 0 -0.0106746)
(0.121899 0 -0.0119032)
(0.129764 0 -0.0130362)
(0.136045 0 -0.0140838)
(0.140942 0 -0.0150511)
(0.144641 0 -0.0159404)
(0.147321 0 -0.0167547)
(0.149145 0 -0.0174934)
(0.150268 0 -0.0181514)
(0.150853 0 -0.0187282)
(0.151072 0 -0.0192223)
(0.1511 0 -0.0196328)
(0.151127 0 -0.0199598)
(0.151382 0 -0.0202135)
(0.152125 0 -0.020411)
(0.153671 0 -0.0205857)
(0 0 0)
(0.0265701 0 -0.00256322)
(0.0502285 0 -0.00487378)
(0.0703819 0 -0.00690666)
(0.0874601 0 -0.00872037)
(0.101862 0 -0.0103598)
(0.113928 0 -0.0118575)
(0.123957 0 -0.0132365)
(0.132215 0 -0.0145157)
(0.138933 0 -0.0157078)
(0.144317 0 -0.0168192)
(0.148562 0 -0.0178552)
(0.151853 0 -0.0188208)
(0.154365 0 -0.0197181)
(0.156267 0 -0.0205478)
(0.15773 0 -0.021311)
(0.158932 0 -0.0220089)
(0.160077 0 -0.0226512)
(0.161379 0 -0.0232483)
(0.163087 0 -0.0238209)
(0.1655 0 -0.0244046)
(0.168967 0 -0.0250528)
(0 0 0)
(0.0268586 0 -0.00280674)
(0.0508011 0 -0.00533944)
(0.0712416 0 -0.00757134)
(0.0886193 0 -0.00956668)
(0.10334 0 -0.0113751)
(0.115751 0 -0.0130328)
(0.12616 0 -0.0145665)
(0.134841 0 -0.0159978)
(0.142026 0 -0.017341)
(0.147928 0 -0.0186054)
(0.152755 0 -0.0198006)
(0.156697 0 -0.0209324)
(0.159932 0 -0.0220045)
(0.162646 0 -0.0230237)
(0.165023 0 -0.0239964)
(0.167259 0 -0.0249313)
(0.16957 0 -0.0258445)
(0.172196 0 -0.0267588)
(0.175414 0 -0.0277087)
(0.179548 0 -0.028746)
(0.184981 0 -0.0299465)
(0 0 0)
(0.0271642 0 -0.00304641)
(0.0514079 0 -0.00579827)
(0.0721524 0 -0.00822735)
(0.0898475 0 -0.0104036)
(0.104907 0 -0.0123815)
(0.117686 0 -0.0142012)
(0.128499 0 -0.0158941)
(0.137626 0 -0.017483)
(0.145302 0 -0.0189831)
(0.151747 0 -0.0204077)
(0.157178 0 -0.0217699)
(0.16179 0 -0.0230774)
(0.165775 0 -0.0243388)
(0.169329 0 -0.0255667)
(0.172653 0 -0.0267732)
(0.17596 0 -0.0279763)
(0.17947 0 -0.0291961)
(0.183444 0 -0.030467)
(0.188194 0 -0.0318418)
(0.194065 0 -0.0333891)
(0.201477 0 -0.0352081)
(0 0 0)
(0.0274852 0 -0.00328216)
(0.0520449 0 -0.00625019)
(0.0731086 0 -0.00887452)
(0.0911368 0 -0.0112308)
(0.106553 0 -0.0133786)
(0.119718 0 -0.0153618)
(0.130953 0 -0.0172149)
(0.140539 0 -0.0189631)
(0.148721 0 -0.0206245)
(0.155726 0 -0.0222151)
(0.161776 0 -0.023751)
(0.167079 0 -0.0252456)
(0.171837 0 -0.0267121)
(0.17626 0 -0.0281686)
(0.180549 0 -0.0296302)
(0.184929 0 -0.0311218)
(0.189645 0 -0.0326754)
(0.194974 0 -0.0343372)
(0.201247 0 -0.0361737)
(0.208834 0 -0.0382724)
(0.21819 0 -0.0407576)
(0 0 0)
(0.0278173 0 -0.00351262)
(0.0527045 0 -0.0066926)
(0.0740989 0 -0.0095092)
(0.0924725 0 -0.0120437)
(0.108258 0 -0.0143605)
(0.121822 0 -0.0165073)
(0.133488 0 -0.0185204)
(0.143546 0 -0.0204293)
(0.152248 0 -0.0222563)
(0.159828 0 -0.0240196)
(0.166516 0 -0.0257392)
(0.172529 0 -0.027433)
(0.178071 0 -0.0291163)
(0.18336 0 -0.0308119)
(0.188613 0 -0.0325435)
(0.194062 0 -0.0343415)
(0.199971 0 -0.0362498)
(0.206634 0 -0.0383261)
(0.214384 0 -0.0406468)
(0.223623 0 -0.0433206)
(0.234826 0 -0.0464921)
(0 0 0)
(0.0281596 0 -0.00373839)
(0.0533853 0 -0.00712687)
(0.0751219 0 -0.0101335)
(0.0938526 0 -0.0128448)
(0.110021 0 -0.0153306)
(0.123998 0 -0.0176422)
(0.13611 0 -0.0198187)
(0.146658 0 -0.0218935)
(0.155897 0 -0.0238915)
(0.16407 0 -0.0258356)
(0.171411 0 -0.0277474)
(0.178135 0 -0.0296465)
(0.184463 0 -0.0315556)
(0.190621 0 -0.0335025)
(0.196838 0 -0.0355189)
(0.203349 0 -0.03764)
(0.210425 0 -0.0399177)
(0.21838 0 -0.0424238)
(0.227552 0 -0.0452446)
(0.238349 0 -0.0485021)
(0.251259 0 -0.0523606)
(0 0 0)
(0.0250319 0 0)
(0.0471958 0 0)
(0.0658579 0 0)
(0.0813873 0 0)
(0.0941269 0 0)
(0.104374 0 0)
(0.112398 0 0)
(0.118432 0 0)
(0.12267 0 0)
(0.125282 0 0)
(0.126414 0 0)
(0.126197 0 0)
(0.124745 0 0)
(0.122161 0 0)
(0.118536 0 0)
(0.113953 0 0)
(0.108491 0 0)
(0.102221 0 0)
(0.0952194 0 0)
(0.0875642 0 0)
(0.0793363 0 0)
(0 0 0)
(0.0250489 0 -0.000260096)
(0.0472283 0 -0.000493466)
(0.0659063 0 -0.000697092)
(0.0814531 0 -0.000876614)
(0.0942112 0 -0.00103653)
(0.104477 0 -0.00117967)
(0.112522 0 -0.00130798)
(0.11858 0 -0.00142285)
(0.122845 0 -0.00152469)
(0.125487 0 -0.0016135)
(0.126654 0 -0.00168951)
(0.126476 0 -0.00175043)
(0.125068 0 -0.00179354)
(0.122534 0 -0.00181747)
(0.118966 0 -0.00181937)
(0.114449 0 -0.00179552)
(0.109062 0 -0.00174132)
(0.102879 0 -0.00165084)
(0.0959774 0 -0.00151872)
(0.0884396 0 -0.0013381)
(0.0803508 0 -0.00109889)
(0 0 0)
(0.0250995 0 -0.000520867)
(0.0473274 0 -0.000988359)
(0.0660529 0 -0.00139645)
(0.0816486 0 -0.00175632)
(0.0944593 0 -0.00207577)
(0.104784 0 -0.00236168)
(0.112895 0 -0.00261921)
(0.119025 0 -0.00285013)
(0.123371 0 -0.00305519)
(0.126104 0 -0.00323425)
(0.127372 0 -0.00338667)
(0.127308 0 -0.00350935)
(0.126031 0 -0.00359848)
(0.123646 0 -0.0036505)
(0.120248 0 -0.00365973)
(0.115927 0 -0.00361908)
(0.110767 0 -0.00352)
(0.104845 0 -0.00335196)
(0.0982432 0 -0.00310354)
(0.0910543 0 -0.00276097)
(0.0833774 0 -0.00230645)
(0 0 0)
(0.0251836 0 -0.000781368)
(0.0474921 0 -0.00148291)
(0.066296 0 -0.00209562)
(0.0819708 0 -0.00263631)
(0.094868 0 -0.00311708)
(0.105292 0 -0.00354814)
(0.113513 0 -0.00393691)
(0.119764 0 -0.00428622)
(0.124245 0 -0.00459736)
(0.127127 0 -0.00486988)
(0.128563 0 -0.00510113)
(0.128689 0 -0.00528899)
(0.127628 0 -0.00543048)
(0.12549 0 -0.00551898)
(0.122374 0 -0.00554626)
(0.118375 0 -0.0055024)
(0.113584 0 -0.0053757)
(0.108092 0 -0.00515333)
(0.101989 0 -0.00481807)
(0.0953784 0 -0.00434959)
(0.0883772 0 -0.00372577)
(0 0 0)
(0.0253001 0 -0.00104074)
(0.0477204 0 -0.00197556)
(0.0666331 0 -0.00279248)
(0.0824197 0 -0.0035141)
(0.0954387 0 -0.00415765)
(0.105999 0 -0.00473599)
(0.11437 0 -0.00525799)
(0.120788 0 -0.00572831)
(0.125454 0 -0.006149)
(0.128545 0 -0.00651969)
(0.130215 0 -0.00683725)
(0.130605 0 -0.00709936)
(0.129844 0 -0.00730289)
(0.128047 0 -0.00744003)
(0.12532 0 -0.00750065)
(0.121764 0 -0.00747278)
(0.117479 0 -0.00734194)
(0.11257 0 -0.0070943)
(0.107149 0 -0.00671128)
(0.101337 0 -0.00616983)
(0.0952708 0 -0.00544611)
(0 0 0)
(0.0254478 0 -0.00129872)
(0.0480104 0 -0.00246591)
(0.067061 0 -0.00348663)
(0.0829903 0 -0.00438925)
(0.0961645 0 -0.00519601)
(0.106896 0 -0.00592263)
(0.115457 0 -0.00657989)
(0.122085 0 -0.00717417)
(0.126985 0 -0.00770855)
(0.130339 0 -0.00818325)
(0.132307 0 -0.00859594)
(0.133032 0 -0.00894279)
(0.132649 0 -0.0092204)
(0.131282 0 -0.00942177)
(0.129046 0 -0.00953549)
(0.126052 0 -0.00954898)
(0.122409 0 -0.00944696)
(0.118236 0 -0.00921406)
(0.113665 0 -0.00883255)
(0.108847 0 -0.00828256)
(0.103952 0 -0.00754389)
(0 0 0)
(0.0256259 0 -0.0015556)
(0.0483601 0 -0.002954)
(0.0675759 0 -0.00417758)
(0.0836768 0 -0.00526122)
(0.0970382 0 -0.00623191)
(0.107975 0 -0.0071083)
(0.116763 0 -0.00790336)
(0.123643 0 -0.00862532)
(0.128825 0 -0.00927855)
(0.132495 0 -0.00986421)
(0.134819 0 -0.0103808)
(0.135947 0 -0.0108251)
(0.136019 0 -0.0111929)
(0.135168 0 -0.0114771)
(0.133517 0 -0.0116671)
(0.131192 0 -0.0117514)
(0.128318 0 -0.0117167)
(0.125026 0 -0.0115466)
(0.121461 0 -0.0112241)
(0.11781 0 -0.0107376)
(0.114286 0 -0.0100766)
(0 0 0)
(0.0258281 0 -0.00181135)
(0.0487582 0 -0.00343977)
(0.0681695 0 -0.00486585)
(0.0844743 0 -0.00613127)
(0.0980544 0 -0.0072672)
(0.10923 0 -0.00829551)
(0.118281 0 -0.0092316)
(0.125453 0 -0.0100857)
(0.130961 0 -0.0108639)
(0.134997 0 -0.0115684)
(0.137732 0 -0.0121992)
(0.139327 0 -0.0127553)
(0.139927 0 -0.0132312)
(0.139668 0 -0.0136182)
(0.138688 0 -0.0139094)
(0.137127 0 -0.0140955)
(0.135125 0 -0.0141653)
(0.132834 0 -0.0141071)
(0.130426 0 -0.01391)
(0.128108 0 -0.0135686)
(0.12613 0 -0.0130846)
(0 0 0)
(0.0260521 0 -0.00206499)
(0.0492013 0 -0.00392265)
(0.0688379 0 -0.0055519)
(0.0853776 0 -0.00700019)
(0.0992061 0 -0.00830305)
(0.110651 0 -0.00948584)
(0.12 0 -0.0105666)
(0.127502 0 -0.0115578)
(0.133377 0 -0.0124675)
(0.137824 0 -0.0132992)
(0.14102 0 -0.0140542)
(0.143134 0 -0.0147335)
(0.14432 0 -0.0153325)
(0.14472 0 -0.015843)
(0.144487 0 -0.0162619)
(0.143778 0 -0.0165843)
(0.142746 0 -0.0168017)
(0.141568 0 -0.0169092)
(0.140446 0 -0.0169064)
(0.139603 0 -0.016794)
(0.139322 0 -0.0165886)
(0 0 0)
(0.0263003 0 -0.00231579)
(0.0496935 0 -0.0044012)
(0.0695782 0 -0.00623311)
(0.0863765 0 -0.00786439)
(0.10048 0 -0.00933527)
(0.112223 0 -0.0106746)
(0.121899 0 -0.0119032)
(0.129764 0 -0.0130362)
(0.136045 0 -0.0140838)
(0.140942 0 -0.0150511)
(0.144641 0 -0.0159404)
(0.147321 0 -0.0167547)
(0.149145 0 -0.0174934)
(0.150268 0 -0.0181514)
(0.150853 0 -0.0187282)
(0.151072 0 -0.0192223)
(0.1511 0 -0.0196328)
(0.151127 0 -0.0199598)
(0.151382 0 -0.0202135)
(0.152125 0 -0.020411)
(0.153671 0 -0.0205857)
(0 0 0)
(0.0265701 0 -0.00256322)
(0.0502285 0 -0.00487378)
(0.0703819 0 -0.00690666)
(0.0874601 0 -0.00872037)
(0.101862 0 -0.0103598)
(0.113928 0 -0.0118575)
(0.123957 0 -0.0132365)
(0.132215 0 -0.0145157)
(0.138933 0 -0.0157078)
(0.144317 0 -0.0168192)
(0.148562 0 -0.0178552)
(0.151853 0 -0.0188208)
(0.154365 0 -0.0197181)
(0.156267 0 -0.0205478)
(0.15773 0 -0.021311)
(0.158932 0 -0.0220089)
(0.160077 0 -0.0226512)
(0.161379 0 -0.0232483)
(0.163087 0 -0.0238209)
(0.1655 0 -0.0244046)
(0.168967 0 -0.0250528)
(0 0 0)
(0.0268586 0 -0.00280674)
(0.0508011 0 -0.00533944)
(0.0712416 0 -0.00757134)
(0.0886193 0 -0.00956668)
(0.10334 0 -0.0113751)
(0.115751 0 -0.0130328)
(0.12616 0 -0.0145665)
(0.134841 0 -0.0159978)
(0.142026 0 -0.017341)
(0.147928 0 -0.0186054)
(0.152755 0 -0.0198006)
(0.156697 0 -0.0209324)
(0.159932 0 -0.0220045)
(0.162646 0 -0.0230237)
(0.165023 0 -0.0239964)
(0.167259 0 -0.0249313)
(0.16957 0 -0.0258445)
(0.172196 0 -0.0267588)
(0.175414 0 -0.0277087)
(0.179548 0 -0.028746)
(0.184981 0 -0.0299465)
(0 0 0)
(0.0271642 0 -0.00304641)
(0.0514079 0 -0.00579827)
(0.0721524 0 -0.00822735)
(0.0898475 0 -0.0104036)
(0.104907 0 -0.0123815)
(0.117686 0 -0.0142012)
(0.128499 0 -0.0158941)
(0.137626 0 -0.017483)
(0.145302 0 -0.0189831)
(0.151747 0 -0.0204077)
(0.157178 0 -0.0217699)
(0.16179 0 -0.0230774)
(0.165775 0 -0.0243388)
(0.169329 0 -0.0255667)
(0.172653 0 -0.0267732)
(0.17596 0 -0.0279763)
(0.17947 0 -0.0291961)
(0.183444 0 -0.030467)
(0.188194 0 -0.0318418)
(0.194065 0 -0.0333891)
(0.201477 0 -0.0352081)
(0 0 0)
(0.0274852 0 -0.00328216)
(0.0520449 0 -0.00625019)
(0.0731086 0 -0.00887452)
(0.0911368 0 -0.0112308)
(0.106553 0 -0.0133786)
(0.119718 0 -0.0153618)
(0.130953 0 -0.0172149)
(0.140539 0 -0.0189631)
(0.148721 0 -0.0206245)
(0.155726 0 -0.0222151)
(0.161776 0 -0.023751)
(0.167079 0 -0.0252456)
(0.171837 0 -0.0267121)
(0.17626 0 -0.0281686)
(0.180549 0 -0.0296302)
(0.184929 0 -0.0311218)
(0.189645 0 -0.0326754)
(0.194974 0 -0.0343372)
(0.201247 0 -0.0361737)
(0.208834 0 -0.0382724)
(0.21819 0 -0.0407576)
(0 0 0)
(0.0278173 0 -0.00351262)
(0.0527045 0 -0.0066926)
(0.0740989 0 -0.0095092)
(0.0924725 0 -0.0120437)
(0.108258 0 -0.0143605)
(0.121822 0 -0.0165073)
(0.133488 0 -0.0185204)
(0.143546 0 -0.0204293)
(0.152248 0 -0.0222563)
(0.159828 0 -0.0240196)
(0.166516 0 -0.0257392)
(0.172529 0 -0.027433)
(0.178071 0 -0.0291163)
(0.18336 0 -0.0308119)
(0.188613 0 -0.0325435)
(0.194062 0 -0.0343415)
(0.199971 0 -0.0362498)
(0.206634 0 -0.0383261)
(0.214384 0 -0.0406468)
(0.223623 0 -0.0433206)
(0.234826 0 -0.0464921)
(0 0 0)
(0.0281596 0 -0.00373839)
(0.0533853 0 -0.00712687)
(0.0751219 0 -0.0101335)
(0.0938526 0 -0.0128448)
(0.110021 0 -0.0153306)
(0.123998 0 -0.0176422)
(0.13611 0 -0.0198187)
(0.146658 0 -0.0218935)
(0.155897 0 -0.0238915)
(0.16407 0 -0.0258356)
(0.171411 0 -0.0277474)
(0.178135 0 -0.0296465)
(0.184463 0 -0.0315556)
(0.190621 0 -0.0335025)
(0.196838 0 -0.0355189)
(0.203349 0 -0.03764)
(0.210425 0 -0.0399177)
(0.21838 0 -0.0424238)
(0.227552 0 -0.0452446)
(0.238349 0 -0.0485021)
(0.251259 0 -0.0523606)
(0.054092 0 -0.0075578)
(0.0761856 0 -0.0107547)
(0.0952906 0 -0.0136448)
(0.111863 0 -0.0163028)
(0.126274 0 -0.0187833)
(0.138856 0 -0.0211295)
(0.149914 0 -0.0233764)
(0.159707 0 -0.0255515)
(0.168485 0 -0.0276817)
(0.176485 0 -0.0297917)
(0.183933 0 -0.0319058)
(0.191064 0 -0.0340546)
(0.198099 0 -0.036267)
(0.205268 0 -0.0385781)
(0.212823 0 -0.0410346)
(0.221043 0 -0.0436965)
(0.230244 0 -0.0466435)
(0.240766 0 -0.0499725)
(0.253008 0 -0.0538128)
(0.267449 0 -0.0583401)
(0.0772935 0 -0.0113725)
(0.0967932 0 -0.0144438)
(0.113784 0 -0.0172767)
(0.128645 0 -0.0199287)
(0.141712 0 -0.0224471)
(0.153287 0 -0.0248684)
(0.163643 0 -0.0272246)
(0.173036 0 -0.0295466)
(0.181707 0 -0.0318625)
(0.189891 0 -0.034202)
(0.197823 0 -0.0365982)
(0.20572 0 -0.0390821)
(0.213818 0 -0.0416947)
(0.222387 0 -0.0444937)
(0.231704 0 -0.047545)
(0.242068 0 -0.0509296)
(0.253817 0 -0.0547526)
(0.26734 0 -0.059151)
(0.283058 0 -0.0642931)
(0.0983422 0 -0.0152335)
(0.115759 0 -0.0182399)
(0.131076 0 -0.0210636)
(0.144632 0 -0.0237543)
(0.156734 0 -0.0263525)
(0.167665 0 -0.0288948)
(0.177683 0 -0.031415)
(0.187027 0 -0.0339418)
(0.195935 0 -0.0365089)
(0.204646 0 -0.0391539)
(0.213381 0 -0.0419121)
(0.222378 0 -0.0448297)
(0.231902 0 -0.0479674)
(0.242224 0 -0.0513955)
(0.253629 0 -0.0551968)
(0.266446 0 -0.0594817)
(0.28102 0 -0.0643818)
(0.297699 0 -0.070049)
(0.11776 0 -0.019183)
(0.133546 0 -0.0221793)
(0.147602 0 -0.0250441)
(0.16024 0 -0.0278222)
(0.171748 0 -0.0305526)
(0.182383 0 -0.0332702)
(0.192386 0 -0.0360081)
(0.202003 0 -0.0388041)
(0.211469 0 -0.0416976)
(0.221002 0 -0.0447272)
(0.230843 0 -0.0479435)
(0.241242 0 -0.0514069)
(0.252454 0 -0.0551874)
(0.264753 0 -0.0593714)
(0.27845 0 -0.0640696)
(0.293805 0 -0.0693901)
(0.311099 0 -0.0754682)
(0.136044 0 -0.0232698)
(0.1506 0 -0.0263073)
(0.16377 0 -0.0292632)
(0.175845 0 -0.0321791)
(0.187084 0 -0.0350926)
(0.197731 0 -0.0380404)
(0.20803 0 -0.041062)
(0.218209 0 -0.0441974)
(0.228488 0 -0.047489)
(0.239098 0 -0.0509886)
(0.250275 0 -0.054756)
(0.262248 0 -0.0588567)
(0.275279 0 -0.0633781)
(0.289629 0 -0.0684186)
(0.305474 0 -0.0740612)
(0.323027 0 -0.0804194)
(0.153587 0 -0.0275278)
(0.167285 0 -0.0306588)
(0.179919 0 -0.0337581)
(0.191746 0 -0.0368643)
(0.203009 0 -0.0400159)
(0.213949 0 -0.0432543)
(0.224792 0 -0.0466211)
(0.235748 0 -0.050159)
(0.247038 0 -0.0539195)
(0.258877 0 -0.057959)
(0.271468 0 -0.062338)
(0.285051 0 -0.0671394)
(0.299812 0 -0.072439)
(0.31586 0 -0.0782964)
(0.333326 0 -0.084794)
(0.183928 0 -0.0352709)
(0.196316 0 -0.038562)
(0.208159 0 -0.041908)
(0.219694 0 -0.045351)
(0.231141 0 -0.0489339)
(0.242698 0 -0.052697)
(0.254569 0 -0.0566898)
(0.266941 0 -0.0609617)
(0.279995 0 -0.0655684)
(0.293937 0 -0.0705828)
(0.308876 0 -0.0760533)
(0.324854 0 -0.0820152)
(0.341923 0 -0.0885165)
(0.200746 0 -0.0401622)
(0.213125 0 -0.0436892)
(0.225199 0 -0.0473204)
(0.237182 0 -0.0510986)
(0.249252 0 -0.0550604)
(0.261591 0 -0.0592492)
(0.274365 0 -0.0637097)
(0.28773 0 -0.0684895)
(0.301833 0 -0.0736424)
(0.316726 0 -0.079194)
(0.332395 0 -0.0851557)
(0.348816 0 -0.0915408)
(0.230407 0 -0.0491315)
(0.242851 0 -0.0530805)
(0.255335 0 -0.0572077)
(0.268028 0 -0.0615534)
(0.281078 0 -0.0661564)
(0.294593 0 -0.0710486)
(0.308668 0 -0.0762635)
(0.323314 0 -0.0818101)
(0.338472 0 -0.0876771)
(0.354059 0 -0.0938483)
(0.260889 0 -0.0591008)
(0.273826 0 -0.0635622)
(0.287016 0 -0.0682561)
(0.300523 0 -0.0731969)
(0.3144 0 -0.0784018)
(0.328626 0 -0.0838642)
(0.343119 0 -0.0895585)
(0.357779 0 -0.0954551)
(0.278922 0 -0.0652322)
(0.292117 0 -0.0699619)
(0.30547 0 -0.0748907)
(0.319005 0 -0.0800205)
(0.332684 0 -0.0853356)
(0.346434 0 -0.0908081)
(0.360156 0 -0.0964024)
(0.309411 0 -0.0760942)
(0.322502 0 -0.0810989)
(0.335574 0 -0.0862283)
(0.348561 0 -0.0914534)
(0.361368 0 -0.096735)
(0.337409 0 -0.086558)
(0.34964 0 -0.0915219)
(0.361573 0 -0.0964899)
(0.054092 0 -0.0075578)
(0.0761856 0 -0.0107547)
(0.0952906 0 -0.0136448)
(0.111863 0 -0.0163028)
(0.126274 0 -0.0187833)
(0.138856 0 -0.0211295)
(0.149914 0 -0.0233764)
(0.159707 0 -0.0255515)
(0.168485 0 -0.0276817)
(0.176485 0 -0.0297917)
(0.183933 0 -0.0319058)
(0.191064 0 -0.0340546)
(0.198099 0 -0.036267)
(0.205268 0 -0.0385781)
(0.212823 0 -0.0410346)
(0.221043 0 -0.0436965)
(0.230244 0 -0.0466435)
(0.240766 0 -0.0499725)
(0.253008 0 -0.0538128)
(0.267449 0 -0.0583401)
(0.0772935 0 -0.0113725)
(0.0967932 0 -0.0144438)
(0.113784 0 -0.0172767)
(0.128645 0 -0.0199287)
(0.141712 0 -0.0224471)
(0.153287 0 -0.0248684)
(0.163643 0 -0.0272246)
(0.173036 0 -0.0295466)
(0.181707 0 -0.0318625)
(0.189891 0 -0.034202)
(0.197823 0 -0.0365982)
(0.20572 0 -0.0390821)
(0.213818 0 -0.0416947)
(0.222387 0 -0.0444937)
(0.231704 0 -0.047545)
(0.242068 0 -0.0509296)
(0.253817 0 -0.0547526)
(0.26734 0 -0.059151)
(0.283058 0 -0.0642931)
(0.0983422 0 -0.0152335)
(0.115759 0 -0.0182399)
(0.131076 0 -0.0210636)
(0.144632 0 -0.0237543)
(0.156734 0 -0.0263525)
(0.167665 0 -0.0288948)
(0.177683 0 -0.031415)
(0.187027 0 -0.0339418)
(0.195935 0 -0.0365089)
(0.204646 0 -0.0391539)
(0.213381 0 -0.0419121)
(0.222378 0 -0.0448297)
(0.231902 0 -0.0479674)
(0.242224 0 -0.0513955)
(0.253629 0 -0.0551968)
(0.266446 0 -0.0594817)
(0.28102 0 -0.0643818)
(0.297699 0 -0.070049)
(0.11776 0 -0.019183)
(0.133546 0 -0.0221793)
(0.147602 0 -0.0250441)
(0.16024 0 -0.0278222)
(0.171748 0 -0.0305526)
(0.182383 0 -0.0332702)
(0.192386 0 -0.0360081)
(0.202003 0 -0.0388041)
(0.211469 0 -0.0416976)
(0.221002 0 -0.0447272)
(0.230843 0 -0.0479435)
(0.241242 0 -0.0514069)
(0.252454 0 -0.0551874)
(0.264753 0 -0.0593714)
(0.27845 0 -0.0640696)
(0.293805 0 -0.0693901)
(0.311099 0 -0.0754682)
(0.136044 0 -0.0232698)
(0.1506 0 -0.0263073)
(0.16377 0 -0.0292632)
(0.175845 0 -0.0321791)
(0.187084 0 -0.0350926)
(0.197731 0 -0.0380404)
(0.20803 0 -0.041062)
(0.218209 0 -0.0441974)
(0.228488 0 -0.047489)
(0.239098 0 -0.0509886)
(0.250275 0 -0.054756)
(0.262248 0 -0.0588567)
(0.275279 0 -0.0633781)
(0.289629 0 -0.0684186)
(0.305474 0 -0.0740612)
(0.323027 0 -0.0804194)
(0.153587 0 -0.0275278)
(0.167285 0 -0.0306588)
(0.179919 0 -0.0337581)
(0.191746 0 -0.0368643)
(0.203009 0 -0.0400159)
(0.213949 0 -0.0432543)
(0.224792 0 -0.0466211)
(0.235748 0 -0.050159)
(0.247038 0 -0.0539195)
(0.258877 0 -0.057959)
(0.271468 0 -0.062338)
(0.285051 0 -0.0671394)
(0.299812 0 -0.072439)
(0.31586 0 -0.0782964)
(0.333326 0 -0.084794)
(0.183928 0 -0.0352709)
(0.196316 0 -0.038562)
(0.208159 0 -0.041908)
(0.219694 0 -0.045351)
(0.231141 0 -0.0489339)
(0.242698 0 -0.052697)
(0.254569 0 -0.0566898)
(0.266941 0 -0.0609617)
(0.279995 0 -0.0655684)
(0.293937 0 -0.0705828)
(0.308876 0 -0.0760533)
(0.324854 0 -0.0820152)
(0.341923 0 -0.0885165)
(0.200746 0 -0.0401622)
(0.213125 0 -0.0436892)
(0.225199 0 -0.0473204)
(0.237182 0 -0.0510986)
(0.249252 0 -0.0550604)
(0.261591 0 -0.0592492)
(0.274365 0 -0.0637097)
(0.28773 0 -0.0684895)
(0.301833 0 -0.0736424)
(0.316726 0 -0.079194)
(0.332395 0 -0.0851557)
(0.348816 0 -0.0915408)
(0.230407 0 -0.0491315)
(0.242851 0 -0.0530805)
(0.255335 0 -0.0572077)
(0.268028 0 -0.0615534)
(0.281078 0 -0.0661564)
(0.294593 0 -0.0710486)
(0.308668 0 -0.0762635)
(0.323314 0 -0.0818101)
(0.338472 0 -0.0876771)
(0.354059 0 -0.0938483)
(0.260889 0 -0.0591008)
(0.273826 0 -0.0635622)
(0.287016 0 -0.0682561)
(0.300523 0 -0.0731969)
(0.3144 0 -0.0784018)
(0.328626 0 -0.0838642)
(0.343119 0 -0.0895585)
(0.357779 0 -0.0954551)
(0.278922 0 -0.0652322)
(0.292117 0 -0.0699619)
(0.30547 0 -0.0748907)
(0.319005 0 -0.0800205)
(0.332684 0 -0.0853356)
(0.346434 0 -0.0908081)
(0.360156 0 -0.0964024)
(0.309411 0 -0.0760942)
(0.322502 0 -0.0810989)
(0.335574 0 -0.0862283)
(0.348561 0 -0.0914534)
(0.361368 0 -0.096735)
(0.337409 0 -0.086558)
(0.34964 0 -0.0915219)
(0.361573 0 -0.0964899)
)
;

boundaryField
{
    inlet
    {
        type            fixedValue;
        value           uniform (0 0 0);
    }
    outlet
    {
        type            fixedValue;
        value           nonuniform 0();
    }
    flap
    {
        type            fixedValue;
        value           nonuniform 0();
    }
    upperWall
    {
        type            slip;
    }
    lowerWall
    {
        type            slip;
    }
    frontAndBack
    {
        type            empty;
    }
    procBoundary3to0
    {
        type            processor;
    }
    procBoundary3to1
    {
        type            processor;
    }
    procBoundary3to4
    {
        type            processor;
    }
}


// ************************************************************************* //
