/*--------------------------------*- C++ -*----------------------------------*\
| =========                 |                                                 |
| \\      /  F ield         | OpenFOAM: The Open Source CFD Toolbox           |
|  \\    /   O peration     | Version:  dev                                   |
|   \\  /    A nd           | Web:      www.OpenFOAM.org                      |
|    \\/     M anipulation  |                                                 |
\*---------------------------------------------------------------------------*/
FoamFile
{
    version     2.0;
    format      ascii;
    class       volVectorField;
    location    "0.6";
    object      cellDisplacement;
}
// * * * * * * * * * * * * * * * * * * * * * * * * * * * * * * * * * * * * * //

dimensions      [0 1 0 0 0 0 0];

internalField   nonuniform List<vector> 
465
(
(0.124126 0 -0.00512696)
(0.125487 0 -0.00556449)
(0.12928 0 -0.00602432)
(0.132958 0 -0.00653322)
(0.12637 0 -0.00594155)
(0.129875 0 -0.00640293)
(0.133215 0 -0.00690348)
(0.136329 0 -0.00744342)
(0.139153 0 -0.0080221)
(0.126835 0 -0.00625686)
(0.130061 0 -0.0067114)
(0.133092 0 -0.00719657)
(0.135879 0 -0.00771136)
(0.138375 0 -0.00825373)
(0.140533 0 -0.00882054)
(0.142315 0 -0.009407)
(0.126945 0 -0.0065132)
(0.129911 0 -0.00695512)
(0.132665 0 -0.00742022)
(0.13517 0 -0.00790649)
(0.137389 0 -0.00841103)
(0.139293 0 -0.00892984)
(0.140856 0 -0.00945748)
(0.142064 0 -0.00998661)
(0.142913 0 -0.0105073)
(0.12675 0 -0.00671336)
(0.129482 0 -0.00713887)
(0.131992 0 -0.00758109)
(0.134253 0 -0.00803735)
(0.136241 0 -0.0085043)
(0.137934 0 -0.00897767)
(0.139319 0 -0.00945212)
(0.14039 0 -0.00992105)
(0.141146 0 -0.0103764)
(0.126294 0 -0.0068596)
(0.128818 0 -0.00726684)
(0.131116 0 -0.00768484)
(0.133168 0 -0.00811089)
(0.13496 0 -0.00854159)
(0.136478 0 -0.00897283)
(0.137717 0 -0.00939975)
(0.138674 0 -0.00981678)
(0.139353 0 -0.0102176)
(0.125621 0 -0.0069557)
(0.127959 0 -0.00734301)
(0.13007 0 -0.00773624)
(0.131943 0 -0.00813267)
(0.133568 0 -0.00852909)
(0.13494 0 -0.00892172)
(0.136055 0 -0.00930639)
(0.136917 0 -0.00967851)
(0.137532 0 -0.0100332)
(0.12476 0 -0.00700404)
(0.126933 0 -0.00737059)
(0.128881 0 -0.00773913)
(0.130599 0 -0.00810706)
(0.132083 0 -0.00847141)
(0.13333 0 -0.00882891)
(0.134341 0 -0.00917602)
(0.135122 0 -0.00950909)
(0.13568 0 -0.00982433)
(0.123739 0 -0.0070066)
(0.125765 0 -0.00735213)
(0.127571 0 -0.00769649)
(0.129155 0 -0.00803728)
(0.130517 0 -0.00837187)
(0.131657 0 -0.00869746)
(0.13258 0 -0.00901115)
(0.133291 0 -0.00931001)
(0.133799 0 -0.00959117)
(0.122581 0 -0.00696493)
(0.124477 0 -0.00728955)
(0.126158 0 -0.0076105)
(0.127625 0 -0.00792564)
(0.128881 0 -0.00823269)
(0.12993 0 -0.0085293)
(0.130776 0 -0.00881312)
(0.131426 0 -0.00908188)
(0.131889 0 -0.00933337)
(0.119312 0 -0.00657239)
(0.121306 0 -0.00688016)
(0.123087 0 -0.00718417)
(0.124658 0 -0.0074826)
(0.126024 0 -0.00777358)
(0.127188 0 -0.00805515)
(0.128157 0 -0.00832539)
(0.128936 0 -0.00858239)
(0.129533 0 -0.00882441)
(0.129956 0 -0.00904978)
(0.118044 0 -0.00646356)
(0.119933 0 -0.00675283)
(0.121612 0 -0.00703669)
(0.123087 0 -0.00731355)
(0.124364 0 -0.00758179)
(0.125448 0 -0.00783977)
(0.126347 0 -0.0080859)
(0.127067 0 -0.00831869)
(0.127616 0 -0.00853678)
(0.128003 0 -0.00873891)
(0.116686 0 -0.00631215)
(0.118481 0 -0.00658302)
(0.12007 0 -0.00684726)
(0.12146 0 -0.00710347)
(0.122659 0 -0.00735027)
(0.123673 0 -0.00758632)
(0.12451 0 -0.00781033)
(0.125178 0 -0.00802113)
(0.125685 0 -0.00821769)
(0.126039 0 -0.00839906)
(0.115258 0 -0.00611775)
(0.11697 0 -0.00637036)
(0.118479 0 -0.00661546)
(0.119794 0 -0.00685186)
(0.120924 0 -0.0070784)
(0.121876 0 -0.00729397)
(0.122659 0 -0.00749755)
(0.123281 0 -0.00768823)
(0.12375 0 -0.00786525)
(0.124075 0 -0.00802793)
(0.113781 0 -0.00587948)
(0.115418 0 -0.00611394)
(0.116857 0 -0.00634033)
(0.118106 0 -0.00655763)
(0.119175 0 -0.00676489)
(0.120073 0 -0.0069612)
(0.120808 0 -0.00714577)
(0.121389 0 -0.00731789)
(0.121824 0 -0.00747702)
(0.122121 0 -0.00762267)
(0.112277 0 -0.00559598)
(0.113848 0 -0.00581231)
(0.115224 0 -0.00602029)
(0.116415 0 -0.00621906)
(0.11743 0 -0.00640783)
(0.11828 0 -0.00658588)
(0.118973 0 -0.00675258)
(0.119517 0 -0.00690743)
(0.119922 0 -0.00705)
(0.120194 0 -0.00718)
(0.110768 0 -0.00526531)
(0.112281 0 -0.00546343)
(0.113602 0 -0.00565316)
(0.114741 0 -0.00583378)
(0.11571 0 -0.00600465)
(0.116517 0 -0.00616519)
(0.117172 0 -0.00631493)
(0.117684 0 -0.00645349)
(0.118061 0 -0.00658059)
(0.118312 0 -0.00669602)
(0.109281 0 -0.00488497)
(0.110743 0 -0.00506461)
(0.112015 0 -0.00523605)
(0.113109 0 -0.0053987)
(0.114036 0 -0.00555203)
(0.114806 0 -0.00569559)
(0.115428 0 -0.00582901)
(0.115911 0 -0.00595203)
(0.116264 0 -0.00606446)
(0.116495 0 -0.00616619)
(0.107844 0 -0.00445177)
(0.10926 0 -0.00461246)
(0.11049 0 -0.00476535)
(0.111545 0 -0.00490996)
(0.112436 0 -0.00504586)
(0.113173 0 -0.00517269)
(0.113766 0 -0.00529018)
(0.114224 0 -0.00539815)
(0.114555 0 -0.00549649)
(0.114768 0 -0.00558513)
(0.106487 0 -0.00396181)
(0.107864 0 -0.0041028)
(0.109057 0 -0.00423661)
(0.110078 0 -0.00436282)
(0.110938 0 -0.0044811)
(0.111648 0 -0.00459118)
(0.112216 0 -0.00469286)
(0.112651 0 -0.004786)
(0.112964 0 -0.00487055)
(0.11316 0 -0.00494649)
(0.105244 0 -0.00341034)
(0.106589 0 -0.00353054)
(0.107751 0 -0.00364438)
(0.108743 0 -0.00375151)
(0.109577 0 -0.00385168)
(0.110262 0 -0.00394466)
(0.110809 0 -0.00403031)
(0.111226 0 -0.00410856)
(0.111522 0 -0.00417936)
(0.111705 0 -0.00424274)
(0.104154 0 -0.00279163)
(0.105472 0 -0.00288956)
(0.106609 0 -0.00298214)
(0.107578 0 -0.00306911)
(0.10839 0 -0.00315025)
(0.109056 0 -0.00322542)
(0.109585 0 -0.00329449)
(0.109987 0 -0.00335743)
(0.110269 0 -0.00341422)
(0.110441 0 -0.00346488)
(0.103259 0 -0.00209892)
(0.104556 0 -0.00217255)
(0.105674 0 -0.00224208)
(0.106625 0 -0.00230729)
(0.107421 0 -0.00236804)
(0.108071 0 -0.00242422)
(0.108587 0 -0.00247573)
(0.108976 0 -0.00252256)
(0.109248 0 -0.00256471)
(0.109411 0 -0.0026022)
(0.102608 0 -0.00132414)
(0.10389 0 -0.00137082)
(0.104995 0 -0.00141486)
(0.105933 0 -0.00145612)
(0.106717 0 -0.00149452)
(0.107357 0 -0.00152997)
(0.107863 0 -0.00156243)
(0.108245 0 -0.00159188)
(0.108509 0 -0.00161832)
(0.108665 0 -0.00164177)
(0.102252 0 -0.000457918)
(0.103528 0 -0.00047416)
(0.104625 0 -0.000489475)
(0.105557 0 -0.000503819)
(0.106335 0 -0.000517156)
(0.10697 0 -0.00052946)
(0.107471 0 -0.000540714)
(0.107848 0 -0.000550912)
(0.108108 0 -0.000560053)
(0.108261 0 -0.000568145)
(0.14329 0 -0.0108846)
(0.14149 0 -0.0107031)
(0.141647 0 -0.0109132)
(0.141736 0 -0.0111173)
(0.139667 0 -0.0105029)
(0.139813 0 -0.010686)
(0.1399 0 -0.0108637)
(0.137818 0 -0.0102841)
(0.137953 0 -0.0104447)
(0.138035 0 -0.0106003)
(0.135941 0 -0.0100462)
(0.136065 0 -0.010188)
(0.136141 0 -0.0103252)
(0.134036 0 -0.00978802)
(0.134149 0 -0.00991359)
(0.134219 0 -0.0100354)
(0.132105 0 -0.00950874)
(0.132208 0 -0.00962048)
(0.132271 0 -0.00972886)
(0.130152 0 -0.0092063)
(0.130245 0 -0.00930588)
(0.1303 0 -0.00940261)
(0.12818 0 -0.00887865)
(0.128263 0 -0.00896779)
(0.128311 0 -0.00905427)
(0.126198 0 -0.00852397)
(0.126271 0 -0.00860352)
(0.126312 0 -0.00868073)
(0.124217 0 -0.00813953)
(0.124281 0 -0.0082105)
(0.124315 0 -0.00827931)
(0.122249 0 -0.00772222)
(0.122304 0 -0.00778542)
(0.122332 0 -0.0078466)
(0.120307 0 -0.00726849)
(0.120355 0 -0.00732458)
(0.120376 0 -0.00737882)
(0.118412 0 -0.00677429)
(0.118451 0 -0.00682382)
(0.118466 0 -0.00687166)
(0.116583 0 -0.0062349)
(0.116615 0 -0.0062783)
(0.116624 0 -0.00632016)
(0.114845 0 -0.00564477)
(0.114871 0 -0.00568237)
(0.114875 0 -0.0057186)
(0.113227 0 -0.00499739)
(0.113248 0 -0.00502942)
(0.113247 0 -0.00506025)
(0.111764 0 -0.00428505)
(0.111779 0 -0.00431164)
(0.111773 0 -0.00433718)
(0.110492 0 -0.00349858)
(0.110503 0 -0.00351972)
(0.110494 0 -0.00354001)
(0.109456 0 -0.00262704)
(0.109464 0 -0.0026426)
(0.109451 0 -0.0026575)
(0.108706 0 -0.00165726)
(0.108712 0 -0.00166694)
(0.108697 0 -0.0016762)
(0.1083 0 -0.000573478)
(0.108304 0 -0.000576803)
(0.108288 0 -0.000579979)
(0.141768 0 -0.0114173)
(0.13994 0 -0.0111248)
(0.139743 0 -0.0114482)
(0.139292 0 -0.0117356)
(0.138587 0 -0.0119774)
(0.138078 0 -0.0108293)
(0.137911 0 -0.0111139)
(0.137515 0 -0.0113677)
(0.136884 0 -0.0115838)
(0.136017 0 -0.0117567)
(0.134912 0 -0.0118819)
(0.136182 0 -0.0105269)
(0.136037 0 -0.0107781)
(0.135682 0 -0.0110028)
(0.135111 0 -0.0111957)
(0.134318 0 -0.0113518)
(0.1333 0 -0.011467)
(0.132054 0 -0.0115382)
(0.130579 0 -0.0115631)
(0.134258 0 -0.0102146)
(0.134126 0 -0.0104365)
(0.133802 0 -0.0106357)
(0.133277 0 -0.0108075)
(0.132544 0 -0.0109476)
(0.131597 0 -0.0110522)
(0.130431 0 -0.0111182)
(0.129042 0 -0.0111432)
(0.127424 0 -0.0111255)
(0.132305 0 -0.00988806)
(0.132182 0 -0.0100848)
(0.13188 0 -0.0102615)
(0.131391 0 -0.0104142)
(0.130705 0 -0.0105393)
(0.129817 0 -0.0106332)
(0.128718 0 -0.0106931)
(0.127402 0 -0.0107165)
(0.125862 0 -0.0107013)
(0.130328 0 -0.00954475)
(0.130209 0 -0.00971918)
(0.129923 0 -0.00987588)
(0.129462 0 -0.0100114)
(0.128814 0 -0.0101225)
(0.127973 0 -0.0102061)
(0.12693 0 -0.0102594)
(0.125676 0 -0.01028)
(0.124203 0 -0.0102658)
(0.128333 0 -0.0091809)
(0.128215 0 -0.00933587)
(0.127941 0 -0.00947484)
(0.127499 0 -0.00959488)
(0.126882 0 -0.00969311)
(0.12608 0 -0.0097668)
(0.125083 0 -0.00981336)
(0.123881 0 -0.00983049)
(0.122465 0 -0.00981615)
(0.126328 0 -0.00879362)
(0.126209 0 -0.00893133)
(0.125941 0 -0.00905446)
(0.125516 0 -0.0091605)
(0.124922 0 -0.00924693)
(0.124151 0 -0.00931128)
(0.123191 0 -0.00935124)
(0.122033 0 -0.0093646)
(0.120667 0 -0.00934941)
(0.124323 0 -0.0083798)
(0.124201 0 -0.008502)
(0.123937 0 -0.00861087)
(0.123523 0 -0.00870422)
(0.122947 0 -0.00877982)
(0.122201 0 -0.0088355)
(0.121273 0 -0.00886911)
(0.120151 0 -0.00887864)
(0.118826 0 -0.00886222)
(0.122331 0 -0.00793587)
(0.122204 0 -0.00804404)
(0.121943 0 -0.00813999)
(0.121536 0 -0.0082218)
(0.120974 0 -0.0082875)
(0.120247 0 -0.00833515)
(0.119344 0 -0.00836281)
(0.118254 0 -0.00836862)
(0.116964 0 -0.00835083)
(0.120367 0 -0.00745786)
(0.120235 0 -0.00755324)
(0.119973 0 -0.00763742)
(0.119571 0 -0.00770871)
(0.11902 0 -0.00776537)
(0.118309 0 -0.00780565)
(0.117426 0 -0.00782781)
(0.116361 0 -0.00783016)
(0.115101 0 -0.00781109)
(0.11845 0 -0.00694127)
(0.118312 0 -0.00702491)
(0.118048 0 -0.00709831)
(0.117649 0 -0.00715998)
(0.117105 0 -0.00720838)
(0.116406 0 -0.00724195)
(0.11554 0 -0.00725913)
(0.114496 0 -0.0072584)
(0.113261 0 -0.00723827)
(0.116601 0 -0.00638101)
(0.116456 0 -0.00645377)
(0.11619 0 -0.00651722)
(0.115792 0 -0.00657005)
(0.115254 0 -0.00661091)
(0.114564 0 -0.00663841)
(0.113711 0 -0.00665117)
(0.112684 0 -0.00664783)
(0.11147 0 -0.00662704)
(0.114844 0 -0.00577118)
(0.114694 0 -0.00583375)
(0.114424 0 -0.00588793)
(0.114026 0 -0.00593261)
(0.113491 0 -0.00596657)
(0.112808 0 -0.00598863)
(0.111966 0 -0.00599756)
(0.110952 0 -0.00599215)
(0.109756 0 -0.00597121)
(0.11321 0 -0.00510492)
(0.113053 0 -0.00515781)
(0.11278 0 -0.00520327)
(0.112382 0 -0.00524035)
(0.111849 0 -0.00526802)
(0.11117 0 -0.00528523)
(0.110336 0 -0.00529094)
(0.109334 0 -0.00528408)
(0.108151 0 -0.00526364)
(0.111731 0 -0.00437415)
(0.111569 0 -0.00441769)
(0.111292 0 -0.00445484)
(0.110892 0 -0.00448478)
(0.11036 0 -0.00450667)
(0.109686 0 -0.00451961)
(0.108857 0 -0.00452272)
(0.107864 0 -0.00451513)
(0.106692 0 -0.00449595)
(0.110446 0 -0.00356931)
(0.110279 0 -0.00360365)
(0.109999 0 -0.00363272)
(0.109598 0 -0.00365587)
(0.109066 0 -0.00367241)
(0.108394 0 -0.00368163)
(0.10757 0 -0.00368281)
(0.106583 0 -0.00367525)
(0.10542 0 -0.00365824)
(0.1094 0 -0.002679)
(0.109229 0 -0.00270407)
(0.108946 0 -0.00272513)
(0.108543 0 -0.0027417)
(0.108011 0 -0.00275326)
(0.10734 0 -0.00275927)
(0.106519 0 -0.0027592)
(0.105537 0 -0.00275253)
(0.10438 0 -0.00273874)
(0.108643 0 -0.00168954)
(0.108468 0 -0.00170502)
(0.108183 0 -0.00171795)
(0.107779 0 -0.00172799)
(0.107247 0 -0.00173482)
(0.106577 0 -0.00173811)
(0.105758 0 -0.00173752)
(0.104778 0 -0.00173272)
(0.103626 0 -0.00172339)
(0.108232 0 -0.000584552)
(0.108056 0 -0.000589846)
(0.10777 0 -0.000594244)
(0.107365 0 -0.000597632)
(0.106833 0 -0.000599893)
(0.106162 0 -0.000600913)
(0.105344 0 -0.000600576)
(0.104366 0 -0.000598768)
(0.103215 0 -0.00059538)
)
;

boundaryField
{
    inlet
    {
        type            cellMotion;
        value           nonuniform 0();
    }
    outlet
    {
        type            cellMotion;
        value           nonuniform 0();
    }
    flap
    {
        type            cellMotion;
        value           nonuniform 0();
    }
    upperWall
    {
        type            slip;
    }
    lowerWall
    {
        type            slip;
    }
    frontAndBack
    {
        type            empty;
    }
    procBoundary1to0
    {
        type            processor;
        value           nonuniform List<vector> 
18
(
(0.121497 0 -0.00666206)
(0.12047 0 -0.00663865)
(0.12047 0 -0.00663865)
(0.117104 0 -0.00626268)
(0.115942 0 -0.00617056)
(0.114679 0 -0.00603617)
(0.113337 0 -0.00585903)
(0.111937 0 -0.00563824)
(0.110501 0 -0.00537246)
(0.109054 0 -0.00505986)
(0.107621 0 -0.00469808)
(0.106231 0 -0.00428414)
(0.104915 0 -0.00381439)
(0.103707 0 -0.0032844)
(0.102645 0 -0.00268889)
(0.101773 0 -0.00202158)
(0.101136 0 -0.00127509)
(0.100789 0 -0.000440854)
)
;
    }
    procBoundary1to2
    {
        type            processor;
        value           nonuniform List<vector> 
17
(
(0.125577 0 -0.0110646)
(0.124094 0 -0.0106468)
(0.122504 0 -0.0102157)
(0.120828 0 -0.00976918)
(0.119082 0 -0.00930452)
(0.117288 0 -0.00881876)
(0.115466 0 -0.00830847)
(0.113637 0 -0.00776971)
(0.111826 0 -0.007198)
(0.11006 0 -0.00658817)
(0.108367 0 -0.00593424)
(0.106779 0 -0.00522921)
(0.105335 0 -0.00446489)
(0.104073 0 -0.00363155)
(0.103042 0 -0.00271767)
(0.102293 0 -0.00170944)
(0.101884 0 -0.00059037)
)
;
    }
    procBoundary1to3
    {
        type            processor;
        value           nonuniform List<vector> 9((0.12008 0 -0.00473399) (0.121648 0 -0.00515163) (0.122757 0 -0.00551841) (0.123456 0 -0.00583261) (0.123794 0 -0.00609444) (0.123815 0 -0.00630503) (0.123559 0 -0.00646493) (0.123067 0 -0.00657644) (0.122371 0 -0.00664167));
    }
    procBoundary1to4
    {
        type            processor;
        value           nonuniform List<vector> 
30
(
(0.122204 0 -0.00462947)
(0.12819 0 -0.00557261)
(0.12819 0 -0.00557261)
(0.132218 0 -0.00607709)
(0.136446 0 -0.00709225)
(0.136446 0 -0.00709225)
(0.139658 0 -0.00770308)
(0.141622 0 -0.00863791)
(0.141622 0 -0.00863791)
(0.143677 0 -0.009288)
(0.143695 0 -0.0100059)
(0.143695 0 -0.0100059)
(0.144658 0 -0.0106057)
(0.145075 0 -0.0110464)
(0.143459 0 -0.011128)
(0.143459 0 -0.011128)
(0.143549 0 -0.0113649)
(0.143567 0 -0.0117132)
(0.141529 0 -0.0117879)
(0.141529 0 -0.0117879)
(0.141009 0 -0.0121137)
(0.140209 0 -0.0123832)
(0.137628 0 -0.0121674)
(0.137628 0 -0.0121674)
(0.13642 0 -0.0123015)
(0.133572 0 -0.0119567)
(0.133572 0 -0.0119567)
(0.131998 0 -0.0119795)
(0.128873 0 -0.0115407)
(0.128873 0 -0.0115407)
)
;
    }
}


// ************************************************************************* //
