/*--------------------------------*- C++ -*----------------------------------*\
| =========                 |                                                 |
| \\      /  F ield         | OpenFOAM: The Open Source CFD Toolbox           |
|  \\    /   O peration     | Version:  dev                                   |
|   \\  /    A nd           | Web:      www.OpenFOAM.org                      |
|    \\/     M anipulation  |                                                 |
\*---------------------------------------------------------------------------*/
FoamFile
{
    version     2.0;
    format      ascii;
    class       volVectorField;
    location    "2.74";
    object      cellDisplacement;
}
// * * * * * * * * * * * * * * * * * * * * * * * * * * * * * * * * * * * * * //

dimensions      [0 1 0 0 0 0 0];

internalField   nonuniform List<vector> 
465
(
(0.0114295 0 -0.000919379)
(0.032773 0 -0.00264454)
(0.0115745 0 -0.00097411)
(0.0332037 0 -0.00280328)
(0.0520499 0 -0.0044284)
(0.0117223 0 -0.00102809)
(0.0336432 0 -0.00296004)
(0.0527782 0 -0.00467923)
(0.0694877 0 -0.00623049)
(0.0118714 0 -0.00108088)
(0.034087 0 -0.00311358)
(0.0535134 0 -0.00492525)
(0.0705243 0 -0.0065637)
(0.0854835 0 -0.00806988)
(0.0120214 0 -0.00113235)
(0.0345327 0 -0.00326341)
(0.0542499 0 -0.00516553)
(0.0715631 0 -0.00688952)
(0.086847 0 -0.00847951)
(0.100405 0 -0.0099676)
(0.0121693 0 -0.00118172)
(0.0349734 0 -0.00340741)
(0.0549739 0 -0.00539647)
(0.0725885 0 -0.00720432)
(0.0881975 0 -0.00887636)
(0.102089 0 -0.0104449)
(0.11453 0 -0.0119362)
(0.0123134 0 -0.0012284)
(0.0354055 0 -0.00354407)
(0.0556989 0 -0.00561757)
(0.0736032 0 -0.00750521)
(0.0895195 0 -0.00925589)
(0.103737 0 -0.0109026)
(0.116511 0 -0.0124714)
(0.128098 0 -0.0139875)
(0.138728 0 -0.015473)
(0.0124526 0 -0.00127205)
(0.0358243 0 -0.00367218)
(0.0563955 0 -0.0058246)
(0.0745972 0 -0.00778941)
(0.0908169 0 -0.00961547)
(0.105332 0 -0.0113346)
(0.118417 0 -0.0129764)
(0.130325 0 -0.0145664)
(0.141306 0 -0.0161316)
(0.151557 0 -0.0176908)
(0.0125859 0 -0.00131223)
(0.036227 0 -0.00379049)
(0.0570809 0 -0.00601784)
(0.0755623 0 -0.00805402)
(0.0920505 0 -0.00994737)
(0.106848 0 -0.0117339)
(0.120222 0 -0.0134432)
(0.132444 0 -0.0151047)
(0.143744 0 -0.0167426)
(0.154284 0 -0.0183709)
(0.164227 0 -0.0200053)
(0.173737 0 -0.0216641)
(0.0127104 0 -0.00134815)
(0.0366023 0 -0.00389641)
(0.0577153 0 -0.00619069)
(0.0764537 0 -0.0082904)
(0.0931978 0 -0.0102452)
(0.10826 0 -0.0120931)
(0.121913 0 -0.0138652)
(0.134414 0 -0.0155898)
(0.14597 0 -0.0172875)
(0.156757 0 -0.0189756)
(0.166933 0 -0.0206695)
(0.176647 0 -0.0223846)
(0.186017 0 -0.0241328)
(0.195147 0 -0.0259253)
(0.0128203 0 -0.00137845)
(0.0369356 0 -0.00398623)
(0.0582801 0 -0.00633778)
(0.0772525 0 -0.00849261)
(0.094232 0 -0.0105012)
(0.109535 0 -0.0124025)
(0.123433 0 -0.0142283)
(0.136168 0 -0.0160049)
(0.147945 0 -0.0177534)
(0.158936 0 -0.0194909)
(0.169296 0 -0.0212323)
(0.17916 0 -0.0229909)
(0.188639 0 -0.0247778)
(0.197829 0 -0.0266024)
(0.206803 0 -0.0284724)
(0.0129115 0 -0.00140212)
(0.0372168 0 -0.00405711)
(0.0587625 0 -0.00645491)
(0.0779415 0 -0.00865497)
(0.0951308 0 -0.010708)
(0.110645 0 -0.0126536)
(0.124754 0 -0.0145231)
(0.137689 0 -0.0163421)
(0.149649 0 -0.0181313)
(0.160804 0 -0.0199072)
(0.171301 0 -0.021684)
(0.181266 0 -0.0234734)
(0.190804 0 -0.0252852)
(0.200001 0 -0.0271269)
(0.208924 0 -0.0290045)
(0.217621 0 -0.0309214)
(0.226122 0 -0.0328795)
(0.0129824 0 -0.00141845)
(0.0374406 0 -0.00410699)
(0.0591546 0 -0.00653888)
(0.0785108 0 -0.00877312)
(0.0958812 0 -0.0108603)
(0.111577 0 -0.0128398)
(0.125863 0 -0.0147426)
(0.138963 0 -0.0165935)
(0.15107 0 -0.0184125)
(0.16235 0 -0.0202155)
(0.172941 0 -0.0220156)
(0.182963 0 -0.023823)
(0.192515 0 -0.0256462)
(0.201676 0 -0.0274911)
(0.210506 0 -0.0293619)
(0.219048 0 -0.0312601)
(0.227329 0 -0.0331861)
(0.235358 0 -0.0351364)
(0.243117 0 -0.037104)
(0.0130316 0 -0.00142679)
(0.0376027 0 -0.0041339)
(0.0594504 0 -0.00658655)
(0.0789522 0 -0.00884279)
(0.0964734 0 -0.0109526)
(0.11232 0 -0.0129549)
(0.12675 0 -0.0148799)
(0.139981 0 -0.0167516)
(0.1522 0 -0.018589)
(0.163567 0 -0.0204074)
(0.174215 0 -0.0222186)
(0.184256 0 -0.0240315)
(0.193784 0 -0.0258533)
(0.202872 0 -0.0276883)
(0.211578 0 -0.0295395)
(0.219937 0 -0.031406)
(0.227985 0 -0.0332893)
(0.235728 0 -0.0351845)
(0.24314 0 -0.0370803)
(0.250208 0 -0.038969)
(0.25691 0 -0.0408409)
(0.0130582 0 -0.0014265)
(0.0377005 0 -0.00413598)
(0.0596458 0 -0.00659489)
(0.0792601 0 -0.00885985)
(0.0969006 0 -0.0109798)
(0.112867 0 -0.0129929)
(0.12741 0 -0.0149283)
(0.14074 0 -0.016809)
(0.153037 0 -0.018653)
(0.164458 0 -0.0204749)
(0.175129 0 -0.0222851)
(0.185155 0 -0.024091)
(0.194628 0 -0.0258994)
(0.203613 0 -0.0277121)
(0.212179 0 -0.0295335)
(0.220359 0 -0.0313626)
(0.228162 0 -0.0331931)
(0.235601 0 -0.0350209)
(0.242669 0 -0.0368378)
(0.249356 0 -0.0386353)
(0.255648 0 -0.0404036)
(0.0130618 0 -0.00141698)
(0.0377329 0 -0.00411145)
(0.0597388 0 -0.00656102)
(0.0794319 0 -0.00882034)
(0.0971591 0 -0.0109369)
(0.113215 0 -0.0129479)
(0.127842 0 -0.0148815)
(0.14124 0 -0.0167587)
(0.153583 0 -0.0185968)
(0.165027 0 -0.0204103)
(0.175695 0 -0.0222079)
(0.185675 0 -0.0239943)
(0.195074 0 -0.0257784)
(0.203959 0 -0.0275623)
(0.212365 0 -0.0293431)
(0.220332 0 -0.0311202)
(0.227881 0 -0.0328891)
(0.235025 0 -0.0346443)
(0.241764 0 -0.0363783)
(0.248095 0 -0.0380829)
(0.0130425 0 -0.00139771)
(0.0377 0 -0.00405871)
(0.0597299 0 -0.00648227)
(0.079468 0 -0.00872053)
(0.0972482 0 -0.0108189)
(0.113365 0 -0.0128145)
(0.12805 0 -0.0147333)
(0.141489 0 -0.0165945)
(0.153844 0 -0.018413)
(0.165289 0 -0.0202055)
(0.17594 0 -0.0219803)
(0.185869 0 -0.023739)
(0.195172 0 -0.0254872)
(0.203915 0 -0.0272273)
(0.212144 0 -0.0289573)
(0.219896 0 -0.0306748)
(0.227194 0 -0.0323754)
(0.234055 0 -0.0340535)
(0.240484 0 -0.035702)
(0.246484 0 -0.0373132)
(0.0130009 0 -0.00136817)
(0.037604 0 -0.00397626)
(0.0596224 0 -0.00635622)
(0.0793738 0 -0.00855716)
(0.0971699 0 -0.0106211)
(0.11332 0 -0.0125861)
(0.128046 0 -0.0144772)
(0.141505 0 -0.0163096)
(0.153869 0 -0.018099)
(0.16529 0 -0.0198577)
(0.17588 0 -0.0215943)
(0.185729 0 -0.0233121)
(0.194919 0 -0.025014)
(0.203513 0 -0.026701)
(0.21156 0 -0.0283713)
(0.219098 0 -0.0300221)
(0.226153 0 -0.0316488)
(0.232744 0 -0.0332458)
(0.238884 0 -0.0348069)
(0.244579 0 -0.0363248)
(0.0129389 0 -0.00132785)
(0.0374488 0 -0.00386235)
(0.0594228 0 -0.00617995)
(0.0791622 0 -0.00832679)
(0.0969729 0 -0.0103433)
(0.113128 0 -0.0122621)
(0.127845 0 -0.0141079)
(0.141296 0 -0.0158968)
(0.15364 0 -0.0176425)
(0.165015 0 -0.0193555)
(0.175534 0 -0.0210427)
(0.185287 0 -0.0227077)
(0.194352 0 -0.0243525)
(0.202792 0 -0.0259771)
(0.210657 0 -0.0275795)
(0.217986 0 -0.0291567)
(0.224808 0 -0.0307043)
(0.231147 0 -0.0322169)
(0.237019 0 -0.0336888)
(0.242434 0 -0.0351134)
(0.0128583 0 -0.00127634)
(0.0372388 0 -0.00371569)
(0.0591366 0 -0.00595112)
(0.0788356 0 -0.00802549)
(0.0966272 0 -0.00997655)
(0.112765 0 -0.0118339)
(0.127457 0 -0.01362)
(0.140878 0 -0.0153508)
(0.153181 0 -0.0170386)
(0.164495 0 -0.0186924)
(0.17493 0 -0.020318)
(0.184577 0 -0.0219187)
(0.193511 0 -0.0234958)
(0.201796 0 -0.0250486)
(0.209482 0 -0.0265751)
(0.21661 0 -0.0280722)
(0.223213 0 -0.0295355)
(0.229316 0 -0.0309603)
(0.23494 0 -0.032341)
(0.240102 0 -0.0336722)
(0.0127603 0 -0.00121337)
(0.0369792 0 -0.00353552)
(0.0587719 0 -0.00566835)
(0.0784036 0 -0.00765112)
(0.0961498 0 -0.00951846)
(0.112248 0 -0.0112973)
(0.1269 0 -0.0130079)
(0.140274 0 -0.0146653)
(0.152519 0 -0.0162806)
(0.16376 0 -0.0178614)
(0.174103 0 -0.0194128)
(0.183638 0 -0.0209374)
(0.19244 0 -0.0224359)
(0.200571 0 -0.0239074)
(0.208085 0 -0.0253499)
(0.215022 0 -0.02676)
(0.22142 0 -0.0281339)
(0.227305 0 -0.029467)
(0.232703 0 -0.0307544)
(0.237633 0 -0.0319913)
(0.0126478 0 -0.00113863)
(0.0366771 0 -0.00332078)
(0.0583399 0 -0.00532972)
(0.0778814 0 -0.00720085)
(0.0955607 0 -0.00896549)
(0.111602 0 -0.0106479)
(0.126198 0 -0.0122663)
(0.139513 0 -0.0138343)
(0.15169 0 -0.0153617)
(0.162849 0 -0.0168552)
(0.173095 0 -0.018319)
(0.182515 0 -0.0197552)
(0.191185 0 -0.021164)
(0.199168 0 -0.0225444)
(0.206517 0 -0.0238942)
(0.213276 0 -0.0252102)
(0.219483 0 -0.0264888)
(0.22517 0 -0.0277258)
(0.230362 0 -0.0289169)
(0.235084 0 -0.0300577)
(0.0125239 0 -0.00105183)
(0.0363419 0 -0.00307053)
(0.0578545 0 -0.00493348)
(0.0772876 0 -0.0066721)
(0.0948834 0 -0.00831422)
(0.110854 0 -0.00988136)
(0.125383 0 -0.0113898)
(0.138629 0 -0.0128515)
(0.150729 0 -0.014275)
(0.161802 0 -0.0156661)
(0.171948 0 -0.0170282)
(0.181255 0 -0.018363)
(0.189798 0 -0.0196702)
(0.19764 0 -0.0209488)
(0.204835 0 -0.0221965)
(0.211429 0 -0.0234103)
(0.217462 0 -0.0245869)
(0.222968 0 -0.0257224)
(0.227975 0 -0.0268131)
(0.23251 0 -0.0278551)
(0.0123926 0 -0.000952747)
(0.0359842 0 -0.00278395)
(0.0573327 0 -0.00447808)
(0.0766443 0 -0.00606245)
(0.0941452 0 -0.00756135)
(0.110035 0 -0.00899354)
(0.12449 0 -0.0103732)
(0.137661 0 -0.0117106)
(0.149681 0 -0.0130132)
(0.160665 0 -0.0142858)
(0.170713 0 -0.0155311)
(0.179911 0 -0.0167503)
(0.188334 0 -0.0179431)
(0.196044 0 -0.0191081)
(0.203097 0 -0.0202432)
(0.209541 0 -0.0213456)
(0.215417 0 -0.0224122)
(0.220761 0 -0.0234396)
(0.225603 0 -0.0244245)
(0.229973 0 -0.0253635)
(0.0122581 0 -0.000841168)
(0.0356166 0 -0.0024603)
(0.056794 0 -0.00396207)
(0.0759774 0 -0.00536966)
(0.0933772 0 -0.0067037)
(0.109182 0 -0.00798016)
(0.123558 0 -0.00921104)
(0.136651 0 -0.0104051)
(0.148592 0 -0.0115686)
(0.15949 0 -0.0127053)
(0.169445 0 -0.0138174)
(0.178541 0 -0.0149056)
(0.186852 0 -0.0159696)
(0.194442 0 -0.0170078)
(0.201368 0 -0.0180183)
(0.207678 0 -0.0189985)
(0.213414 0 -0.0199456)
(0.218614 0 -0.0208565)
(0.223312 0 -0.0217284)
(0.227537 0 -0.0225584)
(0.0121256 0 -0.000716919)
(0.0352539 0 -0.00209895)
(0.0562611 0 -0.00338417)
(0.0753163 0 -0.00459158)
(0.0926147 0 -0.00573815)
(0.108334 0 -0.00683701)
(0.122632 0 -0.00789802)
(0.135651 0 -0.00892835)
(0.147515 0 -0.00993292)
(0.158333 0 -0.0109149)
(0.168202 0 -0.0118757)
(0.177205 0 -0.012816)
(0.185417 0 -0.013735)
(0.192901 0 -0.0146314)
(0.199715 0 -0.0155033)
(0.205908 0 -0.0163485)
(0.211524 0 -0.0171644)
(0.216601 0 -0.0179484)
(0.221175 0 -0.0186981)
(0.225276 0 -0.0194108)
(0.0120011 0 -0.000579862)
(0.0349127 0 -0.00169936)
(0.0557602 0 -0.00274322)
(0.0746949 0 -0.00372626)
(0.0918981 0 -0.00466176)
(0.107537 0 -0.00555997)
(0.121764 0 -0.00642861)
(0.134715 0 -0.00727323)
(0.14651 0 -0.00809762)
(0.157257 0 -0.0089041)
(0.16705 0 -0.00969378)
(0.175974 0 -0.0104668)
(0.1841 0 -0.0112225)
(0.191495 0 -0.0119597)
(0.198214 0 -0.0126767)
(0.204309 0 -0.0133716)
(0.209824 0 -0.0140421)
(0.214799 0 -0.0146861)
(0.219269 0 -0.0153015)
(0.223268 0 -0.0158862)
(0.0118914 0 -0.000429898)
(0.034613 0 -0.00126111)
(0.0553217 0 -0.00203826)
(0.0741522 0 -0.00277196)
(0.0912733 0 -0.00347176)
(0.106844 0 -0.00414505)
(0.12101 0 -0.00479735)
(0.133903 0 -0.00543265)
(0.145641 0 -0.00605362)
(0.156329 0 -0.00666184)
(0.166061 0 -0.00725802)
(0.17492 0 -0.00784213)
(0.182978 0 -0.00841357)
(0.190301 0 -0.0089713)
(0.196946 0 -0.00951397)
(0.202963 0 -0.01004)
(0.208399 0 -0.0105477)
(0.213294 0 -0.0110353)
(0.217684 0 -0.0115012)
(0.221602 0 -0.0119438)
(0.0118053 0 -0.000266986)
(0.034379 0 -0.000783966)
(0.0549816 0 -0.00126859)
(0.0737334 0 -0.00172726)
(0.0907929 0 -0.00216576)
(0.106312 0 -0.00258856)
(0.120433 0 -0.00299902)
(0.133283 0 -0.00339953)
(0.14498 0 -0.00379169)
(0.155626 0 -0.0041764)
(0.165314 0 -0.00455402)
(0.174126 0 -0.00492448)
(0.182136 0 -0.00528731)
(0.189408 0 -0.00564179)
(0.196 0 -0.005987)
(0.201963 0 -0.00632186)
(0.207343 0 -0.00664524)
(0.212181 0 -0.006956)
(0.216514 0 -0.00725301)
(0.220376 0 -0.00753521)
(0.0117545 0 -9.11725e-05)
(0.0342421 0 -0.000267911)
(0.054785 0 -0.000433907)
(0.073493 0 -0.000591304)
(0.0905183 0 -0.000742043)
(0.10601 0 -0.000887633)
(0.120105 0 -0.0010292)
(0.132933 0 -0.00116755)
(0.144606 0 -0.0013032)
(0.155229 0 -0.00143646)
(0.164894 0 -0.00156743)
(0.173681 0 -0.00169607)
(0.181665 0 -0.00182219)
(0.18891 0 -0.00194553)
(0.195474 0 -0.00206574)
(0.201408 0 -0.00218245)
(0.206758 0 -0.00229523)
(0.211566 0 -0.00240367)
(0.21587 0 -0.00250736)
(0.219702 0 -0.00260592)
)
;

boundaryField
{
    inlet
    {
        type            cellMotion;
        value           uniform (0 0 0);
    }
    outlet
    {
        type            cellMotion;
        value           nonuniform 0();
    }
    flap
    {
        type            cellMotion;
        value           nonuniform 0();
    }
    upperWall
    {
        type            slip;
    }
    lowerWall
    {
        type            slip;
    }
    frontAndBack
    {
        type            empty;
    }
    procBoundary0to1
    {
        type            processor;
        value           nonuniform List<vector> 
18
(
(0.263215 0 -0.042684)
(0.261519 0 -0.0421314)
(0.254007 0 -0.0397487)
(0.254007 0 -0.0397487)
(0.25205 0 -0.0388786)
(0.249831 0 -0.0377917)
(0.247401 0 -0.0364838)
(0.24481 0 -0.0349473)
(0.242109 0 -0.0331718)
(0.239351 0 -0.0311432)
(0.236591 0 -0.028844)
(0.233889 0 -0.0262525)
(0.23131 0 -0.0233428)
(0.228926 0 -0.0200835)
(0.226817 0 -0.0164377)
(0.225071 0 -0.012361)
(0.22379 0 -0.00780126)
(0.223086 0 -0.00269888)
)
;
    }
    procBoundary0to3
    {
        type            processor;
        value           nonuniform List<vector> 
34
(
(0.0112896 0 -0.00086461)
(0.0323582 0 -0.00248592)
(0.0513372 0 -0.00417493)
(0.0513372 0 -0.00417493)
(0.068464 0 -0.00589174)
(0.068464 0 -0.00589174)
(0.0841232 0 -0.00765178)
(0.0841232 0 -0.00765178)
(0.0987089 0 -0.00947665)
(0.0987089 0 -0.00947665)
(0.112505 0 -0.0113789)
(0.112505 0 -0.0113789)
(0.125774 0 -0.0133739)
(0.125774 0 -0.0133739)
(0.136045 0 -0.0147783)
(0.148636 0 -0.0169529)
(0.148636 0 -0.0169529)
(0.161213 0 -0.0192541)
(0.161213 0 -0.0192541)
(0.170452 0 -0.0208415)
(0.182944 0 -0.0233603)
(0.182944 0 -0.0233603)
(0.191955 0 -0.0251056)
(0.204124 0 -0.0277729)
(0.204124 0 -0.0277729)
(0.21562 0 -0.0303944)
(0.21562 0 -0.0303944)
(0.224313 0 -0.0323718)
(0.234434 0 -0.0348773)
(0.234434 0 -0.0348773)
(0.242546 0 -0.0369096)
(0.250584 0 -0.0390806)
(0.250584 0 -0.0390806)
(0.257728 0 -0.0410556)
)
;
    }
}


// ************************************************************************* //
