/*--------------------------------*- C++ -*----------------------------------*\
| =========                 |                                                 |
| \\      /  F ield         | OpenFOAM: The Open Source CFD Toolbox           |
|  \\    /   O peration     | Version:  dev                                   |
|   \\  /    A nd           | Web:      www.OpenFOAM.org                      |
|    \\/     M anipulation  |                                                 |
\*---------------------------------------------------------------------------*/
FoamFile
{
    version     2.0;
    format      ascii;
    class       pointVectorField;
    location    "0.66";
    object      pointDisplacement;
}
// * * * * * * * * * * * * * * * * * * * * * * * * * * * * * * * * * * * * * //

dimensions      [0 1 0 0 0 0 0];

internalField   nonuniform List<vector> 
1034
(
(0 0 0)
(0.0236988 0 0.0101693)
(0.0449834 0 0.0195658)
(0 0 0)
(0.0236988 0 0.0101693)
(0.0449834 0 0.0195658)
(0 0 0)
(0.0236557 0 0.010744)
(0.0449106 0 0.0206725)
(0.0633361 0 0.0296263)
(0 0 0)
(0.023601 0 0.0113051)
(0.0448182 0 0.021754)
(0.0632211 0 0.0311827)
(0.0791922 0 0.0397863)
(0 0 0)
(0.0235322 0 0.0118471)
(0.0447037 0 0.022801)
(0.0630776 0 0.0326906)
(0.0790305 0 0.0417224)
(0.09291 0 0.0500756)
(0 0 0)
(0.023458 0 0.0123713)
(0.0445687 0 0.0238071)
(0.0628997 0 0.0341347)
(0.0788263 0 0.0435744)
(0.0926955 0 0.0523177)
(0.104799 0 0.060518)
(0 0 0)
(0.0233766 0 0.0128696)
(0.0444101 0 0.024756)
(0.0626827 0 0.0354907)
(0.0785723 0 0.04531)
(0.0924209 0 0.0544139)
(0.104515 0 0.0629616)
(0.115097 0 0.0710781)
(0 0 0)
(0.0232756 0 0.0133286)
(0.0442198 0 0.0256297)
(0.0624231 0 0.0367378)
(0.0782644 0 0.046903)
(0.0920813 0 0.0563338)
(0.104156 0 0.0651953)
(0.114727 0 0.0736182)
(0.123993 0 0.0817087)
(0.132127 0 0.0895559)
(0 0 0)
(0.0231548 0 0.0137431)
(0.043994 0 0.0264173)
(0.0621154 0 0.0378601)
(0.0778965 0 0.0483335)
(0.0916707 0 0.0580538)
(0.103716 0 0.0671912)
(0.114267 0 0.075881)
(0.12352 0 0.0842329)
(0.131644 0 0.0923381)
(0.138785 0 0.100274)
(0 0 0)
(0.0230128 0 0.0141072)
(0.0437295 0 0.0271075)
(0.061755 0 0.0388416)
(0.0774636 0 0.0495815)
(0.0911838 0 0.0595501)
(0.103189 0 0.0689219)
(0.11371 0 0.0778354)
(0.122941 0 0.086402)
(0.131048 0 0.094713)
(0.138172 0 0.102845)
(0.144436 0 0.110862)
(0.149945 0 0.118817)
(0 0 0)
(0.0228481 0 0.014415)
(0.0434237 0 0.0276891)
(0.0613385 0 0.0396665)
(0.0769617 0 0.0506274)
(0.0906168 0 0.0607997)
(0.102572 0 0.0703613)
(0.113055 0 0.0794522)
(0.122255 0 0.0881843)
(0.130335 0 0.0966479)
(0.137435 0 0.104917)
(0.143674 0 0.113051)
(0.149155 0 0.121099)
(0.153964 0 0.129098)
(0.158176 0 0.137074)
(0 0 0)
(0.0226596 0 0.0146607)
(0.0430745 0 0.0281511)
(0.0608631 0 0.0403194)
(0.0763881 0 0.051452)
(0.0899668 0 0.0617803)
(0.101863 0 0.0714841)
(0.112298 0 0.0807041)
(0.121458 0 0.0895512)
(0.129505 0 0.0981138)
(0.136574 0 0.106462)
(0.142783 0 0.114651)
(0.148231 0 0.122724)
(0.153005 0 0.130711)
(0.157177 0 0.13863)
(0.16081 0 0.146483)
(0 0 0)
(0.0224466 0 0.0148386)
(0.0426807 0 0.0284827)
(0.0603272 0 0.0407854)
(0.0757412 0 0.0520369)
(0.0892327 0 0.0624707)
(0.10106 0 0.072267)
(0.111439 0 0.081566)
(0.120554 0 0.090477)
(0.128561 0 0.0990857)
(0.135594 0 0.107458)
(0.141768 0 0.115645)
(0.147182 0 0.123683)
(0.151919 0 0.131595)
(0.156054 0 0.139393)
(0.159646 0 0.147076)
(0.16275 0 0.154628)
(0.16541 0 0.162022)
(0 0 0)
(0.0222088 0 0.0149431)
(0.0422418 0 0.0286737)
(0.0597305 0 0.0410503)
(0.0750207 0 0.0523648)
(0.0884146 0 0.0628509)
(0.100164 0 0.0726882)
(0.11048 0 0.0820152)
(0.119543 0 0.0909389)
(0.127505 0 0.0995416)
(0.134498 0 0.107886)
(0.140635 0 0.116017)
(0.146013 0 0.123966)
(0.150715 0 0.131752)
(0.154814 0 0.139381)
(0.158372 0 0.146846)
(0.161442 0 0.154131)
(0.164071 0 0.161206)
(0.1663 0 0.168031)
(0.168165 0 0.17456)
(0 0 0)
(0.0219464 0 0.0149689)
(0.0417582 0 0.0287145)
(0.0590737 0 0.0411008)
(0.074228 0 0.0524194)
(0.0875145 0 0.0629024)
(0.0991779 0 0.0727276)
(0.109425 0 0.082031)
(0.11843 0 0.0909165)
(0.126343 0 0.0994631)
(0.133293 0 0.107729)
(0.139392 0 0.115756)
(0.144734 0 0.123571)
(0.149402 0 0.131187)
(0.15347 0 0.138607)
(0.156997 0 0.145822)
(0.16004 0 0.152813)
(0.162646 0 0.159554)
(0.164857 0 0.166007)
(0.166711 0 0.17213)
(0.168243 0 0.177876)
(0.169485 0 0.18319)
(0 0 0)
(0.0216599 0 0.0149112)
(0.0412313 0 0.0285959)
(0.0583588 0 0.0409245)
(0.0733657 0 0.0521856)
(0.0865356 0 0.0626083)
(0.0981061 0 0.0723671)
(0.108278 0 0.0815948)
(0.117221 0 0.090392)
(0.125082 0 0.0988339)
(0.131988 0 0.106975)
(0.138047 0 0.114854)
(0.143354 0 0.122492)
(0.147992 0 0.129902)
(0.15203 0 0.137083)
(0.155533 0 0.144024)
(0.158555 0 0.150708)
(0.161144 0 0.157107)
(0.163343 0 0.163192)
(0.165193 0 0.168925)
(0.166728 0 0.174269)
(0.167981 0 0.179177)
(0 0 0)
(0.0213505 0 0.0147656)
(0.0406633 0 0.0283098)
(0.0575891 0 0.04051)
(0.0724379 0 0.0516496)
(0.0854832 0 0.0619529)
(0.0969544 0 0.0715901)
(0.107046 0 0.0806899)
(0.115924 0 0.0893492)
(0.123731 0 0.0976396)
(0.130592 0 0.105612)
(0.136612 0 0.113301)
(0.141886 0 0.120728)
(0.146494 0 0.1279)
(0.150508 0 0.134816)
(0.15399 0 0.141466)
(0.156995 0 0.147833)
(0.159573 0 0.153893)
(0.161768 0 0.159619)
(0.163618 0 0.164982)
(0.165159 0 0.169949)
(0.166426 0 0.174485)
(0 0 0)
(0.0210201 0 0.0145279)
(0.0400576 0 0.0278487)
(0.0567691 0 0.039847)
(0.0714506 0 0.0507987)
(0.0843641 0 0.0609218)
(0.0957307 0 0.0703811)
(0.105739 0 0.0793007)
(0.114549 0 0.0877733)
(0.122301 0 0.0958667)
(0.129116 0 0.103629)
(0.135098 0 0.111091)
(0.14034 0 0.118273)
(0.144922 0 0.12518)
(0.148915 0 0.131811)
(0.15238 0 0.138157)
(0.155374 0 0.144201)
(0.157946 0 0.149924)
(0.160139 0 0.155303)
(0.161992 0 0.160313)
(0.163543 0 0.164928)
(0 0 0)
(0.020671 0 0.0141946)
(0.0394184 0 0.0272058)
(0.0559049 0 0.0389259)
(0.070411 0 0.0496213)
(0.0831869 0 0.059502)
(0.0944448 0 0.0687262)
(0.104366 0 0.0774128)
(0.113107 0 0.08565)
(0.120803 0 0.0935021)
(0.127573 0 0.101014)
(0.133519 0 0.108214)
(0.138731 0 0.115121)
(0.14329 0 0.121739)
(0.147264 0 0.128067)
(0.150717 0 0.134097)
(0.153704 0 0.139815)
(0.156272 0 0.145204)
(0.158467 0 0.150245)
(0.160327 0 0.154919)
(0.161889 0 0.159206)
(0 0 0)
(0.0203059 0 0.0137624)
(0.0387512 0 0.0263751)
(0.0550037 0 0.0377383)
(0.0693281 0 0.0481068)
(0.0819619 0 0.057681)
(0.093108 0 0.0666117)
(0.102941 0 0.0750121)
(0.111612 0 0.0829655)
(0.119253 0 0.0905323)
(0.125978 0 0.0977545)
(0.131889 0 0.104659)
(0.137074 0 0.111262)
(0.141612 0 0.117569)
(0.145572 0 0.123578)
(0.149016 0 0.129282)
(0.151997 0 0.134669)
(0.154566 0 0.139727)
(0.156765 0 0.14444)
(0.158633 0 0.148792)
(0.160207 0 0.152768)
(0 0 0)
(0.0199284 0 0.0132286)
(0.0380623 0 0.0253511)
(0.0540743 0 0.0362762)
(0.0682124 0 0.046245)
(0.0807011 0 0.0554469)
(0.0917339 0 0.0640246)
(0.101478 0 0.0720845)
(0.110079 0 0.0797051)
(0.117665 0 0.0869428)
(0.124348 0 0.0938367)
(0.130226 0 0.100412)
(0.135386 0 0.106683)
(0.139906 0 0.112656)
(0.143854 0 0.118329)
(0.147291 0 0.123697)
(0.150271 0 0.128751)
(0.152842 0 0.133478)
(0.155047 0 0.137868)
(0.156925 0 0.141909)
(0.158511 0 0.145589)
(0 0 0)
(0.0195426 0 0.0125905)
(0.0373592 0 0.0241288)
(0.0531268 0 0.0345322)
(0.0670762 0 0.0440263)
(0.0794187 0 0.0527884)
(0.0903377 0 0.0609517)
(0.0999933 0 0.0686156)
(0.108526 0 0.0758533)
(0.116059 0 0.0827173)
(0.1227 0 0.0892437)
(0.128548 0 0.0954559)
(0.133686 0 0.101367)
(0.138191 0 0.106983)
(0.14213 0 0.112304)
(0.145562 0 0.117324)
(0.148542 0 0.122036)
(0.151118 0 0.126433)
(0.15333 0 0.130503)
(0.155219 0 0.134239)
(0.156817 0 0.137633)
(0 0 0)
(0.0191531 0 0.0118458)
(0.0366503 0 0.0227036)
(0.0521728 0 0.0324992)
(0.0659336 0 0.0414413)
(0.0781305 0 0.0496935)
(0.0889371 0 0.0573791)
(0.0985059 0 0.0645899)
(0.106972 0 0.0713932)
(0.114453 0 0.0778372)
(0.121057 0 0.0839554)
(0.126876 0 0.0897691)
(0.131995 0 0.0952907)
(0.136487 0 0.100526)
(0.140419 0 0.105474)
(0.14385 0 0.110132)
(0.146832 0 0.114495)
(0.149413 0 0.118555)
(0.151634 0 0.122306)
(0.153534 0 0.12574)
(0.155145 0 0.128854)
(0 0 0)
(0.0187652 0 0.0109923)
(0.0359455 0 0.0210708)
(0.0512254 0 0.0301701)
(0.0648004 0 0.0384802)
(0.0768547 0 0.0461502)
(0.0875518 0 0.0532924)
(0.0970367 0 0.0599903)
(0.105438 0 0.0663054)
(0.112872 0 0.0722813)
(0.11944 0 0.0779484)
(0.125235 0 0.0833261)
(0.130336 0 0.0884258)
(0.134818 0 0.0932525)
(0.138746 0 0.0978069)
(0.142176 0 0.102086)
(0.145163 0 0.106087)
(0.14775 0 0.109803)
(0.149981 0 0.113229)
(0.151892 0 0.11636)
(0.153515 0 0.119195)
(0 0 0)
(0.0183848 0 0.0100279)
(0.0352556 0 0.0192259)
(0.0502995 0 0.0275377)
(0.0636945 0 0.035133)
(0.0756115 0 0.0421455)
(0.0862038 0 0.0486756)
(0.0956091 0 0.0547983)
(0.103951 0 0.0605684)
(0.11134 0 0.066025)
(0.117877 0 0.0711952)
(0.123649 0 0.0760963)
(0.128736 0 0.0807386)
(0.13321 0 0.0851267)
(0.137135 0 0.0892615)
(0.140568 0 0.0931411)
(0.143559 0 0.0967622)
(0.146154 0 0.100121)
(0.148395 0 0.103213)
(0.150317 0 0.106036)
(0.151952 0 0.108587)
(0 0 0)
(0.0180188 0 0.00895041)
(0.034593 0 0.0171643)
(0.0494119 0 0.0245942)
(0.0626364 0 0.0313889)
(0.0744239 0 0.0376653)
(0.0849181 0 0.0435114)
(0.0942497 0 0.0489928)
(0.102537 0 0.0541577)
(0.109886 0 0.0590401)
(0.116394 0 0.0636638)
(0.122147 0 0.0680437)
(0.127223 0 0.072189)
(0.131692 0 0.0761036)
(0.135616 0 0.0797886)
(0.139052 0 0.0832425)
(0.142049 0 0.0864628)
(0.144653 0 0.0894464)
(0.146904 0 0.0921905)
(0.148837 0 0.0946927)
(0.150484 0 0.0969529)
(0 0 0)
(0.0176747 0 0.00775741)
(0.0339718 0 0.0148808)
(0.0485818 0 0.0213317)
(0.0616488 0 0.0272365)
(0.0733176 0 0.0326944)
(0.0837228 0 0.0377805)
(0.0929879 0 0.0425507)
(0.101226 0 0.0470457)
(0.10854 0 0.0512947)
(0.115024 0 0.0553175)
(0.120762 0 0.0591269)
(0.125829 0 0.0627304)
(0.130295 0 0.0661316)
(0.13422 0 0.0693312)
(0.13766 0 0.0723281)
(0.140665 0 0.0751204)
(0.143278 0 0.0777055)
(0.145538 0 0.0800814)
(0.147482 0 0.0822464)
(0.149141 0 0.0842009)
(0 0 0)
(0.0173615 0 0.00644644)
(0.0334082 0 0.0123702)
(0.047831 0 0.0177415)
(0.0607579 0 0.0226631)
(0.0723221 0 0.0272163)
(0.0826494 0 0.0314621)
(0.0918571 0 0.0354463)
(0.100054 0 0.039202)
(0.107339 0 0.0427528)
(0.113803 0 0.046115)
(0.119528 0 0.0492987)
(0.12459 0 0.0523099)
(0.129054 0 0.0551514)
(0.132982 0 0.0578237)
(0.136427 0 0.060326)
(0.139439 0 0.0626564)
(0.142061 0 0.0648132)
(0.144332 0 0.0667947)
(0.146286 0 0.0685997)
(0.147955 0 0.0702287)
(0 0 0)
(0.0170896 0 0.00501487)
(0.0329212 0 0.00962679)
(0.047185 0 0.0138142)
(0.0599941 0 0.0176556)
(0.071471 0 0.0212131)
(0.081734 0 0.0245335)
(0.0908948 0 0.0276516)
(0.099058 0 0.0305927)
(0.10632 0 0.0333748)
(0.112769 0 0.0360101)
(0.118486 0 0.0385062)
(0.123544 0 0.0408676)
(0.128009 0 0.0430961)
(0.13194 0 0.045192)
(0.135392 0 0.0471546)
(0.138411 0 0.0489823)
(0.141041 0 0.0506737)
(0.143321 0 0.0522275)
(0.145285 0 0.0536429)
(0.146963 0 0.0549201)
(0 0 0)
(0.0168718 0 0.00345998)
(0.0325338 0 0.0066447)
(0.046674 0 0.00954034)
(0.0593927 0 0.0122002)
(0.0708033 0 0.0146664)
(0.0810179 0 0.0169707)
(0.0901439 0 0.0191367)
(0.0982828 0 0.0211816)
(0.105529 0 0.0231174)
(0.111968 0 0.0249524)
(0.11768 0 0.0266914)
(0.122736 0 0.0283374)
(0.127203 0 0.0298915)
(0.131138 0 0.0313537)
(0.134594 0 0.0327231)
(0.13762 0 0.0339989)
(0.140258 0 0.0351797)
(0.142546 0 0.0362647)
(0.144517 0 0.0372533)
(0.146203 0 0.0381455)
(0 0 0)
(0.0167246 0 0.00177903)
(0.0322746 0 0.00341785)
(0.0463349 0 0.00490979)
(0.0589958 0 0.00628188)
(0.0703645 0 0.00755547)
(0.0805488 0 0.00874672)
(0.0896534 0 0.00986759)
(0.0977775 0 0.0109268)
(0.105014 0 0.0119303)
(0.111447 0 0.0128823)
(0.117157 0 0.0137851)
(0.122213 0 0.0146402)
(0.126681 0 0.015448)
(0.13062 0 0.0162084)
(0.134081 0 0.0169209)
(0.137111 0 0.017585)
(0.139754 0 0.0181999)
(0.142048 0 0.018765)
(0.144025 0 0.0192801)
(0.145716 0 0.0197452)
(0 0 0)
(0.0166647 0 0)
(0.0321766 0 0)
(0.04621 0 0)
(0.0588516 0 0)
(0.0702064 0 0)
(0.0803808 0 0)
(0.0894784 0 0)
(0.0975979 0 0)
(0.104831 0 0)
(0.111263 0 0)
(0.116972 0 0)
(0.122029 0 0)
(0.126498 0 0)
(0.130438 0 0)
(0.1339 0 0)
(0.136933 0 0)
(0.139578 0 0)
(0.141873 0 0)
(0.143853 0 0)
(0.145546 0 0)
(0 0 0)
(0.0236557 0 0.010744)
(0.0449106 0 0.0206725)
(0.0633361 0 0.0296263)
(0 0 0)
(0.023601 0 0.0113051)
(0.0448182 0 0.021754)
(0.0632211 0 0.0311827)
(0.0791922 0 0.0397863)
(0 0 0)
(0.0235322 0 0.0118471)
(0.0447037 0 0.022801)
(0.0630776 0 0.0326906)
(0.0790305 0 0.0417224)
(0.09291 0 0.0500756)
(0 0 0)
(0.023458 0 0.0123713)
(0.0445687 0 0.0238071)
(0.0628997 0 0.0341347)
(0.0788263 0 0.0435744)
(0.0926955 0 0.0523177)
(0.104799 0 0.060518)
(0 0 0)
(0.0233766 0 0.0128696)
(0.0444101 0 0.024756)
(0.0626827 0 0.0354907)
(0.0785723 0 0.04531)
(0.0924209 0 0.0544139)
(0.104515 0 0.0629616)
(0.115097 0 0.0710781)
(0 0 0)
(0.0232756 0 0.0133286)
(0.0442198 0 0.0256297)
(0.0624231 0 0.0367378)
(0.0782644 0 0.046903)
(0.0920813 0 0.0563338)
(0.104156 0 0.0651953)
(0.114727 0 0.0736182)
(0.123993 0 0.0817087)
(0.132127 0 0.0895559)
(0 0 0)
(0.0231548 0 0.0137431)
(0.043994 0 0.0264173)
(0.0621154 0 0.0378601)
(0.0778965 0 0.0483335)
(0.0916707 0 0.0580538)
(0.103716 0 0.0671912)
(0.114267 0 0.075881)
(0.12352 0 0.0842329)
(0.131644 0 0.0923381)
(0.138785 0 0.100274)
(0 0 0)
(0.0230128 0 0.0141072)
(0.0437295 0 0.0271075)
(0.061755 0 0.0388416)
(0.0774636 0 0.0495815)
(0.0911838 0 0.0595501)
(0.103189 0 0.0689219)
(0.11371 0 0.0778354)
(0.122941 0 0.086402)
(0.131048 0 0.094713)
(0.138172 0 0.102845)
(0.144436 0 0.110862)
(0.149945 0 0.118817)
(0 0 0)
(0.0228481 0 0.014415)
(0.0434237 0 0.0276891)
(0.0613385 0 0.0396665)
(0.0769617 0 0.0506274)
(0.0906168 0 0.0607997)
(0.102572 0 0.0703613)
(0.113055 0 0.0794522)
(0.122255 0 0.0881843)
(0.130335 0 0.0966479)
(0.137435 0 0.104917)
(0.143674 0 0.113051)
(0.149155 0 0.121099)
(0.153964 0 0.129098)
(0.158176 0 0.137074)
(0 0 0)
(0.0226596 0 0.0146607)
(0.0430745 0 0.0281511)
(0.0608631 0 0.0403194)
(0.0763881 0 0.051452)
(0.0899668 0 0.0617803)
(0.101863 0 0.0714841)
(0.112298 0 0.0807041)
(0.121458 0 0.0895512)
(0.129505 0 0.0981138)
(0.136574 0 0.106462)
(0.142783 0 0.114651)
(0.148231 0 0.122724)
(0.153005 0 0.130711)
(0.157177 0 0.13863)
(0.16081 0 0.146483)
(0 0 0)
(0.0224466 0 0.0148386)
(0.0426807 0 0.0284827)
(0.0603272 0 0.0407854)
(0.0757412 0 0.0520369)
(0.0892327 0 0.0624707)
(0.10106 0 0.072267)
(0.111439 0 0.081566)
(0.120554 0 0.090477)
(0.128561 0 0.0990857)
(0.135594 0 0.107458)
(0.141768 0 0.115645)
(0.147182 0 0.123683)
(0.151919 0 0.131595)
(0.156054 0 0.139393)
(0.159646 0 0.147076)
(0.16275 0 0.154628)
(0.16541 0 0.162022)
(0 0 0)
(0.0222088 0 0.0149431)
(0.0422418 0 0.0286737)
(0.0597305 0 0.0410503)
(0.0750207 0 0.0523648)
(0.0884146 0 0.0628509)
(0.100164 0 0.0726882)
(0.11048 0 0.0820152)
(0.119543 0 0.0909389)
(0.127505 0 0.0995416)
(0.134498 0 0.107886)
(0.140635 0 0.116017)
(0.146013 0 0.123966)
(0.150715 0 0.131752)
(0.154814 0 0.139381)
(0.158372 0 0.146846)
(0.161442 0 0.154131)
(0.164071 0 0.161206)
(0.1663 0 0.168031)
(0.168165 0 0.17456)
(0 0 0)
(0.0219464 0 0.0149689)
(0.0417582 0 0.0287145)
(0.0590737 0 0.0411008)
(0.074228 0 0.0524194)
(0.0875145 0 0.0629024)
(0.0991779 0 0.0727276)
(0.109425 0 0.082031)
(0.11843 0 0.0909165)
(0.126343 0 0.0994631)
(0.133293 0 0.107729)
(0.139392 0 0.115756)
(0.144734 0 0.123571)
(0.149402 0 0.131187)
(0.15347 0 0.138607)
(0.156997 0 0.145822)
(0.16004 0 0.152813)
(0.162646 0 0.159554)
(0.164857 0 0.166007)
(0.166711 0 0.17213)
(0.168243 0 0.177876)
(0.169485 0 0.18319)
(0 0 0)
(0.0216599 0 0.0149112)
(0.0412313 0 0.0285959)
(0.0583588 0 0.0409245)
(0.0733657 0 0.0521856)
(0.0865356 0 0.0626083)
(0.0981061 0 0.0723671)
(0.108278 0 0.0815948)
(0.117221 0 0.090392)
(0.125082 0 0.0988339)
(0.131988 0 0.106975)
(0.138047 0 0.114854)
(0.143354 0 0.122492)
(0.147992 0 0.129902)
(0.15203 0 0.137083)
(0.155533 0 0.144024)
(0.158555 0 0.150708)
(0.161144 0 0.157107)
(0.163343 0 0.163192)
(0.165193 0 0.168925)
(0.166728 0 0.174269)
(0.167981 0 0.179177)
(0 0 0)
(0.0213505 0 0.0147656)
(0.0406633 0 0.0283098)
(0.0575891 0 0.04051)
(0.0724379 0 0.0516496)
(0.0854832 0 0.0619529)
(0.0969544 0 0.0715901)
(0.107046 0 0.0806899)
(0.115924 0 0.0893492)
(0.123731 0 0.0976396)
(0.130592 0 0.105612)
(0.136612 0 0.113301)
(0.141886 0 0.120728)
(0.146494 0 0.1279)
(0.150508 0 0.134816)
(0.15399 0 0.141466)
(0.156995 0 0.147833)
(0.159573 0 0.153893)
(0.161768 0 0.159619)
(0.163618 0 0.164982)
(0.165159 0 0.169949)
(0.166426 0 0.174485)
(0 0 0)
(0.0210201 0 0.0145279)
(0.0400576 0 0.0278487)
(0.0567691 0 0.039847)
(0.0714506 0 0.0507987)
(0.0843641 0 0.0609218)
(0.0957307 0 0.0703811)
(0.105739 0 0.0793007)
(0.114549 0 0.0877733)
(0.122301 0 0.0958667)
(0.129116 0 0.103629)
(0.135098 0 0.111091)
(0.14034 0 0.118273)
(0.144922 0 0.12518)
(0.148915 0 0.131811)
(0.15238 0 0.138157)
(0.155374 0 0.144201)
(0.157946 0 0.149924)
(0.160139 0 0.155303)
(0.161992 0 0.160313)
(0.163543 0 0.164928)
(0 0 0)
(0.020671 0 0.0141946)
(0.0394184 0 0.0272058)
(0.0559049 0 0.0389259)
(0.070411 0 0.0496213)
(0.0831869 0 0.059502)
(0.0944448 0 0.0687262)
(0.104366 0 0.0774128)
(0.113107 0 0.08565)
(0.120803 0 0.0935021)
(0.127573 0 0.101014)
(0.133519 0 0.108214)
(0.138731 0 0.115121)
(0.14329 0 0.121739)
(0.147264 0 0.128067)
(0.150717 0 0.134097)
(0.153704 0 0.139815)
(0.156272 0 0.145204)
(0.158467 0 0.150245)
(0.160327 0 0.154919)
(0.161889 0 0.159206)
(0 0 0)
(0.0203059 0 0.0137624)
(0.0387512 0 0.0263751)
(0.0550037 0 0.0377383)
(0.0693281 0 0.0481068)
(0.0819619 0 0.057681)
(0.093108 0 0.0666117)
(0.102941 0 0.0750121)
(0.111612 0 0.0829655)
(0.119253 0 0.0905323)
(0.125978 0 0.0977545)
(0.131889 0 0.104659)
(0.137074 0 0.111262)
(0.141612 0 0.117569)
(0.145572 0 0.123578)
(0.149016 0 0.129282)
(0.151997 0 0.134669)
(0.154566 0 0.139727)
(0.156765 0 0.14444)
(0.158633 0 0.148792)
(0.160207 0 0.152768)
(0 0 0)
(0.0199284 0 0.0132286)
(0.0380623 0 0.0253511)
(0.0540743 0 0.0362762)
(0.0682124 0 0.046245)
(0.0807011 0 0.0554469)
(0.0917339 0 0.0640246)
(0.101478 0 0.0720845)
(0.110079 0 0.0797051)
(0.117665 0 0.0869428)
(0.124348 0 0.0938367)
(0.130226 0 0.100412)
(0.135386 0 0.106683)
(0.139906 0 0.112656)
(0.143854 0 0.118329)
(0.147291 0 0.123697)
(0.150271 0 0.128751)
(0.152842 0 0.133478)
(0.155047 0 0.137868)
(0.156925 0 0.141909)
(0.158511 0 0.145589)
(0 0 0)
(0.0195426 0 0.0125905)
(0.0373592 0 0.0241288)
(0.0531268 0 0.0345322)
(0.0670762 0 0.0440263)
(0.0794187 0 0.0527884)
(0.0903377 0 0.0609517)
(0.0999933 0 0.0686156)
(0.108526 0 0.0758533)
(0.116059 0 0.0827173)
(0.1227 0 0.0892437)
(0.128548 0 0.0954559)
(0.133686 0 0.101367)
(0.138191 0 0.106983)
(0.14213 0 0.112304)
(0.145562 0 0.117324)
(0.148542 0 0.122036)
(0.151118 0 0.126433)
(0.15333 0 0.130503)
(0.155219 0 0.134239)
(0.156817 0 0.137633)
(0 0 0)
(0.0191531 0 0.0118458)
(0.0366503 0 0.0227036)
(0.0521728 0 0.0324992)
(0.0659336 0 0.0414413)
(0.0781305 0 0.0496935)
(0.0889371 0 0.0573791)
(0.0985059 0 0.0645899)
(0.106972 0 0.0713932)
(0.114453 0 0.0778372)
(0.121057 0 0.0839554)
(0.126876 0 0.0897691)
(0.131995 0 0.0952907)
(0.136487 0 0.100526)
(0.140419 0 0.105474)
(0.14385 0 0.110132)
(0.146832 0 0.114495)
(0.149413 0 0.118555)
(0.151634 0 0.122306)
(0.153534 0 0.12574)
(0.155145 0 0.128854)
(0 0 0)
(0.0187652 0 0.0109923)
(0.0359455 0 0.0210708)
(0.0512254 0 0.0301701)
(0.0648004 0 0.0384802)
(0.0768547 0 0.0461502)
(0.0875518 0 0.0532924)
(0.0970367 0 0.0599903)
(0.105438 0 0.0663054)
(0.112872 0 0.0722813)
(0.11944 0 0.0779484)
(0.125235 0 0.0833261)
(0.130336 0 0.0884258)
(0.134818 0 0.0932525)
(0.138746 0 0.0978069)
(0.142176 0 0.102086)
(0.145163 0 0.106087)
(0.14775 0 0.109803)
(0.149981 0 0.113229)
(0.151892 0 0.11636)
(0.153515 0 0.119195)
(0 0 0)
(0.0183848 0 0.0100279)
(0.0352556 0 0.0192259)
(0.0502995 0 0.0275377)
(0.0636945 0 0.035133)
(0.0756115 0 0.0421455)
(0.0862038 0 0.0486756)
(0.0956091 0 0.0547983)
(0.103951 0 0.0605684)
(0.11134 0 0.066025)
(0.117877 0 0.0711952)
(0.123649 0 0.0760963)
(0.128736 0 0.0807386)
(0.13321 0 0.0851267)
(0.137135 0 0.0892615)
(0.140568 0 0.0931411)
(0.143559 0 0.0967622)
(0.146154 0 0.100121)
(0.148395 0 0.103213)
(0.150317 0 0.106036)
(0.151952 0 0.108587)
(0 0 0)
(0.0180188 0 0.00895041)
(0.034593 0 0.0171643)
(0.0494119 0 0.0245942)
(0.0626364 0 0.0313889)
(0.0744239 0 0.0376653)
(0.0849181 0 0.0435114)
(0.0942497 0 0.0489928)
(0.102537 0 0.0541577)
(0.109886 0 0.0590401)
(0.116394 0 0.0636638)
(0.122147 0 0.0680437)
(0.127223 0 0.072189)
(0.131692 0 0.0761036)
(0.135616 0 0.0797886)
(0.139052 0 0.0832425)
(0.142049 0 0.0864628)
(0.144653 0 0.0894464)
(0.146904 0 0.0921905)
(0.148837 0 0.0946927)
(0.150484 0 0.0969529)
(0 0 0)
(0.0176747 0 0.00775741)
(0.0339718 0 0.0148808)
(0.0485818 0 0.0213317)
(0.0616488 0 0.0272365)
(0.0733176 0 0.0326944)
(0.0837228 0 0.0377805)
(0.0929879 0 0.0425507)
(0.101226 0 0.0470457)
(0.10854 0 0.0512947)
(0.115024 0 0.0553175)
(0.120762 0 0.0591269)
(0.125829 0 0.0627304)
(0.130295 0 0.0661316)
(0.13422 0 0.0693312)
(0.13766 0 0.0723281)
(0.140665 0 0.0751204)
(0.143278 0 0.0777055)
(0.145538 0 0.0800814)
(0.147482 0 0.0822464)
(0.149141 0 0.0842009)
(0 0 0)
(0.0173615 0 0.00644644)
(0.0334082 0 0.0123702)
(0.047831 0 0.0177415)
(0.0607579 0 0.0226631)
(0.0723221 0 0.0272163)
(0.0826494 0 0.0314621)
(0.0918571 0 0.0354463)
(0.100054 0 0.039202)
(0.107339 0 0.0427528)
(0.113803 0 0.046115)
(0.119528 0 0.0492987)
(0.12459 0 0.0523099)
(0.129054 0 0.0551514)
(0.132982 0 0.0578237)
(0.136427 0 0.060326)
(0.139439 0 0.0626564)
(0.142061 0 0.0648132)
(0.144332 0 0.0667947)
(0.146286 0 0.0685997)
(0.147955 0 0.0702287)
(0 0 0)
(0.0170896 0 0.00501487)
(0.0329212 0 0.00962679)
(0.047185 0 0.0138142)
(0.0599941 0 0.0176556)
(0.071471 0 0.0212131)
(0.081734 0 0.0245335)
(0.0908948 0 0.0276516)
(0.099058 0 0.0305927)
(0.10632 0 0.0333748)
(0.112769 0 0.0360101)
(0.118486 0 0.0385062)
(0.123544 0 0.0408676)
(0.128009 0 0.0430961)
(0.13194 0 0.045192)
(0.135392 0 0.0471546)
(0.138411 0 0.0489823)
(0.141041 0 0.0506737)
(0.143321 0 0.0522275)
(0.145285 0 0.0536429)
(0.146963 0 0.0549201)
(0 0 0)
(0.0168718 0 0.00345998)
(0.0325338 0 0.0066447)
(0.046674 0 0.00954034)
(0.0593927 0 0.0122002)
(0.0708033 0 0.0146664)
(0.0810179 0 0.0169707)
(0.0901439 0 0.0191367)
(0.0982828 0 0.0211816)
(0.105529 0 0.0231174)
(0.111968 0 0.0249524)
(0.11768 0 0.0266914)
(0.122736 0 0.0283374)
(0.127203 0 0.0298915)
(0.131138 0 0.0313537)
(0.134594 0 0.0327231)
(0.13762 0 0.0339989)
(0.140258 0 0.0351797)
(0.142546 0 0.0362647)
(0.144517 0 0.0372533)
(0.146203 0 0.0381455)
(0 0 0)
(0.0167246 0 0.00177903)
(0.0322746 0 0.00341785)
(0.0463349 0 0.00490979)
(0.0589958 0 0.00628188)
(0.0703645 0 0.00755547)
(0.0805488 0 0.00874672)
(0.0896534 0 0.00986759)
(0.0977775 0 0.0109268)
(0.105014 0 0.0119303)
(0.111447 0 0.0128823)
(0.117157 0 0.0137851)
(0.122213 0 0.0146402)
(0.126681 0 0.015448)
(0.13062 0 0.0162084)
(0.134081 0 0.0169209)
(0.137111 0 0.017585)
(0.139754 0 0.0181999)
(0.142048 0 0.018765)
(0.144025 0 0.0192801)
(0.145716 0 0.0197452)
(0 0 0)
(0.0166647 0 0)
(0.0321766 0 0)
(0.04621 0 0)
(0.0588516 0 0)
(0.0702064 0 0)
(0.0803808 0 0)
(0.0894784 0 0)
(0.0975979 0 0)
(0.104831 0 0)
(0.111263 0 0)
(0.116972 0 0)
(0.122029 0 0)
(0.126498 0 0)
(0.130438 0 0)
(0.1339 0 0)
(0.136933 0 0)
(0.139578 0 0)
(0.141873 0 0)
(0.143853 0 0)
(0.145546 0 0)
)
;

boundaryField
{
    inlet
    {
        type            fixedValue;
        value           uniform (0 0 0);
    }
    outlet
    {
        type            fixedValue;
        value           nonuniform 0();
    }
    flap
    {
        type            fixedValue;
        value           nonuniform 0();
    }
    upperWall
    {
        type            slip;
    }
    lowerWall
    {
        type            slip;
    }
    frontAndBack
    {
        type            empty;
    }
    procBoundary0to1
    {
        type            processor;
    }
    procBoundary0to3
    {
        type            processor;
    }
}


// ************************************************************************* //
