/*--------------------------------*- C++ -*----------------------------------*\
| =========                 |                                                 |
| \\      /  F ield         | OpenFOAM: The Open Source CFD Toolbox           |
|  \\    /   O peration     | Version:  dev                                   |
|   \\  /    A nd           | Web:      www.OpenFOAM.org                      |
|    \\/     M anipulation  |                                                 |
\*---------------------------------------------------------------------------*/
FoamFile
{
    version     2.0;
    format      ascii;
    class       surfaceScalarField;
    location    "2.34";
    object      phi;
}
// * * * * * * * * * * * * * * * * * * * * * * * * * * * * * * * * * * * * * //

dimensions      [0 3 -1 0 0 0 0];

internalField   nonuniform List<scalar> 
5457
(
0.197594
0.00243304
0.195134
0.0024796
0.192561
0.0025811
0.18982
0.00273991
0.186904
0.00290643
0.183813
0.00307448
0.180545
0.00324764
0.177094
0.00342952
0.173452
0.00362197
0.169606
0.00382863
0.165539
0.00405346
0.161234
0.00429788
0.156667
0.00456501
0.151813
0.00485813
0.14664
0.00518055
0.141114
0.00553623
0.135197
0.00592966
0.128844
0.00636574
0.122007
0.0068496
0.114632
0.00738673
0.106659
0.00798252
0.0980251
0.00864215
0.0886602
0.00937118
0.0784894
0.0101756
0.0674309
0.011062
0.0554006
0.0120327
0.0423112
0.013091
0.0280871
0.0142249
0.0126717
0.0154158
0.0126718
0.199443
0.00301793
0.198322
0.0036198
0.196953
0.00395884
0.195359
0.0043325
0.193536
0.00472016
0.191483
0.00511104
0.189201
0.00550858
0.186693
0.0059165
0.183946
0.00634728
0.180949
0.00680818
0.17769
0.00729949
0.174153
0.00782722
0.170318
0.00839834
0.166159
0.00901973
0.16165
0.00969822
0.156754
0.0104424
0.151434
0.0112622
0.145645
0.0121686
0.139333
0.0131734
0.132441
0.0142912
0.124896
0.0155366
0.116622
0.016925
0.107523
0.0184763
0.0974867
0.0202168
0.086364
0.0221882
0.0739554
0.0244438
0.0599741
0.0270739
0.0439197
0.0302801
0.0243386
0.0349973
0.0370105
0.199305
0.00374109
0.198264
0.00468012
0.196972
0.0052599
0.195477
0.00582682
0.193779
0.0064079
0.191877
0.00699688
0.18977
0.00759453
0.187458
0.00820618
0.184934
0.00885015
0.182188
0.00953589
0.17921
0.0102647
0.175984
0.011045
0.172492
0.011888
0.168711
0.0128038
0.164615
0.0138022
0.160171
0.0148968
0.155342
0.0161039
0.150082
0.0174418
0.144338
0.0189302
0.138043
0.0205987
0.131111
0.0224781
0.123445
0.0245996
0.114916
0.0270117
0.105357
0.029781
0.094531
0.0330186
0.0820623
0.0369151
0.067351
0.041787
0.0494928
0.0481393
0.0270908
0.0573998
0.0641014
0.199212
0.00455723
0.198179
0.00573345
0.196903
0.00654509
0.195421
0.00730716
0.193744
0.00807555
0.191869
0.00885489
0.189799
0.00964387
0.187531
0.0104521
0.185059
0.0113002
0.182379
0.0121976
0.179479
0.0131504
0.176348
0.014167
0.172969
0.0152645
0.169321
0.0164555
0.16538
0.0177503
0.161118
0.0191696
0.156498
0.0207361
0.151476
0.0224773
0.145998
0.0244218
0.139997
0.0266115
0.133382
0.0291033
0.126034
0.0319573
0.117793
0.0352593
0.10843
0.0391497
0.0976303
0.0438224
0.0849355
0.0496128
0.0695681
0.0571564
0.0502484
0.0674601
0.0266756
0.0809731
0.0907772
0.199164
0.00542167
0.198122
0.00679548
0.196857
0.00781985
0.195387
0.00877606
0.193724
0.00972853
0.191873
0.0106898
0.189831
0.0116641
0.187594
0.0126669
0.185155
0.013717
0.182509
0.014824
0.179648
0.015997
0.176558
0.0172479
0.173224
0.0185948
0.16963
0.0200524
0.165751
0.0216367
0.161558
0.0233732
0.157016
0.0252908
0.152078
0.0274282
0.146685
0.0298281
0.140775
0.0325346
0.134249
0.0356401
0.126965
0.0392501
0.118747
0.0434856
0.109331
0.0485717
0.0983248
0.0548332
0.0851885
0.0627524
0.0692471
0.0731001
0.0490231
0.0876855
0.0251439
0.104853
0.115921
0.199141
0.00630989
0.198089
0.00786781
0.196833
0.00908549
0.195378
0.0102297
0.193735
0.0113617
0.191911
0.0124972
0.1899
0.0136537
0.187693
0.0148512
0.185286
0.0161016
0.182673
0.0174168
0.179846
0.0188089
0.176788
0.0202959
0.173489
0.0218898
0.169933
0.0236105
0.166089
0.0254865
0.16193
0.0275427
0.15742
0.0298135
0.152509
0.0323533
0.14713
0.0352208
0.141209
0.0384687
0.134643
0.0422169
0.127286
0.0466171
0.118918
0.0518626
0.109271
0.0582256
0.0979616
0.0661475
0.0843358
0.0763822
0.0677666
0.0896721
0.0469262
0.108528
0.0232171
0.128563
0.139139
0.199132
0.00720753
0.198077
0.00894358
0.196832
0.0103398
0.195397
0.0116639
0.193779
0.0129702
0.191981
0.0142785
0.189998
0.0156148
0.187825
0.0170007
0.185455
0.018448
0.182881
0.0199701
0.180094
0.0215799
0.177081
0.0232981
0.173829
0.0251368
0.170314
0.0271267
0.166506
0.0293008
0.162373
0.0316848
0.157876
0.0343239
0.152963
0.0372793
0.14757
0.040628
0.1416
0.0444518
0.13494
0.0488894
0.127437
0.054131
0.118864
0.0604444
0.108908
0.0681894
0.0971654
0.0778961
0.0830758
0.0904764
0.0659134
0.106838
0.0445241
0.129919
0.0212216
0.151866
0.160361
0.199133
0.00810475
0.198083
0.0100142
0.196855
0.0115776
0.195446
0.0130727
0.193859
0.014548
0.192092
0.0160282
0.190144
0.0175411
0.188012
0.0191086
0.185686
0.0207499
0.183158
0.0224768
0.180419
0.0243013
0.177458
0.0262471
0.174253
0.0283357
0.170778
0.0306014
0.16701
0.0330745
0.16291
0.0357943
0.158426
0.0388203
0.153514
0.0422048
0.148103
0.0460529
0.142081
0.0504873
0.135325
0.0556586
0.127658
0.06181
0.118863
0.0692495
0.108617
0.0784438
0.0964349
0.090085
0.0818599
0.105057
0.0642378
0.124464
0.0424801
0.151679
0.0195655
0.174782
0.179927
0.19914
0.00899496
0.198103
0.0110729
0.196897
0.0127938
0.195519
0.0144511
0.193968
0.0160896
0.192242
0.0177373
0.190338
0.0194232
0.188249
0.0211726
0.185969
0.023005
0.183493
0.0249301
0.18081
0.0269659
0.177903
0.0291407
0.174748
0.0314838
0.171324
0.034024
0.167609
0.0367935
0.163556
0.0398559
0.159111
0.0432766
0.154219
0.0471109
0.148799
0.0514868
0.142744
0.0565569
0.135918
0.0624975
0.128138
0.0696032
0.119154
0.0782446
0.108632
0.0889753
0.096148
0.102577
0.0810932
0.120118
0.0630922
0.14247
0.0412249
0.17355
0.0185822
0.197427
0.19851
0.199151
0.0098746
0.198131
0.0121152
0.19695
0.0139849
0.195605
0.0157962
0.194094
0.0175917
0.192413
0.0194014
0.190557
0.0212568
0.188517
0.0231878
0.186291
0.0252049
0.183878
0.02732
0.181259
0.029565
0.178417
0.0319678
0.175335
0.0345565
0.171988
0.0373688
0.168335
0.0404488
0.16434
0.0438593
0.159955
0.0476725
0.155106
0.0519724
0.14971
0.0568968
0.143663
0.0626185
0.136821
0.0693532
0.12898
0.0774583
0.119879
0.0873582
0.109183
0.0996821
0.0964857
0.115282
0.081066
0.135545
0.0628158
0.160726
0.0410163
0.195354
0.0186172
0.219828
0.217127
0.199165
0.0107411
0.198165
0.0131377
0.197013
0.015148
0.195705
0.0171051
0.194237
0.0190508
0.192605
0.0210162
0.190803
0.0230366
0.188825
0.0251399
0.18667
0.0273334
0.18433
0.0296347
0.181787
0.0320864
0.179024
0.0347148
0.176024
0.0375463
0.172758
0.0406305
0.169183
0.0440251
0.16527
0.0477781
0.160972
0.0519802
0.156205
0.0567524
0.150884
0.0622318
0.144898
0.0686184
0.138099
0.0761664
0.130296
0.0852764
0.121202
0.0964657
0.110493
0.110402
0.0976911
0.128095
0.0822454
0.151
0.0640184
0.17896
0.042418
0.216959
0.0202201
0.242029
0.237348
0.199184
0.0115892
0.19821
0.0141347
0.197092
0.0162775
0.195825
0.0183728
0.194406
0.0204616
0.192829
0.0225759
0.191089
0.0247541
0.189183
0.0270201
0.187106
0.0293833
0.184843
0.0318713
0.182382
0.0345248
0.179709
0.0373698
0.176797
0.0404456
0.173627
0.0437941
0.17017
0.047482
0.166375
0.0515776
0.162192
0.0561716
0.15755
0.0614059
0.152363
0.0674321
0.146515
0.0744802
0.139847
0.0828493
0.1322
0.092939
0.123316
0.105364
0.11281
0.120922
0.100215
0.140702
0.0852188
0.166006
0.0673549
0.196832
0.0464226
0.237897
0.0243846
0.26407
0.261733
0.199208
0.0124141
0.198266
0.0151005
0.197188
0.0173678
0.195969
0.0195933
0.194604
0.0218183
0.193085
0.0240775
0.19141
0.0264068
0.189578
0.0288261
0.18758
0.0313529
0.1854
0.0340236
0.183032
0.0368684
0.180467
0.0399149
0.177676
0.043222
0.17463
0.0468313
0.171306
0.0508036
0.167653
0.0552339
0.163627
0.0602043
0.15917
0.0658723
0.15419
0.0724245
0.148573
0.0801108
0.142181
0.0892564
0.134854
0.100282
0.126394
0.11384
0.116432
0.130898
0.104647
0.152501
0.0906899
0.179975
0.0738476
0.213684
0.0546197
0.257132
0.032939
0.285753
0.294673
0.199234
0.013214
0.198327
0.0160319
0.197292
0.018415
0.196124
0.0207629
0.194816
0.0231185
0.193359
0.0255181
0.191756
0.0279874
0.190006
0.0305492
0.188097
0.0332332
0.186022
0.0360705
0.18377
0.039094
0.181322
0.0423409
0.17866
0.0458667
0.175755
0.0497258
0.172587
0.053967
0.169125
0.0586958
0.165309
0.0640253
0.161081
0.0701082
0.156372
0.0771448
0.151098
0.0853964
0.145145
0.0952238
0.138378
0.107066
0.130609
0.121626
0.121659
0.139864
0.111385
0.16279
0.09939
0.191983
0.0851733
0.227912
0.0699927
0.27232
0.0502403
0.305509
0.344913
0.199256
0.0139935
0.19838
0.0169326
0.197387
0.0194218
0.196268
0.0218835
0.195016
0.0243628
0.193628
0.0268904
0.192106
0.0294869
0.190442
0.0321862
0.188627
0.0350186
0.186656
0.0380115
0.184515
0.0412072
0.182184
0.0446488
0.179656
0.048375
0.176916
0.0524524
0.17393
0.0569455
0.170673
0.0619505
0.167084
0.0676166
0.163117
0.0740814
0.158732
0.0815385
0.153879
0.0902601
0.148491
0.100626
0.142452
0.113122
0.135675
0.128421
0.128242
0.147314
0.120144
0.170904
0.11144
0.200701
0.102606
0.236758
0.0961416
0.278791
0.0880534
0.3136
0.432966
0.000607693
-0.000605673
0.00240526
-0.00178524
0.00478463
-0.00233814
0.00702884
-0.00217537
0.00866797
-0.00158004
0.00979128
-0.00109852
0.0106534
-0.000859378
0.0114299
-0.00077682
0.0122042
-0.000768589
0.0129887
-0.000773167
0.0137752
-0.000772808
0.0145423
-0.000751418
0.0152412
-0.000682362
0.0158042
-0.000547796
0.0161971
-0.000380804
0.0164643
-0.000259978
0.0166487
-0.000183098
0.016717
-7.36755e-05
0.0165971
0.000107651
0.0162906
0.00028758
0.0159237
0.000341838
0.0156878
0.000205332
0.0157322
-7.96552e-05
0.016089
-0.000395815
0.0167751
-0.000728128
0.0179242
-0.00119327
0.019681
-0.00180245
0.0220973
-0.00246266
0.0251745
-0.003124
-0.00364133
0.000510116
-0.00111353
0.00225176
-0.00351343
0.00484201
-0.00488558
0.00732111
-0.00458601
0.00922103
-0.00342307
0.0105932
-0.00244723
0.0116612
-0.00192433
0.0125921
-0.00170719
0.0134605
-0.00163045
0.0142854
-0.00158599
0.0150716
-0.0015446
0.0158226
-0.00148644
0.0165053
-0.00134842
0.0170603
-0.00108757
0.0174561
-0.000764638
0.0177499
-0.000546711
0.0180026
-0.000434703
0.0181519
-0.000228454
0.0180495
0.000197773
0.0176707
0.000647479
0.0171633
0.000824071
0.0167332
0.000604898
0.0164971
0.000121313
0.0163885
-0.000326197
0.016283
-0.000664479
0.0161865
-0.00114081
0.0163024
-0.00196376
0.0169667
-0.00317333
0.0184803
-0.00468423
-0.00633065
0.000432715
-0.00154367
0.00203235
-0.00509829
0.00432134
-0.0071314
0.00638659
-0.00658724
0.00793531
-0.00492114
0.00903067
-0.00352134
0.00983225
-0.00272137
0.0104709
-0.00234267
0.0110055
-0.00215647
0.0114358
-0.00200287
0.0117701
-0.00186359
0.0120316
-0.00173146
0.0122022
-0.00150209
0.0122087
-0.0010789
0.011975
-0.000519073
0.0115513
-0.000116058
0.0110229
9.46604e-05
0.0103852
0.000403755
0.00944422
0.00112657
0.00804881
0.00202412
0.00620208
0.00264596
0.00401736
0.00275939
0.00180063
0.00230323
0.000126948
0.00130891
-0.000672343
9.33125e-05
-0.000669904
-0.00118691
0.000168249
-0.00284706
0.00185322
-0.0049043
0.0040502
-0.00692764
-0.0087635
0.000561405
-0.00210215
0.00209064
-0.00661181
0.00392801
-0.0089274
0.00536023
-0.00796358
0.00632625
-0.00584507
0.00693753
-0.00411355
0.00727595
-0.00305257
0.00742528
-0.00248524
0.00742899
-0.00214895
0.00725207
-0.0018108
0.00688095
-0.00147599
0.0063515
-0.00118486
0.00574617
-0.000879622
0.0047921
-0.000109563
0.00313312
0.00115165
0.000693568
0.00233037
-0.00219096
0.00298023
-0.00490144
0.00310887
-0.00708245
0.00329562
-0.00877526
0.00369855
-0.0101555
0.00400188
-0.0112343
0.00380852
-0.0119016
0.0029363
-0.0120769
0.00144622
-0.0116686
-0.000355911
-0.0106555
-0.00224312
-0.00937244
-0.00417473
-0.00823312
-0.00608917
-0.00736136
-0.00784543
-0.00932988
0.000798378
-0.00289723
0.0021997
-0.0079971
0.0034428
-0.010133
0.00409394
-0.00856876
0.00431085
-0.00602853
0.00424727
-0.00403264
0.00390116
-0.00269634
0.00328801
-0.00186159
0.00245805
-0.00130494
0.00138569
-0.000721488
-0.00030957
0.000237024
-0.00274715
0.00127064
-0.00555215
0.00194285
-0.00819927
0.00255289
-0.0104286
0.00339271
-0.0124397
0.00434835
-0.0144173
0.00495901
-0.01638
0.00506648
-0.0180721
0.00497613
-0.0192838
0.00489237
-0.019961
0.00465539
-0.0201584
0.00397694
-0.0199827
0.00272719
-0.01959
0.00101625
-0.0190729
-0.000913123
-0.0184985
-0.00285995
-0.0179989
-0.0047184
-0.0177012
-0.00643181
-0.0176615
-0.00793063
-0.00909027
0.00101546
-0.00390906
0.00209971
-0.00906582
0.00255181
-0.0105532
0.00223396
-0.00821507
0.00148179
-0.00525026
0.000421188
-0.00295587
-0.00103913
-0.00122343
-0.00313739
0.000250325
-0.00580412
0.00137826
-0.00860518
0.00209812
-0.0110943
0.00274502
-0.0132506
0.00344553
-0.0153898
0.00409981
-0.0175247
0.00470315
-0.0195138
0.00539362
-0.0212508
0.00609226
-0.0227813
0.00649081
-0.0241692
0.00644962
-0.0253319
0.00612781
-0.0261224
0.00566575
-0.0264827
0.00499274
-0.0264904
0.00395648
-0.026306
0.0025102
-0.0260847
0.000758573
-0.0259038
-0.00113331
-0.0257996
-0.00300573
-0.0258228
-0.00473846
-0.0260303
-0.00626861
-0.0264772
-0.00752869
-0.00842132
0.00101739
-0.00492258
0.00151553
-0.0095498
0.000860891
-0.00987283
-0.000762529
-0.00656474
-0.00291619
-0.00307602
-0.00565372
-0.000202897
-0.00866405
0.00180122
-0.0114077
0.00300977
-0.0138286
0.00381719
-0.0161461
0.00443525
-0.0183673
0.00498573
-0.0204475
0.0055448
-0.0224055
0.00607579
-0.0242669
0.0065799
-0.025965
0.00710349
-0.0274188
0.00755316
-0.0286451
0.00771868
-0.0297026
0.00750274
-0.0305752
0.00699002
-0.031195
0.00626912
-0.0315433
0.00531892
-0.0316901
0.00407616
-0.0317523
0.00254078
-0.03183
0.000800863
-0.0319836
-0.00101808
-0.0322438
-0.00278629
-0.032637
-0.00438771
-0.0332006
-0.00574855
-0.0339796
-0.00679391
-0.00747385
0.000643422
-0.00556207
0.000114469
-0.00900877
-0.00213968
-0.00759918
-0.00539523
-0.00328935
-0.00900261
0.000548103
-0.0122724
0.0030818
-0.015008
0.00455213
-0.0174947
0.00551338
-0.0198131
0.00615458
-0.0219835
0.00662568
-0.0240109
0.00703307
-0.0258844
0.00743753
-0.0276211
0.00783049
-0.0292309
0.0082051
-0.0306683
0.00855257
-0.0318905
0.00878259
-0.0329219
0.00875196
-0.0338161
0.00839304
-0.0345836
0.00774775
-0.035201
0.00687081
-0.0356696
0.00576639
-0.0360392
0.00441958
-0.0363812
0.00285221
-0.0367576
0.00114289
-0.0372168
-0.000596185
-0.037785
-0.00225794
-0.0384769
-0.00373733
-0.0393196
-0.0049486
-0.0403466
-0.0058104
-0.00632442
-0.000264112
-0.00529421
-0.00241137
-0.00685194
-0.00647724
-0.00351917
-0.0108669
0.001115
-0.0145294
0.00422482
-0.0174868
0.00605351
-0.0201262
0.00720715
-0.0224974
0.00790196
-0.0246421
0.00831847
-0.0265934
0.00859711
-0.0283774
0.00883701
-0.0300069
0.0090863
-0.0314986
0.00933996
-0.0328583
0.00958007
-0.034066
0.00977203
-0.0351108
0.00983458
-0.0360229
0.00966624
-0.0368493
0.00921601
-0.0376103
0.00849962
-0.0383035
0.00754921
-0.0389379
0.0063806
-0.0395468
0.00500332
-0.0401721
0.00344804
-0.0408478
0.00178539
-0.0415998
0.000119444
-0.0424458
-0.00145065
-0.0433974
-0.00282641
-0.0444722
-0.0039157
-0.0456977
-0.00462766
-0.00501198
-0.00179837
-0.00349251
-0.00601185
-0.00263133
-0.0112709
0.00174997
-0.0155615
0.00541681
-0.0189527
0.00762837
-0.0218616
0.00897611
-0.0243733
0.0097344
-0.0265523
0.0100984
-0.0284563
0.0102415
-0.0301398
0.0103004
-0.0316461
0.010363
-0.0330022
0.0104615
-0.0342309
0.0105861
-0.0353454
0.0107097
-0.0363465
0.0107847
-0.0372448
0.0107402
-0.0380758
0.0104996
-0.0388815
0.0100188
-0.0396861
0.00929568
-0.0404966
0.00834578
-0.041324
0.00718874
-0.0421881
0.00584333
-0.0431079
0.0043394
-0.0440926
0.00273795
-0.0451372
0.00112887
-0.0462474
-0.000378161
-0.0474335
-0.00168001
-0.0487105
-0.00267973
-0.0501049
-0.00327517
-0.00355779
-0.00403582
0.000546039
-0.0101414
0.00347929
-0.0153268
0.00694277
-0.0193472
0.00944628
-0.0226757
0.0109679
-0.0254624
0.0117758
-0.0277861
0.0120733
-0.0297152
0.0120446
-0.0313239
0.0118688
-0.0326883
0.0116842
-0.033875
0.011569
-0.0349303
0.0115353
-0.0358827
0.0115557
-0.0367514
0.0115931
-0.0375526
0.0115972
-0.038312
0.011507
-0.0390712
0.0112614
-0.0398726
0.0108176
-0.0407436
0.0101588
-0.0416952
0.00928419
-0.0427328
0.00820805
-0.0438634
0.00695087
-0.0450898
0.00553851
-0.0464022
0.00401929
-0.0477732
0.00246568
-0.049168
0.000979972
-0.0505812
-0.000305482
-0.0520419
-0.00125908
-0.0535888
-0.00176943
-0.00196861
-0.00710661
0.00765468
-0.013734
0.0101103
-0.0186341
0.0118486
-0.0225394
0.0133594
-0.0257533
0.0141917
-0.0283617
0.0143966
-0.030423
0.0141492
-0.032019
0.0136573
-0.0332528
0.0131209
-0.0342336
0.0126838
-0.035054
0.0124081
-0.035778
0.0122774
-0.0364368
0.0122311
-0.0370467
0.0122174
-0.0376326
0.0121942
-0.0382331
0.0121147
-0.0388994
0.0119305
-0.0396813
0.0115973
-0.0406129
0.0110831
-0.0417103
0.0103692
-0.0429719
0.00945223
-0.0443883
0.0083452
-0.045946
0.00706988
-0.0476162
0.0056596
-0.0493482
0.00416462
-0.0510779
0.00267403
-0.0527566
0.00133552
-0.0543987
0.000343771
-0.056092
-0.000116486
-0.000234286
-0.0105321
0.0181881
-0.0168369
0.0164179
-0.0213897
0.0164064
-0.0251638
0.0171407
-0.0282363
0.0172737
-0.0305895
0.0167615
-0.0322824
0.0158563
-0.0334361
0.0148272
-0.0341992
0.0139018
-0.0347224
0.0132253
-0.0351287
0.0128324
-0.0354893
0.0126554
-0.0358269
0.0125847
-0.0361475
0.0125519
-0.0364749
0.0125324
-0.0368591
0.012506
-0.0373657
0.0124399
-0.0380594
0.012289
-0.0389891
0.0120061
-0.0401819
0.0115502
-0.0416393
0.010893
-0.0433403
0.0100251
-0.0452487
0.00895302
-0.04731
0.00769204
-0.0494455
0.00626804
-0.0515572
0.00475121
-0.0535575
0.00329903
-0.0554207
0.00216873
-0.0572406
0.00166384
0.00159703
-0.0128094
0.0309983
-0.0189213
0.0225323
-0.0233057
0.0207955
-0.027149
0.020991
-0.0300928
0.0202267
-0.0321016
0.0187818
-0.0332969
0.0170653
-0.0338726
0.0154187
-0.0340475
0.0140939
-0.0340309
0.0132264
-0.0339837
0.0128024
-0.0339716
0.01266
-0.0339763
0.0126047
-0.0339732
0.012562
-0.0339779
0.0125475
-0.0340495
0.0125844
-0.0342696
0.0126626
-0.0347215
0.0127392
-0.0354763
0.0127544
-0.0365837
0.0126464
-0.0380672
0.0123607
-0.0399175
0.0118551
-0.0420886
0.0110998
-0.0444975
0.0100731
-0.0470251
0.00876465
-0.0495219
0.00721434
-0.0518399
0.00558133
-0.0538951
0.00418654
-0.0557368
0.00346683
0.00344737
-0.0073821
0.0383811
-0.0152204
0.0303731
-0.0229342
0.028514
-0.0277693
0.0258328
-0.0307462
0.0232125
-0.0323498
0.0203965
-0.032937
0.0176657
-0.0328352
0.0153321
-0.0323539
0.0136294
-0.0317758
0.0126653
-0.0313094
0.0123523
-0.0309989
0.0123651
-0.0307273
0.0123475
-0.0304065
0.0122534
-0.0300416
0.0121923
-0.0297051
0.0122543
-0.0294917
0.0124517
-0.0294928
0.0127385
-0.0297894
0.0130449
-0.0304507
0.0132968
-0.0315354
0.0134302
-0.0330859
0.0133861
-0.0351073
0.0130977
-0.0375452
0.012484
-0.0402683
0.0114577
-0.0430677
0.00998102
-0.0457043
0.00818307
-0.0479983
0.00644406
-0.0498421
0.00527272
0.0053748
0.206929
0.0147616
0.206071
0.0178177
0.2051
0.0204085
0.204008
0.0229784
0.202788
0.0255752
0.201441
0.0282215
0.199961
0.0309432
0.198341
0.0337787
0.196579
0.0367496
0.194664
0.0398944
0.192591
0.0432504
0.190351
0.0468621
0.187926
0.0507768
0.185305
0.0550568
0.182458
0.0597817
0.179359
0.0650441
0.175986
0.0709897
0.172301
0.0777702
0.16828
0.0855661
0.163906
0.0946436
0.159176
0.105369
0.154064
0.118251
0.148695
0.133809
0.14332
0.152708
0.138292
0.17595
0.134827
0.204183
0.135359
0.236239
0.145439
0.268719
0.170358
0.288683
0.28318
0.320143
0.211973
0.0155097
0.211145
0.018675
0.210211
0.0213606
0.20916
0.0240343
0.207987
0.0267413
0.206695
0.0294973
0.205276
0.032339
0.203728
0.0352979
0.202054
0.0383912
0.200242
0.0416731
0.198283
0.0451773
0.196171
0.0489448
0.193891
0.053031
0.191437
0.057491
0.188794
0.0624106
0.185938
0.067891
0.18287
0.0740539
0.179585
0.0810561
0.176076
0.0890794
0.172372
0.0983542
0.168509
0.109244
0.164646
0.122132
0.161097
0.137378
0.158273
0.155552
0.157205
0.177039
0.160194
0.201212
0.170914
0.225533
0.195547
0.244093
0.2355
0.248732
0.247599
0.271079
0.217145
0.0162316
0.216354
0.0194962
0.215465
0.0222697
0.214464
0.025043
0.213351
0.0278498
0.212129
0.0307033
0.210793
0.0336514
0.209345
0.0367173
0.207778
0.0399245
0.206086
0.0433311
0.20426
0.0469684
0.202301
0.0508717
0.200208
0.0550955
0.197976
0.0597001
0.19559
0.0647784
0.19305
0.070419
0.190372
0.0767247
0.187581
0.0838435
0.184719
0.0919427
0.181839
0.101239
0.179061
0.112031
0.176718
0.124492
0.175225
0.138892
0.175272
0.155527
0.178385
0.173947
0.186875
0.19274
0.203167
0.209254
0.228032
0.219236
0.256322
0.220444
0.214911
0.289008
0.222445
0.0169235
0.221697
0.020276
0.220859
0.0231288
0.219923
0.0259887
0.21889
0.0288816
0.217754
0.031826
0.216514
0.0348678
0.215176
0.0380265
0.213729
0.0413376
0.212174
0.0448505
0.210511
0.0485944
0.208742
0.0526062
0.206871
0.0569355
0.204895
0.0616492
0.20282
0.0668318
0.200663
0.0725595
0.198459
0.0789185
0.196248
0.086048
0.194119
0.0940696
0.192168
0.103191
0.190646
0.11356
0.189947
0.125206
0.190546
0.138315
0.193382
0.152713
0.199905
0.167446
0.211593
0.181072
0.22916
0.191701
0.251387
0.197017
0.276118
0.195716
0.186689
0.30434
0.227882
0.0175757
0.227186
0.0210052
0.226408
0.0239286
0.225546
0.0268619
0.2246
0.0298285
0.223561
0.0328562
0.222432
0.0359762
0.22122
0.03921
0.219916
0.0426069
0.218525
0.0462049
0.217051
0.0500298
0.215504
0.0541175
0.213887
0.0585179
0.212209
0.0632974
0.210495
0.0685211
0.208782
0.0742526
0.207107
0.0805786
0.205552
0.0875925
0.204227
0.0953889
0.203293
0.104122
0.20309
0.113765
0.203991
0.124317
0.206541
0.135782
0.211692
0.147584
0.220411
0.158748
0.233281
0.16822
0.250144
0.174853
0.269728
0.177441
0.290399
0.175048
0.165867
0.311222
0.233458
0.0181807
0.23282
0.0216774
0.232108
0.024663
0.23133
0.0276532
0.230483
0.0306783
0.22956
0.0337723
0.228564
0.0369561
0.227492
0.040256
0.226348
0.0437177
0.225144
0.0473715
0.223888
0.0512466
0.222592
0.0553755
0.221264
0.0598096
0.219927
0.0646018
0.218613
0.0698063
0.217378
0.0754647
0.21628
0.0816575
0.215435
0.0884245
0.214965
0.0958497
0.215086
0.103995
0.216137
0.112713
0.218476
0.121985
0.222688
0.131584
0.229459
0.14083
0.239195
0.14903
0.251924
0.155508
0.267233
0.159556
0.28412
0.160563
0.301234
0.157939
0.149378
0.317724
0.239171
0.0187341
0.238598
0.0222862
0.237968
0.0253175
0.23729
0.0283448
0.236555
0.0314171
0.235758
0.0345653
0.234902
0.0377987
0.233991
0.0411452
0.233033
0.0446464
0.23204
0.0483291
0.231025
0.0522221
0.230002
0.0563588
0.228992
0.0607819
0.228026
0.0655326
0.227152
0.0706494
0.226428
0.0761619
0.225946
0.0821179
0.225826
0.0885275
0.226208
0.0954549
0.227342
0.102853
0.229519
0.110533
0.233096
0.118411
0.238548
0.126141
0.246188
0.133203
0.256069
0.139163
0.268037
0.143554
0.281676
0.145928
0.296295
0.145953
0.310955
0.143283
0.135544
0.324791
0.245033
0.019225
0.244534
0.0228216
0.243998
0.0258795
0.243427
0.0289313
0.242809
0.032041
0.242148
0.0352231
0.241451
0.0384835
0.240722
0.0418554
0.239971
0.0453723
0.239208
0.0490605
0.238453
0.0529398
0.237725
0.0570486
0.237055
0.0614132
0.236483
0.0660673
0.236073
0.0710262
0.235892
0.0763141
0.236031
0.0819542
0.236622
0.087917
0.237823
0.0942388
0.239873
0.100791
0.243029
0.107372
0.247582
0.113859
0.253777
0.119953
0.261681
0.125307
0.271252
0.129603
0.282308
0.132508
0.294484
0.13376
0.307283
0.133161
0.320043
0.130527
0.123661
0.331928
0.251038
0.0196498
0.250627
0.0232706
0.250196
0.0263384
0.249738
0.0294066
0.249249
0.0325374
0.248744
0.0357268
0.248224
0.038994
0.247687
0.0423746
0.247153
0.045884
0.246641
0.0495442
0.24617
0.0533778
0.245757
0.057425
0.245448
0.0616859
0.245294
0.0661844
0.245362
0.0709238
0.24572
0.0759252
0.246465
0.0811828
0.247734
0.0866259
0.249698
0.092257
0.252559
0.0979161
0.256493
0.10343
0.261667
0.108683
0.268174
0.113448
0.276016
0.11747
0.285117
0.120508
0.295275
0.122357
0.306195
0.122846
0.317515
0.121847
0.328739
0.119307
0.113252
0.339151
0.257197
0.0199994
0.256884
0.0236231
0.256563
0.0266886
0.256228
0.0297608
0.255888
0.0328865
0.255551
0.0360645
0.255212
0.0393254
0.254885
0.0426866
0.254589
0.0461596
0.254341
0.0497663
0.254162
0.0535265
0.254089
0.0574654
0.254161
0.0615789
0.254435
0.0658761
0.254975
0.0703506
0.255853
0.0750156
0.257184
0.0798247
0.259092
0.0846933
0.261736
0.0895941
0.265243
0.0943937
0.269699
0.0989632
0.275194
0.103182
0.281773
0.106868
0.289405
0.109839
0.297973
0.111942
0.307296
0.113038
0.317163
0.112983
0.327278
0.111735
0.337255
0.109333
0.103982
0.346526
0.263511
0.0202653
0.263305
0.0238696
0.263104
0.0269207
0.262905
0.0299806
0.262724
0.0330799
0.262565
0.036227
0.262426
0.0394591
0.262321
0.0427797
0.26227
0.046192
0.262296
0.0497175
0.262423
0.0533713
0.262696
0.0571621
0.263156
0.0610875
0.263852
0.0651486
0.264846
0.0693258
0.266238
0.073594
0.268135
0.0779003
0.270621
0.0821832
0.273802
0.0863922
0.277749
0.0904291
0.282518
0.0941812
0.288162
0.0975287
0.294688
0.100337
0.302026
0.102499
0.310053
0.103914
0.318654
0.104437
0.327646
0.103992
0.336757
0.102625
0.345713
0.100378
0.095627
0.354067
0.269983
0.02044
0.269893
0.0240022
0.269823
0.027024
0.269778
0.0300488
0.269763
0.0331093
0.269786
0.03621
0.269858
0.0393847
0.269986
0.0426431
0.270189
0.0459733
0.270498
0.0493885
0.270944
0.0529012
0.27156
0.0565186
0.272393
0.060226
0.273507
0.0640054
0.27497
0.0678341
0.276862
0.0716749
0.279252
0.0754855
0.282194
0.0792178
0.285757
0.082808
0.289998
0.0861709
0.294952
0.0892118
0.300634
0.0918347
0.307019
0.0939427
0.314034
0.0954792
0.321584
0.0963602
0.329564
0.0964548
0.337794
0.0957616
0.346063
0.0943546
0.354184
0.0922562
0.0880196
0.36179
0.276625
0.0205081
0.276655
0.0240176
0.276721
0.0269932
0.276836
0.0299586
0.277002
0.0329603
0.277219
0.0360018
0.277504
0.0391005
0.277873
0.0422685
0.278345
0.0454895
0.278943
0.0487739
0.279699
0.0521244
0.280662
0.055532
0.281883
0.0589796
0.28342
0.062443
0.285324
0.0659038
0.287641
0.0693332
0.290418
0.0726859
0.293706
0.0759091
0.297553
0.0789418
0.301993
0.0817132
0.307042
0.0841466
0.312691
0.0861723
0.318889
0.0877341
0.325582
0.0887775
0.33271
0.0892265
0.340139
0.0890214
0.347711
0.0881862
0.355284
0.0867793
0.362715
0.0848226
0.0810304
0.369701
0.283427
0.0204683
0.28359
0.0239011
0.283807
0.0268138
0.284086
0.0297076
0.284436
0.0326298
0.284857
0.0355924
0.285369
0.038593
0.285986
0.0416489
0.286723
0.0447447
0.287614
0.04787
0.288699
0.0510228
0.290023
0.0541883
0.291627
0.0573539
0.293543
0.0605045
0.295809
0.0636159
0.298466
0.0666536
0.301558
0.0695739
0.30512
0.0723283
0.30918
0.0748644
0.313753
0.0771249
0.318837
0.0790476
0.324402
0.080592
0.330403
0.0817215
0.336801
0.0823694
0.343533
0.0824873
0.350473
0.0820762
0.357492
0.0811626
0.364483
0.0797837
0.371341
0.0779621
0.0745581
0.377809
0.290397
0.0203135
0.290702
0.023645
0.29108
0.0264755
0.29153
0.0292883
0.292066
0.0321172
0.292699
0.034974
0.293441
0.0378593
0.294311
0.0407797
0.295333
0.043719
0.296536
0.0466588
0.297955
0.0495918
0.299616
0.0525116
0.301549
0.055404
0.303785
0.0582494
0.306361
0.0610215
0.30931
0.0636868
0.31266
0.066206
0.316435
0.0685366
0.32065
0.0706352
0.325304
0.0724568
0.330375
0.0739628
0.335828
0.0751248
0.341644
0.0758935
0.347781
0.0762224
0.354152
0.0761087
0.360657
0.0755648
0.367205
0.0746096
0.373709
0.0732753
0.380085
0.0715821
0.0685208
0.386118
0.297545
0.0200325
0.297992
0.0232488
0.298536
0.0259735
0.299169
0.0286897
0.299901
0.03141
0.300755
0.0341383
0.301738
0.0368882
0.302874
0.0396492
0.304187
0.0424063
0.305692
0.0451502
0.30741
0.0478659
0.309369
0.0505419
0.311596
0.0531637
0.31412
0.0557116
0.316968
0.0581597
0.320162
0.0604774
0.323724
0.0626304
0.327665
0.0645826
0.331991
0.0662979
0.336682
0.0677544
0.341706
0.0689261
0.347052
0.0697653
0.3527
0.0702349
0.358584
0.0703298
0.364628
0.0700574
0.37076
0.0694268
0.376907
0.0684577
0.382999
0.0671789
0.38897
0.0656076
0.0628516
0.394635
0.304862
0.0196262
0.305463
0.0227011
0.306181
0.0253001
0.307011
0.0278957
0.307961
0.0304893
0.309042
0.0330782
0.310274
0.0356724
0.311671
0.0382619
0.313249
0.0408331
0.315026
0.0433731
0.317023
0.0458667
0.319258
0.0483002
0.321756
0.0506581
0.324537
0.052921
0.327622
0.0550652
0.331025
0.0570638
0.334758
0.0588877
0.338824
0.0605072
0.34322
0.0618936
0.347922
0.0630441
0.352902
0.0639357
0.358149
0.0645077
0.363626
0.0647494
0.369272
0.0646763
0.375031
0.0642926
0.380843
0.0636101
0.386648
0.062648
0.392392
0.061432
0.398021
0.0599768
0.0574951
0.403374
0.312367
0.0190796
0.313136
0.0219883
0.314036
0.0244474
0.315069
0.0269018
0.316237
0.0293528
0.317548
0.0317933
0.319017
0.0342227
0.32066
0.0366325
0.322492
0.03901
0.324529
0.0413415
0.326786
0.0436121
0.329278
0.0458071
0.332022
0.0479108
0.335034
0.0499048
0.338326
0.0517681
0.341906
0.0534776
0.345779
0.0550097
0.34994
0.0563412
0.354378
0.057451
0.359078
0.0583386
0.364016
0.0589902
0.369161
0.0593559
0.374474
0.0594298
0.379911
0.0592344
0.385423
0.0587765
0.390961
0.0580688
0.396478
0.0571298
0.401926
0.055982
0.407265
0.054638
0.0524049
0.412353
0.320071
0.0183731
0.321013
0.0211041
0.322099
0.0234117
0.32333
0.025713
0.32471
0.0280077
0.326246
0.0302861
0.32795
0.032542
0.329835
0.034766
0.331912
0.0369458
0.334196
0.039068
0.336697
0.0411181
0.339426
0.0430817
0.342396
0.0449435
0.345614
0.0466867
0.349089
0.0482931
0.352822
0.0497436
0.356811
0.0510196
0.361048
0.0521034
0.365519
0.0529801
0.370207
0.0536487
0.375092
0.0541018
0.380138
0.0543055
0.385308
0.0542568
0.390564
0.0539765
0.395865
0.053474
0.401171
0.0527625
0.406443
0.0518591
0.411642
0.0507836
0.416735
0.049547
0.0475411
0.4216
0.327958
0.0175049
0.329078
0.020045
0.330352
0.0221898
0.331784
0.0243267
0.333376
0.0264537
0.335136
0.0285592
0.337071
0.0306341
0.339191
0.032668
0.341507
0.0346488
0.344026
0.0365635
0.346757
0.0383985
0.349707
0.0401402
0.352884
0.0417742
0.356291
0.0432858
0.359929
0.0446596
0.363796
0.0458802
0.367887
0.0469332
0.372188
0.0478056
0.376685
0.0484872
0.381361
0.0489763
0.386193
0.0492702
0.391149
0.0493491
0.396194