/*--------------------------------*- C++ -*----------------------------------*\
| =========                 |                                                 |
| \\      /  F ield         | OpenFOAM: The Open Source CFD Toolbox           |
|  \\    /   O peration     | Version:  dev                                   |
|   \\  /    A nd           | Web:      www.OpenFOAM.org                      |
|    \\/     M anipulation  |                                                 |
\*---------------------------------------------------------------------------*/
FoamFile
{
    version     2.0;
    format      ascii;
    class       volVectorField;
    location    "2.98";
    object      U;
}
// * * * * * * * * * * * * * * * * * * * * * * * * * * * * * * * * * * * * * //

dimensions      [0 1 -1 0 0 0 0];

internalField   nonuniform List<vector> 
2790
(
(9.94329 -1.74593e-20 0.0196018)
(9.86609 9.00945e-21 0.0281922)
(9.75673 2.34234e-21 0.0342067)
(9.6268 7.28824e-21 0.0402507)
(9.48072 5.06575e-21 0.0464273)
(9.31857 -5.23663e-21 0.0526966)
(9.13994 0 0.0591616)
(8.94472 -5.6954e-21 0.0659795)
(8.73269 -2.96871e-21 0.0732944)
(8.5033 0 0.0812258)
(8.25579 1.61666e-21 0.0898889)
(7.98928 2.72063e-20 0.0994008)
(7.70276 -2.8093e-20 0.10988)
(7.39515 0 0.121448)
(7.06531 0 0.134238)
(6.71209 0 0.148378)
(6.3344 0 0.163991)
(5.93122 7.17781e-20 0.181179)
(5.50174 -5.55085e-20 0.200008)
(5.04555 0 0.220478)
(4.56275 4.09913e-20 0.242502)
(4.05431 0 0.265876)
(3.52196 0 0.290164)
(2.96875 0 0.314621)
(2.39965 9.72861e-20 0.33813)
(1.82158 -4.04258e-19 0.358727)
(1.24424 4.13493e-19 0.372483)
(0.682249 8.4686e-19 0.368892)
(0.134354 -1.69839e-18 0.295166)
(-0.203254 1.34313e-18 -0.225113)
(10.0054 -1.74051e-20 0.0394574)
(9.98645 -8.99894e-21 0.059566)
(9.93739 -9.34925e-21 0.0747534)
(9.86608 -2.11491e-23 0.0904369)
(9.7758 -2.01946e-20 0.106872)
(9.66687 2.08626e-20 0.123894)
(9.53908 1.08805e-20 0.141674)
(9.39246 -5.65884e-21 0.160557)
(9.22687 5.04188e-20 0.180881)
(9.04182 -4.89798e-20 0.202925)
(8.83661 -1.60521e-21 0.22695)
(8.61042 1.30765e-23 0.253216)
(8.36229 0 0.281979)
(8.09116 -7.309e-21 0.313495)
(7.79588 0 0.348015)
(7.47527 -2.7408e-19 0.385763)
(7.12814 2.66364e-19 0.426904)
(6.75337 0 0.471505)
(6.34996 -3.14571e-19 0.519485)
(5.91719 5.38881e-19 0.570526)
(5.45478 -9.28364e-19 0.623989)
(4.96319 -8.40323e-20 0.678835)
(4.44362 8.77242e-20 0.733393)
(3.89813 0 0.785086)
(3.33059 -9.5117e-20 0.830275)
(2.7467 0 0.863378)
(2.15433 1.42062e-18 0.874852)
(1.5658 -1.23547e-18 0.845859)
(0.953786 -2.07789e-19 0.740949)
(0.652895 -8.80214e-19 0.491356)
(10.0026 -4.30689e-21 0.0418271)
(9.98098 3.14147e-20 0.0712569)
(9.93454 9.30708e-21 0.0963844)
(9.86852 1.93959e-20 0.122255)
(9.78481 -2.00422e-20 0.149471)
(9.68393 4.19197e-20 0.177885)
(9.5659 -3.24397e-20 0.207695)
(9.43084 1.13048e-20 0.23939)
(9.27871 -1.17548e-20 0.2735)
(9.1091 9.86008e-20 0.310481)
(8.92143 -1.01685e-19 0.350751)
(8.71502 -1.3028e-23 0.394734)
(8.48905 0 0.442866)
(8.24258 -7.23767e-21 0.495592)
(7.97457 -2.4462e-19 0.553358)
(7.68388 2.68107e-19 0.616574)
(7.36931 0 0.685564)
(7.02966 0 0.760506)
(6.66373 7.24074e-20 0.841353)
(6.27042 7.59824e-20 0.927715)
(5.84882 5.58778e-19 1.01868)
(5.39836 5.7536e-19 1.11265)
(4.9189 1.30061e-18 1.20711)
(4.41054 -1.42643e-18 1.29813)
(3.87412 0 1.38002)
(3.31092 1.54203e-18 1.44446)
(2.72106 -4.54615e-18 1.47864)
(2.10398 2.81538e-18 1.46186)
(1.40836 -2.03004e-19 1.37309)
(0.855435 5.50339e-22 1.16581)
(10.0008 -4.33685e-20 0.0466173)
(9.97678 2.68807e-20 0.0869634)
(9.93036 -1.858e-20 0.123365)
(9.86565 0 0.159729)
(9.78361 -8.02809e-20 0.19728)
(9.68491 -2.77811e-22 0.236177)
(9.56977 2.14847e-20 0.276782)
(9.43836 2.24996e-20 0.319777)
(9.29079 1.17295e-20 0.365889)
(9.12679 1.21891e-20 0.415753)
(8.94601 -6.3491e-21 0.469948)
(8.74798 1.65443e-21 0.529057)
(8.53215 -3.45052e-21 0.593684)
(8.29785 1.44458e-20 0.664467)
(8.04434 4.85143e-19 0.742056)
(7.77077 -1.00645e-18 0.827075)
(7.47618 5.54671e-19 0.920066)
(7.15954 0 1.0214)
(6.81974 5.05085e-19 1.13118)
(6.45566 5.3542e-19 1.24917)
(6.06612 -1.08368e-18 1.3745)
(5.64979 1.62863e-19 1.50547)
(5.20526 0 1.63926)
(4.73071 -1.4102e-18 1.77142)
(4.22378 1.44534e-18 1.89552)
(3.68097 0 2.00255)
(3.09556 0 2.08003)
(2.45991 -3.15476e-18 2.11013)
(1.71799 3.57941e-18 2.08316)
(1.02506 8.46971e-19 1.97156)
(9.99981 6.94126e-20 0.0529514)
(9.97463 -1.79024e-20 0.102751)
(9.92817 -1.85372e-20 0.149111)
(9.86443 -3.86128e-20 0.195047)
(9.78397 7.98972e-20 0.242166)
(9.68737 8.3351e-20 0.290934)
(9.57484 -8.60069e-20 0.341912)
(9.44652 -2.24539e-20 0.395919)
(9.30258 0 0.453784)
(9.14287 -2.07448e-19 0.516247)
(8.96711 4.10974e-19 0.583995)
(8.77501 -2.11202e-19 0.657715)
(8.56617 2.24366e-19 0.738128)
(8.34012 -2.41796e-19 0.826002)
(8.09631 5.10258e-19 0.922138)
(7.83417 -4.94665e-19 1.02733)
(7.55298 -3.25292e-20 1.14232)
(7.25199 0 1.26768)
(6.93015 -1.13643e-18 1.4037)
(6.58644 1.24238e-18 1.55033)
(6.21966 -1.53571e-19 1.707)
(5.82804 -1.43922e-18 1.87227)
(5.40928 1.47906e-18 2.04354)
(4.96009 -2.75351e-18 2.21655)
(4.47575 2.46522e-18 2.38513)
(3.94956 0 2.54098)
(3.37122 3.72011e-19 2.67328)
(2.73184 0 2.76668)
(1.98424 6.02214e-18 2.81164)
(1.20073 -7.21996e-18 2.79562)
(9.99933 0 0.0600039)
(9.97371 7.13431e-20 0.118484)
(9.92743 7.39688e-20 0.17435)
(9.86484 0 0.229806)
(9.78645 0 0.286435)
(9.69242 0 0.344955)
(9.58287 0 0.40615)
(9.45807 2.22959e-20 0.470948)
(9.31817 0 0.540242)
(9.16306 -1.94107e-19 0.61486)
(8.99258 2.12459e-19 0.695594)
(8.80652 0 0.783236)
(8.60456 -4.38027e-19 0.878622)
(8.38631 1.70639e-21 0.982646)
(8.15132 4.25125e-19 1.09623)
(7.89912 3.06455e-20 1.22032)
(7.62916 0 1.35582)
(7.34087 -1.07361e-18 1.50356)
(7.03326 2.28959e-18 1.66403)
(6.70527 -1.14749e-18 1.83739)
(6.35568 0 2.02346)
(5.98248 1.56269e-19 2.22133)
(5.58278 -1.61956e-19 2.42904)
(5.15242 1.65751e-19 2.64305)
(4.68519 3.4564e-19 2.85792)
(4.17278 0 3.06631)
(3.60361 -3.64244e-19 3.25851)
(2.96873 0 3.41947)
(2.23701 9.59529e-20 3.53011)
(1.38569 6.61364e-18 3.58864)
(9.99929 0 0.0673607)
(9.97352 -7.1276e-20 0.134138)
(9.92773 -1.10863e-19 0.19909)
(9.86671 -3.85257e-20 0.263749)
(9.79077 1.58863e-19 0.32953)
(9.6997 -8.21766e-20 0.397429)
(9.59361 8.58765e-20 0.468465)
(9.47283 6.76803e-20 0.543653)
(9.33755 1.60317e-21 0.62395)
(9.18769 -1.67046e-19 0.710257)
(9.02317 1.87971e-19 0.803452)
(8.84384 -2.06296e-19 0.904433)
(8.64945 0 1.01416)
(8.43963 -4.4422e-19 1.13364)
(8.21397 4.78553e-19 1.26391)
(7.97198 -3.04242e-20 1.40603)
(7.71318 -6.28252e-20 1.56108)
(7.43702 0 1.7301)
(7.14268 -5.96245e-22 1.91393)
(6.82891 0 2.11296)
(6.49421 2.35811e-18 2.32739)
(6.13643 2.41453e-18 2.55702)
(5.75233 -2.52137e-18 2.80074)
(5.3372 2.57437e-18 3.05607)
(4.88412 1.65336e-19 3.31854)
(4.38395 0 3.58153)
(3.82465 0 3.83536)
(3.1957 -5.7284e-18 4.0639)
(2.48499 1.17413e-17 4.23387)
(1.576 -6.20969e-18 4.34632)
(9.9995 0 0.0747853)
(9.9738 3.55309e-20 0.149599)
(9.92886 -7.33413e-20 0.22318)
(9.86985 -1.14493e-19 0.29664)
(9.79664 7.8901e-20 0.371217)
(9.70888 0 0.448142)
(9.60675 0 0.528653)
(9.49055 -1.33288e-19 0.613843)
(9.36049 1.82663e-19 0.704712)
(9.21659 1.67468e-19 0.802218)
(9.05881 -5.94351e-19 0.907317)
(8.88705 3.83227e-19 1.02102)
(8.70106 0 1.14441)
(8.50055 4.31502e-22 1.27863)
(8.28511 9.40513e-19 1.42484)
(8.05423 -9.50974e-19 1.58422)
(7.8074 1.06053e-18 1.75798)
(7.544 -1.02381e-18 1.9474)
(7.26334 -6.70152e-20 2.15369)
(6.96405 0 2.37768)
(6.64421 0 2.61998)
(6.30148 -1.46591e-19 2.88111)
(5.93226 0 3.16091)
(5.53144 -1.57629e-19 3.45806)
(5.09176 2.41918e-18 3.76928)
(4.60343 -2.62707e-18 4.0886)
(4.05385 0 4.40556)
(3.42872 1.06369e-20 4.7027)
(2.73427 5.619e-18 4.93217)
(1.76976 -5.99633e-18 5.08845)
(9.99989 0 0.0821265)
(9.9745 0 0.164736)
(9.93063 7.33629e-20 0.246493)
(9.87396 -2.82935e-22 0.328317)
(9.80387 7.85474e-20 0.41133)
(9.7198 0 0.496901)
(9.62205 -4.22326e-20 0.586476)
(9.5109 -4.39623e-20 0.681225)
(9.38666 0 0.782164)
(9.2494 4.71059e-20 0.890301)
(9.09913 0 1.00669)
(8.93574 -3.83198e-19 1.13244)
(8.75904 4.19877e-19 1.26878)
(8.56876 -4.288e-22 1.41696)
(8.36455 -1.42349e-20 1.5783)
(8.14597 0 1.75413)
(7.91235 0 1.9458)
(7.66299 -1.01438e-18 2.1548)
(7.39723 -1.05888e-20 2.38273)
(7.1136 1.13977e-18 2.63096)
(6.80999 0 2.90073)
(6.48375 2.44488e-18 3.19331)
(6.13085 -2.34534e-18 3.50953)
(5.74576 0 3.8493)
(5.32078 2.40471e-18 4.21071)
(4.84527 -2.52396e-18 4.58877)
(4.30577 0 4.97228)
(3.68181 -1.04324e-20 5.34287)
(2.99469 1.66752e-19 5.64018)
(1.97025 5.75127e-18 5.84521)
(10.0004 0 0.0892749)
(9.97549 0 0.179442)
(9.93288 0 0.268927)
(9.87887 -7.57113e-20 0.35861)
(9.81235 -7.81912e-20 0.449657)
(9.73233 -2.43812e-19 0.543503)
(9.63928 4.10829e-20 0.641708)
(9.53366 -4.46907e-20 0.745509)
(9.4158 1.80033e-19 0.85595)
(9.28583 -4.69302e-20 0.974098)
(9.14375 3.89898e-19 1.1011)
(8.98949 -3.75454e-19 1.23819)
(8.82292 -4.1877e-19 1.38669)
(8.6438 4.29668e-19 1.54798)
(8.45186 1.39058e-20 1.72351)
(8.24677 9.29473e-19 1.91482)
(8.02773 1.66206e-20 2.12347)
(7.79404 -9.83047e-19 2.35115)
(7.54496 0 2.59983)
(7.27895 -6.60393e-20 2.87146)
(6.99386 0 3.16808)
(6.68676 0 3.49184)
(6.3533 -2.27891e-18 3.84473)
(5.98741 4.64656e-18 4.22802)
(5.58069 -2.29291e-18 4.6415)
(5.1213 0 5.08186)
(4.59428 7.5982e-20 5.53822)
(3.97087 0 5.99233)
(3.28256 -5.31965e-18 6.3745)
(2.18723 5.51127e-18 6.65083)
(10.0007 0 0.0961679)
(9.97669 -3.5102e-20 0.193598)
(9.93575 -1.08742e-19 0.290361)
(9.88461 -7.5099e-20 0.387373)
(9.82188 7.80484e-20 0.486026)
(9.74621 -1.61507e-19 0.587772)
(9.65822 -9.83271e-22 0.694139)
(9.55859 1.29565e-19 0.806419)
(9.44766 0 0.925729)
(9.32558 -3.72576e-19 1.05322)
(9.19235 3.82717e-19 1.19014)
(9.04795 3.74424e-19 1.33779)
(8.8923 -4.09697e-19 1.4976)
(8.72525 2.64788e-20 1.67105)
(8.54662 -8.69844e-19 1.85974)
(8.35605 -2.20757e-20 2.0654)
(8.15298 9.25622e-19 2.28987)
(7.93675 -3.74818e-21 2.53509)
(7.70641 0 2.80334)
(7.46055 0 3.09723)
(7.19693 0 3.41961)
(6.91258 0 3.77374)
(6.60309 -2.19131e-18 4.16299)
(6.26189 2.19037e-18 4.5903)
(5.87966 5.60011e-22 5.0577)
(5.44304 -7.08616e-20 5.56486)
(4.93483 -4.60613e-18 6.10324)
(4.31609 4.64002e-18 6.65701)
(3.62277 -1.49723e-19 7.15099)
(2.43858 0 7.54296)
(10.0011 0 0.102768)
(9.97808 -1.04404e-19 0.207064)
(9.93924 1.08708e-19 0.310653)
(9.89104 7.49759e-20 0.414523)
(9.83216 -7.73173e-20 0.520334)
(9.76115 -4.35309e-22 0.629535)
(9.67863 1.65531e-19 0.743541)
(9.58542 8.60673e-20 0.863684)
(9.48189 -3.56559e-19 0.991194)
(9.3682 3.66308e-19 1.12732)
(9.24442 -3.34175e-19 1.27339)
(9.11054 7.36899e-19 1.43077)
(8.96657 -4.04337e-19 1.60095)
(8.81248 -2.63041e-20 1.78554)
(8.64813 -8.95296e-19 1.98625)
(8.47316 1.79629e-18 2.20498)
(8.28743 -9.13912e-19 2.44385)
(8.09042 3.70748e-21 2.7051)
(7.88102 1.94188e-18 2.99134)
(7.65807 -1.96296e-20 3.30584)
(7.41941 -2.21018e-20 3.65227)
(7.16224 2.06183e-18 4.03509)
(6.88241 -2.03743e-18 4.45926)
(6.57328 4.29534e-18 4.92991)
(6.22483 -2.2917e-18 5.45209)
(5.82221 2.10959e-18 6.03022)
(5.3456 -2.35549e-18 6.66148)
(4.74427 2.7932e-19 7.33712)
(4.05274 1.46806e-19 7.98304)
(2.75499 4.79576e-18 8.568)
(10.0015 0 0.109023)
(9.97968 -3.42672e-20 0.219729)
(9.94312 3.59165e-20 0.329705)
(9.89798 0 0.440009)
(9.84308 7.71675e-20 0.552497)
(9.77699 -3.54965e-22 0.668623)
(9.70032 8.30339e-20 0.789693)
(9.61393 -1.69891e-19 0.91707)
(9.51816 -3.53262e-19 1.05209)
(9.41329 3.62742e-19 1.19611)
(9.29944 3.29997e-19 1.35049)
(9.17669 3.05924e-21 1.51669)
(9.04508 -3.98864e-19 1.69625)
(8.90468 8.79398e-19 1.89083)
(8.75547 -7.93952e-19 2.1023)
(8.59733 -8.2248e-19 2.33269)
(8.43036 -5.57274e-21 2.58429)
(8.25413 8.60781e-19 2.85966)
(8.06779 0 3.16183)
(7.87044 -1.83771e-18 3.49459)
(7.66046 1.98768e-18 3.86253)
(7.43548 0 4.27119)
(7.19188 -2.07723e-18 4.7271)
(6.92375 2.03767e-18 5.2381)
(6.62156 2.16791e-18 5.81331)
(6.27005 -3.72431e-18 6.46375)
(5.84754 2.07694e-18 7.19675)
(5.29163 -1.32992e-19 8.01986)
(4.63112 -4.11856e-18 8.87596)
(3.19253 4.35987e-18 9.79689)
(10.0019 0 0.114873)
(9.98147 2.76418e-19 0.231532)
(9.94725 7.16313e-20 0.347464)
(9.90531 2.21832e-22 0.463756)
(9.85457 -7.64111e-20 0.582399)
(9.79367 7.92921e-20 0.70487)
(9.72317 1.18726e-21 0.832397)
(9.6439 8.71989e-22 0.96637)
(9.55624 -2.60924e-19 1.10821)
(9.46054 0 1.25932)
(9.35701 -9.25304e-20 1.42114)
(9.24582 4.80647e-20 1.59518)
(9.12712 -3.95764e-19 1.78302)
(9.00105 3.53782e-19 1.98638)
(8.86779 -8.89503e-19 2.20718)
(8.72763 8.00503e-19 2.44759)
(8.58065 -8.80156e-19 2.71001)
(8.42662 8.97181e-19 2.9973)
(8.26527 -1.13673e-19 3.31284)
(8.09599 5.67327e-20 3.66078)
(7.91815 0 4.04655)
(7.73031 -1.91396e-18 4.47663)
(7.52979 1.93622e-18 4.95893)
(7.31252 1.9297e-18 5.50389)
(7.07157 -1.94939e-18 6.12529)
(6.7942 1.42382e-18 6.84195)
(6.46125 -5.6345e-20 7.67557)
(6.00525 -7.46361e-20 8.66303)
(5.45582 -1.79105e-18 9.80239)
(3.8634 0 11.363)
(10.0025 -1.33072e-19 0.120277)
(9.98332 -1.3776e-19 0.242437)
(9.95157 0 0.363883)
(9.91296 -7.3131e-20 0.485691)
(9.8665 -7.59296e-20 0.609931)
(9.81102 0 0.738137)
(9.7469 2.43964e-19 0.871487)
(9.67498 -8.36165e-20 1.01139)
(9.59579 -2.59802e-19 1.15933)
(9.50959 8.69175e-20 1.31673)
(9.41667 4.58351e-19 1.48508)
(9.31734 0 1.66592)
(9.21195 9.67498e-20 1.86087)
(9.1008 -8.00986e-19 2.07167)
(8.98428 9.19717e-19 2.30026)
(8.86283 0 2.54885)
(8.73671 -1.06629e-19 2.81999)
(8.60612 5.52151e-20 3.11673)
(8.47136 -7.80321e-19 3.44264)
(8.33229 -1.78134e-21 3.80205)
(8.18939 -9.12359e-19 4.20086)
(8.04273 -9.96725e-21 4.64625)
(7.89139 -1.86086e-18 5.14706)
(7.73425 -1.83503e-18 5.7155)
(7.56941 1.8518e-18 6.36894)
(7.39187 2.31482e-19 7.13269)
(7.19562 0 8.04219)
(6.93228 1.61552e-18 9.16737)
(6.69119 -3.22113e-18 10.6034)
(4.97888 1.50875e-18 13.5518)
(0.0379736 -1.69101e-21 -0.0308171)
(0.14145 0 -0.0712437)
(0.299946 2.4244e-20 -0.0753716)
(0.456852 -2.3363e-20 -0.0598291)
(0.582107 0 -0.0385197)
(0.662074 -1.24818e-21 -0.0183592)
(0.697268 -2.34658e-21 -0.00262515)
(0.697217 -1.08373e-20 0.00772421)
(0.674144 8.55171e-21 0.0135475)
(0.638171 0 0.0160345)
(0.596536 0 0.0163661)
(0.553723 0 0.0156944)
(0.511446 0 0.0149341)
(0.469437 0 0.0145492)
(0.426601 -1.29138e-21 0.0146286)
(0.381693 1.27385e-21 0.015267)
(0.333316 -1.64923e-21 0.0166583)
(0.279801 4.29631e-23 0.0187825)
(0.220162 4.05648e-23 0.0207796)
(0.156181 4.30757e-22 0.0211397)
(0.0933469 -7.34132e-22 0.0189173)
(0.0386041 0 0.0142929)
(-0.00112677 -1.33487e-22 0.00833919)
(-0.0216038 7.43204e-23 0.00174037)
(-0.0216862 1.04432e-22 -0.00565496)
(-0.000306165 -4.73916e-23 -0.0133465)
(0.0448131 2.77459e-22 -0.0204059)
(0.112687 0 -0.0276664)
(0.20444 1.3042e-22 -0.0354818)
(0.338291 0 -0.0416942)
(0.0463005 1.08788e-19 -0.0948577)
(0.141597 -1.09227e-19 -0.183524)
(0.292167 -1.52887e-21 -0.193535)
(0.441351 4.4947e-20 -0.159534)
(0.56499 -4.35075e-20 -0.111203)
(0.651824 4.0287e-20 -0.0638281)
(0.701599 5.02799e-22 -0.024388)
(0.718373 -3.4098e-20 0.00506973)
(0.708552 -4.15694e-21 0.0246475)
(0.682613 1.12954e-20 0.0356831)
(0.647792 1.50513e-20 0.0405547)
(0.608635 6.59834e-21 0.0419404)
(0.567051 -1.26294e-20 0.0422445)
(0.523101 6.03163e-21 0.0427989)
(0.476363 -2.57702e-21 0.043842)
(0.426588 2.5418e-21 0.0458622)
(0.372893 1.11319e-21 0.0496495)
(0.313492 0 0.0551837)
(0.247345 0 0.0604392)
(0.176651 0 0.0616997)
(0.10735 2.19672e-21 0.056691)
(0.0454618 -6.47777e-22 0.0464518)
(-0.00689195 2.66384e-22 0.0338087)
(-0.0498202 -2.62395e-22 0.021129)
(-0.0862691 8.27202e-22 0.008127)
(-0.117135 -6.86868e-22 -0.00629625)
(-0.128765 -8.26518e-22 -0.0240723)
(-0.111601 -2.11475e-23 -0.0473)
(-0.0642916 1.3536e-22 -0.075084)
(0.0206194 1.08774e-23 -0.0975958)
(0.0460681 -1.07774e-19 -0.185268)
(0.128871 -1.0093e-19 -0.292398)
(0.256823 3.88165e-21 -0.298152)
(0.376514 9.34771e-20 -0.244585)
(0.470934 -8.36073e-20 -0.171197)
(0.533339 7.70659e-20 -0.100046)
(0.564846 0 -0.0408686)
(0.567994 0 0.00469478)
(0.549419 8.34978e-21 0.0364162)
(0.516882 1.91534e-20 0.0551702)
(0.475507 1.50749e-20 0.0645085)
(0.427959 -1.6608e-20 0.0685329)
(0.374665 1.30504e-20 0.0710417)
(0.315192 -8.52612e-21 0.0740569)
(0.249447 1.06939e-20 0.0773187)
(0.177432 -2.64449e-21 0.0813516)
(0.0982651 2.20765e-21 0.0883811)
(0.00952458 -1.9251e-21 0.0996082)
(-0.0847197 1.89488e-21 0.110905)
(-0.184647 -1.55514e-21 0.115694)
(-0.290188 7.04753e-23 0.110859)
(-0.395811 1.25286e-21 0.0978155)
(-0.489294 -1.10909e-23 0.080077)
(-0.559028 5.18564e-22 0.0592317)
(-0.600923 -8.23275e-22 0.0337674)
(-0.616401 1.3522e-21 0.00103125)
(-0.610444 5.46866e-22 -0.0382052)
(-0.583296 0 -0.0793875)
(-0.54888 -2.5497e-22 -0.116956)
(-0.528244 -1.62352e-22 -0.143303)
(0.0252556 7.74855e-24 -0.300406)
(0.0998727 1.12022e-19 -0.392978)
(0.206619 -9.65589e-20 -0.379597)
(0.294032 9.33902e-20 -0.30309)
(0.353665 -8.41934e-20 -0.207062)
(0.384442 8.78002e-20 -0.11626)
(0.387024 7.42879e-20 -0.0408147)
(0.357389 -7.34277e-20 0.0183421)
(0.311163 -4.2067e-21 0.0593876)
(0.253598 0 0.0845517)
(0.187395 2.85278e-20 0.0990258)
(0.110026 -1.79545e-20 0.108889)
(0.0168686 6.30092e-21 0.119023)
(-0.0862879 1.4146e-20 0.13)
(-0.198533 -1.10542e-20 0.139841)
(-0.319823 -2.42925e-21 0.149345)
(-0.440775 -2.35607e-21 0.161047)
(-0.551384 -4.13204e-21 0.17398)
(-0.649617 1.76425e-21 0.182831)
(-0.738952 0 0.182059)
(-0.820585 -5.48447e-23 0.168875)
(-0.891434 -2.52084e-21 0.143936)
(-0.947176 -4.52076e-22 0.110632)
(-0.985293 -8.55409e-22 0.0728147)
(-1.00718 4.31352e-22 0.0326675)
(-1.01644 -5.1819e-22 -0.00889685)
(-1.01822 9.68157e-22 -0.0507274)
(-1.01604 -1.11381e-22 -0.0911094)
(-1.01447 0 -0.127474)
(-1.01669 3.05298e-22 -0.154433)
(-0.0232699 2.25077e-19 -0.423727)
(0.046027 -6.56808e-21 -0.48231)
(0.129824 0 -0.436464)
(0.180015 -7.25568e-22 -0.332573)
(0.198863 0 -0.214251)
(0.189068 -5.14979e-21 -0.105489)
(0.132496 7.53546e-20 -0.00779591)
(0.0512606 -8.34515e-20 0.0697689)
(-0.0424756 8.48059e-21 0.117082)
(-0.142723 0 0.145076)
(-0.251233 0 0.164751)
(-0.366404 -6.81995e-21 0.181743)
(-0.483944 -6.2896e-21 0.197819)
(-0.599946 5.3762e-21 0.21131)
(-0.715081 -2.10287e-20 0.220345)
(-0.827825 9.94518e-21 0.225511)
(-0.932142 4.33688e-21 0.229355)
(-1.02351 0 0.232597)
(-1.10114 -1.75629e-21 0.232114)
(-1.16673 1.48308e-21 0.223188)
(-1.22233 -5.69741e-23 0.202766)
(-1.26963 0 0.171261)
(-1.30982 0 0.132034)
(-1.34354 9.21017e-22 0.0888852)
(-1.37097 0 0.0442189)
(-1.39228 0 -0.000743193)
(-1.40869 -9.97523e-22 -0.0456024)
(-1.42208 0 -0.0888154)
(-1.43349 0 -0.127667)
(-1.44195 -1.4297e-22 -0.155554)
(-0.0905923 2.29701e-19 -0.53432)
(-0.0322014 -2.14725e-19 -0.548819)
(0.0190998 0 -0.457684)
(0.0201063 -1.499e-21 -0.317376)
(-0.0165257 0 -0.16448)
(-0.124389 -5.45969e-23 -0.0131105)
(-0.246034 -7.64106e-20 0.0904435)
(-0.357414 2.22524e-20 0.154577)
(-0.47254 6.15399e-20 0.19681)
(-0.589198 0 0.225507)
(-0.707196 3.56621e-20 0.246067)
(-0.824097 -2.1191e-20 0.261865)
(-0.936104 0 0.274395)
(-1.04023 7.07012e-23 0.283066)
(-1.13712 9.95456e-21 0.286827)
(-1.22764 -1.87876e-20 0.286067)
(-1.31049 1.30372e-20 0.282767)
(-1.38392 3.62379e-21 0.277884)
(-1.44743 -3.33872e-22 0.269452)
(-1.50227 -6.13971e-21 0.253926)
(-1.5509 0 0.22883)
(-1.59586 0 0.194317)
(-1.63839 0 0.152798)
(-1.67794 0 0.107269)
(-1.71337 -1.33142e-21 0.0596268)
(-1.7437 -1.05796e-21 0.0112883)
(-1.76834 0 -0.0365767)
(-1.79098 -5.47571e-22 -0.0823976)
(-1.80993 3.03504e-22 -0.123355)
(-1.8215 9.19528e-23 -0.151732)
(-0.164791 -1.81925e-21 -0.609914)
(-0.131561 6.96324e-21 -0.567633)
(-0.130963 -1.65158e-21 -0.409716)
(-0.205042 3.07295e-21 -0.210709)
(-0.347009 -8.39647e-20 -0.0244364)
(-0.491975 9.33901e-20 0.107355)
(-0.617988 1.00098e-20 0.188851)
(-0.743917 -1.84757e-20 0.244783)
(-0.865706 0 0.283084)
(-0.983131 0 0.30836)
(-1.0951 2.08818e-20 0.324537)
(-1.20009 -2.77805e-20 0.334623)
(-1.29671 -6.08214e-21 0.340416)
(-1.3847 1.64185e-20 0.342397)
(-1.46524 -1.56301e-20 0.340441)
(-1.54024 0 0.334894)
(-1.61048 -4.17964e-21 0.326942)
(-1.6756 3.51794e-21 0.317077)
(-1.73534 -3.4598e-21 0.303759)
(-1.79048 2.95353e-21 0.284257)
(-1.84255 2.37803e-21 0.256546)
(-1.89278 -2.34137e-21 0.220557)
(-1.94149 8.57455e-22 0.177693)
(-1.98768 -2.30404e-21 0.129996)
(-2.03003 2.49828e-21 0.0793988)
(-2.06743 1.95977e-21 0.0276773)
(-2.09908 1.5427e-22 -0.0233151)
(-2.12931 4.41692e-22 -0.0718662)
(-2.15425 -3.49568e-22 -0.114996)
(-2.16796 -2.11506e-22 -0.143996)
(-0.238637 -9.86459e-22 -0.622247)
(-0.249338 -6.98856e-21 -0.499519)
(-0.32519 1.66455e-21 -0.270326)
(-0.485675 -2.00693e-19 -0.0422353)
(-0.656371 1.95352e-19 0.124634)
(-0.801161 -8.53589e-20 0.226745)
(-0.940726 7.36469e-20 0.29508)
(-1.07183 9.32393e-21 0.340781)
(-1.19304 -6.64996e-20 0.370032)
(-1.30422 6.52606e-20 0.387099)
(-1.40572 0 0.395534)
(-1.49817 -6.66168e-21 0.398252)
(-1.58195 3.53679e-20 0.397149)
(-1.65838 -2.28741e-20 0.39314)
(-1.72938 -4.52778e-21 0.386631)
(-1.79704 8.0209e-22 0.377988)
(-1.8628 8.44122e-21 0.367627)
(-1.92683 -3.39237e-21 0.355288)
(-1.98876 6.31237e-21 0.33939)
(-2.04855 2.32838e-21 0.317645)
(-2.10682 -2.61515e-21 0.288301)
(-2.16393 -2.1791e-21 0.25097)
(-2.21958 0 0.206545)
(-2.27272 1.94675e-22 0.156638)
(-2.32202 -9.28367e-22 0.103095)
(-2.36646 -1.13828e-21 0.0480013)
(-2.4063 -1.17487e-22 -0.00628817)
(-2.44212 1.15838e-22 -0.057918)
(-2.47239 0 -0.103353)
(-2.48784 1.19583e-22 -0.133276)
(-0.311431 -5.17192e-19 -0.542572)
(-0.380591 4.79571e-19 -0.343229)
(-0.530329 -4.55421e-19 -0.067473)
(-0.72847 1.51946e-20 0.149558)
(-0.900251 1.96775e-19 0.273765)
(-1.06207 -8.71033e-20 0.355154)
(-1.2094 8.54063e-20 0.407021)
(-1.3416 0 0.438117)
(-1.45909 0 0.454479)
(-1.56308 0 0.460548)
(-1.65544 -2.75868e-20 0.459807)
(-1.73841 5.21796e-20 0.454948)
(-1.81381 -3.0641e-20 0.447788)
(-1.88387 1.56594e-20 0.439325)
(-1.95089 -5.35814e-21 0.429974)
(-2.01673 4.03929e-21 0.419837)
(-2.08265 -7.9221e-22 0.408626)
(-2.14891 -4.0182e-21 0.395335)
(-2.21506 -6.10733e-21 0.378201)
(-2.28077 -2.66671e-21 0.355141)
(-2.34596 2.60427e-22 0.324565)
(-2.41043 3.69185e-21 0.28596)
(-2.4736 -2.00731e-21 0.239897)
(-2.53432 1.90749e-21 0.187697)
(-2.59116 0 0.131158)
(-2.64312 0 0.0725398)
(-2.69042 -7.37304e-23 0.0143983)
(-2.73231 7.27525e-23 -0.0407196)
(-2.7676 0 -0.0886613)
(-2.78482 -4.31372e-23 -0.119914)
(-0.384078 0 -0.36444)
(-0.509478 -2.55315e-19 -0.101653)
(-0.704897 4.80653e-19 0.183339)
(-0.912277 -1.25785e-19 0.339032)
(-1.1093 -2.02639e-19 0.435412)
(-1.28378 9.561e-20 0.491652)
(-1.43491 9.0179e-20 0.521654)
(-1.56516 -6.89289e-20 0.534271)
(-1.67743 0 0.535351)
(-1.77468 7.61417e-21 0.529209)
(-1.85999 0 0.519095)
(-1.93653 0 0.507322)
(-2.0071 5.70454e-21 0.49537)
(-2.07424 -1.55348e-22 0.483979)
(-2.14032 4.24518e-21 0.473242)
(-2.20695 3.48057e-21 0.462768)
(-2.2749 -1.15694e-20 0.451628)
(-2.3446 3.19473e-21 0.438314)
(-2.4157 3.01318e-21 0.420823)
(-2.48767 2.58858e-21 0.397112)
(-2.56008 -6.31946e-23 0.36567)
(-2.63238 -3.46779e-21 0.325914)
(-2.7037 2.63528e-22 0.278206)
(-2.77272 -3.79529e-22 0.223654)
(-2.83778 2.50105e-22 0.163976)
(-2.89773 1.22201e-22 0.101508)
(-2.95279 -1.02686e-22 0.039101)
(-3.00248 -1.85607e-22 -0.0199728)
(-3.04153 3.13302e-22 -0.0710369)
(-3.06068 4.7183e-23 -0.103979)
(-0.453271 0 -0.0527801)
(-0.611495 -2.62055e-19 0.240681)
(-0.832186 2.62238e-19 0.432547)
(-1.08029 0 0.549998)
(-1.29738 0 0.608477)
(-1.47854 -1.14196e-20 0.631777)
(-1.62853 -1.0396e-20 0.635183)
(-1.75354 -9.35967e-21 0.626937)
(-1.85909 -8.18935e-21 0.611899)
(-1.94961 -3.67372e-20 0.593639)
(-2.02896 -2.84434e-20 0.574844)
(-2.10082 0 0.557265)
(-2.16843 -5.71614e-21 0.541819)
(-2.2343 -5.17032e-21 0.528749)
(-2.30061 0 0.517685)
(-2.36872 3.74374e-21 0.50766)
(-2.43934 -6.65835e-22 0.497304)
(-2.51283 -9.82252e-21 0.484693)
(-2.58906 2.23117e-21 0.467585)
(-2.66745 -4.36144e-21 0.443871)
(-2.74743 3.79822e-21 0.412024)
(-2.82817 0 0.371373)
(-2.90849 6.91948e-22 0.322105)
(-2.98674 3.80707e-22 0.265143)
(-3.06095 2.76586e-22 0.202121)
(-3.12969 0 0.135458)
(-3.19305 5.6777e-22 0.0682812)
(-3.25022 2.07124e-22 0.00440184)
(-3.2939 -3.1683e-22 -0.0504755)
(-3.315 0 -0.0855043)
(-0.482245 0 0.421218)
(-0.670511 2.79725e-19 0.592401)
(-0.966231 -1.51613e-19 0.720238)
(-1.25041 -1.38151e-19 0.778047)
(-1.47799 9.82117e-20 0.785295)
(-1.65613 -8.47012e-20 0.768849)
(-1.79763 -6.74207e-20 0.743174)
(-1.91291 8.42254e-20 0.713738)
(-2.00932 -2.28534e-20 0.683173)
(-2.09196 6.55752e-20 0.653816)
(-2.16506 2.74589e-20 0.627618)
(-2.23249 0 0.605603)
(-2.29751 0 0.587927)
(-2.3624 0 0.574212)
(-2.42897 -4.08215e-21 0.563623)
(-2.49845 1.22202e-20 0.554765)
(-2.57163 3.4999e-21 0.545864)
(-2.6489 5.64497e-21 0.534673)
(-2.73028 -7.16385e-21 0.518719)
(-2.81528 0 0.495738)
(-2.9032 -2.64245e-21 0.464083)
(-2.99297 0 0.422924)
(-3.08304 0 0.372262)
(-3.17139 1.10809e-22 0.312851)
(-3.25565 -2.76018e-22 0.246226)
(-3.33399 8.14673e-23 0.174856)
(-3.40617 -6.21373e-22 0.102167)
(-3.47132 1.29341e-21 0.0327078)
(-3.52171 -1.79954e-23 -0.026641)
(-3.54375 4.18481e-22 -0.0643792)
(-0.510845 0 1.00208)
(-0.757405 0 1.01549)
(-1.138 -1.64361e-20 1.0368)
(-1.4401 1.46336e-20 1.01153)
(-1.66064 -9.50328e-20 0.95445)
(-1.82077 9.6234e-21 0.893855)
(-1.94341 3.46348e-20 0.839983)
(-2.04289 1.8907e-20 0.791561)
(-2.12644 7.42969e-21 0.747447)
(-2.1986 -3.39631e-20 0.708781)
(-2.26359 -2.00712e-20 0.676972)
(-2.32534 5.59515e-21 0.652207)
(-2.38683 0 0.633672)
(-2.44984 -4.61311e-21 0.620325)
(-2.51579 -4.31681e-21 0.611007)
(-2.58572 0 0.604045)
(-2.66058 -6.29082e-21 0.597375)
(-2.7409 -3.95827e-22 0.588446)
(-2.82684 4.62982e-21 0.574532)
(-2.91804 3.09042e-21 0.553129)
(-3.0137 4.65966e-21 0.522354)
(-3.11251 0 0.481141)
(-3.2126 2.46419e-23 0.429283)
(-3.31154 6.00373e-22 0.367357)
(-3.40653 1.34959e-21 0.296807)
(-3.49535 0 0.220146)
(-3.57729 9.59509e-23 0.141214)
(-3.65112 -1.33218e-21 0.065548)
(-3.70833 0 0.00135252)
(-3.73416 -4.00435e-22 -0.0387884)
(-0.570313 0 1.66531)
(-0.922223 1.43243e-19 1.50118)
(-1.36987 -1.25675e-19 1.37448)
(-1.65747 -1.02387e-19 1.23657)
(-1.84585 8.92589e-20 1.09984)
(-1.96708 -3.86894e-20 0.99396)
(-2.05792 3.7766e-20 0.918406)
(-2.13496 1.58689e-20 0.856449)
(-2.20126 -3.52258e-20 0.801928)
(-2.25884 2.7118e-20 0.756274)
(-2.31197 -6.14699e-21 0.721228)
(-2.36495 -5.60395e-21 0.695927)
(-2.42027 -9.60074e-21 0.678172)
(-2.47894 9.59459e-21 0.666299)
(-2.54179 7.69225e-21 0.659058)
(-2.60975 -7.53343e-21 0.654789)
(-2.68371 6.29279e-21 0.651188)
(-2.76447 1.86775e-21 0.645464)
(-2.85233 -2.22529e-21 0.634576)
(-2.94704 -1.95197e-21 0.615704)
(-3.04776 -3.13644e-21 0.586645)
(-3.15309 2.19186e-22 0.54603)
(-3.26098 0 0.493386)
(-3.36872 -2.42279e-21 0.42915)
(-3.47314 -1.34804e-21 0.354689)
(-3.57156 0 0.272572)
(-3.66272 0 0.187087)
(-3.74478 -2.74811e-21 0.10491)
(-3.80826 1.22112e-22 0.0357495)
(-3.83712 0 -0.00691017)
(-0.558821 2.91176e-19 2.44136)
(-1.06913 -1.58729e-19 2.05657)
(-1.63805 -5.23136e-20 1.73638)
(-1.88432 5.66989e-20 1.42941)
(-2.01231 5.0096e-20 1.19078)
(-2.06836 -3.82805e-20 1.05004)
(-2.11545 0 0.972576)
(-2.16808 -1.43851e-20 0.906041)
(-2.21494 0 0.843503)
(-2.25345 -1.78047e-20 0.792467)
(-2.28952 -2.85651e-20 0.756906)
(-2.32918 5.63247e-21 0.733992)
(-2.37432 0 0.718983)
(-2.4246 4.42152e-21 0.709763)
(-2.48011 0 0.705477)
(-2.54182 0 0.704743)
(-2.61073 -2.6316e-21 0.705132)
(-2.68748 -6.73494e-21 0.703543)
(-2.77256 -1.43828e-21 0.696683)
(-2.86572 1.4119e-21 0.681371)
(-2.96623 6.43537e-22 0.65507)
(-3.07291 -2.19244e-22 0.616074)
(-3.1837 0 0.563615)
(-3.29581 1.36968e-21 0.497904)
(-3.40588 -3.1341e-21 0.420163)
(-3.51083 0 0.332865)
(-3.60885 0 0.240522)
(-3.69742 6.00608e-21 0.150759)
(-3.76604 8.14959e-23 0.0747483)
(-3.79754 9.48005e-22 0.0272668)
(10.0032 -1.12045e-19 0.125291)
(9.98532 -1.64548e-20 0.252591)
(9.9562 -3.41769e-20 0.379191)
(9.92117 3.52056e-19 0.506147)
(9.87915 0 0.635531)
(9.82937 0 0.768953)
(9.77202 0 0.907607)
(9.70788 -8.02158e-20 1.05288)
(9.63759 -8.21441e-20 1.20629)
(9.56144 -8.52269e-20 1.36931)
(9.4798 0 1.54341)
(9.39311 4.49738e-19 1.73013)
(9.30191 -9.23061e-19 1.93109)
(9.20672 -3.81054e-19 2.14802)
(9.10806 1.55082e-18 2.38288)
(9.00652 -7.92441e-19 2.63787)
(8.90269 9.12774e-19 2.91562)
(8.79734 -8.24466e-19 3.2192)
(8.69128 -8.37248e-19 3.5522)
(8.58519 8.46708e-19 3.91897)
(8.48072 -2.11416e-19 4.32538)
(8.37954 6.42815e-19 4.77863)
(8.28338 -2.77957e-18 5.28776)
(8.19508 3.43098e-20 5.8651)
(8.11984 2.32068e-18 6.52854)
(8.06561 -3.67358e-20 7.30412)
(8.05388 -9.95824e-19 8.22929)
(8.10753 -6.68581e-19 9.37433)
(8.80066 3.80107e-19 10.7819)
(9.35434 -2.64251e-19 13.6973)
(10.0038 1.55128e-20 0.129918)
(9.98749 -1.59742e-20 0.26198)
(9.96114 6.61885e-20 0.393357)
(9.92988 -3.23749e-22 0.52508)
(9.89255 -7.04697e-20 0.659124)
(9.84864 -1.45194e-19 0.797173)
(9.79829 -1.50434e-19 0.940532)
(9.74218 1.54491e-19 1.09055)
(9.68102 1.5937e-19 1.24871)
(9.61522 -3.28646e-19 1.4165)
(9.54531 4.20522e-19 1.5954)
(9.47185 -8.69919e-20 1.7869)
(9.39544 8.92763e-20 1.99257)
(9.31674 0 2.21414)
(9.2365 -1.19272e-21 2.45351)
(9.15554 9.43165e-20 2.71286)
(9.07482 -7.74094e-19 2.99471)
(8.99562 7.86857e-19 3.30201)
(8.91923 8.94344e-19 3.63815)
(8.84746 -1.90983e-18 4.00729)
(8.78299 1.01752e-18 4.41474)
(8.72886 2.05602e-19 4.86691)
(8.6895 2.05167e-19 5.37188)
(8.67161 0 5.93995)
(8.68652 -3.73694e-19 6.58518)
(8.75278 4.16427e-20 7.32565)
(8.90972 9.24594e-19 8.18105)
(9.16333 -3.18988e-19 9.17673)
(9.82158 3.04666e-19 10.2596)
(10.4533 -1.90957e-19 11.4956)
(10.0044 -2.40207e-19 0.134088)
(9.98974 0 0.270446)
(9.96623 0 0.406162)
(9.93904 0 0.542203)
(9.90682 1.36387e-19 0.680418)
(9.86894 2.8274e-19 0.822528)
(9.82571 4.14685e-22 0.96997)
(9.77786 -2.98634e-19 1.12407)
(9.72609 -5.91437e-22 1.28623)
(9.67095 -7.88302e-20 1.45791)
(9.61309 2.43989e-19 1.64057)
(9.55319 8.96435e-22 1.83568)
(9.49191 -3.41272e-19 2.04474)
(9.43004 0 2.2694)
(9.36857 -8.9829e-20 2.51148)
(9.30856 -8.18975e-19 2.77301)
(9.25134 6.4833e-19 3.05631)
(9.19857 0 3.36405)
(9.15211 -9.58133e-20 3.69922)
(9.11467 3.82422e-19 4.06544)