/*--------------------------------*- C++ -*----------------------------------*\
| =========                 |                                                 |
| \\      /  F ield         | OpenFOAM: The Open Source CFD Toolbox           |
|  \\    /   O peration     | Version:  dev                                   |
|   \\  /    A nd           | Web:      www.OpenFOAM.org                      |
|    \\/     M anipulation  |                                                 |
\*---------------------------------------------------------------------------*/
FoamFile
{
    version     2.0;
    format      ascii;
    class       volScalarField;
    location    "3.91";
    object      p;
}
// * * * * * * * * * * * * * * * * * * * * * * * * * * * * * * * * * * * * * //

dimensions      [0 2 -2 0 0 0 0];

internalField   nonuniform List<scalar> 
2790
(
149.633
149.541
149.8
150.369
151.154
152.116
153.253
154.563
156.043
157.687
159.488
161.44
163.532
165.754
168.088
170.514
173.005
175.526
178.035
180.481
182.805
184.944
186.834
188.415
189.641
190.489
190.96
191.1
191.15
191.29
149.441
149.447
149.73
150.298
151.079
152.039
153.171
154.475
155.948
157.584
159.375
161.317
163.398
165.609
167.932
170.349
172.831
175.347
177.854
180.304
182.639
184.797
186.711
188.321
189.577
190.445
190.905
191.026
191.18
191.373
149.242
149.319
149.621
150.18
150.948
151.894
153.012
154.298
155.749
157.36
159.124
161.034
163.081
165.253
167.536
169.909
172.349
174.823
177.294
179.715
182.035
184.193
186.13
187.788
189.117
190.091
190.713
191.077
191.379
191.664
149.018
149.128
149.443
149.992
150.745
151.675
152.773
154.035
155.457
157.035
158.76
160.626
162.624
164.742
166.965
169.275
171.649
174.057
176.465
178.833
181.114
183.256
185.209
186.921
188.355
189.494
190.358
191.011
191.534
191.999
148.76
148.885
149.207
149.748
150.485
151.394
152.466
153.697
155.082
156.617
158.293
160.103
162.038
164.087
166.234
168.463
170.752
173.074
175.4
177.694
179.918
182.03
183.988
185.755
187.304
188.625
189.732
190.658
191.417
192.079
148.462
148.593
148.917
149.449
150.166
151.048
152.089
153.282
154.623
156.106
157.723
159.467
161.328
163.294
165.352
167.485
169.672
171.891
174.116
176.317
178.463
180.523
182.467
184.27
185.915
187.395
188.713
189.874
190.83
191.641
148.123
148.255
148.577
149.094
149.789
150.641
151.645
152.794
154.084
155.507
157.057
158.724
160.5
162.372
164.327
166.349
168.419
170.518
172.622
174.708
176.752
178.732
180.63
182.431
184.128
185.717
187.192
188.538
189.652
190.594
147.743
147.873
148.187
148.688
149.357
150.175
151.137
152.237
153.468
154.825
156.298
157.88
159.56
161.326
163.165
165.062
167
168.959
170.922
172.868
174.781
176.645
178.451
180.195
181.88
183.506
185.068
186.541
187.785
188.875
147.322
147.447
147.751
148.233
148.872
149.653
150.569
151.613
152.781
154.064
155.453
156.94
158.515
160.164
161.875
163.633
165.421
167.223
169.02
170.798
172.542
174.244
175.901
177.517
179.103
180.673
182.227
183.755
185.095
186.364
146.861
146.981
147.271
147.73
148.338
149.078
149.943
150.928
152.026
153.229
154.527
155.912
157.371
158.894
160.465
162.07
163.692
165.315
166.922
168.499
170.033
171.519
172.955
174.352
175.729
177.113
178.527
179.994
181.362
182.839
146.361
146.475
146.749
147.184
147.757
148.452
149.264
150.185
151.208
152.325
153.527
154.802
156.138
157.524
158.944
160.382
161.823
163.247
164.637
165.979
167.257
168.464
169.597
170.666
171.692
172.715
173.787
174.994
176.242
177.931
145.825
145.932
146.189
146.596
147.132
147.781
148.535
149.388
150.333
151.36
152.458
153.617
154.824
156.065
157.324
158.584
159.827
161.032
162.181
163.252
164.228
165.091
165.831
166.445
166.946
167.371
167.794
168.382
169.171
170.978
145.255
145.353
145.592
145.97
146.467
147.066
147.76
148.543
149.406
150.338
151.329
152.367
153.438
154.527
155.616
156.688
157.72
158.69
159.574
160.344
160.973
161.431
161.687
161.713
161.488
161.013
160.333
159.661
159.218
160.695
144.653
144.742
144.961
145.309
145.765
146.313
146.945
147.654
148.432
149.266
150.147
151.06
151.99
152.922
153.836
154.71
155.522
156.243
156.844
157.288
157.534
157.535
157.23
156.546
155.396
153.679
151.292
148.286
144.833
144.188
144.021
144.101
144.299
144.616
145.029
145.524
146.093
146.727
147.417
148.152
148.919
149.704
150.491
151.262
151.995
152.668
153.252
153.716
154.022
154.125
153.968
153.479
152.563
151.09
148.87
145.623
140.902
134.067
123.781
113.115
3.79646
3.75358
3.64274
3.48471
3.31329
3.15047
3.0056
2.88113
2.77613
2.68778
2.61172
2.54268
2.47593
2.40788
2.33594
2.25826
2.17362
2.08123
1.98051
1.8709
1.7517
1.62207
1.48091
1.32698
1.15957
0.978688
0.78491
0.578693
0.359776
0.127914
3.7339
3.68343
3.5755
3.42718
3.2672
3.11455
2.97777
2.85957
2.75978
2.67631
2.60473
2.53924
2.47499
2.40863
2.33777
2.2607
2.17634
2.08405
1.98336
1.87384
1.7549
1.62558
1.48448
1.33029
1.16236
0.980988
0.786938
0.580664
0.3614
0.127227
3.65301
3.59588
3.49175
3.3544
3.208
3.06782
2.94132
2.83142
2.73829
2.66019
2.59401
2.53399
2.47404
2.41084
2.34215
2.26639
2.18264
2.09043
1.98958
1.87998
1.76126
1.63228
1.4914
1.33706
1.16847
0.986069
0.79089
0.583659
0.363504
0.12697
3.57298
3.51164
3.41197
3.28505
3.15163
3.0233
2.9066
2.80463
2.718
2.64543
2.58439
2.5293
2.47372
2.41395
2.3476
2.27329
2.19039
2.09868
1.99811
1.88866
1.76999
1.64096
1.49979
1.34481
1.17524
0.991297
0.794371
0.585733
0.36445
0.126371
3.51731
3.45453
3.36055
3.24309
3.12027
3.001
2.89139
2.79463
2.71138
2.64199
2.58417
2.53165
2.4784
2.4205
2.35537
2.28171
2.19914
2.10769
2.0075
1.89847
1.78005
1.65092
1.50928
1.35353
1.1829
0.997456
0.798068
0.586725
0.363225
0.124257
3.50878
3.4451
3.35626
3.24528
3.12853
3.0139
2.90748
2.81272
2.73046
2.66039
2.59973
2.54463
2.49041
2.43193
2.36644
2.29265
2.21017
2.11899
2.01909
1.91019
1.79154
1.66179
1.51925
1.36244
1.19054
1.00343
0.801588
0.586441
0.35912
0.120818
3.564
3.49643
3.40779
3.2962
3.17828
3.06206
2.95355
2.85607
2.77042
2.69582
2.62965
2.56909
2.51058
2.44916
2.38181
2.30694
2.22389
2.13241
2.03227
1.92303
1.80379
1.6732
1.52963
1.37166
1.19837
1.00933
0.804489
0.584579
0.352834
0.117415
3.6856
3.60608
3.50761
3.38655
3.25985
3.13599
3.02047
2.91617
2.82373
2.74154
2.66793
2.60102
2.53692
2.47128
2.401
2.3242
2.23991
2.14762
2.04688
1.93705
1.8171
1.68559
1.54091
1.38163
1.20672
1.01541
0.806868
0.58137
0.345442
0.114229
3.85532
3.75467
3.63505
3.49664
3.35563
3.22039
3.0955
2.98276
2.88217
2.792
2.711
2.63748
2.56747
2.49712
2.42339
2.34418
2.25826
2.16486
2.06331
1.95274
1.83194
1.6994
1.55344
1.39263
1.21582
1.02185
0.809015
0.577477
0.33776
0.11103
4.03861
3.91286
3.76432
3.60448
3.44805
3.30171
3.16823
3.0478
2.93951
2.84262
2.75564
2.676
2.60047
2.52564
2.44852
2.36684
2.27914
2.18445
2.08191
1.97044
1.84865
1.71488
1.56744
1.40485
1.22588
1.02892
0.811275
0.573215
0.329665
0.107764
4.19828
4.04492
3.8712
3.69297
3.52425
3.36966
3.22992
3.10458
2.99225
2.89107
2.79922
2.71452
2.63441
2.55591
2.47598
2.39213
2.30271
2.20664
2.10297
1.99044
1.86747
1.73227
1.58309
1.41848
1.23714
1.03696
0.814339
0.569694
0.322197
0.104663
4.32742
4.13513
3.93397
3.74423
3.57199
3.41708
3.27716
3.15094
3.0374
2.93438
2.83955
2.75124
2.66789
2.58705
2.50541
2.42002
2.32905
2.23153
2.12655
2.01279
1.88842
1.75152
1.60033
1.43349
1.24968
1.0463
0.818814
0.567815
0.316281
0.101993
4.37081
4.12892
3.91687
3.73419
3.57462
3.43288
3.3022
3.18117
3.07115
2.97014
2.87484
2.78445
2.6994
2.61807
2.53641
2.45047
2.35823
2.25913
2.15268
2.03755
1.91163
1.77278
1.61931
1.45007
1.26379
1.05736
0.825286
0.568214
0.312364
0.0999213
4.16935
3.88497
3.73649
3.62647
3.51465
3.41003
3.3024
3.19224
3.09074
2.99704
2.90431
2.81277
2.72723
2.6479
2.56881
2.48371
2.39037
2.2894
2.18128
2.06475
1.93726
1.79628
1.64027
1.46848
1.2798
1.07064
0.834432
0.571489
0.310706
0.0985331
3.37838
3.15252
3.28469
3.4226
3.39342
3.35041
3.28358
3.18346
3.09367
3.01554
2.92922
2.8354
2.74932
2.67533
2.60284
2.52039
2.42574
2.32214
2.21207
2.0944
1.96555
1.82234
1.66351
1.48902
1.29811
1.08672
0.846981
0.578231
0.311468
0.0979061
143.349
143.42
143.597
143.88
144.249
144.689
145.192
145.748
146.348
146.98
147.63
148.283
148.923
149.528
150.077
150.542
150.893
151.092
151.096
150.847
150.275
149.284
147.743
145.459
142.135
137.276
129.96
118.267
95.7283
35.4143
142.63
142.691
142.845
143.093
143.416
143.799
144.233
144.708
145.214
145.74
146.269
146.787
147.275
147.71
148.069
148.323
148.436
148.367
148.065
147.465
146.484
145.007
142.877
139.86
135.597
129.496
120.498
106.857
87.0434
58.2221
141.869
141.92
142.05
142.262
142.538
142.862
143.224
143.616
144.027
144.444
144.85
145.231
145.564
145.829
145.998
146.039
145.917
145.584
144.986
144.051
142.688
140.777
138.151
134.579
129.729
123.139
114.199
102.275
87.884
70.9024
141.067
141.107
141.213
141.388
141.615
141.879
142.169
142.477
142.791
143.098
143.381
143.623
143.803
143.898
143.879
143.713
143.362
142.777
141.901
140.661
138.964
136.694
133.696
129.772
124.669
118.09
109.73
99.2518
86.5914
71.2565
140.226
140.256
140.336
140.474
140.651
140.854
141.072
141.295
141.512
141.709
141.869
141.974
142.003
141.932
141.731
141.367
140.799
139.981
138.853
137.346
135.373
132.827
129.577
125.464
120.305
113.898
106.036
96.4745
85.0505
71.9609
139.348
139.367
139.423
139.522
139.65
139.792
139.936
140.075
140.196
140.284
140.323
140.294
140.177
139.945
139.571
139.02
138.254
137.224
135.878
134.148
131.958
129.215
125.814
121.632
116.537
110.394
103.076
94.4835
84.6114
73.8679
138.436
138.445
138.475
138.536
138.615
138.695
138.768
138.823
138.849
138.83
138.752
138.594
138.336
137.953
137.417
136.695
135.749
134.535
133.004
131.097
128.747
125.878
122.408
118.249
113.311
107.515
100.806
93.1706
84.6569
75.5996
137.493
137.491
137.496
137.52
137.549
137.57
137.572
137.545
137.478
137.357
137.166
136.885
136.495
135.97
135.286
134.409
133.306
131.936
130.255
128.213
125.755
122.821
119.351
115.283
110.563
105.152
99.0338
92.2302
84.7926
76.9949
136.523
136.51
136.491
136.477
136.459
136.421
136.353
136.248
136.092
135.873
135.574
135.177
134.664
134.01
133.192
132.179
130.941
129.443
127.646
125.509
122.988
120.039
116.618
112.687
108.217
103.191
97.6168
91.5283
84.9804
78.203
135.529
135.506
135.462
135.413
135.348
135.253
135.119
134.938
134.697
134.385
133.985
133.482
132.856
132.086
131.149
130.02
128.67
127.07
125.188
122.991
120.445
117.519
114.184
110.418
106.207
101.552
96.4718
91.0054
85.2069
79.2632
134.516
134.483
134.417
134.332
134.222
134.073
133.876
133.622
133.302
132.903
132.41
131.809
131.081
130.208
129.17
127.942
126.503
124.826
122.887
120.659
118.119
115.244
112.019
108.431
104.479
100.173
95.5368
90.6097
85.4405
80.1791
133.489
133.446
133.358
133.241
133.088
132.887
132.63
132.309
131.914
131.435
130.858
130.168
129.35
128.388
127.263
125.955
124.446
122.715
120.742
118.509
115.997
113.195
110.093
106.689
102.987
99.0031
94.7621
90.3006
85.6608
80.9636
132.453
132.401
132.292
132.143
131.95
131.701
131.388
131.005
130.542
129.989
129.336
128.568
127.672
126.633
125.437
124.066
122.506
120.74
118.753
116.533
114.068
111.351
108.38
105.157
101.692
98.0014
94.11
90.0504
85.8588
81.6325
131.414
131.354
131.225
131.047
130.816
130.522
130.157
129.717
129.192
128.574
127.852
127.016
126.053
124.951
123.697
122.279
120.683
118.899
116.915
114.723
112.316
109.693
106.855
103.807
100.562
97.1362
93.5529
89.8407
86.0301
82.1998
130.378
130.31
130.163
129.958
129.692
129.356
128.945
128.452
127.872
127.195
126.415
125.52
124.5
123.347
122.049
120.596
118.98
117.19
115.222
113.069
110.729
108.203
105.495
102.613
99.5702
96.3822
93.0701
89.6585
86.173
82.6777
129.351
129.276
129.112
128.882
128.584
128.211
127.757
127.218
126.589
125.862
125.03
124.085
123.02
121.826
120.495
119.02
117.394
115.611
113.667
111.561
109.292
106.863
104.281
101.555
98.6956
95.7199
92.646
89.4948
86.2879
83.0776
128.34
128.258
128.08
127.827
127.5
127.094
126.602
126.022
125.349
124.578
123.704
122.718
121.616
120.392
119.038
117.55
115.923
114.155
112.244
110.189
107.992
105.659
103.196
100.613
97.9208
95.1341
92.2692
89.3439
86.3764
83.4095
127.352
127.264
127.072
126.799
126.447
126.01
125.485
124.87
124.16
123.352
122.442
121.424
120.293
119.046
117.678
116.186
114.567
112.82
110.945
108.943
106.82
104.578
102.227
99.7742
97.2321
94.613
91.9312
89.202
86.4407
83.6825
126.394
126.301
126.097
125.806
125.431
124.968
124.414
123.768
123.027
122.189
121.249
120.205
119.054
117.792
116.416
114.926
113.32
111.599
109.763
107.817
105.763
103.608
101.359
99.0262
96.6183
94.1474
91.626
89.067
86.4836
83.9047
125.473
125.376
125.161
124.854
124.46
123.974
123.396
122.724
121.957
121.093
120.131
119.067
117.901
116.63
115.253
113.77
112.182
110.489
108.694
106.8
104.814
102.739
100.585
98.3593
96.071
93.7307
91.3493
88.9381
86.5081
84.0834
124.597
124.496
124.272
123.951
123.54
123.035
122.436
121.742
120.954
120.07
119.09
118.013
116.837
115.562
114.188
112.716
111.148
109.485
107.73
105.888
103.964
101.965
99.8957
97.7658
95.5835
93.3578
91.0985
88.8151
86.5174
84.2252
123.774
123.669
123.438
123.105
122.679
122.158
121.541
120.83
120.025
119.126
118.132
117.045
115.864
114.589
113.222
111.764
110.217
108.583
106.868
105.075
103.209
101.277
99.2846
97.2401
95.1509
93.0254
90.8718
88.6989
86.5148
84.3363
123.011
122.904
122.665
122.323
121.884
121.35
120.719
119.993
119.175
118.264
117.261
116.168
114.985
113.713
112.354
110.911
109.386
107.782
106.104
104.355
102.542
100.671
98.7468
96.7774
94.7695
92.7307
90.6684
88.5902
86.5034
84.4218
122.318
122.208
121.963
121.612
121.163
120.617
119.975
119.238
118.409
117.49
116.481
115.385
114.202
112.935
111.587
110.159
108.655
107.079
105.435
103.727
101.962
100.144
98.2794
96.3752
94.4376
92.4732
90.489
88.4915
86.4872
84.4878
121.702
121.589
121.339
120.98
120.522
119.967
119.315
118.57
117.733
116.808
115.795
114.698
113.518
112.257
110.919
109.506
108.022
106.472
104.858
103.187
101.463
99.6915
97.8787
96.0303
94.1524
92.2511
90.3325
88.4028
86.4676
84.5367
121.172
121.057
120.802
120.435
119.97
119.407
118.748
117.997
117.155
116.225
115.211
114.114
112.937
111.683
110.355
108.956
107.491
105.963
104.376
102.736
101.047
99.3158
97.5464
95.7448
93.9166
92.0677
90.2036
88.3299
86.4519
84.5777
120.74
120.621
120.358
119.984
119.512
118.943
118.278
117.521
116.675
115.743
114.728
113.632
112.459
111.212
109.893
108.507
107.057
105.548
103.984
102.37
100.711
99.0115
97.2772
95.5133
93.7251
91.918
90.0972
88.2677
86.4347
84.6044
120.416
120.29
120.018
119.637
119.161
118.587
117.918
117.158
116.309
115.376
114.36
113.266
112.097
110.855
109.544
108.168
106.732
105.238
103.692
102.099
100.462
98.7885
97.0817
95.3471
93.59
91.8154
90.0282
88.2333
86.4355
84.6404
120.219
120.065
119.776
119.389
118.91
118.334
117.663
116.9
116.051
115.117
114.103
113.01
111.844
110.607
109.302
107.934
106.506
105.024
103.49
101.911
100.29
98.6334
96.945
95.23
93.4933
91.74
89.9746
88.2019
86.4263
84.6523
120.19
119.984
119.669
119.275
118.792
118.212
117.538
116.773
115.923
114.989
113.975
112.885
111.721
110.487
109.187
107.824
106.403
104.928
103.404
101.834
100.224
98.5777
96.9011
95.1985
93.4748
91.7346
89.9828
88.2237
86.4618
84.7009
-45.4356
-26.0536
-8.16237
38.557
31.2755
19.0289
53.2139
41.2298
30.164
54.9272
44.614
36.6211
59.3711
51.1521
44.4217
63.7733
56.9038
51.029
67.07
61.2118
56.1678
69.6907
64.678
60.3667
71.8987
67.5718
63.8572
73.7616
69.9843
66.7501
75.3274
71.9962
69.1515
76.6457
73.6808
71.1545
77.7574
75.0961
72.8322
78.695
76.2876
74.242
79.4854
77.2921
75.4299
80.1506
78.1394
76.4323
80.7092
78.8536
77.2785
81.1768
79.4548
77.9926
81.5664
79.9595
78.5941
81.8895
80.3819
79.0996
82.1557
80.7337
79.5228
82.3739
81.0257
79.8759
82.551
81.266
80.1684
82.6952
81.4639
80.4104
82.8091
81.6229
80.6065
82.9048
81.7559
80.7695
82.9735
81.8544
80.8926
83.0445
81.9481
81.0035
83.0768
81.9967
81.0661
83.1468
82.0806
81.1564
0.543956
1.09212
2.4513
3.33132
3.22772
3.23332
3.26679
3.16064
3.07888
3.03073
2.95648
2.85274
2.76235
2.69887
2.64023
2.5629
2.46561
2.3577
2.24529
2.12716
1.99762
1.85211
1.69
1.51252
1.31956
1.10658
0.864001
0.589294
0.314894
0.0981521
5.84744
3.12244
4.25623
3.74565
2.62292
2.97418
3.43106
3.16643
3.0199
3.03368
2.99614
2.86279
2.75871
2.71632
2.68627
2.61672
2.51212
2.39598
2.28061
2.16368
2.03493
1.88702
1.72076
1.53982
1.34509
1.13139
0.887027
0.606393
0.322041
0.0994148
16.236
8.27499
5.5341
3.53298
3.22042
4.25853
4.03914
2.86269
2.66067
3.04183
3.14781
2.89524
2.72944
2.71704
2.74569
2.68626
2.56342
2.4329
2.3152
2.20368
2.07899
1.92848
1.75635
1.57113
1.37507
1.16191
0.917438
0.631708
0.334799
0.102007
25.8279
16.2445
10.6662
7.15736
5.3749
4.66708
3.55342
2.9186
3.1928
3.73056
3.46384
2.74681
2.49292
2.64041
2.85285
2.8039
2.63035
2.47055
2.34986
2.24981
2.13392
1.97876
1.7968
1.60606
1.40985
1.19934
0.956937
0.667813
0.356034
0.106525
34.9948
25.3713
18.2363
13.0626
9.46747
7.05941
5.28723
4.23379
3.82412
3.62604
3.22899
2.79564
2.68215
3.00135
3.17807
2.93946
2.63164
2.44598
2.35095
2.29266
2.2028
2.04017
1.84178
1.64469
1.45076
1.24538
1.00627
0.715878
0.391217
0.113917
42.9468
34.069
26.2749
19.9211
15.059
11.4728
8.82416
6.91184
5.60876
4.7085
3.99555
3.42917
3.12701
3.12332
3.09019
2.94363
2.7518
2.60561
2.51414
2.44978
2.32693
2.11181
1.8792
1.67678
1.49198
1.29784
1.06506
0.778933
0.45696
0.125884
49.4516
41.648
33.9118
27.0624
21.4728
17.0403
13.5316
10.7826
8.69329
7.12586
5.90854
4.95237
4.28228
3.88239
3.59397
3.3181
3.04038
2.8091
2.64264
2.51374
2.36127
2.16255
1.9509
1.75823
1.57783
1.38285
1.14673
0.860653
0.551146
0.146438
54.7669
48.0182
40.7636
33.938
28.0605
23.1225
18.9911
15.5758
12.8096
10.5944
8.80979
7.37606
6.27041
5.45404
4.82425
4.28569
3.80758
3.40801
3.09236
2.833
2.58636
2.33118
2.08083
1.85536
1.65117
1.44396
1.20502
0.914977
0.594885
0.0620356
59.1099
53.2695
46.6671
40.1735
34.3396
29.2182
24.7434
20.8776
17.5909
14.8293
12.5208
10.6042
9.03978
7.78169
6.75601
5.88962
5.14547
4.5162
3.99251
3.54839
3.15032
2.77792
2.43314
2.12475
1.847
1.57724
1.28682
0.950346
0.551417
-0.167911
62.6566
57.5652
51.6351
45.6174
40.0341
34.9655
30.3818
26.2779
22.6555
19.4972
16.7663
14.4226
12.4298
10.7478
9.32407
8.10479
7.05223
6.14561
5.36731
4.69333
4.09642
3.55699
3.06861
2.62991
2.23115
1.85028
1.45805
1.02088
0.491466
-0.37951
65.5704
61.0887
55.7784
50.272
45.039
40.1656
35.6387
31.4696
27.68
24.2756
21.2448
18.5665
16.2164
14.1658
12.3787
10.8162
9.4453
8.242
7.18596
6.25507
5.42611
4.68003
4.00516
3.39303
2.83046
2.29537
1.75779
1.1792
0.505382
-0.463978
67.9834
63.9995
59.2313
54.2129
49.3585
44.7498
40.3798
36.2655
32.4372
28.9141
25.7001
22.789
20.1691
17.8234
15.7291
13.8595
12.1892
10.6967
9.36246
8.1667
7.08937
6.11249
5.22187
4.40501
3.64644
2.92427
2.20944
1.46471
0.644154
-0.39934
69.9953
66.4213
62.1173
57.5393
53.0526
48.7307
44.5672
40.5791
36.7987
33.2512
29.9493
26.8969
24.092
21.5272
19.19
17.064
15.1317
13.3759
11.7802
10.328
9.00214
7.78648
6.66631
5.62748
4.65369
3.72408
2.81235
1.88672
0.913801
-0.207575
71.6816
68.4486
64.5394
60.349
56.2012
52.161
48.2206
44.3945
40.7134
37.2041
33.8838
30.762
27.8433
25.1274
22.6094
20.2809
18.1309
16.1476
14.3183
12.6297
11.068
9.61907
8.2691
7.00399
5.80792
4.66193
3.54349
2.42747
1.29162
0.0717414
73.1006
70.1535
66.5805
62.7275
58.884
55.1073
51.3877
47.7363
44.1808
40.7473
37.4544
34.3147
31.3366
28.5245
25.879
23.3972
21.0736
18.9009
16.8703
14.972
13.1949
11.5275
9.95747
8.47184
7.05612
5.69371
4.36595
3.05359
1.74217
0.395902
74.2976
71.592
68.3059
64.7456
61.1718
57.6351
54.1244
50.6471
47.2275
43.8897
40.6524
37.5291
34.5304
31.6635
28.9326
26.3389
23.8807
21.5544
19.3547
17.2748
15.3064
13.4402
11.6659
9.97206
8.34594
6.77327
5.23868
3.72723
2.22877
0.728081
75.3087
72.8079
69.7677
66.4609
63.1245
59.8036
56.4854
53.1744
49.8913
46.658
43.4918
40.4067
37.4138
34.522
31.7376
29.0645
26.504
24.0553
21.7157
19.4812
17.3457
15.3022
13.3422
11.4559
9.63241
7.85945
6.12409
4.41402
2.72057
1.04219
76.1629
73.8364
71.0071
67.9202
64.7919
61.6631
58.5199
55.3639
52.2125
49.0851
45.9978
42.9635
39.9937
37.0979
34.2837
31.5564
28.9195
26.3742
23.9202
21.5551
19.2754
17.0755
14.9488
12.8871
10.881
8.9199
6.99236
5.0873
3.19563
1.3238
76.8839
74.7061
72.0581
69.1616
66.2154
63.2566
60.2706
57.2566
54.229
51.2049
48.1986
45.2221
42.2862
39.4007
36.5736
33.8114
31.1186
28.498
25.9508
23.4765
21.0729
18.7363
16.4613
14.2412
12.0678
9.9317
7.82233
5.72888
3.64078
1.56815
77.4914
75.4403
72.9482
70.2166
67.4292
64.6201
61.7742
58.8887
55.9754
53.0492
50.1226
47.2065
44.3109
41.4452
38.6175
35.8347
33.102
30.4234
27.801
25.2357
22.7265
20.2709
17.8649
15.5028
13.1774
10.88
8.60053
6.3279
4.04972
1.77693
78.0016
76.0585
73.7003
71.1113
68.4619
65.7839
63.0618
60.2914
57.4821
54.6468
51.7963
48.9404
46.088
43.2479
40.4281
37.6353
34.8754
32.1526
29.4701
26.8295
24.2307
21.6724
19.1513
16.6628
14.2003
11.7556
9.31891
6.87849
4.42037
1.95462
78.4287
76.5774
74.3339
71.8676
69.3376
66.7737
64.1602
61.4918
58.7759
56.0235
53.244
50.4459
47.6372
44.8259
42.0194
39.2245
36.4469
33.6912
30.961
28.2585
25.5844
22.9378
20.3166
17.7164
15.1314
12.5537
9.97339
7.37832
4.7532
2.10639
78.7841
77.0105
74.8646
72.5034
70.076
67.6106
65.0916
62.5126
59.8794
57.2013
54.4866
51.7425
48.9761
46.1945
43.4047
40.6129
37.8248
35.0452
32.2776
29.5247
26.7876
24.0661
21.3582
18.6604
15.9671
13.2707
10.5611
7.82577
5.04858
2.23578
79.0787
77.3704
75.3072
73.0351
70.6952
68.3139
65.8761
63.3744
60.8133
58.2009
55.5441
52.8491
50.1222
47.3697
44.5979
41.8127
39.0193
36.2226
33.426
30.6325
27.8434
25.0587
22.2771
19.495
16.7073
13.9063
11.0822
8.22191
5.30881
2.34664
79.3191
77.6648
75.6707
73.4734
71.2067
68.8964
66.5272
64.0912
61.5919
59.0361
56.4298
53.7784
51.0871
48.3617
45.6078
42.8309
40.0358
37.2272
34.4085
31.5826
28.7511
25.914
23.0702
20.2166
17.3479
14.4568
11.5331
8.56374
5.53181
2.43852
79.5172
77.9069
75.9695
73.8336
71.6273
69.3753
67.063
64.6817
62.234
59.7258
57.1623
54.5482
51.888
49.1868
46.4496
43.6815
40.887
38.0703
35.2351
32.3839
29.5183
26.6386
23.7437
20.8306
17.8942
14.927
11.919
8.85677
5.72336
2.51667
79.6698
78.0942
76.2016
74.1144
71.956
69.7506
67.4836
65.146
62.7398
60.2701
57.7415
55.1579
52.5234
49.8425
47.1198
44.3598
41.5669
38.745
35.8975
33.0269
30.1348
27.2215
24.2859
21.3251
18.3339
15.305
12.2281
9.08983
5.87327
2.57385
79.7998
78.2496
76.3911
74.3409
72.2188
70.0485
67.8159
65.5116
63.137
60.6967
58.1948
55.6348
53.0203
50.3553
47.6441
44.891
42.0999
39.2745
36.4182
33.5333
30.6214
27.6827
24.7162
21.7187
18.6855
15.6088
12.4784
9.28064
5.99839
2.62303
79.8794
78.3453
76.509
74.4839
72.3863
70.2395
68.0298
65.7479
63.3945
60.9739
58.49
55.9459
53.345
50.6909
47.9876
45.2392
42.4496
39.6222
36.7602
33.8659
30.9408
27.9852
24.9979
21.9758
18.914
15.8047
12.6375
9.39837
6.07009
2.64225
79.969
78.4358
76.6118
74.6019
72.518
70.384
68.1864
65.9163
63.574
61.1636
58.6888
56.1525
53.558
50.9089
48.2089
45.4621
42.6722
39.8426
36.9764
34.076
31.1428
28.1771
25.1776
22.1413
19.0633
15.9358
12.7476
9.48408
6.12529
2.64863
)
;

boundaryField
{
    inlet
    {
        type            zeroGradient;
    }
    outlet
    {
        type            fixedValue;
        value           uniform 0;
    }
    flap
    {
        type            zeroGradient;
    }
    upperWall
    {
        type            zeroGradient;
    }
    lowerWall
    {
        type            zeroGradient;
    }
    frontAndBack
    {
        type            empty;
    }
}


// ************************************************************************* //
