/*--------------------------------*- C++ -*----------------------------------*\
| =========                 |                                                 |
| \\      /  F ield         | OpenFOAM: The Open Source CFD Toolbox           |
|  \\    /   O peration     | Version:  dev                                   |
|   \\  /    A nd           | Web:      www.OpenFOAM.org                      |
|    \\/     M anipulation  |                                                 |
\*---------------------------------------------------------------------------*/
FoamFile
{
    version     2.0;
    format      ascii;
    class       pointVectorField;
    location    "0.06";
    object      pointDisplacement;
}
// * * * * * * * * * * * * * * * * * * * * * * * * * * * * * * * * * * * * * //

dimensions      [0 1 0 0 0 0 0];

internalField   nonuniform List<vector> 
1034
(
(0 0 0)
(0.000120121 0 2.52508e-05)
(0.00023011 0 4.86952e-05)
(0 0 0)
(0.000120121 0 2.52508e-05)
(0.00023011 0 4.86952e-05)
(0 0 0)
(0.000120296 0 2.64035e-05)
(0.000230487 0 5.09139e-05)
(0.000328466 0 7.33147e-05)
(0 0 0)
(0.00012041 0 2.74808e-05)
(0.000230751 0 5.29886e-05)
(0.000328938 0 7.62919e-05)
(0.000416312 0 9.78623e-05)
(0 0 0)
(0.000120447 0 2.84694e-05)
(0.000230875 0 5.48939e-05)
(0.000329217 0 7.90276e-05)
(0.000416818 0 0.000101351)
(0.000494876 0 0.000122251)
(0 0 0)
(0.000120396 0 2.93607e-05)
(0.000230832 0 5.66126e-05)
(0.000329266 0 8.14968e-05)
(0.00041704 0 0.0001045)
(0.000495346 0 0.000126014)
(0.000565256 0 0.000146355)
(0 0 0)
(0.000120243 0 3.01463e-05)
(0.000230601 0 5.81291e-05)
(0.00032905 0 8.36763e-05)
(0.000416931 0 0.00010728)
(0.000495428 0 0.000129334)
(0.0005656 0 0.000150154)
(0.000628403 0 0.000169998)
(0 0 0)
(0.000119977 0 3.08183e-05)
(0.000230158 0 5.94281e-05)
(0.000328541 0 8.55451e-05)
(0.000416453 0 0.000109663)
(0.000495071 0 0.000132177)
(0.000565441 0 0.000153402)
(0.000628501 0 0.000173594)
(0.000685095 0 0.000192953)
(0.000736026 0 0.000211652)
(0 0 0)
(0.000119589 0 3.1369e-05)
(0.000229487 0 6.04953e-05)
(0.00032771 0 8.70827e-05)
(0.000415572 0 0.000111624)
(0.000494234 0 0.000134512)
(0.000564727 0 0.000156063)
(0.000627975 0 0.000176528)
(0.000684801 0 0.000196104)
(0.000736 0 0.000214966)
(0.0007823 0 0.000233259)
(0 0 0)
(0.000119069 0 3.17918e-05)
(0.000228567 0 6.13181e-05)
(0.000326532 0 8.82718e-05)
(0.000414255 0 0.00011314)
(0.000492879 0 0.000136315)
(0.000563418 0 0.000158108)
(0.000626781 0 0.000178768)
(0.000683779 0 0.000198493)
(0.000735179 0 0.000217449)
(0.000781672 0 0.000235768)
(0.000823818 0 0.000253525)
(0.000862119 0 0.000270776)
(0 0 0)
(0.000118409 0 3.20808e-05)
(0.000227386 0 6.18851e-05)
(0.000324986 0 8.9096e-05)
(0.000412476 0 0.000114193)
(0.000490974 0 0.000137562)
(0.000561475 0 0.00015951)
(0.000624871 0 0.000180284)
(0.000681962 0 0.000200078)
(0.000733479 0 0.00021905)
(0.000780075 0 0.000237318)
(0.000822312 0 0.000254959)
(0.000860689 0 0.000272031)
(0.000895659 0 0.000288568)
(0.000927623 0 0.00030459)
(0 0 0)
(0.000117607 0 3.22293e-05)
(0.000225933 0 6.21836e-05)
(0.000323059 0 8.95371e-05)
(0.000410216 0 0.000114759)
(0.000488497 0 0.000138226)
(0.000558874 0 0.000160241)
(0.000622216 0 0.000181043)
(0.000679306 0 0.000200823)
(0.000730847 0 0.000219731)
(0.000777466 0 0.000237877)
(0.000819716 0 0.000255339)
(0.000858082 0 0.00027217)
(0.000893 0 0.0002884)
(0.000924853 0 0.000304042)
(0.000953972 0 0.000319095)
(0 0 0)
(0.000116658 0 3.22314e-05)
(0.000224204 0 6.22017e-05)
(0.000320741 0 8.95785e-05)
(0.000407465 0 0.000114817)
(0.000485436 0 0.000138284)
(0.000555599 0 0.000160274)
(0.000618801 0 0.000181019)
(0.000675801 0 0.000200704)
(0.000727279 0 0.000219472)
(0.000773842 0 0.000237428)
(0.000816026 0 0.000254648)
(0.000854305 0 0.000271182)
(0.000889099 0 0.000287057)
(0.000920773 0 0.000302281)
(0.000949647 0 0.00031685)
(0.000975993 0 0.000330743)
(0.00100003 0 0.000343924)
(0 0 0)
(0.000115561 0 3.20823e-05)
(0.000222196 0 6.19305e-05)
(0.000318031 0 8.92071e-05)
(0.000404218 0 0.000114351)
(0.000481785 0 0.000137717)
(0.000551647 0 0.000159589)
(0.000614624 0 0.000180191)
(0.000671451 0 0.000199702)
(0.000722786 0 0.000218257)
(0.000769217 0 0.000235959)
(0.000811263 0 0.000252878)
(0.000849386 0 0.000269063)
(0.000883991 0 0.000284539)
(0.000915434 0 0.000299314)
(0.000944021 0 0.000313381)
(0.000970016 0 0.000326721)
(0.000993641 0 0.000339301)
(0.00101508 0 0.000351082)
(0.00103447 0 0.000362017)
(0 0 0)
(0.000114318 0 3.17781e-05)
(0.000219911 0 6.13621e-05)
(0.000314929 0 8.84116e-05)
(0.00040048 0 0.000113347)
(0.00047755 0 0.000136508)
(0.000547024 0 0.000158168)
(0.000609694 0 0.000178541)
(0.00066627 0 0.000197799)
(0.000717389 0 0.000216072)
(0.000763619 0 0.000233456)
(0.000805464 0 0.000250021)
(0.000843371 0 0.00026581)
(0.000877735 0 0.00028085)
(0.000908901 0 0.000295148)
(0.000937169 0 0.000308698)
(0.000962797 0 0.000321484)
(0.000986002 0 0.000333479)
(0.00100697 0 0.000344648)
(0.00102585 0 0.000354955)
(0.00104278 0 0.000364361)
(0.00105786 0 0.000372833)
(0 0 0)
(0.000112934 0 3.13153e-05)
(0.000217358 0 6.04897e-05)
(0.000311449 0 8.71822e-05)
(0.000396263 0 0.000111792)
(0.000472747 0 0.000134643)
(0.00054175 0 0.000155994)
(0.000604036 0 0.000176053)
(0.000660289 0 0.000194981)
(0.000711125 0 0.000212903)
(0.000757092 0 0.000229909)
(0.000798679 0 0.000246067)
(0.000836322 0 0.000261419)
(0.000870403 0 0.000275989)
(0.000901259 0 0.000289787)
(0.000929184 0 0.000302809)
(0.000954432 0 0.000315042)
(0.000977222 0 0.000326465)
(0.000997739 0 0.000337051)
(0.00101614 0 0.00034677)
(0.00103256 0 0.000355596)
(0.00104713 0 0.00036351)
(0 0 0)
(0.000111415 0 3.06915e-05)
(0.000214549 0 5.93079e-05)
(0.000307607 0 8.55102e-05)
(0.000391591 0 0.000109675)
(0.000467403 0 0.000132107)
(0.000535858 0 0.000153054)
(0.000597688 0 0.000172711)
(0.000653552 0 0.000191232)
(0.000704044 0 0.000208734)
(0.000749694 0 0.000225304)
(0.000790977 0 0.000241005)
(0.000828314 0 0.00025588)
(0.000862079 0 0.000269951)
(0.000892602 0 0.000283229)
(0.00092017 0 0.000295715)
(0.000945036 0 0.000307397)
(0.000967419 0 0.00031826)
(0.000987507 0 0.000328285)
(0.00100546 0 0.000337452)
(0.00102143 0 0.000345743)
(0.00103554 0 0.000353151)
(0 0 0)
(0.000109773 0 2.99042e-05)
(0.000211505 0 5.78118e-05)
(0.000303431 0 8.33879e-05)
(0.000386496 0 0.000106985)
(0.000461558 0 0.000128889)
(0.000529393 0 0.000149333)
(0.000590702 0 0.0001685)
(0.000646118 0 0.000186535)
(0.000696214 0 0.000203548)
(0.000741501 0 0.000219624)
(0.000782439 0 0.000234821)
(0.000819438 0 0.000249179)
(0.000852863 0 0.000262723)
(0.000883036 0 0.000275463)
(0.000910241 0 0.000287403)
(0.00093473 0 0.000298536)
(0.00095672 0 0.000308853)
(0.000976402 0 0.000318339)
(0.000993943 0 0.000326981)
(0.0010095 0 0.000334776)
(0 0 0)
(0.00010802 0 2.89518e-05)
(0.00020825 0 5.59971e-05)
(0.000298955 0 8.08084e-05)
(0.000381022 0 0.000103712)
(0.000455263 0 0.000124976)
(0.000522413 0 0.000144815)
(0.000583144 0 0.000163401)
(0.000638061 0 0.000180871)
(0.000687715 0 0.000197328)
(0.0007326 0 0.00021285)
(0.000773162 0 0.000227493)
(0.000809798 0 0.000241296)
(0.000842866 0 0.000254283)
(0.00087268 0 0.000266467)
(0.000899523 0 0.000277853)
(0.000923642 0 0.000288437)
(0.000945257 0 0.000298216)
(0.00096456 0 0.00030718)
(0.000981722 0 0.000315323)
(0.000996908 0 0.000322649)
(0 0 0)
(0.000106174 0 2.78323e-05)
(0.000204814 0 5.38597e-05)
(0.000294221 0 7.77645e-05)
(0.000375223 0 9.98471e-05)
(0.00044858 0 0.000120354)
(0.000514992 0 0.000139484)
(0.000575094 0 0.000157398)
(0.00062947 0 0.00017422)
(0.000678645 0 0.000190049)
(0.000723097 0 0.000204956)
(0.000763258 0 0.000218995)
(0.000799514 0 0.000232203)
(0.000832214 0 0.000244603)
(0.000861667 0 0.000256209)
(0.000888152 0 0.000267027)
(0.000911914 0 0.00027706)
(0.000933173 0 0.000286305)
(0.000952123 0 0.00029476)
(0.000968939 0 0.000302421)
(0.000983788 0 0.000309298)
(0 0 0)
(0.000104253 0 2.6544e-05)
(0.000201236 0 5.13951e-05)
(0.000289283 0 7.42487e-05)
(0.000369162 0 9.5378e-05)
(0.000441586 0 0.000115008)
(0.000507213 0 0.000133322)
(0.000566649 0 0.000150467)
(0.000620447 0 0.000166557)
(0.000669115 0 0.000181683)
(0.000713112 0 0.000195911)
(0.000752855 0 0.000209292)
(0.000788721 0 0.00022186)
(0.000821048 0 0.000233638)
(0.000850143 0 0.000244642)
(0.000876278 0 0.000254878)
(0.000899698 0 0.000264351)
(0.000920622 0 0.000273061)
(0.000939246 0 0.000281011)
(0.000955744 0 0.000288201)
(0.000970291 0 0.000294644)
(0 0 0)
(0.000102281 0 2.50848e-05)
(0.000197557 0 4.85984e-05)
(0.000284198 0 7.02521e-05)
(0.000362913 0 9.02921e-05)
(0.000434366 0 0.000108922)
(0.000499177 0 0.000126307)
(0.000557917 0 0.000142581)
(0.000611115 0 0.00015785)
(0.000659256 0 0.000172193)
(0.000702783 0 0.000185675)
(0.000742098 0 0.000198339)
(0.000777569 0 0.000210219)
(0.000809526 0 0.000221337)
(0.000838268 0 0.000231707)
(0.000864066 0 0.000241338)
(0.000887162 0 0.000250237)
(0.000907772 0 0.000258406)
(0.000926095 0 0.00026585)
(0.000942305 0 0.000272572)
(0.00095658 0 0.000278588)
(0 0 0)
(0.000100282 0 2.34519e-05)
(0.000193825 0 4.54633e-05)
(0.000279035 0 6.57643e-05)
(0.000356562 0 8.45738e-05)
(0.000427023 0 0.000102074)
(0.000490997 0 0.000118413)
(0.000549025 0 0.00013371)
(0.000601609 0 0.00014806)
(0.000649213 0 0.000161537)
(0.000692263 0 0.000174197)
(0.000731149 0 0.00018608)
(0.000766227 0 0.000197217)
(0.00079782 0 0.000207628)
(0.000826222 0 0.000217328)
(0.000851697 0 0.000226326)
(0.000874487 0 0.000234629)
(0.000894807 0 0.000242242)
(0.000912853 0 0.00024917)
(0.000928803 0 0.000255419)
(0.000942835 0 0.000261008)
(0 0 0)
(9.82861e-05 0 2.16419e-05)
(0.000190096 0 4.19821e-05)
(0.000273872 0 6.0772e-05)
(0.000350207 0 7.82041e-05)
(0.00041967 0 9.44383e-05)
(0.000482803 0 0.000109606)
(0.000540115 0 0.000123813)
(0.000592082 0 0.000137142)
(0.00063915 0 0.000149659)
(0.000681726 0 0.000161415)
(0.000720189 0 0.000172444)
(0.000754883 0 0.000182775)
(0.000786124 0 0.000192427)
(0.000814199 0 0.000201411)
(0.000839371 0 0.000209739)
(0.000861876 0 0.000217416)
(0.000881929 0 0.00022445)
(0.000899724 0 0.000230844)
(0.000915439 0 0.000236608)
(0.000929256 0 0.00024176)
(0 0 0)
(9.63254e-05 0 1.96502e-05)
(0.000186431 0 3.81447e-05)
(0.000268796 0 5.52591e-05)
(0.000343956 0 7.11594e-05)
(0.000412437 0 8.59843e-05)
(0.00047474 0 9.98477e-05)
(0.000531347 0 0.000112841)
(0.00058271 0 0.000125038)
(0.000629252 0 0.000136494)
(0.000671367 0 0.000147253)
(0.000709419 0 0.000157348)
(0.000743744 0 0.0001668)
(0.000774651 0 0.000175628)
(0.00080242 0 0.000183842)
(0.000827309 0 0.000191452)
(0.000849552 0 0.000198464)
(0.000869362 0 0.000204884)
(0.000886932 0 0.000210719)
(0.000902438 0 0.000215975)
(0.000916064 0 0.000220672)
(0 0 0)
(9.4436e-05 0 1.74711e-05)
(0.0001829 0 3.39387e-05)
(0.000263905 0 4.92053e-05)
(0.000337934 0 6.34112e-05)
(0.000405467 0 7.6674e-05)
(0.000466973 0 8.90903e-05)
(0.000522902 0 0.000100738)
(0.000573685 0 0.000111679)
(0.000619724 0 0.000121962)
(0.0006614 0 0.000131622)
(0.000699065 0 0.000140687)
(0.000733045 0 0.000149177)
(0.00076364 0 0.000157105)
(0.000791126 0 0.000164482)
(0.000815757 0 0.000171316)
(0.000837763 0 0.000177611)
(0.000857355 0 0.000183374)
(0.000874725 0 0.00018861)
(0.000890048 0 0.000193326)
(0.000903508 0 0.000197541)
(0 0 0)
(9.26591e-05 0 1.50971e-05)
(0.00017958 0 2.93487e-05)
(0.000259309 0 4.25861e-05)
(0.000332278 0 5.49249e-05)
(0.000398926 0 6.64619e-05)
(0.000459686 0 7.72767e-05)
(0.000514983 0 8.74337e-05)
(0.000565225 0 9.69838e-05)
(0.000610799 0 0.000105966)
(0.000652069 0 0.000114411)
(0.000689378 0 0.00012234)
(0.000723042 0 0.000129768)
(0.000753355 0 0.000136708)
(0.000780587 0 0.000143167)
(0.000804988 0 0.000149151)
(0.000826785 0 0.000154665)
(0.000846186 0 0.000159713)
(0.000863382 0 0.0001643)
(0.000878547 0 0.000168432)
(0.000891866 0 0.000172126)
(0 0 0)
(9.10412e-05 0 1.25193e-05)
(0.000176562 0 2.43559e-05)
(0.000255137 0 3.53722e-05)
(0.000327149 0 4.56593e-05)
(0.000392998 0 5.52941e-05)
(0.000453088 0 6.43395e-05)
(0.000507818 0 7.28464e-05)
(0.000557577 0 8.08548e-05)
(0.000602735 0 8.83955e-05)
(0.000643645 0 9.54917e-05)
(0.000680639 0 0.00010216)
(0.000714025 0 0.000108413)
(0.000744091 0 0.000114258)
(0.000771104 0 0.000119701)
(0.000795306 0 0.000124747)
(0.000816924 0 0.000129398)
(0.000836164 0 0.000133659)
(0.000853214 0 0.000137532)
(0.000868247 0 0.000141022)
(0.000881448 0 0.000144144)
(0 0 0)
(8.96372e-05 0 9.72715e-06)
(0.000173949 0 1.89385e-05)
(0.000251534 0 2.7529e-05)
(0.000322728 0 3.55666e-05)
(0.000387898 0 4.3108e-05)
(0.000447418 0 5.02003e-05)
(0.000501668 0 5.68809e-05)
(0.000551017 0 6.31794e-05)
(0.000595825 0 6.91182e-05)
(0.000636433 0 7.4714e-05)
(0.000673163 0 7.99788e-05)
(0.000706318 0 8.49206e-05)
(0.000736181 0 8.9545e-05)
(0.000763012 0 9.38554e-05)
(0.000787053 0 9.78543e-05)
(0.000808526 0 0.000101544)
(0.000827636 0 0.000104925)
(0.000844569 0 0.000108001)
(0.000859496 0 0.000110776)
(0.000872604 0 0.000113258)
(0 0 0)
(8.85133e-05 0 6.70847e-06)
(0.000171866 0 1.30713e-05)
(0.000248673 0 1.90174e-05)
(0.000319231 0 2.45918e-05)
(0.000383872 0 2.98321e-05)
(0.000442951 0 3.47693e-05)
(0.000496829 0 3.94281e-05)
(0.000545863 0 4.38279e-05)
(0.000590401 0 4.7983e-05)
(0.000630777 0 5.1904e-05)
(0.000667306 0 5.55984e-05)
(0.000700286 0 5.90708e-05)
(0.000729995 0 6.23244e-05)
(0.00075669 0 6.53606e-05)
(0.00078061 0 6.81806e-05)
(0.000801975 0 7.0785e-05)
(0.000820989 0 7.31745e-05)
(0.000837836 0 7.53504e-05)
(0.000852687 0 7.73145e-05)
(0.000865727 0 7.90735e-05)
(0 0 0)
(8.77541e-05 0 3.44986e-06)
(0.00017047 0 6.7264e-06)
(0.000246768 0 9.79377e-06)
(0.000316911 0 1.26743e-05)
(0.00038121 0 1.53867e-05)
(0.000440005 0 1.79464e-05)
(0.000493643 0 2.03656e-05)
(0.000542475 0 2.26538e-05)
(0.000586841 0 2.4818e-05)
(0.000627069 0 2.68633e-05)
(0.000663471 0 2.8793e-05)
(0.00069634 0 3.06092e-05)
(0.000725952 0 3.23129e-05)
(0.000752561 0 3.39048e-05)
(0.000776406 0 3.5385e-05)
(0.000797705 0 3.67535e-05)
(0.000816659 0 3.80103e-05)
(0.000833453 0 3.91559e-05)
(0.000848256 0 4.01909e-05)
(0.000861255 0 4.11186e-05)
(0 0 0)
(8.74903e-05 0 0)
(0.000169976 0 0)
(0.000246093 0 0)
(0.000316088 0 0)
(0.000380267 0 0)
(0.000438961 0 0)
(0.000492516 0 0)
(0.000541276 0 0)
(0.000585582 0 0)
(0.000625758 0 0)
(0.000662114 0 0)
(0.000694945 0 0)
(0.000724522 0 0)
(0.000751103 0 0)
(0.000774921 0 0)
(0.000796197 0 0)
(0.00081513 0 0)
(0.000831906 0 0)
(0.000846693 0 0)
(0.000859677 0 0)
(0 0 0)
(0.000120296 0 2.64035e-05)
(0.000230487 0 5.09139e-05)
(0.000328466 0 7.33147e-05)
(0 0 0)
(0.00012041 0 2.74808e-05)
(0.000230751 0 5.29886e-05)
(0.000328938 0 7.62919e-05)
(0.000416312 0 9.78623e-05)
(0 0 0)
(0.000120447 0 2.84694e-05)
(0.000230875 0 5.48939e-05)
(0.000329217 0 7.90276e-05)
(0.000416818 0 0.000101351)
(0.000494876 0 0.000122251)
(0 0 0)
(0.000120396 0 2.93607e-05)
(0.000230832 0 5.66126e-05)
(0.000329266 0 8.14968e-05)
(0.00041704 0 0.0001045)
(0.000495346 0 0.000126014)
(0.000565256 0 0.000146355)
(0 0 0)
(0.000120243 0 3.01463e-05)
(0.000230601 0 5.81291e-05)
(0.00032905 0 8.36763e-05)
(0.000416931 0 0.00010728)
(0.000495428 0 0.000129334)
(0.0005656 0 0.000150154)
(0.000628403 0 0.000169998)
(0 0 0)
(0.000119977 0 3.08183e-05)
(0.000230158 0 5.94281e-05)
(0.000328541 0 8.55451e-05)
(0.000416453 0 0.000109663)
(0.000495071 0 0.000132177)
(0.000565441 0 0.000153402)
(0.000628501 0 0.000173594)
(0.000685095 0 0.000192953)
(0.000736026 0 0.000211652)
(0 0 0)
(0.000119589 0 3.1369e-05)
(0.000229487 0 6.04953e-05)
(0.00032771 0 8.70827e-05)
(0.000415572 0 0.000111624)
(0.000494234 0 0.000134512)
(0.000564727 0 0.000156063)
(0.000627975 0 0.000176528)
(0.000684801 0 0.000196104)
(0.000736 0 0.000214966)
(0.0007823 0 0.000233259)
(0 0 0)
(0.000119069 0 3.17918e-05)
(0.000228567 0 6.13181e-05)
(0.000326532 0 8.82718e-05)
(0.000414255 0 0.00011314)
(0.000492879 0 0.000136315)
(0.000563418 0 0.000158108)
(0.000626781 0 0.000178768)
(0.000683779 0 0.000198493)
(0.000735179 0 0.000217449)
(0.000781672 0 0.000235768)
(0.000823818 0 0.000253525)
(0.000862119 0 0.000270776)
(0 0 0)
(0.000118409 0 3.20808e-05)
(0.000227386 0 6.18851e-05)
(0.000324986 0 8.9096e-05)
(0.000412476 0 0.000114193)
(0.000490974 0 0.000137562)
(0.000561475 0 0.00015951)
(0.000624871 0 0.000180284)
(0.000681962 0 0.000200078)
(0.000733479 0 0.00021905)
(0.000780075 0 0.000237318)
(0.000822312 0 0.000254959)
(0.000860689 0 0.000272031)
(0.000895659 0 0.000288568)
(0.000927623 0 0.00030459)
(0 0 0)
(0.000117607 0 3.22293e-05)
(0.000225933 0 6.21836e-05)
(0.000323059 0 8.95371e-05)
(0.000410216 0 0.000114759)
(0.000488497 0 0.000138226)
(0.000558874 0 0.000160241)
(0.000622216 0 0.000181043)
(0.000679306 0 0.000200823)
(0.000730847 0 0.000219731)
(0.000777466 0 0.000237877)
(0.000819716 0 0.000255339)
(0.000858082 0 0.00027217)
(0.000893 0 0.0002884)
(0.000924853 0 0.000304042)
(0.000953972 0 0.000319095)
(0 0 0)
(0.000116658 0 3.22314e-05)
(0.000224204 0 6.22017e-05)
(0.000320741 0 8.95785e-05)
(0.000407465 0 0.000114817)
(0.000485436 0 0.000138284)
(0.000555599 0 0.000160274)
(0.000618801 0 0.000181019)
(0.000675801 0 0.000200704)
(0.000727279 0 0.000219472)
(0.000773842 0 0.000237428)
(0.000816026 0 0.000254648)
(0.000854305 0 0.000271182)
(0.000889099 0 0.000287057)
(0.000920773 0 0.000302281)
(0.000949647 0 0.00031685)
(0.000975993 0 0.000330743)
(0.00100003 0 0.000343924)
(0 0 0)
(0.000115561 0 3.20823e-05)
(0.000222196 0 6.19305e-05)
(0.000318031 0 8.92071e-05)
(0.000404218 0 0.000114351)
(0.000481785 0 0.000137717)
(0.000551647 0 0.000159589)
(0.000614624 0 0.000180191)
(0.000671451 0 0.000199702)
(0.000722786 0 0.000218257)
(0.000769217 0 0.000235959)
(0.000811263 0 0.000252878)
(0.000849386 0 0.000269063)
(0.000883991 0 0.000284539)
(0.000915434 0 0.000299314)
(0.000944021 0 0.000313381)
(0.000970016 0 0.000326721)
(0.000993641 0 0.000339301)
(0.00101508 0 0.000351082)
(0.00103447 0 0.000362017)
(0 0 0)
(0.000114318 0 3.17781e-05)
(0.000219911 0 6.13621e-05)
(0.000314929 0 8.84116e-05)
(0.00040048 0 0.000113347)
(0.00047755 0 0.000136508)
(0.000547024 0 0.000158168)
(0.000609694 0 0.000178541)
(0.00066627 0 0.000197799)
(0.000717389 0 0.000216072)
(0.000763619 0 0.000233456)
(0.000805464 0 0.000250021)
(0.000843371 0 0.00026581)
(0.000877735 0 0.00028085)
(0.000908901 0 0.000295148)
(0.000937169 0 0.000308698)
(0.000962797 0 0.000321484)
(0.000986002 0 0.000333479)
(0.00100697 0 0.000344648)
(0.00102585 0 0.000354955)
(0.00104278 0 0.000364361)
(0.00105786 0 0.000372833)
(0 0 0)
(0.000112934 0 3.13153e-05)
(0.000217358 0 6.04897e-05)
(0.000311449 0 8.71822e-05)
(0.000396263 0 0.000111792)
(0.000472747 0 0.000134643)
(0.00054175 0 0.000155994)
(0.000604036 0 0.000176053)
(0.000660289 0 0.000194981)
(0.000711125 0 0.000212903)
(0.000757092 0 0.000229909)
(0.000798679 0 0.000246067)
(0.000836322 0 0.000261419)
(0.000870403 0 0.000275989)
(0.000901259 0 0.000289787)
(0.000929184 0 0.000302809)
(0.000954432 0 0.000315042)
(0.000977222 0 0.000326465)
(0.000997739 0 0.000337051)
(0.00101614 0 0.00034677)
(0.00103256 0 0.000355596)
(0.00104713 0 0.00036351)
(0 0 0)
(0.000111415 0 3.06915e-05)
(0.000214549 0 5.93079e-05)
(0.000307607 0 8.55102e-05)
(0.000391591 0 0.000109675)
(0.000467403 0 0.000132107)
(0.000535858 0 0.000153054)
(0.000597688 0 0.000172711)
(0.000653552 0 0.000191232)
(0.000704044 0 0.000208734)
(0.000749694 0 0.000225304)
(0.000790977 0 0.000241005)
(0.000828314 0 0.00025588)
(0.000862079 0 0.000269951)
(0.000892602 0 0.000283229)
(0.00092017 0 0.000295715)
(0.000945036 0 0.000307397)
(0.000967419 0 0.00031826)
(0.000987507 0 0.000328285)
(0.00100546 0 0.000337452)
(0.00102143 0 0.000345743)
(0.00103554 0 0.000353151)
(0 0 0)
(0.000109773 0 2.99042e-05)
(0.000211505 0 5.78118e-05)
(0.000303431 0 8.33879e-05)
(0.000386496 0 0.000106985)
(0.000461558 0 0.000128889)
(0.000529393 0 0.000149333)
(0.000590702 0 0.0001685)
(0.000646118 0 0.000186535)
(0.000696214 0 0.000203548)
(0.000741501 0 0.000219624)
(0.000782439 0 0.000234821)
(0.000819438 0 0.000249179)
(0.000852863 0 0.000262723)
(0.000883036 0 0.000275463)
(0.000910241 0 0.000287403)
(0.00093473 0 0.000298536)
(0.00095672 0 0.000308853)
(0.000976402 0 0.000318339)
(0.000993943 0 0.000326981)
(0.0010095 0 0.000334776)
(0 0 0)
(0.00010802 0 2.89518e-05)
(0.00020825 0 5.59971e-05)
(0.000298955 0 8.08084e-05)
(0.000381022 0 0.000103712)
(0.000455263 0 0.000124976)
(0.000522413 0 0.000144815)
(0.000583144 0 0.000163401)
(0.000638061 0 0.000180871)
(0.000687715 0 0.000197328)
(0.0007326 0 0.00021285)
(0.000773162 0 0.000227493)
(0.000809798 0 0.000241296)
(0.000842866 0 0.000254283)
(0.00087268 0 0.000266467)
(0.000899523 0 0.000277853)
(0.000923642 0 0.000288437)
(0.000945257 0 0.000298216)
(0.00096456 0 0.00030718)
(0.000981722 0 0.000315323)
(0.000996908 0 0.000322649)
(0 0 0)
(0.000106174 0 2.78323e-05)
(0.000204814 0 5.38597e-05)
(0.000294221 0 7.77645e-05)
(0.000375223 0 9.98471e-05)
(0.00044858 0 0.000120354)
(0.000514992 0 0.000139484)
(0.000575094 0 0.000157398)
(0.00062947 0 0.00017422)
(0.000678645 0 0.000190049)
(0.000723097 0 0.000204956)
(0.000763258 0 0.000218995)
(0.000799514 0 0.000232203)
(0.000832214 0 0.000244603)
(0.000861667 0 0.000256209)
(0.000888152 0 0.000267027)
(0.000911914 0 0.00027706)
(0.000933173 0 0.000286305)
(0.000952123 0 0.00029476)
(0.000968939 0 0.000302421)
(0.000983788 0 0.000309298)
(0 0 0)
(0.000104253 0 2.6544e-05)
(0.000201236 0 5.13951e-05)
(0.000289283 0 7.42487e-05)
(0.000369162 0 9.5378e-05)
(0.000441586 0 0.000115008)
(0.000507213 0 0.000133322)
(0.000566649 0 0.000150467)
(0.000620447 0 0.000166557)
(0.000669115 0 0.000181683)
(0.000713112 0 0.000195911)
(0.000752855 0 0.000209292)
(0.000788721 0 0.00022186)
(0.000821048 0 0.000233638)
(0.000850143 0 0.000244642)
(0.000876278 0 0.000254878)
(0.000899698 0 0.000264351)
(0.000920622 0 0.000273061)
(0.000939246 0 0.000281011)
(0.000955744 0 0.000288201)
(0.000970291 0 0.000294644)
(0 0 0)
(0.000102281 0 2.50848e-05)
(0.000197557 0 4.85984e-05)
(0.000284198 0 7.02521e-05)
(0.000362913 0 9.02921e-05)
(0.000434366 0 0.000108922)
(0.000499177 0 0.000126307)
(0.000557917 0 0.000142581)
(0.000611115 0 0.00015785)
(0.000659256 0 0.000172193)
(0.000702783 0 0.000185675)
(0.000742098 0 0.000198339)
(0.000777569 0 0.000210219)
(0.000809526 0 0.000221337)
(0.000838268 0 0.000231707)
(0.000864066 0 0.000241338)
(0.000887162 0 0.000250237)
(0.000907772 0 0.000258406)
(0.000926095 0 0.00026585)
(0.000942305 0 0.000272572)
(0.00095658 0 0.000278588)
(0 0 0)
(0.000100282 0 2.34519e-05)
(0.000193825 0 4.54633e-05)
(0.000279035 0 6.57643e-05)
(0.000356562 0 8.45738e-05)
(0.000427023 0 0.000102074)
(0.000490997 0 0.000118413)
(0.000549025 0 0.00013371)
(0.000601609 0 0.00014806)
(0.000649213 0 0.000161537)
(0.000692263 0 0.000174197)
(0.000731149 0 0.00018608)
(0.000766227 0 0.000197217)
(0.00079782 0 0.000207628)
(0.000826222 0 0.000217328)
(0.000851697 0 0.000226326)
(0.000874487 0 0.000234629)
(0.000894807 0 0.000242242)
(0.000912853 0 0.00024917)
(0.000928803 0 0.000255419)
(0.000942835 0 0.000261008)
(0 0 0)
(9.82861e-05 0 2.16419e-05)
(0.000190096 0 4.19821e-05)
(0.000273872 0 6.0772e-05)
(0.000350207 0 7.82041e-05)
(0.00041967 0 9.44383e-05)
(0.000482803 0 0.000109606)
(0.000540115 0 0.000123813)
(0.000592082 0 0.000137142)
(0.00063915 0 0.000149659)
(0.000681726 0 0.000161415)
(0.000720189 0 0.000172444)
(0.000754883 0 0.000182775)
(0.000786124 0 0.000192427)
(0.000814199 0 0.000201411)
(0.000839371 0 0.000209739)
(0.000861876 0 0.000217416)
(0.000881929 0 0.00022445)
(0.000899724 0 0.000230844)
(0.000915439 0 0.000236608)
(0.000929256 0 0.00024176)
(0 0 0)
(9.63254e-05 0 1.96502e-05)
(0.000186431 0 3.81447e-05)
(0.000268796 0 5.52591e-05)
(0.000343956 0 7.11594e-05)
(0.000412437 0 8.59843e-05)
(0.00047474 0 9.98477e-05)
(0.000531347 0 0.000112841)
(0.00058271 0 0.000125038)
(0.000629252 0 0.000136494)
(0.000671367 0 0.000147253)
(0.000709419 0 0.000157348)
(0.000743744 0 0.0001668)
(0.000774651 0 0.000175628)
(0.00080242 0 0.000183842)
(0.000827309 0 0.000191452)
(0.000849552 0 0.000198464)
(0.000869362 0 0.000204884)
(0.000886932 0 0.000210719)
(0.000902438 0 0.000215975)
(0.000916064 0 0.000220672)
(0 0 0)
(9.4436e-05 0 1.74711e-05)
(0.0001829 0 3.39387e-05)
(0.000263905 0 4.92053e-05)
(0.000337934 0 6.34112e-05)
(0.000405467 0 7.6674e-05)
(0.000466973 0 8.90903e-05)
(0.000522902 0 0.000100738)
(0.000573685 0 0.000111679)
(0.000619724 0 0.000121962)
(0.0006614 0 0.000131622)
(0.000699065 0 0.000140687)
(0.000733045 0 0.000149177)
(0.00076364 0 0.000157105)
(0.000791126 0 0.000164482)
(0.000815757 0 0.000171316)
(0.000837763 0 0.000177611)
(0.000857355 0 0.000183374)
(0.000874725 0 0.00018861)
(0.000890048 0 0.000193326)
(0.000903508 0 0.000197541)
(0 0 0)
(9.26591e-05 0 1.50971e-05)
(0.00017958 0 2.93487e-05)
(0.000259309 0 4.25861e-05)
(0.000332278 0 5.49249e-05)
(0.000398926 0 6.64619e-05)
(0.000459686 0 7.72767e-05)
(0.000514983 0 8.74337e-05)
(0.000565225 0 9.69838e-05)
(0.000610799 0 0.000105966)
(0.000652069 0 0.000114411)
(0.000689378 0 0.00012234)
(0.000723042 0 0.000129768)
(0.000753355 0 0.000136708)
(0.000780587 0 0.000143167)
(0.000804988 0 0.000149151)
(0.000826785 0 0.000154665)
(0.000846186 0 0.000159713)
(0.000863382 0 0.0001643)
(0.000878547 0 0.000168432)
(0.000891866 0 0.000172126)
(0 0 0)
(9.10412e-05 0 1.25193e-05)
(0.000176562 0 2.43559e-05)
(0.000255137 0 3.53722e-05)
(0.000327149 0 4.56593e-05)
(0.000392998 0 5.52941e-05)
(0.000453088 0 6.43395e-05)
(0.000507818 0 7.28464e-05)
(0.000557577 0 8.08548e-05)
(0.000602735 0 8.83955e-05)
(0.000643645 0 9.54917e-05)
(0.000680639 0 0.00010216)
(0.000714025 0 0.000108413)
(0.000744091 0 0.000114258)
(0.000771104 0 0.000119701)
(0.000795306 0 0.000124747)
(0.000816924 0 0.000129398)
(0.000836164 0 0.000133659)
(0.000853214 0 0.000137532)
(0.000868247 0 0.000141022)
(0.000881448 0 0.000144144)
(0 0 0)
(8.96372e-05 0 9.72715e-06)
(0.000173949 0 1.89385e-05)
(0.000251534 0 2.7529e-05)
(0.000322728 0 3.55666e-05)
(0.000387898 0 4.3108e-05)
(0.000447418 0 5.02003e-05)
(0.000501668 0 5.68809e-05)
(0.000551017 0 6.31794e-05)
(0.000595825 0 6.91182e-05)
(0.000636433 0 7.4714e-05)
(0.000673163 0 7.99788e-05)
(0.000706318 0 8.49206e-05)
(0.000736181 0 8.9545e-05)
(0.000763012 0 9.38554e-05)
(0.000787053 0 9.78543e-05)
(0.000808526 0 0.000101544)
(0.000827636 0 0.000104925)
(0.000844569 0 0.000108001)
(0.000859496 0 0.000110776)
(0.000872604 0 0.000113258)
(0 0 0)
(8.85133e-05 0 6.70847e-06)
(0.000171866 0 1.30713e-05)
(0.000248673 0 1.90174e-05)
(0.000319231 0 2.45918e-05)
(0.000383872 0 2.98321e-05)
(0.000442951 0 3.47693e-05)
(0.000496829 0 3.94281e-05)
(0.000545863 0 4.38279e-05)
(0.000590401 0 4.7983e-05)
(0.000630777 0 5.1904e-05)
(0.000667306 0 5.55984e-05)
(0.000700286 0 5.90708e-05)
(0.000729995 0 6.23244e-05)
(0.00075669 0 6.53606e-05)
(0.00078061 0 6.81806e-05)
(0.000801975 0 7.0785e-05)
(0.000820989 0 7.31745e-05)
(0.000837836 0 7.53504e-05)
(0.000852687 0 7.73145e-05)
(0.000865727 0 7.90735e-05)
(0 0 0)
(8.77541e-05 0 3.44986e-06)
(0.00017047 0 6.7264e-06)
(0.000246768 0 9.79377e-06)
(0.000316911 0 1.26743e-05)
(0.00038121 0 1.53867e-05)
(0.000440005 0 1.79464e-05)
(0.000493643 0 2.03656e-05)
(0.000542475 0 2.26538e-05)
(0.000586841 0 2.4818e-05)
(0.000627069 0 2.68633e-05)
(0.000663471 0 2.8793e-05)
(0.00069634 0 3.06092e-05)
(0.000725952 0 3.23129e-05)
(0.000752561 0 3.39048e-05)
(0.000776406 0 3.5385e-05)
(0.000797705 0 3.67535e-05)
(0.000816659 0 3.80103e-05)
(0.000833453 0 3.91559e-05)
(0.000848256 0 4.01909e-05)
(0.000861255 0 4.11186e-05)
(0 0 0)
(8.74903e-05 0 0)
(0.000169976 0 0)
(0.000246093 0 0)
(0.000316088 0 0)
(0.000380267 0 0)
(0.000438961 0 0)
(0.000492516 0 0)
(0.000541276 0 0)
(0.000585582 0 0)
(0.000625758 0 0)
(0.000662114 0 0)
(0.000694945 0 0)
(0.000724522 0 0)
(0.000751103 0 0)
(0.000774921 0 0)
(0.000796197 0 0)
(0.00081513 0 0)
(0.000831906 0 0)
(0.000846693 0 0)
(0.000859677 0 0)
)
;

boundaryField
{
    inlet
    {
        type            fixedValue;
        value           uniform (0 0 0);
    }
    outlet
    {
        type            fixedValue;
        value           nonuniform 0();
    }
    flap
    {
        type            fixedValue;
        value           nonuniform 0();
    }
    upperWall
    {
        type            slip;
    }
    lowerWall
    {
        type            slip;
    }
    frontAndBack
    {
        type            empty;
    }
    procBoundary0to1
    {
        type            processor;
    }
    procBoundary0to3
    {
        type            processor;
    }
}


// ************************************************************************* //
