/*--------------------------------*- C++ -*----------------------------------*\
| =========                 |                                                 |
| \\      /  F ield         | OpenFOAM: The Open Source CFD Toolbox           |
|  \\    /   O peration     | Version:  dev                                   |
|   \\  /    A nd           | Web:      www.OpenFOAM.org                      |
|    \\/     M anipulation  |                                                 |
\*---------------------------------------------------------------------------*/
FoamFile
{
    version     2.0;
    format      ascii;
    class       volScalarField;
    location    "2.88";
    object      p;
}
// * * * * * * * * * * * * * * * * * * * * * * * * * * * * * * * * * * * * * //

dimensions      [0 2 -2 0 0 0 0];

internalField   nonuniform List<scalar> 
465
(
-2.29265
-2.56159
-2.2499
-2.60925
-2.94267
-3.28584
-1.25455
-1.97705
-2.58026
-3.11334
-3.59809
0.975586
-0.236322
-1.23846
-2.08827
-2.82339
-3.46614
-4.02822
4.25481
2.54275
1.10435
-0.118208
-1.1675
-2.07221
-2.84998
-3.50918
-4.04984
8.24855
6.09652
4.24986
2.65872
1.28327
0.0938614
-0.929903
-1.80002
-2.52101
-3.09122
12.5814
10.0924
7.91034
5.99758
4.32168
2.85651
1.58254
0.486732
-0.438111
-1.19442
-1.78191
-2.20002
16.9285
14.2141
11.7862
9.62022
7.69295
5.98424
4.47787
3.16185
2.02817
1.07212
0.290715
-0.318883
-0.761148
21.0651
18.2225
15.634
13.2861
11.1645
9.25567
7.54771
6.03102
4.69824
3.54392
2.56353
1.75231
1.10409
0.609374
0.254089
24.8676
21.9713
19.2918
16.8244
14.5623
12.4979
10.6238
8.93311
7.42016
6.07987
4.90735
3.89718
3.04246
2.3336
1.7574
1.29719
28.2897
25.3912
22.6724
20.1349
17.7774
15.5973
13.591
11.7547
10.0845
8.57636
7.22589
6.0278
4.97531
4.05934
3.26781
2.58569
1.9951
1.47537
31.3316
28.4646
25.7428
23.1716
20.7541
18.4912
16.3828
14.4275
12.6233
10.9675
9.45669
8.0862
6.84986
5.73945
4.74417
3.85067
3.04304
2.30308
1.61081
34.0171
31.2026
28.502
25.9235
23.4727
21.1535
18.968
16.9171
15.0006
13.2173
11.5645
10.0388
8.63478
7.34524
6.16075
5.06955
4.05761
3.10885
2.20559
1.32928
36.3788
33.6289
30.9655
28.398
25.9341
23.5792
21.3373
19.2111
17.2018
15.3094
13.5327
11.8689
10.3138
8.86124
7.50309
6.22907
5.02685
3.88216
2.7791
1.70071
0.627908
38.4504
35.7713
33.155
30.6114
28.149
25.7745
23.493
21.3086
19.2236
17.2392
15.3551
13.5697
11.8798
10.2801
8.76384
7.32207
5.94391
4.61661
3.32576
2.05556
0.789511
40.2638
37.6577
35.094
32.5827
30.1325
27.7507
25.4432
23.2149
21.069
19.0077
17.0316
15.14
13.3304
11.5989
9.93965
8.34485
6.80495
5.30848
3.84222
2.39139
0.941638
41.8476
39.3137
36.8051
34.3313
31.9007
29.5209
27.1981
24.9378
22.7438
20.6189
18.5646
16.5808
14.666
12.8171
11.0292
9.29557
7.6078
5.95549
4.32647
2.7068
1.08404
43.2275
40.7633
38.3098
35.876
33.4698
31.0986
28.7689
26.4862
24.2548
22.078
19.9577
17.8946
15.8878
13.935
12.0321
10.1734
8.35125
6.55631
4.77727
3.00099
1.21661
44.4262
42.0275
39.6274
37.2341
34.855
32.4971
30.1667
27.8693
25.6094
23.3906
21.2152
19.0843
16.9976
14.9535
12.9485
10.9777
9.03434
7.10975
5.19346
3.27306
1.339
45.4633
43.1252
40.7756
38.4218
36.0708
33.7289
31.4023
29.0962
26.8151
24.5628
22.3417
20.1533
17.9979
15.8741
13.7792
11.7088
9.65682
7.61538
5.57463
3.52278
1.45127
46.3552
44.072
41.769
39.4528
37.1295
34.8051
32.4851
30.1747
27.8783
25.5994
23.3408
21.1042
18.8899
16.6972
14.5238
12.3657
10.2175
8.07173
5.91925
3.74883
1.55258
47.1174
44.8831
42.6221
40.3405
38.0436
35.7367
33.4252
31.1136
28.8063
26.5068
24.2178
21.9409
19.677
17.4254
15.1841
12.9498
10.7172
8.47954
6.22806
3.95202
1.64375
47.7592
45.5674
43.3435
41.0928
38.82
36.53
34.2275
31.9169
29.6021
27.2866
24.9731
22.6632
20.3578
18.0565
15.7575
13.4577
11.1524
8.83509
6.49739
4.12901
1.72248
48.2943
46.1387
43.9466
41.7226
39.4711
37.1963
34.9026
32.594
30.2744
27.9468
25.6138
23.2772
20.9379
18.5954
16.2484
13.8937
11.5271
9.14219
6.73102
4.28357
1.79178
48.7211
46.5949
44.4288
42.2269
39.9931
37.7313
35.4455
33.1393
30.8165
28.4798
26.1318
23.7742
21.4079
19.0325
16.6466
14.2476
11.8309
9.39075
6.91928
4.40692
1.84559
49.0588
46.9551
44.809
42.6242
40.4041
38.1525
35.8729
33.569
31.2439
28.9005
26.5412
24.1677
21.7807
19.38
16.9642
14.5307
12.0751
9.59176
7.07289
4.50906
1.8912
49.2825
47.1941
45.0616
42.8885
40.6779
38.4334
36.1582
33.8559
31.5295
29.1817
26.815
24.4307
22.0298
19.6119
17.1758
14.7187
12.2364
9.7231
7.17105
4.5711
1.91473
49.4313
47.3504
45.2246
43.0569
40.8505
38.6087
36.335
34.0325
31.7044
29.3533
26.9815
24.5906
22.1812
19.7533
17.3054
14.8348
12.3372
9.80649
7.23434
4.60964
1.91715
)
;

boundaryField
{
    inlet
    {
        type            zeroGradient;
    }
    outlet
    {
        type            fixedValue;
        value           uniform 0;
    }
    flap
    {
        type            zeroGradient;
    }
    upperWall
    {
        type            zeroGradient;
    }
    lowerWall
    {
        type            zeroGradient;
    }
    frontAndBack
    {
        type            empty;
    }
    procBoundary2to1
    {
        type            processor;
        value           nonuniform List<scalar> 
17
(
34.3346
36.9344
39.2031
41.1802
42.9008
44.3961
45.693
46.815
47.7824
48.612
49.3193
49.9136
50.4088
50.8033
51.1163
51.3233
51.4638
)
;
    }
    procBoundary2to4
    {
        type            processor;
        value           nonuniform List<scalar> 
11
(
-2.04489
-1.81532
-0.340666
2.47523
6.31346
10.7646
15.4183
19.9536
24.1723
27.9819
31.3627
)
;
    }
    procBoundary2to5
    {
        type            processor;
        value           nonuniform List<scalar> 
34
(
-2.17398
-2.36643
-2.84358
-2.84358
-3.14642
-3.64133
-3.64133
-4.04194
-4.04194
-4.44791
-4.51233
-4.51233
-4.91318
-4.46445
-4.46445
-3.50539
-3.50539
-3.7579
-2.4501
-2.4501
-1.0445
-1.0445
-1.18332
0.0201054
0.0201054
0.933152
0.933152
0.642008
1.00365
1.00365
0.945502
0.945502
0.457539
0.457539
)
;
    }
}


// ************************************************************************* //
