/*--------------------------------*- C++ -*----------------------------------*\
| =========                 |                                                 |
| \\      /  F ield         | OpenFOAM: The Open Source CFD Toolbox           |
|  \\    /   O peration     | Version:  dev                                   |
|   \\  /    A nd           | Web:      www.OpenFOAM.org                      |
|    \\/     M anipulation  |                                                 |
\*---------------------------------------------------------------------------*/
FoamFile
{
    version     2.0;
    format      ascii;
    class       volVectorField;
    location    "1.47";
    object      cellDisplacement;
}
// * * * * * * * * * * * * * * * * * * * * * * * * * * * * * * * * * * * * * //

dimensions      [0 1 0 0 0 0 0];

internalField   nonuniform List<vector> 
465
(
(0.590049 0 -0.273769)
(0.579165 0 -0.262528)
(0.588814 0 -0.273472)
(0.57779 0 -0.263017)
(0.565779 0 -0.252178)
(0.552638 0 -0.24105)
(0.58629 0 -0.271936)
(0.575282 0 -0.262305)
(0.563249 0 -0.25217)
(0.550057 0 -0.241627)
(0.535579 0 -0.230761)
(0.582442 0 -0.26927)
(0.57163 0 -0.260507)
(0.55969 0 -0.251097)
(0.546545 0 -0.241168)
(0.532091 0 -0.230817)
(0.516219 0 -0.220113)
(0.49881 0 -0.209096)
(0.577274 0 -0.265592)
(0.566755 0 -0.257657)
(0.555068 0 -0.249017)
(0.542087 0 -0.239741)
(0.527726 0 -0.229922)
(0.511947 0 -0.219677)
(0.494637 0 -0.209046)
(0.475659 0 -0.198045)
(0.454887 0 -0.186687)
(0.570871 0 -0.261048)
(0.560734 0 -0.253901)
(0.549337 0 -0.245972)
(0.536615 0 -0.237355)
(0.522478 0 -0.228122)
(0.506875 0 -0.218365)
(0.489746 0 -0.208162)
(0.470919 0 -0.197502)
(0.45029 0 -0.186407)
(0.427787 0 -0.174904)
(0.56332 0 -0.255754)
(0.553622 0 -0.24934)
(0.542593 0 -0.242096)
(0.530188 0 -0.234111)
(0.516354 0 -0.225468)
(0.500992 0 -0.216215)
(0.484046 0 -0.206423)
(0.465441 0 -0.196143)
(0.445072 0 -0.185383)
(0.422798 0 -0.174135)
(0.398506 0 -0.16239)
(0.372139 0 -0.150158)
(0.554728 0 -0.249812)
(0.545501 0 -0.244068)
(0.534883 0 -0.237465)
(0.522843 0 -0.230085)
(0.509334 0 -0.221998)
(0.494296 0 -0.213268)
(0.477623 0 -0.203923)
(0.45926 0 -0.194017)
(0.439156 0 -0.183596)
(0.417187 0 -0.172653)
(0.393208 0 -0.161161)
(0.367135 0 -0.149117)
(0.338925 0 -0.136524)
(0.545217 0 -0.243307)
(0.536466 0 -0.238165)
(0.526281 0 -0.232154)
(0.514636 0 -0.225342)
(0.501491 0 -0.217792)
(0.486791 0 -0.209556)
(0.470471 0 -0.200681)
(0.452422 0 -0.191181)
(0.432594 0 -0.1811)
(0.410938 0 -0.170468)
(0.387317 0 -0.159263)
(0.361671 0 -0.14749)
(0.333859 0 -0.135108)
(0.303777 0 -0.122084)
(0.271404 0 -0.108411)
(0.534915 0 -0.236308)
(0.526627 0 -0.2317)
(0.516877 0 -0.226227)
(0.505642 0 -0.219944)
(0.492884 0 -0.212903)
(0.478555 0 -0.205149)
(0.462593 0 -0.196722)
(0.444933 0 -0.187655)
(0.42546 0 -0.177949)
(0.404131 0 -0.167637)
(0.380905 0 -0.156745)
(0.355661 0 -0.145247)
(0.328324 0 -0.133134)
(0.298744 0 -0.120353)
(0.266856 0 -0.106884)
(0.232647 0 -0.0927154)
(0.523949 0 -0.228869)
(0.516096 0 -0.224731)
(0.506769 0 -0.219742)
(0.495946 0 -0.213945)
(0.483588 0 -0.207382)
(0.469649 0 -0.200091)
(0.454075 0 -0.192106)
(0.4368 0 -0.183453)
(0.417758 0 -0.174155)
(0.396832 0 -0.164204)
(0.373986 0 -0.153625)
(0.34919 0 -0.142438)
(0.322314 0 -0.130608)
(0.293272 0 -0.118114)
(0.262022 0 -0.104944)
(0.228427 0 -0.0910411)
(0.192402 0 -0.0763611)
(0.153967 0 -0.0608953)
(0.512449 0 -0.221028)
(0.504991 0 -0.217298)
(0.496065 0 -0.212741)
(0.485643 0 -0.207389)
(0.473686 0 -0.201273)
(0.460149 0 -0.194424)
(0.444979 0 -0.186869)
(0.428116 0 -0.178631)
(0.409494 0 -0.169727)
(0.389047 0 -0.160172)
(0.366656 0 -0.149951)
(0.342293 0 -0.139082)
(0.315939 0 -0.127582)
(0.287464 0 -0.115412)
(0.256803 0 -0.102553)
(0.223902 0 -0.0889846)
(0.188616 0 -0.0746443)
(0.150893 0 -0.0594993)
(0.11078 0 -0.0435512)
(0.500539 0 -0.212811)
(0.493432 0 -0.209433)
(0.484875 0 -0.205259)
(0.474835 0 -0.200311)
(0.463272 0 -0.194611)
(0.450138 0 -0.188181)
(0.435382 0 -0.181043)
(0.418946 0 -0.173216)
(0.400767 0 -0.164714)
(0.38078 0 -0.155547)
(0.358921 0 -0.145723)
(0.335068 0 -0.135222)
(0.309213 0 -0.124062)
(0.281345 0 -0.112259)
(0.251315 0 -0.0997586)
(0.219076 0 -0.0865484)
(0.184582 0 -0.0726087)
(0.147699 0 -0.0578795)
(0.108409 0 -0.0423428)
(0.066772 0 -0.0260066)
(0.488338 0 -0.204227)
(0.481534 0 -0.201153)
(0.473311 0 -0.197319)
(0.463629 0 -0.192736)
(0.452444 0 -0.187421)
(0.439708 0 -0.181389)
(0.425368 0 -0.174655)
(0.409368 0 -0.167234)
(0.391647 0 -0.159136)
(0.372141 0 -0.15037)
(0.350783 0 -0.140941)
(0.3275 0 -0.130846)
(0.302254 0 -0.120095)
(0.274977 0 -0.108677)
(0.245595 0 -0.0965736)
(0.214054 0 -0.0837721)
(0.180298 0 -0.0702524)
(0.144272 0 -0.0559901)
(0.105969 0 -0.0409773)
(0.0652997 0 -0.0251689)
(0.022091 0 -0.00848588)
(0.475958 0 -0.195274)
(0.469413 0 -0.192461)
(0.461486 0 -0.188928)
(0.452133 0 -0.184679)
(0.441306 0 -0.179722)
(0.428956 0 -0.174066)
(0.415029 0 -0.167723)
(0.399468 0 -0.160702)
(0.382214 0 -0.153012)
(0.363205 0 -0.144659)
(0.34238 0 -0.135648)
(0.319675 0 -0.125981)
(0.295036 0 -0.115658)
(0.26839 0 -0.10467)
(0.239678 0 -0.093004)
(0.208871 0 -0.0806625)
(0.175906 0 -0.0676255)
(0.140737 0 -0.0538769)
(0.103336 0 -0.0394041)
(0.0637029 0 -0.0242016)
(0.0215925 0 -0.00817001)
(0.463511 0 -0.185934)
(0.457179 0 -0.183348)
(0.449511 0 -0.180083)
(0.440457 0 -0.176138)
(0.429966 0 -0.171516)
(0.417986 0 -0.16622)
(0.404462 0 -0.160256)
(0.389336 0 -0.153632)
(0.372551 0 -0.146352)
(0.354048 0 -0.138422)
(0.333766 0 -0.129846)
(0.31165 0 -0.120627)
(0.287652 0 -0.11077)
(0.261627 0 -0.100234)
(0.233587 0 -0.0890439)
(0.203563 0 -0.0772219)
(0.171418 0 -0.064723)
(0.137124 0 -0.0515428)
(0.100652 0 -0.0376721)
(0.0619871 0 -0.0231044)
(0.0209879 0 -0.0077856)
(0.451102 0 -0.176176)
(0.444944 0 -0.173789)
(0.437499 0 -0.170766)
(0.428714 0 -0.167103)
(0.418534 0 -0.162795)
(0.406905 0 -0.157844)
(0.39377 0 -0.152252)
(0.379071 0 -0.146021)
(0.362751 0 -0.139155)
(0.344751 0 -0.131658)
(0.325013 0 -0.123533)
(0.303477 0 -0.11478)
(0.280085 0 -0.1054)
(0.254766 0 -0.095384)
(0.227484 0 -0.0847418)
(0.198198 0 -0.0734618)
(0.166877 0 -0.0615488)
(0.133471 0 -0.048992)
(0.0979505 0 -0.0357858)
(0.0603024 0 -0.0219289)
(0.0204113 0 -0.00738187)
(0.438835 0 -0.165954)
(0.432817 0 -0.163746)
(0.425563 0 -0.160946)
(0.417017 0 -0.157545)
(0.407123 0 -0.153538)
(0.395823 0 -0.148922)
(0.38306 0 -0.143695)
(0.368776 0 -0.137858)
(0.352912 0 -0.131413)
(0.33541 0 -0.124361)
(0.316213 0 -0.116705)
(0.295265 0 -0.108446)
(0.27251 0 -0.0995871)
(0.247908 0 -0.0901314)
(0.221319 0 -0.0800463)
(0.192773 0 -0.0693586)
(0.162315 0 -0.0580967)
(0.129812 0 -0.0462237)
(0.0952534 0 -0.0337441)
(0.0586323 0 -0.0206629)
(0.0198486 0 -0.00695111)
(0.42682 0 -0.155207)
(0.420911 0 -0.153163)
(0.413819 0 -0.150572)
(0.405485 0 -0.147423)
(0.395851 0 -0.143707)
(0.384858 0 -0.13942)
(0.372447 0 -0.134558)
(0.358561 0 -0.129118)
(0.343139 0 -0.123103)
(0.326125 0 -0.116511)
(0.307461 0 -0.109345)
(0.28709 0 -0.101607)
(0.264959 0 -0.0932983)
(0.241012 0 -0.0844186)
(0.215189 0 -0.0749646)
(0.187461 0 -0.0649507)
(0.157802 0 -0.0543703)
(0.126189 0 -0.0432351)
(0.0925862 0 -0.0315432)
(0.0569857 0 -0.0193018)
(0.0192962 0 -0.00648941)
(0.415166 0 -0.143854)
(0.409342 0 -0.141967)
(0.402386 0 -0.139578)
(0.394238 0 -0.136674)
(0.38484 0 -0.133247)
(0.374131 0 -0.129288)
(0.362051 0 -0.124794)
(0.348543 0 -0.119761)
(0.333546 0 -0.114189)
(0.317004 0 -0.108077)
(0.298858 0 -0.101426)
(0.279055 0 -0.0942401)
(0.257541 0 -0.0865203)
(0.234268 0 -0.0782704)
(0.2092 0 -0.0694976)
(0.182207 0 -0.0601763)
(0.153332 0 -0.050337)
(0.122629 0 -0.0400131)
(0.0899739 0 -0.0291758)
(0.0553764 0 -0.0178408)
(0.0187575 0 -0.00599474)
(0.403994 0 -0.131797)
(0.398235 0 -0.130064)
(0.391393 0 -0.127875)
(0.383408 0 -0.125218)
(0.374221 0 -0.122081)
(0.363772 0 -0.118457)
(0.352001 0 -0.114341)
(0.338848 0 -0.109728)
(0.324255 0 -0.104618)
(0.308163 0 -0.0990095)
(0.290517 0 -0.0929047)
(0.27126 0 -0.0863055)
(0.25034 0 -0.079215)
(0.227708 0 -0.0716369)
(0.203315 0 -0.0635746)
(0.177109 0 -0.0550289)
(0.149078 0 -0.0460214)
(0.119204 0 -0.0365549)
(0.0874536 0 -0.026635)
(0.0538234 0 -0.0162746)
(0.0182384 0 -0.00546513)
(0.393436 0 -0.118909)
(0.387725 0 -0.117335)
(0.380978 0 -0.115351)
(0.373135 0 -0.112946)
(0.364138 0 -0.110109)
(0.353925 0 -0.106833)
(0.342437 0 -0.10311)
(0.329615 0 -0.0989391)
(0.315399 0 -0.0943167)
(0.299732 0 -0.0892433)
(0.282558 0 -0.0837203)
(0.263821 0 -0.0777504)
(0.243469 0 -0.0713375)
(0.221454 0 -0.0644861)
(0.197728 0 -0.0572021)
(0.172251 0 -0.049492)
(0.144993 0 -0.0413665)
(0.115931 0 -0.0328335)
(0.0850502 0 -0.023905)
(0.0523443 0 -0.0145945)
(0.0177448 0 -0.00489778)
(0.38364 0 -0.105037)
(0.377964 0 -0.10363)
(0.371296 0 -0.101863)
(0.363576 0 -0.0997239)
(0.354746 0 -0.0972035)
(0.344745 0 -0.0942942)
(0.333514 0 -0.0909905)
(0.320994 0 -0.0872893)
(0.307126 0 -0.0831889)
(0.291852 0 -0.0786896)
(0.275116 0 -0.0737934)
(0.256864 0 -0.0685034)
(0.237044 0 -0.0628242)
(0.215608 0 -0.0567614)
(0.19251 0 -0.0503221)
(0.167711 0 -0.0435146)
(0.141168 0 -0.0363474)
(0.112864 0 -0.0288235)
(0.0828001 0 -0.0209676)
(0.050961 0 -0.0127899)
(0.0172842 0 -0.00428924)
(0.374779 0 -0.0899873)
(0.369129 0 -0.0887632)
(0.362526 0 -0.0872303)
(0.35491 0 -0.0853786)
(0.346225 0 -0.0831995)
(0.336411 0 -0.0806867)
(0.325408 0 -0.0778356)
(0.313158 0 -0.0746434)
(0.299602 0 -0.0711094)
(0.284683 0 -0.0672343)
(0.268345 0 -0.0630204)
(0.250533 0 -0.0584714)
(0.231197 0 -0.0535926)
(0.210289 0 -0.0483904)
(0.187768 0 -0.0428726)
(0.163607 0 -0.0370505)
(0.137679 0 -0.0309113)
(0.110034 0 -0.0244838)
(0.0807436 0 -0.0177994)
(0.0497008 0 -0.0108482)
(0.0168657 0 -0.00363548)
(0.367057 0 -0.0735184)
(0.361425 0 -0.0724991)
(0.354874 0 -0.0712264)
(0.347346 0 -0.0696922)
(0.338783 0 -0.0678897)
(0.329128 0 -0.0658137)
(0.318321 0 -0.0634609)
(0.306304 0 -0.0608295)
(0.293019 0 -0.0579194)
(0.278409 0 -0.0547319)
(0.262417 0 -0.0512697)
(0.24499 0 -0.0475369)
(0.226075 0 -0.0435386)
(0.205624 0 -0.0392811)
(0.183593 0 -0.0347712)
(0.159941 0 -0.0300157)
(0.134624 0 -0.0250197)
(0.107633 0 -0.019808)
(0.0789651 0 -0.0143836)
(0.0486039 0 -0.00875698)
(0.0165013 0 -0.00293225)
(0.36072 0 -0.0553249)
(0.355101 0 -0.0545403)
(0.34859 0 -0.0535636)
(0.341131 0 -0.0523886)
(0.332667 0 -0.0510107)
(0.323141 0 -0.0494261)
(0.312494 0 -0.047633)
(0.300668 0 -0.0456304)
(0.287605 0 -0.0434189)
(0.273248 0 -0.0410002)
(0.25754 0 -0.0383773)
(0.240428 0 -0.0355539)
(0.221859 0 -0.0325351)
(0.201786 0 -0.0293263)
(0.180162 0 -0.0259339)
(0.156949 0 -0.0223647)
(0.132112 0 -0.0186265)
(0.105631 0 -0.0147301)
(0.077494 0 -0.0106839)
(0.0476981 0 -0.00649715)
(0.0162012 0 -0.00217359)
(0.356073 0 -0.0350171)
(0.350463 0 -0.034508)
(0.343981 0 -0.0338758)
(0.336572 0 -0.0331171)
(0.328179 0 -0.0322288)
(0.318747 0 -0.0312093)
(0.308217 0 -0.0300574)
(0.29653 0 -0.0287734)
(0.28363 0 -0.0273578)
(0.269459 0 -0.0258126)
(0.253961 0 -0.02414)
(0.23708 0 -0.0223433)
(0.218766 0 -0.0204262)
(0.198969 0 -0.0183928)
(0.177645 0 -0.016248)
(0.154754 0 -0.0139968)
(0.130265 0 -0.0116448)
(0.104153 0 -0.00919853)
(0.0764073 0 -0.00666399)
(0.0470275 0 -0.00404778)
(0.0159797 0 -0.00135289)
(0.353511 0 -0.0121521)
(0.347904 0 -0.0119718)
(0.341437 0 -0.0117485)
(0.334055 0 -0.0114808)
(0.325702 0 -0.0111679)
(0.316321 0 -0.0108093)
(0.305855 0 -0.0104047)
(0.294245 0 -0.00995438)
(0.281435 0 -0.00945869)
(0.267366 0 -0.00891841)
(0.251983 0 -0.00833457)
(0.23523 0 -0.00770844)
(0.217055 0 -0.00704149)
(0.197411 0 -0.00633536)
(0.176251 0 -0.00559187)
(0.153537 0 -0.00481297)
(0.129237 0 -0.00400074)
(0.103327 0 -0.00315744)
(0.0757959 0 -0.00228531)
(0.0466462 0 -0.00138676)
(0.0158535 0 -0.000463129)
)
;

boundaryField
{
    inlet
    {
        type            cellMotion;
        value           nonuniform 0();
    }
    outlet
    {
        type            cellMotion;
        value           uniform (0 0 0);
    }
    flap
    {
        type            cellMotion;
        value           nonuniform 0();
    }
    upperWall
    {
        type            slip;
    }
    lowerWall
    {
        type            slip;
    }
    frontAndBack
    {
        type            empty;
    }
    procBoundary2to1
    {
        type            processor;
        value           nonuniform List<vector> 
17
(
(0.518459 0 -0.223901)
(0.506224 0 -0.215373)
(0.493757 0 -0.206532)
(0.481166 0 -0.197365)
(0.468556 0 -0.187846)
(0.456027 0 -0.177937)
(0.443676 0 -0.167584)
(0.431605 0 -0.156719)
(0.419919 0 -0.145256)
(0.408733 0 -0.133089)
(0.398173 0 -0.12009)
(0.388384 0 -0.106098)
(0.379534 0 -0.0909151)
(0.371826 0 -0.0742948)
(0.365503 0 -0.055925)
(0.360867 0 -0.035408)
(0.358311 0 -0.0122909)
)
;
    }
    procBoundary2to4
    {
        type            processor;
        value           nonuniform List<vector> 
11
(
(0.600122 0 -0.284642)
(0.598995 0 -0.283417)
(0.596374 0 -0.280916)
(0.592222 0 -0.277266)
(0.586661 0 -0.272678)
(0.579779 0 -0.267291)
(0.571703 0 -0.261232)
(0.562574 0 -0.254608)
(0.552539 0 -0.247506)
(0.541748 0 -0.239991)
(0.530343 0 -0.232113)
)
;
    }
    procBoundary2to5
    {
        type            processor;
        value           nonuniform List<vector> 
34
(
(0.590049 0 -0.272691)
(0.57947 0 -0.260735)
(0.567311 0 -0.251033)
(0.567311 0 -0.251033)
(0.554329 0 -0.239373)
(0.538222 0 -0.229705)
(0.538222 0 -0.229705)
(0.519689 0 -0.21963)
(0.519689 0 -0.21963)
(0.502256 0 -0.208272)
(0.479734 0 -0.19779)
(0.479734 0 -0.19779)
(0.458863 0 -0.186202)
(0.432215 0 -0.174974)
(0.432215 0 -0.174974)
(0.403278 0 -0.162972)
(0.403278 0 -0.162972)
(0.376661 0 -0.150593)
(0.343592 0 -0.137406)
(0.343592 0 -0.137406)
(0.308453 0 -0.123334)
(0.308453 0 -0.123334)
(0.275637 0 -0.109508)
(0.236649 0 -0.0940402)
(0.236649 0 -0.0940402)
(0.196013 0 -0.0777884)
(0.196013 0 -0.0777884)
(0.156898 0 -0.0620577)
(0.113065 0 -0.0445959)
(0.113065 0 -0.0445959)
(0.0682417 0 -0.0267633)
(0.0682417 0 -0.0267633)
(0.0225959 0 -0.00877672)
(0.0225959 0 -0.00877672)
)
;
    }
}


// ************************************************************************* //
