/*--------------------------------*- C++ -*----------------------------------*\
| =========                 |                                                 |
| \\      /  F ield         | OpenFOAM: The Open Source CFD Toolbox           |
|  \\    /   O peration     | Version:  dev                                   |
|   \\  /    A nd           | Web:      www.OpenFOAM.org                      |
|    \\/     M anipulation  |                                                 |
\*---------------------------------------------------------------------------*/
FoamFile
{
    version     2.0;
    format      ascii;
    class       surfaceScalarField;
    location    "1.47";
    object      meshPhi;
}
// * * * * * * * * * * * * * * * * * * * * * * * * * * * * * * * * * * * * * //

dimensions      [0 3 -1 0 0 0 0];

internalField   nonuniform List<scalar> 
881
(
0.000134395
-7.85953e-07
-9.71219e-06
0.000145411
-1.04261e-05
0.000173476
-2.04569e-05
0.000202672
-3.33352e-05
-4.88308e-05
0.00015892
-2.05012e-05
0.000186336
-3.14211e-05
0.000214739
-4.4706e-05
0.000243188
-6.02688e-05
-7.765e-05
0.000174942
-3.09689e-05
0.000201399
-4.25518e-05
0.000228489
-5.6064e-05
0.000255415
-7.13657e-05
0.000280947
-8.81208e-05
0.000303418
-0.000105731
-0.000123241
0.000193324
-4.17594e-05
0.000218559
-5.37889e-05
0.000244104
-6.73364e-05
0.000269087
-8.22971e-05
0.000292592
-9.82996e-05
0.000313405
-0.000114785
0.000330435
-0.00013115
0.000342525
-0.000146705
-0.0001605
0.000213861
-5.27714e-05
0.00023761
-6.50475e-05
0.000261359
-7.84598e-05
0.000284292
-9.29467e-05
0.000305512
-0.000108149
0.000324015
-0.000123579
0.000339012
-0.000138665
0.000349586
-0.00015276
0.000355057
-0.000165313
-0.000175559
0.000236268
-6.39038e-05
0.000258277
-7.62349e-05
0.000280008
-8.93591e-05
0.000300711
-0.000103261
0.000319567
-0.000117603
0.000335717
-0.000131943
0.000348358
-0.000145761
0.000356719
-0.000158482
0.000360351
-0.000169515
0.000358562
-0.000178324
0.000350417
-0.000184258
-0.000186593
0.000260194
-7.50779e-05
0.000280222
-8.72669e-05
0.00029974
-9.9958e-05
0.000318072
-0.000113178
0.00033447
-0.000126609
0.000348162
-0.000139844
0.000358409
-0.000152407
0.000364533
-0.000163782
0.000365982
-0.000173433
0.000362376
-0.000180831
0.000353222
-0.000185433
0.00033845
-0.00018686
-0.000184687
0.000285202
-8.62082e-05
0.000303019
-9.80455e-05
0.000320179
-0.000110171
0.000336054
-0.000122634
0.00034994
-0.000135122
0.000361133
-0.000147252
0.000368958
-0.000158588
0.000372805
-0.00016866
0.000372163
-0.000176985
0.000366636
-0.000183081
0.000355908
-0.000186487
0.000340012
-0.000186798
0.000318866
-0.000183722
0.000292248
-0.00017693
-0.000166089
0.000310743
-9.7217e-05
0.000326168
-0.000108464
0.00034091
-0.000119922
0.000354313
-0.000131575
0.000365695
-0.000143107
0.000374403
-0.000154148
0.000379823
-0.000164293
0.000381403
-0.000173116
0.000378681
-0.00018018
0.000371301
-0.000185055
0.000359021
-0.000187331
0.00034176
-0.000186645
0.000319599
-0.000182692
0.000292564
-0.000175201
0.000260963
-0.000164038
-0.000149086
0.000335981
-0.000107559
0.000349137
-0.000118319
0.00036154
-0.000129136
0.000372528
-0.000139978
0.000381475
-0.00015055
0.000387767
-0.000160524
0.000390838
-0.000169521
0.000390199
-0.000177147
0.000385441
-0.000183014
0.000376247
-0.000186736
0.000362416
-0.000187948
0.000343866
-0.000186321
0.000320635
-0.000181574
0.000292834
-0.000173473
0.00026079
-0.00016186
0.000224783
-0.000146665
0.000185013
-0.000127818
-0.000105281
0.000360112
-0.000117093
0.000371461
-0.000127559
0.000381753
-0.00013779
0.000390468
-0.000147843
0.000397094
-0.000157471
0.000401066
-0.000166395
0.000401872
-0.000174273
0.000399087
-0.000180748
0.000392351
-0.000185473
0.000381393
-0.000188102
0.000366037
-0.000188311
0.000346214
-0.000185802
0.000321959
-0.000180319
0.0002934
-0.000171656
0.000260774
-0.000159662
0.000224409
-0.00014425
0.000184602
-0.000125374
0.000141785
-0.000103079
-7.74648e-05
0.000383202
-0.000126416
0.000393031
-0.000136413
0.000401431
-0.000145983
0.00040804
-0.000155225
0.000412457
-0.000163905
0.000414205
-0.000171769
0.000412837
-0.000178538
0.000407986
-0.000183896
0.000399345
-0.000187523
0.000386679
-0.000189112
0.000369839
-0.000188371
0.000348771
-0.000185034
0.000323512
-0.000178869
0.000294186
-0.000169689
0.000261007
-0.000157356
0.000224253
-0.000141785
0.000184246
-0.000122942
0.000141395
-0.000100854
9.61202e-05
-7.56212e-05
-4.73245e-05
0.000405847
-0.000135721
0.000414086
-0.000145019
0.000420656
-0.000153789
0.000425243
-0.000162128
0.000427528
-0.000169821
0.000427136
-0.000176618
0.000423684
-0.000182276
0.00041685
-0.000186533
0.000406376
-0.0001891
0.000392062
-0.000189694
0.000373786
-0.000188052
0.000351506
-0.000183937
0.000325262
-0.000177141
0.000295174
-0.000167493
0.000261436
-0.000154869
0.000224304
-0.000139188
0.000184083
-0.000120422
0.00014113
-9.85925e-05
9.58478e-05
-7.37785e-05
4.85291e-05
-4.6073e-05
-1.58654e-05
0.000428384
-0.000144867
0.000434858
-0.000153299
0.000439536
-0.000161132
0.00044212
-0.000168469
0.000442324
-0.000175122
0.000439855
-0.00018085
0.000434396
-0.000185405
0.000425659
-0.000188565
0.000413421
-0.000190097
0.00039752
-0.000189737
0.000377854
-0.000187242
0.000354396
-0.000182399
0.000327189
-0.000175023
0.000296347
-0.00016496
0.00026205
-0.000152097
0.000224532
-0.000136361
0.000184077
-0.000117726
0.00014101
-9.62095e-05
9.56928e-05
-7.18807e-05
4.84143e-05
-4.48252e-05
-1.54206e-05
0.000450888
-0.000153569
0.000455445
-0.000161018
0.000458152
-0.00016782
0.000458731
-0.000174088
0.000456899
-0.000179646
0.000452399
-0.000184279
0.000444987
-0.000187748
0.000434413
-0.000189837
0.000420477
-0.000190357
0.000403043
-0.000189082
0.000382031
-0.000185782
0.000357428
-0.000180266
0.000329279
-0.000172368
0.000297692
-0.000161951
0.000262835
-0.000148912
0.000224923
-0.000133186
0.000184217
-0.000114749
0.000141012
-9.36137e-05
9.56422e-05
-6.98417e-05
4.83689e-05
-4.35064e-05
-1.49571e-05
0.00047332
-0.000161409
0.000475873
-0.000167805
0.000476555
-0.000173515
0.000475103
-0.000178671
0.000471258
-0.000183108
0.000464784
-0.000186639
0.000455476
-0.000189047
0.000443132
-0.000190116
0.000427556
-0.00018966
0.000408633
-0.000187508
0.000386316
-0.000183461
0.000360597
-0.000177337
0.000331525
-0.000168987
0.000299202
-0.00015829
0.000263784
-0.000145154
0.000225468
-0.00012952
0.000184493
-0.000111365
0.000141127
-9.06996e-05
9.56761e-05
-6.75755e-05
4.83738e-05
-4.20528e-05
-1.4449e-05
0.000495576
-0.000167834
0.00049609
-0.000173155
0.000494728
-0.000177754
0.000491242
-0.000181788
0.000485405
-0.000185115
0.000477012
-0.000187572
0.000465869
-0.000188953
0.000451806
-0.000189061
0.000434654
-0.000187705
0.000414297
-0.000184735
0.000390711
-0.000180009
0.000363905
-0.000173362
0.000333928
-0.000164651
0.000300876
-0.000153768
0.000264894
-0.000140634
0.000226162
-0.000125195
0.000184899
-0.000107431
0.000141348
-8.73486e-05
9.57856e-05
-6.49907e-05
4.84197e-05
-4.04042e-05
-1.38744e-05
0.000517489
-0.000172182
0.000515977
-0.000176452
0.0005126
-0.000179976
0.000507132
-0.000182933
0.000499356
-0.000185188
0.000489092
-0.000186618
0.000476169
-0.000187032
0.000460436
-0.000186252
0.000441763
-0.000184101
0.000420033
-0.000180418
0.000395221
-0.000175109
0.000367358
-0.000168044
0.000336493
-0.000159086
0.000302719
-0.000148139
0.000266169
-0.000135132
0.000227008
-0.000120021
0.000185436
-0.000102785
0.000141672
-8.34303e-05
9.59671e-05
-6.19899e-05
4.85032e-05
-3.84992e-05
-1.32122e-05
0.000538866
-0.000173713
0.000535393
-0.000176997
0.000530064
-0.000179516
0.000522685
-0.000181484
0.000513056
-0.000182764
0.000500998
-0.000183248
0.000486366
-0.000182788
0.00046903
-0.000181219
0.000448891
-0.000178395
0.000425856
-0.000174153
0.000399872
-0.000168393
0.000370975
-0.00016104
0.000339237
-0.000151981
0.000304745
-0.000141122
0.00026762
-0.000128403
0.000228015
-0.000113785
0.00018611
-9.72504e-05
0.000142104
-7.88033e-05
9.62222e-05
-5.84694e-05
4.86245e-05
-3.6274e-05
-1.24404e-05
0.000559534
-0.000171651
0.000554212
-0.000174043
0.00054704
-0.000175667
0.000537842
-0.000176757
0.000526451
-0.000177195
0.0005127
-0.000176872
0.000496451
-0.000175668
0.000477596
-0.00017345
0.000456056
-0.000170096
0.000431774
-0.000165474
0.000404684
-0.000159456
0.000374793
-0.000151981
0.000342193
-0.000142996
0.000306983
-0.000132415
0.000269273
-0.00012018
0.000229204
-0.000106259
0.000186937
-9.06376e-05
0.000142654
-7.33182e-05
9.65576e-05
-5.43208e-05
4.87865e-05
-3.36625e-05
-1.15368e-05
0.000579382
-0.000165216
0.000572364
-0.000166839
0.000563494
-0.000167708
0.000552611
-0.000168064
0.00053957
-0.000167812
0.000524231
-0.000166853
0.000506471
-0.000165084
0.000486193
-0.0001624
0.000463328
-0.000158698
0.000437842
-0.000153882
0.000409693
-0.000147832
0.000378851
-0.000140464
0.000345406
-0.000131768
0.000309478
-0.000121696
0.000271169
-0.000110184
0.000230608
-9.72057e-05
0.000187945
-8.27511e-05
0.000143343
-6.68222e-05
9.69868e-05
-4.94344e-05
4.89957e-05
-3.05985e-05
-1.04789e-05
0.000598411
-0.000153655
0.000589872
-0.000154647
0.000579466
-0.000154922
0.000567053
-0.000154717
0.000552502
-0.000153956
0.000535694
-0.000152556
0.000516527
-0.000150432
0.000494918
-0.0001475
0.000470809
-0.000143678
0.000444172
-0.00013889
0.000414991
-0.000133052
0.00038324
-0.000126073
0.000348969
-0.000117937
0.000312307
-0.000108641
0.000273374
-9.81328e-05
0.000232285
-8.63875e-05
0.000189179
-7.33975e-05
0.000144206
-5.91655e-05
9.75316e-05
-4.37035e-05
4.92627e-05
-2.70182e-05
-9.24546e-06
0.000616775
-0.000136272
0.000606896
-0.000136779
0.000595124
-0.000136634
0.000581334
-0.000136059
0.000565415
-0.000134996
0.000547265
-0.000133377
0.000526798
-0.000131133
0.000503946
-0.000128202
0.000478662
-0.000124523
0.000450924
-0.000120035
0.000420738
-0.000114688
0.000388096
-0.000108404
0.000353003
-0.000101146
0.000315585
-9.2937e-05
0.000275987
-8.37601e-05
0.000234318
-7.35811e-05
0.000190706
-6.23964e-05
0.000145291
-5.02097e-05
9.82247e-05
-3.70307e-05
4.96035e-05
-2.28638e-05
-7.81737e-06
0.00063482
-0.000112447
0.000623776
-0.000112618
0.0006108
-0.000112236
0.000595776
-0.000111494
0.00057862
-0.00011036
0.000559248
-0.000108769
0.000537578
-0.000106661
0.000513557
-0.000104009
0.000487152
-0.000100766
0.00045835
-9.68904e-05
0.000427165
-9.23459e-05
0.000393612
-8.70905e-05
0.000357689
-8.10737e-05
0.000319483
-7.43163e-05
0.000279154
-6.68333e-05
0.000236827
-5.85939e-05
0.000192622
-4.95938e-05
0.000146669
-3.98383e-05
9.9113e-05
-2.93355e-05
5.0041e-05
-1.80888e-05
-6.17934e-06
0.000653092
-8.16748e-05
0.000641045
-8.16588e-05
0.00062702
-8.12312e-05
0.000610903
-8.05325e-05
0.000592609
-7.9549e-05
0.00057209
-7.82418e-05
0.00054929
-7.65638e-05
0.000524153
-7.44982e-05
0.000496656
-7.20185e-05
0.000466798
-6.90978e-05
0.000434596
-6.57135e-05
0.000400085
-6.18471e-05
0.000363278
-5.74638e-05
0.000324219
-5.25664e-05
0.000283066
-4.71758e-05
0.000239974
-4.12805e-05
0.000195055
-3.48767e-05
0.000148438
-2.79688e-05
0.000100261
-2.05633e-05
5.06068e-05
-1.26628e-05
-4.32187e-06
0.000672295
-4.36575e-05
0.000659365
-4.35993e-05
0.000644402
-4.33136e-05
0.000627303
-4.28835e-05
0.000607967
-4.22806e-05
0.000586365
-4.15118e-05
0.000562475
-4.05703e-05
0.000536243
-3.94191e-05
0.000507655
-3.80476e-05
0.000476717
-3.64458e-05
0.000443454
-3.46043e-05
0.000407915
-3.2516e-05
0.000370117
-3.01666e-05
0.000330082
-2.75528e-05
0.000287977
-2.46861e-05
0.000243972
-2.15672e-05
0.000198179
-1.81942e-05
0.000150727
-1.45698e-05
0.000101753
-1.06977e-05
5.1341e-05
-6.57971e-06
-2.24383e-06
0.000691345
0.000677718
0.000661991
0.000644063
0.00062388
0.000601406
0.000576586
0.000549389
0.00051981
0.000487865
0.000453584
0.000417026
0.000378199
0.000337126
0.000293985
0.000248953
0.000202143
0.000153686
0.000103719
5.2335e-05
)
;

boundaryField
{
    inlet
    {
        type            calculated;
        value           nonuniform 0();
    }
    outlet
    {
        type            calculated;
        value           uniform 0;
    }
    flap
    {
        type            calculated;
        value           nonuniform 0();
    }
    upperWall
    {
        type            calculated;
        value           nonuniform List<scalar> 
21
(
0
0
0
0
0
0
0
0
0
0
-8.31513e-15
4.21923e-15
3.71323e-20
0
4.40144e-15
0
0
0
-9.34336e-15
0
0
)
;
    }
    lowerWall
    {
        type            calculated;
        value           nonuniform 0();
    }
    frontAndBack
    {
        type            empty;
        value           nonuniform 0();
    }
    procBoundary2to1
    {
        type            processor;
        value           nonuniform List<scalar> 
17
(
-0.000346939
-0.00037097
-0.000394956
-0.000419198
-0.000443597
-0.000468037
-0.000492348
-0.000516305
-0.000539663
-0.000562201
-0.000583772
-0.000604353
-0.000624088
-0.000643321
-0.00066261
-0.000682676
-0.000702365
)
;
    }
    procBoundary2to4
    {
        type            processor;
        value           nonuniform List<scalar> 
11
(
-0.000108416
-0.00011936
-0.000133059
-0.000149488
-0.000168545
-0.000190028
-0.000213662
-0.000239129
-0.000266028
-0.000293923
-0.000321445
)
;
    }
    procBoundary2to5
    {
        type            processor;
        value           nonuniform List<scalar> 
34
(
-8.2247e-06
-6.6672e-07
0.000162577
2.18571e-05
3.65794e-05
0.000231546
6.59969e-05
0.000269693
9.57654e-05
0.0001133
0.000321381
0.000139503
0.000153262
0.00034856
0.000171111
0.000354073
0.000182215
0.000184376
0.000335855
0.00018451
0.000317655
0.000178172
0.000166948
0.000260598
0.000150903
0.000224987
0.000130063
0.000106966
0.000142044
7.91234e-05
9.64003e-05
4.85447e-05
4.86895e-05
1.63225e-05
)
;
    }
}


// ************************************************************************* //
