/*--------------------------------*- C++ -*----------------------------------*\
| =========                 |                                                 |
| \\      /  F ield         | OpenFOAM: The Open Source CFD Toolbox           |
|  \\    /   O peration     | Version:  dev                                   |
|   \\  /    A nd           | Web:      www.OpenFOAM.org                      |
|    \\/     M anipulation  |                                                 |
\*---------------------------------------------------------------------------*/
FoamFile
{
    version     2.0;
    format      ascii;
    class       surfaceVectorField;
    location    "1.1";
    object      Uf;
}
// * * * * * * * * * * * * * * * * * * * * * * * * * * * * * * * * * * * * * //

dimensions      [0 1 -1 0 0 0 0];

internalField   nonuniform List<vector> 
5457
(
(9.91282 3.11442e-22 0.0221917)
(9.96216 2.60726e-19 0.036997)
(9.81732 4.46756e-21 0.0281614)
(9.92618 5.88553e-20 0.041877)
(9.71052 -7.9105e-20 0.0329651)
(9.86394 -3.7183e-20 0.0486436)
(9.59011 -7.6057e-20 0.0379176)
(9.779 7.5595e-20 0.0569514)
(9.45604 0 0.0430253)
(9.67831 -1.57575e-19 0.0658074)
(9.30854 8.72781e-20 0.0483193)
(9.56406 2.43657e-19 0.0750848)
(9.14749 1.29572e-19 0.0539308)
(9.43565 -3.32638e-19 0.0849745)
(8.97244 4.44236e-20 0.0599915)
(9.29234 4.3304e-19 0.0957047)
(8.78269 -9.62325e-20 0.0666099)
(9.13359 -1.77094e-19 0.107439)
(8.57747 7.84998e-21 0.0738939)
(8.95871 -9.51081e-20 0.120331)
(8.3558 -2.17471e-19 0.0819609)
(8.76691 5.29802e-19 0.134557)
(8.11661 1.32782e-19 0.0909355)
(8.55725 -3.06634e-19 0.150308)
(7.85867 1.98931e-19 0.100959)
(8.32853 4.76229e-20 0.167783)
(7.58064 -2.15979e-19 0.112196)
(8.07951 -2.1974e-19 0.187221)
(7.281 0 0.124813)
(7.80888 8.89263e-19 0.208882)
(6.95823 5.26958e-19 0.138981)
(7.51509 9.2816e-21 0.232988)
(6.61074 -5.93266e-19 0.154886)
(7.1965 -4.39112e-19 0.259763)
(6.23695 -1.07344e-18 0.172723)
(6.85151 -2.09672e-18 0.289442)
(5.83531 6.05483e-19 0.192679)
(6.47849 1.04268e-18 0.32221)
(5.40446 7.55385e-19 0.214931)
(6.07586 3.25472e-19 0.35817)
(4.94326 1.55252e-18 0.239625)
(5.64216 1.48319e-20 0.397344)
(4.45095 -1.19267e-19 0.266819)
(5.17629 3.23211e-18 0.439569)
(3.92747 -1.43178e-18 0.296457)
(4.67739 -4.69082e-18 0.484338)
(3.37361 -4.25512e-19 0.328415)
(4.14511 -6.89032e-19 0.530774)
(2.79116 5.0112e-19 0.362464)
(3.58015 -7.86763e-19 0.57766)
(2.18302 -3.06674e-18 0.398064)
(2.98411 6.41435e-18 0.62311)
(1.5537 4.59396e-18 0.433466)
(2.35918 -1.06135e-17 0.663826)
(0.910513 5.12318e-18 0.452511)
(1.70941 1.02583e-17 0.693109)
(0.262969 -3.30617e-18 0.191251)
(1.0061 -2.43968e-18 0.687248)
(0.397472 2.27588e-18 0.289324)
(10.0029 3.15689e-19 0.0445431)
(9.99275 5.4727e-19 0.0357302)
(9.97359 1.52328e-20 0.0583675)
(9.98548 -2.34413e-19 0.0547213)
(9.92665 1.19752e-19 0.0702765)
(9.95524 -3.71861e-20 0.0699903)
(9.86364 -1.04367e-20 0.0830324)
(9.90248 1.53162e-19 0.0867197)
(9.78453 9.37051e-20 0.0965968)
(9.8331 -1.57592e-19 0.104597)
(9.6895 -1.87004e-19 0.110973)
(9.74947 8.20111e-20 0.123423)
(9.5785 -1.51592e-20 0.126431)
(9.65113 -2.52664e-19 0.143508)
(9.4512 2.00518e-19 0.143262)
(9.53756 4.52636e-20 0.165267)
(9.30707 -1.74524e-19 0.161715)
(9.40831 -1.79896e-19 0.189029)
(9.14539 4.37857e-19 0.182039)
(9.2628 3.6276e-19 0.21511)
(8.9653 4.2606e-19 0.204513)
(9.10036 1.23179e-18 0.243869)
(8.76578 -3.85681e-19 0.229433)
(8.92015 9.47108e-21 0.275698)
(8.54565 -3.75702e-19 0.257119)
(8.72112 -1.25801e-18 0.311016)
(8.30363 9.04411e-19 0.287934)
(8.50209 8.33021e-19 0.350275)
(8.0383 8.83772e-19 0.322253)
(8.26186 3.03605e-20 0.393997)
(7.74806 -9.64306e-19 0.360433)
(7.99899 9.28348e-21 0.442709)
(7.43126 -1.97017e-18 0.402824)
(7.71187 -1.07383e-18 0.496908)
(7.0862 7.05636e-20 0.449749)
(7.39887 -1.01192e-18 0.557101)
(6.71115 7.51271e-19 0.501445)
(7.05829 1.04899e-18 0.623737)
(6.30447 -4.20181e-19 0.558026)
(6.68833 -1.22084e-20 0.697117)
(5.86468 1.743e-18 0.619443)
(6.28715 -1.45748e-19 0.777375)
(5.39047 -1.45266e-18 0.68531)
(5.85321 2.43756e-18 0.864419)
(4.8808 -3.89348e-18 0.754714)
(5.38485 2.2464e-18 0.957569)
(4.33528 -1.0505e-18 0.826196)
(4.88019 -5.12883e-18 1.05529)
(3.75436 5.19699e-18 0.897577)
(4.33797 3.09111e-19 1.15527)
(3.13917 -1.26447e-18 0.965101)
(3.75706 6.91168e-18 1.25393)
(2.49184 -4.86317e-18 1.02114)
(3.13539 -8.1654e-18 1.34464)
(1.81653 2.74416e-18 1.04727)
(2.47065 -1.10634e-17 1.41285)
(1.11067 3.25228e-18 1.01577)
(1.71485 -1.6151e-17 1.4291)
(1.0615 3.21155e-17 1.34114)
(9.99584 -1.70432e-20 0.0484765)
(9.99048 -2.81745e-19 0.0375102)
(9.97026 -2.82851e-19 0.0696074)
(9.98074 -5.87143e-22 0.0659678)
(9.92708 0 0.0893124)
(9.95168 5.90962e-19 0.0897052)
(9.86908 0 0.110381)
(9.9019 0 0.114209)
(9.79667 -1.64751e-19 0.132928)
(9.83629 0 0.140209)
(9.70989 1.01291e-20 0.156994)
(9.75728 1.59846e-19 0.167686)
(9.60868 -1.86779e-19 0.182935)
(9.66453 -1.63555e-19 0.197012)
(9.49284 -3.39269e-19 0.211173)
(9.55771 -5.1419e-19 0.228712)
(9.36195 3.67096e-19 0.242103)
(9.43652 3.46562e-19 0.263269)
(9.21544 1.17204e-18 0.276136)
(9.30047 5.4293e-19 0.30116)
(9.05258 7.93985e-19 0.313726)
(9.14905 5.23071e-19 0.342895)
(8.87252 -8.8476e-19 0.355375)
(8.9816 7.76455e-19 0.389039)
(8.67425 -1.36752e-20 0.401624)
(8.79733 -1.6155e-18 0.440222)
(8.45662 -5.45671e-20 0.453072)
(8.59527 8.33321e-19 0.497118)
(8.21834 -8.44883e-19 0.510366)
(8.3744 -8.5939e-19 0.560481)
(7.958 -1.18179e-19 0.574155)
(8.13356 0 0.631113)
(7.67405 -1.14371e-19 0.645088)
(7.87139 -2.49769e-21 0.709816)
(7.36479 0 0.723789)
(7.58649 0 0.79742)
(7.02841 2.68218e-19 0.810772)
(7.2773 4.88534e-19 0.894725)
(6.663 2.60068e-19 0.906347)
(6.94209 2.64099e-19 1.00237)
(6.26663 5.87158e-19 1.01061)
(6.5788 -5.28103e-19 1.12075)
(5.83728 6.12816e-18 1.12326)
(6.18546 5.78602e-19 1.25008)
(5.37259 9.19009e-19 1.24312)
(5.75994 5.47961e-18 1.39009)
(4.87005 -3.70893e-18 1.36803)
(5.29897 5.22177e-18 1.53924)
(4.32696 2.09414e-18 1.49484)
(4.79871 -9.34586e-18 1.69493)
(3.73954 -1.01197e-19 1.61848)
(4.25445 -1.04764e-17 1.85346)
(3.10082 -1.43249e-17 1.7305)
(3.6582 1.09195e-17 2.00891)
(2.393 -2.97877e-17 1.8184)
(2.99949 7.67939e-18 2.15235)
(1.56648 1.38201e-17 1.90027)
(2.23029 -1.53552e-17 2.27929)
(1.39956 -4.25692e-19 2.45357)
(9.99128 -2.60249e-19 0.0555343)
(9.98912 -5.63997e-19 0.0412244)
(9.96592 8.85355e-19 0.085517)
(9.97741 2.88212e-19 0.0771287)
(9.92352 5.79295e-19 0.113926)
(9.94807 1.77051e-21 0.109074)
(9.86646 0 0.143327)
(9.89923 0 0.14128)
(9.7955 3.27674e-19 0.174317)
(9.83496 3.11037e-19 0.175138)
(9.71073 -1.98266e-20 0.207189)
(9.75759 3.22898e-19 0.210963)
(9.61215 -4.97411e-19 0.242425)
(9.66694 -6.56513e-19 0.249181)
(9.49968 1.87178e-19 0.280593)
(9.56281 -2.81231e-21 0.290377)
(9.37306 5.25935e-19 0.322254)
(9.44496 3.48885e-19 0.335177)
(9.23187 -1.06569e-19 0.36798)
(9.31303 -7.14622e-19 0.384196)
(9.07559 5.09709e-19 0.418383)
(9.16664 4.54152e-19 0.438059)
(8.90363 5.04592e-21 0.474149)
(9.00531 7.70566e-19 0.497461)
(8.71526 -7.27197e-19 0.536038)
(8.82849 -7.39834e-19 0.563199)
(8.50961 0 0.604877)
(8.63548 -1.61896e-18 0.636154)
(8.28571 0 0.681558)
(8.42554 1.65705e-18 0.717277)
(8.04252 1.15645e-19 0.76701)
(8.1978 1.07262e-19 0.807577)
(7.77886 1.11989e-19 0.862203)
(7.95124 -3.45847e-18 0.908114)
(7.4934 4.96228e-19 0.968129)
(7.68485 3.6604e-18 1.02003)
(7.18461 4.8117e-19 1.08571)
(7.39744 -3.81379e-18 1.1445)
(6.85071 -5.35817e-19 1.21563)
(7.08763 3.92441e-18 1.2826)
(6.48967 -5.20732e-19 1.35841)
(6.75357 -8.22682e-18 1.43513)
(6.09922 0 1.51424)
(6.39305 1.80018e-17 1.60275)
(5.67636 9.76364e-18 1.68252)
(6.00394 -9.84844e-18 1.78593)
(5.21694 -5.47425e-19 1.86135)
(5.58245 1.76707e-17 1.98398)
(4.7153 -2.18884e-17 2.04793)
(5.12292 -2.89615e-17 2.19502)
(4.16295 6.08552e-19 2.23848)
(4.61832 -2.01668e-18 2.41671)
(3.54607 3.27476e-17 2.42818)
(4.05705 1.23513e-17 2.64601)
(2.83985 2.21172e-17 2.6098)
(3.42401 2.16315e-17 2.88047)
(2.02752 -2.89806e-17 2.82226)
(2.70327 1.55841e-18 3.1078)
(1.74468 -5.09577e-17 3.48353)
(9.98894 0 0.0634392)
(9.98843 -1.12035e-18 0.0459337)
(9.96312 -6.01369e-19 0.100976)
(9.97554 -5.72074e-19 0.0884928)
(9.92139 -5.7772e-19 0.137018)
(9.94603 -5.89488e-19 0.128153)
(9.86528 3.17084e-19 0.173931)
(9.89807 6.01472e-19 0.16792)
(9.79562 3.06498e-19 0.212735)
(9.83517 1.23766e-18 0.209454)
(9.71258 -3.31987e-19 0.25396)
(9.75946 3.18307e-19 0.253391)
(9.61619 -1.50024e-19 0.298167)
(9.67093 -3.27245e-19 0.300236)
(9.50639 1.65204e-19 0.346011)
(9.56937 -8.36791e-19 0.350642)
(9.38298 -9.10612e-19 0.39817)
(9.45458 -3.9681e-21 0.405349)
(9.24562 -1.33779e-19 0.45532)
(9.32626 -1.91033e-19 0.465087)
(9.09392 7.20612e-19 0.518171)
(9.18413 2.37329e-18 0.530574)
(8.92746 0 0.587531)
(9.02782 -1.48981e-18 0.602606)
(8.74571 -1.64627e-18 0.66431)
(8.85689 0 0.682106)
(8.54808 9.17277e-20 0.749517)
(8.67089 -1.62007e-18 0.770104)
(8.33387 1.73986e-18 0.844225)
(8.46931 1.6582e-18 0.867739)
(8.1023 -3.52426e-18 0.949564)
(8.25154 3.33373e-18 0.976204)
(7.85254 1.99928e-19 1.06675)
(8.01679 -3.54351e-18 1.09674)
(7.58368 -7.62292e-19 1.1971)
(7.76434 9.31514e-20 1.23073)
(7.29461 -2.58598e-19 1.34194)
(7.4934 -4.76592e-18 1.37969)
(6.98395 -3.93599e-18 1.50243)
(7.20295 3.92586e-18 1.54512)
(6.64983 1.06344e-17 1.67952)
(6.89161 2.24154e-19 1.72839)
(6.29 7.82175e-18 1.87412)
(6.5572 1.70426e-17 1.93063)
(5.90141 -1.63424e-18 2.08666)
(6.19784 -8.72159e-18 2.15318)
(5.47921 -1.11506e-17 2.31636)
(5.80983 4.54343e-19 2.39672)
(5.0165 -8.97218e-18 2.56168)
(5.387 -2.00374e-17 2.66066)
(4.50298 9.79221e-18 2.82073)
(4.92178 2.83211e-17 2.94428)
(3.92362 1.33277e-18 3.09214)
(4.40251 -1.90073e-17 3.24644)
(3.25324 1.34764e-18 3.36712)
(3.80862 1.93683e-18 3.56901)
(2.51348 -2.23426e-17 3.68519)
(3.18234 -1.9918e-17 3.86438)
(2.12359 -4.61977e-19 4.39573)
(9.98768 -1.6827e-18 0.0717518)
(9.98806 -2.49636e-21 0.051176)
(9.96155 -5.60544e-19 0.116271)
(9.97458 -1.56604e-21 0.100005)
(9.92061 6.13471e-19 0.159722)
(9.94523 0 0.146884)
(9.8657 1.53453e-18 0.204165)
(9.89831 6.00883e-19 0.194012)
(9.7976 1.23237e-18 0.250799)
(9.83698 3.12398e-19 0.243037)
(9.71658 3.113e-19 0.300319)
(9.76324 -9.44199e-19 0.294828)
(9.6227 -1.02334e-18 0.353363)
(9.67716 1.29028e-18 0.35002)
(9.51588 -9.91556e-19 0.410664)
(9.57853 -3.40855e-19 0.409349)
(9.39593 7.12742e-19 0.472999)
(9.46717 -1.80596e-22 0.473644)
(9.26262 2.36088e-18 0.541136)
(9.34285 -3.40883e-19 0.543725)
(9.11561 9.75546e-20 0.61588)
(9.20535 1.99945e-18 0.6204)
(8.95457 -1.46568e-18 0.698138)
(9.05435 -1.0811e-20 0.704544)
(8.77912 0 0.788942)
(8.88952 -1.51032e-18 0.797175)
(8.58887 0 0.889453)
(8.71052 0 0.899431)
(8.38335 3.27845e-18 1.00093)
(8.51703 0 1.01261)
(8.16196 3.20995e-18 1.12467)
(8.30874 3.30664e-18 1.13809)
(7.9241 -3.59327e-18 1.26209)
(8.08498 3.12245e-20 1.27727)
(7.66913 -3.98711e-18 1.41475)
(7.84514 -3.35488e-18 1.43173)
(7.39629 -4.54944e-19 1.58433)
(7.5888 -1.08406e-20 1.60326)
(7.10455 8.02875e-18 1.77249)
(7.31518 0 1.79373)
(6.79247 6.86377e-18 1.98074)
(7.02333 7.92686e-18 2.00505)
(6.45806 1.89196e-19 2.21064)
(6.7115 6.89961e-18 2.23894)
(6.09856 -6.51535e-18 2.46379)
(6.37784 -6.89604e-18 2.49752)
(5.70926 -8.62504e-18 2.74085)
(6.01947 -6.52813e-18 2.78295)
(5.28323 1.74678e-17 3.04175)
(5.63074 1.79669e-17 3.09609)
(4.81101 -4.54292e-19 3.36579)
(5.20416 1.17272e-18 3.43728)
(4.27998 -1.8438e-17 3.71285)
(4.73111 -1.89186e-17 3.80531)
(3.66259 -1.90455e-17 4.06722)
(4.18043 1.79462e-17 4.20682)
(3.00374 3.1111e-18 4.45547)
(3.6688 -2.00235e-17 4.54278)
(2.52622 -1.94281e-17 5.193)
(9.98708 1.67924e-18 0.0802775)
(9.98794 1.11862e-18 0.0566756)
(9.96095 5.59215e-19 0.131404)
(9.9743 -7.06534e-19 0.11152)
(9.92095 -8.28819e-22 0.181963)
(9.94538 1.45386e-19 0.165199)
(9.86749 -6.27212e-19 0.23372)
(9.89971 -5.9707e-19 0.21944)
(9.80125 -1.88843e-18 0.287919)
(9.84022 -6.14795e-19 0.275739)
(9.72258 7.55084e-20 0.345403)
(9.76878 -6.35275e-19 0.335114)
(9.63157 1.94439e-18 0.406925)
(9.6855 6.49912e-19 0.398347)
(9.52815 6.5713e-19 0.473309)
(9.59021 6.65141e-19 0.466271)
(9.41219 -1.06015e-18 0.545419)
(9.48275 -1.68383e-18 0.539789)
(9.28346 -6.63804e-19 0.624111)
(9.36297 6.77374e-19 0.619807)
(9.1417 1.85779e-18 0.710266)
(9.2307 -1.06433e-18 0.707208)
(8.98665 -7.88437e-20 0.804873)
(9.08564 2.56784e-18 0.802941)
(8.81802 -1.48691e-18 0.909055)
(8.92751 -1.51178e-18 0.908102)
(8.63551 0 1.02408)
(8.75612 -3.07382e-18 1.02392)
(8.4389 7.85776e-20 1.15136)
(8.57118 -2.39283e-20 1.15176)
(8.22781 7.62437e-20 1.29239)
(8.37268 3.31667e-18 1.29321)
(8.00172 2.20878e-19 1.44874)
(8.16019 -5.15962e-20 1.44989)
(7.76014 6.71849e-19 1.62217)
(7.93308 -6.82033e-18 1.6235)
(7.50258 4.44997e-19 1.81466)
(7.69115 7.18277e-18 1.81605)
(7.22833 0 2.02831)
(7.43386 7.18011e-18 2.02975)
(6.93631 7.94235e-18 2.2652)
(7.16061 -1.42089e-17 2.267)
(6.62484 -3.09129e-19 2.52756)
(6.87018 1.53421e-17 2.53016)
(6.29169 -6.91779e-18 2.818)
(6.56059 1.57558e-19 2.82197)
(5.93315 2.01865e-17 3.13862)
(6.22998 -7.78024e-18 3.14573)
(5.54291 1.70045e-18 3.4905)
(5.87412 1.80482e-17 3.50382)
(5.11269 -1.72909e-17 3.87327)
(5.48558 -1.70097e-17 3.8971)
(4.63378 1.7206e-17 4.28634)
(5.06036 3.17232e-20 4.32241)
(4.07394 1.73615e-17 4.70554)
(4.55038 8.32313e-19 4.79389)
(3.48457 -4.2547e-17 5.13734)
(4.15502 -1.76555e-20 5.15359)
(2.93976 -2.08238e-17 5.89481)
(9.98696 -1.3009e-18 0.0888395)
(9.98804 0 0.0622248)
(9.96111 -1.10341e-18 0.14627)
(9.9745 -4.09528e-21 0.122917)
(9.92219 -4.65562e-19 0.20361)
(9.9462 7.52664e-22 0.183039)
(9.87046 -5.85008e-19 0.262414)
(9.90197 8.84217e-19 0.244077)
(9.80643 6.38594e-19 0.323915)
(9.84461 -9.10597e-19 0.30739)
(9.73047 -3.73543e-20 0.389069)
(9.77579 6.25039e-19 0.374068)
(9.64272 -6.29955e-19 0.458745)
(9.69565 -8.16825e-21 0.445018)
(9.54316 -1.71746e-18 0.533858)
(9.60409 0 0.52117)
(9.43168 9.40522e-20 0.615346)
(9.50098 -1.35518e-18 0.603505)
(9.30813 2.48533e-19 0.704146)
(9.38623 3.0948e-18 0.692997)
(9.17229 -2.95814e-19 0.801214)
(9.25978 -1.76611e-18 0.79062)
(9.0239 1.06958e-18 0.907602)
(9.12131 1.79748e-20 0.897394)
(8.86278 -3.1234e-18 1.02451)
(8.9706 -2.94514e-18 1.01446)
(8.6887 -3.05322e-18 1.15326)
(8.80758 -8.11382e-20 1.14313)
(8.50156 3.2654e-18 1.29539)
(8.632 -2.39586e-20 1.28482)
(8.30127 3.14253e-18 1.45262)
(8.44391 3.19418e-18 1.4412)
(8.08744 -7.18987e-18 1.62669)
(8.24321 -5.13505e-20 1.61423)
(7.85966 -1.28782e-19 1.81954)
(8.02951 -7.04789e-18 1.80576)
(7.61762 1.39251e-17 2.03339)
(7.80255 6.84767e-18 2.01793)
(7.36091 -7.26939e-18 2.27072)
(7.56205 1.42269e-17 2.25323)
(7.0888 -6.51579e-18 2.53418)
(7.30772 -2.16996e-17 2.5145)
(6.79989 1.56666e-17 2.82658)
(7.03877 7.26758e-18 2.80482)
(6.49233 -7.36468e-19 3.15129)
(6.75348 7.71815e-18 3.12745)
(6.16364 -9.77762e-18 3.51163)
(6.45041 6.04818e-18 3.48637)
(5.80889 -7.51994e-19 3.90953)
(6.12698 -1.60097e-17 3.88515)
(5.42033 2.82907e-19 4.34439)
(5.77612 1.23169e-20 4.32536)
(4.99247 -1.62716e-17 4.81454)
(5.39872 -9.36823e-19 4.80041)
(4.48792 -1.64873e-17 5.28851)
(4.92433 -1.82326e-17 5.33541)
(3.95137 2.0563e-17 5.7503)
(4.63671 1.34189e-17 5.71272)
(3.35687 1.31873e-18 6.52724)
(9.98712 1.2973e-18 0.0973077)
(9.98824 0 0.0677062)
(9.96175 1.10072e-18 0.160791)
(9.97499 1.48836e-19 0.13411)
(9.92405 1.36831e-18 0.224582)
(9.94753 -1.44775e-19 0.200345)
(9.87423 5.24876e-19 0.290129)
(9.90494 3.01987e-19 0.267836)
(9.81269 -8.96191e-19 0.35864)
(9.84992 -1.51331e-18 0.337858)
(9.73976 6.42936e-19 0.431149)
(9.784 6.13766e-19 0.411535)
(9.65561 6.22488e-19 0.508621)
(9.70734 1.26429e-18 0.489854)
(9.56029 3.39641e-19 0.592057)
(9.61986 -1.28784e-18 0.573841)
(9.45372 1.72152e-18 0.682465)
(9.52148 -9.8861e-19 0.664555)
(9.33584 1.00021e-18 0.780856)
(9.41221 2.71695e-18 0.763018)
(9.2065 -1.42372e-18 0.888273)
(9.292 -3.4221e-19 0.87029)
(9.06548 -4.04621e-18 1.00582)
(9.16071 -1.07077e-18 0.98748)
(8.91265 1.41411e-19 1.13476)
(9.01816 -2.94885e-18 1.11575)
(8.74789 2.95408e-18 1.27649)
(8.86426 4.049e-20 1.25651)
(8.57106 -5.01449e-20 1.43257)
(8.69898 -1.96639e-20 1.41123)
(8.38224 -4.84474e-20 1.60489)
(8.52214 3.02101e-18 1.58161)
(8.18138 3.10748e-22 1.79547)
(8.33392 4.96244e-20 1.76978)
(7.96821 1.08219e-19 2.00641)
(8.13443 0 1.97792)
(7.74248 7.2276e-18 2.24011)
(7.92329 -6.35309e-18 2.20828)
(7.504 -5.82202e-19 2.49939)
(7.70052 2.02697e-17 2.46359)
(7.25238 -7.64029e-18 2.78745)
(7.46598 -7.45555e-18 2.74707)
(6.98673 -6.85243e-19 3.10769)
(7.21922 7.07595e-20 3.0624)
(6.70555 1.4475e-17 3.46402)
(6.95926 -2.13172e-17 3.41345)
(6.40697 -2.18516e-19 3.8606)
(6.68479 2.88781e-17 3.80469)
(6.08772 -1.52446e-17 4.3001)
(6.39425 -1.50148e-17 4.24038)
(5.74019 -1.20433e-18 4.78153)
(6.08096 1.37942e-17 4.72334)
(5.36024 -2.82651e-18 5.30258)
(5.75095 -1.41389e-17 5.24307)
(4.90616 1.12081e-17 5.82696)
(5.30759 1.59709e-18 5.83815)
(4.40646 -6.55174e-18 6.31707)
(5.11495 1.48949e-17 6.23663)
(3.77687 -3.03718e-18 7.11684)
(9.98743 -1.14635e-18 0.105592)
(9.98846 -1.10009e-18 0.0730538)
(9.9628 -1.10324e-18 0.174886)
(9.97575 -1.12413e-18 0.144991)
(9.92651 -1.20301e-18 0.2448)
(9.94938 0 0.217027)
(9.8788 -1.77137e-18 0.316759)
(9.90862 -1.18032e-18 0.290625)
(9.81999 3.61154e-20 0.39196)
(9.85615 -3.07773e-21 0.367026)
(9.75038 1.24706e-18 0.471482)
(9.79342 -6.09393e-19 0.447362)
(9.67018 -6.91018e-19 0.556367)
(9.72057 6.29165e-19 0.532682)
(9.57946 -2.61232e-18 0.647696)
(9.6375 -2.56764e-18 0.62409)
(9.47821 6.74186e-20 0.746541)
(9.54424 -1.32988e-18 0.722719)
(9.36639 1.32503e-18 0.853968)
(9.44087 4.01364e-18 0.829642)
(9.24399 0 0.971092)
(9.32728 -1.35768e-18 0.945952)
(9.11094 0 1.09909)
(9.20361 -6.93248e-19 1.07283)
(8.96713 -3.0057e-18 1.23929)
(9.06978 0 1.21154)
(8.81248 -2.94002e-18 1.39317)
(8.92561 -2.96445e-18 1.36353)
(8.64688 3.0952e-18 1.56232)
(8.77139 -1.96963e-20 1.5304)
(8.47042 3.08312e-18 1.74867)
(8.60673 3.07591e-18 1.71382)
(8.28331 4.87473e-20 1.95448)
(8.43193 4.94003e-20 1.91597)
(8.08558 -6.53925e-18 2.18209)
(8.24741 6.246e-18 2.1393)
(7.87712 6.96735e-18 2.43409)
(8.05311 -1.25892e-17 2.38633)
(7.65795 1.31481e-17 2.71357)
(7.84911 1.94806e-17 2.65992)
(7.4279 3.3059e-19 3.02417)
(7.63549 -6.85468e-18 2.96369)
(7.18656 -2.06972e-17 3.36994)
(7.41218 -1.2875e-17 3.30179)
(6.93309 -6.74321e-18 3.75526)
(7.17882 -8.13634e-18 3.67867)
(6.6659 1.39975e-17 4.18492)
(6.93457 2.72258e-17 4.0994)
(6.38266 1.40234e-17 4.66248)
(6.67836 -5.42208e-20 4.56875)
(6.0759 9.68245e-19 5.18691)
(6.40318 -1.36466e-17 5.09139)
(5.74103 -9.77692e-18 5.75628)
(6.12086 -2.27194e-19 5.65358)
(5.33327 5.22825e-18 6.33223)
(5.70701 4.96775e-18 6.3083)
(4.85732 1.66614e-17 6.85983)
(5.5963 4.89537e-18 6.74093)
(4.20598 2.86356e-17 7.69166)
(9.9879 -1.07829e-18 0.113605)
(9.98865 -2.98763e-21 0.078207)
(9.96426 2.06221e-21 0.188452)
(9.97669 1.39882e-18 0.155445)
(9.92959 0 0.264165)
(9.95161 2.05272e-22 0.232986)
(9.8842 6.1096e-19 0.342193)
(9.91287 -1.45451e-18 0.312346)
(9.82839 -6.59797e-19 0.423735)
(9.86316 1.19548e-18 0.394765)
(9.76243 -1.20631e-18 0.509905)
(9.80388 -1.22497e-18 0.481392)
(9.68651 -1.30299e-18 0.601804)
(9.73512 -6.20781e-19 0.573325)
(9.60074 -1.26385e-18 0.700578)
(9.65678 -6.46365e-19 0.671726)
(9.50519 2.70527e-18 0.807366)
(9.56899 -5.8713e-21 0.777782)
(9.39984 1.24564e-18 0.923262)
(9.47191 3.32631e-18 0.892641)
(9.28476 -2.04207e-18 1.04941)
(9.36542 -4.0506e-18 1.01738)
(9.16008 -6.83438e-19 1.18708)
(9.2498 5.46354e-18 1.15318)
(9.02576 0 1.33768)
(9.12505 1.44941e-20 1.3015)
(8.88177 0 1.50277)
(8.99114 -2.83026e-18 1.46382)
(8.72817 0 1.68401)
(8.84848 0 1.64178)
(8.56502 0 1.88332)
(8.69681 -3.65529e-19 1.83715)
(8.39261 6.32423e-18 2.10305)
(8.53637 0 2.05209)
(8.21126 2.41148e-21 2.34581)
(8.3677 1.19398e-17 2.28916)
(8.02113 2.31474e-19 2.61441)
(8.1913 -1.24262e-17 2.55116)
(7.82239 -7.5664e-19 2.91218)
(8.00723 1.26278e-17 2.8412)
(7.61527 -2.01213e-17 3.24315)
(7.81571 -1.27281e-17 3.16311)
(7.3997 -2.97013e-19 3.6119)
(7.61739 -1.39846e-17 3.5215)
(7.17546 2.5992e-17 4.02345)
(7.41222 1.24255e-17 3.92137)
(6.94149 1.316e-17 4.48321)
(7.20014 -6.91756e-19 4.36855)
(6.69573 -2.77276e-17 4.99596)
(6.98045 2.29593e-17 4.86855)
(6.43071 -1.49119e-17 5.5616)
(6.74541 -3.83751e-17 5.42839)
(6.14009 1.45034e-17 6.1801)
(6.51286 1.59004e-17 6.03299)
(5.77778 4.63948e-18 6.81427)
(6.13235 -1.40428e-18 6.74928)
(5.31787 1.83716e-17 7.40098)
(6.09412 -2.62891e-18 7.23927)
(4.65975 1.30521e-17 8.28456)
(9.98842 2.50048e-18 0.121282)
(9.98887 3.14338e-18 0.0831373)
(9.96591 1.36918e-18 0.201405)
(9.97774 1.53647e-18 0.165415)
(9.93301 -1.48299e-18 0.282591)
(9.9541 2.05406e-22 0.24816)
(9.8901 -8.2082e-19 0.366324)
(9.91754 -2.96446e-19 0.332921)
(9.83749 5.86783e-19 0.453831)
(9.87075 4.59412e-21 0.420975)
(9.77541 -6.28436e-19 0.546258)
(9.81512 6.03656e-19 0.513504)
(9.70403 3.58592e-20 0.644746)
(9.75066 -6.19577e-19 0.611644)
(9.62354 6.23408e-19 0.75049)
(9.67733 1.88925e-18 0.716576)
(9.53407 6.67887e-19 0.864689)
(9.59535 -1.91112e-18 0.829535)
(9.43564 -2.08754e-18 0.988467)
(9.50489 -1.29623e-18 0.951745)
(9.32838 3.60197e-18 1.12296)
(9.40602 1.27858e-18 1.08426)
(9.21249 6.08836e-18 1.2695)
(9.29889 3.48034e-18 1.22828)
(9.08806 -2.85755e-18 1.42962)
(9.18357 -2.04745e-18 1.38536)
(8.95522 -2.79538e-18 1.60489)
(9.06046 -5.99541e-20 1.55704)
(8.8142 -3.70485e-19 1.79706)
(8.92983 -3.53387e-18 1.74495)
(8.66512 -3.61658e-19 2.00811)
(8.79164 2.84942e-18 1.95102)
(8.50829 5.74688e-18 2.24039)
(8.64637 0 2.17743)
(8.34431 -7.31611e-19 2.49668)
(8.4945 5.33309e-18 2.42667)
(8.17366 1.89762e-19 2.78003)
(8.33686 -7.04827e-18 2.7018)
(7.9966 4.76803e-19 3.09398)
(8.1738 6.39933e-18 3.00623)
(7.81374 -6.58263e-18 3.44289)
(8.00579 -5.84221e-18 3.34391)
(7.62562 -1.15706e-18 3.83177)
(7.834 -2.95606e-20 3.71977)
(7.4325 -1.43452e-17 4.26644)
(7.65896 3.61456e-19 4.13937)
(7.23403 9.05942e-18 4.75307)
(7.48126 -1.25127e-17 4.60934)
(7.02844 1.25355e-17 5.2982)
(7.30109 2.45621e-17 5.13642)
(6.8085 -7.73651e-18 5.90399)
(7.11028 -1.06424e-17 5.73044)
(6.56502 2.04196e-21 6.57484)
(6.93236 1.91564e-19 6.37827)
(6.25361 -8.69808e-18 7.27928)
(6.59741 -2.92645e-18 7.15886)
(5.81272 -6.9766e-18 7.96333)
(6.63118 -1.56433e-17 7.7398)
(5.16845 2.11867e-17 8.93332)
(9.98903 2.15045e-18 0.128581)
(9.98911 2.17733e-18 0.087812)
(9.96776 1.36192e-19 0.213689)
(9.97891 -2.2083e-18 0.174849)
(9.93678 1.18192e-18 0.300009)
(9.9569 0 0.262477)
(9.89651 5.35226e-19 0.389073)
(9.92269 2.30924e-18 0.352277)
(9.84725 3.19544e-20 0.482153)
(9.87898 -5.91945e-19 0.445577)
(9.78923 5.91745e-19 0.580428)
(9.82712 7.08288e-21 0.543609)
(9.72263 1.27681e-18 0.685054)
(9.76715 6.11748e-19 0.647517)
(9.64771 -7.08012e-19 0.79726)
(9.69909 -2.46248e-18 0.75848)
(9.56463 -3.86827e-18 0.9183)
(9.62316 -2.12489e-20 0.877798)
(9.47349 2.11127e-18 1.04932)
(9.53959 -1.31623e-18 1.00674)
(9.37449 1.18984e-18 1.19146)
(9.44871 6.59447e-18 1.14635)
(9.26782 -4.74424e-18 1.3461)
(9.35045 -2.68078e-18 1.29785)
(9.15375 7.79311e-19 1.5148)
(9.24493 -5.42458e-18 1.46281)
(9.03254 -8.3958e-19 1.6992)
(9.13312 2.7812e-18 1.64284)
(8.90452 -2.38055e-19 1.90107)
(9.01496 -3.53693e-18 1.83957)
(8.77006 3.18409e-18 2.12248)
(8.89068 3.22358e-18 2.055)
(8.62962 -3.65261e-19 2.36581)
(8.76116 0 2.29135)
(8.48382 -1.10082e-18 2.63384)
(8.62694 3.5123e-19 2.5511)
(8.3335 -7.30434e-19 2.92987)
(8.48873 -7.29539e-19 2.83739)
(8.17937 0 3.25765)
(8.34753 -5.71507e-18 3.15384)
(8.02227 7.52915e-19 3.62173)
(8.20439 5.70133e-18 3.50455)
(7.8634 1.49541e-18 4.02747)
(8.06067 6.39909e-18 3.89454)
(7.70361 2.21926e-18 4.48135)
(7.91784 6.28083e-18 4.32992)
(7.54344 2.92067e-18 4.99065)
(7.77706 -9.49953e-18 4.81796)
(7.38202 1.45147e-18 5.56415)
(7.64017 -6.46338e-18 5.36692)
(7.21344 -2.73075e-18 6.20784)
(7.49981 1.79074e-17 5.98976)
(7.02577 -2.73739e-18 6.93433)
(7.38497 -1.50464e-17 6.67953)
(6.78182 -9.98843e-18 7.72459)
(7.11995 9.10061e-18 7.52364)
(6.38423 1.54242e-17 8.5674)
(7.24233 -2.9817e-17 8.23586)
(5.78518 3.19064e-17 9.67882)
(9.98972 -2.2619e-18 0.135454)
(9.98935 -4.19843e-18 0.0921955)
(9.96987 -2.30116e-18 0.225231)
(9.98018 -1.45403e-19 0.183673)
(9.941 1.17184e-18 0.316342)
(9.95998 -1.40127e-18 0.275846)
(9.90353 1.12844e-18 0.41037)
(9.92829 2.90754e-19 0.370338)
(9.85776 -6.06304e-19 0.508628)
(9.88777 -5.83246e-19 0.468511)
(9.80393 3.7172e-20 0.612318)
(9.8398 2.37005e-18 0.571631)
(9.74231 -3.1809e-18 0.722601)
(9.78452 6.12377e-19 0.680838)
(9.67317 -1.73767e-18 0.840736)
(9.72193 -2.49291e-18 0.797323)
(9.59668 2.51498e-18 0.968013)
(9.6522 1.89012e-18 0.922446)
(9.51311 3.28742e-18 1.10561)
(9.57579 1.27191e-18 1.05745)
(9.42267 2.59072e-18 1.25466)
(9.49317 5.19713e-18 1.20344)
(9.32556 -3.39709e-18 1.41655)
(9.40403 -2.59431e-18 1.36166)
(9.22223 -3.31823e-18 1.59288)
(9.30874 -6.01316e-18 1.53359)
(9.11311 4.80264e-21 1.78531)
(9.20846 -6.75563e-19 1.7209)
(8.99856 4.69068e-21 1.99562)
(9.10309 2.70789e-18 1.9253)
(8.87916 0 2.22592)
(8.99324 -5.4594e-18 2.14871)
(8.75568 7.21132e-19 2.47863)
(8.87986 -6.95195e-19 2.39334)
(8.62879 7.16286e-19 2.75653)
(8.76373 6.2227e-18 2.66182)
(8.49951 -5.75628e-18 3.06294)
(8.64564 6.21914e-18 2.95717)
(8.36922 4.19631e-20 3.40179)
(8.52702 -9.87331e-18 3.28296)
(8.23925 1.13737e-17 3.77773)
(8.40968 2.68991e-19 3.64343)
(8.11134 1.12112e-17 4.19637)
(8.29531 1.24194e-17 4.04362)
(7.98724 -5.44097e-18 4.66461)
(8.1864 5.56198e-18 4.48989)
(7.86868 -1.89567e-17 5.19078)
(8.08511 -1.10407e-17 4.98988)
(7.75662 9.93295e-18 5.78589)
(7.99554 -1.04747e-17 5.55293)
(7.64867 5.7542e-18 6.46089)
(7.91319 2.04239e-17 6.19443)
(7.53334 -3.16827e-18 7.23975)
(7.87327 -1.39517e-18 6.91654)
(7.39027 -1.08899e-17 8.12551)
(7.71616 8.72471e-18 7.80903)
(7.10074 -9.2357e-18 9.22148)
(7.97263 -2.38339e-17 8.68262)
(6.59184 9.12294e-18 10.5586)
(9.99045 -2.00904e-18 0.141857)
(9.9896 -2.24552e-18 0.0962745)
(9.97211 7.30493e-19 0.23596)
(9.9815 4.7841e-20 0.191844)
(9.94549 -2.25112e-18 0.331517)
(9.96319 -2.48024e-18 0.288216)
(9.91093 -1.43811e-18 0.430144)
(9.93412 -1.41449e-18 0.387052)
(9.86876 2.44668e-18 0.533175)
(9.89693 -4.73464e-20 0.489721)
(9.81931 2.91676e-18 0.641825)
(9.85301 1.90822e-18 0.597486)
(9.76287 1.25115e-18 0.757273)
(9.80263 -1.13162e-18 0.711508)
(9.69967 1.20692e-18 0.8808)
(9.74566 1.25496e-18 0.833026)
(9.62998 6.3614e-19 1.0137)
(9.68235 -1.17668e-18 0.963381)
(9.55421 3.23966e-18 1.15716)
(9.61341 3.02039e-18 1.10377)
(9.4726 -9.93643e-20 1.31238)
(9.53919 2.28598e-19 1.2554)
(9.38536 -5.25833e-18 1.4807)
(9.45944 9.95853e-19 1.41956)
(9.29299 -3.30214e-18 1.66367)
(9.37486 -6.39263e-18 1.5976)
(9.19613 2.06937e-18 1.86297)
(9.28633 -1.30571e-18 1.79113)
(9.0954 -2.84904e-18 2.08044)
(9.19404 3.39091e-18 2.00193)
(8.99148 -6.11602e-18 2.31814)
(9.09911 -1.77693e-18 2.23191)
(8.88523 4.87269e-18 2.57848)
(9.00228 -5.14513e-18 2.48325)
(8.77768 1.17425e-17 2.8642)
(8.90455 1.8102e-18 2.75852)
(8.67011 2.01654e-18 3.17856)
(8.80724 1.1428e-17 3.06065)
(8.56431 -9.61771e-18 3.52543)
(8.71202 -4.24886e-18 3.39298)
(8.46231 1.32392e-18 3.90942)
(8.62119 -6.05877e-19 3.7597)
(8.36653 6.75559e-18 4.3362)
(8.53717 -4.13927e-18 4.16568)
(8.27995 0 4.81272)
(8.46342 4.81089e-18 4.61706)
(8.20606 -2.5104e-18 5.34773)
(8.40369 0 5.12118)
(8.14871 -1.27422e-19 5.95332)
(8.36471 -2.57414e-18 5.68728)
(8.11201 1.34016e-17 6.64447)
(8.34704 -1.66193e-18 6.33037)
(8.0921 1.05061e-17 7.45382)
(8.39324 1.90941e-17 7.05928)
(8.1009 -4.13928e-18 8.41306)
(8.38738 -5.01523e-19 7.95119)
(8.06048 -4.09829e-18 9.90502)
(8.92567 -7.38203e-18 8.92464)
(8.66136 -1.81228e-18 11.507)
(0.423349 -1.29435e-18 -0.223257)
(0.174003 2.51224e-22 -0.329829)
(0.778393 -1.60634e-18 -0.168616)
(0.476804 1.34657e-17 -0.254462)
(1.11429 5.65559e-19 -0.130282)
(0.777857 -7.64097e-18 -0.212409)
(1.42519 2.06957e-18 -0.104316)
(1.04781 1.39608e-18 -0.179031)
(1.69146 6.62938e-19 -0.0827712)
(1.26944 -7.27225e-19 -0.144853)
(1.88884 0 -0.0599927)
(1.41825 -6.93974e-19 -0.105025)
(1.99357 -6.39994e-19 -0.033549)
(1.4731 -1.74959e-19 -0.0559102)
(1.99887 2.51331e-20 -0.0049709)
(1.43854 -8.11382e-19 -0.00286055)
(1.91579 3.18598e-19 0.0230051)
(1.32265 1.00328e-18 0.0461381)
(1.75731 -3.22748e-19 0.0481364)
(1.13656 2.66671e-20 0.0901217)
(1.5399 -3.27402e-19 0.0679403)
(0.898697 3.23467e-19 0.126468)
(1.28034 -3.20409e-19 0.0810116)
(0.622024 -3.21642e-19 0.153734)
(0.99344 -1.56985e-19 0.0875452)
(0.319621 0 0.17229)
(0.693091 -1.49396e-20 0.0881319)
(0.00411804 1.07625e-19 0.182459)
(0.392413 -1.25275e-19 0.0837304)
(-0.313801 -1.0044e-19 0.184055)
(0.102725 -1.52568e-19 0.075683)
(-0.621643 -4.66908e-20 0.178147)
(-0.167051 2.24528e-19 0.0648158)
(-0.911587 1.18493e-19 0.166379)
(-0.408526 -9.10036e-20 0.051389)
(-1.17476 -2.57511e-19 0.148924)
(-0.613059 2.09835e-20 0.0356808)
(-1.40218 -1.92359e-19 0.125812)
(-0.772591 1.8088e-19 0.0179393)
(-1.58554 -3.21248e-21 0.097453)
(-0.879709 -4.22335e-20 -0.00203979)
(-1.71586 9.5701e-20 0.0642335)
(-0.926253 -1.28681e-19 -0.0254008)
(-1.78419 -3.72519e-19 0.0258593)
(-0.901758 -1.29861e-19 -0.0548046)
(-1.78608 4.20624e-20 -0.0191299)
(-0.790622 1.19008e-20 -0.0930554)
(-1.71801 0 -0.0740684)
(-0.577372 -1.015e-20 -0.141742)
(-1.55475 1.19616e-20 -0.138737)
(-0.247769 -1.25393e-20 -0.207234)
(-1.28203 1.26191e-19 -0.212479)
(0.229871 6.97345e-20 -0.310164)
(-0.883104 -3.53981e-21 -0.306497)
(0.920464 5.96114e-20 -0.473412)
(-0.353072 1.97564e-20 -0.441965)
(1.88494 0 -0.643727)
(0.297552 0 -0.617372)
(1.08471 0 -0.718539)
(0.207336 1.44433e-17 -0.41459)
(0.0449303 4.47546e-19 -0.52548)
(0.466168 8.48191e-18 -0.346918)
(0.224476 1.43479e-17 -0.429765)
(0.700513 -7.12905e-18 -0.289812)
(0.413634 -6.89549e-18 -0.351258)
(0.884162 -1.36372e-18 -0.232365)
(0.555095 0 -0.275195)
(0.989164 -2.08588e-18 -0.165883)
(0.625853 -6.4623e-19 -0.191741)
(0.994217 -8.67083e-19 -0.0891632)
(0.607668 3.38556e-20 -0.0975918)
(0.90853 -3.5189e-19 -0.00872263)
(0.510092 1.76e-19 -0.00172986)
(0.752391 1.84642e-19 0.0669568)
(0.346688 2.66064e-18 0.0878016)