/*--------------------------------*- C++ -*----------------------------------*\
| =========                 |                                                 |
| \\      /  F ield         | OpenFOAM: The Open Source CFD Toolbox           |
|  \\    /   O peration     | Version:  dev                                   |
|   \\  /    A nd           | Web:      www.OpenFOAM.org                      |
|    \\/     M anipulation  |                                                 |
\*---------------------------------------------------------------------------*/
FoamFile
{
    version     2.0;
    format      ascii;
    class       surfaceVectorField;
    location    "1.32";
    object      Uf;
}
// * * * * * * * * * * * * * * * * * * * * * * * * * * * * * * * * * * * * * //

dimensions      [0 1 -1 0 0 0 0];

internalField   nonuniform List<vector> 
879
(
(9.99469 2.30061e-20 0.0985732)
(9.99772 -2.71585e-19 0.068298)
(9.99109 3.02407e-19 0.130863)
(9.99532 1.9025e-20 0.101735)
(9.99805 2.60729e-19 0.0703671)
(9.98699 3.36048e-19 0.165121)
(9.99228 -2.51053e-19 0.134748)
(9.98361 6.88663e-20 0.198676)
(9.99606 -1.99402e-20 0.104535)
(9.99841 2.33086e-20 0.0721575)
(9.98905 -5.21899e-19 0.169626)
(9.99358 -3.82874e-20 0.138128)
(9.97927 2.00944e-20 0.235567)
(9.98647 -5.08447e-19 0.203632)
(9.97646 -2.22778e-20 0.271499)
(9.99682 4.00706e-21 0.106922)
(9.99874 -4.69287e-21 0.0736503)
(9.99114 -2.89518e-20 0.173475)
(9.99486 2.43334e-19 0.140962)
(9.98322 -5.47841e-19 0.240903)
(9.98936 -2.60339e-19 0.207806)
(9.97321 -2.83135e-19 0.311413)
(9.98143 1.66346e-20 0.27705)
(9.97165 -3.57554e-20 0.350049)
(9.99753 2.42375e-19 0.108877)
(9.99905 2.50251e-19 0.0748508)
(9.99322 1.35244e-21 0.176639)
(9.99613 0 0.143213)
(9.98717 3.20786e-19 0.245295)
(9.9923 2.7073e-21 0.211141)
(9.97956 2.70085e-19 0.317024)
(9.98655 1.16433e-19 0.281484)
(9.97075 4.14476e-20 0.392961)
(9.97952 -3.65956e-20 0.355503)
(9.97192 -2.81283e-19 0.434158)
(9.99825 0 0.11037)
(9.99941 7.15432e-21 0.0757353)
(9.99537 1.36555e-21 0.179048)
(9.99742 2.23015e-20 0.144816)
(9.99134 -2.05984e-19 0.248653)
(9.99527 2.19001e-19 0.213532)
(9.98626 -1.99127e-19 0.321287)
(9.99184 -2.05755e-19 0.284684)
(9.98053 -3.69068e-19 0.398036)
(9.98766 9.08705e-23 0.359383)
(9.97446 -4.32872e-19 0.479871)
(9.9834 -8.90508e-20 0.438632)
(9.97914 -1.47938e-19 0.523409)
(9.99902 3.0117e-20 0.111364)
(9.99981 4.5667e-19 0.0762711)
(9.99752 2.47187e-19 0.180632)
(9.99868 -2.13972e-19 0.145763)
(9.9955 2.15933e-19 0.250868)
(9.9981 1.93172e-19 0.214934)
(9.99302 0 0.32408)
(9.99702 3.1181e-20 0.286545)
(9.99039 2.86941e-19 0.401295)
(9.99569 6.47161e-20 0.361599)
(9.98792 2.03161e-19 0.483504)
(9.99471 2.18586e-19 0.4411)
(9.98591 -1.47682e-19 0.571564)
(9.99432 -3.49215e-19 0.526008)
(9.98485 2.39948e-19 0.666159)
(9.99489 -2.1846e-19 0.617005)
(9.99693 6.05872e-19 0.714707)
(9.99973 2.01842e-19 0.111855)
(10.0002 4.58172e-19 0.0764655)
(9.99952 -2.65788e-19 0.181391)
(9.99986 2.03233e-19 0.146067)
(9.99941 2.41968e-21 0.251905)
(10.0008 -3.07809e-20 0.215341)
(9.99947 9.77929e-20 0.325344)
(10.002 9.2342e-20 0.287034)
(9.9999 -4.62059e-21 0.402679)
(10.0035 3.88362e-21 0.362087)
(10.001 -3.50711e-19 0.484879)
(10.0058 -3.26513e-19 0.441465)
(10.0032 -4.21568e-19 0.572734)
(10.0092 -3.47715e-19 0.526072)
(10.0069 1.58679e-19 0.66685)
(10.0142 -7.7651e-20 0.616505)
(10.0126 4.47672e-19 0.767843)
(10.0211 4.3989e-19 0.713328)
(10.0306 1.07451e-20 0.817202)
(10.0004 4.57944e-19 0.111852)
(10.0007 -4.82689e-21 0.0763121)
(10.0014 4.42176e-19 0.181321)
(10.0011 3.88067e-20 0.145718)
(10.0032 6.23543e-20 0.251725)
(10.0035 -1.40514e-20 0.214706)
(10.0058 -4.49908e-21 0.325016)
(10.007 2.94672e-19 0.286076)
(10.0093 -3.28072e-19 0.40211)
(10.0112 -3.74688e-21 0.360781)
(10.0139 -3.23585e-19 0.48389)
(10.0166 -7.64245e-20 0.439663)
(10.0201 6.0815e-21 0.571083)
(10.0237 -6.45741e-20 0.523537)
(10.0283 2.11982e-19 0.664239)
(10.0329 7.05695e-20 0.612969)
(10.0391 -9.30474e-21 0.763945)
(10.0445 -4.0048e-19 0.70845)
(10.0529 -2.95104e-19 0.870822)
(10.059 -4.25572e-19 0.810623)
(10.0704 9.19669e-21 0.985373)
(10.0771 1.35294e-19 0.920061)
(10.0996 -1.32174e-19 1.03709)
(10.0012 -4.34097e-19 0.111312)
(10.001 -4.07351e-19 0.075734)
(10.0036 -4.29499e-19 0.180389)
(10.0024 -2.19263e-19 0.144666)
(10.0071 2.26496e-19 0.250299)
(10.0063 2.02575e-19 0.213039)
(10.0121 2.93759e-19 0.323051)
(10.0118 1.22943e-20 0.283697)
(10.0185 2.54209e-19 0.399533)
(10.0186 -1.70843e-19 0.357673)
(10.0264 1.89454e-19 0.480498)
(10.027 4.33534e-19 0.435675)
(10.0365 1.88024e-21 0.566602)
(10.0377 4.98798e-19 0.518382)
(10.049 -5.59254e-19 0.658365)
(10.0509 -1.27491e-19 0.606368)
(10.0645 -8.2819e-19 0.756315)
(10.067 -1.64652e-19 0.700088)
(10.0834 1.63041e-20 0.86102)
(10.0862 -1.57367e-20 0.800091)
(10.1064 -9.76006e-21 0.972909)
(10.1094 2.93729e-19 0.906876)
(10.1342 -2.85516e-19 1.09223)
(10.1373 -1.66866e-20 1.02071)
(10.1676 3.33632e-21 1.21916)
(10.1702 4.28289e-19 1.14177)
(10.2094 -1.43451e-19 1.27019)
(10.0019 -1.85858e-19 0.110195)
(10.0012 -3.09569e-20 0.0747785)
(10.0056 4.32423e-19 0.17855)
(10.0036 2.34148e-19 0.142844)
(10.011 -1.84729e-20 0.247655)
(10.0089 -1.91482e-21 0.210298)
(10.0181 -4.65502e-19 0.319512)
(10.0164 -2.32397e-19 0.279962)
(10.0271 1.59631e-20 0.394965)
(10.0255 -1.81063e-19 0.352817)
(10.0383 7.51335e-19 0.474677)
(10.0368 -4.5244e-20 0.429464)
(10.0521 3.64405e-19 0.559256)
(10.0509 3.08551e-20 0.510553)
(10.0688 2.77703e-19 0.649203)
(10.068 -2.53204e-19 0.596665)
(10.0887 6.70244e-19 0.744975)
(10.0883 5.29548e-19 0.688234)
(10.1124 2.6915e-19 0.847037)
(10.1119 4.05029e-19 0.785677)
(10.1405 2.87127e-19 0.955732)
(10.1398 -1.31616e-19 0.889333)
(10.1736 7.16263e-19 1.07125)
(10.1727 5.53501e-19 0.999429)
(10.2126 2.79298e-19 1.19374)
(10.2107 4.37051e-19 1.11614)
(10.2578 -2.91364e-19 1.32324)
(10.2553 -4.20476e-19 1.23956)
(10.3064 -4.23188e-19 1.36963)
(10.0025 4.01228e-19 0.108521)
(10.0014 1.3121e-20 0.0734891)
(10.0074 -2.1318e-19 0.175786)
(10.0048 1.94781e-20 0.140268)
(10.0145 -2.22916e-19 0.24376)
(10.0114 -2.30222e-19 0.206459)
(10.0237 5.97438e-20 0.314389)
(10.0207 0 0.274795)
(10.0354 -2.43289e-19 0.388408)
(10.0322 3.32929e-19 0.346163)
(10.0496 -7.84773e-19 0.466417)
(10.0463 -3.56037e-19 0.421049)
(10.0669 -6.04099e-19 0.54903)
(10.0635 -4.90531e-19 0.500116)
(10.0874 6.46315e-21 0.636743)
(10.0841 -6.44393e-20 0.583935)
(10.1115 2.56948e-19 0.729948)
(10.1081 -1.76453e-19 0.672917)
(10.1396 -6.46478e-21 0.828971)
(10.1359 3.79055e-19 0.767398)
(10.1723 1.41183e-19 0.934019)
(10.1683 -3.86862e-19 0.867546)
(10.2102 2.66541e-19 1.04526)
(10.2055 -1.12788e-19 0.973496)
(10.254 -2.79858e-19 1.16285)
(10.248 1.30662e-19 1.08542)
(10.3042 -5.56136e-19 1.28679)
(10.2972 -1.57526e-20 1.20344)
(10.3612 -5.63921e-19 1.4169)
(10.3527 3.80658e-19 1.32745)
(10.4258 -8.54455e-19 1.55283)
(10.4152 -4.23101e-19 1.45714)
(10.4853 -1.72231e-19 1.59195)
(10.0033 -3.78064e-19 0.106273)
(10.0017 -3.95585e-19 0.0717492)
(10.0093 0 0.172121)
(10.006 -5.94174e-21 0.136952)
(10.0179 0 0.238626)
(10.0139 1.23384e-20 0.201627)
(10.0291 2.82092e-19 0.307635)
(10.0247 0 0.268232)
(10.0432 2.14344e-19 0.379835)
(10.0385 7.04671e-20 0.337682)
(10.0604 -5.43105e-20 0.455769)
(10.0552 1.58681e-19 0.410449)
(10.0808 6.46132e-20 0.536032)
(10.0753 4.48202e-19 0.487135)
(10.1048 -2.52316e-19 0.621096)
(10.0992 2.92521e-19 0.568286)
(10.1327 -5.08103e-20 0.711302)
(10.1266 -2.17042e-20 0.654259)
(10.1649 -1.13623e-20 0.806883)
(10.158 -2.83738e-19 0.745329)
(10.2018 -6.48527e-19 0.907928)
(10.1945 -1.42268e-20 0.841613)
(10.2439 -2.53144e-19 1.01453)
(10.2356 -3.97253e-19 0.943125)
(10.2918 4.02946e-19 1.12684)
(10.2822 1.34419e-19 1.04996)
(10.3461 9.46835e-19 1.24486)
(10.335 2.72712e-19 1.16222)
(10.4072 5.29309e-19 1.36836)
(10.3942 4.52425e-20 1.27981)
(10.4755 2.78179e-19 1.49688)
(10.4602 2.46546e-19 1.40242)
(10.5514 -9.64728e-21 1.6297)
(10.5336 4.152e-19 1.52936)
(10.6355 -6.80384e-19 1.76616)
(10.6145 -4.17354e-19 1.65975)
(10.7033 -1.44079e-20 1.79306)
(10.0039 -1.18475e-20 0.103438)
(10.002 -3.10251e-21 0.0696111)
(10.011 6.86264e-21 0.16758)
(10.0068 3.47018e-19 0.132923)
(10.021 1.22585e-20 0.232304)
(10.016 2.27076e-19 0.195772)
(10.0341 -2.16837e-19 0.299293)
(10.0285 -1.23603e-20 0.260295)
(10.0506 1.3728e-20 0.369257)
(10.0443 -2.14384e-19 0.327409)
(10.0704 6.75566e-19 0.442749)
(10.0636 -1.97465e-19 0.397657)
(10.0938 6.81932e-19 0.520324)
(10.0863 4.56887e-19 0.471616)
(10.121 5.29251e-19 0.602379)
(10.1131 2.36023e-19 0.549806)
(10.1522 -2.61175e-19 0.689169)
(10.1435 7.29415e-20 0.632421)
(10.188 -2.86744e-19 0.780901)
(10.1783 -9.23302e-20 0.719654)
(10.2287 2.44732e-19 0.877626)
(10.2183 3.68003e-19 0.8117)
(10.2745 0 0.979339)
(10.263 -1.19309e-19 0.908504)
(10.326 0 1.0861)
(10.3129 -1.19855e-19 1.01003)
(10.3837 -6.54458e-19 1.19788)
(10.369 -1.22356e-19 1.11632)
(10.448 -2.46132e-19 1.3145)
(10.431 -5.31744e-19 1.22724)
(10.5192 3.86525e-19 1.43547)
(10.4997 -3.59149e-20 1.34254)
(10.5976 0 1.55998)
(10.5756 3.0974e-19 1.46156)
(10.6833 2.66295e-19 1.68726)
(10.6584 2.47817e-19 1.58334)
(10.7764 2.28358e-19 1.8168)
(10.7477 2.67392e-19 1.70733)
(10.8773 1.13314e-21 1.94782)
(10.8443 -3.27854e-20 1.83297)
(10.9483 3.32502e-20 1.95909)
(10.0043 3.66748e-19 0.100092)
(10.0024 1.52491e-22 0.0671599)
(10.0123 5.71951e-19 0.162173)
(10.0075 3.68238e-19 0.128272)
(10.0238 2.00307e-19 0.22473)
(10.0178 4.00101e-20 0.188815)
(10.0388 -1.09023e-20 0.289341)
(10.032 -2.15326e-19 0.250879)
(10.0574 -4.3118e-19 0.356715)
(10.0498 2.71919e-21 0.315359)
(10.0797 -4.20099e-19 0.427413)
(10.0713 -2.53618e-20 0.382785)
(10.1058 -1.58294e-21 0.501975)
(10.0964 -2.10471e-19 0.453699)
(10.1358 -2.33035e-19 0.580701)
(10.1257 0 0.528593)
(10.17 2.46645e-19 0.663715)
(10.159 -2.8709e-19 0.607524)
(10.209 5.80417e-19 0.751216)
(10.1966 2.50688e-19 0.690554)
(10.2529 -5.5509e-21 0.84331)
(10.2395 1.76595e-19 0.777995)
(10.302 -2.42587e-19 0.939918)
(10.2874 1.05367e-19 0.869858)
(10.3565 -2.45605e-19 1.04096)
(10.3403 1.09961e-19 0.965949)
(10.4169 5.48583e-21 1.14634)
(10.399 1.07667e-19 1.06614)
(10.4836 -3.17777e-19 1.25586)
(10.4633 6.97331e-20 1.17026)
(10.557 -1.16056e-19 1.36914)
(10.5338 -3.22985e-19 1.27808)
(10.6371 5.64942e-19 1.48543)
(10.6114 1.74728e-20 1.38912)
(10.7237 2.48711e-19 1.60391)
(10.6952 -2.26114e-19 1.50257)
(10.8169 0 1.72393)
(10.7847 0 1.61765)
(10.9168 0 1.84465)
(10.8806 2.98581e-20 1.73354)
(10.0049 3.77153e-21 0.0962631)
(10.0025 -3.37422e-19 0.0643052)
(10.0136 -1.79566e-19 0.155932)
(10.0084 -3.41035e-19 0.123029)
(10.0264 -3.87906e-19 0.215891)
(10.0197 -1.8449e-19 0.180854)
(10.0431 -2.00307e-19 0.27777)
(10.0352 -2.21611e-20 0.240043)
(10.0638 4.19213e-19 0.342268)
(10.0548 1.92699e-19 0.301569)
(10.0882 1.89353e-19 0.409887)
(10.0783 2.43922e-20 0.365893)
(10.1166 -2.0841e-19 0.481125)
(10.1055 -2.39553e-19 0.43349)
(10.1491 -5.58047e-20 0.556206)
(10.1372 1.79377e-19 0.504784)
(10.186 -2.82983e-19 0.635121)
(10.173 1.53701e-19 0.579738)
(10.2277 -1.64427e-19 0.718046)
(10.2131 -1.75044e-19 0.65828)
(10.2744 2.90935e-19 0.805199)
(10.2584 3.29044e-19 0.740787)
(10.3262 4.67986e-19 0.896495)
(10.3087 1.22822e-20 0.82743)
(10.3834 4.73506e-19 0.991711)
(10.3642 4.6216e-19 0.917901)
(10.446 1.73764e-19 1.09062)
(10.4251 1.23973e-20 1.01193)
(10.5146 6.57939e-20 1.193)
(10.4912 -1.74658e-19 1.10929)
(10.5893 -1.87047e-19 1.29855)
(10.563 4.14095e-19 1.20969)
(10.6702 -7.95762e-19 1.40671)
(10.6413 -6.52848e-20 1.31283)
(10.757 -4.82525e-19 1.51668)
(10.7251 -2.7415e-19 1.41809)
(10.8498 3.06265e-20 1.62757)
(10.8144 -1.83535e-21 1.52447)
(10.9095 3.06893e-20 1.63101)
(10.0054 -6.90752e-19 0.0919215)
(10.0021 -1.61797e-20 0.0610814)
(10.015 -3.44882e-19 0.148892)
(10.0093 -3.56102e-19 0.117099)
(10.0288 1.91651e-19 0.20589)
(10.0216 1.73259e-19 0.171968)
(10.047 3.82127e-19 0.264661)
(10.0381 1.90569e-19 0.227902)
(10.0694 -2.13316e-19 0.32598)
(10.0592 1.2425e-20 0.286131)
(10.0958 -4.16735e-19 0.390242)
(10.0846 -2.12347e-19 0.347089)
(10.1264 1.59592e-19 0.457848)
(10.1136 -2.57476e-20 0.411046)
(10.1612 3.94594e-19 0.528994)
(10.1472 -1.50728e-20 0.478398)
(10.2005 2.64486e-19 0.603581)
(10.1855 2.13706e-19 0.549152)
(10.2444 3.32041e-19 0.681688)
(10.2279 5.51348e-20 0.623075)
(10.2933 4.27659e-20 0.76361)
(10.275 2.76817e-19 0.700433)
(10.3473 5.67221e-21 0.849352)
(10.3272 -1.64521e-20 0.781562)
(10.4065 -1.13048e-20 0.938613)
(10.3846 3.86624e-20 0.866239)
(10.4709 -3.45478e-19 1.03108)
(10.4471 -4.79135e-19 0.954097)
(10.5407 1.8224e-19 1.12645)
(10.5143 -1.17374e-19 1.04482)
(10.616 5.40817e-19 1.22442)
(10.5869 8.30121e-20 1.13803)
(10.6969 4.71878e-19 1.32456)
(10.6651 2.49591e-19 1.23341)
(10.7835 2.19427e-19 1.42613)
(10.7487 4.43941e-19 1.33044)
(10.8755 -1.83856e-21 1.52813)
(10.8374 -1.88674e-21 1.4282)
(10.9315 -1.12828e-19 1.52577)
(10.0058 3.24923e-19 0.0870393)
(10.0017 3.34643e-19 0.0575369)
(10.0164 1.7886e-19 0.141017)
(10.01 0 0.110398)
(10.0312 1.72243e-19 0.194804)
(10.0235 8.69812e-21 0.162131)
(10.0506 -1.89668e-19 0.250144)
(10.041 5.41955e-21 0.214589)
(10.0745 1.26355e-20 0.307967)
(10.0632 -1.82187e-19 0.269188)
(10.1026 1.89642e-19 0.368589)
(10.0901 3.66569e-19 0.326489)
(10.1349 -2.05176e-19 0.432232)
(10.1208 0 0.386538)
(10.1718 -2.00692e-19 0.499118)
(10.156 -2.04826e-19 0.449574)
(10.2133 -1.52676e-21 0.569198)
(10.1962 -1.73735e-19 0.515811)
(10.2591 -1.76976e-21 0.642402)
(10.2408 -2.50054e-20 0.585057)
(10.3097 2.16261e-19 0.718936)
(10.2894 -2.05235e-19 0.657276)
(10.3652 1.7267e-20 0.79893)
(10.3428 1.17283e-20 0.732772)
(10.4257 -4.41537e-19 0.882155)
(10.4013 -1.95346e-19 0.811554)
(10.4912 -2.45158e-19 0.968229)
(10.4646 1.69881e-19 0.893245)
(10.5616 -2.19997e-19 1.05675)
(10.5325 2.12046e-19 0.977366)
(10.6371 -2.1688e-19 1.14733)
(10.6054 -4.68753e-21 1.06346)
(10.7177 2.20449e-19 1.23954)
(10.6835 -3.27259e-19 1.15116)
(10.8037 2.17186e-19 1.33272)
(10.7666 -5.00584e-20 1.24001)
(10.8947 -1.15819e-19 1.42601)
(10.8546 -5.51241e-20 1.32928)
(10.9473 -5.64579e-21 1.41818)
(10.0061 0 0.0816212)
(10.0014 0 0.0537083)
(10.0175 -1.74365e-19 0.132257)
(10.0104 1.23506e-21 0.102954)
(10.0335 -1.62393e-19 0.182646)
(10.0253 -1.12459e-20 0.151249)
(10.054 1.2238e-20 0.234349)
(10.0438 5.23098e-21 0.200158)
(10.079 1.83115e-19 0.288366)
(10.0669 1.80336e-19 0.250891)
(10.1086 1.70847e-19 0.345053)
(10.095 -2.12606e-21 0.30417)
(10.1425 0 0.404474)
(10.1272 -1.81094e-19 0.360097)
(10.1809 -1.7711e-19 0.466789)
(10.1638 0 0.418641)
(10.224 -1.97733e-19 0.532114)
(10.2052 -1.88706e-19 0.480025)
(10.2715 -2.34205e-19 0.600389)
(10.2512 -1.36217e-20 0.544416)
(10.3233 -4.15831e-19 0.671608)
(10.301 -4.04363e-19 0.611663)
(10.3796 -2.06679e-19 0.74585)
(10.3551 -1.43569e-20 0.681683)
(10.4407 4.33154e-19 0.822987)
(10.414 0 0.75449)
(10.5066 6.39976e-19 0.90263)
(10.4776 2.61002e-20 0.829824)
(10.5773 4.33924e-19 0.984283)
(10.5459 2.41598e-20 0.907187)
(10.6528 -1.17854e-19 1.06748)
(10.619 2.34616e-19 0.986091)
(10.7332 -6.06043e-19 1.1518)
(10.697 -1.5115e-19 1.06615)
(10.8185 -3.3003e-19 1.2367)
(10.7796 -2.80064e-19 1.14694)
(10.9084 5.81715e-20 1.32151)
(10.8668 4.91255e-20 1.2279)
(10.9583 2.19268e-19 1.30841)
(10.0063 1.27163e-21 0.0757118)
(10.0013 0 0.0496571)
(10.0185 1.68384e-19 0.122596)
(10.0108 1.26579e-21 0.0947945)
(10.0356 1.60762e-19 0.169385)
(10.0266 -1.5099e-19 0.139285)
(10.0571 1.78513e-19 0.217345)
(10.0462 -3.37609e-22 0.184604)
(10.0831 -1.04764e-20 0.267299)
(10.0704 3.45289e-19 0.231357)
(10.1139 -3.6399e-19 0.319741)
(10.0992 -1.82771e-19 0.280288)
(10.1491 -1.80741e-19 0.374761)
(10.1325 1.60161e-19 0.331827)
(10.1886 -1.21281e-20 0.432371)
(10.1704 -1.73385e-19 0.385846)
(10.2327 6.34638e-22 0.49277)
(10.2124 -1.21143e-20 0.442387)
(10.281 -1.88549e-19 0.556056)
(10.2587 1.24191e-20 0.5018)
(10.3335 8.28989e-21 0.622074)
(10.3092 -1.99322e-19 0.563997)
(10.3903 1.98083e-19 0.690644)
(10.3638 -1.80813e-19 0.628556)
(10.4516 -4.18809e-19 0.761585)
(10.4231 -1.21093e-20 0.695275)
(10.5177 -6.07221e-19 0.834566)
(10.4871 -3.3164e-19 0.763986)
(10.5886 -1.81058e-19 0.909137)
(10.5557 -2.7371e-19 0.834343)
(10.6642 2.00976e-19 0.984863)
(10.629 1.31098e-20 0.905926)
(10.7444 1.84214e-19 1.06134)
(10.7068 8.65529e-20 0.978346)
(10.829 1.09466e-19 1.13814)
(10.789 2.04994e-19 1.05122)
(10.9179 2.14562e-19 1.21473)
(10.8753 -9.87318e-20 1.12413)
(10.9655 4.38007e-21 1.19655)
(10.0066 0 0.0693565)
(10.0014 -1.44871e-19 0.04531)
(10.0192 -3.27091e-19 0.112116)
(10.0114 4.66075e-21 0.086084)
(10.0372 -3.15364e-19 0.155033)
(10.0275 -1.70863e-19 0.126401)
(10.0598 1.72297e-19 0.199131)
(10.0482 -4.95329e-21 0.167831)
(10.0867 1.66614e-19 0.244879)
(10.0735 8.60457e-21 0.210589)
(10.1183 3.56383e-19 0.292843)
(10.1029 1.66059e-19 0.255117)
(10.1543 1.67e-19 0.343325)
(10.1365 3.54611e-19 0.302073)
(10.1946 -1.7315e-19 0.396302)
(10.175 -1.76806e-19 0.351561)
(10.2388 0 0.45185)
(10.2173 1.03189e-21 0.403455)
(10.2873 1.33398e-21 0.510045)
(10.2636 1.72729e-19 0.457824)
(10.3402 -3.93863e-19 0.570649)
(10.3144 1.90908e-19 0.514531)
(10.3975 -3.96906e-19 0.633324)
(10.3697 -2.20164e-19 0.573195)
(10.4593 7.78367e-20 0.697824)
(10.4296 9.33372e-20 0.633575)
(10.5258 1.12599e-20 0.763897)
(10.494 9.05888e-20 0.695515)
(10.5969 -7.43017e-20 0.831215)
(10.563 2.04292e-20 0.758765)
(10.6725 -1.0468e-19 0.899421)
(10.6363 4.87404e-20 0.822989)
(10.7524 1.07888e-19 0.968158)
(10.7139 4.28215e-20 0.88784)
(10.8364 -8.87577e-21 1.03705)
(10.7955 1.1104e-19 0.952971)
(10.9242 -3.14841e-19 1.10569)
(10.8809 -1.38626e-20 1.01803)
(10.9699 -2.08667e-19 1.08263)
(10.007 -1.39414e-19 0.0625585)
(10.0016 -2.36457e-21 0.0405656)
(10.0201 1.63712e-19 0.100965)
(10.012 2.39697e-22 0.076851)
(10.0386 1.48339e-19 0.139677)
(10.0286 3.07314e-19 0.112801)
(10.0621 -1.72846e-19 0.179677)
(10.0497 1.48222e-19 0.149906)
(10.0899 8.6074e-21 0.221267)
(10.0758 -1.67237e-19 0.188628)
(10.1216 1.64648e-19 0.264822)
(10.1055 8.67197e-21 0.229092)
(10.1577 4.35366e-22 0.310717)
(10.1389 -1.66352e-19 0.271522)
(10.198 2.39854e-21 0.359039)
(10.1774 1.70208e-19 0.316257)
(10.2425 1.78711e-19 0.409686)
(10.22 1.0603e-21 0.363255)
(10.2913 3.67605e-19 0.462489)
(10.2667 8.94591e-20 0.412238)
(10.3446 3.69509e-19 0.51719)
(10.3182 1.06393e-19 0.463004)
(10.4026 2.83786e-19 0.573536)
(10.3742 1.57535e-19 0.515384)
(10.4651 1.0646e-19 0.631344)
(10.4346 1.76589e-19 0.569214)
(10.532 1.00159e-19 0.690421)
(10.4995 9.28475e-20 0.624326)
(10.6033 1.46966e-19 0.750507)
(10.5686 6.09814e-21 0.680498)
(10.6787 2.00416e-19 0.811296)
(10.6419 1.44065e-19 0.737452)
(10.7581 4.59739e-20 0.872459)
(10.719 -8.66688e-20 0.794884)
(10.8412 1.06101e-19 0.933659)
(10.7999 -4.35489e-21 0.852473)
(10.9279 9.53608e-20 0.99456)
(10.8841 2.0512e-19 0.909887)
(10.9716 -6.67031e-21 0.966851)
(10.0073 1.40674e-19 0.0552695)
(10.002 1.53798e-19 0.0354509)
(10.021 1.4927e-19 0.0891547)
(10.0125 -9.06056e-21 0.0669666)
(10.04 3.06392e-19 0.123508)
(10.0295 7.37864e-21 0.0985231)
(10.0636 1.52653e-19 0.159296)
(10.0509 7.7689e-21 0.131407)
(10.0916 -1.66636e-19 0.196816)
(10.0766 0 0.166006)
(10.1234 -3.31666e-19 0.23614)
(10.1064 -1.75874e-19 0.202377)
(10.1593 8.74132e-21 0.277372)
(10.1402 -8.00037e-20 0.240282)
(10.1997 1.6857e-19 0.320651)
(10.1787 1.63269e-19 0.279874)
(10.2447 -9.05858e-20 0.365891)
(10.2218 -1.02828e-20 0.321352)
(10.2943 -1.78996e-19 0.412831)
(10.2694 -1.75152e-19 0.364515)
(10.3484 -1.11484e-19 0.461271)
(10.3215 1.68157e-20 0.409142)
(10.4069 4.7298e-20 0.51109)
(10.378 -6.66587e-20 0.455134)
(10.4698 1.62641e-19 0.562158)
(10.4388 -1.91652e-20 0.502369)
(10.537 -3.82949e-21 0.614292)
(10.5038 1.84673e-19 0.550677)
(10.6081 3.02806e-21 0.667254)
(10.5728 -5.0563e-20 0.599851)
(10.6831 -1.51199e-19 0.72077)
(10.6456 9.58004e-20 0.649651)
(10.7618 -1.38414e-19 0.774548)
(10.7221 -3.38324e-19 0.699812)
(10.8439 9.74245e-20 0.828277)
(10.802 1.00987e-19 0.750056)
(10.9291 1.00272e-19 0.881668)
(10.885 9.4842e-20 0.800083)
(10.9709 -8.91216e-20 0.84966)
(10.0078 -2.64796e-22 0.0475011)
(10.0023 4.3985e-21 0.0299214)
(10.0217 -1.54421e-19 0.0767835)
(10.0129 1.28322e-19 0.0566551)
(10.0407 -2.98908e-19 0.10688)
(10.0298 -1.53621e-19 0.0838762)
(10.064 -1.48902e-19 0.13854)
(10.0511 -1.44288e-19 0.11272)
(10.0916 -1.00504e-20 0.171833)
(10.0766 7.4162e-20 0.143044)
(10.1237 8.27682e-20 0.20664)
(10.1066 -7.64173e-20 0.174724)
(10.1602 7.91847e-20 0.242881)
(10.1411 4.69921e-21 0.207648)
(10.2013 -2.07362e-20 0.280668)
(10.1802 -1.0444e-20 0.24186)
(10.247 -9.7398e-20 0.320047)
(10.2239 -3.06546e-20 0.277557)
(10.2972 2.62757e-20 0.360879)
(10.272 -6.64276e-20 0.314716)
(10.3518 6.28601e-20 0.403017)
(10.3245 2.76019e-20 0.353163)
(10.4106 -1.35029e-19 0.446353)
(10.3812 3.99457e-20 0.39277)
(10.4736 3.47086e-21 0.490749)
(10.442 -1.77376e-19 0.433419)
(10.5405 1.3667e-19 0.53602)
(10.5068 -3.78711e-20 0.474952)
(10.6112 4.47253e-20 0.581954)
(10.5753 1.34728e-19 0.517182)
(10.6856 -9.6523e-20 0.628313)
(10.6475 -4.51652e-20 0.559902)
(10.7633 -9.22128e-20 0.674849)
(10.7232 -9.50461e-20 0.60289)
(10.8443 9.83937e-20 0.721302)
(10.802 8.99934e-22 0.645913)
(10.928 -9.9978e-20 0.767427)
(10.8837 6.70861e-21 0.68874)
(10.968 -1.02037e-19 0.731167)
(10.008 1.36603e-19 0.0393844)
(10.0023 0 0.0240579)
(10.0219 1.27577e-19 0.0641656)
(10.0131 1.31565e-19 0.046144)
(10.0406 4.97667e-21 0.0900643)
(10.0298 -2.06303e-22 0.0691456)
(10.0638 8.54232e-20 0.117422)
(10.051 -6.10935e-20 0.0936083)
(10.0918 5.53223e-21 0.146031)
(10.0769 1.27486e-20 0.11921)
(10.1244 -1.56334e-19 0.175765)
(10.1073 -3.42817e-21 0.145799)
(10.1617 -8.73459e-20 0.206632)
(10.1424 -8.98879e-20 0.17342)
(10.2034 -2.06736e-20 0.238747)
(10.1821 7.67733e-20 0.202158)
(10.2495 1.1146e-21 0.272187)
(10.226 -2.06398e-20 0.232104)
(10.2999 -6.50198e-20 0.306886)
(10.2743 8.08322e-20 0.263248)
(10.3545 4.09979e-21 0.342719)
(10.3268 -2.44647e-20 0.295478)
(10.4133 -3.65895e-21 0.379558)
(10.3834 2.1035e-19 0.328674)
(10.476 -2.19952e-19 0.417265)
(10.4439 -8.84161e-20 0.362719)
(10.5425 -3.98998e-20 0.455676)
(10.5082 -1.75887e-19 0.397472)
(10.6126 4.23016e-20 0.494608)
(10.5762 1.33253e-19 0.432775)
(10.6861 -4.36171e-20 0.533865)
(10.6476 -4.62385e-20 0.468455)
(10.7628 7.10452e-22 0.573244)
(10.7222 -8.62445e-20 0.504329)
(10.8425 -9.34451e-20 0.612536)
(10.7998 1.32448e-19 0.540213)
(10.9248 4.64709e-21 0.651548)
(10.8802 -9.34874e-20 0.575926)
(10.963 9.55722e-20 0.611307)
(10.0079 -4.6746e-21 0.0310752)
(10.0021 -3.9721e-21 0.0181315)
(10.0219 -8.38206e-23 0.0513439)
(10.0129 -7.40941e-20 0.0353307)
(10.0407 -6.82438e-20 0.072849)
(10.0301 1.27806e-20 0.0539199)
(10.0643 -1.3534e-19 0.0955086)
(10.0518 -3.46674e-21 0.073687)
(10.0927 3.54127e-21 0.1191)
(10.078 -6.49784e-20 0.0942752)
(10.1258 6.45488e-20 0.1436)
(10.1088 6.64379e-20 0.115679)
(10.1634 7.90157e-20 0.169072)
(10.1442 -5.49433e-20 0.137955)
(10.2053 7.66302e-20 0.195592)
(10.1839 3.85675e-21 0.161151)
(10.2515 6.13986e-20 0.223183)
(10.228 -1.40449e-22 0.185303)
(10.3019 1.22465e-19 0.25179)
(10.2761 -5.48095e-20 0.210398)
(10.3563 1.8774e-19 0.281309)
(10.3284 1.21602e-19 0.23636)
(10.4147 1.23098e-19 0.311631)
(10.3846 6.65622e-21 0.263093)
(10.477 -4.31045e-20 0.342636)
(10.4447 -8.07263e-20 0.290494)
(10.5428 2.18226e-21 0.374188)
(10.5084 -2.01572e-21 0.318447)
(10.6121 4.21489e-20 0.406139)
(10.5756 4.40993e-20 0.346822)
(10.6847 -9.01004e-20 0.438331)
(10.646 -7.16321e-22 0.375481)
(10.7603 4.93177e-20 0.470601)
(10.7196 3.67821e-20 0.404282)
(10.8386 1.32494e-19 0.502791)
(10.7959 7.67789e-21 0.433081)
(10.9195 0 0.534751)
(10.8748 0 0.46174)
(10.956 4.34341e-20 0.490138)
(10.0081 -7.53205e-20 0.0225185)
(10.002 -4.06788e-21 0.0119381)
(10.0223 -6.04111e-20 0.0380125)
(10.0134 -1.42598e-19 0.0239562)
(10.0416 7.91001e-20 0.0547417)
(10.0312 8.60789e-21 0.0379222)
(10.0656 6.84246e-20 0.0723373)
(10.0533 7.88188e-20 0.0528998)
(10.0944 0 0.0906523)
(10.0797 0 0.068443)
(10.1276 -5.65554e-20 0.109742)
(10.1106 -1.74162e-20 0.0846122)
(10.1653 -1.31951e-19 0.129656)
(10.146 3.27401e-20 0.101478)
(10.2072 -7.49519e-20 0.150414)
(10.1858 -1.13262e-19 0.119058)
(10.2532 -1.19599e-19 0.172012)
(10.2296 -1.4429e-22 0.137356)
(10.3033 -5.54898e-20 0.194405)
(10.2776 -8.17882e-20 0.156353)
(10.3574 -6.46528e-20 0.217519)
(10.3295 7.94246e-20 0.175998)
(10.4153 -2.02946e-19 0.241263)
(10.3852 -1.04086e-19 0.196222)
(10.4769 -3.84438e-20 0.265539)
(10.4446 -8.30396e-20 0.216943)
(10.542 4.10896e-20 0.290235)
(10.5075 4.2278e-20 0.238072)
(10.6104 0 0.315232)
(10.5738 3.99267e-20 0.25951)
(10.6818 1.29906e-19 0.340407)
(10.6432 -8.13841e-20 0.281153)
(10.7562 -6.10984e-21 0.365635)
(10.7155 8.89582e-20 0.302896)
(10.8331 -1.28736e-19 0.390796)
(10.7905 -2.35543e-19 0.324635)
(10.9124 4.47041e-20 0.415776)
(10.8679 1.4635e-19 0.346268)
(10.9476 -8.23633e-20 0.367707)
(10.0091 -7.35024e-20 0.0134527)
(10.0028 3.21959e-20 0.00476321)
(10.0238 -7.10847e-20 0.0244509)
(10.0157 -1.0619e-19 0.0119073)
(10.0433 8.6373e-21 0.0367526)
(10.0342 2.55641e-23 0.0213717)
(10.0675 8.33222e-21 0.04963)
(10.0563 4.28649e-22 0.0314414)
(10.0963 -1.79291e-20 0.0629517)
(10.0827 -8.34177e-21 0.0418524)
(10.1295 7.4487e-20 0.0768001)
(10.1135 -1.78721e-20 0.0527296)
(10.1671 5.16909e-20 0.0912209)
(10.1487 9.16153e-20 0.0641185)
(10.2088 -3.62172e-20 0.106223)
(10.1882 -1.06578e-20 0.0760079)
(10.2546 3.86167e-20 0.121801)
(10.2317 -8.88291e-21 0.0883852)
(10.3044 5.70211e-20 0.137929)
(10.2792 2.03869e-20 0.101233)
(10.358 3.8839e-20 0.15456)
(10.3305 3.81262e-20 0.114519)
(10.4152 1.92991e-20 0.171634)
(10.3855 1.07343e-21 0.128195)
(10.4761 0 0.189082)
(10.4441 0 0.142205)
(10.5402 4.10889e-20 0.206826)
(10.5061 1.91657e-20 0.156487)
(10.6076 -4.3816e-20 0.224784)
(10.5713 4.09951e-20 0.170976)
(10.6778 -1.23703e-19 0.24287)
(10.6395 -4.43688e-20 0.1856)
(10.7509 -1.47156e-19 0.260999)
(10.7105 -4.23147e-20 0.200289)
(10.8263 4.7566e-20 0.279087)
(10.784 -1.059e-19 0.214974)
(10.9041 1.55671e-20 0.297056)
(10.8599 2.11979e-19 0.229589)
(10.9378 -1.31116e-19 0.244075)
(10.0126 -1.76629e-21 0.00188651)
(9.99607 3.42536e-21 -0.00538514)
(10.0278 -3.27539e-20 0.00750678)
(10.0038 -4.14925e-21 -0.000698123)
(10.0473 -8.39202e-21 0.014724)
(10.0157 2.90622e-21 0.00447402)
(10.0714 -1.66915e-20 0.0224592)
(10.0307 5.50529e-21 0.0096004)
(10.1001 -8.31339e-21 0.0305544)
(10.0502 -8.55428e-21 0.0149112)
(10.1331 0 0.0390541)
(10.0746 0 0.0205179)
(10.1703 2.7336e-20 0.0479609)
(10.1037 0 0.0264202)
(10.2116 1.73707e-20 0.0572526)
(10.1374 2.29735e-20 0.0325957)
(10.2568 -2.75557e-20 0.0669072)
(10.1754 -4.72261e-21 0.039031)
(10.3059 1.00918e-21 0.0768988)
(10.2177 -4.08908e-20 0.0457141)
(10.3587 -7.29629e-22 0.0871933)
(10.2641 2.3661e-20 0.0526263)
(10.4151 -1.87772e-20 0.0977491)
(10.3144 -9.80655e-22 0.0597414)
(10.4749 1.97245e-20 0.108519)
(10.3685 0 0.0670286)
(10.538 1.90585e-20 0.119453)
(10.4262 1.97138e-20 0.074454)
(10.6041 4.04853e-20 0.130498)
(10.4874 -9.66431e-21 0.0819814)
(10.6731 3.94666e-20 0.1416)
(10.5517 3.09356e-20 0.0895735)
(10.7446 2.71018e-22 0.152707)
(10.6189 0 0.097193)
(10.8185 6.31948e-20 0.163768)
(10.6889 -1.93008e-20 0.104804)
(10.8946 6.11877e-20 0.174737)
(10.7612 6.29577e-20 0.112371)
(10.8358 1.98092e-20 0.119866)
(9.99346 6.58911e-22 -0.00251859)
(9.99271 3.2641e-20 -0.00140477)
(9.99783 1.72107e-20 0.00059765)
(10.0083 1.38443e-20 0.00289984)
(10.0239 0 0.00541887)
(10.0445 0 0.00816031)
(10.07 -4.41606e-21 0.0111114)
(10.1003 2.39011e-22 0.0142529)
(10.1352 -1.84956e-20 0.017569)
(10.1747 -1.75542e-20 0.0210457)
(10.2185 2.33884e-20 0.0246674)
(10.2664 1.83195e-20 0.0284159)
(10.3184 0 0.0322715)
(10.3741 -9.83673e-21 0.0362128)
(10.4334 -1.94944e-20 0.040218)
(10.4959 -9.65702e-21 0.0442645)
(10.5615 -2.01624e-20 0.0483303)
(10.6299 -1.96037e-20 0.0523941)
(10.7007 2.03848e-20 0.0564362)
)
;

boundaryField
{
    inlet
    {
        type            calculated;
        value           nonuniform List<vector> 
30
(
(10 0 0)
(10 0 0)
(10 0 0)
(10 0 0)
(10 0 0)
(10 0 0)
(10 0 0)
(10 0 0)
(10 0 0)
(10 0 0)
(10 0 0)
(10 0 0)
(10 0 0)
(10 0 0)
(10 0 0)
(10 0 0)
(10 0 0)
(10 0 0)
(10 0 0)
(10 0 0)
(10 0 0)
(10 0 0)
(10 0 0)
(10 0 0)
(10 0 0)
(10 0 0)
(10 0 0)
(10 0 0)
(10 0 0)
(10 0 0)
)
;
    }
    outlet
    {
        type            calculated;
        value           nonuniform 0();
    }
    flap
    {
        type            calculated;
        value           nonuniform 0();
    }
    upperWall
    {
        type            calculated;
        value           uniform (0 0 0);
    }
    lowerWall
    {
        type            calculated;
        value           nonuniform 0();
    }
    frontAndBack
    {
        type            empty;
        value           nonuniform 0();
    }
    procBoundary0to1
    {
        type            processor;
        value           nonuniform List<vector> 
18
(
(10.9858 3.24377e-20 2.07885)
(11.0233 3.06824e-20 1.96478)
(10.9831 -2.92407e-20 1.84924)
(10.9485 -7.4325e-23 1.73846)
(10.9728 0 1.62967)
(10.9905 -1.1229e-19 1.51863)
(11.0027 -3.27364e-21 1.40557)
(11.0106 2.16885e-19 1.29055)
(11.0155 -1.03816e-19 1.17359)
(11.0177 -1.01467e-19 1.05481)
(11.0171 1.98997e-19 0.93449)
(11.0144 -4.83877e-19 0.81304)
(11.0095 -9.69501e-20 0.690118)
(11.0025 0 0.566352)
(10.9939 -1.61878e-21 0.440475)
(10.9838 -1.92348e-19 0.314837)
(10.9726 2.12628e-20 0.185573)
(10.7738 6.12052e-20 0.0604391)
)
;
    }
    procBoundary0to3
    {
        type            processor;
        value           nonuniform List<vector> 
34
(
(9.99744 3.18501e-20 0.0660091)
(9.99004 5.84406e-19 0.126537)
(9.98514 2.75311e-19 0.160018)
(9.9809 3.08088e-19 0.192971)
(9.97535 3.05388e-19 0.229311)
(9.9715 2.56234e-19 0.264884)
(9.96685 2.54482e-19 0.304539)
(9.96396 0 0.343113)
(9.96134 1.5808e-19 0.386152)
(9.96063 2.31855e-19 0.427719)
(9.96098 -4.96243e-21 0.474033)
(9.96374 -1.53155e-19 0.518389)
(9.96828 -3.10376e-19 0.567687)
(9.97524 -3.09528e-19 0.614494)
(9.97219 4.66745e-19 0.712562)