/*--------------------------------*- C++ -*----------------------------------*\
| =========                 |                                                 |
| \\      /  F ield         | OpenFOAM: The Open Source CFD Toolbox           |
|  \\    /   O peration     | Version:  dev                                   |
|   \\  /    A nd           | Web:      www.OpenFOAM.org                      |
|    \\/     M anipulation  |                                                 |
\*---------------------------------------------------------------------------*/
FoamFile
{
    version     2.0;
    format      ascii;
    class       volVectorField;
    location    "4.72";
    object      U;
}
// * * * * * * * * * * * * * * * * * * * * * * * * * * * * * * * * * * * * * //

dimensions      [0 1 -1 0 0 0 0];

internalField   nonuniform List<vector> 
465
(
(4.28012 0 0.272966)
(3.7356 0 0.300154)
(3.16578 0 0.328022)
(2.57509 9.28678e-20 0.355592)
(1.96986 -3.86205e-19 0.381359)
(1.35852 2.95846e-19 0.403131)
(0.753601 -8.09207e-19 0.413127)
(0.04063 -1.32885e-21 0.202094)
(-0.0567288 4.2708e-19 -0.311307)
(5.19049 -8.85262e-21 0.694881)
(4.65914 -8.54752e-21 0.755969)
(4.09735 5.20165e-19 0.814921)
(3.50863 9.03418e-20 0.86816)
(2.89845 1.87477e-19 0.910328)
(2.27565 1.64647e-18 0.932616)
(1.65089 -3.15203e-18 0.916156)
(1.00102 1.38837e-18 0.79124)
(0.615224 -2.94512e-18 0.509682)
(5.6318 -6.2562e-19 1.13879)
(5.14364 1.63701e-19 1.24439)
(4.62226 1.71258e-19 1.34765)
(4.06832 -1.77668e-19 1.44282)
(3.48307 -1.83605e-19 1.52125)
(2.86775 0 1.56964)
(2.22117 -3.46847e-18 1.56542)
(1.49851 -2.05402e-19 1.47076)
(0.882687 8.19783e-19 1.2508)
(5.89185 -1.64083e-20 1.5385)
(5.4427 -3.37444e-19 1.68765)
(4.95974 1.16209e-18 1.83672)
(4.44043 3.44276e-19 1.97909)
(3.88094 -3.22129e-18 2.10501)
(3.27477 5.86528e-18 2.20078)
(2.61257 -2.61281e-18 2.24679)
(1.84521 3.80132e-19 2.22206)
(1.09432 -8.11014e-19 2.11937)
(6.07928 0 1.90941)
(5.66019 1.57821e-19 2.09966)
(5.20761 1.6361e-19 2.29367)
(4.71664 -3.38194e-19 2.4851)
(4.17981 3.48258e-19 2.66481)
(3.586 -3.5328e-19 2.82058)
(2.92333 5.82542e-18 2.93653)
(2.15522 -5.69206e-18 2.9933)
(1.31129 0 3.01532)
(6.24246 1.02783e-18 2.25989)
(5.84678 2.61517e-18 2.48956)
(5.41811 -2.83432e-18 2.72802)
(4.95031 0 2.96991)
(4.43406 0 3.20729)
(3.85621 -5.50619e-18 3.42902)
(3.20311 5.59346e-18 3.62108)
(2.46287 -1.78994e-19 3.752)
(1.54605 0 3.88393)
(6.40401 -2.17023e-18 2.59441)
(6.02838 4.60863e-18 2.86247)
(5.62033 -4.75054e-18 3.14511)
(5.17293 2.35748e-18 3.4381)
(4.67631 -1.60285e-19 3.73474)
(4.11701 4.969e-19 4.02416)
(3.47687 8.32527e-20 4.29289)
(2.77708 -1.05484e-20 4.48866)
(1.79718 0 4.71289)
(6.57482 2.08652e-18 2.91488)
(6.21852 -1.4285e-19 3.22069)
(5.83046 2.3807e-18 3.54737)
(5.40316 -2.26845e-18 3.89179)
(4.92646 -4.82478e-18 4.2484)
(4.38738 -9.71155e-20 4.60587)
(3.75958 5.07813e-18 4.95157)
(3.10229 1.03542e-20 5.20883)
(2.0626 -2.6842e-21 5.51551)
(6.76039 1.36433e-19 3.22114)
(6.42459 2.37312e-18 3.56426)
(6.0578 -2.26906e-18 3.9348)
(5.6523 0 4.33105)
(5.1975 0 4.74875)
(4.68074 4.75372e-18 5.17562)
(4.0636 -4.994e-18 5.60112)
(3.44572 0 5.92467)
(2.34412 2.6436e-21 6.3159)
(6.96368 0 3.51166)
(6.65104 0 3.89146)
(6.30858 2.36084e-18 4.30557)
(5.92836 -2.22156e-18 4.75396)
(5.49932 -4.51743e-18 5.23445)
(5.00885 4.58708e-18 5.73432)
(4.40265 7.37585e-20 6.24675)
(3.8199 0 6.65004)
(2.64891 -7.65489e-20 7.14188)
(7.18612 -2.01561e-18 3.78386)
(6.90054 0 4.19914)
(6.58732 -3.30268e-20 4.65605)
(6.23815 0 5.15658)
(5.8411 4.13444e-18 5.70169)
(5.3839 -4.33167e-18 6.28024)
(4.79385 0 6.89209)
(4.24468 0 7.39873)
(2.99113 7.51263e-20 8.02562)
(7.42794 6.37971e-20 4.03418)
(7.17438 0 4.48269)
(6.89691 -1.22574e-19 4.98043)
(6.58718 0 5.53219)
(6.23195 1.28099e-19 6.14311)
(5.81987 0 6.80699)
(5.25951 0 7.53514)
(4.7509 4.01949e-18 8.18205)
(3.39731 -4.33959e-18 9.00867)
(7.68862 -2.03695e-18 4.25843)
(7.47249 1.88407e-18 4.73624)
(7.23816 1.20008e-19 5.27071)
(6.97847 -1.87895e-18 5.87026)
(6.6798 5.39858e-18 6.54555)
(6.3327 -3.55204e-18 7.2995)
(5.82976 -3.64002e-18 8.16166)
(5.3877 3.75748e-18 9.00205)
(3.91801 0 10.1537)
(7.96639 3.69271e-18 4.45207)
(7.79303 -1.80339e-18 4.95332)
(7.60953 0 5.51734)
(7.41191 0 6.15648)
(7.18913 -1.5041e-18 6.88784)
(6.93719 -5.69345e-19 7.7274)
(6.54331 1.70535e-18 8.73049)
(6.23685 0 9.82692)
(4.65479 8.22206e-20 11.5717)
(8.25758 1.72635e-18 4.61097)
(8.13155 0 5.12774)
(8.0059 -1.68806e-18 5.71063)
(7.88184 1.69824e-18 6.3748)
(7.75559 0 7.14233)
(7.63685 4.07086e-19 8.04158)
(7.43484 0 9.15137)
(7.42707 0 10.505)
(5.78558 -1.61617e-19 13.5017)
(0.117568 -4.83502e-22 -0.102895)
(0.281137 0 -0.120574)
(0.48432 -1.5576e-20 -0.103361)
(0.68002 1.31696e-20 -0.083137)
(0.850145 -3.75886e-22 -0.0662283)
(0.993694 0 -0.0527585)
(1.11496 5.41905e-21 -0.0420794)
(1.21774 -6.03716e-21 -0.0333427)
(1.30408 0 -0.0256271)
(1.37465 -2.46387e-21 -0.0182881)
(0.099866 -3.04553e-20 -0.223135)
(0.247611 -2.99541e-20 -0.262961)
(0.44937 1.73526e-21 -0.232935)
(0.643268 -2.35228e-20 -0.195116)
(0.815838 2.39446e-20 -0.162824)
(0.966807 -4.38712e-23 -0.136967)
(1.09916 -2.21866e-20 -0.11631)
(1.21555 2.33083e-20 -0.0992086)
(1.31837 -7.57089e-21 -0.0839211)
(1.40898 1.0055e-20 -0.0691486)
(0.0726187 0 -0.37329)
(0.178377 6.10203e-20 -0.41586)
(0.365457 -1.03646e-19 -0.372148)
(0.53801 4.90009e-20 -0.317557)
(0.69086 1.97024e-23 -0.269688)
(0.825345 -1.28512e-22 -0.230866)
(0.943192 -6.56095e-22 -0.199593)
(1.04675 -1.31742e-21 -0.173506)
(1.13881 1.76567e-20 -0.150446)
(1.22097 -2.25599e-20 -0.128645)
(0.0480517 9.98609e-23 -0.522071)
(0.0993017 1.14629e-19 -0.546315)
(0.275849 -5.5746e-20 -0.487318)
(0.424603 0 -0.417469)
(0.554255 7.28554e-22 -0.355928)
(0.667514 -4.35177e-20 -0.305811)
(0.764959 2.0679e-21 -0.265242)
(0.8491 1.87499e-20 -0.231936)
(0.923399 2.05729e-20 -0.202802)
(0.989345 2.22885e-20 -0.176003)
(0.0270436 1.1019e-19 -0.666418)
(0.0128291 -8.32499e-21 -0.65548)
(0.183702 -9.50842e-20 -0.581275)
(0.306403 -2.87925e-21 -0.497361)
(0.41094 6.90666e-22 -0.423663)
(0.49886 -6.71978e-22 -0.36392)
(0.571934 0 -0.314901)
(0.632882 5.23435e-21 -0.275872)
(0.685245 -5.14259e-21 -0.243006)
(0.731137 2.50918e-20 -0.213025)
(0.0115245 3.47411e-21 -0.801606)
(-0.0774692 1.00993e-19 -0.741854)
(0.090887 -1.03419e-19 -0.652153)
(0.183507 5.70384e-21 -0.554254)
(0.260453 -2.14372e-23 -0.468912)
(0.320508 6.82937e-22 -0.400197)
(0.367028 0 -0.346536)
(0.40395 -2.64647e-21 -0.303621)
(0.434005 5.21693e-21 -0.267384)
(0.459146 -2.55774e-20 -0.234914)
(0.0029226 -1.03497e-19 -0.921295)
(-0.167326 9.68507e-20 -0.802601)
(-0.00377526 0 -0.698171)
(0.0552873 -9.14537e-20 -0.584541)
(0.101957 8.64513e-20 -0.490965)
(0.134582 2.6867e-21 -0.4174)
(0.156212 4.32816e-20 -0.360252)
(0.170724 -4.28014e-20 -0.315051)
(0.180957 -3.73924e-20 -0.27753)
(0.189047 4.22389e-20 -0.244694)
(0.00156184 0 -1.01807)
(-0.254493 -9.20355e-20 -0.834863)
(-0.101784 8.9968e-20 -0.715575)
(-0.0798206 0 -0.589289)
(-0.0629212 8.56732e-23 -0.489889)
(-0.0570947 -4.95529e-20 -0.414749)
(-0.0578841 8.79988e-20 -0.357767)
(-0.0616278 -4.38565e-20 -0.313574)
(-0.0657463 1.21525e-22 -0.277682)
(-0.0687904 0 -0.246842)
(0.00610074 0 -1.08522)
(-0.338356 -9.37293e-20 -0.836075)
(-0.206079 1.70826e-19 -0.700043)
(-0.22332 -8.56307e-20 -0.563664)
(-0.237008 8.86006e-20 -0.467438)
(-0.256445 -7.92343e-20 -0.396289)
(-0.276294 4.01405e-20 -0.343608)
(-0.293993 -4.5177e-20 -0.303516)
(-0.308157 -5.66203e-21 -0.27142)
(-0.318626 0 -0.244014)
(0.0149371 8.79702e-20 -1.1201)
(-0.4164 -8.24321e-20 -0.794337)
(-0.32377 3.97087e-21 -0.645564)
(-0.379387 1.33511e-21 -0.514624)
(-0.424465 -2.78115e-21 -0.425382)
(-0.467176 1.02034e-22 -0.362935)
(-0.503283 1.179e-20 -0.318697)
(-0.531769 -4.83926e-20 -0.285979)
(-0.553343 4.7484e-20 -0.259907)
(-0.569238 0 -0.237242)
(0.0297869 0 -1.11225)
(-0.485266 8.81817e-20 -0.695392)
(-0.460424 9.24686e-22 -0.554569)
(-0.555304 3.21777e-21 -0.436448)
(-0.632041 -3.86544e-20 -0.363443)
(-0.694853 -4.60607e-20 -0.316884)
(-0.742834 5.06008e-20 -0.286071)
(-0.778436 -4.93447e-20 -0.263741)
(-0.804517 0 -0.245279)
(-0.823667 1.29512e-20 -0.228078)
(0.0601555 0 -1.02466)
(-0.564567 -5.87313e-22 -0.542842)
(-0.627209 -8.49402e-20 -0.417434)
(-0.762791 8.45717e-20 -0.33044)
(-0.865469 0 -0.286012)
(-0.940829 -6.14308e-21 -0.263074)
(-0.993984 3.35442e-22 -0.249925)
(-1.03141 -1.37971e-20 -0.239821)
(-1.05797 -1.39092e-20 -0.229577)
(-1.07743 -5.35601e-20 -0.217887)
(0.0687931 9.52785e-22 -0.828173)
(-0.662227 7.64576e-20 -0.323105)
(-0.845284 -1.22898e-19 -0.237094)
(-1.01273 4.16216e-20 -0.202827)
(-1.12614 0 -0.202056)
(-1.20066 5.48768e-20 -0.20923)
(-1.24916 -1.24621e-19 -0.215899)
(-1.28105 6.95619e-20 -0.218152)
(-1.30305 -1.50541e-20 -0.215451)
(-1.31923 2.83961e-20 -0.208671)
(-0.00509609 -5.24014e-21 -0.448634)
(-0.856916 3.29762e-20 0.0154879)
(-1.15465 -2.41264e-20 -0.00483943)
(-1.31573 0 -0.0721188)
(-1.40985 0 -0.132049)
(-1.4631 -6.60812e-20 -0.165944)
(-1.49439 6.44872e-20 -0.190293)
(-1.51273 -3.12569e-20 -0.203853)
(-1.52547 3.04772e-20 -0.206304)
(-1.53529 -1.47849e-20 -0.202791)
(-0.272643 -8.82577e-21 0.120297)
(-1.1648 1.17274e-20 0.492759)
(-1.52547 -4.01517e-21 0.271236)
(-1.66547 0 0.00441941)
(-1.69657 -7.37446e-21 -0.107223)
(-1.70306 7.30952e-21 -0.133698)
(-1.71187 -8.44542e-21 -0.179201)
(-1.71121 8.79652e-21 -0.207253)
(-1.71077 -3.36226e-20 -0.205001)
(-1.71263 4.9971e-20 -0.200217)
(8.56811 0 4.73399)
(8.49405 0 5.25642)
(8.43292 -1.15996e-18 5.84405)
(8.39254 4.2947e-19 6.51198)
(8.38077 4.38189e-19 7.28189)
(8.43124 1.44011e-18 8.18362)
(8.52543 5.76498e-19 9.28685)
(9.34463 -9.53721e-19 10.6005)
(10.1127 4.30278e-19 13.6109)
(8.88764 3.00414e-18 4.81516)
(8.86632 -1.31971e-18 5.33139)
(8.87006 -1.09172e-18 5.9067)
(8.91189 3.60233e-19 6.55224)
(9.00883 -1.00364e-18 7.28159)
(9.20782 6.59971e-19 8.1081)
(9.49049 -2.78166e-19 9.05143)
(10.2059 1.26194e-20 10.0528)
(10.9818 -1.48153e-19 11.244)
(9.20846 0 4.8529)
(9.2367 -8.69118e-19 5.35142)
(9.29879 2.38415e-20 5.89867)
(9.40852 6.79059e-19 6.49963)
(9.58154 -3.05368e-19 7.15706)
(9.85127 1.68516e-19 7.86574)
(10.189 4.162e-19 8.60359)
(10.7035 2.18104e-19 9.33543)
(11.4607 -4.27007e-19 10.1107)
(9.52272 -4.97925e-19 4.84739)
(9.59422 1.32272e-18 5.31902)
(9.70386 -9.74294e-19 5.82748)
(9.86304 6.41714e-19 6.37257)
(10.0828 -2.95621e-19 6.9506)
(10.3836 0 7.5519)
(10.7561 0 8.15398)
(11.2352 0 8.75893)
(11.9862 5.72415e-19 9.42458)
(9.9311 0 5.24081)
(10.0773 -6.15941e-19 5.70558)
(10.2712 0 6.19315)
(10.5211 2.90601e-19 6.69785)
(10.84 0 7.21108)
(11.2306 0 7.71555)
(11.6942 0 8.20581)
(12.353 -2.74772e-19 8.70018)
(10.6332 -2.46563e-19 5.97744)
(10.9006 2.35558e-19 6.41575)
(11.2252 2.57886e-19 6.85144)
(11.6101 0 7.26976)
(12.0445 0 7.65782)
(12.6163 -2.85105e-19 8.02108)
(11.5446 -3.83673e-19 6.48362)
(11.9124 1.18421e-19 6.83052)
(12.3168 1.10945e-19 7.14461)
(12.825 -2.7659e-19 7.42797)
(12.5316 -1.09151e-19 6.66802)
(12.9879 -1.01338e-19 6.8962)
(10.8286 0 11.8423)
(7.09576 7.45539e-19 9.19908)
(1.45306 0 6.34721)
(11.2179 2.47526e-19 9.49835)
(10.4716 0 8.11134)
(9.13453 0 6.9671)
(11.9267 0 9.77966)
(12.0769 -3.91294e-19 9.23804)
(11.8338 3.5529e-19 8.55786)
(12.4475 -2.29245e-19 9.50453)
(12.7428 6.147e-20 9.36237)
(12.8216 4.46188e-20 9.04017)
(12.7434 -2.31559e-19 8.82624)
(13.0639 4.93724e-19 8.84194)
(13.2739 -6.11265e-20 8.75578)
(12.9535 2.50879e-19 8.14613)
(13.263 0 8.21933)
(13.5074 5.9661e-20 8.23997)
(13.1214 7.0683e-19 7.53778)
(13.4015 -5.68975e-19 7.61928)
(13.6345 6.0272e-19 7.67247)
(13.2498 -4.00921e-20 6.98696)
(13.4988 -5.92798e-19 7.05936)
(13.7086 -3.75064e-20 7.11514)
(13.5664 6.43891e-19 6.54517)
(13.7538 3.60612e-20 6.59536)
(-2.21258 -6.04046e-22 1.36973)
(-1.41274 2.4239e-22 0.119071)
(-2.05956 1.03869e-21 -0.14659)
(-2.05349 -2.18891e-20 -0.213913)
(-1.91757 1.0346e-21 -0.0982323)
(-1.88146 6.41059e-20 -0.0874145)
(-1.89253 -5.94467e-20 -0.220741)
(-1.86154 -1.96003e-20 -0.243687)
(-1.84017 3.49637e-20 -0.195349)
(7.25494 4.42687e-20 4.92849)
(5.23055 0 3.26247)
(2.95949 1.57787e-21 1.90584)
(0.375505 -2.3965e-20 0.467714)
(-1.57068 3.71088e-20 -0.340933)
(-1.8692 -1.6876e-20 -0.442321)
(-1.85129 0 -0.396316)
(-1.85909 9.37439e-21 -0.230831)
(-1.86133 -1.86103e-20 -0.119238)
(10.9127 3.23646e-20 6.95522)
(9.49098 0 5.4291)
(7.76147 -2.26171e-21 4.14784)
(5.99519 -4.6938e-21 3.0487)
(4.28306 4.77817e-21 2.10815)
(2.77708 -5.62914e-21 1.2832)
(0.759361 1.84606e-20 0.363683)
(-1.3051 0 -0.238995)
(-1.66266 1.85528e-20 -0.334596)
(12.5627 5.02689e-20 7.97489)
(11.8655 -7.09483e-20 6.7775)
(10.8339 0 5.66259)
(9.62878 -1.60097e-21 4.64416)
(8.31994 -7.11376e-21 3.7212)
(6.98368 -1.22393e-20 2.93469)
(5.61209 2.70831e-22 2.2698)
(4.22273 0 1.67776)
(2.96931 0 1.11658)
(13.407 -1.0597e-19 8.20592)
(13.207 0 7.4157)
(12.7193 0 6.56481)
(12.0139 -2.47539e-20 5.72172)
(11.1499 2.24337e-20 4.91979)
(10.1824 3.54357e-21 4.19416)
(9.14781 -3.297e-21 3.53953)
(8.06006 3.30148e-21 2.92973)
(6.94751 7.38615e-21 2.37986)
(13.8225 -5.72734e-20 8.0185)
(13.9252 1.13898e-19 7.56463)
(13.8212 0 6.98768)
(13.5153 7.05527e-21 6.3566)
(13.0377 0 5.71178)
(12.4259 -1.3318e-20 5.08403)
(11.7136 1.86277e-20 4.48651)
(10.9247 -8.51784e-21 3.92287)
(10.0792 -4.24166e-21 3.40766)
(14.0042 1.30438e-19 7.6237)
(14.2666 -1.28676e-19 7.40103)
(14.4067 9.08129e-20 7.05063)
(14.3888 -7.87804e-20 6.6176)
(14.2154 -4.71511e-21 6.13634)
(13.9083 2.06325e-21 5.63496)
(13.4913 -2.84691e-20 5.13355)
(12.9848 2.16363e-20 4.64478)
(12.4054 -1.5354e-20 4.18009)
(14.0728 3.39695e-20 7.14345)
(14.399 4.0371e-19 7.05957)
(14.6718 -2.56763e-19 6.87112)
(14.8386 1.69243e-20 6.59875)
(14.8831 1.67275e-19 6.26524)
(14.8129 -7.32696e-20 5.89225)
(14.6406 6.42976e-21 5.49805)
(14.3788 -2.97919e-20 5.0965)
(14.0391 2.26924e-20 4.69887)
(14.0907 -4.06657e-20 6.65081)
(14.4263 2.31725e-19 6.63907)
(14.7546 -3.18969e-19 6.55224)
(15.0224 1.0249e-19 6.3951)
(15.2054 0 6.1792)
(15.3011 0 5.91808)
(15.313 6.43333e-20 5.62495)
(15.2462 -5.69273e-20 5.31157)
(15.1067 0 4.98824)
(14.4053 -5.20554e-19 6.19896)
(14.7433 2.47814e-19 6.1687)
(15.0536 -1.26318e-19 6.08542)
(15.3113 1.09224e-19 5.95325)
(15.5096 8.51535e-20 5.77908)
(15.6464 -1.58188e-19 5.57088)
(15.7211 1.37874e-19 5.33688)
(15.7352 -7.18669e-20 5.0851)
(15.2944 7.24575e-21 5.6483)
(15.5458 -3.242e-21 5.53558)
(15.7567 8.32393e-20 5.39207)
(15.9236 -8.19409e-20 5.22267)
(16.0444 7.8796e-21 5.03275)
(15.7338 2.90852e-19 5.13704)
(15.9523 -1.70598e-19 5.01595)
(16.139 8.98113e-20 4.87504)
(16.1024 -9.77711e-21 4.65068)
)
;

boundaryField
{
    inlet
    {
        type            fixedValue;
        value           nonuniform 0();
    }
    outlet
    {
        type            zeroGradient;
    }
    flap
    {
        type            movingWallVelocity;
        value           nonuniform List<vector> 
33
(
(0 -2.77556e-14 0)
(3.55516e-32 -2.77556e-14 -4.36986e-33)
(1.14956e-16 -2.77556e-14 6.20983e-16)
(-6.14473e-15 0 -2.63211e-14)
(-1.39877e-14 0 -5.17288e-14)
(0 0 0)
(-1.66213e-14 0 -5.24424e-14)
(0 -2.77556e-14 0)
(0 -2.77556e-14 0)
(-3.53873e-14 -2.77556e-14 -1.03681e-13)
(0 -2.77556e-14 0)
(0 0 0)
(3.44091e-14 0 9.90715e-14)
(3.7461e-14 2.77556e-14 1.07645e-13)
(-3.4544e-14 0 -9.89646e-14)
(-1.49008e-14 -2.77556e-14 5.20636e-15)
(0 0 0)
(0 0 0)
(0 0 0)
(-3.93404e-32 -2.77556e-14 4.87204e-33)
(0 0 0)
(-6.15615e-15 -8.83198e-33 -2.63154e-14)
(0 0 0)
(-2.26326e-15 0 -7.59578e-15)
(-1.59922e-14 0 -5.04408e-14)
(1.65026e-14 0 5.00723e-14)
(0 -2.77556e-14 0)
(0 0 0)
(0 -2.77556e-14 0)
(3.42897e-14 0 9.91655e-14)
(5.98027e-15 0 1.72107e-14)
(-3.44831e-14 0 -9.90129e-14)
(0 0 0)
)
;
    }
    upperWall
    {
        type            noSlip;
    }
    lowerWall
    {
        type            noSlip;
    }
    frontAndBack
    {
        type            empty;
    }
    procBoundary4to1
    {
        type            processor;
        value           nonuniform List<vector> 
30
(
(9.82386 4.8684e-19 4.80184)
(9.82386 4.8684e-19 4.80184)
(10.2427 4.49877e-19 5.12486)
(10.4159 -5.95658e-19 5.54502)
(10.4159 -5.95658e-19 5.54502)
(10.9497 -6.64068e-20 5.73641)
(11.2241 2.06321e-19 6.11516)
(11.2241 2.06321e-19 6.11516)
(11.8082 1.54773e-20 6.1183)
(12.1561 3.56874e-19 6.40853)
(12.1561 3.56874e-19 6.40853)
(12.6995 4.15739e-19 6.22156)
(13.111 -4.25067e-19 6.40851)
(13.3445 6.43012e-19 6.48362)
(13.3445 6.43012e-19 6.48362)
(13.6116 2.01024e-20 6.07391)
(13.7798 0 6.11771)
(14.0854 -3.5615e-19 6.17846)
(14.0854 -3.5615e-19 6.17846)
(14.3636 3.75877e-20 5.76816)
(14.6888 0 5.76635)
(15.0063 -1.49842e-20 5.72618)
(15.0063 -1.49842e-20 5.72618)
(15.2155 -5.22096e-22 5.30757)
(15.4868 -6.62103e-21 5.23511)
(15.4868 -6.62103e-21 5.23511)
(15.6399 1.94931e-19 4.84247)
(15.8813 -1.85578e-19 4.75532)
(15.8813 -1.85578e-19 4.75532)
(15.9942 -1.14052e-20 4.3895)
)
;
    }
    procBoundary4to2
    {
        type            processor;
        value           nonuniform List<vector> 
11
(
(-1.77487 1.81105e-20 -0.395673)
(1.78261 1.19949e-20 0.57881)
(5.8484 -2.73724e-20 1.9324)
(9.20229 0 2.95897)
(11.7706 -7.86058e-21 3.7497)
(13.6346 8.36492e-21 4.31463)
(14.9027 -2.03857e-20 4.66377)
(15.6919 -3.44743e-20 4.82279)
(16.119 -1.37456e-20 4.82763)
(16.2917 -1.34827e-19 4.71784)
(16.3003 1.38341e-19 4.53076)
)
;
    }
    procBoundary4to3
    {
        type            processor;
        value           nonuniform List<vector> 
19
(
(4.7965 0 0.247077)
(5.68942 6.17603e-19 0.634114)
(6.08676 -6.07449e-19 1.03474)
(6.30928 1.19397e-18 1.39377)
(6.46851 1.15552e-18 1.72728)
(6.60976 1.43493e-20 2.04265)
(6.75234 1.38148e-19 2.34351)
(6.90471 4.19531e-18 2.63119)
(7.07077 2.09409e-18 2.9054)
(7.25232 -6.32049e-20 3.16479)
(7.44991 6.2199e-20 3.40725)
(7.66315 -1.90243e-18 3.63005)
(7.89116 0 3.83015)
(8.13235 1.66344e-18 4.00436)
(8.38387 1.08311e-19 4.14987)
(8.65133 0 4.26668)
(8.92688 1.49871e-18 4.35015)
(9.20525 1.76144e-19 4.39879)
(9.48082 -6.85153e-19 4.41174)
)
;
    }
    procBoundary4to5
    {
        type            processor;
        value           nonuniform List<vector> 
18
(
(1.42933 -2.44744e-21 -0.0109298)
(1.488 -9.52293e-21 -0.0540344)
(1.29438 0 -0.106699)
(1.0487 0 -0.149795)
(0.772704 1.98298e-20 -0.184158)
(0.481791 0 -0.204393)
(0.196836 0 -0.214556)
(-0.069821 -2.13965e-20 -0.218968)
(-0.325555 0 -0.219237)
(-0.580592 -2.33364e-20 -0.216214)
(-0.837942 0 -0.210947)
(-1.09246 -2.61499e-20 -0.204328)
(-1.3323 -2.7857e-20 -0.197858)
(-1.54393 1.54449e-20 -0.193009)
(-1.71516 -1.54391e-20 -0.190156)
(-1.83981 8.89995e-21 -0.191952)
(-1.83981 8.89995e-21 -0.191952)
(-1.90524 -2.68384e-20 -0.204475)
)
;
    }
}


// ************************************************************************* //
