/*--------------------------------*- C++ -*----------------------------------*\
| =========                 |                                                 |
| \\      /  F ield         | OpenFOAM: The Open Source CFD Toolbox           |
|  \\    /   O peration     | Version:  dev                                   |
|   \\  /    A nd           | Web:      www.OpenFOAM.org                      |
|    \\/     M anipulation  |                                                 |
\*---------------------------------------------------------------------------*/
FoamFile
{
    version     2.0;
    format      ascii;
    class       surfaceScalarField;
    location    "3.27";
    object      phi;
}
// * * * * * * * * * * * * * * * * * * * * * * * * * * * * * * * * * * * * * //

dimensions      [0 3 -1 0 0 0 0];

internalField   nonuniform List<scalar> 
5457
(
0.198291
0.00171562
0.196278
0.00201709
0.193923
0.00235713
0.191188
0.00273296
0.188079
0.00310438
0.184604
0.00346779
0.180764
0.00383148
0.176552
0.00420292
0.171956
0.0045872
0.16696
0.00498815
0.161544
0.00540898
0.155687
0.00585234
0.149365
0.00632024
0.142551
0.00681391
0.135219
0.00733349
0.127345
0.00787746
0.118907
0.00844215
0.109891
0.00902153
0.100291
0.00960621
0.0901147
0.0101819
0.0793914
0.0107287
0.0681762
0.0112201
0.0565586
0.0116217
0.044673
0.0118887
0.0327133
0.0119621
0.0209551
0.0117598
0.00980063
0.0111555
-6.22463e-06
0.00980738
-0.00431112
0.0043051
-0.00431107
0.19995
0.00177253
0.199182
0.0027893
0.197962
0.0035786
0.196326
0.00436711
0.194278
0.00514803
0.191822
0.00591671
0.188959
0.00668602
0.185683
0.00746969
0.181983
0.00827798
0.177844
0.00911883
0.173248
0.00999891
0.168172
0.0109239
0.162591
0.0118982
0.15648
0.0129248
0.14981
0.0140049
0.142555
0.0151363
0.134689
0.0163128
0.126193
0.0175234
0.117054
0.0187507
0.107274
0.0199678
0.0968718
0.0211361
0.0858929
0.0222038
0.074417
0.0231018
0.0625701
0.0237388
0.0505426
0.0239919
0.0386233
0.0236806
0.0272874
0.0224924
0.0173573
0.019738
0.00757859
0.0140841
0.00326756
0.199802
0.00197797
0.1991
0.00349558
0.197953
0.00472673
0.19642
0.00589919
0.194511
0.00705244
0.19223
0.00819052
0.189578
0.00932892
0.186553
0.010486
0.183145
0.0116767
0.179342
0.0129132
0.175129
0.0142057
0.170485
0.0155628
0.165389
0.0169919
0.159815
0.0184983
0.153736
0.0200852
0.147124
0.0217519
0.139949
0.0234918
0.132186
0.0252919
0.123812
0.0271304
0.114813
0.0289726
0.105187
0.0307683
0.094949
0.0324464
0.084144
0.0339109
0.0728506
0.0350355
0.0611948
0.0356501
0.0493596
0.0355176
0.037563
0.0342899
0.0258889
0.0314126
0.0137213
0.0262519
0.0169889
0.199715
0.00227042
0.199015
0.00419998
0.197888
0.00585596
0.196378
0.00740771
0.194504
0.00892156
0.192272
0.0104154
0.189684
0.0119082
0.18674
0.0134214
0.183433
0.0149741
0.179756
0.0165819
0.175697
0.0182579
0.171241
0.0200136
0.166371
0.0218588
0.161068
0.023801
0.15531
0.0258451
0.149072
0.0279928
0.142328
0.0302398
0.135052
0.0325736
0.127217
0.0349715
0.118798
0.0373968
0.109777
0.0397954
0.100139
0.0420888
0.0898876
0.0441667
0.0790414
0.0458851
0.0676366
0.0470573
0.0557128
0.0474431
0.0432683
0.0467354
0.0301624
0.0445191
0.015898
0.0405165
0.032887
0.199673
0.00260519
0.198965
0.00491231
0.197855
0.00696789
0.196371
0.00889081
0.194532
0.0107564
0.192344
0.0125958
0.189811
0.0144328
0.186932
0.0162916
0.183702
0.0181946
0.180115
0.0201605
0.176161
0.0222048
0.171828
0.0243411
0.167103
0.0265811
0.161969
0.0289339
0.156409
0.0314063
0.150403
0.0340021
0.143927
0.0367202
0.136955
0.0395505
0.12946
0.0424728
0.121409
0.045453
0.112771
0.048439
0.10351
0.0513551
0.0935886
0.0540922
0.0829726
0.0565045
0.0716251
0.0584073
0.0594909
0.0595791
0.0464625
0.059765
0.0323571
0.058625
0.0168636
0.0560102
0.0497507
0.199653
0.00295959
0.198943
0.0056278
0.197854
0.00805897
0.196403
0.0103408
0.194607
0.0125484
0.192473
0.0147231
0.190003
0.0168941
0.187196
0.0190885
0.18405
0.0213317
0.180557
0.023645
0.176708
0.026046
0.172494
0.0285499
0.167902
0.03117
0.162917
0.0339175
0.157522
0.0368022
0.151697
0.03983
0.145419
0.0430024
0.138661
0.0463134
0.131392
0.0497473
0.123574
0.0532759
0.115165
0.0568542
0.10611
0.0604153
0.0963439
0.0638623
0.0857897
0.0670623
0.0743567
0.0698429
0.0619477
0.07199
0.048428
0.0732857
0.0336309
0.0734227
0.0174095
0.0722318
0.0671602
0.199647
0.00332086
0.198942
0.00633857
0.197878
0.00912488
0.196467
0.011751
0.194722
0.0142893
0.19265
0.016788
0.190254
0.0192817
0.187532
0.0218009
0.184481
0.0243735
0.181095
0.0270226
0.177366
0.0297674
0.173284
0.0326255
0.168838
0.0356131
0.164009
0.0387444
0.158781
0.0420313
0.153131
0.0454828
0.147034
0.0491033
0.140459
0.0528924
0.133371
0.0568406
0.125725
0.0609277
0.117465
0.0651203
0.10852
0.0693651
0.0988059
0.0735811
0.0882166
0.0776552
0.0766278
0.0814344
0.0639117
0.084708
0.0499462
0.0872524
0.0346026
0.088767
0.0178445
0.0889901
0.0850049
0.199648
0.00368111
0.198956
0.00703713
0.197923
0.0101606
0.196557
0.0131154
0.194872
0.0159713
0.192872
0.0187814
0.190559
0.0215856
0.187933
0.0244174
0.184991
0.0273063
0.181728
0.0302766
0.178137
0.0333507
0.174206
0.03655
0.169922
0.0398932
0.165267
0.0433975
0.160221
0.0470776
0.15476
0.0509457
0.148855
0.0550114
0.142472
0.0592801
0.135567
0.0637508
0.128086
0.0684147
0.119958
0.0732529
0.1111
0.0782292
0.101403
0.0832825
0.0907417
0.0883202
0.0789729
0.0932061
0.0659418
0.097741
0.0515335
0.101662
0.0356505
0.104651
0.018347
0.106294
0.103352
0.199655
0.00403509
0.198982
0.00771709
0.197984
0.0111609
0.196671
0.014428
0.195052
0.017587
0.193132
0.0206949
0.190913
0.0237958
0.188395
0.0269257
0.185577
0.0301153
0.182453
0.0333912
0.179016
0.03678
0.175253
0.040306
0.171151
0.0439909
0.166691
0.047855
0.161852
0.0519168
0.156606
0.0561928
0.150923
0.060698
0.144761
0.0654457
0.138072
0.0704454
0.130788
0.0757034
0.122828
0.0812185
0.114088
0.0869745
0.104442
0.0929336
0.0937385
0.0990272
0.0818096
0.105138
0.0684787
0.111074
0.0536025
0.116539
0.0370879
0.121166
0.0190909
0.124291
0.122443
0.199666
0.00437899
0.199017
0.00837308
0.19806
0.0121205
0.196805
0.0156831
0.195259
0.0191299
0.193427
0.0225205
0.191312
0.0259021
0.188915
0.0293134
0.186234
0.0327871
0.183263
0.0363524
0.179995
0.0400395
0.176419
0.0438759
0.172519
0.0478856
0.168279
0.0520926
0.163674
0.0565203
0.158678
0.0611901
0.153255
0.0661234
0.147362
0.0713428
0.140943
0.0768694
0.133922
0.082729
0.126203
0.0889431
0.117666
0.0955169
0.108162
0.102442
0.0975119
0.109681
0.0855064
0.117146
0.0719234
0.124659
0.0565566
0.131908
0.0392793
0.138444
0.020313
0.143258
0.142756
0.199679
0.00470996
0.199059
0.00900059
0.198149
0.0130345
0.196957
0.0168754
0.19549
0.0205935
0.193754
0.0242501
0.191754
0.0278948
0.189488
0.0315698
0.186955
0.03531
0.184151
0.0391469
0.181068
0.0431142
0.177696
0.0472412
0.174021
0.0515548
0.170027
0.0560835
0.165691
0.060855
0.160985
0.0658967
0.155872
0.0712385
0.150305
0.076913
0.144224
0.0829551
0.137551
0.0894066
0.130181
0.0963177
0.121979
0.103725
0.112773
0.111652
0.10235
0.120109
0.0904432
0.129056
0.0767445
0.13836
0.0609348
0.147719
0.0427709
0.156608
0.0224167
0.163612
0.165173
0.199695
0.00502572
0.199108
0.00959586
0.198248
0.0138983
0.197124
0.0179998
0.195743
0.0219719
0.194111
0.0258766
0.192232
0.0297655
0.190108
0.033685
0.187736
0.0376725
0.185111
0.0417617
0.182228
0.0459884
0.17908
0.0503822
0.175654
0.0549749
0.171934
0.0597998
0.1679
0.0648866
0.163526
0.0702706
0.158776
0.0759906
0.153602
0.08209
0.147941
0.0886199
0.141719
0.0956326
0.134834
0.103207
0.127142
0.111422
0.11846
0.120339
0.108538
0.130034
0.0970475
0.14055
0.0835589
0.15185
0.0675485
0.16373
0.0484869
0.175671
0.0262108
0.185888
0.191384
0.199713
0.00532443
0.199162
0.0101558
0.198356
0.0147082
0.197306
0.0190516
0.196016
0.0232594
0.194494
0.027393
0.192745
0.0315063
0.190771
0.0356503
0.188569
0.0398647
0.186136
0.044185
0.183469
0.0486467
0.180562
0.0532814
0.177405
0.0581258
0.173984
0.0632157
0.170284
0.0685844
0.166281
0.0742735
0.161943
0.0803297
0.157229
0.0868064
0.152085
0.0937671
0.146437
0.101284
0.140194
0.109456
0.133229
0.118392
0.125362
0.128211
0.116334
0.139066
0.105772
0.151114
0.0931277
0.164496
0.0775955
0.179263
0.0580946
0.195172
0.0335052
0.210478
0.224889
0.199732
0.00560457
0.19922
0.0106777
0.198472
0.0154608
0.197498
0.0200267
0.196305
0.0244503
0.1949
0.0287931
0.193288
0.033111
0.191471
0.0374585
0.189448
0.0418778
0.187218
0.0464054
0.18478
0.0510757
0.18213
0.0559233
0.179261
0.0609884
0.176163
0.066308
0.172825
0.0719196
0.169229
0.0778688
0.165351
0.0842078
0.161162
0.0909972
0.156622
0.0983092
0.151673
0.106237
0.146243
0.11489
0.140244
0.124396
0.133532
0.134928
0.125891
0.146711
0.116983
0.160025
0.106251
0.175231
0.0927138
0.192801
0.0746581
0.213228
0.0488398
0.236296
0.273729
0.199753
0.00586502
0.199281
0.0111599
0.198593
0.0161538
0.1977
0.0209219
0.196608
0.0255406
0.195324
0.0300724
0.193852
0.0345753
0.192197
0.039105
0.19036
0.0437057
0.188341
0.0484148
0.186142
0.0532656
0.183761
0.0582958
0.181194
0.0635482
0.178437
0.0690597
0.175483
0.0748699
0.172323
0.081027
0.168945
0.0875859
0.165332
0.094611
0.161464
0.102179
0.157311
0.110393
0.152843
0.119361
0.148022
0.129221
0.142785
0.14017
0.13703
0.152469
0.130595
0.166463
0.123177
0.18265
0.114168
0.201811
0.102098
0.225298
0.081967
0.256427
0.355696
0.00280375
-0.00280362
0.00647974
-0.00367541
0.00997577
-0.00349444
0.0128329
-0.00285396
0.014926
-0.00208789
0.0162742
-0.00134065
0.0169699
-0.000685838
0.0171476
-0.000165636
0.0169628
0.000198597
0.0165567
0.000419902
0.016041
0.000528226
0.0155055
0.000546897
0.0150128
0.000503039
0.0145935
0.000428152
0.0142445
0.00035598
0.0139342
0.000315035
0.0136209
0.000315707
0.0132804
0.000340305
0.0129292
0.00034841
0.0126247
0.000298994
0.0124404
0.000176201
0.0124286
1.35778e-06
0.0126032
-0.000187358
0.0129632
-0.000374769
0.0135268
-0.000580169
0.0143263
-0.000817802
0.0153844
-0.00107794
0.0167191
-0.00135607
0.0183348
-0.00163849
-0.00178436
0.00344758
-0.00625106
0.0069282
-0.00715545
0.0101039
-0.00666857
0.0127372
-0.00548407
0.0147485
-0.00409388
0.0161672
-0.00275183
0.0170838
-0.00159261
0.0175951
-0.000664927
0.0177769
3.0436e-05
0.0177056
0.000505056
0.0174694
0.000777034
0.0171457
0.00088192
0.0167913
0.000867753
0.0164378
0.000790585
0.0160871
0.000713694
0.0157128
0.000694226
0.0152769
0.000754047
0.0147629
0.000854131
0.0142011
0.000907469
0.0136665
0.00082808
0.0132483
0.000586455
0.01299
0.000249123
0.012849
-5.90248e-05
0.012766
-0.000306508
0.012717
-0.0005478
0.012722
-0.000840995
0.0128815
-0.00125734
0.0133305
-0.0018263
0.0141682
-0.00249894
-0.00305331
0.00347685
-0.00972777
0.00661971
-0.0102977
0.00920589
-0.00925314
0.011228
-0.00750299
0.0127028
-0.00556343
0.0136817
-0.00372327
0.014271
-0.0021722
0.0145636
-0.000945801
0.0146153
-7.77617e-06
0.0144726
0.000661491
0.0141912
0.00107095
0.0138086
0.00127591
0.0133492
0.00133753
0.0128287
0.00132005
0.0122472
0.00130241
0.0115798
0.00136661
0.0107801
0.00155641
0.00981744
0.00181686
0.00871719
0.00200511
0.00754725
0.00199274
0.00638744
0.0017384
0.00534634
0.00127992
0.00457199
0.000702753
0.00413182
0.000119036
0.00399928
-0.000431737
0.00414259
-0.00100248
0.00449374
-0.00162821
0.00495722
-0.00231099
0.0054714
-0.00303582
-0.00377581
0.00302262
-0.0127502
0.00567727
-0.0129518
0.00758815
-0.0111624
0.00890197
-0.00881366
0.0097435
-0.00639985
0.0101736
-0.00414609
0.010314
-0.00230311
0.0101836
-0.000803946
0.00979642
0.000392481
0.00925251
0.00121887
0.00860001
0.00173586
0.00780888
0.00207842
0.00683512
0.00232178
0.00566686
0.00249747
0.00433556
0.00264114
0.00291856
0.00278894
0.00152434
0.00295357
0.000245474
0.00309611
-0.00087107
0.00311936
-0.0018086
0.0029253
-0.00254531
0.00246753
-0.00305612
0.00178069
-0.00334477
0.000979073
-0.00344292
0.000202769
-0.00340228
-0.000488668
-0.0032939
-0.00112886
-0.00318967
-0.00175202
-0.00313569
-0.00238605
-0.00309927
-0.00309482
-0.00389629
0.00226651
-0.0150166
0.00412664
-0.0148113
0.00514772
-0.0121819
0.0055799
-0.00924276
0.00562981
-0.0064448
0.00535223
-0.00386147
0.00476057
-0.00170233
0.00377701
0.000190676
0.00259877
0.00158341
0.0014016
0.00242918
0.000159835
0.0029899
-0.0011429
0.00339256
-0.00249321
0.00368271
-0.00386322
0.00387687
-0.00519862
0.00398426
-0.00643821
0.0040342
-0.00752782
0.00404651
-0.0084253
0.00399436
-0.00911471
0.00380687
-0.00960408
0.00341008
-0.00992327
0.0027795
-0.0101205
0.0019682
-0.010245
0.00109153
-0.0103257
0.000269365
-0.0103806
-0.000449785
-0.010444
-0.00108326
-0.010558
-0.00165745
-0.0107338
-0.00223111
-0.0109331
-0.00291799
-0.0036884
0.00128864
-0.0163051
0.00199196
-0.0155141
0.0018385
-0.0120269
0.00114191
-0.00854318
3.62455e-05
-0.00533436
-0.0014838
-0.00233469
-0.00325984
8.24471e-05
-0.00481775
0.00175919
-0.00611341
0.0028913
-0.00738251
0.00371105
-0.00864959
0.00426909
-0.00989194
0.00464633
-0.0110854
0.00488693
-0.012207
0.00500808
-0.0132381
0.00502341
-0.0141537
0.00495585
-0.0149225
0.00481907
-0.0155213
0.00459438
-0.0159496
0.00423374
-0.0162353
0.00369157
-0.0164266
0.00296402
-0.0165728
0.00210507
-0.0167034
0.00121047
-0.0168284
0.000380606
-0.0169646
-0.000329343
-0.017146
-0.000919361
-0.0174001
-0.00142252
-0.0177202
-0.00193176
-0.0180781
-0.00258237
-0.00328661
8.48221e-05
-0.0163898
-0.000752377
-0.0146763
-0.0023891
-0.0103887
-0.00453163
-0.00639776
-0.00693762
-0.00292381
-0.00917004
-9.58539e-05
-0.0109684
0.00188912
-0.0124398
0.00324075
-0.01378
0.0042432
-0.0150104
0.00495381
-0.0161542
0.00542491
-0.0172119
0.00571537
-0.0181791
0.00586504
-0.0190561
0.00589491
-0.0198446
0.00582028
-0.0205388
0.00565652
-0.0211245
0.00540897
-0.0215904
0.00506193
-0.0219408
0.00458322
-0.0222002
0.00394722
-0.0224033
0.00316087
-0.022582
0.0022748
-0.0227548
0.00137209
-0.0229349
0.000547203
-0.0231489
-0.000130776
-0.0234301
-0.000655352
-0.0237952
-0.00107639
-0.0242327
-0.00151473
-0.0247216
-0.00211559
-0.0027563
-0.00149111
-0.0148985
-0.00402718
-0.0121397
-0.00708621
-0.00732815
-0.0102701
-0.00321105
-0.0131601
-2.95362e-05
-0.0154471
0.00219725
-0.0172575
0.00370748
-0.018817
0.00480989
-0.0201578
0.00559532
-0.02132
0.00612792
-0.0223418
0.00645843
-0.0232489
0.00663388
-0.0240602
0.00668736
-0.0247924
0.00663714
-0.0254575
0.00649402
-0.0260577
0.0062636
-0.0265862
0.00594208
-0.0270352
0.00551308
-0.0274063
0.00495378
-0.0277138
0.00425152
-0.0279801
0.00342136
-0.0282271
0.00251341
-0.0284703
0.00160439
-0.0287224
0.000786264
-0.0290114
0.000143164
-0.0293742
-0.000309415
-0.0298302
-0.000639032
-0.0303703
-0.000994964
-0.0309744
-0.00153332
-0.00211871
-0.00318034
-0.0117181
-0.00723994
-0.00807953
-0.0114679
-0.00309875
-0.0152386
0.00056226
-0.0182421
0.00297814
-0.0206011
0.0045621
-0.022553
0.0056669
-0.0241572
0.0064234
-0.0254802
0.00692905
-0.026587
0.00724631
-0.0275331
0.0074161
-0.0283601
0.00747225
-0.0291002
0.00743846
-0.0297784
0.00732553
-0.0304105
0.0071351
-0.031001
0.00686119
-0.0315448
0.00649095
-0.0320353
0.00600616
-0.0324711
0.00538953
-0.032859
0.00463668
-0.0332125
0.00376948
-0.033548
0.00284101
-0.033881
0.00192697
-0.0342241
0.0011167
-0.0345925
0.000496914
-0.0350264
0.000107942
-0.0355608
-0.000123041
-0.036193
-0.000382773
-0.0369052
-0.000842713
-0.00137574
-0.00475091
-0.00696702
-0.0104232
-0.0024067
-0.0154538
0.00193325
-0.019441
0.00455202
-0.0225827
0.00612379
-0.0251177
0.00710268
-0.027138
0.00769449
-0.0287475
0.00804168
-0.0300449
0.0082369
-0.031116
0.00832863
-0.032027
0.00833846
-0.0328259
0.00828237
-0.0335497
0.00817328
-0.0342273
0.0080135
-0.0348763
0.00779322
-0.0355019
0.00749416
-0.0361001
0.00709451
-0.0366646
0.00657366
-0.0371925
0.00591781
-0.0376859
0.00512782
-0.0381519
0.00423056
-0.0386015
0.00328306
-0.0390474
0.00236298
-0.0395008
0.00155782
-0.0399708
0.000952644
-0.0404756
0.000596484
-0.0410547
0.000438097
-0.0417479
0.000290661
-0.0425592
-5.28484e-05
-0.000514644
-0.00665325
-0.000313634
-0.0135944
0.00453499
-0.0190402
0.00738041
-0.0233054
0.00881973
-0.0266479
0.0094702
-0.0292427
0.00970275
-0.0312505
0.00970929
-0.0328169
0.00961663
-0.0340699
0.00949996
-0.0351088
0.00937843
-0.0360014
0.00924215
-0.0367944
0.00908652
-0.0375255
0.0089154
-0.0382262
0.00872459
-0.0389164
0.00849264
-0.0396022
0.00818753
-0.0402797
0.00777763
-0.0409419
0.00723919
-0.0415839
0.00656055
-0.0422044
0.00574647
-0.0428048
0.00482639
-0.0433888
0.00385996
-0.0439647
0.00292941
-0.0445436
0.00212492
-0.0451353
0.00153039
-0.0457518
0.00119715
-0.0464184
0.001087
-0.0471767
0.00102947
-0.0480671
0.000816362
0.000474524
-0.00887134
0.00855785
-0.0167209
0.0123851
-0.0227713
0.0134322
-0.0272766
0.0133275
-0.0306227
0.01282
-0.0331343
0.0122196
-0.0350299
0.0116117
-0.036485
0.01108
-0.0376538
0.0106785
-0.0386442
0.0103794
-0.039514
0.0101229
-0.0403003
0.00988379
-0.0410402
0.00966626
-0.0417704
0.00946505
-0.0425141
0.00924562
-0.0432775
0.00895861
-0.0440547
0.00856065
-0.0448364
0.00802437
-0.0456147
0.00733984
-0.0463848
0.00651511
-0.0471431
0.00558048
-0.0478853
0.00459556
-0.0486118
0.0036467
-0.0493289
0.00283064
-0.0500464
0.00223437
-0.0507775
0.00191278
-0.0515517
0.0018438
-0.0524213
0.00187989
-0.0534361
0.00181017
0.00160513
-0.0115398
0.0200978
-0.0207129
0.0215588
-0.0271451
0.0198659
-0.0315293
0.0177141
-0.0345917
0.0158862
-0.0368389
0.0144719
-0.0384991
0.0132786
-0.0397471
0.0123361
-0.0407686
0.0117095
-0.0416789
0.0113001
-0.0425092
0.0109639
-0.0432726
0.010658
-0.0440059
0.0104104
-0.0447569
0.0102262
-0.0455545
0.0100524
-0.0464018
0.00981369
-0.0472877
0.00945233
-0.048198
0.00893835
-0.0491215
0.00826462
-0.0500491
0.00744142
-0.0509701
0.0064977
-0.0518705
0.00548965
-0.052738
0.00450541
-0.053569
0.00365061
-0.0543697
0.00302186
-0.0551558
0.0026837
-0.0559649
0.00263579
-0.0568658
0.00276196
-0.0579267
0.00285035
0.00278904
-0.0158623
0.0359603
-0.0260769
0.0317741
-0.0324271
0.0262176
-0.0361684
0.021458
-0.0385034
0.018225
-0.0402709
0.0162446
-0.0415593
0.0145735
-0.0424668
0.0132516
-0.0432475
0.0124996
-0.0440374
0.0121
-0.0448037
0.0117405
-0.0455085
0.0113734
-0.046192
0.0111044
-0.0469278
0.010972
-0.0477533
0.0108869
-0.0486623
0.0107303
-0.0496314
0.0104273
-0.0506396
0.00995028
-0.0516727
0.00929908
-0.0527188
0.0084865
-0.0537621
0.00753744
-0.0547805
0.00650201
-0.0557521
0.00546852
-0.0566648
0.00455263
-0.0575212
0.00386539
-0.0583385
0.00348617
-0.0591612
0.00344176
-0.0600745
0.0036566
-0.0611628
0.00391826
0.00405043
-0.0219089
0.0578695
-0.0329327
0.0427987
-0.0391277
0.0324143
-0.041344
0.0236769
-0.0420319
0.0189167
-0.0431425
0.0173603
-0.0439886
0.0154262
-0.0443722
0.013643
-0.0447695
0.0129061
-0.0454072
0.0127476
-0.0460903
0.0124337
-0.0466749
0.0119683
-0.0472227
0.0116624
-0.0478708
0.0116298
-0.0486687
0.0116936
-0.0495862
0.0116552
-0.0505777
0.0114246
-0.0516145
0.0109907
-0.0526845
0.0103706
-0.053781
0.00958207
-0.054889
0.00864207
-0.0559816
0.00758877
-0.0570284
0.00650723
-0.0580086
0.00552243
-0.0589174
0.00476157
-0.0597674
0.00432164
-0.0606033
0.00426124
-0.0615257
0.00456056
-0.0626403
0.00501272
0.00539474
0.207427
0.00611248
0.206983
0.0116151
0.206338
0.0168061
0.2055
0.0217618
0.204479
0.0265602
0.203281
0.0312661
0.201911
0.0359385
0.200375
0.0406326
0.198676
0.0453945
0.196819
0.050262
0.194807
0.0552681
0.192641
0.0604533
0.190321
0.0658599
0.187851
0.071524
0.18523
0.0774863
0.18246
0.0837947
0.179541
0.0905037
0.176476
0.0976768
0.173267
0.105389
0.169925
0.113738
0.16647
0.122819
0.162934
0.132761
0.15936
0.143748
0.155832
0.156
0.152493
0.169804
0.1496
0.185544
0.147674
0.203739
0.147985
0.224987
0.157345
0.247067
0.263717
0.249323
0.212469
0.00634129
0.212065
0.0120321
0.211478
0.0174015
0.210717
0.0225264
0.209791
0.0274852
0.208707
0.0323454
0.207472
0.0371666
0.206093
0.0420032
0.204577
0.0469017
0.202929
0.0519
0.201154
0.0570325
0.19926
0.0623389
0.197252
0.0678593
0.195141
0.0736292
0.192933
0.0796886
0.190643
0.0860819
0.188285
0.0928595
0.185883
0.100078
0.183469
0.107805
0.181092
0.116116
0.178824
0.125091
0.17676
0.134828
0.175059
0.145452
0.173972
0.15709
0.173916
0.169862
0.175612
0.183849
0.180471
0.19888
0.191134
0.214325
0.208868
0.229333
0.246563
0.226021
0.217636
0.00654883
0.217276
0.0124062
0.216754
0.0179329
0.216078
0.0232066
0.215258
0.0283053
0.214302
0.0332979
0.213218
0.0382448
0.212013
0.0431996
0.210698
0.0482078
0.20928
0.0533077
0.207768
0.0585341
0.206174
0.0639239
0.204511
0.0695143
0.202793
0.0753399
0.201039
0.0814367
0.199273
0.0878437
0.197527
0.0946037
0.195841
0.101763
0.194275
0.109372
0.192908
0.117483
0.19185
0.126151
0.191249
0.135432
0.191329
0.145376
0.192411
0.156011
0.194961
0.167314
0.199633
0.179177
0.207211
0.191303
0.218248
0.203287
0.232106
0.215475
0.227142
0.251527
0.22293
0.00673259
0.222618
0.0127328
0.222167
0.0183939
0.221586
0.0237936
0.220883
0.0290103
0.220066
0.0341124
0.219145
0.03916
0.21813
0.0442063
0.217033
0.0492958
0.215865
0.0544659
0.214638
0.0597508
0.213368
0.0651843
0.212074
0.0708
0.210777
0.0766292
0.209505
0.0827027
0.208292
0.0890523
0.207182
0.0957105
0.206232
0.10271
0.20552
0.110083
0.205145
0.117859
0.205238
0.126059
0.205973
0.134699
0.20758
0.143771
0.210362
0.153231
0.214705
0.162973
0.221056
0.172828
0.229809
0.18255
0.241323
0.191772
0.256459
0.200339
0.206731
0.27687
0.228354
0.00689017
0.228094
0.0130077
0.22772
0.0187786
0.227241
0.0242801
0.226664
0.0295903
0.225998
0.0347775
0.225253
0.0399002
0.224442
0.04501
0.223578
0.0501505
0.222676
0.0553581
0.221752
0.0606652
0.220825
0.066102
0.219918
0.0716977
0.21906
0.0774789
0.218286
0.0834701
0.217639
0.0896945
0.217172
0.0961738
0.216953
0.102926
0.217069
0.109966
0.21763
0.117297
0.21877
0.124919
0.220658
0.132812
0.223512
0.140919
0.227592
0.149152
0.233193
0.157374
0.24062
0.165402
0.250169
0.173001
0.262151
0.17979
0.277014
0.185476
0.189187
0.294558
0.23391
0.00701926
0.233707
0.0132267
0.233417
0.0190814
0.233045
0.0246592
0.232603
0.030037
0.232098
0.0352828
0.231541
0.0404538
0.230946
0.0455989
0.230329
0.0507598
0.229706
0.0559713
0.229098
0.0612636
0.228526
0.0666635
0.22802
0.0721948
0.227612
0.0778786
0.227343
0.0837326
0.22726
0.0897711
0.227425
0.0960046
0.22791
0.102438
0.228804
0.109069
0.230216
0.115883
0.232274
0.12286
0.235137
0.129949
0.238994
0.137063
0.244047
0.1441
0.250497
0.150924
0.258546
0.157354
0.268375
0.163172
0.280077
0.168087
0.293696
0.171856
0.173867
0.309016
0.239603
0.00711777
0.239461
0.0133863
0.239258
0.0192972
0.239001
0.0249245
0.2387
0.0303433
0.238364
0.0356201
0.238005
0.0408109
0.237637
0.0459622
0.237277
0.0511132
0.236944
0.0562958
0.236661
0.0615372
0.236454
0.0668608
0.236354
0.0722856
0.236397
0.0778265
0.236628
0.0834941
0.237098
0.0892945
0.23787
0.0952279
0.239016
0.101288
0.240623
0.107458
0.242791
0.113713
0.245639
0.12001
0.249308
0.126279
0.253938
0.132434
0.259666
0.138372
0.266629
0.143961
0.274941
0.149042
0.284675
0.153437
0.295823
0.156939
0.308332
0.159348
0.160159
0.32204
0.245434
0.00718376
0.245356
0.0134831
0.245245
0.0194216
0.245109
0.0250705
0.244956
0.0305027
0.244795
0.0357828
0.244641
0.0409645
0.244507
0.0460922
0.244413
0.0512025
0.244377
0.0563243
0.244425
0.061481
0.244585
0.0666918
0.24489
0.0719712
0.245379
0.0773284
0.246098
0.0827677
0.247098
0.0882878
0.24844
0.0938799
0.250194
0.0995282
0.252441
0.105208
0.255267
0.110884
0.258777
0.116498
0.263079
0.121976
0.268272
0.12724
0.274446
0.132196
0.281683
0.136723
0.290035
0.14069
0.299513
0.143958
0.310073
0.146379
0.321613
0.147807
0.147838
0.333934
0.251408
0.00721557
0.251396
0.0135144
0.251382
0.0194508
0.25137
0.0250928
0.25137
0.0305102
0.25139
0.0357653
0.251446
0.0409095
0.251551
0.0459843
0.251726
0.0510235
0.251991
0.0560531
0.252371
0.0610933
0.252896
0.0661586
0.2536
0.0712588
0.254522
0.0763979
0.255707
0.0815748
0.257205
0.0867824
0.259074
0.0920051
0.261377
0.0972198
0.264184
0.102396
0.267571
0.107493
0.271618
0.112448
0.276403
0.117188
0.281993
0.121649
0.288443
0.125745
0.295791
0.129373
0.30405
0.13243
0.313196
0.134811
0.323158
0.136417
0.333814
0.137151
0.136693
0.344959
0.257526
0.00721179
0.257583
0.0134781
0.257668
0.0193821
0.257785
0.024988
0.257941
0.0303623
0.258147
0.0355643
0.258415
0.0406426
0.258762
0.0456362
0.259206
0.0505755
0.25977
0.0554837
0.26048
0.0603774
0.261364
0.0652679
0.262455
0.0701601
0.263791
0.0750539
0.265415
0.0799432
0.267374
0.0848164
0.26972
0.0896527
0.272509
0.0944251
0.275799
0.0991005
0.279652
0.103635
0.284127
0.10797
0.28927
0.112041
0.295126
0.115791
0.301724
0.119145
0.309073
0.122022
0.317157
0.124344
0.325931
0.126036
0.335313
0.127034
0.345183
0.127282
0.126518
0.355358
0.263793
0.00717136
0.263921
0.0133726
0.264107
0.0192136
0.264354
0.0247542
0.264669
0.0300568
0.265061
0.035178
0.265543
0.0401631
0.266131
0.0450481
0.266843
0.0498605
0.267702
0.0546206
0.268732
0.0593417
0.269962
0.0640315
0.271424
0.0686919
0.273152
0.0733189
0.275185
0.0779035
0.277565
0.0824294
0.280338
0.0868731
0.283551
0.0912068
0.287249
0.0953963
0.291481
0.0993993
0.296282
0.103164
0.301683
0.106637
0.307705
0.109765
0.314359
0.112488
0.321634
0.114745
0.329497
0.116479
0.337892
0.11764
0.346736
0.118189
0.35592
0.118097
0.11715
0.365288
0.270212
0.00709355
0.270411
0.0131969
0.270699
0.0189443
0.271077
0.0243903
0.271551
0.0295934
0.27213
0.0346066
0.272825
0.0394721
0.273651
0.0442229
0.274626
0.0488836
0.275773
0.0534714
0.277113
0.0579971
0.278674
0.0624653
0.280485
0.0668751
0.282577
0.07122
0.284987
0.0754883
0.287748
0.079662
0.290898
0.0837173
0.294473
0.0876262
0.298508
0.091355
0.303037
0.0948656
0.308082
0.0981141
0.313659
0.101056
0.319773
0.103647
0.326419
0.105839
0.333573
0.107589
0.341193
0.108857
0.34922
0.109611
0.357576
0.109831
0.366167
0.109506
0.108458
0.374858
0.276785
0.00697782
0.277056
0.0129509
0.277446
0.0185739
0.277956
0.0238967
0.278589
0.0289729
0.279352
0.0338519
0.280256
0.0385728
0.281316
0.0431655
0.282548
0.0476519
0.283971
0.0520465
0.285607
0.0563576
0.28748
0.0605875
0.289617
0.0647332
0.292045
0.0687866
0.294794
0.0727343
0.297892
0.0765583
0.301368
0.0802357
0.30525
0.0837397
0.30956
0.0870393
0.31432
0.0901005
0.319543
0.0928865
0.325232
0.0953622
0.331381
0.0974935
0.337972
0.099244
0.344976
0.100582
0.352348
0.101483
0.360029
0.101928
0.367948
0.10191
0.376024
0.101429
0.100336
0.384145
0.283516
0.00682393
0.283859
0.0126345
0.284352
0.0181034
0.284991
0.0232747
0.28578
0.0281975
0.286724
0.0329175
0.287833
0.0374704
0.289119
0.0418833
0.290597
0.0461753
0.292285
0.0503588
0.2942
0.0544398
0.296366
0.0584191
0.298803
0.0622922
0.301535
0.0660499
0.304586
0.0696788
0.307978
0.0731613
0.311733
0.076476
0.315869
0.0795987
0.320401
0.0825025
0.325339
0.0851585
0.330685
0.0875353
0.336436
0.0896067
0.342577
0.091348
0.349085
0.0927325
0.355925
0.0937389
0.363053
0.0943526
0.370413
0.0945659
0.377943
0.0943787
0.385573
0.0937978
0.0926982
0.39321
0.29041
0.00663203
0.290823
0.0122489
0.291416
0.0175343
0.292183
0.0225269
0.293124
0.0272712
0.294245
0.0318086
0.295551
0.0361719
0.297055
0.0403854
0.298767
0.0444657
0.300704
0.0484231
0.302881
0.0522622
0.305316
0.0559823
0.308027
0.0595784
0.311032
0.063041
0.31435
0.0663571
0.317997
0.0695104
0.321987
0.0724818
0.326332
0.0752501
0.331038
0.0777925
0.336108
0.0800848
0.341536
0.0821025
0.347311
0.083827
0.353414
0.0852403
0.35982
0.0863237
0.366491
0.0870646
0.373385
0.087456
0.380452
0.0874969
0.387637
0.0871926
0.39488
0.0865539
0.0854738
0.402103
0.297468
0.00640259
0.297952
0.0117954
0.298642
0.0168691
0.299533
0.0216571
0.300622
0.0261987
0.301912
0.0305318
0.303408
0.0346858
0.305118
0.0386824
0.307052
0.0425361
0.309222
0.0462555
0.311641
0.049844
0.314323
0.0533001
0.317281
0.0566184
0.32053
0.05979
0.324082
0.0628028
0.327947
0.0656423
0.332134
0.0682918
0.336647
0.0707336
0.341487
0.072949
0.346651
0.0749178
0.352127
0.0766227
0.357898
0.0780513
0.363945
0.0791903
0.370237
0.0800278
0.376741
0.0805579
0.383416
0.0807789
0.390217
0.0806943
0.397095
0.0803127
0.404002
0.0796467
0.0786044
0.410871
0.304696
0.00613631
0.305247
0.011276
0.306032
0.0161111
0.307042
0.0206696
0.308273
0.0249862
0.309725
0.0290947
0.311401
0.0330217
0.313306
0.0367862
0.315447
0.0404009
0.317834
0.0438731
0.320475
0.047205
0.323381
0.0503951
0.326562
0.053438
0.330026
0.0563255
0.33378
0.0590469
0.337831
0.0615897
0.342181
0.06394
0.346829
0.0660832
0.351771
0.0680046
0.356998
0.0696883
0.362495
0.0711224
0.368243
0.0722994
0.37422
0.0732103
0.380397
0.0738487
0.386739
0.074213
0.393211
0.0743054
0.399772
0.0741323
0.40638
0.0737039
0.412992
0.0730336
0.072042
0.419554
0.312097
0.00583414
0.312713
0.010693
0.313589
0.015264
0.314714
0.0195697
0.31608
0.0236402
0.317686
0.0275057
0.319531
0.0311898
0.321618
0.0347091
0.323953
0.0380748
0.326539
0.0412927
0.329383
0.0443648
0.332492
0.0472893
0.33587
0.0500614
0.339522
0.0526737
0.343452
0.0551173
0.34766
0.0573817
0.352143
0.0594555
0.356898
0.0613274
0.361916
0.0629863
0.367183
0.0644198
0.372682
0.0656203
0.378394
0.0665844
0.384295
0.0673071
0.390356
0.0677855
0.396547
0.068021
0.402832
0.0680186
0.409178
0.067786
0.415547
0.0673344
0.421903
0.0666771
0.0657451
0.4282
0.319675
0.00549717
0.320354
0.0100492
0.321317
0.0143318
0.32255
0.0183629
0.324044
0.022168
0.325795
0.0257738
0.327799
0.0292009
0.330057
0.0324639
0.332569
0.0355723
0.335338
0.0385313
0.338367
0.0413423
0.341657
0.0440035
0.345211
0.046511
0.349028
0.0488585
0.353108
0.0510387
0.357448
0.053043
0.362042
0.0548628
0.36688
0.0564892
0.371953
0.0579144
0.377243
0.0591293
0.382732
0.0601293
0.3884
0.0609146
0.394223
0.0614828
0.400174
0.0618337
0.406223
0.0619709
0.41234
0.0619007
0.418495
0.0616318
0.424654
0.0611752
0.430788
0.0605437
0.0596777
0.436856
0.327434
0.00512661
0.328173
0.0093472
0.329218
0.0133189
0.330554
0.017055
0.332169
0.0205771
0.334056
0.023908
0.336208
0.0270658
0.338623
0.030063
0.3413
0.0329079
0.344236
0.0356048
0.347431
0.0381548
0.350884
0.0405567
0.354594
0.042807
0.358556
0.0449007
0.362766
0.0468321
0.367217
0.0485944
0.371901
0.0501813
0.376806
0.0515864
0.381918
0.0528043
0.38722
0.0538285
0.392691
0.0546572
0.398312
0.0552929
0.404059
0.0557353