/*--------------------------------*- C++ -*----------------------------------*\
| =========                 |                                                 |
| \\      /  F ield         | OpenFOAM: The Open Source CFD Toolbox           |
|  \\    /   O peration     | Version:  dev                                   |
|   \\  /    A nd           | Web:      www.OpenFOAM.org                      |
|    \\/     M anipulation  |                                                 |
\*---------------------------------------------------------------------------*/
FoamFile
{
    version     2.0;
    format      ascii;
    class       volScalarField;
    location    "0.13";
    object      p;
}
// * * * * * * * * * * * * * * * * * * * * * * * * * * * * * * * * * * * * * //

dimensions      [0 2 -2 0 0 0 0];

internalField   nonuniform List<scalar> 
465
(
70.0951
69.9822
70.1974
70.7104
71.4263
72.3063
73.3465
74.547
75.9035
77.4097
79.0593
80.8461
82.7637
84.8048
86.961
89.2213
91.5721
93.9954
96.4685
98.9633
101.446
69.9066
69.8927
70.1326
70.6442
71.3573
72.2348
73.2717
74.4675
75.8185
77.3186
78.9615
80.7411
82.651
84.684
86.832
89.0843
91.4278
93.8452
96.3145
98.8084
101.294
69.716
69.773
70.0326
70.5352
71.2363
72.1023
73.1259
74.3064
75.6399
77.1207
78.7425
80.4992
82.3842
84.3906
86.5102
88.7331
91.0467
93.4348
95.8768
98.3468
100.813
69.505
69.5946
69.8669
70.3612
71.0485
71.8997
72.9058
74.0652
75.3741
76.8269
78.4173
80.1389
81.9853
83.9496
86.0239
88.1991
90.4632
92.8014
95.1945
97.6187
100.045
69.2631
69.3676
69.6485
70.1359
70.8079
71.6397
72.6223
73.7533
75.029
76.4437
77.991
79.6645
81.4578
83.3642
85.3761
87.4847
89.6793
91.9461
94.2678
96.6229
98.9851
68.9859
69.0966
69.3803
69.8586
70.5121
71.3195
72.2727
73.3687
74.6034
75.971
77.4648
79.0784
80.8053
82.6387
84.5713
86.5948
88.6993
90.8724
93.0985
95.3585
97.6289
68.6715
68.7835
69.0648
69.531
70.163
70.942
71.8606
72.9153
74.1016
75.4133
76.8437
78.3858
80.0331
81.7786
83.6153
85.5351
87.5285
89.5844
91.6887
93.8243
95.9709
68.3194
68.4298
68.7046
69.1554
69.7629
70.5095
71.3885
72.3959
73.5268
74.7745
76.1318
77.5916
79.1468
80.7903
82.5147
84.3121
86.1733
88.0875
90.0418
92.0209
94.0067
67.9302
68.037
68.3019
68.7343
69.3142
70.0247
70.8594
71.814
72.883
74.059
75.3346
76.7019
78.1533
79.6812
81.2778
82.9346
84.6422
86.3897
88.1644
89.9516
91.7345
67.5049
67.6066
67.859
68.2702
68.8196
69.4906
70.2767
71.1735
72.1746
73.2722
74.458
75.7236
77.0605
78.4603
79.9143
81.4132
82.9466
84.5025
86.0671
87.6249
89.1585
67.0449
67.1405
67.3783
67.7657
68.2819
68.9103
69.6441
70.4785
71.4066
72.4196
73.5087
74.6643
75.8771
77.1376
78.4358
79.7609
81.1006
82.4409
83.7655
85.0558
86.291
66.552
66.6407
66.8622
67.2237
67.7043
68.2872
68.9655
69.7337
70.5842
71.5076
72.4938
73.5324
74.613
75.7246
76.8555
77.9928
79.1216
80.2246
81.2813
82.2676
83.1558
66.0282
66.1094
66.3132
66.647
67.09
67.6251
68.2451
68.9439
69.7131
70.5425
71.421
72.3371
73.2789
74.2338
75.1881
76.1262
77.03
77.8776
78.6427
79.2932
79.7903
65.4757
65.549
65.734
66.0386
66.4423
66.9277
67.4872
68.1141
68.7992
69.5313
70.2985
71.0879
71.8861
72.6787
73.4497
74.1805
74.849
75.4281
75.8843
76.1752
76.2476
64.8969
64.9618
65.1273
65.4016
65.7646
66.1989
66.6962
67.2493
67.8482
68.4809
69.1343
69.7943
70.446
71.073
71.6569
72.1759
72.6036
72.9073
73.0455
72.9646
72.5946
64.4838
64.7264
65.0471
65.4283
65.8613
66.3382
66.8482
67.3786
67.915
68.4422
68.9438
69.4013
69.7939
70.0965
70.2787
70.3019
70.1167
69.6583
68.8404
64.0059
64.2824
64.6085
64.9747
65.3727
65.791
66.2158
66.6321
67.0233
67.3713
67.656
67.8542
67.9379
67.8726
67.6148
67.1081
66.2786
65.0267
63.4772
63.7466
64.0445
64.3619
64.6867
65.0046
65.2993
65.5533
65.7473
65.8595
65.8647
65.7323
65.4251
64.8954
64.0824
62.9064
61.2613
62.8458
63.0745
63.3105
63.5414
63.7519
63.9254
64.0432
64.0852
64.0281
63.8454
63.5049
62.9673
62.1833
61.09
59.6067
57.6284
62.0688
62.2236
62.3609
62.4653
62.5193
62.5039
62.3981
62.1781
61.8165
61.2803
60.5298
59.5158
58.1766
56.4349
54.1934
61.1066
61.1519
61.1524
61.0905
60.9467
60.6998
60.3259
59.7974
59.0819
58.1404
56.9258
55.3802
53.4334
50.9994
59.8217
59.6487
59.3831
59.0038
58.4874
57.8069
56.9313
55.8239
54.441
52.7307
50.6317
48.0717
58.2039
57.8246
57.3234
56.6777
55.8621
54.8477
53.601
52.0832
50.2493
48.048
45.4211
55.671
54.9107
53.9782
52.8472
51.4883
49.8681
47.9493
45.6904
43.047
52.1678
50.9425
49.4977
47.8057
45.8366
43.5588
40.9396
49.143
47.6369
45.9007
43.9116
41.6464
39.0828
44.1533
42.1693
39.9419
37.4572
38.4312
36.0412
)
;

boundaryField
{
    inlet
    {
        type            zeroGradient;
    }
    outlet
    {
        type            fixedValue;
        value           nonuniform 0();
    }
    flap
    {
        type            zeroGradient;
    }
    upperWall
    {
        type            zeroGradient;
    }
    lowerWall
    {
        type            zeroGradient;
    }
    frontAndBack
    {
        type            empty;
    }
    procBoundary3to0
    {
        type            processor;
        value           nonuniform List<scalar> 
34
(
64.2827
64.3389
64.3389
63.7966
63.7966
63.2462
63.2462
62.6341
62.6341
61.9096
61.9096
61.0322
61.0322
59.9655
59.9215
59.9215
58.4817
58.4817
56.7659
56.2823
56.2823
54.0579
53.1986
53.1986
50.4409
50.4409
47.4546
45.9095
45.9095
42.5603
40.6018
40.6018
37.0982
34.8128
)
;
    }
    procBoundary3to1
    {
        type            processor;
        value           nonuniform List<scalar> 9(51.3293 47.9749 44.9675 42.305 39.9726 37.9472 36.2011 34.7045 33.4281);
    }
    procBoundary3to4
    {
        type            processor;
        value           nonuniform List<scalar> 
19
(
103.876
103.731
103.239
102.438
101.323
99.8817
98.1042
95.9783
93.4946
90.6494
87.4489
83.9145
80.0873
76.0332
71.842
67.5444
63.2152
59.0031
55.0173
)
;
    }
}


// ************************************************************************* //
