/*--------------------------------*- C++ -*----------------------------------*\
| =========                 |                                                 |
| \\      /  F ield         | OpenFOAM: The Open Source CFD Toolbox           |
|  \\    /   O peration     | Version:  dev                                   |
|   \\  /    A nd           | Web:      www.OpenFOAM.org                      |
|    \\/     M anipulation  |                                                 |
\*---------------------------------------------------------------------------*/
FoamFile
{
    version     2.0;
    format      ascii;
    class       volScalarField;
    location    "2.6";
    object      p;
}
// * * * * * * * * * * * * * * * * * * * * * * * * * * * * * * * * * * * * * //

dimensions      [0 2 -2 0 0 0 0];

internalField   nonuniform List<scalar> 
2790
(
102.556
102.524
102.811
103.325
103.978
104.749
105.64
106.65
107.779
109.024
110.384
111.86
113.45
115.154
116.969
118.892
120.916
123.034
125.233
127.495
129.797
132.11
134.394
136.604
138.684
140.572
142.2
143.498
144.403
144.869
102.394
102.457
102.765
103.277
103.927
104.696
105.584
106.591
107.714
108.952
110.305
111.772
113.353
115.046
116.849
118.759
120.771
122.875
125.06
127.31
129.602
131.909
134.193
136.411
138.508
140.425
142.097
143.458
144.463
145.188
102.235
102.371
102.698
103.201
103.842
104.602
105.479
106.473
107.581
108.802
110.134
111.577
113.131
114.793
116.561
118.43
120.396
122.45
124.58
126.771
129.002
131.246
133.47
135.634
137.692
139.592
141.281
142.713
143.842
144.717
102.068
102.241
102.582
103.078
103.708
104.457
105.321
106.298
107.386
108.582
109.887
111.298
112.814
114.432
116.151
117.964
119.865
121.845
123.893
125.993
128.124
130.263
132.377
134.43
136.38
138.183
139.787
141.139
142.132
142.571
101.883
102.075
102.428
102.92
103.538
104.272
105.119
106.074
107.136
108.302
109.571
110.941
112.409
113.973
115.628
117.37
119.19
121.077
123.021
125.004
127.007
129.004
130.966
132.856
134.632
136.246
137.633
138.697
139.292
138.725
101.674
101.878
102.238
102.725
103.329
104.045
104.87
105.799
106.83
107.959
109.186
110.506
111.918
113.417
114.999
116.657
118.38
120.16
121.981
123.827
125.675
127.501
129.272
130.949
132.484
133.817
134.857
135.45
135.506
133.595
101.441
101.651
102.015
102.494
103.083
103.778
104.577
105.476
106.47
107.558
108.735
109.999
111.346
112.772
114.27
115.832
117.447
119.103
120.786
122.476
124.147
125.773
127.317
128.736
129.971
130.941
131.533
131.516
130.991
127.597
101.183
101.397
101.76
102.23
102.8
103.472
104.243
105.107
106.06
107.101
108.223
109.424
110.699
112.042
113.446
114.902
116.397
117.918
119.447
120.963
122.437
123.837
125.123
126.244
127.125
127.666
127.739
127.014
125.912
121.021
100.899
101.116
101.474
101.932
102.483
103.129
103.868
104.694
105.602
106.59
107.652
108.784
109.98
111.233
112.535
113.875
115.24
116.613
117.974
119.3
120.558
121.709
122.708
123.495
123.978
124.039
123.543
122.038
120.366
114.034
100.59
100.808
101.161
101.605
102.134
102.752
103.455
104.24
105.099
106.03
107.026
108.084
109.196
110.352
111.543
112.759
113.984
115.2
116.381
117.502
118.526
119.409
120.097
120.517
120.565
120.102
118.996
116.648
114.382
106.703
100.257
100.475
100.821
101.248
101.754
102.341
103.007
103.747
104.554
105.424
106.35
107.329
108.35
109.404
110.48
111.564
112.642
113.689
114.68
115.584
116.36
116.957
117.314
117.339
116.92
115.891
114.126
110.867
107.921
98.9381
99.9002
100.119
100.455
100.865
101.345
101.9
102.526
103.219
103.97
104.775
105.629
106.523
107.45
108.397
109.352
110.299
111.222
112.095
112.887
113.564
114.079
114.379
114.384
113.993
113.078
111.44
108.95
104.691
100.856
90.3932
99.5219
99.7397
100.067
100.457
100.91
101.43
102.015
102.657
103.35
104.089
104.867
105.674
106.501
107.338
108.168
108.974
109.737
110.429
111.017
111.46
111.709
111.699
111.339
110.516
109.08
106.789
103.485
98.0943
92.964
80.3586
99.1231
99.3398
99.6561
100.026
100.45
100.935
101.476
102.066
102.699
103.37
104.068
104.785
105.512
106.235
106.936
107.599
108.2
108.708
109.088
109.295
109.274
108.949
108.22
106.959
104.984
102.005
97.7866
91.086
83.9846
67.6345
98.7053
98.9206
99.2256
99.5736
99.9681
100.416
100.911
101.448
102.02
102.621
103.238
103.864
104.488
105.096
105.667
106.185
106.623
106.948
107.122
107.095
106.805
106.168
105.078
103.386
100.88
97.2117
92.0236
83.8847
73.9745
50.3161
-2.13739
-2.13926
-2.15931
-2.20824
-2.28308
-2.36959
-2.45161
-2.51951
-2.57069
-2.60369
-2.61779
-2.61256
-2.58734
-2.54498
-2.48646
-2.40639
-2.30314
-2.18363
-2.05203
-1.90037
-1.7208
-1.51761
-1.30187
-1.08311
-0.86832
-0.661912
-0.466385
-0.286683
-0.13205
-0.0111675
-2.13767
-2.14338
-2.16954
-2.22346
-2.30063
-2.38675
-2.46658
-2.5317
-2.58038
-2.61174
-2.62523
-2.61948
-2.59336
-2.5518
-2.49497
-2.41385
-2.30772
-2.18843
-2.06139
-1.91161
-1.72823
-1.51989
-1.30037
-1.07915
-0.863648
-0.657853
-0.462282
-0.281684
-0.127277
-0.0132928
-2.13622
-2.14735
-2.18308
-2.2458
-2.32794
-2.41448
-2.49147
-2.55234
-2.59688
-2.62575
-2.63884
-2.63196
-2.60281
-2.56276
-2.51065
-2.42818
-2.31603
-2.19496
-2.07571
-1.93279
-1.74526
-1.52945
-1.30534
-1.08106
-0.863473
-0.658358
-0.465112
-0.286964
-0.134694
-0.0249941
-2.13093
-2.14988
-2.19847
-2.27275
-2.36135
-2.44854
-2.52221
-2.57794
-2.6171
-2.64308
-2.65743
-2.65023
-2.61445
-2.57375
-2.53045
-2.45106
-2.33323
-2.20573
-2.08437
-1.94829
-1.76737
-1.55232
-1.32765
-1.10515
-0.889358
-0.682438
-0.486864
-0.307418
-0.154502
-0.0414505
-2.12121
-2.15123
-2.21546
-2.30236
-2.39685
-2.48376
-2.55348
-2.60382
-2.63691
-2.65907
-2.67536
-2.67141
-2.62992
-2.58079
-2.54077
-2.47261
-2.36549
-2.24166
-2.11544
-1.97171
-1.79299
-1.58496
-1.36527
-1.14652
-0.932996
-0.725399
-0.527421
-0.345108
-0.18826
-0.0597874
-2.10916
-2.15296
-2.2336
-2.33147
-2.42869
-2.51276
-2.57805
-2.62417
-2.65312
-2.6713
-2.68425
-2.68616
-2.65947
-2.61339
-2.56357
-2.49406
-2.39736
-2.28322
-2.15786
-2.01206
-1.83675
-1.63625
-1.42388
-1.20909
-0.995156
-0.785017
-0.583159
-0.39648
-0.231062
-0.0778128
-2.09872
-2.15605
-2.25017
-2.35439
-2.45081
-2.52985
-2.5921
-2.63736
-2.66924
-2.69365
-2.70827
-2.70658
-2.68498
-2.64777
-2.59883
-2.53151
-2.4428
-2.33691
-2.21514
-2.07155
-1.90162
-1.70865
-1.50217
-1.28929
-1.07324
-0.858307
-0.650484
-0.457088
-0.278497
-0.0955858
-2.09198
-2.15893
-2.26117
-2.36703
-2.46461
-2.54418
-2.60828
-2.65913
-2.69611
-2.72128
-2.73602
-2.73636
-2.72027
-2.6901
-2.64612
-2.58455
-2.50398
-2.40589
-2.28951
-2.15072
-1.98708
-1.80113
-1.59895
-1.38569
-1.16519
-0.94286
-0.726531
-0.523475
-0.327713
-0.112949
-2.08697
-2.15985
-2.26945
-2.38126
-2.48316
-2.57032
-2.64019
-2.69209
-2.73085
-2.75801
-2.77384
-2.77722
-2.76722
-2.74423
-2.70717
-2.65333
-2.5815
-2.49161
-2.38213
-2.2499
-2.0931
-1.9131
-1.71328
-1.4973
-1.26957
-1.03677
-0.808881
-0.59295
-0.376865
-0.129528
-2.08319
-2.16602
-2.28762
-2.41037
-2.52314
-2.61579
-2.68809
-2.74151
-2.77994
-2.80674
-2.82342
-2.83024
-2.82661
-2.8116
-2.78305
-2.73829
-2.67582
-2.59483
-2.49353
-2.3691
-2.21936
-2.04427
-1.8449
-1.62371
-1.38552
-1.13857
-0.895364
-0.663098
-0.42428
-0.144812
-2.08891
-2.19026
-2.32988
-2.46763
-2.58833
-2.68737
-2.76129
-2.81224
-2.84593
-2.86888
-2.88505
-2.89534
-2.89862
-2.89265
-2.87404
-2.8394
-2.78688
-2.71552
-2.62358
-2.50809
-2.36575
-2.19472
-1.99405
-1.76503
-1.51267
-1.24703
-0.983784
-0.731303
-0.468022
-0.158145
-2.11453
-2.24521
-2.40933
-2.56367
-2.69596
-2.79805
-2.86696
-2.90688
-2.92825
-2.94281
-2.95698
-2.9711
-2.98239
-2.98692
-2.97976
-2.95619
-2.91409
-2.85304
-2.7717
-2.66658
-2.53249
-2.36506
-2.16158
-1.92196
-1.6511
-1.3612
-1.07186
-0.794471
-0.505686
-0.168625
-2.17566
-2.35716
-2.54971
-2.72273
-2.86359
-2.95982
-3.00997
-3.02422
-3.02221
-3.02329
-3.03501
-3.0546
-3.07593
-3.09289
-3.0989
-3.08743
-3.05601
-3.00569
-2.93638
-2.8438
-2.71975
-2.55631
-2.34878
-2.09559
-1.80119
-1.48013
-1.15681
-0.848082
-0.533199
-0.174949
-2.3473
-2.58628
-2.78522
-2.97541
-3.11325
-3.1833
-3.19054
-3.15609
-3.11549
-3.09972
-3.11223
-3.14156
-3.1765
-3.20842
-3.22916
-3.2306
-3.20985
-3.17042
-3.11484
-3.03809
-2.92735
-2.76945
-2.5563
-2.28553
-1.96145
-1.60082
-1.23351
-0.884492
-0.543118
-0.17558
-3.02928
-2.91341
-3.13247
-3.35093
-3.4591
-3.47071
-3.40576
-3.29273
-3.19054
-3.15886
-3.18254
-3.2287
-3.28124
-3.33086
-3.3676
-3.38156
-3.37023
-3.34116
-3.30124
-3.24439
-3.15142
-3.00176
-2.7825
-2.48886
-2.12701
-1.718
-1.29675
-0.898518
-0.531105
-0.169377
98.2617
98.4754
98.7684
99.0933
99.4562
99.8647
100.313
100.795
101.304
101.832
102.365
102.897
103.417
103.905
104.346
104.717
104.99
105.131
105.097
104.838
104.281
103.338
101.901
99.7999
96.799
92.5052
86.4368
77.0135
63.8309
24.1015
97.7872
97.9989
98.2791
98.5798
98.9088
99.276
99.676
100.101
100.544
100.996
101.443
101.878
102.289
102.657
102.964
103.186
103.294
103.251
103.012
102.524
101.708
100.481
98.7276
96.2714
92.8743
88.1512
81.6362
72.0561
59.9767
47.7883
97.2853
97.4945
97.7615
98.0366
98.3301
98.6545
99.0048
99.3715
99.7467
100.12
100.48
100.817
101.118
101.364
101.537
101.611
101.556
101.333
100.898
100.192
99.1381
97.6599
95.6432
92.9214
89.2877
84.4487
78.1662
70.0296
60.9743
54.7484
96.7569
96.9632
97.2158
97.4648
97.7218
98.0022
98.3021
98.6093
98.9148
99.2089
99.4796
99.7177
99.9101
100.037
100.077
100.005
99.7922
99.3983
98.7785
97.8722
96.6107
94.9261
92.7132
89.8319
86.1292
81.4276
75.6452
68.6555
60.4138
51.9457
96.2033
96.4058
96.6431
96.8654
97.0858
97.3214
97.5699
97.8169
98.0519
98.2659
98.4478
98.5884
98.6735
98.6819
98.5926
98.3817
98.0184
97.4649
96.6775
95.5966
94.1635
92.323
89.9843
87.0393
83.3858
78.9193
73.5847
67.292
59.8643
52.072
95.6256
95.824
96.0449
96.24
96.4238
96.6146
96.8111
96.9971
97.1615
97.2962
97.3903
97.435
97.4153
97.3095
97.0965
96.7538
96.2509
95.5527
94.6179
93.3904
91.8252
89.879
87.4763
84.5392
81.0011
76.7982
71.8937
66.2686
59.9051
53.3474
95.0252
95.2198
95.4235
95.5903
95.7377
95.8845
96.0284
96.1531
96.2484
96.3052
96.3128
96.2641
96.1437
95.9289
95.5995
95.1343
94.5048
93.6794
92.6186
91.2747
89.6165
87.6081
85.1905
82.3098
78.9241
74.999
70.5236
65.5181
60.0082
54.3012
94.4035
94.5952
94.7814
94.9187
95.0302
95.1338
95.2248
95.2892
95.3177
95.2979
95.2208
95.0829
94.8675
94.5501
94.1122
93.5357
92.7948
91.86
90.696
89.2666
87.5491
85.5136
83.117
80.3243
77.1111
73.4635
69.3867
64.909
60.0629
55.0543
93.7626
93.9521
94.121
94.2284
94.3042
94.3654
94.4041
94.41
94.3739
94.2794
94.121
93.8994
93.595
93.182
92.6452
91.9703
91.1333
90.1072
88.8635
87.3762
85.6267
83.5913
81.2417
78.5564
75.5237
72.1425
68.426
64.4048
60.1172
55.7176
93.1052
93.2923
93.4447
93.5231
93.5634
93.5829
93.5709
93.5199
93.4209
93.2554
93.0215
92.7216
92.3339
91.8335
91.209
90.4488
89.5308
88.4318
87.1302
85.607
83.8471
81.8334
79.5488
76.982
74.1298
70.9988
67.6067
63.9839
60.1689
56.2788
92.4349
92.6175
92.7545
92.8063
92.8122
92.7909
92.7294
92.6228
92.4633
92.2325
91.93
91.5564
91.091
90.5127
89.8128
88.9801
87.9956
86.8409
85.4999
83.9586
82.2057
80.2301
78.0226
75.579
72.9022
70.003
66.9004
63.6229
60.2054
56.7386
91.7553
91.9312
92.0523
92.081
92.0555
91.9933
91.8835
91.7238
91.5071
91.2171
90.852
90.4099
89.8738
89.2281
88.464
87.5708
86.5336
85.3384
83.9735
82.4287
80.6965
78.7706
76.6473
74.3274
71.8175
69.1301
66.2842
63.3053
60.2239
57.1115
91.0695
91.2376
91.3419
91.3501
91.2962
91.1939
91.0384
90.8293
90.559
90.2144
89.7921
89.2881
88.6903
87.9865
87.1682
86.226
85.1488
83.9264
82.5502
81.0137
79.3126
77.4441
75.4084
73.2093
70.8555
68.3602
65.741
63.0206
60.225
57.411
90.3803
90.5408
90.6293
90.6177
90.536
90.3966
90.1998
89.945
89.6249
89.2298
88.7556
88.1974
87.5462
86.793
85.93
84.9497
83.8438
82.6052
81.2281
79.7091
78.0465
76.2399
74.2919
72.2086
69.9993
67.677
65.2578
62.7616
60.2101
57.6486
89.6909
89.8444
89.9199
89.8884
89.7791
89.6064
89.3724
89.0753
88.7097
88.2688
87.7481
87.1429
86.4465
85.652
84.7532
83.7443
82.6195
81.3739
80.0042
78.5096
76.8903
75.1477
73.2857
71.3115
69.2347
67.0676
64.8247
62.523
60.1808
57.8343
89.0054
89.1529
89.2171
89.1664
89.0312
88.8284
88.5602
88.2247
87.8183
87.3363
86.7748
86.1294
85.3952
84.5671
83.6405
82.6114
81.4759
80.231
78.8752
77.4098
75.8365
74.1577
72.3783
70.506
68.55
66.5217
64.4341
62.3016
60.1393
57.9768
88.3288
88.4712
88.5248
88.4562
88.2975
88.0672
87.7678
87.3977
86.9552
86.4372
85.8404
85.1612
84.396
83.5413
82.5941
81.5517
80.4121
79.1739
77.8372
76.4042
74.8778
73.2613
71.5602
69.782
67.9355
66.0311
64.0801
62.0949
60.0881
58.0836
87.6661
87.8039
87.8472
87.7624
87.5828
87.3279
87
86.5989
86.1248
85.5759
84.9492
84.242
83.4518
82.5768
81.6151
80.5653
79.427
78.2002
76.8861
75.4873
74.0074
72.4507
70.8229
69.1311
67.3835
65.5893
63.7585
61.9016
60.0293
58.1611
87.0223
87.1557
87.1892
87.0897
86.8918
86.6153
86.2616
85.8327
85.3315
84.7566
84.1051
83.3751
82.5654
81.6753
80.7043
79.6522
78.5195
77.3073
76.0176
74.6536
73.2193
71.7193
70.1594
68.5462
66.8874
65.1911
63.4659
61.721
59.9654
58.2149
86.4027
86.5316
86.5559
86.443
86.2295
85.9344
85.5576
85.1036
84.5795
83.9834
83.3117
82.5634
81.7387
80.8383
79.8624
78.8119
77.6879
76.4925
75.2283
73.8987
72.508
71.0611
69.5636
68.0217
66.4422
64.8325
63.2001
61.5529
59.8984
58.2498
85.8125
85.937
85.9525
85.8275
85.5998
85.2887
84.8924
84.4176
83.8741
83.26
82.5718
81.8094
80.974
80.0671
79.0898
78.0437
76.9307
75.7533
74.5146
73.2185
71.8691
70.4713
69.0306
67.5527
66.0438
64.5105
62.9594
61.3972
59.8304
58.2699
85.257
85.3774
85.385
85.249
85.0076
84.6812
84.2701
83.7802
83.2204
82.5905
81.8888
81.1157
80.2731
79.3629
78.3869
77.3473
76.2466
75.0877
73.8741
72.6097
71.2987
69.9459
68.5565
67.1357
65.6893
64.223
62.7428
61.2544
59.7634
58.2791
84.7419
84.8584
84.8589
84.713
84.4587
84.1183
83.6956
83.1947
82.6217
81.9786
81.266
80.4851
79.6379
78.7267
77.7539
76.7222
75.6345
74.494
73.3044
72.0695
70.7937
69.4815
68.1378
66.7676
65.376
63.9682
62.5494
61.1248
59.6991
58.28
84.273
84.3858
84.3794
84.2244
83.9589
83.607
83.1744
82.6641
82.0808
81.4277
80.7069
79.9205
79.0708
78.1604
77.1922
76.1691
75.0944
73.9716
72.8042
71.5964
70.3523
69.0763
67.773
66.447
65.1031
63.7458
62.38
61.0099
59.6401
58.2768
83.8568
83.9655
83.9524
83.7888
83.5137
83.1523
82.7112
82.193
81.6016
80.941
80.2143
79.4242
78.5734
77.6649
76.7019
75.6876
74.6253
73.5188
72.3717
71.1881
69.972
68.7276
67.4593
66.1714
64.8683
63.5541
62.2331
60.9092
59.5864
58.2699
83.5001
83.6041
83.5835
83.4118
83.1287
82.7597
82.3117
81.7871
81.1897
80.5238
79.7931
79.0009
78.1502
77.2444
76.2868
75.2808
74.23
73.1381
72.0089
70.8463
69.6543
68.437
67.1985
65.9428
64.6739
63.3958
62.1123
60.827
59.5435
58.2662
83.2105
83.3083
83.2785
83.0986
82.8085
82.4329
81.9789
81.4489
80.8468
80.1771
79.4437
78.6504
77.8005
76.8976
75.9451
74.9466
73.9058
72.8265
71.7124
70.5674
69.3955
68.2004
66.9862
65.7566
64.5155
63.2665
62.0131
60.7586
59.5062
58.2597
82.9977
83.0844
83.0438
82.8577
82.5631
82.183
81.7243
81.1903
80.5848
79.9124
79.1773
78.3835
77.5346
76.6343
75.6862
74.694
73.6614
72.5923
71.4903
70.3594
69.2032
68.0258
66.8307
65.6217
64.4023
63.1761
61.9462
60.716
59.4883
58.2666
82.8762
82.9325
82.8738
82.6826
82.3858
82.0029
81.5414
81.0051
80.3979
79.7243
78.9888
78.1953
77.3477
76.4497
75.5051
74.5176
73.491
72.429
71.3355
70.2143
69.069
67.9035
66.7213
65.5261
64.3212
63.1101
61.8958
60.6814
59.4697
58.2634
82.8791
82.8822
82.8002
82.6029
82.303
81.9167
81.4523
80.9138
80.3052
79.6309
78.8951
78.102
77.2555
76.3594
75.4174
74.4333
73.4108
72.3538
71.266
70.1511
69.0128
67.8549
66.6809
65.4942
64.2983
63.0964
61.8915
60.6866
59.4844
58.2871
-84.6773
-52.4049
-21.6957
33.8329
29.104
23.0685
42.0421
31.0616
23.2023
39.829
32.0026
26.7416
43.5825
37.8359
33.3235
46.6912
41.9543
38.0001
48.6784
44.7086
41.3722
50.2682
46.9187
44.0948
51.5954
48.7172
46.2861
52.6758
50.1637
48.0416
53.554
51.3362
49.4626
54.2704
52.2931
50.6221
54.8548
53.0765
51.5728
55.3309
53.7191
52.3553
55.7181
54.2468
53.0011
56.032
54.6802
53.5348
56.2854
55.0358
53.9762
56.4889
55.3272
54.3413
56.6514
55.5654
54.6429
56.7802
55.7597
54.892
56.8814
55.9175
55.097
56.9606
56.0455
55.2657
57.0215
56.1483
55.4034
57.0696
56.232
55.5168
57.1055
56.2979
55.6077
57.1378
56.355
55.6852
57.1591
56.3962
55.7433
57.189
56.4411
55.8002
57.1996
56.4622
55.8308
57.2381
56.5112
55.8848
0.388628
-2.48322
-3.94235
-4.15265
-4.11043
-3.95088
-3.71349
-3.42033
-3.19551
-3.16614
-3.23007
-3.30501
-3.38044
-3.45325
-3.511
-3.53847
-3.53349
-3.51241
-3.49053
-3.45885
-3.38873
-3.25092
-3.02519
-2.70264
-2.29278
-1.82519
-1.34273
-0.889425
-0.496606
-0.154843
10.4673
-1.09581
-3.65384
-3.54302
-3.50975
-3.51392
-3.38729
-3.13691
-3.04712
-3.17787
-3.33096
-3.42568
-3.51182
-3.60317
-3.67868
-3.70982
-3.69593
-3.67282
-3.67105
-3.67192
-3.62902
-3.50368
-3.26902
-2.90969
-2.43683
-1.90193
-1.36182
-0.857323
-0.438597
-0.12776
13.768
4.53119
0.837466
-0.590693
-1.64857
-2.42289
-2.81524
-2.93939
-3.02317
-3.08267
-3.16467
-3.28672
-3.4445
-3.61172
-3.74429
-3.80676
-3.81099
-3.81269
-3.85257
-3.89845
-3.88394
-3.76607
-3.51181
-3.09585
-2.53336
-1.91878
-1.33343
-0.800771
-0.363309
-0.083013
20.1943
12.8494
7.85516
4.56466
2.19044
0.472811
-0.682787
-1.43407
-1.95175
-2.32857
-2.65358
-2.96193
-3.24906
-3.50159
-3.69916
-3.82605
-3.8942
-3.94286
-4.00564
-4.06412
-4.05854
-3.92764
-3.61217
-3.09337
-2.464
-1.84257
-1.26698
-0.744134
-0.297334
-0.0464041
27.4673
20.8368
15.094
10.6073
7.23455
4.69676
2.79626
1.37728
0.298691
-0.551478
-1.25447
-1.85193
-2.35919
-2.78181
-3.11886
-3.37054
-3.55121
-3.68941
-3.80604
-3.88606
-3.88135
-3.73874
-3.42217
-2.94268
-2.36834
-1.76909
-1.17976
-0.627864
-0.175875
-0.0398722
33.0347
27.2635
21.5619
16.6383
12.6992
9.57022
7.06407
5.05366
3.43436
2.11301
1.01623
0.0944677
-0.682461
-1.3323
-1.86527
-2.29054
-2.62345
-2.8845
-3.08568
-3.21529
-3.24014
-3.12454
-2.85072
-2.43473
-1.92679
-1.38643
-0.862229
-0.403589
-0.0925745
-0.11703
37.2766
32.3665
27.087
22.1909
18.0432
14.5805
11.668
9.21751
7.16115
5.43158
3.96758
2.72111
1.65825
0.756033
-0.00172987
-0.628926
-1.14065
-1.55207
-1.8713
-2.09216
-2.19606
-2.16391
-1.99031
-1.69329
-1.31391
-0.903541
-0.512743
-0.197559
-0.034455
-0.158444
40.6479
36.4275
31.6631
27.0254
22.9167
19.3437
16.2219
13.4989
11.1374
9.0948
7.32656
5.79351
4.46492
3.31763
2.33364
1.49767
0.795542
0.214836
-0.251751
-0.603306
-0.832206
-0.931352
-0.903335
-0.766719
-0.556095
-0.315834
-0.0942537
0.0549557
0.0711167
-0.137315
43.3202
39.6403
35.3787
31.0956
27.17
23.6431
20.4672
17.6158
15.0739
12.8205
10.8279
9.06797
7.51597
6.15195
4.95933
3.92378
3.03255
2.27483
1.64319
1.13474
0.749855
0.487809
0.341049
0.291101
0.308116
0.353953
0.385895
0.358361
0.226968
-0.0686115
45.4487
42.203
38.3927
34.4797
30.8002
27.4093
24.2819
21.407
18.7841
16.4094
14.2696
12.3455
10.6196
9.07686
7.70388
6.48865
5.42027
4.48926
3.68814
3.01168
2.45592
2.01548
1.6801
1.432
1.24535
1.088
0.924192
0.717421
0.435606
0.0390244
47.1677
44.2762
40.855
37.2883
33.8696
30.6569
27.6366
24.8052
22.172
19.746
17.5229
15.4903
13.6376
11.9553
10.4339
9.06413
7.83714
6.74484
5.78002
4.93638
4.2077
3.58625
3.06069
2.61443
2.22527
1.86643
1.50871
1.12327
0.686169
0.170797
48.5703
45.9717
42.8816
39.6253
36.4592
33.4379
30.5525
27.8033
25.2074
22.7804
20.5216
18.4247
16.4855
14.6992
13.0601
11.5618
10.1973
8.96014
7.84375
6.84161
5.94667
5.15035
4.44131
3.80446
3.22078
2.66801
2.12234
1.5607
0.964125
0.313907
49.7225
47.3692
44.5614
41.5788
38.647
35.8146
33.0735
30.4279
27.8991
25.5028
23.2412
21.1135
19.1201
17.2601
15.5309
13.9283
12.4475
11.0835
9.83073
8.68303
7.6334
6.67335
5.79216
4.97634
4.20959
3.4733
2.74778
2.01403
1.25589
0.459121
50.6739
48.5282
45.9619
43.2188
40.4989
37.8446
35.2487
32.7179
30.2719
27.9251
25.6832
23.5495
21.5272
19.6181
17.8219
16.1366
14.5593
13.0863
11.7131
10.4345
9.24397
8.13356
7.09356
6.11207
5.17503
4.2667
3.37044
2.46999
1.55075
0.600853
51.4625
49.4934
47.1344
44.6002
42.0696
39.5801
37.1256
34.712
32.3555
30.0702
27.8639
25.7418
23.7094
21.7706
19.9265
18.1769
16.5206
14.9551
13.4773
12.0826
10.7653
9.51859
8.33361
7.2
6.1056
5.03685
3.97938
2.91879
1.84134
0.736425
52.1178
50.3
48.1196
45.7678
43.4061
41.0677
38.7464
36.4459
34.1808
31.9641
29.803
27.7045
25.6763
23.7229
21.8466
20.0484
18.3284
16.6856
15.1178
13.6212
12.1913
10.822
9.50558
8.23306
6.99384
5.77609
4.56711
3.3538
2.12304
0.864961
52.6632
50.9754
48.9497
46.7574
44.5456
42.3441
40.1452
37.9518
35.7769
33.6309
31.5201
29.4538
27.4406
25.4847
23.5888
21.7551
19.985
18.2784
16.634
15.049
13.5197
12.0408
10.6059
9.20709
7.83507
6.4794
5.12866
3.77078
2.39312
0.986405
53.1176
51.5419
49.6501
47.5973
45.5177
43.4384
41.3514
39.2584
37.1699
35.0934
33.0358
31.0078
29.0175
27.0681
25.1625
23.304
21.4951
19.7366
18.0277
16.3665
14.7501
13.1741
11.6329
10.1197
8.62636
7.14354
5.66084
4.16704
2.64996
1.10092
53.4962
52.0174
50.242
48.3108
46.3479
44.3777
42.3918
40.3907
38.3823
36.3725
34.3695
32.384
30.4216
28.4848
26.5771
24.7027
22.8646
21.0643
19.3018
17.5756
15.8834
14.2217
12.5857
10.9695
9.36578
7.76627
6.16141
4.54068
2.89243
1.20852
53.8116
52.4167
50.7423
48.9176
47.0574
45.1841
43.2889
41.3704
39.4345
37.488
35.5402
33.5985
31.6657
29.7453
27.8417
25.9588
24.0997
22.2665
20.4598
18.6786
16.9211
15.1843
13.4642
11.7556
10.0521
8.34613
6.6289
4.89051
3.11982
1.30917
54.074
52.7516
51.165
49.433
47.6631
45.8754
44.0607
42.2158
40.3457
38.4596
36.5656
34.6655
32.7614
30.8596
28.9646
27.0793
25.2062
23.3479
21.5054
19.6782
17.8647
16.0625
14.2683
12.4774
10.6842
8.88177
7.06188
5.21524
3.33121
1.40251
54.2919
53.0321
51.5212
49.8698
48.1784
46.4658
44.7222
42.9428
41.133
39.304
37.4601
35.5976
33.721
31.8389
29.9555
28.0723
26.1912
24.3144
22.4431
20.5776
18.7165
16.8578
14.9987
13.1352
11.2619
9.37268
7.45979
5.51444
3.52643
1.48866
54.4719
53.2656
51.8199
50.2378
48.6143
46.9668
45.2855
43.5648
41.8106
40.0335
38.2335
36.4055
34.5559
32.6939
30.8233
28.9453
27.0606
25.1705
23.2765
21.3791
19.4777
17.5706
15.6551
13.7278
11.7838
9.81716
7.82082
5.78635
3.70395
1.56665
54.621
53.4602
52.07
50.5471
48.9817
47.3904
45.7635
44.0955
42.3914
40.659
38.8961
37.0999
35.277
33.4349
31.5773
29.7064
27.822
25.9231
24.0107
22.0869
20.1515
18.2032
16.2393
14.2567
12.2508
10.2161
8.14578
6.03186
3.86483
1.63746
54.7424
53.62
52.2765
50.8036
49.2873
47.7438
46.1636
44.5417
42.8813
41.1858
39.4544
37.6879
35.8909
34.0673
32.2218
30.3592
28.4778
26.5725
24.6449
22.6994
20.7359
18.7529
16.748
14.7181
12.6589
10.5651
8.43032
6.24674
4.00524
1.69847
54.8445
53.7539
52.4494
51.018
49.5428
48.0393
46.4983
44.9148
43.2903
41.6255
39.9213
38.1812
36.4072
34.6004
32.7661
30.9117
29.0338
27.1244
25.1859
23.2232
21.2368
19.2253
17.1862
15.1167
13.0125
10.8686
8.67875
6.4354
4.12954
1.75307
54.9236
53.8588
52.5857
51.1879
49.746
48.2752
46.7659
45.2127
43.6159
41.9758
40.2941
38.5745
36.8187
35.0272
33.2042
31.3558
29.4801
27.5703
25.6256
23.6496
21.6444
19.6097
17.543
15.4412
13.3002
11.1151
8.87991
6.58712
4.2281
1.79471
54.9947
53.9496
52.7006
51.3284
49.9117
48.4655
46.9805
45.4507
43.8756
42.2553
40.5915
38.8878
37.146
35.3668
33.5524
31.707
29.8332
27.9255
25.9767
23.9899
21.9703
19.9179
17.83
15.7032
13.5336
11.3163
9.04534
6.7133
4.31158
1.83104
55.0374
54.0054
52.7725
51.4176
50.0177
48.5873
47.1181
45.6051
44.0457
42.439
40.7882
39.0962
37.3643
35.5932
33.7837
31.9401
30.0683
28.162
26.2103
24.2166
22.1876
20.1232
18.0207
15.8768
13.6875
11.4479
9.15194
6.79224
4.36045
1.84812
55.0913
54.0599
52.8355
51.4914
50.1013
48.6796
47.2185
45.7138
44.1616
42.5605
40.9151
39.2288
37.5016
35.734
33.9273
32.0857
30.2142
28.3064
26.353
24.3561
22.3215
20.2496
18.1383
15.9843
13.7835
11.531
9.22021
6.84323
4.38983
1.84579
)
;

boundaryField
{
    inlet
    {
        type            zeroGradient;
    }
    outlet
    {
        type            fixedValue;
        value           uniform 0;
    }
    flap
    {
        type            zeroGradient;
    }
    upperWall
    {
        type            zeroGradient;
    }
    lowerWall
    {
        type            zeroGradient;
    }
    frontAndBack
    {
        type            empty;
    }
}


// ************************************************************************* //
