/*--------------------------------*- C++ -*----------------------------------*\
| =========                 |                                                 |
| \\      /  F ield         | OpenFOAM: The Open Source CFD Toolbox           |
|  \\    /   O peration     | Version:  dev                                   |
|   \\  /    A nd           | Web:      www.OpenFOAM.org                      |
|    \\/     M anipulation  |                                                 |
\*---------------------------------------------------------------------------*/
FoamFile
{
    version     2.0;
    format      ascii;
    class       pointVectorField;
    location    "2.6";
    object      pointDisplacement;
}
// * * * * * * * * * * * * * * * * * * * * * * * * * * * * * * * * * * * * * //

dimensions      [0 1 0 0 0 0 0];

internalField   nonuniform List<vector> 
5828
(
(0 0 0)
(0.0210488 0 0)
(0.0397576 0 0)
(0.0555888 0 0)
(0.0688151 0 0)
(0.0797088 0 0)
(0.0885105 0 0)
(0.0954255 0 0)
(0.100633 0 0)
(0.10429 0 0)
(0.106536 0 0)
(0.107491 0 0)
(0.107261 0 0)
(0.105941 0 0)
(0.103616 0 0)
(0.100367 0 0)
(0.0962705 0 0)
(0.0913927 0 0)
(0.0858017 0 0)
(0.079568 0 0)
(0.0727656 0 0)
(0.0654749 0 0)
(0.0577872 0 0)
(0.0498063 0 0)
(0.0416521 0 0)
(0.0334842 0 0)
(0.025521 0 0)
(0.0180669 0 0)
(0.0115949 0 0)
(0.00700861 0 0)
(1.08604e-09 0 0)
(0 0 0)
(0.0210633 0 -0.000163216)
(0.0397869 0 -0.000310259)
(0.0556333 0 -0.000439215)
(0.0688742 0 -0.000552863)
(0.0797835 0 -0.000653221)
(0.0886029 0 -0.000742209)
(0.0955377 0 -0.000821001)
(0.100767 0 -0.000889746)
(0.104449 0 -0.000948168)
(0.106722 0 -0.000996046)
(0.107709 0 -0.00103262)
(0.107514 0 -0.00105668)
(0.106234 0 -0.00106664)
(0.103954 0 -0.00106053)
(0.100756 0 -0.00103634)
(0.0967166 0 -0.00099119)
(0.0919052 0 -0.000921616)
(0.0863896 0 -0.00082406)
(0.0802418 0 -0.000694238)
(0.0735378 0 -0.000527316)
(0.0663604 0 -0.000317933)
(0.058805 0 -6.03788e-05)
(0.0509822 0 0.000251469)
(0.0430157 0 0.000624587)
(0.035066 0 0.00106631)
(0.0273607 0 0.00158248)
(0.0202172 0 0.00217628)
(0.014148 0 0.0028405)
(0.0101161 0 0.00350404)
(0.00432259 0 0.00446582)
(0 0 0)
(0.0211082 0 -0.000327002)
(0.0398777 0 -0.000621637)
(0.0557696 0 -0.000879651)
(0.069054 0 -0.00110696)
(0.0800099 0 -0.0013081)
(0.0888823 0 -0.00148663)
(0.095876 0 -0.00164507)
(0.10117 0 -0.0017836)
(0.104924 0 -0.00190158)
(0.10728 0 -0.00199878)
(0.10836 0 -0.00207373)
(0.108271 0 -0.00212408)
(0.10711 0 -0.00214673)
(0.104965 0 -0.00213773)
(0.101918 0 -0.00209224)
(0.09805 0 -0.0020058)
(0.0934347 0 -0.0018728)
(0.0881424 0 -0.00168554)
(0.0822495 0 -0.00143569)
(0.0758366 0 -0.00111408)
(0.068992 0 -0.000710467)
(0.0618223 0 -0.00021434)
(0.0544548 0 0.000385456)
(0.0470319 0 0.00110119)
(0.0397352 0 0.00194308)
(0.0328162 0 0.00291625)
(0.0266073 0 0.00401854)
(0.0216596 0 0.00521794)
(0.0190947 0 0.00634753)
(0.0145433 0 0.00792933)
(0 0 0)
(0.0211832 0 -0.00049131)
(0.0400254 0 -0.00093402)
(0.0559896 0 -0.00132116)
(0.0693493 0 -0.00166231)
(0.0803856 0 -0.00196495)
(0.0893465 0 -0.00223382)
(0.0964373 0 -0.00247226)
(0.101837 0 -0.00268116)
(0.105711 0 -0.00286032)
(0.108203 0 -0.00300917)
(0.109436 0 -0.00312551)
(0.10952 0 -0.00320605)
(0.108556 0 -0.00324636)
(0.106634 0 -0.00324087)
(0.103839 0 -0.00318286)
(0.100256 0 -0.0030659)
(0.0959639 0 -0.00288199)
(0.0910407 0 -0.00262048)
(0.0855689 0 -0.0022699)
(0.0796382 0 -0.00181779)
(0.0733456 0 -0.00125042)
(0.0668076 0 -0.00055359)
(0.0601699 0 0.000286394)
(0.0536049 0 0.00128259)
(0.0473426 0 0.00244222)
(0.0416867 0 0.00376069)
(0.0370057 0 0.0052146)
(0.0338136 0 0.00673069)
(0.0333522 0 0.00803215)
(0.0305347 0 0.00987348)
(0 0 0)
(0.0212874 0 -0.000655376)
(0.0402279 0 -0.00124604)
(0.0562908 0 -0.00176291)
(0.0697574 0 -0.00221905)
(0.0809071 0 -0.00262425)
(0.0899889 0 -0.00298458)
(0.0972124 0 -0.00330373)
(0.10276 0 -0.00358424)
(0.106801 0 -0.0038272)
(0.109481 0 -0.00403115)
(0.110926 0 -0.00419337)
(0.111251 0 -0.00430984)
(0.110558 0 -0.00437515)
(0.108942 0 -0.00438242)
(0.106496 0 -0.00432411)
(0.103307 0 -0.00419183)
(0.0994625 0 -0.00397517)
(0.0950484 0 -0.00366185)
(0.0901564 0 -0.00323834)
(0.0848864 0 -0.00269009)
(0.0793555 0 -0.00200264)
(0.0736949 0 -0.0011609)
(0.0680657 0 -0.0001515)
(0.0626668 0 0.00103533)
(0.0577624 0 0.00239936)
(0.0537269 0 0.00391525)
(0.051035 0 0.00551754)
(0.0501902 0 0.00708457)
(0.0523359 0 0.00824313)
(0.0513905 0 0.0100418)
(0 0 0)
(0.0214196 0 -0.0008187)
(0.0404865 0 -0.00155685)
(0.0566764 0 -0.00220369)
(0.0702774 0 -0.00277564)
(0.0815684 0 -0.00328432)
(0.0908016 0 -0.00373741)
(0.0981933 0 -0.00414003)
(0.103931 0 -0.00449578)
(0.108185 0 -0.00480632)
(0.111104 0 -0.00507007)
(0.112818 0 -0.00528411)
(0.113446 0 -0.00544406)
(0.113096 0 -0.0055439)
(0.111868 0 -0.00557557)
(0.109859 0 -0.00553124)
(0.107168 0 -0.00540182)
(0.103888 0 -0.00517534)
(0.100115 0 -0.0048388)
(0.0959538 0 -0.00437796)
(0.091516 0 -0.00377789)
(0.0869356 0 -0.0030246)
(0.082368 0 -0.00210559)
(0.0780005 0 -0.00101237)
(0.0740701 0 0.000255455)
(0.0708567 0 0.00168457)
(0.0687543 0 0.00322781)
(0.0683606 0 0.0047683)
(0.0702851 0 0.0061164)
(0.0753979 0 0.00683326)
(0.0763588 0 0.00837075)
(0 0 0)
(0.021579 0 -0.000981552)
(0.0407986 0 -0.00186694)
(0.0571425 0 -0.00264372)
(0.0709039 0 -0.00333128)
(0.0823622 0 -0.00394364)
(0.0917768 0 -0.00449083)
(0.0993717 0 -0.00497975)
(0.105337 0 -0.00541449)
(0.109846 0 -0.00579679)
(0.113049 0 -0.00612568)
(0.115084 0 -0.00639837)
(0.116075 0 -0.00661064)
(0.116136 0 -0.00675648)
(0.115374 0 -0.00682772)
(0.113891 0 -0.00681585)
(0.111792 0 -0.00671099)
(0.109184 0 -0.00650164)
(0.106176 0 -0.00617545)
(0.102882 0 -0.00571842)
(0.0994372 0 -0.00511859)
(0.0959898 0 -0.00436403)
(0.0927127 0 -0.00344636)
(0.0898257 0 -0.00236568)
(0.0875996 0 -0.00113485)
(0.0863686 0 0.000208606)
(0.0865315 0 0.00159373)
(0.0886857 0 0.00286622)
(0.0935697 0 0.00375261)
(0.101872 0 0.0037657)
(0.104823 0 0.00487875)
(0 0 0)
(0.021765 0 -0.00114415)
(0.0411619 0 -0.00217672)
(0.0576816 0 -0.00308351)
(0.0716257 0 -0.00388665)
(0.0832793 0 -0.00460337)
(0.0929071 0 -0.00524655)
(0.100738 0 -0.00582421)
(0.106966 0 -0.00634124)
(0.111768 0 -0.00679993)
(0.115299 0 -0.00719998)
(0.117703 0 -0.00753898)
(0.119111 0 -0.00781338)
(0.119644 0 -0.00801797)
(0.119419 0 -0.00814579)
(0.118543 0 -0.00818715)
(0.117124 0 -0.00813088)
(0.115285 0 -0.0079685)
(0.113153 0 -0.00769038)
(0.110854 0 -0.00728399)
(0.10854 0 -0.00674058)
(0.106379 0 -0.00605325)
(0.104576 0 -0.00522306)
(0.103381 0 -0.00426196)
(0.103074 0 -0.00319485)
(0.104035 0 -0.00208439)
(0.106732 0 -0.00104101)
(0.111672 0 -0.000243601)
(0.119634 0 -3.31792e-05)
(0.13125 0 -0.000938579)
(0.136279 0 -0.000394255)
(0 0 0)
(0.021976 0 -0.00130589)
(0.0415719 0 -0.00248499)
(0.0582869 0 -0.00352154)
(0.0724359 0 -0.00444123)
(0.0843129 0 -0.00526431)
(0.0941838 0 -0.00600576)
(0.10228 0 -0.00667502)
(0.108803 0 -0.00727817)
(0.113934 0 -0.00781839)
(0.117835 0 -0.00829623)
(0.120651 0 -0.0087097)
(0.122524 0 -0.00905663)
(0.123583 0 -0.00933313)
(0.123952 0 -0.00953299)
(0.123749 0 -0.00964751)
(0.123089 0 -0.00966675)
(0.122109 0 -0.00958452)
(0.120951 0 -0.00939438)
(0.119762 0 -0.00908857)
(0.118705 0 -0.00866247)
(0.117968 0 -0.00811607)
(0.117789 0 -0.00746124)
(0.118448 0 -0.00672498)
(0.12026 0 -0.00595271)
(0.123604 0 -0.00522439)
(0.129 0 -0.0046909)
(0.13694 0 -0.00456519)
(0.14815 0 -0.00522923)
(0.163117 0 -0.00722344)
(0.170276 0 -0.00736543)
(0 0 0)
(0.02221 0 -0.00146626)
(0.042024 0 -0.00279057)
(0.0589545 0 -0.00395634)
(0.0733312 0 -0.0049933)
(0.0854538 0 -0.00592418)
(0.0955915 0 -0.00676574)
(0.10398 0 -0.00752928)
(0.110827 0 -0.0082223)
(0.116319 0 -0.00884914)
(0.120623 0 -0.00941165)
(0.123893 0 -0.0099093)
(0.126276 0 -0.0103408)
(0.127908 0 -0.0107027)
(0.12892 0 -0.0109907)
(0.129444 0 -0.011199)
(0.129611 0 -0.0113212)
(0.129565 0 -0.0113528)
(0.129461 0 -0.0112909)
(0.129468 0 -0.0111346)
(0.12977 0 -0.0108867)
(0.130583 0 -0.0105571)
(0.132158 0 -0.010168)
(0.134797 0 -0.0097609)
(0.13887 0 -0.00940742)
(0.144786 0 -0.00921301)
(0.153045 0 -0.00935245)
(0.164181 0 -0.0100813)
(0.178778 0 -0.0117938)
(0.197017 0 -0.0149934)
(0.206368 0 -0.0159382)
(0 0 0)
(0.0224568 0 -0.00162477)
(0.0425101 0 -0.00309336)
(0.059679 0 -0.00438819)
(0.0743037 0 -0.00554262)
(0.086692 0 -0.00658213)
(0.0971177 0 -0.00752552)
(0.105822 0 -0.00838601)
(0.113018 0 -0.00917265)
(0.118898 0 -0.00989118)
(0.123636 0 -0.0105453)
(0.127398 0 -0.0111371)
(0.13033 0 -0.0116651)
(0.132571 0 -0.0121259)
(0.134268 0 -0.0125189)
(0.135567 0 -0.0128426)
(0.13661 0 -0.0130934)
(0.137552 0 -0.0132706)
(0.138559 0 -0.0133756)
(0.139829 0 -0.0134167)
(0.141565 0 -0.0134053)
(0.144001 0 -0.0133617)
(0.147419 0 -0.0133232)
(0.152153 0 -0.0133497)
(0.1586 0 -0.0135329)
(0.167228 0 -0.0140125)
(0.178509 0 -0.0149807)
(0.193004 0 -0.0167299)
(0.211047 0 -0.0196302)
(0.232405 0 -0.0240989)
(0.244069 0 -0.0259739)
(0 0 0)
(0.0227143 0 -0.00178127)
(0.0430269 0 -0.00339342)
(0.0604552 0 -0.0048172)
(0.0753463 0 -0.0060894)
(0.0880185 0 -0.00723849)
(0.0987517 0 -0.00828551)
(0.107792 0 -0.00924563)
(0.115359 0 -0.0101297)
(0.12165 0 -0.0109447)
(0.126849 0 -0.0116967)
(0.131125 0 -0.01239)
(0.134631 0 -0.0130238)
(0.137514 0 -0.0135972)
(0.139932 0 -0.0141128)
(0.142042 0 -0.0145723)
(0.143996 0 -0.0149764)
(0.145963 0 -0.0153293)
(0.148125 0 -0.0156386)
(0.150696 0 -0.015921)
(0.1539 0 -0.016198)
(0.158001 0 -0.0165042)
(0.163311 0 -0.0168929)
(0.170194 0 -0.0174438)
(0.179082 0 -0.0182721)
(0.190473 0 -0.0195433)
(0.204854 0 -0.0214731)
(0.222777 0 -0.0243763)
(0.24427 0 -0.0285636)
(0.268604 0 -0.0343206)
(0.282878 0 -0.0372124)
(0 0 0)
(0.0229882 0 -0.0019356)
(0.0435731 0 -0.00368959)
(0.061274 0 -0.00524127)
(0.0764463 0 -0.00663094)
(0.0894175 0 -0.00789004)
(0.100474 0 -0.00904194)
(0.109867 0 -0.0101039)
(0.117823 0 -0.0110887)
(0.124545 0 -0.0120056)
(0.130225 0 -0.0128623)
(0.135034 0 -0.0136636)
(0.139131 0 -0.0144122)
(0.142681 0 -0.0151114)
(0.145845 0 -0.0157655)
(0.148785 0 -0.0163788)
(0.151669 0 -0.0169581)
(0.154681 0 -0.0175134)
(0.158017 0 -0.0180604)
(0.161901 0 -0.0186224)
(0.166579 0 -0.0192326)
(0.172346 0 -0.0199422)
(0.179544 0 -0.0208225)
(0.188559 0 -0.0219713)
(0.19987 0 -0.0235322)
(0.213985 0 -0.0256905)
(0.231451 0 -0.0286933)
(0.252742 0 -0.0328454)
(0.277577 0 -0.038366)
(0.304708 0 -0.0453799)
(0.322327 0 -0.0493431)
(0 0 0)
(0.0232752 0 -0.00208739)
(0.0441436 0 -0.0039811)
(0.0621284 0 -0.00565931)
(0.0775941 0 -0.0071658)
(0.0908767 0 -0.00853506)
(0.102269 0 -0.0097928)
(0.112028 0 -0.0109584)
(0.120387 0 -0.012047)
(0.12756 0 -0.0130711)
(0.133736 0 -0.0140386)
(0.139088 0 -0.0149546)
(0.143791 0 -0.0158266)
(0.148019 0 -0.016662)
(0.151936 0 -0.0174669)
(0.155712 0 -0.0182494)
(0.159529 0 -0.0190222)
(0.16358 0 -0.0198015)
(0.168078 0 -0.020611)
(0.173254 0 -0.0214824)
(0.179383 0 -0.0224632)
(0.186773 0 -0.0236173)
(0.195782 0 -0.0250323)
(0.206837 0 -0.0268308)
(0.220435 0 -0.0291789)
(0.237107 0 -0.0322865)
(0.257463 0 -0.0364346)
(0.281817 0 -0.0418835)
(0.309658 0 -0.0487411)
(0.339328 0 -0.0569703)
(0.362038 0 -0.062049)
(0 0 0)
(0.0235732 0 -0.00223656)
(0.0447347 0 -0.00426783)
(0.0630129 0 -0.00607112)
(0.0787822 0 -0.00769374)
(0.0923867 0 -0.00917316)
(0.104124 0 -0.0105375)
(0.114259 0 -0.011808)
(0.123033 0 -0.0130028)
(0.130663 0 -0.0141366)
(0.137339 0 -0.0152181)
(0.143243 0 -0.016255)
(0.14856 0 -0.0172586)
(0.153469 0 -0.0182394)
(0.158136 0 -0.019205)
(0.162737 0 -0.020168)
(0.167471 0 -0.0211483)
(0.172535 0 -0.0221672)
(0.178157 0 -0.023257)
(0.184581 0 -0.0244596)
(0.192086 0 -0.0258315)
(0.200998 0 -0.0274524)
(0.211678 0 -0.0294236)
(0.224578 0 -0.0318908)
(0.240182 0 -0.0350365)
(0.25904 0 -0.0391)
(0.281724 0 -0.0443781)
(0.308364 0 -0.0510944)
(0.33834 0 -0.0592801)
(0.370071 0 -0.068825)
(0.401754 0 -0.0750173)
(0 0 0)
(0.0238811 0 -0.00238353)
(0.0453448 0 -0.00455064)
(0.0639258 0 -0.00647795)
(0.0800081 0 -0.0082163)
(0.0939444 0 -0.00980625)
(0.106037 0 -0.0112783)
(0.116559 0 -0.0126561)
(0.125758 0 -0.0139602)
(0.133852 0 -0.0152063)
(0.141034 0 -0.0164058)
(0.147497 0 -0.0175701)
(0.153432 0 -0.0187124)
(0.159016 0 -0.0198451)
(0.164423 0 -0.0209799)
(0.169837 0 -0.0221339)
(0.175467 0 -0.0233333)
(0.181515 0 -0.0246051)
(0.188207 0 -0.025987)
(0.195806 0 -0.0275325)
(0.204583 0 -0.0293057)
(0.21486 0 -0.0313955)
(0.227011 0 -0.0339214)
(0.241458 0 -0.0370388)
(0.258643 0 -0.0409417)
(0.279073 0 -0.0458907)
(0.303095 0 -0.052165)
(0.330584 0 -0.0600017)
(0.360668 0 -0.0695702)
(0.391446 0 -0.0811697)
(0.441478 0 -0.0880886)
(0 0 0)
(0.0210488 0 0)
(0.0397576 0 0)
(0.0555888 0 0)
(0.0688151 0 0)
(0.0797088 0 0)
(0.0885105 0 0)
(0.0954255 0 0)
(0.100633 0 0)
(0.10429 0 0)
(0.106536 0 0)
(0.107491 0 0)
(0.107261 0 0)
(0.105941 0 0)
(0.103616 0 0)
(0.100367 0 0)
(0.0962705 0 0)
(0.0913927 0 0)
(0.0858017 0 0)
(0.079568 0 0)
(0.0727656 0 0)
(0.0654749 0 0)
(0.0577872 0 0)
(0.0498063 0 0)
(0.0416521 0 0)
(0.0334842 0 0)
(0.025521 0 0)
(0.0180669 0 0)
(0.0115949 0 0)
(0.00700861 0 0)
(0 0 0)
(0 0 0)
(0.0210633 0 -0.000163216)
(0.0397869 0 -0.000310259)
(0.0556333 0 -0.000439215)
(0.0688742 0 -0.000552863)
(0.0797835 0 -0.000653221)
(0.0886029 0 -0.000742209)
(0.0955377 0 -0.000821001)
(0.100767 0 -0.000889746)
(0.104449 0 -0.000948168)
(0.106722 0 -0.000996046)
(0.107709 0 -0.00103262)
(0.107514 0 -0.00105668)
(0.106234 0 -0.00106664)
(0.103954 0 -0.00106053)
(0.100756 0 -0.00103634)
(0.0967166 0 -0.00099119)
(0.0919052 0 -0.000921616)
(0.0863896 0 -0.00082406)
(0.0802418 0 -0.000694238)
(0.0735378 0 -0.000527316)
(0.0663604 0 -0.000317933)
(0.058805 0 -6.03788e-05)
(0.0509822 0 0.000251469)
(0.0430157 0 0.000624587)
(0.035066 0 0.00106631)
(0.0273607 0 0.00158248)
(0.0202172 0 0.00217628)
(0.014148 0 0.0028405)
(0.0101161 0 0.00350404)
(0.00432259 0 0.00446582)
(0 0 0)
(0.0211082 0 -0.000327002)
(0.0398777 0 -0.000621637)
(0.0557696 0 -0.000879651)
(0.069054 0 -0.00110696)
(0.0800099 0 -0.0013081)
(0.0888823 0 -0.00148663)
(0.095876 0 -0.00164507)
(0.10117 0 -0.0017836)
(0.104924 0 -0.00190158)
(0.10728 0 -0.00199878)
(0.10836 0 -0.00207373)
(0.108271 0 -0.00212408)
(0.10711 0 -0.00214673)
(0.104965 0 -0.00213773)
(0.101918 0 -0.00209224)
(0.09805 0 -0.0020058)
(0.0934347 0 -0.0018728)
(0.0881424 0 -0.00168554)
(0.0822495 0 -0.00143569)
(0.0758366 0 -0.00111408)
(0.068992 0 -0.000710467)
(0.0618223 0 -0.00021434)
(0.0544548 0 0.000385456)
(0.0470319 0 0.00110119)
(0.0397352 0 0.00194308)
(0.0328162 0 0.00291625)
(0.0266073 0 0.00401854)
(0.0216596 0 0.00521794)
(0.0190947 0 0.00634753)
(0.0145433 0 0.00792933)
(0 0 0)
(0.0211832 0 -0.00049131)
(0.0400254 0 -0.00093402)
(0.0559896 0 -0.00132116)
(0.0693493 0 -0.00166231)
(0.0803856 0 -0.00196495)
(0.0893465 0 -0.00223382)
(0.0964373 0 -0.00247226)
(0.101837 0 -0.00268116)
(0.105711 0 -0.00286032)
(0.108203 0 -0.00300917)
(0.109436 0 -0.00312551)
(0.10952 0 -0.00320605)
(0.108556 0 -0.00324636)
(0.106634 0 -0.00324087)
(0.103839 0 -0.00318286)
(0.100256 0 -0.0030659)
(0.0959639 0 -0.00288199)
(0.0910407 0 -0.00262048)
(0.0855689 0 -0.0022699)
(0.0796382 0 -0.00181779)
(0.0733456 0 -0.00125042)
(0.0668076 0 -0.00055359)
(0.0601699 0 0.000286394)
(0.0536049 0 0.00128259)
(0.0473426 0 0.00244222)
(0.0416867 0 0.00376069)
(0.0370057 0 0.0052146)
(0.0338136 0 0.00673069)
(0.0333522 0 0.00803215)
(0.0305347 0 0.00987348)
(0 0 0)
(0.0212874 0 -0.000655376)
(0.0402279 0 -0.00124604)
(0.0562908 0 -0.00176291)
(0.0697574 0 -0.00221905)
(0.0809071 0 -0.00262425)
(0.0899889 0 -0.00298458)
(0.0972124 0 -0.00330373)
(0.10276 0 -0.00358424)
(0.106801 0 -0.0038272)
(0.109481 0 -0.00403115)
(0.110926 0 -0.00419337)
(0.111251 0 -0.00430984)
(0.110558 0 -0.00437515)
(0.108942 0 -0.00438242)
(0.106496 0 -0.00432411)
(0.103307 0 -0.00419183)
(0.0994625 0 -0.00397517)
(0.0950484 0 -0.00366185)
(0.0901564 0 -0.00323834)
(0.0848864 0 -0.00269009)
(0.0793555 0 -0.00200264)
(0.0736949 0 -0.0011609)
(0.0680657 0 -0.0001515)
(0.0626668 0 0.00103533)
(0.0577624 0 0.00239936)
(0.0537269 0 0.00391525)
(0.051035 0 0.00551754)
(0.0501902 0 0.00708457)
(0.0523359 0 0.00824313)
(0.0513905 0 0.0100418)
(0 0 0)
(0.0214196 0 -0.0008187)
(0.0404865 0 -0.00155685)
(0.0566764 0 -0.00220369)
(0.0702774 0 -0.00277564)
(0.0815684 0 -0.00328432)
(0.0908016 0 -0.00373741)
(0.0981933 0 -0.00414003)
(0.103931 0 -0.00449578)
(0.108185 0 -0.00480632)
(0.111104 0 -0.00507007)
(0.112818 0 -0.00528411)
(0.113446 0 -0.00544406)
(0.113096 0 -0.0055439)
(0.111868 0 -0.00557557)
(0.109859 0 -0.00553124)
(0.107168 0 -0.00540182)
(0.103888 0 -0.00517534)
(0.100115 0 -0.0048388)
(0.0959538 0 -0.00437796)
(0.091516 0 -0.00377789)
(0.0869356 0 -0.0030246)
(0.082368 0 -0.00210559)
(0.0780005 0 -0.00101237)
(0.0740701 0 0.000255455)
(0.0708567 0 0.00168457)
(0.0687543 0 0.00322781)
(0.0683606 0 0.0047683)
(0.0702851 0 0.0061164)
(0.0753979 0 0.00683326)
(0.0763588 0 0.00837075)
(0 0 0)
(0.021579 0 -0.000981552)
(0.0407986 0 -0.00186694)
(0.0571425 0 -0.00264372)
(0.0709039 0 -0.00333128)
(0.0823622 0 -0.00394364)
(0.0917768 0 -0.00449083)
(0.0993717 0 -0.00497975)
(0.105337 0 -0.00541449)
(0.109846 0 -0.00579679)
(0.113049 0 -0.00612568)
(0.115084 0 -0.00639837)
(0.116075 0 -0.00661064)
(0.116136 0 -0.00675648)
(0.115374 0 -0.00682772)
(0.113891 0 -0.00681585)
(0.111792 0 -0.00671099)
(0.109184 0 -0.00650164)
(0.106176 0 -0.00617545)
(0.102882 0 -0.00571842)
(0.0994372 0 -0.00511859)
(0.0959898 0 -0.00436403)
(0.0927127 0 -0.00344636)
(0.0898257 0 -0.00236568)
(0.0875996 0 -0.00113485)
(0.0863686 0 0.000208606)
(0.0865315 0 0.00159373)
(0.0886857 0 0.00286622)
(0.0935697 0 0.00375261)
(0.101872 0 0.0037657)
(0.104823 0 0.00487875)
(0 0 0)
(0.021765 0 -0.00114415)
(0.0411619 0 -0.00217672)
(0.0576816 0 -0.00308351)
(0.0716257 0 -0.00388665)
(0.0832793 0 -0.00460337)
(0.0929071 0 -0.00524655)
(0.100738 0 -0.00582421)
(0.106966 0 -0.00634124)
(0.111768 0 -0.00679993)
(0.115299 0 -0.00719998)
(0.117703 0 -0.00753898)
(0.119111 0 -0.00781338)
(0.119644 0 -0.00801797)
(0.119419 0 -0.00814579)
(0.118543 0 -0.00818715)
(0.117124 0 -0.00813088)
(0.115285 0 -0.0079685)
(0.113153 0 -0.00769038)
(0.110854 0 -0.00728399)
(0.10854 0 -0.00674058)
(0.106379 0 -0.00605325)
(0.104576 0 -0.00522306)
(0.103381 0 -0.00426196)
(0.103074 0 -0.00319485)
(0.104035 0 -0.00208439)
(0.106732 0 -0.00104101)
(0.111672 0 -0.000243601)
(0.119634 0 -3.31792e-05)
(0.13125 0 -0.000938579)
(0.136279 0 -0.000394256)
(0 0 0)
(0.021976 0 -0.00130589)
(0.0415719 0 -0.00248499)
(0.0582869 0 -0.00352154)
(0.0724359 0 -0.00444123)
(0.0843129 0 -0.00526431)
(0.0941838 0 -0.00600576)
(0.10228 0 -0.00667502)
(0.108803 0 -0.00727817)
(0.113934 0 -0.00781839)
(0.117835 0 -0.00829623)
(0.120651 0 -0.0087097)
(0.122524 0 -0.00905663)
(0.123583 0 -0.00933313)
(0.123952 0 -0.00953299)
(0.123749 0 -0.00964751)
(0.123089 0 -0.00966675)
(0.122109 0 -0.00958452)
(0.120951 0 -0.00939438)
(0.119762 0 -0.00908857)
(0.118705 0 -0.00866247)
(0.117968 0 -0.00811607)
(0.117789 0 -0.00746124)
(0.118448 0 -0.00672498)
(0.12026 0 -0.00595271)
(0.123604 0 -0.00522439)
(0.129 0 -0.0046909)
(0.13694 0 -0.00456519)
(0.14815 0 -0.00522923)
(0.163117 0 -0.00722344)
(0.170276 0 -0.00736543)
(0 0 0)
(0.02221 0 -0.00146626)
(0.042024 0 -0.00279057)
(0.0589545 0 -0.00395634)
(0.0733312 0 -0.0049933)
(0.0854538 0 -0.00592418)
(0.0955915 0 -0.00676574)
(0.10398 0 -0.00752928)
(0.110827 0 -0.0082223)
(0.116319 0 -0.00884914)
(0.120623 0 -0.00941165)
(0.123893 0 -0.0099093)
(0.126276 0 -0.0103408)
(0.127908 0 -0.0107027)
(0.12892 0 -0.0109907)
(0.129444 0 -0.011199)
(0.129611 0 -0.0113212)
(0.129565 0 -0.0113528)
(0.129461 0 -0.0112909)
(0.129468 0 -0.0111346)
(0.12977 0 -0.0108867)
(0.130583 0 -0.0105571)
(0.132158 0 -0.010168)
(0.134797 0 -0.0097609)
(0.13887 0 -0.00940742)
(0.144786 0 -0.00921301)
(0.153045 0 -0.00935245)
(0.164181 0 -0.0100813)
(0.178778 0 -0.0117938)
(0.197017 0 -0.0149934)
(0.206368 0 -0.0159382)
(0 0 0)
(0.0224568 0 -0.00162477)
(0.0425101 0 -0.00309336)
(0.059679 0 -0.00438819)
(0.0743037 0 -0.00554262)
(0.086692 0 -0.00658213)
(0.0971177 0 -0.00752552)
(0.105822 0 -0.00838601)
(0.113018 0 -0.00917265)
(0.118898 0 -0.00989118)
(0.123636 0 -0.0105453)
(0.127398 0 -0.0111371)
(0.13033 0 -0.0116651)
(0.132571 0 -0.0121259)
(0.134268 0 -0.0125189)
(0.135567 0 -0.0128426)
(0.13661 0 -0.0130934)
(0.137552 0 -0.0132706)
(0.138559 0 -0.0133756)
(0.139829 0 -0.0134167)
(0.141565 0 -0.0134053)
(0.144001 0 -0.0133617)
(0.147419 0 -0.0133232)
(0.152153 0 -0.0133497)
(0.1586 0 -0.0135329)
(0.167228 0 -0.0140125)
(0.178509 0 -0.0149807)
(0.193004 0 -0.0167299)
(0.211047 0 -0.0196302)
(0.232405 0 -0.0240989)
(0.244069 0 -0.0259739)
(0 0 0)
(0.0227143 0 -0.00178127)
(0.0430269 0 -0.00339342)
(0.0604552 0 -0.0048172)
(0.0753463 0 -0.0060894)
(0.0880185 0 -0.00723849)
(0.0987517 0 -0.00828551)
(0.107792 0 -0.00924563)
(0.115359 0 -0.0101297)
(0.12165 0 -0.0109447)
(0.126849 0 -0.0116967)
(0.131125 0 -0.01239)
(0.134631 0 -0.0130238)
(0.137514 0 -0.0135972)
(0.139932 0 -0.0141128)
(0.142042 0 -0.0145723)
(0.143996 0 -0.0149764)
(0.145963 0 -0.0153293)
(0.148125 0 -0.0156386)
(0.150696 0 -0.015921)
(0.1539 0 -0.016198)
(0.158001 0 -0.0165042)
(0.163311 0 -0.0168929)
(0.170194 0 -0.0174438)
(0.179082 0 -0.0182721)
(0.190473 0 -0.0195433)
(0.204854 0 -0.0214731)
(0.222777 0 -0.0243763)
(0.24427 0 -0.0285636)
(0.268604 0 -0.0343206)
(0.282878 0 -0.0372124)
(0 0 0)
(0.0229882 0 -0.0019356)
(0.0435731 0 -0.00368959)
(0.061274 0 -0.00524127)
(0.0764463 0 -0.00663094)
(0.0894175 0 -0.00789004)
(0.100474 0 -0.00904194)
(0.109867 0 -0.0101039)
(0.117823 0 -0.0110887)
(0.124545 0 -0.0120056)
(0.130225 0 -0.0128623)
(0.135034 0 -0.0136636)
(0.139131 0 -0.0144122)
(0.142681 0 -0.0151114)
(0.145845 0 -0.0157655)
(0.148785 0 -0.0163788)
(0.151669 0 -0.0169581)
(0.154681 0 -0.0175134)
(0.158017 0 -0.0180604)
(0.161901 0 -0.0186224)
(0.166579 0 -0.0192326)
(0.172346 0 -0.0199422)
(0.179544 0 -0.0208225)
(0.188559 0 -0.0219713)
(0.19987 0 -0.0235322)
(0.213985 0 -0.0256905)
(0.231451 0 -0.0286933)
(0.252742 0 -0.0328454)
(0.277577 0 -0.038366)
(0.304708 0 -0.0453799)
(0.322327 0 -0.0493431)
(0 0 0)
(0.0232752 0 -0.00208739)
(0.0441436 0 -0.0039811)
(0.0621284 0 -0.00565931)
(0.0775941 0 -0.0071658)
(0.0908767 0 -0.00853506)
(0.102269 0 -0.0097928)
(0.112028 0 -0.0109584)
(0.120387 0 -0.012047)
(0.12756 0 -0.0130711)
(0.133736 0 -0.0140386)
(0.139088 0 -0.0149546)
(0.143791 0 -0.0158266)
(0.148019 0 -0.016662)
(0.151936 0 -0.0174669)
(0.155712 0 -0.0182494)
(0.159529 0 -0.0190222)
(0.16358 0 -0.0198015)
(0.168078 0 -0.020611)
(0.173254 0 -0.0214824)
(0.179383 0 -0.0224632)
(0.186773 0 -0.0236173)
(0.195782 0 -0.0250323)
(0.206837 0 -0.0268308)
(0.220435 0 -0.0291789)
(0.237107 0 -0.0322865)
(0.257463 0 -0.0364346)
(0.281817 0 -0.0418835)
(0.309658 0 -0.0487411)
(0.339328 0 -0.0569703)
(0.362038 0 -0.062049)
(0 0 0)
(0.0235732 0 -0.00223656)
(0.0447347 0 -0.00426783)
(0.0630129 0 -0.00607112)
(0.0787822 0 -0.00769374)
(0.0923867 0 -0.00917316)
(0.104124 0 -0.0105375)
(0.114259 0 -0.011808)
(0.123033 0 -0.0130028)
(0.130663 0 -0.0141366)
(0.137339 0 -0.0152181)
(0.143243 0 -0.016255)
(0.14856 0 -0.0172586)
(0.153469 0 -0.0182394)
(0.158136 0 -0.019205)
(0.162737 0 -0.020168)
(0.167471 0 -0.0211483)
(0.172535 0 -0.0221672)
(0.178157 0 -0.023257)
(0.184581 0 -0.0244596)
(0.192086 0 -0.0258315)
(0.200998 0 -0.0274524)
(0.211678 0 -0.0294236)
(0.224578 0 -0.0318908)
(0.240182 0 -0.0350365)
(0.25904 0 -0.0391)
(0.281724 0 -0.0443781)
(0.308364 0 -0.0510944)
(0.33834 0 -0.0592801)
(0.370071 0 -0.068825)
(0.401754 0 -0.0750173)
(0 0 0)
(0.0238811 0 -0.00238353)
(0.0453448 0 -0.00455064)
(0.0639258 0 -0.00647795)
(0.0800081 0 -0.0082163)
(0.0939444 0 -0.00980625)
(0.106037 0 -0.0112783)
(0.116559 0 -0.0126561)
(0.125758 0 -0.0139602)
(0.133852 0 -0.0152063)
(0.141034 0 -0.0164058)
(0.147497 0 -0.0175701)
(0.153432 0 -0.0187124)
(0.159016 0 -0.0198451)
(0.164423 0 -0.0209799)
(0.169837 0 -0.0221339)
(0.175467 0 -0.0233333)
(0.181515 0 -0.0246051)
(0.188207 0 -0.025987)
(0.195806 0 -0.0275325)
(0.204583 0 -0.0293057)
(0.21486 0 -0.0313955)
(0.227011 0 -0.0339214)
(0.241458 0 -0.0370388)
(0.258643 0 -0.0409417)
(0.279073 0 -0.0458907)
(0.303095 0 -0.052165)
(0.330584 0 -0.0600017)
(0.360668 0 -0.0695702)
(0.391446 0 -0.0811697)
(0.441478 0 -0.0880886)
(0 0 0)
(0.0114048 0 0)
(0.0246774 0 0)
(0.0477532 0 0)
(0.0794566 0 0)
(0.11593 0 0)
(0.152157 0 0)
(0.184313 0 0)
(0.210705 0 0)
(0.231273 0 0)
(0.246729 0 0)
(0.257854 0 0)
(0.265322 0 0)
(0.269702 0 0)
(0.271413 0 0)
(0.270741 0 0)
(0.267876 0 0)
(0.262929 0 0)
(0.255953 0 0)
(0.246971 0 0)
(0.235957 0 0)
(0.222862 0 0)
(0.207631 0 0)
(0.190195 0 0)
(0.170478 0 0)
(0.148395 0 0)
(0.123859 0 0)
(0.0967801 0 0)
(0.0670746 0 0)
(0.0346214 0 0)
(0 0 0)
(0.00378804 0 -0.00513632)
(0.0145052 0 -0.00573339)
(0.0281231 0 -0.0068015)
(0.0514028 0 -0.00816806)
(0.0830497 0 -0.00961296)
(0.119218 0 -0.0108672)
(0.154968 0 -0.0117417)
(0.186597 0 -0.01218)
(0.212512 0 -0.0122323)
(0.23269 0 -0.0120187)
(0.247835 0 -0.0116187)
(0.258719 0 -0.0110727)
(0.266008 0 -0.0104472)
(0.270252 0 -0.00979099)
(0.271856 0 -0.00911446)
(0.271103 0 -0.00844903)
(0.268175 0 -0.00779877)
(0.263179 0 -0.00716157)
(0.256166 0 -0.00654619)
(0.247149 0 -0.00595739)
(0.236107 0 -0.00540205)
(0.222989 0 -0.00486958)
(0.207739 0 -0.00435354)
(0.190288 0 -0.00384792)
(0.170557 0 -0.00334645)
(0.148463 0 -0.00284241)
(0.123916 0 -0.00232846)
(0.0968273 0 -0.00179638)
(0.0671111 0 -0.0012369)
(0.0346447 0 -0.000638379)
(0 0 0)
(0.0127742 0 -0.0104)
(0.0235843 0 -0.0117004)
(0.0382502 0 -0.013855)
(0.0621169 0 -0.0165349)
(0.0936173 0 -0.0193035)
(0.128884 0 -0.0216528)
(0.163215 0 -0.0232366)
(0.193292 0 -0.0239872)
(0.217803 0 -0.0240154)
(0.236834 0 -0.0235318)
(0.251075 0 -0.0227078)
(0.261262 0 -0.0216419)
(0.268021 0 -0.0204343)
(0.27186 0 -0.0191557)
(0.273153 0 -0.0178514)
(0.27216 0 -0.0165584)
(0.269044 0 -0.0152837)
(0.263901 0 -0.0140482)
(0.256771 0 -0.0128639)
(0.247657 0 -0.0117302)
(0.236531 0 -0.0106494)
(0.223346 0 -0.00960887)
(0.208041 0 -0.00859771)
(0.190544 0 -0.00760466)
(0.170774 0 -0.00661777)
(0.148644 0 -0.00562408)
(0.124066 0 -0.00460929)
(0.0969466 0 -0.00355737)
(0.0671982 0 -0.00245014)
(0.0346932 0 -0.00126477)
(0 0 0)
(0.0270491 0 -0.0161065)
(0.0380959 0 -0.0181433)
(0.0543339 0 -0.021396)
(0.0790031 0 -0.0252967)
(0.110203 0 -0.0291969)
(0.14398 0 -0.0323727)
(0.176068 0 -0.034409)
(0.203743 0 -0.0352791)
(0.226095 0 -0.0351765)
(0.243355 0 -0.0343711)
(0.256199 0 -0.0331047)
(0.265303 0 -0.0315388)
(0.271229 0 -0.0297886)
(0.274425 0 -0.0279367)
(0.275224 0 -0.0260553)
(0.273849 0 -0.0241856)
(0.270432 0 -0.0223474)
(0.265052 0 -0.0205747)
(0.25773 0 -0.0188746)
(0.248458 0 -0.0172434)
(0.237202 0 -0.0156763)
(0.22391 0 -0.0141612)
(0.208516 0 -0.0126838)
(0.190944 0 -0.0112287)
(0.17111 0 -0.00977895)
(0.148925 0 -0.00831601)
(0.124296 0 -0.00681919)
(0.0971279 0 -0.0052652)
(0.067329 0 -0.00362755)
(0.034765 0 -0.00187287)
(0 0 0)
(0.0458811 0 -0.0225373)
(0.0573893 0 -0.0252782)
(0.0754945 0 -0.0296152)
(0.101039 0 -0.0346075)
(0.131665 0 -0.0393822)
(0.163371 0 -0.0430612)
(0.192529 0 -0.0452543)
(0.217154 0 -0.0460312)
(0.236788 0 -0.0456747)
(0.251814 0 -0.0445014)
(0.262888 0 -0.0427898)
(0.270607 0 -0.0407383)
(0.275453 0 -0.0384761)
(0.277815 0 -0.0361043)
(0.27797 0 -0.0336997)
(0.276091 0 -0.0313134)
(0.272279 0 -0.0289826)
(0.26658 0 -0.0267316)
(0.259001 0 -0.0245644)
(0.249518 0 -0.0224776)
(0.238089 0 -0.0204633)
(0.224653 0 -0.0185077)
(0.209139 0 -0.0165944)
(0.191466 0 -0.0147042)
(0.171547 0 -0.0128159)
(0.149287 0 -0.0109059)
(0.12459 0 -0.00894772)
(0.0973581 0 -0.00691152)
(0.0674929 0 -0.00476313)
(0.0348538 0 -0.00245944)
(0 0 0)
(0.0687025 0 -0.029888)
(0.0808048 0 -0.0332672)
(0.100926 0 -0.0386553)
(0.127239 0 -0.0445545)
(0.156812 0 -0.0498543)
(0.185843 0 -0.053664)
(0.211525 0 -0.0557094)
(0.232658 0 -0.0561867)
(0.249211 0 -0.0554537)
(0.261712 0 -0.053871)
(0.270773 0 -0.0517229)
(0.27689 0 -0.0492063)
(0.280482 0 -0.04647)
(0.281873 0 -0.0436322)
(0.281272 0 -0.0407716)
(0.278797 0 -0.0379403)
(0.274511 0 -0.0351779)
(0.268429 0 -0.0325015)
(0.260537 0 -0.0299156)
(0.250798 0 -0.0274163)
(0.239156 0 -0.0249937)
(0.225545 0 -0.0226329)
(0.209884 0 -0.0203149)
(0.192088 0 -0.0180177)
(0.172064 0 -0.0157164)
(0.149713 0 -0.0133829)
(0.124934 0 -0.0109858)
(0.0976243 0 -0.00848903)
(0.0676805 0 -0.00585167)
(0.0349543 0 -0.0030217)
(0 0 0)
(0.0949926 0 -0.0382773)
(0.107787 0 -0.0422201)
(0.129905 0 -0.0485783)
(0.156627 0 -0.0551157)
(0.184493 0 -0.0605294)
(0.210269 0 -0.0640832)
(0.232074 0 -0.0656973)
(0.249453 0 -0.065696)
(0.262744 0 -0.064491)
(0.272568 0 -0.0624607)
(0.279466 0 -0.0598755)
(0.283857 0 -0.0569226)
(0.2861 0 -0.0537656)
(0.286439 0 -0.0505236)
(0.285007 0 -0.0472728)
(0.28187 0 -0.0440616)
(0.277049 0 -0.040923)
(0.270532 0 -0.037873)
(0.262284 0 -0.0349158)
(0.252251 0 -0.0320469)
(0.240367 0 -0.0292552)
(0.226553 0 -0.0265243)
(0.210724 0 -0.0238334)
(0.192785 0 -0.0211581)
(0.17264 0 -0.0184703)
(0.150184 0 -0.0157381)
(0.125312 0 -0.0129256)
(0.0979144 0 -0.00999154)
(0.0678829 0 -0.00688872)
(0.0350615 0 -0.00355725)
(0 0 0)
(0.124315 0 -0.0477502)
(0.137832 0 -0.052165)
(0.161682 0 -0.059321)
(0.188187 0 -0.0661324)
(0.213624 0 -0.0712341)
(0.235622 0 -0.0741744)
(0.253284 0 -0.0751169)
(0.266801 0 -0.0744963)
(0.276795 0 -0.0727567)
(0.2839 0 -0.0702524)
(0.288585 0 -0.067231)
(0.291228 0 -0.0638864)
(0.292101 0 -0.0603714)
(0.291353 0 -0.05679)
(0.289049 0 -0.0532095)
(0.285207 0 -0.0496744)
(0.279812 0 -0.0462131)
(0.272823 0 -0.0428397)
(0.264186 0 -0.0395574)
(0.253832 0 -0.0363611)
(0.24168 0 -0.0332388)
(0.227644 0 -0.0301728)
(0.211628 0 -0.0271409)
(0.193533 0 -0.0241167)
(0.173254 0 -0.0210695)
(0.150684 0 -0.0179642)
(0.125709 0 -0.0147609)
(0.0982166 0 -0.0114139)
(0.0680917 0 -0.00787062)
(0.0351711 0 -0.00406416)
(0 0 0)
(0.156293 0 -0.0583007)
(0.170462 0 -0.063044)