/*--------------------------------*- C++ -*----------------------------------*\
| =========                 |                                                 |
| \\      /  F ield         | OpenFOAM: The Open Source CFD Toolbox           |
|  \\    /   O peration     | Version:  dev                                   |
|   \\  /    A nd           | Web:      www.OpenFOAM.org                      |
|    \\/     M anipulation  |                                                 |
\*---------------------------------------------------------------------------*/
FoamFile
{
    version     2.0;
    format      ascii;
    class       volVectorField;
    location    "0.6";
    object      cellDisplacement;
}
// * * * * * * * * * * * * * * * * * * * * * * * * * * * * * * * * * * * * * //

dimensions      [0 1 0 0 0 0 0];

internalField   nonuniform List<vector> 
2790
(
(0.00549703 0 -3.94615e-06)
(0.0157588 0 -1.12986e-05)
(0.0246484 0 -1.76296e-05)
(0.0322694 0 -2.29779e-05)
(0.0387289 0 -2.73634e-05)
(0.0441245 0 -3.07731e-05)
(0.048544 0 -3.31599e-05)
(0.0520663 0 -3.44463e-05)
(0.0547614 0 -3.45136e-05)
(0.0566908 0 -3.32066e-05)
(0.0579089 0 -3.03131e-05)
(0.0584637 0 -2.55893e-05)
(0.0583975 0 -1.87421e-05)
(0.0577471 0 -9.39608e-06)
(0.056546 0 2.87259e-06)
(0.0548248 0 1.85626e-05)
(0.0526128 0 3.82578e-05)
(0.0499393 0 6.26318e-05)
(0.0468347 0 9.24588e-05)
(0.043333 0 0.000128626)
(0.039473 0 0.00017215)
(0.0353009 0 0.000224199)
(0.0308739 0 0.000286137)
(0.0262634 0 0.000359567)
(0.0215609 0 0.000446385)
(0.0168863 0 0.000548775)
(0.0123994 0 0.000668957)
(0.00832091 0 0.000808106)
(0.00497872 0 0.000962466)
(0.00300809 0 0.00110817)
(0.00550341 0 -1.18564e-05)
(0.0157779 0 -3.39511e-05)
(0.0246806 0 -5.29852e-05)
(0.0323154 0 -6.90791e-05)
(0.03879 0 -8.22961e-05)
(0.0442019 0 -9.26001e-05)
(0.0486397 0 -9.98527e-05)
(0.0521829 0 -0.000103829)
(0.0549018 0 -0.000104177)
(0.0568587 0 -0.000100444)
(0.0581081 0 -9.19948e-05)
(0.0586992 0 -7.81111e-05)
(0.0586749 0 -5.79419e-05)
(0.0580727 0 -3.0363e-05)
(0.0569269 0 5.86575e-06)
(0.0552694 0 5.22089e-05)
(0.0531302 0 0.000110381)
(0.0505397 0 0.000182353)
(0.0475299 0 0.000270377)
(0.0441358 0 0.000377021)
(0.0403982 0 0.000505195)
(0.0363653 0 0.000658188)
(0.0320961 0 0.000839747)
(0.0276651 0 0.00105412)
(0.0231676 0 0.00130608)
(0.0187301 0 0.00160062)
(0.0145261 0 0.00194175)
(0.0108 0 0.00232816)
(0.00790085 0 0.00274022)
(0.00642798 0 0.00309917)
(0.00551602 0 -1.98172e-05)
(0.0158158 0 -5.67584e-05)
(0.0247442 0 -8.86121e-05)
(0.0324064 0 -0.00011559)
(0.0389105 0 -0.000137812)
(0.0443549 0 -0.000155228)
(0.0488291 0 -0.000167614)
(0.0524136 0 -0.000174624)
(0.0551798 0 -0.00017568)
(0.0571911 0 -0.000170084)
(0.0585029 0 -0.000156763)
(0.0591658 0 -0.000134572)
(0.0592253 0 -0.000102203)
(0.0587187 0 -5.77652e-05)
(0.0576831 0 6.89767e-07)
(0.056152 0 7.54976e-05)
(0.0541573 0 0.000169395)
(0.0517318 0 0.000285494)
(0.0489099 0 0.000427325)
(0.0457296 0 0.000598853)
(0.0422344 0 0.000804479)
(0.0384765 0 0.00104901)
(0.0345191 0 0.00133761)
(0.0304407 0 0.0016757)
(0.0263414 0 0.0020685)
(0.022353 0 0.00252005)
(0.01866 0 0.00303077)
(0.0155375 0 0.00358969)
(0.0133244 0 0.00415219)
(0.0125239 0 0.00459604)
(0.00553483 0 -2.78552e-05)
(0.0158722 0 -7.98028e-05)
(0.024839 0 -0.000124655)
(0.0325419 0 -0.000162735)
(0.0390902 0 -0.000194234)
(0.0445827 0 -0.00021911)
(0.0491107 0 -0.000237055)
(0.0527566 0 -0.000247659)
(0.055593 0 -0.000250107)
(0.0576852 0 -0.000243577)
(0.0590891 0 -0.000226501)
(0.0598581 0 -0.000197377)
(0.0600378 0 -0.000154415)
(0.0596715 0 -9.5427e-05)
(0.0587977 0 -1.76959e-05)
(0.0574521 0 8.18231e-05)
(0.0556689 0 0.000206709)
(0.0534847 0 0.000360946)
(0.0509373 0 0.000549)
(0.0480682 0 0.000775788)
(0.0449256 0 0.00104659)
(0.0415669 0 0.00136685)
(0.0380609 0 0.00174194)
(0.0344923 0 0.00217661)
(0.0309664 0 0.002674)
(0.0276159 0 0.00323387)
(0.0246102 0 0.00384913)
(0.0222426 0 0.00449371)
(0.020831 0 0.00509958)
(0.0207551 0 0.00552662)
(0.00555971 0 -3.59922e-05)
(0.0159467 0 -0.000103152)
(0.0249641 0 -0.000161235)
(0.0327207 0 -0.000210699)
(0.0393274 0 -0.000251837)
(0.0448832 0 -0.000284644)
(0.0494817 0 -0.000308707)
(0.053208 0 -0.000323673)
(0.0561363 0 -0.000328398)
(0.0583319 0 -0.000321839)
(0.0598549 0 -0.000302506)
(0.0607617 0 -0.000268441)
(0.061099 0 -0.000217374)
(0.0609153 0 -0.000146932)
(0.0602515 0 -5.39089e-05)
(0.0591471 0 6.52403e-05)
(0.0576374 0 0.000214736)
(0.055765 0 0.000399068)
(0.0535715 0 0.000623196)
(0.0511026 0 0.000892458)
(0.0484108 0 0.00121233)
(0.0455599 0 0.00158796)
(0.0426244 0 0.00202368)
(0.0396938 0 0.00252211)
(0.0368775 0 0.00308249)
(0.0343105 0 0.00369783)
(0.0321431 0 0.00435283)
(0.0305971 0 0.00500634)
(0.0300097 0 0.00557742)
(0.0306224 0 0.00593037)
(0.00559041 0 -4.42446e-05)
(0.0160386 0 -0.000126856)
(0.0251182 0 -0.000198442)
(0.0329411 0 -0.000259625)
(0.03962 0 -0.000310835)
(0.0452532 0 -0.000352164)
(0.0499377 0 -0.000382991)
(0.0537595 0 -0.000402896)
(0.056796 0 -0.000410988)
(0.059118 0 -0.000405859)
(0.0607885 0 -0.000386149)
(0.0618635 0 -0.000349531)
(0.0623954 0 -0.000293569)
(0.062434 0 -0.000215485)
(0.0620249 0 -0.000111906)
(0.0612146 0 2.0813e-05)
(0.0600346 0 0.000187442)
(0.0585394 0 0.000392483)
(0.0567731 0 0.000640931)
(0.0547851 0 0.000938)
(0.0526315 0 0.00128875)
(0.0503833 0 0.00169716)
(0.0481196 0 0.00216546)
(0.0459301 0 0.00269299)
(0.0439208 0 0.00327413)
(0.0422166 0 0.00389526)
(0.0409596 0 0.00453091)
(0.0402823 0 0.00513504)
(0.0404905 0 0.00562424)
(0.0417186 0 0.00587902)
(0.00562659 0 -5.26228e-05)
(0.0161467 0 -0.000150948)
(0.0252994 0 -0.000236337)
(0.0332002 0 -0.000309611)
(0.0399655 0 -0.000371369)
(0.0456865 0 -0.0004216)
(0.0504647 0 -0.000459862)
(0.0543983 0 -0.00048569)
(0.0575659 0 -0.000498499)
(0.0600382 0 -0.000496777)
(0.0618804 0 -0.000478922)
(0.0631504 0 -0.000442446)
(0.0639069 0 -0.000384945)
(0.0642023 0 -0.000303502)
(0.0640862 0 -0.000194647)
(0.0636082 0 -5.49296e-05)
(0.0628157 0 0.00012012)
(0.061755 0 0.000335448)
(0.0604792 0 0.000595232)
(0.0590414 0 0.000904082)
(0.0574962 0 0.0012663)
(0.0559275 0 0.00168401)
(0.0544162 0 0.00215651)
(0.0530469 0 0.00267943)
(0.0519145 0 0.00324229)
(0.0511238 0 0.00382551)
(0.0507836 0 0.00439745)
(0.0509931 0 0.00491244)
(0.0519489 0 0.00529167)
(0.0537039 0 0.00543945)
(0.00566782 0 -6.11314e-05)
(0.0162697 0 -0.000175443)
(0.0255053 0 -0.000274948)
(0.0334947 0 -0.000360702)
(0.0403532 0 -0.000433507)
(0.0461712 0 -0.000493024)
(0.0510602 0 -0.000539583)
(0.0551228 0 -0.000572723)
(0.0584384 0 -0.000591736)
(0.0610794 0 -0.000595204)
(0.0631086 0 -0.000581137)
(0.0645945 0 -0.00054765)
(0.0655998 0 -0.000492242)
(0.0661797 0 -0.000412057)
(0.0663878 0 -0.000303843)
(0.0662756 0 -0.000164043)
(0.0659081 0 1.0767e-05)
(0.0653263 0 0.000225201)
(0.0645902 0 0.000482785)
(0.0637601 0 0.000786718)
(0.0628956 0 0.00114026)
(0.0620612 0 0.00154451)
(0.0613624 0 0.00199434)
(0.0608696 0 0.00248215)
(0.0606601 0 0.00299353)
(0.0608117 0 0.00350492)
(0.0613944 0 0.00398207)
(0.0624573 0 0.00438221)
(0.0640904 0 0.00463734)
(0.0662712 0 0.00467814)
(0.00571358 0 -6.9768e-05)
(0.016406 0 -0.000200336)
(0.0257328 0 -0.000314268)
(0.0338211 0 -0.000412895)
(0.0407774 0 -0.000497053)
(0.0467025 0 -0.000566759)
(0.051718 0 -0.000622593)
(0.0559229 0 -0.000664157)
(0.059401 0 -0.000690908)
(0.0622187 0 -0.000701064)
(0.0644498 0 -0.000693126)
(0.0661713 0 -0.000665614)
(0.0674448 0 -0.000616063)
(0.0683304 0 -0.000541856)
(0.0688868 0 -0.000440128)
(0.0691727 0 -0.000307843)
(0.0692503 0 -0.000141939)
(0.0691753 0 6.08747e-05)
(0.0690108 0 0.000303216)
(0.0688222 0 0.000586969)
(0.06868 0 0.000912741)
(0.0686317 0 0.00128106)
(0.0687854 0 0.00168422)
(0.0692026 0 0.00211096)
(0.0699402 0 0.00254463)
(0.0710433 0 0.00296012)
(0.0725355 0 0.0033237)
(0.0744076 0 0.00359719)
(0.0766387 0 0.00372696)
(0.0791375 0 0.00367023)
(0.00576329 0 -7.85236e-05)
(0.0165538 0 -0.0002256)
(0.0259783 0 -0.000354252)
(0.0341683 0 -0.000466072)
(0.0412324 0 -0.000561931)
(0.0472796 0 -0.000642823)
(0.0524296 0 -0.000708855)
(0.0567871 0 -0.000759942)
(0.0604323 0 -0.000795591)
(0.063438 0 -0.000814321)
(0.0658907 0 -0.000815295)
(0.0678623 0 -0.000796844)
(0.0694193 0 -0.000756919)
(0.0706265 0 -0.000693344)
(0.0715476 0 -0.000603813)
(0.0722466 0 -0.000485988)
(0.0727886 0 -0.000337617)
(0.0732375 0 -0.000156655)
(0.0736606 0 5.82339e-05)
(0.0741276 0 0.000307362)
(0.0747092 0 0.000589466)
(0.0754717 0 0.000902563)
(0.0764938 0 0.00123816)
(0.0778295 0 0.00158302)
(0.0795162 0 0.00191989)
(0.081564 0 0.00222476)
(0.0839439 0 0.00246742)
(0.0865816 0 0.00261594)
(0.0893397 0 0.00263179)
(0.0920599 0 0.00249525)
(0.00581631 0 -8.73825e-05)
(0.0167111 0 -0.000251191)
(0.0262387 0 -0.000394838)
(0.034532 0 -0.000520192)
(0.0417157 0 -0.000628535)
(0.0478953 0 -0.000721123)
(0.0531846 0 -0.000798217)
(0.0576988 0 -0.000859876)
(0.0615173 0 -0.000905526)
(0.0647268 0 -0.000935098)
(0.0674097 0 -0.000947308)
(0.0696406 0 -0.000940845)
(0.07149 0 -0.000914122)
(0.0730272 0 -0.000865546)
(0.0743207 0 -0.000793528)
(0.0754386 0 -0.000696587)
(0.0764502 0 -0.000573512)
(0.0774249 0 -0.000423573)
(0.0784342 0 -0.000246893)
(0.0795515 0 -4.48216e-05)
(0.0808502 0 0.000179549)
(0.0824057 0 0.000422023)
(0.0842787 0 0.0006737)
(0.0865118 0 0.000921144)
(0.0891246 0 0.00114851)
(0.0920946 0 0.0013358)
(0.095341 0 0.00145971)
(0.0987183 0 0.00149691)
(0.101967 0 0.00142255)
(0.10485 0 0.00123137)
(0.00587201 0 -9.63223e-05)
(0.0168761 0 -0.000277045)
(0.0265114 0 -0.000435936)
(0.0349149 0 -0.00057522)
(0.0422206 0 -0.000696653)
(0.0485351 0 -0.000801307)
(0.0539728 0 -0.000890413)
(0.058646 0 -0.000963718)
(0.0626484 0 -0.00102111)
(0.0660659 0 -0.00106282)
(0.0689835 0 -0.00108841)
(0.0714778 0 -0.00109662)
(0.0736222 0 -0.00108632)
(0.0754903 0 -0.00105665)
(0.0771544 0 -0.00100682)
(0.0786867 0 -0.000936338)
(0.0801596 0 -0.000845147)
(0.0816464 0 -0.000733881)
(0.083222 0 -0.000604177)
(0.0849617 0 -0.000459001)
(0.0869415 0 -0.000303062)
(0.0892452 0 -0.00014295)
(0.091917 0 1.29594e-05)
(0.0949908 0 0.000152245)
(0.0984744 0 0.000262169)
(0.102322 0 0.000329476)
(0.106413 0 0.000341772)
(0.110536 0 0.000288673)
(0.114307 0 0.000157657)
(0.117365 0 -5.66795e-05)
(0.00592969 0 -0.000105314)
(0.0170469 0 -0.00030308)
(0.0267934 0 -0.000477411)
(0.035311 0 -0.000630931)
(0.0427378 0 -0.000765766)
(0.049194 0 -0.000883338)
(0.0547853 0 -0.00098509)
(0.0596205 0 -0.00107103)
(0.063809 0 -0.00114169)
(0.0674365 0 -0.00119707)
(0.070588 0 -0.00123747)
(0.073345 0 -0.00126271)
(0.0757803 0 -0.00127159)
(0.0779726 0 -0.00126407)
(0.0799971 0 -0.00124027)
(0.0819283 0 -0.00120072)
(0.0838413 0 -0.00114653)
(0.0858115 0 -0.00107971)
(0.0879147 0 -0.00100335)
(0.0902266 0 -0.000921871)
(0.0928211 0 -0.000841002)
(0.0958009 0 -0.000771104)
(0.0991805 0 -0.00071816)
(0.102995 0 -0.000693586)
(0.107248 0 -0.000706445)
(0.111887 0 -0.000761781)
(0.116778 0 -0.000857505)
(0.121676 0 -0.000983712)
(0.126084 0 -0.00113507)
(0.129446 0 -0.0013343)
(0.00598865 0 -0.000114324)
(0.0172213 0 -0.000329193)
(0.0270814 0 -0.000519095)
(0.0357155 0 -0.000687085)
(0.0432668 0 -0.000835693)
(0.0498636 0 -0.000966804)
(0.0556062 0 -0.00108161)
(0.0606075 0 -0.00118106)
(0.0649824 0 -0.00126602)
(0.0688185 0 -0.00133678)
(0.0722012 0 -0.00139358)
(0.0752137 0 -0.00143731)
(0.0779293 0 -0.00146748)
(0.080432 0 -0.00148462)
(0.0827981 0 -0.00148971)
(0.0851034 0 -0.00148425)
(0.0874233 0 -0.00147052)
(0.0898338 0 -0.00145176)
(0.0924099 0 -0.00143246)
(0.0952247 0 -0.00141845)
(0.0983572 0 -0.00141668)
(0.101897 0 -0.00143862)
(0.10585 0 -0.00149057)
(0.110254 0 -0.00158297)
(0.115113 0 -0.0017225)
(0.120381 0 -0.00190813)
(0.125941 0 -0.00212428)
(0.131581 0 -0.0023338)
(0.136772 0 -0.00248905)
(0.140726 0 -0.00262597)
(0.0060482 0 -0.000123314)
(0.0173974 0 -0.000355268)
(0.0273718 0 -0.000560797)
(0.0361233 0 -0.000743403)
(0.0437994 0 -0.00090603)
(0.0505327 0 -0.00105092)
(0.0564249 0 -0.00117928)
(0.0615934 0 -0.00129298)
(0.0661524 0 -0.00139307)
(0.0701919 0 -0.00148019)
(0.0737999 0 -0.00155501)
(0.0770518 0 -0.0016181)
(0.0800359 0 -0.0016712)
(0.0828292 0 -0.00171465)
(0.085511 0 -0.0017504)
(0.0881565 0 -0.00178083)
(0.0908404 0 -0.00180921)
(0.0936365 0 -0.00183988)
(0.0966172 0 -0.00187848)
(0.0998523 0 -0.00193207)
(0.103421 0 -0.00200935)
(0.107376 0 -0.00211967)
(0.111738 0 -0.00227245)
(0.116534 0 -0.00247809)
(0.121761 0 -0.00274412)
(0.12738 0 -0.00307111)
(0.133299 0 -0.00344433)
(0.139372 0 -0.00381517)
(0.145159 0 -0.00405273)
(0.150029 0 -0.00409372)
(0.00338026 0 -0.00119421)
(0.00631341 0 -0.00120316)
(0.0114327 0 -0.00118431)
(0.0180622 0 -0.00115633)
(0.0255565 0 -0.00112309)
(0.033365 0 -0.00108336)
(0.0410686 0 -0.00103719)
(0.0483723 0 -0.000985894)
(0.0550813 0 -0.000931204)
(0.0610763 0 -0.00087499)
(0.0662884 0 -0.000820493)
(0.0706819 0 -0.0007649)
(0.0742576 0 -0.000710356)
(0.0770237 0 -0.000657658)
(0.078992 0 -0.000607207)
(0.0801738 0 -0.000559234)
(0.0805766 0 -0.000514003)
(0.0802015 0 -0.000470761)
(0.0790431 0 -0.000429437)
(0.0770871 0 -0.000389602)
(0.0743199 0 -0.000349983)
(0.0707171 0 -0.000313231)
(0.0662393 0 -0.000278153)
(0.0608478 0 -0.000243576)
(0.0544943 0 -0.000209283)
(0.0471274 0 -0.000174795)
(0.0386909 0 -0.00013953)
(0.0291249 0 -0.000102832)
(0.0183684 0 -6.3954e-05)
(0.00634603 0 -2.19589e-05)
(0.00652328 0 -0.00349744)
(0.00938551 0 -0.00353243)
(0.014325 0 -0.00349477)
(0.0207333 0 -0.00342512)
(0.0279841 0 -0.00333585)
(0.0355274 0 -0.00322244)
(0.0429646 0 -0.0030875)
(0.0500147 0 -0.0029362)
(0.0564907 0 -0.00277428)
(0.0622791 0 -0.0026069)
(0.0673026 0 -0.00243865)
(0.0715306 0 -0.00227266)
(0.0749668 0 -0.00211075)
(0.0776146 0 -0.00195457)
(0.0794831 0 -0.00180509)
(0.0805812 0 -0.00166291)
(0.0809144 0 -0.00152919)
(0.0804812 0 -0.00140095)
(0.0792752 0 -0.00127844)
(0.077282 0 -0.00116062)
(0.0744821 0 -0.00104535)
(0.0708485 0 -0.00093622)
(0.0663465 0 -0.000830683)
(0.0609359 0 -0.000727571)
(0.0545656 0 -0.000625301)
(0.0471841 0 -0.000522386)
(0.0387346 0 -0.000417079)
(0.0291566 0 -0.000307433)
(0.0183881 0 -0.000191227)
(0.00635287 0 -6.56652e-05)
(0.0122369 0 -0.00560321)
(0.0151011 0 -0.00568907)
(0.019797 0 -0.00566693)
(0.0258448 0 -0.00558374)
(0.0326392 0 -0.00545072)
(0.0396768 0 -0.00527234)
(0.0466089 0 -0.00505619)
(0.0531782 0 -0.00481212)
(0.0592107 0 -0.00455005)
(0.0645963 0 -0.0042788)
(0.0692639 0 -0.00400338)
(0.0731853 0 -0.00373276)
(0.0763545 0 -0.003469)
(0.0787738 0 -0.0032144)
(0.0804486 0 -0.00297044)
(0.0813835 0 -0.00273769)
(0.0815787 0 -0.00251656)
(0.0810319 0 -0.00230651)
(0.0797327 0 -0.00210614)
(0.0776633 0 -0.00191361)
(0.0747992 0 -0.00172702)
(0.0711115 0 -0.00154834)
(0.0665631 0 -0.00137417)
(0.0611118 0 -0.00120412)
(0.0547077 0 -0.00103527)
(0.0472972 0 -0.00086519)
(0.0388219 0 -0.000690981)
(0.0292194 0 -0.000509443)
(0.0184267 0 -0.000316933)
(0.00636615 0 -0.000108843)
(0.0200708 0 -0.0075365)
(0.0229713 0 -0.00767317)
(0.0274032 0 -0.00768005)
(0.0329882 0 -0.00759673)
(0.0391614 0 -0.0074293)
(0.045522 0 -0.00719462)
(0.0517685 0 -0.0069064)
(0.0576759 0 -0.00657902)
(0.0630916 0 -0.00622654)
(0.0679191 0 -0.00586213)
(0.072093 0 -0.00549534)
(0.0755748 0 -0.00513009)
(0.0783619 0 -0.00477257)
(0.0804537 0 -0.00442662)
(0.0818504 0 -0.00409444)
(0.0825503 0 -0.00377684)
(0.0825476 0 -0.0034731)
(0.0818366 0 -0.0031853)
(0.0804016 0 -0.00291099)
(0.0782205 0 -0.00264714)
(0.0752638 0 -0.0023939)
(0.0714965 0 -0.00214842)
(0.0668803 0 -0.00190816)
(0.0613704 0 -0.00167298)
(0.0549168 0 -0.00143891)
(0.0474635 0 -0.00120296)
(0.0389502 0 -0.000960996)
(0.0293116 0 -0.000708642)
(0.0184831 0 -0.000440905)
(0.00638543 0 -0.000151426)
(0.0295714 0 -0.00934204)
(0.0325201 0 -0.00951381)
(0.0366729 0 -0.00954228)
(0.0417222 0 -0.00945466)
(0.0471873 0 -0.00926013)
(0.0527575 0 -0.00897786)
(0.0581869 0 -0.00862652)
(0.0632935 0 -0.00822499)
(0.0679559 0 -0.00779144)
(0.0721011 0 -0.00734423)
(0.075647 0 -0.00689017)
(0.0785774 0 -0.00643922)
(0.0808889 0 -0.00599709)
(0.082573 0 -0.00556858)
(0.0836228 0 -0.00515641)
(0.0840293 0 -0.00476177)
(0.0837808 0 -0.00438468)
(0.082863 0 -0.00402552)
(0.0812564 0 -0.00368294)
(0.0789318 0 -0.00335446)
(0.0758559 0 -0.00303852)
(0.0719919 0 -0.00272991)
(0.0672909 0 -0.0024281)
(0.0617056 0 -0.00213034)
(0.0551881 0 -0.00183291)
(0.0476796 0 -0.00153301)
(0.0391177 0 -0.00122502)
(0.0294321 0 -0.000903488)
(0.0185568 0 -0.000562194)
(0.00641067 0 -0.000193092)
(0.0403596 0 -0.0110512)
(0.0433361 0 -0.0112348)
(0.0471844 0 -0.0112664)
(0.0516499 0 -0.0111642)
(0.0563487 0 -0.0109402)
(0.0610503 0 -0.0106129)
(0.0655703 0 -0.0102038)
(0.0697765 0 -0.00973538)
(0.0735846 0 -0.00922858)
(0.0769374 0 -0.00870598)
(0.0797626 0 -0.00817415)
(0.0820674 0 -0.00764685)
(0.083835 0 -0.00713023)
(0.0850511 0 -0.00662906)
(0.0857012 0 -0.00614623)
(0.0857686 0 -0.00568313)
(0.0852338 0 -0.00523997)
(0.0840744 0 -0.00481652)
(0.0822638 0 -0.00441159)
(0.0797704 0 -0.00402392)
(0.0765557 0 -0.00364886)
(0.0725741 0 -0.00328325)
(0.0677715 0 -0.00292385)
(0.0621045 0 -0.0025678)
(0.0555134 0 -0.00221184)
(0.0479388 0 -0.00185112)
(0.0393198 0 -0.00147973)
(0.0295772 0 -0.00109156)
(0.0186452 0 -0.000679315)
(0.00644091 0 -0.000233335)
(0.0521085 0 -0.0126644)
(0.0550628 0 -0.0128393)
(0.0585666 0 -0.0128561)
(0.0624056 0 -0.0127277)
(0.0662944 0 -0.012468)
(0.0700731 0 -0.012094)
(0.0736215 0 -0.0116297)
(0.0768612 0 -0.0111001)
(0.0797453 0 -0.0105282)
(0.0822362 0 -0.0099373)
(0.0842987 0 -0.00934141)
(0.085928 0 -0.0087496)
(0.0871056 0 -0.00816943)
(0.0878118 0 -0.0076059)
(0.0880245 0 -0.00706199)
(0.0877189 0 -0.00653915)
(0.0868675 0 -0.00603765)
(0.0854398 0 -0.00555699)
(0.0834021 0 -0.00509585)
(0.0807165 0 -0.00465232)
(0.0773404 0 -0.00422297)
(0.0732286 0 -0.00380531)
(0.0683169 0 -0.00339299)
(0.0625469 0 -0.00298182)
(0.0558715 0 -0.0025712)
(0.0482329 0 -0.00215398)
(0.0395533 0 -0.00172364)
(0.029744 0 -0.00127173)
(0.0187458 0 -0.000791548)
(0.0064752 0 -0.000271909)
(0.0645181 0 -0.014163)
(0.067383 0 -0.014317)
(0.0704929 0 -0.0143082)
(0.0736621 0 -0.014144)
(0.0767009 0 -0.0138409)
(0.0795153 0 -0.0134164)
(0.0820526 0 -0.0128975)
(0.0842896 0 -0.0123117)
(0.086217 0 -0.0116831)
(0.0878227 0 -0.0110356)
(0.0890957 0 -0.0103858)
(0.0900256 0 -0.009741)
(0.0905906 0 -0.00910859)
(0.0907651 0 -0.00849343)
(0.0905195 0 -0.00789844)
(0.0898211 0 -0.007325)
(0.0886343 0 -0.00677337)
(0.086921 0 -0.00624295)
(0.0846405 0 -0.00573231)
(0.0817488 0 -0.00523932)
(0.0781983 0 -0.00476087)
(0.0739377 0 -0.00429369)
(0.0689075 0 -0.00383317)
(0.0630335 0 -0.0033725)
(0.0562619 0 -0.00290979)
(0.0485426 0 -0.00243932)
(0.0398007 0 -0.00195409)
(0.0299288 0 -0.00144298)
(0.0188552 0 -0.000898251)
(0.00651243 0 -0.000308599)
(0.0773069 0 -0.0155287)
(0.0800154 0 -0.015659)
(0.0826779 0 -0.0156192)
(0.0851273 0 -0.0154105)
(0.0872707 0 -0.0150546)
(0.0890854 0 -0.0145744)
(0.0905898 0 -0.0140011)
(0.0918143 0 -0.0133641)
(0.0927838 0 -0.0126879)
(0.0935092 0 -0.0119952)
(0.0939962 0 -0.0113029)
(0.0942289 0 -0.010617)
(0.0941814 0 -0.00994389)
(0.0938218 0 -0.00928806)
(0.0931133 0 -0.00865213)
(0.0920157 0 -0.0080374)
(0.0904859 0 -0.0074441)
(0.0884789 0 -0.00687157)
(0.0859473 0 -0.00631836)
(0.0828414 0 -0.00578229)
(0.0791087 0 -0.00526039)
(0.0746937 0 -0.00474905)
(0.06953 0 -0.00424273)
(0.0635446 0 -0.00373776)
(0.0566758 0 -0.00322769)
(0.0488723 0 -0.00270777)
(0.0400575 0 -0.0021703)
(0.0301165 0 -0.00160401)
(0.0189692 0 -0.000998857)
(0.00655137 0 -0.00034322)
(0.0902291 0 -0.0167583)
(0.0927237 0 -0.0168674)
(0.0948719 0 -0.0167894)
(0.0965314 0 -0.0165227)
(0.097721 0 -0.0161016)
(0.0985045 0 -0.0155598)
(0.0989721 0 -0.0149332)
(0.0992012 0 -0.014252)
(0.0992417 0 -0.0135385)
(0.0991191 0 -0.0128127)
(0.0988516 0 -0.0120904)
(0.0984138 0 -0.0113755)
(0.0977746 0 -0.0106735)
(0.0968962 0 -0.00998795)
(0.0957353 0 -0.00932122)
(0.0942448 0 -0.00867449)
(0.0923751 0 -0.00804797)
(0.0900747 0 -0.00744101)
(0.0872906 0 -0.00685222)
(0.083968 0 -0.00627946)
(0.0800503 0 -0.0057199)
(0.0754798 0 -0.0051701)
(0.0701758 0 -0.00462338)
(0.0640689 0 -0.00407678)
(0.0571038 0 -0.00352379)
(0.0492138 0 -0.00295838)
(0.0403198 0 -0.00237238)
(0.0303046 0 -0.00175442)
(0.0190845 0 -0.00109298)
(0.00659093 0 -0.000375634)
(0.103098 0 -0.0178724)
(0.105316 0 -0.0179569)
(0.10684 0 -0.0178184)
(0.1076 0 -0.0174688)
(0.107764 0 -0.016967)
(0.107496 0 -0.0163597)
(0.106948 0 -0.015685)
(0.10623 0 -0.01497)
(0.105402 0 -0.0142324)
(0.104489 0 -0.0134866)
(0.103526 0 -0.0127477)
(0.102466 0 -0.0120166)
(0.101275 0 -0.0112974)
(0.099909 0 -0.0105929)
(0.0983196 0 -0.00990528)
(0.0964538 0 -0.00923563)
(0.0942566 0 -0.00858416)
(0.0916713 0 -0.00795033)
(0.0886399 0 -0.00733284)
(0.0851032 0 -0.00672968)
(0.0810009 0 -0.00613815)
(0.0762724 0 -0.00555504)
(0.0708308 0 -0.00497375)
(0.0646028 0 -0.00438937)
(0.0575374 0 -0.00379733)
(0.0495602 0 -0.00319051)
(0.0405819 0 -0.00255953)
(0.0304889 0 -0.00189377)
(0.0191985 0 -0.00118034)
(0.00663017 0 -0.000405743)
(0.115788 0 -0.0189065)
(0.11761 0 -0.0189378)
(0.118307 0 -0.0186881)
(0.118013 0 -0.0182197)
(0.117083 0 -0.0176248)
(0.115774 0 -0.0169565)
(0.114275 0 -0.016247)
(0.112697 0 -0.0155145)
(0.111099 0 -0.0147697)
(0.109491 0 -0.0140198)
(0.107902 0 -0.0132767)
(0.106286 0 -0.0125422)
(0.104597 0 -0.011817)
(0.102789 0 -0.0111041)
(0.100806 0 -0.0104051)
(0.0985927 0 -0.00972122)
(0.0960887 0 -0.00905278)
(0.0932336 0 -0.00839936)
(0.0899658 0 -0.00775984)
(0.0862226 0 -0.00713237)
(0.0819403 0 -0.00651444)
(0.0770553 0 -0.00590301)
(0.0714783 0 -0.00529169)
(0.0651329 0 -0.00467456)
(0.0579673 0 -0.00404769)
(0.0499061 0 -0.00340384)
(0.040839 0 -0.00273192)
(0.0306633 0 -0.00202165)
(0.0193089 0 -0.00126075)
(0.00666833 0 -0.00043348)
(0.128185 0 -0.0198824)
(0.129316 0 -0.0197772)
(0.128861 0 -0.0193342)
(0.127351 0 -0.0187173)
(0.125318 0 -0.0180371)
(0.123051 0 -0.0173308)
(0.120723 0 -0.0166116)
(0.118422 0 -0.0158845)
(0.116183 0 -0.0151518)
(0.114004 0 -0.0144158)
(0.111879 0 -0.0136825)
(0.109787 0 -0.012956)
(0.10767 0 -0.0122357)
(0.105474 0 -0.0115239)
(0.103143 0 -0.0108225)
(0.100617 0 -0.0101326)
(0.0978337 0 -0.0094547)
(0.09473 0 -0.0087886)
(0.0912417 0 -0.00813341)
(0.0873035 0 -0.00748749)
(0.0828491 0 -0.0068485)
(0.0778121 0 -0.00621355)
(0.0721051 0 -0.00557702)
(0.0656474 0 -0.00493188)
(0.0583831 0 -0.00427436)
(0.0502348 0 -0.00359726)
(0.0410857 0 -0.00288914)
(0.0308347 0 -0.00213855)
(0.0194147 0 -0.00133417)
(0.00670474 0 -0.000458806)
(0.139921 0 -0.0207329)
(0.139772 0 -0.0203188)
(0.137831 0 -0.0196144)
(0.135075 0 -0.0188767)
(0.132079 0 -0.0181651)
(0.129054 0 -0.0174699)
(0.1261 0 -0.0167791)
(0.123259 0 -0.0160855)
(0.120539 0 -0.0153861)
(0.117927 0 -0.014681)
(0.115394 0 -0.0139728)
(0.11292 0 -0.0132653)
(0.11045 0 -0.0125598)
(0.10793 0 -0.0118583)
(0.1053 0 -0.0111626)
(0.102501 0 -0.0104741)
(0.0994688 0 -0.0097936)
(0.0961406 0 -0.00912116)
(0.0924504 0 -0.00845616)
(0.0883312 0 -0.00779719)
(0.0837148 0 -0.00714207)
(0.0785301 0 -0.00648776)
(0.0726976 0 -0.00582979)
(0.0661359 0 -0.00516121)
(0.058776 0 -0.00447713)
(0.0505405 0 -0.00377053)
(0.0413145 0 -0.00303033)
(0.0309965 0 -0.00224408)
(0.0195138 0 -0.00140049)
(0.00673864 0 -0.000481688)
(0.149455 0 -0.0210586)
(0.14756 0 -0.0201479)
(0.144267 0 -0.0193132)
(0.140685 0 -0.0186221)
(0.137121 0 -0.0179945)
(0.133666 0 -0.0173823)
(0.13035 0 -0.0167646)
(0.127181 0 -0.0161334)
(0.124151 0 -0.0154871)
(0.121242 0 -0.0148271)
(0.118425 0 -0.0141568)
(0.115668 0 -0.0134795)
(0.112923 0 -0.0127979)
(0.11014 0 -0.0121146)
(0.107261 0 -0.0114318)
(0.104228 0 -0.0107513)
(0.10098 0 -0.0100743)
(0.0974524 0 -0.00940109)
(0.0935798 0 -0.0087315)
(0.0892951 0 -0.00806435)
(0.0845287 0 -0.00739766)
(0.0792084 0 -0.00672846)
(0.0732562 0 -0.00605251)
(0.0665926 0 -0.00536396)
(0.0591407 0 -0.00465701)
(0.0508166 0 -0.00392418)
(0.0415181 0 -0.0031554)
(0.0311439 0 -0.0023381)
(0.0196035 0 -0.00145966)
(0.00676909 0 -0.000502098)
(0.00610846 0 -0.000132389)
(0.0175753 0 -0.000381601)
(0.0276652 0 -0.000602915)
(0.036535 0 -0.000800403)
(0.0443362 0 -0.000977385)
(0.0512021 0 -0.00113642)
(0.0572452 0 -0.00127921)
(0.0625835 0 -0.00140803)
(0.0673249 0 -0.00152414)
(0.0715631 0 -0.00162864)
(0.0753858 0 -0.00172256)
(0.0788731 0 -0.00180684)
(0.0821089 0 -0.00188373)
(0.0851718 0 -0.00195479)
(0.0881428 0 -0.00202249)
(0.091094 0 -0.0020899)
(0.0940969 0 -0.0021611)
(0.0972213 0 -0.00224126)
(0.100534 0 -0.00233685)
(0.104098 0 -0.00245577)
(0.107984 0 -0.00260787)
(0.112213 0 -0.00280069)
(0.116803 0 -0.00304529)
(0.121764 0 -0.00335319)
(0.127074 0 -0.00373528)
(0.132672 0 -0.00420241)
(0.138444 0 -0.00476987)
(0.144184 0 -0.00547425)
(0.149511 0 -0.00641492)
(0.154223 0 -0.00796677)
(0.00616868 0 -0.000141553)
(0.0177532 0 -0.000408219)
(0.0279587 0 -0.00064555)
(0.0369472 0 -0.000858129)
(0.0448734 0 -0.00104982)
(0.0518738 0 -0.00122352)
(0.058068 0 -0.00138153)
(0.0635718 0 -0.00152614)
(0.0684913 0 -0.00165905)
(0.0729217 0 -0.00178177)
(0.0769511 0 -0.00189579)
(0.0806612 0 -0.00200268)
(0.0841307 0 -0.00210439)
(0.0874439 0 -0.00220401)
(0.0906743 0 -0.00230428)
(0.0938914 0 -0.00240882)
(0.0971622 0 -0.00252225)
(0.10055 0 -0.00265023)
(0.104114 0 -0.00279958)
(0.107906 0 -0.0029784)
(0.111973 0 -0.00319619)
(0.11632 0 -0.00346007)
(0.120953 0 -0.00378113)
(0.125852 0 -0.00417075)
(0.130965 0 -0.00464098)
(0.136193 0 -0.00520624)
(0.141379 0 -0.00588881)
(0.146301 0 -0.00673267)
(0.150635 0 -0.00780595)
(0.154095 0 -0.00924527)
(0.00622733 0 -0.000150674)
(0.0179268 0 -0.000434736)
(0.0282455 0 -0.00068812)
(0.0373505 0 -0.00091588)
(0.0453999 0 -0.00112235)
(0.0525324 0 -0.00131094)
(0.0588719 0 -0.00148433)
(0.0645333 0 -0.001645)
(0.0696217 0 -0.00179503)
(0.0742326 0 -0.0019363)
(0.0784539 0 -0.00207072)
(0.0823677 0 -0.00220034)
(0.0860523 0 -0.00232762)
(0.0895852 0 -0.00245565)
(0.0930368 0 -0.00258774)
(0.0964725 0 -0.00272794)
(0.0999527 0 -0.00288109)
(0.103533 0 -0.00305295)
(0.10726 0 -0.00325021)
(0.111173 0 -0.00348046)
(0.115297 0 -0.00375188)
(0.11963 0 -0.00407233)
(0.124155 0 -0.00445126)
(0.128832 0 -0.0048987)
(0.133583 0 -0.00542566)
(0.138293 0 -0.00604523)
(0.142817 0 -0.00677973)
(0.146927 0 -0.00765122)
(0.150362 0 -0.0086905)
(0.152936 0 -0.00998216)
(0.00628326 0 -0.000159679)
(0.0180929 0 -0.000460944)
(0.0285208 0 -0.000730252)
(0.0377383 0 -0.000973182)
(0.0459067 0 -0.00119446)
(0.053167 0 -0.00139792)
(0.0596446 0 -0.00158674)
(0.0654543 0 -0.00176355)
(0.0707006 0 -0.00193076)
(0.0754781 0 -0.00209062)
(0.079874 0 -0.00224536)
(0.0839694 0 -0.00239741)
(0.0878403 0 -0.00254953)
(0.0915589 0 -0.00270493)
(0.0951911 0 -0.00286721)
(0.0987964 0 -0.00304057)
(0.102428 0 -0.00322984)
(0.106133 0 -0.00344058)
(0.109946 0 -0.00367902)
(0.113893 0 -0.0039519)
(0.117983 0 -0.00426635)
(0.122204 0 -0.00462947)
(0.126525 0 -0.00504903)
(0.130892 0 -0.00553309)
(0.135222 0 -0.00609137)
(0.139404 0 -0.0067334)
(0.143286 0 -0.00746924)
(0.146685 0 -0.00830552)
(0.149442 0 -0.00926499)
(0.151414 0 -0.010388)
(0.0063353 0 -0.000168486)
(0.0182482 0 -0.000486605)
(0.0287795 0 -0.000771574)
(0.038104 0 -0.00102947)
(0.0463854 0 -0.00126546)
(0.0537669 0 -0.00148372)
(0.0603743 0 -0.00168775)
(0.0663217 0 -0.00188059)
(0.071713 0 -0.00206482)
(0.0766414 0 -0.00224299)
(0.0811929 0 -0.00241762)
(0.0854463 0 -0.00259138)
(0.0894744 0 -0.0027672)
(0.0933445 0 -0.0029484)
(0.0971172 0 -0.00313865)
(0.100846 0 -0.00334207)
(0.104576 0 -0.0035633)
(0.108345 0 -0.00380747)
(0.112179 0 -0.0040801)
(0.116092 0 -0.00438697)
(0.12008 0 -0.00473399)
(0.124126 0 -0.00512696)
(0.12819 0 -0.00557261)
(0.132218 0 -0.00607709)
(0.136124 0 -0.00664529)
(0.139792 0 -0.0072804)
(0.143107 0 -0.00798574)
(0.145946 0 -0.00876641)
(0.1482 0 -0.0096316)
(0.149773 0 -0.0105899)
(0.00638232 0 -0.000177001)
(0.0183894 0 -0.000511455)
(0.0290165 0 -0.000811662)
(0.0384408 0 -0.00108418)
(0.046828 0 -0.00133458)
(0.0543218 0 -0.00156738)
(0.0610491 0 -0.00178636)
(0.0671227 0 -0.00199481)
(0.0726449 0 -0.00219565)
(0.0777073 0 -0.00239158)
(0.0823941 0 -0.00258532)
(0.0867811 0 -0.00277969)
(0.0909377 0 -0.00297772)
(0.0949261 0 -0.0031827)
(0.0988015 0 -0.00339823)
(0.102611 0 -0.00362822)
(0.106393 0 -0.00387694)
(0.110177 0 -0.00414891)
(0.11398 0 -0.00444887)
(0.117808 0 -0.00478158)
(0.121648 0 -0.00515163)
(0.125487 0 -0.00556449)
(0.12928 0 -0.00602432)
(0.132958 0 -0.00653322)
(0.136446 0 -0.00709225)
(0.139658 0 -0.00770308)
(0.142507 0 -0.00836638)
(0.144908 0 -0.00908267)
(0.146787 0 -0.00985161)
(0.148089 0 -0.0106666)
(0.00642323 0 -0.000185126)
(0.0185134 0 -0.000535205)
(0.0292269 0 -0.000850054)
(0.0387424 0 -0.00113667)
(0.0472264 0 -0.001401)
(0.0548229 0 -0.00164788)
(0.0616583 0 -0.00188135)
(0.067845 0 -0.00210489)
(0.073483 0 -0.00232164)
(0.0786621 0 -0.00253447)
(0.0834633 0 -0.00274623)
(0.08796 0 -0.00295981)
(0.0922172 0 -0.0031782)
(0.0962927 0 -0.00340461)
(0.100236 0 -0.00364243)
(0.104089 0 -0.00389525)
(0.107884 0 -0.00416686)
(0.111642 0 -0.00446111)
(0.115376 0 -0.00478192)
(0.119085 0 -0.00513313)
(0.122757 0 -0.00551841)
(0.12637 0 -0.00594155)
(0.129875 0 -0.00640293)
(0.133215 0 -0.00690348)
(0.136329 0 -0.00744342)
(0.139153 0 -0.0080221)
(0.141622 0 -0.00863791)
(0.143677 0 -0.009288)
(0.145274 0 -0.00996701)
(0.146382 0 -0.0106636)
(0.00645698 0 -0.000192754)
(0.0186173 0 -0.000557543)
(0.0294061 0 -0.000886254)
(0.0390025 0 -0.00118627)
(0.0475729 0 -0.00146388)
(0.0552612 0 -0.00172418)
(0.0621927 0 -0.00197143)
(0.0684781 0 -0.00220931)
(0.0742158 0 -0.00244106)
(0.0794937 0 -0.00266971)
(0.0843891 0 -0.00289813)
(0.0889721 0 -0.00312924)
(0.0933038 0 -0.00336589)
(0.0974377 0 -0.00361113)
(0.101419 0 -0.00386807)
(0.105283 0 -0.0041399)
(0.109058 0 -0.00442985)
(0.11276 0 -0.0047411)
(0.116397 0 -0.00507673)
(0.119967 0 -0.00543967)
(0.123456 0 -0.00583261)
(0.126835 0 -0.00625686)
(0.130061 0 -0.0067114)