/*--------------------------------*- C++ -*----------------------------------*\
| =========                 |                                                 |
| \\      /  F ield         | OpenFOAM: The Open Source CFD Toolbox           |
|  \\    /   O peration     | Version:  dev                                   |
|   \\  /    A nd           | Web:      www.OpenFOAM.org                      |
|    \\/     M anipulation  |                                                 |
\*---------------------------------------------------------------------------*/
FoamFile
{
    version     2.0;
    format      ascii;
    class       volVectorField;
    location    "0.6";
    object      U;
}
// * * * * * * * * * * * * * * * * * * * * * * * * * * * * * * * * * * * * * //

dimensions      [0 1 -1 0 0 0 0];

internalField   nonuniform List<vector> 
2790
(
(9.93014 0 0.01958)
(9.86151 0 0.0280645)
(9.76391 -8.27789e-21 0.0339814)
(9.63873 -2.15207e-21 0.0400036)
(9.49428 4.45279e-21 0.0462543)
(9.33343 -2.3026e-21 0.0527256)
(9.15548 4.80775e-21 0.0595491)
(8.9592 5.03859e-21 0.0668746)
(8.74366 2.90609e-23 0.0748344)
(8.50801 0 0.0835455)
(8.2512 -1.1472e-20 0.0931265)
(7.97205 -3.16045e-21 0.103704)
(7.66926 1.2368e-20 0.115407)
(7.34146 -2.59468e-20 0.128364)
(6.98732 2.71723e-20 0.142697)
(6.6056 0 0.158509)
(6.19529 0 0.175874)
(5.75572 0 0.194813)
(5.28678 0 0.215264)
(4.78914 7.07184e-20 0.237046)
(4.26455 -7.31235e-20 0.259839)
(3.71607 -1.55766e-19 0.283131)
(3.14832 1.61126e-19 0.306112)
(2.56776 -8.47893e-20 0.327564)
(1.98304 8.84267e-20 0.3455)
(1.40485 -3.68196e-19 0.355823)
(0.845927 1.13631e-18 0.347174)
(0.323969 1.68629e-21 0.284825)
(-0.103495 -7.72146e-19 0.0789768)
(-0.0251881 -2.04549e-18 -0.138496)
(9.98973 1.55442e-20 0.0397363)
(9.97685 2.00184e-21 0.059578)
(9.93717 1.85769e-20 0.0745294)
(9.86863 2.13685e-20 0.0902102)
(9.77835 -8.90912e-21 0.106903)
(9.66933 -3.22879e-23 0.124518)
(9.54108 -4.78823e-21 0.143303)
(9.39249 -9.95472e-21 0.163577)
(9.22271 -5.19013e-21 0.18563)
(9.03094 0 0.209718)
(8.8162 0 0.236097)
(8.57732 2.95232e-21 0.265035)
(8.31301 4.67226e-20 0.296791)
(8.02189 -5.1691e-20 0.331595)
(7.7026 0 0.369633)
(7.35382 -1.14642e-19 0.411011)
(6.97438 1.18175e-19 0.455705)
(6.56343 0 0.503508)
(6.12059 2.64975e-19 0.553927)
(5.64618 -5.17144e-19 0.606095)
(5.1415 5.78693e-19 0.658703)
(4.60921 -3.09739e-19 0.709903)
(4.0534 6.31051e-19 0.757085)
(3.48002 -8.26328e-20 0.796646)
(2.89756 -8.63982e-20 0.823532)
(2.3172 0 0.829882)
(1.75251 1.47981e-18 0.801579)
(1.2158 -1.50625e-18 0.711555)
(0.719267 3.79492e-19 0.524485)
(0.415493 -2.01445e-18 0.190898)
(9.98692 -1.5542e-20 0.0427761)
(9.97128 0 0.0717287)
(9.93383 -1.23734e-20 0.0964491)
(9.87015 -2.135e-20 0.122302)
(9.78609 -1.76953e-20 0.149916)
(9.68477 9.19507e-21 0.179287)
(9.56603 1.92007e-20 0.210736)
(9.42885 -2.9661e-20 0.244708)
(9.27255 -4.16312e-20 0.281641)
(9.09653 8.62387e-20 0.321949)
(8.89995 -4.46579e-20 0.366066)
(8.68181 0 0.414447)
(8.44099 1.02034e-19 0.467528)
(8.17623 -1.01834e-19 0.525708)
(7.88628 0 0.589327)
(7.56982 2.27079e-19 0.658608)
(7.22564 -2.33833e-19 0.733583)
(6.85263 2.49376e-19 0.813988)
(6.45001 -2.56957e-19 0.899123)
(6.01743 -1.01722e-19 0.987661)
(5.55513 0 1.0775)
(5.06454 -4.42739e-19 1.16566)
(4.54813 0 1.24785)
(4.00955 1.30528e-18 1.31806)
(3.45417 -1.00633e-18 1.36792)
(2.88849 -2.80343e-18 1.38546)
(2.31848 2.51201e-18 1.3531)
(1.74517 -2.95097e-18 1.24559)
(1.14587 2.22912e-18 1.04301)
(0.666844 -1.58489e-18 0.756253)
(9.98521 0 0.0482671)
(9.96721 0 0.0878924)
(9.92962 -8.25482e-21 0.123711)
(9.86716 8.50274e-21 0.16004)
(9.78473 3.54178e-20 0.198126)
(9.68546 -1.82563e-20 0.238345)
(9.56947 -1.91386e-20 0.2812)
(9.43584 5.92627e-20 0.327289)
(9.28409 0 0.377193)
(9.11384 -2.14186e-20 0.431498)
(8.92446 0 0.490826)
(8.71524 0 0.555812)
(8.48534 1.21601e-20 0.627067)
(8.23385 -2.05458e-19 0.705169)
(7.95981 4.26184e-19 0.79063)
(7.66225 -2.21022e-19 0.883846)
(7.34017 1.45337e-20 0.984983)
(6.99261 4.62013e-19 1.09386)
(6.61878 8.5011e-21 1.20977)
(6.21796 -3.96743e-19 1.33126)
(5.78957 0 1.45577)
(5.33372 1.02956e-18 1.57955)
(4.85116 -1.36184e-18 1.69724)
(4.34293 -9.57944e-19 1.80117)
(3.8104 1.30741e-18 1.88069)
(3.25435 0 1.9213)
(2.67367 3.50969e-19 1.90421)
(2.06463 0 1.80699)
(1.40296 3.65386e-19 1.61491)
(0.817292 1.55283e-18 1.35647)
(9.98436 0 0.0552677)
(9.96506 -3.17832e-20 0.104187)
(9.92731 3.28235e-20 0.149775)
(9.8659 0 0.195615)
(9.78504 5.28666e-20 0.243426)
(9.68772 -1.81967e-20 0.293925)
(9.57413 0 0.347771)
(9.44349 -3.94069e-20 0.405659)
(9.29537 -2.04605e-20 0.46824)
(9.12944 7.35977e-23 0.536204)
(8.94522 0 0.610301)
(8.74214 -7.02936e-20 0.69128)
(8.51957 8.39004e-20 0.77986)
(8.27681 0 0.87673)
(8.01315 0 0.982527)
(7.72786 2.22269e-19 1.09777)
(7.42022 -2.57243e-19 1.22275)
(7.08942 5.15671e-19 1.35737)
(6.7348 -4.99031e-19 1.50106)
(6.35553 -6.59158e-20 1.65243)
(5.95047 -1.17309e-18 1.80882)
(5.51855 -2.14395e-18 1.96605)
(5.05892 1.33967e-19 2.11816)
(4.57033 1.22769e-18 2.25666)
(4.05097 -2.53533e-21 2.36973)
(3.49737 2.65741e-18 2.44136)
(2.9042 -3.19733e-19 2.45141)
(2.26731 -5.59344e-18 2.3775)
(1.57614 8.59884e-18 2.19952)
(0.931906 -7.20513e-18 1.95116)
(9.98383 3.85645e-21 0.0629653)
(9.96408 -3.55753e-20 0.120484)
(9.92658 -3.2803e-20 0.175337)
(9.86637 3.38446e-20 0.230599)
(9.78741 -5.27671e-20 0.288121)
(9.69245 1.81271e-20 0.348825)
(9.58167 3.79564e-20 0.413491)
(9.45443 -1.93842e-20 0.482903)
(9.31033 2.04175e-20 0.557782)
(9.14903 1.0662e-19 0.638913)
(8.97013 -1.98661e-19 0.727171)
(8.77315 -1.39943e-19 0.823407)
(8.55753 1.90371e-19 0.928432)
(8.3227 2.13994e-19 1.04304)
(8.06803 -2.1349e-19 1.16797)
(7.79288 0 1.30385)
(7.49665 7.17798e-21 1.45109)
(7.1786 2.94897e-20 1.60972)
(6.83792 0 1.77928)
(6.47373 1.03873e-18 1.95864)
(6.08458 8.31648e-20 2.14534)
(5.66835 8.29914e-19 2.33512)
(5.22269 -1.02326e-18 2.5218)
(4.74439 8.94933e-19 2.69649)
(4.22921 2.18914e-18 2.84673)
(3.67117 -2.55586e-18 2.95515)
(3.0632 3.31892e-19 2.99893)
(2.40115 -2.73043e-18 2.95168)
(1.69195 2.79372e-18 2.78234)
(1.01705 3.25742e-19 2.51175)
(9.98351 -5.75504e-20 0.0709679)
(9.96386 5.93943e-20 0.136697)
(9.92706 0 0.20038)
(9.86825 -5.0753e-20 0.264769)
(9.79148 -1.74749e-20 0.331693)
(9.69933 0 0.402239)
(9.59182 0 0.477319)
(9.46848 0 0.557813)
(9.32899 0 0.644523)
(9.17296 0 0.738334)
(9.00004 1.10143e-19 0.840225)
(8.8098 -6.77103e-20 0.951139)
(8.60173 0 1.07197)
(8.37527 -1.87007e-19 1.20359)
(8.12981 1.98117e-19 1.34687)
(7.86469 -4.32626e-19 1.50253)
(7.57928 1.24269e-22 1.67109)
(7.27279 9.02519e-19 1.85275)
(6.94403 -1.45868e-18 2.04723)
(6.59183 2.01835e-18 2.25369)
(6.21444 -2.09782e-18 2.47009)
(5.80898 -8.76912e-19 2.6925)
(5.37164 9.23733e-19 2.91488)
(4.89745 -8.68801e-19 3.12827)
(4.37987 0 3.31947)
(3.81133 0 3.4695)
(3.18437 -2.6161e-18 3.55185)
(2.49366 2.63994e-18 3.53339)
(1.76008 -2.7589e-18 3.37174)
(1.06911 2.85001e-18 3.05435)
(9.98346 6.13705e-20 0.0790371)
(9.96415 0 0.15268)
(9.92836 1.63025e-20 0.22477)
(9.87127 -3.36455e-20 0.297935)
(9.797 5.22142e-20 0.373912)
(9.70801 0 0.453937)
(9.60423 0 0.539048)
(9.48536 -7.79224e-20 0.63019)
(9.35108 8.00418e-20 0.728258)
(9.20098 0 0.834241)
(9.03476 0 0.949205)
(8.85205 0 1.07418)
(8.65236 0 1.21014)
(8.43509 1.7222e-19 1.35808)
(8.19962 -2.14284e-19 1.51899)
(7.94527 -1.31448e-20 1.69369)
(7.67126 0 1.88286)
(7.37659 4.56937e-19 2.08694)
(7.05971 -4.67864e-19 2.30594)
(6.7189 0 2.5393)
(6.35197 -3.17315e-20 2.78551)
(5.95534 1.03244e-18 3.04133)
(5.52378 -1.01974e-18 3.30123)
(5.05059 -1.42404e-19 3.55648)
(4.5271 0 3.79328)
(3.94386 0 3.99086)
(3.29256 -2.4585e-18 4.11857)
(2.56605 2.40905e-18 4.13537)
(1.79114 -2.72259e-18 3.9896)
(1.08807 2.91898e-18 3.61961)
(9.98362 0 0.087004)
(9.96486 7.85739e-21 0.168307)
(9.93029 4.03454e-20 0.2484)
(9.87524 1.67041e-20 0.329948)
(9.80382 0 0.414613)
(9.7183 0 0.50373)
(9.61871 -7.43504e-20 0.598429)
(9.50487 3.8321e-20 0.699723)
(9.37641 -8.02809e-20 0.808627)
(9.2329 1.6574e-19 0.926226)
(9.07412 -2.58585e-19 1.05365)
(8.89974 1.77542e-19 1.192)
(8.70928 0 1.34239)
(8.50213 4.79549e-20 1.50592)
(8.27765 2.51355e-20 1.68368)
(8.03514 1.30576e-20 1.87666)
(7.77364 -4.61485e-19 2.08578)
(7.49182 -2.60387e-21 2.31178)
(7.1879 4.43195e-19 2.55504)
(6.85965 -1.49169e-20 2.81539)
(6.50419 1.03306e-18 3.09192)
(6.11702 2.04082e-18 3.38235)
(5.69166 -1.07166e-18 3.68209)
(5.21971 0 3.98302)
(4.69021 2.26713e-18 4.27133)
(4.09086 -2.38472e-18 4.52504)
(3.41066 1.48718e-19 4.70956)
(2.64019 -2.36238e-18 4.77596)
(1.8008 5.14657e-18 4.66433)
(1.07833 -2.93478e-18 4.25365)
(9.98385 0 0.0947546)
(9.96588 0 0.183461)
(9.93275 -6.4618e-20 0.271168)
(9.88002 6.64783e-20 0.360674)
(9.81171 0 0.453629)
(9.73 -3.53204e-20 0.551408)
(9.63507 7.50414e-22 0.655193)
(9.52674 -7.60938e-20 0.766096)
(9.4046 0 0.885269)
(9.26832 4.16437e-20 1.01387)
(9.11768 -1.27062e-19 1.15307)
(8.95241 -4.39582e-20 1.30408)
(8.77203 -1.84304e-19 1.46811)
(8.57599 1.411e-19 1.64639)
(8.36367 0 1.84015)
(8.13426 0 2.05059)
(7.88667 2.6612e-20 2.27891)
(7.61933 -4.41007e-19 2.52618)
(7.33034 4.6483e-19 2.79324)
(7.01706 -9.27856e-19 3.08048)
(6.67576 9.61574e-19 3.38782)
(6.301 -1.57179e-20 3.71409)
(5.88534 1.61938e-20 4.05606)
(5.41857 0 4.40695)
(4.88693 0 4.75405)
(4.27405 -1.05544e-18 5.07559)
(3.5638 1.15099e-18 5.33464)
(2.74234 0 5.47511)
(1.81132 3.21621e-19 5.42766)
(1.04923 1.52146e-18 5.00507)
(9.9841 0 0.102219)
(9.96709 7.78631e-21 0.198034)
(9.93567 -8.81197e-20 0.292967)
(9.88547 1.62343e-20 0.389995)
(9.82049 0 0.490802)
(9.74295 7.09919e-20 0.596765)
(9.6531 1.47014e-19 0.709104)
(9.55064 -1.51671e-19 0.829049)
(9.43527 1.57023e-19 0.957872)
(9.30676 -8.06054e-20 1.09679)
(9.16491 1.69648e-19 1.24704)
(9.0095 -1.29713e-19 1.40989)
(8.84009 -1.36785e-19 1.58668)
(8.6562 1.8605e-19 1.77876)
(8.45721 -4.81385e-20 1.98753)
(8.24231 4.53049e-19 2.21445)
(8.01028 -4.12159e-19 2.46097)
(7.75954 -4.3072e-19 2.72855)
(7.48811 4.39608e-19 3.01855)
(7.19302 0 3.33214)
(6.86988 5.80367e-20 3.6702)
(6.51271 0 4.03292)
(6.11319 0 4.41897)
(5.65929 0 4.82389)
(5.13426 1.04914e-18 5.23775)
(4.51648 -1.88751e-18 5.64142)
(3.78155 6.9454e-19 5.99921)
(2.90648 -8.7117e-19 6.25035)
(1.85592 9.31333e-19 6.31413)
(1.01841 -3.20217e-19 5.9316)
(9.98438 -3.76613e-21 0.109347)
(9.96848 1.16156e-20 0.211931)
(9.93897 5.60085e-20 0.313696)
(9.8915 -6.60468e-20 0.417803)
(9.83011 0 0.525979)
(9.75711 -3.52896e-20 0.639607)
(9.67267 -3.67579e-20 0.75996)
(9.57645 7.49008e-20 0.888358)
(9.46832 0 1.02616)
(9.34809 1.21215e-19 1.17466)
(9.21564 -4.10519e-20 1.33513)
(9.07079 -2.58791e-19 1.50893)
(8.91319 1.32457e-19 1.69749)
(8.7424 -1.85149e-19 1.9023)
(8.55787 2.37189e-19 2.12493)
(8.35885 -4.44659e-19 2.36706)
(8.14418 4.61599e-20 2.63046)
(7.91238 4.67927e-19 2.91696)
(7.66143 0 3.22851)
(7.38828 -4.44603e-19 3.56715)
(7.08844 5.07614e-19 3.9349)
(6.75573 0 4.33354)
(6.38127 0 4.76415)
(5.95178 0 5.22579)
(5.44795 0 5.71343)
(4.84255 -1.02009e-20 6.21417)
(4.09953 2.70125e-19 6.69952)
(3.17992 2.81901e-19 7.11151)
(1.9882 1.49097e-19 7.3606)
(1.01915 -1.49766e-19 7.10859)
(9.98467 1.15827e-19 0.116099)
(9.96998 1.34428e-19 0.225077)
(9.94257 7.96914e-21 0.333259)
(9.89802 4.89719e-20 0.443982)
(9.84046 0 0.55901)
(9.77227 6.96178e-20 0.679759)
(9.69353 0 0.807558)
(9.60394 0 0.943787)
(9.50344 -6.25464e-22 1.08986)
(9.39196 1.28553e-23 1.24713)
(9.26945 0 1.41693)
(9.13581 8.53692e-20 1.6007)
(8.99078 8.72484e-20 1.79995)
(8.834 0 2.01629)
(8.66504 0 2.25143)
(8.48328 9.55942e-20 2.50727)
(8.2878 -4.484e-19 2.78586)
(8.07726 4.5594e-19 3.08942)
(7.84981 -1.03714e-19 3.42048)
(7.60269 0 3.78196)
(7.33181 -1.11288e-19 4.17705)
(7.03135 1.10835e-19 4.60933)
(6.69267 0 5.08267)
(6.30258 0 5.60064)
(5.84082 -2.33057e-19 6.16522)
(5.27619 -2.48569e-19 6.77425)
(4.56025 -6.2107e-20 7.41539)
(3.63087 1.92325e-19 8.05018)
(2.29847 -1.3353e-19 8.60216)
(1.11571 -4.2246e-19 8.65531)
(9.98498 -4.3263e-21 0.122445)
(9.97159 -1.26635e-19 0.237413)
(9.9464 7.88199e-21 0.351576)
(9.90496 -3.26428e-20 0.468431)
(9.85143 3.34469e-20 0.589784)
(9.78822 -1.7336e-19 0.717091)
(9.71543 3.5665e-20 0.851735)
(9.63279 0 0.995133)
(9.54028 -1.52453e-19 1.14873)
(9.43796 7.90293e-20 1.31393)
(9.32588 0 1.49212)
(9.20401 0 1.68479)
(9.07222 -2.6045e-19 1.89355)
(8.9303 -8.99494e-20 2.12007)
(8.77798 1.8267e-19 2.3662)
(8.61484 -1.4567e-21 2.634)
(8.4402 0 2.92575)
(8.25309 -1.00399e-19 3.24403)
(8.05205 1.02961e-19 3.59189)
(7.83493 -5.20548e-19 3.97295)
(7.59854 4.24772e-19 4.39154)
(7.33817 3.23224e-19 4.85294)
(7.04668 -8.79931e-19 5.36388)
(6.71296 4.47134e-19 5.93271)
(6.31917 6.50411e-21 6.5697)
(5.83565 6.48782e-20 7.28719)
(5.20878 -5.78223e-20 8.09931)
(4.35695 0 9.01561)
(2.95363 0 10.0469)
(1.45161 5.98585e-19 10.837)
(9.9853 3.07833e-21 0.128356)
(9.97328 -3.80496e-21 0.248883)
(9.95045 0 0.368568)
(9.91227 1.61959e-20 0.49105)
(9.86295 -1.1693e-19 0.61818)
(9.80491 1.03294e-19 0.75145)
(9.73829 7.06703e-20 0.892289)
(9.66286 -1.46259e-19 1.04214)
(9.57868 2.26082e-19 1.20246)
(9.4859 0 1.37469)
(9.38468 -2.40744e-19 1.56026)
(9.27507 -1.20081e-21 1.7607)
(9.15711 3.40311e-19 1.97766)
(9.03076 -8.63448e-20 2.21288)
(8.89595 8.93152e-20 2.4683)
(8.75251 -1.49718e-21 2.74607)
(8.60012 0 3.04864)
(8.43826 0 3.37885)
(8.26611 0 3.7401)
(8.08238 1.02299e-19 4.13654)
(7.8852 0 4.57328)
(7.67171 0 5.05696)
(7.43763 1.03456e-19 5.59649)
(7.17633 1.03815e-19 6.20415)
(6.87707 0 6.89745)
(6.52189 2.15227e-19 7.70287)
(6.07429 1.02308e-19 8.66428)
(5.48296 0 9.86163)
(4.32609 -2.15965e-19 11.5247)
(2.46184 5.27735e-19 14.3043)
(0.145922 0 0.0690512)
(-0.376753 -1.09387e-21 0.365019)
(-1.25472 0 0.474356)
(-2.27353 -4.5123e-21 0.515425)
(-3.37112 0 0.524971)
(-4.49785 1.21536e-20 0.517022)
(-5.62341 -1.18567e-20 0.498004)
(-6.72833 -1.81009e-20 0.471436)
(-7.79949 1.76424e-20 0.439404)
(-8.82704 0 0.403227)
(-9.80205 0 0.363732)
(-10.7163 2.06402e-20 0.321452)
(-11.5617 -2.37364e-20 0.276743)
(-12.3296 0 0.229815)
(-13.0105 0 0.180744)
(-13.5939 -1.54935e-20 0.129517)
(-14.0685 0 0.0760909)
(-14.4223 8.34497e-21 0.0203804)
(-14.643 -1.23231e-20 -0.0379068)
(-14.7168 -4.10039e-21 -0.0996214)
(-14.6268 7.78032e-21 -0.166626)
(-14.3559 7.18506e-21 -0.242527)
(-13.8849 -6.38127e-21 -0.329213)
(-13.1909 0 -0.430875)
(-12.243 0 -0.554644)
(-10.9876 0 -0.712116)
(-9.31871 0 -0.926049)
(-7.0552 1.19153e-22 -1.24969)
(-3.9715 0 -1.78847)
(0.93428 0 -2.76025)
(-0.205153 -9.39543e-21 0.434078)
(-0.778084 1.28147e-19 0.839501)
(-1.64347 -1.19972e-19 1.04687)
(-2.62876 -3.71691e-20 1.1585)
(-3.68412 4.04339e-20 1.21431)
(-4.7653 0 1.23308)
(-5.84477 -1.93952e-20 1.22508)
(-6.90469 -7.34063e-20 1.19703)
(-7.93266 7.16012e-20 1.15352)
(-8.91905 2.86619e-20 1.09762)
(-9.85525 -2.34637e-20 1.03146)
(-10.7333 -1.60862e-20 0.956443)
(-11.5451 2.35572e-20 0.873345)
(-12.2819 0 0.782469)
(-12.9341 0 0.683732)
(-13.4913 1.54345e-20 0.576786)
(-13.9421 -1.66245e-20 0.461251)
(-14.2747 4.99824e-20 0.336877)
(-14.477 1.67392e-20 0.20337)
(-14.5361 2.02388e-22 0.0597908)
(-14.436 1.77359e-22 -0.096216)
(-14.1714 -2.18212e-20 -0.262206)
(-13.7262 6.36225e-21 -0.439758)
(-13.0832 2.44305e-21 -0.634763)
(-12.2195 -4.22994e-21 -0.857389)
(-11.0981 1.79767e-21 -1.12321)
(-9.64944 0 -1.46238)
(-7.76424 -2.27642e-22 -1.94657)
(-5.37246 -2.81716e-21 -2.6943)
(-2.87491 0 -3.66832)
(-0.244491 -1.33017e-19 1.00676)
(-0.887251 1.3588e-19 1.50053)
(-1.76481 -7.39951e-20 1.77786)
(-2.71217 7.1421e-20 1.93578)
(-3.70318 0 2.01422)
(-4.70759 -1.23871e-20 2.03597)
(-5.70593 1.92736e-20 2.01504)
(-6.68495 7.88875e-20 1.96128)
(-7.63495 -7.69908e-20 1.88156)
(-8.54797 -2.85255e-20 1.78056)
(-9.41683 0 1.66146)
(-10.2346 -9.04022e-20 1.52635)
(-10.9938 3.79467e-20 1.37638)
(-11.6861 1.08239e-19 1.21202)
(-12.3024 -5.61748e-20 1.03335)
(-12.8322 0 0.840291)
(-13.2643 0 0.63297)
(-13.5869 6.75467e-22 0.412071)
(-13.7883 -6.86699e-20 0.178885)
(-13.8562 -3.42928e-20 -0.0651475)
(-13.7751 7.27151e-22 -0.319087)
(-13.5423 2.9991e-20 -0.587534)
(-13.1464 -2.70164e-20 -0.872853)
(-12.5765 2.31179e-20 -1.18185)
(-11.8183 0 -1.52638)
(-10.8497 -1.23561e-20 -1.9233)
(-9.63367 -1.26707e-21 -2.39973)
(-8.12047 0 -3.00926)
(-6.33004 2.79825e-21 -3.82347)
(-4.74902 6.54781e-23 -4.75077)
(-0.156175 0 1.74951)
(-0.816617 9.0095e-20 2.2567)
(-1.71277 -8.64446e-20 2.54416)
(-2.61957 -2.83573e-22 2.70796)
(-3.54026 -8.16216e-21 2.78341)
(-4.45961 -8.59869e-20 2.79333)
(-5.36807 7.88861e-20 2.75309)
(-6.25848 0 2.67385)
(-7.12469 0 2.56354)
(-7.96093 0 2.42773)
(-8.76147 -5.8569e-20 2.27018)
(-9.52014 2.14213e-21 2.09323)
(-10.2297 -1.0793e-19 1.89798)
(-10.8818 1.05659e-19 1.68464)
(-11.4667 0 1.45283)
(-11.9733 6.65599e-20 1.20185)
(-12.3895 0 0.930966)
(-12.703 3.5619e-20 0.639869)
(-12.9018 -3.55528e-20 0.328867)
(-12.9739 3.39166e-20 -0.00127421)
(-12.9052 -8.29455e-20 -0.349887)
(-12.6978 1.11708e-21 -0.713901)
(-12.3453 4.15789e-20 -1.09554)
(-11.8432 -2.85601e-20 -1.50296)
(-11.1854 -1.0411e-20 -1.95024)
(-10.3619 -5.71539e-21 -2.45623)
(-9.3584 -8.45795e-22 -3.04507)
(-8.16201 6.01592e-21 -3.74979)
(-6.82581 0 -4.59379)
(-5.74585 0 -5.44057)
(-0.00526555 0 2.62421)
(-0.646099 -5.15849e-20 3.07523)
(-1.55025 4.99233e-20 3.32201)
(-2.40408 2.84693e-22 3.45766)
(-3.24831 8.19706e-21 3.50976)
(-4.0795 1.75388e-20 3.49707)
(-4.89677 1.49046e-19 3.43323)
(-5.69842 -3.42818e-19 3.32834)
(-6.48167 2.50591e-19 3.18957)
(-7.24265 -7.97188e-20 3.0219)
(-7.97652 -4.85201e-19 2.82851)
(-8.67731 3.05789e-20 2.61103)
(-9.33758 0 2.36976)
(-9.94839 0 2.10417)
(-10.4993 6.50362e-20 1.81331)
(-10.9785 -1.3712e-19 1.49629)
(-11.3734 1.41493e-19 1.15282)
(-11.6713 -3.69982e-20 0.783659)
(-11.8603 3.64742e-20 0.391193)
(-11.9294 1.0998e-19 -0.0208039)
(-11.8662 6.80247e-20 -0.448378)
(-11.6772 -8.34246e-20 -0.890388)
(-11.3608 -1.48336e-21 -1.34787)
(-10.919 -3.34243e-20 -1.82892)
(-10.3531 1.8946e-20 -2.34855)
(-9.66289 4.40441e-20 -2.92615)
(-8.84867 -1.07698e-21 -3.58178)
(-7.91801 -1.75839e-20 -4.33087)
(-6.92838 -5.03188e-22 -5.1606)
(-6.17001 0 -5.91104)
(0.162768 -8.39213e-20 3.57964)
(-0.435597 7.55881e-20 3.91934)
(-1.32338 2.67574e-21 4.08931)
(-2.10386 0 4.17327)
(-2.86216 2.15711e-20 4.18813)
(-3.60106 0 4.14589)
(-4.32583 -4.09968e-20 4.0564)
(-5.03855 5.22428e-20 3.92723)
(-5.73883 -1.30505e-19 3.76372)
(-6.42422 6.2388e-20 3.56944)
(-7.09052 -5.60266e-21 3.34644)
(-7.73175 9.67455e-20 3.09539)
(-8.34031 4.20406e-21 2.81581)
(-8.90693 -1.16231e-19 2.50649)
(-9.4208 2.60126e-21 2.16598)
(-9.86982 -7.23574e-20 1.79309)
(-10.2409 -7.30296e-20 1.38732)
(-10.5207 0 0.949553)
(-10.6973 -3.85421e-20 0.482792)
(-10.7598 -1.14375e-19 -0.00741663)
(-10.6969 -3.54811e-20 -0.514267)
(-10.5207 1.00944e-19 -1.03129)
(-10.234 0 -1.55757)
(-9.84514 2.59413e-20 -2.10104)
(-9.36172 0 -2.6776)
(-8.79071 -3.35062e-20 -3.30669)
(-8.14141 0 -4.00407)
(-7.43106 1.3968e-20 -4.7712)
(-6.70929 0 -5.57036)
(-6.17831 2.00723e-21 -6.23492)
(0.309975 7.59406e-21 4.54173)
(-0.233807 0 4.73724)
(-1.06622 0 4.81126)
(-1.74728 1.75186e-19 4.83254)
(-2.40701 -1.92223e-19 4.8046)
(-3.04684 -1.60693e-19 4.73132)
(-3.67581 -6.13377e-21 4.61748)
(-4.29784 1.46013e-19 4.46724)
(-4.91378 -1.35573e-19 4.28342)
(-5.52193 0 4.06768)
(-6.11852 9.00936e-20 3.82051)
(-6.69768 0 3.54124)
(-7.25175 2.3584e-19 3.22831)
(-7.77139 6.60752e-20 2.87961)
(-8.24565 2.69674e-21 2.493)
(-8.66222 7.29538e-20 2.06689)
(-9.00761 0 1.60078)
(-9.26792 -8.12583e-20 1.09615)
(-9.4303 -4.16915e-20 0.557682)
(-9.48399 -3.18309e-21 -0.00582849)
(-9.41866 3.90061e-20 -0.583315)
(-9.25174 0 -1.16486)
(-8.99032 0 -1.74685)
(-8.64849 -5.76975e-20 -2.33693)
(-8.23921 0 -2.95217)
(-7.77399 0 -3.61245)
(-7.2669 -1.49719e-21 -4.33014)
(-6.73856 1.46309e-21 -5.09663)
(-6.2269 0 -5.85926)
(-5.86969 1.15397e-21 -6.45341)
(0.410385 -7.55433e-21 5.41928)
(-0.073037 -1.35343e-19 5.46679)
(-0.799716 1.43476e-19 5.44739)
(-1.35357 -2.70478e-19 5.40906)
(-1.90094 3.50302e-19 5.34155)
(-2.4332 -1.48763e-19 5.24164)
(-2.96133 0 5.10853)
(-3.48937 -2.78309e-19 4.94273)
(-4.0183 3.42811e-19 4.74431)
(-4.5466 2.78171e-19 4.5129)
(-5.07061 0 4.24733)
(-5.58462 0 3.94556)
(-6.08116 -3.80145e-19 3.60496)
(-6.55106 6.22867e-20 3.22254)
(-6.98356 -1.49613e-19 2.79547)
(-7.36642 2.28816e-19 2.32173)
(-7.68592 0 1.80066)
(-7.92727 8.21394e-20 1.23409)
(-8.07611 -2.76038e-21 0.628134)
(-8.12066 4.08596e-20 -0.00503258)
(-8.05104 -3.80756e-20 -0.649076)
(-7.89079 -7.54502e-20 -1.28821)
(-7.65116 1.60412e-20 -1.91547)
(-7.35182 4.24822e-20 -2.53877)
(-7.0095 0 -3.1774)
(-6.63787 0 -3.85252)
(-6.25238 0 -4.5743)
(-5.87389 0 -5.32747)
(-5.5283 1.28477e-20 -6.05266)
(-5.31331 -3.15241e-21 -6.59118)
(0.454568 0 6.12128)
(0.0357607 -1.04444e-20 6.0465)
(-0.531657 -1.2638e-19 5.95861)
(-0.933622 1.53735e-19 5.87723)
(-1.35596 5.90977e-20 5.78188)
(-1.7721 -2.59882e-20 5.6652)
(-2.19403 0 5.52129)
(-2.62415 -7.20985e-20 5.34747)
(-3.06275 0 5.14142)
(-3.50796 -9.04762e-20 4.90092)
(-3.95606 -2.26799e-19 4.6233)
(-4.40148 2.21877e-19 4.30529)
(-4.83714 2.61431e-19 3.94325)
(-5.25442 0 3.53338)
(-5.6431 -7.53296e-20 3.0721)
(-5.99138 -7.99167e-20 2.5567)
(-6.28555 8.60797e-20 1.98605)
(-6.50963 -1.76707e-19 1.36196)
(-6.64659 1.74067e-19 0.691886)
(-6.68232 8.87032e-20 -0.0079117)
(-6.6081 8.44783e-20 -0.714216)
(-6.45346 1.54873e-19 -1.40388)
(-6.2341 7.14903e-20 -2.06599)
(-5.97447 0 -2.70984)
(-5.69351 0 -3.35847)
(-5.40487 0 -4.03532)
(-5.12279 1.83184e-21 -4.74928)
(-4.86729 -1.7869e-21 -5.48064)
(-4.65193 1.59758e-20 -6.16888)
(-4.56026 0 -6.66406)
(0.45076 0 6.57388)
(0.103773 -1.39376e-19 6.42867)
(-0.258933 1.37654e-19 6.31372)
(-0.492429 1.07226e-20 6.21543)
(-0.780002 -2.29515e-19 6.11099)
(-1.07279 5.00383e-19 5.99188)
(-1.3839 -2.37014e-19 5.84846)
(-1.7126 2.75992e-19 5.67581)
(-2.05769 -1.60385e-19 5.46993)
(-2.41654 -1.62819e-19 5.22748)
(-2.78519 -5.0438e-19 4.94454)
(-3.15823 2.3376e-19 4.61691)
(-3.52906 7.91392e-20 4.24017)
(-3.88993 8.95302e-20 3.80979)
(-4.2317 -2.33874e-19 3.3214)
(-4.54359 8.56288e-20 2.77135)
(-4.81245 -8.71397e-20 2.15754)
(-5.02118 2.73466e-19 1.48102)
(-5.14868 -9.09239e-20 0.750147)
(-5.1764 2.30833e-21 -0.0138585)
(-5.09792 -1.73281e-19 -0.77868)
(-4.95098 -7.95185e-20 -1.51206)
(-4.75379 -7.22531e-20 -2.19897)
(-4.53381 0 -2.85193)
(-4.31051 0 -3.49937)
(-4.09599 0 -4.16809)
(-3.90138 -3.70769e-20 -4.86631)
(-3.74661 0 -5.57082)
(-3.63038 -6.05263e-20 -6.22215)
(-3.64957 0 -6.68299)
(0.422154 -3.11599e-20 6.73942)
(0.159495 7.96833e-20 6.58931)
(0.0283584 -1.6821e-19 6.49436)
(-0.0307724 7.44621e-20 6.4097)
(-0.17854 0 6.31886)
(-0.343349 -1.44912e-19 6.21413)
(-0.54081 1.28075e-19 6.08403)
(-0.765771 -3.91395e-20 5.92268)
(-1.01492 1.98685e-19 5.72555)
(-1.28456 -2.4522e-19 5.48859)
(-1.57044 -1.73313e-21 5.20711)
(-1.86705 1.3764e-19 4.87654)
(-2.1683 -2.05216e-19 4.49199)
(-2.46744 -7.63595e-20 4.04846)
(-2.75684 2.5389e-19 3.54084)
(-3.0276 -2.56066e-19 2.96425)
(-3.26838 0 2.3149)
(-3.46159 2.09644e-21 1.5919)
(-3.58046 -1.42126e-19 0.803672)
(-3.59949 -4.63179e-20 -0.0222877)
(-3.51903 4.21954e-20 -0.841312)
(-3.38867 -2.25274e-20 -1.61084)
(-3.2216 -1.96506e-20 -2.31299)
(-3.04545 0 -2.96528)
(-2.87858 0 -3.60293)
(-2.73107 -4.91311e-20 -4.257)
(-2.61004 1.14964e-19 -4.93523)
(-2.53744 6.922e-22 -5.61115)
(-2.49301 6.45194e-20 -6.22493)
(-2.61147 0 -6.65651)
(0.392607 1.1984e-20 6.62079)
(0.24073 -1.11273e-20 6.5306)
(0.342643 1.31691e-20 6.49553)
(0.448722 -5.74184e-20 6.4547)
(0.443233 5.04349e-20 6.40125)
(0.407308 -2.32972e-20 6.32885)
(0.325064 0 6.2265)
(0.205428 2.11847e-20 6.08788)
(0.0521334 1.03421e-19 5.9066)
(-0.126711 -2.17341e-19 5.682)
(-0.327324 -5.37287e-20 5.4081)
(-0.543834 6.77118e-20 5.08032)
(-0.770482 0 4.69381)
(-1.00132 1.66794e-19 4.24344)
(-1.23013 -2.4999e-19 3.72365)
(-1.45046 9.09763e-20 3.12835)
(-1.65458 0 2.45149)
(-1.82631 0 1.68953)
(-1.93041 -9.90959e-20 0.849227)
(-1.93085 9.84435e-20 -0.0347202)
(-1.86183 4.66265e-20 -0.902145)
(-1.76735 4.4029e-20 -1.69778)
(-1.64612 -7.85974e-20 -2.40563)
(-1.52317 0 -3.04938)
(-1.41451 6.05918e-20 -3.67161)
(-1.32876 4.96451e-20 -4.30777)
(-1.26951 4.15529e-21 -4.96484)
(-1.26243 -2.11104e-21 -5.61333)
(-1.2679 -3.38054e-20 -6.18936)
(-1.46914 0 -6.59259)
(0.39102 1.02414e-19 6.25453)
(0.384245 -4.98279e-20 6.27344)
(0.693673 1.94679e-20 6.32499)
(0.947627 -5.67088e-21 6.35336)
(1.07998 -6.71497e-21 6.35776)
(1.16606 7.82122e-21 6.3329)
(1.19566 -8.87593e-20 6.27025)
(1.17974 5.70061e-20 6.16419)
(1.12421 -1.03952e-19 6.00941)
(1.0372 1.01902e-19 5.80454)
(0.924156 -6.90046e-20 5.54522)
(0.791155 6.0585e-20 5.22726)
(0.643866 -1.56985e-19 4.84621)
(0.487851 7.34115e-20 4.39735)
(0.328559 8.36288e-20 3.87551)
(0.171013 -2.78563e-21 3.27441)
(0.0184191 0 2.58664)
(-0.122489 0 1.80114)
(-0.193707 1.51383e-19 0.909825)
(-0.152892 -4.96448e-20 -0.0482181)
(-0.128216 9.53361e-20 -0.950755)
(-0.0923349 8.83224e-20 -1.76181)
(-0.0363702 7.96427e-20 -2.46959)
(0.0206345 0 -3.10206)
(0.0665374 -5.40563e-20 -3.70729)
(0.0941522 -4.04838e-21 -4.32542)
(0.10087 -1.65094e-19 -4.96223)
(0.0592618 -1.08918e-21 -5.5855)
(0.0169661 0 -6.12604)
(-0.239342 0 -6.49902)
(0.443744 -7.2484e-20 5.68074)
(0.613036 3.31259e-20 5.84442)
(1.09207 5.1664e-21 6.00416)
(1.47411 2.6001e-20 6.11987)
(1.7317 1.26777e-20 6.19766)
(1.92867 0 6.23324)
(2.06235 9.03271e-21 6.22046)
(2.14425 -1.03986e-20 6.15467)
(2.1823 -1.03092e-19 6.03217)
(2.18465 -1.50248e-20 5.85186)
(2.15794 -1.74388e-19 5.61091)
(2.10843 -6.71778e-20 5.30584)
(2.04189 0 4.93276)
(1.96379 7.99821e-20 4.48744)
(1.87947 -8.58419e-20 3.96515)
(1.79404 0 3.36016)
(1.71073 0 2.666)
(1.63251 9.82374e-20 1.87524)
(1.60721 -9.97413e-20 0.983098)
(1.6384 -5.0181e-20 0.0250943)
(1.63317 -1.41706e-19 -0.919508)
(1.60904 -8.29129e-23 -1.75618)
(1.58876 0 -2.47341)
(1.57081 -8.34826e-21 -3.10523)
(1.55059 8.12686e-21 -3.70382)
(1.52365 0 -4.31088)
(1.48523 8.14467e-20 -4.93248)
(1.4114 0 -5.53399)
(1.3336 -3.01958e-24 -6.04287)
(1.0668 2.95358e-24 -6.37837)
(0.566698 0 4.89758)
(0.95141 3.63314e-20 5.28245)
(1.55171 -3.19033e-20 5.57669)
(2.03441 0 5.78331)
(2.39834 -6.05031e-21 5.9403)
(2.69125 0 6.0437)
(2.91689 2.17052e-21 6.08706)
(3.08745 1.02821e-20 6.06682)
(3.21228 0 5.98115)
(3.29934 -5.70535e-20 5.82955)
(3.35545 4.13013e-21 5.61056)
(3.38689 3.94501e-21 5.32175)
(3.39939 0 4.95988)
(3.39833 0 4.5212)
(3.38882 8.36864e-20 4.00141)
(3.3759 0 3.39537)
(3.36306 0 2.69677)
(3.35248 -1.4536e-19 1.89827)
(3.36523 2.92482e-19 1.00271)
(3.3892 -2.45567e-20 0.046707)
(3.35939 -7.41836e-22 -0.885082)
(3.28614 -1.07686e-19 -1.71715)
(3.19662 1.5503e-19 -2.4347)
(3.10654 4.11676e-21 -3.06744)
(3.02346 -2.2473e-21 -3.66556)
(2.94836 -9.94417e-22 -4.2695)
(2.87512 -5.67108e-22 -4.88308)
(2.77977 -1.35721e-22 -5.46844)
(2.6802 3.6345e-20 -5.95283)
(2.41162 1.25598e-20 -6.25789)
(9.98565 1.13839e-19 0.133906)
(9.97508 -7.2913e-21 0.259647)
(9.95475 1.50263e-20 0.384486)
(9.92003 -1.38746e-19 0.5122)
(9.87514 -6.35373e-20 0.644675)
(9.82256 -3.29395e-20 0.783437)
(9.76246 6.72208e-20 0.929947)
(9.69468 -3.47254e-20 1.08566)
(9.61936 1.43204e-19 1.25204)
(9.53674 4.5251e-22 1.43053)
(9.44708 7.64969e-20 1.6226)
(9.35058 0 1.8298)
(9.24742 -8.01758e-20 2.05379)
(9.13778 -8.23161e-20 2.29633)
(9.02183 -8.57647e-20 2.5594)
(8.89971 -8.79737e-20 2.84519)
(8.77151 0 3.15622)
(8.63728 -1.82464e-19 3.49545)
(8.49696 2.77561e-19 3.86642)
(8.3504 -9.54641e-20 4.27349)
(8.19731 1.91895e-19 4.72213)
(8.03729 -1.9248e-19 5.21953)
(7.86992 9.64145e-20 5.77551)
(7.695 -9.86203e-20 6.4039)
(7.51323 1.96544e-20 7.12509)
(7.32907 -2.40148e-20 7.97088)
(7.15549 -8.8086e-21 8.99521)
(7.10862 7.06619e-20 10.2906)
(7.52854 -3.40349e-20 12.019)
(7.91467 -7.59014e-20 14.6247)
(9.98603 3.44243e-21 0.1391)
(9.97701 -1.06067e-20 0.269708)
(9.95935 1.37887e-19 0.399315)
(9.9283 1.503e-19 0.531824)
(9.8881 4.65697e-20 0.669161)
(9.84124 0 0.812872)
(9.78797 -1.31057e-19 0.964437)
(9.7282 6.76468e-20 1.12531)
(9.66211 -2.08194e-19 1.29695)
(9.59008 7.10857e-20 1.4808)
(9.51247 -7.39151e-20 1.67833)
(9.42963 0 1.89108)
(9.34191 1.55101e-19 2.1207)
(9.2497 -7.92709e-20 2.36893)
(9.15346 2.45133e-19 2.63772)
(9.05366 4.33943e-22 2.92921)
(8.95084 -1.70118e-19 3.2459)
(8.84565 0 3.59067)
(8.73885 -3.21797e-22 3.96696)
(8.63145 -1.81727e-19 4.37898)
(8.52483 2.68665e-19 4.83197)
(8.42104 9.34785e-20 5.33264)
(8.32345 0 5.88995)
(8.238 1.80493e-19 6.51592)
(8.17577 -1.87845e-19 7.227)
(8.15951 1.09196e-20 8.04532)
(8.2278 -1.21117e-19 8.9992)
(8.45559 0 10.1151)
(9.06407 2.04234e-20 11.3163)
(9.56179 -2.95309e-20 12.1929)
(9.98644 -1.0314e-19 0.143849)
(9.97906 -1.02853e-20 0.278903)
(9.9642 -1.06198e-19 0.412833)
(9.937 0 0.549656)
(9.9017 0 0.691333)
(9.86083 0 0.839422)
(9.81468 6.36501e-20 0.995402)
(9.76322 6.53384e-20 1.16072)
(9.70673 4.77681e-22 1.3368)
(9.64567 -6.92944e-20 1.52506)
(9.58052 0 1.72697)
(9.51178 6.22813e-22 1.94402)
(9.43999 7.37721e-20 2.1778)
(9.36575 -7.66624e-20 2.43)
(9.28978 7.8707e-20 2.70245)
(9.21292 7.88913e-20 2.99719)
(9.13614 0 3.31656)
(9.06067 -8.32106e-20 3.66319)
(8.98803 1.68324e-19 4.0402)
(8.92024 8.39189e-20 4.45126)
(8.86007 -2.54976e-19 4.90083)
(8.81146 -1.67225e-19 5.39429)
(8.78031 1.27601e-19 5.93826)
(8.77575 -1.28884e-19 6.54058)
(8.81184 1.2434e-19 7.20975)
(8.91062 4.00381e-20 7.95264)
(9.09989 3.71447e-20 8.76763)
(9.3942 0 9.63658)
(9.89599 0 10.487)
(10.4838 0 11.0525)
(9.98687 2.07166e-19 0.148094)
(9.98121 0 0.287114)
(9.96927 6.84213e-21 0.424867)
(9.94607 -7.02909e-21 0.565461)
(9.91584 1.44999e-20 0.710884)
(9.88117 1.6336e-19 0.862696)
(9.84239 -6.08881e-20 1.02237)
(9.79952 3.12232e-20 1.19132)
(9.75291 6.43467e-20 1.37092)
(9.70311 -6.65309e-20 1.56257)
(9.65073 6.80381e-20 1.76767)
(9.59641 1.3969e-19 1.98766)
(9.54085 -1.43633e-19 2.22403)
(9.48487 -6.74143e-22 2.47834)
(9.42945 -7.39756e-20 2.75228)
(9.37572 -2.28897e-19 3.04771)
(9.32507 1.15614e-21 3.36665)
(9.2792 -8.20326e-22 3.7114)
(9.24024 -1.59544e-19 4.08452)
(9.21096 8.04258e-20 4.48892)
(9.19502 8.16906e-20 4.9279)
(9.19734 8.16759e-20 5.40508)