/*--------------------------------*- C++ -*----------------------------------*\
| =========                 |                                                 |
| \\      /  F ield         | OpenFOAM: The Open Source CFD Toolbox           |
|  \\    /   O peration     | Version:  dev                                   |
|   \\  /    A nd           | Web:      www.OpenFOAM.org                      |
|    \\/     M anipulation  |                                                 |
\*---------------------------------------------------------------------------*/
FoamFile
{
    version     2.0;
    format      ascii;
    class       surfaceScalarField;
    location    "3.44";
    object      phi;
}
// * * * * * * * * * * * * * * * * * * * * * * * * * * * * * * * * * * * * * //

dimensions      [0 3 -1 0 0 0 0];

internalField   nonuniform List<scalar> 
881
(
-0.0453634
0.0201685
0.0133168
0.0344485
0.0433497
0.0121655
0.0356072
-0.00923961
0.0289049
0.0232458
0.132799
0.066477
0.110663
0.05775
0.0894798
0.0500957
0.0694121
0.0433209
0.0372756
0.220655
0.0860861
0.201129
0.0772819
0.181954
0.0692777
0.163301
0.0619811
0.145352
0.055231
0.128125
0.048954
0.0432119
0.293286
0.101072
0.277739
0.092835
0.261947
0.0850762
0.246141
0.0777939
0.230446
0.0709319
0.214932
0.0644732
0.199682
0.0584673
0.184799
0.0529824
0.0480366
0.350495
0.111176
0.339405
0.103931
0.327612
0.0968745
0.315348
0.0900636
0.302768
0.0835182
0.289983
0.0772627
0.277104
0.0713508
0.264244
0.0658456
0.251498
0.0607841
0.0561676
0.393621
0.116689
0.386891
0.110667
0.379173
0.104598
0.370672
0.0985698
0.361549
0.0926458
0.351936
0.0868806
0.341952
0.0813385
0.331715
0.076086
0.321326
0.0711744
0.310861
0.0666325
0.300375
0.0624773
0.0587238
0.424823
0.118279
0.421969
0.113526
0.418012
0.108559
0.413113
0.103474
0.407411
0.0983519
0.401031
0.0932645
0.394089
0.088284
0.386695
0.0834815
0.378954
0.0789174
0.370949
0.0746369
0.362752
0.0706725
0.354424
0.0670488
0.0637771
0.446665
0.116806
0.446969
0.113227
0.446197
0.109334
0.444457
0.105219
0.441851
0.100961
0.43848
0.0966385
0.434443
0.0923242
0.429836
0.0880901
0.424752
0.0840012
0.419277
0.0801114
0.413485
0.0764636
0.407439
0.0730908
0.401197
0.0700146
0.3948
0.0672431
0.0647729
0.461743
0.113159
0.464402
0.11057
0.46611
0.10763
0.466921
0.104411
0.4669
0.100986
0.466116
0.0974258
0.464641
0.0938011
0.462552
0.0901801
0.459926
0.0866271
0.456837
0.0831991
0.453354
0.0799445
0.449539
0.0769026
0.445445
0.0741031
0.441117
0.071565
0.436582
0.0692986
0.0673087
0.472373
0.108116
0.476635
0.106311
0.480114
0.104154
0.482825
0.101702
0.484799
0.0990142
0.486075
0.0961524
0.486698
0.0931786
0.486724
0.0901549
0.48621
0.0871414
0.485213
0.0841939
0.483793
0.0813623
0.482002
0.0786893
0.479889
0.0762103
0.477495
0.0739523
0.47485
0.0719355
0.471972
0.0701761
0.468873
0.06869
0.0674969
0.480386
0.102271
0.48564
0.10106
0.490279
0.0995173
0.494296
0.0976867
0.497697
0.0956152
0.500497
0.0933534
0.502723
0.0909543
0.504405
0.0884721
0.505585
0.0859609
0.506304
0.0834726
0.506608
0.0810558
0.506538
0.0787542
0.506137
0.0766061
0.505438
0.0746438
0.50447
0.0728948
0.503252
0.0713832
0.501797
0.0701323
0.500113
0.0691668
0.0685103
0.487059
0.0960182
0.492871
0.0952485
0.498213
0.0941775
0.503065
0.0928363
0.507419
0.0912622
0.511277
0.0894963
0.514648
0.087583
0.517551
0.0855686
0.52001
0.0835008
0.522053
0.0814267
0.523714
0.079392
0.525024
0.0774392
0.526016
0.0756078
0.526719
0.0739332
0.527157
0.0724475
0.527348
0.0711806
0.527306
0.070162
0.527036
0.0694219
0.526539
0.0689911
0.0688989
0.493182
0.0895882
0.499282
0.0891489
0.505023
0.0884382
0.51038
0.0874796
0.515341
0.0863021
0.519898
0.0849391
0.524053
0.0834276
0.527813
0.0818071
0.531193
0.0801191
0.534211
0.0784059
0.536889
0.0767093
0.539253
0.0750702
0.541327
0.0735275
0.543134
0.072118
0.544695
0.0708768
0.546026
0.0698378
0.54714
0.0690349
0.548043
0.0685039
0.548735
0.0682828
0.549202
0.068413
0.0690402
0.499193
0.0831033
0.505429
0.0829128
0.511388
0.0824799
0.517046
0.0818218
0.522387
0.0809613
0.5274
0.0799254
0.532081
0.078745
0.536433
0.0774536
0.540462
0.0760873
0.544181
0.0746838
0.547604
0.0732812
0.550751
0.0719179
0.553639
0.0706316
0.55629
0.0694593
0.558719
0.0684375
0.560943
0.0676024
0.562972
0.0669916
0.564816
0.0666449
0.566475
0.0666066
0.567942
0.0669267
0.0677653
0.505315
0.0766215
0.51161
0.0766185
0.517689
0.0764005
0.52353
0.0759798
0.529117
0.0753742
0.534435
0.0746054
0.53948
0.0736989
0.544248
0.0726834
0.548742
0.0715899
0.55297
0.0704519
0.556942
0.0693039
0.560672
0.0681816
0.564175
0.0671209
0.567467
0.0661581
0.570564
0.0653298
0.57348
0.0646738
0.576228
0.0642295
0.578818
0.0640397
0.581254
0.0641523
0.583538
0.0646228
0.0656168
0.511665
0.0701678
0.517979
0.0703037
0.524128
0.0702506
0.530089
0.070017
0.535846
0.0696163
0.541384
0.0690659
0.546693
0.0683869
0.551771
0.0676032
0.556615
0.0667418
0.56123
0.065832
0.565623
0.064905
0.569805
0.0639934
0.573786
0.063131
0.577582
0.0623526
0.581207
0.0616945
0.584673
0.0611943
0.587996
0.0608923
0.591187
0.0608324
0.594257
0.0610642
0.597214
0.0616451
0.0627386
0.518311
0.0637515
0.524628
0.0639861
0.530821
0.0640563
0.536869
0.0639674
0.542753
0.0637296
0.548461
0.0633565
0.553979
0.0628652
0.559303
0.062276
0.564429
0.0616117
0.569357
0.0608979
0.574094
0.0601624
0.578645
0.0594348
0.583021
0.0587464
0.587233
0.0581303
0.591295
0.057621
0.595221
0.0572554
0.599024
0.0570734
0.602721
0.0571185
0.606327
0.0574401
0.609856
0.0580946
0.0592378
0.525315
0.0573734
0.531627
0.0576727
0.537851
0.0578306
0.543966
0.05785
0.549954
0.0577384
0.555801
0.0575066
0.561495
0.0571682
0.567027
0.0567399
0.572392
0.0562413
0.57759
0.0556944
0.582622
0.0551236
0.587493
0.0545555
0.592211
0.0540188
0.596787
0.0535438
0.601233
0.0531634
0.605561
0.0529127
0.609789
0.0528298
0.613934
0.0529568
0.618013
0.0533414
0.622049
0.054037
0.0551879
0.532736
0.0510295
0.539042
0.0513645
0.545291
0.0515792
0.551463
0.051675
0.557541
0.0516575
0.563509
0.0515347
0.569355
0.0513176
0.575071
0.05102
0.580648
0.0506581
0.586085
0.0502509
0.591382
0.0498196
0.596541
0.0493877
0.601569
0.0489808
0.606475
0.0486268
0.61127
0.0483557
0.615968
0.0482004
0.620585
0.0481965
0.62514
0.0483837
0.629655
0.0488063
0.634156
0.0495139
0.0506372
0.54064
0.044712
0.546944
0.0450577
0.553217
0.0453026
0.559442
0.0454471
0.565601
0.045495
0.571679
0.0454526
0.577663
0.0453284
0.583544
0.0451336
0.589315
0.0448817
0.59497
0.0445888
0.600508
0.0442729
0.605932
0.0439546
0.611246
0.0436563
0.616458
0.0434031
0.621579
0.0432219
0.626622
0.0431426
0.631603
0.0431979
0.636544
0.0434239
0.641469
0.0438612
0.646405
0.0445547
0.0456207
0.5491
0.0384093
0.55541
0.0387447
0.561712
0.038997
0.567989
0.0391661
0.574225
0.0392545
0.580406
0.0392669
0.58652
0.03921
0.592554
0.0390929
0.598503
0.0389266
0.60436
0.0387242
0.610123
0.0385012
0.615793
0.0382748
0.621374
0.0380647
0.626872
0.0378924
0.632298
0.037782
0.637665
0.0377595
0.642991
0.0378543
0.648297
0.0380986
0.653609
0.0385283
0.658957
0.039183
0.0401637
0.558198
0.0321071
0.564525
0.0324142
0.570863
0.0326545
0.577198
0.0328274
0.583513
0.0329347
0.589795
0.0329798
0.596031
0.032968
0.602212
0.0329061
0.608328
0.0328032
0.614374
0.0326699
0.620347
0.0325188
0.626247
0.0323644
0.632078
0.032223
0.637844
0.0321129
0.643557
0.0320545
0.64923
0.0320705
0.65488
0.0321858
0.66053
0.0324285
0.666207
0.0328295
0.671942
0.0334232
0.0342966
0.568022
0.0257875
0.574381
0.0260514
0.580768
0.0262634
0.587168
0.0264228
0.593567
0.0265307
0.599952
0.0265896
0.60631
0.0266034
0.612632
0.0265775
0.618909
0.0265187
0.625134
0.0264355
0.631306
0.0263377
0.637422
0.026237
0.643487
0.0261466
0.649505
0.0260813
0.655486
0.0260578
0.661445
0.0260948
0.667399
0.0262129
0.673372
0.0264354
0.679391
0.026788
0.68549
0.0272988
0.0280377
0.578679
0.0194297
0.585088
0.0196383
0.591538
0.0198087
0.598016
0.0199403
0.604507
0.0200338
0.611
0.0200909
0.617483
0.0201144
0.623945
0.0201082
0.630378
0.0200774
0.636776
0.0200281
0.643136
0.0199679
0.649457
0.0199053
0.65574
0.0198505
0.661993
0.0198147
0.668224
0.0198109
0.674448
0.0198533
0.680684
0.0199581
0.686954
0.0201436
0.693289
0.0204303
0.69972
0.0208411
0.021434
0.59027
0.0130093
0.596752
0.0131528
0.603284
0.0132712
0.609856
0.0133639
0.616453
0.0134312
0.623063
0.0134743
0.629676
0.013495
0.636281
0.0134959
0.642869
0.0134803
0.649436
0.0134522
0.655977
0.0134168
0.662491
0.0133799
0.66898
0.0133482
0.675451
0.0133295
0.681913
0.0133326
0.688381
0.0133674
0.694874
0.0134451
0.701417
0.0135788
0.70804
0.0137834
0.714779
0.0140756
0.0144946
0.602912
0.00650043
0.609489
0.00657212
0.616124
0.00663106
0.622806
0.00667694
0.629522
0.00670996
0.636259
0.00673067
0.643007
0.00673999
0.649757
0.00673919
0.656498
0.00672997
0.663227
0.00671444
0.669938
0.00669515
0.676631
0.00667511
0.683308
0.00665779
0.689976
0.00664721
0.696644
0.00664791
0.703328
0.00666513
0.710048
0.00670496
0.716829
0.00677478
0.723704
0.00688428
0.730704
0.00704824
0.0073124
0.606103
0.612671
0.619298
0.62597
0.632674
0.639398
0.646132
0.652863
0.659584
0.666289
0.672974
0.679637
0.686281
0.692913
0.699544
0.706191
0.712875
0.719627
0.726486
0.733506
)
;

boundaryField
{
    inlet
    {
        type            calculated;
        value           nonuniform 0();
    }
    outlet
    {
        type            calculated;
        value           nonuniform List<scalar> 
15
(
0.549409
0.569196
0.585665
0.60007
0.613334
0.626075
0.638682
0.651396
0.664388
0.677783
0.691721
0.706296
0.721689
0.737857
0.740789
)
;
    }
    flap
    {
        type            calculated;
        value           nonuniform 0();
    }
    upperWall
    {
        type            calculated;
        value           nonuniform List<scalar> 
21
(
0
0
0
0
0
0
0
0
0
0
0
-9.54119e-15
0
0
0
0
0
0
0
0
5.82685e-15
)
;
    }
    lowerWall
    {
        type            calculated;
        value           nonuniform 0();
    }
    frontAndBack
    {
        type            empty;
        value           nonuniform 0();
    }
    procBoundary2to1
    {
        type            processor;
        value           nonuniform List<scalar> 
17
(
-0.474539
-0.480804
-0.48675
-0.492707
-0.498833
-0.505211
-0.511896
-0.518939
-0.526394
-0.534325
-0.5428
-0.551899
-0.561706
-0.572324
-0.583853
-0.596407
-0.599606
)
;
    }
    procBoundary2to4
    {
        type            processor;
        value           nonuniform List<scalar> 
11
(
0.0386073
-0.0576226
-0.155919
-0.240257
-0.308266
-0.360593
-0.39913
-0.426408
-0.445188
-0.458092
-0.467328
)
;
    }
    procBoundary2to5
    {
        type            processor;
        value           nonuniform List<scalar> 
34
(
-0.0134052
-0.0116393
-0.0470334
-0.00749209
-0.00732384
-0.0251543
-0.0191565
0.0512998
-0.0317212
-0.0267238
0.111642
-0.0380964
-0.0336031
0.170367
-0.0435891
0.23892
-0.0519925
-0.0482693
0.289918
-0.055375
0.346017
-0.0608525
-0.0582561
0.388275
-0.0625957
0.431859
-0.0656034
-0.0641995
0.465562
-0.0666161
0.498203
-0.0681792
0.525801
-0.0692681
)
;
    }
}


// ************************************************************************* //
