/*--------------------------------*- C++ -*----------------------------------*\
| =========                 |                                                 |
| \\      /  F ield         | OpenFOAM: The Open Source CFD Toolbox           |
|  \\    /   O peration     | Version:  dev                                   |
|   \\  /    A nd           | Web:      www.OpenFOAM.org                      |
|    \\/     M anipulation  |                                                 |
\*---------------------------------------------------------------------------*/
FoamFile
{
    version     2.0;
    format      ascii;
    class       surfaceScalarField;
    location    "3.6";
    object      meshPhi;
}
// * * * * * * * * * * * * * * * * * * * * * * * * * * * * * * * * * * * * * //

dimensions      [0 3 -1 0 0 0 0];

internalField   nonuniform List<scalar> 
5457
(
-2.06763e-06
1.00446e-08
-3.75177e-06
2.82765e-08
-4.86938e-06
4.29709e-08
-5.37099e-06
5.37328e-08
-5.2674e-06
6.03568e-08
-4.61536e-06
6.25434e-08
-3.50695e-06
5.99632e-08
-2.05946e-06
5.2358e-08
-4.05314e-07
3.96579e-08
1.31809e-06
2.20993e-08
2.97843e-06
3.2122e-10
4.45813e-06
-2.45829e-08
5.66271e-06
-5.10813e-08
6.5273e-06
-7.73013e-08
7.02023e-06
-1.01208e-07
7.14351e-06
-1.20842e-07
6.92981e-06
-1.34585e-07
6.43649e-06
-1.41394e-07
5.73758e-06
-1.40971e-07
4.91517e-06
-1.33826e-07
3.98347e-06
-1.19616e-07
2.9997e-06
-9.85825e-08
2.10789e-06
-7.48289e-08
1.37822e-06
-5.27678e-08
8.22412e-07
-3.42677e-08
4.33493e-07
-2.00323e-08
1.90263e-07
-1.0144e-08
6.18903e-08
-4.15288e-09
1.22326e-08
-1.21268e-09
-2.07877e-10
-2.09762e-06
2.01389e-08
-3.80519e-06
5.67025e-08
-4.93985e-06
8.62026e-08
-5.45333e-06
1.07861e-07
-5.3565e-06
1.21272e-07
-4.70619e-06
1.25832e-07
-3.59466e-06
1.20871e-07
-2.13953e-06
1.05858e-07
-4.738e-07
8.06307e-08
1.26427e-06
4.56372e-08
2.94129e-06
2.13124e-09
4.43836e-06
-4.77194e-08
5.65972e-06
-1.0086e-07
6.53922e-06
-1.5354e-07
7.04423e-06
-2.01668e-07
7.1761e-06
-2.41294e-07
6.96726e-06
-2.69137e-07
6.47517e-06
-2.83066e-07
5.77395e-06
-2.82438e-07
4.94475e-06
-2.6821e-07
4.01009e-06
-2.39831e-07
3.02322e-06
-1.97814e-07
2.12315e-06
-1.50143e-07
1.3876e-06
-1.05767e-07
8.27568e-07
-6.86036e-08
4.35864e-07
-4.00345e-08
1.91075e-07
-2.02197e-08
6.20722e-08
-8.24922e-09
1.22744e-08
-2.40588e-09
-4.0168e-10
-2.133e-06
3.02897e-08
-3.86962e-06
8.52983e-08
-5.02725e-06
1.2973e-07
-5.55859e-06
1.62438e-07
-5.47468e-06
1.82823e-07
-4.83235e-06
1.89982e-07
-3.72387e-06
1.82904e-07
-2.26693e-06
1.60775e-07
-5.94732e-07
1.23327e-07
1.154e-06
7.11972e-08
2.84515e-06
6.22661e-09
4.35887e-06
-6.83721e-08
5.59822e-06
-1.48048e-07
6.49584e-06
-2.27191e-07
7.0179e-06
-2.99661e-07
7.16476e-06
-3.59504e-07
6.96808e-06
-4.01755e-07
6.48485e-06
-4.23158e-07
5.78897e-06
-4.22673e-07
4.96159e-06
-4.01649e-07
4.02883e-06
-3.59387e-07
3.0408e-06
-2.9665e-07
2.13528e-06
-2.25134e-07
1.39531e-06
-1.58415e-07
8.31814e-07
-1.02599e-07
4.37707e-07
-5.97396e-08
1.91573e-07
-3.00725e-08
6.2106e-08
-1.22178e-08
1.22842e-08
-3.55836e-09
-5.88611e-10
-2.17128e-06
4.04976e-08
-3.94126e-06
1.14067e-07
-5.12706e-06
1.73559e-07
-5.682e-06
2.17476e-07
-5.61736e-06
2.45042e-07
-4.98999e-06
2.55064e-07
-3.89199e-06
2.462e-07
-2.44077e-06
2.17357e-07
-7.69335e-07
1.68156e-07
9.8367e-07
9.94069e-08
2.68395e-06
1.35081e-08
4.21121e-06
-8.53244e-08
5.46773e-06
-1.91092e-07
6.38512e-06
-2.96375e-07
6.92831e-06
-3.93024e-07
7.09635e-06
-4.73111e-07
6.91965e-06
-5.29985e-07
6.45413e-06
-5.59244e-07
5.77301e-06
-5.59413e-07
4.95757e-06
-5.32185e-07
4.03257e-06
-4.76655e-07
3.04691e-06
-3.9372e-07
2.14066e-06
-2.98731e-07
1.39911e-06
-2.09961e-07
8.33905e-07
-1.35758e-07
4.38429e-07
-7.88525e-08
1.91549e-07
-3.9554e-08
6.19486e-08
-1.60015e-08
1.22516e-08
-4.65225e-09
-7.65638e-10
-2.2194e-06
5.07715e-08
-4.03215e-06
1.43037e-07
-5.2546e-06
2.17746e-07
-5.84069e-06
2.73073e-07
-5.80212e-06
3.08083e-07
-5.19579e-06
3.21315e-07
-4.11356e-06
3.11114e-07
-2.67247e-06
2.76117e-07
-1.00512e-06
2.15835e-07
7.50108e-07
1.31231e-07
2.45895e-06
2.52245e-08
4.00078e-06
-9.70198e-08
5.27717e-06
-2.28127e-07
6.21859e-06
-3.58943e-07
6.78858e-06
-4.79382e-07
6.98453e-06
-5.7959e-07
6.83523e-06
-6.51258e-07
6.39508e-06
-6.88824e-07
5.73616e-06
-6.90334e-07
4.93908e-06
-6.57765e-07
4.02642e-06
-5.8989e-07
3.04635e-06
-4.87595e-07
2.14183e-06
-3.69835e-07
1.40035e-06
-2.59625e-07
8.34496e-07
-1.67578e-07
4.3833e-07
-9.70886e-08
1.9114e-07
-4.85326e-08
6.16574e-08
-1.95541e-08
1.21883e-08
-5.67313e-09
-9.30725e-10
-2.27778e-06
6.1121e-08
-4.14291e-06
1.72239e-07
-5.41056e-06
2.62351e-07
-6.0355e-06
3.29329e-07
-6.02996e-06
3.72109e-07
-5.45097e-06
3.88989e-07
-4.39015e-06
3.78026e-07
-2.96404e-06
3.37609e-07
-1.30463e-06
2.67138e-07
4.50189e-07
1.67719e-07
2.16639e-06
4.27481e-08
3.72319e-06
-1.01731e-07
5.02153e-06
-2.57058e-07
5.99076e-06
-4.12451e-07
6.59284e-06
-5.55988e-07
6.82328e-06
-6.75978e-07
6.70882e-06
-7.62499e-07
6.30192e-06
-8.08841e-07
5.67301e-06
-8.12528e-07
4.90145e-06
-7.75741e-07
4.00676e-06
-6.96796e-07
3.03624e-06
-5.76401e-07
2.13648e-06
-4.3702e-07
1.3974e-06
-3.06412e-07
8.3259e-07
-1.97433e-07
4.36922e-07
-1.1411e-07
1.90173e-07
-5.68595e-08
6.11971e-08
-2.28266e-08
1.20883e-08
-6.60775e-09
-1.08128e-09
-2.34684e-06
7.15581e-08
-4.27412e-06
2.01711e-07
-5.59562e-06
3.07444e-07
-6.26718e-06
3.86361e-07
-6.3018e-06
4.37304e-07
-5.75674e-06
4.58367e-07
-4.72336e-06
4.47353e-07
-3.31756e-06
4.02429e-07
-1.67056e-06
3.22903e-07
8.05088e-08
2.10003e-07
1.8021e-06
6.75623e-08
3.37347e-06
-9.758e-08
4.69509e-06
-2.7559e-07
5.69523e-06
-4.54192e-07
6.33417e-06
-6.19769e-07
6.60532e-06
-7.5891e-07
6.53303e-06
-8.6017e-07
6.16738e-06
-9.15713e-07
5.57662e-06
-9.2252e-07
4.83839e-06
-8.82881e-07
3.96827e-06
-7.94527e-07
3.01232e-06
-6.57807e-07
2.12135e-06
-4.98536e-07
1.388e-06
-3.49118e-07
8.26821e-07
-2.24582e-07
4.335e-07
-1.29519e-07
1.88367e-07
-6.4362e-08
6.04876e-08
-2.57616e-08
1.19362e-08
-7.44179e-09
-1.21504e-09
-2.42698e-06
8.20974e-08
-4.42639e-06
2.315e-07
-5.81048e-06
3.5311e-07
-6.5365e-06
4.44306e-07
-6.61851e-06
5.03877e-07
-6.1142e-06
5.29757e-07
-5.11465e-06
5.19542e-07
-3.73503e-06
4.71217e-07
-2.10556e-06
3.84012e-07
-3.6236e-07
2.59276e-07
1.36178e-06
1.01226e-07
2.94644e-06
-8.25886e-08
4.29177e-06
-2.81294e-07
5.32506e-06
-4.81282e-07
6.0049e-06
-6.67415e-07
6.32242e-06
-8.24726e-07
6.2993e-06
-9.40366e-07
5.9828e-06
-1.00544e-06
5.43852e-06
-1.01636e-06
4.74187e-06
-9.75448e-07
3.90387e-06
-8.79739e-07
2.96892e-06
-7.29067e-07
2.09219e-06
-5.52331e-07
1.36922e-06
-3.86345e-07
8.15364e-07
-2.48164e-07
4.27088e-07
-1.42854e-07
1.85294e-07
-7.08332e-08
5.93917e-08
-2.82869e-08
1.1705e-08
-8.1571e-09
-1.32965e-09
-2.51864e-06
9.27576e-08
-4.60037e-06
2.61662e-07
-6.05577e-06
3.99452e-07
-6.84404e-06
5.03324e-07
-6.98075e-06
5.72063e-07
-6.5242e-06
6.03497e-07
-5.56524e-06
5.95071e-07
-4.21818e-06
5.44633e-07
-2.61202e-06
4.5137e-07
-8.81596e-07
3.16744e-07
8.41351e-07
1.45315e-07
2.43701e-06
-5.47567e-08
3.80546e-06
-2.71705e-07
4.87315e-06
-4.90778e-07
5.59703e-06
-6.95526e-07
5.96583e-06
-8.6963e-07
5.99831e-06
-9.98999e-07
5.73855e-06
-1.07377e-06
5.24904e-06
-1.0898e-06
4.60248e-06
-1.04935e-06
3.80507e-06
-9.48722e-07
2.89916e-06
-7.87119e-07
2.04388e-06
-5.96125e-07
1.33746e-06
-4.16538e-07
7.95933e-07
-2.67215e-07
4.16401e-07
-1.53586e-07
1.80354e-07
-7.6025e-08
5.7702e-08
-3.03096e-08
1.13516e-08
-8.72913e-09
-1.42105e-09
-2.62232e-06
1.03561e-07
-4.79674e-06
2.92265e-07
-6.33205e-06
4.46587e-07
-7.19022e-06
5.63593e-07
-7.38889e-06
6.42116e-07
-6.98721e-06
6.79941e-07
-6.07588e-06
6.74422e-07
-4.76821e-06
6.23336e-07
-3.19178e-06
5.2586e-07
-1.47984e-06
3.83577e-07
2.37256e-07
2.01345e-07
1.8406e-06
-1.21662e-08
3.2305e-06
-2.44456e-07
4.33275e-06
-4.79841e-07
5.10275e-06
-7.00803e-07
5.5268e-06
-8.89906e-07
5.62057e-06
-1.03202e-06
5.42464e-06
-1.11646e-06
4.99797e-06
-1.13855e-06
4.41008e-06
-1.1004e-06
3.66257e-06
-9.9762e-07
2.79544e-06
-8.28756e-07
1.97064e-06
-6.27524e-07
1.28863e-06
-4.38054e-07
7.65813e-07
-2.80696e-07
3.99832e-07
-1.61123e-07
1.72745e-07
-7.96444e-08
5.51185e-08
-3.17117e-08
1.08065e-08
-9.12386e-09
-1.48325e-09
-2.73864e-06
1.14532e-07
-5.01626e-06
3.23386e-07
-6.63977e-06
4.9465e-07
-7.57517e-06
6.25308e-07
-7.84286e-06
7.14303e-07
-7.50317e-06
7.59442e-07
-6.64669e-06
7.58067e-07
-5.38564e-06
7.07946e-07
-3.84591e-06
6.08297e-07
-2.15888e-06
4.60836e-07
-4.53175e-07
2.70677e-07
1.15355e-06
4.69e-08
2.56213e-06
-1.97429e-07
3.69798e-06
-4.45924e-07
4.51507e-06
-6.80263e-07
4.99733e-06
-8.82172e-07
5.15719e-06
-1.03573e-06
5.03152e-06
-1.12957e-06
4.6754e-06
-1.15856e-06
4.15473e-06
-1.12463e-06
3.46712e-06
-1.02275e-06
2.65005e-06
-8.50885e-07
1.86653e-06
-6.44195e-07
1.21829e-06
-4.49263e-07
7.21902e-07
-2.87543e-07
3.75402e-07
-1.64827e-07
1.61386e-07
-8.13536e-08
5.11932e-08
-3.23442e-08
9.95079e-09
-9.29231e-09
-1.50632e-09
-2.86842e-06
1.25698e-07
-5.25986e-06
3.55108e-07
-6.97923e-06
5.43782e-07
-7.99865e-06
6.88673e-07
-8.34206e-06
7.88891e-07
-8.07135e-06
8.4234e-07
-7.27701e-06
8.46433e-07
-6.07008e-06
7.99007e-07
-4.57448e-06
6.99375e-07
-2.91941e-06
5.49401e-07
-1.23141e-06
3.54424e-07
3.73472e-07
1.23835e-07
1.79695e-06
-1.2891e-07
2.96432e-06
-3.8696e-07
3.82838e-06
-6.31477e-07
4.37075e-06
-8.43652e-07
4.60061e-06
-1.00704e-06
4.55094e-06
-1.1098e-06
4.27265e-06
-1.14645e-06
3.82764e-06
-1.11864e-06
3.21041e-06
-1.02093e-06
2.45584e-06
-8.50814e-07
1.72573e-06
-6.44068e-07
1.12183e-06
-4.48673e-07
6.60682e-07
-2.86726e-07
3.40614e-07
-1.64033e-07
1.44735e-07
-8.07622e-08
4.51943e-08
-3.20113e-08
8.55276e-09
-9.15814e-09
-1.47309e-09
-3.01285e-06
1.3709e-07
-5.52875e-06
3.87523e-07
-7.35054e-06
5.94136e-07
-8.45995e-06
7.53894e-07
-8.88528e-06
8.66134e-07
-8.69021e-06
9.28939e-07
-7.96525e-06
9.39881e-07
-6.82008e-06
8.9695e-07
-5.37639e-06
7.99616e-07
-3.7608e-06
6.49909e-07
-2.09747e-06
4.53369e-07
-5.00444e-07
2.19598e-07
9.33216e-07
-3.77264e-08
2.12905e-06
-3.01535e-07
3.03891e-06
-5.52772e-07
3.64228e-06
-7.7241e-07
3.94516e-06
-9.43782e-07
3.97653e-06
-1.05482e-06
3.78292e-06
-1.09976e-06
3.42188e-06
-1.08e-06
2.88572e-06
-9.89868e-07
2.2067e-06
-8.26531e-07
1.54282e-06
-6.25523e-07
9.94486e-07
-4.35022e-07
5.78057e-07
-2.77287e-07
2.92149e-07
-1.58041e-07
1.20412e-07
-7.73932e-08
3.57763e-08
-3.04288e-08
6.09041e-09
-8.58468e-09
-1.34691e-09
-3.17366e-06
1.48737e-07
-5.82468e-06
4.20727e-07
-7.75354e-06
6.45872e-07
-8.95787e-06
8.21176e-07
-9.47056e-06
9.46268e-07
-9.35737e-06
1.01949e-06
-8.70881e-06
1.03868e-06
-7.63306e-06
1.00207e-06
-6.24923e-06
9.09331e-07
-4.68101e-06
7.62702e-07
-3.04979e-06
5.6789e-07
-1.46728e-06
3.34627e-07
-2.89201e-08
7.66427e-08
1.19143e-06
-1.89018e-07
2.14499e-06
-4.43382e-07
2.80933e-06
-6.67533e-07
3.18739e-06
-8.44895e-07
3.30416e-06
-9.63415e-07
3.20164e-06
-1.01722e-06
2.93268e-06
-1.00742e-06
2.48822e-06
-9.28318e-07
1.89768e-06
-7.76891e-07
1.31278e-06
-5.875e-07
8.31177e-07
-4.0733e-07
4.69024e-07
-2.58328e-07
2.25323e-07
-1.46061e-07
8.44467e-08
-7.05989e-08
2.01951e-08
-2.71228e-08
1.23693e-09
-7.28661e-09
-1.03344e-09
-3.33791e-06
1.60759e-07
-6.14118e-06
4.55096e-07
-8.19094e-06
6.99642e-07
-9.49326e-06
8.91388e-07
-1.00984e-05
1.0303e-06
-1.00731e-05
1.11511e-06
-9.5081e-06
1.14401e-06
-8.50977e-06
1.11559e-06
-7.19422e-06
1.02979e-06
-5.68172e-06
8.89064e-07
-4.09063e-06
6.99275e-07
-2.52993e-06
4.70209e-07
-1.09304e-06
2.15488e-07
1.47187e-07
-4.81032e-08
1.14166e-06
-3.01973e-07
1.86634e-06
-5.27646e-07
2.32124e-06
-7.08957e-07
2.52744e-06
-8.34143e-07
2.5223e-06
-8.97387e-07
2.35373e-06
-8.99527e-07
2.01169e-06
-8.35038e-07
1.52226e-06
-7.00672e-07
1.0286e-06
-5.28707e-07
6.24408e-07
-3.64223e-07
3.25676e-07
-2.28434e-07
1.31966e-07
-1.26695e-07
2.86655e-08
-5.90627e-08
-9.15032e-09
-2.08931e-08
-1.19134e-08
-4.19522e-09
-4.81163e-11
-2.18191e-08
7.54861e-11
-1.11688e-07
4.4306e-10
-3.53804e-07
1.88983e-09
-8.27885e-07
5.16765e-09
-1.60222e-06
1.11869e-08
-2.72569e-06
2.09107e-08
-4.22179e-06
3.53338e-08
-6.08549e-06
5.54812e-08
-8.28361e-06
8.24504e-08
-1.06001e-05
1.14896e-07
-1.2839e-05
1.49267e-07
-1.50031e-05
1.85367e-07
-1.70533e-05
2.2533e-07
-1.89023e-05
2.69644e-07
-2.04729e-05
3.1767e-07
-2.17031e-05
3.68337e-07
-2.25484e-05
4.20157e-07
-2.29832e-05
4.71257e-07
-2.29994e-05
5.19427e-07
-2.26042e-05
5.62178e-07
-2.18161e-05
5.96811e-07
-2.066e-05
6.20489e-07
-1.91623e-05
6.30305e-07
-1.73462e-05
6.2335e-07
-1.52275e-05
5.96772e-07
-1.28121e-05
5.4785e-07
-1.00947e-05
4.74073e-07
-7.05773e-06
3.73235e-07
-3.67168e-06
2.43534e-07
8.61822e-08
-2.21151e-08
1.37986e-10
-1.13279e-07
9.05627e-10
-3.58205e-07
3.73283e-09
-8.36732e-07
1.01387e-08
-1.61727e-06
2.18907e-08
-2.74862e-06
4.08683e-08
-4.25387e-06
6.90285e-08
-6.12674e-06
1.08391e-07
-8.32973e-06
1.61057e-07
-1.06608e-05
2.24754e-07
-1.29137e-05
2.92901e-07
-1.50785e-05
3.64803e-07
-1.71292e-05
4.44605e-07
-1.8977e-05
5.33413e-07
-2.05443e-05
6.2983e-07
-2.17693e-05
7.31637e-07
-2.2608e-05
8.35796e-07
-2.30351e-05
9.38512e-07
-2.30432e-05
1.03532e-06
-2.264e-05
1.12123e-06
-2.18446e-05
1.19083e-06
-2.06822e-05
1.23846e-06
-1.91794e-05
1.25831e-06
-1.73592e-05
1.24459e-06
-1.52374e-05
1.19162e-06
-1.28197e-05
1.09397e-06
-1.01005e-05
9.46641e-07
-7.06201e-06
7.45244e-07
-3.67421e-06
4.86204e-07
1.72033e-07
-2.24351e-08
2.06445e-10
-1.14957e-07
1.36949e-09
-3.625e-07
5.42309e-09
-8.44635e-07
1.45884e-08
-1.62967e-06
3.13882e-08
-2.76631e-06
5.85319e-08
-4.27742e-06
9.88778e-08
-6.15611e-06
1.55393e-07
-8.36382e-06
2.31105e-07
-1.07056e-05
3.23414e-07
-1.29674e-05
4.23707e-07
-1.51325e-05
5.30746e-07
-1.71835e-05
6.50243e-07
-1.90309e-05
7.83828e-07
-2.05968e-05
9.29243e-07
-2.18195e-05
1.083e-06
-2.26551e-05
1.2404e-06
-2.30788e-05
1.39563e-06
-2.30834e-05
1.54192e-06
-2.2677e-05
1.6717e-06
-2.18787e-05
1.77688e-06
-2.07139e-05
1.84897e-06
-1.92089e-05
1.87932e-06
-1.73867e-05
1.8593e-06
-1.52626e-05
1.78044e-06
-1.28422e-05
1.63469e-06
-1.01192e-05
1.41458e-06
-7.0759e-06
1.11359e-06
-3.68187e-06
7.26439e-07
2.57004e-07
-2.27146e-08
2.72973e-10
-1.16344e-07
1.79268e-09
-3.65712e-07
6.84965e-09
-8.49763e-07
1.824e-08
-1.63646e-06
3.91065e-08
-2.77444e-06
7.28774e-08
-4.28662e-06
1.23234e-07
-6.16637e-06
1.94042e-07
-8.37639e-06
2.89235e-07
-1.0722e-05
4.06522e-07
-1.29863e-05
5.36525e-07
-1.51524e-05
6.77737e-07
-1.72045e-05
8.36794e-07
-1.90533e-05
1.01552e-06
-2.06209e-05
1.21068e-06
-2.18454e-05
1.41739e-06
-2.26829e-05
1.62916e-06
-2.31088e-05
1.83802e-06
-2.31158e-05
2.03479e-06
-2.27121e-05
2.20933e-06
-2.19165e-05
2.35083e-06
-2.0754e-05
2.44802e-06
-1.92506e-05
2.48948e-06
-1.74288e-05
2.46379e-06
-1.53034e-05
2.35981e-06
-1.28795e-05
2.1669e-06
-1.01509e-05
1.87524e-06
-7.09937e-06
1.47623e-06
-3.6946e-06
9.62937e-07
3.40647e-07
-2.30119e-08
3.29603e-10
-1.17725e-07
2.13372e-09
-3.68816e-07
7.9267e-09
-8.54497e-07
2.09259e-08
-1.64224e-06
4.47481e-08
-2.78054e-06
8.34219e-08
-4.29247e-06
1.41369e-07
-6.17177e-06
2.23309e-07
-8.38186e-06
3.34067e-07
-1.07289e-05
4.7231e-07
-1.29952e-05
6.29267e-07
-1.51632e-05
8.03579e-07
-1.72178e-05
1.00207e-06
-1.90695e-05
1.22632e-06
-2.06404e-05
1.47201e-06
-2.18687e-05
1.73272e-06
-2.27105e-05
1.99999e-06
-2.31409e-05
2.26358e-06
-2.3153e-05
2.51184e-06
-2.27544e-05
2.73198e-06
-2.19637e-05
2.91049e-06
-2.08055e-05
3.03339e-06
-1.93051e-05
3.08654e-06
-1.74842e-05
3.05585e-06
-1.53574e-05
2.92759e-06
-1.29292e-05
2.68865e-06
-1.0193e-05
2.32693e-06
-7.13046e-06
1.83182e-06
-3.7114e-06
1.19484e-06
4.22662e-07
-2.33286e-08
3.70539e-10
-1.19117e-07
2.36933e-09
-3.71961e-07
8.6219e-09
-8.59327e-07
2.26156e-08
-1.64805e-06
4.83035e-08
-2.78633e-06
9.01995e-08
-4.29725e-06
1.53382e-07
-6.17486e-06
2.43378e-07
-8.38302e-06
3.65897e-07
-1.07295e-05
5.21161e-07
-1.29971e-05
7.02336e-07
-1.51674e-05
9.08659e-07
-1.7225e-05
1.14644e-06
-1.90805e-05
1.4165e-06
-2.06561e-05
1.71338e-06
-2.18896e-05
2.02893e-06
-2.27375e-05
2.35262e-06
-2.31748e-05
2.67182e-06
-2.31941e-05
2.97229e-06
-2.2803e-05
3.23862e-06
-2.20194e-05
3.45461e-06
-2.08673e-05
3.60362e-06
-1.93712e-05
3.66889e-06
-1.75522e-05
3.63379e-06
-1.54239e-05
3.48209e-06
-1.29905e-05
3.19832e-06
-1.02449e-05
2.7682e-06
-7.16877e-06
2.17922e-06
-3.73206e-06
1.42139e-06
5.02779e-07
-2.36729e-08
3.95114e-10
-1.20593e-07
2.50194e-09
-3.75422e-07
8.97311e-09
-8.64947e-07
2.34377e-08
-1.65523e-06
5.00692e-08
-2.79393e-06
9.37631e-08
-4.30389e-06
1.60173e-07
-6.17918e-06
2.55585e-07
-8.38389e-06
3.86586e-07
-1.0728e-05
5.5545e-07
-1.29961e-05
7.58417e-07
-1.51686e-05
9.95754e-07
-1.72293e-05
1.27261e-06
-1.90887e-05
1.58862e-06
-2.06693e-05
1.93704e-06
-2.1909e-05
2.30791e-06
-2.27643e-05
2.68848e-06
-2.32099e-05
3.06366e-06
-2.32385e-05
3.41661e-06
-2.2857e-05
3.72925e-06
-2.20827e-05
3.98275e-06
-2.09385e-05
4.15792e-06
-1.94482e-05
4.23547e-06
-1.76317e-05
4.19633e-06
-1.5502e-05
4.02192e-06
-1.30625e-05
3.69453e-06
-1.03059e-05
3.1978e-06
-7.21386e-06
2.5174e-06
-3.75636e-06
1.6419e-06
5.80758e-07
-2.40734e-08
4.08813e-10
-1.22317e-07
2.56311e-09
-3.79701e-07
9.09641e-09
-8.72439e-07
2.36892e-08
-1.66568e-06
5.06469e-08
-2.80619e-06
9.51573e-08
-4.31622e-06
1.63369e-07
-6.18947e-06
2.62274e-07
-8.38989e-06
3.99327e-07
-1.07302e-05
5.79212e-07
-1.2998e-05
8.02104e-07
-1.51719e-05
1.06964e-06
-1.72346e-05
1.38532e-06
-1.90972e-05
1.74716e-06
-2.06824e-05
2.14706e-06
-2.19283e-05
2.57317e-06
-2.27915e-05
3.01045e-06
-2.32467e-05
3.44131e-06
-2.32861e-05
3.84628e-06
-2.29159e-05
4.20469e-06
-2.21527e-05
4.49517e-06
-2.10182e-05
4.69603e-06
-1.95349e-05
4.78562e-06
-1.77218e-05
4.74254e-06
-1.55908e-05
4.54599e-06
-1.31447e-05
4.17613e-06
-1.03756e-05
3.61463e-06
-7.26529e-06
2.84545e-06
-3.78405e-06
1.85576e-06
6.56376e-07
-2.45978e-08
4.21693e-10
-1.24607e-07
2.61435e-09
-3.85653e-07
9.18769e-09
-8.83477e-07
2.38335e-08
-1.68209e-06
5.09271e-08
-2.82697e-06
9.58668e-08
-4.33923e-06
1.65213e-07
-6.2118e-06
2.666e-07
-8.40801e-06
4.08339e-07
-1.07437e-05
5.97728e-07
-1.30096e-05
8.39402e-07
-1.51834e-05
1.1366e-06
-1.72463e-05
1.49078e-06
-1.91103e-05
1.89806e-06
-2.06985e-05
2.34888e-06
-2.19497e-05
2.82947e-06
-2.28205e-05
3.32249e-06
-2.32857e-05
3.80786e-06
-2.33369e-05
4.26358e-06
-2.29796e-05
4.66644e-06
-2.2229e-05
4.99263e-06
-2.11057e-05
5.21814e-06
-1.96308e-05
5.31902e-06
-1.78218e-05
5.27174e-06
-1.56896e-05
5.05337e-06
-1.32362e-05
4.64209e-06
-1.04533e-05
4.0177e-06
-7.32262e-06
3.16251e-06
-3.81491e-06
2.0624e-06
7.29424e-07
-2.53828e-08
4.50409e-10
-1.28021e-07
2.7493e-09
-3.94673e-07
9.52759e-09
-9.00592e-07
2.45017e-08
-1.70827e-06
5.20701e-08
-2.86134e-06
9.77575e-08
-4.37929e-06
1.68438e-07
-6.2537e-06
2.72311e-07
-8.44679e-06
4.18519e-07
-1.07771e-05
6.1705e-07
-1.30395e-05
8.77193e-07
-1.52105e-05
1.20387e-06
-1.72705e-05
1.59621e-06
-1.91328e-05
2.04822e-06
-2.07214e-05
2.54885e-06
-2.1976e-05
3.0824e-06
-2.28534e-05
3.62929e-06
-2.33284e-05
4.16706e-06
-2.33918e-05
4.67129e-06
-2.30483e-05
5.11639e-06
-2.23116e-05
5.47625e-06
-2.12008e-05
5.72465e-06
-1.97353e-05
5.83556e-06
-1.79311e-05
5.7834e-06
-1.57978e-05
5.54328e-06
-1.33365e-05
5.09149e-06
-1.05385e-05
4.40608e-06
-7.38546e-06
3.46781e-06
-3.84873e-06
2.26126e-06
7.99705e-07
-2.66946e-08
5.2141e-10
-1.33534e-07
3.105e-09
-4.08992e-07
1.05043e-08
-9.27526e-07
2.65159e-08
-1.74945e-06
5.5509e-08
-2.91589e-06
1.03033e-07
-4.44419e-06
1.76156e-07
-6.32421e-06
2.83527e-07
-8.51636e-06
4.35092e-07
-1.0841e-05
6.43525e-07
-1.3097e-05
9.22698e-07
-1.52612e-05
1.27906e-06
-1.73141e-05
1.70925e-06
-1.91704e-05
2.20496e-06
-2.07559e-05
2.75367e-06
-2.20109e-05
3.33783e-06
-2.2893e-05
3.9358e-06
-2.33766e-05
4.52289e-06
-2.34521e-05
5.07242e-06
-2.31228e-05
5.55661e-06
-2.24009e-05
5.94726e-06
-2.13035e-05
6.21612e-06
-1.98482e-05
6.33522e-06
-1.80493e-05
6.27707e-06
-1.59148e-05
6.01498e-06
-1.3445e-05
5.52345e-06
-1.06307e-05
4.77889e-06
-7.45346e-06
3.76055e-06
-3.8853e-06
2.45181e-06
8.67024e-07
-2.90777e-08
6.82761e-10
-1.42903e-07
3.89848e-09
-4.32235e-07
1.26773e-08
-9.69818e-07
3.09592e-08
-1.81273e-06
6.2996e-08
-2.99889e-06
1.14233e-07
-4.54323e-06
1.91775e-07
-6.43382e-06
3.04563e-07
-8.62856e-06
4.63273e-07
-1.09468e-05
6.83326e-07
-1.3192e-05
9.82988e-07
-1.5344e-05
1.36975e-06
-1.73842e-05
1.83745e-06
-1.92293e-05
2.37546e-06
-2.08068e-05
2.96989e-06
-2.20585e-05
3.60153e-06
-2.29423e-05
4.24686e-06
-2.34329e-05
4.87918e-06
-2.35196e-05
5.46984e-06
-2.32044e-05
5.9891e-06
-2.24977e-05
6.40686e-06
-2.14143e-05
6.69306e-06
-1.99696e-05
6.81795e-06
-1.81762e-05
6.7523e-06
-1.60404e-05
6.46773e-06
-1.35614e-05
5.93709e-06
-1.07295e-05
5.13523e-06
-7.5263e-06
4.03998e-06
-3.92446e-06
2.63352e-06
9.31189e-07
-3.37519e-08
1.03664e-09
-1.59519e-07
5.52636e-09
-4.70498e-07
1.69276e-08
-1.03572e-06
3.93283e-08
-1.90764e-06
7.67104e-08
-3.12047e-06
1.34274e-07
-4.687e-06
2.18984e-07
-6.5943e-06
3.39805e-07
-8.79755e-06
5.07938e-07
-1.1108e-05
7.4197e-07
-1.33341e-05
1.0646e-06
-1.54667e-05
1.4831e-06
-1.74877e-05
1.98787e-06
-1.93155e-05
2.56635e-06
-2.08794e-05
3.20349e-06
-2.2123e-05
3.87867e-06
-2.30051e-05
4.56674e-06
-2.35001e-05
5.23933e-06
-2.35967e-05
5.86606e-06
-2.32949e-05
6.41552e-06
-2.26031e-05
6.85597e-06
-2.15338e-05
7.15576e-06
-2.01e-05
7.28353e-06
-1.83119e-05
7.20851e-06
-1.61745e-05
6.90071e-06
-1.36854e-05
6.33147e-06
-1.08346e-05
5.47417e-06
-7.60374e-06
4.3053e-06
-3.96606e-06
2.80585e-06
9.92e-07
-4.37273e-08
1.82973e-09
-1.90416e-07
8.82417e-09
-5.34323e-07
2.4785e-08
-1.13755e-06
5.38065e-08
-2.04683e-06
9.94294e-08
-3.29268e-06
1.66533e-07
-4.88682e-06
2.61781e-07
-6.81793e-06
3.93724e-07
-9.04166e-06
5.73256e-07
-1.13399e-05
8.23698e-07
-1.35306e-05
1.17333e-06
-1.56363e-05
1.62577e-06
-1.76316e-05
2.16676e-06
-1.94351e-05
2.78324e-06
-2.09791e-05
3.45938e-06
-2.22092e-05
4.17341e-06
-2.30852e-05
4.89885e-06
-2.35816e-05
5.60594e-06
-2.36859e-05
6.2629e-06
-2.33963e-05
6.83697e-06
-2.27187e-05
7.29506e-06
-2.16631e-05
7.60415e-06
-2.02398e-05
7.7315e-06
-1.84568e-05
7.6449e-06
-1.6317e-05
7.31293e-06
-1.38169e-05
6.70553e-06
-1.09459e-05
5.7947e-06
-7.68555e-06
4.55564e-06
-4.00995e-06
2.9682e-06
1.04925e-06
-7.15593e-08
4.2021e-09
-2.54914e-07
1.67219e-08
-6.45038e-07
3.99726e-08
-1.29593e-06
7.84746e-08
-2.24902e-06
1.35541e-07
-3.53157e-06
2.15815e-07
-5.15579e-06
3.25556e-07
-7.11704e-06
4.72294e-07
-9.36106e-06
6.67842e-07
-1.16349e-05
9.40835e-07
-1.37831e-05
1.32081e-06
-1.58599e-05
1.80636e-06
-1.78237e-05
2.3814e-06
-1.95953e-05
3.03298e-06
-2.1112e-05
3.74405e-06
-2.23224e-05
4.49187e-06
-2.31876e-05
5.2489e-06
-2.36817e-05
5.9843e-06
-2.3791e-05
6.66522e-06
-2.35117e-05
7.25787e-06
-2.28471e-05
7.72812e-06
-2.18043e-05
8.04182e-06
-2.03908e-05
8.16503e-06
-1.8612e-05
8.06426e-06
-1.64688e-05
7.70682e-06
-1.39565e-05
7.06131e-06
-1.10636e-05
6.09845e-06
-7.77193e-06
4.79222e-06
-4.05623e-06
3.12134e-06
1.10319e-06
-3.61137e-06
1.73319e-07
-6.692e-06
4.9107e-07
-8.9872e-06
7.56324e-07
-1.04612e-05
9.66058e-07
-1.11895e-05
1.12023e-06
-1.12616e-05
1.21806e-06
-1.07698e-05
1.2584e-06
-9.82302e-06
1.24026e-06
-8.53769e-06
1.16393e-06
-7.03461e-06
1.03206e-06
-5.43328e-06
8.5065e-07
-3.84368e-06
6.29473e-07
-2.36022e-06
3.81887e-07
-1.05709e-06
1.24184e-07
1.47928e-08
-1.25705e-07
8.29035e-07
-3.50052e-07
1.38284e-06
-5.33408e-07
1.69408e-06
-6.64549e-07
1.79673e-06
-7.37889e-07
1.73514e-06
-7.54051e-07
1.49804e-06
-7.07822e-07
1.10777e-06
-5.95612e-07
7.01809e-07
-4.46538e-07
3.72611e-07
-3.02612e-07
1.36584e-07
-1.84069e-07
-6.02336e-09
-9.60095e-08
-6.88876e-08
-3.84951e-08
-7.60075e-08
-7.20729e-09
-5.69687e-08
5.29577e-09
7.88172e-09
-3.50618e-08
-3.82156e-06
1.86466e-07
-7.12912e-06
5.2861e-07
-9.68004e-06
8.15547e-07
-1.13748e-05
1.04505e-06
-1.22485e-05
1.2168e-06
-1.24283e-05
1.32961e-06
-1.20309e-05
1.38323e-06
-1.11635e-05
1.37766e-06
-9.9402e-06
1.31349e-06
-8.47959e-06
1.19349e-06
-6.90081e-06
1.02379e-06
-5.31293e-06
8.14082e-07
-3.80951e-06
5.77312e-07
-2.46467e-06
3.29064e-07
-1.33018e-06
8.63705e-08
-4.34316e-07
-1.34033e-07
2.17324e-07
-3.17645e-07
6.39075e-07
-4.53989e-07
8.60846e-07
-5.37873e-07
9.22501e-07
-5.69807e-07
8.1215e-07
-5.4522e-07
5.44594e-07
-4.59628e-07
2.46625e-07
-3.37484e-07
9.12442e-09
-2.17339e-07
-1.51412e-07
-1.18691e-07
-2.34056e-07
-4.63769e-08
-2.51139e-07
-4.75604e-10
-2.2535e-07
2.30675e-08
-1.85144e-07
3.12138e-08
3.21931e-08
-1.62657e-07
-4.03807e-06
2.00199e-07
-7.55233e-06
5.67761e-07
-1.03378e-05
8.76908e-07
-1.23052e-05
1.12687e-06
-1.34051e-05
1.31864e-06
-1.37261e-05
1.44976e-06
-1.34337e-05
1.51914e-06
-1.26611e-05
1.5284e-06
-1.15146e-05
1.47915e-06
-1.01088e-05
1.37397e-06
-8.56393e-06
1.21912e-06
-6.98758e-06
1.02428e-06
-5.47189e-06
8.0176e-07
-4.09056e-06
5.6627e-07
-2.896e-06
3.33763e-07
-1.91828e-06
1.19816e-07
-1.16583e-06
-6.21631e-08
-6.27912e-07
-2.02571e-07
-2.78639e-07
-2.96749e-07
-8.21768e-08
-3.45394e-07
-4.83105e-08
-3.45675e-07
-1.79595e-07
-2.90564e-07
-3.62852e-07
-1.96941e-07
-5.02098e-07
-1.01312e-07
-5.82665e-07
-2.36177e-08
-6.03062e-07
3.21507e-08
-5.75453e-07
6.60735e-08
-5.2206e-07
8.22259e-08
-4.71821e-07
8.71854e-08
8.82107e-08
-4.56781e-07
-4.27167e-06
2.14484e-07
-7.99934e-06
6.08576e-07
-1.09871e-05
9.40821e-07
-1.32002e-05
1.21122e-06
-1.45886e-05
1.42338e-06
-1.51415e-05
1.57618e-06
-1.49896e-05
1.66593e-06
-1.43265e-05
1.69327e-06
-1.32735e-05
1.66166e-06
-1.19344e-05
1.5741e-06
-1.04355e-05
1.437e-06
-8.88182e-06
1.26018e-06
-7.36306e-06
1.05509e-06
-5.95231e-06
8.35406e-07
-4.70244e-06
6.15887e-07
-3.64543e-06
4.10877e-07
-2.79265e-06
2.32656e-07
-2.13713e-06
8.99543e-08
-1.6571e-06
-1.30768e-08
-1.32018e-06
-7.73621e-08
-1.12967e-06
-1.02641e-07
-1.11115e-06
-8.06224e-08
-1.17432e-06
-1.85069e-08
-1.21488e-06
5.24223e-08
-1.2162e-06
1.10441e-07
-1.17693e-06
1.50653e-07
-1.11128e-06
1.73724e-07
-1.04172e-06
1.83988e-07
-9.97659e-07
1.87465e-07
1.89987e-07
-1.00615e-06
-4.52261e-06
2.29275e-07
-8.48303e-06
6.50902e-07
-1.16794e-05
1.00735e-06
-1.4097e-05
1.29895e-06
-1.5743e-05
1.53071e-06
-1.65974e-05
1.70503e-06
-1.66824e-05
1.81943e-06
-1.6175e-05
1.87136e-06
-1.52322e-05
1.86176e-06
-1.3969e-05
1.79412e-06
-1.25299e-05
1.67718e-06
-1.1012e-05
1.52132e-06
-9.50136e-06
1.33658e-06
-8.07064e-06
1.13545e-06
-6.77303e-06
9.31508e-07
-5.6427e-06
7.37873e-07
-4.69429e-06
5.6579e-07
-3.92504e-06
4.23248e-07
-3.31809e-06
3.14196e-07
-2.84602e-06
2.3826e-07
-2.50748e-06
1.95106e-07
-2.33054e-06
1.88925e-07
-2.25556e-06
2.15579e-07
-2.19348e-06
2.56196e-07
-2.11933e-06
2.93763e-07
-2.02859e-06
3.20406e-07
-1.93548e-06
3.34998e-07
-1.86274e-06
3.41362e-07
-1.83868e-06
3.44987e-07
3.50104e-07
-1.88114e-06
-4.79257e-06
2.44499e-07
-9.00448e-06
6.94537e-07
-1.24309e-05
1.07614e-06
-1.50581e-05
1.3901e-06
-1.69131e-05
1.64205e-06
-1.80336e-05
1.836e-06
-1.84215e-05
1.97345e-06
-1.81601e-05
2.05321e-06
-1.73859e-05
2.07306e-06
-1.62293e-05
2.03253e-06
-1.48623e-05
1.93959e-06
-1.33967e-05
1.80718e-06
-1.19073e-05
1.64543e-06
-1.04688e-05
1.46526e-06
-9.1338e-06
1.2792e-06
-7.93956e-06
1.09916e-06
-6.90434e-06
9.35592e-07
-6.03009e-06
7.95875e-07
-5.30606e-06
6.84005e-07
-4.71242e-06
6.00605e-07
-4.24758e-06
5.45412e-07
-3.92145e-06
5.18223e-07
-3.69672e-06
5.14348e-07
-3.52052e-06
5.24209e-07
-3.36983e-06
5.38855e-07
-3.23616e-06
5.52017e-07
-3.1271e-06
5.6048e-07
-3.06207e-06
5.65188e-07
-3.06698e-06
5.70342e-07
5.78925e-07
-3.14914e-06
-5.08303e-06
2.60054e-07
-9.56657e-06
7.39196e-07
-1.32431e-05
1.14675e-06
-1.61024e-05
1.48402e-06
-1.81705e-05
1.75743e-06
-1.95032e-05
1.97145e-06
-2.01539e-05
2.1293e-06
-2.01724e-05
2.23286e-06
-1.96591e-05
2.28332e-06
-1.87032e-05
2.27906e-06
-1.74524e-05
2.22067e-06
-1.60566e-05
2.11704e-06
-1.46026e-05
1.98024e-06
-1.31722e-05
1.82304e-06
-1.18123e-05
1.65679e-06
-1.05667e-05
1.49221e-06
-9.45693e-06
1.33935e-06
-8.48981e-06
1.20498e-06
-7.66127e-06
1.09313e-06
-6.95963e-06
1.00518e-06
-6.38008e-06
9.39726e-07
-5.92217e-06
8.94677e-07
-5.56393e-06
8.67968e-07
-5.27599e-06
8.54656e-07
-5.04743e-06
8.49525e-07
-4.87423e-06
8.49845e-07
-4.75913e-06
8.53877e-07
-4.71269e-06
8.60548e-07
-4.75361e-06
8.70611e-07
8.84292e-07
-4.87815e-06
-5.39543e-06
2.75827e-07
-1.01721e-05
7.84558e-07
-1.41198e-05
1.21868e-06
-1.72324e-05
1.58005e-06
-1.9538e-05
1.87594e-06
-2.10892e-05
2.11157e-06
-2.19593e-05
2.29073e-06
-2.2218e-05
2.41623e-06
-2.19759e-05
2.49186e-06
-2.12973e-05
2.5205e-06
-2.02563e-05
2.50201e-06
-1.89885e-05
2.43796e-06
-1.76088e-05
2.33573e-06
-1.62036e-05
2.20606e-06
-1.4832e-05
2.06061e-06
-1.35517e-05
1.91283e-06
-1.23841e-05
1.77298e-06
-1.13402e-05
1.64661e-06
-1.04228e-05
1.53776e-06
-9.62783e-06
1.44847e-06
-8.94293e-06
1.37622e-06
-8.36606e-06
1.317e-06
-7.89424e-06
1.27153e-06
-7.51203e-06
1.24039e-06
-7.21531e-06
1.2211e-06
-7.00558e-06
1.21174e-06
-6.88781e-06
1.21172e-06
-6.86758e-06
1.22096e-06
-6.95449e-06
1.23938e-06
1.26456e-06
-7.13316e-06
-5.73114e-06
2.91666e-07
-1.08239e-05
8.30195e-07
-1.50653e-05
1.29126e-06
-1.84533e-05
1.67733e-06
-2.10189e-05
1.99647e-06
-2.28163e-05
2.25468e-06
-2.39175e-05
2.45644e-06
-2.44036e-05
2.60533e-06
-2.43861e-05
2.70496e-06
-2.39557e-05
2.75962e-06
-2.31659e-05
2.77288e-06
-2.21101e-05
2.74786e-06
-2.08878e-05
2.68888e-06
-1.95663e-05
2.59951e-06
-1.82156e-05
2.48453e-06
-1.6919e-05
2.35702e-06
-1.57164e-05
2.23208e-06
-1.46169e-05
2.11658e-06
-1.36317e-05
2.01382e-06
-1.27629e-05
1.92665e-06
-1.19897e-05
1.85141e-06
-1.1307e-05
1.78242e-06
-1.07351e-05
1.72312e-06
-1.02748e-05
1.67906e-06
-9.92391e-06
1.65004e-06
-9.68444e-06
1.63444e-06
-9.56211e-06
1.63154e-06
-9.56403e-06
1.64171e-06
-9.69695e-06
1.66586e-06
1.69954e-06
-9.93248e-06
-6.09098e-06
3.07332e-07
-1.15234e-05
8.75418e-07
-1.60818e-05
1.36342e-06
-1.97685e-05
1.7744e-06
-2.26173e-05
2.11724e-06
-2.46841e-05
2.39868e-06
-2.60418e-05
2.62384e-06
-2.67749e-05
2.79691e-06
-2.69813e-05
2.92181e-06
-2.67609e-05
3.00256e-06
-2.61887e-05
3.04302e-06
-2.53573e-05
3.04867e-06
-2.43433e-05
3.0259e-06
-2.32008e-05
2.97953e-06
-2.19616e-05
2.90923e-06
-2.06974e-05
2.81655e-06
-1.94867e-05
2.71304e-06
-1.83557e-05
2.61061e-06
-1.73284e-05
2.5167e-06
-1.64087e-05
2.43487e-06
-1.55673e-05