/*--------------------------------*- C++ -*----------------------------------*\
| =========                 |                                                 |
| \\      /  F ield         | OpenFOAM: The Open Source CFD Toolbox           |
|  \\    /   O peration     | Version:  dev                                   |
|   \\  /    A nd           | Web:      www.OpenFOAM.org                      |
|    \\/     M anipulation  |                                                 |
\*---------------------------------------------------------------------------*/
FoamFile
{
    version     2.0;
    format      ascii;
    class       volVectorField;
    location    "1.33";
    object      U;
}
// * * * * * * * * * * * * * * * * * * * * * * * * * * * * * * * * * * * * * //

dimensions      [0 1 -1 0 0 0 0];

internalField   nonuniform List<vector> 
2790
(
(9.93649 0 0.0176093)
(9.87119 0 0.0234208)
(9.78648 0 0.026728)
(9.68831 2.11381e-20 0.0301589)
(9.58176 0 0.0337159)
(9.46768 0 0.0373439)
(9.34528 1.22603e-20 0.0411588)
(9.21371 1.28521e-20 0.0452915)
(9.07223 0 0.0498493)
(8.92001 0 0.0549376)
(8.75601 1.48069e-20 0.0606723)
(8.57903 0 0.0671826)
(8.38767 4.1158e-20 0.0746148)
(8.18036 -3.41716e-20 0.0831352)
(7.95533 0 0.0929378)
(7.7106 -4.76917e-21 0.104253)
(7.44399 -1.00534e-20 0.117357)
(7.15303 -8.57682e-20 0.132575)
(6.835 8.8678e-20 0.150278)
(6.48695 0 0.170896)
(6.10565 0 0.194946)
(5.68767 2.12736e-19 0.223042)
(5.22933 -2.19129e-19 0.255908)
(4.72679 2.35525e-19 0.294438)
(4.17606 -2.41573e-19 0.339832)
(3.57279 -5.14531e-19 0.393816)
(2.91185 5.22848e-19 0.45906)
(2.18637 0 0.54042)
(1.3721 -2.68426e-19 0.650667)
(0.665546 5.86005e-19 0.752336)
(10.0027 2.30387e-21 0.0333464)
(9.9995 -2.39937e-21 0.0453227)
(9.97824 0 0.0525425)
(9.94134 -2.10896e-20 0.0605823)
(9.89292 -2.21859e-20 0.0694274)
(9.83407 2.31087e-20 0.078865)
(9.76429 0 0.0891092)
(9.68293 -1.60167e-22 0.100444)
(9.58935 2.65865e-20 0.113113)
(9.48286 2.8002e-20 0.127368)
(9.36256 -1.47068e-20 0.143492)
(9.22735 -6.21797e-20 0.16181)
(9.07595 4.00974e-20 0.182688)
(8.9069 0 0.206545)
(8.71852 0 0.233864)
(8.50892 -1.4753e-19 0.26521)
(8.27595 1.67327e-19 0.301247)
(8.01718 0 0.34275)
(7.7299 0 0.390585)
(7.41102 0 0.445694)
(7.05711 -3.95724e-19 0.509134)
(6.66438 9.10075e-21 0.582109)
(6.22852 -4.28425e-19 0.66593)
(5.74463 -2.26161e-19 0.762048)
(5.20694 2.36373e-19 0.872245)
(4.60808 0 0.999092)
(3.93771 -2.53691e-19 1.1468)
(3.17955 0 1.32376)
(2.28413 2.59502e-19 1.55393)
(1.36293 -5.70409e-19 1.93257)
(10.0002 -1.42437e-19 0.0314855)
(9.99464 -1.57965e-19 0.0478253)
(9.97603 0 0.0598694)
(9.94403 0 0.0730563)
(9.90147 0 0.087636)
(9.84949 0 0.103408)
(9.78778 4.84566e-20 0.120631)
(9.71579 -1.01621e-19 0.139696)
(9.63295 5.32176e-20 0.160976)
(9.53866 -8.37263e-20 0.184867)
(9.43215 0 0.211825)
(9.31249 0 0.242374)
(9.1786 1.61383e-20 0.277112)
(9.02924 0 0.316733)
(8.86297 -2.91478e-19 0.362041)
(8.67816 5.9852e-19 0.413978)
(8.47295 -2.92191e-19 0.473661)
(8.24524 4.12292e-20 0.542405)
(7.99261 3.51554e-19 0.62172)
(7.71227 -3.62378e-19 0.713289)
(7.40098 0 0.81901)
(7.05507 0 0.941108)
(6.67007 0 1.08217)
(6.24042 -1.78678e-18 1.2452)
(5.75915 1.36556e-18 1.43395)
(5.21665 4.72807e-19 1.65381)
(4.59908 2.46568e-19 1.91383)
(3.88391 -4.89471e-19 2.23238)
(3.05545 -4.80747e-19 2.61843)
(1.95329 -3.80448e-18 3.34347)
(9.9983 1.37735e-19 0.0318129)
(9.99019 3.24988e-19 0.0542338)
(9.9713 -1.00094e-20 0.0726423)
(9.94026 -8.39702e-20 0.0914858)
(9.8989 0 0.111643)
(9.84836 9.22217e-20 0.133246)
(9.78854 -4.83809e-20 0.156683)
(9.71899 -1.52299e-19 0.182466)
(9.63924 -1.1603e-21 0.211111)
(9.54882 5.44438e-20 0.243163)
(9.44709 5.68102e-20 0.279236)
(9.33333 3.98105e-19 0.320028)
(9.20668 -2.22707e-19 0.366339)
(9.06615 0 0.419097)
(8.91064 4.41932e-21 0.479382)
(8.73889 0 0.548459)
(8.54951 -1.10886e-22 0.62783)
(8.34091 -2.69002e-22 0.719295)
(8.11129 8.53974e-20 0.824972)
(7.85851 0 0.94731)
(7.58001 -7.62445e-19 1.0891)
(7.27284 -7.82663e-19 1.25372)
(6.93338 0 1.44534)
(6.55671 2.16294e-19 1.66904)
(6.13636 1.57871e-18 1.93142)
(5.66343 -2.27753e-18 2.24165)
(5.12622 -3.738e-18 2.6134)
(4.49446 4.49478e-19 3.07914)
(3.86183 4.18114e-18 3.57787)
(2.61056 -3.60389e-20 4.67856)
(9.99738 1.46223e-19 0.0337285)
(9.98756 -1.52658e-19 0.0608894)
(9.96819 -2.00255e-20 0.0844613)
(9.93777 -6.26895e-20 0.108058)
(9.89742 -2.19519e-19 0.133059)
(9.8481 4.56922e-20 0.159945)
(9.78983 -9.62374e-20 0.189203)
(9.72223 1.00984e-19 0.221411)
(9.6449 -5.28816e-20 0.257176)
(9.55742 1.11275e-19 0.297152)
(9.45929 -1.73295e-19 0.342076)
(9.34989 2.74634e-19 0.392768)
(9.22854 -6.04463e-19 0.450172)
(9.09449 2.98151e-19 0.515396)
(8.94686 2.81792e-19 0.589732)
(8.78472 -2.90879e-19 0.674672)
(8.60706 6.00581e-19 0.772001)
(8.41284 -7.1931e-19 0.88388)
(8.20086 5.12282e-19 1.01292)
(7.96977 -7.00149e-19 1.16219)
(7.71785 -1.83308e-19 1.33528)
(7.44309 0 1.53651)
(7.14323 -1.6151e-18 1.77152)
(6.81519 1.85015e-18 2.04741)
(6.45456 -2.58081e-18 2.37333)
(6.05565 6.9495e-18 2.762)
(5.61438 -3.05498e-18 3.22842)
(5.08001 2.09107e-19 3.82547)
(4.72272 -6.45824e-18 4.35284)
(3.34759 6.86579e-18 5.80588)
(9.997 1.45447e-19 0.0364408)
(9.98604 0 0.0676722)
(9.96634 -3.99278e-20 0.0959897)
(9.93665 1.67018e-19 0.124341)
(9.8975 2.18812e-19 0.154279)
(9.84969 -3.66736e-19 0.186501)
(9.79325 2.87424e-19 0.221568)
(9.72787 1.00256e-19 0.260102)
(9.65323 0 0.302783)
(9.56896 0 0.350366)
(9.47464 1.14864e-19 0.403699)
(9.36977 -6.03519e-20 0.463713)
(9.25382 1.26089e-19 0.531464)
(9.12622 -5.32048e-19 0.608217)
(8.98638 1.10604e-18 0.695453)
(8.83359 -1.15771e-18 0.794848)
(8.66718 6.01029e-19 0.908397)
(8.48649 6.78302e-19 1.03853)
(8.29086 -5.73559e-19 1.18819)
(8.07984 1.39296e-18 1.36099)
(7.85258 -1.24673e-18 1.56117)
(7.60788 1.85198e-19 1.79383)
(7.34506 -1.91348e-19 2.06562)
(7.06338 -2.01186e-19 2.38521)
(6.76149 -2.11507e-19 2.76355)
(6.43775 2.01209e-19 3.21575)
(6.1008 -4.14484e-19 3.75334)
(5.66149 -2.00704e-19 4.46226)
(5.6154 7.06108e-19 4.93338)
(4.13777 6.24682e-18 6.69821)
(9.99687 -3.00168e-19 0.0395583)
(9.98531 3.12201e-19 0.0745993)
(9.96559 1.18885e-19 0.107308)
(9.93672 8.32474e-20 0.140206)
(9.89895 1.30616e-19 0.174879)
(9.85288 3.64865e-19 0.212172)
(9.79858 -2.86195e-19 0.252739)
(9.73579 -9.99858e-20 0.297262)
(9.66423 -2.09856e-19 0.346487)
(9.58363 2.17398e-19 0.401261)
(9.49364 1.15254e-19 0.462538)
(9.39387 -4.77764e-19 0.531337)
(9.2839 1.23427e-19 0.608786)
(9.16333 -3.27283e-20 0.69627)
(9.03185 0 0.795421)
(8.88903 0 0.908057)
(8.73444 -5.99895e-19 1.03633)
(8.56783 -6.34918e-19 1.18287)
(8.38886 2.59036e-18 1.35079)
(8.1979 -1.33787e-18 1.54409)
(7.99512 1.40729e-18 1.7676)
(7.7803 1.25401e-18 2.02696)
(7.5542 3.7171e-19 2.32937)
(7.31833 3.04839e-18 2.68437)
(7.07495 -6.33883e-18 3.10386)
(6.82533 6.02207e-18 3.6042)
(6.59583 -1.44228e-19 4.18779)
(6.24188 -2.8588e-18 4.98972)
(6.51287 -6.71125e-19 5.33394)
(4.95169 0 7.36629)
(9.99673 0 0.0428606)
(9.98517 -2.83347e-19 0.0815378)
(9.9658 -1.78149e-19 0.118326)
(9.93788 0 0.155525)
(9.90164 -1.73721e-19 0.194711)
(9.85756 -1.81779e-19 0.236834)
(9.80569 9.58666e-20 0.28264)
(9.74584 1.00422e-19 0.332864)
(9.67778 -1.03079e-19 0.388299)
(9.6013 1.08112e-19 0.449867)
(9.51616 -1.12908e-19 0.518613)
(9.42212 0 0.595628)
(9.31883 6.19038e-20 0.682089)
(9.20599 0 0.779449)
(9.08364 6.69602e-20 0.889464)
(8.95153 4.94853e-19 1.01407)
(8.80946 -5.80793e-19 1.15553)
(8.65764 -1.22446e-18 1.31663)
(8.49622 1.2559e-18 1.5006)
(8.32582 1.31787e-18 1.71153)
(8.1477 -1.38805e-18 1.95466)
(7.96316 0 2.23607)
(7.77413 -3.03614e-18 2.56314)
(7.58403 3.73839e-20 2.9456)
(7.39862 -1.16069e-20 3.39547)
(7.22088 2.94595e-18 3.92984)
(7.0988 8.78484e-20 4.53593)
(6.81818 0 5.41212)
(7.3886 -1.0879e-18 5.58091)
(5.76136 0 7.8321)
(9.9966 -3.06067e-19 0.0462266)
(9.98532 1.87758e-20 0.0883498)
(9.96658 0 0.128951)
(9.93979 0 0.170219)
(9.90524 8.65535e-20 0.213687)
(9.86334 -9.0023e-20 0.26038)
(9.81417 3.77318e-19 0.311132)
(9.75756 -1.97881e-19 0.366725)
(9.69333 -1.03444e-19 0.427986)
(9.62134 -3.23503e-19 0.495891)
(9.54147 4.49079e-19 0.57155)
(9.45367 -2.32737e-19 0.656128)
(9.35765 -1.21492e-19 0.75087)
(9.25311 1.26558e-19 0.857239)
(9.14044 -6.64513e-20 0.977037)
(9.01974 6.91927e-20 1.11233)
(8.89095 1.15191e-18 1.26547)
(8.7547 -1.18189e-18 1.43926)
(8.61175 0 1.63705)
(8.46284 -3.93716e-20 1.86292)
(8.30992 6.14619e-20 2.12212)
(8.15584 2.66047e-18 2.42098)
(8.0039 -2.71238e-18 2.76692)
(7.85907 -4.33738e-20 3.16938)
(7.72997 2.15741e-20 3.63945)
(7.62032 1.53508e-19 4.19523)
(7.60228 -2.41678e-18 4.80396)
(7.38524 3.36802e-18 5.73457)
(8.22109 4.42059e-18 5.70857)
(6.54025 -1.44277e-18 8.11985)
(9.9966 2.8749e-19 0.0495744)
(9.98569 -2.98769e-19 0.0949594)
(9.96772 -3.52308e-19 0.139128)
(9.9422 4.09606e-20 0.184225)
(9.9095 -3.42763e-19 0.231723)
(9.86997 -1.79099e-19 0.282704)
(9.8237 3.02111e-22 0.338082)
(9.77061 2.1853e-22 0.398685)
(9.71051 9.36457e-22 0.465371)
(9.64329 0 0.539155)
(9.56894 1.11212e-19 0.621157)
(9.48763 1.15151e-19 0.712596)
(9.39924 1.20715e-19 0.814833)
(9.30361 -1.2565e-19 0.929331)
(9.20116 0 1.05782)
(9.09232 0 1.20245)
(8.97748 0 1.36564)
(8.85741 0 1.55018)
(8.73335 -1.20104e-18 1.75946)
(8.60657 1.18779e-18 1.99756)
(8.47953 -9.77449e-20 2.2695)
(8.35597 2.42467e-18 2.58145)
(8.24059 -2.58447e-18 2.94076)
(8.14002 0 3.35641)
(8.06525 0 3.83781)
(8.01871 -3.10434e-19 4.40374)
(8.09624 0 5.00009)
(7.93728 -1.01409e-18 5.96166)
(8.99196 0 5.75661)
(7.26024 -2.32064e-18 8.25707)
(9.99669 5.70537e-19 0.0528347)
(9.98626 2.60883e-19 0.101311)
(9.96919 3.51285e-19 0.148813)
(9.94508 -8.17746e-20 0.197489)
(9.91433 4.26965e-19 0.248752)
(9.87729 5.34338e-19 0.303725)
(9.83408 -9.83247e-22 0.363389)
(9.78467 -1.01249e-21 0.428619)
(9.72893 4.05718e-19 0.500314)
(9.66679 2.11681e-19 0.579509)
(9.59839 -6.58935e-19 0.667303)
(9.52386 -3.45684e-19 0.764905)
(9.44335 -4.18267e-21 0.87376)
(9.35717 6.13011e-19 0.995394)
(9.26558 0 1.13148)
(9.16903 -1.06318e-18 1.2841)
(9.06834 1.26758e-19 1.45572)
(8.96461 1.26415e-18 1.6491)
(8.85947 0 1.86756)
(8.75489 -7.21626e-20 2.11509)
(8.65383 -7.31825e-20 2.39646)
(8.56052 2.29627e-18 2.71743)
(8.48072 -4.59427e-18 3.08497)
(8.42256 2.43571e-18 3.50749)
(8.3995 -5.76516e-19 3.99271)
(8.41132 0 4.55941)
(8.57214 0 5.13525)
(8.47151 3.26751e-18 6.09694)
(9.68021 -3.07055e-18 5.77799)
(7.92124 2.63632e-18 8.26925)
(9.99685 -5.51578e-19 0.055954)
(9.987 -1.8497e-20 0.107347)
(9.97096 0 0.157952)
(9.94842 0 0.209958)
(9.91978 0 0.264718)
(9.88538 -3.54654e-19 0.323379)
(9.84539 -1.84981e-19 0.386984)
(9.79984 -1.92991e-19 0.456445)
(9.74865 1.99681e-19 0.532682)
(9.6919 -6.27401e-19 0.61674)
(9.6299 2.1588e-19 0.709722)
(9.5626 2.25896e-19 0.812825)
(9.49021 0 0.927457)
(9.41341 -1.21604e-19 1.05516)
(9.33272 0 1.19766)
(9.2487 -2.57368e-19 1.35703)
(9.16233 -1.34349e-19 1.53559)
(9.075 -9.66331e-19 1.73595)
(8.98871 1.12143e-18 1.9613)
(8.90595 1.29135e-18 2.21549)
(8.83039 -1.01409e-18 2.50308)
(8.7666 -2.03042e-18 2.82925)
(8.72082 2.03539e-18 3.20027)
(8.70231 -2.24637e-18 3.62387)
(8.72667 5.97482e-18 4.10603)
(8.79194 -2.07312e-18 4.66515)
(9.02288 0 5.21902)
(8.98837 2.80075e-18 6.14309)
(10.2743 -2.64707e-18 5.81374)
(8.56093 0 8.18935)
(9.99706 5.6444e-19 0.058893)
(9.98786 -3.68519e-20 0.113007)
(9.97301 3.85046e-20 0.166478)
(9.95221 8.07709e-20 0.22155)
(9.92588 3.3704e-22 0.279522)
(9.89435 -4.38271e-19 0.341554)
(9.85785 3.65329e-19 0.408751)
(9.81639 0 0.48205)
(9.76991 1.98917e-19 0.562355)
(9.71867 -2.05446e-19 0.650697)
(9.66307 2.14687e-19 0.748224)
(9.60312 2.24339e-19 0.856158)
(9.53908 -4.58209e-19 0.975827)
(9.47175 -2.36638e-19 1.10869)
(9.40177 0 1.25645)
(9.33014 2.54652e-19 1.42119)
(9.25818 0 1.60515)
(9.18727 -2.68661e-19 1.8107)
(9.11956 0 2.04079)
(9.05788 0 2.29902)
(9.0067 0 2.58966)
(8.97105 -2.7606e-18 2.91739)
(8.95738 2.2077e-18 3.28766)
(8.9756 -1.04733e-18 3.70718)
(9.04277 -2.02209e-18 4.18029)
(9.15613 1.78707e-18 4.72377)
(9.44332 -1.68259e-18 5.25606)
(9.4852 0 6.10643)
(10.7818 -4.00372e-18 5.86182)
(9.21831 -3.07868e-18 8.07954)
(9.99728 -5.63179e-19 0.0616281)
(9.98878 0 0.118248)
(9.9752 0 0.174335)
(9.95625 -3.1974e-19 0.232193)
(9.93236 3.33717e-19 0.293071)
(9.9038 1.53714e-21 0.358145)
(9.87084 -3.63896e-19 0.428575)
(9.83357 1.87287e-19 0.505317)
(9.79196 -1.0696e-21 0.589239)
(9.7463 6.11588e-19 0.681346)
(9.69705 -4.21098e-19 0.782804)
(9.64443 2.19528e-19 0.894851)
(9.58894 2.25099e-19 1.01875)
(9.53142 2.34633e-19 1.15588)
(9.47233 0 1.30783)
(9.41293 -2.45689e-19 1.47659)
(9.35508 0 1.66434)
(9.30026 0 1.87331)
(9.25068 0 2.10616)
(9.20941 0 2.36608)
(9.18121 0 2.65684)
(9.17157 -1.04296e-18 2.98267)
(9.18757 2.09163e-18 3.34827)
(9.23946 1.0163e-18 3.75909)
(9.34486 3.71593e-20 4.21804)
(9.50107 0 4.73839)
(9.8304 0 5.2479)
(9.95619 -2.18111e-18 5.99769)
(11.2198 3.81524e-18 5.89094)
(9.93179 1.46801e-19 8.0054)
(9.99751 -1.74769e-20 0.0641468)
(9.98974 -5.6275e-19 0.123043)
(9.97749 0 0.181487)
(9.96047 3.18832e-19 0.241852)
(9.93908 -3.32669e-19 0.305347)
(9.91347 6.91663e-19 0.373163)
(9.88397 0 0.446484)
(9.85088 -1.87546e-19 0.526257)
(9.81421 -5.80612e-19 0.613341)
(9.77425 0 0.708725)
(9.73151 0 0.813541)
(9.68636 4.31951e-19 0.928977)
(9.63947 -4.45766e-19 1.05626)
(9.59169 2.27973e-19 1.19673)
(9.5435 -9.44032e-19 1.35189)
(9.49626 2.1751e-18 1.52351)
(9.4521 1.68374e-21 1.71361)
(9.41282 -2.0097e-18 1.92434)
(9.38062 1.52319e-18 2.15809)
(9.35893 5.07096e-19 2.41762)
(9.3523 0 2.706)
(9.36637 3.52217e-18 3.02683)
(9.40905 -1.98556e-18 3.38405)
(9.49087 0 3.78186)
(9.62854 8.90042e-19 4.22174)
(9.82112 -1.5263e-18 4.71214)
(10.1791 0 5.19449)
(10.3911 2.09744e-18 5.82686)
(11.5948 3.0109e-18 5.85711)
(10.7172 -9.68945e-19 7.9754)
(0.142474 -2.66198e-20 -0.148884)
(0.333304 4.90645e-20 -0.120477)
(0.606819 -7.8144e-20 -0.0939506)
(1.00982 4.02552e-20 -0.088966)
(1.56535 4.89531e-20 -0.0923687)
(2.11865 1.65237e-20 -0.092029)
(2.55984 -1.92858e-20 -0.0881469)
(2.91482 2.1871e-20 -0.0844715)
(3.21758 -4.61428e-20 -0.0816923)
(3.48868 -4.70939e-20 -0.0796571)
(3.73551 0 -0.0776497)
(3.9622 -4.66357e-20 -0.0753117)
(4.17034 -2.86564e-21 -0.0725323)
(4.36038 3.75201e-24 -0.0693468)
(4.53241 -1.89716e-20 -0.0658896)
(4.68662 0 -0.0623578)
(4.82363 0 -0.0589686)
(4.94443 -1.96078e-20 -0.0558704)
(5.05038 1.16468e-21 -0.0530918)
(5.14312 -1.14227e-21 -0.0505568)
(5.22467 0 -0.0481457)
(5.29744 1.52962e-20 -0.0458093)
(5.36447 9.74846e-22 -0.0437426)
(5.42987 0 -0.042371)
(5.49878 0 -0.0422352)
(5.57762 -1.12126e-20 -0.0440111)
(5.67437 2.6446e-22 -0.0485491)
(5.79854 -6.48337e-23 -0.0570353)
(5.95992 -3.05639e-22 -0.0707791)
(6.22842 1.109e-22 -0.0908519)
(0.0296573 2.66818e-20 -0.195065)
(0.189939 0 -0.186089)
(0.472548 1.57972e-19 -0.178902)
(0.894772 -1.54182e-19 -0.200202)
(1.44905 1.39667e-21 -0.219545)
(1.97304 -6.16175e-20 -0.219433)
(2.37643 0 -0.208728)
(2.68847 -4.30476e-20 -0.197619)
(2.94189 6.74089e-20 -0.189004)
(3.1577 1.38274e-19 -0.182861)
(3.34785 0 -0.177259)
(3.51598 1.26382e-19 -0.170855)
(3.66427 -4.10105e-23 -0.162942)
(3.79272 5.53297e-20 -0.153348)
(3.9009 7.55066e-20 -0.142167)
(3.9883 -4.72684e-20 -0.129679)
(4.05474 3.56042e-20 -0.116281)
(4.10074 5.90354e-20 -0.102441)
(4.12809 -3.80006e-20 -0.0887762)
(4.14051 0 -0.0761429)
(4.14353 0 -0.0655844)
(4.14388 -1.64265e-20 -0.0582406)
(4.14888 -2.91263e-20 -0.0553858)
(4.16523 -3.55358e-21 -0.0584199)
(4.20042 9.20381e-22 -0.0686993)
(4.2604 -1.1423e-20 -0.088039)
(4.35267 6.50486e-22 -0.118615)
(4.48512 0 -0.162659)
(4.6643 0 -0.222226)
(4.96309 -4.454e-21 -0.297578)
(-0.0260896 3.15331e-19 -0.254319)
(0.0483299 -3.60013e-19 -0.266834)
(0.303251 4.50089e-19 -0.2834)
(0.688006 3.08641e-19 -0.321494)
(1.16583 0 -0.347887)
(1.58991 0 -0.345415)
(1.89882 3.714e-20 -0.328335)
(2.12341 1.24863e-19 -0.310286)
(2.29423 -4.32756e-20 -0.296302)
(2.43003 -9.0454e-20 -0.285628)
(2.53992 0 -0.275545)
(2.62889 -9.087e-20 -0.26367)
(2.69898 0 -0.248708)
(2.75064 2.22815e-20 -0.230148)
(2.78377 -1.07589e-20 -0.208282)
(2.79901 1.05507e-19 -0.18401)
(2.79839 5.17029e-20 -0.158782)
(2.78585 -4.9467e-20 -0.134513)
(2.7667 -2.9292e-20 -0.113485)
(2.74741 0 -0.098039)
(2.73479 -7.11207e-20 -0.0900652)
(2.73513 6.33313e-20 -0.0908615)
(2.75457 3.72567e-20 -0.101287)
(2.79799 -1.87673e-21 -0.122342)
(2.87054 -1.55879e-21 -0.155055)
(2.97577 2.59669e-20 -0.201013)
(3.1159 -2.41909e-21 -0.262272)
(3.29221 1.07722e-21 -0.34128)
(3.50595 2.04812e-20 -0.44192)
(3.81561 4.49348e-21 -0.567686)
(-0.0485007 -3.1363e-19 -0.297275)
(-0.0666265 3.40916e-19 -0.326207)
(0.172767 -5.19724e-21 -0.377583)
(0.509146 -3.15929e-19 -0.426767)
(0.892286 0 -0.453289)
(1.2021 -3.86796e-21 -0.444264)
(1.40909 -1.12142e-19 -0.418694)
(1.54369 -8.30326e-20 -0.393693)
(1.63355 0 -0.374446)
(1.69526 4.48944e-20 -0.358658)
(1.73609 -4.56083e-20 -0.343014)
(1.76039 -9.0365e-20 -0.324575)
(1.7703 0 -0.301852)
(1.76725 6.34797e-22 -0.274653)
(1.75307 0 -0.243954)
(1.73062 -1.7009e-19 -0.211798)
(1.70379 -8.24859e-20 -0.180935)
(1.67775 0 -0.154377)
(1.65839 -1.06959e-20 -0.134871)
(1.65114 9.50283e-21 -0.124555)
(1.6606 7.59305e-20 -0.125043)
(1.69098 -3.58658e-21 -0.138097)
(1.74603 6.02794e-20 -0.165082)
(1.82804 6.2882e-20 -0.206506)
(1.93788 1.57228e-21 -0.262182)
(2.075 -4.80944e-20 -0.332561)
(2.23639 -3.7787e-20 -0.418893)
(2.41965 -1.07619e-21 -0.523818)
(2.62422 -2.08355e-20 -0.653094)
(2.87407 2.20589e-22 -0.816149)
(-0.046942 3.57856e-21 -0.332414)
(-0.167842 -3.15385e-19 -0.379114)
(0.0716407 -6.40025e-21 -0.466587)
(0.353629 0 -0.512718)
(0.632886 0 -0.529239)
(0.827412 1.17925e-20 -0.510276)
(0.936062 0 -0.477194)
(0.989288 -1.31066e-21 -0.447679)
(1.01117 8.37593e-20 -0.425244)
(1.015 0 -0.406368)
(1.00644 4.42141e-20 -0.38701)
(0.989059 1.34259e-19 -0.364079)
(0.964968 -1.80356e-19 -0.336306)
(0.936182 -6.61462e-20 -0.304159)
(0.90517 -7.32415e-25 -0.269553)
(0.875335 8.52998e-20 -0.235502)
(0.850881 -1.16396e-19 -0.205549)
(0.835907 1.34976e-22 -0.183204)
(0.834839 8.86979e-20 -0.171157)
(0.850933 6.76237e-20 -0.171141)
(0.887059 9.26633e-21 -0.18472)
(0.945849 -6.86885e-20 -0.213566)
(1.02765 -6.42788e-20 -0.258352)
(1.13205 -5.92053e-20 -0.318037)
(1.25737 -5.4911e-20 -0.391621)
(1.4006 4.68792e-20 -0.478448)
(1.5559 3.925e-20 -0.57949)
(1.71903 -2.83405e-20 -0.697427)
(1.8857 0 -0.839012)
(2.04193 0 -1.02052)
(-0.017105 3.488e-21 -0.369558)
(-0.259979 6.10318e-19 -0.433252)
(-0.0123341 -2.89067e-19 -0.54461)
(0.201568 0 -0.576299)
(0.378277 -3.22632e-19 -0.574117)
(0.469289 4.06155e-19 -0.542584)
(0.493315 -1.43807e-19 -0.504492)
(0.481757 -8.20195e-20 -0.474014)
(0.454831 8.32539e-20 -0.451919)
(0.421738 8.73849e-20 -0.433331)
(0.385847 -8.82789e-20 -0.413376)
(0.34943 -4.53721e-20 -0.389025)
(0.313705 2.69239e-19 -0.359608)
(0.280358 -4.46123e-20 -0.326415)
(0.251741 0 -0.292161)
(0.230545 0 -0.260588)
(0.219775 8.45779e-20 -0.235465)
(0.222017 0 -0.220228)
(0.239795 -9.95805e-21 -0.217384)
(0.275373 1.11599e-20 -0.228544)
(0.330624 7.45544e-20 -0.255224)
(0.406258 0 -0.298262)
(0.499945 -3.92315e-21 -0.357276)
(0.610187 5.99435e-20 -0.430423)
(0.73363 5.53065e-20 -0.516065)
(0.866798 4.74388e-20 -0.612826)
(1.00178 1.05658e-21 -0.720839)
(1.13206 8.54916e-20 -0.841389)
(1.24676 3.64858e-20 -0.981558)
(1.31107 0 -1.16082)
(0.0491642 -5.51156e-19 -0.426377)
(-0.342075 2.78733e-19 -0.485967)
(-0.0966021 -2.92083e-19 -0.60745)
(0.0466671 1.83168e-19 -0.611105)
(0.127998 -1.57032e-19 -0.586202)
(0.133141 -1.69331e-19 -0.543455)
(0.0930092 2.94647e-19 -0.504817)
(0.0384827 0 -0.478477)
(-0.0160329 8.65153e-20 -0.461079)
(-0.0661128 -2.61314e-19 -0.44604)
(-0.110764 0 -0.428363)
(-0.149253 0 -0.405548)
(-0.181533 0 -0.377642)
(-0.207043 0 -0.346695)
(-0.224379 0 -0.315867)
(-0.232108 0 -0.289071)
(-0.228568 2.14755e-20 -0.27026)
(-0.21186 -2.1174e-20 -0.262815)
(-0.180507 0 -0.269234)
(-0.132991 -2.36233e-19 -0.291046)
(-0.0685473 -2.34144e-19 -0.329083)
(0.0121035 9.01783e-21 -0.383419)
(0.106669 -1.3132e-19 -0.453463)
(0.212476 -6.30941e-20 -0.53662)
(0.32481 1.0933e-19 -0.629863)
(0.439295 4.61034e-20 -0.73044)
(0.547378 -1.28598e-21 -0.837783)
(0.640678 -5.71781e-20 -0.952303)
(0.701307 -2.01899e-21 -1.08006)
(0.698427 -1.16374e-20 -1.23657)
(0.16829 1.75545e-19 -0.530588)
(-0.427406 -2.7746e-19 -0.519883)
(-0.18748 2.87264e-19 -0.645119)
(-0.113229 -1.84826e-19 -0.611604)
(-0.113765 5.8182e-20 -0.565148)
(-0.173386 -1.40811e-19 -0.517589)
(-0.253586 1.47719e-19 -0.485084)
(-0.327193 0 -0.468711)
(-0.389152 1.71059e-19 -0.459675)
(-0.439327 2.65814e-19 -0.450778)
(-0.479168 -1.9873e-21 -0.437608)
(-0.509631 -1.35069e-19 -0.418395)
(-0.531328 -7.07318e-22 -0.393749)
(-0.544627 9.06401e-20 -0.366244)
(-0.549218 -2.27611e-19 -0.339529)
(-0.54448 0 -0.317775)
(-0.529386 0 -0.305196)
(-0.502805 1.51406e-19 -0.305294)
(-0.463592 2.08067e-20 -0.320477)
(-0.410909 1.56671e-19 -0.351953)
(-0.344612 3.10033e-19 -0.399926)
(-0.266232 1.28925e-19 -0.463732)
(-0.178427 2.62094e-19 -0.541603)
(-0.0844996 -1.15314e-19 -0.630421)
(0.0111163 -1.05595e-19 -0.726573)
(0.103947 -9.00532e-22 -0.82667)
(0.184221 -7.30078e-20 -0.928115)
(0.24114 -5.31351e-20 -1.03005)
(0.255096 -3.47459e-20 -1.13788)
(0.214703 9.76604e-22 -1.25782)
(0.3355 -3.0059e-19 -0.699463)
(-0.526994 -2.47288e-20 -0.520897)
(-0.29401 1.34143e-19 -0.651849)
(-0.280976 2.90678e-19 -0.579451)
(-0.343019 2.54533e-19 -0.51658)
(-0.439262 -1.9948e-19 -0.474818)
(-0.530378 -3.10572e-19 -0.455985)
(-0.604046 -5.72125e-21 -0.452266)
(-0.659653 2.73271e-21 -0.453098)
(-0.69986 -8.49394e-20 -0.451428)
(-0.727363 2.66207e-19 -0.443579)
(-0.744118 -4.59985e-20 -0.428628)
(-0.75169 4.53794e-20 -0.407822)
(-0.751207 -4.60892e-20 -0.384069)
(-0.743186 2.25672e-19 -0.361436)
(-0.727649 0 -0.344447)
(-0.704238 1.79907e-19 -0.337496)
(-0.672178 4.65957e-21 -0.344212)
(-0.630604 0 -0.366903)
(-0.578869 9.78855e-21 -0.406391)
(-0.517012 -1.5991e-19 -0.462251)
(-0.446537 -1.36668e-19 -0.533158)
(-0.369934 -1.34547e-19 -0.616663)
(-0.290882 1.19952e-19 -0.708925)
(-0.214083 -1.73187e-21 -0.805159)
(-0.144423 -4.27512e-22 -0.900408)
(-0.0911391 8.62275e-22 -0.991519)
(-0.0663209 5.35778e-20 -1.07755)
(-0.0870742 -2.09688e-23 -1.16195)
(-0.141946 6.56097e-22 -1.24163)
(0.522641 5.31157e-19 -0.921024)
(-0.663558 0 -0.474739)
(-0.422478 -1.59882e-19 -0.629401)
(-0.458236 3.04825e-19 -0.521898)
(-0.547232 -2.43417e-19 -0.455915)
(-0.649034 -2.20725e-19 -0.426506)
(-0.732461 1.50295e-19 -0.423995)
(-0.792296 1.63475e-19 -0.434434)
(-0.830936 -1.70239e-19 -0.445511)
(-0.853389 1.79374e-19 -0.451045)
(-0.86295 0 -0.448628)
(-0.862207 -1.4029e-19 -0.437914)
(-0.853475 -4.59685e-20 -0.420586)
(-0.838547 0 -0.399983)
(-0.818623 0 -0.380521)
(-0.794304 -2.29238e-20 -0.367058)
(-0.765652 -1.55312e-19 -0.36426)
(-0.7322 -1.84256e-19 -0.375932)
(-0.693118 1.0735e-20 -0.404388)
(-0.647526 0 -0.450151)
(-0.595146 -4.65582e-21 -0.512197)
(-0.536997 2.91351e-22 -0.588419)
(-0.475268 4.2669e-21 -0.675483)
(-0.413579 0 -0.768742)
(-0.356586 -3.77443e-22 -0.862518)
(-0.30901 -8.78492e-20 -0.950799)
(-0.279664 7.09853e-20 -1.02951)
(-0.280958 -5.17564e-20 -1.09774)
(-0.324894 8.052e-23 -1.15817)
(-0.385185 1.99662e-20 -1.20627)
(0.697473 -1.51135e-19 -1.14276)
(-0.862007 1.36921e-19 -0.373228)
(-0.573269 1.18254e-20 -0.590058)
(-0.631923 2.82747e-20 -0.457763)
(-0.712937 0 -0.396158)
(-0.797671 0 -0.381448)
(-0.858358 3.23386e-19 -0.396877)
(-0.892441 -1.61753e-19 -0.421602)
(-0.905421 0 -0.441828)
(-0.903782 -1.77271e-19 -0.453273)
(-0.891082 0 -0.455235)
(-0.87002 4.16772e-20 -0.447725)
(-0.843451 1.93682e-19 -0.432551)
(-0.813793 -4.71959e-20 -0.41348)
(-0.78275 0 -0.395343)
(-0.751381 2.34512e-20 -0.383305)
(-0.720193 -2.31851e-20 -0.382352)
(-0.688948 1.1096e-20 -0.396625)
(-0.656701 -1.09734e-20 -0.42865)
(-0.622074 -1.67827e-19 -0.47884)
(-0.583919 1.58007e-19 -0.545613)
(-0.542273 0 -0.625929)
(-0.498633 1.34881e-19 -0.715395)
(-0.456193 -4.90109e-22 -0.808394)
(-0.41932 -3.78453e-22 -0.89836)
(-0.392759 3.7479e-22 -0.978477)
(-0.384407 0 -1.04406)
(-0.406339 5.35679e-23 -1.09447)
(-0.465826 -3.99054e-22 -1.13234)
(-0.528646 -9.75655e-21 -1.15555)
(0.846761 -1.04305e-19 -1.3194)
(-1.12738 0 -0.234474)
(-0.738997 0 -0.559721)
(-0.780901 -2.54949e-19 -0.404555)
(-0.827113 2.59961e-19 -0.347446)
(-0.87973 -1.56968e-19 -0.347772)
(-0.906093 -1.67699e-19 -0.382108)
(-0.903862 0 -0.420345)
(-0.883453 0 -0.446851)
(-0.852904 0 -0.461409)
(-0.814738 -1.90476e-19 -0.465699)
(-0.771116 1.88096e-19 -0.459427)
(-0.725437 -1.90602e-19 -0.444146)
(-0.680726 1.99049e-19 -0.424109)
(-0.639056 0 -0.404626)
(-0.601893 -1.9748e-19 -0.391117)
(-0.570195 -1.17806e-20 -0.388917)
(-0.544028 1.16558e-20 -0.402688)
(-0.522464 5.45384e-21 -0.435503)
(-0.503368 1.61314e-19 -0.487966)
(-0.484377 -1.54598e-19 -0.558104)
(-0.463918 -2.38642e-21 -0.641813)
(-0.442161 -1.34625e-19 -0.73338)
(-0.421394 9.96231e-22 -0.825925)
(-0.405507 0 -0.911892)
(-0.39938 0 -0.983932)
(-0.410162 7.14262e-20 -1.037)
(-0.449125 5.25554e-20 -1.0706)
(-0.519756 -6.30562e-20 -1.08778)
(-0.583967 0 -1.0905)
(1.00017 0 -1.44077)
(-1.3295 0 -0.125637)
(-0.860719 0 -0.564211)
(-0.870453 0 -0.378733)
(-0.871939 0 -0.313677)
(-0.888958 -1.60797e-19 -0.327841)
(-0.872522 3.19907e-19 -0.386594)
(-0.823391 0 -0.438641)
(-0.762999 0 -0.465339)
(-0.701023 9.46741e-20 -0.47795)
(-0.635536 4.58079e-20 -0.482131)
(-0.567406 4.81421e-20 -0.474712)
(-0.501301 0 -0.45612)
(-0.440992 -4.02554e-19 -0.431715)
(-0.388631 0 -0.407464)
(-0.346122 1.96023e-19 -0.388841)
(-0.314862 2.13227e-19 -0.381418)
(-0.295652 1.83475e-19 -0.390609)
(-0.287587 -1.93572e-19 -0.420411)
(-0.288311 5.57294e-21 -0.47228)
(-0.29378 0 -0.544187)
(-0.300359 -1.52562e-19 -0.631087)
(-0.305878 -2.25735e-21 -0.725548)
(-0.310887 -3.64874e-21 -0.818785)
(-0.318433 1.13995e-19 -0.901878)
(-0.33349 0 -0.967042)
(-0.363166 -7.2181e-20 -1.00924)
(-0.417586 1.09434e-19 -1.02794)
(-0.497256 6.23154e-20 -1.02667)
(-0.562576 0 -1.01168)
(1.46847 1.83694e-21 -1.48764)
(-1.32858 1.79657e-19 -0.0618381)
(-0.843202 5.12167e-20 -0.571162)
(-0.847294 -1.03401e-19 -0.358394)
(-0.822957 -3.04826e-19 -0.274507)
(-0.813477 1.50842e-19 -0.317495)
(-0.746553 0 -0.423136)
(-0.639432 -9.14395e-20 -0.486265)
(-0.536642 9.00561e-20 -0.49789)
(-0.446124 -1.87854e-19 -0.502239)
(-0.354058 -5.00751e-20 -0.506577)
(-0.260055 4.94883e-20 -0.49621)
(-0.172294 1.57829e-19 -0.469812)
(-0.0956609 2.55141e-19 -0.436543)
(-0.0318199 -2.39659e-19 -0.40332)
(0.0169243 -1.86662e-19 -0.374936)
(0.0481372 -1.8715e-19 -0.357231)
(0.0599549 -2.06935e-19 -0.356726)
(0.0527663 -8.92212e-21 -0.378811)
(0.0293566 0 -0.426231)
(-0.0056496 0 -0.497834)
(-0.0459575 3.15279e-19 -0.587794)
(-0.0863484 -4.26094e-21 -0.686627)
(-0.124203 4.22063e-21 -0.782864)
(-0.160646 -1.10041e-19 -0.865641)
(-0.200096 9.68322e-20 -0.926449)
(-0.25058 2.05734e-21 -0.960565)
(-0.321084 -1.12033e-19 -0.967322)
(-0.409445 1.38351e-21 -0.950197)
(-0.475981 0 -0.919018)
(2.59938 -4.93778e-20 -0.391796)
(-0.94698 -4.60755e-21 -0.50787)
(-0.515616 0 -0.549191)
(-0.602278 1.61421e-19 -0.295518)
(-0.606308 -1.51818e-19 -0.227737)
(-0.559071 0 -0.368013)
(-0.435287 0 -0.53241)
(-0.291231 1.89758e-19 -0.563454)
(-0.171423 -9.76712e-20 -0.526614)
(-0.0721797 9.64083e-20 -0.525594)
(0.0385498 -5.15101e-20 -0.5399)
(0.154645 -1.08033e-19 -0.524545)
(0.261724 -4.48213e-19 -0.484979)
(0.35333 -2.45153e-19 -0.439573)
(0.429073 4.30484e-19 -0.394422)
(0.485993 2.09397e-19 -0.35188)
(0.519424 -2.20093e-19 -0.318223)
(0.52621 2.8493e-21 -0.301666)
(0.50596 1.96892e-19 -0.309286)
(0.46044 1.90541e-19 -0.345599)
(0.39376 0 -0.411507)
(0.313846 -1.49879e-19 -0.501956)
(0.228624 1.51995e-19 -0.606176)
(0.145892 -8.78557e-21 -0.709316)
(0.0694772 0 -0.796911)
(-0.00263856 -9.6675e-20 -0.858313)
(-0.0790604 1.65671e-19 -0.888731)
(-0.16909 -2.14515e-21 -0.887852)
(-0.267568 7.34411e-20 -0.858281)
(-0.335627 0 -0.811736)
(9.99777 -5.17288e-19 0.0664905)
(9.99071 -1.09663e-18 0.127472)
(9.97976 1.09318e-19 0.188053)
(9.96475 -7.59847e-20 0.250684)
(9.94594 3.16516e-19 0.316575)
(9.92327 -1.65636e-19 0.386905)
(9.89732 -5.13784e-19 0.462801)
(9.86858 1.78619e-19 0.545196)
(9.83706 1.86376e-19 0.634989)
(9.80306 0 0.733154)
(9.76712 -3.96563e-19 0.840762)
(9.72964 9.73216e-22 0.958919)
(9.69141 -2.11508e-19 1.08881)
(9.65335 -2.17631e-19 1.23177)
(9.61622 0 1.38919)
(9.58141 9.08711e-19 1.56255)
(9.55102 -4.65949e-19 1.75366)
(9.5271 4.65754e-19 1.96456)
(9.51193 -9.48104e-19 2.1974)
(9.50931 -4.80189e-19 2.45448)
(9.52343 0 2.7381)
(9.55983 -9.15976e-19 3.05105)
(9.62697 0 3.39642)
(9.73487 -8.38879e-19 3.7771)
(9.89848 -1.54583e-18 4.19318)
(10.1198 1.42468e-18 4.64719)
(10.4918 1.08161e-18 5.09414)
(10.7855 7.93219e-19 5.59841)
(12.0017 -2.60334e-18 5.6876)
(13.4231 -6.73199e-20 8.19034)
(9.99808 5.20226e-19 0.0686531)
(9.99179 5.75254e-19 0.131534)
(9.98223 -1.0599e-19 0.194027)
(9.96934 -7.36475e-20 0.258666)
(9.95325 -1.54151e-19 0.326717)
(9.93378 -1.59592e-19 0.399314)
(9.9117 4.99265e-19 0.477436)
(9.8875 -1.719e-19 0.562021)
(9.86123 3.57306e-19 0.654064)
(9.8332 -3.68169e-19 0.754506)
(9.80398 -3.81442e-19 0.864335)
(9.77415 7.86136e-19 0.984592)
(9.74441 -4.01651e-19 1.11635)
(9.71596 -8.29433e-19 1.26088)
(9.68978 8.47508e-19 1.41948)
(9.66722 4.29694e-19 1.5934)
(9.65018 -1.32182e-18 1.78416)
(9.64082 -4.45578e-19 1.99361)
(9.64183 1.79243e-18 2.22368)
(9.65719 0 2.4762)
(9.69047 8.74804e-19 2.75266)
(9.74693 2.58781e-18 3.05491)
(9.83516 -2.50711e-18 3.3852)
(9.96348 2.40536e-18 3.74502)
(10.1455 7.46614e-20 4.13296)
(10.3848 1.07849e-19 4.54537)
(10.7504 3.29478e-18 4.94583)
(11.0711 -1.35778e-18 5.32293)
(11.7723 -2.98622e-19 5.39121)
(12.5158 -7.54551e-19 5.87661)
(9.99845 0 0.0705773)
(9.99302 0 0.135132)
(9.98503 5.46371e-19 0.199297)
(9.97432 0 0.26567)
(9.96092 2.9669e-19 0.335584)
(9.94486 0 0.410133)
(9.92684 0 0.490136)
(9.90715 -3.31371e-19 0.576533)
(9.88604 -3.42684e-19 0.670399)
(9.86396 0 0.772636)
(9.84143 -3.64613e-19 0.884126)
(9.81928 0 1.00585)
(9.79812 3.89027e-19 1.13873)