/*--------------------------------*- C++ -*----------------------------------*\
| =========                 |                                                 |
| \\      /  F ield         | OpenFOAM: The Open Source CFD Toolbox           |
|  \\    /   O peration     | Version:  dev                                   |
|   \\  /    A nd           | Web:      www.OpenFOAM.org                      |
|    \\/     M anipulation  |                                                 |
\*---------------------------------------------------------------------------*/
FoamFile
{
    version     2.0;
    format      ascii;
    class       volScalarField;
    location    "0.24";
    object      p;
}
// * * * * * * * * * * * * * * * * * * * * * * * * * * * * * * * * * * * * * //

dimensions      [0 2 -2 0 0 0 0];

internalField   nonuniform List<scalar> 
2790
(
68.35
68.2334
68.4517
68.987
69.7393
70.6629
71.7532
73.0122
74.4377
76.0253
77.77
79.6658
81.7053
83.8783
86.1713
88.5669
91.0434
93.5743
96.1282
98.6689
101.156
103.546
105.794
107.856
109.689
111.26
112.541
113.521
114.196
114.576
68.1613
68.1432
68.3856
68.9192
69.6682
70.5889
71.6748
72.9279
74.3463
75.9258
77.6615
79.5478
81.5774
83.7405
86.0241
88.4115
90.8817
93.4091
95.9631
98.5086
101.006
103.413
105.684
107.774
109.642
111.25
112.572
113.592
114.303
114.741
67.9686
68.0212
68.2828
68.807
69.5435
70.4518
71.5233
72.7588
74.1569
75.7132
77.423
79.2808
81.2795
83.4098
85.6595
88.013
90.4507
92.9487
95.4784
98.0069
100.497
102.908
105.198
107.321
109.238
110.908
112.301
113.396
114.175
114.687
67.7538
67.8392
68.113
68.6283
69.3504
70.2427
71.2951
72.5075
73.8781
75.4027
77.0766
78.8941
80.8484
82.9306
85.1292
87.4296
89.8138
92.2598
94.7419
97.23
99.6902
102.085
104.376
106.52
108.477
110.206
111.671
112.842
113.686
114.261
67.5068
67.6071
67.8891
68.3969
69.1029
69.9748
71.0023
72.1846
73.5196
75.0032
76.6304
78.3955
80.2919
82.3108
84.4415
86.6703
88.9808
91.3531
93.764
96.1869
98.5919
100.946
103.213
105.355
107.333
109.106
110.632
111.874
112.783
113.437
67.2233
67.3296
67.6141
68.1121
68.7987
69.6453
70.6421
71.7876
73.0796
74.5136
76.0844
77.7864
79.6125
81.5545
83.6018
85.7416
87.9589
90.2356
92.5511
94.8822
97.2028
99.4844
101.696
103.804
105.773
107.562
109.13
110.433
111.411
112.179
66.9013
67.0087
67.2904
67.7757
68.44
69.257
70.2179
71.3208
72.5627
73.939
75.4442
77.0723
78.8163
80.6676
82.6161
84.6496
86.7538
88.9124
91.1067
93.3166
95.5196
97.692
99.8078
101.839
103.756
105.522
107.098
108.441
109.484
110.395
66.5404
66.646
66.9207
67.39
68.0289
68.8125
69.7326
70.787
71.9721
73.2829
74.7136
76.2578
77.9081
79.6557
81.4903
83.4
85.3709
87.3876
89.4332
91.4894
93.5371
95.5562
97.5262
99.4255
101.231
102.916
104.448
105.792
106.871
107.936
66.1411
66.2428
66.5072
66.9574
67.5678
68.3144
69.1892
70.1896
71.3117
72.5499
73.8978
75.3486
76.8941
78.5253
80.2313
81.9998
83.817
85.6675
87.535
89.4022
91.2516
93.066
94.8289
96.5248
98.1393
99.6581
101.063
102.335
103.388
104.576
65.7046
65.8009
66.0522
66.4805
67.0596
67.7657
68.5909
69.5325
70.5859
71.7448
73.0024
74.351
75.7816
77.2845
78.8478
80.4584
82.1016
83.7613
85.4203
87.0607
88.6648
90.2156
91.6983
93.1011
94.4175
95.6469
96.7926
97.867
98.7873
100.035
65.2321
65.322
65.5582
65.962
66.5071
67.1695
67.9415
68.8199
69.7994
70.8733
72.0337
73.2721
74.5787
75.9423
77.35
78.7871
80.2372
81.6822
83.1025
84.4777
85.7868
87.0094
88.1275
89.1278
90.0057
90.771
91.4518
92.113
92.7111
93.9151
64.7256
64.8083
65.0275
65.4047
65.9133
66.5294
67.2449
68.0562
68.9575
69.9412
70.9985
72.1199
73.2944
74.5093
75.7499
76.9995
78.2391
79.4475
80.6011
81.674
82.6388
83.4666
84.1287
84.5999
84.8639
84.9253
84.8255
84.6952
84.5977
85.5558
64.187
64.2618
64.4627
64.8114
65.2816
65.8489
66.5051
67.2461
68.0655
68.9547
69.9041
70.9029
71.9386
72.9969
74.0609
75.1115
76.1262
77.0794
77.9418
78.6801
79.256
79.6262
79.7418
79.55
78.9978
78.0462
76.698
75.1067
73.4965
73.6709
63.6185
63.685
63.8666
64.1853
64.6151
65.1317
65.7265
66.3947
67.1292
67.9206
68.7582
69.63
70.5219
71.4177
72.2982
73.141
73.9199
74.6041
75.1573
75.5361
75.6886
75.5509
75.0438
74.0679
72.4982
70.1838
66.9587
62.7723
57.7457
55.0683
63.0226
63.0803
63.2417
63.5292
63.9174
64.3818
64.9134
65.5068
66.1542
66.8454
67.5687
68.3105
69.0553
69.7847
70.4772
71.1071
71.6439
72.0511
72.2848
72.2906
72.0006
71.3269
70.1528
68.3173
65.5887
61.6214
55.8683
47.4939
34.8893
20.1364
-89.8721
-90.5973
-91.9212
-93.9552
-96.7464
-100.288
-104.492
-109.167
-113.996
-118.532
-122.211
-124.395
-124.441
-121.802
-116.153
-107.499
-96.2492
-83.1691
-69.2351
-55.4514
-42.6716
-31.4735
-22.1263
-14.3037
-7.72697
-2.79491
0.393276
2.11739
2.58894
1.97406
-89.8481
-90.6401
-92.007
-94.0976
-96.9655
-100.61
-104.948
-109.784
-114.796
-119.526
-123.394
-125.742
-125.911
-123.348
-117.729
-109.059
-97.7554
-84.5881
-70.5348
-56.6027
-43.6558
-32.2901
-22.7962
-14.818
-8.11298
-3.12113
0.127436
1.90997
2.43756
1.93742
-90.2806
-91.214
-92.6949
-94.9146
-97.9292
-101.747
-106.291
-111.366
-116.647
-121.66
-125.806
-128.4
-128.752
-126.289
-120.661
-111.873
-100.372
-86.9551
-72.6224
-58.3992
-45.1678
-33.5427
-23.8166
-15.5861
-8.67285
-3.57363
-0.228446
1.64359
2.25682
1.90623
-91.3681
-92.414
-94.0024
-96.3747
-99.5819
-103.642
-108.482
-113.91
-119.589
-125.026
-129.589
-132.55
-133.177
-130.853
-125.192
-116.187
-104.337
-90.4877
-75.6837
-60.9863
-47.309
-35.288
-25.1996
-16.5992
-9.41749
-4.17736
-0.705051
1.28551
2.01452
1.84317
-93.1565
-94.2378
-95.901
-98.4308
-101.864
-106.226
-111.449
-117.337
-123.539
-129.534
-134.647
-138.095
-139.08
-136.926
-131.195
-121.876
-109.536
-95.0901
-79.6437
-64.3103
-50.0441
-37.5025
-26.9125
-17.8185
-10.34
-4.92227
-1.29014
0.848159
1.722
1.75325
-95.5686
-96.5998
-98.3133
-101.005
-104.694
-109.416
-115.105
-121.56
-128.413
-135.107
-140.91
-144.965
-146.387
-144.416
-138.556
-128.813
-115.843
-100.645
-84.4005
-68.2882
-53.3096
-40.1382
-28.8725
-19.2003
-11.4406
-5.79894
-1.97563
0.336641
1.38139
1.63308
-98.3795
-99.3059
-101.07
-103.938
-107.913
-113.049
-119.28
-126.402
-134.024
-141.546
-148.168
-152.943
-154.871
-153.078
-147.02
-136.747
-123.026
-106.95
-89.7866
-72.788
-56.9993
-43.0704
-30.9972
-20.742
-12.6851
-6.78926
-2.74899
-0.240186
0.998375
1.48318
-101.245
-102.07
-103.915
-106.984
-111.28
-116.877
-123.714
-131.582
-140.071
-148.536
-156.093
-161.685
-164.173
-162.537
-156.202
-145.309
-130.754
-113.726
-95.5744
-77.6308
-60.9626
-46.1376
-33.2015
-22.4256
-14.0419
-7.87028
-3.59449
-0.871625
0.579489
1.30465
-103.792
-104.574
-106.545
-109.843
-114.49
-120.582
-128.067
-136.734
-146.157
-155.644
-164.226
-170.708
-173.789
-172.273
-165.586
-154.018
-138.61
-120.635
-101.488
-82.5922
-64.9892
-49.1693
-35.4433
-24.2099
-15.4743
-9.01493
-4.49332
-1.54507
0.132292
1.09961
-105.701
-106.518
-108.653
-112.201
-117.211
-123.808
-131.947
-141.423
-151.795
-162.336
-171.986
-179.39
-183.064
-181.632
-174.548
-162.31
-146.12
-127.303
-107.239
-87.4137
-68.8119
-52.0549
-37.7097
-26.0212
-16.936
-10.1922
-5.42423
-2.2464
-0.334938
0.871
-106.783
-107.673
-109.978
-113.773
-119.132
-126.206
-134.959
-145.19
-156.455
-168.002
-178.693
-186.993
-191.212
-189.853
-182.425
-169.643
-152.83
-133.331
-112.521
-91.7604
-72.25
-54.7673
-39.877
-27.7799
-18.3763
-11.3681
-6.36419
-2.96038
-0.813403
0.622592
-106.925
-107.875
-110.333
-114.351
-120.015
-127.49
-136.751
-147.605
-159.605
-171.987
-183.565
-192.641
-197.317
-196.103
-188.539
-175.55
-158.342
-138.297
-116.861
-95.3772
-75.1695
-57.1381
-41.8282
-29.4084
-19.7439
-12.5079
-7.28943
-3.67115
-1.29389
0.359091
-106.046
-107.028
-109.618
-113.833
-119.753
-127.547
-137.187
-148.478
-160.973
-173.919
-186.128
-195.806
-200.847
-199.785
-192.256
-179.325
-162.031
-141.723
-119.882
-97.9829
-77.378
-59.0239
-43.4613
-30.8366
-20.9906
-13.5782
-8.17688
-4.36307
-1.76711
0.0861261
-104.156
-105.142
-107.857
-112.238
-118.38
-126.43
-136.326
-147.855
-160.581
-173.769
-186.251
-196.182
-201.371
-200.401
-193.081
-180.431
-163.401
-143.214
-121.369
-99.4158
-78.7362
-60.3172
-44.6971
-32.0078
-22.0767
-14.5511
-9.00676
-5.02259
-2.22506
-0.190656
-101.376
-102.429
-105.241
-109.714
-116.063
-124.32
-134.349
-145.92
-158.605
-171.68
-183.977
-193.686
-198.724
-197.852
-190.977
-178.916
-162.456
-142.733
-121.25
-99.5969
-79.1673
-60.9531
-45.4847
-32.8836
-22.9734
-15.4052
-9.76391
-5.63955
-2.6622
-0.466766
62.3898
62.4384
62.5785
62.8334
63.1782
63.5884
64.0544
64.5703
65.1278
65.7156
66.3209
66.9289
67.5224
68.081
68.5806
68.9921
69.281
69.4052
69.3126
68.9383
68.1984
66.9813
65.1325
62.4275
58.52
52.8353
44.3058
30.6754
4.64142
-67.4278
61.7128
61.7519
61.8697
62.0904
62.3898
62.7434
63.1412
63.5769
64.0411
64.522
65.0056
65.4759
65.914
66.2976
66.6002
66.7897
66.8275
66.6665
66.248
65.4977
64.3191
62.5826
60.1074
56.6294
51.7408
44.7701
34.5201
18.9467
-3.5858
-35.9859
60.997
61.0262
61.1209
61.3062
61.5588
61.8542
62.1821
62.5354
62.9045
63.2765
63.6365
63.9673
64.2486
64.4565
64.5621
64.5311
64.3216
63.8826
63.1508
62.0462
60.4655
58.2723
55.2809
51.2327
45.7604
38.3502
28.3394
15.0349
-0.847547
-18.8349
60.2437
60.2627
60.3338
60.4829
60.6877
60.9238
61.1806
61.4506
61.7235
61.9858
62.2218
62.4133
62.5388
62.573
62.4855
62.2403
61.7934
61.0918
60.07
58.6468
56.7196
54.1569
50.7892
46.398
40.7083
33.3981
24.1473
12.6131
-1.26991
-17.928
59.4546
59.4635
59.5106
59.6228
59.7792
59.9555
60.1407
60.3271
60.5038
60.657
60.7701
60.8243
60.7973
60.6629
60.3899
59.9412
59.2724
58.3304
57.0506
55.3546
53.1465
50.3085
46.6972
42.1407
36.4402
29.3768
20.7301
10.2326
-2.32769
-16.7235
58.6322
58.6307
58.6537
58.7289
58.8368
58.9532
59.0671
59.1704
59.252
59.2977
59.2906
59.2114
59.0374
58.7421
58.2942
57.6568
56.7864
55.6313
54.1307
52.2124
49.7909
46.7661
43.0219
38.4271
32.8385
26.1063
18.091
8.67421
-2.17515
-14.0235
57.7789
57.7672
57.7661
57.8045
57.8641
57.9212
57.9648
57.9864
57.975
57.9162
57.793
57.586
57.2727
56.8267
56.2174
55.4091
54.3603
53.0229
51.3413
49.2516
46.681
43.5477
39.7617
35.2271
29.8471
23.5319
16.215
7.87165
-1.47217
-11.4827
56.8978
56.8761
56.8513
56.8534
56.8654
56.8644
56.8392
56.7815
56.6802
56.521
56.2872
55.9597
55.5164
54.9319
54.1768
53.2176
52.0159
50.5282
48.7055
46.4933
43.8319
40.6573
36.9029
32.5028
27.3969
21.5384
14.9031
7.50022
-0.636393
-9.24141
55.9926
55.961
55.9131
55.8797
55.8454
55.7879
55.6962
55.5622
55.3751
55.1209
54.7833
54.3438
53.7815
53.0721
52.1885
51.0997
49.7713
48.1651
46.2394
43.9494
41.2479
38.0869
34.4198
30.2043
25.4068
20.0072
14.005
7.4251
0.310073
-7.11805
55.0671
55.0261
54.9557
54.888
54.809
54.6973
54.5421
54.3357
54.0676
53.7245
53.2909
52.7492
52.0798
51.2604
50.2662
49.0695
47.6403
45.9461
43.9525
41.6238
38.9244
35.8202
32.2803
28.2802
23.8046
18.8508
13.4322
7.5824
1.34755
-5.09206
54.1257
54.0756
53.9839
53.8833
53.7617
53.5985
53.3833
53.1089
52.7655
52.3405
51.8195
51.1861
50.4224
49.5082
48.4215
47.1383
45.633
43.8788
41.8482
39.5142
36.851
33.8356
30.4498
26.6818
22.5289
17.999
13.1135
7.90829
2.42807
-3.18308
53.173
53.1144
53.0025
52.8708
52.709
52.4974
52.2263
51.889
51.4765
50.9772
50.3779
49.6638
48.8188
47.8251
46.6637
45.3142
43.7556
41.9664
39.9257
37.6136
35.0127
32.1091
28.8938
25.3641
21.5253
17.3918
12.988
8.34896
3.51584
-1.39622
52.2142
52.1477
52.0168
51.8561
51.6568
51.4003
51.0777
50.6829
50.2079
49.6424
48.9743
48.1906
47.2772
46.219
44.9997
43.6028
42.0113
40.209
38.1802
35.9117
33.3925
30.6157
27.579
24.286
20.7467
16.9787
13.0071
8.8645
4.58769
0.268664
51.2546
51.1809
51.0325
50.845
50.6111
50.3136
49.9441
49.4977
48.9671
48.3434
47.616
46.7738
45.8047
44.696
43.4345
42.007
40.4006
38.6033
36.6045
34.3958
31.9716
29.3303
26.4741
23.4105
20.1524
16.7183
13.1326
9.42464
5.62674
1.81236
50.3
50.2196
50.0554
49.8433
49.578
49.2435
48.8321
48.3399
47.7607
47.087
46.3098
45.4196
44.4066
43.2605
41.9709
40.5277
38.9216
37.1443
35.1893
33.0521
30.7314
28.2289
25.5503
22.7052
19.7079
16.5766
13.3339
10.006
6.62074
3.23689
49.3562
49.2699
49.0914
48.8573
48.5639
48.1963
47.748
47.2159
46.5951
45.8793
45.0612
44.1332
43.0873
41.9156
40.6103
39.1642
37.5709
35.8253
33.9242
31.8663
29.6532
27.2892
24.7818
22.142
19.3841
16.5255
13.5867
10.5906
7.56125
4.54547
48.4294
48.3379
48.1468
47.8931
47.5748
47.1783
46.6981
46.1319
45.4761
44.7259
43.8753
42.9186
41.8497
40.6629
39.3526
37.9141
36.3436
34.6386
32.7984
30.8242
28.7195
26.4905
24.1457
21.6964
19.1565
16.5422
13.8718
11.1652
8.44272
5.7421
47.5258
47.4299
47.2278
46.957
46.6171
46.1957
45.6883
45.0935
44.4092
43.6315
42.7563
41.7792
40.6961
39.5031
38.1967
36.7742
35.2341
33.5759
31.8008
29.9118
27.914
25.8143
23.6217
21.3475
19.0048
16.6083
14.1741
11.7195
9.2618
6.83123
46.652
46.5523
46.3408
46.0554
45.6969
45.2544
44.7243
44.1063
43.3992
42.6006
41.7077
40.7176
39.6278
38.436
37.1406
35.7407
34.2364
32.6288
30.9207
29.1164
27.2216
25.2438
23.1923
21.0776
18.912
16.7087
14.4819
12.2463
10.0168
7.81762
45.8145
45.7117
45.4923
45.1944
44.8203
44.3604
43.8119
43.1754
42.4509
41.6371
40.7325
39.7356
38.6453
37.4608
36.1819
34.8092
33.3441
31.7892
30.148
28.4258
26.6287
24.7646
22.8422
20.8717
18.8641
16.8314
14.7859
12.7403
10.7071
8.70615
45.02
44.9146
44.6888
44.3805
43.9935
43.5194
42.9562
42.3056
41.5683
40.7443
39.8332
38.8347
37.7489
36.5763
35.3179
33.9754
32.5513
31.0491
29.4732
27.8291
26.1234
24.3637
22.5585
20.7171
18.8497
16.9667
15.0791
13.1976
11.3331
9.50154
44.2754
44.1679
43.9367
43.6199
43.2224
42.737
42.1626
41.5015
40.7555
39.9255
39.0121
38.016
36.9385
35.781
34.5456
33.2348
31.852
30.4013
28.8876
27.3166
25.6951
24.0303
22.3302
20.6036
18.8594
17.1071
15.3561
13.6159
11.8957
10.2085
43.5875
43.4784
43.2429
42.919
42.5131
42.0189
41.4361
40.7677
40.0163
39.1836
38.2711
37.2805
36.2139
35.0735
33.8623
32.5834
31.2408
29.8391
28.3835
26.8797
25.3345
23.7547
22.148
20.5221
18.8854
17.2461
15.6127
13.9933
12.3957
10.8308
42.9636
42.8531
42.6139
42.2842
41.8715
41.3705
40.7817
40.1086
39.3544
38.5216
37.6125
36.6294
35.5752
34.4529
33.2659
32.0179
30.7134
29.3572
27.9546
26.5115
25.0343
23.5296
22.0044
20.4661
18.9219
17.3795
15.8462
14.3291
12.8351
11.3731
42.411
42.2992
42.0565
41.7217
41.3034
40.7974
40.2043
39.5283
38.7732
37.942
37.0376
36.0632
35.0219
33.9174
32.7535
31.5344
30.2649
28.9497
27.5945
26.2049
24.787
23.3473
21.8923
20.4286
18.963
17.5022
16.0529
14.6212
13.2134
11.8367
41.9376
41.8242
41.5775
41.2378
40.815
40.3053
39.7096
39.0323
38.2777
37.4493
36.5506
35.585
34.5564
33.4686
32.326
31.1329
29.8942
28.615
27.3007
25.9569
24.5896
23.2049
21.8087
20.4073
19.0069
17.6136
16.2334
14.8719
13.5347
12.2278
41.5524
41.436
41.1837
40.8383
40.411
39.8981
39.3003
38.6222
37.8685
37.0432
36.1501
35.1929
34.1757
33.1028
31.9786
30.8078
29.5954
28.3463
27.0661
25.7601
24.4342
23.0941
21.7454
20.3941
19.0459
17.7064
16.381
15.075
13.7932
12.5407
41.2659
41.1427
40.8826
40.5326
40.1027
39.5878
38.9886
38.3102
37.5577
36.7353
35.8469
34.8967
33.8889
32.8281
31.7187
30.5657
29.374
28.1487
26.8952
25.6187
24.3249
23.0193
21.7073
20.3944
19.0861
17.7875
16.5039
15.24
14.0004
12.7897
41.0944
40.945
40.668
40.3131
39.8821
39.3662
38.7665
38.0886
37.3377
36.5181
35.6339
34.6893
33.6888
32.6369
31.5384
30.3981
29.221
28.0123
26.7772
25.5209
24.249
22.9667
21.6794
20.3924
19.1107
17.8394
16.5834
15.3473
14.1353
12.9513
41.0788
40.8773
40.5755
40.2134
39.7792
39.2605
38.6587
37.9798
37.229
36.4105
35.5284
34.587
33.5906
32.544
31.452
30.3193
29.1511
27.9523
26.7281
25.4838
24.2248
22.9561
21.683
20.4105
19.1438
17.8876
16.6467
15.4254
14.2281
13.0581
-173.534
-152.52
-122.614
-58.4436
-64.1738
-70.5534
-37.9289
-50.6872
-61.0916
-36.2697
-47.9277
-56.5514
-30.9415
-40.3123
-47.9097
-25.472
-33.3681
-40.1369
-21.2006
-27.9647
-33.8102
-17.5435
-23.3103
-28.2794
-14.2175
-19.1421
-23.3667
-11.1948
-15.4218
-19.0295
-8.45631
-12.1016
-15.1984
-5.97345
-9.13114
-11.8044
-3.72256
-6.4707
-8.79183
-1.68425
-4.08741
-6.11444
0.158868
-1.95292
-3.73325
1.82242
-0.04278
-1.61542
3.32049
1.66428
0.266957
4.66583
3.1869
1.93788
5.87003
4.54152
3.4181
6.94362
5.74269
4.72568
7.896
6.80311
5.87621
8.7358
7.73418
6.88338
9.46994
8.54505
7.75829
10.1059
9.24502
8.51168
10.6465
9.83845
9.14937
11.1006
10.3354
9.68189
11.4621
10.7306
10.1056
11.7491
11.0426
10.4379
11.9346
11.2456
10.656
12.0596
11.3827
10.8001
-97.2351
-99.544
-102.323
-106.622
-113.135
-121.529
-131.538
-142.926
-155.275
-167.865
-179.55
-188.67
-193.387
-192.636
-186.329
-175.021
-159.33
-140.333
-119.529
-98.5075
-78.6433
-60.9044
-45.8014
-33.4466
-23.6682
-16.1321
-10.4427
-6.21039
-3.07655
-0.739116
-83.2512
-92.2696
-97.2629
-102.928
-110.054
-118.525
-128.29
-139.207
-150.89
-162.642
-173.396
-181.722
-186.01
-185.332
-179.562
-168.98
-154.114
-136.02
-116.166
-96.0921
-77.106
-60.117
-45.6
-33.6573
-24.1289
-16.7061
-11.0236
-6.72073
-3.45861
-0.999086
-75.5216
-87.0684
-93.4426
-99.6505
-107.072
-115.571
-124.996
-135.241
-145.996
-156.646
-166.256
-173.651
-177.426
-176.671
-171.17
-161.101
-147.008
-129.933
-111.266
-92.4277
-74.6063
-58.6187
-44.8896
-33.5115
-24.3436
-17.1125
-11.4924
-7.15898
-3.8005
-1.2402
-68.1069
-79.9999
-88.6325
-96.283
-104.121
-112.473
-121.442
-130.964
-140.738
-150.214
-158.597
-164.95
-168.009
-166.819
-161.213
-151.457
-138.136
-122.233
-104.994
-87.6585
-71.2527
-56.4798
-43.7083
-33.024
-24.3128
-17.3443
-11.8393
-7.51602
-4.09499
-1.45607
-58.4513
-70.2891
-80.7338
-90.1608
-99.0291
-107.729
-116.522
-125.462
-134.344
-142.707
-149.869
-155.009
-157.023
-155.1
-149.31
-139.968
-127.629
-113.157
-97.6058
-82.0082
-67.2146
-53.8139
-42.1233
-32.2287
-24.0489
-17.4022
-12.0603
-7.78622
-4.33689
-1.64209
-49.3367
-60.2161
-71.1376
-81.4652
-91.0463
-100.124
-108.913
-117.454
-125.583
-132.919
-138.872
-142.667
-143.537
-141.085
-135.468
-126.918
-115.899
-103.136
-89.4857
-75.7804
-62.7107
-50.7654
-40.2217
-31.1725
-23.5738
-17.2938
-12.1554
-7.96693
-4.52279
-1.79517
-41.4862
-50.9175
-61.2743
-71.5045
-81.0824
-90.0821
-98.6238
-106.678
-114.061
-120.433
-125.297
-127.966
-128.07
-125.596
-120.573
-113.14
-103.679
-92.774
-81.1014
-69.3172
-57.9767
-47.4874
-38.0968
-29.9087
-22.9151
-17.0315
-12.1288
-8.05851
-4.65128
-1.914
-34.6465
-42.6355
-51.9191
-61.396
-70.385
-78.836
-86.788
-94.156
-100.737
-106.227
-110.223
-112.252
-112.145
-109.986
-105.768
-99.5827
-91.7281
-82.6553
-72.8833
-62.9234
-53.2206
-44.1163
-35.8345
-28.4888
-22.1022
-16.631
-11.9883
-8.06401
-4.72293
-1.99889
-28.6947
-35.4289
-43.4975
-51.916
-59.9906
-67.6032
-74.7421
-81.298
-87.0728
-91.8108
-95.2088
-96.9579
-96.9618
-95.2812
-91.9181
-86.9482
-80.5931
-73.1898
-65.1313
-56.8136
-48.5928
-40.7555
-33.5044
-26.9586
-21.1641
-16.1099
-11.7439
-7.98881
-4.74002
-2.05144
-23.5355
-29.2303
-36.145
-43.4538
-50.52
-57.2008
-63.4614
-69.1929
-74.2205
-78.3391
-81.3302
-82.9853
-83.2188
-82.0466
-79.4823
-75.5931
-70.5429
-64.5793
-57.9976
-51.1036
-44.1821
-37.4731
-31.158
-25.3559
-20.1279
-15.4867
-11.4075
-7.84004
-4.70626
-2.07412
-19.0463
-23.8954
-29.8035
-36.0911
-42.2017
-47.9924
-53.423
-58.3975
-62.7705
-66.3811
-69.0715
-70.6954
-71.1618
-70.448
-68.5711
-65.5908
-61.6284
-56.8648
-51.5214
-45.8341
-40.0302
-34.3097
-28.8323
-23.7123
-19.0186
-14.78
-10.9921
-7.62612
-4.62642
-2.06989
-15.1186
-19.2812
-24.3448
-29.7502
-35.0206
-40.0252
-44.7264
-49.0446
-52.8618
-56.0514
-58.4944
-60.0915
-60.7485
-60.4103
-59.0961
-56.8561
-53.7795
-49.9988
-45.6793
-41.003
-36.151
-31.2885
-26.5542
-22.054
-17.8592
-14.0082
-10.5113
-7.35626
-4.50596
-2.042
-11.6681
-15.2703
-19.6349
-24.2986
-28.8558
-33.1913
-37.2734
-41.0376
-44.3891
-47.2272
-49.4599
-51.0115
-51.7985
-51.7561
-50.8916
-49.2451
-46.8824
-43.9003
-40.4227
-36.5896
-32.5445
-28.4232
-24.3444
-20.4037
-16.6706
-13.189
-9.9788
-7.0401
-4.35079
-1.99378
-8.62797
-11.7691
-15.5559
-19.6019
-23.5618
-27.3363
-30.8997
-34.2007
-37.1625
-39.7043
-41.7526
-43.246
-44.1139
-44.2946
-43.7836
-42.6092
-40.8195
-38.4851
-35.6985
-32.5673
-29.2049
-25.722
-22.219
-18.7805
-15.472
-12.3392
-9.40792
-6.68729
-4.16697
-1.92861
-5.9442
-8.70299
-12.0108
-15.543
-19.0046
-22.3107
-25.4409
-28.3546
-30.9893
-33.2792
-35.1642
-36.5932
-37.5073
-37.8526
-37.6164
-36.8159
-35.4852
-33.6757
-31.4563
-28.9091
-26.1236
-23.1894
-20.1906
-17.2009
-14.2804
-11.4741
-8.8114
-6.3073
-3.96061
-1.84981
-3.57255
-6.01227
-8.92155
-12.0256
-15.0713
-17.9859
-20.754
-23.343
-25.702
-27.7766
-29.517
-30.8798
-31.8167
-32.2816
-32.2572
-31.7518
-30.7888
-29.4048
-27.6508
-25.5896
-23.2911
-20.8275
-18.2689
-15.6785
-13.1107
-10.6079
-8.20107
-5.90914
-3.73765
-1.76058
-1.47632
-3.64834
-6.22464
-8.97092
-11.6689
-14.256
-16.7205
-19.0365
-21.1621
-23.052
-24.6645
-25.9626
-26.9064
-27.4568
-27.5947
-27.3217
-26.6527
-25.6136
-24.2417
-22.5846
-20.6969
-18.6365
-16.4611
-14.2248
-11.9755
-9.75299
-7.58779
-5.50125
-3.50375
-1.66395
0.375406
-1.57108
-3.86827
-6.31489
-8.72139
-11.0338
-13.2432
-15.329
-17.2566
-18.9878
-20.4874
-21.7238
-22.6638
-23.2743
-23.5357
-23.4451
-23.0112
-22.2516
-21.1934
-19.8723
-18.3308
-16.615
-14.7724
-12.8487
-10.8859
-8.92026
-6.9813
-5.09139
-3.26422
-1.56275
2.00885
0.252979
-1.80964
-4.00474
-6.16651
-8.24798
-10.2426
-12.134
-13.8931
-15.4878
-16.8879
-18.0664
-18.9958
-19.6477
-20.0024
-20.0547
-19.8084
-19.2752
-18.4743
-17.4324
-16.1823
-14.7606
-13.2061
-11.5574
-9.85089
-8.11921
-6.39027
-4.68658
-3.02396
-1.45956
3.44643
1.85198
-0.013186
-1.99687
-3.95289
-5.84008
-7.65371
-9.3806
-10.9963
-12.4734
-13.786
-14.9105
-15.8253
-16.5053
-16.9298
-17.0934
-16.9968
-16.6469
-16.0569
-15.2468
-14.2414
-13.0702
-11.7644
-10.3566
-8.878
-7.35793
-5.82229
-4.29311
-2.78742
-1.35671
4.70726
3.24955
1.55068
-0.255253
-2.03826
-3.76193
-5.42294
-7.01068
-8.5044
-9.88057
-11.1168
-12.1926
-13.0893
-13.7858
-14.263
-14.5135
-14.536
-14.3343
-13.9171
-13.2989
-12.4989
-11.5402
-10.4483
-9.25039
-7.97342
-6.64333
-5.28398
-3.91656
-2.55862
-1.25628
5.80782
4.4658
2.90681
1.25014
-0.387559
-1.97379
-3.5063
-4.9765
-6.36666
-7.65639
-8.82622
-9.85816
-10.7357
-11.4409
-11.9568
-12.2748
-12.392
-12.3098
-12.0338
-11.5743
-10.9459
-10.1669
-9.25815
-8.24215
-7.14219
-5.98123
-4.78108
-3.56185
-2.34114
-1.16011
6.76158
5.5171
4.07538
2.54363
1.02756
-0.443539
-1.86822
-3.23952
-4.54211
-5.75813
-6.8705
-7.86332
-8.72182
-9.43048
-9.97448
-10.3446
-10.5367
-10.5506
-10.3895
-10.0606
-9.57503
-8.94716
-8.194
-7.33446
-6.38858
-5.37667
-4.3186
-3.23333
-2.13819
-1.06982
7.58084
6.418
5.07399
3.64613
2.2312
0.855941
-0.478844
-1.76747
-2.99654
-4.15023
-5.21338
-6.17181
-7.01219
-7.72097
-8.28505
-8.69509
-8.94626
-9.037
-8.96889
-8.74688
-8.37931
-7.87758
-7.25562
-6.52937
-5.71613
-4.83394
-3.90092
-2.93486
-1.95264
-0.986871
8.27338
7.17814
5.91462
4.57222
3.2405
1.94414
0.683481
-0.536807
-1.70484
-2.80646
-3.82802
-4.75675
-5.58052
-6.28731
-6.86541
-7.30569
-7.60282
-7.75441
-7.76081
-7.62527
-7.35407
-6.95628
-6.44343
-5.82905
-5.1282
-4.357
-3.53201
-2.66991
-1.78704
-0.912484
8.84978
7.80932
6.61096
5.33757
4.07302
2.84039
1.63967
0.474749
-0.643687
-1.70276
-2.69004
-3.59387
-4.40311
-5.10692
-5.6947
-6.15769
-6.49033
-6.68964
-6.75505
-6.6886
-6.49499
-6.18153
-5.75787
-5.23564
-4.6281
-3.94974
-3.21584
-2.44204
-1.64414
-0.848097
9.30925
8.31201
7.16468
5.94539
4.73353
3.55096
2.39738
1.2761
0.196901
-0.828337
-1.78811
-2.67163
-3.46851
-4.16879
-4.76275
-5.24206
-5.60108
-5.83644
-5.94697
-5.93383
-5.80061
-5.55329
-5.2001
-4.75121
-4.21846
-3.61504
-2.9551
-2.25345
-1.52532
-0.794087
9.66611
8.7006
7.59114
6.41183
5.23882
4.0931
2.97423
1.88511
0.834836
-0.165419
-1.10483
-1.97323
-2.76081
-3.45825
-4.05661
-4.54804
-4.92677
-5.18911
-5.33342
-5.36026
-5.27243
-5.07497
-4.77508
-4.38185
-3.90605
-3.35987
-2.75658
-2.11025
-1.43559
-0.753522
9.90327
8.95852
7.87424
6.72213
5.57553
4.45478
3.35943
2.29218
1.26167
0.278593
-0.646646
-1.50422
-2.28451
-2.97834
-3.57763
-4.07537
-4.46588
-4.74526
-4.91156
-4.96489
-4.90751
-4.74382
-4.48027
-4.12522
-3.68867
-3.18206
-2.61796
-2.00983
-1.37188
-0.72327
10.0506
9.11057
8.03812
6.89982
5.76605
4.65698
3.57251
2.5153
1.49377
0.518363
-0.400826
-1.25436
-2.03327
-2.72881
-3.33224
-3.83593
-4.23448
-4.52422
-4.70317
-4.77127
-4.73052
-4.58499
-4.34074
-4.00571
-3.58948
-3.10305
-2.55857
-1.96892
-1.34735
-0.70863
)
;

boundaryField
{
    inlet
    {
        type            zeroGradient;
    }
    outlet
    {
        type            fixedValue;
        value           uniform 0;
    }
    flap
    {
        type            zeroGradient;
    }
    upperWall
    {
        type            zeroGradient;
    }
    lowerWall
    {
        type            zeroGradient;
    }
    frontAndBack
    {
        type            empty;
    }
}


// ************************************************************************* //
