/*--------------------------------*- C++ -*----------------------------------*\
| =========                 |                                                 |
| \\      /  F ield         | OpenFOAM: The Open Source CFD Toolbox           |
|  \\    /   O peration     | Version:  dev                                   |
|   \\  /    A nd           | Web:      www.OpenFOAM.org                      |
|    \\/     M anipulation  |                                                 |
\*---------------------------------------------------------------------------*/
FoamFile
{
    version     2.0;
    format      ascii;
    class       volVectorField;
    location    "0.24";
    object      U;
}
// * * * * * * * * * * * * * * * * * * * * * * * * * * * * * * * * * * * * * //

dimensions      [0 1 -1 0 0 0 0];

internalField   nonuniform List<vector> 
2790
(
(9.93624 0 0.0199734)
(9.8671 0 0.0293093)
(9.7668 0 0.0359242)
(9.63878 9.39832e-23 0.0425073)
(9.49063 -1.24675e-20 0.049231)
(9.32489 -2.01883e-22 0.0560817)
(9.14113 6.8653e-21 0.0631877)
(8.93846 0 0.0706967)
(8.71622 -7.226e-21 0.078722)
(8.47375 -7.54858e-21 0.087346)
(8.21027 0 0.0966233)
(7.92498 0 0.106573)
(7.61708 0 0.117178)
(7.28599 0 0.128393)
(6.93137 0 0.140135)
(6.55324 -1.28107e-21 0.152288)
(6.15203 6.64312e-21 0.164716)
(5.72866 5.61441e-21 0.177271)
(5.28452 -2.99718e-21 0.189802)
(4.82156 1.55624e-20 0.20214)
(4.3423 6.64705e-21 0.21409)
(3.84991 6.85093e-21 0.225392)
(3.34835 0 0.235689)
(2.84252 0 0.244497)
(2.33845 -4.82107e-20 0.251223)
(1.84355 4.9985e-20 0.255302)
(1.36654 0 0.256494)
(0.917758 0 0.255193)
(0.504118 -7.55825e-20 0.251502)
(0.263252 0 0.213769)
(9.99232 -2.20538e-20 0.0410922)
(9.9757 1.76603e-22 0.063375)
(9.93055 -1.80655e-22 0.0803992)
(9.85681 0 0.0977616)
(9.76083 1.23381e-20 0.115869)
(9.64521 0 0.13463)
(9.50967 -6.63245e-21 0.154304)
(9.3534 -4.34791e-22 0.175227)
(9.17569 2.19848e-20 0.197679)
(8.97579 7.62231e-21 0.221875)
(8.75282 -1.83234e-22 0.247975)
(8.50569 -8.13572e-21 0.276074)
(8.23321 0 0.306176)
(7.93427 0 0.338179)
(7.60796 2.99887e-21 0.371873)
(7.25362 -7.45809e-21 0.406934)
(6.87087 -1.57699e-20 0.442931)
(6.4598 -1.66089e-20 0.479328)
(6.02098 0 0.515489)
(5.55559 -1.23115e-20 0.550666)
(5.06549 1.30954e-20 0.583974)
(4.55328 6.8235e-20 0.614347)
(4.02242 5.30249e-22 0.640485)
(3.47728 -2.98243e-20 0.660827)
(2.92323 -1.6224e-20 0.67359)
(2.36651 4.9003e-20 0.676951)
(1.81395 0 0.669416)
(1.27227 -2.86007e-19 0.650281)
(0.742888 3.57882e-19 0.619803)
(0.342535 0 0.525105)
(9.98933 2.20556e-20 0.0452815)
(9.96961 0 0.0779321)
(9.92625 3.62573e-22 0.105957)
(9.85692 2.34186e-20 0.134561)
(9.7667 -2.45749e-20 0.164496)
(9.65825 0 0.195764)
(9.53157 0 0.228715)
(9.38601 -2.74344e-20 0.263842)
(9.22096 -4.33449e-20 0.301601)
(9.03577 6.97827e-22 0.342378)
(8.82954 -2.41289e-22 0.386492)
(8.60119 7.65777e-21 0.434189)
(8.34944 5.28553e-22 0.485585)
(8.07294 0 0.540614)
(7.7704 -5.89924e-22 0.599035)
(7.4406 4.96081e-21 0.66043)
(7.0825 1.04361e-20 0.724189)
(6.69538 -1.11809e-22 0.789501)
(6.2789 2.27128e-20 0.855354)
(5.83324 -1.25601e-20 0.920524)
(5.35914 2.52673e-20 0.983533)
(4.85803 2.66224e-20 1.04259)
(4.33208 0 1.09554)
(3.78426 0 1.1398)
(3.21838 -9.29745e-20 1.17247)
(2.63903 0 1.19049)
(2.05137 0 1.19113)
(1.46114 1.58485e-19 1.17275)
(0.868 -1.35999e-19 1.13754)
(0.411318 0 1.05352)
(9.98767 -4.38573e-20 0.0521445)
(9.96573 3.51756e-22 0.0966949)
(9.92225 -4.64144e-20 0.13704)
(9.85418 -2.37792e-20 0.177222)
(9.76569 2.45602e-20 0.218559)
(9.65938 0 0.261457)
(9.53546 -8.29309e-22 0.306458)
(9.39342 9.48314e-22 0.354241)
(9.2328 2.85267e-20 0.40547)
(9.05306 -2.96193e-20 0.46074)
(8.85347 -3.06074e-23 0.520579)
(8.63308 -1.71568e-20 0.585426)
(8.39079 3.19578e-21 0.655575)
(8.12536 -6.69981e-21 0.731115)
(7.83548 1.05028e-21 0.811912)
(7.51982 4.84125e-21 0.897596)
(7.17712 1.00806e-20 0.987521)
(6.80629 1.06931e-20 1.08076)
(6.40644 -2.28353e-20 1.1761)
(5.97703 0 1.27199)
(5.51791 -2.54341e-20 1.36654)
(5.02939 -4.48296e-22 1.45745)
(4.51237 0 1.5419)
(3.96838 0 1.61656)
(3.39971 1.22698e-19 1.67763)
(2.80942 6.50321e-20 1.72105)
(2.20153 -1.32406e-19 1.74313)
(1.58201 -1.73702e-20 1.74138)
(0.946997 1.79686e-20 1.71797)
(0.454226 0 1.63706)
(9.9869 4.3858e-20 0.0604919)
(9.96381 0 0.115508)
(9.9203 4.60424e-20 0.166753)
(9.8534 7.43161e-22 0.217483)
(9.7667 4.95433e-20 0.269417)
(9.6626 -1.57096e-21 0.323344)
(9.54136 0 0.379972)
(9.40254 1.25155e-22 0.440106)
(9.24572 0 0.504558)
(9.07041 2.95694e-20 0.574084)
(8.87595 0 0.64937)
(8.66148 3.31636e-20 0.731003)
(8.42597 -1.77943e-20 0.819422)
(8.16826 0 0.91486)
(7.88711 -1.15787e-21 1.01731)
(7.58119 0 1.12648)
(7.2492 -5.08965e-20 1.24178)
(6.88986 3.21303e-20 1.36228)
(6.50199 -6.66921e-20 1.48667)
(6.08458 -2.37998e-20 1.61331)
(5.6368 2.44463e-20 1.74008)
(5.15813 2.7245e-22 1.86436)
(4.64837 -1.62196e-19 1.98294)
(4.10784 0 2.09193)
(3.53747 -5.94745e-20 2.1868)
(2.93906 -6.22272e-20 2.26256)
(2.31534 -6.64375e-20 2.31444)
(1.6718 1.35621e-19 2.33872)
(0.997354 -3.54001e-20 2.3373)
(0.466291 1.45052e-19 2.26062)
(9.98658 0 0.0694754)
(9.96309 6.98553e-22 0.13428)
(9.91995 -7.14114e-22 0.195885)
(9.85449 1.47983e-21 0.257034)
(9.76998 -1.72977e-21 0.319527)
(9.66859 0 0.384384)
(9.55057 1.64086e-21 0.452461)
(9.41553 2.5435e-20 0.524681)
(9.26307 1.77315e-21 0.601993)
(9.09272 -8.89844e-22 0.685314)
(8.90385 -1.42651e-21 0.775492)
(8.69563 -1.54916e-20 0.873277)
(8.46705 3.11723e-20 0.979266)
(8.21699 2.15274e-21 1.09385)
(7.94419 4.45359e-21 1.21718)
(7.64733 4.71879e-21 1.34907)
(7.32503 5.01172e-20 1.48905)
(6.97586 -3.12091e-20 1.63624)
(6.59841 5.64e-22 1.78941)
(6.19126 0 1.94689)
(5.75304 -9.60921e-20 2.10656)
(5.28249 4.94638e-20 2.26566)
(4.77849 2.65608e-19 2.42079)
(4.24027 0 2.56765)
(3.66756 5.88601e-20 2.7011)
(3.06099 1.848e-19 2.81522)
(2.42225 -1.91465e-19 2.90393)
(1.75738 6.62095e-20 2.96177)
(1.05303 1.74682e-20 2.9888)
(0.488502 -1.46393e-19 2.92769)
(9.98652 -8.66367e-20 0.0786774)
(9.96314 -8.79253e-20 0.152904)
(9.9208 -7.10798e-22 0.224372)
(9.85709 -9.35492e-20 0.295566)
(9.77514 -4.84958e-20 0.368252)
(9.67694 0 0.443625)
(9.56271 0 0.522704)
(9.43211 5.35171e-20 0.606548)
(9.28475 -5.73352e-20 0.69625)
(9.12018 1.79818e-21 0.792883)
(8.93779 0 0.897456)
(8.73677 0 1.01088)
(8.5161 -4.92431e-20 1.13391)
(8.27467 0 1.2671)
(8.01119 -9.02917e-21 1.41075)
(7.72429 0 1.56484)
(7.41247 -1.97833e-20 1.72903)
(7.07414 4.11405e-20 1.9026)
(6.70763 6.58763e-22 2.08445)
(6.31111 0 2.27307)
(5.8827 9.52798e-20 2.46643)
(5.42039 -1.75384e-21 2.6619)
(4.92216 -1.89919e-21 2.85602)
(4.38614 -1.09569e-19 3.04431)
(3.81083 1.12821e-19 3.22113)
(3.19566 -2.07226e-21 3.37958)
(2.54115 1.23697e-19 3.51203)
(1.85363 -6.55277e-20 3.61053)
(1.11589 1.35918e-19 3.67164)
(0.517633 -1.41029e-19 3.62216)
(9.9866 8.66386e-20 0.0878558)
(9.96372 8.72287e-20 0.171199)
(9.92256 -8.89955e-20 0.252056)
(9.86094 9.20511e-20 0.332855)
(9.78191 9.73638e-20 0.415333)
(9.68736 0 0.500807)
(9.57749 0 0.59045)
(9.45196 -1.03169e-19 0.685457)
(9.31043 5.20725e-20 0.787058)
(9.15249 -1.81205e-21 0.896474)
(8.97754 6.13444e-20 1.01487)
(8.78478 3.04764e-20 1.14333)
(8.57322 3.31347e-20 1.28277)
(8.34172 -3.57822e-20 1.43393)
(8.08899 -1.53623e-20 1.59727)
(7.81357 9.15774e-21 1.77296)
(7.51387 0 1.96086)
(7.1881 -2.0302e-20 2.16047)
(6.83428 6.37287e-20 2.37092)
(6.45022 -6.62343e-20 2.59099)
(6.03344 4.55366e-20 2.81892)
(5.58116 -2.04786e-21 3.05236)
(5.0904 -2.03012e-19 3.28808)
(4.55801 1.04246e-19 3.52163)
(3.98105 1.10844e-19 3.74702)
(3.35735 -3.46482e-19 3.95644)
(2.68576 1.19599e-19 4.14042)
(1.97219 0 4.28805)
(1.19442 0 4.39274)
(0.549551 0 4.37999)
(9.98679 -6.7191e-22 0.0968555)
(9.96468 6.86217e-22 0.188995)
(9.92505 1.81652e-19 0.278786)
(9.86583 -2.89811e-21 0.368729)
(9.79009 -9.13341e-20 0.460555)
(9.69963 -6.16664e-21 0.555673)
(9.59463 6.37666e-21 0.655389)
(9.4748 1.05631e-19 0.761028)
(9.33982 -5.78961e-20 0.873954)
(9.18932 0 0.995535)
(9.02273 -1.18135e-19 1.1271)
(8.8393 -3.08993e-20 1.26988)
(8.63806 3.19039e-20 1.42499)
(8.4179 3.29531e-22 1.59334)
(8.1775 1.74848e-20 1.7756)
(7.91537 -9.11835e-21 1.97216)
(7.62981 0 2.18312)
(7.31886 1.0133e-20 2.40827)
(6.98029 -2.03106e-20 2.64711)
(6.61148 0 2.89878)
(6.20938 0 3.16203)
(5.77041 -9.40575e-20 3.43503)
(5.29046 0 3.71504)
(4.76493 0 3.99801)
(4.18899 2.07857e-19 4.27792)
(3.55825 3.28156e-19 4.54622)
(2.86902 -3.44164e-19 4.79147)
(2.1265 1.19995e-19 4.99882)
(1.30926 -6.17198e-20 5.15412)
(0.606107 -1.29848e-19 5.16341)
(9.98706 1.70295e-19 0.105569)
(9.96594 -8.70515e-20 0.206146)
(9.92812 -5.94483e-22 0.304418)
(9.87162 -8.88239e-20 0.403019)
(9.79951 -2.95118e-21 0.503706)
(9.71356 0 0.60796)
(9.61393 0 0.717202)
(9.50036 -5.2523e-20 0.832881)
(9.37259 5.44326e-20 0.95649)
(9.2303 0 1.08954)
(9.07297 5.49732e-20 1.2335)
(8.89991 6.39365e-20 1.38979)
(8.7102 -3.16978e-20 1.55969)
(8.50277 6.54644e-20 1.74431)
(8.27634 0 1.94453)
(8.0294 0 2.16101)
(7.76021 -1.82382e-20 2.39413)
(7.4667 1.8168e-20 2.64405)
(7.14641 -9.87581e-21 2.91071)
(6.79638 0 3.19381)
(6.41302 0 3.49278)
(5.99196 4.50853e-20 3.8066)
(5.5279 -1.39784e-19 4.13345)
(5.01455 9.5966e-20 4.47013)
(4.44471 -2.04578e-19 4.81126)
(3.81085 -2.13435e-19 5.14808)
(3.10506 1.17554e-19 5.46745)
(2.32778 -3.39386e-19 5.75023)
(1.4482 6.08238e-20 5.97422)
(0.670113 2.48515e-19 6.01799)
(9.98738 -1.70304e-19 0.113916)
(9.96743 2.5857e-19 0.22253)
(9.93167 -8.78371e-20 0.328813)
(9.87819 9.45533e-20 0.435566)
(9.81003 2.47192e-23 0.544589)
(9.72895 -3.01682e-21 0.657427)
(9.63514 0 0.775599)
(9.52837 0 0.90067)
(9.40844 3.37139e-21 1.03425)
(9.27507 5.03559e-23 1.17799)
(9.12785 -6.43252e-20 1.3335)
(8.96613 -5.26021e-20 1.50237)
(8.7891 -3.8386e-21 1.68603)
(8.59577 -3.23913e-20 1.88582)
(8.38492 0 2.10285)
(8.1551 0 2.33802)
(7.9046 2.26821e-20 2.59208)
(7.63131 -2.18459e-20 2.86559)
(7.33268 -1.09249e-20 3.15903)
(7.00553 9.92853e-21 3.47281)
(6.64585 4.07481e-20 3.80726)
(6.24858 1.27285e-19 4.1625)
(5.8073 -4.40283e-20 4.53809)
(5.31396 9.21083e-20 4.93247)
(4.75858 -9.43433e-20 5.34185)
(4.1295 3.88959e-19 5.75861)
(3.41278 5.73085e-21 6.16918)
(2.60161 3.23534e-19 6.55128)
(1.65104 1.55583e-21 6.87797)
(0.768576 -3.54362e-19 7.0178)
(9.98775 1.67888e-19 0.121834)
(9.9691 -3.45799e-19 0.238043)
(9.93563 4.14159e-21 0.351848)
(9.88541 -2.82451e-21 0.466223)
(9.82149 0 0.583023)
(9.74564 0 0.703853)
(9.65806 -3.11465e-21 0.830316)
(9.55857 -9.86133e-20 0.964078)
(9.44702 1.05182e-19 1.10687)
(9.32324 0 1.26044)
(9.18687 4.34988e-21 1.42656)
(9.0374 5.82883e-20 1.60694)
(8.87412 -6.40572e-20 1.80322)
(8.69616 -5.84391e-20 2.0169)
(8.50243 -1.99277e-21 2.24932)
(8.29162 -2.09587e-21 2.50169)
(8.06211 0 2.77507)
(7.81191 1.83087e-20 3.07051)
(7.53851 1.1836e-21 3.38908)
(7.23871 0 3.73201)
(6.90833 -4.03842e-20 4.10073)
(6.54192 -8.32407e-20 4.49682)
(6.13224 -4.21252e-20 4.92179)
(5.66967 4.29181e-20 5.3766)
(5.14145 0 5.86057)
(4.5312 -1.80429e-19 6.36934)
(3.81733 -1.87039e-19 6.89167)
(2.98337 0 7.40348)
(1.97852 -2.03668e-19 7.86334)
(0.929437 2.08906e-19 8.11237)
(9.98816 -3.34474e-19 0.129275)
(9.97093 1.72913e-19 0.2526)
(9.93993 -1.36571e-21 0.373413)
(9.8932 9.22575e-20 0.494857)
(9.83378 -2.87753e-21 0.618849)
(9.76347 0 0.747043)
(9.68247 6.15968e-21 0.881116)
(9.59067 1.95992e-19 1.02282)
(9.488 -1.05084e-19 1.17398)
(9.37438 -6.78887e-21 1.33647)
(9.24955 5.60965e-20 1.51216)
(9.11313 -5.82333e-20 1.70291)
(8.96455 1.26683e-19 1.9105)
(8.80311 1.19522e-21 2.13661)
(8.62791 0 2.3828)
(8.43783 -6.50573e-20 2.65054)
(8.2315 4.27273e-21 2.94124)
(8.00715 -7.33763e-20 3.2564)
(7.76254 3.54638e-20 3.59772)
(7.4947 -3.63644e-20 3.9673)
(7.19969 0 4.36777)
(6.87216 -2.3777e-22 4.80243)
(6.50468 2.38558e-22 5.27525)
(6.08686 0 5.79066)
(5.60391 0 6.35289)
(5.03497 1.70319e-19 6.96423)
(4.34934 0 7.62136)
(3.51087 -3.18157e-19 8.30798)
(2.40817 0 8.99974)
(1.24548 1.5068e-18 9.46538)
(9.98859 1.66588e-19 0.136198)
(9.97288 2.6516e-21 0.266126)
(9.94449 -2.70825e-21 0.39341)
(9.90145 -8.94271e-20 0.521351)
(9.84676 -9.67694e-20 0.651924)
(9.78224 -8.77622e-20 0.786829)
(9.70813 -9.63766e-20 0.927802)
(9.62438 -1.99783e-19 1.07667)
(9.53101 0 1.23534)
(9.42802 -6.68364e-21 1.40576)
(9.31531 1.15692e-19 1.58993)
(9.19261 0 1.7898)
(9.05954 -5.16532e-20 2.00728)
(8.91561 -6.254e-21 2.24421)
(8.76015 -7.81891e-21 2.50233)
(8.59235 8.08857e-20 2.78333)
(8.41115 7.92118e-23 3.08893)
(8.21518 6.03167e-20 3.42104)
(8.00268 3.29348e-20 3.78193)
(7.77126 4.50465e-20 4.17453)
(7.51768 1.71931e-23 4.60265)
(7.2374 -9.38676e-21 5.07136)
(6.9239 7.33034e-20 5.5873)
(6.56759 -1.93216e-22 6.15903)
(6.15385 -1.86472e-20 6.7973)
(5.66019 4.50343e-21 7.51487)
(5.05067 4.71116e-20 8.32464)
(4.29089 1.2573e-19 9.22812)
(3.2983 1.34787e-19 10.1741)
(2.08269 -2.25077e-19 10.8083)
(9.98905 -1.62455e-19 0.142576)
(9.97491 -1.3122e-21 0.27857)
(9.94925 0 0.411768)
(9.91003 1.75465e-19 0.545611)
(9.86024 6.61252e-21 0.682126)
(9.8017 -4.77528e-21 0.823048)
(9.73471 1.91532e-19 0.970161)
(9.65929 9.92259e-20 1.12535)
(9.57554 9.44816e-20 1.29059)
(9.48357 1.03804e-19 1.4679)
(9.38341 -1.84499e-21 1.65934)
(9.27498 1.17057e-19 1.86698)
(9.15809 7.19303e-21 2.09281)
(9.03248 1.76248e-19 2.33877)
(8.89779 1.12256e-19 2.60675)
(8.75354 -7.70932e-20 2.8986)
(8.59911 1.59148e-20 3.21629)
(8.43367 1.63824e-20 3.56203)
(8.25612 -3.57816e-20 3.93854)
(8.065 1.69697e-20 4.34938)
(7.85825 -6.72088e-20 4.79934)
(7.63296 0 5.29495)
(7.38487 -2.04503e-19 5.8452)
(7.10754 3.4686e-20 6.46248)
(6.79066 1.28216e-19 7.16417)
(6.4166 0 7.97513)
(5.94726 9.92074e-20 8.93248)
(5.29487 -1.132e-19 10.0946)
(4.16577 0 11.5706)
(2.11532 -6.87273e-19 14.252)
(-0.312333 -3.64622e-18 0.47859)
(-1.02972 0 0.480188)
(-1.85145 -5.68365e-20 0.471703)
(-2.69931 4.11021e-20 0.465795)
(-3.57815 0 0.454702)
(-4.47506 7.0831e-21 0.436175)
(-5.3719 -6.85565e-21 0.409024)
(-6.24607 0 0.372569)
(-7.07102 0 0.326499)
(-7.81676 0 0.270864)
(-8.45069 7.16773e-21 0.206095)
(-8.93879 0 0.132995)
(-9.2476 0 0.0527157)
(-9.34683 0 -0.0333929)
(-9.21265 -3.04178e-21 -0.12444)
(-8.83045 0 -0.216426)
(-8.20474 3.0186e-22 -0.301904)
(-7.35737 -1.0265e-21 -0.374368)
(-6.32568 7.54007e-22 -0.428808)
(-5.1582 -3.42129e-21 -0.462126)
(-3.90854 0 -0.473293)
(-2.62714 1.66246e-21 -0.46356)
(-1.35552 -2.65606e-22 -0.437428)
(-0.0896136 -1.26795e-21 -0.398258)
(1.03618 0 -0.354136)
(2.0913 -3.10602e-22 -0.309991)
(3.0631 -2.81358e-23 -0.270053)
(3.94368 0 -0.234922)
(4.73953 -3.43172e-22 -0.205204)
(5.63465 -2.76316e-22 -0.19212)
(-0.448078 2.05484e-18 1.10715)
(-1.18012 2.44136e-19 1.13018)
(-2.02231 -2.21617e-19 1.15385)
(-2.89049 -4.21998e-20 1.17601)
(-3.788 6.82308e-20 1.18392)
(-4.69961 -2.70327e-20 1.17147)
(-5.60718 -2.79364e-20 1.13397)
(-6.48826 0 1.06774)
(-7.31621 -2.85925e-20 0.969966)
(-8.06065 -3.61835e-21 0.839027)
(-8.68835 -3.58435e-21 0.674805)
(-9.16455 0 0.479055)
(-9.4551 -6.79768e-21 0.255754)
(-9.52952 1.30787e-20 0.0113071)
(-9.36464 -9.40919e-21 -0.24582)
(-8.95095 0 -0.498238)
(-8.29369 -2.99563e-22 -0.727888)
(-7.41559 1.01719e-21 -0.919484)
(-6.35421 -1.52141e-21 -1.06208)
(-5.1578 2.96256e-21 -1.15001)
(-3.87943 2.80821e-22 -1.18314)
(-2.569 -3.67111e-21 -1.16683)
(-1.26261 -4.3376e-21 -1.11237)
(0.0328207 1.36095e-21 -1.0287)
(1.17712 0 -0.932789)
(2.25812 3.07761e-22 -0.83339)
(3.25616 2.54728e-23 -0.740653)
(4.16562 1.12099e-23 -0.657206)
(4.98826 3.32079e-22 -0.585377)
(5.90788 -2.64792e-22 -0.543068)
(-0.430417 1.01162e-19 1.8311)
(-1.20419 4.31756e-20 1.91374)
(-2.07651 -9.76596e-20 1.95502)
(-2.95446 5.44363e-20 1.98584)
(-3.85809 6.93151e-20 1.9911)
(-4.77293 7.88775e-22 1.96169)
(-5.68203 5.57528e-20 1.8899)
(-6.56357 0 1.76953)
(-7.39117 3.02871e-21 1.596)
(-8.13422 3.77409e-21 1.36674)
(-8.75883 -1.53782e-22 1.08187)
(-9.22923 7.12928e-21 0.744874)
(-9.50993 0 0.363132)
(-9.56913 1.31215e-20 -0.0513048)
(-9.38331 -6.63287e-21 -0.481737)
(-8.94546 0 -0.901521)
(-8.26334 -3.33748e-21 -1.28034)
(-7.3625 4.51053e-21 -1.5929)
(-6.2824 -3.10287e-21 -1.82164)
(-5.07214 1.10598e-20 -1.95832)
(-3.78509 -2.39753e-21 -2.00434)
(-2.47174 -3.29903e-21 -1.97038)
(-1.165 3.83661e-21 -1.87474)
(0.124647 4.50007e-22 -1.73148)
(1.26216 3.35302e-21 -1.57163)
(2.33735 1.51622e-21 -1.40853)
(3.32625 3.38768e-22 -1.25462)
(4.22608 3.04556e-22 -1.11485)
(5.03477 -5.50239e-22 -0.993143)
(5.94321 5.36415e-22 -0.9073)
(-0.400902 -5.80853e-20 2.62328)
(-1.19163 -4.38621e-21 2.7231)
(-2.07346 9.82881e-20 2.76995)
(-2.95101 1.58525e-21 2.80402)
(-3.85348 -5.36497e-20 2.80444)
(-4.7663 -5.48309e-20 2.75859)
(-5.67387 -2.78425e-20 2.65525)
(-6.55484 0 2.48516)
(-7.38255 2.12739e-20 2.24117)
(-8.1254 -5.27542e-20 1.91887)
(-8.74778 -3.0234e-20 1.51763)
(-9.21182 1.47606e-20 1.04159)
(-9.47961 -1.45094e-20 0.500448)
(-9.51699 0 -0.0888634)
(-9.30161 1.24022e-20 -0.699982)
(-8.83303 -1.20936e-20 -1.29148)
(-8.12209 -8.12698e-21 -1.82134)
(-7.19773 9.30185e-21 -2.25535)
(-6.10137 -8.58923e-22 -2.57033)
(-4.88275 -2.09008e-20 -2.75616)
(-3.59496 -1.32795e-20 -2.81616)
(-2.28796 1.53351e-21 -2.76586)
(-0.988974 9.45743e-21 -2.62902)
(0.279664 0 -2.42462)
(1.40218 -3.47901e-21 -2.19769)
(2.46311 -1.28394e-21 -1.9693)
(3.4349 1.02835e-22 -1.75331)
(4.31758 7.74084e-23 -1.5567)
(5.10575 5.61903e-22 -1.38486)
(5.99405 9.9749e-22 -1.25449)
(-0.385747 -6.00445e-20 3.42046)
(-1.1643 1.19099e-19 3.52516)
(-2.0291 -5.61718e-20 3.57684)
(-2.88928 6.15293e-23 3.61373)
(-3.77712 -2.77632e-20 3.60983)
(-4.6761 4.22204e-20 3.54843)
(-5.57134 -1.2195e-20 3.4142)
(-6.44157 -1.78442e-21 3.19421)
(-7.25967 1.52249e-20 2.87815)
(-7.9928 4.47491e-20 2.45933)
(-8.6036 -3.27019e-20 1.93636)
(-9.05226 -3.07139e-20 1.31476)
(-9.29864 -8.04018e-22 0.608017)
(-9.30591 0 -0.160053)
(-9.05574 0 -0.951379)
(-8.55446 0 -1.71093)
(-7.81655 -2.58867e-21 -2.38554)
(-6.87443 0 -2.93325)
(-5.77107 7.21301e-21 -3.32648)
(-4.55616 6.23002e-21 -3.55438)
(-3.28164 1.40083e-20 -3.62295)
(-1.9956 6.56127e-21 -3.55275)
(-0.71548 -9.37939e-21 -3.37092)
(0.509389 -6.38478e-22 -3.10571)
(1.60863 -3.26062e-21 -2.81247)
(2.64416 0 -2.52002)
(3.5896 -4.96879e-22 -2.24262)
(4.44686 -3.92463e-22 -1.98945)
(5.20785 0 -1.7675)
(6.06746 -9.92294e-22 -1.59179)
(-0.358754 1.52215e-20 4.18706)
(-1.10752 0 4.30183)
(-1.93785 -2.93169e-20 4.36053)
(-2.76114 2.82523e-20 4.40205)
(-3.61498 -2.82845e-20 4.39574)
(-4.48128 5.90545e-20 4.32082)
(-5.34615 0 4.15779)
(-6.18864 -1.54514e-20 3.88982)
(-6.98163 1.50511e-20 3.50313)
(-7.69153 -9.67043e-20 2.98833)
(-8.27942 -3.45756e-20 2.34282)
(-8.70351 3.22665e-20 1.57329)
(-8.921 -7.43081e-22 0.697443)
(-8.89114 3.17181e-20 -0.253122)
(-8.60364 0 -1.2258)
(-8.07131 0 -2.15003)
(-7.31299 0 -2.96273)
(-6.36407 0 -3.61604)
(-5.26802 7.04223e-21 -4.07944)
(-4.07328 -1.40761e-21 -4.34244)
(-2.82988 -5.4593e-21 -4.41451)
(-1.58179 3.09008e-21 -4.32116)
(-0.334438 -3.05498e-21 -4.08858)
(0.819842 -6.82506e-22 -3.76583)
(1.88856 -3.92642e-21 -3.40869)
(2.88596 1.81306e-22 -3.05362)
(3.79473 -1.99551e-21 -2.71575)
(4.61732 9.90108e-24 -2.40667)
(5.34379 2.69199e-24 -2.13506)
(6.16515 -1.21e-23 -1.91384)
(-0.31887 -1.50357e-20 4.90393)
(-1.02096 -7.61744e-21 5.03334)
(-1.79203 5.90413e-20 5.10167)
(-2.55501 -4.3952e-20 5.14993)
(-3.351 1.44862e-20 5.14371)
(-4.16086 -7.40207e-20 5.05832)
(-4.97261 7.7041e-20 4.86997)
(-5.7664 0 4.55765)
(-6.51584 0 4.10359)
(-7.18724 -3.68483e-20 3.49508)
(-7.7402 -3.65417e-20 2.72747)
(-8.13056 0 1.80841)
(-8.31208 0 0.760993)
(-8.23831 -1.49594e-20 -0.373438)
(-7.91352 0 -1.52448)
(-7.35571 -6.99172e-21 -2.60567)
(-6.58849 0 -3.5459)
(-5.64879 2.06505e-20 -4.294)
(-4.57909 7.45615e-21 -4.81825)
(-3.42457 1.97591e-20 -5.10903)
(-2.23311 4.46959e-21 -5.17942)
(-1.03948 -1.13329e-21 -5.05857)
(0.145009 -3.23986e-21 -4.77283)
(1.22326 0 -4.39516)
(2.24481 -8.24163e-22 -3.97945)
(3.19121 5.06203e-21 -3.56399)
(4.0523 1.80373e-21 -3.16747)
(4.83052 0 -2.80404)
(5.51486 0 -2.48406)
(6.28834 1.51225e-21 -2.21807)
(-0.263997 1.29478e-19 5.56215)
(-0.893461 3.86301e-20 5.70244)
(-1.58575 7.65867e-22 5.77812)
(-2.26245 -5.76274e-20 5.83422)
(-2.97341 -3.73158e-21 5.83089)
(-3.69969 0 5.73928)
(-4.43241 -6.19884e-20 5.53098)
(-5.15374 6.59432e-20 5.18037)
(-5.83896 6.53613e-20 4.66511)
(-6.45504 6.74685e-20 3.96825)
(-6.96029 1.382e-19 3.08196)
(-7.30739 -7.13754e-20 2.01406)
(-7.4458 0 0.794548)
(-7.32091 -1.69945e-20 -0.5224)
(-6.96192 0 -1.84452)
(-6.3888 2.18761e-20 -3.07034)
(-5.62935 -2.34825e-20 -4.12393)
(-4.71973 2.18369e-20 -4.95386)
(-3.69938 -3.325e-21 -5.52931)
(-2.608 -4.2582e-20 -5.84096)
(-1.49048 -2.23e-20 -5.90442)
(-0.364331 3.4942e-21 -5.74784)
(0.712522 2.0296e-20 -5.41633)
(1.7209 0 -4.98687)
(2.67703 9.07136e-21 -4.51724)
(3.55968 9.31968e-22 -4.04458)
(4.36195 2.5555e-21 -3.59216)
(5.08604 0 -3.17682)
(5.72076 -1.49656e-22 -2.81054)
(6.43717 -1.50471e-21 -2.50135)
(-0.212534 -1.26339e-19 6.12738)
(-0.745428 3.19122e-20 6.28087)
(-1.32122 -4.61941e-20 6.36453)
(-1.88113 9.27708e-20 6.42926)
(-2.4776 1.58215e-19 6.43198)
(-3.09093 6.40962e-20 6.33968)
(-3.7164 6.3817e-20 6.11884)
(-4.33911 -1.32944e-19 5.73872)
(-4.9371 0 5.17163)
(-5.47902 7.13211e-20 4.39529)
(-5.92239 7.34959e-20 3.39716)
(-6.21546 7.90479e-20 2.18357)
(-6.30243 0 0.793413)
(-6.11843 0 -0.700595)
(-5.73342 0 -2.17955)
(-5.1613 -3.07285e-20 -3.53203)
(-4.43194 -2.74464e-20 -4.68192)
(-3.57758 0 -5.58007)
(-2.63147 0 -6.19724)
(-1.62895 4.36836e-20 -6.52296)
(-0.605348 4.15774e-21 -6.5738)
(0.420119 4.95784e-21 -6.37836)
(1.37954 -4.82868e-20 -6.0089)
(2.30815 -1.68173e-20 -5.53439)
(3.1825 1.02835e-21 -5.01468)
(3.98868 -6.6538e-21 -4.48875)
(4.72104 4.00093e-21 -3.98425)
(5.38156 -2.82437e-21 -3.52045)
(5.95952 5.27018e-22 -3.11079)
(6.61056 -4.10754e-24 -2.76089)
(-0.132822 3.2828e-20 6.57677)
(-0.55317 -4.82546e-20 6.7462)
(-0.999197 -1.3005e-19 6.83391)
(-1.41554 -5.855e-23 6.90765)
(-1.86772 -1.27522e-19 6.92018)
(-2.33772 -3.99255e-19 6.83391)
(-2.82631 2.69779e-19 6.60972)
(-3.32219 1.45717e-19 6.21131)
(-3.80724 8.286e-20 5.6049)
(-4.25331 4.15857e-21 4.76149)
(-4.61824 1.58908e-19 3.66183)
(-4.84357 -1.19935e-19 2.30837)
(-4.86669 -1.03558e-19 0.751099)
(-4.61671 -7.93418e-20 -0.907742)
(-4.22292 7.49583e-20 -2.51944)
(-3.67602 -1.75065e-20 -3.97465)
(-3.00523 2.75973e-20 -5.2017)
(-2.23421 -4.89712e-20 -6.15616)
(-1.38563 -1.78197e-20 -6.80687)
(-0.499988 -7.72383e-20 -7.1387)
(0.415526 4.94284e-20 -7.16852)
(1.2894 -3.84989e-21 -6.94658)
(2.1502 2.56305e-20 -6.54283)
(2.97809 1.74624e-20 -6.02962)
(3.75604 -9.77959e-21 -5.46419)
(4.47319 0 -4.88998)
(5.12499 -6.59505e-21 -4.33833)
(5.71313 2.67717e-21 -3.83062)
(6.22784 -3.71969e-22 -3.38146)
(6.80641 0 -2.99425)
(-0.0571712 0 6.96985)
(-0.346794 0 7.08424)
(-0.637151 -2.01037e-19 7.16034)
(-0.878651 1.29467e-19 7.24236)
(-1.15731 0 7.26861)
(-1.45452 1.33904e-19 7.19565)
(-1.77698 -2.79593e-19 6.97812)
(-2.11687 0 6.57389)
(-2.46091 -1.50849e-19 5.94239)
(-2.78629 8.2605e-20 5.0464)
(-3.05337 1.67078e-19 3.85776)
(-3.19231 -8.90299e-20 2.37493)
(-3.12371 1.09177e-19 0.661489)
(-2.81508 1.29402e-21 -1.13697)
(-2.44226 1.14116e-19 -2.84947)
(-1.952 -1.4112e-19 -4.38431)
(-1.37241 3.16474e-20 -5.66782)
(-0.71316 4.92855e-20 -6.66542)
(0.0174407 1.87315e-20 -7.3437)
(0.763767 4.54538e-20 -7.66839)
(1.5171 -3.76852e-20 -7.68376)
(2.27096 -1.07022e-20 -7.44156)
(3.01132 -2.69846e-20 -7.01176)
(3.72191 0 -6.46392)
(4.38956 1.02074e-20 -5.85827)
(5.00592 1.64803e-20 -5.24202)
(5.56745 0 -4.6494)
(6.07543 0 -4.10345)
(6.52128 1.4451e-21 -3.61962)
(7.02177 4.23672e-24 -3.19942)
(-0.060495 0 7.089)
(-0.208732 1.38375e-19 7.23327)
(-0.260908 1.35545e-19 7.31369)
(-0.290249 -2.66862e-19 7.40809)
(-0.369121 0 7.45411)
(-0.468153 2.76497e-19 7.4035)
(-0.599271 -1.61055e-21 7.20426)
(-0.756597 0 6.80868)
(-0.93193 0 6.17059)
(-1.11075 0 5.2458)
(-1.25799 -8.66199e-20 3.99673)
(-1.28472 1.48453e-19 2.41552)
(-1.06435 -9.2476e-20 0.560559)
(-0.748308 0 -1.36035)
(-0.436072 -4.00353e-20 -3.14072)
(-0.0335792 7.10974e-20 -4.74466)
(0.430153 -2.91358e-20 -6.07473)
(0.954399 2.79639e-20 -7.09268)
(1.52169 0 -7.77156)
(2.11798 -5.26758e-20 -8.10279)
(2.73101 2.6065e-20 -8.11409)
(3.34549 -3.16931e-20 -7.85826)
(3.94814 3.06907e-20 -7.40603)
(4.52678 1.98687e-21 -6.82895)
(5.07185 -1.95308e-21 -6.19004)
(5.57728 5.33653e-22 -5.5393)
(6.04042 1.05332e-20 -4.9131)
(6.46197 -4.98553e-21 -4.33567)
(6.83459 -1.53081e-21 -3.82292)
(7.25305 1.79382e-22 -3.37493)
(-0.00721843 1.86643e-18 7.1428)
(0.00884696 1.3623e-19 7.19795)
(0.148312 2.72941e-19 7.27153)
(0.33301 -2.55195e-19 7.3801)
(0.470243 2.729e-19 7.45171)
(0.583569 -5.38748e-19 7.43098)
(0.659138 -7.70805e-23 7.26007)
(0.702691 -2.31176e-19 6.88674)
(0.720111 1.5392e-19 6.26144)
(0.718172 0 5.33496)
(0.730951 -9.12271e-20 4.05016)
(0.88287 5.6355e-20 2.35404)
(1.23463 0 0.378474)
(1.48326 -1.78432e-19 -1.56825)
(1.70827 8.06089e-20 -3.37201)
(1.98962 -7.53948e-20 -4.98259)
(2.32018 2.92648e-20 -6.34473)
(2.70248 -2.81377e-20 -7.4002)
(3.12449 -8.58456e-20 -8.10461)
(3.57098 -1.48167e-21 -8.44561)
(4.02975 -5.10769e-20 -8.45385)
(4.48945 3.80703e-20 -8.18693)
(4.94076 2.54124e-20 -7.7171)
(5.37588 -3.70302e-20 -7.11771)
(5.78881 1.37006e-21 -6.45383)
(6.17568 -3.44615e-20 -5.77735)
(6.53455 -1.05393e-20 -5.12602)
(6.86538 5.05958e-21 -4.52479)
(7.16193 0 -3.9897)
(7.4963 3.75965e-23 -3.5198)
(-0.030139 2.27765e-18 6.94424)
(0.0882319 -1.02879e-18 6.9233)
(0.548843 -4.95529e-19 7.00437)
(0.981217 -7.62163e-19 7.13798)
(1.34365 5.0158e-19 7.2469)
(1.66949 0 7.26457)
(1.95201 -1.49153e-19 7.12735)
(2.19945 3.57243e-19 6.77964)
(2.41952 -1.61747e-19 6.16995)
(2.6189 1.60088e-19 5.24456)
(2.83358 0 3.94143)
(3.14213 -6.94093e-20 2.25191)
(3.50407 -3.3169e-22 0.323725)
(3.71158 1.79365e-22 -1.65003)
(3.86492 2.48938e-21 -3.49086)
(4.04721 7.4378e-20 -5.14223)
(4.26449 -1.23736e-19 -6.54251)
(4.51593 0 -7.62479)
(4.79256 -6.63766e-22 -8.3435)
(5.08289 -6.67885e-22 -8.68968)
(5.37856 -4.07677e-20 -8.69533)
(5.67385 -5.06237e-20 -8.42047)
(5.96497 -8.56941e-20 -7.9389)
(6.24914 -3.43094e-21 -7.32528)
(6.52407 2.10932e-21 -6.64579)
(6.78798 -1.09229e-21 -5.95329)
(7.03953 2.72765e-22 -5.28615)
(7.27771 6.27354e-21 -4.66953)
(7.49717 2.37754e-23 -4.11925)
(7.74726 -2.49588e-22 -3.63383)
(-0.0120979 -4.51931e-18 5.98242)
(0.220613 9.04096e-19 6.29924)
(0.976587 -1.27248e-21 6.47309)
(1.65198 7.64442e-19 6.66774)
(2.23596 0 6.83851)
(2.76259 3.2846e-19 6.90961)
(3.23864 -4.6704e-19 6.8152)
(3.67785 2.15149e-19 6.49967)
(4.09073 -2.28165e-19 5.91117)
(4.48499 -1.05963e-20 4.99331)
(4.88293 0 3.69234)
(5.29081 -8.94142e-20 2.03261)
(5.66252 1.8053e-19 0.149213)
(5.84782 2.09816e-21 -1.76677)
(5.958 2.34842e-19 -3.58686)
(6.07047 0 -5.24619)
(6.19732 -2.72925e-20 -6.66477)
(6.3343 1.05377e-19 -7.76176)
(6.47353 1.06666e-19 -8.48674)
(6.60893 6.66974e-20 -8.83303)
(6.7392 -1.15494e-20 -8.83517)
(6.8664 5.87566e-20 -8.55534)
(6.99388 5.17269e-20 -8.06842)
(7.1245 3.53371e-20 -7.44939)
(7.25988 2.16364e-21 -6.76446)
(7.40025 3.46607e-23 -6.06637)
(7.54461 -9.61225e-22 -5.39329)
(7.69084 -6.67429e-21 -4.7701)
(7.83418 1.56864e-22 -4.2121)
(8.00174 0 -3.71774)
(9.98955 0 0.14848)
(9.97709 0 0.290084)
(9.95435 2.56806e-21 0.428732)
(9.9192 -3.38909e-19 0.567986)
(9.87462 8.67762e-20 0.709919)
(9.82242 8.91768e-20 0.856291)
(9.76298 -9.7428e-20 1.00892)
(9.69638 1.1719e-20 1.16973)
(9.62282 -1.09215e-19 1.34074)
(9.54253 -9.38715e-20 1.52402)
(9.45571 -1.82639e-21 1.72169)
(9.36244 -9.28926e-20 1.93586)
(9.26279 -1.34482e-20 2.16859)
(9.15677 -9.83557e-20 2.42189)
(9.04434 -1.29538e-19 2.69772)
(8.92544 -7.0441e-20 2.99804)
(8.79997 1.48812e-20 3.32492)
(8.66777 0 3.68077)
(8.52862 5.81733e-20 4.06855)
(8.3822 -1.22456e-19 4.49216)
(8.22813 1.87639e-19 4.95692)
(8.06584 -1.22507e-19 5.47017)
(7.89464 1.29436e-19 6.04215)
(7.71362 0 6.68745)
(7.52162 -1.23892e-19 7.42732)
(7.31797 2.05676e-19 8.29436)
(7.10512 -3.56734e-19 9.34287)
(6.92304 1.77847e-19 10.6752)
(7.07 0 12.4946)
(7.09949 2.75896e-19 15.885)
(9.99008 -1.18588e-21 0.153922)
(9.97938 -1.21288e-21 0.300677)
(9.95968 -1.55174e-19 0.444285)
(9.9288 1.63328e-19 0.588416)
(9.88964 -1.65584e-19 0.735177)
(9.84405 -7.95904e-20 0.886344)
(9.79245 -9.26751e-20 1.04375)
(9.73501 0 1.20936)
(9.67203 0 1.38519)
(9.60386 -1.06376e-19 1.57336)
(9.53087 -8.66052e-20 1.77601)
(9.45334 0 1.99525)
(9.37157 0 2.23318)
(9.28587 0 2.49181)
(9.19658 -1.35454e-20 2.77311)
(9.10407 1.26009e-19 3.07903)
(9.00882 1.10732e-19 3.41167)
(8.91138 0 3.7734)
(8.8125 -2.60564e-19 4.16715)
(8.71319 1.48809e-19 4.59679)
(8.61485 -1.20029e-19 5.06751)
(8.51959 2.89139e-19 5.58644)
(8.43067 -5.78493e-20 6.16342)
(8.35346 1.06393e-19 6.81213)
(8.29748 -3.04865e-19 7.55188)
(8.2813 -1.16928e-19 8.41043)
(8.34215 2.3803e-19 9.42757)
(8.53571 -7.76069e-20 10.6587)
(9.11966 1.16657e-19 12.1387)
(9.75764 -3.14157e-19 14.0451)
(9.99063 0 0.158803)
(9.98177 0 0.310165)
(9.96524 1.53963e-19 0.45818)
(9.93879 -4.90828e-21 0.606603)
(9.90526 3.16352e-19 0.757565)
(9.86651 2.46641e-19 0.912844)
(9.82302 1.58488e-19 1.07428)
(9.77502 1.08175e-20 1.24382)
(9.72292 0 1.42351)
(9.66721 9.22033e-20 1.61546)
(9.60839 9.27528e-20 1.82178)
(9.54697 0 2.04458)
(9.48349 0 2.28592)
(9.41855 0 2.54776)
(9.35286 -1.01147e-19 2.83201)
(9.28725 2.61094e-20 3.14052)
(9.22273 -2.38985e-19 3.47522)
(9.1606 0 3.83829)
(9.10253 2.16664e-19 4.23234)
(9.05074 0 4.66075)
(9.00829 1.04924e-19 5.12796)
(8.97954 -1.09943e-19 5.63986)
(8.97086 9.96238e-20 6.2042)
(8.99187 0 6.83098)
(9.05743 1.08308e-19 7.53262)
(9.19064 8.71361e-20 8.32323)
(9.42739 -2.26803e-20 9.21485)
(9.79154 0 10.2103)
(10.411 -8.79656e-21 11.2886)
(11.2599 1.67558e-20 12.4379)
(9.99121 0 0.163064)
(9.98424 2.25911e-21 0.318431)
(9.97098 -1.44492e-19 0.470235)
(9.94909 -4.72003e-21 0.622297)
(9.92134 1.55931e-19 0.776758)
(9.88961 -1.59861e-19 0.935388)
(9.85442 -1.52487e-19 1.10001)
(9.81606 -1.0401e-20 1.27255)
(9.77505 8.46756e-20 1.45504)
(9.732 0 1.64954)
(9.68756 -1.01803e-19 1.85814)
(9.64243 -6.77027e-20 2.08288)
(9.59739 -1.16973e-20 2.32573)
(9.55331 -2.38794e-20 2.58856)