/*--------------------------------*- C++ -*----------------------------------*\
| =========                 |                                                 |
| \\      /  F ield         | OpenFOAM: The Open Source CFD Toolbox           |
|  \\    /   O peration     | Version:  dev                                   |
|   \\  /    A nd           | Web:      www.OpenFOAM.org                      |
|    \\/     M anipulation  |                                                 |
\*---------------------------------------------------------------------------*/
FoamFile
{
    version     2.0;
    format      ascii;
    class       surfaceScalarField;
    location    "4.51";
    object      meshPhi;
}
// * * * * * * * * * * * * * * * * * * * * * * * * * * * * * * * * * * * * * //

dimensions      [0 3 -1 0 0 0 0];

internalField   nonuniform List<scalar> 
5457
(
6.04186e-07
-1.20968e-07
-4.67051e-07
-3.2558e-07
-4.18682e-06
-4.52023e-07
-1.07505e-05
-4.89663e-07
-1.97665e-05
-4.40193e-07
-3.04676e-05
-3.11598e-07
-4.1881e-05
-1.16726e-07
-5.2973e-05
1.27476e-07
-6.27686e-05
4.00685e-07
-7.04436e-05
6.80144e-07
-7.53974e-05
9.4224e-07
-7.73032e-05
1.16454e-06
-7.61294e-05
1.3283e-06
-7.21277e-05
1.42005e-06
-6.57871e-05
1.43281e-06
-5.77651e-05
1.36869e-06
-4.88002e-05
1.23855e-06
-3.96192e-05
1.05941e-06
-3.08553e-05
8.52161e-07
-2.29865e-05
6.38369e-07
-1.64271e-05
4.43563e-07
-1.12704e-05
2.87955e-07
-7.33692e-06
1.72174e-07
-4.48716e-06
9.04562e-08
-2.53478e-06
3.90523e-08
-1.2831e-06
1.16242e-08
-5.49426e-07
3.39274e-10
-1.76564e-07
-2.20341e-09
-3.45395e-08
-1.57153e-09
-3.70602e-10
8.22039e-07
-2.44735e-07
-9.50788e-08
-6.58969e-07
-3.72705e-06
-9.15927e-07
-1.02585e-05
-9.94529e-07
-1.92923e-05
-8.98233e-07
-3.00551e-05
-6.42924e-07
-4.15656e-05
-2.54128e-07
-5.27808e-05
2.34455e-07
-6.27167e-05
7.82361e-07
-7.05379e-05
1.34413e-06
-7.56314e-05
1.87243e-06
-7.76585e-05
2.32206e-06
-7.65785e-05
2.65465e-06
-7.2638e-05
2.84265e-06
-6.63243e-05
2.87281e-06
-5.82975e-05
2.74933e-06
-4.93034e-05
2.4931e-06
-4.00777e-05
2.13793e-06
-3.12632e-05
1.72571e-06
-2.3349e-05
1.30001e-06
-1.67316e-05
9.10627e-07
-1.15091e-05
5.96663e-07
-7.52232e-06
3.61193e-07
-4.62488e-06
1.94161e-07
-2.63071e-06
8.80586e-08
-1.34306e-06
3.02373e-08
-5.81093e-07
5.06317e-09
-1.89267e-07
-2.10332e-09
-3.78726e-08
-2.19385e-09
-5.55239e-10
1.07938e-06
-3.72486e-07
3.59655e-07
-1.00365e-06
-3.13643e-06
-1.39751e-06
-9.58582e-06
-1.52288e-06
-1.85879e-05
-1.38511e-06
-2.93671e-05
-1.00789e-06
-4.09387e-05
-4.29087e-07
-5.22535e-05
3.00901e-07
-6.23242e-05
1.12175e-06
-7.03088e-05
1.96606e-06
-7.55834e-05
2.76315e-06
-7.77966e-05
3.44503e-06
-7.68947e-05
3.95316e-06
-7.31127e-05
4.24558e-06
-6.69281e-05
4.30349e-06
-5.89956e-05
4.13267e-06
-5.00597e-05
3.76259e-06
-4.08578e-05
3.24294e-06
-3.20372e-05
2.63595e-06
-2.40929e-05
2.00678e-06
-1.73985e-05
1.4267e-06
-1.20592e-05
9.51018e-07
-7.95383e-06
5.88272e-07
-4.94424e-06
3.27756e-07
-2.84972e-06
1.59128e-07
-1.47713e-06
6.38234e-08
-6.49764e-07
1.87893e-08
-2.15476e-07
2.47364e-09
-4.42874e-08
-1.1052e-09
-3.72997e-10
1.35848e-06
-5.05121e-07
8.71729e-07
-1.36239e-06
-2.44105e-06
-1.90172e-06
-8.75392e-06
-2.08213e-06
-1.7666e-05
-1.91073e-06
-2.84025e-05
-1.41929e-06
-3.9982e-05
-6.58347e-07
-5.13569e-05
3.05784e-07
-6.15405e-05
1.39389e-06
-6.96897e-05
2.51754e-06
-7.51742e-05
3.58354e-06
-7.76313e-05
4.50195e-06
-7.69912e-05
5.19498e-06
-7.347e-05
5.60638e-06
-6.7528e-05
5.70992e-06
-5.98048e-05
5.51138e-06
-5.10321e-05
5.04785e-06
-4.19398e-05
4.38343e-06
-3.31723e-05
3.59914e-06
-2.52247e-05
2.78038e-06
-1.84404e-05
2.01606e-06
-1.29316e-05
1.37428e-06
-8.63635e-06
8.72755e-07
-5.44435e-06
5.05781e-07
-3.18728e-06
2.62244e-07
-1.68088e-06
1.18557e-07
-7.52459e-07
4.48579e-08
-2.53404e-07
1.29895e-08
-5.30577e-08
2.13102e-09
2.35561e-10
1.71024e-06
-6.43877e-07
1.52481e-06
-1.73882e-06
-1.54489e-06
-2.43422e-06
-7.669e-06
-2.67984e-06
-1.64487e-05
-2.48527e-06
-2.71097e-05
-1.89053e-06
-3.8675e-05
-9.58869e-07
-5.01064e-05
2.28804e-07
-6.04179e-05
1.57596e-06
-6.87627e-05
2.97352e-06
-7.45064e-05
4.3071e-06
-7.72752e-05
5.46649e-06
-7.69789e-05
6.35554e-06
-7.38101e-05
6.90353e-06
-6.82056e-05
7.07504e-06
-6.07822e-05
6.87419e-06
-5.2252e-05
6.34412e-06
-4.33315e-05
5.56119e-06
-3.46593e-05
4.62326e-06
-2.67287e-05
3.63424e-06
-1.98362e-05
2.69539e-06
-1.40998e-05
1.88264e-06
-9.54379e-06
1.22776e-06
-6.10203e-06
7.37764e-07
-3.62412e-06
4.03724e-07
-1.93911e-06
1.98059e-07
-8.79601e-07
8.48739e-08
-2.99064e-07
2.99095e-08
-6.3115e-08
7.54026e-09
1.23979e-09
2.13794e-06
-7.89851e-07
2.32329e-06
-2.1361e-06
-4.44103e-07
-2.99982e-06
-6.32694e-06
-3.32251e-06
-1.49294e-05
-3.11814e-06
-2.54825e-05
-2.43476e-06
-3.70116e-05
-1.34664e-06
-4.84883e-05
5.10062e-08
-5.89345e-05
1.64516e-06
-6.7501e-05
3.30826e-06
-7.35476e-05
4.90653e-06
-7.66883e-05
6.31059e-06
-7.6811e-05
7.40642e-06
-7.40808e-05
8.10885e-06
-6.89046e-05
8.37281e-06
-6.18692e-05
8.19914e-06
-5.36608e-05
7.63459e-06
-4.49766e-05
6.76498e-06
-3.64455e-05
5.70218e-06
-2.8559e-05
4.56663e-06
-2.15503e-05
3.46675e-06
-1.55353e-05
2.48054e-06
-1.06506e-05
1.65781e-06
-6.89515e-06
1.02689e-06
-4.14223e-06
5.85303e-07
-2.23722e-06
3.02834e-07
-1.02135e-06
1.3852e-07
-3.48133e-07
5.26931e-08
-7.32968e-08
1.47666e-08
2.53279e-09
2.64398e-06
-9.4401e-07
3.27114e-06
-2.55702e-06
8.65844e-07
-3.60339e-06
-4.72487e-06
-4.01764e-06
-1.31054e-05
-3.81934e-06
-2.35159e-05
-3.06419e-06
-3.4984e-05
-1.83659e-06
-4.64886e-05
-2.45838e-07
-5.70659e-05
1.57998e-06
-6.58715e-05
3.49763e-06
-7.22566e-05
5.35576e-06
-7.58209e-05
7.00666e-06
-7.64294e-05
8.31945e-06
-7.42162e-05
9.1948e-06
-6.95527e-05
9.57736e-06
-6.29896e-05
9.46301e-06
-5.51803e-05
8.89935e-06
-4.67969e-05
7.97846e-06
-3.84523e-05
6.82277e-06
-3.06377e-05
5.56629e-06
-2.35125e-05
4.32009e-06
-1.71796e-05
3.15989e-06
-1.19086e-05
2.1569e-06
-7.78488e-06
1.36859e-06
-4.71253e-06
8.03236e-07
-2.55602e-06
4.29777e-07
-1.16687e-06
2.0347e-07
-3.95897e-07
7.99111e-08
-8.23867e-08
2.31701e-08
3.95905e-09
3.23062e-06
-1.10719e-06
4.37196e-06
-3.00403e-06
2.39006e-06
-4.24965e-06
-2.85811e-06
-4.77258e-06
-1.09723e-05
-4.59797e-06
-2.12006e-05
-3.78976e-06
-3.25781e-05
-2.44232e-06
-4.40908e-05
-6.77821e-07
-5.4789e-05
1.36194e-06
-6.38383e-05
3.52004e-06
-7.05849e-05
5.62968e-06
-7.46127e-05
7.52667e-06
-7.57626e-05
9.06456e-06
-7.41345e-05
1.01301e-05
-7.00599e-05
1.06572e-05
-6.40476e-05
1.06349e-05
-5.67118e-05
1.01091e-05
-4.8693e-05
9.17444e-06
-4.05831e-05
7.96047e-06
-3.28694e-05
6.61123e-06
-2.56268e-05
5.23524e-06
-1.89447e-05
3.90225e-06
-1.3246e-05
2.70938e-06
-8.71698e-06
1.75075e-06
-5.29641e-06
1.04858e-06
-2.87157e-06
5.72595e-07
-1.30382e-06
2.75769e-07
-4.37458e-07
1.09515e-07
-8.93273e-08
3.19655e-08
5.37267e-09
3.9001e-06
-1.28009e-06
5.62838e-06
-3.47922e-06
4.13275e-06
-4.94224e-06
-7.19768e-07
-5.59289e-06
-8.52084e-06
-5.46176e-06
-1.85241e-05
-4.62163e-06
-2.97779e-05
-3.17655e-06
-4.1276e-05
-1.25987e-06
-5.20793e-05
9.73643e-07
-6.13656e-05
3.35437e-06
-6.84815e-05
5.70275e-06
-7.29978e-05
7.84077e-06
-7.47292e-05
9.60784e-06
-7.37397e-05
1.08775e-05
-7.03172e-05
1.15723e-05
-6.49236e-05
1.16732e-05
-5.81284e-05
1.12214e-05
-5.05343e-05
1.03111e-05
-4.27083e-05
9.07483e-06
-3.51276e-05
7.66333e-06
-2.77727e-05
6.17788e-06
-2.07219e-05
4.67821e-06
-1.45741e-05
3.29123e-06
-9.62538e-06
2.15496e-06
-5.84865e-06
1.30822e-06
-3.15684e-06
7.22613e-07
-1.41909e-06
3.50369e-07
-4.68592e-07
1.39168e-07
-9.34974e-08
4.04134e-08
6.66299e-09
4.655e-06
-1.46326e-06
7.04241e-06
-3.98409e-06
6.09414e-06
-5.68288e-06
1.69272e-06
-6.48078e-06
-5.74521e-06
-6.41519e-06
-1.54775e-05
-5.56681e-06
-2.65679e-05
-4.04879e-06
-3.80213e-05
-2.00488e-06
-4.89075e-05
3.98743e-07
-5.84154e-05
2.98124e-06
-6.58954e-05
5.55165e-06
-7.09076e-05
7.92041e-06
-7.32419e-05
9.91537e-06
-7.2925e-05
1.13977e-05
-7.01999e-05
1.22786e-05
-6.54773e-05
1.25298e-05
-5.92774e-05
1.21857e-05
-5.21599e-05
1.13361e-05
-4.46623e-05
1.01135e-05
-3.72471e-05
8.67165e-06
-2.97978e-05
7.10061e-06
-2.23853e-05
5.44739e-06
-1.57943e-05
3.8714e-06
-1.0438e-05
2.55868e-06
-6.32222e-06
1.56669e-06
-3.3853e-06
8.70342e-07
-1.50121e-06
4.22314e-07
-4.86421e-07
1.66879e-07
-9.46054e-08
4.79736e-08
7.76536e-09
5.49881e-06
-1.65714e-06
8.61655e-06
-4.51953e-06
8.27018e-06
-6.47197e-06
4.37119e-06
-7.43559e-06
-2.65185e-06
-7.45714e-06
-1.20619e-05
-6.62591e-06
-2.29414e-05
-5.06288e-06
-3.43101e-05
-2.91996e-06
-4.5244e-05
-3.74131e-07
-5.49458e-05
2.38377e-06
-6.27711e-05
5.1544e-06
-6.82696e-05
7.73907e-06
-7.12089e-05
9.95525e-06
-7.15781e-05
1.16525e-05
-6.95739e-05
1.27313e-05
-6.55549e-05
1.31541e-05
-5.99894e-05
1.29466e-05
-5.33894e-05
1.21918e-05
-4.62571e-05
1.10178e-05
-3.90374e-05
9.57721e-06
-3.15286e-05
7.94734e-06
-2.37972e-05
6.16287e-06
-1.68047e-05
4.41508e-06
-1.10835e-05
2.93764e-06
-6.67362e-06
1.80846e-06
-3.53517e-06
1.00722e-06
-1.54229e-06
4.8785e-07
-4.89112e-07
1.9146e-07
-9.21947e-08
5.43742e-08
8.64798e-09
6.43668e-06
-1.86218e-06
1.03549e-05
-5.08627e-06
1.06569e-05
-7.30942e-06
7.30299e-06
-8.45572e-06
7.41367e-07
-8.58452e-06
-8.29316e-06
-7.79525e-06
-1.89056e-05
-6.21692e-06
-3.01396e-05
-4.0068e-06
-4.10744e-05
-1.34968e-06
-5.09232e-05
1.55322e-06
-5.90556e-05
4.49625e-06
-6.5012e-05
7.27508e-06
-6.85385e-05
9.69836e-06
-6.95862e-05
1.16058e-05
-6.83042e-05
1.28879e-05
-6.50002e-05
1.34971e-05
-6.00894e-05
1.34492e-05
-5.40343e-05
1.28187e-05
-4.72977e-05
1.17257e-05
-4.03053e-05
1.03182e-05
-3.27918e-05
8.6606e-06
-2.48213e-05
6.77716e-06
-1.75072e-05
4.88717e-06
-1.14978e-05
3.26853e-06
-6.86671e-06
2.01993e-06
-3.58994e-06
1.12674e-06
-1.5365e-06
5.44809e-07
-4.74515e-07
2.126e-07
-8.52006e-08
5.96568e-08
9.33109e-09
7.47649e-06
-2.07892e-06
1.2264e-05
-5.68511e-06
1.32509e-05
-8.19457e-06
1.04764e-05
-9.53862e-06
4.41557e-06
-9.79359e-06
-4.19552e-06
-9.06978e-06
-1.44811e-05
-7.5048e-06
-2.55176e-05
-5.26119e-06
-3.63981e-05
-2.52737e-06
-4.63372e-05
4.87943e-07
-5.47184e-05
3.572e-06
-6.10815e-05
6.51656e-06
-6.51516e-05
9.1247e-06
-6.68451e-05
1.12292e-05
-6.62642e-05
1.2712e-05
-6.3666e-05
1.35149e-05
-5.94117e-05
1.3643e-05
-5.39156e-05
1.31603e-05
-4.76036e-05
1.21778e-05
-4.08779e-05
1.08362e-05
-3.34336e-05
9.18753e-06
-2.53363e-05
7.24705e-06
-1.78182e-05
5.25668e-06
-1.16297e-05
3.53189e-06
-6.87321e-06
2.19072e-06
-3.53551e-06
1.22479e-06
-1.47645e-06
5.92633e-07
-4.3805e-07
2.30983e-07
-7.09353e-08
6.43129e-08
9.93796e-09
8.629e-06
-2.30817e-06
1.43532e-05
-6.31729e-06
1.60461e-05
-9.12628e-06
1.38774e-05
-1.06802e-05
8.35168e-06
-1.10784e-05
2.07384e-07
-1.04423e-05
-9.69573e-06
-8.91808e-06
-2.04648e-05
-6.67391e-06
-3.12233e-05
-3.90012e-06
-4.11892e-05
-8.08661e-07
-4.97498e-05
2.38191e-06
-5.64496e-05
5.45981e-06
-6.0996e-05
8.22504e-06
-6.32772e-05
1.05059e-05
-6.33538e-05
1.21775e-05
-6.14322e-05
1.31727e-05
-5.78214e-05
1.34858e-05
-5.28903e-05
1.31696e-05
-4.70295e-05
1.23245e-05
-4.0617e-05
1.10826e-05
-3.33334e-05
9.48462e-06
-2.52511e-05
7.53789e-06
-1.76777e-05
5.49939e-06
-1.14423e-05
3.7129e-06
-6.67048e-06
2.31316e-06
-3.35567e-06
1.29864e-06
-1.3481e-06
6.31449e-07
-3.68008e-07
2.4803e-07
-4.19084e-08
6.95964e-08
1.08752e-08
9.78192e-06
-2.52369e-06
1.65568e-05
-6.94247e-06
1.90512e-05
-1.00938e-05
1.75012e-05
-1.18851e-05
1.25417e-05
-1.24406e-05
4.90709e-06
-1.19133e-05
-4.55833e-06
-1.04566e-05
-1.49884e-05
-8.24447e-06
-2.5544e-05
-5.46862e-06
-3.54591e-05
-2.34051e-06
-4.41201e-05
9.18696e-07
-5.10744e-05
4.09419e-06
-5.60177e-05
6.98476e-06
-5.88146e-05
9.41658e-06
-5.94893e-05
1.12601e-05
-5.82017e-05
1.24405e-05
-5.5213e-05
1.29427e-05
-5.08495e-05
1.28085e-05
-4.54687e-05
1.21276e-05
-3.94277e-05
1.10222e-05
-3.2416e-05
9.5226e-06
-2.45119e-05
7.62769e-06
-1.70506e-05
5.60042e-06
-1.0911e-05
3.80252e-06
-6.237e-06
2.38244e-06
-3.02607e-06
1.34606e-06
-1.12185e-06
6.60382e-07
-2.30911e-07
2.63767e-07
3.40784e-08
7.69071e-08
1.231e-08
2.00721e-07
3.67207e-10
1.05536e-06
3.7577e-09
3.46477e-06
1.14326e-08
8.24866e-06
2.81677e-08
1.59139e-05
5.07446e-08
2.65887e-05
6.52093e-08
4.00795e-05
4.73818e-08
5.59909e-05
-3.19447e-08
7.38498e-05
-1.98933e-07
9.1513e-05
-4.70792e-07
0.000107231
-8.51673e-07
0.000121673
-1.3287e-06
0.000135198
-1.8625e-06
0.000147494
-2.41086e-06
0.000158212
-2.94171e-06
0.000166976
-3.41934e-06
0.000173434
-3.81724e-06
0.000177275
-4.11785e-06
0.00017825
-4.31473e-06
0.000176193
-4.40735e-06
0.000171024
-4.39775e-06
0.00016276
-4.29639e-06
0.000151489
-4.10887e-06
0.000137345
-3.8345e-06
0.000120492
-3.47889e-06
0.000101096
-3.04482e-06
7.92783e-05
-2.52897e-06
5.50958e-05
-1.92489e-06
2.85096e-05
-1.22472e-06
-4.2748e-07
2.06916e-07
9.90222e-10
1.08733e-06
7.7502e-09
3.53958e-06
2.41327e-08
8.3544e-06
5.78409e-08
1.60146e-05
1.00901e-07
2.66422e-05
1.25436e-07
4.00451e-05
8.29052e-08
5.58266e-05
-8.32408e-08
7.34778e-05
-4.24317e-07
9.10801e-05
-9.69449e-07
0.000106822
-1.72284e-06
0.000121213
-2.66255e-06
0.000134758
-3.71819e-06
0.000147111
-4.80625e-06
0.000157903
-5.85595e-06
0.00016674
-6.79595e-06
0.00017326
-7.57693e-06
0.000177149
-8.17061e-06
0.000178157
-8.56081e-06
0.000176117
-8.74604e-06
0.000170954
-8.73195e-06
0.000162692
-8.53324e-06
0.000151418
-8.16053e-06
0.000137266
-7.6166e-06
0.000120409
-6.91123e-06
0.000101017
-6.05073e-06
7.92107e-05
-5.02697e-06
5.50458e-05
-3.8265e-06
2.84821e-05
-2.43446e-06
-8.4964e-07
2.13185e-07
1.5401e-09
1.11712e-06
1.13637e-08
3.58527e-06
3.59403e-08
8.35209e-06
8.36933e-08
1.58695e-05
1.40366e-07
2.62616e-05
1.63002e-07
3.93555e-05
8.11583e-08
5.47739e-05
-1.85513e-07
7.20178e-05
-7.09335e-07
8.93728e-05
-1.52474e-06
0.00010504
-2.63233e-06
0.000119406
-4.00537e-06
0.000133027
-5.54818e-06
0.000145517
-7.14037e-06
0.000156474
-8.67441e-06
0.000165487
-1.00505e-05
0.000172177
-1.11968e-05
0.00017622
-1.20707e-05
0.000177361
-1.26484e-05
0.000175429
-1.2927e-05
0.000170359
-1.29175e-05
0.000162181
-1.26314e-05
0.000150978
-1.20834e-05
0.000136886
-1.12858e-05
0.000120083
-1.0246e-05
0.000100753
-8.97237e-06
7.90131e-05
-7.45603e-06
5.49119e-05
-5.67639e-06
2.84127e-05
-3.61129e-06
-1.26027e-06
2.17244e-07
2.02001e-09
1.13001e-06
1.43135e-08
3.56531e-06
4.4797e-08
8.18959e-06
1.00167e-07
1.54236e-05
1.58591e-07
2.53988e-05
1.61999e-07
3.79792e-05
2.14085e-08
5.28266e-05
-3.62728e-07
6.94834e-05
-1.07531e-06
8.64068e-05
-2.15365e-06
0.000101912
-3.59516e-06
0.000116299
-5.36382e-06
0.000130051
-7.34507e-06
0.00014275
-9.38943e-06
0.000153956
-1.13602e-05
0.000163238
-1.31347e-05
0.000170196
-1.46197e-05
0.00017449
-1.57558e-05
0.000175857
-1.65126e-05
0.000174129
-1.68848e-05
0.000169241
-1.68842e-05
0.000161223
-1.65238e-05
0.000150167
-1.58213e-05
0.000136204
-1.47942e-05
0.00011952
-1.34454e-05
0.000100309
-1.178e-05
7.86885e-05
-9.79305e-06
5.46967e-05
-7.4591e-06
2.83027e-05
-4.74638e-06
-1.65631e-06
2.18973e-07
2.41249e-09
1.12504e-06
1.64827e-08
3.491e-06
4.97618e-08
7.91652e-06
1.04661e-07
1.47876e-05
1.5038e-07
2.42417e-05
1.157e-07
3.61863e-05
-1.03405e-07
5.03347e-05
-6.20507e-07
6.62774e-05
-1.52767e-06
8.2663e-05
-2.86172e-06
9.79684e-05
-4.6134e-06
0.000112393
-6.73568e-06
0.000126306
-9.10216e-06
0.000139252
-1.15427e-05
0.00015076
-1.38982e-05
0.000160366
-1.6026e-05
0.000167647
-1.78147e-05
0.000172248
-1.9191e-05
0.000173898
-2.01162e-05
0.000172427
-2.05809e-05
0.00016777
-2.05946e-05
0.000159959
-2.01738e-05
0.000149093
-1.93377e-05
0.000135307
-1.81024e-05
0.000118782
-1.64734e-05
9.97241e-05
-1.44495e-05
7.82574e-05
-1.20217e-05
5.4413e-05
-9.16371e-06
2.81585e-05
-5.83424e-06
-2.03626e-06
2.16981e-07
2.61882e-09
1.09984e-06
1.71441e-08
3.36703e-06
4.90558e-08
7.55479e-06
9.42848e-08
1.4012e-05
1.12213e-07
2.28837e-05
2.06357e-08
3.41206e-05
-2.95337e-07
4.74977e-05
-9.58115e-07
6.2664e-05
-2.06424e-06
7.84561e-05
-3.64566e-06
9.35319e-05
-5.68037e-06
0.000107991
-8.1119e-06
0.000122068
-1.08085e-05
0.000135272
-1.35871e-05
0.000147096
-1.62724e-05
0.000157047
-1.87058e-05
0.000164677
-2.07612e-05
0.000169613
-2.23531e-05
0.000171576
-2.34343e-05
0.000170394
-2.39899e-05
0.000166
-2.40262e-05
0.000158429
-2.35598e-05
0.000147784
-2.26087e-05
0.000134206
-2.1188e-05
0.000117877
-1.93064e-05
9.90038e-05
-1.69558e-05
7.77199e-05
-1.41194e-05
5.40586e-05
-1.07695e-05
2.79796e-05
-6.86048e-06
-2.39532e-06
2.10967e-07
2.5396e-09
1.05784e-06
1.5587e-08
3.20664e-06
4.11039e-08
7.13405e-06
6.69142e-08
1.3155e-05
4.26748e-08
2.14246e-05
-1.22881e-07
3.19336e-05
-5.51158e-07
4.45226e-05
-1.36915e-06
5.89064e-05
-2.67609e-06
7.40917e-05
-4.49403e-06
8.89176e-05
-6.78303e-06
0.000103395
-9.47985e-06
0.000117615
-1.24524e-05
0.000131057
-1.5512e-05
0.000143181
-1.84724e-05
0.000153465
-2.11635e-05
0.000161437
-2.34479e-05
0.000166708
-2.52296e-05
0.000168991
-2.6453e-05
0.000168108
-2.70969e-05
0.000163994
-2.71626e-05
0.000156681
-2.66653e-05
0.000146273
-2.56215e-05
0.000132922
-2.40439e-05
0.000116822
-2.19359e-05
9.81662e-05
-1.92851e-05
7.70875e-05
-1.60715e-05
5.36294e-05
-1.22643e-05
2.77605e-05
-7.81568e-06
-2.72954e-06
2.02025e-07
2.07964e-09
1.00575e-06
1.15315e-08
3.02614e-06
2.53238e-08
6.68785e-06
2.20977e-08
1.22799e-05
-5.74879e-08
1.99676e-05
-3.11544e-07
2.97763e-05
-8.64375e-07
4.16072e-05
-1.84347e-06
5.52435e-05
-3.34893e-06
6.98455e-05
-5.39089e-06
8.44147e-05
-7.90611e-06
9.88813e-05
-1.08256e-05
0.000113206
-1.40231e-05
0.000126841
-1.73098e-05
0.000139221
-2.04929e-05
0.000149797
-2.33954e-05
0.000158076
-2.58718e-05
0.000163658
-2.78174e-05
0.000166242
-2.9168e-05
0.000165648
-2.98966e-05
0.00016181
-2.99998e-05
0.000154757
-2.9487e-05
0.000144598
-2.83722e-05
0.000131497
-2.66619e-05
0.000115648
-2.43522e-05
9.723e-05
-2.14298e-05
7.63701e-05
-1.78727e-05
5.31317e-05
-1.36467e-05
2.75048e-05
-8.69973e-06
-3.03869e-06
1.91831e-07
1.22774e-09
9.50242e-07
5.10934e-09
2.84245e-06
2.03563e-09
6.25273e-06
-3.92375e-08
1.14518e-05
-1.85833e-07
1.86126e-05
-5.40041e-07
2.77907e-05
-1.22638e-06
3.89341e-05
-2.36952e-06
5.18843e-05
-4.06657e-06
6.59448e-05
-6.31641e-06
8.02625e-05
-9.03279e-06
9.46892e-05
-1.21377e-05
0.000109066
-1.55133e-05
0.000122831
-1.89761e-05
0.0001354
-2.23332e-05
0.000146204
-2.54038e-05
0.000154732
-2.80365e-05
0.000160571
-3.01206e-05
0.000163419
-3.15855e-05
0.000163085
-3.23962e-05
0.000159503
-3.25435e-05
0.000152706
-3.2029e-05
0.000142806
-3.08592e-05
0.000129969
-2.90358e-05
0.000114379
-2.65496e-05
9.62033e-05
-2.3386e-05
7.55762e-05
-1.9521e-05
5.2584e-05
-1.49153e-05
2.72252e-05
-9.51199e-06
-3.32284e-06
1.81979e-07
-2.11351e-11
8.98254e-07
-3.5384e-09
2.67573e-06
-2.83542e-08
5.86915e-06
-1.15802e-07
1.0735e-05
-3.39086e-07
1.74509e-05
-8.02131e-07
2.6098e-05
-1.62747e-06
3.6658e-05
-2.935e-06
4.90113e-05
-4.81574e-06
6.25815e-05
-7.25592e-06
7.66471e-05
-1.01479e-05
9.0997e-05
-1.34042e-05
0.000105369
-1.69168e-05
0.00011919
-2.0512e-05
0.000131867
-2.40001e-05
0.000142816
-2.71994e-05
0.000151517
-2.9956e-05
0.000157547
-3.21548e-05
0.000160602
-3.37203e-05
0.000160488
-3.46085e-05
0.000157138
-3.4801e-05
0.000150585
-3.42925e-05
0.000140942
-3.30822e-05
0.000128367
-3.11656e-05
0.000113029
-2.85288e-05
9.50995e-05
-2.51554e-05
7.47269e-05
-2.10171e-05
5.20048e-05
-1.60689e-05
2.69301e-05
-1.02514e-05
-3.58166e-06
1.74325e-07
-1.6702e-09
8.5923e-07
-1.4472e-08
2.55047e-06
-6.58823e-08
5.57968e-06
-2.0669e-07
1.01906e-05
-5.14172e-07
1.6563e-05
-1.09194e-06
2.47959e-05
-2.05897e-06
3.48956e-05
-3.52902e-06
4.67669e-05
-5.58551e-06
5.99147e-05
-8.20008e-06
7.37214e-05
-1.12424e-05
8.79419e-05
-1.46173e-05
0.000102242
-1.82313e-05
0.000116039
-2.19223e-05
0.000128732
-2.55036e-05
0.000139735
-2.87964e-05
0.000148523
-3.16472e-05
0.00015467
-3.39376e-05
0.000157867
-3.55867e-05
0.000157927
-3.65433e-05
0.000154774
-3.67795e-05
0.000148442
-3.62833e-05
0.000139039
-3.50465e-05
0.000126711
-3.30563e-05
0.000111619
-3.0295e-05
9.39453e-05
-2.67418e-05
7.38444e-05
-2.23621e-05
5.14043e-05
-1.7108e-05
2.66234e-05
-1.09184e-05
-3.81527e-06
1.71626e-07
-3.76026e-09
8.45519e-07
-2.80348e-08
2.49433e-06
-1.11136e-07
5.42799e-06
-3.11712e-07
9.87675e-06
-7.0912e-07
1.60184e-05
-1.40536e-06
2.39622e-05
-2.51486e-06
3.37304e-05
-4.14453e-06
4.52436e-05
-6.36902e-06
5.80484e-05
-9.14278e-06
7.15964e-05
-1.23117e-05
8.56349e-05
-1.57759e-05
9.97889e-05
-1.94591e-05
0.000113474
-2.32116e-05
0.000126086
-2.68519e-05
0.000137044
-3.02061e-05
0.000145827
-3.31229e-05
0.000152008
-3.54827e-05
0.000155281
-3.7199e-05
0.000155455
-3.82143e-05
0.000152456
-3.84934e-05
0.000146311
-3.80157e-05
0.000137123
-3.67641e-05
0.000125024
-3.47176e-05
0.000110175
-3.18552e-05
9.27661e-05
-2.81493e-05
7.29427e-05
-2.35592e-05
5.07894e-05
-1.8035e-05
2.63087e-05
-1.15144e-05
-4.02412e-06
1.7907e-07
-6.52586e-09
8.75144e-07
-4.53729e-08
2.542e-06
-1.66117e-07
5.46294e-06
-4.32578e-07
9.85125e-06
-9.24601e-07
1.58784e-05
-1.74176e-06
2.36575e-05
-2.99341e-06
3.32207e-05
-4.77977e-06
4.44975e-05
-7.16677e-06
5.70345e-05
-1.00862e-05
7.03249e-05
-1.33565e-05
8.41365e-05
-1.68809e-05
9.80739e-05
-2.06042e-05
0.000111557
-2.43879e-05
0.000123991
-2.80567e-05
0.000134804
-3.14433e-05
0.000143484
-3.44004e-05
0.000149613
-3.68084e-05
0.000152885
-3.8577e-05
0.000153112
-3.96425e-05
0.000150216
-3.9962e-05
0.000144222
-3.95064e-05
0.000135218
-3.82497e-05
0.000123328
-3.61633e-05
0.000108721
-3.32198e-05
9.15777e-05
-2.93849e-05
7.20313e-05
-2.46137e-05
5.01667e-05
-1.88537e-05
2.59896e-05
-1.20415e-05
-4.20891e-06
2.12063e-07
-1.10898e-08
9.83612e-07
-7.00182e-08
2.74705e-06
-2.36282e-07
5.74804e-06
-5.75926e-07
1.01793e-05
-1.16797e-06
1.62024e-05
-2.10857e-06
2.39309e-05
-3.50164e-06
3.34072e-05
-5.44271e-06
4.45691e-05
-7.99352e-06
5.68971e-05
-1.10489e-05
6.99115e-05
-1.43879e-05
8.34554e-05
-1.794e-05
9.71124e-05
-2.16799e-05
0.000110309
-2.54692e-05
0.000122469
-2.91392e-05
0.000133038
-3.25317e-05
0.00014152
-3.55055e-05
0.000147509
-3.79419e-05
0.000150705
-3.9748e-05
0.000150921
-4.08542e-05
0.000148078
-4.12098e-05
0.000142192
-4.07768e-05
0.000133342
-3.9521e-05
0.000121648
-3.74076e-05
0.000107277
-3.44004e-05
9.03921e-05
-3.04579e-05
7.11192e-05
-2.55323e-05
4.95419e-05
-1.95685e-05
2.56686e-05
-1.25022e-05
-4.37048e-06
3.50905e-07
-3.21306e-08
1.28637e-06
-1.20402e-07
3.2353e-06
-3.45949e-07
6.40275e-06
-7.69818e-07
1.09636e-05
-1.46848e-06
1.70707e-05
-2.53387e-06
2.48381e-05
-4.06514e-06
3.4326e-05
-6.15724e-06
4.54409e-05
-8.85058e-06
5.75842e-05
-1.20012e-05
7.03249e-05
-1.53916e-05
8.35715e-05
-1.89725e-05
9.6887e-05
-2.27175e-05
0.000109712
-2.64898e-05
0.000121502
-3.01348e-05
0.00013173
-3.35084e-05
0.000139922
-3.64766e-05
0.000145687
-3.89228e-05
0.000148732
-4.07518e-05
0.000148876
-4.18885e-05
0.000146036
-4.22748e-05
0.000140221
-4.18634e-05
0.0001315
-4.06119e-05
0.000119991
-3.84789e-05
0.000105846
-3.54202e-05
8.92117e-05
-3.13882e-05
7.02081e-05
-2.63309e-05
4.89161e-05
-2.01911e-05
2.53465e-05
-1.29038e-05
-4.51138e-06
1.1119e-05
-2.70219e-06
1.93108e-05
-7.49078e-06
2.30325e-05
-1.10306e-05
2.22041e-05
-1.31441e-05
1.76638e-05
-1.3899e-05
1.03113e-05
-1.34985e-05
9.97458e-07
-1.21354e-05
-9.40389e-06
-9.98755e-06
-2.00608e-05
-7.24773e-06
-3.02083e-05
-4.12371e-06
-3.92137e-05
-8.35229e-07
-4.66061e-05
2.4012e-06
-5.20627e-05
5.38432e-06
-5.5422e-05
7.94024e-06
-5.66759e-05
9.93674e-06
-5.59486e-05
1.12936e-05
-5.34679e-05
1.19874e-05
-4.95333e-05
1.20502e-05
-4.44863e-05
1.15613e-05
-3.86796e-05
1.06329e-05
-3.18183e-05
9.28561e-06
-2.398e-05
7.50703e-06
-1.65272e-05
5.55386e-06
-1.03973e-05
3.79629e-06
-5.75395e-06
2.39509e-06
-2.59718e-06
1.36398e-06
-7.6101e-07
6.75341e-07
6.27136e-08
2.7094e-07
2.72163e-07
7.40097e-08
7.72063e-11
2.01952e-07
1.21287e-05
-2.86482e-06
2.15104e-05
-7.96639e-06
2.6677e-05
-1.18504e-05
2.7052e-05
-1.4355e-05
2.31947e-05
-1.54263e-05
1.62839e-05
-1.52049e-05
7.33072e-06
-1.39563e-05
-2.80839e-06
-1.19036e-05
-1.33223e-05
-9.23566e-06
-2.34684e-05
-6.15352e-06
-3.26101e-05
-2.87355e-06
-4.02641e-05
3.87579e-07
-4.60951e-05
3.4304e-06
-4.99207e-05
6.08278e-06
-5.1704e-05
8.21179e-06
-5.15362e-05
9.73348e-06
-4.96125e-05
1.06181e-05
-4.62059e-05
1.08893e-05
-4.16414e-05
1.06174e-05
-3.62662e-05
9.90587e-06
-2.98244e-05
8.76985e-06
-2.23555e-05
7.17644e-06
-1.5177e-05
5.35617e-06
-9.26871e-06
3.68406e-06
-4.80545e-06
2.33636e-06
-1.78668e-06
1.33348e-06
-4.185e-08
6.53035e-07
7.36248e-07
2.41029e-07
9.37012e-07
2.46965e-08
-7.52543e-08
9.51469e-07
1.31342e-05
-3.02693e-06
2.35076e-05
-8.42249e-06
2.99282e-05
-1.25735e-05
3.18446e-05
-1.54095e-05
2.92004e-05
-1.68873e-05
2.2939e-05
-1.69888e-05
1.44068e-05
-1.59149e-05
4.62078e-06
-1.39822e-05
-5.65612e-06
-1.14215e-05
-1.57098e-05
-8.41618e-06
-2.48976e-05
-5.17953e-06
-3.27284e-05
-1.92902e-06
-3.88579e-05
1.1404e-06
-4.30866e-05
3.86046e-06
-4.53534e-05
6.0993e-06
-4.57214e-05
7.77103e-06
-4.43587e-05
8.84097e-06
-4.15169e-05
9.326e-06
-3.75103e-05
9.28924e-06
-3.26898e-05
8.82997e-06
-2.68785e-05
7.97361e-06
-1.99601e-05
6.64303e-06
-1.31548e-05
4.99937e-06
-7.55025e-06
3.4397e-06
-3.30496e-06
2.17053e-06
-4.20382e-07
1.21184e-06
1.27644e-06
5.47925e-07
2.08784e-06
1.28292e-07
2.39519e-06
-1.15122e-07
-2.55294e-07
2.57157e-06
1.42208e-05
-3.18541e-06
2.55876e-05
-8.8735e-06
3.29934e-05
-1.32721e-05
3.62403e-05
-1.63458e-05
3.52022e-05
-1.81601e-05
3.01537e-05
-1.86935e-05
2.22556e-05
-1.79593e-05
1.29054e-05
-1.62179e-05
2.9649e-06
-1.37963e-05
-6.91211e-06
-1.09008e-05
-1.6055e-05
-7.73881e-06
-2.39743e-05
-4.53339e-06
-3.03228e-05
-1.47045e-06
-3.48875e-05
1.28793e-06
-3.75883e-05
3.61236e-06
-3.84649e-05
5.41631e-06
-3.76623e-05
6.6612e-06
-3.54137e-05
7.35764e-06
-3.20244e-05
7.56169e-06
-2.7856e-05
7.36858e-06
-2.28572e-05
6.82312e-06
-1.66825e-05
5.82492e-06
-1.03337e-05
4.43873e-06
-5.04474e-06
3.02835e-06
-1.01036e-06
1.84658e-06
1.76829e-06
9.43711e-07
3.48025e-06
3.04549e-07
4.42847e-06
-1.2217e-07
4.98752e-06
-3.98135e-07
-5.882e-07
5.47116e-06
1.5389e-05
-3.33934e-06
2.78438e-05
-9.31331e-06
3.62368e-05
-1.3963e-05
4.0508e-05
-1.72546e-05
4.08621e-05
-1.92961e-05
3.74445e-05
-2.01809e-05
3.07431e-05
-1.99057e-05
2.20815e-05
-1.85471e-05
1.25747e-05
-1.63551e-05
2.94655e-06
-1.35915e-05
-6.0574e-06
-1.05286e-05
-1.39731e-05
-7.40244e-06
-2.04582e-05
-4.37875e-06
-2.52894e-05
-1.61149e-06
-2.8372e-05
7.72952e-07
-2.97254e-05
2.6883e-06
-2.94738e-05
4.09211e-06
-2.78302e-05
4.98818e-06
-2.50827e-05
5.4223e-06
-2.15808e-05
5.4749e-06
-1.73536e-05
5.18045e-06
-1.2057e-05
4.48316e-06
-6.39395e-06
3.44563e-06
-1.48953e-06
2.31454e-06
2.33661e-06
1.29434e-06
5.05038e-06
4.71572e-07
6.84256e-06
-1.38978e-07
8.02158e-06
-5.70275e-07
8.9396e-06
-8.7755e-07
-1.11723e-06
9.81563e-06
1.66468e-05
-3.48755e-06
3.02783e-05
-9.7386e-06
3.97649e-05
-1.46361e-05
4.50576e-05
-1.81537e-05
4.64817e-05
-2.04011e-05
4.44802e-05
-2.15116e-05
3.93573e-05
-2.15885e-05
3.18732e-05
-2.06867e-05
2.30927e-05
-1.89067e-05
1.38836e-05
-1.64261e-05
5.10135e-06
-1.35249e-05
-2.71255e-06
-1.05055e-05
-9.25061e-06
-7.5538e-06
-1.42749e-05
-4.80676e-06
-1.76828e-05
-2.38918e-06
-1.94745e-05
-3.85977e-07
-1.97529e-05
1.15549e-06
-1.8707e-05
2.2319e-06
-1.65935e-05
2.87668e-06
-1.37145e-05
3.15e-06
-1.00941e-05
3.06765e-06
-5.63052e-06
2.6172e-06
-8.59979e-07
1.90394e-06
3.46164e-06
1.10905e-06
7.01388e-06
3.51763e-07
9.6941e-06
-3.12196e-07
1.16207e-05
-8.54361e-07
1.30786e-05
-1.27574e-06
1.439e-05
-1.60654e-06
-1.88606e-06
1.5676e-05
1.79999e-05
-3.62864e-06
3.29023e-05
-1.01454e-05
4.35765e-05
-1.52849e-05
5.00004e-05
-1.90287e-05
5.24902e-05
-2.14939e-05
5.15851e-05
-2.28099e-05
4.78275e-05
-2.31148e-05
4.17319e-05
-2.25284e-05
3.4137e-05
-2.118e-05
2.57775e-05
-1.91762e-05
1.74216e-05
-1.66377e-05
9.80534e-06
-1.38131e-05
3.29792e-06
-1.09581e-05
-1.83835e-06
-8.25924e-06
-5.50993e-06
-5.83686e-06
-7.69097e-06
-3.77107e-06
-8.46461e-06
-2.11777e-06
-7.99289e-06
-8.85493e-07
-6.49462e-06
-5.17516e-08
-4.21828e-06
4.28005e-07
-1.19849e-06
5.71618e-07
2.5115e-06
3.81024e-07
6.43597e-06
-4.93912e-08
1.0082e-05
-5.63306e-07
1.32634e-05
-1.0675e-06
1.58866e-05
-1.53424e-06
1.79956e-05
-1.95125e-06
1.97657e-05
-2.31694e-06
2.14573e-05
-2.64206e-06
-2.94236e-06
2.31142e-05
1.94522e-05
-3.76097e-06
3.5723e-05
-1.05289e-05
4.76812e-05
-1.59021e-05
5.53318e-05
-1.98696e-05
5.90006e-05
-2.25563e-05
5.92026e-05
-2.40965e-05
5.65702e-05
-2.46282e-05
5.16972e-05
-2.42848e-05
4.5383e-05
-2.3234e-05
3.82177e-05
-2.16336e-05
3.06805e-05
-1.95597e-05
2.34988e-05
-1.71203e-05
1.71845e-05
-1.45147e-05
1.20186e-05
-1.19337e-05
8.14993e-06
-9.52624e-06
5.64341e-06
-7.4221e-06
4.42632e-06
-5.68788e-06
4.36318e-06
-4.32914e-06
5.27288e-06
-3.33222e-06
6.94824e-06
-2.66508e-06
9.30125e-06
-2.30261e-06
1.22491e-05
-2.22714e-06
1.54204e-05
-2.36811e-06
1.84494e-05
-2.61774e-06
2.12285e-05
-2.90686e-06
2.37282e-05
-3.20352e-06
2.59901e-05
-3.49176e-06
2.80874e-05
-3.77305e-06
3.01834e-05
-4.05625e-06
-4.34596e-06
3.22313e-05
2.10055e-05
-3.88272e-06
3.87439e-05
-1.0884e-05
5.2084e-05
-1.64793e-05
6.10585e-05
-2.06653e-05
6.60042e-05
-2.35739e-05
6.74359e-05
-2.53442e-05
6.59709e-05
-2.61167e-05
6.2254e-05
-2.60325e-05
5.70494e-05
-2.52437e-05
5.09963e-05
-2.39147e-05
4.44827e-05
-2.21748e-05
3.80719e-05
-2.01362e-05
3.22391e-05
-1.79254e-05
2.72485e-05
-1.56423e-05
2.33132e-05
-1.33844e-05
2.05527e-05
-1.12962e-05
1.89623e-05
-9.50871e-06
1.84187e-05
-8.05599e-06
1.87813e-05
-6.92419e-06
1.98761e-05
-6.09379e-06
2.15613e-05
-5.53084e-06
2.37439e-05
-5.20297e-06
2.61959e-05
-5.06865e-06
2.86658e-05
-5.06833e-06
3.10684e-05
-5.15163e-06
3.3393e-05
-5.28847e-06
3.56833e-05
-5.46117e-06
3.80131e-05
-5.66264e-06
4.0487e-05
-5.89365e-06
-6.15423e-06
4.29222e-05
2.26598e-05
-3.99188e-06
4.19652e-05
-1.12049e-05
5.67851e-05
-1.70072e-05
6.71805e-05
-2.1403e-05
7.35007e-05
-2.45305e-05
7.62603e-05
-2.65328e-05
7.60699e-05
-2.75526e-05
7.35823e-05
-2.77328e-05
6.94851e-05
-2.72199e-05
6.4421e-05
-2.6161e-05
5.88609e-05
-2.4687e-05
5.33132e-05
-2.29374e-05
4.81571e-05
-2.10485e-05
4.36555e-05
-1.9122e-05
3.99343e-05
-1.71953e-05
3.7076e-05
-1.52948e-05
3.5192e-05
-1.35325e-05
3.42323e-05
-1.20141e-05
3.41062e-05