/*--------------------------------*- C++ -*----------------------------------*\
| =========                 |                                                 |
| \\      /  F ield         | OpenFOAM: The Open Source CFD Toolbox           |
|  \\    /   O peration     | Version:  dev                                   |
|   \\  /    A nd           | Web:      www.OpenFOAM.org                      |
|    \\/     M anipulation  |                                                 |
\*---------------------------------------------------------------------------*/
FoamFile
{
    version     2.0;
    format      ascii;
    class       volVectorField;
    location    "3.57";
    object      Force;
}
// * * * * * * * * * * * * * * * * * * * * * * * * * * * * * * * * * * * * * //

dimensions      [1 1 -2 0 0 0 0];

internalField   uniform (0 0 0);

boundaryField
{
    inlet
    {
        type            calculated;
        value           nonuniform 0();
    }
    outlet
    {
        type            calculated;
        value           nonuniform 0();
    }
    flap
    {
        type            calculated;
        value           nonuniform List<vector> 
33
(
(3.79826 6.52067e-23 -0.0748551)
(3.77898 7.10503e-23 -0.136886)
(3.76535 -7.59069e-23 -0.183939)
(3.75443 2.53652e-18 -0.206045)
(3.74071 2.5355e-18 -0.209403)
(3.7192 1.62413e-17 -0.199037)
(3.6879 -5.93699e-22 -0.180052)
(3.6455 -1.06995e-24 -0.156431)
(3.58863 1.06245e-24 -0.132108)
(3.51218 -2.29589e-41 -0.10978)
(3.40816 1.6008e-23 -0.0899971)
(3.26376 -1.58698e-23 -0.0733237)
(3.05446 5.17777e-19 -0.0597631)
(2.72465 -3.76687e-24 -0.0475891)
(2.11701 -3.58208e-19 -0.0339892)
(0.0131963 3.80618e-23 0.53763)
(0.00685339 -8.04808e-18 0.333495)
(0.00121354 1.04518e-20 0.126082)
(-0.0095186 1.55961e-17 0.000149231)
(-0.00871817 3.00818e-21 0.000131683)
(-0.00763828 -4.05851e-25 7.13656e-05)
(-0.00660488 -1.61798e-17 -3.52077e-05)
(-0.00606777 -2.42182e-25 -0.000130425)
(-0.00652374 2.55108e-25 -0.000163682)
(-0.00841658 3.85538e-25 -0.000106137)
(-0.0118647 -4.00842e-25 3.4645e-05)
(-0.0164505 2.45876e-23 0.000217906)
(-0.0214101 1.64737e-17 0.000402531)
(-0.0261531 -1.64431e-17 0.000574985)
(-0.0309855 5.16933e-21 0.000878438)
(-0.0350702 -5.8549e-21 0.00113599)
(-0.0354391 5.90244e-21 0.00140384)
(-0.0277642 -1.43493e-42 0.00137323)
)
;
    }
    upperWall
    {
        type            calculated;
        value           nonuniform 0();
    }
    lowerWall
    {
        type            calculated;
        value           uniform (0 0 0);
    }
    frontAndBack
    {
        type            empty;
    }
    procBoundary4to1
    {
        type            processor;
        value           uniform (0 0 0);
    }
    procBoundary4to2
    {
        type            processor;
        value           uniform (0 0 0);
    }
    procBoundary4to3
    {
        type            processor;
        value           uniform (0 0 0);
    }
    procBoundary4to5
    {
        type            processor;
        value           uniform (0 0 0);
    }
}


// ************************************************************************* //
