/*--------------------------------*- C++ -*----------------------------------*\
| =========                 |                                                 |
| \\      /  F ield         | OpenFOAM: The Open Source CFD Toolbox           |
|  \\    /   O peration     | Version:  dev                                   |
|   \\  /    A nd           | Web:      www.OpenFOAM.org                      |
|    \\/     M anipulation  |                                                 |
\*---------------------------------------------------------------------------*/
FoamFile
{
    version     2.0;
    format      ascii;
    class       volVectorField;
    location    "3.9";
    object      cellDisplacement;
}
// * * * * * * * * * * * * * * * * * * * * * * * * * * * * * * * * * * * * * //

dimensions      [0 1 0 0 0 0 0];

internalField   nonuniform List<vector> 
2790
(
(0.00285341 0 -3.67476e-07)
(0.00820215 0 -1.02168e-06)
(0.0128819 0 -1.49475e-06)
(0.0169451 0 -1.74326e-06)
(0.0204428 0 -1.72765e-06)
(0.0234211 0 -1.40629e-06)
(0.0259211 0 -7.3156e-07)
(0.0279794 0 3.53661e-07)
(0.0296278 0 1.91937e-06)
(0.0308942 0 4.05218e-06)
(0.0318025 0 6.85968e-06)
(0.0323731 0 1.04756e-05)
(0.0326232 0 1.50663e-05)
(0.0325671 0 2.08382e-05)
(0.0322166 0 2.80479e-05)
(0.0315815 0 3.70135e-05)
(0.03067 0 4.81283e-05)
(0.0294893 0 6.18784e-05)
(0.028046 0 7.88628e-05)
(0.0263473 0 9.98224e-05)
(0.0244017 0 0.000125683)
(0.0222216 0 0.000157616)
(0.0198252 0 0.000197074)
(0.0172394 0 0.000245846)
(0.0145039 0 0.000306079)
(0.0116765 0 0.000380229)
(0.00884512 0 0.000470832)
(0.00614899 0 0.000579496)
(0.0038267 0 0.000703126)
(0.00237266 0 0.000819403)
(0.00285572 0 -1.1117e-06)
(0.00820914 0 -3.09253e-06)
(0.0128938 0 -4.53045e-06)
(0.0169623 0 -5.29708e-06)
(0.0204659 0 -5.27536e-06)
(0.023451 0 -4.34228e-06)
(0.0259589 0 -2.3571e-06)
(0.0280264 0 8.48748e-07)
(0.0296856 0 5.48171e-06)
(0.0309648 0 1.1797e-05)
(0.0318882 0 2.01111e-05)
(0.0324766 0 3.08172e-05)
(0.0327477 0 4.44028e-05)
(0.0327164 0 6.14731e-05)
(0.0323952 0 8.27773e-05)
(0.0317947 0 0.000109243)
(0.0309242 0 0.000142013)
(0.029792 0 0.000182494)
(0.0284063 0 0.000232412)
(0.0267759 0 0.000293878)
(0.0249111 0 0.000369505)
(0.0228265 0 0.000462573)
(0.0205436 0 0.0005771)
(0.0180935 0 0.000717907)
(0.0155222 0 0.000890565)
(0.0128957 0 0.00110094)
(0.0103129 0 0.00135402)
(0.00792706 0 0.00164999)
(0.00598703 0 0.00197245)
(0.0049372 0 0.00225108)
(0.00286048 0 -1.88106e-06)
(0.00822349 0 -5.2384e-06)
(0.012918 0 -7.69347e-06)
(0.0169972 0 -9.03824e-06)
(0.0205126 0 -9.08315e-06)
(0.0235112 0 -7.62921e-06)
(0.0260348 0 -4.44915e-06)
(0.0281205 0 7.28878e-07)
(0.0298012 0 8.23715e-06)
(0.0311057 0 1.84855e-05)
(0.0320588 0 3.19811e-05)
(0.0326823 0 4.93516e-05)
(0.0329948 0 7.13735e-05)
(0.0330124 0 9.90059e-05)
(0.0327489 0 0.000133432)
(0.0322166 0 0.000176107)
(0.0314266 0 0.000228819)
(0.0303895 0 0.000293746)
(0.0291166 0 0.00037353)
(0.02762 0 0.000471341)
(0.0259127 0 0.000590988)
(0.0240138 0 0.000737238)
(0.0219498 0 0.000915702)
(0.0197585 0 0.00113281)
(0.0174967 0 0.00139544)
(0.0152406 0 0.00170935)
(0.0130994 0 0.00207677)
(0.0112306 0 0.00248928)
(0.00985862 0 0.0029111)
(0.00931068 0 0.00323862)
(0.00286762 0 -2.68911e-06)
(0.00824491 0 -7.50046e-06)
(0.0129541 0 -1.10553e-05)
(0.017049 0 -1.30741e-05)
(0.0205821 0 -1.33029e-05)
(0.0236007 0 -1.14759e-05)
(0.0261474 0 -7.28971e-06)
(0.0282601 0 -3.82812e-07)
(0.0299724 0 9.68568e-06)
(0.031314 0 2.34577e-05)
(0.0323109 0 4.1601e-05)
(0.032986 0 6.49385e-05)
(0.0333593 0 9.44825e-05)
(0.0334486 0 0.000131476)
(0.0332696 0 0.000177441)
(0.0328367 0 0.000234235)
(0.0321637 0 0.000304119)
(0.0312646 0 0.00038982)
(0.0301547 0 0.000494587)
(0.0288517 0 0.000622204)
(0.0273709 0 0.00077688)
(0.0257369 0 0.000964047)
(0.0239822 0 0.00118957)
(0.0221488 0 0.00145966)
(0.020309 0 0.00178025)
(0.0185438 0 0.00215338)
(0.0169635 0 0.00257461)
(0.0157118 0 0.00302427)
(0.0149608 0 0.00345169)
(0.0148994 0 0.00374668)
(0.00287704 0 -3.54894e-06)
(0.00827316 0 -9.91841e-06)
(0.0130016 0 -1.46842e-05)
(0.0171172 0 -1.75067e-05)
(0.0206732 0 -1.80785e-05)
(0.023718 0 -1.60788e-05)
(0.0262949 0 -1.11429e-05)
(0.0284427 0 -2.83729e-06)
(0.0301962 0 9.36435e-06)
(0.0315861 0 2.6106e-05)
(0.0326398 0 4.81769e-05)
(0.0333817 0 7.6543e-05)
(0.0338335 0 0.000112384)
(0.0340151 0 0.000157135)
(0.0339446 0 0.000212536)
(0.0336391 0 0.000280686)
(0.0331155 0 0.000364104)
(0.0323911 0 0.000465794)
(0.0314865 0 0.00058926)
(0.0304211 0 0.000737931)
(0.029222 0 0.000916227)
(0.0279153 0 0.00112922)
(0.0265403 0 0.00138162)
(0.0251431 0 0.00167847)
(0.0237981 0 0.00202215)
(0.0225894 0 0.00240894)
(0.0216161 0 0.00282714)
(0.0209913 0 0.00324852)
(0.0208185 0 0.00361786)
(0.0211524 0 0.00384006)
(0.00288864 0 -4.47191e-06)
(0.00830787 0 -1.25267e-05)
(0.0130599 0 -1.86398e-05)
(0.0172007 0 -2.2425e-05)
(0.0207847 0 -2.35351e-05)
(0.0238612 0 -2.16091e-05)
(0.0264748 0 -1.62383e-05)
(0.0286653 0 -6.93895e-06)
(0.0304686 0 6.87328e-06)
(0.0319168 0 2.59089e-05)
(0.0330388 0 5.10324e-05)
(0.0338609 0 8.32928e-05)
(0.0344068 0 0.000123958)
(0.0346986 0 0.000174551)
(0.0347572 0 0.000236894)
(0.0346027 0 0.000313144)
(0.0342551 0 0.000405844)
(0.0337349 0 0.000517977)
(0.0330658 0 0.000652514)
(0.0322739 0 0.000812719)
(0.0313959 0 0.00100262)
(0.0304583 0 0.00122563)
(0.0295035 0 0.00148488)
(0.0285925 0 0.00178272)
(0.0277775 0 0.00211672)
(0.0271395 0 0.002478)
(0.0267577 0 0.00284938)
(0.0267036 0 0.00319941)
(0.0270092 0 0.00347854)
(0.0276183 0 0.00361866)
(0.00290226 0 -5.4673e-06)
(0.00834854 0 -1.53533e-05)
(0.013128 0 -2.29703e-05)
(0.0172981 0 -2.79014e-05)
(0.0209146 0 -2.97748e-05)
(0.0240281 0 -2.82062e-05)
(0.0266841 0 -2.27624e-05)
(0.0289238 0 -1.29335e-05)
(0.0307844 0 1.89253e-06)
(0.0322996 0 2.24541e-05)
(0.0334998 0 4.96411e-05)
(0.0344133 0 8.45213e-05)
(0.0350661 0 0.000128368)
(0.0354828 0 0.000182687)
(0.0356869 0 0.000249241)
(0.0357018 0 0.00033007)
(0.035551 0 0.000427488)
(0.0352585 0 0.000544042)
(0.0348496 0 0.000682317)
(0.0343591 0 0.000845171)
(0.0338221 0 0.0010348)
(0.0332776 0 0.00125281)
(0.0327677 0 0.00150081)
(0.0323451 0 0.00177717)
(0.032054 0 0.00207518)
(0.0319575 0 0.00238271)
(0.0321068 0 0.00267979)
(0.0325276 0 0.00293705)
(0.0331879 0 0.00311722)
(0.0339535 0 0.00318211)
(0.00291769 0 -6.54194e-06)
(0.00839452 0 -1.84189e-05)
(0.0132049 0 -2.77116e-05)
(0.017408 0 -3.39895e-05)
(0.0210609 0 -3.68732e-05)
(0.0242156 0 -3.59728e-05)
(0.0269189 0 -3.08515e-05)
(0.0292134 0 -2.09984e-05)
(0.0311376 0 -5.80507e-06)
(0.0327268 0 1.54555e-05)
(0.0340132 0 4.3649e-05)
(0.035027 0 7.97987e-05)
(0.0357964 0 0.000125104)
(0.0363486 0 0.000180951)
(0.03671 0 0.000248923)
(0.036907 0 0.000330784)
(0.0369663 0 0.000428447)
(0.036916 0 0.000543887)
(0.0367861 0 0.000678989)
(0.036611 0 0.000835439)
(0.0364251 0 0.00101424)
(0.0362758 0 0.0012153)
(0.0362052 0 0.00143708)
(0.0362463 0 0.00167506)
(0.0364411 0 0.00192009)
(0.0368265 0 0.002158)
(0.0374204 0 0.00236919)
(0.038204 0 0.00253004)
(0.0390955 0 0.0026181)
(0.0399178 0 0.00262256)
(0.00293466 0 -7.70005e-06)
(0.00844506 0 -2.17364e-05)
(0.0132893 0 -3.28857e-05)
(0.0175283 0 -4.07224e-05)
(0.021221 0 -4.48768e-05)
(0.0244205 0 -4.49716e-05)
(0.0271752 0 -4.05874e-05)
(0.0295288 0 -3.1237e-05)
(0.0315214 0 -1.6346e-05)
(0.0331899 0 4.76373e-06)
(0.0345682 0 3.2887e-05)
(0.0356885 0 6.89458e-05)
(0.0365811 0 0.000113994)
(0.0372755 0 0.000169216)
(0.0378008 0 0.000235909)
(0.0381861 0 0.000315448)
(0.0384612 0 0.000409219)
(0.0386573 0 0.000518503)
(0.0388071 0 0.000644304)
(0.0389463 0 0.000787126)
(0.0391117 0 0.000946573)
(0.0393436 0 0.00112088)
(0.0396784 0 0.00130635)
(0.0401458 0 0.00149635)
(0.0407704 0 0.00168047)
(0.0415629 0 0.00184454)
(0.0425066 0 0.00197165)
(0.0435443 0 0.00204556)
(0.0445606 0 0.00205788)
(0.0453669 0 0.00201951)
(0.00295289 0 -8.94307e-06)
(0.00849926 0 -2.53102e-05)
(0.0133797 0 -3.85007e-05)
(0.0176571 0 -4.81123e-05)
(0.021392 0 -5.38021e-05)
(0.0246391 0 -5.5224e-05)
(0.027448 0 -5.19955e-05)
(0.029864 0 -4.36765e-05)
(0.0319285 0 -2.97542e-05)
(0.0336797 0 -9.63281e-06)
(0.0351535 0 1.73716e-05)
(0.0363836 0 5.20314e-05)
(0.0374025 0 9.51996e-05)
(0.0382417 0 0.000147791)
(0.0389324 0 0.00021075)
(0.0395063 0 0.000284985)
(0.0399953 0 0.000371289)
(0.0404327 0 0.000470193)
(0.0408529 0 0.000581788)
(0.0412916 0 0.000705474)
(0.0417848 0 0.000839607)
(0.0423677 0 0.000981095)
(0.04307 0 0.00112491)
(0.0439121 0 0.00126355)
(0.0449013 0 0.00138678)
(0.0460229 0 0.00148219)
(0.0472294 0 0.00153695)
(0.0484318 0 0.00154197)
(0.0494952 0 0.00149955)
(0.0502425 0 0.00143465)
(0.00297204 0 -1.02697e-05)
(0.00855616 0 -2.91365e-05)
(0.0134744 0 -4.45501e-05)
(0.017792 0 -5.61497e-05)
(0.021571 0 -6.36361e-05)
(0.0248675 0 -6.67106e-05)
(0.0277327 0 -6.5046e-05)
(0.030213 0 -5.82699e-05)
(0.0323511 0 -4.59547e-05)
(0.0341868 0 -2.76143e-05)
(0.0357573 0 -2.70737e-06)
(0.037098 0 2.93532e-05)
(0.038243 0 6.91803e-05)
(0.0392255 0 0.00011738)
(0.0400786 0 0.0001745)
(0.0408353 0 0.00024096)
(0.0415294 0 0.000316939)
(0.0421949 0 0.000402246)
(0.0428668 0 0.000496131)
(0.0435799 0 0.000597062)
(0.0443676 0 0.000702463)
(0.04526 0 0.000808425)
(0.0462795 0 0.000909468)
(0.0474365 0 0.000998403)
(0.0487227 0 0.00106657)
(0.0501024 0 0.00110471)
(0.0515036 0 0.00110485)
(0.0528126 0 0.00106384)
(0.053882 0 0.000989832)
(0.0545554 0 0.000913049)
(0.00299177 0 -1.1676e-05)
(0.00861472 0 -3.32034e-05)
(0.0135719 0 -5.10141e-05)
(0.0179306 0 -6.48055e-05)
(0.0217547 0 -7.43375e-05)
(0.0251017 0 -7.93737e-05)
(0.028024 0 -7.9658e-05)
(0.0305693 0 -7.49022e-05)
(0.0327816 0 -6.47827e-05)
(0.0347017 0 -4.89435e-05)
(0.0363681 0 -2.70073e-05)
(0.0378176 0 1.40568e-06)
(0.0390854 0 3.66472e-05)
(0.0402062 0 7.89979e-05)
(0.041214 0 0.000128606)
(0.042143 0 0.000185406)
(0.0430273 0 0.00024901)
(0.0439013 0 0.000318581)
(0.0447989 0 0.000392674)
(0.0457529 0 0.000469068)
(0.0467936 0 0.000544612)
(0.0479458 0 0.00061512)
(0.0492251 0 0.000675394)
(0.0506331 0 0.000719492)
(0.0521502 0 0.000741375)
(0.0537277 0 0.000736015)
(0.0552785 0 0.000700941)
(0.0566733 0 0.000638138)
(0.0577521 0 0.000557158)
(0.058368 0 0.000483593)
(0.00301169 0 -1.31555e-05)
(0.00867387 0 -3.74919e-05)
(0.0136703 0 -5.78601e-05)
(0.0180705 0 -7.40319e-05)
(0.0219399 0 -8.58393e-05)
(0.0253376 0 -9.31211e-05)
(0.028317 0 -9.57046e-05)
(0.0309269 0 -9.33987e-05)
(0.0332123 0 -8.59964e-05)
(0.0352151 0 -7.32845e-05)
(0.0369747 0 -5.50608e-05)
(0.0385289 0 -3.11617e-05)
(0.0399137 0 -1.49875e-06)
(0.0411646 0 3.389e-05)
(0.042316 0 7.47749e-05)
(0.0434024 0 0.000120652)
(0.0444576 0 0.000170644)
(0.045515 0 0.00022339)
(0.0466068 0 0.000276933)
(0.047763 0 0.000328619)
(0.0490098 0 0.000375059)
(0.0503668 0 0.0004122)
(0.0518439 0 0.000435602)
(0.0534365 0 0.000441033)
(0.0551196 0 0.000425496)
(0.056841 0 0.000388663)
(0.0585125 0 0.000334295)
(0.0600038 0 0.000270522)
(0.0611446 0 0.000207537)
(0.0617651 0 0.000156618)
(0.00303144 0 -1.46996e-05)
(0.00873249 0 -4.19758e-05)
(0.0137679 0 -6.50444e-05)
(0.0182092 0 -8.37644e-05)
(0.0221236 0 -9.80518e-05)
(0.0255713 0 -0.000107831)
(0.0286067 0 -0.00011302)
(0.0312797 0 -0.000113535)
(0.033636 0 -0.000109292)
(0.0357184 0 -0.000100224)
(0.0375668 0 -8.63074e-05)
(0.0392196 0 -6.75889e-05)
(0.0407134 0 -4.42305e-05)
(0.0420836 0 -1.65621e-05)
(0.0433647 0 1.48536e-05)
(0.0445906 0 4.91453e-05)
(0.045794 0 8.50497e-05)
(0.0470065 0 0.00012083)
(0.0482576 0 0.000154204)
(0.0495739 0 0.000182323)
(0.050977 0 0.00020182)
(0.0524815 0 0.000209019)
(0.0540924 0 0.000200366)
(0.0558011 0 0.000173215)
(0.0575818 0 0.000127092)
(0.0593874 0 6.55023e-05)
(0.0611438 0 -1.94533e-06)
(0.062743 0 -5.85923e-05)
(0.0640276 0 -8.64456e-05)
(0.0647777 0 -8.91844e-05)
(0.00305063 0 -1.62973e-05)
(0.00878952 0 -4.66234e-05)
(0.0138629 0 -7.25131e-05)
(0.0183444 0 -9.39246e-05)
(0.0223026 0 -0.000110867)
(0.0257988 0 -0.000123355)
(0.0288885 0 -0.000131408)
(0.0316221 0 -0.000135048)
(0.0340461 0 -0.000134317)
(0.0362036 0 -0.000129294)
(0.0381351 0 -0.000120124)
(0.039879 0 -0.000107049)
(0.0414718 0 -9.04558e-05)
(0.0429487 0 -7.09234e-05)
(0.0443436 0 -4.92863e-05)
(0.0456891 0 -2.66966e-05)
(0.0470161 0 -4.6867e-06)
(0.0483536 0 1.47798e-05)
(0.0497279 0 2.92823e-05)
(0.0511614 0 3.59703e-05)
(0.0526709 0 3.16847e-05)
(0.0542661 0 1.32205e-05)
(0.0559469 0 -2.22175e-05)
(0.0577018 0 -7.62802e-05)
(0.0595052 0 -0.000148365)
(0.061317 0 -0.000234016)
(0.0630819 0 -0.000322349)
(0.0647293 0 -0.000391578)
(0.0661617 0 -0.000404051)
(0.0671847 0 -0.000338352)
(0.0025702 0 -0.000877399)
(0.00447129 0 -0.000832095)
(0.00745486 0 -0.000752431)
(0.0109441 0 -0.000667287)
(0.0145708 0 -0.00058675)
(0.0181158 0 -0.000514407)
(0.021452 0 -0.000451101)
(0.0245078 0 -0.000396438)
(0.0272448 0 -0.000349346)
(0.0296469 0 -0.00030875)
(0.0317102 0 -0.000273655)
(0.0334373 0 -0.000243171)
(0.0348338 0 -0.000216677)
(0.0359045 0 -0.000193588)
(0.0366527 0 -0.000173364)
(0.0370796 0 -0.00015553)
(0.037184 0 -0.000139688)
(0.0369618 0 -0.000125501)
(0.036406 0 -0.000112685)
(0.0355065 0 -0.000100997)
(0.0342498 0 -9.0225e-05)
(0.032619 0 -8.01791e-05)
(0.030594 0 -7.06865e-05)
(0.0281511 0 -6.15833e-05)
(0.0252634 0 -5.2709e-05)
(0.0219005 0 -4.38999e-05)
(0.0180289 0 -3.49825e-05)
(0.0136121 0 -2.5765e-05)
(0.00861111 0 -1.60277e-05)
(0.00298198 0 -5.50428e-06)
(0.00497321 0 -0.00249966)
(0.00668074 0 -0.0023825)
(0.0093806 0 -0.00217133)
(0.0125818 0 -0.00193809)
(0.0159455 0 -0.00171284)
(0.0192616 0 -0.00150773)
(0.0224039 0 -0.00132656)
(0.0252972 0 -0.00116911)
(0.0278978 0 -0.0010326)
(0.0301864 0 -0.000914325)
(0.0321555 0 -0.000811678)
(0.0338046 0 -0.00072215)
(0.0351371 0 -0.000644167)
(0.0361551 0 -0.000576083)
(0.0368598 0 -0.000516336)
(0.0372506 0 -0.000463559)
(0.0373251 0 -0.000416599)
(0.0370781 0 -0.000374487)
(0.0365017 0 -0.000336399)
(0.0355851 0 -0.000301625)
(0.0343141 0 -0.000269544)
(0.0326715 0 -0.000239602)
(0.0306366 0 -0.000211287)
(0.0281855 0 -0.000184116)
(0.0252908 0 -0.000157612)
(0.021922 0 -0.000131291)
(0.0180452 0 -0.000104634)
(0.0136236 0 -7.70718e-05)
(0.00861822 0 -4.79478e-05)
(0.00298444 0 -1.6467e-05)
(0.00915374 0 -0.00380845)
(0.0106405 0 -0.00366002)
(0.0129123 0 -0.00337373)
(0.0156319 0 -0.0030422)
(0.0185337 0 -0.00271179)
(0.0214369 0 -0.00240419)
(0.0242232 0 -0.0021281)
(0.0268147 0 -0.00188558)
(0.0291579 0 -0.00167257)
(0.0312309 0 -0.00148629)
(0.0330203 0 -0.00132345)
(0.0345195 0 -0.00118016)
(0.0357289 0 -0.00105493)
(0.0366453 0 -0.000945208)
(0.0372657 0 -0.000848566)
(0.0375865 0 -0.000762901)
(0.0376027 0 -0.000686442)
(0.0373073 0 -0.000617687)
(0.0366907 0 -0.000555353)
(0.0357406 0 -0.000498323)
(0.0344418 0 -0.000445612)
(0.0327759 0 -0.000396333)
(0.0307216 0 -0.000349664)
(0.0282541 0 -0.000304821)
(0.0253456 0 -0.000261032)
(0.021965 0 -0.000217501)
(0.0180778 0 -0.000173382)
(0.0136469 0 -0.000127733)
(0.00863247 0 -7.94759e-05)
(0.00298933 0 -2.7297e-05)
(0.0145868 0 -0.00478099)
(0.0158229 0 -0.00462091)
(0.0176035 0 -0.00430492)
(0.0197448 0 -0.00392538)
(0.0220705 0 -0.00353541)
(0.0244426 0 -0.00316313)
(0.0267619 0 -0.00282225)
(0.0289413 0 -0.00251645)
(0.0309326 0 -0.00224502)
(0.0327098 0 -0.00200487)
(0.0342509 0 -0.00179313)
(0.0355445 0 -0.00160587)
(0.0365811 0 -0.00143982)
(0.0373538 0 -0.00129362)
(0.0378539 0 -0.0011641)
(0.0380742 0 -0.0010487)
(0.0380067 0 -0.000945232)
(0.0376414 0 -0.000851819)
(0.0369665 0 -0.000766833)
(0.0359679 0 -0.00068884)
(0.0346285 0 -0.000616557)
(0.0329287 0 -0.000548817)
(0.030846 0 -0.000484527)
(0.0283547 0 -0.000422637)
(0.025426 0 -0.000362101)
(0.022028 0 -0.00030184)
(0.0181256 0 -0.000240693)
(0.013681 0 -0.000177368)
(0.0086533 0 -0.00011038)
(0.00299647 0 -3.79156e-05)
(0.020747 0 -0.00543812)
(0.0217148 0 -0.00527612)
(0.0229977 0 -0.00496137)
(0.0245412 0 -0.00457439)
(0.0262531 0 -0.00416594)
(0.0280418 0 -0.00376552)
(0.0298228 0 -0.00338981)
(0.0315286 0 -0.00304621)
(0.0331128 0 -0.00273607)
(0.0345412 0 -0.00245807)
(0.0357865 0 -0.00221007)
(0.0368296 0 -0.0019891)
(0.0376566 0 -0.0017917)
(0.0382519 0 -0.00161549)
(0.0386021 0 -0.00145814)
(0.0386965 0 -0.00131697)
(0.0385234 0 -0.00118964)
(0.0380697 0 -0.0010741)
(0.0373208 0 -0.000968516)
(0.0362602 0 -0.00087123)
(0.034869 0 -0.00078075)
(0.0331258 0 -0.000695691)
(0.0310066 0 -0.00061474)
(0.0284845 0 -0.000536621)
(0.0255298 0 -0.000460051)
(0.0221094 0 -0.000383689)
(0.0181874 0 -0.000306091)
(0.0137249 0 -0.000225635)
(0.00868012 0 -0.000140451)
(0.00300565 0 -4.82515e-05)
(0.0271859 0 -0.00581764)
(0.0278798 0 -0.00566102)
(0.0286961 0 -0.00536868)
(0.0296758 0 -0.00500402)
(0.0307941 0 -0.00460957)
(0.032 0 -0.00421269)
(0.0332324 0 -0.0038295)
(0.0344447 0 -0.00347136)
(0.0355927 0 -0.00314229)
(0.0366416 0 -0.00284234)
(0.0375599 0 -0.00257109)
(0.0383248 0 -0.00232636)
(0.0389151 0 -0.00210586)
(0.0393065 0 -0.00190679)
(0.039484 0 -0.00172716)
(0.0394325 0 -0.00156466)
(0.0391363 0 -0.00141707)
(0.0385792 0 -0.00128232)
(0.0377433 0 -0.00115851)
(0.0366096 0 -0.00104389)
(0.0351569 0 -0.000936831)
(0.033362 0 -0.000835804)
(0.0311993 0 -0.000739334)
(0.0286405 0 -0.000645965)
(0.0256544 0 -0.000554212)
(0.0222071 0 -0.000462511)
(0.0182615 0 -0.000369158)
(0.0137775 0 -0.000272232)
(0.00871223 0 -0.000169504)
(0.00301662 0 -5.82413e-05)
(0.0335448 0 -0.00596156)
(0.0339774 0 -0.00582033)
(0.0343843 0 -0.00556661)
(0.0348676 0 -0.00524499)
(0.0354502 0 -0.00488753)
(0.0361167 0 -0.00451731)
(0.0368328 0 -0.00415032)
(0.0375595 0 -0.00379736)
(0.0382709 0 -0.00346574)
(0.0389309 0 -0.003158)
(0.0395085 0 -0.00287508)
(0.0399784 0 -0.00261671)
(0.04031 0 -0.00238059)
(0.0404807 0 -0.00216523)
(0.0404703 0 -0.00196892)
(0.0402589 0 -0.00178972)
(0.0398273 0 -0.00162566)
(0.0391553 0 -0.00147483)
(0.0382224 0 -0.00133538)
(0.0370068 0 -0.00120556)
(0.0354849 0 -0.00108371)
(0.0336316 0 -0.000968218)
(0.0314194 0 -0.000857508)
(0.0288187 0 -0.00074999)
(0.0257969 0 -0.000644021)
(0.0223188 0 -0.000537845)
(0.0183461 0 -0.000429534)
(0.0138376 0 -0.000316896)
(0.00874881 0 -0.000197376)
(0.0030291 0 -6.78296e-05)
(0.0395625 0 -0.00592111)
(0.0397665 0 -0.00580586)
(0.039838 0 -0.00560205)
(0.0399086 0 -0.0053359)
(0.0400321 0 -0.00502909)
(0.0402212 0 -0.00470006)
(0.0404661 0 -0.00436368)
(0.0407466 0 -0.00403128)
(0.0410405 0 -0.00371095)
(0.0413202 0 -0.00340742)
(0.0415575 0 -0.00312323)
(0.0417248 0 -0.00285932)
(0.0417933 0 -0.00261514)
(0.0417368 0 -0.00238986)
(0.0415308 0 -0.00218227)
(0.0411518 0 -0.00199093)
(0.0405769 0 -0.00181423)
(0.0397827 0 -0.00165051)
(0.0387459 0 -0.00149808)
(0.0374419 0 -0.00135531)
(0.035845 0 -0.00122055)
(0.033928 0 -0.0010922)
(0.0316619 0 -0.00096862)
(0.0290152 0 -0.000848145)
(0.0259541 0 -0.00072901)
(0.022442 0 -0.000609308)
(0.0184394 0 -0.000486916)
(0.0139037 0 -0.000359406)
(0.00878901 0 -0.000223929)
(0.00304279 0 -7.69688e-05)
(0.0450752 0 -0.00575533)
(0.0450999 0 -0.00567322)
(0.0449154 0 -0.005524)
(0.044659 0 -0.0053173)
(0.0444029 0 -0.0050661)
(0.0441828 0 -0.00478482)
(0.0440115 0 -0.00448698)
(0.0438864 0 -0.00418392)
(0.0437954 0 -0.00388433)
(0.0437185 0 -0.00359418)
(0.0436316 0 -0.00331729)
(0.043508 0 -0.00305573)
(0.0433192 0 -0.00281026)
(0.0430374 0 -0.00258087)
(0.0426354 0 -0.00236704)
(0.0420868 0 -0.00216788)
(0.0413655 0 -0.00198222)
(0.0404456 0 -0.00180872)
(0.039301 0 -0.00164598)
(0.0379047 0 -0.0014925)
(0.036229 0 -0.00134676)
(0.0342448 0 -0.0012072)
(0.0319213 0 -0.00107218)
(0.0292256 0 -0.000939996)
(0.0261224 0 -0.000808805)
(0.0225739 0 -0.000676584)
(0.0185392 0 -0.000541051)
(0.0139744 0 -0.000399574)
(0.0088319 0 -0.000249047)
(0.00305738 0 -8.56185e-05)
(0.0500097 0 -0.00552344)
(0.0499113 0 -0.00547624)
(0.0495437 0 -0.00537863)
(0.0490345 0 -0.0052271)
(0.0484692 0 -0.00502865)
(0.0479049 0 -0.00479489)
(0.0473747 0 -0.00453797)
(0.0468926 0 -0.00426865)
(0.0464575 0 -0.00399556)
(0.0460573 0 -0.00372515)
(0.0456722 0 -0.00346198)
(0.0452773 0 -0.00320898)
(0.0448454 0 -0.00296786)
(0.0443477 0 -0.00273942)
(0.0437555 0 -0.00252383)
(0.0430404 0 -0.00232077)
(0.0421741 0 -0.00212956)
(0.0411284 0 -0.00194926)
(0.039875 0 -0.00177875)
(0.0383849 0 -0.00161678)
(0.0366286 0 -0.00146196)
(0.0345751 0 -0.00131284)
(0.0321922 0 -0.00116783)
(0.0294455 0 -0.00102521)
(0.0262984 0 -0.000883114)
(0.0227118 0 -0.000739424)
(0.0186435 0 -0.000591736)
(0.0140481 0 -0.000437248)
(0.00887656 0 -0.000272633)
(0.00307255 0 -9.37451e-05)
(0.0543714 0 -0.00527996)
(0.0541985 0 -0.00526246)
(0.0536986 0 -0.00520497)
(0.0529881 0 -0.00509655)
(0.0521677 0 -0.00494175)
(0.051315 0 -0.00475037)
(0.0504814 0 -0.00453277)
(0.0496942 0 -0.00429823)
(0.0489618 0 -0.00405452)
(0.0482782 0 -0.0038078)
(0.0476278 0 -0.00356281)
(0.0469884 0 -0.00332299)
(0.0463338 0 -0.00309068)
(0.0456356 0 -0.00286737)
(0.0448644 0 -0.00265384)
(0.0439905 0 -0.00245033)
(0.0429844 0 -0.00225665)
(0.041816 0 -0.00207226)
(0.0404555 0 -0.00189638)
(0.0388723 0 -0.00172801)
(0.0370353 0 -0.00156596)
(0.0349122 0 -0.0014089)
(0.0324691 0 -0.00125532)
(0.0296705 0 -0.00110356)
(0.0264785 0 -0.000951717)
(0.0228528 0 -0.000797632)
(0.01875 0 -0.000638808)
(0.0141232 0 -0.000472304)
(0.00892202 0 -0.000294607)
(0.00308797 0 -0.000101321)
(0.0582249 0 -0.00506913)
(0.0579988 0 -0.00506771)
(0.0573795 0 -0.00502992)
(0.0564883 0 -0.0049466)
(0.0554486 0 -0.00482293)
(0.0543556 0 -0.00466651)
(0.0532724 0 -0.00448465)
(0.0522342 0 -0.004284)
(0.0512548 0 -0.00407056)
(0.0503326 0 -0.00384962)
(0.0494554 0 -0.00362562)
(0.0486032 0 -0.00340216)
(0.0477515 0 -0.00318198)
(0.0468727 0 -0.00296706)
(0.0459378 0 -0.0027587)
(0.0449168 0 -0.00255766)
(0.0437792 0 -0.00236418)
(0.0424942 0 -0.00217814)
(0.0410308 0 -0.00199907)
(0.0393573 0 -0.00182625)
(0.0374413 0 -0.0016587)
(0.0352493 0 -0.00149526)
(0.0327464 0 -0.00133453)
(0.029896 0 -0.00117489)
(0.026659 0 -0.00101446)
(0.022994 0 -0.000851066)
(0.0188565 0 -0.000682143)
(0.0141982 0 -0.000504645)
(0.00896731 0 -0.000314906)
(0.0031033 0 -0.000108324)
(0.0616585 0 -0.00491744)
(0.0613475 0 -0.00490727)
(0.0605716 0 -0.00486163)
(0.0594945 0 -0.00478449)
(0.0582619 0 -0.00468092)
(0.0569756 0 -0.00455334)
(0.0556987 0 -0.0044039)
(0.0544667 0 -0.00423561)
(0.0532944 0 -0.00405221)
(0.0521821 0 -0.00385777)
(0.0511199 0 -0.00365621)
(0.0500903 0 -0.00345106)
(0.0490706 0 -0.00324526)
(0.0480348 0 -0.00304112)
(0.0469549 0 -0.00284037)
(0.0458011 0 -0.00264414)
(0.0445431 0 -0.00245312)
(0.0431499 0 -0.00226752)
(0.0415897 0 -0.00208721)
(0.0398304 0 -0.00191172)
(0.0378386 0 -0.0017403)
(0.03558 0 -0.00157195)
(0.0330189 0 -0.0014054)
(0.0301177 0 -0.00123911)
(0.0268364 0 -0.00107125)
(0.0231326 0 -0.000899626)
(0.0189608 0 -0.00072165)
(0.0142715 0 -0.000534196)
(0.00901143 0 -0.000333483)
(0.00311822 0 -0.000114737)
(0.0647051 0 -0.0048153)
(0.0641988 0 -0.00475912)
(0.0631974 0 -0.0046819)
(0.0619338 0 -0.0046029)
(0.0605495 0 -0.00451721)
(0.0591288 0 -0.00441716)
(0.0577223 0 -0.00429873)
(0.0563584 0 -0.00416145)
(0.0550501 0 -0.00400719)
(0.0537984 0 -0.00383895)
(0.0525952 0 -0.00366019)
(0.0514254 0 -0.00347423)
(0.050269 0 -0.00328411)
(0.0491019 0 -0.00309235)
(0.0478977 0 -0.00290094)
(0.0466278 0 -0.00271137)
(0.0452626 0 -0.00252461)
(0.0437713 0 -0.00234123)
(0.0421223 0 -0.00216135)
(0.0402831 0 -0.00198478)
(0.03822 0 -0.00181096)
(0.0358982 0 -0.00163908)
(0.0332814 0 -0.00146798)
(0.0303312 0 -0.00129622)
(0.0270071 0 -0.00112204)
(0.0232658 0 -0.000943259)
(0.0190607 0 -0.000757274)
(0.0143415 0 -0.00056091)
(0.00905341 0 -0.000350301)
(0.00313237 0 -0.000120547)
(0.0671196 0 -0.00467562)
(0.0662936 0 -0.00453884)
(0.0650776 0 -0.00444667)
(0.0637026 0 -0.00438793)
(0.0622538 0 -0.00433242)
(0.0607816 0 -0.00426418)
(0.0593198 0 -0.0041769)
(0.0578902 0 -0.00406927)
(0.0565042 0 -0.00394256)
(0.0551639 0 -0.00379936)
(0.0538637 0 -0.00364278)
(0.0525915 0 -0.00347601)
(0.0513303 0 -0.00330206)
(0.0500585 0 -0.00312353)
(0.048752 0 -0.00294262)
(0.047384 0 -0.002761)
(0.045926 0 -0.00257993)
(0.0443482 0 -0.00240019)
(0.0426195 0 -0.00222217)
(0.0407076 0 -0.00204589)
(0.0385788 0 -0.001871)
(0.0361982 0 -0.00169682)
(0.0335291 0 -0.00152236)
(0.0305327 0 -0.00134627)
(0.0271679 0 -0.00116684)
(0.0233908 0 -0.000981949)
(0.0191541 0 -0.000788986)
(0.0144066 0 -0.000584756)
(0.00909221 0 -0.00036534)
(0.00314539 0 -0.000125747)
(0.00306922 0 -1.79665e-05)
(0.00884485 0 -5.14853e-05)
(0.0139553 0 -8.03455e-05)
(0.018476 0 -0.000104615)
(0.022477 0 -0.000124403)
(0.0260206 0 -0.000139825)
(0.0291629 0 -0.000150999)
(0.031955 0 -0.00015806)
(0.0344436 0 -0.000161173)
(0.0366721 0 -0.000160556)
(0.0386811 0 -0.00015651)
(0.0405087 0 -0.000149454)
(0.0421911 0 -0.000139963)
(0.0437627 0 -0.000128822)
(0.0452561 0 -0.000117068)
(0.0467021 0 -0.000106046)
(0.0481293 0 -9.7443e-05)
(0.0495636 0 -9.33096e-05)
(0.0510274 0 -9.60481e-05)
(0.0525385 0 -0.000108351)
(0.0541089 0 -0.000133051)
(0.0557427 0 -0.000172857)
(0.0574352 0 -0.000230005)
(0.0591711 0 -0.000305803)
(0.0609233 0 -0.000400154)
(0.0626531 0 -0.000511622)
(0.0643114 0 -0.000638911)
(0.0658396 0 -0.000786825)
(0.0671822 0 -0.000983436)
(0.068275 0 -0.00130591)
(0.00308689 0 -1.97174e-05)
(0.00889764 0 -5.65914e-05)
(0.0140438 0 -8.85886e-05)
(0.0186026 0 -0.000115897)
(0.0226452 0 -0.000138733)
(0.0262346 0 -0.000157316)
(0.0294276 0 -0.000171867)
(0.0322756 0 -0.000182632)
(0.0348254 0 -0.000189895)
(0.0371204 0 -0.000194002)
(0.0392009 0 -0.000195395)
(0.0411046 0 -0.000194641)
(0.0428668 0 -0.00019247)
(0.0445205 0 -0.000189815)
(0.0460968 0 -0.000187849)
(0.0476243 0 -0.000188022)
(0.0491288 0 -0.000192073)
(0.0506326 0 -0.000202017)
(0.0521541 0 -0.000220111)
(0.0537066 0 -0.00024878)
(0.055297 0 -0.000290479)
(0.0569246 0 -0.000347432)
(0.0585803 0 -0.000421465)
(0.0602452 0 -0.000513887)
(0.0618899 0 -0.000625321)
(0.0634762 0 -0.000756735)
(0.0649584 0 -0.000911553)
(0.0662815 0 -0.00109845)
(0.067382 0 -0.00133625)
(0.0682207 0 -0.00166607)
(0.00310302 0 -2.15276e-05)
(0.00894615 0 -6.18765e-05)
(0.0141257 0 -9.71367e-05)
(0.0187205 0 -0.000127622)
(0.0228024 0 -0.000153664)
(0.0264352 0 -0.000175582)
(0.029676 0 -0.000193703)
(0.0325761 0 -0.000208378)
(0.0351826 0 -0.000219999)
(0.0375384 0 -0.000229029)
(0.0396833 0 -0.000236028)
(0.041654 0 -0.000241679)
(0.0434849 0 -0.000246828)
(0.0452073 0 -0.000252502)
(0.0468505 0 -0.000259942)
(0.0484405 0 -0.000270626)
(0.0500003 0 -0.00028627)
(0.0515486 0 -0.000308759)
(0.0530998 0 -0.000340123)
(0.0546631 0 -0.000382465)
(0.0562415 0 -0.000437902)
(0.0578299 0 -0.000508195)
(0.0594165 0 -0.000594819)
(0.0609815 0 -0.000699359)
(0.0624945 0 -0.000822688)
(0.0639209 0 -0.000966653)
(0.0652154 0 -0.0011343)
(0.0663292 0 -0.0013315)
(0.0672229 0 -0.00157136)
(0.0678694 0 -0.00188593)
(0.00311714 0 -2.33826e-05)
(0.00898901 0 -6.72987e-05)
(0.014199 0 -0.000105921)
(0.0188268 0 -0.000139695)
(0.0229452 0 -0.000169065)
(0.0266184 0 -0.000194455)
(0.0299033 0 -0.000216292)
(0.0328514 0 -0.000235022)
(0.0355093 0 -0.000251137)
(0.0379195 0 -0.000265197)
(0.040121 0 -0.000277856)
(0.0421495 0 -0.000289887)
(0.0440378 0 -0.000302204)
(0.0458158 0 -0.000315884)
(0.0475103 0 -0.000332175)
(0.0491452 0 -0.000352511)
(0.0507408 0 -0.000378557)
(0.0523119 0 -0.000411996)
(0.0538695 0 -0.000454579)
(0.0554198 0 -0.000508033)
(0.0569635 0 -0.000574336)
(0.058491 0 -0.000654735)
(0.0599924 0 -0.000750681)
(0.0614459 0 -0.000863175)
(0.0628203 0 -0.000992923)
(0.0640848 0 -0.00114132)
(0.0652043 0 -0.00131046)
(0.0661455 0 -0.00150524)
(0.0668814 0 -0.00173505)
(0.0673878 0 -0.00201636)
(0.00312876 0 -2.52653e-05)
(0.0090249 0 -7.28078e-05)
(0.0142615 0 -0.000114861)
(0.0189189 0 -0.000152001)
(0.0230704 0 -0.000184785)
(0.0267801 0 -0.00021374)
(0.030105 0 -0.000239385)
(0.0330962 0 -0.000262253)
(0.0357998 0 -0.000282922)
(0.0382576 0 -0.000302029)
(0.0405077 0 -0.000320299)
(0.0425846 0 -0.000338562)
(0.0445195 0 -0.000357769)
(0.0463403 0 -0.000379001)
(0.0480715 0 -0.000403461)
(0.0497353 0 -0.000432457)
(0.05135 0 -0.000467664)
(0.0529264 0 -0.000510483)
(0.0544719 0 -0.000562386)
(0.0559936 0 -0.000624984)
(0.0574884 0 -0.000699621)
(0.0589445 0 -0.000787268)
(0.0603499 0 -0.000888995)
(0.0616842 0 -0.0010051)
(0.0629234 0 -0.00113634)
(0.0640421 0 -0.00128373)
(0.0650146 0 -0.00144893)
(0.0658178 0 -0.00163512)
(0.0664327 0 -0.00184732)
(0.0668427 0 -0.00209099)
(0.00313744 0 -2.71556e-05)
(0.00905253 0 -7.83454e-05)
(0.0143112 0 -0.00012386)
(0.0189942 0 -0.000164405)
(0.0231746 0 -0.00020065)
(0.0269166 0 -0.000233215)
(0.0302768 0 -0.000262705)
(0.0333058 0 -0.00028973)
(0.0360491 0 -0.000314936)
(0.0385476 0 -0.000339021)
(0.0408382 0 -0.000362756)
(0.0429542 0 -0.000387001)
(0.0449252 0 -0.000412713)
(0.046777 0 -0.000440948)
(0.0485317 0 -0.000472842)
(0.0502121 0 -0.00050972)
(0.0518328 0 -0.000552889)
(0.0534007 0 -0.000603562)
(0.0549229 0 -0.00066304)
(0.0564026 0 -0.00073261)
(0.0578347 0 -0.000812955)
(0.0592104 0 -0.00090493)
(0.0605173 0 -0.00100915)
(0.0617387 0 -0.00112594)
(0.0628556 0 -0.0012557)
(0.0638487 0 -0.00139902)
(0.0646996 0 -0.00155687)
(0.0653925 0 -0.00173078)
(0.0659151 0 -0.0019224)
(0.0662581 0 -0.00213177)
(0.00314278 0 -2.90384e-05)
(0.00907078 0 -8.38683e-05)
(0.0143465 0 -0.000132849)
(0.0190504 0 -0.000176814)
(0.0232554 0 -0.000216535)
(0.027025 0 -0.000252723)
(0.0304156 0 -0.000286057)
(0.033477 0 -0.000317213)
(0.0362538 0 -0.000346889)
(0.038786 0 -0.000375824)
(0.0411093 0 -0.000404814)
(0.0432556 0 -0.000434722)
(0.045253 0 -0.000466485)
(0.047126 0 -0.000501113)
(0.0488955 0 -0.000539691)
(0.0505804 0 -0.000583426)
(0.0521924 0 -0.000633216)
(0.0537394 0 -0.000690186)
(0.0552266 0 -0.00075536)
(0.0566548 0 -0.000829624)
(0.05802 0 -0.000913582)
(0.0593144 0 -0.00100774)
(0.0605273 0 -0.00111243)
(0.0616456 0 -0.0012278)
(0.0626548 0 -0.001354)
(0.0635411 0 -0.00149119)
(0.0642917 0 -0.00163966)
(0.0648964 0 -0.00179964)
(0.0653479 0 -0.00197082)
(0.0656424 0 -0.00215123)
(0.00314456 0 -3.08898e-05)