/*--------------------------------*- C++ -*----------------------------------*\
| =========                 |                                                 |
| \\      /  F ield         | OpenFOAM: The Open Source CFD Toolbox           |
|  \\    /   O peration     | Version:  dev                                   |
|   \\  /    A nd           | Web:      www.OpenFOAM.org                      |
|    \\/     M anipulation  |                                                 |
\*---------------------------------------------------------------------------*/
FoamFile
{
    version     2.0;
    format      ascii;
    class       volVectorField;
    location    "1.35";
    object      U;
}
// * * * * * * * * * * * * * * * * * * * * * * * * * * * * * * * * * * * * * //

dimensions      [0 1 -1 0 0 0 0];

internalField   nonuniform List<vector> 
2790
(
(9.93674 0 0.0175707)
(9.87162 2.2287e-21 0.0233501)
(9.78716 -2.33313e-21 0.0266011)
(9.6896 -4.91541e-21 0.0299657)
(9.58397 5.13048e-21 0.0334585)
(9.471 0 0.0370173)
(9.34992 -2.26582e-20 0.040753)
(9.21991 -3.5739e-20 0.0447975)
(9.08023 1.24255e-20 0.0492588)
(8.93005 2.63161e-20 0.0542393)
(8.76837 -1.37009e-20 0.0598516)
(8.59398 -7.24479e-21 0.0662246)
(8.40552 3.0756e-20 0.0735085)
(8.20139 -2.7855e-20 0.0818736)
(7.97981 0 0.0915162)
(7.73878 0 0.10267)
(7.47607 0 0.115616)
(7.18916 0 0.130682)
(6.87529 2.09779e-20 0.14825)
(6.53141 0 0.168767)
(6.15418 0 0.192769)
(5.74001 0 0.220893)
(5.28504 0 0.253907)
(4.78519 0 0.292782)
(4.2361 1.15236e-19 0.338819)
(3.63294 4.87485e-19 0.393891)
(2.96994 -1.00033e-18 0.460926)
(2.23936 5.07837e-19 0.545342)
(1.41462 1.28212e-18 0.662058)
(0.703686 1.67955e-18 0.785153)
(10.003 2.13487e-21 0.0332225)
(10 -2.22367e-21 0.0450967)
(9.97905 -9.33744e-21 0.052145)
(9.94281 9.75531e-21 0.0599858)
(9.89537 0 0.0686411)
(9.83769 0 0.0778786)
(9.7693 6.76675e-20 0.0878975)
(9.68955 2.36711e-20 0.0989834)
(9.59784 7.47612e-20 0.111381)
(9.49346 -1.17319e-19 0.125334)
(9.37554 -2.8061e-20 0.14112)
(9.24301 6.43053e-20 0.159063)
(9.0946 -1.5095e-20 0.179541)
(8.92883 -3.976e-21 0.202987)
(8.74401 1.33013e-19 0.229888)
(8.53821 1.14394e-20 0.260823)
(8.30928 -1.47193e-19 0.296475)
(8.05474 0 0.33763)
(7.77181 -2.06795e-20 0.38518)
(7.45736 0 0.440119)
(7.10785 0 0.503574)
(6.71933 -2.95886e-19 0.576822)
(6.28731 4.03537e-19 0.661287)
(5.80665 -1.08136e-18 0.758609)
(5.27125 1.68424e-18 0.870822)
(4.67327 -9.25875e-19 1.00085)
(4.00169 0 1.15354)
(3.23931 -1.99467e-18 1.33849)
(2.33507 2.19388e-18 1.58226)
(1.40091 3.79299e-18 1.99243)
(10.0004 0 0.0312741)
(9.99515 1.41939e-19 0.047445)
(9.97686 0 0.0592035)
(9.94551 -7.80339e-20 0.0720621)
(9.9039 0 0.0863284)
(9.85305 0 0.101768)
(9.79268 -1.35245e-19 0.118618)
(9.72223 4.69938e-20 0.137271)
(9.64116 2.4691e-20 0.158099)
(9.54885 -1.56397e-19 0.181485)
(9.44458 5.30825e-20 0.207874)
(9.32742 1.13689e-19 0.237794)
(9.1963 1.36218e-19 0.271865)
(9.04997 -1.25382e-19 0.310798)
(8.88698 6.22238e-21 0.3554)
(8.70568 -8.7504e-21 0.406634)
(8.50422 0 0.465646)
(8.28044 3.51674e-19 0.533768)
(8.03191 -3.22965e-19 0.612542)
(7.75581 -6.94786e-19 0.703736)
(7.44886 -1.60248e-20 0.809382)
(7.10725 -2.67319e-19 0.931822)
(6.72636 1.79036e-20 1.07381)
(6.30056 8.65596e-19 1.23866)
(5.82267 2.52768e-19 1.43056)
(5.2828 -3.16356e-18 1.6555)
(4.66674 4.25838e-19 1.92354)
(3.95132 6.11339e-18 2.25506)
(3.12436 -4.15682e-18 2.65929)
(2.00628 -9.92897e-19 3.43213)
(9.99851 1.44363e-19 0.0315124)
(9.9907 -1.50664e-19 0.0536968)
(9.97213 0 0.0717089)
(9.94172 1.00469e-22 0.0901046)
(9.90129 0 0.109833)
(9.85186 -8.55644e-20 0.130981)
(9.79335 4.49132e-20 0.15391)
(9.72531 -9.45626e-20 0.179138)
(9.64727 1.47979e-19 0.207175)
(9.55876 -5.11015e-20 0.238545)
(9.45918 -2.71497e-20 0.27385)
(9.34781 2.29274e-19 0.313793)
(9.22379 -5.07861e-19 0.359205)
(9.08617 2.49027e-19 0.411037)
(8.93379 -4.12607e-21 0.470367)
(8.76537 0 0.538482)
(8.57951 0 0.616929)
(8.37462 -7.64544e-20 0.707518)
(8.14885 -6.49718e-19 0.812388)
(7.90008 7.52901e-19 0.934081)
(7.62581 5.40447e-19 1.0756)
(7.32302 9.22459e-19 1.2405)
(6.98791 1.57024e-18 1.43309)
(6.61565 -1.59992e-18 1.65885)
(6.19987 -2.11754e-19 1.92494)
(5.73169 -4.36596e-19 2.24142)
(5.19966 3.08691e-18 2.62305)
(4.57241 -3.94056e-18 3.10541)
(3.95654 -3.56736e-18 3.62054)
(2.68665 4.77118e-18 4.78695)
(9.99752 1.43654e-19 0.0333444)
(9.98808 1.32371e-19 0.0601942)
(9.96904 -1.66618e-19 0.0832642)
(9.93921 5.81778e-20 0.106302)
(9.89975 4.06129e-20 0.130759)
(9.85153 8.54193e-20 0.157061)
(9.79455 8.98204e-20 0.185677)
(9.72843 8.60207e-22 0.217191)
(9.65277 1.00247e-21 0.252198)
(9.56715 -2.0505e-19 0.291324)
(9.4711 0 0.335284)
(9.36401 0 0.384909)
(9.2452 2.96946e-20 0.441177)
(9.11399 0 0.505235)
(8.96946 0 0.578381)
(8.81055 -5.52409e-19 0.662123)
(8.63633 5.69805e-19 0.758289)
(8.44573 -5.7071e-19 0.869065)
(8.23754 6.68635e-20 0.997056)
(8.01037 6.55351e-19 1.14541)
(7.76264 3.46335e-19 1.31793)
(7.49246 0 1.51926)
(7.19743 -1.86487e-19 1.75515)
(6.87454 1.77075e-18 2.03305)
(6.51976 1.64016e-18 2.36275)
(6.12769 -3.25721e-18 2.75785)
(5.69565 0 3.23449)
(5.17005 0 3.85061)
(4.84716 6.11764e-18 4.38454)
(3.45145 -6.66255e-18 5.91988)
(9.99703 -2.70555e-19 0.0359783)
(9.98661 -4.22476e-19 0.0668004)
(9.96729 1.47849e-19 0.0945313)
(9.9381 0 0.122232)
(9.89979 -4.07032e-20 0.151507)
(9.85303 4.23701e-20 0.183011)
(9.79785 -1.78316e-19 0.2173)
(9.73394 9.34297e-20 0.255008)
(9.66093 9.64515e-22 0.296792)
(9.57848 6.79986e-22 0.343363)
(9.4862 0 0.395545)
(9.38359 -5.59375e-20 0.454289)
(9.27006 0 0.520674)
(9.14519 0 0.596002)
(9.00839 0 0.681801)
(8.85882 -1.68191e-20 0.779767)
(8.69584 0 0.891905)
(8.5188 0 1.02069)
(8.32706 -1.32831e-18 1.16909)
(8.11997 1.20274e-18 1.34069)
(7.89686 -1.69985e-19 1.53992)
(7.65704 1.41463e-18 1.77227)
(7.39971 -1.25903e-18 2.04464)
(7.12414 0 2.36594)
(6.82963 0 2.74771)
(6.5148 2.89248e-18 3.20572)
(6.19102 -2.95913e-18 3.75225)
(5.76334 -2.98449e-18 4.48167)
(5.76858 2.75161e-18 4.9423)
(4.26938 -1.908e-19 6.80032)
(9.99682 0 0.0390237)
(9.98591 2.81044e-19 0.0735225)
(9.96658 2.9402e-19 0.105589)
(9.93817 0 0.137772)
(9.9012 0 0.171658)
(9.85614 0 0.208091)
(9.80306 8.86938e-20 0.247744)
(9.74169 -2.90765e-22 0.291308)
(9.67174 9.65754e-20 0.339498)
(9.59292 0 0.393098)
(9.50492 -1.05951e-19 0.453035)
(9.40736 2.79361e-19 0.520372)
(9.29979 -2.31129e-19 0.59626)
(9.18179 0 0.682064)
(9.05318 6.33782e-20 0.779486)
(8.91357 1.6703e-20 0.890429)
(8.76245 5.60687e-19 1.01703)
(8.59952 -5.76654e-19 1.16194)
(8.42462 -1.22128e-18 1.32838)
(8.2378 1.25256e-18 1.52023)
(8.03928 8.11547e-20 1.74234)
(7.82956 -1.3641e-18 2.00079)
(7.60949 1.21519e-18 2.30319)
(7.38073 0 2.65929)
(7.14615 -8.86173e-20 3.08136)
(6.9076 1.83337e-19 3.58639)
(6.69513 -8.96842e-20 4.17641)
(6.35382 -5.06939e-18 4.9994)
(6.68916 4.85786e-18 5.31246)
(5.10656 -2.80372e-19 7.44546)
(9.99674 0 0.0422628)
(9.98569 2.96748e-19 0.0802569)
(9.96669 -2.75091e-19 0.116345)
(9.93928 -3.83289e-20 0.152771)
(9.90384 0 0.191057)
(9.86073 0 0.232183)
(9.81002 2.64267e-19 0.276939)
(9.75154 -9.17637e-20 0.326074)
(9.68503 -1.92229e-19 0.380337)
(9.61029 0 0.440571)
(9.5271 1.05506e-19 0.507784)
(9.4352 -4.42641e-19 0.583134)
(9.33436 3.42577e-19 0.66786)
(9.22412 4.83427e-19 0.76335)
(9.10442 -1.00382e-18 0.87135)
(8.97535 5.20007e-19 0.993932)
(8.83675 -5.49594e-19 1.13341)
(8.68864 5.64607e-19 1.29256)
(8.53135 0 1.47472)
(8.36548 1.89943e-20 1.68393)
(8.19203 -4.07403e-20 1.92525)
(8.01271 0 2.20507)
(7.82994 1.68949e-19 2.53127)
(7.64779 -2.08092e-20 2.91392)
(7.47247 2.7847e-18 3.36509)
(7.3073 -5.15069e-18 3.90246)
(7.20555 5.0668e-18 4.51158)
(6.9379 -2.38172e-18 5.40889)
(7.58233 -1.63689e-18 5.52509)
(5.93307 8.88775e-18 7.88375)
(9.99673 2.49951e-19 0.0455692)
(9.98578 -2.61354e-19 0.0868991)
(9.96734 0 0.126714)
(9.9411 -3.0526e-19 0.167134)
(9.90736 1.59759e-19 0.209604)
(9.8664 -1.67107e-19 0.255181)
(9.81831 -3.5002e-19 0.304757)
(9.763 1.82544e-19 0.35913)
(9.70028 5.74174e-19 0.419079)
(9.63 -1.98726e-19 0.485487)
(9.55204 1.039e-19 0.55943)
(9.46628 0 0.642133)
(9.37264 1.1387e-19 0.734921)
(9.2708 4.76231e-19 0.839241)
(9.16079 -1.0489e-18 0.956819)
(9.04294 5.10758e-19 1.08977)
(8.9175 -6.63919e-20 1.24055)
(8.78488 0 1.41201)
(8.64603 1.19217e-18 1.60758)
(8.50195 -2.39484e-18 1.83133)
(8.35413 2.40595e-18 2.08832)
(8.20547 1.20829e-18 2.38495)
(8.0598 7.83313e-20 2.72898)
(7.92336 2.02966e-20 3.13033)
(7.80547 0 3.60021)
(7.70928 -1.5705e-19 4.15703)
(7.7137 -2.22969e-18 4.76489)
(7.51051 -8.70723e-19 5.71567)
(8.4276 -2.87127e-18 5.61722)
(6.71697 3.91519e-18 8.13729)
(9.99682 2.64582e-19 0.0488568)
(9.98612 0 0.0933674)
(9.9684 -2.53556e-19 0.136642)
(9.94347 -3.69967e-20 0.180802)
(9.91158 -7.95783e-20 0.22722)
(9.87293 2.49702e-19 0.276988)
(9.82764 6.84758e-22 0.331074)
(9.77573 -3.62978e-19 0.390322)
(9.7171 1.89354e-19 0.455533)
(9.65163 -5.92536e-19 0.527639)
(9.57923 -1.03634e-19 0.607761)
(9.49991 0 0.69716)
(9.41373 -3.38602e-19 0.797211)
(9.32067 4.63674e-19 0.909423)
(9.22092 -4.87431e-19 1.03551)
(9.11488 1.51376e-18 1.17755)
(9.00319 -9.7371e-19 1.33804)
(8.88656 -1.08697e-18 1.51981)
(8.76652 1.14569e-18 1.72634)
(8.64462 1.15289e-18 1.96178)
(8.52293 -2.35162e-18 2.23105)
(8.40521 -1.15676e-18 2.5402)
(8.29647 -7.65553e-20 2.8966)
(8.20412 -2.68505e-18 3.30953)
(8.14049 4.69692e-18 3.78889)
(8.10784 -2.28013e-18 4.35394)
(8.20882 1.98399e-18 4.94576)
(8.06507 6.32436e-19 5.92302)
(9.2004 -1.57026e-18 5.63683)
(7.4337 0 8.22261)
(9.99697 -1.66933e-21 0.0520593)
(9.98667 3.44945e-20 0.099589)
(9.96981 5.41537e-19 0.146076)
(9.94633 7.67776e-20 0.193715)
(9.91646 -7.88855e-20 0.243837)
(9.88022 -2.48366e-19 0.297537)
(9.83784 6.04036e-19 0.355815)
(9.78948 -1.78566e-19 0.419543)
(9.73513 -1.86918e-19 0.489563)
(9.67469 1.3012e-21 0.566867)
(9.60816 1.32759e-21 0.652614)
(9.53566 0 0.748056)
(9.45735 -1.10731e-19 0.854567)
(9.37346 0 0.973683)
(9.28434 0 1.10712)
(9.19053 0 1.2569)
(9.09293 1.26624e-19 1.42547)
(8.99271 -1.30539e-19 1.61566)
(8.89145 -2.02375e-19 1.83081)
(8.79136 -1.37201e-19 2.07506)
(8.69565 0 2.35313)
(8.60858 0 2.67062)
(8.53612 1.99292e-18 3.03447)
(8.48608 -1.98167e-18 3.45296)
(8.47321 -5.34565e-19 3.9341)
(8.49827 -1.00058e-18 4.49746)
(8.68227 0 5.06563)
(8.59852 1.46105e-18 6.03316)
(9.87399 -2.72788e-18 5.64288)
(8.09336 1.1818e-18 8.16107)
(9.99715 -1.06853e-18 0.0551327)
(9.98734 5.14245e-20 0.105514)
(9.97141 -5.74196e-19 0.154975)
(9.94946 3.38829e-19 0.205823)
(9.92171 -7.83743e-20 0.259396)
(9.88804 -1.64473e-19 0.316762)
(9.84877 1.70815e-19 0.378897)
(9.80425 1.79985e-19 0.4467)
(9.75441 1.11258e-21 0.52107)
(9.69921 -1.95595e-19 0.603044)
(9.63883 1.00707e-18 0.6938)
(9.57347 -4.16672e-19 0.794569)
(9.50338 0 0.906699)
(9.42893 0 1.03173)
(9.35065 0 1.17138)
(9.26928 2.39538e-19 1.32757)
(9.18588 -1.12302e-18 1.50266)
(9.1022 1.14834e-18 1.69944)
(9.01977 1.32174e-19 1.9211)
(8.9412 1.34923e-19 2.17144)
(8.87061 2.16181e-18 2.45486)
(8.81272 1.22e-20 2.77661)
(8.77447 2.44395e-18 3.14318)
(8.7643 0 3.56181)
(8.79859 5.16238e-19 4.03823)
(8.87629 9.59272e-19 4.59123)
(9.1287 0 5.13443)
(9.1121 1.3714e-18 6.05189)
(10.4421 1.63094e-18 5.66781)
(8.72774 -1.32874e-18 8.00819)
(9.9974 1.04621e-18 0.0580408)
(9.98816 0 0.111103)
(9.97328 2.85946e-19 0.163302)
(9.953 7.47956e-20 0.217077)
(9.9275 -7.78392e-20 0.273824)
(9.8966 -1.63189e-19 0.334552)
(9.86075 5.07796e-19 0.400166)
(9.82036 -1.77303e-19 0.471627)
(9.7753 3.67927e-19 0.549911)
(9.72552 -1.8925e-19 0.636043)
(9.67138 -1.95125e-19 0.73118)
(9.61322 -4.10798e-19 0.836545)
(9.55138 0 0.953467)
(9.4864 2.19946e-19 1.08347)
(9.419 2.27101e-19 1.22824)
(9.35011 -1.18195e-18 1.38957)
(9.28086 7.25557e-19 1.56964)
(9.21328 0 1.77116)
(9.14934 -1.26466e-18 1.99718)
(9.09213 1.02795e-18 2.25114)
(9.04581 -5.12027e-19 2.53693)
(9.01532 2.56678e-18 2.85929)
(9.00855 -2.05235e-18 3.22411)
(9.03492 -1.9433e-18 3.63759)
(9.11195 2.80434e-18 4.10352)
(9.23759 -3.38211e-18 4.63828)
(9.54352 2.89692e-18 5.1571)
(9.60292 -1.24522e-18 5.99091)
(10.9219 0 5.70161)
(9.3714 -1.12661e-18 7.85076)
(9.99769 -1.92833e-21 0.0607367)
(9.98919 3.38995e-20 0.116281)
(9.97559 -6.01586e-19 0.170983)
(9.95712 0 0.227414)
(9.93394 3.08986e-19 0.287045)
(9.90596 4.84002e-19 0.350803)
(9.87363 -1.00915e-18 0.419511)
(9.83733 -1.74469e-19 0.494212)
(9.79709 0 0.575969)
(9.75284 1.89552e-19 0.665771)
(9.70495 5.89862e-19 0.764702)
(9.654 -4.04781e-19 0.873971)
(9.60041 2.09018e-19 0.994879)
(9.54486 -6.53197e-19 1.12889)
(9.48839 8.95529e-19 1.27763)
(9.43197 -1.83923e-18 1.44281)
(9.3767 1.17853e-18 1.62642)
(9.32469 0 1.83094)
(9.27838 2.47084e-19 2.05918)
(9.24153 9.86705e-19 2.31428)
(9.21826 -2.46613e-18 2.5997)
(9.21355 -5.24554e-19 2.91954)
(9.23578 -9.88303e-19 3.27874)
(9.29493 -1.8728e-18 3.68232)
(9.40941 8.82455e-19 4.13258)
(9.57724 -1.48344e-18 4.64197)
(9.92178 1.71292e-19 5.13601)
(10.0635 1.95823e-19 5.86402)
(11.3356 8.6121e-19 5.71509)
(10.0673 9.76369e-19 7.75866)
(9.99796 -5.0175e-19 0.0631911)
(9.99024 -5.54165e-19 0.12099)
(9.97803 1.12714e-18 0.17796)
(9.96137 -2.93883e-19 0.236795)
(9.94053 7.56006e-20 0.299019)
(9.9156 -4.00947e-19 0.365482)
(9.88682 -1.65298e-19 0.436954)
(9.85455 6.92202e-19 0.514522)
(9.81907 5.38156e-19 0.599302)
(9.78038 -2.35572e-21 0.692274)
(9.73889 -2.06829e-21 0.794433)
(9.6953 1.99762e-19 0.906939)
(9.65008 -6.2143e-19 1.03106)
(9.60393 4.24594e-19 1.16813)
(9.55817 2.20203e-19 1.31972)
(9.5139 0 1.48755)
(9.47235 -4.5548e-19 1.67342)
(9.43562 9.3394e-19 1.87946)
(9.40636 4.66201e-19 2.1081)
(9.38841 -4.83021e-19 2.36206)
(9.38615 0 2.64451)
(9.40516 0 2.95896)
(9.45348 2.81064e-20 3.30911)
(9.54117 0 3.69862)
(9.68669 0 4.12848)
(9.88941 1.35723e-18 4.60638)
(10.2587 1.0669e-18 5.07241)
(10.4832 0 5.68167)
(11.6898 -4.37281e-19 5.66916)
(10.8328 1.02022e-18 7.72165)
(0.13474 3.00077e-20 -0.140653)
(0.315656 0 -0.112695)
(0.581516 0 -0.0881385)
(0.999183 0 -0.0857855)
(1.57685 0 -0.0882794)
(2.1183 0 -0.086309)
(2.53133 0 -0.0819566)
(2.86145 0 -0.0777431)
(3.14205 -2.7339e-20 -0.0751465)
(3.39495 -2.86697e-20 -0.0738564)
(3.62826 0 -0.0728456)
(3.84576 -3.34672e-20 -0.0715755)
(4.04872 3.334e-20 -0.069837)
(4.23723 0 -0.0676228)
(4.41107 0 -0.0650296)
(4.5701 -1.42428e-20 -0.0622393)
(4.71455 1.39504e-20 -0.0594777)
(4.84507 0 -0.056956)
(4.96271 -8.25837e-22 -0.0547977)
(5.06878 -1.20747e-20 -0.0530262)
(5.16486 7.67024e-22 -0.0516059)
(5.25289 -7.53354e-22 -0.0504364)
(5.33529 0 -0.0494659)
(5.41499 0 -0.0488025)
(5.49558 0 -0.0487432)
(5.58212 2.5149e-22 -0.0498547)
(5.68099 -2.47274e-22 -0.0529516)
(5.80027 -5.88462e-21 -0.059063)
(5.94867 -4.05897e-21 -0.0692655)
(6.1877 0 -0.0843235)
(0.0278663 -9.96411e-21 -0.181466)
(0.181387 -3.30947e-20 -0.173)
(0.462356 -2.88183e-20 -0.169911)
(0.904235 -6.56649e-20 -0.195315)
(1.48505 0 -0.211106)
(2.0028 2.05791e-21 -0.205901)
(2.38252 0 -0.19278)
(2.67128 -1.26276e-20 -0.181025)
(2.90665 3.96157e-20 -0.173614)
(3.10942 -2.77341e-20 -0.169597)
(3.29013 0 -0.166646)
(3.45281 2.93006e-20 -0.163185)
(3.59977 -8.78558e-20 -0.158376)
(3.73099 2.90974e-20 -0.151996)
(3.8462 3.61137e-21 -0.144083)
(3.94487 1.06665e-20 -0.134869)
(4.0265 -1.39324e-20 -0.124707)
(4.09106 -2.7317e-20 -0.113989)
(4.13922 3.3103e-21 -0.10307)
(4.17249 9.6874e-21 -0.092447)
(4.19409 0 -0.0829543)
(4.20889 -1.47743e-21 -0.0755817)
(4.22302 1.45404e-21 -0.0714085)
(4.24284 0 -0.0716367)
(4.27514 1.97759e-20 -0.0775834)
(4.32665 1.7145e-20 -0.0910527)
(4.40473 5.05251e-22 -0.114299)
(4.51743 1.82925e-20 -0.149744)
(4.67222 3.88493e-21 -0.199674)
(4.93561 -9.22214e-23 -0.264708)
(-0.024883 -3.7485e-20 -0.234854)
(0.0456142 -9.32325e-22 -0.248798)
(0.304687 -6.23627e-21 -0.271713)
(0.71175 1.27143e-19 -0.314769)
(1.21329 4.97164e-20 -0.336839)
(1.63237 -9.76148e-20 -0.326155)
(1.9224 -1.395e-21 -0.304232)
(2.12836 0 -0.286275)
(2.28523 -2.65891e-20 -0.274912)
(2.41147 8.13794e-20 -0.267862)
(2.51576 -5.64744e-20 -0.262164)
(2.60301 -5.75653e-20 -0.255365)
(2.67547 1.16019e-19 -0.245978)
(2.73361 -8.69225e-20 -0.233329)
(2.77676 -5.76169e-20 -0.217496)
(2.80483 7.11963e-21 -0.199023)
(2.81868 -6.98142e-21 -0.178896)
(2.82034 2.40133e-20 -0.158492)
(2.8136 5.76111e-20 -0.139502)
(2.80417 0 -0.123835)
(2.79808 -5.44597e-20 -0.113495)
(2.80113 3.10056e-21 -0.110213)
(2.81919 0 -0.115212)
(2.85714 -4.39494e-20 -0.129656)
(2.92041 -1.99848e-20 -0.15482)
(3.01395 -1.78405e-20 -0.19249)
(3.1406 4.33209e-22 -0.244767)
(3.30229 1.16904e-20 -0.314238)
(3.50073 1.65213e-20 -0.404636)
(3.79334 9.2989e-23 -0.519014)
(-0.0447222 -3.5806e-20 -0.27248)
(-0.0655577 1.16834e-19 -0.306498)
(0.183866 -1.0679e-19 -0.366675)
(0.542329 -7.19187e-20 -0.42002)
(0.9434 1.36734e-19 -0.440196)
(1.24858 -3.07134e-20 -0.420631)
(1.442 2.10604e-21 -0.389554)
(1.56407 -4.77684e-20 -0.365054)
(1.64452 4.8718e-20 -0.349321)
(1.70002 0 -0.338662)
(1.73812 -5.58201e-20 -0.32916)
(1.76292 4.25499e-20 -0.317722)
(1.77636 -5.79699e-20 -0.30262)
(1.77946 1.44726e-19 -0.283227)
(1.77334 4.32026e-20 -0.259966)
(1.75962 0 -0.234242)
(1.74134 0 -0.208191)
(1.72257 -5.62909e-20 -0.184355)
(1.70821 -5.4442e-20 -0.165415)
(1.704 -3.31949e-21 -0.153612)
(1.71493 5.80424e-20 -0.150684)
(1.74499 -6.22336e-21 -0.158446)
(1.79772 5.07363e-20 -0.17837)
(1.8757 8.87609e-20 -0.211446)
(1.9801 -4.19335e-20 -0.258289)
(2.11133 1.36403e-22 -0.31965)
(2.26677 1.03618e-21 -0.396715)
(2.44411 -2.43926e-20 -0.492171)
(2.64296 -1.67156e-20 -0.611522)
(2.89302 0 -0.762484)
(-0.0397721 -1.06277e-21 -0.302632)
(-0.164305 -5.88849e-20 -0.360964)
(0.0913444 1.64341e-19 -0.458284)
(0.392527 1.15638e-20 -0.506366)
(0.683401 -8.79374e-20 -0.514678)
(0.873867 -3.87943e-21 -0.48447)
(0.973661 -4.12809e-20 -0.446113)
(1.01944 -3.75945e-21 -0.417251)
(1.03555 -3.4624e-21 -0.398951)
(1.0357 5.13565e-20 -0.386327)
(1.02582 8.2197e-20 -0.374448)
(1.00925 2.7838e-20 -0.359847)
(0.987901 0 -0.340847)
(0.963123 -5.78309e-20 -0.317348)
(0.937013 -1.17393e-19 -0.290572)
(0.912267 0 -0.262846)
(0.892431 7.19776e-21 -0.237236)
(0.881618 5.62772e-20 -0.216863)
(0.88369 -6.97566e-21 -0.204486)
(0.902091 0 -0.202196)
(0.939898 0 -0.211612)
(0.999707 0 -0.234501)
(1.08165 -4.78007e-20 -0.271626)
(1.18635 -4.46547e-20 -0.322745)
(1.31152 -3.27409e-24 -0.387288)
(1.45452 -3.59327e-20 -0.464951)
(1.60993 0 -0.556803)
(1.77353 -2.30856e-20 -0.665772)
(1.94222 3.07024e-20 -0.798548)
(2.11003 0 -0.969165)
(-0.00555504 1.51988e-21 -0.336632)
(-0.253542 -1.39026e-19 -0.41998)
(0.0130445 -5.5881e-20 -0.539739)
(0.24452 6.24223e-20 -0.569457)
(0.428199 5.24145e-20 -0.557752)
(0.515783 -5.23206e-20 -0.51569)
(0.534077 3.92396e-20 -0.47299)
(0.51764 -9.01121e-20 -0.443645)
(0.486676 0 -0.426117)
(0.450833 0 -0.414352)
(0.413835 -2.81963e-20 -0.402603)
(0.37758 2.78532e-20 -0.387371)
(0.343398 0 -0.367393)
(0.31266 0 -0.343255)
(0.287302 1.16706e-19 -0.31704)
(0.269956 1.1904e-19 -0.291739)
(0.26318 1.18347e-19 -0.270757)
(0.26959 1.16989e-19 -0.257319)
(0.291575 -7.06762e-21 -0.253923)
(0.33127 6.96177e-21 -0.262532)
(0.390395 0 -0.284738)
(0.469545 0 -0.321467)
(0.566614 -2.94239e-21 -0.372789)
(0.680669 1.98503e-22 -0.437438)
(0.807918 8.29571e-20 -0.514081)
(0.945251 3.71495e-20 -0.601866)
(1.08457 5.98728e-20 -0.700841)
(1.22007 2.23427e-20 -0.813195)
(1.34322 -3.08432e-20 -0.945927)
(1.423 0 -1.11738)
(0.0665314 0 -0.393995)
(-0.333966 9.02003e-20 -0.478391)
(-0.0701053 9.40594e-20 -0.605591)
(0.0902298 0 -0.603086)
(0.176843 0 -0.567506)
(0.178345 3.73588e-20 -0.515675)
(0.133821 -3.0723e-20 -0.473701)
(0.0754577 -8.65491e-20 -0.44901)
(0.0176258 4.83431e-20 -0.436533)
(-0.0349244 1.05422e-19 -0.428754)
(-0.0809666 2.55336e-20 -0.419707)
(-0.119495 2.79354e-20 -0.406428)
(-0.150585 -2.96044e-20 -0.388405)
(-0.173553 2.91397e-20 -0.366841)
(-0.187399 0 -0.344279)
(-0.190713 -1.19151e-20 -0.324007)
(-0.182016 -1.02444e-19 -0.309449)
(-0.159659 -1.23323e-19 -0.303846)
(-0.12227 7.22431e-21 -0.309709)
(-0.0686027 0 -0.328786)
(0.00204226 -3.34174e-21 -0.362213)
(0.0893917 3.29525e-21 -0.410679)
(0.190546 0 -0.473331)
(0.302995 9.14073e-20 -0.548059)
(0.422117 4.00544e-20 -0.632261)
(0.543956 6.98643e-20 -0.724162)
(0.659746 -1.17699e-19 -0.822934)
(0.761969 -4.35193e-20 -0.929937)
(0.835124 0 -1.05121)
(0.845198 9.39612e-21 -1.20406)
(0.192495 0 -0.505132)
(-0.420857 0 -0.517145)
(-0.166045 -9.94944e-20 -0.645663)
(-0.0749432 0 -0.603555)
(-0.0703185 1.12928e-19 -0.545839)
(-0.132844 -9.13808e-20 -0.49002)
(-0.216991 8.08707e-20 -0.45489)
(-0.293804 9.01676e-20 -0.440566)
(-0.358535 -2.49555e-19 -0.436703)
(-0.410802 5.09616e-20 -0.435244)
(-0.451467 0 -0.431137)
(-0.481343 0 -0.421922)
(-0.501204 -1.18777e-19 -0.40766)
(-0.511221 0 -0.390114)
(-0.511186 0 -0.372113)
(-0.500578 -1.34135e-19 -0.357269)
(-0.478547 -9.19832e-20 -0.349274)
(-0.444214 -2.22548e-20 -0.351414)
(-0.396702 7.31622e-21 -0.366147)
(-0.335453 0 -0.394933)
(-0.26057 -1.13898e-19 -0.438326)
(-0.17369 3.31904e-21 -0.495961)
(-0.0770138 0 -0.56637)
(0.0263099 -1.79771e-19 -0.647209)
(0.132324 -7.94435e-20 -0.735428)
(0.23493 -7.15873e-20 -0.826904)
(0.325355 5.77072e-20 -0.919862)
(0.393902 1.87393e-21 -1.01442)
(0.421856 -2.62166e-20 -1.11633)
(0.389302 -9.40933e-21 -1.23586)
(0.364021 -3.34222e-20 -0.687437)
(-0.527125 -6.72413e-20 -0.520865)
(-0.282789 0 -0.655415)
(-0.253685 0 -0.572718)
(-0.310252 1.22492e-19 -0.498105)
(-0.40796 -1.2803e-19 -0.448059)
(-0.501202 -1.63412e-19 -0.427072)
(-0.576959 0 -0.425692)
(-0.634647 1.99382e-19 -0.431919)
(-0.675955 0 -0.437889)
(-0.703614 -1.10997e-19 -0.439544)
(-0.719072 1.73185e-19 -0.435218)
(-0.723821 2.67153e-19 -0.425372)
(-0.718883 6.23815e-20 -0.412195)
(-0.704756 4.55318e-20 -0.398918)
(-0.6816 -1.39821e-19 -0.389395)
(-0.649194 -3.7768e-21 -0.387507)
(-0.607083 0 -0.396586)
(-0.554765 1.20146e-19 -0.418964)
(-0.491964 -1.16488e-19 -0.455764)
(-0.419025 2.21127e-19 -0.507033)
(-0.337471 0 -0.571959)
(-0.249524 1.47162e-21 -0.648387)
(-0.158961 -2.06145e-21 -0.732865)
(-0.0702904 8.05549e-20 -0.820767)
(0.0114495 -3.32027e-22 -0.907674)
(0.0774612 -2.41329e-22 -0.99079)
(0.115959 4.20985e-20 -1.0691)
(0.108796 2.62352e-20 -1.14697)
(0.0566626 1.27458e-25 -1.22708)
(0.548881 -3.0655e-20 -0.91869)
(-0.672591 1.6779e-19 -0.472512)
(-0.423339 4.63672e-20 -0.635982)
(-0.443943 0 -0.516146)
(-0.52764 -2.9052e-20 -0.438798)
(-0.628269 7.25464e-20 -0.401753)
(-0.712351 8.24149e-20 -0.396977)
(-0.773288 9.72722e-20 -0.409699)
(-0.81301 -1.95879e-19 -0.426363)
(-0.835726 0 -0.439803)
(-0.844627 0 -0.447259)
(-0.841729 -1.15163e-19 -0.447841)
(-0.829057 -2.4079e-19 -0.442282)
(-0.80833 -1.20891e-19 -0.433054)
(-0.78069 0 -0.42378)
(-0.746813 1.07378e-19 -0.418579)
(-0.706945 2.80833e-19 -0.421509)
(-0.660973 1.02296e-19 -0.436)
(-0.608531 -1.03893e-19 -0.464348)
(-0.549241 1.08002e-19 -0.507425)
(-0.483226 -1.07272e-19 -0.5648)
(-0.411522 -3.38213e-21 -0.634977)
(-0.336255 -1.00047e-19 -0.715051)
(-0.26099 8.99883e-20 -0.800771)
(-0.190173 -7.94076e-20 -0.886602)
(-0.128775 0 -0.966654)
(-0.0853821 0 -1.037)
(-0.0720007 0 -1.09674)
(-0.103207 2.46979e-20 -1.14926)
(-0.161452 -1.56387e-20 -1.19363)
(0.711291 -2.70421e-20 -1.13864)
(-0.882676 -8.66796e-20 -0.366156)
(-0.585877 -1.20666e-20 -0.599545)
(-0.629919 1.01793e-19 -0.453028)
(-0.704122 -1.44017e-19 -0.380907)
(-0.786528 -5.42439e-21 -0.358685)
(-0.847662 1.77296e-19 -0.371658)
(-0.882388 -8.95658e-20 -0.398845)
(-0.89546 5.32393e-20 -0.424826)
(-0.893353 -1.6342e-19 -0.444419)
(-0.879258 -5.76952e-20 -0.456733)
(-0.855191 -1.79151e-19 -0.461324)
(-0.823559 2.14526e-19 -0.45892)
(-0.786685 3.08551e-20 -0.452268)
(-0.746223 0 -0.445383)
(-0.703264 -1.61028e-20 -0.442647)
(-0.658483 -2.40197e-19 -0.44831)
(-0.61206 -1.32017e-19 -0.466008)
(-0.56364 1.25859e-19 -0.498187)
(-0.512485 3.88031e-21 -0.545642)
(-0.45803 3.62475e-21 -0.607526)
(-0.400405 0 -0.681545)
(-0.341201 1.99482e-19 -0.763908)
(-0.283405 0 -0.849385)
(-0.231208 -8.09567e-20 -0.931462)
(-0.189297 0 -1.00323)
(-0.165611 3.75242e-22 -1.05996)
(-0.171932 -3.71768e-22 -1.1007)
(-0.218703 1.03737e-22 -1.12865)
(-0.279288 1.57013e-20 -1.14459)
(0.84598 0 -1.30785)
(-1.15894 -1.79372e-20 -0.224208)
(-0.761105 3.69565e-20 -0.574956)
(-0.78843 0 -0.404715)
(-0.825359 0 -0.334852)
(-0.876047 0 -0.325582)
(-0.904128 -8.63347e-20 -0.35707)
(-0.902797 0 -0.398969)
(-0.881729 5.44719e-20 -0.431981)
(-0.850145 5.57784e-20 -0.454753)
(-0.810207 5.48491e-20 -0.46995)
(-0.762881 1.78954e-19 -0.476965)
(-0.711006 -1.23566e-19 -0.475767)
(-0.657638 0 -0.469427)
(-0.604801 0 -0.46252)
(-0.553893 0 -0.459649)
(-0.50602 1.29285e-19 -0.465208)
(-0.461782 0 -0.483169)
(-0.42094 -1.20837e-19 -0.516426)
(-0.382244 -3.88082e-21 -0.565995)
(-0.344098 1.19156e-19 -0.630774)
(-0.305274 0 -0.707625)
(-0.266098 -1.00263e-19 -0.7917)
(-0.228538 -1.36217e-21 -0.876559)
(-0.196179 8.07024e-20 -0.954605)
(-0.173541 1.17301e-21 -1.01807)
(-0.167735 -5.70668e-20 -1.06158)
(-0.189937 0 -1.08419)
(-0.247179 -2.47469e-20 -1.08922)
(-0.308862 -1.63801e-20 -1.08103)
(0.993553 0 -1.42619)
(-1.35439 -1.3923e-20 -0.122519)
(-0.882779 -1.52434e-20 -0.588108)
(-0.880584 0 -0.386931)
(-0.872098 0 -0.304418)
(-0.889566 0 -0.303728)
(-0.878043 0 -0.35924)
(-0.830654 -5.24803e-20 -0.418104)
(-0.768714 5.16632e-20 -0.45273)
(-0.705566 -1.1707e-19 -0.472964)
(-0.638741 -3.08558e-20 -0.488623)
(-0.566606 1.5831e-19 -0.496395)
(-0.493209 0 -0.493659)
(-0.422819 -1.36148e-19 -0.484409)
(-0.35754 1.71174e-20 -0.474324)
(-0.298938 -1.69451e-20 -0.468013)
(-0.248639 0 -0.469749)
(-0.208068 0 -0.484011)
(-0.177289 -2.03189e-21 -0.514587)
(-0.154909 2.01196e-21 -0.563294)
(-0.138064 5.26268e-21 -0.629115)
(-0.123758 0 -0.708207)
(-0.110121 3.13201e-21 -0.794351)
(-0.0973492 -2.98923e-22 -0.879438)
(-0.0877987 8.29509e-20 -0.954452)
(-0.085773 2.03001e-21 -1.01089)
(-0.0977404 -4.48081e-21 -1.04289)
(-0.134116 0 -1.04933)
(-0.199221 -1.35275e-22 -1.03353)
(-0.261676 3.39454e-20 -1.00363)
(1.49767 -9.0654e-21 -1.48278)
(-1.33393 3.81133e-20 -0.0749157)
(-0.84851 1.44335e-20 -0.604667)
(-0.844875 0 -0.372648)
(-0.814394 8.00309e-20 -0.265098)
(-0.811154 1.15722e-20 -0.284677)
(-0.754768 -8.82092e-20 -0.388834)
(-0.650731 -5.31379e-20 -0.466697)
(-0.545176 -5.37193e-20 -0.487458)
(-0.45466 -5.34088e-21 -0.496356)
(-0.363833 3.17956e-20 -0.513136)
(-0.266754 -1.91026e-19 -0.521867)
(-0.171028 1.69839e-19 -0.513991)
(-0.0833028 1.52505e-19 -0.497508)
(-0.0049859 -1.73396e-20 -0.480483)
(0.0624431 0 -0.46658)
(0.115801 0 -0.459791)
(0.152741 -1.42443e-19 -0.465391)
(0.17251 -2.69028e-21 -0.48847)
(0.176509 5.24076e-22 -0.532102)
(0.167835 -2.52204e-19 -0.596265)
(0.151512 0 -0.676774)
(0.132153 -1.11833e-19 -0.765858)
(0.112545 0 -0.85314)
(0.0929055 -8.53139e-20 -0.927681)
(0.0701215 7.68377e-20 -0.979949)
(0.0379113 1.84304e-19 -1.0036)
(-0.013474 -9.31207e-20 -0.997047)
(-0.0858648 5.75271e-20 -0.963112)
(-0.149155 -3.63328e-20 -0.912516)
(2.6962 -4.92122e-19 -0.326491)
(-0.813592 1.15023e-19 -0.534435)
(-0.47105 1.91806e-20 -0.580564)
(-0.552651 1.7818e-20 -0.313016)
(-0.565362 9.30848e-20 -0.20505)
(-0.533015 -1.24736e-19 -0.311373)
(-0.418262 -9.76522e-20 -0.48855)
(-0.2805 1.00343e-19 -0.549123)
(-0.161587 5.65656e-20 -0.516876)
(-0.0679475 1.51314e-19 -0.510762)
(0.0336971 3.27909e-20 -0.541614)
(0.147565 -4.94196e-20 -0.553314)
(0.260057 -2.59847e-19 -0.535331)
(0.361218 1.45695e-19 -0.508433)
(0.451137 1.4905e-19 -0.482809)
(0.528283 0 -0.458338)
(0.587403 1.52093e-19 -0.437946)
(0.623892 1.40286e-19 -0.428729)
(0.635777 2.25399e-21 -0.437598)
(0.62325 4.23197e-21 -0.469213)
(0.588591 1.31683e-19 -0.525412)
(0.537053 -7.92899e-21 -0.603372)
(0.475861 1.10759e-19 -0.694773)
(0.412192 -1.06639e-19 -0.787031)
(0.351485 9.45672e-20 -0.86607)
(0.294398 -2.38818e-19 -0.919704)
(0.235088 -1.22618e-19 -0.940554)
(0.164331 1.90518e-19 -0.926275)
(0.0826713 -1.19536e-19 -0.878186)
(0.0177904 1.88762e-20 -0.806881)
(9.99821 0 0.0654533)
(9.99125 -1.06263e-18 0.12532)
(9.98038 -1.1118e-18 0.184374)
(9.96549 2.82193e-19 0.245406)
(9.94701 -1.42853e-21 0.309951)
(9.92523 -1.5318e-19 0.378826)
(9.9001 4.77525e-19 0.452791)
(9.87206 -2.06345e-21 0.532905)
(9.84151 -3.43679e-19 0.620274)
(9.80863 -3.56114e-19 0.71589)
(9.7739 3.67776e-19 0.820693)
(9.73792 -1.87752e-19 0.935781)
(9.70126 -3.91335e-19 1.06238)
(9.66477 4.01025e-19 1.2017)
(9.62965 4.09591e-19 1.35515)
(9.5974 4.18714e-19 1.52445)
(9.56962 4.33362e-19 1.71123)
(9.5481 4.3233e-19 1.91727)
(9.53601 -4.44579e-19 2.14468)
(9.53659 -8.82212e-19 2.39562)
(9.5541 -8.6514e-19 2.6727)
(9.59497 1.69879e-18 2.97887)
(9.66678 7.96146e-19 3.31668)
(9.77941 -5.34983e-20 3.68831)
(9.94953 -1.39373e-18 4.09329)
(10.1793 1.32018e-18 4.5342)
(10.5596 -4.2397e-18 4.9656)
(10.8605 1.57094e-18 5.44868)
(12.0727 -1.54996e-19 5.49982)
(13.502 -2.83737e-18 7.94761)
(9.99847 4.93866e-19 0.067529)
(9.99236 4.85126e-19 0.12928)
(9.98291 -1.04511e-18 0.190248)
(9.9698 0 0.25326)
(9.95383 -2.85034e-19 0.319817)
(9.93536 4.43179e-19 0.39078)
(9.91412 -1.53428e-19 0.466928)
(9.89065 -1.61857e-19 0.549233)
(9.86525 4.9407e-19 0.638744)
(9.83828 0 0.736462)
(9.81031 0 0.843316)
(9.78182 0 0.960357)
(9.75363 0 1.08871)
(9.72678 -3.82048e-19 1.22946)
(9.70215 -7.92488e-19 1.38383)
(9.68149 1.20094e-18 1.55337)
(9.66672 -8.16552e-19 1.7396)
(9.65954 -4.16628e-19 1.94401)
(9.66347 0 2.16835)
(9.68145 -4.04324e-19 2.4143)
(9.71738 1.65493e-18 2.68379)
(9.77775 -7.90348e-19 2.97895)
(9.86971 8.02133e-19 3.30134)
(10.0028 -1.47605e-18 3.65172)
(10.1902 0 4.02796)
(10.4356 0 4.42755)
(10.8077 1.99305e-18 4.81466)
(11.1322 -1.53384e-18 5.17508)
(11.8306 -1.13533e-18 5.21465)
(12.557 -1.32553e-18 5.6622)
(9.99878 -9.30756e-19 0.0693674)
(9.99359 0 0.132777)
(9.98571 5.70966e-19 0.195465)
(9.97461 -1.32105e-19 0.260213)
(9.9613 4.80084e-19 0.328447)
(9.94616 -2.86914e-19 0.401136)
(9.9289 1.47297e-19 0.479112)
(9.91002 -1.55173e-19 0.563234)
(9.88976 -2.4206e-21 0.654474)
(9.86863 3.27623e-19 0.753817)
(9.84724 -3.37716e-19 0.862183)
(9.82615 0 0.980544)
(9.80649 0 1.1099)
(9.7891 3.69729e-19 1.25122)
(9.77485 -7.50653e-19 1.40561)