/*--------------------------------*- C++ -*----------------------------------*\
| =========                 |                                                 |
| \\      /  F ield         | OpenFOAM: The Open Source CFD Toolbox           |
|  \\    /   O peration     | Version:  dev                                   |
|   \\  /    A nd           | Web:      www.OpenFOAM.org                      |
|    \\/     M anipulation  |                                                 |
\*---------------------------------------------------------------------------*/
FoamFile
{
    version     2.0;
    format      ascii;
    class       surfaceVectorField;
    location    "2.95";
    object      Uf;
}
// * * * * * * * * * * * * * * * * * * * * * * * * * * * * * * * * * * * * * //

dimensions      [0 1 -1 0 0 0 0];

internalField   nonuniform List<vector> 
879
(
(9.98936 1.38563e-19 0.18844)
(10.0033 6.05308e-21 0.126792)
(9.98608 1.23737e-19 0.25517)
(9.99054 -8.61822e-21 0.195528)
(10.004 -1.22664e-19 0.131214)
(9.97196 1.55826e-19 0.326049)
(9.98827 1.09509e-19 0.264218)
(9.96317 4.84468e-20 0.396361)
(9.99175 -6.08897e-22 0.20194)
(10.0046 -1.19219e-19 0.135171)
(9.97564 -9.13046e-22 0.336773)
(9.99055 -2.25283e-19 0.27228)
(9.95247 -3.32505e-20 0.471105)
(9.96838 -6.04547e-20 0.408426)
(9.94346 -1.25544e-19 0.544705)
(9.99299 -3.49962e-19 0.207587)
(10.0052 9.60838e-20 0.138621)
(9.97943 -2.85334e-19 0.346212)
(9.99289 -1.03342e-19 0.279258)
(9.95989 -1.55351e-19 0.484249)
(9.97374 -1.92084e-19 0.418896)
(9.93499 6.11372e-21 0.623251)
(9.95299 -3.48463e-20 0.558563)
(9.92882 -2.60547e-20 0.699979)
(9.99429 3.47803e-19 0.2124)
(10.0059 1.17447e-19 0.141507)
(9.98331 -8.23408e-21 0.354248)
(9.99529 1.29971e-19 0.285078)
(9.9675 -6.78318e-20 0.495438)
(9.97921 9.17709e-20 0.427621)
(9.94743 -6.77378e-20 0.637486)
(9.96279 2.06806e-19 0.57008)
(9.92365 -5.83554e-20 0.782015)
(9.9441 -9.71387e-20 0.714164)
(9.92217 -1.81975e-19 0.861401)
(9.99563 -1.05681e-19 0.21631)
(10.0066 -1.08736e-19 0.143777)
(9.98728 2.32277e-19 0.36077)
(9.99774 0 0.289651)
(9.9753 3.73755e-19 0.504493)
(9.98477 1.21404e-19 0.434461)
(9.96017 1.75372e-19 0.648946)
(9.97276 3.55768e-20 0.579067)
(9.94242 -2.24119e-19 0.795729)
(9.95961 3.07868e-20 0.725144)
(9.92256 -1.81069e-19 0.946344)
(9.94428 -1.93198e-19 0.8742)
(9.92731 3.87936e-21 1.0277)
(9.997 0 0.219251)
(10.0073 -6.22081e-21 0.145387)
(9.9913 -1.12914e-19 0.365666)
(10.0002 1.92241e-20 0.292894)
(9.98318 -2.25517e-19 0.51126)
(9.99037 -1.25542e-19 0.439297)
(9.97304 -1.12632e-19 0.657439)
(9.98279 -1.43209e-19 0.585368)
(9.96135 6.16871e-20 0.80577)
(9.97519 2.81105e-20 0.732734)
(9.9486 -3.0969e-21 0.957704)
(9.96644 3.86304e-21 0.882869)
(9.93538 -6.07986e-20 1.11464)
(9.95708 -3.06312e-21 1.03716)
(9.92236 -1.32401e-19 1.27791)
(9.948 2.569e-22 1.19694)
(9.94004 -7.41692e-21 1.36342)
(9.99838 1.34757e-20 0.221162)
(10.008 -6.37339e-21 0.1463)
(9.99534 5.55499e-21 0.368843)
(10.0027 -7.93466e-20 0.294737)
(9.99106 -4.12816e-20 0.515614)
(9.99595 -1.35577e-20 0.442027)
(9.98589 1.75823e-21 0.662811)
(9.99276 -2.79843e-20 0.588853)
(9.98023 -3.12362e-20 0.811952)
(9.99066 2.88093e-20 0.736777)
(9.97456 3.8615e-21 0.964429)
(9.98843 1.08839e-19 0.887225)
(9.96943 5.95154e-20 1.12156)
(9.98658 6.09007e-20 1.04151)
(9.96552 1.28309e-19 1.28455)
(9.98601 0 1.20085)
(9.96359 5.94812e-20 1.45452)
(9.98753 1.27492e-19 1.36636)
(9.99192 -3.44467e-21 1.53901)
(9.99974 -1.01885e-19 0.221994)
(10.0088 0 0.146488)
(9.99934 -9.85038e-20 0.370221)
(10.0051 -1.686e-20 0.295121)
(9.99887 0 0.517449)
(10.0014 -8.66698e-20 0.44257)
(9.9986 0 0.664932)
(10.0026 1.02102e-19 0.589417)
(9.99888 1.72627e-19 0.814123)
(10.0059 -1.0502e-19 0.73715)
(10.0002 1.67192e-19 0.966347)
(10.01 1.44745e-19 0.887129)
(10.003 -2.43729e-22 1.12282)
(10.0155 -1.39375e-19 1.04058)
(10.008 -5.90555e-22 1.28467)
(10.0232 5.69606e-20 1.19862)
(10.0159 6.28114e-20 1.45286)
(10.0339 -1.1685e-21 1.36225)
(10.0276 2.55406e-19 1.62828)
(10.0484 6.28886e-20 1.53233)
(10.044 1.88444e-19 1.8117)
(10.0675 1.32772e-19 1.70962)
(10.0922 1.22818e-19 1.89476)
(10.0011 8.70136e-20 0.22171)
(10.0094 2.83393e-21 0.145927)
(10.0033 -5.20054e-21 0.36974)
(10.0075 8.37515e-20 0.294004)
(10.0065 1.88378e-20 0.516685)
(10.0068 -1.00147e-19 0.440864)
(10.011 -6.3475e-21 0.663702)
(10.0122 1.16286e-19 0.586983)
(10.0171 -1.32737e-19 0.812172)
(10.0207 2.03462e-20 0.733762)
(10.0252 -1.70174e-19 0.963338)
(10.031 -2.00525e-21 0.882484)
(10.0357 -8.0314e-20 1.11832)
(10.0436 -1.96078e-19 1.03428)
(10.0493 5.62757e-20 1.27813)
(10.0593 1.13341e-19 1.19017)
(10.0666 -9.70852e-22 1.44363)
(10.0788 -1.13457e-19 1.35103)
(10.0886 -6.27466e-20 1.61558)
(10.1029 -5.75599e-20 1.51762)
(10.116 6.56335e-20 1.79459)
(10.1323 -6.23375e-20 1.69055)
(10.15 1.8703e-19 1.9812)
(10.168 -5.24335e-20 1.87033)
(10.1916 6.25503e-20 2.17581)
(10.211 6.35104e-20 2.05735)
(10.2624 6.13511e-20 2.25187)
(10.0024 -1.22713e-22 0.220282)
(10.0101 4.27668e-21 0.144605)
(10.0071 -1.46081e-20 0.367356)
(10.0098 -9.45765e-20 0.291356)
(10.0139 7.34674e-22 0.513264)
(10.012 -1.09562e-20 0.436868)
(10.0231 1.43257e-19 0.659055)
(10.0214 1.12376e-20 0.581502)
(10.0348 1.54228e-19 0.806025)
(10.035 2.03474e-20 0.72656)
(10.0493 -2.90805e-20 0.955331)
(10.0512 1.37084e-20 0.87324)
(10.0672 3.08079e-21 1.108)
(10.0706 2.31079e-20 1.02258)
(10.089 -6.10043e-20 1.26492)
(10.0939 8.28797e-20 1.17549)
(10.1153 -1.71364e-19 1.42684)
(10.1217 -1.42896e-19 1.33275)
(10.147 -5.70884e-20 1.5944)
(10.1548 5.23647e-20 1.49498)
(10.1848 -1.83356e-19 1.76809)
(10.1939 0 1.66267)
(10.2296 -1.78942e-19 1.94827)
(10.2398 -6.81942e-20 1.83621)
(10.2826 6.23719e-20 2.13519)
(10.2934 -1.16452e-19 2.01582)
(10.3448 -2.3083e-21 2.32896)
(10.3558 -2.59039e-20 2.2016)
(10.428 2.71045e-20 2.39352)
(10.0036 -9.27964e-20 0.217694)
(10.0107 8.63354e-20 0.142515)
(10.0107 -9.0414e-20 0.363043)
(10.0119 8.16344e-20 0.287165)
(10.0211 -6.94211e-23 0.507152)
(10.0169 9.15073e-20 0.430563)
(10.0347 -1.14647e-19 0.650955)
(10.0302 -1.45039e-21 0.572953)
(10.0517 -1.23658e-19 0.795653)
(10.0486 -1.74355e-20 0.715529)
(10.0725 6.72401e-20 0.942312)
(10.0705 -1.10955e-19 0.859396)
(10.0973 1.05019e-19 1.09185)
(10.0963 1.68187e-20 1.0055)
(10.1268 -1.42443e-21 1.24507)
(10.1267 4.00841e-20 1.15464)
(10.1616 8.67056e-20 1.40259)
(10.1623 -2.78908e-20 1.30749)
(10.2022 1.10798e-19 1.56493)
(10.2038 1.39843e-19 1.46456)
(10.2495 1.17978e-19 1.73246)
(10.2517 -5.45269e-20 1.62624)
(10.3043 -4.27087e-21 1.9054)
(10.3069 1.45011e-19 1.79276)
(10.3675 -2.06938e-19 2.08386)
(10.3701 -3.45195e-20 1.96423)
(10.4401 4.25243e-21 2.26779)
(10.4421 -4.60858e-21 2.14063)
(10.523 1.21255e-19 2.45695)
(10.524 1.07039e-19 2.32174)
(10.6175 1.41795e-20 2.65095)
(10.6167 1.61786e-20 2.50722)
(10.7211 -1.5919e-20 2.69648)
(10.0048 2.64995e-19 0.213943)
(10.0113 4.02802e-21 0.139659)
(10.0142 2.68012e-19 0.356795)
(10.014 8.27955e-21 0.28143)
(10.0278 8.96669e-20 0.498344)
(10.0216 1.81757e-19 0.421952)
(10.0456 9.80939e-20 0.639402)
(10.0386 -1.80459e-19 0.561344)
(10.0677 -4.75815e-21 0.781068)
(10.0615 9.76893e-20 0.70069)
(10.0943 -1.62232e-19 0.924315)
(10.0887 -9.93484e-20 0.840996)
(10.1258 -4.96695e-20 1.06996)
(10.1204 -7.06638e-20 0.983109)
(10.1625 1.28455e-20 1.2187)
(10.1574 6.89067e-20 1.12774)
(10.205 2.68462e-20 1.37106)
(10.2003 0 1.27544)
(10.2539 -2.98191e-20 1.52743)
(10.2494 -2.52146e-20 1.42663)
(10.3098 -2.6633e-20 1.68807)
(10.3054 -1.08261e-19 1.58159)
(10.3735 1.13881e-19 1.8531)
(10.3689 -2.60098e-20 1.74045)
(10.4457 1.72762e-19 2.02248)
(10.4405 7.92511e-20 1.9032)
(10.5273 1.00735e-19 2.19604)
(10.521 4.03467e-20 2.06971)
(10.6191 -6.61388e-22 2.37344)
(10.6112 1.48121e-20 2.23967)
(10.722 -1.46376e-20 2.55415)
(10.7118 5.46973e-20 2.41261)
(10.8368 0 2.73746)
(10.8235 4.19342e-20 2.58789)
(10.9642 -6.02631e-20 2.92241)
(10.9471 -5.6465e-20 2.76466)
(11.0832 -2.72608e-21 2.94189)
(10.0059 -2.58853e-19 0.209036)
(10.0118 -5.07439e-21 0.136043)
(10.0175 -7.91634e-20 0.348622)
(10.0159 -1.06416e-20 0.274167)
(10.0342 -9.66138e-20 0.486856)
(10.026 9.02579e-20 0.411057)
(10.056 -1.79766e-19 0.624426)
(10.0464 -1.77995e-19 0.546713)
(10.0828 8.50925e-23 0.762323)
(10.0735 -6.35548e-21 0.682098)
(10.1148 -5.45288e-21 0.901425)
(10.1056 1.8188e-19 0.818123)
(10.1523 5.11748e-20 1.04245)
(10.1429 -3.27273e-21 0.955538)
(10.1957 5.56012e-20 1.18599)
(10.186 -3.9093e-20 1.09495)
(10.2453 -5.33919e-20 1.33249)
(10.2354 0 1.23683)
(10.3016 -1.0569e-19 1.48222)
(10.2914 -5.11163e-21 1.3815)
(10.3653 -1.0755e-19 1.63536)
(10.3546 -9.36694e-22 1.52914)
(10.4368 -6.13927e-20 1.79191)
(10.4254 -3.78501e-21 1.6798)
(10.5169 -5.651e-20 1.95176)
(10.5044 -6.03283e-20 1.83339)
(10.6062 -4.77119e-20 2.11462)
(10.5922 -8.83989e-21 1.98967)
(10.7054 7.15834e-20 2.28007)
(10.6893 -1.30653e-20 2.14828)
(10.815 1.12661e-19 2.44753)
(10.7963 1.7247e-20 2.30868)
(10.9358 -1.59912e-20 2.61621)
(10.9137 -9.35054e-20 2.47019)
(11.0682 2.5607e-21 2.78519)
(11.0421 5.26068e-20 2.63196)
(11.2127 -5.95503e-20 2.95331)
(11.1817 5.89259e-20 2.79298)
(11.3697 6.07774e-20 3.11927)
(11.3329 -1.16902e-19 2.95208)
(11.4957 6.57353e-20 3.10792)
(10.007 2.49098e-19 0.202988)
(10.0123 8.60783e-20 0.131681)
(10.0205 1.63423e-19 0.338552)
(10.0177 3.9616e-21 0.265405)
(10.0401 5.6753e-21 0.472732)
(10.0301 -8.33494e-20 0.397922)
(10.0656 3.12126e-22 0.606088)
(10.0536 9.13113e-20 0.529118)
(10.0968 1.8053e-19 0.739505)
(10.0846 -5.75123e-21 0.65984)
(10.1338 1.83559e-19 0.873765)
(10.1212 8.49798e-20 0.790896)
(10.1769 -9.58617e-20 1.0095)
(10.1636 5.97802e-20 0.922947)
(10.2263 -9.59785e-20 1.14719)
(10.2122 -6.34186e-20 1.05651)
(10.2822 4.94712e-20 1.28719)
(10.2675 -2.35147e-20 1.19196)
(10.3452 1.02241e-19 1.42971)
(10.3297 -1.13145e-20 1.32954)
(10.4157 1.05394e-19 1.57483)
(10.3992 5.14267e-21 1.46936)
(10.4941 -2.76531e-21 1.72248)
(10.4764 -4.71786e-20 1.6114)
(10.5809 -1.14249e-20 1.87246)
(10.5617 -2.88805e-20 1.75549)
(10.6767 2.66474e-20 2.02443)
(10.6555 4.14716e-20 1.90135)
(10.7818 -6.87547e-20 2.17792)
(10.7583 1.25258e-20 2.04855)
(10.8968 -1.9408e-19 2.33231)
(10.8704 -5.482e-20 2.19655)
(11.022 -2.31132e-20 2.48682)
(10.9921 1.76409e-20 2.34466)
(11.1578 1.10368e-19 2.64054)
(11.1238 1.12321e-19 2.49205)
(11.3043 0 2.79241)
(11.2655 5.16493e-20 2.63777)
(11.4617 -1.11653e-19 2.94123)
(11.4174 -1.07393e-19 2.78077)
(10.0079 -1.65135e-19 0.195824)
(10.0127 -7.13089e-20 0.126592)
(10.0233 -2.49211e-19 0.326627)
(10.0193 -9.10538e-20 0.25518)
(10.0456 5.15376e-21 0.456032)
(10.0338 -9.46814e-20 0.382606)
(10.0744 8.46975e-20 0.584474)
(10.0602 9.73752e-20 0.508645)
(10.1096 -1.03332e-19 0.712732)
(10.0948 -2.10181e-20 0.634027)
(10.1513 -4.19141e-20 0.841494)
(10.1355 -1.02918e-19 0.759467)
(10.1994 9.2712e-20 0.971299)
(10.1825 3.596e-20 0.885532)
(10.2541 1.0906e-20 1.10255)
(10.236 3.60045e-20 1.01266)
(10.3158 -8.57739e-20 1.23552)
(10.2966 9.06235e-20 1.14114)
(10.3846 -1.10787e-19 1.37034)
(10.3642 -1.58301e-20 1.27116)
(10.461 -1.51281e-19 1.50702)
(10.4392 -2.56323e-21 1.40275)
(10.5452 -7.39082e-20 1.64544)
(10.5219 -5.58578e-21 1.53584)
(10.6377 2.5377e-20 1.78536)
(10.6124 -4.79542e-20 1.67022)
(10.7387 2.69485e-20 1.92638)
(10.7112 2.75375e-22 1.80557)
(10.8485 2.67333e-20 2.06802)
(10.8185 -2.30099e-20 1.94145)
(10.9675 1.62184e-19 2.20965)
(10.9344 5.14974e-20 2.0773)
(11.0959 1.56462e-19 2.35054)
(11.0592 1.60633e-19 2.21246)
(11.2337 5.21367e-20 2.48981)
(11.1929 -5.23732e-20 2.34617)
(11.381 -5.84989e-20 2.62652)
(11.3356 5.29107e-20 2.47755)
(11.487 -1.1001e-19 2.60567)
(10.0088 4.58796e-21 0.187579)
(10.0131 -7.7515e-20 0.120801)
(10.0259 6.71852e-20 0.312905)
(10.0208 1.45315e-19 0.243545)
(10.0505 6.56715e-22 0.436838)
(10.0371 1.8822e-20 0.365184)
(10.0824 -1.13806e-20 0.559695)
(10.0662 -9.39828e-21 0.485397)
(10.1213 -2.0871e-20 0.68215)
(10.104 5.97931e-20 0.6048)
(10.167 -2.27443e-20 0.804802)
(10.1484 -2.06974e-20 0.724013)
(10.2196 -2.21388e-20 0.928106)
(10.1994 -1.60016e-21 0.843523)
(10.2792 1.17804e-19 1.05239)
(10.2574 0 0.963687)
(10.3458 1.62107e-19 1.17785)
(10.3225 2.86593e-20 1.08474)
(10.4198 9.51053e-20 1.30457)
(10.3949 4.71186e-20 1.20678)
(10.5012 1.4672e-19 1.4325)
(10.4746 -4.36072e-20 1.32982)
(10.5903 2.09531e-20 1.56148)
(10.5618 9.91096e-20 1.45373)
(10.6873 -7.36358e-20 1.69123)
(10.6567 -7.55291e-20 1.57828)
(10.7925 -5.0961e-20 1.82135)
(10.7594 9.56677e-20 1.70313)
(10.906 2.42166e-21 1.95135)
(10.8701 -5.09015e-20 1.82784)
(11.0279 4.99644e-20 2.08063)
(10.9889 1.48818e-19 1.95188)
(11.1582 -5.35145e-20 2.2085)
(11.1157 -2.21769e-21 2.07463)
(11.297 -5.14336e-20 2.33418)
(11.2504 -2.50245e-19 2.19538)
(11.444 0 2.45682)
(11.3931 1.76343e-21 2.31338)
(11.5433 1.91279e-21 2.42779)
(10.0096 6.74114e-20 0.178294)
(10.0134 0 0.114338)
(10.0281 9.51037e-20 0.297454)
(10.0221 -6.13622e-21 0.230557)
(10.055 8.37853e-21 0.415248)
(10.0401 2.97444e-20 0.345744)
(10.0896 6.37756e-20 0.531882)
(10.0715 -2.04052e-20 0.459493)
(10.1318 5.96978e-20 0.64793)
(10.1122 8.2724e-20 0.572314)
(10.1812 1.02127e-21 0.763905)
(10.1599 1.93722e-20 0.684736)
(10.2377 2.10871e-20 0.880188)
(10.2145 -1.98949e-20 0.797169)
(10.3015 -9.12799e-20 0.997038)
(10.2763 -4.20628e-20 0.909903)
(10.3724 -8.91103e-20 1.1146)
(10.3454 -9.07319e-20 1.02311)
(10.4507 -9.51426e-20 1.23289)
(10.4218 4.35335e-20 1.13686)
(10.5363 -9.21835e-20 1.35183)
(10.5054 -9.46102e-20 1.25109)
(10.6295 1.90772e-23 1.47123)
(10.5964 4.4928e-20 1.36567)
(10.7302 9.81486e-20 1.5908)
(10.6948 -4.59382e-20 1.48035)
(10.8386 9.55465e-20 1.71015)
(10.8007 5.15238e-20 1.59479)
(10.9547 9.93033e-20 1.8288)
(10.9139 0 1.70856)
(11.0785 9.52202e-20 1.94619)
(11.0345 1.92808e-19 1.82118)
(11.2099 -2.04002e-19 2.06169)
(11.1624 -9.71975e-20 1.93206)
(11.3487 -1.95478e-19 2.17462)
(11.2974 -1.78562e-19 2.0406)
(11.4947 3.69551e-21 2.28422)
(11.4393 2.5685e-20 2.14612)
(11.5877 -2.19924e-20 2.24792)
(10.0103 -7.53118e-20 0.168016)
(10.0137 6.88073e-20 0.107236)
(10.0302 -7.29449e-20 0.280352)
(10.0232 -7.50547e-20 0.216281)
(10.059 0 0.391374)
(10.0428 1.82204e-20 0.324383)
(10.096 -5.9334e-22 0.501182)
(10.0762 -9.3415e-20 0.431068)
(10.141 4.12088e-20 0.61026)
(10.1194 -7.76887e-20 0.536742)
(10.1936 -2.15865e-21 0.719038)
(10.17 1.20126e-19 0.64185)
(10.2537 -8.46504e-20 0.827831)
(10.2277 -4.25721e-20 0.746734)
(10.321 -4.16113e-20 0.936837)
(10.2928 -4.27937e-20 0.851621)
(10.3957 4.54323e-20 1.04615)
(10.3653 4.21756e-20 0.956637)
(10.4776 4.3854e-20 1.15575)
(10.4451 4.50264e-20 1.0618)
(10.5667 4.61114e-20 1.26554)
(10.532 4.32542e-20 1.16705)
(10.6631 -2.30996e-21 1.37531)
(10.6261 2.13804e-21 1.27221)
(10.7667 -9.36244e-20 1.48476)
(10.7272 -4.70985e-20 1.37703)
(10.8775 -4.64498e-20 1.59353)
(10.8353 4.13514e-20 1.4812)
(10.9954 9.60473e-20 1.70116)
(10.9504 4.38723e-20 1.58432)
(11.1203 -4.61797e-21 1.80715)
(11.0721 -4.13978e-20 1.68593)
(11.252 -7.11855e-20 1.91094)
(11.2004 -9.80401e-20 1.78552)
(11.3902 4.82358e-20 2.01192)
(11.335 -2.19122e-20 1.88256)
(11.5345 -7.20291e-22 2.10947)
(11.4756 -6.78701e-20 1.97647)
(11.6217 9.29997e-20 2.06667)
(10.0109 6.85693e-20 0.156797)
(10.0138 1.15354e-20 0.0995283)
(10.0319 1.87438e-20 0.261686)
(10.0242 -8.61074e-21 0.200787)
(10.0624 -7.79686e-20 0.365334)
(10.0451 1.86598e-20 0.301206)
(10.1017 -1.72317e-19 0.467754)
(10.0804 4.97735e-20 0.400259)
(10.1491 3.816e-21 0.569338)
(10.1257 -1.1634e-19 0.498261)
(10.2045 7.82459e-20 0.670446)
(10.1788 4.21644e-20 0.595577)
(10.2676 3.10147e-22 0.771328)
(10.2392 3.87715e-20 0.692483)
(10.338 4.32314e-20 0.872133)
(10.3071 3.09359e-22 0.789156)
(10.4157 4.17426e-20 0.972914)
(10.3825 8.31131e-20 0.885678)
(10.5006 4.43916e-20 1.07363)
(10.465 -3.37584e-22 0.982043)
(10.5926 -1.88311e-21 1.17415)
(10.5546 2.40405e-21 1.07816)
(10.6915 -4.38343e-20 1.27428)
(10.6511 -2.82007e-21 1.17386)
(10.7973 9.13354e-20 1.37372)
(10.7543 4.27073e-20 1.2689)
(10.9098 1.33934e-19 1.47213)
(10.8641 -3.82041e-20 1.36298)
(11.0288 -9.70444e-20 1.56911)
(10.9802 2.07607e-21 1.45573)
(11.1541 -1.37149e-19 1.66419)
(11.1025 1.47293e-20 1.54676)
(11.2855 -4.74742e-20 1.7569)
(11.2307 2.21804e-20 1.63561)
(11.4226 -1.4095e-19 1.84671)
(11.3644 -1.13809e-19 1.72183)
(11.565 2.83382e-20 1.9331)
(11.5033 -2.63839e-20 1.80493)
(11.6469 1.42961e-19 1.88443)
(10.0114 -6.73398e-20 0.144689)
(10.014 -6.02929e-20 0.0912491)
(10.0335 -8.5716e-21 0.241541)
(10.025 -8.81666e-21 0.184142)
(10.0654 1.49555e-19 0.337251)
(10.0471 -3.43649e-20 0.276314)
(10.1065 1.06495e-19 0.431757)
(10.0839 1.13473e-19 0.367208)
(10.1562 -7.65334e-20 0.525366)
(10.1312 -7.43499e-20 0.457052)
(10.2139 1.71855e-21 0.618371)
(10.1863 -3.89644e-20 0.546136)
(10.2795 3.86696e-20 0.710968)
(10.249 -3.57884e-20 0.63468)
(10.3525 4.13466e-20 0.803261)
(10.3193 -3.83643e-20 0.722812)
(10.4328 3.98179e-20 0.895272)
(10.397 4.09761e-20 0.810583)
(10.5201 -4.33619e-20 0.986941)
(10.4819 7.89881e-20 0.897964)
(10.6143 1.43872e-21 1.07813)
(10.5736 -1.64451e-19 0.984855)
(10.7152 8.59281e-20 1.16865)
(10.6719 8.44816e-20 1.07109)
(10.8226 -9.0154e-20 1.25822)
(10.7766 4.34426e-20 1.15643)
(10.9361 -1.73261e-19 1.34652)
(10.8875 -9.03874e-20 1.24062)
(11.0557 1.16639e-19 1.43321)
(11.0043 -4.39489e-20 1.32331)
(11.181 1.78006e-19 1.51787)
(11.1267 1.5912e-19 1.40417)
(11.3116 -4.59502e-20 1.60009)
(11.2543 1.04709e-21 1.48281)
(11.4472 3.6712e-21 1.67944)
(11.3868 -1.75891e-19 1.55883)
(11.5874 9.1241e-20 1.75549)
(11.5238 1.58023e-19 1.63184)
(11.6648 -8.58843e-20 1.70145)
(10.0118 0 0.131741)
(10.0141 6.32238e-20 0.0824294)
(10.0348 -3.53407e-20 0.220002)
(10.0258 6.4905e-20 0.16641)
(10.068 -7.06215e-20 0.307248)
(10.0489 -1.79616e-21 0.249807)
(10.1107 -7.24313e-20 0.39335)
(10.087 -3.64568e-20 0.332051)
(10.1622 -3.57519e-20 0.478543)
(10.1358 -3.71093e-20 0.413287)
(10.222 -7.73783e-20 0.563053)
(10.1928 7.20107e-20 0.493739)
(10.2896 -1.14715e-19 0.647027)
(10.2574 -7.71319e-20 0.573571)
(10.3648 -3.85581e-20 0.730537)
(10.3296 -3.90439e-20 0.652874)
(10.4472 8.11918e-20 0.813578)
(10.4093 -2.76578e-22 0.731671)
(10.5364 -4.55152e-20 0.896079)
(10.4959 8.12992e-20 0.809918)
(10.6324 -7.89511e-20 0.977906)
(10.5893 -1.24902e-19 0.887512)
(10.7347 4.08633e-20 1.05886)
(10.689 -7.741e-20 0.964291)
(10.8431 4.30056e-20 1.13871)
(10.7948 -6.08943e-20 1.04005)
(10.9573 4.21637e-20 1.21717)
(10.9064 -3.77812e-20 1.11453)
(11.077 -1.79046e-22 1.29392)
(11.0234 1.853e-19 1.18747)
(11.2018 -2.24268e-20 1.36862)
(11.1455 -2.22099e-20 1.25855)
(11.3314 -1.32332e-19 1.44091)
(11.2723 -2.10675e-19 1.32745)
(11.4654 -1.73478e-20 1.51045)
(11.4034 -4.35426e-21 1.39384)
(11.6032 -2.37805e-20 1.57686)
(11.5384 1.11438e-19 1.4574)
(11.6767 -1.11663e-19 1.51782)
(10.0122 1.29678e-19 0.117997)
(10.0142 2.88168e-21 0.0730942)
(10.036 9.89655e-20 0.197148)
(10.0264 3.45599e-20 0.147644)
(10.0703 3.30602e-20 0.275437)
(10.0504 3.41979e-20 0.221772)
(10.1143 -3.47535e-22 0.352687)
(10.0897 -3.33899e-20 0.294911)
(10.1674 7.36229e-20 0.429055)
(10.1399 3.38466e-20 0.36713)
(10.2288 7.18297e-20 0.504712)
(10.1983 3.78945e-21 0.438583)
(10.2982 4.92538e-22 0.579763)
(10.2645 4.52733e-22 0.509385)
(10.3751 2.54778e-22 0.654247)
(10.3383 1.08962e-19 0.579599)
(10.4591 5.74788e-24 0.728144)
(10.4195 -1.10962e-19 0.649226)
(10.5499 -4.21494e-22 0.801376)
(10.5076 3.74389e-20 0.718212)
(10.6472 -1.23252e-19 0.873812)
(10.6021 3.78131e-20 0.786453)
(10.7505 -1.81659e-19 0.945277)
(10.7029 1.2254e-20 0.853803)
(10.8596 -1.43651e-19 1.01555)
(10.8094 -1.98947e-19 0.920076)
(10.974 1.09203e-19 1.0844)
(10.9213 -3.4112e-21 0.985054)
(11.0936 1.62448e-19 1.15153)
(11.0383 1.89764e-19 1.0485)
(11.2177 -2.15355e-19 1.21668)
(11.1599 5.75572e-20 1.11014)
(11.3461 -7.92736e-20 1.27953)
(11.2857 -2.54672e-19 1.16973)
(11.4783 1.27752e-19 1.33981)
(11.4153 1.08822e-19 1.22699)
(11.6138 2.11159e-20 1.39723)
(11.5483 8.27047e-20 1.28167)
(11.6841 -1.44884e-21 1.3335)
(10.0126 -9.4382e-20 0.103492)
(10.0142 -6.32938e-20 0.0632575)
(10.037 -3.17529e-20 0.173042)
(10.0269 -6.352e-20 0.127879)
(10.0723 -3.42016e-20 0.241921)
(10.0518 -3.15879e-20 0.19228)
(10.1174 1.86536e-21 0.309902)
(10.0921 3.07579e-20 0.255901)
(10.1718 -3.77769e-20 0.377076)
(10.1434 -6.479e-20 0.318727)
(10.2346 -6.93388e-20 0.443557)
(10.203 -7.12802e-20 0.380843)
(10.3054 1.11846e-19 0.509415)
(10.2705 4.06005e-22 0.442327)
(10.3837 -5.49768e-21 0.574666)
(10.3456 7.62894e-20 0.503216)
(10.4691 -7.22858e-20 0.639277)
(10.428 -7.71345e-20 0.563493)
(10.561 7.66235e-20 0.703168)
(10.5172 9.32348e-20 0.623102)
(10.6592 1.76662e-19 0.766216)
(10.6127 3.91842e-20 0.681943)
(10.7632 -5.78639e-21 0.828264)
(10.7142 1.75369e-19 0.739884)
(10.8727 -5.49438e-20 0.889122)
(10.8211 -2.35686e-19 0.796764)
(10.9872 7.93942e-20 0.94858)
(10.9332 8.16163e-20 0.852397)
(11.1063 8.21079e-20 1.00641)
(11.0499 -3.8996e-20 0.906581)
(11.2296 1.68966e-20 1.06237)
(11.1709 8.21296e-20 0.959103)
(11.3567 -6.14684e-20 1.11623)
(11.2957 3.5107e-20 1.00975)
(11.4872 6.26184e-20 1.16774)
(11.4238 -1.59212e-19 1.0583)
(11.6204 5.94793e-20 1.21669)
(11.5548 1.43294e-19 1.10455)
(11.6883 -1.4849e-21 1.1483)
(10.0129 -3.16926e-20 0.0882385)
(10.0143 0 0.0529119)
(10.038 -6.32175e-20 0.147728)
(10.0275 -3.16071e-20 0.107117)
(10.0741 3.52508e-20 0.206781)
(10.0531 -6.30949e-20 0.161376)
(10.1202 -3.78293e-20 0.265115)
(10.0943 9.80083e-20 0.215112)
(10.1756 -9.9129e-20 0.322742)
(10.1465 -6.96667e-20 0.268199)
(10.2396 3.50278e-22 0.379728)
(10.2072 3.32609e-20 0.320666)
(10.3116 -3.58438e-20 0.436117)
(10.2757 3.39066e-20 0.372563)
(10.391 2.53867e-21 0.491907)
(10.3518 -1.04454e-19 0.423905)
(10.4773 9.28075e-20 0.54706)
(10.4352 7.2491e-20 0.474666)
(10.5702 5.47637e-20 0.601497)
(10.5252 1.26748e-19 0.524785)
(10.669 3.81027e-20 0.655111)
(10.6214 -7.2337e-20 0.574171)
(10.7735 -6.08695e-20 0.707764)
(10.7234 5.6326e-20 0.622712)
(10.8831 -9.52705e-20 0.759298)
(10.8306 -1.52746e-19 0.670269)
(10.9975 -3.98879e-20 0.809534)
(10.9426 7.52178e-20 0.716688)
(11.1161 -3.88143e-20 0.858285)
(11.059 -2.09044e-20 0.761805)
(11.2386 1.00747e-19 0.905359)
(11.1793 5.66816e-20 0.805447)
(11.3645 -6.52977e-20 0.950563)
(11.3031 3.93307e-21 0.847443)
(11.4932 -7.61869e-20 0.993712)
(11.4299 -1.63183e-19 0.887622)
(11.6245 8.06549e-20 1.03463)
(11.5592 -4.22936e-21 0.925826)
(11.6906 7.89818e-20 0.961905)
(10.0133 0 0.0722141)
(10.0144 -3.55788e-20 0.0420049)
(10.039 -3.16025e-20 0.121217)
(10.0282 -7.2923e-21 0.0853038)
(10.0758 1.92788e-21 0.170088)
(10.0546 4.34277e-20 0.129085)
(10.1228 6.47774e-20 0.218467)
(10.0966 1.59087e-21 0.172627)
(10.1791 6.62611e-20 0.266287)
(10.1496 1.73655e-20 0.215662)
(10.244 6.76254e-20 0.313568)
(10.2111 -1.41671e-20 0.258188)
(10.3169 -3.67402e-20 0.360326)
(10.2805 6.74109e-20 0.300243)
(10.3971 -3.24071e-20 0.406539)
(10.3574 -3.69721e-20 0.341826)
(10.4843 1.0736e-19 0.452161)
(10.4415 1.80351e-21 0.3829)
(10.5778 -3.87135e-21 0.497119)
(10.5322 7.20791e-20 0.423406)
(10.6771 -5.34241e-20 0.541318)
(10.6289 -1.09319e-19 0.463267)
(10.7819 -3.81418e-20 0.584643)
(10.7312 1.87499e-20 0.502386)
(10.8916 2.23207e-20 0.626964)
(10.8385 -5.63186e-20 0.540654)
(11.0057 9.45458e-20 0.668139)
(10.9505 6.80103e-20 0.577945)
(11.1238 7.70812e-20 0.708018)
(11.0665 -6.27753e-20 0.61413)
(11.2455 -4.26168e-20 0.746451)
(11.1862 1.60644e-19 0.649075)
(11.3702 -9.65899e-20 0.783289)
(11.3091 -9.91207e-20 0.682646)
(11.4976 -8.92603e-20 0.81839)
(11.4347 -8.41742e-20 0.714715)
(11.627 -5.85827e-21 0.851621)
(11.5626 -3.23042e-21 0.745162)
(11.6922 8.09642e-20 0.773876)
(10.0138 -4.31431e-20 0.0553338)
(10.0147 -8.58832e-21 0.0303726)
(10.0403 6.96386e-20 0.0934512)
(10.0293 2.0998e-20 0.0622924)
(10.0779 4.29429e-20 0.131731)
(10.0565 1.8245e-20 0.0953788)
(10.1256 -4.69096e-20 0.169692)
(10.0991 -1.65274e-20 0.128461)
(10.1826 -6.51037e-20 0.207231)
(10.1528 -4.67465e-20 0.161154)
(10.2483 -1.41803e-20 0.244371)
(10.215 -2.20468e-21 0.193476)
(10.3219 6.69122e-20 0.281117)
(10.2851 3.36595e-20 0.225458)
(10.4029 -1.83304e-21 0.317437)
(10.3627 3.40586e-20 0.257079)
(10.4906 -3.41948e-20 0.35328)
(10.4474 -3.49289e-20 0.288296)
(10.5846 -3.62973e-20 0.388579)
(10.5386 1.66386e-20 0.319057)
(10.6843 -3.5129e-20 0.423254)
(10.6357 -1.06504e-20 0.349298)
(10.7893 0 0.457209)
(10.7382 -3.47569e-20 0.378946)
(10.899 -9.31943e-21 0.49034)
(10.8457 3.48066e-20 0.407914)
(11.0129 -9.34167e-20 0.522533)
(10.9576 -3.60729e-20 0.436109)
(11.1306 2.31538e-20 0.553672)
(11.0733 -7.52841e-20 0.463433)
(11.2515 1.02421e-19 0.58364)
(11.1926 1.67812e-19 0.489788)
(11.3753 -8.63787e-20 0.612325)
(11.3147 -7.33761e-20 0.515076)
(11.5015 4.09739e-21 0.639621)
(11.4394 -8.62741e-20 0.539204)
(11.6295 8.58534e-20 0.66543)
(11.5661 8.81039e-20 0.562086)
(11.6944 0 0.583643)
(10.0149 5.69652e-20 0.0374759)
(10.0155 3.18708e-20 0.0174953)
(10.0422 -3.16707e-20 0.064862)
(10.0318 1.17401e-20 0.0380246)
(10.0803 -4.28537e-20 0.0927991)
(10.0601 -6.70352e-20 0.0603829)
(10.1286 -1.6469e-20 0.120491)
(10.1031 8.06437e-21 0.0827106)
(10.1863 1.78176e-20 0.147817)
(10.1572 -4.62919e-20 0.104755)
(10.2526 4.68985e-20 0.174822)
(10.2199 4.81745e-20 0.126605)
(10.3268 0 0.201515)
(10.2905 7.77158e-21 0.148271)
(10.4083 0 0.227866)
(10.3685 7.91651e-21 0.169709)
(10.4966 1.72805e-20 0.253835)
(10.4536 3.20909e-20 0.190876)
(10.591 4.28894e-20 0.279376)
(10.5452 -1.56484e-20 0.211728)
(10.691 -1.03062e-20 0.304434)
(10.6426 3.85228e-20 0.232221)
(10.7961 1.02866e-21 0.328943)
(10.7453 -3.56225e-20 0.252302)
(10.9058 7.29169e-21 0.352831)
(10.8528 3.56757e-20 0.271909)
(11.0196 -1.75257e-20 0.376019)
(10.9646 6.86678e-21 0.290979)
(11.137 7.32931e-20 0.398426)
(11.0803 -2.59113e-20 0.309447)
(11.2574 -1.268e-20 0.419973)
(11.1992 9.9225e-20 0.327244)
(11.3806 -7.32741e-20 0.44058)
(11.3209 -1.46219e-19 0.344308)
(11.5058 2.32971e-23 0.460177)
(11.4449 8.05048e-20 0.360576)
(11.6328 0 0.478695)
(11.5709 -4.07816e-20 0.375992)
(11.6982 0 0.390506)
(10.0185 -1.43902e-20 0.016615)
(10.0096 5.1236e-21 0.00117548)
(10.0466 -2.46437e-20 0.0321077)
(10.0214 -1.94977e-20 0.0124714)
(10.0851 -1.45987e-20 0.0487767)
(10.0437 -3.52065e-22 0.024139)
(10.1339 -2.26281e-20 0.0655014)
(10.0802 -3.56209e-22 0.0354575)
(10.1919 -1.49019e-20 0.082117)
(10.1281 -2.25764e-20 0.0466527)
(10.2586 7.98257e-21 0.0986382)
(10.1849 7.46302e-21 0.0578229)
(10.3331 1.58831e-20 0.115036)
(10.2499 3.71954e-22 0.0689431)
(10.415 4.08533e-20 0.131258)
(10.3227 3.77458e-22 0.0799686)
(10.5035 -1.74541e-21 0.147259)
(10.4028 3.28814e-20 0.090867)
(10.5981 -2.00268e-20 0.162997)
(10.4897 -3.37071e-20 0.101612)
(10.6983 1.24513e-20 0.178431)
(10.5828 6.47176e-22 0.112178)
(10.8035 0 0.193514)
(10.6814 8.27291e-21 0.122533)
(10.9132 3.52053e-20 0.208197)
(10.785 0 0.132644)
(11.0269 -1.76956e-21 0.22243)
(10.8931 3.5153e-20 0.142477)
(11.1441 8.22043e-22 0.236164)
(11.0052 -3.59761e-20 0.151996)
(11.2643 -3.79416e-20 0.249349)
(11.1207 3.58328e-20 0.161167)
(11.387 1.16686e-20 0.261939)
(11.2392 -7.27765e-20 0.169956)
(11.5117 3.85503e-20 0.27389)
(11.3602 8.25021e-20 0.178331)
(11.638 -4.07468e-20 0.285165)
(11.4832 -1.99536e-20 0.186264)
(11.6076 -1.785e-20 0.193729)
(10.0013 -6.75188e-23 0.00245454)
(10.0147 5.46087e-21 0.00683243)
(10.0398 1.42639e-20 0.0119704)
(10.0755 -3.58599e-22 0.0172675)
(10.1211 4.19541e-22 0.0226382)
(10.1758 -3.58694e-22 0.0280775)
(10.2391 -1.55247e-20 0.0335594)
(10.3103 -7.72102e-21 0.0390507)
(10.3888 0 0.0445246)
(10.4741 -1.24598e-20 0.0499582)
(10.5655 -3.62416e-21 0.05533)
(10.6624 8.25908e-21 0.0606176)
(10.7644 0 0.0657985)
(10.8709 0 0.0708498)
(10.9814 0 0.0757491)
(11.0952 0 0.0804749)
(11.2119 0 0.0850067)
(11.331 2.24345e-20 0.0893259)
(11.452 3.5263e-21 0.0934154)
)
;

boundaryField
{
    inlet
    {
        type            calculated;
        value           nonuniform List<vector> 
30
(
(10 0 0)
(10 0 0)
(10 0 0)
(10 0 0)
(10 0 0)
(10 0 0)
(10 0 0)
(10 0 0)
(10 0 0)
(10 0 0)
(10 0 0)
(10 0 0)
(10 0 0)
(10 0 0)
(10 0 0)
(10 0 0)
(10 0 0)
(10 0 0)
(10 0 0)
(10 0 0)
(10 0 0)
(10 0 0)
(10 0 0)
(10 0 0)
(10 0 0)
(10 0 0)
(10 0 0)
(10 0 0)
(10 0 0)
(10 0 0)
)
;
    }
    outlet
    {
        type            calculated;
        value           nonuniform 0();
    }
    flap
    {
        type            calculated;
        value           nonuniform 0();
    }
    upperWall
    {
        type            calculated;
        value           uniform (0 0 0);
    }
    lowerWall
    {
        type            calculated;
        value           nonuniform 0();
    }
    frontAndBack
    {
        type            empty;
        value           nonuniform 0();
    }
    procBoundary0to1
    {
        type            processor;
        value           nonuniform List<vector> 
18
(
(11.5391 2.8833e-19 3.28156)
(11.6297 -2.50691e-19 3.08572)
(11.5792 -1.11519e-19 2.91987)
(11.5376 -1.07258e-19 2.75962)
(11.599 0 2.57551)
(11.6475 -7.58354e-20 2.38974)
(11.6847 -1.4664e-19 2.20294)
(11.7122 1.17403e-19 2.01554)
(11.7316 2.24931e-20 1.82779)
(11.7444 -1.99971e-19 1.63982)
(11.7521 -2.18648e-20 1.45151)
(11.7561 1.05967e-19 1.26286)
(11.7577 -1.03456e-20 1.07316)
(11.7582 8.90142e-20 0.882864)
(11.7589 0 0.689664)
(11.761 7.59239e-20 0.496077)
(11.7655 3.93456e-20 0.29573)
(11.5745 -1.70227e-21 0.0972604)
)
;
    }
    procBoundary0to3
    {
        type            processor;
        value           nonuniform List<vector> 
34
(
(10.0026 -2.01519e-21 0.121944)
(9.98407 9.28034e-20 0.245296)
(9.96856 -3.5072e-20 0.314204)
(9.95828 -3.04663e-21 0.382864)
(9.94533 -2.04876e-20 0.456191)
(9.93425 -9.95179e-20 0.528738)
(9.92294 -6.57249e-20 0.606475)
(9.91397 6.18891e-20 0.68282)
(9.90529 1.63181e-19 0.764854)
(9.90037 1.31109e-19 0.844693)
(9.89669 -7.17914e-20 0.930569)
(9.89757 -7.11696e-20 1.01332)
(9.90118 1.30451e-19 1.10227)
(9.90961 6.7227e-20 1.18706)
(9.89201 -2.6678e-19 1.3536)
(9.91033 -2.65094e-19 1.4487)
(9.93399 -1.99477e-19 1.53769)
(9.96451 -6.35537e-20 1.63245)
(10.0001 1.88838e-19 1.7197)
(10.013 6.73613e-20 1.90922)
(10.0662 -2.60817e-22 2.00378)