/*--------------------------------*- C++ -*----------------------------------*\
| =========                 |                                                 |
| \\      /  F ield         | OpenFOAM: The Open Source CFD Toolbox           |
|  \\    /   O peration     | Version:  dev                                   |
|   \\  /    A nd           | Web:      www.OpenFOAM.org                      |
|    \\/     M anipulation  |                                                 |
\*---------------------------------------------------------------------------*/
FoamFile
{
    version     2.0;
    format      ascii;
    class       surfaceVectorField;
    location    "0.92";
    object      Uf;
}
// * * * * * * * * * * * * * * * * * * * * * * * * * * * * * * * * * * * * * //

dimensions      [0 1 -1 0 0 0 0];

internalField   nonuniform List<vector> 
879
(
(9.98972 1.86766e-19 0.166284)
(9.98834 3.39782e-19 0.114604)
(9.9788 1.41745e-19 0.222757)
(9.99063 2.9253e-19 0.17283)
(9.98856 1.68919e-20 0.118848)
(9.97306 3.58308e-21 0.28361)
(9.98033 -4.50869e-20 0.23107)
(9.96512 4.67602e-20 0.344034)
(9.99158 -3.29415e-19 0.178883)
(9.98883 -3.59547e-19 0.122757)
(9.97594 0 0.293583)
(9.98192 3.10801e-19 0.238668)
(9.95361 -9.48695e-20 0.410418)
(9.96934 4.30497e-20 0.355363)
(9.9462 -9.42776e-20 0.475871)
(9.99261 3.00491e-19 0.184368)
(9.98913 -4.01102e-20 0.126276)
(9.97901 3.53112e-19 0.302573)
(9.98364 -2.48905e-20 0.245456)
(9.95974 4.27744e-20 0.423005)
(9.97379 8.59313e-20 0.365422)
(9.93486 -9.52035e-20 0.548203)
(9.95428 -8.66545e-20 0.48942)
(9.92772 -5.2192e-21 0.61909)
(9.99373 -3.72914e-19 0.189214)
(9.9894 -2.00045e-20 0.129342)
(9.98227 -2.97589e-19 0.310468)
(9.98565 -3.91113e-20 0.251341)
(9.96613 -4.78247e-20 0.434049)
(9.97849 8.34656e-20 0.374099)
(9.94526 5.90365e-21 0.562552)
(9.96256 3.6913e-20 0.501144)
(9.91989 -2.91537e-19 0.697531)
(9.94045 2.6509e-19 0.633953)
(9.91534 -1.9925e-19 0.773945)
(9.99499 3.2223e-19 0.193323)
(9.98967 1.84229e-20 0.131862)
(9.98584 3.52482e-19 0.317167)
(9.98793 -3.44473e-21 0.256189)
(9.97277 1.70102e-19 0.443441)
(9.98345 -2.33634e-19 0.381354)
(9.95586 3.037e-19 0.574797)
(9.97093 6.24218e-21 0.510966)
(9.93529 3.57609e-19 0.71266)
(9.95327 -7.54025e-20 0.646438)
(9.91153 1.79041e-19 0.858372)
(9.9333 4.44573e-19 0.789022)
(9.91133 -8.94601e-20 0.940031)
(9.99638 -3.15639e-19 0.196583)
(9.99009 3.67724e-20 0.133744)
(9.98962 -6.05747e-19 0.322593)
(9.99015 -3.87436e-19 0.259912)
(9.97954 -3.99967e-19 0.451158)
(9.98838 6.29128e-20 0.387169)
(9.96643 -3.82651e-19 0.584868)
(9.97925 -4.65452e-20 0.518882)
(9.95067 1.60298e-20 0.725062)
(9.96596 -2.59436e-19 0.656404)
(9.93267 1.67388e-19 0.872985)
(9.95131 -2.38568e-19 0.800945)
(9.913 -2.78564e-19 1.02972)
(9.93564 -5.04725e-21 0.953714)
(9.89215 2.0522e-19 1.19613)
(9.91902 -1.88853e-19 1.11564)
(9.90193 7.53592e-19 1.28754)
(9.99771 -3.95211e-20 0.198962)
(9.9906 1.83361e-20 0.134988)
(9.99312 3.01123e-19 0.326709)
(9.99207 2.29621e-19 0.262567)
(9.98608 4.24547e-19 0.45714)
(9.99293 3.16468e-19 0.391434)
(9.97687 7.89381e-20 0.592657)
(9.98739 1.19551e-19 0.524723)
(9.96599 -5.2031e-19 0.734519)
(9.9786 -7.92295e-20 0.663654)
(9.95394 -4.1455e-19 0.883928)
(9.96941 -2.72824e-19 0.809418)
(9.94122 8.64567e-20 1.04193)
(9.96023 2.56497e-19 0.963177)
(9.92837 3.75419e-19 1.20937)
(9.95115 -1.72122e-19 1.12583)
(9.91591 1.72339e-19 1.38711)
(9.94263 1.97032e-19 1.29817)
(9.93527 -1.91757e-19 1.48103)
(9.99892 2.94993e-19 0.200513)
(9.99089 0 0.135628)
(9.99628 2.46098e-19 0.329513)
(9.99382 -3.26244e-21 0.264214)
(9.99228 2.59918e-21 0.461222)
(9.99727 -3.07885e-19 0.394049)
(9.98722 -4.34617e-20 0.597906)
(9.9954 3.93606e-20 0.528221)
(9.98144 1.73672e-19 0.740738)
(9.99132 -4.38531e-21 0.667891)
(9.97547 4.17013e-19 0.890866)
(9.98773 1.72448e-19 0.814143)
(9.96984 -9.83671e-21 1.04931)
(9.98513 8.51806e-21 0.968094)
(9.96507 -3.54296e-19 1.21689)
(9.98361 -1.75494e-19 1.13063)
(9.96169 -1.7681e-19 1.39439)
(9.98363 -3.53493e-19 1.30248)
(9.96035 -3.8009e-19 1.58261)
(9.9858 3.52213e-19 1.4844)
(9.96183 2.12255e-19 1.78236)
(9.99085 -3.80414e-19 1.67712)
(9.99963 3.99062e-19 1.88133)
(9.99997 -3.0561e-19 0.201246)
(9.99088 2.61816e-19 0.135717)
(9.99939 -5.7299e-19 0.330934)
(9.99552 -3.04079e-19 0.264724)
(9.99848 -2.68207e-19 0.463229)
(10.0017 -2.40207e-19 0.394887)
(9.99761 7.92019e-20 0.600352)
(10.0035 2.16311e-19 0.529208)
(9.99706 -4.90649e-21 0.743428)
(10.0041 1.16121e-19 0.66887)
(9.99725 -2.46929e-19 0.893518)
(10.0062 7.19845e-20 0.814877)
(9.99869 -1.61847e-19 1.05159)
(10.0101 -8.85624e-20 0.968242)
(10.0019 -1.75072e-19 1.21842)
(10.0161 2.44003e-19 1.1298)
(10.0075 1.8999e-19 1.39471)
(10.0246 -3.41159e-19 1.30024)
(10.0162 3.51281e-19 1.58115)
(10.0361 3.6063e-19 1.48019)
(10.0286 -1.88618e-19 1.77836)
(10.0515 3.46197e-19 1.67027)
(10.0458 -3.74342e-19 1.9869)
(10.0715 -1.89416e-19 1.87098)
(10.0686 2.03563e-19 2.20716)
(10.0971 -9.36477e-21 2.08271)
(10.1294 2.05074e-19 2.30574)
(10.0009 2.60454e-19 0.201103)
(9.99082 2.63099e-19 0.135257)
(10.0025 3.74217e-20 0.330818)
(9.99721 2.82889e-19 0.263966)
(10.0048 2.59105e-19 0.463004)
(10.0062 2.92802e-19 0.393783)
(10.0081 2.53592e-19 0.599838)
(10.0117 -2.47387e-20 0.527565)
(10.0127 1.94816e-19 0.742406)
(10.017 2.04249e-21 0.666475)
(10.019 2.33812e-19 0.891686)
(10.0246 7.66544e-21 0.811463)
(10.0275 3.28502e-19 1.04856)
(10.035 1.57352e-19 0.963439)
(10.0386 7.2411e-20 1.21374)
(10.0484 1.69614e-19 1.12316)
(10.053 -1.6519e-19 1.38785)
(10.065 -8.33711e-21 1.29126)
(10.0714 3.55437e-19 1.57146)
(10.0857 8.21173e-20 1.46825)
(10.0945 3.45152e-19 1.76504)
(10.1111 1.02365e-19 1.65461)
(10.1231 1.84926e-19 1.96898)
(10.1419 -2.32311e-21 1.8507)
(10.1583 -7.91301e-21 2.18351)
(10.1792 1.85753e-19 2.05677)
(10.201 -1.84339e-19 2.40875)
(10.2237 -1.00538e-19 2.27291)
(10.2767 -1.80095e-19 2.49907)
(10.002 2.86294e-19 0.200011)
(9.99085 -2.53551e-19 0.134167)
(10.0058 5.44532e-19 0.329053)
(9.99897 2.58082e-20 0.261895)
(10.0112 1.02248e-22 0.460433)
(10.0108 2.70171e-19 0.390658)
(10.0187 -2.82401e-19 0.596256)
(10.0199 -2.52548e-19 0.523189)
(10.0284 -1.89764e-19 0.737555)
(10.0297 -3.17297e-19 0.6606)
(10.0406 -7.0183e-20 0.885227)
(10.0428 -1.53107e-19 0.80378)
(10.0559 -5.43242e-21 1.04006)
(10.0595 7.83944e-20 0.953546)
(10.0748 8.64473e-20 1.2027)
(10.0801 -2.3413e-19 1.11057)
(10.0978 2.45373e-19 1.37368)
(10.1047 1.65396e-19 1.2754)
(10.1255 -1.77326e-19 1.55343)
(10.1342 8.42044e-20 1.44846)
(10.1588 -2.53819e-19 1.74231)
(10.1691 -2.59065e-19 1.63009)
(10.1984 -1.36633e-21 1.94056)
(10.2102 -1.67867e-19 1.82053)
(10.2451 9.07459e-20 2.14826)
(10.2584 -4.20931e-20 2.01987)
(10.3001 -9.61668e-20 2.36535)
(10.3144 -3.71487e-20 2.22808)
(10.3642 1.02073e-19 2.5916)
(10.3793 -1.41221e-19 2.44494)
(10.4386 2.75219e-19 2.82658)
(10.454 2.37852e-19 2.67006)
(10.5393 1.11335e-20 2.90286)
(10.0031 -5.1883e-19 0.197911)
(9.99093 -1.45405e-20 0.132392)
(10.009 -2.53659e-19 0.325582)
(10.0007 -2.69992e-19 0.25846)
(10.0176 8.20813e-21 0.455442)
(10.0153 2.68388e-19 0.385452)
(10.0291 -2.88569e-19 0.589516)
(10.028 -2.68175e-19 0.516001)
(10.0437 -2.79037e-19 0.728773)
(10.0423 -1.38066e-20 0.651156)
(10.0618 0 0.874028)
(10.0606 -1.75073e-20 0.791738)
(10.0838 -1.56894e-19 1.02598)
(10.0835 1.80012e-20 0.938473)
(10.1101 -1.52256e-19 1.18519)
(10.111 -9.40841e-21 1.09195)
(10.1413 0 1.3521)
(10.1433 -3.76864e-20 1.25262)
(10.1781 0 1.52704)
(10.1811 -1.15144e-19 1.42082)
(10.221 -1.70843e-19 1.71023)
(10.2251 3.92921e-20 1.59677)
(10.2708 -2.09501e-19 1.90178)
(10.2759 -2.10861e-19 1.7806)
(10.3284 -1.73266e-19 2.10165)
(10.3342 -4.31573e-20 1.97228)
(10.3946 -8.32626e-20 2.30964)
(10.4008 3.57744e-20 2.17164)
(10.4702 -2.00965e-21 2.5254)
(10.4765 4.45101e-20 2.37836)
(10.5561 -3.28762e-20 2.74838)
(10.5621 -2.156e-19 2.59195)
(10.6532 -1.85047e-19 2.97785)
(10.6583 -1.60879e-19 2.81174)
(10.7623 -9.80545e-20 3.21288)
(10.7659 1.54141e-19 3.0369)
(10.8856 9.30696e-20 3.2664)
(10.0043 2.39073e-19 0.194758)
(9.99105 7.26243e-21 0.129898)
(10.0123 2.68544e-19 0.320354)
(10.0025 -2.3642e-19 0.253616)
(10.0239 -1.79319e-20 0.447968)
(10.0198 2.65112e-19 0.378117)
(10.0394 1.46315e-20 0.579545)
(10.0359 2.39306e-19 0.505945)
(10.0588 2.54194e-19 0.715984)
(10.0545 5.44154e-19 0.638084)
(10.0825 1.06346e-21 0.85802)
(10.078 -1.79455e-20 0.775281)
(10.1109 1.69131e-19 1.00626)
(10.1067 1.40962e-20 0.918175)
(10.1443 1.07974e-19 1.16119)
(10.1408 1.54344e-19 1.06727)
(10.1834 -1.55915e-19 1.32314)
(10.1804 1.07253e-19 1.22292)
(10.2286 -7.4616e-20 1.49235)
(10.2262 3.66889e-20 1.38539)
(10.2806 -2.00401e-21 1.66894)
(10.2786 3.55073e-20 1.55479)
(10.3399 -4.0165e-20 1.85289)
(10.3383 -3.63734e-20 1.73114)
(10.4074 1.7119e-19 2.04406)
(10.4059 -1.82308e-19 1.91432)
(10.4838 1.66725e-19 2.24215)
(10.4821 3.51385e-19 2.10406)
(10.5697 -1.74555e-19 2.44672)
(10.5675 -4.06685e-20 2.29996)
(10.6658 -3.46764e-19 2.65713)
(10.6628 -1.31359e-19 2.50146)
(10.7729 1.87044e-19 2.87262)
(10.7685 -1.74971e-19 2.70785)
(10.8914 3.4991e-19 3.09225)
(10.8851 4.41554e-19 2.91828)
(11.022 0 3.31492)
(11.0132 8.41728e-20 3.13174)
(11.1648 -2.75599e-19 3.5394)
(11.1531 -2.1103e-21 3.34712)
(11.3049 -3.63777e-19 3.56315)
(10.0054 -4.8091e-19 0.19052)
(9.99117 -2.44056e-19 0.126669)
(10.0154 -2.36557e-19 0.31333)
(10.0042 7.05733e-21 0.247331)
(10.03 5.28556e-19 0.437967)
(10.0241 -2.59131e-19 0.368618)
(10.0493 7.83414e-19 0.566297)
(10.0436 5.09946e-19 0.492986)
(10.0734 2.62899e-19 0.699149)
(10.0663 2.89349e-20 0.621353)
(10.1025 -4.48154e-21 0.837171)
(10.0946 1.31688e-19 0.75439)
(10.1369 -6.34505e-22 0.980891)
(10.129 -1.39545e-19 0.892652)
(10.1772 1.53525e-19 1.1307)
(10.1693 -1.35492e-19 1.03656)
(10.2236 3.04529e-19 1.28685)
(10.2158 7.15708e-21 1.18639)
(10.2767 1.49553e-19 1.44949)
(10.2689 1.40532e-19 1.34231)
(10.337 2.05628e-22 1.61865)
(10.3291 3.20716e-20 1.50436)
(10.4051 -1.82273e-19 1.79421)
(10.3971 1.36234e-19 1.67246)
(10.4816 2.93555e-21 1.97595)
(10.4731 -7.11427e-20 1.84642)
(10.5671 1.38449e-19 2.16348)
(10.5579 6.74465e-20 2.0259)
(10.6621 3.53839e-21 2.35631)
(10.6519 -1.99213e-19 2.21044)
(10.7671 4.47045e-20 2.55377)
(10.7556 2.0525e-19 2.39945)
(10.8827 8.63753e-20 2.75508)
(10.8694 1.64809e-19 2.5922)
(11.0092 1.6892e-19 2.9593)
(10.9937 -8.03516e-20 2.78786)
(11.147 8.19836e-20 3.16542)
(11.1287 8.62438e-20 2.98546)
(11.2961 -9.28791e-20 3.37226)
(11.2746 -8.54682e-20 3.18397)
(10.0064 2.56988e-19 0.185179)
(9.9913 0 0.122694)
(10.0185 -1.78755e-20 0.304485)
(10.0058 2.82266e-20 0.239584)
(10.0359 -2.73738e-19 0.425416)
(10.0282 -2.78899e-19 0.356939)
(10.0588 -2.65501e-19 0.549755)
(10.0509 -2.4527e-19 0.477113)
(10.0873 -1.05063e-19 0.678258)
(10.0775 -3.40897e-19 0.600963)
(10.1215 -7.71189e-21 0.811495)
(10.1105 -5.76833e-20 0.729084)
(10.1618 -2.77751e-19 0.94991)
(10.1501 -1.04799e-19 0.861951)
(10.2083 -2.85142e-19 1.09381)
(10.1963 -1.76261e-19 0.999904)
(10.2616 -1.60655e-19 1.24339)
(10.2491 -1.11479e-19 1.14315)
(10.322 1.99051e-20 1.39869)
(10.3091 1.21634e-19 1.29178)
(10.39 1.71694e-19 1.55967)
(10.3765 -1.40811e-19 1.44576)
(10.466 2.49891e-19 1.72615)
(10.4518 -4.83079e-20 1.60494)
(10.5506 -4.93345e-21 1.89783)
(10.5354 2.67256e-19 1.76908)
(10.6441 -2.78934e-19 2.07429)
(10.6278 -4.56482e-20 1.93778)
(10.747 7.95443e-21 2.25498)
(10.7293 -8.38453e-20 2.11056)
(10.8597 3.28344e-19 2.43924)
(10.8402 3.97952e-19 2.28681)
(10.9824 -6.35045e-21 2.62629)
(10.9608 1.06005e-20 2.46582)
(11.1155 -1.64848e-19 2.81525)
(11.0914 1.49182e-19 2.64677)
(11.259 -8.54671e-20 3.00515)
(11.232 -8.16325e-20 2.82879)
(11.3826 7.69644e-20 3.01091)
(10.0074 -2.34135e-19 0.178724)
(9.99144 0 0.117969)
(10.0214 -2.41227e-19 0.293807)
(10.0074 -3.83877e-20 0.23037)
(10.0415 -2.49529e-19 0.410309)
(10.0321 1.35673e-20 0.343078)
(10.0679 -3.22982e-19 0.529924)
(10.0579 -2.3361e-19 0.458337)
(10.1006 -2.91128e-19 0.653339)
(10.0882 2.59387e-20 0.576943)
(10.1396 -1.57356e-19 0.781044)
(10.1255 -1.97418e-19 0.699419)
(10.1852 -1.01081e-21 0.913409)
(10.17 2.89826e-19 0.826162)
(10.2376 1.90449e-21 1.05067)
(10.2216 9.58943e-20 0.957442)
(10.2972 1.78408e-19 1.19294)
(10.2803 3.53431e-20 1.0934)
(10.3643 -4.36475e-20 1.34021)
(10.3464 -1.29225e-19 1.23406)
(10.4392 -3.66184e-19 1.49236)
(10.4203 9.51177e-20 1.37933)
(10.5223 -3.00579e-20 1.64917)
(10.5022 -3.28682e-19 1.52902)
(10.6139 2.2513e-19 1.81029)
(10.5926 3.67828e-19 1.68283)
(10.7145 1.54279e-19 1.97527)
(10.6916 -1.43964e-19 1.84035)
(10.8242 3.16411e-19 2.14356)
(10.7995 -6.8491e-20 2.00108)
(10.9433 7.18315e-20 2.31449)
(10.9165 3.88661e-19 2.16442)
(11.072 1.70123e-19 2.48733)
(11.0428 -2.37983e-19 2.32968)
(11.2103 2.34186e-19 2.66125)
(11.1784 1.71021e-19 2.49611)
(11.3583 8.50558e-20 2.83536)
(11.3234 -1.61976e-19 2.66289)
(11.4775 8.72786e-20 2.82916)
(10.0084 2.00223e-19 0.171155)
(9.99159 -1.31062e-20 0.112496)
(10.0241 2.2304e-19 0.281302)
(10.0089 4.28195e-19 0.219693)
(10.0469 2.84677e-20 0.392662)
(10.0358 2.93235e-20 0.327051)
(10.0765 1.25132e-19 0.506838)
(10.0645 5.72418e-20 0.436692)
(10.113 1.21047e-19 0.624449)
(10.0982 1.24421e-19 0.549351)
(10.1565 2.62604e-19 0.745911)
(10.1395 -6.05567e-20 0.665483)
(10.2071 3.88528e-19 0.871522)
(10.1886 1.37346e-19 0.785415)
(10.2649 1.29981e-19 1.00145)
(10.2451 -5.70221e-20 0.909351)
(10.3302 -2.80376e-19 1.13576)
(10.3091 1.29645e-19 1.03737)
(10.4033 1.35136e-20 1.27438)
(10.3808 -8.05079e-20 1.16945)
(10.4844 1.32751e-19 1.41714)
(10.4605 1.49788e-19 1.30546)
(10.5737 8.02414e-20 1.56379)
(10.5483 1.3029e-19 1.44517)
(10.6716 -1.11965e-20 1.71394)
(10.6444 8.05084e-20 1.58825)
(10.7781 -3.72192e-19 1.86715)
(10.7491 -2.26056e-19 1.73428)
(10.8936 6.04808e-21 2.02287)
(10.8625 -1.51741e-19 1.88277)
(11.018 7.03626e-20 2.18045)
(10.9846 1.53749e-19 2.03314)
(11.1515 -2.3654e-19 2.33921)
(11.1154 -7.88442e-20 2.18474)
(11.294 -2.35344e-19 2.49838)
(11.255 -1.59007e-19 2.33688)
(11.4453 -1.59386e-19 2.65717)
(11.4032 -8.0289e-20 2.48881)
(11.5599 -3.84697e-19 2.63978)
(10.0093 2.22606e-19 0.162481)
(9.99173 -1.34183e-20 0.106284)
(10.0267 2.27462e-19 0.266985)
(10.0103 2.07235e-19 0.207572)
(10.0518 5.89518e-20 0.372511)
(10.0393 -2.69932e-20 0.308891)
(10.0845 5.69561e-20 0.480557)
(10.0705 1.14417e-19 0.412233)
(10.1246 -6.23895e-20 0.591678)
(10.1075 -1.34379e-22 0.518272)
(10.1722 -1.88198e-19 0.706222)
(10.1525 -1.79349e-19 0.627397)
(10.2273 -3.19875e-19 0.824423)
(10.2056 -2.47597e-19 0.739872)
(10.29 -5.6856e-20 0.946396)
(10.2667 -1.95341e-19 0.855843)
(10.3605 3.33971e-19 1.07214)
(10.3355 -1.8198e-19 0.975346)
(10.4389 5.96248e-20 1.20156)
(10.4121 3.96887e-19 1.09831)
(10.5255 1.47269e-19 1.33446)
(10.4969 -4.01038e-19 1.22457)
(10.6202 1.30438e-19 1.47053)
(10.5898 1.49603e-20 1.35389)
(10.7234 -1.4015e-19 1.60942)
(10.6909 1.27625e-19 1.48591)
(10.8351 0 1.75065)
(10.8004 -1.38455e-19 1.62023)
(10.9553 0 1.89371)
(10.9183 1.39391e-19 1.75637)
(11.084 5.90616e-22 2.038)
(11.0445 -1.29572e-21 1.89378)
(11.2212 5.74637e-22 2.18286)
(11.179 -7.17054e-20 2.03186)
(11.3668 0 2.32763)
(11.3216 0 2.16999)
(11.5205 -3.11626e-19 2.47158)
(11.4722 2.92201e-19 2.3075)
(11.6304 -6.83656e-19 2.44373)
(10.0101 -2.78841e-20 0.152717)
(9.99187 -2.48611e-20 0.0993461)
(10.0291 -5.46088e-20 0.250891)
(10.0116 2.25181e-20 0.194032)
(10.0565 3.04759e-20 0.349907)
(10.0424 1.03685e-19 0.288643)
(10.0919 5.55119e-20 0.451161)
(10.0762 1.114e-19 0.385033)
(10.1353 -1.20672e-19 0.555141)
(10.116 0 0.483811)
(10.1866 -2.40465e-19 0.662135)
(10.1643 -1.1966e-19 0.585306)
(10.2458 -1.19799e-19 0.772317)
(10.2212 1.11071e-19 0.689724)
(10.3129 -3.23586e-19 0.885755)
(10.2863 1.19522e-19 0.797163)
(10.388 -1.16097e-19 1.00241)
(10.3593 -1.99947e-19 0.907618)
(10.4711 -7.69938e-20 1.12216)
(10.4403 1.97507e-19 1.02099)
(10.5624 -5.35841e-19 1.24477)
(10.5295 -2.68015e-19 1.13709)
(10.6618 1.22577e-20 1.36995)
(10.6267 -2.73651e-19 1.25567)
(10.7695 1.28946e-19 1.49733)
(10.7321 2.78293e-19 1.37639)
(10.8854 4.86527e-21 1.62646)
(10.8457 -2.75326e-19 1.49884)
(11.0094 1.37893e-19 1.75685)
(10.9672 2.79384e-19 1.62258)
(11.1416 -7.54357e-20 1.88795)
(11.0967 2.73017e-19 1.7471)
(11.2817 -7.21709e-20 2.01917)
(11.2339 -4.24207e-19 1.87186)
(11.4295 2.99891e-19 2.1499)
(11.3787 2.10515e-19 1.9963)
(11.5847 -9.04456e-20 2.27951)
(11.5308 8.34987e-20 2.11982)
(11.6898 -3.09404e-19 2.24186)
(10.0109 2.74174e-20 0.141889)
(9.99201 1.68103e-19 0.0916998)
(10.0313 1.85137e-19 0.23306)
(10.0128 -1.4815e-19 0.179109)
(10.0607 1.86402e-19 0.32492)
(10.0453 -7.11087e-20 0.266368)
(10.0987 5.40108e-20 0.418751)
(10.0813 2.13592e-19 0.355182)
(10.1451 5.33287e-22 0.514978)
(10.1237 -1.6243e-19 0.446096)
(10.1997 2.41383e-19 0.61383)
(10.1751 2.22924e-19 0.539381)
(10.2625 3.56339e-19 0.715433)
(10.2353 1.18171e-20 0.635188)
(10.3335 2.45328e-19 0.819816)
(10.3038 1.21923e-19 0.733577)
(10.4126 1.22428e-19 0.926913)
(10.3806 -1.12133e-19 0.834511)
(10.4998 7.33855e-22 1.03657)
(10.4654 1.2173e-19 0.937871)
(10.5951 7.12871e-22 1.14856)
(10.5583 1.24813e-19 1.04346)
(10.6985 0 1.26258)
(10.6593 0 1.15103)
(10.8099 -1.36986e-19 1.37828)
(10.7682 0 1.26024)
(10.9293 6.91908e-21 1.49524)
(10.885 -1.36748e-19 1.37073)
(11.0564 4.17928e-19 1.613)
(11.0095 2.71417e-19 1.48207)
(11.1911 -8.54043e-20 1.73106)
(11.1415 -5.30843e-20 1.59381)
(11.3333 -1.33517e-19 1.84889)
(11.2807 2.51612e-19 1.70546)
(11.4825 -1.14002e-20 1.96596)
(11.427 -5.97523e-20 1.81653)
(11.6385 -1.41394e-19 2.08173)
(11.5799 -1.50948e-20 1.92649)
(11.7391 -2.07749e-19 2.03486)
(10.0116 -1.24888e-20 0.130023)
(9.99216 -1.48501e-20 0.0833645)
(10.0333 -4.10193e-19 0.213545)
(10.0138 -2.77037e-19 0.162841)
(10.0645 -4.1869e-20 0.297631)
(10.048 -2.10542e-19 0.242132)
(10.1048 -9.7486e-21 0.383443)
(10.0859 -4.36306e-20 0.322783)
(10.1538 6.69876e-20 0.471345)
(10.1307 -1.65998e-19 0.405271)
(10.2114 -1.30573e-20 0.561511)
(10.1847 1.19898e-19 0.489806)
(10.2775 -2.28031e-19 0.654024)
(10.2478 -1.22868e-19 0.576496)
(10.3518 -2.45049e-19 0.748883)
(10.3194 -1.13569e-19 0.665365)
(10.4344 -1.12281e-19 0.845999)
(10.3993 -1.27867e-19 0.756356)
(10.5251 2.48916e-19 0.945211)
(10.4874 1.24764e-19 0.849339)
(10.6238 1.23818e-19 1.04629)
(10.5835 2.47082e-19 0.944119)
(10.7305 0 1.14895)
(10.6875 -1.83795e-19 1.04044)
(10.8449 0 1.25285)
(10.7993 6.28633e-20 1.13801)
(10.967 1.35006e-19 1.35761)
(10.9187 -6.31044e-20 1.23647)
(11.0965 -2.11872e-19 1.4628)
(11.0454 1.34783e-19 1.33545)
(11.2331 2.92887e-19 1.568)
(11.1793 -4.07914e-19 1.43453)
(11.3767 3.26822e-19 1.67273)
(11.3199 6.25776e-19 1.5333)
(11.5268 -6.34024e-20 1.77652)
(11.4671 -2.155e-19 1.63131)
(11.683 -8.33639e-20 1.87892)
(11.6203 2.11392e-19 1.72813)
(11.7792 -2.54971e-19 1.82333)
(10.0122 -2.86321e-19 0.117152)
(9.9923 -2.17982e-19 0.0743587)
(10.0351 -7.22282e-20 0.192403)
(10.0148 2.04254e-20 0.14527)
(10.068 -2.11477e-19 0.268131)
(10.0503 0 0.216008)
(10.1103 -2.04129e-19 0.34537)
(10.09 -1.10227e-19 0.287951)
(10.1617 -1.10646e-19 0.424416)
(10.1369 1.03303e-19 0.361492)
(10.2219 6.51427e-21 0.505393)
(10.1932 -1.10613e-19 0.436782)
(10.2907 -5.55064e-21 0.588351)
(10.2588 2.21252e-19 0.51389)
(10.3679 6.49736e-21 0.673262)
(10.3331 -2.26342e-19 0.592816)
(10.4534 1.15678e-19 0.760028)
(10.4157 1.74444e-19 0.673489)
(10.547 1.23178e-19 0.848482)
(10.5064 -1.15146e-19 0.755773)
(10.6486 -6.91116e-20 0.938405)
(10.6051 1.22895e-19 0.83948)
(10.7579 -1.18903e-19 1.02953)
(10.7117 -3.07512e-19 0.924372)
(10.8748 -2.05621e-21 1.12154)
(10.8257 1.25134e-19 1.01017)
(10.9989 -6.29944e-20 1.21409)
(10.9471 1.19468e-19 1.09657)
(11.1302 -6.70202e-20 1.30682)
(11.0755 -3.11649e-19 1.18324)
(11.2681 -6.51741e-20 1.39933)
(11.2107 1.24269e-19 1.2698)
(11.4125 6.869e-20 1.49123)
(11.3522 -2.55098e-19 1.3559)
(11.5629 6.68138e-20 1.5821)
(11.4997 7.14041e-20 1.44117)
(11.7189 3.4876e-20 1.67155)
(11.6528 2.96598e-19 1.52522)
(11.811 3.46792e-20 1.6077)
(10.0128 9.7394e-20 0.103302)
(9.99245 0 0.064695)
(10.0368 9.42664e-20 0.16969)
(10.0157 9.70354e-20 0.126428)
(10.0711 1.03137e-19 0.236516)
(10.0525 0 0.188069)
(10.1152 2.05626e-19 0.30467)
(10.0938 5.31171e-21 0.250804)
(10.1686 1.02477e-19 0.374374)
(10.1425 5.5451e-21 0.314923)
(10.231 1.10579e-19 0.445709)
(10.2007 2.05006e-19 0.380517)
(10.3022 -6.41721e-21 0.518694)
(10.2684 5.74429e-20 0.447624)
(10.3819 -5.30657e-20 0.593287)
(10.3449 -5.80563e-21 0.516226)
(10.4698 -6.28486e-20 0.669383)
(10.4297 2.07783e-21 0.586244)
(10.5658 -1.14868e-19 0.746819)
(10.5227 -2.29404e-19 0.657545)
(10.6696 -1.22367e-19 0.825388)
(10.6235 1.14212e-19 0.729951)
(10.781 -5.65349e-20 0.904847)
(10.7319 -6.40482e-20 0.803249)
(10.8997 2.49723e-19 0.984916)
(10.8477 -5.51247e-20 0.877193)
(11.0255 -1.36147e-19 1.06529)
(10.9706 3.08975e-19 0.951511)
(11.1579 -1.14891e-19 1.14565)
(11.1002 -7.79325e-20 1.02591)
(11.2967 -7.10235e-20 1.22566)
(11.2361 -1.73368e-19 1.10008)
(11.4415 -2.51882e-19 1.30497)
(11.3781 -1.07899e-20 1.17372)
(11.5918 3.07259e-19 1.38324)
(11.5256 2.88209e-21 1.2465)
(11.7472 2.96034e-19 1.46015)
(11.6782 2.72106e-19 1.31813)
(11.8356 -2.56673e-19 1.38829)
(10.0133 0 0.0884888)
(9.99262 0 0.0543703)
(10.0383 0 0.145458)
(10.0166 8.98985e-20 0.106329)
(10.074 -1.00159e-19 0.202887)
(10.0545 0 0.158383)
(10.1196 -1.9964e-19 0.261488)
(10.0972 -4.56787e-21 0.211468)
(10.1747 1.11296e-19 0.321401)
(10.1474 -1.50944e-19 0.265736)
(10.239 1.50054e-19 0.382662)
(10.2073 2.60068e-19 0.321223)
(10.3121 5.78977e-20 0.445274)
(10.2767 -1.05239e-19 0.377949)
(10.3938 5.07628e-20 0.509184)
(10.355 1.62317e-19 0.435885)
(10.4837 -1.69191e-19 0.57429)
(10.4416 -1.62601e-19 0.494946)
(10.5816 6.18885e-21 0.640442)
(10.5362 -5.05902e-21 0.555008)
(10.6872 1.73609e-19 0.707454)
(10.6387 1.17074e-19 0.615912)
(10.8002 -6.25902e-20 0.775109)
(10.7486 1.71901e-19 0.67747)
(10.9203 6.26074e-21 0.843168)
(10.8657 -2.3544e-19 0.739471)
(11.0471 3.68034e-19 0.911369)
(10.9896 7.21474e-21 0.801683)
(11.1803 -1.38063e-19 0.979436)
(11.1199 2.77684e-19 0.863861)
(11.3195 -1.11391e-19 1.04709)
(11.2563 -4.38757e-19 0.92575)
(11.4643 2.50386e-19 1.11404)
(11.3983 1.55125e-20 0.987091)
(11.6142 -3.2847e-20 1.18)
(11.5455 2.77788e-19 1.04763)
(11.7688 -2.95298e-19 1.24471)
(11.6975 -3.28066e-20 1.10711)
(11.8537 -5.44115e-19 1.16529)
(10.0139 9.23512e-20 0.0727045)
(9.99284 -2.13881e-20 0.0433422)
(10.0399 8.9448e-20 0.119744)
(10.0176 6.997e-20 0.084945)
(10.0767 9.7874e-20 0.167351)
(10.0566 0 0.127017)
(10.1236 4.46911e-20 0.216017)
(10.1005 5.11982e-20 0.170085)
(10.1801 2.94581e-21 0.265788)
(10.1519 4.52007e-20 0.214121)
(10.2459 -2.77593e-21 0.316664)
(10.2131 -4.58728e-20 0.259133)
(10.3206 2.60924e-21 0.368624)
(10.2839 -5.19973e-20 0.305136)
(10.4038 -5.72864e-20 0.42161)
(10.3636 1.04525e-19 0.352092)
(10.4952 6.00859e-21 0.475518)
(10.4515 -1.09007e-19 0.399919)
(10.5946 1.08848e-19 0.530215)
(10.5475 2.17461e-19 0.448506)
(10.7015 1.15446e-19 0.585539)
(10.6511 -1.62223e-19 0.497715)
(10.8156 -6.07969e-21 0.641308)
(10.762 8.77724e-20 0.547391)
(10.9366 -2.34057e-19 0.69732)
(10.88 -3.46973e-20 0.59736)
(11.0641 -8.50096e-20 0.753361)
(11.0045 -1.19901e-19 0.647431)
(11.1978 -3.1717e-20 0.809205)
(11.1352 -5.60442e-20 0.697407)
(11.337 -3.0805e-19 0.864623)
(11.2717 -6.15857e-20 0.747085)
(11.4816 4.39394e-20 0.919385)
(11.4135 -1.30119e-19 0.796257)
(11.6309 2.77431e-19 0.973265)
(11.5602 1.04701e-19 0.84472)
(11.7845 -2.8859e-19 1.02605)
(11.7113 -2.10454e-19 0.892276)
(11.8664 -4.2233e-20 0.938743)
(10.0146 -4.35966e-20 0.0558892)
(9.99322 -1.14544e-20 0.0314631)
(10.0416 -2.19609e-20 0.0925419)
(10.0189 -7.61898e-20 0.0621783)
(10.0795 -4.75717e-20 0.129878)
(10.059 0 0.0940162)
(10.1275 5.15939e-20 0.168105)
(10.1038 -4.73688e-20 0.126763)
(10.1851 -5.19848e-21 0.207215)
(10.1562 5.10203e-20 0.160232)
(10.2521 -9.63445e-20 0.247215)
(10.2184 -9.95178e-20 0.194451)
(10.328 5.2926e-20 0.288083)
(10.2902 4.62158e-22 0.229434)
(10.4124 5.09235e-20 0.329756)
(10.3709 2.75526e-20 0.265137)
(10.5049 1.08537e-19 0.372141)
(10.4598 -1.0097e-19 0.301481)
(10.6052 -6.12759e-20 0.41512)
(10.5566 2.11852e-19 0.338373)
(10.713 -1.9006e-19 0.458559)
(10.661 1.74254e-20 0.375705)
(10.8279 5.82312e-20 0.502306)
(10.7726 -1.08781e-19 0.413355)
(10.9494 8.22258e-20 0.546199)
(10.891 2.21069e-19 0.451186)
(11.0773 -9.01039e-20 0.590065)
(11.0158 -8.4377e-20 0.489057)
(11.211 -8.66808e-20 0.633725)
(11.1466 -8.90281e-20 0.526814)
(11.3501 1.20802e-19 0.677)
(11.2829 0 0.564305)
(11.4941 -6.75342e-20 0.71971)
(11.4243 1.20652e-19 0.601376)
(11.6427 -3.96076e-19 0.76168)
(11.5703 -2.86182e-19 0.637874)
(11.7953 4.24064e-20 0.802744)
(11.7205 -1.41527e-19 0.673653)
(11.8744 2.52419e-19 0.708578)
(10.0158 -4.48412e-20 0.0379486)
(9.9942 1.06893e-20 0.0182385)
(10.0438 -5.33576e-20 0.0643123)
(10.0216 -5.48922e-20 0.0380357)
(10.0824 0 0.0915723)
(10.0627 -2.14702e-20 0.0595882)
(10.1312 -4.76875e-20 0.119448)
(10.1082 -2.20037e-20 0.0817054)
(10.1897 -4.61966e-20 0.147896)
(10.1611 -6.99825e-20 0.104282)
(10.2575 0 0.17695)
(10.2239 1.85811e-22 0.127416)
(10.3342 -2.54793e-20 0.206601)
(10.2963 8.28416e-20 0.151105)
(10.4194 -1.28491e-19 0.236799)
(10.3775 -4.9681e-20 0.175293)
(10.5126 5.69866e-21 0.267475)
(10.4669 -4.19324e-20 0.199913)
(10.6136 2.92151e-19 0.298545)
(10.5642 1.05867e-19 0.224896)
(10.7219 1.0055e-19 0.329915)
(10.6689 9.84655e-20 0.250163)
(10.8372 5.88397e-20 0.361479)
(10.7807 -8.26855e-20 0.275631)
(10.9589 4.97578e-20 0.39312)
(10.8992 1.39079e-19 0.301204)
(11.0868 -8.32531e-20 0.424718)
(11.024 -1.12489e-19 0.326783)
(11.2203 0 0.456145)
(11.1545 -1.36629e-20 0.352266)
(11.359 0 0.487274)
(11.2905 0 0.377549)
(11.5025 -1.0408e-19 0.517978)
(11.4313 0 0.402528)
(11.6502 -2.49022e-20 0.548134)
(11.5766 -8.97462e-20 0.4271)
(11.8017 7.42678e-20 0.577626)
(11.7258 -3.08006e-20 0.451168)
(11.8785 1.37854e-21 0.474644)
(10.0194 0 0.017015)
(9.98818 -2.48978e-21 0.00163203)
(10.0482 -2.20843e-20 0.0319742)
(10.0109 2.55583e-21 0.0126342)
(10.0873 -4.40112e-20 0.0482845)
(10.0461 -1.04308e-21 0.0239254)
(10.1366 -4.50857e-20 0.065156)
(10.0851 -2.25399e-20 0.0351684)
(10.1955 -2.22395e-20 0.0824771)
(10.1319 -2.30277e-20 0.0466625)
(10.2637 8.53471e-20 0.100255)
(10.1889 1.14661e-20 0.0585053)
(10.3407 5.76307e-20 0.118453)
(10.2559 7.33308e-20 0.0706685)
(10.4261 3.90543e-20 0.137008)
(10.332 -1.30499e-20 0.0831031)
(10.5196 6.10987e-20 0.155857)
(10.4167 7.50873e-20 0.095767)
(10.6207 -9.27053e-20 0.174934)
(10.5095 -4.84273e-22 0.10862)
(10.729 -8.97407e-20 0.194173)
(10.61 -7.98365e-20 0.121619)
(10.8442 0 0.213502)
(10.7179 -2.55851e-20 0.134716)
(10.9658 -2.76966e-20 0.232845)
(10.8327 2.58111e-20 0.147862)
(11.0934 -4.09556e-20 0.252126)
(10.9539 -2.78736e-20 0.161003)
(11.2265 -1.36445e-20 0.271265)
(11.0812 -2.74958e-20 0.174084)
(11.3646 0 0.290184)
(11.2139 2.6956e-20 0.187052)
(11.5073 1.46055e-20 0.308806)
(11.3516 -2.75825e-20 0.199852)
(11.6541 -9.57777e-20 0.327058)
(11.4939 4.2217e-20 0.212432)
(11.8046 -1.05589e-19 0.344871)
(11.6401 -1.31099e-19 0.224742)
(11.79 2.9644e-20 0.236737)
(10.0018 2.03445e-22 0.00264)
(10.0158 2.41213e-20 0.00688428)
(10.0415 2.08904e-20 0.0119446)
(10.0778 0 0.0173358)
(10.1245 1.1593e-20 0.0229903)
(10.181 -6.36728e-22 0.0289018)
(10.2471 6.52834e-22 0.035044)
(10.3223 2.41195e-20 0.0413833)
(10.4062 1.17955e-20 0.0478886)
(10.4984 1.25462e-20 0.0545309)
(10.5985 -1.39453e-20 0.0612813)
(10.706 9.78097e-22 0.0681091)
(10.8204 2.5537e-20 0.0749827)
(10.9413 -1.40553e-20 0.0818697)
(11.0682 1.42312e-20 0.0887373)
(11.2005 -1.40189e-21 0.0955528)
(11.3378 8.24654e-22 0.102284)
(11.4796 5.80189e-21 0.108901)
(11.6252 7.7794e-21 0.115375)
)
;

boundaryField
{
    inlet
    {
        type            calculated;
        value           nonuniform List<vector> 
30
(
(10 0 0)
(10 0 0)
(10 0 0)
(10 0 0)
(10 0 0)
(10 0 0)
(10 0 0)
(10 0 0)
(10 0 0)
(10 0 0)
(10 0 0)
(10 0 0)
(10 0 0)
(10 0 0)
(10 0 0)
(10 0 0)
(10 0 0)
(10 0 0)
(10 0 0)
(10 0 0)
(10 0 0)
(10 0 0)
(10 0 0)
(10 0 0)
(10 0 0)
(10 0 0)
(10 0 0)
(10 0 0)
(10 0 0)
(10 0 0)
)
;
    }
    outlet
    {
        type            calculated;
        value           nonuniform 0();
    }
    flap
    {
        type            calculated;
        value           nonuniform 0();
    }
    upperWall
    {
        type            calculated;
        value           uniform (0 0 0);
    }
    lowerWall
    {
        type            calculated;
        value           nonuniform 0();
    }
    frontAndBack
    {
        type            empty;
        value           nonuniform 0();
    }
    procBoundary0to1
    {
        type            processor;
        value           nonuniform List<vector> 
18
(
(11.3202 -2.6832e-19 3.76428)
(11.4566 -8.84066e-20 3.57861)
(11.4315 1.61582e-19 3.38224)
(11.413 1.75642e-19 3.19496)
(11.5159 1.62092e-19 3.00874)
(11.6053 -7.89592e-20 2.81475)
(11.6821 -7.00317e-19 2.61401)
(11.747 -2.94821e-19 2.40739)
(11.8009 7.22347e-20 2.19566)
(11.845 -2.81491e-19 1.97945)
(11.8801 3.39298e-20 1.7592)
(11.9073 3.06938e-19 1.53538)
(11.9277 -5.92068e-19 1.3079)
(11.942 -2.48186e-19 1.07753)
(11.9514 2.45809e-19 0.842749)
(11.9565 -1.22789e-19 0.606344)
(11.9582 -1.19824e-19 0.362181)
(11.7743 5.78311e-20 0.121678)
)
;
    }
    procBoundary0to3
    {
        type            processor;
        value           nonuniform List<vector> 
34
(
(9.98814 1.64946e-19 0.110062)
(9.97728 4.475e-19 0.213808)
(9.9703 1.79874e-19 0.27279)
(9.96113 4.56231e-20 0.33159)
(9.94786 3.38597e-19 0.396452)
(9.9385 1.99445e-19 0.460683)
(9.9249 -1.89526e-19 0.531904)
(9.91543 -1.89809e-19 0.601994)
(9.90475 -1.90104e-19 0.679842)
(9.89754 -4.6729e-19 0.755981)
(9.89053 -5.64363e-19 0.840397)
(9.88727 -1.95395e-19 0.922488)
(9.8851 4.02493e-22 1.01304)
(9.88731 -1.83734e-19 1.10038)
(9.86174 7.78686e-19 1.27089)
(9.87059 3.78024e-19 1.37313)
(9.88497 -1.87456e-19 1.47034)
(9.90445 -1.87311e-19 1.57607)
(9.92979 -3.70861e-19 1.67532)
(9.92698 5.68284e-19 1.88185)
(9.96703 5.6871e-19 1.9943)
(10.0131 -1.85362e-19 2.09758)