/*--------------------------------*- C++ -*----------------------------------*\
| =========                 |                                                 |
| \\      /  F ield         | OpenFOAM: The Open Source CFD Toolbox           |
|  \\    /   O peration     | Version:  dev                                   |
|   \\  /    A nd           | Web:      www.OpenFOAM.org                      |
|    \\/     M anipulation  |                                                 |
\*---------------------------------------------------------------------------*/
FoamFile
{
    version     2.0;
    format      ascii;
    class       surfaceScalarField;
    location    "0.12";
    object      meshPhi;
}
// * * * * * * * * * * * * * * * * * * * * * * * * * * * * * * * * * * * * * //

dimensions      [0 3 -1 0 0 0 0];

internalField   nonuniform List<scalar> 
879
(
-7.00808e-07
-1.54091e-06
-4.37428e-06
-7.29505e-07
-1.59873e-06
-1.42656e-06
-4.54226e-06
-7.02757e-06
-7.58887e-07
-1.65165e-06
-1.48293e-06
-4.69141e-06
-2.17933e-06
-7.26245e-06
-9.35083e-06
-7.86538e-07
-1.69871e-06
-1.53734e-06
-4.82517e-06
-2.25821e-06
-7.46813e-06
-2.96831e-06
-9.6221e-06
-1.13119e-05
-8.11649e-07
-1.73962e-06
-1.58645e-06
-4.94173e-06
-2.33077e-06
-7.64948e-06
-3.0625e-06
-9.85536e-06
-3.7897e-06
-1.15965e-05
-1.28909e-05
-8.33082e-07
-1.77413e-06
-1.62839e-06
-5.04041e-06
-2.39255e-06
-7.804e-06
-3.1442e-06
-1.00575e-05
-3.89054e-06
-1.18364e-05
-4.63148e-06
-1.31725e-05
-1.4076e-05
-8.49637e-07
-1.80198e-06
-1.66089e-06
-5.12051e-06
-2.44063e-06
-7.93062e-06
-3.20803e-06
-1.02252e-05
-3.97099e-06
-1.20406e-05
-4.72898e-06
-1.3405e-05
-5.47487e-06
-1.43426e-05
-6.19484e-06
-1.48654e-05
-1.49802e-05
-8.60081e-07
-1.82285e-06
-1.68157e-06
-5.18105e-06
-2.47163e-06
-8.02786e-06
-3.24986e-06
-1.03566e-05
-4.02473e-06
-1.22045e-05
-4.79597e-06
-1.36007e-05
-5.55688e-06
-1.45685e-05
-6.29561e-06
-1.51252e-05
-6.99667e-06
-1.53e-05
-1.51141e-05
-8.63159e-07
-1.83638e-06
-1.68801e-06
-5.22106e-06
-2.48206e-06
-8.09417e-06
-3.26524e-06
-1.04498e-05
-4.04645e-06
-1.23259e-05
-4.82587e-06
-1.37526e-05
-5.5971e-06
-1.47545e-05
-6.34893e-06
-1.53524e-05
-7.0688e-06
-1.55701e-05
-7.74018e-06
-1.54395e-05
-8.34434e-06
-1.49834e-05
-1.42191e-05
-8.57607e-07
-1.84227e-06
-1.67777e-06
-5.23963e-06
-2.46839e-06
-8.12812e-06
-3.24963e-06
-1.05028e-05
-4.03071e-06
-1.24023e-05
-4.81228e-06
-1.38579e-05
-5.58845e-06
-1.48955e-05
-6.34885e-06
-1.55377e-05
-7.08071e-06
-1.58086e-05
-7.77147e-06
-1.57351e-05
-8.40638e-06
-1.53426e-05
-8.97226e-06
-1.46697e-05
-9.45665e-06
-1.37628e-05
-1.26582e-05
-8.42187e-07
-1.84019e-06
-1.64845e-06
-5.23584e-06
-2.42716e-06
-8.1282e-06
-3.19852e-06
-1.05134e-05
-3.97204e-06
-1.24309e-05
-4.74879e-06
-1.39129e-05
-5.52347e-06
-1.49863e-05
-6.28645e-06
-1.56752e-05
-7.02574e-06
-1.60036e-05
-7.72869e-06
-1.59974e-05
-8.38225e-06
-1.5685e-05
-8.97833e-06
-1.51017e-05
-9.50768e-06
-1.42886e-05
-9.96283e-06
-1.32985e-05
-1.21713e-05
-8.15717e-07
-1.82984e-06
-1.59774e-06
-5.20876e-06
-2.35499e-06
-8.09283e-06
-3.10755e-06
-1.04794e-05
-3.86508e-06
-1.24085e-05
-4.62904e-06
-1.39132e-05
-5.39471e-06
-1.50213e-05
-6.15315e-06
-1.57577e-05
-6.89308e-06
-1.61468e-05
-7.60243e-06
-1.62144e-05
-8.2695e-06
-1.59889e-05
-8.8849e-06
-1.55035e-05
-9.44028e-06
-1.47964e-05
-9.9341e-06
-1.39092e-05
-1.0356e-05
-1.28885e-05
-1.06923e-05
-1.17708e-05
-1.05836e-05
-7.7711e-07
-1.81091e-06
-1.52351e-06
-5.15748e-06
-2.24874e-06
-8.02039e-06
-2.97258e-06
-1.03984e-05
-3.70472e-06
-1.23317e-05
-4.44692e-06
-1.38541e-05
-5.19497e-06
-1.49942e-05
-5.94058e-06
-1.57774e-05
-6.67312e-06
-1.62286e-05
-7.38112e-06
-1.63731e-05
-8.05354e-06
-1.62388e-05
-8.68082e-06
-1.5857e-05
-9.25509e-06
-1.52628e-05
-9.77097e-06
-1.44936e-05
-1.02266e-05
-1.35887e-05
-1.0616e-05
-1.25837e-05
-1.09341e-05
-1.15184e-05
-1.11795e-05
-1.04313e-05
-9.34282e-06
-7.25423e-07
-1.78312e-06
-1.42389e-06
-5.08107e-06
-2.10564e-06
-7.90925e-06
-2.78993e-06
-1.02677e-05
-3.48631e-06
-1.21968e-05
-4.19678e-06
-1.37306e-05
-4.91753e-06
-1.48983e-05
-5.64084e-06
-1.57258e-05
-6.35666e-06
-1.62378e-05
-7.05405e-06
-1.64596e-05
-7.72237e-06
-1.6418e-05
-8.35214e-06
-1.61426e-05
-8.93549e-06
-1.56654e-05
-9.46657e-06
-1.50208e-05
-9.94135e-06
-1.42438e-05
-1.03558e-05
-1.33695e-05
-1.07129e-05
-1.24329e-05
-1.10113e-05
-1.14662e-05
-1.12429e-05
-1.04986e-05
-1.13998e-05
-9.54811e-06
-8.57308e-06
-6.59898e-07
-1.74619e-06
-1.29736e-06
-4.97869e-06
-1.92338e-06
-7.75782e-06
-2.55647e-06
-1.00849e-05
-3.20591e-06
-1.20001e-05
-3.87375e-06
-1.35377e-05
-4.55651e-06
-1.47269e-05
-5.24693e-06
-1.55938e-05
-5.93545e-06
-1.61631e-05
-6.61158e-06
-1.64597e-05
-7.26498e-06
-1.65092e-05
-7.88625e-06
-1.63394e-05
-8.46744e-06
-1.59801e-05
-9.00234e-06
-1.54624e-05
-9.48647e-06
-1.48187e-05
-9.91688e-06
-1.40817e-05
-1.02932e-05
-1.3284e-05
-1.0615e-05
-1.24571e-05
-1.08867e-05
-1.16319e-05
-1.10929e-05
-1.08046e-05
-5.80019e-07
-1.69988e-06
-1.14287e-06
-4.84955e-06
-1.7003e-06
-7.56464e-06
-2.26993e-06
-9.84766e-06
-2.86051e-06
-1.17383e-05
-3.47403e-06
-1.32704e-05
-4.10723e-06
-1.44731e-05
-4.75317e-06
-1.53727e-05
-5.40271e-06
-1.59933e-05
-6.04571e-06
-1.63592e-05
-6.67205e-06
-1.64949e-05
-7.27241e-06
-1.64266e-05
-7.83874e-06
-1.61816e-05
-8.36457e-06
-1.57885e-05
-8.84512e-06
-1.52769e-05
-9.27742e-06
-1.46769e-05
-9.66049e-06
-1.40184e-05
-9.9952e-06
-1.33309e-05
-1.02859e-05
-1.26441e-05
-1.1926e-05
-4.85573e-07
-1.64398e-06
-9.59912e-07
-4.69298e-06
-1.43559e-06
-7.32839e-06
-1.92904e-06
-9.55376e-06
-2.44836e-06
-1.14078e-05
-2.99529e-06
-1.29239e-05
-3.56664e-06
-1.41307e-05
-4.15572e-06
-1.5054e-05
-4.75369e-06
-1.57175e-05
-5.35066e-06
-1.61446e-05
-5.93671e-06
-1.63587e-05
-6.50253e-06
-1.6384e-05
-7.03996e-06
-1.62457e-05
-7.54226e-06
-1.59701e-05
-8.00432e-06
-1.55837e-05
-8.42272e-06
-1.51136e-05
-8.79579e-06
-1.45864e-05
-9.12365e-06
-1.40275e-05
-9.40849e-06
-1.34603e-05
-1.2845e-05
-3.76708e-07
-1.57835e-06
-7.48719e-07
-4.50844e-06
-1.12942e-06
-7.04797e-06
-1.53386e-06
-9.20134e-06
-1.96928e-06
-1.1006e-05
-2.43702e-06
-1.24942e-05
-2.93382e-06
-1.3694e-05
-3.45312e-06
-1.46303e-05
-3.98627e-06
-1.53263e-05
-4.5236e-06
-1.5804e-05
-5.05529e-06
-1.60857e-05
-5.57202e-06
-1.61937e-05
-6.0655e-06
-1.6151e-05
-6.5287e-06
-1.59814e-05
-6.95606e-06
-1.57086e-05
-7.34354e-06
-1.53565e-05
-7.68856e-06
-1.49484e-05
-7.98983e-06
-1.4506e-05
-8.24682e-06
-1.4049e-05
-1.3537e-05
-2.54006e-07
-1.50286e-06
-5.10338e-07
-4.29555e-06
-7.83189e-07
-6.72254e-06
-1.08601e-06
-8.78888e-06
-1.42501e-06
-1.05303e-05
-1.80099e-06
-1.19777e-05
-2.21046e-06
-1.31581e-05
-2.64689e-06
-1.40953e-05
-3.10172e-06
-1.48114e-05
-3.56543e-06
-1.53273e-05
-4.02826e-06
-1.56635e-05
-4.48086e-06
-1.58407e-05
-4.91476e-06
-1.58798e-05
-5.32266e-06
-1.58017e-05
-5.69854e-06
-1.56275e-05
-6.03776e-06
-1.53783e-05
-6.33693e-06
-1.50739e-05
-6.59378e-06
-1.47332e-05
-6.80684e-06
-1.43732e-05
-1.39555e-05
-1.18545e-07
-1.41747e-06
-2.46793e-07
-4.05404e-06
-3.99708e-07
-6.35149e-06
-5.8898e-07
-8.31525e-06
-8.19609e-07
-9.97894e-06
-1.09169e-06
-1.13718e-05
-1.40141e-06
-1.25193e-05
-1.74214e-06
-1.3444e-05
-2.10537e-06
-1.41666e-05
-2.48161e-06
-1.47066e-05
-2.86113e-06
-1.50829e-05
-3.23457e-06
-1.53142e-05
-3.59328e-06
-1.5419e-05
-3.92968e-06
-1.5416e-05
-4.23738e-06
-1.53237e-05
-4.51122e-06
-1.51599e-05
-4.74721e-06
-1.49421e-05
-4.94246e-06
-1.46862e-05
-5.09501e-06
-1.44069e-05
-1.40698e-05
2.80349e-08
-1.32215e-06
3.87867e-08
-3.78379e-06
1.65744e-08
-5.93443e-06
-4.83867e-08
-7.77964e-06
-1.59748e-07
-9.35059e-06
-3.16774e-07
-1.06744e-05
-5.15221e-07
-1.17749e-05
-7.48251e-07
-1.26729e-05
-1.00731e-06
-1.33876e-05
-1.28293e-06
-1.39368e-05
-1.5654e-06
-1.43377e-05
-1.84528e-06
-1.46069e-05
-2.11381e-06
-1.47609e-05
-2.3632e-06
-1.48158e-05
-2.58673e-06
-1.47875e-05
-2.77888e-06
-1.46915e-05
-2.93522e-06
-1.45424e-05
-3.05247e-06
-1.43538e-05
-3.12831e-06
-1.41383e-05
-1.38664e-05
1.83468e-07
-1.2169e-06
3.42043e-07
-3.48474e-06
4.59394e-07
-5.47111e-06
5.27739e-07
-7.18149e-06
5.44886e-07
-8.64427e-06
5.12499e-07
-9.88424e-06
4.35361e-07
-1.0923e-05
3.20584e-07
-1.17797e-05
1.76824e-07
-1.24717e-05
1.35793e-08
-1.3015e-05
-1.59425e-07
-1.34248e-05
-3.3272e-07
-1.37158e-05
-4.97466e-07
-1.39022e-05
-6.45711e-07
-1.3998e-05
-7.70541e-07
-1.40167e-05
-8.66159e-07
-1.39712e-05
-9.27895e-07
-1.38738e-05
-9.52177e-07
-1.3736e-05
-9.36491e-07
-1.35682e-05
-1.3347e-05
3.44814e-07
-1.10172e-06
6.57279e-07
-3.15681e-06
9.20494e-07
-4.96128e-06
1.12872e-06
-6.52031e-06
1.2813e-06
-7.85924e-06
1.38089e-06
-9.00017e-06
1.43289e-06
-9.96244e-06
1.44474e-06
-1.07631e-05
1.42527e-06
-1.14175e-05
1.38401e-06
-1.19399e-05
1.33071e-06
-1.23433e-05
1.27485e-06
-1.26406e-05
1.22531e-06
-1.28438e-05
1.19012e-06
-1.29646e-05
1.17629e-06
-1.30144e-05
1.18975e-06
-1.30039e-05
1.23531e-06
-1.29433e-05
1.31668e-06
-1.2842e-05
1.43645e-06
-1.27086e-05
-1.25259e-05
5.08423e-07
-9.76544e-07
9.77385e-07
-2.7998e-06
1.3895e-06
-4.40455e-06
1.74105e-06
-5.79546e-06
2.03292e-06
-6.99459e-06
2.26883e-06
-8.02119e-06
2.45482e-06
-8.89206e-06
2.59871e-06
-9.62204e-06
2.70952e-06
-1.02244e-05
2.79687e-06
-1.07113e-05
2.87049e-06
-1.10939e-05
2.93987e-06
-1.1383e-05
3.01386e-06
-1.15886e-05
3.1005e-06
-1.17204e-05
3.20682e-06
-1.17877e-05
3.33877e-06
-1.17992e-05
3.50116e-06
-1.17631e-05
3.6977e-06
-1.16872e-05
3.93095e-06
-1.15783e-05
-1.14252e-05
6.69918e-07
-8.41244e-07
1.2938e-06
-2.4133e-06
1.85384e-06
-3.80014e-06
2.34827e-06
-5.00584e-06
2.77948e-06
-6.04896e-06
3.15222e-06
-6.94573e-06
3.47324e-06
-7.71031e-06
3.75075e-06
-8.35514e-06
3.99396e-06
-8.89135e-06
4.2126e-06
-9.329e-06
4.4164e-06
-9.67737e-06
4.6148e-06
-9.94515e-06
4.81661e-06
-1.01405e-05
5.02979e-06
-1.02713e-05
5.26132e-06
-1.03448e-05
5.51705e-06
-1.0368e-05
5.80172e-06
-1.03475e-05
6.11889e-06
-1.02893e-05
6.47101e-06
-1.01989e-05
-1.00699e-05
8.24221e-07
-6.95546e-07
1.59653e-06
-1.99647e-06
2.29877e-06
-3.14669e-06
2.93095e-06
-4.14956e-06
3.4969e-06
-5.02005e-06
4.00235e-06
-5.77122e-06
4.45473e-06
-6.41447e-06
4.86267e-06
-6.95982e-06
5.23561e-06
-7.41614e-06
5.58333e-06
-7.79145e-06
5.9156e-06
-8.09308e-06
6.2418e-06
-8.32782e-06
6.57064e-06
-8.50204e-06
6.90998e-06
-8.62176e-06
7.26667e-06
-8.69264e-06
7.64641e-06
-8.72002e-06
8.05375e-06
-8.70892e-06
8.49206e-06
-8.66396e-06
8.96351e-06
-8.58944e-06
-8.48267e-06
9.65623e-07
-5.39e-07
1.87429e-06
-1.54799e-06
2.70753e-06
-2.44203e-06
3.46689e-06
-3.22368e-06
4.15748e-06
-3.90421e-06
4.786e-06
-4.49347e-06
5.36048e-06
-5.00004e-06
5.88997e-06
-5.43144e-06
6.38414e-06
-5.7943e-06
6.85287e-06
-6.0946e-06
7.30593e-06
-6.33774e-06
7.75264e-06
-6.52872e-06
8.20163e-06
-6.6722e-06
8.66062e-06
-6.77253e-06
9.13629e-06
-6.83384e-06
9.63417e-06
-6.86e-06
1.01586e-05
-6.85463e-06
1.07126e-05
-6.82111e-06
1.12982e-05
-6.76261e-06
-6.67882e-06
1.08794e-06
-3.70948e-07
2.11475e-06
-1.06592e-06
3.06161e-06
-1.683e-06
3.93135e-06
-2.22389e-06
4.73022e-06
-2.69613e-06
5.46576e-06
-3.10631e-06
6.1466e-06
-3.46014e-06
6.78215e-06
-3.76264e-06
7.38231e-06
-4.01822e-06
7.95708e-06
-4.23081e-06
8.51624e-06
-4.40398e-06
9.0691e-06
-4.541e-06
9.62418e-06
-4.6449e-06
1.01891e-05
-4.71851e-06
1.07704e-05
-4.76452e-06
1.13735e-05
-4.78542e-06
1.20024e-05
-4.7836e-06
1.266e-05
-4.76127e-06
1.33478e-05
-4.72054e-06
-4.66215e-06
1.18482e-06
-1.90501e-07
2.30499e-06
-5.47656e-07
3.34131e-06
-8.65327e-07
4.2977e-06
-1.14436e-06
5.18145e-06
-1.38854e-06
6.0008e-06
-1.60115e-06
6.76489e-06
-1.78505e-06
7.48349e-06
-1.94276e-06
8.16672e-06
-2.07646e-06
8.82471e-06
-2.1881e-06
9.46731e-06
-2.27945e-06
1.01038e-05
-2.35212e-06
1.07428e-05
-2.4076e-06
1.13917e-05
-2.44729e-06
1.2057e-05
-2.47249e-06
1.2744e-05
-2.48444e-06
1.34568e-05
-2.48433e-06
1.41981e-05
-2.47325e-06
1.49693e-05
-2.45227e-06
-2.4221e-06
1.25063e-06
2.43366e-06
3.52952e-06
4.54303e-06
5.48222e-06
6.35588e-06
7.17354e-06
7.94527e-06
8.68142e-06
9.39228e-06
1.00879e-05
1.07775e-05
1.14699e-05
1.21725e-05
1.28918e-05
1.36332e-05
1.44007e-05
1.51971e-05
1.60243e-05
)
;

boundaryField
{
    inlet
    {
        type            calculated;
        value           uniform 0;
    }
    outlet
    {
        type            calculated;
        value           nonuniform 0();
    }
    flap
    {
        type            calculated;
        value           nonuniform 0();
    }
    upperWall
    {
        type            calculated;
        value           nonuniform List<scalar> 
20
(
6.06061e-15
0
0
0
0
5.37445e-15
0
0
0
0
0
0
0
0
0
8.45453e-15
-4.12711e-15
0
-7.86782e-15
0
)
;
    }
    lowerWall
    {
        type            calculated;
        value           nonuniform 0();
    }
    frontAndBack
    {
        type            empty;
        value           nonuniform 0();
    }
    procBoundary0to1
    {
        type            processor;
        value           nonuniform List<scalar> 
18
(
-1.14081e-05
-1.11558e-05
-9.90652e-06
-1.05025e-05
-9.61793e-06
-8.439e-06
-6.96973e-06
-5.21366e-06
-3.18778e-06
-9.2303e-07
1.5345e-06
4.12247e-06
6.76133e-06
9.35371e-06
1.17843e-05
1.39205e-05
1.56136e-05
1.6718e-05
)
;
    }
    procBoundary0to3
    {
        type            processor;
        value           nonuniform List<scalar> 
34
(
1.47476e-06
4.17554e-06
-1.37525e-06
6.74514e-06
-2.10315e-06
9.01539e-06
-2.87162e-06
1.09472e-05
-3.67849e-06
1.25139e-05
-4.51269e-06
1.37067e-05
-5.35822e-06
1.45296e-05
1.45167e-05
-6.86428e-06
1.46707e-05
-7.63323e-06
1.45565e-05
1.3636e-05
-8.85885e-06
1.31778e-05
1.18941e-05
-9.83803e-06
1.13681e-05
-1.03142e-05
1.09144e-05
9.55922e-06
-1.09316e-05
9.35765e-06
8.1235e-06
-1.13365e-05
8.2623e-06
7.18248e-06
)
;
    }
}


// ************************************************************************* //
