/*--------------------------------*- C++ -*----------------------------------*\
| =========                 |                                                 |
| \\      /  F ield         | OpenFOAM: The Open Source CFD Toolbox           |
|  \\    /   O peration     | Version:  dev                                   |
|   \\  /    A nd           | Web:      www.OpenFOAM.org                      |
|    \\/     M anipulation  |                                                 |
\*---------------------------------------------------------------------------*/
FoamFile
{
    version     2.0;
    format      ascii;
    class       volVectorField;
    location    "3";
    object      Force;
}
// * * * * * * * * * * * * * * * * * * * * * * * * * * * * * * * * * * * * * //

dimensions      [1 1 -2 0 0 0 0];

internalField   uniform (0 0 0);

boundaryField
{
    inlet
    {
        type            calculated;
        value           nonuniform 0();
    }
    outlet
    {
        type            calculated;
        value           nonuniform 0();
    }
    flap
    {
        type            calculated;
        value           nonuniform List<vector> 
33
(
(3.71958 1.89009e-17 -0.219209)
(3.66364 4.76488e-18 -0.457588)
(3.59623 3.15501e-22 -0.661953)
(3.51844 1.75276e-17 -0.798975)
(3.4357 -2.65812e-17 -0.882397)
(3.35122 1.68153e-17 -0.921686)
(3.26757 2.56891e-17 -0.925698)
(3.18669 -2.9882e-23 -0.903643)
(3.10372 5.54646e-23 -0.864671)
(3.01097 -1.91641e-24 -0.816798)
(2.89782 -7.90138e-18 -0.764987)
(2.74951 -7.71312e-18 -0.710357)
(2.54457 7.11995e-18 -0.648845)
(2.2436 -1.66035e-21 -0.567326)
(1.75358 4.89624e-18 -0.44273)
(0.13019 9.56318e-18 0.49839)
(0.0682994 -2.37414e-21 0.269601)
(0.0109159 -7.71048e-18 0.0485184)
(-0.119402 1.37016e-17 0.00706241)
(-0.1204 -1.41734e-17 0.0151358)
(-0.121258 1.46606e-17 0.0223747)
(-0.122182 0 0.0276858)
(-0.123408 1.58633e-17 0.0315495)
(-0.125373 2.93874e-39 0.0342571)
(-0.128659 1.37108e-22 0.0361603)
(-0.133853 3.7577e-19 0.037663)
(-0.141308 3.40701e-22 0.0391372)
(-0.150727 6.92093e-25 0.0407849)
(-0.161847 -4.50291e-19 0.0428566)
(-0.174942 -4.86654e-19 0.0456868)
(-0.189548 1.66907e-17 0.0492611)
(-0.203506 -5.66644e-19 0.0529783)
(-0.207032 1.94028e-17 0.0543179)
)
;
    }
    upperWall
    {
        type            calculated;
        value           nonuniform 0();
    }
    lowerWall
    {
        type            calculated;
        value           uniform (0 0 0);
    }
    frontAndBack
    {
        type            empty;
    }
    procBoundary4to1
    {
        type            processor;
        value           uniform (0 0 0);
    }
    procBoundary4to2
    {
        type            processor;
        value           uniform (0 0 0);
    }
    procBoundary4to3
    {
        type            processor;
        value           uniform (0 0 0);
    }
    procBoundary4to5
    {
        type            processor;
        value           uniform (0 0 0);
    }
}


// ************************************************************************* //
