/*--------------------------------*- C++ -*----------------------------------*\
| =========                 |                                                 |
| \\      /  F ield         | OpenFOAM: The Open Source CFD Toolbox           |
|  \\    /   O peration     | Version:  dev                                   |
|   \\  /    A nd           | Web:      www.OpenFOAM.org                      |
|    \\/     M anipulation  |                                                 |
\*---------------------------------------------------------------------------*/
FoamFile
{
    version     2.0;
    format      ascii;
    class       volVectorField;
    location    "3";
    object      U;
}
// * * * * * * * * * * * * * * * * * * * * * * * * * * * * * * * * * * * * * //

dimensions      [0 1 -1 0 0 0 0];

internalField   nonuniform List<vector> 
465
(
(4.01795 0 0.267094)
(3.4831 -4.52517e-20 0.291114)
(2.92809 2.85058e-19 0.315181)
(2.35797 -2.92683e-19 0.338086)
(1.78 -4.07658e-19 0.357758)
(1.20425 -2.04377e-21 0.370131)
(0.646386 2.12476e-19 0.364247)
(0.0982872 0 0.277845)
(-0.207586 2.25736e-19 -0.246369)
(4.92501 -8.48148e-20 0.681327)
(4.40262 -5.80483e-19 0.734997)
(3.85506 8.27332e-19 0.785462)
(3.28635 -9.59482e-20 0.828933)
(2.70251 0 0.859621)
(2.11198 -1.84074e-18 0.867786)
(1.52797 1.87132e-18 0.834092)
(0.922901 3.36141e-18 0.720716)
(0.635881 -7.76566e-18 0.457941)
(5.36205 7.47304e-19 1.11707)
(4.87964 -8.71439e-20 1.21014)
(4.36888 0 1.2991)
(3.83086 0 1.3781)
(3.26719 -1.94241e-18 1.43848)
(2.67854 4.98713e-18 1.46706)
(2.06514 -6.51444e-18 1.44257)
(1.37584 -1.18279e-20 1.34275)
(0.833854 3.93065e-18 1.12064)
(5.61546 0 1.51181)
(5.16804 0 1.64391)
(4.6908 -1.42306e-18 1.7734)
(4.18171 -1.48539e-18 1.89362)
(3.63766 3.01469e-18 1.99524)
(3.05227 0 2.06522)
(2.41854 0 2.0852)
(1.67988 -2.00713e-19 2.04497)
(0.996043 -4.26631e-19 1.91573)
(5.79513 0 1.88043)
(5.37346 0 2.04985)
(4.9213 0 2.2198)
(4.43411 0 2.38376)
(3.90571 2.95827e-18 2.53319)
(3.32594 -6.04457e-18 2.65669)
(2.68652 -2.08405e-19 2.7383)
(1.93873 -2.764e-18 2.76879)
(1.16347 1.37734e-17 2.73288)
(5.95042 0 2.23131)
(5.54759 -2.45624e-18 2.43708)
(5.11396 2.51315e-18 2.64789)
(4.64319 -1.72636e-19 2.85774)
(4.12738 3.22708e-18 3.059)
(3.55519 1.89099e-20 3.2416)
(2.91834 -2.98696e-18 3.38969)
(2.183 6.00874e-18 3.48526)
(1.3396 -6.48572e-18 3.52157)
(6.10487 -1.5234e-19 2.5689)
(5.71725 -3.16678e-19 2.81068)
(5.2985 1.64436e-19 3.06291)
(4.84115 2.87323e-18 3.32029)
(4.33624 -2.75483e-18 3.57574)
(3.77222 -1.75598e-19 3.81956)
(3.13941 1.82355e-19 4.03457)
(2.42154 -9.30971e-20 4.18931)
(1.52045 -6.28323e-18 4.27734)
(6.27034 4.92081e-18 2.8951)
(5.89716 -2.14097e-18 3.17305)
(5.4921 0 3.46726)
(5.04739 0 3.77363)
(4.5531 -8.25719e-20 4.08549)
(3.99699 1.72005e-19 4.39238)
(3.36611 5.39335e-21 4.67571)
(2.66081 0 4.89023)
(1.7043 0 5.02083)
(6.45313 0 3.20968)
(6.09584 -2.23677e-19 3.52425)
(5.70579 2.3759e-18 3.8613)
(5.27496 -2.41866e-18 4.21834)
(4.79239 8.08271e-20 4.58949)
(4.24452 0 4.96329)
(3.61299 -5.36706e-18 5.32019)
(2.91136 5.49891e-18 5.60325)
(1.89481 0 5.78271)
(6.65696 0 3.51086)
(6.31872 -2.26825e-18 3.86239)
(5.9473 2.38278e-18 4.24336)
(5.53392 2.33034e-18 4.65312)
(5.0663 -2.40995e-18 5.08741)
(4.52914 7.70853e-20 5.53489)
(3.89646 0 5.97597)
(3.19025 0 6.34496)
(2.10213 0 6.59688)
(6.88395 -4.33325e-18 3.79558)
(6.56934 2.2432e-18 4.18385)
(6.22208 2.29475e-18 4.60937)
(5.83263 -2.29394e-18 5.07407)
(5.38687 2.36889e-18 5.57638)
(4.86694 -2.45529e-18 6.10703)
(4.2373 4.84409e-18 6.64897)
(3.52306 -5.00301e-18 7.13123)
(2.34446 -5.26491e-18 7.50024)
(7.13491 0 4.05966)
(6.84985 0 4.48341)
(6.53424 0 4.95293)
(6.17834 2.31823e-18 5.47372)
(5.76622 -8.11004e-20 6.04861)
(5.27671 -2.24973e-18 6.67361)
(4.66295 0 7.33929)
(3.94775 -4.76516e-18 7.97557)
(2.6527 9.80234e-18 8.53863)
(7.40966 -1.95331e-18 4.29821)
(7.16098 4.08214e-18 4.75444)
(6.8864 -4.12197e-18 5.26522)
(6.57673 4.01846e-18 5.84028)
(6.21568 -2.0972e-18 6.48908)
(5.77983 -1.27674e-19 7.2179)
(5.21029 1.27375e-19 8.03392)
(4.52351 1.37957e-19 8.88356)
(3.08303 -4.3012e-18 9.78297)
(7.70654 5.85662e-20 4.50593)
(7.50124 0 4.98922)
(7.27801 0 5.535)
(7.0298 0 6.15734)
(6.74317 2.39319e-19 6.87381)
(6.39738 -1.10889e-19 7.70581)
(5.92735 -1.24068e-19 8.69016)
(5.34932 0 9.82842)
(3.74804 -6.07448e-20 11.3693)
(8.02158 -2.34061e-19 4.67764)
(7.86585 1.86974e-18 5.17997)
(7.70346 -1.65757e-18 5.75013)
(7.53205 0 6.40547)
(7.34611 -1.12071e-20 7.17032)
(7.13867 -1.50941e-18 8.08076)
(6.86283 1.56607e-18 9.20738)
(6.59407 1.86248e-19 10.6505)
(4.86293 -2.70137e-18 13.5932)
(0.0394258 0 -0.0319382)
(0.14625 -1.89129e-21 -0.0729421)
(0.306374 -4.38502e-22 -0.0768287)
(0.46429 0 -0.0610809)
(0.59059 -1.53733e-21 -0.03967)
(0.672074 -1.44842e-21 -0.0193965)
(0.709198 0 -0.00345249)
(0.711151 1.01725e-20 0.00712329)
(0.689962 -1.00756e-20 0.0131192)
(0.655678 0 0.0157141)
(0.0483341 -9.71907e-22 -0.0995784)
(0.147942 1.88278e-21 -0.187782)
(0.299893 1.10208e-19 -0.196652)
(0.449669 -1.06139e-19 -0.162104)
(0.573771 -4.67416e-20 -0.113653)
(0.661537 4.35815e-22 -0.066258)
(0.712839 4.75623e-20 -0.0267062)
(0.731983 2.03565e-20 0.00297146)
(0.724496 -8.76413e-22 0.0228523)
(0.700709 -1.44198e-20 0.0341709)
(0.0473555 1.25625e-19 -0.194848)
(0.135557 -2.35505e-19 -0.299348)
(0.265161 2.24128e-19 -0.30292)
(0.385526 -1.0554e-19 -0.248545)
(0.480369 0 -0.175043)
(0.543576 2.91462e-21 -0.103912)
(0.576452 -5.14214e-20 -0.0447413)
(0.58184 4.26735e-20 0.000927417)
(0.565615 -3.86711e-20 0.0330749)
(0.535479 2.89063e-20 0.0522733)
(0.0237258 1.23118e-22 -0.314743)
(0.105301 -1.12385e-20 -0.402896)
(0.214086 0 -0.386048)
(0.302339 -1.0453e-19 -0.308437)
(0.362523 9.80878e-20 -0.212337)
(0.39419 -9.20138e-20 -0.121638)
(0.398476 1.01886e-19 -0.0462194)
(0.371357 0 0.0129105)
(0.327667 0 0.0543875)
(0.272909 4.14263e-20 0.0800277)
(-0.0277755 -2.56743e-19 -0.441454)
(0.0493531 1.26345e-19 -0.494935)
(0.135194 -1.14403e-19 -0.444527)
(0.186134 1.67371e-21 -0.33931)
(0.205619 -9.88316e-20 -0.22094)
(0.196848 -2.15599e-21 -0.112424)
(0.144194 8.64456e-20 -0.0155374)
(0.0652401 1.06679e-20 0.0625545)
(-0.0260985 0 0.110858)
(-0.123173 3.693e-20 0.13901)
(-0.0967851 -2.57584e-19 -0.553859)
(-0.0311436 2.44209e-19 -0.563008)
(0.0215892 0 -0.466614)
(0.022919 -1.08686e-19 -0.324987)
(-0.01287 1.08182e-19 -0.17272)
(-0.116441 6.06239e-21 -0.0221972)
(-0.237282 1.1487e-20 0.0819905)
(-0.345092 -1.07381e-20 0.146287)
(-0.456407 0 0.188527)
(-0.568846 0 0.217048)
(-0.171445 2.64912e-19 -0.629371)
(-0.132671 -2.49951e-19 -0.581553)
(-0.131613 0 -0.418285)
(-0.205422 -1.10075e-19 -0.219338)
(-0.343625 1.07939e-19 -0.0353534)
(-0.487786 6.25312e-21 0.0967597)
(-0.609967 -9.06135e-20 0.178064)
(-0.731846 1.51684e-20 0.233904)
(-0.849656 9.34174e-20 0.272154)
(-0.962793 -3.6907e-20 0.297196)
(-0.245081 -5.51807e-19 -0.638967)
(-0.252222 5.13667e-19 -0.511594)
(-0.327815 -2.49079e-19 -0.279847)
(-0.485671 0 -0.0544883)
(-0.656201 0 0.112229)
(-0.797216 -1.05311e-19 0.213326)
(-0.932879 5.14173e-21 0.281404)
(-1.05992 -6.17538e-21 0.327174)
(-1.17692 7.36596e-20 0.356354)
(-1.28417 -9.42182e-21 0.373287)
(-0.317694 2.89207e-19 -0.554609)
(-0.384123 -2.73241e-19 -0.354102)
(-0.532278 -2.5232e-19 -0.0799458)
(-0.730394 2.43583e-19 0.136042)
(-0.898893 0 0.258452)
(-1.05757 -1.00903e-19 0.339017)
(-1.20157 8.69488e-20 0.390759)
(-1.3299 0 0.421944)
(-1.44349 6.91805e-20 0.4383)
(-1.54399 -3.16056e-20 0.444342)
(-0.39001 3.07365e-19 -0.372621)
(-0.511851 -2.91213e-19 -0.11351)
(-0.707059 2.63406e-19 0.169987)
(-0.913085 -3.76199e-19 0.322942)
(-1.10716 1.19385e-19 0.417869)
(-1.27882 0 0.47349)
(-1.42714 9.36061e-20 0.503247)
(-1.55412 -9.16273e-20 0.515785)
(-1.66311 1.02121e-20 0.516858)
(-1.75727 9.24033e-21 0.510731)
(-0.458191 5.85643e-21 -0.0617051)
(-0.613347 3.11454e-19 0.229954)
(-0.833557 0 0.417584)
(-1.08048 1.24728e-19 0.53193)
(-1.29497 -1.22536e-19 0.58889)
(-1.47358 1.32018e-20 0.611715)
(-1.62126 8.12378e-20 0.614929)
(-1.74384 -1.01898e-19 0.606545)
(-1.84681 0 0.591425)
(-1.93468 -9.28386e-21 0.573134)
(-0.48633 3.60884e-19 0.411366)
(-0.671785 3.10498e-19 0.581003)
(-0.9674 -3.07111e-19 0.704263)
(-1.25039 -1.26129e-19 0.758381)
(-1.47569 1.23856e-19 0.764034)
(-1.65177 -2.62623e-20 0.747333)
(-1.79173 -7.94047e-20 0.721609)
(-1.90554 1.00146e-19 0.691947)
(-2.0001 9.56674e-21 0.6611)
(-2.08057 0 0.631576)
(-0.513342 0 0.985217)
(-0.758889 1.59988e-19 1.00403)
(-1.13961 -1.58732e-19 1.02039)
(-1.4405 -1.24452e-19 0.99059)
(-1.65887 2.4603e-19 0.93192)
(-1.81767 -9.4587e-20 0.871654)
(-1.94002 -4.40347e-20 0.81795)
(-2.0392 4.29674e-20 0.768994)
(-2.1217 -4.51192e-22 0.72415)
(-2.1922 0 0.685049)
(-0.574305 5.96697e-19 1.64501)
(-0.926721 -2.81443e-20 1.49103)
(-1.37411 -1.57699e-19 1.35813)
(-1.66008 0 1.21415)
(-1.84559 3.78222e-20 1.07592)
(-1.96626 -5.06819e-20 0.972041)
(-2.05861 0 0.89711)
(-2.13681 0 0.833888)
(-2.2028 -1.77844e-20 0.777766)
(-2.25916 0 0.731255)
(-0.57813 -2.26319e-19 2.43738)
(-1.09363 -1.81775e-19 2.05107)
(-1.65484 -6.96072e-21 1.71928)
(-1.89604 -5.2563e-20 1.40268)
(-2.01707 5.15656e-20 1.1637)
(-2.07224 0 1.03022)
(-2.1235 0 0.953931)
(-2.17884 8.57358e-21 0.884328)
(-2.22549 -2.39624e-20 0.818589)
(-2.26261 3.18213e-20 0.766237)
(8.36134 3.2541e-19 4.81178)
(8.26136 -2.14624e-19 5.32289)
(8.1687 -1.28876e-18 5.90265)
(8.088 8.63866e-19 6.56872)
(8.02695 -1.06069e-20 7.34643)
(8.0069 0 8.27438)
(8.05308 1.94578e-19 9.42391)
(8.73387 -1.74722e-19 10.8414)
(9.25928 -6.48097e-20 13.7417)
(8.71371 -2.08526e-19 4.90145)
(8.67124 6.31542e-21 5.40877)
(8.6499 1.00539e-18 5.97968)
(8.66064 -8.07104e-19 6.62797)
(8.72195 -3.85415e-19 7.37116)
(8.87333 -3.45058e-19 8.22997)
(9.12209 2.44158e-20 9.23065)
(9.77617 0 10.3206)
(10.3926 1.27892e-19 11.553)
(9.06931 -7.7106e-19 4.94485)
(9.08145 2.13045e-19 5.43607)
(9.12498 1.52177e-18 5.98087)
(9.21279 -7.58211e-19 6.58669)
(9.3625 5.30931e-19 7.25973)
(9.60425 -5.18689e-19 7.99981)
(9.9237 2.81827e-19 8.79346)
(10.427 1.6696e-19 9.61034)
(11.1403 2.17761e-19 10.4664)
(9.41855 -5.61305e-19 4.94241)
(9.47871 -3.60602e-19 5.40769)
(9.5757 8.95998e-19 5.91451)
(9.72098 -3.58088e-19 6.46486)
(9.92774 -1.66703e-19 7.05776)
(10.2164 3.2226e-19 7.68687)
(10.5873 -1.47553e-19 8.33663)
(11.0813 0 9.01268)
(11.8651 -3.37963e-20 9.74865)
(9.85349 -6.9288e-19 5.3308)
(9.9922 4.8617e-21 5.79393)
(10.179 8.12059e-20 6.28591)
(10.4243 -7.74059e-20 6.80291)
(10.743 -1.59889e-19 7.33827)
(11.1444 -4.23007e-21 7.87839)
(11.6355 0 8.41834)
(12.3529 1.15481e-19 8.96089)
(10.5856 0 6.06649)
(10.8546 1.55586e-19 6.5131)
(11.1864 1.4847e-19 6.96368)
(11.5882 -2.62653e-19 7.40454)
(12.0533 2.67377e-19 7.82122)
(12.6819 2.12184e-19 8.20972)
(11.5514 1.44982e-19 6.57704)
(11.9379 1.3271e-19 6.93509)
(12.3712 1.24658e-19 7.26179)
(12.927 0 7.55354)
(12.6161 -1.22513e-19 6.7462)
(13.11 0 6.9717)
(10.1217 -7.55766e-19 12.073)
(6.48395 -2.56222e-19 9.78087)
(0.262461 4.14306e-19 6.81947)
(10.6483 -4.81325e-20 10.0258)
(9.89681 -5.51862e-19 8.82217)
(8.45664 1.53446e-19 7.67084)
(11.6029 0 10.2441)
(11.7777 0 9.8186)
(11.5833 2.59111e-19 9.19882)
(12.3569 -3.58599e-19 9.88606)
(12.7013 -3.66829e-20 9.81307)
(12.8417 -2.17696e-19 9.54232)
(12.785 0 9.11431)
(13.1543 3.57439e-20 9.16114)
(13.4157 -3.53877e-20 9.10092)
(13.057 -3.33619e-20 8.34484)
(13.4076 -3.39177e-19 8.42856)
(13.6922 -3.364e-21 8.45773)
(13.2541 3.48746e-19 7.6643)
(13.5662 -3.48499e-19 7.74587)
(13.8288 3.71842e-20 7.79714)
(13.3954 3.54534e-19 7.05817)
(13.668 -2.20202e-20 7.12498)
(13.8992 -3.31163e-19 7.17308)
(13.733 3.79818e-19 6.56647)
(13.9355 0 6.60644)
(-3.12743 0 3.0352)
(-1.02631 0 2.05944)
(-1.71857 6.63914e-21 1.59831)
(-1.99477 2.61894e-21 1.25291)
(-2.03501 0 1.08688)
(-2.02256 0 1.0473)
(-2.05628 8.72528e-21 1.01245)
(-2.11338 -3.16768e-20 0.932118)
(-2.14833 0 0.846229)
(6.36701 3.74953e-20 5.81891)
(4.82161 1.46256e-21 4.29445)
(2.9126 0 3.09504)
(1.29476 1.73843e-20 2.13403)
(-0.0946618 -2.05933e-21 1.38286)
(-1.08419 -1.3535e-20 1.01405)
(-1.4957 2.12937e-20 0.919713)
(-1.71231 -6.21223e-21 0.841679)
(-1.797 0 0.786331)
(10.7148 -1.21211e-19 7.68518)
(9.49094 -3.19628e-20 6.21619)
(7.95045 0 4.97918)
(6.42878 -4.91672e-21 3.96273)
(5.01045 4.96845e-21 3.12344)
(3.67877 -1.26839e-20 2.43341)
(2.47758 6.87223e-21 1.8769)
(1.41819 0 1.43611)
(0.512614 -3.25768e-21 1.1064)
(12.6875 3.94113e-20 8.53654)
(12.1306 9.93875e-20 7.37078)
(11.2521 2.96245e-20 6.28895)
(10.2203 1.85634e-21 5.33398)
(9.12799 -4.85709e-21 4.494)
(8.00943 4.71583e-21 3.76329)
(6.90135 9.61222e-21 3.13968)
(5.83495 -7.11258e-21 2.61509)
(4.82912 2.98152e-21 2.17789)
(13.6507 0 8.58933)
(13.5752 -4.02603e-20 7.8276)
(13.233 0 7.0086)
(12.687 0 6.21087)
(12.0018 2.43068e-22 5.46)
(11.225 0 4.77192)
(10.3943 -2.30182e-21 4.15545)
(9.53979 5.88952e-21 3.61085)
(8.6837 3.49669e-21 3.13405)
(14.092 -1.69941e-19 8.25261)
(14.301 2.35605e-19 7.81625)
(14.3261 -1.30351e-19 7.26055)
(14.1633 1.03081e-20 6.657)
(13.8424 2.49836e-20 6.04434)
(13.4014 -2.48573e-20 5.44813)
(12.873 3.86388e-21 4.88548)
(12.2838 -5.12416e-21 4.36574)
(11.6555 0 3.89298)
(14.2618 -6.89536e-20 7.74452)
(14.6058 1.45372e-19 7.52246)
(14.8493 2.50557e-20 7.17767)
(14.95 -2.23508e-20 6.75577)
(14.9087 0 6.291)
(14.7477 -2.63411e-22 5.80945)
(14.4899 -7.37835e-21 5.33097)
(14.1554 2.1301e-20 4.8694)
(13.7619 -2.90446e-21 4.43362)
(14.3074 -4.05326e-20 7.18333)
(14.6904 3.85658e-20 7.08449)
(15.0377 -8.34342e-20 6.88578)
(15.2931 1.27085e-19 6.6085)
(15.4393 6.01565e-21 6.27567)
(15.4842 -3.37084e-20 5.90808)
(15.4401 2.80627e-20 5.52345)
(15.3192 -5.50546e-21 5.13591)
(15.1333 -2.50539e-20 4.75607)
(14.3021 0 6.6365)
(14.6745 -7.85258e-20 6.59934)
(15.0511 9.67361e-20 6.48957)
(15.3779 -1.60261e-20 6.31346)
(15.6307 -2.03615e-19 6.08352)
(15.808 9.37252e-20 5.81345)
(15.9136 2.08737e-21 5.51639)
(15.9525 0 5.20415)
(15.9311 3.0945e-20 4.88671)
(14.619 6.10317e-20 6.11967)
(14.9854 1.58056e-19 6.05891)
(15.3304 -1.19823e-19 5.94683)
(15.6299 7.73636e-22 5.78915)
(15.8784 0 5.59372)
(16.0752 0 5.36907)
(16.2204 0 5.12374)
(16.3155 0 4.86578)
(15.5346 1.16619e-19 5.4475)
(15.8116 -2.20133e-19 5.30493)
(16.0541 1.00917e-19 5.13518)
(16.2599 0 4.94393)
(16.4279 6.99107e-20 4.73698)
(15.9397 2.07468e-19 4.85623)
(16.1732 -9.71272e-20 4.70604)
(16.3798 7.82259e-20 4.53983)
(16.2493 -9.10835e-20 4.30493)
)
;

boundaryField
{
    inlet
    {
        type            fixedValue;
        value           nonuniform 0();
    }
    outlet
    {
        type            zeroGradient;
    }
    flap
    {
        type            movingWallVelocity;
        value           nonuniform List<vector> 
33
(
(2.39642e-17 -2.77556e-14 4.07076e-16)
(1.70753e-15 2.22222e-33 1.36644e-14)
(-4.94717e-15 0 -2.68438e-14)
(-6.00292e-15 -2.77556e-14 -2.63901e-14)
(-2.68064e-14 2.77556e-14 -1.04151e-13)
(-1.4225e-14 -2.77556e-14 -5.15888e-14)
(7.20114e-32 -2.77556e-14 -2.04628e-32)
(-5.19874e-16 0 -1.82677e-15)
(0 0 0)
(0 0 0)
(-7.29421e-32 2.77556e-14 1.93738e-32)
(-8.80525e-16 -3.64814e-32 -3.38296e-15)
(2.67959e-14 7.50665e-32 1.04127e-13)
(0 0 0)
(0 0 0)
(1.64078e-15 -2.77556e-14 -4.23127e-16)
(0 0 0)
(-2.68849e-14 2.77556e-14 6.94481e-15)
(-2.04496e-16 -2.77556e-14 -3.45735e-15)
(1.72221e-15 2.77556e-14 1.36607e-14)
(0 -2.77556e-14 0)
(-6.01532e-15 0 -2.63841e-14)
(-1.34165e-14 -2.77556e-14 -5.20531e-14)
(-1.52182e-14 0 -5.51412e-14)
(-1.66743e-14 0 -5.8661e-14)
(2.08054e-15 7.21994e-32 7.30876e-15)
(-2.88158e-14 0 -1.02957e-13)
(0 0 0)
(-1.83061e-15 7.23517e-32 -6.88901e-15)
(-1.76296e-15 7.25414e-32 -6.76934e-15)
(-5.36132e-14 -2.77556e-14 -2.08242e-13)
(-3.41493e-15 1.45644e-31 -1.33381e-14)
(-7.28457e-32 -2.77556e-14 1.86924e-32)
)
;
    }
    upperWall
    {
        type            noSlip;
    }
    lowerWall
    {
        type            noSlip;
    }
    frontAndBack
    {
        type            empty;
    }
    procBoundary4to1
    {
        type            processor;
        value           nonuniform List<vector> 
30
(
(9.75343 -3.41555e-19 4.89776)
(9.75343 -3.41555e-19 4.89776)
(10.2 -4.96773e-19 5.21383)
(10.37 -1.60117e-19 5.63161)
(10.37 -1.60117e-19 5.63161)
(10.9403 0 5.81844)
(11.2201 1.42455e-19 6.20095)
(11.2201 1.42455e-19 6.20095)
(11.8496 0 6.19228)
(12.2153 1.30389e-19 6.485)
(12.2153 1.30389e-19 6.485)
(12.803 0 6.26808)
(13.2432 0 6.44539)
(13.494 3.57944e-19 6.51331)
(13.494 3.57944e-19 6.51331)
(13.7722 0 6.06357)
(13.951 0 6.09637)
(14.2763 0 6.12946)
(14.2763 0 6.12946)
(14.5504 2.07055e-20 5.6665)
(14.8909 1.4645e-19 5.63156)
(15.2258 -1.27232e-19 5.55779)
(15.2258 -1.27232e-19 5.55779)
(15.4021 1.42224e-19 5.09296)
(15.6818 1.07131e-19 4.98641)
(15.6818 1.07131e-19 4.98641)
(15.7867 0 4.55953)
(16.0272 5.92475e-21 4.43977)
(16.0272 5.92475e-21 4.43977)
(16.0842 -5.69006e-21 4.0526)
)
;
    }
    procBoundary4to2
    {
        type            processor;
        value           nonuniform List<vector> 
11
(
(-0.229908 -6.08033e-21 0.887774)
(3.8902 1.13721e-20 1.81088)
(7.84105 7.5128e-21 2.71816)
(11.0054 -1.16018e-20 3.46781)
(13.325 8.25364e-21 4.02874)
(14.8946 1.79635e-20 4.39145)
(15.8567 3.40614e-21 4.57205)
(16.364 0 4.60227)
(16.5586 0 4.51991)
(16.5586 7.69243e-20 4.36169)
(16.4514 -1.04607e-20 4.15795)
)
;
    }
    procBoundary4to3
    {
        type            processor;
        value           nonuniform List<vector> 
19
(
(4.52936 1.64506e-19 0.24387)
(5.41975 -8.1153e-20 0.627017)
(5.8156 1.36015e-18 1.02387)
(6.03478 -1.60925e-20 1.38175)
(6.18974 0 1.71618)
(6.32673 1.507e-19 2.03451)
(6.46598 1.02891e-18 2.34036)
(6.61679 -1.14917e-18 2.63502)
(6.78349 0 2.918)
(6.96826 -3.38576e-20 3.18758)
(7.17226 -2.08211e-18 3.44133)
(7.39581 -2.05306e-18 3.67612)
(7.63839 0 3.88843)
(7.89823 0 4.0745)
(8.17192 -1.14796e-19 4.23064)
(8.46576 1.09651e-19 4.35661)
(8.77054 -8.23848e-19 4.44705)
(9.07976 -1.92287e-19 4.50024)
(9.38644 -1.28987e-18 4.51547)
)
;
    }
    procBoundary4to5
    {
        type            processor;
        value           nonuniform List<vector> 
18
(
(0.61554 2.09383e-21 0.0160565)
(0.667823 -7.23943e-21 0.0391879)
(0.496474 -1.72013e-20 0.0618831)
(0.209494 3.62888e-20 0.0947662)
(-0.227849 1.06293e-20 0.158573)
(-0.682568 -8.86282e-21 0.237432)
(-1.07044 -3.62499e-20 0.313289)
(-1.38181 0 0.381765)
(-1.63288 0 0.443671)
(-1.83947 0 0.500723)
(-2.01136 -2.45137e-20 0.554449)
(-2.15145 -1.64387e-20 0.60541)
(-2.25537 8.10327e-21 0.653116)
(-2.31091 3.13326e-20 0.695923)
(-2.29777 0 0.730549)
(-2.16367 -2.06164e-20 0.785626)
(-2.16367 -2.06164e-20 0.785626)
(-1.82259 1.93941e-20 0.767109)
)
;
    }
}


// ************************************************************************* //
