/*--------------------------------*- C++ -*----------------------------------*\
| =========                 |                                                 |
| \\      /  F ield         | OpenFOAM: The Open Source CFD Toolbox           |
|  \\    /   O peration     | Version:  dev                                   |
|   \\  /    A nd           | Web:      www.OpenFOAM.org                      |
|    \\/     M anipulation  |                                                 |
\*---------------------------------------------------------------------------*/
FoamFile
{
    version     2.0;
    format      ascii;
    class       volVectorField;
    location    "0.39";
    object      U;
}
// * * * * * * * * * * * * * * * * * * * * * * * * * * * * * * * * * * * * * //

dimensions      [0 1 -1 0 0 0 0];

internalField   nonuniform List<vector> 
465
(
(7.3542 -4.87193e-20 4.70284)
(7.82731 4.75774e-20 4.47177)
(8.5599 -2.46183e-20 4.27305)
(8.97167 4.50297e-20 4.04283)
(9.41323 3.7864e-20 3.67504)
(9.85257 -2.39044e-20 3.15212)
(10.2678 1.00558e-20 4.01919)
(10.4727 0 3.70949)
(10.7678 0 3.31137)
(11.108 -1.20806e-20 2.79553)
(11.4523 1.24457e-20 2.14866)
(12.4951 -2.30349e-23 4.02588)
(12.5024 0 3.59393)
(12.6147 -5.14762e-21 3.11387)
(12.8027 -1.06781e-20 2.55737)
(13.0334 0 1.90616)
(13.2761 -6.06494e-22 1.15491)
(13.5078 -2.33642e-20 0.305731)
(14.7615 1.12461e-20 4.1392)
(14.7163 -8.88221e-21 3.61608)
(14.7447 4.93248e-21 3.05727)
(14.8391 1.27943e-20 2.44326)
(14.9843 2.70107e-21 1.75824)
(15.1617 -2.59851e-20 0.991868)
(15.3623 5.27445e-21 0.134809)
(15.5728 1.45982e-20 -0.803781)
(15.7472 -2.03489e-20 -1.79119)
(16.606 1.60645e-20 4.19733)
(16.622 -1.58392e-20 3.62957)
(16.6716 -4.10194e-21 3.02356)
(16.7572 9.09418e-21 2.36751)
(16.8743 -8.97325e-21 1.65059)
(17.0116 9.68827e-21 0.864082)
(17.164 0 0.00329041)
(17.2803 -3.17364e-20 -0.914031)
(17.3426 -2.08828e-20 -1.85675)
(17.3293 -2.1066e-20 -2.79276)
(17.8414 0 4.13738)
(17.9546 2.79825e-20 3.56235)
(18.0688 -2.17306e-20 2.94265)
(18.1873 0 2.27243)
(18.3075 -7.61593e-21 1.5465)
(18.4205 0 0.762069)
(18.5132 0 -0.0755618)
(18.5449 2.45448e-20 -0.946621)
(18.5044 8.34108e-21 -1.82648)
(18.376 0 -2.68849)
(18.1469 6.37049e-21 -3.50489)
(17.8114 -5.01278e-21 -4.24811)
(18.4883 0 3.962)
(18.6858 -2.40578e-20 3.40663)
(18.8617 -4.96592e-21 2.80179)
(19.0165 -1.23757e-21 2.14612)
(19.1458 2.81527e-20 1.43965)
(19.2412 -6.6394e-21 0.685943)
(19.2879 -1.40671e-20 -0.103988)
(19.2591 1.39607e-22 -0.911865)
(19.1475 3.31532e-22 -1.7185)
(18.9432 1.25624e-20 -2.50235)
(18.6395 0 -3.24035)
(18.2363 0 -3.90977)
(17.7397 7.70738e-21 -4.49023)
(18.6673 3.8319e-20 3.70244)
(18.9178 -2.20149e-20 3.18394)
(19.1336 2.16705e-20 2.61468)
(19.3116 -2.37221e-20 1.99632)
(19.4457 8.38087e-21 1.33256)
(19.5274 3.03396e-20 0.630919)
(19.5451 -1.84496e-20 -0.0957042)
(19.4815 4.12645e-20 -0.831555)
(19.332 -2.79745e-20 -1.56122)
(19.0911 0 -2.26725)
(18.7562 -1.91247e-20 -2.93061)
(18.3299 2.72098e-20 -3.53253)
(17.82 -8.61469e-21 -4.05626)
(17.2386 -5.57259e-23 -4.48832)
(16.6013 -6.50871e-21 -4.81954)
(18.5268 2.96386e-21 3.39688)
(18.7985 -7.2076e-20 2.92401)
(19.0298 -2.30109e-21 2.40244)
(19.2153 4.07592e-20 1.83545)
(19.3479 -5.09384e-21 1.22853)
(19.4195 2.071e-20 0.59064)
(19.4216 -2.59331e-20 -0.0656912)
(19.3435 2.52538e-20 -0.727103)
(19.1822 -3.77128e-20 -1.38078)
(18.9347 9.99303e-21 -2.01237)
(18.6008 0 -2.60619)
(18.1843 -8.33619e-21 -3.14668)
(17.6931 0 -3.61988)
(17.1385 6.56243e-21 -4.01442)
(16.5348 9.75619e-21 -4.32234)
(15.8979 -4.93412e-21 -4.53957)
(18.2003 -2.9698e-20 3.07802)
(18.4689 2.9174e-20 2.65324)
(18.697 3.29825e-20 2.18409)
(18.8777 -6.88149e-20 1.67434)
(19.0038 3.59043e-20 1.12989)
(19.0678 -4.0535e-21 0.559387)
(19.0637 0 -0.025997)
(18.9846 0 -0.614985)
(18.8282 -1.17776e-20 -1.19666)
(18.5929 2.42255e-20 -1.75899)
(18.2799 1.41499e-20 -2.28895)
(17.8929 -2.01519e-20 -2.77361)
(17.4392 0 -3.20121)
(16.9288 0 -3.56203)
(16.374 -8.51186e-21 -3.84899)
(15.7886 8.36883e-21 -4.05811)
(15.1871 0 -4.18862)
(14.5837 -2.04024e-21 -4.24281)
(17.7861 -2.44759e-20 2.76782)
(18.0376 2.43708e-20 2.38978)
(18.251 0 1.97267)
(18.4195 2.70818e-20 1.52015)
(18.5362 -2.99329e-20 1.03769)
(18.5945 3.02062e-20 0.532848)
(18.5895 -2.92153e-20 0.0151306)
(18.517 0 -0.505992)
(18.3744 0 -1.02112)
(18.1611 0 -1.52004)
(17.8784 3.01073e-20 -1.99183)
(17.53 -2.86735e-20 -2.42569)
(17.1219 2.56839e-20 -2.81165)
(16.6627 -5.39801e-21 -3.14133)
(16.1628 0 -3.40839)
(15.6338 -9.27727e-21 -3.60894)
(15.0882 1.08496e-20 -3.74163)
(14.5381 -8.05348e-22 -3.80763)
(13.9945 0 -3.8103)
(17.3455 -2.09465e-20 2.4777)
(17.5736 2.02328e-20 2.14319)
(17.7675 6.48537e-22 1.77501)
(17.9206 1.59734e-21 1.37638)
(18.0269 1.64615e-21 0.952041)
(18.0807 3.34917e-21 0.508288)
(18.0772 0 0.0529692)
(18.0146 0 -0.406035)
(17.8893 2.7664e-21 -0.860529)
(17.7014 0 -1.30183)
(17.4519 -5.74187e-21 -1.72078)
(17.144 -1.90285e-20 -2.10829)
(16.7827 -3.24946e-21 -2.45591)
(16.3752 2.37781e-20 -2.75637)
(15.93 -7.37975e-21 -3.00399)
(15.4569 8.4371e-21 -3.19499)
(14.9665 -5.24178e-21 -3.32764)
(14.4691 -4.11244e-22 -3.40219)
(13.9745 0 -3.42075)
(13.4987 -1.72795e-21 -3.38657)
(16.9101 -1.69983e-20 2.21157)
(17.1141 1.66831e-20 1.91681)
(17.2876 1.86577e-20 1.59334)
(17.4252 1.14801e-21 1.24391)
(17.5214 9.01502e-22 0.872465)
(17.5714 -2.15358e-20 0.484167)
(17.5707 2.0992e-20 0.0853241)
(17.5182 -2.05552e-20 -0.3175)
(17.4107 -2.71525e-21 -0.717173)
(17.2477 0 -1.10633)
(17.0305 -1.77252e-20 -1.4773)
(16.7613 1.06734e-21 -1.82244)
(16.4444 3.42987e-20 -2.13458)
(16.0856 -1.48819e-20 -2.40742)
(15.6919 1.11475e-20 -2.63587)
(15.2715 -1.33354e-20 -2.81633)
(14.8333 0 -2.94678)
(14.3861 -3.67745e-22 -3.02682)
(13.9382 0 -3.05754)
(13.5036 0 -3.04104)
(12.9622 6.5242e-22 -2.984)
(16.4941 2.47484e-20 1.96924)
(16.6755 0 1.71048)
(16.8302 1.5976e-20 1.42736)
(16.9534 -1.56923e-20 1.1222)
(17.0404 0 0.798233)
(17.0871 1.17744e-21 0.459657)
(17.0896 -1.76264e-20 0.111527)
(17.0467 3.66634e-20 -0.240733)
(16.9556 -3.38426e-20 -0.59104)
(16.8158 4.12012e-22 -0.933124)
(16.6281 3.08519e-20 -1.26057)
(16.3944 -1.14307e-20 -1.56695)
(16.1181 -3.53976e-21 -1.84621)
(15.8037 -3.16391e-21 -2.0929)
(15.4571 2.42573e-21 -2.3025)
(15.0852 2.33986e-21 -2.47158)
(14.6951 1.6938e-21 -2.59798)
(14.2945 -5.61714e-21 -2.68081)
(13.8907 -3.58166e-21 -2.72037)
(13.4953 1.16288e-21 -2.71784)
(13.0002 -1.71148e-22 -2.67813)
(16.1029 1.98252e-20 1.74886)
(16.2643 -2.45741e-20 1.52256)
(16.4023 2.44807e-20 1.27569)
(16.5127 0 1.01015)
(16.5917 1.43378e-20 0.728578)
(16.6356 -1.40909e-20 0.434375)
(16.6411 0 0.131609)
(16.607 1.26269e-20 -0.175259)
(16.5307 -8.4488e-23 -0.481167)
(16.4118 -2.59311e-20 -0.780815)
(16.2506 1.33433e-20 -1.06881)
(16.0487 -3.30649e-21 -1.33978)
(15.8087 -2.63684e-21 -1.58859)
(15.5344 0 -1.81057)
(15.2303 -2.37896e-21 -2.0017)
(14.9022 6.96902e-21 -2.1588)
(14.5561 -9.83848e-21 -2.27962)
(14.1984 2.07163e-21 -2.36294)
(13.8354 2.28878e-21 -2.40848)
(13.4769 -1.06515e-21 -2.41667)
(13.0257 5.05156e-22 -2.39101)
(15.7387 -1.56349e-20 1.54806)
(15.8826 -1.9901e-20 1.35102)
(16.006 -2.30489e-21 1.13664)
(16.1054 -1.67421e-21 0.906502)
(16.1775 2.30111e-20 0.662739)
(16.2191 6.88877e-22 0.408087)
(16.2275 0 0.145829)
(16.2011 0 -0.120375)
(16.1381 1.19661e-20 -0.386378)
(16.0377 -1.32971e-20 -0.647759)
(15.9 0 -0.900013)
(15.7264 1.21831e-21 -1.13864)
(15.5188 2.5855e-21 -1.3593)
(15.2802 0 -1.55798)
(15.0143 -7.15511e-21 -1.73114)
(14.7256 1.15078e-20 -1.87585)
(14.4193 -9.78003e-21 -1.98988)
(14.1007 6.35906e-21 -2.07177)
(13.7752 1.28236e-21 -2.12081)
(13.4511 1.40881e-21 -2.1369)
(13.041 -4.11446e-22 -2.12241)
(15.4021 1.21731e-20 1.36449)
(15.5309 -2.11053e-22 1.19379)
(15.6418 0 1.00856)
(15.7318 2.55108e-22 0.810058)
(15.798 -1.08012e-22 0.600014)
(15.8379 -6.75009e-22 0.380626)
(15.8488 2.04795e-20 0.15453)
(15.8295 -2.00959e-20 -0.07528)
(15.7782 1.16805e-21 -0.305438)
(15.6942 0 -0.532308)
(15.5774 0 -0.752167)
(15.4287 -2.22699e-21 -0.961259)
(15.2498 -7.87671e-21 -1.1559)
(15.0428 6.74652e-22 -1.33265)
(14.8108 6.91706e-21 -1.48841)
(14.5575 1.50523e-21 -1.6205)
(14.287 0 -1.72678)
(14.0038 -9.78113e-22 -1.80565)
(13.7125 -3.16082e-22 -1.85611)
(13.4201 -1.092e-21 -1.87767)
(13.0482 -4.59309e-23 -1.87181)
(15.0935 -9.17116e-21 1.19585)
(15.2095 2.06963e-22 1.04891)
(15.3097 -1.39426e-20 0.889823)
(15.3918 1.32243e-20 0.719615)
(15.4532 -9.1274e-23 0.539673)
(15.4916 0 0.35175)
(15.505 0 0.157953)
(15.4919 0 -0.0392846)
(15.451 -1.14413e-21 -0.237258)
(15.3814 0 -0.433006)
(15.283 8.7158e-21 -0.623465)
(15.1563 -6.62655e-21 -0.805523)
(15.0026 8.13296e-22 -0.976091)
(14.8236 0 -1.13221)
(14.6216 0 -1.27116)
(14.3996 0 -1.39054)
(14.1611 -9.46113e-22 -1.48831)
(13.9097 -7.49371e-22 -1.56284)
(13.6492 -5.50836e-22 -1.61297)
(13.3858 0 -1.63791)
(13.049 -3.78522e-22 -1.63848)
(14.8134 -8.32015e-21 1.04014)
(14.9184 8.0333e-21 0.914632)
(15.0097 0 0.779042)
(15.085 2.0068e-22 0.634189)
(15.1424 -4.31628e-22 0.481172)
(15.1798 1.36015e-20 0.321381)
(15.1954 -1.37461e-20 0.156486)
(15.1879 1.37701e-20 -0.0115504)
(15.1562 -1.3884e-20 -0.180579)
(15.0992 -8.01624e-22 -0.348215)
(15.0169 -1.26465e-22 -0.511952)
(14.9095 -6.93083e-21 -0.669232)
(14.7778 4.58219e-21 -0.817484)
(14.6233 6.31852e-22 -0.954178)
(14.4477 -1.12744e-21 -1.07693)
(14.2534 -2.8718e-21 -1.1836)
(14.0431 7.02528e-21 -1.2723)
(13.82 -2.34717e-21 -1.34145)
(13.5873 5.38904e-22 -1.38977)
(13.35 -3.09109e-22 -1.41631)
(13.045 0 -1.42143)
(14.5619 -3.47335e-23 0.895241)
(14.6577 -7.25765e-21 0.789107)
(14.7414 -1.33702e-21 0.674675)
(14.8113 8.4509e-21 0.552587)
(14.8654 -1.01788e-20 0.423706)
(14.9021 -8.31848e-22 0.289119)
(14.9198 1.12755e-20 0.150134)
(14.9173 -1.13576e-20 0.00831907)
(14.8935 -2.28023e-22 -0.134629)
(14.8476 1.29611e-20 -0.276802)
(14.7792 4.79002e-21 -0.416181)
(14.6885 -4.71639e-21 -0.550676)
(14.576 6.76521e-22 -0.678151)
(14.4428 -5.02183e-21 -0.796465)
(14.2901 2.02283e-21 -0.903569)
(14.1199 6.16676e-21 -0.997575)
(13.9344 -5.16469e-21 -1.07677)
(13.7362 2.661e-21 -1.13963)
(13.528 -4.15731e-22 -1.1849)
(13.3141 8.97663e-23 -1.21154)
(13.0377 2.08522e-22 -1.21956)
(14.3393 -2.72742e-21 0.759675)
(14.4275 -1.25547e-23 0.671141)
(14.505 -8.25989e-23 0.575853)
(14.5703 0 0.474309)
(14.6218 -8.5516e-21 0.367178)
(14.6581 -5.43884e-22 0.255299)
(14.6777 9.11017e-21 0.139688)
(14.6794 -2.75777e-22 0.021559)
(14.6626 9.80187e-21 -0.0977661)
(14.6262 -9.97955e-21 -0.216767)
(14.5698 4.68955e-21 -0.333834)
(14.4935 -5.12834e-21 -0.44728)
(14.3974 0 -0.555349)
(14.2824 0 -0.65626)
(14.1495 -4.72926e-22 -0.748275)
(14.0001 0 -0.82975)
(13.8361 -2.34724e-21 -0.899146)
(13.6595 2.7914e-21 -0.955066)
(13.4728 4.06543e-22 -0.99629)
(13.2795 0 -1.0218)
(13.0283 1.13201e-22 -1.03139)
(14.146 2.14389e-23 0.63105)
(14.2278 -3.93578e-21 0.558562)
(14.3002 -1.12865e-21 0.480662)
(14.3618 4.95437e-21 0.39773)
(14.4113 -2.14507e-23 0.310272)
(14.4474 -2.41688e-22 0.218927)
(14.4687 -4.74303e-22 0.124469)
(14.4743 4.53722e-21 0.0278096)
(14.4633 -3.95877e-21 -0.0700181)
(14.4349 -5.12835e-22 -0.16782)
(14.3886 -3.9767e-21 -0.26432)
(14.3244 7.76325e-21 -0.358176)
(14.2422 -3.72437e-21 -0.447976)
(14.1426 -3.24376e-21 -0.532266)
(14.0264 3.1811e-21 -0.609596)
(13.8947 -3.15048e-22 -0.678562)
(13.7489 0 -0.737834)
(13.5909 -5.07745e-23 -0.786169)
(13.4226 0 -0.822451)
(13.2471 0 -0.845724)
(13.0178 -2.10505e-22 -0.855663)
(13.9821 1.49947e-21 0.509128)
(14.0589 -4.0955e-21 0.451427)
(14.1272 -1.01852e-21 0.3895)
(14.1859 3.52065e-21 0.323625)
(14.2338 -8.65845e-23 0.254179)
(14.2698 2.88997e-21 0.181633)
(14.2926 -2.70153e-21 0.106563)
(14.3014 -2.23168e-22 0.0296455)
(14.2953 3.45267e-21 -0.0483507)
(14.2736 3.0905e-22 -0.126529)
(14.2357 -3.39144e-21 -0.203904)
(14.1814 4.43732e-22 -0.279429)
(14.1107 0 -0.351994)
(14.0239 0 -0.420438)
(13.9216 0 -0.483577)
(13.8045 5.84163e-22 -0.540247)
(13.674 -2.33743e-22 -0.589327)
(13.5314 2.7784e-22 -0.629751)
(13.3785 -1.17294e-21 -0.660536)
(13.218 4.81829e-22 -0.680822)
(13.0072 9.75966e-23 -0.690246)
(13.8484 -5.98703e-22 0.389931)
(13.9212 2.6968e-22 0.345937)
(13.9863 1.32736e-21 0.298767)
(14.0428 -1.27957e-21 0.24862)
(14.0895 -2.12956e-21 0.19576)
(14.1254 2.16622e-21 0.140525)
(14.1494 -7.41379e-23 0.083322)
(14.1608 -2.84258e-21 0.0246347)
(14.1586 2.78626e-21 -0.034962)
(14.1422 0 -0.0948047)
(14.1109 0 -0.154156)
(14.0646 0 -0.212228)
(14.0031 -2.67646e-21 -0.268182)
(13.9264 1.59709e-22 -0.321133)
(13.8351 2.55612e-21 -0.37017)
(13.7298 -2.69922e-22 -0.414384)
(13.6114 4.3688e-22 -0.452872)
(13.4813 1.68172e-22 -0.484763)
(13.3408 0 -0.509251)
(13.1924 0 -0.525615)
(12.9967 -4.01349e-23 -0.533523)
(13.7455 -2.09863e-24 0.276367)
(13.8153 0 0.24535)
(13.878 9.52517e-24 0.212116)
(13.9328 1.35006e-21 0.176796)
(13.9786 3.87886e-22 0.139565)
(14.0145 3.06872e-22 0.100644)
(14.0395 -1.91924e-21 0.0602998)
(14.0528 6.99553e-23 0.0188374)
(14.0536 0 -0.0233814)
(14.0412 0 -0.0659128)
(14.0151 -2.58382e-21 -0.108242)
(13.9748 2.38017e-21 -0.149806)
(13.9201 0 -0.190002)
(13.8511 0 -0.22819)
(13.768 -1.35946e-22 -0.263712)
(13.6713 0 -0.295891)
(13.5618 -2.98281e-22 -0.324033)
(13.4406 -7.21577e-22 -0.347461)
(13.3091 4.63438e-22 -0.365549)
(13.1692 2.11508e-22 -0.377708)
(12.9838 9.65293e-23 -0.383579)
(13.6733 4.03891e-22 0.159858)
(13.7408 2.10874e-25 0.141251)
(13.8018 3.46537e-22 0.121316)
(13.8552 -3.45447e-22 0.100128)
(13.9003 0 0.0777875)
(13.9359 2.69349e-23 0.0544246)
(13.9614 -1.02497e-21 0.0302076)
(13.9757 9.08635e-22 0.00534986)
(13.9779 0 -0.0199052)
(13.9672 0 -0.0453154)
(13.9431 0 -0.0705962)
(13.9051 7.88975e-23 -0.095419)
(13.8529 0 -0.119422)
(13.7864 1.06733e-21 -0.142221)
(13.7058 -1.88792e-21 -0.163417)
(13.6116 8.86329e-22 -0.182595)
(13.5044 9.24783e-23 -0.199323)
(13.3853 0 -0.213182)
(13.2556 -2.94867e-22 -0.223781)
(13.1175 6.95411e-23 -0.230762)
(12.9348 1.74666e-23 -0.233966)
(13.3574 2.23636e-22 0.0506311)
(13.4183 -2.06666e-25 0.04424)
(13.4725 -3.2503e-24 0.0373758)
(13.5191 -2.42284e-22 0.0300615)
(13.5571 2.37413e-22 0.0223311)
(13.5855 -4.00802e-22 0.0142332)
(13.6036 8.79671e-22 0.00584055)
(13.6104 -4.50001e-22 -0.00273278)
(13.6053 0 -0.0113814)
(13.5875 0 -0.0200453)
(13.5565 5.48513e-22 -0.0286474)
(13.5118 -1.00496e-21 -0.0370868)
(13.4531 5.25686e-22 -0.0452464)
(13.3804 -6.24989e-23 -0.0529977)
(13.2937 2.14177e-22 -0.0602041)
(13.1937 -2.10081e-22 -0.0667204)
(13.0808 0 -0.0723944)
(12.9563 1.22265e-22 -0.0770757)
(12.8216 -7.6268e-23 -0.080626)
(12.6784 -2.09799e-23 -0.0829203)
(12.4898 -4.3756e-24 -0.0840641)
)
;

boundaryField
{
    inlet
    {
        type            fixedValue;
        value           nonuniform 0();
    }
    outlet
    {
        type            zeroGradient;
    }
    flap
    {
        type            movingWallVelocity;
        value           nonuniform 0();
    }
    upperWall
    {
        type            noSlip;
    }
    lowerWall
    {
        type            noSlip;
    }
    frontAndBack
    {
        type            empty;
    }
    procBoundary2to1
    {
        type            processor;
        value           nonuniform List<vector> 
17
(
(17.5032 0 3.10469)
(17.0891 0 2.77662)
(16.6811 0 2.47593)
(16.2906 2.52333e-20 2.20222)
(15.9221 2.92955e-21 1.95337)
(15.5777 -1.59452e-20 1.72676)
(15.2582 0 1.5198)
(14.9643 -9.26324e-21 1.32998)
(14.6967 -1.8776e-23 1.15503)
(14.4558 2.97827e-23 0.992644)
(14.2421 -2.80649e-21 0.841115)
(14.0561 0 0.697866)
(13.8981 1.10614e-21 0.562406)
(13.7691 -1.25434e-21 0.430609)
(13.6697 0 0.305075)
(13.6 4.04455e-22 0.177087)
(13.2906 3.7077e-22 0.0565348)
)
;
    }
    procBoundary2to4
    {
        type            processor;
        value           nonuniform List<vector> 
11
(
(6.88392 0 4.79176)
(8.22086 -2.03774e-20 4.3959)
(10.2005 -1.02429e-20 4.28354)
(12.6111 0 4.44299)
(14.877 1.23428e-22 4.64638)
(16.614 -2.81161e-20 4.73754)
(17.7214 -2.41611e-20 4.67267)
(18.2658 7.99719e-23 4.46914)
(18.3832 3.8915e-20 4.16932)
(18.2193 -3.29414e-20 3.8192)
(17.8971 -9.46661e-23 3.45625)
)
;
    }
    procBoundary2to5
    {
        type            processor;
        value           nonuniform List<vector> 
34
(
(6.27969 1.24734e-20 5.11533)
(6.70026 0 4.85792)
(8.28964 -6.61585e-20 4.08353)
(8.28964 -6.61585e-20 4.08353)
(8.73064 6.56908e-20 3.526)
(10.2622 4.07053e-20 2.4687)
(10.2622 4.07053e-20 2.4687)
(11.7662 3.79152e-20 1.3762)
(11.7662 3.79152e-20 1.3762)
(12.0192 0 0.501778)
(13.7611 -2.27551e-20 -0.635374)
(13.7611 -2.27551e-20 -0.635374)
(13.9971 -1.03766e-20 -1.64548)
(15.8645 -1.91605e-20 -2.79111)
(15.8645 -1.91605e-20 -2.79111)
(17.2197 -1.60332e-20 -3.68912)
(17.2197 -1.60332e-20 -3.68912)
(16.9998 3.03078e-20 -4.5122)
(17.3719 -1.12234e-20 -4.89296)
(17.3719 -1.12234e-20 -4.89296)
(17.1612 8.63102e-21 -4.96539)
(17.1612 8.63102e-21 -4.96539)
(16.5175 7.30516e-21 -5.32433)
(15.9262 4.74518e-21 -5.04565)
(15.9262 4.74518e-21 -5.04565)
(15.2445 3.12615e-21 -4.66605)
(15.2445 3.12615e-21 -4.66605)
(14.5912 -3.07962e-21 -4.70543)
(13.9908 -2.01008e-21 -4.2256)
(13.9908 -2.01008e-21 -4.2256)
(13.4765 1.79556e-22 -3.7543)
(13.4765 1.79556e-22 -3.7543)
(12.9092 2.99804e-22 -3.30848)
(12.9092 2.99804e-22 -3.30848)
)
;
    }
}


// ************************************************************************* //
