/*--------------------------------*- C++ -*----------------------------------*\
| =========                 |                                                 |
| \\      /  F ield         | OpenFOAM: The Open Source CFD Toolbox           |
|  \\    /   O peration     | Version:  dev                                   |
|   \\  /    A nd           | Web:      www.OpenFOAM.org                      |
|    \\/     M anipulation  |                                                 |
\*---------------------------------------------------------------------------*/
FoamFile
{
    version     2.0;
    format      ascii;
    class       volVectorField;
    location    "1.98";
    object      Force;
}
// * * * * * * * * * * * * * * * * * * * * * * * * * * * * * * * * * * * * * //

dimensions      [1 1 -2 0 0 0 0];

internalField   uniform (0 0 0);

boundaryField
{
    inlet
    {
        type            calculated;
        value           nonuniform 0();
    }
    outlet
    {
        type            calculated;
        value           nonuniform 0();
    }
    flap
    {
        type            calculated;
        value           nonuniform List<vector> 
33
(
(2.56975 2.09763e-17 -0.247068)
(2.48972 6.31632e-18 -0.573714)
(2.31846 -3.42677e-21 -0.856433)
(2.08126 2.35099e-38 -1.03394)
(1.82432 1.24896e-38 -1.11949)
(1.5811 1.88751e-17 -1.13781)
(1.36806 1.83099e-17 -1.11279)
(1.19029 -8.38771e-18 -1.06281)
(1.04294 7.64704e-18 -0.998569)
(0.918713 -1.65659e-17 -0.924815)
(0.810248 -1.07706e-22 -0.843131)
(0.708303 1.53009e-17 -0.751536)
(0.60306 1.44575e-17 -0.645787)
(0.484005 3.84021e-18 -0.518323)
(0.33647 -9.16848e-22 -0.359809)
(0.592964 8.81621e-39 0.543583)
(0.37557 2.68694e-21 0.345214)
(0.164333 -8.31919e-18 0.151912)
(0.0322672 1.09889e-17 -0.00318664)
(0.0320583 1.1309e-17 -0.00748979)
(0.0315038 -1.00353e-19 -0.0118022)
(0.0306829 -2.74107e-23 -0.0153976)
(0.0297303 1.29356e-17 -0.0184287)
(0.0287675 1.33136e-17 -0.0209205)
(0.0278702 1.37705e-17 -0.0229185)
(0.0270213 -1.98494e-22 -0.0244295)
(0.0261793 -1.57281e-22 -0.0254295)
(0.0252456 2.94017e-22 -0.0258418)
(0.0241356 -1.64993e-22 -0.0255949)
(0.0229767 3.16506e-23 -0.0248783)
(0.021778 1.46937e-39 -0.0237564)
(0.0212684 1.72675e-19 -0.0227587)
(0.0277402 -2.17159e-19 -0.0298338)
)
;
    }
    upperWall
    {
        type            calculated;
        value           nonuniform 0();
    }
    lowerWall
    {
        type            calculated;
        value           uniform (0 0 0);
    }
    frontAndBack
    {
        type            empty;
    }
    procBoundary4to1
    {
        type            processor;
        value           uniform (0 0 0);
    }
    procBoundary4to2
    {
        type            processor;
        value           uniform (0 0 0);
    }
    procBoundary4to3
    {
        type            processor;
        value           uniform (0 0 0);
    }
    procBoundary4to5
    {
        type            processor;
        value           uniform (0 0 0);
    }
}


// ************************************************************************* //
