/*--------------------------------*- C++ -*----------------------------------*\
| =========                 |                                                 |
| \\      /  F ield         | OpenFOAM: The Open Source CFD Toolbox           |
|  \\    /   O peration     | Version:  dev                                   |
|   \\  /    A nd           | Web:      www.OpenFOAM.org                      |
|    \\/     M anipulation  |                                                 |
\*---------------------------------------------------------------------------*/
FoamFile
{
    version     2.0;
    format      ascii;
    class       volVectorField;
    location    "0.33";
    object      Force;
}
// * * * * * * * * * * * * * * * * * * * * * * * * * * * * * * * * * * * * * //

dimensions      [1 1 -2 0 0 0 0];

internalField   uniform (0 0 0);

boundaryField
{
    inlet
    {
        type            calculated;
        value           uniform (0 0 0);
    }
    outlet
    {
        type            calculated;
        value           uniform (0 0 0);
    }
    flap
    {
        type            calculated;
        value           nonuniform List<vector> 
33
(
(2.44629 1.46937e-39 -0.116215)
(2.40328 8.32411e-22 -0.206271)
(2.36917 9.6574e-23 -0.252756)
(2.33711 -8.85212e-22 -0.255699)
(2.30827 1.57955e-18 -0.229262)
(2.28124 -1.73505e-17 -0.182374)
(2.25174 7.7307e-19 -0.12422)
(2.21421 7.59868e-19 -0.0666604)
(2.16471 -1.85321e-19 -0.0151374)
(2.09745 1.59416e-17 0.0230185)
(1.99979 -1.61695e-17 0.0432574)
(1.85004 1.63663e-17 0.0447622)
(1.61685 -1.80173e-23 0.0354762)
(1.243 -3.29546e-17 0.0255184)
(0.550558 -1.65247e-17 0.0154455)
(-0.0172154 7.9926e-18 1.59333)
(-0.0199114 -1.17124e-19 1.38801)
(-0.0126995 8.05981e-18 1.10378)
(1.45976 -4.15866e-23 -0.0678535)
(1.4842 -1.02954e-18 -0.128362)
(1.50811 -1.59497e-17 -0.160854)
(1.54201 1.85166e-17 -0.168625)
(1.58803 9.1193e-25 -0.156432)
(1.64718 -2.18852e-23 -0.130076)
(1.71341 1.82386e-17 -0.0937885)
(1.77598 1.70788e-17 -0.0526277)
(1.82763 7.45976e-24 -0.0130361)
(1.85998 2.52548e-40 0.0212087)
(1.86995 6.61056e-23 0.0410589)
(1.86135 1.61057e-17 0.0429788)
(1.84016 1.60118e-22 0.0358862)
(1.81008 -1.73567e-23 0.0290215)
(1.7721 1.60588e-17 0.0249902)
)
;
    }
    upperWall
    {
        type            calculated;
        value           uniform (0 0 0);
    }
    lowerWall
    {
        type            calculated;
        value           uniform (0 0 0);
    }
    frontAndBack
    {
        type            empty;
    }
}


// ************************************************************************* //
