/*--------------------------------*- C++ -*----------------------------------*\
| =========                 |                                                 |
| \\      /  F ield         | OpenFOAM: The Open Source CFD Toolbox           |
|  \\    /   O peration     | Version:  dev                                   |
|   \\  /    A nd           | Web:      www.OpenFOAM.org                      |
|    \\/     M anipulation  |                                                 |
\*---------------------------------------------------------------------------*/
FoamFile
{
    version     2.0;
    format      ascii;
    class       volScalarField;
    location    "0.33";
    object      p;
}
// * * * * * * * * * * * * * * * * * * * * * * * * * * * * * * * * * * * * * //

dimensions      [0 2 -2 0 0 0 0];

internalField   nonuniform List<scalar> 
2790
(
71.647
71.5295
71.7528
72.3041
73.0798
74.0305
75.1498
76.4396
77.8976
79.5188
81.2978
83.2284
85.3029
87.5109
89.8385
92.2674
94.7741
97.3289
99.8958
102.433
104.892
107.222
109.374
111.3
112.963
114.34
115.422
116.219
116.748
117.031
71.4591
71.4397
71.6866
72.2359
73.0084
73.9559
75.0708
76.3546
77.8053
79.4182
81.1879
83.1084
85.1723
87.3694
89.6863
92.1054
94.6041
97.1536
99.7191
102.26
104.729
107.078
109.255
111.215
112.92
114.345
115.48
116.333
116.922
117.292
71.2659
71.3173
71.583
72.1227
72.8825
73.8175
74.9176
76.1837
77.6135
79.2026
80.9454
82.8359
84.8666
87.0279
89.3068
91.6868
94.1467
96.6601
99.195
101.714
104.175
106.532
108.739
110.752
112.534
114.058
115.307
116.279
116.976
117.45
71.0502
71.1345
71.4122
71.9427
72.6878
73.6066
74.6873
75.9297
77.3316
78.8882
80.5939
82.4426
84.4266
86.5366
88.7601
91.0818
93.4821
95.9372
98.4188
100.894
103.326
105.674
107.898
109.959
111.819
113.448
114.822
115.921
116.721
117.273
70.8017
70.9011
71.1869
71.7095
72.4383
73.3362
74.3918
75.6036
76.9693
78.484
80.142
81.9368
83.8609
85.9049
88.0573
90.3033
92.6255
95.0026
97.41
99.8196
102.2
104.518
106.739
108.828
110.75
112.471
113.956
115.171
116.064
116.693
70.5163
70.6218
70.9099
71.4225
72.1315
73.0038
74.0281
75.2028
76.5248
77.9892
79.5899
81.3203
83.1726
85.1378
87.2046
89.3594
91.5862
93.8663
96.1787
98.4996
100.804
103.063
105.251
107.337
109.289
111.074
112.649
113.967
114.962
115.709
70.192
70.2987
70.5838
71.0834
71.7696
72.612
73.6001
74.7315
76.0029
77.4089
78.9432
80.5989
82.3682
84.2418
86.2089
88.2567
90.3706
92.5341
94.7288
96.9352
99.1326
101.3
103.415
105.455
107.394
109.201
110.835
112.243
113.349
114.28
69.8284
69.9331
70.2111
70.6944
71.3549
72.1635
73.1103
74.1927
75.4068
76.7469
78.2062
79.7774
81.4526
83.2223
85.0758
87.0008
88.9837
91.0093
93.0615
95.1238
97.1794
99.2118
101.205
103.144
105.01
106.781
108.425
109.894
111.109
112.282
69.426
69.5267
69.7942
70.2581
70.8898
71.6608
72.5618
73.5898
74.7404
76.0074
77.3836
78.8613
80.4319
82.0858
83.812
85.5983
87.4313
89.2965
91.1791
93.0639
94.9365
96.7838
98.5946
100.36
102.072
103.721
105.294
106.765
108.05
109.505
68.9859
69.0811
69.3352
69.7769
70.3769
71.1069
71.9579
72.9266
74.0081
75.1956
76.4813
77.8569
79.3132
80.84
82.4257
84.0575
85.7216
87.4032
89.0871
90.7579
92.4014
94.005
95.5593
97.0597
98.5071
99.9095
101.279
102.628
103.884
105.607
68.5094
68.598
68.8367
69.2536
69.8191
70.505
71.3022
72.2072
73.2146
74.3168
75.5053
76.7712
78.1043
79.4935
80.9263
82.3886
83.8654
85.3403
86.796
88.2149
89.5797
90.8744
92.0867
93.2102
94.2489
95.2233
96.1749
97.1773
98.1904
100.071
67.9984
68.0796
68.3011
68.6909
69.2195
69.8585
70.5987
71.4362
72.365
73.3768
74.4624
75.6118
76.8139
78.0563
79.325
80.6043
81.8769
83.1233
84.3228
85.4525
86.4886
87.4066
88.1833
88.8002
89.2496
89.5476
89.7509
90.0047
90.349
92.0951
67.4548
67.5279
67.7308
68.0917
68.5812
69.171
69.8514
70.6181
71.4646
72.3818
73.3596
74.3869
75.4515
76.5394
77.6347
78.7194
79.773
80.7723
81.6907
82.498
83.1597
83.6365
83.8847
83.8576
83.5104
82.8147
81.7873
80.5984
79.4074
80.3367
66.8809
66.9454
67.1285
67.4589
67.9077
68.4461
69.0644
69.7578
70.519
71.3382
72.2044
73.1054
74.0274
74.9548
75.8695
76.7507
77.5743
78.312
78.9302
79.3891
79.6401
79.6233
79.2642
78.469
77.1203
75.0769
72.1851
68.4158
63.8018
61.8242
66.2789
66.3345
66.4969
66.7957
67.2022
67.6878
68.2422
68.8602
69.5339
70.2527
71.0046
71.7761
72.552
73.3149
74.0443
74.7164
75.3029
75.7701
76.0768
76.172
75.9911
75.4502
74.4367
72.7949
70.301
66.6202
61.221
53.3076
41.2271
27.4727
-75.9935
-76.56
-77.7084
-79.6163
-82.3867
-86.0732
-90.6726
-96.1154
-102.254
-108.85
-115.57
-121.981
-127.564
-131.746
-133.939
-133.599
-130.296
-123.814
-114.246
-102.008
-87.7908
-72.4716
-57.0114
-42.3442
-29.2655
-18.323
-9.82649
-3.15549
1.54991
3.06457
-75.8828
-76.5345
-77.7411
-79.7062
-82.537
-86.2933
-90.9764
-96.5192
-102.775
-109.505
-116.371
-122.933
-128.663
-132.977
-135.28
-135.022
-131.772
-125.314
-115.744
-103.492
-89.246
-73.8787
-58.3453
-43.5756
-30.369
-19.2905
-10.6551
-3.8321
0.972778
2.72437
-76.0938
-76.9554
-78.3418
-80.4741
-83.4525
-87.3441
-92.1591
-97.8394
-104.245
-111.142
-118.192
-124.948
-130.871
-135.363
-137.812
-137.655
-134.443
-127.954
-118.302
-105.937
-91.5585
-76.0442
-60.3497
-45.404
-32.012
-20.752
-11.8926
-4.80082
0.204596
2.38775
-76.9191
-77.9851
-79.5451
-81.8572
-85.0057
-89.0637
-94.0508
-99.9191
-106.537
-113.674
-120.99
-128.03
-134.238
-138.99
-141.653
-141.638
-138.467
-131.911
-122.109
-109.539
-94.9202
-79.1414
-63.1666
-47.9321
-34.2544
-22.7226
-13.4889
-6.01008
-0.751689
1.97793
-78.5154
-79.687
-81.3447
-83.7965
-87.0995
-91.3296
-96.5115
-102.605
-109.484
-116.921
-124.573
-131.974
-138.542
-143.625
-146.556
-146.714
-143.581
-136.921
-126.912
-114.068
-99.1308
-83.0005
-66.6561
-51.0471
-37.0022
-25.1068
-15.3612
-7.40477
-1.84056
1.51167
-80.8754
-82.0024
-83.6654
-86.2003
-89.6258
-94.0198
-99.4086
-105.756
-112.942
-120.739
-128.799
-136.638
-143.649
-149.133
-152.382
-152.731
-149.613
-142.798
-132.524
-119.345
-104.023
-87.4692
-70.6826
-54.6288
-40.1459
-27.7779
-17.4164
-8.94148
-3.00553
1.00771
-83.7882
-84.7186
-86.3176
-88.8881
-92.4066
-96.9547
-102.558
-109.183
-116.712
-124.918
-133.444
-141.788
-149.308
-155.256
-158.859
-159.403
-156.272
-149.252
-138.669
-125.117
-109.372
-92.3513
-75.0784
-58.5339
-43.5537
-30.5923
-19.5531
-10.5787
-4.20045
0.484728
-86.8529
-87.498
-89.0169
-91.6034
-95.2017
-99.9016
-105.727
-112.648
-120.547
-129.196
-138.231
-147.129
-155.214
-161.674
-165.657
-166.387
-163.205
-155.938
-145.022
-131.088
-114.918
-97.421
-79.6551
-62.6004
-47.0628
-33.3953
-21.6998
-12.2755
-5.38724
-0.0428676
-89.5815
-89.9592
-91.4411
-94.0564
-97.7423
-102.602
-108.659
-115.886
-124.168
-133.276
-142.84
-152.319
-161
-168.006
-172.379
-173.271
-170.003
-162.457
-151.213
-136.93
-120.378
-102.441
-84.2111
-66.6434
-50.4657
-36.0963
-23.8437
-13.9569
-6.52976
-0.564919
-91.5561
-91.7752
-93.2969
-95.9757
-99.771
-104.804
-111.097
-118.63
-127.289
-136.845
-146.926
-156.98
-166.259
-173.817
-178.577
-179.594
-176.212
-168.392
-156.864
-142.311
-125.472
-107.191
-88.5336
-70.4497
-53.6281
-38.6572
-25.9131
-15.5618
-7.59828
-1.07466
-92.5218
-92.7432
-94.3767
-97.1547
-101.082
-106.295
-112.821
-120.64
-129.643
-139.601
-150.146
-160.722
-170.557
-178.64
-183.776
-184.869
-181.37
-173.364
-161.654
-146.949
-129.943
-111.454
-92.4111
-73.8254
-56.4739
-41.0086
-27.8206
-17.0365
-8.56933
-1.56758
-92.4832
-92.8162
-94.5877
-97.4866
-101.558
-106.949
-113.681
-121.737
-131.01
-141.282
-152.186
-163.165
-173.443
-181.961
-187.429
-188.613
-185.058
-177.042
-165.345
-150.635
-133.567
-114.932
-95.6166
-76.6411
-58.8911
-43.0445
-29.492
-18.3367
-9.42541
-2.04031
-91.6407
-92.077
-93.9467
-96.9589
-101.176
-106.735
-113.646
-121.882
-131.338
-141.805
-152.915
-164.124
-174.671
-183.495
-189.212
-190.513
-186.978
-179.082
-167.579
-153.038
-136.059
-117.384
-97.9362
-78.7562
-60.7726
-44.6807
-30.8695
-19.4288
-10.1551
-2.48982
-90.2143
-90.6679
-92.5577
-95.6462
-100.004
-105.727
-112.791
-121.152
-130.7
-141.227
-152.375
-163.617
-174.216
-183.119
-188.91
-190.271
-186.858
-179.233
-168.087
-153.899
-137.185
-118.662
-99.2758
-80.085
-62.0444
-45.8594
-31.9145
-20.2919
-10.7534
-2.91326
-88.4025
-88.7857
-90.5725
-93.6725
-98.1853
-104.079
-111.267
-119.686
-129.226
-139.678
-150.697
-161.769
-172.167
-180.857
-186.485
-187.843
-184.679
-177.52
-166.915
-153.236
-136.94
-118.739
-99.5967
-80.5854
-62.6691
-46.5516
-32.6089
-20.9184
-11.2216
-3.30711
65.6394
65.6856
65.8264
66.0919
66.4544
66.885
67.3732
67.9131
68.4963
69.1113
69.7452
70.3832
71.0087
71.6022
72.141
72.5981
72.941
73.1304
73.1174
72.8401
72.2178
71.1426
69.464
66.963
63.3015
57.9189
49.773
36.6819
11.4393
-58.0801
64.9549
64.9912
65.1092
65.3399
65.6563
66.0295
66.4487
66.9076
67.3969
67.9045
68.4164
68.9168
69.3875
69.8072
70.1508
70.3883
70.4835
70.3918
70.0576
69.4097
68.3546
66.7659
64.4667
61.1981
56.5608
49.8992
40.0457
25.0373
3.28558
-27.9718
64.2306
64.2568
64.3512
64.5458
64.8145
65.1287
65.477
65.8526
66.2459
66.6439
67.0317
67.3924
67.7065
67.9511
68.0988
68.1174
67.9674
67.6003
66.9556
65.9562
64.5015
62.458
59.6434
55.8033
50.5776
43.4652
33.8222
20.9942
5.70657
-11.5975
63.4679
63.4838
63.554
63.7115
63.9314
64.1853
64.4614
64.7526
65.0487
65.3361
65.5991
65.8199
65.9779
66.0487
66.0037
65.8086
65.4219
64.7928
63.8588
62.5408
60.7387
58.3233
55.1275
50.9358
45.4782
38.4406
29.5144
18.3782
5.00203
-11.0139
62.6686
62.6739
62.7194
62.8394
63.0098
63.2027
63.406
63.6123
63.811
63.9879
64.127
64.2095
64.2141
64.1156
63.8843
63.4851
62.8757
62.0052
60.8112
59.2176
57.1302
54.4328
50.9833
46.6117
41.1218
34.2999
25.9337
15.7708
3.62863
-10.2561
61.8347
61.8294
61.8501
61.9322
62.0529
62.1847
62.3153
62.437
62.539
62.6069
62.6242
62.5718
62.428
62.1671
61.7593
61.1695
60.356
59.2694
57.8506
56.0289
53.7203
50.8253
47.2285
42.7991
37.3947
30.8681
23.0847
13.9344
3.40199
-8.0771
60.9688
60.953
60.949
60.9932
61.0644
61.1354
61.194
61.2324
61.2395
61.2011
61.1004
60.9182
60.6328
60.2189
59.647
58.8832
57.8875
56.6136
55.0074
53.0062
50.5376
47.5202
43.8633
39.4706
34.2446
28.0956
20.9589
12.8134
3.6935
-6.06668
60.074
60.0478
60.0193
60.0261
60.0484
60.0597
60.0478
60.0048
59.92
59.779
59.5652
59.26
58.8418
58.2862
57.565
56.6459
55.492
54.0612
52.3055
50.1712
47.5985
44.5229
40.8766
36.5922
31.6077
25.8745
19.368
12.0979
4.10069
-4.35942
59.1538
59.1174
59.065
59.035
59.0096
58.9626
58.8823
58.7609
58.5878
58.3492
58.0288
57.6085
57.0678
56.3834
55.529
54.4749
53.1878
51.6303
49.7616
47.5369
44.9088
41.828
38.2463
34.1187
29.409
24.0944
18.1717
11.6643
4.61344
-2.76038
58.2121
58.1658
58.0902
58.0246
57.9529
57.8498
57.7038
57.5076
57.2509
56.9204
56.5007
55.9746
55.3228
54.5237
53.5532
52.3848
50.9891
49.3342
47.3861
45.1089
42.4662
39.4222
35.9439
32.0037
27.583
22.6756
17.2913
11.4604
5.22587
-1.23295
57.2531
57.1975
57.0995
56.9997
56.8836
56.727
56.5187
56.2519
55.9169
55.5013
54.9905
54.3686
53.6178
52.7186
51.6495
50.3872
48.9067
47.1815
45.1841
42.8868
40.2628
37.2872
33.9392
30.2038
26.0745
21.5556
16.6641
11.4322
5.90037
0.212567
56.2817
56.2171
56.098
55.9657
55.8075
55.6004
55.3336
55.001
54.5937
54.1002
53.5072
52.8
51.9628
50.9783
49.8277
48.4912
46.948
45.1767
43.1562
40.8657
38.2863
35.4023
32.2017
28.6788
24.835
20.6808
16.2365
11.5332
6.60778
1.57588
55.3028
55.23
55.091
54.9281
54.7305
54.4762
54.1552
53.7621
53.2889
52.7252
52.0591
51.2775
50.3665
49.311
48.0953
46.7029
45.117
43.3212
41.2994
39.0373
36.5223
33.7456
30.7021
27.3921
23.8223
20.0064
15.9656
11.7289
7.32902
2.85922
54.322
54.2415
54.0841
53.8928
53.6586
53.3608
52.9903
52.5422
52.0099
51.3839
50.654
49.8086
48.836
47.7234
46.4579
45.0263
43.4155
41.6133
39.6084
37.3912
34.9549
32.2953
29.4125
26.3109
23
19.4952
15.8172
11.9923
8.04928
4.06331
53.3451
53.2575
53.0832
52.8658
52.5981
52.2608
51.8455
51.3483
50.7636
50.0834
49.2987
48.4001
47.3775
46.2207
44.9194
43.4633
41.8429
40.0494
38.0755
35.9159
33.5675
31.0302
28.3073
25.4058
22.337
19.1164
15.7635
12.3019
8.75676
5.18863
52.378
52.2841
52.0945
51.8534
51.5555
51.1826
50.7274
50.1869
49.5566
48.83
47.9996
47.0575
45.9959
44.8066
43.4819
42.0141
40.3968
38.6242
36.6923
34.5989
32.344
29.9303
27.3632
24.6513
21.8066
18.844
15.7818
12.6407
9.44237
6.23597
51.427
51.3275
51.1244
50.8621
50.5371
50.1327
49.6425
49.0645
48.3953
47.6297
46.7619
45.7857
44.6949
43.4837
42.1463
40.6777
39.0737
37.3315
35.4493
33.4276
31.2687
28.9769
26.5592
24.025
21.3861
18.6568
15.8537
12.9948
10.0992
7.20637
50.4987
50.3944
50.1792
49.8982
49.5494
49.1175
48.5971
47.9871
47.2853
46.488
45.5905
44.5885
43.4774
42.2533
40.9124
39.4517
37.8693
36.1643
34.3372
32.39
30.3268
28.1531
25.8768
23.5073
21.0562
18.5368
15.9639
13.3535
10.7219
8.10117
49.5997
49.4913
49.2658
48.9685
48.599
48.1435
47.5974
46.9607
46.2323
45.4096
44.4895
43.4691
42.3454
41.1161
39.7792
38.3335
36.7787
35.1157
33.3464
31.4744
29.5046
27.4437
25.2994
23.0814
20.8006
18.4692
16.1004
13.7082
11.3067
8.92193
48.737
48.625
48.3907
48.0794
47.6922
47.2167
46.6493
45.9907
45.2411
44.399
43.4625
42.4301
41.3003
40.0722
38.7452
37.3196
35.7966
34.1783
32.4679
30.6699
28.7899
26.8348
24.8128
22.7329
20.6054
18.4416
16.253
14.052
11.8507
9.67042
47.9174
47.8026
47.5609
47.2377
46.8356
46.3435
45.7586
45.0826
44.3166
43.4602
42.5127
41.4738
40.3432
39.1212
37.8085
36.4068
34.918
33.3456
31.6934
29.9665
28.1713
26.3146
24.4044
22.4494
20.4591
18.4437
16.4136
14.3795
12.352
10.3484
47.1483
47.0311
46.7832
46.4501
46.0356
45.5299
44.931
44.2415
43.4633
42.597
41.6431
40.602
39.4747
38.2626
36.9673
35.5915
34.1381
32.611
31.015
29.3556
27.6391
25.8726
24.0636
22.2205
20.352
18.4673
16.5758
14.6867
12.8094
10.9579
46.4369
46.3177
46.0647
45.7232
45.2985
44.7819
44.1721
43.4725
42.6856
41.8131
40.8562
39.8164
38.6955
37.4957
36.2196
34.8705
33.4521
31.9689
30.4259
28.8289
27.1845
25.4994
23.781
22.037
20.2756
18.5051
16.7337
14.9698
13.2213
11.5
45.7908
45.67
45.4126
45.064
44.6309
44.1055
43.4875
42.7805
41.9879
41.112
40.1549
39.1189
38.0064
36.8204
35.5641
34.2415
32.8567
31.4146
29.9205
28.3804
26.8007
25.1881
23.5495
21.8923
20.2239
18.5519
16.8838
15.2268
13.5881
11.9773
45.2178
45.0954
44.8339
44.4791
44.039
43.5068
42.8825
42.1702
41.3741
40.4969
39.5415
38.5107
37.4076
36.2357
34.9988
33.7012
32.3476
30.9429
29.4928
28.0031
26.4804
24.9309
23.3614
21.7788
20.1898
18.6016
17.0207
15.4538
13.9072
12.3887
44.7263
44.6021
44.3361
43.9754
43.5295
42.9921
42.3634
41.6478
40.8499
39.9731
39.0207
37.9959
36.9025
35.7442
34.5254
33.2506
31.9248
30.5531
29.1413
27.6952
26.2211
24.7254
23.2142
21.6942
20.1716
18.653
17.1445
15.6521
14.1814
12.7391
44.3257
44.1983
43.9262
43.5591
43.1077
42.5658
41.9335
41.2155
40.4167
39.541
38.5919
37.5731
36.4886
35.3427
34.1398
32.8847
31.5826
30.2388
28.8589
27.4489
26.0149
24.563
23.0993
21.6298
20.1607
18.6979
17.2471
15.8138
14.4031
13.0206
44.027
43.8926
43.6124
43.24
42.7853
42.2404
41.6056
40.8861
40.087
39.2126
38.2666
37.2531
36.1761
35.0403
33.8503
32.6111
31.3279
30.0061
28.6513
27.2695
25.8666
24.4486
23.0214
21.5909
20.1627
18.7426
17.3359
15.9478
14.583
13.2465
43.8469
43.6861
43.3888
43.0113
42.5548
42.0084
41.3723
40.6523
39.8539
38.9813
38.0383
37.0291
35.9582
34.83
33.6495
32.4217
31.1519
29.8455
28.5082
27.1458
25.7642
24.3694
22.9669
21.5625
20.1618
18.7702
17.3928
16.0345
14.6999
13.3931
43.8265
43.6135
43.2914
42.9066
42.4466
41.8971
41.2586
40.5373
39.7386
38.8666
37.9252
36.9186
35.8512
34.7277
33.5529
32.3319
31.07
29.7726
28.4455
27.0942
25.7248
24.343
22.9544
21.5646
20.179
18.803
17.4415
16.0993
14.7806
13.4893
-158.476
-137.911
-109.796
-49.1608
-54.5776
-61.1138
-29.6731
-41.6836
-51.5873
-28.4083
-39.3726
-47.4472
-23.7713
-32.6101
-39.7462
-19.0145
-26.5153
-32.9407
-15.4348
-21.9311
-27.5563
-12.4578
-18.0708
-22.9267
-9.77854
-14.643
-18.8379
-7.35122
-11.5913
-15.2312
-5.14987
-8.86293
-12.0356
-3.14375
-6.40812
-9.18625
-1.31037
-4.1909
-6.63465
0.366305
-2.1845
-4.34352
1.89905
-0.367567
-2.28317
3.29842
1.27725
-0.429674
4.57335
2.76437
1.23666
5.73162
4.10609
2.73244
6.78017
5.3131
4.07188
7.7253
6.39489
5.26742
8.57251
7.35961
6.32967
9.32716
8.21491
7.26827
9.99288
8.9663
8.09051
10.5749
9.62061
8.80443
11.0731
10.179
9.41265
11.4952
10.6503
9.92429
11.8324
11.0266
10.333
12.1021
11.3255
10.6554
12.2767
11.5205
10.8674
12.3951
11.6544
11.0101
-86.0664
-86.8696
-88.3228
-91.2734
-95.9588
-102.019
-109.28
-117.67
-127.081
-137.309
-148.016
-158.703
-168.658
-176.893
-182.197
-183.546
-180.722
-174.148
-164.193
-151.122
-135.355
-117.616
-98.887
-80.2409
-62.632
-46.7477
-32.9497
-21.3109
-11.5667
-3.6702
-73.2805
-80.3761
-84.011
-88.3078
-93.6321
-99.8808
-107.107
-115.326
-124.449
-134.276
-144.478
-154.572
-163.879
-171.505
-176.413
-177.752
-175.302
-169.328
-160.024
-147.576
-132.398
-115.237
-97.0828
-78.9914
-61.8821
-46.4083
-32.9092
-21.4524
-11.7793
-3.9919
-65.2822
-75.4906
-80.6681
-85.5534
-91.3035
-97.8056
-105.005
-112.956
-121.637
-130.887
-140.404
-149.734
-158.256
-165.185
-169.674
-170.991
-168.854
-163.359
-154.584
-142.689
-128.113
-111.624
-94.2027
-76.8528
-60.433
-45.5441
-32.4956
-21.3489
-11.8626
-4.26415
-58.3247
-69.1749
-76.5995
-82.917
-89.2084
-95.797
-102.877
-110.542
-118.755
-127.364
-136.103
-144.572
-152.227
-158.41
-162.454
-163.672
-161.658
-156.397
-147.947
-136.499
-122.536
-106.828
-90.3014
-73.8786
-58.33
-44.19
-31.7329
-21.0154
-11.8218
-4.47866
-49.7354
-60.7424
-70.0433
-78.1855
-85.6587
-92.8489
-100.089
-107.594
-115.416
-123.45
-131.463
-139.106
-145.916
-151.348
-154.853
-155.758
-153.563
-148.278
-140
-128.977
-115.711
-100.935
-85.4839
-70.1684
-55.6559
-42.4077
-30.6631
-20.4767
-11.666
-4.6286
-41.7725
-52.0931
-62.1231
-71.405
-79.8836
-87.8262
-95.5161
-103.145
-110.79
-118.403
-125.814
-132.734
-138.774
-143.483
-146.248
-146.512
-143.972
-138.625
-130.586
-120.133
-107.756
-94.1102
-79.9199
-65.8712
-52.5277
-40.2815
-29.3417
-19.765
-11.407
-4.7094
-35.0338
-44.1742
-53.9827
-63.539
-72.4284
-80.7764
-88.7775
-96.543
-104.104
-111.413
-118.329
-124.61
-129.917
-133.83
-135.789
-135.414
-132.626
-127.406
-119.846
-110.214
-98.9554
-86.6319
-73.8498
-61.1786
-49.0881
-37.9105
-27.8323
-18.9166
-11.059
-4.72002
-29.2251
-37.1387
-46.203
-55.3961
-64.1314
-72.4217
-80.3816
-88.0491
-95.3987
-102.355
-108.777
-114.446
-119.056
-122.216
-123.512
-122.764
-119.989
-115.152
-108.318
-99.7233
-89.7484
-78.8607
-67.5562
-56.3016
-45.4869
-35.3962
-26.1993
-17.9681
-10.6369
-4.66373
-24.1894
-30.9996
-39.1066
-47.5645
-55.7485
-63.6013
-71.1792
-78.469
-85.4026
-91.8773
-97.7478
-102.811
-106.801
-109.386
-110.294
-109.466
-106.931
-102.656
-96.6922
-89.2356
-80.5973
-71.1545
-61.3068
-51.434
-41.86
-32.8298
-24.5009
-16.9536
-10.1562
-4.54794
-19.8232
-25.6887
-32.8146
-40.3861
-47.8102
-54.9953
-61.9618
-68.6688
-75.0251
-80.9143
-86.1931
-90.6806
-94.1561
-96.3648
-97.1234
-96.4108
-94.2469
-90.6124
-85.5525
-79.2234
-71.8706
-63.7925
-55.3079
-46.7247
-38.3124
-30.2833
-22.7844
-15.9017
-9.63146
-4.38315
-16.0096
-21.0822
-27.3023
-33.9834
-40.5908
-47.0213
-53.2766
-59.3053
-65.0102
-70.275
-74.9673
-78.9326
-81.996
-83.9712
-84.7218
-84.2187
-82.4708
-79.4737
-75.2696
-69.9797
-63.7938
-56.9454
-49.6874
-42.2687
-34.9139
-27.8073
-21.0847
-14.8354
-9.07653
-4.18121
-12.6501
-17.061
-22.4862
-28.3479
-34.1737
-39.8615
-45.4044
-50.7506
-55.808
-60.469
-64.6173
-68.1253
-70.8568
-72.6765
-73.4738
-73.2018
-71.857
-69.4444
-66.0033
-61.6271
-56.461
-50.6864
-44.5035
-38.1137
-31.7037
-25.4332
-19.4267
-13.7728
-8.50368
-3.95363
-9.67268
-13.5301
-18.2732
-23.4122
-28.5335
-33.541
-38.4254
-43.1394
-47.6003
-51.7134
-55.3796
-58.4947
-60.9523
-62.6517
-63.5004
-63.4398
-62.4543
-60.5515
-57.7662
-54.1708
-49.8758
-45.0218
-39.7671
-34.2746
-28.6995
-23.1793
-17.8269
-12.7278
-7.92372
-3.71041
-7.02303
-10.4159
-14.5781
-19.0925
-23.5972
-28.0048
-32.306
-36.4597
-40.3942
-44.0278
-47.2771
-50.0572
-52.2834
-53.8777
-54.763
-54.8778
-54.1967
-52.7252
-50.4924
-47.554
-43.9943
-39.9223
-35.4629
-30.7478
-25.906
-21.0554
-16.2969
-11.7114
-7.34595
-3.45966
-4.65913
-7.66026
-11.329
-15.3081
-19.2809
-23.1691
-26.9646
-30.6327
-34.1122
-37.3333
-40.2261
-42.7205
-44.7478
-46.2454
-47.1506
-47.4038
-46.9725
-45.859
-44.0865
-41.6972
-38.7552
-35.3447
-31.5646
-27.5213
-23.3217
-19.0664
-14.8449
-10.7324
-6.77822
-3.20765
-2.5476
-5.21736
-8.46667
-11.9885
-15.5055
-18.9479
-22.3091
-25.5607
-28.6503
-31.5189
-34.1075
-36.3576
-38.2123
-39.6184
-40.5307
-40.8926
-40.6622
-39.8427
-38.4514
-36.5196
-34.0953
-31.2438
-28.0433
-24.5796
-20.9413
-17.214
-13.4766
-9.79758
-6.227
-2.9592
-0.661271
-3.04995
-5.94254
-9.07416
-12.2017
-15.263
-18.2531
-21.1487
-23.9055
-26.4734
-28.8023
-30.8433
-32.5485
-33.8732
-34.7792
-35.219
-35.1516
-34.5737
-33.4976
-31.9463
-29.9559
-27.5767
-24.8705
-21.9066
-18.7583
-15.4983
-12.1956
-8.91243
-5.69758
-2.71799
1.02244
-1.12727
-3.71626
-6.51519
-9.31031
-12.0465
-14.7202
-17.3122
-19.7853
-22.0967
-24.2038
-26.0653
-27.6406
-28.8916
-29.785
-30.2807
-30.3427
-29.9622
-29.1463
-27.9115
-26.2847
-24.3045
-22.0197
-19.4864
-16.7652
-13.9178
-11.0043
-8.08093
-5.19417
-2.48685
2.52266
0.576426
-1.75409
-4.26946
-6.7813
-9.24058
-11.6448
-13.9783
-16.2097
-18.3023
-20.2199
-21.9271
-23.3892
-24.5736
-25.4507
-25.987
-26.1511
-25.9312
-25.3296
-24.3577
-23.0354
-21.3921
-19.4664
-17.3038
-14.9542
-12.4702
-9.90403
-7.30602
-4.72007
-2.26796
3.85577
2.08294
-0.0275507
-2.3015
-4.57218
-6.79587
-8.9709
-11.0847
-13.1104
-15.0166
-16.7721
-18.3467
-19.7104
-20.8348
-21.6938
-22.2591
-22.5038
-22.4142
-21.9889
-21.2352
-20.1676
-18.8086
-17.1886
-15.3444
-13.3175
-11.1525
-8.89495
-6.58974
-4.27786
-2.06296
5.03569
3.4106
1.48719
-0.581522
-2.6473
-4.67098
-6.65155
-8.57879
-10.4298
-12.1774
-13.7947
-15.2555
-16.5338
-17.6046
-18.4449
-19.0309
-19.339
-19.3545
-19.0738
-18.501
-17.6463
-16.5269
-15.1665
-13.5952
-11.8476
-9.96153
-7.97681
-5.93349
-3.86951
-1.87311
6.07463
4.5752
2.81047
0.91573
-0.976464
-2.83083
-4.64689
-6.41628
-8.11931
-9.7324
-11.2321
-12.5956
-13.8001
-14.8234
-15.6449
-16.2455
-16.6039
-16.704
-16.5415
-16.1182
-15.441
-14.5228
-13.3824
-12.0442
-10.5372
-8.89383
-7.14886
-5.33808
-3.4965
-1.69931
6.98221
5.58925
3.95853
2.21056
0.464709
-1.24703
-2.92456
-4.56104
-6.13941
-7.63898
-9.03921
-10.32
-11.4612
-12.4432
-13.2473
-13.857
-14.2539
-14.4224
-14.3565
-14.0564
-13.5265
-12.7766
-11.8215
-10.6812
-9.38019
-7.94647
-6.41044
-4.80423
-3.16012
-1.54233
7.76786
6.46445
4.9461
3.32102
1.69763
0.105144
-1.45662
-2.98202
-4.45613
-5.86065
-7.17736
-8.38841
-9.47595
-10.4223
-11.2107
-11.8259
-12.2521
-12.4751
-12.4877
-12.2885
-11.8803
-11.2702
-10.4701
-9.49658
-8.37055
-7.11619
-5.76038
-4.3321
-2.86113
-1.40259
8.43622
7.20731
5.78202
4.25862
2.73645
1.24249
-0.223675
-1.65736
-3.04533
-4.37123
-5.61873
-6.77181
-7.8144
-8.73049
-9.50476
-10.1231
-10.5717
-10.8377
-10.9132
-10.7957
-10.4867
-9.99141
-9.31935
-8.48444
-7.50479
-6.40158
-5.19876
-3.92262
-2.60075
-1.28072
8.99623
7.82796
6.47841
5.03758
3.59753
2.18344
0.794759
-0.564592
-1.88274
-3.14485
-4.33609
-5.4419
-6.44764
-7.33863
-8.10069
-8.7207
-9.18618
-9.48559
-9.6109
-9.55869
-9.32936
-8.9269
-8.35904
-7.63765
-6.77844
-5.80027
-4.7248
-3.5761
-2.37984
-1.17731
9.44443
8.3241
7.03403
5.65811
4.28263
2.93132
1.60351
0.302573
-0.960687
-2.1726
-3.31947
-4.3879
-5.36432
-6.23507
-6.9869
-7.60743
-8.08517
-8.40958
-8.57271
-8.57063
-8.40298
-8.07277
-7.58656
-6.95462
-6.19085
-5.31235
-4.33903
-3.29316
-2.19881
-1.09226
9.79436
8.70947
7.46389
6.13638
4.80895
3.50431
2.22172
0.964151
-0.258364
-1.43302
-2.54698
-3.58766
-4.54228
-5.39794
-6.14206
-6.7628
-7.24946
-7.59236
-7.78386
-7.81962
-7.69862
-7.42312
-6.99878
-6.43472
-5.74355
-4.94111
-4.04599
-3.07907
-2.06318
-1.03023
10.0271
8.96496
7.7488
6.45411
5.15917
3.88585
2.6336
1.40517
0.210098
-0.939403
-2.03105
-3.0528
-3.9924
-4.83743
-5.57562
-6.19518
-6.68566
-7.03839
-7.24651
-7.30565
-7.21443
-6.97463
-6.5913
-6.07278
-5.43078
-4.68024
-3.8388
-2.92643
-1.96537
-0.985684
10.1734
9.11558
7.91376
6.63667
5.35847
4.10077
2.86345
1.6493
0.467571
-0.669817
-1.75084
-2.76371
-3.69647
-4.53703
-5.27366
-5.89554
-6.39238
-6.75446
-6.97446
-7.04826
-6.9746
-6.75514
-6.39461
-5.90101
-5.28555
-4.5626
-3.74918
-2.86452
-1.92967
-0.969387
)
;

boundaryField
{
    inlet
    {
        type            zeroGradient;
    }
    outlet
    {
        type            fixedValue;
        value           uniform 0;
    }
    flap
    {
        type            zeroGradient;
    }
    upperWall
    {
        type            zeroGradient;
    }
    lowerWall
    {
        type            zeroGradient;
    }
    frontAndBack
    {
        type            empty;
    }
}


// ************************************************************************* //
