/*--------------------------------*- C++ -*----------------------------------*\
| =========                 |                                                 |
| \\      /  F ield         | OpenFOAM: The Open Source CFD Toolbox           |
|  \\    /   O peration     | Version:  dev                                   |
|   \\  /    A nd           | Web:      www.OpenFOAM.org                      |
|    \\/     M anipulation  |                                                 |
\*---------------------------------------------------------------------------*/
FoamFile
{
    version     2.0;
    format      ascii;
    class       surfaceScalarField;
    location    "0.33";
    object      phi;
}
// * * * * * * * * * * * * * * * * * * * * * * * * * * * * * * * * * * * * * //

dimensions      [0 3 -1 0 0 0 0];

internalField   nonuniform List<scalar> 
5457
(
0.198383
0.00161532
0.196462
0.00191968
0.194209
0.00225369
0.191585
0.00262507
0.188589
0.00299764
0.185224
0.00336809
0.181484
0.00374415
0.177355
0.00413277
0.172821
0.0045387
0.16786
0.00496546
0.162447
0.00541583
0.156559
0.00589175
0.150167
0.00639398
0.143246
0.00692164
0.135774
0.00747162
0.127735
0.00803783
0.119123
0.00861049
0.109945
0.00917476
0.100233
0.00970991
0.0900402
0.0101895
0.0794566
0.0105805
0.0686093
0.0108444
0.0576672
0.0109396
0.0468413
0.0108239
0.0363791
0.0104608
0.0265538
0.00982425
0.0176499
0.0089033
0.00994993
0.00769971
0.00369627
0.00625354
0.00369624
0.199965
0.00164813
0.199243
0.00264125
0.198086
0.00341067
0.196526
0.00418542
0.194563
0.0049638
0.192192
0.00574154
0.18941
0.0065305
0.186203
0.00734354
0.182556
0.00819028
0.178448
0.00907813
0.173854
0.010013
0.168749
0.0109993
0.163106
0.0120393
0.156896
0.0131322
0.150095
0.0142731
0.14268
0.0154517
0.134637
0.016651
0.125965
0.0178447
0.116676
0.0189962
0.106804
0.0200583
0.0964089
0.0209725
0.0855787
0.0216716
0.0744321
0.0220837
0.063116
0.022138
0.0517994
0.0217759
0.0406616
0.0209611
0.0298716
0.0196927
0.0195534
0.0180176
0.00969293
0.0161139
0.0133891
0.199816
0.00182978
0.199154
0.00330297
0.198064
0.0045
0.1966
0.00565112
0.194766
0.00679937
0.192562
0.00794916
0.189981
0.00911466
0.187016
0.0103129
0.183653
0.0115581
0.179874
0.0128614
0.175658
0.0142322
0.170983
0.0156778
0.165821
0.0172027
0.160147
0.0188078
0.153931
0.020489
0.147147
0.0222349
0.13977
0.0240256
0.131783
0.0258297
0.123174
0.0276023
0.113945
0.0292839
0.104114
0.0308003
0.0937172
0.0320658
0.0828114
0.0329869
0.0714754
0.033472
0.0598056
0.0334443
0.0479102
0.0328555
0.0359013
0.031701
0.0238834
0.0300352
0.0119362
0.0280609
0.0253253
0.199733
0.0020946
0.199071
0.00396346
0.198001
0.00557011
0.19656
0.00709288
0.194762
0.00859949
0.192607
0.0101077
0.190091
0.0116348
0.187207
0.0132007
0.183946
0.0148233
0.180295
0.0165171
0.176236
0.0182944
0.171752
0.0201651
0.166821
0.0221361
0.161419
0.0242105
0.155522
0.0263858
0.149104
0.0286526
0.142136
0.0309913
0.134593
0.0333709
0.126447
0.0357455
0.117675
0.0380525
0.10826
0.0402125
0.098192
0.0421308
0.0874739
0.0437025
0.0761243
0.0448195
0.0641835
0.0453836
0.0517222
0.0453158
0.0388544
0.0445681
0.0257617
0.0431275
0.0127523
0.0410701
0.0380777
0.199694
0.00239845
0.199025
0.00463125
0.197973
0.00662218
0.196559
0.00850785
0.194797
0.0103635
0.192688
0.0122191
0.19023
0.0140966
0.187416
0.0160185
0.184238
0.0180055
0.180684
0.0200752
0.17674
0.0222422
0.17239
0.0245188
0.167614
0.0269141
0.162392
0.0294334
0.156701
0.0320767
0.150516
0.0348371
0.143807
0.0376986
0.136542
0.0406333
0.128686
0.0435996
0.120197
0.0465388
0.111032
0.0493741
0.101149
0.0520106
0.0905108
0.0543385
0.079092
0.0562362
0.0668997
0.0575744
0.0539931
0.0582214
0.040515
0.0580456
0.0267372
0.056905
0.0131266
0.0546806
0.0512042
0.199677
0.00271924
0.199006
0.00530089
0.197975
0.0076525
0.196596
0.00988816
0.194879
0.0120824
0.192826
0.0142742
0.190436
0.0164905
0.187702
0.0187565
0.184617
0.0210955
0.181168
0.0235278
0.177343
0.0260706
0.173127
0.0287385
0.1685
0.0315427
0.163444
0.0344913
0.157933
0.0375872
0.151943
0.0408272
0.14544
0.0441999
0.138388
0.0476836
0.130741
0.0512435
0.122448
0.0548292
0.113448
0.0583717
0.103674
0.0617817
0.0930615
0.064948
0.0815607
0.0677349
0.0691575
0.0699761
0.0559056
0.0714722
0.0419706
0.0719799
0.0276755
0.0711997
0.013534
0.0688221
0.0647381
0.199672
0.0030447
0.199007
0.00596424
0.198003
0.0086566
0.196664
0.0112272
0.195001
0.0137479
0.193014
0.0162632
0.190703
0.0188051
0.188062
0.0214016
0.185083
0.0240788
0.181756
0.0268593
0.178067
0.0297631
0.174001
0.0328072
0.16954
0.0360058
0.164663
0.0393697
0.159346
0.0429056
0.153557
0.046615
0.147263
0.0504926
0.140421
0.0545241
0.132978
0.0586839
0.124873
0.0629323
0.11603
0.0672114
0.106369
0.0714406
0.0958041
0.0755101
0.0842665
0.0792704
0.0717219
0.0825192
0.058209
0.084984
0.0438872
0.086301
0.0290738
0.0860128
0.0142396
0.0836561
0.0789777
0.199675
0.00336731
0.199023
0.00661385
0.19805
0.00962936
0.196759
0.0125186
0.195157
0.0153516
0.193246
0.0181764
0.191026
0.0210291
0.18849
0.023941
0.185632
0.0269405
0.182443
0.030053
0.178909
0.033301
0.175015
0.0367044
0.170742
0.0402803
0.16607
0.0440434
0.160972
0.0480047
0.155415
0.0521712
0.149362
0.0565446
0.142765
0.0611196
0.135565
0.0658813
0.127693
0.0708026
0.119063
0.0758388
0.10958
0.0809208
0.0991436
0.085944
0.0876607
0.0907513
0.0750683
0.0951101
0.0613678
0.0986835
0.0466674
0.101001
0.0312205
0.101459
0.0154064
0.0994701
0.0943841
0.199682
0.00368207
0.199051
0.00724343
0.198114
0.0105654
0.196876
0.0137565
0.195343
0.0168862
0.193517
0.0200048
0.191398
0.0231521
0.18898
0.0263623
0.186258
0.0296664
0.183223
0.0330924
0.179862
0.0366654
0.176161
0.0404082
0.172102
0.0443415
0.167664
0.0484837
0.162818
0.0528509
0.157533
0.0574564
0.151767
0.0623096
0.14547
0.067415
0.13858
0.0727699
0.131019
0.0783612
0.122696
0.0841599
0.113501
0.0901124
0.103317
0.0961261
0.0920189
0.102047
0.0794965
0.107631
0.065679
0.1125
0.0505717
0.116107
0.034305
0.117726
0.0171268
0.116648
0.111511
0.199694
0.00398541
0.199087
0.00784779
0.198192
0.0114596
0.197013
0.0149351
0.195556
0.0183444
0.193824
0.0217398
0.191815
0.025164
0.189527
0.028654
0.186954
0.0322432
0.184088
0.035962
0.180919
0.0398382
0.177433
0.0438976
0.173612
0.0481642
0.169437
0.0526607
0.164881
0.0574083
0.15991
0.0624268
0.154485
0.0677341
0.148554
0.0733448
0.142054
0.0792692
0.134903
0.0855098
0.127005
0.0920563
0.118239
0.098876
0.108463
0.105899
0.0975148
0.112994
0.0852118
0.119933
0.0713701
0.126341
0.0558306
0.131646
0.0385272
0.135029
0.0195313
0.135644
0.131042
0.199707
0.00427465
0.19913
0.00842263
0.198281
0.0123071
0.197168
0.016049
0.195793
0.0197199
0.194161
0.0233737
0.192272
0.0270558
0.190124
0.0308054
0.187713
0.0346584
0.185031
0.0386473
0.182071
0.0428024
0.178819
0.0471522
0.175262
0.0517242
0.171379
0.056545
0.167148
0.061641
0.162536
0.0670383
0.157507
0.0727628
0.152011
0.0788397
0.145987
0.0852925
0.139354
0.0921407
0.132013
0.0993953
0.123835
0.107052
0.114656
0.115077
0.104263
0.123385
0.0923866
0.131808
0.0786866
0.14004
0.0627634
0.147569
0.0442354
0.153557
0.0228871
0.156992
0.153929
0.199723
0.00454769
0.199179
0.00896437
0.198381
0.0131037
0.197336
0.0170933
0.19605
0.0210068
0.194526
0.0248997
0.192766
0.0288192
0.190767
0.032807
0.188529
0.0369008
0.186044
0.0411351
0.183308
0.0455423
0.18031
0.0501536
0.177037
0.0549992
0.173475
0.0601095
0.169601
0.0655153
0.165392
0.0712486
0.160812
0.0773428
0.155818
0.0838327
0.150355
0.0907546
0.144349
0.0981452
0.137703
0.106039
0.130286
0.114467
0.121918
0.123443
0.112343
0.132958
0.101198
0.142952
0.0879603
0.153277
0.0719058
0.163623
0.0521359
0.173326
0.027831
0.181297
0.18176
0.199741
0.00480286
0.199232
0.00947006
0.198489
0.0138455
0.197518
0.0180636
0.196326
0.0221999
0.194916
0.0263114
0.19329
0.0304471
0.19145
0.0346504
0.189393
0.0389605
0.187118
0.0434138
0.184619
0.0480444
0.181891
0.0528854
0.178923
0.0579696
0.175704
0.06333
0.17222
0.0690014
0.168449
0.0750203
0.164365
0.0814263
0.159935
0.0882625
0.155112
0.0955765
0.149835
0.103421
0.144019
0.111854
0.137542
0.120942
0.130225
0.130759
0.121794
0.141388
0.111821
0.152924
0.0996229
0.165474
0.0841081
0.179137
0.063587
0.193847
0.0357948
0.209089
0.217555
0.19976
0.00503885
0.199289
0.00993722
0.198604
0.0145296
0.19771
0.0189562
0.196616
0.0232949
0.195325
0.0276039
0.193841
0.0319335
0.192165
0.0363285
0.1903
0.0408295
0.188243
0.0454739
0.185993
0.0502974
0.183548
0.0553342
0.180901
0.0606188
0.178046
0.0661865
0.174975
0.0720744
0.171674
0.0783223
0.168126
0.084974
0.16431
0.0920785
0.160194
0.0996919
0.155735
0.107879
0.15087
0.116719
0.145502
0.126308
0.139484
0.136776
0.132572
0.148299
0.124354
0.161141
0.114109
0.175719
0.100515
0.192731
0.0809971
0.213365
0.0502579
0.239828
0.267813
0.19978
0.0052545
0.19935
0.0103637
0.198724
0.0151529
0.197912
0.0197679
0.196919
0.0242881
0.195751
0.0287728
0.194413
0.0332734
0.192909
0.0378358
0.19124
0.0425012
0.189409
0.047308
0.187417
0.0522925
0.185265
0.0574897
0.182951
0.0629349
0.180476
0.0686643
0.177835
0.0747162
0.175027
0.0811319
0.172044
0.0879571
0.168879
0.0952437
0.165519
0.103052
0.161944
0.111454
0.158123
0.120538
0.154007
0.130424
0.14951
0.141271
0.144488
0.153321
0.138679
0.16695
0.131596
0.182801
0.122251
0.202076
0.108276
0.22734
0.0816545
0.266449
0.349467
-0.00850506
0.00850502
-0.0209077
0.0124025
-0.0357971
0.0148888
-0.0524799
0.0166818
-0.0703889
0.0179074
-0.0890666
0.0186754
-0.108115
0.0190452
-0.127156
0.0190373
-0.145806
0.0186455
-0.163655
0.0178442
-0.180256
0.0165968
-0.195125
0.0148644
-0.207744
0.012615
-0.217582
0.00983385
-0.224114
0.00652939
-0.226849
0.00273162
-0.225341
-0.00150887
-0.219256
-0.00608562
-0.2085
-0.010756
-0.193226
-0.0152728
-0.173798
-0.0194268
-0.150752
-0.0230425
-0.124767
-0.025982
-0.0966181
-0.0281443
-0.0671531
-0.0294603
-0.0372124
-0.0299355
-0.00719896
-0.0300079
0.0227619
-0.0299549
0.0525712
-0.0298028
-0.0341005
-0.0125629
0.0210678
-0.0266693
0.0265088
-0.0422798
0.0304988
-0.0591609
0.0335619
-0.0770027
0.0357475
-0.0954793
0.0371497
-0.114257
0.0378202
-0.132989
0.0377657
-0.151303
0.0369544
-0.168788
0.0353248
-0.184993
0.0327974
-0.199423
0.0292898
-0.211547
0.0247353
-0.220821
0.0191035
-0.22671
0.012415
-0.228721
0.00474029
-0.226449
-0.00378208
-0.219648
-0.0128881
-0.208278
-0.0221254
-0.192507
-0.0310425
-0.172697
-0.039235
-0.149378
-0.0463579
-0.123218
-0.0521386
-0.0949674
-0.0563908
-0.0653868
-0.0590361
-0.0351505
-0.0601666
-0.00484315
-0.0603096
0.0250446
-0.0598367
0.0547193
-0.0594711
-0.0647306
-0.0145256
0.0355933
-0.0297916
0.0417746
-0.0456271
0.0463338
-0.0621761
0.0501099
-0.0793834
0.0529532
-0.0970843
0.0548484
-0.115043
0.055776
-0.13297
0.0556893
-0.150526
0.0545058
-0.167317
0.0521112
-0.182898
0.0483736
-0.196771
0.0431589
-0.208398
0.0363582
-0.217219
0.0279199
-0.222684
0.0178768
-0.224298
0.00635238
-0.221649
-0.00643268
-0.214512
-0.0200263
-0.202891
-0.0337457
-0.186994
-0.0469386
-0.167202
-0.0590245
-0.144054
-0.0695031
-0.118212
-0.0779769
-0.0904146
-0.0841845
-0.0613914
-0.0880547
-0.0317855
-0.0897673
-0.00225032
-0.0898393
0.0266811
-0.0887621
0.0551869
-0.0879705
-0.092902
-0.0154756
0.0510689
-0.0311326
0.0574314
-0.0467421
0.0619428
-0.06265
0.0660169
-0.0789768
0.0692784
-0.0956954
0.0715647
-0.112668
0.0727458
-0.129669
0.0726866
-0.146393
0.071226
-0.162465
0.0681781
-0.177437
0.063341
-0.190797
0.0565151
-0.20198
0.0475373
-0.210389
0.0363251
-0.21544
0.0229248
-0.216623
0.00753249
-0.213541
-0.00951681
-0.206031
-0.0275363
-0.194173
-0.045604
-0.178217
-0.0628935
-0.158563
-0.0786767
-0.135745
-0.0923181
-0.110413
-0.103305
-0.083285
-0.111308
-0.0550689
-0.116266
-0.0263795
-0.118451
0.00196939
-0.118183
0.0295289
-0.116316
0.0564961
-0.114931
-0.118707
-0.0155251
0.0665939
-0.0308063
0.0727125
-0.0457324
0.0768683
-0.0607289
0.0810124
-0.0760004
0.0845484
-0.0916047
0.0871669
-0.107474
0.0886124
-0.123434
0.088643
-0.139213
0.0870004
-0.154448
0.0834094
-0.168693
0.0775819
-0.181422
0.0692398
-0.192044
0.0581554
-0.19993
0.0442071
-0.204466
0.0274573
-0.205138
0.00820227
-0.201578
-0.0130787
-0.193706
-0.0354084
-0.181684
-0.0576261
-0.165808
-0.0787682
-0.146483
-0.0980003
-0.124223
-0.114575
-0.0996557
-0.127869
-0.0734711
-0.137489
-0.0463562
-0.143376
-0.0189358
-0.145867
0.00789917
-0.145012
0.0337899
-0.142201
0.0589348
-0.14007
-0.142153
-0.0146297
0.0812235
-0.0288143
0.0868969
-0.0426097
0.0906633
-0.0564111
0.094813
-0.0704309
0.0985668
-0.0847627
0.101497
-0.0993781
0.103225
-0.114139
0.103401
-0.128806
0.101663
-0.143037
0.0976356
-0.156391
0.0909321
-0.168339
0.0811835
-0.178272
0.0680846
-0.185532
0.0514641
-0.189473
0.0313943
-0.189573
0.00830034
-0.185507
-0.0171459
-0.177314
-0.0436025
-0.165251
-0.0696892
-0.149651
-0.0943666
-0.130901
-0.116748
-0.109473
-0.136001
-0.0859619
-0.151376
-0.0610214
-0.162425
-0.0353168
-0.169076
-0.00954451
-0.171634
0.0155093
-0.17006
0.0395318
-0.166217
0.0626499
-0.163182
-0.163234
-0.0128374
0.0940609
-0.0252614
0.0993207
-0.0374836
0.102885
-0.0497734
0.107102
-0.062297
0.111089
-0.0751443
0.114342
-0.0883045
0.116383
-0.101668
0.116761
-0.115022
0.115014
-0.12805
0.11066
-0.14033
0.103208
-0.151335
0.0921842
-0.160445
0.0771911
-0.166978
0.0579935
-0.170251
0.0346642
-0.169733
0.00777986
-0.165158
-0.021722
-0.156727
-0.0520348
-0.144804
-0.0816124
-0.129736
-0.109433
-0.111861
-0.134622
-0.091576
-0.156283
-0.0694421
-0.173507
-0.0460576
-0.185806
-0.0220429
-0.193087
0.00169045
-0.195362
0.0246692
-0.193034
0.046737
-0.188279
0.0677018
-0.18414
-0.181961
-0.0102854
0.104346
-0.0203876
0.109423
-0.0306061
0.113103
-0.0410332
0.117528
-0.0517633
0.121818
-0.0628602
0.125437
-0.0743146
0.127835
-0.0860354
0.128479
-0.0978382
0.126813
-0.109436
0.122254
-0.120434
0.114201
-0.130319
0.102065
-0.138466
0.0853342
-0.144169
0.0636934
-0.14672
0.037212
-0.145555
0.00661228
-0.140494
-0.0267844
-0.131956
-0.0605736
-0.12041
-0.0931579
-0.10618
-0.123661
-0.0895153
-0.151285
-0.0707067
-0.175089
-0.0502825
-0.193928
-0.0287704
-0.207314
-0.00681522
-0.215037
0.0146281
-0.216801
0.035357
-0.213757
0.055366
-0.208282
0.074089
-0.202857
-0.198364
-0.00717981
0.111526
-0.0145403
0.116783
-0.0223538
0.120916
-0.0305473
0.125721
-0.0391452
0.130415
-0.0481783
0.134468
-0.0576291
0.137283
-0.0674198
0.138267
-0.0773922
0.136782
-0.0872949
0.132153
-0.0967704
0.123673
-0.105336
0.110627
-0.11237
0.0923643
-0.117139
0.0684592
-0.118923
0.0389931
-0.117095
0.00478179
-0.111617
-0.0322639
-0.10317
-0.0690212
-0.0922984
-0.10403
-0.0792425
-0.136716
-0.0641342
-0.166392
-0.0471348
-0.192086
-0.0287293
-0.21233
-0.00934558
-0.226694
0.0100407
-0.234419
0.0289925
-0.235748
0.0475641
-0.232324
0.0653529
-0.226066
0.081756
-0.219254
-0.212476
-0.00380339
0.115329
-0.00813195
0.121111
-0.0131834
0.125967
-0.0187765
0.131313
-0.0248879
0.136525
-0.0315188
0.141097
-0.0386405
0.144403
-0.0461831
0.145806
-0.0540106
0.144606
-0.0619086
0.140047
-0.0695723
0.131333
-0.076569
0.117621
-0.0823063
0.098098
-0.0860207
0.0721703
-0.0869832
0.0399528
-0.0844926
0.00228905
-0.078782
-0.037976
-0.070733
-0.0770708
-0.0608936
-0.113869
-0.0493535
-0.148255
-0.0361088
-0.179635
-0.0212351
-0.206957
-0.00508219
-0.22848
0.0116208
-0.243393
0.028271
-0.251065
0.044879
-0.252351
0.0611424
-0.248582
0.0765737
-0.241491
0.0905959
-0.23327
-0.224333
-0.000408248
0.115738
-0.00156814
0.122271
-0.00356354
0.127962
-0.00622693
0.133976
-0.00952158
0.139818
-0.0134248
0.144999
-0.0178992
0.148875
-0.0228771
0.150781
-0.028232
0.149958
-0.0337784
0.14559
-0.0392786
0.136829
-0.0443699
0.122708
-0.0485435
0.102268
-0.0510642
0.0746878
-0.0510773
0.0399632
-0.0479428
-0.000847607
-0.0424002
-0.0435201
-0.0352233
-0.0842483
-0.0268323
-0.12226
-0.0171355
-0.157951
-0.005941
-0.190827
0.00655911
-0.219455
0.019921
-0.241839
0.0337682
-0.257237
0.0479525
-0.265245
0.0621227
-0.266517
0.0759019
-0.262356
0.0888567
-0.25444
0.100454
-0.244861
-0.23397
0.00288777
0.11285
0.00490021
0.120259
0.00610657
0.126756
0.00659258
0.133489
0.00636655
0.140043
0.00545445
0.145909
0.00389726
0.15043
0.00176714
0.152909
-0.000815126
0.152537
-0.00368578
0.148457
-0.00664403
0.139784
-0.00942436
0.125485
-0.0116853
0.104526
-0.0128818
0.0758813
-0.0117855
0.0388642
-0.008129
-0.00450613
-0.00319713
-0.0484534
0.00256962
-0.0900158
0.0091535
-0.128844
0.0167627
-0.16556
0.0255079
-0.199571
0.0352608
-0.229205
0.0459764
-0.252551
0.0572844
-0.268541
0.0688846
-0.276841
0.0804378
-0.278065
0.0915959
-0.273509
0.101986
-0.264825
0.111135
-0.254005
-0.241424
0.00606511
0.106785
0.01127
0.115054
0.0156858
0.122339
0.0193747
0.1298
0.0222963
0.13712
0.0244567
0.143747
0.0259065
0.148978
0.0267458
0.152067
0.0271024
0.152177
0.027114
0.148442
0.0269571
0.139938
0.0268332
0.125606
0.0270694
0.104286
0.028323
0.0746248
0.0310497
0.036135
0.0343661
-0.00782446
0.0377616
-0.0518502
0.0414141
-0.0936688
0.0457855
-0.133215
0.0511201
-0.170893
0.0575078
-0.205957
0.0648732
-0.236568
0.0730622
-0.260737
0.0817568
-0.277232
0.0906613
-0.285742
0.0994838
-0.286883
0.107933
-0.281953
0.115709
-0.272595
0.122413
-0.260703
-0.246742
0.00925787
0.0975267
0.0176503
0.106661
0.0251609
0.114828
0.0320115
0.122948
0.0380467
0.131084
0.0432302
0.138562
0.0476479
0.144558
0.0514317
0.148281
0.0547162
0.148889
0.0576412
0.145514
0.0603683
0.137208
0.063082
0.122889
0.0660812
0.101284
0.0696168
0.0710865
0.0731488
0.0326006
0.0758487
-0.0105262
0.0778753
-0.0538781
0.0797665
-0.0955607
0.0821637
-0.135612
0.0854541
-0.174183
0.0897259
-0.210227
0.094847
-0.241687
0.10059
-0.266478
0.106672
-0.283311
0.112843
-0.291909
0.118886
-0.292922
0.124593
-0.287656
0.129748
-0.277744
0.134041
-0.26499
-0.249985
0.0127777
0.0847489
0.0241531
0.0952853
0.0345712
0.10441
0.0445432
0.112975
0.0535173
0.122109
0.0615082
0.13057
0.0686922
0.137372
0.0752355
0.141735
0.081281
0.142841
0.0869691
0.139823
0.0924429
0.131731
0.0978406
0.117488
0.103255
0.0958667
0.108405
0.0659343
0.112483
0.0285206
0.114891
-0.0129363
0.115898
-0.0548862
0.116385
-0.0960482
0.117238
-0.136466
0.118919
-0.175863
0.121435
-0.212742
0.124552
-0.244802
0.127995
-0.269918
0.131527
-0.28684
0.134985
-0.295364
0.138257
-0.296189
0.141241
-0.290634
0.143816
-0.280314
0.145765
-0.266933
-0.251237
0.207453
0.00545631
0.20705
0.0107623
0.206467
0.0157342
0.205711
0.0205224
0.204791
0.0252083
0.203713
0.0298517
0.202484
0.0345047
0.201108
0.0392137
0.199592
0.0440207
0.197939
0.0489642
0.196154
0.0540805
0.194242
0.0594047
0.192207
0.0649722
0.190055
0.0708187
0.187791
0.0769823
0.18542
0.0835037
0.18295
0.090428
0.180388
0.0978063
0.177742
0.105698
0.175021
0.114174
0.172236
0.123323
0.169397
0.133262
0.166514
0.144153
0.163606
0.156228
0.16071
0.169845
0.157945
0.185566
0.155724
0.204297
0.155938
0.227126
0.171081
0.251307
0.264223
0.256325
0.212495
0.00563872
0.212131
0.0111225
0.211604
0.0162581
0.210924
0.0212003
0.2101
0.0260319
0.20914
0.0308129
0.208051
0.0355956
0.20684
0.0404268
0.205516
0.0453482
0.204085
0.0503982
0.202556
0.0556124
0.200938
0.0610255
0.199242
0.0666713
0.197478
0.0725845
0.195662
0.0788009
0.193808
0.0853588
0.191937
0.0922999
0.190074
0.0996704
0.188249
0.107523
0.186502
0.11592
0.184888
0.124937
0.183482
0.134668
0.182401
0.145234
0.181837
0.156792
0.182144
0.169537
0.184053
0.183657
0.189177
0.199172
0.200556
0.215747
0.219517
0.232346
0.247928
0.235811
0.217661
0.00579957
0.217339
0.0114401
0.216875
0.0167188
0.216279
0.0217939
0.215561
0.0267492
0.214729
0.0316451
0.213793
0.0365334
0.212762
0.0414603
0.211645
0.0464674
0.210454
0.0515919
0.209202
0.0568685
0.2079
0.0623299
0.206566
0.0680082
0.205218
0.0739353
0.203877
0.0801436
0.202571
0.0866668
0.201331
0.0935405
0.200199
0.100803
0.199227
0.108496
0.198482
0.116666
0.198055
0.125364
0.198073
0.13465
0.198722
0.144584
0.200286
0.155228
0.203204
0.166619
0.208131
0.17873
0.215894
0.191409
0.227164
0.204477
0.241518
0.217993
0.229267
0.260179
0.222954
0.00593679
0.222678
0.0117111
0.222282
0.0171106
0.221777
0.022296
0.221174
0.0273517
0.220481
0.0323379
0.21971
0.037306
0.218871
0.042301
0.217978
0.0473635
0.217043
0.0525293
0.216084
0.0578311
0.215117
0.0632995
0.214165
0.0689636
0.213251
0.0748514
0.212406
0.0809907
0.211666
0.0874091
0.211073
0.0941342
0.210684
0.101194
0.210565
0.108616
0.210804
0.116427
0.211515
0.124653
0.212851
0.133314
0.215016
0.142419
0.218285
0.15196
0.223013
0.161891
0.229625
0.172118
0.238561
0.182473
0.250378
0.192661
0.266014
0.202357
0.209263
0.286017
0.228375
0.00604849
0.228149
0.0119316
0.227828
0.017428
0.227421
0.0226998
0.22694
0.0278312
0.226396
0.0328819
0.2258
0.0379025
0.225166
0.0429369
0.224508
0.0480236
0.223843
0.0531968
0.223191
0.0584863
0.222573
0.0639201
0.222016
0.0695236
0.22155
0.0753203
0.221211
0.0813321
0.221042
0.0875796
0.221097
0.0940815
0.221438
0.100854
0.222145
0.10791
0.223315
0.115258
0.225071
0.122898
0.227567
0.130819
0.230995
0.138992
0.23559
0.147365
0.241632
0.155849
0.249447
0.164304
0.259405
0.172515
0.271946
0.18012
0.287532
0.186772
0.191451
0.305345
0.233929
0.00613289
0.233757
0.0120984
0.233514
0.0176663
0.233212
0.0229991
0.23286
0.0281806
0.232472
0.0332691
0.232061
0.0383141
0.231641
0.0433578
0.231229
0.0484372
0.230845
0.0535838
0.23051
0.0588242
0.23025
0.0641827
0.230096
0.0696809
0.230082
0.0753373
0.230249
0.0811677
0.230645
0.087185
0.23133
0.0933986
0.232372
0.0998137
0.233855
0.106429
0.235877
0.113237
0.238559
0.120217
0.242044
0.127335
0.246499
0.134537
0.25212
0.141745
0.259126
0.148844
0.267754
0.155676
0.278238
0.162031
0.290741
0.167617
0.305332
0.172181
0.175284
0.3215
0.239619
0.00618848
0.239503
0.0122086
0.239343
0.0178212
0.23915
0.0231886
0.238934
0.0283935
0.238709
0.0334927
0.23849
0.0385337
0.238291
0.0435569
0.238133
0.048597
0.238036
0.0536831
0.238024
0.0588385
0.238127
0.0640832
0.238376
0.0694346
0.23881
0.0749059
0.239473
0.0805069
0.240418
0.086243
0.241703
0.0921152
0.2434
0.0981184
0.245591
0.10424
0.248371
0.110459
0.25185
0.11674
0.256152
0.123034
0.261416
0.129274
0.267794
0.135368
0.275441
0.141198
0.284503
0.146616
0.295092
0.151442
0.307244
0.155465
0.320944
0.158482
0.160276
0.335953
0.245446
0.00621395
0.245389
0.0122595
0.245316
0.0178893
0.245236
0.0232642
0.245162
0.0284652
0.245105
0.0335473
0.245083
0.038556
0.245111
0.0435293
0.245209
0.0484993
0.245402
0.053492
0.245715
0.0585279
0.246178
0.0636231
0.246825
0.0687901
0.247697
0.0740372
0.248838
0.0793681
0.250302
0.0847818
0.252148
0.0902719
0.254443
0.095825
0.257265
0.10142
0.260701
0.107025
0.264844
0.112598
0.269798
0.118082
0.275671
0.123402
0.28257
0.12847
0.290597
0.133173
0.299829
0.137384
0.310313
0.140959
0.322036
0.143742
0.33494
0.145578
0.146367
0.348849
0.251415
0.00620827
0.251418
0.0122492
0.251434
0.0178679
0.251472
0.0232224
0.251542
0.028392
0.251658
0.0334294
0.251835
0.0383777
0.252092
0.0432725
0.252449
0.0481428
0.252931
0.0530116
0.253564
0.0578963
0.25438
0.0628093
0.255414
0.067759
0.256705
0.0727488
0.258298
0.0777774
0.260245
0.0828378
0.262601
0.0879178
0.26543
0.0929982
0.268801
0.0980515
0.272787
0.103041
0.277467
0.10792
0.28292
0.11263
0.289227
0.117098
0.296457
0.121241
0.304669
0.124962
0.313898
0.128156
0.324147
0.130712
0.335374
0.132515
0.347492
0.133461
0.133508
0.360352
0.257528
0.00617073
0.257594
0.0121764
0.2577
0.017755
0.257857
0.0230614
0.258073
0.0281721
0.258363
0.0331375
0.258741
0.0379979
0.259227
0.0427865
0.25984
0.0475294
0.260607
0.0522464
0.261552
0.0569518
0.262709
0.0616545
0.264111
0.0663591
0.265797
0.0710649
0.267811
0.0757668
0.270198
0.0804534
0.27301
0.0851078
0.276304
0.0897068
0.280138
0.0942199
0.284573
0.0986084
0.28967
0.102825
0.295488
0.106814
0.30208
0.110508
0.309488
0.113834
0.317738
0.116713
0.326836
0.11906
0.336756
0.120793
0.347439
0.121832
0.358792
0.122109
0.121612
0.370688
0.263789
0.00610093
0.263917
0.0120403
0.264116
0.0175498
0.264392
0.0227801
0.264755
0.0278049
0.265218
0.0326717
0.265796
0.0374181
0.266507
0.0420746
0.267372
0.0466643
0.268415
0.0512044
0.269662
0.055706
0.271143
0.0601751
0.272891
0.0646128
0.274942
0.0690153
0.277337
0.073374
0.280118
0.0776752
0.283329
0.0818991
0.287018
0.0860206
0.291232
0.0900079
0.29602
0.0938229
0.301426
0.0974212
0.307491
0.100751
0.314245
0.103756
0.321708
0.106372
0.329885
0.108538
0.338758
0.110189
0.348287
0.111264
0.358408
0.111712
0.369027
0.111491
0.110603
0.380036
0.2702
0.00599879
0.270391
0.0118407
0.270682
0.0172523
0.271077
0.0223791
0.271586
0.0272915
0.272221
0.0320341
0.272995
0.0366418
0.273926
0.0411422
0.275034
0.0455558
0.276342
0.049897
0.277874
0.0541744
0.279659
0.0583912
0.281728
0.062546
0.284112
0.0666327
0.286848
0.0706402
0.289972
0.0745531
0.293522
0.0783508
0.297537
0.0820079
0.302054
0.0854937
0.307107
0.0887725
0.312726
0.0918041
0.318936
0.0945435
0.325751
0.0969424
0.333174
0.0989514
0.341193
0.100522
0.349777
0.101606
0.358879
0.102163
0.368433
0.10216
0.378351
0.101573
0.100415
0.38854
0.276765
0.00586456
0.277019
0.0115782
0.277401
0.0168633
0.277914
0.0218598
0.278566
0.0266344
0.279368
0.0312286
0.280332
0.0356747
0.281475
0.0399973
0.282816
0.0442146
0.284374
0.0483385
0.286174
0.0523752
0.28824
0.056326
0.2906
0.0601876
0.293282
0.063952
0.296317
0.0676072
0.299734
0.071137
0.303566
0.074521
0.307841
0.0777349
0.312586
0.0807505
0.317825
0.0835359
0.323575
0.0860564
0.329847
0.0882741
0.336642
0.0901496
0.34395
0.0916451
0.351749
0.0927244
0.360001
0.0933547
0.368657
0.0935088
0.377649
0.093168
0.386901
0.0923213
0.090988
0.396329
0.283488
0.0056988
0.283803
0.0112537
0.284274
0.0163847
0.284902
0.021225
0.285694
0.0258375
0.286657
0.0302608
0.287805
0.0345242
0.28915
0.0386499
0.290709
0.0426536
0.292502
0.0465452
0.294548
0.0503291
0.29687
0.0540049
0.29949
0.057568
0.302434
0.0610096
0.305725
0.0643174
0.309388
0.0674756
0.313446
0.0704647
0.31792
0.0732627
0.322828
0.0758444
0.328183
0.0781826
0.333993
0.0802489
0.340257
0.0820122
0.346967
0.0834416
0.354105
0.0845094
0.361641
0.0851901
0.369535
0.0854621
0.377735
0.0853093
0.386181
0.084723
0.394802
0.0837012
0.0822658
0.403525
0.290372
0.00550235
0.290747
0.0108691
0.291304
0.015819
0.292043
0.0204783
0.292969
0.024906
0.294087
0.0291376
0.295408
0.0331995
0.296944
0.0371116
0.298708
0.0408876
0.300717
0.0445355
0.302987
0.0480582
0.305538
0.0514543
0.308388
0.0547185
0.311557
0.0578419
0.315063
0.0608124
0.318924
0.0636153
0.323157
0.0662331
0.327775
0.0686463
0.332788
0.0708335
0.338199
0.0727726
0.344009
0.0744406
0.35021
0.0758133
0.356786
0.0768677
0.363713
0.0775846
0.370957
0.0779471
0.378478
0.0779423
0.386226
0.0775623
0.394145
0.0768054
0.402171
0.0756756
0.0741958
0.410242
0.29742
0.00527634
0.297853
0.0104263
0.298493
0.0151694
0.299339
0.0196244
0.300393
0.0238462
0.301658
0.0278671
0.303142
0.031711
0.304855
0.0353956
0.306807
0.0389325
0.309013
0.0423285
0.311485
0.0455854
0.314237
0.0487012
0.317286
0.0516702
0.320644
0.054484
0.324325
0.0571315
0.328342
0.0595994
0.332704
0.0618725
0.337417
0.0639345
0.342484
0.0657679
0.347902
0.0673554
0.353665
0.0686791
0.35976
0.0697207
0.366164
0.0704648
0.372852
0.0708987
0.379788
0.0710124
0.386932
0.0707995
0.394237
0.0702582
0.401651
0.0693915
0.40912
0.0682072
0.066728
0.416589
0.304637
0.0050221
0.305124
0.0099281
0.305844
0.01444
0.306792
0.0186688
0.307965
0.0226652
0.309368
0.0264585
0.311004
0.0300701
0.312881
0.0335155
0.315005
0.0368051
0.317387
0.0399441
0.320037
0.0429339
0.322966
0.045772
0.326182
0.0484531
0.329697
0.0509695
0.333517
0.0533112
0.33765
0.055467
0.342099
0.0574242
0.346865
0.0591696
0.351944
0.0606895
0.357329
0.0619712
0.363008
0.0630013
0.368963
0.063767
0.375171
0.0642586
0.381602
0.0644689
0.388222
0.0643932
0.394993
0.06403
0.40187
0.0633816
0.408808
0.0624542
0.415758
0.0612577
0.059814
0.422673
0.312027
0.00474115
0.312566
0.00937723
0.31336
0.0136349
0.314403
0.0176172
0.31569
0.0213706
0.317221
0.0249214
0.318997
0.0282885
0.321022
0.0314858
0.323301
0.0345222
0.325841
0.037402
0.328646
0.040126
0.331725
0.0426921
0.335082
0.0450952
0.338722
0.0473287
0.342648
0.0493843
0.346863
0.0512526
0.351364
0.0529235
0.356147
0.0543868
0.361204
0.0556325
0.366524
0.0566516
0.372092
0.0574351
0.377885
0.0579747
0.38388
0.058265
0.390046
0.0583033
0.396352
0.0580888
0.402759
0.0576234
0.409229
0.0569123
0.41572
0.0559636
0.42219
0.0547882
0.0534066
0.428597
0.319592
0.00443512
0.32018
0.00877685
0.321045
0.0127589
0.322177
0.0164761
0.323569
0.0199705
0.325217
0.0232657
0.327121
0.0263784
0.329281
0.0293207
0.331699
0.0321003
0.334376
0.0347209
0.337317
0.0371831
0.340522
0.039485
0.343993
0.0416222
0.347731
0.0435893
0.351735
0.0453795
0.356002
0.0469854
0.360525
0.0483995
0.365297
0.0496144
0.370306
0.050623
0.375538
0.05142
0.380974
0.0519998
0.386592
0.0523575
0.392367
0.0524914
0.398268
0.052402
0.404266
0.0520914
0.410326
0.0515639
0.416412
0.0508262
0.422489
0.0498875
0.428518
0.0487591
0.0474597
0.434465
0.327339
0.0041057
0.327972
0.00813016
0.328903
0.0118167
0.330117
0.0152516
0.331606
0.0184729
0.333362
0.0215014
0.335382
0.0243515
0.337663
0.0270339
0.340203
0.0295552
0.343001
0.0319187
0.346056
0.0341248
0.349366
0.0361719
0.35293
0.0380567
0.356742
0.0397747
0.360799
0.0413208
0.365094
0.0426896
0.369617
0.0438756
0.374356
0.044874
0.379298
0.0456803
0.384426
0.0462921
0.389719
0.0467065
0.395155
0.0469215
0.400709
0.0469381
0.406352
0.0467589
0.412056
0.0463879
0.417789
0.0458311
0.423519
0.045096
0.429214
0.0441921
0.434842
0.0431304
0.0419278
0.440374
0.33527
0.00375454
0.335947
0.00744027
0.336938
0.0108128
0.338229
0.0139501
0.339806
0.0168858
0.341661
0.019638
0.343786
0.0222192
0.346174
0.0246385
0.348822
0.0269016
0.351725
0.0290114
0.354877
0.0309684
0.358274
0.0327715
0.36191
0.034418
0.365777
0.0359047
0.369868
0.0372278
0.374172
0.0383838
0.378676
0.039369
0.383368
0.0401807
0.38823
0.0408167
0.393245
0.0412765
0.398391
0.0415597
0.403646
0.0416662
0.408985
0.0415988
0.414382
0.0413617
0.41981
0.0409602
0.425239
0.0404009
0.430643
0.0396917
0.435993
0.0388419
0.441261
0.0378618
0.0367665
0.446422
0.343392
0.00338316
0.344108
0.00671009
0.345156
0.00975165
0.346517