/*--------------------------------*- C++ -*----------------------------------*\
| =========                 |                                                 |
| \\      /  F ield         | OpenFOAM: The Open Source CFD Toolbox           |
|  \\    /   O peration     | Version:  dev                                   |
|   \\  /    A nd           | Web:      www.OpenFOAM.org                      |
|    \\/     M anipulation  |                                                 |
\*---------------------------------------------------------------------------*/
FoamFile
{
    version     2.0;
    format      ascii;
    class       volVectorField;
    location    "4.59";
    object      Force;
}
// * * * * * * * * * * * * * * * * * * * * * * * * * * * * * * * * * * * * * //

dimensions      [1 1 -2 0 0 0 0];

internalField   uniform (0 0 0);

boundaryField
{
    inlet
    {
        type            calculated;
        value           nonuniform 0();
    }
    outlet
    {
        type            calculated;
        value           nonuniform 0();
    }
    flap
    {
        type            calculated;
        value           nonuniform List<vector> 
33
(
(3.7161 1.86737e-17 -0.200182)
(3.66498 -4.77932e-18 -0.417779)
(3.60523 6.21647e-22 -0.604282)
(3.53866 4.77665e-18 -0.727601)
(3.46772 1.4466e-22 -0.799583)
(3.39375 -9.38229e-18 -0.830113)
(3.31811 3.29121e-17 -0.829294)
(3.24151 3.07845e-23 -0.805904)
(3.15927 2.49688e-17 -0.76675)
(3.06503 1.60293e-17 -0.716936)
(2.95024 -1.17549e-38 -0.660022)
(2.80028 5.07122e-23 -0.598753)
(2.59013 -4.99389e-23 -0.533246)
(2.26968 7.34684e-40 -0.455043)
(1.72005 1.47018e-17 -0.342074)
(0.140476 -4.59818e-19 0.676041)
(0.0881678 9.14441e-22 0.440407)
(0.0344684 -5.24e-22 0.174829)
(-0.0880924 -6.74417e-40 0.00473363)
(-0.0878587 -1.81117e-26 0.00997924)
(-0.0868796 2.80092e-23 0.0144486)
(-0.0852935 -2.71761e-23 0.0173125)
(-0.0832602 1.56469e-17 0.0188861)
(-0.0810509 0 0.0194364)
(-0.0789417 2.20864e-19 0.0192745)
(-0.0771102 1.86383e-24 0.0186789)
(-0.075642 -2.09929e-19 0.0178549)
(-0.0744945 2.05994e-19 0.0169362)
(-0.0735529 -1.01463e-19 0.0160237)
(-0.0723825 -1.6551e-17 0.0151464)
(-0.0697004 1.6737e-17 0.0141646)
(-0.0625878 -1.7104e-17 0.0126228)
(-0.0437297 1.82805e-17 0.00894058)
)
;
    }
    upperWall
    {
        type            calculated;
        value           nonuniform 0();
    }
    lowerWall
    {
        type            calculated;
        value           uniform (0 0 0);
    }
    frontAndBack
    {
        type            empty;
    }
    procBoundary4to1
    {
        type            processor;
        value           uniform (0 0 0);
    }
    procBoundary4to2
    {
        type            processor;
        value           uniform (0 0 0);
    }
    procBoundary4to3
    {
        type            processor;
        value           uniform (0 0 0);
    }
    procBoundary4to5
    {
        type            processor;
        value           uniform (0 0 0);
    }
}


// ************************************************************************* //
