/*--------------------------------*- C++ -*----------------------------------*\
| =========                 |                                                 |
| \\      /  F ield         | OpenFOAM: The Open Source CFD Toolbox           |
|  \\    /   O peration     | Version:  dev                                   |
|   \\  /    A nd           | Web:      www.OpenFOAM.org                      |
|    \\/     M anipulation  |                                                 |
\*---------------------------------------------------------------------------*/
FoamFile
{
    version     2.0;
    format      ascii;
    class       volScalarField;
    location    "4.59";
    object      p;
}
// * * * * * * * * * * * * * * * * * * * * * * * * * * * * * * * * * * * * * //

dimensions      [0 2 -2 0 0 0 0];

internalField   nonuniform List<scalar> 
465
(
167.594
169.652
171.505
173.098
174.385
175.331
175.921
176.171
176.278
167.433
169.507
171.383
173.005
174.323
175.299
175.897
176.18
176.469
166.81
168.87
170.749
172.397
173.77
174.84
175.605
176.142
176.672
165.863
167.88
169.74
171.399
172.826
174.005
174.949
175.683
176.346
164.636
166.587
168.402
170.049
171.503
172.751
173.787
174.575
175.165
163.151
165.006
166.744
168.339
169.769
171.011
172.04
172.775
173.165
161.413
163.141
164.762
166.253
167.593
168.753
169.688
170.316
170.482
159.421
160.982
162.438
163.768
164.948
165.946
166.714
167.204
167.173
157.17
158.52
159.755
160.853
161.793
162.546
163.067
163.374
163.164
154.656
155.743
156.69
157.475
158.075
158.475
158.635
158.668
158.249
151.881
152.647
153.23
153.6
153.732
153.622
153.242
152.814
152.055
148.855
149.237
149.368
149.202
148.7
147.852
146.634
145.385
143.929
145.604
145.538
145.125
144.288
142.943
141.034
138.486
135.716
132.678
142.167
141.601
140.563
138.921
136.505
133.122
128.487
122.831
115.877
138.608
137.511
135.798
133.263
129.6
124.353
116.684
105.699
87.6354
4.60495
4.6017
4.54758
4.45033
4.3382
4.2307
4.1352
4.05271
3.98187
3.92044
4.55743
4.54837
4.48815
4.3937
4.28931
4.19055
4.10341
4.02848
3.96411
3.90792
4.48106
4.47148
4.40456
4.31392
4.22003
4.13365
4.05883
3.99534
3.94098
3.89312
4.37821
4.37508
4.30253
4.21781
4.1369
4.06603
4.00694
3.95817
3.91685
3.88002
4.2555
4.26686
4.19233
4.11777
4.05289
4.00032
3.95967
3.92799
3.90157
3.87727
4.1237
4.15592
4.08421
4.02426
3.97831
3.94627
3.92569
3.91225
3.90165
3.89051
3.9961
4.05118
3.98728
3.94587
3.92088
3.91051
3.91038
3.91518
3.92016
3.92183
3.8843
3.95991
3.90824
3.88864
3.8853
3.89629
3.91598
3.93821
3.95781
3.97122
3.79244
3.88877
3.85181
3.85259
3.87062
3.90292
3.94223
3.9813
4.01455
4.03846
3.7191
3.83526
3.81404
3.832
3.87238
3.92769
3.98769
4.04371
4.0899
4.1231
3.66023
3.78178
3.77604
3.81513
3.88416
3.96765
4.05121
4.12499
4.18357
4.22482
3.59398
3.69066
3.70737
3.7843
3.89754
4.01945
4.13163
4.22466
4.29513
4.34312
3.45374
3.492
3.56543
3.71993
3.90592
4.082
4.22952
4.34323
4.4244
4.47752
3.09047
3.12269
3.31355
3.61743
3.91706
4.16213
4.35038
4.48381
4.57178
4.62798
2.13041
2.39187
2.87548
3.50812
3.98942
4.29024
4.50741
4.65413
4.73875
4.79561
134.935
133.301
130.911
127.482
122.56
115.364
104.203
85.2563
31.0657
131.198
129.066
126.075
121.906
116.052
107.665
95.1378
77.807
54.167
127.51
124.966
121.529
116.915
110.729
102.502
91.6598
78.9699
65.7569
123.959
121.112
117.407
112.63
106.535
98.9108
89.513
78.3581
65.5081
117.563
113.732
108.964
103.099
96.0019
87.5025
77.4759
66.3257
105.817
100.249
93.6929
86.0943
77.47
68.2925
91.9304
85.1955
77.7627
69.9704
78.059
71.313
-68.4528
-44.4708
-17.5834
35.7383
29.7465
20.9645
50.1217
38.7704
29.1014
50.7234
41.41
34.6371
55.2618
48.0541
42.3076
59.5141
53.5204
48.4579
62.5488
57.4493
53.102
64.9599
60.6047
56.8888
63.231
60.0236
0.784908
0.54405
1.92398
3.57069
4.25322
4.44518
4.69741
4.88321
4.9341
6.16974
2.22349
4.45815
5.39935
4.65444
4.34003
5.03054
5.32099
5.13072
16.3326
8.85589
7.02648
5.54209
4.93041
5.84703
6.55593
5.81432
4.89704
25.5937
17.2796
12.571
9.52541
7.80904
7.14265
6.34653
5.45877
5.35046
34.34
26.0537
19.8581
15.3346
12.1266
9.9129
8.26543
7.1372
6.65499
41.6077
34.0236
27.2694
21.7285
17.44
14.2115
11.7903
9.99665
8.73387
47.4197
40.7991
34.1358
28.1915
23.3015
19.3766
16.2318
13.7225
11.7615
52.1409
46.4215
40.1951
34.2961
29.1877
24.8616
21.2048
18.1392
15.6133
55.9799
51.0172
45.3562
39.7581
34.7083
30.2509
26.3265
22.9026
19.9591
54.758
49.6688
44.4843
39.6604
35.2652
31.2695
27.6673
24.4629
43.9829
39.7629
35.8292
32.1892
28.862
39.9126
36.3294
32.9823
36.7318
)
;

boundaryField
{
    inlet
    {
        type            zeroGradient;
    }
    outlet
    {
        type            fixedValue;
        value           nonuniform 0();
    }
    flap
    {
        type            zeroGradient;
    }
    upperWall
    {
        type            zeroGradient;
    }
    lowerWall
    {
        type            zeroGradient;
    }
    frontAndBack
    {
        type            empty;
    }
    procBoundary4to1
    {
        type            processor;
        value           nonuniform List<scalar> 
30
(
120.605
120.605
114.331
110.478
110.478
103.132
97.9133
97.9133
90.5554
84.5592
84.5592
78.3611
72.4778
66.9918
66.9918
65.4063
62.6065
59.1023
59.1023
57.8206
53.2529
48.5041
48.5041
47.6984
43.7063
43.7063
43.5032
40.0316
40.0316
40.081
)
;
    }
    procBoundary4to2
    {
        type            processor;
        value           nonuniform List<scalar> 
11
(
5.18026
6.43841
6.6913
7.86366
10.2584
13.5624
17.4598
21.6471
25.8565
29.8896
33.6262
)
;
    }
    procBoundary4to3
    {
        type            processor;
        value           nonuniform List<scalar> 
19
(
165.386
165.216
164.62
163.73
162.585
161.206
159.602
157.774
155.724
153.451
150.961
148.267
145.391
142.366
139.238
136.003
132.686
129.37
126.121
)
;
    }
    procBoundary4to5
    {
        type            processor;
        value           nonuniform List<scalar> 
18
(
3.86598
3.85754
3.84944
3.84528
3.8526
3.87644
3.9179
3.97632
4.05126
4.1422
4.24872
4.37016
4.50586
4.65587
4.82227
4.98148
4.98148
5.13254
)
;
    }
}


// ************************************************************************* //
