/*--------------------------------*- C++ -*----------------------------------*\
| =========                 |                                                 |
| \\      /  F ield         | OpenFOAM: The Open Source CFD Toolbox           |
|  \\    /   O peration     | Version:  dev                                   |
|   \\  /    A nd           | Web:      www.OpenFOAM.org                      |
|    \\/     M anipulation  |                                                 |
\*---------------------------------------------------------------------------*/
FoamFile
{
    version     2.0;
    format      ascii;
    class       pointVectorField;
    location    "3";
    object      pointDisplacement;
}
// * * * * * * * * * * * * * * * * * * * * * * * * * * * * * * * * * * * * * //

dimensions      [0 1 0 0 0 0 0];

internalField   nonuniform List<vector> 
1034
(
(0 0 0)
(0.0166563 0 -0.000695211)
(0.0317142 0 -0.00133024)
(0 0 0)
(0.0166563 0 -0.000695211)
(0.0317142 0 -0.00133024)
(0 0 0)
(0.016826 0 -0.000739374)
(0.0320576 0 -0.0014157)
(0.0453733 0 -0.00202031)
(0 0 0)
(0.0169999 0 -0.0007831)
(0.0324054 0 -0.00150027)
(0.0459028 0 -0.00214284)
(0.0577429 0 -0.00272567)
(0 0 0)
(0.0171733 0 -0.000825768)
(0.0327518 0 -0.00158283)
(0.0464284 0 -0.00226257)
(0.058458 0 -0.00288078)
(0.0690755 0 -0.0034504)
(0 0 0)
(0.0173424 0 -0.000866973)
(0.0330897 0 -0.00166262)
(0.0469401 0 -0.00237832)
(0.0591522 0 -0.00303076)
(0.0699624 0 -0.00363365)
(0.0795758 0 -0.00419785)
(0 0 0)
(0.0175033 0 -0.000906287)
(0.0334121 0 -0.00173883)
(0.0474284 0 -0.00248896)
(0.0598143 0 -0.00317423)
(0.0708075 0 -0.00380904)
(0.0806142 0 -0.00440491)
(0.0894159 0 -0.00497122)
(0 0 0)
(0.0176525 0 -0.000943261)
(0.0337121 0 -0.00181061)
(0.0478841 0 -0.00259331)
(0.0604332 0 -0.00330969)
(0.0715977 0 -0.00397477)
(0.0815842 0 -0.0046006)
(0.0905735 0 -0.00519704)
(0.0987265 0 -0.00577242)
(0.106187 0 -0.00633402)
(0 0 0)
(0.0177865 0 -0.000977428)
(0.0339833 0 -0.00187706)
(0.0482985 0 -0.00269009)
(0.0609979 0 -0.00343552)
(0.0723201 0 -0.00412889)
(0.0824709 0 -0.00478268)
(0.09163 0 -0.0054071)
(0.0999558 0 -0.00601071)
(0.107589 0 -0.00660092)
(0.114655 0 -0.00718429)
(0 0 0)
(0.0179021 0 -0.00100831)
(0.0342198 0 -0.00193727)
(0.0486632 0 -0.002778)
(0.0614982 0 -0.00355005)
(0.0729627 0 -0.00426938)
(0.0832609 0 -0.0049488)
(0.0925706 0 -0.00559874)
(0.101047 0 -0.00622792)
(0.108828 0 -0.00684381)
(0.116035 0 -0.00745294)
(0.122773 0 -0.00806112)
(0.129136 0 -0.00867372)
(0 0 0)
(0.0179964 0 -0.00103541)
(0.0344162 0 -0.0019903)
(0.0489708 0 -0.00285571)
(0.061925 0 -0.00365157)
(0.0735147 0 -0.00439417)
(0.0839422 0 -0.00509652)
(0.0933824 0 -0.00576921)
(0.101988 0 -0.00642102)
(0.109891 0 -0.00705937)
(0.117211 0 -0.00769067)
(0.124047 0 -0.00832053)
(0.130488 0 -0.00895399)
(0.136609 0 -0.00959556)
(0.142472 0 -0.0102493)
(0 0 0)
(0.0180668 0 -0.00105824)
(0.0345675 0 -0.0020352)
(0.0492146 0 -0.00292185)
(0.06227 0 -0.00373834)
(0.0739669 0 -0.00450115)
(0.0845045 0 -0.00522342)
(0.0940546 0 -0.00591577)
(0.102766 0 -0.00658695)
(0.110768 0 -0.00724429)
(0.118174 0 -0.00789398)
(0.12508 0 -0.00854138)
(0.13157 0 -0.00919111)
(0.137714 0 -0.00984718)
(0.143567 0 -0.0105131)
(0.149175 0 -0.0111915)
(0 0 0)
(0.0181113 0 -0.00107631)
(0.0346699 0 -0.00207104)
(0.049389 0 -0.00297506)
(0.0625264 0 -0.00380861)
(0.0743114 0 -0.00458823)
(0.0849395 0 -0.00532706)
(0.0945789 0 -0.00603568)
(0.103374 0 -0.00672273)
(0.111452 0 -0.00739536)
(0.118919 0 -0.00805952)
(0.12587 0 -0.00872022)
(0.132382 0 -0.00938167)
(0.138522 0 -0.0100474)
(0.144341 0 -0.0107202)
(0.149881 0 -0.0114023)
(0.155171 0 -0.0120952)
(0.160227 0 -0.0127996)
(0 0 0)
(0.0181282 0 -0.00108913)
(0.0347202 0 -0.00209686)
(0.0494898 0 -0.00301399)
(0.062689 0 -0.00386066)
(0.0745425 0 -0.00465333)
(0.0852414 0 -0.00540505)
(0.0949496 0 -0.00612626)
(0.103808 0 -0.00682544)
(0.111939 0 -0.00750948)
(0.119445 0 -0.00818405)
(0.126417 0 -0.0088538)
(0.132929 0 -0.00952251)
(0.139043 0 -0.0101932)
(0.144809 0 -0.0108681)
(0.150264 0 -0.0115489)
(0.155437 0 -0.0122364)
(0.160344 0 -0.012931)
(0.164995 0 -0.0136322)
(0.169388 0 -0.0143383)
(0 0 0)
(0.0181164 0 -0.00109625)
(0.0347164 0 -0.00211179)
(0.0495141 0 -0.00303736)
(0.0627545 0 -0.00389284)
(0.0746566 0 -0.00469448)
(0.0854067 0 -0.00545511)
(0.095164 0 -0.00618499)
(0.104066 0 -0.00689233)
(0.112229 0 -0.00758376)
(0.119754 0 -0.00826461)
(0.126728 0 -0.00893915)
(0.13322 0 -0.00961075)
(0.139291 0 -0.0102819)
(0.144988 0 -0.0109545)
(0.150347 0 -0.0116296)
(0.155394 0 -0.0123075)
(0.160149 0 -0.0129881)
(0.164622 0 -0.0136705)
(0.168812 0 -0.0143526)
(0.172714 0 -0.0150313)
(0.176319 0 -0.0157034)
(0 0 0)
(0.0180755 0 -0.00109724)
(0.0346575 0 -0.00211498)
(0.0494603 0 -0.00304392)
(0.062721 0 -0.00390352)
(0.074652 0 -0.0047097)
(0.0854339 0 -0.00547498)
(0.0952213 0 -0.00620934)
(0.104147 0 -0.00692067)
(0.112324 0 -0.00761529)
(0.11985 0 -0.00829819)
(0.126808 0 -0.00897325)
(0.133265 0 -0.00964343)
(0.139279 0 -0.0103108)
(0.144895 0 -0.0109769)
(0.150149 0 -0.0116421)
(0.155069 0 -0.0123067)
(0.159672 0 -0.0129698)
(0.16397 0 -0.0136302)
(0.167968 0 -0.0142859)
(0.171666 0 -0.0149341)
(0.175059 0 -0.0155715)
(0 0 0)
(0.0180055 0 -0.00109166)
(0.0345432 0 -0.00210553)
(0.049328 0 -0.00303235)
(0.0625881 0 -0.00389102)
(0.0745283 0 -0.00469696)
(0.0853233 0 -0.00546231)
(0.0951226 0 -0.00619667)
(0.104055 0 -0.00690761)
(0.112229 0 -0.00760108)
(0.11974 0 -0.0082817)
(0.126666 0 -0.00895299)
(0.133075 0 -0.00961753)
(0.139021 0 -0.010277)
(0.144549 0 -0.0109325)
(0.149694 0 -0.0115843)
(0.154485 0 -0.0122321)
(0.15894 0 -0.012875)
(0.163073 0 -0.0135114)
(0.166894 0 -0.0141394)
(0.170405 0 -0.0147564)
(0.173608 0 -0.0153593)
(0 0 0)
(0.0179067 0 -0.00107906)
(0.0343743 0 -0.0020826)
(0.0491186 0 -0.00300143)
(0.0623576 0 -0.00385372)
(0.074288 0 -0.0046543)
(0.0850783 0 -0.00541485)
(0.0948727 0 -0.00614452)
(0.103795 0 -0.00685048)
(0.111952 0 -0.00753833)
(0.119433 0 -0.0082123)
(0.126317 0 -0.00887557)
(0.132667 0 -0.00953036)
(0.138537 0 -0.0101781)
(0.143972 0 -0.0108194)
(0.149008 0 -0.0114544)
(0.153671 0 -0.0120825)
(0.157985 0 -0.0127027)
(0.161965 0 -0.0133134)
(0.165622 0 -0.0139127)
(0.168964 0 -0.0144981)
(0 0 0)
(0.0177804 0 -0.00105906)
(0.0341531 0 -0.00204542)
(0.0488351 0 -0.00295002)
(0.0620335 0 -0.00379014)
(0.0739364 0 -0.00457994)
(0.0847054 0 -0.00533052)
(0.0944795 0 -0.00605055)
(0.103378 0 -0.00674679)
(0.111504 0 -0.00742441)
(0.118945 0 -0.00808731)
(0.125776 0 -0.00873831)
(0.13206 0 -0.00937931)
(0.13785 0 -0.0100114)
(0.14319 0 -0.0106351)
(0.148117 0 -0.0112502)
(0.152658 0 -0.0118561)
(0.156838 0 -0.0124515)
(0.160674 0 -0.0130351)
(0.164182 0 -0.0136049)
(0.167371 0 -0.0141585)
(0 0 0)
(0.0176283 0 -0.00103132)
(0.0338831 0 -0.00199329)
(0.0484824 0 -0.00287703)
(0.061622 0 -0.00369886)
(0.0734809 0 -0.00447213)
(0.0842137 0 -0.0052073)
(0.093954 0 -0.00591252)
(0.102817 0 -0.00659407)
(0.110901 0 -0.00725673)
(0.118293 0 -0.00790405)
(0.125064 0 -0.0085385)
(0.131277 0 -0.00916171)
(0.136984 0 -0.00977457)
(0.14223 0 -0.0103773)
(0.147049 0 -0.0109696)
(0.151474 0 -0.0115507)
(0.155529 0 -0.0121195)
(0.159233 0 -0.0126745)
(0.162605 0 -0.013214)
(0.165656 0 -0.0137358)
(0 0 0)
(0.0174532 0 -0.000995513)
(0.033569 0 -0.00192553)
(0.0480672 0 -0.00278147)
(0.0611315 0 -0.00357854)
(0.0729317 0 -0.00432921)
(0.0836152 0 -0.00504324)
(0.0933098 0 -0.0057282)
(0.102126 0 -0.0063899)
(0.110161 0 -0.0070327)
(0.117496 0 -0.00765978)
(0.124202 0 -0.00827334)
(0.130341 0 -0.00887472)
(0.135965 0 -0.0094646)
(0.141117 0 -0.0100431)
(0.145835 0 -0.0106097)
(0.15015 0 -0.0111637)
(0.154088 0 -0.0117039)
(0.157672 0 -0.0122291)
(0.16092 0 -0.0127375)
(0.163847 0 -0.0132272)
(0 0 0)
(0.0172582 0 -0.000951338)
(0.0332169 0 -0.00184153)
(0.0475977 0 -0.00266237)
(0.0605725 0 -0.00342787)
(0.0723013 0 -0.00414955)
(0.0829243 0 -0.00483641)
(0.0925635 0 -0.0054954)
(0.101326 0 -0.00613184)
(0.109303 0 -0.00674966)
(0.116577 0 -0.0073517)
(0.123216 0 -0.00793986)
(0.12928 0 -0.00851526)
(0.134821 0 -0.0090784)
(0.139884 0 -0.00962924)
(0.144505 0 -0.0101673)
(0.148717 0 -0.0106917)
(0.152548 0 -0.0112015)
(0.156021 0 -0.0116953)
(0.159158 0 -0.0121717)
(0.161974 0 -0.0126288)
(0 0 0)
(0.0170472 0 -0.000898523)
(0.0328339 0 -0.00174071)
(0.0470843 0 -0.00251882)
(0.0599578 0 -0.00324561)
(0.0716049 0 -0.00393157)
(0.0821583 0 -0.00458489)
(0.0917347 0 -0.0052119)
(0.100436 0 -0.00581738)
(0.108353 0 -0.00640485)
(0.115562 0 -0.00697681)
(0.122132 0 -0.00753488)
(0.128122 0 -0.00807998)
(0.133583 0 -0.00861245)
(0.13856 0 -0.00913215)
(0.14309 0 -0.00963856)
(0.147207 0 -0.0101309)
(0.15094 0 -0.010608)
(0.154314 0 -0.0110688)
(0.157351 0 -0.0115121)
(0.160068 0 -0.011936)
(0 0 0)
(0.0168248 0 -0.000836815)
(0.0324287 0 -0.00162253)
(0.0465388 0 -0.00234996)
(0.0593023 0 -0.00303054)
(0.0708601 0 -0.0036737)
(0.0813375 0 -0.00428678)
(0.0908456 0 -0.00487545)
(0.0994826 0 -0.00544395)
(0.107335 0 -0.00599539)
(0.114479 0 -0.00653193)
(0.12098 0 -0.00705494)
(0.126898 0 -0.00756515)
(0.132283 0 -0.00806276)
(0.137179 0 -0.00854755)
(0.141626 0 -0.00901899)
(0.145656 0 -0.00947627)
(0.149301 0 -0.00991842)
(0.152585 0 -0.0103444)
(0.155533 0 -0.010753)
(0.158162 0 -0.0111426)
(0 0 0)
(0.0165961 0 -0.000765976)
(0.032011 0 -0.00148646)
(0.045975 0 -0.00215493)
(0.0586232 0 -0.00278147)
(0.070087 0 -0.00337438)
(0.0804845 0 -0.00394014)
(0.0899216 0 -0.00448373)
(0.0984922 0 -0.00500886)
(0.10628 0 -0.00551822)
(0.113359 0 -0.00601364)
(0.119794 0 -0.00649625)
(0.125644 0 -0.00696661)
(0.130957 0 -0.0074248)
(0.135779 0 -0.00787057)
(0.140149 0 -0.00830334)
(0.144101 0 -0.00872235)
(0.147666 0 -0.0091267)
(0.150871 0 -0.0095154)
(0.15374 0 -0.00988744)
(0.156291 0 -0.0102414)
(0 0 0)
(0.0163671 0 -0.000685781)
(0.0315922 0 -0.00133202)
(0.0454086 0 -0.00193293)
(0.0579401 0 -0.00249722)
(0.0693086 0 -0.00303203)
(0.0796254 0 -0.00354298)
(0.0889912 0 -0.00403433)
(0.0974961 0 -0.00450926)
(0.105221 0 -0.00497004)
(0.112238 0 -0.00541818)
(0.11861 0 -0.0058546)
(0.124395 0 -0.00627969)
(0.129643 0 -0.00669346)
(0.134398 0 -0.00709558)
(0.138699 0 -0.0074855)
(0.142581 0 -0.00786249)
(0.146076 0 -0.00822573)
(0.149211 0 -0.00857432)
(0.152011 0 -0.00890736)
(0.154495 0 -0.00922355)
(0 0 0)
(0.0161444 0 -0.000596019)
(0.0311848 0 -0.00115871)
(0.0448576 0 -0.00168316)
(0.0572752 0 -0.00217661)
(0.0685508 0 -0.00264509)
(0.0787893 0 -0.00309329)
(0.0880863 0 -0.00352476)
(0.0965285 0 -0.00394216)
(0.104194 0 -0.00434733)
(0.111153 0 -0.0047415)
(0.117468 0 -0.00512537)
(0.123195 0 -0.00549919)
(0.128384 0 -0.0058629)
(0.133079 0 -0.00621615)
(0.13732 0 -0.0065584)
(0.141142 0 -0.00688899)
(0.144576 0 -0.00720715)
(0.147651 0 -0.00751209)
(0.150391 0 -0.00780303)
(0.152818 0 -0.0080788)
(0 0 0)
(0.0159359 0 -0.000496489)
(0.0308035 0 -0.000966107)
(0.0443421 0 -0.00140483)
(0.0566536 0 -0.00181851)
(0.067843 0 -0.00221197)
(0.078009 0 -0.00258899)
(0.0872427 0 -0.00295243)
(0.0956276 0 -0.00330438)
(0.10324 0 -0.00364632)
(0.110147 0 -0.00397918)
(0.116411 0 -0.00430345)
(0.122088 0 -0.0046193)
(0.127226 0 -0.00492658)
(0.13187 0 -0.00522497)
(0.13606 0 -0.00551396)
(0.13983 0 -0.00579293)
(0.143213 0 -0.00606124)
(0.146237 0 -0.00631818)
(0.148929 0 -0.00656307)
(0.151307 0 -0.00679494)
(0 0 0)
(0.0157504 0 -0.000387012)
(0.0304651 0 -0.000753772)
(0.0438857 0 -0.00109723)
(0.0561043 0 -0.00142178)
(0.0672184 0 -0.00173109)
(0.0773213 0 -0.002028)
(0.0865003 0 -0.00231465)
(0.0948362 0 -0.00259263)
(0.102403 0 -0.00286299)
(0.109266 0 -0.00312643)
(0.115489 0 -0.00338326)
(0.121123 0 -0.00363355)
(0.12622 0 -0.00387715)
(0.130822 0 -0.00411374)
(0.13497 0 -0.00434289)
(0.138699 0 -0.00456407)
(0.142041 0 -0.00477673)
(0.145025 0 -0.00498029)
(0.147677 0 -0.0051742)
(0.150017 0 -0.00535766)
(0 0 0)
(0.0155987 0 -0.000267433)
(0.0301895 0 -0.000521342)
(0.0435158 0 -0.000759678)
(0.0556604 0 -0.000985395)
(0.0667149 0 -0.00120095)
(0.0767681 0 -0.00140826)
(0.0859043 0 -0.00160875)
(0.0942019 0 -0.00180348)
(0.101733 0 -0.00199314)
(0.108564 0 -0.00217816)
(0.114753 0 -0.00235875)
(0.120356 0 -0.00253489)
(0.125422 0 -0.00270644)
(0.129993 0 -0.00287316)
(0.13411 0 -0.0030347)
(0.137808 0 -0.00319067)
(0.141119 0 -0.00334064)
(0.144073 0 -0.0034842)
(0.146696 0 -0.00362093)
(0.149008 0 -0.00375026)
(0 0 0)
(0.0154945 0 -0.000137647)
(0.0300016 0 -0.000268538)
(0.0432651 0 -0.000391643)
(0.0553611 0 -0.000508451)
(0.0663765 0 -0.000620199)
(0.0763974 0 -0.000727851)
(0.0855057 0 -0.000832131)
(0.0937785 0 -0.00093356)
(0.101287 0 -0.00103249)
(0.108096 0 -0.00112911)
(0.114265 0 -0.00122352)
(0.119848 0 -0.0013157)
(0.124894 0 -0.00140555)
(0.129445 0 -0.00149294)
(0.133543 0 -0.00157766)
(0.137221 0 -0.0016595)
(0.140514 0 -0.00173823)
(0.143449 0 -0.00181361)
(0.146054 0 -0.00188541)
(0.148348 0 -0.00195332)
(0 0 0)
(0.0154603 0 0)
(0.0299371 0 0)
(0.0431778 0 0)
(0.0552562 0 0)
(0.0662575 0 0)
(0.0762665 0 0)
(0.0853648 0 0)
(0.0936286 0 0)
(0.101129 0 0)
(0.10793 0 0)
(0.114092 0 0)
(0.119668 0 0)
(0.124706 0 0)
(0.129251 0 0)
(0.133341 0 0)
(0.137014 0 0)
(0.140299 0 0)
(0.143228 0 0)
(0.145827 0 0)
(0.148115 0 0)
(0 0 0)
(0.016826 0 -0.000739374)
(0.0320576 0 -0.0014157)
(0.0453733 0 -0.00202031)
(0 0 0)
(0.0169999 0 -0.0007831)
(0.0324054 0 -0.00150027)
(0.0459028 0 -0.00214284)
(0.0577429 0 -0.00272567)
(0 0 0)
(0.0171733 0 -0.000825768)
(0.0327518 0 -0.00158283)
(0.0464284 0 -0.00226257)
(0.058458 0 -0.00288078)
(0.0690755 0 -0.0034504)
(0 0 0)
(0.0173424 0 -0.000866973)
(0.0330897 0 -0.00166262)
(0.0469401 0 -0.00237832)
(0.0591522 0 -0.00303076)
(0.0699624 0 -0.00363365)
(0.0795758 0 -0.00419785)
(0 0 0)
(0.0175033 0 -0.000906287)
(0.0334121 0 -0.00173883)
(0.0474284 0 -0.00248896)
(0.0598143 0 -0.00317423)
(0.0708075 0 -0.00380904)
(0.0806142 0 -0.00440491)
(0.0894159 0 -0.00497122)
(0 0 0)
(0.0176525 0 -0.000943261)
(0.0337121 0 -0.00181061)
(0.0478841 0 -0.00259331)
(0.0604332 0 -0.00330969)
(0.0715977 0 -0.00397477)
(0.0815842 0 -0.0046006)
(0.0905735 0 -0.00519704)
(0.0987265 0 -0.00577242)
(0.106187 0 -0.00633402)
(0 0 0)
(0.0177865 0 -0.000977428)
(0.0339833 0 -0.00187706)
(0.0482985 0 -0.00269009)
(0.0609979 0 -0.00343552)
(0.0723201 0 -0.00412889)
(0.0824709 0 -0.00478268)
(0.09163 0 -0.0054071)
(0.0999558 0 -0.00601071)
(0.107589 0 -0.00660092)
(0.114655 0 -0.00718429)
(0 0 0)
(0.0179021 0 -0.00100831)
(0.0342198 0 -0.00193727)
(0.0486632 0 -0.002778)
(0.0614982 0 -0.00355005)
(0.0729627 0 -0.00426938)
(0.0832609 0 -0.0049488)
(0.0925706 0 -0.00559874)
(0.101047 0 -0.00622792)
(0.108828 0 -0.00684381)
(0.116035 0 -0.00745294)
(0.122773 0 -0.00806112)
(0.129136 0 -0.00867372)
(0 0 0)
(0.0179964 0 -0.00103541)
(0.0344162 0 -0.0019903)
(0.0489708 0 -0.00285571)
(0.061925 0 -0.00365157)
(0.0735147 0 -0.00439417)
(0.0839422 0 -0.00509652)
(0.0933824 0 -0.00576921)
(0.101988 0 -0.00642102)
(0.109891 0 -0.00705937)
(0.117211 0 -0.00769067)
(0.124047 0 -0.00832053)
(0.130488 0 -0.00895399)
(0.136609 0 -0.00959556)
(0.142472 0 -0.0102493)
(0 0 0)
(0.0180668 0 -0.00105824)
(0.0345675 0 -0.0020352)
(0.0492146 0 -0.00292185)
(0.06227 0 -0.00373834)
(0.0739669 0 -0.00450115)
(0.0845045 0 -0.00522342)
(0.0940546 0 -0.00591577)
(0.102766 0 -0.00658695)
(0.110768 0 -0.00724429)
(0.118174 0 -0.00789398)
(0.12508 0 -0.00854138)
(0.13157 0 -0.00919111)
(0.137714 0 -0.00984718)
(0.143567 0 -0.0105131)
(0.149175 0 -0.0111915)
(0 0 0)
(0.0181113 0 -0.00107631)
(0.0346699 0 -0.00207104)
(0.049389 0 -0.00297506)
(0.0625264 0 -0.00380861)
(0.0743114 0 -0.00458823)
(0.0849395 0 -0.00532706)
(0.0945789 0 -0.00603568)
(0.103374 0 -0.00672273)
(0.111452 0 -0.00739536)
(0.118919 0 -0.00805952)
(0.12587 0 -0.00872022)
(0.132382 0 -0.00938167)
(0.138522 0 -0.0100474)
(0.144341 0 -0.0107202)
(0.149881 0 -0.0114023)
(0.155171 0 -0.0120952)
(0.160227 0 -0.0127996)
(0 0 0)
(0.0181282 0 -0.00108913)
(0.0347202 0 -0.00209686)
(0.0494898 0 -0.00301399)
(0.062689 0 -0.00386066)
(0.0745425 0 -0.00465333)
(0.0852414 0 -0.00540505)
(0.0949496 0 -0.00612626)
(0.103808 0 -0.00682544)
(0.111939 0 -0.00750948)
(0.119445 0 -0.00818405)
(0.126417 0 -0.0088538)
(0.132929 0 -0.00952251)
(0.139043 0 -0.0101932)
(0.144809 0 -0.0108681)
(0.150264 0 -0.0115489)
(0.155437 0 -0.0122364)
(0.160344 0 -0.012931)
(0.164995 0 -0.0136322)
(0.169388 0 -0.0143383)
(0 0 0)
(0.0181164 0 -0.00109625)
(0.0347164 0 -0.00211179)
(0.0495141 0 -0.00303736)
(0.0627545 0 -0.00389284)
(0.0746566 0 -0.00469448)
(0.0854067 0 -0.00545511)
(0.095164 0 -0.00618499)
(0.104066 0 -0.00689233)
(0.112229 0 -0.00758376)
(0.119754 0 -0.00826461)
(0.126728 0 -0.00893915)
(0.13322 0 -0.00961075)
(0.139291 0 -0.0102819)
(0.144988 0 -0.0109545)
(0.150347 0 -0.0116296)
(0.155394 0 -0.0123075)
(0.160149 0 -0.0129881)
(0.164622 0 -0.0136705)
(0.168812 0 -0.0143526)
(0.172714 0 -0.0150313)
(0.176319 0 -0.0157034)
(0 0 0)
(0.0180755 0 -0.00109724)
(0.0346575 0 -0.00211498)
(0.0494603 0 -0.00304392)
(0.062721 0 -0.00390352)
(0.074652 0 -0.0047097)
(0.0854339 0 -0.00547498)
(0.0952213 0 -0.00620934)
(0.104147 0 -0.00692067)
(0.112324 0 -0.00761529)
(0.11985 0 -0.00829819)
(0.126808 0 -0.00897325)
(0.133265 0 -0.00964343)
(0.139279 0 -0.0103108)
(0.144895 0 -0.0109769)
(0.150149 0 -0.0116421)
(0.155069 0 -0.0123067)
(0.159672 0 -0.0129698)
(0.16397 0 -0.0136302)
(0.167968 0 -0.0142859)
(0.171666 0 -0.0149341)
(0.175059 0 -0.0155715)
(0 0 0)
(0.0180055 0 -0.00109166)
(0.0345432 0 -0.00210553)
(0.049328 0 -0.00303235)
(0.0625881 0 -0.00389102)
(0.0745283 0 -0.00469696)
(0.0853233 0 -0.00546231)
(0.0951226 0 -0.00619667)
(0.104055 0 -0.00690761)
(0.112229 0 -0.00760108)
(0.11974 0 -0.0082817)
(0.126666 0 -0.00895299)
(0.133075 0 -0.00961753)
(0.139021 0 -0.010277)
(0.144549 0 -0.0109325)
(0.149694 0 -0.0115843)
(0.154485 0 -0.0122321)
(0.15894 0 -0.012875)
(0.163073 0 -0.0135114)
(0.166894 0 -0.0141394)
(0.170405 0 -0.0147564)
(0.173608 0 -0.0153593)
(0 0 0)
(0.0179067 0 -0.00107906)
(0.0343743 0 -0.0020826)
(0.0491186 0 -0.00300143)
(0.0623576 0 -0.00385372)
(0.074288 0 -0.0046543)
(0.0850783 0 -0.00541485)
(0.0948727 0 -0.00614452)
(0.103795 0 -0.00685048)
(0.111952 0 -0.00753833)
(0.119433 0 -0.0082123)
(0.126317 0 -0.00887557)
(0.132667 0 -0.00953036)
(0.138537 0 -0.0101781)
(0.143972 0 -0.0108194)
(0.149008 0 -0.0114544)
(0.153671 0 -0.0120825)
(0.157985 0 -0.0127027)
(0.161965 0 -0.0133134)
(0.165622 0 -0.0139127)
(0.168964 0 -0.0144981)
(0 0 0)
(0.0177804 0 -0.00105906)
(0.0341531 0 -0.00204542)
(0.0488351 0 -0.00295002)
(0.0620335 0 -0.00379014)
(0.0739364 0 -0.00457994)
(0.0847054 0 -0.00533052)
(0.0944795 0 -0.00605055)
(0.103378 0 -0.00674679)
(0.111504 0 -0.00742441)
(0.118945 0 -0.00808731)
(0.125776 0 -0.00873831)
(0.13206 0 -0.00937931)
(0.13785 0 -0.0100114)
(0.14319 0 -0.0106351)
(0.148117 0 -0.0112502)
(0.152658 0 -0.0118561)
(0.156838 0 -0.0124515)
(0.160674 0 -0.0130351)
(0.164182 0 -0.0136049)
(0.167371 0 -0.0141585)
(0 0 0)
(0.0176283 0 -0.00103132)
(0.0338831 0 -0.00199329)
(0.0484824 0 -0.00287703)
(0.061622 0 -0.00369886)
(0.0734809 0 -0.00447213)
(0.0842137 0 -0.0052073)
(0.093954 0 -0.00591252)
(0.102817 0 -0.00659407)
(0.110901 0 -0.00725673)
(0.118293 0 -0.00790405)
(0.125064 0 -0.0085385)
(0.131277 0 -0.00916171)
(0.136984 0 -0.00977457)
(0.14223 0 -0.0103773)
(0.147049 0 -0.0109696)
(0.151474 0 -0.0115507)
(0.155529 0 -0.0121195)
(0.159233 0 -0.0126745)
(0.162605 0 -0.013214)
(0.165656 0 -0.0137358)
(0 0 0)
(0.0174532 0 -0.000995513)
(0.033569 0 -0.00192553)
(0.0480672 0 -0.00278147)
(0.0611315 0 -0.00357854)
(0.0729317 0 -0.00432921)
(0.0836152 0 -0.00504324)
(0.0933098 0 -0.0057282)
(0.102126 0 -0.0063899)
(0.110161 0 -0.0070327)
(0.117496 0 -0.00765978)
(0.124202 0 -0.00827334)
(0.130341 0 -0.00887472)
(0.135965 0 -0.0094646)
(0.141117 0 -0.0100431)
(0.145835 0 -0.0106097)
(0.15015 0 -0.0111637)
(0.154088 0 -0.0117039)
(0.157672 0 -0.0122291)
(0.16092 0 -0.0127375)
(0.163847 0 -0.0132272)
(0 0 0)
(0.0172582 0 -0.000951338)
(0.0332169 0 -0.00184153)
(0.0475977 0 -0.00266237)
(0.0605725 0 -0.00342787)
(0.0723013 0 -0.00414955)
(0.0829243 0 -0.00483641)
(0.0925635 0 -0.0054954)
(0.101326 0 -0.00613184)
(0.109303 0 -0.00674966)
(0.116577 0 -0.0073517)
(0.123216 0 -0.00793986)
(0.12928 0 -0.00851526)
(0.134821 0 -0.0090784)
(0.139884 0 -0.00962924)
(0.144505 0 -0.0101673)
(0.148717 0 -0.0106917)
(0.152548 0 -0.0112015)
(0.156021 0 -0.0116953)
(0.159158 0 -0.0121717)
(0.161974 0 -0.0126288)
(0 0 0)
(0.0170472 0 -0.000898523)
(0.0328339 0 -0.00174071)
(0.0470843 0 -0.00251882)
(0.0599578 0 -0.00324561)
(0.0716049 0 -0.00393157)
(0.0821583 0 -0.00458489)
(0.0917347 0 -0.0052119)
(0.100436 0 -0.00581738)
(0.108353 0 -0.00640485)
(0.115562 0 -0.00697681)
(0.122132 0 -0.00753488)
(0.128122 0 -0.00807998)
(0.133583 0 -0.00861245)
(0.13856 0 -0.00913215)
(0.14309 0 -0.00963856)
(0.147207 0 -0.0101309)
(0.15094 0 -0.010608)
(0.154314 0 -0.0110688)
(0.157351 0 -0.0115121)
(0.160068 0 -0.011936)
(0 0 0)
(0.0168248 0 -0.000836815)
(0.0324287 0 -0.00162253)
(0.0465388 0 -0.00234996)
(0.0593023 0 -0.00303054)
(0.0708601 0 -0.0036737)
(0.0813375 0 -0.00428678)
(0.0908456 0 -0.00487545)
(0.0994826 0 -0.00544395)
(0.107335 0 -0.00599539)
(0.114479 0 -0.00653193)
(0.12098 0 -0.00705494)
(0.126898 0 -0.00756515)
(0.132283 0 -0.00806276)
(0.137179 0 -0.00854755)
(0.141626 0 -0.00901899)
(0.145656 0 -0.00947627)
(0.149301 0 -0.00991842)
(0.152585 0 -0.0103444)
(0.155533 0 -0.010753)
(0.158162 0 -0.0111426)
(0 0 0)
(0.0165961 0 -0.000765976)
(0.032011 0 -0.00148646)
(0.045975 0 -0.00215493)
(0.0586232 0 -0.00278147)
(0.070087 0 -0.00337438)
(0.0804845 0 -0.00394014)
(0.0899216 0 -0.00448373)
(0.0984922 0 -0.00500886)
(0.10628 0 -0.00551822)
(0.113359 0 -0.00601364)
(0.119794 0 -0.00649625)
(0.125644 0 -0.00696661)
(0.130957 0 -0.0074248)
(0.135779 0 -0.00787057)
(0.140149 0 -0.00830334)
(0.144101 0 -0.00872235)
(0.147666 0 -0.0091267)
(0.150871 0 -0.0095154)
(0.15374 0 -0.00988744)
(0.156291 0 -0.0102414)
(0 0 0)
(0.0163671 0 -0.000685781)
(0.0315922 0 -0.00133202)
(0.0454086 0 -0.00193293)
(0.0579401 0 -0.00249722)
(0.0693086 0 -0.00303203)
(0.0796254 0 -0.00354298)
(0.0889912 0 -0.00403433)
(0.0974961 0 -0.00450926)
(0.105221 0 -0.00497004)
(0.112238 0 -0.00541818)
(0.11861 0 -0.0058546)
(0.124395 0 -0.00627969)
(0.129643 0 -0.00669346)
(0.134398 0 -0.00709558)
(0.138699 0 -0.0074855)
(0.142581 0 -0.00786249)
(0.146076 0 -0.00822573)
(0.149211 0 -0.00857432)
(0.152011 0 -0.00890736)
(0.154495 0 -0.00922355)
(0 0 0)
(0.0161444 0 -0.000596019)
(0.0311848 0 -0.00115871)
(0.0448576 0 -0.00168316)
(0.0572752 0 -0.00217661)
(0.0685508 0 -0.00264509)
(0.0787893 0 -0.00309329)
(0.0880863 0 -0.00352476)
(0.0965285 0 -0.00394216)
(0.104194 0 -0.00434733)
(0.111153 0 -0.0047415)
(0.117468 0 -0.00512537)
(0.123195 0 -0.00549919)
(0.128384 0 -0.0058629)
(0.133079 0 -0.00621615)
(0.13732 0 -0.0065584)
(0.141142 0 -0.00688899)
(0.144576 0 -0.00720715)
(0.147651 0 -0.00751209)
(0.150391 0 -0.00780303)
(0.152818 0 -0.0080788)
(0 0 0)
(0.0159359 0 -0.000496489)
(0.0308035 0 -0.000966107)
(0.0443421 0 -0.00140483)
(0.0566536 0 -0.00181851)
(0.067843 0 -0.00221197)
(0.078009 0 -0.00258899)
(0.0872427 0 -0.00295243)
(0.0956276 0 -0.00330438)
(0.10324 0 -0.00364632)
(0.110147 0 -0.00397918)
(0.116411 0 -0.00430345)
(0.122088 0 -0.0046193)
(0.127226 0 -0.00492658)
(0.13187 0 -0.00522497)
(0.13606 0 -0.00551396)
(0.13983 0 -0.00579293)
(0.143213 0 -0.00606124)
(0.146237 0 -0.00631818)
(0.148929 0 -0.00656307)
(0.151307 0 -0.00679494)
(0 0 0)
(0.0157504 0 -0.000387012)
(0.0304651 0 -0.000753772)
(0.0438857 0 -0.00109723)
(0.0561043 0 -0.00142178)
(0.0672184 0 -0.00173109)
(0.0773213 0 -0.002028)
(0.0865003 0 -0.00231465)
(0.0948362 0 -0.00259263)
(0.102403 0 -0.00286299)
(0.109266 0 -0.00312643)
(0.115489 0 -0.00338326)
(0.121123 0 -0.00363355)
(0.12622 0 -0.00387715)
(0.130822 0 -0.00411374)
(0.13497 0 -0.00434289)
(0.138699 0 -0.00456407)
(0.142041 0 -0.00477673)
(0.145025 0 -0.00498029)
(0.147677 0 -0.0051742)
(0.150017 0 -0.00535766)
(0 0 0)
(0.0155987 0 -0.000267433)
(0.0301895 0 -0.000521342)
(0.0435158 0 -0.000759678)
(0.0556604 0 -0.000985395)
(0.0667149 0 -0.00120095)
(0.0767681 0 -0.00140826)
(0.0859043 0 -0.00160875)
(0.0942019 0 -0.00180348)
(0.101733 0 -0.00199314)
(0.108564 0 -0.00217816)
(0.114753 0 -0.00235875)
(0.120356 0 -0.00253489)
(0.125422 0 -0.00270644)
(0.129993 0 -0.00287316)
(0.13411 0 -0.0030347)
(0.137808 0 -0.00319067)
(0.141119 0 -0.00334064)
(0.144073 0 -0.0034842)
(0.146696 0 -0.00362093)
(0.149008 0 -0.00375026)
(0 0 0)
(0.0154945 0 -0.000137647)
(0.0300016 0 -0.000268538)
(0.0432651 0 -0.000391643)
(0.0553611 0 -0.000508451)
(0.0663765 0 -0.000620199)
(0.0763974 0 -0.000727851)
(0.0855057 0 -0.000832131)
(0.0937785 0 -0.00093356)
(0.101287 0 -0.00103249)
(0.108096 0 -0.00112911)
(0.114265 0 -0.00122352)
(0.119848 0 -0.0013157)
(0.124894 0 -0.00140555)
(0.129445 0 -0.00149294)
(0.133543 0 -0.00157766)
(0.137221 0 -0.0016595)
(0.140514 0 -0.00173823)
(0.143449 0 -0.00181361)
(0.146054 0 -0.00188541)
(0.148348 0 -0.00195332)
(0 0 0)
(0.0154603 0 0)
(0.0299371 0 0)
(0.0431778 0 0)
(0.0552562 0 0)
(0.0662575 0 0)
(0.0762665 0 0)
(0.0853648 0 0)
(0.0936286 0 0)
(0.101129 0 0)
(0.10793 0 0)
(0.114092 0 0)
(0.119668 0 0)
(0.124706 0 0)
(0.129251 0 0)
(0.133341 0 0)
(0.137014 0 0)
(0.140299 0 0)
(0.143228 0 0)
(0.145827 0 0)
(0.148115 0 0)
)
;

boundaryField
{
    inlet
    {
        type            fixedValue;
        value           uniform (0 0 0);
    }
    outlet
    {
        type            fixedValue;
        value           nonuniform 0();
    }
    flap
    {
        type            fixedValue;
        value           nonuniform 0();
    }
    upperWall
    {
        type            slip;
    }
    lowerWall
    {
        type            slip;
    }
    frontAndBack
    {
        type            empty;
    }
    procBoundary0to1
    {
        type            processor;
    }
    procBoundary0to3
    {
        type            processor;
    }
}


// ************************************************************************* //
