/*--------------------------------*- C++ -*----------------------------------*\
| =========                 |                                                 |
| \\      /  F ield         | OpenFOAM: The Open Source CFD Toolbox           |
|  \\    /   O peration     | Version:  dev                                   |
|   \\  /    A nd           | Web:      www.OpenFOAM.org                      |
|    \\/     M anipulation  |                                                 |
\*---------------------------------------------------------------------------*/
FoamFile
{
    version     2.0;
    format      ascii;
    class       volVectorField;
    location    "1.74";
    object      cellDisplacement;
}
// * * * * * * * * * * * * * * * * * * * * * * * * * * * * * * * * * * * * * //

dimensions      [0 1 0 0 0 0 0];

internalField   nonuniform List<vector> 
2790
(
(0.0125063 0 -7.02881e-05)
(0.0356411 0 -0.000200626)
(0.0552552 0 -0.00031384)
(0.0716773 0 -0.000413194)
(0.0852597 0 -0.000501283)
(0.0963088 0 -0.00057992)
(0.10509 0 -0.000650271)
(0.111833 0 -0.000712911)
(0.116739 0 -0.000768346)
(0.119978 0 -0.000818503)
(0.121704 0 -0.000859419)
(0.122053 0 -0.000892288)
(0.121143 0 -0.000916357)
(0.119078 0 -0.000930534)
(0.115952 0 -0.000933514)
(0.111851 0 -0.000923564)
(0.106856 0 -0.000898561)
(0.10104 0 -0.000855982)
(0.0944797 0 -0.00079287)
(0.0872494 0 -0.000705814)
(0.0794288 0 -0.000590933)
(0.0711019 0 -0.000443531)
(0.0623627 0 -0.000258203)
(0.0533199 0 -2.88953e-05)
(0.0441063 0 0.000250935)
(0.034894 0 0.000588235)
(0.0259284 0 0.000991062)
(0.0176296 0 0.00146988)
(0.0106832 0 0.00201989)
(0.00675423 0 0.00255804)
(0.0125239 0 -0.000211214)
(0.0356915 0 -0.000602962)
(0.0553364 0 -0.000943347)
(0.0717906 0 -0.00124221)
(0.0854072 0 -0.00150736)
(0.0964935 0 -0.00174426)
(0.105315 0 -0.00195645)
(0.112103 0 -0.00214556)
(0.11706 0 -0.00231261)
(0.120354 0 -0.00245744)
(0.122141 0 -0.0025805)
(0.122562 0 -0.00268019)
(0.121732 0 -0.00275383)
(0.119757 0 -0.00279817)
(0.116735 0 -0.00280949)
(0.112752 0 -0.00278272)
(0.107891 0 -0.00271165)
(0.102231 0 -0.00258894)
(0.0958483 0 -0.00240599)
(0.0888244 0 -0.00215294)
(0.0812457 0 -0.00181882)
(0.0732058 0 -0.00139016)
(0.0648112 0 -0.000851487)
(0.0561893 0 -0.000185484)
(0.0475009 0 0.000626498)
(0.0389543 0 0.00160377)
(0.0308005 0 0.00276736)
(0.0234861 0 0.00412236)
(0.0178599 0 0.00563199)
(0.0160276 0 0.00699426)
(0.0125601 0 -0.000352267)
(0.0357938 0 -0.00100579)
(0.0555001 0 -0.00157376)
(0.0720181 0 -0.00207275)
(0.085703 0 -0.00251578)
(0.0968633 0 -0.00291204)
(0.105765 0 -0.00326759)
(0.112641 0 -0.00358489)
(0.117695 0 -0.00386557)
(0.1211 0 -0.00410727)
(0.123015 0 -0.00431586)
(0.123577 0 -0.00448641)
(0.122907 0 -0.0046145)
(0.121114 0 -0.00469488)
(0.118298 0 -0.00472203)
(0.11455 0 -0.00468781)
(0.109959 0 -0.00458236)
(0.104607 0 -0.00439411)
(0.0985792 0 -0.00410956)
(0.0919634 0 -0.00371313)
(0.0848623 0 -0.0031891)
(0.0773845 0 -0.00251678)
(0.0696566 0 -0.00167317)
(0.0618333 0 -0.000633062)
(0.0541193 0 0.000629089)
(0.0468219 0 0.00213322)
(0.0403127 0 0.00388949)
(0.0350916 0 0.00587665)
(0.0319398 0 0.00800641)
(0.0336731 0 0.00961472)
(0.0126148 0 -0.000492798)
(0.0359465 0 -0.00140728)
(0.0557429 0 -0.00220212)
(0.072356 0 -0.00290091)
(0.0861422 0 -0.00352183)
(0.0974126 0 -0.00407787)
(0.106434 0 -0.00457801)
(0.113441 0 -0.00502504)
(0.118641 0 -0.00542231)
(0.122212 0 -0.00576991)
(0.124314 0 -0.00606949)
(0.125087 0 -0.0063171)
(0.124655 0 -0.00650724)
(0.12313 0 -0.0066327)
(0.120619 0 -0.00668759)
(0.11722 0 -0.00666095)
(0.113027 0 -0.00654003)
(0.108132 0 -0.00631008)
(0.10263 0 -0.00595401)
(0.096614 0 -0.00545085)
(0.090219 0 -0.0047858)
(0.0835741 0 -0.0039329)
(0.076838 0 -0.00286665)
(0.0702032 0 -0.00156015)
(0.0639173 0 1.20559e-05)
(0.0583359 0 0.00186115)
(0.0540163 0 0.0039596)
(0.0518106 0 0.00620182)
(0.0525515 0 0.00839654)
(0.0588972 0 0.00949015)
(0.0126887 0 -0.000633342)
(0.0361481 0 -0.00180719)
(0.0560615 0 -0.00282804)
(0.0728004 0 -0.00372643)
(0.0867203 0 -0.00452547)
(0.0981362 0 -0.00524203)
(0.107315 0 -0.00588901)
(0.114493 0 -0.006468)
(0.119887 0 -0.00698533)
(0.123676 0 -0.00744223)
(0.126023 0 -0.00783874)
(0.127072 0 -0.00817114)
(0.126951 0 -0.00843334)
(0.125775 0 -0.00861519)
(0.123663 0 -0.00871401)
(0.12072 0 -0.0087155)
(0.117047 0 -0.00860523)
(0.112751 0 -0.00836695)
(0.107944 0 -0.00798286)
(0.102733 0 -0.00743154)
(0.0972534 0 -0.00669008)
(0.0916798 0 -0.00573728)
(0.0862094 0 -0.00455162)
(0.0810763 0 -0.00311084)
(0.076666 0 -0.00141818)
(0.0733592 0 0.00052008)
(0.0717901 0 0.00264189)
(0.0730088 0 0.00473566)
(0.0786136 0 0.00631864)
(0.0906325 0 0.00606255)
(0.0127623 0 -0.000772893)
(0.0363788 0 -0.00220595)
(0.0564532 0 -0.0034539)
(0.0733495 0 -0.00455284)
(0.0874348 0 -0.0055314)
(0.0990322 0 -0.00641018)
(0.108402 0 -0.00720173)
(0.115789 0 -0.00791523)
(0.12142 0 -0.00855692)
(0.125477 0 -0.00912845)
(0.128124 0 -0.00962948)
(0.129511 0 -0.0100567)
(0.129775 0 -0.0104047)
(0.129039 0 -0.0106657)
(0.127417 0 -0.0108291)
(0.125032 0 -0.0108837)
(0.121995 0 -0.010815)
(0.118426 0 -0.0106068)
(0.11445 0 -0.0102414)
(0.110216 0 -0.0097033)
(0.105859 0 -0.00896477)
(0.101583 0 -0.00801126)
(0.0976598 0 -0.00683818)
(0.0943558 0 -0.00543104)
(0.0920834 0 -0.0038103)
(0.0914301 0 -0.00204913)
(0.0932132 0 -0.000298474)
(0.0983854 0 0.00116832)
(0.109173 0 0.00153358)
(0.127759 0 -0.00090403)
(0.0128536 0 -0.000911648)
(0.036656 0 -0.00260385)
(0.0569163 0 -0.00407889)
(0.0739988 0 -0.00537914)
(0.0882787 0 -0.00653857)
(0.100081 0 -0.00758107)
(0.109678 0 -0.00852037)
(0.117322 0 -0.00937331)
(0.123235 0 -0.010145)
(0.127607 0 -0.0108381)
(0.130607 0 -0.0114526)
(0.132391 0 -0.0119859)
(0.133104 0 -0.0124343)
(0.132881 0 -0.0127924)
(0.131834 0 -0.0130421)
(0.130099 0 -0.0131778)
(0.127804 0 -0.013186)
(0.12508 0 -0.0130516)
(0.122064 0 -0.0127579)
(0.118942 0 -0.0122979)
(0.115891 0 -0.0116539)
(0.113132 0 -0.0108159)
(0.110968 0 -0.00979008)
(0.109766 0 -0.00859824)
(0.109993 0 -0.00729388)
(0.112325 0 -0.00599878)
(0.117734 0 -0.00497016)
(0.127592 0 -0.00468332)
(0.143737 0 -0.00606911)
(0.169254 0 -0.0114048)
(0.0129602 0 -0.00104926)
(0.0369745 0 -0.00299836)
(0.0574446 0 -0.00469907)
(0.074739 0 -0.0062001)
(0.0892409 0 -0.00754083)
(0.101281 0 -0.00874917)
(0.111141 0 -0.00984386)
(0.119077 0 -0.010841)
(0.125312 0 -0.0117486)
(0.130043 0 -0.0125708)
(0.133445 0 -0.0133084)
(0.13568 0 -0.0139594)
(0.1369 0 -0.0145227)
(0.137246 0 -0.0149907)
(0.13684 0 -0.0153491)
(0.135841 0 -0.0155977)
(0.134383 0 -0.0157231)
(0.132618 0 -0.0157143)
(0.130706 0 -0.0155612)
(0.128832 0 -0.0152549)
(0.127229 0 -0.0147964)
(0.126155 0 -0.0141896)
(0.125963 0 -0.013465)
(0.12706 0 -0.0126673)
(0.129998 0 -0.0118961)
(0.135678 0 -0.0113833)
(0.145014 0 -0.0114324)
(0.159817 0 -0.0127741)
(0.181719 0 -0.0164732)
(0.214153 0 -0.0252273)
(0.01308 0 -0.00118544)
(0.0373303 0 -0.00338889)
(0.0580328 0 -0.00531366)
(0.0755635 0 -0.00701489)
(0.0903133 0 -0.0085374)
(0.102619 0 -0.00991333)
(0.112772 0 -0.0111654)
(0.121031 0 -0.0123108)
(0.127625 0 -0.0133601)
(0.132754 0 -0.014319)
(0.1366 0 -0.0151897)
(0.13933 0 -0.0159703)
(0.141113 0 -0.0166655)
(0.142093 0 -0.0172676)
(0.142415 0 -0.0177696)
(0.142226 0 -0.0181644)
(0.141686 0 -0.0184468)
(0.140964 0 -0.0186116)
(0.140257 0 -0.0186605)
(0.139741 0 -0.0185835)
(0.139717 0 -0.0184079)
(0.140474 0 -0.0181528)
(0.142404 0 -0.0178721)
(0.146011 0 -0.0176619)
(0.151915 0 -0.0176679)
(0.161025 0 -0.0181727)
(0.174664 0 -0.0196853)
(0.194374 0 -0.0229823)
(0.22257 0 -0.0295502)
(0.26157 0 -0.0419964)
(0.0132111 0 -0.00131988)
(0.0377193 0 -0.00377479)
(0.0586756 0 -0.00592179)
(0.0764652 0 -0.00782248)
(0.0914867 0 -0.00952716)
(0.104084 0 -0.0110723)
(0.114557 0 -0.0124841)
(0.123168 0 -0.0137819)
(0.130151 0 -0.0149789)
(0.135714 0 -0.0160828)
(0.140045 0 -0.0170981)
(0.143327 0 -0.0180286)
(0.145722 0 -0.0188736)
(0.147389 0 -0.0196319)
(0.148494 0 -0.0203033)
(0.149174 0 -0.0208754)
(0.149618 0 -0.0213539)
(0.150004 0 -0.0217388)
(0.15057 0 -0.0220471)
(0.151533 0 -0.0222861)
(0.153181 0 -0.022484)
(0.155873 0 -0.0226939)
(0.160056 0 -0.023003)
(0.166287 0 -0.0235448)
(0.175323 0 -0.0245461)
(0.188111 0 -0.0263521)
(0.206111 0 -0.0295962)
(0.231062 0 -0.0352457)
(0.265844 0 -0.0451165)
(0.310674 0 -0.0612303)
(0.0133534 0 -0.00145302)
(0.0381404 0 -0.00415729)
(0.0593713 0 -0.00652545)
(0.0774413 0 -0.00862563)
(0.0927576 0 -0.0105136)
(0.105672 0 -0.01223)
(0.116489 0 -0.0138047)
(0.12548 0 -0.0152597)
(0.132883 0 -0.0166107)
(0.138912 0 -0.0178679)
(0.143765 0 -0.0190388)
(0.147633 0 -0.0201321)
(0.150674 0 -0.0211417)
(0.153067 0 -0.0220752)
(0.15498 0 -0.0229331)
(0.156573 0 -0.0237122)
(0.15806 0 -0.0244294)
(0.159641 0 -0.0250933)
(0.161543 0 -0.0257204)
(0.164045 0 -0.0263453)
(0.167424 0 -0.0270018)
(0.172128 0 -0.027784)
(0.178635 0 -0.0288071)
(0.187587 0 -0.0302622)
(0.199798 0 -0.0324293)
(0.21643 0 -0.0357819)
(0.238927 0 -0.0410278)
(0.269655 0 -0.0494607)
(0.311103 0 -0.062935)
(0.360673 0 -0.0823827)
(0.0135057 0 -0.00158453)
(0.0385895 0 -0.00453542)
(0.0601133 0 -0.00712314)
(0.0784833 0 -0.00942238)
(0.0941145 0 -0.0114942)
(0.107366 0 -0.0133837)
(0.118551 0 -0.015124)
(0.127944 0 -0.0167402)
(0.135793 0 -0.0182511)
(0.142314 0 -0.019669)
(0.147712 0 -0.0210036)
(0.152183 0 -0.0222653)
(0.155897 0 -0.0234533)
(0.15905 0 -0.0245824)
(0.161815 0 -0.0256551)
(0.164378 0 -0.0266799)
(0.166945 0 -0.0276716)
(0.169754 0 -0.0286568)
(0.173015 0 -0.029651)
(0.177069 0 -0.0307179)
(0.182243 0 -0.0319189)
(0.188989 0 -0.0333643)
(0.197845 0 -0.0352117)
(0.209536 0 -0.0377066)
(0.22499 0 -0.0412096)
(0.245449 0 -0.0462765)
(0.272825 0 -0.0538543)
(0.309584 0 -0.065382)
(0.357472 0 -0.0825663)
(0.41089 0 -0.104966)
(0.0136645 0 -0.00171328)
(0.0390591 0 -0.00490609)
(0.0608903 0 -0.00771007)
(0.0795761 0 -0.0102065)
(0.0955386 0 -0.0124614)
(0.109145 0 -0.0145244)
(0.120713 0 -0.0164321)
(0.130528 0 -0.0182123)
(0.138841 0 -0.0198881)
(0.145875 0 -0.0214735)
(0.151837 0 -0.0229796)
(0.156939 0 -0.0244239)
(0.161368 0 -0.0258133)
(0.165308 0 -0.0271572)
(0.168949 0 -0.0284673)
(0.172498 0 -0.0297619)
(0.176149 0 -0.031054)
(0.180183 0 -0.0323912)
(0.184851 0 -0.0338101)
(0.190467 0 -0.0353736)
(0.197417 0 -0.0371761)
(0.206192 0 -0.0393579)
(0.217359 0 -0.0421074)
(0.231767 0 -0.045748)
(0.250376 0 -0.0506895)
(0.274742 0 -0.0576537)
(0.306902 0 -0.067704)
(0.349377 0 -0.0823947)
(0.403022 0 -0.103109)
(0.459414 0 -0.128008)
(0.0138285 0 -0.00183892)
(0.0395442 0 -0.00526833)
(0.0616951 0 -0.00828472)
(0.0807106 0 -0.010976)
(0.0970181 0 -0.013413)
(0.110993 0 -0.0156496)
(0.122959 0 -0.0177259)
(0.133209 0 -0.0196723)
(0.142005 0 -0.0215179)
(0.149567 0 -0.0232775)
(0.156124 0 -0.0249702)
(0.161882 0 -0.0266101)
(0.167038 0 -0.028213)
(0.17177 0 -0.0297842)
(0.176293 0 -0.031348)
(0.180812 0 -0.0329255)
(0.185581 0 -0.0345561)
(0.190844 0 -0.0362786)
(0.196898 0 -0.0381548)
(0.204037 0 -0.0402497)
(0.212732 0 -0.0427013)
(0.223473 0 -0.045669)
(0.236894 0 -0.0493874)
(0.253831 0 -0.0542034)
(0.275474 0 -0.060657)
(0.303385 0 -0.0695226)
(0.339694 0 -0.0819706)
(0.38698 0 -0.0996494)
(0.445025 0 -0.123437)
(0.503588 0 -0.150446)
(0.0139964 0 -0.00196115)
(0.0400405 0 -0.00562115)
(0.0625209 0 -0.0088455)
(0.0818787 0 -0.0117291)
(0.0985425 0 -0.0143466)
(0.112897 0 -0.0167565)
(0.125272 0 -0.0190025)
(0.135979 0 -0.0211225)
(0.145274 0 -0.023143)
(0.153381 0 -0.0250833)
(0.160542 0 -0.0269686)
(0.166951 0 -0.0288087)
(0.172822 0 -0.0306266)
(0.178344 0 -0.0324358)
(0.183751 0 -0.0342703)
(0.189267 0 -0.0361606)
(0.195136 0 -0.0381479)
(0.201583 0 -0.0402703)
(0.208959 0 -0.0426179)
(0.217598 0 -0.0452807)
(0.227949 0 -0.048403)
(0.240542 0 -0.0521771)
(0.25604 0 -0.0568723)
(0.275299 0 -0.0628738)
(0.299537 0 -0.070772)
(0.330277 0 -0.0813857)
(0.369702 0 -0.0959855)
(0.41989 0 -0.116113)
(0.479473 0 -0.142104)
(0.540061 0 -0.171447)
(0.0105789 0 -0.00374853)
(0.0262146 0 -0.00496971)
(0.0670679 0 -0.00709904)
(0.14048 0 -0.00977571)
(0.226506 0 -0.011863)
(0.295456 0 -0.0125514)
(0.341502 0 -0.0125489)
(0.371363 0 -0.0122597)
(0.390792 0 -0.0117494)
(0.403203 0 -0.0111211)
(0.410572 0 -0.0103818)
(0.414089 0 -0.00967813)
(0.414426 0 -0.00899474)
(0.411964 0 -0.0083398)
(0.406923 0 -0.00771704)
(0.399429 0 -0.00712735)
(0.38954 0 -0.00656954)
(0.37727 0 -0.006041)
(0.362602 0 -0.00553827)
(0.345494 0 -0.00505738)
(0.325892 0 -0.00459401)
(0.303724 0 -0.00414354)
(0.278914 0 -0.00370103)
(0.251378 0 -0.00326118)
(0.221027 0 -0.0028183)
(0.187771 0 -0.00236611)
(0.15152 0 -0.0018976)
(0.112184 0 -0.00140476)
(0.0696939 0 -0.000878459)
(0.0237997 0 -0.000305246)
(0.0181151 0 -0.0116259)
(0.0357883 0 -0.0154196)
(0.0786069 0 -0.021671)
(0.151962 0 -0.0293033)
(0.235103 0 -0.0349771)
(0.30095 0 -0.0368791)
(0.345181 0 -0.0369477)
(0.37397 0 -0.0359939)
(0.392716 0 -0.0344887)
(0.404669 0 -0.0326422)
(0.411728 0 -0.0305659)
(0.415028 0 -0.0285281)
(0.415197 0 -0.0265428)
(0.412602 0 -0.0246354)
(0.407455 0 -0.0228178)
(0.399874 0 -0.0210933)
(0.389913 0 -0.0194588)
(0.377585 0 -0.017907)
(0.362868 0 -0.0164283)
(0.34572 0 -0.0150114)
(0.326084 0 -0.0136438)
(0.303889 0 -0.0123122)
(0.279056 0 -0.0110022)
(0.2515 0 -0.00969846)
(0.221132 0 -0.00838415)
(0.187862 0 -0.00704084)
(0.151597 0 -0.00564788)
(0.112247 0 -0.00418159)
(0.0697382 0 -0.00261506)
(0.0238188 0 -0.000908628)
(0.0326651 0 -0.0204413)
(0.0541348 0 -0.02704)
(0.10028 0 -0.0373129)
(0.173201 0 -0.0490391)
(0.25099 0 -0.0570626)
(0.311462 0 -0.0598758)
(0.352306 0 -0.0598905)
(0.379044 0 -0.0582899)
(0.396492 0 -0.0558332)
(0.407556 0 -0.0528113)
(0.414012 0 -0.0495856)
(0.416875 0 -0.0463535)
(0.416709 0 -0.0431917)
(0.41385 0 -0.0401444)
(0.408491 0 -0.0372323)
(0.400737 0 -0.0344612)
(0.390635 0 -0.0318279)
(0.378191 0 -0.0293211)
(0.363378 0 -0.0269261)
(0.346151 0 -0.0246253)
(0.326448 0 -0.0223994)
(0.304198 0 -0.0202273)
(0.279319 0 -0.0180861)
(0.251725 0 -0.0159512)
(0.221326 0 -0.0137955)
(0.188027 0 -0.0115891)
(0.151736 0 -0.00929861)
(0.112357 0 -0.00688552)
(0.0698163 0 -0.00430613)
(0.0238513 0 -0.00149592)
(0.0538314 0 -0.0307741)
(0.0801065 0 -0.0402988)
(0.130344 0 -0.0544736)
(0.201733 0 -0.0691917)
(0.272375 0 -0.0784149)
(0.326065 0 -0.0816788)
(0.362395 0 -0.08134)
(0.386347 0 -0.0791422)
(0.401939 0 -0.0757512)
(0.411755 0 -0.0716846)
(0.417347 0 -0.0674101)
(0.419568 0 -0.0631105)
(0.418908 0 -0.0588928)
(0.415658 0 -0.0548165)
(0.409986 0 -0.0509098)
(0.401978 0 -0.0471818)
(0.391668 0 -0.0436295)
(0.379052 0 -0.0402381)
(0.364098 0 -0.0369887)
(0.346754 0 -0.0338588)
(0.326955 0 -0.0308231)
(0.304625 0 -0.0278538)
(0.27968 0 -0.0249205)
(0.25203 0 -0.0219899)
(0.221584 0 -0.0190258)
(0.188244 0 -0.0159877)
(0.151915 0 -0.0128302)
(0.112499 0 -0.00950119)
(0.0699137 0 -0.00594138)
(0.0238906 0 -0.00206324)
(0.0809474 0 -0.0430137)
(0.11265 0 -0.05563)
(0.166909 0 -0.0733066)
(0.235146 0 -0.0896677)
(0.297491 0 -0.0990882)
(0.343654 0 -0.10219)
(0.374876 0 -0.101367)
(0.395476 0 -0.0984097)
(0.408816 0 -0.0941262)
(0.417115 0 -0.0891781)
(0.421615 0 -0.083976)
(0.423015 0 -0.0787356)
(0.421718 0 -0.0735835)
(0.417964 0 -0.0685919)
(0.411886 0 -0.0637941)
(0.403548 0 -0.059202)
(0.392969 0 -0.0548145)
(0.380132 0 -0.0506125)
(0.364995 0 -0.0465739)
(0.3475 0 -0.0426727)
(0.327576 0 -0.0388788)
(0.305143 0 -0.0351586)
(0.280112 0 -0.031475)
(0.252393 0 -0.0277874)
(0.221887 0 -0.0240509)
(0.188496 0 -0.0202155)
(0.152121 0 -0.0162251)
(0.112658 0 -0.012015)
(0.0700214 0 -0.00751191)
(0.0239331 0 -0.00260733)
(0.113327 0 -0.0573913)
(0.1507 0 -0.0731758)
(0.208002 0 -0.0935957)
(0.27132 0 -0.110255)
(0.324752 0 -0.118965)
(0.363217 0 -0.121386)
(0.389064 0 -0.11991)
(0.405984 0 -0.116094)
(0.416858 0 -0.111003)
(0.423432 0 -0.105257)
(0.426664 0 -0.0992429)
(0.427097 0 -0.0931849)
(0.425044 0 -0.0872191)
(0.420688 0 -0.0814267)
(0.414124 0 -0.0758422)
(0.40539 0 -0.0704801)
(0.394488 0 -0.0653442)
(0.381386 0 -0.0604073)
(0.36603 0 -0.0556468)
(0.348354 0 -0.0510342)
(0.328281 0 -0.0465358)
(0.305724 0 -0.0421132)
(0.280593 0 -0.0377236)
(0.252789 0 -0.0333198)
(0.222214 0 -0.0288495)
(0.188765 0 -0.0242543)
(0.152337 0 -0.0194681)
(0.112823 0 -0.0144153)
(0.0701316 0 -0.0090101)
(0.0239762 0 -0.00312542)
(0.150276 0 -0.0739665)
(0.193176 0 -0.0928231)
(0.25164 0 -0.114804)
(0.308509 0 -0.13057)
(0.352922 0 -0.137908)
(0.383795 0 -0.139191)
(0.404231 0 -0.136814)
(0.417427 0 -0.132175)
(0.425746 0 -0.126348)
(0.430474 0 -0.119898)
(0.432318 0 -0.113185)
(0.431677 0 -0.10643)
(0.428774 0 -0.0997692)
(0.42374 0 -0.0932907)
(0.416626 0 -0.0870235)
(0.407439 0 -0.0809843)
(0.396171 0 -0.0751917)
(0.382769 0 -0.0695961)
(0.367164 0 -0.0641812)
(0.349282 0 -0.0589181)
(0.329038 0 -0.0537701)
(0.306342 0 -0.048695)
(0.281096 0 -0.0436453)
(0.253199 0 -0.0385681)
(0.222547 0 -0.0334045)
(0.189034 0 -0.0280889)
(0.15255 0 -0.0225466)
(0.112985 0 -0.0166924)
(0.070239 0 -0.0104298)
(0.0240195 0 -0.00361551)
(0.191122 0 -0.0926487)
(0.2389 0 -0.114204)
(0.29618 0 -0.13634)
(0.345372 0 -0.150181)
(0.380921 0 -0.155663)
(0.404567 0 -0.155536)
(0.41977 0 -0.152057)
(0.429382 0 -0.146639)
(0.435158 0 -0.140148)
(0.437993 0 -0.133088)
(0.438385 0 -0.125793)
(0.436601 0 -0.118459)
(0.432786 0 -0.111217)
(0.427021 0 -0.10417)
(0.419309 0 -0.0973217)
(0.409625 0 -0.0906909)
(0.397947 0 -0.0842936)
(0.38422 0 -0.0781138)
(0.368342 0 -0.0721135)
(0.350235 0 -0.0662635)
(0.329806 0 -0.0605246)
(0.306958 0 -0.0548511)
(0.281588 0 -0.0491916)
(0.253591 0 -0.0434886)
(0.222858 0 -0.0376776)
(0.189278 0 -0.0316867)
(0.152738 0 -0.0254341)
(0.113122 0 -0.0188262)
(0.0703273 0 -0.0117579)
(0.0240525 0 -0.00407229)
(0.235214 0 -0.113216)
(0.286553 0 -0.136714)
(0.340253 0 -0.157582)
(0.380825 0 -0.16865)
(0.407789 0 -0.171874)
(0.424732 0 -0.17019)
(0.435163 0 -0.16563)
(0.441452 0 -0.159473)
(0.44478 0 -0.1524)
(0.445739 0 -0.144832)
(0.444668 0 -0.137073)
(0.441714 0 -0.129276)
(0.436949 0 -0.121557)
(0.430408 0 -0.114011)
(0.422073 0 -0.106677)
(0.411882 0 -0.0995528)
(0.399776 0 -0.092634)
(0.38569 0 -0.0859376)
(0.369521 0 -0.0794212)
(0.351175 0 -0.0730491)
(0.33055 0 -0.066779)
(0.307542 0 -0.0605626)
(0.282043 0 -0.0543453)
(0.253941 0 -0.0480657)
(0.223125 0 -0.041655)
(0.189478 0 -0.0350359)
(0.152885 0 -0.0281209)
(0.113224 0 -0.0208096)
(0.0703874 0 -0.01299)
(0.0240714 0 -0.00449436)
(0.281965 0 -0.135366)
(0.335045 0 -0.159742)
(0.382671 0 -0.17788)
(0.41396 0 -0.185531)
(0.43277 0 -0.186267)
(0.443715 0 -0.182986)
(0.450013 0 -0.177475)
(0.453285 0 -0.170665)
(0.454317 0 -0.163115)
(0.453468 0 -0.155141)
(0.450943 0 -0.146996)
(0.446825 0 -0.138839)
(0.44112 0 -0.130758)
(0.4338 0 -0.122813)
(0.424826 0 -0.115077)
(0.414113 0 -0.107548)
(0.401578 0 -0.100221)
(0.38713 0 -0.0930924)
(0.370662 0 -0.0861306)
(0.35207 0 -0.0792995)
(0.331243 0 -0.072556)
(0.308071 0 -0.0658499)
(0.28244 0 -0.0591243)
(0.254234 0 -0.0523151)
(0.223336 0 -0.0453502)
(0.189627 0 -0.038148)
(0.152986 0 -0.0306164)
(0.113288 0 -0.0226499)
(0.0704234 0 -0.0141314)
(0.0240827 0 -0.00488439)
(0.330912 0 -0.158795)
(0.383389 0 -0.182655)
(0.422263 0 -0.196545)
(0.44395 0 -0.200368)
(0.455369 0 -0.198617)
(0.461277 0 -0.193922)
(0.464006 0 -0.187571)
(0.46457 0 -0.180214)
(0.463461 0 -0.172268)
(0.460913 0 -0.164001)
(0.457006 0 -0.155578)
(0.451769 0 -0.147155)
(0.445153 0 -0.138809)
(0.437087 0 -0.130599)
(0.427489 0 -0.122567)
(0.41626 0 -0.114723)
(0.403294 0 -0.107063)
(0.388486 0 -0.0995771)
(0.37172 0 -0.0922379)
(0.352881 0 -0.0850099)
(0.331853 0 -0.0778497)
(0.308517 0 -0.0707066)
(0.282756 0 -0.0635223)
(0.254449 0 -0.0562307)
(0.223474 0 -0.0487574)
(0.189709 0 -0.0410178)
(0.153029 0 -0.0329165)
(0.113307 0 -0.0243442)
(0.0704285 0 -0.0151801)
(0.0240826 0 -0.00524154)
(0.38166 0 -0.183182)
(0.430104 0 -0.204509)
(0.457731 0 -0.212792)
(0.470107 0 -0.212711)
(0.475421 0 -0.20881)
(0.477178 0 -0.202913)
(0.476805 0 -0.195851)
(0.474962 0 -0.188084)
(0.47193 0 -0.179869)
(0.467836 0 -0.171414)
(0.462681 0 -0.162849)
(0.456414 0 -0.154283)
(0.448945 0 -0.145783)
(0.440169 0 -0.137399)
(0.429976 0 -0.129163)
(0.418249 0 -0.121088)
(0.404866 0 -0.11317)
(0.389707 0 -0.105398)
(0.372649 0 -0.0977466)
(0.35357 0 -0.0901814)
(0.332345 0 -0.0826599)
(0.308852 0 -0.0751313)
(0.282967 0 -0.067537)
(0.254565 0 -0.05981)
(0.223521 0 -0.0518742)
(0.18971 0 -0.0436433)
(0.153003 0 -0.0350195)
(0.113271 0 -0.0258912)
(0.0703978 0 -0.0161355)
(0.0240691 0 -0.00556564)
(0.433394 0 -0.207909)
(0.4729 0 -0.22388)
(0.48759 0 -0.225676)
(0.492363 0 -0.222314)
(0.492804 0 -0.216647)
(0.491079 0 -0.209808)
(0.488067 0 -0.202263)
(0.484163 0 -0.194255)
(0.479497 0 -0.185943)
(0.474071 0 -0.177448)
(0.467816 0 -0.168863)
(0.460629 0 -0.160266)
(0.452385 0 -0.151713)
(0.442956 0 -0.143246)
(0.43221 0 -0.134892)
(0.420015 0 -0.126664)
(0.406237 0 -0.11856)
(0.390746 0 -0.110568)
(0.373411 0 -0.102665)
(0.354103 0 -0.0948199)
(0.332692 0 -0.0869902)
(0.30905 0 -0.0791263)
(0.28305 0 -0.0711697)
(0.254564 0 -0.0630534)
(0.223462 0 -0.0547007)
(0.189618 0 -0.0460242)
(0.1529 0 -0.0369252)
(0.113175 0 -0.027291)
(0.0703271 0 -0.0169979)
(0.0240408 0 -0.00585691)
(0.483332 0 -0.231091)
(0.507805 0 -0.238391)
(0.511846 0 -0.234687)
(0.510639 0 -0.228707)
(0.507163 0 -0.221845)
(0.502626 0 -0.214488)
(0.497522 0 -0.206778)
(0.491985 0 -0.198779)
(0.485996 0 -0.190553)
(0.479469 0 -0.182166)
(0.472284 0 -0.173683)
(0.464303 0 -0.165161)
(0.45538 0 -0.156649)
(0.445368 0 -0.148183)
(0.434122 0 -0.139788)
(0.421499 0 -0.131478)
(0.407358 0 -0.123253)
(0.39156 0 -0.115103)
(0.373968 0 -0.107007)
(0.354448 0 -0.0989353)
(0.332865 0 -0.0908481)
(0.309089 0 -0.0826969)
(0.282988 0 -0.0744244)
(0.25443 0 -0.0659639)
(0.223285 0 -0.0572391)
(0.189422 0 -0.0481626)
(0.152709 0 -0.0386354)
(0.113013 0 -0.028545)
(0.0702131 0 -0.0177684)
(0.0239966 0 -0.00611584)
(0.524054 0 -0.248009)
(0.535182 0 -0.246566)
(0.530455 0 -0.238553)
(0.524495 0 -0.231276)
(0.518098 0 -0.224161)
(0.511595 0 -0.216929)
(0.505017 0 -0.209464)
(0.498293 0 -0.201742)
(0.491307 0 -0.19379)
(0.483919 0 -0.185652)
(0.475986 0 -0.177383)
(0.467349 0 -0.169032)
(0.45785 0 -0.160644)
(0.447336 0 -0.152254)
(0.435652 0 -0.143889)
(0.422651 0 -0.135562)
(0.408185 0 -0.127276)
(0.39211 0 -0.119024)
(0.374287 0 -0.110788)
(0.354577 0 -0.10254)
(0.332842 0 -0.0942433)
(0.308948 0 -0.0858509)
(0.282762 0 -0.0773071)
(0.254149 0 -0.0685464)
(0.222977 0 -0.0594934)
(0.189114 0 -0.0500616)
(0.152426 0 -0.0401528)
(0.112779 0 -0.0296555)
(0.0700526 0 -0.0184484)
(0.0239353 0 -0.00634306)
(0.0141709 0 -0.00208204)
(0.0405537 0 -0.0059703)
(0.0633811 0 -0.00940389)
(0.0831006 0 -0.0124814)
(0.100137 0 -0.0152812)
(0.11489 0 -0.0178675)
(0.127701 0 -0.0202889)
(0.138881 0 -0.0225876)
(0.148682 0 -0.0247867)
(0.157345 0 -0.0269128)
(0.16511 0 -0.0289924)
(0.17218 0 -0.0310412)
(0.178783 0 -0.0330893)
(0.185124 0 -0.0351589)
(0.191427 0 -0.0372816)
(0.197929 0 -0.0394995)
(0.204846 0 -0.0418476)
(0.21249 0 -0.0444037)
(0.22116 0 -0.0472463)
(0.231217 0 -0.0504887)
(0.243129 0 -0.0542953)
(0.257423 0 -0.0588764)
(0.274755 0 -0.0645221)
(0.295993 0 -0.0716523)
(0.322226 0 -0.0808494)
(0.354971 0 -0.0929938)
(0.395851 0 -0.109225)
(0.445837 0 -0.130822)
(0.501937 0 -0.158154)
(0.553911 0 -0.189938)
(0.014356 0 -0.00220316)
(0.0411114 0 -0.00632272)
(0.0643015 0 -0.00996685)
(0.0843829 0 -0.0132378)
(0.101809 0 -0.0162227)
(0.116979 0 -0.0189892)
(0.13024 0 -0.0215894)
(0.141904 0 -0.0240674)
(0.152228 0 -0.0264515)
(0.161461 0 -0.0287699)
(0.16985 0 -0.0310554)
(0.177614 0 -0.0333317)
(0.184972 0 -0.0356262)
(0.192136 0 -0.0379681)
(0.199315 0 -0.0403867)
(0.206774 0 -0.0429395)
(0.214758 0 -0.0456784)
(0.223564 0 -0.048683)
(0.233446 0 -0.052024)
(0.244838 0 -0.0558529)
(0.258167 0 -0.0603346)
(0.273946 0 -0.0656902)
(0.292808 0 -0.0722236)
(0.315513 0 -0.0803404)
(0.343116 0 -0.0906482)
(0.376596 0 -0.10385)
(0.416789 0 -0.120807)
(0.463067 0 -0.142069)
(0.510661 0 -0.166598)
(0.548866 0 -0.189838)
(0.0145472 0 -0.00232266)
(0.0416827 0 -0.00667012)
(0.0652437 0 -0.0105211)
(0.0857007 0 -0.0139847)
(0.103526 0 -0.0171541)
(0.119124 0 -0.0201019)
(0.132846 0 -0.0228821)
(0.145008 0 -0.0255439)
(0.155866 0 -0.0281176)
(0.165692 0 -0.03064)
(0.174724 0 -0.0331419)
(0.183184 0 -0.0356519)
(0.191279 0 -0.0381957)
(0.199229 0 -0.0408076)
(0.207289 0 -0.0435394)
(0.215686 0 -0.0464379)
(0.224676 0 -0.0495662)
(0.234537 0 -0.0530047)
(0.245567 0 -0.0568492)
(0.258148 0 -0.0612421)
(0.272692 0 -0.0663556)
(0.289674 0 -0.072413)
(0.309641 0 -0.0797009)
(0.333329 0 -0.0886393)
(0.361333 0 -0.0996648)
(0.394161 0 -0.113294)
(0.431801 0 -0.129986)
(0.472326 0 -0.149505)
(0.510625 0 -0.170075)
(0.539918 0 -0.188622)
(0.0147398 0 -0.00243874)
(0.042259 0 -0.00700836)
(0.0661993 0 -0.0110629)
(0.0870419 0 -0.0147171)
(0.105276 0 -0.0180699)
(0.12131 0 -0.0211988)
(0.135511 0 -0.0241648)
(0.148186 0 -0.0270146)
(0.159595 0 -0.0297834)
(0.170013 0 -0.0325123)
(0.179672 0 -0.0352297)
(0.188798 0 -0.0379681)
(0.197621 0 -0.040766)
(0.206368 0 -0.0436638)
(0.215275 0 -0.0467099)
(0.224539 0 -0.0499444)
(0.234467 0 -0.0534568)
(0.245309 0 -0.0573223)
(0.257339 0 -0.0616381)
(0.270925 0 -0.0665498)
(0.286436 0 -0.0722244)
(0.304277 0 -0.0788681)
(0.324977 0 -0.0867765)
(0.348908 0 -0.0962265)
(0.37638 0 -0.107536)
(0.407493 0 -0.121022)
(0.441422 0 -0.136684)
(0.475765 0 -0.153824)
(0.506519 0 -0.170821)
(0.529818 0 -0.185916)
(0.0149319 0 -0.00255047)
(0.0428363 0 -0.00733501)
(0.0671617 0 -0.0115882)
(0.0883942 0 -0.0154293)
(0.107054 0 -0.0189673)
(0.12355 0 -0.0222807)
(0.138232 0 -0.0254316)
(0.151409 0 -0.0284666)
(0.16336 0 -0.031429)
(0.174351 0 -0.0343579)
(0.184628 0 -0.0372919)
(0.194427 0 -0.0402682)
(0.203967 0 -0.0433239)
(0.213469 0 -0.0465023)
(0.223136 0 -0.0498424)
(0.233235 0 -0.0534159)
(0.244017 0 -0.0572967)
(0.255703 0 -0.0615561)
(0.268579 0 -0.0663018)
(0.282959 0 -0.071667)
(0.299156 0 -0.0778042)
(0.317568 0 -0.0849268)
(0.338435 0 -0.0932146)
(0.361959 0 -0.10287)
(0.388252 0 -0.114113)
(0.416913 0 -0.126989)
(0.446743 0 -0.14121)
(0.475491 0 -0.155948)
(0.500545 0 -0.170082)
(0.519711 0 -0.182582)
(0.0151241 0 -0.00265766)
(0.0434142 0 -0.00764908)
(0.0681297 0 -0.0120953)
(0.0897741 0 -0.0161223)
(0.108861 0 -0.0198417)
(0.125802 0 -0.0233327)
(0.140952 0 -0.0266613)
(0.154627 0 -0.0298783)
(0.167114 0 -0.0330324)
(0.178684 0 -0.0361669)
(0.18958 0 -0.0393202)
(0.200026 0 -0.0425308)
(0.210226 0 -0.0458312)
(0.220419 0 -0.0492745)
(0.230818 0 -0.0529091)
(0.24166 0 -0.0567993)
(0.25318 0 -0.0610173)
(0.265591 0 -0.0656369)
(0.279124 0 -0.0707505)
(0.294065 0 -0.0764857)
(0.310722 0 -0.0829992)
(0.329264 0 -0.0904114)
(0.349827 0 -0.0988562)
(0.372519 0 -0.108488)
(0.397125 0 -0.119352)
(0.422992 0 -0.13132)
(0.448814 0 -0.143947)
(0.472926 0 -0.156564)
(0.49375 0 -0.168472)
(0.509942 0 -0.178982)
(0.015314 0 -0.00275909)
(0.043985 0 -0.00794703)
(0.0690886 0 -0.012578)
(0.0911401 0 -0.0167831)
(0.110647 0 -0.0206752)
(0.128029 0 -0.0243383)
(0.143647 0 -0.0278416)
(0.157828 0 -0.0312424)
(0.170857 0 -0.034589)
(0.182985 0 -0.0379232)
(0.194453 0 -0.0412832)
(0.205495 0 -0.0447131)
(0.216331 0 -0.0482555)
(0.227177 0 -0.051957)
(0.238223 0 -0.0558626)
(0.249714 0 -0.0600423)
(0.261857 0 -0.0645625)
(0.274817 0 -0.0694822)
(0.288825 0 -0.0748968)
(0.30415 0 -0.0809324)
(0.320918 0 -0.0876716)
(0.339235 0 -0.0952067)
(0.359198 0 -0.103648)
(0.380686 0 -0.113033)
(0.403318 0 -0.123298)
(0.426289 0 -0.134184)
(0.448539 0 -0.145285)
(0.468986 0 -0.156153)
(0.486609 0 -0.166305)
(0.500559 0 -0.175264)
(0.0154963 0 -0.00285264)
(0.0445376 0 -0.00822338)
(0.0700198 0 -0.0130276)
(0.0924711 0 -0.017401)
(0.112393 0 -0.0214584)
(0.130223 0 -0.0252908)
(0.146323 0 -0.0289683)
(0.160997 0 -0.0325466)
(0.174527 0 -0.036073)
(0.187169 0 -0.0395914)
(0.199196 0 -0.0431547)
(0.210814 0 -0.0467995)
(0.22223 0 -0.0505673)
(0.233644 0 -0.0545014)
(0.245263 0 -0.0586552)
(0.257292 0 -0.0630881)
(0.269915 0 -0.0678596)
(0.283288 0 -0.0730281)
(0.297618 0 -0.0786829)
(0.313043 0 -0.0848969)
(0.329649 0 -0.0917335)
(0.347524 0 -0.0992745)
(0.366604 0 -0.107548)
(0.38665 0 -0.116518)
(0.407143 0 -0.126023)
(0.427386 0 -0.135805)
(0.446652 0 -0.145576)
(0.464188 0 -0.155002)
(0.479334 0 -0.163752)
(0.491518 0 -0.171477)
(0.0156694 0 -0.0029371)
(0.045067 0 -0.00847465)
(0.0709121 0 -0.0134379)
(0.0937618 0 -0.0179709)
(0.114116 0 -0.0221897)
(0.132383 0 -0.0261823)
(0.148926 0 -0.0300193)
(0.16406 0 -0.0337603)
(0.178071 0 -0.037457)
(0.19123 0 -0.0411597)
(0.203782 0 -0.0449151)
(0.215899 0 -0.0487495)
(0.227835 0 -0.0527224)
(0.239764 0 -0.0568716)
(0.251854 0 -0.0612383)
(0.26431 0 -0.0658838)
(0.27729 0 -0.0708596)
(0.290929 0 -0.0762174)
(0.305362 0 -0.0820174)
(0.320673 0 -0.0883093)
(0.336951 0 -0.0951548)
(0.354163 0 -0.102575)
(0.372161 0 -0.11055)
(0.390591 0 -0.118967)
(0.408983 0 -0.127657)
(0.426844 0 -0.13643)
(0.443632 0 -0.145056)
(0.458815 0 -0.153284)
(0.471998 0 -0.160901)
(0.482758 0 -0.167632)
(0.0158344 0 -0.00301195)
(0.0455746 0 -0.00869893)
(0.0717906 0 -0.0138103)
(0.0950233 0 -0.0184889)
(0.115769 0 -0.0228511)
(0.134447 0 -0.0269882)
(0.151414 0 -0.030973)
(0.167001 0 -0.0348696)
(0.181485 0 -0.0387297)
(0.195116 0 -0.0425998)
(0.208122 0 -0.0465212)
(0.220713 0 -0.0505357)
(0.233107 0 -0.0546917)
(0.245447 0 -0.0590177)
(0.25792 0 -0.0635635)
(0.270691 0 -0.0683769)
(0.283895 0 -0.0735017)
(0.297648 0 -0.0789816)
(0.312004 0 -0.0848439)
(0.327071 0 -0.0911441)
(0.342842 0 -0.0978989)
(0.359225 0 -0.105095)
(0.375975 0 -0.112654)
(0.392764 0 -0.120455)
(0.409257 0 -0.128371)
(0.425068 0 -0.136244)
(0.439797 0 -0.143891)
(0.453072 0 -0.151126)
(0.464631 0 -0.157796)
(0.474191 0 -0.163702)
(0.0159877 0 -0.00307545)
(0.0460479 0 -0.00889075)
(0.0726074 0 -0.0141302)
(0.0962011 0 -0.0189363)
(0.117321 0 -0.0234267)
(0.136402 0 -0.0276977)
(0.1538 0 -0.0318231)
(0.169809 0 -0.0358603)
(0.184701 0 -0.0398593)
(0.198766 0 -0.0438789)
(0.212205 0 -0.0479554)