/*--------------------------------*- C++ -*----------------------------------*\
| =========                 |                                                 |
| \\      /  F ield         | OpenFOAM: The Open Source CFD Toolbox           |
|  \\    /   O peration     | Version:  dev                                   |
|   \\  /    A nd           | Web:      www.OpenFOAM.org                      |
|    \\/     M anipulation  |                                                 |
\*---------------------------------------------------------------------------*/
FoamFile
{
    version     2.0;
    format      ascii;
    class       surfaceVectorField;
    location    "2.93";
    object      Uf;
}
// * * * * * * * * * * * * * * * * * * * * * * * * * * * * * * * * * * * * * //

dimensions      [0 1 -1 0 0 0 0];

internalField   nonuniform List<vector> 
879
(
(9.98932 -9.25747e-22 0.187421)
(10.0029 -1.10405e-19 0.126128)
(9.98617 7.16154e-21 0.253713)
(9.9905 -1.01485e-19 0.194438)
(10.0035 -1.20497e-19 0.130555)
(9.97219 6.37184e-20 0.323827)
(9.98836 -1.0163e-19 0.262619)
(9.96345 4.83189e-20 0.39342)
(9.99175 -1.2056e-19 0.200796)
(10.0043 -6.90787e-21 0.1345)
(9.97574 -1.16464e-19 0.334475)
(9.99059 1.14936e-19 0.270615)
(9.95257 1.29669e-19 0.467331)
(9.96847 -2.94921e-20 0.40547)
(9.9433 3.79889e-20 0.540122)
(9.99299 2.34819e-19 0.206414)
(10.005 -7.07818e-21 0.137938)
(9.97944 2.03207e-19 0.343889)
(9.99284 1.16138e-19 0.277582)
(9.95989 -1.23061e-19 0.480458)
(9.97373 1.26423e-20 0.415927)
(9.93502 3.90677e-20 0.617808)
(9.95286 1.72395e-19 0.553949)
(9.92885 1.29238e-19 0.693671)
(9.99427 -1.28229e-19 0.211222)
(10.0057 0 0.140827)
(9.98327 -7.97871e-20 0.351919)
(9.99519 -1.27691e-19 0.283403)
(9.96749 3.16217e-19 0.491636)
(9.97916 1.62179e-20 0.424635)
(9.94739 2.64542e-19 0.632018)
(9.96268 7.20738e-20 0.565474)
(9.92356 -6.44055e-20 0.774967)
(9.94396 5.91062e-20 0.707881)
(9.92199 -6.44617e-20 0.853643)
(9.99561 0 0.215139)
(10.0064 1.06766e-19 0.143107)
(9.98723 -2.85544e-20 0.358441)
(9.99761 -6.48917e-21 0.287985)
(9.97523 -2.3368e-19 0.500703)
(9.9847 -2.83969e-20 0.43148)
(9.96002 -1.38592e-19 0.643526)
(9.97261 -9.39642e-20 0.574516)
(9.94211 5.86256e-20 0.788735)
(9.95934 6.04814e-20 0.718961)
(9.92215 6.43164e-20 0.937886)
(9.94385 -6.25112e-22 0.866515)
(9.92679 1.24763e-19 1.01855)
(9.99698 9.97326e-20 0.218093)
(10.0072 1.02654e-19 0.14473)
(9.99124 -6.45234e-21 0.363354)
(10.0001 -1.00721e-19 0.291248)
(9.98307 1.14474e-19 0.507516)
(9.99028 2.6018e-20 0.436348)
(9.97279 1.10699e-19 0.652118)
(9.9826 1.13942e-19 0.580903)
(9.9609 -4.41209e-22 0.798889)
(9.97482 8.25327e-20 0.726689)
(9.948 6.17199e-20 0.949324)
(9.96587 -1.7107e-19 0.875308)
(9.93471 -3.39883e-21 1.10472)
(9.95636 1.20398e-19 1.0281)
(9.9217 -1.27012e-19 1.26632)
(9.94721 -1.83269e-19 1.18627)
(9.93922 1.19427e-19 1.35101)
(9.99835 -1.0358e-19 0.220023)
(10.0079 -1.96322e-19 0.145657)
(9.99526 -6.67334e-20 0.366566)
(10.0025 1.37368e-20 0.293122)
(9.99091 2.58637e-20 0.511943)
(9.99584 1.39747e-19 0.439135)
(9.98558 8.49104e-20 0.657615)
(9.99254 -1.29571e-19 0.584498)
(9.9797 -9.32298e-20 0.805219)
(9.99024 5.70238e-20 0.730892)
(9.97383 -1.10103e-19 0.956175)
(9.98777 -9.21189e-20 0.879825)
(9.96857 -6.46595e-20 1.11173)
(9.98573 3.62636e-21 1.03258)
(9.96457 6.98677e-20 1.27305)
(9.98502 -6.42301e-20 1.19029)
(9.96259 3.13199e-19 1.44123)
(9.98642 1.2932e-19 1.35407)
(9.99071 6.81811e-20 1.52489)
(9.99972 -7.5338e-20 0.220882)
(10.0086 -1.01923e-19 0.145862)
(9.99926 2.26059e-19 0.367996)
(10.005 3.03748e-20 0.293547)
(9.99869 -2.0924e-20 0.513872)
(10.0013 5.63603e-21 0.439753)
(9.99825 -1.57386e-19 0.65988)
(10.0023 -3.17277e-20 0.58519)
(9.9983 5.76476e-20 0.807562)
(10.0054 -1.32245e-19 0.731439)
(9.99936 2.4676e-20 0.95826)
(10.0093 1.37644e-19 0.879916)
(10.002 3.89461e-21 1.11315)
(10.0146 5.18481e-20 1.03183)
(10.0068 -2.93593e-21 1.27332)
(10.0221 1.16143e-19 1.18825)
(10.0146 -1.21889e-19 1.43973)
(10.0326 -6.11875e-20 1.35015)
(10.0261 -6.06612e-20 1.61329)
(10.0469 -1.20707e-19 1.51842)
(10.0424 -6.41682e-20 1.79477)
(10.0658 5.98137e-20 1.69382)
(10.0903 -6.41332e-20 1.87701)
(10.0011 6.91946e-21 0.22063)
(10.0093 9.43674e-20 0.145321)
(10.0032 -1.95461e-19 0.36758)
(10.0073 7.542e-21 0.29248)
(10.0063 -5.66032e-21 0.513218)
(10.0067 -1.86314e-20 0.438139)
(10.0107 -6.37168e-21 0.65881)
(10.0119 2.00701e-19 0.582898)
(10.0165 -4.9308e-20 0.805801)
(10.0202 -1.06579e-19 0.728238)
(10.0243 1.65195e-19 0.955452)
(10.0303 -4.92993e-20 0.875481)
(10.0346 1.67027e-19 1.10886)
(10.0426 7.05407e-21 1.02575)
(10.048 5.61328e-20 1.267)
(10.0581 5.76453e-20 1.18004)
(10.0651 -6.0012e-20 1.43075)
(10.0773 -5.50545e-20 1.3392)
(10.0868 2.92697e-21 1.60085)
(10.1011 -1.16322e-19 1.50401)
(10.114 5.97749e-20 1.77796)
(10.1303 1.18828e-19 1.67509)
(10.1477 0 1.9626)
(10.1657 1.17244e-19 1.85295)
(10.1891 -6.39649e-20 2.15519)
(10.2083 -1.19147e-19 2.03799)
(10.2594 5.74142e-20 2.23049)
(10.0024 9.46162e-20 0.219239)
(10.01 0 0.144021)
(10.007 1.88617e-19 0.365272)
(10.0096 1.82766e-19 0.28989)
(10.0137 1.93873e-19 0.50992)
(10.0118 1.60388e-20 0.434246)
(10.0227 9.67607e-20 0.654334)
(10.0211 -7.06634e-21 0.577571)
(10.0342 -1.06349e-19 0.799862)
(10.0345 9.67125e-20 0.721237)
(10.0485 -2.11239e-19 0.947676)
(10.0505 -1.05995e-19 0.86647)
(10.0661 -1.04941e-19 1.09879)
(10.0696 -5.1827e-21 1.01431)
(10.0876 -5.65373e-20 1.25407)
(10.0926 -2.59398e-20 1.16565)
(10.1136 -1.12863e-19 1.41427)
(10.1201 -1.35987e-19 1.32124)
(10.1449 2.63871e-21 1.58003)
(10.1529 -5.75929e-20 1.48173)
(10.1824 1.77691e-19 1.75185)
(10.1916 5.87402e-20 1.64762)
(10.2269 -4.95236e-21 1.9301)
(10.2371 1.76379e-19 1.81928)
(10.2795 5.25977e-21 2.11505)
(10.2903 -1.2213e-19 1.99696)
(10.3412 1.84272e-19 2.30679)
(10.3522 6.56425e-20 2.18078)
(10.4239 9.29489e-20 2.37067)
(10.0036 9.10622e-20 0.216694)
(10.0107 -3.26793e-22 0.141956)
(10.0106 5.06588e-21 0.361044)
(10.0118 9.03998e-20 0.285762)
(10.0209 -1.89937e-19 0.503943)
(10.0168 1.15326e-20 0.428053)
(10.0343 -6.67352e-21 0.646418)
(10.03 -1.09236e-19 0.569187)
(10.0511 9.63811e-20 0.789715)
(10.0481 9.24667e-20 0.710419)
(10.0716 1.05455e-19 0.934914)
(10.0698 0 0.852879)
(10.0962 7.57122e-20 1.08293)
(10.0952 8.04953e-20 0.997514)
(10.1254 -1.0758e-19 1.23455)
(10.1253 7.4727e-20 1.14512)
(10.1597 -7.92641e-20 1.3904)
(10.1606 -5.55165e-20 1.29636)
(10.2 -4.00778e-23 1.55099)
(10.2017 2.18376e-22 1.45175)
(10.2468 5.74525e-20 1.7167)
(10.2492 2.63899e-20 1.61167)
(10.3012 5.61585e-20 1.88776)
(10.3039 3.00825e-20 1.77637)
(10.3639 -6.02438e-20 2.0643)
(10.3665 0 1.94597)
(10.4359 -2.80641e-20 2.24626)
(10.4381 -1.16679e-19 2.12045)
(10.5183 -6.57767e-22 2.43341)
(10.5194 8.7849e-20 2.29962)
(10.6122 -4.41659e-20 2.62535)
(10.6114 -3.06391e-20 2.4831)
(10.7152 -1.33959e-20 2.67033)
(10.0048 -6.15206e-22 0.212989)
(10.0113 -1.60213e-21 0.139125)
(10.0141 9.66163e-20 0.354887)
(10.0139 -1.67262e-19 0.280095)
(10.0276 9.36172e-20 0.495278)
(10.0215 1.12919e-20 0.419562)
(10.0453 -6.82279e-21 0.63506)
(10.0383 -6.63299e-24 0.557754)
(10.0671 -6.59561e-21 0.775373)
(10.061 -9.8176e-20 0.695807)
(10.0934 -2.53488e-20 0.917202)
(10.0879 0 0.834753)
(10.1246 7.94472e-20 1.06137)
(10.1194 -1.33511e-20 0.975443)
(10.1609 1.27845e-19 1.20856)
(10.156 9.1589e-20 1.11858)
(10.203 2.59841e-20 1.35929)
(10.1985 2.66753e-20 1.26473)
(10.2515 2.72961e-20 1.51398)
(10.2472 -6.32732e-20 1.4143)
(10.3069 -1.68165e-21 1.67286)
(10.3027 1.07414e-21 1.56757)
(10.3701 -2.74889e-20 1.83607)
(10.3656 -9.36964e-20 1.72468)
(10.4417 -5.79096e-20 2.00359)
(10.4367 -6.64186e-21 1.88563)
(10.5227 2.1564e-21 2.17526)
(10.5166 -1.04805e-19 2.0503)
(10.6138 5.71109e-20 2.35072)
(10.606 6.19523e-20 2.21838)
(10.716 9.10521e-22 2.52947)
(10.7059 -3.46817e-21 2.38941)
(10.83 5.99188e-20 2.71077)
(10.8168 5.69026e-20 2.56275)
(10.9566 -2.64177e-21 2.89371)
(10.9395 -2.50114e-20 2.73757)
(11.0746 -3.18781e-20 2.91283)
(10.0059 -1.7298e-19 0.20813)
(10.0118 -1.29806e-21 0.135537)
(10.0174 -2.53676e-19 0.346811)
(10.0158 -1.6536e-19 0.272904)
(10.034 -8.46739e-20 0.483942)
(10.0259 -8.71552e-20 0.408794)
(10.0556 -9.39911e-20 0.620292)
(10.0461 8.01522e-20 0.543306)
(10.0822 -9.1061e-20 0.756888)
(10.073 -9.0877e-20 0.677457)
(10.1139 1.22569e-20 0.894622)
(10.1049 -2.82696e-21 0.812176)
(10.1511 -6.63913e-22 1.03422)
(10.1418 -7.98573e-20 0.94822)
(10.1941 -1.22103e-20 1.17627)
(10.1846 -5.95824e-20 1.0862)
(10.2432 -6.4958e-20 1.3212)
(10.2335 0 1.22658)
(10.2991 -9.00624e-20 1.46931)
(10.2891 -1.39187e-20 1.36969)
(10.3622 -9.33464e-20 1.62077)
(10.3518 -7.73484e-20 1.51572)
(10.4332 -7.22477e-20 1.77558)
(10.422 -6.7345e-20 1.66471)
(10.5126 -5.47829e-20 1.93364)
(10.5004 -6.80682e-21 1.81659)
(10.6012 -4.34175e-20 2.09469)
(10.5874 -4.74509e-20 1.97111)
(10.6996 -1.59119e-22 2.25829)
(10.6837 3.48066e-21 2.12793)
(10.8084 5.39627e-20 2.42387)
(10.7899 -3.55374e-21 2.28651)
(10.9283 -3.0189e-20 2.59066)
(10.9064 5.73867e-20 2.44619)
(11.0597 -5.49983e-20 2.75773)
(11.0338 -3.25864e-20 2.60611)
(11.2032 8.6262e-20 2.92396)
(11.1723 -2.45803e-20 2.76529)
(11.3589 -5.70985e-20 3.08802)
(11.3224 1.12605e-19 2.92256)
(11.4839 -5.97626e-20 3.07659)
(10.007 5.79852e-21 0.202133)
(10.0123 -7.60228e-20 0.131205)
(10.0204 5.63535e-21 0.336842)
(10.0176 7.96595e-20 0.264217)
(10.0399 8.24694e-20 0.469976)
(10.0299 1.51553e-20 0.39579)
(10.0652 8.26624e-20 0.602171)
(10.0533 -1.18056e-20 0.525903)
(10.0962 -1.64645e-22 0.734347)
(10.0842 2.81819e-21 0.655451)
(10.1329 -9.74469e-20 0.867296)
(10.1205 -2.89677e-21 0.785262)
(10.1757 -1.40176e-19 1.00165)
(10.1625 8.46674e-20 0.916002)
(10.2246 -4.69425e-20 1.13791)
(10.2108 -1.36768e-20 1.04819)
(10.2801 5.22815e-20 1.27641)
(10.2656 -2.31057e-20 1.18221)
(10.3426 -1.00297e-21 1.41739)
(10.3274 4.02805e-20 1.3183)
(10.4125 -5.0674e-20 1.56091)
(10.3963 -6.32901e-20 1.45659)
(10.4902 -2.18323e-22 1.7069)
(10.4729 6.14089e-20 1.59705)
(10.5764 6.70248e-22 1.85519)
(10.5575 4.94495e-20 1.73952)
(10.6713 6.52807e-22 2.00544)
(10.6505 5.13127e-20 1.88371)
(10.7756 0 2.15717)
(10.7524 0 2.02923)
(10.8897 0 2.30979)
(10.8636 0 2.17551)
(11.0139 5.48652e-20 2.46251)
(10.9843 0 2.32189)
(11.1486 -1.44975e-21 2.61445)
(11.1149 5.40245e-20 2.46755)
(11.294 2.51983e-21 2.76454)
(11.2555 -1.07457e-19 2.61156)
(11.4501 1.09675e-19 2.91162)
(11.4061 -9.93718e-20 2.75285)
(10.0079 2.12638e-22 0.195023)
(10.0127 -7.26836e-20 0.126147)
(10.0232 8.90563e-20 0.325023)
(10.0193 7.08934e-20 0.25407)
(10.0454 -8.15612e-20 0.453441)
(10.0337 5.73387e-21 0.380608)
(10.0741 -9.35337e-20 0.580784)
(10.06 -9.61804e-20 0.505627)
(10.109 0 0.707863)
(10.0944 1.13394e-19 0.6299)
(10.1504 1.83962e-19 0.835378)
(10.1348 -8.44635e-20 0.754159)
(10.1981 2.14024e-19 0.963872)
(10.1814 7.47014e-20 0.87898)
(10.2525 1.07144e-20 1.09375)
(10.2346 5.7373e-20 1.0048)
(10.3136 -3.52805e-20 1.2253)
(10.2947 6.67472e-20 1.13192)
(10.3819 -2.37136e-20 1.35865)
(10.3618 -3.52389e-20 1.26053)
(10.4577 5.17378e-20 1.49382)
(10.4362 3.51299e-20 1.39068)
(10.5412 1.12294e-19 1.63069)
(10.5182 6.31612e-20 1.52228)
(10.6329 1.01355e-19 1.769)
(10.608 5.01481e-20 1.65513)
(10.7331 5.05973e-20 1.9084)
(10.706 5.19025e-20 1.78892)
(10.842 0 2.04839)
(10.8123 0 1.92321)
(10.96 0 2.18836)
(10.9273 4.92733e-20 2.05746)
(11.0873 -8.35679e-22 2.32757)
(11.051 0 2.19101)
(11.224 -5.47407e-20 2.46518)
(11.1836 9.86834e-20 2.3231)
(11.37 -2.11865e-19 2.60025)
(11.3251 -5.62355e-21 2.45289)
(11.4752 -1.10325e-19 2.57944)
(10.0088 3.4503e-22 0.186832)
(10.0131 1.57942e-19 0.120387)
(10.0258 -1.48155e-20 0.311408)
(10.0207 -1.41041e-20 0.242513)
(10.0504 -9.70423e-21 0.434415)
(10.037 8.4767e-20 0.363324)
(10.0821 1.16656e-19 0.556237)
(10.066 -2.51755e-23 0.48258)
(10.1207 2.61815e-20 0.67758)
(10.1036 1.56213e-20 0.600941)
(10.1662 -1.95921e-19 0.799053)
(10.1477 -4.12307e-21 0.719043)
(10.2184 -8.58471e-20 0.921118)
(10.1984 -1.11402e-19 0.837381)
(10.2775 1.14793e-19 1.04411)
(10.256 -2.04862e-20 0.956317)
(10.3437 6.66062e-20 1.16823)
(10.3206 1.14373e-19 1.07609)
(10.417 2.51838e-20 1.29356)
(10.3924 -4.55756e-20 1.19681)
(10.4978 4.6865e-20 1.42007)
(10.4715 1.38376e-19 1.31849)
(10.5862 -5.45133e-22 1.54759)
(10.558 -4.56047e-20 1.44101)
(10.6824 -5.30597e-22 1.67584)
(10.6522 4.56181e-20 1.56413)
(10.7867 0 1.80444)
(10.7541 -9.3949e-20 1.68753)
(10.8993 5.05429e-20 1.9329)
(10.8638 4.77567e-20 1.81076)
(11.0201 4.92188e-20 2.06063)
(10.9815 4.99564e-20 1.93331)
(11.1493 1.02073e-19 2.18695)
(11.1072 0 2.05456)
(11.2869 1.48956e-19 2.31108)
(11.2408 1.0196e-19 2.17382)
(11.4326 9.83441e-20 2.4322)
(11.3822 9.69819e-20 2.29034)
(11.5311 -9.71102e-20 2.40331)
(10.0096 1.42805e-19 0.177602)
(10.0134 9.50268e-20 0.113956)
(10.0281 8.83833e-20 0.296065)
(10.022 -5.01778e-22 0.229604)
(10.0549 9.42821e-20 0.412997)
(10.0401 4.56682e-21 0.344023)
(10.0893 -1.0347e-19 0.528663)
(10.0713 -7.55936e-20 0.456882)
(10.1312 -1.54867e-20 0.643668)
(10.1118 -2.55619e-20 0.568731)
(10.1803 8.21601e-20 0.758538)
(10.1592 5.17853e-21 0.680115)
(10.2365 -4.41919e-20 0.873659)
(10.2135 4.26763e-23 0.791454)
(10.2998 -2.06181e-20 0.989296)
(10.2749 -1.27021e-19 0.903042)
(10.3703 -8.98585e-22 1.1056)
(10.3435 2.21931e-20 1.01506)
(10.4479 7.07185e-20 1.22259)
(10.4193 -2.25128e-20 1.12757)
(10.5329 4.3326e-20 1.34021)
(10.5024 4.86012e-20 1.24054)
(10.6253 1.80056e-21 1.45825)
(10.5926 -4.67323e-20 1.35383)
(10.7252 -5.02779e-20 1.57643)
(10.6902 4.72963e-20 1.46718)
(10.8327 -4.48589e-20 1.69436)
(10.7952 -5.10418e-20 1.58027)
(10.9478 4.71379e-20 1.81158)
(10.9075 3.24857e-21 1.69268)
(11.0705 -5.46162e-22 1.92754)
(11.027 4.48346e-20 1.80391)
(11.2008 0 2.04161)
(11.1538 -1.40408e-19 1.91342)
(11.3384 4.87236e-20 2.15311)
(11.2876 0 2.02059)
(11.483 -1.03463e-19 2.26132)
(11.4282 9.55639e-20 2.12476)
(11.5753 -1.03243e-19 2.22524)
(10.0103 -5.16245e-20 0.167379)
(10.0137 -6.27197e-20 0.106885)
(10.0301 -8.61834e-20 0.279073)
(10.0232 -6.02042e-20 0.215407)
(10.0588 -1.6982e-19 0.389295)
(10.0427 -1.66145e-19 0.322802)
(10.0958 4.37331e-21 0.498207)
(10.0761 -3.56518e-21 0.428666)
(10.1405 -4.28737e-21 0.606315)
(10.1191 -3.39317e-20 0.53344)
(10.1928 -7.89703e-20 0.714066)
(10.1694 3.48671e-20 0.637589)
(10.2525 -8.5137e-20 0.82178)
(10.2268 7.88828e-20 0.74146)
(10.3194 -8.28268e-20 0.92966)
(10.2915 -1.25294e-19 0.845288)
(10.3935 -5.69239e-23 1.03781)
(10.3635 4.07291e-20 0.949203)
(10.4748 -4.50791e-20 1.14621)
(10.4427 0 1.05323)
(10.5633 -4.38381e-20 1.25477)
(10.5289 -8.71341e-20 1.15731)
(10.6589 0 1.36327)
(10.6223 4.2739e-20 1.26127)
(10.7616 4.64086e-20 1.47144)
(10.7226 -8.64668e-20 1.36488)
(10.8715 -1.7082e-21 1.5789)
(10.8298 3.19187e-21 1.46781)
(10.9884 9.27933e-22 1.68522)
(10.9439 8.72565e-20 1.56967)
(11.1122 -9.86858e-20 1.78989)
(11.0646 1.87768e-21 1.67001)
(11.2427 -1.40235e-19 1.89237)
(11.1917 -9.84874e-20 1.76835)
(11.3796 4.81077e-20 1.99205)
(11.3251 -1.35311e-19 1.86414)
(11.5227 9.55963e-20 2.08832)
(11.4644 9.42513e-20 1.95682)
(11.6092 1.39393e-19 2.04581)
(10.0109 -7.1277e-20 0.156214)
(10.0139 -6.55983e-20 0.0992078)
(10.0319 -1.42491e-19 0.260515)
(10.0242 -3.20953e-21 0.199991)
(10.0623 4.82593e-21 0.363431)
(10.0451 8.33542e-20 0.299765)
(10.1014 -4.29182e-20 0.465026)
(10.0802 5.77296e-20 0.398069)
(10.1487 6.41151e-21 0.565718)
(10.1254 -1.16014e-19 0.495247)
(10.2038 1.96713e-19 0.66588)
(10.1782 1.562e-19 0.591684)
(10.2664 3.7241e-20 0.765769)
(10.2383 4.2469e-20 0.687663)
(10.3364 1.67687e-21 0.86554)
(10.3058 -4.13008e-20 0.783367)
(10.4136 4.07006e-20 0.96525)
(10.3806 -3.75954e-20 0.878883)
(10.4979 -4.32585e-20 1.06486)
(10.4626 0 0.97421)
(10.5892 1.8058e-21 1.16426)
(10.5516 -2.01046e-21 1.06926)
(10.6873 -4.60708e-20 1.26322)
(10.6473 2.03686e-21 1.16387)
(10.7922 -1.30667e-19 1.36149)
(10.7497 -8.86034e-20 1.25779)
(10.9037 9.44452e-20 1.45871)
(10.8585 -4.42295e-20 1.35074)
(11.0217 8.81248e-20 1.55448)
(10.9737 1.8025e-19 1.44235)
(11.1459 2.01317e-21 1.64837)
(11.0949 -2.10927e-21 1.53223)
(11.2761 -9.34759e-20 1.73988)
(11.222 4.65171e-20 1.61994)
(11.4119 -8.77878e-20 1.82851)
(11.3545 -1.16353e-19 1.70503)
(11.553 1.3916e-19 1.91375)
(11.4921 4.73164e-20 1.78702)
(11.6343 9.29269e-20 1.86543)
(10.0114 4.29179e-21 0.144159)
(10.0141 -2.99747e-21 0.0909593)
(10.0335 2.28444e-19 0.24048)
(10.025 3.93928e-21 0.183424)
(10.0654 1.37378e-19 0.335525)
(10.0471 1.59815e-19 0.275015)
(10.1063 -1.77999e-20 0.42928)
(10.0838 -5.28899e-20 0.365231)
(10.1557 3.8341e-20 0.522078)
(10.1309 3.55616e-20 0.45433)
(10.2132 -2.13886e-21 0.614221)
(10.1858 3.82172e-20 0.542618)
(10.2784 -3.82006e-20 0.705914)
(10.2482 -7.61923e-20 0.630323)
(10.351 -8.1535e-20 0.797267)
(10.318 3.79146e-20 0.717579)
(10.4307 -7.92176e-20 0.888304)
(10.3952 -8.1073e-20 0.804441)
(10.5174 4.22691e-20 0.978971)
(10.4795 -3.90013e-20 0.890884)
(10.6109 -1.77289e-21 1.06914)
(10.5705 2.5874e-21 0.97681)
(10.711 -4.16961e-20 1.1586)
(10.6681 7.75331e-20 1.06206)
(10.8175 0 1.2471)
(10.772 -8.20774e-20 1.1464)
(10.9301 4.39761e-20 1.33433)
(10.882 -4.11346e-20 1.22956)
(11.0486 8.75611e-20 1.41993)
(10.9978 4.35873e-20 1.31123)
(11.1728 4.35695e-20 1.50351)
(11.1191 -3.88433e-20 1.39106)
(11.3022 2.28916e-20 1.58465)
(11.2456 8.54335e-20 1.46867)
(11.4366 2.22844e-20 1.66294)
(11.3769 4.42875e-20 1.54368)
(11.5754 0 1.73795)
(11.5125 0 1.6157)
(11.6521 -1.70686e-19 1.68434)
(10.0118 -3.34189e-21 0.131265)
(10.0142 7.34393e-20 0.0821702)
(10.0348 -6.56122e-20 0.219051)
(10.0258 -1.0998e-20 0.16577)
(10.068 -3.59694e-20 0.3057)
(10.0488 -1.64501e-19 0.24865)
(10.1105 2.16201e-21 0.391129)
(10.0869 -1.71295e-21 0.330289)
(10.1618 3.54436e-20 0.475591)
(10.1356 3.6427e-20 0.410861)
(10.2213 -3.79642e-20 0.559326)
(10.1923 0 0.490603)
(10.2886 2.07767e-21 0.642489)
(10.2566 -3.78553e-20 0.569685)
(10.3633 3.81045e-20 0.725154)
(10.3284 3.88466e-20 0.648207)
(10.4451 -3.97746e-20 0.807321)
(10.4075 -3.66287e-20 0.726194)
(10.5338 -7.95815e-20 0.888923)
(10.4936 1.12243e-19 0.803605)
(10.629 8.3993e-20 0.969828)
(10.5863 -7.86079e-20 0.880339)
(10.7305 3.59105e-20 1.04985)
(10.6853 1.62647e-19 0.95624)
(10.838 -1.24166e-19 1.12874)
(10.7902 -8.41083e-20 1.0311)
(10.9513 -4.1424e-20 1.20623)
(10.9009 -1.9584e-21 1.10468)
(11.07 -8.60716e-20 1.28201)
(11.0169 -1.01153e-19 1.17671)
(11.1937 4.20552e-21 1.35574)
(11.138 7.76262e-20 1.24687)
(11.3221 1.07315e-19 1.42707)
(11.2636 -1.58326e-20 1.31486)
(11.4548 2.14062e-20 1.49566)
(11.3935 2.19637e-20 1.38036)
(11.5912 -1.75117e-19 1.56116)
(11.5272 0 1.44305)
(11.6641 -1.74913e-19 1.50261)
(10.0122 6.55058e-20 0.117576)
(10.0143 6.07598e-20 0.0728655)
(10.036 -1.1293e-19 0.196306)
(10.0264 6.51538e-20 0.147082)
(10.0702 -1.28668e-19 0.274069)
(10.0504 -4.03185e-20 0.220757)
(10.1141 3.3592e-20 0.350722)
(10.0896 1.75718e-21 0.293367)
(10.167 0 0.426444)
(10.1396 3.34161e-20 0.365003)
(10.2281 0 0.501416)
(10.1978 -1.69672e-22 0.435832)
(10.2972 0 0.575748)
(10.2637 -3.48612e-20 0.505978)
(10.3736 -3.7905e-20 0.649485)
(10.3371 3.55316e-20 0.575506)
(10.4571 1.19447e-19 0.722609)
(10.4178 3.44035e-20 0.644422)
(10.5473 1.12866e-19 0.795046)
(10.5053 4.49526e-20 0.712675)
(10.6438 2.40297e-21 0.866668)
(10.5992 3.5506e-20 0.780165)
(10.7464 3.92686e-20 0.937302)
(10.6992 -3.59692e-20 0.846746)
(10.8546 4.12632e-20 1.00674)
(10.8049 0 0.912236)
(10.9681 -6.33169e-20 1.07473)
(10.9159 1.18442e-19 0.976422)
(11.0866 6.68262e-20 1.14101)
(11.0319 -2.02054e-19 1.03907)
(11.2096 5.69592e-20 1.2053)
(11.1525 1.4754e-19 1.09992)
(11.3368 -1.03251e-19 1.26732)
(11.2771 -1.45266e-19 1.15872)
(11.4678 0 1.32677)
(11.4055 8.10482e-20 1.2152)
(11.6019 0 1.38337)
(11.5372 -6.00247e-20 1.26911)
(11.6716 -7.9098e-20 1.3202)
(10.0126 6.04251e-20 0.103124)
(10.0143 -4.99095e-21 0.0630593)
(10.037 1.39033e-19 0.17231)
(10.027 3.81091e-20 0.127394)
(10.0722 9.34214e-20 0.240732)
(10.0518 1.30646e-19 0.191407)
(10.1173 1.68874e-21 0.308197)
(10.092 -9.72051e-20 0.254575)
(10.1714 3.3133e-20 0.374809)
(10.1431 3.42284e-20 0.316901)
(10.234 -3.5985e-20 0.440695)
(10.2026 -6.67629e-20 0.378482)
(10.3044 1.72933e-21 0.505929)
(10.2697 -1.65438e-21 0.439403)
(10.3823 1.09617e-19 0.570532)
(10.3445 7.06623e-20 0.499703)
(10.4671 -4.19189e-20 0.634473)
(10.4264 3.2619e-21 0.559371)
(10.5584 -3.43359e-20 0.697674)
(10.515 -1.49488e-19 0.618351)
(10.6559 -3.9544e-21 0.760016)
(10.6099 7.63112e-20 0.676546)
(10.7592 -7.6148e-20 0.821343)
(10.7106 -7.81679e-20 0.733828)
(10.8678 7.92789e-20 0.881472)
(10.8167 7.4207e-20 0.790038)
(10.9813 -2.41983e-20 0.940193)
(10.9279 -1.56333e-20 0.844994)
(11.0994 -1.1888e-19 0.997284)
(11.0436 -2.54321e-20 0.898497)
(11.2217 -6.00675e-20 1.05251)
(11.1635 -5.92582e-20 0.950338)
(11.3476 4.38957e-20 1.10564)
(11.2872 -5.97472e-20 1.00031)
(11.4768 1.93617e-20 1.15644)
(11.4141 8.30679e-20 1.04819)
(11.6087 -1.41119e-19 1.20469)
(11.5439 -1.59179e-19 1.09379)
(11.676 -1.39138e-21 1.13691)
(10.0129 -2.78939e-20 0.0879244)
(10.0144 -6.04327e-20 0.052744)
(10.038 2.99115e-20 0.147106)
(10.0275 -2.7989e-20 0.10671)
(10.074 -6.56224e-20 0.205773)
(10.0531 3.00508e-20 0.160647)
(10.12 -6.34184e-20 0.26367)
(10.0942 -6.51595e-20 0.214006)
(10.1753 -6.8421e-20 0.320823)
(10.1463 -3.16087e-20 0.266677)
(10.239 -3.14038e-20 0.377305)
(10.2068 -3.3009e-21 0.318697)
(10.3106 6.91591e-20 0.433166)
(10.275 3.48948e-20 0.370124)
(10.3896 -3.84535e-20 0.488407)
(10.3507 3.51e-20 0.420976)
(10.4754 -1.07271e-19 0.542992)
(10.4336 -4.25976e-21 0.471229)
(10.5677 -3.56569e-20 0.596846)
(10.5231 -7.16546e-20 0.520824)
(10.6659 0 0.649862)
(10.6187 7.03208e-20 0.569673)
(10.7695 7.61743e-20 0.701907)
(10.7199 -7.70662e-22 0.617664)
(10.8783 -2.31925e-20 0.752823)
(10.8263 -1.50296e-20 0.664664)
(10.9917 -1.68914e-20 0.802438)
(10.9374 -7.8761e-20 0.71052)
(11.1094 3.56405e-20 0.850567)
(11.0529 9.6158e-20 0.755071)
(11.2308 -5.89306e-20 0.897021)
(11.1721 -4.00603e-20 0.798148)
(11.3555 -1.94385e-20 0.941613)
(11.2948 -1.99484e-20 0.839583)
(11.483 -1.00213e-19 0.984161)
(11.4204 7.53891e-20 0.87921)
(11.613 -1.57954e-20 1.02449)
(11.5484 -2.53008e-19 0.916874)
(11.6785 1.59187e-19 0.952427)
(10.0133 -6.04306e-20 0.0719536)
(10.0145 6.98695e-21 0.0418668)
(10.039 -2.76149e-20 0.120705)
(10.0283 -3.87188e-20 0.084974)
(10.0758 2.99978e-20 0.169261)
(10.0546 3.09007e-20 0.128499)
(10.1227 -3.24634e-20 0.217284)
(10.0965 3.01426e-20 0.171741)
(10.1788 3.51908e-20 0.264716)
(10.1494 1.38011e-20 0.214444)
(10.2434 6.47312e-20 0.311586)
(10.2107 3.49e-20 0.256613)
(10.316 0 0.357911)
(10.2798 -4.80969e-20 0.298293)
(10.3958 7.00644e-20 0.403675)
(10.3564 3.28756e-20 0.339484)
(10.4824 3.21148e-20 0.448833)
(10.44 3.67155e-20 0.380151)
(10.5753 3.72397e-20 0.493314)
(10.5301 1.5039e-20 0.420238)
(10.674 6.9416e-20 0.537024)
(10.6262 8.92315e-20 0.459669)
(10.778 -9.42537e-20 0.579852)
(10.7278 -7.89818e-22 0.49835)
(10.8869 -7.2053e-20 0.62167)
(10.8344 -9.32804e-20 0.536172)
(11.0001 3.73637e-20 0.662337)
(10.9454 3.6683e-20 0.573014)
(11.1172 1.83885e-20 0.701709)
(11.0605 8.86097e-22 0.608748)
(11.2378 -8.70766e-23 0.739637)
(11.1792 -1.8336e-20 0.643242)
(11.3614 7.73657e-20 0.775977)
(11.301 -7.28648e-20 0.676366)
(11.4875 -8.15948e-20 0.810588)
(11.4254 1.61029e-19 0.707996)
(11.6157 -7.3204e-20 0.843341)
(11.552 -1.56747e-19 0.738013)
(11.6804 7.01212e-20 0.766307)
(10.0138 2.92619e-20 0.0551266)
(10.0148 -6.46762e-21 0.0302632)
(10.0403 2.14682e-20 0.0930501)
(10.0294 8.10105e-21 0.0620403)
(10.0779 3.09579e-20 0.131088)
(10.0565 1.4357e-20 0.0949379)
(10.1255 7.74756e-20 0.168772)
(10.0991 1.44706e-21 0.127796)
(10.1823 1.35681e-20 0.206011)
(10.1527 4.72284e-20 0.160241)
(10.2478 -8.09224e-20 0.242831)
(10.2147 -4.78234e-20 0.192296)
(10.3211 -1.4218e-20 0.279241)
(10.2844 -3.36075e-20 0.223996)
(10.4016 -1.28778e-21 0.315212)
(10.3617 6.54655e-20 0.255323)
(10.4889 1.9182e-20 0.350694)
(10.4459 -6.66021e-20 0.286236)
(10.5823 6.84633e-20 0.385623)
(10.5366 3.56918e-20 0.316682)
(10.6814 1.71355e-20 0.419918)
(10.6331 -2.41077e-20 0.346602)
(10.7855 6.72653e-23 0.453488)
(10.735 7.6346e-20 0.375921)
(10.8944 1.83622e-20 0.486228)
(10.8416 -1.72939e-20 0.404555)
(11.0074 -7.54878e-22 0.518027)
(10.9526 8.72005e-22 0.432413)
(11.1241 -3.67785e-20 0.548772)
(11.0675 5.12416e-20 0.4594)
(11.244 -9.30047e-20 0.57835)
(11.1857 -8.12358e-20 0.485418)
(11.3667 1.31596e-20 0.606649)
(11.3068 -3.74352e-21 0.510373)
(11.4916 8.36588e-20 0.633566)
(11.4303 1.32789e-20 0.534172)
(11.6184 -9.58537e-21 0.659004)
(11.5558 0 0.556733)
(11.6828 7.1798e-20 0.577977)
(10.015 -2.79203e-20 0.0373213)
(10.0156 -6.05424e-22 0.0174123)
(10.0423 7.63227e-22 0.0645718)
(10.0319 -1.43045e-20 0.0378515)
(10.0803 -1.59386e-20 0.0923382)
(10.0601 7.70283e-21 0.0600876)
(10.1285 -2.94279e-20 0.119834)
(10.1031 -8.68922e-21 0.0822674)
(10.186 -1.59613e-20 0.146945)
(10.1571 -8.63362e-23 0.104146)
(10.2521 7.04401e-22 0.173722)
(10.2196 -2.33475e-20 0.125819)
(10.326 4.82861e-20 0.200175)
(10.2898 1.60687e-20 0.147298)
(10.4071 -1.75849e-21 0.226277)
(10.3676 3.25639e-20 0.16854)
(10.4949 -4.9488e-20 0.251988)
(10.4522 -3.33987e-20 0.189503)
(10.5887 -5.93188e-20 0.277265)
(10.5433 -5.29408e-20 0.210146)
(10.6881 3.67385e-20 0.302052)
(10.6401 -5.0595e-20 0.230424)
(10.7925 5.84166e-20 0.326286)
(10.7421 1.03217e-19 0.250285)
(10.9014 -3.51957e-20 0.349895)
(10.8489 -1.35991e-20 0.26967)
(11.0143 5.42313e-20 0.372803)
(10.9599 -1.78479e-20 0.288515)
(11.1307 5.50599e-21 0.39493)
(11.0746 1.05522e-19 0.306757)
(11.2501 1.03667e-20 0.416197)
(11.1925 -1.37525e-19 0.324331)
(11.3721 -3.61404e-21 0.43653)
(11.3131 1.07835e-19 0.341172)
(11.4962 -7.25159e-20 0.455856)
(11.4361 -1.22417e-19 0.357221)
(11.622 8.35217e-20 0.474111)
(11.5608 4.00099e-20 0.372424)
(11.6869 8.34548e-20 0.386729)
(10.0185 1.32756e-20 0.0165149)
(10.0097 1.20078e-20 0.00112498)
(10.0466 -7.16193e-21 0.0319307)
(10.0214 8.2877e-21 0.0123843)
(10.0852 1.50722e-20 0.0485009)
(10.0436 -7.17019e-21 0.0239933)
(10.1338 2.13483e-20 0.06511)
(10.0801 8.0152e-21 0.0352391)
(10.1917 -7.72471e-21 0.0815981)
(10.1278 7.15078e-21 0.0463526)
(10.2581 -7.48134e-21 0.097983)
(10.1844 -7.70426e-21 0.0574345)
(10.3324 0 0.114237)
(10.2491 -5.01229e-23 0.0684609)
(10.4138 0 0.13031)
(10.3216 -5.75144e-23 0.079388)
(10.5019 -3.69784e-20 0.146156)
(10.4014 -7.75548e-21 0.090184)
(10.5959 -4.39954e-20 0.161735)
(10.4878 -4.07881e-20 0.100824)
(10.6955 1.78056e-20 0.177005)
(10.5802 -7.95285e-21 0.111281)
(10.8 2.92251e-20 0.191923)
(10.6781 3.37105e-20 0.121525)
(10.9089 4.17817e-21 0.206438)
(10.781 1.99035e-22 0.131524)
(11.0217 3.4895e-20 0.220504)
(10.8883 -8.22205e-21 0.141243)
(11.138 -4.1396e-20 0.23407)
(10.9995 4.3262e-20 0.150649)
(11.2572 -3.73209e-20 0.247088)
(11.1141 -7.94743e-20 0.159706)
(11.3788 -1.42011e-20 0.259514)
(11.2315 3.59681e-20 0.168383)
(11.5024 -6.87669e-21 0.271305)
(11.3514 -4.49111e-20 0.176648)
(11.6275 3.99762e-20 0.282423)
(11.4732 1.95838e-20 0.184473)
(11.5964 1.75095e-20 0.191832)
(10.0013 6.89946e-21 0.00241895)
(10.0146 8.29472e-21 0.0067733)
(10.0396 -1.43603e-20 0.0118803)
(10.0752 -6.55612e-21 0.0171404)
(10.1206 7.1204e-21 0.0224697)
(10.1751 -7.51664e-23 0.0278643)
(10.2381 -1.06297e-22 0.0332984)
(10.3089 -8.01968e-21 0.0387395)
(10.387 -1.17274e-20 0.0441607)
(10.4717 -3.79611e-21 0.0495397)
(10.5625 8.41445e-21 0.0548551)
(10.6587 3.90521e-21 0.0600849)
(10.76 -1.25254e-20 0.0652067)
(10.8656 4.26129e-22 0.0701983)
(10.9751 4.07008e-21 0.0750377)
(11.0879 -4.21782e-21 0.0797035)
(11.2036 4.40329e-21 0.084176)
(11.3216 -1.77212e-20 0.0884367)
(11.4414 -3.45685e-21 0.0924689)
)
;

boundaryField
{
    inlet
    {
        type            calculated;
        value           nonuniform List<vector> 
30
(
(10 0 0)
(10 0 0)
(10 0 0)
(10 0 0)
(10 0 0)
(10 0 0)
(10 0 0)
(10 0 0)
(10 0 0)
(10 0 0)
(10 0 0)
(10 0 0)
(10 0 0)
(10 0 0)
(10 0 0)
(10 0 0)
(10 0 0)
(10 0 0)
(10 0 0)
(10 0 0)
(10 0 0)
(10 0 0)
(10 0 0)
(10 0 0)
(10 0 0)
(10 0 0)
(10 0 0)
(10 0 0)
(10 0 0)
(10 0 0)
)
;
    }
    outlet
    {
        type            calculated;
        value           nonuniform 0();
    }
    flap
    {
        type            calculated;
        value           nonuniform 0();
    }
    upperWall
    {
        type            calculated;
        value           uniform (0 0 0);
    }
    lowerWall
    {
        type            calculated;
        value           nonuniform 0();
    }
    frontAndBack
    {
        type            empty;
        value           nonuniform 0();
    }
    procBoundary0to1
    {
        type            processor;
        value           nonuniform List<vector> 
18
(
(11.5271 -2.26642e-19 3.24846)
(11.6168 5.36558e-20 3.05439)
(11.5667 1.05414e-19 2.89029)
(11.5254 -1.03553e-19 2.73172)
(11.5863 1.53476e-19 2.5494)
(11.6345 -1.46953e-19 2.36547)
(11.6715 7.16347e-20 2.18056)
(11.6989 -2.62224e-20 1.99507)
(11.7182 -1.58041e-19 1.80925)
(11.7311 -1.96137e-19 1.62322)
(11.7389 3.44322e-19 1.43687)
(11.743 -2.47901e-19 1.25019)
(11.7448 7.95939e-20 1.06245)
(11.7455 7.74307e-20 0.87412)
(11.7465 2.97853e-22 0.68288)
(11.7489 1.52393e-19 0.491236)
(11.7538 -4.58295e-21 0.292836)
(11.5626 -2.60076e-22 0.096258)
)
;
    }
    procBoundary0to3
    {
        type            processor;
        value           nonuniform List<vector> 
34
(
(10.0024 -1.31071e-19 0.12127)
(9.98411 6.54249e-22 0.243998)
(9.96883 5.86524e-20 0.312111)
(9.95868 1.13173e-19 0.379993)
(9.94566 1.13477e-19 0.45245)
(9.93421 1.92143e-19 0.524185)
(9.92307 1.91601e-19 0.601117)
(9.91414 1.92077e-19 0.676599)
(9.90546 2.59092e-19 0.757857)
(9.90056 7.03612e-20 0.836942)
(9.89664 -6.28267e-20 0.922095)
(9.89738 6.24435e-20 1.00416)
(9.9008 6.25817e-20 1.09231)
(9.90909 -6.20429e-20 1.17633)
(9.89155 -6.3368e-20 1.34114)
(9.9097 -6.32856e-20 1.43532)
(9.93316 1.25724e-19 1.52345)
(9.96347 1.25914e-19 1.61728)
(9.99877 1.89285e-22 1.70367)
(10.0116 4.42563e-21 1.89121)
(10.0644 -1.29575e-19 1.98486)
(10.1214 -6.6881e-20 2.06855)
(10.1605 -1.29174e-19 2.26891)
(10.2393 -1.27363e-19 2.35602)