/*--------------------------------*- C++ -*----------------------------------*\
| =========                 |                                                 |
| \\      /  F ield         | OpenFOAM: The Open Source CFD Toolbox           |
|  \\    /   O peration     | Version:  dev                                   |
|   \\  /    A nd           | Web:      www.OpenFOAM.org                      |
|    \\/     M anipulation  |                                                 |
\*---------------------------------------------------------------------------*/
FoamFile
{
    version     2.0;
    format      ascii;
    class       volVectorField;
    location    "1.25";
    object      cellDisplacement;
}
// * * * * * * * * * * * * * * * * * * * * * * * * * * * * * * * * * * * * * //

dimensions      [0 1 0 0 0 0 0];

internalField   nonuniform List<vector> 
2790
(
(0.0119818 0 -4.83925e-05)
(0.0341608 0 -0.000138386)
(0.0530039 0 -0.000216838)
(0.0688208 0 -0.000285899)
(0.0819407 0 -0.000347278)
(0.0926501 0 -0.000402156)
(0.101197 0 -0.000451275)
(0.107796 0 -0.000495075)
(0.11263 0 -0.000534999)
(0.115865 0 -0.000568551)
(0.117647 0 -0.000596619)
(0.118103 0 -0.000618757)
(0.117342 0 -0.000634284)
(0.115464 0 -0.000642356)
(0.112557 0 -0.000641806)
(0.108701 0 -0.000631175)
(0.103973 0 -0.000608706)
(0.0984429 0 -0.000572291)
(0.0921826 0 -0.0005194)
(0.0852637 0 -0.000447034)
(0.0777624 0 -0.000351671)
(0.0697604 0 -0.000228968)
(0.0613478 0 -7.36546e-05)
(0.052629 0 0.000120586)
(0.0437303 0 0.00036131)
(0.0348126 0 0.000657741)
(0.0261001 0 0.00102239)
(0.0179954 0 0.00147635)
(0.0111572 0 0.0020293)
(0.00725919 0 0.00261359)
(0.0119979 0 -0.000145439)
(0.034207 0 -0.000415968)
(0.0530789 0 -0.000651881)
(0.068926 0 -0.00085967)
(0.0820785 0 -0.00104447)
(0.0928234 0 -0.00120985)
(0.101409 0 -0.00135803)
(0.108054 0 -0.00148995)
(0.112935 0 -0.00160594)
(0.116222 0 -0.00170675)
(0.118066 0 -0.00179159)
(0.118592 0 -0.00185886)
(0.11791 0 -0.00190654)
(0.116122 0 -0.00193223)
(0.113316 0 -0.00193249)
(0.109577 0 -0.00190306)
(0.104981 0 -0.00183883)
(0.0996035 0 -0.00173369)
(0.093518 0 -0.00158031)
(0.086801 0 -0.00137002)
(0.0795358 0 -0.0010929)
(0.0718132 0 -0.000736572)
(0.0637359 0 -0.00028613)
(0.0554282 0 0.000276177)
(0.0470473 0 0.000971315)
(0.0388006 0 0.0018238)
(0.0309255 0 0.00286593)
(0.0238648 0 0.00412201)
(0.018482 0 0.00557996)
(0.0168495 0 0.00695803)
(0.0120309 0 -0.000242588)
(0.0343005 0 -0.000693931)
(0.0532291 0 -0.00108762)
(0.069136 0 -0.00143461)
(0.0823529 0 -0.00174346)
(0.0931682 0 -0.00202017)
(0.101831 0 -0.00226857)
(0.108558 0 -0.00248981)
(0.113536 0 -0.00268321)
(0.116934 0 -0.00285341)
(0.118902 0 -0.00299757)
(0.119567 0 -0.00311306)
(0.119043 0 -0.0031966)
(0.117433 0 -0.00324467)
(0.114832 0 -0.00325174)
(0.111325 0 -0.003211)
(0.106995 0 -0.00311442)
(0.101921 0 -0.00295246)
(0.0961848 0 -0.00271367)
(0.0898681 0 -0.00238449)
(0.0830697 0 -0.00195058)
(0.0758952 0 -0.00139343)
(0.068467 0 -0.000691332)
(0.0609369 0 0.00018063)
(0.0535072 0 0.00125019)
(0.0464821 0 0.00254363)
(0.0402387 0 0.00408058)
(0.0352661 0 0.00585275)
(0.0323596 0 0.00778604)
(0.0340747 0 0.00927745)
(0.0120808 0 -0.000339362)
(0.03444 0 -0.000970925)
(0.0534519 0 -0.00152187)
(0.0694475 0 -0.00200782)
(0.08276 0 -0.00244072)
(0.09368 0 -0.0028291)
(0.102457 0 -0.0031787)
(0.10931 0 -0.00349092)
(0.114432 0 -0.00376744)
(0.117993 0 -0.00401038)
(0.120144 0 -0.0042177)
(0.121016 0 -0.00438611)
(0.120725 0 -0.0045111)
(0.119381 0 -0.00458909)
(0.117083 0 -0.00461248)
(0.11392 0 -0.00457242)
(0.109983 0 -0.00445864)
(0.10536 0 -0.00425922)
(0.100141 0 -0.00395975)
(0.0944135 0 -0.00354237)
(0.0883051 0 -0.00299267)
(0.0819426 0 -0.00228866)
(0.0754771 0 -0.00140669)
(0.0690975 0 -0.000321811)
(0.0630421 0 0.000991862)
(0.0576657 0 0.00254699)
(0.0535239 0 0.0043215)
(0.05138 0 0.00622535)
(0.051952 0 0.0080867)
(0.0573517 0 0.00904968)
(0.0121482 0 -0.000436114)
(0.0346243 0 -0.00124676)
(0.0537439 0 -0.00195433)
(0.069857 0 -0.00257905)
(0.0832954 0 -0.00313618)
(0.0943537 0 -0.00363679)
(0.103281 0 -0.00408925)
(0.110299 0 -0.00449422)
(0.11561 0 -0.00485563)
(0.119385 0 -0.00517477)
(0.121776 0 -0.00544984)
(0.122918 0 -0.00567717)
(0.122931 0 -0.0058504)
(0.121936 0 -0.00596833)
(0.120032 0 -0.00602079)
(0.11732 0 -0.00599764)
(0.113897 0 -0.00588734)
(0.109865 0 -0.0056773)
(0.10533 0 -0.00535237)
(0.100391 0 -0.00489362)
(0.095176 0 -0.00428149)
(0.0898577 0 -0.00349907)
(0.0846167 0 -0.00252571)
(0.0796899 0 -0.00134475)
(0.0754142 0 4.70616e-05)
(0.0721605 0 0.00163976)
(0.0705079 0 0.00337288)
(0.0714449 0 0.00504669)
(0.0759567 0 0.00631409)
(0.0851754 0 0.00628395)
(0.0122145 0 -0.000532145)
(0.034834 0 -0.00152168)
(0.0541026 0 -0.00238657)
(0.0703623 0 -0.0031507)
(0.0839565 0 -0.003833)
(0.0951871 0 -0.00444704)
(0.104297 0 -0.00500094)
(0.111517 0 -0.00550053)
(0.117059 0 -0.00594974)
(0.121095 0 -0.00634948)
(0.12378 0 -0.00669828)
(0.125256 0 -0.00699278)
(0.125652 0 -0.00722856)
(0.125085 0 -0.00739952)
(0.123667 0 -0.00749677)
(0.121506 0 -0.00751009)
(0.118708 0 -0.00742742)
(0.115394 0 -0.0072376)
(0.111682 0 -0.00692563)
(0.107703 0 -0.00647556)
(0.103579 0 -0.00586489)
(0.0995319 0 -0.0050871)
(0.0957747 0 -0.00412931)
(0.0925787 0 -0.0029873)
(0.0903054 0 -0.00167802)
(0.0895284 0 -0.00027494)
(0.0907873 0 0.00111707)
(0.0949317 0 0.00223981)
(0.103291 0 0.00255433)
(0.116293 0 0.00125772)
(0.012297 0 -0.000627593)
(0.035086 0 -0.00179589)
(0.0545261 0 -0.00281801)
(0.0709593 0 -0.00372201)
(0.0847362 0 -0.00453038)
(0.0961611 0 -0.0052589)
(0.105488 0 -0.0059165)
(0.112956 0 -0.00651423)
(0.118771 0 -0.00705525)
(0.123114 0 -0.00754092)
(0.126146 0 -0.00797035)
(0.128013 0 -0.00834092)
(0.128854 0 -0.00864989)
(0.128789 0 -0.00888766)
(0.127938 0 -0.00904733)
(0.126422 0 -0.00911934)
(0.12435 0 -0.00909093)
(0.121872 0 -0.00895645)
(0.119118 0 -0.00870177)
(0.116238 0 -0.00831385)
(0.113392 0 -0.00777876)
(0.110803 0 -0.00709243)
(0.108736 0 -0.00625913)
(0.107547 0 -0.00530391)
(0.107584 0 -0.00426088)
(0.109406 0 -0.0032361)
(0.113792 0 -0.0024418)
(0.121315 0 -0.00214877)
(0.133371 0 -0.00301042)
(0.149741 0 -0.00566037)
(0.0123934 0 -0.000722215)
(0.0353756 0 -0.00206762)
(0.0550088 0 -0.00324591)
(0.071639 0 -0.00428934)
(0.0856242 0 -0.00522405)
(0.0972735 0 -0.0060685)
(0.106852 0 -0.00683505)
(0.1146 0 -0.00753431)
(0.120727 0 -0.00817143)
(0.12542 0 -0.00874868)
(0.128844 0 -0.00926594)
(0.131153 0 -0.00972112)
(0.132486 0 -0.0101095)
(0.132986 0 -0.0104289)
(0.132776 0 -0.0106704)
(0.131992 0 -0.010827)
(0.130761 0 -0.0108895)
(0.129222 0 -0.0108481)
(0.127544 0 -0.0106975)
(0.125895 0 -0.0104301)
(0.124475 0 -0.0100433)
(0.123525 0 -0.00954284)
(0.123346 0 -0.00894879)
(0.124293 0 -0.00830228)
(0.126881 0 -0.00769942)
(0.13154 0 -0.00725529)
(0.139075 0 -0.00724109)
(0.150107 0 -0.00799287)
(0.165593 0 -0.0101323)
(0.184741 0 -0.0140676)
(0.0125016 0 -0.000815795)
(0.0356988 0 -0.00233647)
(0.0555459 0 -0.00366971)
(0.0723953 0 -0.00485207)
(0.0866124 0 -0.00591336)
(0.0985128 0 -0.00687493)
(0.10837 0 -0.00775179)
(0.116427 0 -0.00855542)
(0.122901 0 -0.0092928)
(0.12798 0 -0.0099673)
(0.131838 0 -0.0105799)
(0.134636 0 -0.0111299)
(0.136528 0 -0.0116165)
(0.137653 0 -0.0120342)
(0.138148 0 -0.012377)
(0.138165 0 -0.0126427)
(0.137855 0 -0.0128269)
(0.137342 0 -0.0129157)
(0.136841 0 -0.0129173)
(0.136537 0 -0.0128304)
(0.136662 0 -0.0126637)
(0.137472 0 -0.0124335)
(0.139351 0 -0.0121919)
(0.14263 0 -0.011991)
(0.14782 0 -0.0119519)
(0.155534 0 -0.0122675)
(0.166307 0 -0.0131914)
(0.180891 0 -0.0151321)
(0.199367 0 -0.0185198)
(0.220661 0 -0.0235631)
(0.0126212 0 -0.000908609)
(0.0360542 0 -0.00260328)
(0.0561354 0 -0.00409086)
(0.0732254 0 -0.00541223)
(0.0876974 0 -0.00660091)
(0.0998738 0 -0.00768118)
(0.110035 0 -0.00867048)
(0.118431 0 -0.00958175)
(0.125281 0 -0.010424)
(0.130781 0 -0.0112018)
(0.135111 0 -0.0119177)
(0.138439 0 -0.0125725)
(0.140937 0 -0.0131702)
(0.142735 0 -0.0137014)
(0.143982 0 -0.0141637)
(0.144858 0 -0.0145624)
(0.145518 0 -0.0148941)
(0.146123 0 -0.0151567)
(0.146878 0 -0.0153572)
(0.148 0 -0.0155055)
(0.149779 0 -0.0156314)
(0.152476 0 -0.0157605)
(0.15646 0 -0.0159538)
(0.162203 0 -0.016317)
(0.170119 0 -0.01697)
(0.180913 0 -0.0181584)
(0.194987 0 -0.0201326)
(0.212947 0 -0.0232977)
(0.234098 0 -0.0278591)
(0.256981 0 -0.0337838)
(0.0127508 0 -0.00100043)
(0.0364385 0 -0.00286745)
(0.0567719 0 -0.0045084)
(0.0741215 0 -0.00596855)
(0.0888686 0 -0.00728514)
(0.101343 0 -0.00848539)
(0.111831 0 -0.00958909)
(0.120588 0 -0.0106109)
(0.127843 0 -0.0115625)
(0.133794 0 -0.0124494)
(0.138625 0 -0.0132756)
(0.142513 0 -0.014043)
(0.145638 0 -0.014759)
(0.148149 0 -0.0154196)
(0.150213 0 -0.0160267)
(0.151993 0 -0.0165821)
(0.153674 0 -0.0170912)
(0.155445 0 -0.0175612)
(0.157516 0 -0.0180043)
(0.160144 0 -0.0184452)
(0.163599 0 -0.0189151)
(0.168253 0 -0.0194784)
(0.174438 0 -0.0202001)
(0.182634 0 -0.0212035)
(0.193388 0 -0.0226629)
(0.207203 0 -0.0247947)
(0.22453 0 -0.0278765)
(0.245583 0 -0.0322156)
(0.269203 0 -0.0378393)
(0.29326 0 -0.04442)
(0.0128878 0 -0.0010905)
(0.0368451 0 -0.0031269)
(0.0574457 0 -0.0049191)
(0.0750705 0 -0.00651672)
(0.0901091 0 -0.00796078)
(0.102898 0 -0.0092814)
(0.11373 0 -0.0105007)
(0.122869 0 -0.0116349)
(0.130551 0 -0.0126997)
(0.136974 0 -0.013701)
(0.142332 0 -0.0146449)
(0.146818 0 -0.0155387)
(0.150604 0 -0.0163858)
(0.15386 0 -0.0171905)
(0.156767 0 -0.0179592)
(0.159477 0 -0.0186904)
(0.162209 0 -0.0194028)
(0.165176 0 -0.0201115)
(0.168584 0 -0.0208318)
(0.172751 0 -0.0216112)
(0.177936 0 -0.0224856)
(0.184498 0 -0.0235253)
(0.192904 0 -0.0248448)
(0.203548 0 -0.0265591)
(0.217077 0 -0.028886)
(0.233832 0 -0.0320109)
(0.254283 0 -0.036212)
(0.27824 0 -0.0416648)
(0.304043 0 -0.048179)
(0.329048 0 -0.0552315)
(0.0130307 0 -0.0011786)
(0.03727 0 -0.00338101)
(0.0581505 0 -0.00532201)
(0.0760637 0 -0.00705554)
(0.091408 0 -0.00862637)
(0.104526 0 -0.0100675)
(0.115716 0 -0.0114036)
(0.125262 0 -0.0126562)
(0.133392 0 -0.0138385)
(0.140307 0 -0.0149591)
(0.146214 0 -0.0160274)
(0.151316 0 -0.0170554)
(0.155774 0 -0.0180418)
(0.15979 0 -0.0190018)
(0.163537 0 -0.0199412)
(0.167211 0 -0.0208725)
(0.171007 0 -0.0218093)
(0.175186 0 -0.0227851)
(0.179951 0 -0.0238181)
(0.185603 0 -0.0249578)
(0.192496 0 -0.0262751)
(0.200945 0 -0.0278385)
(0.211454 0 -0.0297848)
(0.224463 0 -0.0322549)
(0.240555 0 -0.0354631)
(0.26007 0 -0.0395978)
(0.283379 0 -0.0448921)
(0.309959 0 -0.0513762)
(0.337705 0 -0.0586273)
(0.363702 0 -0.0660671)
(0.0131794 0 -0.00126497)
(0.0377119 0 -0.00363037)
(0.0588838 0 -0.00571805)
(0.0770978 0 -0.00758621)
(0.0927607 0 -0.00928334)
(0.106222 0 -0.0108454)
(0.117792 0 -0.0123002)
(0.127757 0 -0.0136731)
(0.13634 0 -0.0149748)
(0.143758 0 -0.0162182)
(0.150219 0 -0.0174142)
(0.155936 0 -0.0185786)
(0.161091 0 -0.0197175)
(0.165876 0 -0.0208437)
(0.17047 0 -0.0219663)
(0.175108 0 -0.0231125)
(0.179976 0 -0.0242952)
(0.185326 0 -0.0255498)
(0.191405 0 -0.0269131)
(0.198524 0 -0.0284437)
(0.207002 0 -0.0302119)
(0.217279 0 -0.032332)
(0.229707 0 -0.0349105)
(0.244847 0 -0.0381361)
(0.263163 0 -0.0422013)
(0.285004 0 -0.0473)
(0.310639 0 -0.0536185)
(0.339274 0 -0.0610444)
(0.36863 0 -0.0689655)
(0.395971 0 -0.0768904)
(0.0133326 0 -0.00134932)
(0.0381669 0 -0.0038742)
(0.0596391 0 -0.00610593)
(0.0781634 0 -0.00810694)
(0.0941549 0 -0.00992941)
(0.107968 0 -0.0116119)
(0.119923 0 -0.0131846)
(0.130309 0 -0.0146753)
(0.139354 0 -0.0160981)
(0.147279 0 -0.0174673)
(0.154311 0 -0.018799)
(0.160658 0 -0.0201078)
(0.166506 0 -0.0214043)
(0.172052 0 -0.0227034)
(0.177499 0 -0.0240231)
(0.183067 0 -0.0253885)
(0.188965 0 -0.026824)
(0.195438 0 -0.0283671)
(0.202753 0 -0.0300657)
(0.211256 0 -0.0319967)
(0.221215 0 -0.0342244)
(0.233101 0 -0.0368846)
(0.247208 0 -0.0400794)
(0.264127 0 -0.0440204)
(0.284122 0 -0.0488562)
(0.307573 0 -0.0548054)
(0.334573 0 -0.062018)
(0.364006 0 -0.0702695)
(0.393869 0 -0.0789455)
(0.423167 0 -0.0879224)
(0.0106086 0 -0.00362838)
(0.023288 0 -0.00437445)
(0.0487418 0 -0.00524861)
(0.0850869 0 -0.00603248)
(0.126438 0 -0.00664256)
(0.166313 0 -0.00698272)
(0.200663 0 -0.00706726)
(0.22827 0 -0.00693087)
(0.249613 0 -0.00670277)
(0.26574 0 -0.00641502)
(0.277491 0 -0.00608056)
(0.285502 0 -0.0057208)
(0.290339 0 -0.00534193)
(0.292419 0 -0.00499668)
(0.292015 0 -0.0046372)
(0.289319 0 -0.00429427)
(0.284461 0 -0.00395309)
(0.277508 0 -0.00363017)
(0.268495 0 -0.0033131)
(0.257411 0 -0.00301059)
(0.244225 0 -0.00271034)
(0.228895 0 -0.0024302)
(0.211322 0 -0.0021594)
(0.191436 0 -0.00189346)
(0.169154 0 -0.00162862)
(0.144388 0 -0.00136105)
(0.117047 0 -0.00108662)
(0.0870397 0 -0.000800728)
(0.0542859 0 -0.000498188)
(0.0185992 0 -0.000171809)
(0.0182914 0 -0.0110234)
(0.0320903 0 -0.0132242)
(0.0578449 0 -0.0156342)
(0.093579 0 -0.0178781)
(0.133759 0 -0.0195683)
(0.172231 0 -0.0204906)
(0.205293 0 -0.020703)
(0.231884 0 -0.0203458)
(0.252471 0 -0.0196853)
(0.268012 0 -0.0188537)
(0.279295 0 -0.0178823)
(0.286941 0 -0.0168375)
(0.291501 0 -0.0157656)
(0.293362 0 -0.0147268)
(0.29278 0 -0.0136679)
(0.28995 0 -0.0126676)
(0.284982 0 -0.0116626)
(0.277945 0 -0.0107183)
(0.268864 0 -0.00978328)
(0.257733 0 -0.00889665)
(0.244501 0 -0.00803233)
(0.229121 0 -0.00720973)
(0.211513 0 -0.00641113)
(0.191598 0 -0.00562507)
(0.169291 0 -0.00484085)
(0.144504 0 -0.00404737)
(0.117142 0 -0.00323254)
(0.0871142 0 -0.0023828)
(0.0543372 0 -0.00148286)
(0.0186195 0 -0.00051146)
(0.0326326 0 -0.0186726)
(0.0484066 0 -0.0222316)
(0.0745782 0 -0.0259302)
(0.109356 0 -0.029361)
(0.147408 0 -0.0318581)
(0.183372 0 -0.0331756)
(0.214122 0 -0.0334311)
(0.23884 0 -0.0328829)
(0.257977 0 -0.031821)
(0.272398 0 -0.0305043)
(0.282782 0 -0.0289555)
(0.289729 0 -0.0272835)
(0.293756 0 -0.0256104)
(0.295186 0 -0.0239152)
(0.294267 0 -0.0222257)
(0.291174 0 -0.0206001)
(0.285996 0 -0.0189916)
(0.278793 0 -0.0174497)
(0.269583 0 -0.0159522)
(0.258338 0 -0.0145248)
(0.245013 0 -0.0131475)
(0.229551 0 -0.0118174)
(0.211876 0 -0.0105193)
(0.191905 0 -0.00923748)
(0.16955 0 -0.00795545)
(0.14472 0 -0.00665557)
(0.117318 0 -0.00531837)
(0.0872505 0 -0.00392193)
(0.0544291 0 -0.0024414)
(0.0186549 0 -0.000842164)
(0.0527564 0 -0.026876)
(0.0706689 0 -0.0315399)
(0.0973977 0 -0.0363684)
(0.130799 0 -0.0406301)
(0.166071 0 -0.043641)
(0.198771 0 -0.0451557)
(0.226474 0 -0.0453521)
(0.248654 0 -0.0445669)
(0.265806 0 -0.0431407)
(0.278644 0 -0.0413502)
(0.287756 0 -0.0392756)
(0.293726 0 -0.0370536)
(0.296983 0 -0.0348046)
(0.297795 0 -0.0325133)
(0.296401 0 -0.0302682)
(0.292923 0 -0.028051)
(0.287451 0 -0.0259027)
(0.280008 0 -0.0238177)
(0.270599 0 -0.0218165)
(0.259191 0 -0.0198945)
(0.245731 0 -0.0180372)
(0.230155 0 -0.0162333)
(0.212384 0 -0.0144653)
(0.192333 0 -0.0127139)
(0.169909 0 -0.0109576)
(0.145017 0 -0.00917281)
(0.117558 0 -0.00733349)
(0.0874336 0 -0.00540992)
(0.0545504 0 -0.00336845)
(0.0187005 0 -0.00116195)
(0.0775858 0 -0.0357786)
(0.0975365 0 -0.0413381)
(0.124668 0 -0.0470122)
(0.15631 0 -0.0517614)
(0.188387 0 -0.0549759)
(0.217356 0 -0.0564673)
(0.241537 0 -0.0564782)
(0.260738 0 -0.0553927)
(0.275514 0 -0.0536225)
(0.286399 0 -0.0513686)
(0.293963 0 -0.0488019)
(0.298735 0 -0.0461051)
(0.301023 0 -0.0433217)
(0.301075 0 -0.0405055)
(0.299078 0 -0.0377297)
(0.295127 0 -0.0350026)
(0.289276 0 -0.0323651)
(0.28153 0 -0.0298146)
(0.271871 0 -0.0273562)
(0.260256 0 -0.0249837)
(0.246625 0 -0.0226835)
(0.230905 0 -0.0204399)
(0.213013 0 -0.0182329)
(0.192859 0 -0.0160395)
(0.170347 0 -0.013834)
(0.145377 0 -0.0115877)
(0.117847 0 -0.00926847)
(0.0876514 0 -0.00683957)
(0.0546925 0 -0.00425934)
(0.018753 0 -0.00146914)
(0.106137 0 -0.0453985)
(0.127802 0 -0.051636)
(0.154945 0 -0.0578126)
(0.184537 0 -0.0627398)
(0.213124 0 -0.065865)
(0.238091 0 -0.0671185)
(0.258487 0 -0.0668147)
(0.274474 0 -0.0653832)
(0.286581 0 -0.0632185)
(0.29528 0 -0.060537)
(0.301118 0 -0.0575331)
(0.30451 0 -0.0543768)
(0.305691 0 -0.0511192)
(0.304884 0 -0.0478551)
(0.302197 0 -0.0446156)
(0.297701 0 -0.0414558)
(0.29141 0 -0.0383916)
(0.283306 0 -0.0354252)
(0.273352 0 -0.0325562)
(0.261493 0 -0.0297765)
(0.247659 0 -0.0270716)
(0.231769 0 -0.0244231)
(0.213735 0 -0.0218085)
(0.19346 0 -0.0192019)
(0.170845 0 -0.0165736)
(0.145783 0 -0.0138906)
(0.118169 0 -0.0111153)
(0.0878922 0 -0.00820473)
(0.0548477 0 -0.00511006)
(0.0188096 0 -0.00176229)
(0.137536 0 -0.0556392)
(0.160469 0 -0.0623337)
(0.187178 0 -0.0687023)
(0.214386 0 -0.0734999)
(0.239231 0 -0.0762636)
(0.260046 0 -0.0770818)
(0.276538 0 -0.0763352)
(0.289205 0 -0.074515)
(0.298481 0 -0.0719266)
(0.304877 0 -0.0688281)
(0.308896 0 -0.065442)
(0.310795 0 -0.0618587)
(0.310805 0 -0.0581976)
(0.309071 0 -0.0545424)
(0.305648 0 -0.0509316)
(0.300555 0 -0.047402)
(0.293777 0 -0.0439697)
(0.285275 0 -0.0406385)
(0.274992 0 -0.0374056)
(0.26286 0 -0.0342614)
(0.248798 0 -0.0311902)
(0.232718 0 -0.0281718)
(0.214523 0 -0.0251816)
(0.194113 0 -0.022191)
(0.171381 0 -0.0191674)
(0.146218 0 -0.0160735)
(0.118511 0 -0.0128673)
(0.0881451 0 -0.00950023)
(0.0550089 0 -0.00591728)
(0.0188676 0 -0.0020402)
(0.171034 0 -0.0663452)
(0.194751 0 -0.0732876)
(0.220539 0 -0.0795661)
(0.244951 0 -0.0839331)
(0.265809 0 -0.086086)
(0.282388 0 -0.0862999)
(0.294989 0 -0.085022)
(0.304271 0 -0.0827301)
(0.310705 0 -0.0797256)
(0.314802 0 -0.0762448)
(0.316948 0 -0.0724837)
(0.317357 0 -0.0685552)
(0.31619 0 -0.0645716)
(0.313508 0 -0.0605993)
(0.309317 0 -0.0566788)
(0.303598 0 -0.0528391)
(0.296304 0 -0.0490946)
(0.287375 0 -0.0454488)
(0.276739 0 -0.0418979)
(0.264312 0 -0.038431)
(0.250004 0 -0.0350316)
(0.233718 0 -0.0316781)
(0.215351 0 -0.0283443)
(0.194794 0 -0.0249994)
(0.171937 0 -0.0216081)
(0.146665 0 -0.01813)
(0.118859 0 -0.014519)
(0.0883999 0 -0.0107219)
(0.0551693 0 -0.00667832)
(0.0189247 0 -0.00230193)
(0.206001 0 -0.077346)
(0.230039 0 -0.0843513)
(0.254335 0 -0.0902589)
(0.275435 0 -0.0938904)
(0.292043 0 -0.0952049)
(0.304353 0 -0.0946718)
(0.313135 0 -0.0928011)
(0.319082 0 -0.0899998)
(0.322764 0 -0.0865794)
(0.324653 0 -0.0827636)
(0.325004 0 -0.0786883)
(0.323993 0 -0.0744917)
(0.321677 0 -0.0702545)
(0.318055 0 -0.0660327)
(0.313093 0 -0.0618634)
(0.306736 0 -0.0577707)
(0.298913 0 -0.053767)
(0.289545 0 -0.0498552)
(0.278541 0 -0.0460305)
(0.265807 0 -0.0422815)
(0.251242 0 -0.0385911)
(0.23474 0 -0.0349367)
(0.21619 0 -0.0312909)
(0.19548 0 -0.0276213)
(0.172492 0 -0.0238905)
(0.147107 0 -0.0200553)
(0.1192 0 -0.0160664)
(0.0886467 0 -0.0118667)
(0.055323 0 -0.0073911)
(0.0189787 0 -0.00254675)
(0.241945 0 -0.0884923)
(0.265851 0 -0.0953904)
(0.2879 0 -0.100597)
(0.305043 0 -0.103172)
(0.317142 0 -0.10345)
(0.3252 0 -0.102072)
(0.33028 0 -0.0995612)
(0.333095 0 -0.0962685)
(0.334253 0 -0.0924822)
(0.334116 0 -0.08838)
(0.332848 0 -0.0840833)
(0.330515 0 -0.0796895)
(0.327108 0 -0.0752651)
(0.322583 0 -0.070857)
(0.316868 0 -0.0664969)
(0.309883 0 -0.0622053)
(0.301534 0 -0.0579924)
(0.291723 0 -0.0538605)
(0.280348 0 -0.0498043)
(0.267302 0 -0.0458123)
(0.252474 0 -0.0418668)
(0.235751 0 -0.0379449)
(0.217016 0 -0.0340182)
(0.196149 0 -0.0300532)
(0.173028 0 -0.026011)
(0.147529 0 -0.0218461)
(0.119522 0 -0.0175066)
(0.0888765 0 -0.0129321)
(0.0554642 0 -0.00805415)
(0.0190277 0 -0.00277414)
(0.278533 0 -0.0996944)
(0.30172 0 -0.106257)
(0.320428 0 -0.110315)
(0.332886 0 -0.111506)
(0.34029 0 -0.110607)
(0.344227 0 -0.108352)
(0.345863 0 -0.105223)
(0.345926 0 -0.101517)
(0.344903 0 -0.0974494)
(0.343003 0 -0.0931473)
(0.340291 0 -0.0886999)
(0.336758 0 -0.0841764)
(0.332346 0 -0.0796281)
(0.326974 0 -0.0750925)
(0.320546 0 -0.070596)
(0.312957 0 -0.0661559)
(0.304097 0 -0.0617805)
(0.293853 0 -0.0574715)
(0.282111 0 -0.0532238)
(0.268756 0 -0.0490258)
(0.253667 0 -0.0448597)
(0.236724 0 -0.0407023)
(0.217803 0 -0.0365251)
(0.19678 0 -0.0322936)
(0.173528 0 -0.0279676)
(0.147916 0 -0.0235003)
(0.119813 0 -0.0188376)
(0.0890812 0 -0.0139168)
(0.0555878 0 -0.00866652)
(0.0190698 0 -0.00298379)
(0.315567 0 -0.110915)
(0.336919 0 -0.116684)
(0.350794 0 -0.118998)
(0.35792 0 -0.118541)
(0.360638 0 -0.116429)
(0.36084 0 -0.113381)
(0.359557 0 -0.109754)
(0.357367 0 -0.105756)
(0.354534 0 -0.101511)
(0.351141 0 -0.0970971)
(0.347179 0 -0.0925729)
(0.342587 0 -0.0879853)
(0.337273 0 -0.0833724)
(0.331129 0 -0.0787638)
(0.32404 0 -0.0741813)
(0.315885 0 -0.069639)
(0.306539 0 -0.0651439)
(0.295881 0 -0.0606979)
(0.283786 0 -0.056296)
(0.270131 0 -0.0519269)
(0.254787 0 -0.0475729)
(0.237629 0 -0.0432109)
(0.218528 0 -0.0388122)
(0.197353 0 -0.0343421)
(0.173974 0 -0.0297598)
(0.148256 0 -0.0250172)
(0.120063 0 -0.0200588)
(0.089253 0 -0.0148201)
(0.0556893 0 -0.00922779)
(0.0191036 0 -0.00317557)
(0.352735 0 -0.122041)
(0.369951 0 -0.126068)
(0.377427 0 -0.126029)
(0.378962 0 -0.123849)
(0.377595 0 -0.120721)
(0.374793 0 -0.117093)
(0.371265 0 -0.113162)
(0.367308 0 -0.109016)
(0.363023 0 -0.104707)
(0.358406 0 -0.100271)
(0.353394 0 -0.095743)
(0.347895 0 -0.0911538)
(0.341792 0 -0.0865315)
(0.334962 0 -0.0818997)
(0.327276 0 -0.0772767)
(0.318603 0 -0.0726747)
(0.308808 0 -0.0680986)
(0.29776 0 -0.0635519)
(0.285332 0 -0.0590304)
(0.271392 0 -0.0545229)
(0.255806 0 -0.0500115)
(0.238443 0 -0.045474)
(0.219169 0 -0.0408818)
(0.19785 0 -0.0362004)
(0.174352 0 -0.0313883)
(0.148536 0 -0.0263971)
(0.120262 0 -0.0211702)
(0.0893854 0 -0.015642)
(0.0557645 0 -0.00973797)
(0.0191277 0 -0.00334952)
(0.388573 0 -0.132427)
(0.397889 0 -0.133172)
(0.398529 0 -0.130615)
(0.395483 0 -0.127115)
(0.391069 0 -0.123363)
(0.386127 0 -0.119483)
(0.380971 0 -0.115481)
(0.375697 0 -0.111349)
(0.3703 0 -0.107092)
(0.364717 0 -0.102722)
(0.358856 0 -0.0982589)
(0.352603 0 -0.0937253)
(0.34583 0 -0.089143)
(0.338406 0 -0.0845322)
(0.330194 0 -0.0799093)
(0.32106 0 -0.0752859)
(0.310854 0 -0.0706623)
(0.299448 0 -0.0660477)
(0.286712 0 -0.0614384)
(0.272509 0 -0.0568229)
(0.256698 0 -0.0521826)
(0.239142 0 -0.0474969)
(0.219707 0 -0.0427378)
(0.198256 0 -0.037871)
(0.174649 0 -0.0328551)
(0.148746 0 -0.0276413)
(0.120403 0 -0.0221728)
(0.0894726 0 -0.0163831)
(0.0558102 0 -0.0101975)
(0.019141 0 -0.00350582)
(0.417447 0 -0.139553)
(0.419128 0 -0.136362)
(0.413575 0 -0.131885)
(0.407417 0 -0.128006)
(0.401109 0 -0.12431)
(0.394832 0 -0.120594)
(0.388626 0 -0.116772)
(0.382465 0 -0.112814)
(0.376282 0 -0.108718)
(0.369987 0 -0.104493)
(0.363477 0 -0.100157)
(0.356627 0 -0.0957294)
(0.349309 0 -0.0912307)
(0.341388 0 -0.0866801)
(0.332729 0 -0.0820937)
(0.3232 0 -0.077486)
(0.312639 0 -0.0728539)
(0.300909 0 -0.0682006)
(0.287896 0 -0.0635326)
(0.273456 0 -0.0588375)
(0.257438 0 -0.0540938)
(0.239707 0 -0.0492856)
(0.220126 0 -0.0443847)
(0.198555 0 -0.0393575)
(0.174853 0 -0.0341628)
(0.148876 0 -0.028752)
(0.120478 0 -0.023068)
(0.0895096 0 -0.0170447)
(0.0558232 0 -0.0106071)
(0.0191424 0 -0.00364474)
(0.0134905 0 -0.00143249)
(0.038637 0 -0.00411499)
(0.0604195 0 -0.00648947)
(0.0792658 0 -0.00862293)
(0.0955988 0 -0.0105712)
(0.109774 0 -0.0123751)
(0.122132 0 -0.0140703)
(0.132956 0 -0.0156827)
(0.142478 0 -0.0172304)
(0.150928 0 -0.0187307)
(0.158539 0 -0.0202025)
(0.165513 0 -0.0216603)
(0.172057 0 -0.0231208)
(0.17837 0 -0.0246022)
(0.184655 0 -0.0261253)
(0.191128 0 -0.0277175)
(0.198013 0 -0.0294105)
(0.205569 0 -0.0312517)
(0.214069 0 -0.0332966)
(0.223809 0 -0.0356164)
(0.235105 0 -0.0382981)
(0.248333 0 -0.0414617)
(0.26382 0 -0.0452323)
(0.28199 0 -0.0497904)
(0.302985 0 -0.0552658)
(0.327069 0 -0.0618719)
(0.353923 0 -0.0697093)
(0.38209 0 -0.0786372)
(0.409531 0 -0.088707)
(0.433881 0 -0.100964)
(0.013655 0 -0.00151541)
(0.0391268 0 -0.00435538)
(0.0612325 0 -0.00687298)
(0.0804148 0 -0.00913966)
(0.0971071 0 -0.0112157)
(0.111671 0 -0.0131449)
(0.124445 0 -0.0149651)
(0.13571 0 -0.0167007)
(0.145721 0 -0.0183774)
(0.154703 0 -0.0200123)
(0.162903 0 -0.0216295)
(0.170521 0 -0.0232441)
(0.177758 0 -0.0248746)
(0.184821 0 -0.0265423)
(0.19192 0 -0.0282728)
(0.199282 0 -0.0301004)
(0.207141 0 -0.0320646)
(0.215701 0 -0.0342014)
(0.225285 0 -0.0365884)
(0.236101 0 -0.0392783)
(0.248505 0 -0.0423794)
(0.262772 0 -0.0459931)
(0.279173 0 -0.0502406)
(0.297948 0 -0.0552618)
(0.319128 0 -0.0611705)
(0.342632 0 -0.0680953)
(0.367665 0 -0.0760117)
(0.392481 0 -0.0846705)
(0.414776 0 -0.0937168)
(0.432414 0 -0.10286)
(0.0138239 0 -0.001597)
(0.0396292 0 -0.00459225)
(0.0620653 0 -0.00725143)
(0.0815933 0 -0.00965047)
(0.0986567 0 -0.0118544)
(0.113615 0 -0.0139085)
(0.126802 0 -0.0158512)
(0.138527 0 -0.0177151)
(0.149037 0 -0.0195235)
(0.158558 0 -0.021296)
(0.167346 0 -0.0230619)
(0.175585 0 -0.0248332)
(0.183497 0 -0.0266345)
(0.191296 0 -0.0284928)
(0.199197 0 -0.0304389)
(0.207388 0 -0.0324976)
(0.216119 0 -0.0347199)
(0.225582 0 -0.0371418)
(0.236076 0 -0.0398413)
(0.247777 0 -0.0428689)
(0.26101 0 -0.0463312)
(0.275937 0 -0.0503059)
(0.292733 0 -0.0548945)
(0.311462 0 -0.0601904)
(0.331961 0 -0.0662526)
(0.353831 0 -0.0731012)
(0.375935 0 -0.0805526)
(0.396674 0 -0.0882919)
(0.414479 0 -0.0960127)
(0.427897 0 -0.103451)
(0.0139938 0 -0.00167616)
(0.0401372 0 -0.00482265)
(0.0629043 0 -0.00761996)
(0.0827884 0 -0.0101511)
(0.100234 0 -0.0124826)
(0.11559 0 -0.0146608)
(0.129208 0 -0.0167279)
(0.141397 0 -0.018721)
(0.15239 0 -0.0206593)
(0.162451 0 -0.0225728)
(0.171807 0 -0.0244837)
(0.18066 0 -0.0264136)
(0.189241 0 -0.0283914)
(0.197732 0 -0.0304361)
(0.20636 0 -0.0325861)
(0.2153 0 -0.0348664)
(0.224791 0 -0.0373276)
(0.235026 0 -0.0400127)
(0.246224 0 -0.0429806)
(0.258601 0 -0.0463012)
(0.272338 0 -0.0500433)
(0.287517 0 -0.0542661)
(0.304198 0 -0.0590394)
(0.322278 0 -0.0644037)
(0.341422 0 -0.0703515)
(0.361001 0 -0.0767973)
(0.379971 0 -0.0835243)
(0.397203 0 -0.0902941)
(0.411665 0 -0.0968884)
(0.42231 0 -0.103011)
(0.0141652 0 -0.00175275)
(0.0406514 0 -0.0050462)
(0.0637687 0 -0.00798013)
(0.0840103 0 -0.0106404)
(0.101825 0 -0.0130954)
(0.117575 0 -0.0153952)
(0.13163 0 -0.0175882)
(0.144277 0 -0.0197069)
(0.155758 0 -0.0217756)
(0.166344 0 -0.0238284)
(0.176254 0 -0.0258854)
(0.185702 0 -0.0279723)
(0.194896 0 -0.0301168)
(0.204021 0 -0.0323398)
(0.213298 0 -0.0346802)
(0.222911 0 -0.0371705)
(0.233042 0 -0.0398479)
(0.243877 0 -0.0427582)
(0.255605 0 -0.0459548)
(0.268379 0 -0.049494)
(0.282277 0 -0.0534181)
(0.297316 0 -0.0577657)
(0.313439 0 -0.0625691)
(0.330406 0 -0.0678141)
(0.347795 0 -0.0734453)
(0.364998 0 -0.0793486)
(0.381232 0 -0.0853528)
(0.395699 0 -0.0912736)
(0.407644 0 -0.0969113)
(0.416416 0 -0.102017)
(0.0143359 0 -0.00182601)
(0.0411649 0 -0.00526059)
(0.0646239 0 -0.00832525)
(0.0852226 0 -0.0111103)
(0.103413 0 -0.0136864)
(0.119567 0 -0.0161067)
(0.134054 0 -0.018423)
(0.147134 0 -0.0206628)
(0.159095 0 -0.0228604)
(0.170192 0 -0.0250484)
(0.180625 0 -0.0272462)
(0.190628 0 -0.0294845)
(0.200382 0 -0.0317854)
(0.210089 0 -0.0341785)
(0.21993 0 -0.0366929)
(0.230105 0 -0.0393694)
(0.240733 0 -0.04223)
(0.252007 0 -0.0453261)
(0.264055 0 -0.0486956)
(0.276937 0 -0.0523687)
(0.290696 0 -0.0563787)
(0.30526 0 -0.0607326)
(0.320483 0 -0.0654281)
(0.336083 0 -0.0704247)
(0.351674 0 -0.0756559)
(0.36674 0 -0.0810128)
(0.380699 0 -0.0863574)
(0.392977 0 -0.0915426)
(0.403039 0 -0.0963876)
(0.410493 0 -0.100712)
(0.0145037 0 -0.00189508)
(0.0416731 0 -0.00546357)
(0.0654874 0 -0.00865498)
(0.0864382 0 -0.0115597)
(0.104975 0 -0.0142489)
(0.121526 0 -0.0167859)
(0.136438 0 -0.0192203)
(0.14995 0 -0.021579)
(0.162377 0 -0.0239032)
(0.173949 0 -0.0262191)
(0.184878 0 -0.0285514)
(0.195396 0 -0.0309333)
(0.205644 0 -0.0333769)
(0.215852 0 -0.0359226)
(0.226175 0 -0.0385936)
(0.236779 0 -0.0414235)
(0.247766 0 -0.0444324)
(0.259294 0 -0.0476627)
(0.271428 0 -0.0511361)
(0.284181 0 -0.0548673)
(0.297533 0 -0.0588683)
(0.311371 0 -0.0631287)
(0.32553 0 -0.0676305)
(0.339743 0 -0.0723257)
(0.353661 0 -0.0771426)
(0.366877 0 -0.0819854)
(0.378977 0 -0.0867515)
(0.389512 0 -0.0913009)
(0.398124 0 -0.0954911)
(0.40461 0 -0.0992075)
(0.0146677 0 -0.00195948)
(0.0421697 0 -0.00565321)
(0.0663272 0 -0.00896317)
(0.0876212 0 -0.0119798)
(0.106511 0 -0.0147781)
(0.123451 0 -0.0174275)
(0.138766 0 -0.0199736)
(0.152698 0 -0.0224462)
(0.165568 0 -0.0248901)
(0.177582 0 -0.0273263)
(0.18897 0 -0.0297856)
(0.199926 0 -0.0322922)
(0.210621 0 -0.0348682)
(0.221248 0 -0.0375464)
(0.231943 0 -0.0403465)
(0.242837 0 -0.0432931)
(0.254039 0 -0.04641)
(0.265628 0 -0.0497168)
(0.277639 0 -0.0532267)
(0.290052 0 -0.0569423)
(0.302823 0 -0.0608644)
(0.315833 0 -0.0649754)
(0.328905 0 -0.0692445)
(0.341797 0 -0.0736205)
(0.354214 0 -0.0780342)
(0.365874 0 -0.0824173)
(0.376431 0 -0.0866689)
(0.385552 0 -0.0906676)
(0.393036 0 -0.0943243)
(0.398768 0 -0.097556)
(0.014825 0 -0.00201815)
(0.0426459 0 -0.00582639)
(0.0671331 0 -0.00924544)
(0.0887626 0 -0.0123665)
(0.108005 0 -0.015268)
(0.125318 0 -0.0180221)
(0.141007 0 -0.0206709)
(0.155353 0 -0.0232534)
(0.168631 0 -0.0258062)
(0.181038 0 -0.0283499)
(0.192831 0 -0.0309222)
(0.204168 0 -0.0335394)
(0.215239 0 -0.0362306)
(0.226179 0 -0.0390129)
(0.237131 0 -0.0419104)
(0.248192 0 -0.0449386)
(0.259442 0 -0.048113)
(0.270923 0 -0.0514424)
(0.282657 0 -0.0549347)
(0.294615 0 -0.0585871)
(0.306729 0 -0.0623893)
(0.318879 0 -0.0663178)
(0.330898 0 -0.0703365)
(0.34258 0 -0.0743966)
(0.353694 0 -0.0784383)
(0.36401 0 -0.0823992)
(0.373273 0 -0.086192)
(0.381256 0 -0.0897284)
(0.387839 0 -0.092945)
(0.392957 0 -0.0957821)
(0.0149729 0 -0.00206999)
(0.0430927 0 -0.00597981)
(0.067894 0 -0.00949688)
(0.0898445 0 -0.0127128)
(0.10944 0 -0.0157113)
(0.127105 0 -0.0185602)
(0.14316 0 -0.0213057)
(0.157881 0 -0.0239864)
(0.171499 0 -0.0266304)
(0.184276 0 -0.0292732)
(0.19641 0 -0.0319407)
(0.208067 0 -0.0346519)
(0.219422 0 -0.0374322)
(0.230576 0 -0.0402914)
(0.241662 0 -0.0432507)
(0.252754 0 -0.0463192)
(0.26392 0 -0.0495084)
(0.275188 0 -0.0528226)
(0.286558 0 -0.0562614)
(0.297992 0 -0.0598163)
(0.309416 0 -0.063471)
(0.320717 0 -0.0671991)
(0.331748 0 -0.0709637)
(0.342339 0 -0.0747195)
(0.352319 0 -0.0784197)
(0.361493 0 -0.0820013)
(0.369669 0 -0.0853926)
(0.376716 0 -0.0885361)
(0.382558 0 -0.0913848)