/*--------------------------------*- C++ -*----------------------------------*\
| =========                 |                                                 |
| \\      /  F ield         | OpenFOAM: The Open Source CFD Toolbox           |
|  \\    /   O peration     | Version:  dev                                   |
|   \\  /    A nd           | Web:      www.OpenFOAM.org                      |
|    \\/     M anipulation  |                                                 |
\*---------------------------------------------------------------------------*/
FoamFile
{
    version     2.0;
    format      ascii;
    class       surfaceScalarField;
    location    "0.12";
    object      meshPhi;
}
// * * * * * * * * * * * * * * * * * * * * * * * * * * * * * * * * * * * * * //

dimensions      [0 3 -1 0 0 0 0];

internalField   nonuniform List<scalar> 
882
(
8.9448e-07
1.04988e-06
1.06596e-06
9.21892e-07
9.10276e-07
7.73692e-07
1.36577e-06
1.26313e-06
1.22147e-06
1.10002e-06
1.09547e-06
9.56789e-07
9.87644e-07
8.35313e-07
7.34689e-07
1.74669e-06
1.48641e-06
1.5886e-06
1.31805e-06
1.45102e-06
1.16977e-06
1.33428e-06
1.04378e-06
1.23876e-06
9.39417e-07
1.1648e-06
8.5579e-07
7.91514e-07
2.20152e-06
1.73513e-06
2.03272e-06
1.56335e-06
1.8863e-06
1.4117e-06
1.76283e-06
1.28275e-06
1.66289e-06
1.17573e-06
1.58691e-06
1.08963e-06
1.53506e-06
1.02333e-06
1.50716e-06
9.75585e-07
9.44678e-07
1.50252e-06
2.73872e-06
2.00725e-06
2.56243e-06
1.83363e-06
2.41024e-06
1.68011e-06
2.28282e-06
1.54952e-06
2.18066e-06
1.44097e-06
2.10406e-06
1.35332e-06
2.05319e-06
1.2853e-06
2.02782e-06
1.23546e-06
1.20145e-06
2.02602e-06
3.36594e-06
2.29928e-06
3.18552e-06
2.125e-06
3.03083e-06
1.97091e-06
2.90245e-06
1.83993e-06
2.80071e-06
1.73086e-06
2.7257e-06
1.64238e-06
2.67727e-06
1.57306e-06
2.65489e-06
1.52132e-06
1.48453e-06
2.65564e-06
4.08948e-06
2.60618e-06
3.90843e-06
2.43171e-06
3.75485e-06
2.27833e-06
3.62884e-06
2.14821e-06
3.53044e-06
2.03966e-06
3.45947e-06
1.9511e-06
3.4155e-06
1.88093e-06
3.39775e-06
1.8275e-06
1.78789e-06
3.40252e-06
4.91262e-06
2.9167e-06
4.73558e-06
2.74516e-06
4.58745e-06
2.59474e-06
4.4677e-06
2.46715e-06
4.37596e-06
2.36033e-06
4.31183e-06
2.27249e-06
4.27462e-06
2.20197e-06
4.26338e-06
2.14709e-06
2.10466e-06
4.27344e-06
5.83576e-06
3.21948e-06
5.66936e-06
3.05574e-06
5.53213e-06
2.91144e-06
5.42315e-06
2.78847e-06
5.34185e-06
2.68476e-06
5.28766e-06
2.59857e-06
5.25977e-06
2.52828e-06
5.25704e-06
2.47223e-06
2.42706e-06
5.27378e-06
6.8581e-06
3.50546e-06
6.71098e-06
3.3539e-06
6.59104e-06
3.21946e-06
6.49786e-06
3.10332e-06
6.43108e-06
3.00415e-06
6.39018e-06
2.92056e-06
6.3743e-06
2.85111e-06
6.38222e-06
2.79428e-06
2.74656e-06
6.40706e-06
8.11859e-06
3.91164e-06
7.98155e-06
3.77013e-06
7.86202e-06
3.63334e-06
7.7656e-06
3.5107e-06
7.69321e-06
3.40282e-06
7.64504e-06
3.30926e-06
7.62079e-06
3.22906e-06
7.61966e-06
3.16105e-06
7.6404e-06
3.10387e-06
3.05391e-06
7.67482e-06
9.31517e-06
4.13881e-06
9.21224e-06
4.01152e-06
9.12482e-06
3.88847e-06
9.05656e-06
3.77705e-06
9.00919e-06
3.67775e-06
8.98336e-06
3.59033e-06
8.97894e-06
3.51408e-06
8.9952e-06
3.448e-06
9.03088e-06
3.39092e-06
3.33914e-06
9.07632e-06
1.06191e-05
4.33363e-06
1.05526e-05
4.21999e-06
1.04995e-05
4.10942e-06
1.04626e-05
4.00867e-06
1.04437e-05
3.9179e-06
1.04435e-05
3.83685e-06
1.04617e-05
3.7649e-06
1.04978e-05
3.70119e-06
1.05504e-05
3.64466e-06
3.59155e-06
1.06083e-05
1.20257e-05
4.4837e-06
1.19981e-05
4.38346e-06
1.19819e-05
4.28485e-06
1.19794e-05
4.19439e-06
1.19919e-05
4.11205e-06
1.202e-05
4.03748e-06
1.20635e-05
3.97011e-06
1.21216e-05
3.90915e-06
1.2193e-05
3.85364e-06
3.79977e-06
1.22645e-05
1.35264e-05
4.57678e-06
1.35407e-05
4.48964e-06
1.35642e-05
4.40267e-06
1.35987e-05
4.32226e-06
1.36452e-05
4.24823e-06
1.37041e-05
4.18023e-06
1.37751e-05
4.11767e-06
1.38572e-05
4.05982e-06
1.39489e-05
4.00584e-06
3.95185e-06
1.40354e-05
1.51095e-05
4.60053e-06
1.51686e-05
4.52608e-06
1.52345e-05
4.45043e-06
1.53085e-05
4.37982e-06
1.53913e-05
4.31402e-06
1.54832e-05
4.25264e-06
1.55835e-05
4.19511e-06
1.56912e-05
4.14077e-06
1.58048e-05
4.08885e-06
4.03548e-06
1.59071e-05
1.67598e-05
4.54265e-06
1.68663e-05
4.48033e-06
1.69767e-05
4.4156e-06
1.70922e-05
4.35453e-06
1.72133e-05
4.29684e-06
1.73398e-05
4.24212e-06
1.7471e-05
4.18987e-06
1.76058e-05
4.13944e-06
1.77423e-05
4.09017e-06
4.03827e-06
1.78614e-05
1.84577e-05
4.39115e-06
1.86133e-05
4.34025e-06
1.877e-05
4.28596e-06
1.89285e-05
4.23409e-06
1.90892e-05
4.18436e-06
1.92516e-05
4.13636e-06
1.94149e-05
4.0896e-06
1.95776e-05
4.04355e-06
1.9738e-05
3.99758e-06
3.94806e-06
1.98745e-05
2.01785e-05
4.13474e-06
2.03841e-05
4.09438e-06
2.05879e-05
4.04996e-06
2.07903e-05
4.00691e-06
2.09912e-05
3.96494e-06
2.11902e-05
3.92368e-06
2.1386e-05
3.88268e-06
2.15772e-05
3.84147e-06
2.17619e-05
3.79952e-06
3.75342e-06
2.19162e-05
2.18917e-05
3.76325e-06
2.21472e-05
3.73244e-06
2.23979e-05
3.69723e-06
2.2644e-05
3.66254e-06
2.28851e-05
3.62811e-06
2.31205e-05
3.5936e-06
2.33488e-05
3.55864e-06
2.35685e-05
3.5228e-06
2.37774e-05
3.48564e-06
3.44407e-06
2.39494e-05
2.35607e-05
3.26818e-06
2.38647e-05
3.24581e-06
2.41609e-05
3.21906e-06
2.44493e-05
3.19225e-06
2.47293e-05
3.16512e-06
2.5e-05
3.13739e-06
2.526e-05
3.10874e-06
2.55073e-05
3.07883e-06
2.57399e-05
3.0473e-06
3.01148e-06
2.59292e-05
2.5142e-05
2.64322e-06
2.54914e-05
2.62812e-06
2.58301e-05
2.60907e-06
2.6158e-05
2.58961e-06
2.64745e-05
2.56954e-06
2.67783e-05
2.54862e-06
2.70679e-05
2.5266e-06
2.73412e-05
2.50321e-06
2.75961e-05
2.4782e-06
2.4494e-06
2.78018e-05
2.65851e-05
1.88489e-06
2.69744e-05
1.87588e-06
2.73507e-05
1.86377e-06
2.77136e-05
1.85117e-06
2.80625e-05
1.83792e-06
2.83958e-05
1.82387e-06
2.87118e-05
1.80882e-06
2.90084e-05
1.79261e-06
2.92832e-05
1.77505e-06
1.75459e-06
2.95038e-05
2.7832e-05
9.93155e-07
2.82529e-05
9.8911e-07
2.86593e-05
9.8327e-07
2.90506e-05
9.77102e-07
2.94257e-05
9.70519e-07
2.97831e-05
9.63431e-07
3.01209e-05
9.55748e-07
3.04367e-05
9.47374e-07
3.0728e-05
9.38217e-07
9.27454e-07
3.09608e-05
2.88257e-05
2.92675e-05
2.96945e-05
3.01055e-05
3.04992e-05
3.08737e-05
3.12271e-05
3.15568e-05
3.18601e-05
3.21018e-05
4.63664e-07
2.03445e-06
5.90337e-07
2.04216e-06
5.92622e-07
5.93565e-07
2.05324e-06
2.66556e-06
7.30172e-07
2.67354e-06
7.32715e-07
7.32814e-07
2.6823e-06
3.41437e-06
8.80091e-07
3.42157e-06
8.82994e-07
8.82344e-07
3.42589e-06
4.28786e-06
1.03664e-06
4.29427e-06
1.03992e-06
1.03852e-06
4.29345e-06
5.29138e-06
1.19597e-06
5.29699e-06
1.19964e-06
1.19752e-06
5.29029e-06
6.42851e-06
1.35389e-06
6.43338e-06
1.35796e-06
1.35517e-06
6.4202e-06
7.70081e-06
1.50585e-06
7.70507e-06
1.51033e-06
1.50694e-06
7.68493e-06
9.10756e-06
1.64693e-06
9.11136e-06
1.65183e-06
1.64791e-06
9.08392e-06
1.06455e-05
1.77184e-06
1.0649e-05
1.77714e-06
1.77278e-06
1.0614e-05
1.23083e-05
1.87496e-06
1.23118e-05
1.88062e-06
1.87591e-06
1.22689e-05
1.40863e-05
1.95037e-06
1.40899e-05
1.95632e-06
1.95136e-06
1.4039e-05
1.59659e-05
1.99197e-06
1.59697e-05
1.99812e-06
1.99301e-06
1.59105e-05
1.79284e-05
1.99362e-06
1.79326e-05
1.99984e-06
1.99472e-06
1.78649e-05
1.99499e-05
1.94932e-06
1.99546e-05
1.95546e-06
1.95044e-06
1.98784e-05
2.20003e-05
1.8534e-06
2.20056e-05
1.85929e-06
1.85452e-06
2.19209e-05
2.40424e-05
1.70079e-06
2.40483e-05
1.70623e-06
1.70187e-06
2.3955e-05
2.60308e-05
1.48725e-06
2.60373e-05
1.49204e-06
1.48825e-06
2.59359e-05
2.79115e-05
1.20972e-06
2.79187e-05
1.21364e-06
1.21057e-06
2.78095e-05
2.9621e-05
8.6659e-07
2.96288e-05
8.69412e-07
8.67237e-07
2.95127e-05
3.10844e-05
4.58068e-07
3.10933e-05
4.59562e-07
4.58429e-07
3.09719e-05
3.22304e-05
3.22405e-05
3.21157e-05
1.21515e-06
2.70671e-06
1.49568e-06
2.75758e-06
1.53952e-06
2.83554e-06
1.59911e-06
1.67627e-06
3.44264e-06
1.79675e-06
3.48561e-06
1.84133e-06
3.55565e-06
1.90041e-06
3.65281e-06
1.97649e-06
3.77544e-06
2.07086e-06
2.18294e-06
4.30042e-06
2.11137e-06
4.33175e-06
2.15683e-06
4.38934e-06
2.21528e-06
4.47338e-06
2.28911e-06
4.58333e-06
2.37904e-06
4.71702e-06
2.48604e-06
4.87077e-06
2.61045e-06
2.74985e-06
5.28594e-06
2.43186e-06
5.3034e-06
2.47829e-06
5.34607e-06
2.53594e-06
5.41345e-06
2.60736e-06
5.50506e-06
2.69318e-06
5.6201e-06
2.79403e-06
5.75599e-06
2.90992e-06
5.90792e-06
3.04053e-06
3.17585e-06
6.40316e-06
2.74977e-06
6.40476e-06
2.79726e-06
6.43013e-06
2.8541e-06
6.47849e-06
2.92307e-06
6.5495e-06
3.0047e-06
6.64208e-06
3.0996e-06
6.75396e-06
3.208e-06
6.88257e-06
3.32966e-06
3.45566e-06
7.65401e-06
3.05593e-06
7.63803e-06
3.1045e-06
7.64403e-06
3.16055e-06
7.67108e-06
3.22707e-06
7.71896e-06
3.30452e-06
7.78676e-06
3.39358e-06
7.87272e-06
3.49461e-06
7.9744e-06
3.60769e-06
3.72398e-06
9.03812e-06
3.34036e-06
9.00304e-06
3.38995e-06
8.98784e-06
3.44517e-06
8.99143e-06
3.50922e-06
9.01379e-06
3.5825e-06
9.05425e-06
3.66575e-06
9.11145e-06
3.75944e-06
9.18338e-06
3.86384e-06
3.96994e-06
1.05524e-05
3.59234e-06
1.04969e-05
3.64276e-06
1.04588e-05
3.69702e-06
1.0437e-05
3.75851e-06
1.04315e-05
3.82758e-06
1.0442e-05
3.90498e-06
1.04675e-05
3.99127e-06
1.05063e-05
4.08684e-06
4.18241e-06
1.21908e-05
3.8004e-06
1.21137e-05
3.85133e-06
1.20512e-05
3.90442e-06
1.2002e-05
3.96319e-06
1.19665e-05
4.02794e-06
1.19446e-05
4.09943e-06
1.19355e-05
4.17824e-06
1.19379e-05
4.26484e-06
4.34975e-06
1.39437e-05
3.95253e-06
1.38439e-05
4.0035e-06
1.37556e-05
4.0551e-06
1.36774e-05
4.11092e-06
1.36098e-05
4.1712e-06
1.35531e-05
4.23667e-06
1.35066e-05
4.30796e-06
1.34695e-05
4.38554e-06
4.45982e-06
1.57974e-05
4.03634e-06
1.56739e-05
4.08676e-06
1.55587e-05
4.13644e-06
1.54499e-05
4.189e-06
1.53485e-05
4.24461e-06
1.52548e-05
4.30398e-06
1.51686e-05
4.36771e-06
1.50892e-05
4.43631e-06
4.50017e-06
1.77335e-05
4.03935e-06
1.75856e-05
4.08848e-06
1.74424e-05
4.13574e-06
1.73019e-05
4.18466e-06
1.71652e-05
4.23538e-06
1.70329e-05
4.28855e-06
1.6905e-05
4.34475e-06
1.6781e-05
4.40448e-06
4.4583e-06
1.97284e-05
3.94938e-06
1.95555e-05
3.99637e-06
1.93836e-05
4.04057e-06
1.92105e-05
4.08542e-06
1.90375e-05
4.13099e-06
1.88652e-05
4.17786e-06
1.86942e-05
4.22659e-06
1.85242e-05
4.27766e-06
4.32197e-06
2.1752e-05
3.75492e-06
2.15539e-05
3.79879e-06
2.13531e-05
3.83925e-06
2.1147e-05
3.87953e-06
2.09371e-05
3.91965e-06
2.07244e-05
3.96013e-06
2.05095e-05
4.00149e-06
2.02925e-05
4.04416e-06
4.07962e-06
2.37675e-05
3.44568e-06
2.35444e-05
3.48533e-06
2.33148e-05
3.52126e-06
2.30759e-05
3.55642e-06
2.28294e-05
3.59077e-06
2.25765e-05
3.62478e-06
2.2318e-05
3.65888e-06
2.20542e-05
3.69349e-06
3.72086e-06
2.57302e-05
3.01308e-06
2.54829e-05
3.04732e-06
2.52254e-05
3.07787e-06
2.49547e-05
3.10729e-06
2.46727e-05
3.13553e-06
2.43808e-05
3.16296e-06
2.408e-05
3.18996e-06
2.37708e-05
3.21687e-06
3.23702e-06
2.75868e-05
2.45086e-06
2.73167e-05
2.47843e-06
2.7033e-05
2.5027e-06
2.67325e-05
2.52573e-06
2.64173e-05
2.54747e-06
2.60888e-05
2.56822e-06
2.57484e-05
2.58826e-06
2.53967e-05
2.60787e-06
2.62171e-06
2.92746e-05
1.75576e-06
2.8984e-05
1.77535e-06
2.86768e-05
1.79238e-06
2.83496e-05
1.80835e-06
2.80047e-05
1.82321e-06
2.76437e-05
1.83715e-06
2.72682e-05
1.85038e-06
2.68789e-05
1.86307e-06
1.87152e-06
3.07211e-05
9.28129e-07
3.0413e-05
9.38436e-07
3.00861e-05
9.47297e-07
2.97367e-05
9.55527e-07
2.93673e-05
9.63102e-07
2.89797e-05
9.70117e-07
2.85755e-05
9.76661e-07
2.81559e-05
9.82806e-07
9.86705e-07
3.18554e-05
3.15339e-05
3.11923e-05
3.08268e-05
3.04397e-05
3.00331e-05
2.96089e-05
2.91684e-05
)
;

boundaryField
{
    inlet
    {
        type            calculated;
        value           nonuniform 0();
    }
    outlet
    {
        type            calculated;
        value           nonuniform 0();
    }
    flap
    {
        type            calculated;
        value           nonuniform 0();
    }
    upperWall
    {
        type            calculated;
        value           nonuniform List<scalar> 
22
(
0
0
0
0
0
0
0
0
0
0
0
0
0
0
0
6.34046e-15
0
0
0
-6.97494e-15
0
0
)
;
    }
    lowerWall
    {
        type            calculated;
        value           nonuniform 0();
    }
    frontAndBack
    {
        type            empty;
        value           nonuniform 0();
    }
    procBoundary1to0
    {
        type            processor;
        value           nonuniform List<scalar> 
18
(
-6.02156e-06
-7.02368e-06
-3.65919e-06
-8.24083e-06
-9.40826e-06
-1.06751e-05
-1.204e-05
-1.34948e-05
-1.50285e-05
-1.66266e-05
-1.82701e-05
-1.99353e-05
-2.15932e-05
-2.32084e-05
-2.47394e-05
-2.61377e-05
-2.7348e-05
-2.83161e-05
)
;
    }
    procBoundary1to2
    {
        type            processor;
        value           nonuniform List<scalar> 
17
(
6.04946e-06
7.00211e-06
8.06524e-06
9.24064e-06
1.05256e-05
1.19149e-05
1.34006e-05
1.49711e-05
1.66111e-05
1.83003e-05
2.00138e-05
2.17208e-05
2.33842e-05
2.49602e-05
2.63979e-05
2.76393e-05
2.86276e-05
)
;
    }
    procBoundary1to3
    {
        type            processor;
        value           nonuniform List<scalar> 9(-9.13132e-07 -1.19287e-06 -1.52613e-06 -1.92142e-06 -2.38733e-06 -2.93223e-06 -3.56383e-06 -4.28912e-06 -5.10952e-06);
    }
    procBoundary1to4
    {
        type            processor;
        value           nonuniform List<scalar> 
30
(
-7.44468e-07
7.89545e-07
-7.47329e-07
-6.17676e-07
8.09474e-07
-6.57467e-07
-5.60738e-07
8.97971e-07
-6.53667e-07
-5.90719e-07
1.11247e-06
-7.44838e-07
-7.14398e-07
-3.48772e-07
1.50872e-06
-4.65179e-07
-4.6574e-07
-9.54727e-07
2.08154e-06
-1.25648e-06
-1.31296e-06
-1.38629e-06
2.9397e-06
-1.77057e-06
-1.88011e-06
3.91959e-06
-2.31046e-06
-2.45015e-06
5.03775e-06
-2.8911e-06
)
;
    }
}


// ************************************************************************* //
