/*--------------------------------*- C++ -*----------------------------------*\
| =========                 |                                                 |
| \\      /  F ield         | OpenFOAM: The Open Source CFD Toolbox           |
|  \\    /   O peration     | Version:  dev                                   |
|   \\  /    A nd           | Web:      www.OpenFOAM.org                      |
|    \\/     M anipulation  |                                                 |
\*---------------------------------------------------------------------------*/
FoamFile
{
    version     2.0;
    format      ascii;
    class       volVectorField;
    location    "0.83";
    object      U;
}
// * * * * * * * * * * * * * * * * * * * * * * * * * * * * * * * * * * * * * //

dimensions      [0 1 -1 0 0 0 0];

internalField   nonuniform List<vector> 
2790
(
(9.92793 2.25515e-20 0.0192751)
(9.85789 -2.33216e-20 0.0271135)
(9.76073 0 0.0324752)
(9.63801 -1.89028e-20 0.038001)
(9.49779 -1.31351e-20 0.0437641)
(9.34292 6.81962e-21 0.0497317)
(9.1728 0 0.0560224)
(8.98633 1.48353e-20 0.0627751)
(8.78274 -3.10614e-20 0.0701072)
(8.56131 3.21259e-20 0.0781262)
(8.32119 3.38154e-20 0.0869432)
(8.06137 3.41231e-22 0.0966774)
(7.78074 -1.10284e-19 0.107454)
(7.4781 7.62912e-20 0.119402)
(7.15225 0 0.132652)
(6.802 8.95995e-20 0.147328)
(6.42624 -9.82493e-20 0.163538)
(6.02408 1.84841e-19 0.181364)
(5.59495 -1.91315e-19 0.200862)
(5.1387 -2.02534e-19 0.222033)
(4.6557 2.09617e-19 0.244771)
(4.14719 0 0.268833)
(3.6155 0 0.29383)
(3.0642 0 0.31918)
(2.49834 -2.50428e-19 0.344013)
(1.92462 5.12813e-19 0.366978)
(1.35124 1.32154e-18 0.385471)
(0.786733 -1.06884e-18 0.387829)
(0.176777 -2.64706e-18 0.270992)
(-0.0403426 -2.27696e-18 -0.160968)
(9.99089 -2.25398e-20 0.0386635)
(9.97969 1.74682e-20 0.0567056)
(9.94297 -6.07222e-21 0.0700534)
(9.87887 3.77282e-20 0.0842956)
(9.79442 0 0.0995839)
(9.69263 0 0.115758)
(9.57316 0 0.133036)
(9.43511 -1.47634e-20 0.15171)
(9.27779 -6.17507e-20 0.17204)
(9.10057 -5.44909e-22 0.19426)
(8.90268 6.65084e-20 0.218614)
(8.6832 -1.7406e-20 0.245363)
(8.44104 0 0.274778)
(8.17504 -1.52622e-19 0.30712)
(7.88399 4.76574e-19 0.342632)
(7.56666 -6.67937e-19 0.381516)
(7.22186 3.55232e-19 0.4239)
(6.84852 -3.64232e-19 0.469795)
(6.44586 3.29251e-19 0.519073)
(6.01351 7.96207e-19 0.571401)
(5.55148 -8.2293e-19 0.626112)
(5.06044 9.7586e-19 0.682107)
(4.54208 -6.7138e-19 0.73779)
(3.99918 0 0.79094)
(3.43576 -2.42816e-19 0.838494)
(2.85739 5.00337e-19 0.876008)
(2.27141 -4.88359e-18 0.89594)
(1.68609 5.09275e-19 0.881243)
(1.0674 5.08936e-19 0.790695)
(0.698248 2.21905e-18 0.609406)
(9.98812 0 0.0407172)
(9.9744 -1.0466e-19 0.0669419)
(9.94021 1.20761e-20 0.089094)
(9.88115 0 0.112593)
(9.80304 0 0.137896)
(9.70901 5.45432e-20 0.164881)
(9.59899 -5.64151e-20 0.193816)
(9.4722 0 0.225112)
(9.32809 3.063e-20 0.259168)
(9.16615 1.28245e-19 0.296362)
(8.98577 -9.92238e-20 0.337091)
(8.78617 1.73401e-20 0.381793)
(8.56642 -2.90614e-19 0.430925)
(8.3255 6.0323e-19 0.484939)
(8.06232 -3.13016e-19 0.544264)
(7.77571 -6.60619e-19 0.609282)
(7.46447 6.82018e-19 0.680275)
(7.1274 0 0.75734)
(6.76342 1.40073e-19 0.840335)
(6.37173 0 0.928803)
(5.95173 0 1.02181)
(5.50303 1.59872e-18 1.1177)
(5.02584 -4.24857e-19 1.21396)
(4.52099 -1.82434e-18 1.30698)
(3.98975 -4.72795e-19 1.3916)
(3.43355 3.42291e-18 1.46046)
(2.85272 -3.47819e-18 1.50251)
(2.24516 -5.05584e-19 1.49866)
(1.56522 -8.05364e-18 1.4222)
(0.970008 9.77015e-18 1.28054)
(9.98626 -1.12351e-20 0.0450972)
(9.97016 1.04576e-19 0.0811044)
(9.93588 -9.64756e-20 0.113441)
(9.87799 5.00047e-20 0.146533)
(9.80139 -5.22116e-20 0.181449)
(9.70925 5.44129e-20 0.218409)
(9.60173 -5.62661e-20 0.257827)
(9.47823 0 0.300258)
(9.33831 -3.05623e-20 0.346252)
(9.18168 -2.55449e-19 0.396341)
(9.00792 -3.54692e-20 0.451079)
(8.81649 2.746e-19 0.511072)
(8.60673 0 0.576951)
(8.37795 6.20888e-19 0.649347)
(8.12936 -6.21253e-19 0.728882)
(7.86012 -1.01559e-20 0.816145)
(7.56933 0 0.911632)
(7.25601 -4.41511e-20 1.01563)
(6.91911 -1.84429e-19 1.12813)
(6.55772 0 1.24873)
(6.1709 1.60949e-18 1.37651)
(5.7575 1.65674e-18 1.50965)
(5.3164 2.16503e-19 1.64521)
(4.84635 3.59328e-18 1.77885)
(4.34552 -2.75639e-18 1.90418)
(3.81074 -4.72651e-19 2.01203)
(3.23558 4.81782e-19 2.08963)
(2.61121 -4.87545e-19 2.11827)
(1.90322 -8.07453e-18 2.07075)
(1.18328 9.52142e-18 1.9857)
(9.98528 0 0.0510208)
(9.96777 0 0.0954076)
(9.93334 9.63921e-20 0.136659)
(9.87637 -5.00094e-20 0.178442)
(9.80113 5.22039e-20 0.222257)
(9.71067 1.08515e-19 0.268657)
(9.60527 -1.1218e-19 0.318177)
(9.48437 0 0.371455)
(9.34761 6.07725e-20 0.429134)
(9.19477 0 0.491835)
(9.02556 0 0.56021)
(8.83956 3.42238e-20 0.634976)
(8.63632 0 0.716876)
(8.41533 -1.85988e-20 0.806653)
(8.17605 9.65327e-21 0.905057)
(7.91796 6.58158e-19 1.01283)
(7.64042 -2.01751e-18 1.13065)
(7.34274 1.39052e-18 1.25901)
(7.02407 9.11091e-20 1.39805)
(6.68348 9.42868e-20 1.54756)
(6.3199 1.95905e-19 1.70679)
(5.93175 -3.27747e-18 1.87403)
(5.51693 -3.00265e-20 2.04631)
(5.07245 6.9749e-18 2.21906)
(4.59396 -3.57859e-18 2.38545)
(4.07497 7.83532e-18 2.53536)
(3.50499 -8.97074e-19 2.65421)
(2.8716 -7.0699e-18 2.72171)
(2.16421 2.38287e-19 2.69816)
(1.3735 0 2.64454)
(9.98479 0 0.0576933)
(9.96656 0 0.109738)
(9.93223 0 0.159433)
(9.87634 0 0.209875)
(9.80274 -1.03688e-19 0.262625)
(9.71434 1.07748e-19 0.318424)
(9.61141 1.12441e-19 0.377925)
(9.49347 -1.16133e-19 0.441847)
(9.36017 -3.64202e-19 0.510907)
(9.21134 6.08875e-20 0.585802)
(9.04674 5.89093e-19 0.667279)
(8.86605 -3.05196e-19 0.756164)
(8.6689 0 0.853303)
(8.45488 0 0.959528)
(8.22358 -9.59149e-21 1.07568)
(7.97463 -9.93449e-21 1.20264)
(7.70759 0 1.34123)
(7.42194 2.24442e-22 1.49216)
(7.11692 -4.45876e-20 1.65577)
(6.79156 -1.8564e-19 1.83204)
(6.44472 2.90176e-18 2.02053)
(6.0745 -2.27763e-19 2.21988)
(5.67799 3.27822e-18 2.4274)
(5.25101 -3.40365e-18 2.63863)
(4.78734 3.02947e-18 2.84652)
(4.27831 0 3.04017)
(3.71151 4.53287e-19 3.20225)
(3.07087 0 3.3084)
(2.37051 0 3.30084)
(1.53903 -2.48672e-19 3.24557)
(9.98462 0 0.0647063)
(9.96618 -1.61384e-19 0.124068)
(9.93221 -2.39476e-20 0.1818)
(9.87757 9.97743e-20 0.240645)
(9.80592 -1.03049e-19 0.302067)
(9.71995 -1.0755e-19 0.366944)
(9.61992 1.11488e-19 0.436072)
(9.50539 0 0.510268)
(9.37606 -1.81501e-19 0.590324)
(9.23178 1.24249e-19 0.676998)
(9.07236 -6.51003e-20 0.771118)
(8.89752 0 0.873618)
(8.70694 0 0.985443)
(8.50023 -7.27445e-20 1.10749)
(8.27704 3.77746e-20 1.24066)
(8.03704 1.2746e-18 1.38594)
(7.77987 1.27899e-20 1.54432)
(7.50511 5.57492e-20 1.71671)
(7.21196 -1.35466e-18 1.90371)
(6.89921 9.1275e-20 2.10555)
(6.56564 3.02468e-18 2.32209)
(6.20905 3.38599e-18 2.55253)
(5.82581 -3.2136e-18 2.7947)
(5.41086 3.27444e-18 3.04451)
(4.95656 0 3.29477)
(4.4526 -2.66533e-20 3.53361)
(3.88569 6.98813e-18 3.7402)
(3.23491 -7.06577e-18 3.88529)
(2.53389 0 3.89403)
(1.67725 -7.54098e-18 3.81972)
(9.98467 0 0.0718128)
(9.96635 1.38226e-19 0.13828)
(9.933 -1.04644e-22 0.203685)
(9.87982 -4.9885e-20 0.270592)
(9.81037 2.06029e-19 0.340376)
(9.72717 2.1418e-19 0.414023)
(9.63043 -2.2204e-19 0.492452)
(9.51976 -1.15177e-19 0.576571)
(9.39491 -1.19553e-19 0.667238)
(9.25576 1.86334e-19 0.765261)
(9.10213 0 0.871539)
(8.93379 5.37992e-19 0.987131)
(8.75045 7.40932e-20 1.11308)
(8.55175 -5.02165e-19 1.25032)
(8.33733 -3.74926e-20 1.39985)
(8.10685 0 1.56276)
(7.85987 0 1.74016)
(7.59605 -2.07373e-20 1.93321)
(7.31454 0 2.14285)
(7.01379 0 2.3696)
(6.69224 -2.28404e-20 2.6137)
(6.34731 -9.48832e-20 2.87496)
(5.97504 0 3.152)
(5.56932 -7.71745e-22 3.44117)
(5.12124 0 3.7353)
(4.61904 6.65288e-18 4.02165)
(4.04878 3.06398e-20 4.27601)
(3.38387 -6.42364e-18 4.46471)
(2.66974 -7.95657e-18 4.50027)
(1.79317 7.59214e-18 4.41091)
(9.98481 0 0.078864)
(9.96688 0 0.152255)
(9.93445 0 0.225003)
(9.88297 9.84742e-20 0.29961)
(9.81596 1.02461e-19 0.377419)
(9.73583 1.06952e-19 0.459506)
(9.64275 -1.10147e-19 0.546878)
(9.53637 2.29347e-19 0.640523)
(9.41649 -2.38368e-19 0.741362)
(9.28306 1.22372e-19 0.850254)
(9.13584 0 0.968176)
(8.97458 -4.005e-19 1.0963)
(8.79914 4.79084e-19 1.23576)
(8.6092 -1.21623e-18 1.38754)
(8.40438 1.24966e-18 1.55275)
(8.18426 -1.15167e-18 1.73261)
(7.94836 2.5291e-18 1.92838)
(7.69615 -2.59306e-18 2.14141)
(7.42673 1.34294e-18 2.37309)
(7.13861 4.32283e-20 2.62439)
(6.82946 2.24398e-20 2.89594)
(6.49622 2.94509e-18 3.18819)
(6.13476 -2.90042e-18 3.50079)
(5.73799 7.53435e-22 3.83079)
(5.29573 6.07634e-18 4.17132)
(4.79441 -6.74231e-18 4.50918)
(4.21914 0 4.8179)
(3.53731 -4.18745e-19 5.06062)
(2.79848 -6.05299e-18 5.14245)
(1.89808 1.48182e-17 5.05862)
(9.98498 0 0.0857677)
(9.96765 2.28527e-19 0.165874)
(9.93645 -4.74276e-20 0.245639)
(9.88694 -1.97231e-19 0.327582)
(9.82262 -2.04132e-19 0.413063)
(9.74583 0 0.503226)
(9.65676 1.10387e-19 0.599144)
(9.55506 -3.41514e-19 0.701873)
(9.44062 1.1835e-19 0.812394)
(9.31347 0 0.931632)
(9.17322 -5.09237e-19 1.06066)
(9.01964 5.2298e-19 1.20073)
(8.85282 -6.81807e-19 1.35302)
(8.67241 6.31363e-19 1.51862)
(8.47798 7.20743e-20 1.69876)
(8.26909 1.13249e-18 1.89482)
(8.04537 -2.56114e-18 2.10827)
(7.80583 1.19568e-18 2.34065)
(7.54955 -8.20035e-20 2.59374)
(7.27535 -4.25435e-20 2.86916)
(6.9802 0 3.1681)
(6.66051 2.85313e-18 3.49168)
(6.31162 -2.98587e-18 3.84053)
(5.92588 6.11405e-18 4.21299)
(5.49214 -6.1867e-18 4.60336)
(4.99431 6.89947e-18 4.99871)
(4.41573 -6.24676e-18 5.37221)
(3.71675 0 5.68536)
(2.94384 0 5.84081)
(2.00661 -7.65451e-18 5.79588)
(9.98519 0 0.0924616)
(9.96859 -1.36916e-19 0.179043)
(9.93886 -4.72475e-20 0.265481)
(9.89157 0 0.35439)
(9.83017 2.0373e-19 0.447173)
(9.75702 0 0.545022)
(9.67229 -2.18236e-19 0.64906)
(9.57561 0 0.760392)
(9.46707 -1.17049e-19 0.880058)
(9.34664 -1.21164e-19 1.00909)
(9.2138 0 1.14866)
(9.06853 -2.59959e-19 1.30002)
(8.91107 1.34769e-19 1.46439)
(8.74102 1.1151e-18 1.64303)
(8.55786 -1.28663e-18 1.83731)
(8.36125 1.47298e-19 2.04875)
(8.15076 -1.1466e-18 2.27904)
(7.92526 1.32768e-18 2.53003)
(7.68382 8.08407e-20 2.80375)
(7.42525 -2.64744e-18 3.10249)
(7.14637 -1.60604e-20 3.4283)
(6.84349 -5.50736e-18 3.78321)
(6.51114 2.79669e-18 4.16876)
(6.14115 -5.32453e-19 4.585)
(5.72177 -5.07018e-18 5.02858)
(5.23456 -1.97741e-20 5.48873)
(4.65958 5.27224e-18 5.94099)
(3.9479 0 6.34779)
(3.13398 0 6.61407)
(2.13627 -3.03899e-18 6.65963)
(9.98539 0 0.0988991)
(9.96969 4.54362e-20 0.191683)
(9.94166 -4.70569e-20 0.284435)
(9.89678 -9.78129e-20 0.379928)
(9.83853 2.02496e-19 0.479622)
(9.76927 -1.04694e-19 0.58474)
(9.68918 2.17632e-19 0.696443)
(9.59791 -2.24482e-19 0.815866)
(9.49569 5.83476e-19 0.944128)
(9.3823 1.23456e-19 1.08238)
(9.25732 3.06293e-21 1.23185)
(9.12101 -8.99749e-19 1.39376)
(8.97347 3.96962e-19 1.56939)
(8.81439 0 1.76019)
(8.64338 0 1.96768)
(8.46019 -1.4587e-19 2.19354)
(8.26408 1.19875e-18 2.43967)
(8.05423 -1.22241e-18 2.70821)
(7.82983 0 3.00153)
(7.5891 -2.57516e-18 3.32237)
(7.32937 2.61305e-18 3.67377)
(7.04741 -2.67016e-18 4.05891)
(6.73739 2.7014e-18 4.48061)
(6.3907 6.85275e-19 4.941)
(5.99545 -6.9441e-19 5.44012)
(5.53148 -3.56902e-19 5.97211)
(4.97441 3.61111e-18 6.51919)
(4.26385 -2.97715e-18 7.04996)
(3.41159 0 7.4787)
(2.31682 -3.71475e-18 7.69889)
(9.98551 3.49844e-19 0.105045)
(9.97096 -3.61284e-19 0.203701)
(9.94485 -3.74525e-19 0.302406)
(9.90253 9.73453e-20 0.404103)
(9.8476 -2.01447e-19 0.510297)
(9.78246 -1.04905e-19 0.622234)
(9.70727 -9.27729e-22 0.741111)
(9.62177 4.46558e-19 0.868088)
(9.52616 2.30365e-19 1.00438)
(9.42013 2.37981e-19 1.15125)
(9.30354 0 1.30989)
(9.1768 5.09968e-19 1.48155)
(9.03975 -1.29977e-19 1.66759)
(8.89221 0 1.86956)
(8.73407 9.7615e-19 2.08915)
(8.56515 6.65582e-21 2.32823)
(8.38465 -1.16782e-18 2.58891)
(8.19215 1.50054e-18 2.87356)
(7.98681 -9.18094e-19 3.1849)
(7.76674 2.50439e-18 3.52613)
(7.53001 -2.53812e-18 3.90107)
(7.27384 0 4.31399)
(6.99296 0 4.7694)
(6.67957 -6.83891e-21 5.27203)
(6.32222 3.37377e-19 5.82623)
(5.90041 0 6.4339)
(5.38642 0 7.08968)
(4.70851 2.80282e-18 7.77884)
(3.84565 -2.93989e-18 8.44165)
(2.60485 -2.67687e-18 8.98384)
(9.98567 -6.97868e-19 0.110861)
(9.9724 6.75485e-19 0.215017)
(9.94835 -4.56701e-20 0.319314)
(9.90877 -1.92767e-19 0.426838)
(9.85734 1.00646e-19 0.539109)
(9.79648 -2.06987e-19 0.657394)
(9.72641 2.14005e-19 0.782923)
(9.64695 -4.43325e-19 0.916905)
(9.55811 -4.6008e-19 1.06065)
(9.45981 2.34635e-19 1.21545)
(9.35212 7.31962e-19 1.38246)
(9.23538 -1.0051e-18 1.56301)
(9.10948 2.56498e-19 1.75857)
(8.97432 1.06721e-18 1.97071)
(8.82989 -1.22538e-18 2.20119)
(8.67598 -8.44908e-19 2.45212)
(8.51237 1.43068e-18 2.7258)
(8.33873 -2.94864e-19 3.02471)
(8.15422 2.09543e-18 3.35185)
(7.95769 -2.43019e-18 3.7109)
(7.74802 0 4.10625)
(7.52296 0 4.54299)
(7.27873 0 5.02727)
(7.00971 2.21506e-18 5.56655)
(6.70668 -2.56783e-18 6.17004)
(6.35239 -6.33726e-19 6.84906)
(5.92114 3.17935e-19 7.61597)
(5.33775 0 8.48848)
(4.54753 0 9.47492)
(3.11419 0 10.6571)
(9.98594 1.04702e-21 0.116296)
(9.97399 -1.09877e-21 0.225581)
(9.95208 3.72232e-19 0.335093)
(9.91542 7.69823e-19 0.448035)
(9.8677 1.99535e-19 0.565945)
(9.81128 -8.52232e-23 0.690098)
(9.74657 -6.39329e-19 0.821738)
(9.67331 4.40008e-19 0.962161)
(9.5915 0 1.11274)
(9.50132 2.33484e-19 1.27472)
(9.40284 -2.41917e-19 1.44927)
(9.29633 0 1.63778)
(9.18204 1.02379e-18 1.84183)
(9.05996 -1.83678e-18 2.063)
(8.92998 1.61119e-18 2.30314)
(8.79203 -2.76615e-19 2.56443)
(8.64646 -2.82859e-19 2.84926)
(8.49307 0 3.16024)
(8.3313 1.1695e-18 3.50051)
(8.16091 -1.18524e-18 3.87395)
(7.98169 2.40054e-18 4.2853)
(7.79263 2.42702e-18 4.74027)
(7.59208 2.43519e-18 5.24602)
(7.37768 -2.46154e-18 5.81202)
(7.14532 0 6.45137)
(6.8868 6.25646e-19 7.18335)
(6.59101 -3.13305e-19 8.03745)
(6.20895 0 9.07024)
(5.72118 0 10.407)
(4.08691 -2.14263e-18 13.0396)
(0.438691 1.04846e-19 -0.120656)
(0.0442712 0 0.214436)
(-0.532088 -4.06666e-19 0.269979)
(-1.17368 3.68524e-19 0.28281)
(-1.89535 -4.24559e-19 0.289989)
(-2.66334 2.51905e-19 0.291766)
(-3.45107 -1.46087e-19 0.28765)
(-4.23971 -5.79513e-20 0.278198)
(-5.01598 7.14471e-20 0.264242)
(-5.76935 1.09697e-19 0.246422)
(-6.49127 5.39361e-20 0.225293)
(-7.17395 4.30909e-20 0.2013)
(-7.80972 0 0.174769)
(-8.39103 2.34138e-20 0.145938)
(-8.91 -1.85108e-20 0.114903)
(-9.35828 1.36706e-20 0.0816157)
(-9.72684 -3.39345e-21 0.0460351)
(-10.0064 0 0.00817211)
(-10.1879 -5.63102e-22 -0.0321323)
(-10.2617 2.43531e-21 -0.0756375)
(-10.2186 2.61258e-21 -0.124146)
(-10.0416 0 -0.180518)
(-9.71349 2.26229e-21 -0.246119)
(-9.22166 1.22026e-22 -0.322345)
(-8.55206 1.66091e-22 -0.412242)
(-7.6792 7.88941e-22 -0.52139)
(-6.54358 0 -0.661985)
(-5.04771 4.07913e-21 -0.860219)
(-3.13698 0 -1.15037)
(-0.850854 0 -1.52341)
(-0.0872503 1.58969e-18 0.109898)
(-0.437173 0 0.448768)
(-1.06136 2.38075e-20 0.591593)
(-1.79133 0 0.674458)
(-2.59784 7.50382e-19 0.731635)
(-3.43896 -5.74808e-19 0.768235)
(-4.28901 -1.47937e-19 0.787134)
(-5.13111 3.27664e-19 0.790958)
(-5.95342 -1.45628e-19 0.78194)
(-6.74665 -5.35459e-19 0.761676)
(-7.50342 -3.29891e-19 0.731437)
(-8.21681 8.40917e-20 0.69208)
(-8.87967 -3.09865e-20 0.644054)
(-9.48487 -1.22411e-20 0.587678)
(-10.0247 0 0.523062)
(-10.4913 5.3778e-21 0.450101)
(-10.8764 -2.72888e-21 0.368758)
(-11.1717 -1.63091e-21 0.279238)
(-11.3689 0 0.181613)
(-11.4593 -3.91193e-21 0.075177)
(-11.4342 -4.93141e-21 -0.0423097)
(-11.2875 0 -0.171368)
(-11.0105 -1.31412e-21 -0.310716)
(-10.5955 3.28658e-21 -0.460797)
(-10.0366 -2.30402e-21 -0.623868)
(-9.32408 -1.14272e-21 -0.804756)
(-8.43367 1.01323e-21 -1.01612)
(-7.33593 -4.64856e-21 -1.28532)
(-6.09874 0 -1.63118)
(-5.14101 -4.10288e-21 -1.96235)
(-0.160498 0 0.464931)
(-0.645507 0 0.872483)
(-1.33501 1.49144e-18 1.08319)
(-2.11566 -1.44071e-18 1.20986)
(-2.95242 -1.31227e-18 1.29028)
(-3.80961 1.60281e-18 1.33566)
(-4.66626 1.46285e-19 1.35212)
(-5.509 -5.08287e-19 1.34401)
(-6.32854 1.68257e-19 1.31477)
(-7.11768 5.49436e-19 1.26697)
(-7.87056 -7.77539e-20 1.20248)
(-8.5813 8.96657e-20 1.12261)
(-9.2438 3.06682e-20 1.02813)
(-9.85184 0 0.919643)
(-10.3986 3.23323e-20 0.797618)
(-10.8766 -1.12545e-20 0.66245)
(-11.2784 2.58126e-21 0.514726)
(-11.5963 5.56506e-21 0.355381)
(-11.8224 -7.17072e-21 0.185461)
(-11.9492 2.31193e-21 0.00584705)
(-11.969 5.5758e-21 -0.183248)
(-11.878 0 -0.38433)
(-11.672 -7.17464e-21 -0.599279)
(-11.3471 -3.39374e-21 -0.826915)
(-10.9032 5.53758e-21 -1.06684)
(-10.3407 -4.0935e-22 -1.31984)
(-9.65442 8.7639e-22 -1.59131)
(-8.84202 4.58216e-22 -1.8954)
(-7.98186 0 -2.23817)
(-7.39223 4.07679e-21 -2.54804)
(-0.0951682 0 0.988674)
(-0.658177 0 1.42347)
(-1.42115 0 1.65852)
(-2.23449 -1.38732e-18 1.80045)
(-3.07623 1.355e-18 1.88538)
(-3.92345 8.9078e-19 1.9276)
(-4.76247 -8.98978e-19 1.93522)
(-5.58459 2.57189e-19 1.91376)
(-6.38354 -2.2946e-19 1.86717)
(-7.15422 0 1.79856)
(-7.89211 -3.87359e-19 1.71001)
(-8.59217 -8.44062e-20 1.60275)
(-9.24887 0 1.47746)
(-9.85624 -4.2297e-20 1.33455)
(-10.4077 -6.14133e-20 1.1742)
(-10.8961 1.38395e-20 0.996538)
(-11.3139 -9.55452e-21 0.8017)
(-11.6537 -4.01669e-21 0.589934)
(-11.9076 8.09235e-21 0.361703)
(-12.0689 9.48745e-21 0.117789)
(-12.1311 0 -0.141108)
(-12.0903 4.14097e-21 -0.414702)
(-11.9481 3.07001e-21 -0.702023)
(-11.7032 1.82579e-20 -1.00108)
(-11.359 -4.85353e-21 -1.30978)
(-10.9212 -1.74268e-21 -1.62618)
(-10.3943 -2.89597e-21 -1.95022)
(-9.78733 -4.33196e-22 -2.28619)
(-9.16998 4.27998e-22 -2.63296)
(-8.77202 0 -2.92856)
(0.0501831 -1.09775e-19 1.66011)
(-0.542553 -3.15123e-18 2.07453)
(-1.36919 2.91744e-18 2.2956)
(-2.19641 0 2.42614)
(-3.02635 0 2.49833)
(-3.84838 3.01868e-19 2.52609)
(-4.65651 -2.83455e-19 2.51735)
(-5.44645 -2.57008e-19 2.47755)
(-6.2149 2.29079e-19 2.41016)
(-6.95855 0 2.31773)
(-7.67353 3.21727e-20 2.20189)
(-8.35541 -2.93048e-19 2.06335)
(-8.99923 1.22333e-19 1.90243)
(-9.59911 8.08126e-20 1.71919)
(-10.1487 5.47291e-20 1.51374)
(-10.6409 0 1.28645)
(-11.0684 6.20165e-22 1.03797)
(-11.4239 -6.11623e-22 0.769213)
(-11.7003 -1.32043e-20 0.481626)
(-11.8915 -1.45013e-20 0.177447)
(-11.9927 0 -0.140672)
(-11.9974 0 -0.470805)
(-11.9129 0 -0.813754)
(-11.7393 -1.53572e-20 -1.16654)
(-11.4821 0 -1.52458)
(-11.1501 7.90563e-22 -1.88291)
(-10.7525 -5.14719e-21 -2.23686)
(-10.3036 0 -2.58429)
(-9.86206 2.15829e-22 -2.92028)
(-9.58879 -2.29026e-22 -3.19003)
(0.242072 -3.39558e-18 2.44695)
(-0.346952 2.44714e-20 2.79851)
(-1.21744 9.27131e-20 2.97517)
(-2.03608 -1.7127e-19 3.07273)
(-2.83855 3.19747e-19 3.11796)
(-3.62264 -3.03442e-19 3.12245)
(-4.38921 2.69944e-19 3.09239)
(-5.13756 -9.40951e-19 3.03186)
(-5.86683 1.33563e-18 2.94344)
(-6.57531 -4.04633e-19 2.82863)
(-7.25986 1.5546e-19 2.68817)
(-7.9164 -2.59931e-19 2.52226)
(-8.54045 0 2.33093)
(-9.1265 -3.86332e-20 2.11394)
(-9.66855 -2.55604e-20 1.87117)
(-10.16 0 1.60279)
(-10.5936 0 1.30927)
(-10.962 1.05134e-20 0.99145)
(-11.2581 -2.27888e-20 0.650811)
(-11.4762 1.79859e-20 0.2901)
(-11.6119 1.25082e-20 -0.0864562)
(-11.6601 -1.22764e-20 -0.474001)
(-11.6274 -1.52744e-20 -0.870928)
(-11.5178 -1.15292e-20 -1.27398)
(-11.3371 2.04825e-20 -1.67624)
(-11.0956 0 -2.06998)
(-10.8047 6.61308e-21 -2.44679)
(-10.4818 4.34975e-21 -2.79996)
(-10.1744 2.02574e-21 -3.12216)
(-9.99076 0 -3.36622)
(0.451863 3.39846e-18 3.3031)
(-0.110496 -7.48658e-20 3.55924)
(-0.9962 -5.78338e-18 3.66953)
(-1.77986 2.8497e-19 3.7195)
(-2.53806 2.43976e-18 3.72869)
(-3.2715 0 3.70471)
(-3.98617 -5.34201e-19 3.65107)
(-4.68437 9.10622e-19 3.5693)
(-5.36674 -1.49561e-18 3.46044)
(-6.03255 3.88793e-19 3.3247)
(-6.67963 -2.85118e-19 3.1617)
(-7.30459 2.80073e-19 2.97087)
(-7.90305 0 2.75159)
(-8.46975 -5.16946e-20 2.50324)
(-8.99894 2.46534e-20 2.22538)
(-9.48434 2.26033e-20 1.91794)
(-9.91901 -1.7926e-20 1.58142)
(-10.2958 -2.24136e-21 1.21698)
(-10.6081 1.78944e-20 0.82677)
(-10.8502 0 0.414523)
(-11.0185 0 -0.0138611)
(-11.1103 -1.51692e-20 -0.451446)
(-11.1259 4.19944e-20 -0.894972)
(-11.075 2.94479e-20 -1.34068)
(-10.9633 -2.05212e-20 -1.77946)
(-10.8011 -4.03135e-20 -2.20114)
(-10.601 2.89739e-20 -2.59442)
(-10.3818 -4.42918e-21 -2.94925)
(-10.1812 -2.62365e-21 -3.25648)
(-10.0664 0 -3.47706)
(0.65667 1.01823e-19 4.1683)
(0.137474 0 4.31333)
(-0.727291 2.78172e-18 4.3465)
(-1.44732 -2.88378e-18 4.34241)
(-2.14343 -1.57988e-19 4.31267)
(-2.81329 2.80993e-19 4.25926)
(-3.46588 1.25846e-18 4.18253)
(-4.10568 -9.73266e-19 4.08127)
(-4.7342 3.89621e-19 3.95407)
(-5.351 -2.21097e-19 3.79969)
(-5.95442 2.72942e-20 3.61692)
(-6.54158 1.17543e-19 3.40439)
(-7.10842 -7.81132e-20 3.16077)
(-7.65008 -4.19672e-20 2.88503)
(-8.16107 4.12805e-20 2.57642)
(-8.63549 0 2.23473)
(-9.067 3.58385e-20 1.86043)
(-9.44915 -2.20783e-20 1.45491)
(-9.77567 2.18162e-20 1.02075)
(-10.0408 3.3151e-20 0.562276)
(-10.2407 -3.28357e-20 0.0865117)
(-10.3734 -7.72791e-20 -0.397668)
(-10.4339 0 -0.883863)
(-10.4373 -4.47218e-20 -1.36733)
(-10.3889 -4.54628e-20 -1.83741)
(-10.2983 4.53661e-20 -2.28209)
(-10.1776 -3.38836e-20 -2.68805)
(-10.0462 -1.02456e-21 -3.04277)
(-9.93417 1.01e-21 -3.33543)
(-9.87559 0 -3.53491)
(0.841743 -1.00907e-19 4.97785)
(0.379495 -2.84097e-18 5.01419)
(-0.423917 2.88101e-18 4.97229)
(-1.05198 3.25334e-19 4.91663)
(-1.6682 0 4.85171)
(-2.26171 6.52276e-19 4.77274)
(-2.843 -1.29745e-18 4.67638)
(-3.41683 0 4.55922)
(-3.98517 -3.51937e-19 4.4174)
(-4.54762 5.24154e-19 4.24802)
(-5.1025 1.38774e-19 4.04907)
(-5.64683 0 3.81845)
(-6.17688 7.86859e-20 3.55437)
(-6.68833 -3.182e-20 3.25546)
(-7.17611 4.42242e-20 2.92065)
(-7.635 -5.8922e-21 2.5496)
(-8.05943 2.80605e-20 2.14279)
(-8.44365 -5.27898e-20 1.70174)
(-8.7817 0 1.22927)
(-9.06743 3.88806e-20 0.730008)
(-9.29623 -3.85142e-20 0.211592)
(-9.46751 5.72282e-20 -0.315421)
(-9.56866 2.03175e-20 -0.840186)
(-9.62252 -1.76832e-20 -1.35647)
(-9.63334 7.80068e-20 -1.85312)
(-9.60935 0 -2.31695)
(-9.56112 4.45874e-20 -2.73337)
(-9.50715 3.11023e-20 -3.08778)
(-9.47168 0 -3.36729)
(-9.46208 6.77117e-21 -3.5477)
(1.00128 0 5.67341)
(0.609728 0 5.6183)
(-0.092018 -8.54525e-20 5.51476)
(-0.602141 -1.61593e-19 5.41878)
(-1.12218 0 5.32858)
(-1.62737 1.38488e-19 5.23268)
(-2.1295 -5.61886e-19 5.1235)
(-2.63145 9.11623e-19 4.99567)
(-3.13455 1.9141e-19 4.84396)
(-3.63821 2.83045e-19 4.66418)
(-4.14051 5.65121e-20 4.45338)
(-4.63822 2.16303e-19 4.20885)
(-5.12769 5.89111e-20 3.92857)
(-5.60502 3.00294e-20 3.611)
(-6.06567 -1.77515e-20 3.25485)
(-6.5051 -2.94994e-20 2.85973)
(-6.91855 -8.35211e-20 2.4261)
(-7.3009 3.81617e-20 1.95552)
(-7.64651 -4.00928e-20 1.45087)
(-7.94889 3.96689e-20 0.916674)
(-8.20287 9.77185e-20 0.360244)
(-8.40872 0 -0.206901)
(-8.5446 2.23714e-20 -0.766329)
(-8.64381 6.76298e-20 -1.30989)
(-8.71024 -8.66014e-21 -1.82835)
(-8.74998 1.54774e-20 -2.30786)
(-8.77068 -5.1742e-20 -2.73344)
(-8.78856 -2.95603e-20 -3.08872)
(-8.82309 -2.14553e-21 -3.35753)
(-8.85907 -6.31464e-21 -3.5206)
(1.1378 2.85935e-18 6.20507)
(0.832928 -2.68456e-18 6.08912)
(0.268872 8.11153e-20 5.94687)
(-0.101182 -1.21335e-18 5.82909)
(-0.511966 2.45708e-18 5.72895)
(-0.918956 -2.11807e-18 5.62826)
(-1.33563 8.74833e-19 5.51589)
(-1.76161 -2.04689e-19 5.3847)
(-2.19647 0 5.22887)
(-2.63852 1.23382e-19 5.04366)
(-3.08532 2.60606e-19 4.82569)
(-3.53356 -1.40798e-19 4.57187)
(-3.97956 1.28501e-19 4.27996)
(-4.41978 -5.10323e-20 3.94847)
(-4.85034 -1.49749e-20 3.57606)
(-5.26729 3.71778e-20 3.16226)
(-5.66645 -5.4873e-20 2.70751)
(-6.04312 1.38724e-19 2.21329)
(-6.3918 4.43704e-20 1.68236)
(-6.70544 1.4704e-19 1.11856)
(-6.9772 -9.86249e-20 0.528382)
(-7.20393 -1.3738e-19 -0.074485)
(-7.37706 2.58296e-20 -0.664722)
(-7.51422 -9.04854e-20 -1.22983)
(-7.63124 9.72687e-20 -1.76462)
(-7.73163 -1.623e-21 -2.25569)
(-7.82004 5.0108e-20 -2.68904)
(-7.9083 4.17533e-20 -3.04724)
(-8.01095 5.24902e-22 -3.30924)
(-8.09278 -1.05336e-20 -3.45694)
(1.26142 -1.38005e-18 6.53435)
(1.06272 1.2551e-18 6.39842)
(0.664351 -8.224e-20 6.24779)
(0.452491 -1.19926e-18 6.1332)
(0.158974 1.0331e-18 6.04267)
(-0.143685 9.99284e-19 5.9516)
(-0.47133 -9.7718e-19 5.84715)
(-0.818952 1.07816e-19 5.72151)
(-1.18414 1.68257e-19 5.56858)
(-1.56353 1.44785e-19 5.38349)
(-1.95351 0 5.16307)
(-2.35047 7.27032e-20 4.90455)
(-2.75079 -5.05044e-20 4.60576)
(-3.15148 2.09333e-20 4.26533)
(-3.54946 0 3.88185)
(-3.94147 -4.90797e-20 3.4548)
(-4.3238 1.03806e-19 2.98437)
(-4.69186 -1.59293e-19 2.47168)
(-5.03965 6.03616e-20 1.9193)
(-5.35872 -4.13765e-20 1.33032)
(-5.6389 -1.48099e-19 0.71114)
(-5.87606 1.40978e-19 0.0788302)
(-6.08501 0 -0.537976)
(-6.25116 0 -1.12008)
(-6.41011 -7.78444e-20 -1.66475)
(-6.56524 -8.19667e-20 -2.16138)
(-6.71957 -1.30491e-19 -2.59943)
(-6.87932 -4.21575e-20 -2.96249)
(-7.05235 -2.94587e-20 -3.22326)
(-7.18425 -1.15934e-20 -3.3584)
(1.38542 1.4002e-18 6.64298)
(1.31187 -1.29579e-18 6.52515)
(1.10521 0 6.40236)
(1.06162 0 6.32288)
(0.890437 0 6.26509)
(0.694371 -1.28375e-19 6.20029)
(0.454186 -5.47299e-19 6.11505)
(0.184332 7.96391e-19 6.00343)
(-0.111286 -2.27184e-19 5.86024)
(-0.427934 -2.9749e-19 5.68089)
(-0.761023 -9.85e-20 5.46252)
(-1.10592 -7.36166e-20 5.20382)
(-1.45874 -3.49419e-20 4.9033)
(-1.81737 4.88278e-21 4.55921)
(-2.1798 9.86415e-21 4.17015)
(-2.54352 -3.27424e-20 3.7356)
(-2.90578 0 3.25517)
(-3.26233 8.51151e-20 2.72903)
(-3.60718 -1.57483e-19 2.15963)
(-3.93074 3.11213e-21 1.54909)
(-4.21923 6.00466e-20 0.904072)
(-4.46647 0 0.245448)
(-4.69477 -1.25525e-19 -0.393609)
(-4.87748 0 -0.988015)
(-5.06637 0 -1.53486)
(-5.26583 9.07356e-20 -2.02826)
(-5.48019 -1.6903e-20 -2.46437)
(-5.71122 5.31308e-20 -2.83191)
(-5.95912 -1.56818e-21 -3.09804)
(-6.15068 -1.89381e-21 -3.2251)
(1.52453 -2.20092e-20 6.51835)
(1.59508 -1.33365e-18 6.45167)
(1.61014 1.31413e-19 6.40494)
(1.71921 1.91604e-18 6.39455)
(1.67173 -5.78369e-19 6.39122)
(1.57642 1.27218e-19 6.3684)
(1.42608 4.21859e-19 6.31626)
(1.23414 -2.18467e-19 6.22878)
(1.00886 2.12822e-19 6.10333)
(0.756445 -2.86812e-19 5.93715)
(0.482493 9.94238e-20 5.72822)
(0.188348 -1.29335e-20 5.47245)
(-0.118788 -1.20634e-20 5.17094)
(-0.433653 -4.94488e-21 4.82616)
(-0.756704 2.37095e-20 4.43548)
(-1.08663 -3.29338e-20 3.99793)
(-1.42216 3.24413e-20 3.51281)
(-1.75972 -1.00243e-19 2.97994)
(-2.09496 6.04741e-20 2.39872)
(-2.42031 3.67332e-20 1.76901)
(-2.71894 -1.37089e-21 1.09869)
(-2.97709 6.6867e-20 0.414916)
(-3.2236 7.85905e-20 -0.243506)
(-3.41571 1.54923e-20 -0.845993)
(-3.62496 0 -1.38498)
(-3.85612 -9.09117e-20 -1.86365)
(-4.11831 -2.96722e-21 -2.2866)
(-4.41372 -5.02351e-20 -2.65286)
(-4.73852 3.14546e-20 -2.92931)
(-5.00651 2.38895e-20 -3.05539)
(1.72012 0 6.12209)
(1.94548 4.37294e-20 6.15554)
(2.19147 -8.13488e-20 6.26453)
(2.42807 -7.56593e-20 6.354)
(2.49474 0 6.42283)
(2.48996 1.2425e-19 6.45569)
(2.42242 5.18039e-19 6.44681)
(2.30472 -4.93955e-19 6.39181)
(2.14732 2.18004e-19 6.29001)
(1.95821 -2.44252e-19 6.14125)
(1.74378 7.47072e-20 5.94546)
(1.50792 -2.75061e-20 5.70155)
(1.25385 4.21205e-20 5.40832)
(0.986829 -2.30511e-20 5.06826)
(0.70858 1.7729e-20 4.68153)
(0.420615 0 4.24813)
(0.123092 0 3.76599)
(-0.186506 1.01571e-19 3.22634)
(-0.499257 0 2.63864)
(-0.811575 -1.30886e-19 2.00093)
(-1.10434 -3.55566e-20 1.31406)
(-1.36999 3.52598e-20 0.591341)
(-1.67013 0 -0.105301)
(-1.87423 0 -0.701757)
(-2.10611 0 -1.22271)
(-2.36419 1.8715e-19 -1.67812)
(-2.65991 7.31955e-20 -2.07539)
(-3.00291 5.45806e-20 -2.42673)
(-3.39519 -1.80181e-22 -2.7107)
(-3.76352 1.82504e-22 -2.84513)
(9.98629 -3.12991e-19 0.121395)
(9.97573 3.66062e-19 0.235558)
(9.956 -4.46324e-20 0.350005)
(9.92241 -2.77372e-19 0.468032)
(9.87865 0 0.591246)
(9.82702 -1.97652e-19 0.720912)
(9.76799 2.04192e-19 0.858265)
(9.70123 0 1.00468)
(9.62695 0 1.16155)
(9.54549 -2.24051e-19 1.3301)
(9.4568 -6.9011e-19 1.51152)
(9.36126 7.07586e-19 1.70722)
(9.25935 0 1.91879)
(9.15113 7.48082e-19 2.1479)
(9.0366 -1.27464e-18 2.39646)
(8.91612 0 2.66659)
(8.79025 -2.64604e-19 2.96065)
(8.65909 0 3.28135)
(8.52279 -2.73426e-19 3.63185)
(8.38187 -1.39217e-18 4.01591)
(8.23705 1.97547e-18 4.43822)
(8.0891 1.13897e-18 4.90462)
(7.93902 -1.13707e-18 5.42241)
(7.7886 1.15016e-18 6.00138)
(7.64116 1.12988e-18 6.65543)
(7.50303 -1.14674e-18 7.4054)
(7.39385 0 8.28416)
(7.35334 5.12606e-19 9.35046)
(7.88627 -5.2455e-19 10.6653)
(8.40267 0 13.1932)
(9.98664 3.23386e-19 0.12615)
(9.97758 -3.3368e-19 0.244956)
(9.96027 0 0.364065)
(9.92987 8.96493e-20 0.486813)
(9.89019 -2.77959e-19 0.61492)
(9.8437 1.91116e-19 0.749686)
(9.7906 -1.97832e-19 0.892317)
(9.73057 2.0339e-19 1.04419)
(9.66424 2.09287e-19 1.2067)
(9.59187 -4.32859e-19 1.38108)
(9.51344 1.11153e-18 1.56857)
(9.42951 -4.57249e-19 1.77053)
(9.34059 -2.33114e-19 1.98853)
(9.24677 2.38682e-19 2.22428)
(9.14843 7.37928e-19 2.47965)
(9.04637 -1.00015e-18 2.75665)
(8.94125 1.27745e-18 3.05759)
(8.83367 -1.03715e-18 3.3851)
(8.72451 2.65074e-19 3.74215)
(8.61503 2.68459e-19 4.13218)
(8.50692 2.71195e-19 4.55941)
(8.4026 1.07696e-18 5.02903)
(8.30555 -2.1679e-18 5.54736)
(8.22137 1.09152e-18 6.1224)
(8.15964 1.06377e-18 6.76454)
(8.1377 -1.08008e-18 7.48687)
(8.19253 2.55838e-19 8.30363)
(8.34172 0 9.22668)
(8.85942 1.76341e-19 10.1865)
(9.34645 5.45869e-20 11.0926)
(9.98688 -3.15387e-19 0.130512)
(9.9794 2.84769e-19 0.253611)
(9.96484 1.26111e-19 0.377066)
(9.93777 -8.68819e-20 0.504184)
(9.90221 1.79933e-19 0.636737)
(9.86101 -9.01871e-22 0.776135)
(9.8141 5.73855e-19 0.923583)
(9.76122 -1.97015e-19 1.08035)
(9.70317 -1.20054e-21 1.2478)
(9.64017 -6.2655e-19 1.42724)
(9.57241 4.28526e-19 1.6199)
(9.50058 -4.40289e-19 1.8271)
(9.42512 2.26528e-19 2.05037)
(9.34637 -2.31857e-19 2.29138)
(9.26504 2.36941e-19 2.55184)
(9.18215 0 2.83364)
(9.09859 2.43129e-19 3.13893)
(9.0155 -2.46762e-19 3.47013)
(8.93436 2.49853e-19 3.82983)
(8.8571 0 4.22092)
(8.78626 0 4.64683)
(8.72543 -2.55171e-19 5.11151)
(8.67968 7.69318e-19 5.61938)
(8.65639 -1.03884e-18 6.17522)
(8.66656 0 6.78362)
(8.7257 4.95726e-19 7.44689)
(8.85944 -5.01727e-19 8.1588)
(9.05232 -3.4941e-19 8.89541)
(9.39703 -3.27335e-19 9.60482)
(9.84593 4.37112e-19 10.2112)
(9.98717 0 0.134456)
(9.9812 -3.5428e-19 0.261417)
(9.96946 -2.84972e-19 0.388823)
(9.94597 0 0.519949)
(9.91469 0 0.656492)
(9.8788 -3.60773e-19 0.799953)
(9.8383 1.8403e-19 0.951599)
(9.793 -5.72966e-19 1.11259)