/*--------------------------------*- C++ -*----------------------------------*\
| =========                 |                                                 |
| \\      /  F ield         | OpenFOAM: The Open Source CFD Toolbox           |
|  \\    /   O peration     | Version:  dev                                   |
|   \\  /    A nd           | Web:      www.OpenFOAM.org                      |
|    \\/     M anipulation  |                                                 |
\*---------------------------------------------------------------------------*/
FoamFile
{
    version     2.0;
    format      ascii;
    class       surfaceVectorField;
    location    "1.45";
    object      Uf;
}
// * * * * * * * * * * * * * * * * * * * * * * * * * * * * * * * * * * * * * //

dimensions      [0 1 -1 0 0 0 0];

internalField   nonuniform List<vector> 
879
(
(9.99545 -4.58609e-22 0.0877974)
(9.9991 5.78714e-21 0.060833)
(9.99284 -1.74302e-20 0.116426)
(9.99602 -1.17806e-20 0.0905012)
(9.99937 -1.74233e-19 0.0625881)
(9.98886 -2.48158e-20 0.146522)
(9.99389 -6.18443e-21 0.119762)
(9.98592 -1.98722e-19 0.175968)
(9.99663 -1.67251e-19 0.0928987)
(9.99963 -1.4012e-20 0.0641192)
(9.99058 -1.86337e-19 0.150383)
(9.995 5.65056e-21 0.122667)
(9.98215 -2.08717e-19 0.208169)
(9.98841 -1.90027e-19 0.180219)
(9.9795 -2.47812e-20 0.239503)
(9.99724 1.63341e-19 0.0949474)
(9.99988 4.8535e-19 0.0654091)
(9.9924 0 0.153693)
(9.99617 1.64841e-19 0.125076)
(9.98555 0 0.212737)
(9.99108 2.16364e-20 0.183805)
(9.97697 2.51737e-19 0.274184)
(9.98397 -1.79679e-19 0.244233)
(9.97591 2.26599e-19 0.30764)
(9.9979 4.84556e-19 0.0965958)
(10.0002 3.22512e-19 0.0664239)
(9.99438 1.85683e-19 0.156364)
(9.99739 8.46874e-21 0.126911)
(9.98933 -1.64279e-19 0.216458)
(9.99382 1.27421e-21 0.186588)
(9.98296 -2.02656e-19 0.278843)
(9.98879 -1.17661e-19 0.247928)
(9.97585 1.26758e-19 0.34453)
(9.98323 -2.49817e-19 0.312032)
(9.97747 -2.26839e-19 0.37981)
(9.99863 -1.67719e-19 0.0978008)
(10.0007 -6.01803e-19 0.0671145)
(9.99637 -1.80673e-19 0.158314)
(9.99858 1.48628e-19 0.128182)
(9.99317 4.80991e-20 0.219194)
(9.99637 -2.14529e-20 0.1885)
(9.98916 -1.67e-19 0.282261)
(9.99351 2.79393e-19 0.25047)
(9.98473 -6.12529e-19 0.34849)
(9.9905 -2.30207e-19 0.315058)
(9.98021 -3.74387e-19 0.418703)
(9.98755 -2.49228e-19 0.383207)
(9.9847 -4.68919e-20 0.455648)
(9.99931 -2.72129e-19 0.09857)
(10.001 -3.25802e-19 0.0674948)
(9.99815 3.10378e-19 0.159559)
(9.99968 2.08152e-20 0.128929)
(9.99666 2.18094e-19 0.220912)
(9.99874 0 0.189569)
(9.99495 2.11117e-19 0.284385)
(9.99795 9.52835e-20 0.251829)
(9.99323 1.42503e-19 0.350902)
(9.99745 1.2872e-19 0.31663)
(9.99184 8.7822e-20 0.421281)
(9.99737 1.4036e-19 0.384854)
(9.99114 4.98069e-21 0.496117)
(9.99793 -9.32744e-20 0.457205)
(9.99157 -1.54002e-19 0.57592)
(9.9996 3.78284e-19 0.534121)
(10.0029 -1.06974e-19 0.616147)
(9.99991 -2.31049e-20 0.0989213)
(10.0014 1.42991e-20 0.0675912)
(9.99987 -2.97622e-19 0.160107)
(10.0008 -1.51827e-20 0.129112)
(10.0001 -1.25275e-19 0.221607)
(10.0011 0 0.189759)
(10.0006 1.08599e-20 0.285171)
(10.0023 -8.38717e-20 0.251983)
(10.0015 1.26561e-19 0.351667)
(10.0043 1.30569e-19 0.316678)
(10.0033 -4.65084e-20 0.421855)
(10.0071 -8.41356e-20 0.384633)
(10.0063 2.91325e-19 0.496289)
(10.011 -2.19205e-19 0.456514)
(10.0109 4.25674e-19 0.575437)
(10.0166 4.69624e-19 0.532722)
(10.0175 -1.06612e-19 0.659881)
(10.024 7.46384e-21 0.613768)
(10.034 -2.97228e-19 0.70027)
(10.0006 2.22121e-20 0.0988306)
(10.0017 -2.8675e-19 0.0673568)
(10.0017 2.90202e-19 0.159926)
(10.0021 -2.59231e-19 0.128696)
(10.0034 4.18088e-20 0.221235)
(10.0036 0 0.189069)
(10.0061 4.02288e-20 0.284542)
(10.0066 1.93552e-19 0.250879)
(10.0098 -8.6744e-20 0.350685)
(10.0111 1.19499e-23 0.315113)
(10.0147 -2.62008e-19 0.420333)
(10.0167 -4.58827e-20 0.382487)
(10.0212 -3.43319e-20 0.49399)
(10.0238 -1.75926e-19 0.45356)
(10.0297 3.93988e-20 0.572095)
(10.033 8.91582e-21 0.528701)
(10.0406 -1.88626e-19 0.655181)
(10.0444 -6.2022e-21 0.608381)
(10.0544 4.85599e-21 0.743728)
(10.0586 -9.66912e-20 0.693149)
(10.0718 1.99925e-19 0.838046)
(10.0765 9.91668e-20 0.78335)
(10.0982 2.92633e-19 0.879213)
(10.0014 -5.75175e-19 0.0982292)
(10.002 5.23187e-19 0.0667011)
(10.0037 -5.54584e-19 0.158979)
(10.0033 -3.28053e-20 0.127622)
(10.007 1.57031e-19 0.219798)
(10.0062 1.75913e-20 0.187506)
(10.0117 1.51105e-19 0.282484)
(10.0109 1.37716e-19 0.248563)
(10.0179 4.17742e-20 0.347929)
(10.0176 1.50552e-19 0.311971)
(10.0257 4.20125e-20 0.416711)
(10.0258 -1.13809e-19 0.378434)
(10.0356 -1.31102e-19 0.489251)
(10.036 1.23104e-19 0.448344)
(10.0477 -3.79732e-20 0.565957)
(10.0486 -9.10843e-20 0.522059)
(10.0626 8.82741e-20 0.647302)
(10.0637 1.74657e-19 0.600029)
(10.0808 0 0.733698)
(10.082 3.57673e-22 0.682679)
(10.1028 1.94127e-19 0.825398)
(10.1041 2.63923e-19 0.770294)
(10.1294 2.86964e-19 0.922596)
(10.1304 1.94505e-19 0.863063)
(10.1612 1.95444e-19 1.02553)
(10.1615 1.88274e-19 0.961157)
(10.1983 8.13856e-21 1.06478)
(10.0021 1.07551e-18 0.0970901)
(10.0022 3.00332e-20 0.0656783)
(10.0055 5.54367e-19 0.157241)
(10.0042 5.60489e-19 0.125897)
(10.0104 -1.39462e-21 0.217308)
(10.0086 9.55371e-21 0.185006)
(10.017 1.37224e-19 0.279057)
(10.0151 1.21628e-19 0.24504)
(10.0255 -1.0363e-20 0.343456)
(10.0237 1.89654e-19 0.307305)
(10.0361 -2.97665e-20 0.411014)
(10.0344 -4.61069e-20 0.372496)
(10.049 1.63695e-19 0.482075)
(10.0475 -6.78159e-20 0.440868)
(10.0647 1.27622e-19 0.557038)
(10.0633 -7.57218e-20 0.51281)
(10.0833 8.4166e-20 0.636295)
(10.0819 8.43681e-20 0.588751)
(10.1055 2.71444e-19 0.720139)
(10.1039 3.67799e-22 0.66893)
(10.1318 2.64423e-19 0.808779)
(10.1299 -6.67973e-20 0.753559)
(10.1628 9.2973e-20 0.902386)
(10.1602 0 0.842846)
(10.1991 -3.64353e-21 1.00114)
(10.1955 3.52512e-19 0.936923)
(10.2412 -4.69675e-19 1.10518)
(10.2365 -1.83279e-19 1.03596)
(10.2836 -2.00662e-19 1.14003)
(10.0025 -4.94507e-19 0.095476)
(10.0022 -2.71792e-19 0.0644019)
(10.007 -2.68733e-21 0.1547)
(10.005 -3.69774e-21 0.123534)
(10.0135 1.36541e-19 0.213713)
(10.0109 -5.08613e-22 0.181486)
(10.022 1.75858e-19 0.274239)
(10.019 7.43257e-21 0.240243)
(10.0327 1.51963e-19 0.337271)
(10.0295 6.98814e-20 0.301097)
(10.0459 -8.53026e-20 0.403259)
(10.0425 8.02794e-20 0.36469)
(10.0617 -3.13939e-19 0.472493)
(10.0583 -1.10645e-20 0.431215)
(10.0805 -1.19974e-19 0.545366)
(10.0769 -1.58066e-19 0.501037)
(10.1027 -1.82697e-21 0.622195)
(10.0987 -1.58899e-19 0.574562)
(10.1285 -3.47596e-19 0.703155)
(10.1242 -1.5832e-19 0.651965)
(10.1585 -3.3893e-19 0.788395)
(10.1537 -1.84881e-19 0.733356)
(10.1933 2.66078e-19 0.878086)
(10.1876 -8.14932e-20 0.818851)
(10.2334 1.69874e-19 0.97239)
(10.2264 1.57996e-20 0.908605)
(10.2793 9.3976e-20 1.07137)
(10.2708 7.57541e-20 1.00282)
(10.3316 2.72133e-19 1.17482)
(10.3213 1.83478e-19 1.10137)
(10.391 -9.0112e-20 1.28227)
(10.3784 1.77397e-19 1.20373)
(10.4426 -9.7372e-20 1.3095)
(10.0029 2.33033e-19 0.0933929)
(10.0022 2.47138e-19 0.0628389)
(10.0086 -1.34271e-21 0.151314)
(10.0059 -2.51609e-19 0.120451)
(10.0165 -1.32902e-19 0.208975)
(10.0132 8.4157e-21 0.176956)
(10.0268 -1.00962e-19 0.268025)
(10.0228 -1.40186e-19 0.234247)
(10.0395 -3.64772e-21 0.329392)
(10.0349 -1.0137e-19 0.293407)
(10.055 1.56259e-19 0.393496)
(10.0501 -3.72177e-20 0.355058)
(10.0735 1.48761e-19 0.460587)
(10.0684 2.2761e-19 0.419437)
(10.0952 -1.98083e-19 0.53101)
(10.0896 7.31425e-20 0.486814)
(10.1205 -3.1978e-19 0.605071)
(10.1141 -1.61401e-19 0.557557)
(10.1496 9.10635e-21 0.682888)
(10.1427 -1.61005e-19 0.631904)
(10.183 7.97095e-20 0.764499)
(10.1754 2.45133e-19 0.709839)
(10.221 -3.39336e-19 0.850008)
(10.2124 -4.3776e-21 0.791312)
(10.2644 -8.11339e-20 0.939593)
(10.2542 -3.37657e-19 0.876515)
(10.3134 1.67331e-19 1.03328)
(10.3014 1.70165e-19 0.965635)
(10.3687 8.59594e-20 1.1307)
(10.3548 8.11756e-20 1.05843)
(10.4306 1.71848e-19 1.23136)
(10.4145 8.64044e-20 1.15438)
(10.4996 -8.47835e-20 1.33502)
(10.4805 1.67819e-19 1.2531)
(10.576 -8.36146e-20 1.44144)
(10.5534 -9.08116e-20 1.35449)
(10.6336 8.47504e-20 1.45809)
(10.0035 -2.52583e-19 0.0907807)
(10.0023 2.27195e-19 0.0609345)
(10.0102 -2.39506e-19 0.147054)
(10.0067 -2.51192e-19 0.116648)
(10.0195 0 0.203148)
(10.0152 0 0.171473)
(10.0313 -1.40383e-19 0.2605)
(10.0263 1.1034e-19 0.227108)
(10.0459 -1.35555e-19 0.319885)
(10.04 -1.23382e-19 0.284259)
(10.0636 3.68128e-20 0.381781)
(10.0572 0 0.343613)
(10.0845 1.49736e-19 0.446436)
(10.0778 7.11035e-20 0.405577)
(10.1087 1.10664e-19 0.514107)
(10.1013 2.18852e-19 0.470286)
(10.1367 1.84906e-21 0.585082)
(10.1282 3.58868e-20 0.537978)
(10.1687 8.12899e-20 0.659483)
(10.1594 1.85677e-19 0.60892)
(10.2051 1.59294e-19 0.737253)
(10.1949 4.80444e-21 0.683098)
(10.246 -1.5548e-21 0.818393)
(10.2347 8.18118e-20 0.76042)
(10.292 -8.08918e-20 0.903035)
(10.2789 -8.15004e-20 0.840937)
(10.3436 8.1841e-20 0.991189)
(10.3285 -1.56197e-19 0.924705)
(10.4012 8.1567e-20 1.0825)
(10.3841 6.94763e-21 1.01161)
(10.4649 8.19758e-20 1.1765)
(10.4457 7.79755e-20 1.10124)
(10.535 1.63581e-19 1.27286)
(10.5129 8.24082e-20 1.19312)
(10.6119 8.15e-20 1.37128)
(10.5863 8.34432e-20 1.28694)
(10.6959 -2.00112e-19 1.47109)
(10.6664 0 1.38222)
(10.7871 -4.74839e-19 1.57124)
(10.7536 -4.86284e-20 1.47814)
(10.8472 -2.75486e-19 1.57382)
(10.0039 2.25858e-19 0.0876725)
(10.0025 1.47907e-20 0.0587091)
(10.0114 -3.66061e-21 0.142003)
(10.0073 -3.78188e-21 0.112288)
(10.022 1.139e-19 0.196273)
(10.0167 2.35785e-19 0.165096)
(10.0353 1.26661e-19 0.251649)
(10.0293 -9.6226e-21 0.218727)
(10.0518 1.62849e-20 0.308741)
(10.0447 1.67835e-20 0.273604)
(10.0715 3.5418e-20 0.368139)
(10.0636 -1.2889e-19 0.330414)
(10.0946 1.42487e-19 0.430137)
(10.0861 6.84263e-20 0.389725)
(10.1211 1.41863e-19 0.49484)
(10.1119 -9.63463e-20 0.45157)
(10.1513 2.24918e-19 0.56244)
(10.141 7.1611e-20 0.515973)
(10.1858 1.07224e-19 0.6331)
(10.1743 2.94091e-19 0.583183)
(10.2247 -7.49133e-20 0.706799)
(10.2122 -1.83228e-19 0.653332)
(10.2681 0 0.783452)
(10.2543 -1.43937e-19 0.72636)
(10.3163 -1.58882e-19 0.863026)
(10.3007 -1.45338e-19 0.802093)
(10.3699 -2.34051e-19 0.945503)
(10.3522 -1.59401e-19 0.880426)
(10.4291 2.86179e-21 1.03069)
(10.4093 -7.89468e-20 0.961385)
(10.4941 7.83555e-20 1.11814)
(10.472 4.35203e-20 1.04473)
(10.5648 0 1.20738)
(10.5401 3.74064e-20 1.12989)
(10.6418 0 1.29798)
(10.6137 1.46957e-19 1.21629)
(10.7251 1.56594e-19 1.38936)
(10.6933 0 1.30352)
(10.8146 1.58123e-19 1.48079)
(10.779 1.59593e-19 1.39111)
(10.0043 -2.20618e-19 0.084157)
(10.0026 -2.27329e-19 0.0562281)
(10.0124 2.43547e-19 0.136245)
(10.008 0 0.107406)
(10.0241 1.07595e-19 0.188322)
(10.018 1.20829e-20 0.157798)
(10.039 -1.22248e-19 0.241428)
(10.032 -1.06048e-21 0.209102)
(10.057 -1.32828e-19 0.296012)
(10.049 -7.60839e-21 0.261563)
(10.0784 -9.44683e-20 0.352673)
(10.0692 -1.31253e-19 0.315633)
(10.1035 -1.77172e-19 0.411759)
(10.0934 -1.2509e-19 0.37194)
(10.1321 -1.68451e-19 0.473279)
(10.1212 -2.09771e-19 0.430625)
(10.1645 1.42714e-19 0.537288)
(10.1524 6.90801e-20 0.491599)
(10.201 -4.17509e-21 0.603954)
(10.1877 -2.81009e-20 0.554938)
(10.2419 -2.54344e-19 0.673357)
(10.2273 2.87746e-20 0.620835)
(10.2874 -2.93529e-19 0.745386)
(10.2712 1.29931e-19 0.68933)
(10.3375 -1.45773e-19 0.81985)
(10.3195 -1.47893e-19 0.760168)
(10.3925 0 0.896662)
(10.3725 0 0.833139)
(10.4528 -3.77454e-20 0.975719)
(10.4306 3.52476e-20 0.908232)
(10.5184 1.33921e-21 1.05665)
(10.4941 -7.37808e-20 0.985254)
(10.5896 1.8826e-19 1.1389)
(10.5625 3.85213e-20 1.06367)
(10.6662 1.47616e-19 1.22195)
(10.636 -9.4054e-21 1.14292)
(10.7482 2.31041e-21 1.30537)
(10.7146 1.7893e-20 1.22264)
(10.7984 -1.37708e-19 1.30245)
(10.0046 0 0.0802369)
(10.0027 0 0.0534549)
(10.0134 -2.37231e-19 0.129773)
(10.0088 -2.13122e-19 0.101957)
(10.0261 -9.94096e-20 0.179324)
(10.0193 -2.32203e-19 0.149669)
(10.0422 1.16583e-19 0.229934)
(10.0343 -1.10627e-19 0.198378)
(10.0616 -6.4204e-21 0.281846)
(10.0527 -1.31955e-19 0.248218)
(10.0845 -1.62731e-19 0.335505)
(10.0743 1.37142e-19 0.299335)
(10.1113 -1.58682e-19 0.391338)
(10.0998 -3.97479e-20 0.352317)
(10.1418 3.45134e-20 0.449438)
(10.1293 -3.11216e-20 0.407531)
(10.1761 -1.06618e-19 0.509752)
(10.1623 -6.10014e-20 0.464937)
(10.2143 5.76944e-21 0.572316)
(10.1994 -1.40041e-19 0.524377)
(10.2568 4.24107e-19 0.637229)
(10.2404 1.08334e-20 0.585908)
(10.3038 2.80481e-19 0.704435)
(10.2856 1.85065e-19 0.64964)
(10.3554 1.74281e-21 0.773729)
(10.3353 1.03511e-19 0.71541)
(10.4116 3.61822e-20 0.844961)
(10.3895 1.68737e-19 0.783031)
(10.4726 -1.43266e-21 0.917964)
(10.4484 1.92297e-21 0.852373)
(10.5385 -3.60253e-20 0.992392)
(10.5123 -1.99862e-20 0.923103)
(10.6096 -1.6503e-19 1.06778)
(10.5807 -1.62058e-19 0.994855)
(10.6854 -1.43135e-19 1.14369)
(10.6535 -1.59099e-19 1.06732)
(10.7659 -1.25679e-19 1.21972)
(10.7308 2.05725e-20 1.14007)
(10.8125 -7.32576e-21 1.21257)
(10.0052 -2.19514e-19 0.0758656)
(10.0029 0 0.050293)
(10.0145 -2.08095e-19 0.122649)
(10.0095 -1.01051e-20 0.0959983)
(10.0278 -2.43015e-19 0.169433)
(10.0205 3.12348e-21 0.140897)
(10.045 -3.65802e-19 0.217258)
(10.0361 -1.37873e-19 0.186628)
(10.0657 1.63629e-20 0.266273)
(10.0559 -1.01137e-20 0.233504)
(10.09 2.6308e-19 0.31673)
(10.0789 1.39666e-19 0.281566)
(10.118 9.13109e-20 0.369049)
(10.1056 1.27158e-19 0.331117)
(10.1501 -1.29411e-19 0.42347)
(10.1362 -1.71151e-20 0.382578)
(10.186 -9.53348e-20 0.479944)
(10.1706 -1.12315e-19 0.436106)
(10.2258 -1.35004e-19 0.538348)
(10.2092 0 0.491516)
(10.2696 -2.35462e-19 0.598672)
(10.2515 1.18914e-19 0.548677)
(10.3177 3.21206e-21 0.660902)
(10.2979 3.96345e-20 0.607571)
(10.3703 2.75301e-19 0.724926)
(10.3485 2.17402e-19 0.668143)
(10.4273 1.33899e-19 0.790588)
(10.4034 -1.03702e-19 0.730341)
(10.4888 -1.70456e-20 0.857616)
(10.4629 1.11719e-19 0.793932)
(10.5548 -1.49277e-19 0.925663)
(10.5271 1.74736e-20 0.858535)
(10.6253 -1.55899e-19 0.994457)
(10.5948 -3.4157e-20 0.923949)
(10.6999 8.75345e-21 1.06367)
(10.6665 6.71262e-21 0.98999)
(10.7785 1.42655e-19 1.13281)
(10.7422 -9.63361e-20 1.05614)
(10.8217 1.0759e-19 1.12177)
(10.0055 2.14521e-19 0.0710796)
(10.0029 1.93489e-19 0.0468682)
(10.0153 2.0652e-19 0.114946)
(10.0099 2.14328e-19 0.0895568)
(10.0293 1.10211e-19 0.158719)
(10.0215 1.02973e-19 0.131431)
(10.0474 2.27718e-19 0.203413)
(10.0378 1.1152e-19 0.173904)
(10.0693 1.1693e-19 0.249284)
(10.0585 1.18734e-19 0.217496)
(10.0948 0 0.296448)
(10.0827 -1.11652e-19 0.262338)
(10.124 1.55277e-20 0.345133)
(10.1107 0 0.308414)
(10.1571 3.89044e-22 0.395631)
(10.1422 1.55073e-20 0.355986)
(10.1942 -1.42774e-20 0.448016)
(10.1776 1.04684e-19 0.405374)
(10.2353 2.61193e-19 0.50213)
(10.2173 -1.20097e-19 0.456532)
(10.2802 4.02084e-19 0.557825)
(10.2607 1.68392e-20 0.50922)
(10.3292 2.59757e-19 0.615025)
(10.3081 -9.93643e-20 0.563251)
(10.3825 -1.72112e-19 0.673697)
(10.3594 -1.71849e-20 0.618594)
(10.4401 -1.27012e-19 0.733753)
(10.4146 -1.51392e-19 0.675281)
(10.5018 1.4747e-19 0.794924)
(10.4745 2.3905e-20 0.733167)
(10.5674 1.36386e-19 0.856901)
(10.5383 -1.25786e-19 0.792002)
(10.6368 1.33179e-19 0.919472)
(10.6051 1.36732e-19 0.851533)
(10.7099 -1.01193e-19 0.982317)
(10.6753 0 0.91141)
(10.7865 -1.32872e-19 1.04488)
(10.7492 2.65825e-20 0.971151)
(10.8264 -3.41818e-20 1.03022)
(10.0057 1.93371e-19 0.0659397)
(10.0029 9.8705e-21 0.0432222)
(10.016 1.07457e-19 0.106669)
(10.0103 1.93205e-19 0.0826331)
(10.0305 1.04356e-19 0.147205)
(10.0225 5.38513e-21 0.121308)
(10.0492 -3.17795e-22 0.188506)
(10.0394 1.49188e-21 0.160364)
(10.0721 -1.16724e-19 0.230963)
(10.0606 1.02832e-19 0.200368)
(10.0988 -1.11388e-19 0.274662)
(10.0857 -8.49921e-21 0.241647)
(10.1291 0 0.319633)
(10.1149 -1.10117e-19 0.284119)
(10.1632 1.22838e-19 0.366089)
(10.1473 1.15744e-19 0.327801)
(10.2012 -4.16592e-21 0.414199)
(10.1835 1.22764e-19 0.372952)
(10.2431 -3.71623e-19 0.46385)
(10.2241 -6.73157e-21 0.419669)
(10.2889 -4.9904e-19 0.514815)
(10.2683 -1.33289e-19 0.467692)
(10.3387 -3.84581e-19 0.566964)
(10.3165 -1.34869e-19 0.516798)
(10.3924 4.53207e-21 0.620272)
(10.3681 -1.37102e-19 0.566976)
(10.4501 3.44835e-21 0.674732)
(10.4234 1.77352e-20 0.618213)
(10.5115 -2.57112e-19 0.730246)
(10.4829 -1.38929e-19 0.670556)
(10.5763 -1.26063e-19 0.786571)
(10.5458 1.23019e-19 0.723956)
(10.6444 0 0.843321)
(10.6114 0 0.777943)
(10.7157 1.31586e-19 0.900029)
(10.6801 0 0.8319)
(10.7902 1.28298e-19 0.956223)
(10.7521 1.93134e-19 0.885416)
(10.827 4.1022e-22 0.938158)
(10.006 1.05921e-20 0.0604179)
(10.0028 -3.75924e-19 0.0392744)
(10.0168 8.74155e-20 0.0978175)
(10.0106 7.852e-21 0.0752162)
(10.0318 -1.00133e-19 0.134982)
(10.0234 -1.06248e-19 0.110549)
(10.0511 1.07777e-19 0.172705)
(10.041 1.02653e-19 0.146058)
(10.0746 2.13624e-19 0.21146)
(10.0626 1.06671e-19 0.182285)
(10.1021 -7.45937e-21 0.251437)
(10.0883 1.09458e-19 0.219722)
(10.1333 9.17327e-21 0.292577)
(10.1184 -6.3633e-21 0.258379)
(10.1682 1.15649e-19 0.334924)
(10.1516 -9.94144e-20 0.298072)
(10.207 1.20168e-19 0.378635)
(10.1885 1.10982e-19 0.338875)
(10.2497 2.38572e-19 0.423666)
(10.2298 8.45799e-21 0.380989)
(10.2961 2.41508e-19 0.469784)
(10.2749 2.3488e-19 0.424238)
(10.3464 1.19844e-19 0.51688)
(10.3235 2.37506e-19 0.468409)
(10.4001 -1.23851e-19 0.564974)
(10.375 7.19189e-21 0.51359)
(10.4573 -1.28475e-19 0.614078)
(10.4298 -1.41675e-20 0.559775)
(10.5177 2.52007e-19 0.66419)
(10.4881 -7.77499e-21 0.606914)
(10.5813 2.53015e-19 0.715085)
(10.5496 1.41354e-19 0.654925)
(10.6479 0 0.766204)
(10.6138 -5.90652e-20 0.703332)
(10.7175 6.3019e-20 0.816968)
(10.681 -1.18163e-19 0.751493)
(10.7899 6.18245e-20 0.867011)
(10.7511 6.34476e-20 0.799027)
(10.8239 -5.94225e-20 0.845713)
(10.006 -3.77063e-19 0.0545548)
(10.0027 -9.75603e-20 0.0351867)
(10.0172 -1.91319e-19 0.0883884)
(10.0106 -1.94013e-19 0.0673853)
(10.0329 1.02791e-19 0.121993)
(10.024 -3.10895e-21 0.0990175)
(10.0529 1.01517e-19 0.156011)
(10.0424 1.12909e-20 0.130838)
(10.0769 -2.87496e-22 0.190912)
(10.0645 -1.00125e-19 0.16327)
(10.105 1.1036e-19 0.226973)
(10.0907 -1.03653e-19 0.19673)
(10.1369 -1.1815e-19 0.264111)
(10.1213 1.12941e-19 0.231367)
(10.1725 -1.04016e-19 0.302178)
(10.1554 -1.19063e-19 0.266876)
(10.212 -3.96003e-21 0.34129)
(10.1929 -1.02721e-19 0.303098)
(10.2555 4.62033e-21 0.381578)
(10.2346 -1.14097e-19 0.3404)
(10.3024 2.30759e-19 0.422914)
(10.2803 6.36608e-21 0.378979)
(10.3525 1.21858e-19 0.465184)
(10.3287 -9.70308e-20 0.418628)
(10.4056 1.20256e-19 0.508411)
(10.3794 3.69659e-22 0.459209)
(10.4616 1.10124e-19 0.552557)
(10.4332 1.13204e-19 0.500643)
(10.5206 -1.22044e-19 0.597482)
(10.4902 -5.65334e-20 0.542736)
(10.5826 -1.79596e-19 0.64289)
(10.5501 -1.22204e-19 0.58527)
(10.6477 -1.80607e-19 0.688276)
(10.6129 -3.26614e-21 0.627924)
(10.7156 -1.1801e-19 0.733169)
(10.6786 -6.35644e-20 0.67027)
(10.786 -6.1279e-20 0.777289)
(10.7469 1.39776e-21 0.711983)
(10.8176 -3.2917e-21 0.752872)
(10.0061 8.95818e-20 0.0484288)
(10.0026 2.68284e-19 0.0309779)
(10.0175 0 0.0783922)
(10.0107 -2.78033e-21 0.0591518)
(10.0337 -9.68914e-20 0.108185)
(10.0246 8.54951e-20 0.0867814)
(10.0543 -1.96052e-19 0.138398)
(10.0435 2.92729e-21 0.114753)
(10.0789 -2.06274e-19 0.169364)
(10.0662 -1.02036e-19 0.143311)
(10.1075 -1.00528e-19 0.201344)
(10.0928 -2.49246e-21 0.172666)
(10.14 1.11725e-19 0.234278)
(10.1239 -2.96075e-21 0.203052)
(10.1763 -1.17805e-19 0.267889)
(10.159 2.09643e-19 0.234203)
(10.2163 -2.15941e-19 0.302257)
(10.197 -1.19549e-19 0.265839)
(10.2599 -1.12376e-19 0.337799)
(10.2382 1.12146e-19 0.298449)
(10.3067 -3.30966e-19 0.374654)
(10.2831 -1.792e-19 0.33262)
(10.356 -2.22153e-19 0.412584)
(10.3307 -5.35622e-20 0.368162)
(10.4079 -7.03946e-21 0.4513)
(10.3804 -2.06475e-20 0.404435)
(10.4626 -5.81342e-20 0.490584)
(10.4332 1.37084e-20 0.441037)
(10.5203 -5.65944e-20 0.530231)
(10.4891 -5.78247e-20 0.477861)
(10.581 5.92063e-20 0.569991)
(10.5479 0 0.514819)
(10.6445 1.1739e-19 0.609553)
(10.6094 5.92759e-20 0.551718)
(10.7108 5.92867e-20 0.648628)
(10.6737 -5.15113e-20 0.588289)
(10.7794 6.10901e-20 0.687004)
(10.7403 5.68141e-20 0.624297)
(10.8091 6.04502e-20 0.659575)
(10.0062 1.72628e-19 0.0420145)
(10.0025 1.77382e-19 0.0265713)
(10.0179 8.53385e-20 0.0678574)
(10.011 -1.46348e-22 0.0504733)
(10.0346 1.87501e-19 0.0936382)
(10.0253 -1.33504e-21 0.0739178)
(10.0556 9.90259e-20 0.119913)
(10.0446 1.07205e-19 0.0978648)
(10.0807 1.07481e-19 0.146794)
(10.0679 -5.8271e-21 0.122403)
(10.1099 9.77054e-20 0.174443)
(10.0951 1.01293e-19 0.147443)
(10.1432 9.79823e-20 0.20297)
(10.1264 5.64439e-21 0.173294)
(10.1799 2.07693e-19 0.232221)
(10.1619 5.47557e-21 0.200155)
(10.2196 2.18122e-19 0.262235)
(10.1998 1.00173e-19 0.227856)
(10.2621 4.35574e-20 0.29345)
(10.2398 1.02052e-19 0.256498)
(10.3074 1.06273e-19 0.326086)
(10.283 4.73438e-20 0.286414)
(10.3555 1.53761e-19 0.359752)
(10.3293 1.20418e-19 0.317445)
(10.4065 6.8186e-22 0.393838)
(10.3785 -1.38014e-20 0.348943)
(10.4604 1.41308e-20 0.427995)
(10.4307 6.66251e-20 0.380433)
(10.5173 4.00002e-22 0.462137)
(10.4859 -2.55865e-20 0.411845)
(10.5769 0 0.4962)
(10.5438 2.71847e-20 0.443217)
(10.6393 -1.14564e-19 0.530032)
(10.6044 5.40941e-20 0.474466)
(10.704 -5.42115e-20 0.563441)
(10.6673 -1.14408e-19 0.505421)
(10.7708 5.61452e-20 0.596251)
(10.7324 3.11627e-21 0.535906)
(10.7993 5.38823e-20 0.565764)
(10.0064 -2.23478e-22 0.0352434)
(10.0026 -8.54006e-20 0.0219089)
(10.0185 -8.90049e-20 0.0567747)
(10.0114 2.76947e-21 0.0412359)
(10.0356 -8.32287e-20 0.0783772)
(10.0264 -9.66375e-20 0.0604115)
(10.0571 -7.89383e-22 0.100512)
(10.046 -7.76115e-20 0.0801365)
(10.0828 -1.18952e-20 0.123146)
(10.0699 -1.16023e-20 0.100485)
(10.1123 6.54021e-21 0.146344)
(10.0974 -4.62139e-20 0.12127)
(10.1455 -8.94588e-20 0.170481)
(10.1281 1.82385e-20 0.142793)
(10.1818 -1.04972e-19 0.195763)
(10.1625 -1.0736e-19 0.165692)
(10.2204 -1.91919e-20 0.222082)
(10.1995 -1.84527e-20 0.189889)
(10.2615 1.06004e-19 0.249363)
(10.2386 3.60408e-20 0.214815)
(10.3054 6.18366e-20 0.277534)
(10.2809 3.19101e-20 0.240226)
(10.3527 -5.19238e-20 0.306265)
(10.3266 -3.46316e-21 0.266094)
(10.4033 5.4025e-20 0.335106)
(10.3755 0 0.292205)
(10.4568 2.5823e-20 0.363828)
(10.4274 -2.2287e-20 0.318306)
(10.5131 1.95901e-21 0.392432)
(10.4822 -6.82418e-22 0.344316)
(10.572 8.28515e-20 0.420927)
(10.5394 -2.37567e-20 0.370248)
(10.6332 5.44716e-20 0.449226)
(10.599 5.57156e-20 0.396058)
(10.6965 -5.5511e-20 0.477178)
(10.6606 1.04311e-19 0.421631)
(10.7616 6.72758e-22 0.50463)
(10.7241 -1.60655e-19 0.446819)
(10.7892 5.54659e-20 0.471482)
(10.0067 -8.20225e-20 0.0280196)
(10.0034 -8.42805e-20 0.0169108)
(10.0194 -5.5423e-21 0.0450162)
(10.012 0 0.0312873)
(10.0371 -9.08123e-20 0.0623085)
(10.0279 -4.21836e-20 0.0460758)
(10.0591 -8.84853e-20 0.0802114)
(10.0478 -1.3335e-19 0.0615871)
(10.0849 -4.69346e-20 0.0987522)
(10.0715 -5.76971e-21 0.0778526)
(10.1138 -3.40627e-20 0.118006)
(10.0987 4.81103e-20 0.0949441)
(10.1456 -3.28673e-22 0.13831)
(10.1283 5.13411e-20 0.112847)
(10.1804 -1.83293e-20 0.159903)
(10.1611 3.99346e-20 0.131846)
(10.218 3.83741e-20 0.182451)
(10.1972 -1.23502e-20 0.151851)
(10.2588 -4.02078e-20 0.205429)
(10.2363 5.01038e-20 0.172253)
(10.3027 -3.52466e-20 0.228591)
(10.2788 -4.09884e-20 0.192689)
(10.3499 4.99616e-20 0.251872)
(10.3245 2.76723e-21 0.213211)
(10.4003 -7.86218e-20 0.27519)
(10.3733 0 0.233868)
(10.4534 -4.95813e-20 0.298476)
(10.4249 -7.86761e-20 0.254585)
(10.5092 -2.7167e-20 0.321714)
(10.479 5.17885e-20 0.275298)
(10.5671 -5.18582e-20 0.344875)
(10.5355 -7.85718e-20 0.29598)
(10.6272 1.07086e-19 0.367878)
(10.5939 4.98667e-20 0.316574)
(10.689 -3.67391e-21 0.390602)
(10.6542 5.62679e-20 0.336982)
(10.7525 -1.04511e-19 0.412913)
(10.7161 -1.33307e-19 0.357082)
(10.7795 3.64017e-22 0.376757)
(10.0074 0 0.0201925)
(10.0047 -3.9012e-20 0.0112534)
(10.0208 -3.77559e-20 0.0324604)
(10.0134 0 0.0205457)
(10.0389 -8.61654e-20 0.0453907)
(10.0294 3.17258e-21 0.03103)
(10.0606 -4.80607e-20 0.0591909)
(10.0493 -7.79787e-21 0.0427893)
(10.0856 9.19388e-20 0.0738925)
(10.0719 0 0.0554016)
(10.1136 1.35802e-19 0.0895257)
(10.0983 4.83486e-20 0.0689218)
(10.1443 9.26941e-20 0.106031)
(10.1275 -1.95885e-20 0.083137)
(10.1783 4.60158e-20 0.123304)
(10.1599 -1.98594e-20 0.0977839)
(10.2159 -2.0035e-22 0.141039)
(10.196 0 0.1128)
(10.2569 4.93115e-20 0.158875)
(10.2355 -4.62109e-20 0.128025)
(10.3012 -1.92098e-21 0.176698)
(10.2782 2.62519e-20 0.143294)
(10.3485 -4.86245e-20 0.194583)
(10.324 -3.83556e-20 0.158612)
(10.3986 0 0.212573)
(10.3724 -3.54901e-20 0.174036)
(10.4512 2.55957e-20 0.230636)
(10.4234 2.40716e-20 0.189559)
(10.506 -1.04409e-21 0.248721)
(10.4767 4.97446e-20 0.205136)
(10.5629 2.61081e-20 0.26677)
(10.5321 -1.77668e-21 0.220717)
(10.6217 -2.53391e-21 0.284699)
(10.5893 2.72556e-20 0.236235)
(10.6821 -7.71014e-20 0.302406)
(10.6482 -3.42994e-21 0.251606)
(10.7439 -2.53659e-20 0.319785)
(10.7086 -1.55126e-21 0.266736)
(10.7702 0 0.281538)
(10.009 -3.89046e-20 0.0116092)
(10.0064 1.6814e-20 0.00419748)
(10.0227 4.20919e-20 0.0198218)
(10.0163 -2.00431e-20 0.00926454)
(10.0402 8.37487e-20 0.0292463)
(10.0317 4.31664e-20 0.0161427)
(10.061 4.1655e-20 0.0397426)
(10.0509 4.2866e-20 0.0243683)
(10.085 -4.47183e-20 0.0509944)
(10.0729 0 0.0332723)
(10.1125 -1.11511e-19 0.06284)
(10.0988 -4.98919e-20 0.0426035)
(10.1435 -1.35336e-19 0.0750547)
(10.1282 -5.18703e-20 0.0523137)
(10.1781 -6.71772e-20 0.0874438)
(10.1611 -5.26836e-20 0.0621821)
(10.2161 -4.74422e-20 0.0999391)
(10.1975 5.55498e-23 0.072159)
(10.2573 -7.00001e-20 0.112504)
(10.237 -4.17965e-20 0.0822715)
(10.3016 -1.12237e-20 0.125134)
(10.2795 -1.25604e-20 0.0924753)
(10.3485 -2.48438e-20 0.137863)
(10.3248 1.20186e-20 0.102756)
(10.3979 -1.07373e-20 0.150703)
(10.3726 -2.51234e-20 0.113136)
(10.4497 4.89969e-20 0.163628)
(10.4227 1.54802e-21 0.123608)
(10.5035 4.91273e-20 0.176592)
(10.4749 5.97981e-20 0.13414)
(10.5592 -6.44379e-22 0.189537)
(10.5291 -2.22071e-20 0.14468)
(10.6166 2.6396e-20 0.202393)
(10.585 -1.31203e-20 0.155173)
(10.6755 7.45328e-20 0.215082)
(10.6425 3.45899e-21 0.165555)
(10.7357 2.46497e-20 0.227532)
(10.7013 3.74997e-20 0.175764)
(10.7613 0 0.185746)
(10.0126 3.58518e-20 0.000556561)
(9.99992 3.95806e-20 -0.00586961)
(10.0262 -1.86739e-20 0.00440596)
(10.0045 -1.46739e-21 -0.00210331)
(10.0428 1.24015e-21 0.00999661)
(10.0123 9.73543e-22 0.00179724)
(10.0631 0 0.0166081)
(10.0239 3.10422e-22 0.00608593)
(10.0871 -5.44339e-21 0.0236934)
(10.0394 0 0.0107724)
(10.1149 1.12841e-20 0.0310149)
(10.0592 3.56175e-21 0.0156051)
(10.1462 3.29239e-20 0.0384856)
(10.083 1.78317e-20 0.0205873)
(10.181 1.64185e-20 0.0460399)
(10.1106 1.6825e-20 0.0256874)
(10.2189 5.83097e-21 0.0536798)
(10.1418 2.73285e-21 0.0308529)
(10.2598 1.72722e-20 0.0614156)
(10.1763 5.74041e-21 0.0360886)
(10.3034 1.13301e-20 0.0692349)
(10.214 1.98888e-20 0.0413923)
(10.3495 1.17559e-20 0.0771319)
(10.2545 0 0.0467576)
(10.398 -1.25024e-20 0.0851016)
(10.2978 6.18753e-21 0.0521858)
(10.4486 1.26167e-20 0.0931226)
(10.3435 -6.95778e-21 0.0576687)
(10.5012 -1.36472e-20 0.101158)
(10.3916 4.16208e-20 0.0631833)
(10.5556 -3.5072e-20 0.109163)
(10.4418 -4.28117e-20 0.068698)
(10.6116 -3.68272e-20 0.117088)
(10.4939 6.66644e-22 0.0741783)
(10.669 -3.48241e-20 0.124885)
(10.5477 -3.7236e-20 0.0795896)
(10.7277 1.21269e-20 0.132513)
(10.603 1.23717e-20 0.0849)
(10.6596 0 0.090084)
(9.9929 9.48816e-22 -0.0030279)
(9.99053 1.88911e-20 -0.00247477)
(9.99268 1.75468e-23 -0.000963297)
(9.9994 3.09319e-22 0.00101505)
(10.0107 9.27247e-21 0.00320558)
(10.0265 1.03401e-20 0.00551054)
(10.0464 1.30964e-21 0.00792686)
(10.0704 2.75152e-21 0.010445)
(10.0981 2.64215e-21 0.013049)
(10.1292 8.45206e-21 0.015727)
(10.1637 8.24167e-21 0.0184697)
(10.2013 -5.72285e-21 0.0212732)
(10.2417 1.19018e-20 0.0241325)
(10.2848 2.28821e-20 0.0270352)
(10.3304 1.16585e-20 0.0299625)
(10.3782 -6.06527e-21 0.0328929)
(10.4281 2.68521e-22 0.0358049)
(10.4797 1.13514e-20 0.0386788)
(10.5329 -9.26636e-23 0.0414977)
)
;

boundaryField
{
    inlet
    {
        type            calculated;
        value           nonuniform List<vector> 
30
(
(10 0 0)
(10 0 0)
(10 0 0)
(10 0 0)
(10 0 0)
(10 0 0)
(10 0 0)
(10 0 0)
(10 0 0)
(10 0 0)
(10 0 0)
(10 0 0)
(10 0 0)
(10 0 0)
(10 0 0)
(10 0 0)
(10 0 0)
(10 0 0)
(10 0 0)
(10 0 0)
(10 0 0)
(10 0 0)
(10 0 0)
(10 0 0)
(10 0 0)
(10 0 0)
(10 0 0)
(10 0 0)
(10 0 0)
(10 0 0)
)
;
    }
    outlet
    {
        type            calculated;
        value           nonuniform 0();
    }
    flap
    {
        type            calculated;
        value           nonuniform 0();
    }
    upperWall
    {
        type            calculated;
        value           uniform (0 0 0);
    }
    lowerWall
    {
        type            calculated;
        value           nonuniform 0();
    }
    frontAndBack
    {
        type            empty;
        value           nonuniform 0();
    }
    procBoundary0to1
    {
        type            processor;
        value           nonuniform List<vector> 
18
(
(10.8851 -1.15504e-19 1.67082)
(10.9099 6.85336e-21 1.57147)
(10.8702 6.6682e-21 1.47835)
(10.8356 4.61002e-21 1.38867)
(10.8508 -1.2228e-19 1.29538)
(10.861 -3.6109e-20 1.20128)
(10.8665 2.35877e-19 1.10658)
(10.8676 -1.31032e-19 1.01145)
(10.8649 6.33777e-20 0.916046)
(10.8588 -6.08594e-20 0.82044)
(10.85 1.18461e-19 0.724517)
(10.8395 -5.7851e-20 0.628311)
(10.8283 1.65788e-19 0.531436)
(10.8173 -2.69386e-20 0.434687)
(10.8069 -7.84045e-20 0.336741)
(10.797 0 0.23968)
(10.7873 -1.25598e-20 0.139937)
(10.5874 -1.19972e-20 0.0442484)
)
;
    }
    procBoundary0to3
    {
        type            processor;
        value           nonuniform List<vector> 
34
(
(9.99882 5.60677e-21 0.0588771)
(9.99183 -5.83357e-21 0.112711)
(9.98723 -2.09329e-19 0.142166)
(9.98357 -2.14668e-19 0.171098)
(9.97889 -1.28631e-20 0.202846)
(9.97536 -2.40785e-20 0.233884)
(9.97156 1.57228e-19 0.26839)
(9.96906 4.2371e-19 0.301903)
(9.96711 2.94334e-19 0.339043)
(9.96722 1.972e-19 0.374768)
(9.96824 4.01568e-20 0.414251)
(9.97123 -1.04082e-19 0.451956)
(9.97584 1.02629e-19 0.493532)
(9.98241 1.5264e-19 0.53288)