/*--------------------------------*- C++ -*----------------------------------*\
| =========                 |                                                 |
| \\      /  F ield         | OpenFOAM: The Open Source CFD Toolbox           |
|  \\    /   O peration     | Version:  dev                                   |
|   \\  /    A nd           | Web:      www.OpenFOAM.org                      |
|    \\/     M anipulation  |                                                 |
\*---------------------------------------------------------------------------*/
FoamFile
{
    version     2.0;
    format      ascii;
    class       surfaceScalarField;
    location    "1.54";
    object      meshPhi;
}
// * * * * * * * * * * * * * * * * * * * * * * * * * * * * * * * * * * * * * //

dimensions      [0 3 -1 0 0 0 0];

internalField   nonuniform List<scalar> 
879
(
-0.000134781
0.00152165
2.34786e-05
0.00104611
0.000142821
0.00063075
0.000226333
0.00035353
0.00028016
0.000185391
0.0003111
8.92294e-05
0.000325398
3.79901e-05
0.000328065
1.36851e-05
0.000322687
4.63413e-06
0.000311541
3.45905e-06
0.000295888
5.69889e-06
0.000276333
8.82499e-06
0.000253192
1.15349e-05
0.000226786
1.3257e-05
0.00019756
1.38191e-05
0.000165882
1.32466e-05
0.000131526
1.16532e-05
9.33097e-05
9.18996e-06
4.96608e-05
5.95702e-06
2.09613e-06
-0.00015938
0.00266675
1.14195e-05
0.00190302
0.000138254
0.00117746
0.000225535
0.000673901
0.000280994
0.000360156
0.000312519
0.000177208
0.000326945
7.8158e-05
0.000329573
3.03464e-05
0.000324112
1.19653e-05
0.000312874
8.98482e-06
0.000297118
1.2809e-05
0.000277442
1.851e-05
0.000254152
2.35172e-05
0.00022757
2.66788e-05
0.000198149
2.76264e-05
0.000166272
2.63835e-05
0.000131728
2.31549e-05
9.33534e-05
1.82269e-05
4.96034e-05
1.17947e-05
4.14504e-06
-0.0002034
0.00323571
-1.61882e-05
0.00246721
0.000122569
0.00159413
0.000217102
0.000944115
0.000276733
0.000520813
0.00031063
0.000265936
0.000326413
0.000124108
0.000329821
5.34835e-05
0.000324796
2.47679e-05
0.000313774
1.85223e-05
0.000298083
2.25576e-05
0.00027836
2.97399e-05
0.000254945
3.62589e-05
0.000228187
4.03415e-05
0.000198569
4.13616e-05
0.000166501
3.92829e-05
0.000131792
3.43561e-05
9.3295e-05
2.6974e-05
4.94968e-05
1.74154e-05
6.11081e-06
-0.000247779
0.00319699
-5.11727e-05
0.00270133
9.87073e-05
0.00185496
0.000201664
0.00115041
0.000267049
0.000661698
0.000304774
0.000354171
0.000323082
0.000176589
0.000328138
8.4479e-05
0.000324156
4.44003e-05
0.000313754
3.31473e-05
0.000298382
3.56861e-05
0.000278771
4.2962e-05
0.000255333
4.99825e-05
0.000228477
5.43113e-05
0.000198736
5.49911e-05
0.000166553
5.18542e-05
0.000131749
4.51425e-05
9.31808e-05
3.53214e-05
4.93626e-05
2.27396e-05
7.96452e-06
-0.000269039
0.00262299
-8.00088e-05
0.00260181
7.437e-05
0.00193915
0.000183671
0.00127469
0.000254534
0.000771015
0.000296438
0.000435312
0.000317784
0.000232382
0.000324977
0.000122058
0.000322441
7.05821e-05
0.000312963
5.30133e-05
0.000298131
5.24794e-05
0.000278786
5.84477e-05
0.000255435
6.48896e-05
0.000228568
6.87093e-05
0.000198781
6.85646e-05
0.000166557
6.40919e-05
0.00013172
5.54719e-05
9.31092e-05
4.32108e-05
4.92558e-05
2.77169e-05
9.68613e-06
-0.000248415
0.00166447
-9.08777e-05
0.00220104
5.62567e-05
0.00183769
0.000166758
0.00129991
0.000241096
0.000834452
0.000286583
0.000499673
0.000310955
0.000285665
0.000320482
0.000163045
0.000319638
0.000101768
0.00031131
7.74911e-05
0.000297203
7.27729e-05
0.000278269
7.62337e-05
0.000255121
8.10777e-05
0.000228342
8.3627e-05
0.000198606
8.21419e-05
0.00016644
7.60187e-05
0.000131662
6.53345e-05
9.30673e-05
5.06114e-05
4.91828e-05
3.23138e-05
1.12612e-05
-0.000175436
0.000533514
-7.40199e-05
0.00157691
5.10735e-05
0.00156524
0.000155052
0.00121858
0.000229154
0.000840225
0.000276577
0.000537215
0.000303336
0.000329387
0.000315029
0.00020301
0.000315906
0.000135414
0.000308832
0.000105252
0.000295568
9.59567e-05
0.000277158
9.60998e-05
0.000254312
9.85151e-05
0.000227714
9.91077e-05
0.000198124
9.57826e-05
0.000166123
8.76829e-05
0.000131516
7.47557e-05
9.30288e-05
5.75254e-05
4.91416e-05
3.65192e-05
1.26828e-05
-5.35385e-05
-0.000532099
-2.53203e-05
0.000848414
6.36592e-05
0.00116622
0.000152297
0.00103963
0.000221239
0.000784032
0.000268029
0.000540597
0.000295909
0.000356982
0.000309188
0.000237148
0.000311557
0.000168382
0.000305678
0.000134424
0.000293276
0.000121012
0.00027544
0.000117552
0.000252959
0.000117006
0.000226612
0.000115111
0.00019725
0.000109517
0.000165518
9.9138e-05
0.00013121
8.37856e-05
9.29479e-05
6.39845e-05
4.91186e-05
4.03448e-05
1.39526e-05
9.76852e-05
-0.00132271
5.06621e-05
0.000153668
9.4856e-05
0.000710418
0.000160607
0.000790466
0.000219334
0.000672342
0.000262453
0.000507861
0.000289731
0.000364156
0.000303656
0.000261347
0.000307028
0.000197532
0.000302104
0.000162889
0.000290463
0.000146636
0.000273172
0.00013986
0.000251065
0.000136187
0.000224998
0.000131492
0.000195917
0.000123323
0.000164539
0.000110424
0.000130654
9.24866e-05
9.27605e-05
7.00456e-05
4.90866e-05
4.38255e-05
1.50813e-05
0.00024608
-0.00171069
0.000140122
-0.000384044
0.000140142
0.000278113
0.000179351
0.000512847
0.000224138
0.000522618
0.000260824
0.00044385
0.000285679
0.000350282
0.000299118
0.000273219
0.00030281
0.000220375
0.000298443
0.000188653
0.000287341
0.000171435
0.000270478
0.000162141
0.000248688
0.000155551
0.00022288
0.000147996
0.000194087
0.000137108
0.000163113
0.000121548
0.000129759
0.000100918
9.23864e-05
7.57821e-05
4.90036e-05
4.70168e-05
1.60891e-05
0.000356434
-0.00168119
0.000223016
-0.000689038
0.000189971
-6.05279e-05
0.000204714
0.00025315
0.000234556
0.000359918
0.000263187
0.000359694
0.00028419
0.000318879
0.000296073
0.000272753
0.000299343
0.000235626
0.000295043
0.000210235
0.000284165
0.000194164
0.000267536
0.000183492
0.000245942
0.000174507
0.000220316
0.000164279
0.000191767
0.000150705
0.000161195
0.000132466
0.000128441
0.000109118
9.17372e-05
8.12698e-05
4.88154e-05
4.9988e-05
1.70034e-05
0.00040242
-0.00132376
0.000279076
-0.000750568
0.000232136
-0.00026382
0.000230359
5.03286e-05
0.000247714
0.00021074
0.00026848
0.000270291
0.000285062
0.000276927
0.000294682
0.000262385
0.000296906
0.000243483
0.00029219
0.00022695
0.000281188
0.000213938
0.000264551
0.000203127
0.000242985
0.000192462
0.000217416
0.00017994
0.00018901
0.00016388
0.00015878
0.000143079
0.000126642
0.000117088
9.07294e-05
8.65713e-05
4.8462e-05
5.28114e-05
1.78559e-05
0.000375444
-0.000789272
0.000294483
-0.000617123
0.000255492
-0.000327011
0.000249147
-7.37993e-05
0.00025962
9.62246e-05
0.000274716
0.000190546
0.000287448
0.000233129
0.000294697
0.000246373
0.00029554
0.000245535
0.000290044
0.000239003
0.000278608
0.000230375
0.000261719
0.000220503
0.000239994
0.00020891
0.000214325
0.000194581
0.000185923
0.000176358
0.000155916
0.000153233
0.000124344
0.000124782
8.92991e-05
9.17211e-05
4.78852e-05
5.5551e-05
1.8678e-05
0.000286253
-0.000235095
0.000266263
-0.000371165
0.000253586
-0.000277718
0.000255373
-0.000118188
0.00026633
2.72586e-05
0.000279516
0.000131647
0.000290064
0.000195686
0.000295512
0.000229669
0.000295027
0.000244278
0.0002886
0.000247352
0.000276523
0.000243601
0.00025919
0.00023537
0.000237136
0.00022348
0.00021121
0.000207842
0.000182649
0.000187848
0.000152701
0.000162727
0.000121579
0.000132101
8.74166e-05
9.67114e-05
4.70398e-05
5.82488e-05
1.94958e-05
0.000159607
0.000241456
0.000202334
-9.32173e-05
0.00022627
-0.000160988
0.000246227
-9.91398e-05
0.000264849
3.09059e-06
0.00028051
9.86123e-05
0.000291256
0.000170257
0.000296053
0.00021664
0.000294708
0.000242485
0.000287474
0.00025349
0.000274733
0.000254271
0.000256881
0.000247907
0.000234413
0.000236118
0.000208132
0.000219577
0.000179278
0.000198188
0.000149219
0.000171433
0.000118388
0.000138979
8.50638e-05
0.000101547
4.58821e-05
6.09572e-05
2.0339e-05
-0.000121709
0.00135822
2.73319e-05
0.000557163
0.00012354
0.000137693
0.000187342
-2.8587e-05
0.000232322
-4.32527e-05
0.00026509
1.4282e-05
0.00028799
9.08705e-05
0.000301924
0.000159622
0.000307666
0.000210543
0.000306075
0.00024276
0.000297999
0.000259152
0.00028413
0.000263389
0.000265002
0.000258612
0.000241145
0.000247011
0.000213356
0.000229798
0.000182913
0.000207304
0.000151348
0.000179248
0.00011938
0.000145324
8.54948e-05
0.00010618
4.61359e-05
6.36652e-05
2.12134e-05
-0.000241483
-9.21155e-05
3.52808e-05
0.000260278
0.000133434
6.77752e-05
0.00020383
1.94911e-05
0.000253472
4.64948e-05
0.000286376
0.000103668
0.000305585
0.000163879
0.000313668
0.000213235
0.000312714
0.000247118
0.000304367
0.000265884
0.000289794
0.000271928
0.000269767
0.000267983
0.000244897
0.000256329
0.000215971
0.000238469
0.000184261
0.000215045
0.000151423
0.000185972
0.000118494
0.000150954
8.43324e-05
0.00011049
4.5416e-05
6.63348e-05
2.21156e-05
-4.33401e-05
7.92541e-05
0.000171517
7.20699e-05
0.000237419
8.50392e-05
0.0002814
0.00012979
0.000307042
0.000180548
0.000318459
0.000224736
0.000318825
0.000256535
0.00031065
0.000274762
0.000295649
0.000280715
0.000274904
0.000276528
0.000249143
0.000264295
0.000219144
0.000245599
0.000186138
0.000221271
0.000151858
0.000191379
0.000117673
0.000155613
8.29483e-05
0.000114264
4.4425e-05
6.88405e-05
2.30085e-05
0.000140931
0.00022169
0.000127631
0.000275691
0.000163867
0.000307424
0.000206379
0.000322432
0.000243756
0.000324377
0.000270946
0.000316662
0.000286226
0.000301497
0.000290298
0.000280271
0.000284698
0.000253838
0.000271198
0.000222949
0.000251307
0.000188741
0.000225948
0.000152946
0.000195307
0.000117234
0.000159068
8.15891e-05
0.000117265
4.32779e-05
7.10192e-05
2.38364e-05
0.000206247
0.000271083
0.000308859
0.000238576
0.000326579
0.000268826
0.000329654
0.000289586
0.000322405
0.000300045
0.000307217
0.000300798
0.00028572
0.00029274
0.000258879
0.000277272
0.000227386
0.000255745
0.000192207
0.000229106
0.000154964
0.000197653
0.000117534
0.000161098
8.05739e-05
0.00011923
4.21473e-05
7.2661e-05
2.45202e-05
0.000309614
0.000331179
0.000335316
0.000310825
0.000328002
0.000315713
0.000312762
0.000311941
0.000291103
0.000300645
0.000264101
0.000282635
0.000232351
0.000259065
0.000196572
0.000230846
0.000158128
0.000198399
0.000118936
0.000161542
8.02885e-05
0.000119897
4.12715e-05
7.35217e-05
2.49593e-05
0.000340713
0.000333729
0.000330869
0.000318168
0.000323125
0.00029626
0.000308152
0.000269274
0.00028726
0.000237603
0.000261397
0.000201687
0.000231353
0.000162491
0.00019767
0.000121728
0.000160372
8.11407e-05
0.000119073
4.0949e-05
7.33574e-05
2.50397e-05
0.000338489
0.00032339
0.000301256
0.000314451
0.000274137
0.000291012
0.000242768
0.000262812
0.00020715
0.000230884
0.000167799
0.000195782
0.000125948
0.000157803
8.3435e-05
0.000116765
4.14896e-05
7.20182e-05
2.46659e-05
0.000306004
0.000278734
0.000292801
0.000247504
0.000263066
0.000212324
0.000229631
0.000173392
0.000193192
0.000131175
0.000154347
8.71356e-05
0.000113327
4.30753e-05
6.96057e-05
2.38272e-05
0.000282991
0.000251787
0.000216789
0.000227367
0.000178352
0.000190211
0.000136468
0.000150648
9.16434e-05
0.000109443
4.55535e-05
6.6571e-05
2.26636e-05
0.00022047
0.000182184
0.000186519
0.000140769
0.000146935
9.58679e-05
0.000105777
4.83344e-05
6.35771e-05
2.14467e-05
0.000184916
0.000143621
9.89136e-05
0.000102429
5.06098e-05
6.10288e-05
2.04283e-05
0.00010058
5.19187e-05
5.88615e-05
1.96276e-05
5.23471e-05
1.89166e-05
)
;

boundaryField
{
    inlet
    {
        type            calculated;
        value           nonuniform 0();
    }
    outlet
    {
        type            calculated;
        value           uniform 0;
    }
    flap
    {
        type            calculated;
        value           nonuniform 0();
    }
    upperWall
    {
        type            calculated;
        value           nonuniform 0();
    }
    lowerWall
    {
        type            calculated;
        value           uniform 0;
    }
    frontAndBack
    {
        type            empty;
        value           nonuniform 0();
    }
    procBoundary5to2
    {
        type            processor;
        value           nonuniform List<scalar> 
34
(
0.00137939
0.000673864
0.000177012
0.000317858
0.000131266
-2.93866e-05
0.000123945
-0.000109083
0.000173734
0.000202915
-0.000263022
0.0002693
0.000295188
-0.000333033
0.000328912
-0.000342923
0.000340811
0.000331665
-0.000327567
0.000317335
-0.000309788
0.000291294
0.000261333
-0.000255431
0.000223544
-0.000223299
0.000181779
0.00014303
-0.000145196
9.9126e-05
-0.000101099
5.67432e-05
-5.22696e-05
1.81311e-05
)
;
    }
    procBoundary5to4
    {
        type            processor;
        value           nonuniform List<scalar> 
18
(
0.000328295
0.000366791
0.000420446
0.000450902
0.000421334
0.000309428
0.000116138
-0.000129858
-0.000377091
-0.000566333
-0.000651335
-0.000615678
-0.000476843
-0.000275848
-6.22203e-05
-0.0010345
0.000314804
0.000339955
)
;
    }
}


// ************************************************************************* //
