/*--------------------------------*- C++ -*----------------------------------*\
| =========                 |                                                 |
| \\      /  F ield         | OpenFOAM: The Open Source CFD Toolbox           |
|  \\    /   O peration     | Version:  dev                                   |
|   \\  /    A nd           | Web:      www.OpenFOAM.org                      |
|    \\/     M anipulation  |                                                 |
\*---------------------------------------------------------------------------*/
FoamFile
{
    version     2.0;
    format      ascii;
    class       surfaceScalarField;
    location    "3.49";
    object      phi;
}
// * * * * * * * * * * * * * * * * * * * * * * * * * * * * * * * * * * * * * //

dimensions      [0 3 -1 0 0 0 0];

internalField   nonuniform List<scalar> 
881
(
-0.0466384
0.0193268
0.012283
0.0312238
0.0426617
0.00841512
0.0350974
-0.0129224
0.0282703
0.0229686
0.129874
0.0660027
0.107643
0.0573339
0.0862022
0.0497168
0.0660982
0.0430783
0.0371754
0.218378
0.0858284
0.198687
0.0770298
0.179344
0.0690649
0.160588
0.06184
0.142589
0.0551792
0.125375
0.0489946
0.0433286
0.291746
0.101015
0.276026
0.0927541
0.260095
0.0850011
0.244193
0.0777469
0.228452
0.0709251
0.212951
0.0644998
0.197783
0.0585003
0.183076
0.0529783
0.0479149
0.349676
0.111283
0.338438
0.103997
0.326527
0.0969166
0.314182
0.0900964
0.301567
0.0835453
0.2888
0.0772702
0.275996
0.0713073
0.263274
0.0657025
0.250721
0.0604694
0.0555927
0.393436
0.116916
0.386594
0.110842
0.378786
0.104729
0.370222
0.0986639
0.361073
0.0926981
0.351474
0.0868725
0.341547
0.0812373
0.331405
0.0758461
0.321141
0.070735
0.310809
0.0659249
0.300437
0.0614413
0.0573285
0.42514
0.118579
0.422214
0.113771
0.418198
0.108749
0.413258
0.103608
0.407539
0.0984201
0.401169
0.0932463
0.394261
0.0881471
0.386922
0.0831866
0.379242
0.078416
0.371289
0.0738778
0.363113
0.0696158
0.354758
0.0656812
0.0621273
0.447336
0.117135
0.447608
0.113502
0.446808
0.109552
0.445049
0.10537
0.442436
0.101035
0.439072
0.0966132
0.43505
0.0921706
0.430464
0.0877746
0.425393
0.0834865
0.41991
0.0793611
0.414071
0.0754527
0.407932
0.0718179
0.401542
0.0685128
0.394949
0.0655847
0.0630663
0.462629
0.113481
0.465289
0.110845
0.466996
0.107848
0.467808
0.104561
0.467791
0.101054
0.467013
0.0973935
0.465542
0.0936432
0.463449
0.089868
0.460804
0.0861319
0.457667
0.0824964
0.454098
0.0790202
0.45015
0.0757626
0.445878
0.0727813
0.441329
0.0701274
0.436549
0.0678401
0.0659451
0.473359
0.108408
0.477645
0.106561
0.481143
0.104352
0.483871
0.101836
0.485857
0.0990694
0.487141
0.0961116
0.487763
0.0930216
0.487772
0.0898595
0.487219
0.086685
0.486154
0.0835594
0.484629
0.0805436
0.482691
0.0776968
0.480391
0.0750765
0.477778
0.0727353
0.474894
0.0707167
0.471778
0.069053
0.46846
0.0677653
0.0668634
0.481385
0.102519
0.486677
0.101271
0.491348
0.0996826
0.495391
0.0977938
0.498811
0.0956508
0.501621
0.0933023
0.503844
0.0907999
0.505505
0.0881977
0.506639
0.0855507
0.507282
0.0829142
0.507477
0.0803462
0.507264
0.0779066
0.506684
0.0756512
0.505782
0.0736314
0.504599
0.0718931
0.50317
0.070473
0.501527
0.0693991
0.499691
0.0686883
0.0683435
0.488015
0.0962175
0.493871
0.0954169
0.49925
0.094305
0.504132
0.0929124
0.508508
0.0912753
0.512377
0.0894338
0.515745
0.0874315
0.518627
0.0853157
0.52104
0.0831361
0.523011
0.0809416
0.524569
0.0787849
0.525747
0.0767243
0.52658
0.0748132
0.527105
0.0731005
0.527358
0.0716329
0.527371
0.0704506
0.527173
0.0695871
0.526783
0.0690673
0.526206
0.0689068
0.0691111
0.494064
0.0897412
0.500206
0.0892748
0.505983
0.0885285
0.511371
0.0875251
0.516354
0.0862932
0.520922
0.0848655
0.525074
0.0832791
0.528814
0.0815744
0.532153
0.0797951
0.535107
0.0779857
0.537694
0.0761939
0.539942
0.0744718
0.54188
0.0728702
0.543537
0.0714369
0.544944
0.0702176
0.546131
0.0692547
0.547122
0.0685862
0.547933
0.0682445
0.548569
0.0682569
0.549017
0.068648
0.0695106
0.499984
0.0832151
0.506258
0.0830007
0.51225
0.0825367
0.517935
0.08184
0.523295
0.0809329
0.528318
0.0798425
0.532996
0.0785996
0.53733
0.0772391
0.541324
0.0757989
0.544987
0.0743198
0.548332
0.0728449
0.55138
0.0714188
0.554156
0.0700884
0.556685
0.0689017
0.55899
0.0679037
0.561099
0.0671363
0.563034
0.066641
0.56481
0.0664562
0.566434
0.066619
0.567898
0.0671682
0.0682202
0.50601
0.0766983
0.512336
0.0766742
0.518443
0.0764292
0.524307
0.0759753
0.529909
0.0753303
0.535235
0.0745158
0.540275
0.0735578
0.545027
0.0724859
0.54949
0.0713333
0.55367
0.070136
0.557577
0.0689336
0.561226
0.0677647
0.564637
0.0666709
0.567831
0.0657002
0.57083
0.0648961
0.573657
0.0642997
0.576333
0.0639541
0.578874
0.0639021
0.581292
0.0641876
0.583585
0.0648588
0.0660452
0.512262
0.0702161
0.518602
0.0703334
0.524773
0.0702569
0.530753
0.069995
0.536521
0.069561
0.542062
0.0689726
0.547367
0.0682512
0.552428
0.067422
0.557245
0.0665136
0.561819
0.0655577
0.566159
0.0645892
0.570275
0.0636434
0.574181
0.062758
0.577898
0.0619755
0.581445
0.0613398
0.584842
0.0608921
0.588111
0.0606741
0.591269
0.0607312
0.59433
0.0611112
0.597305
0.0618674
0.0631331
0.518813
0.063777
0.52515
0.0639955
0.53136
0.0640456
0.537421
0.0639327
0.543313
0.063667
0.549021
0.0632625
0.554533
0.0627367
0.559841
0.0621107
0.564942
0.0614091
0.569836
0.0606594
0.574528
0.0598922
0.579025
0.0591403
0.583339
0.0584367
0.587488
0.0578186
0.591489
0.0573296
0.59536
0.0570098
0.599123
0.0568992
0.602798
0.0570433
0.606402
0.0574914
0.609955
0.0582983
0.059594
0.525724
0.0573815
0.532051
0.057667
0.538288
0.0578077
0.544411
0.0578069
0.550404
0.0576722
0.556249
0.0574145
0.561935
0.0570481
0.567452
0.0565905
0.572794
0.0560624
0.577961
0.0554876
0.582955
0.0548927
0.587782
0.0543071
0.592451
0.0537607
0.596974
0.0532868
0.60137
0.0529239
0.605657
0.0527117
0.609854
0.0526897
0.613982
0.0529003
0.618066
0.0533924
0.622127
0.0542193
0.055504
0.533057
0.0510249
0.539374
0.0513481
0.545631
0.0515483
0.551808
0.0516274
0.557887
0.0515908
0.563851
0.051447
0.569689
0.0512073
0.575389
0.0508863
0.580945
0.0505013
0.586355
0.0500725
0.591619
0.049623
0.596741
0.0491782
0.601727
0.0487662
0.60659
0.0484154
0.611344
0.0481589
0.616009
0.0480357
0.620602
0.0480833
0.625147
0.0483408
0.629669
0.0488542
0.634196
0.0496739
0.0509128
0.540876
0.0446986
0.547187
0.0450345
0.553466
0.0452674
0.559692
0.0453982
0.565849
0.0454306
0.571922
0.0453712
0.577896
0.045229
0.583762
0.0450157
0.589513
0.0447458
0.595143
0.0444363
0.600653
0.0441067
0.606044
0.0437793
0.611324
0.0434784
0.6165
0.0432296
0.621587
0.0430617
0.626602
0.0430085
0.631565
0.0431061
0.6365
0.0433913
0.641433
0.0439044
0.646396
0.0446921
0.0458565
0.549256
0.0383907
0.555569
0.038718
0.561873
0.0389606
0.56815
0.0391186
0.574382
0.0391946
0.580556
0.0391935
0.586658
0.0391226
0.592678
0.038991
0.598608
0.0388108
0.604442
0.0385958
0.610179
0.0383626
0.615821
0.0381298
0.621372
0.0379185
0.62684
0.0377517
0.632237
0.0376534
0.637581
0.0376515
0.642893
0.0377805
0.648195
0.0380736
0.653516
0.0385657
0.658891
0.0392983
0.0403611
0.558276
0.0320862
0.564604
0.0323868
0.570942
0.0326195
0.577274
0.0327837
0.583583
0.0328813
0.589857
0.032916
0.596081
0.0328932
0.602247
0.0328204
0.608345
0.0327069
0.61437
0.0325642
0.620319
0.0324057
0.626194
0.0322469
0.631998
0.0321053
0.637738
0.0320007
0.643427
0.0319526
0.649081
0.0319851
0.654719
0.0321279
0.660367
0.0324095
0.666054
0.0328607
0.671815
0.0335174
0.0344574
0.568026
0.0257668
0.574383
0.0260258
0.580767
0.026232
0.587163
0.0263848
0.593555
0.0264854
0.59993
0.0265365
0.606276
0.0265422
0.612582
0.0265081
0.618841
0.0264416
0.625047
0.0263516
0.631197
0.0262486
0.63729
0.026145
0.643331
0.0260549
0.649326
0.0259942
0.655287
0.0259794
0.661229
0.0260299
0.667173
0.0261689
0.673144
0.0264212
0.679173
0.0268132
0.685297
0.0273729
0.0281638
0.578608
0.0194113
0.585014
0.0196163
0.59146
0.0197826
0.597931
0.0199095
0.604414
0.0199979
0.610897
0.0200495
0.617366
0.0200673
0.623813
0.0200554
0.630229
0.0200192
0.636608
0.0199652
0.642947
0.0199014
0.649246
0.0198371
0.655508
0.0197828
0.661741
0.0197506
0.667954
0.0197537
0.674163
0.0198068
0.68039
0.0199265
0.68666
0.0201338
0.693005
0.0204493
0.699461
0.0208956
0.0215265
0.590125
0.012995
0.596601
0.0131363
0.603128
0.0132521
0.609692
0.0133417
0.61628
0.0134058
0.622879
0.0134454
0.629478
0.0134625
0.636068
0.0134597
0.64264
0.0134407
0.649188
0.0134097
0.655709
0.0133721
0.662202
0.0133342
0.668672
0.013303
0.675124
0.0132867
0.68157
0.0132949
0.688025
0.0133371
0.694511
0.0134248
0.701054
0.0135727
0.707689
0.0137956
0.714452
0.0141105
0.0145548
0.602688
0.00649189
0.609259
0.00656245
0.615887
0.00662007
0.62256
0.00666444
0.629266
0.00669582
0.635992
0.00671478
0.642726
0.00672228
0.64946
0.00671967
0.656185
0.00670876
0.662896
0.00669177
0.669588
0.0066714
0.676262
0.00665084
0.682921
0.00663378
0.689571
0.00662446
0.696225
0.00662784
0.702898
0.00664904
0.709612
0.00669407
0.716396
0.00677079
0.723283
0.0068889
0.730307
0.00706389
0.00734112
0.605831
0.612391
0.619007
0.625668
0.632359
0.639069
0.645786
0.652499
0.659201
0.665885
0.672548
0.679189
0.685812
0.692425
0.699039
0.705673
0.71235
0.719102
0.725971
0.733012
)
;

boundaryField
{
    inlet
    {
        type            calculated;
        value           nonuniform 0();
    }
    outlet
    {
        type            calculated;
        value           nonuniform List<scalar> 
15
(
0.54923
0.569172
0.585743
0.6002
0.613475
0.626199
0.638768
0.651432
0.664365
0.677697
0.691569
0.706076
0.7214
0.737497
0.740329
)
;
    }
    flap
    {
        type            calculated;
        value           nonuniform 0();
    }
    upperWall
    {
        type            calculated;
        value           nonuniform List<scalar> 
21
(
0
0
0
0
0
0
0
0
0
9.15819e-15
0
-2.82194e-20
0
0
0
-5.24482e-15
0
0
5.6093e-15
0
0
)
;
    }
    lowerWall
    {
        type            calculated;
        value           nonuniform 0();
    }
    frontAndBack
    {
        type            empty;
        value           nonuniform 0();
    }
    procBoundary2to1
    {
        type            processor;
        value           nonuniform List<scalar> 
17
(
-0.475495
-0.481713
-0.487586
-0.493458
-0.499493
-0.50578
-0.512375
-0.51933
-0.526702
-0.534552
-0.54295
-0.551974
-0.561709
-0.572255
-0.583711
-0.596188
-0.599342
)
;
    }
    procBoundary2to4
    {
        type            processor;
        value           nonuniform List<scalar> 
11
(
0.0405759
-0.0545531
-0.15321
-0.238199
-0.306928
-0.35994
-0.399065
-0.426798
-0.445889
-0.458973
-0.468284
)
;
    }
    procBoundary2to5
    {
        type            processor;
        value           nonuniform List<scalar> 
34
(
-0.0132587
-0.011213
-0.0477026
-0.00692687
-0.00795874
-0.0279267
-0.0191129
0.0480409
-0.0317756
-0.0269133
0.108963
-0.0382681
-0.0337252
0.168887
-0.0432413
0.23837
-0.0510706
-0.0469441
0.29005
-0.0536398
0.346266
-0.058997
-0.0563146
0.388191
-0.0609751
0.431571
-0.0644569
-0.0633801
0.464966
-0.0663399
0.497674
-0.0683488
0.52543
-0.0697393
)
;
    }
}


// ************************************************************************* //
