/*--------------------------------*- C++ -*----------------------------------*\
| =========                 |                                                 |
| \\      /  F ield         | OpenFOAM: The Open Source CFD Toolbox           |
|  \\    /   O peration     | Version:  dev                                   |
|   \\  /    A nd           | Web:      www.OpenFOAM.org                      |
|    \\/     M anipulation  |                                                 |
\*---------------------------------------------------------------------------*/
FoamFile
{
    version     2.0;
    format      ascii;
    class       volScalarField;
    location    "1.14";
    object      p;
}
// * * * * * * * * * * * * * * * * * * * * * * * * * * * * * * * * * * * * * //

dimensions      [0 2 -2 0 0 0 0];

internalField   nonuniform List<scalar> 
2790
(
155.364
155.206
155.356
155.786
156.391
157.125
157.982
158.963
160.065
161.284
162.618
164.065
165.622
167.287
169.056
170.926
172.888
174.933
177.046
179.208
181.395
183.576
185.713
187.76
189.667
191.378
192.835
193.981
194.766
195.134
155.205
155.141
155.312
155.74
156.342
157.074
157.928
158.905
160.002
161.215
162.542
163.98
165.528
167.183
168.941
170.799
172.749
174.781
176.882
179.033
181.211
183.387
185.523
187.577
189.498
191.23
192.717
193.899
194.727
195.284
155.052
155.061
155.249
155.668
156.261
156.984
157.827
158.791
159.873
161.069
162.376
163.791
165.312
166.936
168.66
170.479
172.385
174.368
176.416
178.51
180.629
182.745
184.823
186.823
188.699
190.401
191.878
193.082
193.969
194.585
154.892
154.938
155.139
155.551
156.132
156.844
157.674
158.622
159.684
160.856
162.136
163.52
165.004
166.586
168.262
170.025
171.868
173.78
175.749
177.756
179.78
181.793
183.765
185.656
187.423
189.019
190.39
191.476
192.183
192.258
154.716
154.781
154.993
155.4
155.97
156.667
157.48
158.406
159.443
160.585
161.83
163.173
164.612
166.141
167.755
169.449
171.213
173.036
174.904
176.799
178.699
180.578
182.403
184.137
185.735
187.144
188.294
189.081
189.393
188.465
154.52
154.595
154.813
155.214
155.77
156.449
157.241
158.141
159.147
160.254
161.457
162.753
164.136
165.603
167.146
168.758
170.43
172.148
173.898
175.662
177.415
179.13
180.774
182.306
183.677
184.82
185.643
185.984
185.815
183.746
154.302
154.381
154.601
154.994
155.534
156.193
156.959
157.83
158.8
159.866
161.022
162.263
163.584
164.979
166.441
167.961
169.528
171.129
172.746
174.36
175.945
177.472
178.904
180.194
181.284
182.094
182.514
182.315
181.674
178.546
154.06
154.14
154.359
154.742
155.265
155.9
156.638
157.474
158.405
159.424
160.527
161.706
162.958
164.274
165.645
167.063
168.515
169.985
171.456
172.905
174.303
175.619
176.81
177.823
178.589
179.012
178.978
178.185
177.107
173.079
153.795
153.875
154.088
154.459
154.962
155.571
156.278
157.076
157.963
158.931
159.975
161.088
162.263
163.492
164.765
166.072
167.399
168.728
170.039
171.307
172.502
173.585
174.509
175.212
175.615
175.609
175.082
173.655
172.152
167.347
153.507
153.585
153.791
154.148
154.629
155.21
155.881
156.639
157.478
158.391
159.371
160.411
161.504
162.64
163.808
164.996
166.188
167.366
168.506
169.58
170.555
171.385
172.017
172.38
172.384
171.905
170.845
168.735
166.763
161.19
153.197
153.271
153.468
153.809
154.266
154.816
155.451
156.164
156.952
157.806
158.718
159.681
160.687
161.724
162.78
163.842
164.892
165.909
166.868
167.736
168.475
169.035
169.352
169.347
168.915
167.914
166.261
163.389
160.821
154.32
152.865
152.936
153.122
153.444
153.876
154.394
154.988
155.655
156.388
157.18
158.021
158.903
159.816
160.75
161.689
162.619
163.521
164.37
165.138
165.79
166.28
166.553
166.535
166.132
165.225
163.646
161.311
157.548
154.134
146.291
152.514
152.58
152.754
153.056
153.46
153.944
154.497
155.114
155.791
156.517
157.283
158.081
158.899
159.725
160.543
161.336
162.084
162.759
163.33
163.758
163.99
163.963
163.591
162.766
161.345
159.124
155.989
151.142
146.446
136.431
152.144
152.204
152.365
152.646
153.022
153.469
153.979
154.545
155.162
155.821
156.51
157.221
157.941
158.656
159.349
160.003
160.594
161.091
161.461
161.659
161.627
161.292
160.556
159.291
157.328
154.409
150.342
144.165
137.494
123.646
151.756
151.811
151.957
152.216
152.562
152.972
153.437
153.95
154.507
155.096
155.706
156.328
156.948
157.55
158.118
158.631
159.062
159.381
159.549
159.516
159.219
158.576
157.476
155.773
153.263
149.63
144.558
136.86
127.346
105.943
58.3835
58.3197
58.1228
57.7772
57.2726
56.6163
55.8389
54.977
54.0562
53.0857
52.055
50.9342
49.6916
48.305
46.7556
45.0312
43.1242
41.04
38.797
36.4174
33.9261
31.3491
28.6989
25.9539
23.0723
20.0098
16.7121
13.0747
8.90034
3.81628
58.2937
58.2277
58.0313
57.6916
57.1962
56.5553
55.8002
54.9656
54.0752
53.1283
52.1031
50.981
49.7408
48.3549
46.8036
45.0761
43.1623
41.0677
38.8155
36.4268
33.9267
31.341
28.6768
25.9125
23.0109
19.9176
16.5675
12.8546
8.57828
3.39094
58.2031
58.1493
57.9513
57.6176
57.1387
56.5269
55.811
55.0192
54.1591
53.2259
52.2126
51.0961
49.8505
48.454
46.8875
45.1402
43.207
41.0952
38.8237
36.4145
33.8919
31.2789
28.5812
25.7781
22.834
19.6971
16.2927
12.5143
8.18041
3.01572
58.1376
58.1065
57.9106
57.5892
57.137
56.5678
55.9018
55.1505
54.3174
53.4048
52.402
51.2829
50.0222
48.6007
47.0025
45.2187
43.248
41.0993
38.7902
36.3423
33.7783
31.1176
28.3677
25.5111
22.5114
19.3189
15.8652
12.0523
7.7239
2.71156
58.1166
58.1159
57.9299
57.6286
57.209
56.6853
56.0664
55.3556
54.5575
53.668
52.6689
51.537
50.2502
48.791
47.1465
45.3109
43.2861
41.0827
38.7187
36.2157
33.5941
30.8698
28.0525
25.1302
22.0685
18.8214
15.3268
11.4975
7.21937
2.4611
58.1526
58.1832
58.0122
57.7347
57.3514
56.8726
56.3
55.6356
54.8749
54.0042
53.0039
51.8523
50.5298
49.021
47.3164
45.4134
43.3169
41.04
38.6024
36.0264
33.3318
30.5322
27.6391
24.647
21.5264
18.2355
14.7174
10.8951
6.7059
2.23948
58.2467
58.2965
58.1425
57.8918
57.5504
57.121
56.6029
55.9876
55.2613
54.4057
53.4
52.2231
50.857
49.2889
47.512
45.5273
43.3435
40.9767
38.4489
35.7843
33.0041
30.1215
27.1465
24.083
20.9101
17.5886
14.0658
10.2744
6.20387
2.03796
58.382
58.4326
58.3038
58.0897
57.7992
57.4294
56.9692
56.4028
55.7095
54.8672
53.8532
52.6466
51.2307
49.5948
47.7353
45.6569
43.372
40.9004
38.2674
35.5
32.6222
29.6499
26.5923
23.4597
20.2409
16.9019
13.3922
9.65328
5.7221
1.85254
58.5272
58.5832
58.4864
58.3224
58.0926
57.7883
57.3906
56.8753
56.2161
55.3867
54.3627
53.1232
51.6524
49.9418
47.9911
45.8086
43.4109
40.8218
38.0703
35.1874
32.2013
29.1321
25.9922
22.7941
19.536
16.1912
12.7099
9.04162
5.26366
1.68121
58.6507
58.736
58.6778
58.5737
58.4187
58.1919
57.8644
57.4048
56.7819
55.966
54.9311
53.6559
52.1261
50.3355
48.2867
45.9916
43.471
40.7531
37.8716
34.862
31.7578
28.5851
25.3616
22.1004
18.8094
15.4678
12.0272
8.44409
4.82863
1.52245
58.7253
58.8582
58.8536
58.8351
58.7768
58.6433
58.396
57.9975
57.4131
56.6108
55.5635
54.2503
52.6582
50.7832
48.6308
46.2163
43.5645
40.7084
37.6865
34.5399
31.3078
28.0237
24.7124
21.3914
18.072
14.7396
11.349
7.86203
4.41542
1.37471
58.7034
58.9169
59.0076
59.1122
59.1778
59.1555
58.9986
58.6655
58.1199
57.3296
56.2675
54.9135
53.256
51.2929
49.0325
46.4932
43.7036
40.7014
37.5302
34.2368
30.8676
27.4635
24.0581
20.6765
17.3298
14.0124
10.6774
7.29464
4.02133
1.23624
58.5155
58.8893
59.1508
59.4264
59.6474
59.754
59.6938
59.4256
58.9152
58.1323
57.0509
55.652
53.9254
51.8713
49.4999
46.832
43.8997
40.7455
37.4178
33.9696
30.4544
26.9211
23.4118
19.9612
16.5897
13.2895
10.0129
6.73945
3.64249
1.10495
58.0392
58.7776
59.3215
59.8211
60.2307
60.4779
60.5104
60.2967
59.8109
59.0262
57.9181
56.4687
54.6693
52.5216
50.0378
47.2395
44.162
40.8522
37.3632
33.753
30.0828
26.4106
22.7866
19.2569
15.8543
12.5683
9.35474
6.19255
3.27378
0.97849
56.861
58.7196
59.602
60.3716
60.9982
61.3775
61.4764
61.2922
60.812
60.0115
58.8666
57.36
55.4837
53.2411
50.6454
47.7171
44.4939
41.0281
37.3759
33.5986
29.7659
25.946
22.1961
18.5728
15.1226
11.8481
8.69747
5.64946
2.90932
0.854448
151.345
151.393
151.524
151.759
152.074
152.445
152.863
153.322
153.815
154.332
154.86
155.39
155.907
156.395
156.833
157.201
157.471
157.609
157.572
157.308
156.747
155.8
154.346
152.222
149.199
144.914
138.929
129.861
117.161
78.9388
150.904
150.947
151.061
151.271
151.553
151.882
152.251
152.653
153.08
153.521
153.965
154.401
154.811
155.18
155.487
155.708
155.815
155.77
155.53
155.038
154.222
152.987
151.208
148.717
145.285
140.562
134.123
124.817
113.222
100.911
150.439
150.474
150.571
150.754
151.002
151.289
151.606
151.949
152.308
152.672
153.029
153.368
153.671
153.92
154.093
154.168
154.113
153.889
153.452
152.743
151.69
150.199
148.149
145.387
141.718
136.891
130.711
122.851
114.356
108.428
149.949
149.977
150.056
150.212
150.423
150.665
150.93
151.212
151.502
151.787
152.057
152.298
152.492
152.621
152.663
152.593
152.38
151.984
151.361
150.454
149.191
147.488
145.237
142.315
138.586
133.909
128.244
121.52
113.849
106.106
149.435
149.455
149.515
149.643
149.817
150.014
150.226
150.446
150.665
150.87
151.052
151.195
151.281
151.292
151.205
150.995
150.631
150.075
149.282
148.199
146.762
144.897
142.517
139.533
135.859
131.419
126.191
120.132
113.177
106.023
148.899
148.911
148.952
149.05
149.186
149.338
149.496
149.653
149.8
149.927
150.021
150.067
150.046
149.941
149.73
149.388
148.883
148.179
147.235
146.005
144.431
142.454
140.008
137.032
133.474
129.291
124.477
119.053
113.069
107.049
148.342
148.345
148.366
148.435
148.533
148.639
148.742
148.836
148.912
148.96
148.967
148.918
148.794
148.579
148.25
147.783
147.149
146.314
145.242
143.891
142.217
140.172
137.708
134.787
131.378
127.466
123.065
118.228
113.022
107.757
147.766
147.76
147.76
147.8
147.86
147.919
147.968
147.999
148.006
147.976
147.898
147.756
147.533
147.213
146.774
146.192
145.442
144.494
143.316
141.874
140.132
138.053
135.608
132.771
129.53
125.885
121.863
117.514
112.896
108.22
147.172
147.157
147.137
147.146
147.169
147.182
147.177
147.146
147.084
146.979
146.819
146.588
146.272
145.853
145.312
144.628
143.777
142.734
141.471
139.962
138.178
136.095
133.693
130.958
127.89
124.498
120.81
116.875
112.742
108.575
146.564
146.54
146.499
146.478
146.463
146.431
146.372
146.282
146.154
145.976
145.736
145.421
145.018
144.508
143.875
143.101
142.163
141.041
139.714
138.159
136.357
134.289
131.947
129.324
126.425
123.266
119.876
116.295
112.571
108.827
145.943
145.91
145.848
145.799
145.746
145.67
145.559
145.411
145.218
144.97
144.656
144.263
143.778
143.186
142.472
141.619
140.609
139.425
138.05
136.467
134.663
132.627
130.354
127.846
125.11
122.164
119.035
115.759
112.374
108.979
145.312
145.27
145.189
145.11
145.021
144.901
144.741
144.537
144.283
143.969
143.585
143.12
142.561
141.895
141.11
140.189
139.12
137.888
136.48
134.885
133.092
131.098
128.901
126.505
123.922
121.168
118.268
115.252
112.153
109.048
144.675
144.624
144.523
144.416
144.292
144.131
143.923
143.666
143.354
142.979
142.53
141.998
141.373
140.642
139.795
138.818
137.702
136.434
135.006
133.409
131.638
129.692
127.573
125.286
122.843
120.261
117.562
114.77
111.911
109.051
144.036
143.975
143.854
143.721
143.563
143.362
143.109
142.802
142.436
142.003
141.496
140.904
140.22
139.432
138.532
137.51
136.356
135.063
133.625
132.037
130.294
128.4
126.357
124.173
121.86
119.431
116.907
114.308
111.654
109
143.396
143.326
143.187
143.028
142.838
142.599
142.304
141.951
141.535
141.05
140.488
139.843
139.107
138.27
137.326
136.267
135.086
133.778
132.337
130.763
129.054
127.212
125.244
123.157
120.96
118.668
116.297
113.864
111.386
108.908
142.761
142.682
142.526
142.342
142.122
141.847
141.513
141.117
140.655
140.122
139.513
138.821
138.039
137.161
136.181
135.093
133.892
132.575
131.139
129.584
127.91
126.122
124.225
122.226
120.135
117.965
115.727
113.439
111.112
108.785
142.135
142.047
141.874
141.666
141.418
141.111
140.74
140.305
139.801
139.226
138.574
137.841
137.02
136.108
135.099
133.989
132.775
131.455
130.028
128.495
126.859
125.122
123.292
121.374
119.378
117.315
115.195
113.032
110.836
108.639
141.521
141.425
141.236
141.007
140.732
140.395
139.991
139.52
138.979
138.365
137.676
136.907
136.054
135.113
134.081
132.955
131.734
130.416
129.002
127.493
125.894
124.207
122.438
120.594
118.683
116.715
114.698
112.644
110.563
108.479
140.924
140.82
140.616
140.367
140.068
139.704
139.27
138.767
138.192
137.545
136.824
136.025
135.144
134.18
133.131
131.994
130.769
129.457
128.058
126.574
125.01
123.37
121.658
119.881
118.047
116.162
114.236
112.278
110.295
108.309
140.349
140.238
140.02
139.753
139.432
139.042
138.582
138.05
137.446
136.77
136.021
135.196
134.293
133.311
132.248
131.105
129.88
128.576
127.193
125.735
124.205
122.608
120.948
119.232
117.465
115.655
113.808
111.933
110.036
108.136
139.801
139.683
139.452
139.168
138.828
138.416
137.931
137.373
136.744
136.044
135.271
134.425
133.504
132.507
131.436
130.288
129.067
127.772
126.406
124.972
123.475
121.918
120.305
118.643
116.936
115.191
113.414
111.612
109.79
107.964
139.285
139.16
138.918
138.619
138.261
137.829
137.323
136.743
136.092
135.371
134.578
133.714
132.779
131.772
130.694
129.545
128.328
127.044
125.695
124.285
122.818
121.297
119.727
118.112
116.459
114.771
113.055
111.316
109.56
107.799
138.806
138.675
138.423
138.109
137.736
137.287
136.762
136.163
135.494
134.754
133.946
133.068
132.121
131.106
130.024
128.877
127.665
126.392
125.06
123.671
122.231
120.743
119.211
117.639
116.032
114.394
112.731
111.047
109.347
107.642
138.37
138.234
137.971
137.646
137.258
136.794
136.253
135.638
134.953
134.199
133.377
132.488
131.533
130.512
129.429
128.283
127.078
125.816
124.499
123.131
121.716
120.257
118.758
117.223
115.656
114.062
112.444
110.808
109.156
107.5
137.983
137.842
137.57
137.233
136.833
136.356
135.801
135.173
134.475
133.709
132.876
131.978
131.017
129.993
128.908
127.766
126.567
125.315
124.013
122.663
121.27
119.836
118.366
116.863
115.331
113.773
112.195
110.598
108.988
107.372
137.652
137.505
137.224
136.876
136.465
135.978
135.412
134.773
134.064
133.289
132.448
131.543
130.577
129.551
128.468
127.328
126.136
124.894
123.604
122.27
120.896
119.484
118.039
116.563
115.06
113.533
111.987
110.425
108.849
107.268
137.383
137.23
136.938
136.58
136.16
135.663
135.088
134.44
133.723
132.94
132.093
131.184
130.215
129.188
128.105
126.969
125.783
124.549
123.27
121.95
120.591
119.198
117.772
116.318
114.839
113.337
111.817
110.282
108.734
107.179
137.187
137.022
136.719
136.353
135.926
135.423
134.841
134.186
133.463
132.675
131.823
130.911
129.939
128.912
127.831
126.698
125.517
124.29
123.021
121.711
120.365
118.987
117.577
116.141
114.681
113.199
111.701
110.187
108.662
107.13
137.077
136.882
136.56
136.188
135.758
135.25
134.664
134.005
133.278
132.487
131.633
130.719
129.747
128.72
127.64
126.51
125.333
124.111
122.848
121.545
120.208
118.839
117.441
116.016
114.568
113.099
111.614
110.114
108.603
107.083
137.086
136.838
136.492
136.114
135.679
135.168
134.578
133.916
133.187
132.394
131.539
130.625
129.653
128.627
127.55
126.423
125.25
124.033
122.775
121.479
120.149
118.788
117.398
115.982
114.544
113.085
111.61
110.121
108.62
107.111
-17.0449
9.45551
37.1102
89.2145
85.2239
79.9218
97.9174
89.1485
82.7057
95.8168
89.5077
85.3808
98.7724
94.1088
90.5134
101.327
97.4191
94.1593
102.835
99.4761
96.6332
103.939
101.031
98.5519
104.806
102.243
100.047
105.455
103.158
101.187
105.924
103.84
102.051
106.252
104.343
102.703
106.47
104.704
103.19
106.6
104.955
103.546
106.661
105.119
103.8
106.669
105.215
103.974
106.637
105.26
104.086
106.575
105.265
104.149
106.492
105.24
104.176
106.394
105.194
104.175
106.289
105.135
104.155
106.182
105.067
104.122
106.077
104.997
104.082
105.979
104.93
104.041
105.89
104.867
104
105.818
104.818
103.97
105.755
104.773
103.94
105.73
104.763
103.941
105.695
104.74
103.928
105.741
104.797
103.989
59.184
59.6252
59.9946
61.1694
62.0528
62.5215
62.6301
62.4357
61.9336
61.0955
59.8976
58.3234
56.3654
54.0285
51.3284
48.2765
44.9083
41.2882
37.4738
33.5249
29.5205
25.5419
21.649
17.9104
14.3908
11.1102
8.02064
5.09194
2.53263
0.726882
69.9885
63.1233
62.9448
63.792
64.1128
64.1012
63.9744
63.7032
63.1581
62.265
60.9991
59.347
57.3025
54.8703
52.0631
48.8938
45.3973
41.6422
37.6755
33.5469
29.3599
25.2125
21.1536
17.2705
13.655
10.3376
7.29863
4.49898
2.13262
0.585096
74.7613
68.3168
66.5736
66.1996
65.9566
65.808
65.6279
65.2133
64.4948
63.4703
62.1105
60.3748
58.2447
55.7206
52.8139
49.541
45.9361
42.0554
37.9402
33.6529
29.3152
24.9893
20.7259
16.6643
12.9257
9.52992
6.52828
3.87061
1.7017
0.414123
80
74.4307
71.3351
69.5843
68.4246
67.6416
67.0659
66.4883
65.7229
64.64
63.1853
61.3505
59.1322
56.5261
53.5368
50.1796
46.4853
42.5007
38.2711
33.863
29.3729
24.8512
20.3983
16.1879
12.2567
8.70372
5.67671
3.14954
1.1924
0.211391
85.5958
80.303
76.3193
73.4764
71.4307
69.9248
68.7644
67.7607
66.7343
65.5311
64.0317
62.1607
59.891
57.2254
54.1765
50.7606
47.0046
42.9492
38.6409
34.1425
29.5337
24.8795
20.2846
15.8768
11.6952
7.96674
4.89073
2.44917
0.744007
0.00490278
89.8504
85.0394
80.7464
77.2628
74.5605
72.4395
70.7102
69.2089
67.7851
66.3026
64.6411
62.7008
60.4106
57.735
54.6705
51.2335
47.4521
43.3646
39.0164
34.4663
29.7879
25.0549
20.3638
15.8267
11.5363
7.69859
4.49392
2.00935
0.538449
-0.151748
92.9813
88.7254
84.475
80.7065
77.5836
74.9904
72.7734
70.8042
68.9634
67.1355
65.2138
63.1041
60.7285
58.0293
54.9738
51.5557
47.7917
43.7153
39.3707
34.8145
30.1167
25.3543
20.622
16.0346
11.7149
7.84089
4.58964
2.0979
0.566305
-0.350741
95.4002
91.6092
87.5509
83.7232
80.3751
77.4581
74.8626
72.4966
70.273
68.1
65.8868
63.5502
61.0181
58.2324
55.1504
51.748
48.0223
43.9916
39.6918
35.1746
30.5066
25.7653
21.0461
16.4647
12.1532
8.27601
5.00222
2.46123
0.758551
-0.444949
97.2654
93.8486
90.0378
86.2849
82.8601
79.7568
76.9015
74.2331
71.6924
69.212
66.7199
64.1458
61.4265
58.5091
55.3521
51.927
48.2211
44.239
40.0037
35.5568
30.9574
26.2805
21.6188
17.0851
12.8095
8.94245
5.63401
2.99315
1.08132
-0.410418
98.6917
95.5834
92.0282
88.4192
85.0169
81.837
78.8303
75.9572
73.1805
70.4541
67.7239
64.9338
62.0311
58.97
55.7131
52.2337
48.5168
44.5616
40.3826
36.0115
31.4978
26.909
22.3313
17.8698
13.6454
9.79151
6.43529
3.66565
1.52258
-0.267425
99.7862
96.9362
93.6213
90.1824
86.8612
83.6821
80.6101
77.6192
74.6877
71.7854
68.8738
65.9096
62.8509
59.6598
56.3045
52.7614
49.0166
45.0682
40.9271
36.6189
32.1855
27.6857
23.196
18.81
14.635
10.785
7.36526
4.44634
2.05557
-0.0438419
100.628
97.9976
94.8998
91.6349
88.4249
85.2964
82.2214
79.1821
76.1665
73.1559
70.1231
67.0359
63.8618
60.5707
57.1366
53.5397
49.7683
45.8205
41.7058
37.4466
33.0791
28.6546
24.2396
19.915
15.7722
11.9061
8.4018
5.31428
2.66249
0.244572
101.274
98.8324
95.9285
92.8311
89.7451
86.6964
83.6603
80.6234
77.5796
74.5177
71.4187
68.2588
65.0134
61.6592
58.1755
54.5462
50.7619
46.8212
42.7328
38.5162
34.2032
29.8384
25.4789
21.1933
17.0581
13.1505
9.53813
6.26343
3.33948
0.598529
101.766
99.4891
96.758
93.8173
90.8579
87.9043
84.9333
81.9336
78.902
75.8325
72.712
69.5228
66.2464
62.865
59.3624
55.726
51.948
48.0277
43.9726
39.7997
35.5361
31.22
26.8997
22.6327
18.4815
14.5087
10.7674
7.29034
4.08675
1.02537
102.137
100.004
97.4275
94.6315
91.796
88.9439
86.0528
83.1119
80.1198
77.0738
73.965
70.7801
67.5051
64.1265
60.6319
57.0112
53.2582
49.3725
45.3601
41.2351
37.0202
32.747
28.4554
24.1924
20.0087
15.9538
12.0697
8.38167
4.89659
1.52327
102.413
100.407
97.9677
95.3044
92.587
89.8373
87.033
84.1633
81.2278
78.226
75.1516
71.9946
68.7444
65.3908
61.9242
58.3366
54.623
50.7828
46.8206
42.7475
38.5815
34.3481
30.079
25.8115
21.5858
17.4405
13.4082
9.50835
5.74601
2.07137
102.613
100.718
98.4025
95.8603
93.2538
90.6037
87.888
85.0954
82.2264
79.2813
76.2556
73.1417
69.9316
66.6176
63.1921
59.6486
55.983
52.1943
48.2858
44.2656
40.1475
35.9506
31.6996
27.4229
23.1511
18.9136
14.7347
10.6288
6.59855
2.63273
102.754
100.957
98.7513
96.3189
93.8151
91.2599
88.6312
85.9177
83.1197
80.2379
77.269
74.207
71.0458
67.7794
64.402
60.908
57.2936
53.5578
49.7023
45.7327
41.6585
37.4938
33.2563
28.9669
24.6477
20.3199
16.0003
11.6984
7.41333
3.16548
102.848
101.137
99.0295
96.6965
94.287
91.8207
89.2755
86.6398
83.9134
81.0974
78.189
75.183
72.0746
68.8597
65.533
62.0895
58.5258
54.8405
51.0341
47.1097
43.0734
38.9346
34.7054
30.3997
26.0325
21.6176
17.1652
12.6796
8.15561
3.63551
102.906
101.271
99.2502
97.0065
94.6831
92.2989
89.8322
87.2708
84.6144
81.8639
79.0163
76.0669
73.0125
69.8496
66.5733
63.1786
59.6626
56.0234
52.2602
48.3741
44.3684
40.2485
36.0214
31.6956
27.2798
22.7814
18.2047
13.5488
8.80376
4.02395
102.937
101.368
99.4241
97.2604
95.0145
92.7054
90.3113
87.8198
85.2301
82.5423
79.7533
76.8594
73.8581
70.7456
67.5171
64.1683
60.6958
57.0973
53.3709
49.5161
45.5335
41.4253
37.1945
32.8449
28.38
23.8019
19.1095
14.2972
9.35072
4.32784
102.949
101.436
99.5605
97.4677
95.2913
93.0499
90.722
88.295
85.7671
83.138
80.4046
77.5639
74.6128
71.5476
68.3636
65.0567
61.6234
58.0602
54.3645
50.5342
46.568
42.4653
38.2259
33.8497
29.3359
24.6821
19.883
14.9288
9.80159
4.55636
102.947
101.483
99.6667
97.6364
95.5215
93.3404
91.0721
88.7034
86.2318
83.6565
80.9748
78.1835
75.2788
72.257
69.1138
65.8448
62.4458
58.9129
55.2424
51.431
47.4757
43.3737
39.122
34.7176
30.1561
25.4316
20.5353
15.454
10.1674
4.72367
102.938
101.516
99.7505
97.7748
95.7137
93.5856
91.3699
89.053
86.6317
84.1051
81.4703
78.7237
75.861
72.8785
69.7719
66.5364
63.1674
59.6602
56.0103
52.2134
48.2649
44.1602
39.8943
35.4615
30.8549
26.0657
21.0823
15.8891
10.464
4.84637
102.925
101.537
99.8156
97.8866
95.8718
93.7895
91.6195
89.3478
86.9706
84.4868
81.8935
79.1863
76.3608
73.413
70.3383
67.1319
63.7885
60.3029
56.6697
52.8836
48.9389
44.8295
40.5487
36.0887
31.4407
26.5935
21.5334
16.2432
10.6999
4.93358
102.916
101.557
99.8721
97.9827
96.007
93.9635
91.8323
89.5992
87.2598
84.8129
82.2552
79.582
76.7887
73.8708
70.8237
67.6422
64.3207
60.8531
57.2335
53.4557
49.5131
45.3983
41.1033
36.6188
31.9342
27.0368
21.9112
16.5388
10.8959
5.00191
102.906
101.569
99.9137
98.0562
96.1123
94.1004
92.0008
89.799
87.4908
85.0742
82.5456
79.9004
77.1335
74.2401
71.2155
68.0542
64.7501
61.2967
57.6874
53.9155
49.9734
45.8529
41.5449
37.039
32.3231
27.3833
22.203
16.7625
11.0385
5.04158
102.918
101.597
99.9656
98.1336
96.2147
94.2277
92.1533
89.9767
87.6934
85.3012
82.7962
80.1735
77.428
74.5546
71.5484
68.4035
65.1136
61.6717
58.071
54.304
50.3626
46.2379
41.92
37.3973
32.6571
27.6841
22.4607
16.9661
11.1758
5.08713
102.917
101.606
99.9894
98.1747
96.2728
94.3022
92.2443
90.0844
87.8176
85.4413
82.9519
80.3441
77.6126
74.7524
71.7581
68.6238
65.3429
61.9082
58.3125
54.548
50.6062
46.4777
42.1518
37.6167
32.8586
27.8614
22.6067
17.0728
11.2353
5.0857
102.975
101.666
100.06
98.258
96.3679
94.4086
92.362
90.2136
87.958
85.5927
83.1139
80.5164
77.7946
74.9435
71.9576
68.8308
65.5565
62.1273
58.5358
54.7741
50.8334
46.7039
42.3749
37.8339
33.0667
28.0567
22.784
17.2245
11.348
5.11983
)
;

boundaryField
{
    inlet
    {
        type            zeroGradient;
    }
    outlet
    {
        type            fixedValue;
        value           uniform 0;
    }
    flap
    {
        type            zeroGradient;
    }
    upperWall
    {
        type            zeroGradient;
    }
    lowerWall
    {
        type            zeroGradient;
    }
    frontAndBack
    {
        type            empty;
    }
}


// ************************************************************************* //
