/*--------------------------------*- C++ -*----------------------------------*\
| =========                 |                                                 |
| \\      /  F ield         | OpenFOAM: The Open Source CFD Toolbox           |
|  \\    /   O peration     | Version:  dev                                   |
|   \\  /    A nd           | Web:      www.OpenFOAM.org                      |
|    \\/     M anipulation  |                                                 |
\*---------------------------------------------------------------------------*/
FoamFile
{
    version     2.0;
    format      ascii;
    class       surfaceScalarField;
    location    "1.14";
    object      phi;
}
// * * * * * * * * * * * * * * * * * * * * * * * * * * * * * * * * * * * * * //

dimensions      [0 3 -1 0 0 0 0];

internalField   nonuniform List<scalar> 
5457
(
0.19777
0.00222452
0.195447
0.00232234
0.19298
0.0024736
0.190311
0.00268116
0.18743
0.00289763
0.184333
0.00311598
0.181012
0.00333988
0.177455
0.00357413
0.173644
0.00382313
0.169561
0.00408962
0.165187
0.00437463
0.1605
0.00468089
0.155478
0.00501136
0.150096
0.00536754
0.144326
0.00575238
0.138139
0.00616875
0.131502
0.0066192
0.12438
0.0071051
0.116739
0.00762685
0.108544
0.00818426
0.0997597
0.00877599
0.0903551
0.00939921
0.0803025
0.0100491
0.0695819
0.0107184
0.0581854
0.0113952
0.0461218
0.012063
0.0334184
0.0127031
0.0201473
0.0132709
0.00659267
0.0135546
0.00659266
0.199583
0.00263557
0.19858
0.0033249
0.1973
0.00375899
0.195767
0.0042271
0.193969
0.00471236
0.191902
0.00520218
0.18956
0.00570062
0.186935
0.00621691
0.18401
0.00676016
0.180774
0.00733339
0.177205
0.00794413
0.173282
0.00859795
0.168986
0.00929661
0.164293
0.0100461
0.159175
0.0108523
0.153604
0.0117215
0.147545
0.0126604
0.14096
0.0136736
0.133809
0.0147631
0.126051
0.0159311
0.11764
0.0171782
0.108531
0.0185034
0.0986729
0.0199033
0.0880132
0.0213758
0.0764931
0.0229139
0.0640518
0.0245035
0.0506284
0.026126
0.036163
0.0277361
0.0203097
0.0294078
0.0269023
0.199441
0.00318846
0.198513
0.00425205
0.197308
0.00496985
0.195871
0.00567568
0.194201
0.00639956
0.19229
0.00713282
0.190133
0.00787767
0.18772
0.00864674
0.18504
0.00945379
0.182077
0.0103032
0.178817
0.0112058
0.17524
0.0121693
0.171329
0.0131977
0.167059
0.0143005
0.162407
0.0154869
0.157344
0.0167657
0.151834
0.018152
0.145835
0.0196558
0.139302
0.021282
0.132181
0.02304
0.124412
0.024939
0.115921
0.0269886
0.106624
0.0291969
0.0964135
0.0315836
0.0851439
0.0341818
0.0726006
0.0370459
0.05848
0.0402461
0.0423469
0.0438689
0.0231259
0.0486287
0.0500281
0.199347
0.00383484
0.198423
0.00517481
0.197233
0.00616538
0.195811
0.00710968
0.194163
0.00806458
0.192286
0.00903018
0.190172
0.0100117
0.187811
0.0110251
0.185194
0.0120843
0.182309
0.0131969
0.179142
0.0143743
0.17568
0.0156262
0.171906
0.0169614
0.1678
0.0183919
0.163339
0.01993
0.158499
0.0215877
0.153248
0.0233845
0.147547
0.0253397
0.141345
0.027469
0.134582
0.0297912
0.127183
0.0323285
0.119055
0.0351113
0.110066
0.0381808
0.100057
0.0415904
0.0888134
0.0454233
0.0760164
0.0498417
0.0611447
0.055117
0.0435299
0.0614832
0.0229339
0.0692246
0.0729619
0.1993
0.00452814
0.198365
0.00610757
0.197185
0.00735122
0.195776
0.00853074
0.194146
0.0097116
0.192294
0.010902
0.19021
0.012116
0.187883
0.0133712
0.185303
0.0146777
0.182462
0.0160473
0.179345
0.0174931
0.175941
0.0190267
0.172232
0.0206601
0.1682
0.0224098
0.163821
0.0242914
0.15907
0.0263203
0.153921
0.0285145
0.148341
0.0309023
0.142272
0.0335233
0.135642
0.0364081
0.128369
0.0395919
0.120342
0.0431316
0.111408
0.0471099
0.101342
0.0516535
0.0898525
0.0569105
0.0766153
0.0630771
0.0611303
0.0706008
0.0426226
0.0799903
0.0217291
0.0901177
0.0946909
0.199277
0.00524344
0.198335
0.00704759
0.197166
0.0085251
0.195776
0.00993265
0.194171
0.0113346
0.192345
0.0127476
0.190291
0.0141911
0.187999
0.0156824
0.18546
0.0172321
0.182661
0.0188553
0.179591
0.0205666
0.176235
0.0223793
0.172578
0.0243076
0.168599
0.0263751
0.164272
0.0286014
0.159572
0.0310026
0.154466
0.0336011
0.148918
0.036433
0.142872
0.0395542
0.13625
0.0430164
0.128955
0.0468768
0.12085
0.0512291
0.111771
0.0561836
0.101494
0.0619259
0.0896648
0.0687371
0.075893
0.0768467
0.0598729
0.0866195
0.0409521
0.09891
0.0202675
0.110802
0.114958
0.199267
0.00596812
0.198325
0.00798686
0.197172
0.0096835
0.195805
0.0113111
0.194228
0.0129291
0.192435
0.0145618
0.190417
0.01623
0.188168
0.0179513
0.185675
0.0197404
0.182927
0.0216144
0.179908
0.0235893
0.176605
0.0256806
0.172998
0.0279062
0.169068
0.030292
0.164789
0.032864
0.16013
0.035643
0.155053
0.038659
0.149509
0.0419593
0.14344
0.0456071
0.136767
0.0496761
0.129377
0.0542555
0.121125
0.0594732
0.111798
0.0655036
0.101178
0.0725417
0.0889815
0.0809294
0.0747544
0.091071
0.0582806
0.103091
0.0391366
0.118053
0.0188595
0.131078
0.133817
0.199266
0.00669315
0.198329
0.00892043
0.197193
0.0108246
0.195853
0.0126628
0.194309
0.0144906
0.192554
0.0163375
0.190581
0.0182248
0.188381
0.0201715
0.185943
0.0221955
0.183253
0.0243166
0.180294
0.0265527
0.177051
0.0289232
0.173499
0.031451
0.169624
0.0341548
0.1654
0.0370718
0.160786
0.0402391
0.15574
0.0436867
0.150205
0.0474758
0.144115
0.0516814
0.13738
0.0563963
0.129872
0.0617521
0.121442
0.0678936
0.111891
0.0750473
0.100924
0.0835025
0.0883079
0.093541
0.0736974
0.105678
0.0568754
0.11991
0.0376098
0.137316
0.017785
0.150902
0.151602
0.199272
0.0074118
0.198344
0.00984437
0.197228
0.0119446
0.195919
0.0139835
0.194412
0.0160144
0.192702
0.0180689
0.19078
0.0201695
0.188637
0.0223359
0.186261
0.0245895
0.183638
0.0269528
0.180752
0.0294456
0.177581
0.0320945
0.174102
0.0349238
0.170295
0.0379505
0.166134
0.0412183
0.161579
0.0447768
0.15658
0.0486675
0.151068
0.0529694
0.144971
0.0577619
0.138196
0.0631568
0.130607
0.069328
0.122025
0.0764652
0.112269
0.0847949
0.101054
0.0947098
0.0880611
0.106529
0.0730791
0.120655
0.0560121
0.136974
0.036747
0.156579
0.0173195
0.170328
0.168921
0.199281
0.00811967
0.198369
0.0107521
0.197279
0.0130381
0.196006
0.0152682
0.194543
0.0174948
0.192883
0.0197499
0.191019
0.0220569
0.18894
0.0244368
0.186635
0.0269143
0.184087
0.0295143
0.18128
0.0322615
0.178191
0.0351849
0.174802
0.0383095
0.171079
0.0416634
0.166999
0.0452841
0.162526
0.0492333
0.157594
0.053582
0.152137
0.0584078
0.146081
0.0638014
0.139307
0.0699153
0.131688
0.0769339
0.123052
0.0850899
0.113149
0.094687
0.10176
0.10609
0.0885597
0.119722
0.0733373
0.135872
0.0561257
0.154181
0.0369637
0.175738
0.0177769
0.189514
0.186698
0.199294
0.00881362
0.198403
0.0116385
0.197343
0.0141011
0.196109
0.0165131
0.194694
0.0189267
0.193092
0.0213744
0.191292
0.0238803
0.189285
0.0264666
0.187058
0.0291618
0.184594
0.0319944
0.181873
0.0349927
0.178881
0.0381806
0.175596
0.0415915
0.171986
0.0452662
0.168017
0.0492405
0.163648
0.053586
0.158814
0.0583991
0.153457
0.0637481
0.147497
0.0697439
0.140812
0.0765852
0.133252
0.0844795
0.124661
0.0936681
0.114784
0.104552
0.103399
0.117465
0.0902426
0.13287
0.0750364
0.151071
0.0577937
0.171418
0.0388337
0.194695
0.0196543
0.208692
0.206352
0.199309
0.00949168
0.198441
0.0124998
0.197415
0.0151296
0.196225
0.0177137
0.194864
0.0203053
0.193324
0.0229368
0.191596
0.0256326
0.18967
0.028416
0.187531
0.0313226
0.18516
0.0343827
0.182544
0.0376206
0.179666
0.0410647
0.176501
0.0447561
0.173024
0.0487371
0.169189
0.053065
0.164951
0.0578103
0.160268
0.0630654
0.155078
0.0689215
0.149278
0.0755269
0.142771
0.0830766
0.135419
0.0918173
0.127035
0.102037
0.117434
0.11414
0.106372
0.128516
0.0935806
0.145651
0.0787978
0.165845
0.0619206
0.188289
0.0434172
0.213194
0.0239395
0.228168
0.230291
0.199327
0.0101499
0.198488
0.0133314
0.197501
0.0161188
0.19636
0.018865
0.195058
0.021625
0.193585
0.0244311
0.191936
0.0273067
0.190097
0.0302803
0.188051
0.0333911
0.185787
0.0366664
0.183292
0.0401292
0.18054
0.0438243
0.177512
0.0477865
0.174183
0.0520616
0.170513
0.0567261
0.166456
0.0618558
0.161976
0.0675304
0.157019
0.0738624
0.151479
0.0810515
0.145252
0.0892877
0.13825
0.0988043
0.130305
0.109966
0.12128
0.12315
0.110963
0.13882
0.099095
0.157507
0.0854901
0.17944
0.0699117
0.203861
0.0526175
0.230485
0.03276
0.248024
0.263051
0.199349
0.0107852
0.198542
0.0141299
0.197597
0.017065
0.196508
0.0199631
0.195269
0.0228818
0.19387
0.0258523
0.192303
0.0288982
0.190555
0.0320539
0.188614
0.0353571
0.186469
0.038832
0.184104
0.0425104
0.181497
0.0464414
0.178632
0.0506549
0.175478
0.0552148
0.172003
0.0601949
0.168181
0.0656665
0.163967
0.0717317
0.159291
0.0785244
0.154099
0.0862274
0.148311
0.0950615
0.141848
0.105252
0.134614
0.117183
0.126533
0.131215
0.117488
0.147849
0.107375
0.167607
0.0961531
0.190652
0.0835802
0.216426
0.0696836
0.244378
0.0507801
0.266927
0.313832
0.199367
0.0114
0.198592
0.0148953
0.19769
0.0179672
0.196655
0.0210074
0.195479
0.0240753
0.194154
0.0271996
0.192673
0.0304046
0.191023
0.0337307
0.189191
0.0372139
0.187169
0.0408765
0.184939
0.0447579
0.18249
0.0489036
0.179798
0.0533534
0.176837
0.0581769
0.173582
0.0634461
0.170013
0.0692274
0.166099
0.0756343
0.161774
0.0828367
0.157017
0.09097
0.1518
0.100265
0.146058
0.110977
0.139792
0.12343
0.133023
0.137967
0.125788
0.155067
0.118348
0.175032
0.111033
0.197955
0.104071
0.223381
0.0979565
0.250489
0.0879934
0.276889
0.401826
0.00657128
-0.00657226
0.0121885
-0.00562223
0.0177514
-0.00557913
0.0232275
-0.00550767
0.0284034
-0.0052176
0.0330425
-0.00467968
0.0369363
-0.00392621
0.0399252
-0.00301391
0.0418606
-0.00195722
0.0426029
-0.000761675
0.0421801
0.000406436
0.0407908
0.00137338
0.0386471
0.00212721
0.0359412
0.00268989
0.0328597
0.00306751
0.0295914
0.00325784
0.026326
0.00325992
0.0232518
0.00307458
0.0205452
0.00271344
0.018363
0.00219596
0.0168609
0.00152238
0.0162092
0.000678332
0.0165635
-0.0003221
0.0182251
-0.00162425
0.0216466
-0.0033802
0.0272656
-0.0055742
0.0355148
-0.0082017
0.0468199
-0.0112555
0.0614349
-0.0145639
-0.0183896
0.00399786
-0.0105712
0.00829961
-0.00992941
0.0126783
-0.00997463
0.0167522
-0.00961358
0.0201751
-0.00868173
0.0226562
-0.00720019
0.0240312
-0.0053326
0.0242087
-0.00321574
0.0232211
-0.000990952
0.0213619
0.00107803
0.0189039
0.00284774
0.0159231
0.00433819
0.0125096
0.00552395
0.00880088
0.00638239
0.00495306
0.00690117
0.00113377
0.00706655
-0.00248481
0.00687284
-0.00574738
0.00633737
-0.0085089
0.00548171
-0.0106201
0.00432069
-0.0119469
0.00286933
-0.0123619
0.0011197
-0.0116506
-0.0010013
-0.00963215
-0.00360557
-0.00623946
-0.00673164
-0.00138159
-0.0103874
0.00513354
-0.0146694
0.0135972
-0.0196698
0.024159
-0.0250746
-0.0307779
0.00239598
-0.0129684
0.00489685
-0.0124361
0.00734823
-0.0124433
0.00920471
-0.0115013
0.010152
-0.00966783
0.0100872
-0.00717191
0.00905107
-0.0043258
0.00717303
-0.00136106
0.00473532
0.00142579
0.00190411
0.0038896
-0.00131946
0.00605407
-0.00486667
0.00786891
-0.00866077
0.00930084
-0.0126085
0.0103135
-0.0165927
0.0108709
-0.0204893
0.0109522
-0.0241658
0.0105432
-0.0274767
0.00964808
-0.0302725
0.00828388
-0.0324121
0.00647326
-0.0337635
0.00424042
-0.0342101
0.00159228
-0.0336378
-0.001542
-0.0319807
-0.00522602
-0.0292298
-0.00944168
-0.0254174
-0.0141556
-0.0206697
-0.0193701
-0.0152579
-0.0250324
-0.00944007
-0.0308417
-0.0365227
0.00114657
-0.0141162
0.00195064
-0.0132464
0.00235529
-0.012865
0.00193703
-0.0111122
0.000651697
-0.00841724
-0.00136261
-0.00519006
-0.00394433
-0.00177083
-0.00685017
0.00152253
-0.00997202
0.00452697
-0.0133617
0.00725948
-0.0170018
0.00967626
-0.0208537
0.0117035
-0.0248627
0.013292
-0.0289527
0.0143864
-0.0330341
0.0149373
-0.0370029
0.0149096
-0.0407408
0.0142745
-0.0441185
0.013025
-0.0469992
0.0111702
-0.0492558
0.00874223
-0.050772
0.0057756
-0.0514561
0.00230168
-0.0512651
-0.00170206
-0.0502077
-0.00624753
-0.0483293
-0.0112799
-0.0457457
-0.0166955
-0.0426881
-0.0223811
-0.0395063
-0.0281656
-0.036551
-0.0337467
-0.03865
-4.49997e-05
-0.0140726
-0.000915537
-0.0123822
-0.00247073
-0.0113261
-0.00478427
-0.00882463
-0.00766346
-0.005568
-0.0109277
-0.00195387
-0.0143465
0.00162394
-0.0178276
0.00498248
-0.0214427
0.00812188
-0.0252024
0.0109993
-0.0290965
0.0135518
-0.0331162
0.0157051
-0.0372304
0.0173877
-0.0413861
0.0185244
-0.0455136
0.0190492
-0.0495183
0.0189023
-0.0532967
0.0180457
-0.0567369
0.0164637
-0.0597224
0.0141606
-0.0621423
0.0111737
-0.0639017
0.00755315
-0.0649357
0.00336005
-0.0652415
-0.00136622
-0.0648607
-0.00659319
-0.0638683
-0.0122328
-0.0624142
-0.0181066
-0.0607396
-0.0240099
-0.0591464
-0.0297108
-0.0579479
-0.0348954
-0.0390425
-0.00123728
-0.0128368
-0.00370503
-0.00992078
-0.00689648
-0.00814956
-0.0105918
-0.00515165
-0.0145538
-0.00163106
-0.0185242
0.0019926
-0.0224121
0.0054904
-0.0262834
0.00883402
-0.0301786
0.0119974
-0.0341213
0.0149221
-0.038126
0.0175373
-0.0422045
0.0197646
-0.0463443
0.0215082
-0.0505111
0.0226729
-0.0546484
0.0231703
-0.0586759
0.0229173
-0.0625076
0.0218695
-0.0660468
0.0200007
-0.0691947
0.0173126
-0.0718518
0.0138415
-0.0739313
0.00964978
-0.0753757
0.00482789
-0.0761983
-0.000514522
-0.0764654
-0.00629189
-0.0762787
-0.012381
-0.0757877
-0.0185555
-0.0752017
-0.0245509
-0.0747683
-0.0300968
-0.0747548
-0.0348598
-0.0383968
-0.00237235
-0.010466
-0.00629829
-0.00600081
-0.0107417
-0.00371924
-0.0153707
-0.000541279
-0.0198978
0.00287546
-0.0242179
0.00629257
-0.0283798
0.0096332
-0.0324278
0.0128635
-0.0364116
0.015962
-0.0403825
0.0188735
-0.0443813
0.0215165
-0.0484326
0.0237963
-0.0525387
0.0255945
-0.0566755
0.0267908
-0.0607987
0.0272769
-0.0648489
0.0269543
-0.0687511
0.0257632
-0.07242
0.0236667
-0.0757666
0.0206624
-0.0787032
0.0167878
-0.0811547
0.0121175
-0.083071
0.00676651
-0.0844429
0.000885452
-0.0853397
-0.00536191
-0.0858884
-0.0117948
-0.0862174
-0.0181853
-0.0865032
-0.0242209
-0.086951
-0.0296025
-0.0877804
-0.0339818
-0.0370378
-0.00349237
-0.00697516
-0.00857685
-0.000921706
-0.013831
0.00152391
-0.018906
0.00451859
-0.0236641
0.0076169
-0.0281204
0.0107317
-0.0323206
0.0138164
-0.0363379
0.0168632
-0.0402499
0.0198557
-0.0441269
0.0227314
-0.0480269
0.0253968
-0.0519847
0.0277339
-0.0560112
0.0296009
-0.0600961
0.0308565
-0.0642071
0.0313709
-0.068298
0.0310317
-0.0723024
0.0297586
-0.0761433
0.027504
-0.0797382
0.0242597
-0.0830044
0.0200629
-0.0858691
0.0149974
-0.0882798
0.00919853
-0.090222
0.00285459
-0.0917455
-0.00380636
-0.092963
-0.0105408
-0.0939976
-0.0171106
-0.0949981
-0.0231772
-0.0961361
-0.0284188
-0.0975906
-0.0324797
-0.0351609
-0.00455076
-0.00242584
-0.0103344
0.00485729
-0.015967
0.0071476
-0.0211614
0.00970089
-0.0258899
0.0123318
-0.0302086
0.0150359
-0.034217
0.0178094
-0.0380241
0.0206539
-0.0417284
0.0235424
-0.0454142
0.0263984
-0.0491457
0.0291085
-0.0529635
0.0315314
-0.0568877
0.0335047
-0.0609177
0.0348671
-0.0650318
0.0354679
-0.0691907
0.0351767
-0.0733366
0.0338951
-0.0773982
0.0315614
-0.0812955
0.0281588
-0.0849463
0.0237215
-0.0882736
0.0183389
-0.0912165
0.0121617
-0.0937439
0.00540785
-0.0958775
-0.00164186
-0.0977051
-0.0086778
-0.0993586
-0.0154179
-0.100961
-0.0215325
-0.102656
-0.026679
-0.104592
-0.0304966
-0.0328908
-0.00527346
0.00284632
-0.0114907
0.0110708
-0.017139
0.0127887
-0.0220935
0.0146458
-0.0264627
0.0166896
-0.030387
0.0189474
-0.0340096
0.021418
-0.0374608
0.0240896
-0.04085
0.0269147
-0.0442682
0.0297983
-0.04778
0.0326009
-0.0514289
0.0351601
-0.0552407
0.0372963
-0.0592209
0.0388281
-0.0633554
0.0395853
-0.0676114
0.0394187
-0.0719367
0.0382107
-0.0762633
0.0358833
-0.0805112
0.0324078
-0.0845945
0.0278119
-0.0884295
0.0221872
-0.0919447
0.0156961
-0.0950894
0.00857731
-0.0978456
0.00114422
-0.100262
-0.00622714
-0.102479
-0.0131633
-0.104605
-0.0193649
-0.106765
-0.0244748
-0.109088
-0.0281275
-0.0303078
-0.00571169
0.00855689
-0.0120069
0.0173629
-0.0171788
0.0179549
-0.0214927
0.0189518
-0.0252127
0.0203998
-0.0285336
0.022257
-0.0316218
0.0244931
-0.034612
0.027065
-0.0376108
0.0298971
-0.0407032
0.0328728
-0.043955
0.0358335
-0.0474133
0.0385984
-0.0511062
0.0409692
-0.0550435
0.0427465
-0.0592168
0.0437416
-0.0635988
0.0437868
-0.0681421
0.0427441
-0.0727802
0.0405164
-0.0774314
0.0370596
-0.0820031
0.0323901
-0.0863991
0.0265957
-0.0905303
0.0198455
-0.0943234
0.0123942
-0.0977319
0.00458149
-0.100754
-0.00317177
-0.103497
-0.0103831
-0.106098
-0.0167235
-0.108666
-0.0218646
-0.111316
-0.0254323
-0.0274635
-0.00594196
0.0144979
-0.0116327
0.0230513
-0.0157721
0.0220897
-0.0191199
0.0222929
-0.0219927
0.0232641
-0.0245737
0.0248275
-0.0270239
0.026931
-0.0294697
0.0294965
-0.0320106
0.0324221
-0.0347266
0.0355714
-0.0376847
0.038773
-0.0409327
0.041827
-0.0444996
0.0445167
-0.0483974
0.0466258
-0.0526221
0.0479496
-0.0571516
0.0483027
-0.0619424
0.047525
-0.0669278
0.0454967
-0.0720228
0.0421547
-0.0771266
0.0374998
-0.0821291
0.0316099
-0.0869239
0.0246577
-0.0914188
0.0169119
-0.0955394
0.00872989
-0.0992305
0.000551514
-0.10252
-0.0070575
-0.105579
-0.0136253
-0.108524
-0.018878
-0.111468
-0.0224436
-0.0243864
-0.00563627
0.0201335
-0.009834
0.0272469
-0.0125849
0.0248367
-0.0148615
0.0245635
-0.0167954
0.0251901
-0.0185323
0.0265544
-0.0202421
0.0286288
-0.0220552
0.0312958
-0.0240682
0.0344195
-0.0263585
0.0378447
-0.0289891
0.0413854
-0.0320042
0.0448232
-0.0354317
0.0479254
-0.0392835
0.0504597
-0.0435591
0.0522091
-0.048244
0.0529743
-0.0532999
0.0525712
-0.0586609
0.0508526
-0.0642408
0.0477346
-0.0699337
0.0431982
-0.075614
0.0373012
-0.0811505
0.0302108
-0.0864199
0.0222032
-0.0913101
0.0136468
-0.0957407
0.00501328
-0.0996495
-0.00311369
-0.103164
-0.0100721
-0.106484
-0.0155176
-0.109717
-0.0191673
-0.0210822
-0.00448883
0.0246218
-0.00620729
0.0289635
-0.00760186
0.0262275
-0.00890246
0.0258584
-0.00977631
0.0260563
-0.0104956
0.0272641
-0.011329
0.0294505
-0.0124143
0.0323676
-0.0138304
0.0358203
-0.0156461
0.0396439
-0.0179148
0.0436366
-0.0206687
0.0475589
-0.0239316
0.0511701
-0.0277131
0.054224
-0.0320171
0.0564976
-0.0368413
0.0577856
-0.0421571
0.0578778
-0.0479011
0.0565916
-0.0539899
0.0538234
-0.0603171
0.0495306
-0.0667373
0.0437319
-0.0730877
0.0365773
-0.0792128
0.0283494
-0.0849662
0.0194261
-0.0902235
0.0103008
-0.0948825
0.00157932
-0.0989547
-0.00596262
-0.102683
-0.0117489
-0.10623
-0.0155787
-0.0175359
-0.000865424
0.0254866
0.000387546
0.0277084
-0.00143065
0.0280418
-0.00186868
0.0262908
-0.00126453
0.0254445
-0.000638129
0.0266282
-0.000416207
0.0292172
-0.000662772
0.0326009
-0.00141064
0.0365531
-0.00270465
0.0409219
-0.00457353
0.0454887
-0.00702819
0.0499962
-0.0100848
0.0542095
-0.013745
0.0578679
-0.0180189
0.0607569
-0.0229271
0.0626818
-0.0284551
0.063397
-0.0345427
0.0626746
-0.0411193
0.0604
-0.0480964
0.0565127
-0.0553116
0.0509574
-0.0625696
0.0438507
-0.069687
0.0354873
-0.0764638
0.026228
-0.0827091
0.0165754
-0.0882911
0.00719437
-0.0930808
-0.00113659
-0.0972676
-0.00752305
-0.101192
-0.0116129
-0.0137093
0.207036
0.0120037
0.206277
0.015642
0.205398
0.0188441
0.204392
0.0220233
0.203248
0.0252365
0.201965
0.0285056
0.200535
0.0318608
0.198945
0.0353489
0.197183
0.0390032
0.19524
0.0428437
0.193106
0.046913
0.190767
0.0512577
0.188197
0.0559331
0.185383
0.0609952
0.182318
0.0665093
0.178971
0.0725691
0.175327
0.0792693
0.171373
0.0867794
0.167086
0.0952437
0.162484
0.104853
0.157591
0.115853
0.152507
0.128494
0.1474
0.143055
0.142594
0.159853
0.138784
0.178826
0.136932
0.199795
0.138584
0.221722
0.146346
0.242723
0.163894
0.259341
0.266916
0.298804
0.212076
0.0125889
0.211344
0.0163604
0.210499
0.0196844
0.209534
0.022996
0.208444
0.0263432
0.207229
0.0297442
0.205878
0.033239
0.204378
0.0368773
0.202721
0.040689
0.200899
0.0446932
0.198901
0.0489339
0.196719
0.0534576
0.194334
0.0583308
0.191736
0.0636
0.188934
0.0693121
0.185914
0.075587
0.182657
0.0825188
0.179192
0.0902352
0.175538
0.0988862
0.171759
0.108618
0.167982
0.119615
0.16441
0.132046
0.161394
0.146048
0.159565
0.161662
0.15989
0.178484
0.163876
0.195797
0.173772
0.211818
0.19271
0.223782
0.222383
0.229667
0.236706
0.252595
0.217245
0.0131493
0.216546
0.0170436
0.215741
0.020483
0.214827
0.0239145
0.213807
0.0273778
0.212675
0.0309001
0.211416
0.0345259
0.210023
0.0383003
0.20849
0.0422523
0.20681
0.0464011
0.204979
0.0507905
0.202985
0.0554719
0.200825
0.060507
0.198504
0.0659305
0.196023
0.0717975
0.19339
0.0782202
0.190618
0.0852872
0.187753
0.0930928
0.184875
0.101754
0.182104
0.111377
0.179636
0.122067
0.177783
0.133877
0.177036
0.146772
0.17816
0.160518
0.182133
0.174493
0.190187
0.187729
0.20319
0.198807
0.220773
0.206196
0.240745
0.209696
0.210604
0.266848
0.222541
0.0136807
0.221881
0.0176874
0.221125
0.0212315
0.220277
0.0247639
0.219339
0.0283286
0.218296
0.031964
0.21714
0.03571
0.215869
0.0396026
0.214481
0.0436714
0.212971
0.047941
0.211334
0.0524555
0.209561
0.0572684
0.207663
0.0624226
0.205663
0.0679433
0.20356
0.0739085
0.201378
0.0804045
0.19917
0.0874937
0.197008
0.0952499
0.19501
0.103744
0.193346
0.113032
0.192269
0.12313
0.192153
0.133973
0.193527
0.145373
0.197061
0.156961
0.203425
0.168111
0.213116
0.178024
0.226044
0.185871
0.241594
0.190642
0.259577
0.191712
0.188281
0.281902
0.227969
0.01418
0.227352
0.0182861
0.226657
0.0219179
0.225888
0.0255335
0.225038
0.0291875
0.224098
0.032923
0.223059
0.036775
0.221927
0.0407656
0.220707
0.0449235
0.219388
0.049292
0.217965
0.0539082
0.216448
0.0588104
0.214858
0.0640333
0.213219
0.0695982
0.211544
0.0755943
0.209879
0.0820745
0.208298
0.0890765
0.206899
0.0966458
0.205836
0.104802
0.205307
0.113552
0.205598
0.122828
0.207069
0.132484
0.210151
0.142269
0.215277
0.151814
0.222763
0.160606
0.232721
0.168054
0.244994
0.173589
0.259168
0.176463
0.274693
0.176185
0.1719
0.291074
0.23353
0.014643
0.232966
0.0188307
0.232342
0.022532
0.231658
0.0262166
0.23091
0.0299439
0.230086
0.033763
0.22918
0.0377044
0.228205
0.0417695
0.22717
0.045991
0.22606
0.0504348
0.22488
0.0551185
0.223656
0.0600619
0.22241
0.0653021
0.221167
0.0708595
0.219958
0.0768159
0.218852
0.0831896
0.217936
0.0899963
0.217338
0.0972435
0.217223
0.104914
0.217794
0.112975
0.219309
0.121303
0.222046
0.129731
0.226287
0.138009
0.232275
0.145807
0.240145
0.152718
0.249867
0.158318
0.261271
0.162176
0.273887
0.163842
0.286943
0.163127
0.15888
0.299963
0.239232
0.0150633
0.238728
0.019313
0.238182
0.0230668
0.237593
0.0268033
0.236958
0.0305865
0.236262
0.0344732
0.235507
0.0384804
0.23471
0.0425934
0.23387
0.0468612
0.232987
0.0513494
0.232086
0.0560513
0.231184
0.0609925
0.230307
0.0662039
0.229485
0.0717017
0.228774
0.0775415
0.228259
0.0837161
0.22804
0.0902207
0.228249
0.0970369
0.22903
0.104131
0.230566
0.111435
0.23305
0.11881
0.23668
0.126088
0.241638
0.133035
0.248054
0.139375
0.255948
0.144809
0.265234
0.14902
0.27571
0.151691
0.286924
0.152622
0.298286
0.151762
0.147784
0.309381
0.245078
0.0154336
0.244642
0.0197249
0.244183
0.0235126
0.2437
0.027283
0.243182
0.0311091
0.242625
0.0350439
0.242041
0.0390837
0.241437
0.0432222
0.240807
0.0475195
0.24018
0.0520066
0.239581
0.0566811
0.239018
0.0615837
0.238532
0.0667159
0.238166
0.0720898
0.237989
0.0777357
0.238085
0.0836325
0.238551
0.0897636
0.239496
0.0960961
0.241048
0.10258
0.243357
0.109124
0.246566
0.115594
0.250816
0.121827
0.256214
0.127624
0.262798
0.132777
0.270536
0.137058
0.279337
0.140208
0.288973
0.142047
0.299063
0.142525
0.30919
0.141632
0.138046
0.318926
0.251071
0.0157467
0.250713
0.0200569
0.250351
0.0238593
0.249977
0.0276517
0.249581
0.0315081
0.249177
0.0354587
0.248782
0.0394968
0.248385
0.0436431
0.247993
0.0479381
0.247645
0.0523823
0.247359
0.0569964
0.247161
0.0618108
0.247093
0.0668093
0.247203
0.0720026
0.247558
0.0773986
0.248233
0.0829722
0.24931
0.0886961
0.25089
0.0945228
0.253085
0.100387
0.256012
0.106196
0.259773
0.111829
0.264454
0.117139
0.270096
0.121972
0.276697
0.126165
0.284226
0.129519
0.292558
0.131867
0.301453
0.133144
0.310628
0.133344
0.319784
0.13247
0.129297
0.328531
0.257214
0.0159954
0.256942
0.0203011
0.256682
0.0241018
0.256422
0.0279037
0.256166
0.0317649
0.255937
0.0356973
0.255738
0.0397114
0.255565
0.0438372
0.255439
0.0480885
0.255386
0.052462
0.25543
0.056981
0.255609
0.0616587
0.255959
0.0664844
0.256527
0.0714577
0.257375
0.0765692
0.258571
0.0817916
0.260192
0.0870859
0.262326
0.0923977
0.265061
0.097657
0.268483
0.102776
0.272659
0.107651
0.277623
0.11217
0.283384
0.116203
0.289946
0.119595
0.297246
0.122211
0.305126
0.12398
0.313388
0.124875
0.321828
0.124898
0.330224
0.12407
0.121274
0.338243
0.263514
0.0161708
0.263332
0.0204516
0.26318
0.024234
0.263052
0.0280213
0.262959
0.0318566
0.262913
0.0357496
0.262919
0.039719
0.262986
0.0437883
0.263135
0.0479617
0.263385
0.052237
0.263764
0.0566279
0.26431
0.0611392
0.265058
0.065761
0.266056
0.0704817
0.267361
0.0752829
0.269035
0.0801336
0.271143
0.0849905
0.273753
0.0897966
0.276934
0.0944825
0.280747
0.098966
0.285225
0.103174
0.290372
0.107021
0.296202
0.110369
0.302692
0.1131
0.30974
0.115157
0.31721
0.116505
0.324952
0.117127
0.332808
0.117039
0.34061
0.116263
0.113801
0.348081
0.269972
0.016264
0.26989
0.0205004
0.269857
0.0242442
0.269874
0.0279901
0.269952
0.0317752
0.270096
0.0356089
0.270317
0.0395085
0.27063
0.0434915
0.271052
0.0475595
0.271602
0.051709
0.27231
0.0559437
0.273211
0.0602622
0.274342
0.0646525
0.275748
0.0690969
0.277478
0.0735715
0.279585
0.0780429
0.282121
0.082467
0.285138
0.086789
0.288684
0.090944
0.292798
0.0948575
0.297495
0.0984802
0.302779
0.101738
0.308641
0.104506
0.315021
0.106718
0.321825
0.108351
0.328946
0.109381
0.336265
0.109805
0.343656
0.109645
0.35099
0.108926
0.106753
0.358037
0.276592
0.0162685
0.276616
0.020439
0.276711
0.024123
0.276881
0.0278043
0.277132
0.0315167
0.277473
0.0352686
0.277914
0.0390741
0.278473
0.0429455
0.279166
0.046883
0.280014
0.0508805
0.281044
0.0549343
0.28229
0.0590379
0.283787
0.0631765
0.285574
0.0673294
0.287694
0.0714692
0.290189
0.075563
0.293102
0.0795671
0.296466
0.0834357
0.300306
0.0871119
0.304649
0.0905201
0.309515
0.0936193
0.314897
0.0963591
0.320751
0.0986536
0.327009
0.100459
0.333599
0.101761
0.34043
0.102548
0.347406
0.102827
0.354426
0.102623
0.361392
0.101958
0.100035
0.368109
0.283374
0.0161788
0.283513
0.0202607
0.283743
0.0238637
0.284068
0.0274591
0.284497
0.0310772
0.285038
0.0347247
0.285703
0.0384125
0.286508
0.0421495
0.28747
0.0459341
0.28861
0.049757
0.289953
0.0536092
0.291529
0.0574804
0.293371
0.0613537
0.29551
0.0652073
0.297984
0.0690114
0.300824
0.0727377
0.304054
0.0763491
0.307706
0.079794
0.311801
0.0830251
0.316344
0.0859836
0.321338
0.0886314
0.326768
0.0909337
0.332587
0.0928383
0.338732
0.0943164
0.345137
0.095356
0.351729
0.0959561
0.358428
0.0961284
0.365154
0.0958963
0.371829
0.0952816
0.0935764
0.378288
0.290324
0.01599
0.290581
0.01996
0.290951
0.0234613
0.291436
0.0269502
0.292046
0.0304534
0.292789
0.0339747
0.293679
0.0375226
0.29473
0.0411044
0.295956
0.0447168
0.297379
0.0483468
0.299023
0.0519802
0.300912
0.0556066
0.303075
0.0592058
0.305538
0.0627597
0.308322
0.0662422
0.311458
0.0696146
0.31497
0.0728475
0.318877
0.0758967
0.32319
0.0787197
0.327898
0.0812823
0.332987
0.0835494
0.338438
0.0854885
0.344211
0.0870701
0.350252
0.0882789
0.356501
0.0891082
0.362897
0.0895619
0.369372
0.0896535
0.375864
0.0894053
0.382309
0.0888365
0.08732
0.388566
0.297443
0.0156982
0.297823
0.0195326
0.298337
0.0229114
0.298986
0.026274
0.299779
0.0296428
0.300725
0.0330179
0.301838
0.0364059
0.30313
0.0398134
0.304615
0.0432375
0.306309
0.0466605
0.30824
0.0500604
0.310425
0.0534336
0.312879
0.0567643
0.31563
0.0600212
0.3187
0.063184
0.322108
0.0662169
0.325875
0.0690898
0.330003
0.0717775
0.334486
0.0742434
0.339315
0.0764592
0.344474
0.0783969
0.349938
0.0800303
0.355669
0.0813443
0.36162
0.0823317
0.36774
0.082991
0.373976
0.0833286
0.380272
0.0833587
0.386576
0.0831015
0.392839
0.0825742
0.0812226
0.398937
0.304735
0.0152999
0.305242
0.0189755
0.305902
0.022211
0.306718
0.0254272
0.307695
0.0286429
0.308844
0.0318549
0.310174
0.0350672
0.311702
0.0382824
0.313439
0.0415023
0.315393
0.0447108
0.317588
0.0478725
0.320045
0.0509847
0.322775
0.054043
0.325797
0.0570078
0.329134
0.0598564
0.33279
0.0625692
0.336768
0.0651181
0.341073
0.067479
0.345697
0.069625
0.350626
0.0715354
0.35584
0.0731885
0.361312
0.0745639
0.367007
0.0756547
0.372883
0.0764594
0.378896
0.07698
0.385002
0.0772249
0.391154
0.0772077
0.397309
0.0769467
0.403427
0.0764566
0.0752501
0.409401
0.312203
0.0147928
0.312838
0.018287
0.313646
0.0213584
0.314632
0.024406
0.315801
0.0274479
0.317152
0.0304854
0.318689
0.0335173
0.320434
0.0365295
0.322408
0.0395258
0.324617
0.0425019
0.327068
0.0454231
0.329781
0.0482762
0.332773
0.0510561
0.33605
0.0537367
0.339617
0.0562941
0.343483
0.0587086
0.347647
0.0609587
0.352106
0.0630241
0.356849
0.0648848
0.361861
0.0665268
0.367121
0.0679339
0.372599
0.0690902
0.378264
0.0699936
0.384079
0.0706467
0.390007
0.0710539
0.396009
0.0712242
0.402047
0.0711707
0.408084
0.0709094
0.414087
0.0704534
0.0693752
0.419962
0.319853
0.0141741
0.320616
0.0174654
0.321573
0.0203537
0.322728
0.0232122
0.324082
0.0260632
0.325631
0.0289136
0.327377
0.0317533
0.329339
0.0345559
0.331537
0.0373198
0.333986
0.0400483
0.336686
0.042721
0.339642
0.0453199
0.342867
0.0478321
0.346367
0.0502384
0.350144
0.0525191
0.354198
0.0546561
0.358526
0.0566321
0.36312
0.0584309
0.367967
0.0600376
0.373052
0.0614439
0.378351
0.0626378
0.383837
0.0636069
0.389481
0.0643523
0.39525
0.0648791
0.401111
0.0651931
0.407032
0.0653035
0.412979
0.0652223
0.418924
0.0649639
0.424836
0.0645394
0.063576
0.430635
0.327688
0.0134405
0.328584
0.0165077
0.329689
0.0191964
0.331005
0.0218527
0.332533
0.024501
0.334272
0.0271458
0.336232
0.0297715
0.338418
0.0323534
0.34084
0.0348856
0.34351
0.0373688
0.346433
0.0397907
0.349613
0.0421353
0.353054
0.0443877
0.356758
0.0465317
0.360724
0.0485508
0.364948
0.0504299
0.369423
0.0521548
0.374139
0.053713
0.37908
0.0550936
0.38423
0.0562924
0.389567
0.0573012
0.395065
0.0581096
0.400696
0.0587211
0.406432
0.0591423
0.412244
0.0593797
0.418104
0.0594422
0.423983
0.0593407
0.429856
0.0590879
0.435699
0.0586935
0.0578338
0.441439
0.335711
0.012591
0.336739
0.0154133
0.337993
0.0178871
0.339468
0.0203301
0.341167
0.0227627
0.343095
0.0251851
0.345258
0.0275819
0.347657
0.0299332