/*--------------------------------*- C++ -*----------------------------------*\
| =========                 |                                                 |
| \\      /  F ield         | OpenFOAM: The Open Source CFD Toolbox           |
|  \\    /   O peration     | Version:  dev                                   |
|   \\  /    A nd           | Web:      www.OpenFOAM.org                      |
|    \\/     M anipulation  |                                                 |
\*---------------------------------------------------------------------------*/
FoamFile
{
    version     2.0;
    format      ascii;
    class       pointVectorField;
    location    "1.14";
    object      pointDisplacement;
}
// * * * * * * * * * * * * * * * * * * * * * * * * * * * * * * * * * * * * * //

dimensions      [0 1 0 0 0 0 0];

internalField   nonuniform List<vector> 
5828
(
(0 0 0)
(0.0242437 0 0)
(0.0457209 0 0)
(0.0638201 0 0)
(0.0788917 0 0)
(0.0912609 0 0)
(0.101212 0 0)
(0.109002 0 0)
(0.114857 0 0)
(0.118964 0 0)
(0.121488 0 0)
(0.122572 0 0)
(0.122344 0 0)
(0.120916 0 0)
(0.118385 0 0)
(0.114843 0 0)
(0.110371 0 0)
(0.105045 0 0)
(0.0989383 0 0)
(0.0921281 0 0)
(0.0846901 0 0)
(0.076705 0 0)
(0.06826 0 0)
(0.059452 0 0)
(0.0503949 0 0)
(0.0412309 0 0)
(0.0321495 0 0)
(0.02345 0 0)
(0.0156719 0 0)
(0.0100744 0 0)
(1.0163e-09 0 0)
(0 0 0)
(0.0242602 0 -0.000199234)
(0.0457528 0 -0.000377995)
(0.0638677 0 -0.000533672)
(0.0789565 0 -0.000670327)
(0.0913442 0 -0.000791145)
(0.101313 0 -0.000898077)
(0.109125 0 -0.000992414)
(0.115003 0 -0.00107503)
(0.119137 0 -0.00114601)
(0.121691 0 -0.00120501)
(0.122809 0 -0.00125139)
(0.122619 0 -0.00128459)
(0.121234 0 -0.0013021)
(0.118753 0 -0.00130091)
(0.115267 0 -0.001279)
(0.11086 0 -0.00123317)
(0.105608 0 -0.00115904)
(0.0995854 0 -0.00105251)
(0.0928729 0 -0.000908574)
(0.0855489 0 -0.000719941)
(0.0776984 0 -0.000478555)
(0.0694149 0 -0.000174748)
(0.0608042 0 0.000203433)
(0.0519945 0 0.000670642)
(0.0431511 0 0.00124484)
(0.0344899 0 0.00194919)
(0.0263337 0 0.00281402)
(0.0192802 0 0.00386688)
(0.014772 0 0.00503175)
(0.00751882 0 0.00714728)
(0 0 0)
(0.0243102 0 -0.000399044)
(0.0458499 0 -0.000757181)
(0.0640111 0 -0.00106921)
(0.0791482 0 -0.00134321)
(0.0915879 0 -0.00158465)
(0.101615 0 -0.00179834)
(0.109491 0 -0.00198784)
(0.115441 0 -0.00215412)
(0.119655 0 -0.00229736)
(0.122298 0 -0.00241692)
(0.123517 0 -0.00251139)
(0.123441 0 -0.00257893)
(0.122184 0 -0.00261569)
(0.11985 0 -0.00261689)
(0.116533 0 -0.0025779)
(0.112319 0 -0.00249271)
(0.10729 0 -0.0023534)
(0.101521 0 -0.00215119)
(0.0950998 0 -0.00187587)
(0.0881146 0 -0.00151438)
(0.0806622 0 -0.00105211)
(0.0728534 0 -0.000471728)
(0.0648163 0 0.00024809)
(0.0567115 0 0.00113274)
(0.0487693 0 0.00221075)
(0.0412983 0 0.00351211)
(0.034717 0 0.005061)
(0.0296955 0 0.00684984)
(0.0279266 0 0.00862815)
(0.0235396 0 0.0114333)
(0 0 0)
(0.0243931 0 -0.000598786)
(0.0460102 0 -0.00113632)
(0.0642475 0 -0.00160491)
(0.0794626 0 -0.00201676)
(0.0919876 0 -0.00238032)
(0.102113 0 -0.00270277)
(0.110097 0 -0.0029892)
(0.116166 0 -0.00324124)
(0.120513 0 -0.00345931)
(0.123305 0 -0.00364256)
(0.124691 0 -0.00378881)
(0.124803 0 -0.00389417)
(0.12376 0 -0.00395487)
(0.121669 0 -0.00396582)
(0.118629 0 -0.00391914)
(0.114733 0 -0.00380661)
(0.11007 0 -0.00361835)
(0.104723 0 -0.00334066)
(0.0987862 0 -0.00295823)
(0.0923587 0 -0.0024543)
(0.0855597 0 -0.00181073)
(0.0785298 0 -0.00100666)
(0.0714295 0 -1.66141e-05)
(0.0644601 0 0.00118817)
(0.0579126 0 0.00263449)
(0.0522185 0 0.0043336)
(0.047992 0 0.00625897)
(0.0459997 0 0.00831401)
(0.0478441 0 0.0100393)
(0.0465064 0 0.0127533)
(0 0 0)
(0.0245085 0 -0.000797887)
(0.0462322 0 -0.00151434)
(0.0645747 0 -0.0021393)
(0.0799003 0 -0.00268929)
(0.0925454 0 -0.00317634)
(0.102804 0 -0.00360946)
(0.110937 0 -0.00399472)
(0.117171 0 -0.00433497)
(0.1217 0 -0.00463107)
(0.124698 0 -0.00488216)
(0.126317 0 -0.00508568)
(0.126691 0 -0.00523696)
(0.125944 0 -0.00533157)
(0.124191 0 -0.00536336)
(0.121532 0 -0.00532227)
(0.11807 0 -0.00519896)
(0.113907 0 -0.00498228)
(0.109139 0 -0.00465581)
(0.103872 0 -0.00420201)
(0.0982179 0 -0.00360162)
(0.0923166 0 -0.00283472)
(0.0863445 0 -0.00188111)
(0.0805053 0 -0.000718216)
(0.0750687 0 0.000673106)
(0.0703797 0 0.00230171)
(0.0669345 0 0.00414628)
(0.0655191 0 0.00610639)
(0.0671124 0 0.00795042)
(0.0730165 0 0.00906032)
(0.07456 0 0.0111971)
(0 0 0)
(0.0246559 0 -0.000996351)
(0.0465137 0 -0.00189105)
(0.0649894 0 -0.00267218)
(0.0804564 0 -0.00336068)
(0.0932546 0 -0.00397187)
(0.103682 0 -0.00451684)
(0.112002 0 -0.00500299)
(0.118442 0 -0.00543432)
(0.123203 0 -0.00581231)
(0.126461 0 -0.00613638)
(0.128373 0 -0.00640409)
(0.129079 0 -0.0066111)
(0.12871 0 -0.00675186)
(0.127383 0 -0.00681899)
(0.125211 0 -0.00680237)
(0.122301 0 -0.00669133)
(0.118766 0 -0.00647298)
(0.11472 0 -0.00613157)
(0.11029 0 -0.0056504)
(0.105607 0 -0.00501011)
(0.100833 0 -0.00419212)
(0.0961767 0 -0.00318096)
(0.0918866 0 -0.00196293)
(0.0882925 0 -0.000536605)
(0.085826 0 0.00107242)
(0.0850558 0 0.00279395)
(0.0867735 0 0.00446035)
(0.092126 0 0.00569829)
(0.102208 0 0.00579231)
(0.106454 0 0.00715034)
(0 0 0)
(0.0248251 0 -0.00119405)
(0.0468476 0 -0.00226677)
(0.0654882 0 -0.00320447)
(0.0811272 0 -0.00403227)
(0.0941103 0 -0.00476885)
(0.104741 0 -0.00542757)
(0.113285 0 -0.00601742)
(0.119974 0 -0.00654363)
(0.125013 0 -0.00700848)
(0.128582 0 -0.00741189)
(0.130846 0 -0.00775202)
(0.13195 0 -0.00802494)
(0.13203 0 -0.00822475)
(0.131213 0 -0.00834386)
(0.129624 0 -0.0083738)
(0.127378 0 -0.00830238)
(0.124592 0 -0.00811466)
(0.121404 0 -0.0077985)
(0.117965 0 -0.0073407)
(0.114428 0 -0.0067244)
(0.110981 0 -0.00593589)
(0.107865 0 -0.00496842)
(0.105387 0 -0.00382638)
(0.103913 0 -0.00253041)
(0.103924 0 -0.00113993)
(0.106107 0 0.000208467)
(0.111222 0 0.00128291)
(0.120411 0 0.00161022)
(0.134591 0 0.000432013)
(0.141375 0 0.000912591)
(0 0 0)
(0.0250149 0 -0.00139094)
(0.0472318 0 -0.0026419)
(0.0660681 0 -0.00373684)
(0.0819081 0 -0.00470505)
(0.0951065 0 -0.00556869)
(0.105972 0 -0.00634357)
(0.114776 0 -0.00704049)
(0.121754 0 -0.00766604)
(0.127115 0 -0.00822348)
(0.131045 0 -0.00871342)
(0.133714 0 -0.0091351)
(0.135277 0 -0.00948547)
(0.135874 0 -0.00975872)
(0.13564 0 -0.00994729)
(0.134714 0 -0.0100447)
(0.133227 0 -0.0100407)
(0.131306 0 -0.00992136)
(0.129104 0 -0.00967661)
(0.126795 0 -0.00929779)
(0.124561 0 -0.00877519)
(0.122619 0 -0.00810358)
(0.12124 0 -0.00728799)
(0.120771 0 -0.00635183)
(0.121651 0 -0.00535058)
(0.1244 0 -0.00438108)
(0.129718 0 -0.00362923)
(0.138423 0 -0.00340195)
(0.151502 0 -0.00421901)
(0.169556 0 -0.00681572)
(0.178692 0 -0.00729383)
(0 0 0)
(0.0252322 0 -0.00158666)
(0.047667 0 -0.00301518)
(0.0667226 0 -0.00426724)
(0.0827897 0 -0.00537644)
(0.096231 0 -0.00636844)
(0.107362 0 -0.00726164)
(0.116458 0 -0.00806883)
(0.12376 0 -0.00879817)
(0.129483 0 -0.0094541)
(0.133816 0 -0.0100379)
(0.13694 0 -0.0105506)
(0.139015 0 -0.010991)
(0.140192 0 -0.0113535)
(0.140613 0 -0.0116322)
(0.140425 0 -0.0118216)
(0.139778 0 -0.0119147)
(0.138825 0 -0.0119035)
(0.137721 0 -0.0117784)
(0.136657 0 -0.0115361)
(0.135859 0 -0.0111787)
(0.135571 0 -0.0107123)
(0.136104 0 -0.0101599)
(0.137827 0 -0.009563)
(0.141222 0 -0.0090074)
(0.146899 0 -0.00864206)
(0.155515 0 -0.00868779)
(0.167935 0 -0.00951738)
(0.18488 0 -0.0116511)
(0.206546 0 -0.015741)
(0.217872 0 -0.0171838)
(0 0 0)
(0.0254733 0 -0.0017805)
(0.0481476 0 -0.00338512)
(0.0674444 0 -0.00479362)
(0.0837618 0 -0.00604393)
(0.0974708 0 -0.00716523)
(0.108893 0 -0.00817863)
(0.118311 0 -0.00909914)
(0.12597 0 -0.00993674)
(0.132089 0 -0.0106973)
(0.136867 0 -0.011384)
(0.140492 0 -0.0119992)
(0.14313 0 -0.0125427)
(0.144938 0 -0.0130109)
(0.146078 0 -0.0134015)
(0.146698 0 -0.0137092)
(0.146962 0 -0.0139299)
(0.147048 0 -0.0140632)
(0.147128 0 -0.0141047)
(0.147413 0 -0.0140581)
(0.148157 0 -0.0139369)
(0.149637 0 -0.0137616)
(0.1522 0 -0.0135744)
(0.156264 0 -0.0134447)
(0.162322 0 -0.0134818)
(0.171016 0 -0.0138738)
(0.183032 0 -0.0148866)
(0.199199 0 -0.0169337)
(0.219947 0 -0.0205064)
(0.245035 0 -0.0261327)
(0.25853 0 -0.0285664)
(0 0 0)
(0.0257363 0 -0.00197257)
(0.0486704 0 -0.00375204)
(0.0682289 0 -0.00531652)
(0.0848187 0 -0.00670828)
(0.0988183 0 -0.00796006)
(0.110557 0 -0.00909578)
(0.120323 0 -0.0101329)
(0.128369 0 -0.0110835)
(0.134917 0 -0.0119553)
(0.140179 0 -0.0127542)
(0.144344 0 -0.0134833)
(0.147585 0 -0.0141427)
(0.150069 0 -0.0147319)
(0.151969 0 -0.0152525)
(0.153451 0 -0.0157031)
(0.154686 0 -0.0160828)
(0.155868 0 -0.0163965)
(0.157198 0 -0.0166497)
(0.158907 0 -0.016855)
(0.161269 0 -0.0170367)
(0.164593 0 -0.0172322)
(0.169264 0 -0.0175045)
(0.175738 0 -0.0179496)
(0.184554 0 -0.0187114)
(0.196342 0 -0.0200024)
(0.211835 0 -0.0221332)
(0.231732 0 -0.0255209)
(0.256179 0 -0.0306059)
(0.28448 0 -0.0377665)
(0.300243 0 -0.0412894)
(0 0 0)
(0.0260191 0 -0.0021629)
(0.0492319 0 -0.00411608)
(0.0690713 0 -0.00583617)
(0.0859532 0 -0.00736983)
(0.100264 0 -0.00875335)
(0.112342 0 -0.0100135)
(0.122481 0 -0.0111706)
(0.130938 0 -0.0122388)
(0.137945 0 -0.0132277)
(0.143715 0 -0.014145)
(0.148447 0 -0.0149959)
(0.152323 0 -0.0157835)
(0.15552 0 -0.0165101)
(0.15822 0 -0.0171799)
(0.160607 0 -0.0177977)
(0.162857 0 -0.0183658)
(0.165176 0 -0.018894)
(0.167799 0 -0.0194005)
(0.170972 0 -0.0199069)
(0.174993 0 -0.0204516)
(0.180206 0 -0.0210899)
(0.187017 0 -0.0219041)
(0.195924 0 -0.0230183)
(0.207507 0 -0.0246083)
(0.222411 0 -0.0269165)
(0.241411 0 -0.0302923)
(0.264978 0 -0.035113)
(0.292997 0 -0.0417447)
(0.324239 0 -0.050375)
(0.342548 0 -0.0550219)
(0 0 0)
(0.0263179 0 -0.00235049)
(0.0498252 0 -0.00447535)
(0.0699615 0 -0.00634991)
(0.0871522 0 -0.00802521)
(0.101792 0 -0.0095411)
(0.114225 0 -0.0109271)
(0.124757 0 -0.0122067)
(0.133649 0 -0.0133967)
(0.141133 0 -0.014508)
(0.147434 0 -0.0155505)
(0.152758 0 -0.0165323)
(0.157296 0 -0.0174599)
(0.161238 0 -0.0183399)
(0.164766 0 -0.0191773)
(0.168075 0 -0.0199814)
(0.171363 0 -0.0207628)
(0.174845 0 -0.0215368)
(0.178782 0 -0.0223338)
(0.183438 0 -0.023186)
(0.189122 0 -0.0241427)
(0.196218 0 -0.0252817)
(0.205148 0 -0.0267034)
(0.216454 0 -0.0285617)
(0.230729 0 -0.0310572)
(0.248673 0 -0.034469)
(0.271031 0 -0.0391599)
(0.298094 0 -0.0454631)
(0.329537 0 -0.0536485)
(0.363443 0 -0.0636483)
(0.385125 0 -0.0694167)
(0 0 0)
(0.0266284 0 -0.00253431)
(0.0504429 0 -0.00482795)
(0.0708893 0 -0.00685509)
(0.0884024 0 -0.00867112)
(0.103384 0 -0.0103194)
(0.116189 0 -0.0118331)
(0.127132 0 -0.0132385)
(0.136476 0 -0.014554)
(0.144457 0 -0.0157928)
(0.15131 0 -0.0169685)
(0.157246 0 -0.0180905)
(0.162461 0 -0.0191676)
(0.167157 0 -0.0202117)
(0.171524 0 -0.0212308)
(0.175766 0 -0.0222391)
(0.1801 0 -0.0232556)
(0.184756 0 -0.0243036)
(0.190002 0 -0.0254207)
(0.196122 0 -0.0266523)
(0.203435 0 -0.028059)
(0.212344 0 -0.0297361)
(0.223313 0 -0.0318106)
(0.236887 0 -0.0344554)
(0.253678 0 -0.0378981)
(0.274441 0 -0.0424568)
(0.299793 0 -0.048474)
(0.329974 0 -0.0562636)
(0.364465 0 -0.0659719)
(0.400726 0 -0.0772707)
(0.427744 0 -0.0842182)
(0 0 0)
(0.0269487 0 -0.0027143)
(0.0510815 0 -0.00517381)
(0.0718496 0 -0.00735162)
(0.0896973 0 -0.00930743)
(0.105035 0 -0.0110884)
(0.118228 0 -0.0127317)
(0.129596 0 -0.0142655)
(0.139402 0 -0.0157094)
(0.147892 0 -0.0170795)
(0.155305 0 -0.0183926)
(0.16186 0 -0.0196612)
(0.167761 0 -0.0208968)
(0.173214 0 -0.022114)
(0.178421 0 -0.023327)
(0.183596 0 -0.024555)
(0.188966 0 -0.0258233)
(0.194778 0 -0.0271648)
(0.201296 0 -0.0286217)
(0.208816 0 -0.0302511)
(0.217685 0 -0.0321315)
(0.228302 0 -0.0343691)
(0.241149 0 -0.0371123)
(0.256756 0 -0.0405485)
(0.275763 0 -0.0449366)
(0.298872 0 -0.0506048)
(0.326568 0 -0.0578846)
(0.359073 0 -0.0670971)
(0.395643 0 -0.0782742)
(0.433741 0 -0.09099)
(0.470171 0 -0.0991682)
(0 0 0)
(0.0272794 0 -0.00289176)
(0.0517428 0 -0.00551565)
(0.0728459 0 -0.00784357)
(0.0910413 0 -0.00993922)
(0.10675 0 -0.0118539)
(0.120343 0 -0.0136274)
(0.132142 0 -0.0152906)
(0.142421 0 -0.0168658)
(0.151431 0 -0.0183722)
(0.159416 0 -0.0198284)
(0.166603 0 -0.0212513)
(0.173197 0 -0.0226539)
(0.179407 0 -0.0240533)
(0.18545 0 -0.0254707)
(0.191544 0 -0.0269292)
(0.197929 0 -0.0284622)
(0.204859 0 -0.0301097)
(0.21259 0 -0.0319183)
(0.221435 0 -0.0339576)
(0.231744 0 -0.0363184)
(0.243918 0 -0.0391201)
(0.258414 0 -0.0425198)
(0.275748 0 -0.0467221)
(0.296524 0 -0.051999)
(0.321249 0 -0.0586511)
(0.350285 0 -0.0670203)
(0.383648 0 -0.0774541)
(0.42013 0 -0.090068)
(0.456803 0 -0.104861)
(0.512502 0 -0.114214)
(0 0 0)
(0.0242437 0 0)
(0.0457209 0 0)
(0.0638201 0 0)
(0.0788917 0 0)
(0.0912609 0 0)
(0.101212 0 0)
(0.109002 0 0)
(0.114857 0 0)
(0.118964 0 0)
(0.121488 0 0)
(0.122572 0 0)
(0.122344 0 0)
(0.120916 0 0)
(0.118385 0 0)
(0.114843 0 0)
(0.110371 0 0)
(0.105045 0 0)
(0.0989383 0 0)
(0.0921281 0 0)
(0.0846901 0 0)
(0.076705 0 0)
(0.06826 0 0)
(0.059452 0 0)
(0.0503949 0 0)
(0.0412309 0 0)
(0.0321495 0 0)
(0.02345 0 0)
(0.0156719 0 0)
(0.0100744 0 0)
(0 0 0)
(0 0 0)
(0.0242602 0 -0.000199234)
(0.0457528 0 -0.000377995)
(0.0638677 0 -0.000533672)
(0.0789565 0 -0.000670327)
(0.0913442 0 -0.000791145)
(0.101313 0 -0.000898077)
(0.109125 0 -0.000992414)
(0.115003 0 -0.00107503)
(0.119137 0 -0.00114601)
(0.121691 0 -0.00120501)
(0.122809 0 -0.00125139)
(0.122619 0 -0.00128459)
(0.121234 0 -0.0013021)
(0.118753 0 -0.00130091)
(0.115267 0 -0.001279)
(0.11086 0 -0.00123317)
(0.105608 0 -0.00115904)
(0.0995854 0 -0.00105251)
(0.0928729 0 -0.000908574)
(0.0855489 0 -0.000719941)
(0.0776984 0 -0.000478555)
(0.0694149 0 -0.000174748)
(0.0608042 0 0.000203433)
(0.0519945 0 0.000670642)
(0.0431511 0 0.00124484)
(0.0344899 0 0.00194919)
(0.0263337 0 0.00281402)
(0.0192802 0 0.00386688)
(0.014772 0 0.00503175)
(0.00751882 0 0.00714728)
(0 0 0)
(0.0243102 0 -0.000399044)
(0.0458499 0 -0.000757181)
(0.0640111 0 -0.00106921)
(0.0791482 0 -0.00134321)
(0.0915879 0 -0.00158465)
(0.101615 0 -0.00179834)
(0.109491 0 -0.00198784)
(0.115441 0 -0.00215412)
(0.119655 0 -0.00229736)
(0.122298 0 -0.00241692)
(0.123517 0 -0.00251139)
(0.123441 0 -0.00257893)
(0.122184 0 -0.00261569)
(0.11985 0 -0.00261689)
(0.116533 0 -0.0025779)
(0.112319 0 -0.00249271)
(0.10729 0 -0.0023534)
(0.101521 0 -0.00215119)
(0.0950998 0 -0.00187587)
(0.0881146 0 -0.00151438)
(0.0806622 0 -0.00105211)
(0.0728534 0 -0.000471728)
(0.0648163 0 0.00024809)
(0.0567115 0 0.00113274)
(0.0487693 0 0.00221075)
(0.0412983 0 0.00351211)
(0.034717 0 0.005061)
(0.0296955 0 0.00684984)
(0.0279266 0 0.00862815)
(0.0235396 0 0.0114333)
(0 0 0)
(0.0243931 0 -0.000598786)
(0.0460102 0 -0.00113632)
(0.0642475 0 -0.00160491)
(0.0794626 0 -0.00201676)
(0.0919876 0 -0.00238032)
(0.102113 0 -0.00270277)
(0.110097 0 -0.0029892)
(0.116166 0 -0.00324124)
(0.120513 0 -0.00345931)
(0.123305 0 -0.00364256)
(0.124691 0 -0.00378881)
(0.124803 0 -0.00389417)
(0.12376 0 -0.00395487)
(0.121669 0 -0.00396582)
(0.118629 0 -0.00391914)
(0.114733 0 -0.00380661)
(0.11007 0 -0.00361835)
(0.104723 0 -0.00334066)
(0.0987862 0 -0.00295823)
(0.0923587 0 -0.0024543)
(0.0855597 0 -0.00181073)
(0.0785298 0 -0.00100666)
(0.0714295 0 -1.66141e-05)
(0.0644601 0 0.00118817)
(0.0579126 0 0.00263449)
(0.0522185 0 0.0043336)
(0.047992 0 0.00625897)
(0.0459997 0 0.00831401)
(0.0478441 0 0.0100393)
(0.0465064 0 0.0127533)
(0 0 0)
(0.0245085 0 -0.000797887)
(0.0462322 0 -0.00151434)
(0.0645747 0 -0.0021393)
(0.0799003 0 -0.00268929)
(0.0925454 0 -0.00317634)
(0.102804 0 -0.00360946)
(0.110937 0 -0.00399472)
(0.117171 0 -0.00433497)
(0.1217 0 -0.00463107)
(0.124698 0 -0.00488216)
(0.126317 0 -0.00508568)
(0.126691 0 -0.00523696)
(0.125944 0 -0.00533157)
(0.124191 0 -0.00536336)
(0.121532 0 -0.00532227)
(0.11807 0 -0.00519896)
(0.113907 0 -0.00498228)
(0.109139 0 -0.00465581)
(0.103872 0 -0.00420201)
(0.0982179 0 -0.00360162)
(0.0923166 0 -0.00283472)
(0.0863445 0 -0.00188111)
(0.0805053 0 -0.000718216)
(0.0750687 0 0.000673106)
(0.0703797 0 0.00230171)
(0.0669345 0 0.00414628)
(0.0655191 0 0.00610639)
(0.0671124 0 0.00795042)
(0.0730165 0 0.00906032)
(0.07456 0 0.0111971)
(0 0 0)
(0.0246559 0 -0.000996351)
(0.0465137 0 -0.00189105)
(0.0649894 0 -0.00267218)
(0.0804564 0 -0.00336068)
(0.0932546 0 -0.00397187)
(0.103682 0 -0.00451684)
(0.112002 0 -0.00500299)
(0.118442 0 -0.00543432)
(0.123203 0 -0.00581231)
(0.126461 0 -0.00613638)
(0.128373 0 -0.00640409)
(0.129079 0 -0.0066111)
(0.12871 0 -0.00675186)
(0.127383 0 -0.00681899)
(0.125211 0 -0.00680237)
(0.122301 0 -0.00669133)
(0.118766 0 -0.00647298)
(0.11472 0 -0.00613157)
(0.11029 0 -0.0056504)
(0.105607 0 -0.00501011)
(0.100833 0 -0.00419212)
(0.0961767 0 -0.00318096)
(0.0918866 0 -0.00196293)
(0.0882925 0 -0.000536605)
(0.085826 0 0.00107242)
(0.0850558 0 0.00279395)
(0.0867735 0 0.00446035)
(0.092126 0 0.00569829)
(0.102208 0 0.00579231)
(0.106454 0 0.00715034)
(0 0 0)
(0.0248251 0 -0.00119405)
(0.0468476 0 -0.00226677)
(0.0654882 0 -0.00320447)
(0.0811272 0 -0.00403227)
(0.0941103 0 -0.00476885)
(0.104741 0 -0.00542757)
(0.113285 0 -0.00601742)
(0.119974 0 -0.00654363)
(0.125013 0 -0.00700848)
(0.128582 0 -0.00741189)
(0.130846 0 -0.00775202)
(0.13195 0 -0.00802494)
(0.13203 0 -0.00822475)
(0.131213 0 -0.00834386)
(0.129624 0 -0.0083738)
(0.127378 0 -0.00830238)
(0.124592 0 -0.00811466)
(0.121404 0 -0.0077985)
(0.117965 0 -0.0073407)
(0.114428 0 -0.0067244)
(0.110981 0 -0.00593589)
(0.107865 0 -0.00496842)
(0.105387 0 -0.00382638)
(0.103913 0 -0.00253041)
(0.103924 0 -0.00113993)
(0.106107 0 0.000208467)
(0.111222 0 0.00128291)
(0.120411 0 0.00161022)
(0.134591 0 0.000432013)
(0.141375 0 0.00091259)
(0 0 0)
(0.0250149 0 -0.00139094)
(0.0472318 0 -0.0026419)
(0.0660681 0 -0.00373684)
(0.0819081 0 -0.00470505)
(0.0951065 0 -0.00556869)
(0.105972 0 -0.00634357)
(0.114776 0 -0.00704049)
(0.121754 0 -0.00766604)
(0.127115 0 -0.00822348)
(0.131045 0 -0.00871342)
(0.133714 0 -0.0091351)
(0.135277 0 -0.00948547)
(0.135874 0 -0.00975872)
(0.13564 0 -0.00994729)
(0.134714 0 -0.0100447)
(0.133227 0 -0.0100407)
(0.131306 0 -0.00992136)
(0.129104 0 -0.00967661)
(0.126795 0 -0.00929779)
(0.124561 0 -0.00877519)
(0.122619 0 -0.00810358)
(0.12124 0 -0.00728799)
(0.120771 0 -0.00635183)
(0.121651 0 -0.00535058)
(0.1244 0 -0.00438108)
(0.129718 0 -0.00362923)
(0.138423 0 -0.00340195)
(0.151502 0 -0.00421901)
(0.169556 0 -0.00681572)
(0.178692 0 -0.00729383)
(0 0 0)
(0.0252322 0 -0.00158666)
(0.047667 0 -0.00301518)
(0.0667226 0 -0.00426724)
(0.0827897 0 -0.00537644)
(0.096231 0 -0.00636844)
(0.107362 0 -0.00726164)
(0.116458 0 -0.00806883)
(0.12376 0 -0.00879817)
(0.129483 0 -0.0094541)
(0.133816 0 -0.0100379)
(0.13694 0 -0.0105506)
(0.139015 0 -0.010991)
(0.140192 0 -0.0113535)
(0.140613 0 -0.0116322)
(0.140425 0 -0.0118216)
(0.139778 0 -0.0119147)
(0.138825 0 -0.0119035)
(0.137721 0 -0.0117784)
(0.136657 0 -0.0115361)
(0.135859 0 -0.0111787)
(0.135571 0 -0.0107123)
(0.136104 0 -0.0101599)
(0.137827 0 -0.009563)
(0.141222 0 -0.0090074)
(0.146899 0 -0.00864206)
(0.155515 0 -0.00868779)
(0.167935 0 -0.00951738)
(0.18488 0 -0.0116511)
(0.206546 0 -0.015741)
(0.217872 0 -0.0171838)
(0 0 0)
(0.0254733 0 -0.0017805)
(0.0481476 0 -0.00338512)
(0.0674444 0 -0.00479362)
(0.0837618 0 -0.00604393)
(0.0974708 0 -0.00716523)
(0.108893 0 -0.00817863)
(0.118311 0 -0.00909914)
(0.12597 0 -0.00993674)
(0.132089 0 -0.0106973)
(0.136867 0 -0.011384)
(0.140492 0 -0.0119992)
(0.14313 0 -0.0125427)
(0.144938 0 -0.0130109)
(0.146078 0 -0.0134015)
(0.146698 0 -0.0137092)
(0.146962 0 -0.0139299)
(0.147048 0 -0.0140632)
(0.147128 0 -0.0141047)
(0.147413 0 -0.0140581)
(0.148157 0 -0.0139369)
(0.149637 0 -0.0137616)
(0.1522 0 -0.0135744)
(0.156264 0 -0.0134447)
(0.162322 0 -0.0134818)
(0.171016 0 -0.0138738)
(0.183032 0 -0.0148866)
(0.199199 0 -0.0169337)
(0.219947 0 -0.0205064)
(0.245035 0 -0.0261327)
(0.25853 0 -0.0285664)
(0 0 0)
(0.0257363 0 -0.00197257)
(0.0486704 0 -0.00375204)
(0.0682289 0 -0.00531652)
(0.0848187 0 -0.00670828)
(0.0988183 0 -0.00796006)
(0.110557 0 -0.00909578)
(0.120323 0 -0.0101329)
(0.128369 0 -0.0110835)
(0.134917 0 -0.0119553)
(0.140179 0 -0.0127542)
(0.144344 0 -0.0134833)
(0.147585 0 -0.0141427)
(0.150069 0 -0.0147319)
(0.151969 0 -0.0152525)
(0.153451 0 -0.0157031)
(0.154686 0 -0.0160828)
(0.155868 0 -0.0163965)
(0.157198 0 -0.0166497)
(0.158907 0 -0.016855)
(0.161269 0 -0.0170367)
(0.164593 0 -0.0172322)
(0.169264 0 -0.0175045)
(0.175738 0 -0.0179496)
(0.184554 0 -0.0187114)
(0.196342 0 -0.0200024)
(0.211835 0 -0.0221332)
(0.231732 0 -0.0255209)
(0.256179 0 -0.0306059)
(0.28448 0 -0.0377665)
(0.300243 0 -0.0412894)
(0 0 0)
(0.0260191 0 -0.0021629)
(0.0492319 0 -0.00411608)
(0.0690713 0 -0.00583617)
(0.0859532 0 -0.00736983)
(0.100264 0 -0.00875335)
(0.112342 0 -0.0100135)
(0.122481 0 -0.0111706)
(0.130938 0 -0.0122388)
(0.137945 0 -0.0132277)
(0.143715 0 -0.014145)
(0.148447 0 -0.0149959)
(0.152323 0 -0.0157835)
(0.15552 0 -0.0165101)
(0.15822 0 -0.0171799)
(0.160607 0 -0.0177977)
(0.162857 0 -0.0183658)
(0.165176 0 -0.018894)
(0.167799 0 -0.0194005)
(0.170972 0 -0.0199069)
(0.174993 0 -0.0204516)
(0.180206 0 -0.0210899)
(0.187017 0 -0.0219041)
(0.195924 0 -0.0230183)
(0.207507 0 -0.0246083)
(0.222411 0 -0.0269165)
(0.241411 0 -0.0302923)
(0.264978 0 -0.035113)
(0.292997 0 -0.0417447)
(0.324239 0 -0.050375)
(0.342548 0 -0.0550219)
(0 0 0)
(0.0263179 0 -0.00235049)
(0.0498252 0 -0.00447535)
(0.0699615 0 -0.00634991)
(0.0871522 0 -0.00802521)
(0.101792 0 -0.0095411)
(0.114225 0 -0.0109271)
(0.124757 0 -0.0122067)
(0.133649 0 -0.0133967)
(0.141133 0 -0.014508)
(0.147434 0 -0.0155505)
(0.152758 0 -0.0165323)
(0.157296 0 -0.0174599)
(0.161238 0 -0.0183399)
(0.164766 0 -0.0191773)
(0.168075 0 -0.0199814)
(0.171363 0 -0.0207628)
(0.174845 0 -0.0215368)
(0.178782 0 -0.0223338)
(0.183438 0 -0.023186)
(0.189122 0 -0.0241427)
(0.196218 0 -0.0252817)
(0.205148 0 -0.0267034)
(0.216454 0 -0.0285617)
(0.230729 0 -0.0310572)
(0.248673 0 -0.034469)
(0.271031 0 -0.0391599)
(0.298094 0 -0.0454631)
(0.329537 0 -0.0536485)
(0.363443 0 -0.0636483)
(0.385125 0 -0.0694167)
(0 0 0)
(0.0266284 0 -0.00253431)
(0.0504429 0 -0.00482795)
(0.0708893 0 -0.00685509)
(0.0884024 0 -0.00867112)
(0.103384 0 -0.0103194)
(0.116189 0 -0.0118331)
(0.127132 0 -0.0132385)
(0.136476 0 -0.014554)
(0.144457 0 -0.0157928)
(0.15131 0 -0.0169685)
(0.157246 0 -0.0180905)
(0.162461 0 -0.0191676)
(0.167157 0 -0.0202117)
(0.171524 0 -0.0212308)
(0.175766 0 -0.0222391)
(0.1801 0 -0.0232556)
(0.184756 0 -0.0243036)
(0.190002 0 -0.0254207)
(0.196122 0 -0.0266523)
(0.203435 0 -0.028059)
(0.212344 0 -0.0297361)
(0.223313 0 -0.0318106)
(0.236887 0 -0.0344554)
(0.253678 0 -0.0378981)
(0.274441 0 -0.0424568)
(0.299793 0 -0.048474)
(0.329974 0 -0.0562636)
(0.364465 0 -0.0659719)
(0.400726 0 -0.0772707)
(0.427744 0 -0.0842182)
(0 0 0)
(0.0269487 0 -0.0027143)
(0.0510815 0 -0.00517381)
(0.0718496 0 -0.00735162)
(0.0896973 0 -0.00930743)
(0.105035 0 -0.0110884)
(0.118228 0 -0.0127317)
(0.129596 0 -0.0142655)
(0.139402 0 -0.0157094)
(0.147892 0 -0.0170795)
(0.155305 0 -0.0183926)
(0.16186 0 -0.0196612)
(0.167761 0 -0.0208968)
(0.173214 0 -0.022114)
(0.178421 0 -0.023327)
(0.183596 0 -0.024555)
(0.188966 0 -0.0258233)
(0.194778 0 -0.0271648)
(0.201296 0 -0.0286217)
(0.208816 0 -0.0302511)
(0.217685 0 -0.0321315)
(0.228302 0 -0.0343691)
(0.241149 0 -0.0371123)
(0.256756 0 -0.0405485)
(0.275763 0 -0.0449366)
(0.298872 0 -0.0506048)
(0.326568 0 -0.0578846)
(0.359073 0 -0.0670971)
(0.395643 0 -0.0782742)
(0.433741 0 -0.09099)
(0.470171 0 -0.0991682)
(0 0 0)
(0.0272794 0 -0.00289176)
(0.0517428 0 -0.00551565)
(0.0728459 0 -0.00784357)
(0.0910413 0 -0.00993922)
(0.10675 0 -0.0118539)
(0.120343 0 -0.0136274)
(0.132142 0 -0.0152906)
(0.142421 0 -0.0168658)
(0.151431 0 -0.0183722)
(0.159416 0 -0.0198284)
(0.166603 0 -0.0212513)
(0.173197 0 -0.0226539)
(0.179407 0 -0.0240533)
(0.18545 0 -0.0254707)
(0.191544 0 -0.0269292)
(0.197929 0 -0.0284622)
(0.204859 0 -0.0301097)
(0.21259 0 -0.0319183)
(0.221435 0 -0.0339576)
(0.231744 0 -0.0363184)
(0.243918 0 -0.0391201)
(0.258414 0 -0.0425198)
(0.275748 0 -0.0467221)
(0.296524 0 -0.051999)
(0.321249 0 -0.0586511)
(0.350285 0 -0.0670203)
(0.383648 0 -0.0774541)
(0.42013 0 -0.090068)
(0.456803 0 -0.104861)
(0.512502 0 -0.114214)
(0 0 0)
(0.0189935 0 0)
(0.0408091 0 0)
(0.0773928 0 0)
(0.124977 0 0)
(0.175126 0 0)
(0.219909 0 0)
(0.255813 0 0)
(0.282951 0 0)
(0.302804 0 0)
(0.316859 0 0)
(0.326269 0 0)
(0.33188 0 0)
(0.334292 0 0)
(0.333913 0 0)
(0.331011 0 0)
(0.325759 0 0)
(0.31824 0 0)
(0.308483 0 0)
(0.296486 0 0)
(0.282221 0 0)
(0.265638 0 0)
(0.246673 0 0)
(0.225255 0 0)
(0.201299 0 0)
(0.174721 0 0)
(0.145431 0 0)
(0.11334 0 0)
(0.0783647 0 0)
(0.0403722 0 0)
(0 0 0)
(0.0058436 0 -0.00782092)
(0.023407 0 -0.00834887)
(0.0455989 0 -0.0100733)
(0.0821308 0 -0.0120263)
(0.129237 0 -0.0138982)
(0.178644 0 -0.0152447)
(0.222663 0 -0.015934)
(0.257915 0 -0.0160454)
(0.284562 0 -0.0157372)
(0.304054 0 -0.0151916)
(0.317836 0 -0.0144885)
(0.32704 0 -0.0136889)
(0.332497 0 -0.0128437)
(0.334792 0 -0.0119977)
(0.33432 0 -0.0111461)
(0.331348 0 -0.0102884)
(0.326039 0 -0.00946724)
(0.318474 0 -0.00869519)
(0.30868 0 -0.00796348)
(0.296654 0 -0.00726699)
(0.282363 0 -0.00660038)
(0.26576 0 -0.00595775)
(0.246779 0 -0.00533272)
(0.225345 0 -0.0047184)
(0.201378 0 -0.00410738)
(0.174789 0 -0.00349163)
(0.14549 0 -0.00286233)
(0.113389 0 -0.0022096)
(0.0784039 0 -0.00152232)
(0.0403984 0 -0.000786331)
(0 0 0)
(0.0195031 0 -0.0149753)
(0.0360729 0 -0.0167201)
(0.0593731 0 -0.0201027)
(0.0958888 0 -0.0238715)
(0.141747 0 -0.0274035)
(0.189052 0 -0.0299245)
(0.230821 0 -0.0311727)
(0.264151 0 -0.0313271)
(0.28934 0 -0.0307252)
(0.307754 0 -0.0296579)
(0.320725 0 -0.02829)
(0.32932 0 -0.0267474)
(0.334318 0 -0.0251272)
(0.33626 0 -0.0234769)
(0.335514 0 -0.0218093)
(0.33233 0 -0.0201643)
(0.326853 0 -0.0185901)
(0.319152 0 -0.0170966)
(0.309249 0 -0.0156757)
(0.297133 0 -0.0143192)
(0.282769 0 -0.0130176)
(0.266104 0 -0.0117597)
(0.247071 0 -0.0105337)
(0.225595 0 -0.00932618)
(0.20159 0 -0.008123)
(0.174969 0 -0.00690855)
(0.14564 0 -0.00566566)
(0.11351 0 -0.00437505)
(0.0784931 0 -0.00301489)
(0.0404489 0 -0.00155748)
(0 0 0)
(0.0396428 0 -0.0224927)
(0.0555947 0 -0.0253434)
(0.0805035 0 -0.030303)
(0.117053 0 -0.0357239)
(0.16107 0 -0.0406075)
(0.20521 0 -0.0439838)
(0.243561 0 -0.0455591)
(0.273975 0 -0.045644)
(0.296925 0 -0.0447233)
(0.313648 0 -0.043153)
(0.325344 0 -0.0411728)
(0.332979 0 -0.0389621)
(0.33724 0 -0.0366277)
(0.33861 0 -0.0342285)
(0.337427 0 -0.0318266)
(0.333904 0 -0.029484)
(0.328157 0 -0.0272348)
(0.320238 0 -0.0250861)
(0.310157 0 -0.0230331)
(0.297896 0 -0.0210661)
(0.283412 0 -0.0191726)
(0.266647 0 -0.0173373)
(0.247531 0 -0.0155435)
(0.225985 0 -0.0137724)
(0.20192 0 -0.0120036)
(0.175247 0 -0.0102148)
(0.145869 0 -0.00838088)
(0.113693 0 -0.006474)
(0.0786261 0 -0.00446233)
(0.0405228 0 -0.00230542)
(0 0 0)
(0.0648526 0 -0.0307906)
(0.08063 0 -0.0345844)
(0.107393 0 -0.0410021)
(0.143919 0 -0.0478374)
(0.185559 0 -0.0536902)
(0.225734 0 -0.057515)
(0.259878 0 -0.0591427)
(0.286699 0 -0.0590247)
(0.306833 0 -0.0577282)
(0.321399 0 -0.0556674)
(0.331454 0 -0.0531238)
(0.337825 0 -0.0502918)
(0.341108 0 -0.0472908)
(0.34173 0 -0.0442259)
(0.339974 0 -0.0411865)
(0.336 0 -0.0382266)
(0.329891 0 -0.0353729)
(0.32168 0 -0.0326342)
(0.31136 0 -0.0300068)
(0.298903 0 -0.0274803)
(0.284257 0 -0.0250396)
(0.267359 0 -0.0226666)
(0.248131 0 -0.0203402)
(0.22649 0 -0.0180371)
(0.202345 0 -0.0157314)
(0.175601 0 -0.0133946)
(0.146159 0 -0.0109947)
(0.113921 0 -0.00849578)
(0.0787902 0 -0.00585694)
(0.0406126 0 -0.00302598)
(0 0 0)
(0.0940982 0 -0.0401384)
(0.110042 0 -0.0447009)
(0.138643 0 -0.0524104)
(0.174859 0 -0.0603036)
(0.213583 0 -0.0666625)
(0.249255 0 -0.0705254)
(0.278744 0 -0.0719359)
(0.301571 0 -0.0714731)
(0.318521 0 -0.0697438)
(0.330607 0 -0.0671903)
(0.338735 0 -0.0641044)
(0.34361 0 -0.0606857)
(0.345748 0 -0.0570953)
(0.345494 0 -0.053463)
(0.343054 0 -0.0498716)
(0.338535 0 -0.0463689)
(0.331989 0 -0.042981)
(0.323421 0 -0.0397167)
(0.312811 0 -0.036573)
(0.300114 0 -0.0335387)
(0.28527 0 -0.030597)
(0.268207 0 -0.0277272)
(0.248842 0 -0.024905)
(0.227085 0 -0.022103)
(0.202842 0 -0.0192908)
(0.176012 0 -0.0164343)
(0.146493 0 -0.0134955)
(0.114181 0 -0.0104311)
(0.0789748 0 -0.00719207)
(0.0407121 0 -0.0037156)
(0 0 0)
(0.126612 0 -0.0506371)
(0.142913 0 -0.0558018)
(0.173115 0 -0.0645888)
(0.208528 0 -0.0731093)
(0.243788 0 -0.0794785)
(0.274589 0 -0.0829872)
(0.2992 0 -0.0839291)
(0.317844 0 -0.0829856)
(0.331407 0 -0.0807635)
(0.340799 0 -0.0776916)
(0.346822 0 -0.0740745)
(0.350078 0 -0.0701336)
(0.350977 0 -0.0660469)
(0.349758 0 -0.0619335)
(0.346552 0 -0.0578681)
(0.341419 0 -0.0538965)
(0.334374 0 -0.0500432)
(0.3254 0 -0.046317)
(0.314455 0 -0.0427145)
(0.301483 0 -0.0392241)
(0.28641 0 -0.0358277)
(0.269157 0 -0.0325028)
(0.249634 0 -0.0292224)
(0.227744 0 -0.0259559)
(0.203388 0 -0.0226689)
(0.17646 0 -0.0193226)
(0.146854 0 -0.0158736)
(0.114459 0 -0.0122722)
(0.0791698 0 -0.00846214)
(0.0408162 0 -0.0043713)
(0 0 0)
(0.16179 0 -0.0622388)
(0.178513 0 -0.0678831)
(0.209889 0 -0.0774714)
(0.243812 0 -0.0861306)
(0.275021 0 -0.0920136)
(0.300675 0 -0.0948005)
(0.320343 0 -0.0950556)
(0.334761 0 -0.0935074)
(0.344854 0 -0.0907258)
(0.351488 0 -0.0871295)
(0.355374 0 -0.0830295)
(0.356988 0 -0.0786506)
(0.356605 0 -0.074151)
(0.354369 0 -0.0696353)
(0.350346 0 -0.0651718)
(0.344552 0 -0.0608029)
(0.336967 0 -0.0565514)
(0.327549 0 -0.0524249)
(0.316239 0 -0.0484199)
(0.302963 0 -0.0445243)
(0.287639 0 -0.0407194)
(0.270176 0 -0.0369811)
(0.250477 0 -0.0332806)
(0.228441 0 -0.0295846)
(0.20396 0 -0.0258553)
(0.176926 0 -0.0220502)
(0.147225 0 -0.0181209)
(0.114743 0 -0.0140126)
(0.0793662 0 -0.00966258)
(0.0409197 0 -0.00499064)
(0 0 0)
(0.199116 0 -0.0748823)
(0.216248 0 -0.0808577)
(0.248158 0 -0.0908832)
(0.279695 0 -0.0991311)
(0.306237 0 -0.104049)
(0.32657 0 -0.105809)
(0.341333 0 -0.105199)
(0.35158 0 -0.102945)
(0.358279 0 -0.0995755)
(0.362262 0 -0.0954953)
(0.364096 0 -0.0909891)