/*--------------------------------*- C++ -*----------------------------------*\
| =========                 |                                                 |
| \\      /  F ield         | OpenFOAM: The Open Source CFD Toolbox           |
|  \\    /   O peration     | Version:  dev                                   |
|   \\  /    A nd           | Web:      www.OpenFOAM.org                      |
|    \\/     M anipulation  |                                                 |
\*---------------------------------------------------------------------------*/
FoamFile
{
    version     2.0;
    format      ascii;
    class       volScalarField;
    location    "1.5";
    object      p;
}
// * * * * * * * * * * * * * * * * * * * * * * * * * * * * * * * * * * * * * //

dimensions      [0 2 -2 0 0 0 0];

internalField   nonuniform List<scalar> 
465
(
40.1556
39.0068
37.3877
35.4247
37.9603
36.3886
34.5284
32.3599
29.8741
37.0121
35.5027
33.7568
31.7686
29.5464
27.1398
24.6456
36.156
34.718
33.0896
31.2738
29.2868
27.1738
25.0051
22.8425
20.81
35.3842
34.0219
32.5084
30.8507
29.0663
27.1928
25.2801
23.37
21.5388
34.6888
33.403
31.9973
30.4804
28.8689
27.1925
25.4862
23.7803
22.1299
34.0615
32.8502
31.5438
30.151
28.6869
27.1748
25.6401
24.1061
22.6159
33.4948
32.3543
31.1382
29.8548
28.5176
27.1446
25.7553
24.3682
23.0175
32.9826
31.9082
30.7735
29.5867
28.3594
27.1057
25.8409
24.5796
23.3489
32.5188
31.5057
30.4445
29.3431
28.2114
27.0606
25.9025
24.749
23.6213
33.0092
32.0979
31.1415
30.1468
29.1212
28.0728
27.0108
25.9446
24.8833
23.8442
32.584
31.716
30.8116
29.8771
28.9185
27.9429
26.9577
25.9706
24.9887
24.0259
32.197
31.3695
30.5128
29.6321
28.7328
27.8208
26.9024
25.9835
25.0702
24.1738
31.8456
31.0558
30.2422
29.4096
28.5625
27.7062
26.8456
25.9858
25.1316
24.293
31.5278
30.7723
29.9976
29.2076
28.4066
27.599
26.7889
25.9804
25.1776
24.3887
31.2413
30.517
29.777
29.0249
28.2644
27.4993
26.7331
25.9694
25.2114
24.4658
30.9848
30.2884
29.5793
28.8606
28.1356
27.4076
26.6796
25.9545
25.2352
24.5273
30.7568
30.0852
29.4034
28.7141
28.0201
27.3242
26.6291
25.9373
25.2514
24.5761
30.557
29.9073
29.2494
28.5856
27.9183
27.25
26.5831
25.92
25.2628
24.6153
30.3841
29.7531
29.116
28.4745
27.8299
27.185
26.542
25.9031
25.27
24.6459
30.2397
29.6244
29.0048
28.382
27.7567
27.1312
26.5082
25.8895
25.2765
24.6721
30.1219
29.5198
28.9136
28.305
27.695
27.0855
26.4788
25.8764
25.2794
24.6904
30.0343
29.4425
28.847
28.2494
27.6514
27.0546
26.4607
25.871
25.2869
24.7104
29.9724
29.3876
28.7995
28.2097
27.6197
27.0311
26.4452
25.8635
25.2871
24.718
29.9452
29.3649
28.7818
28.197
27.6122
27.0289
26.4484
25.872
25.3008
24.7363
19.0872
19.9585
18.8652
17.9558
20.6879
19.6906
18.8637
21.302
20.3922
19.638
21.8176
20.9855
20.2952
22.2491
21.4857
20.8518
22.609
21.9058
21.3216
22.9084
22.2584
21.7181
23.1563
22.5528
22.0516
23.3622
22.7993
22.3321
23.533
23.0062
22.569
23.6733
23.1782
22.7675
23.7893
23.3218
22.9341
23.8853
23.4421
23.0744
23.964
23.5421
23.1918
24.0293
23.6258
23.2904
24.0819
23.6943
23.3715
24.1271
23.7528
23.4403
24.1603
23.797
23.4932
24.1935
23.8391
23.5414
24.2099
23.8623
23.5695
24.2386
23.8986
23.6089
16.8677
17.8763
16.7119
15.3927
14.0588
18.7375
17.6654
16.4258
15.1489
13.9411
12.8186
19.4709
18.4825
17.3214
16.1076
14.943
13.8464
12.8062
11.8149
20.0946
19.1813
18.0954
16.9467
15.8316
14.7694
13.7514
12.7726
11.8338
20.6237
19.7778
18.7624
17.678
16.615
15.5925
14.6034
13.6442
12.717
21.0724
20.2865
19.3362
18.3134
17.3027
16.3223
15.3661
14.4315
13.5212
21.4523
20.7201
19.8293
18.8644
17.9043
16.9664
16.0451
15.138
14.2484
21.7736
21.089
20.2522
19.3409
18.4289
17.5326
16.6465
15.7685
14.902
22.0458
21.403
20.6146
19.7522
18.8851
18.0284
17.1769
16.3283
15.4859
22.2757
21.6697
20.9245
20.1066
19.2808
18.4612
17.6427
16.8228
16.0046
22.4695
21.8956
21.1887
20.4107
19.6225
18.8371
18.0495
17.2571
16.4625
22.6332
22.0869
21.4136
20.671
19.9164
19.1621
18.4029
17.6362
16.8642
22.7706
22.2478
21.6038
20.8924
20.1676
19.4411
18.7076
17.9643
17.2132
22.886
22.383
21.764
21.0797
20.381
19.6789
18.9683
18.2462
17.5141
22.9812
22.4944
21.8966
21.2353
20.5591
19.8781
19.1873
18.4836
17.7683
23.061
22.5872
22.0068
21.3648
20.7074
20.0441
19.3702
18.6823
17.9815
23.123
22.6589
22.0921
21.4655
20.8231
20.1741
19.5138
18.8386
18.1496
23.1767
22.7189
22.1625
21.548
20.9173
20.2795
19.6297
18.9646
18.2849
23.2087
22.7535
22.2032
21.5967
20.9738
20.3432
19.7002
19.0415
18.3676
23.2463
22.7876
22.2404
21.6393
21.0214
20.3951
19.756
19.1009
18.4303
)
;

boundaryField
{
    inlet
    {
        type            zeroGradient;
    }
    outlet
    {
        type            fixedValue;
        value           nonuniform 0();
    }
    flap
    {
        type            zeroGradient;
    }
    upperWall
    {
        type            zeroGradient;
    }
    lowerWall
    {
        type            zeroGradient;
    }
    frontAndBack
    {
        type            empty;
    }
    procBoundary1to0
    {
        type            processor;
        value           nonuniform List<scalar> 
18
(
33.9886
33.4761
33.4761
33.8684
33.4091
32.9893
32.6068
32.2597
31.9464
31.6655
31.4155
31.1964
31.0066
30.848
30.7182
30.6212
30.553
30.5216
)
;
    }
    procBoundary1to2
    {
        type            processor;
        value           nonuniform List<scalar> 
17
(
10.9369
11.825
12.6395
13.3809
14.0516
14.6543
15.1927
15.6703
16.0911
16.4582
16.7757
17.0447
17.2708
17.4493
17.5929
17.6808
17.7464
)
;
    }
    procBoundary1to3
    {
        type            processor;
        value           nonuniform List<scalar> 9(41.4646 40.3268 39.2718 38.2993 37.407 36.591 35.8466 35.1683 34.5509);
    }
    procBoundary1to4
    {
        type            processor;
        value           nonuniform List<scalar> 
30
(
41.4069
38.51
38.51
36.4647
33.0783
33.0783
30.3116
27.1126
27.1126
24.1912
22.1559
22.1559
19.9016
18.0284
17.8912
17.8912
16.8884
15.6836
15.6002
15.6002
14.2039
12.8264
12.8188
12.8188
11.6842
11.7659
11.7659
10.7721
10.8715
10.8715
)
;
    }
}


// ************************************************************************* //
