/*--------------------------------*- C++ -*----------------------------------*\
| =========                 |                                                 |
| \\      /  F ield         | OpenFOAM: The Open Source CFD Toolbox           |
|  \\    /   O peration     | Version:  dev                                   |
|   \\  /    A nd           | Web:      www.OpenFOAM.org                      |
|    \\/     M anipulation  |                                                 |
\*---------------------------------------------------------------------------*/
FoamFile
{
    version     2.0;
    format      ascii;
    class       surfaceScalarField;
    location    "1.85";
    object      phi;
}
// * * * * * * * * * * * * * * * * * * * * * * * * * * * * * * * * * * * * * //

dimensions      [0 3 -1 0 0 0 0];

internalField   nonuniform List<scalar> 
5457
(
0.197435
0.00253596
0.194895
0.00251473
0.192322
0.0025519
0.189649
0.00265553
0.186861
0.00277229
0.183955
0.00289346
0.180921
0.00302416
0.177747
0.00316681
0.174418
0.00332433
0.170916
0.00349966
0.167225
0.00369327
0.163322
0.00390774
0.159183
0.00414629
0.154781
0.00441259
0.150082
0.0047109
0.145048
0.00504637
0.139637
0.00542447
0.133799
0.00585117
0.127477
0.00633368
0.120606
0.00688034
0.113114
0.00750107
0.104913
0.00820668
0.0959091
0.00900933
0.0859883
0.00992457
0.0750164
0.0109745
0.0628342
0.012184
0.0492365
0.0135987
0.0339366
0.0153005
0.0164099
0.017527
0.01641
0.199285
0.00322178
0.198083
0.00369115
0.196712
0.00390212
0.195184
0.00416534
0.193488
0.00445361
0.191618
0.00475076
0.189572
0.00505975
0.187338
0.00539367
0.184899
0.0057583
0.182245
0.00615136
0.179362
0.00657821
0.17623
0.00704463
0.172827
0.00755715
0.169126
0.00812313
0.165098
0.00875133
0.160704
0.00945293
0.155902
0.0102396
0.150642
0.0111242
0.144865
0.0121228
0.138501
0.0132546
0.131465
0.0145447
0.123657
0.0160214
0.114954
0.0177179
0.105202
0.0196807
0.0941889
0.0219898
0.081621
0.0247537
0.0670619
0.028159
0.0497667
0.0325964
0.0278582
0.0394356
0.0442683
0.199148
0.00404446
0.198025
0.00478871
0.196728
0.00517862
0.195294
0.00558079
0.193718
0.00601472
0.191991
0.00646564
0.190105
0.00693494
0.188052
0.00743865
0.185821
0.00798416
0.183401
0.0085698
0.180777
0.00920357
0.177932
0.00989382
0.174847
0.01065
0.171497
0.0114829
0.167855
0.0124052
0.163886
0.0134352
0.159547
0.0145914
0.154791
0.0158931
0.149558
0.0173676
0.143777
0.0190465
0.137351
0.0209795
0.130156
0.0232229
0.122038
0.0258415
0.112792
0.0289305
0.102124
0.0326609
0.0895575
0.0373217
0.0743132
0.0434045
0.0551596
0.0517508
0.0305136
0.0640819
0.074782
0.199057
0.00495862
0.197939
0.00588113
0.196655
0.00644125
0.195235
0.00698268
0.193679
0.00755639
0.191976
0.00815521
0.190119
0.00878156
0.188102
0.00944805
0.185917
0.0101633
0.183554
0.0109311
0.180998
0.0117602
0.178235
0.0126609
0.175247
0.0136454
0.172012
0.0147272
0.168508
0.015921
0.164701
0.0172556
0.160549
0.0187566
0.156008
0.0204472
0.151019
0.0223696
0.145506
0.0245698
0.139377
0.0271181
0.132493
0.0301138
0.124666
0.0336738
0.115634
0.0379673
0.105022
0.0432754
0.0922733
0.0500726
0.0764645
0.0592147
0.0558022
0.0724139
0.0299917
0.0898928
0.104774
0.199008
0.00592185
0.197881
0.00698266
0.196608
0.00769281
0.195199
0.00837325
0.193656
0.00908452
0.191971
0.00982779
0.190134
0.0106071
0.188141
0.0114332
0.185983
0.0123159
0.183649
0.0132625
0.181126
0.0142832
0.1784
0.0153906
0.175452
0.0165996
0.172262
0.017927
0.168804
0.0193908
0.16505
0.0210225
0.160964
0.0228563
0.156497
0.0249276
0.151588
0.0272911
0.146154
0.0300151
0.140103
0.033179
0.133289
0.0369344
0.1255
0.0414695
0.116439
0.0470331
0.105666
0.0540514
0.0925026
0.0632386
0.0761183
0.0756007
0.0544529
0.0940803
0.0282934
0.116053
0.133068
0.198982
0.006911
0.197846
0.00809271
0.196583
0.0089348
0.195187
0.00975094
0.19366
0.0105969
0.191993
0.0114813
0.190179
0.0124101
0.18821
0.0133936
0.186078
0.0144422
0.183771
0.0155659
0.181277
0.0167769
0.178581
0.0180897
0.175664
0.0195231
0.172503
0.0210974
0.169068
0.0228375
0.165336
0.0247672
0.161275
0.0269308
0.15683
0.0293864
0.15194
0.0321945
0.14651
0.0354563
0.140427
0.0392723
0.133544
0.0438251
0.125643
0.0493777
0.116387
0.0562934
0.105326
0.0651174
0.0917496
0.0768176
0.0747183
0.0926342
0.0521973
0.116603
0.0260755
0.142175
0.159143
0.198973
0.00790931
0.197833
0.00920725
0.196577
0.0101692
0.195196
0.0111138
0.193687
0.0120903
0.192043
0.0131124
0.190254
0.0141872
0.188314
0.0153253
0.186212
0.0165376
0.183937
0.0178368
0.181476
0.019237
0.178815
0.0207541
0.175931
0.022412
0.172803
0.0242341
0.169404
0.0262476
0.165705
0.0284792
0.16166
0.0309892
0.157214
0.0338468
0.152303
0.0371186
0.146837
0.0409345
0.140683
0.0454374
0.133674
0.0508424
0.125588
0.0574709
0.116085
0.0658031
0.104655
0.0765522
0.090642
0.090834
0.0730963
0.110183
0.049815
0.139886
0.0236823
0.168309
0.182826
0.198974
0.00890629
0.197837
0.0103186
0.196594
0.0113905
0.195234
0.012456
0.193749
0.0135593
0.192133
0.0147152
0.190377
0.0159323
0.188471
0.0172216
0.186407
0.0185948
0.184171
0.0200681
0.18175
0.021657
0.179129
0.0233762
0.176287
0.025259
0.173197
0.0273322
0.169835
0.0296195
0.166163
0.0321643
0.162131
0.0350342
0.157688
0.0383047
0.152757
0.0420627
0.147246
0.0464593
0.141016
0.0516784
0.133887
0.0579815
0.125607
0.0657589
0.115858
0.075559
0.104142
0.0882747
0.0896419
0.105338
0.0717085
0.12812
0.0478379
0.163759
0.0214532
0.194695
0.204281
0.198982
0.00989548
0.197856
0.0114186
0.196632
0.0125925
0.195297
0.0137729
0.193842
0.0149988
0.192259
0.0162846
0.19054
0.01764
0.188676
0.0190764
0.186656
0.0206063
0.184467
0.0222529
0.182089
0.0240317
0.17951
0.0259567
0.176708
0.0280644
0.173663
0.0303847
0.170342
0.0329504
0.166698
0.0358203
0.162693
0.0390523
0.158278
0.0427343
0.153353
0.0470019
0.147816
0.052009
0.141536
0.0579708
0.13432
0.0652087
0.125909
0.0741798
0.115941
0.0855347
0.103926
0.100297
0.0890469
0.120224
0.0707521
0.14642
0.0462245
0.188291
0.019592
0.22133
0.223874
0.198994
0.0108717
0.197885
0.0125021
0.196685
0.0137716
0.195378
0.015061
0.193956
0.0164051
0.19241
0.0178172
0.19073
0.0193073
0.18891
0.020887
0.186934
0.0225737
0.184789
0.0243916
0.182463
0.0263549
0.179931
0.028488
0.177182
0.0308163
0.174197
0.0333755
0.170939
0.0362173
0.16736
0.0394107
0.163409
0.0430161
0.15903
0.0471281
0.154123
0.0519228
0.148602
0.0575439
0.142326
0.0642604
0.135076
0.0724712
0.126592
0.0826743
0.116495
0.0956421
0.104228
0.112573
0.089093
0.135366
0.0702481
0.165272
0.0449577
0.213587
0.0183033
0.247989
0.24218
0.19901
0.0118328
0.19792
0.0135662
0.196745
0.0149252
0.195469
0.0163178
0.194083
0.0177752
0.192577
0.0193095
0.190942
0.0209302
0.189168
0.0226504
0.187238
0.0244947
0.185146
0.0264772
0.182883
0.028613
0.180426
0.0309431
0.177758
0.0334862
0.174848
0.0362899
0.171657
0.039416
0.168151
0.0429273
0.164276
0.046903
0.159963
0.051455
0.155133
0.0567674
0.14968
0.0630113
0.143452
0.0705029
0.136253
0.0796833
0.127802
0.091138
0.11769
0.105766
0.105392
0.124882
0.0899959
0.150773
0.0702355
0.185042
0.0444569
0.239374
0.017945
0.274507
0.260127
0.199026
0.0127769
0.197959
0.014608
0.196812
0.0160504
0.195571
0.0175398
0.194226
0.0191047
0.192766
0.0207556
0.191182
0.0225011
0.189465
0.0243565
0.1876
0.0263499
0.185579
0.0284905
0.183392
0.0307947
0.181019
0.0333134
0.17843
0.0360753
0.175596
0.0391268
0.172484
0.0425343
0.169067
0.0463533
0.165303
0.0506782
0.161106
0.0556655
0.156402
0.061485
0.151081
0.0683476
0.144988
0.0766104
0.137955
0.0867311
0.129682
0.0994258
0.119762
0.1157
0.107612
0.137044
0.0921054
0.166293
0.0719217
0.205238
0.046894
0.264414
0.0208789
0.30053
0.28101
0.199049
0.0136982
0.19801
0.0156216
0.196897
0.0171416
0.195697
0.018721
0.194398
0.0203868
0.192991
0.0221486
0.191466
0.0240132
0.189815
0.0259958
0.188025
0.0281294
0.186082
0.0304251
0.18397
0.0329007
0.181672
0.0356063
0.179165
0.0385811
0.176429
0.0418647
0.173445
0.0455231
0.170165
0.0496399
0.166532
0.0543219
0.162473
0.0597367
0.15794
0.0660312
0.15283
0.0734717
0.146983
0.0824724
0.140234
0.0934967
0.132333
0.107343
0.122887
0.125161
0.111258
0.14869
0.0965888
0.180979
0.0777301
0.224114
0.0557487
0.286412
0.0315859
0.324704
0.312601
0.199077
0.0145913
0.198071
0.0166015
0.196997
0.0181935
0.195843
0.0198565
0.194598
0.0216161
0.193248
0.0234836
0.191786
0.0254625
0.1902
0.0275699
0.188479
0.0298395
0.186614
0.0322807
0.184584
0.0349228
0.182381
0.0378029
0.179996
0.0409627
0.177396
0.0444644
0.17455
0.0483714
0.17142
0.0527763
0.167951
0.0577986
0.164102
0.0635967
0.159814
0.0703314
0.154984
0.0783145
0.149496
0.0879754
0.143193
0.0998169
0.135906
0.114647
0.127324
0.133762
0.117042
0.15899
0.104623
0.193418
0.0893492
0.239411
0.0738913
0.301891
0.0546008
0.344008
0.367208
0.199102
0.0154597
0.198127
0.0175504
0.197089
0.0192086
0.195979
0.0209484
0.19478
0.0227982
0.193482
0.0247671
0.192077
0.0268534
0.190552
0.0290825
0.188902
0.0314782
0.187122
0.0340501
0.185194
0.0368421
0.183108
0.0398815
0.180843
0.0432222
0.178367
0.046938
0.175649
0.05109
0.172676
0.0557524
0.169411
0.0610699
0.165805
0.0672104
0.161799
0.0743485
0.157312
0.0828127
0.15228
0.0930218
0.146603
0.105511
0.140168
0.121102
0.132898
0.141051
0.124734
0.167176
0.115826
0.202351
0.106896
0.248369
0.102695
0.306118
0.0974255
0.349296
0.464644
0.00119929
-0.00119981
0.00327635
-0.00207499
0.00563656
-0.00233906
0.00809534
-0.0024084
0.0104102
-0.00227128
0.0125372
-0.00211676
0.0145524
-0.00202621
0.0165345
-0.00199967
0.0185194
-0.00200374
0.0205068
-0.00200759
0.0224492
-0.00196528
0.0243001
-0.00187631
0.0260547
-0.00178204
0.0276972
-0.00167139
0.0292001
-0.00153237
0.0305386
-0.00136763
0.0317126
-0.00120191
0.0327427
-0.00105587
0.0336428
-0.000923124
0.0344173
-0.000794531
0.0350925
-0.000691971
0.0357461
-0.000667233
0.0364875
-0.000751976
0.0374115
-0.000931684
0.0385746
-0.00116816
0.0400191
-0.00144712
0.0418238
-0.00180496
0.0441284
-0.00230263
0.0470773
-0.00294472
-0.00352293
0.000892806
-0.00209326
0.00288672
-0.00406625
0.00567711
-0.00510586
0.00861035
-0.00528994
0.0112443
-0.0048635
0.0135341
-0.00439843
0.0156074
-0.00411143
0.0175631
-0.00397321
0.0194324
-0.00389196
0.0212142
-0.00380968
0.02289
-0.00366398
0.0244536
-0.00346545
0.0259012
-0.00325703
0.027234
-0.003033
0.0284365
-0.00276413
0.0294858
-0.00244579
0.0303796
-0.00212327
0.0311448
-0.00184645
0.0318025
-0.00160342
0.0323431
-0.00135474
0.0327436
-0.00110885
0.033023
-0.00095989
0.0332516
-0.000990824
0.0335176
-0.00120506
0.0338817
-0.00153708
0.0343657
-0.00193349
0.0350032
-0.00244261
0.0359373
-0.0032347
0.0375218
-0.00452487
-0.00651979
0.000647973
-0.00274197
0.00239568
-0.00580967
0.00502242
-0.00770515
0.00761339
-0.00782991
0.00980692
-0.00702101
0.0116233
-0.00621014
0.0131678
-0.00566841
0.0145103
-0.00533291
0.0156905
-0.00509048
0.0167026
-0.00484143
0.0175505
-0.00453441
0.0182432
-0.00418335
0.0187858
-0.00382659
0.0191935
-0.00346883
0.019455
-0.00305423
0.0195347
-0.00255361
0.0194101
-0.00202546
0.0191158
-0.00157674
0.0187014
-0.00121086
0.0181646
-0.000836894
0.0174019
-0.000361932
0.016294
0.000135358
0.0148931
0.000400335
0.0134238
0.000257198
0.0121766
-0.000294361
0.0114902
-0.0012492
0.0116995
-0.00265178
0.0131298
-0.00466275
0.015942
-0.00733262
-0.0107546
0.00065617
-0.0033988
0.00227942
-0.00742596
0.00458106
-0.00997583
0.00654146
-0.00974348
0.00804097
-0.00849213
0.00916672
-0.00733433
0.00998938
-0.00650279
0.0105464
-0.00590543
0.0108627
-0.00542341
0.0109572
-0.00495444
0.0108521
-0.00445088
0.0105469
-0.00390229
0.0100454
-0.00335109
0.00936908
-0.0028196
0.00853134
-0.002244
0.00749392
-0.00154319
0.00614451
-0.000701691
0.00432095
0.000223261
0.0020374
0.00105174
-0.000411972
0.00159442
-0.00257658
0.00178764
-0.00412189
0.00166861
-0.0050287
0.00129793
-0.00537398
0.000595937
-0.00505568
-0.000616736
-0.00389645
-0.0024102
-0.00187145
-0.00467637
0.00089519
-0.00742689
0.0041311
-0.0105639
-0.0143877
0.000800316
-0.00419936
0.00233075
-0.00894618
0.00412905
-0.0117418
0.00527374
-0.010849
0.00593006
-0.00912802
0.00621111
-0.00761575
0.00615691
-0.0064588
0.00579102
-0.00555273
0.00512946
-0.00477659
0.00422368
-0.00406563
0.00311459
-0.00336188
0.00179797
-0.00260851
0.00020105
-0.00177875
-0.00174001
-0.000904283
-0.00396159
-4.85281e-05
-0.00630732
0.000776905
-0.00856753
0.00153418
-0.0104859
0.0021193
-0.0119646
0.00251052
-0.0130967
0.00270944
-0.0139625
0.00263922
-0.0145353
0.00223013
-0.0146911
0.00144516
-0.0142983
0.000197171
-0.0133187
-0.00160002
-0.0118143
-0.00391587
-0.00985648
-0.00663349
-0.00762948
-0.0096511
-0.00541283
-0.0127757
-0.0160722
0.00101904
-0.00521778
0.00234134
-0.0102554
0.00340245
-0.0127724
0.0035791
-0.0109958
0.00326085
-0.00879631
0.00256126
-0.0069172
0.0015159
-0.0054215
0.000106945
-0.00415461
-0.00162387
-0.00305856
-0.00356569
-0.00213908
-0.00564533
-0.00130071
-0.00782226
-0.000452792
-0.0100564
0.000432373
-0.0122559
0.00127114
-0.0142868
0.0019578
-0.0160429
0.00250897
-0.0175061
0.00297447
-0.0187343
0.00332651
-0.0197459
0.00350343
-0.0205069
0.00345445
-0.0209832
0.0031022
-0.0211333
0.00236971
-0.0208901
0.0011941
-0.020205
-0.000493298
-0.0191261
-0.00268203
-0.0177699
-0.00527292
-0.016292
-0.00811027
-0.014932
-0.011008
-0.0139298
-0.0137729
-0.0162083
0.00125052
-0.00646647
0.00211611
-0.0111064
0.00215376
-0.0127844
0.00121824
-0.0100395
-0.000224731
-0.00734477
-0.00204401
-0.00509862
-0.00413627
-0.00333489
-0.00638691
-0.00191252
-0.0087071
-0.000749302
-0.0110774
0.000217624
-0.0134393
0.00104445
-0.0156656
0.001754
-0.0176302
0.00237572
-0.0193203
0.00293888
-0.0208226
0.00343728
-0.0221756
0.00383953
-0.0233548
0.0041323
-0.0243319
0.00428414
-0.0250881
0.00424227
-0.0255976
0.00394905
-0.0258352
0.00332762
-0.0257723
0.00229718
-0.0253817
0.000796407
-0.0246813
-0.00119844
-0.0237466
-0.00361927
-0.0227016
-0.00631829
-0.0217172
-0.00909312
-0.0209925
-0.0117292
-0.0207445
-0.0140156
-0.015732
0.00137437
-0.00783771
0.00143611
-0.0111542
0.000141638
-0.0114708
-0.00203851
-0.00784574
-0.00452613
-0.00485167
-0.00712683
-0.002498
-0.00980481
-0.000660575
-0.0124919
0.000767957
-0.0150501
0.00179965
-0.0173431
0.00249851
-0.0193314
0.0030176
-0.0210686
0.00347348
-0.0226192
0.00390683
-0.0240209
0.00431998
-0.0252917
0.00468698
-0.0264293
0.00495644
-0.0273999
0.00508318
-0.0281691
0.00503525
-0.0287203
0.00477751
-0.0290399
0.00425504
-0.0291186
0.0033951
-0.0289492
0.00211914
-0.0285313
0.000372267
-0.0279043
-0.00182938
-0.0271475
-0.0043779
-0.0263789
-0.00708672
-0.0257519
-0.00971805
-0.0254326
-0.0120447
-0.0255925
-0.01385
-0.0150382
0.00118254
-0.00901627
4.18718e-05
-0.0100016
-0.00266929
-0.00874641
-0.00583332
-0.00467318
-0.00901745
-0.0016639
-0.0121533
0.000638268
-0.015063
0.00224677
-0.0175811
0.00328096
-0.0197342
0.00394482
-0.021618
0.00437153
-0.0232759
0.00466182
-0.0247374
0.00491889
-0.0260416
0.00519323
-0.0272167
0.00547622
-0.0282708
0.00572172
-0.0291954
0.00586192
-0.0299584
0.00582812
-0.0305276
0.00558782
-0.0308892
0.00512454
-0.0310459
0.0043993
-0.0310063
0.00334553
-0.0307799
0.00188508
-0.0303809
-3.21582e-05
-0.0298464
-0.00236712
-0.0292425
-0.00498298
-0.0286706
-0.00765788
-0.0282625
-0.0101235
-0.0281644
-0.0121385
-0.0285069
-0.0135015
-0.0142895
0.000455863
-0.0094681
-0.00213035
-0.00740677
-0.00597053
-0.0048977
-0.00981676
-0.000821436
-0.0133419
0.0018638
-0.016325
0.00362182
-0.0188238
0.00474394
-0.0210029
0.00545582
-0.0229041
0.00583912
-0.0245412
0.00599893
-0.0259359
0.00604404
-0.0271193
0.00608764
-0.0281454
0.00620308
-0.0290628
0.00637632
-0.0298876
0.00652876
-0.0305981
0.00655497
-0.031154
0.00636745
-0.0315213
0.00593998
-0.0316936
0.0052836
-0.0316959
0.00439045
-0.0315607
0.00320132
-0.0313068
0.00162456
-0.0309456
-0.000397928
-0.0304945
-0.00282064
-0.0299971
-0.00548089
-0.0295351
-0.00811862
-0.0292223
-0.0104332
-0.0291936
-0.0121625
-0.0295629
-0.0131259
-0.013573
-0.00105044
-0.00841423
-0.00481893
-0.00363292
-0.00938685
-0.000324463
-0.0132449
0.00304039
-0.0163702
0.00499098
-0.0190046
0.00625637
-0.0213058
0.00704353
-0.0232861
0.00743223
-0.0249521
0.0074988
-0.026311
0.00734898
-0.0273909
0.00711245
-0.0282436
0.00692692
-0.028947
0.00689152
-0.0295795
0.00699287
-0.0301704
0.00710333
-0.030682
0.00705065
-0.0310463
0.00671659
-0.0312139
0.0060939
-0.0311923
0.00525002
-0.0310407
0.00422891
-0.0308225
0.0029752
-0.0305611
0.00135745
-0.0302439
-0.000718732
-0.0298531
-0.00321312
-0.0294056
-0.00592823
-0.0289658
-0.00855648
-0.0286355
-0.01076
-0.0285443
-0.0122485
-0.0288168
-0.0128468
-0.0129531
-0.00301299
-0.00539872
-0.00758584
0.000942682
-0.0119697
0.00406256
-0.0153375
0.00641094
-0.0181835
0.00783832
-0.0206533
0.00872587
-0.022761
0.00914918
-0.0245039
0.00917123
-0.0258829
0.00887174
-0.0269046
0.00836221
-0.027602
0.00779918
-0.0280554
0.0073677
-0.0283889
0.00721116
-0.0287251
0.0073143
-0.0291022
0.00746545
-0.029451
0.00738481
-0.0296527
0.00690448
-0.0296277
0.00605652
-0.0294006
0.00501224
-0.0290864
0.00390588
-0.028794
0.00267603
-0.0285427
0.00110137
-0.0282687
-0.000995468
-0.0279015
-0.00358117
-0.0274348
-0.00639406
-0.0269281
-0.00906065
-0.0264783
-0.0112057
-0.0262091
-0.0125122
-0.0262703
-0.0127786
-0.0124809
-0.00505554
-0.000341541
-0.00957059
0.00545876
-0.0132736
0.00776722
-0.0163584
0.0094973
-0.0190192
0.0104998
-0.0212928
0.0109986
-0.0231589
0.0110128
-0.0246029
0.010611
-0.025626
0.00988864
-0.0262386
0.0089665
-0.0264757
0.0080259
-0.0264417
0.00732172
-0.0263349
0.00709124
-0.0263614
0.00732703
-0.0265704
0.00766059
-0.0268256
0.00762659
-0.0269164
0.00698285
-0.0267047
0.00583362
-0.0262372
0.00453527
-0.0257294
0.00339047
-0.02537
0.00231092
-0.0251539
0.000881466
-0.024918
-0.0012332
-0.0245176
-0.00398169
-0.0239417
-0.00696839
-0.0232749
-0.00972431
-0.0226224
-0.0118535
-0.0220895
-0.0130391
-0.0218299
-0.0130309
-0.0121989
-0.00778808
0.00744752
-0.00998067
0.00765151
-0.0134335
0.0112204
-0.0163333
0.0123975
-0.0187942
0.0129604
-0.0208585
0.0130614
-0.0224359
0.0125871
-0.0235083
0.0116786
-0.0240962
0.0104699
-0.0242123
0.00907393
-0.0238731
0.00767641
-0.023194
0.00663101
-0.0225069
0.00639166
-0.0221935
0.00700071
-0.0223046
0.00775881
-0.0225644
0.00787411
-0.0226026
0.00700971
-0.0221714
0.00539245
-0.0213559
0.00371145
-0.0205751
0.00260317
-0.0201602
0.0018913
-0.0200249
0.000743387
-0.0198155
-0.0014436
-0.0192941
-0.00450241
-0.0184936
-0.00776668
-0.0175753
-0.0106388
-0.0166757
-0.012748
-0.0158634
-0.0138448
-0.0152206
-0.0136661
-0.0121741
-0.000207674
0.00765567
-0.00592797
0.0133713
-0.0124339
0.0177257
-0.015351
0.0153135
-0.0176172
0.015225
-0.0194889
0.0149304
-0.0206717
0.013766
-0.0212322
0.0122337
-0.0212642
0.0104948
-0.020779
0.00858003
-0.0196869
0.00657417
-0.018034
0.00496679
-0.0164528
0.00479838
-0.0157291
0.0062647
-0.0158372
0.00785488
-0.0161988
0.0082243
-0.0161803
0.00698093
-0.0153548
0.0045581
-0.0139143
0.0022638
-0.012708
0.00139139
-0.0122736
0.00145322
-0.012277
0.000744872
-0.0120334
-0.00168744
-0.0112474
-0.00528698
-0.0100917
-0.00891938
-0.00885525
-0.011871
-0.00772383
-0.0138738
-0.00672125
-0.0148406
-0.00578973
-0.0145896
-0.0125806
0.206771
0.0163173
0.205808
0.0184857
0.204786
0.0202074
0.203692
0.0220224
0.202512
0.0239617
0.201238
0.0260253
0.199866
0.0282114
0.198382
0.0305529
0.196782
0.0330654
0.195058
0.0357622
0.193196
0.0386934
0.191175
0.0418939
0.18897
0.0454201
0.186581
0.0493217
0.183993
0.0536761
0.181167
0.0585787
0.178069
0.0641714
0.174692
0.0705934
0.170998
0.0780509
0.166923
0.0868967
0.162459
0.0974996
0.157594
0.110394
0.152362
0.126355
0.146901
0.146534
0.141607
0.172496
0.137882
0.206106
0.138842
0.247442
0.15261
0.292383
0.185393
0.316535
0.297224
0.352825
0.211808
0.0171598
0.210866
0.0193993
0.20987
0.0211794
0.208807
0.0230649
0.207667
0.0250837
0.206445
0.0272315
0.205131
0.0295109
0.203714
0.0319556
0.202187
0.0345793
0.200537
0.0373992
0.198753
0.0404646
0.19682
0.0438161
0.194738
0.0474927
0.1925
0.0515522
0.190082
0.0560888
0.187459
0.0611995
0.18462
0.0670108
0.181569
0.0736468
0.17828
0.0813454
0.174756
0.0904269
0.171047
0.10122
0.167243
0.114216
0.16351
0.13011
0.160284
0.149784
0.158661
0.174148
0.161134
0.203668
0.172305
0.236309
0.201156
0.26357
0.250458
0.267262
0.254787
0.292911
0.216978
0.017976
0.216068
0.0202799
0.21511
0.0221127
0.214093
0.0240612
0.213009
0.0261487
0.211849
0.0283748
0.210599
0.0307459
0.209251
0.033288
0.207804
0.036012
0.206245
0.038944
0.204572
0.042124
0.20278
0.0455955
0.200858
0.0494022
0.19879
0.0536106
0.196581
0.0582889
0.194233
0.0635422
0.191735
0.0695054
0.189093
0.0762878
0.186326
0.0841135
0.183504
0.0932504
0.180739
0.103992
0.178195
0.116776
0.176238
0.132089
0.175721
0.150327
0.178107
0.171793
0.186042
0.195771
0.203409
0.218982
0.233363
0.233657
0.268893
0.231764
0.216226
0.307474
0.222282
0.0187561
0.221414
0.0211174
0.220502
0.0229991
0.219538
0.0250033
0.218513
0.0271548
0.217414
0.029456
0.216234
0.0319098
0.214975
0.0345318
0.213633
0.0373386
0.212201
0.0403607
0.21067
0.0436398
0.209032
0.0472179
0.207283
0.0511371
0.205436
0.0554448
0.2035
0.0602133
0.201462
0.0655708
0.199351
0.0716093
0.1972
0.0784325
0.195066
0.0862443
0.193063
0.0952512
0.191338
0.105718
0.190191
0.117935
0.190249
0.132052
0.192423
0.148181
0.198146
0.166103
0.209661
0.184294
0.229268
0.199417
0.256618
0.206347
0.286942
0.201472
0.184377
0.318811
0.227721
0.0194928
0.226902
0.021905
0.226039
0.023835
0.225131
0.0258891
0.22417
0.028096
0.223149
0.0304589
0.222067
0.0329749
0.220923
0.0356596
0.219709
0.0385367
0.218415
0.0416385
0.21703
0.0450079
0.215568
0.0486631
0.214046
0.0526425
0.212467
0.0570079
0.210827
0.0618382
0.209149
0.0672355
0.207492
0.0732544
0.2059
0.080015
0.20447
0.0876659
0.203336
0.0963774
0.202721
0.106329
0.203097
0.117565
0.205055
0.13011
0.209413
0.143849
0.217497
0.158052
0.230882
0.170948
0.250379
0.179962
0.274289
0.182476
0.298769
0.177024
0.161714
0.321453
0.233291
0.0201847
0.232526
0.022638
0.231726
0.0246068
0.230888
0.0267036
0.23001
0.0289535
0.229091
0.0313593
0.228125
0.0339242
0.227101
0.0366666
0.226016
0.0396055
0.224867
0.0427701
0.223664
0.0461921
0.222423
0.0498855
0.221149
0.0538981
0.21985
0.0582888
0.218547
0.063123
0.217288
0.0684776
0.216126
0.0744012
0.21514
0.0809861
0.214449
0.088344
0.214224
0.0965902
0.2148
0.105745
0.21658
0.115786
0.220067
0.126632
0.226094
0.13784
0.235688
0.148486
0.249614
0.157058
0.267569
0.162047
0.287686
0.162396
0.307315
0.157424
0.14417
0.324879
0.239002
0.0208254
0.2383
0.0233059
0.237581
0.0252973
0.236831
0.0274285
0.236053
0.0297111
0.23524
0.0321527
0.234383
0.0347636
0.233484
0.0375489
0.232552
0.0405212
0.231585
0.0437192
0.230592
0.0471658
0.229584
0.0508727
0.228577
0.054885
0.227595
0.0592496
0.226669
0.0640282
0.225856
0.0692705
0.225223
0.0750154
0.22487
0.0813204
0.224939
0.0882585
0.225665
0.095849
0.227329
0.104071
0.230248
0.112864
0.234978
0.121907
0.242217
0.130612
0.252534
0.138189
0.265976
0.143644
0.281821
0.146235
0.298727
0.145523
0.31508
0.141099
0.129713
0.329554
0.244864
0.0214
0.24424
0.0238953
0.243606
0.0259013
0.242948
0.0280604
0.242271
0.030366
0.241571
0.0328332
0.240845
0.0354719
0.240102
0.0382752
0.239343
0.0412627
0.238568
0.0444766
0.237799
0.0479157
0.237053
0.0515973
0.236344
0.0555715
0.235703
0.0598679
0.235178
0.0645305
0.234839
0.0695868
0.234761
0.0750706
0.235048
0.0810124
0.235882
0.0874046
0.237469
0.0942445
0.240026
0.1015
0.243917
0.108969
0.249624
0.116202
0.257573
0.122671
0.267897
0.127878
0.280298
0.131262
0.294152
0.132403
0.308565
0.131136
0.322468
0.127217
0.117468
0.334727
0.250875
0.0219002
0.250331
0.0244023
0.249787
0.0264145
0.249236
0.0285847
0.248677
0.0309022
0.24811
0.0333798
0.247538
0.0360258
0.24696
0.0388357
0.24638
0.0418255
0.245819
0.0450195
0.2453
0.0484155
0.244831
0.0520457
0.244433
0.0559472
0.244151
0.060126
0.244049
0.0646082
0.2442
0.0694118
0.244669
0.0745773
0.245582
0.0800764
0.247115
0.0858491
0.249426
0.0919135
0.252753
0.0981583
0.257446
0.10427
0.263813
0.109834
0.271975
0.114514
0.281835
0.118027
0.293083
0.120027
0.30524
0.120263
0.317686
0.118706
0.329695
0.115224
0.106855
0.340317
0.257038
0.0223174
0.256586
0.0248163
0.256146
0.0268223
0.255717
0.0289857
0.25529
0.0313056
0.254863
0.0337858
0.254445
0.0364247
0.254044
0.039219
0.25367
0.0421815
0.253343
0.0453287
0.253079
0.0486613
0.252895
0.0522092
0.252828
0.0559925
0.252926
0.0600052
0.253251
0.0642578
0.253868
0.0687703
0.254857
0.0735626
0.256365
0.0785443
0.258511
0.0836791
0.261449
0.088955
0.265435
0.0941568
0.270717
0.0989788
0.277396
0.103152
0.285414
0.106498
0.294633
0.108814
0.304794
0.109875
0.31552
0.109548
0.326395
0.107843
0.336932
0.104697
0.0974781
0.346314
0.263361
0.0226385
0.263017
0.0251201
0.262695
0.0271108
0.262386
0.0292663
0.26209
0.0315765
0.261819
0.0340355
0.261575
0.036649
0.261366
0.0394099
0.26121
0.0423202
0.261124
0.0453959
0.261129
0.0486386
0.261247
0.0520713
0.261519
0.0556994
0.261998
0.0595047
0.262741
0.0634914
0.263797
0.0676897
0.265285
0.072049
0.267329
0.0764754
0.270007
0.0809783
0.273495
0.0854459
0.278005
0.0896307
0.283626
0.0933479
0.290317
0.0964567
0.298002
0.0988123
0.306561
0.100258
0.31577
0.100672
0.325323
0.100002
0.334922
0.0982516
0.344253
0.095372
0.0890849
0.352649
0.269844
0.0228538
0.269613
0.0253103
0.269411
0.0272776
0.269237
0.0294106
0.269095
0.0316921
0.268995
0.0341132
0.268935
0.0366899
0.268928
0.039398
0.269
0.0422303
0.269167
0.0452114
0.269447
0.0483399
0.269873
0.0516263
0.270487
0.0550661
0.271341
0.0586297
0.272475
0.0623357
0.273957
0.0661846
0.275911
0.0700718
0.278408
0.0739552
0.281553
0.0778119
0.285508
0.0814706
0.290352
0.0847711
0.296067
0.0876221
0.302609
0.0899089
0.30991
0.0915082
0.317851
0.0923181
0.326228
0.0922976
0.334809
0.0914261
0.343392
0.0896729
0.351745
0.0870245
0.0815112
0.35932
0.276492
0.0229532
0.276381
0.0253783
0.276312
0.0273098
0.276292
0.0293998
0.276313
0.0316452
0.276382
0.0340212
0.276516
0.0365351
0.276728
0.0391669
0.277037
0.0419036
0.277461
0.0447703
0.278024
0.0477596
0.278757
0.0508746
0.279702
0.0541026
0.280912
0.0574001
0.282423
0.0608047
0.284307
0.0642798
0.28666
0.0676985
0.289561
0.0710334
0.293119
0.0742352
0.297394
0.0771782
0.30238
0.0797713
0.308056
0.0819353
0.314387
0.083572
0.321293
0.0845987
0.328656
0.0849537
0.336317
0.0846378
0.344107
0.0836383
0.351874
0.0819101
0.35942
0.079481
0.0746258
0.366307
0.283313
0.0229219
0.283335
0.0253107
0.283407
0.0272
0.283539
0.0292355
0.283727
0.0314301
0.28398
0.0337442
0.284327
0.0361682
0.284766
0.0387082
0.285307
0.0413454
0.285992
0.0440686
0.286846
0.0468888
0.287878
0.0498249
0.289137
0.052826
0.290679
0.0558408
0.292546
0.0589187
0.294806
0.0620015
0.297529
0.0649579
0.300789
0.0677554
0.304639
0.07037
0.309076
0.0727265
0.314092
0.0747435
0.31967
0.0763488
0.325761
0.0774749
0.332286
0.0780705
0.339125
0.0781123
0.346171
0.077593
0.353314
0.0764967
0.360402
0.0748254
0.367276
0.0726107
0.0683132
0.37359
0.290293
0.0227618
0.290463
0.0250938
0.290687
0.0269363
0.290976
0.0289136
0.291345
0.0310323
0.291806
0.0332597
0.292365
0.0355877
0.293034
0.0380209
0.293822
0.0405396
0.294761
0.043113
0.295887
0.045747
0.297215
0.0484808
0.298782
0.051243
0.300639
0.0539681
0.302839
0.0567026
0.305449
0.0593748
0.308509
0.0618831
0.312034
0.0642155
0.316046
0.0663443
0.320553
0.0682081
0.325542
0.0697444
0.330986
0.0708982
0.336831
0.0716248
0.342995
0.0719046
0.349379
0.0717268
0.355909
0.0710633
0.362498
0.06991
0.369014
0.0683128
0.37533
0.0662982
0.0624829
0.381163
0.29745
0.0224628
0.29777
0.0247248
0.298155
0.0265096
0.298623
0.0284114
0.299188
0.030438
0.299855
0.0325676
0.300627
0.034795
0.30152
0.0371086
0.302559
0.0394833
0.303757
0.0418995
0.305144
0.0443449
0.30676
0.0468498
0.308631
0.0493575
0.310794
0.0517911
0.313311
0.0541717
0.31622
0.0564525
0.319519
0.0585711
0.323218
0.0605053
0.327332
0.0622193
0.331862
0.0636692
0.33679
0.0648099
0.342081
0.0656026
0.347674
0.0660281
0.353499
0.0660781
0.3595
0.0657261
0.365609
0.0649561
0.371725
0.0637972
0.377749
0.062293
0.383596
0.0604562
0.0570607
0.389022
0.304782
0.0220193
0.305263
0.0241925
0.305827
0.0259031
0.306482
0.0277207
0.307245
0.0296456
0.308116
0.0316706
0.309101
0.0337881
0.31023
0.0359612
0.311517
0.038179
0.312969
0.0404326
0.314614
0.0426857
0.31651
0.0449403
0.318684
0.047171
0.321144
0.0493194
0.323928
0.0513754
0.327056
0.0533136
0.330528
0.0550897
0.334351
0.0566732
0.338528
0.0580342
0.343051
0.0591403
0.347897
0.0599597
0.353021
0.0604757
0.358369
0.0606788
0.363905
0.0605427
0.369581
0.0600515
0.375315
0.0592255
0.381022
0.0580939
0.386635
0.0566859
0.392087
0.0550106
0.0519847
0.39717
0.312293
0.0214256
0.312951
0.0234828
0.313705
0.0251044
0.314554
0.026835
0.315507
0.0286615
0.316587
0.0305649
0.317797
0.0325562
0.319153
0.0345855
0.320685
0.0366312
0.322399
0.0387035
0.324317
0.0407543
0.326486
0.0427597
0.328928
0.0447175
0.331641
0.0465967
0.334639
0.0483679
0.33794
0.0500042
0.341547
0.0514746
0.345461
0.0527528
0.349675
0.0538152
0.354171
0.0546404
0.358917
0.0552116
0.363875
0.0555175
0.369017
0.0555369
0.37431
0.0552519
0.379689
0.0546755
0.385088
0.0538314
0.390447
0.0527408
0.395712
0.0514286
0.40083
0.0499009
0.0472031
0.40562
0.320006
0.0206583
0.320837
0.0225978
0.321773
0.0241237
0.322825
0.0257441
0.323985
0.0274701
0.325269
0.0292542
0.326708
0.0310942
0.328303
0.0329717
0.330077
0.0348414
0.332057
0.0367091
0.334251
0.0385484
0.33667
0.0403294
0.339333
0.042045
0.34225
0.0436709
0.34543
0.0451807
0.348879
0.0465489
0.352597
0.047751
0.35658
0.0487657
0.360818
0.0495749
0.365275
0.0501816
0.369917
0.0505699
0.374733
0.0507023
0.379702
0.0505704
0.384772
0.050186
0.389886
0.0495661
0.394997
0.0487269
0.400058
0.0476875
0.405026
0.0464695
0.409859
0.0450779
0.0426736
0.414399
0.327903
0.0197168
0.328915
0.0215299
0.33004
0.0229519
0.331287
0.0244574
0.332665
0.0260599
0.334174
0.0277178
0.335847
0.0293987
0.337697
0.0311026
0.339722
0.0328001
0.341946
0.034472
0.344376
0.0361071
0.347017
0.0376784
0.349883
0.0391706
0.352982
0.0405641
0.35632
0.0418372
0.359896
0.0429684
0.363705
0.0439383