/*--------------------------------*- C++ -*----------------------------------*\
| =========                 |                                                 |
| \\      /  F ield         | OpenFOAM: The Open Source CFD Toolbox           |
|  \\    /   O peration     | Version:  dev                                   |
|   \\  /    A nd           | Web:      www.OpenFOAM.org                      |
|    \\/     M anipulation  |                                                 |
\*---------------------------------------------------------------------------*/
FoamFile
{
    version     2.0;
    format      ascii;
    class       surfaceVectorField;
    location    "1.85";
    object      Uf;
}
// * * * * * * * * * * * * * * * * * * * * * * * * * * * * * * * * * * * * * //

dimensions      [0 1 -1 0 0 0 0];

internalField   nonuniform List<vector> 
5457
(
(9.91398 0 0.021022)
(9.96855 -1.10131e-21 0.0356064)
(9.82412 -1.23108e-21 0.0259817)
(9.93336 -3.77787e-20 0.0384118)
(9.72706 9.68834e-23 0.0297319)
(9.87693 1.19165e-21 0.0431433)
(9.62036 1.23115e-21 0.0335591)
(9.80419 1.25758e-21 0.0493174)
(9.50405 0 0.0374477)
(9.72039 -2.10729e-20 0.0558675)
(9.37838 -1.18763e-20 0.0414301)
(9.62675 0 0.062687)
(9.24322 -1.14161e-20 0.0456296)
(9.52283 -1.15602e-20 0.0699735)
(9.09814 1.31318e-20 0.0501695)
(9.40805 5.21364e-23 0.0779237)
(8.94247 -1.07672e-21 0.0551591)
(9.28186 6.49832e-21 0.0867056)
(8.77539 -1.32073e-20 0.0607044)
(9.14364 -6.75193e-21 0.0964805)
(8.59589 0 0.0669217)
(8.99258 -2.83928e-20 0.107425)
(8.40284 0 0.0739474)
(8.82768 2.94157e-20 0.119749)
(8.19485 1.70363e-20 0.0819426)
(8.6477 0 0.133702)
(7.97035 -9.44781e-22 0.0910944)
(8.45124 1.26394e-20 0.149574)
(7.72755 -1.67593e-20 0.10162)
(8.23665 -8.68943e-20 0.167694)
(7.4644 0 0.113775)
(8.00208 7.22232e-20 0.188444)
(7.1786 -1.0461e-20 0.127855)
(7.74538 0 0.21226)
(6.86759 -1.01115e-20 0.144209)
(7.46416 -1.86455e-22 0.239636)
(6.52855 -2.33533e-20 0.163241)
(7.15574 1.73259e-19 0.271125)
(6.15841 -2.26028e-20 0.185416)
(6.81714 -1.79335e-19 0.30733)
(5.75384 0 0.21128)
(6.44507 0 0.348898)
(5.31133 -1.112e-19 0.241468)
(6.03594 0 0.396509)
(4.82718 -1.11042e-19 0.276733)
(5.58586 -1.09517e-19 0.450835)
(4.29762 1.16584e-19 0.317995)
(5.09061 -2.62487e-21 0.512485)
(3.71875 1.1695e-19 0.366429)
(4.54548 1.18146e-19 0.581964)
(3.0865 -3.28352e-19 0.42357)
(3.94521 1.20689e-19 0.659569)
(2.39615 -6.55234e-20 0.491614)
(3.28309 -1.1555e-18 0.745012)
(1.64174 -2.62967e-19 0.574404)
(2.54943 1.15418e-18 0.836027)
(0.809013 -7.32148e-19 0.653094)
(1.70817 -6.57396e-19 0.926595)
(0.952324 2.17463e-19 0.930394)
(10.007 -3.95634e-20 0.0408155)
(10.0001 -6.91871e-20 0.0326681)
(9.98505 -3.44832e-20 0.0516024)
(9.99466 3.29886e-20 0.0477199)
(9.94944 2.3442e-21 0.060348)
(9.97114 -3.58877e-20 0.0588908)
(9.90167 -2.15155e-20 0.069759)
(9.9314 0 0.0713041)
(9.84177 -2.0643e-20 0.0797521)
(9.87956 -5.91073e-23 0.0845397)
(9.76992 7.60119e-23 0.0903369)
(9.81697 0 0.0984259)
(9.6861 1.12017e-22 0.101764)
(9.74343 2.31969e-20 0.113269)
(9.59002 -6.45739e-21 0.114306)
(9.65848 -1.20792e-20 0.129431)
(9.48119 5.66834e-22 0.128218)
(9.56167 1.90385e-20 0.147239)
(9.35889 -2.2337e-20 0.143758)
(9.4525 6.70754e-21 0.167017)
(9.22227 2.11633e-21 0.16122)
(9.33029 -2.83961e-20 0.189127)
(9.07026 2.88857e-20 0.180947)
(9.19414 4.41382e-20 0.213996)
(8.90159 -4.17068e-21 0.203344)
(9.04297 0 0.242123)
(8.71477 -7.50951e-20 0.228875)
(8.87551 6.98607e-20 0.274086)
(8.5081 4.94686e-21 0.258078)
(8.6903 -1.38148e-19 0.310552)
(8.27959 7.09785e-20 0.291571)
(8.48564 2.18222e-19 0.352296)
(8.027 1.03227e-20 0.330065)
(8.25957 -1.50803e-19 0.400218)
(7.74776 1.86118e-19 0.374366)
(8.00987 3.01418e-20 0.45535)
(7.43901 1.16464e-20 0.425374)
(7.734 2.25746e-21 0.518869)
(7.09752 -1.53666e-19 0.484078)
(7.42909 4.24769e-19 0.592084)
(6.71967 0 0.551557)
(7.09184 -3.70991e-19 0.676453)
(6.30144 0 0.628955)
(6.71851 0 0.773584)
(5.83827 0 0.717458)
(6.30475 -1.02934e-19 0.885209)
(5.325 0 0.818319)
(5.8455 0 1.01315)
(4.7553 1.2174e-19 0.932998)
(5.33441 1.12297e-19 1.15938)
(4.1211 -7.10493e-19 1.06334)
(4.76324 -2.31683e-19 1.32625)
(3.41016 5.73019e-20 1.21254)
(4.12035 -7.05354e-19 1.51698)
(2.5992 7.74303e-19 1.39049)
(3.38732 2.99007e-18 1.73772)
(1.63293 3.09177e-19 1.65794)
(2.52127 2.49468e-19 2.0068)
(1.56271 -1.47957e-18 2.42164)
(10.0001 5.48759e-21 0.0421109)
(9.99789 2.04976e-21 0.0326477)
(9.98214 3.01712e-20 0.0582857)
(9.99 -3.86095e-20 0.0554369)
(9.95033 -3.74593e-20 0.0727428)
(9.96769 -6.32534e-24 0.0730974)
(9.90749 2.14912e-20 0.0882351)
(9.93092 0 0.0911876)
(9.85395 2.06209e-20 0.104828)
(9.88267 6.29835e-20 0.110357)
(9.78974 2.36011e-20 0.122564)
(9.82431 0 0.130576)
(9.71479 1.0317e-20 0.141769)
(9.75582 -2.02963e-23 0.152202)
(9.6289 1.40079e-20 0.162836)
(9.67686 1.19145e-20 0.175715)
(9.53163 2.4951e-20 0.186155)
(9.58704 4.26086e-23 0.201579)
(9.4224 0 0.212142)
(9.48594 0 0.230263)
(9.30049 1.4988e-20 0.241279)
(9.37303 0 0.262288)
(9.16498 1.44562e-20 0.274132)
(9.24757 -1.32724e-19 0.298269)
(9.01479 7.52643e-20 0.311362)
(9.10867 2.46403e-19 0.338921)
(8.84867 3.0825e-21 0.353732)
(8.9553 -1.89061e-19 0.38507)
(8.66516 8.13903e-20 0.402133)
(8.78627 6.66244e-20 0.43768)
(8.46256 -9.97697e-21 0.457604)
(8.6002 1.41552e-19 0.497878)
(8.23894 -1.27948e-19 0.521346)
(8.39551 1.62753e-19 0.566982)
(7.99206 -1.54066e-19 0.594744)
(8.17037 -6.33748e-19 0.646533)
(7.71936 4.21828e-19 0.679369)
(7.92273 4.95813e-19 0.738317)
(7.41787 1.95292e-19 0.776992)
(7.65016 1.89665e-19 0.844374)
(7.08416 -3.65388e-19 0.889624)
(7.34986 -3.70619e-19 0.967053)
(6.7141 -1.04256e-19 1.01952)
(7.01844 3.8198e-19 1.10908)
(6.30275 -1.0156e-19 1.16916)
(6.65183 8.155e-19 1.2736)
(5.84397 1.13287e-19 1.34136)
(6.24497 -1.68569e-18 1.46428)
(5.32943 -2.41523e-19 1.53969)
(5.79109 -1.52854e-20 1.68559)
(4.74723 -2.31164e-19 1.76955)
(5.28077 7.75779e-19 1.94363)
(4.07898 2.2085e-18 2.04109)
(4.70059 -1.18085e-19 2.24801)
(3.29004 2.55893e-18 2.36995)
(4.02605 1.85512e-18 2.61875)
(2.36638 -1.69714e-18 2.86612)
(3.2707 2.44849e-19 3.06059)
(2.14131 -2.14774e-18 3.88816)
(9.99535 -4.27992e-20 0.0464744)
(9.99643 7.02397e-20 0.0345897)
(9.9776 -6.79512e-20 0.0696375)
(9.98645 3.61159e-20 0.0630776)
(9.94652 3.74224e-20 0.09079)
(9.96381 -3.7903e-20 0.0869986)
(9.90448 4.28137e-20 0.112511)
(9.92785 0 0.110726)
(9.85219 4.10835e-20 0.135349)
(9.88073 4.18765e-20 0.135614)
(9.78969 -2.36282e-20 0.159578)
(9.82374 0 0.161915)
(9.71697 1.8304e-21 0.185655)
(9.757 -2.28942e-20 0.190044)
(9.63387 -2.25661e-21 0.21411)
(9.68024 -2.3833e-20 0.220568)
(9.54009 -2.49016e-20 0.245481)
(9.59318 2.49786e-20 0.254066)
(9.43518 0 0.28034)
(9.49549 0 0.29113)
(9.31856 -1.50127e-19 0.319339)
(9.38673 0 0.332418)
(9.18953 1.06105e-19 0.363236)
(9.26633 1.33682e-20 0.378701)
(9.04723 -2.56721e-20 0.412909)
(9.13358 1.10005e-19 0.430867)
(8.8907 -1.21108e-19 0.469377)
(8.98768 -2.63129e-19 0.489944)
(8.71882 1.28129e-19 0.53383)
(8.82772 2.7088e-19 0.557133)
(8.53031 3.14418e-19 0.607666)
(8.65268 -4.23684e-19 0.633845)
(8.3237 -3.56076e-19 0.692529)
(8.46138 5.98831e-19 0.721736)
(8.09731 3.4024e-20 0.790341)
(8.25249 -6.53657e-19 0.822769)
(7.84919 2.59669e-19 0.90333)
(8.02453 9.97331e-19 0.939259)
(7.57706 -3.84867e-19 1.03407)
(7.77579 -4.26456e-19 1.07389)
(7.27819 3.8693e-19 1.1856)
(7.5042 -1.17286e-18 1.22984)
(6.94917 1.3052e-18 1.36151)
(7.20729 -3.64069e-19 1.41096)
(6.58566 -7.92357e-19 1.56609)
(6.88193 9.15454e-19 1.62187)
(6.18203 -1.79919e-18 1.80457)
(6.52415 -1.78004e-18 1.8683)
(5.73031 9.93975e-19 2.08376)
(6.12855 8.15402e-20 2.15755)
(5.21879 8.87404e-19 2.41367)
(5.68736 -6.1458e-19 2.49973)
(4.63123 -4.58014e-19 2.81278)
(5.19123 -2.41479e-19 2.90916)
(3.92824 -3.47396e-19 3.29371)
(4.60562 1.71636e-18 3.42144)
(3.18803 -3.99119e-19 3.97764)
(4.07059 -1.79086e-19 3.96009)
(2.79836 -5.16529e-19 5.13992)
(9.99281 1.48475e-19 0.0517463)
(9.99566 0 0.0375837)
(9.97452 6.45033e-20 0.0806155)
(9.98437 1.45457e-19 0.0709518)
(9.94397 -7.45276e-20 0.107412)
(9.96141 -1.22084e-22 0.10067)
(9.90268 -8.08383e-23 0.134556)
(9.92615 0 0.129939)
(9.85141 -7.75809e-23 0.163014)
(9.88016 -4.17967e-20 0.160395)
(9.79031 2.85048e-22 0.193276)
(9.82456 0 0.192584)
(9.71936 -4.86051e-20 0.22589)
(9.75953 4.57675e-20 0.227005)
(9.63844 4.321e-21 0.261474)
(9.68488 -5.96128e-22 0.264299)
(9.54733 4.944e-20 0.300667)
(9.60038 1.00097e-19 0.305137)
(9.44566 0 0.344156)
(9.50576 0 0.350217)
(9.33296 1.63793e-19 0.392723)
(9.40069 -2.74672e-20 0.400324)
(9.20867 1.90518e-20 0.447269)
(9.2847 1.57702e-20 0.456361)
(9.07211 -1.34181e-19 0.508831)
(9.15722 -9.3015e-20 0.519355)
(8.92254 1.38231e-19 0.578619)
(9.01764 1.25968e-19 0.590493)
(8.75914 -2.92691e-19 0.658047)
(8.86528 1.35951e-19 0.671164)
(8.58097 -1.22443e-19 0.748778)
(8.69941 -4.21535e-19 0.763)
(8.38701 2.80739e-19 0.852787)
(8.51921 -1.0047e-20 0.867915)
(8.1761 3.35881e-19 0.972422)
(8.32379 2.85029e-19 0.988201)
(7.94695 2.89655e-19 1.11044)
(8.11229 3.30734e-19 1.1266)
(7.69804 -1.22348e-18 1.2701)
(7.88364 6.35272e-21 1.28631)
(7.42761 -1.91255e-18 1.4553)
(7.63654 -1.08291e-18 1.47121)
(7.13337 -7.36203e-19 1.67089)
(7.36968 -7.23629e-21 1.68607)
(6.81236 -1.01406e-19 1.92283)
(7.0813 -1.51529e-18 1.93682)
(6.46071 1.0843e-19 2.21869)
(6.76922 2.25323e-18 2.23094)
(6.07302 -1.52069e-18 2.5685)
(6.43063 -1.5913e-18 2.57818)
(5.64127 -1.76851e-18 2.98567)
(6.06116 -1.7157e-18 2.99177)
(5.15896 1.88443e-18 3.49366)
(5.66101 1.60558e-18 3.48632)
(4.5781 1.92227e-18 4.09214)
(5.17261 1.89074e-18 4.11795)
(4.06427 -2.9991e-19 4.87954)
(4.91579 -4.44155e-18 4.66748)
(3.52213 3.13118e-18 6.12579)
(9.99144 -1.61314e-22 0.0574722)
(9.99529 4.34101e-21 0.041143)
(9.97267 7.75994e-20 0.0914858)
(9.98328 -2.12356e-19 0.0790349)
(9.94271 7.44275e-20 0.123722)
(9.96024 6.66312e-20 0.114087)
(9.90241 -4.25904e-20 0.156343)
(9.92577 5.92791e-20 0.14871)
(9.85244 -4.08801e-20 0.190491)
(9.88112 -6.26739e-20 0.184574)
(9.79301 4.6384e-20 0.226802)
(9.82719 4.32881e-20 0.222445)
(9.72413 9.29037e-20 0.265895)
(9.76419 -9.07972e-20 0.262932)
(9.64571 9.71594e-20 0.308458)
(9.69199 -3.15923e-22 0.306743)
(9.55756 4.88261e-20 0.355214)
(9.61042 -1.5149e-22 0.354625)
(9.45942 -2.79694e-20 0.406958)
(9.51928 0 0.407366)
(9.3509 -1.7478e-19 0.464595)
(9.41829 -1.64485e-19 0.465865)
(9.23154 -9.83115e-20 0.529153)
(9.3071 8.34842e-20 0.531142)
(9.10083 1.71037e-19 0.601805)
(9.18528 -3.46595e-19 0.604336)
(8.95821 1.23905e-19 0.683916)
(9.05236 1.53595e-19 0.686755)
(8.80311 -2.22477e-21 0.777091)
(8.90788 2.60627e-19 0.779941)
(8.63487 -3.02181e-19 0.883203)
(8.75137 2.74904e-19 0.885703)
(8.45286 -1.54754e-21 1.00446)
(8.58234 -5.80745e-19 1.00615)
(8.25642 2.80834e-19 1.14355)
(8.40019 2.94604e-19 1.14379)
(8.04484 4.28136e-20 1.30364)
(8.20469 6.33197e-19 1.30169)
(7.81731 1.31062e-19 1.48854)
(7.99543 5.26593e-20 1.48351)
(7.573 8.31506e-19 1.70286)
(7.77179 -5.87593e-19 1.69361)
(7.31097 -7.96238e-19 1.95238)
(7.53359 7.35051e-19 1.93744)
(7.03005 8.59219e-19 2.24438)
(7.28064 -1.42058e-18 2.22185)
(6.72883 5.52356e-19 2.5882)
(7.01281 2.5299e-18 2.55557)
(6.40565 -1.79268e-18 2.99591)
(6.73043 -2.64491e-19 2.94985)
(6.05749 1.59502e-18 3.48218)
(6.43276 -1.52211e-18 3.41978)
(5.69076 1.58016e-18 4.07242)
(6.1336 3.08221e-18 3.97534)
(5.24356 -3.75771e-18 4.748)
(5.73652 -4.10577e-18 4.70272)
(4.93671 1.85727e-18 5.55957)
(5.76749 -1.62444e-18 5.19593)
(4.27253 3.24269e-18 6.85855)
(9.99077 -2.12202e-19 0.0634567)
(9.99515 2.007e-23 0.0449782)
(9.97181 -2.17215e-19 0.102279)
(9.98285 -6.36639e-20 0.0872015)
(9.94255 5.13167e-20 0.139685)
(9.96 -1.59938e-19 0.127204)
(9.90343 3.66804e-20 0.177583)
(9.92648 7.88532e-20 0.166946)
(9.85502 2.36655e-20 0.217188)
(9.88333 -4.15384e-20 0.208024)
(9.79758 -9.65448e-20 0.259258)
(9.83133 1.72901e-19 0.251352)
(9.73112 -1.82319e-19 0.304506)
(9.77067 -6.77989e-22 0.297646)
(9.6556 -9.76323e-20 0.353691)
(9.70129 -1.42675e-19 0.347686)
(9.57088 -4.90088e-20 0.407619)
(9.62309 4.84675e-20 0.402282)
(9.47676 -1.39485e-19 0.46718)
(9.53588 0 0.462298)
(9.37296 9.82132e-20 0.533388)
(9.43948 -8.28849e-20 0.528733)
(9.25912 -1.72052e-19 0.607376)
(9.33366 2.28939e-19 0.602705)
(9.13488 -3.55724e-19 0.690419)
(9.21811 -4.19946e-19 0.685437)
(8.99986 2.92084e-19 0.783999)
(9.09252 -3.46742e-21 0.778338)
(8.8537 5.38135e-19 0.889863)
(8.9566 2.60818e-19 0.883059)
(8.69606 -1.67088e-20 1.01006)
(8.81017 5.13814e-21 1.00155)
(8.52655 -2.71525e-19 1.14696)
(8.65305 -5.52423e-21 1.13609)
(8.34494 6.51352e-19 1.30346)
(8.48493 -5.73703e-19 1.28933)
(8.15117 6.36611e-19 1.48308)
(8.30595 1.23161e-18 1.46448)
(7.94512 -6.71387e-19 1.69004)
(8.11642 6.50999e-19 1.6656)
(7.72679 -6.68523e-19 1.92941)
(7.91659 -6.6665e-19 1.89744)
(7.49657 9.06053e-20 2.20757)
(7.70719 6.75907e-19 2.16578)
(7.25517 2.76717e-19 2.53264)
(7.48949 1.40172e-18 2.47802)
(7.00382 1.7048e-18 2.91492)
(7.26545 -2.74287e-18 2.84356)
(6.74485 3.10393e-20 3.36745)
(7.03852 2.9416e-18 3.2742)
(6.47986 -7.63261e-20 3.90373)
(6.81066 -1.46722e-18 3.78597)
(6.22793 -2.55056e-18 4.54958)
(6.61219 1.46898e-18 4.37947)
(5.91097 -2.80926e-18 5.26856)
(6.29505 -6.71588e-18 5.18123)
(5.76488 2.42829e-18 6.05167)
(6.59153 2.89967e-18 5.57835)
(5.01437 2.63222e-18 7.38075)
(9.99052 1.47377e-19 0.0695334)
(9.99516 -4.32492e-21 0.0489163)
(9.97166 -8.49744e-21 0.112907)
(9.98285 5.6608e-21 0.0953284)
(9.94321 -1.27327e-19 0.155196)
(9.96044 -3.72914e-22 0.139972)
(9.90545 -1.8633e-21 0.198135)
(9.92801 -5.90357e-20 0.184575)
(9.85883 1.12044e-19 0.242958)
(9.88654 -1.02549e-19 0.230641)
(9.80363 2.65461e-19 0.290531)
(9.83668 4.36791e-20 0.279174)
(9.73992 3.63635e-20 0.34165)
(9.77862 -4.42499e-20 0.330988)
(9.66768 7.04121e-21 0.397144)
(9.71239 -9.5873e-20 0.386932)
(9.58683 9.66762e-20 0.457882)
(9.63795 1.96088e-19 0.447874)
(9.49723 5.51889e-20 0.524834)
(9.55514 0 0.514743)
(9.39867 5.331e-20 0.599101)
(9.4638 5.42678e-20 0.588624)
(9.29094 -2.99705e-20 0.681894)
(9.36387 -2.80622e-19 0.670702)
(9.17382 -6.05499e-20 0.774571)
(9.25518 2.31872e-19 0.762265)
(9.04711 -3.05564e-20 0.878703)
(9.13757 2.14229e-19 0.864802)
(8.91066 -2.76394e-19 0.996136)
(9.01094 -2.8422e-19 0.980036)
(8.76442 1.56925e-20 1.12906)
(8.87531 -5.53946e-21 1.10999)
(8.60834 -3.15313e-19 1.28002)
(8.73083 5.95541e-21 1.25713)
(8.44243 2.95325e-20 1.45197)
(8.57774 -6.01349e-19 1.42423)
(8.26714 1.2394e-18 1.64862)
(8.41621 8.59232e-21 1.61451)
(8.08318 6.44155e-19 1.87449)
(8.24704 1.25803e-18 1.83217)
(7.89145 6.92171e-19 2.135)
(8.07163 8.40766e-21 2.0823)
(7.69345 1.9897e-18 2.43679)
(7.89151 6.74992e-19 2.37087)
(7.49161 -1.61436e-18 2.78829)
(7.70923 -2.27884e-20 2.70544)
(7.28964 -1.51945e-18 3.2)
(7.52864 -1.57669e-18 3.09552)
(7.09345 1.4788e-18 3.68502)
(7.35596 2.75499e-18 3.55261)
(6.9079 4.39309e-20 4.25454)
(7.19425 -2.77566e-18 4.09362)
(6.76313 -2.59087e-18 4.9334)
(7.09229 3.51021e-19 4.70601)
(6.56628 -3.85098e-18 5.67177)
(6.84384 -1.48204e-18 5.5639)
(6.53039 6.00413e-18 6.40345)
(7.36808 2.0778e-18 5.85154)
(5.72624 4.97155e-19 7.74436)
(9.99052 -1.45889e-19 0.0755818)
(9.99526 0 0.0528524)
(9.97201 1.36353e-20 0.123287)
(9.98316 -1.60485e-19 0.103312)
(9.94452 6.67282e-20 0.170191)
(9.9614 1.68906e-19 0.152328)
(9.90826 -1.60667e-19 0.217922)
(9.93023 -7.86477e-20 0.201526)
(9.86362 -1.6809e-19 0.267715)
(9.89059 -2.68728e-22 0.252335)
(9.81089 -2.6796e-19 0.320509)
(9.84306 -2.13952e-19 0.305803)
(9.75019 -1.77517e-19 0.377177)
(9.78782 -2.24697e-19 0.362824)
(9.68158 9.86668e-20 0.438611)
(9.72498 9.26357e-20 0.424304)
(9.60501 9.59138e-20 0.505746)
(9.65462 -9.59083e-20 0.49118)
(9.52035 0 0.579616)
(9.57655 -1.01911e-19 0.564462)
(9.42751 -2.85494e-19 0.661379)
(9.4907 3.70742e-19 0.645273)
(9.32642 -1.04247e-20 0.752301)
(9.39716 -3.90145e-19 0.734822)
(9.21702 5.06664e-19 0.853807)
(9.29586 4.93138e-19 0.834455)
(9.09927 -4.69297e-20 0.967539)
(9.18683 6.6801e-20 0.945733)
(8.97321 -9.33557e-21 1.09539)
(9.07016 -2.53153e-19 1.07043)
(8.83906 -1.46369e-20 1.23964)
(8.94603 2.02592e-19 1.21059)
(8.6972 -2.88752e-19 1.40296)
(8.81475 -2.74454e-19 1.36872)
(8.54802 -6.14788e-19 1.58842)
(8.6773 -3.48884e-20 1.54778)
(8.39215 3.8849e-20 1.79969)
(8.53408 -5.90322e-19 1.75107)
(8.23093 6.11996e-19 2.04143)
(8.38609 6.1304e-19 1.98268)
(8.06629 0 2.31922)
(8.23562 -3.78018e-20 2.24776)
(7.90083 -1.33636e-18 2.63977)
(8.08509 -3.85062e-20 2.55236)
(7.73843 1.72276e-22 3.01149)
(7.93821 -1.33023e-18 2.904)
(7.58481 2.67026e-18 3.44453)
(7.80032 1.33902e-18 3.31198)
(7.44881 -1.42395e-18 3.95139)
(7.68007 2.71924e-18 3.78699)
(7.33714 -2.59256e-18 4.54075)
(7.57995 -4.76202e-18 4.34691)
(7.28823 1.68733e-18 5.23585)
(7.56775 1.20737e-18 4.96423)
(7.20039 2.94909e-18 5.97947)
(7.37973 2.14908e-18 5.86298)
(7.23072 -3.65211e-18 6.65831)
(8.0904 -4.6661e-20 6.04949)
(6.39888 -2.65752e-18 7.99606)
(9.9907 -1.77225e-20 0.0815121)
(9.99542 -8.51787e-21 0.0567121)
(9.97275 2.07166e-21 0.133344)
(9.98369 1.15734e-19 0.111064)
(9.94637 1.82359e-20 0.184602)
(9.96277 3.71597e-20 0.164203)
(9.91177 8.34425e-20 0.236868)
(9.93304 -1.937e-19 0.217731)
(9.86929 -5.03162e-20 0.291365)
(9.8954 2.84032e-19 0.27302)
(9.81921 -1.70839e-19 0.349084)
(9.85039 -8.51557e-20 0.331147)
(9.76172 5.15408e-20 0.41095)
(9.79817 8.21908e-24 0.393055)
(9.69694 -1.0541e-19 0.477916)
(9.73895 9.35462e-20 0.459691)
(9.62492 -2.94076e-19 0.550995)
(9.67287 -9.66334e-20 0.532058)
(9.54557 2.77024e-19 0.631279)
(9.59979 -2.01086e-19 0.611258)
(9.45889 2.53759e-19 0.719945)
(9.51981 3.20647e-19 0.698422)
(9.36494 1.27767e-19 0.818286)
(9.43309 -3.80663e-19 0.794762)
(9.26381 4.65403e-20 0.927777)
(9.33966 2.31788e-19 0.90167)
(9.15564 -1.44388e-19 1.05011)
(9.23971 -2.3822e-19 1.02075)
(9.04064 -3.45158e-20 1.18721)
(9.13354 9.22607e-20 1.15381)
(8.91915 -6.3701e-20 1.34134)
(9.02147 -6.8483e-22 1.30294)
(8.79193 -1.72964e-20 1.51523)
(8.904 0 1.47052)
(8.65995 -1.68988e-20 1.71211)
(8.78241 1.71653e-20 1.65957)
(8.52422 -4.74535e-21 1.93564)
(8.65777 0 1.87361)
(8.38643 -4.27591e-20 2.19032)
(8.53156 -5.09967e-19 2.11658)
(8.24927 -7.63085e-20 2.48168)
(8.40641 5.84601e-19 2.39338)
(8.11637 -3.84175e-20 2.81639)
(8.28555 -7.52325e-22 2.71001)
(7.99286 0 3.2026)
(8.17368 -1.33971e-18 3.07382)
(7.88599 1.379e-18 3.64987)
(8.07731 1.1918e-18 3.49375)
(7.80677 -5.11886e-19 4.17001)
(8.00715 2.38432e-18 3.9795)
(7.76313 -1.23701e-18 4.76893)
(7.96406 -2.27546e-18 4.55002)
(7.79751 1.84154e-18 5.46943)
(8.03344 -1.16529e-18 5.16386)
(7.81088 7.31108e-19 6.21188)
(7.90173 2.82404e-18 6.08955)
(7.87247 -2.34194e-18 6.85176)
(8.76068 -1.83822e-18 6.20153)
(7.03272 8.37833e-20 8.1756)
(9.99102 1.27472e-19 0.0872514)
(9.99564 -2.78925e-19 0.0604405)
(9.97381 1.49181e-19 0.143)
(9.98439 -7.46768e-21 0.118508)
(9.9487 -1.79747e-19 0.198359)
(9.96449 7.34561e-23 0.175524)
(9.91592 1.66022e-20 0.254894)
(9.93636 1.33641e-19 0.233111)
(9.87579 2.42042e-19 0.313822)
(9.90092 -1.19588e-19 0.292608)
(9.82858 8.74243e-20 0.376161)
(9.85864 2.11381e-19 0.3551)
(9.77453 4.37366e-20 0.442876)
(9.80971 1.32564e-19 0.421561)
(9.71381 9.89531e-20 0.514965)
(9.75443 -1.82784e-19 0.492974)
(9.64652 -5.26582e-21 0.593507)
(9.69287 9.71402e-20 0.570401)
(9.57274 -1.48866e-19 0.679637)
(9.62501 9.90197e-20 0.654982)
(9.49258 -3.25552e-19 0.774544)
(9.55117 2.6023e-19 0.747864)
(9.40618 -2.67257e-19 0.879538)
(9.47155 -3.76534e-19 0.850279)
(9.31375 -6.01217e-20 0.996117)
(9.3863 -2.21886e-19 0.963639)
(9.21559 3.36717e-21 1.126)
(9.29577 -2.9176e-19 1.08955)
(9.11211 1.2487e-19 1.27116)
(9.2004 2.98922e-19 1.22986)
(9.00384 6.31322e-20 1.43379)
(9.10076 -4.3457e-19 1.38664)
(8.89166 3.46514e-20 1.61657)
(8.99766 5.10334e-19 1.56223)
(8.77698 3.39208e-20 1.82271)
(8.89222 -4.95346e-19 1.75947)
(8.66152 -5.09793e-19 2.05597)
(8.78615 5.39762e-19 1.98189)
(8.54745 1.21722e-19 2.32068)
(8.68178 -7.12881e-19 2.23347)
(8.43789 6.58285e-19 2.6221)
(8.5819 6.2323e-19 2.51884)
(8.33722 -1.30244e-18 2.96668)
(8.49036 1.16774e-18 2.84376)
(8.25161 -1.68768e-19 3.36218)
(8.41267 -2.05197e-18 3.21521)
(8.18949 2.18987e-18 3.81759)
(8.35623 1.19281e-18 3.64174)
(8.16337 6.97969e-19 4.344)
(8.33349 9.9698e-19 4.13208)
(8.18235 -2.21404e-18 4.94518)
(8.34348 1.69916e-19 4.70642)
(8.28778 -8.02174e-20 5.64547)
(8.48571 -2.96274e-18 5.31393)
(8.40056 1.91427e-18 6.38419)
(8.41138 2.57828e-18 6.25115)
(8.46763 8.40533e-19 7.01384)
(9.38457 1.68314e-19 6.33355)
(7.64405 3.13334e-18 8.31592)
(9.99143 -4.08663e-19 0.0927427)
(9.99588 2.68033e-19 0.0639994)
(9.9751 -1.56503e-19 0.152187)
(9.98523 -4.14521e-22 0.125584)
(9.95141 3.16444e-19 0.211384)
(9.96647 -1.84762e-20 0.186226)
(9.92064 -7.65627e-21 0.271911)
(9.9401 1.74358e-19 0.247589)
(9.88307 -1.43988e-19 0.334973)
(9.90701 -1.62111e-19 0.310996)
(9.83901 2.55069e-19 0.401602)
(9.86766 1.68671e-19 0.377527)
(9.78874 -9.9793e-20 0.472797)
(9.82228 8.81283e-20 0.44817)
(9.73243 -1.79861e-19 0.549607)
(9.7712 -2.73197e-19 0.52397)
(9.67018 2.015e-19 0.633139)
(9.71444 4.57647e-22 0.606044)
(9.60219 5.11196e-19 0.724532)
(9.65209 1.98477e-19 0.695501)
(9.52874 1.99631e-19 0.824988)
(9.58459 3.11293e-19 0.793478)
(9.45009 -3.28646e-19 0.935841)
(9.51226 1.10638e-21 0.90124)
(9.36657 -4.54897e-19 1.0586)
(9.43539 -2.22275e-19 1.02021)
(9.27864 1.16872e-20 1.19499)
(9.35446 -1.2004e-19 1.15199)
(9.18691 -2.70172e-19 1.34696)
(9.27008 -2.91877e-19 1.29839)
(9.09219 2.27e-20 1.51672)
(9.18302 -1.6949e-20 1.46147)
(8.9955 -3.02272e-20 1.70676)
(9.09444 3.8764e-19 1.64352)
(8.89838 1.81433e-20 1.92017)
(9.00547 -5.30742e-19 1.84723)
(8.80307 3.2796e-19 2.16064)
(8.91808 1.70099e-20 2.07588)
(8.71239 -2.05942e-19 2.4324)
(8.83521 4.58797e-19 2.33338)
(8.62993 1.13318e-18 2.74046)
(8.76007 -1.07284e-18 2.62422)
(8.56067 4.30273e-19 3.09086)
(8.69706 1.12576e-18 2.95381)
(8.51152 -7.16614e-19 3.49094)
(8.65231 -2.05485e-18 3.32865)
(8.49181 0 3.94911)
(8.63388 5.09611e-19 3.75689)
(8.51509 4.80841e-19 4.47593)
(8.6557 9.69325e-19 4.24647)
(8.59243 -3.22175e-19 5.07463)
(8.71562 2.97515e-20 4.81868)
(8.75859 -2.70138e-19 5.77261)
(8.92216 -9.43293e-19 5.42031)
(8.97394 9.27632e-19 6.5052)
(8.91275 -1.24058e-18 6.34883)
(9.04176 5.53548e-18 7.17341)
(9.96698 -2.00772e-19 6.46415)
(8.27491 1.18916e-18 8.44103)
(9.99191 6.71374e-19 0.097944)
(9.99615 2.70766e-19 0.0673607)
(9.97656 1.37324e-19 0.160849)
(9.98616 1.40455e-19 0.132247)
(9.95442 -1.56689e-19 0.223611)
(9.96864 -3.64314e-20 0.196255)
(9.92578 1.3084e-20 0.28783)
(9.94415 -1.15605e-19 0.261101)
(9.89094 1.57141e-19 0.354703)
(9.91354 2.16008e-21 0.328105)
(9.85022 5.6831e-23 0.425266)
(9.87727 -2.47661e-19 0.398334)
(9.8039 -9.18143e-20 0.500552)
(9.83558 -8.57133e-20 0.472791)
(9.75218 -8.80705e-20 0.581666)
(9.78877 -9.03103e-20 0.55258)
(9.69522 5.95029e-22 0.669719)
(9.73696 1.25522e-21 0.63885)
(9.63328 0 0.76582)
(9.68036 -2.9032e-19 0.732667)
(9.56676 1.07819e-19 0.871165)
(9.61943 1.99928e-19 0.835134)
(9.49605 1.04633e-19 0.987108)
(9.55458 2.09777e-19 0.947531)
(9.42161 1.14529e-19 1.11516)
(9.48626 2.16045e-19 1.07128)
(9.34406 -4.26266e-19 1.257)
(9.41507 -4.43777e-19 1.20796)
(9.26417 -3.62157e-20 1.41454)
(9.34176 -7.63212e-19 1.35933)
(9.183 3.52574e-19 1.58991)
(9.26732 8.37432e-19 1.52735)
(9.10184 -1.22675e-19 1.78555)
(9.1931 -3.67448e-19 1.71428)
(9.02239 -5.28707e-19 2.00433)
(9.12052 4.94829e-19 1.92268)
(8.94714 1.47364e-19 2.2497)
(9.05177 -1.15524e-18 2.15553)
(8.87936 -4.13681e-19 2.5257)
(8.99 6.68474e-19 2.41647)
(8.82316 -1.08689e-18 2.83711)
(8.93887 4.61202e-19 2.70983)
(8.78405 -1.33791e-18 3.18952)
(8.90327 1.01872e-18 3.04063)
(8.76956 -8.49091e-19 3.58975)
(8.88986 -1.34638e-18 3.41485)
(8.78975 1.47472e-18 4.04573)
(8.90723 1.62647e-20 3.84013)
(8.85885 5.324e-19 4.56781)
(8.97054 9.74764e-19 4.32393)
(8.99136 -4.83807e-19 5.16004)
(9.07789 -1.2797e-18 4.88739)
(9.21162 -1.905e-18 5.85332)
(9.34045 2.613e-20 5.4827)
(9.5327 -2.339e-18 6.57737)
(9.4094 -1.40186e-19 6.37738)
(9.63995 -4.08985e-18 7.34545)
(10.5114 -1.21584e-18 6.59103)
(8.98038 -1.20554e-18 8.57309)
(9.99245 -2.6303e-19 0.102822)
(9.99644 -2.68369e-19 0.070501)
(9.97816 -3.72438e-20 0.168945)
(9.98717 0 0.13846)
(9.95766 3.04824e-21 0.234991)
(9.97099 -2.88471e-22 0.20557)
(9.93125 -1.24223e-19 0.302595)
(9.94844 3.12579e-22 0.273605)
(9.89923 -4.0779e-19 0.372949)
(9.9204 -6.36392e-22 0.343888)
(9.86193 -3.30654e-19 0.44709)
(9.88729 -1.57149e-21 0.417476)
(9.81963 -8.4307e-20 0.526081)
(9.84936 1.70007e-19 0.495392)
(9.77257 6.39284e-22 0.61106)
(9.8069 -1.76603e-19 0.578766)
(9.72103 -2.94697e-19 0.703132)
(9.76015 2.76289e-19 0.668746)
(9.66534 -8.28445e-20 0.803366)
(9.70943 -2.90011e-19 0.766372)
(9.60595 3.02244e-19 0.912943)
(9.6552 2.00268e-19 0.872717)
(9.54335 3.21452e-19 1.03321)
(9.59799 8.43816e-22 0.989045)
(9.47814 -3.51285e-19 1.16564)
(9.53836 4.28555e-19 1.11676)
(9.41105 -7.85703e-19 1.31187)
(9.47697 -6.67044e-19 1.25738)
(9.34302 1.28037e-19 1.47373)
(9.41476 -6.82285e-19 1.41261)
(9.27529 1.04204e-19 1.65328)
(9.35285 9.30462e-19 1.5843)
(9.2094 2.56818e-19 1.85283)
(9.29276 -2.46146e-19 1.7746)
(9.14736 -1.4329e-19 2.07505)
(9.23624 2.58115e-19 1.98589)
(9.09182 -6.29001e-19 2.32309)
(9.18571 -9.95517e-19 2.22089)
(9.04631 1.54207e-18 2.60072)
(9.14439 4.9247e-19 2.48295)
(9.01532 2.57442e-18 2.9124)
(9.11628 1.78578e-18 2.77607)
(9.00484 1.03313e-18 3.26323)
(9.1067 7.90681e-19 3.10481)
(9.0229 -4.89883e-19 3.65945)
(9.12268 -4.66344e-19 3.47456)
(9.08025 -5.04e-19 4.1085)
(9.17334 -4.96809e-19 3.89226)
(9.19164 -7.92047e-19 4.62041)
(9.27466 8.22106e-19 4.36483)
(9.37593 -8.1851e-19 5.20061)
(9.42664 -8.16406e-19 4.91134)
(9.64751 1.98269e-18 5.88169)
(9.73648 -6.59448e-19 5.49548)
(10.0727 1.00183e-18 6.59354)
(9.8985 2.87364e-18 6.32873)
(10.3052 -8.36487e-19 7.51837)
(11.0192 -2.30075e-19 6.67785)
(9.79872 2.91591e-19 8.73735)
(9.99303 0 0.107349)
(9.99675 -7.80402e-21 0.0734029)
(9.97989 3.698e-20 0.176437)
(9.98825 8.10676e-21 0.144196)
(9.96109 -3.01016e-21 0.245486)
(9.97346 7.08249e-20 0.214141)
(9.93698 1.23967e-19 0.316169)
(9.95295 -7.37311e-20 0.285071)
(9.90785 4.05957e-19 0.389677)
(9.92755 -5.99614e-20 0.358317)
(9.87404 5.02699e-19 0.467053)
(9.89766 2.5102e-19 0.434928)
(9.83584 7.1722e-20 0.549375)
(9.86356 1.00742e-19 0.515939)
(9.79355 1.06701e-19 0.637785)
(9.82556 6.84926e-20 0.602489)
(9.74751 2.72147e-19 0.733366)
(9.78398 2.79961e-19 0.695704)
(9.69816 7.30854e-22 0.837152)
(9.73925 9.00682e-20 0.796591)
(9.646 -1.04399e-19 0.950299)
(9.69184 0 0.906189)
(9.59162 1.13755e-19 1.07413)
(9.64237 -1.04969e-19 1.02574)
(9.53569 9.92486e-20 1.21008)
(9.5915 2.16591e-19 1.15662)
(9.47905 -5.63736e-19 1.35972)
(9.53998 -6.17197e-19 1.3003)
(9.42279 1.36301e-19 1.52477)
(9.48884 3.68484e-19 1.45836)
(9.36832 5.69037e-19 1.70716)
(9.4394 5.89556e-19 1.63252)
(9.31739 -2.42262e-19 1.90904)
(9.39329 -5.43254e-19 1.82477)
(9.27222 -6.03592e-19 2.13285)
(9.35251 -2.14543e-20 2.03728)
(9.23567 1.29806e-19 2.38145)
(9.31964 2.90306e-19 2.27254)
(9.21142 7.35231e-19 2.65827)
(9.298 5.69909e-20 2.53356)
(9.20428 3.97862e-21 2.96732)
(9.29185 -1.95128e-19 2.82389)
(9.22057 -7.06107e-19 3.31315)
(9.30674 1.71551e-18 3.14754)
(9.2687 -4.73187e-19 3.70126)
(9.35002 -4.85539e-19 3.50916)
(9.35998 8.09884e-19 4.13836)
(9.43113 3.93936e-19 3.9147)
(9.5096 8.402e-19 4.63343)
(9.56638 -5.99939e-19 4.37008)
(9.74057 -6.58728e-19 5.19322)
(9.75871 6.80569e-19 4.89043)
(10.0621 2.70734e-19 5.84652)
(10.1053 -1.79176e-19 5.45191)
(10.5809 1.61328e-18 6.53328)
(10.3667 -3.91926e-19 6.19315)
(11.0488 1.97546e-18 7.64927)
(11.5272 6.23317e-19 6.61875)
(11.5458 -9.68146e-19 8.75515)
(0.0656509 2.65651e-20 -0.0551702)
(0.0416659 3.59738e-21 -0.046573)
(0.197489 0 -0.0562099)
(0.0992428 0 -0.0722399)
(0.375455 0 -0.0452648)
(0.264293 0 -0.0689302)
(0.591396 0 -0.0374177)
(0.477509 0 -0.0656007)
(0.80366 0 -0.0329934)
(0.706294 0 -0.0613007)
(0.985156 -5.13528e-21 -0.0306586)
(0.910326 0 -0.0576532)
(1.13833 3.33929e-22 -0.0293865)
(1.08233 -4.85329e-21 -0.0555085)
(1.27173 1.08601e-20 -0.0286535)
(1.22712 5.28569e-21 -0.0540676)
(1.3906 5.52945e-21 -0.0279559)
(1.35065 1.69853e-20 -0.0525707)
(1.49708 1.45926e-21 -0.0269474)
(1.45777 -5.57643e-21 -0.050478)
(1.59209 -5.69569e-21 -0.0255879)
(1.55133 1.4605e-21 -0.0476955)
(1.67661 -7.15261e-21 -0.0239689)
(1.63289 3.7449e-21 -0.0444921)
(1.75161 0 -0.0220779)
(1.70393 5.53776e-21 -0.0410981)
(1.81739 0 -0.0197384)
(1.76553 -1.07785e-20 -0.0373341)
(1.87323 0 -0.0168706)
(1.81813 1.29998e-20 -0.0326905)
(1.91839 0 -0.0137532)
(1.86127 -2.52332e-21 -0.0272151)
(1.95355 5.40201e-22 -0.0107812)
(1.89442 -9.51166e-21 -0.0217896)
(1.9804 -4.11517e-21 -0.00802731)
(1.91852 -5.37134e-22 -0.0171316)
(2.00004 -4.46134e-21 -0.00538259)
(1.93551 2.88485e-22 -0.0129378)
(2.01286 1.56462e-24 -0.00315387)
(1.94645 -6.73605e-22 -0.00882114)
(2.02043 2.71644e-21 -0.00219587)
(1.95109 -6.11404e-21 -0.00557909)
(2.02709 4.68593e-22 -0.00319431)
(1.95021 5.58585e-21 -0.00512475)
(2.03867 -2.49741e-21 -0.0059946)
(1.94747 -4.3588e-21 -0.00858878)
(2.05982 1.56254e-21 -0.00991563)
(1.94818 -2.80216e-22 -0.0153545)
(2.09281 1.56954e-21 -0.0146811)
(1.95662 -3.12841e-21 -0.0239244)
(2.13892 0 -0.0210556)
(1.97463 0 -0.0337132)
(2.20116 0 -0.0304839)
(2.00314 -1.43742e-21 -0.0460349)
(2.28534 -1.17311e-22 -0.0435345)
(2.04528 0 -0.0630789)
(2.39677 -1.1829e-22 -0.0568965)
(2.10845 1.0118e-21 -0.0848393)
(2.22907 0 -0.102371)
(0.0327445 -2.70185e-20 -0.0859917)
(0.0212423 -9.10741e-21 -0.0800667)
(0.147897 0 -0.11194)
(0.0349192 -5.9083e-20 -0.133898)
(0.348095 0 -0.108296)
(0.202385 4.9847e-20 -0.142862)
(0.594911 0 -0.102471)
(0.416066 0 -0.13853)
(0.830845 0 -0.0965742)
(0.643438 0 -0.129371)
(1.02535 0 -0.0916869)
(0.840637 1.62202e-20 -0.120854)
(1.18252 0 -0.0877721)
(0.99936 -1.82959e-20 -0.114975)
(1.31235 1.14372e-20 -0.0843229)
(1.12496 -2.05991e-20 -0.110251)
(1.42154 5.41726e-21 -0.0806376)
(1.22438 -1.01858e-20 -0.105446)
(1.51435 -5.58915e-21 -0.0762803)
(1.30366 5.30187e-21 -0.100014)