/*--------------------------------*- C++ -*----------------------------------*\
| =========                 |                                                 |
| \\      /  F ield         | OpenFOAM: The Open Source CFD Toolbox           |
|  \\    /   O peration     | Version:  dev                                   |
|   \\  /    A nd           | Web:      www.OpenFOAM.org                      |
|    \\/     M anipulation  |                                                 |
\*---------------------------------------------------------------------------*/
FoamFile
{
    version     2.0;
    format      ascii;
    class       pointVectorField;
    location    "4.03";
    object      pointDisplacement;
}
// * * * * * * * * * * * * * * * * * * * * * * * * * * * * * * * * * * * * * //

dimensions      [0 1 0 0 0 0 0];

internalField   nonuniform List<vector> 
1028
(
(0.0263607 0 0.00122005)
(0.0270869 0 0.00122658)
(0.0266031 0 0.0011537)
(0.0272907 0 0.00115109)
(0.0279574 0 0.00113573)
(0.0285933 0 0.00110576)
(0.0267557 0 0.00108838)
(0.0274009 0 0.00107873)
(0.0280156 0 0.00105699)
(0.0285919 0 0.00102177)
(0.0291197 0 0.000971642)
(0.0295883 0 0.000905174)
(0.0268289 0 0.00102521)
(0.0274315 0 0.00101033)
(0.0279972 0 0.000984262)
(0.0285194 0 0.000946087)
(0.0289904 0 0.000894962)
(0.0294022 0 0.00083021)
(0.0297471 0 0.00075147)
(0.0300182 0 0.000659005)
(0.0268331 0 0.000964894)
(0.0273951 0 0.000946286)
(0.0279159 0 0.000917553)
(0.0283902 0 0.000878171)
(0.0288125 0 0.000827761)
(0.0291769 0 0.000766187)
(0.0294785 0 0.000693693)
(0.0297129 0 0.000611107)
(0.0298774 0 0.000520095)
(0.0299642 0 0.000435261)
(0.0267782 0 0.000907745)
(0.0273023 0 0.000886664)
(0.0277825 0 0.000856588)
(0.0282149 0 0.000817292)
(0.0285955 0 0.000768736)
(0.0289206 0 0.000711138)
(0.029187 0 0.000645071)
(0.0293924 0 0.000571568)
(0.0295356 0 0.000492226)
(0.0296111 0 0.000419357)
(0.0266719 0 0.000853817)
(0.0271614 0 0.000831321)
(0.0276055 0 0.000800924)
(0.0280014 0 0.000762633)
(0.0283466 0 0.000716638)
(0.0286389 0 0.000663363)
(0.0288766 0 0.000603521)
(0.0290586 0 0.000538164)
(0.0291851 0 0.000468691)
(0.0292517 0 0.000405552)
(0.0265211 0 0.000803064)
(0.0269794 0 0.000779985)
(0.0273914 0 0.000750028)
(0.0277558 0 0.000713364)
(0.0280709 0 0.000670322)
(0.0283358 0 0.000621427)
(0.0285498 0 0.000567424)
(0.0287129 0 0.000509287)
(0.0288258 0 0.000448199)
(0.0288852 0 0.000393101)
(0.0263314 0 0.00075532)
(0.0267617 0 0.000732297)
(0.0271458 0 0.000703326)
(0.0274828 0 0.000668683)
(0.0277724 0 0.00062877)
(0.0280143 0 0.000584143)
(0.0282087 0 0.000535517)
(0.0283562 0 0.000483755)
(0.028458 0 0.000429841)
(0.0285115 0 0.000381484)
(0.026108 0 0.000710319)
(0.0265135 0 0.00068784)
(0.0268729 0 0.000660235)
(0.0271864 0 0.000627842)
(0.0274542 0 0.00059109)
(0.0276767 0 0.000550526)
(0.0278547 0 0.000506804)
(0.0279893 0 0.000460673)
(0.0280819 0 0.000412945)
(0.0281305 0 0.000370313)
(0.0258555 0 0.000667749)
(0.0262389 0 0.000646173)
(0.0265768 0 0.000620187)
(0.0268699 0 0.000590154)
(0.027119 0 0.000556506)
(0.0273252 0 0.000519756)
(0.0274894 0 0.000480488)
(0.0276132 0 0.000439343)
(0.0276981 0 0.000396992)
(0.0277425 0 0.000359278)
(0.0251687 0 0.000643542)
(0.025578 0 0.00062727)
(0.0259418 0 0.00060685)
(0.0262608 0 0.000582639)
(0.0265363 0 0.000554998)
(0.0267695 0 0.000524343)
(0.0269617 0 0.000491143)
(0.0271142 0 0.000455914)
(0.0272289 0 0.000419202)
(0.0273073 0 0.000381562)
(0.0273482 0 0.000348118)
(0.0248877 0 0.000604021)
(0.0252794 0 0.000588534)
(0.0256259 0 0.000569443)
(0.0259284 0 0.000547085)
(0.0261886 0 0.00052181)
(0.026408 0 0.000494005)
(0.0265882 0 0.000464096)
(0.0267309 0 0.000432533)
(0.0268378 0 0.000399779)
(0.0269106 0 0.000366296)
(0.0269484 0 0.000336594)
(0.0245875 0 0.000565724)
(0.0249634 0 0.000551203)
(0.0252945 0 0.000533535)
(0.0255827 0 0.00051305)
(0.0258296 0 0.000490073)
(0.0260372 0 0.000464963)
(0.0262072 0 0.000438097)
(0.0263414 0 0.000409866)
(0.0264416 0 0.000380665)
(0.0265097 0 0.000350879)
(0.0265448 0 0.000324485)
(0.0242719 0 0.000528345)
(0.0246338 0 0.000514901)
(0.0249515 0 0.000498706)
(0.025227 0 0.000480076)
(0.0254625 0 0.000459311)
(0.0256598 0 0.000436735)
(0.025821 0 0.000412681)
(0.0259479 0 0.000387488)
(0.0260424 0 0.000361492)
(0.0261064 0 0.000335016)
(0.0261392 0 0.000311572)
(0.0239453 0 0.000491541)
(0.0242946 0 0.000479244)
(0.0246005 0 0.000464538)
(0.024865 0 0.000447722)
(0.0250905 0 0.000429071)
(0.025279 0 0.000408873)
(0.0254326 0 0.000387421)
(0.0255532 0 0.000365008)
(0.0256428 0 0.000341919)
(0.0257032 0 0.000318429)
(0.0257339 0 0.000297634)
(0.0236119 0 0.000454952)
(0.0239502 0 0.000443837)
(0.0242456 0 0.000430613)
(0.0245006 0 0.000415557)
(0.0247174 0 0.000398917)
(0.0248983 0 0.00038095)
(0.0250453 0 0.00036191)
(0.0251605 0 0.000342052)
(0.0252458 0 0.000321618)
(0.0253031 0 0.00030084)
(0.025332 0 0.000282446)
(0.0232766 0 0.0004182)
(0.0236051 0 0.000408279)
(0.0238915 0 0.000396511)
(0.0241381 0 0.000383151)
(0.0243473 0 0.000368423)
(0.0245215 0 0.00035255)
(0.0246629 0 0.000335756)
(0.0247734 0 0.000318257)
(0.024855 0 0.000300263)
(0.0249096 0 0.000281968)
(0.0249369 0 0.000265769)
(0.0229446 0 0.000380881)
(0.0232645 0 0.000372147)
(0.0235429 0 0.0003618)
(0.0237822 0 0.000350071)
(0.0239849 0 0.000337159)
(0.0241534 0 0.000323259)
(0.0242899 0 0.000308564)
(0.0243963 0 0.000293261)
(0.0244747 0 0.000277526)
(0.024527 0 0.000261526)
(0.0245529 0 0.000247353)
(0.0226214 0 0.000342565)
(0.0229338 0 0.000334998)
(0.0232053 0 0.00032603)
(0.0234384 0 0.000315869)
(0.0236355 0 0.000304687)
(0.023799 0 0.000292653)
(0.0239313 0 0.000279935)
(0.0240342 0 0.000266689)
(0.0241099 0 0.000253067)
(0.0241601 0 0.000239209)
(0.0241848 0 0.000226924)
(0.0223135 0 0.00030278)
(0.0226194 0 0.000296354)
(0.022885 0 0.000288722)
(0.0231126 0 0.000280069)
(0.0233049 0 0.000270543)
(0.0234643 0 0.000260289)
(0.0235929 0 0.000249446)
(0.0236929 0 0.000238149)
(0.0237662 0 0.000226525)
(0.0238147 0 0.000214691)
(0.0238382 0 0.000204192)
(0.0220277 0 0.000261004)
(0.0223281 0 0.00025569)
(0.0225886 0 0.000249356)
(0.0228117 0 0.000242163)
(0.023 0 0.000234234)
(0.0231559 0 0.000225691)
(0.0232815 0 0.00021665)
(0.023379 0 0.000207222)
(0.0234503 0 0.000197513)
(0.0234973 0 0.000187619)
(0.0235199 0 0.000178834)
(0.0217717 0 0.000216653)
(0.0220676 0 0.000212423)
(0.022324 0 0.000207357)
(0.0225434 0 0.000201588)
(0.0227284 0 0.000195216)
(0.0228814 0 0.00018834)
(0.0230045 0 0.000181055)
(0.0231 0 0.000173449)
(0.0231697 0 0.000165608)
(0.0232154 0 0.000157609)
(0.0232372 0 0.000150498)
(0.0215544 0 0.000169059)
(0.0218467 0 0.00016589)
(0.0220999 0 0.000162073)
(0.0223163 0 0.000157711)
(0.0224987 0 0.000152881)
(0.0226494 0 0.000147658)
(0.0227706 0 0.000142115)
(0.0228645 0 0.00013632)
(0.0229329 0 0.000130338)
(0.0229776 0 0.000124228)
(0.0229988 0 0.000118791)
(0.0213853 0 0.000117443)
(0.021675 0 0.000115325)
(0.0219258 0 0.000112755)
(0.0221402 0 0.000109806)
(0.0223206 0 0.000106531)
(0.0224697 0 0.000102982)
(0.0225895 0 9.92077e-05)
(0.0226822 0 9.52558e-05)
(0.0227496 0 9.11704e-05)
(0.0227936 0 8.69924e-05)
(0.0228144 0 8.32712e-05)
(0.0212753 0 6.08862e-05)
(0.0215634 0 5.98217e-05)
(0.0218128 0 5.85213e-05)
(0.0220259 0 5.70233e-05)
(0.0222052 0 5.53548e-05)
(0.0223532 0 5.35425e-05)
(0.0224722 0 5.1612e-05)
(0.0225642 0 4.95877e-05)
(0.022631 0 4.74924e-05)
(0.0226746 0 4.53473e-05)
(0.0226951 0 4.34352e-05)
(0.0212366 0 0)
(0.0215241 0 0)
(0.021773 0 0)
(0.0219856 0 0)
(0.0221646 0 0)
(0.0223123 0 0)
(0.0224309 0 0)
(0.0225226 0 0)
(0.0225893 0 0)
(0.0226327 0 0)
(0.0226531 0 0)
(0.0263607 0 0.00122005)
(0.0270869 0 0.00122658)
(0.0266031 0 0.0011537)
(0.0272907 0 0.00115109)
(0.0279574 0 0.00113573)
(0.0285933 0 0.00110576)
(0.0267557 0 0.00108838)
(0.0274009 0 0.00107873)
(0.0280156 0 0.00105699)
(0.0285919 0 0.00102177)
(0.0291197 0 0.000971642)
(0.0295883 0 0.000905174)
(0.0268289 0 0.00102521)
(0.0274315 0 0.00101033)
(0.0279972 0 0.000984262)
(0.0285194 0 0.000946087)
(0.0289904 0 0.000894962)
(0.0294022 0 0.00083021)
(0.0297471 0 0.00075147)
(0.0300182 0 0.000659005)
(0.0268331 0 0.000964894)
(0.0273951 0 0.000946286)
(0.0279159 0 0.000917553)
(0.0283902 0 0.000878171)
(0.0288125 0 0.000827761)
(0.0291769 0 0.000766187)
(0.0294785 0 0.000693693)
(0.0297129 0 0.000611107)
(0.0298774 0 0.000520095)
(0.0299642 0 0.000435261)
(0.0267782 0 0.000907745)
(0.0273023 0 0.000886664)
(0.0277825 0 0.000856588)
(0.0282149 0 0.000817292)
(0.0285955 0 0.000768736)
(0.0289206 0 0.000711138)
(0.029187 0 0.000645071)
(0.0293924 0 0.000571568)
(0.0295356 0 0.000492226)
(0.0296111 0 0.000419357)
(0.0266719 0 0.000853817)
(0.0271614 0 0.000831321)
(0.0276055 0 0.000800924)
(0.0280014 0 0.000762633)
(0.0283466 0 0.000716638)
(0.0286389 0 0.000663363)
(0.0288766 0 0.000603521)
(0.0290586 0 0.000538164)
(0.0291851 0 0.000468691)
(0.0292517 0 0.000405552)
(0.0265211 0 0.000803064)
(0.0269794 0 0.000779985)
(0.0273914 0 0.000750028)
(0.0277558 0 0.000713364)
(0.0280709 0 0.000670322)
(0.0283358 0 0.000621427)
(0.0285498 0 0.000567424)
(0.0287129 0 0.000509287)
(0.0288258 0 0.000448199)
(0.0288852 0 0.000393101)
(0.0263314 0 0.00075532)
(0.0267617 0 0.000732297)
(0.0271458 0 0.000703326)
(0.0274828 0 0.000668683)
(0.0277724 0 0.00062877)
(0.0280143 0 0.000584143)
(0.0282087 0 0.000535517)
(0.0283562 0 0.000483755)
(0.028458 0 0.000429841)
(0.0285115 0 0.000381484)
(0.026108 0 0.000710319)
(0.0265135 0 0.00068784)
(0.0268729 0 0.000660235)
(0.0271864 0 0.000627842)
(0.0274542 0 0.00059109)
(0.0276767 0 0.000550526)
(0.0278547 0 0.000506804)
(0.0279893 0 0.000460673)
(0.0280819 0 0.000412945)
(0.0281305 0 0.000370313)
(0.0258555 0 0.000667749)
(0.0262389 0 0.000646173)
(0.0265768 0 0.000620187)
(0.0268699 0 0.000590154)
(0.027119 0 0.000556506)
(0.0273252 0 0.000519756)
(0.0274894 0 0.000480488)
(0.0276132 0 0.000439343)
(0.0276981 0 0.000396992)
(0.0277425 0 0.000359278)
(0.0251687 0 0.000643542)
(0.025578 0 0.00062727)
(0.0259418 0 0.00060685)
(0.0262608 0 0.000582639)
(0.0265363 0 0.000554998)
(0.0267695 0 0.000524343)
(0.0269617 0 0.000491143)
(0.0271142 0 0.000455914)
(0.0272289 0 0.000419202)
(0.0273073 0 0.000381562)
(0.0273482 0 0.000348118)
(0.0248877 0 0.000604021)
(0.0252794 0 0.000588534)
(0.0256259 0 0.000569443)
(0.0259284 0 0.000547085)
(0.0261886 0 0.00052181)
(0.026408 0 0.000494005)
(0.0265882 0 0.000464096)
(0.0267309 0 0.000432533)
(0.0268378 0 0.000399779)
(0.0269106 0 0.000366296)
(0.0269484 0 0.000336594)
(0.0245875 0 0.000565724)
(0.0249634 0 0.000551203)
(0.0252945 0 0.000533535)
(0.0255827 0 0.00051305)
(0.0258296 0 0.000490073)
(0.0260372 0 0.000464963)
(0.0262072 0 0.000438097)
(0.0263414 0 0.000409866)
(0.0264416 0 0.000380665)
(0.0265097 0 0.000350879)
(0.0265448 0 0.000324485)
(0.0242719 0 0.000528345)
(0.0246338 0 0.000514901)
(0.0249515 0 0.000498706)
(0.025227 0 0.000480076)
(0.0254625 0 0.000459311)
(0.0256598 0 0.000436735)
(0.025821 0 0.000412681)
(0.0259479 0 0.000387488)
(0.0260424 0 0.000361492)
(0.0261064 0 0.000335016)
(0.0261392 0 0.000311572)
(0.0239453 0 0.000491541)
(0.0242946 0 0.000479244)
(0.0246005 0 0.000464538)
(0.024865 0 0.000447722)
(0.0250905 0 0.000429071)
(0.025279 0 0.000408873)
(0.0254326 0 0.000387421)
(0.0255532 0 0.000365008)
(0.0256428 0 0.000341919)
(0.0257032 0 0.000318429)
(0.0257339 0 0.000297634)
(0.0236119 0 0.000454952)
(0.0239502 0 0.000443837)
(0.0242456 0 0.000430613)
(0.0245006 0 0.000415557)
(0.0247174 0 0.000398917)
(0.0248983 0 0.00038095)
(0.0250453 0 0.00036191)
(0.0251605 0 0.000342052)
(0.0252458 0 0.000321618)
(0.0253031 0 0.00030084)
(0.025332 0 0.000282446)
(0.0232766 0 0.0004182)
(0.0236051 0 0.000408279)
(0.0238915 0 0.000396511)
(0.0241381 0 0.000383151)
(0.0243473 0 0.000368423)
(0.0245215 0 0.00035255)
(0.0246629 0 0.000335756)
(0.0247734 0 0.000318257)
(0.024855 0 0.000300263)
(0.0249096 0 0.000281968)
(0.0249369 0 0.000265769)
(0.0229446 0 0.000380881)
(0.0232645 0 0.000372147)
(0.0235429 0 0.0003618)
(0.0237822 0 0.000350071)
(0.0239849 0 0.000337159)
(0.0241534 0 0.000323259)
(0.0242899 0 0.000308564)
(0.0243963 0 0.000293261)
(0.0244747 0 0.000277526)
(0.024527 0 0.000261526)
(0.0245529 0 0.000247353)
(0.0226214 0 0.000342565)
(0.0229338 0 0.000334998)
(0.0232053 0 0.00032603)
(0.0234384 0 0.000315869)
(0.0236355 0 0.000304687)
(0.023799 0 0.000292653)
(0.0239313 0 0.000279935)
(0.0240342 0 0.000266689)
(0.0241099 0 0.000253067)
(0.0241601 0 0.000239209)
(0.0241848 0 0.000226924)
(0.0223135 0 0.00030278)
(0.0226194 0 0.000296354)
(0.022885 0 0.000288722)
(0.0231126 0 0.000280069)
(0.0233049 0 0.000270543)
(0.0234643 0 0.000260289)
(0.0235929 0 0.000249446)
(0.0236929 0 0.000238149)
(0.0237662 0 0.000226525)
(0.0238147 0 0.000214691)
(0.0238382 0 0.000204192)
(0.0220277 0 0.000261004)
(0.0223281 0 0.00025569)
(0.0225886 0 0.000249356)
(0.0228117 0 0.000242163)
(0.023 0 0.000234234)
(0.0231559 0 0.000225691)
(0.0232815 0 0.00021665)
(0.023379 0 0.000207222)
(0.0234503 0 0.000197513)
(0.0234973 0 0.000187619)
(0.0235199 0 0.000178834)
(0.0217717 0 0.000216653)
(0.0220676 0 0.000212423)
(0.022324 0 0.000207357)
(0.0225434 0 0.000201588)
(0.0227284 0 0.000195216)
(0.0228814 0 0.00018834)
(0.0230045 0 0.000181055)
(0.0231 0 0.000173449)
(0.0231697 0 0.000165608)
(0.0232154 0 0.000157609)
(0.0232372 0 0.000150498)
(0.0215544 0 0.000169059)
(0.0218467 0 0.00016589)
(0.0220999 0 0.000162073)
(0.0223163 0 0.000157711)
(0.0224987 0 0.000152881)
(0.0226494 0 0.000147658)
(0.0227706 0 0.000142115)
(0.0228645 0 0.00013632)
(0.0229329 0 0.000130338)
(0.0229776 0 0.000124228)
(0.0229988 0 0.000118791)
(0.0213853 0 0.000117443)
(0.021675 0 0.000115325)
(0.0219258 0 0.000112755)
(0.0221402 0 0.000109806)
(0.0223206 0 0.000106531)
(0.0224697 0 0.000102982)
(0.0225895 0 9.92077e-05)
(0.0226822 0 9.52558e-05)
(0.0227496 0 9.11704e-05)
(0.0227936 0 8.69924e-05)
(0.0228144 0 8.32712e-05)
(0.0212753 0 6.08862e-05)
(0.0215634 0 5.98217e-05)
(0.0218128 0 5.85213e-05)
(0.0220259 0 5.70233e-05)
(0.0222052 0 5.53548e-05)
(0.0223532 0 5.35425e-05)
(0.0224722 0 5.1612e-05)
(0.0225642 0 4.95877e-05)
(0.022631 0 4.74924e-05)
(0.0226746 0 4.53473e-05)
(0.0226951 0 4.34352e-05)
(0.0212366 0 0)
(0.0215241 0 0)
(0.021773 0 0)
(0.0219856 0 0)
(0.0221646 0 0)
(0.0223123 0 0)
(0.0224309 0 0)
(0.0225226 0 0)
(0.0225893 0 0)
(0.0226327 0 0)
(0.0226531 0 0)
(0.0299923 0 0.000373527)
(0.0296358 0 0.000366764)
(0.0296399 0 0.000324338)
(0.0296255 0 0.000271228)
(0.0292736 0 0.000360235)
(0.0292774 0 0.000323718)
(0.0292651 0 0.000277936)
(0.0289049 0 0.000353706)
(0.0289085 0 0.00032198)
(0.0288978 0 0.000282151)
(0.0285293 0 0.000347001)
(0.0285325 0 0.000319236)
(0.0285231 0 0.000284335)
(0.0281466 0 0.000339968)
(0.0281496 0 0.000315532)
(0.0281411 0 0.000284777)
(0.0277571 0 0.000332467)
(0.0277598 0 0.000310868)
(0.027752 0 0.000283647)
(0.0273615 0 0.000324359)
(0.0273639 0 0.000305207)
(0.0273566 0 0.000281035)
(0.0269606 0 0.000315502)
(0.0269627 0 0.000298483)
(0.0269558 0 0.000276971)
(0.026556 0 0.000305742)
(0.0265578 0 0.000290603)
(0.0265511 0 0.000271434)
(0.0261495 0 0.000294918)
(0.026151 0 0.000281451)
(0.0261445 0 0.000264366)
(0.0257434 0 0.000282856)
(0.0257446 0 0.000270887)
(0.0257383 0 0.000255675)
(0.0253407 0 0.000269365)
(0.0253417 0 0.000258754)
(0.0253354 0 0.00024524)
(0.024945 0 0.000254239)
(0.0249457 0 0.000244871)
(0.0249395 0 0.000232912)
(0.0245603 0 0.000237254)
(0.0245608 0 0.000229033)
(0.0245546 0 0.000218517)
(0.0241916 0 0.000218162)
(0.0241919 0 0.000211016)
(0.0241857 0 0.000201854)
(0.0238446 0 0.000196694)
(0.0238447 0 0.000190568)
(0.0238385 0 0.000182697)
(0.0235259 0 0.000172552)
(0.0235257 0 0.000167411)
(0.0235196 0 0.00016079)
(0.0232428 0 0.000145408)
(0.0232426 0 0.000141235)
(0.0232364 0 0.000135851)
(0.0230041 0 0.000114895)
(0.0230037 0 0.000111695)
(0.0229975 0 0.000107561)
(0.0228195 0 8.06011e-05)
(0.022819 0 7.84063e-05)
(0.0228128 0 7.55658e-05)
(0.0227 0 4.20621e-05)
(0.0226994 0 4.09324e-05)
(0.0226932 0 3.94689e-05)
(0.022658 0 0)
(0.0226574 0 0)
(0.0226511 0 0)
(0.0299923 0 0.000373527)
(0.0296358 0 0.000366764)
(0.0296399 0 0.000324338)
(0.0296255 0 0.000271228)
(0.0292736 0 0.000360235)
(0.0292774 0 0.000323718)
(0.0292651 0 0.000277936)
(0.0289049 0 0.000353706)
(0.0289085 0 0.00032198)
(0.0288978 0 0.000282151)
(0.0285293 0 0.000347001)
(0.0285325 0 0.000319236)
(0.0285231 0 0.000284335)
(0.0281466 0 0.000339968)
(0.0281496 0 0.000315532)
(0.0281411 0 0.000284777)
(0.0277571 0 0.000332467)
(0.0277598 0 0.000310868)
(0.027752 0 0.000283647)
(0.0273615 0 0.000324359)
(0.0273639 0 0.000305207)
(0.0273566 0 0.000281035)
(0.0269606 0 0.000315502)
(0.0269627 0 0.000298483)
(0.0269558 0 0.000276971)
(0.026556 0 0.000305742)
(0.0265578 0 0.000290603)
(0.0265511 0 0.000271434)
(0.0261495 0 0.000294918)
(0.026151 0 0.000281451)
(0.0261445 0 0.000264366)
(0.0257434 0 0.000282856)
(0.0257446 0 0.000270887)
(0.0257383 0 0.000255675)
(0.0253407 0 0.000269365)
(0.0253417 0 0.000258754)
(0.0253354 0 0.00024524)
(0.024945 0 0.000254239)
(0.0249457 0 0.000244871)
(0.0249395 0 0.000232912)
(0.0245603 0 0.000237254)
(0.0245608 0 0.000229033)
(0.0245546 0 0.000218517)
(0.0241916 0 0.000218162)
(0.0241919 0 0.000211016)
(0.0241857 0 0.000201854)
(0.0238446 0 0.000196694)
(0.0238447 0 0.000190568)
(0.0238385 0 0.000182697)
(0.0235259 0 0.000172552)
(0.0235257 0 0.000167411)
(0.0235196 0 0.00016079)
(0.0232428 0 0.000145408)
(0.0232426 0 0.000141235)
(0.0232364 0 0.000135851)
(0.0230041 0 0.000114895)
(0.0230037 0 0.000111695)
(0.0229975 0 0.000107561)
(0.0228195 0 8.06011e-05)
(0.022819 0 7.84063e-05)
(0.0228128 0 7.55658e-05)
(0.0227 0 4.20621e-05)
(0.0226994 0 4.09324e-05)
(0.0226932 0 3.94689e-05)
(0.022658 0 0)
(0.0226574 0 0)
(0.0226511 0 0)
(0.0295651 0 0.000197131)
(0.0292126 0 0.000213637)
(0.0291031 0 0.000142264)
(0.0289391 0 7.43413e-05)
(0.0287206 0 1.11689e-05)
(0.0288515 0 0.00022593)
(0.028754 0 0.000162959)
(0.0286072 0 0.000102241)
(0.0284104 0 4.48795e-05)
(0.0281634 0 -8.26267e-06)
(0.027867 0 -5.65712e-05)
(0.0284816 0 0.000234876)
(0.0283939 0 0.000179086)
(0.0282611 0 0.000124733)
(0.0280821 0 7.27327e-05)
(0.027856 0 2.38625e-05)
(0.0275828 0 -2.12708e-05)
(0.0272625 0 -6.22269e-05)
(0.0268954 0 -9.87261e-05)
(0.0281034 0 0.00024105)
(0.0280236 0 0.000191448)
(0.0279022 0 0.000142723)
(0.0277379 0 9.56225e-05)
(0.0275294 0 5.0819e-05)
(0.027276 0 8.88517e-06)
(0.0269771 0 -2.97256e-05)
(0.0266322 0 -6.469e-05)
(0.0262414 0 -9.58588e-05)
(0.0277174 0 0.000244838)
(0.0276439 0 0.000200611)
(0.027532 0 0.000156872)
(0.0273799 0 0.000114231)
(0.0271861 0 7.326e-05)
(0.0269496 0 3.44708e-05)
(0.0266691 0 -1.70475e-06)
(0.0263438 0 -3.49168e-05)
(0.0259731 0 -6.49742e-05)
(0.0273245 0 0.00024649)
(0.0272562 0 0.000206971)
(0.027152 0 0.000167667)
(0.02701 0 0.000129077)
(0.0268287 0 9.16845e-05)
(0.0266064 0 5.59388e-05)
(0.0263419 0 2.22383e-05)
(0.0260336 0 -9.07712e-06)
(0.0256806 0 -3.77969e-05)
(0.0269257 0 0.000246159)
(0.0268617 0 0.000210794)
(0.0267639 0 0.000175456)
(0.0266305 0 0.00014055)
(0.0264596 0 0.000106486)
(0.0262495 0 7.3651e-05)
(0.0259985 0 4.24059e-05)
(0.025705 0 1.30704e-05)
(0.0253676 0 -1.41504e-05)
(0.0265227 0 0.000243922)
(0.0264622 0 0.000212255)
(0.0263698 0 0.000180482)
(0.0262434 0 0.000148937)
(0.0260814 0 0.000117963)
(0.0258816 0 8.78946e-05)
(0.0256424 0 5.90521e-05)
(0.0253618 0 3.17291e-05)
(0.0250381 0 6.11359e-06)
(0.0261173 0 0.000239798)
(0.0260598 0 0.000211448)
(0.0259718 0 0.000182902)
(0.0258515 0 0.000154435)
(0.0256969 0 0.000126335)
(0.025506 0 9.88899e-05)
(0.0252769 0 7.23798e-05)
(0.0250074 0 4.70704e-05)
(0.0246957 0 2.31273e-05)
(0.0257122 0 0.000233759)
(0.0256571 0 0.000208411)
(0.0255729 0 0.000182807)
(0.0254576 0 0.000157175)
(0.0253093 0 0.000131757)
(0.025126 0 0.000106799)
(0.0249055 0 8.25448e-05)
(0.0246457 0 5.92324e-05)
(0.0243446 0 3.70025e-05)
(0.0253102 0 0.000225735)
(0.0252571 0 0.000203128)
(0.025176 0 0.00018023)
(0.0250651 0 0.000157228)
(0.0249222 0 0.000134325)
(0.0247453 0 0.000111732)
(0.0245323 0 8.96607e-05)
(0.0242808 0 6.83211e-05)
(0.023989 0 4.78294e-05)
(0.024915 0 0.000215623)
(0.0248636 0 0.000195545)
(0.0247851 0 0.000175158)
(0.0246777 0 0.000154615)
(0.0245394 0 0.000134088)
(0.0243681 0 0.000113757)
(0.0241615 0 9.38039e-05)
(0.0239173 0 7.44131e-05)
(0.0236335 0 5.56778e-05)
(0.0245307 0 0.000203288)
(0.0244807 0 0.00018557)
(0.0244045 0 0.000167537)
(0.0243001 0 0.000149318)
(0.0241657 0 0.000131057)
(0.023999 0 0.000112905)
(0.0237979 0 9.5019e-05)
(0.0235599 0 7.75597e-05)
(0.0232831 0 6.05997e-05)
(0.0241623 0 0.000188564)
(0.0241135 0 0.000173077)
(0.0240391 0 0.000157282)
(0.0239373 0 0.000141286)
(0.0238061 0 0.000125207)
(0.0236434 0 0.000109176)
(0.023447 0 9.33246e-05)
(0.0232144 0 7.7792e-05)
(0.0229436 0 6.26328e-05)
(0.0238155 0 0.000171261)
(0.0237676 0 0.000157914)
(0.0236947 0 0.000144276)
(0.0235951 0 0.000130434)
(0.0234666 0 0.000116488)
(0.0233073 0 0.000102546)
(0.0231148 0 8.87192e-05)
(0.0228867 0 7.5126e-05)
(0.0226211 0 6.18064e-05)
(0.0234968 0 0.000151158)
(0.0234497 0 0.000139899)
(0.0233781 0 0.000128376)
(0.0232802 0 0.000116658)
(0.023154 0 0.000104828)
(0.0229974 0 9.29732e-05)
(0.0228082 0 8.1188e-05)
(0.022584 0 6.95699e-05)
(0.0223226 0 5.81474e-05)
(0.0232139 0 0.000128006)
(0.0231674 0 0.000118825)
(0.0230967 0 0.000109415)
(0.0230002 0 9.9831e-05)
(0.0228758 0 9.01376e-05)
(0.0227215 0 8.04058e-05)
(0.022535 0 7.0711e-05)
(0.0223138 0 6.11325e-05)
(0.022056 0 5.16898e-05)
(0.0229752 0 0.000101529)
(0.0229291 0 9.44622e-05)
(0.0228593 0 8.72096e-05)
(0.0227638 0 7.98127e-05)
(0.0226409 0 7.2321e-05)
(0.0224883 0 6.47882e-05)
(0.0223038 0 5.7272e-05)
(0.022085 0 4.98334e-05)
(0.02183 0 4.24853e-05)
(0.0227905 0 7.14183e-05)
(0.0227448 0 6.65536e-05)
(0.0226755 0 6.15562e-05)
(0.0225808 0 5.6454e-05)
(0.0224588 0 5.12807e-05)
(0.0223075 0 4.60733e-05)
(0.0221245 0 4.08714e-05)
(0.0219074 0 3.5717e-05)
(0.0216544 0 3.06188e-05)
(0.022671 0 3.73304e-05)
(0.0226255 0 3.48205e-05)
(0.0225565 0 3.22403e-05)
(0.0224623 0 2.96041e-05)
(0.0223409 0 2.69294e-05)
(0.0221903 0 2.42351e-05)
(0.0220082 0 2.15418e-05)
(0.0217922 0 1.8871e-05)
(0.0215404 0 1.62281e-05)
(0.022629 0 0)
(0.0225835 0 0)
(0.0225146 0 0)
(0.0224206 0 0)
(0.0222994 0 0)
(0.022149 0 0)
(0.0219672 0 0)
(0.0217516 0 0)
(0.0215002 0 0)
(0.0295651 0 0.000197131)
(0.0292126 0 0.000213637)
(0.0291031 0 0.000142264)
(0.0289391 0 7.43413e-05)
(0.0287206 0 1.11689e-05)
(0.0288515 0 0.00022593)
(0.028754 0 0.000162959)
(0.0286072 0 0.000102241)
(0.0284104 0 4.48795e-05)
(0.0281634 0 -8.26267e-06)
(0.027867 0 -5.65712e-05)
(0.0284816 0 0.000234876)
(0.0283939 0 0.000179086)
(0.0282611 0 0.000124733)
(0.0280821 0 7.27327e-05)
(0.027856 0 2.38625e-05)
(0.0275828 0 -2.12708e-05)
(0.0272625 0 -6.22269e-05)
(0.0268954 0 -9.87261e-05)
(0.0281034 0 0.00024105)
(0.0280236 0 0.000191448)
(0.0279022 0 0.000142723)
(0.0277379 0 9.56225e-05)
(0.0275294 0 5.0819e-05)
(0.027276 0 8.88517e-06)
(0.0269771 0 -2.97256e-05)
(0.0266322 0 -6.469e-05)
(0.0262414 0 -9.58588e-05)
(0.0277174 0 0.000244838)
(0.0276439 0 0.000200611)
(0.027532 0 0.000156872)
(0.0273799 0 0.000114231)
(0.0271861 0 7.326e-05)
(0.0269496 0 3.44708e-05)
(0.0266691 0 -1.70475e-06)
(0.0263438 0 -3.49168e-05)
(0.0259731 0 -6.49742e-05)
(0.0273245 0 0.00024649)
(0.0272562 0 0.000206971)
(0.027152 0 0.000167667)
(0.02701 0 0.000129077)
(0.0268287 0 9.16845e-05)
(0.0266064 0 5.59388e-05)
(0.0263419 0 2.22383e-05)
(0.0260336 0 -9.07712e-06)
(0.0256806 0 -3.77969e-05)
(0.0269257 0 0.000246159)
(0.0268617 0 0.000210794)
(0.0267639 0 0.000175456)
(0.0266305 0 0.00014055)
(0.0264596 0 0.000106486)
(0.0262495 0 7.3651e-05)
(0.0259985 0 4.24059e-05)
(0.025705 0 1.30704e-05)
(0.0253676 0 -1.41504e-05)
(0.0265227 0 0.000243922)
(0.0264622 0 0.000212255)
(0.0263698 0 0.000180482)
(0.0262434 0 0.000148937)
(0.0260814 0 0.000117963)
(0.0258816 0 8.78946e-05)
(0.0256424 0 5.90521e-05)
(0.0253618 0 3.17291e-05)
(0.0250381 0 6.11359e-06)
(0.0261173 0 0.000239798)
(0.0260598 0 0.000211448)
(0.0259718 0 0.000182902)
(0.0258515 0 0.000154435)
(0.0256969 0 0.000126335)
(0.025506 0 9.88899e-05)
(0.0252769 0 7.23798e-05)
(0.0250074 0 4.70704e-05)
(0.0246957 0 2.31273e-05)
(0.0257122 0 0.000233759)
(0.0256571 0 0.000208411)
(0.0255729 0 0.000182807)
(0.0254576 0 0.000157175)
(0.0253093 0 0.000131757)
(0.025126 0 0.000106799)
(0.0249055 0 8.25448e-05)
(0.0246457 0 5.92324e-05)
(0.0243446 0 3.70025e-05)
(0.0253102 0 0.000225735)
(0.0252571 0 0.000203128)
(0.025176 0 0.00018023)
(0.0250651 0 0.000157228)
(0.0249222 0 0.000134325)
(0.0247453 0 0.000111732)
(0.0245323 0 8.96607e-05)
(0.0242808 0 6.83211e-05)
(0.023989 0 4.78294e-05)
(0.024915 0 0.000215623)
(0.0248636 0 0.000195545)
(0.0247851 0 0.000175158)
(0.0246777 0 0.000154615)
(0.0245394 0 0.000134088)
(0.0243681 0 0.000113757)
(0.0241615 0 9.38039e-05)
(0.0239173 0 7.44131e-05)
(0.0236335 0 5.56778e-05)
(0.0245307 0 0.000203288)
(0.0244807 0 0.00018557)
(0.0244045 0 0.000167537)
(0.0243001 0 0.000149318)
(0.0241657 0 0.000131057)
(0.023999 0 0.000112905)
(0.0237979 0 9.5019e-05)
(0.0235599 0 7.75597e-05)
(0.0232831 0 6.05997e-05)
(0.0241623 0 0.000188564)
(0.0241135 0 0.000173077)
(0.0240391 0 0.000157282)
(0.0239373 0 0.000141286)
(0.0238061 0 0.000125207)
(0.0236434 0 0.000109176)
(0.023447 0 9.33246e-05)
(0.0232144 0 7.7792e-05)
(0.0229436 0 6.26328e-05)
(0.0238155 0 0.000171261)
(0.0237676 0 0.000157914)
(0.0236947 0 0.000144276)
(0.0235951 0 0.000130434)
(0.0234666 0 0.000116488)
(0.0233073 0 0.000102546)
(0.0231148 0 8.87192e-05)
(0.0228867 0 7.5126e-05)
(0.0226211 0 6.18064e-05)
(0.0234968 0 0.000151158)
(0.0234497 0 0.000139899)
(0.0233781 0 0.000128376)
(0.0232802 0 0.000116658)
(0.023154 0 0.000104828)
(0.0229974 0 9.29732e-05)
(0.0228082 0 8.1188e-05)
(0.022584 0 6.95699e-05)
(0.0223226 0 5.81474e-05)
(0.0232139 0 0.000128006)
(0.0231674 0 0.000118825)
(0.0230967 0 0.000109415)
(0.0230002 0 9.9831e-05)
(0.0228758 0 9.01376e-05)
(0.0227215 0 8.04058e-05)
(0.022535 0 7.0711e-05)
(0.0223138 0 6.11325e-05)
(0.022056 0 5.16898e-05)
(0.0229752 0 0.000101529)
(0.0229291 0 9.44622e-05)
(0.0228593 0 8.72096e-05)
(0.0227638 0 7.98127e-05)
(0.0226409 0 7.2321e-05)
(0.0224883 0 6.47882e-05)
(0.0223038 0 5.7272e-05)
(0.022085 0 4.98334e-05)
(0.02183 0 4.24853e-05)
(0.0227905 0 7.14183e-05)
(0.0227448 0 6.65536e-05)
(0.0226755 0 6.15562e-05)
(0.0225808 0 5.6454e-05)
(0.0224588 0 5.12807e-05)
(0.0223075 0 4.60733e-05)
(0.0221245 0 4.08714e-05)
(0.0219074 0 3.5717e-05)
(0.0216544 0 3.06188e-05)
(0.022671 0 3.73304e-05)
(0.0226255 0 3.48205e-05)
(0.0225565 0 3.22403e-05)
(0.0224623 0 2.96041e-05)
(0.0223409 0 2.69294e-05)
(0.0221903 0 2.42351e-05)
(0.0220082 0 2.15418e-05)
(0.0217922 0 1.8871e-05)
(0.0215404 0 1.62281e-05)
(0.022629 0 0)
(0.0225835 0 0)
(0.0225146 0 0)
(0.0224206 0 0)
(0.0222994 0 0)
(0.022149 0 0)
(0.0219672 0 0)
(0.0217516 0 0)
(0.0215002 0 0)
)
;

boundaryField
{
    inlet
    {
        type            fixedValue;
        value           nonuniform 0();
    }
    outlet
    {
        type            fixedValue;
        value           nonuniform 0();
    }
    flap
    {
        type            fixedValue;
        value           nonuniform 0();
    }
    upperWall
    {
        type            slip;
    }
    lowerWall
    {
        type            slip;
    }
    frontAndBack
    {
        type            empty;
    }
    procBoundary1to0
    {
        type            processor;
    }
    procBoundary1to2
    {
        type            processor;
    }
    procBoundary1to3
    {
        type            processor;
    }
    procBoundary1to4
    {
        type            processor;
    }
}


// ************************************************************************* //
