/*--------------------------------*- C++ -*----------------------------------*\
| =========                 |                                                 |
| \\      /  F ield         | OpenFOAM: The Open Source CFD Toolbox           |
|  \\    /   O peration     | Version:  dev                                   |
|   \\  /    A nd           | Web:      www.OpenFOAM.org                      |
|    \\/     M anipulation  |                                                 |
\*---------------------------------------------------------------------------*/
FoamFile
{
    version     2.0;
    format      ascii;
    class       volVectorField;
    location    "4.89";
    object      cellDisplacement;
}
// * * * * * * * * * * * * * * * * * * * * * * * * * * * * * * * * * * * * * //

dimensions      [0 1 0 0 0 0 0];

internalField   nonuniform List<vector> 
465
(
(0.0111484 0 -0.000909283)
(0.0319691 0 -0.00261538)
(0.0112892 0 -0.000963177)
(0.0323873 0 -0.00277171)
(0.0507744 0 -0.00437798)
(0.0114328 0 -0.00101635)
(0.0328143 0 -0.00292615)
(0.0514817 0 -0.00462506)
(0.0677864 0 -0.00615694)
(0.0115776 0 -0.00106837)
(0.0332455 0 -0.00307748)
(0.0521953 0 -0.00486752)
(0.0687933 0 -0.00648523)
(0.0833909 0 -0.00797095)
(0.0117222 0 -0.00111883)
(0.0336767 0 -0.00322453)
(0.0529062 0 -0.00510332)
(0.069802 0 -0.00680643)
(0.0847163 0 -0.008375)
(0.0979354 0 -0.00983934)
(0.0118647 0 -0.00116719)
(0.0341045 0 -0.00336596)
(0.0536271 0 -0.00533204)
(0.0708162 0 -0.00711792)
(0.0860256 0 -0.00876541)
(0.0995508 0 -0.0103071)
(0.111698 0 -0.0117738)
(0.0120041 0 -0.00121317)
(0.0345235 0 -0.00350064)
(0.0543297 0 -0.00554982)
(0.0718025 0 -0.00741404)
(0.0873036 0 -0.00913769)
(0.101134 0 -0.0107551)
(0.113613 0 -0.0123004)
(0.124969 0 -0.0137966)
(0.135366 0 -0.0152576)
(0.0121381 0 -0.00125613)
(0.0349266 0 -0.00362668)
(0.0550049 0 -0.00575392)
(0.0727527 0 -0.00769238)
(0.088539 0 -0.00948871)
(0.10267 0 -0.011179)
(0.115463 0 -0.0127987)
(0.127142 0 -0.0143702)
(0.137868 0 -0.0159079)
(0.147844 0 -0.0174318)
(0.0122642 0 -0.00129536)
(0.0353069 0 -0.0037421)
(0.055643 0 -0.00594128)
(0.0736517 0 -0.00794853)
(0.0897124 0 -0.00981275)
(0.104136 0 -0.011572)
(0.117224 0 -0.0132611)
(0.129196 0 -0.0149015)
(0.140216 0 -0.0165092)
(0.150504 0 -0.0181079)
(0.160245 0 -0.0197178)
(0.169549 0 -0.0213475)
(0.0123801 0 -0.00133013)
(0.0356576 0 -0.00384477)
(0.056234 0 -0.00610861)
(0.074483 0 -0.00817768)
(0.0908066 0 -0.0101048)
(0.105516 0 -0.0119286)
(0.118872 0 -0.0136795)
(0.131099 0 -0.0153806)
(0.142389 0 -0.0170519)
(0.152939 0 -0.0187147)
(0.162906 0 -0.0203844)
(0.172419 0 -0.0220737)
(0.181606 0 -0.0237971)
(0.190566 0 -0.025566)
(0.0124833 0 -0.00135968)
(0.0359717 0 -0.00393243)
(0.0567694 0 -0.00625257)
(0.075257 0 -0.0083778)
(0.0918192 0 -0.0103599)
(0.106763 0 -0.0122373)
(0.120351 0 -0.0140406)
(0.132806 0 -0.0157942)
(0.144322 0 -0.0175186)
(0.155079 0 -0.0192324)
(0.165227 0 -0.0209509)
(0.174895 0 -0.0226866)
(0.184196 0 -0.0244515)
(0.193222 0 -0.0262556)
(0.20205 0 -0.0281077)
(0.0125699 0 -0.00138299)
(0.036239 0 -0.00400225)
(0.0572312 0 -0.00636835)
(0.0759259 0 -0.00853943)
(0.0926951 0 -0.0105663)
(0.107845 0 -0.0124878)
(0.121635 0 -0.0143346)
(0.134284 0 -0.0161311)
(0.145985 0 -0.0178977)
(0.156906 0 -0.0196516)
(0.167192 0 -0.021407)
(0.176965 0 -0.0231759)
(0.186328 0 -0.0249683)
(0.195368 0 -0.0267925)
(0.204151 0 -0.028655)
(0.212725 0 -0.0305602)
(0.221119 0 -0.0325102)
(0.0126369 0 -0.00139911)
(0.0364511 0 -0.00405154)
(0.0576061 0 -0.00645163)
(0.0764754 0 -0.00865725)
(0.0934223 0 -0.0107185)
(0.108748 0 -0.012674)
(0.122708 0 -0.0145541)
(0.135519 0 -0.0163832)
(0.147366 0 -0.0181808)
(0.158411 0 -0.0199632)
(0.168792 0 -0.0217435)
(0.178625 0 -0.0235324)
(0.188006 0 -0.0253385)
(0.197014 0 -0.0271685)
(0.205709 0 -0.0290267)
(0.214134 0 -0.0309157)
(0.222312 0 -0.0328354)
(0.230256 0 -0.0347844)
(0.237956 0 -0.036757)
(0.0126827 0 -0.00140737)
(0.0366034 0 -0.00407826)
(0.0578869 0 -0.00649917)
(0.0768983 0 -0.00872709)
(0.0939918 0 -0.0108112)
(0.109463 0 -0.0127896)
(0.123562 0 -0.0146922)
(0.136499 0 -0.0165426)
(0.148457 0 -0.0183597)
(0.159589 0 -0.0201587)
(0.170026 0 -0.0219515)
(0.179879 0 -0.0237477)
(0.189239 0 -0.0255543)
(0.198179 0 -0.0273766)
(0.206753 0 -0.0292171)
(0.215001 0 -0.0310771)
(0.222943 0 -0.0329541)
(0.230599 0 -0.0348475)
(0.237959 0 -0.0367507)
(0.244989 0 -0.0386506)
(0.251667 0 -0.0405378)
(0.0127065 0 -0.00140714)
(0.0366929 0 -0.00408051)
(0.0580691 0 -0.00650791)
(0.0771894 0 -0.00874492)
(0.0943982 0 -0.0108395)
(0.109984 0 -0.0128289)
(0.12419 0 -0.0147421)
(0.137221 0 -0.016602)
(0.149255 0 -0.0184267)
(0.160439 0 -0.0202301)
(0.170898 0 -0.022023)
(0.180738 0 -0.023814)
(0.190044 0 -0.0256085)
(0.198887 0 -0.0274109)
(0.207313 0 -0.0292212)
(0.215373 0 -0.0310422)
(0.223087 0 -0.0328711)
(0.230449 0 -0.0346998)
(0.237461 0 -0.0365228)
(0.244108 0 -0.0383304)
(0.250372 0 -0.0401126)
(0.0127076 0 -0.00139781)
(0.0367179 0 -0.00405652)
(0.0581504 0 -0.00647497)
(0.0773463 0 -0.00870685)
(0.094639 0 -0.0107986)
(0.110308 0 -0.0127861)
(0.12459 0 -0.0146974)
(0.137685 0 -0.0165543)
(0.149764 0 -0.0183744)
(0.16097 0 -0.02017)
(0.17142 0 -0.0219506)
(0.181218 0 -0.0237243)
(0.190442 0 -0.0254941)
(0.199172 0 -0.0272659)
(0.207454 0 -0.02904)
(0.215311 0 -0.0308115)
(0.222769 0 -0.0325786)
(0.229837 0 -0.0343353)
(0.236518 0 -0.0360745)
(0.242805 0 -0.0377878)
(0.0126862 0 -0.00137884)
(0.0366787 0 -0.00400464)
(0.058131 0 -0.00639764)
(0.0773695 0 -0.00860921)
(0.0947153 0 -0.0106838)
(0.110439 0 -0.0126559)
(0.124767 0 -0.014552)
(0.137893 0 -0.0163928)
(0.149991 0 -0.0181957)
(0.161195 0 -0.0199715)
(0.171605 0 -0.0217267)
(0.181344 0 -0.0234716)
(0.190489 0 -0.0252098)
(0.199086 0 -0.0269398)
(0.20719 0 -0.0286628)
(0.214832 0 -0.0303757)
(0.222038 0 -0.0320745)
(0.228822 0 -0.0337536)
(0.235189 0 -0.0354063)
(0.24114 0 -0.0370246)
(0.0126427 0 -0.00134971)
(0.0365766 0 -0.00392334)
(0.0580133 0 -0.00627343)
(0.0772625 0 -0.00844856)
(0.0946321 0 -0.010491)
(0.110382 0 -0.0124333)
(0.12473 0 -0.0143003)
(0.137856 0 -0.0161104)
(0.149949 0 -0.0178827)
(0.161138 0 -0.0196276)
(0.171508 0 -0.0213485)
(0.181166 0 -0.0230525)
(0.19019 0 -0.0247437)
(0.198638 0 -0.0264215)
(0.206557 0 -0.028085)
(0.213984 0 -0.0297312)
(0.220945 0 -0.0313557)
(0.227456 0 -0.0329531)
(0.23353 0 -0.034517)
(0.239172 0 -0.0360401)
(0.012579 0 -0.00130991)
(0.0364154 0 -0.00381086)
(0.0578024 0 -0.00609929)
(0.0770319 0 -0.00822068)
(0.0943978 0 -0.0102147)
(0.110149 0 -0.0121121)
(0.124498 0 -0.0139362)
(0.137623 0 -0.0157049)
(0.149688 0 -0.0174328)
(0.16082 0 -0.0191307)
(0.17112 0 -0.0208035)
(0.18068 0 -0.0224558)
(0.189576 0 -0.0240898)
(0.197867 0 -0.0257055)
(0.205601 0 -0.0273011)
(0.212817 0 -0.0288734)
(0.219542 0 -0.0304181)
(0.225797 0 -0.0319301)
(0.231597 0 -0.0334033)
(0.236954 0 -0.0348313)
(0.0124968 0 -0.00125903)
(0.0362 0 -0.00366595)
(0.0575051 0 -0.00587303)
(0.0766863 0 -0.00792241)
(0.0940226 0 -0.009851)
(0.109752 0 -0.0116873)
(0.124079 0 -0.0134531)
(0.137176 0 -0.015165)
(0.149195 0 -0.0168358)
(0.16026 0 -0.0184745)
(0.170474 0 -0.0200864)
(0.179924 0 -0.0216749)
(0.188686 0 -0.0232413)
(0.196818 0 -0.0247852)
(0.204371 0 -0.0263046)
(0.211381 0 -0.0277963)
(0.217882 0 -0.0292561)
(0.223897 0 -0.030679)
(0.229445 0 -0.0320596)
(0.234542 0 -0.0333922)
(0.0123976 0 -0.00119684)
(0.0359356 0 -0.00348793)
(0.0571306 0 -0.00559346)
(0.076238 0 -0.00755198)
(0.0935217 0 -0.00939737)
(0.109208 0 -0.0111558)
(0.123493 0 -0.0128473)
(0.136543 0 -0.0144869)
(0.1485 0 -0.0160859)
(0.159487 0 -0.017652)
(0.169605 0 -0.01919)
(0.17894 0 -0.0207027)
(0.187565 0 -0.0221907)
(0.19554 0 -0.0236533)
(0.202915 0 -0.0250883)
(0.209731 0 -0.0264925)
(0.216021 0 -0.027862)
(0.221813 0 -0.029192)
(0.227129 0 -0.0304778)
(0.231988 0 -0.0317143)
(0.0122842 0 -0.00112303)
(0.03563 0 -0.0032758)
(0.0566905 0 -0.00525877)
(0.0757023 0 -0.00710672)
(0.0929136 0 -0.0088503)
(0.10854 0 -0.0105132)
(0.122766 0 -0.0121135)
(0.135753 0 -0.0136647)
(0.147638 0 -0.0151766)
(0.158539 0 -0.0166559)
(0.168555 0 -0.0181068)
(0.177771 0 -0.0195313)
(0.18626 0 -0.0209298)
(0.194082 0 -0.0223011)
(0.201288 0 -0.0236431)
(0.20792 0 -0.0249526)
(0.214014 0 -0.0262259)
(0.219601 0 -0.0274587)
(0.224706 0 -0.0286468)
(0.229351 0 -0.0297856)
(0.0121598 0 -0.00103734)
(0.0352922 0 -0.00302868)
(0.0561991 0 -0.00486732)
(0.0750979 0 -0.00658414)
(0.0922211 0 -0.00820641)
(0.107772 0 -0.00975523)
(0.121928 0 -0.0112466)
(0.134842 0 -0.0126925)
(0.146647 0 -0.0141014)
(0.157456 0 -0.0154789)
(0.167368 0 -0.0168287)
(0.176467 0 -0.0181521)
(0.184824 0 -0.0194491)
(0.192499 0 -0.0207186)
(0.199546 0 -0.0219582)
(0.206008 0 -0.023165)
(0.211923 0 -0.0243356)
(0.217323 0 -0.025466)
(0.222236 0 -0.0265525)
(0.226688 0 -0.0275911)
(0.0120284 0 -0.000939549)
(0.0349333 0 -0.00274576)
(0.0556733 0 -0.00441759)
(0.0744469 0 -0.00598189)
(0.091471 0 -0.00746245)
(0.106937 0 -0.00887769)
(0.121015 0 -0.0102416)
(0.13385 0 -0.0115643)
(0.14557 0 -0.0128532)
(0.156287 0 -0.0141131)
(0.166096 0 -0.0153467)
(0.175081 0 -0.0165551)
(0.183312 0 -0.0177379)
(0.190851 0 -0.0188939)
(0.19775 0 -0.0200208)
(0.204056 0 -0.0211159)
(0.209808 0 -0.022176)
(0.21504 0 -0.0231976)
(0.219783 0 -0.0241774)
(0.224063 0 -0.0251119)
(0.0118942 0 -0.000829457)
(0.0345657 0 -0.00242636)
(0.0551324 0 -0.00390821)
(0.0737747 0 -0.00529777)
(0.090694 0 -0.00661531)
(0.106071 0 -0.00787648)
(0.120066 0 -0.00909311)
(0.13282 0 -0.0102739)
(0.144456 0 -0.0114248)
(0.155083 0 -0.0125498)
(0.164794 0 -0.0136511)
(0.173671 0 -0.0147292)
(0.181786 0 -0.0157837)
(0.1892 0 -0.0168132)
(0.195967 0 -0.0178157)
(0.202133 0 -0.0187886)
(0.20774 0 -0.0197289)
(0.212823 0 -0.0206337)
(0.217415 0 -0.0215)
(0.221545 0 -0.0223247)
(0.0117624 0 -0.000706895)
(0.0342038 0 -0.00206985)
(0.0545991 0 -0.0033379)
(0.0731107 0 -0.00452971)
(0.0899255 0 -0.00566195)
(0.105214 0 -0.00674748)
(0.119128 0 -0.00779602)
(0.131803 0 -0.00881463)
(0.143359 0 -0.00980818)
(0.153901 0 -0.0107797)
(0.163521 0 -0.0117309)
(0.172302 0 -0.0126619)
(0.180312 0 -0.0135723)
(0.187615 0 -0.0144607)
(0.194265 0 -0.0153251)
(0.200309 0 -0.0161632)
(0.20579 0 -0.0169726)
(0.210745 0 -0.0177505)
(0.215207 0 -0.0184943)
(0.219208 0 -0.0192017)
(0.0116387 0 -0.000571727)
(0.0338645 0 -0.00167571)
(0.0540992 0 -0.00270553)
(0.0724884 0 -0.00367578)
(0.0892054 0 -0.00459946)
(0.104411 0 -0.00548666)
(0.11825 0 -0.00634494)
(0.130853 0 -0.00717979)
(0.142337 0 -0.00799493)
(0.152804 0 -0.00879264)
(0.162345 0 -0.00957403)
(0.171041 0 -0.0103392)
(0.178962 0 -0.0110875)
(0.186171 0 -0.0118176)
(0.192722 0 -0.012528)
(0.198663 0 -0.0132165)
(0.204039 0 -0.0138811)
(0.208886 0 -0.0145195)
(0.213241 0 -0.0151295)
(0.217134 0 -0.0157091)
(0.0115302 0 -0.000423852)
(0.0335671 0 -0.00124351)
(0.0536626 0 -0.00201016)
(0.0719462 0 -0.00273425)
(0.0885793 0 -0.00342513)
(0.103714 0 -0.00409007)
(0.117489 0 -0.0047345)
(0.130032 0 -0.00536234)
(0.141456 0 -0.0059762)
(0.151861 0 -0.00657766)
(0.161338 0 -0.00716738)
(0.169966 0 -0.00774534)
(0.177815 0 -0.00831091)
(0.184948 0 -0.00886304)
(0.19142 0 -0.00940037)
(0.197281 0 -0.0099213)
(0.202573 0 -0.0104241)
(0.207336 0 -0.0109071)
(0.211606 0 -0.0113685)
(0.215415 0 -0.0118068)
(0.0114451 0 -0.000263225)
(0.0333354 0 -0.000772999)
(0.0533249 0 -0.00125105)
(0.0715291 0 -0.00170369)
(0.0880993 0 -0.00213656)
(0.103181 0 -0.00255408)
(0.116909 0 -0.00295954)
(0.129408 0 -0.00335528)
(0.140787 0 -0.00374287)
(0.151148 0 -0.00412322)
(0.160578 0 -0.00449666)
(0.169158 0 -0.00486311)
(0.176956 0 -0.00522209)
(0.184035 0 -0.00557287)
(0.190452 0 -0.00591453)
(0.196255 0 -0.00624598)
(0.201488 0 -0.00656608)
(0.206192 0 -0.00687367)
(0.210403 0 -0.00716762)
(0.214152 0 -0.00744688)
(0.011395 0 -8.98856e-05)
(0.0332002 0 -0.000264156)
(0.0531302 0 -0.000427897)
(0.0712903 0 -0.000583215)
(0.0878259 0 -0.000732014)
(0.102879 0 -0.000875774)
(0.116581 0 -0.0010156)
(0.129055 0 -0.00115229)
(0.140411 0 -0.00128635)
(0.150748 0 -0.00141808)
(0.160153 0 -0.00154758)
(0.168707 0 -0.0016748)
(0.176477 0 -0.00179955)
(0.183529 0 -0.00192157)
(0.189916 0 -0.00204052)
(0.195688 0 -0.002156)
(0.20089 0 -0.0022676)
(0.205563 0 -0.0023749)
(0.209742 0 -0.00247749)
(0.21346 0 -0.002575)
)
;

boundaryField
{
    inlet
    {
        type            cellMotion;
        value           uniform (0 0 0);
    }
    outlet
    {
        type            cellMotion;
        value           nonuniform 0();
    }
    flap
    {
        type            cellMotion;
        value           nonuniform 0();
    }
    upperWall
    {
        type            slip;
    }
    lowerWall
    {
        type            slip;
    }
    frontAndBack
    {
        type            empty;
    }
    procBoundary0to1
    {
        type            processor;
        value           nonuniform List<vector> 
18
(
(0.257965 0 -0.0424009)
(0.256234 0 -0.0418584)
(0.248688 0 -0.039466)
(0.248688 0 -0.039466)
(0.246674 0 -0.0386003)
(0.244386 0 -0.0375154)
(0.241879 0 -0.036208)
(0.239203 0 -0.0346717)
(0.236411 0 -0.0328973)
(0.23356 0 -0.0308719)
(0.230705 0 -0.0285793)
(0.227911 0 -0.0259991)
(0.225244 0 -0.0231064)
(0.22278 0 -0.0198712)
(0.220601 0 -0.0162573)
(0.218799 0 -0.0122211)
(0.217478 0 -0.0077109)
(0.216755 0 -0.00266718)
)
;
    }
    procBoundary0to3
    {
        type            processor;
        value           nonuniform List<vector> 
34
(
(0.0110126 0 -0.000855342)
(0.0315655 0 -0.00245908)
(0.0500806 0 -0.00412812)
(0.0500806 0 -0.00412812)
(0.0667897 0 -0.00582292)
(0.0667897 0 -0.00582292)
(0.0820663 0 -0.00755844)
(0.0820663 0 -0.00755844)
(0.0962907 0 -0.00935534)
(0.0962907 0 -0.00935534)
(0.109743 0 -0.0112257)
(0.109743 0 -0.0112257)
(0.122705 0 -0.0131897)
(0.122705 0 -0.0131897)
(0.132746 0 -0.0145687)
(0.145004 0 -0.0167013)
(0.145004 0 -0.0167013)
(0.157286 0 -0.0189668)
(0.157286 0 -0.0189668)
(0.166317 0 -0.0205224)
(0.178562 0 -0.0230147)
(0.178562 0 -0.0230147)
(0.187396 0 -0.024732)
(0.199385 0 -0.0273905)
(0.199385 0 -0.0273905)
(0.210734 0 -0.0300139)
(0.210734 0 -0.0300139)
(0.219313 0 -0.0319794)
(0.229343 0 -0.0345045)
(0.229343 0 -0.0345045)
(0.23739 0 -0.0365396)
(0.245382 0 -0.0387438)
(0.245382 0 -0.0387438)
(0.252502 0 -0.0407346)
)
;
    }
}


// ************************************************************************* //
