/*--------------------------------*- C++ -*----------------------------------*\
| =========                 |                                                 |
| \\      /  F ield         | OpenFOAM: The Open Source CFD Toolbox           |
|  \\    /   O peration     | Version:  dev                                   |
|   \\  /    A nd           | Web:      www.OpenFOAM.org                      |
|    \\/     M anipulation  |                                                 |
\*---------------------------------------------------------------------------*/
FoamFile
{
    version     2.0;
    format      ascii;
    class       surfaceScalarField;
    location    "1.03";
    object      meshPhi;
}
// * * * * * * * * * * * * * * * * * * * * * * * * * * * * * * * * * * * * * //

dimensions      [0 3 -1 0 0 0 0];

internalField   nonuniform List<scalar> 
5457
(
6.53753e-06
-1.54482e-07
8.62505e-06
-3.76416e-07
4.19927e-06
-4.06302e-07
-6.73723e-06
-2.19952e-07
-2.29509e-05
1.62434e-07
-4.25185e-05
6.96435e-07
-6.32071e-05
1.32295e-06
-8.27893e-05
1.97617e-06
-9.93203e-05
2.59026e-06
-0.000111343
3.10558e-06
-0.000118002
3.47561e-06
-0.000119081
3.67242e-06
-0.000114961
3.68749e-06
-0.000106498
3.53156e-06
-9.48583e-05
3.23167e-06
-8.13405e-05
2.8266e-06
-6.71893e-05
2.36112e-06
-5.34452e-05
1.87754e-06
-4.08879e-05
1.4123e-06
-3.00093e-05
9.93351e-07
-2.12571e-05
6.5206e-07
-1.46187e-05
4.10027e-07
-9.63958e-06
2.49049e-07
-6.02209e-06
1.41113e-07
-3.50275e-06
7.23374e-08
-1.83922e-06
3.22533e-08
-8.21855e-07
1.15415e-08
-2.75734e-07
2.5276e-09
-5.57419e-08
-4.67979e-10
-2.58293e-10
6.95601e-06
-3.1784e-07
9.32628e-06
-7.76848e-07
5.04221e-06
-8.46939e-07
-5.86991e-06
-4.80017e-07
-2.21626e-05
2.82819e-07
-4.18994e-05
1.35206e-06
-6.28288e-05
2.60982e-06
-8.26937e-05
3.92435e-06
-9.95174e-05
5.16358e-06
-0.000111814
6.20703e-06
-0.000118703
6.96018e-06
-0.000119949
7.36634e-06
-0.000115924
7.40738e-06
-0.000107486
7.10404e-06
-9.58122e-05
6.51002e-06
-8.22182e-05
5.70247e-06
-6.79692e-05
4.76958e-06
-5.41205e-05
3.79973e-06
-4.14652e-05
2.86825e-06
-3.05088e-05
2.02993e-06
-2.16703e-05
1.34511e-06
-1.49475e-05
8.55467e-07
-9.90834e-06
5.27569e-07
-6.23255e-06
3.0626e-07
-3.65774e-06
1.6296e-07
-1.94341e-06
7.7361e-08
-8.81912e-07
3.11874e-08
-3.01699e-07
9.29564e-09
-6.29992e-08
7.0831e-10
-1.58297e-10
7.40447e-06
-4.93961e-07
1.00984e-05
-1.21239e-06
6.00978e-06
-1.33968e-06
-4.8199e-06
-8.04606e-07
-2.11359e-05
3.30424e-07
-4.09965e-05
1.9305e-06
-6.2142e-05
3.81956e-06
-8.2293e-05
5.79975e-06
-9.94424e-05
7.6716e-06
-0.00011208
9.25481e-06
-0.000119298
1.04081e-05
-0.000120833
1.10436e-05
-0.000117037
1.11319e-05
-0.000108758
1.07023e-05
-9.71752e-05
9.83386e-06
-8.36056e-05
8.64124e-06
-6.93239e-05
7.25606e-06
-5.54052e-05
5.81066e-06
-4.26584e-05
4.4188e-06
-3.15958e-05
3.16416e-06
-2.26142e-05
2.13327e-06
-1.57282e-05
1.38492e-06
-1.05365e-05
8.74898e-07
-6.71378e-06
5.25039e-07
-4.00391e-06
2.92875e-07
-2.17058e-06
1.49127e-07
-1.01003e-06
6.70406e-08
-3.56217e-07
2.43515e-08
-7.77476e-08
5.0625e-09
6.72347e-10
7.8421e-06
-6.85127e-07
1.08826e-05
-1.69034e-06
7.04205e-06
-1.898e-06
-3.63554e-06
-1.21463e-06
-1.99003e-05
2.7626e-07
-3.98132e-05
2.39568e-06
-6.1116e-05
4.90978e-06
-8.15215e-05
7.55527e-06
-9.90026e-05
1.00658e-05
-0.000112028
1.22031e-05
-0.000119663
1.37796e-05
-0.000121609
1.46735e-05
-0.000118188
1.48422e-05
-0.000110222
1.43212e-05
-9.88763e-05
1.32119e-05
-8.54578e-05
1.16647e-05
-7.12393e-05
9.85372e-06
-5.73095e-05
7.95245e-06
-4.44914e-05
6.1117e-06
-3.33054e-05
4.44558e-06
-2.41338e-05
3.06532e-06
-1.70052e-05
2.04344e-06
-1.15613e-05
1.32871e-06
-7.49281e-06
8.26447e-07
-4.55502e-06
4.82745e-07
-2.52383e-06
2.60565e-07
-1.20573e-06
1.26142e-07
-4.39037e-07
5.10046e-08
-9.96241e-08
1.38385e-08
2.5043e-09
8.38142e-06
-8.9595e-07
1.18633e-05
-2.22354e-06
8.34999e-06
-2.54151e-06
-2.11336e-06
-1.73622e-06
-1.82852e-05
8.72103e-08
-3.82321e-05
2.7075e-06
-5.9698e-05
5.83476e-06
-8.03929e-05
9.143e-06
-9.82765e-05
1.23027e-05
-0.000111791
1.50163e-05
-0.000119965
1.70468e-05
-0.00012246
1.82375e-05
-0.000119552
1.85308e-05
-0.000112032
1.79651e-05
-0.000101035
1.66599e-05
-8.78573e-05
1.47983e-05
-7.37664e-05
1.25944e-05
-5.98599e-05
1.0262e-05
-4.69708e-05
7.98876e-06
-3.56369e-05
5.91853e-06
-2.62264e-05
4.18375e-06
-1.87757e-05
2.86814e-06
-1.29862e-05
1.91932e-06
-8.57766e-06
1.23395e-06
-5.31895e-06
7.49974e-07
-3.00556e-06
4.23433e-07
-1.46595e-06
2.14937e-07
-5.46557e-07
9.182e-08
-1.27283e-07
2.78346e-08
5.48271e-09
9.03095e-06
-1.13104e-06
1.30519e-05
-2.82517e-06
9.94455e-06
-3.29104e-06
-2.42861e-07
-2.39684e-06
-1.62772e-05
-2.70063e-07
-3.62351e-05
2.82703e-06
-5.78681e-05
6.55143e-06
-7.88863e-05
1.05173e-05
-9.72363e-05
1.43331e-05
-0.000111332
1.76433e-05
-0.000120162
2.01622e-05
-0.000123339
2.16984e-05
-0.000121086
2.21729e-05
-0.000114146
2.16202e-05
-0.00010362
2.01749e-05
-9.07814e-05
1.80496e-05
-7.68915e-05
1.54954e-05
-6.30515e-05
1.27641e-05
-5.01062e-05
1.00798e-05
-3.86153e-05
7.61767e-06
-2.89199e-05
5.52583e-06
-2.1062e-05
3.89343e-06
-1.4825e-05
2.67418e-06
-9.97702e-06
1.76702e-06
-6.30553e-06
1.10741e-06
-3.62351e-06
6.46208e-07
-1.78999e-06
3.38201e-07
-6.74907e-07
1.48281e-07
-1.59074e-07
4.71444e-08
9.50829e-09
9.79574e-06
-1.39388e-06
1.44566e-05
-3.50604e-06
1.18367e-05
-4.16509e-06
1.98917e-06
-3.22168e-06
-1.38596e-05
-8.26235e-07
-3.37994e-05
2.71864e-06
-5.55951e-05
7.01901e-06
-7.69626e-05
1.16321e-05
-9.58352e-05
1.61069e-05
-0.000110597
2.00332e-05
-0.000120194
2.30788e-05
-0.000124182
2.50146e-05
-0.000122726
2.57336e-05
-0.000116506
2.526e-05
-0.000106578
2.374e-05
-9.41895e-05
2.1412e-05
-8.05873e-05
1.85606e-05
-6.68691e-05
1.54721e-05
-5.38953e-05
1.24052e-05
-4.22552e-05
9.56586e-06
-3.22383e-05
7.11506e-06
-2.38871e-05
5.14208e-06
-1.70949e-05
3.61315e-06
-1.16948e-05
2.44121e-06
-7.51012e-06
1.56484e-06
-4.37249e-06
9.3354e-07
-2.17198e-06
4.97736e-07
-8.18576e-07
2.20388e-07
-1.91343e-07
7.0953e-08
1.40606e-08
1.06812e-05
-1.68778e-06
1.60854e-05
-4.27544e-06
1.40347e-05
-5.17811e-06
4.59151e-06
-4.2307e-06
-1.10216e-05
-1.60781e-06
-3.09087e-05
2.34841e-06
-5.28498e-05
7.19573e-06
-7.45741e-05
1.24386e-05
-9.40124e-05
1.7573e-05
-0.000109517
2.21355e-05
-0.000119984
2.57442e-05
-0.000124909
2.8129e-05
-0.000124385
2.9155e-05
-0.000119027
2.88345e-05
-0.000109834
2.73175e-05
-9.80166e-05
2.48599e-05
-8.48017e-05
2.17736e-05
-7.12808e-05
1.83784e-05
-5.83279e-05
1.49675e-05
-4.65587e-05
1.17751e-05
-3.61858e-05
8.96701e-06
-2.7252e-05
6.62673e-06
-1.9797e-05
4.74393e-06
-1.37276e-05
3.26153e-06
-8.91553e-06
2.12539e-06
-5.23009e-06
1.28541e-06
-2.59647e-06
6.9191e-07
-9.67313e-07
3.06629e-07
-2.17629e-07
9.78109e-08
1.84392e-08
1.16951e-05
-2.01692e-06
1.79485e-05
-5.14454e-06
1.65481e-05
-6.34625e-06
7.57378e-06
-5.4448e-06
-7.75085e-06
-2.6414e-06
-2.75443e-05
1.68331e-06
-4.96052e-05
7.0423e-06
-7.16811e-05
1.2892e-05
-9.17092e-05
1.86792e-05
-0.000108015
2.389e-05
-0.000119439
2.80927e-05
-0.000125409
3.09749e-05
-0.000125948
3.23728e-05
-0.000121594
3.22833e-05
-0.000113279
3.08538e-05
-0.000102167
2.83488e-05
-8.94516e-05
2.51004e-05
-7.62184e-05
2.14583e-05
-6.33567e-05
1.77469e-05
-5.14996e-05
1.42308e-05
-4.07496e-05
1.10754e-05
-3.11376e-05
8.34701e-06
-2.28986e-05
6.06588e-06
-1.60404e-05
4.22324e-06
-1.04827e-05
2.78226e-06
-6.15534e-06
1.69469e-06
-3.03267e-06
9.13892e-07
-1.10289e-06
4.02201e-07
-2.30357e-07
1.25219e-07
2.18579e-08
1.2848e-05
-2.3851e-06
2.00605e-05
-6.12351e-06
1.93902e-05
-7.6841e-06
1.09489e-05
-6.88236e-06
-4.03096e-06
-3.94978e-06
-2.36824e-05
6.95033e-07
-4.58275e-05
6.52365e-06
-6.82366e-05
1.29487e-05
-8.88586e-05
1.93723e-05
-0.000105999
2.52339e-05
-0.000118444
3.0055e-05
-0.000125554
3.34812e-05
-0.000127273
3.53158e-05
-0.000124059
3.55351e-05
-0.000116768
3.42776e-05
-0.000106502
3.18098e-05
-9.44153e-05
2.84794e-05
-8.15796e-05
2.46614e-05
-6.88884e-05
2.07052e-05
-5.69928e-05
1.69011e-05
-4.58614e-05
1.34104e-05
-3.54863e-05
1.02788e-05
-2.6331e-05
7.56191e-06
-1.8556e-05
5.31159e-06
-1.2137e-05
3.51927e-06
-7.07799e-06
2.14453e-06
-3.42485e-06
1.1485e-06
-1.19646e-06
4.97121e-07
-2.2135e-07
1.49189e-07
2.34976e-08
1.41505e-05
-2.79437e-06
2.24344e-05
-7.21758e-06
2.25689e-05
-9.19858e-06
1.47219e-05
-8.55222e-06
1.44302e-07
-5.54602e-06
-1.931e-05
-6.36236e-07
-4.14907e-05
5.61063e-06
-6.41944e-05
1.25678e-05
-8.53885e-05
1.95978e-05
-0.00010337
2.6101e-05
-0.000116877
3.15554e-05
-0.000125198
3.5563e-05
-0.000128198
3.78921e-05
-0.000126246
3.84942e-05
-0.000120117
3.74941e-05
-0.000110835
3.51527e-05
-9.95116e-05
3.18255e-05
-8.71974e-05
2.79066e-05
-7.4776e-05
2.37698e-05
-6.29014e-05
1.97276e-05
-5.13805e-05
1.59241e-05
-4.01609e-05
1.23773e-05
-2.99677e-05
9.19166e-06
-2.11477e-05
6.49382e-06
-1.3755e-05
4.30758e-06
-7.89033e-06
2.60836e-06
-3.69611e-06
1.37435e-06
-1.21243e-06
5.78358e-07
-1.81488e-07
1.64976e-07
2.27029e-08
1.56163e-05
-3.24798e-06
2.50861e-05
-8.43462e-06
2.60915e-05
-1.08988e-05
1.88943e-05
-1.04642e-05
4.77677e-06
-7.44289e-06
-1.44183e-05
-2.32897e-06
-3.6572e-05
4.27655e-06
-5.95131e-05
1.17132e-05
-8.12309e-05
1.93091e-05
-0.000100027
2.64303e-05
-0.000114604
3.25164e-05
-0.000124176
3.71282e-05
-0.000128528
3.99987e-05
-0.00012794
4.10507e-05
-0.000123094
4.03873e-05
-0.000114931
3.82598e-05
-0.000104504
3.50259e-05
-9.28313e-05
3.10893e-05
-8.07803e-05
2.68412e-05
-6.8999e-05
2.26149e-05
-5.70888e-05
1.85326e-05
-4.49444e-05
1.45723e-05
-3.36023e-05
1.08923e-05
-2.3623e-05
7.71397e-06
-1.51652e-05
5.10138e-06
-8.46199e-06
3.05233e-06
-3.76636e-06
1.56972e-06
-1.11385e-06
6.34546e-07
-9.85947e-08
1.68982e-07
1.9171e-08
1.72669e-05
-3.74988e-06
2.80407e-05
-9.78369e-06
2.99693e-05
-1.27931e-05
2.34703e-05
-1.26248e-05
9.87067e-06
-9.64823e-06
-8.99566e-06
-4.39519e-06
-3.10449e-05
2.50201e-06
-5.41478e-05
1.0355e-05
-7.63189e-05
1.84634e-05
-9.58687e-05
2.61617e-05
-0.00011148
3.28587e-05
-0.000122307
3.80809e-05
-0.000128048
4.15246e-05
-0.000128891
4.30805e-05
-0.000125421
4.28241e-05
-0.000118489
4.09911e-05
-0.000109082
3.79358e-05
-9.81686e-05
3.40682e-05
-8.65791e-05
2.97883e-05
-7.49511e-05
2.544e-05
-6.26677e-05
2.11197e-05
-4.95417e-05
1.67618e-05
-3.69552e-05
1.2577e-05
-2.57356e-05
8.89712e-06
-1.6173e-05
5.84167e-06
-8.66159e-06
3.43754e-06
-3.55942e-06
1.715e-06
-8.58485e-07
6.59526e-07
4.85687e-08
1.6204e-07
1.3883e-08
1.91263e-05
-4.3033e-06
3.13268e-05
-1.12716e-05
3.42093e-05
-1.48847e-05
2.84475e-05
-1.50322e-05
1.54217e-05
-1.216e-05
-3.04006e-06
-6.83628e-06
-2.4893e-05
2.78221e-07
-4.80565e-05
8.47176e-06
-7.05839e-05
1.70229e-05
-9.07951e-05
2.52422e-05
-0.000107362
3.25109e-05
-0.000119399
3.83268e-05
-0.000126522
4.23537e-05
-0.000128823
4.44476e-05
-0.000126785
4.46544e-05
-0.000121163
4.31899e-05
-0.000112866
4.03946e-05
-0.000102808
3.6677e-05
-9.17668e-05
3.24448e-05
-8.034e-05
2.80456e-05
-6.77068e-05
2.35396e-05
-5.35868e-05
1.88157e-05
-3.97096e-05
1.41383e-05
-2.72231e-05
9.95555e-06
-1.6585e-05
6.45998e-06
-8.36099e-06
3.71783e-06
-2.98896e-06
1.78642e-06
-3.82081e-07
6.49297e-07
2.98088e-07
1.54785e-07
1.23014e-08
2.09565e-05
-4.81582e-06
3.4807e-05
-1.27561e-05
3.88398e-05
-1.71357e-05
3.38372e-05
-1.7707e-05
2.14419e-05
-1.49945e-05
3.46823e-06
-9.67095e-06
-1.80797e-05
-2.41892e-06
-4.11746e-05
6.02996e-06
-6.39243e-05
1.494e-05
-8.46731e-05
2.36088e-05
-0.000102084
3.13957e-05
-0.000115238
3.77711e-05
-0.000123686
4.23707e-05
-0.000127425
4.50178e-05
-0.000126835
4.57285e-05
-0.000122571
4.46941e-05
-0.000115446
4.22359e-05
-0.000106305
3.87504e-05
-9.58779e-05
3.46443e-05
-8.47027e-05
3.02685e-05
-7.17675e-05
2.56441e-05
-5.66987e-05
2.06061e-05
-4.15549e-05
1.54684e-05
-2.7845e-05
1.08027e-05
-1.62314e-05
6.88962e-06
-7.43787e-06
3.84269e-06
-1.94771e-06
1.74476e-06
4.23374e-07
5.75909e-07
7.43029e-07
1.51963e-07
1.19078e-09
6.65584e-07
-4.11497e-09
3.90807e-06
-2.20592e-08
1.41902e-05
-6.54195e-08
3.53527e-05
-1.02148e-07
6.66199e-05
-5.90556e-08
0.000102272
1.25567e-07
0.000136317
4.78429e-07
0.000166353
8.8662e-07
0.000193246
1.24328e-06
0.00021591
1.47277e-06
0.000233621
1.25839e-06
0.000249587
6.66343e-07
0.000265723
-2.14065e-07
0.000281643
-1.40633e-06
0.000296365
-2.68794e-06
0.000308863
-4.0914e-06
0.000318115
-5.51917e-06
0.000323218
-6.85905e-06
0.000323497
-8.0387e-06
0.000318495
-8.96673e-06
0.000308016
-9.61766e-06
0.000292033
-9.90414e-06
0.000270754
-9.86876e-06
0.000244431
-9.50151e-06
0.000213437
-8.82835e-06
0.000178157
-7.842e-06
0.000138862
-6.56326e-06
9.5869e-05
-5.02091e-06
4.93768e-05
-3.20313e-06
-1.12011e-06
7.15621e-07
-9.13363e-09
4.16921e-06
-4.29195e-08
1.48536e-05
-1.15514e-07
3.63377e-05
-1.64786e-07
6.74211e-05
-4.64602e-08
0.000102319
3.43536e-07
0.000135413
1.01676e-06
0.000164631
1.77104e-06
0.00019089
2.41112e-06
0.000213594
2.75162e-06
0.000231646
2.35895e-06
0.000247877
1.15298e-06
0.000264433
-6.33393e-07
0.000280683
-2.89419e-06
0.000295729
-5.45106e-06
0.000308504
-8.21485e-06
0.000317968
-1.1009e-05
0.000323228
-1.3634e-05
0.000323603
-1.59325e-05
0.000318654
-1.77427e-05
0.000308156
-1.89855e-05
0.000292155
-1.95733e-05
0.000270846
-1.94959e-05
0.000244498
-1.87634e-05
0.000213472
-1.74173e-05
0.000178145
-1.54677e-05
0.000138833
-1.29583e-05
9.58463e-05
-9.91526e-06
4.9357e-05
-6.32808e-06
-2.21394e-06
7.8008e-07
-1.51459e-08
4.47812e-06
-6.47865e-08
1.54843e-05
-1.61478e-07
3.67704e-05
-1.96591e-07
6.65947e-05
3.47054e-08
9.94597e-05
6.42244e-07
0.00013058
1.57602e-06
0.000158368
2.60868e-06
0.000183792
3.40914e-06
0.000206532
3.70556e-06
0.000225221
3.07257e-06
0.000242187
1.25473e-06
0.000259548
-1.41219e-06
0.000276546
-4.672e-06
0.000292275
-8.42716e-06
0.000305649
-1.24545e-05
0.000315629
-1.65064e-05
0.000321324
-2.03081e-05
0.00032206
-2.36267e-05
0.000317402
-2.6233e-05
0.000307116
-2.79924e-05
0.00029128
-2.88491e-05
0.000270102
-2.87228e-05
0.000243861
-2.76353e-05
0.000212924
-2.56481e-05
0.000177678
-2.27875e-05
0.000138465
-1.91029e-05
9.55939e-05
-1.46189e-05
4.92199e-05
-9.33087e-06
-3.26478e-06
8.39843e-07
-2.00471e-08
4.73633e-06
-8.15576e-08
1.57817e-05
-1.86191e-07
3.61109e-05
-1.69861e-07
6.35686e-05
2.05039e-07
9.33588e-05
1.02297e-06
0.000121796
2.12165e-06
0.000147866
3.26913e-06
0.000172414
4.10742e-06
0.000195134
4.24348e-06
0.000214672
3.22722e-06
0.000232775
8.15649e-07
0.000251233
-2.6619e-06
0.000269299
-6.89521e-06
0.000285999
-1.17352e-05
0.000300246
-1.68953e-05
0.000311012
-2.20696e-05
0.000317399
-2.69048e-05
0.000318728
-3.11078e-05
0.000314579
-3.44106e-05
0.000304739
-3.6623e-05
0.000289268
-3.7686e-05
0.000268393
-3.75031e-05
0.000242425
-3.60852e-05
0.000211737
-3.34939e-05
0.000176723
-2.97696e-05
0.000137739
-2.49618e-05
9.50986e-05
-1.91022e-05
4.89627e-05
-1.21903e-05
-4.26432e-06
8.95277e-07
-2.4512e-08
4.92879e-06
-9.04017e-08
1.57172e-05
-1.69899e-07
3.45186e-05
-5.78697e-08
5.90038e-05
4.6784e-07
8.53145e-05
1.43744e-06
0.00011085
2.59419e-06
0.000135088
3.68441e-06
0.000158695
4.4009e-06
0.000181341
4.26122e-06
0.000201769
2.77485e-06
0.000221177
-2.36031e-07
0.000240909
-4.4709e-06
0.000260189
-9.60032e-06
0.000278014
-1.54076e-05
0.000293286
-2.15542e-05
0.000304968
-2.76866e-05
0.000312176
-3.34095e-05
0.000314215
-3.83603e-05
0.000310688
-4.22621e-05
0.000301417
-4.48755e-05
0.000286444
-4.60952e-05
0.000266003
-4.58358e-05
0.000240425
-4.40964e-05
0.000210095
-4.0925e-05
0.00017541
-3.63749e-05
0.000136742
-3.04997e-05
9.4417e-05
-2.33367e-05
4.86086e-05
-1.4888e-05
-5.20627e-06
9.44721e-07
-2.88134e-08
5.00651e-06
-8.91304e-08
1.5196e-05
-1.13533e-07
3.20304e-05
1.19343e-07
5.33043e-05
7.72602e-07
7.61562e-05
1.80101e-06
9.89156e-05
2.91111e-06
0.000121379
3.81628e-06
0.000144042
4.23249e-06
0.000166555
3.69619e-06
0.000187793
1.69814e-06
0.000208489
-1.91862e-06
0.000229508
-6.86591e-06
0.000250006
-1.2784e-05
0.000268957
-1.94211e-05
0.00028527
-2.64118e-05
0.000297887
-3.33451e-05
0.000305944
-3.98177e-05
0.000308767
-4.54104e-05
0.000305949
-4.98084e-05
0.000297328
-5.27472e-05
0.000282948
-5.40749e-05
0.000263038
-5.37083e-05
0.000237939
-5.16389e-05
0.000208046
-4.79076e-05
0.000173771
-4.25721e-05
0.000135496
-3.56893e-05
9.35638e-05
-2.73003e-05
4.81652e-05
-1.74096e-05
-6.08568e-06
9.78779e-07
-3.11851e-08
4.92751e-06
-7.34061e-08
1.42172e-05
-2.40842e-08
2.88508e-05
3.21843e-07
4.69923e-05
1.04551e-06
6.66952e-05
2.03107e-06
8.70091e-05
2.97833e-06
0.000107906
3.58564e-06
0.000129677
3.58467e-06
0.000151988
2.56212e-06
0.000173899
1.82298e-08
0.000195728
-4.18853e-06
0.000217878
-9.78279e-06
0.00023946
-1.63958e-05
0.000259418
-2.37384e-05
0.000276672
-3.14451e-05
0.000290182
-3.90605e-05
0.000299075
-4.61485e-05
0.000302692
-5.2266e-05
0.000300617
-5.7051e-05
0.000292681
-6.02218e-05
0.000278936
-6.16001e-05
0.000259608
-6.10943e-05
0.000235044
-5.86881e-05
0.00020565
-5.44169e-05
0.000171847
-4.83381e-05
0.00013403
-4.05102e-05
9.25585e-05
-3.09768e-05
4.76425e-05
-1.97448e-05
-6.89895e-06
9.85342e-07
-3.05625e-08
4.67679e-06
-4.30837e-08
1.28655e-05
8.48395e-08
2.52978e-05
5.07306e-07
4.0637e-05
1.21962e-06
5.76899e-05
2.05916e-06
7.59808e-05
2.73763e-06
9.55459e-05
2.96098e-06
0.000116508
2.4759e-06
0.000138568
9.0981e-07
0.00016096
-2.19503e-06
0.000183676
-6.96889e-06
0.000206709
-1.31508e-05
0.000229146
-2.03824e-05
0.000249932
-2.83442e-05
0.000267983
-3.66484e-05
0.000282276
-4.48238e-05
0.000291932
-5.23955e-05
0.000296286
-5.89061e-05
0.000294918
-6.39679e-05
0.000287655
-6.7282e-05
0.000274547
-6.86518e-05
0.000255821
-6.79749e-05
0.000231823
-6.52266e-05
0.000202968
-6.04359e-05
0.000169683
-5.36574e-05
0.000132378
-4.4949e-05
9.14227e-05
-3.4356e-05
4.70516e-05
-2.18871e-05
-7.64384e-06
9.57415e-07
-2.6292e-08
4.27572e-06
-2.36238e-09
1.1294e-05
1.88335e-07
2.17326e-05
6.26866e-07
3.47566e-05
1.24226e-06
4.9715e-05
1.85352e-06
6.64028e-05
2.19267e-06
8.48682e-05
1.97606e-06
0.000105131
9.63224e-07
0.000126909
-1.17765e-06
0.000149574
-4.85369e-06
0.000172891
-1.01874e-05
0.000196535
-1.69244e-05
0.000219576
-2.47073e-05
0.000240968
-3.3202e-05
0.000259628
-4.19916e-05
0.000274538
-5.05964e-05
0.000284817
-5.85237e-05
0.000289799
-6.53051e-05
0.000289057
-7.05386e-05
0.000282415
-7.39122e-05
0.000269915
-7.52166e-05
0.000251781
-7.43385e-05
0.000228359
-7.12442e-05
0.000200063
-6.59554e-05
0.000167328
-5.85219e-05
0.000130571
-4.89991e-05
9.01791e-05
-3.74328e-05
4.64042e-05
-2.38335e-05
-8.31942e-06
8.94426e-07
-1.83235e-08
3.779e-06
4.07872e-08
9.69765e-06
2.58423e-07
1.8488e-05
6.43982e-07
2.97233e-05
1.0922e-06
4.30996e-05
1.42144e-06
5.85656e-05
1.38023e-06
7.61633e-05
6.90615e-07
9.58537e-05
-8.8357e-07
0.000117349
-3.63019e-06
0.000140111
-7.89767e-06
0.000163758
-1.37909e-05
0.000187741
-2.10512e-05
0.000211128
-2.93211e-05
0.000232879
-3.82548e-05
0.000251922
-4.74214e-05
0.000267245
-5.63356e-05
0.000277974
-6.44985e-05
0.00028344
-7.14376e-05
0.000283213
-7.67446e-05
0.000277108
-8.01005e-05
0.000265161
-8.12864e-05
0.000247587
-8.01798e-05
0.000224727
-7.67377e-05
0.000196995
-7.09733e-05
0.000164826
-6.29302e-05
0.000128645
-5.26598e-05
8.885e-05
-4.0207e-05
4.57119e-05
-2.55842e-05
-8.92588e-06
8.01642e-07
-7.1178e-09
3.25931e-06
7.69887e-08
8.26064e-06
2.73883e-07
1.58035e-05
5.46471e-07
2.57436e-05
7.80503e-07
3.79846e-05
7.9625e-07
5.25675e-05
3.48785e-07
6.95285e-05
-8.4405e-07
8.87879e-05
-3.01991e-06
0.000110029
-6.41647e-06
0.000132752
-1.12956e-05
0.000156486
-1.7733e-05
0.000180555
-2.54735e-05
0.000204034
-3.41639e-05
0.000225896
-4.34476e-05
0.000245086
-5.28879e-05
0.000260605
-6.19999e-05
0.000271591
-7.02872e-05
0.000277376
-7.72802e-05
0.00027753
-8.25712e-05
0.000271858
-8.58387e-05
0.000260387
-8.68584e-05
0.000243323
-8.54996e-05
0.000220997
-8.17101e-05
0.000193818
-7.54939e-05
0.000162221
-6.6887e-05
0.000126631
-5.59355e-05
8.74572e-05
-4.26826e-05
4.49859e-05
-2.71421e-05
-9.46442e-06
6.87088e-07
6.9401e-09
2.79056e-06
9.79285e-08
7.1243e-06
2.26867e-07
1.38181e-05
3.46861e-07
2.28989e-05
3.40635e-07
3.44002e-05
1.55251e-08
4.84139e-05
-8.76352e-07
6.49635e-05
-2.61628e-06
8.39391e-05
-5.43822e-06
0.00010496
-9.52036e-06
0.000127526
-1.50198e-05
0.000151143
-2.19732e-05
0.000175076
-3.01444e-05
0.000198414
-3.91855e-05
0.000220152
-4.87316e-05
0.000239257
-5.83463e-05
0.000254755
-6.75517e-05
0.000265799
-7.58607e-05
0.00027173
-8.28129e-05
0.000272117
-8.80068e-05
0.000266761
-9.11229e-05
0.000255678
-9.19343e-05
0.000239061
-9.03035e-05
0.00021723
-8.61696e-05
0.000190584
-7.95267e-05
0.000159551
-7.04019e-05
0.000124559
-5.88352e-05
8.60205e-05
-4.48672e-05
4.42366e-05
-2.85126e-05
-9.93703e-06
5.64203e-07
2.2738e-08
2.44979e-06
9.77096e-08
6.39834e-06
1.22539e-07
1.26158e-05
6.52004e-08
2.12329e-05
-2.10851e-07
3.23519e-05
-9.17572e-07
4.60771e-05
-2.30694e-06
6.24121e-05
-4.64442e-06
8.12334e-05
-8.15126e-06
0.000102063
-1.29376e-05
0.000124374
-1.90487e-05
0.000147703
-2.64814e-05
0.00017131
-3.50269e-05
0.0001943
-4.43446e-05
0.000215697
-5.40646e-05
0.000234502
-6.37573e-05
0.000249769
-7.29577e-05
0.000260676
-8.11938e-05
0.000266579
-8.80192e-05
0.000267052
-9.30437e-05
0.00026189
-9.5953e-05
0.000251099
-9.65199e-05
0.000234858
-9.46018e-05
0.000213474
-9.0129e-05
0.000187331
-8.30854e-05
0.000156851
-7.34887e-05
0.000122454
-6.13715e-05
8.45581e-05
-4.67711e-05
4.34734e-05
-2.97028e-05
-1.03464e-05
4.8407e-07
3.15473e-08
2.35346e-06
6.92249e-08
6.23755e-06
-4.31933e-08
1.23377e-05
-3.12478e-07
2.08318e-05
-9.09e-07
3.185e-05
-2.05145e-06
4.55003e-05
-3.98941e-06
6.17831e-05
-6.96838e-06
8.05696e-05
-1.11897e-05
0.000101224
-1.66836e-05
0.000123177
-2.33745e-05
0.000146082
-3.1235e-05
0.000169201
-4.00918e-05
0.000191659
-4.96073e-05
0.000212521
-5.94106e-05
0.000230826
-6.90862e-05
0.000245669
-7.81889e-05
0.000256256
-8.62649e-05
0.000261966
-9.28864e-05
0.000262378
-9.76774e-05
0.00025729
-0.000100332
0.000246695
-0.000100624
0.000230759
-9.84081e-05
0.000209769
-9.36045e-05
0.000184096
-8.61874e-05
0.000154148
-7.61642e-05
0.00012034
-6.35595e-05
8.30856e-05
-4.84067e-05
4.27044e-05
-3.07212e-05
-1.06955e-05
6.92999e-07
-5.32592e-08
2.83421e-06
-1.44836e-08
6.93744e-06
-3.03072e-07
1.31962e-05
-8.53057e-07
2.18025e-05
-1.84023e-06
3.29078e-05
-3.47775e-06
4.66282e-05
-6.00449e-06
6.29826e-05
-9.6516e-06
8.1781e-05
-1.45707e-05
0.000102235
-2.07223e-05
0.000123777
-2.79745e-05
0.000146154
-3.62441e-05
0.000168639
-4.5352e-05
0.000190388
-5.49815e-05
0.000210531
-6.47786e-05
0.000228152
-7.43482e-05
0.000242385
-8.32647e-05
0.000252481
-9.10986e-05
0.000257841
-9.74444e-05
0.000258059
-0.000101944
0.000252931
-0.0001043
0.000242443
-0.000104292
0.000226745
-0.000101768
0.000206105
-9.66415e-05
0.000180873
-8.8876e-05
0.000151443
-7.84679e-05
0.000118217
-6.54333e-05
8.16072e-05
-4.98009e-05
4.19339e-05
-3.15859e-05
-1.09911e-05
2.31385e-05
-5.21004e-06
3.93569e-05
-1.40045e-05
4.53656e-05
-1.93237e-05
4.12569e-05
-2.06176e-05
2.90882e-05
-1.82164e-05
1.10283e-05
-1.29589e-05
-1.09036e-05
-5.65222e-06
-3.46616e-05
2.96374e-06
-5.83451e-05
1.21432e-05
-8.02823e-05
2.11778e-05
-9.90865e-05
2.94146e-05
-0.000113778
3.63047e-05
-0.000123826
4.14568e-05
-0.000129134
4.46613e-05
-0.000129995
4.59042e-05
-0.000126985
4.53496e-05
-0.000120839
4.32945e-05
-0.000112349
4.01184e-05
-0.000102213
3.62192e-05
-9.09405e-05
3.1947e-05
-7.73103e-05
2.72896e-05
-6.08051e-05
2.20166e-05
-4.3868e-05
1.64729e-05
-2.84893e-05
1.13641e-05
-1.55819e-05
7.0748e-06
-6.02699e-06
3.76599e-06
-3.21479e-07
1.53617e-06
1.86064e-06
3.43782e-07
1.82806e-06
-3.82586e-08
-3.76641e-08
7.64503e-07
2.45717e-05
-5.5644e-06
4.26458e-05
-1.50508e-05
5.10733e-05
-2.11891e-05
4.88751e-05
-2.34487e-05
3.75023e-05
-2.17517e-05
1.97049e-05
-1.67425e-05
-2.16193e-06
-9.45864e-06
-2.60971e-05
-7.73583e-07
-5.02355e-05
8.57945e-06
-7.29205e-05
1.78931e-05
-9.27361e-05
2.65013e-05
-0.000108671
3.38391e-05
-0.000120136
3.95012e-05
-0.00012693
4.32498e-05
-0.000129248
4.50348e-05
-0.000127574
4.49898e-05
-0.000122553
4.33853e-05
-0.000114901
4.05804e-05
-0.000105274
3.69617e-05
-9.41644e-05
3.28796e-05
-8.02319e-05
2.83081e-05
-6.26882e-05
2.29276e-05
-4.4271e-05
1.7061e-05
-2.75573e-05
1.15677e-05
-1.36823e-05
6.96337e-06
-3.61256e-06
3.44259e-06
2.24093e-06
1.09522e-06
4.39702e-06
-1.68785e-07
4.29744e-06
-6.27836e-07
-7.10494e-07
3.5546e-06
2.59409e-05
-5.93458e-06
4.54135e-05
-1.60837e-05
5.58365e-05
-2.28254e-05
5.62473e-05
-2.5893e-05
4.678e-05
-2.5203e-05
2.96826e-05
-2.09008e-05
8.01625e-06
-1.38432e-05
-1.58916e-05
-5.18364e-06
-4.02874e-05
4.22471e-06
-6.35484e-05
1.37147e-05
-8.42052e-05
2.26097e-05
-0.000101211
3.03165e-05
-0.000113951
3.64191e-05
-0.000122135
4.06677e-05
-0.000125841
4.29782e-05
-0.000125464
4.34484e-05
-0.000121562
4.23207e-05
-0.000114769
3.99294e-05
-0.000105716
3.665e-05
-9.49391e-05
3.28474e-05
-8.11857e-05
2.85459e-05
-6.29613e-05
2.32669e-05
-4.31792e-05
1.71736e-05
-2.53524e-05
1.13549e-05
-1.06894e-05
6.50864e-06
-1.56732e-07
2.81665e-06
6.02347e-06
3.40459e-07
8.54723e-06
-1.05429e-06
8.84938e-06
-1.65555e-06
-1.87934e-06
8.49183e-06
2.74307e-05
-6.3137e-06
4.82575e-05
-1.71582e-05
6.00846e-05
-2.4477e-05
6.26639e-05
-2.81061e-05
5.594e-05
-2.82547e-05
4.07337e-05
-2.50082e-05
1.97307e-05
-1.86743e-05
-3.94277e-06
-1.02636e-05
-2.8337e-05
-9.16104e-07
-5.19609e-05
8.62608e-06
-7.32593e-05
1.77045e-05
-9.11299e-05
2.5689e-05
-0.000104935
3.21498e-05
-0.000114336
3.68298e-05
-0.000119297
3.96222e-05
-0.000120118
4.05894e-05
-0.00011727
3.99408e-05
-0.000111314
3.7983e-05
-0.000102873
3.50771e-05
-9.25721e-05
3.1599e-05
-7.94779e-05
2.76438e-05
-6.12576e-05
2.2683e-05
-4.05564e-05
1.66739e-05
-2.18227e-05
1.07005e-05
-6.48353e-06
5.64971e-06
4.56896e-06
1.79596e-06
1.13755e-05
-8.40882e-07
1.47386e-05
-2.4349e-06
1.60206e-05
-3.26399e-06
-3.72489e-06
1.66026e-05
2.90481e-05
-6.70083e-06
5.13856e-05
-1.82621e-05
6.45871e-05
-2.62071e-05
6.86908e-05
-3.03795e-05
6.42975e-05
-3.11028e-05
5.18949e-05
-2.8739e-05
3.2753e-05
-2.34943e-05
9.86565e-06
-1.58657e-05
-1.42598e-05
-6.83653e-06
-3.80066e-05
2.65247e-06
-5.96835e-05
1.17997e-05
-7.81714e-05
1.9946e-05
-9.27935e-05
2.66659e-05
-0.000103172
3.16911e-05
-0.000109203
3.48994e-05
-0.000111074
3.63234e-05
-0.000109171
3.61351e-05
-0.000103995
3.46102e-05
-9.61457e-05
3.20842e-05
-8.62735e-05
2.89066e-05
-7.36269e-05
2.51399e-05
-5.6103e-05
2.04396e-05
-3.57269e-05
1.48745e-05
-1.66634e-05
9.22476e-06
-7.96758e-07
4.22635e-06
1.09274e-05
2.57324e-07
1.86419e-05
-2.58379e-06
2.31982e-05
-4.42976e-06
2.58441e-05
-5.54628e-06
-6.30593e-06
2.76803e-05
3.08147e-05
-7.09493e-06
5.4817e-05
-1.93925e-05
6.95907e-05
-2.79974e-05
7.51982e-05
-3.27763e-05
7.24882e-05
-3.40588e-05
6.25126e-05
-3.2303e-05
4.6097e-05
-2.79437e-05
2.50479e-05
-2.13504e-05
1.82561e-06
-1.31165e-05
-2.15968e-05
-4.06456e-06
-4.33554e-05
4.94741e-06
-6.21558e-05
1.31354e-05
-7.73085e-05
1.99959e-05
-8.83871e-05
2.52626e-05
-9.52454e-05
2.87975e-05
-9.79837e-05
3.06153e-05
-9.69109e-05
3.08574e-05
-9.24579e-05
2.97609e-05
-8.51676e-05
2.76213e-05
-7.56145e-05
2.47442e-05
-6.2983e-05
2.1142e-05
-4.62559e-05
1.6625e-05
-2.72643e-05
1.14858e-05
-8.9513e-06
6.39032e-06
6.95322e-06
1.79413e-06
1.93661e-05
-2.06532e-06
2.81377e-05
-5.04013e-06
3.4027e-05
-7.1466e-06
3.8166e-05
-8.57565e-06
-9.65293e-06
4.13644e-05
3.27499e-05
-7.49369e-06
5.85886e-05
-2.05424e-05
7.51154e-05
-2.98354e-05
8.24461e-05
-3.52644e-05
8.14139e-05
-3.71788e-05
7.32612e-05
-3.60288e-05
5.92427e-05
-3.23203e-05
4.05867e-05
-2.6538e-05
1.92636e-05
-1.92575e-05
-2.91285e-06
-1.11055e-05
-2.42346e-05
-2.65936e-06
-4.30123e-05
5.34454e-06
-5.83811e-05
1.22281e-05
-6.98581e-05
1.76252e-05
-7.72737e-05
2.13881e-05
-8.06869e-05
2.35255e-05
-8.0344e-05
2.41573e-05
-7.65881e-05
2.34801e-05
-6.98938e-05
2.17447e-05
-6.07469e-05
1.9219e-05
-4.8397e-05
1.59314e-05
-3.24644e-05
1.17512e-05
-1.49146e-05
7.00785e-06
2.05234e-06
2.36539e-06
1.73647e-05
-1.80599e-06
3.01318e-05
-5.4021e-06
3.99836e-05
-8.35908e-06
4.72652e-05
-1.06633e-05
5.28678e-05
-1.23973e-05
-1.37872e-05
5.7352e-05
3.48693e-05
-7.89283e-06
6.27283e-05
-2.16992e-05
8.11992e-05
-3.17007e-05
9.04528e-05
-3.78171e-05
9.13419e-05
-4.04193e-05
8.50666e-05
-3.99688e-05
7.30363e-05
-3.69634e-05
5.65983e-05
-3.19155e-05
3.75587e-05
-2.54414e-05
1.74063e-05
-1.81684e-05
-2.66533e-06
-1.05353e-05
-2.08758e-05
-3.07597e-06
-3.60546e-05
3.55726e-06
-4.76429e-05
8.9339e-06
-5.53533e-05
1.28285e-05
-5.92543e-05
1.52029e-05
-5.95327e-05
1.61669e-05
-5.64603e-05
1.58803e-05
-5.04423e-05
1.45537e-05
-4.19127e-05
1.24212e-05
-3.03641e-05
9.53805e-06
-1.55971e-05
5.83503e-06
5.32355e-07
1.6192e-06
1.61625e-05
-2.54229e-06
3.05625e-05
-6.33558e-06
4.31895e-05
-9.66398e-06
5.38056e-05
-1.25015e-05
6.24262e-05
-1.48806e-05
6.95804e-05
-1.68701e-05
-1.8611e-05
7.54768e-05
3.71833e-05
-8.28674e-06
6.7255e-05
-2.28465e-05
8.78687e-05
-3.35682e-05
9.92593e-05
-4.0404e-05
0.000102297
-4.37442e-05
9.81773e-05
-4.40547e-05
8.82681e-05
-4.18318e-05
7.40149e-05
-3.75992e-05
5.71238e-05
-3.1934e-05
3.90472e-05
-2.54211e-05
2.07739e-05
-1.85405e-05
3.81557e-06
-1.17808e-05
-1.06828e-05
-5.63494e-06
-2.20049e-05
-4.96115e-07
-2.96978e-05
3.34286e-06
-3.38855e-05
5.83168e-06
-3.46502e-05
7.0513e-06
-3.2216e-05
7.1046e-06
-2.69288e-05
6.16832e-06
-1.91887e-05
4.44643e-06
-8.7371e-06
2.02176e-06
4.49801e-06
-1.12446e-06
1.89959e-05
-4.74158e-06
3.32413e-05
-8.36747e-06
4.66011e-05
-1.1729e-05
5.87018e-05
-1.47425e-05
6.9442e-05
-1.73909e-05
7.89176e-05
-1.97156e-05
8.74394e-05
-2.17922e-05
-2.36994e-05
9.46929e-05
3.96978e-05
-8.66863e-06
7.21815e-05
-2.39665e-05
9.5144e-05
-3.54098e-05
0.000108883
-4.2982e-05
0.000114288
-4.70895e-05
0.000112545
-4.82021e-05
0.000105008
-4.68172e-05
9.3131e-05
-4.34539e-05
7.84608e-05
-3.86572e-05
6.2403e-05
-3.29616e-05
4.60639e-05
-2.68468e-05
3.07169e-05
-2.07807e-05
1.73232e-05
-1.51931e-05
6.71803e-06
-1.04504e-05
-6.04908e-07
-6.82732e-06
-4.8056e-06
-4.36668e-06
-5.90022e-06
-2.99888e-06
-4.01322e-06
-2.67252e-06
5.45073e-07
-3.26222e-06
7.40434e-06
-4.58588e-06
1.66065e-05
-6.53858e-06
2.81418e-05
-9.09589e-06
4.08801e-05
-1.20699e-05