/*--------------------------------*- C++ -*----------------------------------*\
| =========                 |                                                 |
| \\      /  F ield         | OpenFOAM: The Open Source CFD Toolbox           |
|  \\    /   O peration     | Version:  dev                                   |
|   \\  /    A nd           | Web:      www.OpenFOAM.org                      |
|    \\/     M anipulation  |                                                 |
\*---------------------------------------------------------------------------*/
FoamFile
{
    version     2.0;
    format      ascii;
    class       volScalarField;
    location    "1.03";
    object      p;
}
// * * * * * * * * * * * * * * * * * * * * * * * * * * * * * * * * * * * * * //

dimensions      [0 2 -2 0 0 0 0];

internalField   nonuniform List<scalar> 
2790
(
177.619
177.465
177.629
178.09
178.74
179.529
180.448
181.499
182.678
183.98
185.403
186.941
188.592
190.353
192.217
194.178
196.226
198.349
200.528
202.743
204.964
207.157
209.28
211.286
213.122
214.732
216.062
217.062
217.693
217.961
177.456
177.396
177.581
178.04
178.688
179.474
180.391
181.437
182.61
183.906
185.321
186.852
188.494
190.244
192.097
194.047
196.084
198.195
200.364
202.569
204.784
206.975
209.102
211.119
212.973
214.608
215.97
217.007
217.673
218.145
177.296
177.309
177.512
177.962
178.599
179.376
180.282
181.315
182.472
183.75
185.144
186.651
188.266
189.985
191.803
193.713
195.706
197.769
199.887
202.039
204.199
206.337
208.415
210.392
212.219
213.848
215.233
216.345
217.162
217.865
177.127
177.177
177.392
177.834
178.46
179.226
180.117
181.133
182.269
183.523
184.889
186.363
187.94
189.616
191.385
193.239
195.169
197.162
199.202
201.27
203.34
205.385
207.37
209.257
211.003
212.566
213.906
214.99
215.757
216.178
176.938
177.007
177.233
177.67
178.284
179.034
179.907
180.9
182.01
183.233
184.563
185.995
187.524
189.146
190.853
192.637
194.487
196.391
198.333
200.292
202.246
204.166
206.02
207.772
209.382
210.806
211.993
212.877
213.35
213.014
176.727
176.805
177.037
177.468
178.067
178.798
179.648
180.614
181.692
182.878
184.165
185.548
187.021
188.578
190.212
191.914
193.672
195.472
197.298
199.129
200.942
202.709
204.398
205.971
207.387
208.591
209.512
210.036
210.084
208.758
176.49
176.573
176.806
177.228
177.811
178.52
179.344
180.279
181.32
182.462
183.7
185.026
186.435
187.919
189.47
191.079
192.732
194.415
196.11
197.795
199.447
201.035
202.526
203.879
205.044
205.954
206.52
206.568
206.157
203.814
176.228
176.312
176.543
176.954
177.517
178.202
178.996
179.895
180.894
181.988
183.171
184.434
185.771
187.173
188.633
190.138
191.675
193.228
194.778
196.301
197.772
199.158
200.421
201.515
202.379
202.933
203.077
202.574
201.714
198.427
175.939
176.022
176.248
176.645
177.188
177.845
178.606
179.465
180.419
181.46
182.581
183.774
185.032
186.346
187.706
189.098
190.509
191.92
193.312
194.658
195.929
197.09
198.096
198.894
199.413
199.56
199.231
198.12
196.813
192.648
175.625
175.706
175.923
176.305
176.825
177.452
178.176
178.993
179.896
180.879
181.934
183.053
184.226
185.444
186.695
187.967
189.242
190.501
191.722
192.876
193.93
194.843
195.566
196.034
196.168
195.857
195.005
193.225
191.431
186.378
175.287
175.363
175.57
175.935
176.43
177.025
177.71
178.48
179.329
180.25
181.235
182.273
183.356
184.472
185.61
186.753
187.883
188.981
190.019
190.968
191.788
192.435
192.848
192.955
192.661
191.841
190.404
187.871
185.479
179.409
174.925
174.997
175.192
175.537
176.004
176.565
177.208
177.929
178.721
179.577
180.487
181.441
182.428
183.438
184.455
185.463
186.443
187.37
188.217
188.948
189.521
189.882
189.963
189.677
188.916
187.528
185.421
182.009
178.804
171.394
174.54
174.606
174.788
175.113
175.551
176.075
176.674
177.343
178.076
178.863
179.695
180.561
181.449
182.348
183.24
184.109
184.931
185.682
186.329
186.834
187.148
187.209
186.938
186.233
184.965
182.945
180.056
175.588
171.181
161.752
174.135
174.195
174.362
174.664
175.072
175.558
176.111
176.726
177.396
178.112
178.864
179.639
180.425
181.209
181.973
182.698
183.36
183.929
184.372
184.645
184.693
184.445
183.81
182.668
180.861
178.154
174.362
168.607
162.356
149.434
173.71
173.763
173.914
174.193
174.569
175.016
175.522
176.081
176.687
177.33
177.999
178.681
179.363
180.03
180.664
181.243
181.741
182.128
182.365
182.404
182.184
181.626
180.626
179.047
176.699
173.289
168.52
161.291
152.354
132.406
86.0725
85.9186
85.5723
85.0123
84.2204
83.2005
81.9561
80.4668
78.7168
76.6859
74.3555
71.683
68.6617
65.3427
61.7672
57.9819
54.046
50.0279
46.0017
42.045
38.2381
34.6495
31.2931
28.1348
25.1416
22.2729
19.3716
15.9446
11.4167
4.93536
86.0379
85.8977
85.5711
85.0311
84.2611
83.2539
82.0132
80.5286
78.775
76.7351
74.3842
71.6953
68.668
65.3378
61.7461
57.9421
53.9861
49.9473
45.9001
41.9212
38.0873
34.4612
31.059
27.8503
24.7945
21.8351
18.8145
15.3302
10.7456
4.27121
86.0858
85.9736
85.6654
85.143
84.3799
83.3729
82.1331
80.6435
78.8754
76.8094
74.4239
71.7015
68.6464
65.2867
61.662
57.8227
53.8298
49.7531
45.6675
41.649
37.7688
34.0827
30.6148
27.341
24.2096
21.1455
17.9911
14.4271
9.90451
3.71517
86.2452
86.1649
85.8691
85.3501
84.5863
83.5795
82.3279
80.8131
79.0102
76.8985
74.459
71.6806
68.5698
65.1515
61.4643
57.5591
53.4979
49.3517
45.1968
41.1091
37.1563
33.3894
29.8382
26.4858
23.2774
20.1273
16.8863
13.2953
8.90886
3.21723
86.5124
86.4525
86.1649
85.6419
84.8718
83.8518
82.5743
81.021
79.1687
76.9966
74.488
71.6361
68.4486
64.9497
61.1777
57.1842
53.0324
48.7946
44.5486
40.3709
36.3278
32.4669
28.819
25.3796
22.0982
18.8869
15.6086
12.0466
7.86098
2.75606
86.8528
86.8148
86.5296
85.9941
85.2048
84.1594
82.8465
81.2461
79.3347
77.0911
74.5007
71.5588
68.2744
64.6718
60.7899
56.6815
52.4115
48.0547
43.6914
39.4007
35.2511
31.2906
27.5466
24.0282
20.696
17.4631
14.2039
10.7319
6.80752
2.32388
87.2413
87.2297
86.9266
86.3651
85.5488
84.4733
83.1219
81.471
79.4952
77.1732
74.4912
71.446
68.0479
64.3223
60.3093
56.0636
51.6529
47.1551
42.6535
38.2311
33.9607
29.8948
26.0625
22.4776
19.1144
15.8986
12.7105
9.38449
5.77087
1.91732
87.6477
87.6422
87.3064
86.7158
85.8752
84.7735
83.3868
81.6865
79.6451
77.2405
74.4597
71.3007
67.775
63.9095
59.7466
55.3439
50.7722
46.1131
41.4544
36.8838
32.4807
28.3053
24.3923
20.7568
17.3874
14.2253
11.1551
8.02543
4.76194
1.53421
88.01
88.0019
87.6315
87.0213
86.1691
85.0524
83.6384
81.8934
79.7875
77.2981
74.4125
71.1304
67.4649
63.4454
59.1171
54.5408
49.7911
44.9539
40.1219
35.389
30.8425
26.5525
22.5638
18.8949
15.5457
12.4692
9.55751
6.66833
3.78614
1.17241
88.2813
88.2707
87.8817
87.2749
86.4327
85.3174
83.8869
82.1027
79.9335
77.3567
74.3605
70.9465
67.131
62.9461
58.4401
53.6772
48.7357
43.706
38.6868
33.7789
29.0787
24.6687
20.6079
16.9244
13.6177
10.6521
7.93342
5.32232
2.84581
0.830377
88.424
88.4284
88.0589
87.4917
86.6875
85.5918
84.1547
82.3347
80.1005
77.4312
74.3175
70.764
66.7901
62.431
57.7381
52.7787
47.6347
42.4013
37.1834
32.0899
27.2274
22.6918
18.5586
14.8688
11.6213
8.79291
6.29597
3.99434
1.94193
0.506938
88.4091
88.4776
88.1928
87.7117
86.9756
85.9145
84.4747
82.6157
80.3093
77.5389
74.2998
70.5995
66.4606
61.9212
57.0356
51.8735
46.5198
41.0744
35.649
30.3609
25.3271
20.6574
16.444
12.747
9.57864
6.91321
4.658
2.69092
1.07544
0.201182
88.2061
88.4529
88.3484
88.0028
87.3593
86.3369
84.8858
82.9738
80.5808
77.6975
74.3238
70.4698
66.1609
61.438
56.3575
50.9906
45.4239
39.762
34.1231
28.6326
23.4179
18.6035
14.301
10.5952
7.51988
5.02999
3.03181
1.41914
0.248052
-0.0873542
87.7458
88.449
88.6376
88.461
87.9163
86.9161
85.4258
83.4335
80.9324
77.9206
74.403
70.3891
65.9075
61.0015
55.7286
50.1599
44.3814
38.5029
32.6483
26.9511
21.5479
16.58
12.1796
8.45424
5.45814
3.14727
1.43238
0.188508
-0.536409
-0.35805
86.7751
88.6778
89.2406
89.2384
88.7505
87.7042
86.1136
83.9964
81.3578
78.2018
74.5374
70.3657
65.7115
60.6273
55.1703
49.4093
43.425
37.3353
31.2686
25.366
19.7688
14.6376
10.1246
6.35744
3.41747
1.30414
-0.110249
-0.986652
-1.26981
-0.608549
173.258
173.304
173.439
173.692
174.036
174.441
174.897
175.398
175.937
176.505
177.088
177.673
178.247
178.794
179.294
179.724
180.056
180.257
180.285
180.09
179.602
178.738
177.383
175.384
172.527
168.476
162.817
154.252
142.252
106.122
172.775
172.813
172.93
173.157
173.465
173.826
174.23
174.671
175.14
175.628
176.122
176.608
177.071
177.494
177.857
178.135
178.298
178.311
178.131
177.703
176.956
175.8
174.119
171.755
168.492
164.007
157.905
149.114
138.262
126.825
172.263
172.293
172.392
172.59
172.861
173.177
173.527
173.904
174.302
174.708
175.11
175.494
175.844
176.142
176.366
176.491
176.486
176.315
175.932
175.281
174.292
172.876
170.921
168.282
164.781
160.186
154.333
146.937
139.06
133.697
171.723
171.746
171.824
171.993
172.226
172.495
172.789
173.102
173.425
173.748
174.057
174.338
174.573
174.745
174.832
174.805
174.636
174.286
173.711
172.855
171.651
170.017
167.853
165.047
161.472
157.005
151.619
145.263
138.072
130.83
171.157
171.17
171.229
171.368
171.561
171.781
172.018
172.265
172.513
172.752
172.968
173.144
173.265
173.313
173.264
173.09
172.763
172.245
171.492
170.453
169.067
167.262
164.96
162.076
158.531
154.258
149.242
143.445
136.812
129.976
170.564
170.57
170.607
170.715
170.868
171.039
171.218
171.399
171.571
171.724
171.846
171.92
171.928
171.854
171.673
171.359
170.883
170.209
169.298
168.102
166.568
164.64
162.255
159.357
155.894
151.83
147.158
141.899
136.103
130.257
169.948
169.945
169.961
170.037
170.149
170.271
170.392
170.505
170.601
170.67
170.699
170.671
170.569
170.377
170.07
169.624
169.01
168.196
167.147
165.821
164.174
162.162
159.74
156.869
153.519
149.676
145.354
140.598
135.474
130.267
169.31
169.298
169.293
169.337
169.407
169.479
169.542
169.588
169.608
169.594
169.532
169.405
169.197
168.892
168.466
167.897
167.159
166.222
165.055
163.625
161.896
159.833
157.406
154.59
151.371
147.749
143.746
139.406
134.78
130.064
168.652
168.63
168.604
168.616
168.645
168.667
168.672
168.651
168.597
168.502
168.351
168.129
167.82
167.408
166.872
166.191
165.342
164.299
163.036
161.524
159.738
157.65
155.242
152.499
149.416
146.003
142.283
138.294
134.081
129.796
167.977
167.946
167.897
167.877
167.866
167.839
167.786
167.7
167.574
167.4
167.164
166.85
166.446
165.935
165.298
164.517
163.571
162.438
161.097
159.525
157.701
155.61
153.237
150.576
147.63
144.41
140.941
137.256
133.394
129.474
167.288
167.246
167.176
167.124
167.073
166.997
166.888
166.739
166.544
166.294
165.976
165.577
165.084
164.481
163.754
162.884
161.854
160.647
159.244
157.628
155.786
153.705
151.378
148.804
145.99
142.948
139.701
136.278
132.713
129.099
166.587
166.535
166.444
166.36
166.27
166.147
165.984
165.774
165.513
165.19
164.795
164.316
163.741
163.056
162.247
161.3
160.199
158.931
157.481
155.837
153.988
151.928
149.654
147.169
144.479
141.599
138.548
135.353
132.039
128.684
165.878
165.817
165.704
165.59
165.461
165.293
165.077
164.81
164.485
164.094
163.628
163.075
162.425
161.666
160.785
159.771
158.611
157.294
155.81
154.149
152.304
150.273
148.056
145.656
143.083
140.349
137.472
134.474
131.376
128.242
165.165
165.094
164.96
164.817
164.651
164.44
164.174
163.852
163.467
163.013
162.48
161.86
161.142
160.317
159.374
158.303
157.095
155.74
154.232
152.563
150.73
148.733
146.574
144.257
141.791
139.189
136.465
133.639
130.728
127.785
164.451
164.37
164.217
164.045
163.845
163.592
163.28
162.905
162.465
161.952
161.359
160.678
159.9
159.016
158.02
156.901
155.653
154.27
152.746
151.077
149.262
147.302
145.199
142.96
140.593
138.11
135.522
132.847
130.098
127.322
163.741
163.651
163.478
163.28
163.047
162.755
162.398
161.976
161.485
160.918
160.27
159.533
158.702
157.768
156.726
155.568
154.289
152.885
151.352
149.689
147.895
145.973
143.926
141.76
139.484
137.106
134.64
132.097
129.491
126.859
163.04
162.941
162.75
162.526
162.261
161.933
161.536
161.069
160.531
159.916
159.218
158.433
157.554
156.577
155.496
154.306
153.004
151.586
150.05
148.396
146.626
144.742
142.748
140.65
138.456
136.174
133.815
131.389
128.908
126.403
162.352
162.245
162.036
161.789
161.495
161.133
160.698
160.191
159.61
158.951
158.209
157.381
156.462
155.448
154.335
153.119
151.799
150.372
148.837
147.196
145.451
143.604
141.661
139.625
137.506
135.31
133.046
130.724
128.352
125.96
161.683
161.567
161.342
161.073
160.752
160.359
159.89
159.346
158.727
158.028
157.248
156.382
155.428
154.383
153.244
152.008
150.675
149.243
147.713
146.087
144.367
142.556
140.66
138.682
136.63
134.511
132.332
130.101
127.827
125.534
161.037
160.913
160.674
160.384
160.038
159.618
159.118
158.541
157.887
157.154
156.339
155.442
154.458
153.387
152.227
150.976
149.633
148.201
146.678
145.067
143.372
141.596
139.743
137.817
135.826
133.775
131.672
129.522
127.334
125.128
160.42
160.289
160.036
159.728
159.36
158.914
158.386
157.78
157.095
156.332
155.489
154.563
153.555
152.463
151.285
150.023
148.675
147.244
145.729
144.135
142.464
140.72
138.907
137.029
135.093
133.103
131.066
128.988
126.876
124.747
159.838
159.701
159.435
159.11
158.722
158.253
157.701
157.069
156.358
155.569
154.7
153.752
152.723
151.613
150.423
149.152
147.802
146.373
144.868
143.29
141.642
139.928
138.151
136.316
134.428
132.493
130.515
128.5
126.455
124.393
159.298
159.155
158.878
158.537
158.131
157.642
157.068
156.413
155.68
154.868
153.978
153.01
151.965
150.841
149.641
148.364
147.013
145.589
144.094
142.532
140.906
139.219
137.475
135.678
133.833
131.945
130.019
128.06
126.072
124.069
158.806
158.656
158.369
158.014
157.592
157.086
156.493
155.819
155.066
154.236
153.328
152.344
151.285
150.151
148.943
147.663
146.313
144.894
143.409
141.861
140.255
138.592
136.878
135.115
133.308
131.461
129.58
127.669
125.732
123.78
158.368
158.213
157.915
157.548
157.112
156.59
155.982
155.291
154.522
153.676
152.754
151.757
150.687
149.545
148.332
147.05
145.701
144.288
142.813
141.279
139.69
138.049
136.36
134.626
132.852
131.041
129.199
127.328
125.434
123.525
157.991
157.831
157.524
157.145
156.696
156.162
155.541
154.837
154.054
153.195
152.262
151.255
150.177
149.029
147.812
146.53
145.183
143.775
142.309
140.787
139.214
137.592
135.925
134.216
132.47
130.69
128.88
127.044
125.186
123.314
157.685
157.518
157.2
156.81
156.351
155.806
155.173
154.458
153.665
152.797
151.854
150.84
149.756
148.603
147.385
146.102
144.758
143.356
141.897
140.386
138.826
137.22
135.571
133.883
132.159
130.403
128.619
126.811
124.982
123.139
157.46
157.282
156.951
156.552
156.086
155.533
154.892
154.169
153.368
152.492
151.543
150.523
149.435
148.28
147.06
145.779
144.437
143.04
141.588
140.086
138.537
136.943
135.31
133.638
131.933
130.197
128.435
126.65
124.845
123.027
157.329
157.122
156.772
156.366
155.895
155.338
154.692
153.963
153.157
152.277
151.324
150.302
149.211
148.054
146.835
145.554
144.215
142.821
141.374
139.878
138.336
136.751
135.127
133.467
131.773
130.051
128.302
126.531
124.74
122.935
157.328
157.067
156.694
156.281
155.806
155.244
154.593
153.861
153.053
152.171
151.216
150.193
149.102
147.946
146.728
145.45
144.114
142.724
141.283
139.793
138.258
136.681
135.065
133.414
131.731
130.018
128.28
126.521
124.742
122.948
17.191
42.4767
68.1323
116.862
113.928
109.333
124.693
117.157
111.518
121.507
115.888
112.247
123.233
118.958
115.654
124.81
121.115
117.992
125.451
122.171
119.347
125.76
122.835
120.296
125.913
123.268
120.962
125.924
123.499
121.384
125.82
123.576
121.621
125.633
123.541
121.722
125.386
123.423
121.721
125.096
123.246
121.645
124.778
123.026
121.514
124.444
122.779
121.345
124.102
122.514
121.15
123.76
122.242
120.939
123.424
121.968
120.72
123.099
121.698
120.5
122.79
121.439
120.284
122.5
121.193
120.076
122.233
120.965
119.882
121.993
120.76
119.706
121.781
120.578
119.549
121.608
120.43
119.421
121.461
120.305
119.314
121.376
120.236
119.257
121.298
120.171
119.204
121.331
120.216
119.254
89.1955
89.9151
90.1127
90.4592
89.9703
88.7517
86.9699
84.6702
81.8582
78.5358
74.7101
70.3824
65.5706
60.3253
54.7088
48.7675
42.5834
36.2924
30.023
23.9233
18.1268
12.821
8.17702
4.34649
1.4369
-0.512243
-1.63939
-2.11682
-1.95726
-0.839692
100.678
94.8902
93.9246
93.2211
91.8484
90.0787
87.9667
85.4268
82.4114
78.908
74.9153
70.4351
65.4824
60.0971
54.3322
48.2338
41.893
35.4367
28.9984
22.6961
16.6905
11.197
6.40002
2.47245
-0.465945
-2.30475
-3.12789
-3.17528
-2.58135
-1.04661
104.331
98.4522
96.4846
95.2177
93.5238
91.4196
88.9739
86.1594
82.93
79.2524
75.1092
70.4959
65.4236
59.9237
54.0421
47.8326
41.3831
34.8069
28.2253
21.7543
15.5923
9.94317
4.99579
0.912351
-2.1035
-3.90527
-4.53336
-4.1609
-3.09364
-1.22871
107.312
102.024
98.9463
96.7078
94.5112
92.1791
89.6033
86.6622
83.2956
79.4884
75.2333
70.5249
65.37
59.7946
53.841
47.5657
41.0511
34.4029
27.7392
21.1905
14.9445
9.19494
4.12252
-0.0928512
-3.19589
-5.04137
-5.53053
-4.83108
-3.48992
-1.43251
110.955
105.725
101.699
98.4522
95.5505
92.763
89.9156
86.8365
83.3987
79.5383
75.234
70.4839
65.2972
59.6977
53.725
47.4351
40.9069
34.2421
27.5604
20.9996
14.734
8.95444
3.85314
-0.371375
-3.48766
-5.34876
-5.90664
-5.35161
-3.88873
-1.61689
113.708
108.755
104.259
100.319
96.8029
93.5101
90.2662
86.9184
83.3348
79.4159
75.0998
70.359
65.1936
59.6243
53.6889
47.4418
40.9588
34.3385
27.7001
21.1832
14.9558
9.20635
4.13362
-0.0585115
-3.16597
-5.05244
-5.69556
-5.23289
-3.79664
-1.70564
115.595
111.056
106.449
102.133
98.1871
94.4724
90.8404
87.1706
83.3567
79.3049
74.9394
70.2093
65.0921
59.5936
53.7432
47.5914
41.21
34.6933
28.1572
21.7398
15.6037
9.93221
4.92041
0.764813
-2.35215
-4.30822
-5.08178
-4.77248
-3.54167
-1.75945
116.972
112.814
108.287
103.83
99.6327
95.6201
91.6774
87.7152
83.6555
79.424
74.9536
70.1914
65.1036
59.6805
53.9374
47.9144
41.6755
35.3082
28.9227
22.6517
16.6503
11.0926
6.16316
2.04479
-1.10013
-3.16367
-4.12456
-4.0662
-3.14913
-1.73136
117.964
114.138
109.791
105.353
101.062
96.8843
92.7376
88.5592
84.2962
79.8947
75.3029
70.4768
65.3851
60.0138
54.3691
48.4798
42.3993
36.205
29.9979
23.9016
18.0605
12.6357
7.79714
3.71038
0.518423
-1.68502
-2.88105
-3.13969
-2.60226
-1.6052
118.647
115.112
110.989
106.671
102.404
98.1808
93.9409
89.6414
85.2494
80.7288
76.0427
71.1584
66.0527
60.7147
55.1493
49.3799
43.4508
37.4292
31.4047
25.4887
19.8122
14.5206
9.76608
5.69551
2.43317
0.0597592
-1.4077
-2.027
-1.91809
-1.38844
119.099
115.82
111.93
107.783
103.617
99.439
95.2006
90.8721
86.4339
81.8638
77.1371
72.2315
67.1318
61.8328
56.3417
50.6807
44.8896
39.0273
33.1729
27.4249
21.8993
16.7244
12.0338
7.95512
4.59517
2.02311
0.254653
-0.757452
-1.11386
-1.08924
119.382
116.327
112.662
108.706
104.685
100.611
96.4444
92.1617
87.7519
83.2021
78.4965
73.6207
68.5662
63.3326
57.9301
52.3812
46.723
41.0086
35.3083
29.7088
24.3115
19.2279
14.5735
10.4575
6.9711
4.17307
2.07797
0.647601
-0.202
-0.712343
119.538
116.682
113.226
109.463
105.606
101.672
97.6219
93.4378
89.1134
84.6415
80.0124
75.2171
70.2514
65.1186
59.8307
54.41
48.8912
43.3226
37.7666
32.2995
27.0091
21.9918
17.3463
13.1654
9.52629
6.47895
4.03674
2.16907
0.806096
-0.259525
119.599
116.92
113.656
110.078
106.392
102.612
98.7041
94.6509
90.4492
86.0956
81.5843
76.9094
72.0697
67.0703
61.9237
56.6511
51.2844
45.8666
40.4528
35.1092
29.9117
24.9427
20.2859
16.0198
12.2095
8.89762
6.09627
3.78127
1.89478
0.265751
119.588
117.067
113.978
110.576
107.056
103.435
99.6787
95.7723
91.7136
87.5017
83.1332
78.6043
73.9152
69.0719
64.0862
58.9776
53.7741
48.5133
43.2429
38.0195
32.9077
27.9772
23.2985
18.9373
14.9483
11.3676
8.20644
5.44579
3.03808
0.850515
119.526
117.144
114.215
110.975
107.614
104.147
100.544
96.7886
92.8805
88.8201
84.6055
80.2341
75.707
71.0303
66.2147
61.2769
56.2413
51.1398
46.0125
40.907
35.8773
30.9814
26.2777
21.8208
17.6561
13.8139
10.3041
7.11193
4.19823
1.46852
119.424
117.167
114.382
111.292
108.078
104.759
101.303
97.6967
93.9382
90.0295
85.9693
81.756
77.3915
72.8813
68.2345
63.4654
58.5943
53.6477
48.6587
43.6663
38.7149
33.8516
29.1242
24.5771
20.2474
16.1597
12.3224
8.72359
5.33056
2.08426
119.296
117.148
114.493
111.54
108.463
105.281
101.965
98.4994
94.8842
91.1209
87.209
83.1477
78.939
74.5873
70.1004
65.4902
60.7733
55.9712
51.1105
46.2228
41.3435
36.5103
31.7614
27.132
22.6517
18.3397
14.2024
10.2294
6.39217
2.66159
119.149
117.099
114.56
111.73
108.779
105.723
102.536
99.2023
95.7209
92.0937
88.3204
84.4008
80.3364
76.1308
71.7905
67.3249
62.7475
58.0753
53.3294
48.5346
43.7187
38.9114
34.1422
29.4385
24.8228
20.3096
15.9024
11.5913
7.3503
3.17268
118.993
117.027
114.592
111.874
109.035
106.095
103.026
99.8125
96.4541
92.9517
89.3056
85.5154
81.5821
77.5083
73.2991
68.962
64.5075
59.9488
55.3023
50.5872
45.8247
41.0375
36.2481
31.4769
26.7403
22.0481
17.4012
12.7891
8.18707
3.60318
118.832
116.941
114.598
111.979
109.242
106.405
103.442
100.338
97.0909
93.7017
90.1706
86.4968
82.6806
78.7239
74.6303
70.4055
66.0574
61.596
57.0337
52.3849
47.6655
42.8924
38.082
33.2489
28.4044
23.5542
18.6963
13.8192
8.89904
3.95189
118.673
116.847
114.585
112.054
109.407
106.662
103.794
100.787
97.64
94.3521
90.9234
87.353
83.6403
79.7864
75.7935
71.6657
67.4086
63.0295
58.5373
53.9427
49.2571
44.4925
39.6604
34.7707
29.8302
24.841
19.7988
14.691
9.49413
4.22736
118.521
116.749
114.558
112.105
109.537
106.874
104.089
101.169
98.1092
94.9105
91.5721
88.0923
84.4702
80.7056
76.7997
72.7549
68.575
64.2647
59.8305
55.2795
50.6197
45.8591
41.0052
36.0639
31.0385
25.928
20.7262
15.4195
9.98493
4.44149
118.38
116.656
114.525
112.14
109.641
107.048
104.336
101.491
98.5078
95.3869
92.127
88.726
85.1819
81.4938
77.6621
73.6878
69.5726
65.3197
60.9328
56.4168
51.7764
47.0166
42.1416
37.1541
32.0544
26.8393
21.5007
16.0245
10.3883
4.60842
118.254
116.568
114.49
112.162
109.722
107.189
104.54
101.758
98.841
95.7867
92.594
89.2601
85.7821
82.1586
78.3893
74.4739
70.4126
66.2065
61.858
57.3695
52.7434
47.9822
43.0873
38.0591
32.8954
27.5911
22.1369
16.518
10.7133
4.73501
118.151
116.497
114.462
112.183
109.792
107.309
104.712
101.985
99.1226
96.1241
92.9875
89.7096
86.2866
82.7167
78.9992
75.1324
71.115
66.9471
62.6293
58.1624
53.5469
48.7831
43.8707
38.8077
33.5902
28.2116
22.6615
16.9249
10.9811
4.83655
118.064
116.435
114.435
112.195
109.844
107.402
104.847
102.163
99.3454
96.3918
93.3002
90.0669
86.6879
83.1609
79.4844
75.6557
71.6727
67.5344
63.2401
58.7893
54.181
49.414
44.4861
39.3941
34.1325
28.6936
23.066
17.2346
11.1797
4.9034
118.02
116.41
114.437
112.228
109.908
107.498
104.976
102.326
99.5427
96.6241
93.5676
90.3689
87.0243
83.5307
79.8856
76.0861
72.1294
68.0137
63.7373
59.2985
54.6953
49.9254
44.9854
39.8708
34.5752
29.0896
23.4021
17.497
11.3542
4.96711
117.98
116.381
114.426
112.238
109.939
107.55
105.05
102.423
99.6621
96.7667
93.7333
90.5575
87.2355
83.7637
80.1392
76.3586
72.419
68.3177
64.0525
59.6209
55.0204
50.2477
45.2987
40.168
34.8485
29.3304
23.6012
17.6446
11.4412
4.98126
118.027
116.43
114.487
112.314
110.029
107.654
105.168
102.555
99.8089
96.9279
93.9087
90.7468
87.4381
83.9791
80.3664
76.5965
72.6661
68.5725
64.3129
59.8846
55.2846
50.5093
45.5542
40.4135
35.0795
29.542
23.7874
17.7975
11.5481
5.00834
)
;

boundaryField
{
    inlet
    {
        type            zeroGradient;
    }
    outlet
    {
        type            fixedValue;
        value           uniform 0;
    }
    flap
    {
        type            zeroGradient;
    }
    upperWall
    {
        type            zeroGradient;
    }
    lowerWall
    {
        type            zeroGradient;
    }
    frontAndBack
    {
        type            empty;
    }
}


// ************************************************************************* //
