/*--------------------------------*- C++ -*----------------------------------*\
| =========                 |                                                 |
| \\      /  F ield         | OpenFOAM: The Open Source CFD Toolbox           |
|  \\    /   O peration     | Version:  dev                                   |
|   \\  /    A nd           | Web:      www.OpenFOAM.org                      |
|    \\/     M anipulation  |                                                 |
\*---------------------------------------------------------------------------*/
FoamFile
{
    version     2.0;
    format      ascii;
    class       surfaceScalarField;
    location    "1.03";
    object      phi;
}
// * * * * * * * * * * * * * * * * * * * * * * * * * * * * * * * * * * * * * //

dimensions      [0 3 -1 0 0 0 0];

internalField   nonuniform List<scalar> 
5457
(
0.197848
0.00214609
0.195564
0.00228169
0.193104
0.00246544
0.190412
0.00270271
0.187483
0.0029447
0.184317
0.00318549
0.180903
0.0034332
0.177229
0.00369192
0.17328
0.00396298
0.169039
0.00424926
0.164487
0.00455511
0.159602
0.004883
0.154359
0.00523508
0.148733
0.00561342
0.142699
0.00601995
0.136225
0.00645702
0.129283
0.006926
0.121839
0.00742815
0.11386
0.00796461
0.105315
0.00853384
0.0961742
0.00913092
0.0864199
0.00974725
0.0760419
0.0103728
0.0650427
0.0109954
0.0534432
0.0115969
0.0412934
0.012148
0.0286906
0.0126018
0.015835
0.0128551
0.00347477
0.01236
0.00347472
0.199634
0.0025053
0.198656
0.00325748
0.197373
0.00375296
0.195811
0.00427634
0.193961
0.00481044
0.191821
0.00534532
0.189383
0.00589017
0.186639
0.00645397
0.183577
0.00703989
0.180181
0.00765423
0.176433
0.00830644
0.172312
0.00900106
0.167797
0.00974284
0.162862
0.0105363
0.157481
0.0113862
0.151624
0.0122972
0.145258
0.0132753
0.138347
0.0143234
0.130855
0.0154424
0.122744
0.0166335
0.113972
0.0178932
0.104502
0.0192094
0.0943062
0.0205637
0.0833623
0.0219355
0.0716581
0.0232984
0.0591999
0.0246046
0.0460482
0.0257523
0.0323756
0.0265272
0.0183048
0.0264305
0.0217795
0.199491
0.00300744
0.198585
0.00416102
0.197374
0.00496861
0.195909
0.00575177
0.194189
0.0065468
0.192206
0.00734834
0.189955
0.00816086
0.18743
0.00899701
0.18462
0.00986478
0.18151
0.0107742
0.178083
0.0117366
0.174323
0.0127595
0.170207
0.0138508
0.165714
0.0150173
0.160818
0.0162673
0.15549
0.0176092
0.149695
0.0190538
0.143394
0.020608
0.136545
0.0222767
0.129101
0.0240659
0.121005
0.025979
0.112195
0.0280125
0.102601
0.030152
0.0921491
0.0323831
0.0807453
0.0346994
0.0682712
0.0370767
0.0545775
0.0394449
0.0393733
0.0417307
0.0215342
0.0442692
0.0433136
0.1994
0.00360018
0.198497
0.00506069
0.197301
0.00616955
0.19585
0.0072134
0.194152
0.00826182
0.1922
0.00931913
0.189992
0.0103889
0.187524
0.0114844
0.184783
0.0126208
0.181756
0.0138107
0.178433
0.0150643
0.174797
0.0163938
0.170831
0.0178097
0.166516
0.0193204
0.161831
0.0209375
0.156749
0.0226747
0.15124
0.0245466
0.145265
0.0265664
0.138781
0.0287464
0.131731
0.0311038
0.124049
0.033651
0.115654
0.0363995
0.10644
0.0393603
0.0962802
0.0425382
0.0850101
0.0459664
0.0723675
0.0497171
0.0579763
0.0538347
0.0413715
0.0583348
0.0219602
0.0636802
0.0652737
0.199352
0.00423979
0.198442
0.00596799
0.197258
0.00735767
0.19582
0.0086622
0.194139
0.00995907
0.192214
0.011264
0.190038
0.0125852
0.187604
0.0139376
0.184903
0.0153373
0.181925
0.0167993
0.178658
0.0183363
0.175086
0.0199648
0.171193
0.0216965
0.166962
0.0235397
0.162375
0.0255108
0.157405
0.027628
0.152024
0.0299109
0.146194
0.03238
0.139869
0.0350564
0.132991
0.0379689
0.125484
0.0411481
0.117248
0.0446271
0.108146
0.0484558
0.0979966
0.0526827
0.0865956
0.0573639
0.0736464
0.0626639
0.0586707
0.0688088
0.0411125
0.075892
0.0212432
0.083549
0.0865168
0.199328
0.00490348
0.198411
0.00688107
0.19724
0.00853216
0.195822
0.0100919
0.194165
0.0116319
0.19227
0.0131787
0.190129
0.0147469
0.187735
0.0163521
0.185078
0.0180106
0.182147
0.0197411
0.178929
0.02156
0.17541
0.023484
0.171574
0.0255262
0.167405
0.0276983
0.16288
0.0300215
0.157974
0.0325182
0.152655
0.0352128
0.146887
0.0381325
0.140612
0.0413157
0.133772
0.0447963
0.126283
0.0486256
0.11803
0.0528716
0.108866
0.0576128
0.0985678
0.0629752
0.0868622
0.0690654
0.0734984
0.0760249
0.0580748
0.0842303
0.0399994
0.0939663
0.0201556
0.103392
0.106672
0.199319
0.00557532
0.1984
0.00779579
0.197243
0.00969295
0.195848
0.0114976
0.194221
0.0132748
0.192361
0.0150584
0.190262
0.016868
0.187915
0.0187188
0.18531
0.0206328
0.182432
0.0226314
0.179267
0.0247315
0.175805
0.0269473
0.172031
0.0292945
0.167926
0.0317942
0.16346
0.0344734
0.158605
0.0373579
0.153327
0.0404737
0.147584
0.0438592
0.14132
0.0475645
0.134465
0.0516371
0.126918
0.056162
0.118541
0.0612389
0.10919
0.0669563
0.0986627
0.073496
0.0866383
0.0810852
0.0728091
0.0898506
0.0569877
0.100049
0.0387033
0.112249
0.0190858
0.123009
0.125758
0.199319
0.00624586
0.198404
0.00870663
0.197263
0.0108363
0.195898
0.0128738
0.194307
0.0148814
0.19249
0.0168959
0.190439
0.0189405
0.188146
0.0210332
0.185597
0.0231993
0.182781
0.0254615
0.179683
0.0278373
0.17629
0.0303418
0.172586
0.0329947
0.168547
0.0358243
0.164144
0.0388631
0.159346
0.042141
0.154115
0.0456886
0.148393
0.049564
0.142126
0.0538165
0.135237
0.0585125
0.127612
0.063774
0.119114
0.0697263
0.109545
0.0765168
0.0987154
0.084319
0.0863764
0.0934188
0.0721469
0.104076
0.0559786
0.116215
0.0375742
0.130652
0.0182192
0.142364
0.143977
0.199324
0.00691052
0.198418
0.00960691
0.1973
0.0119572
0.195967
0.0142165
0.194419
0.0164464
0.19265
0.0186851
0.190654
0.0209586
0.18842
0.0232889
0.185937
0.0257009
0.183194
0.0282197
0.180175
0.0308655
0.176863
0.0336566
0.173238
0.0366167
0.169276
0.0397784
0.164949
0.0431784
0.160223
0.0468526
0.15505
0.0508454
0.149376
0.0552224
0.143133
0.0600432
0.13622
0.0654117
0.128528
0.0714526
0.119936
0.0783069
0.110219
0.0862251
0.0991281
0.0954016
0.0864832
0.106057
0.0719848
0.11857
0.0555422
0.132654
0.0369872
0.149205
0.0178182
0.161532
0.161795
0.199332
0.00756605
0.198442
0.0104903
0.19735
0.0130513
0.196054
0.0155223
0.194551
0.0179659
0.192836
0.0204209
0.190901
0.0229161
0.188736
0.0254761
0.186331
0.0281262
0.183671
0.0308958
0.180739
0.0338074
0.17752
0.0368808
0.17399
0.0401448
0.170125
0.0436374
0.165894
0.0473983
0.161263
0.0514697
0.156173
0.0559202
0.150572
0.0608078
0.14439
0.0662091
0.137521
0.0722662
0.129837
0.0791229
0.121175
0.0869566
0.111376
0.0960136
0.100182
0.106587
0.0873454
0.118887
0.0726525
0.133257
0.0560059
0.149297
0.0373324
0.167876
0.0181913
0.180672
0.179986
0.199344
0.00820849
0.198475
0.0113516
0.197415
0.0141133
0.19616
0.0167863
0.194708
0.0194343
0.193053
0.0220969
0.191187
0.0248053
0.189099
0.0275865
0.186778
0.0304687
0.184209
0.0334821
0.181377
0.0366507
0.178265
0.0399992
0.17485
0.0435605
0.1711
0.047382
0.166988
0.051501
0.162477
0.0559679
0.157513
0.0608697
0.152039
0.0662667
0.145962
0.0722701
0.139191
0.0790227
0.131608
0.086692
0.123013
0.0955378
0.113257
0.105758
0.102121
0.117712
0.0892926
0.131707
0.0745554
0.147988
0.0578479
0.166
0.0391564
0.186565
0.0198129
0.200014
0.199799
0.199359
0.00883425
0.198515
0.0121873
0.19749
0.0151392
0.196282
0.0180038
0.194886
0.0208463
0.193296
0.023707
0.191506
0.0266194
0.189502
0.0296137
0.187272
0.0327212
0.184806
0.0359668
0.182089
0.0393806
0.1791
0.0429963
0.175814
0.046849
0.172204
0.050989
0.168245
0.0554523
0.163888
0.0603134
0.159091
0.0656537
0.153795
0.0715472
0.147913
0.0781376
0.141335
0.0855855
0.133955
0.094058
0.125623
0.103855
0.11612
0.115249
0.105257
0.128564
0.0927487
0.144207
0.0783536
0.162376
0.0619247
0.182424
0.0434171
0.20507
0.0236361
0.219794
0.223435
0.199376
0.00944104
0.198561
0.0129932
0.197575
0.0161253
0.196417
0.0191706
0.195082
0.0221969
0.193565
0.0252454
0.191856
0.028352
0.189944
0.0315497
0.187819
0.034869
0.185469
0.0383367
0.182877
0.0419883
0.180025
0.0458576
0.176887
0.0499918
0.173443
0.0544321
0.169666
0.059223
0.165513
0.0644568
0.16094
0.0702148
0.155876
0.0765966
0.150268
0.0837314
0.144022
0.0918172
0.137001
0.101064
0.129115
0.111725
0.120172
0.124177
0.109991
0.138733
0.098334
0.155853
0.0849571
0.175745
0.0695029
0.197873
0.0518955
0.222675
0.0317687
0.23992
0.255203
0.199396
0.0100267
0.198613
0.0137655
0.19767
0.0170674
0.196566
0.0202824
0.195298
0.0234811
0.193857
0.0267066
0.192237
0.0299962
0.190427
0.0333847
0.188418
0.0369018
0.186192
0.0405844
0.183735
0.0444619
0.181036
0.0485685
0.178071
0.0529631
0.174824
0.0576797
0.171259
0.0627845
0.167344
0.0683643
0.163048
0.0745
0.158309
0.0813223
0.153063
0.0889644
0.147262
0.0976044
0.140808
0.107503
0.133627
0.11889
0.125634
0.132154
0.116681
0.147673
0.106657
0.165865
0.0954073
0.186987
0.0825128
0.210762
0.0680181
0.237167
0.0489338
0.259004
0.304137
0.199414
0.0105926
0.198663
0.0145041
0.197764
0.0179641
0.196717
0.0213377
0.195516
0.0246974
0.194155
0.0280881
0.192627
0.0315482
0.190923
0.0351141
0.18903
0.0388202
0.186932
0.042704
0.184625
0.0467876
0.182089
0.0511182
0.179311
0.0557494
0.176276
0.0607187
0.17295
0.0661081
0.169304
0.0720053
0.165311
0.0784835
0.160953
0.0856689
0.156167
0.0937381
0.15093
0.102828
0.145224
0.113194
0.138999
0.125098
0.132278
0.138858
0.125094
0.154843
0.117585
0.173362
0.109952
0.194611
0.102347
0.218362
0.0953933
0.244118
0.084884
0.269513
0.389022
0.00740833
-0.00740899
0.0124501
-0.00504502
0.0166443
-0.00420436
0.0199433
-0.00332004
0.0219155
-0.00200347
0.0221507
-0.000270974
0.0205882
0.00152805
0.0174703
0.00308688
0.0130976
0.00434465
0.00776785
0.00530557
0.00177011
0.00597877
-0.00461726
0.00637073
-0.0111888
0.00655557
-0.017804
0.00660073
-0.0242915
0.00647546
-0.0304785
0.00617858
-0.0361836
0.00570134
-0.0412197
0.00503791
-0.0454036
0.00419169
-0.0485567
0.00316703
-0.0505142
0.00197764
-0.0510739
0.000585544
-0.0499434
-0.00109938
-0.0467722
-0.00313538
-0.0412669
-0.00546544
-0.0331294
-0.00809437
-0.0218044
-0.0112792
-0.00575585
-0.0160005
0.0175746
-0.0232807
-0.0290956
0.00314457
-0.0105543
0.00585314
-0.00775703
0.00761204
-0.00597389
0.00787419
-0.00360361
0.00641354
-0.000573922
0.00348191
0.00262555
-0.000604771
0.00558109
-0.0056623
0.00811431
-0.0115015
0.0101564
-0.0179386
0.0117187
-0.0248056
0.0128266
-0.0319744
0.0135228
-0.0392898
0.0138548
-0.0465666
0.0138628
-0.0536351
0.0135317
-0.0603211
0.0128559
-0.0664478
0.011824
-0.071834
0.0104256
-0.0762984
0.00866369
-0.0796613
0.00654357
-0.0817493
0.0040855
-0.0823961
0.00125805
-0.0814307
-0.00203384
-0.0786994
-0.00583107
-0.0740578
-0.0100675
-0.0673509
-0.0147583
-0.0584257
-0.0201586
-0.047594
-0.0267844
-0.0364643
-0.0343608
-0.0409741
0.000413118
-0.0109682
0.000233129
-0.00758072
-0.00102283
-0.00472889
-0.00361955
-0.00102815
-0.00729108
0.0030677
-0.0118368
0.00713812
-0.0171685
0.0108811
-0.0231429
0.01406
-0.0296458
0.0166329
-0.0365691
0.0186183
-0.0437972
0.0200353
-0.0512397
0.0209483
-0.0587794
0.0213779
-0.0662541
0.0213223
-0.0735209
0.0207858
-0.0804204
0.0197463
-0.0867886
0.0181877
-0.0924576
0.0160957
-0.0972601
0.0134731
-0.101027
0.0103235
-0.103589
0.00666726
-0.104825
0.00251926
-0.104651
-0.00217824
-0.103011
-0.00743599
-0.0998641
-0.0131748
-0.095231
-0.0193488
-0.089306
-0.0260383
-0.0827195
-0.0333233
-0.07634
-0.0406909
-0.0468887
-0.00174737
-0.00922163
-0.00447613
-0.00485583
-0.00817986
-0.00103618
-0.0126948
0.00346643
-0.0178645
0.00820978
-0.023591
0.0128344
-0.0297528
0.017014
-0.0362789
0.0205593
-0.0431241
0.0234529
-0.0502572
0.025728
-0.0576255
0.027384
-0.0651575
0.0284627
-0.072764
0.0289672
-0.0803238
0.0288662
-0.0877033
0.0281519
-0.0947575
0.0267907
-0.101334
0.0247586
-0.10727
0.0220319
-0.112403
0.0186125
-0.116578
0.0145107
-0.119644
0.0097517
-0.121497
0.00439699
-0.122106
-0.00153973
-0.121484
-0.00802404
-0.119654
-0.0149661
-0.116729
-0.0222317
-0.113001
-0.0297215
-0.109011
-0.037266
-0.105318
-0.0443352
-0.0499325
-0.00357283
-0.0056497
-0.00834154
-9.11446e-05
-0.0137913
0.00440282
-0.0197249
0.00938106
-0.0260161
0.0144762
-0.0325139
0.0193055
-0.0391552
0.0236293
-0.0459531
0.0273325
-0.0529287
0.0304046
-0.0600991
0.0328758
-0.0674595
0.0347244
-0.0749607
0.0359455
-0.082533
0.0365216
-0.0900824
0.0363991
-0.097489
0.0355443
-0.104616
0.0339072
-0.111317
0.0314537
-0.117443
0.0281568
-0.122836
0.0240113
-0.127362
0.0190477
-0.130898
0.0133054
-0.133353
0.00687512
-0.134716
-0.000148189
-0.135022
-0.00768433
-0.134337
-0.0156132
-0.132812
-0.0237156
-0.130738
-0.031751
-0.128545
-0.039413
-0.12666
-0.0461712
-0.0512234
-0.00504552
-0.000605115
-0.0113676
0.00622685
-0.0181304
0.0111554
-0.0251047
0.0163384
-0.0320797
0.0214296
-0.0389703
0.0261729
-0.0457909
0.0304269
-0.0526246
0.0341436
-0.0595516
0.0373092
-0.0666213
0.0399236
-0.0738535
0.0419364
-0.0812255
0.0432984
-0.088687
0.0439645
-0.0961572
0.043852
-0.103528
0.0429004
-0.110676
0.0410439
-0.11746
0.0382307
-0.123745
0.0344398
-0.129393
0.0296635
-0.134275
0.0239405
-0.138285
0.0173315
-0.141335
0.00994781
-0.14339
0.00193396
-0.144502
-0.00653901
-0.144796
-0.015283
-0.144415
-0.0240562
-0.143618
-0.0325042
-0.14275
-0.0402352
-0.142161
-0.0467123
-0.0513149
-0.00616874
0.00556265
-0.013708
0.0137622
-0.021411
0.018849
-0.028953
0.0238655
-0.0361802
0.0286384
-0.0431081
0.0330808
-0.0498388
0.0371372
-0.0565084
0.0407925
-0.0632325
0.0440122
-0.0700835
0.0467534
-0.0770981
0.0489308
-0.0842719
0.0504526
-0.0915651
0.0512385
-0.0989092
0.0511782
-0.106204
0.0501795
-0.113338
0.0481662
-0.120189
0.0450733
-0.126626
0.0408746
-0.132525
0.0355659
-0.137761
0.0291857
-0.142227
0.0218126
-0.145839
0.013581
-0.148562
0.00468348
-0.150437
-0.00463175
-0.151587
-0.0140977
-0.152159
-0.0234438
-0.152378
-0.0322429
-0.152528
-0.0400404
-0.152904
-0.0462885
-0.0505303
-0.00702801
0.0125897
-0.0154505
0.022181
-0.023614
0.0270041
-0.0312366
0.0314755
-0.0382986
0.0356849
-0.0449377
0.0397029
-0.0513382
0.0435196
-0.0576708
0.0471062
-0.064067
0.0503886
-0.0706091
0.0532751
-0.0773414
0.0556429
-0.0842699
0.0573612
-0.091359
0.0583079
-0.0985485
0.0583492
-0.105752
0.0573666
-0.112868
0.0552691
-0.119786
0.0519836
-0.126386
0.0474712
-0.132545
0.0417271
-0.138143
0.0347916
-0.143072
0.0267561
-0.147247
0.0177759
-0.15062
0.00808273
-0.153208
-0.00201397
-0.155113
-0.0121578
-0.156493
-0.0220246
-0.157538
-0.0311564
-0.15849
-0.0390446
-0.159606
-0.0451258
-0.0490782
-0.00765914
0.0202478
-0.0165172
0.0310356
-0.0246071
0.0350869
-0.031807
0.0386648
-0.0383065
0.0421714
-0.0443697
0.0457514
-0.0502388
0.0493725
-0.0560955
0.0529454
-0.0620711
0.0563454
-0.0682465
0.0594307
-0.0746615
0.0620379
-0.081321
0.0640005
-0.0881918
0.065159
-0.0952209
0.0653595
-0.102336
0.0644648
-0.109445
0.0623655
-0.116448
0.0589772
-0.123231
0.0542495
-0.129674
0.0481716
-0.135658
0.0407829
-0.14107
0.0321819
-0.145815
0.0225402
-0.149826
0.0121177
-0.153081
0.00127097
-0.15566
-0.00954499
-0.157739
-0.0199086
-0.159471
-0.0293834
-0.161068
-0.0374039
-0.162763
-0.0433854
-0.0471146
-0.00801017
0.0282571
-0.0167515
0.039774
-0.0241421
0.0424716
-0.0304087
0.0449226
-0.0359943
0.0477459
-0.0412521
0.0509963
-0.0464414
0.0545472
-0.0517329
0.0582207
-0.0572397
0.0618344
-0.0630251
0.0651971
-0.0691118
0.0681049
-0.0754951
0.0703639
-0.0821471
0.071791
-0.0890228
0.0722165
-0.0960598
0.0714851
-0.103179
0.0694707
-0.110286
0.0660748
-0.117274
0.0612327
-0.124024
0.0549224
-0.130411
0.0471767
-0.136314
0.0380969
-0.141624
0.0278682
-0.14626
0.0167773
-0.150189
0.00522774
-0.15343
-0.00627089
-0.15613
-0.0171721
-0.158448
-0.027025
-0.160578
-0.0352322
-0.162734
-0.0411837
-0.0447525
-0.00798867
0.036245
-0.0158533
0.0476361
-0.021819
0.0484323
-0.0266864
0.0497826
-0.0310967
0.0521465
-0.035413
0.0553009
-0.0398629
0.0589835
-0.0445705
0.0629128
-0.049605
0.0668518
-0.0549939
0.0705675
-0.0607441
0.0738357
-0.0668475
0.0764474
-0.0732823
0.0782062
-0.0800103
0.0789259
-0.0869786
0.0784367
-0.094118
0.0765964
-0.101344
0.0732911
-0.108555
0.0684386
-0.115633
0.0620003
-0.12245
0.0539988
-0.128876
0.0445344
-0.134791
0.0338007
-0.140093
0.0221012
-0.144701
0.00986333
-0.148578
-0.00236174
-0.151837
-0.0138784
-0.154669
-0.0241536
-0.157249
-0.0326108
-0.159786
-0.0386021
-0.0420656
-0.00732572
0.04357
-0.0132385
0.0535468
-0.0170563
0.0522459
-0.0202222
0.0529419
-0.0233848
0.0553005
-0.026778
0.0586834
-0.0305234
0.0627162
-0.0346688
0.0670434
-0.0392331
0.0713995
-0.0442176
0.0755342
-0.049621
0.0792203
-0.0554374
0.0822444
-0.061649
0.0843986
-0.0682244
0.0854829
-0.0751193
0.0853151
-0.0822764
0.0837399
-0.0896238
0.0806286
-0.0970686
0.075878
-0.104497
0.0694283
-0.111779
0.0612863
-0.118778
0.0515439
-0.12535
0.040389
-0.131353
0.0281254
-0.136655
0.0151916
-0.141172
0.0021857
-0.144968
-0.010048
-0.148274
-0.0208099
-0.151252
-0.0295919
-0.154118
-0.0356927
-0.0390964
-0.00522204
0.0487914
-0.00787897
0.0562018
-0.00924744
0.0536105
-0.0108247
0.0545132
-0.0128859
0.0573537
-0.0154584
0.0612456
-0.0185431
0.0657887
-0.0221355
0.0706214
-0.0262225
0.0754705
-0.0307938
0.0800881
-0.0358371
0.0842453
-0.0413495
0.087738
-0.0473174
0.0903477
-0.0537147
0.0918624
-0.0605064
0.0920908
-0.0676496
0.0908697
-0.0750915
0.0880606
-0.0827538
0.0835348
-0.0905303
0.0772041
-0.0982899
0.0690505
-0.105881
0.0591447
-0.113125
0.047649
-0.119839
0.0348591
-0.125868
0.0212465
-0.131139
0.0074864
-0.135583
-0.00557076
-0.139357
-0.016999
-0.142709
-0.0261999
-0.14588
-0.0324797
-0.0358585
-0.000429189
0.0492201
0.000915268
0.0548555
0.00166346
0.0528586
0.00125906
0.0549119
0.000134136
0.0584708
-0.00166452
0.0630344
-0.00410265
0.0682149
-0.00713905
0.0736438
-0.0107431
0.0790587
-0.01489
0.0842181
-0.0195473
0.0888849
-0.0247238
0.0928964
-0.0304086
0.0960145
-0.0365766
0.0980131
-0.0432001
0.0986988
-0.0502535
0.0979101
-0.0577134
0.0955109
-0.0655224
0.0913382
-0.0735886
0.0852695
-0.0817875
0.0772536
-0.0899713
0.0673379
-0.0979467
0.0556392
-0.105502
0.0424339
-0.112444
0.0282132
-0.118593
0.0136647
-0.123731
-0.000400214
-0.127968
-0.012726
-0.131703
-0.0224264
-0.135185
-0.0289567
-0.0323404
0.0099102
0.0393093
0.0145387
0.050225
0.0149624
0.0524311
0.0152226
0.0546459
0.0150784
0.0586074
0.0141548
0.0639482
0.0124583
0.0698997
0.0100547
0.0760338
0.00699978
0.0820982
0.00332759
0.0878739
-0.000952933
0.0931485
-0.00579723
0.0977233
-0.0111496
0.10135
-0.0170139
0.103861
-0.023368
0.105038
-0.0302
0.10473
-0.0375371
0.102839
-0.0453448
0.0991407
-0.0535549
0.0934787
-0.0620617
0.0857644
-0.0707628
0.0760481
-0.0794773
0.0643679
-0.0879639
0.0509395
-0.0959298
0.0362027
-0.103056
0.0208194
-0.109129
0.00570442
-0.114088
-0.00773211
-0.118279
-0.0181979
-0.122118
-0.0250773
-0.0285028
0.207081
0.0111485
0.206345
0.0152252
0.205469
0.0188359
0.204453
0.0223615
0.20329
0.0258757
0.201975
0.0294237
0.200504
0.0330451
0.198863
0.0367817
0.197038
0.0406713
0.195026
0.0447401
0.192819
0.0490154
0.190402
0.0535514
0.187765
0.0583974
0.184885
0.0636042
0.181753
0.0692415
0.178347
0.0754075
0.174641
0.0821818
0.170644
0.0896561
0.166347
0.0980239
0.161736
0.107426
0.156857
0.118059
0.151769
0.130167
0.146634
0.143975
0.14175
0.15971
0.137636
0.177463
0.135181
0.197057
0.135862
0.217675
0.142158
0.23782
0.157664
0.254006
0.261455
0.285232
0.212119
0.0116877
0.211409
0.0159181
0.21057
0.0196684
0.209602
0.0233352
0.208498
0.0269939
0.207256
0.030688
0.205866
0.0344606
0.204317
0.0383582
0.202604
0.042412
0.200722
0.0466482
0.198658
0.0511018
0.196411
0.0558169
0.193975
0.0608472
0.191331
0.0662565
0.188468
0.072107
0.18539
0.0784847
0.182101
0.0854654
0.178608
0.0931411
0.174945
0.101677
0.171156
0.111203
0.16735
0.121849
0.16372
0.133779
0.160584
0.147092
0.158475
0.161802
0.158273
0.177652
0.161375
0.193945
0.169818
0.209226
0.186506
0.221131
0.212992
0.227522
0.234667
0.239781
0.217286
0.0122042
0.21661
0.0165751
0.215817
0.0204528
0.214905
0.0242488
0.213872
0.0280404
0.212711
0.0318698
0.211416
0.0357822
0.209981
0.0398213
0.208404
0.0440173
0.206674
0.048406
0.204786
0.0530147
0.202742
0.057881
0.200542
0.0630626
0.198181
0.0686286
0.195649
0.0746444
0.192973
0.081162
0.190187
0.0882493
0.187305
0.0960168
0.1844
0.104573
0.181591
0.114001
0.179053
0.124373
0.177068
0.135746
0.176077
0.148063
0.176746
0.161116
0.179972
0.174412
0.186807
0.1871
0.197989
0.198039
0.213289
0.205829
0.2307
0.210111
0.211877
0.253492
0.22258
0.0126936
0.221947
0.0171883
0.22121
0.0211797
0.220364
0.0250948
0.219407
0.0290076
0.218338
0.0329572
0.217156
0.0369905
0.215856
0.0411501
0.214429
0.045474
0.212872
0.0499913
0.211193
0.0547204
0.209391
0.059705
0.207466
0.0650059
0.205422
0.0706858
0.203284
0.076791
0.201083
0.0833665
0.198858
0.0904741
0.196669
0.0982013
0.194628
0.106607
0.192893
0.115727
0.191695
0.125559
0.191375
0.136049
0.192391
0.147027
0.195313
0.158176
0.200713
0.168997
0.209
0.178804
0.220144
0.186889
0.23371
0.192261
0.249508
0.194313
0.192204
0.269183
0.228007
0.0131511
0.227423
0.0177517
0.226749
0.0218422
0.225978
0.0258636
0.22511
0.0298823
0.224149
0.0339343
0.223095
0.0380694
0.22194
0.0423327
0.220684
0.0467602
0.219333
0.0513724
0.217888
0.0561928
0.216356
0.0612611
0.214743
0.0666394
0.213068
0.0723766
0.211374
0.078495
0.209692
0.0850554
0.208084
0.0920839
0.206653
0.0996307
0.205527
0.107727
0.2049
0.116346
0.205021
0.125428
0.206206
0.134849
0.208808
0.144405
0.213192
0.153774
0.219644
0.162531
0.228271
0.170167
0.238999
0.176155
0.25151
0.179748
0.265281
0.180541
0.177712
0.279774
0.23357
0.0135709
0.233038
0.0182614
0.232432
0.0224349
0.23175
0.0265426
0.230991
0.0306465
0.230153
0.0347858
0.229234
0.0390096
0.228239
0.0433536
0.227182
0.0478471
0.226059
0.0525256
0.224871
0.0574096
0.223638
0.0625199
0.222372
0.0679272
0.221105
0.0736604
0.219883
0.0797303
0.218759
0.0861882
0.217822
0.0930244
0.217183
0.10027
0.216986
0.107922
0.217421
0.115906
0.218701
0.124139
0.221063
0.132474
0.224749
0.140703
0.229973
0.148535
0.236871
0.155619
0.245449
0.161579
0.255587
0.16601
0.266852
0.16848
0.278545
0.168847
0.16605
0.290208
0.239272
0.013948
0.238798
0.0187108
0.23827
0.0229484
0.237687
0.02712
0.23705
0.0312879
0.236347
0.0355008
0.235578
0.039797
0.234766
0.04419
0.233922
0.0487185
0.233041
0.0534356
0.232138
0.0583413
0.231232
0.0634529
0.23034
0.0688424
0.229511
0.0745082
0.228797
0.0804588
0.228275
0.0867209
0.22803
0.0932756
0.22817
0.100133
0.228838
0.107253
0.230187
0.114554
0.232385
0.121935
0.235607
0.129241
0.240021
0.136276
0.245728
0.142815
0.252764
0.148572
0.261111
0.153223
0.270586
0.156527
0.280747
0.158315
0.291081
0.158511
0.155899
0.301232
0.245116
0.0142767
0.244709
0.0190908
0.244269
0.023372
0.243796
0.0275863
0.243283
0.0318031
0.242722
0.0360724
0.242127
0.0404089
0.241519
0.044819
0.240902
0.0493611
0.240285
0.0540799
0.239691
0.0589635
0.239132
0.0640387
0.238647
0.0693508
0.23829
0.074886
0.238112
0.0806523
0.238191
0.0866546
0.238604
0.0928712
0.239456
0.0992852
0.240869
0.105841
0.242969
0.112453
0.245888
0.11901
0.249751
0.125369
0.254641
0.131374
0.260606
0.136839
0.26766
0.141508
0.27572
0.145154
0.284568
0.147673
0.293876
0.149004
0.303282
0.149102
0.146766
0.312414
0.251108
0.0145489
0.250778
0.0193917
0.250433
0.0236982
0.25007
0.0279404
0.249686
0.0321878
0.249287
0.0364796
0.24889
0.0408202
0.248504
0.045225
0.248135
0.0497534
0.247807
0.0544338
0.247537
0.0592592
0.247349
0.0642525
0.247291
0.0694323
0.247407
0.0747908
0.24775
0.0803266
0.24839
0.0860277
0.249404
0.0918672
0.250887
0.0978088
0.25294
0.103791
0.255666
0.109728
0.259157
0.115515
0.26348
0.12104
0.268677
0.126169
0.274795
0.130713
0.281808
0.134487
0.289569
0.137387
0.29788
0.139356
0.306516
0.140363
0.315214
0.1404
0.138349
0.323629
0.257251
0.0147572
0.257004
0.0196076
0.256758
0.0239228
0.256515
0.028173
0.256279
0.0324212
0.256065
0.0366999
0.25588
0.0410179
0.255727
0.045395
0.255625
0.0498768
0.255598
0.0544845
0.255665
0.0592174
0.255855
0.0640862
0.256213
0.0690972
0.256782
0.0742425
0.257616
0.0795099
0.25878
0.0848787
0.260343
0.0903154
0.262385
0.0957742
0.264989
0.101192
0.268231
0.106487
0.272165
0.111581
0.276822
0.11638
0.282251
0.120735
0.288462
0.124496
0.295367
0.127576
0.302832
0.129916
0.310708
0.131475
0.318821
0.132246
0.326977
0.13224
0.130439
0.334885
0.263546
0.0148968
0.263387
0.0197322
0.263252
0.0240338
0.263147
0.0282648
0.263078
0.0324859
0.263055
0.036726
0.263085
0.0409971
0.263177
0.0453186
0.263349
0.0497236
0.263626
0.0542296
0.264029
0.0588368
0.264592
0.0635465
0.265354
0.0683571
0.266359
0.0732571
0.267658
0.0782282
0.269307
0.0832441
0.271367
0.0882674
0.273901
0.0932489
0.276972
0.0981275
0.280633
0.10283
0.284915
0.107301
0.289845
0.111449
0.295446
0.115131
0.301677
0.118261
0.308449
0.1208
0.315661
0.122701
0.323188
0.123944
0.330895
0.124536
0.338639
0.124492
0.122901
0.346176
0.269996
0.0149628
0.269935
0.0197567
0.269923
0.0240188
0.269965
0.0282063
0.270067
0.0323761
0.27024
0.0365536
0.270492
0.0407526
0.270832
0.0449906
0.271281
0.0492912
0.271862
0.0536673
0.272601
0.0581182
0.273529
0.0626394
0.274684
0.0672231
0.276105
0.0718543
0.277839
0.0765111
0.279933
0.0811643
0.282437
0.0857753
0.2854
0.090296
0.288866
0.0946686
0.29287
0.0988316
0.297438
0.102736
0.302586
0.106303
0.308293
0.109424
0.314507
0.112046
0.321158
0.114147
0.328159
0.115698
0.335409
0.116692
0.342801
0.117142
0.350226
0.117065
0.115647
0.357479
0.276607
0.0149488
0.276649
0.0196741
0.276766
0.0238721
0.276961
0.0279917
0.277241
0.032086
0.277614
0.0361776
0.27809
0.04028
0.278683
0.0444076
0.27941
0.0485772
0.280296
0.0527977
0.281365
0.0570665
0.282648
0.0613751
0.284178
0.0657115
0.285993
0.0700574
0.28813
0.0743897
0.290631
0.0786776
0.29353
0.0828879
0.29686
0.0869759
0.300659
0.0908773
0.304952
0.0945444
0.309752
0.0979404
0.315059
0.101
0.320834
0.103651
0.327024
0.105857
0.333571
0.107601
0.3404
0.108869
0.347429
0.109662
0.354574
0.109996
0.361749
0.109888
0.108613
0.368782
0.283381
0.0148491
0.283533
0.019479
0.283783
0.0235887
0.284136
0.0276161
0.284597
0.0316112
0.285174
0.0355938
0.285879
0.0395759
0.286724
0.0435683
0.287729
0.0475824
0.288915
0.0516248
0.290306
0.0556906
0.29193
0.0597672
0.293816
0.0638414
0.295997
0.0678917
0.298504
0.0718977
0.301362
0.0758321
0.304607
0.0796547
0.308266
0.0833258
0.312359
0.086792
0.316897
0.0900127
0.321883
0.0929603
0.327304
0.0955843
0.333122
0.0978373
0.339286
0.0996949
0.345744
0.101144
0.352434
0.10218
0.359287
0.102809
0.366237
0.103046
0.373215
0.102909
0.101755
0.380073
0.290321
0.0146593
0.290587
0.0191671
0.290975
0.0231642
0.291489
0.0270757
0.292134
0.0309483
0.292919
0.0347996
0.293852
0.0386391
0.294949
0.0424737
0.296228
0.0463103
0.297707
0.0501555
0.299407
0.0540021
0.301357
0.0578307
0.303578
0.0616333
0.306091
0.0653918
0.308927
0.0690742
0.312113
0.072658
0.315671
0.0761064
0.319624
0.0793817
0.323973
0.08245
0.328716
0.0852765
0.333849
0.0878334
0.339356
0.0900839
0.3452
0.0919975
0.351339
0.0935596
0.357723
0.0947621
0.3643
0.095605
0.371013
0.0960967
0.377806
0.0962534
0.384626
0.0960895
0.0950373
0.391344
0.297431
0.0143755
0.297814
0.0187346
0.298342
0.0225957
0.29902
0.0263679
0.299852
0.0300952
0.300845
0.0337929
0.302007
0.0374697
0.303352
0.0411276
0.304898
0.0447666
0.306661
0.0483979
0.308655
0.0520165
0.310906
0.0555902
0.313437
0.0591128
0.316263
0.0625757
0.319409
0.0659393
0.322896
0.0691796
0.326737
0.0722744
0.330936
0.0751906
0.335494
0.0778975
0.340406
0.0803706
0.345661
0.0825849
0.351239
0.0845123
0.357105
0.0861358
0.363222
0.0874466
0.369546
0.088441
0.376031
0.0891219
0.38263
0.0894988
0.389298
0.0895869
0.395988
0.0893992
0.0884352
0.402591
0.304714
0.013995
0.305216
0.0181792
0.305887
0.0218813
0.306729
0.0254918
0.307748
0.0290511
0.308951
0.0325717
0.310343
0.0360664
0.311928
0.0395367
0.313726
0.0429677
0.315757
0.0463688
0.318036
0.0497423
0.320576
0.0530569
0.323396
0.0562993
0.326518
0.0594611
0.329951
0.0625144
0.333703
0.0654347
0.337784
0.0681996
0.342196
0.070784
0.346935
0.0731634
0.351991
0.0753197
0.357349
0.0772327
0.362986
0.078881
0.368871
0.0802551
0.37497
0.0813513
0.381245
0.0821689
0.387656
0.082713
0.394163
0.0829931
0.400727
0.0830233
0.407311
0.0828152
0.0819293
0.413817
0.312173
0.0135149
0.312796
0.0174984
0.313611
0.0210195
0.314618
0.0244473
0.315821
0.0278182
0.317228
0.0311432
0.318842
0.0344365
0.320669
0.0377005
0.322715
0.0409157
0.325002
0.0440796
0.32755
0.0471944
0.330367
0.0502427
0.333461
0.0532092
0.336846
0.0560797
0.340531
0.0588337
0.344521
0.0614497
0.348817
0.0639076
0.353417
0.0661875
0.358312
0.0682702
0.363492
0.0701434
0.368938
0.0717914
0.374627
0.073197
0.38053
0.0743558
0.386616
0.075268
0.392852
0.0759352
0.399202
0.0763635
0.405634
0.0765622
0.412113
0.0765441
0.418608
0.0763195
0.0755042
0.425033
0.319812
0.0129331
0.320559
0.0166902
0.321519
0.0200087
0.32269
0.0232341
0.324076
0.0263991
0.325678
0.0295146
0.327505
0.03259
0.329565
0.0356264
0.33186
0.0386109
0.334399
0.041534
0.337198
0.0443913
0.340267
0.0471725
0.343611
0.0498643
0.347239
0.0524524
0.351154
0.0549196
0.355357
0.0572481
0.359844
0.0594208
0.364611
0.0614217
0.369645
0.0632363
0.374933
0.0648565
0.380457
0.0662704
0.386193
0.0674642
0.392114
0.0684368
0.398192
0.069191
0.404398
0.0697301
0.410701
0.0700604
0.417072
0.0701911
0.423481
0.0701337
0.429902
0.0698973
0.0691473
0.436258
0.327635
0.0122487
0.328506
0.0157544
0.32961
0.0188493
0.330945
0.0218531
0.332511
0.0247959
0.334308
0.0276867
0.336343
0.0305311
0.338622
0.0333287
0.341149
0.0360697
0.343928
0.0387438
0.346967
0.0413436
0.350273
0.0438604
0.35385
0.0462829
0.357701
0.0485983
0.361826
0.0507923
0.366221
0.0528502
0.370881
0.0547582
0.375797
0.0565036
0.380955
0.0580754
0.386341
0.0594692
0.391936
0.0606759
0.397717
0.0616842
0.403658
0.0624954
0.409735
0.063114
0.41592
0.0635441
0.422186
0.0637922
0.428508
0.063867
0.434861
0.0637786
0.441219
0.0635354
0.0628475
0.447517
0.335645
0.0114613
0.336639
0.0146916
0.337887
0.0175427
0.339382
0.0203073
0.341124
0.0230119
0.343113
0.0256635
0.34535
0.0282649
0.347841
0.0308141
0.350589
0.0333032
0.353594
0.0357229
0.35686
0.0380648
0.360389
0.0403207
0.364183
0.0424806
0.36824
0.0445337
0.372557
0.046468
0.377129
0.048272
0.381946
0.0499344
0.386998
0.0514456
0.39227
0.0527974
0.397747