/*--------------------------------*- C++ -*----------------------------------*\
| =========                 |                                                 |
| \\      /  F ield         | OpenFOAM: The Open Source CFD Toolbox           |
|  \\    /   O peration     | Version:  dev                                   |
|   \\  /    A nd           | Web:      www.OpenFOAM.org                      |
|    \\/     M anipulation  |                                                 |
\*---------------------------------------------------------------------------*/
FoamFile
{
    version     2.0;
    format      ascii;
    class       surfaceScalarField;
    location    "4.14";
    object      meshPhi;
}
// * * * * * * * * * * * * * * * * * * * * * * * * * * * * * * * * * * * * * //

dimensions      [0 3 -1 0 0 0 0];

internalField   nonuniform List<scalar> 
5457
(
2.11234e-06
-5.05962e-08
3.59876e-06
-1.41726e-07
4.1188e-06
-2.13585e-07
3.56877e-06
-2.64784e-07
1.99203e-06
-2.96195e-07
-4.58797e-07
-3.09227e-07
-3.55323e-06
-3.05712e-07
-7.01351e-06
-2.87875e-07
-1.05439e-05
-2.58332e-07
-1.38584e-05
-2.20058e-07
-1.67047e-05
-1.76305e-07
-1.88852e-05
-1.30447e-07
-2.02705e-05
-8.57757e-08
-2.08069e-05
-4.52345e-08
-2.05156e-05
-1.11646e-08
-1.94846e-05
1.49125e-08
-1.78536e-05
3.24198e-08
-1.57957e-05
4.17238e-08
-1.34967e-05
4.40005e-08
-1.11371e-05
4.09903e-08
-8.75838e-06
3.45513e-08
-6.45303e-06
2.63923e-08
-4.45615e-06
1.81875e-08
-2.87133e-06
1.12744e-08
-1.6927e-06
6.22293e-09
-8.83256e-07
2.98419e-09
-3.84338e-07
1.19231e-09
-1.24151e-07
3.64504e-10
-2.44923e-08
6.4913e-11
9.13995e-12
2.17664e-06
-1.01468e-07
3.71156e-06
-2.84212e-07
4.26408e-06
-4.28315e-07
3.73297e-06
-5.31041e-07
2.16207e-06
-5.94152e-07
-2.95197e-07
-6.2046e-07
-3.4071e-06
-6.13607e-07
-6.89408e-06
-5.78018e-07
-1.04581e-05
-5.18899e-07
-1.38101e-05
-4.42182e-07
-1.6695e-05
-3.54363e-07
-1.89118e-05
-2.62208e-07
-2.03283e-05
-1.72329e-07
-2.08887e-05
-9.06659e-08
-2.06128e-05
-2.19606e-08
-1.95882e-05
3.06831e-08
-1.79553e-05
6.60611e-08
-1.58886e-05
8.48774e-08
-1.35749e-05
8.948e-08
-1.1194e-05
8.33673e-08
-8.804e-06
7.03073e-08
-6.49081e-06
5.37543e-08
-4.47895e-06
3.70744e-08
-2.88437e-06
2.30085e-08
-1.69943e-06
1.27334e-08
-8.86228e-07
6.13639e-09
-3.85377e-07
2.47377e-09
-1.24407e-07
7.70926e-10
-2.45362e-08
1.49952e-10
1.66927e-11
2.25212e-06
-1.52605e-07
3.84733e-06
-4.27436e-07
4.44483e-06
-6.44177e-07
3.94528e-06
-7.98794e-07
2.39302e-06
-8.93964e-07
-5.80657e-08
-9.33894e-07
-3.17559e-06
-9.24007e-07
-6.67901e-06
-8.70893e-07
-1.02688e-05
-7.82303e-07
-1.36537e-05
-6.67082e-07
-1.65762e-05
-5.34947e-07
-1.88322e-05
-3.96046e-07
-2.02867e-05
-2.60334e-07
-2.08808e-05
-1.36792e-07
-2.06324e-05
-3.26369e-08
-1.96275e-05
4.73619e-08
-1.8006e-05
1.0129e-07
-1.59425e-05
1.30121e-07
-1.3625e-05
1.37335e-07
-1.12344e-05
1.28181e-07
-8.83879e-06
1.08355e-07
-6.52009e-06
8.30857e-08
-4.49771e-06
5.75038e-08
-2.89552e-06
3.58561e-08
-1.70534e-06
1.99873e-08
-8.88891e-07
9.73857e-09
-3.86313e-07
3.99372e-09
-1.24635e-07
1.28348e-09
-2.45764e-08
2.75347e-10
3.25091e-11
2.33345e-06
-2.03973e-07
3.99807e-06
-5.71316e-07
4.6519e-06
-8.61087e-07
4.19665e-06
-1.068e-06
2.67713e-06
-1.19566e-06
2.47342e-07
-1.24968e-06
-2.86045e-06
-1.23722e-06
-6.36568e-06
-1.16699e-06
-9.96844e-06
-1.04922e-06
-1.33767e-05
-8.95599e-07
-1.63312e-05
-7.19016e-07
-1.86256e-05
-5.32967e-07
-2.01221e-05
-3.50746e-07
-2.07588e-05
-1.84417e-07
-2.05503e-05
-4.37437e-08
-1.95801e-05
6.47312e-08
-1.79863e-05
1.38265e-07
-1.59424e-05
1.77988e-07
-1.36365e-05
1.88426e-07
-1.12513e-05
1.76532e-07
-8.85755e-06
1.49894e-07
-6.53751e-06
1.15524e-07
-4.51122e-06
8.04438e-08
-2.90463e-06
5.05692e-08
-1.71068e-06
2.85114e-08
-8.91535e-07
1.41175e-08
-3.8735e-07
5.92544e-09
-1.24928e-07
1.97491e-09
-2.46331e-08
4.59949e-10
5.97028e-11
2.43551e-06
-2.55613e-07
4.18922e-06
-7.15983e-07
4.91668e-06
-1.07928e-06
4.52067e-06
-1.339e-06
3.04665e-06
-1.49975e-06
6.48699e-07
-1.56849e-06
-2.44117e-06
-1.55412e-06
-5.9427e-06
-1.46738e-06
-9.55601e-06
-1.32091e-06
-1.29884e-05
-1.12916e-06
-1.59792e-05
-9.08093e-07
-1.83196e-05
-6.74494e-07
-1.98685e-05
-4.44985e-07
-2.05605e-05
-2.34743e-07
-2.04062e-05
-5.61651e-08
-1.94855e-05
8.23066e-08
-1.79336e-05
1.76943e-07
-1.59221e-05
2.28873e-07
-1.36388e-05
2.43535e-07
-1.12671e-05
2.29504e-07
-8.87914e-06
1.96161e-07
-6.55931e-06
1.5226e-07
-4.5296e-06
1.06905e-07
-2.91787e-06
6.79312e-08
-1.71893e-06
3.88598e-08
-8.95882e-07
1.96227e-08
-3.89195e-07
8.45765e-09
-1.25499e-07
2.92516e-09
-2.47466e-08
7.25077e-10
1.00997e-10
2.55916e-06
-3.07568e-07
4.42192e-06
-8.61568e-07
5.24042e-06
-1.29898e-06
4.91873e-06
-1.61216e-06
3.5032e-06
-1.80671e-06
1.14805e-06
-1.89101e-06
-1.91514e-06
-1.87561e-06
-5.40677e-06
-1.77323e-06
-9.02734e-06
-1.59879e-06
-1.24839e-05
-1.36939e-06
-1.55145e-05
-1.10396e-06
-1.7908e-05
-8.22489e-07
-1.95199e-05
-5.44885e-07
-2.02803e-05
-2.8945e-07
-2.01953e-05
-7.12975e-08
-1.93401e-05
9.90861e-08
-1.78461e-05
2.16798e-07
-1.5882e-05
2.82762e-07
-1.36342e-05
3.03142e-07
-1.12859e-05
2.87999e-07
-8.90903e-06
2.48323e-07
-6.59025e-06
1.94495e-07
-4.55609e-06
1.37946e-07
-2.93737e-06
8.879e-08
-1.73135e-06
5.16511e-08
-9.02595e-07
2.66555e-08
-3.92126e-07
1.18123e-08
-1.26433e-07
4.23066e-09
-2.49319e-08
1.09877e-09
1.61294e-10
2.70519e-06
-3.59887e-07
4.69726e-06
-1.00821e-06
5.62435e-06
-1.52042e-06
5.3922e-06
-1.88781e-06
4.04844e-06
-2.11705e-06
1.74755e-06
-2.21792e-06
-1.27948e-06
-2.20262e-06
-4.75408e-06
-2.08573e-06
-8.37761e-06
-1.88436e-06
-1.18574e-05
-1.61809e-06
-1.49303e-05
-1.30867e-06
-1.73832e-05
-9.79199e-07
-1.9068e-05
-6.52764e-07
-1.99101e-05
-3.50792e-07
-1.99101e-05
-9.11779e-08
-1.91377e-05
1.134e-07
-1.77191e-05
2.56653e-07
-1.58193e-05
3.39054e-07
-1.36219e-05
3.67246e-07
-1.13093e-05
3.52576e-07
-8.95014e-06
3.07341e-07
-6.63293e-06
2.4333e-07
-4.59238e-06
1.74598e-07
-2.9641e-06
1.14011e-07
-1.74842e-06
6.75419e-08
-9.11826e-07
3.56555e-08
-3.96145e-07
1.62382e-08
-1.27702e-07
6.00247e-09
-2.51762e-08
1.61566e-09
2.4718e-10
2.87445e-06
-4.12621e-07
5.01653e-06
-1.15606e-06
6.06982e-06
-1.74383e-06
5.94251e-06
-2.16628e-06
4.68405e-06
-2.43124e-06
2.4494e-06
-2.54991e-06
-5.31197e-07
-2.5361e-06
-3.98056e-06
-2.40617e-06
-7.60144e-06
-2.17925e-06
-1.11019e-05
-1.87726e-06
-1.42185e-05
-1.5246e-06
-1.6736e-05
-1.14728e-06
-1.85028e-05
-7.71471e-07
-1.94393e-05
-4.21667e-07
-1.95401e-05
-1.18581e-07
-1.88684e-05
1.22781e-07
-1.75442e-05
2.94524e-07
-1.57271e-05
3.96381e-07
-1.35969e-05
4.3517e-07
-1.13343e-05
4.23244e-07
-9.00086e-06
3.73773e-07
-6.68622e-06
2.99607e-07
-4.63733e-06
2.17754e-07
-2.99701e-06
1.44406e-07
-1.76923e-06
8.71891e-08
-9.22887e-07
4.70829e-08
-4.00816e-07
2.20052e-08
-1.29107e-07
8.36479e-09
-2.54246e-08
2.31704e-09
3.66242e-10
3.06794e-06
-4.65829e-07
5.38113e-06
-1.30526e-06
6.57824e-06
-1.96944e-06
6.57101e-06
-2.44788e-06
5.41154e-06
-2.74971e-06
3.25561e-06
-2.88762e-06
3.32617e-07
-2.87696e-06
-3.08207e-06
-2.73581e-06
-6.6932e-06
-2.48516e-06
-1.02102e-05
-2.14906e-06
-1.33698e-05
-1.75436e-06
-1.59554e-05
-1.32977e-06
-1.78118e-05
-9.04376e-07
-1.88544e-05
-5.05639e-07
-1.90712e-05
-1.57083e-07
-1.85181e-05
1.23859e-07
-1.73076e-05
3.27463e-07
-1.55927e-05
4.52412e-07
-1.35482e-05
5.05332e-07
-1.13514e-05
4.9922e-07
-9.05357e-06
4.4754e-07
-6.74398e-06
3.63711e-07
-4.686e-06
2.68024e-07
-3.03232e-06
1.80651e-07
-1.79108e-06
1.11207e-07
-9.34005e-07
6.14059e-08
-4.05149e-07
2.94046e-08
-1.30232e-07
1.14585e-08
-2.55656e-08
3.25285e-09
5.28456e-10
3.28684e-06
-5.1958e-07
5.79271e-06
-1.456e-06
7.15101e-06
-2.19747e-06
7.2788e-06
-2.73287e-06
6.23204e-06
-3.07283e-06
4.16776e-06
-3.23158e-06
1.31445e-06
-3.22605e-06
-2.05478e-06
-3.07588e-06
-5.64732e-06
-2.80377e-06
-9.17473e-06
-2.43572e-06
-1.23746e-05
-2.00074e-06
-1.50293e-05
-1.53001e-06
-1.69807e-05
-1.05532e-06
-1.81391e-05
-6.06915e-07
-1.84857e-05
-2.1107e-07
-1.80681e-05
1.12296e-07
-1.69904e-05
3.51441e-07
-1.53977e-05
5.03675e-07
-1.3458e-05
5.75019e-07
-1.13441e-05
5.78665e-07
-9.09373e-06
5.27652e-07
-6.79437e-06
4.35334e-07
-4.72917e-06
3.25571e-07
-3.06321e-06
2.23183e-07
-1.80922e-06
1.4013e-07
-9.4218e-07
7.91017e-08
-4.07513e-07
3.87683e-08
-1.30397e-07
1.54583e-08
-2.54115e-08
4.48956e-09
7.46343e-10
3.53269e-06
-5.73957e-07
6.25321e-06
-1.60847e-06
7.7894e-06
-2.42812e-06
8.06657e-06
-3.02144e-06
7.14605e-06
-3.40084e-06
5.18667e-06
-3.58223e-06
2.41598e-06
-3.58405e-06
-8.95599e-07
-3.42745e-06
-4.4588e-06
-3.13667e-06
-7.98813e-06
-2.7394e-06
-1.12228e-05
-2.26656e-06
-1.3945e-05
-1.75152e-06
-1.5994e-05
-1.22848e-06
-1.72753e-05
-7.30239e-07
-1.77628e-05
-2.85684e-07
-1.74957e-05
8.27931e-08
-1.65687e-05
3.61285e-07
-1.51174e-05
5.45425e-07
-1.33018e-05
6.40188e-07
-1.12887e-05
6.58432e-07
-9.10003e-06
6.11943e-07
-6.8199e-06
5.13241e-07
-4.75333e-06
3.89934e-07
-3.07973e-06
2.72103e-07
-1.8168e-06
1.74377e-07
-9.43088e-07
1.00679e-07
-4.05541e-07
5.05192e-08
-1.28588e-07
2.06188e-08
-2.46531e-08
6.13312e-09
1.04353e-09
3.80756e-06
-6.2907e-07
6.76502e-06
-1.76289e-06
8.49449e-06
-2.66157e-06
8.93432e-06
-3.31367e-06
8.15306e-06
-3.73384e-06
6.31199e-06
-3.93974e-06
3.63767e-06
-3.9514e-06
3.97348e-07
-3.79135e-06
-3.1238e-06
-3.48521e-06
-6.6441e-06
-3.06209e-06
-9.90528e-06
-2.55457e-06
-1.269e-05
-1.99784e-06
-1.48358e-05
-1.4282e-06
-1.62433e-05
-8.8073e-07
-1.68799e-05
-3.86675e-07
-1.67755e-05
2.91849e-08
-1.60146e-05
3.50709e-07
-1.47226e-05
5.71599e-07
-1.305e-05
6.95342e-07
-1.11559e-05
7.33886e-07
-9.04552e-06
6.9685e-07
-6.79837e-06
5.95056e-07
-4.74131e-06
4.59862e-07
-3.06919e-06
3.27067e-07
-1.80492e-06
2.14225e-07
-9.3097e-07
1.26725e-07
-3.95919e-07
6.52729e-08
-1.23246e-07
2.7379e-08
-2.27306e-08
8.39157e-09
1.47326e-09
4.11438e-06
-6.85075e-07
7.33129e-06
-1.9196e-06
9.26695e-06
-2.89799e-06
9.8811e-06
-3.60953e-06
9.25131e-06
-4.07169e-06
7.54186e-06
-4.30407e-06
4.97828e-06
-4.32823e-06
1.82417e-06
-4.16806e-06
-1.64024e-06
-3.85037e-06
-5.13801e-06
-3.40545e-06
-8.41428e-06
-2.86718e-06
-1.12531e-05
-2.2723e-06
-1.34908e-05
-1.65879e-06
-1.50242e-05
-1.06364e-06
-1.58138e-05
-5.20172e-07
-1.58806e-05
-5.53576e-08
-1.52984e-05
3.12462e-07
-1.41814e-05
5.74884e-07
-1.26695e-05
7.33525e-07
-1.09129e-05
7.98825e-07
-8.89994e-06
7.773e-07
-6.70464e-06
6.77125e-07
-4.67352e-06
5.33171e-07
-3.01677e-06
3.87174e-07
-1.76279e-06
2.59755e-07
-8.98314e-07
1.5796e-07
-3.73807e-07
8.3998e-08
-1.11684e-07
3.65769e-08
-1.84476e-08
1.17384e-08
2.1747e-09
4.45734e-06
-7.42211e-07
7.95636e-06
-2.07906e-06
1.01068e-05
-3.13758e-06
1.09047e-05
-3.9088e-06
1.04374e-05
-4.41405e-06
8.87254e-06
-4.67482e-06
6.43451e-06
-4.71428e-06
3.38276e-06
-4.55764e-06
-8.33484e-09
-4.23269e-06
-3.4676e-06
-3.77062e-06
-6.74448e-06
-3.20634e-06
-9.62534e-06
-2.57776e-06
-1.19462e-05
-1.92416e-06
-1.36006e-05
-1.28402e-06
-1.45428e-05
-6.92348e-07
-1.47852e-05
-1.78005e-07
-1.43907e-05
2.38607e-07
-1.34618e-05
5.46938e-07
-1.21271e-05
7.46455e-07
-1.05265e-05
8.45552e-07
-8.63275e-06
8.4673e-07
-6.51317e-06
7.54478e-07
-4.52961e-06
6.06636e-07
-2.90642e-06
4.50807e-07
-1.67781e-06
3.10729e-07
-8.35208e-07
1.95211e-07
-3.31518e-07
1.08179e-07
-8.84968e-08
4.98215e-08
-8.82904e-09
1.73187e-08
3.55063e-09
4.80533e-06
-7.96378e-07
8.62396e-06
-2.23536e-06
1.10194e-05
-3.37983e-06
1.20063e-05
-4.21389e-06
1.17117e-05
-4.7631e-06
1.03043e-05
-5.05431e-06
8.0074e-06
-5.11206e-06
5.0757e-06
-4.96285e-06
1.77656e-06
-4.63533e-06
-1.62575e-06
-4.16126e-06
-4.88585e-06
-3.57628e-06
-7.7933e-06
-2.91916e-06
-1.01848e-05
-2.23009e-06
-1.19515e-05
-1.54856e-06
-1.30423e-05
-9.10835e-07
-1.34609e-05
-3.47282e-07
-1.32601e-05
1.19896e-07
-1.25305e-05
4.78095e-07
-1.13889e-05
7.24519e-07
-9.9643e-06
8.6513e-07
-8.21487e-06
8.97565e-07
-6.19945e-06
8.21373e-07
-4.28939e-06
6.76433e-07
-2.7212e-06
5.15956e-07
-1.53517e-06
3.66815e-07
-7.27827e-07
2.3967e-07
-2.55317e-07
1.40285e-07
-3.98499e-08
7.04729e-08
1.86744e-08
2.87202e-08
7.17414e-09
5.32808e-08
-5.44715e-10
2.7423e-07
-3.4454e-09
8.71811e-07
-1.26537e-08
2.0504e-06
-3.35902e-08
3.99317e-06
-7.22389e-08
6.83784e-06
-1.34592e-07
1.06577e-05
-2.25915e-07
1.54513e-05
-3.50005e-07
2.11427e-05
-5.08713e-07
2.71932e-05
-6.88919e-07
3.31133e-05
-8.64741e-07
3.89104e-05
-1.02697e-06
4.4482e-05
-1.17835e-06
4.96006e-05
-1.31527e-06
5.40577e-05
-1.43207e-06
5.76749e-05
-1.52489e-06
6.03114e-05
-1.59188e-06
6.18684e-05
-1.63298e-06
6.22899e-05
-1.64937e-06
6.15608e-05
-1.64272e-06
5.9701e-05
-1.61459e-06
5.67571e-05
-1.56576e-06
5.27914e-05
-1.49592e-06
4.78697e-05
-1.40349e-06
4.205e-05
-1.28568e-06
3.53707e-05
-1.1387e-06
2.78424e-05
-9.58013e-07
1.94414e-05
-7.38632e-07
1.01034e-05
-4.75254e-07
-1.66998e-07
5.40092e-08
-1.07886e-09
2.77848e-07
-6.8889e-09
8.82306e-07
-2.52162e-08
2.07255e-06
-6.68538e-08
4.03172e-06
-1.43641e-07
6.89658e-06
-2.67412e-07
1.07385e-05
-4.48539e-07
1.55528e-05
-6.9441e-07
2.12524e-05
-1.00826e-06
2.73349e-05
-1.36521e-06
3.3286e-05
-1.71479e-06
3.90812e-05
-2.03689e-06
4.46519e-05
-2.3371e-06
4.97672e-05
-2.60933e-06
5.42172e-05
-2.84203e-06
5.78234e-05
-3.02744e-06
6.04455e-05
-3.16181e-06
6.19852e-05
-3.24495e-06
6.23876e-05
-3.27908e-06
6.16386e-05
-3.26747e-06
5.97594e-05
-3.21306e-06
5.67976e-05
-3.11733e-06
5.28164e-05
-2.97954e-06
4.78825e-05
-2.79648e-06
4.20539e-05
-2.56254e-06
3.53692e-05
-2.27015e-06
2.78386e-05
-1.91025e-06
1.94379e-05
-1.47294e-06
1.01017e-05
-9.47707e-07
-3.32986e-07
5.47148e-08
-1.60501e-09
2.81291e-07
-1.02489e-08
8.92008e-07
-3.73606e-08
2.09215e-06
-9.88642e-08
4.06389e-06
-2.12123e-07
6.9422e-06
-3.94449e-07
1.07963e-05
-6.60974e-07
1.56191e-05
-1.02236e-06
2.13214e-05
-1.48282e-06
2.74198e-05
-2.00752e-06
3.33817e-05
-2.52393e-06
3.91674e-05
-3.0004e-06
4.47312e-05
-3.44485e-06
4.98404e-05
-3.84944e-06
5.42843e-05
-4.19676e-06
5.78836e-05
-4.47508e-06
6.04979e-05
-4.6786e-06
6.20289e-05
-4.8067e-06
6.24222e-05
-4.86235e-06
6.16641e-05
-4.85008e-06
5.97766e-05
-4.77392e-06
5.68078e-05
-4.63577e-06
5.28213e-05
-4.43434e-06
4.78838e-05
-4.16469e-06
4.20533e-05
-3.8184e-06
3.53679e-05
-3.38415e-06
2.78376e-05
-2.84851e-06
1.94376e-05
-2.19679e-06
1.0102e-05
-1.4135e-06
-4.96629e-07
5.52314e-08
-2.10547e-09
2.83748e-07
-1.34172e-08
8.98595e-07
-4.87277e-08
2.1043e-06
-1.28674e-07
4.08109e-06
-2.75635e-07
6.96152e-06
-5.11877e-07
1.08129e-05
-8.56822e-07
1.56278e-05
-1.32406e-06
2.13208e-05
-1.9187e-06
2.74112e-05
-2.59766e-06
3.33615e-05
-3.26957e-06
3.91332e-05
-3.89211e-06
4.4687e-05
-4.47469e-06
4.97904e-05
-5.00768e-06
5.42321e-05
-5.46804e-06
5.7832e-05
-5.84002e-06
6.04485e-05
-6.1155e-06
6.1983e-05
-6.29307e-06
6.23805e-05
-6.37596e-06
6.16276e-05
-6.36943e-06
5.97459e-05
-6.2782e-06
5.67835e-05
-6.10425e-06
5.28036e-05
-5.8455e-06
4.78726e-05
-5.4952e-06
4.20479e-05
-5.04214e-06
3.53672e-05
-4.47138e-06
2.78399e-05
-3.76528e-06
1.94409e-05
-2.9046e-06
1.01044e-05
-1.86915e-06
-6.56734e-07
5.57316e-08
-2.56402e-09
2.8607e-07
-1.63088e-08
9.04576e-07
-5.9054e-08
2.11444e-06
-1.55616e-07
4.0932e-06
-3.32772e-07
6.97049e-06
-6.17118e-07
1.08118e-05
-1.03185e-06
1.56097e-05
-1.59317e-06
2.12816e-05
-2.30696e-06
2.73519e-05
-3.12378e-06
3.32845e-05
-3.93722e-06
3.90415e-05
-4.69572e-06
4.4586e-05
-5.40909e-06
4.96858e-05
-6.06563e-06
5.41287e-05
-6.63694e-06
5.77334e-05
-7.10325e-06
6.03572e-05
-7.45388e-06
6.19006e-05
-7.68614e-06
6.23082e-05
-7.80298e-06
6.15661e-05
-7.80983e-06
5.96958e-05
-7.71154e-06
5.6745e-05
-7.5098e-06
5.27765e-05
-7.20146e-06
4.7856e-05
-6.77785e-06
4.20402e-05
-6.22498e-06
3.53663e-05
-5.52443e-06
2.78432e-05
-4.65458e-06
1.94455e-05
-3.59191e-06
1.01076e-05
-2.31188e-06
-8.12334e-07
5.6259e-08
-2.9708e-09
2.88447e-07
-1.88658e-08
9.10399e-07
-6.81587e-08
2.12333e-06
-1.79234e-07
4.10131e-06
-3.82577e-07
6.97055e-06
-7.0845e-07
1.07946e-05
-1.18329e-06
1.55663e-05
-1.82558e-06
2.12057e-05
-2.64192e-06
2.72454e-05
-3.5784e-06
3.31555e-05
-4.51767e-06
3.88972e-05
-5.40065e-06
4.44335e-05
-6.2364e-06
4.95318e-05
-7.01069e-06
5.3979e-05
-7.69017e-06
5.75922e-05
-8.25107e-06
6.02275e-05
-8.67991e-06
6.17844e-05
-8.9723e-06
6.22069e-05
-9.13027e-06
6.14807e-05
-9.15881e-06
5.96268e-05
-9.06232e-06
5.66924e-05
-8.84171e-06
5.27397e-05
-8.49248e-06
4.78336e-05
-8.00391e-06
4.20298e-05
-7.35925e-06
3.53649e-05
-6.53676e-06
2.78471e-05
-5.51106e-06
1.94512e-05
-4.2547e-06
1.01116e-05
-2.73914e-06
-9.62549e-07
5.68669e-08
-3.3217e-09
2.91142e-07
-2.10615e-08
9.16736e-07
-7.59559e-08
2.13221e-06
-1.99307e-07
4.10742e-06
-4.24601e-07
6.9647e-06
-7.85102e-07
1.07655e-05
-1.30997e-06
1.55031e-05
-2.01966e-06
2.10998e-05
-2.92144e-06
2.70999e-05
-3.95874e-06
3.29839e-05
-5.00729e-06
3.87105e-05
-6.00235e-06
4.42395e-05
-6.9511e-06
4.93379e-05
-7.83638e-06
5.37912e-05
-8.62034e-06
5.74153e-05
-9.27535e-06
6.00648e-05
-9.78494e-06
6.16384e-05
-1.01426e-05
6.20793e-05
-1.03487e-05
6.13729e-05
-1.04074e-05
5.95396e-05
-1.03218e-05
5.6626e-05
-1.00917e-05
5.26931e-05
-9.71079e-06
4.78049e-05
-9.16623e-06
4.20162e-05
-8.43853e-06
3.53624e-05
-7.50277e-06
2.78513e-05
-6.33011e-06
1.94575e-05
-4.88945e-06
1.0116e-05
-3.14869e-06
-1.1066e-06
5.76403e-08
-3.61705e-09
2.94586e-07
-2.2903e-08
9.2473e-07
-8.24619e-08
2.14332e-06
-2.1587e-07
4.1153e-06
-4.58935e-07
6.95867e-06
-8.47309e-07
1.07327e-05
-1.4124e-06
1.54308e-05
-2.17633e-06
2.09773e-05
-3.14694e-06
2.69311e-05
-4.26663e-06
3.27865e-05
-5.40792e-06
3.8498e-05
-6.50215e-06
4.40197e-05
-7.55371e-06
4.91181e-05
-8.54224e-06
5.35775e-05
-9.42591e-06
5.72125e-05
-1.01735e-05
5.98768e-05
-1.07654e-05
6.14682e-05
-1.11926e-05
6.19295e-05
-1.14534e-05
6.12454e-05
-1.15501e-05
5.94358e-05
-1.14843e-05
5.65463e-05
-1.12539e-05
5.26368e-05
-1.08507e-05
4.77699e-05
-1.02593e-05
4.19989e-05
-9.4577e-06
3.53583e-05
-8.41789e-06
2.78553e-05
-7.10782e-06
1.94643e-05
-5.49316e-06
1.01209e-05
-3.5386e-06
-1.2438e-06
5.87265e-08
-3.86378e-09
2.995e-07
-2.44303e-08
9.36296e-07
-8.7798e-08
2.16041e-06
-2.29229e-07
4.13118e-06
-4.86242e-07
6.96188e-06
-8.96334e-07
1.07093e-05
-1.49273e-06
1.53665e-05
-2.29892e-06
2.08592e-05
-3.32322e-06
2.67624e-05
-4.50824e-06
3.25874e-05
-5.72637e-06
3.82829e-05
-6.90671e-06
4.37954e-05
-8.0502e-06
4.88909e-05
-9.13327e-06
5.33534e-05
-1.01108e-05
5.69965e-05
-1.09481e-05
5.96732e-05
-1.16226e-05
6.12811e-05
-1.21224e-05
6.17625e-05
-1.24433e-05
6.11017e-05
-1.2585e-05
5.93176e-05
-1.25471e-05
5.64546e-05
-1.23251e-05
5.25713e-05
-1.19084e-05
4.77284e-05
-1.12793e-05
4.19777e-05
-1.0413e-05
3.53524e-05
-9.27855e-06
2.78587e-05
-7.8411e-06
1.94711e-05
-6.06337e-06
1.0126e-05
-3.90727e-06
-1.37359e-06
6.03906e-08
-4.07022e-09
3.07101e-07
-2.57141e-08
9.54563e-07
-9.21962e-08
2.1894e-06
-2.39973e-07
4.16459e-06
-5.07759e-07
6.98808e-06
-9.34438e-07
1.07137e-05
-1.55466e-06
1.53335e-05
-2.39301e-06
2.07736e-05
-3.45804e-06
2.6625e-05
-4.69341e-06
3.24177e-05
-5.97367e-06
3.80941e-05
-7.22712e-06
4.35922e-05
-8.45114e-06
4.86787e-05
-9.61915e-06
5.31374e-05
-1.06834e-05
5.6782e-05
-1.16063e-05
5.94657e-05
-1.23622e-05
6.10858e-05
-1.29362e-05
6.15847e-05
-1.33209e-05
6.09459e-05
-1.35134e-05
5.91876e-05
-1.35102e-05
5.63525e-05
-1.33043e-05
5.24973e-05
-1.28824e-05
4.76807e-05
-1.22241e-05
4.19525e-05
-1.13018e-05
3.53443e-05
-1.00822e-05
2.78612e-05
-8.5276e-06
1.94778e-05
-6.59817e-06
1.01312e-05
-4.25342e-06
-1.49552e-06
6.31319e-08
-4.24902e-09
3.19482e-07
-2.68569e-08
9.8457e-07
-9.60245e-08
2.2393e-06
-2.49018e-07
4.2291e-06
-5.25328e-07
7.05581e-06
-9.64833e-07
1.07696e-05
-1.60326e-06
1.5361e-05
-2.46599e-06
2.0755e-05
-3.56158e-06
2.65559e-05
-4.83489e-06
3.23128e-05
-6.16395e-06
3.79636e-05
-7.47771e-06
4.34385e-05
-8.77049e-06
4.85055e-05
-1.00131e-05
5.29495e-05
-1.11559e-05
5.65852e-05
-1.21589e-05
5.92666e-05
-1.29934e-05
6.08916e-05
-1.36413e-05
6.14027e-05
-1.40921e-05
6.07828e-05
-1.43393e-05
5.90489e-05
-1.43762e-05
5.62419e-05
-1.41927e-05
5.2416e-05
-1.37727e-05
4.76274e-05
-1.30928e-05
4.19234e-05
-1.2123e-05
3.53338e-05
-1.08273e-05
2.78626e-05
-9.16574e-06
1.9484e-05
-7.09616e-06
1.01362e-05
-4.57609e-06
-1.60923e-06
6.79702e-08
-4.41506e-09
3.40429e-07
-2.8013e-08
1.03454e-06
-9.98621e-08
2.32343e-06
-2.57713e-07
4.34321e-06
-5.41463e-07
7.18845e-06
-9.91634e-07
1.09053e-05
-1.64471e-06
1.54826e-05
-2.52668e-06
2.08425e-05
-3.64588e-06
2.6596e-05
-4.9476e-06
3.231e-05
-6.31339e-06
3.79244e-05
-7.67475e-06
4.33628e-05
-9.02433e-06
4.83955e-05
-1.03308e-05
5.28095e-05
-1.15432e-05
5.64219e-05
-1.26193e-05
5.90883e-05
-1.3528e-05
6.07079e-05
-1.42479e-05
6.12235e-05
-1.47649e-05
6.06174e-05
-1.50689e-05
5.89051e-05
-1.51496e-05
5.61251e-05
-1.49934e-05
5.23287e-05
-1.45809e-05
4.7569e-05
-1.38862e-05
4.18907e-05
-1.28764e-05
3.53209e-05
-1.15133e-05
2.78626e-05
-9.7546e-06
1.94896e-05
-7.55646e-06
1.0141e-05
-4.87463e-06
-1.71447e-06
7.72914e-08
-4.59787e-09
3.77318e-07
-2.9485e-08
1.11839e-06
-1.04706e-07
2.46166e-06
-2.68073e-07
4.53141e-06
-5.59525e-07
7.4141e-06
-1.01986e-06
1.11523e-05
-1.68605e-06
1.57344e-05
-2.5848e-06
2.10794e-05
-3.72446e-06
2.67879e-05
-5.0482e-06
3.24442e-05
-6.43907e-06
3.80063e-05
-7.83493e-06
4.33912e-05
-9.22957e-06
4.83709e-05
-1.05891e-05
5.27358e-05
-1.18613e-05
5.63067e-05
-1.30026e-05
5.89423e-05
-1.39796e-05
6.05435e-05
-1.47678e-05
6.10536e-05
-1.53494e-05
6.04545e-05
-1.57105e-05
5.87595e-05
-1.58367e-05
5.60043e-05
-1.57108e-05
5.22369e-05
-1.53102e-05
4.75065e-05
-1.46059e-05
4.18546e-05
-1.35627e-05
3.53057e-05
-1.214e-05
2.7861e-05
-1.02938e-05
1.94943e-05
-7.97857e-06
1.01454e-05
-5.14861e-06
-1.8111e-06
9.7912e-08
-4.98696e-09
4.46181e-07
-3.20782e-08
1.26079e-06
-1.12447e-07
2.6838e-06
-2.83282e-07
4.82568e-06
-5.84122e-07
7.76508e-06
-1.05559e-06
1.15429e-05
-1.73491e-06
1.61524e-05
-2.6503e-06
2.15152e-05
-3.8125e-06
2.71761e-05
-5.1558e-06
3.27425e-05
-6.55792e-06
3.82338e-05
-7.97363e-06
4.35461e-05
-9.40293e-06
4.84505e-05
-1.08051e-05
5.27436e-05
-1.21269e-05
5.62518e-05
-1.33245e-05
5.88381e-05
-1.43625e-05
6.04059e-05
-1.52137e-05
6.0899e-05
-1.58565e-05
6.02985e-05
-1.62728e-05
5.86153e-05
-1.64444e-05
5.58819e-05
-1.63501e-05
5.2142e-05
-1.59641e-05
4.74407e-05
-1.52543e-05
4.18156e-05
-1.41832e-05
3.52882e-05
-1.27082e-05
2.78579e-05
-1.07835e-05
1.94979e-05
-8.36231e-06
1.01492e-05
-5.39782e-06
-1.899e-06
1.63068e-07
-8.65277e-09
5.96506e-07
-3.89184e-08
1.51631e-06
-1.2815e-07
3.04284e-06
-3.09907e-07
5.27488e-06
-6.23001e-07
8.28498e-06
-1.10744e-06
1.2115e-05
-1.80043e-06
1.67732e-05
-2.73305e-06
2.21607e-05
-3.91222e-06
2.7754e-05
-5.26169e-06
3.32173e-05
-6.66871e-06
3.86291e-05
-8.10399e-06
4.38489e-05
-9.56282e-06
4.86514e-05
-1.09983e-05
5.28459e-05
-1.23594e-05
5.62674e-05
-1.36039e-05
5.87836e-05
-1.46951e-05
6.03008e-05
-1.5603e-05
6.07638e-05
-1.63023e-05
6.01523e-05
-1.67708e-05
5.84747e-05
-1.69862e-05
5.57593e-05
-1.69234e-05
5.2045e-05
-1.65531e-05
4.73722e-05
-1.58406e-05
4.17741e-05
-1.47457e-05
3.52686e-05
-1.32241e-05
2.78531e-05
-1.12287e-05
1.95003e-05
-8.71129e-06
1.01523e-05
-5.62447e-06
-1.97893e-06
5.28765e-06
-8.43811e-07
9.60851e-06
-2.37729e-06
1.24433e-05
-3.61489e-06
1.3708e-05
-4.52563e-06
1.35884e-05
-5.125e-06
1.23049e-05
-5.44861e-06
1.00841e-05
-5.52805e-06
7.18498e-06
-5.3907e-06
3.87634e-06
-5.06581e-06
4.239e-07
-4.58534e-06
-2.92357e-06
-3.98539e-06
-5.95181e-06
-3.30535e-06
-8.49294e-06
-2.58591e-06
-1.04326e-05
-1.86712e-06
-1.17126e-05
-1.18602e-06
-1.23291e-05
-5.74092e-07
-1.23262e-05
-5.49975e-08
-1.17865e-05
3.56834e-07
-1.08191e-05
6.56442e-07
-9.54597e-06
8.47244e-07
-7.91036e-06
9.21434e-07
-5.95987e-06
8.71946e-07
-4.08212e-06
7.38919e-07
-2.53395e-06
5.80909e-07
-1.3637e-06
4.28258e-07
-5.72971e-07
2.93554e-07
-1.19947e-07
1.84372e-07
7.36853e-08
1.03964e-07
1.11e-07
5.18623e-08
2.38345e-08
8.04156e-08
5.65404e-06
-8.87977e-07
1.03889e-05
-2.50509e-06
1.37121e-05
-3.82733e-06
1.53883e-05
-4.82648e-06
1.55112e-05
-5.49636e-06
1.43885e-05
-5.86096e-06
1.23003e-05
-5.96502e-06
9.50126e-06
-5.8445e-06
6.25508e-06
-5.52824e-06
2.82311e-06
-5.04764e-06
-5.45903e-07
-4.43908e-06
-3.63764e-06
-3.7425e-06
-6.28296e-06
-2.99865e-06
-8.36413e-06
-2.24767e-06
-9.81743e-06
-1.52693e-06
-1.06315e-05
-8.6859e-07
-1.08417e-05
-2.97391e-07
-1.05215e-05
1.70783e-07
-9.77097e-06
5.29211e-07
-8.70403e-06
7.79258e-07
-7.252e-06
9.08088e-07
-5.43668e-06
8.99188e-07
-3.64678e-06
7.89045e-07
-2.16156e-06
6.42085e-07
-1.03591e-06
4.93328e-07
-2.76337e-07
3.57012e-07
1.56243e-07
2.42403e-07
3.38311e-07
1.53916e-07
3.73127e-07
9.18539e-08
5.34652e-08
3.74081e-07
6.02593e-06
-9.31467e-07
1.11195e-05
-2.62776e-06
1.48749e-05
-4.01985e-06
1.70741e-05
-5.09601e-06
1.76151e-05
-5.85279e-06
1.67222e-05
-6.28483e-06
1.47858e-05
-6.42437e-06
1.21164e-05
-6.3252e-06
8.96145e-06
-6.0245e-06
5.57456e-06
-5.55074e-06
2.20659e-06
-4.94056e-06
-9.28993e-07
-4.23476e-06
-3.66298e-06
-3.47362e-06
-5.87506e-06
-2.69684e-06
-7.49665e-06
-1.9417e-06
-8.5094e-06
-1.24063e-06
-8.94038e-06
-6.19084e-07
-8.85439e-06
-9.39754e-08
-8.34437e-06
3.26859e-07
-7.5196e-06
6.44168e-07
-6.3127e-06
8.4419e-07
-4.67622e-06
8.94989e-07
-2.98675e-06
8.19116e-07
-1.57594e-06
6.91344e-07
-4.96585e-07
5.54988e-07
2.39082e-07
4.24327e-07
6.69599e-07
3.10314e-07
8.71792e-07
2.18219e-07
9.51825e-07
1.49479e-07
1.02318e-07
1.0212e-06
6.42847e-06
-9.73726e-07
1.18877e-05
-2.74792e-06
1.59947e-05
-4.20546e-06
1.86507e-05
-5.34051e-06
1.97432e-05
-6.17078e-06
1.92734e-05
-6.69142e-06
1.75615e-05
-6.89871e-06
1.50492e-05
-6.83524e-06
1.20185e-05
-6.55721e-06
8.70164e-06
-6.09774e-06
5.35993e-06
-5.4932e-06
2.20374e-06
-4.78642e-06
-5.99284e-07
-4.01622e-06
-2.92695e-06
-3.22132e-06
-4.70647e-06
-2.43858e-06
-5.91298e-06
-1.70038e-06
-6.56551e-06
-1.03262e-06
-6.72053e-06
-4.52994e-07
-6.46434e-06
2.97629e-08
-5.90538e-06
4.16294e-07
-4.99729e-06
6.95252e-07
-3.59902e-06
8.2608e-07
-2.03035e-06
8.10645e-07
-6.88709e-07
7.17261e-07
3.53042e-07
5.99924e-07
1.07905e-06
4.82278e-07
1.53545e-06
3.75863e-07
1.80182e-06
2.85494e-07
1.98743e-06
2.1412e-07
1.60181e-07
2.18462e-06
6.86215e-06
-1.01462e-06
1.27232e-05
-2.86454e-06
1.7189e-05
-4.38749e-06
2.02045e-05
-5.57714e-06
2.17775e-05
-6.45932e-06
2.18778e-05
-7.05299e-06
2.05903e-05
-7.35282e-06
1.83263e-05
-7.36543e-06
1.54531e-05
-7.13035e-06
1.22276e-05
-6.6911e-06
8.94107e-06
-6.09885e-06
5.79203e-06
-5.40041e-06
2.94413e-06
-4.63052e-06
5.21588e-07
-3.82644e-06
-1.39948e-06
-3.02449e-06
-2.78784e-06
-2.25675e-06
-3.65431e-06
-1.54952e-06
-4.04601e-06
-9.21346e-07
-4.0397e-06
-3.82475e-07
-3.73569e-06
6.51587e-08
-3.09758e-06
4.06303e-07
-1.98159e-06
6.10042e-07
-6.22675e-07
6.8338e-07
6.17033e-07
6.68939e-07
1.62184e-06
6.02504e-07
2.36053e-06
5.11675e-07
2.87513e-06
4.17692e-07
3.24759e-06
3.33758e-07
3.58567e-06
2.6364e-07
2.04862e-07
3.94733e-06
7.33064e-06
-1.05398e-06
1.36282e-05
-2.97713e-06
1.84944e-05
-4.56422e-06
2.18752e-05
-5.80975e-06
2.3821e-05
-6.73953e-06
2.44162e-05
-7.38079e-06
2.36914e-05
-7.75152e-06
2.18565e-05
-7.85678e-06
1.92512e-05
-7.70622e-06
1.61778e-05
-7.323e-06
1.29731e-05
-6.75922e-06
9.86479e-06
-6.07797e-06
7.0008e-06
-5.31885e-06
4.51023e-06
-4.51559e-06
2.47068e-06
-3.70426e-06
9.20147e-07
-2.91638e-06
-1.43569e-07
-2.17887e-06
-7.56584e-07
-1.51109e-06
-9.81591e-07
-9.25164e-07
-8.98903e-07
-4.26753e-07
-4.57343e-07
-3.60999e-08
4.01809e-07
2.24605e-07
1.47791e-06
3.76067e-07
2.53129e-06
4.54667e-07
3.45983e-06
4.78415e-07
4.21598e-06
4.56336e-07
4.81174e-06
4.01668e-07
5.31771e-06
3.33358e-07
5.83061e-06
2.65487e-07
2.03014e-07
6.36972e-06
7.83716e-06
-1.09156e-06
1.4609e-05
-3.08502e-06
1.99135e-05
-4.73469e-06
2.37045e-05
-6.03595e-06
2.60285e-05
-7.01603e-06
2.7007e-05
-7.70121e-06
2.67673e-05
-8.11737e-06
2.54385e-05
-8.2851e-06
2.32773e-05
-8.22409e-06
2.05242e-05
-7.94399e-06
1.74802e-05
-7.4598e-06
1.44483e-05
-6.82045e-06
1.16002e-05
-6.08149e-06
9.0761e-06
-5.28961e-06
6.94807e-06
-4.48001e-06
5.26321e-06
-3.68261e-06
4.02773e-06
-2.92602e-06
3.21716e-06
-2.22976e-06
2.78425e-06
-1.6073e-06
2.66888e-06
-1.06665e-06
2.92415e-06
-6.26596e-07
3.56208e-06
-3.07192e-07
4.38874e-06
-9.14599e-08
5.23291e-06
5.73366e-08
6.04277e-06
1.59014e-07
6.78794e-06
2.17481e-07
7.46659e-06
2.36308e-07
8.11678e-06
2.19914e-07
8.80759e-06
1.75488e-07
1.15505e-07
9.51943e-06
8.38444e-06
-1.12706e-06
1.56708e-05
-3.1874e-06
2.14539e-05
-4.8976e-06
2.56955e-05
-6.25414e-06
2.84463e-05
-7.2857e-06
2.98201e-05
-8.01983e-06
2.99814e-05
-8.48271e-06
2.90941e-05
-8.69813e-06
2.74111e-05
-8.69631e-06
2.51187e-05
-8.50344e-06
2.23971e-05
-8.12718e-06
1.95404e-05
-7.5824e-06
1.67759e-05
-6.90827e-06
1.42566e-05
-6.15059e-06
1.2075e-05
-5.35166e-06
1.02914e-05
-4.55503e-06
8.91691e-06
-3.79195e-06
7.93811e-06
-3.0796e-06
7.32218e-06
-2.43225e-06
7.02346e-06
-1.85968e-06
7.07641e-06
-1.3772e-06
7.49103e-06
-1.00007e-06
8.10628e-06
-7.17186e-07
8.77853e-06
-5.03666e-07
9.47739e-06
-3.45611e-07
1.01929e-05
-2.33145e-07
1.09346e-05
-1.56545e-07
1.17203e-05
-1.14626e-07
1.25916e-05
-1.08467e-07
-1.30149e-07
1.34857e-05
8.97509e-06
-1.1602e-06
1.68188e-05
-3.2834e-06
2.31231e-05
-5.05164e-06
2.78584e-05
-6.4626e-06
3.10801e-05
-7.54644e-06
3.29043e-05
-8.33196e-06
3.34916e-05
-8.84637e-06
3.3027e-05
-9.11569e-06
3.17565e-05
-9.1673e-06
2.98955e-05
-9.03147e-06
2.75854e-05
-8.73168e-06
2.50496e-05
-8.28719e-06
2.24958e-05
-7.72124e-06
2.00702e-05
-7.0534e-06
1.78945e-05
-6.30744e-06
1.60504e-05
-5.53034e-06
1.45758e-05
-4.77236e-06
1.34619e-05
-4.05731e-06
1.2691e-05
-3.39748e-06
1.22294e-05
-2.80473e-06
1.20914e-05
-2.29002e-06
1.22841e-05
-1.86253e-06
1.26949e-05
-1.51835e-06
1.32174e-05
-1.24566e-06
1.38264e-05
-1.03533e-06
1.45145e-05
-8.7957e-07
1.52935e-05
-7.7098e-07
1.61851e-05
-7.01571e-07
1.72201e-05
-6.64831e-07
-6.59291e-07
1.82891e-05
9.61152e-06
-1.19058e-06
1.80577e-05
-3.37193e-06
2.49281e-05
-5.19507e-06
3.02023e-05
-6.65899e-06
3.39412e-05
-7.79531e-06
3.62629e-05
-8.63403e-06
3.73281e-05
-9.20339e-06
3.73269e-05
-9.53048e-06
3.64783e-05
-9.64252e-06
3.50047e-05
-9.56696e-06
3.30815e-05
-9.32849e-06
3.09115e-05
-8.95584e-06
2.86597e-05
-8.47884e-06
2.64621e-05
-7.91982e-06
2.44115e-05
-7.28478e-06
2.25791e-05