/*--------------------------------*- C++ -*----------------------------------*\
| =========                 |                                                 |
| \\      /  F ield         | OpenFOAM: The Open Source CFD Toolbox           |
|  \\    /   O peration     | Version:  dev                                   |
|   \\  /    A nd           | Web:      www.OpenFOAM.org                      |
|    \\/     M anipulation  |                                                 |
\*---------------------------------------------------------------------------*/
FoamFile
{
    version     2.0;
    format      ascii;
    class       volVectorField;
    location    "4.14";
    object      U;
}
// * * * * * * * * * * * * * * * * * * * * * * * * * * * * * * * * * * * * * //

dimensions      [0 1 -1 0 0 0 0];

internalField   nonuniform List<vector> 
2790
(
(9.9384 -3.21247e-22 0.019397)
(9.87126 3.29153e-22 0.0282015)
(9.77432 0 0.0344087)
(9.65161 0 0.0406863)
(9.50985 -7.23276e-22 0.0471945)
(9.35076 7.37409e-22 0.0539224)
(9.17351 -7.66649e-22 0.0610086)
(8.97703 3.98321e-21 0.0686175)
(8.76036 -3.27379e-21 0.0768921)
(8.52249 -8.5679e-21 0.0859637)
(8.26223 7.0459e-21 0.095965)
(7.97815 0 0.107033)
(7.66873 1.54324e-20 0.11931)
(7.33236 -1.58577e-20 0.132936)
(6.96738 -1.67634e-20 0.148044)
(6.57221 1.29003e-20 0.164747)
(6.14544 0 0.183122)
(5.68602 0 0.203183)
(5.19343 0 0.224849)
(4.66797 1.03268e-20 0.247902)
(4.11109 5.42238e-20 0.271942)
(3.52573 4.47865e-20 0.296319)
(2.91671 -1.17405e-20 0.320076)
(2.29112 1.2223e-20 0.341871)
(1.65848 0 0.359996)
(1.02943 1.31604e-20 0.373563)
(0.426201 9.52567e-20 0.386455)
(-0.377148 -2.37264e-19 -0.0599066)
(-0.29599 9.95725e-20 -0.334535)
(-0.0940889 0 -0.391108)
(9.99503 3.21129e-22 0.0392704)
(9.98104 -3.28818e-22 0.0599117)
(9.93991 -2.70596e-21 0.0756707)
(9.87211 8.34801e-21 0.0920781)
(9.7831 -1.07471e-20 0.109503)
(9.67467 1.25668e-20 0.127851)
(9.54619 -1.75881e-20 0.147388)
(9.39665 1.02119e-20 0.168471)
(9.22515 1.31478e-20 0.191416)
(9.03071 -1.51783e-20 0.216513)
(8.81216 -2.83029e-20 0.244047)
(8.56809 2.90431e-20 0.274306)
(8.29698 3.79305e-21 0.307569)
(7.99717 -2.3938e-20 0.344082)
(7.66695 3.26906e-20 0.384038)
(7.30462 4.29035e-21 0.42753)
(6.90861 0 0.47449)
(6.47761 0 0.524617)
(6.01082 -7.84782e-20 0.577275)
(5.50815 7.05928e-20 0.631382)
(4.97062 -3.17898e-20 0.685273)
(4.40073 2.20842e-20 0.73657)
(3.80297 1.96793e-19 0.782033)
(3.18441 -2.02925e-19 0.817406)
(2.55575 -1.99728e-19 0.837207)
(1.93443 1.9289e-19 0.833924)
(1.33867 -4.12974e-19 0.79422)
(0.795145 4.25647e-19 0.618271)
(0.362366 -4.5336e-19 0.333263)
(0.0878927 4.66923e-19 -0.34096)
(9.9921 1.28095e-21 0.0421748)
(9.97512 0 0.0721386)
(9.93592 -5.40559e-21 0.0980853)
(9.87271 -2.43503e-23 0.12511)
(9.78967 1.57507e-20 0.153911)
(9.68869 -2.36083e-20 0.184484)
(9.56944 9.09801e-21 0.217178)
(9.43112 1.57557e-21 0.252496)
(9.27298 0 0.290924)
(9.09423 2.71687e-20 0.332933)
(8.89388 -2.78554e-20 0.378996)
(8.67076 0 0.429596)
(8.42353 5.70253e-20 0.485206)
(8.1507 -7.02431e-20 0.546265)
(7.85069 0 0.613127)
(7.52187 1.54013e-19 0.686)
(7.1626 2.04181e-21 0.764847)
(6.77136 2.12158e-21 0.849255)
(6.34692 -1.72052e-19 0.938276)
(5.8885 1.61539e-19 1.03021)
(5.39611 -1.66028e-19 1.12239)
(4.87092 -2.1808e-20 1.21088)
(4.31579 0 1.29019)
(3.73588 2.3488e-20 1.35284)
(3.13955 3.92234e-19 1.38868)
(2.54012 -4.03945e-19 1.38297)
(1.95179 -4.19393e-19 1.31031)
(1.38684 4.59381e-19 1.11042)
(0.831628 1.39692e-20 0.77263)
(0.455314 0 0.174517)
(9.99039 -3.84115e-21 0.0477086)
(9.97113 -3.93917e-21 0.0885225)
(9.93177 1.07785e-20 0.125972)
(9.86978 -5.53138e-21 0.163931)
(9.78843 0 0.203653)
(9.68958 -2.06903e-20 0.245528)
(9.57314 5.88907e-21 0.290083)
(9.4385 -2.17792e-22 0.337988)
(9.28509 2.5866e-20 0.389912)
(9.11233 3.36629e-21 0.446513)
(8.91949 5.60934e-20 0.508451)
(8.70571 -5.75097e-20 0.576399)
(8.47 5.29467e-20 0.651026)
(8.21124 -6.19806e-20 0.73297)
(7.92826 0 0.822781)
(7.61978 -1.52742e-19 0.920846)
(7.28451 2.8076e-19 1.02727)
(6.92112 -1.45089e-19 1.14171)
(6.52836 1.90575e-20 1.26316)
(6.10517 0 1.38966)
(5.65083 3.52282e-19 1.51799)
(5.16527 6.85614e-19 1.64322)
(4.64936 -3.10098e-19 1.75827)
(4.10537 -2.32002e-20 1.85329)
(3.53727 0 1.91476)
(2.95103 2.48128e-20 1.92395)
(2.35213 2.57081e-20 1.8533)
(1.74361 0 1.65981)
(1.0983 -1.38047e-20 1.3285)
(0.590199 0 0.809515)
(9.98958 0 0.0547613)
(9.96909 1.30992e-21 0.105016)
(9.92962 1.07715e-20 0.152576)
(9.86869 -1.10385e-20 0.200459)
(9.78902 2.84391e-21 0.250308)
(9.6923 -2.93752e-21 0.302881)
(9.57849 2.12963e-20 0.358856)
(9.44709 -2.49299e-20 0.418998)
(9.2976 5.20135e-20 0.48409)
(9.12955 -1.07152e-19 0.554904)
(8.94237 5.51862e-20 0.632217)
(8.73535 7.17382e-21 0.716819)
(8.50774 1.27529e-19 0.8095)
(8.2587 -1.07626e-19 0.911022)
(7.98734 0 1.02207)
(7.69275 0 1.14316)
(7.37393 -2.79729e-19 1.27453)
(7.02985 -3.91544e-21 1.41596)
(6.65941 2.98322e-19 1.56653)
(6.26149 -3.14259e-19 1.72427)
(5.83492 3.63928e-20 1.8858)
(5.37862 -3.77258e-19 2.0458)
(4.89169 -3.54791e-22 2.19645)
(4.37353 7.30488e-19 2.32673)
(3.82384 -7.51156e-19 2.42175)
(3.24251 -2.45148e-20 2.46189)
(2.62816 -1.46967e-22 2.4217)
(1.97888 0 2.26818)
(1.25776 1.36449e-20 1.98546)
(0.647194 -1.42529e-20 1.52582)
(9.98921 0 0.0624839)
(9.96822 0 0.12151)
(9.92901 0 0.178654)
(9.86939 0 0.236337)
(9.79176 2.27696e-20 0.296269)
(9.6976 -2.33353e-20 0.35943)
(9.5869 2.42362e-20 0.426621)
(9.45923 -7.49005e-20 0.49869)
(9.31414 5.12967e-20 0.576517)
(9.15122 5.35592e-20 0.660983)
(8.96996 -1.10328e-19 0.752973)
(8.7698 1.7883e-19 0.853382)
(8.55006 -1.33635e-20 0.963105)
(8.31008 -1.52767e-19 1.08301)
(8.04911 0 1.21389)
(7.7664 2.6625e-19 1.35637)
(7.46114 -3.06224e-20 1.51084)
(7.13243 -5.70379e-19 1.6772)
(6.77926 2.94248e-19 1.8547)
(6.40037 3.82565e-20 2.04157)
(5.99426 -3.68701e-22 2.2346)
(5.559 -6.24766e-19 2.42859)
(5.09223 6.40744e-19 2.61577)
(4.59102 0 2.78513)
(4.05177 7.42771e-19 2.92184)
(3.47011 -7.63996e-19 3.0069)
(2.84005 -8.23269e-19 3.01713)
(2.15794 8.23212e-19 2.92462)
(1.38138 8.59723e-19 2.71399)
(0.696888 -1.79589e-18 2.33193)
(9.98909 1.26974e-21 0.070464)
(9.96811 -1.30085e-21 0.137919)
(9.92956 -2.67076e-21 0.20417)
(9.87152 2.74533e-21 0.271299)
(9.79625 -2.83262e-21 0.340962)
(9.70509 0 0.414297)
(9.59802 0 0.492244)
(9.47466 0 0.575751)
(9.33462 -5.14874e-20 0.665792)
(9.17754 5.27329e-20 0.763346)
(9.00298 0 0.869394)
(8.81042 -6.96784e-23 0.984924)
(8.59928 1.32848e-19 1.11092)
(8.36892 -2.28143e-19 1.24834)
(8.1187 1.25369e-19 1.39807)
(7.8479 2.46851e-19 1.56086)
(7.55574 -2.35485e-19 1.73721)
(7.24131 2.82953e-19 1.92722)
(6.90349 3.54279e-21 2.13039)
(6.54084 3.07372e-19 2.34528)
(6.15141 -1.29336e-18 2.56912)
(5.73255 -6.4637e-19 2.79729)
(5.28069 -6.76971e-19 3.02272)
(4.7911 1.43932e-18 3.2352)
(4.25776 -6.75326e-19 3.42085)
(3.67343 0 3.5618)
(3.02907 -7.32629e-19 3.63636)
(2.32108 1.64035e-18 3.61845)
(1.50513 -8.36488e-19 3.49068)
(0.758356 4.10988e-20 3.19225)
(9.98911 -5.07627e-21 0.0784649)
(9.96851 6.49291e-21 0.154076)
(9.93098 2.66923e-21 0.228985)
(9.87481 -2.47109e-20 0.305142)
(9.80223 2.25001e-20 0.384145)
(9.71448 0 0.467244)
(9.61153 0 0.555502)
(9.49305 0 0.649961)
(9.35872 -6.35566e-21 0.751682)
(9.20822 6.56319e-21 0.861729)
(9.04115 -1.09346e-19 0.981174)
(8.85707 8.38245e-20 1.11109)
(8.65543 -1.17034e-19 1.25256)
(8.43566 1.04802e-19 1.40662)
(8.19712 0 1.57428)
(7.93907 1.62027e-20 1.75641)
(7.6607 3.32701e-20 1.95368)
(7.36097 3.44382e-20 2.16643)
(7.03857 -2.88403e-19 2.39448)
(6.69176 2.94827e-19 2.63687)
(6.31811 -3.81632e-20 2.8915)
(5.91427 0 3.15464)
(5.47562 4.08369e-20 3.42038)
(4.99599 -4.28742e-20 3.67987)
(4.46748 -4.43959e-20 3.9207)
(3.88067 -1.51253e-18 4.1263)
(3.22411 1.46192e-18 4.2758)
(2.49419 -2.47467e-20 4.34268)
(1.64751 0 4.30411)
(0.838738 -2.6934e-20 4.09097)
(9.98924 -1.26555e-21 0.0863369)
(9.96928 -2.58494e-21 0.169824)
(9.93308 2.65252e-21 0.252966)
(9.87907 -2.18843e-20 0.337714)
(9.80949 4.77314e-20 0.425634)
(9.72554 -2.30578e-20 0.518048)
(9.62718 -4.77925e-20 0.616125)
(9.51412 9.82133e-20 0.720995)
(9.3861 -4.41074e-20 0.833796)
(9.24286 8.54282e-20 0.955676)
(9.08406 -1.07475e-19 1.08779)
(8.90931 1.26067e-19 1.2313)
(8.71813 -1.0034e-19 1.38737)
(8.50997 1.49473e-20 1.55716)
(8.28421 -2.47742e-19 1.7418)
(8.0401 2.85146e-19 1.94231)
(7.77674 2.31813e-19 2.15957)
(7.49297 -5.79076e-19 2.39423)
(7.18726 -2.86011e-19 2.64652)
(6.85753 5.42542e-19 2.91609)
(6.50088 3.7841e-20 3.20169)
(6.11327 -3.85191e-20 3.50076)
(5.68917 -6.84955e-19 3.80888)
(5.22112 1.28487e-18 4.11902)
(4.69952 6.9309e-19 4.42066)
(4.11286 -1.3675e-18 4.69877)
(3.44702 4.53266e-20 4.93299)
(2.69672 -1.52536e-18 5.09502)
(1.82174 3.15549e-18 5.15347)
(0.943181 -1.70093e-18 5.02926)
(9.98943 -6.29738e-21 0.0939773)
(9.97031 1.80699e-20 0.185028)
(9.93572 -1.32285e-20 0.275986)
(9.88415 0 0.368871)
(9.81788 -2.79988e-21 0.465245)
(9.73807 5.18854e-20 0.566483)
(9.64472 2.90883e-22 0.67384)
(9.53757 -9.15414e-20 0.788528)
(9.41643 -3.78404e-22 0.911757)
(9.28108 6.46852e-20 1.04475)
(9.13128 0 1.18873)
(8.96667 9.72483e-20 1.34497)
(8.78685 -1.27859e-19 1.5147)
(8.59133 -1.46599e-20 1.69922)
(8.3795 -1.51313e-20 1.89977)
(8.15064 -3.15459e-20 2.11759)
(7.90379 0 2.35379)
(7.63769 0 2.60939)
(7.35065 0 2.88514)
(7.04031 0 3.18139)
(6.70337 0 3.49793)
(6.33525 7.56461e-20 3.83359)
(5.92957 0 4.18579)
(5.47769 -5.64668e-19 4.54974)
(4.96826 6.60548e-19 4.91742)
(4.38727 1.37095e-18 5.27596)
(3.71691 -3.74197e-20 5.60583)
(2.9471 -1.45761e-18 5.87675)
(2.0413 0 6.04603)
(1.0779 1.6341e-18 6.02002)
(9.98967 1.25699e-21 0.101312)
(9.97156 0 0.199577)
(9.93881 0 0.297924)
(9.88993 0 0.398474)
(9.82723 -2.23079e-20 0.502807)
(9.7519 1.71006e-20 0.612342)
(9.66394 4.72476e-20 0.728404)
(9.56315 -6.047e-20 0.852274)
(9.44938 0 0.985229)
(9.32251 0 1.12856)
(9.18235 9.33406e-20 1.28356)
(9.02863 1.46402e-20 1.45157)
(8.86102 -1.12353e-19 1.63394)
(8.67911 1.28821e-22 1.83207)
(8.48236 1.50683e-20 2.04735)
(8.27007 0 2.28122)
(8.04133 2.56094e-19 2.53511)
(7.79486 -2.61599e-19 2.81041)
(7.52889 -3.35628e-20 3.10844)
(7.24095 0 3.4304)
(6.92752 -6.10047e-19 3.77722)
(6.58366 -6.23889e-19 4.14935)
(6.20241 0 4.54638)
(5.77411 6.21397e-19 4.96635)
(5.2856 -6.36455e-19 5.40458)
(4.71978 0 5.85171)
(4.05359 4.13569e-20 6.29063)
(3.2674 1.43339e-18 6.69062)
(2.32465 -2.82885e-18 6.99656)
(1.25288 1.40802e-18 7.09141)
(9.98995 0 0.108283)
(9.97298 1.27731e-21 0.213378)
(9.94226 2.10276e-20 0.318672)
(9.89629 -2.15265e-20 0.426399)
(9.83742 0 0.53817)
(9.76686 -4.56409e-20 0.655442)
(9.68463 4.6701e-20 0.779597)
(9.59059 6.03691e-21 0.911976)
(9.48465 0 1.05391)
(9.36676 6.36008e-21 1.20675)
(9.23683 9.27492e-23 1.37185)
(9.09466 -1.34827e-20 1.55063)
(8.94004 -1.11988e-19 1.74451)
(8.77263 -1.01821e-19 1.95502)
(8.59202 2.35651e-19 2.18369)
(8.3976 0 2.43218)
(8.18857 2.51468e-19 2.70219)
(7.96374 3.37803e-20 2.99556)
(7.72145 -2.30477e-19 3.3142)
(7.45929 0 3.66018)
(7.17383 3.51628e-20 4.03566)
(6.86012 5.69858e-19 4.44288)
(6.51105 -3.60723e-20 4.88391)
(6.11641 -7.46594e-20 5.36024)
(5.6616 0 5.87179)
(5.12618 0 6.41492)
(4.48037 -4.06126e-20 6.97864)
(3.68884 1.26206e-18 7.53698)
(2.7043 -1.38827e-18 8.02695)
(1.48928 8.95753e-20 8.29794)
(9.99026 0 0.114848)
(9.97453 8.92498e-21 0.226356)
(9.946 -1.04441e-20 0.338135)
(9.90315 -2.6755e-21 0.452533)
(9.84832 0 0.571198)
(9.78278 2.8219e-21 0.69562)
(9.70658 0 0.827225)
(9.61963 5.96192e-21 0.967403)
(9.52191 0 1.11753)
(9.41345 -6.34739e-21 1.279)
(9.29424 9.73065e-23 1.45324)
(9.16421 2.67839e-20 1.64169)
(9.02324 -1.10615e-19 1.84589)
(8.87114 1.1298e-19 2.06742)
(8.70762 0 2.30799)
(8.53227 -2.40336e-19 2.56943)
(8.34444 2.4525e-19 2.85373)
(8.14319 -3.17874e-20 3.1631)
(7.92713 -4.86625e-19 3.50005)
(7.69422 4.95972e-19 3.86748)
(7.44142 3.35022e-20 4.26879)
(7.16432 0 4.708)
(6.85638 5.98881e-19 5.18987)
(6.50781 -5.72578e-19 5.71985)
(6.10379 0 6.30375)
(5.62176 0 6.94664)
(5.0255 0 7.64994)
(4.25889 1.19913e-18 8.40465)
(3.24401 -2.45577e-18 9.16063)
(1.83666 1.26894e-18 9.74433)
(9.9906 -4.95877e-21 0.120971)
(9.97619 5.0727e-21 0.238446)
(9.94999 -1.29739e-21 0.356231)
(9.91041 2.67362e-21 0.476779)
(9.85982 0 0.601775)
(9.79951 -5.0714e-20 0.732739)
(9.72959 4.61197e-20 0.87113)
(9.65001 -5.95347e-21 1.01837)
(9.56083 6.08026e-21 1.17589)
(9.46216 1.00622e-19 1.34509)
(9.3541 -8.98816e-20 1.52743)
(9.23668 -1.33031e-20 1.72443)
(9.10993 1.0922e-19 1.93765)
(8.97379 -1.1151e-19 2.16877)
(8.82819 -2.3027e-19 2.4196)
(8.6729 2.49565e-19 2.69212)
(8.50758 2.42e-19 2.98854)
(8.33164 -2.62044e-19 3.31143)
(8.14413 2.0559e-19 3.66376)
(7.94363 -2.25261e-19 4.04916)
(7.72795 4.92644e-19 4.47208)
(7.4938 1.0693e-18 4.93817)
(7.23619 -5.43336e-19 5.45468)
(6.94733 3.48372e-20 6.03107)
(6.61474 0 6.67969)
(6.21778 0 7.41682)
(5.71961 0 8.26364)
(5.04779 0 9.24856)
(4.07404 -1.06136e-18 10.3929)
(2.41717 1.09123e-18 11.6516)
(9.99095 0 0.126625)
(9.97793 -3.14921e-22 0.249599)
(9.95417 1.94208e-21 0.372889)
(9.918 0 0.499045)
(9.87181 -1.35792e-21 0.629785)
(9.81691 1.49567e-23 0.766651)
(9.75347 0 0.911127)
(9.68148 0 1.06466)
(9.6011 -6.0707e-21 1.22869)
(9.51252 0 1.40467)
(9.41592 1.02347e-19 1.59405)
(9.31149 -2.09589e-19 1.79838)
(9.19938 2.15079e-19 2.01926)
(9.07973 -1.10033e-19 2.25842)
(8.95265 -2.26617e-19 2.51772)
(8.81822 2.30915e-19 2.79926)
(8.67642 0 3.1054)
(8.52712 2.48426e-22 3.43891)
(8.36999 1.55736e-20 3.80312)
(8.20445 -2.5118e-19 4.20213)
(8.02952 2.71305e-19 4.64114)
(7.84364 -5.18118e-19 5.12693)
(7.64438 0 5.66858)
(7.42784 8.03594e-21 6.27862)
(7.18755 -3.99337e-21 6.97484)
(6.9123 0 7.78389)
(6.58093 -3.79973e-21 8.74833)
(6.14104 -4.48554e-19 9.94721)
(5.47059 4.71143e-19 11.5572)
(3.5373 -1.31033e-19 14.5176)
(0.148572 -6.05864e-21 -0.165428)
(0.366977 0 -0.153208)
(0.584874 -9.21067e-23 -0.124597)
(0.777427 -2.84187e-21 -0.0964316)
(0.934076 2.59674e-21 -0.0718967)
(1.05558 0 -0.0508452)
(1.1455 0 -0.0327186)
(1.20677 -1.38772e-22 -0.0171924)
(1.24168 0 -0.00429147)
(1.25304 1.00288e-21 0.00567594)
(1.2454 1.70049e-21 0.012334)
(1.22417 -1.17416e-21 0.0158286)
(1.1952 0 0.0167047)
(1.16368 2.14063e-22 0.0157744)
(1.13345 0 0.0137514)
(1.10695 5.74882e-22 0.0111473)
(1.08562 -1.89718e-22 0.00833587)
(1.07006 0 0.00559848)
(1.06022 0 0.00313392)
(1.05557 1.46968e-22 0.00100659)
(1.05548 -1.33848e-22 -0.000884876)
(1.05988 1.20328e-22 -0.00263219)
(1.06835 1.06493e-22 -0.00420212)
(1.08076 -9.24175e-23 -0.00548586)
(1.09672 1.79308e-23 -0.00637017)
(1.11554 4.63006e-23 -0.006904)
(1.13657 -4.95282e-23 -0.00742394)
(1.1601 3.5643e-24 -0.00841743)
(1.18724 -3.48889e-24 -0.00983316)
(1.22411 0 -0.0101815)
(0.106381 -1.18729e-21 -0.355395)
(0.326059 1.21756e-20 -0.341417)
(0.529145 -1.17908e-20 -0.286647)
(0.711213 8.68228e-23 -0.230824)
(0.865799 8.182e-23 -0.181678)
(0.994118 5.15418e-21 -0.138883)
(1.09926 -1.33056e-22 -0.10112)
(1.18361 -4.35305e-21 -0.0675857)
(1.24872 -4.17849e-21 -0.0380788)
(1.29552 8.60512e-23 -0.0129706)
(1.32432 -3.67359e-21 0.00679777)
(1.3362 -2.32338e-22 0.0197318)
(1.33745 0 0.0259052)
(1.3335 -2.1376e-22 0.0269338)
(1.32807 0 0.0246413)
(1.32357 -5.8215e-22 0.0204079)
(1.3214 1.83962e-22 0.0152875)
(1.32205 -6.68921e-22 0.0100938)
(1.3252 6.54792e-22 0.00541593)
(1.32997 -4.30127e-22 0.00153488)
(1.33507 4.1101e-22 -0.00169822)
(1.33931 -5.89854e-22 -0.00467142)
(1.3427 1.05545e-22 -0.00767855)
(1.34568 -1.04323e-22 -0.010679)
(1.34874 -7.16902e-23 -0.0133088)
(1.352 6.43995e-24 -0.0152352)
(1.35528 1.69943e-22 -0.016569)
(1.35831 -2.09588e-23 -0.0180321)
(1.36219 -3.57181e-24 -0.0201277)
(1.37253 1.76991e-23 -0.0204454)
(0.0685014 1.32339e-20 -0.547628)
(0.261518 2.32325e-23 -0.528992)
(0.424788 9.03054e-23 -0.449629)
(0.572849 0 -0.368927)
(0.700683 1.02931e-20 -0.297981)
(0.80989 -1.0187e-20 -0.236033)
(0.902784 -9.14195e-21 -0.181115)
(0.980884 9.48276e-21 -0.132056)
(1.04539 0 -0.0883654)
(1.09673 -5.04264e-22 -0.0503172)
(1.1368 7.2769e-21 -0.0187561)
(1.16625 -6.99262e-21 0.00448449)
(1.18374 3.61671e-21 0.0177461)
(1.19464 -3.39546e-21 0.0225245)
(1.20192 3.32351e-21 0.021667)
(1.20695 -1.82977e-24 0.0174522)
(1.21036 -1.80889e-21 0.0116107)
(1.21213 1.41107e-21 0.00548608)
(1.21165 6.22547e-22 0.000137647)
(1.20797 -6.09351e-22 -0.00371415)
(1.20021 0 -0.00591653)
(1.18778 4.83498e-22 -0.0069418)
(1.17093 4.15305e-22 -0.00748006)
(1.15087 -1.97595e-22 -0.00790507)
(1.12952 0 -0.0081317)
(1.10823 5.75137e-23 -0.00805784)
(1.08837 -1.55621e-22 -0.00818671)
(1.07111 0 -0.00987589)
(1.05802 0 -0.0145201)
(1.05135 -1.4239e-23 -0.0202808)
(0.036801 -3.7727e-22 -0.704019)
(0.192458 -2.05245e-22 -0.672475)
(0.308968 -8.68925e-23 -0.569912)
(0.417478 2.10766e-20 -0.470332)
(0.511522 -6.65043e-22 -0.384406)
(0.593904 -3.92179e-20 -0.309879)
(0.666453 1.92011e-20 -0.243993)
(0.729961 -8.70652e-21 -0.185194)
(0.785089 8.51286e-21 -0.132521)
(0.832002 5.06249e-22 -0.0859223)
(0.870905 4.86593e-22 -0.0469492)
(0.903135 0 -0.0174109)
(0.92651 0 0.00156959)
(0.939794 0 0.0108739)
(0.946446 0 0.0134627)
(0.946599 -3.97327e-22 0.0123194)
(0.939561 0 0.00988047)
(0.924639 -1.35837e-21 0.00794307)
(0.902163 1.97963e-21 0.00758288)
(0.874035 1.15085e-21 0.00898083)
(0.843025 -6.12973e-23 0.011346)
(0.811659 -7.52837e-22 0.0132945)
(0.781955 -4.0711e-22 0.0135991)
(0.755781 2.32539e-23 0.011808)
(0.734709 3.17105e-22 0.00840854)
(0.719477 -3.74338e-22 0.00440944)
(0.70887 1.13294e-22 0.000670068)
(0.699452 0 -0.00361801)
(0.689898 -7.21255e-24 -0.0110489)
(0.67435 7.05432e-24 -0.0241068)
(0.00752943 -4.73013e-20 -0.821778)
(0.118801 8.45913e-22 -0.770776)
(0.185512 2.21763e-20 -0.648183)
(0.252532 -2.08404e-20 -0.536337)
(0.308467 2.06412e-20 -0.441553)
(0.35827 2.0207e-20 -0.359815)
(0.403605 -3.6771e-20 -0.287827)
(0.4447 1.72418e-20 -0.223826)
(0.481454 -7.32943e-21 -0.167313)
(0.516089 8.20895e-21 -0.117436)
(0.545172 -7.78439e-21 -0.0735984)
(0.565158 1.60708e-20 -0.0368073)
(0.575657 -1.45638e-20 -0.00960353)
(0.577684 7.06448e-21 0.0069468)
(0.572788 0 0.0156064)
(0.561357 -2.33698e-21 0.0203922)
(0.544572 3.81913e-21 0.0238131)
(0.524236 0 0.0267563)
(0.502282 6.1895e-22 0.0290894)
(0.480391 5.2516e-22 0.0303414)
(0.459673 -1.68562e-21 0.0301195)
(0.440554 0 0.0281932)
(0.42298 -4.10893e-22 0.0245539)
(0.406813 7.78623e-22 0.0195544)
(0.391715 -2.55827e-23 0.0139377)
(0.376676 -2.69295e-23 0.00883356)
(0.361961 -2.0146e-22 0.00537281)
(0.35147 1.43148e-22 0.0025383)
(0.333991 -9.29059e-23 -0.00479108)
(0.304377 -4.98211e-23 -0.0241917)
(-0.0200012 -7.3461e-22 -0.898155)
(0.0424002 -7.14071e-22 -0.822304)
(0.0593866 1.71826e-22 -0.683129)
(0.085022 2.07526e-20 -0.563787)
(0.100977 -6.97826e-23 -0.4635)
(0.114615 -1.94304e-20 -0.37752)
(0.127406 5.80843e-22 -0.301959)
(0.138955 0 -0.233884)
(0.14628 -1.91233e-20 -0.172793)
(0.15561 1.66182e-20 -0.119292)
(0.164274 7.90118e-21 -0.0730392)
(0.172977 -9.65304e-21 -0.0355099)
(0.180144 -9.31096e-22 -0.00778769)
(0.183475 0 0.0107477)
(0.182548 0 0.0224407)
(0.177847 -8.1341e-22 0.0298077)
(0.170233 -7.59324e-22 0.0343966)
(0.160698 -7.19615e-22 0.0370223)
(0.150052 0 0.0381215)
(0.138765 -6.07913e-22 0.037981)
(0.126878 5.06838e-22 0.0367898)
(0.114084 -9.37005e-23 0.0346089)
(0.0999741 -9.28385e-22 0.0314342)
(0.0843351 -3.82367e-22 0.0273602)
(0.067102 0 0.0227521)
(0.0481924 0 0.0183652)
(0.0278373 2.0201e-22 0.0149849)
(0.0074324 -1.43532e-22 0.011741)
(-0.0125921 8.58991e-23 0.00343567)
(-0.0350425 5.70488e-23 -0.0149446)
(-0.0456338 -4.57722e-20 -0.930427)
(-0.034878 3.55874e-22 -0.826189)
(-0.064383 4.33528e-20 -0.674618)
(-0.0791688 -4.23074e-20 -0.552196)
(-0.10139 -6.29393e-22 -0.450863)
(-0.122932 -1.98264e-20 -0.365443)
(-0.142628 1.88064e-20 -0.291867)
(-0.159551 0 -0.227513)
(-0.169999 1.82964e-20 -0.1714)
(-0.175077 -3.34704e-20 -0.122172)
(-0.175052 -1.62653e-20 -0.0792864)
(-0.170289 -9.98471e-22 -0.0432202)
(-0.162825 -6.51436e-21 -0.0147113)
(-0.15554 5.46413e-21 0.0060942)
(-0.150537 0 0.0202641)
(-0.148248 8.14477e-22 0.0296196)
(-0.148926 0 0.0357047)
(-0.152468 -1.00063e-23 0.0395731)
(-0.158705 0 0.0418893)
(-0.167496 6.22116e-22 0.043045)
(-0.178741 -5.17616e-22 0.0432133)
(-0.192331 2.00922e-21 0.0423769)
(-0.20809 -1.0028e-22 0.0404298)
(-0.225763 -7.89436e-23 0.0373782)
(-0.245117 -5.34889e-23 0.0335741)
(-0.266086 -2.89311e-22 0.0297819)
(-0.288808 -8.72937e-23 0.0265729)
(-0.31323 8.54377e-23 0.0225484)
(-0.337639 -1.68952e-22 0.0130832)
(-0.352437 0 -0.0024867)
(-0.0695986 4.66386e-20 -0.914648)
(-0.112276 -4.5771e-20 -0.783913)
(-0.182342 -4.35687e-20 -0.630605)
(-0.235644 4.25364e-20 -0.510281)
(-0.290505 -4.16044e-20 -0.413079)
(-0.339726 5.76218e-20 -0.333425)
(-0.381758 -2.01704e-20 -0.266629)
(-0.413436 1.81001e-20 -0.210104)
(-0.435741 -3.51873e-20 -0.161048)
(-0.449282 1.71018e-20 -0.117941)
(-0.454993 -2.07375e-21 -0.0802332)
(-0.454264 1.96471e-21 -0.0479576)
(-0.449347 0 -0.0213284)
(-0.442919 1.8174e-21 -0.000338624)
(-0.437693 1.7684e-21 0.0154806)
(-0.434957 3.26863e-21 0.0271313)
(-0.435553 -4.77953e-21 0.035691)
(-0.439711 -7.52645e-22 0.041962)
(-0.447301 0 0.0464765)
(-0.458002 -3.08524e-21 0.0495395)
(-0.471414 1.17857e-21 0.0512605)
(-0.487139 -9.64261e-22 0.0516109)
(-0.504858 9.43308e-22 0.0505515)
(-0.524375 0 0.0482204)
(-0.545628 0 0.0451028)
(-0.568711 2.91354e-22 0.0419769)
(-0.593955 1.4281e-22 0.0391636)
(-0.621558 8.51952e-23 0.0348938)
(-0.649064 1.68551e-22 0.0252074)
(-0.666557 5.42216e-23 0.0117235)
(-0.0936812 4.71459e-20 -0.852273)
(-0.18664 -4.85898e-22 -0.702953)
(-0.295536 -4.5355e-20 -0.551679)
(-0.384852 -4.10602e-20 -0.438425)
(-0.468403 4.27181e-20 -0.350842)
(-0.539389 -1.84943e-20 -0.282658)
(-0.595651 3.83429e-20 -0.228363)
(-0.638472 -2.09674e-20 -0.182916)
(-0.66905 -1.55641e-20 -0.143407)
(-0.688995 1.9615e-20 -0.108259)
(-0.700137 -1.45762e-20 -0.0768106)
(-0.704526 1.83228e-20 -0.0489383)
(-0.704548 -1.96976e-21 -0.0247038)
(-0.702729 0 -0.00409822)
(-0.701505 3.77515e-23 0.0129664)
(-0.702528 6.65085e-21 0.0267855)
(-0.706676 -4.92081e-21 0.0378093)
(-0.714165 1.47857e-21 0.0464238)
(-0.724784 -1.395e-21 0.0529529)
(-0.73815 1.25688e-21 0.0576374)
(-0.753877 0 0.0606095)
(-0.771685 0 0.0619301)
(-0.791449 0 0.0617018)
(-0.813187 3.60094e-22 0.0602118)
(-0.836977 -3.52331e-22 0.0580162)
(-0.862982 -2.33027e-22 0.0557823)
(-0.891642 1.4317e-22 0.053534)
(-0.923138 2.8346e-23 0.0493902)
(-0.953802 2.18376e-22 0.0401891)
(-0.97183 -5.42224e-23 0.0283994)
(-0.119555 -4.90847e-20 -0.743152)
(-0.26395 -3.67098e-22 -0.581021)
(-0.413008 6.98808e-22 -0.437631)
(-0.538144 4.16701e-20 -0.337498)
(-0.646061 2.10606e-21 -0.268593)
(-0.733346 -4.0573e-20 -0.219006)
(-0.801457 -1.94266e-20 -0.18067)
(-0.852671 1.89343e-20 -0.148751)
(-0.889626 1.59521e-20 -0.120329)
(-0.915056 -3.98579e-20 -0.0938812)
(-0.931552 -1.72249e-20 -0.0689072)
(-0.941498 -2.04467e-21 -0.0454518)
(-0.947216 3.98625e-21 -0.0236805)
(-0.951016 1.93535e-21 -0.00374621)
(-0.954937 -1.80181e-21 0.0141074)
(-0.960688 -6.78676e-21 0.0296136)
(-0.969049 6.63322e-21 0.0426016)
(-0.980188 0 0.0530526)
(-0.993917 -1.32992e-21 0.0611336)
(-1.00998 1.36251e-21 0.0670938)
(-1.02821 -1.17329e-21 0.0711444)
(-1.04855 1.04437e-21 0.0734445)
(-1.07099 8.53423e-22 0.0741927)
(-1.09551 -5.14109e-23 0.0737309)
(-1.12196 0 0.0725649)
(-1.15024 -5.25583e-22 0.0711528)
(-1.18069 0 0.0692342)
(-1.21355 0 0.0649902)
(-1.24476 -1.76177e-22 0.0561441)
(-1.26213 1.33001e-23 0.0457435)
(-0.152297 4.96214e-20 -0.585987)
(-0.355955 -9.43253e-20 -0.408298)
(-0.549157 9.1115e-20 -0.283729)
(-0.707886 -4.69118e-20 -0.212892)
(-0.836403 3.68709e-20 -0.171244)
(-0.936439 -3.85931e-20 -0.145229)
(-1.01243 2.50312e-21 -0.126313)
(-1.06898 -1.6837e-20 -0.109796)
(-1.11025 1.87702e-20 -0.0932477)
(-1.13986 -1.58224e-20 -0.075633)
(-1.16085 0 -0.0569794)
(-1.17566 0 -0.0378117)
(-1.18638 5.57599e-23 -0.0185663)
(-1.19505 7.79523e-21 0.000437123)
(-1.20366 -9.45681e-21 0.0187112)
(-1.21388 -6.94597e-21 0.0355067)
(-1.22642 1.00404e-20 0.0500552)
(-1.2414 -3.17924e-21 0.0619703)
(-1.25862 0 0.0713253)
(-1.27797 -1.22181e-21 0.0784282)
(-1.29944 3.63341e-21 0.0835566)
(-1.32304 -2.10061e-21 0.086887)
(-1.3487 8.60702e-22 0.0885959)
(-1.37615 -1.6237e-21 0.088976)
(-1.40493 6.56609e-22 0.0884472)
(-1.43476 -2.92814e-22 0.087344)
(-1.46615 -8.00695e-22 0.085341)
(-1.49958 4.97618e-22 0.0809097)
(-1.53087 -5.37126e-23 0.0725789)
(-1.54775 0 0.063552)
(-0.195783 0 -0.357349)
(-0.479766 4.5698e-20 -0.171639)
(-0.725214 -4.61181e-20 -0.0913433)
(-0.911256 2.75286e-21 -0.0663115)
(-1.05175 2.663e-21 -0.0630723)
(-1.1569 -2.58253e-21 -0.0662138)
(-1.23512 -2.5248e-20 -0.0689146)
(-1.29302 3.93553e-20 -0.0684509)
(-1.33566 -1.91768e-20 -0.0638203)
(-1.36712 0 -0.0547516)
(-1.39069 -2.28695e-21 -0.042003)
(-1.40862 0 -0.0268711)
(-1.42265 4.12107e-21 -0.0101896)
(-1.43444 -1.60283e-20 0.00773282)
(-1.44633 2.10499e-21 0.0263253)
(-1.45992 1.45153e-20 0.044301)
(-1.47586 -5.23333e-21 0.0602343)
(-1.49403 0 0.0733656)
(-1.51412 0 0.0837497)
(-1.53605 -2.56596e-21 0.0918247)
(-1.55996 1.29448e-21 0.0979257)
(-1.58593 -1.79598e-23 0.102167)
(-1.6138 6.50481e-23 0.104617)
(-1.64307 8.49644e-22 0.105485)
(-1.67309 3.47296e-24 0.105144)
(-1.70355 7.59826e-22 0.10391)
(-1.73515 3.98507e-22 0.101537)
(-1.76859 -1.08451e-22 0.0968417)
(-1.7996 1.28181e-23 0.0889611)
(-1.816 -1.27171e-23 0.081034)
(-0.26194 7.02307e-22 0.040862)
(-0.651801 4.907e-20 0.175038)
(-0.949759 0 0.146735)
(-1.15241 -4.37686e-20 0.0955774)
(-1.29521 2.12975e-20 0.0494118)
(-1.39556 -2.71595e-21 0.0122672)
(-1.46742 2.30202e-20 -0.0132641)
(-1.52021 0 -0.0282414)
(-1.55957 -2.47976e-21 -0.0347746)
(-1.58917 -2.42061e-21 -0.0335325)
(-1.61227 2.77629e-20 -0.0258972)
(-1.63079 -9.37436e-23 -0.0143264)
(-1.6456 -6.58225e-21 -0.000207345)
(-1.6583 -2.04373e-21 0.0165721)
(-1.6714 -2.01411e-21 0.0356075)
(-1.68676 0 0.0549418)
(-1.70488 5.52766e-23 0.0722658)
(-1.72517 0 0.0863981)
(-1.74705 0 0.0975218)
(-1.77047 0 0.106368)
(-1.79581 1.21215e-21 0.113356)
(-1.82327 2.16378e-21 0.118447)
(-1.85262 -5.49234e-23 0.121507)
(-1.88315 -8.57757e-22 0.122624)
(-1.91399 -6.57357e-22 0.122159)
(-1.94478 -5.25453e-22 0.120509)
(-1.97642 -5.65121e-22 0.117616)
(-2.00977 1.64564e-22 0.112636)
(-2.04053 0 0.105083)
(-2.05662 0 0.0978991)
(-0.356129 0 0.58861)
(-0.847949 0 0.576676)
(-1.20802 0 0.399482)
(-1.41173 0 0.243518)
(-1.54105 2.13862e-20 0.14961)
(-1.62851 -3.67914e-20 0.0815967)
(-1.68925 -2.19681e-22 0.0351372)
(-1.73386 2.29555e-20 0.00740241)
(-1.76652 -1.76134e-20 -0.00925008)
(-1.79057 1.22207e-20 -0.0150221)
(-1.81019 -7.21317e-21 -0.0110351)
(-1.82708 0 -0.00194003)
(-1.8408 0 0.00974524)
(-1.85227 8.48806e-21 0.0253364)
(-1.86459 -6.27657e-21 0.0452505)
(-1.88046 0 0.066597)
(-1.90009 -1.78325e-21 0.0856227)
(-1.92204 -3.26248e-21 0.100621)
(-1.94514 2.11439e-22 0.112192)
(-1.96946 1.49039e-21 0.121665)
(-1.99579 0 0.129593)
(-2.02455 -1.08981e-21 0.135626)
(-2.05537 8.85397e-22 0.139281)
(-2.08724 -6.09124e-23 0.140484)
(-2.11898 6.60839e-22 0.139633)
(-2.15018 1.04781e-21 0.137316)
(-2.18188 0 0.133789)
(-2.2152 5.19042e-23 0.128545)
(-2.24587 2.37107e-22 0.121226)
(-2.26186 9.15466e-23 0.114465)
(-0.587759 -1.97952e-20 1.52113)
(-1.17265 -5.22585e-23 1.17191)
(-1.58825 1.83271e-20 0.648456)
(-1.72709 2.0893e-20 0.328409)
(-1.79305 -2.04281e-20 0.2356)
(-1.85106 -2.65708e-20 0.142284)
(-1.88873 2.0812e-20 0.0673402)
(-1.91759 7.89991e-21 0.0331122)
(-1.94039 -2.05451e-20 0.00959926)
(-1.95524 1.76076e-20 -0.00211334)
(-1.96847 9.86343e-21 0.000963737)
(-1.98282 0 0.00978867)
(-1.99461 2.35893e-21 0.0187755)
(-2.00291 0 0.0325537)
(-2.01263 -6.35217e-21 0.0540632)
(-2.02829 4.08315e-21 0.0787704)
(-2.04961 3.65469e-21 0.100175)
(-2.07345 -1.80291e-21 0.115881)
(-2.09765 0 0.127467)
(-2.12255 2.87718e-21 0.137419)
(-2.1497 -2.50934e-21 0.146483)
(-2.17991 5.55071e-23 0.153698)
(-2.21257 -9.67219e-22 0.157996)
(-2.24616 5.37421e-24 0.159106)
(-2.2791 -3.61254e-22 0.157551)
(-2.31082 -1.04479e-21 0.154249)
(-2.34259 -7.88335e-23 0.149913)
(-2.37592 3.83055e-22 0.14441)
(-2.4067 -2.37925e-22 0.137285)
(-2.42277 -3.59938e-24 0.130678)
(9.99133 2.9493e-22 0.131881)
(9.97977 0 0.259962)
(9.95858 -6.21408e-22 0.388351)
(9.926 0 0.519677)
(9.88443 4.30932e-20 0.655689)
(9.83521 -8.29339e-20 0.797941)
(9.77857 -1.59235e-22 0.947933)
(9.71458 9.29537e-20 1.10712)
(9.64346 -4.61559e-20 1.27696)
(9.56549 -5.90779e-21 1.45889)
(9.48099 0 1.65438)
(9.39025 -9.38564e-20 1.86497)
(9.29361 1.02142e-19 2.09228)
(9.19139 0 2.33803)
(9.08396 2.21631e-19 2.60411)
(8.9717 -2.32983e-19 2.89265)
(8.85499 -2.2426e-19 3.20606)
(8.73424 2.42837e-19 3.5472)
(8.60986 7.19725e-21 3.91952)
(8.48228 0 4.32729)
(8.35202 2.15653e-19 4.77598)
(8.21971 -1.43281e-21 5.27276)
(8.08626 2.43409e-19 5.82731)
(7.95325 -7.69041e-21 6.45311)
(7.82359 3.81709e-21 7.16968)
(7.70375 4.52527e-19 8.00679)
(7.61186 -4.27141e-19 9.01287)
(7.60777 2.19932e-19 10.2732)
(8.19894 -1.85821e-19 11.9005)
(8.54456 2.52516e-19 14.7225)
(9.99173 5.4534e-21 0.136746)
(9.98171 -1.46934e-20 0.269545)
(9.96324 9.62763e-21 0.402606)
(9.93444 0 0.538629)
(9.89768 4.05425e-20 0.679387)
(9.85438 -4.14629e-20 0.82644)
(9.80481 -2.6521e-21 0.981288)
(9.74908 -4.6477e-20 1.14539)
(9.68752 4.46947e-20 1.32019)
(9.6205 8.61804e-21 1.50711)
(9.54845 1.00104e-19 1.70763)
(9.47182 -1.98817e-19 1.92323)
(9.3911 -3.00109e-22 2.15552)
(9.30683 1.07086e-19 2.40618)
(9.21964 -2.19428e-19 2.67706)
(9.13022 -6.75245e-21 2.97024)
(9.0394 2.14691e-19 3.28808)
(8.94813 6.7662e-21 3.63334)
(8.85759 2.14342e-19 4.00935)
(8.76928 -2.2687e-19 4.4202)
(8.68519 2.32609e-19 4.87102)
(8.60814 3.61087e-21 5.36842)
(8.54236 0 5.92108)
(8.49458 0 6.54057)
(8.47632 1.88972e-19 7.24249)
(8.50879 1.33327e-20 8.04784)
(8.63354 -3.28241e-19 8.98318)
(8.88375 4.81129e-20 10.079)
(9.57068 0 11.2845)
(10.1407 -1.91928e-19 12.4257)
(9.99215 4.45661e-21 0.141135)
(9.98375 -3.99224e-21 0.278185)
(9.9681 0 0.415435)
(9.94322 1.91813e-20 0.555638)
(9.91147 5.89443e-20 0.700583)
(9.8743 -4.02131e-20 0.851826)