/*--------------------------------*- C++ -*----------------------------------*\
| =========                 |                                                 |
| \\      /  F ield         | OpenFOAM: The Open Source CFD Toolbox           |
|  \\    /   O peration     | Version:  dev                                   |
|   \\  /    A nd           | Web:      www.OpenFOAM.org                      |
|    \\/     M anipulation  |                                                 |
\*---------------------------------------------------------------------------*/
FoamFile
{
    version     2.0;
    format      ascii;
    class       volScalarField;
    location    "0.5";
    object      p;
}
// * * * * * * * * * * * * * * * * * * * * * * * * * * * * * * * * * * * * * //

dimensions      [0 2 -2 0 0 0 0];

internalField   nonuniform List<scalar> 
465
(
-74.0136
-82.0466
-90.0588
-97.7199
-104.657
-110.47
-114.747
-117.095
-117.15
-114.593
-109.2
-100.904
-89.7993
-76.0893
-60.0471
-41.9858
-22.4194
-2.85805
12.6668
17.2385
-74.6005
-82.7091
-90.8005
-98.5423
-105.559
-111.444
-115.785
-118.19
-118.295
-115.786
-110.444
-102.226
-91.2517
-77.7468
-62.0216
-44.4729
-25.7503
-7.33945
7.27203
10.8446
-76.1334
-84.2908
-92.438
-100.242
-107.325
-113.275
-117.674
-120.125
-120.265
-117.77
-112.439
-104.261
-93.3856
-80.063
-64.6413
-47.6021
-29.7255
-12.4663
1.32833
5.90186
-78.4038
-86.6262
-94.8518
-102.747
-109.93
-115.979
-120.468
-122.993
-123.185
-120.715
-115.401
-107.274
-96.5164
-83.4023
-68.3062
-51.7579
-34.589
-18.1526
-4.63103
2.06832
-81.1881
-89.4812
-97.7947
-105.795
-113.092
-119.259
-123.852
-126.46
-126.705
-124.249
-118.937
-110.85
-100.205
-87.2947
-72.5073
-56.3845
-39.7406
-23.7658
-10.0271
-0.914641
-84.3251
-92.7038
-101.126
-109.255
-116.696
-123.007
-127.729
-130.43
-130.72
-128.256
-122.915
-114.84
-104.28
-91.5398
-77.0014
-61.1859
-44.8424
-28.9774
-14.6601
-3.25839
-87.6247
-96.1021
-104.648
-112.925
-120.529
-127.005
-131.871
-134.667
-134.989
-132.491
-127.088
-118.996
-108.493
-95.8849
-81.5284
-65.897
-49.6475
-33.6138
-18.508
-5.10541
-90.8888
-99.4762
-108.16
-116.598
-124.381
-131.038
-136.062
-138.956
-139.292
-136.729
-131.23
-123.09
-112.615
-100.101
-85.8625
-70.3087
-53.9922
-37.6037
-21.6271
-6.55431
-93.9216
-102.627
-111.455
-120.062
-128.032
-134.881
-140.074
-143.065
-143.397
-140.739
-135.113
-126.9
-116.432
-103.98
-89.8118
-74.2606
-57.7784
-40.9409
-24.1063
-7.68035
-96.5385
-105.363
-114.333
-123.105
-131.26
-138.302
-143.671
-146.766
-147.073
-144.297
-138.53
-130.233
-119.761
-107.352
-93.2252
-77.6402
-60.9594
-43.6679
-26.0499
-8.54343
-98.5786
-107.513
-116.61
-125.53
-133.853
-141.077
-146.616
-149.82
-150.099
-147.201
-141.303
-132.927
-122.461
-110.104
-96.0163
-80.3954
-63.5261
-45.8402
-27.5516
-9.18508
-99.9182
-108.938
-118.128
-127.156
-135.606
-142.976
-148.663
-151.969
-152.25
-149.273
-143.282
-134.863
-124.43
-112.175
-98.1665
-82.531
-65.4963
-47.4654
-28.6347
-9.63466
-100.513
-109.573
-118.8
-127.868
-136.372
-143.819
-149.604
-153.006
-153.331
-150.339
-144.342
-135.958
-125.615
-113.498
-99.605
-83.9908
-66.8411
-48.5358
-29.3084
-9.926
-100.389
-109.436
-118.629
-127.658
-136.129
-143.559
-149.362
-152.798
-153.155
-150.211
-144.327
-136.105
-125.95
-114.01
-100.26
-84.7103
-67.5203
-49.0671
-29.6228
-10.1021
-99.6291
-108.601
-117.691
-126.596
-134.937
-142.242
-147.93
-151.282
-151.628
-148.806
-143.171
-135.25
-125.394
-113.708
-100.151
-84.718
-67.5705
-49.0991
-29.6184
-10.1848
-89.7971
-98.3199
-107.142
-116.042
-124.73
-132.835
-139.897
-145.353
-148.535
-148.868
-146.237
-140.962
-133.458
-123.989
-112.62
-99.3002
-84.0385
-67.0207
-48.6635
-29.3288
-10.1909
-88.2041
-96.5347
-105.112
-113.723
-122.088
-129.85
-136.567
-141.711
-144.691
-145.032
-142.652
-137.806
-130.783
-121.75
-110.729
-97.6789
-82.6431
-65.8509
-47.7537
-28.7568
-10.1296
-102.652
-110.875
-118.82
-126.149
-132.449
-137.242
-140.022
-140.398
-138.296
-133.888
-127.342
-118.734
-108.053
-95.286
-80.5288
-64.0657
-46.3825
-27.9171
-10.0061
-115.123
-121.951
-127.786
-132.208
-134.799
-135.23
-133.396
-129.373
-123.229
-114.974
-104.59
-92.1078
-77.6893
-61.6727
-44.5673
-26.8277
-9.82656
-117.461
-122.807
-126.851
-129.26
-129.733
-128.095
-124.33
-118.449
-110.436
-100.295
-88.1159
-74.1226
-58.6919
-42.3382
-25.5136
-9.59506
-121.244
-123.45
-123.88
-122.285
-118.606
-112.841
-104.987
-95.087
-83.2845
-69.8476
-55.1681
-39.7439
-24.0088
-9.31221
-117.259
-115.543
-111.839
-106.147
-98.4791
-88.9171
-77.6401
-64.935
-51.1861
-36.8581
-22.3563
-8.974
-107.486
-103.794
-98.2672
-90.9279
-81.8807
-71.3214
-59.5341
-46.8794
-33.7798
-20.6078
-8.57361
-89.4339
-82.6001
-74.2523
-64.5851
-53.8648
-42.4188
-30.6235
-18.8179
-8.10618
-73.9221
-66.4071
-57.7437
-48.1714
-37.9803
-27.501
-17.0387
-7.57404
-51.0847
-42.6688
-33.7129
-24.5039
-15.3132
-6.98937
-37.51
-29.7195
-21.6943
-13.6729
-6.3725
-19.1054
-12.1378
-5.7472
-10.7183
-5.1354
-4.55378
)
;

boundaryField
{
    inlet
    {
        type            zeroGradient;
    }
    outlet
    {
        type            fixedValue;
        value           uniform 0;
    }
    flap
    {
        type            zeroGradient;
    }
    upperWall
    {
        type            zeroGradient;
    }
    lowerWall
    {
        type            zeroGradient;
    }
    frontAndBack
    {
        type            empty;
    }
    procBoundary5to2
    {
        type            processor;
        value           nonuniform List<scalar> 
34
(
-86.3897
-94.4218
-94.4218
-99.9353
-107.679
-107.679
-111.171
-111.171
-112.695
-117.572
-117.572
-115.087
-117.02
-117.02
-109.36
-109.36
-98.1849
-94.6385
-94.6385
-80.108
-80.108
-65.3304
-58.7085
-58.7085
-44.8194
-44.8194
-32.7792
-26.0549
-26.0549
-16.7475
-16.7475
-9.41749
-9.41749
-4.01274
)
;
    }
    procBoundary5to4
    {
        type            processor;
        value           nonuniform List<scalar> 
18
(
-66.2422
-66.7584
-68.2468
-70.4625
-73.1903
-76.2624
-79.4883
-82.6695
-85.6105
-88.1295
-90.0727
-91.327
-91.8668
-91.7296
-91.0044
-91.0044
-81.7371
-80.277
)
;
    }
}


// ************************************************************************* //
