/*--------------------------------*- C++ -*----------------------------------*\
| =========                 |                                                 |
| \\      /  F ield         | OpenFOAM: The Open Source CFD Toolbox           |
|  \\    /   O peration     | Version:  dev                                   |
|   \\  /    A nd           | Web:      www.OpenFOAM.org                      |
|    \\/     M anipulation  |                                                 |
\*---------------------------------------------------------------------------*/
FoamFile
{
    version     2.0;
    format      ascii;
    class       volVectorField;
    location    "4.05";
    object      U;
}
// * * * * * * * * * * * * * * * * * * * * * * * * * * * * * * * * * * * * * //

dimensions      [0 1 -1 0 0 0 0];

internalField   nonuniform List<vector> 
2790
(
(9.9398 0 0.0194255)
(9.87251 3.35878e-22 0.0283656)
(9.77488 -3.44243e-22 0.0347276)
(9.65142 -7.10763e-22 0.0411694)
(9.5085 -2.19751e-21 0.0478534)
(9.34762 3.00914e-21 0.0547669)
(9.16793 0 0.0620464)
(8.96837 0 0.0698549)
(8.748 -1.66618e-21 0.0783333)
(8.50582 -5.20202e-21 0.0876108)
(8.24062 3.56529e-21 0.0978177)
(7.95102 0 0.109089)
(7.63551 0 0.121562)
(7.29248 0 0.135374)
(6.92033 8.45937e-21 0.150652)
(6.51755 -8.69378e-21 0.167499)
(6.0828 -4.56484e-21 0.185978)
(5.61515 0 0.206082)
(5.11427 -2.00509e-20 0.227701)
(4.58075 2.06487e-20 0.250575)
(4.01639 0 0.274243)
(3.42467 5.68454e-20 0.297978)
(2.81104 -4.69553e-20 0.320708)
(2.18337 -1.2278e-20 0.340937)
(1.55204 0 0.356759)
(0.929431 -1.32222e-20 0.367097)
(0.328898 1.23071e-19 0.370647)
(-0.438075 -1.12222e-19 -0.111914)
(-0.311212 0 -0.345698)
(-0.0988908 2.94029e-20 -0.397905)
(9.99594 0 0.0393681)
(9.98135 -1.34145e-21 0.0603816)
(9.93918 -3.82437e-24 0.0765824)
(9.87034 -1.4156e-21 0.0934569)
(9.77996 4.37815e-21 0.111376)
(9.66957 -7.49616e-21 0.13024)
(9.53852 -3.09774e-21 0.150307)
(9.38582 -6.43659e-21 0.171928)
(9.21059 4.94235e-21 0.195411)
(9.01183 1.71662e-21 0.221038)
(8.78838 0 0.249085)
(8.53885 0 0.27983)
(8.26171 0 0.313539)
(7.95534 -3.21486e-20 0.350444)
(7.61806 2.47e-20 0.390713)
(7.24821 0 0.434409)
(6.8443 4.51031e-21 0.48142)
(6.40514 0 0.531386)
(5.93008 0 0.583589)
(5.41933 0 0.636843)
(4.87425 1.07158e-19 0.689355)
(4.29786 7.72998e-20 0.738595)
(3.69531 -2.0924e-19 0.781149)
(3.0745 1.05016e-20 0.81258)
(2.44707 1.99401e-19 0.827215)
(1.8321 1.29597e-20 0.817292)
(1.24512 -1.33881e-20 0.767642)
(0.727168 -4.42526e-19 0.582474)
(0.305752 4.8468e-19 0.290814)
(0.0836008 3.81775e-19 -0.362303)
(9.99299 0 0.0423673)
(9.97539 0 0.0728977)
(9.93513 0 0.099559)
(9.8709 2.80732e-21 0.127354)
(9.78651 5.80038e-21 0.156972)
(9.68365 -3.01753e-21 0.188401)
(9.56194 9.25573e-21 0.221978)
(9.4206 1.28372e-20 0.258193)
(9.25892 -9.84665e-21 0.297521)
(9.07608 -1.37547e-20 0.340417)
(8.87112 4.26124e-20 0.387341)
(8.64285 -2.18874e-20 0.438758)
(8.38995 0 0.495123)
(8.11096 -7.91553e-21 0.556848)
(7.80431 8.25291e-21 0.62425)
(7.4684 -8.56068e-21 0.697487)
(7.10166 0 0.776449)
(6.70264 7.49285e-20 0.860623)
(6.27025 -7.69565e-20 0.948926)
(5.80393 1.62534e-19 1.03949)
(5.304 -2.09117e-19 1.12941)
(4.77211 2.18268e-20 1.21451)
(4.21169 9.75775e-23 1.28899)
(3.62873 0 1.34508)
(3.03254 -3.69508e-19 1.37233)
(2.43779 3.55229e-19 1.35572)
(1.85833 0 1.26887)
(1.30967 -2.72159e-20 1.05422)
(0.77516 -2.81479e-20 0.706243)
(0.412281 -4.10352e-19 0.0863589)
(9.99129 0 0.0480207)
(9.97141 0 0.0895851)
(9.931 -5.48202e-21 0.128006)
(9.86799 -5.64192e-21 0.167021)
(9.78532 -1.16192e-20 0.207861)
(9.68463 1.19352e-20 0.250901)
(9.56579 6.16168e-21 0.296656)
(9.42823 6.36202e-21 0.345777)
(9.27138 -2.64683e-20 0.398918)
(9.09468 -2.85715e-22 0.456717)
(8.89741 2.80676e-20 0.519818)
(8.67871 -7.32178e-21 0.588871)
(8.4376 0 0.664522)
(8.17301 7.88797e-21 0.747375)
(7.88376 0 0.837935)
(7.56862 8.5208e-21 0.936524)
(7.22631 1.60163e-19 1.04315)
(6.85558 -1.2785e-19 1.15735)
(6.45527 1.35126e-19 1.27793)
(6.02447 -1.58304e-19 1.4027)
(5.56272 2.07758e-20 1.52813)
(5.07028 -2.16049e-20 1.64893)
(4.54856 6.70825e-20 1.75759)
(4.00054 0 1.84382)
(3.43108 -2.41826e-20 1.89365)
(2.8474 5.01166e-20 1.88798)
(2.2558 4.15411e-19 1.79883)
(1.66127 -4.02018e-19 1.58525)
(1.03937 0 1.23632)
(0.551142 0 0.70612)
(9.99049 0 0.0551923)
(9.9694 -2.67128e-21 0.106379)
(9.92887 8.21456e-21 0.155158)
(9.86695 0 0.204377)
(9.786 1.74066e-20 0.255638)
(9.68747 -2.9827e-20 0.309683)
(9.57132 1.2241e-20 0.367169)
(9.43706 -6.35338e-21 0.42884)
(9.28423 -6.5476e-21 0.495456)
(9.11235 0 0.567766)
(8.92086 2.82372e-20 0.646523)
(8.70908 -1.01954e-19 0.732491)
(8.47626 5.99426e-20 0.82643)
(8.22159 0 0.929062)
(7.94421 -1.61876e-20 1.04102)
(7.64321 0 1.16275)
(7.31765 -1.75553e-20 1.29438)
(6.96651 -1.82456e-20 1.43554)
(6.58878 1.71225e-19 1.58509)
(6.18341 -4.72534e-19 1.74081)
(5.74941 -3.9767e-21 1.89894)
(5.28595 -3.79513e-19 2.05369)
(4.79252 -4.41854e-20 2.19669)
(4.26913 4.55001e-20 2.31635)
(3.71631 0 2.39711)
(3.13518 0 2.41882)
(2.52576 -8.18043e-19 2.35557)
(1.88817 8.71167e-19 2.17535)
(1.18911 -8.54546e-19 1.86457)
(0.595065 9.19445e-19 1.37768)
(9.99012 0 0.0630287)
(9.96855 -1.06382e-20 0.123173)
(9.9283 0 0.181772)
(9.86771 -2.24607e-20 0.241061)
(9.78883 -1.29148e-23 0.30269)
(9.69292 1.18717e-20 0.367617)
(9.57995 -6.13393e-21 0.436618)
(9.4495 0 0.510515)
(9.30116 6.53692e-21 0.590159)
(9.13451 1.34672e-20 0.676403)
(8.94907 0 0.770102)
(8.74427 7.26052e-20 0.872121)
(8.51948 -5.95201e-20 0.983321)
(8.27402 6.24362e-20 1.10452)
(8.00718 -1.77321e-19 1.23646)
(7.71823 -1.83472e-20 1.37968)
(7.40637 1.37626e-19 1.53445)
(7.07073 -1.44694e-19 1.70052)
(6.71031 4.11446e-19 1.87691)
(6.32391 -3.07802e-19 2.06154)
(5.91011 3.23291e-19 2.25078)
(5.46714 3.81475e-20 2.43892)
(4.99291 6.48717e-19 2.61752)
(4.48494 -4.0204e-19 2.7748)
(3.94038 0 2.89507)
(3.35604 -7.74708e-19 2.95844)
(2.72757 7.98406e-19 2.94089)
(2.0537 -2.60885e-20 2.81444)
(1.29581 -8.95602e-19 2.56463)
(0.627233 -3.03085e-20 2.13923)
(9.99 0 0.0711165)
(9.96845 1.06346e-20 0.139873)
(9.92889 1.08813e-20 0.20781)
(9.8699 2.24198e-20 0.276803)
(9.79343 1.15804e-20 0.348437)
(9.70058 -4.74398e-20 0.423823)
(9.59131 2.43272e-20 0.50387)
(9.46527 -2.52758e-20 0.589493)
(9.32209 2.58697e-20 0.681634)
(9.1614 -1.34413e-20 0.781238)
(8.98279 -5.57665e-20 0.889252)
(8.78573 4.27723e-20 1.00663)
(8.56967 5.97289e-20 1.13431)
(8.33398 -6.1137e-20 1.27321)
(8.07802 1.58671e-20 1.42414)
(7.80108 1.65564e-20 1.58777)
(7.50238 0 1.76448)
(7.18101 -3.52904e-20 1.95421)
(6.83584 3.32708e-19 2.15621)
(6.46542 -3.02948e-19 2.36873)
(6.06782 0 2.58856)
(5.64043 0 2.81052)
(5.17982 4.26161e-20 3.02676)
(4.68156 0 3.22615)
(4.14021 0 3.39369)
(3.54957 0 3.51019)
(2.90232 4.87112e-20 3.55255)
(2.19766 2.53276e-20 3.4935)
(1.3943 8.38213e-19 3.31542)
(0.665179 -8.86316e-19 2.95572)
(9.99003 0 0.0792188)
(9.96886 1.58788e-20 0.15631)
(9.93035 -1.63016e-20 0.233128)
(9.87327 1.11365e-20 0.311395)
(9.79954 0 0.392633)
(9.71016 2.36698e-20 0.478053)
(9.6051 -2.42214e-20 0.568687)
(9.48405 0 0.66554)
(9.34669 0 0.769631)
(9.19272 -1.32994e-20 0.88199)
(9.02175 1.37334e-20 1.00365)
(8.83332 -4.29611e-20 1.13564)
(8.62691 1.03076e-19 1.279)
(8.40195 -1.83029e-19 1.43472)
(8.15779 1.09499e-19 1.60374)
(7.89369 0 1.78683)
(7.6088 3.35882e-20 1.98455)
(7.30207 3.50967e-20 2.19707)
(6.97214 0 2.42398)
(6.61719 3.71997e-20 2.664)
(6.23473 -3.8479e-20 2.91457)
(5.82134 0 3.17139)
(5.37239 0 3.4277)
(4.88181 0 3.67361)
(4.34206 0 3.8953)
(3.74453 0 4.07447)
(3.07933 -4.81303e-20 4.18813)
(2.34607 -2.50171e-20 4.20741)
(1.50204 -8.17463e-19 4.10827)
(0.71442 1.78547e-18 3.81474)
(9.99015 2.57992e-21 0.0871857)
(9.96964 -2.37543e-20 0.172324)
(9.93249 -1.08082e-20 0.257589)
(9.87761 -3.33605e-20 0.344682)
(9.80694 -4.0385e-24 0.435086)
(9.72143 -2.35624e-20 0.53008)
(9.62106 4.83702e-20 0.630795)
(9.50554 -6.22519e-20 0.738321)
(9.37463 -2.59884e-20 0.853751)
(9.22807 6.60232e-20 0.978192)
(9.06553 -6.86302e-20 1.11275)
(8.8866 -5.47744e-22 1.25856)
(8.69082 5.81204e-20 1.41673)
(8.47763 -1.36142e-19 1.58837)
(8.24638 9.28886e-20 1.77452)
(7.99631 -1.2943e-19 1.97614)
(7.72647 9.8932e-20 2.19399)
(7.43563 -3.4187e-20 2.42854)
(7.12217 -2.8577e-19 2.67982)
(6.78389 5.5055e-19 2.94715)
(6.41773 -5.68746e-19 3.22886)
(6.01948 -3.14927e-19 3.52179)
(5.58339 9.72856e-19 3.82067)
(5.1019 -7.07765e-19 4.11732)
(4.56544 -7.37484e-19 4.39962)
(3.96296 7.13367e-19 4.65041)
(3.28147 7.22251e-19 4.8465)
(2.51937 -7.44908e-19 4.95603)
(1.63276 0 4.94589)
(0.779799 -3.94693e-20 4.72322)
(9.99033 0 0.0949144)
(9.97069 1.05384e-20 0.187779)
(9.93517 3.59734e-23 0.281063)
(9.88278 3.85683e-23 0.376515)
(9.81547 1.13904e-20 0.475608)
(9.7342 1.17818e-20 0.57967)
(9.63894 -2.39838e-20 0.689914)
(9.52946 1.24086e-20 0.807505)
(9.40557 5.12193e-20 0.933607)
(9.26707 -5.23796e-20 1.0694)
(9.1137 5.44667e-20 1.21606)
(8.9451 -6.96255e-20 1.3748)
(8.76087 1.44818e-20 1.54684)
(8.56049 1.49524e-20 1.73339)
(8.34333 -9.2721e-20 1.93565)
(8.10863 9.47627e-20 2.15475)
(7.85535 0 2.39173)
(7.58215 4.07443e-22 2.64742)
(7.2872 -2.80312e-19 2.92237)
(6.96794 2.86466e-19 3.21667)
(6.62085 0 3.5297)
(6.24103 3.07052e-19 3.85971)
(5.82173 3.57805e-19 4.20331)
(5.35393 -6.46733e-19 4.55454)
(4.8259 9.22005e-22 4.90366)
(4.22361 6.94541e-19 5.23538)
(3.52962 -6.91375e-19 5.5268)
(2.73806 -6.3072e-22 5.74279)
(1.80241 0 5.83893)
(0.868684 8.21328e-19 5.69972)
(9.99057 -2.56204e-21 0.10233)
(9.97195 -2.6263e-21 0.202563)
(9.9383 2.68516e-20 0.303427)
(9.88865 4.16756e-23 0.406753)
(9.82498 0 0.514025)
(9.74828 1.16542e-20 0.626613)
(9.65853 1.193e-20 0.745793)
(9.55554 -1.22719e-20 0.872798)
(9.43919 0 1.00886)
(9.30934 -5.2386e-20 1.1552)
(9.1658 5.35523e-20 1.3131)
(9.0083 1.38998e-20 1.48383)
(8.83649 0 1.66871)
(8.64992 1.465e-20 1.86906)
(8.44803 -9.17338e-20 2.08625)
(8.23006 3.03333e-20 2.32161)
(7.995 -3.31531e-20 2.57649)
(7.74145 -1.01074e-19 2.85213)
(7.46749 3.17329e-20 3.14971)
(7.17038 3.15319e-19 3.47015)
(6.84631 -2.90566e-19 3.81404)
(6.4899 0 4.18133)
(6.09365 -3.86384e-20 4.57086)
(5.64723 6.70242e-19 4.97956)
(5.13668 -1.2521e-18 5.4011)
(4.54421 1.3714e-18 5.82356)
(3.84603 -6.84446e-19 6.22618)
(3.02716 6.87864e-19 6.57219)
(2.03335 -7.23297e-19 6.80468)
(0.993192 7.8128e-19 6.77577)
(9.99085 -2.03713e-20 0.109377)
(9.97337 0 0.216582)
(9.94179 -2.13943e-20 0.324571)
(9.8951 1.09936e-20 0.435268)
(9.83534 1.12373e-20 0.550182)
(9.7635 -1.15402e-20 0.670718)
(9.6796 -1.19168e-20 0.798206)
(9.58351 1.22558e-20 0.933934)
(9.47516 1.25361e-20 1.07918)
(9.35449 -5.19475e-20 1.23525)
(9.22139 -3.91782e-22 1.40345)
(9.07567 4.09901e-20 1.58515)
(8.91707 -1.27458e-19 1.78173)
(8.74525 8.67695e-20 1.99466)
(8.55972 -1.50273e-19 2.22544)
(8.35983 1.22729e-19 2.47565)
(8.14465 3.18848e-20 2.74691)
(7.91286 -2.9391e-19 3.04095)
(7.6626 2.33207e-19 3.35954)
(7.3912 -3.10471e-19 3.70455)
(7.09484 2.81405e-19 4.07787)
(6.76806 0 4.48131)
(6.40306 0 4.91636)
(5.98871 0 5.38355)
(5.50917 -3.81385e-20 5.88135)
(4.94261 -7.92582e-20 6.40374)
(4.25696 6.50381e-19 6.93615)
(3.42157 -6.68702e-19 7.44572)
(2.3624 9.86643e-21 7.86687)
(1.17655 -6.52803e-22 8.00681)
(9.99116 2.29078e-20 0.116009)
(9.97493 -2.33492e-20 0.229759)
(9.94558 1.06715e-20 0.344398)
(9.90206 0 0.461944)
(9.84642 1.12255e-20 0.58394)
(9.7797 1.1631e-20 0.711819)
(9.70196 -3.54841e-20 0.846954)
(9.61312 -1.23807e-20 0.990679)
(9.51317 8.73312e-20 1.14432)
(9.40213 -5.11681e-20 1.30921)
(9.27998 0 1.48673)
(9.14664 1.36257e-20 1.67829)
(9.00195 1.40187e-20 1.88537)
(8.8457 1.2963e-19 2.10953)
(8.67753 -1.02946e-19 2.35242)
(8.49696 -1.51786e-19 2.61581)
(8.30323 2.4905e-19 2.90164)
(8.09525 1.6104e-19 3.21204)
(7.87141 -2.6138e-19 3.54941)
(7.62936 0 3.91652)
(7.3657 0 4.31655)
(7.07544 0 4.75326)
(6.75125 0 5.23097)
(6.38228 0 5.75445)
(5.9521 6.28545e-19 6.32845)
(5.43613 -5.46303e-19 6.95621)
(4.79404 0 7.63618)
(3.97327 0 8.35254)
(2.85765 -2.04365e-20 9.05154)
(1.46956 8.73101e-21 9.49906)
(9.99149 2.01964e-20 0.122192)
(9.9766 4.14e-20 0.24203)
(9.94962 -1.06129e-20 0.362825)
(9.90942 1.08524e-20 0.486682)
(9.8581 0 0.61518)
(9.79672 1.14047e-20 0.749776)
(9.7254 -1.17704e-20 0.891876)
(9.64409 -1.20897e-20 1.04285)
(9.55287 4.96654e-20 1.20404)
(9.45185 2.90211e-22 1.37684)
(9.34109 -6.51383e-20 1.56265)
(9.22062 0 1.76293)
(9.09042 0 1.97921)
(8.95043 0 2.21314)
(8.80048 1.16452e-19 2.4665)
(8.6403 -8.89634e-20 2.74121)
(8.4694 0 3.03947)
(8.28704 -1.25469e-19 3.36376)
(8.09208 3.84432e-19 3.71702)
(7.88279 -2.61405e-19 4.10277)
(7.6566 0 4.52537)
(7.40966 -2.71219e-19 4.99032)
(7.1362 1.1416e-21 5.50465)
(6.82732 2.01442e-21 6.07748)
(6.46882 3.13587e-21 6.72063)
(6.03768 8.0957e-19 7.44944)
(5.49146 4.5556e-21 8.28359)
(4.75905 -5.86538e-19 9.2468)
(3.65613 0 10.3592)
(1.99629 -8.11551e-20 11.4871)
(9.99184 -8.83086e-23 0.127899)
(9.97835 -2.58041e-20 0.253343)
(9.95384 5.27094e-21 0.379779)
(9.91712 -2.15641e-20 0.509389)
(9.87027 1.10525e-20 0.643782)
(9.81442 -1.13955e-20 0.784436)
(9.74971 0 0.932777)
(9.67617 -1.20609e-20 1.0902)
(9.59395 1.2268e-20 1.25807)
(9.50324 0 1.4378)
(9.4042 1.2992e-20 1.6308)
(9.29699 0 1.83856)
(9.18174 1.35552e-20 2.06267)
(9.05855 0 2.30482)
(8.92749 -1.29222e-19 2.56684)
(8.78852 2.4921e-19 2.85081)
(8.64154 3.85485e-22 3.15907)
(8.48626 -1.07316e-19 3.49437)
(8.32215 -1.55055e-20 3.86001)
(8.14837 0 4.26005)
(7.96359 -2.58741e-19 4.69968)
(7.76575 2.78056e-19 5.18566)
(7.55172 -5.30236e-19 5.72708)
(7.31664 2.68285e-19 6.33645)
(7.05252 -2.63529e-19 7.03166)
(6.74609 2.84569e-19 7.8395)
(6.37061 -1.67734e-20 8.80322)
(5.8752 1.63732e-20 10.0022)
(5.05888 0 11.6278)
(3.09202 5.89954e-20 14.5176)
(0.146137 0 -0.161916)
(0.366636 0 -0.149554)
(0.582319 3.10115e-22 -0.12064)
(0.769499 2.29309e-21 -0.0917312)
(0.918048 -2.23261e-21 -0.0663733)
(1.02893 0 -0.0446905)
(1.10618 0 -0.0262936)
(1.15355 0 -0.0109641)
(1.1744 2.10222e-22 0.00121371)
(1.17312 0 0.00989291)
(1.15531 0 0.0151212)
(1.12689 0 0.0173685)
(1.09339 0 0.0174556)
(1.05906 3.16309e-22 0.0161348)
(1.02693 -3.09504e-22 0.013932)
(0.999008 7.13628e-23 0.0112301)
(0.976535 6.6651e-23 0.0083475)
(0.960011 0 0.00556545)
(0.949275 0 0.00309502)
(0.943671 2.60237e-23 0.00098096)
(0.942618 0 -0.000919207)
(0.946183 -2.10472e-23 -0.00271797)
(0.954309 -1.85475e-23 -0.0043653)
(0.967031 1.60436e-23 -0.00570389)
(0.983826 0 -0.00661005)
(1.00373 0 -0.00722105)
(1.02619 8.56114e-24 -0.00797893)
(1.05178 -1.23654e-24 -0.00934879)
(1.0818 -2.47081e-24 -0.011108)
(1.12311 0 -0.0116002)
(0.101336 -1.20398e-20 -0.355496)
(0.325363 1.04391e-20 -0.340531)
(0.526827 -3.09688e-22 -0.283352)
(0.704818 4.52016e-21 -0.224355)
(0.853049 -9.16363e-21 -0.171966)
(0.972801 4.1215e-21 -0.126332)
(1.06741 -4.70429e-22 -0.0864974)
(1.13972 0 -0.0519411)
(1.19194 -4.19344e-22 -0.0226438)
(1.22555 -1.98067e-22 0.00100956)
(1.2406 -1.48538e-21 0.0177415)
(1.24194 -1.3645e-22 0.0272793)
(1.2355 1.54941e-21 0.0308999)
(1.22558 0 0.0303753)
(1.21523 -4.43145e-22 0.0271521)
(1.20652 5.10922e-22 0.0223666)
(1.20055 5.96415e-23 0.0169344)
(1.19749 -2.53818e-22 0.0116022)
(1.19677 5.69747e-23 0.00690753)
(1.1974 -2.59702e-23 0.00299808)
(1.19836 9.00439e-23 -0.00045425)
(1.19881 -1.09149e-22 -0.00394427)
(1.19924 1.85123e-23 -0.00766633)
(1.20022 -1.60151e-23 -0.011289)
(1.20212 2.70788e-23 -0.0142131)
(1.20478 -4.18771e-23 -0.0161209)
(1.20758 1.08154e-23 -0.0173798)
(1.21031 -1.71659e-23 -0.0189944)
(1.21452 8.51492e-24 -0.0214623)
(1.22709 2.50005e-24 -0.0221538)
(0.0609943 1.33012e-21 -0.549028)
(0.260151 -1.00184e-20 -0.528741)
(0.421342 1.85997e-20 -0.445179)
(0.565541 -9.20919e-21 -0.359591)
(0.687775 8.29616e-24 -0.283704)
(0.789705 0 -0.217277)
(0.873676 4.71493e-22 -0.158876)
(0.941436 0 -0.107745)
(0.994485 2.09638e-22 -0.0636691)
(1.03398 1.98593e-22 -0.0269655)
(1.06306 8.49618e-23 0.00145146)
(1.07884 4.4974e-21 0.0198564)
(1.0861 -2.10708e-22 0.028922)
(1.0885 -1.63443e-21 0.0310159)
(1.08804 3.84649e-25 0.0284231)
(1.08593 0 0.0230712)
(1.08259 1.33501e-22 0.0165197)
(1.07775 -4.81919e-22 0.0100575)
(1.07062 4.14335e-22 0.00472228)
(1.06014 0 0.00105892)
(1.04539 0 -0.00111975)
(1.0263 4.21558e-23 -0.00256628)
(1.0036 0 -0.00395949)
(0.979197 6.44636e-23 -0.00540461)
(0.955607 2.27263e-23 -0.0065823)
(0.934339 -2.66506e-23 -0.00737984)
(0.91659 -4.92315e-23 -0.00846857)
(0.902392 1.22339e-23 -0.0114218)
(0.893147 -9.72288e-24 -0.0174946)
(0.891376 -2.5061e-24 -0.0246102)
(0.0277002 -6.39469e-22 -0.706746)
(0.190041 0 -0.671966)
(0.302858 9.87535e-21 -0.563805)
(0.406488 -8.49128e-21 -0.458425)
(0.494533 5.28627e-22 -0.366584)
(0.570095 0 -0.28649)
(0.634798 7.33793e-21 -0.216069)
(0.689374 -7.61232e-21 -0.154265)
(0.734779 4.17402e-22 -0.100347)
(0.771101 -2.73239e-21 -0.0546569)
(0.799628 0 -0.0188207)
(0.819728 3.59783e-22 0.00603003)
(0.828439 2.69519e-21 0.0203155)
(0.830035 -1.0353e-21 0.0262586)
(0.825597 -1.40091e-21 0.0266387)
(0.814904 -1.12694e-21 0.024167)
(0.797097 5.28589e-23 0.0210679)
(0.771832 1.15169e-21 0.0189305)
(0.740433 0 0.018541)
(0.705735 1.05253e-22 0.0196243)
(0.670674 0 0.0209087)
(0.637388 0 0.0208403)
(0.607535 0 0.0184722)
(0.582857 -1.85385e-22 0.0139015)
(0.56453 1.22647e-22 0.00812196)
(0.552183 4.90109e-23 0.00239232)
(0.544177 3.44585e-23 -0.00239935)
(0.537047 2.45877e-23 -0.00759195)
(0.529409 0 -0.0159811)
(0.514669 0 -0.0307387)
(-0.00237218 7.46324e-24 -0.824488)
(0.114742 -1.95906e-20 -0.767422)
(0.175054 1.93794e-20 -0.638202)
(0.234961 -1.10437e-21 -0.520211)
(0.283263 0 -0.419145)
(0.32568 -4.9343e-22 -0.33136)
(0.363503 -7.34785e-21 -0.254293)
(0.396322 -2.27425e-22 -0.187047)
(0.425257 6.39268e-21 -0.129364)
(0.450762 5.49788e-21 -0.0794515)
(0.466707 8.77753e-21 -0.0360827)
(0.470308 -3.29589e-21 -0.00149174)
(0.465666 0 0.0209227)
(0.45489 -2.57469e-21 0.0326137)
(0.437806 2.20733e-21 0.038134)
(0.415376 2.91528e-22 0.0409502)
(0.389412 0 0.0427729)
(0.362017 -1.25665e-22 0.0439199)
(0.335185 -4.4843e-22 0.0440201)
(0.310437 -7.45587e-23 0.0426418)
(0.288558 5.90255e-22 0.0395046)
(0.269582 0 0.0344897)
(0.253061 7.54203e-23 0.02781)
(0.238584 1.21322e-22 0.0201575)
(0.225614 -1.73501e-22 0.0125419)
(0.212783 0 0.00610848)
(0.200442 0 0.00179786)
(0.192839 0 -0.00186847)
(0.174221 0 -0.0105608)
(0.147165 0 -0.0306859)
(-0.0302296 2.07626e-20 -0.897269)
(0.0361653 3.03838e-22 -0.811926)
(0.0432156 -1.88748e-20 -0.666018)
(0.058426 1.84207e-20 -0.540631)
(0.0641031 -5.25722e-22 -0.434455)
(0.0685369 8.3206e-21 -0.342262)
(0.072924 -7.65059e-21 -0.260738)
(0.0752456 -9.08334e-24 -0.187987)
(0.0717462 -8.56385e-22 -0.124138)
(0.0704622 1.218e-21 -0.0699054)
(0.0679865 3.83699e-22 -0.025093)
(0.0660473 0 0.00841596)
(0.0617361 0 0.0307719)
(0.0536556 0 0.0444748)
(0.0423079 -2.39488e-24 0.0523573)
(0.0285882 -1.44113e-21 0.0564007)
(0.0137372 1.12269e-21 0.0577886)
(-0.00123378 0 0.0571485)
(-0.0156216 9.03647e-22 0.0548584)
(-0.0291467 -8.83371e-22 0.0512213)
(-0.041985 -1.92156e-22 0.0464691)
(-0.0547028 -3.26802e-22 0.0407532)
(-0.0679418 9.25786e-23 0.0342568)
(-0.082061 1.30685e-22 0.0273177)
(-0.0971672 -1.0997e-22 0.02048)
(-0.11338 8.00742e-23 0.0144837)
(-0.130735 -1.08117e-22 0.00994954)
(-0.148501 4.89029e-23 0.00583704)
(-0.165756 -1.93174e-23 -0.00321269)
(-0.186457 0 -0.019964)
(-0.0568819 -1.59251e-22 -0.919886)
(-0.0436344 -1.93064e-20 -0.802986)
(-0.0869097 1.91509e-20 -0.646425)
(-0.11612 0 -0.518403)
(-0.151087 -1.61667e-20 -0.411901)
(-0.184156 1.52979e-20 -0.321381)
(-0.213978 0 -0.243373)
(-0.239112 7.14288e-21 -0.175747)
(-0.258471 -1.29512e-20 -0.117344)
(-0.271913 5.84268e-21 -0.0672994)
(-0.280361 6.16864e-21 -0.0253808)
(-0.283787 -6.02971e-21 0.00774206)
(-0.285683 0 0.0316508)
(-0.288309 -2.28949e-21 0.0473542)
(-0.292282 2.8795e-21 0.0567146)
(-0.297908 0 0.0615686)
(-0.305104 0 0.063303)
(-0.313693 0 0.0628476)
(-0.323527 2.34892e-22 0.0608083)
(-0.334538 0 0.0575882)
(-0.346744 1.93044e-22 0.0534282)
(-0.360199 1.54584e-22 0.0484333)
(-0.374882 -3.01896e-22 0.0426719)
(-0.390633 1.48065e-22 0.0363394)
(-0.407258 9.21283e-24 0.0299185)
(-0.42482 8.90069e-23 0.0242112)
(-0.443895 -1.75952e-22 0.0197986)
(-0.465098 2.89282e-23 0.0152948)
(-0.487001 0 0.00614772)
(-0.500342 0 -0.00812183)
(-0.0841804 1.18621e-22 -0.887071)
(-0.122631 0 -0.745379)
(-0.211197 5.93148e-24 -0.588294)
(-0.281051 0 -0.464643)
(-0.349163 0 -0.364322)
(-0.409275 1.01411e-21 -0.281512)
(-0.460125 1.63355e-20 -0.211658)
(-0.500728 -1.50213e-20 -0.151963)
(-0.531062 -6.93932e-21 -0.100733)
(-0.552207 5.9366e-21 -0.0569452)
(-0.565646 0 -0.0202003)
(-0.572357 -7.62352e-22 0.0093605)
(-0.575522 -7.21397e-22 0.0317471)
(-0.577695 -3.35554e-22 0.0475606)
(-0.580432 0 0.0579197)
(-0.58488 0 0.0641548)
(-0.591574 0 0.0673603)
(-0.600604 -7.36173e-22 0.0683038)
(-0.611774 6.41004e-23 0.0675008)
(-0.624736 1.1021e-21 0.0652938)
(-0.639106 -1.9257e-22 0.0618874)
(-0.654534 3.43823e-22 0.0573921)
(-0.67076 1.73275e-25 0.0519337)
(-0.687648 0 0.045814)
(-0.705265 1.09239e-22 0.0396606)
(-0.724071 8.87344e-23 0.0343797)
(-0.745102 6.82632e-23 0.0304199)
(-0.769205 4.73991e-23 0.0260838)
(-0.793551 0 0.0173487)
(-0.80743 0 0.00546285)
(-0.113628 4.07419e-23 -0.801437)
(-0.19883 -1.61117e-22 -0.644921)
(-0.32908 -3.00509e-22 -0.49379)
(-0.434491 5.86083e-22 -0.380622)
(-0.529812 0 -0.292975)
(-0.61082 -1.65318e-20 -0.223185)
(-0.676624 1.51637e-20 -0.166146)
(-0.727879 9.36196e-21 -0.11822)
(-0.766283 -7.29639e-21 -0.0770573)
(-0.793803 8.4509e-22 -0.0414597)
(-0.812713 -6.39535e-21 -0.0110525)
(-0.824289 1.73302e-21 0.0141282)
(-0.831957 6.63144e-21 0.0342191)
(-0.838002 3.37695e-21 0.0495667)
(-0.844305 -2.62437e-21 0.0607483)
(-0.852238 0 0.0684885)
(-0.86244 0 0.0733703)
(-0.874926 4.82933e-22 0.0758107)
(-0.889311 -1.21042e-21 0.076143)
(-0.905053 6.10423e-22 0.0746625)
(-0.921651 -8.05888e-22 0.0716213)
(-0.938764 -1.71701e-22 0.0672458)
(-0.956272 -1.50705e-22 0.0618285)
(-0.974296 -1.11622e-22 0.0558649)
(-0.993211 1.27024e-22 0.0501503)
(-1.01382 -8.79956e-23 0.0456161)
(-1.03757 -5.78655e-23 0.0424919)
(-1.06551 -5.59418e-23 0.0388967)
(-1.0938 1.37702e-23 0.0313974)
(-1.10997 -1.27272e-23 0.0216353)
(-0.146505 0 -0.664096)
(-0.278678 1.61397e-22 -0.502384)
(-0.449187 -1.97256e-20 -0.365243)
(-0.587944 3.74324e-20 -0.270565)
(-0.707182 -4.86456e-22 -0.202364)
(-0.804335 -1.63213e-20 -0.151559)
(-0.881112 0 -0.111356)
(-0.940304 2.4377e-23 -0.0775913)
(-0.984965 7.27602e-21 -0.0478876)
(-1.01814 -7.1067e-21 -0.0211582)
(-1.04239 6.53573e-21 0.00264729)
(-1.05977 -6.36374e-21 0.0233642)
(-1.07348 -7.48144e-22 0.0410082)
(-1.0853 -6.89718e-22 0.0555697)
(-1.09706 2.54593e-21 0.0672191)
(-1.11004 -1.87613e-21 0.0761069)
(-1.12481 0 0.0822588)
(-1.14128 5.18075e-22 0.0857086)
(-1.15897 0 0.0866373)
(-1.17737 0 0.0853735)
(-1.19609 0 0.0823018)
(-1.21502 -1.71934e-22 0.0778186)
(-1.23424 0 0.072398)
(-1.254 -1.29414e-22 0.0667064)
(-1.27472 9.91119e-23 0.061637)
(-1.29711 -9.13541e-24 0.0580437)
(-1.32257 -1.23716e-22 0.0558875)
(-1.352 5.66062e-23 0.0531615)
(-1.38098 -4.34783e-24 0.0468935)
(-1.39671 3.79982e-23 0.0388093)
(-0.187387 1.78141e-22 -0.471739)
(-0.374235 0 -0.318461)
(-0.589288 2.08249e-20 -0.203026)
(-0.761272 -5.24855e-22 -0.135725)
(-0.898939 -1.8718e-20 -0.0963688)
(-1.00614 1.73862e-20 -0.07054)
(-1.08873 -1.58883e-20 -0.0504484)
(-1.15203 -9.85138e-21 -0.0323858)
(-1.20047 7.67302e-21 -0.0146692)
(-1.23758 -7.07557e-21 0.00318228)
(-1.26637 -1.35948e-20 0.0207548)
(-1.28988 6.54848e-21 0.03737)
(-1.30971 -1.69236e-23 0.0524959)
(-1.32747 -3.48645e-21 0.0659262)
(-1.3448 2.70639e-21 0.0775911)
(-1.36295 -6.1005e-22 0.087152)
(-1.38246 0 0.0940843)
(-1.40313 2.41877e-24 0.098048)
(-1.42445 1.15642e-21 0.0991252)
(-1.44598 -8.96847e-22 0.0977484)
(-1.4675 0 0.094469)
(-1.48902 1.7154e-22 0.089823)
(-1.51071 2.8212e-22 0.084386)
(-1.53272 -2.75866e-22 0.0788966)
(-1.55525 0 0.0742651)
(-1.57891 8.68758e-23 0.071265)
(-1.60513 4.9526e-25 0.0697416)
(-1.63498 1.85175e-23 0.0678109)
(-1.66392 -1.74127e-23 0.0629692)
(-1.67916 -5.92709e-25 0.0566841)
(-0.251803 2.22627e-20 -0.20563)
(-0.517844 -2.22066e-20 -0.036591)
(-0.774949 -6.43857e-22 0.0147903)
(-0.966826 0 0.0237073)
(-1.1111 0 0.0198077)
(-1.21965 -1.10942e-21 0.01455)
(-1.30227 -9.51905e-21 0.0125797)
(-1.36593 9.26405e-21 0.0147698)
(-1.41558 0 0.0209577)
(-1.45547 7.25637e-21 0.0307929)
(-1.48881 7.08217e-21 0.0430412)
(-1.51749 -8.11142e-22 0.0559484)
(-1.54255 7.62657e-22 0.0684355)
(-1.56522 -1.5631e-23 0.0803786)
(-1.5871 0 0.0916929)
(-1.60957 6.27785e-22 0.101608)
(-1.63313 2.88664e-22 0.10898)
(-1.65741 -5.25449e-22 0.113052)
(-1.68172 4.42683e-22 0.113852)
(-1.7056 -9.00119e-22 0.111999)
(-1.72896 1.93732e-22 0.108249)
(-1.752 0 0.103236)
(-1.77491 0 0.0975602)
(-1.79779 0 0.0919763)
(-1.82072 0 0.0874141)
(-1.8443 -8.66882e-23 0.0846408)
(-1.87017 6.58257e-23 0.0835137)
(-1.89957 4.47951e-23 0.082338)
(-1.92795 -4.06136e-24 0.0789244)
(-1.94263 -1.19072e-23 0.074297)
(-0.325937 3.62318e-22 0.245618)
(-0.673003 0 0.297233)
(-0.973157 0 0.24397)
(-1.17968 -1.95557e-20 0.182572)
(-1.327 1.90839e-20 0.13298)
(-1.43402 1.14502e-21 0.0966275)
(-1.51436 0 0.0739335)
(-1.5768 -7.20302e-21 0.0619391)
(-1.62637 7.05076e-21 0.0577932)
(-1.66717 9.59794e-22 0.0605981)
(-1.70271 0 0.0683762)
(-1.73459 0 0.0779536)
(-1.76295 -7.99521e-22 0.0875957)
(-1.78842 -1.40156e-21 0.0976046)
(-1.8128 3.50003e-21 0.108283)
(-1.83787 -9.45235e-22 0.118425)
(-1.86411 -2.88109e-22 0.126032)
(-1.89079 2.63452e-22 0.129808)
(-1.91683 1.16354e-21 0.129809)
(-1.94171 -9.03169e-22 0.127018)
(-1.96558 -9.3074e-22 0.122491)
(-1.98888 3.97165e-22 0.11693)
(-2.01193 3.16538e-22 0.110866)
(-2.03477 1.27383e-22 0.105009)
(-2.05738 1.94781e-22 0.100306)
(-2.08034 -2.76286e-22 0.0975796)
(-2.10546 1.29773e-22 0.0967933)
(-2.13418 0 0.0964457)
(-2.16196 -4.31388e-23 0.0944511)
(-2.17624 -1.89145e-23 0.0912533)
(-0.429041 -2.23411e-20 0.783581)
(-0.878705 -2.15635e-20 0.702327)
(-1.22966 1.99215e-20 0.498044)
(-1.43016 9.68004e-21 0.336187)
(-1.56073 -9.45282e-21 0.239797)
(-1.65269 -1.14232e-21 0.173086)
(-1.72124 -5.62119e-22 0.131045)
(-1.7764 -8.98021e-21 0.107241)
(-1.82137 9.27037e-21 0.0935288)
(-1.85899 -9.58271e-22 0.0899296)
(-1.89362 -4.66617e-22 0.0945887)
(-1.92665 0 0.101745)
(-1.95641 7.98274e-22 0.108348)
(-1.98244 2.1917e-21 0.115877)
(-2.00713 -3.55773e-21 0.125856)
(-2.0332 2.80338e-21 0.136533)
(-2.06117 -1.29478e-21 0.14451)
(-2.08957 1.88354e-22 0.147711)
(-2.11663 -1.00406e-21 0.14639)
(-2.1417 0 0.142214)
(-2.16531 7.36066e-22 0.136719)
(-2.18834 -3.97075e-22 0.1306)
(-2.21124 -3.15365e-22 0.12416)
(-2.23391 -1.27173e-22 0.117969)
(-2.25614 -8.9507e-24 0.112997)
(-2.27843 -9.04539e-24 0.110202)
(-2.30274 -1.29567e-22 0.10976)
(-2.33076 0 0.110376)
(-2.35807 9.32881e-23 0.109856)
(-2.37213 1.49883e-23 0.107913)
(-0.684824 9.05931e-21 1.74061)
(-1.23214 -7.50257e-21 1.26346)
(-1.60782 2.47089e-22 0.729785)
(-1.7336 0 0.426675)
(-1.80108 0 0.329653)
(-1.86189 -8.6996e-21 0.238287)
(-1.90723 9.62458e-21 0.173552)
(-1.94847 -5.40279e-22 0.144462)
(-1.9849 -8.30678e-21 0.123763)
(-2.01468 8.10867e-21 0.115055)
(-2.04505 -1.51454e-23 0.119692)
(-2.07808 0 0.126603)
(-2.10837 -4.19782e-22 0.129766)
(-2.13308 0 0.1337)
(-2.15596 0 0.143038)
(-2.18187 -2.52076e-21 0.155191)
(-2.21143 1.61734e-21 0.164112)
(-2.24168 8.49613e-22 0.166525)
(-2.26958 0 0.163222)
(-2.29433 0 0.157131)
(-2.31718 -7.34134e-22 0.150558)
(-2.3397 1.03878e-21 0.144032)
(-2.3625 -1.66777e-22 0.13734)
(-2.38518 0 0.130779)
(-2.40718 -9.57015e-23 0.12538)
(-2.42888 1.69717e-22 0.122346)
(-2.45236 -1.95769e-23 0.122193)
(-2.47971 -5.31407e-23 0.123886)
(-2.50675 -5.00242e-23 0.124958)
(-2.52074 1.82862e-23 0.124172)
(9.99221 1.93592e-20 0.133199)
(9.9802 0 0.263849)
(9.9583 2.0167e-20 0.395506)
(9.92524 2.07643e-20 0.530419)
(9.8831 -1.0642e-20 0.67022)
(9.83305 -1.08483e-20 0.816402)
(9.7753 0 0.970401)
(9.70993 -1.14815e-20 1.13362)
(9.63718 8.72622e-23 1.30744)
(9.55732 0 1.49326)
(9.47065 4.94888e-20 1.69251)
(9.37744 -5.05177e-20 1.90669)
(9.27799 -2.59409e-20 2.13738)
(9.1726 0 2.38628)
(9.06157 -1.08954e-19 2.65528)
(8.94521 2.08451e-19 2.94648)
(8.82379 -1.276e-19 3.26231)
(8.6976 -1.46143e-20 3.60561)
(8.56687 1.48942e-20 3.97984)
(8.43181 0 4.38931)
(8.29263 2.42002e-19 4.83954)
(8.14958 2.3054e-19 5.33777)
(8.00308 2.51967e-19 5.89386)
(7.85399 -2.55726e-19 6.52159)
(7.70428 -1.86184e-21 7.24101)
(7.55945 -2.3165e-19 8.0829)
(7.43469 2.27551e-19 9.09782)
(7.40292 0 10.374)
(7.9222 0 12.0391)
(8.17126 0 14.7874)
(9.99261 -2.10599e-20 0.138102)
(9.98216 2.15315e-20 0.273555)
(9.96301 1.96863e-20 0.409993)
(9.93378 1.00656e-20 0.549721)
(9.89656 -1.02888e-20 0.694388)
(9.85255 2.1109e-20 0.845492)
(9.80201 -2.16707e-20 1.00447)
(9.7451 4.43519e-20 1.17272)
(9.68213 -1.12804e-20 1.35163)
(9.61348 0 1.54257)
(9.53955 4.78091e-20 1.74697)
(9.46076 -4.8795e-20 1.96629)
(9.37759 1.25788e-20 2.20209)
(9.29054 1.02488e-19 2.45606)
(9.20018 -1.17496e-19 2.73005)
(9.10714 0 3.02611)
(9.01216 1.37264e-20 3.34664)
(8.91608 1.2445e-19 3.69441)
(8.81994 -9.87928e-20 4.0728)
(8.72505 0 4.48596)
(8.6332 7.10845e-21 4.93912)
(8.54695 1.22082e-19 5.43905)
(8.47022 -1.24111e-19 5.9947)
(8.4094 7.35868e-21 6.61805)
(8.37568 1.12119e-19 7.32539)
(8.39041 -6.44777e-21 8.13878)
(8.49341 -1.60441e-19 9.08652)
(8.72746 7.10579e-20 10.2007)
(9.38705 -1.96922e-21 11.4296)
(9.89716 3.02998e-20 12.5433)
(9.99302 1.82695e-20 0.142521)
(9.98421 -1.40199e-20 0.282299)
(9.96792 -4.76387e-21 0.42302)
(9.94268 9.69063e-21 0.567028)
(9.91055 -2.99939e-20 0.715986)
(9.87279 -1.03183e-20 0.871384)
(9.8297 2.09428e-20 1.03465)
(9.7815 -3.22062e-20 1.20716)
(9.72858 -3.30436e-20 1.39028)
(9.6714 -1.2676e-22 1.58535)
(9.6105 4.60463e-20 1.79375)
(9.54644 -4.7228e-20 2.01691)
(9.47986 4.81812e-20 2.25632)
(9.41147 0 2.51359)
(9.34211 1.26625e-20 2.79048)
(9.27274 -1.15191e-19 3.08893)
(9.20452 1.04397e-19 3.41115)
(9.13884 -1.33761e-20 3.7597)
(9.07747 9.34789e-20 4.1376)
(9.02269 -2.16906e-19 4.54848)
(8.97761 1.02891e-19 4.99676)