/*--------------------------------*- C++ -*----------------------------------*\
| =========                 |                                                 |
| \\      /  F ield         | OpenFOAM: The Open Source CFD Toolbox           |
|  \\    /   O peration     | Version:  dev                                   |
|   \\  /    A nd           | Web:      www.OpenFOAM.org                      |
|    \\/     M anipulation  |                                                 |
\*---------------------------------------------------------------------------*/
FoamFile
{
    version     2.0;
    format      ascii;
    class       pointVectorField;
    location    "1.87";
    object      pointDisplacement;
}
// * * * * * * * * * * * * * * * * * * * * * * * * * * * * * * * * * * * * * //

dimensions      [0 1 0 0 0 0 0];

internalField   nonuniform List<vector> 
1030
(
(0 0 0)
(0.0245694 0 0)
(0.0463324 0 0)
(0.0646677 0 0)
(0.0799339 0 0)
(0.0924705 0 0)
(0.102571 0 0)
(0.110485 0 0)
(0.11643 0 0)
(0.120599 0 0)
(0.123164 0 0)
(0.124269 0 0)
(0.124039 0 0)
(0.122586 0 0)
(0.120012 0 0)
(0.116405 0 0)
(0.111849 0 0)
(0.106422 0 0)
(0.100201 0 0)
(0.0932577 0 0)
(0.0856696 0 0)
(0.0775176 0 0)
(0 0 0)
(0.0245866 0 -0.000273846)
(0.0463648 0 -0.000519412)
(0.0647157 0 -0.000733577)
(0.0799983 0 -0.000922297)
(0.0925526 0 -0.00108997)
(0.102673 0 -0.00123962)
(0.11061 0 -0.00137355)
(0.116577 0 -0.00149269)
(0.120773 0 -0.0015974)
(0.123368 0 -0.00168786)
(0.124506 0 -0.00176325)
(0.124315 0 -0.00182221)
(0.122906 0 -0.00186284)
(0.120381 0 -0.00188271)
(0.11683 0 -0.00187874)
(0.112339 0 -0.00184722)
(0.106987 0 -0.00178378)
(0.100851 0 -0.00168309)
(0.0940066 0 -0.00153871)
(0.0865341 0 -0.00134303)
(0.0785188 0 -0.0010873)
(0 0 0)
(0.0246376 0 -0.000548332)
(0.0464639 0 -0.00104015)
(0.0648623 0 -0.00146927)
(0.0801944 0 -0.00184763)
(0.0928017 0 -0.00218406)
(0.10298 0 -0.00248446)
(0.11098 0 -0.00275188)
(0.117018 0 -0.00298983)
(0.121294 0 -0.0032007)
(0.12398 0 -0.00338352)
(0.12522 0 -0.00353663)
(0.125143 0 -0.00365745)
(0.123865 0 -0.00374236)
(0.121487 0 -0.00378661)
(0.118106 0 -0.00378431)
(0.113807 0 -0.00372828)
(0.108675 0 -0.00361023)
(0.102793 0 -0.00342014)
(0.096244 0 -0.0031457)
(0.0891143 0 -0.00277248)
(0.0815025 0 -0.00228447)
(0 0 0)
(0.0247232 0 -0.00082256)
(0.0466292 0 -0.00156051)
(0.065106 0 -0.00220466)
(0.0805202 0 -0.00277306)
(0.0932151 0 -0.00327896)
(0.103488 0 -0.00373132)
(0.111592 0 -0.00413511)
(0.117751 0 -0.00449548)
(0.122161 0 -0.00481569)
(0.124996 0 -0.00509461)
(0.126404 0 -0.00533007)
(0.126518 0 -0.00551849)
(0.125454 0 -0.00565479)
(0.123322 0 -0.00573233)
(0.120219 0 -0.00574275)
(0.116237 0 -0.00567587)
(0.11147 0 -0.00552048)
(0.106009 0 -0.00526303)
(0.0999458 0 -0.00488649)
(0.0933789 0 -0.00437088)
(0.0864285 0 -0.00369615)
(0 0 0)
(0.0248424 0 -0.00109574)
(0.0468583 0 -0.00207899)
(0.0654433 0 -0.00293769)
(0.0809713 0 -0.0036961)
(0.0937879 0 -0.00437199)
(0.104193 0 -0.00497755)
(0.112444 0 -0.00552069)
(0.118767 0 -0.00600731)
(0.123362 0 -0.00644063)
(0.126403 0 -0.00682038)
(0.128043 0 -0.00714424)
(0.128418 0 -0.007408)
(0.127652 0 -0.00760554)
(0.125856 0 -0.00772891)
(0.123137 0 -0.00776796)
(0.119592 0 -0.00770988)
(0.115325 0 -0.00754229)
(0.110442 0 -0.00725025)
(0.105051 0 -0.00681378)
(0.099266 0 -0.00621026)
(0.0932245 0 -0.00541674)
(0 0 0)
(0.0249947 0 -0.00136784)
(0.0471488 0 -0.00259524)
(0.0658705 0 -0.00366798)
(0.0815432 0 -0.00461656)
(0.0945146 0 -0.00546322)
(0.105088 0 -0.00622355)
(0.113525 0 -0.00690802)
(0.120056 0 -0.00752374)
(0.124883 0 -0.00807454)
(0.128184 0 -0.00856091)
(0.130117 0 -0.00898077)
(0.130822 0 -0.00932968)
(0.13043 0 -0.00960111)
(0.12906 0 -0.00978658)
(0.126825 0 -0.00987536)
(0.123835 0 -0.0098538)
(0.1202 0 -0.00970825)
(0.116043 0 -0.00942301)
(0.111493 0 -0.00897854)
(0.10669 0 -0.00835454)
(0.101789 0 -0.007527)
(0 0 0)
(0.0251697 0 -0.00163863)
(0.0474934 0 -0.00310965)
(0.0663843 0 -0.00439669)
(0.0822325 0 -0.0055362)
(0.0953911 0 -0.00655513)
(0.106168 0 -0.0074725)
(0.114829 0 -0.00830137)
(0.12161 0 -0.00905033)
(0.126716 0 -0.00972423)
(0.130329 0 -0.0103246)
(0.132613 0 -0.0108499)
(0.133714 0 -0.011296)
(0.133769 0 -0.0116565)
(0.132906 0 -0.0119234)
(0.131251 0 -0.0120865)
(0.128923 0 -0.0121336)
(0.126045 0 -0.0120496)
(0.122751 0 -0.0118184)
(0.119191 0 -0.0114242)
(0.115538 0 -0.0108531)
(0.111985 0 -0.0100886)
(0 0 0)
(0.0253662 0 -0.00190804)
(0.0478901 0 -0.0036227)
(0.0669816 0 -0.00512468)
(0.0830349 0 -0.00645633)
(0.0964117 0 -0.00764948)
(0.107425 0 -0.00872676)
(0.116348 0 -0.00970383)
(0.123418 0 -0.0105911)
(0.128846 0 -0.0113946)
(0.132821 0 -0.0121173)
(0.135511 0 -0.0127589)
(0.137069 0 -0.0133157)
(0.137639 0 -0.0137819)
(0.137359 0 -0.0141511)
(0.136365 0 -0.0144147)
(0.134789 0 -0.014561)
(0.132771 0 -0.0145783)
(0.130465 0 -0.0144547)
(0.12804 0 -0.0141788)
(0.125695 0 -0.0137436)
(0.123672 0 -0.0131471)
(0 0 0)
(0.0255911 0 -0.00217554)
(0.0483395 0 -0.00413261)
(0.067656 0 -0.00584905)
(0.0839411 0 -0.0073733)
(0.0975645 0 -0.00874208)
(0.108846 0 -0.00998167)
(0.118063 0 -0.0111105)
(0.125458 0 -0.0121409)
(0.131249 0 -0.0130805)
(0.135629 0 -0.0139343)
(0.138774 0 -0.0147034)
(0.140843 0 -0.0153852)
(0.141987 0 -0.0159749)
(0.142358 0 -0.0164691)
(0.142103 0 -0.0168621)
(0.141365 0 -0.0171441)
(0.140303 0 -0.0173079)
(0.139091 0 -0.0173479)
(0.137926 0 -0.0172614)
(0.137027 0 -0.0170489)
(0.136674 0 -0.0167248)
(0 0 0)
(0.0258406 0 -0.0024401)
(0.0488357 0 -0.00463728)
(0.0683998 0 -0.00656694)
(0.0849407 0 -0.00828358)
(0.0988365 0 -0.00982884)
(0.110413 0 -0.0112328)
(0.119954 0 -0.0125167)
(0.127707 0 -0.0136952)
(0.133895 0 -0.0147773)
(0.138719 0 -0.0157708)
(0.142363 0 -0.0166794)
(0.144993 0 -0.0175018)
(0.146769 0 -0.0182359)
(0.147853 0 -0.0188808)
(0.148405 0 -0.0194339)
(0.148585 0 -0.019891)
(0.148563 0 -0.0202484)
(0.148528 0 -0.0205059)
(0.148712 0 -0.0206749)
(0.149367 0 -0.0207706)
(0.150803 0 -0.0208242)
(0 0 0)
(0.0261116 0 -0.0027012)
(0.049374 0 -0.00513588)
(0.0692064 0 -0.00727729)
(0.0860253 0 -0.00918597)
(0.100217 0 -0.0109085)
(0.112114 0 -0.0124788)
(0.122006 0 -0.0139213)
(0.130147 0 -0.0152531)
(0.136766 0 -0.0164862)
(0.142073 0 -0.0176305)
(0.146256 0 -0.0186911)
(0.149489 0 -0.0196697)
(0.151947 0 -0.0205691)
(0.153798 0 -0.0213898)
(0.155209 0 -0.0221314)
(0.156357 0 -0.0227961)
(0.157433 0 -0.023389)
(0.158648 0 -0.0239199)
(0.160257 0 -0.0244117)
(0.162547 0 -0.0248971)
(0.165864 0 -0.0254286)
(0 0 0)
(0.0264022 0 -0.00295896)
(0.049951 0 -0.00562872)
(0.0700713 0 -0.00798061)
(0.0871889 0 -0.0100812)
(0.101698 0 -0.0119819)
(0.113938 0 -0.0137208)
(0.124207 0 -0.0153256)
(0.132763 0 -0.0168165)
(0.139846 0 -0.0182096)
(0.145669 0 -0.0195151)
(0.150423 0 -0.0207389)
(0.154293 0 -0.0218877)
(0.157463 0 -0.0229676)
(0.160113 0 -0.0239836)
(0.162424 0 -0.0249411)
(0.164585 0 -0.0258481)
(0.166807 0 -0.0267189)
(0.169326 0 -0.0275756)
(0.172414 0 -0.028453)
(0.176389 0 -0.0294016)
(0.181631 0 -0.0304977)
(0 0 0)
(0.0267106 0 -0.00321339)
(0.0505633 0 -0.00611585)
(0.0709895 0 -0.00867704)
(0.0884243 0 -0.0109694)
(0.10327 0 -0.0130494)
(0.115875 0 -0.0149589)
(0.126542 0 -0.0167295)
(0.135538 0 -0.0183844)
(0.143106 0 -0.0199421)
(0.149464 0 -0.0214151)
(0.154811 0 -0.0228118)
(0.159343 0 -0.0241436)
(0.163254 0 -0.0254211)
(0.166734 0 -0.026654)
(0.169976 0 -0.0278537)
(0.173188 0 -0.0290368)
(0.176588 0 -0.0302242)
(0.180433 0 -0.0314502)
(0.185024 0 -0.0327662)
(0.190699 0 -0.0342406)
(0.197882 0 -0.0359768)
(0 0 0)
(0.0270322 0 -0.00346301)
(0.051203 0 -0.00659458)
(0.0719501 0 -0.0093628)
(0.0897175 0 -0.0118459)
(0.104916 0 -0.0141051)
(0.117901 0 -0.0161865)
(0.128984 0 -0.0181252)
(0.138437 0 -0.0199476)
(0.146504 0 -0.0216736)
(0.153414 0 -0.0233202)
(0.159377 0 -0.0249013)
(0.164597 0 -0.026431)
(0.169276 0 -0.0279245)
(0.173609 0 -0.0293947)
(0.177794 0 -0.030857)
(0.18206 0 -0.0323395)
(0.186647 0 -0.0338747)
(0.191831 0 -0.03551)
(0.197917 0 -0.0373069)
(0.205272 0 -0.0393542)
(0.214368 0 -0.0417883)
(0 0 0)
(0.0273622 0 -0.00370632)
(0.0518622 0 -0.00706222)
(0.0729424 0 -0.0100342)
(0.0910546 0 -0.012706)
(0.106618 0 -0.0151436)
(0.119996 0 -0.0173969)
(0.131508 0 -0.0195054)
(0.141431 0 -0.0214988)
(0.150014 0 -0.0233995)
(0.157496 0 -0.0252288)
(0.164096 0 -0.0270056)
(0.170017 0 -0.0287446)
(0.175465 0 -0.0304632)
(0.180648 0 -0.0321826)
(0.185781 0 -0.0339268)
(0.191101 0 -0.0357303)
(0.196864 0 -0.0376374)
(0.203361 0 -0.0397073)
(0.210904 0 -0.0420137)
(0.21989 0 -0.0446677)
(0.230817 0 -0.0478306)
(0 0 0)
(0.0277011 0 -0.00394471)
(0.052542 0 -0.00752158)
(0.0739683 0 -0.0106954)
(0.0924385 0 -0.0135551)
(0.108379 0 -0.0161714)
(0.122165 0 -0.0185991)
(0.134125 0 -0.0208817)
(0.144535 0 -0.023051)
(0.153654 0 -0.0251341)
(0.161724 0 -0.0271544)
(0.168966 0 -0.0291326)
(0.175589 0 -0.0310875)
(0.181808 0 -0.0330419)
(0.187849 0 -0.0350257)
(0.193937 0 -0.0370712)
(0.200304 0 -0.0392151)
(0.207219 0 -0.0415115)
(0.214984 0 -0.0440329)
(0.22393 0 -0.0468683)
(0.23447 0 -0.0501478)
(0.247105 0 -0.0540499)
(0 0 0)
(0.0245694 0 0)
(0.0463324 0 0)
(0.0646677 0 0)
(0.0799339 0 0)
(0.0924705 0 0)
(0.102571 0 0)
(0.110485 0 0)
(0.11643 0 0)
(0.120599 0 0)
(0.123164 0 0)
(0.124269 0 0)
(0.124039 0 0)
(0.122586 0 0)
(0.120012 0 0)
(0.116405 0 0)
(0.111849 0 0)
(0.106422 0 0)
(0.100201 0 0)
(0.0932577 0 0)
(0.0856696 0 0)
(0.0775176 0 0)
(0 0 0)
(0.0245866 0 -0.000273846)
(0.0463648 0 -0.000519412)
(0.0647157 0 -0.000733577)
(0.0799983 0 -0.000922297)
(0.0925526 0 -0.00108997)
(0.102673 0 -0.00123962)
(0.11061 0 -0.00137355)
(0.116577 0 -0.00149269)
(0.120773 0 -0.0015974)
(0.123368 0 -0.00168786)
(0.124506 0 -0.00176325)
(0.124315 0 -0.00182221)
(0.122906 0 -0.00186284)
(0.120381 0 -0.00188271)
(0.11683 0 -0.00187874)
(0.112339 0 -0.00184722)
(0.106987 0 -0.00178378)
(0.100851 0 -0.00168309)
(0.0940066 0 -0.00153871)
(0.0865341 0 -0.00134303)
(0.0785188 0 -0.0010873)
(0 0 0)
(0.0246376 0 -0.000548332)
(0.0464639 0 -0.00104015)
(0.0648623 0 -0.00146927)
(0.0801944 0 -0.00184763)
(0.0928017 0 -0.00218406)
(0.10298 0 -0.00248446)
(0.11098 0 -0.00275188)
(0.117018 0 -0.00298983)
(0.121294 0 -0.0032007)
(0.12398 0 -0.00338352)
(0.12522 0 -0.00353663)
(0.125143 0 -0.00365745)
(0.123865 0 -0.00374236)
(0.121487 0 -0.00378661)
(0.118106 0 -0.00378431)
(0.113807 0 -0.00372828)
(0.108675 0 -0.00361023)
(0.102793 0 -0.00342014)
(0.096244 0 -0.0031457)
(0.0891143 0 -0.00277248)
(0.0815025 0 -0.00228447)
(0 0 0)
(0.0247232 0 -0.00082256)
(0.0466292 0 -0.00156051)
(0.065106 0 -0.00220466)
(0.0805202 0 -0.00277306)
(0.0932151 0 -0.00327896)
(0.103488 0 -0.00373132)
(0.111592 0 -0.00413511)
(0.117751 0 -0.00449548)
(0.122161 0 -0.00481569)
(0.124996 0 -0.00509461)
(0.126404 0 -0.00533007)
(0.126518 0 -0.00551849)
(0.125454 0 -0.00565479)
(0.123322 0 -0.00573233)
(0.120219 0 -0.00574275)
(0.116237 0 -0.00567587)
(0.11147 0 -0.00552048)
(0.106009 0 -0.00526303)
(0.0999458 0 -0.00488649)
(0.0933789 0 -0.00437088)
(0.0864285 0 -0.00369615)
(0 0 0)
(0.0248424 0 -0.00109574)
(0.0468583 0 -0.00207899)
(0.0654433 0 -0.00293769)
(0.0809713 0 -0.0036961)
(0.0937879 0 -0.00437199)
(0.104193 0 -0.00497755)
(0.112444 0 -0.00552069)
(0.118767 0 -0.00600731)
(0.123362 0 -0.00644063)
(0.126403 0 -0.00682038)
(0.128043 0 -0.00714424)
(0.128418 0 -0.007408)
(0.127652 0 -0.00760554)
(0.125856 0 -0.00772891)
(0.123137 0 -0.00776796)
(0.119592 0 -0.00770988)
(0.115325 0 -0.00754229)
(0.110442 0 -0.00725025)
(0.105051 0 -0.00681378)
(0.099266 0 -0.00621026)
(0.0932245 0 -0.00541674)
(0 0 0)
(0.0249947 0 -0.00136784)
(0.0471488 0 -0.00259524)
(0.0658705 0 -0.00366798)
(0.0815432 0 -0.00461656)
(0.0945146 0 -0.00546322)
(0.105088 0 -0.00622355)
(0.113525 0 -0.00690802)
(0.120056 0 -0.00752374)
(0.124883 0 -0.00807454)
(0.128184 0 -0.00856091)
(0.130117 0 -0.00898077)
(0.130822 0 -0.00932968)
(0.13043 0 -0.00960111)
(0.12906 0 -0.00978658)
(0.126825 0 -0.00987536)
(0.123835 0 -0.0098538)
(0.1202 0 -0.00970825)
(0.116043 0 -0.00942301)
(0.111493 0 -0.00897854)
(0.10669 0 -0.00835454)
(0.101789 0 -0.007527)
(0 0 0)
(0.0251697 0 -0.00163863)
(0.0474934 0 -0.00310965)
(0.0663843 0 -0.00439669)
(0.0822325 0 -0.0055362)
(0.0953911 0 -0.00655513)
(0.106168 0 -0.0074725)
(0.114829 0 -0.00830137)
(0.12161 0 -0.00905033)
(0.126716 0 -0.00972423)
(0.130329 0 -0.0103246)
(0.132613 0 -0.0108499)
(0.133714 0 -0.011296)
(0.133769 0 -0.0116565)
(0.132906 0 -0.0119234)
(0.131251 0 -0.0120865)
(0.128923 0 -0.0121336)
(0.126045 0 -0.0120496)
(0.122751 0 -0.0118184)
(0.119191 0 -0.0114242)
(0.115538 0 -0.0108531)
(0.111985 0 -0.0100886)
(0 0 0)
(0.0253662 0 -0.00190804)
(0.0478901 0 -0.0036227)
(0.0669816 0 -0.00512468)
(0.0830349 0 -0.00645633)
(0.0964117 0 -0.00764948)
(0.107425 0 -0.00872676)
(0.116348 0 -0.00970383)
(0.123418 0 -0.0105911)
(0.128846 0 -0.0113946)
(0.132821 0 -0.0121173)
(0.135511 0 -0.0127589)
(0.137069 0 -0.0133157)
(0.137639 0 -0.0137819)
(0.137359 0 -0.0141511)
(0.136365 0 -0.0144147)
(0.134789 0 -0.014561)
(0.132771 0 -0.0145783)
(0.130465 0 -0.0144547)
(0.12804 0 -0.0141788)
(0.125695 0 -0.0137436)
(0.123672 0 -0.0131471)
(0 0 0)
(0.0255911 0 -0.00217554)
(0.0483395 0 -0.00413261)
(0.067656 0 -0.00584905)
(0.0839411 0 -0.0073733)
(0.0975645 0 -0.00874208)
(0.108846 0 -0.00998167)
(0.118063 0 -0.0111105)
(0.125458 0 -0.0121409)
(0.131249 0 -0.0130805)
(0.135629 0 -0.0139343)
(0.138774 0 -0.0147034)
(0.140843 0 -0.0153852)
(0.141987 0 -0.0159749)
(0.142358 0 -0.0164691)
(0.142103 0 -0.0168621)
(0.141365 0 -0.0171441)
(0.140303 0 -0.0173079)
(0.139091 0 -0.0173479)
(0.137926 0 -0.0172614)
(0.137027 0 -0.0170489)
(0.136674 0 -0.0167248)
(0 0 0)
(0.0258406 0 -0.0024401)
(0.0488357 0 -0.00463728)
(0.0683998 0 -0.00656694)
(0.0849407 0 -0.00828358)
(0.0988365 0 -0.00982884)
(0.110413 0 -0.0112328)
(0.119954 0 -0.0125167)
(0.127707 0 -0.0136952)
(0.133895 0 -0.0147773)
(0.138719 0 -0.0157708)
(0.142363 0 -0.0166794)
(0.144993 0 -0.0175018)
(0.146769 0 -0.0182359)
(0.147853 0 -0.0188808)
(0.148405 0 -0.0194339)
(0.148585 0 -0.019891)
(0.148563 0 -0.0202484)
(0.148528 0 -0.0205059)
(0.148712 0 -0.0206749)
(0.149367 0 -0.0207706)
(0.150803 0 -0.0208242)
(0 0 0)
(0.0261116 0 -0.0027012)
(0.049374 0 -0.00513588)
(0.0692064 0 -0.00727729)
(0.0860253 0 -0.00918597)
(0.100217 0 -0.0109085)
(0.112114 0 -0.0124788)
(0.122006 0 -0.0139213)
(0.130147 0 -0.0152531)
(0.136766 0 -0.0164862)
(0.142073 0 -0.0176305)
(0.146256 0 -0.0186911)
(0.149489 0 -0.0196697)
(0.151947 0 -0.0205691)
(0.153798 0 -0.0213898)
(0.155209 0 -0.0221314)
(0.156357 0 -0.0227961)
(0.157433 0 -0.023389)
(0.158648 0 -0.0239199)
(0.160257 0 -0.0244117)
(0.162547 0 -0.0248971)
(0.165864 0 -0.0254286)
(0 0 0)
(0.0264022 0 -0.00295896)
(0.049951 0 -0.00562872)
(0.0700713 0 -0.00798061)
(0.0871889 0 -0.0100812)
(0.101698 0 -0.0119819)
(0.113938 0 -0.0137208)
(0.124207 0 -0.0153256)
(0.132763 0 -0.0168165)
(0.139846 0 -0.0182096)
(0.145669 0 -0.0195151)
(0.150423 0 -0.0207389)
(0.154293 0 -0.0218877)
(0.157463 0 -0.0229676)
(0.160113 0 -0.0239836)
(0.162424 0 -0.0249411)
(0.164585 0 -0.0258481)
(0.166807 0 -0.0267189)
(0.169326 0 -0.0275756)
(0.172414 0 -0.028453)
(0.176389 0 -0.0294016)
(0.181631 0 -0.0304977)
(0 0 0)
(0.0267106 0 -0.00321339)
(0.0505633 0 -0.00611585)
(0.0709895 0 -0.00867704)
(0.0884243 0 -0.0109694)
(0.10327 0 -0.0130494)
(0.115875 0 -0.0149589)
(0.126542 0 -0.0167295)
(0.135538 0 -0.0183844)
(0.143106 0 -0.0199421)
(0.149464 0 -0.0214151)
(0.154811 0 -0.0228118)
(0.159343 0 -0.0241436)
(0.163254 0 -0.0254211)
(0.166734 0 -0.026654)
(0.169976 0 -0.0278537)
(0.173188 0 -0.0290368)
(0.176588 0 -0.0302242)
(0.180433 0 -0.0314502)
(0.185024 0 -0.0327662)
(0.190699 0 -0.0342406)
(0.197882 0 -0.0359768)
(0 0 0)
(0.0270322 0 -0.00346301)
(0.051203 0 -0.00659458)
(0.0719501 0 -0.0093628)
(0.0897175 0 -0.0118459)
(0.104916 0 -0.0141051)
(0.117901 0 -0.0161865)
(0.128984 0 -0.0181252)
(0.138437 0 -0.0199476)
(0.146504 0 -0.0216736)
(0.153414 0 -0.0233202)
(0.159377 0 -0.0249013)
(0.164597 0 -0.026431)
(0.169276 0 -0.0279245)
(0.173609 0 -0.0293947)
(0.177794 0 -0.030857)
(0.18206 0 -0.0323395)
(0.186647 0 -0.0338747)
(0.191831 0 -0.03551)
(0.197917 0 -0.0373069)
(0.205272 0 -0.0393542)
(0.214368 0 -0.0417883)
(0 0 0)
(0.0273622 0 -0.00370632)
(0.0518622 0 -0.00706222)
(0.0729424 0 -0.0100342)
(0.0910546 0 -0.012706)
(0.106618 0 -0.0151436)
(0.119996 0 -0.0173969)
(0.131508 0 -0.0195054)
(0.141431 0 -0.0214988)
(0.150014 0 -0.0233995)
(0.157496 0 -0.0252288)
(0.164096 0 -0.0270056)
(0.170017 0 -0.0287446)
(0.175465 0 -0.0304632)
(0.180648 0 -0.0321826)
(0.185781 0 -0.0339268)
(0.191101 0 -0.0357303)
(0.196864 0 -0.0376374)
(0.203361 0 -0.0397073)
(0.210904 0 -0.0420137)
(0.21989 0 -0.0446677)
(0.230817 0 -0.0478306)
(0 0 0)
(0.0277011 0 -0.00394471)
(0.052542 0 -0.00752158)
(0.0739683 0 -0.0106954)
(0.0924385 0 -0.0135551)
(0.108379 0 -0.0161714)
(0.122165 0 -0.0185991)
(0.134125 0 -0.0208817)
(0.144535 0 -0.023051)
(0.153654 0 -0.0251341)
(0.161724 0 -0.0271544)
(0.168966 0 -0.0291326)
(0.175589 0 -0.0310875)
(0.181808 0 -0.0330419)
(0.187849 0 -0.0350257)
(0.193937 0 -0.0370712)
(0.200304 0 -0.0392151)
(0.207219 0 -0.0415115)
(0.214984 0 -0.0440329)
(0.22393 0 -0.0468683)
(0.23447 0 -0.0501478)
(0.247105 0 -0.0540499)
(0.0532499 0 -0.00797901)
(0.0750401 0 -0.0113559)
(0.0938857 0 -0.0144054)
(0.110225 0 -0.0172039)
(0.124442 0 -0.0198117)
(0.136868 0 -0.0222743)
(0.147783 0 -0.0246252)
(0.157452 0 -0.0268962)
(0.166118 0 -0.0291129)
(0.174011 0 -0.0312997)
(0.181351 0 -0.0334827)
(0.188366 0 -0.0356913)
(0.195275 0 -0.037956)
(0.202307 0 -0.0403147)
(0.209708 0 -0.0428146)
(0.217757 0 -0.0455201)
(0.226751 0 -0.0485091)
(0.237027 0 -0.0518833)
(0.249013 0 -0.0557917)
(0.263196 0 -0.0604233)
(0.0761573 0 -0.0120148)
(0.0953934 0 -0.0152558)
(0.112149 0 -0.0182392)
(0.126813 0 -0.0210295)
(0.139717 0 -0.0236744)
(0.151146 0 -0.0262106)
(0.161373 0 -0.0286736)
(0.17065 0 -0.031094)
(0.17921 0 -0.0335006)
(0.187283 0 -0.0359246)
(0.195091 0 -0.0383963)
(0.202854 0 -0.0409503)
(0.210813 0 -0.0436324)
(0.219221 0 -0.0464984)
(0.228357 0 -0.0496193)
(0.238505 0 -0.0530772)
(0.250012 0 -0.0569869)
(0.263294 0 -0.0615051)
(0.278805 0 -0.0668241)
(0.0969412 0 -0.0160957)
(0.114121 0 -0.0192638)
(0.12924 0 -0.0222366)
(0.14263 0 -0.0250652)
(0.154585 0 -0.0277906)
(0.165385 0 -0.0304522)
(0.175283 0 -0.0330839)
(0.184512 0 -0.0357163)
(0.193305 0 -0.0383837)
(0.201887 0 -0.0411214)
(0.21049 0 -0.0439719)
(0.219345 0 -0.0469823)
(0.228702 0 -0.0502117)
(0.23884 0 -0.053739)
(0.25004 0 -0.0576526)
(0.26264 0 -0.0620733)
(0.277015 0 -0.0671542)
(0.293574 0 -0.0730825)
(0.116125 0 -0.0202692)
(0.131709 0 -0.0234259)
(0.145597 0 -0.0264406)
(0.158087 0 -0.0293589)
(0.169462 0 -0.0322222)
(0.179972 0 -0.0350651)
(0.189858 0 -0.0379237)
(0.199356 0 -0.0408363)
(0.208692 0 -0.0438424)
(0.218097 0 -0.0469875)
(0.227791 0 -0.0503194)
(0.238027 0 -0.0539037)
(0.249072 0 -0.0578207)
(0.261192 0 -0.0621599)
(0.274706 0 -0.0670451)
(0.28994 0 -0.0726182)
(0.307246 0 -0.0790544)
(0.134211 0 -0.0245912)
(0.148596 0 -0.0277912)
(0.161616 0 -0.0309004)
(0.173555 0 -0.0339623)
(0.184665 0 -0.0370154)
(0.195198 0 -0.040102)
(0.20538 0 -0.0432591)
(0.215431 0 -0.046528)
(0.225582 0 -0.0499578)
(0.23605 0 -0.0535991)
(0.247079 0 -0.0575199)
(0.258911 0 -0.0617961)
(0.271802 0 -0.0665206)
(0.286036 0 -0.0718087)
(0.301877 0 -0.0777861)
(0.319611 0 -0.0846069)
(0.151587 0 -0.0290988)
(0.165129 0 -0.0323956)
(0.177622 0 -0.0356543)
(0.189325 0 -0.0389172)
(0.20048 0 -0.0422265)
(0.211306 0 -0.0456201)
(0.22203 0 -0.0491439)
(0.232867 0 -0.052845)
(0.244025 0 -0.0567749)
(0.25574 0 -0.0610029)
(0.268233 0 -0.0656016)
(0.281737 0 -0.0706593)
(0.296477 0 -0.0762741)
(0.312662 0 -0.0825523)
(0.330483 0 -0.0896114)
(0.181637 0 -0.037282)
(0.193902 0 -0.0407465)
(0.20564 0 -0.0442685)
(0.217069 0 -0.0478879)
(0.228408 0 -0.0516508)
(0.239854 0 -0.0556019)
(0.251615 0 -0.0597949)
(0.263905 0 -0.0642952)
(0.27692 0 -0.0691691)
(0.290854 0 -0.0744929)
(0.305886 0 -0.080349)
(0.322153 0 -0.086816)
(0.339765 0 -0.0939755)
(0.19835 0 -0.0424781)
(0.21063 0 -0.0462003)
(0.222603 0 -0.0500279)
(0.234484 0 -0.0540074)
(0.246463 0 -0.0581841)
(0.258732 0 -0.0626089)
(0.271473 0 -0.0673374)
(0.284855 0 -0.0724284)
(0.299045 0 -0.0779487)
(0.314166 0 -0.083959)
(0.330288 0 -0.0905084)
(0.347467 0 -0.0976526)
(0.227849 0 -0.0520044)
(0.240202 0 -0.0561778)
(0.252629 0 -0.0605506)
(0.265296 0 -0.065167)
(0.278359 0 -0.0700742)
(0.291971 0 -0.075326)
(0.306257 0 -0.0809737)
(0.321276 0 -0.08705)
(0.337065 0 -0.0935877)
(0.353632 0 -0.100615)
(0.258288 0 -0.0626562)
(0.271242 0 -0.0674212)
(0.28451 0 -0.0724592)
(0.298222 0 -0.0778155)
(0.312443 0 -0.0835163)
(0.3272 0 -0.0895791)
(0.342513 0 -0.0960249)
(0.358318 0 -0.102844)
(0.276523 0 -0.069328)
(0.289885 0 -0.0744488)
(0.303568 0 -0.0798501)
(0.317586 0 -0.0855368)
(0.331962 0 -0.0915209)
(0.346674 0 -0.0978011)
(0.3616 0 -0.104334)
(0.308002 0 -0.0813937)
(0.321713 0 -0.0870112)
(0.335598 0 -0.0928553)
(0.349601 0 -0.0989029)
(0.363592 0 -0.105102)
(0.338146 0 -0.0935621)
(0.351379 0 -0.0993336)
(0.364446 0 -0.105181)
(0.0532499 0 -0.00797901)
(0.0750401 0 -0.0113559)
(0.0938857 0 -0.0144054)
(0.110225 0 -0.0172039)
(0.124442 0 -0.0198117)
(0.136868 0 -0.0222743)
(0.147783 0 -0.0246252)
(0.157452 0 -0.0268962)
(0.166118 0 -0.0291129)
(0.174011 0 -0.0312997)
(0.181351 0 -0.0334827)
(0.188366 0 -0.0356913)
(0.195275 0 -0.037956)
(0.202307 0 -0.0403147)
(0.209708 0 -0.0428146)
(0.217757 0 -0.0455201)
(0.226751 0 -0.0485091)
(0.237027 0 -0.0518833)
(0.249013 0 -0.0557917)
(0.263196 0 -0.0604233)
(0.0761573 0 -0.0120148)
(0.0953934 0 -0.0152558)
(0.112149 0 -0.0182392)
(0.126813 0 -0.0210295)
(0.139717 0 -0.0236744)
(0.151146 0 -0.0262106)
(0.161373 0 -0.0286736)
(0.17065 0 -0.031094)
(0.17921 0 -0.0335006)
(0.187283 0 -0.0359246)
(0.195091 0 -0.0383963)
(0.202854 0 -0.0409503)
(0.210813 0 -0.0436324)
(0.219221 0 -0.0464984)
(0.228357 0 -0.0496193)
(0.238505 0 -0.0530772)
(0.250012 0 -0.0569869)
(0.263294 0 -0.0615051)
(0.278805 0 -0.0668241)
(0.0969412 0 -0.0160957)
(0.114121 0 -0.0192638)
(0.12924 0 -0.0222366)
(0.14263 0 -0.0250652)
(0.154585 0 -0.0277906)
(0.165385 0 -0.0304522)
(0.175283 0 -0.0330839)
(0.184512 0 -0.0357163)
(0.193305 0 -0.0383837)
(0.201887 0 -0.0411214)
(0.21049 0 -0.0439719)
(0.219345 0 -0.0469823)
(0.228702 0 -0.0502117)
(0.23884 0 -0.053739)
(0.25004 0 -0.0576526)
(0.26264 0 -0.0620733)
(0.277015 0 -0.0671542)
(0.293574 0 -0.0730825)
(0.116125 0 -0.0202692)
(0.131709 0 -0.0234259)
(0.145597 0 -0.0264406)
(0.158087 0 -0.0293589)
(0.169462 0 -0.0322222)
(0.179972 0 -0.0350651)
(0.189858 0 -0.0379237)
(0.199356 0 -0.0408363)
(0.208692 0 -0.0438424)
(0.218097 0 -0.0469875)
(0.227791 0 -0.0503194)
(0.238027 0 -0.0539037)
(0.249072 0 -0.0578207)
(0.261192 0 -0.0621599)
(0.274706 0 -0.0670451)
(0.28994 0 -0.0726182)
(0.307246 0 -0.0790544)
(0.134211 0 -0.0245912)
(0.148596 0 -0.0277912)
(0.161616 0 -0.0309004)
(0.173555 0 -0.0339623)
(0.184665 0 -0.0370154)
(0.195198 0 -0.040102)
(0.20538 0 -0.0432591)
(0.215431 0 -0.046528)
(0.225582 0 -0.0499578)
(0.23605 0 -0.0535991)
(0.247079 0 -0.0575199)
(0.258911 0 -0.0617961)
(0.271802 0 -0.0665206)
(0.286036 0 -0.0718087)
(0.301877 0 -0.0777861)
(0.319611 0 -0.0846069)
(0.151587 0 -0.0290988)
(0.165129 0 -0.0323956)
(0.177622 0 -0.0356543)
(0.189325 0 -0.0389172)
(0.20048 0 -0.0422265)
(0.211306 0 -0.0456201)
(0.22203 0 -0.0491439)
(0.232867 0 -0.052845)
(0.244025 0 -0.0567749)
(0.25574 0 -0.0610029)
(0.268233 0 -0.0656016)
(0.281737 0 -0.0706593)
(0.296477 0 -0.0762741)
(0.312662 0 -0.0825523)
(0.330483 0 -0.0896114)
(0.181637 0 -0.037282)
(0.193902 0 -0.0407465)
(0.20564 0 -0.0442685)
(0.217069 0 -0.0478879)
(0.228408 0 -0.0516508)
(0.239854 0 -0.0556019)
(0.251615 0 -0.0597949)
(0.263905 0 -0.0642952)
(0.27692 0 -0.0691691)
(0.290854 0 -0.0744929)
(0.305886 0 -0.080349)
(0.322153 0 -0.086816)
(0.339765 0 -0.0939755)
(0.19835 0 -0.0424781)
(0.21063 0 -0.0462003)
(0.222603 0 -0.0500279)
(0.234484 0 -0.0540074)
(0.246463 0 -0.0581841)
(0.258732 0 -0.0626089)
(0.271473 0 -0.0673374)
(0.284855 0 -0.0724284)
(0.299045 0 -0.0779487)
(0.314166 0 -0.083959)
(0.330288 0 -0.0905084)
(0.347467 0 -0.0976526)
(0.227849 0 -0.0520044)
(0.240202 0 -0.0561778)
(0.252629 0 -0.0605506)
(0.265296 0 -0.065167)
(0.278359 0 -0.0700742)
(0.291971 0 -0.075326)
(0.306257 0 -0.0809737)
(0.321276 0 -0.08705)
(0.337065 0 -0.0935877)
(0.353632 0 -0.100615)
(0.258288 0 -0.0626562)
(0.271242 0 -0.0674212)
(0.28451 0 -0.0724592)
(0.298222 0 -0.0778155)
(0.312443 0 -0.0835163)
(0.3272 0 -0.0895791)
(0.342513 0 -0.0960249)
(0.358318 0 -0.102844)
(0.276523 0 -0.069328)
(0.289885 0 -0.0744488)
(0.303568 0 -0.0798501)
(0.317586 0 -0.0855368)
(0.331962 0 -0.0915209)
(0.346674 0 -0.0978011)
(0.3616 0 -0.104334)
(0.308002 0 -0.0813937)
(0.321713 0 -0.0870112)
(0.335598 0 -0.0928553)
(0.349601 0 -0.0989029)
(0.363592 0 -0.105102)
(0.338146 0 -0.0935621)
(0.351379 0 -0.0993336)
(0.364446 0 -0.105181)
)
;

boundaryField
{
    inlet
    {
        type            fixedValue;
        value           uniform (0 0 0);
    }
    outlet
    {
        type            fixedValue;
        value           nonuniform 0();
    }
    flap
    {
        type            fixedValue;
        value           nonuniform 0();
    }
    upperWall
    {
        type            slip;
    }
    lowerWall
    {
        type            slip;
    }
    frontAndBack
    {
        type            empty;
    }
    procBoundary3to0
    {
        type            processor;
    }
    procBoundary3to1
    {
        type            processor;
    }
    procBoundary3to4
    {
        type            processor;
    }
}


// ************************************************************************* //
