/*--------------------------------*- C++ -*----------------------------------*\
| =========                 |                                                 |
| \\      /  F ield         | OpenFOAM: The Open Source CFD Toolbox           |
|  \\    /   O peration     | Version:  dev                                   |
|   \\  /    A nd           | Web:      www.OpenFOAM.org                      |
|    \\/     M anipulation  |                                                 |
\*---------------------------------------------------------------------------*/
FoamFile
{
    version     2.0;
    format      ascii;
    class       volVectorField;
    location    "1.03";
    object      Force;
}
// * * * * * * * * * * * * * * * * * * * * * * * * * * * * * * * * * * * * * //

dimensions      [1 1 -2 0 0 0 0];

internalField   uniform (0 0 0);

boundaryField
{
    inlet
    {
        type            calculated;
        value           nonuniform 0();
    }
    outlet
    {
        type            calculated;
        value           nonuniform 0();
    }
    flap
    {
        type            calculated;
        value           nonuniform List<vector> 
33
(
(5.0291 -6.13786e-18 -0.548625)
(4.81256 -1.81072e-21 -1.10391)
(4.59088 1.67527e-21 -1.52149)
(4.3625 1.21205e-17 -1.78609)
(4.15578 3.46402e-22 -1.93758)
(3.97924 1.75896e-17 -2.01414)
(3.82413 0 -2.04807)
(3.68569 -2.2454e-17 -2.046)
(3.56492 -1.88079e-37 -2.00715)
(3.46046 1.61716e-17 -1.93932)
(3.35962 -1.03764e-17 -1.85558)
(3.24193 -1.88079e-37 -1.76186)
(3.09205 1.51195e-17 -1.65515)
(2.89091 3.37775e-22 -1.52569)
(2.59023 1.28236e-17 -1.36493)
(-0.157675 4.65723e-19 -0.298418)
(-0.263903 -7.78804e-19 -0.503158)
(-0.38498 1.67811e-21 -0.719042)
(-1.73911 1.33832e-18 0.18677)
(-1.77186 -2.67436e-18 0.414412)
(-1.77209 -1.34224e-17 0.59289)
(-1.76454 -2.23521e-22 0.725692)
(-1.75694 9.40923e-18 0.822097)
(-1.75204 1.52407e-17 0.889673)
(-1.75003 5.39138e-22 0.939672)
(-1.75366 -2.99289e-21 0.976903)
(-1.76573 2.87716e-22 0.998096)
(-1.78167 -2.89084e-22 1.00226)
(-1.79372 2.9077e-22 0.996142)
(-1.80059 -1.37002e-22 0.985231)
(-1.8022 1.08966e-22 0.971258)
(-1.79562 1.82727e-17 0.955146)
(-1.77422 2.22371e-17 0.942966)
)
;
    }
    upperWall
    {
        type            calculated;
        value           nonuniform 0();
    }
    lowerWall
    {
        type            calculated;
        value           uniform (0 0 0);
    }
    frontAndBack
    {
        type            empty;
    }
    procBoundary4to1
    {
        type            processor;
        value           uniform (0 0 0);
    }
    procBoundary4to2
    {
        type            processor;
        value           uniform (0 0 0);
    }
    procBoundary4to3
    {
        type            processor;
        value           uniform (0 0 0);
    }
    procBoundary4to5
    {
        type            processor;
        value           uniform (0 0 0);
    }
}


// ************************************************************************* //
