/*--------------------------------*- C++ -*----------------------------------*\
| =========                 |                                                 |
| \\      /  F ield         | OpenFOAM: The Open Source CFD Toolbox           |
|  \\    /   O peration     | Version:  dev                                   |
|   \\  /    A nd           | Web:      www.OpenFOAM.org                      |
|    \\/     M anipulation  |                                                 |
\*---------------------------------------------------------------------------*/
FoamFile
{
    version     2.0;
    format      ascii;
    class       surfaceVectorField;
    location    "1.1";
    object      Uf;
}
// * * * * * * * * * * * * * * * * * * * * * * * * * * * * * * * * * * * * * //

dimensions      [0 1 -1 0 0 0 0];

internalField   nonuniform List<vector> 
882
(
(9.85512 1.57968e-20 4.31891)
(10.0259 -4.09957e-19 4.47922)
(10.085 -3.18957e-20 4.25907)
(10.1444 0 4.85132)
(10.1964 -3.91495e-19 4.61017)
(10.336 0 4.97167)
(10.2569 -1.14445e-20 4.39328)
(10.2998 1.15059e-18 4.17655)
(10.39 -3.92308e-19 4.73464)
(10.4252 -8.67625e-19 4.50026)
(10.5512 1.2073e-20 5.08118)
(10.5759 9.43557e-20 4.82947)
(10.7429 3.85304e-19 5.42742)
(10.7538 1.20666e-20 5.15952)
(10.9598 2.38486e-21 5.48479)
(10.4702 2.77845e-19 4.28676)
(10.4988 7.68202e-19 4.07487)
(10.6138 -3.69718e-19 4.59891)
(10.6346 -6.68521e-20 4.37226)
(10.7819 9.42605e-20 4.91221)
(10.7927 9.57586e-20 4.67164)
(10.9753 -3.8085e-19 5.22174)
(10.9737 -4.5645e-20 4.96873)
(11.194 -3.69027e-19 5.52198)
(11.1778 -3.79636e-19 5.2588)
(11.4366 0 5.80661)
(11.4041 -3.51492e-19 5.53677)
(11.6512 1.12824e-20 5.79695)
(10.6656 4.16409e-19 4.16338)
(10.6815 -7.09956e-19 3.95719)
(10.8165 4.10228e-19 4.44836)
(10.8247 5.96776e-19 4.22979)
(10.9883 -4.77308e-20 4.73183)
(10.9874 -9.5623e-22 4.50199)
(11.181 -4.54958e-20 5.00954)
(11.1693 -3.95185e-19 4.77002)
(11.394 -3.61413e-19 5.27705)
(11.3699 1.77175e-19 5.02992)
(11.6254 -3.37666e-19 5.52976)
(11.588 -7.03468e-19 5.27773)
(11.8725 2.4402e-20 5.76288)
(11.8218 3.63197e-19 5.50945)
(12.1308 1.97471e-20 5.9734)
(12.0649 1.21941e-20 5.72087)
(12.3446 4.36508e-19 5.91183)
(12.3988 1.02892e-18 6.13209)
(10.8434 -5.25693e-19 4.0263)
(10.8481 -3.58317e-19 3.82619)
(10.999 1.75072e-19 4.2863)
(10.9965 -1.38988e-20 4.07579)
(11.1724 -3.57613e-19 4.54312)
(11.1615 -1.70223e-19 4.32333)
(11.363 -1.65325e-19 4.79323)
(11.3427 -1.48399e-20 4.56571)
(11.5697 -1.77006e-19 5.03308)
(11.5391 -1.55913e-19 4.79967)
(11.7907 1.99419e-20 5.25929)
(11.7493 1.62431e-19 5.02218)
(12.0235 3.49517e-19 5.46859)
(11.9713 3.5987e-19 5.23043)
(12.2644 4.36249e-19 5.65856)
(12.2003 0 5.42165)
(12.4604 1.7186e-20 5.59538)
(12.5114 1.65249e-19 5.8031)
(11.0042 1.66146e-19 3.87803)
(10.9989 4.56033e-19 3.68405)
(11.1625 -3.67965e-19 4.11523)
(11.1507 -2.82047e-19 3.91249)
(11.3359 1.81346e-19 4.34825)
(11.3166 -1.71972e-19 4.13777)
(11.5235 -5.42705e-21 4.57427)
(11.496 3.51216e-19 4.35743)
(11.7241 1.92696e-19 4.79051)
(11.6878 -3.45272e-19 4.56893)
(11.9357 5.11805e-19 4.99447)
(11.8906 6.88029e-19 4.76992)
(12.1562 0 5.18393)
(12.1025 -1.70248e-19 4.95841)
(12.3827 -4.28443e-19 5.35712)
(12.3195 8.25296e-20 5.13255)
(12.5639 -4.25417e-19 5.29206)
(12.6134 5.12477e-19 5.49026)
(11.1485 -3.72413e-21 3.72048)
(11.1343 -1.56159e-19 3.53252)
(11.3083 -8.09555e-20 3.93696)
(11.2882 -8.37172e-20 3.74153)
(11.4807 3.2818e-21 4.14873)
(11.454 3.23031e-19 3.94675)
(11.6649 7.82165e-22 4.35359)
(11.6311 -3.26266e-19 4.14625)
(11.8594 1.65986e-19 4.54943)
(11.8183 4.82479e-19 4.33806)
(12.0627 -1.42312e-20 4.73439)
(12.0143 -3.24147e-19 4.52044)
(12.2728 -8.46026e-20 4.90694)
(12.2173 -3.36706e-19 4.69193)
(12.4874 8.19854e-20 5.06583)
(12.4242 3.46011e-21 4.85129)
(12.6558 -3.18965e-19 4.99848)
(12.705 7.60373e-19 5.18913)
(11.2771 -2.38024e-19 3.55514)
(11.255 -2.44476e-19 3.373)
(11.4374 3.30861e-19 3.75279)
(11.4099 1.59454e-19 3.56416)
(11.6083 -1.60527e-20 3.94554)
(11.5751 -1.40244e-19 3.75125)
(11.7889 1.69375e-19 4.13169)
(11.7495 -3.2912e-19 3.93274)
(11.9778 -2.21199e-20 4.30964)
(11.9323 3.41667e-19 4.10714)
(12.1738 -6.5461e-19 4.47804)
(12.1221 -2.28337e-20 4.27314)
(12.375 -2.45084e-19 4.63583)
(12.3175 -1.66336e-19 4.4297)
(12.5797 -4.0901e-19 4.7821)
(12.5158 -4.74746e-19 4.57595)
(12.7368 -5.99065e-21 4.71208)
(12.7866 5.93228e-19 4.89655)
(11.3909 1.63368e-19 3.3832)
(11.3618 1.53984e-19 3.2066)
(11.551 -3.23601e-19 3.56367)
(11.517 3.13072e-19 3.38134)
(11.72 -4.61397e-19 3.73927)
(11.6809 -3.2625e-19 3.55196)
(11.897 -1.50706e-19 3.90871)
(11.8527 -1.47108e-19 3.71723)
(12.0809 3.39493e-19 4.07078)
(12.0312 -1.56107e-19 3.87604)
(12.2703 4.768e-19 4.22449)
(12.2155 2.61279e-19 4.02741)
(12.4639 -4.0258e-19 4.36909)
(12.4042 -7.07423e-20 4.17059)
(12.6602 -6.37359e-20 4.50394)
(12.5952 -6.23127e-19 4.30499)
(12.8073 4.20798e-19 4.4309)
(12.8583 -1.29496e-18 4.6102)
(11.4909 3.07689e-19 3.20558)
(11.4555 1.55995e-19 3.03427)
(11.6503 3.09178e-19 3.37029)
(11.6105 6.76952e-21 3.19382)
(11.8172 -3.7938e-21 3.53033)
(11.7729 1.04731e-20 3.34935)
(11.9907 -1.52673e-19 3.68468)
(11.9418 2.94901e-19 3.49988)
(12.1698 -2.34811e-19 3.83244)
(12.1164 0 3.64456)
(12.3535 -3.00553e-19 3.9729)
(12.2957 -6.07922e-19 3.78268)
(12.5405 -2.98255e-19 4.10551)
(12.4786 3.83208e-19 3.91368)
(12.7297 -1.33486e-19 4.22981)
(12.6631 -7.50279e-19 4.03714)
(12.8677 6.31544e-19 4.15346)
(12.9203 1.51684e-18 4.32834)
(11.427 -1.46905e-19 2.86936)
(11.3898 -9.27998e-21 2.70833)
(11.5781 -1.52655e-19 3.02303)
(11.5371 4.26723e-19 2.85676)
(11.7363 -2.99324e-19 3.17319)
(11.6914 -4.42563e-19 3.0022)
(11.9009 3.17102e-19 3.31897)
(11.852 -5.83501e-19 3.14379)
(12.0711 4.5066e-19 3.45955)
(12.0181 1.04535e-18 3.28079)
(12.2459 -3.8382e-19 3.59426)
(12.189 -5.122e-19 3.41252)
(12.4245 9.52804e-20 3.72258)
(12.3637 -8.65493e-20 3.53845)
(12.6057 -8.28258e-20 3.84411)
(12.5414 3.19419e-19 3.65819)
(12.7887 2.4187e-20 3.95851)
(12.7204 -5.35954e-19 3.77143)
(12.9183 -3.5878e-20 3.87862)
(12.9728 3.58196e-19 4.04965)
(11.5027 5.79201e-19 2.6961)
(11.4603 6.52069e-21 2.5395)
(11.6533 1.28279e-19 2.83613)
(11.6075 2.14101e-20 2.67467)
(11.8101 -7.34056e-19 2.97279)
(11.7607 -1.54806e-19 2.80691)
(11.9724 1.65954e-19 3.10537)
(11.9193 -7.93912e-19 2.93555)
(12.1393 5.53632e-20 3.23325)
(12.0827 9.53559e-19 3.06)
(12.3102 -2.06688e-19 3.35591)
(12.25 -5.96246e-19 3.17972)
(12.4841 1.44269e-19 3.47296)
(12.4206 3.0357e-19 3.29434)
(12.6602 -1.472e-19 3.58412)
(12.5936 -7.89069e-20 3.40354)
(12.8377 -6.02735e-19 3.68913)
(12.7676 -6.44087e-19 3.50711)
(12.9597 -5.52179e-19 3.60553)
(13.0161 -3.7175e-19 3.77314)
(11.5677 -5.65274e-19 2.51815)
(11.5208 -4.11916e-19 2.36583)
(11.7176 -2.69048e-19 2.64535)
(11.6675 -2.91457e-19 2.48847)
(11.8728 -2.17282e-19 2.76937)
(11.8194 3.50808e-19 2.60831)
(12.0327 1.65927e-20 2.88965)
(11.976 -3.58553e-19 2.72482)
(12.1965 2.82533e-19 3.00569)
(12.1366 2.27295e-19 2.83751)
(12.3636 -7.13505e-20 3.11711)
(12.3006 -7.32717e-20 2.94601)
(12.5333 7.3976e-20 3.22359)
(12.4673 0 3.04999)
(12.7047 -5.89297e-19 3.32495)
(12.636 7.3818e-20 3.14924)
(12.8773 -5.98724e-19 3.42098)
(12.8055 -6.5972e-19 3.24359)
(12.9923 4.9291e-20 3.33355)
(13.0507 1.41448e-18 3.49806)
(11.623 -1.31075e-19 2.33596)
(11.5721 -5.35942e-19 2.1878)
(11.7719 3.44897e-19 2.45105)
(11.7179 5.32632e-19 2.29854)
(11.9253 2.04868e-19 2.56318)
(11.8684 7.3608e-20 2.40665)
(12.0828 -1.41502e-19 2.67189)
(12.0229 -2.01818e-19 2.5117)
(12.2436 -1.37963e-19 2.77681)
(12.1808 2.60189e-19 2.61333)
(12.4072 0 2.87762)
(12.3417 -8.10597e-19 2.71122)
(12.573 0 2.97412)
(12.5048 8.69694e-21 2.80514)
(12.7402 0 3.06613)
(12.6695 5.17917e-19 2.89491)
(12.9083 -8.41794e-23 3.15351)
(12.8349 0 2.98042)
(13.0169 -3.46928e-20 3.06217)
(13.0771 1.29315e-18 3.22386)
(11.6694 1.45867e-19 2.14992)
(11.6149 -7.73234e-19 2.00577)
(11.817 2.53806e-19 2.2535)
(11.7597 6.6196e-19 2.10515)
(11.9686 -3.437e-19 2.35435)
(11.9086 2.46021e-19 2.20211)
(12.1237 2.10712e-19 2.45211)
(12.061 -4.69457e-19 2.29629)
(12.2816 -4.31089e-19 2.5465)
(12.2164 2.80775e-19 2.38741)
(12.442 -8.00172e-19 2.63726)
(12.3742 -8.30892e-19 2.47522)
(12.6041 5.40497e-19 2.72423)
(12.5339 8.91459e-21 2.55954)
(12.7674 5.16933e-19 2.80729)
(12.695 5.6433e-19 2.64024)
(12.9314 -3.55664e-20 2.88631)
(12.8566 -4.99034e-19 2.71722)
(13.0342 5.09058e-19 2.79098)
(13.0959 -1.30768e-18 2.9501)
(11.7076 -2.4221e-19 1.9603)
(11.6501 -7.68619e-19 1.82003)
(11.8538 6.5341e-19 2.05288)
(11.7937 3.26407e-19 1.90853)
(12.0035 1.16058e-19 2.14299)
(11.9409 3.32529e-19 1.99482)
(12.1563 -3.96445e-19 2.23033)
(12.0912 -2.68793e-19 2.07862)
(12.3115 -1.30971e-19 2.31467)
(12.2441 -7.04707e-20 2.15969)
(12.4687 0 2.39582)
(12.3991 5.10973e-19 2.23786)
(12.6275 3.43503e-20 2.47366)
(12.5556 -1.03619e-18 2.31296)
(12.7872 -4.79028e-19 2.54809)
(12.7133 5.26997e-19 2.38492)
(12.9474 5.59768e-20 2.61901)
(12.8714 -1.03164e-18 2.45364)
(13.0449 1.08985e-18 2.51963)
(13.108 3.62846e-19 2.67638)
(11.7385 -1.84152e-19 1.76733)
(11.6784 -4.93457e-19 1.63081)
(11.8832 -2.63414e-21 1.84936)
(11.8208 2.47049e-19 1.70882)
(12.0311 -6.2952e-20 1.92916)
(11.9663 1.78647e-19 1.78484)
(12.1815 6.57516e-20 2.00651)
(12.1145 -1.86973e-19 1.85866)
(12.3342 5.88613e-19 2.08121)
(12.265 3.52044e-21 1.93008)
(12.4885 -5.5377e-19 2.15314)
(12.4173 5.23987e-19 1.99896)
(12.644 -5.28708e-19 2.22217)
(12.5709 -5.61098e-19 2.06518)
(12.8003 -4.20154e-20 2.28825)
(12.7254 2.48377e-20 2.12867)
(12.957 2.17379e-20 2.35129)
(12.8802 -5.7779e-20 2.18938)
(13.0499 4.2462e-20 2.24776)
(13.114 3.73363e-19 2.40238)
(11.7629 -5.0348e-20 1.57111)
(11.7006 -2.44953e-19 1.43823)
(11.9061 4.32872e-19 1.64295)
(11.8416 1.87989e-19 1.50609)
(12.0521 5.1e-20 1.71281)
(11.9855 1.90033e-19 1.57218)
(12.2003 -2.50552e-19 1.78052)
(12.1317 -2.52036e-19 1.63635)
(12.3505 -6.20672e-20 1.84593)
(12.2799 2.37965e-19 1.69843)
(12.502 5.14966e-19 1.90893)
(12.4296 -2.46185e-19 1.75832)
(12.6546 7.48242e-21 1.96944)
(12.5805 5.45135e-19 1.81593)
(12.8078 8.49571e-21 2.02739)
(12.7321 -4.92779e-19 1.8712)
(12.9613 -3.65821e-20 2.08274)
(12.8838 4.87727e-19 1.92408)
(13.05 -5.15652e-19 1.975)
(13.1148 8.26458e-19 2.12768)
(11.7815 0 1.37184)
(11.7174 -2.26302e-19 1.24239)
(11.9232 -6.11221e-20 1.43379)
(11.8571 2.31326e-19 1.30035)
(12.0673 -1.21343e-19 1.49402)
(11.9993 -2.90847e-21 1.35678)
(12.2135 2.49659e-19 1.55238)
(12.1436 -6.18335e-20 1.41156)
(12.3613 4.85601e-20 1.60878)
(12.2896 3.09567e-19 1.46456)
(12.5103 -2.1433e-19 1.66311)
(12.437 -2.82344e-19 1.5157)
(12.6601 3.07161e-20 1.71531)
(12.5853 3.1482e-20 1.56491)
(12.8105 0 1.76535)
(12.7342 4.80083e-19 1.61215)
(12.9609 -2.68218e-23 1.81317)
(12.8832 -4.90325e-19 1.65737)
(13.0462 4.54936e-19 1.70098)
(13.1114 9.19534e-21 1.85207)
(11.7951 1.14926e-20 1.16921)
(11.7296 -4.52577e-19 1.04328)
(11.9353 2.90838e-19 1.2215)
(11.8679 2.40029e-19 1.09154)
(12.0777 5.81065e-20 1.27232)
(12.0085 2.8722e-19 1.13851)
(12.2219 0 1.32157)
(12.151 2.85069e-20 1.1841)
(12.3675 -3.05611e-20 1.36916)
(12.2951 0 1.22822)
(12.5141 -2.97982e-20 1.41501)
(12.4402 2.29165e-19 1.27079)
(12.6615 4.93029e-19 1.45909)
(12.5862 -3.25699e-20 1.31176)
(12.8092 -2.40284e-20 1.50135)
(12.7327 2.55362e-19 1.3511)
(12.957 -2.22129e-20 1.54177)
(12.8791 -5.03279e-19 1.38878)
(13.0392 4.81958e-19 1.42514)
(13.1046 -8.4359e-19 1.57468)
(11.8044 -2.17468e-19 0.963871)
(11.7378 -1.99235e-19 0.84084)
(11.9431 2.36345e-19 1.00666)
(11.8748 2.70333e-21 0.87953)
(12.0839 2.56633e-19 1.04825)
(12.0139 4.52503e-19 0.917186)
(12.2262 2.84852e-20 1.08855)
(12.1547 -2.22294e-19 0.953726)
(12.3698 2.66789e-19 1.1275)
(12.2969 0 0.989084)
(12.5143 2.26135e-19 1.16504)
(12.4401 2.66655e-19 1.02321)
(12.6594 -2.76349e-19 1.20114)
(12.584 -1.91305e-20 1.05606)
(12.8047 -2.37234e-19 1.23577)
(12.7283 -2.43755e-19 1.08761)
(12.95 1.53618e-20 1.26891)
(12.8726 1.44573e-20 1.11785)
(13.0301 1.5351e-20 1.14707)
(13.095 -5.4815e-19 1.29593)
(11.8101 2.69313e-20 0.754206)
(11.7426 1.39562e-21 0.634923)
(11.9475 2.24917e-19 0.787596)
(11.8784 0 0.664111)
(12.0867 -3.96534e-20 0.820036)
(12.0161 2.24831e-19 0.692514)
(12.2274 -2.51419e-19 0.851465)
(12.1554 -2.58365e-19 0.720072)
(12.3692 0 0.88183)
(12.2959 0 0.746736)
(12.5118 1.46375e-20 0.911095)
(12.4374 1.37703e-20 0.772469)
(12.6549 1.42402e-20 0.93923)
(12.5794 7.49617e-22 0.79724)
(12.7981 1.48542e-20 0.966218)
(12.7217 0 0.821029)
(12.9413 1.44476e-20 0.992037)
(12.864 7.65228e-22 0.843818)
(13.0192 0 0.865829)
(13.0842 -5.44517e-19 1.0131)
(11.8127 -2.62809e-20 0.542911)
(11.7447 -1.41523e-19 0.425359)
(11.9488 0 0.566986)
(11.8793 1.03977e-19 0.445049)
(12.0866 0 0.590385)
(12.0157 0 0.464206)
(12.2258 0 0.613063)
(12.1537 -1.04785e-19 0.48279)
(12.366 1.4151e-20 0.634986)
(12.2928 1.07063e-19 0.500771)
(12.5068 -5.14184e-22 0.656125)
(12.4327 7.12209e-22 0.518126)
(12.6481 -1.38948e-20 0.676462)
(12.5731 -1.21749e-19 0.534837)
(12.7895 -1.44926e-20 0.695985)
(12.7138 1.09763e-19 0.550897)
(12.9307 -1.40973e-20 0.714683)
(12.8544 -1.79277e-20 0.566305)
(13.0077 0 0.58124)
(13.0715 -4.16722e-21 0.729962)
(11.813 -7.62699e-21 0.324182)
(11.6513 -1.05129e-19 0.212042)
(11.948 1.03958e-19 0.338734)
(11.7834 1.06803e-19 0.22214)
(12.0846 -1.07704e-19 0.352855)
(11.9174 -5.07463e-20 0.231958)
(12.2225 5.26293e-21 0.366523)
(12.0529 -1.07027e-19 0.241474)
(12.3613 9.32703e-20 0.379719)
(12.1897 1.62351e-19 0.250675)
(12.5008 -1.23892e-19 0.39243)
(12.3273 -1.3792e-20 0.259548)
(12.6406 5.34961e-21 0.404647)
(12.4655 -1.62997e-19 0.268083)
(12.7805 1.06256e-19 0.416369)
(12.604 1.66491e-19 0.276275)
(12.9203 -3.43238e-21 0.427599)
(12.7426 -1.79851e-22 0.284117)
(12.8937 -5.36611e-20 0.291709)
(13.0597 2.03132e-21 0.436752)
(11.6209 1.24959e-20 0.108659)
(11.752 -5.21355e-20 0.113992)
(11.8849 -5.00775e-20 0.119173)
(12.0193 5.44082e-20 0.12419)
(12.1548 5.23264e-20 0.129034)
(12.2911 -5.40053e-20 0.133697)
(12.428 2.61655e-21 0.138175)
(12.5651 5.71256e-20 0.14246)
(12.7021 -5.17916e-20 0.146552)
(12.8389 2.21134e-19 0.149841)
(12.5026 6.83106e-19 5.99784)
(12.6353 -1.36409e-19 5.8678)
(12.6065 4.94444e-19 5.67473)
(12.7589 -6.62435e-19 5.93895)
(12.7434 -4.82083e-20 5.74708)
(12.8582 -6.21751e-19 5.81482)
(12.883 -8.73475e-19 6.01416)
(12.7289 5.8406e-19 5.55085)
(12.7006 1.15561e-18 5.36581)
(12.844 -1.68938e-22 5.61835)
(12.8288 -5.98901e-19 5.434)
(12.9364 -2.55633e-22 5.49855)
(12.9597 -1.54833e-19 5.69183)
(12.8138 -4.87186e-20 5.24598)
(12.785 1.16732e-18 5.06724)
(12.9223 -6.06127e-19 5.30995)
(12.9062 4.76211e-19 5.13149)
(13.0082 -1.05239e-18 5.19279)
(13.0314 -5.1736e-20 5.38072)
(12.89 1.70574e-18 4.94986)
(12.8599 -5.0488e-19 4.77619)
(12.9931 3.76252e-20 5.01032)
(12.9754 2.23253e-18 4.8366)
(13.0728 -1.11069e-18 4.89458)
(13.097 -1.42397e-18 5.07788)
(12.9572 2.08411e-20 4.66009)
(12.9252 -6.82014e-20 4.49059)
(13.056 1.09693e-18 4.717)
(13.0361 1.16028e-18 4.5472)
(13.1296 1.03038e-18 4.60175)
(13.1555 3.25479e-19 4.78104)
(13.0154 1.09541e-18 4.37488)
(12.9812 1.09659e-18 4.20887)
(13.1105 1.09365e-18 4.42821)
(13.088 7.39368e-22 4.26171)
(13.1783 2.08529e-18 4.31277)
(13.2063 1.09862e-18 4.48851)
(13.0646 -1.63706e-20 4.09289)
(13.028 1.25438e-20 3.92988)
(13.1566 9.9096e-19 4.14262)
(13.1314 9.98129e-19 3.97896)
(13.2188 1.03504e-18 4.02649)
(13.2492 1.29709e-18 4.19902)
(13.1051 1.04766e-18 3.81313)
(13.066 1.02958e-18 3.65275)
(13.1942 1.04282e-18 3.85924)
(13.1662 1.02417e-18 3.69809)
(13.2511 -9.68627e-19 3.74206)
(13.2841 -3.51877e-19 3.91165)
(13.1371 1.00999e-18 3.53486)
(13.0955 1.99393e-18 3.37681)
(13.2237 -1.01229e-18 3.57736)
(13.193 -9.55171e-19 3.41844)
(13.2756 -1.0088e-18 3.45886)
(13.311 -5.7863e-19 3.62573)
(13.1611 3.28534e-21 3.25751)
(13.1173 3.01114e-20 3.10155)
(13.2454 -9.50901e-19 3.29642)
(13.2122 -3.01629e-20 3.13953)
(13.2927 1.45742e-20 3.17641)
(13.3304 3.57586e-19 3.34075)
(13.1777 -4.27516e-21 2.98064)
(13.132 -9.69253e-19 2.82657)
(13.2599 9.58796e-19 3.016)
(13.2245 9.56023e-19 2.86094)
(13.3031 2.91479e-20 2.89432)
(13.3428 8.73483e-21 3.0563)
(13.1878 0 2.70388)
(13.1403 1.41709e-20 2.5515)
(13.268 1.44065e-20 2.73573)
(13.2306 -7.02106e-21 2.58232)
(13.3074 6.65404e-22 2.61223)
(13.3489 3.00779e-20 2.77203)
(13.1919 7.1903e-21 2.42689)
(13.1431 8.68735e-19 2.27598)
(13.2703 -2.12048e-20 2.45528)
(13.2314 -8.76168e-19 2.30329)
(13.3064 -2.10615e-20 2.32979)
(13.3493 3.15691e-19 2.48764)
(13.191 -2.16838e-20 2.14924)
(13.1412 8.8291e-19 1.99965)
(13.2677 -8.86516e-19 2.17422)
(13.2276 -8.91394e-19 2.0235)
(13.3011 -6.96108e-21 2.04664)
(13.345 -9.22236e-21 2.20267)
(13.186 6.84214e-21 1.87073)
(13.1355 -8.35012e-19 1.72207)
(13.2611 -1.47808e-24 1.89235)
(13.2202 -6.55038e-21 1.74251)
(13.2922 -8.26761e-19 1.76231)
(13.3369 3.19487e-19 1.91696)
(13.1777 -8.5817e-19 1.59046)
(13.1269 -1.27434e-18 1.4428)
(13.2514 -8.44841e-19 1.60874)
(13.21 -3.13039e-21 1.45986)
(13.2807 -4.35736e-19 1.47639)
(13.3257 -8.0988e-19 1.62955)
(13.1669 -4.10006e-19 1.3089)
(13.1162 -8.21231e-19 1.16114)
(13.2394 4.22354e-19 1.3239)
(13.198 8.0045e-19 1.17482)
(13.2676 4.17978e-19 1.18805)
(13.3124 4.08826e-19 1.34097)
(13.1549 4.05104e-19 1.02319)
(13.1041 -4.1405e-19 0.876682)
(13.2262 8.00782e-19 1.03486)
(13.1846 8.18594e-19 0.887013)
(13.2532 3.83806e-19 0.897022)
(13.2981 -3.08302e-19 1.04814)
(13.1413 -3.0988e-21 0.737272)
(13.0914 -1.6504e-21 0.58814)
(13.2117 3.95698e-19 0.745711)
(13.1709 -1.88362e-19 0.59505)
(13.2387 5.87723e-19 0.601677)
(13.2827 3.84763e-19 0.755288)
(13.1286 -1.89755e-19 0.441071)
(12.9762 1.90103e-19 0.29579)
(13.198 -1.11427e-21 0.446028)
(13.0545 -2.86742e-19 0.299209)
(13.1213 1.90655e-19 0.302566)
(13.268 2.56499e-19 0.451676)
(12.9066 9.61133e-20 0.151356)
(12.975 -9.57724e-20 0.153095)
(13.044 -1.95459e-21 0.15513)
(13.0638 -3.10746e-19 5.93846)
(13.1949 -2.29933e-19 5.8291)
(13.1298 -3.12622e-19 5.62017)
(13.4315 2.67023e-19 5.93369)
(13.3378 4.62645e-20 5.73271)
(13.661 2.59052e-19 6.0202)
(13.5692 2.60308e-19 5.83254)
(13.7996 0 5.91729)
(13.2548 -4.13114e-20 5.51657)
(13.1918 -7.86947e-20 5.3103)
(13.4837 3.7709e-20 5.62601)
(13.3912 1.61199e-21 5.42259)
(13.713 0 5.72426)
(13.6167 5.46403e-19 5.52736)
(13.9382 7.92611e-21 5.81082)
(13.848 -1.73028e-20 5.62276)
(14.1549 2.3865e-19 5.88559)
(14.0739 -5.03369e-19 5.70835)
(14.2916 6.16078e-22 5.78411)
(13.3105 -3.63354e-20 5.20955)
(13.2485 5.52238e-19 5.00689)
(13.5314 5.11812e-19 5.31865)
(13.4401 -1.17963e-18 5.11611)
(13.7563 5.37352e-19 5.42053)
(13.6588 5.4129e-19 5.2207)
(13.983 -5.31638e-19 5.51498)
(13.8867 5.28197e-19 5.31925)
(14.2087 -7.57775e-19 5.60199)
(14.1147 -5.24226e-19 5.41143)
(14.4309 2.01604e-19 5.68139)
(14.3412 -2.40614e-19 5.4973)
(14.6467 2.55873e-19 5.75284)
(14.5657 4.64593e-19 5.57675)
(14.7862 -2.23238e-19 5.64944)
(13.3607 -5.74347e-19 4.90704)
(13.2987 4.77073e-20 4.70823)
(13.5741 -1.18107e-18 5.01311)
(13.4836 -1.13534e-18 4.81287)
(13.7935 5.31828e-19 5.11423)
(13.6956 4.82575e-20 4.91457)
(14.0175 5.57229e-19 5.21035)
(13.9186 5.43443e-19 5.01211)
(14.245 0 5.30158)
(14.1445 0 5.10528)
(14.4743 1.4155e-20 5.38789)
(14.3728 0 5.19419)
(14.704 -1.21191e-20 5.46905)
(14.6038 6.61322e-22 5.27884)
(14.9323 1.70879e-19 5.54462)
(14.8367 -2.70685e-20 5.35899)
(15.07 3.97223e-19 5.4342)
(13.4045 -4.94017e-19 4.60793)
(13.3418 -6.13604e-19 4.41297)
(13.6112 1.03395e-19 4.70947)
(13.5208 -5.55669e-19 4.51215)
(13.8248 5.25844e-20 4.80742)
(13.7266 3.58862e-20 4.60942)
(14.0446 -1.63374e-20 4.90177)
(13.9442 -1.63996e-20 4.70369)
(14.2701 0 4.99265)
(14.1663 -4.75437e-19 4.79471)
(14.5004 -1.38391e-20 5.08009)
(14.3928 4.67201e-19 4.8826)
(14.735 -1.40737e-20 5.16401)
(14.6247 -1.41304e-20 4.9674)
(14.9729 1.96021e-19 5.24412)
(14.8616 0 5.04901)
(15.103 2.00178e-19 5.12713)
(13.4412 -6.7104e-19 4.31128)
(13.3773 -6.42082e-19 4.12011)
(13.6418 -6.37302e-19 4.4074)
(13.551 -5.95096e-19 4.21326)
(13.8498 -3.36913e-20 4.5008)
(13.7511 5.07958e-19 4.3052)
(14.0649 -4.77221e-19 4.59145)
(13.9634 0 4.39488)
(14.2867 -1.67871e-20 4.67944)
(14.181 -1.90943e-20 4.482)
(14.515 4.77103e-19 4.76478)
(14.404 1.89045e-20 4.56662)
(14.7495 0 4.84741)
(14.6337 0 4.64877)
(14.9899 0 4.9272)
(14.8703 -4.03604e-19 4.72839)
(15.1133 7.54745e-19 4.80528)
(13.4705 -5.64933e-19 4.01638)
(13.4052 5.65066e-19 3.82892)
(13.6655 5.57852e-19 4.1065)
(13.5741 -5.23966e-19 3.9157)
(13.8682 5.53349e-19 4.19453)
(13.7688 5.39306e-19 4.00174)
(14.0784 4.69904e-19 4.28037)
(13.9759 0 4.08603)
(14.2959 1.67516e-20 4.36404)
(14.1888 9.4428e-19 4.16823)
(14.5206 -4.69848e-19 4.4455)
(14.4076 -1.36387e-18 4.24833)
(14.7526 -4.05181e-19 4.52468)
(14.6337 1.30396e-20 4.32631)
(14.9917 3.45586e-19 4.60147)
(14.8675 3.96271e-19 4.4021)
(15.1088 3.82186e-19 4.47553)
(13.4924 6.30968e-19 3.7227)
(13.4257 1.69899e-18 3.53887)
(13.6823 -5.6296e-19 3.80646)
(13.5901 -1.0731e-18 3.61904)
(13.8799 -1.62539e-20 3.88859)
(13.7797 -3.19367e-20 3.69883)
(14.0851 4.65941e-19 3.96893)
(13.9818 0 3.77724)
(14.298 -4.20895e-19 4.04745)
(14.1899 4.74209e-19 3.85391)
(14.5185 -8.98501e-19 4.12406)
(14.4042 -9.14765e-19 3.92877)
(14.7467 8.26534e-19 4.19865)
(14.6261 2.64945e-20 4.00176)
(14.9826 4.34121e-19 4.27109)
(14.8559 8.30673e-19 4.07276)
(15.0937 -3.78132e-19 4.1416)
(13.5071 2.71315e-20 3.42983)
(13.439 5.31616e-19 3.24954)
(13.6922 -5.51528e-19 3.50702)
(13.5993 -5.37498e-19 3.323)
(13.8849 -1.59704e-20 3.58292)
(13.7841 4.68344e-19 3.39631)
(14.0853 -1.78862e-21 3.65735)
(13.9814 -4.68161e-19 3.46854)
(14.2935 -1.82133e-21 3.73022)
(14.1847 -2.70414e-21 3.53931)
(14.5094 1.31725e-20 3.80142)
(14.3943 0 3.6085)
(14.7332 1.34093e-20 3.87081)
(14.6116 -4.05476e-19 3.67602)
(14.9649 2.37197e-20 3.93819)
(14.837 7.85928e-19 3.74173)
(15.0705 -7.23995e-19 3.80542)
(13.5152 -1.68547e-20 3.13745)
(13.4459 -7.64902e-22 2.96059)
(13.6956 4.85829e-19 3.20796)
(13.6023 0 3.02728)
(13.8837 2.34134e-20 3.27744)
(13.7826 5.11576e-19 3.094)
(14.0794 -4.7932e-19 3.34571)
(13.9751 -4.87198e-19 3.15988)
(14.2829 -8.95007e-22 3.41265)
(14.1738 -1.76023e-21 3.22451)
(14.4941 -4.20415e-19 3.47811)
(14.3788 4.14471e-19 3.28778)
(14.7133 3.60787e-19 3.54192)
(14.5914 -4.53388e-19 3.34956)
(14.9404 5.19112e-20 3.60388)
(14.8121 4.13832e-19 3.40967)
(15.0409 -1.10679e-18 3.46794)
(13.5172 1.64962e-20 2.84527)
(13.447 5.1741e-19 2.67168)
(13.6933 1.50321e-20 2.90905)
(13.5997 -9.74458e-19 2.73162)
(13.877 8.10515e-21 2.97201)
(13.7757 4.89545e-19 2.7917)
(14.0682 -8.21673e-21 3.03396)
(13.9638 -7.3759e-21 2.85112)
(14.267 4.14989e-19 3.09478)
(14.158 -8.83876e-22 2.90949)
(14.4736 3.9985e-19 3.1543)
(14.3584 1.82863e-20 2.96668)
(14.688 -4.17936e-19 3.21234)
(14.5664 -1.429e-21 3.02255)
(14.9103 -7.41423e-19 3.2687)
(14.7823 3.57277e-19 3.07693)
(15.0063 -3.81828e-19 3.12964)
(13.5138 -4.5931e-19 2.55301)
(13.443 5.13703e-19 2.38249)
(13.6859 -5.1867e-19 2.61005)
(13.5923 -9.99409e-19 2.43571)
(13.8654 4.84814e-19 2.66644)
(13.7643 9.48453e-19 2.48913)
(14.0522 0 2.72199)
(13.9481 -8.83638e-19 2.54204)
(14.2466 -4.08152e-19 2.77659)
(14.138 4.29101e-19 2.59407)
(14.4487 -3.92897e-19 2.83007)
(14.3341 -4.20451e-19 2.64511)
(14.6584 7.85759e-19 2.88223)
(14.5375 2.35486e-20 2.695)
(14.8759 7.42424e-19 2.9329)
(14.7488 1.14681e-18 2.74358)
(14.968 -4.1802e-19 2.79066)
(13.506 0 2.26024)
(13.4349 4.78488e-19 2.09266)
(13.6743 4.63514e-19 2.31056)
(13.581 -7.33551e-21 2.13919)
(13.8498 -4.15577e-19 2.36036)
(13.7492 1.35848e-20 2.18598)
(14.0325 -4.72818e-19 2.40948)
(13.929 -4.78734e-19 2.23235)
(14.2227 4.35552e-19 2.4578)
(14.1149 4.31896e-19 2.27801)
(14.4204 -3.25441e-21 2.50517)
(14.3068 -4.00375e-19 2.32282)
(14.6256 3.68971e-19 2.55141)
(14.5059 0 2.36668)
(14.8386 -9.08531e-21 2.59634)
(14.7128 7.49374e-19 2.40939)
(14.9274 -7.25999e-19 2.45081)
(13.4946 4.87177e-19 1.96681)
(13.4235 9.64844e-19 1.80176)
(13.6593 -4.71326e-19 2.01045)
(13.5667 -4.12427e-22 1.84167)
(13.8311 -4.18437e-20 2.05369)
(13.7314 -9.07639e-19 1.88184)
(14.01 4.28928e-19 2.09635)
(13.9075 8.66054e-19 1.92171)
(14.1962 -4.06797e-19 2.13835)
(14.0896 -4.11376e-19 1.96097)
(14.3897 -4.06078e-19 2.17957)
(14.2776 -1.28233e-20 1.99952)
(14.5907 3.73506e-19 2.21982)
(14.4727 3.69637e-19 2.03726)
(14.7993 4.66835e-20 2.25896)
(14.6754 1.89429e-20 2.07405)
(14.8858 -6.89597e-19 2.10975)
(13.4805 4.92018e-19 1.67176)
(13.4097 2.58248e-19 1.50926)
(13.642 -4.2918e-19 1.70876)
(13.5502 6.65288e-19 1.5426)
(13.8104 -1.50818e-20 1.74544)
(13.7118 -8.76098e-19 1.5762)
(13.9858 3.26705e-20 1.78166)
(13.8846 2.93295e-20 1.60957)
(14.1683 -1.61253e-20 1.81733)
(14.0633 -1.19879e-20 1.64244)
(14.358 7.74695e-19 1.85234)
(14.2478 4.02233e-19 1.67471)
(14.555 1.37114e-20 1.88653)
(14.4392 3.73743e-19 1.70631)
(14.7595 -7.20841e-19 1.9198)
(14.6381 -3.83612e-19 1.73712)
(14.8445 -3.47099e-19 1.76704)
(13.4645 4.2427e-19 1.3756)
(13.3945 -6.86017e-19 1.21451)
(13.6232 2.4078e-19 1.40601)
(13.5327 1.10943e-18 1.24129)
(13.7886 -8.4992e-19 1.43618)
(13.6915 -6.52287e-19 1.26832)
(13.9609 -1.53409e-20 1.46599)
(13.8614 -4.20065e-19 1.29517)
(14.1401 4.07817e-19 1.49534)
(14.0371 6.04413e-19 1.32163)
(14.3264 -8.79764e-21 1.52414)
(14.2184 -3.76067e-19 1.34762)
(14.5199 -1.68515e-20 1.55229)
(14.4066 -1.64534e-21 1.37307)
(14.7208 -6.91265e-22 1.5797)
(14.6021 1.57107e-19 1.39791)
(14.805 1.07518e-20 1.42204)
(13.4478 -2.94452e-20 1.07514)
(13.3784 -6.84104e-19 0.916778)
(13.604 2.31199e-19 1.0989)
(13.5146 4.42312e-19 0.937001)
(13.7668 -2.1622e-19 1.12247)
(13.6709 -2.20223e-19 0.957411)
(13.9363 1.92766e-19 1.14577)
(13.8383 0 0.977707)
(14.1127 -1.77775e-19 1.16873)
(14.0114 1.96591e-19 0.997724)
(14.296 -3.77533e-19 1.19126)
(14.19 -3.8041e-19 1.01739)
(14.4865 1.7335e-19 1.21331)
(14.3754 9.80063e-21 1.03668)
(14.6841 1.72248e-19 1.23477)
(14.568 1.78203e-19 1.05551)
(14.768 -5.01725e-21 1.0738)
(13.4305 -2.28588e-19 0.774775)
(13.3624 -2.22821e-19 0.615216)
(13.5845 -6.59158e-21 0.791965)
(13.4968 1.44131e-21 0.628813)
(13.745 -3.26925e-21 0.809035)
(13.6511 -4.06081e-21 0.642615)
(13.9121 -7.43201e-22 0.825909)
(13.8163 9.37516e-23 0.656311)
(14.0861 2.10046e-21 0.842551)
(13.9872 6.84199e-22 0.669799)
(14.2669 8.3976e-21 0.858915)
(14.1636 -8.90862e-20 0.68306)
(14.4547 1.0846e-20 0.874942)
(14.3466 7.58974e-21 0.696069)
(14.6497 3.1835e-22 0.890554)
(14.5368 4.86283e-21 0.708777)
(14.7343 8.15387e-20 0.721116)
(13.4142 8.2625e-21 0.463293)
(13.2432 3.41982e-21 0.30884)
(13.5664 4.1713e-21 0.473625)
(13.3757 3.39829e-21 0.315952)
(13.725 -7.03036e-22 0.483857)
(13.5278 -4.13701e-23 0.322995)
(13.8901 1.54553e-21 0.493926)
(13.6907 5.0162e-24 0.329926)
(14.062 -9.09223e-20 0.503831)
(13.8592 7.80471e-22 0.336745)
(14.2407 -9.22587e-20 0.513563)
(14.0332 -9.32205e-20 0.343449)
(14.4265 1.50111e-21 0.52309)
(14.2138 2.03065e-21 0.350024)
(14.6193 8.65497e-20 0.532368)
(14.4016 1.95629e-21 0.35645)
(14.5966 4.88561e-20 0.362698)
(13.1874 -1.58276e-21 0.159424)
(13.3371 -8.50577e-22 0.163289)
(13.4931 6.87553e-22 0.167103)
(13.6557 -8.02903e-22 0.17084)
(13.8249 6.40591e-22 0.174512)
(14.0009 1.39039e-21 0.178121)
(14.1839 2.51266e-21 0.181658)
(14.3738 -3.78474e-20 0.185112)
)
;

boundaryField
{
    inlet
    {
        type            calculated;
        value           nonuniform 0();
    }
    outlet
    {
        type            calculated;
        value           nonuniform 0();
    }
    flap
    {
        type            calculated;
        value           nonuniform 0();
    }
    upperWall
    {
        type            calculated;
        value           uniform (0 0 0);
    }
    lowerWall
    {
        type            calculated;
        value           nonuniform 0();
    }
    frontAndBack
    {
        type            empty;
        value           nonuniform 0();
    }
    procBoundary1to0
    {
        type            processor;
        value           nonuniform List<vector> 
18
(
(11.2404 1.42001e-21 3.19928)
(11.3398 1.55973e-19 3.03733)
(11.3085 -1.47306e-19 2.87174)
(11.2835 -4.85269e-21 2.71315)
(11.3587 1.44035e-19 2.55348)
(11.4237 -2.79344e-19 2.38839)
(11.4794 -4.08566e-19 2.21842)
(11.5263 -1.36102e-19 2.04403)
(11.5654 -1.02267e-18 1.86557)
(11.5973 -2.54912e-19 1.68334)
(11.6228 -2.4521e-19 1.49751)
(11.6426 2.32339e-19 1.30835)
(11.6575 -2.88572e-19 1.1156)
(11.668 -1.71488e-19 0.919979)
(11.6749 2.76863e-20 0.719944)
(11.6786 7.73791e-20 0.518213)
(11.68 -1.17686e-19 0.309231)
(11.4921 -1.19891e-20 0.103187)
)
;
    }
    procBoundary1to2
    {
        type            processor;
        value           nonuniform List<vector> 
17
(
(15.1572 3.95917e-19 5.61385)
(15.2132 3.92202e-19 5.3199)
(15.2359 -3.66489e-19 5.0038)
(15.2379 1.14848e-18 4.67564)
(15.2263 -4.00186e-19 4.34116)
(15.2046 2.41378e-20 4.00337)
(15.1755 -1.12753e-18 3.6638)
(15.1406 -1.04999e-18 3.32319)
(15.1013 3.17349e-19 2.98187)
(15.0593 -3.91952e-19 2.63978)
(15.0155 -6.68993e-19 2.29683)
(14.9716 -7.09643e-19 1.95201)
(14.929 3.07677e-20 1.60624)
(14.889 1.64881e-19 1.25556)
(14.8519 -1.47445e-20 0.905671)
(14.8192 8.87247e-20 0.54135)
(14.5709 -4.22349e-20 0.188466)
)
;
    }
    procBoundary1to3
    {
        type            processor;
        value           nonuniform List<vector> 9((9.70835 1.26391e-18 4.15888) (9.93506 -1.64126e-18 4.12215) (10.1493 7.9162e-19 4.06145) (10.3495 1.52617e-18 3.97992) (10.535 5.40803e-19 3.88063) (10.7055 -1.25417e-18 3.76631) (10.8611 2.90165e-19 3.63928) (11.0017 2.50099e-19 3.50143) (11.128 -4.71736e-20 3.35433));
    }
    procBoundary1to4
    {
        type            processor;
        value           nonuniform List<vector> 
30
(
(9.61204 8.74167e-19 4.35247)
(9.77822 4.17391e-19 4.54028)
(9.94832 0 4.69766)
(10.0721 -4.18894e-19 5.09321)
(10.2947 0 5.23435)
(10.5072 1.17774e-20 5.33883)
(10.7123 3.63845e-19 5.70525)
(10.9662 3.62091e-19 5.76678)
(11.1942 0 5.79894)
(11.456 -3.69461e-19 6.09382)
(11.7001 0 6.06856)
(11.9106 1.19167e-20 6.03295)
(12.215 1.34866e-20 6.2462)
(12.3888 8.27759e-19 6.34043)
(12.5336 7.15176e-19 6.20158)
(12.6507 -8.47835e-20 6.0748)
(12.7749 -6.07104e-19 6.14566)