/*--------------------------------*- C++ -*----------------------------------*\
| =========                 |                                                 |
| \\      /  F ield         | OpenFOAM: The Open Source CFD Toolbox           |
|  \\    /   O peration     | Version:  dev                                   |
|   \\  /    A nd           | Web:      www.OpenFOAM.org                      |
|    \\/     M anipulation  |                                                 |
\*---------------------------------------------------------------------------*/
FoamFile
{
    version     2.0;
    format      ascii;
    class       volVectorField;
    location    "3.22";
    object      U;
}
// * * * * * * * * * * * * * * * * * * * * * * * * * * * * * * * * * * * * * //

dimensions      [0 1 -1 0 0 0 0];

internalField   nonuniform List<vector> 
2790
(
(9.94624 0 0.0196077)
(9.87102 2.45455e-21 0.0285062)
(9.76301 0 0.0348329)
(9.63373 -1.31074e-21 0.0412112)
(9.48723 0 0.0477529)
(9.32327 0 0.0544331)
(9.14125 5.49682e-21 0.0613915)
(8.9408 -5.84591e-21 0.0687902)
(8.72147 1.26627e-20 0.0767595)
(8.48259 -1.30381e-20 0.0854154)
(8.22329 0 0.0948766)
(7.94254 -2.86175e-20 0.105265)
(7.6392 2.94767e-20 0.116705)
(7.31206 0 0.129324)
(6.95989 0 0.143238)
(6.5815 0 0.158545)
(6.17584 8.83301e-21 0.175317)
(5.74214 -1.84815e-20 0.1936)
(5.27998 -1.93379e-20 0.21337)
(4.78948 -2.02321e-20 0.234491)
(4.27161 0 0.256674)
(3.7284 -2.65913e-19 0.279433)
(3.1633 1.37507e-19 0.302001)
(2.58152 1.93136e-19 0.323193)
(1.99048 -1.99011e-19 0.34116)
(1.4004 1.55613e-19 0.352833)
(0.825119 -2.12723e-19 0.352244)
(0.279134 -4.37098e-19 0.31816)
(-0.275762 4.42388e-19 0.0100094)
(-0.0964198 0 -0.316654)
(10.0058 0 0.0395858)
(9.98664 -7.35219e-21 0.0605114)
(9.93707 0 0.0765937)
(9.86492 1.30777e-21 0.0932393)
(9.77307 0 0.11071)
(9.66139 0 0.128886)
(9.5295 1.089e-21 0.148043)
(9.3771 -1.8842e-22 0.168534)
(9.2038 -1.56409e-21 0.190648)
(9.00897 5.23493e-20 0.21464)
(8.79179 -5.38643e-20 0.240773)
(8.55125 -5.6747e-20 0.269307)
(8.28621 5.10634e-20 0.300498)
(7.99546 0 0.334588)
(7.67774 1.44768e-19 0.371772)
(7.33177 -1.49309e-19 0.412156)
(6.95633 -1.49245e-19 0.455733)
(6.55045 5.25704e-20 0.502357)
(6.11353 1.7039e-19 0.551666)
(5.64535 3.40555e-19 0.602938)
(5.14642 -6.65389e-19 0.654987)
(4.6183 -3.45204e-19 0.706044)
(4.06384 4.5279e-20 0.753577)
(3.48767 9.40549e-20 0.794035)
(2.89668 9.76647e-20 0.822399)
(2.30096 8.6234e-19 0.831272)
(1.71535 -9.36985e-19 0.808285)
(1.1558 0 0.7273)
(0.634395 0 0.521483)
(0.385059 -1.82072e-18 0.0721988)
(10.0029 0 0.0422246)
(9.98096 4.89851e-21 0.0727776)
(9.93372 1.01275e-20 0.0993235)
(9.86662 -1.04243e-20 0.126758)
(9.78124 -2.16748e-20 0.155651)
(9.67757 2.50956e-20 0.185962)
(9.55547 4.43835e-20 0.218058)
(9.41481 -9.63848e-20 0.252436)
(9.2553 5.12476e-20 0.289531)
(9.07647 -5.214e-20 0.329755)
(8.87762 5.36238e-20 0.373544)
(8.65792 7.00333e-21 0.42134)
(8.41635 2.18898e-20 0.473575)
(8.15182 1.51915e-20 0.530661)
(7.86317 -1.58791e-20 0.592958)
(7.54917 1.65649e-20 0.660713)
(7.2085 2.78185e-19 0.733977)
(6.83996 -6.48699e-19 0.81256)
(6.44263 -4.12218e-21 0.895953)
(6.01574 3.9028e-19 0.983106)
(5.55895 -8.16895e-20 1.07219)
(5.07257 0 1.16041)
(4.55785 0 1.2437)
(4.01725 6.5001e-19 1.31629)
(3.45474 -9.55493e-19 1.37006)
(2.87597 1.97956e-19 1.39344)
(2.28804 1.02391e-19 1.36913)
(1.69719 0 1.26842)
(1.07793 0 1.05224)
(0.619789 2.25852e-19 0.667517)
(10.0012 9.49912e-21 0.0474003)
(9.97687 0 0.089149)
(9.92955 1.00826e-20 0.127487)
(9.86381 0 0.165988)
(9.78026 2.16257e-20 0.205806)
(9.67886 -2.50372e-20 0.247298)
(9.55973 4.78652e-20 0.291027)
(9.4229 -4.75484e-20 0.337655)
(9.26825 3.10444e-21 0.387782)
(9.09546 -6.44618e-21 0.441984)
(8.90412 0 0.500879)
(8.69366 -1.05315e-19 0.565099)
(8.4633 1.00877e-19 0.635255)
(8.21227 2.28186e-19 0.711921)
(7.93974 -2.5016e-19 0.795642)
(7.64479 0 0.886872)
(7.3264 -2.7533e-19 0.985826)
(6.98343 3.18833e-19 1.09239)
(6.61492 5.98235e-19 1.2061)
(6.21996 -1.46718e-19 1.32584)
(5.79763 -5.60208e-19 1.44956)
(5.34721 -1.25918e-18 1.57395)
(4.86826 6.94407e-19 1.69408)
(4.3607 -1.80623e-19 1.80291)
(3.82473 1.60349e-18 1.89061)
(3.26032 -1.55082e-18 1.94361)
(2.66603 0 1.94378)
(2.03968 0 1.8663)
(1.33723 -3.28917e-18 1.69044)
(0.729787 6.89927e-18 1.3683)
(10.0004 -9.49524e-21 0.0541076)
(9.97475 0 0.105609)
(9.92738 -1.63652e-23 0.154358)
(9.86284 0 0.202921)
(9.78109 -4.85036e-20 0.252872)
(9.68191 4.43618e-20 0.304954)
(9.56548 4.91347e-20 0.359894)
(9.43192 -1.43475e-19 0.418449)
(9.28119 1.9501e-19 0.481302)
(9.11308 -9.58468e-20 0.549126)
(8.92732 0 0.622655)
(8.7235 -2.77154e-20 0.70266)
(8.50104 0 0.789878)
(8.25935 0 0.884985)
(7.9978 0 0.988642)
(7.71575 0 1.10145)
(7.41253 0 1.22381)
(7.08722 -7.01402e-20 1.35575)
(6.73888 5.89867e-19 1.49689)
(6.36658 -4.53629e-19 1.64624)
(5.96911 0 1.80182)
(5.54504 -1.64778e-19 1.96031)
(5.09255 0 2.11662)
(4.60937 -1.07208e-18 2.26343)
(4.09249 -1.95596e-19 2.39066)
(3.53749 2.85272e-18 2.48486)
(2.93723 -1.76152e-18 2.52932)
(2.28666 2.01444e-19 2.50369)
(1.5353 3.22804e-18 2.39724)
(0.827352 -3.49317e-18 2.1616)
(10 0 0.0615037)
(9.97385 1.94457e-20 0.122037)
(9.92679 -1.00514e-20 0.180658)
(9.8637 3.12235e-20 0.239165)
(9.78413 -3.74037e-20 0.299209)
(9.68763 3.8956e-20 0.361788)
(9.57433 -4.57448e-20 0.427769)
(9.44448 1.48321e-21 0.497973)
(9.29813 3.07414e-21 0.573137)
(9.13514 6.37527e-21 0.654032)
(8.9553 0 0.741526)
(8.75821 2.35235e-19 0.836521)
(8.54344 -2.55959e-19 0.939871)
(8.3105 0 1.05235)
(8.05883 0 1.17472)
(7.78796 0 1.30768)
(7.49733 0 1.45179)
(7.18619 6.96292e-20 1.60728)
(6.85366 0 1.77395)
(6.4987 -6.28487e-22 1.95102)
(6.11986 -1.17523e-18 2.1368)
(5.71515 -2.34318e-18 2.32835)
(5.28176 1.50003e-18 2.521)
(4.81579 -1.77692e-21 2.70793)
(4.312 1.80477e-19 2.87975)
(3.76332 -1.84624e-19 3.02416)
(3.15955 1.92587e-19 3.12601)
(2.49578 -1.98439e-19 3.16687)
(1.72214 3.35707e-18 3.13746)
(0.935769 -3.20251e-18 2.99022)
(9.99993 0 0.0691734)
(9.97373 5.9684e-24 0.138356)
(9.92739 -1.9999e-20 0.206359)
(9.86605 5.17943e-20 0.274461)
(9.78902 -7.47925e-20 0.344265)
(9.69558 6.05904e-20 0.416966)
(9.58589 -8.56151e-21 0.493568)
(9.46037 -1.48026e-21 0.574938)
(9.31915 -4.59517e-21 0.661876)
(9.16208 -1.26917e-20 0.755283)
(8.98893 -1.31313e-20 0.856166)
(8.79931 0 0.965532)
(8.59288 -2.27816e-19 1.08432)
(8.36922 2.63294e-19 1.21339)
(8.12785 0 1.35359)
(7.86834 -5.103e-19 1.50575)
(7.59008 5.8909e-19 1.67055)
(7.29234 -6.8035e-20 1.84845)
(6.97423 1.14141e-18 2.0395)
(6.6345 -1.24431e-18 2.24323)
(6.27141 -7.66458e-20 2.45844)
(5.88251 -1.58688e-18 2.68285)
(5.4642 -3.39916e-19 2.91259)
(5.01151 1.34572e-18 3.14184)
(4.51772 0 3.36244)
(3.97427 1.81781e-19 3.56334)
(3.36937 2.99298e-18 3.73049)
(2.69862 -3.06665e-18 3.84504)
(1.91753 -9.95047e-20 3.89262)
(1.06058 -2.09363e-19 3.82756)
(10 1.87965e-20 0.0768762)
(9.97415 1.93768e-20 0.154404)
(9.9289 -7.98553e-20 0.231319)
(9.8696 4.11262e-20 0.308603)
(9.79542 3.20135e-20 0.387808)
(9.70542 -5.4857e-20 0.47026)
(9.5999 1.8858e-23 0.557046)
(9.47943 9.44596e-20 0.649071)
(9.34406 -9.5477e-20 0.747243)
(9.19362 2.75557e-23 0.852609)
(9.02789 -1.96897e-19 0.966297)
(8.84654 4.33141e-19 1.08939)
(8.64931 -3.92875e-19 1.22288)
(8.43586 2.023e-19 1.36773)
(8.20574 -4.85279e-19 1.5249)
(7.9585 4.66416e-19 1.69535)
(7.69347 -5.86702e-19 1.87998)
(7.40981 6.02056e-19 2.07944)
(7.1065 1.1199e-18 2.29411)
(6.78201 -1.14715e-18 2.52395)
(6.43426 0 2.76836)
(6.06041 -1.08469e-18 3.02589)
(5.65625 1.48903e-19 3.29379)
(5.21596 1.1453e-18 3.56754)
(4.73181 0 3.84038)
(4.19419 -2.81192e-18 4.10253)
(3.59011 5.68981e-18 4.34051)
(2.91446 -2.97055e-18 4.53389)
(2.13161 0 4.65918)
(1.20377 -4.96908e-20 4.67249)
(10.0002 1.86791e-20 0.0844599)
(9.97496 0 0.170029)
(9.9311 1.99127e-20 0.255408)
(9.87415 -6.16113e-20 0.341447)
(9.8031 -4.26762e-20 0.429663)
(9.71696 -4.95904e-22 0.521435)
(9.61622 8.45544e-20 0.617886)
(9.50141 0 0.720007)
(9.37247 0 0.828853)
(9.22928 6.26983e-21 0.9456)
(9.07165 0 1.07146)
(8.89936 0 1.20755)
(8.71226 -1.4013e-20 1.35492)
(8.51008 0 1.51465)
(8.29237 0 1.68786)
(8.05859 2.67817e-22 1.8757)
(7.80807 0 2.07926)
(7.53984 -6.56137e-20 2.29949)
(7.2527 6.78121e-20 2.53716)
(6.94481 0 2.79271)
(6.61376 0 3.06623)
(6.25635 1.20661e-18 3.35731)
(5.86784 -1.3872e-18 3.66451)
(5.4417 -1.58049e-19 3.98483)
(4.96929 -2.6363e-18 4.31315)
(4.43986 2.69791e-18 4.64108)
(3.83889 8.79243e-20 4.95552)
(3.15842 4.42302e-20 5.2344)
(2.3738 0 5.44298)
(1.36873 4.89871e-20 5.53842)
(10.0005 -3.74352e-20 0.0918213)
(9.97606 3.83602e-20 0.185099)
(9.93386 0 0.278508)
(9.87952 2.04614e-20 0.372853)
(9.81191 -2.10425e-20 0.469635)
(9.7301 8.73165e-20 0.570218)
(9.63466 -6.71918e-20 0.675774)
(9.52595 0 0.787429)
(9.40394 1.92825e-19 0.906376)
(9.26858 1.59411e-21 1.03387)
(9.11974 -2.10873e-19 1.17117)
(8.95739 0 1.31944)
(8.78144 -4.68677e-19 1.47977)
(8.59157 4.23747e-19 1.6534)
(8.38738 0 1.84165)
(8.16831 3.04651e-20 2.04585)
(7.93366 6.23191e-20 2.26732)
(7.68245 7.44999e-22 2.50736)
(7.4133 -1.33485e-19 2.76719)
(7.12428 0 3.04791)
(6.81261 0 3.35033)
(6.47463 0 3.67513)
(6.10531 1.51309e-19 4.02247)
(5.69742 1.55565e-19 4.39117)
(5.24134 0 4.77815)
(4.72479 2.60323e-18 5.17687)
(4.13095 -5.33783e-18 5.57517)
(3.44609 2.69828e-18 5.95017)
(2.65697 -2.70811e-21 6.2551)
(1.56269 0 6.44724)
(10.0009 0 0.0988862)
(9.97737 -3.83263e-20 0.199508)
(9.93707 3.93729e-20 0.300506)
(9.88556 0 0.402681)
(9.82174 7.93603e-23 0.507519)
(9.7447 1.08421e-19 0.616369)
(9.6549 -8.91862e-20 0.730468)
(9.55269 1.15066e-20 0.851084)
(9.43811 -1.91305e-19 0.979511)
(9.31114 1.9463e-19 1.11705)
(9.17181 -1.94657e-19 1.26496)
(9.02031 2.15776e-19 1.42446)
(8.85644 1.36111e-20 1.59675)
(8.67984 2.812e-20 1.78325)
(8.49023 0 1.98546)
(8.28709 0 2.20486)
(8.06975 -6.18503e-20 2.44304)
(7.83726 1.08194e-18 2.70165)
(7.58819 -9.7423e-19 2.98243)
(7.32072 0 3.28724)
(7.03189 6.83349e-20 3.61779)
(6.71765 0 3.97592)
(6.37275 0 4.36354)
(5.98944 0 4.78173)
(5.55707 0 5.23012)
(5.06143 0 5.70517)
(4.4824 0 6.19711)
(3.79673 0 6.6846)
(3.00088 2.6601e-21 7.10981)
(1.79902 -1.06098e-20 7.4297)
(10.0012 -9.27497e-21 0.105598)
(9.97887 9.51941e-21 0.213164)
(9.94065 -8.94436e-24 0.321295)
(9.89222 -4.04098e-20 0.430793)
(9.83248 -6.27357e-20 0.543142)
(9.76052 4.28539e-20 0.659696)
(9.67667 -1.11253e-20 0.781769)
(9.58134 1.83759e-19 0.910732)
(9.47467 -3.78207e-19 1.04795)
(9.35665 3.94849e-19 1.19473)
(9.22757 -4.05898e-19 1.35235)
(9.08762 -2.16629e-19 1.52207)
(8.93651 -3.30191e-21 1.7053)
(8.77404 8.97575e-19 1.90357)
(8.60002 -4.53665e-19 2.11849)
(8.41403 -4.70818e-19 2.35176)
(8.21549 4.80942e-19 2.60521)
(8.00354 3.08035e-20 2.88085)
(7.7769 0 3.18094)
(7.53384 3.2394e-20 3.50806)
(7.27165 -1.17366e-18 3.86505)
(6.98635 3.62819e-21 4.25508)
(6.67249 -1.15069e-18 4.68185)
(6.3222 0 5.14919)
(5.92418 0 5.66042)
(5.46216 -3.61513e-20 6.21675)
(4.91205 0 6.81395)
(4.23691 9.28108e-21 7.43719)
(3.43782 0 8.02295)
(2.10298 2.59653e-18 8.53208)
(10.0017 0 0.111911)
(9.98051 0 0.22599)
(9.94455 -3.89954e-20 0.340775)
(9.89942 -4.01772e-20 0.457069)
(9.844 -6.2459e-20 0.576364)
(9.77734 1.28147e-19 0.700047)
(9.69974 0 0.829492)
(9.61166 -6.2095e-23 0.966138)
(9.51328 -1.88081e-19 1.11139)
(9.40477 1.83668e-19 1.26656)
(9.28653 -3.10211e-21 1.43292)
(9.15862 -4.12132e-19 1.61186)
(9.02088 4.21638e-19 1.80493)
(8.87329 -4.57535e-19 2.01374)
(8.71577 -3.00105e-21 2.24001)
(8.54806 4.59268e-19 2.48559)
(8.36973 0 2.75259)
(8.18013 -1.00396e-18 3.04335)
(7.97826 9.61322e-19 3.36059)
(7.7626 -6.35639e-20 3.70756)
(7.53106 -1.00656e-18 4.08821)
(7.2802 -1.05708e-18 4.50716)
(7.00489 -1.02331e-18 4.97001)
(6.69794 1.0913e-18 5.48367)
(6.34832 -2.19759e-18 6.0561)
(5.93878 2.26438e-18 6.69554)
(5.44205 0 7.40821)
(4.80481 -2.2421e-18 8.19575)
(4.02413 2.28648e-18 9.00656)
(2.52569 -3.4137e-20 9.83485)
(10.0021 -3.66672e-20 0.117788)
(9.98228 -1.8774e-20 0.237919)
(9.94872 1.95367e-20 0.35886)
(9.90706 4.01292e-20 0.481407)
(9.85615 -2.06717e-20 0.607074)
(9.79499 -1.06493e-19 0.737287)
(9.7239 6.5554e-20 0.873469)
(9.64336 1.69614e-19 1.01709)
(9.55364 1.00724e-21 1.16958)
(9.45509 7.09474e-21 1.33223)
(9.34806 1.03915e-20 1.50639)
(9.2326 2.0476e-19 1.69352)
(9.10878 -4.16268e-19 1.89525)
(8.97672 5.07197e-21 2.11325)
(8.83648 4.4213e-19 2.34933)
(8.688 -4.51255e-19 2.6055)
(8.53111 7.1961e-21 2.88403)
(8.36547 0 3.18759)
(8.19048 -9.40586e-19 3.51927)
(8.00512 2.97221e-20 3.88288)
(7.80805 1.0061e-18 4.28325)
(7.59688 -1.01551e-18 4.72635)
(7.36785 1.02637e-18 5.21965)
(7.11554 1.01964e-18 5.77302)
(6.83111 -2.08491e-18 6.39944)
(6.49956 1.05586e-18 7.11593)
(6.09536 0 7.94449)
(5.55378 0 8.91822)
(4.86426 -1.94135e-18 10.0429)
(3.17971 9.38926e-20 11.5012)
(10.0026 7.31221e-20 0.1232)
(9.98414 3.76314e-20 0.2489)
(9.9531 -3.85882e-20 0.375481)
(9.91506 0 0.503725)
(9.8688 -8.21493e-20 0.635169)
(9.81332 -2.13683e-20 0.771285)
(9.74892 1.08567e-19 0.913527)
(9.67617 1.79428e-19 1.06338)
(9.59543 -3.68519e-19 1.22226)
(9.5071 -9.5656e-22 1.39148)
(9.41153 1.88407e-19 1.57244)
(9.30889 -1.24749e-20 1.76666)
(9.19941 0 1.97579)
(9.08338 4.25547e-19 2.20154)
(8.96102 -4.32687e-19 2.44577)
(8.83253 -3.44818e-21 2.7106)
(8.69803 -3.62605e-21 2.99843)
(8.55759 0 3.31211)
(8.41114 7.32523e-21 3.65502)
(8.25841 0 4.03131)
(8.09898 -9.73459e-19 4.44639)
(7.93201 -1.97395e-18 4.90713)
(7.75601 9.88048e-19 5.42237)
(7.56876 1.5795e-20 6.00417)
(7.36642 0 6.66945)
(7.14191 -9.58357e-19 7.44297)
(6.88367 1.08581e-18 8.36277)
(6.54291 -8.75394e-19 9.50015)
(6.15619 8.9597e-19 10.9742)
(4.30239 -1.27013e-19 13.8892)
(0.0680008 -1.25473e-20 -0.0552086)
(0.219627 1.22889e-20 -0.0947235)
(0.396655 1.12944e-20 -0.092135)
(0.561245 -1.08711e-20 -0.07295)
(0.692753 0 -0.0502448)
(0.783648 0 -0.0291747)
(0.835301 5.38361e-22 -0.0117868)
(0.854082 0 0.00103467)
(0.848944 0 0.00904966)
(0.828845 0 0.0130174)
(0.801048 0 0.0140221)
(0.77095 0 0.0130595)
(0.742284 7.03874e-22 0.0110389)
(0.717091 -2.11038e-21 0.00878432)
(0.695643 0 0.00698108)
(0.676648 -6.01314e-22 0.00606399)
(0.657958 -5.58739e-22 0.0060655)
(0.637773 0 0.0065274)
(0.615875 0 0.00669519)
(0.594183 0 0.00585491)
(0.576373 1.93338e-22 0.00365755)
(0.566393 -3.63608e-22 0.000409945)
(0.566994 2.47401e-22 -0.003209)
(0.579286 -1.51168e-22 -0.00692342)
(0.603548 -6.53633e-23 -0.0110575)
(0.640366 0 -0.0157819)
(0.691206 -1.74285e-23 -0.0205099)
(0.756711 1.27941e-22 -0.0249317)
(0.836373 5.85484e-24 -0.0291176)
(0.94858 0 -0.0320611)
(0.0792349 4.72531e-20 -0.183201)
(0.234088 0 -0.240791)
(0.401937 -2.24246e-20 -0.227855)
(0.555107 4.24307e-20 -0.184052)
(0.679682 -3.89202e-20 -0.133256)
(0.771548 3.68693e-20 -0.0858907)
(0.83251 -3.50066e-20 -0.046274)
(0.867823 3.2314e-20 -0.0156226)
(0.881995 -8.09567e-21 0.00612888)
(0.8791 -7.29513e-21 0.0197349)
(0.865599 0 0.0265869)
(0.846235 1.57278e-21 0.0283109)
(0.824505 2.21387e-21 0.0266636)
(0.802533 -3.38416e-21 0.0234962)
(0.780927 3.87421e-21 0.0206389)
(0.758806 -6.69064e-22 0.0194915)
(0.734321 5.58571e-22 0.0204047)
(0.70592 5.17018e-22 0.0221818)
(0.673871 4.78264e-22 0.0226566)
(0.640867 8.51034e-22 0.0201158)
(0.611439 -1.23947e-21 0.0141973)
(0.589932 0 0.0061891)
(0.577724 3.25717e-22 -0.00170242)
(0.571517 1.42345e-22 -0.0082721)
(0.568661 0 -0.0141709)
(0.566228 -9.14769e-23 -0.0206179)
(0.56864 1.24833e-22 -0.0295249)
(0.586256 -1.5129e-22 -0.0424532)
(0.622793 6.21272e-24 -0.0586062)
(0.689581 -6.08835e-24 -0.0717934)
(0.0575766 1.03262e-19 -0.342359)
(0.214753 -4.87107e-20 -0.387654)
(0.361785 -4.45743e-20 -0.352788)
(0.487073 4.29924e-20 -0.283528)
(0.583905 3.8513e-20 -0.206745)
(0.652285 -3.87443e-20 -0.13576)
(0.695086 0 -0.0771176)
(0.717544 -1.37876e-20 -0.0320636)
(0.723579 1.74193e-20 0.000971014)
(0.716141 -1.78174e-21 0.0232813)
(0.699879 0 0.0358727)
(0.67757 -1.57864e-21 0.0407898)
(0.650853 -1.48016e-21 0.0404607)
(0.620726 5.39956e-21 0.037492)
(0.587575 -4.01162e-21 0.0347178)
(0.550748 -3.54369e-21 0.0345944)
(0.508537 2.2992e-21 0.0381591)
(0.458903 5.15794e-22 0.0442811)
(0.401813 -4.79581e-22 0.0497101)
(0.33931 1.73813e-21 0.0504958)
(0.274024 3.74619e-22 0.0444688)
(0.210445 -3.3364e-23 0.033002)
(0.157931 -1.01531e-21 0.019826)
(0.12684 3.0463e-22 0.00708346)
(0.116337 3.73819e-23 -0.00636169)
(0.121252 2.22121e-22 -0.0232595)
(0.137225 0 -0.0439737)
(0.163189 0 -0.0660607)
(0.190425 -1.53696e-22 -0.087083)
(0.210692 6.01526e-23 -0.105623)
(2.71463e-05 3.94328e-22 -0.501709)
(0.16371 0 -0.522575)
(0.28735 4.41526e-23 -0.454166)
(0.381506 4.12571e-20 -0.357024)
(0.446754 -4.07711e-20 -0.257029)
(0.487093 4.61298e-24 -0.167004)
(0.506262 -3.37369e-20 -0.0935116)
(0.507885 3.31123e-20 -0.0366064)
(0.48916 2.7911e-20 0.00567062)
(0.459901 -1.16946e-20 0.0344928)
(0.42384 1.31672e-20 0.0517028)
(0.381339 -1.29437e-20 0.0609051)
(0.329847 -2.95721e-21 0.0655625)
(0.26778 -1.25273e-21 0.0685444)
(0.19563 7.89753e-21 0.0718326)
(0.116343 0 0.0771497)
(0.0378513 4.35292e-21 0.0852692)
(-0.0322681 -4.27805e-21 0.0935579)
(-0.093456 0 0.0969597)
(-0.147974 -1.71303e-21 0.0917991)
(-0.194554 8.6848e-22 0.0774196)
(-0.230298 1.73358e-24 0.0559097)
(-0.252675 -3.4059e-23 0.0308368)
(-0.261934 -1.75075e-21 0.00608127)
(-0.260727 2.25061e-22 -0.0162806)
(-0.253789 -1.36439e-24 -0.0367667)
(-0.245976 1.78648e-22 -0.0563588)
(-0.239775 -4.53723e-22 -0.0752174)
(-0.238516 1.41482e-22 -0.0941285)
(-0.241752 -4.83082e-23 -0.112744)
(-0.075774 -1.00224e-19 -0.637342)
(0.0852482 9.73929e-20 -0.633037)
(0.176435 3.54147e-22 -0.525726)
(0.231039 0 -0.400207)
(0.257373 1.2399e-21 -0.279707)
(0.262056 3.481e-21 -0.173509)
(0.249096 -3.40176e-20 -0.0882186)
(0.204278 3.13558e-20 -0.012764)
(0.141949 -3.83818e-21 0.0441359)
(0.0758829 -1.80469e-21 0.0770277)
(0.00613191 1.44723e-20 0.0958922)
(-0.0656773 1.29871e-20 0.108549)
(-0.140149 2.9711e-21 0.117983)
(-0.21633 -1.35624e-20 0.124264)
(-0.292793 8.00021e-21 0.127776)
(-0.36485 -2.38489e-21 0.129841)
(-0.428905 4.31799e-21 0.131218)
(-0.482189 -9.26523e-21 0.130678)
(-0.524409 1.79989e-22 0.125452)
(-0.556382 -7.6464e-22 0.112733)
(-0.579262 3.26845e-21 0.0916878)
(-0.59457 2.18054e-21 0.0643731)
(-0.604163 -1.25595e-21 0.0348675)
(-0.609818 1.17199e-21 0.00733324)
(-0.6119 0 -0.0165252)
(-0.612489 -5.7949e-22 -0.0376009)
(-0.614774 6.57632e-22 -0.0567048)
(-0.620777 5.85021e-22 -0.0743699)
(-0.630811 0 -0.092682)
(-0.639836 0 -0.110466)
(-0.155687 -4.00339e-22 -0.735237)
(-0.0143958 0 -0.70157)
(0.0306629 -3.55608e-22 -0.550487)
(0.0326043 8.40477e-20 -0.394981)
(0.00744222 -1.62208e-19 -0.252878)
(-0.0432892 7.24109e-20 -0.116621)
(-0.138885 0 -0.0105333)
(-0.222449 0 0.0595554)
(-0.292762 3.85403e-21 0.103237)
(-0.365678 -3.60623e-21 0.131272)
(-0.43908 0 0.149606)
(-0.511129 0 0.161794)
(-0.580437 8.55034e-21 0.169225)
(-0.646013 -2.19514e-20 0.172134)
(-0.707224 1.0486e-20 0.171165)
(-0.76243 4.73728e-21 0.167569)
(-0.809722 -4.2757e-21 0.162145)
(-0.847656 4.19481e-21 0.154223)
(-0.876044 -1.76464e-21 0.141891)
(-0.896162 5.26878e-21 0.12326)
(-0.910338 -3.24731e-21 0.0980909)
(-0.921025 -1.50424e-21 0.0684253)
(-0.929882 5.46003e-22 0.0376788)
(-0.9375 -5.95909e-22 0.00915781)
(-0.943062 -9.45816e-22 -0.015379)
(-0.94867 -1.12601e-21 -0.0359958)
(-0.957518 -2.70518e-22 -0.0535347)
(-0.97135 0 -0.0695501)
(-0.988207 -2.46688e-22 -0.0868406)
(-0.999752 0 -0.103289)
(-0.232618 8.45731e-22 -0.779658)
(-0.130156 -9.97176e-20 -0.703405)
(-0.146857 1.87631e-19 -0.500889)
(-0.213532 -8.9924e-20 -0.312782)
(-0.311704 0 -0.151097)
(-0.428902 4.8182e-21 -0.0226009)
(-0.524958 0 0.0626687)
(-0.604176 3.6679e-20 0.118717)
(-0.680573 -2.79311e-20 0.157773)
(-0.752851 3.17989e-20 0.183716)
(-0.821166 1.35209e-21 0.199461)
(-0.884911 2.57327e-20 0.208005)
(-0.943401 2.62947e-23 0.211075)
(-0.996645 0 0.209463)
(-1.04488 0 0.203954)
(-1.08786 -6.91416e-21 0.195552)
(-1.12484 4.47115e-21 0.184865)
(-1.15508 0 0.171442)
(-1.17862 0 0.154028)
(-1.19657 1.65687e-21 0.131513)
(-1.21076 -3.18283e-21 0.104012)
(-1.22285 2.0834e-23 0.0732111)
(-1.23379 0 0.0418021)
(-1.24398 0 0.0127769)
(-1.25298 9.43752e-22 -0.0117353)
(-1.26301 1.1158e-21 -0.0313407)
(-1.27745 2.46421e-22 -0.0470785)
(-1.29776 -4.86811e-22 -0.061302)
(-1.32004 3.07161e-22 -0.0772927)
(-1.33332 1.96904e-23 -0.0923507)
(-0.301927 -8.47223e-22 -0.748456)
(-0.258383 -1.00462e-19 -0.615199)
(-0.344694 1.95302e-19 -0.383408)
(-0.477332 -9.51005e-20 -0.187222)
(-0.620262 8.30416e-20 -0.0349178)
(-0.738966 -1.60444e-19 0.0686709)
(-0.835157 7.50748e-20 0.136578)
(-0.923244 -8.42077e-21 0.183301)
(-1.00182 -3.42688e-20 0.214755)
(-1.07184 5.78882e-20 0.234125)
(-1.13459 2.75711e-20 0.2442)
(-1.19082 -2.73635e-20 0.247487)
(-1.24115 1.82794e-20 0.245681)
(-1.28652 2.14935e-20 0.239788)
(-1.32773 -1.02464e-20 0.23055)
(-1.3651 2.28994e-21 0.218618)
(-1.39834 -2.12082e-21 0.204265)
(-1.42703 3.84766e-21 0.18707)
(-1.45113 -3.77438e-21 0.166156)
(-1.47134 -1.66813e-21 0.140869)
(-1.48873 2.8523e-23 0.111535)
(-1.50429 1.40523e-21 0.0797071)
(-1.51872 0 0.0477413)
(-1.53258 5.66233e-22 0.0183202)
(-1.54593 4.9503e-22 -0.00604)
(-1.55986 -7.37939e-22 -0.0243656)
(-1.5791 -1.14491e-21 -0.0379351)
(-1.60497 4.03755e-22 -0.0500832)
(-1.63197 0 -0.0645676)
(-1.64671 0 -0.0783953)
(-0.367258 1.14576e-19 -0.633298)
(-0.384234 -1.11395e-19 -0.45694)
(-0.528322 1.00246e-19 -0.216839)
(-0.708091 -9.68221e-20 -0.0295346)
(-0.86031 0 0.0904175)
(-0.98534 -5.09794e-21 0.167234)
(-1.09441 -4.65348e-21 0.218608)
(-1.18783 4.24434e-21 0.251895)
(-1.26731 -3.04242e-20 0.27195)
(-1.33545 3.33451e-20 0.282163)
(-1.39459 3.31117e-21 0.285119)
(-1.44651 2.71137e-20 0.282759)
(-1.49286 -2.63773e-20 0.276439)
(-1.53503 -2.62014e-21 0.267016)
(-1.57404 0 0.254967)
(-1.61037 -4.42979e-23 0.240512)
(-1.6439 2.11955e-21 0.223548)
(-1.67426 5.69113e-21 0.203585)
(-1.70132 -1.92734e-21 0.180018)
(-1.7254 -1.5194e-21 0.152536)
(-1.74716 6.13589e-21 0.121594)
(-1.76725 0 0.0886567)
(-1.78616 0 0.0560099)
(-1.80446 -1.068e-21 0.0262801)
(-1.82268 -4.09191e-22 0.00206808)
(-1.8413 1.85659e-21 -0.0150477)
(-1.86511 5.62304e-22 -0.0262977)
(-1.89611 0 -0.0360772)
(-1.92745 0 -0.0488244)
(-1.94354 1.23479e-22 -0.0615725)
(-0.42689 -1.29474e-21 -0.443487)
(-0.496795 -1.18941e-19 -0.236624)
(-0.691098 2.07236e-22 0.00445779)
(-0.889056 3.16829e-21 0.141659)
(-1.05703 9.35248e-20 0.224221)
(-1.19853 -8.59012e-20 0.275836)
(-1.31604 7.72881e-20 0.306223)
(-1.41268 -6.66946e-20 0.32226)
(-1.49232 3.88377e-21 0.328795)
(-1.5592 -3.60344e-21 0.328857)
(-1.6166 -3.32064e-21 0.32433)
(-1.66691 2.36615e-20 0.316491)
(-1.71223 -1.49915e-20 0.306197)
(-1.7541 -1.06386e-20 0.293898)
(-1.7936 2.37161e-21 0.279652)
(-1.83127 6.38923e-21 0.263254)
(-1.86707 -8.45852e-21 0.244277)
(-1.90072 -1.91824e-21 0.222177)
(-1.93202 -1.76946e-21 0.196498)
(-1.96105 -1.51987e-21 0.167157)
(-1.98818 1.55804e-21 0.134747)
(-2.01392 -1.30611e-21 0.100734)
(-2.03867 0 0.0673978)
(-2.06273 0 0.0373887)
(-2.08661 0 0.0132594)
(-2.11147 6.8016e-22 -0.00311785)
(-2.13955 1.27074e-21 -0.0125394)
(-2.17403 -2.86556e-22 -0.0197276)
(-2.20875 6.63325e-23 -0.0302146)
(-2.22615 -1.28909e-23 -0.0418343)
(-0.47865 -5.4742e-22 -0.174858)
(-0.599148 -1.20502e-19 0.0917933)
(-0.818184 8.06698e-21 0.241344)
(-1.04909 5.1791e-21 0.326863)
(-1.23897 1.80739e-19 0.37161)
(-1.39158 -8.21379e-20 0.391629)
(-1.51331 0 0.396552)
(-1.61038 -3.29902e-20 0.392863)
(-1.68881 5.44226e-20 0.384922)
(-1.75418 -2.92963e-20 0.374804)
(-1.81057 0 0.363156)
(-1.86055 1.15965e-20 0.350255)
(-1.90612 -1.12661e-20 0.336378)
(-1.94886 2.56841e-21 0.321614)
(-1.98997 -6.50925e-23 0.305645)
(-2.03008 8.40389e-21 0.287815)
(-2.06924 -2.39072e-21 0.267371)
(-2.1072 -1.98788e-21 0.243663)
(-2.14369 0 0.216321)
(-2.17862 -1.58024e-21 0.185424)
(-2.21211 0 0.151697)
(-2.24444 1.26783e-21 0.11664)
(-2.27594 -3.34728e-23 0.0825301)
(-2.30668 3.03298e-21 0.0520847)
(-2.33691 3.87625e-22 0.0278853)
(-2.36829 -1.77479e-21 0.0117799)
(-2.40372 -1.04581e-21 0.0034579)
(-2.44437 0 -0.00144195)
(-2.48189 0 -0.00920078)
(-2.49924 -1.10803e-22 -0.019061)
(-0.492799 -3.79114e-21 0.275017)
(-0.661291 -1.35854e-19 0.429544)
(-0.950078 -1.13208e-19 0.507891)
(-1.21595 1.0318e-20 0.532197)
(-1.41953 9.86135e-20 0.527112)
(-1.57517 3.99251e-20 0.509431)
(-1.69511 -3.15519e-21 0.486006)
(-1.78837 -3.50797e-20 0.461487)
(-1.86288 2.94991e-20 0.439229)
(-1.92537 -5.89063e-20 0.419773)
(-1.98028 -5.0764e-20 0.401831)
(-2.02986 2.40049e-20 0.384401)
(-2.07571 2.71455e-21 0.367382)
(-2.11944 -1.20082e-20 0.350654)
(-2.16246 1.81296e-20 0.33353)
(-2.20555 -8.64139e-21 0.314867)
(-2.24879 -6.98217e-23 0.293533)
(-2.29185 -1.80834e-21 0.26874)
(-2.33438 0 0.240167)
(-2.37614 -2.89479e-21 0.208018)
(-2.41703 5.51751e-21 0.173128)
(-2.45711 7.7575e-23 0.137066)
(-2.4965 -2.1341e-21 0.102143)
(-2.53509 9.65212e-22 0.0711645)
(-2.57282 3.76894e-22 0.0468596)
(-2.61129 9.53496e-22 0.0310632)
(-2.65394 0 0.0235271)
(-2.70228 0 0.0204696)
(-2.74704 0 0.0158009)
(-2.7681 8.60891e-23 0.00855694)
(-0.501479 0 0.773993)
(-0.750245 8.59824e-21 0.833953)
(-1.12351 1.13996e-19 0.809033)
(-1.40856 -1.11844e-19 0.7474)
(-1.60882 5.6026e-21 0.680329)
(-1.75472 0 0.621914)
(-1.86445 -3.91414e-20 0.569747)
(-1.94787 2.97602e-20 0.524746)
(-2.01412 7.33822e-21 0.489583)
(-2.0712 1.32665e-22 0.462725)
(-2.12333 0 0.439938)
(-2.17164 8.17312e-21 0.41875)
(-2.21694 -1.32105e-20 0.399067)
(-2.26095 -9.16871e-21 0.380996)
(-2.30548 6.81764e-21 0.363516)
(-2.3515 0 0.344819)
(-2.39897 -1.8922e-21 0.323286)
(-2.44737 0 0.29798)
(-2.49617 -2.40863e-23 0.268648)
(-2.54504 -2.96887e-21 0.235615)
(-2.59371 -1.41578e-21 0.19979)
(-2.64199 1.08098e-21 0.162769)
(-2.68961 0 0.12688)
(-2.73607 -2.33892e-21 0.0950084)
(-2.78085 -7.81101e-22 0.0700484)
(-2.82507 -1.39449e-21 0.0539988)
(-2.87235 -1.83234e-22 0.0468603)
(-2.92488 -7.37251e-22 0.0454163)
(-2.97316 5.31413e-23 0.0437588)
(-2.99555 -8.60972e-23 0.0392665)
(-0.568391 -1.57668e-19 1.4155)
(-0.931137 1.33611e-19 1.3195)
(-1.37137 -1.09861e-19 1.13957)
(-1.64261 6.02275e-20 0.954971)
(-1.81064 4.08195e-20 0.812365)
(-1.92784 0 0.718289)
(-2.0173 4.40257e-21 0.641682)
(-2.08327 0 0.577935)
(-2.13498 -1.83683e-22 0.532642)
(-2.18294 1.5932e-22 0.502063)
(-2.23054 0 0.476784)
(-2.27611 1.22694e-22 0.452619)
(-2.31896 1.22069e-20 0.430646)
(-2.36121 -4.86774e-21 0.412027)
(-2.40554 6.10774e-21 0.395316)
(-2.45311 -6.10071e-21 0.37762)
(-2.5035 0 0.356653)
(-2.55574 -3.1577e-21 0.331377)
(-2.60909 1.73745e-22 0.301708)
(-2.66312 4.13565e-21 0.268126)
(-2.71756 1.12616e-21 0.23156)
(-2.77199 -1.23161e-21 0.193548)
(-2.82585 -3.04636e-21 0.156403)
(-2.87832 -4.22809e-22 0.12312)
(-2.92859 3.87921e-21 0.0968006)
(-2.97737 -3.50612e-22 0.0797551)
(-3.02825 0 0.0725489)
(-3.08406 5.85538e-22 0.0728042)
(-3.13546 9.83503e-24 0.074719)
(-3.15968 5.8541e-23 0.0735952)
(-0.700765 2.99721e-19 2.30059)
(-1.22133 -6.41276e-20 1.91636)
(-1.72637 -5.42199e-21 1.4895)
(-1.93427 5.06158e-21 1.10389)
(-2.01833 0 0.88303)
(-2.07778 -3.37233e-20 0.788935)
(-2.14003 6.35348e-20 0.700185)
(-2.18155 -2.64115e-20 0.61623)
(-2.21005 -6.63127e-21 0.563109)
(-2.24417 -5.7238e-21 0.53554)
(-2.28595 -6.57993e-22 0.511275)
(-2.32704 -1.04511e-20 0.484405)
(-2.36406 -2.32023e-21 0.459898)
(-2.40064 -1.01562e-22 0.441603)
(-2.4414 -1.8345e-21 0.427189)
(-2.48763 5.47918e-21 0.411696)
(-2.53796 -3.48089e-21 0.391937)
(-2.59065 3.15864e-21 0.367005)
(-2.64473 0 0.337246)
(-2.69997 2.48224e-21 0.303411)
(-2.75634 -1.45372e-22 0.266424)
(-2.81358 0 0.227673)
(-2.87107 1.02138e-21 0.189396)
(-2.92786 -9.0771e-22 0.154686)
(-2.98287 -3.02386e-21 0.126824)
(-3.03625 0 0.108377)
(-3.09113 -9.55419e-22 0.100551)
(-3.1507 0 0.10208)
(-3.20598 2.33145e-22 0.107424)
(-3.23263 -6.36899e-23 0.109434)
(10.0031 -8.74391e-20 0.128209)
(9.98613 1.8147e-20 0.259067)
(9.95776 3.70807e-20 0.390864)
(9.92355 0 0.524354)
(9.88218 -3.94817e-20 0.6611)
(9.83266 1.81873e-19 0.802609)
(9.77533 -1.87022e-19 0.950353)
(9.71079 8.53659e-20 1.10581)
(9.63951 0 1.27038)
(9.56192 0 1.44541)
(9.47841 -1.97843e-19 1.6323)
(9.3893 1.9056e-19 1.83262)
(9.29499 0 2.04799)
(9.19592 1.24764e-20 2.28014)
(9.09253 0 2.53095)
(8.98529 3.30769e-21 2.80255)
(8.8747 -3.37976e-21 3.09742)
(8.76127 0 3.41844)
(8.64559 -2.07898e-20 3.76909)
(8.52827 0 4.15365)
(8.41012 -9.08888e-19 4.57766)
(8.29216 -9.21799e-19 5.04821)
(8.1758 9.12843e-19 5.57444)
(8.06325 -9.24216e-19 6.16893)
(7.95829 7.78277e-19 6.84947)
(7.86784 -8.9883e-19 7.64251)
(7.81135 -1.09536e-19 8.58947)
(7.8199 3.58934e-19 9.76451)
(8.45226 -3.63319e-19 11.2317)
(8.82201 -1.94697e-19 14.0619)
(10.0037 6.82092e-20 0.132822)
(9.98823 6.99969e-20 0.268417)
(9.96268 3.6125e-20 0.404984)
(9.93246 -2.22202e-22 0.543243)
(9.89619 7.61826e-20 0.684763)
(9.85286 -7.82337e-20 0.831084)
(9.80284 4.02776e-20 0.983681)
(9.74679 0 1.14401)
(9.68526 -1.70523e-19 1.31347)
(9.61873 -6.35648e-22 1.49341)
(9.54765 1.90405e-19 1.68524)
(9.47249 1.15609e-20 1.89048)
(9.3938 0 2.11074)
(9.31219 -1.21416e-20 2.3477)
(9.22836 0 2.60323)
(9.14304 4.03319e-19 2.87941)
(9.05712 -4.10772e-19 3.17865)
(8.9716 4.17438e-19 3.50373)
(8.88773 1.20019e-20 3.85801)
(8.80706 -4.29764e-19 4.24557)
(8.73166 -5.33693e-20 4.67157)
(8.66441 0 5.14245)
(8.60951 5.32748e-20 5.66637)
(8.57341 1.05348e-19 6.25403)
(8.5668 4.42268e-21 6.91957)
(8.60836 0 7.68158)
(8.73728 0 8.56286)
(8.96414 0 9.59145)
(9.60773 0 10.7188)
(10.149 6.56128e-20 11.9338)
(10.0042 -6.58951e-20 0.136957)
(9.99041 0 0.276794)
(9.96779 0 0.417627)
(9.94174 1.99148e-22 0.56013)
(9.91074 7.41656e-20 0.705872)
(9.87379 -1.1369e-19 0.856395)
(9.8313 -1.95736e-20 1.01318)
(9.78399 1.99668e-20 1.17764)
(9.73246 -1.64864e-19 1.35117)
(9.67724 3.37856e-19 1.53509)
(9.61887 -1.72981e-19 1.7308)
(9.55795 0 1.93976)
(9.49517 0 2.1635)
(9.43135 3.71645e-19 2.40365)
(9.36737 -3.78997e-19 2.66196)
(9.30428 2.39757e-20 2.94041)
(9.2433 -2.43732e-20 3.24121)
(9.18593 -3.98312e-19 3.56692)
(9.13401 2.17175e-21 3.92054)
(9.08989 4.59521e-19 4.30563)
(9.05672 4.59052e-19 4.72647)
(9.03882 4.12921e-19 5.1882)