/*--------------------------------*- C++ -*----------------------------------*\
| =========                 |                                                 |
| \\      /  F ield         | OpenFOAM: The Open Source CFD Toolbox           |
|  \\    /   O peration     | Version:  dev                                   |
|   \\  /    A nd           | Web:      www.OpenFOAM.org                      |
|    \\/     M anipulation  |                                                 |
\*---------------------------------------------------------------------------*/
FoamFile
{
    version     2.0;
    format      ascii;
    class       volScalarField;
    location    "3.59";
    object      p;
}
// * * * * * * * * * * * * * * * * * * * * * * * * * * * * * * * * * * * * * //

dimensions      [0 2 -2 0 0 0 0];

internalField   nonuniform List<scalar> 
2790
(
145.336
145.271
145.573
146.159
146.941
147.897
149.028
150.331
151.798
153.424
155.202
157.125
159.184
161.365
163.655
166.032
168.471
170.94
173.399
175.801
178.095
180.22
182.118
183.732
185.015
185.941
186.513
186.723
186.8
186.937
145.145
145.179
145.505
146.089
146.868
147.821
148.948
150.244
151.705
153.323
155.092
157.005
159.053
161.224
163.503
165.87
168.301
170.764
173.222
175.628
177.931
180.073
181.994
183.636
184.95
185.902
186.478
186.688
186.844
187.056
144.947
145.053
145.398
145.973
146.738
147.679
148.791
150.069
151.508
153.102
154.844
156.727
158.741
160.876
163.116
165.442
167.832
170.255
172.677
175.055
177.341
179.482
181.422
183.106
184.489
185.541
186.263
186.705
187.045
187.388
144.726
144.864
145.222
145.787
146.538
147.462
148.555
149.809
151.22
152.782
154.486
156.327
158.294
160.376
162.558
164.824
167.15
169.51
171.872
174.197
176.444
178.566
180.515
182.245
183.719
184.919
185.858
186.582
187.164
187.71
144.47
144.624
144.99
145.547
146.281
147.185
148.252
149.476
150.851
152.37
154.026
155.813
157.719
159.734
161.844
164.032
166.276
168.554
170.835
173.089
175.278
177.364
179.311
181.082
182.652
184.01
185.164
186.139
186.939
187.664
144.175
144.336
144.704
145.252
145.966
146.844
147.88
149.067
150.398
151.866
153.466
155.187
157.021
158.957
160.981
163.075
165.223
167.4
169.584
171.745
173.856
175.887
177.81
179.601
181.244
182.73
184.059
185.232
186.192
187.04
143.84
144.002
144.368
144.903
145.594
146.442
147.442
148.585
149.866
151.277
152.81
154.457
156.208
158.052
159.976
161.964
163.998
166.059
168.125
170.174
172.183
174.13
175.997
177.77
179.439
181
182.444
183.754
184.824
185.769
143.464
143.625
143.984
144.502
145.168
145.982
146.94
148.035
149.259
150.604
152.062
153.626
155.284
157.025
158.837
160.703
162.609
164.535
166.463
168.375
170.252
172.08
173.848
175.549
177.182
178.746
180.231
181.613
182.755
183.794
143.048
143.205
143.555
144.053
144.69
145.466
146.379
147.42
148.581
149.853
151.229
152.7
154.255
155.883
157.57
159.301
161.061
162.834
164.601
166.347
168.058
169.722
171.334
172.895
174.41
175.886
177.319
178.695
179.862
180.998
142.592
142.745
143.082
143.558
144.163
144.898
145.762
146.743
147.835
149.029
150.316
151.687
153.13
154.633
156.183
157.766
159.364
160.962
162.543
164.092
165.596
167.044
168.434
169.769
171.06
172.326
173.578
174.834
175.948
177.178
142.098
142.245
142.568
143.019
143.589
144.281
145.091
146.009
147.028
148.137
149.329
150.591
151.914
153.284
154.686
156.106
157.527
158.93
160.3
161.618
162.869
164.043
165.132
166.137
167.072
167.963
168.845
169.788
170.697
171.987
141.569
141.709
142.015
142.44
142.973
143.618
144.371
145.223
146.163
147.184
148.274
149.423
150.618
151.845
153.09
154.335
155.562
156.752
157.884
158.938
159.892
160.728
161.43
161.988
162.402
162.695
162.918
163.211
163.584
164.792
141.005
141.138
141.426
141.822
142.316
142.912
143.606
144.387
145.247
146.174
147.158
148.188
149.249
150.328
151.406
152.466
153.486
154.445
155.318
156.076
156.69
157.129
157.358
157.341
157.047
156.459
155.597
154.633
153.728
154.332
140.41
140.535
140.805
141.17
141.623
142.168
142.8
143.509
144.284
145.115
145.99
146.896
147.819
148.742
149.648
150.514
151.318
152.032
152.626
153.065
153.305
153.297
152.978
152.271
151.08
149.288
146.773
143.541
139.67
137.774
139.786
139.903
140.152
140.486
140.897
141.389
141.958
142.592
143.281
144.012
144.775
145.555
146.336
147.101
147.829
148.496
149.076
149.538
149.842
149.946
149.79
149.305
148.392
146.919
144.694
141.431
136.675
129.772
119.368
107.082
0.57174
0.527859
0.423917
0.27773
0.120429
-0.0254351
-0.149539
-0.249578
-0.327338
-0.386741
-0.432405
-0.468082
-0.496429
-0.519238
-0.537498
-0.551405
-0.560482
-0.563809
-0.560282
-0.548972
-0.529473
-0.501832
-0.466091
-0.422166
-0.369685
-0.308429
-0.239589
-0.166037
-0.0919898
-0.0217213
0.525798
0.474118
0.37097
0.229934
0.0799278
-0.0584532
-0.17593
-0.270328
-0.342996
-0.397967
-0.44028
-0.47356
-0.500245
-0.522006
-0.539758
-0.553587
-0.562859
-0.566456
-0.563059
-0.551647
-0.531892
-0.504063
-0.468346
-0.424552
-0.372034
-0.31033
-0.240689
-0.166205
-0.0916339
-0.0230217
0.464784
0.40251
0.300951
0.166004
0.0249951
-0.103843
-0.212578
-0.299478
-0.366022
-0.415908
-0.453804
-0.483446
-0.507323
-0.527176
-0.543986
-0.557774
-0.567649
-0.57205
-0.569097
-0.557446
-0.536984
-0.508533
-0.472894
-0.429642
-0.377263
-0.315014
-0.244568
-0.169269
-0.0938836
-0.0257113
0.40645
0.333653
0.233313
0.103552
-0.0292193
-0.149274
-0.250021
-0.32999
-0.390633
-0.435961
-0.469998
-0.496196
-0.517449
-0.53562
-0.55168
-0.565461
-0.575776
-0.58086
-0.578571
-0.567423
-0.547365
-0.519339
-0.484033
-0.440822
-0.38822
-0.325387
-0.253646
-0.176549
-0.099557
-0.0303228
0.374252
0.293221
0.193541
0.067604
-0.0595616
-0.174253
-0.270983
-0.348198
-0.406507
-0.449741
-0.482551
-0.507779
-0.528488
-0.546558
-0.563265
-0.578225
-0.589549
-0.595365
-0.59366
-0.583228
-0.5641
-0.536975
-0.502137
-0.458689
-0.405234
-0.341433
-0.268215
-0.189018
-0.11006
-0.0364973
0.39325
0.306201
0.205622
0.0806298
-0.0454457
-0.161197
-0.260016
-0.340045
-0.404719
-0.45445
-0.489951
-0.517641
-0.540651
-0.560823
-0.579157
-0.595311
-0.607779
-0.614756
-0.614465
-0.60578
-0.588451
-0.562656
-0.528205
-0.484061
-0.429062
-0.363393
-0.288374
-0.207383
-0.125715
-0.0434227
0.484828
0.390583
0.283614
0.150779
0.0157458
-0.110295
-0.220114
-0.313364
-0.389777
-0.448081
-0.491896
-0.526034
-0.55394
-0.577837
-0.598906
-0.617143
-0.631523
-0.64051
-0.642489
-0.636225
-0.621046
-0.596562
-0.562167
-0.5168
-0.459547
-0.390984
-0.313816
-0.231423
-0.145621
-0.0509672
0.653329
0.544139
0.417894
0.264642
0.108465
-0.0378044
-0.16789
-0.278972
-0.368844
-0.438825
-0.492865
-0.535255
-0.569597
-0.598461
-0.623333
-0.644601
-0.66169
-0.67339
-0.678203
-0.67472
-0.661803
-0.638499
-0.603814
-0.556671
-0.496473
-0.424381
-0.34418
-0.260104
-0.169003
-0.0591301
0.87692
0.740957
0.580017
0.394014
0.208333
0.0351439
-0.117763
-0.246189
-0.350391
-0.432775
-0.497273
-0.548251
-0.589538
-0.623971
-0.653299
-0.67825
-0.698652
-0.713602
-0.72168
-0.72124
-0.710649
-0.688406
-0.653136
-0.603688
-0.539762
-0.463349
-0.379605
-0.292731
-0.194702
-0.0678578
1.11732
0.945009
0.739833
0.515001
0.294022
0.0937258
-0.0797588
-0.224671
-0.342228
-0.435596
-0.5092
-0.567824
-0.615627
-0.655607
-0.689614
-0.71858
-0.742655
-0.761219
-0.772896
-0.775752
-0.76762
-0.746417
-0.710356
-0.658138
-0.589705
-0.50797
-0.419599
-0.328715
-0.222184
-0.0768003
1.34322
1.13617
0.876002
0.605424
0.350366
0.124565
-0.0665912
-0.224179
-0.351389
-0.452343
-0.532159
-0.596333
-0.649449
-0.694478
-0.733058
-0.766083
-0.793948
-0.816337
-0.831919
-0.838413
-0.833012
-0.812949
-0.775921
-0.720408
-0.646553
-0.558228
-0.463675
-0.367033
-0.250484
-0.0861505
1.56922
1.28576
0.961054
0.639794
0.352392
0.109143
-0.0906155
-0.253057
-0.383762
-0.48718
-0.568889
-0.635463
-0.692107
-0.74143
-0.784302
-0.821195
-0.852709
-0.878975
-0.898795
-0.909456
-0.907317
-0.888703
-0.850629
-0.791259
-0.710929
-0.614488
-0.511767
-0.407117
-0.278923
-0.0955679
1.75174
1.32902
0.928955
0.573223
0.272487
0.029825
-0.162096
-0.317321
-0.443587
-0.543194
-0.621151
-0.685949
-0.744022
-0.797017
-0.844023
-0.884471
-0.919214
-0.949247
-0.973737
-0.989409
-0.991423
-0.974807
-0.93562
-0.871613
-0.783334
-0.676643
-0.56303
-0.44755
-0.306194
-0.104696
1.73447
1.12398
0.690822
0.359552
0.0850377
-0.127999
-0.286583
-0.41821
-0.532358
-0.622144
-0.689386
-0.746969
-0.804422
-0.861206
-0.912721
-0.956318
-0.993386
-1.02675
-1.05645
-1.07841
-1.08595
-1.0722
-1.03188
-0.962275
-0.864243
-0.74467
-0.616812
-0.487272
-0.331395
-0.11317
1.31057
0.401598
0.0914784
-0.0403487
-0.216993
-0.368404
-0.460554
-0.548174
-0.648096
-0.725161
-0.77271
-0.815237
-0.870623
-0.933075
-0.990635
-1.03691
-1.0746
-1.11036
-1.14607
-1.17629
-1.19147
-1.18186
-1.14042
-1.06399
-0.95399
-0.818389
-0.672342
-0.525218
-0.353824
-0.120615
139.122
139.23
139.459
139.76
140.127
140.564
141.067
141.624
142.223
142.853
143.5
144.149
144.785
145.386
145.931
146.394
146.743
146.944
146.951
146.709
146.147
145.171
143.65
141.393
138.106
133.301
126.073
114.56
92.7251
32.826
138.411
138.511
138.717
138.984
139.304
139.684
140.119
140.595
141.101
141.625
142.153
142.668
143.153
143.586
143.944
144.197
144.312
144.248
143.954
143.366
142.403
140.952
138.857
135.891
131.703
125.716
116.903
103.551
84.322
56.5175
137.659
137.749
137.933
138.163
138.436
138.757
139.121
139.515
139.926
140.342
140.747
141.126
141.458
141.722
141.891
141.935
141.816
141.491
140.904
139.987
138.649
136.773
134.195
130.69
125.937
119.487
110.756
99.1284
85.1953
69.0394
136.867
136.947
137.107
137.301
137.525
137.786
138.077
138.387
138.702
139.009
139.291
139.533
139.713
139.808
139.79
139.628
139.283
138.708
137.847
136.628
134.961
132.731
129.789
125.94
120.941
114.505
106.339
96.1228
83.7822
68.8517
136.036
136.106
136.242
136.398
136.573
136.773
136.992
137.217
137.435
137.632
137.792
137.898
137.927
137.857
137.659
137.299
136.74
135.933
134.823
133.339
131.399
128.896
125.704
121.669
116.613
110.338
102.646
93.2955
82.1063
69.2926
135.169
135.229
135.341
135.459
135.583
135.722
135.868
136.009
136.131
136.219
136.259
136.231
136.115
135.885
135.515
134.969
134.212
133.195
131.867
130.162
128.006
125.307
121.963
117.856
112.858
106.833
99.6618
91.2439
81.568
71.0553
134.268
134.317
134.405
134.485
134.56
134.637
134.711
134.769
134.796
134.778
134.7
134.544
134.287
133.907
133.375
132.659
131.722
130.522
129.009
127.127
124.81
121.985
118.57
114.481
109.63
103.939
97.3554
89.867
81.5164
72.639
133.336
133.375
133.438
133.481
133.506
133.524
133.527
133.502
133.437
133.317
133.126
132.847
132.458
131.937
131.256
130.386
129.292
127.936
126.273
124.255
121.829
118.936
115.517
111.512
106.87
101.551
95.5405
88.859
81.5549
73.8984
132.377
132.406
132.445
132.451
132.428
132.386
132.32
132.217
132.062
131.844
131.546
131.151
130.639
129.988
129.174
128.168
126.939
125.454
123.675
121.56
119.069
116.157
112.783
108.909
104.506
99.5607
94.0779
88.0916
81.6549
74.9934
131.394
131.414
131.43
131.399
131.329
131.23
131.098
130.918
130.679
130.368
129.969
129.466
128.842
128.075
127.142
126.019
124.678
123.09
121.224
119.048
116.53
113.638
110.344
106.628
102.476
97.8905
92.8881
87.5082
81.8035
75.9568
130.393
130.403
130.396
130.331
130.216
130.062
129.866
129.614
129.295
128.897
128.405
127.804
127.078
126.207
125.172
123.95
122.519
120.853
118.929
116.72
114.204
111.36
108.171
104.627
100.727
96.4806
91.911
87.0574
81.9677
76.788
129.378
129.378
129.35
129.251
129.093
128.888
128.631
128.312
127.918
127.439
126.862
126.173
125.356
124.396
123.274
121.972
120.47
118.748
116.789
114.572
112.083
109.307
106.237
102.871
99.2143
95.2813
91.0973
86.6984
82.1266
77.4988
128.354
128.345
128.296
128.166
127.967
127.713
127.4
127.018
126.556
126.004
125.35
124.582
123.687
122.65
121.456
120.09
118.535
116.778
114.803
112.598
110.152
107.458
104.515
101.326
97.8993
94.2526
90.4101
86.4042
82.2707
78.1038
127.326
127.309
127.241
127.081
126.844
126.545
126.18
125.741
125.216
124.598
123.876
123.039
122.077
120.976
119.724
118.309
116.718
114.941
112.967
110.788
108.398
105.796
102.982
99.9628
96.7508
93.3629
89.8218
86.1558
82.3951
78.616
126.302
126.277
126.19
126.003
125.731
125.39
124.978
124.486
123.906
123.229
122.447
121.552
120.532
119.379
118.082
116.632
115.02
113.237
111.276
109.135
106.809
104.301
101.614
98.7572
95.7428
92.5875
89.3118
85.9401
82.4979
79.047
125.286
125.254
125.15
124.938
124.635
124.256
123.801
123.262
122.632
121.904
121.071
120.125
119.059
117.865
116.535
115.061
113.438
111.66
109.724
107.627
105.37
102.957
100.393
97.688
94.854
91.9067
88.8644
85.7479
82.5787
79.4072
124.286
124.247
124.128
123.894
123.561
123.148
122.655
122.075
121.402
120.629
119.753
118.766
117.663
116.437
115.083
113.597
111.973
110.208
108.303
106.256
104.07
101.75
99.3026
96.7378
94.0673
91.3053
88.468
85.5731
82.6387
79.706
123.308
123.263
123.13
122.876
122.517
122.074
121.548
120.932
120.221
119.411
118.498
117.478
116.346
115.098
113.729
112.237
110.62
108.876
107.006
105.012
102.896
100.666
98.3281
95.8919
93.3687
90.7713
88.1139
85.4115
82.6795
79.9518
122.36
122.309
122.164
121.891
121.51
121.041
120.485
119.838
119.096
118.255
117.313
116.267
115.113
113.849
112.473
110.983
109.378
107.659
105.827
103.886
101.84
99.6943
97.4576
95.1385
92.7473
90.2956
87.7957
85.2608
82.7035
80.1521
121.448
121.393
121.237
120.948
120.547
120.055
119.474
118.801
118.033
117.166
116.201
115.135
113.966
112.693
111.315
109.831
108.243
106.552
104.76
102.871
100.891
98.825
96.6811
94.4676
92.1942
89.8711
87.5091
85.1195
82.7132
80.3135
120.581
120.522
120.356
120.053
119.635
119.124
118.522
117.827
117.037
116.15
115.167
114.086
112.908
111.63
110.255
108.782
107.213
105.551
103.799
101.961
100.043
98.05
95.9903
93.8717
91.7027
89.4926
87.2508
84.9872
82.7112
80.442
119.766
119.703
119.528
119.214
118.782
118.254
117.634
116.921
116.114
115.212
114.215
113.125
111.94
110.663
109.293
107.834
106.286
104.653
102.94
101.15
99.2889
97.3629
95.379
93.3447
91.2677
89.1563
87.019
84.8643
82.7004
80.5433
119.011
118.944
118.762
118.438
117.993
117.451
116.818
116.091
115.269
114.355
113.349
112.252
111.066
109.791
108.43
106.985
105.459
103.855
102.178
100.433
98.6242
96.7583
94.8418
92.8816
90.885
88.8594
86.8122
84.7511
82.6832
80.6219
118.324
118.254
118.066
117.732
117.277
116.724
116.079
115.34
114.509
113.586
112.574
111.474
110.288
109.018
107.666
106.237
104.732
103.156
101.512
99.8075
98.0457
96.233
94.3756
92.48
90.5529
88.601
86.631
84.6496
82.6634
80.6834
117.714
117.641
117.447
117.105
116.641
116.079
115.425
114.677
113.838
112.909
111.892
110.791
109.607
108.343
107.002
105.587
104.102
102.552
100.939
99.27
97.5494
95.7829
93.9765
92.1363
90.2684
88.3789
86.474
84.5596
82.6417
80.7295
117.19
117.114
116.913
116.564
116.093
115.523
114.862
114.108
113.263
112.33
111.311
110.21
109.03
107.772
106.442
105.041
103.574
102.045
100.46
98.8218
97.1365
95.4094
93.646
91.8522
90.0337
88.1961
86.3452
84.4864
82.6251
80.7691
116.761
116.681
116.473
116.116
115.638
115.062
114.395
113.635
112.786
111.851
110.832
109.732
108.555
107.304
105.982
104.594
103.143
101.634
100.071
98.4584
96.8021
95.1071
93.3787
91.6223
89.8435
88.0474
86.2395
84.4246
82.6079
80.7956
116.441
116.353
116.135
115.772
115.29
114.709
114.037
113.274
112.423
111.486
110.466
109.368
108.195
106.949
105.636
104.258
102.82
101.326
99.7804
98.1887
96.5554
94.8856
93.1845
91.4574
89.7093
87.9455
86.1709
84.3903
82.6085
80.831
116.246
116.13
115.894
115.525
115.041
114.458
113.783
113.019
112.166
111.229
110.21
109.114
107.944
106.703
105.395
104.025
102.596
101.113
99.5801
98.0025
96.3848
94.732
93.0492
91.3415
89.6139
87.8712
86.1184
84.3598
82.6002
80.8437
116.218
116.05
115.788
115.412
114.923
114.337
113.659
112.892
112.039
111.101
110.083
108.989
107.821
106.584
105.281
103.916
102.493
101.018
99.4933
97.9251
96.3176
94.6758
93.0046
91.3092
89.5942
87.8646
86.1251
84.38
82.6337
80.8901
-52.8015
-32.7282
-12.3093
37.5568
31.4848
20.8355
51.8393
40.0432
29.1298
52.5549
42.1966
34.2164
56.7965
48.6138
41.9308
61.0837
54.2743
48.4511
64.2198
58.4254
53.4392
66.6988
61.754
57.5042
68.7883
64.5284
60.8727
70.5459
66.8311
63.6501
72.018
68.7437
65.946
73.254
70.3406
67.8554
74.2941
71.6792
69.4511
75.1699
72.8043
70.7902
75.9073
73.7519
71.9174
76.5277
74.5509
72.8684
77.0489
75.2246
73.6715
77.4855
75.7921
74.3498
77.8499
76.2694
74.9221
78.1529
76.6697
75.404
78.4035
77.0042
75.8086
78.6098
77.2828
76.1474
78.7783
77.5132
76.4291
78.9164
77.704
76.6634
79.0265
77.8583
76.8543
79.1197
77.988
77.0136
79.1873
78.0849
77.1348
79.2569
78.1767
77.2436
79.2898
78.2254
77.3061
79.357
78.3063
77.3933
-1.02375
-1.88094
-1.25068
-0.532952
-0.549523
-0.698028
-0.69343
-0.691793
-0.786323
-0.854121
-0.869002
-0.883243
-0.937576
-1.01185
-1.07942
-1.1278
-1.16289
-1.19926
-1.24239
-1.2842
-1.31039
-1.30699
-1.26453
-1.17966
-1.05488
-0.899439
-0.730357
-0.561319
-0.373434
-0.126741
4.91476
-0.471088
-0.122525
-0.140358
-1.04434
-1.42112
-1.01251
-0.72397
-0.900114
-1.01449
-0.987837
-0.941831
-1.00016
-1.09875
-1.18233
-1.23068
-1.25661
-1.29017
-1.3437
-1.403
-1.44575
-1.45171
-1.40831
-1.31257
-1.16929
-0.989391
-0.791202
-0.594117
-0.388363
-0.13106
14.2546
4.93765
1.87261
-0.0881064
-1.02388
-0.973624
-0.348342
-0.500924
-1.20758
-1.41884
-1.17992
-0.927678
-1.01701
-1.17681
-1.29479
-1.34599
-1.35345
-1.37766
-1.44701
-1.53249
-1.59901
-1.618
-1.57319
-1.46309
-1.2968
-1.08777
-0.854123
-0.620758
-0.39467
-0.132615
23.368
13.4064
7.51715
3.66026
1.37967
0.255015
-0.225662
-0.785172
-1.18109
-1.23433
-0.810584
-0.708041
-1.07184
-1.35912
-1.49975
-1.51344
-1.44873
-1.4395
-1.53704
-1.66455
-1.76723
-1.80627
-1.76048
-1.63163
-1.437
-1.19486
-0.92048
-0.640239
-0.387995
-0.130007
32.5817
22.8355
15.4067
9.9129
6.04419
3.43711
1.71861
0.513872
-0.264837
-0.680835
-0.745813
-0.899083
-1.09982
-1.30397
-1.44491
-1.46481
-1.41133
-1.46918
-1.65281
-1.84111
-1.98218
-2.03487
-1.97566
-1.81502
-1.58404
-1.30678
-0.990698
-0.653443
-0.362709
-0.121165
40.4788
31.6053
23.6554
17.1087
12.0617
8.29396
5.52564
3.48283
1.98588
0.938839
0.260638
-0.247144
-0.654983
-1.01033
-1.27683
-1.4203
-1.48164
-1.57487
-1.73364
-1.92903
-2.09817
-2.1735
-2.11923
-1.95067
-1.70524
-1.41297
-1.06844
-0.673593
-0.31761
-0.102862
46.8417
39.1218
31.3596
24.4287
18.7292
14.1689
10.5497
7.68775
5.44551
3.72875
2.44382
1.45506
0.655531
-0.00322938
-0.515733
-0.880652
-1.14024
-1.37124
-1.61681
-1.87203
-2.08642
-2.20141
-2.18422
-2.04194
-1.80343
-1.49239
-1.10775
-0.668719
-0.245458
-0.105005
52.0106
45.3679
38.1627
31.339
25.4292
20.4344
16.2352
12.733
9.84883
7.50845
5.62904
4.10871
2.85835
1.82715
0.993548
0.336847
-0.184257
-0.627872
-1.03474
-1.40593
-1.70741
-1.89691
-1.94935
-1.86833
-1.67621
-1.39411
-1.03411
-0.629664
-0.262951
-0.273713
56.2121
50.4706
43.9514
37.5125
31.7042
26.5831
22.087
18.1759
14.8177
11.9688
9.57137
7.55585
5.85673
4.42528
3.2282
2.23572
1.41012
0.70666
0.091644
-0.441799
-0.8758
-1.184
-1.34978
-1.37594
-1.28029
-1.08431
-0.812051
-0.512845
-0.294731
-0.492807
59.6259
54.6177
48.7798
42.8422
37.3178
32.2875
27.7221
23.6144
19.965
16.759
13.9653
11.5415
9.44324
7.63107
6.07263
4.73828
3.59564
2.61018
1.75447
1.01777
0.406212
-0.0664534
-0.391219
-0.571752
-0.623971
-0.571601
-0.448299
-0.314576
-0.282408
-0.629426
62.4204
58.0064
52.7842
47.3647
42.205
37.3907
32.9083
28.7668
24.9852
21.5694
18.5089
15.7825
13.3639
11.2262
9.34398
7.69267
6.2465
4.97916
3.86879
2.90348
2.08234
1.41024
0.889897
0.51559
0.271423
0.131831
0.0585552
-0.0102595
-0.171634
-0.637621
64.7293
60.7997
56.1105
51.1758
46.3975
41.8561
37.5442
33.4766
29.6807
26.1743
22.9609
20.0344
17.3825
14.99
12.8402
10.9155
9.19721
7.66612
6.3055
5.1043
4.05809
3.16612
2.42648
1.83139
1.36471
1.00079
0.701796
0.412004
0.0557211
-0.522105
66.6512
63.1208
58.8857
54.3845
49.9707
45.7166
41.616
37.684
33.9505
30.4388
27.1607
24.1198
21.3138
18.7369
16.3802
14.2331
12.2835
10.5184
8.92574
7.49632
6.2245
5.10656
4.13773
3.30892
2.60434
1.99992
1.46154
0.942944
0.38867
-0.310138
68.2604
65.0625
61.2131
57.0917
53.0114
49.0359
45.1582
41.3915
37.7645
34.3024
31.0214
27.9306
25.0344
22.3336
19.8257
17.5059
15.3677
13.4032
11.6043
9.96427
8.47758
7.13935
5.94351
4.8806
3.93581
3.08772
2.30735
1.55814
0.800823
-0.0372878
69.6136
66.6952
63.1742
59.383
55.6011
51.8848
48.2254
44.6333
41.1347
37.7545
34.5104
31.4148
28.4759
25.6989
23.0859
20.6368
18.3492
16.2195
14.2429
12.4149
10.7309
9.18598
7.77396
6.48569
5.30785
4.222
3.20432
2.22656
1.26089
0.261898
70.7552
68.0732
64.8328
61.328
57.8103
54.3298
50.8761
47.4565
44.0942
40.8126
37.6296
34.5587
31.6104
28.7927
26.1107
23.5676
21.1643
18.9001
16.7733
14.7812
12.9204
11.1868
9.57444
8.07512
6.67716
5.36498
4.11917
2.91771
1.73998
0.559997
71.72
69.2389
66.2391
62.9826
59.6977
56.4289
53.1647
49.9094
46.6831
43.507
40.3983
37.3707
34.4357
31.6027
28.8789
26.2696
23.7781
21.4061
19.1538
17.0205
15.0039
13.1008
11.3062
9.61282
8.01059
6.48637
5.02412
3.60608
2.2155
0.83928
72.536
70.2262
67.4332
64.3921
61.3115
58.2314
55.1393
52.0369
48.9414
45.8716
42.8435
39.8701
36.9632
34.1329
31.3874
28.7334
26.176
23.7183
21.3623
19.1085
16.9561
14.9027
12.9443
11.0745
9.28483
7.56403
5.89845
4.27288
2.67225
1.09119
73.2259
71.0625
68.4474
65.5932
62.6914
59.7786
56.8413
53.8791
50.9064
47.9398
44.9936
42.0802
39.2107
36.3954
33.643
30.9609
28.3552
25.8303
23.3892
21.0337
18.7638
16.5782
14.4736
12.4449
10.4847
8.583
6.72792
4.90563
3.10135
1.31388
73.8084
71.7702
69.3083
66.6161
63.8705
61.105
58.3058
55.4706
52.6113
49.7423
46.8764
44.0248
41.1981
38.4059
35.6572
32.9597
30.3198
27.7428
25.2326
22.7916
20.4209
18.1199
15.8861
13.7152
11.6007
9.5338
7.50355
5.49683
3.49854
1.50935
74.299
72.3678
70.0377
67.4856
64.8759
62.2397
59.5627
56.8414
54.0852
51.3068
48.5173
45.7269
42.945
40.181
37.4433
34.7397
32.0768
29.4603
26.8944
24.3824
21.9257
19.5246
17.1773
14.88
12.6271
10.4104
8.21972
6.04212
3.86209
1.6808
74.7111
72.8711
70.654
68.2228
65.7308
63.2071
60.6375
58.0171
55.3536
52.6578
49.9395
47.2076
44.4707
41.7372
39.0153
36.3123
33.635
30.989
28.3789
25.8083
23.2791
20.7919
18.3456
15.937
13.5609
11.2096
8.8734
6.53947
4.19187
1.83151
75.0552
73.2927
71.1721
68.8444
66.4536
64.0274
61.5512
59.0194
56.438
53.8163
51.1629
48.4854
45.7917
43.0893
40.3858
37.6881
35.0028
32.3354
29.6906
27.0721
24.4821
21.9216
19.3898
16.8842
14.3994
11.9286
9.46195
6.98695
4.48731
1.96319
75.3419
73.6445
71.6057
69.366
67.0616
64.7186
62.3229
59.8677
57.358
54.8017
52.2062
49.5783
46.9247
44.2524
41.5682
38.8787
36.19
33.5074
30.8357
28.1785
25.5383
22.916
20.3114
17.7219
15.1428
12.567
9.98532
7.385
4.7497
2.07824
75.5768
73.9336
71.9632
69.7974
67.5655
65.2927
62.9651
60.5752
58.1269
55.627
53.0821
50.4979
47.8805
45.2361
42.5708
39.8908
37.2017
34.5088
31.8165
29.1285
26.4471
23.7736
21.1077
18.4471
15.7871
13.1211
10.4396
7.7301
4.97624
2.1753
75.7713
74.1723
72.2581
70.153
67.9809
65.7661
63.4948
61.1592
58.7623
56.31
53.8078
51.2612
48.6752
46.0555
43.4077
40.7374
38.0499
35.3501
32.6424
29.9302
27.2159
24.5006
21.7842
19.0645
16.3371
13.5951
10.8292
8.02684
5.17172
2.25872
75.9219
74.3579
72.4882
70.4313
68.3067
66.1381
63.9118
61.6198
59.2642
56.8503
54.383
51.867
49.307
46.7081
44.0752
41.4138
38.7287
36.0245
33.3054
30.5746
27.8346
25.0865
22.3298
19.5628
16.7809
13.9773
11.1424
8.26412
5.32604
2.32133
76.05
74.5118
72.676
70.6557
68.567
66.4333
64.2412
61.9823
59.6581
57.2735
54.833
52.3407
49.8008
47.2181
44.5972
41.943
39.2602
36.5531
33.8258
31.0814
28.3221
25.549
22.7618
19.9585
17.1347
14.2835
11.3953
8.45763
5.45411
2.37461
76.1294
74.6075
72.7939
70.7985
68.7341
66.6238
64.4546
62.2179
59.9149
57.55
55.1275
52.6512
50.125
47.5533
44.9406
42.2915
39.6105
36.9018
34.1692
31.4158
28.6437
25.854
23.0463
20.2185
17.3662
14.4825
11.5577
8.57878
5.5295
2.39849
76.2163
74.6955
72.894
70.9134
68.8626
66.7648
64.6076
62.3826
60.0905
57.7357
55.3222
52.8537
50.334
47.7673
45.158
42.5106
39.8295
37.1188
34.3822
31.6229
28.8429
26.0432
23.2236
20.3818
17.5134
14.6115
11.666
8.66302
5.58403
2.40711
)
;

boundaryField
{
    inlet
    {
        type            zeroGradient;
    }
    outlet
    {
        type            fixedValue;
        value           uniform 0;
    }
    flap
    {
        type            zeroGradient;
    }
    upperWall
    {
        type            zeroGradient;
    }
    lowerWall
    {
        type            zeroGradient;
    }
    frontAndBack
    {
        type            empty;
    }
}


// ************************************************************************* //
