/*--------------------------------*- C++ -*----------------------------------*\
| =========                 |                                                 |
| \\      /  F ield         | OpenFOAM: The Open Source CFD Toolbox           |
|  \\    /   O peration     | Version:  dev                                   |
|   \\  /    A nd           | Web:      www.OpenFOAM.org                      |
|    \\/     M anipulation  |                                                 |
\*---------------------------------------------------------------------------*/
FoamFile
{
    version     2.0;
    format      ascii;
    class       surfaceScalarField;
    location    "0.14";
    object      phi;
}
// * * * * * * * * * * * * * * * * * * * * * * * * * * * * * * * * * * * * * //

dimensions      [0 3 -1 0 0 0 0];

internalField   nonuniform List<scalar> 
5457
(
0.19852
0.00148032
0.196732
0.00178716
0.194606
0.00212607
0.192103
0.0025024
0.189223
0.00287983
0.18597
0.00325261
0.182345
0.0036244
0.178348
0.00399658
0.17398
0.00436749
0.169244
0.00473491
0.164146
0.00509816
0.158686
0.00545915
0.152863
0.00582237
0.146669
0.0061939
0.140088
0.00657987
0.133103
0.00698484
0.125692
0.00741045
0.117837
0.00785457
0.109526
0.0083109
0.100756
0.00876902
0.0915412
0.0092147
0.0819103
0.00963056
0.071913
0.00999698
0.0616193
0.0102935
0.0511184
0.0105008
0.0405155
0.0106028
0.0299272
0.0105882
0.0194825
0.0104446
0.00935821
0.0101243
0.00935821
0.200066
0.00141392
0.199457
0.00239609
0.198409
0.00317435
0.196946
0.00396469
0.195057
0.00476789
0.192731
0.00557894
0.18995
0.00640442
0.186699
0.00724675
0.182966
0.00810088
0.178742
0.00895828
0.174028
0.00981179
0.168827
0.0106589
0.163146
0.0115028
0.156988
0.0123519
0.150351
0.0132164
0.143229
0.014106
0.135613
0.0150261
0.127491
0.0159759
0.118855
0.0169466
0.109702
0.0179213
0.100042
0.0188751
0.0898958
0.0197759
0.079306
0.0205866
0.0683323
0.0212669
0.0570549
0.021778
0.0455712
0.0220864
0.0339893
0.02217
0.0224104
0.0220235
0.010844
0.0216907
0.0202022
0.199915
0.00149894
0.199361
0.00294949
0.198377
0.00415856
0.197004
0.00533716
0.195238
0.00653301
0.193064
0.00775314
0.19046
0.00900737
0.187407
0.0102995
0.183885
0.0116221
0.179882
0.0129611
0.175391
0.0143022
0.170412
0.0156373
0.164948
0.0169669
0.158999
0.0182998
0.152565
0.0196499
0.145639
0.0210318
0.138208
0.0224558
0.13026
0.0239241
0.121778
0.025428
0.112752
0.0269471
0.103178
0.0284486
0.0930649
0.0298885
0.0824373
0.0312138
0.0713386
0.0323654
0.0598336
0.0332828
0.0480102
0.0339098
0.0359794
0.0342007
0.0238797
0.0341232
0.0118774
0.0336929
0.0320796
0.199832
0.0016667
0.199278
0.00350356
0.198312
0.00512457
0.196962
0.00668646
0.195231
0.00826349
0.193104
0.00987928
0.190563
0.0115482
0.187587
0.013275
0.184158
0.0150503
0.180264
0.0168547
0.175898
0.0186682
0.171057
0.0204773
0.165743
0.02228
0.159957
0.0240861
0.153693
0.0259129
0.146944
0.0277805
0.139694
0.0297047
0.131926
0.0316921
0.123617
0.0337361
0.114749
0.035815
0.105306
0.0378911
0.0952825
0.0399114
0.0846869
0.0418091
0.0735452
0.0435068
0.0619067
0.0449212
0.0498476
0.0459687
0.0374742
0.0465741
0.0249234
0.0466739
0.0123308
0.0462856
0.0444103
0.199793
0.00187323
0.199231
0.00406623
0.198281
0.00607339
0.196958
0.00800903
0.195264
0.00995706
0.193187
0.0119564
0.190707
0.0140275
0.187806
0.0161757
0.184466
0.0183894
0.180676
0.0206446
0.176428
0.0229152
0.171722
0.0251834
0.166556
0.0274452
0.16093
0.0297114
0.154839
0.0320038
0.14827
0.0343483
0.141207
0.0367673
0.133625
0.0392731
0.125498
0.0418633
0.116795
0.0445174
0.10749
0.0471956
0.0975625
0.0498385
0.0870034
0.0523679
0.0758208
0.0546892
0.064047
0.0566948
0.0517455
0.0582701
0.0390172
0.0593023
0.0260052
0.0596859
0.0128714
0.0594194
0.0572818
0.199776
0.00209691
0.199211
0.00463164
0.198283
0.00700115
0.196994
0.00929671
0.195347
0.0116043
0.193328
0.0139744
0.190921
0.0164339
0.188108
0.018989
0.184871
0.0216256
0.1812
0.0243151
0.177088
0.0270261
0.172535
0.0297366
0.167538
0.0324411
0.162097
0.0351523
0.156203
0.0378968
0.149844
0.0407073
0.142997
0.0436137
0.135633
0.0466361
0.127718
0.0497782
0.119211
0.0530236
0.110072
0.0563338
0.100264
0.0596464
0.0897562
0.062875
0.0785356
0.0659095
0.066612
0.0686182
0.0540305
0.0708514
0.0408819
0.0724508
0.0273172
0.0732505
0.0135438
0.0731927
0.0708256
0.199771
0.00232583
0.199211
0.00519149
0.198309
0.00790317
0.197062
0.0105426
0.19547
0.0131962
0.193521
0.0159226
0.1912
0.0187547
0.188488
0.0216999
0.185372
0.0247416
0.18184
0.0278467
0.177886
0.0309788
0.17351
0.0341121
0.16871
0.0372403
0.163484
0.0403783
0.157822
0.043558
0.151709
0.0468196
0.14512
0.0502025
0.13802
0.0537356
0.130365
0.0574318
0.122106
0.0612824
0.113185
0.0652541
0.103545
0.0692864
0.0931302
0.0732894
0.0818977
0.0771417
0.0698266
0.080689
0.056933
0.0837449
0.0432878
0.086096
0.0290445
0.0874938
0.0144662
0.087771
0.0852918
0.199773
0.00255279
0.199226
0.00573835
0.198355
0.00877418
0.197156
0.0117403
0.195628
0.0147242
0.19376
0.0177906
0.191536
0.0209776
0.188942
0.0242939
0.185962
0.0277206
0.182588
0.0312201
0.178815
0.0347513
0.174642
0.0382851
0.170067
0.0418145
0.165087
0.0453571
0.159694
0.0489506
0.153869
0.0526438
0.147585
0.056486
0.140802
0.0605177
0.13347
0.0647634
0.125526
0.0692262
0.116896
0.0738834
0.107499
0.0786831
0.0972481
0.0835394
0.0860628
0.0883267
0.0738772
0.0928743
0.0606612
0.0969608
0.0464445
0.100312
0.0313561
0.102582
0.0156481
0.103479
0.10094
0.19978
0.0027731
0.199252
0.00626603
0.198417
0.00960876
0.197273
0.0128836
0.195817
0.0161802
0.194038
0.0195686
0.191924
0.023091
0.18946
0.0267574
0.186634
0.0305466
0.183436
0.0344168
0.179865
0.0383225
0.175918
0.0422314
0.171596
0.046136
0.166895
0.0500569
0.161807
0.054038
0.156313
0.0581368
0.150385
0.062414
0.143979
0.0669231
0.137038
0.0717033
0.12949
0.0767738
0.121244
0.0821289
0.112192
0.0877338
0.102214
0.0935175
0.091177
0.0993631
0.0789549
0.105096
0.0654449
0.110471
0.0505999
0.115157
0.0344827
0.118699
0.0173614
0.1206
0.118301
0.19979
0.00298348
0.199286
0.00676955
0.198492
0.0104017
0.197409
0.0139665
0.196032
0.0175571
0.194352
0.0212477
0.192358
0.0250843
0.190037
0.0290779
0.187378
0.033205
0.184375
0.03742
0.181024
0.0416729
0.177326
0.0459284
0.173283
0.0501788
0.168891
0.0544474
0.164145
0.0587842
0.159025
0.0632559
0.153503
0.067935
0.147536
0.0728894
0.141063
0.0781754
0.134004
0.0838323
0.126254
0.0898784
0.117681
0.0963061
0.108124
0.103074
0.0973928
0.110094
0.0852787
0.11721
0.0715742
0.124175
0.0561096
0.130622
0.0388153
0.135993
0.0198631
0.139552
0.138164
0.199802
0.00318158
0.199326
0.00724486
0.198579
0.0111485
0.197561
0.0149838
0.19627
0.0188482
0.194697
0.0228199
0.192833
0.026948
0.190666
0.0312441
0.188188
0.0356828
0.185393
0.0402145
0.18228
0.0447849
0.178852
0.0493558
0.175111
0.0539189
0.171058
0.0585003
0.166686
0.0631555
0.16198
0.0679603
0.156916
0.0729986
0.151451
0.0783535
0.145526
0.0840998
0.139057
0.0903002
0.131932
0.0970025
0.124001
0.104237
0.115064
0.11201
0.104869
0.120288
0.0931031
0.128975
0.0794081
0.13787
0.0634177
0.146612
0.0448079
0.154603
0.023291
0.161069
0.161455
0.199816
0.00336563
0.199372
0.0076887
0.198675
0.0118449
0.197728
0.0159307
0.196527
0.0200479
0.195069
0.0242784
0.193342
0.0286739
0.191339
0.0332465
0.189053
0.0379687
0.18648
0.042787
0.183621
0.0476432
0.18048
0.0524956
0.177063
0.0573354
0.173372
0.0621906
0.169405
0.0671217
0.165152
0.0722124
0.160592
0.0775577
0.15569
0.0832549
0.150392
0.0893973
0.144619
0.096072
0.138261
0.10336
0.13116
0.111337
0.123096
0.120073
0.11376
0.129624
0.102723
0.140011
0.089421
0.151172
0.0731597
0.162873
0.0531978
0.174565
0.0287611
0.185506
0.190217
0.199831
0.00353431
0.199421
0.00809848
0.198778
0.0124877
0.197905
0.0168032
0.196801
0.0211513
0.195462
0.0256172
0.19388
0.030255
0.19205
0.0350768
0.189965
0.040053
0.187625
0.0451266
0.185032
0.050235
0.182194
0.0553329
0.179118
0.0604106
0.175811
0.0654971
0.172275
0.0706568
0.168507
0.0759799
0.164493
0.0815707
0.160208
0.0875388
0.155611
0.0939941
0.150636
0.101046
0.145188
0.108807
0.139124
0.1174
0.13223
0.126966
0.124182
0.137672
0.11447
0.149722
0.102297
0.163344
0.0864299
0.17874
0.0650312
0.195963
0.0348773
0.21566
0.225094
0.199848
0.00368647
0.199474
0.00847198
0.198887
0.0130739
0.198092
0.0175979
0.197089
0.0221543
0.195874
0.0268315
0.194443
0.0316856
0.192791
0.0367284
0.190915
0.0419285
0.188816
0.0472249
0.1865
0.0525501
0.183977
0.0578559
0.181256
0.0631304
0.178349
0.0684029
0.175265
0.0737401
0.172008
0.0792368
0.168574
0.0850039
0.164951
0.0911603
0.161116
0.0978281
0.157028
0.105134
0.15262
0.113214
0.147792
0.122228
0.142383
0.132374
0.136131
0.143923
0.128595
0.157258
0.118968
0.17297
0.105713
0.191995
0.0859985
0.215678
0.0565622
0.245096
0.281656
0.199866
0.00382064
0.19953
0.00880702
0.199003
0.0136009
0.198289
0.0183115
0.19739
0.0230533
0.196303
0.0279173
0.195027
0.0329611
0.193559
0.0381963
0.191897
0.0435895
0.190047
0.0490749
0.188015
0.0545807
0.185815
0.0600555
0.18346
0.0654846
0.180966
0.0708959
0.178349
0.076357
0.17562
0.0819645
0.17279
0.0878332
0.169862
0.0940869
0.166835
0.100854
0.163698
0.10827
0.160429
0.116482
0.15699
0.125665
0.15332
0.136043
0.149319
0.147922
0.144829
0.161748
0.139574
0.178224
0.133037
0.198531
0.123906
0.224809
0.107494
0.261507
0.38915
-0.0132428
0.0132428
-0.0271919
0.0139491
-0.0411233
0.0139314
-0.054775
0.0136517
-0.0677409
0.012966
-0.0794956
0.0117548
-0.0894123
0.00991675
-0.0968037
0.00739157
-0.100994
0.00419031
-0.101409
0.000415141
-0.097639
-0.00376983
-0.0895752
-0.00806371
-0.0775125
-0.0120627
-0.0621267
-0.015386
-0.0443477
-0.0177792
-0.0251765
-0.0191714
-0.00549155
-0.0196854
0.0139403
-0.0194324
0.0325385
-0.0185988
0.0499222
-0.0173844
0.0658859
-0.0159645
0.0803314
-0.0144464
0.093245
-0.0129145
0.104674
-0.0114299
0.114706
-0.0100326
0.123451
-0.00874571
0.13103
-0.00757969
0.137567
-0.00653823
0.143196
-0.00562881
-0.00498399
-0.01408
0.0273228
-0.0282497
0.0281189
-0.0425517
0.0282334
-0.0566116
0.0277117
-0.0699859
0.0263404
-0.0821193
0.0238883
-0.0923518
0.0201494
-0.0999571
0.0149969
-0.104212
0.00844572
-0.104498
0.000701122
-0.100384
-0.00788374
-0.0917643
-0.0166836
-0.0789824
-0.0248446
-0.0627846
-0.0315839
-0.0441636
-0.0364005
-0.0241701
-0.0391652
-0.00378486
-0.0400711
0.0162018
-0.0394195
0.0352982
-0.0376959
0.0531631
-0.0352501
0.0695951
-0.0323973
0.0845055
-0.0293576
0.0978871
-0.026297
0.10979
-0.0233338
0.120301
-0.0205445
0.129527
-0.0179726
0.137584
-0.0156369
0.144586
-0.013541
0.15064
-0.0116832
-0.010128
-0.0142682
0.041591
-0.0291069
0.0429576
-0.0439889
0.0431154
-0.0586663
0.0423892
-0.07271
0.0403842
-0.0855364
0.0367148
-0.0964276
0.0310407
-0.104577
0.0231461
-0.109164
0.0130334
-0.109476
0.00101267
-0.105001
-0.0123586
-0.0956516
-0.0260325
-0.0818967
-0.0385995
-0.0646429
-0.0488378
-0.0450294
-0.0560142
-0.0242121
-0.0599828
-0.00321165
-0.061072
0.0171924
-0.0598242
0.0365229
-0.057027
0.0544915
-0.0532194
0.0709348
-0.0488415
0.0857936
-0.0442173
0.0990853
-0.0395896
0.110879
-0.0351281
0.121274
-0.0309409
0.130388
-0.0270869
0.138339
-0.0235892
0.145245
-0.0204474
0.151209
-0.017647
-0.0152203
-0.0148748
0.0564658
-0.0302933
0.0583761
-0.0459421
0.0587643
-0.0615237
0.0579708
-0.0765718
0.0554324
-0.0904315
0.0505746
-0.102275
0.0428847
-0.111158
0.0320293
-0.116109
0.017984
-0.116281
0.00118533
-0.111101
-0.0175392
-0.100584
-0.0365486
-0.0854067
-0.0537774
-0.0666885
-0.0675561
-0.0457414
-0.0769615
-0.0238335
-0.081891
-0.00204463
-0.0828614
0.0188736
-0.080743
0.0384738
-0.0766279
0.0565378
-0.0712842
0.072952
-0.0652565
0.0876981
-0.0589643
0.100827
-0.0527194
0.112434
-0.0467359
0.122638
-0.0411456
0.131567
-0.0360167
0.139348
-0.0313712
0.1461
-0.0272004
0.151928
-0.0234753
-0.0202046
-0.0155146
0.0719804
-0.0317352
0.0745966
-0.0483347
0.0753639
-0.0650301
0.0746661
-0.0812873
0.0716897
-0.0963331
0.0656205
-0.109182
0.0557336
-0.118713
0.0415605
-0.123788
0.0230588
-0.123432
0.000829937
-0.117086
-0.0238856
-0.104997
-0.0486376
-0.0881071
-0.0706669
-0.0677572
-0.0879062
-0.0454015
-0.0993175
-0.0223832
-0.10491
0.000157326
-0.105402
0.0215354
-0.102122
0.0413492
-0.0964424
0.0594398
-0.0893756
0.0757468
-0.0815644
0.0902975
-0.0735159
0.103181
-0.0656037
0.114521
-0.0580775
0.12446
-0.0510849
0.133138
-0.0446958
0.140691
-0.0389249
0.147241
-0.0337508
0.152894
-0.0291284
-0.0250445
-0.016226
0.0882064
-0.0332259
0.0915965
-0.0507802
0.0929182
-0.0685614
0.0924474
-0.0859375
0.0890659
-0.101991
0.0816743
-0.115563
0.0693058
-0.125359
0.0513567
-0.130102
0.0278012
-0.128717
-0.000554363
-0.12078
-0.0318226
-0.106885
-0.062533
-0.088261
-0.0892906
-0.0664239
-0.109743
-0.0429042
-0.122837
-0.019054
-0.12876
0.00396733
-0.128424
0.0255639
-0.123719
0.0454036
-0.116283
0.0633609
-0.107334
0.0794195
-0.0976239
0.0936492
-0.0877465
0.106176
-0.0781313
0.117153
-0.0690557
0.126742
-0.0606748
0.135098
-0.0530524
0.142362
-0.0461897
0.148659
-0.0400483
0.154095
-0.034565
-0.0297033
-0.0167204
0.104927
-0.0342882
0.109164
-0.0524887
0.111119
-0.0709571
0.110916
-0.0889735
0.107082
-0.1055
0.0982005
-0.119229
0.0830355
-0.128721
0.0608491
-0.132608
0.0316876
-0.129752
-0.00340924
-0.119989
-0.0415861
-0.104317
-0.0782054
-0.0842317
-0.109375
-0.0613477
-0.132628
-0.0371898
-0.146996
-0.0130592
-0.152891
0.00997223
-0.151456
0.0313747
-0.145122
0.0509216
-0.13583
0.0684882
-0.124901
0.084086
-0.113223
0.0978197
-0.101481
0.109846
-0.0901585
0.120342
-0.0795531
0.129486
-0.0698194
0.137441
-0.0610084
0.144353
-0.0531023
0.150346
-0.0460419
0.155524
-0.0397438
-0.0341473
-0.0166514
0.121578
-0.0342213
0.126734
-0.052353
0.129251
-0.0707119
0.129275
-0.0885517
0.124922
-0.104774
0.114423
-0.117973
0.0962342
-0.126581
0.0694577
-0.129167
0.034274
-0.124556
-0.00802048
-0.112964
-0.0531778
-0.0958087
-0.095361
-0.074799
-0.130385
-0.0515356
-0.155891
-0.0274539
-0.171078
-0.00380177
-0.176544
0.0186115
-0.17387
0.0393204
-0.165832
0.0581612
-0.154672
0.0749959
-0.141737
0.0898556
-0.128083
0.102871
-0.114498
0.114221
-0.10151
0.124099
-0.0894318
0.13269
-0.078411
0.14016
-0.0684797
0.146654
-0.0595968
0.152291
-0.0516797
0.15717
-0.0446237
-0.0383434
-0.0158767
0.137455
-0.0322754
0.143133
-0.0492067
0.146182
-0.0663394
0.146408
-0.0829734
0.141556
-0.0980132
0.129463
-0.109991
0.108212
-0.117216
0.0766827
-0.11817
0.035228
-0.111674
-0.0145165
-0.0984938
-0.0663577
-0.0803955
-0.113459
-0.0592334
-0.151548
-0.0364275
-0.178698
-0.0132668
-0.194239
0.00906056
-0.198872
0.0301108
-0.194921
0.0496321
-0.185354
0.0672976
-0.172338
0.0830006
-0.157441
0.0967979
-0.141882
0.108839
-0.12654
0.119315
-0.111986
0.128422
-0.0985397
0.136344
-0.0863339
0.143241
-0.0753783
0.14925
-0.0656061
0.15448
-0.0569102
0.159021
-0.0491648
-0.0422605
-0.0136689
0.151124
-0.0276894
0.157153
-0.0420383
0.160531
-0.0566512
0.161021
-0.0709466
0.155852
-0.0838807
0.142397
-0.0939593
0.118291
-0.0993761
0.0820996
-0.0983938
0.0342459
-0.0900255
-0.0228847
-0.0758239
-0.0805593
-0.0575929
-0.13169
-0.0372518
-0.171889
-0.0158496
-0.2001
0.00527772
-0.215367
0.025515
-0.21911
0.0446867
-0.214093
0.0624152
-0.203083
0.0783859
-0.18831
0.0925261
-0.171582
0.104915
-0.154272
0.115712
-0.137338
0.125107
-0.121382
0.133288
-0.106722
0.140425
-0.0934722
0.146664
-0.0816177
0.152122
-0.0710655
0.156896
-0.0616844
0.16106
-0.0533295
-0.0458697
-0.00964001
0.160764
-0.0198579
0.167371
-0.0301801
0.170853
-0.0409508
0.171791
-0.051729
0.16663
-0.0615962
0.152265
-0.0690742
0.125769
-0.0722513
0.085277
-0.0689184
0.0309131
-0.0588815
-0.0329215
-0.0446387
-0.0948022
-0.027461
-0.148868
-0.00897473
-0.190375
0.00974657
-0.218822
0.0279491
-0.23357
0.0455764
-0.236737
0.0622641
-0.230782
0.0775879
-0.218408
0.091336
-0.202059
0.103483
-0.18373
0.114124
-0.164914
0.123417
-0.146632
0.131535
-0.129502
0.138646
-0.113833
0.144892
-0.0997195
0.150393
-0.0871198
0.155244
-0.0759168
0.159517
-0.0659588
0.163272
-0.0570845
-0.0491451
-0.00458132
0.165345
-0.00868144
0.171472
-0.0135606
0.175732
-0.0192559
0.177487
-0.0253418
0.172716
-0.0311874
0.158111
-0.0353411
0.129923
-0.0354767
0.0854128
-0.0293398
0.0247763
-0.0185122
-0.0437491
-0.00522323
-0.108091
0.00943427
-0.163526
0.0246055
-0.205547
0.039702
-0.233919
0.0546714
-0.24854
0.0690757
-0.251142
0.0825636
-0.244271
0.0948778
-0.230723
0.105905
-0.213087
0.115663
-0.193489
0.124253
-0.173505
0.131815
-0.154195
0.138492
-0.13618
0.144412
-0.119754
0.149681
-0.10499
0.154382
-0.091822
0.158579
-0.0801141
0.162318
-0.0696984
0.165636
-0.0604027
-0.0520659
0.00422867
0.161116
0.00593448
0.169766
0.00716061
0.174506
0.00741546
0.177232
0.00711435
0.173018
0.00665612
0.158569
0.0076684
0.128911
0.0123868
0.0806946
0.0206034
0.0165597
0.0300242
-0.0531698
0.0404442
-0.118511
0.0512603
-0.174342
0.0626678
-0.216955
0.0739984
-0.24525
0.0849907
-0.259533
0.0953982
-0.261551
0.105042
-0.253915
0.113817
-0.239499
0.121702
-0.220974
0.12875
-0.200537
0.135051
-0.179808
0.140713
-0.159857
0.145829
-0.141297
0.150476
-0.124403
0.154711
-0.109225
0.158572
-0.0956835
0.162084
-0.0836272
0.165265
-0.0728803
0.168128
-0.0632657
-0.0546168
0.0139199
0.147197
0.0235518
0.160134
0.0307583
0.1673
0.0371737
0.170817
0.0432439
0.166947
0.0495561
0.152257
0.0572927
0.121175
0.066125
0.0718624
0.0744325
0.0082523
0.082085
-0.0608224
0.0897073
-0.126134
0.0971963
-0.181832
0.10451
-0.224269
0.111394
-0.252134
0.117757
-0.265897
0.123586
-0.26738
0.128903
-0.259234
0.133757
-0.244353
0.13821
-0.225429
0.142339
-0.204666
0.146211
-0.183681
0.149879
-0.163527
0.153376
-0.144795
0.156713
-0.127741
0.159889
-0.112402
0.162893
-0.0986879
0.165709
-0.0864441
0.168323
-0.0754947
0.170722
-0.0656648
-0.0567897
0.0211501
0.126047
0.0419055
0.139378
0.0554439
0.153762
0.0686535
0.157607
0.0814749
0.154126
0.0943237
0.139408
0.107147
0.108351
0.118676
0.0603334
0.127993
-0.00106465
0.135052
-0.0678815
0.140592
-0.131674
0.144835
-0.186076
0.147943
-0.227377
0.150072
-0.254265
0.151466
-0.267292
0.152408
-0.268323
0.153155
-0.259982
0.153913
-0.245113
0.154826
-0.226343
0.155976
-0.205818
0.157395
-0.185101
0.159068
-0.165202
0.160955
-0.146682
0.162995
-0.129782
0.165124
-0.114532
0.167279
-0.100844
0.169404
-0.0885704
0.171453
-0.0775441
0.173387
-0.0675997
-0.0585808
0.207538
0.00394207
0.20723
0.00911458
0.206746
0.014085
0.206091
0.0189658
0.205269
0.0238751
0.20428
0.0289062
0.203122
0.034118
0.201796
0.0395217
0.200304
0.045081
0.198653
0.050726
0.196852
0.0563803
0.194919
0.0619885
0.192871
0.0675317
0.19073
0.0730356
0.18852
0.0785663
0.186264
0.08422
0.183984
0.0901117
0.181705
0.0963654
0.179449
0.103109
0.177241
0.110476
0.175112
0.11861
0.173101
0.127675
0.171268
0.137875
0.169717
0.149471
0.168648
0.162816
0.168474
0.178398
0.170124
0.196881
0.175855
0.219077
0.194398
0.242964
0.267719
0.315829
0.212579
0.00404628
0.212308
0.00938529
0.21188
0.0145125
0.211302
0.019543
0.210579
0.0245976
0.209713
0.029772
0.208705
0.0351257
0.207557
0.0406692
0.206274
0.046363
0.204866
0.0521334
0.203347
0.0578994
0.201734
0.0636001
0.200053
0.0692121
0.198331
0.0747572
0.196598
0.0802981
0.194889
0.085928
0.193242
0.0917582
0.191698
0.097908
0.190308
0.104498
0.189133
0.11165
0.188254
0.119488
0.187783
0.128145
0.187888
0.137769
0.188834
0.148524
0.191064
0.160586
0.195362
0.174099
0.203227
0.189015
0.217341
0.204963
0.239163
0.221141
0.244862
0.26202
0.217742
0.00413201
0.217511
0.00961593
0.217145
0.0148783
0.216651
0.020036
0.216036
0.0252125
0.215303
0.0305046
0.214456
0.0359723
0.213499
0.0416251
0.212441
0.0474206
0.211293
0.0532807
0.210073
0.0591195
0.208802
0.06487
0.207509
0.0705039
0.206228
0.0760374
0.204997
0.0815281
0.203861
0.0870634
0.20287
0.0927479
0.202085
0.0986918
0.201579
0.105003
0.201444
0.111784
0.2018
0.119131
0.202806
0.127137
0.204692
0.135881
0.207786
0.145428
0.212561
0.155809
0.219673
0.166986
0.229888
0.178799
0.243785
0.191065
0.260696
0.204229
0.221461
0.284097
0.223031
0.00419793
0.222843
0.00980338
0.222543
0.0151775
0.222141
0.0204386
0.221641
0.0257119
0.22105
0.0310947
0.220375
0.0366468
0.219623
0.0423772
0.218803
0.0482403
0.21793
0.0541531
0.217024
0.0600245
0.216112
0.0657818
0.215225
0.0713902
0.214401
0.0768597
0.213688
0.082241
0.213136
0.0876138
0.21281
0.0930733
0.212782
0.0987178
0.213144
0.10464
0.214007
0.11092
0.215512
0.117626
0.21784
0.124807
0.221231
0.132488
0.225992
0.140665
0.232505
0.149296
0.241204
0.158286
0.252508
0.167494
0.266863
0.176709
0.285124
0.185967
0.195916
0.310669
0.228448
0.0042429
0.228307
0.00994483
0.228078
0.0154059
0.227771
0.020745
0.227394
0.0260884
0.226955
0.0315337
0.226461
0.0371401
0.225922
0.0429155
0.225351
0.0488108
0.224765
0.0547386
0.224187
0.0606025
0.223644
0.0663236
0.223173
0.0718605
0.222816
0.0772159
0.222624
0.0824324
0.222655
0.0875808
0.222982
0.0927455
0.223687
0.0980118
0.22487
0.103456
0.226651
0.109137
0.229178
0.115097
0.232632
0.12135
0.237236
0.127883
0.243249
0.13465
0.250976
0.141566
0.260758
0.148502
0.272974
0.155277
0.288072
0.16161
0.306719
0.167318
0.172604
0.33003
0.233997
0.00426593
0.233904
0.0100378
0.23375
0.0155599
0.233544
0.0209505
0.233296
0.0263363
0.233014
0.031815
0.232709
0.0374454
0.232391
0.0432326
0.232077
0.0491243
0.231786
0.0550293
0.231542
0.060846
0.231375
0.0664895
0.231324
0.0719112
0.231433
0.0771061
0.231756
0.0821084
0.232357
0.086979
0.23331
0.0917915
0.234702
0.0966182
0.236636
0.10152
0.239233
0.106539
0.242636
0.111693
0.247011
0.116974
0.252549
0.122343
0.259468
0.127729
0.268011
0.133022
0.278439
0.138072
0.291025
0.142688
0.306015
0.146619
0.323692
0.14964
0.151727
0.344568
0.239681
0.00426629
0.239638
0.0100805
0.239561
0.0156363
0.23946
0.0210511
0.239345
0.0264513
0.239226
0.0319342
0.239114
0.0375572
0.239023
0.0433227
0.238972
0.0491757
0.238979
0.0550211
0.239072
0.0607524
0.239282
0.066279
0.239647
0.0715454
0.240213
0.0765389
0.241036
0.0812848
0.242179
0.0858347
0.243718
0.0902515
0.245739
0.0945961
0.248341
0.0989165
0.251638
0.10324
0.255758
0.107571
0.260846
0.111884
0.26706
0.116127
0.274571
0.120216
0.283555
0.124036
0.294187
0.127439
0.306624
0.130249
0.320985
0.132256
0.337394
0.13323
0.133026
0.356093
0.245502
0.00424365
0.245511
0.0100714
0.245513
0.015633
0.24552
0.0210443
0.245541
0.0264305
0.245587
0.0318879
0.245672
0.0374721
0.245811
0.043183
0.246023
0.048963
0.24633
0.0547138
0.246758
0.0603241
0.247339
0.0656977
0.248111
0.0707732
0.249118
0.0755303
0.250416
0.0799863
0.252065
0.084184
0.254139
0.0881767
0.256718
0.0920159
0.259893
0.0957395
0.263766
0.0993658
0.268447
0.102888
0.274054
0.106276
0.280709
0.10947
0.288534
0.112388
0.297648
0.11492
0.308151
0.116934
0.320122
0.118277
0.333601
0.118775
0.348595
0.118233
0.116504
0.365115
0.251463
0.00419793
0.251524
0.0100098
0.251608
0.0155489
0.251724
0.0209285
0.251882
0.0262723
0.252095
0.0316746
0.252377
0.0371892
0.252747
0.0428136
0.253221
0.048488
0.253824
0.0541109
0.254581
0.0595674
0.255521
0.0647565
0.256683
0.069611
0.258109
0.0741039
0.259849
0.0782454
0.261961
0.0820707
0.264511
0.0856256
0.267572
0.0889537
0.271223
0.0920864
0.275551
0.0950365
0.280644
0.0977936
0.286592
0.100325
0.293484
0.102576
0.301401
0.10447
0.310408
0.10591
0.320554
0.106787
0.331854
0.106974
0.344287
0.10634
0.357778
0.104741
0.102066
0.372214
0.257567
0.00412929
0.257681
0.00989551
0.257847
0.0153834
0.258072
0.0207033
0.258367
0.0259763
0.258747
0.0312948
0.259226
0.0367101
0.259822
0.0422177
0.260554
0.0477556
0.261445
0.0532202
0.262518
0.0584935
0.263804
0.0634709
0.265334
0.0680801
0.267149
0.0722888
0.269293
0.0761005
0.271818
0.0795443
0.274782
0.0826605
0.278247
0.0854875
0.282279
0.0880529
0.286947
0.0903673
0.292318
0.0924209
0.298456
0.0941847
0.305419
0.0956111
0.313252
0.096635
0.321982
0.0971782
0.331613
0.0971529
0.34212
0.0964656
0.353436
0.0950218
0.365448
0.0927271
0.08951
0.378001
0.263819
0.00403814
0.263985
0.0097288
0.264231
0.015137
0.264565
0.0203693
0.264997
0.0255442
0.265541
0.0307509
0.266212
0.0360386
0.267029
0.0414008
0.268011
0.0467739
0.269178
0.0520528
0.270554
0.0571175
0.272164
0.0618607
0.274037
0.0662063
0.276208
0.0701177
0.278714
0.0735934
0.281601
0.0766574
0.284914
0.0793457
0.288706
0.0816941
0.293029
0.0837291
0.297932
0.0854621
0.303465
0.0868867
0.309667
0.0879804
0.31657
0.0887061
0.32419
0.0890128
0.332526
0.0888408
0.341551
0.0881258
0.351212
0.0868028
0.361421
0.0848106
0.372051
0.0820943
0.0786143
0.382945
0.27022
0.00392519
0.270438
0.00951058
0.270764
0.0148109
0.271204
0.0199287
0.271769
0.0249787
0.272473
0.0300471
0.273331
0.0351807
0.27436
0.0403712
0.27558
0.0455539
0.27701
0.0506231
0.27867
0.0554579
0.280581
0.0599493
0.282768
0.0640189
0.285259
0.0676266
0.288084
0.0707676
0.291279
0.0734621
0.294881
0.0757434
0.298928
0.0776462
0.303458
0.0791974
0.308507
0.0804116
0.314104
0.0812881
0.32027
0.0818126
0.327015
0.0819595
0.334333
0.0816922
0.342203
0.080969
0.35058
0.0797469
0.359396
0.077985
0.368555
0.0756487
0.377935
0.0727124
0.0691596
0.387388
0.276774
0.0037914
0.277042
0.00924234
0.277446
0.0144073
0.27799
0.0193844
0.278684
0.0242842
0.279542
0.0291895
0.280578
0.0341444
0.28181
0.0391392
0.283255
0.0441089
0.28493
0.0489479
0.286853
0.0535356
0.289039
0.0577626
0.291509
0.0615491
0.294282
0.0648531
0.297383
0.0676672
0.300835
0.0700095
0.304666
0.071912
0.308902
0.0734092
0.313569
0.0745299
0.318686
0.0752928
0.324269
0.0757036
0.330323
0.0757576
0.33684
0.0754403
0.343802
0.0747287
0.351172
0.0735973
0.358896
0.0720207
0.366902
0.0699774
0.375096
0.0674528
0.383365
0.0644414
0.0609415
0.391581
0.283486
0.00363799
0.283802
0.00892606
0.284279
0.0139292
0.284923
0.0187407
0.285741
0.0234663
0.286745
0.0281854
0.28795
0.0329393
0.289372
0.0377171
0.291027
0.0424541
0.292929
0.047046
0.295092
0.0513733
0.297527
0.0553276
0.300247
0.058829
0.303266
0.0618344
0.306597
0.0643352
0.310258
0.0663482
0.314265
0.0679048
0.318633
0.0690406
0.323375
0.0697872
0.3285
0.0701675
0.334008
0.0701937
0.339895
0.06987
0.346141
0.0691929
0.352716
0.0681511
0.35958
0.0667325
0.366673
0.064926
0.373924
0.0627246
0.381247
0.0601277
0.388544
0.0571427
0.0537768
0.395707
0.290357
0.00346638
0.290719
0.00856422
0.291268
0.0133802
0.292006
0.0180024
0.29294
0.0225317
0.294082
0.0270434
0.295445
0.0315762
0.297044
0.0361184
0.298892
0.0406062
0.301001
0.0449373
0.30338
0.0489948
0.306036
0.0526721
0.308974
0.0558904
0.312202
0.0586068
0.315725
0.0608119
0.319551
0.0625223
0.323686
0.0637695
0.328136
0.0645903
0.332903
0.0650192
0.337987
0.0650834
0.343378
0.0648016
0.349061
0.064186
0.355011
0.0632416
0.361193
0.0619675
0.367562
0.0603622
0.374061
0.0584254
0.380624
0.0561605
0.387174
0.053576
0.393628
0.050687
0.0475052
0.399898
0.297393
0.00327818
0.297798
0.00815966
0.298413
0.0127645
0.29924
0.0171754
0.300283
0.021488
0.301554
0.0257731
0.303063
0.0300671
0.304824
0.0343577
0.306848
0.0385826
0.309143
0.0426425
0.311714
0.046424
0.314563
0.0498234
0.317689
0.0527642
0.321092
0.0552042
0.32477
0.0571344
0.328721
0.0585713
0.332944
0.0595468
0.337435
0.0600991
0.342188
0.0602653
0.347195
0.0600764
0.352439
0.059557
0.357898
0.0587259
0.363544
0.0575947
0.36934
0.0561706
0.37524
0.0544606
0.381192
0.0524719
0.387137
0.0502149
0.393008
0.0477036
0.398737
0.0449569
0.0419885
0.404252
0.304597
0.00307512
0.305041
0.00771552
0.305718
0.0120868
0.306628
0.016266
0.307772
0.0203431
0.309161
0.0243847
0.310804
0.0284245
0.312712
0.03245
0.314894
0.036401
0.317355
0.0401821
0.320095
0.0436842
0.323111
0.0468078
0.326396
0.0494792
0.329943
0.0516579
0.333742
0.0533356
0.337784
0.054529
0.342061
0.0552705
0.34656
0.0555994
0.351271
0.055555
0.356175
0.0551714
0.361255
0.0544776
0.366482
0.0534975
0.371828
0.052248
0.377256
0.0507426
0.382722
0.0489937
0.388179
0.047014
0.393575
0.0448178
0.398855
0.0424223
0.403963
0.0398477
0.037108
0.408842
0.311974
0.00285904
0.312453
0.00723516
0.313188
0.0113519
0.314173
0.0152807
0.31541
0.0191056
0.316906
0.0228887
0.31867
0.0266611
0.32071
0.0304103
0.323033
0.0340789
0.32564
0.0375759
0.328527
0.0407978
0.331685
0.0436498
0.335103
0.0460618
0.338766
0.0479956
0.342658
0.0494439
0.346764
0.0504237
0.351067
0.0509678
0.35555
0.051116
0.360196
0.050909
0.364984
0.0503832
0.369891
0.0495708
0.374889
0.0484991
0.379948
0.0471891
0.385032
0.0456583
0.390102
0.0439229
0.395116
0.0419987
0.400031
0.0399022
0.404801
0.0376517
0.409381
0.0352674
0.0327623
0.413726
0.319526
0.0026318
0.320038
0.00672201
0.320825
0.0105649
0.321879
0.0142263
0.323201
0.0177839
0.324794
0.0212954
0.326666
0.0247891
0.328824
0.028253
0.331271
0.0316327
0.334004
0.0348426
0.337018
0.0377852
0.340297
0.0403714
0.343824
0.0425352
0.347579
0.0442412
0.35154
0.0454832
0.355686
0.0462784
0.359995
0.0466594
0.364445
0.0466664
0.369014
0.0463403
0.373679
0.045719
0.378413
0.0448363
0.38319
0.043722
0.38798
0.0423994
0.39275
0.0408884
0.397465
0.0392075
0.402089
0.0373739
0.406586
0.0354051
0.410918
0.0333191
0.41505
0.0311351
0.0288647
0.418947
0.327259
0.00239525
0.3278
0.00617947
0.328634
0.00973082
0.329751
0.0131094
0.331148
0.0163865
0.332829
0.019615
0.334798
0.0228206
0.337059
0.0259919
0.339615
0.0290781
0.342459
0.0319993
0.34558
0.034665
0.34896
0.036992
0.352576
0.0389195
0.356404
0.0404147
0.360415
0.0414725
0.364584
0.0421104
0.368884
0.0423603
0.373289
0.0422617
0.377774
0.0418554
0.382315
0.0411792
0.386883
0.0402678
0.391454
0.0391519
0.395998
0.0378559
0.400485
0.036401
0.404886
0.0348064
0.40917
0.0330898
0.413307
0.0312684
0.417266
0.0293594
0.421021
0.0273803
0.0253413
0.424544
0.335177
0.00215115
0.335744
0.00561078
0.33662
0.00885433
0.337793
0.0119362
0.339259
0.014921
0.341017
0.0178568
0.343072
0.0207666
0.345425
0.0236395
0.348075
0.0264288
0.351014
0.0290611
0.354227
0.031453
0.357691
0.0335283
0.361381
0.0352311
0.365265
0.0365318
0.369312
0.0374265
0.373491
0.0379322
0.377772
0.0380799
0.382127
0.0379076
0.386528
0.037455
0.390949
0.0367592
0.395363
0.0358543
0.399745
0.0347708
0.404068
0.0335334
0.408306
0.0321633
0.412433
0.0306795
0.416424
0.0290993
0.420254
0.0274391
0.423899
0.0257147
0.427337
0.0239416
0.0221284
0.43055
0.343284
0.00190112
0.343875
0.00501884