/*--------------------------------*- C++ -*----------------------------------*\
| =========                 |                                                 |
| \\      /  F ield         | OpenFOAM: The Open Source CFD Toolbox           |
|  \\    /   O peration     | Version:  dev                                   |
|   \\  /    A nd           | Web:      www.OpenFOAM.org                      |
|    \\/     M anipulation  |                                                 |
\*---------------------------------------------------------------------------*/
FoamFile
{
    version     2.0;
    format      ascii;
    class       volVectorField;
    location    "0.14";
    object      U;
}
// * * * * * * * * * * * * * * * * * * * * * * * * * * * * * * * * * * * * * //

dimensions      [0 1 -1 0 0 0 0];

internalField   nonuniform List<vector> 
2790
(
(9.94136 -6.30431e-22 0.0192006)
(9.87594 -6.34573e-22 0.027962)
(9.78126 -2.06106e-23 0.034058)
(9.66205 2.10979e-23 0.0401374)
(9.52459 0 0.046327)
(9.37034 0 0.0525373)
(9.19866 3.77151e-22 0.0587986)
(9.00894 9.91288e-23 0.0651482)
(8.80101 -1.01541e-22 0.071599)
(8.57498 6.44518e-22 0.0781728)
(8.33104 4.93177e-24 0.0849342)
(8.06935 -2.32411e-22 0.0920046)
(7.78993 4.99612e-22 0.0995554)
(7.49254 -5.12291e-22 0.107786)
(7.17662 1.1054e-21 0.116895)
(6.84134 1.17757e-21 0.127052)
(6.48566 3.17163e-23 0.138374)
(6.10856 -1.25892e-21 0.150911)
(5.70917 0 0.164642)
(5.28701 0 0.179468)
(4.84218 0 0.195217)
(4.3755 3.21786e-21 0.211649)
(3.88869 -2.32195e-20 0.228472)
(3.38442 6.81628e-21 0.245373)
(2.86634 0 0.262081)
(2.33889 -7.62698e-21 0.278452)
(1.80711 0 0.294576)
(1.27616 0 0.31081)
(0.747193 1.71858e-20 0.32841)
(0.322428 0 0.331702)
(9.99667 6.25339e-22 0.0387324)
(9.98319 1.87496e-21 0.0591985)
(9.94324 4.08974e-23 0.0746992)
(9.87781 -1.35e-21 0.0907851)
(9.79151 0 0.107878)
(9.68531 1.82164e-22 0.125853)
(9.55799 -5.62136e-22 0.144843)
(9.40817 3.94328e-22 0.164963)
(9.2349 -4.03695e-22 0.18618)
(9.03764 -4.15315e-22 0.208384)
(8.81618 -8.80898e-22 0.231491)
(8.57064 0 0.255521)
(8.30128 0 0.280628)
(8.00836 2.08251e-21 0.307087)
(7.69197 -4.32543e-21 0.335237)
(7.35193 1.10796e-21 0.365406)
(6.98783 0 0.397829)
(6.59908 0 0.43258)
(6.18511 2.65349e-21 0.46952)
(5.74548 0 0.508267)
(5.28016 0 0.548179)
(4.78972 3.11037e-21 0.58836)
(4.27548 2.97009e-20 0.627689)
(3.73964 -6.30266e-21 0.664892)
(3.18542 -2.85628e-20 0.698662)
(2.61697 2.26006e-20 0.727846)
(2.03924 -1.26692e-19 0.75168)
(1.45793 2.29555e-19 0.769958)
(0.86973 -1.69737e-19 0.78429)
(0.37769 0 0.769841)
(9.99371 -3.89391e-23 0.0413862)
(9.97714 -1.31575e-21 0.0709535)
(9.93897 8.16362e-23 0.0965101)
(9.87794 2.72784e-24 0.123222)
(9.7973 3.5042e-22 0.151965)
(9.698 7.18815e-22 0.182812)
(9.57888 -1.50063e-21 0.216009)
(9.43843 -1.16832e-21 0.251709)
(9.27543 0 0.289806)
(9.08899 2.53829e-21 0.330011)
(8.87862 0 0.372026)
(8.64416 1.8766e-21 0.415698)
(8.38566 -1.92217e-21 0.461112)
(8.10329 0 0.508591)
(7.79708 0 0.558634)
(7.46683 2.24882e-21 0.61179)
(7.1121 0 0.668523)
(6.73218 -4.98099e-21 0.729081)
(6.32627 -2.63765e-21 0.793391)
(5.8936 0 0.860983)
(5.43364 -2.36229e-20 0.930944)
(4.94631 0 1.0019)
(4.43217 0 1.07202)
(3.89261 1.3588e-20 1.13911)
(3.33002 0 1.20074)
(2.74787 1.04958e-19 1.25444)
(2.15069 -2.48527e-19 1.29802)
(1.54483 1.61298e-19 1.32978)
(0.924341 -2.5296e-19 1.35065)
(0.399182 2.43865e-19 1.32843)
(9.99205 0 0.0467368)
(9.9732 0 0.0869224)
(9.93484 -1.63717e-22 0.123835)
(9.87499 1.51333e-21 0.16147)
(9.79601 -1.38605e-21 0.201357)
(9.69877 -4.66515e-24 0.24408)
(9.58232 1.49339e-21 0.290142)
(9.44528 1.55254e-21 0.339843)
(9.28646 0 0.393121)
(9.105 -1.68736e-21 0.449632)
(8.90037 1.75496e-21 0.508958)
(8.67236 1.83604e-21 0.570833)
(8.42095 3.84662e-21 0.63529)
(8.14621 0 0.702698)
(7.84809 -4.30538e-21 0.773699)
(7.5263 -1.13265e-20 0.849055)
(7.18025 4.59992e-21 0.929474)
(6.8091 -5.05233e-21 1.01542)
(6.41178 1.02656e-20 1.10697)
(5.9872 1.6709e-20 1.20368)
(5.53434 -4.60229e-20 1.30452)
(5.05251 -3.59455e-20 1.40779)
(4.54151 -1.2639e-20 1.51115)
(4.00191 1.32655e-20 1.61163)
(3.43525 -1.39055e-20 1.70574)
(2.84428 0 1.78973)
(2.23305 0 1.85993)
(1.60878 0 1.91293)
(0.963941 0 1.94845)
(0.414888 3.44714e-20 1.92523)
(9.99129 0 0.0536039)
(9.97123 -1.58661e-22 0.102998)
(9.93274 2.75809e-21 0.149854)
(9.87396 0 0.197397)
(9.79668 -1.37458e-21 0.247656)
(9.7016 1.42185e-21 0.301715)
(9.58785 0 0.360307)
(9.45412 0 0.423816)
(9.29929 0 0.49216)
(9.12252 0 0.56488)
(8.92331 -1.75138e-21 0.641403)
(8.70144 -1.83173e-21 0.721324)
(8.45688 -3.89756e-21 0.804616)
(8.18963 3.96176e-21 0.891699)
(7.89956 0 0.98337)
(7.58629 -4.50772e-21 1.08063)
(7.2491 2.32039e-20 1.18447)
(6.88695 -9.62259e-21 1.29563)
(6.4985 2.07373e-20 1.4144)
(6.0823 -4.29905e-20 1.54049)
(5.63682 -5.36592e-22 1.67284)
(5.16074 2.47198e-20 1.8096)
(4.65308 1.36093e-20 1.94802)
(4.11352 -6.49476e-20 2.08442)
(3.54271 1.37806e-20 2.21429)
(2.94263 0 2.33245)
(2.31684 0 2.43343)
(1.67339 1.254e-19 2.51174)
(1.00355 -1.21349e-19 2.56507)
(0.431069 -8.37302e-21 2.54095)
(9.99096 0 0.0611268)
(9.97044 2.35906e-21 0.119073)
(9.93221 4.75434e-22 0.175334)
(9.87476 -2.65738e-21 0.232651)
(9.79957 2.41549e-21 0.293221)
(9.70712 -2.85302e-21 0.358468)
(9.5966 0 0.429326)
(9.46678 -3.0534e-21 0.506253)
(9.31658 -1.56711e-21 0.589152)
(9.14521 3.16195e-23 0.677477)
(8.95221 1.73384e-21 0.77053)
(8.73736 0 0.867806)
(8.5006 -3.79819e-21 0.969252)
(8.2419 0 1.07536)
(7.96107 0 1.18712)
(7.6576 0 1.30578)
(7.33065 -9.24326e-21 1.43266)
(6.97893 2.88684e-20 1.56883)
(6.60086 -3.52483e-20 1.71488)
(6.19451 3.70786e-20 1.87076)
(5.75782 -3.28928e-20 2.03554)
(5.28871 1.17103e-20 2.20735)
(4.7853 -1.20782e-20 2.38316)
(4.24619 -1.26529e-20 2.55871)
(3.67092 -1.0791e-19 2.72846)
(3.06044 1.10961e-19 2.88564)
(2.41747 0 3.02263)
(1.75065 1.22373e-19 3.13119)
(1.04989 -1.34315e-19 3.20628)
(0.449673 8.29362e-21 3.1822)
(9.99089 7.67056e-23 0.068889)
(9.97039 -2.43765e-21 0.135045)
(9.93285 -5.31414e-21 0.200226)
(9.87702 2.65879e-21 0.26694)
(9.80427 0 0.337445)
(9.71494 7.11943e-22 0.413436)
(9.60823 -7.27856e-22 0.496063)
(9.48298 3.04963e-21 0.585878)
(9.3382 3.1702e-21 0.682773)
(9.17314 0 0.786115)
(8.98736 2.12745e-23 0.895084)
(8.78066 -3.54142e-21 1.00908)
(8.55298 -3.71554e-21 1.12804)
(8.30425 0 1.25253)
(8.03422 -8.27264e-21 1.38374)
(7.7423 8.46621e-21 1.52324)
(7.4275 0 1.67268)
(7.08835 -4.66001e-21 1.83355)
(6.72292 2.47326e-20 2.00684)
(6.32886 2.17692e-22 2.19286)
(5.90347 2.16211e-20 2.391)
(5.44379 -4.58254e-20 2.59956)
(4.94684 5.89676e-20 2.81546)
(4.40987 7.49666e-20 3.03405)
(3.83085 -1.03892e-19 3.24887)
(3.20918 5.38517e-20 3.45151)
(2.54611 0 3.63187)
(1.85028 -1.18773e-19 3.77826)
(1.10956 2.46262e-19 3.88198)
(0.473179 -1.27709e-19 3.86237)
(9.99096 4.86519e-21 0.0766522)
(9.97086 4.97987e-21 0.150736)
(9.93438 8.00105e-21 0.224373)
(9.88049 -5.58586e-21 0.300046)
(9.81053 3.39377e-21 0.380067)
(9.72478 2.80784e-21 0.466352)
(9.62243 7.10061e-22 0.560249)
(9.50243 1.49684e-21 0.6624)
(9.36384 0 0.772681)
(9.20598 0 0.89037)
(9.02844 3.37071e-21 1.01453)
(8.83105 0 1.14449)
(8.61376 3.70569e-21 1.28016)
(8.37648 1.16007e-20 1.42223)
(8.11894 -1.20974e-20 1.5721)
(7.84048 8.31706e-21 1.73166)
(7.54001 0 1.90298)
(7.21589 4.63752e-21 2.08801)
(6.8659 -9.70914e-21 2.28826)
(6.48725 -1.0163e-20 2.50457)
(6.07657 2.4041e-22 2.73685)
(5.62996 0 2.98383)
(5.14312 0 3.24272)
(4.61157 -6.24305e-21 3.50882)
(4.03115 0 3.77507)
(3.39889 0 4.03157)
(2.71352 0 4.26549)
(1.98266 5.72366e-20 4.46086)
(1.19086 -5.90957e-20 4.60378)
(0.50539 0 4.59655)
(9.99113 -4.94049e-21 0.084265)
(9.9717 -5.0567e-21 0.16598)
(9.9366 -4.63023e-21 0.247634)
(9.88496 -2.92375e-22 0.331801)
(9.81814 -2.70859e-21 0.420878)
(9.7364 -4.87325e-21 0.516958)
(9.63895 -5.03039e-21 0.621564)
(9.52481 1.4898e-21 0.735422)
(9.39314 1.56186e-21 0.858391)
(9.24332 -1.5962e-21 0.989663)
(9.075 -6.74144e-21 1.1282)
(8.88804 6.96909e-21 1.27324)
(8.68242 -7.32222e-21 1.4247)
(8.45806 3.68431e-21 1.58338)
(8.2147 -7.88994e-21 1.75093)
(7.95167 4.08035e-21 1.92956)
(7.66782 -1.73754e-20 2.12182)
(7.36141 -3.67395e-22 2.33017)
(7.03001 1.8549e-20 2.55676)
(6.67044 9.64943e-21 2.80313)
(6.2787 1.03271e-20 3.06994)
(5.84993 5.23744e-21 3.35672)
(5.37838 0 3.66142)
(4.8575 -5.24616e-20 3.97987)
(4.28034 4.77656e-20 4.30502)
(3.64042 -3.06981e-21 4.62598)
(2.93231 0 4.92728)
(2.16084 0 5.18774)
(1.30482 2.84674e-20 5.3858)
(0.551748 -2.94618e-20 5.40335)
(9.99138 4.80291e-21 0.0916236)
(9.97281 0 0.180637)
(9.93937 -4.72314e-21 0.269867)
(9.89028 5.5471e-21 0.362046)
(9.82693 -6.67016e-22 0.459671)
(9.74958 -2.73017e-21 0.564994)
(9.65752 8.55588e-21 0.679691)
(9.54983 -4.45858e-21 0.80456)
(9.42575 3.06485e-21 0.939445)
(9.28476 -4.7369e-21 1.08345)
(9.12656 0 1.23544)
(8.95108 0 1.39457)
(8.75833 -3.59414e-21 1.56077)
(8.54831 -3.81607e-21 1.73496)
(8.32077 1.15642e-20 1.91899)
(8.07511 -1.21969e-20 2.11546)
(7.81021 8.3115e-21 2.32738)
(7.5243 -2.62642e-20 2.55781)
(7.21487 9.05342e-21 2.80964)
(6.87848 -9.5914e-21 3.08525)
(6.51065 4.84284e-21 3.38635)
(6.10565 1.5104e-20 3.71366)
(5.65628 2.14194e-20 4.06647)
(5.15373 -4.41415e-20 4.44196)
(4.58761 -2.91033e-22 4.83416)
(3.94662 2.66641e-20 5.23237)
(3.21884 -2.55509e-20 5.6193)
(2.40295 -1.00935e-21 5.96809)
(1.46761 3.99873e-20 6.24612)
(0.620666 -1.3892e-20 6.30857)
(9.99168 -3.43013e-23 0.0986521)
(9.97414 -4.87791e-21 0.19459)
(9.94259 5.35336e-21 0.290945)
(9.89631 -4.81284e-21 0.390629)
(9.83673 -5.95103e-21 0.496258)
(9.76415 1.16421e-20 0.610227)
(9.6779 -4.96269e-21 0.734342)
(9.57717 -1.45336e-21 0.86947)
(9.46129 1.52432e-21 1.01543)
(9.32983 -1.56266e-21 1.17125)
(9.18258 3.22815e-21 1.33568)
(9.01953 0 1.50781)
(8.84077 6.9509e-21 1.68756)
(8.64638 -1.08868e-20 1.87596)
(8.43622 -1.41978e-22 2.07508)
(8.2098 7.79623e-21 2.28788)
(7.96612 0 2.51783)
(7.70352 8.58848e-21 2.76865)
(7.41955 1.32617e-20 3.04399)
(7.11075 -1.83966e-20 3.34726)
(6.77241 1.39811e-20 3.68146)
(6.39819 1.97104e-20 4.04891)
(5.97971 -2.01383e-20 4.45094)
(5.50601 0 4.88716)
(4.96294 0 5.35429)
(4.3331 2.23412e-20 5.84402)
(3.59502 -4.3836e-20 6.33972)
(2.73573 2.4458e-20 6.81023)
(1.70477 1.2382e-20 7.20866)
(0.726399 -2.57388e-20 7.35088)
(9.99202 -4.76763e-21 0.105293)
(9.97564 9.71598e-21 0.207744)
(9.94618 0 0.310753)
(9.90295 1.05511e-20 0.417414)
(9.8474 1.08595e-20 0.530471)
(9.7799 -6.12399e-21 0.652448)
(9.69985 1.40692e-21 0.785267)
(9.60653 -1.43693e-21 0.929848)
(9.49939 -5.93822e-21 1.08599)
(9.37808 -3.11346e-21 1.25263)
(9.24249 3.17952e-21 1.4284)
(9.09271 6.57945e-21 1.61233)
(8.92894 -1.20484e-22 1.80432)
(8.75135 1.37542e-22 2.00547)
(8.55998 -7.46597e-21 2.21808)
(8.35451 -7.71551e-21 2.4454)
(8.13416 4.92445e-23 2.69139)
(7.89756 0 2.96037)
(7.64252 -1.34753e-22 3.25682)
(7.36582 1.76539e-20 3.58523)
(7.06289 -1.80183e-20 3.95006)
(6.72733 0 4.35561)
(6.35018 -1.92167e-20 4.80591)
(5.91897 1.96155e-20 5.30424)
(5.41623 -2.25396e-20 5.85212)
(4.818 4.35385e-20 6.44716)
(4.0903 -1.98707e-20 7.07871)
(3.20022 2.26778e-20 7.71773)
(2.06016 -2.20526e-20 8.3053)
(0.89621 -2.3045e-20 8.59775)
(9.99239 7.36666e-23 0.111501)
(9.97727 -4.91338e-21 0.220021)
(9.95006 3.09396e-22 0.329191)
(9.91008 -4.35915e-23 0.442282)
(9.8588 -5.56185e-21 0.562163)
(9.79665 6.74066e-22 0.691477)
(9.72312 -7.57998e-21 0.832245)
(9.6376 -2.81834e-21 0.985429)
(9.53964 4.46564e-21 1.15079)
(9.429 2.98167e-21 1.32719)
(9.30569 6.29792e-21 1.51314)
(9.16989 -3.34623e-21 1.70758)
(9.02194 -1.68615e-20 1.91037)
(8.86216 1.05009e-20 2.12269)
(8.69077 0 2.34697)
(8.50774 0 2.58676)
(8.31263 2.14827e-22 2.84641)
(8.10446 -1.18852e-20 3.1308)
(7.88154 -3.61765e-23 3.44519)
(7.64125 1.27552e-20 3.79515)
(7.37966 -3.45101e-20 4.1866)
(7.091 3.56049e-23 4.62603)
(6.76682 -1.80144e-20 5.12061)
(6.39458 0 5.67833)
(5.95533 2.07697e-20 6.3078)
(5.42027 -3.03721e-20 7.01713)
(4.74253 4.77178e-21 7.81076)
(3.86076 8.87524e-22 8.67847)
(2.61727 1.03232e-21 9.57315)
(1.19096 -1.71812e-20 10.185)
(9.99279 9.22843e-21 0.117243)
(9.979 7.45929e-23 0.231356)
(9.95418 -4.56353e-21 0.346175)
(9.91761 -5.35737e-21 0.465133)
(9.87079 0 0.591214)
(9.81422 0 0.727169)
(9.74747 6.18349e-21 0.875104)
(9.67005 1.0564e-20 1.03601)
(9.58163 5.76888e-21 1.20961)
(9.48209 -4.53099e-21 1.39466)
(9.37153 -1.53827e-21 1.58957)
(9.25028 -1.1503e-22 1.79316)
(9.11881 1.30816e-22 2.00524)
(8.97763 3.421e-21 2.22699)
(8.8272 -3.49128e-21 2.46097)
(8.66782 7.13643e-21 2.71092)
(8.49947 7.55764e-21 2.98151)
(8.32173 3.8908e-21 3.27807)
(8.13365 3.99916e-21 3.60651)
(7.93352 4.1014e-21 3.97329)
(7.71861 -3.99973e-21 4.38569)
(7.48466 0 4.85219)
(7.22514 -8.34918e-21 5.38309)
(6.92978 1.25519e-20 5.99145)
(6.58196 0 6.69427)
(6.154 0 7.51427)
(5.59409 -7.3583e-21 8.482)
(4.81601 1.45769e-20 9.63602)
(3.55006 -2.92677e-21 11.0218)
(1.76554 -1.0133e-20 12.4243)
(9.99321 -1.21227e-22 0.122489)
(9.98082 3.69559e-23 0.2417)
(9.95849 4.64753e-23 0.361637)
(9.92545 3.11533e-22 0.485876)
(9.88325 -3.18142e-22 0.617506)
(9.83242 0 0.759372)
(9.77266 -6.77563e-22 0.913648)
(9.70357 6.18413e-22 1.08134)
(9.62496 -5.7627e-21 1.26214)
(9.53681 -5.84848e-21 1.45468)
(9.43937 0 1.65725)
(9.33307 -1.25169e-20 1.86854)
(9.21855 6.51404e-21 2.0883)
(9.09653 0 2.31766)
(8.96774 0 2.55921)
(8.83284 -7.69671e-23 2.81682)
(8.69234 -7.17816e-21 3.09535)
(8.54647 3.62029e-21 3.40043)
(8.39519 7.52167e-21 3.73839)
(8.238 -1.15579e-20 4.11633)
(8.07385 7.97544e-21 4.54244)
(7.90084 7.74237e-21 5.02665)
(7.71584 -7.87421e-21 5.58163)
(7.51364 3.5281e-21 6.22445)
(7.28539 -1.4914e-20 6.97943)
(7.01565 7.35554e-21 7.88341)
(6.67185 -4.15256e-21 8.99684)
(6.19547 4.40226e-21 10.4304)
(5.2586 1.57767e-21 12.4597)
(3.07166 -8.57505e-22 16.0728)
(-0.369842 3.1443e-20 0.357315)
(-0.999621 0 0.360595)
(-1.69319 1.49591e-20 0.347956)
(-2.38451 4.40172e-20 0.326436)
(-3.05458 -2.12952e-20 0.295749)
(-3.67874 1.40517e-20 0.255025)
(-4.22688 -1.36603e-20 0.203513)
(-4.66477 -3.32939e-21 0.141167)
(-4.95729 1.59343e-21 0.0690358)
(-5.07275 0 -0.010822)
(-4.98771 0 -0.0961743)
(-4.6889 0 -0.181978)
(-4.18286 6.79527e-23 -0.259573)
(-3.49514 5.79882e-23 -0.321081)
(-2.66585 9.64687e-23 -0.361462)
(-1.74231 -2.81077e-22 -0.37957)
(-0.761913 6.21269e-22 -0.378126)
(0.23716 -3.09626e-22 -0.360086)
(1.17545 0 -0.331977)
(2.08092 1.33813e-22 -0.299049)
(2.92124 -1.01143e-22 -0.264721)
(3.68668 0 -0.23092)
(4.37455 -2.77467e-23 -0.198992)
(4.98586 4.28238e-24 -0.169766)
(5.52424 0 -0.14365)
(5.99496 0 -0.120744)
(6.40413 -2.82262e-24 -0.100949)
(6.75815 -3.29955e-24 -0.0840717)
(7.06338 -2.3859e-25 -0.0699563)
(7.38414 0 -0.0603191)
(-0.377769 -2.8119e-19 0.961201)
(-1.02979 1.52904e-20 0.981922)
(-1.74877 -4.46509e-20 0.966885)
(-2.46245 -7.30062e-20 0.931527)
(-3.1545 4.96134e-20 0.870179)
(-3.79973 -1.39725e-20 0.777153)
(-4.36661 5.46865e-20 0.648059)
(-4.81885 -1.6643e-20 0.481372)
(-5.11911 1.09488e-20 0.279885)
(-5.23402 -2.24665e-20 0.0511828)
(-5.13955 -1.2026e-20 -0.193622)
(-4.8193 1.03911e-20 -0.43519)
(-4.28113 -4.12862e-21 -0.650724)
(-3.55356 4.05067e-21 -0.820525)
(-2.68076 -2.90217e-22 -0.933336)
(-1.7135 1.12906e-21 -0.988219)
(-0.689756 -1.23733e-21 -0.993067)
(0.338595 9.36714e-23 -0.957002)
(1.30328 1.37013e-22 -0.894395)
(2.23336 -4.42983e-22 -0.816781)
(3.09684 1.64869e-22 -0.732983)
(3.88516 5.06316e-23 -0.648457)
(4.59607 4.13291e-23 -0.567027)
(5.23078 -1.7671e-23 -0.491147)
(5.79297 1.26287e-24 -0.422171)
(6.28776 -1.23135e-24 -0.36063)
(6.72099 2.60051e-24 -0.306501)
(7.09869 3.73003e-24 -0.259463)
(7.4261 7.52865e-24 -0.219205)
(7.76715 -2.10762e-25 -0.187641)
(-0.382609 0 1.63708)
(-1.05272 -1.51331e-20 1.6641)
(-1.80101 -3.96251e-22 1.63631)
(-2.54361 0 1.57531)
(-3.26832 0 1.4702)
(-3.94903 -1.39931e-20 1.31074)
(-4.55171 0 1.08914)
(-5.03611 1.74066e-22 0.802654)
(-5.36011 0 0.455937)
(-5.4858 -1.52031e-21 0.0621833)
(-5.38555 1.3948e-21 -0.358459)
(-5.03853 -9.56981e-21 -0.772501)
(-4.45683 9.36707e-21 -1.13829)
(-3.67638 -3.57998e-21 -1.42177)
(-2.7498 7.58198e-22 -1.60528)
(-1.73503 2.8037e-21 -1.68956)
(-0.672512 3.83247e-22 -1.6892)
(0.381069 -4.87138e-22 -1.62254)
(1.36193 -4.13132e-22 -1.51481)
(2.3002 1.88626e-22 -1.38328)
(3.16589 1.2932e-22 -1.24157)
(3.95259 0 -1.0989)
(4.65944 -1.87879e-23 -0.961628)
(5.28876 1.83093e-23 -0.833808)
(5.845 0 -0.717636)
(6.33386 0 -0.613945)
(6.76149 6.28204e-24 -0.522648)
(7.13408 -1.24335e-23 -0.443116)
(7.45647 -1.99083e-23 -0.374497)
(7.79355 -4.10799e-25 -0.317228)
(-0.390655 0 2.35086)
(-1.0851 1.5437e-20 2.38098)
(-1.87193 -9.07792e-20 2.34118)
(-2.6553 2.35067e-19 2.25773)
(-3.42799 1.89679e-21 2.11266)
(-4.16133 -9.89922e-20 1.88944)
(-4.81652 7.18956e-21 1.57519)
(-5.34636 -6.79609e-21 1.16447)
(-5.70079 -3.42142e-21 0.662521)
(-5.83454 -2.14561e-20 0.0876332)
(-5.71395 -2.40259e-20 -0.529969)
(-5.3196 -9.85405e-21 -1.13496)
(-4.67164 9.33991e-21 -1.6627)
(-3.8169 0 -2.06397)
(-2.81834 0 -2.31587)
(-1.74145 0 -2.42264)
(-0.628105 5.03992e-22 -2.40729)
(0.455317 -3.82331e-22 -2.29972)
(1.45631 2.74718e-22 -2.13774)
(2.40345 0 -1.94617)
(3.27013 -3.44659e-22 -1.74267)
(4.05262 3.81046e-22 -1.53964)
(4.752 -6.39368e-23 -1.34563)
(5.3721 -3.83445e-23 -1.16589)
(5.91851 0 -1.00314)
(6.39767 5.89702e-24 -0.858267)
(6.81623 -6.45144e-24 -0.730912)
(7.1806 1.17062e-23 -0.619986)
(7.49542 2.76258e-23 -0.524015)
(7.82546 -7.86971e-25 -0.442457)
(-0.402558 2.61754e-19 3.09885)
(-1.12689 -1.39526e-19 3.13333)
(-1.95873 1.20194e-19 3.08654)
(-2.79158 0 2.98621)
(-3.62259 0 2.80455)
(-4.41792 -6.59351e-20 2.51642)
(-5.13144 1.08665e-19 2.10221)
(-5.70686 -5.33206e-20 1.55305)
(-6.08431 -2.76102e-20 0.875245)
(-6.21039 4.97584e-20 0.0945303)
(-6.04497 2.51343e-20 -0.743595)
(-5.58098 0 -1.55549)
(-4.8495 -7.90541e-21 -2.25124)
(-3.90987 8.62716e-21 -2.76785)
(-2.83445 -8.47407e-22 -3.07996)
(-1.69406 -6.82862e-22 -3.19797)
(-0.528867 1.86206e-21 -3.15461)
(0.578155 -1.25038e-21 -2.99536)
(1.59853 -1.33845e-21 -2.77045)
(2.55128 -4.02687e-22 -2.51285)
(3.4153 -2.71807e-22 -2.24348)
(4.18957 -1.69123e-22 -1.97757)
(4.87731 -5.63409e-24 -1.72542)
(5.48408 0 -1.4932)
(6.01678 0 -1.28387)
(6.48273 3.26495e-24 -1.09813)
(6.88908 -4.72452e-24 -0.935189)
(7.24252 2.41132e-24 -0.79338)
(7.54757 -3.8057e-23 -0.670573)
(7.8682 0 -0.565379)
(-0.416211 -7.3161e-21 3.8787)
(-1.17004 1.64198e-21 3.92204)
(-2.04526 2.25811e-21 3.87597)
(-2.92617 6.73368e-21 3.76521)
(-3.81281 -1.23516e-19 3.54909)
(-4.66388 5.37627e-20 3.19181)
(-5.42487 4.92412e-21 2.66588)
(-6.03001 -6.32412e-20 1.95916)
(-6.40975 -5.45094e-20 1.08043)
(-6.50291 8.51592e-20 0.0660798)
(-6.26622 2.66915e-20 -1.01529)
(-5.71629 0 -2.04482)
(-4.89583 -6.03832e-22 -2.90835)
(-3.87584 7.70943e-21 -3.53267)
(-2.73477 -5.85364e-21 -3.89363)
(-1.54472 6.76251e-22 -4.01051)
(-0.341328 1.92077e-21 -3.92513)
(0.773069 -1.08029e-21 -3.70385)
(1.80418 -1.00091e-21 -3.4082)
(2.75385 1.37334e-21 -3.07859)
(3.60773 4.99013e-22 -2.73924)
(4.36715 -3.70375e-22 -2.40788)
(5.03736 9.2523e-23 -2.09632)
(5.62562 4.29276e-23 -1.81129)
(6.14008 0 -1.55571)
(6.5889 -8.78167e-24 -1.32983)
(6.97973 3.42691e-24 -1.13222)
(7.31947 0 -0.960499)
(7.61249 2.43483e-23 -0.811829)
(7.92128 -6.90879e-25 -0.683974)
(-0.425627 1.6728e-20 4.6797)
(-1.19646 -1.25296e-19 4.73837)
(-2.09879 1.21015e-19 4.70106)
(-3.00908 5.98187e-20 4.58492)
(-3.92966 -5.79153e-20 4.33385)
(-4.81164 0 3.90014)
(-5.59317 -3.85769e-21 3.24794)
(-6.20043 0 2.36263)
(-6.55526 0 1.25786)
(-6.58779 2.98466e-20 -0.0157898)
(-6.26176 2.49661e-20 -1.3564)
(-5.62164 -2.59362e-20 -2.60512)
(-4.72116 -8.50488e-21 -3.62756)
(-3.64062 9.6821e-21 -4.3462)
(-2.45961 -8.82917e-22 -4.74189)
(-1.24603 0 -4.84474)
(-0.0336681 1.16172e-21 -4.70475)
(1.06578 0 -4.41389)
(2.09037 0 -4.04273)
(3.02268 -7.108e-22 -3.63696)
(3.85474 9.31733e-22 -3.22475)
(4.5897 -4.23827e-22 -2.8264)
(5.23447 1.13356e-22 -2.45499)
(5.79772 0 -2.11754)
(6.28863 -7.6195e-23 -1.81662)
(6.71601 3.20822e-23 -1.5518)
(7.0878 4.4864e-24 -1.32081)
(7.41098 -1.04962e-24 -1.12046)
(7.68973 3.84567e-25 -0.947128)
(7.98435 -1.96105e-23 -0.79771)
(-0.42058 -1.65433e-20 5.47868)
(-1.17822 5.40457e-20 5.55879)
(-2.07238 1.40032e-20 5.53634)
(-2.97365 -6.38852e-20 5.41782)
(-3.88839 0 5.13025)
(-4.76227 -4.30077e-21 4.61341)
(-5.52864 -2.20022e-21 3.8226)
(-6.10715 0 2.74087)
(-6.41136 0 1.38941)
(-6.35831 3.26171e-20 -0.163043)
(-5.93711 2.91668e-20 -1.76963)
(-5.21576 0 -3.22871)
(-4.25781 -1.38053e-21 -4.39222)
(-3.14947 0 -5.18674)
(-1.96442 0 -5.60142)
(-0.759712 1.5932e-21 -5.67572)
(0.414134 -1.14985e-21 -5.4735)
(1.47864 0 -5.11001)
(2.47227 -1.06377e-21 -4.66195)
(3.36831 1.77389e-21 -4.17835)
(4.16317 -9.66313e-22 -3.69236)
(4.86128 4.32044e-22 -3.22707)
(5.47075 -2.56523e-22 -2.79666)
(6.00124 0 -2.4082)
(6.46255 7.58398e-23 -2.06365)
(6.86374 -3.4719e-23 -1.7617)
(7.21278 -1.76586e-24 -1.49912)
(7.51649 0 -1.2718)
(7.77872 0 -1.07531)
(8.05686 2.01989e-23 -0.905656)
(-0.388596 1.75678e-20 6.23697)
(-1.08351 -1.73512e-20 6.34279)
(-1.91602 3.34895e-20 6.33906)
(-2.75344 -8.64789e-21 6.22097)
(-3.60992 0 5.89791)
(-4.42896 8.58436e-20 5.2965)
(-5.14199 -6.8946e-20 4.36154)
(-5.66234 0 3.07201)
(-5.8942 0 1.45952)
(-5.73371 0 -0.382618)
(-5.2235 3.99739e-21 -2.24915)
(-4.44377 0 -3.89839)
(-3.46383 0 -5.17745)
(-2.37024 0 -6.02588)
(-1.22314 -5.33001e-21 -6.44313)
(-0.0660326 5.76915e-21 -6.47168)
(1.01187 1.25943e-21 -6.21018)
(2.02565 0 -5.77562)
(2.96007 0 -5.25142)
(3.79791 7.62219e-22 -4.69092)
(4.53753 -1.00417e-21 -4.13269)
(5.18436 -3.37451e-22 -3.60261)
(5.74728 3.13787e-22 -3.11578)
(6.23636 2.74819e-22 -2.67907)
(6.66145 0 -2.29366)
(7.03145 4.99771e-23 -1.9572)
(7.35393 -6.98489e-25 -1.6654)
(7.63526 1.21408e-24 -1.41321)
(7.87876 -2.31004e-23 -1.19538)
(8.13824 0 -1.00704)
(-0.318734 1.83819e-20 6.90084)
(-0.885317 6.88003e-22 7.03472)
(-1.58982 -8.7118e-20 7.05302)
(-2.29778 7.93454e-20 6.94093)
(-3.03603 -7.26971e-20 6.58938)
(-3.74919 -1.64588e-21 5.91048)
(-4.36995 3.8234e-20 4.83525)
(-4.80305 0 3.33405)
(-4.94019 0 1.45217)
(-4.64966 -5.29524e-21 -0.678562)
(-4.07279 0 -2.78066)
(-3.27422 0 -4.58627)
(-2.32273 1.24606e-20 -5.95118)
(-1.28995 -1.79021e-20 -6.83172)
(-0.224647 1.234e-21 -7.23027)
(0.806607 -1.37757e-20 -7.20836)
(1.78537 4.63062e-21 -6.89185)
(2.71121 -1.8933e-21 -6.39226)
(3.55762 1.1366e-21 -5.79497)
(4.3134 -1.11331e-21 -5.16138)
(4.97836 0 -4.53527)
(5.5586 4.17261e-22 -3.945)
(6.06317 0 -3.40631)
(6.50192 -1.68612e-22 -2.92569)
(6.88414 -9.05091e-23 -2.50336)
(7.21797 -6.94333e-23 -2.13587)
(7.51019 2.79531e-23 -1.81787)
(7.76634 -1.27094e-24 -1.54335)
(7.98905 2.19043e-23 -1.30632)
(8.22781 3.88709e-25 -1.1011)
(-0.206077 -2.01292e-20 7.40463)
(-0.569031 4.30306e-21 7.56869)
(-1.07349 4.56419e-20 7.61429)
(-1.58148 -2.64831e-20 7.51824)
(-2.13758 0 7.1519)
(-2.69054 -2.00495e-20 6.41096)
(-3.17845 4.35631e-20 5.20787)
(-3.49089 -1.00009e-19 3.49999)
(-3.49522 4.54033e-20 1.34964)
(-3.05601 5.36105e-21 -1.04675)
(-2.46041 2.78352e-20 -3.34208)
(-1.6993 -3.66492e-20 -5.26245)
(-0.84278 -7.52456e-21 -6.67444)
(0.0876192 5.73348e-21 -7.56856)
(0.987383 -3.78881e-21 -7.92369)
(1.87352 8.04452e-21 -7.86428)
(2.72956 2.67504e-21 -7.49943)
(3.5313 -7.6974e-23 -6.93956)
(4.26067 1.38883e-21 -6.27539)
(4.91027 -1.79592e-21 -5.57589)
(5.48128 5.22645e-22 -4.88935)
(5.98 -1.867e-22 -4.24611)
(6.41497 0 -3.66226)
(6.79503 0 -3.14367)
(7.12824 1.1007e-22 -2.68959)
(7.42141 0 -2.29543)
(7.68004 4.08103e-23 -1.95486)
(7.90853 -2.0023e-23 -1.661)
(8.10861 0 -1.40724)
(8.32484 2.47506e-23 -1.18715)
(-0.0547209 -3.43557e-20 7.67551)
(-0.135978 -3.25576e-20 7.87617)
(-0.371729 -6.42638e-21 7.9611)
(-0.61201 2.75588e-20 7.89796)
(-0.923331 -4.16207e-20 7.53817)
(-1.26181 7.11906e-21 6.76334)
(-1.5753 4.3821e-20 5.46923)
(-1.72415 -6.0819e-22 3.60104)
(-1.50402 0 1.20131)
(-0.948713 4.71355e-20 -1.44783)
(-0.410824 6.63904e-20 -3.88055)
(0.255004 0 -5.90387)
(0.952096 7.45397e-21 -7.30736)
(1.68076 -6.25544e-21 -8.16438)
(2.41335 -8.51096e-21 -8.50622)
(3.1361 8.2733e-21 -8.4177)
(3.82817 -2.63259e-21 -8.01)
(4.47207 1.91713e-21 -7.39689)
(5.05642 -1.6907e-22 -6.67573)
(5.57726 7.89372e-22 -5.92114)
(6.0368 0 -5.18482)
(6.44083 9.43374e-22 -4.49847)
(6.79653 3.27662e-22 -3.8782)
(7.11092 0 -3.32917)
(7.3901 0 -2.8496)
(7.63901 0 -2.43394)
(7.86142 -6.9374e-23 -2.07497)
(8.06029 2.19316e-23 -1.76515)
(8.23628 4.10099e-25 -1.49735)
(8.4285 -2.47065e-23 -1.26462)
(0.128961 3.69258e-20 7.64236)
(0.397796 -3.58533e-20 7.89069)
(0.488695 4.60283e-21 8.03789)
(0.563633 -4.00503e-20 8.02925)
(0.551347 2.90599e-20 7.71033)
(0.482359 0 6.95759)
(0.41941 0 5.60463)
(0.56248 1.24679e-20 3.50641)
(1.07651 0 0.812549)
(1.55622 0 -1.88418)
(1.97166 3.66324e-22 -4.32596)
(2.45302 0 -6.32058)
(2.96941 -7.87464e-21 -7.76192)
(3.50652 1.15879e-21 -8.62995)
(4.04112 1.08852e-20 -8.95962)
(4.56001 -3.69306e-21 -8.84399)
(5.05197 0 -8.39996)
(5.50815 -1.7191e-21 -7.74496)
(5.92336 2.50262e-22 -6.98071)
(6.2967 -9.9541e-22 -6.18549)
(6.63076 1.02756e-21 -5.41311)
(6.93001 -7.7981e-22 -4.69595)
(7.19935 -3.25916e-22 -4.04985)
(7.44318 0 -3.47918)
(7.66497 -1.51198e-22 -2.98132)
(7.86726 0 -2.54991)
(8.05177 -1.04955e-22 -2.17713)
(8.21975 4.86607e-23 -1.85498)
(8.37068 1.1044e-23 -1.57605)
(8.53785 8.26137e-26 -1.33302)
(0.367937 -3.57506e-20 7.22929)
(1.03779 1.8177e-20 7.56391)
(1.49023 -1.75866e-20 7.80983)
(1.88753 4.66689e-21 7.85883)
(2.20143 3.11204e-20 7.58078)
(2.45655 -3.15165e-20 6.84726)
(2.73715 0 5.46426)
(3.18486 -1.25962e-20 3.35584)
(3.77493 1.31646e-20 0.731033)
(4.1968 1.23834e-20 -2.06051)
(4.51971 -1.08947e-20 -4.58449)
(4.85385 -8.14361e-21 -6.62858)
(5.18456 1.67067e-20 -8.08511)
(5.50421 -1.23275e-20 -8.94473)
(5.80711 -4.81017e-21 -9.25731)
(6.0912 3.63264e-21 -9.11924)
(6.35639 0 -8.64973)
(6.60308 1.73231e-21 -7.96824)
(6.83223 -2.80706e-22 -7.1785)
(7.04557 0 -6.36031)
(7.24542 -7.19092e-22 -5.56822)
(7.4341 2.18813e-22 -4.83454)
(7.61342 -2.15564e-22 -4.17457)
(7.78442 2.48851e-22 -3.59201)
(7.94742 1.50677e-22 -3.08362)
(8.10217 -9.82919e-24 -2.64258)
(8.24815 1.14344e-22 -2.26078)
(8.38474 -4.85551e-23 -1.93007)
(8.51022 9.17802e-24 -1.64296)
(8.6518 0 -1.39203)
(0.723187 0 6.19984)
(1.82202 -1.75568e-20 6.86498)
(2.62123 -1.26016e-21 7.29821)
(3.31238 1.29371e-20 7.40736)
(3.9437 -1.08853e-20 7.16587)
(4.53161 8.58577e-21 6.44594)
(5.1387 5.6862e-20 5.06383)
(5.78467 -2.34874e-20 2.99783)
(6.43293 -2.54449e-20 0.417021)
(6.85382 -1.19867e-20 -2.31441)
(7.12724 -1.04676e-20 -4.80065)
(7.33272 -9.12977e-21 -6.81811)
(7.47667 2.87841e-20 -8.25331)
(7.56953 -7.29123e-21 -9.09041)
(7.62557 9.39223e-21 -9.38266)
(7.65941 0 -9.22836)
(7.68459 2.67606e-21 -8.74692)
(7.71176 1.72976e-21 -8.05726)
(7.74801 -4.41451e-21 -7.26235)
(7.79728 1.88266e-22 -6.44123)
(7.86098 -3.22753e-22 -5.64761)
(7.93858 9.05822e-23 -4.91297)
(8.02819 2.24696e-22 -4.25191)
(8.12701 -3.01958e-22 -3.66767)
(8.2319 5.31283e-23 -3.15674)
(8.33972 -2.20883e-22 -2.71229)
(8.44758 1.30133e-22 -2.32628)
(8.55304 0 -1.99073)
(8.65319 -4.97522e-23 -1.69835)
(8.76906 0 -1.44184)
(9.99365 -3.45174e-23 0.127303)
(9.98273 3.52509e-23 0.251185)
(9.96301 4.64448e-21 0.375792)
(9.9337 -2.96816e-22 0.504823)
(9.89632 6.07865e-22 0.641462)
(9.85151 -3.11177e-22 0.788633)
(9.79906 6.43874e-22 0.948566)
(9.73872 -5.97124e-21 1.12227)
(9.67039 -6.74724e-21 1.30937)
(9.59422 5.61908e-21 1.5084)
(9.51054 1.43017e-21 1.7175)
(9.41997 5.96668e-21 1.93521)
(9.32328 -6.00263e-21 2.16114)
(9.22143 0 2.39637)
(9.11544 0 2.64343)
(9.00639 6.50751e-21 2.90619)
(8.89533 -3.3454e-21 3.18957)
(8.78326 -1.29982e-22 3.49932)
(8.67118 3.39622e-21 3.84189)
(8.56002 -1.05752e-20 4.22462)
(8.45076 1.07328e-20 4.65601)
(8.34451 1.70633e-22 5.14648)
(8.24267 3.65498e-21 5.70946)
(8.14743 3.45152e-21 6.36332)
(8.06278 0 7.13473)
(7.99788 0 8.06501)
(7.97539 0 9.22313)
(8.11146 0 10.7292)
(8.94962 -2.30656e-22 12.7773)
(9.62471 -6.99332e-21 16.1161)
(9.99411 5.21133e-25 0.131691)
(9.98474 -5.32193e-25 0.259812)
(9.96776 -4.43755e-21 0.388621)
(9.94232 0 0.521919)
(9.90996 -2.93872e-22 0.662968)
(9.87137 3.00036e-22 0.814757)
(9.82647 -4.90592e-21 0.979556)
(9.77512 0 1.15837)
(9.71736 1.04238e-20 1.35074)
(9.65346 -1.34274e-21 1.55509)
(9.5839 2.74841e-21 1.7694)
(9.50943 -1.40627e-21 1.99203)
(9.431 5.85473e-21 2.22245)
(9.34979 -8.81688e-21 2.46156)
(9.26711 3.02699e-21 2.71179)
(9.18446 -3.14511e-21 2.97689)
(9.10345 3.09518e-21 3.26167)
(9.02586 -3.26416e-21 3.57174)
(8.9537 -6.52118e-21 3.9134)
(8.88938 3.27127e-21 4.29368)
(8.83591 -3.19796e-21 4.72068)
(8.79737 -6.34952e-21 5.20403)
(8.77965 0 5.75582)
(8.79203 0 6.3918)
(8.85034 0 7.13322)
(8.98432 0 8.00904)
(9.24712 0 9.05728)
(9.71126 1.01684e-22 10.3204)
(10.7088 0 11.7379)
(11.65 7.35557e-22 12.9194)
(9.9946 0 0.135569)
(9.98683 -8.37229e-21 0.267426)
(9.97268 1.28952e-20 0.399911)
(9.95125 0 0.536907)
(9.92404 1.41576e-22 0.681736)
(9.89185 -1.44538e-22 0.837435)
(9.85468 5.08678e-21 1.00629)
(9.81252 -3.03988e-22 1.18929)
(9.76554 -5.04461e-21 1.38589)
(9.71412 -1.28505e-21 1.59438)
(9.6589 1.31092e-21 1.81255)
(9.60073 -3.97315e-21 2.03859)
(9.54075 -2.75268e-21 2.27174)
(9.48033 7.11003e-21 2.51271)
(9.42107 0 2.76369)
(9.36485 -2.91188e-21 3.02823)
(9.31379 5.80413e-21 3.31085)
(9.27036 -3.14837e-23 3.61681)
(9.23752 -3.02681e-21 3.9519)
(9.21889 -2.92552e-21 4.32244)
(9.21915 0 4.73537)
(9.24461 5.8284e-21 5.19851)
(9.30414 0 5.72083)
(9.41069 -1.25369e-21 6.31264)
(9.58358 0 6.98519)
(9.85157 5.33514e-23 7.74846)
(10.255 2.13381e-22 8.60411)
(10.8087 -3.67538e-22 9.53618)
(11.6531 -1.21256e-23 10.4861)
(12.7402 5.95031e-22 11.2011)
(9.9951 -7.90456e-21 0.138889)
(9.98897 8.17462e-21 0.273929)
(9.97772 -1.04837e-22 0.409512)
(9.96038 0 0.549579)
(9.93845 -4.32383e-21 0.697493)
(9.91275 0 0.856321)
(9.88343 0 1.02836)
(9.85058 -4.64109e-21 1.21454)
(9.81448 0 1.41424)
(9.77564 4.24392e-21 1.62559)
(9.7348 -6.29669e-22 1.8462)
(9.69296 6.47347e-21 2.07404)
(9.65136 -5.16735e-21 2.3081)
(9.61157 6.58982e-21 2.54883)
(9.57543 -2.71006e-21 2.79813)
(9.54513 -1.32299e-21 3.05919)