/*--------------------------------*- C++ -*----------------------------------*\
| =========                 |                                                 |
| \\      /  F ield         | OpenFOAM: The Open Source CFD Toolbox           |
|  \\    /   O peration     | Version:  dev                                   |
|   \\  /    A nd           | Web:      www.OpenFOAM.org                      |
|    \\/     M anipulation  |                                                 |
\*---------------------------------------------------------------------------*/
FoamFile
{
    version     2.0;
    format      ascii;
    class       surfaceScalarField;
    location    "1.85";
    object      meshPhi;
}
// * * * * * * * * * * * * * * * * * * * * * * * * * * * * * * * * * * * * * //

dimensions      [0 3 -1 0 0 0 0];

internalField   nonuniform List<scalar> 
879
(
3.10405e-05
1.90649e-06
5.35964e-06
3.2078e-05
2.02762e-06
6.00251e-05
5.69707e-06
8.87148e-06
3.32005e-05
2.1433e-06
6.21464e-05
6.02995e-06
8.63354e-05
9.39781e-06
1.254e-05
3.4401e-05
2.25228e-06
6.44295e-05
6.34329e-06
8.95468e-05
9.90555e-06
0.000110749
1.32377e-05
1.64687e-05
3.56835e-05
2.35227e-06
6.68684e-05
6.63294e-06
9.29954e-05
1.03786e-05
0.000115052
1.39027e-05
0.00013397
1.73375e-05
2.06848e-05
3.70561e-05
2.44275e-06
6.94776e-05
6.89674e-06
9.66808e-05
1.0811e-05
0.000119673
1.45147e-05
0.000139382
1.81469e-05
0.000156658
2.17123e-05
2.50961e-05
3.85283e-05
2.52146e-06
7.22748e-05
7.12674e-06
0.000100623
1.11885e-05
0.000124607
1.50551e-05
0.000145182
1.88698e-05
0.00016319
2.26408e-05
0.00017943
2.62762e-05
0.000194692
2.95816e-05
3.22568e-05
4.00991e-05
2.58386e-06
7.52584e-05
7.31057e-06
0.000104821
1.14972e-05
0.000129852
1.55107e-05
0.000151328
1.94956e-05
0.000170123
2.34667e-05
0.000187036
2.73385e-05
0.000202835
3.09163e-05
0.000218135
3.39673e-05
3.62027e-05
4.17625e-05
2.62797e-06
7.84188e-05
7.44533e-06
0.000109268
1.17334e-05
0.000135407
1.58695e-05
0.00015783
2.00047e-05
0.000177436
2.41584e-05
0.000195056
2.82521e-05
0.000211444
3.211e-05
0.000227207
3.54984e-05
0.000242931
3.81772e-05
0.000259169
3.98585e-05
4.02709e-05
4.35172e-05
2.65217e-06
8.17601e-05
7.52561e-06
0.000113975
1.18858e-05
0.000141276
1.61142e-05
0.000164684
2.03743e-05
0.000185117
2.46938e-05
0.000203424
2.89983e-05
0.000220367
3.31255e-05
0.0002366
3.68582e-05
0.000252664
3.99585e-05
0.000269037
4.21665e-05
0.000285907
4.33274e-05
0.000303319
4.33449e-05
4.21226e-05
4.53564e-05
2.65407e-06
8.52693e-05
7.54237e-06
0.000118921
1.19399e-05
0.000147432
1.62374e-05
0.000171853
2.05998e-05
0.000193127
2.5056e-05
0.000212114
2.9547e-05
0.000229582
3.39264e-05
0.000246197
3.79888e-05
0.000262511
4.15156e-05
0.000278951
4.42867e-05
0.000295711
4.61553e-05
0.000312856
4.70227e-05
0.000330172
4.69118e-05
4.58774e-05
4.72669e-05
2.63274e-06
8.89203e-05
7.49606e-06
0.000124068
1.18981e-05
0.000153842
1.62331e-05
0.00017931
2.06653e-05
0.000201432
2.52265e-05
0.00022108
2.98782e-05
0.000239033
3.44829e-05
0.000255958
3.88471e-05
0.000272402
4.27824e-05
0.000288764
4.60975e-05
0.000305264
4.86585e-05
0.000321944
5.038e-05
0.000338646
5.12321e-05
0.000355015
5.1349e-05
0.000370657
5.0867e-05
4.98076e-05
4.92329e-05
2.5879e-06
9.26928e-05
7.3861e-06
0.000129395
1.1757e-05
0.000160469
1.60903e-05
0.000187001
2.05622e-05
0.000209962
2.52039e-05
0.000230251
2.99776e-05
0.000248649
3.47664e-05
0.000265814
3.93959e-05
0.000282287
4.37023e-05
0.000298458
4.75171e-05
0.000314548
5.07237e-05
0.000330596
5.32443e-05
0.00034647
5.50323e-05
0.000361882
5.62094e-05
0.000376455
5.68745e-05
0.000389619
5.71285e-05
0.000400786
5.72199e-05
5.72463e-05
5.12295e-05
2.51867e-06
9.65451e-05
7.20995e-06
0.000134843
1.1516e-05
0.000167235
1.58161e-05
0.000194841
2.02938e-05
0.000218644
2.49815e-05
0.000239551
2.98317e-05
0.000258347
3.47592e-05
0.000275683
3.96165e-05
0.000292107
4.42311e-05
0.000308002
4.84698e-05
0.00032357
5.22579e-05
0.000338869
5.54941e-05
0.000353786
5.81187e-05
0.000368077
6.0255e-05
0.000381399
6.19779e-05
0.000393338
6.33278e-05
0.000403427
6.44628e-05
0.000411131
6.5583e-05
0.000415978
6.67551e-05
6.73763e-05
5.32341e-05
2.43055e-06
0.000100421
6.9746e-06
0.000140338
1.11807e-05
0.000174067
1.54214e-05
0.000202749
1.98662e-05
0.000227387
2.45516e-05
0.000248881
2.94403e-05
0.000268032
3.44556e-05
0.000285504
3.94751e-05
0.000301815
4.43379e-05
0.000317352
4.89207e-05
0.000332336
5.31837e-05
0.000346827
5.70179e-05
0.000360735
6.03484e-05
0.000373868
6.32826e-05
0.000385971
6.58545e-05
0.000396693
6.80977e-05
0.000405635
7.01745e-05
0.000412471
7.22662e-05
0.000416835
7.43e-05
5.52273e-05
2.32583e-06
0.000104269
6.69028e-06
0.0001458
1.07634e-05
0.000180876
1.49081e-05
0.000210626
1.92829e-05
0.000236073
2.39242e-05
0.000258129
2.8808e-05
0.000277606
3.38587e-05
0.000295176
3.8964e-05
0.000311344
4.39987e-05
0.000326488
4.88402e-05
0.000340861
5.34451e-05
0.000354539
5.7726e-05
0.000367457
6.15961e-05
0.000379494
6.51172e-05
0.000390448
6.8321e-05
0.000400028
7.12551e-05
0.000407949
7.40444e-05
0.000413977
7.68299e-05
7.93841e-05
5.717e-05
2.20777e-06
0.000108027
6.36509e-06
0.000151143
1.0275e-05
0.000187537
1.42908e-05
0.000218337
1.85588e-05
0.000244571
2.31178e-05
0.000267176
2.79487e-05
0.000286969
3.29669e-05
0.000304617
3.8084e-05
0.000320631
4.32061e-05
0.000335387
4.82052e-05
0.000349163
5.30077e-05
0.000362072
5.75541e-05
0.000374074
6.17778e-05
0.000385093
6.56933e-05
0.000394983
6.93324e-05
0.000403539
7.27328e-05
0.000410573
7.59672e-05
0.000415922
7.91142e-05
8.19434e-05
5.90202e-05
2.08036e-06
0.000111616
6.00916e-06
0.000156259
9.72843e-06
0.000193934
1.35846e-05
0.000225757
1.77171e-05
0.000252769
2.21482e-05
0.00027592
2.68712e-05
0.000296017
3.18026e-05
0.00031374
3.6852e-05
0.000329621
4.19537e-05
0.000344042
4.69843e-05
0.000357277
5.18472e-05
0.000369473
5.64993e-05
0.000380642
6.09005e-05
0.000390745
6.50361e-05
0.000399699
6.89155e-05
0.000407384
7.2562e-05
0.000413676
7.60154e-05
0.000418475
7.93204e-05
8.22948e-05
6.0719e-05
1.94141e-06
0.000114956
5.62855e-06
0.000161052
9.14396e-06
0.000199956
1.28057e-05
0.000232785
1.67673e-05
0.000260566
2.10373e-05
0.000284261
2.55913e-05
0.000304678
3.03738e-05
0.000322496
3.52817e-05
0.00033828
4.02469e-05
0.000352423
4.51769e-05
0.000365191
4.9982e-05
0.000376756
5.46152e-05
0.000387197
5.90342e-05
0.000396522
6.32154e-05
0.0004047
6.71523e-05
0.000411669
7.08515e-05
0.000417368
7.43299e-05
0.00042175
7.76097e-05
8.05871e-05
6.22193e-05
1.79685e-06
0.000117969
5.22851e-06
0.00016545
8.52749e-06
0.000205523
1.19792e-05
0.000239326
1.57278e-05
0.000267877
1.97916e-05
0.00029212
2.41237e-05
0.000312886
2.86762e-05
0.000330849
3.33666e-05
0.000346577
3.81124e-05
0.000360489
4.28427e-05
0.000372876
4.74796e-05
0.000383939
5.19684e-05
0.000393795
5.62657e-05
0.000402497
6.03413e-05
0.000410057
6.41779e-05
0.000416465
6.77685e-05
0.000421704
7.11145e-05
0.000425768
7.42227e-05
7.70615e-05
6.35329e-05
1.65171e-06
0.000120627
4.81796e-06
0.000169392
7.88603e-06
0.000210592
1.11104e-05
0.000245327
1.46088e-05
0.000274634
1.84097e-05
0.000299436
2.24709e-05
0.000320566
2.67332e-05
0.000338721
3.11328e-05
0.000354465
3.55914e-05
0.00036824
4.00392e-05
0.000380365
4.44093e-05
0.000391064
4.86462e-05
0.000400487
5.27051e-05
0.000408723
5.65515e-05
0.000415824
6.01609e-05
0.000421817
6.35174e-05
0.000426721
6.66128e-05
0.000430555
6.94452e-05
7.20261e-05
6.46895e-05
1.50845e-06
0.00012295
4.40273e-06
0.000172864
7.21787e-06
0.000215116
1.01862e-05
0.00025074
1.34067e-05
0.000280776
1.69027e-05
0.00030615
2.06423e-05
0.000327687
2.45687e-05
0.000346097
2.86194e-05
0.000361953
3.27255e-05
0.000375708
3.68212e-05
0.0003877
4.08454e-05
0.00039818
4.47447e-05
0.000407322
4.84744e-05
0.000415249
5.19978e-05
0.000422042
5.52863e-05
0.000427761
5.83188e-05
0.000432449
6.10812e-05
0.000436147
6.35665e-05
6.58196e-05
6.56949e-05
1.36202e-06
0.000124954
3.97389e-06
0.000175858
6.51485e-06
0.000219059
9.20025e-06
0.000255536
1.21157e-05
0.000286298
1.52763e-05
0.000312272
1.86544e-05
0.000334281
2.21999e-05
0.000353029
2.58544e-05
0.000369099
2.95556e-05
0.000382951
3.32434e-05
0.000394944
3.68617e-05
0.000405346
4.03603e-05
0.000414357
4.36959e-05
0.000422122
4.68317e-05
0.00042875
4.97377e-05
0.000434322
5.23905e-05
0.000438905
5.47729e-05
0.000442553
5.68751e-05
5.87671e-05
6.65178e-05
1.20517e-06
0.000126626
3.51848e-06
0.000178396
5.77062e-06
0.000222465
8.15088e-06
0.000259769
1.07333e-05
0.000291276
1.35285e-05
0.000317894
1.65121e-05
0.000340439
1.964e-05
0.000359612
2.28597e-05
0.000375997
2.61158e-05
0.000390064
2.93542e-05
0.000402185
3.2524e-05
0.000412644
3.55795e-05
0.000421661
3.84798e-05
0.000429401
4.11901e-05
0.000435992
4.36809e-05
0.000441534
4.59286e-05
0.000446108
4.79154e-05
0.000449779
4.96306e-05
5.11607e-05
6.7168e-05
1.03757e-06
0.000128006
3.03234e-06
0.000180573
4.97638e-06
0.000225468
7.02897e-06
0.000263587
9.25233e-06
0.000295857
1.16546e-05
0.000323164
1.42146e-05
0.00034631
1.68945e-05
0.000365989
1.96488e-05
0.000382786
2.24293e-05
0.000397177
2.51886e-05
0.000409542
2.78821e-05
0.000420182
3.04689e-05
0.00042933
3.29124e-05
0.000437166
3.51807e-05
0.000443834
3.72467e-05
0.000449447
3.90884e-05
0.000454095
4.06889e-05
0.000457854
4.20381e-05
4.32294e-05
6.77213e-05
8.57807e-07
0.000129223
2.5102e-06
0.000182549
4.12284e-06
0.000228255
5.82342e-06
0.000267191
7.662e-06
0.000300249
9.6449e-06
0.000328289
1.17546e-05
0.000352096
1.396e-05
0.000372356
1.62233e-05
0.000389652
1.85042e-05
0.000404463
2.0763e-05
0.000417178
2.29619e-05
0.000428106
2.50661e-05
0.000437493
2.70443e-05
0.000445531
2.88688e-05
0.000452374
3.0516e-05
0.000458143
3.19668e-05
0.000462939
3.32062e-05
0.000466842
3.42258e-05
3.51159e-05
6.82695e-05
6.64322e-07
0.000130437
1.94695e-06
0.000184532
3.20135e-06
0.000231064
4.52303e-06
0.000270838
5.94966e-06
0.000304716
7.48595e-06
0.000333531
9.11848e-06
0.000358053
1.08232e-05
0.000378959
1.25708e-05
0.000396828
1.43298e-05
0.000412143
1.6069e-05
0.000425296
1.77584e-05
0.000436605
1.93704e-05
0.000446324
2.08798e-05
0.000454653
2.22642e-05
0.000461755
2.35048e-05
0.000467757
2.45858e-05
0.000472765
2.54953e-05
0.000476863
2.62265e-05
2.68576e-05
6.89179e-05
4.56035e-07
0.000131836
1.33895e-06
0.000186767
2.20515e-06
0.000234175
3.11785e-06
0.000274832
4.10215e-06
0.00030957
5.16125e-06
0.000339204
6.28601e-06
0.000364489
7.46005e-06
0.000386096
8.66311e-06
0.000404601
9.87347e-06
0.000420487
1.10693e-05
0.000434153
1.22296e-05
0.00044592
1.33349e-05
0.000456049
1.43671e-05
0.000464748
1.53105e-05
0.000472182
1.61514e-05
0.000478485
1.68786e-05
0.000483766
1.74835e-05
0.00048811
1.79613e-05
1.83693e-05
6.97891e-05
2.32842e-07
0.000133637
6.85084e-07
0.000189536
1.13059e-06
0.000237913
1.60053e-06
0.000279518
2.10735e-06
0.000315167
2.65267e-06
0.000345663
3.23187e-06
0.000371753
3.83658e-06
0.000394106
4.45642e-06
0.000413296
5.08017e-06
0.000429809
5.6965e-06
0.000444047
6.29447e-06
0.000456337
6.86379e-06
0.000466943
7.39503e-06
0.000476078
7.8798e-06
0.000483912
8.31085e-06
0.00049058
8.68224e-06
0.000496194
8.98948e-06
0.00050084
9.23031e-06
9.43386e-06
7.10509e-05
0.000136105
0.000193147
0.000242594
0.000285193
0.00032176
0.000353099
0.000379961
0.000403017
0.000422849
0.000439946
0.000454717
0.000467493
0.000478543
0.000488085
0.00049629
0.000503297
0.000509218
0.000514143
)
;

boundaryField
{
    inlet
    {
        type            calculated;
        value           uniform 0;
    }
    outlet
    {
        type            calculated;
        value           nonuniform 0();
    }
    flap
    {
        type            calculated;
        value           nonuniform 0();
    }
    upperWall
    {
        type            calculated;
        value           nonuniform List<scalar> 
20
(
0
0
0
0
0
0
0
0
0
0
-1.0701e-14
0
0
0
0
0
0
0
0
0
)
;
    }
    lowerWall
    {
        type            calculated;
        value           nonuniform 0();
    }
    frontAndBack
    {
        type            empty;
        value           nonuniform 0();
    }
    procBoundary0to1
    {
        type            processor;
        value           nonuniform List<scalar> 
18
(
0.000416917
0.000417947
7.56246e-05
0.000417828
0.000419395
0.000421693
0.000424786
0.000428674
0.000433376
0.000438922
0.000445328
0.000452595
0.00046075
0.000469858
0.000480041
0.000491497
0.000504489
0.000518035
)
;
    }
    procBoundary0to3
    {
        type            processor;
        value           nonuniform List<scalar> 
34
(
-1.79149e-06
-5.05595e-06
5.80978e-05
-8.37486e-06
8.34067e-05
-1.18586e-05
0.000106813
-1.55978e-05
0.000129028
-1.95944e-05
0.000150673
-2.37941e-05
0.000172387
-2.80717e-05
-3.02321e-05
0.00020966
-3.38416e-05
0.000233609
-3.72144e-05
-3.66047e-05
0.000276052
-3.92134e-05
-3.64943e-05
0.000320955
-3.94955e-05
0.000347204
-4.38783e-05
-4.09574e-05
0.000384823
-4.83462e-05
-4.66615e-05
0.000409243
-5.7132e-05
-5.65221e-05
)
;
    }
}


// ************************************************************************* //
