/*--------------------------------*- C++ -*----------------------------------*\
| =========                 |                                                 |
| \\      /  F ield         | OpenFOAM: The Open Source CFD Toolbox           |
|  \\    /   O peration     | Version:  dev                                   |
|   \\  /    A nd           | Web:      www.OpenFOAM.org                      |
|    \\/     M anipulation  |                                                 |
\*---------------------------------------------------------------------------*/
FoamFile
{
    version     2.0;
    format      ascii;
    class       volVectorField;
    location    "4.64";
    object      Force;
}
// * * * * * * * * * * * * * * * * * * * * * * * * * * * * * * * * * * * * * //

dimensions      [1 1 -2 0 0 0 0];

internalField   uniform (0 0 0);

boundaryField
{
    inlet
    {
        type            calculated;
        value           nonuniform 0();
    }
    outlet
    {
        type            calculated;
        value           nonuniform 0();
    }
    flap
    {
        type            calculated;
        value           nonuniform List<vector> 
33
(
(3.65515 1.87968e-17 -0.206107)
(3.60252 4.68891e-18 -0.430592)
(3.5403 2.35099e-38 -0.624451)
(3.46922 2.19952e-21 -0.755642)
(3.39189 2.8125e-22 -0.837312)
(3.30966 2.93874e-39 -0.879085)
(3.22429 0 -0.889316)
(3.13772 2.52001e-17 -0.874796)
(3.04668 1.62406e-17 -0.841624)
(2.94532 -8.28872e-18 -0.795678)
(2.82435 2.39842e-17 -0.741843)
(2.66823 -7.47784e-18 -0.682629)
(2.45293 1.5797e-17 -0.615667)
(2.13413 5.95566e-18 -0.528752)
(1.6093 1.44082e-17 -0.397276)
(0.17325 7.91694e-18 0.678413)
(0.10901 8.17448e-18 0.438619)
(0.0427824 5.06092e-22 0.174873)
(-0.0774905 1.38142e-17 0.00435084)
(-0.0772267 5.53882e-20 0.00919586)
(-0.0762158 -3.67342e-40 0.0133294)
(-0.074561 1.52587e-17 0.0160165)
(-0.0724044 2.0554e-19 0.0175637)
(-0.0699934 -4.32189e-25 0.018203)
(-0.0675975 1.90797e-19 0.0181857)
(-0.0654148 2.20405e-39 0.017734)
(-0.0635566 3.44383e-41 0.0170322)
(-0.0619616 -1.73084e-19 0.0162184)
(-0.0605756 -1.68908e-19 0.0154337)
(-0.0591411 1.6588e-17 0.0147435)
(-0.0566124 -1.57718e-19 0.0139529)
(-0.049619 1.72289e-17 0.0122458)
(-0.0312488 8.64618e-20 0.00781188)
)
;
    }
    upperWall
    {
        type            calculated;
        value           nonuniform 0();
    }
    lowerWall
    {
        type            calculated;
        value           uniform (0 0 0);
    }
    frontAndBack
    {
        type            empty;
    }
    procBoundary4to1
    {
        type            processor;
        value           uniform (0 0 0);
    }
    procBoundary4to2
    {
        type            processor;
        value           uniform (0 0 0);
    }
    procBoundary4to3
    {
        type            processor;
        value           uniform (0 0 0);
    }
    procBoundary4to5
    {
        type            processor;
        value           uniform (0 0 0);
    }
}


// ************************************************************************* //
