/*--------------------------------*- C++ -*----------------------------------*\
| =========                 |                                                 |
| \\      /  F ield         | OpenFOAM: The Open Source CFD Toolbox           |
|  \\    /   O peration     | Version:  dev                                   |
|   \\  /    A nd           | Web:      www.OpenFOAM.org                      |
|    \\/     M anipulation  |                                                 |
\*---------------------------------------------------------------------------*/
FoamFile
{
    version     2.0;
    format      ascii;
    class       volScalarField;
    location    "2.74";
    object      p;
}
// * * * * * * * * * * * * * * * * * * * * * * * * * * * * * * * * * * * * * //

dimensions      [0 2 -2 0 0 0 0];

internalField   nonuniform List<scalar> 
2790
(
111.742
111.626
111.846
112.311
112.931
113.685
114.575
115.597
116.75
118.028
119.43
120.952
122.59
124.342
126.201
128.16
130.21
132.339
134.531
136.763
139.01
141.238
143.408
145.47
147.374
149.059
150.469
151.548
152.257
152.592
111.578
111.557
111.799
112.262
112.879
113.631
114.517
115.536
116.682
117.954
119.348
120.862
122.491
124.232
126.08
128.027
130.065
132.182
134.362
136.585
138.825
141.051
143.224
145.298
147.221
148.937
150.387
151.522
152.311
152.883
111.418
111.471
111.73
112.184
112.791
113.533
114.409
115.413
116.544
117.798
119.171
120.66
122.262
123.972
125.784
127.692
129.687
131.756
133.885
136.055
138.241
140.414
142.538
144.574
146.474
148.191
149.678
150.903
151.839
152.595
111.248
111.338
111.611
112.057
112.652
113.383
114.244
115.231
116.341
117.57
118.914
120.37
121.934
123.601
125.364
127.216
129.148
131.148
133.199
135.286
137.383
139.464
141.496
143.444
145.268
146.924
148.372
149.573
150.448
150.91
111.06
111.17
111.453
111.894
112.477
113.192
114.034
114.999
116.081
117.278
118.586
120
121.516
123.127
124.828
126.61
128.463
130.374
132.328
134.306
136.287
138.245
140.148
141.964
143.653
145.172
146.469
147.473
148.052
147.761
110.848
110.969
111.259
111.693
112.261
112.957
113.777
114.713
115.763
116.922
118.186
119.55
121.008
122.555
124.183
125.882
127.641
129.448
131.287
133.138
134.979
136.784
138.523
140.161
141.657
142.957
143.989
144.638
144.789
143.487
110.612
110.737
111.03
111.456
112.007
112.681
113.474
114.378
115.39
116.506
117.719
119.025
120.418
121.89
123.434
125.039
126.693
128.381
130.088
131.793
133.473
135.099
136.641
138.058
139.302
140.308
140.982
141.161
140.838
138.453
110.349
110.477
110.768
111.184
111.715
112.365
113.127
113.995
114.965
116.031
117.187
118.429
119.748
121.138
122.588
124.088
125.624
127.181
128.741
130.283
131.78
133.202
134.514
135.67
136.611
137.257
137.504
137.131
136.331
132.896
110.061
110.189
110.476
110.878
111.389
112.011
112.739
113.567
114.489
115.501
116.595
117.765
119.004
120.303
121.651
123.036
124.443
125.857
127.255
128.617
129.911
131.105
132.155
133.01
133.601
133.831
133.592
132.604
131.322
126.888
109.747
109.874
110.154
110.541
111.029
111.62
112.311
113.096
113.967
114.919
115.945
117.039
118.191
119.391
120.629
121.89
123.159
124.417
125.641
126.805
127.877
128.818
129.578
130.094
130.288
130.046
129.263
127.591
125.787
120.358
109.408
109.534
109.805
110.175
110.637
111.196
111.847
112.585
113.401
114.289
115.243
116.255
117.314
118.41
119.53
120.659
121.78
122.872
123.909
124.862
125.693
126.357
126.797
126.938
126.686
125.912
124.512
122.06
119.621
113.086
109.046
109.169
109.43
109.781
110.215
110.739
111.349
112.036
112.794
113.616
114.493
115.418
116.379
117.365
118.362
119.352
120.317
121.234
122.073
122.8
123.374
123.741
123.833
123.563
122.816
121.439
119.32
115.939
112.625
104.645
108.662
108.781
109.03
109.361
109.766
110.254
110.819
111.454
112.151
112.902
113.7
114.534
115.394
116.265
117.133
117.979
118.782
119.515
120.148
120.639
120.942
120.994
120.715
120
118.709
116.65
113.672
109.134
104.498
94.2845
108.256
108.371
108.608
108.917
109.292
109.741
110.26
110.84
111.474
112.153
112.868
113.609
114.363
115.116
115.852
116.55
117.185
117.731
118.15
118.398
118.421
118.146
117.48
116.295
114.419
111.601
107.605
101.599
94.8721
80.6729
107.831
107.942
108.166
108.451
108.795
109.204
109.675
110.199
110.768
111.372
112.002
112.648
113.295
113.927
114.528
115.075
115.542
115.897
116.1
116.102
115.842
115.237
114.18
112.518
110.042
106.431
101.307
93.5484
83.6733
61.3151
0.644337
0.627122
0.558012
0.412486
0.197559
-0.0551306
-0.314103
-0.561804
-0.791252
-0.999105
-1.18289
-1.34024
-1.46866
-1.56583
-1.6307
-1.6643
-1.66807
-1.6414
-1.58225
-1.49047
-1.37025
-1.22887
-1.07288
-0.906044
-0.732061
-0.557541
-0.390086
-0.237368
-0.108921
-0.0141757
0.651227
0.62987
0.552323
0.400282
0.182204
-0.07103
-0.329061
-0.57566
-0.804416
-1.01197
-1.19574
-1.35336
-1.48226
-1.57951
-1.64365
-1.6765
-1.68053
-1.65463
-1.5953
-1.50151
-1.37806
-1.23373
-1.07595
-0.907855
-0.732123
-0.555988
-0.387834
-0.235214
-0.108256
-0.0189078
0.669501
0.643418
0.552436
0.387757
0.16186
-0.0944541
-0.353138
-0.600248
-0.829513
-1.03745
-1.22167
-1.38015
-1.51028
-1.60766
-1.66994
-1.70106
-1.70585
-1.68166
-1.62163
-1.52371
-1.39414
-1.24441
-1.08383
-0.915954
-0.741148
-0.564979
-0.396594
-0.243408
-0.116002
-0.0280319
0.703756
0.672399
0.563682
0.381197
0.143164
-0.119235
-0.381529
-0.632171
-0.864567
-1.07499
-1.26113
-1.42157
-1.5538
-1.65115
-1.71013
-1.73787
-1.74265
-1.72104
-1.6622
-1.56247
-1.42946
-1.27594
-1.11182
-0.941237
-0.76524
-0.589132
-0.420482
-0.266441
-0.138112
-0.0421864
0.759234
0.720891
0.590772
0.386626
0.132945
-0.139603
-0.409763
-0.668328
-0.908271
-1.12483
-1.31555
-1.48038
-1.61657
-1.71599
-1.77442
-1.79904
-1.79892
-1.77263
-1.71134
-1.61143
-1.47916
-1.32566
-1.1603
-0.987946
-0.811131
-0.634124
-0.463384
-0.307073
-0.173399
-0.0581843
0.844019
0.795274
0.641606
0.413701
0.142594
-0.147457
-0.437754
-0.712765
-0.966714
-1.19497
-1.39375
-1.56262
-1.69991
-1.79965
-1.85873
-1.8825
-1.87806
-1.84545
-1.77947
-1.67819
-1.54662
-1.39379
-1.22788
-1.054
-0.875601
-0.696064
-0.521706
-0.361017
-0.21693
-0.0753747
0.97192
0.909751
0.732632
0.477986
0.173257
-0.152259
-0.472588
-0.77209
-1.04634
-1.29015
-1.49959
-1.67378
-1.8117
-1.91007
-1.96782
-1.98936
-1.98002
-1.94065
-1.86902
-1.76495
-1.63289
-1.48012
-1.31352
-1.13798
-0.957266
-0.773908
-0.594257
-0.426401
-0.266879
-0.0938125
1.1631
1.08648
0.876567
0.571502
0.209862
-0.166571
-0.527782
-0.860881
-1.15975
-1.42006
-1.63949
-1.81803
-1.95546
-2.05072
-2.10464
-2.12129
-2.10513
-2.05791
-1.97956
-1.87135
-1.73745
-1.5838
-1.41609
-1.23862
-1.05468
-0.866416
-0.679959
-0.501846
-0.322281
-0.113595
1.43871
1.33798
1.06119
0.671097
0.228357
-0.212784
-0.624614
-0.994751
-1.31815
-1.59306
-1.81962
-1.99932
-2.13347
-2.22301
-2.27014
-2.27897
-2.25373
-2.19704
-2.11053
-1.99662
-1.8594
-1.70389
-1.53462
-1.35487
-1.16691
-0.973098
-0.778454
-0.586816
-0.382921
-0.134831
1.81731
1.65694
1.25936
0.741808
0.197336
-0.319709
-0.784546
-1.18873
-1.53174
-1.8159
-2.04439
-2.22068
-2.3477
-2.42798
-2.46485
-2.46264
-2.42567
-2.35744
-2.26093
-2.13956
-1.99754
-1.83926
-1.66816
-1.48608
-1.29396
-1.0939
-0.889527
-0.68129
-0.448954
-0.157692
2.32582
2.01988
1.42155
0.738272
0.0766142
-0.517054
-1.02788
-1.45633
-1.80904
-2.09374
-2.31696
-2.484
-2.59912
-2.66602
-2.68876
-2.67193
-2.62021
-2.53792
-2.42921
-2.29847
-2.15024
-1.98852
-1.81574
-1.63203
-1.43626
-1.22891
-1.01307
-0.785753
-0.520921
-0.182442
2.97883
2.36547
1.47613
0.600029
-0.177895
-0.834072
-1.37236
-1.80739
-2.15519
-2.42905
-2.6383
-2.78948
-2.88747
-2.9365
-2.94099
-2.9058
-2.83601
-2.73676
-2.61336
-2.47121
-2.31544
-2.14991
-1.97607
-1.79214
-1.5942
-1.37985
-1.1505
-0.9009
-0.599742
-0.209342
3.71564
2.54857
1.31416
0.251134
-0.614305
-1.29804
-1.83132
-2.24675
-2.57063
-2.82053
-3.00665
-3.13523
-3.21081
-3.23743
-3.2195
-3.16209
-3.07072
-2.95138
-2.81052
-2.65481
-2.49026
-2.32092
-2.14733
-1.96562
-1.76831
-1.54845
-1.30353
-1.02689
-0.684932
-0.238608
4.31201
2.36187
0.799033
-0.395555
-1.27974
-1.92833
-2.40813
-2.77032
-3.04905
-3.26219
-3.41686
-3.51682
-3.56512
-3.56497
-3.52055
-3.4371
-3.32063
-3.17791
-3.01669
-2.84516
-2.67067
-2.49779
-2.32633
-2.15004
-1.95719
-1.73451
-1.47271
-1.1623
-0.773037
-0.270287
3.90674
1.54502
-0.244491
-1.43614
-2.20573
-2.72272
-3.08738
-3.35981
-3.57422
-3.74174
-3.85941
-3.92633
-3.94332
-3.91243
-3.83754
-3.72422
-3.57903
-3.40957
-3.22485
-3.03492
-2.84894
-2.67261
-2.50527
-2.33813
-2.15452
-1.93322
-1.6553
-1.30683
-0.865129
-0.30484
107.38
107.486
107.695
107.956
108.267
108.635
109.056
109.522
110.022
110.549
111.092
111.639
112.175
112.684
113.146
113.538
113.832
113.993
113.977
113.731
113.187
112.254
110.81
108.685
105.636
101.281
95.0982
85.6672
72.0578
30.7072
106.897
106.998
107.192
107.427
107.703
108.027
108.396
108.8
109.23
109.677
110.129
110.573
110.995
111.376
111.697
111.931
112.049
112.014
111.779
111.286
110.465
109.218
107.417
104.883
101.367
96.4884
89.7325
79.8626
67.3192
53.0151
106.386
106.481
106.659
106.867
107.106
107.386
107.7
108.041
108.399
108.763
109.121
109.461
109.766
110.019
110.196
110.272
110.216
109.987
109.538
108.81
107.73
106.202
104.098
101.253
97.4514
92.4062
85.8543
77.3847
67.9556
60.2537
105.848
105.937
106.097
106.277
106.479
106.712
106.971
107.247
107.531
107.811
108.074
108.308
108.497
108.62
108.654
108.575
108.347
107.932
107.281
106.336
105.027
103.262
100.928
97.8885
93.9848
89.0425
82.956
75.5668
66.8597
57.3959
105.283
105.366
105.509
105.66
105.823
106.008
106.21
106.421
106.629
106.824
106.992
107.121
107.193
107.189
107.084
106.853
106.462
105.871
105.034
103.897
102.394
100.445
97.9568
94.8248
90.9395
86.19
80.4962
73.7392
65.7533
57.1405
104.693
104.77
104.894
105.016
105.14
105.277
105.421
105.566
105.699
105.809
105.882
105.906
105.864
105.735
105.495
105.12
104.576
103.825
102.823
101.523
99.8654
97.7843
95.2068
92.056
88.2563
83.7353
78.4415
72.3433
65.4285
58.2072
104.08
104.15
104.256
104.348
104.432
104.52
104.607
104.685
104.744
104.769
104.749
104.671
104.518
104.268
103.901
103.391
102.706
101.812
100.669
99.2357
97.4624
95.296
92.6816
89.5649
85.8965
81.6371
76.7702
71.3123
65.2913
59.0195
103.445
103.509
103.596
103.658
103.702
103.741
103.771
103.784
103.768
103.71
103.599
103.423
103.163
102.8
102.314
101.68
100.869
99.851
98.5913
97.0539
95.1993
92.9867
90.3765
87.3323
83.8256
79.8408
75.3813
70.4747
65.1534
59.6383
102.791
102.848
102.917
102.948
102.952
102.943
102.917
102.866
102.777
102.639
102.44
102.169
101.808
101.34
100.744
99.999
99.0786
97.9561
96.6027
94.9885
93.083
90.8564
88.2814
85.3359
82.0065
78.2918
74.2053
69.7785
65.0502
60.1924
102.121
102.17
102.22
102.221
102.187
102.13
102.049
101.935
101.776
101.56
101.279
100.918
100.464
99.898
99.2038
98.3606
97.3465
96.1385
94.7129
93.0463
91.1157
88.9004
86.3832
83.5526
80.4055
76.949
73.2021
69.1975
64.9753
60.669
101.436
101.478
101.51
101.482
101.409
101.306
101.172
100.997
100.77
100.482
100.122
99.6783
99.1374
98.484
97.7022
96.7744
95.682
94.4063
92.9283
91.2301
89.2955
87.1109
84.6671
81.96
78.9934
75.779
72.3381
68.7023
64.9081
61.0606
100.74
100.776
100.79
100.733
100.622
100.475
100.29
100.057
99.7661
99.409
98.9759
98.4561
97.8371
97.1057
96.2478
95.2485
94.0927
92.7654
91.2522
89.5401
87.6181
85.4785
83.1177
80.5371
77.7443
74.7535
71.5861
68.2708
64.8399
61.3771
100.036
100.066
100.063
99.9782
99.8317
99.6423
99.408
99.1199
98.7693
98.3482
97.848
97.2589
96.5703
95.7705
94.8477
93.7895
92.5839
91.2195
89.6857
87.9738
86.0771
83.9924
81.7199
79.2646
76.6361
73.8495
70.9252
67.8886
64.7675
61.6291
99.3291
99.3526
99.3331
99.2218
99.0411
98.8113
98.5309
98.1914
97.7853
97.3055
96.7443
96.0933
95.3433
94.4847
93.5076
92.4021
91.159
89.7702
88.2281
86.5276
84.6655
82.6418
80.4593
78.1251
75.6499
73.0485
70.3396
67.5453
64.6895
61.8261
98.6221
98.6396
98.6044
98.468
98.2551
97.9874
97.6639
97.2768
96.8197
96.2868
95.6708
94.965
94.1621
93.2537
92.2321
91.0898
89.82
88.4174
86.8773
85.1968
83.3757
81.4161
79.3227
77.1036
74.7699
72.3354
69.817
67.2338
64.6058
61.9768
97.9198
97.9313
97.8813
97.7213
97.4783
97.1755
96.8122
96.3814
95.8781
95.2975
94.6331
93.8795
93.0314
92.0818
91.0246
89.8548
88.5679
87.1604
85.63
83.9759
82.1998
80.3052
78.2982
76.1872
73.9829
71.6982
69.348
66.9487
64.5171
62.0888
97.2265
97.2324
97.1684
96.9866
96.7158
96.3806
95.981
95.5105
94.9657
94.3429
93.6362
92.8416
91.9554
90.9723
89.8878
88.6989
87.4027
85.9974
84.4826
82.8593
81.1302
79.3
77.3753
75.3645
73.278
71.1273
68.9254
66.6865
64.4246
62.169
96.5472
96.5476
96.4706
96.2688
95.9724
95.6078
95.1754
94.6694
94.0877
93.4277
92.6847
91.8556
90.9381
89.9285
88.824
87.6228
86.3235
84.926
83.4312
81.8413
80.1598
78.392
76.5447
74.6263
72.6462
70.6149
68.5438
66.4448
64.33
62.2233
95.8869
95.8819
95.793
95.573
95.2535
94.862
94.4001
93.8631
93.2493
92.5569
91.7829
90.9254
89.9827
88.9529
87.8343
86.6264
85.3292
83.9437
82.4718
80.9165
79.282
77.5737
75.7986
73.9645
72.0802
70.155
68.1989
66.2221
64.2348
62.2568
95.2509
95.2408
95.1409
94.9044
94.5641
94.1485
93.6606
93.0967
92.4551
91.7351
90.9352
90.0544
89.092
88.0472
86.9197
85.7098
84.4186
83.048
81.6007
80.0803
78.4911
76.8388
75.1301
73.3726
71.5741
69.7429
67.8878
66.0176
64.1409
62.2742
94.6445
94.6295
94.5196
94.2683
93.9096
93.4728
92.9623
92.3749
91.7096
90.9664
90.1452
89.2458
88.2684
87.2132
86.0809
84.8726
83.5902
82.2364
80.8144
79.3281
77.7821
76.1818
74.5338
72.8452
71.1231
69.3748
67.6082
65.8307
64.05
62.2794
94.0735
94.0538
93.9347
93.6703
93.2953
92.8401
92.31
91.7025
91.0172
90.2549
89.4165
88.5027
87.5143
86.4525
85.3186
84.1146
82.8431
81.5071
80.1102
78.6566
77.1508
75.5982
74.0052
72.3781
70.7236
69.0482
67.3588
65.6619
63.964
62.2764
93.5437
93.5196
93.3921
93.1161
92.7268
92.2557
91.7088
91.0844
90.3825
89.6047
88.7527
87.8279
86.8318
85.7663
84.6334
83.4357
82.176
80.858
79.4854
78.0625
76.5937
75.0843
73.5403
71.9677
70.3726
68.7607
67.1382
65.5108
63.8842
62.2678
93.0614
93.033
92.8977
92.6112
92.2095
91.7249
91.1639
90.5255
89.8101
89.0199
88.1574
87.2246
86.2236
85.1568
84.0267
82.8363
81.5889
80.2884
78.9386
77.544
76.1087
74.6379
73.1372
71.6123
70.0688
68.5118
66.9468
65.379
63.8134
62.2577
92.6332
92.6004
92.4575
92.1615
91.7491
91.253
90.6803
90.0303
89.304
88.5042
87.6337
86.6952
85.6913
84.6248
83.4986
82.316
81.0807
79.7965
78.4677
77.0983
75.6927
74.2556
72.7925
71.3088
69.8093
68.2991
66.7829
65.2654
63.751
62.2462
92.266
92.2285
92.0777
91.7727
91.3513
90.8459
90.2639
89.6048
88.8701
88.0631
87.1869
86.2448
85.2396
84.1745
83.0528
81.878
80.654
79.3847
78.0744
76.7271
75.3471
73.9389
72.5078
71.0587
69.5963
68.1252
66.6497
65.1741
63.7023
62.24
91.9678
91.9242
91.764
91.4502
91.0208
90.5075
89.9176
89.2512
88.51
87.6976
86.8175
85.8731
84.8676
83.8046
82.6874
81.5199
80.3059
79.0494
77.7549
76.4262
75.0674
73.683
72.2779
70.857
69.4246
67.9849
66.542
65.0998
63.6618
62.2327
91.7484
91.6942
91.523
91.2025
90.7679
90.249
89.6533
88.9814
88.2355
87.4193
86.5366
85.5909
84.5858
83.5249
82.4118
81.2505
80.0448
78.7989
77.517
76.2031
74.8612
73.4956
72.111
70.7122
69.3032
67.888
66.4704
65.0542
63.6429
62.2403
91.6226
91.5383
91.3489
91.023
90.5856
90.0633
89.464
88.789
88.0406
87.2226
86.3388
85.393
84.3889
83.33
82.2203
81.0637
79.8641
78.6257
77.3528
76.0493
74.7189
73.3661
71.9954
70.6114
69.218
67.8191
66.4184
65.0192
63.625
62.2389
91.624
91.4866
91.2736
90.9413
90.5005
89.9745
89.3719
88.6944
87.9443
87.1253
86.2411
85.2956
84.2925
83.2355
82.1285
80.9754
79.7802
78.547
77.2801
75.9834
74.6606
73.3158
71.9539
70.579
69.1952
67.8061
66.4154
65.0264
63.6422
62.2656
-68.3215
-40.3867
-13.3531
40.3024
36.2988
29.4631
47.7039
37.3724
28.865
44.677
36.5098
30.5995
47.8647
41.6628
36.657
50.8573
45.7074
41.3345
52.7793
48.4282
44.725
54.3071
50.6194
47.4815
55.5942
52.4214
49.7203
56.647
53.8764
51.5183
57.5028
55.0555
52.9728
58.2003
56.0172
54.1584
58.7681
56.8034
55.1291
59.2293
57.4472
55.9269
59.6031
57.9749
56.5844
59.9049
58.4074
57.1271
60.1473
58.7617
57.5755
60.3409
59.0514
57.9458
60.4945
59.2876
58.2516
60.6155
59.48
58.5038
60.7101
59.6362
58.7115
60.784
59.7631
58.8827
60.8413
59.8658
59.0234
60.8873
59.9504
59.1403
60.9226
60.018
59.2351
60.9555
60.0776
59.3167
60.9783
60.1215
59.3788
61.0104
60.1694
59.4395
61.0234
60.1934
59.4735
61.0659
60.2465
59.5319
5.44924
-0.0578346
-2.2614
-3.06628
-3.44715
-3.67485
-3.84374
-3.98758
-4.12612
-4.24908
-4.32871
-4.36011
-4.34236
-4.27654
-4.16659
-4.01892
-3.84087
-3.64063
-3.42853
-3.21702
-3.0178
-2.83837
-2.67776
-2.52435
-2.35606
-2.1428
-1.85331
-1.46659
-0.969894
-0.343419
14.0405
0.381394
-2.77938
-3.24491
-3.63943
-4.02343
-4.29428
-4.49238
-4.66912
-4.78972
-4.83417
-4.82456
-4.76501
-4.65691
-4.50501
-4.31688
-4.1004
-3.86379
-3.61876
-3.38097
-3.16499
-2.98114
-2.82887
-2.69415
-2.54902
-2.35321
-2.06029
-1.6374
-1.08371
-0.387584
17.0138
5.57628
0.915691
-1.16426
-2.65295
-3.6798
-4.28311
-4.64541
-4.8883
-5.03021
-5.0972
-5.10702
-5.05721
-4.94629
-4.78051
-4.56996
-4.32484
-4.05602
-3.7804
-3.51623
-3.28168
-3.09228
-2.94935
-2.83708
-2.72169
-2.55284
-2.26856
-1.81639
-1.19809
-0.439
22.6672
13.7255
7.68551
3.66698
0.774892
-1.29113
-2.69629
-3.63418
-4.26121
-4.66757
-4.91849
-5.05127
-5.08111
-5.0187
-4.8773
-4.6724
-4.42072
-4.1401
-3.85091
-3.57447
-3.33416
-3.1483
-3.02039
-2.93348
-2.84881
-2.70697
-2.43525
-1.97138
-1.29851
-0.484772
29.8595
22.0413
15.2706
9.96672
5.96057
2.94854
0.703693
-0.956437
-2.1799
-3.07002
-3.69846
-4.11818
-4.36806
-4.47709
-4.46876
-4.3654
-4.1905
-3.96835
-3.72414
-3.48397
-3.27384
-3.11332
-3.00724
-2.93909
-2.86928
-2.73737
-2.47125
-2.01346
-1.35058
-0.548675
35.6335
28.9317
22.2725
16.5011
11.8673
8.18749
5.26004
2.94447
1.13047
-0.274407
-1.34644
-2.14642
-2.71977
-3.10094
-3.3209
-3.41072
-3.401
-3.321
-3.19924
-3.06423
-2.9423
-2.85192
-2.79718
-2.76221
-2.71018
-2.58687
-2.3305
-1.89525
-1.2762
-0.55655
40.0508
34.4136
28.2986
22.602
17.7623
13.7226
10.3458
7.54048
5.2364
3.36435
1.85951
0.666648
-0.259727
-0.958651
-1.46565
-1.81386
-2.03449
-2.15832
-2.2166
-2.23907
-2.25092
-2.26884
-2.29639
-2.32018
-2.30956
-2.2209
-2.0067
-1.63614
-1.11689
-0.537737
43.5678
38.7672
33.2954
27.9422
23.1852
19.0481
15.4513
12.3448
9.69318
7.4546
5.58279
4.03361
2.76709
1.74683
0.938961
0.311176
-0.168063
-0.529879
-0.804308
-1.01897
-1.19688
-1.35328
-1.49226
-1.60433
-1.66701
-1.64895
-1.51845
-1.25876
-0.88411
-0.475731
46.3618
42.2011
37.3418
32.4339
27.9224
23.8681
20.2304
16.9886
14.1331
11.6452
9.49724
7.65847
6.09847
4.78726
3.69537
2.7936
2.05304
1.44537
0.943516
0.522544
0.1616
-0.153594
-0.428369
-0.657643
-0.826994
-0.916563
-0.907986
-0.795074
-0.594085
-0.372164
48.5845
44.9261
40.6054
36.1497
31.9497
28.0774
24.5145
21.2583
18.3155
15.6839
13.3508
11.2983
9.50604
7.95162
6.6116
5.46188
4.47799
3.63555
2.91101
2.28263
1.7321
1.24624
0.818451
0.44959
0.146977
-0.0788338
-0.219292
-0.275402
-0.263635
-0.236793
50.3753
47.1202
43.2556
39.2147
35.3348
31.6862
28.2615
25.0672
22.1192
19.4253
16.9838
14.7871
12.8236
11.0781
9.53384
8.17217
6.97362
5.91825
4.98643
4.15986
3.42272
2.76294
2.17305
1.6506
1.1973
0.816699
0.510443
0.273284
0.0895111
-0.0819459
51.8335
48.9081
45.4261
41.7502
38.1721
34.7558
31.4978
28.4084
25.5072
22.8078
20.316
18.0315
15.9495
14.0615
12.356
10.8201
9.43905
8.19728
7.07911
6.06951
5.15505
4.32476
3.57077
2.8884
2.27554
1.73086
1.25143
0.82949
0.450264
0.0816816
53.0294
50.3778
47.2177
43.8586
40.5544
37.3619
34.2784
31.3146
28.4906
25.823
23.3219
20.9924
18.8344
16.8443
15.0159
13.3406
11.8081
10.4068
9.12475
7.94983
6.87087
5.8781
4.96364
4.1215
3.34715
2.63622
1.98291
1.37799
0.807411
0.24572
54.0155
51.5941
48.7069
45.6214
42.5616
39.577
36.6644
33.8331
31.1024
28.4898
26.0078
23.6641
21.4625
19.4031
17.4835
15.6989
14.0428
12.5072
11.083
9.76094
8.5319
7.38735
6.31977
5.32256
4.38978
3.5153
2.69167
1.90888
1.15351
0.404734
54.832
52.6058
49.9513
47.1026
44.259
41.4637
38.7127
36.0131
33.3825
30.8385
28.3939
26.0581
23.8372
21.734
19.749
17.8806
16.1251
14.4774
12.9312
11.4796
10.1153
8.83098
7.61977
6.47501
5.39008
4.35793
3.37026
2.41675
1.48451
0.556076
55.5098
53.4505
50.9953
48.3517
45.6985
43.074
40.4726
37.8994
35.3703
32.9015
30.5059
28.1934
25.9711
23.8439
21.8143
19.8829
18.0485
16.3084
14.6584
13.0936
11.6085
10.1969
8.85272
7.56957
6.34069
5.15867
4.01489
2.89902
1.79866
0.698843
56.0736
54.1572
51.8737
49.408
46.9223
44.4505
41.9861
39.5319
37.1016
34.7103
32.3703
30.0911
27.8804
25.7441
23.6862
21.7091
19.8132
17.9976
16.26
14.5972
13.005
11.4786
10.0127
8.60119
7.23768
5.91473
4.62374
3.35458
2.09532
0.832997
56.5431
54.7496
52.6142
50.3033
47.9646
45.6288
43.2883
40.9442
38.6079
36.2935
34.012
31.7724
29.5822
27.4479
25.3746
23.3656
21.4226
19.5461
17.7353
15.9883
14.3021
12.673
11.0965
9.56717
8.07893
6.62464
5.19593
3.78299
2.3744
0.958802
56.934
55.2465
53.2392
51.0628
48.8531
46.6379
44.4089
42.1653
39.9171
37.6766
35.454
33.2571
31.0933
28.969
26.89
24.8602
22.8821
20.9571
19.0856
17.2668
15.4987
13.7785
12.1025
10.4659
8.86314
7.28746
5.73086
4.18395
2.6358
1.07643
57.2595
55.6635
53.767
51.7076
49.6108
47.5021
45.3725
43.22
41.053
38.8823
36.7168
34.5637
32.4295
30.3208
28.2434
26.2013
24.1978
22.2349
20.3136
18.4341
16.5951
14.7948
13.0299
11.2966
9.58955
7.90258
6.22812
4.55723
2.87948
1.18599
57.5305
56.0133
54.2126
52.2547
50.2564
48.2412
46.1997
44.1291
42.036
39.9301
37.8188
35.7085
33.6057
31.5162
29.4454
27.3977
25.3764
23.3842
21.4225
19.492
17.5922
15.7219
13.8785
12.0585
10.2573
8.46919
6.68698
4.90222
3.10497
1.28725
57.7561
56.3068
54.5888
52.7186
50.8059
48.8724
46.9086
44.9108
42.8845
40.8375
38.7764
36.7072
34.6359
32.5673
30.5064
28.4577
26.4248
24.4103
22.4161
20.4432
18.4918
16.5609
14.6485
12.7517
10.8664
8.98709
7.10727
5.21885
3.31234
1.38036
57.9434
56.5524
54.9054
53.1108
51.2719
49.4093
47.5132
45.5796
43.6127
41.6186
39.6031
37.5723
35.5313
33.4839
31.4348
29.3886
27.3486
25.3176
23.2975
21.2898
19.2947
17.3118
15.3395
13.3752
11.4153
9.4548
7.48745
5.50564
3.50028
1.46445
58.0998
56.7585
55.172
53.4419
51.6663
49.8645
48.0271
46.1492
44.2338
42.2864
40.3122
38.3164
36.3033
34.2766
32.2405
30.1988
28.1551
26.112
24.0716
22.0354
20.0038
17.9768
15.953
13.9302
11.9051
9.87313
7.82833
5.76346
3.66979
1.54042
58.2283
56.9289
55.3933
53.7175
51.9953
50.2452
48.4578
46.6275
44.7564
42.8496
40.9115
38.9464
36.9585
34.9513
32.9279
30.8918
28.8465
26.7948
24.7386
22.6792
20.6176
18.5535
16.4861
14.4133
12.3321
10.2382
8.12594
5.98846
3.81735
1.60585
58.337
57.0723
55.5789
53.9481
52.27
50.5628
48.817
47.0264
45.1928
43.3205
41.413
39.4742
37.5084
35.5186
33.507
31.4766
29.4312
27.3735
25.3051
23.2274
21.1413
19.0469
16.9432
14.8286
12.7001
10.5537
8.38411
6.18455
3.94687
1.66378
58.4223
57.1856
55.726
54.1311
52.4883
50.8153
49.1025
47.3438
45.5406
43.6963
41.8139
39.8968
37.9494
35.9742
33.9725
31.9473
29.9027
27.8408
25.7632
23.6713
21.5659
19.4472
17.3144
15.1658
12.9989
10.8096
8.59279
6.34208
4.04964
1.70824
58.4986
57.2835
55.8498
54.2821
52.6661
51.0192
49.3317
47.5975
45.8174
43.9945
42.1314
40.2312
38.2979
36.3339
34.34
32.3194
30.2756
28.2107
26.1262
24.0236
21.9035
19.7661
17.6109
15.4361
13.2391
11.0163
8.76247
6.47134
4.13521
1.74607
58.546
57.3451
55.9286
54.3796
52.782
51.1528
49.4826
47.765
46.0007
44.1922
42.3422
40.4537
38.53
36.5733
34.5852
32.5682
30.5251
28.4582
26.3691
24.2592
22.1292
19.9792
17.8086
15.6159
13.3984
11.1523
8.87267
6.55309
4.18614
1.76455
58.6045
57.4043
55.9968
54.4588
52.8712
51.2512
49.5898
47.8808
46.1245
44.3234
42.48
40.5972
38.6777
36.7241
34.7384
32.7225
30.6788
28.6099
26.5176
24.403
22.2669
20.1093
17.9297
15.7265
13.4971
11.2376
8.94285
6.60564
4.21677
1.76299
)
;

boundaryField
{
    inlet
    {
        type            zeroGradient;
    }
    outlet
    {
        type            fixedValue;
        value           uniform 0;
    }
    flap
    {
        type            zeroGradient;
    }
    upperWall
    {
        type            zeroGradient;
    }
    lowerWall
    {
        type            zeroGradient;
    }
    frontAndBack
    {
        type            empty;
    }
}


// ************************************************************************* //
