/*--------------------------------*- C++ -*----------------------------------*\
| =========                 |                                                 |
| \\      /  F ield         | OpenFOAM: The Open Source CFD Toolbox           |
|  \\    /   O peration     | Version:  dev                                   |
|   \\  /    A nd           | Web:      www.OpenFOAM.org                      |
|    \\/     M anipulation  |                                                 |
\*---------------------------------------------------------------------------*/
FoamFile
{
    version     2.0;
    format      ascii;
    class       surfaceScalarField;
    location    "2.26";
    object      meshPhi;
}
// * * * * * * * * * * * * * * * * * * * * * * * * * * * * * * * * * * * * * //

dimensions      [0 3 -1 0 0 0 0];

internalField   nonuniform List<scalar> 
5457
(
-2.25798e-05
6.25585e-07
-3.93852e-05
1.68748e-06
-4.83258e-05
2.37593e-06
-4.9396e-05
2.67383e-06
-4.32731e-05
2.60531e-06
-3.11437e-05
2.20675e-06
-1.46139e-05
1.52931e-06
4.42671e-06
6.39248e-07
2.39557e-05
-3.8228e-07
4.20304e-05
-1.44351e-06
5.70224e-05
-2.45112e-06
6.77975e-05
-3.32048e-06
7.38148e-05
-3.98539e-06
7.51284e-05
-4.40528e-06
7.22979e-05
-4.56837e-06
6.62335e-05
-4.49013e-06
5.80139e-05
-4.2081e-06
4.8715e-05
-3.774e-06
3.92754e-05
-3.24479e-06
3.04118e-05
-2.67461e-06
2.26856e-05
-2.116e-06
1.62892e-05
-1.61003e-06
1.11572e-05
-1.17293e-06
7.23281e-06
-8.1022e-07
4.36538e-06
-5.24707e-07
2.38115e-06
-3.12527e-07
1.10715e-06
-1.65305e-07
3.85628e-07
-7.21947e-08
8.0177e-08
-2.23707e-08
-3.73409e-09
-2.28571e-05
1.25976e-06
-3.98756e-05
3.39916e-06
-4.89771e-05
4.78949e-06
-5.01611e-05
5.39723e-06
-4.40898e-05
5.27036e-06
-3.19349e-05
4.48e-06
-1.52947e-05
3.12568e-06
3.93601e-06
1.34208e-06
2.37168e-05
-7.08334e-07
4.20753e-05
-2.84352e-06
5.73493e-05
-4.87605e-06
6.83718e-05
-6.63498e-06
7.45776e-05
-7.9859e-06
7.60084e-05
-8.84573e-06
7.32241e-05
-9.18925e-06
6.71452e-05
-9.04643e-06
5.8867e-05
-8.49195e-06
4.94836e-05
-7.62968e-06
3.99504e-05
-6.5743e-06
3.09978e-05
-5.43517e-06
2.31845e-05
-4.31573e-06
1.67067e-05
-3.29575e-06
1.15045e-05
-2.41015e-06
7.51275e-06
-1.67276e-06
4.58047e-06
-1.0898e-06
2.53502e-06
-6.54347e-07
1.20497e-06
-3.50347e-07
4.33744e-07
-1.56071e-07
9.6367e-08
-4.99848e-08
-8.69112e-09
-2.31091e-05
1.90159e-06
-4.03312e-05
5.13286e-06
-4.96004e-05
7.23917e-06
-5.09188e-05
8.17215e-06
-4.49329e-05
8.00345e-06
-3.27908e-05
6.83769e-06
-1.60739e-05
4.82075e-06
3.32429e-06
2.15072e-06
2.33527e-05
-9.30582e-07
4.20186e-05
-4.1506e-06
5.76284e-05
-7.22773e-06
6.89813e-05
-9.90356e-06
7.54804e-05
-1.19734e-05
7.71444e-05
-1.3309e-05
7.45209e-05
-1.38687e-05
6.85284e-05
-1.36944e-05
6.02696e-05
-1.28957e-05
5.08514e-05
-1.16279e-05
4.12437e-05
-1.00632e-05
3.21897e-05
-8.36608e-06
2.42492e-05
-6.68686e-06
1.76282e-05
-5.13967e-06
1.22801e-05
-3.78346e-06
8.13788e-06
-2.64664e-06
5.05263e-06
-1.73994e-06
2.86128e-06
-1.05468e-06
1.40563e-06
-5.70891e-07
5.32414e-07
-2.58577e-07
1.31279e-07
-8.54617e-08
-1.58314e-08
-2.33037e-05
2.54909e-06
-4.06976e-05
6.88389e-06
-5.0128e-05
9.72055e-06
-5.15958e-05
1.09978e-05
-4.573e-05
1.08106e-05
-3.36509e-05
9.29542e-06
-1.69133e-05
6.64182e-06
2.60153e-06
3.10545e-06
2.28444e-05
-9.96622e-07
4.18135e-05
-5.30316e-06
5.77921e-05
-9.43984e-06
6.9546e-05
-1.30609e-05
7.64418e-05
-1.58896e-05
7.84638e-05
-1.77496e-05
7.61326e-05
-1.8579e-05
7.03494e-05
-1.84264e-05
6.2211e-05
-1.74323e-05
5.28303e-05
-1.5802e-05
4.31872e-05
-1.37629e-05
3.40372e-05
-1.15335e-05
2.59399e-05
-9.30408e-06
1.91144e-05
-7.21547e-06
1.35409e-05
-5.35685e-06
9.16196e-06
-3.78375e-06
5.83181e-06
-2.51634e-06
3.39686e-06
-1.544e-06
1.72435e-06
-8.44155e-07
6.85896e-07
-3.85324e-07
1.88713e-07
-1.2963e-07
-2.56242e-08
-2.35245e-05
3.2042e-06
-4.11223e-05
8.65763e-06
-5.07514e-05
1.22432e-05
-5.24109e-05
1.38901e-05
-4.6707e-05
1.37158e-05
-3.47272e-05
1.18859e-05
-1.79922e-05
8.62944e-06
1.63908e-06
4.25548e-06
2.21261e-05
-8.48744e-07
4.14597e-05
-6.23806e-06
5.78979e-05
-1.14482e-05
7.01675e-05
-1.60468e-05
7.75892e-05
-1.96839e-05
8.01015e-05
-2.21313e-05
7.81875e-05
-2.33019e-05
7.27199e-05
-2.32459e-05
6.47827e-05
-2.2129e-05
5.54922e-05
-2.01981e-05
4.58392e-05
-1.77321e-05
3.65945e-05
-1.50034e-05
2.83105e-05
-1.22362e-05
2.12177e-05
-9.58882e-06
1.53384e-05
-7.18778e-06
1.06343e-05
-5.1298e-06
6.968e-06
-3.45227e-06
4.19316e-06
-2.14638e-06
2.19911e-06
-1.18673e-06
9.11376e-07
-5.45056e-07
2.73187e-07
-1.8532e-07
-3.8832e-08
-2.37725e-05
3.86836e-06
-4.16085e-05
1.04607e-05
-5.14763e-05
1.4821e-05
-5.33709e-05
1.68703e-05
-4.78729e-05
1.67481e-05
-3.60315e-05
1.46465e-05
-1.93268e-05
1.08295e-05
4.14457e-07
5.65403e-06
2.11678e-05
-4.28746e-07
4.09198e-05
-6.89529e-06
5.79029e-05
-1.31951e-05
7.08007e-05
-1.88103e-05
7.88795e-05
-2.33161e-05
8.20212e-05
-2.6428e-05
8.06594e-05
-2.80273e-05
7.56314e-05
-2.81598e-05
6.79991e-05
-2.70104e-05
5.88721e-05
-2.48556e-05
4.92525e-05
-2.20199e-05
3.99329e-05
-1.88328e-05
3.14452e-05
-1.55438e-05
2.40271e-05
-1.23166e-05
1.77619e-05
-9.32398e-06
1.26393e-05
-6.72348e-06
8.53336e-06
-4.57814e-06
5.31192e-06
-2.88381e-06
2.88226e-06
-1.61484e-06
1.23886e-06
-7.48835e-07
3.88104e-07
-2.57136e-07
-5.62179e-08
-2.40469e-05
4.54306e-06
-4.21582e-05
1.22993e-05
-5.23065e-05
1.74661e-05
-5.44808e-05
1.99564e-05
-4.92351e-05
1.99324e-05
-3.7576e-05
1.76101e-05
-2.09351e-05
1.32837e-05
-1.09796e-06
7.35139e-06
1.99354e-05
3.20948e-07
4.01522e-05
-7.21216e-06
5.77603e-05
-1.46156e-05
7.13972e-05
-2.12882e-05
8.02675e-05
-2.67285e-05
8.41853e-05
-3.05914e-05
8.35212e-05
-3.27178e-05
7.90698e-05
-3.31402e-05
7.18668e-05
-3.20565e-05
6.30032e-05
-2.97696e-05
5.34859e-05
-2.66417e-05
4.41365e-05
-2.30509e-05
3.54472e-05
-1.9264e-05
2.76518e-05
-1.54398e-05
2.09177e-05
-1.18045e-05
1.52763e-05
-8.5958e-06
1.06209e-05
-5.91823e-06
6.82982e-06
-3.77797e-06
3.82879e-06
-2.14835e-06
1.69753e-06
-1.01171e-06
5.29496e-07
-3.50625e-07
-7.73973e-08
-2.4354e-05
5.2287e-06
-4.27777e-05
1.41729e-05
-5.32471e-05
2.01772e-05
-5.57464e-05
2.31496e-05
-5.08018e-05
2.32755e-05
-3.93723e-05
2.07924e-05
-2.28347e-05
1.6019e-05
-2.92361e-06
9.38777e-06
1.83944e-05
1.45452e-06
3.91123e-05
-7.12111e-06
5.74156e-05
-1.5631e-05
7.18956e-05
-2.33938e-05
8.16899e-05
-2.98318e-05
8.65342e-05
-3.45352e-05
8.67246e-05
-3.72985e-05
8.30007e-05
-3.81298e-05
7.63654e-05
-3.72266e-05
6.78929e-05
-3.49146e-05
5.85828e-05
-3.15877e-05
4.92827e-05
-2.76623e-05
4.0418e-05
-2.34126e-05
3.22027e-05
-1.89799e-05
2.49202e-05
-1.46548e-05
1.86508e-05
-1.07733e-05
1.33196e-05
-7.49367e-06
8.81399e-06
-4.84465e-06
5.08165e-06
-2.80229e-06
2.29784e-06
-1.34673e-06
6.77982e-07
-4.67955e-07
-9.95893e-08
-2.46993e-05
5.92461e-06
-4.34721e-05
1.60796e-05
-5.43015e-05
2.29523e-05
-5.71703e-05
2.64501e-05
-5.25766e-05
2.67826e-05
-4.14282e-05
2.42062e-05
-2.50411e-05
1.90595e-05
-5.08905e-06
1.18011e-05
1.65043e-05
3.02489e-06
3.77438e-05
-6.55388e-06
5.6796e-05
-1.61584e-05
7.22084e-05
-2.50334e-05
8.30514e-05
-3.25285e-05
8.89732e-05
-3.81644e-05
9.01866e-05
-4.168e-05
8.7362e-05
-4.30495e-05
8.14531e-05
-4.24546e-05
7.35193e-05
-4.02337e-05
6.45563e-05
-3.68113e-05
5.54263e-05
-3.2637e-05
4.64402e-05
-2.79757e-05
3.77724e-05
-2.29372e-05
2.9862e-05
-1.78834e-05
2.2853e-05
-1.32722e-05
1.66934e-05
-9.32329e-06
1.12879e-05
-6.09533e-06
6.63164e-06
-3.57833e-06
2.99624e-06
-1.74651e-06
7.96456e-07
-5.98364e-07
-1.16957e-07
-2.50864e-05
6.63126e-06
-4.42463e-05
1.80209e-05
-5.54733e-05
2.57942e-05
-5.87554e-05
2.98629e-05
-5.45631e-05
3.04625e-05
-4.37514e-05
2.7867e-05
-2.75712e-05
2.24301e-05
-7.62651e-06
1.46298e-05
1.42145e-05
5.0869e-06
3.59767e-05
-5.44141e-06
5.58135e-05
-1.61176e-05
7.2233e-05
-2.61175e-05
8.42371e-05
-3.4719e-05
9.13806e-05
-4.13689e-05
9.37842e-05
-4.57426e-05
9.20403e-05
-4.77729e-05
8.70412e-05
-4.76206e-05
7.98191e-05
-4.56237e-05
7.13694e-05
-4.22254e-05
6.2564e-05
-3.79044e-05
5.35342e-05
-3.28992e-05
4.43932e-05
-2.72743e-05
3.57763e-05
-2.1472e-05
2.79081e-05
-1.60904e-05
2.07333e-05
-1.14105e-05
1.41925e-05
-7.52159e-06
8.36585e-06
-4.44579e-06
3.67212e-06
-2.16615e-06
8.40159e-07
-7.13556e-07
-1.2193e-07
-2.55219e-05
7.35118e-06
-4.511e-05
2.00039e-05
-5.67712e-05
2.87127e-05
-6.05088e-05
3.33999e-05
-5.67691e-05
3.43305e-05
-4.63534e-05
3.17944e-05
-3.04427e-05
2.61561e-05
-1.05668e-05
1.79067e-05
1.1472e-05
7.68677e-06
3.37336e-05
-3.71817e-06
5.43697e-05
-1.54232e-05
7.18511e-05
-2.65405e-05
8.51061e-05
-3.6275e-05
9.35964e-05
-4.40002e-05
9.73463e-05
-4.93273e-05
9.68618e-05
-5.21399e-05
9.2969e-05
-5.25688e-05
8.66566e-05
-5.09396e-05
7.89086e-05
-4.77003e-05
7.05999e-05
-4.3349e-05
6.16157e-05
-3.80833e-05
5.19742e-05
-3.19035e-05
4.25677e-05
-2.5347e-05
3.37055e-05
-1.91707e-05
2.52936e-05
-1.37109e-05
1.73297e-05
-9.07308e-06
1.00382e-05
-5.32701e-06
4.14836e-06
-2.52374e-06
7.71715e-07
-7.72133e-07
-1.07517e-07
-2.60164e-05
8.08688e-06
-4.60781e-05
2.20347e-05
-5.82084e-05
3.17154e-05
-6.24417e-05
3.70688e-05
-5.92056e-05
3.83952e-05
-4.92477e-05
3.60006e-05
-3.36736e-05
3.02554e-05
-1.39365e-05
2.16568e-05
8.22903e-06
1.08603e-05
3.09374e-05
-1.32819e-06
5.23528e-05
-1.39904e-05
7.09119e-05
-2.6185e-05
8.54759e-05
-3.70527e-05
9.5414e-05
-4.58967e-05
0.00010065
-5.22597e-05
0.000101595
-5.59666e-05
9.89976e-05
-5.71069e-05
9.37963e-05
-5.59859e-05
8.69484e-05
-5.3047e-05
7.93116e-05
-4.87973e-05
7.04597e-05
-4.33716e-05
6.02746e-05
-3.66863e-05
4.99606e-05
-2.93789e-05
3.99282e-05
-2.23831e-05
3.0037e-05
-1.60954e-05
2.0338e-05
-1.06275e-05
1.13128e-05
-6.10356e-06
4.2498e-06
-2.73071e-06
5.71278e-07
-7.37399e-07
-6.93061e-08
-2.65818e-05
8.83749e-06
-4.7168e-05
2.41107e-05
-5.97983e-05
3.47955e-05
-6.45635e-05
4.08583e-05
-6.18792e-05
4.26432e-05
-5.24422e-05
4.04733e-05
-3.72799e-05
3.47227e-05
-1.77651e-05
2.5889e-05
4.43684e-06
1.4635e-05
2.75079e-05
1.77936e-06
4.96431e-05
-1.17419e-05
6.92529e-05
-2.49471e-05
8.51403e-05
-3.69169e-05
9.65879e-05
-4.68887e-05
0.000103416
-5.43375e-05
0.000105931
-5.90249e-05
0.000104796
-6.09917e-05
0.000100886
-6.05114e-05
9.51158e-05
-5.80124e-05
8.83046e-05
-5.40027e-05
7.966e-05
-4.85352e-05
6.88773e-05
-4.14175e-05
5.74887e-05
-3.33728e-05
4.60525e-05
-2.5522e-05
3.44233e-05
-1.8347e-05
2.27252e-05
-1.19799e-05
1.18676e-05
-6.63054e-06
3.87144e-06
-2.72557e-06
2.4096e-07
-6.01066e-07
-8.18945e-09
-2.72304e-05
9.60254e-06
-4.83988e-05
2.62305e-05
-6.15526e-05
3.79473e-05
-6.68797e-05
4.47561e-05
-6.47899e-05
4.70585e-05
-5.59361e-05
4.51951e-05
-4.12707e-05
3.95469e-05
-2.208e-05
3.06066e-05
4.82159e-08
1.90309e-05
2.33681e-05
5.64219e-06
4.61219e-05
-8.61321e-06
6.67098e-05
-2.27273e-05
8.38787e-05
-3.57282e-05
9.68366e-05
-4.67935e-05
0.000105305
-5.5338e-05
0.000109481
-6.10591e-05
0.00010993
-6.39404e-05
0.000107446
-6.42135e-05
0.000102884
-6.22822e-05
9.69944e-05
-5.86408e-05
8.86067e-05
-5.32552e-05
7.71655e-05
-4.58003e-05
6.45074e-05
-3.70527e-05
5.1422e-05
-2.83221e-05
3.7808e-05
-2.02022e-05
2.39901e-05
-1.28927e-05
1.14928e-05
-6.76619e-06
3.00633e-06
-2.47702e-06
-2.14801e-07
-3.7343e-07
8.53405e-08
-2.78618e-05
1.03171e-05
-4.97196e-05
2.83016e-05
-6.34988e-05
4.11661e-05
-6.94101e-05
4.88077e-05
-6.79542e-05
5.16842e-05
-5.97451e-05
5.02087e-05
-4.56699e-05
4.47692e-05
-2.69256e-05
3.58556e-05
-5.00644e-06
2.41065e-05
1.84204e-05
1.0333e-05
4.16453e-05
-4.51077e-06
6.3079e-05
-1.93961e-05
8.14335e-05
-3.33209e-05
9.58459e-05
-4.54145e-05
0.000105944
-5.50303e-05
0.000111811
-6.18019e-05
0.000113906
-6.56548e-05
0.000112928
-6.6771e-05
0.000109641
-6.55195e-05
0.000104703
-6.23699e-05
9.65818e-05
-5.71929e-05
8.4418e-05
-4.95137e-05
7.03152e-05
-4.01253e-05
5.5369e-05
-3.05164e-05
3.9618e-05
-2.1421e-05
2.38109e-05
-1.31892e-05
1.01659e-05
-6.42799e-06
1.72105e-06
-1.95452e-06
-8.26402e-07
-4.93356e-08
2.74029e-07
-2.87995e-06
6.82184e-08
-2.02041e-05
4.13069e-07
-7.48901e-05
1.29537e-06
-0.000155088
1.93122e-06
-0.000208903
1.78133e-06
-0.00021816
7.68286e-07
-0.000207875
-5.38947e-07
-0.000200828
-1.39987e-06
-0.000203848
-1.99119e-06
-0.000214125
-2.32129e-06
-0.000228102
-1.91282e-06
-0.000244868
-9.63352e-07
-0.000263051
2.08754e-07
-0.000280609
1.52974e-06
-0.000295853
3.07016e-06
-0.000307551
4.85484e-06
-0.000314783
6.70609e-06
-0.000316968
8.489e-06
-0.000313841
1.00797e-05
-0.000305401
1.1374e-05
-0.000291848
1.22945e-05
-0.000273512
1.27927e-05
-0.000250782
1.28448e-05
-0.000224059
1.2445e-05
-0.000193737
1.16004e-05
-0.000160206
1.03309e-05
-0.000123839
8.66748e-06
-8.49576e-05
6.64135e-06
-4.36129e-05
4.25658e-06
1.49885e-06
-3.21087e-06
1.29525e-07
-2.20794e-05
7.99179e-07
-7.82987e-05
2.32838e-06
-0.000156799
3.1784e-06
-0.000207017
2.50348e-06
-0.000214477
5.84529e-07
-0.000204616
-1.51742e-06
-0.000198643
-2.97486e-06
-0.000202576
-3.91154e-06
-0.000213873
-4.28004e-06
-0.000228679
-3.55369e-06
-0.000245799
-1.8547e-06
-0.000264118
4.25467e-07
-0.000281683
3.11448e-06
-0.000296925
6.29096e-06
-0.000308573
9.84489e-06
-0.000315716
1.35056e-05
-0.000317787
1.70175e-05
-0.000314534
2.01411e-05
-0.000305969
2.26747e-05
-0.0002923
2.44693e-05
-0.000273863
2.54317e-05
-0.000251046
2.55149e-05
-0.000224239
2.47046e-05
-0.000193815
2.30095e-05
-0.000160161
2.04647e-05
-0.000123682
1.71357e-05
-8.47576e-05
1.30992e-05
-4.34783e-05
8.37786e-06
2.94631e-06
-3.67235e-06
2.07901e-07
-2.41396e-05
1.15095e-06
-7.95453e-05
2.94351e-06
-0.000150845
3.66361e-06
-0.000193651
2.32504e-06
-0.000199979
-3.9997e-07
-0.000193135
-2.93795e-06
-0.000190633
-4.58264e-06
-0.000197062
-5.63869e-06
-0.000210099
-5.89352e-06
-0.000226174
-4.76232e-06
-0.000244064
-2.34792e-06
-0.000262815
9.923e-07
-0.000280663
5.0968e-06
-0.000296095
9.89488e-06
-0.000307868
1.51472e-05
-0.000315095
2.05149e-05
-0.000317225
2.56385e-05
-0.00031402
3.01771e-05
-0.000305501
3.3844e-05
-0.000291888
3.64282e-05
-0.000273519
3.77965e-05
-0.000250769
3.78783e-05
-0.000223992
3.6642e-05
-0.000193517
3.40838e-05
-0.000159712
3.02419e-05
-0.000123063
2.52249e-05
-8.41163e-05
1.91919e-05
-4.30693e-05
1.22248e-05
4.28969e-06
-4.16999e-06
3.02717e-07
-2.54067e-05
1.42935e-06
-7.64093e-05
3.10568e-06
-0.00013582
3.40234e-06
-0.000169544
1.55707e-06
-0.0001762
-1.5347e-06
-0.000174586
-4.2868e-06
-0.000177138
-6.00955e-06
-0.000187063
-6.94357e-06
-0.000202338
-6.93154e-06
-0.00021998
-5.28004e-06
-0.000239
-2.07146e-06
-0.000258531
2.32552e-06
-0.000276954
7.80238e-06
-0.000292817
1.41169e-05
-0.000304946
2.09446e-05
-0.000312488
2.78675e-05
-0.000314911
3.44371e-05
-0.000311987
4.02286e-05
-0.000303748
4.48861e-05
-0.000290424
4.81485e-05
-0.000272355
4.98494e-05
-0.000249893
4.98919e-05
-0.000223326
4.82138e-05
-0.000192875
4.47715e-05
-0.000158852
3.95784e-05
-0.000121879
3.27946e-05
-8.28582e-05
2.47357e-05
-4.22538e-05
1.56348e-05
5.46326e-06
-4.66992e-06
3.96925e-07
-2.56606e-05
1.57642e-06
-6.97852e-05
2.86365e-06
-0.000116072
2.58609e-06
-0.000141665
4.39664e-07
-0.000149508
-2.59352e-06
-0.00015332
-5.26751e-06
-0.000161006
-6.92696e-06
-0.000174505
-7.5433e-06
-0.000192199
-7.0898e-06
-0.000211578
-4.9396e-06
-0.00023187
-9.28476e-07
-0.000252365
4.58028e-06
-0.000271514
1.13468e-05
-0.00028796
1.90595e-05
-0.000300594
2.7312e-05
-0.000308597
3.5612e-05
-0.000311458
4.34379e-05
-0.000308962
5.02995e-05
-0.000301157
5.57892e-05
-0.000288293
5.96098e-05
-0.00027072
6.15703e-05
-0.000248759
6.15471e-05
-0.000222582
5.9428e-05
-0.000192207
5.50846e-05
-0.00015777
4.84458e-05
-0.000120072
3.97154e-05
-8.07064e-05
2.94946e-05
-4.07719e-05
1.83647e-05
6.36192e-06
-5.06786e-06
4.7213e-07
-2.46111e-05
1.53887e-06
-6.03954e-05
2.22876e-06
-9.45903e-05
1.3831e-06
-0.000114226
-8.13258e-07
-0.000123797
-3.46244e-06
-0.000132303
-5.7011e-06
-0.000144419
-7.03637e-06
-0.000161056
-7.33061e-06
-0.000180848
-6.43741e-06
-0.000201857
-3.69744e-06
-0.000223451
1.18928e-06
-0.000244931
7.81476e-06
-0.000264855
1.57917e-05
-0.00028195
2.47696e-05
-0.000295163
3.4276e-05
-0.000303711
4.37569e-05
-0.0003071
5.26346e-05
-0.000305136
6.03725e-05
-0.000297891
6.65297e-05
-0.00028565
7.079e-05
-0.000268794
7.29505e-05
-0.000247609
7.2863e-05
-0.000222091
7.03427e-05
-0.000191894
6.51122e-05
-0.000156729
5.69006e-05
-0.000117529
4.58914e-05
-7.71637e-05
3.31658e-05
-3.8141e-05
2.00466e-05
6.81564e-06
-5.24057e-06
5.06845e-07
-2.22123e-05
1.32025e-06
-4.9434e-05
1.37496e-06
-7.39663e-05
1.30257e-07
-8.98938e-05
-1.87637e-06
-0.000101313
-3.94536e-06
-0.000113438
-5.59327e-06
-0.000128803
-6.48936e-06
-0.000147788
-6.41346e-06
-0.000169235
-4.98899e-06
-0.000191659
-1.48013e-06
-0.000214457
4.35333e-06
-0.000236845
1.20412e-05
-0.000257504
2.1132e-05
-0.000275234
3.12295e-05
-0.000289032
4.18077e-05
-0.000298144
5.22652e-05
-0.0003021
6.1986e-05
-0.000300726
7.04058e-05
-0.000294137
7.70697e-05
-0.000282682
8.16625e-05
-0.000266804
8.39888e-05
-0.000246765
8.3883e-05
-0.00022231
8.10661e-05
-0.000192533
7.50382e-05
-0.000156275
6.51469e-05
-0.000114289
5.13572e-05
-7.15795e-05
3.54523e-05
-3.36152e-05
2.0201e-05
6.58148e-06
-5.09987e-06
4.88785e-07
-1.87907e-05
9.72167e-07
-3.84123e-05
5.26444e-07
-5.61149e-05
-8.50446e-07
-7.0006e-05
-2.50987e-06
-8.28834e-05
-3.98812e-06
-9.7415e-05
-5.05281e-06
-0.000114893
-5.43505e-06
-0.000135485
-4.79695e-06
-0.000158201
-2.63555e-06
-0.000181764
1.74224e-06
-0.000205534
8.52122e-06
-0.000228673
1.72103e-05
-0.000249953
2.73073e-05
-0.000268237
3.83711e-05
-0.000282563
4.98351e-05
-0.000292205
6.10658e-05
-0.000296713
7.14253e-05
-0.000295946
8.03397e-05
-0.000290082
8.73602e-05
-0.000279578
9.21968e-05
-0.000264991
9.46874e-05
-0.000246571
9.46603e-05
-0.000223727
9.17176e-05
-0.000194854
8.50974e-05
-0.000157346
7.35763e-05
-0.00011084
5.64711e-05
-6.34207e-05
3.63338e-05
-2.62864e-05
1.84401e-05
5.4126e-06
-4.63467e-06
4.19536e-07
-1.49174e-05
5.7786e-07
-2.86417e-05
-1.30456e-07
-4.19776e-05
-1.38094e-06
-5.47299e-05
-2.63144e-06
-6.84376e-05
-3.59061e-06
-8.43541e-05
-4.08864e-06
-0.000103128
-3.83714e-06
-0.000124779
-2.43891e-06
-0.00014837
6.05836e-07
-0.000172737
5.90712e-06
-0.000197207
1.36149e-05
-0.00022089
2.32316e-05
-0.000242627
3.42184e-05
-0.000261333
4.60921e-05
-0.000276082
5.82582e-05
-0.00028617
7.00657e-05
-0.000291172
8.08701e-05
-0.00029099
9.01039e-05
-0.000285892
9.73444e-05
-0.000276499
0.000102355
-0.000263561
0.00010504
-0.000247288
0.000105222
-0.000226553
0.000102308
-0.000199228
9.53326e-05
-0.000161112
8.26053e-05
-0.000108695
6.21743e-05
-5.31788e-05
3.6745e-05
-1.57121e-05
1.5159e-05
3.34542e-06
-3.91404e-06
3.13126e-07
-1.11928e-05
2.21862e-07
-2.08808e-05
-4.99492e-07
-3.15885e-05
-1.4544e-06
-4.35571e-05
-2.29847e-06
-5.75659e-05
-2.79557e-06
-7.41915e-05
-2.7053e-06
-9.37059e-05
-1.69792e-06
-0.000115991
6.12008e-07
-0.000140115
4.6549e-06
-0.000164977
1.09284e-05
-0.000189867
1.95326e-05
-0.000213861
2.99897e-05
-0.000235864
4.17452e-05
-0.000254828
5.42723e-05
-0.000269857
6.69631e-05
-0.000280272
7.91623e-05
-0.000285674
9.02315e-05
-0.000286016
9.96227e-05
-0.000281688
0.000106958
-0.000273551
0.000112086
-0.000262625
0.000115015
-0.000248947
0.000115527
-0.000230097
0.000112523
-0.000204171
0.000104919
-0.000167788
9.18378e-05
-0.000111205
7.0054e-05
-4.45974e-05
3.98885e-05
-3.72139e-06
1.31255e-05
1.39593e-06
-3.05437e-06
1.89917e-07
-8.05535e-06
-4.076e-08
-1.52787e-05
-5.87811e-07
-2.44236e-05
-1.18078e-06
-3.57652e-05
-1.62558e-06
-4.97714e-05
-1.64417e-06
-6.6704e-05
-9.02413e-07
-8.65969e-05
9.57512e-07
-0.000109232
4.29226e-06
-0.000133642
9.42923e-06
-0.000158741
1.67138e-05
-0.000183814
2.61827e-05
-0.000207913
3.73752e-05
-0.00022998
4.97519e-05
-0.000249023
6.27758e-05
-0.000264169
7.58211e-05
-0.000274765
8.8239e-05
-0.000280438
9.94063e-05
-0.0002812
0.000108804
-0.000277588
0.000116112
-0.00027078
0.000121296
-0.000262183
0.000124523
-0.000251346
0.000125465
-0.000232033
0.000121564
-0.000202774
0.000110707
-0.000171454
9.67518e-05
-0.000122482
7.98203e-05
-4.8297e-05
5.18057e-05
2.22676e-06
1.94316e-05
2.44783e-06
-2.17826e-06
6.94244e-08
-5.69991e-06
-1.94097e-07
-1.15691e-05
-4.76784e-07
-1.98058e-05
-7.0202e-07
-3.0697e-05
-7.0455e-07
-4.45981e-05
-1.5549e-07
-6.16381e-05
1.33139e-06
-8.17243e-05
4.1257e-06
-0.000104559
8.56075e-06
-0.000129094
1.48488e-05
-0.000154204
2.31408e-05
-0.00017923
3.34159e-05
-0.00020324
4.52454e-05
-0.000225188
5.81032e-05
-0.000244125
7.14683e-05
-0.000259212
8.4708e-05
-0.000269823
9.71852e-05
-0.000275612
0.000108298
-0.000276642
0.000117559
-0.000273606
0.000124709
-0.000268057
0.00012985
-0.000261983
0.000133395
-0.00025449
0.000135072
-0.000232296
0.000130285
-0.000189192
0.000113205
-0.000158042
9.37359e-05
-0.000134543
8.44882e-05
-7.05926e-05
6.88868e-05
-6.73448e-06
3.57107e-05
8.16896e-06
-1.40196e-06
-2.78225e-08
-4.1433e-06
-2.44779e-07
-9.36732e-06
-2.51833e-07
-1.71829e-05
-9.27375e-08
-2.78652e-05
4.30746e-07
-4.16961e-05
1.66054e-06
-5.8783e-05
3.99618e-06
-7.89968e-05
7.80358e-06
-0.000101979
1.33907e-05
-0.00012653
2.08454e-05
-0.000151455
3.01006e-05
-0.000176191
4.10845e-05
-0.000199884
5.34512e-05
-0.000221514
6.6681e-05
-0.000240148
8.0245e-05
-0.000254992
9.35319e-05
-0.000265444
0.000105924
-0.00027118
0.000116845
-0.000272296
0.000125834
-0.000269593
0.000132678
-0.000264974
0.000137594
-0.000261197
0.000141288
-0.000257865
0.000143979
-0.000236378
0.000140791
-0.000177689
0.000122076
-0.000129948
9.50334e-05
-0.000123414
8.10433e-05
-8.6571e-05
7.13154e-05
-2.29562e-05
4.46371e-05
1.31874e-05
-8.67662e-07
-7.11058e-08
-3.37806e-06
-1.93832e-07
-8.45804e-06
9.27481e-08
-1.62257e-05
6.66953e-07
-2.69322e-05
1.80281e-06
-4.08168e-05
3.82419e-06
-5.79873e-05
7.10653e-06
-7.83293e-05
1.20022e-05
-0.000101464
1.87952e-05
-0.000125911
2.74096e-05
-0.000150431
3.75465e-05
-0.00017469
4.91276e-05
-0.000197866
6.19171e-05
-0.00021897
7.53966e-05
-0.000237109
8.90244e-05
-0.000251526
0.000102221
-0.000261648
0.000114397
-0.000267162
0.000125004
-0.00026816
0.000133598
-0.000265458
0.00013998
-0.000261108
0.000144395
-0.000258447
0.000147707
-0.000258351
0.000150674
-0.000243358
0.00015002
-0.000183863
0.000136029
-0.000114048
0.000107269
-9.10038e-05
8.01506e-05
-7.19447e-05
6.15467e-05
-2.84758e-05
3.99623e-05
1.34534e-05
-9.22068e-07
1.01115e-07
-3.70388e-06
1.45111e-08
-8.94655e-06
6.37842e-07
-1.68699e-05
1.72827e-06
-2.77552e-05
3.57645e-06
-4.18161e-05
6.48278e-06
-5.91416e-05
1.07858e-05
-7.96506e-05
1.68223e-05
-0.00010285
2.47848e-05
-0.000127004
3.44414e-05
-0.000150969
4.54045e-05
-0.000174612
5.75542e-05
-0.000197102
7.06707e-05
-0.000217483
8.42652e-05
-0.000234931
9.78157e-05
-0.000248739
0.000110787
-0.000258365
0.000122626
-0.000263496
0.000132808
-0.000264185
0.000140901
-0.000261145
0.000146682
-0.000256259
0.000150325
-0.000252796
0.000152586
-0.000252393
0.000154317
-0.000242336
0.000153638
-0.000194114
0.000143195
-0.000119469
0.000117907
-7.18228e-05
8.62058e-05
-4.98848e-05
5.9481e-05
-2.44406e-05
3.67211e-05
1.27589e-05
-2.93559e-05
1.09302e-05
-5.28278e-05
3.01581e-05
-6.80966e-05
4.4301e-05
-7.50084e-05
5.30319e-05
-7.41944e-05
5.66301e-05
-6.64058e-05
5.56254e-05
-5.2501e-05
5.05023e-05
-3.36397e-05
4.17472e-05
-1.12647e-05
2.99842e-05
1.29912e-05
1.59976e-05
3.74065e-05
7.31553e-07
6.03531e-05
-1.47732e-05
8.04798e-05
-2.94913e-05
9.68287e-05
-4.25162e-05
0.000108918
-5.31499e-05
0.000116718
-6.09635e-05
0.000120587
-6.58195e-05
0.000121135
-6.78472e-05
0.000119049
-6.73748e-05
0.000114895
-6.48365e-05
0.000106758
-6.00167e-05
9.33688e-05
-5.22645e-05
7.71214e-05
-4.23229e-05
5.957e-05
-3.18657e-05
4.10878e-05
-2.1839e-05
2.308e-05
-1.28197e-05
8.4054e-06
-5.6382e-06
5.14387e-08
-1.12466e-06
-2.0361e-06
6.3663e-07
6.85058e-07
-7.38761e-07
-3.02657e-05
1.14976e-05
-5.48903e-05
3.18025e-05
-7.17112e-05
4.70939e-05
-8.00748e-05
5.71301e-05
-8.01924e-05
6.18327e-05
-7.30356e-05
6.14987e-05
-5.96351e-05
5.68012e-05
-4.10949e-05
4.83552e-05
-1.87682e-05
3.67507e-05
5.78937e-06
2.27327e-05
3.08776e-05
7.22998e-06
5.48633e-05
-8.71398e-06
7.63608e-05
-2.40651e-05
9.43419e-05
-3.78908e-05
0.000108222
-4.94484e-05
0.00011785
-5.8251e-05
0.000123461
-6.40983e-05
0.000125553
-6.70638e-05
0.000124712
-6.7434e-05
0.000121414
-6.5615e-05
0.000113493
-6.13526e-05
9.90823e-05
-5.37563e-05
8.07357e-05
-4.33877e-05
6.07498e-05
-3.21655e-05
4.00374e-05
-2.13698e-05
2.06707e-05
-1.1812e-05
5.71071e-06
-4.42865e-06
-2.45534e-06
1.07621e-07
-4.56677e-06
1.96886e-06
2.24477e-06
-3.95107e-06
-3.1149e-05
1.20526e-05
-5.66942e-05
3.33637e-05
-7.48304e-05
4.95667e-05
-8.50401e-05
6.07336e-05
-8.68044e-05
6.68593e-05
-8.0617e-05
6.77113e-05
-6.78547e-05
6.36925e-05
-4.98411e-05
5.57022e-05
-2.77855e-05
4.44496e-05
-3.15121e-06
3.05937e-05
2.23673e-05
1.50513e-05
4.71503e-05
-1.12776e-06
6.97927e-05
-1.69149e-05
8.92043e-05
-3.1365e-05
0.000104706
-4.37031e-05
0.00011602
-5.33898e-05
0.000123249
-6.01606e-05
0.000126772
-6.40338e-05
0.000127086
-6.52578e-05
0.000124642
-6.42439e-05
0.000117364
-6.0851e-05
0.000102172
-5.3798e-05
8.16357e-05
-4.31529e-05
5.94643e-05
-3.12875e-05
3.70638e-05
-1.99853e-05
1.69891e-05
-1.01648e-05
2.0114e-06
-2.73051e-06
-6.27675e-06
1.88583e-06
-8.96604e-06
3.99726e-06
4.60266e-06
-8.94668e-06
-3.20873e-05
1.25878e-05
-5.85256e-05
3.48865e-05
-7.76341e-05
5.19331e-05
-8.93962e-05
6.39306e-05
-9.33452e-05
7.12648e-05
-8.90127e-05
7.37204e-05
-7.72924e-05
7.10194e-05
-6.00295e-05
6.38104e-05
-3.85128e-05
5.31088e-05
-1.4042e-05
3.9618e-05
1.16203e-05
2.42384e-05
3.68953e-05
8.05338e-06
6.0376e-05
-7.94072e-06
8.09202e-05
-2.27995e-05
9.77654e-05
-3.57238e-05
0.000110511
-4.61353e-05
0.000119118
-5.37081e-05
0.000123845
-5.83995e-05
0.000125118
-6.04198e-05
0.000123412
-6.01768e-05
0.000117112
-5.76794e-05
0.000101818
-5.15291e-05
7.96171e-05
-4.12664e-05
5.56804e-05
-2.9209e-05
3.21726e-05
-1.76403e-05
1.18811e-05
-7.77998e-06
-3.09711e-06
-3.81507e-07
-1.19069e-05
4.38458e-06
-1.58048e-05
6.8924e-06
8.00763e-06
-1.70961e-05
-3.30836e-05
1.31009e-05
-6.04884e-05
3.63544e-05
-8.05342e-05
5.42496e-05
-9.33984e-05
6.70038e-05
-9.91778e-05
7.51554e-05
-9.73745e-05
7.89437e-05
-8.77368e-05
7.80662e-05
-7.18253e-05
7.24641e-05
-5.11373e-05
6.27624e-05
-2.70474e-05
4.97983e-05
-1.57645e-06
3.47679e-05
2.3815e-05
1.88348e-05
4.77558e-05
2.89243e-06
6.9051e-05
-1.21319e-05
8.68575e-05
-2.5412e-05
0.000100673
-3.6339e-05
0.000110314
-4.45365e-05
0.000115916
-4.98991e-05
0.000117812
-5.2577e-05
0.000116421
-5.28996e-05
0.000110371
-5.07727e-05
9.56457e-05
-4.52411e-05
7.35777e-05
-3.61344e-05
4.90569e-05
-2.50828e-05
2.52249e-05
-1.40631e-05
4.973e-06
-4.49097e-06
-1.01379e-05
2.84795e-06
-1.97991e-05
7.8076e-06
-2.52628e-05
1.07688e-05
1.24549e-05
-2.8158e-05
-3.41429e-05
1.35851e-05
-6.25824e-05
3.77483e-05
-8.36604e-05
5.64727e-05
-9.75756e-05
7.0009e-05
-0.00010463
7.88964e-05
-0.000104947
8.35391e-05
-9.81002e-05
8.40882e-05
-8.45773e-05
8.04195e-05
-6.54996e-05
7.2549e-05
-4.23054e-05
6.08856e-05
-1.73583e-05
4.65941e-05
7.70772e-06
3.11503e-05
3.16738e-05
1.55376e-05
5.32629e-05
6.17314e-07
7.15809e-05
-1.27632e-05
8.60197e-05
-2.39729e-05
9.6277e-05
-3.25838e-05
0.000102361
-3.84372e-05
0.000104466
-4.16052e-05
0.000102845
-4.23087e-05
9.60146e-05
-4.03353e-05
8.17129e-05
-3.51295e-05
6.12774e-05
-2.71083e-05
3.81866e-05
-1.77026e-05
1.54326e-05
-8.24538e-06
-4.38816e-06
3.29573e-07
-1.97281e-05
7.31798e-06
-3.04274e-05
1.24118e-05
-3.75407e-05
1.58088e-05
1.80232e-05
-4.20975e-05
-3.52673e-05
1.40348e-05
-6.48188e-05
3.90564e-05
-8.70174e-05
5.85863e-05
-0.0001021
7.29015e-05
-0.000110366
8.25701e-05
-0.00011215
8.79801e-05
-0.000107605
8.94384e-05
-9.68033e-05
8.71001e-05
-8.0491e-05
8.11731e-05
-5.95119e-05
7.17993e-05
-3.58189e-05
5.93292e-05
-1.15269e-05
4.49109e-05
1.20052e-05
2.98635e-05
3.33676e-05
1.53169e-05
5.17092e-05
2.10747e-06
6.62909e-05
-9.14458e-06
7.67171e-05
-1.79468e-05
8.28901e-05
-2.41025e-05
8.48602e-05
-2.76217e-05
8.27615e-05
-2.86594e-05
7.5248e-05
-2.70706e-05
6.12202e-05
-2.25028e-05
4.2505e-05
-1.55382e-05
2.19319e-05
-7.61449e-06
1.44498e-06
2.15866e-07
-1.71917e-05
7.43646e-06
-3.25624e-05
1.3642e-05
-4.42871e-05
1.85816e-05
-5.29615e-05
2.22536e-05
2.48925e-05
-5.90752e-05
-3.646e-05
1.44446e-05
-6.72051e-05
4.02634e-05
-9.0614e-05
6.05632e-05
-0.00010696
7.56403e-05
-0.000116584
8.61033e-05
-0.000119795
9.2361e-05
-0.000116977
9.47218e-05
-0.000108408
9.34204e-05
-9.50136e-05
8.88606e-05
-7.73278e-05
8.1481e-05
-5.62137e-05
7.14069e-05
-3.36028e-05
5.90494e-05
-1.1251e-05
4.54543e-05
9.37291e-06
3.17606e-05
2.72519e-05
1.89392e-05
4.14933e-05
7.868e-06
5.16545e-05
-9.00822e-07
5.75635e-05
-7.1741e-06
5.92061e-05
-1.09361e-05
5.66964e-05
-1.232e-05
4.91624e-05
-1.12933e-05
3.60097e-05
-7.71508e-06
1.91266e-05
-2.15489e-06
9.66395e-07
4.24278e-06
-1.71742e-05
1.06731e-05
-3.41662e-05
1.67001e-05
-4.91083e-05
2.2037e-05
-6.15627e-05
2.65613e-05
-7.16842e-05
3.0265e-05
3.32175e-05
-7.93911e-05
-3.77201e-05
1.48054e-05
-6.97396e-05
4.1344e-05
-9.4449e-05
6.23677e-05
-0.000112164
7.81865e-05
-0.00012327
8.94451e-05
-0.000128103
9.65809e-05
-0.000127051
9.99215e-05
-0.000120547
9.9753e-05
-0.000109528
9.64255e-05
-9.48455e-05
9.04243e-05
-7.69795e-05
8.21401e-05
-5.72804e-05
7.20141e-05
-3.7298e-05
6.07046e-05
-1.83214e-05
4.88602e-05
-1.57768e-06
3.72158e-05
1.18819e-05
2.67021e-05
2.13847e-05
1.81557e-05
2.67677e-05
1.19179e-05
2.80182e-05
7.97925e-06
2.5294e-05
6.21859e-06
1.82352e-05
6.54658e-06
6.63663e-06
8.93647e-06
-8.01683e-06
1.29558e-05
-2.38962e-05
1.78012e-05
-3.99649e-05
2.28561e-05
-5.53612e-05
2.77633e-05
-6.9525e-05
3.22863e-05
-8.21886e-05
3.63055e-05
-9.33748e-05
3.9806e-05
4.27726e-05
-0.000102474
-3.90541e-05
1.51177e-05
-7.2426e-05
4.22867e-05
-9.85209e-05
6.39688e-05
-0.000117707
8.04943e-05
-0.000130416
9.25377e-05
-0.00013702
0.000100564
-0.00013793
0.000104924
-0.000133661
0.000105927
-0.000124982
0.000103916
-0.000112817
9.93047e-05
-9.79017e-05
9.25066e-05
-8.14688e-05
8.41094e-05
-6.46344e-05
7.47938e-05
-4.85341e-05
6.5165e-05
-3.40828e-05
5.56616e-05
-2.21035e-05
4.66289e-05
-1.35768e-05
3.87315e-05
-8.84748e-06
3.26206e-05
-7.96486e-06
2.85336e-05
-1.06853e-05