/*--------------------------------*- C++ -*----------------------------------*\
| =========                 |                                                 |
| \\      /  F ield         | OpenFOAM: The Open Source CFD Toolbox           |
|  \\    /   O peration     | Version:  dev                                   |
|   \\  /    A nd           | Web:      www.OpenFOAM.org                      |
|    \\/     M anipulation  |                                                 |
\*---------------------------------------------------------------------------*/
FoamFile
{
    version     2.0;
    format      ascii;
    class       surfaceScalarField;
    location    "0.94";
    object      meshPhi;
}
// * * * * * * * * * * * * * * * * * * * * * * * * * * * * * * * * * * * * * //

dimensions      [0 3 -1 0 0 0 0];

internalField   nonuniform List<scalar> 
5457
(
1.57889e-06
-8.85637e-08
-1.22797e-07
-1.97447e-07
-6.77016e-06
-1.50933e-07
-1.84076e-05
7.41433e-08
-3.39749e-05
4.60601e-07
-5.17862e-05
9.67291e-07
-6.99018e-05
1.53969e-06
-8.64219e-05
2.11793e-06
-9.97178e-05
2.64398e-06
-0.000108613
3.06727e-06
-0.000112493
3.34748e-06
-0.000111314
3.46163e-06
-0.000105552
3.40781e-06
-9.6089e-05
3.20058e-06
-8.40565e-05
2.86897e-06
-7.06654e-05
2.45157e-06
-5.70516e-05
1.99067e-06
-4.41582e-05
1.52663e-06
-3.26666e-05
1.09324e-06
-2.29677e-05
7.14519e-07
-1.54872e-05
4.18447e-07
-1.01527e-05
2.23292e-07
-6.36813e-06
1.07356e-07
-3.7683e-06
3.97041e-08
-2.07131e-06
4.75237e-09
-1.02745e-06
-8.69814e-09
-4.34483e-07
-1.01019e-08
-1.3884e-07
-6.66016e-09
-2.73061e-08
-3.01331e-09
-6.60664e-10
1.94714e-06
-1.85114e-07
4.89453e-07
-4.16409e-07
-6.0446e-06
-3.32391e-07
-1.76785e-05
1.13031e-07
-3.33375e-05
8.85093e-07
-5.13178e-05
1.90125e-06
-6.96591e-05
3.05218e-06
-8.64386e-05
4.21758e-06
-9.99981e-05
5.27973e-06
-0.000109131
6.13515e-06
-0.000113201
6.70457e-06
-0.000112151
6.94302e-06
-0.000106451
6.84412e-06
-9.69867e-05
6.43612e-06
-8.49015e-05
5.77687e-06
-7.1423e-05
4.94372e-06
-5.77045e-05
4.02173e-06
-4.47051e-05
3.09222e-06
-3.31193e-05
2.22355e-06
-2.33528e-05
1.46476e-06
-1.57958e-05
8.7005e-07
-1.03887e-05
4.74506e-07
-6.56103e-06
2.37483e-07
-3.91873e-06
9.77374e-08
-2.18201e-06
2.32307e-08
-1.10144e-06
-7.90538e-09
-4.76249e-07
-1.43654e-08
-1.56509e-07
-1.03532e-08
-3.2194e-08
-4.91273e-09
-1.08418e-09
2.35249e-06
-2.9367e-07
1.18113e-06
-6.68017e-07
-5.19102e-06
-5.61447e-07
-1.67728e-05
9.39087e-08
-3.2479e-05
1.24519e-06
-5.05926e-05
2.76862e-06
-6.91419e-05
4.50024e-06
-8.6188e-05
6.25917e-06
-0.000100048
7.86701e-06
-0.000109486
9.16588e-06
-0.000113838
1.00392e-05
-0.000113029
1.04204e-05
-0.00010751
1.02953e-05
-9.81606e-05
9.70418e-06
-8.61258e-05
8.73273e-06
-7.26414e-05
7.49637e-06
-5.88732e-05
6.12249e-06
-4.57942e-05
4.73348e-06
-3.41125e-05
3.43268e-06
-2.42444e-05
2.29493e-06
-1.65591e-05
1.39829e-06
-1.10117e-05
7.92601e-07
-7.05906e-06
4.21954e-07
-4.29702e-06
1.97875e-07
-2.45085e-06
7.2283e-08
-1.27461e-06
1.3274e-08
-5.71004e-07
-6.57194e-09
-1.95359e-07
-8.14286e-09
-4.24161e-08
-4.68745e-09
-1.05007e-09
2.7616e-06
-4.17207e-07
1.90526e-06
-9.61307e-07
-4.25699e-06
-8.53598e-07
-1.57292e-05
-5.49395e-09
-3.14212e-05
1.51141e-06
-4.96091e-05
3.53193e-06
-6.83208e-05
5.83847e-06
-8.56109e-05
8.19149e-06
-9.97811e-05
1.03535e-05
-0.000109574
1.21141e-05
-0.000114297
1.33162e-05
-0.000113842
1.38677e-05
-0.000108637
1.3746e-05
-9.95391e-05
1.30016e-05
-8.76825e-05
1.17458e-05
-7.42998e-05
1.01304e-05
-6.0561e-05
8.32375e-06
-4.74486e-05
6.48867e-06
-3.56821e-05
4.76349e-06
-2.56883e-05
3.24931e-06
-1.78275e-05
2.04596e-06
-1.20662e-05
1.21592e-06
-7.89472e-06
6.91837e-07
-4.92401e-06
3.63027e-07
-2.8888e-06
1.67591e-07
-1.55145e-06
6.46265e-08
-7.21086e-07
1.86932e-08
-2.5681e-07
2.56341e-09
-5.81312e-08
-1.3805e-09
-3.46632e-10
3.27031e-06
-5.59639e-07
2.81941e-06
-1.30798e-06
-3.06236e-06
-1.2282e-06
-1.43743e-05
-2.11542e-07
-3.0023e-05
1.65109e-06
-4.82801e-05
4.15386e-06
-6.71718e-05
7.02697e-06
-8.47484e-05
9.97413e-06
-9.92977e-05
1.27006e-05
-0.00010954
1.49447e-05
-0.000114746
1.6506e-05
-0.000114768
1.72636e-05
-0.000109998
1.7185e-05
-0.000101265
1.63274e-05
-8.96821e-05
1.48254e-05
-7.64741e-05
1.28645e-05
-6.28118e-05
1.0652e-05
-4.96858e-05
8.38995e-06
-3.78292e-05
6.25151e-06
-2.7684e-05
4.36455e-06
-1.95958e-05
2.84837e-06
-1.35424e-05
1.77562e-06
-9.06537e-06
1.07246e-06
-5.80004e-06
6.12719e-07
-3.49536e-06
3.23111e-07
-1.92912e-06
1.54946e-07
-9.22941e-07
6.61602e-08
-3.3876e-07
2.3894e-08
-7.84902e-08
5.74603e-09
1.165e-09
3.88464e-06
-7.2498e-07
3.93083e-06
-1.71926e-06
-1.59868e-06
-1.70287e-06
-1.26958e-05
-5.48226e-07
-2.82667e-05
1.63445e-06
-4.65839e-05
4.60063e-06
-6.56701e-05
8.02997e-06
-8.35723e-05
1.15703e-05
-9.85668e-05
1.48714e-05
-0.000109348
1.76206e-05
-0.000115146
1.9574e-05
-0.000115767
2.05802e-05
-0.000111556
2.05926e-05
-0.000103305
1.96714e-05
-9.20997e-05
1.79712e-05
-7.9149e-05
1.57082e-05
-6.56202e-05
1.31251e-05
-5.25107e-05
1.04617e-05
-4.05685e-05
7.92569e-06
-3.02536e-05
5.67238e-06
-2.18849e-05
3.83711e-06
-1.54563e-05
2.49894e-06
-1.05853e-05
1.58459e-06
-6.93903e-06
9.6218e-07
-4.28122e-06
5.49982e-07
-2.41169e-06
2.91824e-07
-1.17413e-06
1.39964e-07
-4.37409e-07
5.73839e-08
-1.01902e-07
1.70701e-08
3.51759e-09
4.60893e-06
-9.1727e-07
5.24569e-06
-2.20686e-06
1.4143e-07
-2.29588e-06
-1.06863e-05
-1.0393e-06
-2.61436e-05
1.43292e-06
-4.45068e-05
4.8384e-06
-6.37942e-05
8.80724e-06
-8.20524e-05
1.29338e-05
-9.75497e-05
1.6816e-05
-0.000108951
2.00908e-05
-0.000115444
2.24707e-05
-0.000116783
2.37725e-05
-0.000113259
2.39325e-05
-0.000105612
2.30092e-05
-9.48959e-05
2.11705e-05
-8.22958e-05
1.86584e-05
-6.89699e-05
1.57486e-05
-5.59184e-05
1.27164e-05
-4.39056e-05
9.80319e-06
-3.34142e-05
7.19323e-06
-2.47205e-05
5.03488e-06
-1.78295e-05
3.40842e-06
-1.24634e-05
2.24697e-06
-8.34083e-06
1.42418e-06
-5.24523e-06
8.56011e-07
-2.99721e-06
4.80219e-07
-1.4693e-06
2.42799e-07
-5.47862e-07
1.03669e-07
-1.26491e-07
3.24226e-08
6.54681e-09
5.44871e-06
-1.1403e-06
6.77357e-06
-2.78175e-06
2.16896e-06
-3.02422e-06
-8.33429e-06
-1.70681e-06
-2.36382e-05
1.0186e-06
-4.20247e-05
4.83224e-06
-6.15125e-05
9.31794e-06
-8.01489e-05
1.402e-05
-9.61951e-05
1.84866e-05
-0.000108288
2.23058e-05
-0.00011557
2.51473e-05
-0.000117741
2.67942e-05
-0.00011503
2.7163e-05
-0.000108117
2.63061e-05
-9.80101e-05
2.43974e-05
-8.58659e-05
2.16982e-05
-7.28267e-05
1.85149e-05
-5.98898e-05
1.51555e-05
-4.78316e-05
1.18928e-05
-3.71655e-05
8.93889e-06
-2.81123e-05
6.45357e-06
-2.06758e-05
4.51573e-06
-1.47057e-05
3.07064e-06
-9.99731e-06
2.00763e-06
-6.37083e-06
1.24611e-06
-3.66964e-06
7.21513e-07
-1.79573e-06
3.74571e-07
-6.62302e-07
1.62037e-07
-1.48526e-07
5.09361e-08
9.81714e-09
6.41173e-06
-1.39799e-06
8.52411e-06
-3.45366e-06
4.49199e-06
-3.90115e-06
-5.63065e-06
-2.56809e-06
-2.07344e-05
3.68539e-07
-3.91097e-05
4.55276e-06
-5.87866e-05
9.52691e-06
-7.78124e-05
1.4789e-05
-9.44403e-05
1.98387e-05
-0.000107283
2.4218e-05
-0.000115439
2.75542e-05
-0.000118548
2.95961e-05
-0.000116771
3.02364e-05
-0.000110723
2.95162e-05
-0.000101355
2.761e-05
-8.97824e-05
2.47935e-05
-7.71257e-05
2.13972e-05
-6.43771e-05
1.77598e-05
-5.23215e-05
1.4185e-05
-4.14971e-05
1.09102e-05
-3.20478e-05
8.09927e-06
-2.3976e-05
5.82546e-06
-1.7294e-05
4.05738e-06
-1.18862e-05
2.71335e-06
-7.62506e-06
1.71974e-06
-4.39536e-06
1.0127e-06
-2.13122e-06
5.31782e-07
-7.68725e-07
2.30232e-07
-1.62224e-07
7.13359e-08
1.28097e-08
7.5075e-06
-1.69365e-06
1.05089e-05
-4.23153e-06
7.11986e-06
-4.93999e-06
-2.56632e-06
-3.64046e-06
-1.7422e-05
-5.38613e-07
-3.57452e-05
3.97416e-06
-5.55844e-05
9.4015e-06
-7.49932e-05
1.51993e-05
-9.22188e-05
2.08228e-05
-0.000105853
2.57706e-05
-0.000114952
2.96294e-05
-0.000119092
3.21126e-05
-0.000118364
3.30862e-05
-0.000113309
3.2575e-05
-0.00010481
3.07489e-05
-9.39329e-05
2.78915e-05
-8.17642e-05
2.43521e-05
-6.92881e-05
2.04941e-05
-5.73015e-05
1.66495e-05
-4.63587e-05
1.30837e-05
-3.64883e-05
9.95852e-06
-2.76834e-05
7.33155e-06
-2.01717e-05
5.20194e-06
-1.39521e-05
3.53419e-06
-8.95195e-06
2.26906e-06
-5.12423e-06
1.34545e-06
-2.44206e-06
7.06632e-07
-8.49633e-07
3.03203e-07
-1.6107e-07
9.14901e-08
1.49738e-08
8.7457e-06
-2.02966e-06
1.2742e-05
-5.12241e-06
1.00657e-05
-6.15189e-06
8.71017e-07
-4.93819e-06
-1.36871e-05
-1.7207e-06
-3.19122e-05
3.07327e-06
-5.18737e-05
8.91128e-06
-7.164e-05
1.52116e-05
-8.94586e-05
2.13897e-05
-0.000103905
2.69048e-05
-0.000113994
3.13051e-05
-0.000119241
3.42689e-05
-0.000119661
3.56331e-05
-0.000115716
3.54022e-05
-0.000108213
3.37355e-05
-9.81581e-05
3.09177e-05
-8.65952e-05
2.73118e-05
-7.4491e-05
2.33015e-05
-6.26457e-05
1.92416e-05
-5.16285e-05
1.5421e-05
-4.13289e-05
1.19964e-05
-3.17067e-05
9.00639e-06
-2.32424e-05
6.48449e-06
-1.60983e-05
4.45287e-06
-1.02685e-05
2.87798e-06
-5.78742e-06
1.70565e-06
-2.67753e-06
8.86685e-07
-8.78976e-07
3.72467e-07
-1.36606e-07
1.07946e-07
1.56742e-08
1.01401e-05
-2.4096e-06
1.52411e-05
-6.13475e-06
1.33413e-05
-7.54604e-06
4.69047e-06
-6.47082e-06
-9.5176e-06
-3.19024e-06
-2.75901e-05
1.832e-06
-4.76213e-05
8.03031e-06
-6.77009e-05
1.479e-05
-8.60841e-05
2.14924e-05
-0.000101335
2.75614e-05
-0.000112435
3.25103e-05
-0.000118838
3.59832e-05
-0.000120485
3.77871e-05
-0.00011775
3.79029e-05
-0.000111361
3.64734e-05
-0.000102248
3.37787e-05
-9.14088e-05
3.0187e-05
-7.97858e-05
2.60973e-05
-6.81689e-05
2.18864e-05
-5.71238e-05
1.78605e-05
-4.63866e-05
1.41607e-05
-3.58798e-05
1.08027e-05
-2.63568e-05
7.86444e-06
-1.8188e-05
5.43701e-06
-1.14596e-05
3.51981e-06
-6.29257e-06
2.07209e-06
-2.77206e-06
1.0568e-06
-8.22454e-07
4.28938e-07
-7.6137e-08
1.17246e-07
1.44143e-08
1.17117e-05
-2.83748e-06
1.80296e-05
-7.27707e-06
1.69559e-05
-9.12917e-06
8.89511e-06
-8.24271e-06
-4.90862e-06
-4.9532e-06
-2.27652e-05
2.3942e-07
-4.27986e-05
6.73978e-06
-6.31269e-05
1.39055e-05
-8.20193e-05
2.10888e-05
-9.80383e-05
2.76837e-05
-0.000110135
3.31729e-05
-0.000117711
3.71696e-05
-0.000120631
3.94511e-05
-0.000119183
3.99697e-05
-0.000114002
3.88485e-05
-0.000105944
3.6359e-05
-9.59408e-05
3.28681e-05
-8.49001e-05
2.87797e-05
-7.35989e-05
2.44859e-05
-6.25858e-05
2.03115e-05
-5.14129e-05
1.63744e-05
-3.99675e-05
1.26552e-05
-2.93076e-05
9.28371e-06
-2.00417e-05
6.43634e-06
-1.23734e-05
4.15358e-06
-6.52579e-06
2.41515e-06
-2.65101e-06
1.20014e-06
-6.36233e-07
4.65821e-07
4.10891e-08
1.18894e-07
1.1811e-08
1.34829e-05
-3.31595e-06
2.11299e-05
-8.55366e-06
2.09084e-05
-1.09e-05
1.34754e-05
-1.02471e-05
1.29743e-07
-7.00292e-06
-1.74391e-05
-1.70197e-06
-3.73887e-05
5.03298e-06
-5.7876e-05
1.25381e-05
-7.71935e-05
2.01442e-05
-9.39083e-05
2.7221e-05
-0.000106953
3.32257e-05
-0.000115679
3.7744e-05
-0.000119879
4.05233e-05
-0.000119754
4.14871e-05
-0.000115846
4.07357e-05
-0.000108927
3.8525e-05
-9.98617e-05
3.52165e-05
-8.95002e-05
3.12154e-05
-7.859e-05
2.69169e-05
-6.76669e-05
2.26566e-05
-5.60892e-05
1.85292e-05
-4.36848e-05
1.4473e-05
-3.18409e-05
1.06657e-05
-2.14447e-05
7.38461e-06
-1.28368e-05
4.72556e-06
-6.35991e-06
2.69636e-06
-2.22425e-06
1.29503e-06
-2.55232e-07
4.77887e-07
2.5092e-07
1.20504e-07
1.24399e-08
1.52257e-05
-3.75542e-06
2.44089e-05
-9.8271e-06
2.52218e-05
-1.28219e-05
1.84378e-05
-1.25028e-05
5.60616e-06
-9.35374e-06
-1.1597e-05
-4.00749e-06
-3.13603e-05
2.89217e-06
-5.18875e-05
1.06617e-05
-7.15131e-05
1.86188e-05
-8.8817e-05
2.61183e-05
-0.000102721
3.25977e-05
-0.000112536
3.76194e-05
-0.000117985
4.09016e-05
-0.000119184
4.234e-05
-0.000116577
4.20106e-05
-0.00011085
4.0147e-05
-0.000102794
3.70977e-05
-9.31969e-05
3.32651e-05
-8.27534e-05
2.90447e-05
-7.19763e-05
2.47719e-05
-6.00529e-05
2.05121e-05
-4.67216e-05
1.61578e-05
-3.36952e-05
1.19295e-05
-2.21871e-05
8.21613e-06
-1.2691e-05
5.18311e-06
-5.672e-06
2.87388e-06
-1.38183e-06
1.30786e-06
4.27114e-07
4.41192e-07
6.43996e-07
1.25465e-07
4.99133e-09
5.28048e-07
-2.00774e-09
3.01762e-06
-1.09984e-08
1.0771e-05
-3.2539e-08
2.70367e-05
-4.54132e-08
5.2605e-05
-5.23128e-09
8.47614e-05
1.41708e-07
0.000119182
4.12015e-07
0.00015282
7.47987e-07
0.000184896
1.051e-06
0.000212305
1.21708e-06
0.000233105
1.08277e-06
0.000250708
5.94805e-07
0.000267368
-2.04497e-07
0.000283076
-1.3244e-06
0.00029733
-2.61118e-06
0.000309383
-3.95142e-06
0.000318494
-5.38061e-06
0.00032382
-6.72509e-06
0.000324595
-7.85947e-06
0.000320264
-8.73479e-06
0.000310506
-9.31404e-06
0.000295202
-9.55368e-06
0.000274455
-9.47788e-06
0.000248491
-9.10232e-06
0.000217546
-8.41239e-06
0.000181961
-7.45711e-06
0.000142143
-6.24808e-06
9.83934e-05
-4.7774e-06
5.07721e-05
-3.04447e-06
-1.06478e-06
5.57317e-07
-3.98953e-09
3.18413e-06
-2.15718e-08
1.12156e-05
-5.68383e-08
2.77651e-05
-6.96231e-08
5.33432e-05
3.07281e-08
8.50574e-05
3.4047e-07
0.000118714
8.62816e-07
0.0001515
1.49981e-06
0.00018269
2.08166e-06
0.000209834
2.34442e-06
0.000230756
2.06561e-06
0.000248407
1.07097e-06
0.00026536
-5.8605e-07
0.000281398
-2.75948e-06
0.000295992
-5.26992e-06
0.00030845
-7.96559e-06
0.000317909
-1.07354e-05
0.000323488
-1.33278e-05
0.000324447
-1.55428e-05
0.00032023
-1.72478e-05
0.000310528
-1.83783e-05
0.000295241
-1.88475e-05
0.000274495
-1.86973e-05
0.000248496
-1.7945e-05
0.000217515
-1.66013e-05
0.000181922
-1.47205e-05
0.000142113
-1.23228e-05
9.83564e-05
-9.4162e-06
5.07376e-05
-6.0029e-06
-2.09921e-06
5.95824e-07
-6.82171e-09
3.38432e-06
-3.26707e-08
1.16598e-05
-7.55076e-08
2.82145e-05
-7.29044e-08
5.31172e-05
1.10903e-07
8.33852e-05
5.90343e-07
0.000115221
1.34467e-06
0.000146295
2.21297e-06
0.000176075
2.98487e-06
0.000202619
3.28231e-06
0.000223717
2.79097e-06
0.000241779
1.2739e-06
0.000259352
-1.20199e-06
0.000276095
-4.34433e-06
0.000291454
-8.00679e-06
0.000304698
-1.19839e-05
0.000314864
-1.598e-05
0.000321047
-1.97184e-05
0.0003225
-2.29286e-05
0.000318677
-2.54004e-05
0.00030926
-2.70277e-05
0.000294204
-2.77281e-05
0.000273643
-2.75031e-05
0.00024778
-2.63829e-05
0.000216916
-2.44207e-05
0.000181445
-2.166e-05
0.000141749
-1.81264e-05
9.80917e-05
-1.38475e-05
5.05875e-05
-8.82883e-06
-3.08695e-06
6.38924e-07
-1.10189e-08
3.56855e-06
-4.47987e-08
1.19345e-05
-8.71184e-08
2.80317e-05
-4.21472e-08
5.14561e-05
2.50901e-07
7.93419e-05
8.88548e-07
0.000108542
1.82586e-06
0.000137326
2.83315e-06
0.000165374
3.66591e-06
0.000191047
3.92588e-06
0.000212346
3.13275e-06
0.000231144
1.08742e-06
0.000249605
-2.11077e-06
0.000267382
-6.15477e-06
0.000283843
-1.08632e-05
0.000298161
-1.59778e-05
0.000309339
-2.10971e-05
0.00031643
-2.58817e-05
0.000318668
-2.99938e-05
0.000315508
-3.31574e-05
0.000306626
-3.52208e-05
0.000292015
-3.61289e-05
0.000271822
-3.58303e-05
0.000246275
-3.43661e-05
0.0002157
-3.18164e-05
0.000180491
-2.82245e-05
0.000141023
-2.36257e-05
9.7587e-05
-1.80529e-05
5.03224e-05
-1.15099e-05
-4.02368e-06
6.85755e-07
-1.52473e-08
3.72794e-06
-5.33802e-08
1.20314e-05
-8.32493e-08
2.72835e-05
2.76501e-08
4.86827e-05
4.42443e-07
7.36802e-05
1.21547e-06
9.99006e-05
2.25082e-06
0.000126173
3.29482e-06
0.00015229
4.06575e-06
0.000176962
4.16466e-06
0.000198458
3.01622e-06
0.000218124
4.41931e-07
0.000237631
-3.39473e-06
0.000256614
-8.24508e-06
0.000274343
-1.38621e-05
0.000289893
-1.99513e-05
0.00030227
-2.60941e-05
0.000310449
-3.181e-05
0.000313629
-3.67148e-05
0.000311273
-4.04934e-05
0.000303078
-4.29471e-05
0.000289034
-4.40197e-05
0.000269315
-4.36511e-05
0.000244191
-4.18767e-05
0.000214009
-3.87753e-05
0.000179159
-3.44018e-05
0.000140015
-2.88036e-05
9.68944e-05
-2.20146e-05
4.99626e-05
-1.40347e-05
-4.90531e-06
7.24255e-07
-1.75701e-08
3.81976e-06
-5.17156e-08
1.18594e-05
-5.05762e-08
2.59007e-05
1.41765e-07
4.49131e-05
6.67868e-07
6.68566e-05
1.52876e-06
9.00984e-05
2.5596e-06
0.000113906
3.50985e-06
0.000138115
4.09771e-06
0.00016175
3.91996e-06
0.00018339
2.38412e-06
0.000203911
-7.0092e-07
0.00022447
-5.10447e-06
0.000244647
-1.06342e-05
0.000263676
-1.70378e-05
0.00028053
-2.39533e-05
0.000294156
-3.09641e-05
0.000303485
-3.74914e-05
0.000307667
-4.30823e-05
0.000306177
-4.74019e-05
0.000298746
-5.02091e-05
0.000285363
-5.14137e-05
0.000266214
-5.09679e-05
0.000241601
-4.8901e-05
0.000211889
-4.52816e-05
0.000177478
-4.01765e-05
0.000138745
-3.36413e-05
9.60268e-05
-2.57128e-05
4.95133e-05
-1.63896e-05
-5.72698e-06
7.48301e-07
-1.83617e-08
3.81307e-06
-3.94622e-08
1.13526e-05
1.27926e-08
2.38969e-05
2.92822e-07
4.04134e-05
8.91027e-07
5.94533e-05
1.75114e-06
7.9988e-05
2.67064e-06
0.000101565
3.40557e-06
0.000124026
3.70057e-06
0.000146654
3.16424e-06
0.00016835
1.21636e-06
0.000189584
-2.34107e-06
0.000211064
-7.25371e-06
0.000232299
-1.3338e-05
0.000252508
-2.03879e-05
0.000270613
-2.80045e-05
0.000285432
-3.57162e-05
0.000295874
-4.2935e-05
0.000301065
-4.91271e-05
0.000300465
-5.39086e-05
0.000293829
-5.7013e-05
0.000281154
-5.83162e-05
0.000262637
-5.77764e-05
0.000238596
-5.54205e-05
0.000209414
-5.13134e-05
0.0001755
-4.55262e-05
0.000137246
-3.81196e-05
9.50022e-05
-2.91329e-05
4.89828e-05
-1.8565e-05
-6.48524e-06
7.57713e-07
-1.78842e-08
3.69234e-06
-1.8129e-08
1.05204e-05
9.22356e-08
2.14407e-05
4.38883e-07
3.56131e-05
1.04442e-06
5.21134e-05
1.80625e-06
7.03452e-05
2.51754e-06
9.00138e-05
2.94625e-06
0.000110953
2.8601e-06
0.000132654
1.89811e-06
0.000154304
-4.80724e-07
0.00017604
-4.46321e-06
0.000198206
-9.81592e-06
0.00022028
-1.63557e-05
0.000241445
-2.39011e-05
0.000260606
-3.20874e-05
0.0002765
-4.03837e-05
0.000287971
-4.81753e-05
0.000294121
-5.48711e-05
0.000294388
-6.00278e-05
0.000288531
-6.33575e-05
0.000276566
-6.47177e-05
0.000258699
-6.40649e-05
0.000235259
-6.1424e-05
0.000206644
-5.68574e-05
0.000173274
-5.04374e-05
0.00013555
-4.22264e-05
9.38415e-05
-3.22657e-05
4.83815e-05
-2.0555e-05
-7.17805e-06
7.47617e-07
-1.51992e-08
3.45808e-06
1.05223e-08
9.46272e-06
1.67834e-07
1.882e-05
5.33191e-07
3.09701e-05
1.07151e-06
4.539e-05
1.65383e-06
6.17586e-05
2.07946e-06
7.98734e-05
2.12984e-06
9.95564e-05
1.59163e-06
0.000120442
1.51619e-07
0.000141932
-2.66645e-06
0.000163929
-7.038e-06
0.000186486
-1.27554e-05
0.000209103
-1.96636e-05
0.000230964
-2.75975e-05
0.000250945
-3.62221e-05
0.000267738
-4.49883e-05
0.000280106
-5.32331e-05
0.000287104
-6.03197e-05
0.000288156
-6.576e-05
0.000283025
-6.92438e-05
0.000271735
-7.0616e-05
0.000254505
-6.98298e-05
0.000231672
-6.69076e-05
0.000203644
-6.1909e-05
0.000170847
-5.49047e-05
0.000133694
-4.59568e-05
9.2567e-05
-3.51074e-05
4.77204e-05
-2.23572e-05
-7.80462e-06
7.13196e-07
-9.95514e-09
3.1369e-06
4.10592e-08
8.3228e-06
2.18734e-07
1.6325e-05
5.44472e-07
2.68554e-05
9.46749e-07
3.96712e-05
1.2858e-06
5.46136e-05
1.36752e-06
7.15315e-05
9.84318e-07
9.02292e-05
-6.06983e-08
0.000110422
-2.02885e-06
0.000131648
-5.30177e-06
0.000153657
-1.00403e-05
0.000176323
-1.60683e-05
0.000199182
-2.32607e-05
0.000221458
-3.14902e-05
0.00024201
-4.04358e-05
0.000259473
-4.95442e-05
0.000272546
-5.81186e-05
0.000280239
-6.54819e-05
0.000281956
-7.11114e-05
0.000277459
-7.46775e-05
0.000266784
-7.60156e-05
0.000250154
-7.5075e-05
0.000227913
-7.18747e-05
0.000200473
-6.64705e-05
0.000168266
-5.89296e-05
0.00013171
-4.93118e-05
9.12009e-05
-3.76587e-05
4.70111e-05
-2.39723e-05
-8.36529e-06
6.55137e-07
-2.33801e-09
2.77759e-06
6.63121e-08
7.249e-06
2.26299e-07
1.41908e-05
4.57035e-07
2.35256e-05
6.70898e-07
3.51879e-05
7.22063e-07
4.91105e-05
4.17262e-07
6.51738e-05
-4.4955e-07
8.31602e-05
-2.05954e-06
0.000102794
-4.61398e-06
0.000123681
-8.37499e-06
0.000145486
-1.34597e-05
0.000168009
-1.97451e-05
0.000190847
-2.71492e-05
0.000213261
-3.55837e-05
0.000234105
-4.47441e-05
0.000251974
-5.40728e-05
0.00026552
-6.28506e-05
0.000273713
-7.03732e-05
0.000275941
-7.6094e-05
0.000271963
-7.96691e-05
0.000261818
-8.09263e-05
0.000245733
-7.981e-05
0.000224053
-7.63347e-05
0.000197188
-7.05506e-05
0.000165573
-6.25196e-05
0.000129631
-5.22977e-05
8.97649e-05
-3.99248e-05
4.62645e-05
-2.54038e-05
-8.86132e-06
5.77718e-07
7.42775e-09
2.44026e-06
7.91984e-08
6.37703e-06
1.80822e-07
1.25871e-05
2.75289e-07
2.11304e-05
2.65714e-07
3.20478e-05
-6.87583e-09
4.53299e-05
-7.4361e-07
6.08681e-05
-2.15304e-06
7.8421e-05
-4.39956e-06
9.76466e-05
-7.59959e-06
0.000118143
-1.18725e-05
0.000139574
-1.72793e-05
0.000161746
-2.37667e-05
0.000184331
-3.13194e-05
0.000206621
-3.98841e-05
0.000227469
-4.91655e-05
0.000245454
-5.85982e-05
0.000259207
-6.74523e-05
0.000267676
-7.50129e-05
0.000270235
-8.07239e-05
0.00026664
-8.42334e-05
0.000256924
-8.53623e-05
0.000241314
-8.40493e-05
0.00022015
-8.03019e-05
0.000193837
-7.41629e-05
0.000162807
-6.56871e-05
0.000127485
-5.4925e-05
8.82788e-05
-4.19139e-05
4.5491e-05
-2.66571e-05
-9.29478e-06
4.91181e-07
1.85485e-08
2.19677e-06
7.40444e-08
5.82945e-06
8.27802e-08
1.16374e-05
1.31119e-08
1.97688e-05
-2.5356e-07
3.03164e-05
-8.95465e-07
4.3305e-05
-2.12326e-06
5.86255e-05
-4.14083e-06
7.60102e-05
-7.0915e-06
9.49752e-05
-1.09842e-05
0.000115052
-1.577e-05
0.000135986
-2.14679e-05
0.000157649
-2.81162e-05
0.000179778
-3.57695e-05
0.000201694
-4.44011e-05
0.000222257
-5.37155e-05
0.000240057
-6.31385e-05
0.000253733
-7.19414e-05
0.000262235
-7.9418e-05
0.000264931
-8.50175e-05
0.000261567
-8.83866e-05
0.00025217
-8.93408e-05
0.000236955
-8.78106e-05
0.000216254
-8.37942e-05
0.000190462
-7.73247e-05
0.000160003
-6.8448e-05
0.000125299
-5.72075e-05
8.67606e-05
-4.36369e-05
4.46998e-05
-2.77397e-05
-9.66832e-06
4.40337e-07
2.40059e-08
2.15914e-06
4.38615e-08
5.76901e-06
-7.23857e-08
1.15044e-05
-3.40853e-07
1.95616e-05
-9.1318e-07
3.00571e-05
-1.98116e-06
4.30346e-05
-3.75829e-06
5.84034e-05
-6.44213e-06
7.58858e-05
-1.01568e-05
9.4711e-05
-1.47675e-05
0.000114321
-2.00273e-05
0.00013469
-2.59749e-05
0.000155735
-3.27704e-05
0.000177227
-4.05016e-05
0.000198526
-4.91441e-05
0.000218522
-5.84008e-05
0.000235841
-6.76979e-05
0.000249158
-7.63237e-05
0.000257448
-8.35976e-05
0.000260081
-8.89871e-05
0.000256796
-9.21445e-05
0.000247602
-9.28799e-05
0.0002327
-9.11138e-05
0.000212404
-8.68322e-05
0.000187097
-8.00563e-05
0.000157189
-7.08209e-05
0.000123095
-5.91613e-05
8.52259e-05
-4.51067e-05
4.38993e-05
-2.866e-05
-9.98503e-06
6.52265e-07
-5.21976e-08
2.64141e-06
-3.93448e-08
6.49023e-06
-3.17574e-07
1.24182e-05
-8.46656e-07
2.0641e-05
-1.78724e-06
3.13022e-05
-3.33429e-06
4.44731e-05
-5.7016e-06
6.0113e-05
-9.08843e-06
7.78529e-05
-1.35539e-05
9.65803e-05
-1.88098e-05
0.000115729
-2.45213e-05
0.000135523
-3.07601e-05
0.000155885
-3.77379e-05
0.000176577
-4.55455e-05
0.000197027
-5.41466e-05
0.000216187
-6.32495e-05
0.000232743
-7.23007e-05
0.000245435
-8.06261e-05
0.000253279
-8.75841e-05
0.000255659
-9.26713e-05
0.000252304
-9.55497e-05
0.000243204
-9.60247e-05
0.000228537
-9.40045e-05
0.000208594
-8.94607e-05
0.000183738
-8.23997e-05
0.000154364
-7.28438e-05
0.000120876
-6.08189e-05
8.36789e-05
-4.63487e-05
4.30932e-05
-2.94349e-05
-1.02511e-05
1.71254e-05
-4.08206e-06
2.83789e-05
-1.08779e-05
3.08842e-05
-1.46866e-05
2.47888e-05
-1.4981e-05
1.20476e-05
-1.20659e-05
-5.34412e-06
-6.73331e-06
-2.55566e-05
2.58606e-07
-4.67714e-05
8.21645e-06
-6.73216e-05
1.64486e-05
-8.57644e-05
2.43063e-05
-0.000100969
3.12127e-05
-0.000112186
3.67073e-05
-0.00011907
4.04852e-05
-0.000121653
4.24177e-05
-0.000120298
4.25527e-05
-0.000115617
4.10981e-05
-0.000108344
3.83825e-05
-9.92383e-05
3.47969e-05
-8.89616e-05
3.07351e-05
-7.80056e-05
2.653e-05
-6.53762e-05
2.22127e-05
-5.06766e-05
1.76189e-05
-3.59936e-05
1.30015e-05
-2.29705e-05
8.87193e-06
-1.22864e-05
5.4806e-06
-4.53624e-06
2.90772e-06
7.51093e-09
1.18985e-06
1.69713e-06
2.70909e-07
1.62253e-06
-2.86792e-08
-3.24061e-08
7.04563e-07
1.8387e-05
-4.37312e-06
3.12991e-05
-1.17438e-05
3.59574e-05
-1.62564e-05
3.15111e-05
-1.73912e-05
1.93953e-05
-1.50712e-05
2.14623e-06
-9.9156e-06
-1.81106e-05
-2.89791e-06
-3.95841e-05
5.16469e-06
-6.06389e-05
1.35869e-05
-7.9859e-05
2.17281e-05
-9.60748e-05
2.90053e-05
-0.000108481
3.49331e-05
-0.000116673
3.91838e-05
-0.000120613
4.16101e-05
-0.000120572
4.22341e-05
-0.000117062
4.12332e-05
-0.00011075
3.89113e-05
-0.000102342
3.56433e-05
-9.24664e-05
3.18145e-05
-8.16006e-05
2.77596e-05
-6.86252e-05
2.3489e-05
-5.28958e-05
1.87554e-05
-3.68017e-05
1.38038e-05
-2.25055e-05
9.28825e-06
-1.08534e-05
5.56938e-06
-2.52418e-06
2.75529e-06
2.26016e-06
8.82141e-07
3.99157e-06
-1.37871e-07
3.87576e-06
-5.23376e-07
-6.08877e-07
3.25462e-06
1.96045e-05
-4.68375e-06
3.37685e-05
-1.26099e-05
4.02136e-05
-1.76321e-05
3.8064e-05
-1.94668e-05
2.75635e-05
-1.802e-05
1.08408e-05
-1.34542e-05
-9.34366e-06
-6.58725e-06
-3.09075e-05
1.50598e-06
-5.2287e-05
1.00234e-05
-7.21156e-05
1.83554e-05
-8.92052e-05
2.5925e-05
-0.000102685
3.22299e-05
-0.000112081
3.69157e-05
-0.000117303
3.98143e-05
-0.000118538
4.0928e-05
-0.000116195
4.04035e-05
-0.000110866
3.85153e-05
-0.000103199
3.56173e-05
-9.38055e-05
3.20844e-05
-8.32076e-05
2.82641e-05
-7.0326e-05
2.41983e-05
-5.38723e-05
1.94963e-05
-3.6434e-05
1.42795e-05
-2.10041e-05
9.40913e-06
-8.48034e-06
5.40418e-06
4.34143e-07
2.36735e-06
5.65124e-06
3.2007e-07
7.79549e-06
-8.56283e-07
8.07617e-06
-1.39106e-06
-1.61764e-06
7.83063e-06
2.09578e-05
-5.00781e-06
3.63547e-05
-1.3529e-05
4.40741e-05
-1.90448e-05
4.38551e-05
-2.13609e-05
3.57281e-05
-2.06392e-05
2.05713e-05
-1.69782e-05
8.58486e-07
-1.07046e-05
-2.06302e-05
-2.77304e-06
-4.21321e-05
5.75422e-06
-6.23681e-05
1.41836e-05
-8.01297e-05
2.1954e-05
-9.45136e-05
2.85538e-05
-0.000104965
3.36159e-05
-0.000111337
3.6947e-05
-0.000113744
3.85276e-05
-0.000112508
3.84782e-05
-0.000108133
3.70422e-05
-0.000101211
3.45456e-05
-9.23568e-05
3.13493e-05
-8.21751e-05
2.78096e-05
-6.98281e-05
2.40166e-05
-5.3258e-05
1.95286e-05
-3.48328e-05
1.43015e-05
-1.83847e-05
9.20453e-06
-5.03077e-06
4.92922e-06
4.56078e-06
1.66784e-06
1.05007e-05
-5.85433e-07
1.34989e-05
-1.98077e-06
1.47224e-05
-2.74477e-06
-3.20059e-06
1.53687e-05
2.24565e-05
-5.34454e-06
3.92544e-05
-1.44899e-05
4.82452e-05
-2.05514e-05
4.94105e-05
-2.33385e-05
4.33283e-05
-2.31116e-05
3.05474e-05
-2.02075e-05
1.23376e-05
-1.48532e-05
-8.61122e-06
-7.54844e-06
-3.00319e-05
7.71267e-07
-5.04862e-05
9.22124e-06
-6.86732e-05
1.71068e-05
-8.37203e-05
2.39019e-05
-9.50307e-05
2.92561e-05
-0.000102369
3.29581e-05
-0.000105786
3.49605e-05
-0.000105545
3.53615e-05
-0.000102055
3.43749e-05
-9.58547e-05
3.22928e-05
-8.75438e-05
2.94501e-05
-7.77433e-05
2.61774e-05
-6.57426e-05
2.25282e-05
-4.9661e-05
1.82031e-05
-3.13223e-05
1.32605e-05
-1.4329e-05
8.33569e-06
-2.42961e-07
4.00607e-06
1.01856e-05
5.57792e-07
1.71128e-05
-1.94027e-06
2.1297e-05
-3.6019e-06
2.38362e-05
-4.64961e-06
-5.39172e-06
2.56805e-05
2.41229e-05
-5.6933e-06
4.24899e-05
-1.54907e-05
5.29541e-05
-2.21367e-05
5.55092e-05
-2.54598e-05
5.09398e-05
-2.5723e-05
4.02552e-05
-2.33448e-05
2.43122e-05
-1.8744e-05
4.79804e-06
-1.22937e-05
-1.60155e-05
-4.59083e-06
-3.63387e-05
3.56325e-06
-5.47104e-05
1.14076e-05
-7.01373e-05
1.83053e-05
-8.2048e-05
2.38511e-05
-9.01251e-05
2.78408e-05
-9.43606e-05
3.02027e-05
-9.49645e-05
3.1013e-05
-9.22742e-05
3.04573e-05
-8.67711e-05
2.87937e-05
-7.8989e-05
2.63179e-05
-6.94644e-05
2.33152e-05
-5.74037e-05
1.97901e-05
-4.18641e-05
1.55619e-05
-2.45278e-05
1.08854e-05
-7.95271e-06
6.32874e-06
6.42552e-06
2.2478e-06
1.77013e-05
-1.18689e-06
2.57518e-05
-3.86252e-06
3.1264e-05
-5.79639e-06
3.52525e-05
-7.15061e-06
-8.19615e-06
3.84037e-05
2.59773e-05
-6.05228e-06
4.60995e-05
-1.65261e-05
5.82275e-05
-2.37919e-05
6.23952e-05
-2.76992e-05
5.93651e-05
-2.85284e-05
5.03089e-05
-2.66877e-05
3.64115e-05
-2.26516e-05
1.88525e-05
-1.6888e-05
-5.14509e-07
-9.95586e-06
-1.9982e-05
-2.478e-06
-3.81535e-05
4.99478e-06
-5.36874e-05
1.18315e-05
-6.59063e-05
1.7476e-05
-7.44666e-05
2.16588e-05
-7.9312e-05
2.43021e-05
-8.06069e-05
2.54668e-05
-7.86353e-05
2.53126e-05
-7.38084e-05
2.40601e-05
-6.65789e-05
2.19638e-05
-5.73918e-05
1.92732e-05
-4.54897e-05
1.60011e-05
-3.04728e-05
1.20076e-05
-1.4179e-05
7.58451e-06
1.43901e-06
3.32026e-06
1.55191e-05
-4.82791e-07
2.73127e-05
-3.76036e-06
3.65065e-05
-6.47492e-06
4.34142e-05
-8.62191e-06
4.88318e-05
-1.02708e-05
-1.161e-05
5.32207e-05
2.80376e-05
-6.41888e-06
5.0116e-05
-1.75885e-05
6.41107e-05
-2.55041e-05
7.01003e-05
-3.00394e-05
6.88572e-05
-3.14936e-05
6.15082e-05
-3.02794e-05
4.93649e-05
-2.68623e-05
3.36984e-05
-2.17363e-05
1.61617e-05
-1.54802e-05
-1.81955e-06
-8.6859e-06
-1.91896e-05
-1.78408e-06
-3.44497e-05
4.73051e-06
-4.66657e-05
1.02909e-05
-5.54497e-05
1.45551e-05
-6.06594e-05
1.73834e-05
-6.24806e-05
1.88184e-05
-6.11335e-05
1.90139e-05
-5.69509e-05
1.8146e-05
-5.03243e-05
1.64303e-05
-4.16516e-05
1.4089e-05
-3.03722e-05
1.11534e-05
-1.62258e-05
7.52715e-06
-9.79331e-07
3.4889e-06
1.36636e-05
-4.3528e-07
2.71229e-05
-3.97893e-06
3.89628e-05
-7.0821e-06
4.90022e-05
-9.73827e-06
5.72541e-05
-1.19824e-05
6.41851e-05
-1.38751e-05
-1.55349e-05
6.99366e-05
3.03154e-05
-6.78768e-06
5.45603e-05
-1.86623e-05
7.06313e-05
-2.72483e-05
7.86571e-05
-3.24463e-05
7.94245e-05
-3.45722e-05
7.40464e-05
-3.40425e-05
6.38048e-05
-3.13216e-05
5.00497e-05
-2.69089e-05
3.4321e-05
-2.13456e-05
1.79561e-05
-1.51758e-05
1.87129e-06
-8.85053e-06
-1.2609e-05
-2.81542e-06
-2.4516e-05
2.48982e-06
-3.32513e-05
6.70859e-06
-3.85367e-05
9.59835e-06
-4.0675e-05
1.11966e-05
-3.98231e-05
1.16658e-05
-3.62307e-05
1.11371e-05
-3.02465e-05
9.78749e-06
-2.22383e-05
7.81356e-06
-1.18527e-05
5.26648e-06
1.06684e-06
2.08972e-06
1.5022e-05
-1.47768e-06
2.85913e-05
-4.98698e-06
4.12759e-05
-8.20232e-06
5.27863e-05
-1.10724e-05
6.30578e-05
-1.35941e-05
7.2185e-05
-1.58097e-05
8.04456e-05
-1.77877e-05
-1.95951e-05
8.74987e-05
3.28067e-05
-7.14926e-06
5.94255e-05
-1.97206e-05
7.7778e-05
-2.89821e-05
8.80474e-05
-3.48616e-05
9.10354e-05
-3.7691e-05
8.78479e-05
-3.78905e-05
7.97519e-05
-3.59228e-05
6.80973e-05
-3.22789e-05
5.42904e-05
-2.7469e-05
3.96095e-05
-2.19932e-05
2.50649e-05
-1.63007e-05
1.17477e-05
-1.08065e-05
5.02679e-07
-5.88126e-06
-7.91154e-06
-1.84799e-06
-1.30809e-05
1.03557e-06
-1.53211e-05
2.74415e-06
-1.48117e-05
3.4142e-06
-1.17191e-05
3.16176e-06
-6.37526e-06
2.13845e-06
8.89568e-07
5.22862e-07
1.02405e-05
-1.61932e-06
2.17407e-05
-4.30276e-06
3.42241e-05
-7.33493e-06
4.65445e-05
-1.03621e-05