/*--------------------------------*- C++ -*----------------------------------*\
| =========                 |                                                 |
| \\      /  F ield         | OpenFOAM: The Open Source CFD Toolbox           |
|  \\    /   O peration     | Version:  dev                                   |
|   \\  /    A nd           | Web:      www.OpenFOAM.org                      |
|    \\/     M anipulation  |                                                 |
\*---------------------------------------------------------------------------*/
FoamFile
{
    version     2.0;
    format      ascii;
    class       pointVectorField;
    location    "0.81";
    object      pointDisplacement;
}
// * * * * * * * * * * * * * * * * * * * * * * * * * * * * * * * * * * * * * //

dimensions      [0 1 0 0 0 0 0];

internalField   nonuniform List<vector> 
1034
(
(0.120533 0 0)
(0.129801 0 0)
(0.137154 0 0)
(0.142677 0 0)
(0.146471 0 0)
(0.148637 0 0)
(0.149258 0 0)
(0.148403 0 0)
(0.146113 0 0)
(0.1424 0 0)
(0.137283 0 0)
(0.130757 0 0)
(0.122787 0 0)
(0.113331 0 0)
(0.102326 0 0)
(0.0896941 0 0)
(0.0753632 0 0)
(0.059258 0 0)
(0.0413038 0 0)
(0.021415 0 0)
(0 0 0)
(0.121518 0 -0.00451522)
(0.130622 0 -0.0043638)
(0.137831 0 -0.00417731)
(0.143229 0 -0.00396537)
(0.146922 0 -0.00373237)
(0.149005 0 -0.00349066)
(0.149558 0 -0.00324501)
(0.148649 0 -0.0030022)
(0.146314 0 -0.00277119)
(0.142568 0 -0.00254139)
(0.137423 0 -0.00230998)
(0.130874 0 -0.00208503)
(0.122886 0 -0.00186444)
(0.113414 0 -0.00164601)
(0.102394 0 -0.0014308)
(0.0897503 0 -0.00121433)
(0.0754086 0 -0.000993798)
(0.0592933 0 -0.000766144)
(0.0413284 0 -0.000526973)
(0.0214278 0 -0.000271493)
(0 0 0)
(0.124417 0 -0.00894675)
(0.133031 0 -0.0086307)
(0.139813 0 -0.00824492)
(0.14485 0 -0.00781378)
(0.148247 0 -0.00735533)
(0.150089 0 -0.00687971)
(0.150445 0 -0.00639776)
(0.149375 0 -0.00592315)
(0.146911 0 -0.00546299)
(0.143065 0 -0.00501016)
(0.137836 0 -0.0045584)
(0.131217 0 -0.00411675)
(0.123173 0 -0.00368513)
(0.113652 0 -0.00325813)
(0.10259 0 -0.00283453)
(0.089913 0 -0.00240825)
(0.0755393 0 -0.00197296)
(0.0593933 0 -0.00152177)
(0.0413956 0 -0.00104703)
(0.0214592 0 -0.000539389)
(0 0 0)
(0.12903 0 -0.0132297)
(0.136862 0 -0.012735)
(0.142973 0 -0.012148)
(0.147447 0 -0.0115013)
(0.150379 0 -0.0108238)
(0.151836 0 -0.0101277)
(0.151879 0 -0.00942527)
(0.150553 0 -0.00873163)
(0.14788 0 -0.00805168)
(0.143868 0 -0.00738528)
(0.138506 0 -0.0067272)
(0.131771 0 -0.00608017)
(0.123632 0 -0.00544629)
(0.114031 0 -0.00482114)
(0.1029 0 -0.00419804)
(0.0901631 0 -0.00356957)
(0.0757416 0 -0.00292681)
(0.0595519 0 -0.00225874)
(0.041508 0 -0.0015548)
(0.0215197 0 -0.000801171)
(0 0 0)
(0.135096 0 -0.0173295)
(0.141913 0 -0.0166484)
(0.147154 0 -0.0158632)
(0.150895 0 -0.0150113)
(0.153213 0 -0.0141229)
(0.154165 0 -0.0132172)
(0.153794 0 -0.0123081)
(0.152129 0 -0.0114081)
(0.149179 0 -0.0105218)
(0.144942 0 -0.00965405)
(0.1394 0 -0.0088032)
(0.132515 0 -0.00796375)
(0.124244 0 -0.00713808)
(0.114533 0 -0.00632347)
(0.103311 0 -0.00550924)
(0.0904964 0 -0.00468568)
(0.076009 0 -0.00384243)
(0.0597599 0 -0.00296647)
(0.0416582 0 -0.00204284)
(0.0216049 0 -0.00105314)
(0 0 0)
(0.142308 0 -0.0212121)
(0.147931 0 -0.0203381)
(0.152146 0 -0.0193562)
(0.155021 0 -0.0183066)
(0.156616 0 -0.0172194)
(0.156965 0 -0.0161153)
(0.156102 0 -0.0150142)
(0.154035 0 -0.0139239)
(0.150753 0 -0.012848)
(0.146244 0 -0.0117941)
(0.140482 0 -0.0107625)
(0.133415 0 -0.0097457)
(0.124988 0 -0.00874235)
(0.115146 0 -0.00774816)
(0.103816 0 -0.00675294)
(0.0909085 0 -0.00574552)
(0.0763361 0 -0.00471271)
(0.0600087 0 -0.00363951)
(0.0418329 0 -0.00250716)
(0.0216992 0 -0.00129293)
(0 0 0)
(0.150331 0 -0.0248426)
(0.154638 0 -0.0237711)
(0.157724 0 -0.0225962)
(0.159646 0 -0.0213596)
(0.160443 0 -0.0200888)
(0.160126 0 -0.0188032)
(0.158715 0 -0.0175251)
(0.156198 0 -0.0162619)
(0.152546 0 -0.0150168)
(0.14773 0 -0.0137936)
(0.141716 0 -0.0125947)
(0.134442 0 -0.0114154)
(0.125841 0 -0.0102486)
(0.115852 0 -0.00908826)
(0.104395 0 -0.00792546)
(0.0913768 0 -0.00674707)
(0.076707 0 -0.00553721)
(0.06029 0 -0.00427797)
(0.0420277 0 -0.00294792)
(0.021802 0 -0.00152056)
(0 0 0)
(0.158839 0 -0.0281945)
(0.161769 0 -0.0269271)
(0.16367 0 -0.025567)
(0.164593 0 -0.0241558)
(0.16455 0 -0.0227185)
(0.163537 0 -0.0212727)
(0.161544 0 -0.0198347)
(0.158546 0 -0.0184162)
(0.154502 0 -0.0170215)
(0.149359 0 -0.0156484)
(0.143071 0 -0.0142998)
(0.13557 0 -0.012973)
(0.126781 0 -0.0116581)
(0.116629 0 -0.0103473)
(0.10503 0 -0.00903058)
(0.09189 0 -0.00769298)
(0.0771123 0 -0.00631707)
(0.0605963 0 -0.00488261)
(0.042238 0 -0.00336567)
(0.0219116 0 -0.00173637)
(0 0 0)
(0.167504 0 -0.0312355)
(0.169053 0 -0.029783)
(0.169769 0 -0.0282533)
(0.169685 0 -0.0266832)
(0.168798 0 -0.0250977)
(0.167084 0 -0.0235136)
(0.164504 0 -0.021939)
(0.161015 0 -0.0203861)
(0.156564 0 -0.0188605)
(0.151084 0 -0.0173585)
(0.14451 0 -0.0158799)
(0.136769 0 -0.0144214)
(0.127778 0 -0.0129735)
(0.117453 0 -0.0115265)
(0.105705 0 -0.0100683)
(0.0924347 0 -0.00858305)
(0.0775414 0 -0.00705207)
(0.060919 0 -0.00545319)
(0.0424582 0 -0.0037602)
(0.0220256 0 -0.00194024)
(0 0 0)
(0.176015 0 -0.033934)
(0.17623 0 -0.0323141)
(0.175814 0 -0.0306393)
(0.174767 0 -0.0289356)
(0.173065 0 -0.0272257)
(0.170669 0 -0.0255253)
(0.167515 0 -0.0238393)
(0.163543 0 -0.022176)
(0.158685 0 -0.0205396)
(0.152863 0 -0.0189273)
(0.145999 0 -0.0173365)
(0.138011 0 -0.015762)
(0.128811 0 -0.0141949)
(0.118307 0 -0.0126242)
(0.106402 0 -0.0110366)
(0.0929965 0 -0.00941538)
(0.0779825 0 -0.00774053)
(0.0612495 0 -0.00598827)
(0.0426824 0 -0.00413045)
(0.0221409 0 -0.0021316)
(0 0 0)
(0.184114 0 -0.0362718)
(0.183101 0 -0.034512)
(0.181644 0 -0.0327203)
(0.179711 0 -0.0309138)
(0.177254 0 -0.0291085)
(0.174214 0 -0.0273165)
(0.170514 0 -0.0255424)
(0.166076 0 -0.0237906)
(0.160819 0 -0.022063)
(0.154658 0 -0.0203574)
(0.147505 0 -0.0186698)
(0.139268 0 -0.0169941)
(0.129856 0 -0.0153212)
(0.119169 0 -0.0136393)
(0.107106 0 -0.0119344)
(0.093562 0 -0.0101887)
(0.078425 0 -0.0083812)
(0.0615794 0 -0.00648678)
(0.0429049 0 -0.00447561)
(0.0222547 0 -0.00231003)
(0 0 0)
(0.191614 0 -0.0382422)
(0.189528 0 -0.0363812)
(0.18715 0 -0.0345056)
(0.184425 0 -0.0326267)
(0.181285 0 -0.0307542)
(0.177653 0 -0.0288955)
(0.17344 0 -0.0270545)
(0.168561 0 -0.0252335)
(0.162922 0 -0.0234328)
(0.156431 0 -0.02165)
(0.148994 0 -0.0198806)
(0.140514 0 -0.0181178)
(0.13089 0 -0.0163521)
(0.120021 0 -0.0145715)
(0.107801 0 -0.0127609)
(0.0941182 0 -0.0109021)
(0.0788583 0 -0.00897327)
(0.0619008 0 -0.00694799)
(0.0431204 0 -0.00479513)
(0.0223643 0 -0.0024752)
(0 0 0)
(0.198402 0 -0.0398501)
(0.195415 0 -0.0379306)
(0.19225 0 -0.0360069)
(0.188836 0 -0.0340851)
(0.185089 0 -0.0321709)
(0.180922 0 -0.0302686)
(0.176241 0 -0.0283809)
(0.17095 0 -0.026509)
(0.164952 0 -0.0246521)
(0.158148 0 -0.0228077)
(0.150439 0 -0.0209708)
(0.141722 0 -0.0191342)
(0.131894 0 -0.0172883)
(0.120847 0 -0.0154207)
(0.108471 0 -0.0135161)
(0.094653 0 -0.0115555)
(0.0792729 0 -0.00951633)
(0.0622065 0 -0.00737149)
(0.0433239 0 -0.00508867)
(0.0224671 0 -0.00262692)
(0 0 0)
(0.204415 0 -0.0411101)
(0.2007 0 -0.0391743)
(0.196883 0 -0.0372367)
(0.192882 0 -0.0353003)
(0.188609 0 -0.0333684)
(0.183971 0 -0.0314438)
(0.178869 0 -0.0295284)
(0.173204 0 -0.0276225)
(0.166875 0 -0.0257253)
(0.159779 0 -0.0238336)
(0.151813 0 -0.0219426)
(0.142872 0 -0.020045)
(0.132847 0 -0.0181309)
(0.121629 0 -0.0161879)
(0.109104 0 -0.0142003)
(0.0951555 0 -0.0121488)
(0.0796599 0 -0.0100104)
(0.0624897 0 -0.00775715)
(0.0435109 0 -0.00535609)
(0.0225608 0 -0.00276512)
(0 0 0)
(0.209627 0 -0.0420436)
(0.205345 0 -0.0401306)
(0.201005 0 -0.0382107)
(0.196522 0 -0.0362856)
(0.191805 0 -0.0343582)
(0.18676 0 -0.0324307)
(0.181289 0 -0.0305047)
(0.17529 0 -0.0285806)
(0.168662 0 -0.0266573)
(0.161298 0 -0.0247319)
(0.153094 0 -0.0227994)
(0.143942 0 -0.0208525)
(0.133733 0 -0.0188817)
(0.122354 0 -0.0168742)
(0.109688 0 -0.0148143)
(0.0956155 0 -0.0126826)
(0.0800114 0 -0.0104556)
(0.0627444 0 -0.00810512)
(0.0436773 0 -0.00559744)
(0.0226434 0 -0.00288982)
(0 0 0)
(0.218807 0 -0.0445174)
(0.214075 0 -0.0426838)
(0.209374 0 -0.0408283)
(0.204629 0 -0.0389539)
(0.199757 0 -0.0370632)
(0.194673 0 -0.0351598)
(0.189284 0 -0.0332466)
(0.183492 0 -0.0313256)
(0.177199 0 -0.0293974)
(0.170302 0 -0.0274611)
(0.162695 0 -0.0255139)
(0.154273 0 -0.0235512)
(0.144926 0 -0.0215659)
(0.134545 0 -0.0195486)
(0.123014 0 -0.0174866)
(0.110216 0 -0.0153642)
(0.0960282 0 -0.013162)
(0.0803232 0 -0.0108562)
(0.0629676 0 -0.0084185)
(0.043821 0 -0.00581488)
(0.022714 0 -0.00300212)
(0 0 0)
(0.120533 0 0)
(0.129801 0 0)
(0.137154 0 0)
(0.142677 0 0)
(0.146471 0 0)
(0.148637 0 0)
(0.149258 0 0)
(0.148403 0 0)
(0.146113 0 0)
(0.1424 0 0)
(0.137283 0 0)
(0.130757 0 0)
(0.122787 0 0)
(0.113331 0 0)
(0.102326 0 0)
(0.0896941 0 0)
(0.0753632 0 0)
(0.059258 0 0)
(0.0413038 0 0)
(0.021415 0 0)
(0 0 0)
(0.121518 0 -0.00451522)
(0.130622 0 -0.0043638)
(0.137831 0 -0.00417731)
(0.143229 0 -0.00396537)
(0.146922 0 -0.00373237)
(0.149005 0 -0.00349066)
(0.149558 0 -0.00324501)
(0.148649 0 -0.0030022)
(0.146314 0 -0.00277119)
(0.142568 0 -0.00254139)
(0.137423 0 -0.00230998)
(0.130874 0 -0.00208503)
(0.122886 0 -0.00186444)
(0.113414 0 -0.00164601)
(0.102394 0 -0.0014308)
(0.0897503 0 -0.00121433)
(0.0754086 0 -0.000993798)
(0.0592933 0 -0.000766144)
(0.0413284 0 -0.000526973)
(0.0214278 0 -0.000271493)
(0 0 0)
(0.124417 0 -0.00894675)
(0.133031 0 -0.0086307)
(0.139813 0 -0.00824492)
(0.14485 0 -0.00781378)
(0.148247 0 -0.00735533)
(0.150089 0 -0.00687971)
(0.150445 0 -0.00639776)
(0.149375 0 -0.00592315)
(0.146911 0 -0.00546299)
(0.143065 0 -0.00501016)
(0.137836 0 -0.0045584)
(0.131217 0 -0.00411675)
(0.123173 0 -0.00368513)
(0.113652 0 -0.00325813)
(0.10259 0 -0.00283453)
(0.089913 0 -0.00240825)
(0.0755393 0 -0.00197296)
(0.0593933 0 -0.00152177)
(0.0413956 0 -0.00104703)
(0.0214592 0 -0.000539389)
(0 0 0)
(0.12903 0 -0.0132297)
(0.136862 0 -0.012735)
(0.142973 0 -0.012148)
(0.147447 0 -0.0115013)
(0.150379 0 -0.0108238)
(0.151836 0 -0.0101277)
(0.151879 0 -0.00942527)
(0.150553 0 -0.00873163)
(0.14788 0 -0.00805168)
(0.143868 0 -0.00738528)
(0.138506 0 -0.0067272)
(0.131771 0 -0.00608017)
(0.123632 0 -0.00544629)
(0.114031 0 -0.00482114)
(0.1029 0 -0.00419804)
(0.0901631 0 -0.00356957)
(0.0757416 0 -0.00292681)
(0.0595519 0 -0.00225874)
(0.041508 0 -0.0015548)
(0.0215197 0 -0.000801171)
(0 0 0)
(0.135096 0 -0.0173295)
(0.141913 0 -0.0166484)
(0.147154 0 -0.0158632)
(0.150895 0 -0.0150113)
(0.153213 0 -0.0141229)
(0.154165 0 -0.0132172)
(0.153794 0 -0.0123081)
(0.152129 0 -0.0114081)
(0.149179 0 -0.0105218)
(0.144942 0 -0.00965405)
(0.1394 0 -0.0088032)
(0.132515 0 -0.00796375)
(0.124244 0 -0.00713808)
(0.114533 0 -0.00632347)
(0.103311 0 -0.00550924)
(0.0904964 0 -0.00468568)
(0.076009 0 -0.00384243)
(0.0597599 0 -0.00296647)
(0.0416582 0 -0.00204284)
(0.0216049 0 -0.00105314)
(0 0 0)
(0.142308 0 -0.0212121)
(0.147931 0 -0.0203381)
(0.152146 0 -0.0193562)
(0.155021 0 -0.0183066)
(0.156616 0 -0.0172194)
(0.156965 0 -0.0161153)
(0.156102 0 -0.0150142)
(0.154035 0 -0.0139239)
(0.150753 0 -0.012848)
(0.146244 0 -0.0117941)
(0.140482 0 -0.0107625)
(0.133415 0 -0.0097457)
(0.124988 0 -0.00874235)
(0.115146 0 -0.00774816)
(0.103816 0 -0.00675294)
(0.0909085 0 -0.00574552)
(0.0763361 0 -0.00471271)
(0.0600087 0 -0.00363951)
(0.0418329 0 -0.00250716)
(0.0216992 0 -0.00129293)
(0 0 0)
(0.150331 0 -0.0248426)
(0.154638 0 -0.0237711)
(0.157724 0 -0.0225962)
(0.159646 0 -0.0213596)
(0.160443 0 -0.0200888)
(0.160126 0 -0.0188032)
(0.158715 0 -0.0175251)
(0.156198 0 -0.0162619)
(0.152546 0 -0.0150168)
(0.14773 0 -0.0137936)
(0.141716 0 -0.0125947)
(0.134442 0 -0.0114154)
(0.125841 0 -0.0102486)
(0.115852 0 -0.00908826)
(0.104395 0 -0.00792546)
(0.0913768 0 -0.00674707)
(0.076707 0 -0.00553721)
(0.06029 0 -0.00427797)
(0.0420277 0 -0.00294792)
(0.021802 0 -0.00152056)
(0 0 0)
(0.158839 0 -0.0281945)
(0.161769 0 -0.0269271)
(0.16367 0 -0.025567)
(0.164593 0 -0.0241558)
(0.16455 0 -0.0227185)
(0.163537 0 -0.0212727)
(0.161544 0 -0.0198347)
(0.158546 0 -0.0184162)
(0.154502 0 -0.0170215)
(0.149359 0 -0.0156484)
(0.143071 0 -0.0142998)
(0.13557 0 -0.012973)
(0.126781 0 -0.0116581)
(0.116629 0 -0.0103473)
(0.10503 0 -0.00903058)
(0.09189 0 -0.00769298)
(0.0771123 0 -0.00631707)
(0.0605963 0 -0.00488261)
(0.042238 0 -0.00336567)
(0.0219116 0 -0.00173637)
(0 0 0)
(0.167504 0 -0.0312355)
(0.169053 0 -0.029783)
(0.169769 0 -0.0282533)
(0.169685 0 -0.0266832)
(0.168798 0 -0.0250977)
(0.167084 0 -0.0235136)
(0.164504 0 -0.021939)
(0.161015 0 -0.0203861)
(0.156564 0 -0.0188605)
(0.151084 0 -0.0173585)
(0.14451 0 -0.0158799)
(0.136769 0 -0.0144214)
(0.127778 0 -0.0129735)
(0.117453 0 -0.0115265)
(0.105705 0 -0.0100683)
(0.0924347 0 -0.00858305)
(0.0775414 0 -0.00705207)
(0.060919 0 -0.00545319)
(0.0424582 0 -0.0037602)
(0.0220256 0 -0.00194024)
(0 0 0)
(0.176015 0 -0.033934)
(0.17623 0 -0.0323141)
(0.175814 0 -0.0306393)
(0.174767 0 -0.0289356)
(0.173065 0 -0.0272257)
(0.170669 0 -0.0255253)
(0.167515 0 -0.0238393)
(0.163543 0 -0.022176)
(0.158685 0 -0.0205396)
(0.152863 0 -0.0189273)
(0.145999 0 -0.0173365)
(0.138011 0 -0.015762)
(0.128811 0 -0.0141949)
(0.118307 0 -0.0126242)
(0.106402 0 -0.0110366)
(0.0929965 0 -0.00941538)
(0.0779825 0 -0.00774053)
(0.0612495 0 -0.00598827)
(0.0426824 0 -0.00413045)
(0.0221409 0 -0.0021316)
(0 0 0)
(0.184114 0 -0.0362718)
(0.183101 0 -0.034512)
(0.181644 0 -0.0327203)
(0.179711 0 -0.0309138)
(0.177254 0 -0.0291085)
(0.174214 0 -0.0273165)
(0.170514 0 -0.0255424)
(0.166076 0 -0.0237906)
(0.160819 0 -0.022063)
(0.154658 0 -0.0203574)
(0.147505 0 -0.0186698)
(0.139268 0 -0.0169941)
(0.129856 0 -0.0153212)
(0.119169 0 -0.0136393)
(0.107106 0 -0.0119344)
(0.093562 0 -0.0101887)
(0.078425 0 -0.0083812)
(0.0615794 0 -0.00648678)
(0.0429049 0 -0.00447561)
(0.0222547 0 -0.00231003)
(0 0 0)
(0.191614 0 -0.0382422)
(0.189528 0 -0.0363812)
(0.18715 0 -0.0345056)
(0.184425 0 -0.0326267)
(0.181285 0 -0.0307542)
(0.177653 0 -0.0288955)
(0.17344 0 -0.0270545)
(0.168561 0 -0.0252335)
(0.162922 0 -0.0234328)
(0.156431 0 -0.02165)
(0.148994 0 -0.0198806)
(0.140514 0 -0.0181178)
(0.13089 0 -0.0163521)
(0.120021 0 -0.0145715)
(0.107801 0 -0.0127609)
(0.0941182 0 -0.0109021)
(0.0788583 0 -0.00897327)
(0.0619008 0 -0.00694799)
(0.0431204 0 -0.00479513)
(0.0223643 0 -0.0024752)
(0 0 0)
(0.198402 0 -0.0398501)
(0.195415 0 -0.0379306)
(0.19225 0 -0.0360069)
(0.188836 0 -0.0340851)
(0.185089 0 -0.0321709)
(0.180922 0 -0.0302686)
(0.176241 0 -0.0283809)
(0.17095 0 -0.026509)
(0.164952 0 -0.0246521)
(0.158148 0 -0.0228077)
(0.150439 0 -0.0209708)
(0.141722 0 -0.0191342)
(0.131894 0 -0.0172883)
(0.120847 0 -0.0154207)
(0.108471 0 -0.0135161)
(0.094653 0 -0.0115555)
(0.0792729 0 -0.00951633)
(0.0622065 0 -0.00737149)
(0.0433239 0 -0.00508867)
(0.0224671 0 -0.00262692)
(0 0 0)
(0.204415 0 -0.0411101)
(0.2007 0 -0.0391743)
(0.196883 0 -0.0372367)
(0.192882 0 -0.0353003)
(0.188609 0 -0.0333684)
(0.183971 0 -0.0314438)
(0.178869 0 -0.0295284)
(0.173204 0 -0.0276225)
(0.166875 0 -0.0257253)
(0.159779 0 -0.0238336)
(0.151813 0 -0.0219426)
(0.142872 0 -0.020045)
(0.132847 0 -0.0181309)
(0.121629 0 -0.0161879)
(0.109104 0 -0.0142003)
(0.0951555 0 -0.0121488)
(0.0796599 0 -0.0100104)
(0.0624897 0 -0.00775715)
(0.0435109 0 -0.00535609)
(0.0225608 0 -0.00276512)
(0 0 0)
(0.209627 0 -0.0420436)
(0.205345 0 -0.0401306)
(0.201005 0 -0.0382107)
(0.196522 0 -0.0362856)
(0.191805 0 -0.0343582)
(0.18676 0 -0.0324307)
(0.181289 0 -0.0305047)
(0.17529 0 -0.0285806)
(0.168662 0 -0.0266573)
(0.161298 0 -0.0247319)
(0.153094 0 -0.0227994)
(0.143942 0 -0.0208525)
(0.133733 0 -0.0188817)
(0.122354 0 -0.0168742)
(0.109688 0 -0.0148143)
(0.0956155 0 -0.0126826)
(0.0800114 0 -0.0104556)
(0.0627444 0 -0.00810512)
(0.0436773 0 -0.00559744)
(0.0226434 0 -0.00288982)
(0 0 0)
(0.218807 0 -0.0445174)
(0.214075 0 -0.0426838)
(0.209374 0 -0.0408283)
(0.204629 0 -0.0389539)
(0.199757 0 -0.0370632)
(0.194673 0 -0.0351598)
(0.189284 0 -0.0332466)
(0.183492 0 -0.0313256)
(0.177199 0 -0.0293974)
(0.170302 0 -0.0274611)
(0.162695 0 -0.0255139)
(0.154273 0 -0.0235512)
(0.144926 0 -0.0215659)
(0.134545 0 -0.0195486)
(0.123014 0 -0.0174866)
(0.110216 0 -0.0153642)
(0.0960282 0 -0.013162)
(0.0803232 0 -0.0108562)
(0.0629676 0 -0.0084185)
(0.043821 0 -0.00581488)
(0.022714 0 -0.00300212)
(0 0 0)
(0.222806 0 -0.0447838)
(0.217808 0 -0.0430598)
(0.212821 0 -0.0412927)
(0.20778 0 -0.039489)
(0.202608 0 -0.0376534)
(0.197226 0 -0.0357918)
(0.191548 0 -0.0339086)
(0.185483 0 -0.0320067)
(0.178932 0 -0.0300874)
(0.171795 0 -0.0281499)
(0.163968 0 -0.0261919)
(0.155346 0 -0.0242093)
(0.14582 0 -0.0221954)
(0.135278 0 -0.0201408)
(0.123606 0 -0.0180333)
(0.110684 0 -0.0158571)
(0.0963893 0 -0.0135929)
(0.0805915 0 -0.0112171)
(0.0631557 0 -0.00870111)
(0.0439394 0 -0.00601097)
(0.0227706 0 -0.00310331)
(0 0 0)
(0.225915 0 -0.0447757)
(0.220796 0 -0.0431885)
(0.215647 0 -0.041533)
(0.210414 0 -0.0398207)
(0.205032 0 -0.0380595)
(0.199428 0 -0.0362569)
(0.19352 0 -0.0344181)
(0.187228 0 -0.0325484)
(0.180459 0 -0.0306501)
(0.173114 0 -0.0287224)
(0.165092 0 -0.0267641)
(0.156291 0 -0.0247716)
(0.146602 0 -0.0227386)
(0.135915 0 -0.020656)
(0.124114 0 -0.0185118)
(0.11108 0 -0.0162907)
(0.0966875 0 -0.0139734)
(0.0808071 0 -0.0115364)
(0.0633019 0 -0.00895147)
(0.0440279 0 -0.00618469)
(0.0228113 0 -0.00319286)
(0 0 0)
(0.217834 0 -0.0415651)
(0.212498 0 -0.0399577)
(0.206985 0 -0.0382845)
(0.201229 0 -0.0365544)
(0.195155 0 -0.0347736)
(0.18869 0 -0.0329488)
(0.181747 0 -0.0310832)
(0.174228 0 -0.0291758)
(0.166038 0 -0.0272267)
(0.157081 0 -0.0252338)
(0.14725 0 -0.023191)
(0.136435 0 -0.0210895)
(0.12452 0 -0.0189178)
(0.111387 0 -0.0166608)
(0.0969101 0 -0.0142995)
(0.0809598 0 -0.011811)
(0.0633983 0 -0.009167)
(0.044081 0 -0.00633421)
(0.0228331 0 -0.00326985)
(0 0 0)
(0.20846 0 -0.0383403)
(0.202609 0 -0.036691)
(0.196423 0 -0.0349779)
(0.189834 0 -0.033208)
(0.182761 0 -0.0313853)
(0.175109 0 -0.0295091)
(0.166784 0 -0.0275792)
(0.157698 0 -0.0255949)
(0.147746 0 -0.0235512)
(0.136821 0 -0.0214396)
(0.124809 0 -0.0192492)
(0.111592 0 -0.0169654)
(0.0970465 0 -0.0145696)
(0.0810408 0 -0.0120391)
(0.0634383 0 -0.00934635)
(0.0440942 0 -0.00645858)
(0.0228339 0 -0.00333375)
(0 0 0)
(0.203571 0 -0.0366785)
(0.197318 0 -0.0350389)
(0.190643 0 -0.03333)
(0.183475 0 -0.0315567)
(0.175725 0 -0.0297202)
(0.167305 0 -0.0278199)
(0.158123 0 -0.0258543)
(0.148074 0 -0.0238183)
(0.137058 0 -0.0217049)
(0.124968 0 -0.0195046)
(0.111686 0 -0.0172031)
(0.0970868 0 -0.014782)
(0.0810421 0 -0.0122194)
(0.0634155 0 -0.00948838)
(0.0440632 0 -0.00655698)
(0.0228113 0 -0.00338415)
(0 0 0)
(0.191117 0 -0.0333223)
(0.183884 0 -0.0316035)
(0.176064 0 -0.0298117)
(0.167576 0 -0.0279477)
(0.158328 0 -0.0260094)
(0.148215 0 -0.0239905)
(0.137133 0 -0.0218844)
(0.124985 0 -0.0196829)
(0.111656 0 -0.0173726)
(0.0970222 0 -0.0149356)
(0.0809565 0 -0.0123508)
(0.0633247 0 -0.00959218)
(0.0439843 0 -0.00662876)
(0.0227636 0 -0.00342071)
(0 0 0)
(0.176127 0 -0.0297892)
(0.16759 0 -0.0279655)
(0.158295 0 -0.0260593)
(0.148141 0 -0.0240652)
(0.137027 0 -0.0219762)
(0.124851 0 -0.0197835)
(0.111497 0 -0.0174734)
(0.0968456 0 -0.0150295)
(0.0807779 0 -0.0124325)
(0.0631609 0 -0.00965708)
(0.0438543 0 -0.00667345)
(0.0226891 0 -0.0034432)
(0 0 0)
(0.167348 0 -0.0278778)
(0.158025 0 -0.0260082)
(0.147847 0 -0.0240438)
(0.136721 0 -0.0219787)
(0.124545 0 -0.0198036)
(0.111195 0 -0.017504)
(0.0965511 0 -0.0150634)
(0.0805013 0 -0.012464)
(0.0629205 0 -0.00968266)
(0.0436709 0 -0.00669075)
(0.0225866 0 -0.00345147)
(0 0 0)
(0.147341 0 -0.0239302)
(0.136215 0 -0.0218937)
(0.124049 0 -0.0197419)
(0.110729 0 -0.0174617)
(0.0961277 0 -0.0150358)
(0.0801235 0 -0.0124451)
(0.0626011 0 -0.00966875)
(0.0434323 0 -0.00668057)
(0.0224555 0 -0.00344549)
(0 0 0)
(0.135514 0 -0.021724)
(0.123372 0 -0.0196012)
(0.110092 0 -0.0173465)
(0.0955576 0 -0.0149445)
(0.079636 0 -0.0123748)
(0.0622018 0 -0.00961547)
(0.0431382 0 -0.00664297)
(0.0222956 0 -0.00342531)
(0 0 0)
(0.109297 0 -0.0171613)
(0.0948366 0 -0.0147897)
(0.0790217 0 -0.0122509)
(0.0617155 0 -0.00952196)
(0.0427898 0 -0.00657831)
(0.0221077 0 -0.00339114)
(0 0 0)
(0.0939788 0 -0.0145742)
(0.0782791 0 -0.0120737)
(0.0611263 0 -0.00938607)
(0.0423811 0 -0.00648584)
(0.0218942 0 -0.00334342)
(0 0 0)
(0.060434 0 -0.00920814)
(0.0418971 0 -0.00636348)
(0.0216501 0 -0.00328147)
(0 0 0)
(0.0413414 0 -0.00621187)
(0.0213634 0 -0.00320353)
(0 0 0)
(0.0210266 0 -0.0031085)
(0 0 0)
(0.222806 0 -0.0447838)
(0.217808 0 -0.0430598)
(0.212821 0 -0.0412927)
(0.20778 0 -0.039489)
(0.202608 0 -0.0376534)
(0.197226 0 -0.0357918)
(0.191548 0 -0.0339086)
(0.185483 0 -0.0320067)
(0.178932 0 -0.0300874)
(0.171795 0 -0.0281499)
(0.163968 0 -0.0261919)
(0.155346 0 -0.0242093)
(0.14582 0 -0.0221954)
(0.135278 0 -0.0201408)
(0.123606 0 -0.0180333)
(0.110684 0 -0.0158571)
(0.0963893 0 -0.0135929)
(0.0805915 0 -0.0112171)
(0.0631557 0 -0.00870111)
(0.0439394 0 -0.00601097)
(0.0227706 0 -0.00310331)
(0 0 0)
(0.225915 0 -0.0447757)
(0.220796 0 -0.0431885)
(0.215647 0 -0.041533)
(0.210414 0 -0.0398207)
(0.205032 0 -0.0380595)
(0.199428 0 -0.0362569)
(0.19352 0 -0.0344181)
(0.187228 0 -0.0325484)
(0.180459 0 -0.0306501)
(0.173114 0 -0.0287224)
(0.165092 0 -0.0267641)
(0.156291 0 -0.0247716)
(0.146602 0 -0.0227386)
(0.135915 0 -0.020656)
(0.124114 0 -0.0185118)
(0.11108 0 -0.0162907)
(0.0966875 0 -0.0139734)
(0.0808071 0 -0.0115364)
(0.0633019 0 -0.00895147)
(0.0440279 0 -0.00618469)
(0.0228113 0 -0.00319286)
(0 0 0)
(0.217834 0 -0.0415651)
(0.212498 0 -0.0399577)
(0.206985 0 -0.0382845)
(0.201229 0 -0.0365544)
(0.195155 0 -0.0347736)
(0.18869 0 -0.0329488)
(0.181747 0 -0.0310832)
(0.174228 0 -0.0291758)
(0.166038 0 -0.0272267)
(0.157081 0 -0.0252338)
(0.14725 0 -0.023191)
(0.136435 0 -0.0210895)
(0.12452 0 -0.0189178)
(0.111387 0 -0.0166608)
(0.0969101 0 -0.0142995)
(0.0809598 0 -0.011811)
(0.0633983 0 -0.009167)
(0.044081 0 -0.00633421)
(0.0228331 0 -0.00326985)
(0 0 0)
(0.20846 0 -0.0383403)
(0.202609 0 -0.036691)
(0.196423 0 -0.0349779)
(0.189834 0 -0.033208)
(0.182761 0 -0.0313853)
(0.175109 0 -0.0295091)
(0.166784 0 -0.0275792)
(0.157698 0 -0.0255949)
(0.147746 0 -0.0235512)
(0.136821 0 -0.0214396)
(0.124809 0 -0.0192492)
(0.111592 0 -0.0169654)
(0.0970465 0 -0.0145696)
(0.0810408 0 -0.0120391)
(0.0634383 0 -0.00934635)
(0.0440942 0 -0.00645858)
(0.0228339 0 -0.00333375)
(0 0 0)
(0.203571 0 -0.0366785)
(0.197318 0 -0.0350389)
(0.190643 0 -0.03333)
(0.183475 0 -0.0315567)
(0.175725 0 -0.0297202)
(0.167305 0 -0.0278199)
(0.158123 0 -0.0258543)
(0.148074 0 -0.0238183)
(0.137058 0 -0.0217049)
(0.124968 0 -0.0195046)
(0.111686 0 -0.0172031)
(0.0970868 0 -0.014782)
(0.0810421 0 -0.0122194)
(0.0634155 0 -0.00948838)
(0.0440632 0 -0.00655698)
(0.0228113 0 -0.00338415)
(0 0 0)
(0.191117 0 -0.0333223)
(0.183884 0 -0.0316035)
(0.176064 0 -0.0298117)
(0.167576 0 -0.0279477)
(0.158328 0 -0.0260094)
(0.148215 0 -0.0239905)
(0.137133 0 -0.0218844)
(0.124985 0 -0.0196829)
(0.111656 0 -0.0173726)
(0.0970222 0 -0.0149356)
(0.0809565 0 -0.0123508)
(0.0633247 0 -0.00959218)
(0.0439843 0 -0.00662876)
(0.0227636 0 -0.00342071)
(0 0 0)
(0.176127 0 -0.0297892)
(0.16759 0 -0.0279655)
(0.158295 0 -0.0260593)
(0.148141 0 -0.0240652)
(0.137027 0 -0.0219762)
(0.124851 0 -0.0197835)
(0.111497 0 -0.0174734)
(0.0968456 0 -0.0150295)
(0.0807779 0 -0.0124325)
(0.0631609 0 -0.00965708)
(0.0438543 0 -0.00667345)
(0.0226891 0 -0.0034432)
(0 0 0)
(0.167348 0 -0.0278778)
(0.158025 0 -0.0260082)
(0.147847 0 -0.0240438)
(0.136721 0 -0.0219787)
(0.124545 0 -0.0198036)
(0.111195 0 -0.017504)
(0.0965511 0 -0.0150634)
(0.0805013 0 -0.012464)
(0.0629205 0 -0.00968266)
(0.0436709 0 -0.00669075)
(0.0225866 0 -0.00345147)
(0 0 0)
(0.147341 0 -0.0239302)
(0.136215 0 -0.0218937)
(0.124049 0 -0.0197419)
(0.110729 0 -0.0174617)
(0.0961277 0 -0.0150358)
(0.0801235 0 -0.0124451)
(0.0626011 0 -0.00966875)
(0.0434323 0 -0.00668057)
(0.0224555 0 -0.00344549)
(0 0 0)
(0.135514 0 -0.021724)
(0.123372 0 -0.0196012)
(0.110092 0 -0.0173465)
(0.0955576 0 -0.0149445)
(0.079636 0 -0.0123748)
(0.0622018 0 -0.00961547)
(0.0431382 0 -0.00664297)
(0.0222956 0 -0.00342531)
(0 0 0)
(0.109297 0 -0.0171613)
(0.0948366 0 -0.0147897)
(0.0790217 0 -0.0122509)
(0.0617155 0 -0.00952196)
(0.0427898 0 -0.00657831)
(0.0221077 0 -0.00339114)
(0 0 0)
(0.0939788 0 -0.0145742)
(0.0782791 0 -0.0120737)
(0.0611263 0 -0.00938607)
(0.0423811 0 -0.00648584)
(0.0218942 0 -0.00334342)
(0 0 0)
(0.060434 0 -0.00920814)
(0.0418971 0 -0.00636348)
(0.0216501 0 -0.00328147)
(0 0 0)
(0.0413414 0 -0.00621187)
(0.0213634 0 -0.00320353)
(0 0 0)
(0.0210266 0 -0.0031085)
(0 0 0)
)
;

boundaryField
{
    inlet
    {
        type            fixedValue;
        value           nonuniform 0();
    }
    outlet
    {
        type            fixedValue;
        value           uniform (0 0 0);
    }
    flap
    {
        type            fixedValue;
        value           nonuniform 0();
    }
    upperWall
    {
        type            slip;
    }
    lowerWall
    {
        type            slip;
    }
    frontAndBack
    {
        type            empty;
    }
    procBoundary5to2
    {
        type            processor;
    }
    procBoundary5to4
    {
        type            processor;
    }
}


// ************************************************************************* //
