/*--------------------------------*- C++ -*----------------------------------*\
| =========                 |                                                 |
| \\      /  F ield         | OpenFOAM: The Open Source CFD Toolbox           |
|  \\    /   O peration     | Version:  dev                                   |
|   \\  /    A nd           | Web:      www.OpenFOAM.org                      |
|    \\/     M anipulation  |                                                 |
\*---------------------------------------------------------------------------*/
FoamFile
{
    version     2.0;
    format      ascii;
    class       surfaceScalarField;
    location    "3.01";
    object      meshPhi;
}
// * * * * * * * * * * * * * * * * * * * * * * * * * * * * * * * * * * * * * //

dimensions      [0 3 -1 0 0 0 0];

internalField   nonuniform List<scalar> 
5457
(
4.20804e-06
7.69044e-08
9.91074e-06
1.88278e-07
1.80971e-05
2.04265e-07
2.89244e-05
1.08758e-07
4.18044e-05
-9.29958e-08
5.56951e-05
-3.82334e-07
6.93475e-05
-7.31738e-07
8.15062e-05
-1.10834e-06
9.10737e-05
-1.47657e-06
9.7236e-05
-1.80058e-06
9.95339e-05
-2.04873e-06
9.78958e-05
-2.19745e-06
9.26279e-05
-2.2327e-06
8.43546e-05
-2.15222e-06
7.39226e-05
-1.96597e-06
6.22833e-05
-1.69475e-06
5.03721e-05
-1.36724e-06
3.90048e-05
-1.01596e-06
2.88025e-05
-6.72635e-07
2.01496e-05
-3.63764e-07
1.34716e-05
-1.25717e-07
8.72675e-06
1.48709e-08
5.38508e-06
7.9696e-08
3.12099e-06
1.01496e-07
1.67368e-06
9.55524e-08
8.08078e-07
7.37272e-08
3.32676e-07
4.69273e-08
1.03914e-07
2.36388e-08
2.02118e-08
8.74821e-09
1.68898e-09
3.95236e-06
1.58548e-07
9.48304e-06
3.89506e-07
1.7586e-05
4.27447e-07
2.84045e-05
2.40335e-07
4.13421e-05
-1.61237e-07
5.53456e-05
-7.39961e-07
6.91527e-05
-1.44081e-06
8.1492e-05
-2.19755e-06
9.12466e-05
-2.93838e-06
9.75864e-05
-3.59233e-06
0.000100037
-4.09653e-06
9.85134e-05
-4.40257e-06
9.33139e-05
-4.4815e-06
8.5062e-05
-4.3281e-06
7.46097e-05
-3.96169e-06
6.29182e-05
-3.42354e-06
5.09354e-05
-2.77099e-06
3.94895e-05
-2.06933e-06
2.92141e-05
-1.38265e-06
2.05076e-05
-7.65068e-07
1.37625e-05
-2.87095e-07
8.95001e-06
-2.90618e-10
5.56682e-06
1.35049e-07
3.26188e-06
1.83344e-07
1.7766e-06
1.76234e-07
8.76313e-07
1.36946e-07
3.71016e-07
8.71187e-08
1.20213e-07
4.36091e-08
2.47568e-08
1.59302e-08
3.01165e-09
3.6508e-06
2.47323e-07
8.96069e-06
6.10539e-07
1.69281e-05
6.80312e-07
2.76854e-05
4.09202e-07
4.06331e-05
-1.86233e-07
5.47107e-05
-1.05026e-06
6.86474e-05
-2.10063e-06
8.11637e-05
-3.23767e-06
9.11279e-05
-4.35359e-06
9.76939e-05
-5.34381e-06
0.000100371
-6.11454e-06
9.90559e-05
-6.59146e-06
9.40326e-05
-6.72988e-06
8.59146e-05
-6.52054e-06
7.55493e-05
-5.99095e-06
6.38989e-05
-5.20165e-06
5.19163e-05
-4.23764e-06
4.0438e-05
-3.19634e-06
3.01075e-05
-2.1741e-06
2.13323e-05
-1.25307e-06
1.44811e-05
-5.34395e-07
9.54017e-06
-9.16453e-08
6.03864e-06
1.2788e-07
3.61875e-06
2.16133e-07
2.02806e-06
2.20655e-07
1.03614e-06
1.75448e-07
4.56903e-07
1.12318e-07
1.54893e-07
5.59581e-08
3.3823e-08
2.01186e-08
3.65701e-09
3.32414e-06
3.44996e-07
8.3715e-06
8.56798e-07
1.61492e-05
9.7234e-07
2.67859e-05
6.2934e-07
3.96836e-05
-1.49186e-07
5.378e-05
-1.28922e-06
6.77985e-05
-2.68146e-06
8.04636e-05
-4.19457e-06
9.06412e-05
-5.68746e-06
9.74695e-05
-7.02162e-06
0.000100439
-8.07172e-06
9.94267e-05
-8.73791e-06
9.46954e-05
-8.95909e-06
8.68388e-05
-8.72057e-06
7.66883e-05
-8.05615e-06
6.51952e-05
-7.04355e-06
5.33073e-05
-5.79325e-06
4.18621e-05
-4.43309e-06
3.15087e-05
-3.09065e-06
2.26613e-05
-1.87557e-06
1.56713e-05
-9.15779e-07
1.05358e-05
-3.03476e-07
6.82735e-06
2.16932e-08
4.20716e-06
1.72342e-07
2.43451e-06
2.09361e-07
1.28838e-06
1.76516e-07
5.89367e-07
1.15217e-07
2.07016e-07
5.72877e-08
4.67945e-08
2.02274e-08
3.4703e-09
2.91201e-06
4.53942e-07
7.61729e-06
1.13501e-06
1.51384e-05
1.31452e-06
2.56039e-05
9.16449e-07
3.84172e-05
-2.97632e-08
5.25136e-05
-1.43212e-06
6.66137e-05
-3.15534e-06
7.94471e-05
-5.03854e-06
8.98809e-05
-6.90915e-06
9.70365e-05
-8.59508e-06
0.000100382
-9.93976e-06
9.97714e-05
-1.08182e-05
9.54387e-05
-1.11521e-05
8.79507e-05
-1.09196e-05
7.8115e-05
-1.01582e-05
6.68653e-05
-8.96e-06
5.51376e-05
-7.45789e-06
4.37666e-05
-5.80743e-06
3.34075e-05
-4.166e-06
2.44842e-05
-2.66993e-06
1.73192e-05
-1.4692e-06
1.19184e-05
-6.70317e-07
7.91919e-06
-2.11723e-07
5.01497e-06
3.06677e-08
2.98442e-06
1.27756e-07
1.62273e-06
1.31264e-07
7.61061e-07
9.10767e-08
2.73071e-07
4.56208e-08
6.2441e-08
1.57204e-08
2.41899e-09
2.40963e-06
5.76506e-07
6.69282e-06
1.45198e-06
1.38913e-05
1.71791e-06
2.41329e-05
1.28566e-06
3.68222e-05
1.91206e-07
5.08954e-05
-1.45622e-06
6.50749e-05
-3.49674e-06
7.80946e-05
-5.74138e-06
8.88212e-05
-7.98757e-06
9.6362e-05
-1.00316e-05
0.000100163
-1.16871e-05
0.000100048
-1.2804e-05
9.62183e-05
-1.32857e-05
8.92065e-05
-1.31011e-05
7.97887e-05
-1.22887e-05
6.88752e-05
-1.0952e-05
5.73826e-05
-9.24269e-06
4.61357e-05
-7.33988e-06
3.57952e-05
-5.4269e-06
2.67979e-05
-3.66594e-06
1.94226e-05
-2.22473e-06
1.36829e-05
-1.21883e-06
9.30933e-06
-5.93115e-07
6.03771e-06
-2.23772e-07
3.6709e-06
-3.39951e-08
2.03044e-06
3.4452e-08
9.6388e-07
3.79971e-08
3.48012e-07
2.07515e-08
7.89768e-08
6.82753e-09
6.27502e-10
1.81328e-06
7.15009e-07
5.59238e-06
1.81478e-06
1.24027e-05
2.19376e-06
2.23667e-05
1.75141e-06
3.48897e-05
5.31673e-07
4.89125e-05
-1.33945e-06
6.31628e-05
-3.67943e-06
7.63791e-05
-6.27309e-06
8.74275e-05
-8.88974e-06
9.54036e-05
-1.12964e-05
9.973e-05
-1.32783e-05
0.000100199
-1.46609e-05
9.69737e-05
-1.53285e-05
9.05441e-05
-1.52385e-05
8.16484e-05
-1.44274e-05
7.11666e-05
-1.3006e-05
5.9992e-05
-1.11414e-05
4.89342e-05
-9.03255e-06
3.86512e-05
-6.88427e-06
2.9589e-05
-4.88085e-06
2.19681e-05
-3.20133e-06
1.58106e-05
-1.96576e-06
1.09733e-05
-1.13476e-06
7.2514e-06
-5.98255e-07
4.4726e-06
-2.79242e-07
2.49376e-06
-1.14514e-07
1.18517e-06
-4.29132e-08
4.25021e-07
-1.58774e-08
9.43964e-08
-5.51854e-09
-1.62634e-09
1.11906e-06
8.72029e-07
4.30945e-06
2.23016e-06
1.06644e-05
2.75179e-06
2.02973e-05
2.32651e-06
3.26096e-05
1.00797e-06
4.6549e-05
-1.06144e-06
6.08528e-05
-3.67884e-06
7.42665e-05
-6.60535e-06
8.56563e-05
-9.58408e-06
9.41078e-05
-1.23552e-05
9.9021e-05
-1.46777e-05
0.000100154
-1.6353e-05
9.76274e-05
-1.72457e-05
9.18825e-05
-1.72996e-05
8.36109e-05
-1.65456e-05
7.36546e-05
-1.50976e-05
6.28813e-05
-1.31333e-05
5.20853e-05
-1.08676e-05
4.19139e-05
-8.52499e-06
3.28112e-05
-6.30842e-06
2.49174e-05
-4.39849e-06
1.82632e-05
-2.91237e-06
1.28686e-05
-1.83667e-06
8.61186e-06
-1.0907e-06
5.35158e-06
-6.03894e-07
2.98499e-06
-3.10699e-07
1.40799e-06
-1.47231e-07
4.96719e-07
-6.12924e-08
1.06941e-07
-1.99392e-08
-4.04943e-09
3.22208e-07
1.04944e-06
2.83732e-06
2.70297e-06
8.6675e-06
3.39995e-06
1.79135e-05
3.02298e-06
2.99713e-05
1.63535e-06
4.37915e-05
-6.0467e-07
5.81223e-05
-3.47387e-06
7.17217e-05
-6.71158e-06
8.34597e-05
-1.00385e-05
9.24138e-05
-1.31709e-05
9.79616e-05
-1.58436e-05
9.98266e-05
-1.78351e-05
9.80836e-05
-1.89904e-05
9.31194e-05
-1.92382e-05
8.55711e-05
-1.86003e-05
7.62355e-05
-1.71885e-05
6.59482e-05
-1.51848e-05
5.5482e-05
-1.28153e-05
4.54743e-05
-1.0321e-05
3.63655e-05
-7.9223e-06
2.81848e-05
-5.79382e-06
2.09643e-05
-4.04051e-06
1.49249e-05
-2.68326e-06
1.00551e-05
-1.68705e-06
6.25599e-06
-9.95429e-07
3.46879e-06
-5.43798e-07
1.61321e-06
-2.67743e-07
5.56076e-07
-1.11534e-07
1.15238e-07
-3.49205e-08
-6.36705e-09
-5.83462e-07
1.24874e-06
1.16776e-06
3.2381e-06
6.40351e-06
4.14628e-06
1.52043e-05
3.85126e-06
2.69599e-05
2.42753e-06
4.06248e-05
4.84268e-08
5.49521e-05
-3.04301e-06
6.87138e-05
-6.56514e-06
8.07923e-05
-1.02198e-05
9.02587e-05
-1.37032e-05
9.64705e-05
-1.67285e-05
9.91163e-05
-1.90531e-05
9.82243e-05
-2.0503e-05
9.41237e-05
-2.09917e-05
8.73906e-05
-2.05294e-05
7.877e-05
-1.92181e-05
6.90553e-05
-1.72387e-05
5.89879e-05
-1.48239e-05
4.91913e-05
-1.22253e-05
4.01053e-05
-9.67765e-06
3.16326e-05
-7.34448e-06
2.3793e-05
-5.31242e-06
1.7038e-05
-3.6431e-06
1.14968e-05
-2.36159e-06
7.12353e-06
-1.43381e-06
3.90594e-06
-7.99579e-07
1.78172e-06
-3.95793e-07
5.96985e-07
-1.62504e-07
1.18248e-07
-4.91274e-08
-8.37647e-09
-1.60719e-06
1.47243e-06
-7.11618e-07
3.84205e-06
3.86376e-06
4.99869e-06
1.21617e-05
4.81928e-06
2.35595e-05
3.39459e-06
3.70229e-05
9.13076e-07
5.13122e-05
-2.36632e-06
6.52054e-05
-6.14237e-06
7.76009e-05
-1.00988e-05
8.7571e-05
-1.39157e-05
9.4455e-05
-1.72884e-05
9.79085e-05
-1.99555e-05
9.79117e-05
-2.1725e-05
9.47366e-05
-2.24951e-05
8.88969e-05
-2.22604e-05
8.10759e-05
-2.11093e-05
7.20138e-05
-1.92169e-05
6.24141e-05
-1.68165e-05
5.28764e-05
-1.41643e-05
4.38381e-05
-1.15048e-05
3.50757e-05
-8.98594e-06
2.65886e-05
-6.67214e-06
1.90766e-05
-4.67111e-06
1.28373e-05
-3.07993e-06
7.8868e-06
-1.89455e-06
4.25797e-06
-1.06249e-06
1.89668e-06
-5.23109e-07
6.14476e-07
-2.10843e-07
1.14923e-07
-6.16257e-08
-9.95777e-09
-2.76087e-06
1.72259e-06
-2.81754e-06
4.51982e-06
1.03599e-06
5.96322e-06
8.77988e-06
5.93302e-06
1.97638e-05
4.54218e-06
3.29645e-05
1.99766e-06
4.71651e-05
-1.42883e-06
6.11478e-05
-5.42185e-06
7.38213e-05
-9.64844e-06
8.42667e-05
-1.37747e-05
9.18099e-05
-1.74817e-05
9.6075e-05
-2.04918e-05
9.69944e-05
-2.25969e-05
9.47838e-05
-2.3678e-05
8.9894e-05
-2.37115e-05
8.29377e-05
-2.27722e-05
7.45943e-05
-2.1025e-05
6.55225e-05
-1.86975e-05
5.62889e-05
-1.60445e-05
4.73234e-05
-1.3314e-05
3.82878e-05
-1.06348e-05
2.91603e-05
-8.04882e-06
2.08928e-05
-5.71273e-06
1.39722e-05
-3.80312e-06
8.48089e-06
-2.35245e-06
4.49097e-06
-1.31847e-06
1.94396e-06
-6.43454e-07
6.03731e-07
-2.54617e-07
1.03375e-07
-7.20092e-08
-1.10607e-08
-4.05852e-06
2.00106e-06
-5.16691e-06
5.2753e-06
-2.09105e-06
7.04338e-06
5.05241e-06
7.19584e-06
1.55752e-05
5.87323e-06
2.84497e-05
3.30373e-06
4.24899e-05
-2.25875e-07
5.64992e-05
-4.39115e-06
6.9394e-05
-8.84811e-06
8.02651e-05
-1.32508e-05
8.84301e-05
-1.72684e-05
9.34852e-05
-2.06107e-05
9.53167e-05
-2.30542e-05
9.40841e-05
-2.44619e-05
9.01715e-05
-2.47934e-05
8.41182e-05
-2.41084e-05
7.65389e-05
-2.25576e-05
6.80416e-05
-2.03575e-05
5.91534e-05
-1.77573e-05
5.02904e-05
-1.50017e-05
4.10198e-05
-1.21971e-05
3.13047e-05
-9.36455e-06
2.23377e-05
-6.70993e-06
1.48032e-05
-4.49235e-06
8.8488e-06
-2.78477e-06
4.576e-06
-1.55674e-06
1.90949e-06
-7.5341e-07
5.56984e-07
-2.93638e-07
7.88787e-08
-8.05426e-08
-1.17386e-08
-5.51425e-06
2.30915e-06
-7.77436e-06
6.11093e-06
-5.51847e-06
8.23882e-06
9.789e-07
8.60476e-06
1.09949e-05
7.3865e-06
2.34899e-05
4.83019e-06
3.72948e-05
1.23954e-06
5.12471e-05
-3.04996e-06
6.42848e-05
-7.68878e-06
7.55079e-05
-1.23243e-05
8.42299e-05
-1.66171e-05
9.00229e-05
-2.02663e-05
9.27311e-05
-2.30354e-05
9.24565e-05
-2.47716e-05
8.95146e-05
-2.54182e-05
8.43731e-05
-2.50184e-05
7.75806e-05
-2.37061e-05
6.9687e-05
-2.16831e-05
6.11801e-05
-1.91874e-05
5.24623e-05
-1.64567e-05
4.30272e-05
-1.35748e-05
3.28293e-05
-1.0541e-05
2.32773e-05
-7.60664e-06
1.52463e-05
-5.1121e-06
8.94258e-06
-3.17234e-06
4.48474e-06
-1.76941e-06
1.77195e-06
-8.513e-07
4.55857e-07
-3.28926e-07
2.87958e-08
-8.85638e-08
-1.23825e-08
-6.98399e-06
2.59937e-06
-1.0557e-05
6.95396e-06
-9.25915e-06
9.52908e-06
-3.44403e-06
1.01672e-05
6.00702e-06
9.08813e-06
1.80641e-05
6.5881e-06
3.15645e-05
2.98032e-06
4.53693e-05
-1.3857e-06
5.84516e-05
-6.1539e-06
6.99312e-05
-1.09711e-05
7.91198e-05
-1.54941e-05
8.55695e-05
-1.94141e-05
8.90868e-05
-2.24842e-05
8.97179e-05
-2.4539e-05
8.7712e-05
-2.55064e-05
8.34668e-05
-2.54125e-05
7.74642e-05
-2.4373e-05
7.01932e-05
-2.25728e-05
6.21052e-05
-2.02343e-05
5.3594e-05
-1.75852e-05
4.41034e-05
-1.46881e-05
3.35807e-05
-1.15175e-05
2.36104e-05
-8.36231e-06
1.52393e-05
-5.63852e-06
8.7227e-06
-3.5035e-06
4.18323e-06
-1.95196e-06
1.49074e-06
-9.34746e-07
2.51125e-07
-3.57645e-07
-9.57179e-08
-9.55021e-08
-1.07597e-08
-2.78742e-07
-2.06125e-10
-1.50268e-06
-3.83633e-09
-5.05769e-06
-1.30084e-08
-1.2258e-05
-3.90452e-08
-2.3889e-05
-8.43256e-08
-3.9988e-05
-1.40054e-07
-5.99814e-05
-1.78096e-07
-8.30067e-05
-1.5591e-07
-0.000108199
-4.30828e-08
-0.000132518
2.02051e-07
-0.000153623
6.3705e-07
-0.000172657
1.26256e-06
-0.000190313
2.01543e-06
-0.000206286
2.83916e-06
-0.000220182
3.68685e-06
-0.000231549
4.5034e-06
-0.000239932
5.23038e-06
-0.000244898
5.81603e-06
-0.000246079
6.23559e-06
-0.000243206
6.47621e-06
-0.000236127
6.53682e-06
-0.000224806
6.42504e-06
-0.000209326
6.15352e-06
-0.000189849
5.7382e-06
-0.000166577
5.1896e-06
-0.000139723
4.5101e-06
-0.000109468
3.71439e-06
-7.59667e-05
2.80992e-06
-3.9258e-05
1.78066e-06
6.20191e-07
-2.89791e-07
-8.34232e-10
-1.56072e-06
-8.32545e-09
-5.19132e-06
-2.93127e-08
-1.24528e-05
-8.28337e-08
-2.40944e-05
-1.72563e-07
-4.01199e-05
-2.79132e-07
-5.99318e-05
-3.46921e-07
-8.26926e-05
-2.92895e-07
-0.000107531
-5.57132e-08
-0.000131734
4.46608e-07
-0.000152854
1.31489e-06
-0.000171805
2.54888e-06
-0.000189495
4.0382e-06
-0.000205559
5.66665e-06
-0.000219577
7.34308e-06
-0.000231071
8.95123e-06
-0.000239569
1.03768e-05
-0.000244633
1.15298e-05
-0.000245892
1.23571e-05
-0.000243076
1.28323e-05
-0.000236032
1.29527e-05
-0.00022473
1.27328e-05
-0.000209263
1.21973e-05
-0.000189799
1.13713e-05
-0.000166534
1.02828e-05
-0.000139669
8.94746e-06
-0.000109406
7.37701e-06
-7.59175e-05
5.58017e-06
-3.92312e-05
3.5353e-06
1.23121e-06
-3.03028e-07
-1.3888e-09
-1.62165e-06
-1.32159e-08
-5.29384e-06
-4.70372e-08
-1.25056e-05
-1.26123e-07
-2.39474e-05
-2.53103e-07
-3.95884e-05
-3.94451e-07
-5.88357e-05
-4.71076e-07
-8.09318e-05
-3.70018e-07
-0.000105092
1.17577e-08
-0.000128896
7.89392e-07
-0.000149879
2.07857e-06
-0.000168777
3.87955e-06
-0.000186587
6.06344e-06
-0.000202891
8.45769e-06
-0.000217204
1.09103e-05
-0.000229005
1.32495e-05
-0.000237798
1.53211e-05
-0.000243136
1.70054e-05
-0.000244637
1.82179e-05
-0.00024203
1.89175e-05
-0.000235162
1.90988e-05
-0.000224011
1.87817e-05
-0.000208669
1.80008e-05
-0.000189315
1.67919e-05
-0.000166149
1.51961e-05
-0.000139362
1.32414e-05
-0.000109163
1.09327e-05
-7.57487e-05
8.27227e-06
-3.91446e-05
5.23999e-06
1.82478e-06
-3.14307e-07
-1.88753e-09
-1.6617e-06
-1.78741e-08
-5.30823e-06
-6.32602e-08
-1.2328e-05
-1.6316e-07
-2.33348e-05
-3.14997e-07
-3.82727e-05
-4.68956e-07
-5.66091e-05
-5.24874e-07
-7.77149e-05
-3.46121e-07
-0.000100926
2.08235e-07
-0.000124042
1.26777e-06
-0.000144745
2.95773e-06
-0.000163659
5.28829e-06
-0.000181681
8.10655e-06
-0.000198345
1.11997e-05
-0.000213098
1.43527e-05
-0.000225358
1.73472e-05
-0.000234606
2.00062e-05
-0.000240378
2.21779e-05
-0.000242279
2.37469e-05
-0.00024003
2.4658e-05
-0.000233481
2.49018e-05
-0.00022261
2.45013e-05
-0.000207513
2.34983e-05
-0.000188372
2.19396e-05
-0.000165402
1.98739e-05
-0.000138793
1.73343e-05
-0.000108745
1.43298e-05
-7.54656e-05
1.0854e-05
-3.90009e-05
6.87804e-06
2.39541e-06
-3.23078e-07
-2.38737e-09
-1.68085e-06
-2.20425e-08
-5.25051e-06
-7.66662e-08
-1.19826e-05
-1.90639e-07
-2.24024e-05
-3.52267e-07
-3.64458e-05
-4.9572e-07
-5.36789e-05
-4.99505e-07
-7.36053e-05
-2.03928e-07
-9.56614e-05
5.5136e-07
-0.000117914
1.89837e-06
-0.000138279
3.97133e-06
-0.000157242
6.79202e-06
-0.000175517
1.01766e-05
-0.000192586
1.38818e-05
-0.00020785
1.76569e-05
-0.000220673
2.12407e-05
-0.000230481
2.44194e-05
-0.000236785
2.70238e-05
-0.000239184
2.89167e-05
-0.000237387
3.00233e-05
-0.000231244
3.03297e-05
-0.000220735
2.98596e-05
-0.000205961
2.86593e-05
-0.000187101
2.67809e-05
-0.000164382
2.42802e-05
-0.000138003
2.11953e-05
-0.000108168
1.75396e-05
-7.50855e-05
1.32995e-05
-3.88101e-05
8.4329e-06
2.93746e-06
-3.27373e-07
-2.8737e-09
-1.67249e-06
-2.53565e-08
-5.11448e-06
-8.57972e-08
-1.14769e-05
-2.04308e-07
-2.12023e-05
-3.57253e-07
-3.42478e-05
-4.62956e-07
-5.02832e-05
-3.80895e-07
-6.89212e-05
6.60188e-08
-8.97072e-05
1.04604e-06
-0.000111012
2.69252e-06
-0.000131008
5.13406e-06
-0.000150015
8.39379e-06
-0.000168547
1.22736e-05
-0.000186025
1.65039e-05
-0.00020181
2.08132e-05
-0.000215236
2.49149e-05
-0.000225664
2.85502e-05
-0.000232561
3.15261e-05
-0.000235514
3.37001e-05
-0.000234228
3.49824e-05
-0.000228548
3.53496e-05
-0.000218459
3.4823e-05
-0.000204059
3.34506e-05
-0.000185531
3.12881e-05
-0.000163103
2.83938e-05
-0.000136998
2.48104e-05
-0.000107434
2.05496e-05
-7.46094e-05
1.55929e-05
-3.85754e-05
9.89214e-06
3.44641e-06
-3.25795e-07
-3.28446e-09
-1.634e-06
-2.71457e-08
-4.90405e-06
-8.86214e-08
-1.08382e-05
-1.99679e-07
-1.98165e-05
-3.22578e-07
-3.18387e-05
-3.59967e-07
-4.66627e-05
-1.58094e-07
-6.39912e-05
4.68773e-07
-8.34847e-05
1.69326e-06
-0.000103823
3.64822e-06
-0.000123433
6.44185e-06
-0.000142463
1.00884e-05
-0.000161222
1.43931e-05
-0.000179084
1.90663e-05
-0.000195362
2.38199e-05
-0.000209356
2.8352e-05
-0.000220395
3.238e-05
-0.000227897
3.56771e-05
-0.000231422
3.80903e-05
-0.000230669
3.95267e-05
-0.000225482
3.99509e-05
-0.000215844
3.93789e-05
-0.000201852
3.78576e-05
-0.000183688
3.54471e-05
-0.000161596
3.22024e-05
-0.000135814
2.81637e-05
-0.000106568
2.33439e-05
-7.40504e-05
1.7724e-05
-3.83056e-05
1.12501e-05
3.92058e-06
-3.18146e-07
-3.45012e-09
-1.56896e-06
-2.67097e-08
-4.63674e-06
-8.30205e-08
-1.01179e-05
-1.72624e-07
-1.83521e-05
-2.4251e-07
-2.93849e-05
-1.81402e-07
-4.30493e-05
1.71341e-07
-5.91321e-05
1.00307e-06
-7.73912e-05
2.48796e-06
-9.6788e-05
4.75167e-06
-0.000116007
7.87911e-06
-0.000135026
1.18676e-05
-0.000153956
1.65273e-05
-0.000172141
2.15638e-05
-0.00018885
2.66777e-05
-0.000203344
3.15547e-05
-0.000214927
3.59002e-05
-0.00022299
3.94683e-05
-0.000227062
4.20877e-05
-0.000226833
4.36572e-05
-0.000222138
4.4133e-05
-0.00021296
4.35247e-05
-0.000199394
4.18755e-05
-0.000181629
3.92456e-05
-0.000159909
3.56872e-05
-0.000134486
3.12368e-05
-0.000105591
2.59085e-05
-7.3416e-05
1.96828e-05
-3.79995e-05
1.24985e-05
4.35644e-06
-3.05612e-07
-3.25033e-09
-1.48635e-06
-2.34324e-08
-4.34051e-06
-6.70107e-08
-9.37998e-06
-1.19745e-07
-1.69187e-05
-1.13921e-07
-2.70423e-05
7.22314e-08
-3.96543e-05
6.02236e-07
-5.46199e-05
1.66089e-06
-7.17649e-05
3.41904e-06
-9.02861e-05
5.98792e-06
-0.000109114
9.42817e-06
-0.000128081
1.37166e-05
-0.000147108
1.8666e-05
-0.000165526
2.39907e-05
-0.000182572
2.93856e-05
-0.000197474
3.45292e-05
-0.00020951
3.91188e-05
-0.000218051
4.28999e-05
-0.000222611
4.56869e-05
-0.000222862
4.73657e-05
-0.000218633
4.78853e-05
-0.000209901
4.72479e-05
-0.000196763
4.54912e-05
-0.000179408
4.26696e-05
-0.000158081
3.88336e-05
-0.000133037
3.40186e-05
-0.000104517
2.82364e-05
-7.27066e-05
2.14632e-05
-3.7641e-05
1.36313e-05
4.75091e-06
-2.90456e-07
-2.59253e-09
-1.39866e-06
-1.67452e-08
-4.0488e-06
-3.86707e-08
-8.68913e-06
-3.8232e-08
-1.56169e-05
6.46705e-08
-2.49528e-05
3.98534e-07
-3.66655e-05
1.12725e-06
-5.06816e-05
2.43056e-06
-6.68751e-05
4.47157e-06
-8.46222e-05
7.34155e-06
-0.000103061
1.10696e-05
-0.000121921
1.56148e-05
-0.000140966
2.07971e-05
-0.000159513
2.6342e-05
-0.000176778
3.19442e-05
-0.00019197
3.72809e-05
-0.000204345
4.20467e-05
-0.000213263
4.5982e-05
-0.000218223
4.88924e-05
-0.000218884
5.06537e-05
-0.00021507
5.12065e-05
-0.000206751
5.05447e-05
-0.000194022
4.86984e-05
-0.000177071
4.57149e-05
-0.000156139
4.16404e-05
-0.000131484
3.65067e-05
-0.000103356
3.03233e-05
-7.19254e-05
2.30614e-05
-3.72313e-05
1.46487e-05
5.10515e-06
-2.75514e-07
-1.40807e-09
-1.32041e-06
-5.98174e-09
-3.79789e-06
4.04785e-09
-8.10951e-06
7.41324e-08
-1.45422e-05
2.9348e-07
-2.32457e-05
7.94265e-07
-3.42397e-05
1.73853e-06
-4.74942e-05
3.29908e-06
-6.29184e-05
5.62872e-06
-8.00118e-05
8.79405e-06
-9.80711e-05
1.27851e-05
-0.000116768
1.75458e-05
-0.000135745
2.29096e-05
-0.000154308
2.86135e-05
-0.000171663
3.43559e-05
-0.000187007
3.9818e-05
-0.00019959
4.46963e-05
-0.000208762
4.87305e-05
-0.000214013
5.17215e-05
-0.000214997
5.35377e-05
-0.000211528
5.41115e-05
-0.000203573
5.34276e-05
-0.000191221
5.1507e-05
-0.000174654
4.83886e-05
-0.000154111
4.4112e-05
-0.000129847
3.87035e-05
-0.000102113
3.21684e-05
-7.10758e-05
2.4475e-05
-3.67858e-05
1.55499e-05
5.41949e-06
-2.64085e-07
3.68772e-10
-1.26866e-06
9.87309e-09
-3.62838e-06
6.35196e-08
-7.70873e-06
2.19013e-07
-1.37875e-05
5.71496e-07
-2.20328e-05
1.25471e-06
-3.24992e-05
2.42729e-06
-4.51864e-05
4.25409e-06
-6.00255e-05
6.87596e-06
-7.65864e-05
1.03291e-05
-9.428e-05
1.45591e-05
-0.00011276
1.94985e-05
-0.000131583
2.49987e-05
-0.000150046
3.08078e-05
-0.000167354
3.66308e-05
-0.000182707
4.21568e-05
-0.000195353
4.70892e-05
-0.000204643
5.11711e-05
-0.000210065
5.42023e-05
-0.000211269
5.60463e-05
-0.000208066
5.66276e-05
-0.000200413
5.59216e-05
-0.000188396
5.39392e-05
-0.000172187
5.07094e-05
-0.000152018
4.62634e-05
-0.000128139
4.06206e-05
-0.000100795
3.378e-05
-7.01605e-05
2.57085e-05
-3.6309e-05
1.63354e-05
5.69336e-06
-2.61974e-07
3.04043e-09
-1.26827e-06
3.27508e-08
-3.59197e-06
1.42944e-07
-7.5633e-06
3.98492e-07
-1.34445e-05
8.9865e-07
-2.14086e-05
1.77719e-06
-3.15348e-05
3.18878e-06
-4.38435e-05
5.29048e-06
-5.82757e-05
8.21001e-06
-7.44179e-05
1.1946e-05
-9.1756e-05
1.63928e-05
-0.000109964
2.1477e-05
-0.000128546
2.70729e-05
-0.000146789
3.29387e-05
-0.000163911
3.8788e-05
-0.000179123
4.43219e-05
-0.000191685
4.92552e-05
-0.000200953
5.33378e-05
-0.000206421
5.63715e-05
-0.000207739
5.82169e-05
-0.000204714
5.87917e-05
-0.000197299
5.80617e-05
-0.000185568
5.60269e-05
-0.000169687
5.27057e-05
-0.000149875
4.81192e-05
-0.000126374
4.22787e-05
-9.94177e-05
3.51763e-05
-6.91944e-05
2.67776e-05
-3.58054e-05
1.70155e-05
5.93016e-06
-2.89956e-07
8.47164e-09
-1.36881e-06
6.76953e-08
-3.76842e-06
2.49529e-07
-7.77362e-06
6.22019e-07
-1.36197e-05
1.28717e-06
-2.14725e-05
2.3764e-06
-3.14288e-05
4.039e-06
-4.35277e-05
6.42523e-06
-5.77182e-05
9.6529e-06
-7.3538e-05
1.36692e-05
-9.05172e-05
1.83035e-05
-0.000108398
2.34936e-05
-0.000126646
2.91459e-05
-0.00014455
3.50221e-05
-0.000161348
4.08459e-05
-0.000176273
4.63355e-05
-0.000188604
5.12202e-05
-0.000197713
5.52601e-05
-0.000203104
5.82612e-05
-0.000204429
6.00828e-05
-0.000201496
6.06367e-05
-0.00019425
5.98792e-05
-0.000182757
5.77991e-05
-0.000167169
5.44029e-05
-0.000147695
4.97013e-05
-0.000124564
4.36965e-05
-9.80017e-05
3.63741e-05
-6.82028e-05
2.76978e-05
-3.52883e-05
1.76017e-05
6.13418e-06
-4.69207e-07
4.49515e-08
-1.7398e-06
1.43251e-07
-4.34143e-06
4.19793e-07
-8.51646e-06
9.33685e-07
-1.44693e-05
1.78535e-06
-2.2351e-05
3.10066e-06
-3.22707e-05
5.02262e-06
-4.42933e-05
7.69824e-06
-5.83434e-05
1.12152e-05
-7.38969e-05
1.5471e-05
-9.05279e-05
2.02771e-05
-0.000108033
2.55664e-05
-0.000125859
3.12455e-05
-0.000143302
3.70871e-05
-0.00015964
4.28341e-05
-0.000174136
4.82291e-05
-0.000186096
5.3019e-05
-0.000194913
5.69758e-05
-0.000200105
5.99114e-05
-0.000201334
6.16851e-05
-0.000198407
6.22034e-05
-0.000191265
6.14135e-05
-0.000179961
5.92925e-05
-0.000164635
5.58348e-05
-0.00014548
5.10395e-05
-0.000122714
4.48995e-05
-9.65526e-05
3.73938e-05
-6.7192e-05
2.84834e-05
-3.47623e-05
1.81032e-05
6.30892e-06
-8.49837e-06
2.83249e-06
-1.36764e-05
7.68519e-06
-1.37195e-05
1.07998e-05
-8.58651e-06
1.18669e-05
5.82187e-07
1.10094e-05
1.25624e-05
8.60744e-06
2.61805e-05
5.03328e-06
4.02674e-05
6.41038e-07
5.37863e-05
-4.2048e-06
6.58563e-05
-9.15088e-06
7.57679e-05
-1.38552e-05
8.30402e-05
-1.80047e-05
8.74373e-05
-2.13456e-05
8.89549e-05
-2.3702e-05
8.77867e-05
-2.49887e-05
8.42754e-05
-2.52146e-05
7.88525e-05
-2.44766e-05
7.19683e-05
-2.29415e-05
6.40627e-05
-2.08149e-05
5.55351e-05
-1.83143e-05
4.57851e-05
-1.54803e-05
3.474e-05
-1.22567e-05
2.41652e-05
-8.95476e-06
1.53046e-05
-6.05917e-06
8.46432e-06
-3.77256e-06
3.76075e-06
-2.10207e-06
1.02656e-06
-9.99569e-07
-1.78519e-07
-3.67025e-07
-4.59829e-07
-7.36731e-08
2.62987e-08
-3.02673e-07
-9.69377e-06
3.04736e-06
-1.62835e-05
8.31768e-06
-1.80211e-05
1.19116e-05
-1.42398e-05
1.35353e-05
-5.74642e-06
1.31044e-05
5.89303e-06
1.08972e-05
1.93228e-05
7.40303e-06
3.33905e-05
3.04282e-06
4.70575e-05
-1.82371e-06
5.94512e-05
-6.84449e-06
6.98589e-05
-1.16785e-05
7.77773e-05
-1.60115e-05
8.29353e-05
-1.95858e-05
8.528e-05
-2.2219e-05
8.49484e-05
-2.38139e-05
8.22234e-05
-2.43637e-05
7.74798e-05
-2.3947e-05
7.11336e-05
-2.27117e-05
6.3618e-05
-2.085e-05
5.5333e-05
-1.85714e-05
4.56793e-05
-1.58992e-05
3.45058e-05
-1.27314e-05
2.36623e-05
-9.36766e-06
1.45902e-05
-6.36042e-06
7.62827e-06
-3.96685e-06
2.86947e-06
-2.20359e-06
1.0851e-07
-1.02174e-06
-1.11864e-06
-3.19442e-07
-1.42479e-06
3.74096e-08
1.95061e-07
-1.41629e-06
-1.09043e-05
3.27087e-06
-1.8681e-05
8.94441e-06
-2.19042e-05
1.29058e-05
-1.99112e-05
1.50017e-05
-1.27535e-05
1.51517e-05
-1.73016e-06
1.33774e-05
1.14014e-05
1.007e-05
2.53106e-05
5.79423e-06
3.89965e-05
9.73101e-07
5.15936e-05
-4.06219e-06
6.23793e-05
-8.97063e-06
7.08344e-05
-1.34347e-05
7.66575e-05
-1.71974e-05
7.97526e-05
-2.00723e-05
8.02038e-05
-2.19532e-05
7.82391e-05
-2.28197e-05
7.41839e-05
-2.27327e-05
6.84311e-05
-2.18232e-05
6.1412e-05
-2.02719e-05
5.3549e-05
-1.82864e-05
4.43356e-05
-1.59063e-05
3.33228e-05
-1.29399e-05
2.23522e-05
-9.5922e-06
1.31967e-05
-6.5173e-06
6.1665e-06
-4.05469e-06
1.33091e-06
-2.21514e-06
-1.54904e-06
-9.52082e-07
-2.94599e-06
-1.61329e-07
-3.46826e-06
2.90477e-07
5.45803e-07
-3.71192e-06
-1.22392e-05
3.49835e-06
-2.12247e-05
9.59077e-06
-2.56278e-05
1.39041e-05
-2.51947e-05
1.63381e-05
-1.98644e-05
1.69714e-05
-1.01421e-05
1.58069e-05
2.41199e-06
1.29475e-05
1.60268e-05
8.87462e-06
2.95773e-05
4.1587e-06
4.22453e-05
-8.28838e-07
5.32745e-05
-5.75493e-06
6.2137e-05
-1.02932e-05
6.85079e-05
-1.41923e-05
7.22542e-05
-1.72658e-05
7.34144e-05
-1.9401e-05
7.21685e-05
-2.05656e-05
6.88031e-05
-2.08052e-05
6.36879e-05
-2.02337e-05
5.72523e-05
-1.90181e-05
4.99647e-05
-1.73635e-05
4.15139e-05
-1.53415e-05
3.1038e-05
-1.27189e-05
2.01287e-05
-9.55889e-06
1.09251e-05
-6.49725e-06
3.80696e-06
-3.97895e-06
-1.1719e-06
-2.07304e-06
-4.29299e-06
-7.29333e-07
-6.03845e-06
1.64231e-07
-7.01614e-06
7.37583e-07
1.12491e-06
-7.74975e-06
-1.37022e-05
3.7287e-06
-2.40356e-05
1.02481e-05
-2.96425e-05
1.49351e-05
-3.04313e-05
1.76925e-05
-2.67101e-05
1.86594e-05
-1.88021e-05
1.79981e-05
-7.49401e-06
1.57727e-05
5.51549e-06
1.21887e-05
1.87798e-05
7.71639e-06
3.13851e-05
2.82483e-06
4.2509e-05
-2.06682e-06
5.16333e-05
-6.61847e-06
5.8418e-05
-1.05976e-05
6.26994e-05
-1.38205e-05
6.44789e-05
-1.617e-05
6.38968e-05
-1.76047e-05
6.12048e-05
-1.81553e-05
5.67445e-05
-1.79174e-05
5.09312e-05
-1.7038e-05
4.42427e-05
-1.56989e-05
3.6492e-05
-1.39482e-05
2.68599e-05
-1.16369e-05
1.65102e-05
-8.85797e-06
7.42559e-06
-6.0676e-06
2.22418e-07
-3.63781e-06
-4.97409e-06
-1.70932e-06
-8.4436e-06
-2.8769e-07
-1.06926e-05
7.12161e-07
-1.23097e-05
1.41659e-06
1.94776e-06
-1.36837e-05
-1.53053e-05
3.96023e-06
-2.71226e-05
1.09117e-05
-3.40866e-05
1.59842e-05
-3.61217e-05
1.90927e-05
-3.36747e-05
2.03791e-05
-2.73823e-05
2.00591e-05
-1.77906e-05
1.83351e-05
-5.95562e-06
1.53612e-05
6.67878e-06
1.13937e-05
1.89879e-05
6.81166e-06
3.00598e-05
2.05549e-06
3.92872e-05
-2.45503e-06
4.63397e-05
-6.45417e-06
5.10275e-05
-9.77319e-06
5.33241e-05
-1.22909e-05
5.33377e-05
-1.39596e-05
5.12855e-05
-1.47957e-05
4.74755e-05
-1.48758e-05
4.22868e-05
-1.43222e-05
3.61426e-05
-1.32825e-05
2.88424e-05
-1.17696e-05
2.00309e-05
-9.70869e-06
1.06704e-05
-7.29533e-06
2.13136e-06
-4.90617e-06
-4.97566e-06
-2.76886e-06
-1.04017e-05
-9.69778e-07
-1.4295e-05
4.55744e-07
-1.71319e-05
1.53758e-06
-1.94595e-05
2.36144e-06
3.02164e-06
-2.15215e-05
-1.70572e-05
4.19071e-06
-3.05029e-05
1.15753e-05
-3.89665e-05
1.70414e-05
-4.24077e-05
2.05171e-05
-4.12664e-05
2.21561e-05
-3.6284e-05
2.21677e-05
-2.8238e-05
2.07968e-05
-1.78848e-05
1.8276e-05
-6.4042e-06
1.48726e-05
5.14932e-06
1.08583e-05
1.59217e-05
6.48992e-06
2.50928e-05
2.14196e-06
3.22588e-05
-1.82449e-06
3.72123e-05
-5.18396e-06
3.99116e-05
-7.81709e-06
4.04407e-05
-9.67661e-06
3.89834e-05
-1.07642e-05
3.58086e-05
-1.11387e-05
3.12479e-05
-1.08987e-05
2.56577e-05
-1.0165e-05
1.88616e-05
-8.95151e-06
1.07873e-05
-7.20706e-06
2.38443e-06
-5.1311e-06
-5.37003e-06
-3.08501e-06
-1.21224e-05
-1.25651e-06
-1.76661e-05
3.21101e-07
-2.20355e-05
1.64393e-06
-2.55153e-05
2.72953e-06
-2.85453e-05
3.6203e-06
4.37138e-06
-3.12507e-05
-1.89638e-05
4.41741e-06
-3.41881e-05
1.22311e-05
-4.42983e-05
1.80943e-05
-4.92913e-05
2.19492e-05
-4.96212e-05
2.39613e-05
-4.60053e-05
2.43461e-05
-3.931e-05
2.33463e-05
-3.03669e-05
2.12124e-05
-2.024e-05
1.82446e-05
-9.81859e-06
1.4743e-05
2.6227e-07
1.08975e-05
9.11981e-06
6.9368e-06
1.61997e-05
3.18033e-06
2.12724e-05
-1.25518e-07
2.42428e-05
-2.82366e-06
2.51923e-05
-4.82462e-06
2.42712e-05
-6.12032e-06
2.17068e-05
-6.75733e-06
1.77831e-05
-6.81303e-06
1.28062e-05
-6.38571e-06
6.69644e-06
-5.49688e-06
-5.39542e-07
-4.12379e-06
-8.05395e-06
-2.44523e-06
-1.50574e-05
-7.5678e-07
-2.13452e-05
7.9131e-07
-2.68422e-05
2.16163e-06
-3.1599e-05
3.34789e-06
-3.57282e-05
4.37067e-06
-3.95067e-05
5.2638e-06
6.05654e-06
-4.29066e-05
-2.1028e-05
4.63705e-06
-3.81838e-05
1.28697e-05
-5.00901e-05
1.91281e-05
-5.67833e-05
2.33688e-05
-5.87343e-05
2.57693e-05
-5.66608e-05
2.65506e-05
-5.14139e-05
2.59569e-05
-4.38795e-05
2.42456e-05
-3.50532e-05
2.16941e-05
-2.57996e-05
1.85917e-05
-1.66852e-05
1.51737e-05
-8.47374e-06
1.16592e-05
-1.71844e-06
8.27366e-06
3.27445e-06
5.19788e-06
6.34574e-06
2.57847e-06
7.60391e-06
5.13604e-07
7.14148e-06
-9.42925e-07
5.14506e-06
-1.80091e-06
1.8517e-06
-2.12404e-06
-2.47467e-06
-1.99008e-06
-7.81538e-06
-1.43154e-06
-1.41035e-05
-4.51381e-07
-2.06826e-05
8.08144e-07
-2.6961e-05
2.12321e-06
-3.27798e-05
3.37371e-06
-3.81051e-05
4.52367e-06
-4.30013e-05
5.56138e-06
-4.75913e-05
6.4958e-06
-5.20572e-05
7.34927e-06
8.13472e-06
-5.61376e-05
-2.32495e-05
4.84592e-06
-4.24901e-05
1.34804e-05
-5.6342e-05
2.01256e-05
-6.48834e-05
2.47527e-05
-6.86042e-05
2.75503e-05
-6.82233e-05
2.87443e-05
-6.4584e-05
2.85796e-05
-5.85774e-05
2.73119e-05
-5.11184e-05
2.52059e-05
-4.30419e-05
2.25241e-05
-3.49871e-05
1.95014e-05
-2.76084e-05
1.63669e-05
-2.1384e-05
1.33325e-05
-1.66984e-05
1.05708e-05
-1.37175e-05
8.18783e-06
-1.23048e-05
6.20913e-06
-1.24047e-05
4.67877e-06
-1.39033e-05
3.6461e-06
-1.66054e-05
3.09574e-06
-2.02822e-05
2.96503e-06
-2.48278e-05
3.2077e-06
-3.01404e-05