/*--------------------------------*- C++ -*----------------------------------*\
| =========                 |                                                 |
| \\      /  F ield         | OpenFOAM: The Open Source CFD Toolbox           |
|  \\    /   O peration     | Version:  dev                                   |
|   \\  /    A nd           | Web:      www.OpenFOAM.org                      |
|    \\/     M anipulation  |                                                 |
\*---------------------------------------------------------------------------*/
FoamFile
{
    version     2.0;
    format      ascii;
    class       volScalarField;
    location    "0.06";
    object      p;
}
// * * * * * * * * * * * * * * * * * * * * * * * * * * * * * * * * * * * * * //

dimensions      [0 2 -2 0 0 0 0];

internalField   nonuniform List<scalar> 
2790
(
75.1992
75.089
75.3103
75.8282
76.5442
77.4168
78.441
79.6177
80.9463
82.4258
84.0567
85.8399
87.7756
89.8618
92.0943
94.4652
96.9623
99.5681
102.259
105.004
107.766
110.498
113.149
115.661
117.972
120.024
121.762
123.14
124.128
124.717
75.0103
74.9997
75.2466
75.7643
76.4789
77.3504
78.372
79.5443
80.8669
82.3392
83.9618
85.7358
87.6615
89.7373
91.9592
94.3196
96.807
99.4045
102.089
104.831
107.593
110.331
112.991
115.517
117.847
119.92
121.679
123.075
124.076
124.697
74.8185
74.8784
75.1446
75.6534
76.3571
77.2188
78.2292
79.3881
80.6948
82.1489
83.751
85.5021
87.4026
89.451
91.6436
93.9734
96.4293
98.9956
101.651
104.366
107.106
109.827
112.48
115.006
117.347
119.438
121.222
122.647
123.674
124.329
74.6054
74.6978
74.9771
75.4787
76.1701
77.0186
78.013
79.1519
80.4349
81.8615
83.4324
85.1484
87.01
89.0159
91.1624
93.4432
95.8481
98.3624
100.966
103.632
106.328
109.013
111.639
114.151
116.49
118.592
120.396
121.847
122.9
123.6
74.3606
74.468
74.756
75.2509
75.9272
76.7566
77.728
78.8393
80.0899
81.4793
83.008
84.6767
86.4857
88.4337
90.5172
92.7305
95.064
97.5045
100.034
102.627
105.255
107.88
110.457
112.935
115.256
117.359
119.178
120.657
121.737
122.489
74.0798
74.1933
74.4841
74.9698
75.6275
76.4327
77.375
78.4518
79.662
81.005
82.481
84.0905
85.8335
87.7084
89.712
91.8387
94.0799
96.4233
98.8527
101.347
103.878
106.413
108.913
111.33
113.61
115.694
117.518
119.019
120.13
120.938
73.761
73.8758
74.1641
74.6372
75.273
76.0495
76.957
77.9925
79.1546
80.4423
81.8556
83.3944
85.0582
86.8452
88.7519
90.7729
92.9
95.122
97.4241
99.7875
102.188
104.598
106.982
109.299
111.501
113.535
115.34
116.853
117.992
118.874
73.4037
73.5169
73.7983
74.2556
74.8661
75.6095
76.4768
77.4648
78.5715
79.7957
81.1366
82.5937
84.1658
85.8505
87.6438
89.5399
91.5307
93.6056
95.7509
97.9495
100.181
102.42
104.638
106.801
108.871
110.803
112.546
114.041
115.196
116.161
73.0086
73.118
73.3893
73.8275
74.4094
75.1156
75.9378
76.8724
77.9171
79.07
80.3297
81.6949
83.1635
84.7321
86.3959
88.1483
89.9807
91.8821
93.839
95.835
97.8511
99.8654
101.854
103.79
105.647
107.393
108.995
110.413
111.551
112.606
72.5767
72.6809
72.9393
73.3554
73.9056
74.5711
75.3437
76.2198
77.1963
78.2709
79.4414
80.7053
82.0594
83.4991
85.0184
86.6092
88.2615
89.9631
91.6991
93.4521
95.2025
96.9288
98.6087
100.221
101.748
103.177
104.501
105.722
106.766
107.938
72.1095
72.2075
72.4509
72.8422
73.3579
73.9794
74.6985
75.5113
76.4144
77.4045
78.4785
79.6329
80.8628
82.1622
83.5233
84.9359
86.3879
87.8643
89.3472
90.816
92.2469
93.6141
94.8915
96.0556
97.0914
98.0011
98.8128
99.598
100.359
101.608
71.6089
71.6999
71.9264
72.2908
72.7695
73.3441
74.0063
74.752
75.5771
76.4774
77.4489
78.4865
79.584
80.7333
81.9242
83.1442
84.3778
85.606
86.8062
87.951
89.0086
89.9424
90.7127
91.2801
91.6142
91.7105
91.6182
91.5004
91.5263
92.689
71.077
71.1603
71.3686
71.7042
72.1439
72.6691
73.2717
73.947
74.6903
75.4966
76.3606
77.2758
78.2341
79.2253
80.2366
81.2522
82.2526
83.2137
84.1057
84.8922
85.528
85.958
86.1161
85.9256
85.3055
84.1899
82.5758
80.6627
78.8707
79.3459
70.516
70.5912
70.7803
71.0856
71.4845
71.9585
72.4993
73.1017
73.7604
74.4694
75.2222
76.0108
76.8251
77.6524
78.4773
79.2801
80.0368
80.7171
81.2829
81.6856
81.8629
81.7336
81.1913
80.0955
78.2635
75.4673
71.4577
66.1405
59.8258
56.9384
69.9285
69.9952
70.1642
70.4381
70.7949
71.2163
71.6936
72.2214
72.7935
73.4031
74.0423
74.7015
75.3688
76.029
76.6636
77.2493
77.757
78.1497
78.3804
78.3872
78.0882
77.3715
76.0809
73.9911
70.7667
65.8913
58.5372
47.4065
30.2059
10.6722
-95.655
-94.8683
-93.1854
-90.5238
-86.8358
-82.1343
-76.5204
-70.1137
-63.1216
-55.8711
-48.6923
-41.8649
-35.5943
-30.0016
-25.1309
-20.9666
-17.4535
-14.5151
-12.0673
-10.028
-8.32234
-6.8852
-5.66158
-4.60602
-3.68125
-2.85686
-2.1078
-1.41324
-0.755538
-0.119252
-96.4779
-95.6904
-94.0037
-91.3186
-87.5799
-82.8066
-77.1077
-70.6189
-63.5321
-56.1872
-48.9269
-42.0344
-35.7149
-30.0873
-25.1924
-21.0116
-17.4873
-14.5411
-12.0876
-10.0439
-8.33478
-6.89481
-5.66892
-4.61155
-3.68543
-2.8601
-2.11051
-1.41572
-0.757783
-0.118532
-98.1332
-97.3606
-95.6718
-92.9446
-89.1075
-84.1832
-78.292
-71.613
-64.3091
-56.7373
-49.2839
-42.2425
-35.8182
-30.1232
-25.1894
-20.9893
-17.4579
-14.5112
-12.0605
-10.0207
-8.31538
-6.87873
-5.6556
-4.60054
-3.67644
-2.853
-2.10531
-1.41249
-0.756492
-0.118092
-100.672
-99.9371
-98.271
-95.5057
-91.5319
-86.3752
-80.1705
-73.1657
-65.526
-57.5814
-49.8098
-42.5286
-35.9397
-30.1426
-25.1532
-20.9285
-17.3911
-14.4483
-12.0054
-9.97432
-8.277
-6.84714
-5.62956
-4.57906
-3.65887
-2.83898
-2.09474
-1.40546
-0.753172
-0.118246
-104.151
-103.514
-101.937
-99.1772
-95.0518
-89.5825
-82.9289
-75.4058
-67.2753
-58.8026
-50.5484
-42.9152
-36.0899
-30.1494
-25.0842
-20.8279
-17.2849
-14.3496
-11.9196
-9.90218
-8.21731
-6.79797
-5.58905
-4.54572
-3.63163
-2.81724
-2.07825
-1.39428
-0.747623
-0.118538
-108.679
-108.25
-106.897
-104.255
-100.012
-94.1533
-86.8711
-78.5795
-69.7201
-60.508
-51.5596
-43.4344
-36.286
-30.1539
-24.9897
-20.6936
-17.1446
-14.22
-11.8071
-9.80752
-8.13885
-6.73322
-5.53561
-4.50166
-3.59561
-2.78845
-2.05635
-1.37934
-0.740114
-0.11899
-114.433
-114.401
-113.517
-111.217
-106.984
-100.669
-92.4978
-83.0672
-73.1039
-62.8393
-52.918
-44.1222
-36.5453
-30.1653
-24.8761
-20.531
-16.9748
-14.0633
-11.671
-9.69282
-8.04346
-6.65419
-5.47015
-4.44755
-3.55128
-2.75296
-2.02934
-1.36089
-0.730789
-0.1196
-121.674
-122.378
-122.373
-120.799
-116.833
-109.996
-100.521
-89.383
-77.7223
-65.9295
-54.6961
-45.0092
-36.8809
-30.1907
-24.7493
-20.3455
-16.7809
-13.8843
-11.5152
-9.56108
-7.93339
-6.56255
-5.3939
-4.38427
-3.4993
-2.7113
-1.99759
-1.3392
-0.719825
-0.120406
-130.898
-132.812
-134.287
-134.014
-130.642
-123.099
-111.669
-97.9983
-83.8155
-69.8456
-56.9137
-46.1008
-37.2928
-30.2313
-24.6124
-20.142
-16.568
-13.6877
-11.3436
-9.41532
-7.8109
-6.45993
-5.30802
-4.31269
-3.44033
-2.66395
-1.96149
-1.31456
-0.707394
-0.121441
-142.708
-146.386
-150.082
-151.794
-149.248
-140.554
-126.241
-109.021
-91.3522
-74.4731
-59.5084
-47.3554
-37.7574
-30.2774
-24.4646
-19.9238
-16.3407
-13.4778
-11.1599
-9.25838
-7.67806
-6.34784
-5.21363
-4.23363
-3.37498
-2.61138
-1.92142
-1.28724
-0.693658
-0.122733
-157.212
-163.195
-169.847
-174.219
-172.391
-161.736
-143.566
-121.844
-99.8666
-79.5017
-62.2759
-48.6584
-38.2178
-30.3055
-24.2995
-19.692
-16.1026
-13.2585
-10.9673
-9.09265
-7.53664
-6.22755
-5.11164
-4.14776
-3.30377
-2.55403
-1.8777
-1.25749
-0.678762
-0.124291
-173.395
-181.791
-191.893
-199.429
-197.929
-184.459
-161.75
-135.069
-108.293
-84.3922
-64.8586
-49.8137
-38.581
-30.2772
-24.1044
-19.4445
-15.8552
-13.032
-10.7677
-8.91969
-7.38777
-6.0999
-5.0027
-4.05562
-3.22715
-2.49225
-1.83063
-1.22552
-0.662828
-0.126108
-187.519
-198.198
-211.832
-222.464
-221.423
-205.471
-177.946
-146.278
-115.202
-88.2369
-66.7537
-50.5666
-38.7297
-30.1435
-23.8612
-19.1757
-15.5973
-12.7985
-10.5616
-8.73983
-7.23174
-5.96515
-4.88705
-3.95743
-3.14535
-2.42627
-1.78042
-1.19151
-0.645949
-0.128167
-193.943
-207.465
-225.143
-238.737
-238.163
-219.672
-188.304
-152.758
-118.85
-90.0224
-67.4367
-50.6606
-38.5465
-29.8537
-23.5485
-18.8764
-15.3247
-12.5558
-10.3477
-8.55235
-7.06813
-5.82306
-4.76459
-3.85319
-3.0584
-2.35616
-1.72713
-1.15549
-0.628115
-0.130377
-192.091
-207.133
-229.613
-245.15
-243.961
-222.773
-189.408
-152.54
-118.014
-89.038
-66.5337
-49.9088
-37.9393
-29.3614
-23.1415
-18.5326
-15.0294
-12.2992
-10.1236
-8.35632
-6.89684
-5.67404
-4.63597
-3.74364
-2.96704
-2.28257
-1.67132
-1.11788
-0.60959
-0.132804
69.3052
69.3631
69.5111
69.7523
70.0654
70.4323
70.8441
71.2949
71.7777
72.2849
72.8073
73.3337
73.8502
74.3393
74.7794
75.1435
75.3975
75.498
75.3889
74.9956
74.2167
72.9106
70.8715
67.7871
63.1573
56.1218
45.0397
26.318
-11.7111
-121.927
68.6393
68.6878
68.8139
69.021
69.2886
69.599
69.9431
70.3141
70.7049
71.1065
71.5089
71.8991
72.2614
72.5761
72.8187
72.9587
72.9578
72.7668
72.3219
71.5381
70.2995
68.4428
65.7295
61.7956
56.0554
47.5039
34.2833
13.0467
-19.8482
-69.9415
67.936
67.975
68.0784
68.2503
68.4712
68.7238
68.9986
69.2886
69.5857
69.8805
70.1615
70.4147
70.6226
70.7634
70.8104
70.7303
70.4813
70.0103
69.2486
68.1055
66.4586
64.1386
60.9055
56.409
50.1294
41.3002
28.8566
11.5438
-10.5215
-36.9797
67.1971
67.2263
67.3065
67.4425
67.6161
67.8101
68.015
68.2233
68.4264
68.6142
68.7744
68.8917
68.9472
68.9178
68.775
68.4837
68.0003
67.2697
66.2219
64.7662
62.7834
60.1149
56.5476
51.795
45.4797
37.131
26.2242
12.1715
-5.49691
-27.4116
66.4243
66.4436
66.5005
66.6004
66.7263
66.8616
66.9965
67.1235
67.2333
67.3154
67.3567
67.3411
67.2489
67.056
66.7331
66.2443
65.5457
64.583
63.2884
61.5763
59.3388
56.4387
52.7029
47.9167
41.822
34.1222
24.4961
12.5752
-2.00618
-18.9363
65.6201
65.6295
65.6631
65.7269
65.8053
65.8823
65.9482
65.9949
66.0133
65.9922
65.9182
65.7748
65.5417
65.1947
64.7045
64.0356
63.1457
61.9832
60.4855
58.5763
56.1631
53.1343
49.3573
44.6787
38.9277
31.924
23.4968
13.5159
1.95262
-10.6568
64.7873
64.787
64.7975
64.8256
64.8572
64.8769
64.8752
64.8438
64.7735
64.6531
64.4688
64.2043
63.8393
63.35
62.7079
61.8794
60.8247
59.4971
57.841
55.7918
53.2739
50.2013
46.4779
42.001
36.6676
30.386
23.0953
14.7938
5.5553
-4.2341
63.9291
63.9192
63.9071
63.9003
63.8863
63.8504
63.7832
63.6767
63.5215
63.3067
63.0186
62.6411
62.1548
61.5368
60.7602
59.7941
58.6027
57.1447
55.3735
53.2361
50.6741
47.6247
44.0228
39.8056
34.9196
29.3297
23.0333
16.0738
8.54589
0.734562
63.049
63.03
62.9959
62.9553
62.8972
62.8079
62.6782
62.5002
62.2649
61.9616
61.5773
61.0964
60.5007
59.7688
58.8762
57.7952
56.4947
54.9399
53.0927
50.9121
48.3552
45.3788
41.9428
38.0134
33.5696
28.6095
23.1583
17.2767
11.0631
4.7323
62.1512
62.1233
62.0682
61.9953
61.8952
61.755
61.5662
61.3212
61.0113
60.6263
60.1541
59.5803
58.8878
58.0575
57.0677
55.8944
54.5112
52.8902
51.0016
48.8151
46.3011
43.4326
40.1878
36.5533
32.5284
28.1295
23.3947
18.3878
13.1985
7.98463
61.2399
61.2036
61.1286
61.0251
60.8853
60.6975
60.4536
60.1464
59.768
59.3089
58.7579
58.1019
57.3259
56.4129
55.3442
54.0998
52.6584
50.9982
49.0972
46.9345
44.4912
41.7528
38.7107
35.3648
31.7267
27.8216
23.6912
19.395
15.0089
10.6488
60.3198
60.2756
60.182
60.0498
59.8731
59.6411
59.3464
58.9825
58.5422
58.0168
57.3964
56.6695
55.823
54.8424
53.7123
52.4166
50.9387
49.2625
47.3727
45.2562
42.9028
40.3068
37.4688
34.3972
31.1096
27.6347
24.0127
20.2957
16.546
12.8487
59.3958
59.3445
59.2335
59.0749
58.8642
58.5918
58.251
57.8361
57.3406
56.757
56.0767
55.2899
54.3856
53.3519
52.1766
50.8471
49.3514
47.6782
45.8182
43.7641
41.5123
39.0636
36.4244
33.6077
30.6339
27.5315
24.3369
21.0943
17.8536
14.6779
58.4733
58.4153
58.2886
58.1059
57.8642
57.5554
57.1734
56.7133
56.1695
55.5358
54.8049
53.9689
53.0188
51.9453
50.7392
49.3913
47.8934
46.2386
44.422
42.4412
40.2972
37.9951
35.5449
32.9615
30.266
27.4848
24.6499
21.7977
18.9678
16.2072
57.5575
57.4936
57.3528
57.1484
56.879
56.5378
56.1195
55.62
55.0348
54.3588
53.5863
52.7111
51.7263
50.625
49.4007
48.0473
46.5599
44.9351
43.1716
41.2705
39.2361
37.0761
34.8022
32.4301
29.9798
27.4751
24.9431
22.4138
19.9183
17.4919
56.6542
56.5851
56.4317
56.208
55.9143
55.5446
55.0949
54.5618
53.9417
53.2309
52.4253
51.52
50.5105
49.392
48.1603
46.812
45.3451
43.7588
42.0546
40.2361
38.3097
36.2847
34.1732
31.9906
29.7553
27.4882
25.212
22.9511
20.73
18.5752
55.7691
55.6955
55.5311
55.2906
54.9756
54.5816
54.1052
53.5438
52.8952
52.1567
51.3254
50.3986
49.373
48.2462
47.016
45.6813
44.2422
42.7002
41.0587
39.323
37.5007
35.6017
33.6382
31.6246
29.5773
27.5143
25.4546
23.4179
21.4234
19.4911
54.9081
54.8306
54.6568
54.4019
54.0688
53.6541
53.1554
52.5711
51.8996
51.1397
50.2898
49.3486
48.3145
47.1869
45.9654
44.6506
43.2445
41.7502
40.1724
38.5176
36.7939
35.0114
33.1816
31.3177
29.4343
27.5465
25.6704
23.8216
22.0155
20.2673
54.0772
53.9965
53.8147
53.5476
53.1993
52.7676
52.2507
51.6481
50.959
50.1834
49.3209
48.3715
47.3352
46.2128
45.0053
43.7151
42.3452
40.9001
39.3853
37.8079
36.1763
34.5001
32.7902
31.0584
29.3175
27.5803
25.8601
24.1695
22.5208
20.9257
53.2825
53.1991
53.0108
52.7335
52.3727
51.9271
51.3959
50.7791
50.0771
49.2907
48.4207
47.4683
46.4348
45.3221
44.1328
42.87
41.538
40.142
38.6881
37.1835
35.6367
34.0567
32.4536
30.8379
29.2206
27.6127
26.025
24.468
22.9513
21.4841
52.5301
52.4445
52.2508
51.9653
51.5944
51.1378
50.5955
49.9683
49.2573
48.4643
47.591
46.6397
45.6129
44.5134
43.3447
42.1109
40.8171
39.4688
38.0725
36.6356
35.166
33.6724
32.1637
30.6495
29.1391
27.6419
26.1669
24.7227
23.3171
21.9572
51.8262
51.739
51.5409
51.2487
50.8698
50.4047
49.8542
49.2197
48.503
47.7067
46.8335
45.8866
44.8691
43.7849
42.6382
41.4339
40.1772
38.8743
37.5317
36.1566
34.7566
33.3396
31.914
30.4879
29.0695
27.667
26.2878
24.9389
23.6267
22.3568
51.1772
51.0886
50.887
50.5894
50.2042
49.7327
49.1764
48.5371
47.8174
47.0205
46.1499
45.2094
44.2031
43.1354
42.0111
40.8354
39.6142
38.3535
37.06
35.7405
34.4024
33.0528
31.6994
30.3493
29.0099
27.6879
26.3896
25.121
23.8872
22.6928
50.5895
50.4998
50.2952
49.9931
49.603
49.1268
48.5665
47.9244
47.2037
46.4081
45.5418
44.6092
43.6149
42.5639
41.4613
40.3129
39.1244
37.9022
36.6527
35.3825
34.0985
32.8075
31.5162
30.2311
28.9586
27.7046
26.4744
25.273
24.1047
22.9732
50.07
49.9791
49.7716
49.4656
49.0714
48.5918
48.029
47.3856
46.6653
45.8723
45.0114
44.0872
43.105
42.07
40.9878
39.8643
38.7053
37.5173
36.3063
35.079
33.8416
32.6005
31.3618
30.1315
28.915
27.7176
26.5439
25.3981
24.2839
23.2043
49.6259
49.5335
49.3226
49.0126
48.6151
48.133
47.5686
46.925
46.2059
45.4162
44.5609
43.6451
42.6742
41.654
40.5901
39.4885
38.3553
37.1966
36.0186
34.8274
33.6291
32.4296
31.2345
30.0492
28.8787
27.7276
26.5999
25.4993
24.429
23.3916
49.2653
49.1702
48.954
48.6394
48.2388
47.7549
47.1897
46.5463
45.8291
45.0429
44.193
43.2848
42.3241
41.3166
40.2683
39.1853
38.0735
36.939
35.7879
34.6261
33.4594
32.2933
31.1331
29.9837
28.8496
27.7351
26.6437
25.5788
24.543
23.5386
48.9984
48.8965
48.6726
48.3535
47.9506
47.4651
46.8991
46.256
45.5403
44.7571
43.9118
43.0099
42.0574
41.0602
40.0243
38.9558
37.8606
36.7449
35.6145
34.4751
33.3324
32.1916
31.0577
29.9352
28.8285
27.7413
26.677
25.6386
24.6286
23.6489
48.8407
48.7133
48.4737
48.151
47.7483
47.263
46.6974
46.0555
45.3418
44.5613
43.7197
42.8226
41.8761
40.8861
39.8589
38.8004
37.7168
36.6139
35.4976
34.3736
33.2471
32.1234
31.0072
29.9028
28.8145
27.7456
26.6995
25.6789
24.686
23.7227
48.8322
48.6523
48.3875
48.0579
47.6527
47.1657
46.5992
45.9574
45.2447
44.4658
43.6262
42.7318
41.7884
40.8024
39.7796
38.7264
37.6486
36.5523
35.4432
34.3268
33.2085
32.0933
30.9859
29.8906
28.8113
27.7516
26.7144
25.7026
24.7181
23.7629
-296.74
-294.025
-235.176
-112.263
-123.988
-125.77
-69.1697
-91.7312
-108.477
-54.7571
-73.359
-86.8381
-37.426
-50.0677
-59.7517
-23.6422
-32.7297
-39.9425
-13.9444
-20.6817
-26.0513
-6.67228
-11.7464
-15.82
-1.04045
-4.96687
-8.15972
3.37498
0.257463
-2.31205
6.89073
4.36153
2.24819
9.72867
7.63678
5.86478
12.0446
10.2842
8.77331
13.9515
12.4471
11.1396
15.5334
14.2297
13.0833
16.8536
15.7094
14.6924
17.9609
16.945
16.0331
18.8928
17.9813
17.1557
19.6791
18.853
18.0988
20.3433
19.5876
18.8928
20.9041
20.2068
19.5617
21.3767
20.7279
20.1245
21.7733
21.1648
20.5963
22.1039
21.5287
20.9892
22.3763
21.8283
21.3128
22.5967
22.0708
21.5747
22.7698
22.2611
21.7802
22.8994
22.4033
21.9338
22.9861
22.4986
22.0367
23.0332
22.5503
22.0922
-165.341
-196.203
-227.635
-242.355
-237.761
-213.98
-180.494
-144.953
-112.266
-85.042
-63.9085
-48.2252
-36.8462
-28.6186
-22.6029
-18.1157
-14.6896
-12.0128
-9.87742
-8.14276
-6.71114
-5.51297
-4.49727
-3.62576
-2.86899
-2.20382
-1.61179
-1.07792
-0.589986
-0.135373
-138.835
-182.03
-213.157
-223.229
-213.24
-189.877
-160.367
-129.789
-101.708
-78.1415
-59.5955
-45.5833
-35.212
-27.5658
-21.8805
-17.5842
-14.2742
-11.6733
-9.59211
-7.8991
-6.50157
-5.33266
-4.34301
-3.49536
-2.76102
-2.11748
-1.54676
-1.03438
-0.568561
-0.137758
-129.5
-158.56
-178.066
-182.227
-172.705
-155.158
-133.32
-110.167
-88.3203
-69.4592
-54.1589
-42.2288
-33.1227
-26.2195
-20.9659
-16.9245
-13.7709
-11.272
-9.26176
-7.6217
-6.26613
-5.13218
-4.17289
-3.35254
-2.64347
-2.02395
-1.47664
-0.98758
-0.545506
-0.139942
-102.035
-118.77
-131.557
-135.967
-131.699
-121.206
-106.763
-90.5884
-74.6687
-60.3534
-48.2591
-38.4502
-30.6845
-24.6051
-19.8538
-16.1221
-13.1651
-10.7963
-8.87675
-7.30343
-5.99963
-4.90781
-3.98428
-3.19542
-2.515
-1.9223
-1.40077
-0.937081
-0.520511
-0.141677
-71.1264
-82.7216
-93.1714
-98.9532
-98.5239
-92.9107
-83.8998
-73.1611
-62.057
-51.5784
-42.3052
-34.4533
-27.991
-22.7585
-18.5523
-15.1734
-12.4492
-10.2384
-8.43034
-6.93891
-5.69797
-4.65651
-3.77498
-3.02245
-2.37454
-1.81181
-1.31867
-0.882549
-0.493346
-0.142774
-48.4332
-57.1763
-65.6101
-71.2866
-72.7462
-70.332
-65.1922
-58.4311
-50.9546
-43.4886
-36.5435
-30.3966
-25.1361
-20.7298
-17.0847
-14.0869
-11.6238
-9.59578
-7.91876
-6.52441
-5.35794
-4.37571
-3.54301
-2.83216
-2.22101
-1.69169
-1.22977
-0.823588
-0.463723
-0.143002
-32.4075
-39.1134
-45.799
-50.9135
-53.3046
-52.8961
-50.3092
-46.2594
-41.3719
-36.1777
-31.0916
-26.3859
-22.1991
-18.5714
-15.4821
-12.8785
-10.6962
-8.87033
-7.34153
-6.05843
-4.97776
-4.06371
-3.28692
-2.62338
-2.0535
-1.56126
-1.13358
-0.759818
-0.431358
-0.142129
-20.7393
-26.0823
-31.5086
-36.0101
-38.7142
-39.407
-38.41
-36.1763
-33.1259
-29.6325
-26.0128
-22.5032
-19.2532
-16.3384
-13.7812
-11.5711
-9.67909
-8.06859
-6.70144
-5.5417
-4.55715
-3.71983
-3.00592
-2.39535
-1.87135
-1.41997
-1.02965
-0.690893
-0.395974
-0.139924
-12.0972
-16.4917
-20.9799
-24.8896
-27.5868
-28.8505
-28.8399
-27.8229
-26.0686
-23.8332
-21.351
-18.8148
-16.3634
-14.0837
-12.0212
-10.1912
-8.58955
-7.20091
-6.00438
-4.97731
-4.09754
-3.34455
-2.7
-2.14784
-1.67426
-1.2675
-0.917675
-0.616535
-0.357325
-0.136171
-5.5431
-9.23409
-13.0105
-16.4078
-18.9709
-20.5131
-21.1011
-20.8864
-20.0361
-18.7221
-17.1129
-15.3579
-13.5758
-11.851
-10.2377
-8.7655
-7.4463
-6.27982
-5.25837
-4.37021
-3.60184
-2.93948
-2.36997
-1.88119
-1.46229
-1.10379
-0.797512
-0.536564
-0.315221
-0.130684
-0.458409
-3.61361
-6.84524
-9.81891
-12.2045
-13.8575
-14.7971
-15.1051
-14.8814
-14.2381
-13.2926
-12.1568
-10.9267
-9.67756
-8.46356
-7.32052
-6.26934
-5.31969
-4.47336
-3.72705
-3.07437
-2.50737
-2.01752
-1.59638
-1.23598
-0.929061
-0.669219
-0.450925
-0.26954
-0.123309
3.55695
0.818772
-1.98697
-4.61318
-6.81652
-8.48789
-9.62463
-10.2679
-10.4747
-10.3153
-9.86973
-9.21931
-8.43873
-7.59104
-6.72588
-5.8798
-5.07775
-4.33517
-3.66018
-3.05559
-2.52055
-2.05189
-1.64509
-1.295
-0.996301
-0.743899
-0.53309
-0.359723
-0.220259
-0.113943
6.77531
4.36818
1.90112
-0.439693
-2.47169
-4.11237
-5.35027
-6.20353
-6.70245
-6.88943
-6.81735
-6.54381
-6.12506
-5.6118
-5.04679
-4.46411
-3.88941
-3.34081
-2.83016
-2.36437
-1.94665
-1.57755
-1.25585
-0.979209
-0.744714
-0.549226
-0.38967
-0.263231
-0.16746
-0.102547
9.38675
7.24666
5.05278
2.94787
1.07134
-0.513876
-1.79366
-2.77353
-3.46767
-3.90019
-4.10488
-4.12142
-3.99106
-3.75316
-3.44302
-3.0906
-2.72012
-2.35019
-1.99443
-1.6622
-1.35944
-1.08942
-0.85351
-0.65169
-0.48308
-0.346298
-0.23976
-0.161904
-0.11134
-0.0891363
11.5274
9.6057
7.63499
5.72664
3.98883
2.47013
1.18456
0.133267
-0.688431
-1.29295
-1.70094
-1.93894
-2.03636
-2.02291
-1.92672
-1.77303
-1.58344
-1.37565
-1.16362
-0.957867
-0.765943
-0.592992
-0.442254
-0.315543
-0.213649
-0.136692
-0.0844077
-0.0563834
-0.0522205
-0.0737914
13.2971
11.5559
9.76959
8.02628
6.41121
4.96233
3.69249
2.60612
1.70392
0.980793
0.424952
0.0193013
-0.25654
-0.424387
-0.505996
-0.521894
-0.490568
-0.427998
-0.347496
-0.259779
-0.173175
-0.093924
-0.0265497
0.0257949
0.0610076
0.077734
0.0751055
0.0525161
0.00945389
-0.0566678
14.77
13.1795
11.5471
9.94327
8.43636
7.05633
5.81451
4.71675
3.76662
2.96348
2.3014
1.76994
1.35545
1.04237
0.814345
0.655158
0.549517
0.483575
0.445223
0.4242
0.412075
0.402099
0.38898
0.368657
0.338062
0.29487
0.23728
0.163808
0.0731257
-0.0379801
16.0023
14.5388
13.0357
11.5506
10.1387
8.82422
7.61685
6.52285
5.54717
4.69176
3.95452
3.32958
2.80822
2.37972
2.03211
1.75293
1.52992
1.35145
1.20691
1.08692
0.983396
0.88953
0.799681
0.709251
0.614513
0.512421
0.400435
0.276345
0.138115
-0.0180041
17.0374
15.6814
14.2878
12.904
11.5756
10.3221
9.15185
8.07098
7.08493
6.1971
5.40774
4.71414
4.11111
3.59156
3.14702
2.7682
2.44551
2.16946
1.93105
1.722
1.53485
1.36305
1.20096
1.04374
0.887246
0.727953
0.562761
0.388875
0.20366
0.00293096
17.9089
16.6445
15.3439
14.047
12.7915
11.5938
10.4611
9.39881
8.41249
7.50624
6.68177
5.93845
5.27357
4.68275
4.16023
3.6993
3.29265
2.93277
2.6122
2.32383
2.06101
1.81769
1.58841
1.36831
1.15311
0.938938
0.722327
0.500028
0.268917
0.0244512
18.6433
17.4568
16.2355
15.013
13.8215
12.6744
11.5779
10.5369
9.55678
8.64185
7.79468
7.01596
6.30473
5.65856
5.07376
4.54567
4.06889
3.6376
3.24582
2.88755
2.55704
2.24882
1.95779
1.67927
1.40895
1.14281
0.877144
0.608369
0.332978
0.0461564
19.2614
18.1415
16.9876
15.8288
14.693
13.5913
12.5288
11.51
10.5399
9.62295
8.76201
7.95866
7.2131
6.52431
5.89015
5.30754
4.77265
4.28111
3.82817
3.40897
3.01858
2.65218
2.30515
1.97305
1.65168
1.33701
1.02519
0.712414
0.394894
0.067612
19.7799
18.7166
17.62
16.5157
15.428
14.3664
13.3351
12.3381
11.3802
10.4654
9.597
8.77699
8.00635
7.28504
6.61206
5.98557
5.40296
4.86104
4.35617
3.88444
3.44173
3.02389
2.62675
2.24622
1.87828
1.51898
1.16442
0.810659
0.453693
0.0883704
20.212
19.1965
18.1484
17.0902
16.0437
15.017
14.0137
13.0373
12.0922
11.1822
10.3107
9.47981
8.69114
7.94529
7.24209
6.58061
5.9592
5.37563
4.82719
4.31077
3.823
3.36033
2.91908
2.49551
2.08584
1.68623
1.29281
0.901574
0.508373
0.107976
20.5682
19.5927
18.5849
17.5653
16.5536
15.5569
14.5781
13.6204
12.6877
11.7839
10.912
10.0744
9.27299
8.50885
7.78239
7.09334
6.4408
5.82329
5.23884
4.68504
4.15916
3.65817
3.17886
2.71782
2.27153
1.83632
1.40837
0.983667
0.557961
0.125985
20.8567
19.9138
18.9391
17.9512
16.9682
15.9965
15.0385
14.0972
13.176
12.2785
11.4078
10.5664
9.75621
8.97866
8.23458
7.52417
6.8471
6.20247
5.58888
5.0045
4.44712
3.91419
3.40287
2.9101
2.43259
1.96683
1.50911
1.05542
0.601449
0.141937
21.0832
20.1664
19.2178
18.255
17.295
16.3435
15.4026
14.4748
13.5634
12.672
11.8033
10.9598
10.1437
9.35658
8.59945
7.87293
7.17706
6.51139
5.87497
5.2664
4.6839
4.12528
3.58807
3.06946
2.56637
2.07546
1.59312
1.11538
0.637888
0.155406
21.2524
20.355
19.426
18.4821
17.5393
16.6031
15.6752
14.7579
13.8543
12.9678
12.1011
11.2567
10.4368
9.64298
8.87659
8.13844
7.42885
6.74767
6.09428
5.46762
4.86619
4.28813
3.7312
3.19282
2.67008
2.1598
1.65842
1.16204
0.666302
0.165988
21.366
20.4816
19.5657
18.6346
17.7035
16.7778
15.8589
14.9489
14.0508
13.1679
12.3028
11.458
10.6356
9.83756
9.06512
8.31929
7.60058
6.90902
6.24422
5.60533
4.99108
4.39978
3.82939
3.27748
2.74127
2.21766
1.70319
1.19397
0.68571
0.173301
21.4261
20.5476
19.6382
18.7133
17.7879
16.8671
15.9523
15.0458
14.1503
13.269
12.4046
11.5595
10.7358
9.93548
9.15989
8.41009
7.68668
6.98982
6.31921
5.67412
5.05339
4.45544
3.87829
3.31962
2.7767
2.24644
1.72543
1.20985
0.69541
0.177215
)
;

boundaryField
{
    inlet
    {
        type            zeroGradient;
    }
    outlet
    {
        type            fixedValue;
        value           uniform 0;
    }
    flap
    {
        type            zeroGradient;
    }
    upperWall
    {
        type            zeroGradient;
    }
    lowerWall
    {
        type            zeroGradient;
    }
    frontAndBack
    {
        type            empty;
    }
}


// ************************************************************************* //
