/*--------------------------------*- C++ -*----------------------------------*\
| =========                 |                                                 |
| \\      /  F ield         | OpenFOAM: The Open Source CFD Toolbox           |
|  \\    /   O peration     | Version:  dev                                   |
|   \\  /    A nd           | Web:      www.OpenFOAM.org                      |
|    \\/     M anipulation  |                                                 |
\*---------------------------------------------------------------------------*/
FoamFile
{
    version     2.0;
    format      ascii;
    class       volVectorField;
    location    "0.05";
    object      Force;
}
// * * * * * * * * * * * * * * * * * * * * * * * * * * * * * * * * * * * * * //

dimensions      [1 1 -2 0 0 0 0];

internalField   uniform (0 0 0);

boundaryField
{
    inlet
    {
        type            calculated;
        value           nonuniform 0();
    }
    outlet
    {
        type            calculated;
        value           nonuniform 0();
    }
    flap
    {
        type            calculated;
        value           nonuniform List<vector> 
33
(
(2.52678 -1.26117e-23 -0.0934978)
(2.53397 1.62562e-17 0.0300579)
(2.52171 1.6316e-17 -0.00252211)
(2.5066 -1.53077e-24 0.000900901)
(2.48573 1.63148e-17 0.00250014)
(2.45332 -1.63059e-17 0.00176824)
(2.4115 4.64901e-24 0.00372994)
(2.35752 1.63144e-17 0.00430089)
(2.28432 -7.65485e-24 0.00358894)
(2.18868 1.62982e-17 0.00640817)
(2.05935 -1.63282e-17 0.00753373)
(1.87332 1.97969e-20 0.00800275)
(1.59604 1.63259e-17 0.0114226)
(1.11355 -1.86101e-22 0.0140408)
(0.154349 1.21976e-20 0.0113637)
(-0.66091 1.06391e-17 3.31869)
(0.0925182 -5.18665e-23 3.32494)
(0.649544 -3.54015e-18 2.71335)
(1.80798 1.00589e-23 -0.0361015)
(1.82736 -1.63575e-17 0.0116749)
(1.86335 5.24128e-25 -0.00342626)
(1.92009 -5.07986e-21 -0.000362356)
(1.99626 -1.07873e-24 -0.00223217)
(2.09713 -1.62627e-17 -0.00361287)
(2.22475 -4.79266e-40 -0.00108672)
(2.38412 1.62396e-17 -0.00550229)
(2.5893 1.08622e-24 -0.00722581)
(2.85626 3.26417e-17 -0.00458753)
(3.1974 2.62292e-25 -0.0185792)
(3.60876 -1.15165e-23 -0.0263672)
(4.00975 1.14001e-23 -0.0194981)
(4.24704 1.675e-23 -0.154925)
(4.2862 1.56797e-22 0.290433)
)
;
    }
    upperWall
    {
        type            calculated;
        value           nonuniform 0();
    }
    lowerWall
    {
        type            calculated;
        value           uniform (0 0 0);
    }
    frontAndBack
    {
        type            empty;
    }
    procBoundary4to1
    {
        type            processor;
        value           uniform (0 0 0);
    }
    procBoundary4to2
    {
        type            processor;
        value           uniform (0 0 0);
    }
    procBoundary4to3
    {
        type            processor;
        value           uniform (0 0 0);
    }
    procBoundary4to5
    {
        type            processor;
        value           uniform (0 0 0);
    }
}


// ************************************************************************* //
