/*--------------------------------*- C++ -*----------------------------------*\
| =========                 |                                                 |
| \\      /  F ield         | OpenFOAM: The Open Source CFD Toolbox           |
|  \\    /   O peration     | Version:  dev                                   |
|   \\  /    A nd           | Web:      www.OpenFOAM.org                      |
|    \\/     M anipulation  |                                                 |
\*---------------------------------------------------------------------------*/
FoamFile
{
    version     2.0;
    format      ascii;
    class       volVectorField;
    location    "1.18";
    object      U;
}
// * * * * * * * * * * * * * * * * * * * * * * * * * * * * * * * * * * * * * //

dimensions      [0 1 -1 0 0 0 0];

internalField   nonuniform List<vector> 
465
(
(9.96953 2.6951e-18 3.71769)
(10.1498 -1.30886e-18 3.67632)
(10.2547 -4.87619e-21 4.00096)
(10.3861 -1.25891e-18 4.33667)
(10.3167 0 3.61725)
(10.4308 6.29648e-19 3.91997)
(10.5676 6.09367e-19 4.22874)
(10.7277 0 4.53667)
(10.9111 -1.08186e-18 4.83427)
(10.4701 1.63702e-20 3.54264)
(10.5904 -1.18036e-18 3.8236)
(10.7304 -2.89317e-19 4.10688)
(10.8899 2.56606e-19 4.38633)
(11.0685 1.17973e-18 4.65417)
(11.2637 6.58822e-21 4.90264)
(11.4712 -5.55204e-19 5.12387)
(10.6101 1.16871e-18 3.4545)
(10.7347 1.15899e-18 3.71444)
(10.8762 -1.13507e-18 3.97409)
(11.0342 0 4.2282)
(11.2077 -1.11437e-18 4.47066)
(11.3938 5.65889e-19 4.6958)
(11.5891 1.65919e-18 4.89864)
(11.7846 -1.62362e-18 5.07426)
(11.999 -5.09365e-19 5.22591)
(10.737 -8.40331e-19 3.35454)
(10.8646 8.31446e-19 3.59462)
(11.0067 1.11833e-18 3.83265)
(11.1628 0 4.06441)
(11.3311 1.10229e-18 4.28518)
(11.5092 0 4.4907)
(11.694 5.26855e-19 4.6777)
(11.8793 -1.10002e-18 4.84321)
(12.0818 -1.072e-18 4.98826)
(10.8517 5.54625e-19 3.24422)
(10.9813 -1.63679e-18 3.46579)
(11.1234 0 3.68421)
(11.2771 0 3.89621)
(11.4409 0 4.09828)
(11.612 0 4.28714)
(11.7882 -1.05754e-18 4.46047)
(11.9646 1.60588e-18 4.61661)
(12.1576 -1.09308e-18 4.75601)
(10.9548 5.33173e-19 3.12484)
(11.0859 5.32806e-19 3.32927)
(11.2275 0 3.52997)
(11.3788 5.23487e-19 3.7244)
(11.5383 -5.33906e-19 3.91004)
(11.7037 0 4.08445)
(11.8728 5.27144e-19 4.24587)
(12.042 -5.14698e-19 4.39326)
(12.2272 1.07705e-18 4.52704)
(11.0475 4.05857e-21 2.9975)
(11.1795 2.58503e-19 3.1861)
(11.3204 2.63678e-19 3.37075)
(11.4693 5.22186e-19 3.54949)
(11.6248 0 3.72046)
(11.7853 1.02518e-18 3.88194)
(11.9487 -2.07617e-18 4.03262)
(12.112 1.05116e-18 4.17173)
(12.2909 -2.62081e-19 4.29975)
(11.1306 2.49092e-19 2.86313)
(11.2629 -7.59155e-19 3.03703)
(11.403 -3.49085e-21 3.20705)
(11.5496 0 3.37164)
(11.7018 -5.02198e-19 3.5294)
(11.8579 5.82873e-21 3.67907)
(12.0166 -1.51865e-18 3.81974)
(12.1751 7.77305e-19 3.95086)
(12.349 2.57526e-19 4.07291)
(11.2046 0 2.72244)
(11.3371 0 2.88268)
(11.4761 -4.94423e-19 3.03924)
(11.6207 0 3.1909)
(11.7698 9.83784e-19 3.33654)
(11.9223 -1.49338e-18 3.47528)
(12.077 1.25927e-18 3.60646)
(12.2316 1.24469e-18 3.72973)
(12.4013 -2.02262e-18 3.84555)
(11.1443 4.74658e-19 2.42616)
(11.2703 4.74188e-19 2.57603)
(11.4025 -4.74863e-19 2.72353)
(11.5404 9.64238e-19 2.86759)
(11.6831 0 3.00723)
(11.8297 0 3.1416)
(11.9791 0 3.27005)
(12.1303 -5.65642e-22 3.39214)
(12.2816 0 3.50762)
(12.4478 0 3.61696)
(11.2016 6.8428e-19 2.28662)
(11.3279 -9.31148e-19 2.42438)
(11.4598 -2.05259e-21 2.55986)
(11.5966 -1.41189e-18 2.69219)
(11.7376 0 2.82055)
(11.8818 0 2.9443)
(12.0286 0 3.06297)
(12.1769 -2.40413e-19 3.17626)
(12.3253 0 3.28398)
(12.4884 0 3.38662)
(11.2519 -4.25766e-21 2.14174)
(11.3782 -5.73967e-21 2.26792)
(11.5096 -4.55279e-19 2.39196)
(11.6452 4.59353e-19 2.51313)
(11.7845 2.30184e-19 2.63079)
(11.9267 0 2.74445)
(12.0711 -9.27083e-19 2.85374)
(12.2168 9.47987e-19 2.95844)
(12.3627 -2.36346e-19 3.05841)
(12.5231 9.44901e-19 3.15415)
(11.2954 0 1.99191)
(11.4216 0 2.107)
(11.5522 1.10628e-18 2.22007)
(11.6867 6.60829e-19 2.33057)
(11.8243 -1.13289e-18 2.43799)
(11.9646 0 2.54193)
(12.1067 -6.78707e-19 2.64212)
(12.2502 1.84017e-18 2.73838)
(12.3938 1.0122e-19 2.8306)
(12.5517 -9.42637e-19 2.91929)
(11.3322 -4.21826e-19 1.8375)
(11.458 5.15338e-21 1.94189)
(11.5878 2.18274e-19 2.04442)
(11.7211 -4.3616e-19 2.14464)
(11.8572 0 2.24217)
(11.9956 8.80134e-19 2.33668)
(12.1357 -1.12343e-18 2.42796)
(12.277 0 2.51587)
(12.4186 1.13388e-19 2.60032)
(12.5742 0 2.6818)
(11.3625 4.1079e-19 1.67882)
(11.4878 -1.24941e-18 1.77283)
(11.6167 1.0582e-18 1.86514)
(11.7487 8.45987e-19 1.95539)
(11.8833 -1.13526e-20 2.04329)
(12.02 -1.73116e-18 2.12858)
(12.1582 8.78864e-19 2.21109)
(12.2975 9.83159e-19 2.29071)
(12.4372 -1.00367e-18 2.36735)
(12.5906 -8.86813e-19 2.44152)
(11.3867 -2.037e-19 1.51612)
(11.5113 0 1.59999)
(11.6393 -1.02232e-18 1.68232)
(11.77 2.18072e-19 1.76285)
(11.9032 1.05177e-18 1.84132)
(12.0382 0 1.91754)
(12.1746 -9.5295e-19 1.99138)
(12.3121 7.57905e-19 2.06275)
(12.4499 -8.60121e-19 2.13156)
(12.6012 8.81368e-19 2.19832)
(11.4054 1.97513e-19 1.34955)
(11.5292 -7.87609e-19 1.42345)
(11.6561 8.05175e-19 1.496)
(11.7856 -8.03846e-19 1.56697)
(11.9173 6.17289e-19 1.63618)
(12.0506 -1.02956e-19 1.70346)
(12.1854 2.08043e-19 1.7687)
(12.321 8.33642e-19 1.83183)
(12.457 -7.46404e-19 1.8928)
(12.6063 0 1.95207)
(11.4189 -1.88934e-19 1.17942)
(11.5418 3.87848e-19 1.24349)
(11.6676 -1.94757e-19 1.30639)
(11.7958 -9.84231e-20 1.36794)
(11.9259 0 1.42798)
(12.0577 1.0065e-19 1.48639)
(12.1907 -1.00956e-18 1.54309)
(12.3246 8.24598e-19 1.59802)
(12.4588 -5.16315e-20 1.65112)
(12.6061 -8.27684e-19 1.70283)
(11.4276 -5.37048e-22 1.00559)
(11.5495 0 1.05993)
(11.6741 9.53558e-20 1.11327)
(11.8009 9.61403e-20 1.16548)
(11.9295 0 1.21643)
(12.0597 -7.79184e-19 1.26603)
(12.191 8.95665e-19 1.3142)
(12.3231 0 1.3609)
(12.4556 5.04334e-20 1.40609)
(12.6009 -7.56898e-19 1.45016)
(11.4317 -9.06963e-20 0.828865)
(11.5525 0 0.873504)
(11.6758 1.954e-22 0.917335)
(11.8011 9.34366e-20 0.960244)
(11.9283 0 1.00214)
(12.0568 -7.59331e-19 1.04295)
(12.1864 1.54312e-18 1.08261)
(12.3167 -9.78991e-21 1.12109)
(12.4474 -7.42219e-19 1.15836)
(12.5907 -4.96637e-20 1.19475)
(11.4317 -8.80206e-20 0.648036)
(11.5512 -2.65098e-19 0.682976)
(11.6731 4.52096e-19 0.717279)
(11.797 3.61919e-19 0.750861)
(11.9225 -7.82098e-19 0.783652)
(12.0494 3.74123e-19 0.815597)
(12.1773 0 0.846652)
(12.306 0 0.876788)
(12.435 -8.0912e-19 0.905979)
(12.5764 7.54591e-19 0.934502)
(11.4277 8.54816e-20 0.465785)
(11.5458 -1.29889e-19 0.491027)
(11.6661 -3.48388e-19 0.515823)
(11.7884 2.67565e-19 0.540115)
(11.9122 4.00886e-19 0.563853)
(12.0374 -3.6403e-19 0.586997)
(12.1635 0 0.609518)
(12.2903 0 0.631394)
(12.4174 -2.33007e-20 0.652609)
(12.5567 6.57965e-24 0.673375)
(11.4201 -8.32057e-20 0.277342)
(11.5366 4.21021e-20 0.292618)
(11.6554 0 0.307602)
(11.776 2.15234e-20 0.322261)
(11.8982 2.17598e-20 0.336568)
(12.0216 3.49794e-19 0.350502)
(12.146 -4.19785e-21 0.36405)
(12.2711 -3.6115e-19 0.377202)
(12.3966 1.13311e-20 0.389954)
(12.5341 2.28873e-20 0.402453)
(11.2257 0 0.0929188)
(11.3383 0 0.0985405)
(11.4533 0 0.104058)
(11.5705 -2.10061e-20 0.109455)
(11.6893 -2.12362e-20 0.11472)
(11.8096 8.53464e-20 0.119844)
(11.931 -8.72354e-20 0.124817)
(12.0533 8.70762e-20 0.129632)
(12.1761 -7.79403e-20 0.13428)
(12.3108 0 0.138811)
(12.1173 2.73683e-19 5.29445)
(12.1932 -1.97827e-19 5.05529)
(12.2956 1.99299e-18 5.11451)
(12.38 1.80866e-18 5.16959)
(12.2638 2.30962e-19 4.82154)
(12.3617 1.15358e-19 4.88068)
(12.4427 1.13122e-19 4.93656)
(12.3293 -1.13155e-19 4.59075)
(12.4237 5.62675e-22 4.6492)
(12.5021 -1.1105e-19 4.70508)
(12.3897 1.7832e-18 4.36131)
(12.4813 -1.91603e-18 4.41851)
(12.5578 -1.74985e-18 4.47365)
(12.445 2.13595e-22 4.13202)
(12.5344 1.10321e-19 4.18748)
(12.6093 0 4.24125)
(12.4951 3.26046e-18 3.90194)
(12.5826 -1.90669e-18 3.95526)
(12.6562 -1.6977e-18 4.00715)
(12.5396 1.06732e-19 3.6704)
(12.6256 -7.54858e-23 3.72125)
(12.698 -1.61687e-18 3.77086)
(12.5786 0 3.43693)
(12.6631 5.21555e-20 3.48502)
(12.7345 1.58842e-18 3.53205)
(12.6117 -3.28921e-18 3.20118)
(12.695 3.27587e-18 3.24631)
(12.7654 -1.62337e-18 3.29048)
(12.6389 0 2.96291)
(12.7209 0 3.00491)
(12.7904 -4.9525e-20 3.04603)
(12.66 -1.62024e-18 2.72193)
(12.741 1.57864e-18 2.76065)
(12.8096 -1.49869e-18 2.79857)
(12.6752 1.55289e-18 2.47807)
(12.755 1.50655e-18 2.51341)
(12.8228 -1.52683e-18 2.548)
(12.6846 1.55212e-18 2.23123)
(12.7634 -2.98394e-18 2.26311)
(12.8303 1.49411e-18 2.2943)
(12.6885 1.47151e-18 1.98129)
(12.7662 -1.49899e-18 2.00963)
(12.8323 1.42824e-18 2.03734)
(12.687 1.45069e-18 1.72834)
(12.7637 2.24271e-20 1.75308)
(12.829 1.44059e-18 1.77727)
(12.6807 1.4163e-18 1.47189)
(12.7563 1.37393e-18 1.49298)
(12.8207 -1.41634e-18 1.51358)
(12.6693 0 1.21271)
(12.7439 2.13554e-20 1.23013)
(12.8075 4.23761e-20 1.24713)
(12.6538 1.0479e-20 0.948551)
(12.7273 1.31673e-18 0.962176)
(12.79 -1.33709e-18 0.975466)
(12.6329 -1.02057e-20 0.683602)
(12.7055 -6.62111e-26 0.693501)
(12.7674 -1.00595e-20 0.703137)
(12.6092 -6.32477e-19 0.408554)
(12.6806 1.27118e-18 0.414403)
(12.7415 -6.28324e-19 0.420087)
(12.3845 0 0.140977)
(12.4546 1.53677e-19 0.143027)
(12.5146 -1.53703e-19 0.145042)
(12.526 -2.05788e-18 5.26618)
(12.5838 -2.55876e-19 5.03869)
(12.7299 -3.66581e-19 5.13372)
(12.8868 0 5.21996)
(13.0366 -5.62475e-20 5.2966)
(12.6398 1.24801e-18 4.80969)
(12.7847 9.71579e-20 4.91056)
(12.9444 -1.9843e-18 5.0068)
(13.1037 9.10484e-19 5.09795)
(13.2538 8.51042e-19 5.18439)
(13.3924 -8.16044e-19 5.26674)
(12.6929 1.00579e-18 4.57854)
(12.8366 0 4.68167)
(12.9976 9.09416e-19 4.78256)
(13.1619 -9.54828e-19 4.88089)
(13.3224 8.40936e-19 4.97714)
(13.4779 -2.30095e-20 5.07207)
(13.628 -7.98411e-19 5.16609)
(13.7714 0 5.25914)
(12.7423 -1.22853e-19 4.34473)
(12.885 0 4.44771)
(13.0464 1.13347e-19 4.54986)
(13.2136 5.44626e-20 4.65088)
(13.3801 2.64075e-20 4.7512)
(13.5457 -1.26918e-20 4.85166)
(13.7107 0 4.95286)
(13.8748 6.39806e-19 5.05501)
(14.0368 -1.42619e-18 5.15779)
(12.7874 1.09503e-18 4.1079)
(12.9291 -1.16624e-19 4.20897)
(13.0904 0 4.3101)
(13.2592 0 4.4109)
(13.4293 2.07655e-22 4.51171)
(13.601 1.23988e-20 4.61327)
(13.7751 -4.80541e-20 4.71628)
(13.9519 1.83457e-19 4.82111)
(14.131 0 4.92775)
(12.8277 9.57791e-19 3.86782)
(12.9684 -7.92503e-19 3.96566)
(13.1292 8.92919e-19 4.06413)
(13.2987 -5.32759e-20 4.16274)
(13.471 -8.32796e-19 4.26168)
(13.6463 7.95919e-19 4.36158)
(13.8259 9.42798e-20 4.46305)
(14.0103 -9.00023e-20 4.56654)
(14.1996 8.70082e-20 4.67221)
(12.8628 -9.40449e-19 3.62439)
(13.0024 0 3.71797)
(13.1625 -9.13826e-19 3.81256)
(13.3321 7.14259e-20 3.90757)
(13.5054 8.01896e-19 4.00306)
(13.6828 6.06381e-21 4.09949)
(13.8656 -4.62611e-20 4.19739)
(14.0544 -4.47279e-20 4.29714)
(14.2496 -6.71667e-19 4.39898)
(12.8923 0 3.37758)
(13.0307 0 3.4661)
(13.1899 -7.38266e-19 3.55587)
(13.3591 8.31633e-19 3.64625)
(13.5328 1.23359e-20 3.73715)
(13.7111 -5.92972e-21 3.82893)
(13.8955 0 3.92198)
(14.0868 4.37015e-20 4.01659)
(14.2851 -8.37141e-20 4.11301)
(12.9161 -5.6149e-20 3.12736)
(13.0533 8.06381e-19 3.21023)
(13.2113 -8.98787e-19 3.29447)
(13.3797 -2.52948e-20 3.37943)
(13.553 1.2182e-20 3.46493)
(13.7315 0 3.55122)
(13.9166 0 3.63857)
(14.1089 0 3.7272)
(14.3087 6.52628e-19 3.8173)
(12.9339 6.71137e-20 2.87375)
(13.0698 6.64151e-20 2.9505)
(13.2265 8.30234e-19 3.02868)
(13.3938 -7.33402e-23 3.10762)
(13.5664 -7.67802e-19 3.18711)
(13.7445 7.4393e-19 3.26729)
(13.9294 0 3.34836)
(14.1217 6.70413e-19 3.43047)
(14.3219 -1.30275e-18 3.51373)
(12.9459 0 2.61673)
(13.0804 -8.27849e-19 2.68701)
(13.2355 8.13739e-19 2.75872)
(13.4015 2.42852e-20 2.83121)
(13.573 0 2.90422)
(13.7502 -7.14109e-19 2.97784)
(13.9343 1.36755e-18 3.05222)
(14.1261 -6.75857e-19 3.12742)
(14.3258 6.31653e-19 3.20352)
(12.9521 0 2.35635)
(13.0851 0 2.41989)
(13.2386 7.83217e-19 2.48482)
(13.4031 -7.69975e-19 2.55052)
(13.5731 -2.87589e-21 2.61671)
(13.749 7.00727e-19 2.68344)
(13.932 -6.68266e-19 2.75081)
(14.1227 -4.1046e-20 2.81885)
(14.3213 -6.20631e-19 2.88759)
(12.9527 -1.01495e-20 2.09255)
(13.0842 -8.04892e-19 2.14915)
(13.236 0 2.20707)
(13.3987 -7.39905e-19 2.2657)
(13.5672 1.98634e-20 2.3248)
(13.7415 7.12374e-19 2.38438)
(13.923 0 2.44449)
(14.1122 4.00936e-20 2.50515)
(14.3094 6.09223e-19 2.56636)
(12.948 -7.86033e-19 1.8255)
(13.078 -2.44502e-20 1.87501)
(13.2279 0 1.92573)
(13.3888 0 1.97711)
(13.5554 -7.01801e-19 2.0289)
(13.728 6.76148e-19 2.08111)
(13.9077 2.04911e-20 2.13377)
(14.0952 -6.61903e-19 2.18688)
(14.2906 5.74801e-19 2.24041)
(12.9383 -4.92111e-20 1.5547)
(13.0667 7.82498e-19 1.59697)
(13.2147 -7.6845e-19 1.64032)
(13.3736 0 1.68426)
(13.5384 6.72887e-22 1.72856)
(13.7091 0 1.77322)
(13.8868 -4.00484e-20 1.81824)
(14.0724 7.70782e-20 1.86363)
(14.2658 3.69734e-20 1.90935)
(12.9237 4.80181e-20 1.28108)
(13.0505 -7.40634e-19 1.31602)
(13.1966 7.38879e-19 1.35189)
(13.3535 -6.91719e-19 1.38827)
(13.5163 1.34803e-18 1.42495)
(13.685 -6.46095e-19 1.46192)
(13.8608 1.95544e-20 1.4992)
(14.0442 -3.76401e-20 1.53676)
(14.2356 -6.0884e-19 1.57458)
(12.9047 -2.34023e-20 1.00206)
(13.0299 0 1.02949)
(13.1741 1.10029e-20 1.05768)
(13.329 0 1.08627)
(13.4898 -1.92631e-21 1.1151)
(13.6565 -9.90475e-21 1.14416)
(13.8302 5.95589e-19 1.17345)
(14.0115 -5.95325e-19 1.20295)
(14.2008 3.53492e-20 1.23265)
(12.8808 0 0.722398)
(13.0043 0 0.742337)
(13.1466 5.36189e-21 0.762855)
(13.2995 0 0.783663)
(13.4583 1.25069e-21 0.804647)
(13.6229 -4.83329e-21 0.825803)
(13.7945 9.31016e-21 0.847132)
(13.9737 5.67986e-19 0.868615)
(14.1608 -1.30677e-20 0.890234)
(12.8532 -3.52676e-19 0.431536)
(12.975 3.51763e-19 0.443537)
(13.1153 -2.60516e-21 0.455894)
(13.2662 -3.21147e-19 0.468388)
(13.423 3.14395e-19 0.480965)
(13.5856 2.34723e-21 0.493636)
(13.7551 4.53718e-21 0.506402)
(13.9322 2.76464e-19 0.51925)
(14.1172 -2.72073e-19 0.532167)
(12.6245 0 0.149216)
(12.744 -1.72306e-19 0.153675)
(12.8818 3.23204e-19 0.15825)
(13.0302 -1.57605e-19 0.162858)
(13.1845 0 0.167491)
(13.3446 2.2949e-21 0.172156)
(13.5117 -4.42719e-21 0.176851)
(13.6863 1.35103e-19 0.181571)
(13.8688 -2.62864e-19 0.186309)
)
;

boundaryField
{
    inlet
    {
        type            fixedValue;
        value           nonuniform 0();
    }
    outlet
    {
        type            zeroGradient;
    }
    flap
    {
        type            movingWallVelocity;
        value           nonuniform 0();
    }
    upperWall
    {
        type            noSlip;
    }
    lowerWall
    {
        type            noSlip;
    }
    frontAndBack
    {
        type            empty;
    }
    procBoundary1to0
    {
        type            processor;
        value           nonuniform List<vector> 
18
(
(11.0066 0 2.68698)
(11.0795 2.41446e-19 2.55982)
(11.0795 2.41446e-19 2.55982)
(11.0253 1.16507e-19 2.27503)
(11.0815 -1.14008e-18 2.14751)
(11.131 -2.20283e-19 2.01415)
(11.1741 7.32235e-21 1.87541)
(11.2108 2.29591e-21 1.73173)
(11.2413 4.09949e-19 1.5835)
(11.2658 -1.97232e-19 1.43105)
(11.2849 5.80408e-19 1.27456)
(11.2991 -1.88177e-19 1.11439)
(11.3086 1.83746e-19 0.950445)
(11.3138 0 0.783557)
(11.3149 0 0.612567)
(11.3121 -8.44256e-20 0.440174)
(11.306 8.21882e-20 0.261816)
(11.1159 8.05131e-20 0.0872121)
)
;
    }
    procBoundary1to2
    {
        type            processor;
        value           nonuniform List<vector> 
17
(
(14.1954 -2.28375e-20 5.26033)
(14.3118 0 5.03573)
(14.3938 6.51383e-19 4.7799)
(14.4514 -5.81282e-19 4.50296)
(14.491 -7.13232e-19 4.21132)
(14.5164 1.26719e-18 3.90895)
(14.5302 -1.24727e-18 3.5982)
(14.5337 0 3.28054)
(14.5282 -6.11282e-19 2.95702)
(14.5147 1.64218e-20 2.62811)
(14.4942 0 2.29434)
(14.4674 0 1.95537)
(14.435 -5.63638e-19 1.61263)
(14.3981 3.40269e-20 1.26251)
(14.3559 5.04219e-19 0.911964)
(14.3101 0 0.545138)
(14.0592 -1.24711e-19 0.191057)
)
;
    }
    procBoundary1to3
    {
        type            processor;
        value           nonuniform List<vector> 9((9.90082 1.3893e-18 3.39166) (10.0677 -1.30764e-18 3.36677) (10.224 3.77585e-18 3.32516) (10.369 -2.44213e-18 3.26845) (10.5023 5.88121e-19 3.19822) (10.6241 5.60514e-19 3.11579) (10.7347 0 3.02238) (10.8348 1.31599e-19 2.91911) (10.9252 0 2.807));
    }
    procBoundary1to4
    {
        type            processor;
        value           nonuniform List<vector> 
30
(
(9.77673 -1.43913e-18 3.73912)
(10.0621 1.34075e-18 4.06366)
(10.0621 1.34075e-18 4.06366)
(10.1844 0 4.427)
(10.5452 -1.22165e-18 4.67613)
(10.5452 -1.22165e-18 4.67613)
(10.732 -1.33178e-18 5.0083)
(11.1163 1.13372e-18 5.11118)
(11.1163 1.13372e-18 5.11118)
(11.3383 0 5.35433)
(11.6779 -5.5207e-19 5.31013)
(11.6779 -5.5207e-19 5.31013)
(11.9079 1.08439e-18 5.47147)
(12.0363 -1.90655e-18 5.54281)
(12.2259 -1.7764e-18 5.35331)
(12.2259 -1.7764e-18 5.35331)
(12.3152 -2.27549e-19 5.4068)
(12.4678 2.56336e-19 5.49261)
(12.6727 -2.48707e-19 5.34947)
(12.6727 -2.48707e-19 5.34947)
(12.8229 1.05522e-18 5.41658)
(12.9546 -9.87542e-19 5.46674)
(13.1686 2.74623e-20 5.36402)
(13.1686 2.74623e-20 5.36402)
(13.2789 2.64409e-20 5.42284)
(13.5179 -7.86418e-19 5.34518)
(13.5179 -7.86418e-19 5.34518)
(13.6278 7.78118e-19 5.4194)
(13.9058 -6.22656e-19 5.35051)
(13.9058 -6.22656e-19 5.35051)
)
;
    }
}


// ************************************************************************* //
