/*--------------------------------*- C++ -*----------------------------------*\
| =========                 |                                                 |
| \\      /  F ield         | OpenFOAM: The Open Source CFD Toolbox           |
|  \\    /   O peration     | Version:  dev                                   |
|   \\  /    A nd           | Web:      www.OpenFOAM.org                      |
|    \\/     M anipulation  |                                                 |
\*---------------------------------------------------------------------------*/
FoamFile
{
    version     2.0;
    format      ascii;
    class       volScalarField;
    location    "1.29";
    object      p;
}
// * * * * * * * * * * * * * * * * * * * * * * * * * * * * * * * * * * * * * //

dimensions      [0 2 -2 0 0 0 0];

internalField   nonuniform List<scalar> 
465
(
110.449
110.298
110.445
110.845
111.399
112.071
112.858
113.759
114.774
115.899
117.134
118.478
119.932
121.494
123.165
124.942
126.82
128.793
130.85
132.976
135.151
110.294
110.237
110.405
110.802
111.354
112.025
112.808
113.706
114.715
115.835
117.063
118.399
119.843
121.396
123.055
124.82
126.685
128.643
130.686
132.798
134.961
110.147
110.163
110.348
110.737
111.28
111.943
112.717
113.602
114.598
115.7
116.909
118.223
119.642
121.165
122.79
124.516
126.336
128.245
130.232
132.283
134.38
109.996
110.05
110.248
110.63
111.163
111.815
112.577
113.447
114.424
115.505
116.688
117.972
119.355
120.837
122.415
124.086
125.844
127.681
129.586
131.544
133.537
109.832
109.906
110.116
110.493
111.015
111.654
112.4
113.25
114.203
115.255
116.406
117.651
118.99
120.42
121.939
123.541
125.22
126.966
128.768
130.609
132.469
109.651
109.735
109.952
110.324
110.833
111.456
112.181
113.008
113.932
114.951
116.061
117.261
118.548
119.918
121.366
122.888
124.474
126.115
127.796
129.5
131.204
109.45
109.54
109.759
110.125
110.619
111.223
111.925
112.723
113.614
114.594
115.66
116.808
118.034
119.335
120.704
122.135
123.618
125.14
126.685
128.234
129.761
109.229
109.32
109.539
109.896
110.374
110.956
111.632
112.398
113.252
114.189
115.204
116.293
117.453
118.677
119.958
121.288
122.657
124.048
125.445
126.825
128.157
108.987
109.079
109.293
109.639
110.1
110.658
111.304
112.035
112.848
113.736
114.696
115.721
116.808
117.948
119.134
120.356
121.6
122.851
124.088
125.284
126.407
108.725
108.815
109.023
109.357
109.797
110.329
110.943
111.636
112.404
113.241
114.14
115.097
116.105
117.155
118.239
119.345
120.458
121.559
122.625
123.627
124.526
108.443
108.53
108.731
109.049
109.468
109.972
110.552
111.204
111.924
112.705
113.54
114.424
115.348
116.304
117.28
118.264
119.238
120.182
121.069
121.866
122.531
108.142
108.226
108.417
108.719
109.115
109.588
110.131
110.74
111.409
112.132
112.9
113.707
114.544
115.401
116.265
117.121
117.951
118.732
119.433
120.017
120.438
107.823
107.904
108.084
108.368
108.739
109.18
109.685
110.248
110.864
111.525
112.224
112.951
113.698
114.452
115.2
115.926
116.608
117.22
117.73
118.097
118.267
107.488
107.564
107.732
107.997
108.341
108.75
109.214
109.73
110.291
110.889
111.516
112.161
112.815
113.464
114.094
114.686
115.218
115.66
115.977
116.123
116.041
107.137
107.208
107.364
107.609
107.925
108.3
108.723
109.19
109.694
110.228
110.78
111.342
111.902
112.445
112.956
113.413
113.794
114.066
114.19
114.118
113.784
106.974
107.196
107.484
107.822
108.202
108.619
109.065
109.531
110.008
110.484
110.946
111.381
111.77
112.091
112.319
112.419
112.35
112.059
111.477
106.756
107.013
107.313
107.648
108.012
108.396
108.793
109.191
109.578
109.942
110.265
110.531
110.714
110.787
110.715
110.455
109.95
109.128
106.516
106.776
107.064
107.373
107.695
108.02
108.338
108.635
108.898
109.11
109.251
109.296
109.217
108.978
108.533
107.825
106.78
106.213
106.453
106.706
106.964
107.217
107.453
107.659
107.821
107.922
107.94
107.85
107.624
107.223
106.604
105.71
104.469
105.817
106.013
106.206
106.385
106.54
106.656
106.718
106.709
106.607
106.387
106.02
105.47
104.692
103.633
102.228
105.296
105.424
105.53
105.604
105.63
105.595
105.479
105.262
104.919
104.421
103.734
102.816
101.619
100.086
104.656
104.649
104.589
104.458
104.241
103.914
103.457
102.84
102.031
100.994
99.6864
98.0612
103.682
103.537
103.317
103.002
102.575
102.012
101.289
100.377
99.242
97.8508
96.1661
102.177
101.772
101.252
100.596
99.7814
98.7818
97.5713
96.1219
94.4055
99.956
99.2183
98.3256
97.2567
95.9901
94.5044
92.7788
97.8866
96.9303
95.8081
94.5031
92.9992
91.2823
94.4402
93.1118
91.6047
89.91
90.3173
88.6549
)
;

boundaryField
{
    inlet
    {
        type            zeroGradient;
    }
    outlet
    {
        type            fixedValue;
        value           nonuniform 0();
    }
    flap
    {
        type            zeroGradient;
    }
    upperWall
    {
        type            zeroGradient;
    }
    lowerWall
    {
        type            zeroGradient;
    }
    frontAndBack
    {
        type            empty;
    }
    procBoundary3to0
    {
        type            processor;
        value           nonuniform List<scalar> 
34
(
106.765
106.831
106.831
106.557
106.557
106.291
106.291
105.993
105.993
105.626
105.626
105.157
105.157
104.558
104.622
104.622
103.766
103.766
102.708
102.483
102.483
101.046
100.559
100.559
98.6941
98.6941
96.608
95.6013
95.6013
93.155
91.8158
91.8158
89.1326
87.5093
)
;
    }
    procBoundary3to1
    {
        type            processor;
        value           nonuniform List<scalar> 9(100.4 98.1538 96.0693 94.1508 92.3953 90.7953 89.341 88.0216 86.8261);
    }
    procBoundary3to4
    {
        type            processor;
        value           nonuniform List<scalar> 
19
(
137.349
137.149
136.498
135.541
134.323
132.879
131.234
129.406
127.414
125.276
123.009
120.633
118.172
115.651
113.103
110.51
107.891
105.303
102.792
)
;
    }
}


// ************************************************************************* //
