/*--------------------------------*- C++ -*----------------------------------*\
| =========                 |                                                 |
| \\      /  F ield         | OpenFOAM: The Open Source CFD Toolbox           |
|  \\    /   O peration     | Version:  dev                                   |
|   \\  /    A nd           | Web:      www.OpenFOAM.org                      |
|    \\/     M anipulation  |                                                 |
\*---------------------------------------------------------------------------*/
FoamFile
{
    version     2.0;
    format      ascii;
    class       surfaceScalarField;
    location    "4.69";
    object      meshPhi;
}
// * * * * * * * * * * * * * * * * * * * * * * * * * * * * * * * * * * * * * //

dimensions      [0 3 -1 0 0 0 0];

internalField   nonuniform List<scalar> 
879
(
0.00019689
-1.37658e-07
0.000218242
-7.57471e-07
0.00023735
-1.5736e-06
0.000254179
-2.53817e-06
0.000268574
-3.60753e-06
0.000280234
-4.68839e-06
0.000288822
-5.72659e-06
0.000293961
-6.6526e-06
0.000295271
-7.4079e-06
0.0002924
-7.95138e-06
0.000285027
-8.25303e-06
0.000272901
-8.31209e-06
0.000255847
-8.13296e-06
0.000233765
-7.72433e-06
0.000206653
-7.09585e-06
0.000174576
-6.24862e-06
0.000137623
-5.20159e-06
9.59554e-05
-3.96477e-06
4.97401e-05
-2.52396e-06
-8.81357e-07
0.000195697
-3.14775e-07
0.00021687
-1.53427e-06
0.000235959
-3.15068e-06
0.000252887
-5.08151e-06
0.00026745
-7.20196e-06
0.000279319
-9.34151e-06
0.000288102
-1.13708e-05
0.000293419
-1.31866e-05
0.000294886
-1.46704e-05
0.000292136
-1.57303e-05
0.000284855
-1.63224e-05
0.000272795
-1.64383e-05
0.000255787
-1.60849e-05
0.00023374
-1.52792e-05
0.000206645
-1.40404e-05
0.000174561
-1.23798e-05
0.000137603
-1.03193e-05
9.59351e-05
-7.86753e-06
4.97218e-05
-5.00776e-06
-1.74839e-06
0.000191298
-5.61994e-07
0.000212336
-2.36025e-06
0.000231566
-4.75562e-06
0.000248809
-7.60241e-06
0.000263779
-1.0701e-05
0.000276111
-1.3844e-05
0.000285369
-1.6819e-05
0.000291135
-1.94736e-05
0.000293006
-2.16347e-05
0.000290596
-2.3171e-05
0.000283597
-2.40374e-05
0.000271767
-2.42098e-05
0.000254946
-2.3694e-05
0.000233059
-2.25132e-05
0.000206096
-2.06958e-05
0.000174121
-1.82689e-05
0.000137269
-1.5248e-05
9.5706e-05
-1.16323e-05
4.9599e-05
-7.40553e-06
-2.5852e-06
0.000183753
-9.28138e-07
0.000204778
-3.28747e-06
0.000224301
-6.40606e-06
0.000242043
-1.0084e-05
0.000257648
-1.40832e-05
0.000270686
-1.81498e-05
0.000280673
-2.20079e-05
0.000287124
-2.543e-05
0.000289607
-2.821e-05
0.000287737
-3.01968e-05
0.000281202
-3.13224e-05
0.000269766
-3.15514e-05
0.000253278
-3.08874e-05
0.000231675
-2.93574e-05
0.000204962
-2.6997e-05
0.000173225
-2.38425e-05
0.000136604
-1.9911e-05
9.52651e-05
-1.52001e-05
4.93775e-05
-9.68279e-06
-3.38078e-06
0.000174202
-1.44721e-06
0.000195269
-4.3379e-06
0.000215161
-8.1137e-06
0.00023351
-1.25414e-05
0.000249894
-1.73588e-05
0.000263797
-2.22558e-05
0.000274663
-2.69076e-05
0.000281944
-3.1021e-05
0.000285179
-3.43646e-05
0.000283984
-3.67701e-05
0.000278034
-3.81369e-05
0.0002671
-3.84211e-05
0.000251041
-3.7623e-05
0.000229807
-3.57711e-05
0.000203424
-3.2906e-05
0.000171994
-2.90665e-05
0.000135676
-2.42764e-05
9.46539e-05
-1.85378e-05
4.90815e-05
-1.18145e-05
-4.12658e-06
0.00016338
-2.14409e-06
0.000184504
-5.52697e-06
0.0002048
-9.89857e-06
0.000223815
-1.49958e-05
0.000241039
-2.05321e-05
0.000255875
-2.61576e-05
0.000267693
-3.15042e-05
0.000275889
-3.62314e-05
0.000279968
-4.00786e-05
0.000279529
-4.28561e-05
0.000274243
-4.44398e-05
0.000263884
-4.47743e-05
0.000248323
-4.38548e-05
0.000227525
-4.17093e-05
0.000201534
-3.83805e-05
0.000170469
-3.39101e-05
0.000134506
-2.83245e-05
9.38674e-05
-2.16285e-05
4.86998e-05
-1.37844e-05
-4.81495e-06
0.000152018
-3.03878e-06
0.000173197
-6.87411e-06
0.000193888
-1.17763e-05
0.000213554
-1.74578e-05
0.000231607
-2.36118e-05
0.000247371
-2.98592e-05
0.000260147
-3.57986e-05
0.000269274
-4.10533e-05
0.000274222
-4.5335e-05
0.000274569
-4.84333e-05
0.000269982
-5.02047e-05
0.000260236
-5.0581e-05
0.000245214
-4.95506e-05
0.000224895
-4.71391e-05
0.000199344
-4.33895e-05
0.000168693
-3.83445e-05
0.000133138
-3.20321e-05
9.29284e-05
-2.44585e-05
4.8225e-05
-1.55843e-05
-5.44245e-06
0.000140797
-4.14484e-06
0.000162007
-8.39233e-06
0.00018304
-1.37587e-05
0.00020329
-1.99381e-05
0.000222097
-2.66084e-05
0.000238717
-3.33703e-05
0.00025239
-3.97983e-05
0.000262403
-4.54888e-05
0.000268187
-5.01301e-05
0.000269302
-5.34935e-05
0.000265405
-5.54187e-05
0.000256276
-5.58244e-05
0.000241806
-5.46911e-05
0.000221989
-5.20399e-05
0.000196906
-4.79121e-05
0.000166707
-4.23501e-05
0.000131602
-3.53821e-05
9.18578e-05
-2.70134e-05
4.76606e-05
-1.72054e-05
-6.00619e-06
0.000130296
-5.46767e-06
0.000151495
-1.00873e-05
0.000172785
-1.58526e-05
0.000193509
-2.24452e-05
0.000212947
-2.9533e-05
0.000230298
-3.67031e-05
0.000244755
-4.35159e-05
0.000255556
-4.95479e-05
0.000262097
-5.44695e-05
0.000263916
-5.80391e-05
0.000260665
-6.00805e-05
0.000252123
-6.04999e-05
0.000238191
-5.92686e-05
0.000218877
-5.64019e-05
0.000194274
-5.19378e-05
0.000164549
-4.59165e-05
0.000129926
-3.83652e-05
9.0678e-05
-2.92875e-05
4.70268e-05
-1.86465e-05
-6.50659e-06
0.000120967
-7.0037e-06
0.000142098
-1.19569e-05
0.000163545
-1.80585e-05
0.000184609
-2.49839e-05
0.000204522
-3.23946e-05
0.000222437
-3.98698e-05
0.000237515
-4.69643e-05
0.000248964
-5.32472e-05
0.00025614
-5.8374e-05
0.000258565
-6.20907e-05
0.000255881
-6.42086e-05
0.000247872
-6.46229e-05
0.000234445
-6.32958e-05
0.000215616
-6.02353e-05
0.000191492
-5.54742e-05
0.000162253
-4.90494e-05
0.000128134
-4.09859e-05
8.94189e-05
-3.12861e-05
4.63557e-05
-1.99142e-05
-6.94706e-06
0.000113126
-8.74053e-06
0.000134122
-1.39903e-05
0.000155614
-2.03726e-05
0.00017687
-2.75597e-05
0.000197082
-3.5207e-05
0.000215372
-4.28922e-05
0.000230877
-5.01713e-05
0.000242793
-5.66185e-05
0.000250453
-6.18794e-05
0.000253357
-6.56845e-05
0.000251143
-6.78385e-05
0.000243593
-6.82271e-05
0.000230619
-6.68034e-05
0.000212247
-6.35675e-05
0.000188592
-5.85454e-05
0.000159843
-5.17692e-05
0.000126247
-4.32607e-05
8.80974e-05
-3.30211e-05
4.56601e-05
-2.10149e-05
-7.32956e-06
0.000106955
-1.06693e-05
0.000127749
-1.61871e-05
0.000149165
-2.28022e-05
0.000170455
-3.01873e-05
0.000190779
-3.7992e-05
0.000209246
-4.58002e-05
0.000224979
-5.31754e-05
0.00023717
-5.97011e-05
0.000245145
-6.50205e-05
0.000248386
-6.88545e-05
0.000246526
-7.10027e-05
0.000239348
-7.13432e-05
0.000226766
-6.98198e-05
0.000208811
-6.64237e-05
0.000185605
-6.11733e-05
0.000157345
-5.40944e-05
0.000124283
-4.52047e-05
8.6722e-05
-3.45034e-05
4.49396e-05
-2.19548e-05
-7.65607e-06
0.000102526
-1.27942e-05
0.000123058
-1.85592e-05
0.000144282
-2.53621e-05
0.000165443
-3.28809e-05
0.000185694
-4.07662e-05
0.000204141
-4.86137e-05
0.000219905
-5.60001e-05
0.000232182
-6.2521e-05
0.000240297
-6.78238e-05
0.000243724
-7.16273e-05
0.000242094
-7.37277e-05
0.000235191
-7.39963e-05
0.000222931
-7.23681e-05
0.000205346
-6.88249e-05
0.000182564
-6.33761e-05
0.000154782
-5.60403e-05
0.00012226
-4.68301e-05
8.5303e-05
-3.57417e-05
4.41972e-05
-2.27393e-05
-7.92834e-06
9.9832e-05
-1.51198e-05
0.000120049
-2.11104e-05
0.000140972
-2.80552e-05
0.000161853
-3.56433e-05
0.000181854
-4.35337e-05
0.000200091
-5.13393e-05
0.000215695
-5.86555e-05
0.000227873
-6.50932e-05
0.000235954
-7.03094e-05
0.000239415
-7.4026e-05
0.00023789
-7.60382e-05
0.000231163
-7.62116e-05
0.00021915
-7.44729e-05
0.000201884
-7.0794e-05
0.000179493
-6.51746e-05
0.000152177
-5.76251e-05
0.000120193
-4.81517e-05
8.38503e-05
-3.67473e-05
4.34368e-05
-2.33754e-05
-8.14876e-06
9.88137e-05
-1.76598e-05
0.000118661
-2.38602e-05
0.000139185
-3.0899e-05
0.000159644
-3.8492e-05
0.000179225
-4.63118e-05
0.000197069
-5.39971e-05
0.000212327
-6.11655e-05
0.000224224
-6.7447e-05
0.000232103
-7.25116e-05
0.000235451
-7.60884e-05
0.000233907
-7.79738e-05
0.000227256
-7.80295e-05
0.000215418
-7.61739e-05
0.000198422
-7.2369e-05
0.000176393
-6.66039e-05
0.000149529
-5.88795e-05
0.000118084
-4.91952e-05
8.23647e-05
-3.75398e-05
4.26592e-05
-2.38758e-05
-8.32188e-06
8.43059e-05
-1.50163e-05
0.000103228
-2.04914e-05
0.000123393
-2.6859e-05
0.000144193
-3.3943e-05
0.00016485
-4.14756e-05
0.000184582
-4.91471e-05
0.000202525
-5.66365e-05
0.000217826
-6.35839e-05
0.00022971
-6.96397e-05
0.000237514
-7.44905e-05
0.000240723
-7.78756e-05
0.000238975
-7.95953e-05
0.000232049
-7.95087e-05
0.00021986
-7.75267e-05
0.000202438
-7.36008e-05
0.000179906
-6.77091e-05
0.000152464
-5.98425e-05
0.000120371
-4.99924e-05
8.39389e-05
-3.81427e-05
4.34638e-05
-2.42547e-05
-8.45251e-06
8.89831e-05
0.000108054
0.000128262
-3.01008e-05
0.000148931
-3.72265e-05
0.00016931
-4.46128e-05
0.000188736
-5.20506e-05
0.000206337
-5.92779e-05
0.000221269
-6.59395e-05
0.000232777
-7.17069e-05
0.000240211
-7.62864e-05
0.000243072
-7.94299e-05
0.000241001
-8.09453e-05
0.000233782
-8.06907e-05
0.000221326
-7.857e-05
0.000203658
-7.45245e-05
0.000180898
-6.85209e-05
0.00015324
-6.05397e-05
0.00012094
-5.05635e-05
8.43093e-05
-3.85711e-05
4.36431e-05
-2.45219e-05
-8.54407e-06
0.000134751
0.000155354
0.000175348
-4.78441e-05
0.000194254
-5.50233e-05
0.000211332
-6.19138e-05
0.000225691
-6.82366e-05
0.000236628
-7.36607e-05
0.000243502
-7.79181e-05
0.000245843
-8.07741e-05
0.000243308
-8.205e-05
0.000235678
-8.16035e-05
0.000222864
-7.93317e-05
0.000204886
-7.51663e-05
0.000181856
-6.90631e-05
0.000153961
-6.09913e-05
0.000121451
-5.09251e-05
8.46317e-05
-3.88373e-05
4.37953e-05
-2.46849e-05
-8.5992e-06
0.000182843
0.000201236
-5.79366e-05
0.000217588
-6.45649e-05
0.00023115
-7.04826e-05
0.000241333
-7.55115e-05
0.000247443
-7.94037e-05
0.000249093
-8.19281e-05
0.000245948
-8.29337e-05
0.000237787
-8.22742e-05
0.000224521
-7.98398e-05
0.000206163
-7.55538e-05
0.000182816
-6.9361e-05
0.000154657
-6.12199e-05
0.000121927
-5.10957e-05
8.49222e-05
-3.89552e-05
4.39286e-05
-2.47528e-05
-8.62103e-06
0.000209181
0.000224977
0.000237746
-7.26164e-05
0.000246956
-7.73098e-05
0.000252057
-8.07634e-05
0.000252851
-8.29037e-05
0.000248957
-8.3617e-05
0.000240145
-8.27284e-05
0.000226331
-8.01213e-05
0.000207521
-7.57138e-05
0.000183806
-6.94401e-05
0.000155352
-6.12482e-05
0.000122386
-5.10945e-05
8.51935e-05
-3.89394e-05
4.40496e-05
-2.47348e-05
-8.61282e-06
0.000244922
0.000253372
0.000257397
-8.19437e-05
0.000257125
-8.37319e-05
0.000252361
-8.41176e-05
0.000242774
-8.29896e-05
0.000228318
-8.02e-05
0.000208985
-7.56712e-05
0.000184851
-6.93249e-05
0.000156068
-6.10983e-05
0.000122846
-5.09399e-05
8.54578e-05
-3.88044e-05
4.41648e-05
-2.464e-05
-8.57776e-06
0.000263194
0.000261955
-8.42969e-05
0.000256191
-8.44742e-05
0.000245682
-8.30831e-05
0.000230498
-8.0095e-05
0.000210577
-7.54486e-05
0.000185971
-6.90379e-05
0.000156822
-6.07906e-05
0.000123322
-5.06497e-05
8.57264e-05
-3.85636e-05
4.428e-05
-2.44772e-05
-8.51892e-06
0.000266847
0.000260344
0.000248911
-8.29876e-05
0.000232877
-7.98407e-05
0.000212313
-7.50665e-05
0.000187182
-6.86003e-05
0.000157629
-6.03437e-05
0.000123828
-5.02397e-05
8.60092e-05
-3.82295e-05
4.44006e-05
-2.42544e-05
-8.43909e-06
0.000252277
0.000235488
-7.93697e-05
0.000214217
-7.45575e-05
0.000188494
-6.80335e-05
0.000158504
-5.97723e-05
0.000124375
-4.97237e-05
8.63154e-05
-3.78132e-05
4.45317e-05
-2.39786e-05
-8.3407e-06
0.000238038
0.000216244
0.000189941
-6.733e-05
0.000159454
-5.90992e-05
0.000124976
-4.91131e-05
8.66537e-05
-3.7324e-05
4.46779e-05
-2.36553e-05
-8.22569e-06
0.000191437
0.000160505
-5.82849e-05
0.000125647
-4.84239e-05
8.70321e-05
-3.67703e-05
4.48436e-05
-2.32882e-05
-8.0953e-06
0.000161536
0.00012638
8.7471e-05
-3.61457e-05
4.50336e-05
-2.28847e-05
-7.95006e-06
8.79453e-05
4.52563e-05
-2.24209e-05
-7.79136e-06
4.54918e-05
-7.6018e-06
)
;

boundaryField
{
    inlet
    {
        type            calculated;
        value           nonuniform 0();
    }
    outlet
    {
        type            calculated;
        value           uniform 0;
    }
    flap
    {
        type            calculated;
        value           nonuniform 0();
    }
    upperWall
    {
        type            calculated;
        value           nonuniform 0();
    }
    lowerWall
    {
        type            calculated;
        value           uniform 0;
    }
    frontAndBack
    {
        type            empty;
        value           nonuniform 0();
    }
    procBoundary5to2
    {
        type            processor;
        value           nonuniform List<scalar> 
34
(
-1.7737e-05
-2.35172e-05
-0.000114416
-3.317e-05
-4.04761e-05
-0.000162962
-5.0725e-05
-0.00019093
-6.0125e-05
-6.68324e-05
-0.000232494
-7.3945e-05
-7.86756e-05
-0.000259657
-8.24862e-05
-0.000268399
-8.41125e-05
-8.44304e-05
-0.000264135
-8.24084e-05
-0.000255082
-7.83866e-05
-7.37717e-05
-0.000218028
-6.63208e-05
-0.000192649
-5.71674e-05
-4.7575e-05
-0.000127043
-3.53662e-05
-8.83499e-05
-2.18432e-05
-4.56863e-05
-7.3664e-06
)
;
    }
    procBoundary5to4
    {
        type            processor;
        value           nonuniform List<scalar> 
18
(
-0.000172007
-0.000170864
-0.00016677
-0.000159718
-0.00015073
-0.000140511
-0.000129758
-0.000119126
-0.000109183
-0.000100371
-9.30064e-05
-8.72722e-05
-8.32424e-05
-8.09215e-05
-8.02532e-05
1.24965e-05
-6.69924e-05
-7.14547e-05
)
;
    }
}


// ************************************************************************* //
