/*--------------------------------*- C++ -*----------------------------------*\
| =========                 |                                                 |
| \\      /  F ield         | OpenFOAM: The Open Source CFD Toolbox           |
|  \\    /   O peration     | Version:  dev                                   |
|   \\  /    A nd           | Web:      www.OpenFOAM.org                      |
|    \\/     M anipulation  |                                                 |
\*---------------------------------------------------------------------------*/
FoamFile
{
    version     2.0;
    format      ascii;
    class       volVectorField;
    location    "1.41";
    object      U;
}
// * * * * * * * * * * * * * * * * * * * * * * * * * * * * * * * * * * * * * //

dimensions      [0 1 -1 0 0 0 0];

internalField   nonuniform List<vector> 
2790
(
(9.93562 0 0.0181621)
(9.86751 -4.62729e-20 0.024699)
(9.77631 0 0.0287288)
(9.66871 3.1725e-20 0.0328759)
(9.55023 -1.32979e-20 0.0371672)
(9.42187 6.942e-21 0.0415462)
(9.28296 0 0.046126)
(9.1328 0 0.051043)
(8.97078 0 0.0564115)
(8.79614 -1.69551e-20 0.0623376)
(8.60797 1.75824e-20 0.0689341)
(8.40517 9.28509e-21 0.0763267)
(8.18648 4.87852e-21 0.0846594)
(7.95048 0 0.0940929)
(7.69559 0 0.104805)
(7.42004 0 0.117001)
(7.12195 -9.6631e-20 0.130921)
(6.79922 7.47719e-20 0.146833)
(6.44967 -1.07286e-19 0.16503)
(6.07099 -2.13822e-21 0.185838)
(5.66083 -1.8014e-19 0.209611)
(5.21687 -2.45609e-19 0.236729)
(4.73689 -6.50459e-20 0.267596)
(4.21896 0 0.302651)
(3.66146 -1.42417e-19 0.342391)
(3.06328 0 0.387331)
(2.42372 0 0.437894)
(1.74242 0 0.493924)
(1.01337 0 0.550834)
(0.37417 0 0.479843)
(10.0012 2.7786e-21 0.0350519)
(9.99456 4.91056e-20 0.0491881)
(9.96622 6.07152e-21 0.0585546)
(9.91934 -3.79289e-20 0.0687059)
(9.8585 2.65906e-20 0.0796916)
(9.7849 2.07596e-22 0.0912957)
(9.69819 2.49693e-22 0.103726)
(9.59783 -6.09398e-20 0.11728)
(9.48332 3.1765e-20 0.132221)
(9.35403 0 0.148801)
(9.20916 0 0.167289)
(9.04771 -1.01831e-19 0.187991)
(8.86854 8.16564e-20 0.211259)
(8.6703 1.68914e-19 0.237487)
(8.45147 -1.69501e-19 0.267098)
(8.21033 -1.81186e-19 0.300574)
(7.94502 1.87311e-19 0.338461)
(7.65345 2.48593e-20 0.381348)
(7.33333 -4.74404e-19 0.429848)
(6.98221 4.35861e-19 0.484591)
(6.59747 -5.74615e-20 0.546189)
(6.17632 -1.2109e-19 0.61519)
(5.71587 -6.3209e-20 0.69202)
(5.21305 8.09845e-19 0.776926)
(4.66449 -1.23932e-18 0.869965)
(4.06628 0 0.970912)
(3.41293 0 1.07903)
(2.69465 0 1.1933)
(1.87169 -2.99266e-19 1.31976)
(1.07921 0 1.46835)
(9.99858 0 0.0343643)
(9.98961 -1.15446e-20 0.0542342)
(9.96393 -1.21262e-20 0.069829)
(9.92205 -7.57691e-20 0.0865278)
(9.86727 0 0.104667)
(9.80088 5.53482e-20 0.124041)
(9.72274 -5.79544e-20 0.144902)
(9.63239 -6.10554e-20 0.167665)
(9.5294 -2.56228e-22 0.192734)
(9.41325 -3.33116e-20 0.220507)
(9.28324 -1.40742e-19 0.251423)
(9.13856 2.00663e-19 0.285976)
(8.97821 1.45363e-19 0.32475)
(8.80106 -1.65356e-19 0.368402)
(8.60579 3.40534e-19 0.417646)
(8.39087 5.89574e-21 0.473293)
(8.15466 -3.70984e-19 0.536275)
(7.89529 0 0.607615)
(7.61067 -3.13544e-19 0.688412)
(7.29842 4.29612e-19 0.779823)
(6.95589 1.14006e-19 0.883043)
(6.58004 1.19507e-19 0.999258)
(6.16738 1.2505e-19 1.12955)
(5.71373 2.61015e-19 1.27485)
(5.21377 5.39986e-19 1.43593)
(4.66025 0 1.61374)
(4.04223 5.68521e-19 1.81001)
(3.34187 -5.24845e-18 2.02918)
(2.52212 4.88183e-18 2.27915)
(1.56075 -5.67346e-18 2.67917)
(9.99671 0 0.035896)
(9.98525 0 0.0631919)
(9.95936 9.62471e-20 0.0865168)
(9.91848 1.26136e-19 0.110218)
(9.86501 1.32079e-19 0.135265)
(9.80024 -1.10318e-19 0.161793)
(9.72421 1.73701e-19 0.190192)
(9.63662 -6.027e-20 0.221015)
(9.53709 1.26175e-22 0.254816)
(9.42524 3.32294e-20 0.292149)
(9.30053 0 0.333609)
(9.16234 -7.28872e-20 0.379861)
(9.00989 3.07926e-19 0.431679)
(8.8424 -6.41362e-19 0.489966)
(8.65882 3.35085e-19 0.555708)
(8.4579 3.44685e-19 0.629996)
(8.23846 -3.44041e-19 0.714102)
(7.99911 0 0.809474)
(7.73818 -1.52426e-19 0.917724)
(7.45382 0 1.0406)
(7.14378 9.01365e-19 1.18002)
(6.80535 1.15787e-18 1.33802)
(6.43518 -1.96407e-18 1.51679)
(6.0289 1.75714e-18 1.71867)
(5.58056 -3.68641e-21 1.94629)
(5.08157 0 2.20302)
(4.51943 -5.53366e-19 2.49437)
(3.87185 5.5773e-19 2.83375)
(3.15753 0 3.19926)
(2.05953 6.08819e-19 3.87724)
(9.99573 0 0.0389961)
(9.98273 -2.2985e-20 0.0723508)
(9.95649 -7.21437e-20 0.102198)
(9.91633 5.04038e-20 0.132005)
(9.864 -1.57752e-19 0.163227)
(9.80064 5.52622e-20 0.196351)
(9.7264 6.74762e-22 0.231891)
(9.64102 -2.40449e-19 0.270483)
(9.5442 6.31576e-20 0.31278)
(9.4356 -1.3285e-19 0.359446)
(9.3148 6.84864e-20 0.411185)
(9.18129 7.23908e-20 0.468781)
(9.03442 3.05486e-19 0.533129)
(8.87367 -6.35786e-19 0.605307)
(8.69832 6.66117e-19 0.68654)
(8.50737 -3.35325e-19 0.778133)
(8.29994 -2.29058e-20 0.881583)
(8.07507 0 0.998668)
(7.83162 1.00508e-19 1.13143)
(7.56827 0 1.28215)
(7.28342 0 1.4534)
(6.97501 -2.29174e-19 1.64812)
(6.64039 -1.90952e-18 1.86964)
(6.27588 2.19182e-19 2.12188)
(5.8763 1.75294e-18 2.40958)
(5.4341 0 2.73885)
(4.93966 4.18915e-18 3.11715)
(4.36159 -4.14946e-18 3.56813)
(3.82059 -1.5528e-20 3.99934)
(2.6095 -8.66491e-18 4.9245)
(9.99522 -1.10083e-20 0.042881)
(9.98132 3.43545e-20 0.0815793)
(9.95499 1.19451e-19 0.11752)
(9.91571 2.50194e-19 0.153433)
(9.86479 1.04714e-19 0.190898)
(9.80316 0 0.230638)
(9.73101 1.15187e-19 0.27327)
(9.64816 1.21176e-19 0.319496)
(9.55435 -1.24899e-19 0.370057)
(9.44931 0 0.425711)
(9.33268 3.45053e-19 0.487268)
(9.20404 -3.24706e-20 0.555626)
(9.0629 -6.38934e-19 0.631788)
(8.90875 3.12541e-19 0.716942)
(8.74119 0 0.812517)
(8.55962 0 0.920041)
(8.36327 -2.24189e-20 1.04119)
(8.15151 -7.11944e-19 1.178)
(7.9236 6.82534e-19 1.33284)
(7.67875 -1.65294e-18 1.50846)
(7.41598 1.69528e-18 1.70799)
(7.13399 0 1.93515)
(6.83108 2.27623e-19 2.19436)
(6.50482 4.04114e-18 2.49089)
(6.1517 -3.85604e-18 2.83118)
(5.76628 0 3.22344)
(5.34547 4.18612e-18 3.67409)
(4.83819 -3.88334e-18 4.22065)
(4.4954 1.49185e-20 4.66507)
(3.19076 -2.65039e-19 5.77935)
(9.99497 1.09704e-20 0.0471705)
(9.98065 -1.13981e-20 0.0908789)
(9.95453 -1.91052e-19 0.132527)
(9.9163 -1.9985e-19 0.174329)
(9.86701 -1.04514e-19 0.217824)
(9.80742 -1.09561e-19 0.263902)
(9.73772 1.13706e-19 0.313302)
(9.65779 0 0.366808)
(9.56745 0 0.425244)
(9.46647 0 0.48946)
(9.35457 0 0.560356)
(9.23144 0 0.638928)
(9.09675 5.62098e-19 0.726294)
(8.94996 4.6773e-20 0.823719)
(8.79079 -6.45605e-19 0.932729)
(8.61899 0 1.05505)
(8.43407 7.35791e-19 1.19257)
(8.23561 -7.80194e-19 1.34751)
(8.02324 9.67159e-20 1.5225)
(7.79657 0 1.72061)
(7.55522 1.67293e-18 1.94548)
(7.29861 3.43898e-18 2.20143)
(7.02604 -1.9856e-18 2.49371)
(6.73652 -2.29403e-19 2.82867)
(6.42852 0 3.21391)
(6.09851 0 3.65884)
(5.75238 -2.34891e-19 4.16566)
(5.30887 0 4.79174)
(5.15851 0 5.21301)
(3.77678 0 6.45843)
(9.9949 -3.49063e-19 0.0516395)
(9.98052 3.63033e-19 0.100146)
(9.95487 0 0.147142)
(9.91787 -1.98513e-19 0.194557)
(9.87041 0 0.243839)
(9.81312 1.08979e-19 0.295995)
(9.7462 -1.12418e-19 0.351877)
(9.66958 -1.1806e-19 0.412347)
(9.58313 1.23531e-19 0.478297)
(9.48671 0 0.550651)
(9.38011 0 0.630387)
(9.2631 0 0.718582)
(9.13546 -5.91488e-19 0.816461)
(8.99681 5.71859e-19 0.925397)
(8.84692 6.44542e-19 1.04696)
(8.68571 8.55367e-21 1.18299)
(8.51296 -7.12642e-19 1.33556)
(8.32856 2.81075e-21 1.50707)
(8.13243 0 1.70035)
(7.92456 1.56843e-18 1.91874)
(7.70506 -3.27407e-18 2.16623)
(7.47408 1.19739e-19 2.44763)
(7.23181 -1.69586e-18 2.76876)
(6.97856 0 3.13669)
(6.71481 2.70317e-20 3.55965)
(6.43809 3.49356e-18 4.04784)
(6.16454 -3.66504e-18 4.59646)
(5.77514 -8.06557e-19 5.28843)
(5.79492 0 5.67044)
(4.35049 0 7.00283)
(9.99496 9.3695e-22 0.0561411)
(9.98078 -3.62401e-19 0.109265)
(9.95584 4.73986e-20 0.161294)
(9.92024 -4.88062e-20 0.214033)
(9.8748 2.06398e-19 0.268842)
(9.82007 0 0.326795)
(9.75622 1.12923e-19 0.388845)
(9.68325 -2.36349e-19 0.455923)
(9.60108 1.21551e-19 0.528978)
(9.50963 2.57514e-19 0.608993)
(9.4088 2.65976e-21 0.697019)
(9.29844 -2.77294e-19 0.794207)
(9.1784 6.57145e-19 0.901865)
(9.04853 -1.13546e-18 1.02146)
(8.90872 7.11197e-20 1.15463)
(8.75897 5.70397e-19 1.30325)
(8.5993 -1.34962e-18 1.46953)
(8.42985 2.47965e-20 1.65604)
(8.25086 1.45701e-18 1.86576)
(8.06268 0 2.10227)
(7.86588 4.91387e-20 2.3698)
(7.66124 -1.00921e-19 2.6735)
(7.44976 0 3.01957)
(7.23281 -5.09535e-20 3.41552)
(7.01259 7.57095e-20 3.86985)
(6.78672 0 4.39361)
(6.58219 2.03274e-19 4.97332)
(6.23826 7.74837e-19 5.72053)
(6.39969 0 6.06512)
(4.90592 -7.53693e-19 7.45863)
(9.99511 1.00829e-21 0.0605772)
(9.98131 0 0.118134)
(9.9573 0 0.174911)
(9.9233 2.9573e-19 0.23268)
(9.88006 -5.13628e-19 0.292728)
(9.82812 2.14186e-19 0.356172)
(9.76764 0 0.424049)
(9.69864 0 0.497355)
(9.62111 0 0.577081)
(9.53503 -2.54969e-19 0.664259)
(9.4404 3.95034e-19 0.759999)
(9.33716 -1.37206e-19 0.865514)
(9.22528 0 0.982169)
(9.10476 -2.23196e-19 1.1115)
(8.97565 5.45042e-19 1.25521)
(8.83808 7.34203e-19 1.41523)
(8.69225 -1.40926e-18 1.59384)
(8.53858 -1.43016e-18 1.79374)
(8.37757 1.41788e-18 2.01805)
(8.20993 0 2.27046)
(8.0367 0 2.55544)
(7.85921 3.07718e-18 2.87836)
(7.67915 1.03355e-19 3.24571)
(7.49874 -3.27355e-18 3.66525)
(7.32162 -3.19698e-18 4.14551)
(7.14429 3.81522e-18 4.69889)
(7.00498 0 5.30308)
(6.70131 0 6.09766)
(6.97691 1.26734e-18 6.42142)
(5.4475 5.61944e-20 7.87019)
(9.99533 6.67967e-19 0.0648794)
(9.98205 -2.24672e-20 0.126668)
(9.95916 4.67809e-20 0.187919)
(9.92692 -9.80723e-20 0.250419)
(9.88608 3.06595e-19 0.315397)
(9.83713 -3.20462e-19 0.383999)
(9.78028 3.33824e-19 0.457338)
(9.71557 -4.63357e-19 0.536463)
(9.64303 2.40391e-19 0.622399)
(9.56273 2.52268e-19 0.71621)
(9.47472 -2.61098e-19 0.819053)
(9.37906 9.52935e-22 0.932187)
(9.2758 -1.40641e-19 1.05702)
(9.1651 1.27942e-21 1.19514)
(9.0472 6.11092e-19 1.34831)
(8.92238 -6.26953e-19 1.51848)
(8.791 8.18978e-20 1.70799)
(8.65373 -1.34958e-18 1.91963)
(8.51138 2.9369e-18 2.15658)
(8.36501 -1.41318e-18 2.42264)
(8.21609 0 2.72242)
(8.06643 0 3.0615)
(7.91838 -9.37337e-20 3.44652)
(7.77488 -2.3931e-18 3.88553)
(7.64075 2.9275e-18 4.38712)
(7.51073 -3.51173e-18 4.96542)
(7.43359 1.41643e-18 5.59092)
(7.17031 0 6.42662)
(7.53855 -3.35686e-18 6.75857)
(5.99016 2.17658e-18 8.27873)
(9.99561 -3.43555e-19 0.0689974)
(9.98295 3.11303e-19 0.134799)
(9.9613 3.71778e-19 0.200253)
(9.93099 4.36888e-19 0.267175)
(9.8927 1.00825e-19 0.336752)
(9.84695 -3.17866e-19 0.410157)
(9.79395 -1.33083e-21 0.488566)
(9.73378 -1.26065e-22 0.573076)
(9.66651 0 0.664728)
(9.59227 2.49424e-19 0.764613)
(9.51122 -1.29404e-19 0.873921)
(9.42351 -4.03902e-19 0.993952)
(9.32927 -3.54642e-21 1.12614)
(9.22878 7.1867e-19 1.2721)
(9.12259 1.48332e-19 1.4336)
(9.01104 0 1.61264)
(8.89458 0 1.81159)
(8.7742 -1.62201e-19 2.03324)
(8.65102 1.34115e-18 2.28082)
(8.52644 -1.36532e-18 2.55818)
(8.40233 0 2.87006)
(8.28108 -2.80538e-18 3.22217)
(8.16554 2.81485e-18 3.62124)
(8.05922 -1.03865e-18 4.07559)
(7.96841 0 4.59426)
(7.88627 0 5.19312)
(7.86979 -1.12828e-18 5.83886)
(7.65399 -2.06817e-18 6.70937)
(8.10312 6.07248e-18 7.08829)
(6.5603 -4.67634e-19 8.72047)
(9.99597 -2.13321e-20 0.0728908)
(9.98396 -2.34771e-20 0.142478)
(9.96367 -6.94429e-19 0.211857)
(9.93542 -3.8731e-19 0.282883)
(9.89985 -2.01976e-19 0.356715)
(9.85745 2.10479e-19 0.43455)
(9.80847 2.19313e-19 0.517624)
(9.75304 1.24336e-21 0.607069)
(9.69126 0 0.703937)
(9.62334 4.92955e-19 0.809329)
(9.5495 -7.63668e-19 0.924456)
(9.46996 -7.93643e-19 1.05065)
(9.38502 4.10226e-19 1.18935)
(9.29505 0 1.34211)
(9.20084 -1.46907e-19 1.51075)
(9.10288 -1.20883e-18 1.69735)
(9.00174 1.2348e-18 1.90426)
(8.89868 1.59959e-19 2.13418)
(8.79508 -1.63556e-19 2.39031)
(8.69262 1.32006e-18 2.67657)
(8.59355 -1.33338e-18 2.99773)
(8.50106 0 3.35961)
(8.41847 0 3.76897)
(8.34954 3.2574e-18 4.23427)
(8.30246 -1.31367e-18 4.76523)
(8.27019 0 5.37905)
(8.31511 0 6.04415)
(8.16318 1.94811e-18 6.94011)
(8.69341 1.60282e-18 7.40989)
(7.19699 -4.93475e-18 9.22421)
(9.99642 6.77125e-19 0.0765235)
(9.98506 -7.04834e-19 0.149673)
(9.96619 3.68751e-19 0.222684)
(9.94017 9.61843e-20 0.297474)
(9.90746 4.01744e-22 0.37521)
(9.86856 3.11774e-19 0.4571)
(9.82376 0 0.544427)
(9.77323 0 0.638348)
(9.71713 -2.34641e-19 0.739906)
(9.65577 9.58132e-23 0.850212)
(9.58938 7.55113e-19 0.970493)
(9.51824 -2.57545e-19 1.10208)
(9.44281 5.38117e-19 1.24639)
(9.36364 -2.76298e-19 1.40496)
(9.28147 1.14806e-18 1.57955)
(9.19704 -2.06085e-18 1.77232)
(9.11142 1.50296e-18 1.9856)
(9.0259 1.23481e-18 2.22197)
(8.94204 -2.5089e-18 2.48459)
(8.86182 2.53997e-18 2.77732)
(8.7878 -6.47326e-19 3.1048)
(8.724 -3.17042e-18 3.47289)
(8.67436 2.5333e-18 3.88841)
(8.64332 1.20842e-18 4.35992)
(8.64042 -2.35634e-18 4.89708)
(8.66042 0 5.51765)
(8.76941 -1.94514e-18 6.19783)
(8.70749 -3.43681e-18 7.10147)
(9.33153 1.91936e-18 7.69841)
(7.94922 -1.17053e-18 9.8147)
(9.99686 -1.3277e-18 0.0798631)
(9.9863 3.29079e-19 0.156354)
(9.96896 9.15514e-20 0.232691)
(9.94525 -9.52242e-20 0.310892)
(9.91553 -3.96354e-19 0.392175)
(9.88023 -2.07194e-19 0.477743)
(9.83972 -6.42789e-19 0.568911)
(9.79424 4.46005e-19 0.666835)
(9.74399 -6.93312e-19 0.772544)
(9.68931 -1.21996e-21 0.887165)
(9.63051 4.92771e-19 1.01194)
(9.56796 0 1.14818)
(9.50221 2.64782e-19 1.29725)
(9.43408 5.47931e-19 1.46066)
(9.36411 -5.58941e-19 1.64013)
(9.29322 -1.44051e-18 1.83775)
(9.22299 -2.99469e-19 2.05579)
(9.15479 1.19547e-18 2.29678)
(9.09045 0 2.56381)
(9.03228 0 2.86057)
(8.98325 6.01203e-19 3.19144)
(8.94755 1.83837e-18 3.56197)
(8.93004 0 3.97903)
(8.93698 -2.3134e-18 4.4511)
(8.97837 -1.02943e-18 4.98668)
(9.05247 4.07438e-18 5.60245)
(9.22779 -3.72683e-18 6.28484)
(9.28579 1.69122e-18 7.16316)
(10.0244 1.33383e-18 7.88587)
(8.8862 1.58915e-18 10.543)
(0.129945 0 -0.136737)
(0.296443 3.77695e-21 -0.126547)
(0.543043 0 -0.106736)
(0.826981 0 -0.0940042)
(1.13771 -1.9379e-22 -0.0869428)
(1.45452 -1.34726e-21 -0.082678)
(1.75133 -5.25669e-22 -0.0786963)
(2.0145 5.6024e-22 -0.0739481)
(2.24159 8.33292e-23 -0.0684238)
(2.43532 6.04415e-22 -0.0624514)
(2.59929 0 -0.0563973)
(2.73666 0 -0.0503969)
(2.84941 1.43378e-21 -0.0445936)
(2.93948 0 -0.0393765)
(3.01037 -1.45822e-21 -0.0351876)
(3.0662 0 -0.0321143)
(3.10939 0 -0.0300814)
(3.14201 0 -0.0289443)
(3.16641 0 -0.0283682)
(3.18451 0 -0.0278556)
(3.19855 -5.52122e-22 -0.0269204)
(3.2114 -7.7018e-23 -0.0254431)
(3.22656 7.59604e-23 -0.0239623)
(3.24862 -1.83567e-21 -0.0233506)
(3.28296 0 -0.0242432)
(3.33608 -2.27754e-21 -0.0271532)
(3.41605 -7.35559e-23 -0.0329649)
(3.53296 0 -0.0432799)
(3.69833 0 -0.0600042)
(3.9869 0 -0.0841279)
(0.058475 4.499e-24 -0.195979)
(0.171634 1.80628e-20 -0.210373)
(0.406545 -1.24784e-20 -0.200542)
(0.678765 0 -0.19487)
(0.977943 2.35535e-21 -0.192961)
(1.27399 -9.59115e-22 -0.190287)
(1.54033 1.0635e-22 -0.183734)
(1.76714 -1.24364e-22 -0.172917)
(1.95451 -5.6865e-22 -0.158827)
(2.10579 -6.00037e-22 -0.142851)
(2.22481 0 -0.12596)
(2.31399 0 -0.10866)
(2.37581 -4.39062e-21 -0.0914653)
(2.41288 1.51683e-21 -0.0750137)
(2.42754 -3.93493e-23 -0.0596976)
(2.42072 0 -0.0453576)
(2.39341 -4.65294e-22 -0.0319098)
(2.34786 4.58474e-22 -0.0190435)
(2.28805 0 -0.00680512)
(2.22101 8.15789e-23 0.00289556)
(2.15767 6.77166e-22 0.00773307)
(2.10804 -1.92787e-21 0.00695815)
(2.07943 -3.1175e-22 0.000645049)
(2.07564 5.81766e-21 -0.0115529)
(2.10097 -2.51438e-22 -0.0304906)
(2.16029 7.11284e-21 -0.0578186)
(2.25979 0 -0.0956807)
(2.40576 -4.42036e-21 -0.146443)
(2.60495 -1.29395e-22 -0.212848)
(2.93141 0 -0.29384)
(0.0178047 -7.96076e-23 -0.269293)
(0.0379297 -1.97913e-20 -0.300516)
(0.23745 0 -0.30611)
(0.458676 0 -0.302354)
(0.696642 -3.73204e-21 -0.298457)
(0.919635 0 -0.291106)
(1.10629 -1.64693e-22 -0.276993)
(1.25023 -4.09074e-23 -0.256716)
(1.35345 -1.85373e-22 -0.231946)
(1.42109 -1.7976e-21 -0.204218)
(1.4568 5.98556e-22 -0.174566)
(1.46313 -2.40906e-21 -0.143933)
(1.44257 2.96199e-21 -0.113113)
(1.39795 0 -0.0825883)
(1.33244 0 -0.0528717)
(1.24956 1.23626e-21 -0.0237703)
(1.15204 -7.50315e-22 0.00295312)
(1.04765 8.104e-22 0.0223671)
(0.959753 9.85049e-22 0.0314387)
(0.896864 1.33077e-22 0.0300828)
(0.856735 2.41897e-22 0.0191977)
(0.838369 1.67758e-21 1.09009e-05)
(0.84764 0 -0.0273109)
(0.890677 -7.35747e-21 -0.0634257)
(0.969377 0 -0.108896)
(1.08501 -1.82037e-22 -0.16391)
(1.23519 2.94873e-22 -0.230023)
(1.41923 8.65946e-21 -0.311122)
(1.64227 0 -0.41334)
(1.94814 -1.7552e-21 -0.542615)
(-0.00477783 0 -0.328217)
(-0.0749692 0 -0.359015)
(0.0917894 0 -0.383048)
(0.251593 -7.79622e-21 -0.378444)
(0.418557 6.25874e-22 -0.368812)
(0.556937 -1.14002e-21 -0.35244)
(0.656312 9.98563e-23 -0.327215)
(0.712162 4.12427e-23 -0.294911)
(0.729426 7.56337e-22 -0.25817)
(0.714712 0 -0.21849)
(0.672578 6.76817e-21 -0.176532)
(0.606561 -2.44441e-21 -0.133114)
(0.520536 0 -0.08967)
(0.419745 9.15324e-21 -0.0467509)
(0.303232 2.90858e-21 -0.0066748)
(0.183449 -1.23844e-21 0.0247944)
(0.0889701 2.59593e-22 0.0448502)
(0.0206455 -3.90496e-21 0.0523546)
(-0.0314396 -2.66661e-21 0.0476531)
(-0.0617585 1.91759e-22 0.0334356)
(-0.0705041 -3.64395e-22 0.00992118)
(-0.0505013 3.59628e-22 -0.0259947)
(0.00186415 0 -0.0761549)
(0.0862871 7.45052e-21 -0.136968)
(0.19902 -4.74351e-22 -0.205455)
(0.33788 4.45447e-21 -0.28196)
(0.498851 -5.59617e-22 -0.367985)
(0.67791 -4.62406e-21 -0.46813)
(0.878569 3.12803e-22 -0.590897)
(1.08833 1.68995e-21 -0.754309)
(-0.017246 2.45224e-20 -0.378338)
(-0.173101 0 -0.394096)
(-0.0377597 0 -0.434052)
(0.056292 7.95825e-21 -0.422766)
(0.143914 5.88552e-22 -0.402025)
(0.1973 -2.63941e-21 -0.372692)
(0.210221 2.58e-21 -0.335738)
(0.185073 4.9404e-22 -0.292141)
(0.128711 1.74195e-21 -0.244382)
(0.0475914 3.68165e-21 -0.194287)
(-0.051561 -6.4067e-22 -0.143312)
(-0.160916 -4.97131e-21 -0.0929967)
(-0.277931 2.93919e-21 -0.0441489)
(-0.403399 -8.96139e-21 -0.000956604)
(-0.504157 -5.88161e-21 0.0314227)
(-0.582721 0 0.0514136)
(-0.648518 0 0.0592221)
(-0.69683 3.90493e-21 0.0556212)
(-0.725169 1.11481e-21 0.0399756)
(-0.730679 0 0.0118064)
(-0.711844 -1.32534e-21 -0.0297124)
(-0.662704 2.88598e-22 -0.0846437)
(-0.588301 0 -0.151323)
(-0.491251 -3.31063e-21 -0.226632)
(-0.373899 6.28655e-21 -0.308509)
(-0.241372 -8.00928e-21 -0.396577)
(-0.0960327 0 -0.493161)
(0.061967 0 -0.604908)
(0.214508 5.17639e-21 -0.733945)
(0.313667 0 -0.904708)
(-0.020619 0 -0.421896)
(-0.25815 1.702e-20 -0.408224)
(-0.156628 -1.60177e-20 -0.45557)
(-0.132392 1.68406e-20 -0.429429)
(-0.126621 -1.10739e-20 -0.393904)
(-0.154025 1.36187e-21 -0.351318)
(-0.216481 0 -0.303687)
(-0.304574 3.83716e-22 -0.252487)
(-0.409897 -1.75184e-21 -0.199576)
(-0.525864 0 -0.146423)
(-0.64795 3.65506e-21 -0.0939023)
(-0.775217 4.9228e-21 -0.0434348)
(-0.892924 0 0.000802458)
(-0.985788 0 0.0345863)
(-1.06757 5.67039e-21 0.0575528)
(-1.135 -2.51392e-21 0.0692673)
(-1.18594 7.34971e-21 0.0681994)
(-1.21763 0 0.0535109)
(-1.22788 0 0.0247441)
(-1.21473 0 -0.0184951)
(-1.17682 1.02396e-21 -0.0764931)
(-1.11337 3.73936e-22 -0.147423)
(-1.02938 -2.86008e-21 -0.2284)
(-0.928667 -5.48413e-22 -0.316207)
(-0.815245 -6.71803e-21 -0.408235)
(-0.694881 6.03507e-21 -0.503849)
(-0.573291 5.72171e-21 -0.60399)
(-0.459025 4.0515e-22 -0.710867)
(-0.370289 -5.16088e-21 -0.831774)
(-0.34193 -1.41028e-21 -0.972071)
(-0.0137324 3.79787e-22 -0.457616)
(-0.329873 -1.51808e-20 -0.400049)
(-0.27023 1.15702e-20 -0.441582)
(-0.320229 -9.4355e-22 -0.39551)
(-0.38436 -4.89288e-21 -0.346768)
(-0.476932 7.25661e-21 -0.295223)
(-0.590673 -7.60318e-22 -0.242335)
(-0.715978 1.78711e-21 -0.18924)
(-0.846431 -1.67172e-21 -0.136306)
(-0.978122 0 -0.0839737)
(-1.107 -6.79944e-21 -0.0344383)
(-1.21811 5.89578e-22 0.00795892)
(-1.31486 -4.61438e-21 0.0422876)
(-1.4005 2.78032e-21 0.0678793)
(-1.47308 -8.35501e-21 0.0827446)
(-1.53001 0 0.0847716)
(-1.56906 5.41883e-22 0.0725664)
(-1.58817 0 0.0453034)
(-1.5859 3.17689e-21 0.00256639)
(-1.56142 6.53515e-22 -0.055584)
(-1.51375 -1.91709e-23 -0.128181)
(-1.44572 -6.34186e-23 -0.212278)
(-1.361 3.02389e-21 -0.303976)
(-1.26432 -5.19888e-22 -0.399689)
(-1.16086 2.02603e-22 -0.496298)
(-1.0572 -6.02302e-21 -0.592418)
(-0.960726 -5.76267e-21 -0.688403)
(-0.883007 0 -0.786568)
(-0.84296 -3.5205e-23 -0.891238)
(-0.846251 1.44657e-21 -0.991473)
(0.00490022 7.70431e-21 -0.481694)
(-0.387611 -7.60888e-22 -0.366344)
(-0.379515 -2.07042e-20 -0.388832)
(-0.490846 -1.11521e-20 -0.325515)
(-0.611875 7.01189e-21 -0.267544)
(-0.749797 -7.69911e-21 -0.211668)
(-0.894233 -4.9015e-22 -0.159004)
(-1.03786 1.00448e-21 -0.108526)
(-1.17754 -2.81303e-21 -0.0596389)
(-1.30399 2.79851e-21 -0.0149633)
(-1.4145 3.14906e-21 0.0242161)
(-1.51496 7.69151e-21 0.0579923)
(-1.60504 0 0.0848262)
(-1.68327 8.07863e-21 0.102196)
(-1.74754 -2.72949e-21 0.107586)
(-1.79578 0 0.0988394)
(-1.82611 -1.92871e-21 0.0746716)
(-1.837 -1.88538e-21 0.0344906)
(-1.82751 -4.02876e-21 -0.0218754)
(-1.79766 3.9066e-21 -0.0939457)
(-1.74684 -6.76391e-22 -0.179408)
(-1.6794 1.73622e-21 -0.274597)
(-1.59835 -2.86872e-24 -0.374813)
(-1.50875 0 -0.475648)
(-1.41657 -2.15091e-21 -0.573266)
(-1.32891 2.90483e-21 -0.665415)
(-1.25424 0 -0.751902)
(-1.20519 8.95105e-23 -0.835345)
(-1.19585 -8.86042e-23 -0.919572)
(-1.21323 0 -0.991682)
(0.0370838 -8.54199e-21 -0.489865)
(-0.42903 2.84769e-20 -0.302828)
(-0.474959 -1.3642e-20 -0.299743)
(-0.63546 -5.67377e-21 -0.225182)
(-0.797695 1.19535e-21 -0.162986)
(-0.961664 7.78892e-21 -0.108443)
(-1.11881 -1.34025e-21 -0.0602641)
(-1.26147 -3.50867e-22 -0.0183522)
(-1.38717 9.8701e-23 0.0185571)
(-1.50097 0 0.0527962)
(-1.60428 0 0.0840768)
(-1.69777 -6.86803e-21 0.110504)
(-1.78056 1.36329e-20 0.129361)
(-1.85132 -7.26255e-21 0.137789)
(-1.90845 3.44188e-21 0.13312)
(-1.95022 -3.25976e-21 0.113258)
(-1.97501 7.51866e-21 0.0770148)
(-1.98156 2.53973e-21 0.0240626)
(-1.96913 -6.69922e-21 -0.0452957)
(-1.93766 -3.04421e-21 -0.13)
(-1.88822 -1.10295e-21 -0.226922)
(-1.82419 -1.64276e-21 -0.331584)
(-1.74878 0 -0.438588)
(-1.66698 9.14383e-23 -0.542508)
(-1.58516 2.05051e-21 -0.638657)
(-1.51074 -5.5197e-21 -0.724065)
(-1.45284 -1.42942e-22 -0.798415)
(-1.42424 0 -0.86494)
(-1.43406 -1.90442e-21 -0.927681)
(-1.45901 -3.49311e-22 -0.97697)
(0.0857536 2.86101e-21 -0.477652)
(-0.450385 -1.65108e-20 -0.205395)
(-0.550306 -2.91965e-21 -0.179218)
(-0.746172 9.68931e-21 -0.0996824)
(-0.930268 -1.90334e-22 -0.0380074)
(-1.09844 -5.73869e-21 0.00754814)
(-1.24592 -3.01882e-21 0.0407191)
(-1.37628 3.90971e-21 0.0692465)
(-1.49249 0 0.0965045)
(-1.59733 -8.95543e-22 0.12275)
(-1.69208 -3.74446e-21 0.146481)
(-1.777 -1.94168e-22 0.165201)
(-1.85165 -8.70023e-21 0.175831)
(-1.91518 0 0.175289)
(-1.96639 -6.21006e-21 0.160767)
(-2.00378 3.75685e-21 0.130119)
(-2.02582 1.49085e-21 0.0822003)
(-2.03128 2.88504e-21 0.0169533)
(-2.01944 8.57933e-21 -0.0647347)
(-1.98981 0 -0.161057)
(-1.94449 0 -0.268382)
(-1.88581 -5.67683e-21 -0.381536)
(-1.81703 0 -0.494272)
(-1.74286 0 -0.600057)
(-1.66979 0 -0.693242)
(-1.6054 2.82188e-21 -0.770227)
(-1.55938 -2.04572e-23 -0.830794)
(-1.54449 1.65359e-21 -0.879016)
(-1.56627 1.87905e-21 -0.920262)
(-1.5956 2.80497e-22 -0.950529)
(0.161213 -3.0681e-21 -0.433398)
(-0.455065 -6.8143e-22 -0.0711473)
(-0.597381 3.86518e-21 -0.0275651)
(-0.808254 9.03595e-23 0.0483633)
(-0.991047 0 0.0929576)
(-1.14957 -6.31402e-21 0.120276)
(-1.28586 8.45924e-21 0.139607)
(-1.404 -1.35422e-21 0.157005)
(-1.50785 -8.92024e-22 0.175116)
(-1.60065 4.83303e-22 0.193539)
(-1.68406 0 0.209916)
(-1.7586 9.43168e-21 0.221215)
(-1.82426 -3.52453e-21 0.224124)
(-1.88063 0 0.21534)
(-1.92687 3.88867e-21 0.191834)
(-1.96165 -2.16831e-20 0.151276)
(-1.98341 -2.81745e-20 0.0924866)
(-1.99072 -8.63703e-21 0.0156807)
(-1.98258 -2.32625e-21 -0.0776099)
(-1.95791 2.29997e-21 -0.18477)
(-1.91924 -9.30563e-22 -0.301836)
(-1.86787 2.2264e-20 -0.423011)
(-1.80683 0 -0.541103)
(-1.74031 -1.71075e-22 -0.648361)
(-1.67462 2.50253e-22 -0.738051)
(-1.61748 -8.01208e-23 -0.805894)
(-1.57911 -2.97393e-22 -0.851755)
(-1.57262 -1.6509e-21 -0.880671)
(-1.60161 -2.31348e-23 -0.900287)
(-1.63358 -2.25375e-22 -0.913374)
(0.253426 -8.32291e-21 -0.347058)
(-0.433008 5.07643e-21 0.104455)
(-0.606462 -8.26831e-22 0.13953)
(-0.814083 -9.4737e-23 0.194429)
(-0.98699 0 0.221733)
(-1.13189 -5.37209e-21 0.232093)
(-1.25154 -2.90868e-22 0.236042)
(-1.35145 -2.96851e-21 0.241493)
(-1.43749 0 0.25088)
(-1.51404 -8.88059e-22 0.262398)
(-1.58313 1.21844e-22 0.272472)
(-1.6453 0 0.277476)
(-1.70075 0 0.273963)
(-1.74948 0 0.258446)
(-1.79103 4.41805e-21 0.227567)
(-1.8243 8.34812e-21 0.178657)
(-1.84772 2.19914e-20 0.110344)
(-1.8596 -1.45854e-22 0.0230282)
(-1.85841 -2.26069e-20 -0.0810945)
(-1.84211 1.35901e-21 -0.198507)
(-1.81314 -2.43592e-20 -0.324972)
(-1.77191 -1.46334e-20 -0.454177)
(-1.72082 -1.00049e-21 -0.577967)
(-1.66313 1.20967e-20 -0.687215)
(-1.60461 0 -0.773873)
(-1.55301 0 -0.832821)
(-1.51899 2.82295e-22 -0.863754)
(-1.51669 -1.72738e-22 -0.872612)
(-1.54952 2.85484e-22 -0.869903)
(-1.5831 2.89877e-22 -0.865894)
(0.371624 2.76974e-20 -0.201131)
(-0.391085 -2.2364e-20 0.285715)
(-0.582181 -8.33186e-22 0.301528)
(-0.774957 8.47472e-22 0.342829)
(-0.930812 -5.49948e-21 0.34951)
(-1.05423 5.40118e-21 0.337369)
(-1.14817 3.17288e-21 0.322931)
(-1.22143 9.24591e-21 0.316543)
(-1.28332 -8.23302e-21 0.319272)
(-1.33939 3.06001e-21 0.326224)
(-1.39119 0 0.331923)
(-1.43866 0 0.33241)
(-1.482 0 0.324428)
(-1.52164 -3.99518e-21 0.304399)
(-1.5576 -1.07431e-21 0.268517)
(-1.58915 4.94957e-21 0.213614)
(-1.61499 -2.66423e-20 0.137956)
(-1.63348 -2.89008e-20 0.0418543)
(-1.6425 2.19759e-20 -0.0719928)
(-1.6384 3.40848e-21 -0.198992)
(-1.62306 2.29722e-20 -0.334631)
(-1.59616 0 -0.47222)
(-1.55906 0 -0.602642)
(-1.51363 -2.71752e-20 -0.715323)
(-1.46439 0 -0.800605)
(-1.41861 -5.55403e-21 -0.852169)
(-1.38716 4.40119e-24 -0.868954)
(-1.38585 -6.20146e-24 -0.857378)
(-1.4198 -2.62543e-22 -0.830986)
(-1.45425 -2.72526e-25 -0.808283)
(0.477173 -7.78374e-21 0.161676)
(-0.313174 0 0.470196)
(-0.527256 1.74258e-21 0.474411)
(-0.696731 -1.72771e-21 0.496248)
(-0.831941 0 0.47051)
(-0.924566 0 0.426105)
(-0.980053 -9.86171e-21 0.389738)
(-1.01551 1.41375e-20 0.374037)
(-1.04645 -4.39329e-21 0.37537)
(-1.07875 -4.33713e-21 0.382033)
(-1.111 -1.31523e-21 0.385885)
(-1.14122 -1.75183e-21 0.383831)
(-1.16962 4.81346e-21 0.373765)
(-1.19745 -1.8609e-20 0.352116)
(-1.22524 2.12022e-20 0.31436)
(-1.25265 2.62125e-20 0.25676)
(-1.279 3.03562e-20 0.177215)
(-1.30361 2.51882e-20 0.0754322)
(-1.32471 0 -0.0462463)
(-1.33659 0 -0.182013)
(-1.33944 8.83453e-22 -0.326477)
(-1.33272 -8.72933e-22 -0.472733)
(-1.31626 0 -0.61078)
(-1.29005 3.27376e-20 -0.72905)
(-1.25593 1.17595e-20 -0.816005)
(-1.21968 5.55064e-21 -0.863403)
(-1.19169 0 -0.868564)
(-1.18975 6.32062e-22 -0.837237)
(-1.22248 7.87753e-22 -0.785396)
(-1.25693 0 -0.740474)
(0.776952 8.94858e-20 -0.475866)
(-0.336446 -5.30655e-20 0.472831)
(-0.427196 0 0.716233)
(-0.589079 0 0.692463)
(-0.708624 0 0.592499)
(-0.756176 -6.27197e-21 0.487071)
(-0.752578 -8.00218e-22 0.420213)
(-0.734167 6.81148e-21 0.402437)
(-0.727781 0 0.413946)
(-0.735829 2.99482e-21 0.427091)
(-0.747875 0 0.431355)
(-0.757985 1.64341e-21 0.428196)
(-0.767473 0 0.418538)
(-0.779436 1.5577e-20 0.398498)
(-0.794786 -2.12209e-20 0.362015)
(-0.812834 -5.53462e-20 0.304867)
(-0.833494 3.37128e-20 0.225377)
(-0.857959 -3.68408e-20 0.122785)
(-0.886999 -4.05893e-20 -0.00227012)
(-0.916182 -3.57299e-20 -0.143686)
(-0.939788 -3.57327e-20 -0.294885)
(-0.960343 0 -0.448833)
(-0.9747 0 -0.594856)
(-0.979817 -3.73244e-20 -0.721346)
(-0.97275 -2.44921e-20 -0.814259)
(-0.955967 3.25676e-23 -0.862898)
(-0.937823 -2.89853e-23 -0.862029)
(-0.937176 -4.57037e-22 -0.813948)
(-0.966842 1.35814e-21 -0.735011)
(-0.99999 0 -0.66185)
(9.99708 6.4421e-19 0.0829659)
(9.98759 6.69045e-19 0.162582)
(9.97199 0 0.242005)
(9.95067 0 0.323343)
(9.92407 3.80569e-19 0.407874)
(9.89252 0 0.496802)
(9.85643 4.11052e-19 0.591448)
(9.8162 4.23665e-19 0.692953)
(9.77202 -2.18227e-19 0.802338)
(9.72426 4.56988e-19 0.920754)
(9.67334 -7.06435e-19 1.04943)
(9.61974 -4.87249e-19 1.18962)
(9.56412 1.2505e-18 1.34261)
(9.50734 -1.54438e-18 1.50992)
(9.4501 7.89444e-19 1.69323)
(9.39348 0 1.89448)
(9.33914 0 2.1158)
(9.28864 1.67241e-18 2.35964)
(9.24415 -2.52324e-21 2.62893)
(9.20838 -1.69932e-18 2.92716)
(9.18485 0 3.25839)
(9.1775 0 3.62756)
(9.19211 2.15748e-18 4.0411)
(9.23676 -1.05809e-18 4.50657)
(9.32219 1.93487e-18 5.03068)
(9.45178 -1.88295e-18 5.62632)
(9.69347 3.24435e-18 6.28653)
(9.89843 -1.51792e-18 7.08748)
(10.9261 1.25268e-18 7.8085)
(12.0674 -6.11744e-19 10.8076)
(9.9972 -6.27616e-19 0.0858634)
(9.98888 -6.11055e-19 0.168328)
(9.97514 -3.80776e-19 0.250584)
(9.95637 -8.84775e-20 0.334787)
(9.93309 9.17874e-20 0.422266)
(9.9054 0 0.514236)
(9.87388 0 0.611987)
(9.83907 -2.06252e-19 0.716625)
(9.80112 -8.48113e-19 0.829189)
(9.76044 6.59723e-19 0.950835)
(9.71757 -1.13208e-18 1.08275)
(9.67308 6.98329e-19 1.2261)
(9.62768 -2.41358e-19 1.38214)
(9.58228 2.47804e-19 1.55231)
(9.53784 -2.53787e-19 1.73824)
(9.49565 1.54032e-18 1.94173)
(9.45731 -5.27143e-19 2.16475)
(9.42452 -9.46011e-21 2.40955)
(9.39965 -5.28354e-19 2.67877)
(9.38576 1.06835e-18 2.97557)
(9.38675 0 3.30361)
(9.40669 2.0667e-18 3.66712)
(9.4522 -4.91949e-20 4.07144)
(9.53169 -4.83573e-18 4.52195)
(9.65661 3.64699e-18 5.02289)
(9.83473 -1.73599e-18 5.58051)
(10.1255 0 6.18517)
(10.4222 1.28732e-18 6.84876)
(11.1163 -3.05062e-20 7.43086)
(11.9471 -1.64874e-20 8.4678)
(9.99741 0 0.0885142)
(9.99025 3.9433e-20 0.173514)
(9.97841 2.88487e-19 0.258311)
(9.96229 0 0.345066)
(9.94242 0 0.435165)
(9.91877 1.85003e-19 0.529841)
(9.89206 -5.72891e-19 0.630298)
(9.86284 0 0.737603)
(9.83124 4.11326e-19 0.852828)
(9.79779 2.12347e-19 0.977114)
(9.76308 2.18903e-19 1.11157)
(9.72777 -2.25266e-19 1.25732)
(9.69265 0 1.41553)
(9.65868 4.68294e-19 1.58754)
(9.62696 0 1.77487)
(9.59892 -1.4729e-18 1.97918)
(9.57633 -4.99181e-19 2.20231)
(9.56098 9.95513e-19 2.44621)
(9.55519 1.00772e-18 2.71314)
(9.5623 -5.08438e-19 3.00579)
(9.58621 4.91628e-19 3.32715)
(9.63149 0 3.6807)
(9.70505 0 4.07009)
(9.81452 9.21244e-19 4.49802)
(9.97062 0 4.96541)