/*--------------------------------*- C++ -*----------------------------------*\
| =========                 |                                                 |
| \\      /  F ield         | OpenFOAM: The Open Source CFD Toolbox           |
|  \\    /   O peration     | Version:  dev                                   |
|   \\  /    A nd           | Web:      www.OpenFOAM.org                      |
|    \\/     M anipulation  |                                                 |
\*---------------------------------------------------------------------------*/
FoamFile
{
    version     2.0;
    format      ascii;
    class       surfaceVectorField;
    location    "1.41";
    object      Uf;
}
// * * * * * * * * * * * * * * * * * * * * * * * * * * * * * * * * * * * * * //

dimensions      [0 1 -1 0 0 0 0];

internalField   nonuniform List<vector> 
5457
(
(9.91538 0 0.0203186)
(9.97041 0 0.0347838)
(9.82956 0 0.0246954)
(9.93701 0 0.0364057)
(9.73889 1.64922e-20 0.0278846)
(9.8856 -3.06434e-20 0.039996)
(9.64058 7.12825e-21 0.0311764)
(9.82053 4.0289e-21 0.0451014)
(9.53442 -1.73927e-20 0.034537)
(9.74634 4.2658e-21 0.0506216)
(9.42052 -1.35266e-20 0.0379911)
(9.6639 5.73579e-23 0.0564222)
(9.29858 3.86604e-22 0.0416597)
(9.57264 -2.32398e-20 0.0626974)
(9.16804 1.00706e-20 0.0456618)
(9.47188 -2.4403e-20 0.0696363)
(9.02815 1.06588e-20 0.0501063)
(9.36098 1.0302e-20 0.0773979)
(8.87796 -1.21945e-20 0.0551038)
(9.23921 -5.31913e-21 0.0861548)
(8.71637 -1.70996e-20 0.0607712)
(9.10564 1.70426e-20 0.0960935)
(8.5421 1.59223e-20 0.0672407)
(8.95915 -2.39543e-20 0.107417)
(8.35371 1.70633e-21 0.0746708)
(8.79843 1.26548e-20 0.120368)
(8.14951 -1.35906e-20 0.0832508)
(8.62198 -1.02488e-20 0.13524)
(7.92758 1.29452e-20 0.0932061)
(8.42807 -2.03767e-21 0.152381)
(7.68576 1.27445e-20 0.104805)
(8.21471 1.48179e-20 0.172196)
(7.42156 3.46155e-20 0.118368)
(7.97963 -7.80821e-21 0.195163)
(7.13219 -2.37684e-21 0.134273)
(7.72024 -1.00039e-19 0.221838)
(6.81455 -7.34857e-20 0.152974)
(7.43363 -3.86659e-20 0.252863)
(6.46513 2.52145e-21 0.175017)
(7.1165 1.08222e-19 0.288972)
(6.08006 3.88655e-20 0.201064)
(6.76511 3.94766e-20 0.331004)
(5.65507 4.54851e-20 0.231919)
(6.37527 0 0.379905)
(5.1855 1.41758e-19 0.268593)
(5.94228 1.76359e-21 0.436732)
(4.66618 -5.50557e-20 0.31244)
(5.46082 9.61449e-20 0.502684)
(4.0913 -1.99812e-19 0.365401)
(4.92476 1.96343e-19 0.57918)
(3.45377 -5.19097e-20 0.430487)
(4.3265 -5.07013e-19 0.668041)
(2.74403 4.54603e-19 0.513083)
(3.65601 0 0.771767)
(1.94678 -8.29605e-20 0.626436)
(2.89853 4.518e-19 0.893958)
(1.02352 -7.89569e-19 0.796551)
(2.00953 -2.21489e-18 1.04428)
(1.17477 1.79686e-18 1.20117)
(10.0092 0 0.0386634)
(10.0023 0 0.0309594)
(9.99177 -3.13418e-20 0.0477167)
(9.99884 0 0.0436967)
(9.96299 -4.22935e-20 0.0548028)
(9.98058 -1.46754e-22 0.0525815)
(9.92402 1.20391e-21 0.0626439)
(9.94869 -1.2062e-20 0.0628588)
(9.87464 2.15869e-20 0.0711055)
(9.90657 1.27262e-20 0.0740373)
(9.81489 -1.0156e-20 0.0801736)
(9.85525 2.65508e-20 0.0858855)
(9.7446 -4.80601e-20 0.0900928)
(9.79437 -1.87064e-20 0.0987089)
(9.66334 -2.34975e-20 0.101126)
(9.72338 2.92704e-20 0.112859)
(9.57049 -5.97329e-21 0.113527)
(9.64175 -2.53518e-20 0.128645)
(9.46526 2.43291e-20 0.127566)
(9.54885 -4.29399e-20 0.146409)
(9.34668 9.41613e-21 0.143537)
(9.4439 3.35865e-22 0.166525)
(9.21357 -2.65378e-20 0.161774)
(9.32588 -2.37613e-20 0.189398)
(9.06462 2.81084e-22 0.182679)
(9.19367 -1.56678e-20 0.215513)
(8.89824 1.47807e-21 0.206733)
(9.04592 -5.33234e-20 0.24546)
(8.71261 1.6573e-22 0.234506)
(8.88107 5.51515e-20 0.279939)
(8.50565 -6.12322e-21 0.266665)
(8.69734 1.85267e-21 0.319775)
(8.27495 -1.44029e-19 0.303996)
(8.49265 -1.25379e-19 0.365938)
(8.01777 -1.35184e-19 0.347417)
(8.26464 -4.61629e-21 0.419573)
(7.73098 1.45559e-19 0.397987)
(8.01059 1.36471e-19 0.482029)
(7.411 1.44092e-19 0.456929)
(7.72739 -3.42195e-20 0.554875)
(7.0537 0 0.52567)
(7.41142 0 0.639942)
(6.65441 -4.45646e-20 0.605858)
(7.05848 2.48929e-19 0.739374)
(6.20768 -4.33263e-20 0.699423)
(6.66362 -3.82265e-19 0.855677)
(5.70703 3.50408e-19 0.808767)
(6.22089 -8.9244e-20 0.991873)
(5.14438 -1.10723e-19 0.937235)
(5.72294 -2.28652e-19 1.15183)
(4.50864 -4.48519e-19 1.09016)
(5.15991 4.25408e-19 1.34105)
(3.78296 0 1.27748)
(4.51791 0 1.56841)
(2.93661 -1.60624e-18 1.52093)
(3.77471 1.65732e-18 1.85126)
(1.91538 5.20151e-19 1.93374)
(2.90165 -4.85356e-18 2.2203)
(1.84218 4.3584e-18 2.88302)
(10.0023 0 0.0385011)
(10 -5.75126e-20 0.0300295)
(9.98892 3.13164e-20 0.0518195)
(9.99419 5.46153e-21 0.0494181)
(9.96389 2.99416e-20 0.0635249)
(9.97711 3.44626e-20 0.0636874)
(9.92973 0 0.0764094)
(9.94811 4.80175e-20 0.0786138)
(9.88653 1.7967e-20 0.0904566)
(9.90947 -8.50137e-21 0.0947426)
(9.83414 1.71158e-20 0.105671)
(9.86221 -1.79261e-20 0.111955)
(9.77236 5.96192e-20 0.122372)
(9.80617 3.68615e-20 0.130611)
(9.70083 2.63464e-20 0.140934)
(9.74088 5.88631e-20 0.151169)
(9.61904 -6.26919e-20 0.161751)
(9.66589 -9.17338e-20 0.174069)
(9.5263 -6.61241e-20 0.185255)
(9.58067 3.19565e-20 0.199805)
(9.42177 -3.33234e-20 0.211915)
(9.48457 -1.13787e-20 0.228906)
(9.30447 -1.27412e-20 0.242278)
(9.37675 7.18634e-20 0.261948)
(9.17326 -6.99409e-20 0.277001)
(9.25627 -9.88762e-20 0.299626)
(9.02681 2.34298e-21 0.316879)
(9.12204 -5.66419e-20 0.342785)
(8.86358 5.59085e-20 0.362848)
(8.97279 5.69007e-20 0.392432)
(8.68178 -1.19614e-19 0.416019)
(8.80707 0 0.449756)
(8.47937 1.61149e-20 0.477704)
(8.6232 -1.17588e-19 0.516169)
(8.25399 2.6951e-19 0.549459)
(8.41928 4.06718e-19 0.593352)
(8.00292 -4.58566e-20 0.633119)
(8.19311 -1.63234e-19 0.683311)
(7.72298 -1.77726e-19 0.730837)
(7.94217 -1.80003e-19 0.788443)
(7.41041 2.52408e-19 0.845165)
(7.66349 -3.05798e-19 0.911622)
(7.06072 -9.6933e-20 0.979146)
(7.35353 -6.41002e-20 1.05631)
(6.66837 -4.24037e-19 1.13648)
(7.00794 -9.29616e-19 1.22675)
(6.22642 -6.68308e-19 1.3219)
(6.62123 -1.0261e-19 1.42823)
(5.72569 3.03211e-19 1.54194)
(6.18647 2.31532e-19 1.66786)
(5.15299 8.69401e-19 1.80704)
(5.69419 -8.26433e-19 1.95602)
(4.48861 1.64121e-18 2.13696)
(5.13178 1.51438e-18 2.30915)
(3.69292 -1.34635e-18 2.55616)
(4.46924 1.45006e-18 2.76285)
(2.79872 -4.76386e-19 3.22924)
(3.78241 -3.17668e-18 3.30077)
(2.54172 1.71937e-18 4.45743)
(9.99751 -5.07646e-20 0.0413996)
(9.99856 1.09295e-19 0.0310676)
(9.98431 9.2399e-21 0.0606145)
(9.99059 5.46303e-21 0.0550724)
(9.95995 5.28477e-20 0.0779642)
(9.97311 -5.69981e-20 0.0745153)
(9.92652 3.83022e-20 0.0960894)
(9.94485 1.08327e-22 0.094063)
(9.88447 -4.45386e-20 0.115426)
(9.90729 2.49406e-20 0.114935)
(9.83369 2.99738e-21 0.1362)
(9.86131 1.71708e-20 0.137273)
(9.77398 3.65425e-20 0.158857)
(9.80689 3.70053e-20 0.161506)
(9.70507 -6.22354e-20 0.183896)
(9.74369 7.76738e-20 0.188159)
(9.62655 5.24943e-21 0.211858)
(9.67129 -2.04097e-20 0.217777)
(9.53786 8.58845e-20 0.243332)
(9.58926 6.42854e-20 0.25099)
(9.43832 9.53309e-20 0.278947)
(9.49708 2.25648e-20 0.288456)
(9.32716 -1.74751e-20 0.319427)
(9.39408 9.54387e-20 0.330886)
(9.20348 -8.48483e-20 0.365652)
(9.2795 -6.17586e-20 0.379148)
(9.06624 0 0.418675)
(9.15249 0 0.434295)
(8.91424 0 0.479743)
(9.01208 -6.80177e-21 0.497578)
(8.74613 0 0.550339)
(8.85715 -1.78757e-21 0.570475)
(8.56037 2.81852e-19 0.632222)
(8.68649 0 0.654751)
(8.3552 -3.51674e-20 0.727504)
(8.49873 2.77069e-19 0.752518)
(8.12859 -2.97934e-19 0.838733)
(8.29232 -2.3608e-19 0.866325)
(7.8782 -3.09727e-19 0.968984)
(8.06551 9.09921e-22 0.99927)
(7.60123 -6.18506e-19 1.12199)
(7.81629 -3.05318e-19 1.15514)
(7.29423 -9.07171e-19 1.30234)
(7.54224 3.90125e-19 1.33863)
(6.95279 -6.01643e-19 1.51577)
(7.24057 -1.31e-18 1.55567)
(6.57117 7.90488e-19 1.76986)
(6.90746 -5.22484e-19 1.81378)
(6.14189 -8.96469e-19 2.07515)
(6.53808 1.3085e-18 2.12318)
(5.6544 -2.13445e-19 2.44714)
(6.12645 -7.89066e-20 2.49863)
(5.09642 1.3403e-18 2.9148)
(5.66852 7.99757e-20 2.96044)
(4.41881 -1.89087e-19 3.49209)
(5.11497 1.37666e-18 3.56743)
(3.79715 -4.44233e-19 4.34936)
(4.73955 1.15369e-18 4.15666)
(3.35071 -6.13069e-18 5.7419)
(9.99493 1.63517e-19 0.0452228)
(9.99779 5.94075e-20 0.0331666)
(9.98115 -6.22328e-20 0.0690627)
(9.98847 1.11913e-19 0.0609738)
(9.95726 -1.08508e-19 0.0910107)
(9.97058 -1.00667e-22 0.0851423)
(9.92449 -1.27436e-20 0.113564)
(9.94291 -4.79549e-20 0.109221)
(9.88339 8.65331e-20 0.137551)
(9.90646 -3.34197e-20 0.134687)
(9.83393 5.16169e-20 0.163415)
(9.86178 -1.75632e-20 0.161958)
(9.7759 7.89581e-20 0.191689)
(9.80894 3.6578e-20 0.191569)
(9.70906 1.17625e-19 0.222945)
(9.74775 3.88863e-20 0.224093)
(9.63305 4.02468e-20 0.257824)
(9.67775 4.08983e-20 0.260153)
(9.54743 1.71171e-22 0.297032)
(9.59859 -4.22664e-20 0.300502)
(9.45163 2.39847e-20 0.341312)
(9.50991 -4.4318e-20 0.345899)
(9.34504 4.82189e-20 0.39152)
(9.41114 -4.71247e-20 0.397167)
(9.22696 2.42107e-20 0.448701)
(9.3017 1.21635e-19 0.455319)
(9.09657 -6.91916e-21 0.514102)
(9.18092 0 0.521581)
(8.95297 -8.50632e-21 0.5892)
(9.04807 2.04196e-19 0.59739)
(8.79519 -1.75839e-21 0.675754)
(8.90235 -2.24577e-19 0.684444)
(8.62215 -1.58931e-22 0.775868)
(8.74293 0 0.784771)
(8.43271 6.76603e-20 0.892072)
(8.56894 2.36185e-19 0.900814)
(8.22554 6.62723e-20 1.02745)
(8.37947 -2.09249e-19 1.03554)
(7.99919 4.59802e-22 1.18579)
(8.17355 6.90217e-20 1.19257)
(7.75201 7.09996e-19 1.37177)
(7.95016 5.78615e-19 1.37639)
(7.48213 -3.07905e-20 1.59133)
(7.70815 1.29207e-18 1.59263)
(7.1871 -1.22391e-18 1.852)
(7.44672 -7.93378e-19 1.84858)
(6.86373 7.30622e-22 2.16367)
(7.16462 -1.79658e-18 2.15359)
(6.5083 2.10051e-18 2.54006)
(6.8602 1.72725e-18 2.52002)
(6.11614 2.42831e-19 2.99975)
(6.53216 1.58288e-18 2.9655)
(5.69049 8.28631e-20 3.57695)
(6.19168 -1.39652e-18 3.50807)
(5.16214 3.19979e-18 4.26143)
(5.74872 -9.11515e-19 4.24185)
(4.85046 -7.4129e-18 5.19013)
(5.74572 3.42104e-18 4.75927)
(4.23748 -3.15975e-18 6.70472)
(9.99352 8.77539e-21 0.0495138)
(9.99741 -2.21305e-19 0.0358437)
(9.97919 1.71534e-19 0.0774262)
(9.9873 -7.01761e-21 0.0671107)
(9.95581 5.94242e-20 0.103776)
(9.96919 8.3467e-20 0.0955526)
(9.92395 -6.83123e-20 0.130811)
(9.9422 -9.50409e-20 0.123972)
(9.88408 -1.37223e-19 0.15953)
(9.90702 4.94362e-20 0.15387)
(9.83618 -3.15017e-20 0.190519)
(9.86383 -3.54256e-20 0.185896)
(9.78008 -3.45297e-21 0.224376)
(9.81278 3.66003e-20 0.220673)
(9.71557 -3.78424e-20 0.261729)
(9.75388 -7.70633e-20 0.258827)
(9.64234 -4.32292e-20 0.303299)
(9.68662 8.05575e-20 0.301066)
(9.56001 -8.68066e-20 0.349884)
(9.61073 -8.41216e-20 0.348213)
(9.4682 -1.15517e-19 0.402326)
(9.52598 -1.894e-22 0.401102)
(9.36641 2.93296e-20 0.461609)
(9.43189 -8.95508e-22 0.460668)
(9.2541 9.53627e-20 0.528923)
(9.32799 7.79277e-22 0.528055)
(9.13064 2.14574e-19 0.605678)
(9.21383 0 0.604621)
(8.99541 -1.89636e-20 0.693526)
(9.08888 9.95992e-21 0.691944)
(8.84775 -2.19273e-19 0.794437)
(8.95265 1.21379e-20 0.791886)
(8.687 2.39952e-19 0.910772)
(8.80465 0 0.906665)
(8.51253 -4.69202e-20 1.04539)
(8.64444 2.363e-19 1.03896)
(8.32375 -2.02627e-19 1.20176)
(8.47171 -2.919e-19 1.19202)
(8.12005 6.53012e-19 1.38417)
(8.28624 3.47855e-20 1.36986)
(7.90091 1.17129e-18 1.59794)
(8.08804 1.10257e-18 1.57742)
(7.66609 5.0849e-19 1.84996)
(7.87717 1.16142e-18 1.82085)
(7.41565 -1.37099e-18 2.14911)
(7.65469 -8.00373e-22 2.1083)
(7.1496 -7.8713e-20 2.50675)
(7.42233 -1.36052e-18 2.45039)
(6.86892 1.21968e-18 2.9381)
(7.18239 1.29032e-18 2.86041)
(6.57532 0 3.46163)
(6.93737 0 3.35716)
(6.29141 -2.35946e-18 4.11416)
(6.7193 0 3.94912)
(5.91696 -1.79674e-18 4.85327)
(6.37446 -2.39698e-18 4.78416)
(5.88941 4.5068e-18 5.75336)
(6.75037 1.78797e-18 5.1299)
(5.14736 3.52768e-19 7.36889)
(9.99279 -2.32825e-19 0.0540911)
(9.99726 1.0608e-19 0.0388195)
(9.97815 -9.3058e-20 0.0857585)
(9.98678 -4.49289e-21 0.0733789)
(9.95531 -7.49718e-20 0.116246)
(9.9687 2.27019e-20 0.105731)
(9.9245 2.58012e-20 0.147572)
(9.94247 -1.73738e-19 0.138254)
(9.88601 1.49566e-19 0.18081)
(9.90869 6.66437e-20 0.172416)
(9.83981 3.4178e-20 0.216653)
(9.86716 -3.45528e-20 0.209018)
(9.78588 -3.9232e-20 0.255763)
(9.81815 0 0.248706)
(9.72406 4.43752e-20 0.298853)
(9.76183 -3.85012e-20 0.292178)
(9.65408 3.65758e-20 0.346728)
(9.69769 2.00545e-19 0.340252)
(9.57564 4.02956e-21 0.400245)
(9.6256 -2.50211e-19 0.393797)
(9.48843 1.14488e-19 0.46033)
(9.54534 1.30933e-19 0.453709)
(9.39207 -2.93462e-20 0.528079)
(9.45651 -6.75585e-20 0.521021)
(9.28615 -9.46856e-20 0.604799)
(9.35878 2.22577e-20 0.596974)
(9.17028 -2.04459e-19 0.69202)
(9.25186 0 0.683018)
(9.04407 4.07793e-20 0.791523)
(9.13547 -2.27269e-19 0.780832)
(8.90719 2.31412e-19 0.905419)
(9.00943 1.94113e-19 0.892396)
(8.75935 0 1.03623)
(8.87358 1.42001e-20 1.02006)
(8.60042 -1.63003e-20 1.18702)
(8.72787 0 1.16664)
(8.43043 -4.98901e-20 1.36153)
(8.5725 -1.60748e-20 1.33556)
(8.2497 4.9738e-19 1.56439)
(8.40801 -3.3574e-20 1.53105)
(8.05879 1.09783e-18 1.80128)
(8.23536 1.93525e-20 1.75833)
(7.85889 6.4166e-19 2.0795)
(8.05599 2.08039e-20 2.02381)
(7.65242 -2.54649e-21 2.4086)
(7.87226 7.49077e-20 2.33583)
(7.44298 1.00029e-21 2.8006)
(7.68872 1.06843e-18 2.70547)
(7.23636 7.8555e-20 3.27076)
(7.51205 -1.06973e-18 3.14605)
(7.03928 0 3.83441)
(7.34674 0 3.67659)
(6.89449 0 4.52871)
(7.24988 -1.02573e-18 4.28806)
(6.66508 -4.26143e-19 5.27862)
(6.98673 9.74601e-19 5.19992)
(6.86262 -2.39146e-18 6.08386)
(7.71142 4.57706e-20 5.3114)
(6.0272 -3.11753e-19 7.77604)
(9.99247 3.32345e-19 0.0587984)
(9.99726 1.17239e-19 0.0419221)
(9.97782 1.1196e-19 0.0939863)
(9.9867 -6.8624e-21 0.0796556)
(9.95564 -8.03998e-20 0.128336)
(9.96893 0 0.115625)
(9.92602 -1.27838e-19 0.163732)
(9.9437 4.70748e-20 0.152001)
(9.8891 -1.19631e-19 0.201293)
(9.91145 8.15372e-20 0.190232)
(9.84487 -6.80795e-20 0.241762)
(9.87187 -7.22368e-22 0.231191)
(9.79339 0 0.285838)
(9.8253 0 0.275513)
(9.73459 1.22207e-19 0.334327)
(9.77185 -7.5269e-20 0.323971)
(9.66829 -9.46656e-20 0.388115)
(9.71112 1.20021e-19 0.37748)
(9.59424 -1.16492e-19 0.448121)
(9.64315 -2.91683e-19 0.436972)
(9.51218 -5.46055e-20 0.515341)
(9.56777 1.72674e-19 0.503413)
(9.42182 -1.45092e-20 0.590945)
(9.48465 8.92839e-20 0.577894)
(9.32291 1.16705e-19 0.676312)
(9.39359 -1.63021e-19 0.661713)
(9.21527 -2.64555e-20 0.773045)
(9.29449 0 0.756374)
(9.09879 -6.72383e-20 0.883014)
(9.18728 -2.58417e-19 0.863605)
(8.97346 -2.59554e-20 1.00843)
(9.07208 -4.35799e-20 0.985464)
(8.83936 1.40056e-20 1.15194)
(8.9491 -2.28029e-19 1.1244)
(8.69676 0 1.31669)
(8.81863 4.62116e-19 1.28331)
(8.54631 0 1.50655)
(8.68138 -1.49531e-20 1.46566)
(8.38914 -5.0961e-19 1.72629)
(8.53847 4.86886e-19 1.67571)
(8.22699 -1.05593e-18 1.98178)
(8.39179 -1.01652e-18 1.91875)
(8.06239 -5.4522e-19 2.28032)
(8.24408 -5.4766e-19 2.20128)
(7.89961 1.14425e-18 2.6314)
(8.09901 -1.07098e-18 2.53146)
(7.74546 2.4773e-20 3.04691)
(7.96319 2.15115e-18 2.91994)
(7.61033 -1.15625e-18 3.54109)
(7.84732 -1.14036e-18 3.37918)
(7.50391 -9.97258e-19 4.12427)
(7.75622 -1.00123e-18 3.92847)
(7.48646 1.37317e-19 4.83096)
(7.7738 -5.022e-19 4.5354)
(7.39237 1.42852e-18 5.56151)
(7.57842 1.71981e-18 5.49934)
(7.7316 1.95464e-18 6.24051)
(8.59928 -1.88405e-18 5.36119)
(6.83402 2.80431e-18 7.96755)
(9.99243 -2.2463e-19 0.0635081)
(9.99736 -1.02787e-19 0.045043)
(9.97806 -1.18728e-19 0.102009)
(9.98692 -1.21514e-19 0.0858169)
(9.95677 1.28547e-19 0.13996)
(9.96974 -1.4919e-20 0.125132)
(9.92856 2.57296e-19 0.179192)
(9.9457 2.97321e-19 0.165109)
(9.89352 1.9889e-19 0.220845)
(9.91511 6.15788e-22 0.20717)
(9.85167 6.74316e-20 0.265684)
(9.87777 1.02688e-19 0.252215)
(9.80303 -7.67335e-20 0.314441)
(9.83395 0 0.300903)
(9.74752 -7.39097e-20 0.367984)
(9.78364 1.91386e-22 0.354069)
(9.68508 -8.45345e-20 0.427258)
(9.7266 7.12677e-22 0.412653)
(9.61563 5.84514e-21 0.493252)
(9.66298 -2.458e-19 0.477632)
(9.539 3.15251e-19 0.567032)
(9.59277 -8.55854e-20 0.550051)
(9.45503 -6.33022e-20 0.649812)
(9.51573 5.83329e-19 0.631058)
(9.36362 -2.77363e-19 0.74301)
(9.43174 -6.5326e-19 0.721984)
(9.26475 -2.36064e-19 0.848258)
(9.34094 1.92598e-19 0.824354)
(9.15857 -2.31851e-19 0.967462)
(9.24344 -1.81862e-19 0.939894)
(9.0454 -2.48514e-19 1.1029)
(9.13959 3.94231e-19 1.07068)
(8.92568 2.28314e-19 1.25729)
(9.02995 -6.22106e-19 1.21923)
(8.80011 4.41523e-19 1.43382)
(8.91525 9.17268e-19 1.38848)
(8.66984 4.77099e-19 1.63629)
(8.79664 4.44982e-21 1.58183)
(8.53669 -3.17278e-20 1.86943)
(8.67576 5.05953e-19 1.80344)
(8.4034 -5.08774e-19 2.13906)
(8.55521 -5.09268e-19 2.05846)
(8.27389 -1.07291e-18 2.4523)
(8.43874 5.01476e-19 2.35325)
(8.15405 -7.4447e-20 2.81812)
(8.33151 -5.99594e-20 2.69552)
(8.05301 1.01597e-18 3.24745)
(8.24165 -9.35202e-19 3.09507)
(7.98492 -9.82261e-19 3.75308)
(8.18279 7.50009e-19 3.56277)
(7.96123 -6.34863e-19 4.33917)
(8.15885 -1.21961e-18 4.1184)
(8.05233 1.25218e-18 5.03537)
(8.27879 5.49067e-19 4.70523)
(8.09238 -1.31356e-18 5.72512)
(8.14414 -6.08954e-19 5.6906)
(8.47409 3.82008e-18 6.28806)
(9.38965 1.1386e-18 5.34252)
(7.55428 2.24951e-19 7.96682)
(9.99257 0 0.068121)
(9.99755 -6.7713e-21 0.0481047)
(9.9787 -1.5261e-20 0.109732)
(9.98739 7.04985e-21 0.0917687)
(9.95845 1.60684e-19 0.151037)
(9.97095 -1.49302e-20 0.13419)
(9.93175 3.43386e-20 0.19386)
(9.94819 -1.07597e-19 0.177537)
(9.89872 -9.36395e-20 0.239336)
(9.91933 -9.85299e-20 0.223177)
(9.85941 3.32414e-20 0.288259)
(9.88433 -1.02219e-19 0.272013)
(9.81382 7.6982e-20 0.341407)
(9.84338 7.12506e-20 0.324775)
(9.76189 7.48746e-20 0.399674)
(9.79645 1.50015e-19 0.38233)
(9.70363 -1.65034e-19 0.464019)
(9.74342 7.1353e-22 0.445608)
(9.63909 -3.34593e-19 0.535487)
(9.68444 -7.23418e-22 0.515598)
(9.56826 1.93606e-19 0.615212)
(9.6197 -8.62831e-20 0.593418)
(9.49107 -2.67254e-20 0.704451)
(9.54906 1.81963e-19 0.680288)
(9.40755 -1.70083e-19 0.804627)
(9.47253 -3.25781e-19 0.777543)
(9.31791 2.41361e-19 0.917369)
(9.39044 1.50802e-21 0.886673)
(9.22249 4.52674e-19 1.04458)
(9.3031 9.78365e-20 1.0094)
(9.12187 7.51768e-21 1.18854)
(9.21102 6.53172e-19 1.14778)
(9.0169 8.53961e-20 1.35196)
(9.11502 -4.33703e-19 1.30429)
(8.90873 4.71006e-19 1.53802)
(9.01631 1.42233e-20 1.48184)
(8.79899 4.03309e-20 1.75038)
(8.9165 4.69937e-19 1.68376)
(8.69004 2.41441e-20 1.9936)
(8.8177 1.91361e-20 1.91403)
(8.58534 5.09575e-19 2.27321)
(8.72306 2.68683e-21 2.17753)
(8.48996 1.5096e-18 2.59591)
(8.63708 6.18797e-19 2.48016)
(8.41126 -9.10885e-19 2.96988)
(8.5661 1.00766e-18 2.82898)
(8.35999 -1.23659e-18 3.4047)
(8.5194 -7.84582e-19 3.23282)
(8.35282 5.43592e-19 3.91131)
(8.51282 6.78139e-20 3.70055)
(8.4029 -2.01795e-19 4.48769)
(8.5485 -6.76125e-21 4.25211)
(8.58026 -1.25033e-18 5.15809)
(8.75483 1.13016e-18 4.81104)
(8.7565 -6.37063e-19 5.78668)
(8.68206 -1.94816e-18 5.77813)
(9.1023 -2.58616e-18 6.27993)
(10.0634 3.14879e-18 5.3063)
(8.20721 -5.35851e-19 7.80053)
(9.99285 5.68508e-22 0.0725657)
(9.9978 -6.7756e-21 0.0510478)
(9.97962 6.89359e-21 0.117098)
(9.98804 -2.02897e-19 0.0974521)
(9.96045 -2.85369e-19 0.161533)
(9.97244 -1.46869e-20 0.14278)
(9.93532 -2.40409e-19 0.207704)
(9.95101 -1.55951e-19 0.189269)
(9.90435 -1.07163e-19 0.256724)
(9.92398 -9.62171e-20 0.238222)
(9.86766 -6.08907e-20 0.309426)
(9.89141 -6.94291e-20 0.290551)
(9.82527 1.45772e-19 0.366632)
(9.85343 1.41486e-19 0.347054)
(9.77716 7.30973e-20 0.42925)
(9.81006 1.47269e-19 0.408621)
(9.72338 1.65114e-19 0.498234)
(9.76127 0 0.476187)
(9.66403 2.46499e-19 0.574645)
(9.70721 2.06998e-21 0.550721)
(9.59927 -9.35231e-20 0.659682)
(9.64814 2.51122e-19 0.633356)
(9.52918 -1.25423e-19 0.754642)
(9.58411 -1.74974e-19 0.725392)
(9.45394 -1.49069e-19 0.860926)
(9.51538 4.59928e-20 0.828154)
(9.37394 -1.41152e-19 0.980124)
(9.44234 -3.79212e-19 0.94307)
(9.28971 3.05631e-19 1.11411)
(9.36546 -9.95453e-20 1.07186)
(9.20199 1.98566e-19 1.26509)
(9.28542 7.5867e-19 1.21652)
(9.11194 -4.99362e-19 1.43573)
(9.20325 -4.65695e-19 1.37942)
(9.02118 1.67613e-20 1.62908)
(9.12056 -9.74374e-19 1.56332)
(8.93182 4.47103e-19 1.84871)
(9.03933 8.86583e-19 1.77145)
(8.84675 0 2.09888)
(8.96216 4.45504e-19 2.0076)
(8.76997 1.17864e-19 2.38468)
(8.89274 -4.5113e-19 2.27627)
(8.70734 1.1766e-19 2.71214)
(8.8361 2.36517e-21 2.58274)
(8.66725 1.14777e-18 3.08849)
(8.79935 0 2.93326)
(8.66156 5.13863e-19 3.52181)
(8.7924 7.18524e-19 3.33561)
(8.70838 -4.8832e-19 4.0209)
(8.83289 -2.79029e-19 3.79656)
(8.82342 1.26836e-18 4.57873)
(8.92119 2.15145e-19 4.3349)
(9.06633 5.93114e-19 5.21396)
(9.19633 9.92606e-19 4.8628)
(9.37049 -6.37374e-19 5.76629)
(9.19121 -1.15598e-18 5.77074)
(9.65403 6.87508e-19 6.22832)
(10.6182 -8.1677e-19 5.27608)
(8.82126 1.7869e-19 7.54091)
(9.99326 -2.14235e-19 0.0767916)
(9.9981 6.69081e-21 0.0538253)
(9.98076 -2.2035e-19 0.124072)
(9.98884 6.4239e-21 0.102825)
(9.96274 1.11827e-19 0.171423)
(9.97411 -1.46997e-20 0.150872)
(9.93927 -1.03875e-20 0.220691)
(9.95411 9.29371e-20 0.200257)
(9.91049 -5.79402e-20 0.272971)
(9.9291 -6.57697e-22 0.252244)
(9.87655 1.37144e-19 0.329129)
(9.89908 -3.3761e-20 0.307765)
(9.8375 1.43087e-19 0.390031)
(9.86421 2.80754e-22 0.367665)
(9.79338 7.1546e-20 0.456598)
(9.82456 -4.95191e-22 0.432858)
(9.74426 -1.63192e-19 0.529779)
(9.78018 -1.50941e-19 0.504283)
(9.69031 1.06015e-20 0.610613)
(9.73133 -1.60549e-19 0.582883)
(9.6318 1.63015e-19 0.700313)
(9.67818 -8.04157e-20 0.669762)
(9.56904 0 0.800208)
(9.62092 1.6961e-19 0.766232)
(9.50236 -1.90488e-19 0.911679)
(9.56017 -2.65266e-19 0.873639)
(9.43223 -3.34186e-19 1.03627)
(9.49633 -9.65936e-20 0.993382)
(9.35932 3.64092e-19 1.17579)
(9.42992 -5.25665e-19 1.12713)
(9.28462 8.0583e-20 1.33238)
(9.3619 1.08822e-18 1.27678)
(9.20953 -9.46736e-19 1.50851)
(9.29353 -7.16375e-19 1.44453)
(9.13597 -9.02102e-20 1.7071)
(9.2267 -1.79803e-20 1.63299)
(9.06651 8.81723e-19 1.93149)
(9.16363 4.36305e-19 1.84514)
(9.0045 -7.0385e-21 2.18564)
(9.10725 5.51916e-19 2.08454)
(8.95446 -5.66085e-19 2.47413)
(9.06185 -4.52003e-19 2.35529)
(8.92278 -1.15377e-19 2.8022)
(9.03291 -1.1772e-18 2.66196)
(8.91841 -4.32656e-19 3.176)
(9.02788 1.05564e-18 3.00994)
(8.95386 -4.72334e-20 3.60214)
(9.05697 1.67548e-19 3.4059)
(9.04785 4.14778e-19 4.08702)
(9.13923 1.33923e-20 3.85446)
(9.21928 -7.65853e-20 4.61992)
(9.27361 0 4.37161)
(9.51086 -9.33531e-19 5.21317)
(9.5998 4.32554e-19 4.86858)
(9.92214 1.25429e-19 5.68954)
(9.66741 1.83212e-19 5.68737)
(10.1639 -1.15788e-18 6.14394)
(11.0715 -3.88474e-20 5.25433)
(9.42636 -4.12919e-19 7.27961)
(9.99374 2.27488e-19 0.0807634)
(9.99845 2.25431e-19 0.0564055)
(9.98204 2.1176e-19 0.130625)
(9.98977 1.95905e-19 0.107865)
(9.96524 -3.13354e-20 0.180666)
(9.97601 2.17072e-19 0.158433)
(9.94356 1.00766e-19 0.232758)
(9.95757 -3.74055e-22 0.210431)
(9.91716 2.294e-20 0.288008)
(9.93472 1.28233e-19 0.26516)
(9.88612 -1.70127e-19 0.347303)
(9.90742 -1.00769e-19 0.323576)
(9.85056 -1.43466e-19 0.411531)
(9.87581 6.76736e-20 0.386531)
(9.8106 -2.25813e-19 0.481624)
(9.84002 -2.16846e-19 0.454948)
(9.76642 -1.48488e-19 0.558522)
(9.80021 -9.35927e-22 0.529752)
(9.71819 -2.50404e-19 0.643251)
(9.75672 -1.15787e-21 0.611898)
(9.66618 -7.02634e-20 0.736984)
(9.70971 -4.51274e-21 0.702485)
(9.61086 -1.02223e-19 0.84103)
(9.65937 1.69927e-19 0.802723)
(9.55278 -1.69249e-19 0.956783)
(9.60656 -2.64817e-19 0.91395)
(9.49247 -2.93956e-19 1.08575)
(9.55184 1.81781e-19 1.03762)
(9.43075 2.17185e-19 1.22965)
(9.49582 -2.8641e-19 1.17528)
(9.36886 2.71754e-19 1.39044)
(9.43968 4.90066e-19 1.32866)
(9.30851 2.18903e-19 1.57045)
(9.38479 -4.02824e-19 1.49975)
(9.2518 5.12045e-19 1.77234)
(9.3334 4.17983e-19 1.69101)
(9.20149 1.06279e-19 1.99918)
(9.28783 -2.00675e-19 1.9052)
(9.16131 1.05354e-19 2.25457)
(9.25117 -2.0037e-19 2.14549)
(9.13631 -1.06306e-18 2.54257)
(9.22831 0 2.41548)
(9.13322 -2.39262e-20 2.86753)
(9.22489 -1.66273e-18 2.71906)
(9.16121 1.66715e-18 3.23459)
(9.24851 2.43537e-18 3.06085)
(9.23321 2.35219e-19 3.64891)
(9.3096 -5.45371e-19 3.4462)
(9.36766 -4.01464e-19 4.11431)
(9.42793 -1.07012e-18 3.87781)
(9.58593 4.89668e-19 4.61754)
(9.60169 5.78894e-19 4.36782)
(9.91292 9.95814e-19 5.16418)
(9.96261 -4.64737e-19 4.83549)
(10.4068 2.11878e-18 5.57532)
(10.1051 1.1714e-18 5.54865)
(10.6671 6.79808e-19 6.05564)
(11.4484 5.31842e-19 5.23155)
(10.0562 0 7.07785)
(9.99432 1.93245e-19 0.0844446)
(9.99878 2.24532e-19 0.0587492)
(9.98355 2.01683e-19 0.136716)
(9.99077 -2.76747e-20 0.11252)
(9.96811 2.43523e-19 0.189205)
(9.9782 2.1617e-19 0.165401)
(9.94838 2.97128e-20 0.243829)
(9.96146 3.03483e-20 0.219729)
(9.92448 0 0.301744)
(9.94086 -3.15479e-20 0.276901)
(9.89651 1.404e-19 0.363851)
(9.91637 3.27596e-20 0.337906)
(9.86459 -1.07479e-20 0.431033)
(9.88811 -6.70976e-20 0.403575)
(9.82892 1.19112e-20 0.50421)
(9.85626 -7.17656e-20 0.474824)
(9.78972 1.46633e-19 0.584317)
(9.82112 -7.10928e-20 0.55256)
(9.74727 2.44939e-19 0.672388)
(9.78294 7.41054e-20 0.637736)
(9.70184 2.38635e-19 0.76955)
(9.74202 2.43731e-19 0.73147)
(9.65394 9.52036e-22 0.877029)
(9.69869 1.64921e-19 0.834865)
(9.60434 9.24544e-20 0.996213)
(9.65373 8.61347e-20 0.949154)
(9.55375 1.83583e-19 1.1286)
(9.60796 9.03915e-20 1.07584)
(9.5031 -4.98627e-21 1.27575)
(9.5623 9.33422e-20 1.21639)
(9.45378 -1.94697e-19 1.43939)
(9.51791 -9.6154e-20 1.37228)
(9.40765 -1.97591e-19 1.62164)
(9.47617 4.69096e-19 1.54532)
(9.36707 -3.00634e-19 1.82501)
(9.4395 -3.87745e-19 1.73776)
(9.33493 -5.08003e-19 2.05225)
(9.41038 1.90187e-19 1.95217)
(9.3152 -3.05975e-19 2.30648)
(9.39236 8.6487e-20 2.19124)
(9.31326 -5.97796e-19 2.59108)
(9.39035 1.95397e-19 2.45791)
(9.33593 7.61361e-19 2.90972)
(9.4099 5.49213e-19 2.7556)
(9.39243 2.64359e-19 3.26655)
(9.45888 9.9451e-19 3.08812)
(9.4958 -1.84594e-18 3.66519)
(9.54774 -2.55944e-18 3.4593)
(9.66365 -1.43798e-19 4.10701)
(9.69571 6.4763e-19 3.87031)
(9.91883 -2.62432e-19 4.57786)
(9.90183 6.41134e-19 4.32884)
(10.272 -4.76978e-19 5.07555)
(10.284 -5.15257e-19 4.76712)
(10.8258 2.83385e-19 5.43121)
(10.4999 4.08154e-19 5.36697)
(11.1912 -1.36482e-19 5.98245)
(11.7661 -1.06374e-18 5.18624)
(10.735 -1.02733e-19 6.95584)
(9.99489 -1.45084e-21 0.0877952)
(9.99899 5.75597e-21 0.0608645)
(9.98521 -7.8079e-21 0.142272)
(9.9917 1.9897e-19 0.116727)
(9.97133 -1.04007e-21 0.19697)
(9.98049 -1.90786e-19 0.171695)
(9.95363 -3.22065e-20 0.253851)
(9.96557 1.97185e-19 0.228118)
(9.93227 2.46197e-21 0.314132)
(9.94722 8.54066e-20 0.287463)
(9.90738 -1.76749e-19 0.378723)
(9.92554 9.50007e-20 0.350747)
(9.87915 -1.28314e-19 0.448494)
(9.90062 -8.05722e-20 0.418787)
(9.84779 -1.54857e-19 0.524354)
(9.87271 6.98593e-21 0.492482)
(9.81355 -1.41506e-19 0.607221)
(9.84222 -8.7599e-20 0.572737)
(9.77676 7.54137e-20 0.698115)
(9.80934 -6.67701e-20 0.660478)
(9.73786 1.68849e-19 0.798129)
(9.77446 1.5108e-19 0.756781)
(9.69738 2.49383e-19 0.908389)
(9.73823 -1.38014e-19 0.862706)
(9.65615 8.41252e-20 1.03021)
(9.70122 -7.18001e-20 0.979354)
(9.61519 0 1.16505)
(9.66429 0 1.10814)
(9.57556 0 1.31436)
(9.62889 0 1.25052)
(9.53859 5.73991e-19 1.47964)
(9.59605 1.69184e-19 1.40785)
(9.50611 2.73807e-19 1.66278)
(9.56725 7.52295e-19 1.5817)
(9.48067 1.06812e-19 1.86601)
(9.54475 -2.96158e-19 1.77399)
(9.4655 7.85719e-19 2.0918)
(9.53118 2.17983e-19 1.98696)
(9.46472 5.89481e-19 2.34271)
(9.53071 -1.35218e-19 2.2229)
(9.48363 1.34724e-18 2.62147)
(9.54769 3.79213e-19 2.48423)
(9.52905 7.79611e-19 2.93118)
(9.58767 1.17786e-18 2.77381)
(9.61013 -1.77691e-18 3.27487)
(9.65877 -6.05183e-20 3.0945)
(9.73942 -1.42932e-19 3.65458)
(9.77114 -1.44086e-18 3.44874)
(9.93345 1.44574e-18 4.06955)
(9.9422 7.91558e-19 3.83618)
(10.2159 4.70083e-19 4.50584)
(10.1729 5.83755e-20 4.25967)
(10.5885 5.14257e-19 4.95087)
(10.5639 4.98062e-19 4.66552)
(11.1799 -7.55401e-19 5.25349)
(10.8455 -2.24618e-19 5.14819)
(11.734 -1.8074e-18 5.88895)
(12.0511 -5.87759e-19 5.05633)
(12.2019 -1.39687e-19 6.65326)
(0.164581 3.2518e-20 -0.104132)
(0.0697492 -8.67154e-20 -0.102999)
(0.37432 4.24138e-20 -0.0836311)
(0.214924 2.18073e-20 -0.0873207)
(0.761267 0 -0.0743888)
(0.49334 -2.55542e-20 -0.0938673)
(1.37327 -3.96509e-21 -0.0758245)
(1.01003 3.91045e-20 -0.115425)
(1.92354 4.83652e-21 -0.0713981)
(1.6548 -3.44185e-20 -0.117412)
(2.30842 6.44536e-21 -0.0643266)
(2.12205 4.67888e-21 -0.104778)
(2.58989 -3.24639e-22 -0.0588302)
(2.43712 2.07491e-21 -0.0928263)
(2.8188 -2.09779e-21 -0.0564437)
(2.67322 1.33185e-20 -0.0863393)
(3.02344 0 -0.0563463)
(2.86976 -1.6327e-20 -0.085265)
(3.21571 -4.52663e-21 -0.0570591)
(3.04617 3.00044e-21 -0.0866997)
(3.39917 -8.06222e-21 -0.057731)
(3.20996 -1.4559e-21 -0.0883731)
(3.57509 -3.55282e-21 -0.0580701)
(3.36472 -5.36515e-22 -0.0896468)
(3.74364 1.98516e-21 -0.0580014)
(3.51183 -1.69461e-22 -0.0901885)
(3.90462 1.93269e-21 -0.0575125)
(3.65125 5.64582e-22 -0.0899294)
(4.05765 3.59152e-22 -0.0566397)
(3.78279 7.0695e-23 -0.0888419)
(4.2024 4.49089e-22 -0.0554835)
(3.90601 4.37813e-22 -0.087015)
(4.3387 1.54366e-22 -0.0541886)
(4.0206 1.45791e-23 -0.0846357)
(4.46662 1.40725e-22 -0.0529262)
(4.12608 -4.81218e-22 -0.0819297)
(4.58676 6.16373e-22 -0.051847)
(4.22257 7.39436e-22 -0.0792309)
(4.69971 6.19863e-22 -0.0510684)
(4.31148 -4.31823e-22 -0.0766883)
(4.8063 0 -0.0508276)
(4.39295 -1.66367e-21 -0.0744897)
(4.90844 0 -0.0514306)
(4.46756 0 -0.0733495)
(5.00865 1.33122e-21 -0.0529382)
(4.53853 0 -0.0738155)
(5.10908 1.3364e-21 -0.0551652)
(4.60805 -2.78581e-21 -0.0758691)
(5.21175 0 -0.057924)
(4.6786 9.06303e-23 -0.0795166)
(5.31894 -1.36264e-21 -0.0612499)
(4.7539 -1.78609e-22 -0.0850525)
(5.43396 -2.6025e-21 -0.0655175)
(4.83764 -1.66922e-22 -0.093418)
(5.56172 -2.11288e-21 -0.0711007)
(4.93581 -5.47417e-22 -0.106015)
(5.70733 -7.86638e-22 -0.0776953)
(5.05448 -3.67926e-22 -0.123541)
(5.24244 1.98099e-21 -0.144771)
(0.0692907 -1.27919e-19 -0.138598)
(0.000876753 -4.47515e-20 -0.161534)
(0.277618 -6.24885e-20 -0.142906)
(0.101007 -3.5383e-20 -0.165808)
(0.714152 2.70047e-20 -0.167415)
(0.393293 2.51889e-20 -0.196827)
(1.35137 -8.20932e-21 -0.184344)
(0.912068 -4.02499e-20 -0.237972)
(1.89792 -2.73452e-20 -0.172947)
(1.51727 -1.00395e-21 -0.23877)
(2.26789 0 -0.153675)
(1.93682 -7.83393e-21 -0.211529)
(2.52737 1.63052e-20 -0.138477)
(2.20746 8.82699e-21 -0.186501)
(2.72663 -1.38117e-21 -0.130599)
(2.39693 1.95871e-21 -0.171802)