/*--------------------------------*- C++ -*----------------------------------*\
| =========                 |                                                 |
| \\      /  F ield         | OpenFOAM: The Open Source CFD Toolbox           |
|  \\    /   O peration     | Version:  dev                                   |
|   \\  /    A nd           | Web:      www.OpenFOAM.org                      |
|    \\/     M anipulation  |                                                 |
\*---------------------------------------------------------------------------*/
FoamFile
{
    version     2.0;
    format      ascii;
    class       volVectorField;
    location    "0.64";
    object      Force;
}
// * * * * * * * * * * * * * * * * * * * * * * * * * * * * * * * * * * * * * //

dimensions      [1 1 -2 0 0 0 0];

internalField   uniform (0 0 0);

boundaryField
{
    inlet
    {
        type            calculated;
        value           nonuniform 0();
    }
    outlet
    {
        type            calculated;
        value           nonuniform 0();
    }
    flap
    {
        type            calculated;
        value           nonuniform List<vector> 
33
(
(3.65201 -1.9984e-17 -0.314793)
(3.53021 2.35548e-17 -0.639948)
(3.414 1.81308e-17 -0.865469)
(3.30571 8.10357e-18 -0.974211)
(3.22282 -1.31635e-22 -0.9874)
(3.16483 3.91898e-21 -0.925352)
(3.12738 -2.41546e-17 -0.801351)
(3.10914 2.50997e-17 -0.631328)
(3.09833 -5.87747e-39 -0.445333)
(3.07967 -2.17289e-18 -0.274856)
(3.03456 0 -0.132212)
(2.94828 -2.55427e-19 -0.0234522)
(2.79483 1.20232e-22 0.0435429)
(2.5106 -1.65026e-17 0.0700082)
(1.92745 -1.60589e-17 0.0592717)
(-0.0102253 7.93681e-18 0.595693)
(-0.0139856 6.99854e-20 0.417334)
(-0.00389702 8.09111e-18 0.171053)
(-0.46066 1.26568e-17 0.0401097)
(-0.472031 6.93721e-19 0.0871865)
(-0.47731 -5.38538e-22 0.122614)
(-0.473673 -1.54852e-17 0.141011)
(-0.452799 -1.31578e-21 0.140514)
(-0.407266 1.37498e-21 0.121268)
(-0.331994 1.66733e-17 0.087896)
(-0.229002 3.04935e-19 0.0502392)
(-0.115035 -1.51563e-19 0.020803)
(-0.0162672 1.77759e-17 0.00583514)
(0.0470349 0 0.00226867)
(0.0687457 1.72136e-17 0.00358012)
(0.053426 1.6846e-17 0.00470316)
(0.0118774 -5.73972e-42 0.00387094)
(-0.0436199 1.62191e-17 0.00166357)
)
;
    }
    upperWall
    {
        type            calculated;
        value           nonuniform 0();
    }
    lowerWall
    {
        type            calculated;
        value           uniform (0 0 0);
    }
    frontAndBack
    {
        type            empty;
    }
    procBoundary4to1
    {
        type            processor;
        value           uniform (0 0 0);
    }
    procBoundary4to2
    {
        type            processor;
        value           uniform (0 0 0);
    }
    procBoundary4to3
    {
        type            processor;
        value           uniform (0 0 0);
    }
    procBoundary4to5
    {
        type            processor;
        value           uniform (0 0 0);
    }
}


// ************************************************************************* //
