/*--------------------------------*- C++ -*----------------------------------*\
| =========                 |                                                 |
| \\      /  F ield         | OpenFOAM: The Open Source CFD Toolbox           |
|  \\    /   O peration     | Version:  dev                                   |
|   \\  /    A nd           | Web:      www.OpenFOAM.org                      |
|    \\/     M anipulation  |                                                 |
\*---------------------------------------------------------------------------*/
FoamFile
{
    version     2.0;
    format      ascii;
    class       volVectorField;
    location    "2.17";
    object      Force;
}
// * * * * * * * * * * * * * * * * * * * * * * * * * * * * * * * * * * * * * //

dimensions      [1 1 -2 0 0 0 0];

internalField   uniform (0 0 0);

boundaryField
{
    inlet
    {
        type            calculated;
        value           uniform (0 0 0);
    }
    outlet
    {
        type            calculated;
        value           uniform (0 0 0);
    }
    flap
    {
        type            calculated;
        value           nonuniform List<vector> 
33
(
(2.7756 -3.52648e-38 -0.271167)
(2.68778 1.36498e-17 -0.622526)
(2.51295 -5.18199e-22 -0.926315)
(2.27883 -1.96882e-17 -1.12053)
(2.03186 1.21681e-17 -1.22022)
(1.80428 5.97896e-21 -1.25087)
(1.60988 1.79477e-17 -1.23724)
(1.45019 1.73701e-17 -1.19816)
(1.31696 -2.71892e-22 -1.14334)
(1.20093 -3.48978e-21 -1.07665)
(1.0936 3.72589e-22 -0.999188)
(0.985135 -6.16002e-22 -0.908785)
(0.865577 1.44033e-17 -0.801274)
(0.724255 2.35099e-38 -0.66905)
(0.54404 -1.17549e-38 -0.502644)
(0.478246 -7.62634e-21 0.509748)
(0.279429 6.26144e-21 0.300301)
(0.0936135 8.52674e-22 0.101642)
(-0.0438002 1.10339e-17 0.00440092)
(-0.0435215 -6.78756e-20 0.010181)
(-0.0427538 1.19965e-17 0.0159283)
(-0.0417054 -2.0595e-23 0.0206449)
(-0.0406415 3.09874e-24 0.0245529)
(-0.0398058 1.37651e-19 0.0277364)
(-0.0393749 2.15486e-23 0.0303714)
(-0.0394461 8.49337e-24 0.0326785)
(-0.0401976 1.53659e-17 0.034962)
(-0.0417979 1.50812e-17 0.0375296)
(-0.0442852 1.56835e-17 0.040558)
(-0.0477238 -1.60935e-17 0.0442616)
(-0.051852 -1.17549e-38 0.0485541)
(-0.0556717 -4.11064e-19 0.0525588)
(-0.0509467 -3.79936e-19 0.0487451)
)
;
    }
    upperWall
    {
        type            calculated;
        value           uniform (0 0 0);
    }
    lowerWall
    {
        type            calculated;
        value           uniform (0 0 0);
    }
    frontAndBack
    {
        type            empty;
    }
}


// ************************************************************************* //
