/*--------------------------------*- C++ -*----------------------------------*\
| =========                 |                                                 |
| \\      /  F ield         | OpenFOAM: The Open Source CFD Toolbox           |
|  \\    /   O peration     | Version:  dev                                   |
|   \\  /    A nd           | Web:      www.OpenFOAM.org                      |
|    \\/     M anipulation  |                                                 |
\*---------------------------------------------------------------------------*/
FoamFile
{
    version     2.0;
    format      ascii;
    class       volVectorField;
    location    "4.6";
    object      Force;
}
// * * * * * * * * * * * * * * * * * * * * * * * * * * * * * * * * * * * * * //

dimensions      [1 1 -2 0 0 0 0];

internalField   uniform (0 0 0);

boundaryField
{
    inlet
    {
        type            calculated;
        value           uniform (0 0 0);
    }
    outlet
    {
        type            calculated;
        value           uniform (0 0 0);
    }
    flap
    {
        type            calculated;
        value           nonuniform List<vector> 
33
(
(3.55947 1.87595e-18 -0.197808)
(3.50895 4.5538e-18 -0.420316)
(3.44643 -3.58246e-18 -0.613271)
(3.37203 1.76733e-18 -0.744122)
(3.28968 1.71224e-18 -0.823697)
(3.20256 -2.45167e-20 -0.861401)
(3.11332 3.33825e-18 -0.867039)
(3.02358 2.04663e-20 -0.849445)
(2.92941 -3.24576e-18 -0.815508)
(2.82516 0 -0.770191)
(2.7034 -9.21804e-18 -0.716625)
(2.55173 5.55102e-18 -0.656673)
(2.34966 1.58817e-22 -0.589566)
(2.05785 4.57592e-21 -0.506827)
(1.58741 5.86886e-18 -0.388887)
(0.13408 -8.84288e-19 0.527816)
(0.0689613 3.67342e-39 0.280713)
(0.0182762 1.5612e-39 0.0801912)
(-0.0665503 1.37922e-18 0.00372453)
(-0.0663187 1.27793e-22 0.00790437)
(-0.0654761 -1.46757e-18 0.0115439)
(-0.0642053 -9.15021e-20 0.0139598)
(-0.0627699 2.0766e-24 0.0154264)
(-0.0615484 1.75533e-18 0.0161901)
(-0.0609133 -1.60783e-18 0.016534)
(-0.0611659 1.6267e-18 0.0167151)
(-0.0626259 -1.6406e-18 0.0169537)
(-0.0656037 -5.86291e-22 0.0174242)
(-0.0703127 -1.65536e-18 0.0182458)
(-0.0765138 2.11891e-19 0.0194204)
(-0.0828826 2.29128e-19 0.0207195)
(-0.0887174 -1.72642e-18 0.0222076)
(-0.0899258 2.12815e-18 0.0227608)
)
;
    }
    upperWall
    {
        type            calculated;
        value           uniform (0 0 0);
    }
    lowerWall
    {
        type            calculated;
        value           uniform (0 0 0);
    }
    frontAndBack
    {
        type            empty;
    }
}


// ************************************************************************* //
