/*--------------------------------*- C++ -*----------------------------------*\
| =========                 |                                                 |
| \\      /  F ield         | OpenFOAM: The Open Source CFD Toolbox           |
|  \\    /   O peration     | Version:  dev                                   |
|   \\  /    A nd           | Web:      www.OpenFOAM.org                      |
|    \\/     M anipulation  |                                                 |
\*---------------------------------------------------------------------------*/
FoamFile
{
    version     2.0;
    format      ascii;
    class       pointVectorField;
    location    "4.6";
    object      pointDisplacement;
}
// * * * * * * * * * * * * * * * * * * * * * * * * * * * * * * * * * * * * * //

dimensions      [0 1 0 0 0 0 0];

internalField   nonuniform List<vector> 
5828
(
(0 0 0)
(0.0148544 0 0)
(0.0281612 0 0)
(0.0395611 0 0)
(0.0492239 0 0)
(0.0573151 0 0)
(0.0639813 0 0)
(0.0693491 0 0)
(0.0735291 0 0)
(0.0766182 0 0)
(0.0787023 0 0)
(0.079856 0 0)
(0.0801438 0 0)
(0.0796219 0 0)
(0.0783403 0 0)
(0.0763445 0 0)
(0.0736767 0 0)
(0.0703777 0 0)
(0.0664886 0 0)
(0.0620529 0 0)
(0.057118 0 0)
(0.0517384 0 0)
(0.0459784 0 0)
(0.0399157 0 0)
(0.033646 0 0)
(0.0272928 0 0)
(0.0210253 0 0)
(0.0150922 0 0)
(0.00987391 0 0)
(0.00609473 0 0)
(0 0 0)
(0 0 0)
(0.0148628 0 -4.746e-05)
(0.0281787 0 -9.05033e-05)
(0.0395879 0 -0.000128382)
(0.0492599 0 -0.00016174)
(0.0573615 0 -0.000191062)
(0.0640395 0 -0.000216699)
(0.0694207 0 -0.000238724)
(0.0736161 0 -0.000257171)
(0.0767225 0 -0.000271664)
(0.0788265 0 -0.000281652)
(0.0800034 0 -0.000286704)
(0.0803178 0 -0.000286073)
(0.0798266 0 -0.00027879)
(0.0785803 0 -0.000263651)
(0.076625 0 -0.000239192)
(0.0740037 0 -0.000203647)
(0.0707581 0 -0.000154916)
(0.0669302 0 -9.05127e-05)
(0.0625646 0 -7.49651e-06)
(0.0577104 0 9.76176e-05)
(0.0524238 0 0.000228954)
(0.0467719 0 0.00039136)
(0.0408361 0 0.00059053)
(0.0347168 0 0.0008332)
(0.0285427 0 0.00112734)
(0.0224887 0 0.00148222)
(0.0168226 0 0.00190755)
(0.0119601 0 0.00240123)
(0.00863915 0 0.00290904)
(0.00398814 0 0.00379793)
(0 0 0)
(0.0148906 0 -9.50565e-05)
(0.0282347 0 -0.000181293)
(0.0396715 0 -0.000257241)
(0.0493712 0 -0.000324169)
(0.0575035 0 -0.000383047)
(0.0642167 0 -0.000434634)
(0.0696381 0 -0.000479023)
(0.0738787 0 -0.000516083)
(0.077036 0 -0.000545314)
(0.0791988 0 -0.000565873)
(0.0804443 0 -0.000576776)
(0.0808377 0 -0.000576542)
(0.0804373 0 -0.000563286)
(0.0792955 0 -0.000534682)
(0.0774601 0 -0.000487901)
(0.0749764 0 -0.000419541)
(0.0718882 0 -0.000325566)
(0.0682409 0 -0.000201237)
(0.0640825 0 -4.09952e-05)
(0.0594661 0 0.000161693)
(0.0544529 0 0.000414475)
(0.0491182 0 0.000726137)
(0.0435549 0 0.00110662)
(0.0378776 0 0.00156697)
(0.032233 0 0.00211897)
(0.026808 0 0.0027748)
(0.0218869 0 0.00354143)
(0.0179516 0 0.00439656)
(0.0157593 0 0.00521853)
(0.0124122 0 0.00648405)
(0 0 0)
(0.0149377 0 -0.000142888)
(0.0283293 0 -0.000272571)
(0.0398124 0 -0.00038674)
(0.0495573 0 -0.000487377)
(0.0577402 0 -0.000576121)
(0.0645118 0 -0.000654148)
(0.0699982 0 -0.000721476)
(0.074312 0 -0.000777574)
(0.077554 0 -0.00082218)
(0.0798151 0 -0.000854456)
(0.0811736 0 -0.000872726)
(0.081697 0 -0.000874854)
(0.081446 0 -0.00085816)
(0.0804759 0 -0.000819356)
(0.0788376 0 -0.000754457)
(0.0765797 0 -0.000658687)
(0.07375 0 -0.000526411)
(0.0703985 0 -0.000351116)
(0.0665789 0 -0.000125274)
(0.0623504 0 0.000159805)
(0.0577802 0 0.000514142)
(0.0529555 0 0.00094879)
(0.0479864 0 0.00147541)
(0.0430081 0 0.00210558)
(0.0381946 0 0.00284901)
(0.0337586 0 0.00371076)
(0.0299736 0 0.00468135)
(0.027313 0 0.00570524)
(0.0265172 0 0.00659939)
(0.0246596 0 0.0078736)
(0 0 0)
(0.0150036 0 -0.000190878)
(0.0284589 0 -0.000364186)
(0.0400033 0 -0.000516656)
(0.0498122 0 -0.000651134)
(0.0580677 0 -0.000770084)
(0.0649203 0 -0.000874886)
(0.0704945 0 -0.000965656)
(0.0749088 0 -0.00104191)
(0.0782691 0 -0.00110341)
(0.0806663 0 -0.00114913)
(0.0821806 0 -0.00117696)
(0.0828829 0 -0.00118429)
(0.0828373 0 -0.00116781)
(0.082103 0 -0.00112352)
(0.0807354 0 -0.00104657)
(0.0787876 0 -0.00093118)
(0.0763121 0 -0.00077057)
(0.0733657 0 -0.000557111)
(0.07001 0 -0.00028221)
(0.0663135 0 6.37282e-05)
(0.0623513 0 0.000491597)
(0.0582171 0 0.0010129)
(0.0540332 0 0.00163807)
(0.0499599 0 0.00237486)
(0.0461997 0 0.00322482)
(0.0429909 0 0.00417746)
(0.0406043 0 0.00519997)
(0.0394164 0 0.00620591)
(0.0400571 0 0.00697901)
(0.0395598 0 0.00804185)
(0 0 0)
(0.0150878 0 -0.000238897)
(0.0286225 0 -0.000455806)
(0.040242 0 -0.000646726)
(0.0501327 0 -0.00081543)
(0.0584803 0 -0.000965003)
(0.0654338 0 -0.00109702)
(0.0711205 0 -0.00121197)
(0.0756637 0 -0.00130978)
(0.0791729 0 -0.00138999)
(0.081741 0 -0.0014513)
(0.0834511 0 -0.00149148)
(0.0843778 0 -0.00150758)
(0.0845897 0 -0.00149593)
(0.0841508 0 -0.00145208)
(0.0831221 0 -0.00137071)
(0.0815623 0 -0.00124549)
(0.0795288 0 -0.00106894)
(0.0770866 0 -0.000833097)
(0.0743075 0 -0.000529281)
(0.0712706 0 -0.000148113)
(0.0680661 0 0.000320087)
(0.0647919 0 0.000884808)
(0.061571 0 0.0015532)
(0.0585723 0 0.00232674)
(0.0560215 0 0.00319409)
(0.0541689 0 0.00412582)
(0.05327 0 0.00506636)
(0.0535991 0 0.00591112)
(0.0555868 0 0.00644764)
(0.0562324 0 0.00721671)
(0 0 0)
(0.0151868 0 -0.000286865)
(0.0288159 0 -0.000547314)
(0.0405283 0 -0.000776889)
(0.0505175 0 -0.000980239)
(0.0589734 0 -0.00116092)
(0.0660474 0 -0.00132095)
(0.0718694 0 -0.00146117)
(0.0765671 0 -0.0015819)
(0.0802535 0 -0.00168267)
(0.0830246 0 -0.00176206)
(0.0849671 0 -0.00181783)
(0.0861598 0 -0.00184688)
(0.0866763 0 -0.0018454)
(0.0865865 0 -0.00180884)
(0.0859584 0 -0.00173188)
(0.0848578 0 -0.0016082)
(0.0833493 0 -0.00143035)
(0.0815034 0 -0.00119039)
(0.0793979 0 -0.000880096)
(0.0771246 0 -0.000491654)
(0.0747917 0 -1.85198e-05)
(0.0725084 0 0.000544462)
(0.0704018 0 0.00119884)
(0.0686226 0 0.00193918)
(0.0673932 0 0.00274148)
(0.0669624 0 0.00355823)
(0.0675353 0 0.00431783)
(0.0692898 0 0.00491335)
(0.0724332 0 0.00516616)
(0.0739811 0 0.00562781)
(0 0 0)
(0.0153001 0 -0.000334763)
(0.0290381 0 -0.00063889)
(0.0408597 0 -0.000907297)
(0.050962 0 -0.00114547)
(0.0595411 0 -0.00135777)
(0.0667534 0 -0.00154661)
(0.0727315 0 -0.00171327)
(0.0776069 0 -0.00185847)
(0.0814962 0 -0.00198183)
(0.0844991 0 -0.00208204)
(0.0867064 0 -0.00215694)
(0.0882018 0 -0.00220352)
(0.0890638 0 -0.00221802)
(0.0893694 0 -0.00219618)
(0.0891946 0 -0.00213313)
(0.0886137 0 -0.00202309)
(0.087702 0 -0.00185956)
(0.0865341 0 -0.0016352)
(0.0851912 0 -0.00134278)
(0.0837721 0 -0.000976492)
(0.0823989 0 -0.000533979)
(0.0811985 0 -1.60858e-05)
(0.0803007 0 0.000571743)
(0.0798417 0 0.0012162)
(0.0800096 0 0.00188416)
(0.0810105 0 0.00251651)
(0.0829843 0 0.00303505)
(0.0859988 0 0.00334393)
(0.0900489 0 0.00331638)
(0.0922604 0 0.00348413)
(0 0 0)
(0.0154308 0 -0.000382712)
(0.0292908 0 -0.000730559)
(0.0412301 0 -0.00103771)
(0.0514581 0 -0.00131085)
(0.0601766 0 -0.00155536)
(0.0675443 0 -0.00177413)
(0.0736983 0 -0.00196872)
(0.0787727 0 -0.00214011)
(0.0828877 0 -0.00228829)
(0.086148 0 -0.00241224)
(0.0886489 0 -0.00251005)
(0.0904789 0 -0.00257901)
(0.0917211 0 -0.00261551)
(0.0924601 0 -0.00261596)
(0.0927815 0 -0.00257651)
(0.0927671 0 -0.00249223)
(0.092501 0 -0.00235788)
(0.0920672 0 -0.00216791)
(0.0915575 0 -0.00191753)
(0.091069 0 -0.00160285)
(0.0907294 0 -0.00122539)
(0.0906796 0 -0.000792589)
(0.0910441 0 -0.000316465)
(0.0919537 0 0.000181949)
(0.093542 0 0.000664796)
(0.0959379 0 0.00107023)
(0.0992027 0 0.00132336)
(0.103285 0 0.00134952)
(0.107998 0 0.00107901)
(0.11066 0 0.00100542)
(0 0 0)
(0.0155754 0 -0.000430592)
(0.0295652 0 -0.000821905)
(0.0416318 0 -0.00116785)
(0.0520009 0 -0.00147644)
(0.0608763 0 -0.00175389)
(0.0684156 0 -0.00200355)
(0.0747597 0 -0.00222726)
(0.080049 0 -0.00242648)
(0.0844089 0 -0.00260169)
(0.0879479 0 -0.00275229)
(0.090766 0 -0.00287681)
(0.0929568 0 -0.00297304)
(0.0946097 0 -0.00303803)
(0.0958144 0 -0.00306865)
(0.0966647 0 -0.00306227)
(0.0972516 0 -0.00301557)
(0.0976646 0 -0.00292465)
(0.0979989 0 -0.0027864)
(0.0983578 0 -0.00259924)
(0.0988456 0 -0.00236257)
(0.0995887 0 -0.00208129)
(0.100724 0 -0.00176755)
(0.102371 0 -0.00143889)
(0.104645 0 -0.00112158)
(0.107628 0 -0.000854868)
(0.111361 0 -0.00069467)
(0.115798 0 -0.000702044)
(0.120771 0 -0.000925745)
(0.125948 0 -0.00138411)
(0.128895 0 -0.0016385)
(0 0 0)
(0.0157274 0 -0.000478154)
(0.029859 0 -0.00091287)
(0.0420663 0 -0.00129788)
(0.0525881 0 -0.00164233)
(0.0616305 0 -0.00195305)
(0.0693511 0 -0.00223393)
(0.0758974 0 -0.00248761)
(0.0814158 0 -0.00271617)
(0.0860352 0 -0.00292045)
(0.0898687 0 -0.0031004)
(0.0930212 0 -0.00325517)
(0.0955918 0 -0.00338331)
(0.097678 0 -0.00348301)
(0.0993732 0 -0.00355167)
(0.100776 0 -0.00358761)
(0.101986 0 -0.00358945)
(0.103098 0 -0.00355523)
(0.104218 0 -0.00348449)
(0.105455 0 -0.00337871)
(0.106928 0 -0.0032416)
(0.108761 0 -0.0030814)
(0.111076 0 -0.00291296)
(0.113982 0 -0.00275719)
(0.117572 0 -0.0026416)
(0.121893 0 -0.00260383)
(0.126892 0 -0.00268706)
(0.132401 0 -0.00292987)
(0.138138 0 -0.00335426)
(0.143651 0 -0.00394053)
(0.146789 0 -0.00432038)
(0 0 0)
(0.0158875 0 -0.000525515)
(0.0301707 0 -0.00100349)
(0.0425283 0 -0.00142754)
(0.0532097 0 -0.00180795)
(0.0624257 0 -0.0021521)
(0.0703381 0 -0.00246473)
(0.0770992 0 -0.00274951)
(0.0828582 0 -0.00300888)
(0.0877481 0 -0.00324413)
(0.0918876 0 -0.00345594)
(0.095386 0 -0.00364419)
(0.0983479 0 -0.00380829)
(0.100876 0 -0.00394743)
(0.103073 0 -0.00406082)
(0.105042 0 -0.00414765)
(0.10688 0 -0.00420745)
(0.108692 0 -0.00424094)
(0.110591 0 -0.0042505)
(0.112693 0 -0.00424078)
(0.115128 0 -0.00421957)
(0.118014 0 -0.00419795)
(0.121458 0 -0.00419226)
(0.12556 0 -0.00422474)
(0.130392 0 -0.0043213)
(0.135959 0 -0.0045115)
(0.14213 0 -0.00482113)
(0.148639 0 -0.00526393)
(0.155093 0 -0.00583442)
(0.160913 0 -0.00649078)
(0.164259 0 -0.00693815)
(0 0 0)
(0.0160515 0 -0.000572448)
(0.0304912 0 -0.00109336)
(0.0430097 0 -0.00155639)
(0.0538583 0 -0.00197281)
(0.0632541 0 -0.00235085)
(0.0713684 0 -0.00269612)
(0.078354 0 -0.00301281)
(0.0843608 0 -0.00330408)
(0.0895283 0 -0.00357195)
(0.0939806 0 -0.0038178)
(0.0978307 0 -0.00404231)
(0.101188 0 -0.00424583)
(0.10416 0 -0.00442871)
(0.10686 0 -0.00459205)
(0.109387 0 -0.00473586)
(0.11184 0 -0.0048607)
(0.114332 0 -0.00497008)
(0.116979 0 -0.00506902)
(0.119903 0 -0.00516498)
(0.123241 0 -0.00526993)
(0.127105 0 -0.00539698)
(0.131582 0 -0.0055623)
(0.136765 0 -0.00578806)
(0.142714 0 -0.006097)
(0.149392 0 -0.00650667)
(0.156621 0 -0.00702267)
(0.164086 0 -0.00763223)
(0.171297 0 -0.00830011)
(0.177521 0 -0.00897528)
(0.181314 0 -0.00942752)
(0 0 0)
(0.0162147 0 -0.000618677)
(0.0308167 0 -0.00118223)
(0.0435031 0 -0.00168412)
(0.0545274 0 -0.0021366)
(0.0641107 0 -0.00254887)
(0.0724309 0 -0.00292734)
(0.079645 0 -0.00327667)
(0.0859056 0 -0.00360082)
(0.0913556 0 -0.00390275)
(0.0961231 0 -0.00418446)
(0.100325 0 -0.00444747)
(0.104075 0 -0.0046932)
(0.107488 0 -0.00492348)
(0.110675 0 -0.00514007)
(0.113734 0 -0.0053441)
(0.116772 0 -0.00553846)
(0.119903 0 -0.00572864)
(0.123246 0 -0.005922)
(0.126924 0 -0.00612862)
(0.131074 0 -0.00636344)
(0.135795 0 -0.00664055)
(0.141159 0 -0.00697578)
(0.14725 0 -0.00739035)
(0.154117 0 -0.00790293)
(0.161707 0 -0.00852077)
(0.16983 0 -0.0092311)
(0.178172 0 -0.00999362)
(0.186215 0 -0.0107356)
(0.193072 0 -0.0113931)
(0.198049 0 -0.0117548)
(0 0 0)
(0.0163753 0 -0.000664061)
(0.0311433 0 -0.00126975)
(0.0440036 0 -0.00181035)
(0.0552081 0 -0.00229884)
(0.0649829 0 -0.00274523)
(0.0735129 0 -0.00315704)
(0.0809586 0 -0.00353976)
(0.087476 0 -0.00389789)
(0.0932096 0 -0.00423504)
(0.09829 0 -0.00455392)
(0.102839 0 -0.004857)
(0.106972 0 -0.00514668)
(0.110806 0 -0.0054258)
(0.114449 0 -0.00569691)
(0.118006 0 -0.00596288)
(0.121584 0 -0.00622865)
(0.125297 0 -0.00650115)
(0.129262 0 -0.00678969)
(0.133606 0 -0.00710732)
(0.138447 0 -0.00746905)
(0.143863 0 -0.00788882)
(0.149924 0 -0.00838375)
(0.156697 0 -0.00897349)
(0.164214 0 -0.00967389)
(0.172416 0 -0.010487)
(0.181125 0 -0.0113919)
(0.190076 0 -0.0123334)
(0.198829 0 -0.0131966)
(0.206522 0 -0.0138504)
(0.214584 0 -0.013927)
(0 0 0)
(0.0165308 0 -0.00070861)
(0.0314687 0 -0.00135618)
(0.0445095 0 -0.0019354)
(0.055897 0 -0.0024598)
(0.0658649 0 -0.00294052)
(0.0746087 0 -0.00338596)
(0.08229 0 -0.00380248)
(0.0890642 0 -0.00419531)
(0.0950777 0 -0.00456844)
(0.100465 0 -0.00492541)
(0.105351 0 -0.00526958)
(0.109851 0 -0.00560419)
(0.114082 0 -0.00593277)
(0.118152 0 -0.00625913)
(0.122167 0 -0.0065878)
(0.126234 0 -0.00692497)
(0.130462 0 -0.00727868)
(0.134967 0 -0.00766022)
(0.139869 0 -0.00808428)
(0.145256 0 -0.00856401)
(0.151187 0 -0.00911327)
(0.157726 0 -0.00975021)
(0.164914 0 -0.0104929)
(0.172755 0 -0.0113562)
(0.181165 0 -0.0123433)
(0.189962 0 -0.013444)
(0.19889 0 -0.0146383)
(0.207547 0 -0.0158936)
(0.215308 0 -0.0172641)
(0.231127 0 -0.0160316)
(0 0 0)
(0.0148544 0 0)
(0.0281612 0 0)
(0.0395611 0 0)
(0.0492239 0 0)
(0.0573151 0 0)
(0.0639813 0 0)
(0.0693491 0 0)
(0.0735291 0 0)
(0.0766182 0 0)
(0.0787023 0 0)
(0.079856 0 0)
(0.0801438 0 0)
(0.0796219 0 0)
(0.0783403 0 0)
(0.0763445 0 0)
(0.0736767 0 0)
(0.0703777 0 0)
(0.0664886 0 0)
(0.0620529 0 0)
(0.057118 0 0)
(0.0517384 0 0)
(0.0459784 0 0)
(0.0399157 0 0)
(0.033646 0 0)
(0.0272928 0 0)
(0.0210253 0 0)
(0.0150922 0 0)
(0.00987391 0 0)
(0.00609473 0 0)
(0 0 0)
(0 0 0)
(0.0148628 0 -4.746e-05)
(0.0281787 0 -9.05033e-05)
(0.0395879 0 -0.000128382)
(0.0492599 0 -0.00016174)
(0.0573615 0 -0.000191062)
(0.0640395 0 -0.000216699)
(0.0694207 0 -0.000238724)
(0.0736161 0 -0.000257171)
(0.0767225 0 -0.000271664)
(0.0788265 0 -0.000281652)
(0.0800034 0 -0.000286704)
(0.0803178 0 -0.000286073)
(0.0798266 0 -0.00027879)
(0.0785803 0 -0.000263651)
(0.076625 0 -0.000239192)
(0.0740037 0 -0.000203647)
(0.0707581 0 -0.000154916)
(0.0669302 0 -9.05127e-05)
(0.0625646 0 -7.49651e-06)
(0.0577104 0 9.76176e-05)
(0.0524238 0 0.000228954)
(0.0467719 0 0.00039136)
(0.0408361 0 0.00059053)
(0.0347168 0 0.0008332)
(0.0285427 0 0.00112734)
(0.0224887 0 0.00148222)
(0.0168226 0 0.00190755)
(0.0119601 0 0.00240123)
(0.00863915 0 0.00290904)
(0.00398814 0 0.00379793)
(0 0 0)
(0.0148906 0 -9.50565e-05)
(0.0282347 0 -0.000181293)
(0.0396715 0 -0.000257241)
(0.0493712 0 -0.000324169)
(0.0575035 0 -0.000383047)
(0.0642167 0 -0.000434634)
(0.0696381 0 -0.000479023)
(0.0738787 0 -0.000516083)
(0.077036 0 -0.000545314)
(0.0791988 0 -0.000565873)
(0.0804443 0 -0.000576776)
(0.0808377 0 -0.000576542)
(0.0804373 0 -0.000563286)
(0.0792955 0 -0.000534682)
(0.0774601 0 -0.000487901)
(0.0749764 0 -0.000419541)
(0.0718882 0 -0.000325566)
(0.0682409 0 -0.000201237)
(0.0640825 0 -4.09952e-05)
(0.0594661 0 0.000161693)
(0.0544529 0 0.000414475)
(0.0491182 0 0.000726137)
(0.0435549 0 0.00110662)
(0.0378776 0 0.00156697)
(0.032233 0 0.00211897)
(0.026808 0 0.0027748)
(0.0218869 0 0.00354143)
(0.0179516 0 0.00439656)
(0.0157593 0 0.00521853)
(0.0124122 0 0.00648405)
(0 0 0)
(0.0149377 0 -0.000142888)
(0.0283293 0 -0.000272571)
(0.0398124 0 -0.00038674)
(0.0495573 0 -0.000487377)
(0.0577402 0 -0.000576121)
(0.0645118 0 -0.000654148)
(0.0699982 0 -0.000721476)
(0.074312 0 -0.000777574)
(0.077554 0 -0.00082218)
(0.0798151 0 -0.000854456)
(0.0811736 0 -0.000872726)
(0.081697 0 -0.000874854)
(0.081446 0 -0.00085816)
(0.0804759 0 -0.000819356)
(0.0788376 0 -0.000754457)
(0.0765797 0 -0.000658687)
(0.07375 0 -0.000526411)
(0.0703985 0 -0.000351116)
(0.0665789 0 -0.000125274)
(0.0623504 0 0.000159805)
(0.0577802 0 0.000514142)
(0.0529555 0 0.00094879)
(0.0479864 0 0.00147541)
(0.0430081 0 0.00210558)
(0.0381946 0 0.00284901)
(0.0337586 0 0.00371076)
(0.0299736 0 0.00468135)
(0.027313 0 0.00570524)
(0.0265172 0 0.00659939)
(0.0246596 0 0.0078736)
(0 0 0)
(0.0150036 0 -0.000190878)
(0.0284589 0 -0.000364186)
(0.0400033 0 -0.000516656)
(0.0498122 0 -0.000651134)
(0.0580677 0 -0.000770084)
(0.0649203 0 -0.000874886)
(0.0704945 0 -0.000965656)
(0.0749088 0 -0.00104191)
(0.0782691 0 -0.00110341)
(0.0806663 0 -0.00114913)
(0.0821806 0 -0.00117696)
(0.0828829 0 -0.00118429)
(0.0828373 0 -0.00116781)
(0.082103 0 -0.00112352)
(0.0807354 0 -0.00104657)
(0.0787876 0 -0.00093118)
(0.0763121 0 -0.00077057)
(0.0733657 0 -0.000557111)
(0.07001 0 -0.00028221)
(0.0663135 0 6.37282e-05)
(0.0623513 0 0.000491597)
(0.0582171 0 0.0010129)
(0.0540332 0 0.00163807)
(0.0499599 0 0.00237486)
(0.0461997 0 0.00322482)
(0.0429909 0 0.00417746)
(0.0406043 0 0.00519997)
(0.0394164 0 0.00620591)
(0.0400571 0 0.00697901)
(0.0395598 0 0.00804185)
(0 0 0)
(0.0150878 0 -0.000238897)
(0.0286225 0 -0.000455806)
(0.040242 0 -0.000646726)
(0.0501327 0 -0.00081543)
(0.0584803 0 -0.000965003)
(0.0654338 0 -0.00109702)
(0.0711205 0 -0.00121197)
(0.0756637 0 -0.00130978)
(0.0791729 0 -0.00138999)
(0.081741 0 -0.0014513)
(0.0834511 0 -0.00149148)
(0.0843778 0 -0.00150758)
(0.0845897 0 -0.00149593)
(0.0841508 0 -0.00145208)
(0.0831221 0 -0.00137071)
(0.0815623 0 -0.00124549)
(0.0795288 0 -0.00106894)
(0.0770866 0 -0.000833097)
(0.0743075 0 -0.000529281)
(0.0712706 0 -0.000148113)
(0.0680661 0 0.000320087)
(0.0647919 0 0.000884808)
(0.061571 0 0.0015532)
(0.0585723 0 0.00232674)
(0.0560215 0 0.00319409)
(0.0541689 0 0.00412582)
(0.05327 0 0.00506636)
(0.0535991 0 0.00591112)
(0.0555868 0 0.00644764)
(0.0562324 0 0.00721671)
(0 0 0)
(0.0151868 0 -0.000286865)
(0.0288159 0 -0.000547314)
(0.0405283 0 -0.000776889)
(0.0505175 0 -0.000980239)
(0.0589734 0 -0.00116092)
(0.0660474 0 -0.00132095)
(0.0718694 0 -0.00146117)
(0.0765671 0 -0.0015819)
(0.0802535 0 -0.00168267)
(0.0830246 0 -0.00176206)
(0.0849671 0 -0.00181783)
(0.0861598 0 -0.00184688)
(0.0866763 0 -0.0018454)
(0.0865865 0 -0.00180884)
(0.0859584 0 -0.00173188)
(0.0848578 0 -0.0016082)
(0.0833493 0 -0.00143035)
(0.0815034 0 -0.00119039)
(0.0793979 0 -0.000880096)
(0.0771246 0 -0.000491654)
(0.0747917 0 -1.85198e-05)
(0.0725084 0 0.000544462)
(0.0704018 0 0.00119884)
(0.0686226 0 0.00193918)
(0.0673932 0 0.00274148)
(0.0669624 0 0.00355823)
(0.0675353 0 0.00431783)
(0.0692898 0 0.00491335)
(0.0724332 0 0.00516616)
(0.0739811 0 0.00562781)
(0 0 0)
(0.0153001 0 -0.000334763)
(0.0290381 0 -0.00063889)
(0.0408597 0 -0.000907297)
(0.050962 0 -0.00114547)
(0.0595411 0 -0.00135777)
(0.0667534 0 -0.00154661)
(0.0727315 0 -0.00171327)
(0.0776069 0 -0.00185847)
(0.0814962 0 -0.00198183)
(0.0844991 0 -0.00208204)
(0.0867064 0 -0.00215694)
(0.0882018 0 -0.00220352)
(0.0890638 0 -0.00221802)
(0.0893694 0 -0.00219618)
(0.0891946 0 -0.00213313)
(0.0886137 0 -0.00202309)
(0.087702 0 -0.00185956)
(0.0865341 0 -0.0016352)
(0.0851912 0 -0.00134278)
(0.0837721 0 -0.000976492)
(0.0823989 0 -0.000533979)
(0.0811985 0 -1.60858e-05)
(0.0803007 0 0.000571743)
(0.0798417 0 0.0012162)
(0.0800096 0 0.00188416)
(0.0810105 0 0.00251651)
(0.0829843 0 0.00303505)
(0.0859988 0 0.00334393)
(0.0900489 0 0.00331638)
(0.0922604 0 0.00348413)
(0 0 0)
(0.0154308 0 -0.000382712)
(0.0292908 0 -0.000730559)
(0.0412301 0 -0.00103771)
(0.0514581 0 -0.00131085)
(0.0601766 0 -0.00155536)
(0.0675443 0 -0.00177413)
(0.0736983 0 -0.00196872)
(0.0787727 0 -0.00214011)
(0.0828877 0 -0.00228829)
(0.086148 0 -0.00241224)
(0.0886489 0 -0.00251005)
(0.0904789 0 -0.00257901)
(0.0917211 0 -0.00261551)
(0.0924601 0 -0.00261596)
(0.0927815 0 -0.00257651)
(0.0927671 0 -0.00249223)
(0.092501 0 -0.00235788)
(0.0920672 0 -0.00216791)
(0.0915575 0 -0.00191753)
(0.091069 0 -0.00160285)
(0.0907294 0 -0.00122539)
(0.0906796 0 -0.000792589)
(0.0910441 0 -0.000316465)
(0.0919537 0 0.000181949)
(0.093542 0 0.000664796)
(0.0959379 0 0.00107023)
(0.0992027 0 0.00132336)
(0.103285 0 0.00134952)
(0.107998 0 0.00107901)
(0.11066 0 0.00100542)
(0 0 0)
(0.0155754 0 -0.000430592)
(0.0295652 0 -0.000821905)
(0.0416318 0 -0.00116785)
(0.0520009 0 -0.00147644)
(0.0608763 0 -0.00175389)
(0.0684156 0 -0.00200355)
(0.0747597 0 -0.00222726)
(0.080049 0 -0.00242648)
(0.0844089 0 -0.00260169)
(0.0879479 0 -0.00275229)
(0.090766 0 -0.00287681)
(0.0929568 0 -0.00297304)
(0.0946097 0 -0.00303803)
(0.0958144 0 -0.00306865)
(0.0966647 0 -0.00306227)
(0.0972516 0 -0.00301557)
(0.0976646 0 -0.00292465)
(0.0979989 0 -0.0027864)
(0.0983578 0 -0.00259924)
(0.0988456 0 -0.00236257)
(0.0995887 0 -0.00208129)
(0.100724 0 -0.00176755)
(0.102371 0 -0.00143889)
(0.104645 0 -0.00112158)
(0.107628 0 -0.000854868)
(0.111361 0 -0.00069467)
(0.115798 0 -0.000702044)
(0.120771 0 -0.000925745)
(0.125948 0 -0.00138411)
(0.128895 0 -0.0016385)
(0 0 0)
(0.0157274 0 -0.000478154)
(0.029859 0 -0.00091287)
(0.0420663 0 -0.00129788)
(0.0525881 0 -0.00164233)
(0.0616305 0 -0.00195305)
(0.0693511 0 -0.00223393)
(0.0758974 0 -0.00248761)
(0.0814158 0 -0.00271617)
(0.0860352 0 -0.00292045)
(0.0898687 0 -0.0031004)
(0.0930212 0 -0.00325517)
(0.0955918 0 -0.00338331)
(0.097678 0 -0.00348301)
(0.0993732 0 -0.00355167)
(0.100776 0 -0.00358761)
(0.101986 0 -0.00358945)
(0.103098 0 -0.00355523)
(0.104218 0 -0.00348449)
(0.105455 0 -0.00337871)
(0.106928 0 -0.0032416)
(0.108761 0 -0.0030814)
(0.111076 0 -0.00291296)
(0.113982 0 -0.00275719)
(0.117572 0 -0.0026416)
(0.121893 0 -0.00260383)
(0.126892 0 -0.00268706)
(0.132401 0 -0.00292987)
(0.138138 0 -0.00335426)
(0.143651 0 -0.00394053)
(0.146789 0 -0.00432038)
(0 0 0)
(0.0158875 0 -0.000525515)
(0.0301707 0 -0.00100349)
(0.0425283 0 -0.00142754)
(0.0532097 0 -0.00180795)
(0.0624257 0 -0.0021521)
(0.0703381 0 -0.00246473)
(0.0770992 0 -0.00274951)
(0.0828582 0 -0.00300888)
(0.0877481 0 -0.00324413)
(0.0918876 0 -0.00345594)
(0.095386 0 -0.00364419)
(0.0983479 0 -0.00380829)
(0.100876 0 -0.00394743)
(0.103073 0 -0.00406082)
(0.105042 0 -0.00414765)
(0.10688 0 -0.00420745)
(0.108692 0 -0.00424094)
(0.110591 0 -0.0042505)
(0.112693 0 -0.00424078)
(0.115128 0 -0.00421957)
(0.118014 0 -0.00419795)
(0.121458 0 -0.00419226)
(0.12556 0 -0.00422474)
(0.130392 0 -0.0043213)
(0.135959 0 -0.0045115)
(0.14213 0 -0.00482113)
(0.148639 0 -0.00526393)
(0.155093 0 -0.00583442)
(0.160913 0 -0.00649078)
(0.164259 0 -0.00693815)
(0 0 0)
(0.0160515 0 -0.000572448)
(0.0304912 0 -0.00109336)
(0.0430097 0 -0.00155639)
(0.0538583 0 -0.00197281)
(0.0632541 0 -0.00235085)
(0.0713684 0 -0.00269612)
(0.078354 0 -0.00301281)
(0.0843608 0 -0.00330408)
(0.0895283 0 -0.00357195)
(0.0939806 0 -0.0038178)
(0.0978307 0 -0.00404231)
(0.101188 0 -0.00424583)
(0.10416 0 -0.00442871)
(0.10686 0 -0.00459205)
(0.109387 0 -0.00473586)
(0.11184 0 -0.0048607)
(0.114332 0 -0.00497008)
(0.116979 0 -0.00506902)
(0.119903 0 -0.00516498)
(0.123241 0 -0.00526993)
(0.127105 0 -0.00539698)
(0.131582 0 -0.0055623)
(0.136765 0 -0.00578806)
(0.142714 0 -0.006097)
(0.149392 0 -0.00650667)
(0.156621 0 -0.00702267)
(0.164086 0 -0.00763223)
(0.171297 0 -0.00830011)
(0.177521 0 -0.00897528)
(0.181314 0 -0.00942752)
(0 0 0)
(0.0162147 0 -0.000618677)
(0.0308167 0 -0.00118223)
(0.0435031 0 -0.00168412)
(0.0545274 0 -0.0021366)
(0.0641107 0 -0.00254887)
(0.0724309 0 -0.00292734)
(0.079645 0 -0.00327667)
(0.0859056 0 -0.00360082)
(0.0913556 0 -0.00390275)
(0.0961231 0 -0.00418446)
(0.100325 0 -0.00444747)
(0.104075 0 -0.0046932)
(0.107488 0 -0.00492348)
(0.110675 0 -0.00514007)
(0.113734 0 -0.0053441)
(0.116772 0 -0.00553846)
(0.119903 0 -0.00572864)
(0.123246 0 -0.005922)
(0.126924 0 -0.00612862)
(0.131074 0 -0.00636344)
(0.135795 0 -0.00664055)
(0.141159 0 -0.00697578)
(0.14725 0 -0.00739035)
(0.154117 0 -0.00790293)
(0.161707 0 -0.00852077)
(0.16983 0 -0.0092311)
(0.178172 0 -0.00999362)
(0.186215 0 -0.0107356)
(0.193072 0 -0.0113931)
(0.198049 0 -0.0117548)
(0 0 0)
(0.0163753 0 -0.000664061)
(0.0311433 0 -0.00126975)
(0.0440036 0 -0.00181035)
(0.0552081 0 -0.00229884)
(0.0649829 0 -0.00274523)
(0.0735129 0 -0.00315704)
(0.0809586 0 -0.00353976)
(0.087476 0 -0.00389789)
(0.0932096 0 -0.00423504)
(0.09829 0 -0.00455392)
(0.102839 0 -0.004857)
(0.106972 0 -0.00514668)
(0.110806 0 -0.0054258)
(0.114449 0 -0.00569691)
(0.118006 0 -0.00596288)
(0.121584 0 -0.00622865)
(0.125297 0 -0.00650115)
(0.129262 0 -0.00678969)
(0.133606 0 -0.00710732)
(0.138447 0 -0.00746905)
(0.143863 0 -0.00788882)
(0.149924 0 -0.00838375)
(0.156697 0 -0.00897349)
(0.164214 0 -0.00967389)
(0.172416 0 -0.010487)
(0.181125 0 -0.0113919)
(0.190076 0 -0.0123334)
(0.198829 0 -0.0131966)
(0.206522 0 -0.0138504)
(0.214584 0 -0.013927)
(0 0 0)
(0.0165308 0 -0.00070861)
(0.0314687 0 -0.00135618)
(0.0445095 0 -0.0019354)
(0.055897 0 -0.0024598)
(0.0658649 0 -0.00294052)
(0.0746087 0 -0.00338596)
(0.08229 0 -0.00380248)
(0.0890642 0 -0.00419531)
(0.0950777 0 -0.00456844)
(0.100465 0 -0.00492541)
(0.105351 0 -0.00526958)
(0.109851 0 -0.00560419)
(0.114082 0 -0.00593277)
(0.118152 0 -0.00625913)
(0.122167 0 -0.0065878)
(0.126234 0 -0.00692497)
(0.130462 0 -0.00727868)
(0.134967 0 -0.00766022)
(0.139869 0 -0.00808428)
(0.145256 0 -0.00856401)
(0.151187 0 -0.00911327)
(0.157726 0 -0.00975021)
(0.164914 0 -0.0104929)
(0.172755 0 -0.0113562)
(0.181165 0 -0.0123433)
(0.189962 0 -0.013444)
(0.19889 0 -0.0146383)
(0.207547 0 -0.0158936)
(0.215308 0 -0.0172641)
(0.231127 0 -0.0160316)
(0 0 0)
(0.00831602 0 0)
(0.0154333 0 0)
(0.0257639 0 0)
(0.0379812 0 0)
(0.0508775 0 0)
(0.0635877 0 0)
(0.0755312 0 0)
(0.0863327 0 0)
(0.0957905 0 0)
(0.103856 0 0)
(0.110548 0 0)
(0.115899 0 0)
(0.119951 0 0)
(0.122753 0 0)
(0.124358 0 0)
(0.124801 0 0)
(0.124101 0 0)
(0.122266 0 0)
(0.119289 0 0)
(0.115154 0 0)
(0.109831 0 0)
(0.103286 0 0)
(0.0954738 0 0)
(0.0863309 0 0)
(0.0757924 0 0)
(0.0637951 0 0)
(0.0502572 0 0)
(0.0350966 0 0)
(0.0182275 0 0)
(0 0 0)
(0.00357393 0 -0.00419325)
(0.0107684 0 -0.00402814)
(0.0178358 0 -0.00414897)
(0.028015 0 -0.00419365)
(0.0400043 0 -0.00417785)
(0.0526437 0 -0.00410261)
(0.0651088 0 -0.00398383)
(0.0768256 0 -0.00383122)
(0.0874202 0 -0.00364796)
(0.0967003 0 -0.00344853)
(0.104617 0 -0.00324646)
(0.111181 0 -0.00304279)
(0.116422 0 -0.00283889)
(0.12038 0 -0.00263569)
(0.123107 0 -0.0024391)
(0.124651 0 -0.00225571)
(0.125044 0 -0.00208148)
(0.124301 0 -0.00191416)
(0.122431 0 -0.00175414)
(0.119425 0 -0.00160089)
(0.115266 0 -0.00145355)
(0.109923 0 -0.00131101)
(0.103361 0 -0.00117243)
(0.0955363 0 -0.00103635)
(0.0863858 0 -0.000900835)
(0.0758404 0 -0.00076346)
(0.0638327 0 -0.000623663)
(0.0502841 0 -0.000480617)
(0.0351154 0 -0.000330619)
(0.0182378 0 -0.000170272)
(0 0 0)
(0.0112771 0 -0.00795)
(0.0177268 0 -0.00787262)
(0.02472 0 -0.00812064)
(0.0344895 0 -0.00821868)
(0.0458414 0 -0.00818563)
(0.0577717 0 -0.00803895)
(0.0695458 0 -0.00780957)
(0.0806071 0 -0.00751478)
(0.0906034 0 -0.00716178)
(0.0993726 0 -0.00677808)
(0.106854 0 -0.00638597)
(0.113039 0 -0.00598824)
(0.117955 0 -0.00558869)
(0.121645 0 -0.00519412)
(0.124154 0 -0.0048156)
(0.125517 0 -0.00445733)
(0.125758 0 -0.00411487)
(0.12489 0 -0.00378655)
(0.122917 0 -0.00347218)
(0.119826 0 -0.0031707)
(0.115598 0 -0.0028804)
(0.110197 0 -0.00259914)
(0.103587 0 -0.00232421)
(0.0957239 0 -0.00205401)
(0.0865451 0 -0.00178621)
(0.0759766 0 -0.00151599)
(0.0639399 0 -0.00124031)
(0.0503619 0 -0.000955846)
(0.0351691 0 -0.000657274)
(0.0182663 0 -0.000338522)
(0 0 0)
(0.0227088 0 -0.0114292)
(0.0283559 0 -0.0114699)
(0.0352659 0 -0.01183)
(0.044433 0 -0.0119773)
(0.0548617 0 -0.011931)
(0.0657665 0 -0.0117254)
(0.0765027 0 -0.0113959)
(0.086559 0 -0.0109688)
(0.0956443 0 -0.0104656)
(0.103622 0 -0.00991908)
(0.110413 0 -0.00935261)
(0.115998 0 -0.00877555)
(0.12041 0 -0.0081989)
(0.12368 0 -0.0076318)
(0.12584 0 -0.00708614)
(0.12691 0 -0.00656363)
(0.126907 0 -0.00606242)
(0.125839 0 -0.00558315)
(0.123701 0 -0.00512381)
(0.120474 0 -0.00468253)
(0.116133 0 -0.00425689)
(0.110642 0 -0.0038439)
(0.103957 0 -0.00343974)
(0.0960285 0 -0.00304179)
(0.0867955 0 -0.00264681)
(0.0761834 0 -0.00224926)
(0.0641112 0 -0.00184304)
(0.0504985 0 -0.00142099)
(0.0352623 0 -0.00097703)
(0.0183125 0 -0.000503219)
(0 0 0)
(0.036868 0 -0.0147258)
(0.0418064 0 -0.0148478)
(0.048556 0 -0.0152742)
(0.0569915 0 -0.0154479)
(0.066344 0 -0.0153876)
(0.0760216 0 -0.0151309)
(0.0854763 0 -0.0147122)
(0.0942876 0 -0.0141667)
(0.102237 0 -0.0135309)
(0.109198 0 -0.0128385)
(0.115094 0 -0.0121163)
(0.11991 0 -0.0113815)
(0.12367 0 -0.0106486)
(0.12639 0 -0.0099273)
(0.128085 0 -0.0092269)
(0.128768 0 -0.00855349)
(0.128445 0 -0.00790858)
(0.127112 0 -0.00729066)
(0.124753 0 -0.0066973)
(0.121345 0 -0.006126)
(0.116853 0 -0.00557383)
(0.111238 0 -0.00503719)
(0.10445 0 -0.00451178)
(0.0964347 0 -0.0039934)
(0.0871264 0 -0.00347708)
(0.0764518 0 -0.00295677)
(0.0643346 0 -0.00242474)
(0.0506799 0 -0.00187139)
(0.0353865 0 -0.00128777)
(0.018374 0 -0.000663424)
(0 0 0)
(0.0529708 0 -0.0178903)
(0.0572725 0 -0.0180303)
(0.0637578 0 -0.0184733)
(0.071383 0 -0.0186435)
(0.0795842 0 -0.018557)
(0.0879133 0 -0.0182445)
(0.0959467 0 -0.0177436)
(0.103375 0 -0.0170962)
(0.110034 0 -0.0163434)
(0.115821 0 -0.0155213)
(0.120679 0 -0.0146636)
(0.124602 0 -0.0137929)
(0.127595 0 -0.0129235)
(0.129663 0 -0.0120663)
(0.130805 0 -0.0112283)
(0.131023 0 -0.0104195)
(0.130316 0 -0.00964553)
(0.128664 0 -0.00890265)
(0.12604 0 -0.00818708)
(0.12241 0 -0.00749623)
(0.117735 0 -0.00682693)
(0.111967 0 -0.0061751)
(0.105053 0 -0.00553587)
(0.0969305 0 -0.00490385)
(0.0875312 0 -0.00427262)
(0.0767796 0 -0.00363501)
(0.0645975 0 -0.00298226)
(0.0508823 0 -0.00230367)
(0.0355261 0 -0.00158687)
(0.0184465 0 -0.000817894)
(0 0 0)
(0.070347 0 -0.0209047)
(0.0740683 0 -0.0210202)
(0.0801834 0 -0.021441)
(0.0869499 0 -0.0215804)
(0.0939645 0 -0.0214509)
(0.100891 0 -0.021074)
(0.107439 0 -0.0204915)
(0.113409 0 -0.0197512)
(0.118685 0 -0.0188944)
(0.123201 0 -0.0179591)
(0.126933 0 -0.0169848)
(0.129878 0 -0.015998)
(0.132028 0 -0.0150118)
(0.133374 0 -0.014038)
(0.133905 0 -0.013084)
(0.133604 0 -0.0121574)
(0.13246 0 -0.0112662)
(0.130445 0 -0.0104107)
(0.127519 0 -0.00958548)
(0.123637 0 -0.0087862)
(0.118752 0 -0.00800981)
(0.112808 0 -0.00725189)
(0.105747 0 -0.00650702)
(0.0975018 0 -0.0057689)
(0.0879978 0 -0.00502972)
(0.0771566 0 -0.00428151)
(0.0648934 0 -0.00351458)