/*--------------------------------*- C++ -*----------------------------------*\
| =========                 |                                                 |
| \\      /  F ield         | OpenFOAM: The Open Source CFD Toolbox           |
|  \\    /   O peration     | Version:  dev                                   |
|   \\  /    A nd           | Web:      www.OpenFOAM.org                      |
|    \\/     M anipulation  |                                                 |
\*---------------------------------------------------------------------------*/
FoamFile
{
    version     2.0;
    format      ascii;
    class       surfaceVectorField;
    location    "4.6";
    object      Uf;
}
// * * * * * * * * * * * * * * * * * * * * * * * * * * * * * * * * * * * * * //

dimensions      [0 1 -1 0 0 0 0];

internalField   nonuniform List<vector> 
5457
(
(9.91444 -2.11855e-20 0.0229004)
(9.96199 -5.41851e-20 0.0377608)
(9.81767 -3.50194e-20 0.029538)
(9.92495 6.788e-21 0.0440569)
(9.7071 -6.57783e-21 0.0350038)
(9.85934 1.39189e-20 0.0521014)
(9.58054 -2.36031e-20 0.0406342)
(9.7687 3.62872e-20 0.0617051)
(9.43792 -2.97867e-20 0.0464626)
(9.66 -6.02459e-20 0.071906)
(9.27939 3.30425e-20 0.0525356)
(9.53535 -3.10242e-20 0.0826241)
(9.10475 -1.90308e-20 0.058986)
(9.3942 9.54783e-20 0.0940581)
(8.91347 -8.49118e-20 0.0659542)
(9.23568 -1.64902e-19 0.106422)
(8.70479 2.17272e-21 0.0735683)
(9.0591 9.92656e-20 0.119912)
(8.47775 3.06491e-20 0.081949)
(8.86362 -1.21842e-19 0.134714)
(8.23125 7.51983e-20 0.0912173)
(8.64832 1.52922e-19 0.15101)
(7.9641 -5.76496e-21 0.1015)
(8.41213 7.93215e-20 0.168976)
(7.67499 -8.05053e-20 0.112932)
(8.15377 2.23875e-19 0.188802)
(7.36253 0 0.125659)
(7.8719 -6.53879e-19 0.210685)
(7.0253 0 0.139823)
(7.5651 -4.80679e-21 0.23481)
(6.66189 0 0.155561)
(7.23193 3.10673e-19 0.261336)
(6.27099 -5.42483e-20 0.172986)
(6.87098 0 0.290369)
(5.85153 -5.25856e-20 0.192177)
(6.48095 -4.01718e-21 0.321926)
(5.40276 0 0.213155)
(6.06079 -9.44635e-19 0.355902)
(4.92448 -1.3138e-19 0.23586)
(5.60985 -1.27357e-20 0.392016)
(4.4172 -1.27501e-19 0.260116)
(5.12802 6.83406e-19 0.42975)
(3.8824 0 0.285586)
(4.61597 -2.48442e-19 0.468272)
(3.32279 9.90703e-19 0.311726)
(4.07539 -2.6503e-19 0.506346)
(2.74264 -8.04547e-19 0.337701)
(3.50927 2.97795e-18 0.54222)
(2.14813 -1.72794e-18 0.362277)
(2.92223 1.02706e-18 0.573466)
(1.54781 -2.10055e-18 0.383674)
(2.32106 -5.88451e-18 0.596761)
(0.952747 -2.54851e-19 0.396907)
(1.71537 -1.72762e-18 0.607804)
(0.372614 -3.04675e-18 0.25743)
(1.11576 -4.29839e-18 0.601162)
(-0.0259559 -3.66201e-19 -0.0957474)
(0.445711 2.62365e-18 0.406484)
(0.279378 4.23647e-18 -0.0250471)
(10.0007 -2.52418e-20 0.0467785)
(9.99125 -3.40048e-23 0.0374492)
(9.96783 5.58389e-20 0.0625627)
(9.98159 6.40716e-23 0.0590116)
(9.9153 5.71494e-20 0.0764255)
(9.94681 2.25301e-23 0.0768475)
(9.84463 -2.0095e-21 0.0911683)
(9.8875 2.89519e-20 0.0961516)
(9.75573 -6.09933e-20 0.106828)
(9.80941 -2.99552e-20 0.116722)
(9.64861 3.35193e-20 0.123442)
(9.71481 6.03175e-20 0.138446)
(9.52315 -5.46703e-20 0.141273)
(9.60339 -6.29017e-20 0.161622)
(9.37895 2.35798e-20 0.16064)
(9.47444 1.39743e-20 0.186653)
(9.2153 -2.83048e-20 0.181838)
(9.32735 1.34268e-19 0.213952)
(9.03132 4.83046e-21 0.205137)
(9.16139 -1.40639e-19 0.24389)
(8.826 1.55883e-19 0.230806)
(8.97577 1.30932e-19 0.27682)
(8.59817 3.11256e-19 0.259127)
(8.76953 2.9917e-19 0.313115)
(8.34656 -3.63359e-19 0.290389)
(8.54148 1.04e-20 0.353173)
(8.06976 -6.48532e-19 0.324879)
(8.29036 -6.54016e-19 0.397402)
(7.76634 3.10823e-19 0.362861)
(8.01483 -4.62561e-20 0.446198)
(7.43481 3.05852e-19 0.404541)
(7.71345 4.40584e-19 0.499915)
(7.07375 5.02203e-20 0.450022)
(7.38477 1.45873e-18 0.558814)
(6.68187 -9.10582e-19 0.499252)
(7.02737 -1.6445e-18 0.622993)
(6.25819 -9.43469e-19 0.551966)
(6.63997 -1.04353e-18 0.692318)
(5.80214 8.12459e-19 0.607594)
(6.22151 -1.2739e-20 0.766325)
(5.31379 5.49112e-19 0.665161)
(5.77135 1.2531e-18 0.844084)
(4.79405 -5.13727e-19 0.723161)
(5.28935 -1.56322e-20 0.924036)
(4.24497 1.76695e-18 0.779393)
(4.77615 4.70936e-19 1.0038)
(3.67008 4.78832e-18 0.830717)
(4.23338 3.04328e-18 1.07989)
(3.07492 -3.1997e-18 0.872581)
(3.66391 2.22267e-18 1.14726)
(2.46803 -5.47344e-18 0.897732)
(3.07227 -4.69694e-18 1.19834)
(1.86395 -5.77437e-18 0.891439)
(2.46523 1.05108e-17 1.22009)
(1.29309 1.3755e-18 0.803399)
(1.84663 -2.78896e-17 1.18359)
(0.686632 7.2891e-18 0.572966)
(1.19421 7.38836e-18 1.01352)
(0.711671 2.6242e-17 0.640284)
(9.99342 2.52833e-20 0.0522818)
(9.98893 -5.3769e-20 0.040361)
(9.964 -5.57482e-20 0.0765271)
(9.97671 -1.37418e-19 0.0724207)
(9.91506 -2.77084e-20 0.0994176)
(9.94299 8.40465e-20 0.0999269)
(9.84935 0 0.123761)
(9.88668 0 0.128217)
(9.76717 9.28847e-20 0.149783)
(9.8124 1.17847e-19 0.158196)
(9.66845 -3.81369e-20 0.177565)
(9.72253 -3.02354e-20 0.189942)
(9.55312 7.01199e-21 0.207454)
(9.61702 -6.40038e-20 0.223787)
(9.42089 1.26637e-19 0.239926)
(9.49524 -1.28683e-19 0.26028)
(9.27121 1.75126e-20 0.275453)
(9.35672 -2.43089e-21 0.300034)
(9.10335 -1.01897e-20 0.31447)
(9.20092 1.44825e-20 0.343576)
(8.91647 2.76885e-19 0.357423)
(9.02726 2.70999e-19 0.39141)
(8.70959 -6.26247e-21 0.40479)
(8.83496 8.83511e-19 0.444101)
(8.48156 -2.90752e-19 0.45707)
(8.62305 -1.50256e-18 0.502244)
(8.23115 -4.21009e-20 0.514764)
(8.39053 6.21891e-19 0.566451)
(7.95703 9.10355e-20 0.578347)
(8.13628 -7.78599e-22 0.637333)
(7.65777 1.60934e-18 0.64822)
(7.85909 4.5234e-20 0.715469)
(7.33191 -2.83475e-19 0.72463)
(7.55767 1.45938e-18 0.801332)
(6.97801 -1.76878e-18 0.807595)
(7.23069 -1.32802e-18 0.89519)
(6.59473 -9.72559e-20 0.89679)
(6.8768 -1.25873e-18 0.997019)
(6.18093 4.4617e-19 0.991412)
(6.4947 1.59081e-18 1.10636)
(5.73583 6.69338e-19 1.08999)
(6.08321 2.29459e-19 1.22213)
(5.25908 9.75168e-19 1.19018)
(5.64134 4.21242e-18 1.34238)
(4.751 1.78075e-18 1.28844)
(5.16832 -7.12554e-18 1.46399)
(4.21282 4.70246e-19 1.37957)
(4.66369 8.82778e-18 1.58225)
(3.64682 6.46746e-19 1.45598)
(4.1273 -4.13025e-18 1.69021)
(3.05646 1.14007e-17 1.50608)
(3.55907 1.71866e-18 1.77759)
(2.44446 -1.17666e-17 1.51056)
(2.95823 1.94509e-17 1.82893)
(1.80251 -2.18057e-17 1.43579)
(2.3198 -3.16602e-17 1.81987)
(1.07197 2.65329e-17 1.25804)
(1.60271 -1.08525e-17 1.72032)
(0.950269 4.15781e-17 1.50282)
(9.98898 -2.17834e-19 0.0610262)
(9.98756 -1.32506e-22 0.0452312)
(9.95971 6.31532e-21 0.0952354)
(9.97347 -5.50076e-20 0.0857659)
(9.91165 1.10303e-19 0.128012)
(9.93959 5.62175e-20 0.122607)
(9.84699 1.19863e-19 0.161919)
(9.88429 0 0.159785)
(9.76642 -7.75354e-21 0.197681)
(9.81146 4.92864e-22 0.198878)
(9.66998 -5.66494e-20 0.235623)
(9.7235 5.96006e-20 0.240274)
(9.55764 -2.00754e-19 0.276235)
(9.62048 -1.22589e-19 0.284376)
(9.42921 -2.55749e-19 0.320169)
(9.50175 -3.20921e-19 0.33184)
(9.28432 -5.17735e-21 0.368078)
(9.36701 -2.43157e-21 0.383418)
(9.12248 2.99788e-19 0.420559)
(9.21593 -2.75688e-21 0.439762)
(8.94307 8.87378e-19 0.478235)
(9.04804 8.91534e-19 0.501515)
(8.74537 -6.50251e-19 0.541776)
(8.86276 1.42815e-20 0.569393)
(8.52854 -5.56954e-19 0.611879)
(8.65937 -1.20766e-18 0.644148)
(8.29168 6.53753e-19 0.689254)
(8.43712 6.222e-19 0.726552)
(8.0338 -4.5871e-20 0.774605)
(8.19521 1.4012e-18 0.817398)
(7.75382 -8.33551e-20 0.868571)
(7.93272 -1.49262e-19 0.917469)
(7.45056 3.72323e-19 0.971631)
(7.64874 -1.36102e-18 1.02745)
(7.12277 -8.16247e-19 1.084)
(7.34219 1.88448e-19 1.14784)
(6.76916 4.70808e-19 1.2055)
(7.01186 -4.32883e-18 1.27879)
(6.3884 1.35517e-18 1.3354)
(6.65651 5.03982e-18 1.42002)
(5.97917 3.828e-18 1.47211)
(6.27474 -6.10575e-19 1.57054)
(5.54011 -4.03522e-18 1.61297)
(5.86501 3.14275e-18 1.72841)
(5.06982 1.13768e-19 1.75381)
(5.42545 -7.86276e-18 1.89034)
(4.56676 4.08662e-18 1.8884)
(4.95368 -5.19382e-19 2.05123)
(4.02892 -3.00094e-18 2.00777)
(4.44651 4.10305e-18 2.20355)
(3.45287 9.90792e-18 2.09921)
(3.89938 5.27671e-19 2.33671)
(2.83073 -6.93638e-19 2.14479)
(3.30526 6.65797e-19 2.43665)
(2.14382 -2.06975e-17 2.12149)
(2.65459 7.87796e-18 2.48473)
(1.35584 5.2499e-18 2.02193)
(1.90545 -2.27144e-19 2.46455)
(1.14089 -7.6686e-18 2.37674)
(9.98676 1.6184e-19 0.0705964)
(9.98685 2.95637e-19 0.0510815)
(9.95712 -3.10075e-21 0.113423)
(9.97176 2.45766e-19 0.0992899)
(9.90982 -5.50749e-20 0.154968)
(9.93789 -3.52649e-22 0.144934)
(9.84624 -1.19382e-19 0.197585)
(9.88357 -1.14142e-19 0.190845)
(9.76719 6.88315e-20 0.242411)
(9.8123 -1.03236e-21 0.238808)
(9.67283 -9.33995e-21 0.290022)
(9.72639 1.81255e-19 0.289552)
(9.56306 -2.46001e-19 0.341014)
(9.6259 6.15099e-20 0.343617)
(9.43772 -6.24306e-20 0.396132)
(9.51014 -3.14122e-19 0.401732)
(9.29655 0 0.456133)
(9.37894 0 0.464725)
(9.13917 6.03145e-19 0.521731)
(9.2321 0 0.533373)
(8.96511 4.59409e-21 0.593669)
(9.0692 5.59638e-19 0.608449)
(8.77378 -5.62257e-19 0.67274)
(8.88975 -5.71235e-19 0.690786)
(8.56458 0 0.759769)
(8.6932 0 0.781251)
(8.33683 1.3816e-18 0.855609)
(8.47898 -1.21238e-18 0.88074)
(8.08983 1.27491e-18 0.961129)
(8.24646 2.48236e-18 0.990187)
(7.82281 -1.44536e-18 1.07716)
(7.99497 9.63485e-20 1.11053)
(7.53492 -1.52264e-18 1.20438)
(7.72387 -1.19603e-18 1.24266)
(7.22515 -3.39104e-18 1.34325)
(7.43231 2.60282e-18 1.38729)
(6.89238 3.73068e-19 1.49381)
(7.11928 -6.01718e-18 1.54481)
(6.53529 2.99611e-18 1.65555)
(6.78362 3.07802e-18 1.71521)
(6.15232 -1.24516e-18 1.82709)
(6.42386 -1.31275e-20 1.89776)
(5.74148 -8.28559e-19 2.00591)
(6.0381 -4.36703e-19 2.09086)
(5.30007 -8.39993e-18 2.18787)
(5.62377 0 2.29157)
(4.8243 -4.70333e-19 2.36671)
(5.17719 -1.44237e-17 2.49513)
(4.30866 7.60323e-18 2.53354)
(4.69292 1.53544e-17 2.69446)
(3.74514 -8.68373e-18 2.67647)
(4.16342 -8.59244e-18 2.87966)
(3.12169 9.22228e-18 2.7802)
(3.57827 -8.65713e-18 3.03813)
(2.42018 2.82298e-17 2.82582)
(2.92691 4.31217e-17 3.15338)
(1.62477 -1.32707e-17 2.80961)
(2.17992 -8.42592e-18 3.20525)
(1.33422 -2.35984e-17 3.21552)
(9.98569 3.78853e-19 0.080539)
(9.98651 -2.67202e-19 0.0574066)
(9.95582 2.44275e-19 0.131397)
(9.97101 -2.16996e-19 0.112919)
(9.90945 -6.13901e-20 0.181456)
(9.93743 2.77328e-19 0.166839)
(9.84731 6.11365e-21 0.232757)
(9.88435 -1.14169e-19 0.221217)
(9.77018 1.14446e-19 0.286609)
(9.81498 4.64444e-19 0.277796)
(9.67826 2.50136e-19 0.343789)
(9.73148 -2.36644e-19 0.337592)
(9.57143 -1.26525e-20 0.404987)
(9.63389 1.24777e-19 0.401317)
(9.44956 -2.46715e-19 0.471004)
(9.52156 -1.88343e-19 0.469743)
(9.31246 0 0.542689)
(9.39439 -5.1411e-19 0.543759)
(9.15984 -3.48734e-20 0.620876)
(9.25226 9.86352e-19 0.62426)
(8.99126 -3.38104e-20 0.706427)
(9.09477 -5.72478e-19 0.71214)
(8.80625 0 0.800244)
(8.92152 -1.11886e-18 0.808335)
(8.60431 -1.2311e-18 0.903263)
(8.73206 1.13975e-18 0.913807)
(8.38491 -5.66905e-20 1.01646)
(8.52587 -1.19493e-18 1.02956)
(8.14748 1.26825e-18 1.14083)
(8.30246 2.3851e-18 1.15664)
(7.89145 3.27306e-19 1.27738)
(8.06125 1.36174e-18 1.29612)
(7.61616 2.98639e-18 1.42699)
(7.80172 3.54536e-20 1.44906)
(7.3208 -1.43365e-19 1.59034)
(7.52318 1.21709e-19 1.61639)
(7.00434 -3.1873e-18 1.76776)
(7.22477 -3.02168e-18 1.79879)
(6.66547 2.43255e-20 1.95904)
(6.90537 -3.73396e-19 1.99655)
(6.30242 7.90599e-19 2.16322)
(6.56335 2.00596e-20 2.20935)
(5.9128 3.98128e-19 2.37827)
(6.19656 -5.3719e-18 2.43611)
(5.49309 -6.18422e-18 2.60064)
(5.80193 -6.23928e-20 2.67459)
(5.03813 1.68423e-18 2.8247)
(5.37504 1.09243e-20 2.9209)
(4.54031 -1.02231e-18 3.0423)
(4.90919 7.24861e-18 3.16884)
(3.98944 -8.57795e-18 3.24246)
(4.39517 -8.57647e-18 3.40926)
(3.37275 2.54152e-17 3.41098)
(3.8212 1.48359e-17 3.62992)
(2.67385 6.50306e-18 3.52696)
(3.17543 2.58744e-17 3.81421)
(1.89057 -1.90451e-17 3.58226)
(2.44922 -5.16023e-17 3.92896)
(1.53776 1.78671e-17 4.01549)
(9.98529 -8.6224e-19 0.0906394)
(9.98636 -2.41527e-19 0.0639088)
(9.95549 -1.75228e-19 0.149147)
(9.97092 -1.91112e-19 0.12652)
(9.91021 2.17809e-19 0.207358)
(9.93793 6.29682e-22 0.188243)
(9.84987 3.53972e-19 0.267053)
(9.88635 2.25028e-19 0.250734)
(9.77502 1.01704e-19 0.329614)
(9.8192 2.32901e-19 0.315661)
(9.68589 -3.56183e-19 0.395994)
(9.73843 -6.16839e-22 0.38421)
(9.58245 -5.60048e-20 0.466994)
(9.64415 3.62818e-19 0.457237)
(9.4646 -4.60916e-19 0.543476)
(9.53576 -5.52703e-19 0.535578)
(9.33219 4.95801e-19 0.626376)
(9.41321 -8.96263e-19 0.620184)
(9.18494 4.24837e-19 0.716644)
(9.27641 1.56879e-18 0.712056)
(9.02251 -1.66635e-18 0.815249)
(9.125 4.65916e-19 0.812196)
(8.84448 5.48616e-20 0.92319)
(8.95868 -2.17471e-18 0.921638)
(8.65041 1.14196e-18 1.0415)
(8.77703 1.14066e-18 1.04144)
(8.43984 1.3004e-18 1.17125)
(8.5796 2.86538e-22 1.17269)
(8.21228 2.46423e-18 1.31358)
(8.36592 6.80748e-20 1.31658)
(7.96717 1.05177e-18 1.46961)
(8.13548 -4.32357e-20 1.4743)
(7.70396 -2.82995e-18 1.64043)
(7.88773 2.45294e-18 1.64705)
(7.42193 -2.803e-18 1.82697)
(7.62206 -5.43683e-18 1.83599)
(7.12015 -1.70032e-19 2.02987)
(7.3377 2.81816e-18 2.04208)
(6.79722 -3.72513e-19 2.2493)
(7.03352 0 2.26602)
(6.45111 -6.20986e-18 2.48484)
(6.70774 -5.70873e-18 2.508)
(6.07908 -5.77995e-18 2.73518)
(6.35788 5.16267e-18 2.76757)
(5.67707 6.13232e-18 2.99769)
(5.98049 -9.92136e-21 3.04339)
(5.23925 5.64784e-18 3.26776)
(5.57065 6.18634e-18 3.33264)
(4.75701 -4.26795e-19 3.5381)
(5.12112 -7.21323e-18 3.63025)
(4.21918 1.49583e-17 3.79809)
(4.62177 0 3.92763)
(3.61316 1.53526e-17 4.03299)
(4.06018 1.48721e-17 4.21192)
(2.92282 -3.22764e-17 4.21668)
(3.421 1.49072e-17 4.46579)
(2.15156 -1.28831e-17 4.33126)
(2.72033 -3.29824e-17 4.63928)
(1.7498 1.62102e-18 4.78838)
(9.98527 4.30656e-19 0.100719)
(9.98625 2.13686e-19 0.0704208)
(9.95592 -1.18453e-20 0.166554)
(9.97129 1.54679e-21 0.139929)
(9.91194 1.1691e-20 0.232526)
(9.93924 -2.211e-19 0.209047)
(9.85364 1.04068e-19 0.300275)
(9.88935 8.17785e-22 0.279273)
(9.78141 1.2669e-19 0.37123)
(9.82465 -1.15286e-19 0.352237)
(9.69547 7.24495e-19 0.446463)
(9.74698 4.69346e-19 0.429204)
(9.59589 -1.48511e-19 0.526871)
(9.65644 8.43929e-19 0.511129)
(9.4826 -9.9363e-19 0.61339)
(9.55249 -9.80032e-19 0.59894)
(9.35547 2.14951e-19 0.707037)
(9.4351 -5.34306e-21 0.693663)
(9.21426 1.59321e-18 0.808858)
(9.30423 7.21845e-20 0.796378)
(9.0587 -8.1615e-20 0.919921)
(9.15958 1.07086e-18 0.908184)
(8.88845 -1.03987e-18 1.04132)
(9.00092 -1.02258e-18 1.03021)
(8.70311 -1.83954e-20 1.17419)
(8.82791 -3.4364e-20 1.16361)
(8.50223 -1.23198e-18 1.31971)
(8.64013 -1.81417e-20 1.3096)
(8.28535 -2.44375e-18 1.47914)
(8.43709 -1.19324e-18 1.46946)
(8.05193 1.39174e-18 1.65376)
(8.21834 1.14945e-18 1.64454)
(7.80136 -2.58303e-19 1.84483)
(7.9833 1.53826e-19 1.83622)
(7.533 2.94277e-19 2.05352)
(7.73134 -2.69515e-18 2.04582)
(7.24588 2.9557e-18 2.28088)
(7.46166 2.83363e-18 2.27465)
(6.93856 -5.40726e-18 2.52757)
(7.17312 1.64003e-19 2.52387)
(6.6088 5.78647e-18 2.79378)
(6.86386 -5.34987e-18 2.7943)
(6.25343 1.0898e-17 3.07904)
(6.53106 1.13151e-17 3.08625)
(5.86799 1.01923e-19 3.38176)
(6.17094 5.26461e-20 3.39936)
(5.44622 -6.79264e-18 3.69854)
(5.77805 6.0846e-18 3.73194)
(4.97909 -6.73966e-18 4.023)
(5.34492 -1.23917e-17 4.08019)
(4.4547 0 4.34441)
(4.86068 9.51122e-20 4.43622)
(3.86004 1.44462e-17 4.64674)
(4.31233 -1.27109e-17 4.78619)
(3.17771 1.4061e-17 4.89789)
(3.6781 2.75493e-17 5.11222)
(2.41004 -1.76806e-17 5.06715)
(2.99919 -5.81059e-20 5.34744)
(1.97012 -3.18605e-17 5.55531)
(9.9855 -2.18951e-19 0.110632)
(9.9862 4.22797e-19 0.0768325)
(9.95694 -2.11665e-19 0.183489)
(9.97198 -1.07874e-19 0.152981)
(9.91447 -2.28171e-19 0.256849)
(9.94119 -1.08934e-19 0.229155)
(9.8584 -2.20553e-19 0.332297)
(9.89316 -2.24353e-19 0.306746)
(9.78908 2.37027e-19 0.411295)
(9.83113 0 0.387373)
(9.70675 5.94814e-19 0.494994)
(9.75693 1.23236e-21 0.472363)
(9.61148 -1.6571e-20 0.584374)
(9.67055 3.59671e-19 0.562754)
(9.50325 2.37164e-20 0.680452)
(9.57146 -8.49702e-19 0.659564)
(9.38193 -1.46903e-19 0.784317)
(9.45974 7.46078e-19 0.763885)
(9.24739 -4.35816e-19 0.897102)
(9.33536 -5.1043e-19 0.876864)
(9.09939 9.86374e-20 1.01996)
(9.19811 -9.71896e-19 0.999687)
(8.93768 -2.02283e-21 1.15409)
(9.0478 2.35792e-20 1.13357)
(8.76192 -3.38915e-20 1.30074)
(8.88418 2.09604e-18 1.27977)
(8.57168 4.58321e-21 1.4612)
(8.70692 -1.10201e-18 1.43964)
(8.3665 2.43472e-18 1.63687)
(8.51553 7.91837e-23 1.61459)
(8.14583 -1.01075e-19 1.82918)
(8.30952 2.40065e-18 1.80612)
(7.90909 -2.32362e-18 2.03958)
(8.08839 -2.51189e-18 2.01575)
(7.65553 -8.52285e-20 2.26951)
(7.85149 1.5601e-19 2.24505)
(7.38413 6.01464e-21 2.52043)
(7.5979 2.25106e-18 2.49567)
(7.0934 1.62348e-19 2.7936)
(7.32645 -2.51669e-18 2.7693)
(6.78095 3.53645e-19 3.08997)
(7.03521 8.01285e-20 3.06745)
(6.44329 3.46786e-19 3.40999)
(6.72116 3.50496e-19 3.39136)
(6.07553 6.09445e-18 3.75319)
(6.38024 0 3.74176)
(5.67092 3.49593e-19 4.11749)
(6.00649 5.87729e-18 4.11821)
(5.22011 -5.46863e-18 4.49764)
(5.59189 -5.63258e-18 4.51829)
(4.71021 -1.27072e-17 4.88295)
(5.12478 5.14902e-21 4.93539)
(4.12655 6.5803e-19 5.25614)
(4.59143 -1.2727e-17 5.35523)
(3.4489 1.32934e-17 5.5797)
(3.9606 1.28227e-17 5.75996)
(2.67351 -1.52608e-17 5.80899)
(3.29593 2.19313e-19 6.0679)
(2.20314 -1.48336e-18 6.34262)
(9.98593 5.25401e-19 0.120264)
(9.98624 7.5727e-22 0.0830528)
(9.9584 -5.07327e-21 0.19984)
(9.97287 4.27463e-19 0.165575)
(9.91763 -1.07084e-19 0.280237)
(9.94359 -2.3799e-22 0.248476)
(9.86399 0 0.363001)
(9.89769 2.20945e-19 0.333055)
(9.7979 -2.35858e-19 0.449633)
(9.83857 -2.24881e-19 0.420917)
(9.71954 -2.28337e-19 0.541363)
(9.76815 -2.32117e-19 0.513488)
(9.62899 -4.92669e-19 0.639246)
(9.68628 -2.33718e-19 0.611895)
(9.52624 -1.02729e-19 0.744362)
(9.59247 -4.85204e-19 0.717204)
(9.41128 3.63622e-19 0.857868)
(9.48689 4.91565e-19 0.83055)
(9.28398 -1.05351e-18 0.980974)
(9.36955 0 0.953162)
(9.14419 -1.03302e-18 1.11492)
(9.24028 -1.76275e-20 1.08631)
(8.9917 2.15219e-18 1.26098)
(9.09899 -6.64016e-20 1.23128)
(8.82628 9.84045e-19 1.42053)
(8.94545 1.14343e-18 1.38942)
(8.6476 -1.09225e-18 1.59502)
(8.77949 -3.27791e-18 1.56221)
(8.45515 -3.24634e-21 1.78598)
(8.60064 4.41514e-18 1.75126)
(8.24843 -7.43897e-20 1.99497)
(8.40847 1.96058e-20 1.95817)
(8.02687 3.57702e-21 2.22367)
(8.20257 -2.36362e-18 2.18463)
(7.78969 2.51913e-18 2.47382)
(7.98224 7.18167e-20 2.43249)
(7.5358 -3.24207e-19 2.74733)
(7.74655 2.48851e-18 2.70377)
(7.2636 -2.57511e-18 3.04611)
(7.49434 -2.68704e-18 3.00071)
(6.97066 7.94558e-20 3.37196)
(7.22355 1.22494e-20 3.32559)
(6.65328 0 3.72644)
(6.93112 0 3.68069)
(6.30621 -1.74502e-19 4.11037)
(6.61288 5.0668e-18 4.06805)
(5.92204 -1.93531e-19 4.52312)
(6.26252 -5.28712e-18 4.48878)
(5.49071 -1.12307e-19 4.96101)
(5.87098 -1.1045e-21 4.94209)
(4.99799 -8.95461e-20 5.41446)
(5.42552 -9.03803e-20 5.4236)
(4.42617 -3.72459e-19 5.86582)
(4.91139 -1.02766e-17 5.92016)
(3.74998 -3.65024e-19 6.27354)
(4.28513 1.05562e-17 6.41536)
(2.95513 1.39664e-17 6.57939)
(3.62744 -1.08621e-17 6.81639)
(2.45964 2.57983e-17 7.18161)
(9.98647 -9.03593e-20 0.129533)
(9.98632 -3.69895e-19 0.0890356)
(9.96014 4.24941e-19 0.215508)
(9.97387 -5.83491e-19 0.177631)
(9.92134 3.31585e-19 0.30258)
(9.94635 1.08768e-19 0.266884)
(9.87041 -1.13501e-20 0.392256)
(9.90289 1.03053e-21 0.358066)
(9.8078 -2.21268e-19 0.486078)
(9.84694 -1.71396e-21 0.452732)
(9.73373 -2.37508e-19 0.585375)
(9.78052 6.7866e-23 0.552421)
(9.64825 -2.30143e-19 0.691262)
(9.70346 -1.41912e-21 0.658358)
(9.55144 1.24144e-19 0.804858)
(9.61534 -2.35708e-19 0.771615)
(9.44332 1.2046e-19 0.927386)
(9.51635 6.0554e-19 0.893375)
(9.32382 1.03634e-18 1.06013)
(9.40651 -4.89301e-19 1.02495)
(9.19283 9.49451e-19 1.20441)
(9.28576 8.97267e-19 1.16769)
(9.05023 -1.05951e-18 1.36156)
(9.15409 -5.66742e-20 1.32293)
(8.89588 -3.18196e-18 1.53306)
(9.01139 -9.90529e-19 1.49208)
(8.72951 2.33341e-18 1.72054)
(8.85739 -2.17742e-18 1.67677)
(8.55075 4.38549e-18 1.92567)
(8.69188 4.42612e-18 1.87878)
(8.35917 -2.30046e-18 2.15017)
(8.51465 2.1498e-18 2.09983)
(8.15424 -2.26878e-18 2.39591)
(8.32528 -6.74657e-18 2.34177)
(7.93519 6.67532e-20 2.665)
(8.12311 2.3228e-18 2.60677)
(7.70095 6.97371e-20 2.95982)
(7.90734 3.99387e-21 2.89723)
(7.4499 -6.88124e-20 3.28298)
(7.67682 0 3.21594)
(7.17955 -6.75435e-20 3.63722)
(7.42948 -4.77154e-18 3.56605)
(6.8862 5.11586e-18 4.02533)
(7.16245 -1.10303e-20 3.95096)
(6.56445 -1.23201e-19 4.44977)
(6.87166 9.68492e-18 4.37414)
(6.2063 -5.06342e-18 4.91173)
(6.55067 -3.67473e-19 4.83875)
(5.80053 2.036e-20 5.4099)
(6.18966 -2.95776e-19 5.34639)
(5.33094 -1.03804e-17 5.93747)
(5.77432 -4.80247e-18 5.89611)
(4.77536 8.9192e-19 6.47865)
(5.28825 -2.01608e-17 6.4785)
(4.10054 -2.33017e-19 6.99067)
(4.67391 2.13298e-17 7.08188)
(3.27601 2.25233e-18 7.40409)
(4.02116 -1.11995e-17 7.60851)
(2.7603 1.22256e-17 8.11175)
(9.98707 -8.66775e-19 0.138384)
(9.98643 5.24498e-20 0.0947524)
(9.96211 -8.87669e-19 0.230395)
(9.97501 -5.79934e-20 0.189068)
(9.92552 -2.23796e-19 0.323749)
(9.94939 0 0.28426)
(9.87757 1.05599e-20 0.419929)
(9.90864 4.33916e-19 0.381646)
(9.81868 2.19772e-19 0.520492)
(9.85612 1.79242e-21 0.482702)
(9.74914 2.36237e-19 0.62686)
(9.79388 1.05911e-21 0.589032)
(9.66909 -1.0522e-20 0.740212)
(9.72193 2.32562e-19 0.701954)
(9.57861 2.58441e-19 0.861697)
(9.63988 -2.34638e-19 0.822576)
(9.47774 -2.04146e-20 0.992591)
(9.54783 4.83575e-19 0.952123)
(9.3665 -6.08964e-19 1.13425)
(9.44588 -4.89716e-19 1.09197)
(9.24487 -1.22955e-19 1.28803)
(9.33414 -1.29163e-21 1.24349)
(9.11282 0 1.45537)
(9.21267 -1.24653e-19 1.40808)
(8.97023 0 1.63784)
(9.08141 1.02134e-18 1.58729)
(8.81691 0 1.83717)
(8.94007 -1.0305e-18 1.78281)
(8.65276 2.15945e-18 2.05519)
(8.78874 -2.10638e-18 1.99649)
(8.4775 -2.40209e-18 2.29377)
(8.6275 6.46002e-18 2.2302)
(8.29066 -2.05202e-18 2.55504)
(8.4559 -4.44906e-18 2.48604)
(8.09156 2.23775e-18 2.84145)
(8.27348 8.84413e-20 2.76644)
(7.87923 -6.59782e-20 3.15584)
(8.07972 2.20885e-18 3.07417)
(7.65219 -4.7527e-18 3.50155)
(7.87336 2.09005e-18 3.41256)
(7.40812 -4.68275e-18 3.88233)
(7.65268 -9.16698e-18 3.78564)
(7.14349 4.63321e-18 4.3023)
(7.41549 -1.10638e-20 4.19795)
(6.85312 9.38198e-18 4.76579)
(7.15795 4.7589e-18 4.65446)
(6.52886 4.41975e-18 5.27665)
(6.874 3.63643e-19 5.16082)
(6.1585 -5.16163e-18 5.83722)
(6.55399 4.64323e-18 5.72211)
(5.72337 -1.47287e-17 6.4457)
(6.18235 -4.82016e-18 6.34269)
(5.1955 7.89493e-19 7.0924)
(5.74093 -9.88846e-18 7.0207)
(4.53004 9.89683e-18 7.73936)
(5.15772 9.88006e-18 7.75536)
(3.67163 -3.11702e-19 8.31364)
(4.52233 -6.54732e-20 8.45601)
(3.1444 -1.28346e-19 9.18624)
(9.98776 8.59608e-19 0.146763)
(9.98658 -5.19266e-20 0.100162)
(9.96431 8.31042e-19 0.244416)
(9.97631 5.75257e-20 0.199819)
(9.93009 6.65266e-19 0.343635)
(9.95268 2.12398e-19 0.300532)
(9.88533 4.18139e-19 0.4459)
(9.91481 6.53559e-19 0.403695)
(9.83038 -2.1706e-19 0.552748)
(9.86593 -4.41544e-19 0.510711)
(9.76564 9.71012e-22 0.665667)
(9.8081 2.25155e-19 0.623183)
(9.69131 1.23804e-21 0.785907)
(9.74152 2.28889e-19 0.742517)
(9.60749 1.20119e-21 0.914661)
(9.66581 -2.28141e-19 0.869901)
(9.51423 0 1.05324)
(9.58101 -9.41329e-19 1.00659)
(9.41166 1.25279e-19 1.20302)
(9.48734 2.32408e-19 1.15395)
(9.29988 -4.61669e-21 1.36545)
(9.38504 1.0894e-18 1.3134)
(9.17891 9.12589e-19 1.54202)
(9.27424 2.43324e-19 1.48642)
(9.04869 -3.56381e-20 1.73438)
(9.15486 1.02262e-18 1.67464)
(8.90923 -3.15269e-18 1.94432)
(9.0269 -3.05896e-18 1.87979)
(8.76062 2.29787e-18 2.17377)
(8.89065 -2.24823e-18 2.1037)
(8.60278 4.29266e-18 2.4248)
(8.74629 4.19349e-18 2.34845)
(8.43541 -2.2573e-18 2.69978)
(8.59359 2.09671e-18 2.61636)
(8.25806 7.79867e-20 3.0015)
(8.43242 -2.24856e-18 2.91004)
(8.06992 4.37008e-18 3.33321)
(8.26255 2.41202e-18 3.23268)
(7.86976 -2.4191e-18 3.69889)
(8.08274 2.49179e-18 3.58808)
(7.65585 -4.42064e-18 4.10331)
(7.89205 -2.30828e-19 3.98089)
(7.42535 1.42341e-19 4.55191)
(7.68934 -3.9611e-18 4.41672)
(7.17369 -4.31422e-18 5.0511)
(7.47143 4.55773e-18 4.90211)
(6.8934 6.09656e-19 5.60805)
(7.23356 -8.56439e-18 5.44535)
(6.57233 4.93009e-18 6.23034)
(6.96762 9.20539e-18 6.05584)
(6.19038 0 6.92442)
(6.65887 -8.30768e-18 6.7453)
(5.71388 -5.37987e-19 7.69373)
(6.28989 8.02722e-18 7.5245)
(5.08349 -2.61014e-19 8.51787)
(5.77824 -4.01874e-18 8.41389)
(4.20577 1.17469e-19 9.34591)
(5.20759 2.52338e-20 9.35515)
(3.69027 2.93014e-21 10.4844)
(9.98854 -8.52394e-19 0.154618)
(9.98684 -5.19451e-20 0.10523)
(9.96673 -5.58704e-19 0.257506)
(9.97771 -2.65251e-19 0.209826)
(9.93499 2.0802e-19 0.362163)
(9.95615 -1.06304e-19 0.315641)
(9.89353 -2.24202e-19 0.470073)
(9.92132 2.13626e-19 0.424147)
(9.84273 1.1408e-20 0.582729)
(9.87625 -2.19973e-19 0.536655)
(9.78303 4.53261e-19 0.701656)
(9.823 2.24289e-19 0.654747)
(9.71466 -7.42654e-21 0.828191)
(9.76199 2.30226e-19 0.77992)
(9.63775 -1.18167e-18 0.963573)
(9.6928 -2.2953e-19 0.913444)
(9.55244 -6.9238e-19 1.10911)
(9.61553 -9.42072e-19 1.05657)
(9.45894 1.20899e-18 1.26622)
(9.53047 2.30969e-19 1.21066)
(9.3574 1.32649e-18 1.43637)
(9.43797 9.66765e-19 1.37717)
(9.24793 3.6348e-19 1.62114)
(9.33819 3.6646e-19 1.55765)
(9.13066 -2.05416e-18 1.82221)
(9.23119 0 1.75375)
(9.0058 -2.14434e-18 2.04138)
(9.11725 -2.02982e-18 1.96717)
(8.87359 -2.78338e-19 2.28066)
(8.99679 -2.61308e-19 2.19979)
(8.73413 1.97094e-18 2.54231)
(8.87007 -1.28331e-20 2.45383)
(8.58742 2.064e-18 2.82888)
(8.73727 4.1149e-18 2.73172)
(8.43335 1.32535e-19 3.14347)
(8.5986 -2.02982e-18 3.03627)
(8.27146 5.30432e-19 3.48969)
(8.45399 2.03723e-18 3.371)
(8.101 4.66745e-18 3.87196)
(8.30289 1.3815e-19 3.74002)
(7.92116 2.08414e-19 4.29581)
(8.14543 2.22425e-18 4.14826)
(7.73032 5.18033e-19 4.76792)
(7.98143 -4.47123e-18 4.60209)
(7.52532 2.27371e-19 5.29672)
(7.80933 4.18102e-18 5.10951)
(7.30062 1.53739e-19 5.89286)
(7.62676 -4.14655e-18 5.68099)
(7.04645 -4.18428e-18 6.57006)
(7.42912 4.22085e-18 6.3301)
(6.745 -1.32456e-19 7.3462)
(7.20676 -7.44878e-18 7.0765)
(6.36204 4.39657e-18 8.24678)
(6.95035 7.61621e-18 7.94735)
(5.8283 -3.66517e-18 9.2943)
(6.58379 -3.49084e-18 8.99702)
(5.00207 -9.01872e-20 10.5466)
(6.20905 -2.31522e-19 10.249)
(4.5519 4.17499e-18 12.1375)
(9.98939 5.32126e-19 0.161911)
(9.98721 0 0.10992)
(9.96925 1.90062e-19 0.269618)
(9.97922 9.26141e-19 0.219073)
(9.9401 -9.53522e-20 0.379268)
(9.95973 -1.25484e-19 0.329544)
(9.90212 2.10904e-19 0.492362)
(9.92804 -3.88899e-19 0.442921)
(9.85562 0 0.610324)
(9.88695 4.0917e-19 0.560457)
(9.80108 1.2042e-21 0.734701)
(9.83847 0 0.683652)
(9.73883 1.16798e-21 0.866914)
(9.78314 2.12789e-19 0.814081)
(9.66905 0 1.00824)
(9.72066 0 0.953095)
(9.59195 -1.65837e-21 1.15998)
(9.65119 0 1.10193)
(9.5078 -1.61256e-21 1.32354)
(9.57504 -2.22135e-19 1.26194)
(9.41683 -2.07383e-21 1.50046)
(9.49265 -6.69891e-19 1.4346)
(9.3193 -2.02e-21 1.69234)
(9.4043 -7.90024e-21 1.62151)
(9.21551 0 1.90084)
(9.31023 1.13331e-18 1.82426)
(9.10584 -1.24111e-19 2.12776)
(9.21093 -1.83803e-18 2.04456)
(8.99067 6.85749e-21 2.37519)
(9.10688 3.57511e-18 2.28432)
(8.87038 2.17631e-18 2.64547)
(8.99858 -1.49706e-18 2.54577)
(8.7453 -4.392e-20 2.94132)
(8.88665 2.30062e-18 2.83144)
(8.61564 -8.62618e-20 3.26597)
(8.77151 -2.30378e-18 3.14427)
(8.48155 1.63028e-18 3.62328)
(8.6534 3.80711e-18 3.48788)
(8.34324 -2.29496e-18 4.01791)
(8.53306 -2.71777e-19 3.86637)
(8.20093 -2.50904e-18 4.4557)
(8.41166 -3.89917e-18 4.28477)
(8.05459 -7.46396e-19 4.94418)
(8.29001 1.5091e-18 4.74972)
(7.90344 -2.4722e-19 5.49323)
(8.169 -3.76725e-18 5.26993)
(7.74563 -1.93627e-20 6.1161)
(8.04962 1.71828e-18 5.85685)
(7.57718 8.74149e-19 6.83161)
(7.93304 -2.03138e-18 6.52618)
(7.38962 4.41288e-19 7.66849)
(7.81977 1.69762e-18 7.30222)
(7.16309 -4.25603e-19 8.67732)
(7.72051 -4.39908e-19 8.22362)
(6.84877 0 9.95004)
(7.60579 0 9.37398)
(6.30831 4.0017e-18 11.9681)
(7.81321 0 10.8964)
(7.20977 4.32566e-18 14.3303)
(0.165753 8.10199e-22 -0.0981293)
(0.0941205 -8.29547e-20 -0.138103)
(0.366722 -8.42132e-20 -0.101061)
(0.262145 7.59808e-20 -0.163818)
(0.557758 5.20353e-22 -0.0858341)
(0.449643 -1.42691e-19 -0.145733)
(0.724798 -2.99971e-20 -0.0691131)
(0.630005 3.35214e-21 -0.121995)
(0.866974 2.74826e-20 -0.0548393)
(0.788595 9.57959e-20 -0.101073)
(0.986808 3.11198e-20 -0.0432053)
(0.923595 5.8907e-20 -0.083812)
(1.0873 -2.83065e-20 -0.0336218)
(1.0384 -2.81847e-20 -0.0696123)
(1.17085 0 -0.0254144)
(1.13656 1.26718e-20 -0.0575483)
(1.23884 -5.6188e-21 -0.0180129)
(1.22035 0 -0.0466467)
(1.29184 -3.96718e-22 -0.0110614)
(1.29088 2.85858e-23 -0.0362067)
(1.33 5.31405e-21 -0.00444425)
(1.34871 -1.33119e-23 -0.0259193)
(1.35346 4.62984e-21 0.00166783)
(1.39405 -1.91267e-20 -0.0157947)
(1.36299 3.42199e-22 0.00686467)
(1.42694 2.80652e-20 -0.0062657)
(1.36006 -4.26481e-22 0.0108313)
(1.44764 -8.62104e-21 0.00215405)
(1.3468 1.18126e-22 0.0134211)
(1.45632 3.98535e-21 0.00901755)
(1.32605 -3.96348e-21 0.0145772)
(1.4549 3.56119e-21 0.0138874)
(1.30103 -1.60619e-21 0.0144383)
(1.44677 0 0.0165578)
(1.27481 3.02443e-21 0.0132974)
(1.43527 4.89627e-21 0.0171717)
(1.24999 5.4018e-21 0.0114887)
(1.42322 1.06101e-20 0.0161093)
(1.22853 1.30361e-21 0.00930829)
(1.41278 5.85917e-22 0.013808)
(1.21181 6.2484e-22 0.00699291)
(1.40546 -6.42941e-22 0.0107038)
(1.20049 -1.02443e-21 0.00474685)
(1.40194 -1.07303e-21 0.0072478)
(1.19453 -3.55701e-22 0.00275093)
(1.40213 1.97094e-21 0.00389546)
(1.19329 8.97479e-22 0.0010866)
(1.40544 -1.91797e-21 0.001014)
(1.1959 3.45186e-22 -0.000304702)
(1.41109 -4.75587e-22 -0.00129304)
(1.20164 4.50656e-24 -0.00156055)
(1.41841 2.56012e-21 -0.00311238)
(1.2101 -1.38082e-22 -0.00282011)
(1.42712 1.74778e-21 -0.00466499)
(1.22129 0 -0.0040755)
(1.4372 0 -0.00617766)
(1.23498 0 -0.00506193)
(1.44875 1.70071e-23 -0.00753278)
(1.46443 -1.66957e-23 -0.00815791)
(0.157499 -1.12843e-20 -0.23236)
(0.0719652 -4.77527e-19 -0.283603)
(0.346919 2.39465e-20 -0.238219)
(0.227886 4.62181e-19 -0.319161)
(0.53347 -1.38337e-19 -0.20793)
(0.404354 -1.42969e-19 -0.286834)
(0.701427 1.30997e-19 -0.174117)
(0.572743 3.89517e-21 -0.243589)
(0.84822 1.28047e-19 -0.145024)
(0.721702 1.19251e-19 -0.204855)
(0.976059 0 -0.121324)
(0.850493 0 -0.173035)
(1.08789 1.26143e-20 -0.101839)
(0.962216 0 -0.14715)
(1.18609 1.27289e-20 -0.0850765)
(1.06002 1.24635e-20 -0.125433)
(1.27232 5.58367e-21 -0.0697671)