/*--------------------------------*- C++ -*----------------------------------*\
| =========                 |                                                 |
| \\      /  F ield         | OpenFOAM: The Open Source CFD Toolbox           |
|  \\    /   O peration     | Version:  dev                                   |
|   \\  /    A nd           | Web:      www.OpenFOAM.org                      |
|    \\/     M anipulation  |                                                 |
\*---------------------------------------------------------------------------*/
FoamFile
{
    version     2.0;
    format      ascii;
    class       volVectorField;
    location    "0.25";
    object      cellDisplacement;
}
// * * * * * * * * * * * * * * * * * * * * * * * * * * * * * * * * * * * * * //

dimensions      [0 1 0 0 0 0 0];

internalField   nonuniform List<vector> 
2790
(
(0.00121522 0 3.2036e-06)
(0.00350076 0 9.29825e-06)
(0.0055179 0 1.48677e-05)
(0.00729125 0 2.00593e-05)
(0.00884343 0 2.49946e-05)
(0.0101946 0 2.97752e-05)
(0.0113628 0 3.4489e-05)
(0.0123638 0 3.92149e-05)
(0.0132116 0 4.40272e-05)
(0.013918 0 4.89994e-05)
(0.0144936 0 5.42085e-05)
(0.0149469 0 5.97395e-05)
(0.015285 0 6.56919e-05)
(0.0155133 0 7.21861e-05)
(0.0156356 0 7.93748e-05)
(0.0156538 0 8.74561e-05)
(0.0155681 0 9.66942e-05)
(0.0153764 0 0.000107447)
(0.0150745 0 0.000120208)
(0.0146554 0 0.00013566)
(0.0141094 0 0.000154762)
(0.0134235 0 0.00017886)
(0.012582 0 0.000209844)
(0.0115672 0 0.000250368)
(0.0103617 0 0.000304125)
(0.00895392 0 0.000376179)
(0.0073504 0 0.000473201)
(0.00560222 0 0.000602878)
(0.00386831 0 0.000768761)
(0.00261553 0 0.000944154)
(0.00121542 0 9.60208e-06)
(0.00350143 0 2.787e-05)
(0.00551917 0 4.45641e-05)
(0.00729328 0 6.01253e-05)
(0.00884641 0 7.4917e-05)
(0.0101988 0 8.92435e-05)
(0.0113685 0 0.000103367)
(0.0123714 0 0.000117524)
(0.0132215 0 0.000131935)
(0.0139309 0 0.000146817)
(0.0145102 0 0.0001624)
(0.0149681 0 0.000178933)
(0.0153119 0 0.000196708)
(0.0155474 0 0.000216076)
(0.0156788 0 0.000237481)
(0.0157087 0 0.000261493)
(0.015638 0 0.00028887)
(0.015466 0 0.000320631)
(0.0151897 0 0.000358169)
(0.0148046 0 0.000403401)
(0.0143038 0 0.000458988)
(0.0136787 0 0.000528618)
(0.0129196 0 0.000617397)
(0.0120171 0 0.000732318)
(0.0109656 0 0.000882771)
(0.00976978 0 0.00108084)
(0.00845862 0 0.00134055)
(0.00711151 0 0.00167337)
(0.00590752 0 0.00207058)
(0.00522566 0 0.00244195)
(0.00121586 0 1.59701e-05)
(0.00350284 0 4.63539e-05)
(0.00552177 0 7.41203e-05)
(0.00729737 0 0.0001)
(0.00885238 0 0.000124596)
(0.0102072 0 0.000148411)
(0.0113798 0 0.00017188)
(0.0123864 0 0.00019539)
(0.0132412 0 0.000219304)
(0.0139563 0 0.000243979)
(0.0145427 0 0.000269781)
(0.0150095 0 0.000297115)
(0.0153645 0 0.000326442)
(0.0156141 0 0.000358316)
(0.0157633 0 0.000393424)
(0.0158159 0 0.000432645)
(0.0157742 0 0.000477125)
(0.0156397 0 0.000528388)
(0.0154124 0 0.000588484)
(0.0150915 0 0.000660185)
(0.0146758 0 0.000747256)
(0.014164 0 0.00085479)
(0.0135566 0 0.000989597)
(0.012858 0 0.00116058)
(0.0120805 0 0.00137882)
(0.0112511 0 0.00165684)
(0.0104224 0 0.00200531)
(0.00968655 0 0.00242353)
(0.00918481 0 0.00287512)
(0.00909423 0 0.00323355)
(0.00121652 0 2.22793e-05)
(0.00350496 0 6.46674e-05)
(0.00552565 0 0.000103402)
(0.00730343 0 0.000139498)
(0.00886119 0 0.000173792)
(0.0102194 0 0.000206981)
(0.0113964 0 0.000239665)
(0.0124085 0 0.000272378)
(0.0132699 0 0.000305613)
(0.0139935 0 0.000339853)
(0.0145903 0 0.000375592)
(0.01507 0 0.00041336)
(0.0154412 0 0.000453759)
(0.0157109 0 0.000497495)
(0.0158855 0 0.000545432)
(0.0159702 0 0.000598652)
(0.0159695 0 0.000658536)
(0.0158874 0 0.000726882)
(0.0157277 0 0.000806041)
(0.0154946 0 0.000899104)
(0.0151934 0 0.00101012)
(0.0148318 0 0.00114434)
(0.0144217 0 0.00130839)
(0.0139821 0 0.00151024)
(0.0135424 0 0.00175858)
(0.0131471 0 0.00206083)
(0.012859 0 0.00241809)
(0.0127551 0 0.00281457)
(0.0128977 0 0.00319839)
(0.013254 0 0.00345663)
(0.0012174 0 2.84985e-05)
(0.00350775 0 8.27183e-05)
(0.00553072 0 0.000132259)
(0.00731131 0 0.000178411)
(0.00887261 0 0.000222237)
(0.0102353 0 0.000264621)
(0.0114179 0 0.00030632)
(0.0124369 0 0.000348003)
(0.013307 0 0.000390284)
(0.0140413 0 0.000433755)
(0.0146514 0 0.000479012)
(0.0151475 0 0.000526687)
(0.0155389 0 0.000577476)
(0.015834 0 0.000632184)
(0.0160401 0 0.000691762)
(0.0161643 0 0.000757374)
(0.0162133 0 0.000830459)
(0.0161942 0 0.000912823)
(0.0161146 0 0.00100674)
(0.0159837 0 0.00111504)
(0.0158133 0 0.00124126)
(0.0156191 0 0.00138961)
(0.015423 0 0.0015649)
(0.015255 0 0.00177201)
(0.0151553 0 0.00201471)
(0.015175 0 0.00229312)
(0.0153702 0 0.002599)
(0.015783 0 0.00290851)
(0.0163896 0 0.00317382)
(0.0170007 0 0.00332304)
(0.00121849 0 3.45946e-05)
(0.00351115 0 0.00010041)
(0.00553684 0 0.000160533)
(0.00732079 0 0.00021652)
(0.00888633 0 0.00026965)
(0.0102544 0 0.000320984)
(0.0114436 0 0.000371425)
(0.012471 0 0.000421765)
(0.0133514 0 0.000472724)
(0.0140983 0 0.000524984)
(0.0147239 0 0.000579221)
(0.0152392 0 0.00063613)
(0.0156542 0 0.000696462)
(0.0159783 0 0.00076105)
(0.0162203 0 0.000830851)
(0.0163889 0 0.000906985)
(0.0164931 0 0.000990777)
(0.0165426 0 0.0010838)
(0.0165486 0 0.0011879)
(0.0165245 0 0.00130522)
(0.016487 0 0.00143812)
(0.0164578 0 0.001589)
(0.0164645 0 0.00175988)
(0.0165422 0 0.00195161)
(0.0167332 0 0.00216248)
(0.0170831 0 0.00238611)
(0.0176292 0 0.00260862)
(0.0183733 0 0.00280646)
(0.0192263 0 0.00294814)
(0.0199217 0 0.00300688)
(0.00121974 0 4.05351e-05)
(0.00351504 0 0.000117646)
(0.0055438 0 0.000188067)
(0.00733156 0 0.000253609)
(0.00890188 0 0.000315754)
(0.010276 0 0.000375728)
(0.0114728 0 0.000434569)
(0.0125095 0 0.000493179)
(0.0134015 0 0.000552365)
(0.0141626 0 0.000612882)
(0.0148056 0 0.000675456)
(0.015342 0 0.000740814)
(0.0157828 0 0.000809713)
(0.0161383 0 0.000882961)
(0.0164186 0 0.000961437)
(0.0166339 0 0.00104611)
(0.0167951 0 0.00113806)
(0.0169141 0 0.00123844)
(0.0170046 0 0.00134845)
(0.0170827 0 0.00146925)
(0.0171682 0 0.00160173)
(0.017285 0 0.00174619)
(0.017462 0 0.00190173)
(0.0177329 0 0.00206542)
(0.0181334 0 0.0022311)
(0.0186949 0 0.0023882)
(0.0194307 0 0.00252125)
(0.0203088 0 0.00261194)
(0.021208 0 0.00264712)
(0.0218592 0 0.00263631)
(0.00122109 0 4.62887e-05)
(0.00351925 0 0.000134335)
(0.00555133 0 0.000214714)
(0.00734321 0 0.000289473)
(0.00891876 0 0.000360288)
(0.0102994 0 0.000428536)
(0.0115045 0 0.000495375)
(0.0125514 0 0.000561802)
(0.0134559 0 0.000628697)
(0.0142322 0 0.000696864)
(0.0148937 0 0.000767055)
(0.0154524 0 0.000839999)
(0.0159201 0 0.000916419)
(0.016308 0 0.000997047)
(0.0166272 0 0.00108263)
(0.0168891 0 0.0011739)
(0.0171059 0 0.00127161)
(0.0172909 0 0.00137638)
(0.0174593 0 0.00148871)
(0.0176282 0 0.00160868)
(0.0178179 0 0.00173576)
(0.0180514 0 0.00186835)
(0.0183545 0 0.00200318)
(0.018754 0 0.00213461)
(0.0192736 0 0.00225393)
(0.0199267 0 0.00234912)
(0.0207031 0 0.00240613)
(0.0215494 0 0.00241332)
(0.0223426 0 0.00237187)
(0.022864 0 0.00231426)
(0.0012225 0 5.1827e-05)
(0.0035236 0 0.000150394)
(0.00555912 0 0.000240338)
(0.00735531 0 0.00032393)
(0.00893634 0 0.000403021)
(0.0103239 0 0.000479126)
(0.0115377 0 0.000553511)
(0.0125953 0 0.000627252)
(0.0135128 0 0.000701285)
(0.014305 0 0.000776444)
(0.0149854 0 0.000853486)
(0.0155669 0 0.000933114)
(0.0160617 0 0.00101599)
(0.0164816 0 0.00110273)
(0.0168386 0 0.00119389)
(0.0171449 0 0.00128998)
(0.0174133 0 0.00139134)
(0.0176578 0 0.00149811)
(0.0178936 0 0.00161004)
(0.0181375 0 0.00172632)
(0.0184081 0 0.00184527)
(0.0187249 0 0.00196393)
(0.0191076 0 0.00207762)
(0.0195733 0 0.00217945)
(0.0201318 0 0.00226023)
(0.020779 0 0.00230895)
(0.0214871 0 0.0023149)
(0.0221938 0 0.00227263)
(0.0227949 0 0.00219153)
(0.0231476 0 0.0021123)
(0.00122387 0 5.71249e-05)
(0.00352788 0 0.000165749)
(0.00556682 0 0.000264823)
(0.00736736 0 0.00035682)
(0.00895399 0 0.000443752)
(0.0103487 0 0.00052726)
(0.0115713 0 0.000608701)
(0.0126399 0 0.000689217)
(0.0135706 0 0.000769784)
(0.0143787 0 0.000851249)
(0.0150782 0 0.000934356)
(0.0156821 0 0.00101976)
(0.0162032 0 0.00110804)
(0.0166538 0 0.00119969)
(0.0170462 0 0.00129507)
(0.0173931 0 0.00139441)
(0.0177073 0 0.00149771)
(0.0180026 0 0.00160464)
(0.0182934 0 0.00171439)
(0.0185948 0 0.00182549)
(0.0189223 0 0.00193551)
(0.0192905 0 0.00204084)
(0.0197118 0 0.00213638)
(0.020193 0 0.00221544)
(0.0207317 0 0.00227005)
(0.0213107 0 0.00229197)
(0.0218925 0 0.00227493)
(0.0224171 0 0.00221885)
(0.0228073 0 0.00213652)
(0.0229949 0 0.00206447)
(0.00122513 0 6.21606e-05)
(0.00353184 0 0.000180339)
(0.00557406 0 0.000288069)
(0.00737886 0 0.00038801)
(0.00897104 0 0.000482319)
(0.0103728 0 0.000572746)
(0.0116043 0 0.000660727)
(0.0126837 0 0.000747456)
(0.0136276 0 0.000833936)
(0.0144514 0 0.000921013)
(0.0151693 0 0.00100941)
(0.0157948 0 0.00109971)
(0.0163407 0 0.00119241)
(0.0168198 0 0.00128786)
(0.0172443 0 0.00138624)
(0.0176268 0 0.00148754)
(0.01798 0 0.00159146)
(0.0183166 0 0.00169731)
(0.0186497 0 0.0018039)
(0.0189917 0 0.00190937)
(0.0193545 0 0.00201102)
(0.0197473 0 0.0021052)
(0.0201755 0 0.00218722)
(0.0206378 0 0.0022516)
(0.0211227 0 0.00229264)
(0.0216063 0 0.00230561)
(0.02205 0 0.00228884)
(0.0224044 0 0.0022465)
(0.0226217 0 0.00219184)
(0.0226889 0 0.00214988)
(0.0012262 0 6.69161e-05)
(0.00353526 0 0.000194111)
(0.00558046 0 0.000309994)
(0.00738929 0 0.000417392)
(0.0089868 0 0.00051859)
(0.0103955 0 0.000615432)
(0.0116356 0 0.000709422)
(0.0127256 0 0.000801792)
(0.0136822 0 0.000893562)
(0.014521 0 0.000985568)
(0.0152564 0 0.00107849)
(0.0159021 0 0.00117287)
(0.0164709 0 0.00126908)
(0.0169756 0 0.00136735)
(0.0174283 0 0.00146771)
(0.0178412 0 0.00156993)
(0.0182261 0 0.0016735)
(0.0185947 0 0.0017775)
(0.018958 0 0.00188053)
(0.0193259 0 0.00198062)
(0.0197062 0 0.00207517)
(0.0201037 0 0.00216092)
(0.020518 0 0.00223414)
(0.0209421 0 0.00229096)
(0.0213604 0 0.00232818)
(0.0217478 0 0.00234433)
(0.0220714 0 0.00234116)
(0.0222976 0 0.00232513)
(0.0224057 0 0.00230745)
(0.0224149 0 0.00229988)
(0.001227 0 7.13756e-05)
(0.00353789 0 0.000207021)
(0.00558565 0 0.00033053)
(0.00739811 0 0.000444877)
(0.00900061 0 0.000552459)
(0.0104158 0 0.000655201)
(0.0116642 0 0.00075466)
(0.0127642 0 0.0008521)
(0.0137329 0 0.000948544)
(0.0145858 0 0.00104481)
(0.0153375 0 0.00114155)
(0.0160015 0 0.00123922)
(0.0165909 0 0.00133812)
(0.017118 0 0.00143837)
(0.0175947 0 0.00153984)
(0.0180325 0 0.00164219)
(0.0184423 0 0.00174474)
(0.0188343 0 0.00184646)
(0.0192174 0 0.00194591)
(0.019599 0 0.00204123)
(0.0199837 0 0.0021301)
(0.0203726 0 0.00220995)
(0.0207616 0 0.00227813)
(0.0211408 0 0.00233238)
(0.0214938 0 0.00237152)
(0.0217985 0 0.00239626)
(0.0220312 0 0.00240994)
(0.0221737 0 0.00241862)
(0.0222263 0 0.00242927)
(0.0222212 0 0.00244316)
(0.00122743 0 7.5526e-05)
(0.00353949 0 0.00021903)
(0.00558923 0 0.000349619)
(0.00740482 0 0.000470391)
(0.00901181 0 0.000583841)
(0.010433 0 0.00069196)
(0.0116891 0 0.000796348)
(0.0127985 0 0.000898291)
(0.0137783 0 0.00099881)
(0.0146442 0 0.00109871)
(0.0154106 0 0.00119858)
(0.0160911 0 0.00129884)
(0.0166985 0 0.00139971)
(0.0172447 0 0.00150119)
(0.0177412 0 0.00160309)
(0.0181986 0 0.00170494)
(0.0186269 0 0.00180601)
(0.0190346 0 0.00190525)
(0.0194291 0 0.00200129)
(0.0198153 0 0.00209248)
(0.0201956 0 0.00217695)
(0.0205683 0 0.00225281)
(0.0209277 0 0.0023184)
(0.0212632 0 0.0023727)
(0.02156 0 0.00241586)
(0.0218007 0 0.00244956)
(0.0219701 0 0.00247702)
(0.0220612 0 0.00250208)
(0.0220849 0 0.00252655)
(0.0220764 0 0.00254547)
(0.00122742 0 7.9356e-05)
(0.00353981 0 0.000230105)
(0.00559083 0 0.000367213)
(0.00740891 0 0.000493876)
(0.00901979 0 0.00061267)
(0.0104464 0 0.000725641)
(0.0117094 0 0.000834423)
(0.0128273 0 0.000940313)
(0.0138173 0 0.00104433)
(0.0146948 0 0.00114725)
(0.0154743 0 0.00124964)
(0.0161691 0 0.00135184)
(0.0167917 0 0.00145402)
(0.0173538 0 0.00155612)
(0.017866 0 0.00165787)
(0.0183383 0 0.00175876)
(0.0187794 0 0.00185805)
(0.0191967 0 0.00195472)
(0.019596 0 0.00204756)
(0.0199804 0 0.00213518)
(0.0203507 0 0.00221615)
(0.0207041 0 0.00228919)
(0.0210343 0 0.00235338)
(0.0213316 0 0.00240851)
(0.0215841 0 0.00245533)
(0.0217795 0 0.00249568)
(0.0219085 0 0.00253198)
(0.0219696 0 0.00256595)
(0.0219738 0 0.00259579)
(0.0219491 0 0.00261371)
(0.00273368 0 -0.000717679)
(0.00428605 0 -0.000588839)
(0.00630235 0 -0.000430582)
(0.00828103 0 -0.000294015)
(0.0100359 0 -0.00018833)
(0.0115226 0 -0.000110569)
(0.012752 0 -5.49862e-05)
(0.0137523 0 -1.60656e-05)
(0.0145544 0 1.06794e-05)
(0.0151857 0 2.86548e-05)
(0.0156688 0 4.03642e-05)
(0.0160207 0 4.76112e-05)
(0.0162538 0 5.16868e-05)
(0.0163767 0 5.3512e-05)
(0.0163947 0 5.37427e-05)
(0.0163102 0 5.28451e-05)
(0.0161235 0 5.11502e-05)
(0.0158325 0 4.88919e-05)
(0.0154335 0 4.62332e-05)
(0.0149211 0 4.32857e-05)
(0.0142882 0 4.01227e-05)
(0.0135263 0 3.6788e-05)
(0.0126251 0 3.33025e-05)
(0.011573 0 2.96684e-05)
(0.0103565 0 2.58712e-05)
(0.00896068 0 2.18812e-05)
(0.00736869 0 1.76535e-05)
(0.0055619 0 1.31266e-05)
(0.00351986 0 8.22059e-06)
(0.00121968 0 2.83267e-06)
(0.00516161 0 -0.00185146)
(0.00629368 0 -0.00153706)
(0.0078313 0 -0.0011385)
(0.00941112 0 -0.000783381)
(0.0108624 0 -0.000502276)
(0.0121262 0 -0.000292046)
(0.0131941 0 -0.000139951)
(0.0140781 0 -3.24786e-05)
(0.0147963 0 4.18653e-05)
(0.0153668 0 9.205e-05)
(0.0158055 0 0.000124798)
(0.0161248 0 0.000145026)
(0.0163336 0 0.000156291)
(0.0164383 0 0.000161159)
(0.0164425 0 0.000161471)
(0.0163475 0 0.000158544)
(0.0161526 0 0.000153322)
(0.0158552 0 0.000146469)
(0.0154513 0 0.000138456)
(0.0149349 0 0.000129601)
(0.014299 0 0.000120116)
(0.0135345 0 0.000110126)
(0.0126314 0 9.96894e-05)
(0.0115777 0 8.88108e-05)
(0.0103601 0 7.74454e-05)
(0.0089633 0 6.55032e-05)
(0.00737056 0 5.28488e-05)
(0.00556319 0 3.9298e-05)
(0.00352064 0 2.46114e-05)
(0.00121995 0 8.48092e-06)
(0.00890098 0 -0.00232966)
(0.00952858 0 -0.00196318)
(0.0103984 0 -0.00147812)
(0.0113676 0 -0.00102571)
(0.0123265 0 -0.000654476)
(0.0132144 0 -0.000368954)
(0.0140028 0 -0.000157827)
(0.0146812 0 -6.11236e-06)
(0.0152487 0 0.000100141)
(0.0157084 0 0.000172427)
(0.0160654 0 0.000219707)
(0.0163239 0 0.000248729)
(0.0164872 0 0.000264498)
(0.0165575 0 0.000270694)
(0.0165354 0 0.000270002)
(0.0164202 0 0.000264374)
(0.0162096 0 0.000255217)
(0.0159 0 0.000243539)
(0.0154864 0 0.000230052)
(0.0149624 0 0.000215245)
(0.0143203 0 0.00019944)
(0.0135511 0 0.000182825)
(0.0126441 0 0.000165488)
(0.0115874 0 0.000147427)
(0.0103673 0 0.000128562)
(0.00896859 0 0.000108741)
(0.00737435 0 8.7738e-05)
(0.00556577 0 6.52448e-05)
(0.0035222 0 4.08635e-05)
(0.00122049 0 1.40819e-05)
(0.0130063 0 -0.00217236)
(0.0131636 0 -0.00184554)
(0.0133859 0 -0.00140348)
(0.013723 0 -0.000972577)
(0.0141425 0 -0.000603784)
(0.0145993 0 -0.000309687)
(0.0150547 0 -8.56539e-05)
(0.0154804 0 7.91433e-05)
(0.0158577 0 0.000196527)
(0.0161747 0 0.000277164)
(0.0164242 0 0.000329918)
(0.0166014 0 0.000361793)
(0.0167031 0 0.000378184)
(0.0167261 0 0.000383188)
(0.0166677 0 0.000379876)
(0.0165242 0 0.000370523)
(0.0162914 0 0.000356805)
(0.0159644 0 0.000339935)
(0.015537 0 0.000320778)
(0.0150021 0 0.000299936)
(0.0143512 0 0.000277799)
(0.013575 0 0.000254597)
(0.0126624 0 0.000230426)
(0.0116012 0 0.000205267)
(0.0103776 0 0.000179001)
(0.00897618 0 0.000151409)
(0.00737976 0 0.00012217)
(0.00556943 0 9.08551e-05)
(0.00352438 0 5.6907e-05)
(0.00122124 0 1.96116e-05)
(0.0167715 0 -0.00152317)
(0.0165573 0 -0.00129891)
(0.0162689 0 -0.000984223)
(0.0160807 0 -0.000658756)
(0.0160253 0 -0.000364099)
(0.0160817 0 -0.000117439)
(0.0162128 0 7.80713e-05)
(0.0163822 0 0.000226349)
(0.0165597 0 0.000334181)
(0.0167219 0 0.000408935)
(0.0168519 0 0.00045747)
(0.0169368 0 0.000485653)
(0.0169668 0 0.000498286)
(0.0169341 0 0.000499195)
(0.016832 0 0.000491361)
(0.0166542 0 0.000477063)
(0.0163944 0 0.000458021)
(0.0160458 0 0.000435504)
(0.0156011 0 0.000410432)
(0.0150524 0 0.000383443)
(0.0143905 0 0.000354956)
(0.0136054 0 0.000325207)
(0.0126857 0 0.000294281)
(0.0116188 0 0.000262129)
(0.0103907 0 0.000228583)
(0.0089857 0 0.000193352)
(0.00738649 0 0.00015602)
(0.00557395 0 0.000116035)
(0.00352705 0 7.26825e-05)
(0.00122214 0 2.50495e-05)
(0.0197448 0 -0.000599061)
(0.0193018 0 -0.00050193)
(0.018694 0 -0.000348119)
(0.0181521 0 -0.000167314)
(0.017751 0 1.42131e-05)
(0.0174943 0 0.000178868)
(0.0173553 0 0.000317503)
(0.0172992 0 0.000427213)
(0.0172924 0 0.000508979)
(0.0173061 0 0.000565808)
(0.0173173 0 0.000601522)
(0.0173076 0 0.00061997)
(0.0172625 0 0.000624661)
(0.01717 0 0.000618622)
(0.0170202 0 0.000604354)
(0.0168043 0 0.000583859)
(0.0165139 0 0.000558698)
(0.0161407 0 0.000530056)
(0.0156763 0 0.000498805)
(0.0151115 0 0.000465556)
(0.0144367 0 0.000430701)
(0.0136411 0 0.000394453)
(0.012713 0 0.000356863)
(0.0116394 0 0.000317839)
(0.0104059 0 0.000277153)
(0.00899673 0 0.000234438)
(0.00739422 0 0.00018918)
(0.00557908 0 0.000140703)
(0.00353003 0 8.81387e-05)
(0.00122313 0 3.03777e-05)
(0.0217346 0 0.000381293)
(0.0212171 0 0.000363332)
(0.0204873 0 0.000366758)
(0.0197768 0 0.00040423)
(0.0191806 0 0.00046594)
(0.0187225 0 0.000537413)
(0.0183915 0 0.000606663)
(0.0181617 0 0.000665984)
(0.0180033 0 0.000711533)
(0.0178881 0 0.000742248)
(0.0177915 0 0.00075882)
(0.0176928 0 0.000762813)
(0.0175745 0 0.000756133)
(0.0174222 0 0.000740717)
(0.0172237 0 0.00071834)
(0.0169681 0 0.000690525)
(0.0166453 0 0.000658523)
(0.0162457 0 0.00062332)
(0.0157597 0 0.000585654)
(0.0151773 0 0.000546047)
(0.0144882 0 0.000504824)
(0.013681 0 0.000462141)
(0.0127434 0 0.000417996)
(0.0116623 0 0.000372238)
(0.0104228 0 0.00032457)
(0.00900881 0 0.000274546)
(0.0074026 0 0.000221551)
(0.00558457 0 0.000164785)
(0.00353318 0 0.000103229)
(0.00122417 0 3.55799e-05)
(0.0227772 0 0.00125029)
(0.0223158 0 0.0011516)
(0.0216299 0 0.00104427)
(0.020912 0 0.000968638)
(0.0202585 0 0.000928654)
(0.0197085 0 0.000915191)
(0.0192676 0 0.000916785)
(0.0189231 0 0.000923841)
(0.018654 0 0.000929723)
(0.0184372 0 0.00093053)
(0.0182505 0 0.000924457)
(0.0180735 0 0.000911056)
(0.0178885 0 0.000890688)
(0.0176799 0 0.000864155)
(0.0174342 0 0.000832416)
(0.0171392 0 0.000796419)
(0.0167837 0 0.000757017)
(0.016357 0 0.000714917)
(0.0158485 0 0.000670668)
(0.0152477 0 0.000624652)
(0.0145433 0 0.000577094)
(0.0137236 0 0.000528068)
(0.0127759 0 0.000477499)
(0.0116865 0 0.000425166)
(0.0104405 0 0.000370697)
(0.00902143 0 0.000313559)
(0.00741125 0 0.000253038)
(0.00559014 0 0.000188211)
(0.00353632 0 0.000117908)
(0.0012252 0 4.06405e-05)
(0.0230763 0 0.00190203)
(0.0227535 0 0.00177001)
(0.022219 0 0.00160668)
(0.0216047 0 0.00146348)
(0.0209968 0 0.0013542)
(0.0204433 0 0.0012764)
(0.0199639 0 0.00122208)
(0.0195598 0 0.00118267)
(0.0192211 0 0.00115108)
(0.0189322 0 0.00112219)
(0.018676 0 0.00109274)
(0.018435 0 0.00106087)
(0.0181925 0 0.00102575)
(0.0179335 0 0.000987178)
(0.0176441 0 0.00094536)
(0.0173117 0 0.000900671)
(0.0169245 0 0.000853538)
(0.0164709 0 0.00080436)
(0.01594 0 0.00075346)
(0.0153203 0 0.000701055)
(0.0146002 0 0.000647246)
(0.0137676 0 0.000592007)
(0.0128093 0 0.000535177)
(0.0117114 0 0.000476455)
(0.0104585 0 0.00041539)
(0.00903408 0 0.000351358)
(0.00741976 0 0.000283545)
(0.00559553 0 0.000210908)
(0.0035393 0 0.000132131)
(0.00122616 0 4.5544e-05)
(0.0229421 0 0.00230949)
(0.022769 0 0.00218905)
(0.0224183 0 0.00202233)
(0.0219572 0 0.00185746)
(0.0214523 0 0.00171414)
(0.0209525 0 0.00159693)
(0.0204867 0 0.00150321)
(0.0200672 0 0.00142763)
(0.0196945 0 0.00136457)
(0.0193613 0 0.00130921)
(0.0190563 0 0.00125793)
(0.0187662 0 0.00120822)
(0.0184769 0 0.00115846)
(0.0181748 0 0.00110777)
(0.0178468 0 0.00105574)
(0.0174803 0 0.00100224)
(0.0170633 0 0.000947313)
(0.0165841 0 0.000891059)
(0.0160312 0 0.000833569)
(0.015393 0 0.000774888)
(0.0146573 0 0.000714978)
(0.0138116 0 0.000653704)
(0.0128426 0 0.000590815)
(0.0117359 0 0.000525924)
(0.0104761 0 0.000458494)
(0.0090462 0 0.000387816)
(0.00742775 0 0.000312972)
(0.00560044 0 0.000232803)
(0.00354194 0 0.000145851)
(0.00122699 0 5.02743e-05)
(0.0226501 0 0.00252333)
(0.0225908 0 0.00243862)
(0.0223979 0 0.00230207)
(0.0220867 0 0.00214856)
(0.0217002 0 0.00199946)
(0.0212805 0 0.00186512)
(0.0208589 0 0.00174849)
(0.0204543 0 0.00164836)
(0.0200747 0 0.00156164)
(0.01972 0 0.00148488)
(0.0193847 0 0.00141493)
(0.0190599 0 0.00134926)
(0.0187348 0 0.001286)
(0.0183977 0 0.00122385)
(0.0180367 0 0.00116201)
(0.0176401 0 0.00109998)
(0.0171962 0 0.00103749)
(0.0166932 0 0.000974359)
(0.0161197 0 0.000910484)
(0.0154635 0 0.000845739)
(0.0147127 0 0.000779954)
(0.0138542 0 0.000712883)
(0.0128746 0 0.000644181)
(0.0117593 0 0.000573377)
(0.0104925 0 0.000499849)
(0.00905724 0 0.000422798)
(0.00743477 0 0.000341212)
(0.00560458 0 0.000253817)
(0.00354406 0 0.000159022)
(0.00122763 0 5.4815e-05)
(0.0223817 0 0.00262514)
(0.0223816 0 0.00257896)
(0.0222911 0 0.00248196)
(0.0220949 0 0.00235413)
(0.0218132 0 0.00221545)
(0.0214759 0 0.00207945)
(0.0211106 0 0.0019532)
(0.0207377 0 0.00183907)
(0.0203692 0 0.00173666)
(0.02001 0 0.00164423)
(0.0196595 0 0.00155962)
(0.0193126 0 0.00148075)
(0.0189617 0 0.00140583)
(0.0185975 0 0.00133348)
(0.0182096 0 0.00126271)
(0.0177875 0 0.00119278)
(0.0173198 0 0.00112319)
(0.0167955 0 0.00105359)
(0.0162028 0 0.000983673)
(0.01553 0 0.000913184)
(0.0147648 0 0.000841828)
(0.0138941 0 0.000769258)
(0.0129042 0 0.000695038)
(0.0117805 0 0.000618615)
(0.010507 0 0.000539287)
(0.00906664 0 0.000456171)
(0.00744041 0 0.00036816)
(0.00560763 0 0.000273874)
(0.00354547 0 0.000171593)
(0.00122803 0 5.91496e-05)
(0.0222082 0 0.00269411)
(0.0222162 0 0.00267098)
(0.0221733 0 0.00260201)
(0.0220503 0 0.00249757)
(0.0218477 0 0.00237395)
(0.0215814 0 0.00224441)
(0.0212716 0 0.00211751)
(0.0209365 0 0.00199773)
(0.020589 0 0.00188666)
(0.0202367 0 0.00178413)
(0.019882 0 0.0016891)
(0.0195232 0 0.00160017)
(0.0191554 0 0.00151589)
(0.0187713 0 0.00143501)
(0.0183624 0 0.00135651)
(0.0179192 0 0.00127959)
(0.0174315 0 0.00120362)
(0.0168883 0 0.0011281)
(0.0162786 0 0.00105263)
(0.0155906 0 0.000976811)
(0.014812 0 0.000900264)
(0.0139298 0 0.000822551)
(0.0129303 0 0.000743155)
(0.0117987 0 0.000661447)
(0.010519 0 0.000576651)
(0.00907381 0 0.000487804)
(0.00744421 0 0.000393713)
(0.00560929 0 0.000292898)
(0.00354599 0 0.000183519)
(0.00122811 0 6.32621e-05)
(0.0220832 0 0.00277491)
(0.022089 0 0.00274903)
(0.0220682 0 0.0026875)
(0.0219889 0 0.00259665)
(0.0218408 0 0.00248643)
(0.0216293 0 0.00236649)
(0.0213673 0 0.00224433)
(0.021069 0 0.00212489)
(0.0207462 0 0.00201082)
(0.0204071 0 0.00190311)
(0.020056 0 0.00180169)
(0.0196929 0 0.00170588)
(0.0193152 0 0.00161469)
(0.0189176 0 0.00152715)
(0.0184931 0 0.00144237)
(0.0180334 0 0.00135956)
(0.017529 0 0.00127807)
(0.0169699 0 0.00119735)
(0.0163452 0 0.00111689)
(0.0156437 0 0.00103625)
(0.014853 0 0.000954958)
(0.0139604 0 0.00087251)
(0.012952 0 0.00078832)
(0.0118131 0 0.000701695)
(0.0105276 0 0.000611792)
(0.0090782 0 0.000517577)
(0.00744574 0 0.000417777)
(0.00560922 0 0.000310819)
(0.0035454 0 0.000194757)
(0.00122781 0 6.71375e-05)
(0.021962 0 0.00284408)
(0.0219841 0 0.00280355)
(0.0219808 0 0.0027408)
(0.0219275 0 0.00265881)
(0.0218141 0 0.00256071)
(0.0216414 0 0.0024518)
(0.021417 0 0.00233763)
(0.0211507 0 0.00222265)
(0.0208523 0 0.00210988)
(0.0205291 0 0.00200102)
(0.0201859 0 0.00189676)
(0.0198241 0 0.00179702)
(0.0194421 0 0.00170134)
(0.0190362 0 0.00160907)
(0.0186007 0 0.00151953)
(0.0181284 0 0.00143205)
(0.0176108 0 0.00134601)
(0.0170385 0 0.00126086)
(0.0164012 0 0.00117609)
(0.0156879 0 0.00109119)
(0.0148866 0 0.00100565)
(0.0139846 0 0.000918916)
(0.0129683 0 0.000830351)
(0.0118228 0 0.000739207)
(0.0105323 0 0.000644583)
(0.00907927 0 0.000545384)
(0.00744455 0 0.000440267)
(0.00560709 0 0.000327577)
(0.00354349 0 0.000205267)
(0.00122704 0 7.07624e-05)
(0.0012269 0 8.29347e-05)
(0.00353868 0 0.000240443)
(0.00559007 0 0.000383584)
(0.00740994 0 0.000515705)
(0.00902402 0 0.000639412)
(0.0104553 0 0.000756799)
(0.0117245 0 0.000869524)
(0.0128501 0 0.000978892)
(0.0138492 0 0.00108591)
(0.0147372 0 0.00119134)
(0.0155282 0 0.0012957)
(0.0162355 0 0.00139931)
(0.016871 0 0.00150226)
(0.017446 0 0.00160446)
(0.0179705 0 0.0017056)
(0.0184536 0 0.00180515)
(0.018903 0 0.00190239)
(0.0193251 0 0.00199643)
(0.0197242 0 0.0020862)
(0.0201026 0 0.0021706)
(0.0204599 0 0.00224857)
(0.0207931 0 0.00231931)
(0.0210965 0 0.00238239)
(0.0213622 0 0.00243799)
(0.0215815 0 0.00248704)
(0.0217466 0 0.00253114)
(0.0218532 0 0.00257222)
(0.0219028 0 0.00261206)
(0.021905 0 0.00265238)
(0.0218758 0 0.00269489)
(0.00122571 0 8.62673e-05)
(0.0035357 0 0.000250077)
(0.00558649 0 0.00039883)
(0.00740712 0 0.000535946)
(0.00902364 0 0.000664163)
(0.0104589 0 0.000785554)
(0.0117334 0 0.000901798)
(0.0128659 0 0.0010142)
(0.013873 0 0.00112376)
(0.0147701 0 0.00123122)
(0.0155712 0 0.00133708)
(0.016289 0 0.00144159)
(0.0169352 0 0.00154483)
(0.0175204 0 0.00164667)
(0.018054 0 0.00174679)
(0.0185444 0 0.00184469)
(0.0189984 0 0.0019397)
(0.0194215 0 0.00203103)
(0.019817 0 0.00211781)
(0.0201866 0 0.00219918)
(0.0205297 0 0.00227439)
(0.0208435 0 0.00234297)
(0.0211234 0 0.00240476)
(0.0213637 0 0.00246007)
(0.021559 0 0.00250972)
(0.0217049 0 0.00255491)
(0.0218013 0 0.00259704)
(0.0218517 0 0.00263704)
(0.0218655 0 0.00267535)
(0.0218565 0 0.00271358)
(0.0012237 0 8.93001e-05)
(0.00353046 0 0.000258844)
(0.00557955 0 0.000412728)
(0.00739995 0 0.000554375)
(0.00901773 0 0.000686575)
(0.010456 0 0.000811522)
(0.0117349 0 0.000930828)
(0.0128731 0 0.0010458)
(0.013887 0 0.00115744)
(0.0147919 0 0.00126646)
(0.0156013 0 0.00137334)
(0.0163278 0 0.00147831)
(0.0169824 0 0.00158142)
(0.0175752 0 0.00168252)
(0.0181152 0 0.00178131)
(0.0186098 0 0.00187733)
(0.0190654 0 0.00196998)
(0.0194866 0 0.00205859)
(0.0198763 0 0.00214246)
(0.0202358 0 0.00222094)
(0.0205647 0 0.0022935)
(0.020861 0 0.0023599)
(0.0211214 0 0.00242012)
(0.0213422 0 0.00247441)
(0.0215206 0 0.00252349)
(0.0216552 0 0.0025681)
(0.0217471 0 0.00260889)
(0.0218016 0 0.00264635)
(0.0218268 0 0.00268099)
(0.0218325 0 0.00271406)
(0.00122077 0 9.2009e-05)
(0.00352261 0 0.000266679)
(0.00556863 0 0.000425141)
(0.00738774 0 0.000570857)
(0.00900574 0 0.000706576)
(0.0104457 0 0.000834532)
(0.0117279 0 0.00095645)
(0.0128705 0 0.00107354)
(0.0138899 0 0.0011868)
(0.0148011 0 0.00129694)
(0.0156173 0 0.00140442)
(0.0163505 0 0.00150944)
(0.0170114 0 0.00161205)
(0.0176096 0 0.00171211)
(0.0181535 0 0.00180932)
(0.01865 0 0.00190329)
(0.0191048 0 0.0019935)
(0.0195222 0 0.0020794)
(0.0199048 0 0.00216043)
(0.020254 0 0.0022361)
(0.0205695 0 0.00230603)
(0.0208507 0 0.0023702)
(0.0210956 0 0.00242862)
(0.0213015 0 0.00248133)
(0.0214678 0 0.00252884)
(0.0215949 0 0.00257162)
(0.0216854 0 0.00261009)
(0.021744 0 0.00264459)
(0.0217773 0 0.00267542)
(0.0217927 0 0.00270289)
(0.0012168 0 9.43712e-05)
(0.00351186 0 0.000273516)
(0.00555325 0 0.000435977)
(0.0073697 0 0.000585224)
(0.00898687 0 0.000724021)
(0.0104273 0 0.000854528)
(0.0117114 0 0.000978506)
(0.0128573 0 0.00109728)
(0.0138807 0 0.0012117)
(0.0147967 0 0.00132255)
(0.0156181 0 0.00143025)
(0.0163563 0 0.00153498)
(0.0170216 0 0.00163678)
(0.0176231 0 0.00173553)
(0.0181688 0 0.00183098)
(0.0186652 0 0.00192278)
(0.0191176 0 0.00201051)
(0.01953 0 0.00209371)
(0.0199051 0 0.00217195)
(0.0202443 0 0.00224489)
(0.0205482 0 0.0023123)
(0.0208164 0 0.0023741)
(0.021048 0 0.00243026)
(0.0212425 0 0.00248091)
(0.0214002 0 0.00252635)
(0.0215225 0 0.00256687)
(0.0216125 0 0.00260277)
(0.0216742 0 0.00263422)
(0.021713 0 0.00266132)
(0.0217342 0 0.00268385)
(0.00121169 0 9.63657e-05)
(0.00349791 0 0.000279298)
(0.00553297 0 0.000445146)
(0.0073453 0 0.000597368)
(0.00896027 0 0.000738723)
(0.0104002 0 0.000871369)
(0.0116849 0 0.000996968)
(0.0128323 0 0.00111688)
(0.0138582 0 0.00123204)
(0.0147776 0 0.0013432)
(0.0156027 0 0.00145079)
(0.0163443 0 0.00155491)
(0.0170122 0 0.00165564)
(0.0176154 0 0.00175287)
(0.0181613 0 0.00184641)
(0.0186562 0 0.00193597)
(0.0191051 0 0.00202119)
(0.0195118 0 0.00210171)
(0.0198792 0 0.00217722)
(0.0202091 0 0.00224746)
(0.0205026 0 0.00231232)
(0.0207599 0 0.00237164)
(0.0209809 0 0.00242537)
(0.0211664 0 0.00247371)
(0.0213176 0 0.00251684)
(0.0214366 0 0.00255496)
(0.0215261 0 0.00258823)
(0.0215899 0 0.00261674)
(0.0216321 0 0.00264044)
(0.0216567 0 0.00265899)
(0.00120536 0 9.7973e-05)
(0.00348053 0 0.000283968)
(0.00550741 0 0.000452564)
(0.00731402 0 0.000607188)
(0.00892535 0 0.000750574)
(0.0103634 0 0.000884863)
(0.0116476 0 0.00101171)
(0.0127953 0 0.00113238)
(0.0138217 0 0.00124778)
(0.0147427 0 0.00135885)
(0.0155706 0 0.00146606)
(0.016314 0 0.00156929)
(0.0169831 0 0.00166871)
(0.0175865 0 0.00176425)
(0.0181313 0 0.00185576)
(0.0186236 0 0.00194301)
(0.0190682 0 0.00202571)
(0.0194691 0 0.00210359)
(0.0198291 0 0.00217641)
(0.0201504 0 0.00224397)
(0.0204344 0 0.00230614)
(0.0206823 0 0.00236292)
(0.0208949 0 0.00241425)
(0.0210735 0 0.00246023)
(0.0212198 0 0.00250098)
(0.021336 0 0.00253665)
(0.021425 0 0.00256737)
(0.0214899 0 0.00259315)
(0.0215341 0 0.00261389)
(0.0215607 0 0.00262933)
(0.00119774 0 9.91761e-05)
(0.00345951 0 0.000287478)
(0.00547626 0 0.000458158)
(0.00727546 0 0.000614589)
(0.00888163 0 0.000759468)
(0.0103164 0 0.00089491)
(0.0115987 0 0.00102255)
(0.0127457 0 0.00114363)
(0.0137722 0 0.00125907)
(0.0146933 0 0.00136971)
(0.0155214 0 0.00147604)
(0.016265 0 0.0015781)
(0.016934 0 0.00167601)
(0.0175362 0 0.00176968)
(0.0180789 0 0.00185906)
(0.0185678 0 0.00194393)
(0.0190078 0 0.0020241)
(0.0194028 0 0.00209935)
(0.0197558 0 0.0021695)
(0.0200693 0 0.00223441)
(0.0203452 0 0.00229398)
(0.0205853 0 0.00234823)
(0.020791 0 0.00239715)
(0.020964 0 0.00244078)
(0.0211063 0 0.00247921)
(0.0212203 0 0.00251254)
(0.0213085 0 0.00254085)
(0.0213739 0 0.00256414)
(0.021419 0 0.00258237)
(0.0214466 0 0.00259538)
(0.00118874 0 9.99617e-05)
(0.00343462 0 0.000289792)