/*--------------------------------*- C++ -*----------------------------------*\
| =========                 |                                                 |
| \\      /  F ield         | OpenFOAM: The Open Source CFD Toolbox           |
|  \\    /   O peration     | Version:  dev                                   |
|   \\  /    A nd           | Web:      www.OpenFOAM.org                      |
|    \\/     M anipulation  |                                                 |
\*---------------------------------------------------------------------------*/
FoamFile
{
    version     2.0;
    format      ascii;
    class       volVectorField;
    location    "0.25";
    object      Force;
}
// * * * * * * * * * * * * * * * * * * * * * * * * * * * * * * * * * * * * * //

dimensions      [1 1 -2 0 0 0 0];

internalField   uniform (0 0 0);

boundaryField
{
    inlet
    {
        type            calculated;
        value           uniform (0 0 0);
    }
    outlet
    {
        type            calculated;
        value           uniform (0 0 0);
    }
    flap
    {
        type            calculated;
        value           nonuniform List<vector> 
33
(
(2.37245 1.68099e-17 -0.0860522)
(2.33612 1.69865e-17 -0.140331)
(2.30885 -1.55564e-18 -0.161612)
(2.28501 1.55024e-18 -0.151044)
(2.2614 -7.69734e-19 -0.12018)
(2.2338 1.5944e-17 -0.0817069)
(2.19965 1.63202e-17 -0.0425001)
(2.15578 8.08583e-40 -0.0107689)
(2.09529 -5.73972e-42 0.00895751)
(2.0121 -2.0625e-23 0.0173581)
(1.89319 1.63529e-17 0.0149123)
(1.72636 9.77424e-24 0.0109825)
(1.48555 -9.51038e-24 0.00851429)
(1.11089 9.69167e-24 0.00912428)
(0.412714 8.67244e-21 0.00936063)
(-0.00204863 -7.9948e-18 1.72756)
(-0.0049701 -3.20507e-20 1.51721)
(-0.00238693 -6.42265e-21 1.21828)
(1.72266 0 -0.0602519)
(1.74786 1.57614e-17 -0.106508)
(1.77626 -3.12241e-39 -0.123203)
(1.81495 1.65764e-17 -0.118128)
(1.86176 1.29673e-22 -0.098518)
(1.91446 -1.32243e-38 -0.0693075)
(1.96928 3.28419e-19 -0.0386409)
(2.02144 1.66388e-17 -0.0103138)
(2.06322 1.65649e-17 0.00922515)
(2.09273 1.64258e-17 0.0157699)
(2.10842 -8.91438e-20 0.0163789)
(2.10828 1.62984e-17 0.0104892)
(2.0919 2.21398e-20 0.00597882)
(2.05785 -4.34692e-20 0.00700393)
(2.00443 -1.10155e-23 0.00864348)
)
;
    }
    upperWall
    {
        type            calculated;
        value           uniform (0 0 0);
    }
    lowerWall
    {
        type            calculated;
        value           uniform (0 0 0);
    }
    frontAndBack
    {
        type            empty;
    }
}


// ************************************************************************* //
