/*--------------------------------*- C++ -*----------------------------------*\
| =========                 |                                                 |
| \\      /  F ield         | OpenFOAM: The Open Source CFD Toolbox           |
|  \\    /   O peration     | Version:  dev                                   |
|   \\  /    A nd           | Web:      www.OpenFOAM.org                      |
|    \\/     M anipulation  |                                                 |
\*---------------------------------------------------------------------------*/
FoamFile
{
    version     2.0;
    format      ascii;
    class       volVectorField;
    location    "0.25";
    object      U;
}
// * * * * * * * * * * * * * * * * * * * * * * * * * * * * * * * * * * * * * //

dimensions      [0 1 -1 0 0 0 0];

internalField   nonuniform List<vector> 
2790
(
(9.93887 -3.79875e-23 0.0193931)
(9.87255 0 0.0282089)
(9.77678 1.00255e-22 0.0343555)
(9.65553 -8.74088e-23 0.0405203)
(9.51564 -1.72208e-22 0.0468767)
(9.35892 1.32089e-22 0.0534121)
(9.18462 -4.61865e-23 0.0602573)
(8.99168 -4.85749e-22 0.067563)
(8.77926 3.99184e-22 0.0754476)
(8.54648 0 0.0840023)
(8.29234 2.21218e-22 0.0932976)
(8.01579 0 0.10338)
(7.71577 0 0.114267)
(7.39142 0 0.125936)
(7.04208 -1.08745e-21 0.138324)
(6.66746 3.51355e-21 0.151323)
(6.26775 -4.78975e-21 0.16478)
(5.84369 0 0.178504)
(5.3967 2.7082e-21 0.192273)
(4.92888 5.72149e-21 0.205837)
(4.44312 6.03962e-21 0.218918)
(3.9431 0 0.231204)
(3.43334 0 0.242331)
(2.91924 0 0.251871)
(2.4071 1.47788e-20 0.259352)
(1.90411 0 0.264362)
(1.41825 -1.29322e-19 0.266827)
(0.957965 -9.65294e-22 0.2675)
(0.526576 -6.27657e-22 0.269842)
(0.231716 1.42906e-19 0.253753)
(9.99477 3.79747e-23 0.0392965)
(9.98093 1.55497e-22 0.0599386)
(9.94042 1.4111e-22 0.0755089)
(9.87366 -3.22839e-22 0.0915873)
(9.7862 0 0.108581)
(9.6799 7.57145e-22 0.126399)
(9.55417 -6.84166e-22 0.145295)
(9.40802 9.59028e-23 0.165606)
(9.24059 0 0.187609)
(9.05094 -1.69544e-21 0.21153)
(8.83799 1.51765e-21 0.237555)
(8.60048 -3.73701e-21 0.26582)
(8.33712 4.79925e-21 0.296391)
(8.04663 0 0.329239)
(7.72785 1.07697e-21 0.36422)
(7.37984 1.03456e-20 0.401053)
(7.00201 -9.4551e-21 0.439312)
(6.59422 -5.04722e-21 0.478417)
(6.15692 -2.43328e-20 0.517636)
(5.69123 6.23275e-20 0.556084)
(5.19905 -1.66649e-20 0.592724)
(4.68316 1.25127e-20 0.626362)
(4.14723 0 0.655636)
(3.59591 0 0.679021)
(3.03471 -4.36041e-20 0.694882)
(2.46987 -3.03946e-20 0.701635)
(1.90798 -2.55083e-19 0.698107)
(1.35571 -2.00084e-21 0.684146)
(0.807408 8.85557e-19 0.663645)
(0.37183 -6.9797e-20 0.615304)
(9.99183 0 0.0422914)
(9.97496 3.87766e-22 0.0721957)
(9.93632 -2.38308e-22 0.0978026)
(9.87405 0 0.124272)
(9.79241 -6.63244e-22 0.152354)
(9.69337 7.00828e-22 0.182051)
(9.57659 0 0.213702)
(9.44126 -1.54261e-21 0.247784)
(9.28662 4.40521e-21 0.284744)
(9.11187 -6.67493e-21 0.324975)
(8.91597 2.58415e-21 0.368827)
(8.69771 9.14173e-22 0.41659)
(8.45572 -9.64555e-22 0.468459)
(8.18856 0 0.524497)
(7.89475 -2.12613e-21 0.58459)
(7.57288 -1.37533e-20 0.648413)
(7.2217 1.87056e-20 0.715406)
(6.84025 5.01198e-21 0.784745)
(6.42797 0 0.855338)
(5.98484 -3.39929e-20 0.925812)
(5.51149 4.64089e-20 0.994501)
(5.00929 -3.69874e-20 1.05943)
(4.48044 -1.05031e-19 1.11832)
(3.92803 1.35354e-19 1.16859)
(3.35597 -2.59217e-19 1.20743)
(2.76888 2.67872e-19 1.23211)
(2.17169 -6.23393e-20 1.24039)
(1.57036 -5.21919e-19 1.23136)
(0.955213 4.69455e-19 1.20975)
(0.441042 7.00446e-19 1.15331)
(9.99016 -3.7333e-25 0.047942)
(9.97102 2.31218e-22 0.0886271)
(9.93221 -7.94774e-23 0.125588)
(9.87115 0 0.162788)
(9.7912 1.34287e-21 0.201539)
(9.69426 -1.39644e-21 0.242242)
(9.58022 0 0.285421)
(9.44843 -2.69097e-21 0.331727)
(9.29828 7.30576e-22 0.381797)
(9.12909 -4.25058e-21 0.436222)
(8.94003 1.56281e-20 0.49555)
(8.73007 -1.54769e-20 0.560272)
(8.49798 7.5488e-21 0.630779)
(8.24246 0 0.707314)
(7.96205 -2.08803e-21 0.789914)
(7.6553 -4.46105e-21 0.878359)
(7.32075 4.66153e-21 0.972119)
(6.95705 0 1.07032)
(6.56308 -1.0346e-20 1.17171)
(6.13801 -1.1001e-20 1.27464)
(5.68144 1.1586e-20 1.37702)
(5.19349 2.43854e-20 1.47632)
(4.67495 0 1.56954)
(4.1273 1.62906e-19 1.65323)
(3.55284 -2.22339e-19 1.7236)
(2.95466 5.85189e-20 1.7768)
(2.33652 6.15675e-20 1.80957)
(1.70487 -5.7698e-19 1.82001)
(1.04976 1.06104e-18 1.81245)
(0.487973 -1.30897e-18 1.76053)
(9.98939 -1.50472e-22 0.0551044)
(9.96905 -3.07731e-22 0.105159)
(9.93012 0 0.15207)
(9.87015 8.13874e-23 0.198981)
(9.79191 0 0.247599)
(9.69709 0 0.298703)
(9.58567 0 0.352978)
(9.45706 -7.55754e-22 0.411183)
(9.31071 -6.76499e-21 0.474086)
(9.14601 7.34618e-21 0.542422)
(8.9622 -1.72155e-21 0.616888)
(8.75834 1.64053e-20 0.69813)
(8.53334 -1.6842e-20 0.786702)
(8.28596 0 0.88301)
(8.01486 -1.27307e-20 0.987251)
(7.71858 1.29693e-20 1.09934)
(7.39563 4.54392e-21 1.21887)
(7.0445 0 1.34503)
(6.6637 -7.26411e-20 1.47656)
(6.2519 8.50566e-20 1.61174)
(5.80792 0 1.74828)
(5.33092 1.92674e-19 1.88334)
(4.82044 2.91178e-20 2.01342)
(4.2766 -1.81441e-19 2.13437)
(3.70025 2.22521e-19 2.24147)
(3.0933 -6.92526e-19 2.32966)
(2.45871 4.77367e-19 2.39417)
(1.80397 6.2892e-20 2.43126)
(1.12078 0 2.44289)
(0.525933 6.85957e-20 2.39476)
(9.98906 -2.99334e-22 0.0629223)
(9.96825 4.59735e-22 0.121682)
(9.9296 -1.57095e-22 0.178007)
(9.87096 -8.13438e-23 0.234503)
(9.79479 0 0.292947)
(9.70258 0 0.354351)
(9.59428 -2.91157e-21 0.419534)
(9.46938 3.35614e-21 0.489358)
(9.32735 -6.32074e-21 0.56471)
(9.16763 7.28209e-21 0.646467)
(8.98949 8.56271e-22 0.735479)
(8.79204 -1.79273e-21 0.832555)
(8.57424 1.70316e-20 0.93842)
(8.33488 -3.51747e-21 1.05366)
(8.07264 -1.21803e-20 1.17864)
(7.78607 8.64707e-21 1.31347)
(7.4736 -9.14248e-21 1.4579)
(7.13356 -9.48293e-21 1.61127)
(6.76421 -8.13486e-20 1.77246)
(6.36375 8.33748e-20 1.93979)
(5.93039 0 2.11101)
(5.46239 0 2.28314)
(4.95819 -2.45986e-20 2.4524)
(4.41664 0 2.6141)
(3.83726 5.39935e-20 2.76257)
(3.2208 -2.86939e-20 2.89129)
(2.56953 2.90025e-20 2.9934)
(1.89171 0 3.06229)
(1.18124 0 3.0959)
(0.558396 5.95609e-19 3.04779)
(9.98898 0 0.0709807)
(9.9682 -6.11112e-22 0.138098)
(9.93025 7.82353e-22 0.203357)
(9.87323 1.2981e-21 0.269074)
(9.79948 -1.32825e-21 0.336988)
(9.7103 0 0.408278)
(9.60566 2.89032e-21 0.483916)
(9.48509 -2.95733e-21 0.564883)
(9.3481 7.03719e-21 0.65219)
(9.19415 -7.22173e-21 0.746851)
(9.02254 0 0.849867)
(8.83242 1.42844e-20 0.962201)
(8.62276 -1.46161e-20 1.08475)
(8.39239 4.54576e-23 1.21827)
(8.13996 -4.08007e-21 1.36333)
(7.86398 -4.28086e-21 1.52023)
(7.56277 0 1.68894)
(7.23451 9.43383e-21 1.86901)
(6.87716 0 2.05955)
(6.48848 1.02077e-20 2.25913)
(6.06605 -8.74861e-20 2.46566)
(5.60724 -8.96569e-20 2.67628)
(5.10939 0 2.88716)
(4.56996 0 3.09323)
(3.98696 -2.3549e-19 3.28797)
(3.35973 1.88177e-19 3.46322)
(2.68942 -6.15875e-22 3.60947)
(1.9844 0 3.71631)
(1.24002 5.11917e-19 3.77646)
(0.587435 -5.12876e-19 3.72708)
(9.98905 -1.13176e-24 0.0790413)
(9.96868 6.75946e-25 0.154235)
(9.93178 1.25032e-21 0.227971)
(9.87669 -1.11926e-21 0.302483)
(9.80568 0 0.379471)
(9.71999 0 0.460234)
(9.61953 0 0.545885)
(9.50389 -6.32631e-21 0.63752)
(9.37263 -8.78322e-22 0.736269)
(9.22525 7.14056e-21 0.843273)
(9.06108 -1.34921e-20 0.959678)
(8.87932 2.78947e-20 1.08661)
(8.67896 -1.44161e-20 1.22512)
(8.45885 5.72483e-21 1.37618)
(8.21764 -3.62297e-20 1.54056)
(7.95378 6.68067e-20 1.71878)
(7.66551 -3.45697e-20 1.91108)
(7.35081 7.41251e-20 2.1173)
(7.00736 -7.5843e-20 2.3369)
(6.63248 7.10978e-20 2.56879)
(6.22308 -1.57766e-19 2.81129)
(5.77564 1.01573e-19 3.06189)
(5.28622 -1.82073e-19 3.31699)
(4.75067 0 3.57147)
(4.16508 3.77629e-20 3.81818)
(3.52664 1.28968e-20 4.04737)
(2.8345 -2.7699e-20 4.24651)
(2.09602 0 4.4004)
(1.30604 -1.87819e-20 4.49523)
(0.615839 3.83025e-21 4.4471)
(9.98922 -5.89407e-22 0.0869527)
(9.96952 6.03194e-22 0.169929)
(9.934 9.33592e-22 0.251709)
(9.88114 -1.27155e-21 0.33457)
(9.81321 1.63863e-22 0.420201)
(9.73139 0 0.509984)
(9.63561 0 0.605152)
(9.52548 3.26543e-24 0.706916)
(9.40062 6.13389e-21 0.816514)
(9.26056 -6.28124e-21 0.935214)
(9.10473 1.24929e-20 1.0643)
(8.93234 1.98104e-21 1.20505)
(8.74245 -1.59786e-20 1.35872)
(8.53395 -1.88548e-21 1.52644)
(8.3055 -2.77017e-20 1.70923)
(8.05555 3.23526e-20 1.90786)
(7.78226 3.4565e-20 2.12288)
(7.48348 4.1317e-20 2.35451)
(7.15664 -7.38644e-20 2.60262)
(6.79864 0 2.86667)
(6.40576 -2.03389e-20 3.14559)
(5.97353 -9.65506e-20 3.43752)
(5.49665 9.86916e-20 3.73951)
(4.96905 0 4.04686)
(4.38423 -2.06301e-19 4.35232)
(3.7362 3.88546e-19 4.64498)
(3.02049 -2.06225e-19 4.9093)
(2.24161 0 5.12426)
(1.39019 3.62869e-21 5.26752)
(0.647834 -3.7859e-21 5.22776)
(9.98947 -8.74585e-22 0.0946109)
(9.97064 2.98945e-22 0.185044)
(9.93677 -9.24564e-22 0.274437)
(9.88642 2.37284e-21 0.365183)
(9.82189 -4.08742e-21 0.458982)
(9.74433 2.68372e-21 0.557286)
(9.65367 2.81192e-21 0.661427)
(9.54958 -2.51181e-21 0.772719)
(9.43172 0 0.892508)
(9.29972 -7.85102e-22 1.02218)
(9.15304 8.17182e-22 1.16315)
(8.99099 -1.70268e-21 1.31685)
(8.81271 1.42671e-20 1.48471)
(8.61714 -1.45544e-20 1.66806)
(8.40302 0 1.86816)
(8.16883 3.22977e-20 2.08606)
(7.91273 -3.71227e-20 2.32266)
(7.63252 -4.39367e-21 2.5786)
(7.32545 0 2.8543)
(6.98813 7.6175e-20 3.1499)
(6.61632 -6.3052e-20 3.46517)
(6.20466 -8.1011e-20 3.7993)
(5.74646 -1.34005e-20 4.15049)
(5.23351 0 4.51521)
(4.65608 0 4.88709)
(4.00363 9.58176e-20 5.25513)
(3.26562 -4.0942e-22 5.60158)
(2.44052 -2.0642e-19 5.89911)
(1.50814 -1.22245e-21 6.11399)
(0.690425 2.25406e-19 6.09823)
(9.98976 1.15989e-21 0.10194)
(9.97197 1.18642e-21 0.199463)
(9.94 -2.13494e-21 0.296031)
(9.89242 2.51044e-21 0.394176)
(9.83157 -9.6632e-22 0.495637)
(9.75861 -1.66191e-22 0.60192)
(9.67348 2.78149e-21 0.714443)
(9.5759 2.92136e-21 0.834615)
(9.46562 -5.70906e-21 0.963876)
(9.34232 5.82887e-21 1.10372)
(9.20556 6.56261e-21 1.25569)
(9.05475 1.05753e-21 1.42136)
(8.88912 -1.19753e-20 1.60231)
(8.70774 2.90717e-20 1.8001)
(8.50946 -1.29841e-21 2.01619)
(8.29285 -6.04519e-20 2.25196)
(8.05618 3.62499e-20 2.50864)
(7.79728 -3.40314e-20 2.78736)
(7.51341 3.47499e-20 3.08917)
(7.20105 2.23682e-21 3.41502)
(6.85564 -4.79635e-21 3.76576)
(6.4712 2.9933e-22 4.14199)
(6.03985 2.58005e-21 4.54371)
(5.55128 5.09881e-21 4.96959)
(4.99214 0 5.41562)
(4.34601 -1.08147e-20 5.87283)
(3.59314 -4.6415e-20 6.32369)
(2.72066 1.07484e-19 6.73594)
(1.68584 -4.98303e-20 7.06202)
(0.757077 -1.31466e-20 7.10394)
(9.9901 -1.15073e-21 0.108883)
(9.97348 -4.824e-24 0.213092)
(9.94359 -9.08949e-22 0.316377)
(9.89902 1.54915e-21 0.421419)
(9.84211 -3.21736e-22 0.530005)
(9.77405 1.66063e-22 0.64369)
(9.69482 -1.69838e-22 0.763967)
(9.60419 0 0.892321)
(9.50197 -9.31977e-23 1.03028)
(9.38795 1.93536e-22 1.17943)
(9.26179 1.26936e-20 1.34143)
(9.12301 -1.37915e-20 1.51798)
(8.971 -8.40219e-22 1.71081)
(8.80496 0 1.92166)
(8.6239 3.1352e-20 2.15223)
(8.4266 -2.36106e-21 2.40415)
(8.2115 -3.02837e-20 2.67905)
(7.97662 5.02709e-22 2.97853)
(7.7194 -3.40514e-20 3.30429)
(7.43647 6.77122e-20 3.65819)
(7.1233 -7.22139e-20 4.04235)
(6.77373 -7.47356e-20 4.4591)
(6.37924 3.81566e-20 4.91089)
(5.92799 4.49769e-21 5.39972)
(5.40338 0 5.926)
(4.78252 3.13373e-20 6.48619)
(4.03344 -2.11637e-20 7.06818)
(3.12425 -1.13394e-20 7.64112)
(1.9693 -4.53951e-20 8.14622)
(0.875525 4.70377e-20 8.31815)
(9.99048 4.9277e-24 0.115393)
(9.97512 -5.86393e-22 0.225851)
(9.94748 0 0.335377)
(9.90612 9.26729e-22 0.446794)
(9.85339 -1.57903e-21 0.561943)
(9.79049 -3.25136e-22 0.682425)
(9.71747 1.92607e-24 0.809788)
(9.63414 0 0.945587)
(9.54042 5.72e-21 1.09142)
(9.43618 -5.72563e-21 1.24896)
(9.3212 0 1.41994)
(9.19516 -1.98566e-22 1.60618)
(9.05758 8.3827e-22 1.80955)
(8.90788 -1.387e-20 2.03194)
(8.74528 1.41577e-20 2.27525)
(8.5688 1.04798e-21 2.54136)
(8.3772 -9.67445e-22 2.83222)
(8.16884 -5.00458e-22 3.1499)
(7.94156 3.27044e-20 3.49673)
(7.69242 -1.76111e-21 3.87547)
(7.41741 -6.88089e-20 4.28953)
(7.11084 -3.51834e-20 4.74321)
(6.76453 -8.74346e-21 5.24181)
(6.36644 -3.14185e-23 5.79168)
(5.89842 -1.86391e-20 6.39985)
(5.33278 1.31708e-20 7.07267)
(4.62474 4.75534e-21 7.81224)
(3.71576 5.50928e-20 8.60518)
(2.44373 -3.87463e-20 9.40406)
(1.10638 0 9.87226)
(9.99088 5.67974e-22 0.121435)
(9.97688 0 0.237677)
(9.95162 0 0.352946)
(9.91363 -6.06398e-22 0.470201)
(9.86527 1.57485e-21 0.591334)
(9.80776 1.63456e-21 0.717982)
(9.7412 -2.81769e-21 0.851741)
(9.66548 0 0.994217)
(9.58061 1.76403e-22 1.14707)
(9.48655 1.59081e-22 1.31202)
(9.38324 9.41344e-23 1.49088)
(9.27049 -1.24535e-20 1.68557)
(9.14802 1.29157e-20 1.89804)
(9.01547 1.3729e-20 2.13031)
(8.87234 -1.40112e-20 2.38443)
(8.71797 -5.5502e-22 2.6625)
(8.55149 -9.09112e-22 2.96672)
(8.37178 0 3.29954)
(8.17726 0 3.66381)
(7.96581 2.04159e-21 4.0631)
(7.73439 3.66486e-20 4.50198)
(7.47862 3.32666e-20 4.98657)
(7.19198 1.68128e-20 5.52504)
(6.86442 8.77041e-21 6.12845)
(6.47983 0 6.81177)
(6.01134 -1.75866e-20 7.59514)
(5.40895 3.14904e-20 8.50561)
(4.59121 -6.29104e-20 9.57589)
(3.2777 0 10.8461)
(1.59661 1.01995e-20 12.0576)
(9.9913 -9.74551e-22 0.126982)
(9.97872 -1.43165e-22 0.248518)
(9.95595 -1.17283e-21 0.369013)
(9.92148 6.08043e-22 0.491547)
(9.87764 0 0.618057)
(9.8257 -2.5644e-21 0.750209)
(9.76581 3.07945e-22 0.889634)
(9.69794 2.36383e-21 1.03797)
(9.62218 5.45099e-21 1.19693)
(9.53863 -5.57088e-21 1.36826)
(9.44734 -9.39901e-23 1.55385)
(9.34831 0 1.75564)
(9.24146 0 1.97567)
(9.12667 -2.07066e-22 2.21604)
(9.00375 2.13609e-22 2.47889)
(8.87242 1.35294e-20 2.76645)
(8.73228 -1.15545e-20 3.08112)
(8.5828 1.79591e-21 3.42557)
(8.42322 0 3.80304)
(8.25244 -1.52143e-20 4.2176)
(8.06891 7.75912e-21 4.67467)
(7.87034 7.56672e-21 5.18168)
(7.65324 -3.70203e-22 5.749)
(7.41218 -4.24555e-22 6.39148)
(7.13816 -7.16267e-21 7.13099)
(6.81576 6.7239e-21 8.00118)
(6.41268 2.46969e-20 9.05768)
(5.87504 8.41278e-21 10.402)
(4.85311 -1.90544e-20 12.2939)
(2.77987 -9.74489e-21 15.5824)
(-0.339569 -1.08137e-19 0.373717)
(-0.88588 1.05349e-19 0.413731)
(-1.6134 0 0.42497)
(-2.40148 0 0.431898)
(-3.24115 -5.16465e-20 0.431779)
(-4.11625 -2.03353e-21 0.423188)
(-5.00775 5.03904e-20 0.405226)
(-5.89332 -1.31005e-20 0.37738)
(-6.74709 0 0.339407)
(-7.53968 -6.76362e-21 0.29131)
(-8.23863 0 0.233385)
(-8.80938 -6.80828e-21 0.1663)
(-9.2169 6.64798e-21 0.0911311)
(-9.4279 0 0.00916982)
(-9.41422 0 -0.0783654)
(-9.15419 4.07186e-21 -0.17009)
(-8.64218 -2.61896e-21 -0.259337)
(-7.89106 1.08188e-21 -0.339134)
(-6.93063 -9.01055e-22 -0.403715)
(-5.80449 0 -0.448902)
(-4.5649 2.78641e-22 -0.47238)
(-3.26605 0 -0.474022)
(-1.95732 -1.4491e-22 -0.456216)
(-0.646006 0 -0.423775)
(0.589417 0 -0.381147)
(1.69985 -2.7915e-24 -0.335986)
(2.74863 3.56482e-24 -0.294753)
(3.70672 0 -0.258548)
(4.57828 -1.25468e-23 -0.227938)
(5.56879 9.8846e-24 -0.216504)
(-0.391943 -4.83634e-19 0.878619)
(-1.00498 4.16599e-19 0.978011)
(-1.78285 0 1.03427)
(-2.60074 -5.05741e-20 1.08144)
(-3.46084 0 1.11263)
(-4.34956 -1.03104e-19 1.12316)
(-5.24974 9.98882e-20 1.10895)
(-6.14006 1.29448e-20 1.06648)
(-6.99503 6.73989e-20 0.99283)
(-7.78517 -4.59013e-20 0.885892)
(-8.4775 -2.75289e-20 0.744764)
(-9.03672 2.68779e-20 0.570262)
(-9.42698 2.67208e-20 0.365367)
(-9.61445 -3.24171e-20 0.135071)
(-9.57061 1.2531e-20 -0.11391)
(-9.27838 -1.40032e-21 -0.368378)
(-8.73464 0 -0.609849)
(-7.9531 -1.07307e-21 -0.821714)
(-6.96392 -2.3765e-21 -0.990914)
(-5.81037 3.96019e-21 -1.10896)
(-4.54389 -1.25153e-21 -1.17237)
(-3.2175 1.38576e-21 -1.18311)
(-1.87962 1.97413e-22 -1.14889)
(-0.530449 2.40768e-22 -1.08107)
(0.718377 0 -0.991177)
(1.85526 1.14349e-23 -0.891865)
(2.92866 1.47073e-23 -0.798191)
(3.91385 2.20727e-24 -0.713837)
(4.80958 -1.56205e-23 -0.641339)
(5.82109 -2.90171e-23 -0.602807)
(-0.385152 5.32361e-20 1.54381)
(-1.02581 4.72124e-19 1.68093)
(-1.83352 -4.55197e-19 1.76313)
(-2.66282 5.00804e-20 1.83129)
(-3.52731 -2.04627e-19 1.87338)
(-4.41559 -5.94901e-20 1.88131)
(-5.31266 9.52463e-20 1.84799)
(-6.19863 -5.11994e-21 1.76734)
(-7.04884 9.06811e-20 1.63438)
(-7.83406 -2.74999e-20 1.4456)
(-8.52097 -5.57725e-20 1.19962)
(-9.07335 5.45441e-20 0.898089)
(-9.45418 1.33247e-20 0.546632)
(-9.62848 -7.1809e-21 0.155013)
(-9.56617 -2.56139e-20 -0.263015)
(-9.25215 -1.09995e-20 -0.686602)
(-8.68555 1.14108e-21 -1.08563)
(-7.88293 7.1966e-21 -1.4325)
(-6.87661 0 -1.70596)
(-5.71087 1.90753e-21 -1.89283)
(-4.4373 -2.60198e-21 -1.98878)
(-3.10884 1.87097e-23 -1.99874)
(-1.77333 2.10518e-22 -1.93677)
(-0.427045 -8.19123e-22 -1.81815)
(0.806688 2.28564e-22 -1.66734)
(1.93984 2.77184e-23 -1.50503)
(3.00311 4.14178e-23 -1.35026)
(3.97746 0 -1.20917)
(4.85696 1.76928e-23 -1.08634)
(5.85506 2.41145e-23 -1.00434)
(-0.355675 5.40095e-20 2.27118)
(-1.00324 -7.81743e-20 2.42289)
(-1.82367 -8.4114e-22 2.51483)
(-2.65023 5.11452e-20 2.59328)
(-3.50865 -2.57598e-19 2.64022)
(-4.38883 2.50297e-19 2.64344)
(-5.27781 0 2.59211)
(-6.15691 8.16983e-20 2.47684)
(-7.0019 -1.05532e-19 2.28977)
(-7.78314 2.73249e-20 2.02509)
(-8.46611 -2.84532e-20 1.67994)
(-9.01256 7.04572e-20 1.25565)
(-9.38311 1.38934e-20 0.759274)
(-9.54051 -1.30309e-20 0.204341)
(-9.45176 2.65074e-20 -0.389304)
(-9.10932 -2.27695e-20 -0.98718)
(-8.51551 3.21985e-20 -1.5461)
(-7.69058 -7.51646e-21 -2.02856)
(-6.66926 0 -2.40623)
(-5.49665 -1.56702e-21 -2.66215)
(-4.22409 -1.21684e-21 -2.79174)
(-2.90371 -4.30477e-22 -2.80288)
(-1.58042 -5.30986e-22 -2.71486)
(-0.249018 5.24214e-22 -2.54399)
(0.955789 -1.29421e-22 -2.33027)
(2.07663 2.54437e-23 -2.10318)
(3.1208 2.37124e-23 -1.88609)
(4.07587 0 -1.68735)
(4.93183 4.68846e-24 -1.51349)
(5.9063 -4.56935e-24 -1.38595)
(-0.315444 3.54061e-19 3.0163)
(-0.953687 3.2412e-20 3.17042)
(-1.76645 -4.11366e-19 3.26502)
(-2.57267 -5.20424e-19 3.34921)
(-3.41056 2.4463e-19 3.39847)
(-4.26999 -9.57516e-21 3.39596)
(-5.13965 4.23038e-19 3.32639)
(-6.00168 3.82777e-20 3.17633)
(-6.83194 -7.40115e-20 2.93427)
(-7.60017 -2.27674e-19 2.5915)
(-8.27046 -2.42682e-20 2.14332)
(-8.80256 -5.60585e-20 1.59088)
(-9.15477 -5.84491e-20 0.943509)
(-9.28786 -1.41346e-20 0.220576)
(-9.16567 -2.64702e-20 -0.549122)
(-8.79179 4.9561e-20 -1.31812)
(-8.17132 -4.97281e-20 -2.03079)
(-7.3288 2.03553e-20 -2.64086)
(-6.30103 -7.21677e-21 -3.11429)
(-5.13321 4.58654e-21 -3.4315)
(-3.87577 4.6609e-21 -3.58859)
(-2.57896 3.1209e-21 -3.5968)
(-1.28113 6.94385e-22 -3.47973)
(0.015495 4.67969e-22 -3.25494)
(1.17882 4.07925e-22 -2.97934)
(2.27525 -6.13539e-23 -2.68948)
(3.28995 -8.384e-24 -2.41102)
(4.21642 8.17588e-24 -2.15486)
(5.0414 2.73802e-23 -1.92979)
(5.98229 0 -1.75522)
(-0.268708 4.68937e-19 3.74919)
(-0.88007 6.49864e-21 3.90007)
(-1.66022 -3.65397e-19 3.99537)
(-2.42409 -1.39939e-21 4.08427)
(-3.22172 5.32573e-20 4.13568)
(-4.04184 -5.39736e-20 4.12813)
(-4.8747 -2.23093e-19 4.04168)
(-5.70323 1.88321e-19 3.85855)
(-6.50368 -5.75114e-20 3.5633)
(-7.24545 -1.21169e-19 3.14381)
(-7.8916 -2.62325e-20 2.59315)
(-8.39998 -1.36525e-19 1.91185)
(-8.72616 4.59251e-20 1.11108)
(-8.82851 -7.6939e-20 0.216683)
(-8.66738 0 -0.731342)
(-8.26184 0 -1.66912)
(-7.61934 2.76221e-20 -2.52916)
(-6.76885 -2.1428e-20 -3.25843)
(-5.74813 0 -3.81905)
(-4.60119 1.83883e-21 -4.18988)
(-3.37696 1.35578e-21 -4.3687)
(-2.12214 -2.66694e-21 -4.37013)
(-0.864594 1.00492e-21 -4.22006)
(0.370543 -4.63584e-22 -3.94128)
(1.48406 -4.99516e-22 -3.60607)
(2.54139 5.52504e-23 -3.25632)
(3.51524 1.51541e-23 -2.91781)
(4.40295 -1.47946e-23 -2.60482)
(5.18891 -4.64912e-23 -2.32874)
(6.08529 2.95964e-23 -2.10646)
(-0.217058 4.64819e-19 4.43827)
(-0.780942 -4.2019e-19 4.58468)
(-1.49936 -2.72947e-20 4.68187)
(-2.19504 5.28392e-20 4.77688)
(-2.92852 -2.7359e-19 4.83234)
(-3.68645 2.95167e-19 4.82229)
(-4.46088 0 4.72206)
(-5.23585 -1.09396e-21 4.50935)
(-5.98848 2.92815e-20 4.16438)
(-6.68836 0 3.67114)
(-7.2978 -9.88063e-20 3.01973)
(-7.77274 6.21214e-20 2.20964)
(-8.06511 1.46736e-19 1.25381)
(-8.12998 1.48253e-20 0.185621)
(-7.92613 -6.22227e-20 -0.939641)
(-7.49176 2.67092e-20 -2.03917)
(-6.83639 -2.59417e-20 -3.03565)
(-5.99264 0 -3.87238)
(-4.99724 0 -4.5099)
(-3.89119 2.94569e-21 -4.92584)
(-2.72126 -7.65976e-21 -5.12043)
(-1.52788 1.82902e-21 -5.11146)
(-0.323608 -1.80584e-21 -4.92097)
(0.811599 8.39003e-22 -4.5949)
(1.87464 -1.06402e-21 -4.20373)
(2.87732 4.00451e-22 -3.79717)
(3.7986 0 -3.40071)
(4.63698 0 -3.0324)
(5.3757 1.91652e-23 -2.70636)
(6.21674 -2.94343e-23 -2.43671)
(-0.160815 -6.85463e-21 5.04922)
(-0.653769 -4.64255e-19 5.19367)
(-1.27894 2.40475e-19 5.29648)
(-1.87836 4.41165e-19 5.40114)
(-2.52119 -2.17313e-19 5.46459)
(-3.19137 -2.77562e-20 5.45663)
(-3.88314 2.39258e-19 5.34784)
(-4.582 -3.27246e-19 5.11137)
(-5.26661 1.20901e-19 4.72278)
(-5.90747 -1.33368e-19 4.16149)
(-6.46653 -1.30998e-19 3.41374)
(-6.89777 -6.989e-20 2.47726)
(-7.14812 5.12532e-20 1.36697)
(-7.16695 0 0.124735)
(-6.91977 0 -1.17341)
(-6.46308 2.07981e-20 -2.42285)
(-5.80907 -2.75767e-20 -3.54033)
(-4.99184 2.09116e-20 -4.46991)
(-4.04395 -1.18572e-20 -5.17312)
(-3.00253 -8.40548e-21 -5.62578)
(-1.90952 2.19081e-21 -5.83057)
(-0.795467 -9.08853e-22 -5.80656)
(0.320034 -3.29382e-21 -5.57332)
(1.3534 1.34134e-21 -5.20483)
(2.34945 0 -4.76531)
(3.2828 0 -4.30515)
(4.13944 0 -3.85359)
(4.91784 0 -3.43239)
(5.6012 3.78529e-24 -3.05829)
(6.37671 -2.55611e-23 -2.74257)
(-0.0998289 -9.06608e-21 5.54746)
(-0.496767 2.30238e-19 5.69578)
(-0.997256 -4.60126e-19 5.80995)
(-1.472 4.52799e-19 5.92961)
(-1.99695 -4.5744e-19 6.00678)
(-2.55261 2.41789e-19 6.00738)
(-3.13594 1.08944e-19 5.8974)
(-3.73424 -1.20914e-19 5.64543)
(-4.3285 1.66096e-20 5.22215)
(-4.8912 -1.73999e-20 4.60173)
(-5.38473 1.8161e-20 3.76513)
(-5.76111 0 2.70703)
(-5.96079 1.82007e-20 1.44512)
(-5.92067 0 0.0319282)
(-5.63437 -6.778e-20 -1.42897)
(-5.16756 4.2741e-20 -2.81047)
(-4.53488 2.93092e-20 -4.02935)
(-3.76863 -2.22169e-20 -5.0357)
(-2.89256 2.16684e-20 -5.79315)
(-1.94297 -4.14137e-21 -6.27501)
(-0.946571 3.06223e-21 -6.48523)
(0.0737169 -2.30897e-21 -6.43566)
(1.04802 0 -6.17195)
(1.99547 6.0167e-22 -5.76514)
(2.90468 -3.87313e-22 -5.28287)
(3.75491 1.66287e-22 -4.77312)
(4.53486 -1.62859e-22 -4.27033)
(5.24288 0 -3.79977)
(5.86307 0 -3.38044)
(6.56394 2.17454e-23 -3.02104)
(-0.0341003 9.33682e-21 5.9005)
(-0.30996 -1.17288e-19 6.06174)
(-0.6571 6.25497e-22 6.19436)
(-0.98063 1.13717e-19 6.3355)
(-1.36167 0 6.43333)
(-1.77651 -1.38636e-19 6.45032)
(-2.2253 1.27924e-19 6.34804)
(-2.69725 8.215e-21 6.09083)
(-3.1765 1.24339e-19 5.64437)
(-3.6391 -1.3904e-19 4.97698)
(-4.04945 -3.74441e-20 4.06262)
(-4.35756 -9.88194e-20 2.89011)
(-4.49595 -1.18435e-21 1.48121)
(-4.37966 7.95977e-20 -0.0948683)
(-4.06528 0 -1.69915)
(-3.61022 8.58403e-21 -3.18697)
(-3.02539 2.79063e-20 -4.48514)
(-2.33754 -2.70561e-20 -5.55339)
(-1.55752 -9.64952e-21 -6.35582)
(-0.726803 1.35879e-20 -6.85837)
(0.162177 -5.89962e-21 -7.06597)
(1.02632 5.74291e-21 -6.99412)
(1.88571 -1.84092e-21 -6.70626)
(2.72838 -5.94302e-22 -6.26956)
(3.53453 1.12179e-21 -5.74846)
(4.28817 -5.04826e-22 -5.19398)
(4.9798 4.36617e-23 -4.64501)
(5.60768 6.46494e-23 -4.12973)
(6.15752 2.26524e-25 -3.66909)
(6.77602 -2.22083e-25 -3.26949)
(0.0360354 3.78139e-20 6.08029)
(-0.0952168 4.48162e-20 6.26665)
(-0.266059 -1.13748e-19 6.4256)
(-0.415952 4.31121e-20 6.59549)
(-0.630699 -7.50086e-21 6.72126)
(-0.881044 0 6.76241)
(-1.17073 -1.24852e-19 6.67688)
(-1.49055 1.21313e-19 6.4252)
(-1.82828 1.46987e-19 5.96805)
(-2.16531 -1.25996e-19 5.26725)
(-2.47099 -5.15099e-20 4.28807)
(-2.69224 1.1082e-19 3.00984)
(-2.75102 0 1.4605)
(-2.53479 -9.40674e-20 -0.25947)
(-2.22168 1.17827e-19 -1.97678)
(-1.81249 -3.62827e-20 -3.53965)
(-1.3092 -2.94399e-20 -4.89199)
(-0.72687 2.16871e-20 -6.00695)
(-0.0653999 4.50134e-21 -6.84813)
(0.632883 -9.82392e-21 -7.35925)
(1.35235 6.10765e-21 -7.55726)
(2.08598 -5.94221e-21 -7.47639)
(2.82126 1.81652e-21 -7.17157)
(3.54123 0 -6.70924)
(4.22981 3.03025e-23 -6.15419)
(4.87434 2.76132e-22 -5.56102)
(5.4671 1.39339e-22 -4.9721)
(6.00623 -6.42216e-23 -4.41798)
(6.4795 5.51342e-23 -3.92102)
(7.00957 -1.4525e-23 -3.48581)
(0.11051 -1.50637e-20 6.06931)
(0.144417 -4.44964e-20 6.29264)
(0.165397 4.36696e-20 6.48544)
(0.203109 -1.55352e-20 6.69029)
(0.171248 3.70802e-20 6.85195)
(0.10395 -6.48102e-20 6.92778)
(-0.0072216 5.51265e-20 6.87016)
(-0.15247 7.18407e-20 6.63634)
(-0.323464 -7.04413e-20 6.18426)
(-0.508521 0 5.47125)
(-0.686689 7.43121e-20 4.45591)
(-0.795907 -9.46099e-20 3.10636)
(-0.719211 0 1.43475)
(-0.401804 1.09346e-20 -0.425571)
(-0.146222 4.00452e-20 -2.23059)
(0.181197 -3.79838e-20 -3.86485)
(0.569351 0 -5.24397)
(1.02404 6.74626e-21 -6.38334)
(1.52818 1.12936e-20 -7.23074)
(2.07351 -8.17914e-21 -7.75608)
(2.65 1.41936e-20 -7.96194)
(3.24238 -8.78928e-21 -7.87746)
(3.83667 -1.96285e-21 -7.55948)
(4.4192 0 -7.07576)
(4.97766 -6.48301e-23 -6.49292)
(5.50248 -8.67793e-22 -5.86832)
(5.98763 1.60894e-22 -5.24687)
(6.43114 2.47907e-22 -4.6609)
(6.82299 -5.48497e-23 -4.13367)
(7.2605 1.44633e-23 -3.66846)
(0.196368 1.19579e-19 5.8593)
(0.412379 5.89625e-20 6.13129)
(0.631783 -1.01368e-19 6.3678)
(0.856914 2.86918e-20 6.61113)
(1.01445 -3.02254e-20 6.81158)
(1.13636 1.49928e-20 6.92393)
(1.21539 2.42364e-20 6.89862)
(1.25907 0 6.69032)
(1.27446 4.553e-21 6.25469)
(1.26889 8.0555e-20 5.54661)
(1.25606 0 4.51605)
(1.30967 5.43639e-21 3.10431)
(1.558 0 1.31833)
(1.86907 0 -0.592206)
(2.05088 0 -2.40296)
(2.26228 2.62655e-20 -4.0375)
(2.52524 -6.44118e-20 -5.46212)
(2.84287 2.93127e-20 -6.63901)
(3.20603 -5.6301e-21 -7.51849)
(3.60526 0 -8.06373)
(4.02999 0 -8.27612)
(4.46815 2.65782e-21 -8.18947)
(4.90902 1.93955e-21 -7.86181)
(5.34305 5.9033e-22 -7.36222)
(5.76196 -5.15025e-24 -6.75892)
(6.15927 3.86225e-22 -6.1112)
(6.53061 -7.13819e-23 -5.46567)
(6.87388 7.93532e-23 -4.8558)
(7.1812 1.09124e-22 -4.30525)
(7.52414 0 -3.81653)
(0.305361 3.5284e-19 5.44153)
(0.716696 -1.14012e-19 5.78139)
(1.13127 0 6.07254)
(1.53707 -2.83006e-20 6.35585)
(1.88208 -7.32172e-21 6.59875)
(2.19021 1.74069e-22 6.75163)
(2.45717 -2.36e-20 6.76131)
(2.68993 3.50377e-20 6.57986)
(2.89647 -2.99396e-20 6.16185)
(3.08372 -4.73641e-21 5.46012)
(3.26533 1.25778e-21 4.41892)
(3.50103 -6.64842e-21 2.98978)
(3.82628 -4.14491e-20 1.23527)
(4.10076 8.62166e-20 -0.662581)
(4.23351 -3.58004e-20 -2.494)
(4.35726 -4.52181e-21 -4.15772)
(4.51183 0 -5.61265)
(4.70497 -1.27097e-20 -6.81724)
(4.9323 1.79249e-20 -7.7174)
(5.18482 -3.68501e-21 -8.27614)
(5.45355 4.85283e-21 -8.49409)
(5.7309 3.113e-21 -8.40663)
(6.01125 0 -8.07322)
(6.29024 -6.0758e-22 -7.56408)
(6.56414 -3.61741e-22 -6.94852)
(6.82967 -1.31531e-22 -6.28682)
(7.08411 1.29605e-22 -5.62645)
(7.32516 -4.64932e-22 -5.00136)
(7.54693 3.5511e-23 -4.4351)
(7.7955 1.92456e-23 -3.92991)
(0.44952 -5.61556e-20 4.73265)
(1.07005 0 5.2641)
(1.66179 -5.65034e-20 5.62932)
(2.23545 5.4193e-20 5.94398)
(2.7596 4.21281e-20 6.22769)
(3.24209 2.84562e-22 6.42276)
(3.68331 7.26962e-21 6.46907)
(4.09258 -2.42881e-22 6.31636)
(4.47895 -1.40038e-22 5.91835)
(4.84902 -3.37752e-20 5.22609)
(5.21287 -7.72281e-20 4.18367)
(5.59053 4.14812e-20 2.76456)
(5.95922 -4.00107e-21 1.0485)
(6.21892 -4.39749e-20 -0.789968)
(6.3195 3.93722e-20 -2.57289)
(6.38108 3.83531e-20 -4.22339)
(6.45324 -4.72682e-20 -5.69161)
(6.54515 1.7267e-21 -6.91479)
(6.65174 1.66941e-20 -7.82858)
(6.76503 -1.44396e-20 -8.39469)
(6.88013 1.39742e-21 -8.61498)
(6.996 -3.09795e-21 -8.52696)
(7.11408 0 -8.19153)
(7.23641 6.19537e-22 -7.67956)
(7.36429 -6.10516e-22 -7.06046)
(7.49777 6.87041e-22 -6.39451)
(7.63569 0 -5.72906)
(7.77553 4.89719e-22 -5.09786)
(7.91297 -2.32267e-22 -4.52386)
(8.06959 -1.74473e-23 -4.00952)
(9.99174 -2.1358e-21 0.1321)
(9.98065 0 0.258514)
(9.96051 5.62648e-22 0.383805)
(9.92973 1.63377e-24 0.511156)
(9.89063 -1.18246e-21 0.642542)
(9.84454 6.07255e-22 0.77965)
(9.79165 6.20552e-22 0.924131)
(9.73202 3.24192e-22 1.07765)
(9.66585 0 1.24192)
(9.59334 -3.44668e-22 1.41874)
(9.51472 -6.35728e-21 1.61)
(9.43015 6.49493e-21 1.81768)
(9.3398 1.20027e-20 2.04384)
(9.2438 -1.22448e-20 2.29061)
(9.14231 -7.78416e-22 2.56018)
(9.03546 -1.21686e-20 2.85483)
(8.92339 1.15533e-20 3.177)
(8.80626 -1.72637e-21 3.52947)
(8.68423 0 3.91557)
(8.55749 -3.40563e-21 4.3396)
(8.42629 1.05884e-20 4.80724)
(8.291 -1.70362e-22 5.32637)
(8.1523 -1.7032e-21 5.90812)
(8.0115 -1.51267e-20 6.56859)
(7.87149 1.01862e-20 7.332)
(7.73986 9.94965e-21 8.2364)
(7.636 -1.10139e-20 9.34581)
(7.67372 0 10.7712)
(8.3184 -1.20271e-21 12.695)
(8.80702 5.59058e-21 15.7499)
(9.99221 1.02105e-21 0.136794)
(9.9827 1.64748e-23 0.267668)
(9.96531 -1.07385e-21 0.397305)
(9.9384 0 0.528976)
(9.90425 1.13796e-21 0.664684)
(9.86422 5.88765e-22 0.806127)
(9.81858 -1.20243e-21 0.954963)
(9.76747 -2.48315e-21 1.11286)
(9.71117 1.90526e-21 1.28154)
(9.65005 0 1.4628)
(9.58445 -4.72687e-21 1.65852)
(9.51476 1.03759e-20 1.87068)
(9.44135 -5.6704e-21 2.10133)
(9.36466 -5.8523e-21 2.35256)
(9.28518 6.72632e-21 2.62654)
(9.20349 1.5035e-21 2.92549)
(9.12028 -1.2462e-20 3.25179)
(9.03642 3.15521e-21 3.6081)
(8.953 1.92549e-20 3.99761)
(8.87154 -6.32594e-21 4.42436)
(8.7941 6.3712e-21 4.89365)
(8.72375 6.4769e-21 5.41267)
(8.66522 -4.47957e-21 5.99135)
(8.62635 1.61594e-20 6.64347)
(8.62094 -5.79727e-21 7.38831)
(8.67572 -5.30569e-21 8.25259)
(8.83799 -5.89962e-21 9.27154)
(9.17875 7.69721e-21 10.4837)
(9.99494 -3.94441e-21 11.8274)
(10.7082 -3.48183e-21 12.9303)
(9.99271 0 0.14098)
(9.98483 6.36573e-23 0.275819)
(9.97031 9.83351e-22 0.409294)
(9.9474 0 0.544742)
(9.91837 -5.51841e-22 0.684184)
(9.88459 0 0.829317)
(9.84641 5.82484e-22 0.981787)
(9.80404 -2.38217e-21 1.14325)
(9.75786 6.00908e-22 1.31542)
(9.70836 -1.47878e-23 1.50004)
(9.65604 3.20153e-21 1.69899)
(9.60147 0 1.91418)
(9.54526 1.33467e-21 2.1476)
(9.48812 0 2.40129)
(9.43088 -5.65407e-21 2.67727)
(9.37454 4.29642e-21 2.97764)
(9.32032 0 3.30455)
(9.26973 -3.02599e-21 3.66039)
(9.22475 -2.90899e-21 4.0479)
(9.188 3.10789e-21 4.47048)
(9.16305 -4.44479e-21 4.9324)
(9.15499 -1.47501e-21 5.43923)
(9.17125 3.15142e-21 5.99808)
(9.223 -5.53874e-21 6.61778)
(9.32722 -2.12837e-21 7.30849)
(9.50964 1.14848e-20 8.07949)
(9.8058 -4.4332e-21 8.93245)
(10.2288 -1.92682e-21 9.85335)
(10.9126 -2.17713e-22 10.7828)
(11.7644 -5.00716e-22 11.4739)