/*--------------------------------*- C++ -*----------------------------------*\
| =========                 |                                                 |
| \\      /  F ield         | OpenFOAM: The Open Source CFD Toolbox           |
|  \\    /   O peration     | Version:  dev                                   |
|   \\  /    A nd           | Web:      www.OpenFOAM.org                      |
|    \\/     M anipulation  |                                                 |
\*---------------------------------------------------------------------------*/
FoamFile
{
    version     2.0;
    format      ascii;
    class       surfaceVectorField;
    location    "0.25";
    object      Uf;
}
// * * * * * * * * * * * * * * * * * * * * * * * * * * * * * * * * * * * * * //

dimensions      [0 1 -1 0 0 0 0];

internalField   nonuniform List<vector> 
5457
(
(9.91957 -1.87566e-23 0.023856)
(9.96682 3.68903e-25 0.0387607)
(9.82445 5.07633e-23 0.0313212)
(9.92674 7.77483e-23 0.0469972)
(9.7132 5.59874e-24 0.0374769)
(9.8586 1.20652e-22 0.0563795)
(9.58393 -1.30343e-22 0.0437386)
(9.7646 -2.05118e-22 0.067188)
(9.43655 -1.80638e-23 0.0501855)
(9.65092 -8.61042e-23 0.078564)
(9.2711 4.18332e-23 0.0568776)
(9.51941 4.44641e-22 0.0904374)
(9.08727 -2.68718e-22 0.0639558)
(9.36939 -3.65164e-22 0.103036)
(8.88442 -3.75717e-23 0.0715545)
(9.19985 -1.94924e-22 0.116584)
(8.66169 1.97102e-22 0.0797783)
(9.00992 1.99593e-22 0.131255)
(8.41808 1.11988e-22 0.0887078)
(8.79871 -8.47716e-22 0.147187)
(8.15254 1.09231e-22 0.0984017)
(8.56516 8.69623e-22 0.164493)
(7.86403 0 0.108891)
(8.30813 -1.86849e-21 0.183248)
(7.55158 0 0.120174)
(8.02645 2.39961e-21 0.203477)
(7.21442 -5.50508e-22 0.132208)
(7.71902 0 0.225135)
(6.85208 1.24179e-21 0.144905)
(7.38496 -8.12565e-24 0.248096)
(6.4645 -6.86911e-22 0.158136)
(7.02364 6.92577e-21 0.27214)
(6.05215 -2.3648e-21 0.171729)
(6.63487 -7.1224e-21 0.296949)
(5.61611 1.37116e-21 0.185477)
(6.21895 -2.52357e-21 0.322102)
(5.15813 4.23391e-21 0.199143)
(5.77681 -1.07964e-20 0.347083)
(4.68072 5.88258e-21 0.212464)
(5.31005 3.40639e-20 0.371277)
(4.18718 2.98123e-21 0.225144)
(4.82108 -5.26253e-21 0.393975)
(3.68164 0 0.236846)
(4.31313 6.25627e-21 0.414361)
(3.16908 0 0.247173)
(3.7903 0 0.431496)
(2.65541 7.48403e-21 0.255675)
(3.2576 0 0.444296)
(2.14744 7.29591e-21 0.261911)
(2.72095 -1.41749e-20 0.451535)
(1.65281 -6.54543e-20 0.26564)
(2.18707 -1.51991e-20 0.451898)
(1.17966 -6.48964e-20 0.267209)
(1.66324 -1.92217e-19 0.444127)
(0.73615 -1.1315e-21 0.268719)
(1.15703 -1.4833e-21 0.42718)
(0.328496 6.83087e-20 0.2622)
(0.667251 4.42835e-19 0.401403)
(0.302345 3.64427e-20 0.331728)
(9.99768 9.74695e-23 0.0497462)
(9.9933 1.89874e-23 0.039881)
(9.96191 1.4772e-22 0.0678224)
(9.97794 2.71631e-22 0.064671)
(9.90506 -9.27618e-23 0.0836498)
(9.93837 -4.85989e-23 0.0851903)
(9.82867 -1.59385e-22 0.100191)
(9.87385 -1.6142e-22 0.106889)
(9.73258 3.83332e-22 0.117602)
(9.78931 -3.31621e-22 0.129786)
(9.61664 2.69394e-23 0.135965)
(9.68664 7.28987e-22 0.153816)
(9.48049 -2.89251e-22 0.155577)
(9.56538 -3.42085e-22 0.179346)
(9.32352 4.73525e-23 0.176745)
(9.42464 -7.23349e-22 0.206804)
(9.14483 -8.58294e-22 0.199719)
(9.2636 2.20259e-21 0.236555)
(8.94337 -6.82651e-23 0.224705)
(9.0814 -4.18516e-21 0.268911)
(8.71794 -1.1424e-21 0.251864)
(8.87698 2.0509e-21 0.304141)
(8.46728 5.84872e-22 0.281296)
(8.64909 -1.41144e-21 0.342461)
(8.19008 2.36974e-21 0.313019)
(8.39642 1.91603e-21 0.383998)
(7.88513 5.45197e-22 0.346947)
(8.1176 0 0.428764)
(7.55139 5.7691e-21 0.382867)
(7.8113 -5.2455e-22 0.476621)
(7.18807 3.26652e-22 0.420423)
(7.47636 -1.70361e-21 0.527252)
(6.79482 -7.22354e-21 0.459111)
(7.11185 4.62492e-21 0.580148)
(6.3718 -1.48112e-20 0.498276)
(6.71723 -5.9931e-24 0.634588)
(5.91978 1.9515e-20 0.537106)
(6.29244 -1.21668e-20 0.689637)
(5.44029 2.24049e-20 0.574643)
(5.83803 1.41687e-20 0.744139)
(4.93568 -1.80013e-21 0.609768)
(5.35527 1.48973e-20 0.796711)
(4.40921 6.17671e-21 0.641202)
(4.84622 -1.22614e-20 0.845728)
(3.86507 0 0.667502)
(4.31383 -5.25155e-20 0.889311)
(3.30838 -2.2078e-20 0.687087)
(3.76197 6.76788e-20 0.925332)
(2.74509 -3.6917e-20 0.698348)
(3.19535 -1.51415e-19 0.951466)
(2.18169 -1.44094e-19 0.699912)
(2.61941 1.18738e-19 0.965362)
(1.62463 -1.27804e-19 0.691131)
(2.0399 -1.58675e-19 0.965027)
(1.07942 4.4621e-19 0.673782)
(1.46314 -2.62142e-19 0.949399)
(0.54669 4.14401e-19 0.640316)
(0.881453 6.77867e-19 0.921926)
(0.406639 3.14808e-19 0.85934)
(9.99021 1.96304e-22 0.0574301)
(9.991 -1.86664e-25 0.0445969)
(9.95736 6.94555e-23 0.0851615)
(9.97299 3.09452e-22 0.0809043)
(9.90383 -1.17648e-22 0.111205)
(9.93426 -1.58945e-22 0.11232)
(9.83209 -3.35802e-22 0.13849)
(9.8726 0 0.144178)
(9.7424 2.75449e-23 0.167389)
(9.79181 3.39792e-22 0.177592)
(9.6346 3.46021e-22 0.198075)
(9.69381 -3.47802e-22 0.212744)
(9.50838 -7.80953e-22 0.230956)
(9.5784 0 0.250095)
(9.36322 1.46909e-21 0.266495)
(9.44484 -2.11678e-21 0.290229)
(9.19839 -1.20516e-21 0.305111)
(9.29245 2.56807e-21 0.333691)
(9.01291 -1.98659e-21 0.347174)
(9.12048 -5.46277e-21 0.380974)
(8.80566 1.73878e-21 0.393006)
(8.928 9.10634e-21 0.432531)
(8.57533 -3.68731e-23 0.442847)
(8.71389 -7.28149e-21 0.488755)
(8.32051 -4.76281e-22 0.496826)
(8.47685 3.29204e-21 0.549939)
(8.03974 -1.07629e-21 0.554917)
(8.21551 0 0.616237)
(7.73158 -8.01207e-21 0.616899)
(7.9284 -2.10643e-21 0.687609)
(7.39469 2.66974e-21 0.682328)
(7.61409 -9.10877e-21 0.763779)
(7.02797 1.17733e-20 0.75051)
(7.27122 1.16838e-20 0.844194)
(6.63067 2.47466e-21 0.820486)
(6.89865 2.50609e-21 0.927995)
(6.20249 -1.72093e-20 0.891023)
(6.49552 -5.17278e-21 1.014)
(5.74375 6.65117e-21 0.960597)
(6.06142 -2.25011e-20 1.10067)
(5.25545 4.187e-21 1.02739)
(5.59646 2.90012e-20 1.18611)
(4.73941 -7.14365e-20 1.08927)
(5.10139 -6.29916e-21 1.26804)
(4.1983 1.64551e-20 1.1438)
(4.5777 -5.25164e-20 1.34379)
(3.63565 -6.43773e-20 1.1883)
(4.02767 1.49141e-19 1.41031)
(3.05578 7.01694e-21 1.21998)
(3.45442 -2.40823e-19 1.46429)
(2.46354 1.00823e-19 1.23638)
(2.8618 1.63173e-19 1.50242)
(1.86387 -2.94679e-19 1.23594)
(2.25415 -4.82365e-22 1.52197)
(1.26113 -2.07732e-20 1.2204)
(1.63768 -5.49469e-19 1.52167)
(0.656559 5.86452e-19 1.18276)
(1.00256 7.65609e-19 1.50668)
(0.464553 -3.05336e-19 1.45417)
(9.98609 1.18729e-22 0.0685383)
(9.98978 -7.53863e-23 0.0512982)
(9.95327 7.38998e-23 0.107342)
(9.97003 -3.82924e-23 0.0971209)
(9.9007 -3.92363e-23 0.144423)
(9.93117 -3.97389e-23 0.138967)
(9.83014 6.79893e-22 0.182408)
(9.87065 4.06935e-23 0.18085)
(9.74222 -4.42424e-23 0.222146)
(9.79156 6.71437e-22 0.224462)
(9.63684 -6.89472e-22 0.264102)
(9.69568 -6.98226e-22 0.270345)
(9.51379 -1.36231e-21 0.308863)
(9.58294 0 0.319072)
(9.37265 -9.57602e-22 0.357074)
(9.45275 -1.72333e-21 0.371345)
(9.21285 -1.78987e-21 0.409348)
(9.30449 -3.01713e-21 0.427863)
(9.03359 5.81455e-21 0.466255)
(9.13755 1.54769e-21 0.489284)
(8.83391 -1.19386e-22 0.528313)
(8.95112 6.95343e-21 0.556228)
(8.61269 -3.81992e-21 0.595963)
(8.7442 4.63889e-22 0.62926)
(8.36867 3.72756e-21 0.669521)
(8.51566 -4.64631e-21 0.708852)
(8.10045 -1.05697e-21 0.749126)
(8.26421 0 0.795327)
(7.80658 -3.28926e-21 0.834686)
(7.98846 -7.40841e-21 0.888798)
(7.48561 1.56836e-22 0.925822)
(7.68694 4.25382e-21 0.98911)
(7.13613 2.30184e-21 1.02183)
(7.35819 4.6016e-21 1.09579)
(6.75691 -5.2372e-21 1.12165)
(7.00077 0 1.20798)
(6.34697 -1.06776e-20 1.22382)
(6.61339 -4.14896e-20 1.32442)
(5.90569 4.32575e-22 1.32648)
(6.19495 3.70252e-20 1.4434)
(5.43297 1.80649e-20 1.4273)
(5.74468 5.79332e-21 1.56272)
(4.92925 1.20424e-20 1.52353)
(5.2622 1.08526e-19 1.67968)
(4.39568 8.24498e-20 1.61193)
(4.74769 1.45585e-20 1.791)
(3.83419 -3.16376e-20 1.68889)
(4.20195 -9.28619e-21 1.89287)
(3.24748 -8.02461e-20 1.75058)
(3.62656 5.06916e-23 1.98103)
(2.63906 6.00607e-20 1.79346)
(3.024 -3.16988e-19 2.05108)
(2.01318 -2.61232e-19 1.81499)
(2.39765 2.6954e-19 2.0991)
(1.37496 2.51027e-19 1.81614)
(1.75446 -2.56983e-19 2.12249)
(0.730223 -1.26203e-19 1.78785)
(1.08531 5.29999e-19 2.1248)
(0.506974 -6.19703e-19 2.07673)
(9.98419 -2.30083e-22 0.080444)
(9.98922 -2.24902e-22 0.0589194)
(9.95099 -1.51914e-22 0.128912)
(9.96865 7.60167e-23 0.113521)
(9.89931 4.1208e-23 0.175822)
(9.92986 -7.85473e-23 0.16516)
(9.8301 4.01811e-23 0.223596)
(9.87056 1.51304e-26 0.216825)
(9.74398 0 0.273472)
(9.79335 0 0.270369)
(9.64097 0 0.32618)
(9.69983 0 0.326658)
(9.52083 -3.82598e-22 0.382444)
(9.58997 -1.45577e-21 0.386415)
(9.38319 -3.79783e-21 0.443027)
(9.46322 1.30024e-21 0.45045)
(9.22754 3.80499e-22 0.508679)
(9.31903 -6.54287e-21 0.519593)
(9.05315 2.75599e-21 0.580118)
(9.15682 7.31413e-21 0.594652)
(8.85916 7.45431e-21 0.658013)
(8.97585 -4.32486e-22 0.676402)
(8.64455 -4.26439e-22 0.742965)
(8.77519 7.30612e-21 0.76557)
(8.40815 -8.31677e-21 0.835452)
(8.55379 9.47296e-23 0.862795)
(8.14868 -6.44408e-21 0.935775)
(8.31042 -1.75868e-21 0.968574)
(7.86473 2.74719e-22 1.04399)
(8.04375 -1.24555e-20 1.08319)
(7.55483 8.70463e-21 1.15985)
(7.75233 1.08092e-20 1.20665)
(7.21748 2.24395e-21 1.28273)
(7.43461 -2.30071e-21 1.33862)
(6.85117 -3.67676e-20 1.41161)
(7.08902 -4.74119e-21 1.47835)
(6.4545 7.11121e-21 1.54499)
(6.71395 -7.69946e-20 1.62466)
(6.02622 4.20078e-20 1.68086)
(6.30782 8.42158e-20 1.77582)
(5.56532 9.75102e-20 1.81665)
(5.86915 0 1.92955)
(5.07114 1.10154e-19 1.94919)
(5.39665 9.6343e-20 2.08292)
(4.54352 -7.71254e-20 2.07465)
(4.88932 2.27185e-21 2.23227)
(3.98296 2.29204e-20 2.1886)
(4.34662 -9.07222e-20 2.37318)
(3.39081 -2.39881e-19 2.28614)
(3.76876 1.38195e-19 2.50044)
(2.76964 -1.0189e-19 2.36237)
(3.15706 -3.60488e-19 2.60829)
(2.1236 2.67822e-19 2.41308)
(2.51414 2.5313e-19 2.691)
(1.45918 3.10955e-20 2.43711)
(1.84787 3.14325e-20 2.7435)
(0.785951 3.4684e-20 2.42018)
(1.15104 0 2.76575)
(0.542184 3.32102e-19 2.71791)
(9.98338 8.81504e-23 0.0926684)
(9.98902 -1.49668e-22 0.0669299)
(9.9501 1.47409e-22 0.150201)
(9.96822 -7.56862e-23 0.129962)
(9.89951 -1.18741e-22 0.206612)
(9.92993 3.12646e-22 0.190802)
(9.83204 -4.01597e-23 0.264093)
(9.8721 6.08373e-22 0.251897)
(9.74819 0 0.324035)
(9.79713 -6.64121e-22 0.31507)
(9.648 -1.47401e-21 0.387351)
(9.70644 0 0.381423)
(9.53128 2.62673e-22 0.454882)
(9.59997 -1.0657e-23 0.45184)
(9.39768 -1.54257e-21 0.527503)
(9.47723 1.99451e-22 0.527242)
(9.24668 5.67065e-22 0.606096)
(9.33773 3.58115e-22 0.608581)
(9.07762 4.02932e-21 0.691525)
(9.18089 3.02046e-23 0.696803)
(8.88967 -4.84633e-22 0.784618)
(9.00601 4.28146e-22 0.792832)
(8.68188 7.73581e-21 0.886142)
(8.81223 6.24561e-21 0.897554)
(8.4531 6.6298e-21 0.99675)
(8.5985 1.20828e-21 1.01178)
(8.20209 -7.90119e-21 1.11692)
(8.36363 -1.73534e-21 1.13617)
(7.92746 -1.63855e-21 1.24689)
(8.1063 -8.13117e-21 1.2712)
(7.62768 -3.56875e-22 1.38658)
(7.82502 2.18263e-21 1.41706)
(7.30115 -9.31479e-21 1.53553)
(7.51818 -4.5715e-21 1.57362)
(6.94616 -4.58541e-20 1.69285)
(7.18403 -2.38297e-23 1.7403)
(6.56094 1.96195e-21 1.85714)
(6.82068 -4.06772e-20 1.9161)
(6.14369 4.11841e-20 2.02644)
(6.42611 4.6794e-20 2.09945)
(5.69265 0 2.19811)
(5.99821 -4.37396e-20 2.28817)
(5.20615 -1.24451e-20 2.36879)
(5.53481 -4.48251e-20 2.4793)
(4.68285 -1.21553e-20 2.53422)
(5.03379 -1.23001e-20 2.66903)
(4.12189 2.73083e-20 2.68923)
(4.4933 0 2.85245)
(3.5234 1.21795e-20 2.82772)
(3.91211 -9.07469e-20 3.02346)
(2.88904 4.79317e-22 2.943)
(3.29027 7.97946e-20 3.17471)
(2.22292 1.43368e-20 3.02838)
(2.62949 1.42568e-20 3.29807)
(1.53271 0 3.07928)
(1.93808 0 3.38509)
(0.830468 3.01042e-19 3.07316)
(1.21065 2.56073e-19 3.43103)
(0.572931 4.11854e-20 3.38159)
(9.98318 -3.0937e-22 0.104958)
(9.98902 -5.65878e-25 0.0750338)
(9.95025 9.61197e-23 0.171141)
(9.96844 -3.0522e-22 0.146238)
(9.90097 1.04348e-21 0.236631)
(9.93102 1.01633e-21 0.215776)
(9.83558 -3.07745e-23 0.303458)
(9.87496 8.94274e-23 0.285891)
(9.75441 -6.55794e-22 0.37308)
(9.80258 -6.64132e-22 0.358338)
(9.65756 1.46324e-21 0.44657)
(9.71514 0 0.434371)
(9.54484 -7.1079e-23 0.524904)
(9.6126 1.44518e-21 0.515027)
(9.41591 2.10211e-21 0.609079)
(9.49449 -4.64179e-21 0.601343)
(9.27032 -1.82341e-22 0.700108)
(9.36037 3.07939e-21 0.694387)
(9.10741 -3.56614e-21 0.798997)
(9.2097 -4.07436e-23 0.795238)
(8.9264 7.23047e-21 0.906728)
(9.04181 -6.74589e-21 0.904967)
(8.72636 -3.45304e-22 1.02423)
(8.85587 2.10893e-20 1.02462)
(8.50616 -7.19512e-21 1.15233)
(8.65086 -1.45161e-20 1.15517)
(8.26457 -2.04263e-21 1.29169)
(8.42562 2.88591e-21 1.29747)
(8.00015 -4.1817e-21 1.44274)
(8.1788 -2.01541e-20 1.4522)
(7.71133 -2.11431e-21 1.60561)
(7.90887 3.12609e-20 1.61977)
(7.39636 4.77425e-21 1.78007)
(7.61414 -1.72837e-20 1.80026)
(7.05329 4.65986e-21 1.96544)
(7.29266 4.17772e-20 1.99338)
(6.68001 5.16522e-21 2.16055)
(6.94226 -3.79186e-20 2.19839)
(6.27416 -3.92218e-20 2.36363)
(6.56048 4.06496e-20 2.41402)
(5.83323 -8.86439e-20 2.57223)
(6.14456 -1.22623e-19 2.63838)
(5.35456 -4.43052e-20 2.78297)
(5.69143 5.94968e-21 2.86874)
(4.83553 0 2.9914)
(5.1978 -9.1029e-20 3.10136)
(4.27384 -1.19084e-19 3.19174)
(4.66031 0 3.3311)
(3.66813 -2.15541e-20 3.37663)
(4.07602 -9.89061e-20 3.55108)
(3.0188 9.27133e-20 3.53723)
(3.44319 1.00538e-19 3.75232)
(2.32943 -3.04365e-22 3.66362)
(2.76197 -1.40772e-20 3.92379)
(1.6084 2.59126e-19 3.74673)
(2.04022 0 4.05277)
(0.869672 7.84413e-21 3.75302)
(1.27304 2.46578e-19 4.12879)
(0.601646 -2.54488e-19 4.07886)
(9.98337 2.84746e-24 0.117107)
(9.98914 -2.95284e-22 0.0830494)
(9.95114 6.33418e-22 0.19157)
(9.9691 3.01959e-22 0.162161)
(9.90345 5.1728e-23 0.265697)
(9.93289 1.09196e-21 0.239949)
(9.84044 -5.5259e-22 0.341461)
(9.87891 -1.19542e-21 0.318643)
(9.76238 0 0.420359)
(9.80945 8.19309e-23 0.399955)
(9.66933 0 0.503595)
(9.72569 0 0.485237)
(9.56117 -3.20258e-21 0.592273)
(9.62757 0 0.57566)
(9.43759 -3.56698e-21 0.687508)
(9.51469 -3.16151e-21 0.672375)
(9.29814 3.18207e-21 0.790434)
(9.38663 2.62771e-21 0.776566)
(9.14225 -3.30335e-21 0.902195)
(9.2429 4.29663e-22 0.889438)
(8.96915 7.45794e-21 1.02393)
(9.0829 -4.99991e-22 1.01221)
(8.77794 6.47841e-21 1.15672)
(8.90583 1.49383e-20 1.14607)
(8.56754 -4.22209e-21 1.30158)
(8.71071 -1.51973e-20 1.29218)
(8.33669 -1.5509e-20 1.45938)
(8.4964 1.91934e-21 1.4516)
(8.08396 1.59106e-20 1.63076)
(8.26157 -3.19648e-20 1.6252)
(7.80769 1.55117e-20 1.8161)
(8.00466 4.95806e-20 1.81364)
(7.50599 2.04342e-20 2.01544)
(7.72388 -4.56872e-24 2.0173)
(7.1767 -1.73146e-21 2.22842)
(7.41714 5.77223e-20 2.23622)
(6.8173 -1.49703e-21 2.45423)
(7.08199 -7.48537e-20 2.47004)
(6.42492 -4.46481e-20 2.69147)
(6.71555 3.5552e-20 2.71794)
(5.99624 -2.66242e-20 2.93806)
(6.31441 -8.90597e-20 2.97851)
(5.52753 -4.17903e-20 3.19092)
(5.87457 2.5215e-21 3.24956)
(5.01472 -8.9998e-20 3.4457)
(5.39142 -4.17036e-20 3.52773)
(4.45375 1.90947e-20 3.69624)
(4.85985 0 3.80806)
(3.84116 2.51898e-20 3.93409)
(4.27465 -8.42418e-20 4.08326)
(3.17529 -7.63265e-21 4.14811)
(3.63142 2.00741e-19 4.34288)
(2.45813 -1.36852e-20 4.32444)
(2.9275 -1.16959e-19 4.57284)
(1.69786 -9.51129e-21 4.44837)
(2.16882 0 4.75508)
(0.910178 -7.3548e-21 4.47228)
(1.34812 -7.60012e-21 4.87177)
(0.631838 5.12686e-23 4.82607)
(9.9838 1.7349e-23 0.128958)
(9.98934 -7.31995e-22 0.0908552)
(9.95261 7.70487e-22 0.211337)
(9.97008 4.5107e-22 0.177575)
(9.90677 -1.81654e-22 0.293663)
(9.93539 4.55753e-24 0.263183)
(9.84645 -5.44818e-22 0.377924)
(9.88378 5.50608e-22 0.349998)
(9.77186 8.0905e-23 0.465655)
(9.81755 -1.96178e-21 0.439719)
(9.68308 0 0.558162)
(9.73786 1.34184e-21 0.533772)
(9.58001 1.65304e-24 0.656668)
(9.64464 1.40594e-21 0.633441)
(9.46238 3.10663e-21 0.762395)
(9.53753 -1.25418e-21 0.739986)
(9.32981 -1.51402e-22 0.876599)
(9.41617 3.06701e-21 0.854699)
(9.18175 3.2217e-21 1.00055)
(9.28014 -3.53341e-21 0.978905)
(9.0175 7.17161e-21 1.13554)
(9.12888 6.65539e-21 1.11396)
(8.83622 -7.10878e-21 1.28283)
(8.96166 1.38801e-22 1.26121)
(8.63687 -8.84583e-21 1.44361)
(8.77758 -8.55837e-22 1.422)
(8.41822 -1.49509e-20 1.61895)
(8.57554 -8.21964e-21 1.59757)
(8.17884 2.68313e-21 1.80975)
(8.35426 -1.38516e-20 1.78904)
(7.91703 3.34722e-20 2.01667)
(8.11218 3.23252e-20 1.99734)
(7.63081 3.79929e-20 2.24009)
(7.84749 -1.27649e-21 2.22317)
(7.3178 -1.69347e-20 2.48005)
(7.55799 1.84617e-20 2.46698)
(6.97517 -3.64949e-20 2.73621)
(7.24103 -3.69352e-20 2.72889)
(6.59953 -1.02888e-20 3.00777)
(6.89338 3.80842e-20 3.00869)
(6.18677 -5.88872e-20 3.29325)
(6.51103 -4.16906e-20 3.30571)
(5.732 2.1623e-21 3.59025)
(6.08908 -8.87815e-20 3.61858)
(5.22952 4.87847e-20 3.89494)
(5.62154 4.26522e-20 3.94485)
(4.67303 -1.04316e-19 4.20132)
(5.10127 0 4.28031)
(4.05615 9.44251e-20 4.50031)
(4.52015 -1.0316e-19 4.61799)
(3.3738 8.7799e-20 4.77867)
(3.86991 2.42195e-19 4.94673)
(2.62448 -1.01867e-19 5.01811)
(3.14304 -1.03319e-19 5.24965)
(1.81431 1.83809e-21 5.19674)
(2.34106 -1.03201e-19 5.50248)
(0.959984 -1.18231e-22 5.24855)
(1.44916 1.20335e-21 5.67746)
(0.66912 1.10797e-19 5.64626)
(9.98442 -2.77532e-22 0.140391)
(9.98962 1.42705e-22 0.0983647)
(9.95451 -3.20561e-22 0.230307)
(9.97131 7.42677e-22 0.192351)
(9.91078 7.43624e-22 0.320383)
(9.93839 -1.52975e-21 0.285348)
(9.85344 -8.97076e-22 0.412672)
(9.88942 2.44164e-21 0.379805)
(9.78268 -6.59147e-22 0.508749)
(9.82673 -2.52688e-21 0.477444)
(9.69858 2.74862e-21 0.610006)
(9.75147 1.25878e-21 0.579748)
(9.60109 1.1636e-22 0.717765)
(9.66358 2.79671e-21 0.688095)
(9.48999 -1.24033e-21 0.833357)
(9.56274 2.04729e-22 0.803845)
(9.36495 -3.97404e-22 0.958145)
(9.44867 -2.85447e-21 0.928391)
(9.2255 2.59141e-23 1.09353)
(9.32102 2.5218e-21 1.06317)
(9.07101 -4.5823e-22 1.24094)
(9.1793 3.68981e-21 1.20967)
(8.9007 6.38e-21 1.40181)
(9.02287 -3.22623e-22 1.36938)
(8.71363 -3.17301e-22 1.5775)
(8.85091 1.14696e-21 1.54382)
(8.50862 -7.18874e-21 1.76932)
(8.66244 7.25766e-21 1.73443)
(8.2843 1.63443e-20 1.97843)
(8.45624 -6.4917e-22 1.94257)
(8.03898 -2.81938e-21 2.20579)
(8.23084 -1.40744e-20 2.16945)
(7.77064 -2.05624e-20 2.45216)
(7.98445 -4.36911e-22 2.41614)
(7.47682 -2.17072e-21 2.71809)
(7.71489 -1.92114e-20 2.68352)
(7.15444 3.85368e-20 3.00384)
(7.41942 1.73736e-20 2.97232)
(6.7997 5.77734e-21 3.30938)
(7.09458 3.92091e-20 3.28309)
(6.40779 -7.21356e-20 3.63418)
(6.73597 -3.39295e-20 3.6161)
(5.97271 -4.68174e-20 3.97692)
(6.33791 -4.03597e-20 3.97123)
(5.48699 -6.62381e-21 4.33493)
(5.89314 -5.41013e-21 4.34749)
(4.94168 0 4.70326)
(5.39238 2.54915e-21 4.74233)
(4.32653 4.84575e-20 5.07321)
(4.8241 0 5.15033)
(3.63112 4.70723e-20 5.43037)
(4.1748 4.25072e-20 5.56115)
(2.84752 -1.04631e-19 5.75217)
(3.42936 -2.34094e-20 5.95656)
(1.97579 -1.01822e-19 6.00787)
(2.58056 -4.94928e-20 6.3062)
(1.03063 1.07821e-19 6.10676)
(1.59696 -2.55208e-20 6.56938)
(0.723717 1.06157e-19 6.5753)
(9.98517 1.17332e-21 0.15131)
(9.98993 4.5247e-24 0.105513)
(9.95677 -4.96603e-22 0.248358)
(9.97273 5.9073e-22 0.206384)
(9.91539 2.1567e-22 0.345723)
(9.94179 -1.52191e-21 0.306323)
(9.86129 7.51079e-22 0.445544)
(9.89572 2.0298e-21 0.407928)
(9.79467 -5.61249e-22 0.549444)
(9.83684 -6.44081e-22 0.512961)
(9.71563 1.32603e-21 0.658883)
(9.76633 -3.83874e-26 0.622957)
(9.62416 2.85189e-21 0.775276)
(9.68415 1.30585e-21 0.739372)
(9.52011 -1.44764e-21 0.900046)
(9.59004 1.46071e-21 0.863654)
(9.40321 1.31136e-22 1.03466)
(9.48379 -2.90123e-21 0.997286)
(9.27307 6.20052e-21 1.18064)
(9.36513 3.01137e-21 1.14181)
(9.12917 3.77762e-21 1.33954)
(9.23367 9.628e-21 1.29882)
(8.97081 -5.53626e-21 1.51294)
(9.08888 -6.36699e-21 1.46996)
(8.79717 8.79808e-21 1.70241)
(8.93006 -6.40799e-21 1.6569)
(8.60718 1.37116e-20 1.90945)
(8.75635 1.45365e-20 1.86126)
(8.39957 -3.12205e-20 2.1355)
(8.56668 1.50268e-20 2.08464)
(8.17276 -1.15344e-20 2.38184)
(8.35972 -3.1409e-20 2.32855)
(7.9248 6.89754e-22 2.64967)
(8.13383 2.98523e-21 2.59442)
(7.65324 7.49142e-22 2.94006)
(7.88694 -1.67655e-20 2.8836)
(7.35494 1.83018e-20 3.25401)
(7.6164 3.51835e-22 3.19749)
(7.02588 -1.3209e-21 3.59244)
(7.31875 3.49701e-20 3.53747)
(6.66079 -2.21892e-21 3.95606)
(6.98946 -3.85022e-20 3.90503)
(6.25277 1.45286e-21 4.34517)
(6.62245 -3.7215e-20 4.30163)
(5.79275 3.85392e-21 4.7591)
(6.20953 2.03666e-20 4.7284)
(5.26894 2.52002e-21 5.19517)
(5.73962 4.79409e-21 5.18557)
(4.66644 -5.47022e-21 5.64687)
(5.19774 0 5.67107)
(3.96741 -2.88261e-20 6.10092)
(4.56424 1.02457e-20 6.17808)
(3.15308 3.15494e-20 6.53235)
(3.81325 -3.37912e-20 6.69068)
(2.21011 2.72145e-20 6.90106)
(2.9224 4.82112e-20 7.17555)
(1.14272 -3.12908e-20 7.08343)
(1.82749 -4.76134e-20 7.5778)
(0.816215 1.69359e-20 7.66879)
(9.98602 -5.70628e-22 0.161637)
(9.99029 -5.72833e-22 0.112248)
(9.95931 -4.62611e-22 0.265388)
(9.9743 -2.95681e-22 0.219585)
(9.92048 3.34167e-22 0.36956)
(9.94553 -4.54477e-22 0.326)
(9.86987 6.0196e-22 0.476394)
(9.90257 1.23789e-21 0.43424)
(9.80767 -7.47858e-23 0.587559)
(9.84775 -9.50376e-22 0.546119)
(9.73403 -3.97995e-24 0.704578)
(9.78227 -7.95331e-23 0.663215)
(9.64898 -8.38644e-23 0.828941)
(9.70614 -8.3925e-23 0.78705)
(9.55244 -4.71755e-23 0.962154)
(9.61916 0 0.919147)
(9.44421 5.19371e-23 1.10578)
(9.52119 2.81332e-21 1.06107)
(9.32402 6.52037e-21 1.26143)
(9.41206 -2.76592e-21 1.21444)
(9.19144 -7.08717e-22 1.43078)
(9.2915 6.34697e-21 1.38096)
(9.04591 -7.23684e-21 1.61557)
(9.15909 -6.99526e-21 1.56239)
(8.88675 -4.15003e-22 1.81752)
(9.01429 -6.9874e-25 1.76054)
(8.71305 1.58657e-20 2.03834)
(8.85642 -6.93471e-21 1.97721)
(8.5237 1.43075e-20 2.27971)
(8.68459 2.27552e-20 2.21421)
(8.31733 -1.64716e-20 2.54325)
(8.4977 -6.56121e-22 2.4733)
(8.09216 -1.47069e-20 2.83058)
(8.29434 -1.5627e-20 2.75628)
(7.84591 -1.69792e-20 3.14335)
(8.07272 7.87774e-25 3.06498)
(7.57564 1.74039e-20 3.48333)
(7.83047 -6.75826e-22 3.40142)
(7.27739 -3.04332e-21 3.85253)
(7.56444 3.29781e-20 3.76792)
(6.94582 -7.35174e-20 4.25316)
(7.27034 -7.05115e-20 4.16727)
(6.57362 -1.76561e-20 4.68763)
(6.94227 -5.49612e-20 4.60277)
(6.15067 2.11311e-20 5.15815)
(6.57187 1.47087e-20 5.07829)
(5.66287 2.22251e-21 5.66594)
(6.14719 2.2133e-21 5.59793)
(5.09062 1.58542e-20 6.20941)
(5.65087 -9.31854e-21 6.16519)
(4.40712 4.69246e-21 6.78069)
(5.05762 2.22552e-20 6.78086)
(3.57759 -1.61905e-20 7.3582)
(4.32904 -8.20636e-21 7.43825)
(2.563 -2.85877e-20 7.89698)
(3.41992 2.18688e-20 8.11114)
(1.33617 -2.07881e-21 8.23282)
(2.20638 -4.2072e-20 8.73836)
(0.990758 2.35267e-20 9.01618)
(9.98696 -2.94421e-22 0.171311)
(9.99068 2.86525e-22 0.118532)
(9.96207 -2.89484e-22 0.281307)
(9.976 -2.93198e-22 0.231884)
(9.92599 4.69204e-22 0.391788)
(9.94955 0 0.344289)
(9.87906 -3.4091e-22 0.505091)
(9.90987 1.60171e-22 0.458634)
(9.82153 -9.44246e-22 0.622937)
(9.85933 -2.05019e-24 0.576785)
(9.75358 -1.59569e-22 0.746899)
(9.79913 6.5476e-22 0.700362)
(9.67529 9.51087e-25 0.87853)
(9.72933 -1.40783e-21 0.830938)
(9.58665 2.89536e-21 1.01941)
(9.64981 0 0.970095)
(9.48757 -7.24111e-23 1.17116)
(9.56051 2.94826e-21 1.11946)
(9.37786 -2.82767e-21 1.3355)
(9.46137 -2.78335e-21 1.28073)
(9.25724 -1.00498e-22 1.5142)
(9.35222 4.70659e-23 1.45568)
(9.1253 3.2617e-22 1.70911)
(9.23282 -6.32578e-21 1.64619)
(8.98152 -6.60515e-21 1.9221)
(9.1028 6.87677e-21 1.85415)
(8.82522 3.05339e-22 2.15507)
(8.96167 -7.10508e-23 2.08154)
(8.65552 7.52392e-21 2.40991)
(8.8088 7.38821e-23 2.33032)
(8.47131 2.81939e-23 2.68853)
(8.64338 2.46455e-22 2.60249)
(8.27113 -7.31166e-22 2.99296)
(8.46434 -9.3828e-22 2.90015)
(8.05309 1.62991e-20 3.32538)
(8.2703 -2.50244e-22 3.22554)
(7.81464 1.53052e-20 3.68834)
(8.0594 1.63532e-20 3.58127)
(7.55229 -3.56374e-20 4.08494)
(7.82911 1.42673e-22 3.97054)
(7.26119 -5.18461e-20 4.51905)
(7.57589 -1.60839e-20 4.39736)
(6.93444 -2.18078e-20 4.99545)
(7.29471 -9.61018e-22 4.86697)
(6.56196 -4.33597e-21 5.52)
(6.97824 4.0578e-21 5.38619)
(6.12884 -9.42915e-21 6.09939)
(6.61541 4.40229e-21 5.96377)
(5.61245 -2.54225e-21 6.74032)
(6.1891 -9.32062e-21 6.61074)
(4.97795 8.9302e-21 7.44699)
(5.67202 -2.32238e-21 7.34009)
(4.17139 3.02391e-20 8.21369)
(5.01678 1.81202e-20 8.16493)
(3.11168 5.87355e-21 9.00996)
(4.15336 -3.85508e-21 9.0885)
(1.69304 -1.91501e-20 9.64021)
(2.86049 -1.93808e-20 10.0817)
(1.35109 5.09921e-21 10.7785)
(9.98796 2.80445e-22 0.180281)
(9.99109 -2.03286e-22 0.124333)
(9.96501 0 0.296041)
(9.9778 -7.15823e-23 0.243222)
(9.93182 -3.07019e-22 0.412312)
(9.95378 -5.86414e-22 0.361112)
(9.88876 4.97907e-22 0.531527)
(9.91755 9.16333e-25 0.481016)
(9.83611 1.60519e-21 0.655449)
(9.87145 7.87434e-22 0.60485)
(9.77409 -6.19394e-22 0.785693)
(9.81673 -4.64895e-22 0.734267)
(9.70284 -1.39138e-21 0.923862)
(9.7535 -1.25482e-21 0.870878)
(9.62243 8.92907e-23 1.07159)
(9.68171 1.18189e-21 1.01631)
(9.53287 1.67635e-22 1.23056)
(9.60139 2.8136e-21 1.17224)
(9.43409 1.26209e-22 1.40255)
(9.51259 -2.70589e-21 1.34041)
(9.32594 -6.25636e-21 1.58942)
(9.41529 4.27843e-26 1.52267)
(9.20821 3.7924e-22 1.7931)
(9.3094 -6.22693e-21 1.72096)
(9.08057 1.33273e-20 2.01559)
(9.19474 6.45806e-21 1.93726)
(8.94258 -2.98809e-22 2.25891)
(9.07107 6.76112e-21 2.17364)
(8.79366 -7.20213e-21 2.52514)
(8.93804 -6.89893e-21 2.43221)
(8.63305 -7.34188e-22 2.81643)
(8.79519 6.48718e-21 2.71512)
(8.45974 -4.49129e-22 3.13512)
(8.64188 -6.23084e-21 3.02468)
(8.27237 0 3.48385)
(8.47729 8.97914e-22 3.36348)
(8.06908 1.03291e-21 3.86583)
(8.30023 0 3.73456)
(7.84727 1.95501e-20 4.28515)
(8.10912 -6.58592e-21 4.14178)
(7.60321 3.50129e-20 4.74715)
(7.90164 2.2197e-20 4.59018)
(7.33141 2.49419e-20 5.25901)
(7.67447 2.04174e-20 5.08661)
(7.02357 1.27435e-20 5.83036)
(7.4226 8.19166e-21 5.64048)
(6.66667 4.33217e-21 6.47424)
(7.13828 4.1733e-21 6.26501)
(6.23941 -8.90115e-21 7.20826)
(6.80897 -3.58097e-21 6.97909)
(5.70527 7.25783e-21 8.05605)
(6.41351 -5.43312e-21 7.81053)
(4.99778 -1.64284e-20 9.04753)
(5.91073 2.80944e-20 8.802)
(3.98726 -3.10568e-20 10.2195)
(5.23291 -2.66436e-20 10.0202)
(2.40424 5.16315e-21 11.4592)
(4.06482 -9.51998e-21 11.5804)
(2.18728 1.09653e-20 13.3039)
(9.98901 -5.55027e-22 0.188508)
(9.99151 -1.54409e-21 0.129626)
(9.96811 -6.64514e-22 0.309528)
(9.97967 -7.29278e-23 0.253553)
(9.93792 -2.71939e-22 0.431052)
(9.95819 -3.21311e-22 0.376406)
(9.89888 3.0021e-22 0.555595)
(9.92552 3.10637e-22 0.501312)
(9.85127 -1.29821e-21 0.684958)
(9.88401 -5.80116e-22 0.630224)
(9.79537 -1.11041e-21 0.820788)
(9.83494 -1.00839e-21 0.764821)
(9.73139 1.34825e-21 0.964723)
(9.77849 4.61309e-22 0.906743)
(9.65946 3.92646e-21 1.11843)
(9.71466 1.36327e-21 1.05764)
(9.57971 -1.25837e-22 1.28365)
(9.6436 2.77676e-21 1.21923)
(9.4922 -2.79887e-21 1.46219)
(9.56547 -3.00703e-21 1.39329)
(9.39693 -4.64211e-23 1.65597)
(9.4804 -3.16671e-21 1.58169)
(9.29387 0 1.86699)
(9.38846 3.18635e-21 1.78641)
(9.18291 -1.04788e-22 2.09731)
(9.2897 5.8884e-21 2.0095)
(9.06391 5.81243e-24 2.34905)
(9.18413 -6.11262e-21 2.25307)
(8.93661 6.95163e-21 2.6244)
(9.07172 -2.73065e-22 2.51929)
(8.80068 8.54531e-22 2.92567)
(8.9524 9.22914e-22 2.81043)
(8.65564 -4.79946e-21 3.25541)
(8.82604 -2.19616e-22 3.1289)
(8.50082 8.87245e-22 3.61656)
(8.69243 6.6189e-23 3.47745)
(8.33527 -7.6978e-21 4.01279)
(8.55127 0 3.85937)
(8.15763 -3.63208e-21 4.44886)
(8.40209 -9.42122e-21 4.27888)
(7.96591 7.66177e-21 4.93121)
(8.24423 9.15494e-21 4.7416)
(7.7571 3.55066e-21 5.46875)
(8.07671 3.7491e-21 5.25524)
(7.52657 -3.48075e-22 6.07413)
(7.89807 -1.02414e-21 5.83076)
(7.26677 -3.83479e-21 6.76575)
(7.70619 -7.68774e-21 6.48404)
(6.96481 -1.33349e-22 7.57146)
(7.49792 1.43459e-21 7.23903)
(6.59679 1.58233e-20 8.53603)
(7.2691 8.14196e-21 8.13405)
(6.1134 1.75971e-20 9.73826)
(7.0128 7.17964e-21 9.23632)
(5.39375 -7.02106e-21 11.3601)
(6.75739 4.28633e-21 10.6822)
(4.01894 -1.43309e-20 13.9641)
(6.55293 -1.22667e-20 12.8785)
(5.73716 -2.23835e-21 17.4849)
(-0.565061 -6.1124e-21 0.393063)
(-0.365376 -2.95729e-19 0.535619)
(-1.24781 5.34172e-20 0.419302)
(-0.945277 2.60848e-19 0.632884)
(-2.00063 0 0.428376)
(-1.698 0 0.679915)
(-2.81128 -2.55295e-20 0.431808)
(-2.50102 -2.52806e-20 0.716258)
(-3.66524 -2.74815e-20 0.42749)
(-3.35093 -2.58268e-20 0.739314)
(-4.54535 2.3391e-20 0.414261)
(-4.23286 -5.25654e-20 0.746892)
(-5.43125 1.89904e-20 0.391413)
(-5.12872 7.51385e-20 0.736855)
(-6.29912 -6.62201e-21 0.358565)
(-6.01668 4.89535e-23 0.707276)
(-7.12167 -3.34447e-21 0.315594)
(-6.87106 3.36994e-20 0.656528)
(-7.86837 -3.41946e-21 0.262647)
(-7.66242 -2.63112e-20 0.583462)
(-8.5061 -3.36597e-21 0.200203)
(-8.35807 -1.37645e-20 0.487667)
(-9.00044 -2.11165e-22 0.129131)
(-8.92305 1.00349e-20 0.369832)
(-9.31765 3.36168e-21 0.0506128)
(-9.32194 1.66845e-20 0.232093)
(-9.42679 0 -0.0340968)
(-9.52118 -1.62087e-20 0.0780629)
(-9.30192 2.01269e-21 -0.123698)
(-9.49242 6.26556e-21 -0.0874266)
(-8.92668 6.96981e-22 -0.214195)
(-9.21628 1.34706e-21 -0.256758)
(-8.30256 -7.89722e-22 -0.298771)
(-8.68841 -1.30947e-21 -0.417434)
(-7.44906 1.0177e-22 -0.371048)
(-7.92208 2.38245e-23 -0.557989)
(-6.40129 -4.55687e-22 -0.426045)
(-6.94728 -1.66227e-21 -0.669546)
(-5.20645 1.37726e-22 -0.460505)
(-5.80743 1.9801e-21 -0.746307)
(-3.91942 1.40913e-22 -0.473192)
(-4.55439 -4.71646e-22 -0.785753)
(-2.5971 -7.16277e-23 -0.465222)
(-3.24177 6.92882e-22 -0.789094)
(-1.2902 -7.32802e-23 -0.440182)
(-1.91847 1.07222e-23 -0.762332)
(-0.0322179 0 -0.402704)
(-0.588228 1.20384e-22 -0.717303)
(1.15122 -1.37993e-24 -0.358823)
(0.653896 0 -0.659654)
(2.24064 -3.34372e-24 -0.315603)
(1.77756 4.3217e-24 -0.593664)
(3.23735 1.80249e-24 -0.276855)
(2.83864 1.18607e-23 -0.531018)
(4.14818 -6.20295e-24 -0.243415)
(3.81029 1.10364e-24 -0.474467)
(4.98415 -1.45925e-24 -0.222286)
(4.69393 -1.11108e-23 -0.425819)
(5.69494 -1.0422e-23 -0.407059)
(-0.657484 -5.09613e-20 0.926685)
(-0.388458 -2.14733e-19 1.19221)
(-1.39593 2.11193e-19 1.00594)
(-1.01537 4.44329e-19 1.32296)
(-2.18627 -2.49747e-20 1.05755)
(-1.80817 -2.27441e-19 1.3983)
(-3.02246 -2.55789e-20 1.09679)
(-2.63177 -3.61264e-22 1.45871)
(-3.89368 -5.09766e-20 1.11775)
(-3.49408 -1.02292e-19 1.49623)
(-4.78507 -3.54555e-21 1.11603)
(-4.38258 -8.12995e-20 1.50519)
(-5.67766 5.68952e-20 1.08785)
(-5.2812 9.75674e-20 1.48045)
(-6.54834 3.98709e-20 1.02997)
(-6.16935 3.91258e-21 1.4175)
(-7.36994 1.20481e-20 0.939876)
(-7.02194 7.90315e-20 1.3126)