/*--------------------------------*- C++ -*----------------------------------*\
| =========                 |                                                 |
| \\      /  F ield         | OpenFOAM: The Open Source CFD Toolbox           |
|  \\    /   O peration     | Version:  dev                                   |
|   \\  /    A nd           | Web:      www.OpenFOAM.org                      |
|    \\/     M anipulation  |                                                 |
\*---------------------------------------------------------------------------*/
FoamFile
{
    version     2.0;
    format      ascii;
    class       surfaceScalarField;
    location    "1.54";
    object      meshPhi;
}
// * * * * * * * * * * * * * * * * * * * * * * * * * * * * * * * * * * * * * //

dimensions      [0 3 -1 0 0 0 0];

internalField   nonuniform List<scalar> 
881
(
-0.000154677
5.12959e-06
-0.000281117
1.4119e-05
-0.000373086
2.08312e-05
-0.000434342
2.55012e-05
-0.000469534
2.85429e-05
-0.000483247
3.03086e-05
-0.000479813
3.10849e-05
-0.000463287
3.10897e-05
-0.000437363
3.04151e-05
-0.000405291
2.90656e-05
-0.000369844
2.7004e-05
-0.000333229
2.41537e-05
-0.000297021
2.05082e-05
-0.000262111
1.62565e-05
-0.000228713
1.18986e-05
-0.000196436
8.29169e-06
-0.000164445
6.54998e-06
-0.000131719
7.73929e-06
-9.74038e-05
1.23663e-05
-6.11537e-05
1.97995e-05
2.99141e-05
-0.000155337
1.02908e-05
-0.000282251
2.83247e-05
-0.000374574
4.17803e-05
-0.000436096
5.11213e-05
-0.000471471
5.72045e-05
-0.000485297
6.07524e-05
-0.00048192
6.23167e-05
-0.000465397
6.23204e-05
-0.000439421
6.09854e-05
-0.000407269
5.83446e-05
-0.000371734
5.42916e-05
-0.000335042
4.86442e-05
-0.000298779
4.13424e-05
-0.000263838
3.27017e-05
-0.000230424
2.36649e-05
-0.000198134
1.5936e-05
-0.000166136
1.18487e-05
-0.000133414
1.38296e-05
-9.90487e-05
2.34175e-05
-6.23752e-05
4.00503e-05
6.38893e-05
-0.000156063
1.5462e-05
-0.000283557
4.25588e-05
-0.000376337
6.27854e-05
-0.000438247
7.68462e-05
-0.000473944
8.60185e-05
-0.000488017
9.13811e-05
-0.000484833
9.37628e-05
-0.000468448
9.37793e-05
-0.000442553
9.18248e-05
-0.000410447
8.7986e-05
-0.000374937
8.20493e-05
-0.00033825
7.36869e-05
-0.000301951
6.27145e-05
-0.00026689
4.94754e-05
-0.00023321
3.52547e-05
-0.000200462
2.25678e-05
-0.000167829
1.51082e-05
-0.000134417
1.71258e-05
-9.94932e-05
3.20913e-05
-6.24893e-05
6.08078e-05
0.000105026
-0.000156814
2.06206e-05
-0.00028495
5.67623e-05
-0.000378286
8.37635e-05
-0.000440704
0.000102575
-0.000476858
0.000114874
-0.000491325
0.000122085
-0.000488463
0.000125337
-0.000472343
0.000125467
-0.00044668
0.000123017
-0.000414775
0.00011811
-0.000379433
0.000110438
-0.000342862
9.94876e-05
-0.000306569
8.48643e-05
-0.000271304
6.68076e-05
-0.000237073
4.6787e-05
-0.000203306
2.80111e-05
-0.000169179
1.55894e-05
-0.000134042
1.60289e-05
-9.77586e-05
3.57675e-05
-6.07295e-05
7.87386e-05
0.000150913
-0.000157736
2.57632e-05
-0.00028669
7.0927e-05
-0.000380748
0.000104695
-0.00044383
0.00012826
-0.000480586
0.000143703
-0.000495585
0.000152799
-0.000493176
0.000156979
-0.00047744
0.000157332
-0.000452116
0.000154532
-0.000420511
0.000148725
-0.000385433
0.000139525
-0.000349061
0.000126195
-0.000312823
0.000108032
-0.000277318
8.50074e-05
-0.000242333
5.8542e-05
-0.000207049
3.22844e-05
-0.000170516
1.26116e-05
-0.000132323
8.4868e-06
-9.32316e-05
3.01901e-05
-5.55789e-05
8.67745e-05
0.000192155
-0.00015883
3.08854e-05
-0.00028877
8.50428e-05
-0.000383704
0.000125569
-0.00044759
0.000153894
-0.000485081
0.000172507
-0.000500742
0.000183532
-0.00049892
0.000188704
-0.000483696
0.000189364
-0.000458817
0.000186347
-0.000427614
0.000179843
-0.000392905
0.000169384
-0.000356839
0.000153978
-0.000320746
0.000132514
-0.000285037
0.000104516
-0.000249182
7.10643e-05
-0.000211939
3.58407e-05
-0.000171994
6.0972e-06
-0.000128955
-6.93139e-06
-8.44439e-05
1.12703e-05
-4.33661e-05
7.64209e-05
0.000214056
-0.000160088
3.59825e-05
-0.000291178
9.90983e-05
-0.000387133
0.000146372
-0.000451956
0.000179467
-0.000490313
0.000201279
-0.000506761
0.000214285
-0.000505646
0.000220518
-0.000491044
0.000221583
-0.000466716
0.000218502
-0.00043602
0.000211531
-0.000401797
0.000200136
-0.000366165
0.000183063
-0.000330359
0.000158717
-0.000294577
0.000125967
-0.000257885
8.52115e-05
-0.000218432
3.96946e-05
-0.000174211
-3.0487e-06
-0.000124366
-3.01452e-05
-7.08692e-05
-2.32258e-05
-2.10313e-05
4.05983e-05
0.000201087
-0.000161507
4.10623e-05
-0.000293899
0.000113105
-0.000391008
0.000167098
-0.000456894
0.000204961
-0.000496245
0.000230007
-0.000513597
0.000245063
-0.000513299
0.00025247
-0.000499432
0.000254076
-0.000475763
0.000251094
-0.000445685
0.000243898
-0.000412073
0.000231918
-0.000377043
0.000213654
-0.000341741
0.000187001
-0.000306133
0.000149991
-0.000268822
0.000102015
-0.000227217
4.53952e-05
-0.000178284
-1.28133e-05
-0.00012004
-5.90943e-05
-5.38809e-05
-7.23121e-05
1.15144e-05
-2.30734e-05
0.000143391
-0.000163077
4.61242e-05
-0.000296896
0.00012706
-0.000395284
0.00018776
-0.000462361
0.000230408
-0.000502831
0.000258737
-0.000521218
0.000275919
-0.000521861
0.000284617
-0.000508841
0.000286899
-0.000485942
0.000284175
-0.000456593
0.000276994
-0.000423717
0.000264789
-0.000389468
0.000245846
-0.000354933
0.000217543
-0.000319846
0.000177018
-0.000282345
0.000122429
-0.00023901
5.4681e-05
-0.000185529
-2.04671e-05
-0.000118192
-9.00265e-05
-3.66963e-05
-0.000131554
5.06399e-05
-0.000110849
4.03374e-05
-0.000164783
5.11483e-05
-0.000300147
0.00014093
-0.000399936
0.000208348
-0.000468329
0.000255823
-0.00051004
0.000287486
-0.000529602
0.000306852
-0.000531322
0.000316882
-0.000519267
0.000319916
-0.000497245
0.000317599
-0.000468729
0.000310664
-0.0004367
0.0002986
-0.000403377
0.00027953
-0.000369846
0.000250346
-0.00033568
0.000207304
-0.000298602
0.000147198
-0.00025434
6.91319e-05
-0.000197165
-2.31309e-05
-0.000121284
-0.000118246
-2.37153e-05
-0.000194027
8.94748e-05
-0.000213696
-9.86391e-05
-0.000166624
5.61228e-05
-0.00030366
0.000154682
-0.00040496
0.000228791
-0.000474773
0.000281097
-0.000517832
0.000316122
-0.000538673
0.000337715
-0.00054158
0.000349126
-0.000530603
0.000352989
-0.000509564
0.000351217
-0.000481979
0.000344741
-0.000450907
0.000333164
-0.000418645
0.000314517
-0.000386348
0.000285295
-0.000353524
0.000240926
-0.000317573
0.000176784
-0.000273499
8.99623e-05
-0.000214165
-1.82072e-05
-0.000131562
-0.000138898
-1.94269e-05
-0.000251797
0.000120021
-0.000319787
-0.00025738
-0.000168599
6.10422e-05
-0.000307419
0.000168284
-0.000410306
0.000249016
-0.000481616
0.00030612
-0.000526113
0.00034452
-0.000548323
0.00036839
-0.000552515
0.000381262
-0.000542727
0.000386056
-0.000522778
0.000384956
-0.000496224
0.000379121
-0.000466213
0.00036833
-0.00043515
0.000350619
-0.000404303
0.000322178
-0.000373223
0.000277699
-0.00033912
0.00021122
-0.000296472
0.000117806
-0.000236948
-3.87969e-06
-0.000150316
-0.000148186
-2.68922e-05
-0.000297891
0.000135745
-0.000417415
-0.000417854
-0.000170711
6.59021e-05
-0.000311407
0.000181722
-0.000415913
0.000268987
-0.000488769
0.000330838
-0.000534776
0.000372617
-0.000558447
0.000398809
-0.00056403
0.000413219
-0.000555547
0.000419039
-0.000536801
0.000418738
-0.00051138
0.000413732
-0.00048253
0.000403979
-0.000452787
0.000387606
-0.000423557
0.000360633
-0.000394525
0.000317138
-0.000362896
0.000250017
-0.000322823
0.000152463
-0.000265093
2.03761e-05
-0.00017761
-0.0001441
-4.75066e-05
-0.000327334
0.000132432
-0.000496715
-0.000563347
-0.000172963
7.06995e-05
-0.000315617
0.000194984
-0.000421738
0.00028867
-0.000496164
0.000355186
-0.000543734
0.000400334
-0.000568943
0.000428885
-0.000576018
0.000444917
-0.000568961
0.000451891
-0.000551553
0.000452525
-0.000527383
0.000448486
-0.000499772
0.000439929
-0.000471418
0.000425125
-0.000443895
0.000400076
-0.000417076
0.000358446
-0.00038835
0.000292213
-0.000351788
0.000192929
-0.000297669
5.39101e-05
-0.000212678
-0.00012607
-8.12193e-05
-0.000337311
0.000108777
-0.000551351
-0.000681599
-0.000174999
-0.000319803
-0.000427746
0.000308011
-0.000503726
0.000379375
-0.000552888
0.000427901
-0.000579705
0.000458863
-0.000588386
0.000476612
-0.00058289
0.000484861
-0.000566962
0.000486517
-0.000544174
0.000483472
-0.000517895
0.000476156
-0.000490972
0.000463045
-0.000465189
0.000440207
-0.000440663
0.000401109
-0.000415051
0.000337036
-0.000382607
0.000238177
-0.000333503
9.56924e-05
-0.000253715
-9.47193e-05
-0.000125579
-0.000327571
6.69069e-05
-0.000578953
-0.000765843
-0.000450361
-0.000531289
0.000403505
-0.000584016
0.000455784
-0.000613616
0.000489209
-0.000624427
0.000508753
-0.000620483
0.000518333
-0.00060559
0.000521061
-0.000583448
0.00051905
-0.000557604
0.000513014
-0.000531151
0.000501693
-0.000506188
0.000481321
-0.00048316
0.000445311
-0.000460008
0.000384457
-0.000431224
0.000287927
-0.00038694
0.000145157
-0.000312396
-5.09576e-05
-0.000188211
-0.000298907
4.93073e-06
-0.00057919
-0.000814528
-0.0005525
-0.000608746
0.000483521
-0.000640895
0.000519865
-0.000653913
0.000541223
-0.00065185
0.000552196
-0.000638469
0.000556071
-0.000617505
0.000555166
-0.000592661
0.000550484
-0.000567215
0.000541065
-0.000543539
0.000523356
-0.000522405
0.000490834
-0.000502154
0.000434062
-0.000477782
0.000341552
-0.00043983
0.000201382
-0.000373704
4.09049e-06
-0.000259817
-0.000252218
-7.70404e-05
-0.000552903
-0.000829544
-0.000634253
-0.000669704
0.000550091
-0.00068508
0.000573774
-0.000685171
0.000586183
-0.000673575
0.000591329
-0.000653996
0.000591628
-0.000630334
0.000588353
-0.000606004
0.000580871
-0.000583616
0.000565875
-0.000564322
0.000537046
-0.000547003
0.000485004
-0.000527305
0.000397891
-0.00049653
0.000262844
-0.000440965
6.87161e-05
-0.000341762
-0.000189359
-0.000178136
-0.000502061
-0.000814688
-0.000699333
-0.000717905
0.000605723
-0.000720453
0.000620185
-0.000710991
0.000626739
-0.000692964
0.000628322
-0.000670618
0.000626405
-0.000647483
0.00062078
-0.000626365
0.000608458
-0.000608849
0.000583445
-0.000594399
0.000536587
-0.000579372
0.000455905
-0.00055611
0.000328069
-0.000512179
0.000140831
-0.000430252
-0.000112945
-0.000292258
-0.000428325
-0.000767497
-0.000751577
-0.000757776
0.000653522
-0.000750778
0.000662187
-0.000734337
0.000664948
-0.000713429
0.000664266
-0.000691587
0.000660458
-0.000671771
0.00065081
-0.000655966
0.000629689
-0.000644166
0.000588211
-0.00063355
0.000514618
-0.000617627
0.00039556
-0.000585375
0.0002182
-0.000521281
-2.56284e-05
-0.000409251
-0.000332955
-0.000671405
-0.000795278
-0.000792162
-0.00077799
0.000700783
-0.000758641
0.000701699
-0.000738267
0.00069975
-0.000719754
0.000692817
-0.000705494
0.000675539
-0.000695979
0.000639436
-0.000689342
0.000573291
-0.00068024
0.000464067
-0.000659051
0.000298932
-0.000611607
6.96055e-05
-0.000521649
-0.000220992
-0.000537041
-0.000822853
-0.000806131
0.000738097
-0.000787357
0.000738616
-0.000770001
0.000734403
-0.000757092
0.000720934
-0.000749507
0.000690174
-0.00074632
0.00063163
-0.000743252
0.00053295
-0.000732036
0.000381757
-0.000699617
0.000170095
-0.000629503
-9.85432e-05
-0.000388557
-0.000853798
-0.000837768
-0.000822069
0.000775257
-0.000810345
0.000766307
-0.000804295
0.000740814
-0.000803884
0.000689786
-0.000805859
0.000602167
-0.000803295
0.000466108
-0.00078447
0.000274391
-0.000733484
3.13102e-05
-0.00022995
-0.000874068
-0.000864193
-0.000859554
0.000791438
-0.000861161
0.000748492
-0.000867143
0.000672343
-0.000871781
0.000552202
-0.000864917
0.000381815
-0.000831863
0.000166112
-6.64827e-05
-0.000913632
-0.000916993
0.000807507
-0.000925905
0.000744899
-0.000936164
0.000640885
-0.000939254
0.000492099
-0.00092232
0.000303774
9.78274e-05
-0.000969162
-0.000980218
-0.000994683
0.0007315
-0.00100547
0.000605979
-0.00100195
0.000442751
0.000260097
-0.00104497
-0.00106133
-0.00106816
0.000579364
0.00041895
-0.00111776
)
;

boundaryField
{
    inlet
    {
        type            calculated;
        value           uniform 0;
    }
    outlet
    {
        type            calculated;
        value           nonuniform 0();
    }
    flap
    {
        type            calculated;
        value           nonuniform 0();
    }
    upperWall
    {
        type            calculated;
        value           nonuniform 0();
    }
    lowerWall
    {
        type            calculated;
        value           uniform 0;
    }
    frontAndBack
    {
        type            empty;
        value           nonuniform 0();
    }
    procBoundary3to0
    {
        type            processor;
        value           nonuniform List<scalar> 
34
(
7.51249e-05
0.000207613
0.000335528
0.000326392
0.000466257
0.000426263
0.000572657
0.000509312
0.000658441
0.000578008
0.000727419
0.000635072
0.000783233
0.000683348
0.000695706
0.000832222
0.000733936
0.000865527
0.000771051
0.00077544
0.000886371
0.000812187
0.000809908
0.000916009
0.000837905
0.000963818
0.000856921
0.00081374
0.00102752
0.000805562
0.000712113
0.00110338
0.000687463
0.000556719
)
;
    }
    procBoundary3to1
    {
        type            processor;
        value           nonuniform List<scalar> 9(-0.000194381 -0.000321268 -0.000443764 -0.000571805 -0.000697847 -0.000818317 -0.000927996 -0.0010214 -0.0010929);
    }
    procBoundary3to4
    {
        type            processor;
        value           nonuniform List<scalar> 
19
(
-1.68248e-05
-1.69279e-05
-1.58135e-05
-1.45216e-05
-1.16993e-05
-6.18444e-07
2.68763e-05
7.53434e-05
0.000142813
0.000220392
0.000295178
0.000354502
0.000389012
0.000394248
0.00036998
0.000324941
0.000240855
0.000116013
-4.15328e-05
)
;
    }
}


// ************************************************************************* //
