/*--------------------------------*- C++ -*----------------------------------*\
| =========                 |                                                 |
| \\      /  F ield         | OpenFOAM: The Open Source CFD Toolbox           |
|  \\    /   O peration     | Version:  dev                                   |
|   \\  /    A nd           | Web:      www.OpenFOAM.org                      |
|    \\/     M anipulation  |                                                 |
\*---------------------------------------------------------------------------*/
FoamFile
{
    version     2.0;
    format      ascii;
    class       volScalarField;
    location    "4.95";
    object      p;
}
// * * * * * * * * * * * * * * * * * * * * * * * * * * * * * * * * * * * * * //

dimensions      [0 2 -2 0 0 0 0];

internalField   nonuniform List<scalar> 
465
(
106.647
106.499
106.654
107.083
107.683
108.412
109.265
110.242
111.343
112.565
113.907
115.366
116.944
118.638
120.444
122.359
124.374
126.479
128.658
130.89
133.149
106.487
106.433
106.609
107.036
107.634
108.361
109.21
110.183
111.278
112.494
113.828
115.279
116.846
118.529
120.324
122.226
124.228
126.319
128.485
130.706
132.955
106.333
106.351
106.545
106.963
107.551
108.269
109.108
110.067
111.147
112.344
113.656
115.083
116.623
118.273
120.03
121.89
123.845
125.885
127.994
130.155
132.342
106.171
106.227
106.434
106.845
107.421
108.127
108.952
109.895
110.953
112.126
113.41
114.803
116.303
117.908
119.614
121.415
123.302
125.266
127.29
129.358
131.444
105.994
106.068
106.286
106.691
107.256
107.947
108.754
109.675
110.707
111.848
113.095
114.445
115.896
117.444
119.085
120.811
122.613
124.48
126.397
128.344
130.298
105.796
105.88
106.103
106.503
107.053
107.726
108.511
109.404
110.404
111.507
112.711
114.01
115.403
116.884
118.448
120.086
121.789
123.544
125.333
127.138
128.933
105.575
105.664
105.889
106.28
106.814
107.466
108.224
109.087
110.05
111.11
112.262
113.504
114.83
116.235
117.711
119.25
120.84
122.467
124.112
125.755
127.368
105.331
105.421
105.644
106.025
106.54
107.168
107.897
108.724
109.646
110.657
111.753
112.93
114.181
115.501
116.88
118.309
119.775
121.26
122.746
124.208
125.617
105.064
105.153
105.37
105.738
106.234
106.835
107.532
108.319
109.194
110.152
111.186
112.292
113.462
114.689
115.963
117.272
118.602
119.934
121.246
122.511
123.695
104.774
104.86
105.069
105.422
105.896
106.468
107.129
107.874
108.699
109.598
110.566
111.595
112.678
113.804
114.965
116.146
117.331
118.498
119.624
120.677
121.618
104.462
104.544
104.743
105.079
105.529
106.069
106.692
107.391
108.163
109
109.896
110.844
111.834
112.855
113.896
114.942
115.973
116.966
117.894
118.722
119.404
104.128
104.205
104.393
104.711
105.134
105.641
106.223
106.874
107.589
108.361
109.182
110.045
110.937
111.848
112.764
113.668
114.539
115.351
116.072
116.663
117.074
103.774
103.846
104.021
104.319
104.714
105.186
105.725
106.326
106.981
107.685
108.429
109.202
109.993
110.79
111.577
112.335
113.041
113.666
114.175
114.522
114.653
103.401
103.468
103.629
103.905
104.271
104.706
105.201
105.749
106.343
106.977
107.64
108.322
109.01
109.69
110.345
110.954
111.492
111.927
112.22
112.321
112.168
103.011
103.072
103.218
103.471
103.807
104.204
104.653
105.147
105.679
106.24
106.821
107.41
107.993
108.555
109.077
109.537
109.906
110.151
110.229
110.085
109.651
102.782
103.011
103.316
103.673
104.073
104.511
104.978
105.465
105.962
106.455
106.931
107.372
107.759
108.067
108.266
108.32
108.182
107.796
107.084
102.52
102.791
103.106
103.457
103.836
104.235
104.645
105.055
105.45
105.815
106.133
106.383
106.537
106.566
106.43
106.08
105.456
104.48
102.237
102.509
102.808
103.127
103.457
103.788
104.109
104.404
104.658
104.853
104.965
104.967
104.828
104.507
103.955
103.108
101.89
101.883
102.129
102.386
102.646
102.897
103.128
103.323
103.467
103.539
103.516
103.37
103.07
102.574
101.832
100.785
99.3561
101.422
101.617
101.806
101.978
102.119
102.214
102.249
102.201
102.047
101.759
101.307
100.649
99.7375
98.5162
96.9166
100.823
100.941
101.033
101.085
101.084
101.011
100.848
100.569
100.148
99.5556
98.7523
97.6935
96.329
94.5994
100.069
100.034
99.9377
99.7635
99.4898
99.0939
98.5509
97.832
96.9014
95.7196
94.2434
92.4234
98.9707
98.7843
98.5128
98.1358
97.6324
96.9792
96.1493
95.1113
93.8315
92.2737
90.3988
97.2676
96.7956
96.1951
95.4445
94.5199
93.3946
92.0405
90.4283
88.5285
94.7916
93.9571
92.9541
91.7605
90.3535
88.7104
86.8098
92.5252
91.4595
90.2149
88.7737
87.1192
85.2365
88.7612
87.3018
85.6515
83.8008
84.3023
82.4935
)
;

boundaryField
{
    inlet
    {
        type            zeroGradient;
    }
    outlet
    {
        type            fixedValue;
        value           nonuniform 0();
    }
    flap
    {
        type            zeroGradient;
    }
    upperWall
    {
        type            zeroGradient;
    }
    lowerWall
    {
        type            zeroGradient;
    }
    frontAndBack
    {
        type            empty;
    }
    procBoundary3to0
    {
        type            processor;
        value           nonuniform List<scalar> 
34
(
102.598
102.651
102.651
102.316
102.316
102.001
102.001
101.656
101.656
101.23
101.23
100.691
100.691
100.007
100.055
100.055
99.0897
99.0897
97.9025
97.6303
97.6303
96.036
95.4781
95.4781
93.4301
93.4301
91.1554
90.0412
90.0412
87.4003
85.9362
85.9362
83.0654
81.3053
)
;
    }
    procBoundary3to1
    {
        type            processor;
        value           nonuniform List<scalar> 9(94.8558 92.4368 90.207 88.1679 86.3134 84.633 83.1141 81.7434 80.5078);
    }
    procBoundary3to4
    {
        type            processor;
        value           nonuniform List<scalar> 
19
(
135.398
135.2
134.525
133.52
132.23
130.69
128.92
126.937
124.758
122.401
119.887
117.243
114.495
111.679
108.834
105.948
103.047
100.196
97.4512
)
;
    }
}


// ************************************************************************* //
