/*--------------------------------*- C++ -*----------------------------------*\
| =========                 |                                                 |
| \\      /  F ield         | OpenFOAM: The Open Source CFD Toolbox           |
|  \\    /   O peration     | Version:  dev                                   |
|   \\  /    A nd           | Web:      www.OpenFOAM.org                      |
|    \\/     M anipulation  |                                                 |
\*---------------------------------------------------------------------------*/
FoamFile
{
    version     2.0;
    format      ascii;
    class       volScalarField;
    location    "0.53";
    object      p;
}
// * * * * * * * * * * * * * * * * * * * * * * * * * * * * * * * * * * * * * //

dimensions      [0 2 -2 0 0 0 0];

internalField   nonuniform List<scalar> 
465
(
-108.943
-117.634
-105.717
-114.191
-122.619
-130.765
-102.49
-110.638
-118.704
-126.471
-133.674
-99.2081
-107.029
-114.709
-122.061
-128.853
-134.814
-139.657
-95.4247
-103.022
-110.397
-117.391
-123.807
-129.413
-133.962
-137.211
-138.961
-90.4135
-97.9584
-105.164
-111.913
-118.039
-123.349
-127.627
-130.655
-132.248
-132.139
-83.543
-91.1682
-98.3302
-104.94
-110.865
-115.938
-119.969
-122.75
-124.078
-123.703
-121.458
-117.313
-74.7825
-82.4692
-89.6078
-96.1179
-101.884
-106.758
-110.567
-113.112
-114.173
-113.574
-111.27
-107.262
-101.504
-64.6792
-72.2847
-79.3141
-85.6819
-91.2769
-95.9631
-99.5805
-101.947
-102.855
-102.198
-100.016
-96.3226
-91.0696
-84.2576
-75.972
-54.0192
-61.3653
-68.1559
-74.2968
-79.6773
-84.1695
-87.6296
-89.899
-90.8032
-90.2711
-88.369
-85.1227
-80.4958
-74.4936
-67.1958
-58.7474
-43.5307
-50.4742
-56.9113
-62.744
-67.8641
-72.1528
-75.4831
-77.7225
-78.7359
-78.4583
-76.9379
-74.2127
-70.2661
-65.1083
-58.81
-51.4983
-43.3466
-34.5687
-33.724
-40.1858
-46.201
-51.6748
-56.5052
-60.5842
-63.8012
-66.0472
-67.2203
-67.2528
-66.1578
-63.9753
-60.7074
-56.3705
-51.027
-44.7862
-37.7965
-30.2412
-22.3333
-24.863
-30.8241
-36.399
-41.4993
-46.0323
-49.9021
-53.0129
-55.2741
-56.6068
-56.9478
-56.2758
-54.6163
-51.9879
-48.4133
-43.9474
-38.6832
-32.7472
-26.2955
-19.5099
-12.5806
-17.0217
-22.5036
-27.6545
-32.3945
-36.6404
-40.3083
-43.3156
-45.585
-47.0503
-47.6639
-47.3841
-46.2053
-44.1573
-41.2694
-37.59
-33.1978
-28.2008
-22.7318
-16.9453
-11.0052
-5.29768
-10.1616
-15.206
-19.9678
-24.3756
-28.3559
-31.8354
-34.7423
-37.0102
-38.5822
-39.4172
-39.4716
-38.7214
-37.1904
-34.9106
-31.9256
-28.3027
-24.1338
-19.5324
-14.6298
-9.56722
-4.65589
-4.19547
-8.85085
-13.265
-17.3749
-21.1158
-24.4229
-27.2339
-29.4909
-31.1444
-32.1576
-32.4894
-32.109
-31.0298
-29.2815
-26.904
-23.9547
-20.512
-16.6727
-12.5492
-8.2634
-4.0667
0.975242
-3.33917
-7.44739
-11.294
-14.8217
-17.9733
-20.6941
-22.9335
-24.6475
-25.8016
-26.3631
-26.2981
-25.6078
-24.3197
-22.4697
-20.107
-17.2983
-14.1265
-10.6881
-7.0887
-3.53237
5.44384
1.42581
-2.41569
-6.03165
-9.37135
-12.3843
-15.0219
-17.2393
-18.9968
-20.2619
-21.0113
-21.2137
-20.8564
-19.9641
-18.5696
-16.7152
-14.4578
-11.8686
-9.03106
-6.03688
-3.05257
9.29349
5.53107
1.92039
-1.49497
-4.6701
-7.56025
-10.1222
-12.3157
-14.1051
-15.461
-16.362
-16.7837
-16.7104
-16.158
-15.1552
-13.7391
-11.9589
-9.87616
-7.56328
-5.10052
-2.62513
12.5956
9.05231
5.64026
2.3981
-0.634199
-3.41671
-5.91073
-8.08009
-9.89255
-11.3213
-12.3467
-12.9496
-13.1147
-12.8511
-12.1828
-11.1425
-9.77312
-8.12824
-6.27122
-4.27281
-2.24727
15.4104
12.0537
8.81101
5.71697
2.80747
0.11839
-2.31542
-4.46125
-6.28988
-7.7768
-8.90322
-9.65596
-10.0213
-10.0006
-9.61552
-8.89501
-7.87668
-6.60765
-5.14387
-3.54821
-1.91677
17.7907
14.5908
11.4909
8.52216
5.71708
3.10809
0.726719
-1.3973
-3.23728
-4.7706
-5.97973
-6.85367
-7.3829
-7.56568
-7.41867
-6.96786
-6.24681
-5.29746
-4.16971
-2.92
-1.63047
19.7751
16.7054
13.7242
10.8599
8.14219
5.60065
3.26407
1.15971
-0.687821
-2.2577
-3.53385
-4.5061
-5.16786
-5.51766
-5.56785
-5.34129
-4.8684
-4.18708
-3.34238
-2.38549
-1.38766
21.402
18.438
15.5533
12.7742
10.128
7.642
5.3428
3.25562
1.40321
-0.195239
-1.52482
-2.57575
-3.34329
-3.82712
-4.03703
-3.99328
-3.72367
-3.26291
-2.65228
-1.93875
-1.18526
22.6877
19.8067
16.998
14.2861
11.6965
9.25472
6.98562
4.91275
3.05739
1.43755
0.0673485
-1.04389
-1.89283
-2.48064
-2.81549
-2.91562
-2.80677
-2.5213
-2.09764
-1.57953
-1.02348
23.6648
20.845
18.0925
15.4302
12.8824
10.4734
8.22662
6.16444
4.30709
2.67175
1.27154
0.11522
-0.793774
-1.45825
-1.88671
-2.09555
-2.10868
-1.95675
-1.67628
-1.30862
-0.905105
24.3171
21.5385
18.8238
16.195
13.6758
11.2894
9.05845
7.00456
5.14724
3.50286
2.0836
0.89822
-0.0485627
-0.76047
-1.24846
-1.52827
-1.62254
-1.56088
-1.37889
-1.11735
-0.826687
24.6832
21.9235
19.2258
16.6121
14.1053
11.7285
9.50386
7.45263
5.59391
3.9437
2.51387
1.31225
0.341178
-0.40197
-0.925288
-1.24463
-1.38272
-1.36892
-1.23874
-1.03367
-0.805395
)
;

boundaryField
{
    inlet
    {
        type            zeroGradient;
    }
    outlet
    {
        type            fixedValue;
        value           uniform 0;
    }
    flap
    {
        type            zeroGradient;
    }
    upperWall
    {
        type            zeroGradient;
    }
    lowerWall
    {
        type            zeroGradient;
    }
    frontAndBack
    {
        type            empty;
    }
    procBoundary2to1
    {
        type            processor;
        value           nonuniform List<scalar> 
17
(
-26.9043
-18.5996
-11.2851
-4.90262
0.640902
5.44264
9.59162
13.1662
16.2333
18.8485
21.061
22.9067
24.421
25.6183
26.5301
27.1388
27.4846
)
;
    }
    procBoundary2to4
    {
        type            processor;
        value           nonuniform List<scalar> 
11
(
-100.448
-97.3841
-94.4278
-91.3902
-87.7145
-82.5925
-75.4947
-66.594
-56.5622
-46.1975
-36.1686
)
;
    }
    procBoundary2to5
    {
        type            processor;
        value           nonuniform List<scalar> 
34
(
-111.898
-120.693
-126.324
-126.324
-134.762
-138.343
-138.343
-140.01
-140.01
-145.145
-143.092
-143.092
-144.883
-138.993
-138.993
-130.077
-130.077
-125.962
-111.232
-111.232
-93.9918
-93.9918
-84.8073
-66.3728
-66.3728
-49.3481
-49.3481
-39.2459
-25.4139
-25.4139
-14.293
-14.293
-5.98568
-5.98568
)
;
    }
}


// ************************************************************************* //
