/*--------------------------------*- C++ -*----------------------------------*\
| =========                 |                                                 |
| \\      /  F ield         | OpenFOAM: The Open Source CFD Toolbox           |
|  \\    /   O peration     | Version:  dev                                   |
|   \\  /    A nd           | Web:      www.OpenFOAM.org                      |
|    \\/     M anipulation  |                                                 |
\*---------------------------------------------------------------------------*/
FoamFile
{
    version     2.0;
    format      ascii;
    class       surfaceScalarField;
    location    "4.67";
    object      phi;
}
// * * * * * * * * * * * * * * * * * * * * * * * * * * * * * * * * * * * * * //

dimensions      [0 3 -1 0 0 0 0];

internalField   nonuniform List<scalar> 
5457
(
0.198147
0.00186918
0.196099
0.00206378
0.193806
0.00230839
0.191219
0.00260196
0.188334
0.00290042
0.185148
0.00319897
0.181654
0.00350406
0.177838
0.00382191
0.173685
0.00415561
0.169174
0.00450826
0.164284
0.00488348
0.158989
0.00528324
0.153266
0.0057094
0.147086
0.00616353
0.140423
0.00664665
0.133248
0.00715888
0.125534
0.007699
0.117257
0.00826383
0.1084
0.00884757
0.0989508
0.00944128
0.0889138
0.0100325
0.0783075
0.0106044
0.0671725
0.0111344
0.0555788
0.011594
0.0436322
0.0119472
0.0314842
0.0121487
0.019336
0.0121487
0.00745419
0.0118822
-0.000547137
0.00800149
-0.000547095
0.199876
0.00200902
0.199105
0.00285063
0.197969
0.00345981
0.196494
0.00409198
0.194675
0.00473407
0.192509
0.00537844
0.189989
0.00603419
0.187106
0.00671256
0.183842
0.00742125
0.180181
0.00816705
0.176101
0.00895638
0.17158
0.00979378
0.166591
0.0106836
0.161109
0.0116296
0.155104
0.0126346
0.148547
0.0136997
0.141407
0.0148237
0.133656
0.0160017
0.12527
0.0172239
0.116229
0.0184744
0.106527
0.0197304
0.0961685
0.0209606
0.0851795
0.0221229
0.0736117
0.0231619
0.0615563
0.0240033
0.0491712
0.0245343
0.0367527
0.0245678
0.0249927
0.0236426
0.012645
0.0203493
0.012098
0.199729
0.00229541
0.199025
0.00357021
0.197959
0.00454142
0.19658
0.00548613
0.194891
0.00643857
0.192885
0.00739692
0.19056
0.00837037
0.187906
0.00937338
0.18491
0.0104198
0.181556
0.0115194
0.177825
0.0126803
0.173698
0.0139101
0.169151
0.0152161
0.16416
0.0166048
0.158695
0.018082
0.152727
0.019651
0.146223
0.0213126
0.139149
0.0230634
0.131468
0.0248939
0.123148
0.0267863
0.114161
0.0287129
0.104484
0.0306351
0.0941034
0.032503
0.0830179
0.0342475
0.0712516
0.03577
0.0588644
0.0369222
0.0459556
0.0374769
0.0324828
0.0371157
0.0174227
0.0354095
0.0295207
0.199639
0.00267174
0.198937
0.00428791
0.197886
0.00560726
0.196525
0.00686229
0.194863
0.00811613
0.192897
0.00937662
0.190622
0.0106553
0.188033
0.0119703
0.185117
0.0133381
0.181864
0.0147712
0.178258
0.0162797
0.174283
0.0178741
0.169921
0.0195641
0.165151
0.021359
0.159949
0.0232674
0.154287
0.0252956
0.148137
0.0274477
0.141463
0.0297242
0.134226
0.0321205
0.12638
0.0346234
0.117881
0.0372071
0.108681
0.0398327
0.0987308
0.0424525
0.0879679
0.0450103
0.0763246
0.0474136
0.0637258
0.0495214
0.0500696
0.0511335
0.0351772
0.0520083
0.0185404
0.0520464
0.0480611
0.199593
0.00309355
0.198882
0.00501453
0.197844
0.00665962
0.196501
0.00822068
0.194863
0.00976938
0.19293
0.0113231
0.190697
0.0128996
0.188155
0.0145201
0.185296
0.0162009
0.182108
0.0179571
0.17858
0.0198021
0.174696
0.0217481
0.170439
0.023807
0.165791
0.0259909
0.160731
0.0283113
0.155232
0.0307771
0.149269
0.0333955
0.142808
0.036172
0.135805
0.0391123
0.128207
0.0422131
0.119952
0.0454566
0.110967
0.0488145
0.101176
0.0522423
0.0904843
0.0557014
0.0787527
0.0591452
0.0658209
0.0624534
0.0515182
0.0654365
0.0357085
0.0678181
0.0184152
0.0693398
0.0664763
0.199571
0.00353763
0.198853
0.0057469
0.197831
0.0076968
0.196511
0.00955534
0.194905
0.0113907
0.193012
0.0132304
0.190824
0.0150988
0.188335
0.0170172
0.185537
0.0190031
0.182418
0.0210751
0.178965
0.023249
0.175165
0.0255387
0.171
0.0279585
0.166451
0.0305239
0.161496
0.0332494
0.156109
0.0361472
0.150261
0.039228
0.143917
0.0425025
0.137032
0.0459863
0.129547
0.049689
0.121384
0.053613
0.112447
0.0577485
0.102623
0.0620646
0.0918009
0.0665225
0.0798351
0.0711106
0.0665316
0.0757568
0.0517422
0.0802258
0.0354124
0.0841479
0.0179585
0.0867936
0.0844348
0.199561
0.00399058
0.198844
0.00647866
0.197839
0.00871604
0.196549
0.0108607
0.194981
0.0129738
0.193134
0.0150922
0.190999
0.0172453
0.188572
0.0194524
0.185845
0.0217349
0.182804
0.0241154
0.179438
0.0266107
0.17573
0.0292369
0.171665
0.032011
0.16722
0.0349536
0.162371
0.0380823
0.157088
0.0414127
0.151338
0.0449625
0.145076
0.0487503
0.138255
0.0527955
0.130814
0.0571205
0.122668
0.0617526
0.113701
0.0667113
0.103774
0.07199
0.09274
0.0775549
0.0804695
0.0833803
0.0668067
0.0894191
0.0516466
0.0953856
0.0350265
0.100768
0.0175797
0.10424
0.102014
0.19956
0.0044437
0.198849
0.0072037
0.197866
0.00971376
0.19661
0.0121319
0.195085
0.0145137
0.19329
0.0169022
0.191218
0.019329
0.188865
0.0218149
0.186219
0.0243861
0.183268
0.0270669
0.179999
0.0298752
0.176397
0.0328302
0.172443
0.0359534
0.168113
0.0392685
0.163384
0.0427954
0.158221
0.0465584
0.152583
0.0505853
0.146418
0.054901
0.139667
0.0595338
0.132258
0.06452
0.124106
0.0698972
0.11509
0.075723
0.105054
0.0820224
0.093837
0.08877
0.08129
0.0959258
0.0673068
0.103401
0.0518633
0.110828
0.0350453
0.117585
0.0175365
0.121749
0.119551
0.199566
0.00489073
0.198866
0.0079171
0.197906
0.0106873
0.196689
0.0133642
0.195215
0.0160034
0.19348
0.0186518
0.191481
0.0213404
0.18921
0.0240955
0.186655
0.0269465
0.183806
0.0299173
0.180649
0.0330291
0.177167
0.0363051
0.173338
0.0397715
0.16914
0.0434517
0.164549
0.0473705
0.159529
0.0515622
0.154031
0.0560676
0.147996
0.0609214
0.141357
0.0661608
0.134028
0.0718386
0.125912
0.0780053
0.116885
0.0847439
0.106795
0.0921086
0.0954714
0.100091
0.08275
0.108645
0.0685382
0.117612
0.0528648
0.126501
0.0358196
0.13463
0.0180163
0.139552
0.137567
0.199574
0.00532882
0.19889
0.00861379
0.19796
0.0116311
0.196787
0.0145515
0.19537
0.0174362
0.193703
0.0203333
0.191784
0.0232732
0.189602
0.0262869
0.18715
0.0294053
0.184416
0.0326538
0.181385
0.0360579
0.178039
0.0396445
0.174358
0.0434421
0.17032
0.0474772
0.165892
0.0517832
0.161041
0.0563971
0.155718
0.0613747
0.149857
0.0667678
0.143386
0.0726191
0.136216
0.0789981
0.128232
0.0859806
0.119306
0.0936627
0.10929
0.10212
0.0980018
0.111376
0.0852616
0.121382
0.0709579
0.131913
0.055091
0.142366
0.0376921
0.152028
0.0192236
0.15802
0.156791
0.199584
0.00575621
0.198921
0.00928837
0.198027
0.0125384
0.196904
0.0156895
0.195546
0.0188087
0.193953
0.0219415
0.19212
0.0251204
0.190038
0.0283798
0.187699
0.0317516
0.185092
0.0352645
0.182201
0.0389473
0.179011
0.0428296
0.175502
0.0469422
0.171649
0.051318
0.16742
0.0559973
0.162778
0.0610246
0.157673
0.0664641
0.152047
0.0723791
0.145825
0.0788284
0.138913
0.0858982
0.131196
0.0936882
0.122543
0.102308
0.112801
0.111856
0.101775
0.122396
0.0892548
0.133899
0.0750587
0.146106
0.0590673
0.158356
0.0411481
0.169946
0.0215202
0.177648
0.178311
0.199595
0.00617066
0.198959
0.00993605
0.198105
0.0134054
0.197033
0.0167753
0.195742
0.0201157
0.194229
0.0234699
0.192489
0.0268739
0.190517
0.0303643
0.188302
0.033975
0.185833
0.0377371
0.183099
0.0416819
0.180083
0.0458417
0.176766
0.0502508
0.173126
0.0549475
0.169133
0.059977
0.164744
0.0653983
0.159916
0.0712779
0.154599
0.0776819
0.148723
0.0846916
0.1422
0.0924095
0.134919
0.100959
0.126754
0.110464
0.117553
0.12105
0.107112
0.132831
0.0951747
0.145832
0.0814402
0.159837
0.0655582
0.174235
0.0470603
0.188443
0.0257182
0.198989
0.204029
0.19961
0.00656923
0.199003
0.0105528
0.198191
0.0142302
0.197175
0.017805
0.195956
0.0213503
0.19453
0.0249116
0.192892
0.0285263
0.191036
0.0322324
0.188955
0.0360656
0.186639
0.0400591
0.184076
0.0442462
0.181253
0.0486622
0.178152
0.0533447
0.174754
0.0583363
0.171031
0.0636874
0.166944
0.069472
0.162455
0.0757525
0.15753
0.0825935
0.152109
0.0900995
0.14612
0.0983869
0.139469
0.107599
0.132046
0.117877
0.12372
0.129367
0.114296
0.142248
0.103486
0.156636
0.0908641
0.172455
0.0757646
0.189332
0.0571378
0.207068
0.0337843
0.222342
0.237813
0.199627
0.00694911
0.199052
0.0111372
0.198285
0.015009
0.19733
0.0187739
0.196188
0.0225077
0.194855
0.0262605
0.193325
0.0300706
0.191595
0.0339759
0.189657
0.0380135
0.187504
0.0422184
0.185128
0.0466256
0.182516
0.0512727
0.179655
0.0562007
0.176528
0.0614553
0.17311
0.0670948
0.169369
0.0732004
0.165286
0.0798221
0.160839
0.0870273
0.155986
0.0949395
0.150679
0.103682
0.144855
0.113412
0.138447
0.124275
0.131372
0.136432
0.123494
0.150117
0.114572
0.165552
0.104169
0.182854
0.0914254
0.202073
0.0746723
0.22382
0.0507022
0.246312
0.288515
0.199644
0.00731074
0.199101
0.0116882
0.198384
0.0157374
0.197493
0.0196785
0.196429
0.023586
0.195192
0.0275133
0.193776
0.031502
0.192177
0.035589
0.190389
0.0398118
0.188409
0.0442066
0.186229
0.0488096
0.183842
0.0536603
0.181236
0.0588028
0.178399
0.0642858
0.175307
0.0701778
0.171951
0.0765455
0.168331
0.0834295
0.164432
0.0909143
0.160237
0.0991216
0.155733
0.108174
0.1509
0.118234
0.145737
0.129425
0.14026
0.141898
0.134458
0.15591
0.128279
0.171724
0.121566
0.189561
0.113823
0.209813
0.103826
0.233815
0.086695
0.263443
0.37521
0.00330891
-0.00330923
0.0073374
-0.00402995
0.0110999
-0.0037668
0.0143781
-0.00328713
0.0171882
-0.00282463
0.0195802
-0.00241239
0.0216087
-0.00205384
0.0233178
-0.00173794
0.0247208
-0.00143409
0.0258187
-0.00112687
0.0266059
-0.000810969
0.0270736
-0.000487451
0.0272362
-0.000179558
0.0271409
8.16043e-05
0.0268601
0.000270416
0.0264798
0.000373497
0.026089
0.000388048
0.0257662
0.000324178
0.0255684
0.000203573
0.0255315
4.72186e-05
0.0256668
-0.000120443
0.0259564
-0.000270142
0.0263631
-0.00038288
0.0268468
-0.00045546
0.0273735
-0.000494302
0.0279173
-0.000507396
0.02846
-0.000502728
0.0289916
-0.000488443
0.0295048
-0.000467001
-0.000434088
0.00339433
-0.00670391
0.00714326
-0.0077804
0.0107246
-0.00735252
0.0139407
-0.00651224
0.0167775
-0.00567614
0.0192782
-0.00493343
0.0214899
-0.00429058
0.0234482
-0.00372472
0.0251787
-0.00319512
0.026701
-0.002678
0.0280221
-0.0021557
0.0291333
-0.00161831
0.0300162
-0.00107934
0.0306635
-0.000579517
0.0311041
-0.000180713
0.0314099
6.07406e-05
0.0316711
0.000123811
0.0319607
3.56742e-05
0.0323215
-0.000151677
0.0327609
-0.000382092
0.0332629
-0.000607786
0.0338092
-0.000797161
0.0343848
-0.000934749
0.034976
-0.00101849
0.0355688
-0.00105482
0.0361491
-0.00105143
0.036704
-0.00101778
0.0372217
-0.000962934
0.0376927
-0.000891892
-0.000775039
0.00325448
-0.00995874
0.00652986
-0.0110574
0.00955313
-0.0103803
0.0122551
-0.00922317
0.014639
-0.00807456
0.0167436
-0.00705782
0.0186085
-0.0061798
0.0202743
-0.00541817
0.0217723
-0.00472261
0.0231264
-0.00406014
0.0243503
-0.00340292
0.0254512
-0.00273873
0.0264373
-0.00208245
0.0273208
-0.00147723
0.0281055
-0.000976478
0.0287909
-0.000632126
0.0293906
-0.000479535
0.029934
-0.000507237
0.0304474
-0.000660189
0.0309424
-0.000867564
0.0314201
-0.00107139
0.0318779
-0.00123615
0.0323115
-0.00134504
0.0327158
-0.00139499
0.0330834
-0.00139046
0.0334065
-0.00133865
0.0336773
-0.00124895
0.0338895
-0.00113221
0.034046
-0.0010024
-0.000864153
0.00311459
-0.0130737
0.00588381
-0.0138282
0.00830898
-0.0128099
0.0104216
-0.0113446
0.012253
-0.00991983
0.0138461
-0.00866991
0.0152354
-0.00759213
0.0164721
-0.00668096
0.0175921
-0.00587068
0.018622
-0.00511702
0.0195789
-0.00438257
0.0204744
-0.00365369
0.0213181
-0.00294341
0.0221181
-0.00229197
0.0228773
-0.00174738
0.0235874
-0.0013506
0.024232
-0.00112876
0.0247983
-0.00107391
0.0252813
-0.00113921
0.025681
-0.00125865
0.0259982
-0.00137532
0.0262346
-0.00145454
0.0263945
-0.00148231
0.0264852
-0.00145855
0.0265164
-0.00139019
0.0265028
-0.00128957
0.0264598
-0.0011668
0.0263977
-0.00102755
0.0263318
-0.000890863
-0.00078973
0.00289089
-0.015965
0.00510758
-0.0160466
0.00691952
-0.0146263
0.00841127
-0.0128449
0.00963442
-0.0111562
0.0106381
-0.00969134
0.0114827
-0.00845819
0.0122239
-0.00744652
0.0128974
-0.00657054
0.0135263
-0.0057715
0.0141312
-0.00500949
0.0147248
-0.00426673
0.0153144
-0.00355062
0.0158973
-0.00289016
0.0164619
-0.00232467
0.0169907
-0.00188877
0.0174602
-0.00160386
0.0178527
-0.00146796
0.0181633
-0.00144697
0.0183999
-0.00148776
0.018577
-0.00154003
0.018709
-0.00156949
0.0188076
-0.00155908
0.0188792
-0.00150369
0.0189242
-0.00140449
0.0189358
-0.00126628
0.0189027
-0.00109502
0.0188185
-0.000901241
0.0186804
-0.000707523
-0.000628688
0.00254458
-0.01851
0.00414488
-0.0176485
0.00531952
-0.0158053
0.00614494
-0.0136784
0.00670949
-0.0117331
0.00710437
-0.0101026
0.00741419
-0.00878776
0.00766315
-0.00771794
0.00787986
-0.00681159
0.00808896
-0.00600464
0.00831169
-0.00525363
0.008563
-0.00453734
0.00885272
-0.00385833
0.00918299
-0.00323647
0.009546
-0.00270119
0.00992713
-0.00228036
0.0103062
-0.00198977
0.0106626
-0.00182713
0.0109829
-0.00176566
0.0112624
-0.00176093
0.0115015
-0.00176785
0.0117008
-0.00175275
0.0118574
-0.00169483
0.011963
-0.0015837
0.0120044
-0.0014159
0.0119642
-0.00119185
0.0118226
-0.000915387
0.0115667
-0.000603732
0.0112278
-0.00032392
-0.000288167
0.00205516
-0.0205655
0.00296228
-0.0185573
0.00344507
-0.0162922
0.00356569
-0.0138066
0.00349239
-0.0116711
0.00334223
-0.00996727
0.00316497
-0.00862844
0.00298458
-0.00755801
0.00282436
-0.00667372
0.00270566
-0.00590841
0.0026478
-0.00521645
0.0026661
-0.00457487
0.00277041
-0.00398095
0.00296389
-0.00344665
0.00323655
-0.00298827
0.00356631
-0.00262165
0.00392402
-0.00235554
0.00427895
-0.0021861
0.00460636
-0.00209268
0.00489053
-0.00203997
0.00512322
-0.00199051
0.00529937
-0.00191391
0.0054133
-0.00178888
0.005455
-0.00160076
0.00540777
-0.0013395
0.00524838
-0.000999024
0.00494972
-0.000579366
0.00450114
-0.000114196
0.00396127
0.000260157
0.00032202
0.00140374
-0.0219696
0.00154629
-0.0187014
0.00126261
-0.0160124
0.000669854
-0.0132208
1.86612e-05
-0.0110302
-0.000605404
-0.00935661
-0.00117156
-0.00807845
-0.00166194
-0.00708618
-0.00206727
-0.00628883
-0.00237935
-0.00561727
-0.00259116
-0.0050246
-0.00269944
-0.00448572
-0.00270423
-0.00399473
-0.00261159
-0.00355657
-0.00243646
-0.00317865
-0.00220235
-0.00286832
-0.00193607
-0.00263102
-0.00166441
-0.00246302
-0.00141139
-0.00234654
-0.00119557
-0.00225187
-0.00103062
-0.00214659
-0.000927831
-0.00200281
-0.000898859
-0.001799
-0.000957666
-0.00151827
-0.00112056
-0.00114832
-0.00140241
-0.000684552
-0.00180445
-0.000140688
-0.00228869
0.000410318
-0.00281144
0.000826519
0.000986506
0.000587838
-0.0225579
-0.000137102
-0.017978
-0.00129588
-0.0148573
-0.00255303
-0.0119699
-0.00371116
-0.00988129
-0.00473255
-0.00834722
-0.00559684
-0.0072287
-0.00630732
-0.00639248
-0.00687594
-0.00573888
-0.00731444
-0.00519832
-0.0076333
-0.00472499
-0.00784102
-0.00429696
-0.00794499
-0.0039095
-0.00795636
-0.00356296
-0.00789194
-0.00325904
-0.00777288
-0.00300081
-0.00762102
-0.00279311
-0.00745676
-0.00263365
-0.00730053
-0.00250475
-0.00717263
-0.00237701
-0.0070921
-0.00221938
-0.00707531
-0.00200681
-0.00713513
-0.00172136
-0.00727971
-0.00135097
-0.00750957
-0.000891073
-0.00781506
-0.000347281
-0.00816888
0.000248987
-0.00855659
0.000837599
-0.00900357
0.00131646
0.00160228
-0.000353436
-0.0222048
-0.00219868
-0.0161342
-0.00424561
-0.0128137
-0.00613698
-0.0100842
-0.0077808
-0.00824572
-0.00913825
-0.00700051
-0.0102308
-0.00614925
-0.011098
-0.00554055
-0.0117788
-0.00507522
-0.0123065
-0.00468888
-0.0127073
-0.00434277
-0.0129984
-0.00402464
-0.0131903
-0.00373636
-0.0132953
-0.00347612
-0.0133307
-0.00324017
-0.0133166
-0.00302904
-0.013271
-0.00284986
-0.0132082
-0.00270384
-0.0131433
-0.00257257
-0.0130952
-0.00242347
-0.0130836
-0.00222428
-0.0131251
-0.00195354
-0.0132283
-0.00160131
-0.013392
-0.00116551
-0.0136059
-0.000650672
-0.0138528
-6.94515e-05
-0.0141251
0.000556408
-0.0144411
0.00119237
-0.0148449
0.00176251
0.00217087
-0.00152012
-0.020685
-0.00469069
-0.0129649
-0.00770905
-0.00979834
-0.010259
-0.00753943
-0.0123121
-0.00619996
-0.013916
-0.00540633
-0.0151546
-0.00492255
-0.0161099
-0.0045992
-0.0168496
-0.00435139
-0.0174266
-0.00412902
-0.0178807
-0.00390673
-0.0182343
-0.0036895
-0.0184964
-0.00349308
-0.0186764
-0.00331439
-0.0187928
-0.00314069
-0.0188668
-0.00296979
-0.0189125
-0.00281593
-0.0189356
-0.0026888
-0.0189427
-0.00256936
-0.0189488
-0.00241655
-0.0189748
-0.00219251
-0.0190372
-0.00188033
-0.0191405
-0.00148204
-0.0192776
-0.00100756
-0.0194361
-0.00046653
-0.0196089
0.000133388
-0.0198093
0.000791057
-0.0200726
0.00149381
-0.0204433
0.00217467
0.00269588
-0.00335592
-0.0173295
-0.00798879
-0.00833326
-0.0119903
-0.00579964
-0.0150653
-0.00446908
-0.0173725
-0.00389945
-0.0190779
-0.0037098
-0.0203389
-0.00367249
-0.0212868
-0.00366426
-0.0220138
-0.00363919
-0.0225851
-0.00357407
-0.0230505
-0.00345874
-0.0234346
-0.00332365
-0.0237374
-0.00320894
-0.0239604
-0.00310962
-0.024125
-0.00299319
-0.0242582
-0.00285163
-0.0243703
-0.00271609
-0.0244543
-0.00261355
-0.0245046
-0.00252356
-0.0245331
-0.00238789
-0.0245646
-0.00215611
-0.024618
-0.00181687
-0.0246957
-0.00138924
-0.0247865
-0.00089673
-0.0248792
-0.000349041
-0.0249797
0.000263158
-0.0251174
0.000962224
-0.0253359
0.00174962
-0.0256734
0.00255298
0.00317855
-0.006337
-0.0109928
-0.0126388
-0.00203267
-0.0173758
-0.00106528
-0.0206763
-0.00117291
-0.0229425
-0.00163953
-0.0245039
-0.00215661
-0.025604
-0.00258266
-0.0264186
-0.00286183
-0.0270457
-0.00302616
-0.0275419
-0.00309344
-0.0279659
-0.00305162
-0.0283446
-0.0029628
-0.0286587
-0.00291321
-0.0288924
-0.0028941
-0.0290719
-0.00283072
-0.0292387
-0.00269995
-0.0294009
-0.00256639
-0.0295313
-0.0024922
-0.0296053
-0.00245455
-0.0296317
-0.00236194
-0.0296447
-0.00213874
-0.0296708
-0.00178137
-0.0297111
-0.00133456
-0.0297499
-0.000838728
-0.0297767
-0.00029823
-0.0298069
0.000321903
-0.0298835
0.00107147
-0.0300584
0.00196112
-0.0303631
0.00289777
0.00362546
-0.0120503
0.00105719
-0.0198136
0.0057294
-0.0245596
0.00367819
-0.0272485
0.00151171
-0.0288481
-4.5986e-05
-0.0299147
-0.00109786
-0.0306385
-0.00186862
-0.0311911
-0.00232081
-0.0316467
-0.00258405
-0.0320049
-0.00275027
-0.0323404
-0.00273243
-0.0326979
-0.00262278
-0.0330169
-0.0026121
-0.0332412
-0.00268762
-0.0334069
-0.00268186
-0.0335911
-0.0025308
-0.0338038
-0.00236617
-0.0339831
-0.00232211
-0.0340707
-0.00237219
-0.0340727
-0.00236082
-0.0340451
-0.0021624
-0.0340307
-0.00178704
-0.0340288
-0.00132274
-0.0340149
-0.000833962
-0.0339752
-0.000314668
-0.0339319
0.000306312
-0.0339428
0.00111428
-0.0340719
0.00212607
-0.0343466
0.00321178
0.00404695
-0.019891
0.0209477
-0.0276527
0.0134897
-0.0326142
0.00863704
-0.0339482
0.00284142
-0.0343037
0.000303632
-0.0348061
-0.000603099
-0.035065
-0.00161909
-0.035255
-0.00214201
-0.0355247
-0.00232732
-0.0357045
-0.00258498
-0.035913
-0.0025398
-0.0362665
-0.00228612
-0.0366211
-0.00227501
-0.0368254
-0.00250059
-0.0369391
-0.0025846
-0.0371273
-0.00235743
-0.0374097
-0.00209605
-0.0376589
-0.00208199
-0.0377553
-0.00228112
-0.0377033
-0.00241383
-0.0376064
-0.00225572
-0.0375384
-0.00184675
-0.0374932
-0.00135472
-0.0374287
-0.000880469
-0.0373198
-0.000400941
-0.0371938
0.000207362
-0.0371287
0.00108033
-0.0372083
0.00224075
-0.0374607
0.00350271
0.00445398
0.207313
0.00766193
0.20679
0.0122185
0.206103
0.0164341
0.205253
0.0205415
0.204241
0.0246136
0.203066
0.0287043
0.201727
0.0328573
0.20022
0.0371107
0.198541
0.0415033
0.196688
0.0460689
0.194659
0.0508442
0.192449
0.0558722
0.19005
0.0612
0.187451
0.0668796
0.184645
0.072976
0.181647
0.079533
0.178469
0.0865966
0.175108
0.0942631
0.171582
0.102636
0.167912
0.111832
0.164146
0.121987
0.160384
0.133175
0.156755
0.145514
0.15344
0.159216
0.150727
0.174428
0.149051
0.191232
0.149046
0.209815
0.152142
0.230717
0.163983
0.251601
0.267034
0.272159
0.212353
0.00799594
0.211859
0.0127171
0.211217
0.0170848
0.210427
0.0213443
0.209488
0.0255681
0.208401
0.0298072
0.207169
0.0341062
0.205787
0.0385076
0.204256
0.0430481
0.202577
0.0477584
0.200749
0.0526789
0.198769
0.0578559
0.196634
0.0633349
0.194345
0.0691645
0.191923
0.0753924
0.18939
0.0820566
0.186763
0.0892132
0.18407
0.0969455
0.181357
0.105337
0.178692
0.114485
0.176208
0.124459
0.174082
0.135286
0.172541
0.147041
0.171949
0.159797
0.172861
0.173507
0.176114
0.187972
0.183132
0.202794
0.196716
0.217131
0.218609
0.229707
0.244136
0.241508
0.217518
0.00830832
0.217061
0.0131781
0.21647
0.0176835
0.215746
0.0220794
0.214891
0.0264375
0.213907
0.0308073
0.212796
0.0352342
0.211558
0.0397617
0.210197
0.0444231
0.208716
0.0492517
0.207112
0.0542905
0.205391
0.0595827
0.20356
0.0651664
0.201642
0.0710808
0.199664
0.0773657
0.197654
0.0840592
0.195645
0.0912132
0.193693
0.0988877
0.191875
0.107143
0.190311
0.116038
0.189174
0.125584
0.188673
0.135773
0.189098
0.146602
0.190869
0.158015
0.194529
0.169838
0.200733
0.181761
0.210193
0.19333
0.223446
0.203875
0.239613
0.21354
0.222102
0.261648
0.222811
0.00859541
0.222396
0.0135965
0.221862
0.0182239
0.221213
0.022738
0.220453
0.0272106
0.219585
0.0316914
0.218611
0.0362255
0.217535
0.040854
0.216363
0.04561
0.215097
0.0505299
0.213745
0.0556529
0.212318
0.0610153
0.210839
0.0666484
0.209335
0.072585
0.207837
0.0788601
0.206385
0.0855053
0.205033
0.0925577
0.203856
0.100056
0.202956
0.108033
0.202479
0.116504
0.202602
0.125449
0.203543
0.134818
0.205592
0.144538
0.209104
0.15449
0.21447
0.164463
0.222081
0.174143
0.232265
0.183142
0.245195
0.190943
0.261359
0.197375
0.201075
0.282385
0.228235
0.00885413
0.227866
0.0139676
0.227397
0.0186982
0.226833
0.0233112
0.226177
0.0278776
0.225436
0.0324475
0.224613
0.0370649
0.223715
0.0417688
0.222748
0.0465927
0.22172
0.0515709
0.220646
0.0567377
0.219545
0.0621232
0.218444
0.0677539
0.217374
0.0736563
0.216377
0.0798559
0.215503
0.0863751
0.214818
0.0932357
0.214412
0.100455
0.214397
0.108038
0.214922
0.11597
0.21616
0.124201
0.218312
0.132652
0.221621
0.141215
0.226356
0.149742
0.232794
0.158014
0.241195
0.165734
0.251747
0.172584
0.264519
0.178168
0.279654
0.182238
0.183891
0.296836
0.233792
0.00908114
0.233475
0.014286
0.233078
0.0190994
0.232606
0.0237903
0.232066
0.028429
0.231462
0.0330646
0.230802
0.0377401
0.230095
0.0424924
0.22935
0.0473537
0.228579
0.052355
0.227803
0.0575256
0.227045
0.0628899
0.226336
0.0684687
0.225713
0.074281
0.225226
0.0803431
0.224932
0.0866665
0.224905
0.0932578
0.225238
0.100115
0.226047
0.107221
0.22747
0.114538
0.229664
0.121997
0.232796
0.129509
0.237053
0.136945
0.242646
0.144137
0.249764
0.150886
0.258534
0.156955
0.269004
0.162108
0.281088
0.16608
0.294641
0.168682
0.169174
0.309355
0.239486
0.00927301
0.239225
0.0145467
0.238906
0.019421
0.238536
0.0241675
0.238119
0.0288552
0.237664
0.0335322
0.237179
0.0382394
0.236676
0.0430115
0.236166
0.0478788
0.235667
0.0528679
0.235202
0.058003
0.234798
0.063303
0.234491
0.0687828
0.234321
0.0744538
0.234343
0.0803228
0.234617
0.0863908
0.23522
0.0926509
0.236244
0.0990856
0.237797
0.105662
0.240002
0.112325
0.242988
0.119002
0.24689
0.125596
0.251859
0.131965
0.258033
0.137952
0.265508
0.143402
0.274316
0.148139
0.28443
0.151988
0.295728
0.154777
0.308046
0.156361
0.156063
0.321154
0.245321
0.00942635
0.24512
0.0147448
0.244886
0.0196568
0.244623
0.0244352
0.244339
0.0291478
0.244043
0.0338406
0.243743
0.0385524
0.243454
0.0433153
0.243191
0.0481565
0.242974
0.0530988
0.242829
0.0581608
0.242786
0.063356
0.242882
0.0686935
0.243163
0.0741774
0.243682
0.0798061
0.244501
0.085571
0.245695
0.0914544
0.247349
0.0974274
0.249559
0.103447
0.252426
0.109451
0.256055
0.115364
0.26056
0.121082
0.266041
0.126474
0.272565
0.131418
0.280166
0.135792
0.288837
0.13946
0.298521
0.142297
0.309101
0.144191
0.320415
0.145042
0.144261
0.332214
0.251298
0.00953788
0.251163
0.0148757
0.251019
0.0198011
0.25087
0.0245869
0.250726
0.0292991
0.250596
0.0339816
0.25049
0.0386704
0.250424
0.0433949
0.250416
0.0481788
0.250488
0.0530407
0.250667
0.0579943
0.250986
0.063048
0.251482
0.068205
0.252202
0.0734628
0.253198
0.0788128
0.25453
0.0842392
0.256267
0.089716
0.258485
0.095207
0.261263
0.100664
0.264682
0.106026
0.268829
0.11121
0.273786
0.116116
0.279604
0.120647
0.286308
0.124705
0.293902
0.128189
0.302355
0.131001
0.311594
0.133052
0.321506
0.134273
0.331936
0.134606
0.133546
0.342647
0.257423
0.00960459
0.257357
0.0149352
0.257307
0.0198488
0.257279
0.0246168
0.25728
0.0293028
0.257322
0.0339485
0.257417
0.0385868
0.25758
0.0432442
0.257832
0.0479405
0.258195
0.0526906
0.258698
0.0575035
0.259373
0.0623831
0.26026
0.0673271
0.261401
0.0723278
0.262847
0.0773706
0.264653
0.0824343
0.26688
0.0874884
0.269593
0.0924929
0.272855
0.0973985
0.276729
0.102147
0.281279
0.106654
0.286556
0.110833
0.292581
0.114614
0.299355
0.117924
0.306861
0.120676
0.315052
0.122804
0.323849
0.124248
0.333147
0.12497
0.342808
0.124939
0.123724
0.352626
0.263696
0.0096237
0.263703
0.0149197
0.263752
0.0197956
0.263848
0.02452
0.264001
0.029154
0.26422
0.0337364
0.264519
0.0382973
0.264915
0.0428597
0.265427
0.0474402
0.26608
0.0520497
0.266902
0.0566933
0.267925
0.0613705
0.269186
0.0660751
0.270725
0.0707949
0.272589
0.0755114
0.274826
0.0801995
0.277489
0.0848266
0.280628
0.0893524
0.284296
0.0937289
0.288537
0.0979025
0.293391
0.101795
0.298887
0.105332
0.305026
0.108469
0.311794
0.111149
0.31916
0.113305
0.327069
0.114889
0.335444
0.115867
0.344189
0.11622
0.353187
0.115936
0.114644
0.362263
0.270123
0.00959279
0.270205
0.014826
0.270356
0.0196381
0.27058
0.0242931
0.270887
0.0288492
0.271286
0.0333424
0.271791
0.0377996
0.27242
0.0422409
0.273191
0.0466794
0.274129
0.0511225
0.275261
0.055572
0.276617
0.0600239
0.278232
0.0644686
0.280143
0.068891
0.28239
0.0732702
0.285013
0.0775791
0.288057
0.081785
0.29156
0.0858491
0.295561
0.0897269
0.30009
0.0933709
0.305169
0.0967132
0.310806
0.0996912
0.316991
0.102279
0.323701
0.104434
0.330897
0.106104
0.338522
0.107259
0.346504
0.10788
0.354757
0.107962
0.363182
0.107506
0.10619
0.371631
0.276706
0.00950985
0.276866
0.0146518
0.277121
0.0193738
0.277475
0.0239335
0.277937
0.0283864
0.278517
0.0327652
0.279229
0.0370941
0.280087
0.0413899
0.281113
0.0456627
0.282328
0.0499171
0.283758
0.0541518
0.28543
0.0583602
0.287376
0.0625306
0.289628
0.0666458
0.29222
0.0706838
0.295185
0.0746176
0.298557
0.0784155
0.302365
0.0820418
0.306635
0.0854565
0.311388
0.0886169
0.316628
0.0914711
0.322345
0.0939717
0.328526
0.0960956
0.335144
0.0978129
0.342155
0.0990889
0.349504
0.0999059
0.357125
0.100256
0.364941
0.100142
0.37287
0.0995724
0.0982699
0.380788
0.283448
0.00937331
0.283687
0.0143953
0.284048
0.0190009
0.284534
0.0234401
0.285152
0.027765
0.285912
0.0320056
0.286827
0.0361829
0.287911
0.0403109
0.289184
0.0443972
0.290665
0.0484437
0.292378
0.052447
0.294347
0.0563987
0.296599
0.0602854
0.299162
0.0640894
0.302062
0.0677888
0.305326
0.0713575
0.308978
0.0747663
0.313038
0.0779832
0.317521
0.0809735
0.322438
0.0836998
0.327783
0.0861256
0.333536
0.0882172
0.33968
0.0899501
0.346185
0.0913051
0.353007
0.0922636
0.360094
0.092816
0.367385
0.0929617
0.374815
0.0927086
0.382314
0.0920698
0.0908043
0.389777
0.290353
0.00918194
0.290673
0.0140553
0.291139
0.0185188
0.291756
0.0228127
0.292529
0.026986
0.293467
0.0310657
0.294581
0.03507
0.295885
0.0390104
0.297395
0.0428921
0.29913
0.0467151
0.301109
0.0504743
0.303354
0.0541602
0.305886
0.0577589
0.308728
0.0612528
0.311901
0.0646209
0.315422
0.0678392
0.31931
0.0708815
0.323575
0.0737199
0.328224
0.0763253
0.333255
0.0786685
0.338659
0.0807215
0.344417
0.082459
0.350503
0.0838632
0.356884
0.084922
0.36352
0.0856263
0.37036
0.085973
0.377353
0.0859666
0.38444
0.0856181
0.391564
0.0849423
0.0837301
0.398636
0.297425
0.00893489
0.297825
0.0136316
0.298397
0.0179276
0.299144
0.0220524
0.30007
0.0260517
0.301181
0.0299494
0.302488
0.0337614
0.304002
0.0374966
0.305739
0.0411585
0.307712
0.0447457
0.309939
0.0482519
0.312437
0.0516671
0.315223
0.0549775
0.318313
0.0581665
0.321723
0.0612145
0.325465
0.0641003
0.329548
0.0668008
0.333976
0.0692925
0.338751
0.0715519
0.343862
0.0735571
0.349297
0.0752869
0.355035
0.076722
0.361046
0.0778514
0.367298
0.0786688
0.373752
0.0791707
0.380364
0.0793593
0.387086
0.0792418
0.393871
0.0788311
0.400667
0.0781426
0.0769944
0.407401
0.304667
0.00863174
0.305146
0.0131243
0.305824
0.0172284
0.306698
0.0211614
0.307772
0.0249655
0.309052
0.0286621
0.310544
0.0322643
0.312259
0.0357793
0.314209
0.0392092
0.316405
0.0425512
0.31886
0.0457988
0.321588
0.0489418
0.324602
0.0519672
0.327912
0.0548595
0.331527
0.0576014
0.335455
0.0601742
0.339699
0.0625585
0.344257
0.0647351
0.349123
0.0666854
0.354287
0.0683937
0.35973
0.0698442
0.36543
0.071023
0.371357
0.071924
0.377479
0.0725454
0.383761
0.0728878
0.390162
0.0729564
0.396641
0.0727604
0.403157
0.0723132
0.409667
0.0716299
0.0705528
0.416106
0.312082
0.00827244
0.312641
0.0125344
0.313421
0.016423
0.31442
0.0201427
0.315638
0.0237321
0.317079
0.0272099
0.318748
0.0305871
0.320653
0.0338693
0.322802
0.0370573
0.325205
0.0401478
0.32787
0.0431339
0.330806
0.0460061
0.334022
0.0487523
0.337524
0.0513585
0.341317
0.0538098
0.345401
0.0560903
0.349776
0.0581841
0.354435
0.0600758
0.359368
0.0617512
0.364562
0.0631998
0.369996
0.0644103
0.375646
0.0653728
0.381485
0.0660849
0.387481
0.0665482
0.393601
0.0667662
0.39981
0.0667457
0.406071
0.066497
0.412348
0.0660333
0.418606
0.065369
0.0643673
0.424789
0.319676
0.00785726
0.320312
0.011863
0.321192
0.0155139
0.322311
0.0190001
0.323668
0.0223568
0.325263
0.0256001
0.3271
0.0287391
0.329183
0.031778
0.331519
0.0347166
0.334111
0.0375513
0.336967
0.0402756
0.340091
0.0428805
0.343487
0.0453552
0.347157
0.0476875
0.351101
0.0498647
0.355316
0.0518737
0.359797
0.0537018
0.364534
0.0553371
0.369514
0.0567692
0.374721
0.0579915
0.380135
0.0589965
0.38573
0.059777
0.39148
0.0603339
0.397356
0.0606709
0.403327
0.0607933
0.409362
0.0607088
0.415428
0.060428
0.421495
0.0599634
0.427532
0.0593287
0.0584052
0.433491
0.327451
0.0073867
0.328163
0.0111119
0.32914
0.0145039
0.330375
0.0177379
0.331864
0.0208454
0.333606
0.0238403
0.335601