/*--------------------------------*- C++ -*----------------------------------*\
| =========                 |                                                 |
| \\      /  F ield         | OpenFOAM: The Open Source CFD Toolbox           |
|  \\    /   O peration     | Version:  dev                                   |
|   \\  /    A nd           | Web:      www.OpenFOAM.org                      |
|    \\/     M anipulation  |                                                 |
\*---------------------------------------------------------------------------*/
FoamFile
{
    version     2.0;
    format      ascii;
    class       surfaceScalarField;
    location    "3.1";
    object      phi;
}
// * * * * * * * * * * * * * * * * * * * * * * * * * * * * * * * * * * * * * //

dimensions      [0 3 -1 0 0 0 0];

internalField   nonuniform List<scalar> 
5457
(
0.198482
0.00189942
0.196651
0.00215969
0.194467
0.00245807
0.191895
0.00279435
0.188943
0.00312758
0.185628
0.00345292
0.181958
0.00377678
0.177926
0.00410726
0.173523
0.00444996
0.168736
0.00480806
0.16355
0.0051829
0.157949
0.00557694
0.151914
0.00599326
0.145422
0.00643337
0.138451
0.00689806
0.130979
0.00738709
0.122984
0.0078989
0.114448
0.00843014
0.105358
0.00897499
0.0957125
0.00952436
0.0855202
0.0100652
0.0748088
0.0105799
0.0636297
0.0110444
0.0520673
0.0114267
0.0402523
0.0116822
0.0283815
0.0117457
0.0167612
0.0115122
0.0059432
0.0107432
-0.00210685
0.00804037
-0.00218039
0.200212
0.0020696
0.199663
0.00303726
0.198642
0.00375311
0.19719
0.00446946
0.195313
0.00517984
0.193028
0.00587686
0.190342
0.00657052
0.187249
0.00727611
0.183742
0.00800443
0.17981
0.00876132
0.17544
0.00955092
0.170615
0.010379
0.165316
0.0112513
0.15952
0.0121713
0.153205
0.0131413
0.146347
0.0141618
0.138921
0.0152305
0.130906
0.0163421
0.122282
0.0174866
0.11304
0.0186476
0.103181
0.0198011
0.0927205
0.0209139
0.0816953
0.0219404
0.0701742
0.0228185
0.0582723
0.02346
0.0461747
0.0237287
0.0341878
0.0234019
0.0228587
0.0220109
0.0123872
0.0185205
0.0101541
0.200067
0.0023857
0.199588
0.00384341
0.198646
0.00497241
0.197299
0.00604192
0.195559
0.00709302
0.193449
0.0081264
0.190974
0.00915617
0.188127
0.0102019
0.184902
0.0112783
0.181293
0.0123933
0.177288
0.0135556
0.172871
0.014775
0.168024
0.0160583
0.162728
0.0174122
0.156959
0.0188414
0.150692
0.0203482
0.1439
0.0219318
0.136555
0.0235876
0.12863
0.025305
0.1201
0.0270646
0.110946
0.0288385
0.101159
0.0305853
0.090734
0.0322464
0.0796899
0.0337446
0.0680719
0.0349693
0.0559532
0.0357542
0.0434231
0.0358586
0.0304456
0.0349507
0.0162696
0.0327336
0.0263834
0.199981
0.00279189
0.199501
0.00464642
0.198579
0.00617276
0.197258
0.00759311
0.195551
0.00897372
0.193489
0.0103302
0.191075
0.0116837
0.188303
0.0130551
0.185172
0.0144613
0.181678
0.0159135
0.177811
0.0174247
0.17356
0.0190072
0.168912
0.0206698
0.163849
0.0224218
0.158355
0.0242707
0.152406
0.0262214
0.145978
0.0282758
0.13904
0.0304325
0.13156
0.0326846
0.123505
0.0350143
0.114843
0.0373952
0.10554
0.0397881
0.0955474
0.0421373
0.0848191
0.0443687
0.0733217
0.0463772
0.0609979
0.0480133
0.0477512
0.049069
0.033391
0.0493078
0.0174663
0.0487272
0.0438286
0.199939
0.00324314
0.199447
0.00545749
0.198543
0.00735599
0.19725
0.00911985
0.195579
0.0108227
0.193559
0.012495
0.191194
0.0141643
0.18848
0.0158524
0.185419
0.0175783
0.182004
0.0193583
0.178227
0.0212075
0.17408
0.0231393
0.169551
0.0251658
0.164625
0.0272986
0.159287
0.0295479
0.153518
0.0319215
0.147294
0.0344244
0.140581
0.0370603
0.133345
0.0398287
0.125546
0.0427195
0.117136
0.0457119
0.10807
0.0487746
0.0982682
0.0518635
0.0876265
0.0549271
0.0760461
0.0578883
0.063408
0.0606181
0.0495471
0.0629356
0.0343175
0.0645794
0.0176593
0.0654888
0.0614931
0.199919
0.00371544
0.199425
0.00627201
0.198541
0.0085191
0.197281
0.0106152
0.195655
0.0126332
0.193683
0.0146141
0.191374
0.0165903
0.188728
0.0185868
0.18574
0.0206254
0.182407
0.0227261
0.178719
0.0249058
0.174669
0.0271792
0.170248
0.0295616
0.165438
0.032067
0.160224
0.0347087
0.154587
0.0374983
0.148503
0.0404442
0.141931
0.0435573
0.134831
0.0468445
0.127163
0.0503061
0.118858
0.0539364
0.109846
0.0577195
0.100047
0.0616188
0.089331
0.0656003
0.0775459
0.0696352
0.0645568
0.073609
0.0502233
0.0773159
0.0344743
0.0804176
0.0175329
0.0825654
0.0790596
0.199909
0.00419568
0.199427
0.00708132
0.198569
0.00965817
0.197347
0.0120755
0.195769
0.0144
0.193854
0.0166788
0.191614
0.0189515
0.189047
0.0212479
0.186143
0.0235922
0.182899
0.0260058
0.179309
0.0285081
0.175367
0.0311163
0.171063
0.0338485
0.16638
0.0367217
0.161296
0.0397525
0.155786
0.0429584
0.149826
0.0463539
0.143368
0.0499542
0.136367
0.0537734
0.128776
0.0578282
0.120514
0.0621339
0.111484
0.066692
0.101592
0.0714869
0.0907118
0.0764829
0.0786781
0.0816818
0.0653452
0.086986
0.0506272
0.092122
0.034523
0.0966516
0.0174285
0.099816
0.0965427
0.19991
0.00467361
0.199452
0.00787863
0.19862
0.0107714
0.197434
0.0134956
0.195915
0.0161137
0.194071
0.0186792
0.191911
0.0212385
0.189433
0.0238258
0.186625
0.026466
0.183485
0.0291823
0.180009
0.0319968
0.176192
0.0349306
0.172022
0.0380055
0.167483
0.0412423
0.162547
0.0446615
0.157181
0.0482861
0.151352
0.0521405
0.14502
0.0562429
0.138131
0.0606151
0.130616
0.0652919
0.122393
0.0703133
0.113351
0.0757001
0.103372
0.0814578
0.0923183
0.0875703
0.0800335
0.0940298
0.0663856
0.100722
0.0513261
0.107308
0.0349008
0.113237
0.0175788
0.117303
0.114185
0.199929
0.00514277
0.199494
0.00866123
0.198685
0.0118546
0.197543
0.0148658
0.196095
0.0177635
0.194332
0.0206071
0.192262
0.0234437
0.189882
0.02631
0.187183
0.0292341
0.184165
0.032241
0.180823
0.035356
0.17715
0.0386051
0.173133
0.0420142
0.168755
0.0456082
0.163988
0.0494117
0.158794
0.0534537
0.153134
0.0577667
0.14697
0.0623803
0.140231
0.0673317
0.132835
0.0726608
0.124696
0.0784332
0.115693
0.0847005
0.105693
0.0914794
0.0945374
0.098788
0.0820646
0.106601
0.0681575
0.114754
0.0527755
0.122846
0.0359702
0.130221
0.0181946
0.135246
0.132443
0.199955
0.00560134
0.199541
0.00942427
0.198761
0.0128989
0.197678
0.0161789
0.196306
0.0193448
0.19463
0.0224565
0.192659
0.0255583
0.190388
0.0286904
0.18781
0.0318855
0.184928
0.0351702
0.18174
0.0385731
0.178233
0.042125
0.174391
0.0458567
0.170199
0.0497974
0.165629
0.0539753
0.160644
0.0584267
0.155201
0.0631918
0.149257
0.0683154
0.142736
0.0738516
0.135537
0.0798568
0.127566
0.0864108
0.118709
0.0935863
0.108811
0.101433
0.0976931
0.109998
0.0851758
0.119243
0.0711155
0.128969
0.0554313
0.138708
0.0381198
0.147721
0.0195286
0.154005
0.152032
0.199975
0.00604738
0.199589
0.0101592
0.198858
0.0138977
0.19784
0.0174322
0.196545
0.0208538
0.194961
0.0242198
0.193096
0.0275735
0.190941
0.0309582
0.188495
0.0344089
0.185767
0.037955
0.182751
0.0416315
0.17943
0.0454731
0.17579
0.0495129
0.171815
0.0537828
0.16748
0.0583181
0.162746
0.0631636
0.157573
0.0683682
0.151909
0.0739889
0.145688
0.0800925
0.138793
0.0867728
0.131122
0.0941129
0.122572
0.102193
0.112971
0.111119
0.102116
0.120971
0.0897863
0.131723
0.0757662
0.143164
0.059854
0.154811
0.0418864
0.16588
0.0219876
0.174069
0.174083
0.199994
0.00647755
0.199643
0.0108602
0.198972
0.0148476
0.198021
0.0186239
0.196804
0.022285
0.19532
0.0258889
0.193567
0.02948
0.191537
0.0331008
0.189241
0.0367881
0.186684
0.0405794
0.183851
0.0445146
0.180733
0.0486298
0.177321
0.0529574
0.1736
0.0575328
0.16954
0.0624027
0.165105
0.0676181
0.160258
0.0732361
0.154951
0.0793248
0.149118
0.0859673
0.14265
0.0932857
0.135455
0.101365
0.127429
0.110304
0.118393
0.120267
0.108123
0.131382
0.0963488
0.143667
0.0827309
0.156971
0.0668409
0.170898
0.0481731
0.184738
0.0264021
0.196002
0.200557
0.200013
0.00688848
0.199703
0.0115241
0.199098
0.0157459
0.198218
0.0197507
0.197083
0.0236331
0.195702
0.0274564
0.19407
0.0312665
0.192183
0.0351046
0.19005
0.0390123
0.18767
0.043033
0.185035
0.0472071
0.182143
0.0515707
0.17899
0.0561593
0.175555
0.061015
0.171806
0.0661907
0.167718
0.0717417
0.163259
0.0777329
0.158387
0.0842423
0.153036
0.0913732
0.14714
0.0992494
0.140629
0.107965
0.133382
0.117661
0.125242
0.12854
0.115995
0.140789
0.10533
0.154516
0.092778
0.169721
0.077599
0.186276
0.0586803
0.203845
0.034714
0.220124
0.235356
0.20003
0.00727774
0.199771
0.0121478
0.19923
0.0165892
0.19843
0.0208062
0.197387
0.0248929
0.196111
0.0289166
0.19461
0.0329249
0.19288
0.0369619
0.190917
0.0410729
0.188727
0.0453015
0.18631
0.0496888
0.183669
0.0542732
0.180796
0.0590948
0.177669
0.0642006
0.174267
0.0696444
0.170574
0.0754859
0.166565
0.081795
0.162211
0.0886562
0.157457
0.0961915
0.152284
0.10451
0.146648
0.113716
0.140448
0.123993
0.133581
0.135558
0.125887
0.148657
0.117098
0.163499
0.106726
0.180296
0.0938327
0.199367
0.0766368
0.221223
0.05184
0.245069
0.287304
0.20005
0.00764364
0.199841
0.0127301
0.199364
0.0173742
0.19865
0.0217847
0.197706
0.0260597
0.196542
0.0302651
0.195179
0.0344513
0.193608
0.0386685
0.191827
0.0429617
0.189841
0.0473741
0.187657
0.0519486
0.185276
0.0567264
0.182692
0.0617503
0.179893
0.0670684
0.176867
0.0727354
0.173604
0.0788129
0.170095
0.0853724
0.166322
0.0925027
0.162266
0.100329
0.157938
0.108943
0.153331
0.118453
0.14841
0.12906
0.143159
0.140973
0.137547
0.154453
0.131497
0.169748
0.124782
0.187213
0.116808
0.207534
0.106051
0.232152
0.0872103
0.264038
0.374666
0.00113861
-0.000994058
0.00381229
-0.0025468
0.00711978
-0.003067
0.0103215
-0.00291947
0.0130448
-0.00245724
0.0151533
-0.00188732
0.0166384
-0.00132459
0.0175765
-0.000842813
0.0180818
-0.000467906
0.0182665
-0.000196221
0.0182359
-2.56629e-05
0.0180808
5.72018e-05
0.017855
9.92663e-05
0.0175556
0.000153948
0.0171657
0.000223744
0.0167208
0.000257202
0.0162754
0.00023438
0.0157972
0.000244593
0.0151734
0.00036887
0.0143725
0.000523731
0.0134978
0.00057451
0.0127119
0.000462354
0.012161
0.000204375
0.0119086
-0.000124853
0.0119742
-0.000478859
0.0123993
-0.000865226
0.0131695
-0.00123055
0.0142291
-0.00154593
0.015537
-0.0018309
-0.00193995
0.00158009
-0.00244767
0.0042375
-0.00506165
0.00733124
-0.00592054
0.0103408
-0.00565888
0.0129824
-0.00484369
0.0151425
-0.00383291
0.016801
-0.00282844
0.0180149
-0.00196463
0.0188612
-0.0012757
0.0194018
-0.000743301
0.0197017
-0.000374968
0.0198385
-0.000170523
0.0198466
-2.67967e-05
0.0196938
0.000168816
0.0193711
0.000384897
0.0189625
0.000480362
0.0185645
0.000421441
0.0181043
0.000470971
0.0174157
0.000802977
0.0165062
0.00115658
0.0155275
0.00125295
0.0146495
0.0010166
0.0139652
0.00054431
0.0133575
0.000106252
0.0126246
-0.0001647
0.0118691
-0.000553098
0.0113526
-0.00117205
0.0112379
-0.00191422
0.0116045
-0.0027203
-0.00330712
0.0019623
-0.00430128
0.00445786
-0.00738862
0.0070373
-0.00826316
0.00941543
-0.00778835
0.0114552
-0.00664783
0.0131004
-0.00528154
0.0143407
-0.00393109
0.0152489
-0.00279039
0.0158842
-0.00187454
0.0162696
-0.00113279
0.0164417
-0.000593259
0.016509
-0.000320833
0.0164651
-9.02787e-05
0.0161713
0.000331155
0.0155865
0.000813038
0.0148638
0.00102271
0.0142077
0.000872695
0.0134578
0.000991585
0.0123085
0.0017001
0.0108136
0.0023766
0.00909122
0.00267617
0.00718128
0.00260215
0.00520866
0.00217698
0.00350996
0.00143745
0.00235822
0.000567489
0.00166774
-0.000313206
0.00136237
-0.00132311
0.00142753
-0.00245358
0.00166521
-0.00348011
-0.00428689
0.00221132
-0.00642963
0.00450398
-0.00949085
0.00651376
-0.0100471
0.00816908
-0.00921997
0.00948223
-0.0077489
0.010465
-0.0060975
0.0111256
-0.00448287
0.0115934
-0.00319105
0.0118785
-0.0021313
0.0119436
-0.00120806
0.0117407
-0.000443716
0.0114541
-0.000120689
0.0110247
0.000232975
0.0101223
0.00110364
0.00859856
0.00218554
0.00658905
0.00286098
0.00417314
0.00309548
0.0019118
0.0030331
0.0001851
0.00317961
-0.00122744
0.00351828
-0.00255045
0.00370306
-0.00376161
0.00348932
-0.00477785
0.00285383
-0.00557689
0.00188385
-0.00618567
0.000776437
-0.00662456
-0.000325934
-0.00696552
-0.00144431
-0.00732147
-0.00256669
-0.0077235
-0.003599
-0.00444216
0.00223266
-0.00861027
0.00416187
-0.0112233
0.00548522
-0.0111658
0.00631492
-0.00985284
0.00678873
-0.00803875
0.00700114
-0.00617491
0.00694216
-0.0043409
0.00682184
-0.0030182
0.00668412
-0.00197713
0.00601933
-0.000563705
0.00441479
0.00110097
0.00207276
0.00213081
-0.000257012
0.00245238
-0.00203132
0.00274625
-0.00343532
0.00343871
-0.00487919
0.00413766
-0.00640582
0.00443364
-0.00792415
0.00433496
-0.00922876
0.00424132
-0.0102814
0.00430421
-0.0111294
0.00425865
-0.0118414
0.0038801
-0.0124727
0.00314137
-0.0130723
0.00213243
-0.0136788
0.00100184
-0.0143132
-0.000134463
-0.0149577
-0.00127031
-0.0156136
-0.0023889
-0.0163091
-0.00342518
-0.00424023
0.00198808
-0.0105739
0.00326803
-0.0123146
0.00367038
-0.011391
0.00346795
-0.00948617
0.00288056
-0.00731162
0.0021243
-0.00531529
0.00124317
-0.00338804
-0.000617096
-0.00111826
-0.00336355
0.00077318
-0.00560922
0.00165232
-0.00704753
0.00247541
-0.00832417
0.00331463
-0.00975038
0.00376489
-0.0111737
0.00403496
-0.012392
0.0045003
-0.0134341
0.00500962
-0.014419
0.00523332
-0.0154474
0.00514884
-0.0164523
0.00500528
-0.0173134
0.00490222
-0.0180314
0.00468798
-0.0186858
0.00421652
-0.0193468
0.00345753
-0.0200383
0.00246951
-0.0207682
0.00135513
-0.0215448
0.000206234
-0.0223542
-0.000935504
-0.0231888
-0.00204454
-0.0240679
-0.00306982
-0.00382273
0.00138486
-0.0119495
0.00161458
-0.0123724
0.000720761
-0.010348
-0.000896243
-0.00774036
-0.00303205
-0.00508521
-0.00569853
-0.00258214
-0.00858299
-0.000450147
-0.0107643
0.00108377
-0.0121541
0.00215252
-0.013521
0.00298265
-0.0148164
0.00370067
-0.0159349
0.00433307
-0.0170186
0.00473133
-0.0181268
0.00500652
-0.019139
0.00535309
-0.0200032
0.00569982
-0.0208058
0.00585622
-0.0216568
0.00579646
-0.0225382
0.00565151
-0.023366
0.00547139
-0.0241317
0.00516955
-0.0248867
0.00465551
-0.0256716
0.00390043
-0.0264869
0.00293546
-0.0273384
0.00183226
-0.0282427
0.000677262
-0.0291966
-0.000456495
-0.0301837
-0.00155467
-0.0312132
-0.00256617
-0.003264
0.000251083
-0.0121943
-0.0011316
-0.0108384
-0.00374627
-0.00760967
-0.00696648
-0.00442255
-0.0102973
-0.00169429
-0.0131287
0.000285786
-0.0152059
0.0016492
-0.0168324
0.00270646
-0.0182681
0.00356094
-0.0195616
0.00423194
-0.0207332
0.00479911
-0.0217706
0.00526743
-0.0227479
0.00558973
-0.0237141
0.0058355
-0.0246194
0.00610018
-0.0254426
0.00634438
-0.0262367
0.00646415
-0.0270721
0.00643328
-0.027952
0.00630559
-0.0288278
0.00609955
-0.0296907
0.00576195
-0.0305762
0.00523348
-0.0315048
0.00449065
-0.0324652
0.00354778
-0.0334657
0.00245491
-0.0345148
0.00129436
-0.0355962
0.000153381
-0.0367131
-0.00094117
-0.037878
-0.00193037
-0.00258934
-0.0015067
-0.0106774
-0.00472968
-0.0074834
-0.0087121
-0.00352616
-0.0125015
-0.000562625
-0.0155433
0.00138595
-0.017913
0.00266918
-0.0199103
0.00364107
-0.0216286
0.00439854
-0.0231085
0.00499513
-0.0244057
0.00546714
-0.0255443
0.00586066
-0.0265548
0.00618178
-0.0275056
0.00642352
-0.0284326
0.00662629
-0.0293207
0.00683204
-0.0301703
0.00701556
-0.0310188
0.00711759
-0.031907
0.00711347
-0.032843
0.00701505
-0.0338034
0.00681856
-0.0347824
0.00648335
-0.0358072
0.0059648
-0.0368922
0.0052423
-0.0380206
0.00432104
-0.0391866
0.00323625
-0.0403839
0.00206244
-0.0415903
0.000892709
-0.0428368
-0.00020115
-0.0441337
-0.0011666
-0.00180574
-0.00349491
-0.00716941
-0.00831801
-0.00254448
-0.0128028
0.0010379
-0.0164102
0.00308973
-0.0193172
0.00430721
-0.0217914
0.00513422
-0.0238882
0.00571066
-0.0256606
0.00612693
-0.0271666
0.00643957
-0.0284736
0.00669198
-0.0296158
0.00691427
-0.0306365
0.00710777
-0.031601
0.00727228
-0.032538
0.00742842
-0.0334511
0.00759111
-0.034351
0.00774145
-0.0352679
0.00784076
-0.0362304
0.00786376
-0.0372494
0.0078018
-0.0383169
0.00763768
-0.0394312
0.00733408
-0.0406099
0.00685131
-0.0418615
0.00616472
-0.0431694
0.00527047
-0.0445147
0.00419436
-0.0458818
0.00300427
-0.0472502
0.00179836
-0.0486207
0.000667566
-0.0500226
-0.000296389
-0.000912841
-0.00557357
-0.00158284
-0.0112244
0.00320593
-0.0158013
0.0056706
-0.0195628
0.00687136
-0.0226807
0.0074163
-0.0252504
0.00767406
-0.0273829
0.0077987
-0.0291639
0.00785066
-0.0306678
0.00787212
-0.0319688
0.00790422
-0.0331186
0.00796736
-0.0341647
0.00805202
-0.0351573
0.00814761
-0.0361217
0.00825862
-0.0370711
0.00838861
-0.0380237
0.00852362
-0.0390073
0.00863492
-0.0400475
0.00869534
-0.0411595
0.00868347
-0.0423463
0.00857329
-0.0436115
0.00832784
-0.0449638
0.00790661
-0.0464028
0.00727624
-0.0479092
0.00642011
-0.0494546
0.00535287
-0.0510093
0.0041365
-0.0525464
0.00287669
-0.0540632
0.00168971
-0.0555847
0.000698363
9.57423e-05
-0.00720408
0.00563062
-0.0134714
0.009551
-0.0186213
0.0108495
-0.0226923
0.0109384
-0.0258759
0.0105712
-0.0284175
0.0101697
-0.0305031
0.00982722
-0.0322383
0.00951967
-0.0337004
0.00925749
-0.0349689
0.00908423
-0.0361115
0.00901204
-0.0371753
0.00900946
-0.0381923
0.00904594
-0.0391822
0.00911492
-0.0401634
0.00921988
-0.0411615
0.00935404
-0.0422066
0.00949392
-0.0433257
0.00960902
-0.0445375
0.009669
-0.0458527
0.00964066
-0.0472786
0.00948329
-0.0488193
0.00915071
-0.0504671
0.00859831
-0.0521968
0.00779471
-0.0539706
0.00674077
-0.0557456
0.00549134
-0.0574858
0.00416124
-0.0591849
0.0028982
-0.0608726
0.00186145
0.00126431
-0.0085959
0.0142264
-0.0160802
0.017081
-0.0218007
0.0165696
-0.0259597
0.0150724
-0.0289702
0.0135385
-0.0313087
0.0124517
-0.0332501
0.0117039
-0.0348779
0.0110763
-0.0362446
0.0105448
-0.0374388
0.0101899
-0.0385458
0.0100212
-0.0396068
0.00996289
-0.040633
0.0099531
-0.0416332
0.0099823
-0.0426291
0.0100674
-0.0436551
0.0102146
-0.044748
0.0104032
-0.0459382
0.0105963
-0.0472481
0.0107553
-0.0486934
0.0108406
-0.0502847
0.0108056
-0.052024
0.0105948
-0.0538989
0.0101494
-0.0558776
0.00941992
-0.0579101
0.00838875
-0.0599361
0.00709921
-0.0619013
0.00567339
-0.0637851
0.00429389
-0.0656216
0.00317429
0.00256203
-0.0107811
0.0249802
-0.0195018
0.0258099
-0.025645
0.022687
-0.0295347
0.0189228
-0.0319528
0.0159055
-0.0338167
0.014255
-0.035512
0.0133317
-0.0369711
0.0124625
-0.038164
0.0116578
-0.0392086
0.0111466
-0.0402333
0.0109488
-0.0412622
0.0108848
-0.0422698
0.0108422
-0.0432457
0.0108263
-0.0442152
0.01089
-0.0452268
0.0110626
-0.0463277
0.0113225
-0.0475523
0.01162
-0.0489256
0.0119072
-0.0504679
0.0121394
-0.0521933
0.0122634
-0.0541044
0.0122123
-0.0561859
0.011909
-0.0583989
0.0112813
-0.0606802
0.0102872
-0.0629491
0.00895201
-0.0651291
0.00740255
-0.0671823
0.00586095
-0.0691386
0.00460781
0.00396062
-0.0138299
0.0387155
-0.0243193
0.0362995
-0.03073
0.0290664
-0.0337466
0.0218969
-0.0347365
0.0168436
-0.0356495
0.0151082
-0.0370653
0.0146813
-0.0383236
0.0136487
-0.0392187
0.0124739
-0.0399757
0.0118167
-0.0408486
0.0117258
-0.0418108
0.011741
-0.0427577
0.0116715
-0.0436471
0.011585
-0.0445143
0.0116116
-0.0454328
0.0118191
-0.0464648
0.0121748
-0.0476458
0.0126021
-0.0490012
0.013043
-0.0505564
0.0134526
-0.0523324
0.0137735
-0.0543373
0.0139251
-0.0565571
0.0138087
-0.05895
0.0133244
-0.0614429
0.0123989
-0.063936
0.011031
-0.0663276
0.00934545
-0.068558
0.00760701
-0.0706335
0.00616164
0.00546497
0.207744
0.00799438
0.207581
0.013285
0.207163
0.0181189
0.206517
0.0227113
0.205652
0.0271623
0.20458
0.0315358
0.20332
0.0358862
0.20187
0.0402669
0.200231
0.0447238
0.198408
0.0493007
0.19641
0.0540395
0.19424
0.0589833
0.191899
0.0641761
0.189383
0.0696661
0.186692
0.0755072
0.183827
0.0817602
0.180791
0.0884947
0.177587
0.0958016
0.174242
0.103781
0.170804
0.112507
0.167305
0.122098
0.163805
0.132724
0.160409
0.144549
0.157288
0.157769
0.154695
0.172549
0.152983
0.189131
0.152771
0.207939
0.15556
0.229532
0.168034
0.251693
0.26926
0.273546
0.212806
0.00832434
0.212696
0.0138003
0.21235
0.0188069
0.211789
0.0235656
0.211026
0.0281746
0.210075
0.0326996
0.20895
0.0371963
0.207657
0.0417193
0.2062
0.0463178
0.204586
0.0510336
0.202825
0.0559079
0.200925
0.0609837
0.198894
0.0663047
0.196738
0.0719176
0.194467
0.0778736
0.192096
0.0842293
0.189644
0.0910492
0.187145
0.0984134
0.184664
0.106387
0.182278
0.115034
0.180074
0.124461
0.178203
0.13477
0.176889
0.146051
0.176479
0.158379
0.177479
0.171755
0.180687
0.186123
0.187597
0.201214
0.201022
0.216267
0.222668
0.230173
0.246561
0.24545
0.217994
0.00862941
0.217944
0.0142705
0.217679
0.0194305
0.217216
0.0243363
0.21657
0.0290844
0.215754
0.0337417
0.214783
0.0383646
0.213666
0.0430086
0.212412
0.0477227
0.211031
0.052548
0.209536
0.0575249
0.207941
0.0626945
0.206259
0.0680983
0.204506
0.0737797
0.202705
0.0797848
0.200885
0.0861629
0.199086
0.0929677
0.19737
0.100257
0.195822
0.108076
0.194539
0.116471
0.193665
0.125504
0.193404
0.135212
0.19404
0.145607
0.195965
0.156652
0.199686
0.168232
0.205877
0.180121
0.215325
0.191937
0.228605
0.203132
0.24503
0.213861
0.223998
0.267662
0.223311
0.00890578
0.223329
0.0146898
0.223152
0.019982
0.222797
0.0250136
0.22228
0.0298795
0.221615
0.0346475
0.220816
0.0393748
0.219895
0.0441154
0.218865
0.048917
0.217741
0.0538205
0.216539
0.0588644
0.215276
0.0640866
0.213975
0.069525
0.21266
0.075218
0.211365
0.0812045
0.210133
0.0875237
0.209019
0.0942151
0.208104
0.101315
0.207483
0.10885
0.207276
0.116842
0.20765
0.125305
0.208821
0.134225
0.211066
0.143551
0.214717
0.153193
0.220162
0.162974
0.22784
0.172618
0.238125
0.181808
0.251287
0.190101
0.268003
0.197245
0.201952
0.290112
0.228759
0.00914979
0.228851
0.0150526
0.22877
0.0204539
0.228533
0.0255883
0.228157
0.0305492
0.227655
0.0354046
0.227044
0.0402115
0.226337
0.045022
0.225551
0.049882
0.224704
0.0548309
0.223815
0.0599045
0.222909
0.065137
0.222012
0.0705613
0.221158
0.0762094
0.220389
0.0821117
0.219758
0.0882963
0.219332
0.0947875
0.219197
0.101603
0.219459
0.10875
0.220249
0.116223
0.221729
0.124002
0.2241
0.132038
0.227592
0.140244
0.232471
0.148496
0.239035
0.156587
0.247565
0.164249
0.258295
0.17122
0.271407
0.177108
0.287166
0.181578
0.183778
0.3054
0.234341
0.00935793
0.234513
0.0153535
0.234536
0.0208393
0.234426
0.0260521
0.2342
0.0310838
0.233873
0.0360015
0.233463
0.0408617
0.232985
0.0457141
0.232458
0.0506021
0.231904
0.0555626
0.231346
0.0606283
0.230812
0.0658289
0.230334
0.0711917
0.229952
0.0767414
0.229715
0.0824994
0.229682
0.0884824
0.229925
0.0947007
0.230535
0.101156
0.231615
0.107837
0.233294
0.114718
0.235716
0.121758
0.23905
0.128883
0.243491
0.135982
0.249251
0.142911
0.256522
0.149479
0.265449
0.155471
0.276135
0.160665
0.288578
0.164774
0.302693
0.167549
0.168283
0.318248
0.240061
0.00952692
0.240318
0.0155874
0.240451
0.0211319
0.240476
0.0263975
0.24041
0.0314744
0.240268
0.0364284
0.24007
0.0413144
0.239833
0.0461796
0.239579
0.0510643
0.23933
0.0560026
0.239114
0.0610234
0.238962
0.0661516
0.238911
0.0714082
0.239004
0.0768107
0.239293
0.0823721
0.23984
0.0880976
0.24072
0.0939856
0.242019
0.100025
0.243834
0.106194
0.246276
0.112451
0.249479
0.118732
0.253586
0.124952
0.258742
0.130997
0.265085
0.136732
0.272714
0.142004
0.281689
0.146636
0.292027
0.150449
0.303652
0.15325
0.316431
0.154853
0.154611
0.330159
0.245921
0.0096537
0.246269
0.0157498
0.246518
0.0213258
0.246684
0.0266178
0.246785
0.0317135
0.246838
0.0366768
0.246861
0.0415605
0.246875
0.046409
0.246902
0.0512593
0.246967
0.056142
0.247101
0.0610822
0.247335
0.0661002
0.24771
0.0712102
0.248271
0.0764228
0.24907
0.0817445
0.250169
0.0871689
0.251639
0.0926871
0.253557
0.0982809
0.256014
0.103911
0.259113
0.109526
0.262962
0.115056
0.267668
0.120416
0.273322
0.125507
0.28
0.13021
0.287752
0.134396
0.296589
0.137928
0.306481
0.14067
0.317335
0.142493
0.329001
0.143265
0.142436
0.341233
0.251924
0.00973549
0.252366
0.0158368
0.252736
0.0214162
0.253051
0.0267073
0.253326
0.0317946
0.253579
0.0367397
0.253831
0.0415929
0.254102
0.0463954
0.254416
0.0511809
0.2548
0.055976
0.255285
0.0608025
0.255903
0.0656764
0.256697
0.070604
0.25771
0.0755922
0.258992
0.0806426
0.260603
0.0857355
0.26261
0.0908568
0.265084
0.0959829
0.268106
0.101064
0.27176
0.106046
0.276121
0.110866
0.281258
0.115445
0.287229
0.119693
0.294076
0.123512
0.301811
0.126797
0.310415
0.129446
0.319831
0.131362
0.329957
0.132457
0.340642
0.132656
0.13149
0.351644
0.258073
0.00976983
0.258613
0.0158449
0.259109
0.0213991
0.259575
0.0266613
0.260029
0.0317128
0.260489
0.0366123
0.260973
0.0414071
0.261505
0.0461352
0.262108
0.0508267
0.262811
0.0555039
0.263643
0.0601873
0.264636
0.0648893
0.265831
0.0696064
0.267273
0.0743417
0.269011
0.0790918
0.271098
0.0838317
0.273595
0.0885414
0.276564
0.0931914
0.280068
0.0977352
0.284164
0.102121
0.288908
0.106288
0.294346
0.110167
0.30051
0.113681
0.307412
0.116751
0.315041
0.119297
0.323359
0.121244
0.332297
0.122526
0.341751
0.123091
0.351586
0.122895
0.121545
0.361587
0.26437
0.00975477
0.265011
0.0157717
0.265635
0.0212713
0.266257
0.0264768
0.266893
0.0314651
0.267561
0.0362917
0.268281
0.041001
0.269074
0.0456276
0.269964
0.0501983
0.270979
0.0547321
0.272148
0.0592464
0.273506
0.0637484
0.275088
0.0682308
0.276938
0.0726914
0.279102
0.0771207
0.281626
0.0814963
0.284557
0.0857941
0.287947
0.0899811
0.291842
0.0940147
0.296287
0.0978464
0.301316
0.101422
0.306956
0.104681
0.313219
0.107564
0.320099
0.110007
0.327568
0.111951
0.335578
0.113345
0.344056
0.114146
0.352906
0.114325
0.36201
0.113862
0.112423
0.371187
0.27082
0.00968884
0.271562
0.0156152
0.272317
0.021031
0.273096
0.0261517
0.273916
0.0310498
0.274793
0.0357771
0.275747
0.0403748
0.276799
0.0448744
0.277973
0.0492997
0.279293
0.0536673
0.28079
0.0579886
0.282498
0.0622661
0.28445
0.0664945
0.286681
0.0706669
0.289232
0.0747693
0.29214
0.0787804
0.295447
0.0826741
0.29919
0.0864183
0.303404
0.0899743
0.308119
0.0932988
0.313355
0.0963454
0.319122
0.0990652
0.325417
0.10141
0.332221
0.103333
0.339499
0.104792
0.347198
0.105753
0.355248
0.106191
0.363562
0.106092
0.37204
0.105454
0.103989
0.380528
0.277425
0.00957071
0.27827
0.0153744
0.279156
0.0206769
0.280094
0.0256852
0.281097
0.0304665
0.282183
0.0350691
0.283369
0.0395307
0.284676
0.0438798
0.286126
0.0481372
0.287744
0.0523164
0.289557
0.0564251
0.291595
0.0604635
0.293887
0.0644259
0.296465
0.0683021
0.299361
0.0720769
0.302608
0.0757293
0.306237
0.0792341
0.310275
0.0825612
0.314746
0.0856767
0.319667
0.0885435
0.325045
0.0911232
0.330881
0.093377
0.33716
0.0952681
0.343856
0.096763
0.350929
0.0978332
0.358328
0.0984579
0.365985
0.0986246
0.373826
0.0983312
0.381766
0.0975832
0.096134
0.389675
0.284188
0.0093993
0.285136
0.0150484
0.286154
0.0202088
0.287249
0.0250775
0.288435
0.0297165
0.289727
0.0341702
0.291141
0.0384729
0.292696
0.0426502
0.294413
0.0467198
0.296314
0.0506929
0.298424
0.0545744
0.300769
0.0583628
0.303374
0.0620515
0.306266
0.0656295
0.30947
0.0690811
0.313012
0.0723865
0.316915
0.0755223
0.321196
0.0784619
0.325869
0.0811761
0.330942
0.0836342
0.336414
0.0858056
0.342275
0.0876606
0.348504
0.0891722
0.355073
0.0903173
0.36194
0.0910783
0.369054
0.0914441
0.376357
0.0914112
0.383782
0.0909843
0.391258
0.0901744
0.0887677
0.398678
0.291113
0.00917413
0.292163
0.0146375
0.293311
0.0196277
0.294562
0.0243306
0.295927
0.0288028
0.29742
0.0330849
0.299055
0.0372078
0.300849
0.0411941
0.302822
0.0450592
0.304991
0.0488119
0.307379
0.0524551
0.310008
0.0559866
0.312898
0.059399
0.316071
0.0626812
0.319547
0.0658185
0.323343
0.0687925
0.327475
0.0715825
0.331954
0.0741657
0.336784
0.0765179
0.341966
0.0786145
0.347493
0.0804318
0.353347
0.081948
0.359507
0.0831442
0.365939
0.0840058
0.372603
0.084523
0.379454
0.0846919
0.386438
0.0845148
0.393498
0.0840009
0.400576
0.0831639
0.0818177
0.407579
0.298203
0.00889517
0.299354
0.0141426
0.300629
0.0189355
0.302033
0.0234475
0.303573
0.0277298
0.30526
0.0318191
0.307108
0.0357432
0.309131
0.039522
0.311345
0.0431684
0.313766
0.0466896
0.316412
0.0500872
0.319301
0.0533581
0.322449
0.0564954
0.325872
0.0594882
0.329585
0.0623231
0.333599
0.0649841
0.337922
0.0674533
0.342559
0.0697118
0.34751
0.07174
0.352767
0.0735192
0.358318
0.0750316
0.364145
0.0762619
0.37022
0.0771979
0.376514
0.0778313
0.382986
0.0781582
0.389595
0.0781796
0.396295
0.0779017
0.403036
0.077336
0.409769
0.0764972
0.0752231
0.416417
0.305461
0.00856278
0.306711
0.0135654
0.308111
0.0181348
0.309662
0.0224321
0.311371
0.0265029
0.313246
0.0303802
0.315297
0.0340885
0.317537
0.0376452
0.319978
0.0410615
0.322634
0.0443429
0.325518
0.0474904
0.328644
0.0505005
0.332023
0.0533667
0.335668
0.0560792
0.339586
0.0586262
0.343785
0.0609941
0.348266
0.063168
0.35303
0.0651327
0.35807
0.0668732
0.363375
0.0683754
0.36893
0.0696269
0.374714
0.0706175
0.3807
0.0713403
0.386857
0.0717917
0.39315
0.0719719
0.39954
0.0718853
0.405987
0.0715404
0.412449
0.0709497
0.418885
0.0701278
0.0689333
0.425228
0.312892
0.00817762
0.314238
0.0129078
0.315758
0.0172291
0.317452
0.0212892
0.319323
0.0251285
0.321377
0.0287761
0.323621
0.0322536
0.326066
0.0355762
0.328719
0.0387532
0.331592
0.0417892
0.334694
0.0446844
0.338034
0.0474359
0.341621
0.0500374
0.345461
0.0524806
0.349557
0.0547555
0.353913
0.0568508
0.358525
0.0587547
0.363388
0.0604554
0.368493
0.0619417
0.373827
0.0632036
0.379372
0.064233
0.385104
0.065024
0.390999
0.0655734
0.397027
0.0658811
0.403155
0.0659503
0.409348
0.0657874
0.415572
0.065402
0.421791
0.0648067
0.427969
0.0640158
0.0629058
0.434051
0.3205
0.00774061
0.321938
0.0121724
0.323574
0.0162222
0.325405
0.0200242
0.32743
0.0236136
0.329654
0.0270156
0.332081
0.0302492
0.334717
0.0333273
0.337568
0.0362581
0.340641
0.039045
0.343942
0.0416882
0.347477
0.0441849
0.351249
0.0465298
0.35526
0.048716
0.359511
0.0507351
0.363999
0.0525783
0.368719
0.0542365
0.373661
0.055701
0.378815
0.0569637
0.384163
0.0580182
0.389688
0.0588596
0.395366
0.0594854
0.401173
0.059895
0.40708
0.060091
0.413058
0.0600782
0.419077
0.0598643
0.425106
0.0594592
0.431113
0.0588752
0.43707
0.0581258
0.0571034
0.442928
0.328287
0.00725283
0.329815
0.0113618
0.331562
0.0151183
0.333524
0.0186429
0.335697
0.0219654
0.338082
0.0251076
0.34068
0.0280859
0.343495
0.0309112
0.346529
0.0335904
0.349787
0.0361264
0.353269
0.0385192
0.356979
0.0407664
0.360916
0.0428637
0.365079
0.0448055
0.369464
0.0465853
0.374066
0.0481963
0.378876
0.0496318
0.383883
0.0508855
0.389072
0.0519523
0.394426
0.0528285
0.399927
0.0535116
0.405551
0.0540015
0.411276
0.0542998
0.417074