/*--------------------------------*- C++ -*----------------------------------*\
| =========                 |                                                 |
| \\      /  F ield         | OpenFOAM: The Open Source CFD Toolbox           |
|  \\    /   O peration     | Version:  dev                                   |
|   \\  /    A nd           | Web:      www.OpenFOAM.org                      |
|    \\/     M anipulation  |                                                 |
\*---------------------------------------------------------------------------*/
FoamFile
{
    version     2.0;
    format      ascii;
    class       volVectorField;
    location    "1.9";
    object      U;
}
// * * * * * * * * * * * * * * * * * * * * * * * * * * * * * * * * * * * * * //

dimensions      [0 1 -1 0 0 0 0];

internalField   nonuniform List<vector> 
2790
(
(9.93537 0 0.0178875)
(9.8691 2.34262e-21 0.0241352)
(9.78076 -2.45002e-21 0.0278672)
(9.67705 0 0.0316742)
(9.56373 0 0.0355583)
(9.44203 2.26375e-20 0.0394723)
(9.31137 2.37595e-20 0.0435415)
(9.17094 0 0.047899)
(9.02016 0 0.0526454)
(8.85848 0 0.0578793)
(8.68501 0 0.0637161)
(8.49865 -7.6162e-21 0.0702866)
(8.29815 0 0.0777372)
(8.08207 -4.22491e-21 0.0862363)
(7.84875 5.56846e-22 0.0959799)
(7.59629 -4.70021e-21 0.107199)
(7.32259 9.92414e-21 0.120166)
(7.02524 0 0.135201)
(6.70161 0 0.152679)
(6.34876 -9.48178e-20 0.173034)
(5.96357 4.84502e-20 0.196769)
(5.54263 2.11555e-19 0.224464)
(5.08239 -2.17921e-19 0.256787)
(4.57921 0 0.294554)
(4.02943 0 0.338803)
(3.4292 -5.13046e-19 0.390873)
(2.77449 3.89998e-19 0.452664)
(2.06073 -2.69087e-19 0.52716)
(1.26702 -2.68611e-19 0.621629)
(0.618997 0 0.685494)
(10.0013 -7.18678e-20 0.0342049)
(9.99676 0 0.0474659)
(9.97159 9.80482e-21 0.055932)
(9.92895 -2.05211e-20 0.0650662)
(9.87362 3.21299e-20 0.0748547)
(9.80703 -8.68326e-23 0.0851081)
(9.72891 -7.0951e-20 0.0960674)
(9.63866 0 0.108022)
(9.53586 -2.60343e-20 0.1212)
(9.42003 2.73372e-20 0.135843)
(9.29041 5.79215e-20 0.152236)
(9.146 -5.2454e-20 0.170704)
(8.98567 0 0.191611)
(8.80807 4.18612e-21 0.215377)
(8.61164 -1.42951e-19 0.242494)
(8.39457 3.02094e-19 0.273528)
(8.15479 -1.65045e-19 0.309138)
(7.88994 -4.12557e-20 0.35008)
(7.59734 4.35204e-20 0.397206)
(7.27398 -4.18491e-19 0.451469)
(6.91652 4.32767e-19 0.513914)
(6.52118 0 0.585655)
(6.08372 0 0.667839)
(5.59938 0 0.761671)
(5.06265 0 0.868523)
(4.46658 0 0.99008)
(3.80144 1.27656e-19 1.12878)
(3.05229 -1.32075e-18 1.28972)
(2.16654 1.80698e-18 1.49292)
(1.29673 -5.66714e-18 1.80406)
(9.99875 7.63094e-20 0.0329482)
(9.99188 -1.40049e-20 0.0514048)
(9.96937 9.76116e-21 0.0655135)
(9.93169 2.05385e-20 0.0805132)
(9.88232 -6.43518e-20 0.0966567)
(9.82274 0 0.113785)
(9.75284 6.11291e-23 0.132198)
(9.6721 -4.94547e-20 0.152285)
(9.58014 2.59825e-20 0.174392)
(9.47658 -1.37033e-19 0.198912)
(9.36079 1.13741e-19 0.22631)
(9.23192 0 0.257105)
(9.089 -1.11741e-19 0.291892)
(8.9309 1.31933e-19 0.331365)
(8.75627 0 0.376335)
(8.56358 -2.97672e-19 0.427749)
(8.35105 3.07485e-19 0.486715)
(8.11664 3.30737e-19 0.554517)
(7.85799 -3.84136e-19 0.632629)
(7.57239 8.69682e-19 0.722723)
(7.25673 -7.55602e-19 0.826696)
(6.90733 0 0.94667)
(6.51972 0 1.08499)
(6.08849 2.00281e-18 1.24425)
(5.60677 -2.04893e-18 1.42757)
(5.06511 4.72495e-19 1.63924)
(4.44942 4.84802e-19 1.88621)
(3.73794 -4.01514e-18 2.1827)
(2.90032 4.6838e-19 2.54289)
(1.84759 5.97266e-18 3.18131)
(9.99693 0 0.0338836)
(9.98744 1.39509e-19 0.0592457)
(9.96462 2.92765e-20 0.080509)
(9.92793 -2.03878e-20 0.101847)
(9.87982 8.55655e-20 0.124154)
(9.82174 8.96751e-20 0.14763)
(9.75377 -1.93924e-22 0.172717)
(9.67553 4.91871e-20 0.199922)
(9.58669 -5.166e-20 0.229723)
(9.48697 0 0.262669)
(9.3759 1.14719e-19 0.299386)
(9.25283 -1.18769e-19 0.340568)
(9.117 -1.57272e-20 0.387018)
(8.96752 -2.66339e-19 0.439663)
(8.80335 3.79163e-21 0.499583)
(8.62333 2.8935e-19 0.568045)
(8.4261 0 0.646543)
(8.21013 4.04845e-20 0.736842)
(7.97364 0 0.841003)
(7.71457 -8.95685e-20 0.961417)
(7.4305 -7.57496e-19 1.10088)
(7.1185 6.15316e-19 1.26267)
(6.77482 -1.70185e-19 1.45065)
(6.3946 -1.91194e-18 1.66942)
(5.97138 2.23963e-19 1.92485)
(5.49615 -4.62102e-19 2.22499)
(4.9562 -4.71621e-19 2.5818)
(4.32437 -4.74285e-19 3.02262)
(3.66422 -2.23345e-19 3.50716)
(2.45998 -5.18177e-19 4.50341)
(9.99609 1.42537e-19 0.0363992)
(9.9848 -1.30075e-19 0.0673548)
(9.96146 6.01289e-23 0.0945613)
(9.92543 1.42465e-19 0.121318)
(9.87838 -8.5436e-20 0.14906)
(9.82155 -8.95212e-20 0.178347)
(9.75513 -9.41656e-20 0.209722)
(9.67891 1.4692e-19 0.243756)
(9.59252 1.54317e-19 0.28103)
(9.4957 1.08624e-19 0.322196)
(9.38814 1.15473e-19 0.367983)
(9.26933 6.26137e-20 0.419221)
(9.13865 3.48493e-20 0.476874)
(8.99541 -2.59676e-19 0.542048)
(8.83883 2.68573e-19 0.616023)
(8.66803 -8.68543e-19 0.700304)
(8.48206 6.00766e-19 0.796675)
(8.27986 3.95874e-20 0.907263)
(8.06022 6.74288e-19 1.03459)
(7.82177 -6.93418e-19 1.18165)
(7.56291 -1.81993e-19 1.35198)
(7.28177 1.92737e-19 1.54988)
(6.97586 2.00974e-19 1.78065)
(6.64192 0 2.05085)
(6.27547 0 2.36891)
(5.87041 0 2.74643)
(5.42114 -3.52512e-18 3.19757)
(4.88522 3.46922e-18 3.76674)
(4.48191 2.13441e-19 4.29765)
(3.1491 0 5.61336)
(9.99569 -4.3533e-19 0.0397005)
(9.98335 1.57125e-19 0.0756005)
(9.95972 3.88382e-20 0.108325)
(9.92442 -2.03062e-19 0.140484)
(9.87861 1.69878e-19 0.17375)
(9.82326 1.78382e-19 0.208906)
(9.75866 -1.86636e-19 0.246547)
(9.68469 2.93032e-19 0.287299)
(9.60101 -3.07268e-19 0.331849)
(9.50741 -2.14408e-21 0.380934)
(9.40369 2.23388e-19 0.435367)
(9.2894 -5.90146e-20 0.496102)
(9.16406 -9.25076e-20 0.564256)
(9.02716 0 0.641082)
(8.87809 0 0.728024)
(8.71625 0 0.826784)
(8.54102 6.1153e-19 0.939378)
(8.35173 -1.29048e-18 1.06821)
(8.14771 7.30426e-19 1.21614)
(7.92824 0 1.38663)
(7.69252 -1.26141e-18 1.58384)
(7.43975 0 1.81287)
(7.16893 -1.90752e-19 2.08011)
(6.87885 -3.20064e-18 2.39368)
(6.56801 3.23598e-18 2.76388)
(6.23388 0 3.20457)
(5.88265 -3.27344e-18 3.72765)
(5.44096 3.19875e-18 4.4033)
(5.31997 -6.10682e-18 4.9057)
(3.88025 6.78946e-18 6.47071)
(9.99536 7.06852e-22 0.043408)
(9.98269 -1.29201e-19 0.0839497)
(9.95918 -5.79746e-20 0.121845)
(9.92472 8.09035e-20 0.159217)
(9.88029 -1.26818e-19 0.197815)
(9.82669 -8.81211e-20 0.238584)
(9.76422 -9.24383e-20 0.282183)
(9.69282 -9.72827e-20 0.329307)
(9.61221 1.01465e-19 0.380749)
(9.52233 1.07505e-19 0.437328)
(9.42299 -2.21589e-19 0.499934)
(9.31379 2.34964e-19 0.569639)
(9.1944 -1.81488e-19 0.647675)
(9.06446 0 0.735406)
(8.92357 0 0.834401)
(8.77136 0 0.946504)
(8.60747 -9.20851e-21 1.0739)
(8.43162 0 1.21922)
(8.24358 -1.37153e-18 1.38557)
(8.04324 1.32407e-18 1.57675)
(7.83058 -8.59727e-20 1.79735)
(7.60587 0 2.05305)
(7.36961 3.7072e-19 2.35093)
(7.12263 0 2.70006)
(6.86666 -3.09162e-18 3.11174)
(6.60226 6.08047e-18 3.60109)
(6.35041 -3.04692e-18 4.17275)
(5.99299 0 4.93355)
(6.14245 1.64331e-18 5.35655)
(4.61566 2.89403e-19 7.09725)
(9.9951 2.82526e-19 0.0473202)
(9.9825 0 0.0922721)
(9.95944 -3.07133e-19 0.135023)
(9.92597 4.03582e-20 0.177384)
(9.88311 -1.26551e-19 0.221099)
(9.83154 8.78853e-20 0.267234)
(9.7716 -2.76756e-19 0.316531)
(9.70314 9.6079e-20 0.36975)
(9.62598 -1.01114e-19 0.427747)
(9.54022 0 0.491408)
(9.44569 1.10077e-19 0.561711)
(9.3421 0 0.639828)
(9.22926 -4.86208e-19 0.72707)
(9.10696 5.01569e-19 0.824882)
(8.97499 0 0.934937)
(8.8332 0 1.0592)
(8.68151 0 1.19997)
(8.51994 1.20867e-18 1.36003)
(8.34871 -1.23993e-18 1.54267)
(8.16823 -1.2659e-18 1.75188)
(7.97927 1.46068e-18 1.99252)
(7.78307 -1.39267e-18 2.27059)
(7.58155 4.08689e-18 2.59358)
(7.37745 -2.88113e-18 2.97091)
(7.17539 0 3.41398)
(6.97786 2.95688e-18 3.9388)
(6.8226 -5.55821e-18 4.53855)
(6.53766 2.64751e-18 5.36561)
(6.92441 -1.23499e-18 5.68631)
(5.32856 -5.28043e-18 7.53799)
(9.99499 0 0.0513034)
(9.98265 2.91929e-19 0.100469)
(9.96024 3.06534e-19 0.147788)
(9.92797 2.39551e-19 0.194902)
(9.88685 8.35837e-20 0.243502)
(9.83754 0 0.294744)
(9.78032 1.83567e-19 0.349452)
(9.71509 0 0.408443)
(9.64177 0 0.472613)
(9.56058 -2.10263e-19 0.542906)
(9.47133 -1.11945e-19 0.620392)
(9.3738 7.99796e-19 0.706309)
(9.26804 -4.73782e-19 0.802021)
(9.15398 0 0.909039)
(9.03158 5.86965e-19 1.02912)
(8.90092 -6.04672e-19 1.1643)
(8.76218 0 1.317)
(8.61571 3.63465e-20 1.49003)
(8.4621 1.26041e-18 1.6868)
(8.30233 -5.57504e-21 1.91139)
(8.1378 -1.33032e-18 2.16878)
(7.97066 2.05394e-20 2.4651)
(7.80403 4.17918e-20 2.80794)
(7.64235 8.42263e-20 3.20668)
(7.49279 -1.67489e-19 3.67219)
(7.35793 0 4.22153)
(7.29362 -6.21241e-19 4.83348)
(7.0713 0 5.71058)
(7.65353 2.02684e-18 5.93096)
(6.00412 -5.31559e-18 7.84203)
(9.99498 2.61551e-19 0.0552589)
(9.98308 -2.73186e-19 0.108455)
(9.96151 0 0.160076)
(9.93063 -1.08079e-21 0.211693)
(9.89141 1.66256e-19 0.264941)
(9.84448 0 0.321025)
(9.79016 1.82603e-19 0.380835)
(9.72838 2.51204e-22 0.445234)
(9.6592 0 0.515147)
(9.58288 0 0.591582)
(9.49928 0 0.675705)
(9.4083 3.40134e-19 0.768789)
(9.31014 -1.11642e-19 0.872211)
(9.20485 -3.64966e-19 0.987532)
(9.09258 -6.40233e-20 1.11656)
(8.97363 -1.13161e-18 1.26138)
(8.84845 1.09449e-18 1.42444)
(8.71773 -3.59171e-20 1.60861)
(8.58243 -3.71706e-20 1.81732)
(8.44397 -1.1652e-18 2.05466)
(8.3044 1.24264e-18 2.32561)
(8.16662 -2.57035e-18 2.63623)
(8.03475 2.69118e-18 2.99398)
(7.91459 -8.19847e-20 3.40802)
(7.81552 4.74785e-19 3.88839)
(7.73878 0 4.45345)
(7.75798 5.95699e-19 5.06697)
(7.59185 1.99005e-18 5.98003)
(8.32861 -1.93362e-18 6.12225)
(6.63915 -2.73001e-18 8.05708)
(9.99498 -2.78474e-19 0.0591305)
(9.98365 0 0.116156)
(9.96308 3.79182e-20 0.171816)
(9.93373 -3.5677e-19 0.227689)
(9.89655 -2.48781e-19 0.28534)
(9.8522 -8.62853e-20 0.345983)
(9.80106 0 0.410558)
(9.74305 -1.88778e-19 0.479983)
(9.67834 3.93154e-19 0.555212)
(9.60711 2.12355e-22 0.637297)
(9.52939 0 0.727465)
(9.44534 -2.21393e-19 0.827019)
(9.35518 1.16163e-19 0.937339)
(9.25909 -6.04701e-19 1.06002)
(9.15741 4.97313e-19 1.19688)
(9.05063 1.30435e-19 1.35002)
(8.93946 -1.3334e-19 1.52189)
(8.8249 0 1.71536)
(8.70828 0 1.93382)
(8.59145 -1.25112e-18 2.18129)
(8.47701 1.34292e-18 2.46264)
(8.36852 0 2.78376)
(8.27092 -2.89151e-18 3.15188)
(8.19099 2.43353e-18 3.57577)
(8.13999 -3.02187e-19 4.06463)
(8.11726 3.32255e-18 4.63823)
(8.21172 -1.2424e-19 5.24803)
(8.09964 -2.0412e-18 6.18381)
(8.95672 0 6.28519)
(7.24065 -2.43857e-18 8.2291)
(9.99508 0 0.0628808)
(9.98435 -3.60007e-20 0.123517)
(9.96489 3.75863e-20 0.182956)
(9.93722 0 0.242827)
(9.90226 0 0.304616)
(9.86072 1.71933e-19 0.369494)
(9.81301 -1.79586e-19 0.438464)
(9.75907 1.85966e-19 0.512511)
(9.69918 2.31737e-22 0.592629)
(9.63341 1.91049e-21 0.679888)
(9.56185 -2.09711e-19 0.775505)
(9.48497 6.60219e-19 0.880795)
(9.40302 -4.53188e-19 0.997171)
(9.31636 -4.74816e-19 1.12623)
(9.22552 3.65816e-19 1.2698)
(9.13118 0 1.42996)
(9.03426 -7.89542e-19 1.60911)
(8.93604 1.20758e-18 1.81004)
(8.83821 -2.74077e-19 2.03606)
(8.74302 0 2.29108)
(8.65355 -2.44238e-18 2.57975)
(8.57389 2.80516e-19 2.90776)
(8.50967 -2.59055e-18 3.28196)
(8.46842 -2.25242e-18 3.71075)
(8.46295 4.38137e-18 4.20257)
(8.49095 -1.14379e-18 4.7787)
(8.65259 -1.93334e-18 5.38432)
(8.59857 -3.20768e-18 6.32712)
(9.54863 -2.70694e-18 6.43971)
(7.83705 5.08938e-19 8.39705)
(9.99543 5.65789e-19 0.066445)
(9.9853 5.88693e-19 0.130484)
(9.96705 -3.73501e-20 0.193449)
(9.94118 -2.33578e-19 0.257043)
(9.90861 -4.06961e-19 0.322674)
(9.87007 0 0.391456)
(9.8259 0 0.464443)
(9.77618 1.19215e-21 0.542687)
(9.72122 -1.91656e-19 0.627227)
(9.66114 -1.99277e-19 0.719152)
(9.5961 2.08755e-19 0.819634)
(9.52663 -8.63248e-19 0.929969)
(9.45312 4.45779e-19 1.05159)
(9.37608 2.35034e-19 1.18609)
(9.29622 -3.56988e-19 1.33525)
(9.21442 0 1.50109)
(9.13184 6.41197e-19 1.68596)
(9.04999 -9.15356e-19 1.89254)
(8.97084 1.34093e-18 2.12399)
(8.89701 -8.17164e-19 2.38402)
(8.83199 -2.19487e-18 2.67708)
(8.78034 -4.67849e-18 3.0085)
(8.74827 2.74417e-18 3.38472)
(8.74389 -3.14617e-18 3.81375)
(8.78136 2.05923e-18 4.30353)
(8.85782 1.83046e-18 4.87638)
(9.0795 -1.055e-19 5.47938)
(9.09493 4.12657e-18 6.40759)
(10.1127 2.30901e-18 6.59583)
(8.48715 -1.14913e-18 8.58785)
(9.99587 -2.21592e-21 0.0697609)
(9.98638 -1.13652e-18 0.137017)
(9.96938 0 0.203264)
(9.94535 3.10989e-19 0.270282)
(9.91532 3.24527e-19 0.339431)
(9.87992 5.05812e-19 0.411784)
(9.83944 9.60958e-22 0.488425)
(9.79404 1.0583e-21 0.570449)
(9.74408 0 0.658928)
(9.68978 3.94911e-19 0.754962)
(9.63145 6.15388e-19 0.859693)
(9.5696 -8.49714e-19 0.97438)
(9.50474 4.38232e-19 1.10044)
(9.43753 2.2857e-19 1.23942)
(9.3688 1.17418e-18 1.39304)
(9.29959 5.80399e-21 1.56325)
(9.23129 2.54714e-19 1.75229)
(9.16561 -1.01604e-18 1.96275)
(9.1048 0 2.19755)
(9.05179 -2.64284e-19 2.46015)
(9.01039 5.19015e-19 2.75476)
(8.98559 5.1599e-19 3.08628)
(8.98409 -2.03783e-18 3.46064)
(9.01451 4.00038e-18 3.88537)
(9.09213 0 4.36815)
(9.21531 0 4.93067)
(9.49028 -4.4325e-18 5.52989)
(9.59208 2.47141e-18 6.41597)
(10.6533 -3.34276e-18 6.73371)
(9.25486 -1.46842e-18 8.82362)
(9.99623 -5.4401e-19 0.0728176)
(9.98748 2.41708e-21 0.143089)
(9.97178 -7.38621e-20 0.212376)
(9.94967 -2.40296e-22 0.282512)
(9.92225 -3.07155e-22 0.35484)
(9.89008 -2.51978e-19 0.430423)
(9.8534 0 0.51036)
(9.81246 1.81464e-19 0.595768)
(9.76761 -5.61885e-19 0.68773)
(9.71919 -1.49738e-21 0.787332)
(9.66762 2.02432e-19 0.89569)
(9.61343 -4.16774e-19 1.01403)
(9.55727 0 1.14371)
(9.4999 2.21508e-19 1.28624)
(9.44227 4.61021e-19 1.44325)
(9.38559 4.1995e-21 1.61662)
(9.33136 -9.62121e-19 1.80844)
(9.28152 -2.47876e-19 2.02108)
(9.23853 -1.48967e-18 2.25726)
(9.20556 1.00613e-18 2.52016)
(9.1867 -5.09039e-19 2.81361)
(9.18728 -2.47961e-18 3.14205)
(9.21438 1.00296e-18 3.51073)
(9.27711 -2.7806e-18 3.9265)
(9.39148 1.77742e-18 4.3965)
(9.55882 0 4.93965)
(9.87956 1.40558e-18 5.52704)
(10.0832 9.96122e-19 6.34036)
(11.1649 -2.67344e-18 6.79298)
(10.1675 -8.0928e-19 9.12014)
(0.0482116 1.50873e-20 -0.0477118)
(0.116419 0 -0.0569462)
(0.266505 0 -0.0463714)
(0.456293 1.10509e-20 -0.0375608)
(0.651776 -1.20065e-20 -0.030959)
(0.823968 7.34765e-21 -0.0271964)
(0.970777 4.32928e-21 -0.0254115)
(1.0971 0 -0.0247775)
(1.20867 -5.14441e-21 -0.0245228)
(1.30888 -5.29881e-21 -0.0240614)
(1.39876 -2.64014e-21 -0.0230835)
(1.47851 2.60462e-21 -0.0216395)
(1.54853 0 -0.019927)
(1.60939 -1.24168e-20 -0.0178937)
(1.66086 1.08333e-20 -0.0152322)
(1.70177 1.16082e-21 -0.0118739)
(1.73125 1.06449e-21 -0.00835566)
(1.75015 -2.03617e-21 -0.00528547)
(1.76061 8.55144e-21 -0.00262173)
(1.76402 -6.91702e-21 0.000125987)
(1.76055 0 0.00264697)
(1.75168 5.4269e-21 0.00362834)
(1.74239 -2.613e-22 0.00203821)
(1.74002 2.57581e-22 -0.00208712)
(1.75127 7.72133e-23 -0.00807675)
(1.78029 -7.61162e-23 -0.0153)
(1.82916 1.25318e-21 -0.0240012)
(1.90034 3.06284e-23 -0.0354465)
(1.99707 -2.08968e-24 -0.0497957)
(2.15004 9.18846e-23 -0.0613122)
(0.0278159 -1.51708e-20 -0.0625549)
(0.0631263 -5.48093e-20 -0.105646)
(0.232302 0 -0.107227)
(0.449464 0 -0.100786)
(0.673153 -7.35708e-20 -0.0912137)
(0.864954 6.46091e-21 -0.0837301)
(1.0217 2.94514e-20 -0.0790557)
(1.15026 0 -0.0760756)
(1.2571 0 -0.0734692)
(1.34688 1.03271e-20 -0.0702998)
(1.42345 1.04233e-20 -0.066113)
(1.48847 -2.06145e-20 -0.0610634)
(1.54301 5.09939e-21 -0.0556904)
(1.58826 3.45787e-20 -0.0499259)
(1.62505 -1.42375e-20 -0.0428576)
(1.65297 1.25141e-22 -0.0339709)
(1.67074 4.41935e-21 -0.0246161)
(1.67835 0 -0.0167582)
(1.67815 -7.54944e-21 -0.0104971)
(1.67244 -8.63592e-21 -0.00373797)
(1.66075 1.62724e-21 0.0038275)
(1.64111 -5.41933e-21 0.00865349)
(1.61401 0 0.00684492)
(1.58352 7.49892e-21 -0.00256369)
(1.55576 -6.04582e-21 -0.0180916)
(1.53661 3.02981e-22 -0.036722)
(1.5297 1.23162e-21 -0.0556444)
(1.53767 -2.38985e-23 -0.0757207)
(1.56886 2.97333e-22 -0.101441)
(1.66279 -9.06382e-23 -0.133039)
(0.013451 0 -0.0826829)
(-0.00309094 5.31931e-20 -0.153955)
(0.152143 0 -0.172494)
(0.342438 8.85783e-20 -0.164521)
(0.535882 4.9274e-20 -0.149619)
(0.697099 -4.45259e-20 -0.137604)
(0.821481 5.10868e-20 -0.129563)
(0.914742 7.78201e-22 -0.123569)
(0.983586 -3.94879e-20 -0.117942)
(1.0333 -2.05445e-20 -0.111605)
(1.06814 0 -0.10394)
(1.0904 -1.02292e-20 -0.0950589)
(1.10154 1.00894e-20 -0.086042)
(1.10279 -6.88138e-20 -0.0770793)
(1.09575 9.60012e-21 -0.0665599)
(1.08081 0 -0.052624)
(1.05522 4.27162e-21 -0.0368622)
(1.01661 -4.20354e-21 -0.0240073)
(0.967731 0 -0.0165396)
(0.914168 -9.39429e-23 -0.0105058)
(0.85522 -1.11672e-20 -0.000176363)
(0.778652 -1.46752e-21 0.0133905)
(0.681449 1.06656e-21 0.0231984)
(0.575731 -8.61417e-21 0.0239116)
(0.477479 5.79487e-21 0.0146298)
(0.395306 0 -0.00473795)
(0.352357 2.81569e-21 -0.0385775)
(0.372124 -1.39859e-22 -0.093702)
(0.469166 -2.53155e-22 -0.175324)
(0.652525 2.07514e-22 -0.282986)
(0.00895064 -1.2296e-19 -0.102734)
(-0.0544123 0 -0.192107)
(0.08198 0 -0.227301)
(0.235389 -1.82041e-19 -0.215262)
(0.387367 4.96299e-20 -0.195389)
(0.50623 0 -0.179066)
(0.587109 -1.4338e-22 -0.166575)
(0.634907 3.78683e-20 -0.155934)
(0.655929 3.98292e-20 -0.145914)
(0.656532 0 -0.135355)
(0.641535 -2.05362e-20 -0.123333)
(0.613707 2.03757e-20 -0.109701)
(0.57469 0 -0.0958412)
(0.523174 3.9223e-20 -0.0826927)
(0.461528 -3.82308e-20 -0.0690641)
(0.394559 -9.07229e-21 -0.0516608)
(0.319161 1.32432e-20 -0.0270993)
(0.213215 -4.24046e-21 0.00351943)
(0.0670127 3.71389e-21 0.0336896)
(-0.109296 7.02389e-21 0.0595473)
(-0.273636 1.59978e-20 0.0794716)
(-0.384386 1.30626e-21 0.091023)
(-0.454485 -1.28801e-21 0.0903583)
(-0.497508 0 0.0728911)
(-0.511597 -1.29633e-20 0.0351378)
(-0.480824 -8.0584e-21 -0.0268187)
(-0.400256 -5.32163e-21 -0.111133)
(-0.278667 -7.04825e-23 -0.216813)
(-0.117565 -4.93878e-23 -0.339794)
(0.0331374 -2.1443e-22 -0.485387)
(0.00885426 0 -0.126362)
(-0.0976525 1.01579e-19 -0.223347)
(0.0171408 -1.83292e-19 -0.269726)
(0.128782 9.34781e-20 -0.250684)
(0.233033 1.07717e-19 -0.225504)
(0.301226 -6.34665e-20 -0.203809)
(0.329911 1.04858e-19 -0.184984)
(0.325426 -7.61474e-20 -0.167556)
(0.291605 -3.967e-20 -0.151367)
(0.236271 4.0819e-20 -0.135881)
(0.166538 4.07808e-20 -0.119715)
(0.0858298 2.03436e-20 -0.101724)
(-0.0030628 -2.01228e-20 -0.0811045)
(-0.117419 -3.93247e-20 -0.0558503)
(-0.256986 4.73756e-20 -0.0264796)
(-0.410906 -5.49614e-20 0.00612699)
(-0.565657 8.87402e-21 0.0411839)
(-0.689141 0 0.0742274)
(-0.778467 3.08816e-20 0.0986258)
(-0.852669 0 0.109585)
(-0.918872 0 0.107236)
(-0.970491 0 0.0959367)
(-0.99824 -1.97686e-20 0.0748804)
(-0.996299 0 0.0366189)
(-0.96345 -8.67384e-22 -0.0247051)
(-0.896427 1.86266e-20 -0.109022)
(-0.803792 6.82229e-21 -0.213188)
(-0.693249 -1.47832e-22 -0.333048)
(-0.585228 -1.3967e-23 -0.462663)
(-0.529457 1.37352e-23 -0.58978)
(0.0108194 -6.25631e-20 -0.156649)
(-0.138602 0 -0.247638)
(-0.0483711 0 -0.296827)
(0.0164916 1.00197e-19 -0.267137)
(0.0665708 5.87451e-22 -0.234452)
(0.0759169 0 -0.204403)
(0.0446345 5.50752e-20 -0.177187)
(-0.0174985 -7.66783e-20 -0.151094)
(-0.114644 -4.01896e-20 -0.125964)
(-0.232082 -4.09865e-20 -0.104915)
(-0.358747 0 -0.0837436)
(-0.492693 -8.07958e-20 -0.0584542)
(-0.634139 0 -0.0289339)
(-0.774383 1.94111e-20 0.000570185)
(-0.897547 1.89097e-20 0.0275967)
(-0.99866 -1.61568e-22 0.0520705)
(-1.08533 0 0.0740929)
(-1.1611 0 0.0945287)
(-1.22497 -3.04988e-20 0.111958)
(-1.27525 -3.40207e-21 0.120275)
(-1.31205 2.95148e-20 0.114172)
(-1.33327 0 0.0928854)
(-1.33417 1.96115e-20 0.0553935)
(-1.31168 -9.53088e-22 -0.00192261)
(-1.2673 1.39502e-20 -0.081641)
(-1.20336 -2.07283e-20 -0.181019)
(-1.12984 -6.4479e-21 -0.294732)
(-1.05742 -1.80464e-22 -0.416005)
(-1.00674 0 -0.536637)
(-0.993401 0 -0.632858)
(0.0125975 -6.32124e-20 -0.194506)
(-0.180768 -1.3885e-21 -0.261118)
(-0.118787 1.90727e-19 -0.303541)
(-0.107773 -1.05666e-19 -0.258136)
(-0.119835 -6.05178e-20 -0.213975)
(-0.179798 0 -0.171256)
(-0.279278 7.4905e-20 -0.134984)
(-0.404106 4.01301e-20 -0.102785)
(-0.542514 -1.19405e-19 -0.0748604)
(-0.691113 8.00257e-20 -0.050682)
(-0.839764 -4.01061e-20 -0.0286243)
(-0.976129 -3.93212e-22 -0.00632258)
(-1.08894 0 0.0163777)
(-1.18377 7.65849e-20 0.038239)
(-1.26833 0 0.0590887)
(-1.34415 2.69205e-20 0.0798528)
(-1.41144 -6.03118e-20 0.0995685)
(-1.46929 7.98664e-21 0.115991)
(-1.51597 -3.14636e-20 0.126477)
(-1.55016 2.16512e-20 0.12682)
(-1.5712 -4.95771e-20 0.112707)
(-1.5779 -3.11073e-21 0.0815947)
(-1.56855 2.04497e-20 0.0316522)
(-1.5429 1.99983e-20 -0.0387715)
(-1.50289 1.57258e-20 -0.129375)
(-1.45376 1.15832e-20 -0.235871)
(-1.40326 -1.96619e-20 -0.351331)
(-1.36161 2.21815e-22 -0.46828)
(-1.34229 7.65109e-21 -0.577225)
(-1.34344 -2.67139e-21 -0.654274)
(0.0109916 -1.28316e-19 -0.238038)
(-0.226712 -3.92425e-19 -0.256246)
(-0.198018 3.00056e-19 -0.281712)
(-0.252107 -1.15379e-19 -0.213689)
(-0.336658 2.58468e-19 -0.157299)
(-0.456912 -6.86708e-20 -0.108882)
(-0.602445 -7.50502e-20 -0.0674464)
(-0.764945 7.91801e-20 -0.0323029)
(-0.922583 1.01097e-21 -0.00616514)
(-1.05863 0 0.0116615)
(-1.17499 8.0268e-20 0.0249123)
(-1.27573 7.87841e-20 0.0374055)
(-1.36381 1.92929e-20 0.0522394)
(-1.44085 -7.57855e-20 0.0696503)
(-1.50917 -1.85246e-20 0.0879484)
(-1.57043 8.02418e-20 0.105852)
(-1.62416 1.2847e-19 0.121742)
(-1.66878 -8.0275e-21 0.133172)
(-1.70274 -2.41455e-20 0.137146)
(-1.72559 -8.80292e-20 0.129972)
(-1.73726 2.65802e-20 0.107952)
(-1.73752 2.95136e-21 0.0682887)
(-1.72629 -2.4452e-20 0.00912276)
(-1.70432 -5.95078e-20 -0.0700136)
(-1.67352 1.84231e-20 -0.166872)
(-1.63917 2.96415e-20 -0.27609)
(-1.60727 -3.50194e-21 -0.390219)
(-1.58606 1.58119e-20 -0.501391)
(-1.58327 2.07725e-21 -0.599317)
(-1.59058 6.05251e-21 -0.663055)
(0.00206617 2.5853e-19 -0.279814)
(-0.278501 0 -0.223659)
(-0.294267 -1.06214e-19 -0.221073)
(-0.414559 0 -0.137008)
(-0.555991 2.15266e-21 -0.0736389)
(-0.72465 0 -0.0180281)
(-0.894708 0 0.0234502)
(-1.04023 7.99182e-20 0.0470709)
(-1.16843 -7.98e-20 0.0591694)
(-1.28229 0 0.0657111)
(-1.38161 -3.95295e-20 0.0709962)
(-1.46683 -3.93113e-20 0.0775415)
(-1.5397 0 0.0870363)
(-1.60241 0 0.0999287)
(-1.65714 0 0.114927)
(-1.70532 -7.06511e-20 0.129748)
(-1.74674 -1.37197e-19 0.141677)
(-1.77997 0 0.147936)
(-1.80381 6.22872e-20 0.145789)
(-1.8182 5.88004e-20 0.132184)
(-1.82391 -3.39749e-21 0.10388)
(-1.82173 2.36869e-22 0.058021)
(-1.81244 4.51145e-21 -0.00726103)
(-1.79684 -5.4189e-21 -0.0917944)
(-1.77612 -3.53491e-20 -0.192206)
(-1.754 -2.84879e-20 -0.302296)
(-1.73509 4.85105e-20 -0.414133)
(-1.72622 -1.57583e-20 -0.519385)
(-1.73177 -2.13218e-20 -0.607719)
(-1.74145 6.67374e-22 -0.662122)
(-0.0183517 -1.30571e-19 -0.302973)
(-0.336859 2.02906e-19 -0.154996)
(-0.403276 1.16157e-19 -0.125679)
(-0.577553 3.94194e-21 -0.0318961)
(-0.762598 1.96461e-21 0.0408424)
(-0.927222 -1.51461e-19 0.0858219)
(-1.07155 0 0.108608)
(-1.20324 -7.97545e-20 0.119584)
(-1.32051 1.61788e-19 0.12261)
(-1.42225 -8.131e-20 0.120595)
(-1.508 0 0.117295)
(-1.57843 -3.90819e-20 0.11612)
(-1.63596 5.76263e-20 0.119448)
(-1.68383 -1.88247e-20 0.127853)
(-1.72479 -7.31651e-20 0.1397)
(-1.76033 8.78874e-21 0.151683)
(-1.79019 5.97136e-20 0.160014)
(-1.81302 0 0.161545)
(-1.82786 3.95358e-21 0.153991)
(-1.83519 -6.29575e-20 0.135207)
(-1.83669 -3.73373e-21 0.102564)
(-1.8342 0 0.0531114)
(-1.82879 -5.47793e-20 -0.0154084)
(-1.82065 4.66449e-20 -0.10287)
(-1.80945 -6.81933e-22 -0.20543)
(-1.79674 2.46246e-22 -0.31606)
(-1.78566 -2.61217e-20 -0.425812)
(-1.78232 -2.20608e-20 -0.525563)
(-1.79014 1.16753e-20 -0.605522)
(-1.79955 -4.10013e-21 -0.652855)
(-0.0587205 0 -0.27597)
(-0.388862 -3.18983e-19 -0.0550923)
(-0.510368 0 -0.000413821)
(-0.714331 -1.44443e-19 0.103218)
(-0.881517 1.50286e-19 0.154408)
(-1.03387 0 0.182444)
(-1.17294 0 0.195337)
(-1.29721 -1.63349e-19 0.195912)
(-1.40469 -4.09742e-20 0.187795)
(-1.49409 1.21134e-19 0.174867)
(-1.56528 0 0.161351)
(-1.6195 0 0.151362)
(-1.65995 -7.7156e-20 0.148068)
(-1.69132 0 0.152378)
(-1.71774 7.25137e-20 0.161977)
(-1.74103 0 0.17206)
(-1.76039 0 0.177511)
(-1.77381 0 0.174867)
(-1.78023 6.69765e-20 0.162658)
(-1.78087 6.24536e-20 0.1401)
(-1.77876 0 0.105392)
(-1.77684 1.7818e-21 0.0552281)
(-1.77626 5.20811e-20 -0.0137726)
(-1.77589 -5.45049e-20 -0.102424)
(-1.77303 0 -0.206899)
(-1.76676 0 -0.31903)
(-1.75871 3.43497e-20 -0.427978)
(-1.75458 2.20253e-20 -0.523085)
(-1.75898 9.66366e-24 -0.59515)
(-1.76562 -5.40386e-21 -0.635936)
(-0.100754 0 -0.177511)
(-0.414733 2.31672e-19 0.0650047)
(-0.580722 -1.34945e-19 0.156002)
(-0.767284 0 0.229756)
(-0.931574 0 0.268762)
(-1.08157 0 0.286632)
(-1.21579 0 0.28713)
(-1.33186 1.68778e-19 0.274244)
(-1.42801 -1.67122e-19 0.252505)
(-1.50325 0 0.226601)
(-1.55765 -8.199e-20 0.201207)
(-1.59303 0 0.181226)
(-1.6138 -1.99044e-20 0.171061)
(-1.62671 3.73872e-20 0.172311)
(-1.63785 -3.64572e-20 0.181572)
(-1.64958 8.96576e-20 0.191565)
(-1.65996 0 0.195198)
(-1.66533 -7.00023e-20 0.188755)
(-1.66386 -1.31344e-19 0.172247)
(-1.65753 5.92954e-20 0.14712)
(-1.65125 4.05485e-21 0.112853)
(-1.64966 -6.5052e-20 0.0653073)
(-1.65398 4.92921e-22 -0.00128537)
(-1.66105 5.39492e-20 -0.0898923)
(-1.66493 0 -0.197099)
(-1.66174 0 -0.312905)
(-1.65166 -3.42928e-20 -0.42333)
(-1.64014 -2.89716e-20 -0.515055)
(-1.63489 -1.7481e-20 -0.578897)
(-1.63605 5.43527e-21 -0.611794)
(-0.11443 7.13142e-20 -0.00088166)
(-0.393627 1.62573e-19 0.22604)
(-0.579562 -1.47525e-19 0.306943)
(-0.766087 0 0.368366)
(-0.93052 0 0.394803)
(-1.0779 0 0.398242)
(-1.20574 -8.31323e-22 0.382305)
(-1.31132 -1.25766e-19 0.352345)
(-1.39325 4.15606e-20 0.31424)
(-1.45121 0 0.273292)
(-1.4855 8.13356e-20 0.234433)
(-1.49818 -8.06094e-20 0.203311)
(-1.49521 -1.98938e-20 0.186233)
(-1.48655 1.88676e-20 0.186452)
(-1.48166 9.08434e-21 0.198902)
(-1.48339 -8.0296e-20 0.211874)
(-1.48737 0 0.215096)
(-1.48668 6.96505e-20 0.204668)
(-1.47754 6.86259e-20 0.183131)
(-1.46266 -6.72813e-20 0.155851)
(-1.44999 0 0.124632)
(-1.44706 1.31821e-19 0.0837122)
(-1.45525 0 0.0228419)
(-1.46839 4.65409e-22 -0.0648233)
(-1.47624 -1.30683e-21 -0.176563)
(-1.4718 5.51992e-20 -0.299312)
(-1.45435 4.33514e-20 -0.414322)
(-1.42892 2.87936e-20 -0.50431)
(-1.40667 3.71245e-20 -0.558898)
(-1.39938 0 -0.580198)
(-0.125513 -1.02988e-19 0.563549)
(-0.324099 -3.50681e-20 0.355247)
(-0.530957 0 0.472562)
(-0.720655 4.32895e-20 0.51682)
(-0.885189 -8.78341e-20 0.524854)
(-1.02845 -3.72422e-21 0.510414)
(-1.14727 8.63242e-20 0.473744)
(-1.23832 0 0.423418)
(-1.30123 -8.88852e-20 0.36735)
(-1.33696 0 0.310895)
(-1.34602 0 0.257951)
(-1.32989 1.61648e-19 0.214292)
(-1.29591 7.71181e-20 0.189931)
(-1.25981 0 0.192715)
(-1.23694 0 0.214765)
(-1.23061 -7.21203e-20 0.235689)
(-1.23147 0 0.240122)
(-1.2267 -6.89376e-20 0.224336)
(-1.20882 -7.81415e-20 0.195032)
(-1.18126 0 0.164559)
(-1.1571 0 0.139176)
(-1.149 -6.77842e-20 0.110057)
(-1.1585 0 0.0589264)
(-1.1745 7.06222e-20 -0.0272681)
(-1.18062 1.89085e-21 -0.146176)
(-1.16803 -5.54893e-20 -0.279451)
(-1.13737 -4.4701e-20 -0.402044)
(-1.09325 -3.5401e-20 -0.492177)
(-1.04654 2.31655e-20 -0.536197)
(-1.02803 1.37021e-20 -0.538362)
(0.584152 2.78555e-19 -0.701063)
(-0.333971 -1.49468e-19 -0.272143)
(-0.429851 0 0.645378)
(-0.643338 -4.23435e-20 0.714746)
(-0.806357 0 0.708759)
(-0.942097 4.13408e-20 0.668233)
(-1.04778 0 0.596069)
(-1.11679 0 0.514127)
(-1.15251 8.81441e-20 0.431814)
(-1.15887 0 0.352216)
(-1.13586 0 0.276078)
(-1.08138 -8.11816e-20 0.210216)
(-1.0025 1.90865e-20 0.174741)
(-0.926115 -8.33079e-20 0.187557)
(-0.880444 -9.08613e-21 0.232231)
(-0.866865 1.43944e-19 0.269706)
(-0.866295 7.3735e-20 0.277468)
(-0.856672 7.33324e-20 0.253219)
(-0.825162 7.35483e-20 0.209745)
(-0.776178 7.61234e-20 0.171557)
(-0.731189 7.64258e-20 0.154694)
(-0.710317 -1.14779e-21 0.144661)
(-0.715135 -7.6369e-20 0.108534)
(-0.726075 -1.47743e-19 0.0238167)
(-0.718044 0 -0.105824)
(-0.68544 -1.81628e-21 -0.252337)
(-0.634006 1.80221e-21 -0.383435)
(-0.57 -3.46214e-21 -0.475736)
(-0.49416 -4.2609e-20 -0.511336)
(-0.460932 -1.38996e-20 -0.482568)
(9.99657 -5.02001e-19 0.0756707)
(9.98867 -1.09692e-18 0.148777)
(9.9744 5.62841e-19 0.22092)
(9.95429 0 0.293935)
(9.92958 0 0.369157)
(9.90077 3.18373e-19 0.44767)
(9.86808 0 0.530588)
(9.83181 -3.43507e-19 0.619026)
(9.79233 3.61173e-19 0.714056)
(9.75007 -1.29567e-18 0.816734)
(9.70551 -2.0458e-21 0.928148)
(9.65925 7.91839e-19 1.04948)
(9.61203 -4.07318e-19 1.18203)
(9.56472 -1.26285e-18 1.32723)
(9.5184 1.07875e-18 1.48663)
(9.47442 -8.85044e-19 1.66196)
(9.43446 1.8035e-18 1.85517)
(9.40057 -9.16266e-19 2.06838)
(9.37539 1.39268e-18 2.30404)
(9.36226 -4.72332e-19 2.56498)
(9.36548 -4.56924e-19 2.85458)
(9.39061 9.06873e-19 3.17667)
(9.44496 -8.87408e-19 3.5357)
(9.53796 0 3.93734)
(9.68581 0 4.38758)
(9.89365 -1.37031e-18 4.90044)
(10.2506 0 5.45942)
(10.5635 -8.54938e-19 6.16586)
(11.765 2.42214e-18 6.65381)
(12.9657 7.09533e-19 9.36103)
(9.99691 -1.32891e-20 0.0783155)
(9.98994 5.41129e-19 0.154052)
(9.97726 1.09339e-18 0.228865)
(9.95934 2.84332e-19 0.304535)
(9.93746 -2.96074e-19 0.38236)
(9.91213 -1.55034e-19 0.46348)
(9.88357 -1.60061e-19 0.549031)
(9.85211 1.67169e-19 0.640112)
(9.81817 5.17974e-19 0.737762)
(9.78221 3.58112e-19 0.843002)
(9.74479 0 0.956884)
(9.70658 0 1.08054)
(9.66838 0 1.21518)
(9.63118 6.01322e-19 1.36213)
(9.59612 0 1.52283)
(9.5647 4.17034e-19 1.69886)
(9.53871 0 1.89196)
(9.52034 0 2.10401)
(9.51235 0 2.3371)
(9.51817 -4.41616e-19 2.59369)
(9.54221 4.38279e-19 2.87657)
(9.59008 2.49331e-20 3.18884)
(9.66907 -8.05274e-19 3.53391)
(9.78859 1.56943e-18 3.91586)
(9.96401 -1.46927e-18 4.33875)
(10.2029 1.31314e-18 4.80992)
(10.5761 1.65867e-18 5.31709)
(10.9434 8.95186e-19 5.88535)
(11.7265 -4.02947e-19 6.29553)
(12.5135 -1.02299e-18 7.12164)
(9.9973 4.74162e-19 0.0807123)
(9.99123 4.75727e-20 0.158835)
(9.98023 -5.64019e-19 0.236076)
(9.96473 2.76761e-19 0.314137)
(9.94586 4.31908e-19 0.394273)
(9.92411 -1.49013e-19 0.477671)
(9.89978 1.55107e-19 0.565491)
(9.87322 -4.79819e-19 0.658806)
(9.8449 0 0.758617)
(9.81534 0 0.865904)
(9.78514 0 0.981669)
(9.75503 0 1.10696)
(9.7259 0 1.24291)
(9.69878 -7.6737e-19 1.39071)
(9.6749 0 1.55167)
(9.6558 -7.9909e-19 1.72719)
(9.64339 -4.07743e-19 1.91877)
(9.63993 3.52352e-21 2.12801)
(9.64823 8.24076e-19 2.35664)
(9.67177 0 2.60665)