/*--------------------------------*- C++ -*----------------------------------*\
| =========                 |                                                 |
| \\      /  F ield         | OpenFOAM: The Open Source CFD Toolbox           |
|  \\    /   O peration     | Version:  dev                                   |
|   \\  /    A nd           | Web:      www.OpenFOAM.org                      |
|    \\/     M anipulation  |                                                 |
\*---------------------------------------------------------------------------*/
FoamFile
{
    version     2.0;
    format      ascii;
    class       volScalarField;
    location    "2.53";
    object      p;
}
// * * * * * * * * * * * * * * * * * * * * * * * * * * * * * * * * * * * * * //

dimensions      [0 2 -2 0 0 0 0];

internalField   nonuniform List<scalar> 
465
(
96.5803
96.4562
96.6425
97.0513
97.596
98.2572
99.0367
99.9351
100.951
102.084
103.331
104.694
106.171
107.762
109.464
111.273
113.186
115.193
117.286
119.449
121.662
96.4225
96.3938
96.6006
97.0075
97.5499
98.2094
98.986
99.8804
100.891
102.018
103.258
104.613
106.08
107.66
109.35
111.147
113.045
115.038
117.116
119.264
121.464
96.2727
96.3174
96.5422
96.9408
97.4739
98.1251
98.8918
99.7738
100.77
101.88
103.1
104.432
105.873
107.423
109.078
110.835
112.688
114.63
116.651
118.737
120.869
96.1179
96.2007
96.4391
96.8309
97.3536
97.9942
98.7482
99.6144
100.592
101.678
102.873
104.173
105.579
107.086
108.693
110.394
112.182
114.05
115.987
117.977
120.003
95.9488
96.0519
96.3021
96.6895
97.2013
97.8285
98.566
99.4119
100.365
101.422
102.582
103.843
105.203
106.658
108.203
109.833
111.541
113.316
115.146
117.016
118.905
95.7613
95.8755
96.1333
96.5158
97.0146
97.6249
98.3421
99.1633
100.086
101.109
102.229
103.443
104.748
106.14
107.614
109.161
110.774
112.44
114.146
115.874
117.601
95.5532
95.6734
95.9346
96.3105
96.7947
97.3855
98.0789
98.8715
99.7606
100.743
101.816
102.977
104.22
105.541
106.933
108.387
109.892
111.436
113.002
114.569
116.112
95.3235
95.4467
95.7078
96.0752
96.5429
97.1117
97.7782
98.5385
99.3891
100.327
101.348
102.448
103.622
104.864
106.165
107.516
108.904
110.313
111.725
113.116
114.457
95.0719
95.1964
95.4547
95.8113
96.2608
96.8052
97.4418
98.1663
98.9745
99.8626
100.826
101.861
102.959
104.115
105.319
106.557
107.818
109.082
110.328
111.529
112.651
94.7989
94.9234
95.1765
95.5205
95.9498
96.4676
97.0717
97.7572
98.5195
99.3541
100.256
101.219
102.237
103.301
104.399
105.519
106.644
107.754
108.825
109.824
110.715
94.5052
94.6286
94.8749
95.2043
95.6117
96.1009
96.67
97.3138
98.027
98.8046
99.6406
100.529
101.461
102.428
103.415
104.41
105.393
106.341
107.228
108.017
108.666
94.1915
94.3132
94.5512
94.8644
95.2482
95.7071
96.239
96.8387
97.5001
98.2176
98.9846
99.7939
100.637
101.502
102.375
103.239
104.075
104.857
105.553
106.126
106.527
93.8589
93.9784
94.2068
94.5024
94.8613
95.2881
95.7811
96.3345
96.9419
97.5967
98.2919
99.0197
99.77
100.53
101.285
102.016
102.701
103.313
103.817
104.17
104.319
93.5087
93.6254
93.8434
94.1202
94.4529
94.8462
95.2987
95.8042
96.3556
96.9458
97.5672
98.2112
98.8666
99.5198
100.154
100.75
101.284
101.723
102.034
102.169
102.067
93.1422
93.2557
93.4624
93.7195
94.0248
94.3836
94.7944
95.2507
95.7448
96.2689
96.8151
97.3739
97.9333
98.4785
98.9921
99.4526
99.8336
100.103
100.223
100.142
99.7959
93.0578
93.294
93.5706
93.8934
94.2608
94.6659
95.1005
95.5564
96.0251
96.4965
96.9576
97.3927
97.7833
98.1065
98.3345
98.434
98.3635
98.0701
97.4853
92.8389
93.0852
93.3703
93.6923
94.0441
94.4168
94.802
95.1907
95.5721
95.9324
96.2551
96.5208
96.7054
96.7803
96.7108
96.4537
95.9537
95.141
92.5724
92.8186
93.0937
93.3905
93.6996
94.0124
94.3197
94.6096
94.8679
95.0777
95.2186
95.2658
95.1901
94.9561
94.5199
93.8251
92.8033
92.2394
92.4669
92.7073
92.9516
93.1911
93.4161
93.614
93.7703
93.8678
93.8855
93.7985
93.5771
93.1863
92.5819
91.7088
90.5031
91.8136
91.997
92.1758
92.3417
92.4841
92.5903
92.6458
92.633
92.5309
92.3143
91.9546
91.4173
90.6591
89.6289
88.2694
91.2621
91.3754
91.4679
91.5284
91.5443
91.5011
91.3813
91.1638
90.8245
90.3359
89.6646
88.77
87.6067
86.1249
90.5741
90.5542
90.4819
90.3431
90.1206
89.794
89.3404
88.7338
87.9429
86.9312
85.6595
84.0864
89.5665
89.4091
89.1789
88.8593
88.4311
87.8728
87.1604
86.2655
85.1564
83.8005
82.165
88.0159
87.6058
87.0842
86.4317
85.6264
84.6437
83.4565
82.0392
80.367
85.762
85.0261
84.1414
83.0865
81.8399
80.382
78.6943
83.6642
82.713
81.6012
80.3121
78.8312
77.1451
80.1931
78.8762
77.3865
75.7152
76.0459
74.3995
)
;

boundaryField
{
    inlet
    {
        type            zeroGradient;
    }
    outlet
    {
        type            fixedValue;
        value           nonuniform 0();
    }
    flap
    {
        type            zeroGradient;
    }
    upperWall
    {
        type            zeroGradient;
    }
    lowerWall
    {
        type            zeroGradient;
    }
    frontAndBack
    {
        type            empty;
    }
    procBoundary3to0
    {
        type            processor;
        value           nonuniform List<scalar> 
34
(
92.7534
92.8632
92.8632
92.6249
92.6249
92.3575
92.3575
92.0334
92.0334
91.6346
91.6346
91.1361
91.1361
90.5057
90.5542
90.5542
89.6648
89.6648
88.571
88.3324
88.3324
86.8613
86.3679
86.3679
84.4722
84.4722
82.3528
81.3478
81.3478
78.8653
77.5328
77.5328
74.8061
73.192
)
;
    }
    procBoundary3to1
    {
        type            processor;
        value           nonuniform List<scalar> 9(86.5104 84.2661 82.1657 80.2151 78.4145 76.7594 75.2427 73.8562 72.5912);
    }
    procBoundary3to4
    {
        type            processor;
        value           nonuniform List<scalar> 
19
(
123.897
123.689
123.023
122.041
120.789
119.3
117.6
115.71
113.651
111.446
109.117
106.69
104.192
101.651
99.101
96.5217
93.9275
91.3692
88.8856
)
;
    }
}


// ************************************************************************* //
