/*--------------------------------*- C++ -*----------------------------------*\
| =========                 |                                                 |
| \\      /  F ield         | OpenFOAM: The Open Source CFD Toolbox           |
|  \\    /   O peration     | Version:  dev                                   |
|   \\  /    A nd           | Web:      www.OpenFOAM.org                      |
|    \\/     M anipulation  |                                                 |
\*---------------------------------------------------------------------------*/
FoamFile
{
    version     2.0;
    format      ascii;
    class       volVectorField;
    location    "0.56";
    object      U;
}
// * * * * * * * * * * * * * * * * * * * * * * * * * * * * * * * * * * * * * //

dimensions      [0 1 -1 0 0 0 0];

internalField   nonuniform List<vector> 
465
(
(-9.51137 -1.69549e-21 0.379792)
(-10.4403 -1.95759e-21 0.342564)
(-11.3079 0 0.302228)
(-12.1035 0 0.258812)
(-12.8155 8.86523e-21 0.21225)
(-13.4312 -2.67148e-20 0.162471)
(-13.9371 0 0.10943)
(-14.319 0 0.053063)
(-14.5629 9.4018e-21 -0.00681784)
(-14.6534 0 -0.0707746)
(-14.573 0 -0.140174)
(-14.3063 0 -0.217751)
(-13.8358 0 -0.305292)
(-13.1406 6.63332e-21 -0.407148)
(-12.1901 3.5554e-21 -0.530762)
(-10.9302 7.72223e-22 -0.688499)
(-9.25439 -2.89637e-22 -0.905076)
(-6.98099 -4.88505e-23 -1.23851)
(-3.86319 4.89664e-23 -1.80825)
(1.5459 0 -2.93694)
(-9.61139 -1.61677e-19 1.04604)
(-10.496 7.61101e-20 0.975524)
(-11.3186 -6.23116e-20 0.894885)
(-12.0688 6.08524e-20 0.804326)
(-12.735 -3.56311e-20 0.703795)
(-13.3049 8.9324e-20 0.593204)
(-13.7652 0 0.472607)
(-14.1025 2.8271e-23 0.342187)
(-14.3035 -9.70613e-21 0.202147)
(-14.3539 -9.07169e-21 0.0523703)
(-14.2374 8.90343e-21 -0.108217)
(-13.9509 -2.39078e-20 -0.276575)
(-13.4793 -1.02379e-20 -0.454242)
(-12.8065 -2.68459e-21 -0.647477)
(-11.9096 5.09482e-21 -0.867241)
(-10.7498 7.62736e-21 -1.13098)
(-9.25406 -6.43497e-22 -1.47337)
(-7.30556 1.09822e-21 -1.97711)
(-4.79813 -3.68088e-23 -2.7892)
(-1.95499 0 -3.94071)
(-9.22011 8.9638e-20 1.68838)
(-10.0395 0 1.56181)
(-10.8024 0 1.41759)
(-11.4988 -6.8442e-20 1.25594)
(-12.1177 6.69827e-20 1.07686)
(-12.6471 8.07475e-22 0.880371)
(-13.074 -3.86229e-20 0.666949)
(-13.3854 -5.84969e-20 0.437628)
(-13.5682 5.83729e-20 0.194084)
(-13.6089 -5.68907e-20 -0.0614044)
(-13.4935 8.61129e-22 -0.326348)
(-13.2192 3.3329e-20 -0.602607)
(-12.7754 1.44681e-20 -0.892414)
(-12.1523 -1.27528e-20 -1.20337)
(-11.3354 -9.72922e-21 -1.54896)
(-10.3008 6.54077e-22 -1.94932)
(-9.00833 3.67764e-22 -2.43859)
(-7.40338 -5.44346e-21 -3.08529)
(-5.4829 0 -3.99078)
(-3.67914 0 -5.09476)
(-8.61077 -1.08025e-19 2.29847)
(-9.3689 1.63086e-19 2.12907)
(-10.0783 0 1.93722)
(-10.7292 0 1.7229)
(-11.31 -7.47263e-20 1.48579)
(-11.8082 3.58243e-20 1.22556)
(-12.2101 7.86731e-20 0.942244)
(-12.5021 8.00698e-20 0.636459)
(-12.6705 -3.94577e-20 0.309516)
(-12.7019 3.85917e-20 -0.0364514)
(-12.5844 0 -0.398478)
(-12.3196 3.47282e-20 -0.771821)
(-11.9019 0 -1.15876)
(-11.3277 1.27671e-20 -1.56851)
(-10.5902 2.33695e-21 -2.01733)
(-9.67855 -1.15117e-20 -2.5283)
(-8.5777 1.62383e-21 -3.13403)
(-7.2757 9.97025e-21 -3.88353)
(-5.81712 0 -4.82486)
(-4.58249 4.76945e-22 -5.82533)
(-7.86444 2.26214e-19 2.8592)
(-8.56358 -3.43475e-19 2.64919)
(-9.22175 1.88183e-19 2.41053)
(-9.82866 0 2.14247)
(-10.3722 -7.60601e-20 1.84409)
(-10.839 0 1.51485)
(-11.2146 4.26842e-20 1.15506)
(-11.4847 -1.64144e-19 0.766414)
(-11.6356 4.03592e-20 0.35233)
(-11.6538 -4.07702e-20 -0.081874)
(-11.5311 3.91537e-20 -0.529683)
(-11.2732 -3.49351e-20 -0.986689)
(-10.879 -3.99961e-20 -1.45406)
(-10.351 1.36743e-20 -1.94138)
(-9.68963 -1.14872e-21 -2.46612)
(-8.89425 -6.82702e-21 -3.05198)
(-7.96745 1.82699e-21 -3.72745)
(-6.9234 -5.93936e-21 -4.52286)
(-5.82102 4.02038e-23 -5.44443)
(-4.94734 3.39464e-22 -6.32237)
(-7.00811 -2.09036e-19 3.37789)
(-7.64678 -1.91373e-19 3.13346)
(-8.25195 6.1751e-20 2.85468)
(-8.81297 2.26742e-19 2.54007)
(-9.3174 -1.52129e-19 2.1881)
(-9.75123 0 1.79787)
(-10.0995 0 1.36963)
(-10.3471 1.31287e-19 0.905483)
(-10.4798 -3.64683e-22 0.410068)
(-10.4835 0 -0.10887)
(-10.3543 -6.07954e-20 -0.640959)
(-10.1019 -1.90897e-20 -1.17692)
(-9.73027 3.26921e-20 -1.71658)
(-9.24735 -2.97259e-20 -2.26992)
(-8.65918 0 -2.85528)
(-7.97215 1.98351e-20 -3.49561)
(-7.19984 -1.41777e-21 -4.21352)
(-6.37082 9.84255e-22 -5.02265)
(-5.54222 -9.00634e-21 -5.90027)
(-4.92023 -9.28739e-22 -6.66675)
(-6.05586 2.51098e-19 3.85139)
(-6.63111 -1.0808e-19 3.57778)
(-7.18027 1.42298e-20 3.26389)
(-7.69259 -2.20671e-19 2.90723)
(-8.15547 -2.81199e-21 2.50549)
(-8.55457 -1.74294e-19 2.05727)
(-8.87437 1.76008e-19 1.56279)
(-9.09906 2.11511e-21 1.02496)
(-9.21318 -1.36483e-19 0.450602)
(-9.20185 8.92871e-20 -0.148607)
(-9.06594 -1.31911e-21 -0.757164)
(-8.81903 1.86574e-20 -1.36187)
(-8.47039 -3.48002e-20 -1.96095)
(-8.03284 5.3226e-20 -2.56521)
(-7.51623 -6.57825e-20 -3.19424)
(-6.93061 -1.4152e-20 -3.8698)
(-6.29481 1.61804e-21 -4.60814)
(-5.6441 -2.07335e-21 -5.40887)
(-5.02685 9.95159e-21 -6.23188)
(-4.59448 0 -6.90347)
(-5.01775 2.64515e-19 4.2758)
(-5.52581 -2.58625e-19 3.97875)
(-6.01528 0 3.63547)
(-6.4757 0 3.2424)
(-6.89464 -4.2472e-21 2.79644)
(-7.25773 8.33968e-20 2.29555)
(-7.549 3.00448e-21 1.73976)
(-7.75155 -9.25628e-20 1.13259)
(-7.84811 9.29571e-20 0.483027)
(-7.82175 -9.1114e-20 -0.192762)
(-7.67942 0 -0.872668)
(-7.43848 8.22723e-20 -1.53764)
(-7.11386 0 -2.18448)
(-6.7226 0 -2.82611)
(-6.27653 5.32513e-20 -3.48445)
(-5.7863 -4.55702e-20 -4.1803)
(-5.27135 -3.31107e-20 -4.92359)
(-4.76913 2.24367e-20 -5.70232)
(-4.3154 -1.37423e-20 -6.46731)
(-4.0357 4.29139e-21 -7.0589)
(-3.90391 6.68328e-20 4.64683)
(-4.3404 1.50873e-19 4.33268)
(-4.766 -1.47756e-19 3.96638)
(-5.17093 1.73235e-19 3.54333)
(-5.54345 -1.70183e-19 3.05948)
(-5.86959 -2.6266e-21 2.51192)
(-6.13306 0 1.90007)
(-6.31542 9.88772e-20 1.22769)
(-6.3962 -1.47014e-19 0.506175)
(-6.35483 4.84292e-20 -0.242768)
(-6.20694 -9.24259e-20 -0.98843)
(-5.97365 -6.27704e-20 -1.70443)
(-5.67517 -1.98262e-20 -2.38682)
(-5.3317 7.8942e-21 -3.05258)
(-4.95533 5.74608e-20 -3.72753)
(-4.5551 3.9392e-20 -4.43208)
(-4.14754 3.50835e-20 -5.1701)
(-3.7705 -2.42954e-20 -5.91968)
(-3.44284 1.3799e-20 -6.62686)
(-3.29255 -4.28782e-21 -7.14979)
(-2.72622 7.75664e-20 4.95997)
(-3.08632 1.53207e-20 4.63543)
(-3.44311 -1.54063e-19 4.25306)
(-3.78789 -8.76123e-20 3.80729)
(-4.11022 0 3.29299)
(-4.39738 9.52042e-20 2.70605)
(-4.63335 0 2.0445)
(-4.79772 -1.02871e-19 1.31154)
(-4.86497 -1.85242e-21 0.521071)
(-4.80821 1.01502e-19 -0.297908)
(-4.65797 -2.19092e-21 -1.10363)
(-4.43721 -2.11287e-20 -1.86083)
(-4.16958 1.0069e-19 -2.56658)
(-3.87646 -7.08889e-20 -3.24421)
(-3.56882 -5.90343e-20 -3.92504)
(-3.25316 0 -4.62984)
(-2.94102 0 -5.35653)
(-2.67091 0 -6.07465)
(-2.44007 0 -6.72605)
(-2.40223 0 -7.18796)
(-1.49944 7.20781e-20 5.2105)
(-1.77814 0 4.88232)
(-2.06034 8.44744e-20 4.49097)
(-2.33861 2.75119e-19 4.03015)
(-2.60435 -1.83271e-19 3.49366)
(-2.84721 -1.00602e-19 2.87578)
(-3.05295 -1.05263e-19 2.17224)
(-3.19947 1.04124e-19 1.38397)
(-3.25419 5.11193e-20 0.527424)
(-3.17895 -2.06452e-19 -0.357312)
(-3.0359 1.22814e-19 -1.21567)
(-2.83956 2.32129e-20 -2.0032)
(-2.6124 -1.00556e-19 -2.72075)
(-2.37446 8.21118e-20 -3.39981)
(-2.13471 -6.19023e-20 -4.07831)
(-1.89773 -4.23284e-20 -4.77804)
(-1.66978 -4.38428e-20 -5.4909)
(-1.49085 3.6349e-22 -6.17893)
(-1.33539 -1.77596e-20 -6.77806)
(-1.39318 1.16659e-20 -7.18316)
(-0.241948 -2.1245e-19 5.39559)
(-0.434866 -8.75421e-20 5.06977)
(-0.636648 7.90381e-20 4.67572)
(-0.840889 0 4.20691)
(-1.0408 0 3.65637)
(-1.22927 2.07516e-19 3.01682)
(-1.39609 -2.12615e-19 2.28114)
(-1.51714 1.62025e-19 1.4456)
(-1.5502 1.63648e-19 0.526422)
(-1.45101 5.28788e-20 -0.419207)
(-1.33993 -1.525e-19 -1.31933)
(-1.18925 0 -2.12584)
(-1.01804 -1.00552e-20 -2.84554)
(-0.843219 9.88023e-22 -3.51865)
(-0.671538 6.84789e-20 -4.18966)
(-0.506998 5.94144e-20 -4.88148)
(-0.352895 3.84299e-20 -5.58021)
(-0.24894 3.8054e-22 -6.2411)
(-0.155685 -9.91348e-22 -6.79343)
(-0.286165 -1.17626e-20 -7.14392)
(1.02254 0 5.51079)
(0.91906 4.31535e-21 5.19412)
(0.802812 -8.29178e-20 4.80467)
(0.679653 -9.68237e-20 4.33621)
(0.555457 9.55237e-20 3.78196)
(0.435324 1.04349e-19 3.13424)
(0.322844 1.63737e-19 2.38511)
(0.238685 -1.10373e-19 1.52301)
(0.264809 5.56992e-20 0.53479)
(0.363463 0 -0.475133)
(0.418404 2.04746e-19 -1.40202)
(0.500112 2.27836e-20 -2.21808)
(0.598318 -2.20809e-20 -2.93588)
(0.700841 0 -3.60203)
(0.803315 6.13799e-20 -4.26509)
(0.901698 3.66222e-21 -4.94767)
(0.990892 5.78993e-22 -5.63116)
(1.03757 -4.66597e-22 -6.2649)
(1.07304 1.80524e-20 -6.77504)
(0.904164 1.26336e-20 -7.07387)
(2.26706 -4.04422e-20 5.55032)
(2.2529 -7.79221e-21 5.24578)
(2.2235 1.67154e-19 4.86343)
(2.18456 -9.53324e-20 4.39745)
(2.14172 -3.21084e-21 3.84146)
(2.10021 -2.04849e-19 3.1881)
(2.0626 -4.1689e-22 2.42948)
(2.04588 5.47006e-20 1.55596)
(2.10406 -5.47557e-20 0.575402)
(2.17095 0 -0.448218)
(2.18581 -1.00922e-19 -1.40497)
(2.195 -1.03975e-19 -2.23936)
(2.21244 9.48722e-20 -2.96567)
(2.23828 7.89435e-20 -3.63402)
(2.2731 -6.86282e-20 -4.29611)
(2.31346 3.81279e-22 -4.97449)
(2.35079 -3.70835e-22 -5.64778)
(2.35444 0 -6.26104)
(2.34636 3.70519e-20 -6.73784)
(2.15055 -2.52421e-20 -6.99461)
(3.47112 3.94944e-20 5.51971)
(3.54312 -7.39473e-20 5.23058)
(3.59817 -8.42178e-20 4.85848)
(3.64173 0 4.39804)
(3.67917 9.57708e-20 3.84334)
(3.7155 2.00256e-19 3.18752)
(3.75336 -1.0461e-19 2.42257)
(3.80122 -1.61067e-19 1.5419)
(3.87469 5.34404e-20 0.562475)
(3.92292 -2.58736e-20 -0.448376)
(3.90392 1.1094e-19 -1.39265)
(3.85173 1.03097e-19 -2.22317)
(3.7945 -1.65067e-19 -2.95203)
(3.74875 -7.36117e-20 -3.62611)
(3.72369 0 -4.29422)
(3.71711 0 -4.975)
(3.71592 -4.20058e-20 -5.64244)
(3.68818 6.07799e-20 -6.23763)
(3.64781 -7.35848e-20 -6.68452)
(3.42967 1.2801e-20 -6.90529)
(4.47665 2.98244e-20 5.60586)
(4.65552 3.55326e-20 5.41953)
(4.81074 -7.11482e-20 5.14945)
(4.94751 0 4.79136)
(5.07054 4.38491e-20 4.34044)
(5.1841 3.01532e-21 3.79138)
(5.29157 -9.21247e-20 3.13833)
(5.39332 -4.75936e-20 2.37515)
(5.48704 0 1.50175)
(5.56723 0 0.544521)
(5.58526 0 -0.431978)
(5.5244 -9.31133e-20 -1.34946)
(5.41895 -8.47323e-20 -2.16787)
(5.30277 7.83488e-20 -2.8984)
(5.20329 1.02764e-21 -3.58375)
(5.13652 5.89101e-20 -4.26594)
(5.09993 0 -4.95565)
(5.07482 4.0757e-22 -5.62072)
(5.02624 -1.14976e-19 -6.1995)
(4.96168 3.44015e-20 -6.61848)
(4.72232 -1.20492e-20 -6.8067)
(5.52466 -1.65282e-20 5.40983)
(5.77923 4.85933e-20 5.25034)
(6.01027 1.85822e-20 5.00196)
(6.22145 0 4.66117)
(6.41597 0 4.22387)
(6.59612 0 3.68565)
(6.76251 0 3.0424)
(6.91185 0 2.2919)
(7.03439 0 1.44158)
(7.117 0 0.523565)
(7.12158 0 -0.404115)
(7.03979 0 -1.28166)
(6.90539 2.06442e-21 -2.08074)
(6.75803 2.06769e-21 -2.81355)
(6.63368 6.71234e-20 -3.51648)
(6.55164 -1.18666e-19 -4.22035)
(6.50598 -2.73427e-21 -4.92394)
(6.4713 4.11533e-20 -5.58768)
(6.40978 5.57526e-20 -6.14881)
(6.32498 0 -6.53874)
(6.06188 1.16922e-20 -6.69475)
(7.12051 0 4.7915)
(7.39367 0 4.47178)
(7.64792 0 4.05313)
(7.88241 0 3.53256)
(8.09437 -1.06578e-20 2.90839)
(8.27699 -7.40919e-20 2.18299)
(8.41712 0 1.36977)
(8.5003 8.38847e-20 0.502806)
(8.4978 2.6988e-21 -0.368448)
(8.40877 -8.03543e-20 -1.20146)
(8.26997 7.26469e-20 -1.98044)
(8.12576 4.50076e-21 -2.71924)
(8.01377 -6.3233e-20 -3.44552)
(7.94847 5.50526e-20 -4.17488)
(7.91551 0 -4.89185)
(7.88282 0 -5.5502)
(7.81194 0 -6.08869)
(7.70634 -3.10119e-20 -6.44596)
(7.41375 0 -6.56876)
(8.76124 0 3.83582)
(9.03092 3.66569e-20 3.34022)
(9.27227 3.6965e-20 2.74486)
(9.47494 8.05563e-20 2.05574)
(9.62474 8.27016e-20 1.28967)
(9.70801 -7.8581e-20 0.480002)
(9.70761 -5.02671e-21 -0.333363)
(9.63316 1.52623e-19 -1.12455)
(9.52484 0 -1.88951)
(9.42616 -6.43245e-20 -2.64121)
(9.36576 0 -3.39419)
(9.34443 -1.18975e-20 -4.14603)
(9.33718 1.15902e-20 -4.86804)
(9.30837 0 -5.5107)
(9.2234 0 -6.01768)
(9.0901 3.07023e-20 -6.33669)
(8.75826 -6.20101e-22 -6.42459)
(10.1037 -6.96928e-20 3.12239)
(10.3454 -3.70328e-20 2.56089)
(10.5491 -7.30925e-20 1.91468)
(10.6996 -3.34827e-21 1.20057)
(10.7847 0 0.44794)
(10.8041 9.13177e-20 -0.314759)
(10.7778 -1.59905e-19 -1.07638)
(10.7421 -8.12465e-20 -1.83902)
(10.7272 6.32682e-20 -2.60843)
(10.742 1.42725e-20 -3.3827)
(10.771 -4.64901e-20 -4.14316)
(10.7824 3.88059e-20 -4.85304)
(10.7438 0 -5.46451)
(10.6295 0 -5.92906)
(10.4549 2.6574e-20 -6.20412)
(10.0709 9.71776e-21 -6.25642)
(11.6664 3.32468e-21 1.77453)
(11.8049 3.19002e-20 1.10601)
(11.8954 -6.83585e-20 0.398708)
(11.9557 -1.04859e-19 -0.332017)
(12.0041 6.71557e-20 -1.08283)
(12.0592 6.28781e-20 -1.85211)
(12.1286 -2.70708e-20 -2.6335)
(12.2008 5.02219e-20 -3.41106)
(12.2506 3.18367e-20 -4.15684)
(12.2484 -4.74519e-20 -4.83297)
(12.1706 0 -5.39731)
(12.0031 0 -5.81025)
(11.7699 -4.99909e-20 -6.03832)
(11.3204 -9.43933e-21 -6.05717)
(13.2671 3.58944e-20 0.33536)
(13.3686 -6.26424e-20 -0.387124)
(13.4729 5.9725e-20 -1.14064)
(13.5793 -8.28942e-20 -1.91392)
(13.6769 -4.96516e-20 -2.69046)
(13.7448 2.17001e-20 -3.44754)
(13.7584 -2.11601e-20 -4.15564)
(13.6959 0 -4.78063)
(13.5443 -5.65144e-21 -5.28769)
(13.2999 5.54583e-21 -5.64559)
(12.9929 4.53081e-20 -5.82857)
(12.469 8.44287e-21 -5.82008)
(15.0415 3.58444e-22 -0.458398)
(15.143 2.72921e-20 -1.21217)
(15.2277 7.6736e-20 -1.97528)
(15.2789 2.40507e-20 -2.72738)
(15.2765 -1.94256e-20 -3.44504)
(15.2021 2.48734e-21 -4.10136)
(15.0428 -2.54781e-20 -4.66765)
(14.7943 1.30847e-20 -5.11608)
(14.4603 3.38776e-21 -5.42253)
(14.0741 -2.36475e-20 -5.56751)
(13.4761 -9.0982e-21 -5.54121)
(16.7787 -8.79599e-20 -1.98945)
(16.7406 -3.90095e-20 -2.70204)
(16.636 3.81097e-20 -3.37001)
(16.4538 2.9802e-20 -3.9701)
(16.1888 5.21737e-20 -4.47881)
(15.8428 0 -4.87417)
(15.4242 2.7977e-20 -5.13771)
(14.9669 -1.71514e-20 -5.25495)
(14.307 7.13837e-21 -5.22172)
(17.887 -2.7908e-21 -2.60077)
(17.6864 -3.31969e-20 -3.21538)
(17.4094 -2.89699e-20 -3.76066)
(17.0562 -3.52441e-20 -4.21739)
(16.6328 -1.77989e-20 -4.5682)
(16.1507 -1.44225e-20 -4.79892)
(15.6422 -4.86044e-21 -4.89898)
(14.9423 -5.56453e-21 -4.86849)
(18.0268 -2.17411e-20 -3.48935)
(17.6172 4.22355e-20 -3.90073)
(17.1479 0 -4.21537)
(16.6313 -2.09158e-20 -4.42229)
(16.0975 1.46668e-20 -4.51377)
(15.3839 0 -4.49279)
(17.8949 1.50463e-20 -3.55202)
(17.4114 -1.48065e-20 -3.83731)
(16.8893 1.65562e-20 -4.02714)
(16.3556 4.95104e-21 -4.11578)
(15.6538 -6.19242e-21 -4.10765)
(16.9698 0 -3.63146)
(16.4562 0 -3.7202)
(15.7867 9.47377e-21 -3.72534)
(16.4445 0 -3.33874)
(15.8204 -5.1729e-22 -3.35561)
(15.7888 -3.77726e-21 -3.00499)
)
;

boundaryField
{
    inlet
    {
        type            fixedValue;
        value           nonuniform 0();
    }
    outlet
    {
        type            zeroGradient;
    }
    flap
    {
        type            movingWallVelocity;
        value           nonuniform 0();
    }
    upperWall
    {
        type            noSlip;
    }
    lowerWall
    {
        type            noSlip;
    }
    frontAndBack
    {
        type            empty;
    }
    procBoundary5to2
    {
        type            processor;
        value           nonuniform List<vector> 
34
(
(6.52 -3.67803e-21 5.14669)
(6.82881 3.43316e-20 5.01549)
(6.82881 3.43316e-20 5.01549)
(8.16793 0 4.52858)
(8.47104 0 4.23114)
(8.47104 0 4.23114)
(9.83942 1.59485e-20 3.59238)
(9.83942 1.59485e-20 3.59238)
(11.295 -1.45912e-21 2.92144)
(11.4912 -1.51411e-21 2.38381)
(11.4912 -1.51411e-21 2.38381)
(13.0556 -6.51214e-20 1.66524)
(13.1704 6.24149e-20 1.02123)
(13.1704 6.24149e-20 1.02123)
(14.9337 -8.70606e-20 0.268)
(14.9337 -8.70606e-20 0.268)
(16.7149 -9.80849e-20 -0.514843)
(16.7651 4.99007e-20 -1.25379)
(16.7651 4.99007e-20 -1.25379)
(18.0158 -7.85773e-20 -1.93655)
(18.0158 -7.85773e-20 -1.93655)
(18.6366 0 -2.43394)
(18.3679 2.54716e-20 -2.99516)
(18.3679 2.54716e-20 -2.99516)
(18.3271 -1.86876e-20 -3.18)
(18.3271 -1.86876e-20 -3.18)
(17.9456 0 -3.19358)
(17.474 -2.07847e-20 -3.45445)
(17.474 -2.07847e-20 -3.45445)
(16.9244 0 -3.24914)
(16.9244 0 -3.24914)
(16.3607 -2.35664e-21 -2.97888)
(16.3607 -2.35664e-21 -2.97888)
(15.7169 2.08502e-21 -2.67704)
)
;
    }
    procBoundary5to4
    {
        type            processor;
        value           nonuniform List<vector> 
18
(
(-8.53124 0 0.41375)
(-8.67479 -4.18476e-20 1.1059)
(-8.35317 1.33512e-19 1.79664)
(-7.81257 1.91729e-19 2.44486)
(-7.1331 0 3.04078)
(-6.34479 -5.02534e-19 3.58909)
(-5.46326 1.03365e-19 4.08698)
(-4.49956 2.11874e-19 4.53008)
(-3.46445 2.53715e-19 4.91348)
(-2.37002 -6.3665e-20 5.23229)
(-1.23083 2.02629e-19 5.48166)
(-0.0641159 -1.42609e-19 5.65941)
(1.10725 0 5.76065)
(2.25998 0 5.78259)
(3.37634 0 5.73081)
(3.37634 0 5.73081)
(4.26851 1.48732e-20 5.71195)
(5.24279 0 5.48298)
)
;
    }
}


// ************************************************************************* //
