/*--------------------------------*- C++ -*----------------------------------*\
| =========                 |                                                 |
| \\      /  F ield         | OpenFOAM: The Open Source CFD Toolbox           |
|  \\    /   O peration     | Version:  dev                                   |
|   \\  /    A nd           | Web:      www.OpenFOAM.org                      |
|    \\/     M anipulation  |                                                 |
\*---------------------------------------------------------------------------*/
FoamFile
{
    version     2.0;
    format      ascii;
    class       volVectorField;
    location    "1.76";
    object      Force;
}
// * * * * * * * * * * * * * * * * * * * * * * * * * * * * * * * * * * * * * //

dimensions      [1 1 -2 0 0 0 0];

internalField   uniform (0 0 0);

boundaryField
{
    inlet
    {
        type            calculated;
        value           nonuniform 0();
    }
    outlet
    {
        type            calculated;
        value           nonuniform 0();
    }
    flap
    {
        type            calculated;
        value           nonuniform List<vector> 
33
(
(2.42664 -1.03364e-21 -0.189666)
(2.37659 1.40534e-17 -0.469645)
(2.23949 -4.69452e-22 -0.730581)
(2.0217 4.0547e-22 -0.911645)
(1.76058 1.03281e-17 -1.00833)
(1.49452 9.32043e-18 -1.03358)
(1.24955 -3.34829e-23 -1.00742)
(1.03976 -3.26882e-21 -0.949502)
(0.8668 -2.5264e-21 -0.874825)
(0.726882 5.5836e-38 -0.792365)
(0.614125 -1.51463e-21 -0.70679)
(0.518938 -4.33126e-18 -0.617336)
(0.430062 -2.92131e-17 -0.519475)
(0.335344 -2.84838e-18 -0.4053)
(0.22038 -1.86615e-18 -0.265076)
(0.63695 8.81839e-21 0.516113)
(0.419306 -8.00951e-21 0.338257)
(0.198934 6.91233e-19 0.162035)
(0.0391114 -3.40687e-23 -0.00314513)
(0.0388265 -5.89243e-24 -0.00775632)
(0.0382575 1.18387e-17 -0.0126491)
(0.0374158 -1.22204e-17 -0.01705)
(0.0364203 7.67528e-23 -0.021093)
(0.0353961 -1.28202e-17 -0.0247748)
(0.0344638 -1.26955e-19 -0.0281328)
(0.0336851 2.5926e-19 -0.0311929)
(0.033139 -2.71354e-22 -0.0339749)
(0.0328704 -2.72483e-19 -0.0364686)
(0.0328216 4.85352e-23 -0.0385431)
(0.0329636 1.5609e-17 -0.0401104)
(0.0333442 1.6985e-17 -0.0412875)
(0.034686 -4.83385e-23 -0.0425846)
(0.0450173 3.3392e-17 -0.0562386)
)
;
    }
    upperWall
    {
        type            calculated;
        value           nonuniform 0();
    }
    lowerWall
    {
        type            calculated;
        value           uniform (0 0 0);
    }
    frontAndBack
    {
        type            empty;
    }
    procBoundary4to1
    {
        type            processor;
        value           uniform (0 0 0);
    }
    procBoundary4to2
    {
        type            processor;
        value           uniform (0 0 0);
    }
    procBoundary4to3
    {
        type            processor;
        value           uniform (0 0 0);
    }
    procBoundary4to5
    {
        type            processor;
        value           uniform (0 0 0);
    }
}


// ************************************************************************* //
