/*--------------------------------*- C++ -*----------------------------------*\
| =========                 |                                                 |
| \\      /  F ield         | OpenFOAM: The Open Source CFD Toolbox           |
|  \\    /   O peration     | Version:  dev                                   |
|   \\  /    A nd           | Web:      www.OpenFOAM.org                      |
|    \\/     M anipulation  |                                                 |
\*---------------------------------------------------------------------------*/
FoamFile
{
    version     2.0;
    format      ascii;
    class       surfaceScalarField;
    location    "1.42";
    object      meshPhi;
}
// * * * * * * * * * * * * * * * * * * * * * * * * * * * * * * * * * * * * * //

dimensions      [0 3 -1 0 0 0 0];

internalField   nonuniform List<scalar> 
881
(
-1.35336e-05
2.80036e-07
-2.71263e-05
8.44164e-07
-4.12222e-05
1.45132e-06
-5.56908e-05
2.12086e-06
-6.95763e-05
2.82213e-06
-8.1536e-05
3.49045e-06
-9.02227e-05
4.05042e-06
-9.45792e-05
4.43374e-06
-9.40385e-05
4.59245e-06
-8.8614e-05
4.50467e-06
-7.88741e-05
4.17815e-06
-6.58322e-05
3.64883e-06
-5.07786e-05
2.97188e-06
-3.50904e-05
2.21373e-06
-2.00532e-05
1.44231e-06
-6.72036e-06
7.18601e-07
4.17568e-06
9.00159e-08
1.2255e-05
-4.13102e-07
1.7472e-05
-7.77913e-07
2.008e-05
-1.00789e-06
-1.09046e-06
-1.33367e-05
5.51789e-07
-2.68292e-05
1.66741e-06
-4.09348e-05
2.87685e-06
-5.55053e-05
4.21857e-06
-6.9564e-05
5.6301e-06
-8.17406e-05
6.98059e-06
-9.06553e-05
8.11734e-06
-9.52186e-05
8.90048e-06
-9.48328e-05
9.22851e-06
-8.94904e-05
9.06137e-06
-7.97531e-05
8.41741e-06
-6.66378e-05
7.36356e-06
-5.14484e-05
6.00991e-06
-3.55818e-05
4.48982e-06
-2.03463e-05
2.9401e-06
-6.81742e-06
1.48399e-06
4.25377e-06
2.17508e-07
1.24738e-05
-7.97685e-07
1.77862e-05
-1.53504e-06
2.04261e-05
-2.00029e-06
-2.17062e-06
-1.31402e-05
8.09506e-07
-2.65298e-05
2.45379e-06
-4.06376e-05
4.2525e-06
-5.53029e-05
6.26281e-06
-6.95317e-05
8.38934e-06
-8.19313e-05
1.04341e-05
-9.10929e-05
1.21658e-05
-9.58936e-05
1.33727e-05
-9.57077e-05
1.38999e-05
-9.05044e-05
1.36826e-05
-8.0829e-05
1.27441e-05
-6.76938e-05
1.11834e-05
-5.24084e-05
9.16471e-06
-3.6383e-05
6.88778e-06
-2.0945e-05
4.55839e-06
-7.19303e-06
2.36323e-06
4.09983e-06
4.48346e-07
1.25218e-05
-1.09208e-06
1.80016e-05
-2.21634e-06
2.07652e-05
-2.93094e-06
-3.20343e-06
-1.29641e-05
1.04823e-06
-2.62517e-05
3.18897e-06
-4.03471e-05
5.55563e-06
-5.50843e-05
8.22392e-06
-6.94588e-05
1.10651e-05
-8.20648e-05
1.38136e-05
-9.14728e-05
1.61596e-05
-9.65321e-05
1.78193e-05
-9.65896e-05
1.85843e-05
-9.15876e-05
1.83581e-05
-8.20474e-05
1.71631e-05
-6.89673e-05
1.51295e-05
-5.36524e-05
1.24732e-05
-3.75158e-05
9.45838e-06
-2.1897e-05
6.35805e-06
-7.91702e-06
3.42349e-06
3.62754e-06
8.52005e-07
1.23035e-05
-1.22872e-06
1.80215e-05
-2.76008e-06
2.09998e-05
-3.74779e-06
-4.14783e-06
-1.27471e-05
1.26248e-06
-2.59007e-05
3.85815e-06
-3.99694e-05
6.76533e-06
-5.47837e-05
1.00775e-05
-6.93268e-05
1.36304e-05
-8.21795e-05
1.70928e-05
-9.18912e-05
2.00779e-05
-9.72808e-05
2.22271e-05
-9.76597e-05
2.32747e-05
-9.29341e-05
2.30898e-05
-8.35957e-05
2.16904e-05
-7.06223e-05
1.92322e-05
-5.53107e-05
1.59794e-05
-3.90715e-05
1.22574e-05
-2.32538e-05
8.4043e-06
-9.00681e-06
4.73405e-06
2.84431e-06
1.49672e-06
1.18411e-05
-1.14342e-06
1.78696e-05
-3.1084e-06
2.11315e-05
-4.40091e-06
-4.96269e-06
-1.24826e-05
1.4469e-06
-2.54666e-05
4.44673e-06
-3.94909e-05
7.86023e-06
-5.43843e-05
1.17979e-05
-6.91187e-05
1.60596e-05
-8.22597e-05
2.02497e-05
-9.23333e-05
2.39046e-05
-9.81245e-05
2.65887e-05
-9.89043e-05
2.79752e-05
-9.45361e-05
2.7895e-05
-8.54747e-05
2.63562e-05
-7.26702e-05
2.35343e-05
-5.74056e-05
1.97362e-05
-4.10867e-05
1.5345e-05
-2.5071e-05
1.07639e-05
-1.05341e-05
6.36626e-06
1.6672e-06
2.45472e-06
1.10432e-05
-7.66517e-07
1.74465e-05
-3.19586e-06
2.1056e-05
-4.8298e-06
-5.59369e-06
-1.21655e-05
1.59504e-06
-2.49412e-05
4.9369e-06
-3.89004e-05
8.81385e-06
-5.38712e-05
1.33542e-05
-6.88184e-05
1.83233e-05
-8.22895e-05
2.32591e-05
-9.27832e-05
2.76185e-05
-9.90495e-05
3.08891e-05
-0.000100314
3.26802e-05
-9.63924e-05
3.27795e-05
-8.76935e-05
3.11788e-05
-7.5133e-05
2.80668e-05
-5.9971e-05
2.37867e-05
-4.36086e-05
1.87741e-05
-2.74139e-05
1.34944e-05
-1.25854e-05
8.38412e-06
-8.22918e-09
3.79802e-06
9.79179e-06
-2.15747e-08
1.66234e-05
-2.94653e-06
2.06336e-05
-4.96098e-06
-5.96977e-06
-1.17892e-05
1.70058e-06
-2.43145e-05
5.31133e-06
-3.81877e-05
9.60117e-06
-5.32353e-05
1.4716e-05
-6.84145e-05
2.03855e-05
-8.22542e-05
2.60799e-05
-9.32251e-05
3.11769e-05
-0.000100041
3.50875e-05
-0.000101878
3.73545e-05
-9.84975e-05
3.77175e-05
-9.02564e-05
3.61446e-05
-7.80286e-05
3.28312e-05
-6.3046e-05
2.81508e-05
-4.66975e-05
2.25845e-05
-3.03596e-05
1.66541e-05
-1.5255e-05
1.08567e-05
-2.29996e-06
5.6021e-06
7.94428e-06
1.17367e-06
1.52383e-05
-2.27265e-06
1.96847e-05
-4.70386e-06
-5.99866e-06
-1.13462e-05
1.75801e-06
-2.35746e-05
5.55512e-06
-3.73399e-05
1.02005e-05
-5.24624e-05
1.58555e-05
-6.78886e-05
2.22109e-05
-8.21297e-05
2.86707e-05
-9.36307e-05
3.45353e-05
-0.000101067
3.91393e-05
-0.000103566
4.19576e-05
-0.000100827
4.26785e-05
-9.31499e-05
4.12401e-05
-8.136e-05
3.78316e-05
-6.66549e-05
3.28465e-05
-5.04063e-05
2.68088e-05
-3.39922e-05
2.02945e-05
-1.86529e-05
1.38532e-05
-5.34378e-06
7.94863e-06
5.33209e-06
2.91169e-06
1.30922e-05
-1.07137e-06
1.79853e-05
-3.94849e-06
-5.56576e-06
-1.08272e-05
1.76185e-06
-2.27069e-05
5.65393e-06
-3.634e-05
1.05922e-05
-5.1532e-05
1.67494e-05
-6.7215e-05
2.37735e-05
-8.18848e-05
3.10026e-05
-9.39629e-05
3.76627e-05
-0.000102089
4.30131e-05
-0.000105338
4.64604e-05
-0.000103349
4.76387e-05
-9.63548e-05
4.64504e-05
-8.51255e-05
4.30648e-05
-7.08135e-05
3.78839e-05
-5.47728e-05
3.1469e-05
-3.83852e-05
2.44495e-05
-2.28965e-05
1.74287e-05
-9.29465e-06
1.09171e-05
1.76512e-06
5.29099e-06
9.95428e-06
7.72786e-07
1.52649e-05
-2.56208e-06
-4.52876e-06
-1.02212e-05
1.70691e-06
-2.16948e-05
5.59439e-06
-3.51706e-05
1.07585e-05
-5.04248e-05
1.73771e-05
-6.63708e-05
2.50485e-05
-8.14904e-05
3.30461e-05
-9.41863e-05
4.05241e-05
-0.000103065
4.66698e-05
-0.000107151
5.08213e-05
-0.00010602
5.2554e-05
-9.98374e-05
5.17266e-05
-8.93065e-05
4.84863e-05
-7.55288e-05
4.32389e-05
-5.98304e-05
3.65688e-05
-4.35971e-05
2.91457e-05
-2.80854e-05
2.16286e-05
-1.43034e-05
1.4578e-05
-2.95541e-06
8.4109e-06
5.57364e-06
3.38639e-06
1.12153e-05
-3.91953e-07
-2.71554e-06
-9.51582e-06
1.58772e-06
-2.05216e-05
5.36267e-06
-3.38177e-05
1.06816e-05
-4.91266e-05
1.77168e-05
-6.53373e-05
2.6007e-05
-8.09202e-05
3.47619e-05
-9.42648e-05
4.30691e-05
-0.00010395
5.00481e-05
-0.00010895
5.49707e-05
-0.000108781
5.73513e-05
-0.000103536
5.7001e-05
-9.38505e-05
5.40413e-05
-8.07724e-05
4.88717e-05
-6.5588e-05
4.2089e-05
-4.96695e-05
3.43909e-05
-3.42928e-05
2.64847e-05
-2.04931e-05
1.89867e-05
-9.01248e-06
1.23572e-05
-2.93938e-07
6.88948e-06
5.52522e-06
2.71745e-06
5.73433e-08
-8.69606e-06
1.39857e-06
-1.91684e-05
4.94511e-06
-3.22686e-05
1.03464e-05
-4.76248e-05
1.7752e-05
-6.40961e-05
2.66257e-05
-8.01443e-05
3.6116e-05
-9.41532e-05
4.52511e-05
-0.000104683
5.30915e-05
-0.000110665
5.88437e-05
-0.000111552
6.19597e-05
-0.00010737
6.22044e-05
-9.8683e-05
5.96662e-05
-8.6478e-05
5.47223e-05
-7.20026e-05
4.79755e-05
-5.66017e-05
4.0153e-05
-4.15572e-05
3.19981e-05
-2.79423e-05
2.41748e-05
-1.65382e-05
1.71922e-05
-7.84311e-06
1.138e-05
-2.0671e-06
6.90273e-06
3.95916e-06
-7.7463e-06
1.1343e-06
-1.76144e-05
4.32958e-06
-3.05117e-05
9.74274e-06
-4.59075e-05
1.74756e-05
-6.2629e-05
2.68936e-05
-7.91346e-05
3.70909e-05
-9.38092e-05
4.70427e-05
-0.000105204
5.57565e-05
-0.000112215
6.2379e-05
-0.000114237
6.63032e-05
-0.000111234
6.7246e-05
-0.000103698
6.52585e-05
-9.25453e-05
6.06929e-05
-7.89813e-05
5.41467e-05
-6.43251e-05
4.63667e-05
-4.98502e-05
3.8128e-05
-3.666e-05
3.01339e-05
-2.55819e-05
2.29381e-05
-1.71699e-05
1.691e-05
-1.17048e-05
1.22471e-05
9.1028e-06
-6.83165e-06
-1.59565e-05
-2.8527e-05
8.93872e-06
-4.39584e-05
1.68774e-05
-6.09126e-05
2.68063e-05
-7.78574e-05
3.76776e-05
-9.31852e-05
4.84249e-05
-0.000105445
5.80067e-05
-0.000113512
6.55223e-05
-0.000116736
7.0317e-05
-0.000115017
7.20579e-05
-0.000108778
7.07508e-05
-9.88644e-05
6.67208e-05
-8.64268e-05
6.05537e-05
-7.27541e-05
5.3e-05
-5.9109e-05
4.48579e-05
-4.66122e-05
3.68662e-05
-3.61336e-05
2.96197e-05
-2.82836e-05
2.35263e-05
-2.34096e-05
1.88172e-05
1.55678e-05
-2.74578e-05
-4.33422e-05
1.6038e-05
-6.11788e-05
2.6329e-05
-7.92036e-05
3.78505e-05
-9.57726e-05
4.93688e-05
-0.00010939
5.98143e-05
-0.000118882
6.8252e-05
-0.000123534
7.3983e-05
-0.000123181
7.66232e-05
-0.000118191
7.6131e-05
-0.00010937
7.27985e-05
-9.78499e-05
6.71908e-05
-8.49259e-05
6.00529e-05
-7.18907e-05
5.21969e-05
-5.99174e-05
4.439e-05
-4.99455e-05
3.72634e-05
-4.26588e-05
3.12609e-05
-3.84714e-05
2.66414e-05
2.33695e-05
-4.18748e-05
-6.01811e-05
2.55465e-05
-7.90633e-05
3.75609e-05
-9.66739e-05
4.98372e-05
-0.000111519
6.11416e-05
-0.000122398
7.05222e-05
-0.00012855
7.72371e-05
-0.00012975
8.08586e-05
-0.000126304
8.13038e-05
-0.000118961
7.88205e-05
-0.000108802
7.39409e-05
-9.71056e-05
6.73973e-05
-8.51635e-05
6.00057e-05
-7.41757e-05
5.25534e-05
-6.51271e-05
4.5701e-05
-5.87556e-05
3.99234e-05
-5.55128e-05
3.54999e-05
3.2273e-05
-5.88766e-05
-7.84498e-05
3.69031e-05
-9.7115e-05
4.9784e-05
-0.000113216
6.19373e-05
-0.000125533
7.22582e-05
-0.000133265
7.99799e-05
-0.00013615
8.46407e-05
-0.000134422
8.61179e-05
-0.000128759
8.4607e-05
-0.000120189
8.05973e-05
-0.000109959
7.48003e-05
-9.93486e-05
6.80273e-05
-8.95593e-05
6.1069e-05
-8.16055e-05
5.46053e-05
-7.62585e-05
4.91337e-05
-7.40001e-05
4.49554e-05
4.18585e-05
-7.74376e-05
-9.70147e-05
4.9275e-05
-0.00011439
6.21483e-05
-0.00012817
7.34057e-05
-0.000137515
8.21295e-05
-0.000142164
8.78506e-05
-0.000142274
9.04183e-05
-0.000138437
8.99662e-05
-0.000131616
8.69324e-05
-0.000123008
8.19919e-05
-0.000113872
7.59418e-05
-0.000105378
6.95685e-05
-9.8535e-05
6.35506e-05
-9.41082e-05
5.83853e-05
-9.25858e-05
5.43779e-05
5.12528e-05
-9.63725e-05
-0.000114956
6.18157e-05
-0.000130195
7.39228e-05
-0.000141115
8.36135e-05
-0.000147547
9.03694e-05
-0.000149547
9.4045e-05
-0.000147597
9.46893e-05
-0.000142594
9.26831e-05
-0.000135652
8.86553e-05
-0.000127997
8.33686e-05
-0.000120745
7.7601e-05
-0.000114843
7.20105e-05
-0.000110981
6.70628e-05
-0.000109526
6.30092e-05
5.93493e-05
-0.000114717
-0.000131417
-0.000143873
8.43274e-05
-0.000152032
9.20892e-05
-0.000155896
9.68452e-05
-0.000155783
9.85692e-05
-0.000152546
9.75716e-05
-0.000147182
9.44383e-05
-0.000140872
8.98893e-05
-0.000134652
8.46859e-05
-0.000129355
7.94425e-05
-0.000125523
7.45735e-05
-0.000123273
7.02576e-05
6.57893e-05
-0.000145395
-0.00015537
9.28144e-05
-0.000160984
9.87123e-05
-0.000162524
0.000101425
-0.000160879
0.000101347
-0.000156838
9.90078e-05
-0.000151601
9.50848e-05
-0.00014608
9.03479e-05
-0.000140955
8.53376e-05
-0.000136606
8.0412e-05
-0.000132925
7.57114e-05
7.04828e-05
-0.000156653
-0.000164192
-0.000167424
0.000102949
-0.000167065
0.000103854
-0.000163879
0.000102088
-0.000159325
9.85815e-05
-0.000154098
9.41716e-05
-0.000148699
8.92644e-05
-0.000143389
8.41712e-05
-0.000137959
7.90287e-05
7.31255e-05
-0.000169189
-0.000170307
-0.000167698
0.000103269
-0.000163313
0.000100122
-0.000157964
9.58453e-05
-0.000151882
9.09168e-05
-0.000145307
8.55683e-05
-0.000138027
7.9974e-05
7.35211e-05
-0.00016731
-0.000163061
9.92117e-05
-0.000157208
9.52311e-05
-0.000150073
9.01412e-05
-0.000142071
8.44633e-05
-0.00013297
7.84352e-05
7.15426e-05
-0.000157375
-0.000151333
-0.000143181
8.67777e-05
-0.000133647
8.09135e-05
-0.000122756
7.44127e-05
6.71289e-05
-0.000130553
-0.000119933
-0.000107463
6.7868e-05
6.03367e-05
-8.67047e-05
)
;

boundaryField
{
    inlet
    {
        type            calculated;
        value           uniform 0;
    }
    outlet
    {
        type            calculated;
        value           nonuniform 0();
    }
    flap
    {
        type            calculated;
        value           nonuniform 0();
    }
    upperWall
    {
        type            calculated;
        value           nonuniform 0();
    }
    lowerWall
    {
        type            calculated;
        value           uniform 0;
    }
    frontAndBack
    {
        type            empty;
        value           nonuniform 0();
    }
    procBoundary3to0
    {
        type            processor;
        value           nonuniform List<scalar> 
34
(
9.2701e-07
3.7237e-06
1.5143e-05
8.24931e-06
2.62884e-05
1.53214e-05
4.06682e-05
2.48377e-05
5.76981e-05
3.61953e-05
7.62935e-05
4.85193e-05
9.51864e-05
6.0915e-05
7.36973e-05
0.000131214
8.38414e-05
0.000144575
9.15759e-05
9.89019e-05
0.000163731
0.000101598
0.000104075
0.00016859
0.000101215
0.000160541
9.43136e-05
9.14828e-05
0.000138791
7.95813e-05
7.43535e-05
9.99032e-05
5.7927e-05
5.07501e-05
)
;
    }
    procBoundary3to1
    {
        type            processor;
        value           nonuniform List<scalar> 9(-0.000108639 -0.000120157 -0.00012716 -0.000129736 -0.000127636 -0.000120764 -0.000109035 -9.24114e-05 -7.07196e-05);
    }
    procBoundary3to4
    {
        type            processor;
        value           nonuniform List<scalar> 
19
(
1.98308e-05
2.02123e-05
2.06369e-05
2.10092e-05
2.13305e-05
2.14997e-05
2.13702e-05
2.07465e-05
1.93841e-05
1.69909e-05
1.32259e-05
7.73088e-06
1.9463e-07
-9.56561e-06
-2.15725e-05
-3.70142e-05
-5.4531e-05
-7.3588e-05
-9.25292e-05
)
;
    }
}


// ************************************************************************* //
