/*--------------------------------*- C++ -*----------------------------------*\
| =========                 |                                                 |
| \\      /  F ield         | OpenFOAM: The Open Source CFD Toolbox           |
|  \\    /   O peration     | Version:  dev                                   |
|   \\  /    A nd           | Web:      www.OpenFOAM.org                      |
|    \\/     M anipulation  |                                                 |
\*---------------------------------------------------------------------------*/
FoamFile
{
    version     2.0;
    format      ascii;
    class       surfaceScalarField;
    location    "1.73";
    object      meshPhi;
}
// * * * * * * * * * * * * * * * * * * * * * * * * * * * * * * * * * * * * * //

dimensions      [0 3 -1 0 0 0 0];

internalField   nonuniform List<scalar> 
879
(
1.27607e-05
-5.26871e-06
-1.48978e-05
1.30666e-05
-5.60237e-06
2.50049e-05
-1.58375e-05
-2.4533e-05
1.34278e-05
-5.93112e-06
2.56916e-05
-1.67744e-05
3.68273e-05
-2.59942e-05
-3.39226e-05
1.38127e-05
-6.2511e-06
2.64509e-05
-1.76871e-05
3.7928e-05
-2.74271e-05
4.86369e-05
-3.5824e-05
-4.31489e-05
1.42192e-05
-6.5592e-06
2.72493e-05
-1.85677e-05
3.9112e-05
-2.88139e-05
5.01882e-05
-3.76688e-05
6.05762e-05
-4.54378e-05
-5.21457e-05
1.46438e-05
-6.85185e-06
2.80822e-05
-1.94056e-05
4.03418e-05
-3.01378e-05
5.18175e-05
-3.94344e-05
6.26062e-05
-4.76115e-05
7.25215e-05
-5.47419e-05
-6.06656e-05
1.50805e-05
-7.12273e-06
2.89377e-05
-2.01833e-05
4.16027e-05
-3.13705e-05
5.34789e-05
-4.10813e-05
6.4677e-05
-4.96484e-05
7.504e-05
-5.71552e-05
8.41591e-05
-6.35036e-05
9.1409e-05
-6.84395e-05
-7.15909e-05
1.55209e-05
-7.36565e-06
2.98021e-05
-2.08843e-05
4.28778e-05
-3.24898e-05
5.51581e-05
-4.25863e-05
6.67678e-05
-5.15205e-05
7.7567e-05
-5.9398e-05
8.72042e-05
-6.61294e-05
9.51453e-05
-7.14901e-05
0.00010081
-7.52623e-05
-7.71557e-05
1.59614e-05
-7.57939e-06
3.06698e-05
-2.15038e-05
4.41558e-05
-3.3482e-05
5.68384e-05
-4.39254e-05
6.8857e-05
-5.31937e-05
8.00914e-05
-6.14086e-05
9.02146e-05
-6.85056e-05
9.87521e-05
-7.4302e-05
0.000105256
-7.85732e-05
0.000109182
-8.11352e-05
0.000109926
-8.17542e-05
-8.0217e-05
1.63993e-05
-7.75977e-06
3.15318e-05
-2.2028e-05
4.54206e-05
-3.4322e-05
5.84963e-05
-4.50618e-05
7.09153e-05
-5.46231e-05
8.25819e-05
-6.31457e-05
9.32007e-05
-7.05888e-05
0.000102351
-7.68004e-05
0.000109591
-8.15872e-05
0.000114541
-8.476e-05
0.000116757
-8.61227e-05
0.000116091
-8.56462e-05
0.000112514
-8.34166e-05
-7.95348e-05
1.68255e-05
-7.89817e-06
3.23698e-05
-2.24334e-05
4.66519e-05
-3.49813e-05
6.0117e-05
-4.59704e-05
7.2933e-05
-5.57844e-05
8.50259e-05
-6.45767e-05
9.61362e-05
-7.23302e-05
0.000105894
-7.8924e-05
0.000113911
-8.42024e-05
0.000119819
-8.79941e-05
0.000123281
-9.01481e-05
0.000124285
-9.06336e-05
0.000122847
-8.95185e-05
0.00011928
-8.70587e-05
-8.35104e-05
1.72325e-05
-7.99059e-06
3.3176e-05
-2.27124e-05
4.7845e-05
-3.54503e-05
6.16927e-05
-4.66326e-05
7.48954e-05
-5.66463e-05
8.74021e-05
-6.56576e-05
9.89977e-05
-7.36793e-05
0.000109362
-8.06203e-05
0.000118156
-8.63546e-05
0.000125056
-9.07409e-05
0.000129807
-9.36594e-05
0.000132353
-9.50863e-05
0.000132765
-9.50916e-05
0.000131443
-9.38456e-05
0.000128688
-9.16569e-05
0.000124641
-8.87768e-05
-8.54138e-05
1.76179e-05
-8.03394e-06
3.39466e-05
-2.28549e-05
4.89924e-05
-3.57105e-05
6.32093e-05
-4.70189e-05
7.67894e-05
-5.71749e-05
8.97056e-05
-6.63572e-05
0.000101779
-7.45987e-05
0.000112741
-8.18383e-05
0.000122302
-8.79797e-05
0.000130195
-9.29151e-05
0.000136215
-9.65487e-05
0.00014031
-9.88654e-05
0.000142579
-9.99327e-05
0.00014329
-9.98885e-05
0.000142874
-9.89699e-05
0.000141646
-9.74166e-05
0.000140175
-9.55433e-05
0.000138973
-9.3695e-05
-9.20052e-05
1.79791e-05
-8.02333e-06
3.4674e-05
-2.28456e-05
5.00863e-05
-3.57408e-05
6.46669e-05
-4.71116e-05
7.86176e-05
-5.73491e-05
9.19345e-05
-6.6644e-05
0.000104476
-7.50492e-05
0.000116022
-8.25315e-05
0.000126335
-8.90222e-05
0.000135199
-9.4443e-05
0.000142451
-9.87198e-05
0.000148061
-0.000101852
0.000152127
-0.000103897
0.000154872
-0.000104964
0.000156647
-0.000105257
0.000157821
-0.000104997
0.000158959
-0.000104423
0.000160481
-0.000103789
0.000162654
-0.000103322
0.000165505
-0.000103097
-0.000102528
1.83187e-05
-7.95931e-06
3.53651e-05
-2.2685e-05
5.11339e-05
-3.55346e-05
6.60703e-05
-4.68934e-05
8.03852e-05
-5.71461e-05
9.4095e-05
-6.64902e-05
0.000107095
-7.49972e-05
0.000119209
-8.2658e-05
0.000130249
-8.94303e-05
0.000140048
-9.52618e-05
0.000148479
-0.000100095
0.000155532
-0.000103941
0.0001613
-0.000106851
0.000165972
-0.00010891
0.000169852
-0.000110292
0.000173285
-0.000111177
0.000176692
-0.000111764
0.000180466
-0.00011228
0.000185
-0.000112948
0.000190115
-0.000113698
1.8643e-05
-7.84003e-06
3.60288e-05
-2.23668e-05
5.21455e-05
-3.50816e-05
6.74316e-05
-4.63498e-05
8.21071e-05
-5.65468e-05
9.62092e-05
-6.58772e-05
0.000109656
-7.44181e-05
0.000122314
-8.21818e-05
0.000134051
-8.91603e-05
0.000144739
-9.5317e-05
0.000154277
-0.000100606
0.000162672
-0.000105048
0.000170006
-0.000108682
0.000176441
-0.000111579
0.000182231
-0.000113876
0.000187678
-0.000115724
0.000193132
-0.000117294
0.000198954
-0.000118777
0.000205491
-0.000120363
-0.000121809
1.89593e-05
-7.6638e-06
3.66779e-05
-2.18859e-05
5.31392e-05
-3.43737e-05
6.87777e-05
-4.54737e-05
8.38112e-05
-5.55401e-05
9.82967e-05
-6.47798e-05
0.000112184
-7.32871e-05
0.00012537
-8.10837e-05
0.000137766
-8.81799e-05
0.000149281
-9.45618e-05
0.000159839
-0.000100198
0.000169444
-0.000105096
0.000178168
-0.000109291
0.000186154
-0.000112851
0.000193616
-0.00011588
0.00020081
-0.000118503
0.000208023
-0.000120857
0.000215544
-0.000123082
0.000223634
-0.000125304
-0.000127255
1.92767e-05
-7.42916e-06
3.73351e-05
-2.12431e-05
5.41437e-05
-3.34102e-05
7.01333e-05
-4.42519e-05
8.5528e-05
-5.41119e-05
0.000100395
-6.31866e-05
0.000114716
-7.15838e-05
0.00012842
-7.93416e-05
0.000141433
-8.64655e-05
0.000153695
-9.29596e-05
0.000165155
-9.88101e-05
0.00017581
-0.000104017
0.000185732
-0.000108615
0.000195049
-0.000112666
0.000203937
-0.000116248
0.0002126
-0.000119456
0.000221259
-0.000122392
0.000230129
-0.000125159
0.00023938
-0.000127844
-0.00013021
1.96095e-05
-7.13762e-06
3.80203e-05
-2.04331e-05
5.51893e-05
-3.21855e-05
7.15375e-05
-4.26818e-05
8.73008e-05
-5.22519e-05
0.000102559
-6.10899e-05
0.000117306
-6.92959e-05
0.000131497
-7.69214e-05
0.00014507
-8.39782e-05
0.000157984
-9.04712e-05
0.000170211
-9.64026e-05
0.000181762
-0.000101781
0.000192704
-0.000106637
0.000203139
-0.000111013
0.000213205
-0.000114969
0.000223058
-0.000118574
0.000232863
-0.000121903
0.000242777
-0.000125028
0.000252915
-0.00012801
-0.000130659
1.99755e-05
-6.79201e-06
3.87601e-05
-1.94597e-05
5.63136e-05
-3.06971e-05
7.30445e-05
-4.07646e-05
8.91858e-05
-4.99579e-05
0.000104832
-5.84702e-05
0.000119984
-6.63977e-05
0.000134612
-7.37922e-05
0.000148678
-8.06799e-05
0.000162156
-8.70695e-05
0.000175041
-9.29698e-05
0.00018735
-9.83935e-05
0.000199137
-0.000103361
0.000210481
-0.000107904
0.000221486
-0.000112066
0.000232266
-0.000115894
0.000242941
-0.000119441
0.000253621
-0.000122755
0.000264386
-0.000125879
-0.000128674
2.03878e-05
-6.38854e-06
3.95908e-05
-1.83245e-05
5.75637e-05
-2.89483e-05
7.46958e-05
-3.84893e-05
9.12141e-05
-4.72135e-05
0.000107228
-5.53042e-05
0.000122753
-6.28618e-05
0.000137777
-6.9938e-05
0.000152281
-7.65631e-05
0.000166256
-8.27523e-05
0.000179702
-8.85141e-05
0.000192639
-9.38593e-05
0.000205108
-9.88032e-05
0.000217169
-0.000103368
0.000228893
-0.000107582
0.000240364
-0.000111476
0.000251662
-0.000115086
0.000262861
-0.000118442
0.000274013
-0.000121573
-0.00012438
2.08665e-05
-5.93188e-06
4.05421e-05
-1.70288e-05
5.89563e-05
-2.69272e-05
7.6492e-05
-3.5834e-05
9.33834e-05
-4.39958e-05
0.000109751
-5.15784e-05
0.00012563
-5.86792e-05
0.000141023
-6.53524e-05
0.000155926
-7.16268e-05
0.000170335
-7.75181e-05
0.000184256
-8.30355e-05
0.000197705
-8.81874e-05
0.000210713
-9.2984e-05
0.00022332
-9.74392e-05
0.000235576
-0.00010157
0.000247534
-0.000105395
0.000259245
-0.000108935
0.000270752
-0.000112207
0.000282089
-0.000115229
-0.000117938
2.14149e-05
-5.41727e-06
4.16024e-05
-1.55583e-05
6.04724e-05
-2.46185e-05
7.842e-05
-3.27894e-05
9.56913e-05
-4.02958e-05
0.000112415
-4.72843e-05
0.000128641
-5.38443e-05
0.000144386
-6.00268e-05
0.000159654
-6.586e-05
0.000174445
-7.13588e-05
0.000188767
-7.65315e-05
0.000202632
-8.13839e-05
0.000216058
-8.59218e-05
0.000229074
-9.01519e-05
0.000241706
-9.40826e-05
0.000253987
-9.77231e-05
0.000265943
-0.000101083
0.000277597
-0.000104171
0.000288961
-0.000106994
-0.00010952
2.20065e-05
-4.83595e-06
4.27379e-05
-1.38988e-05
6.20926e-05
-2.20151e-05
8.04757e-05
-2.93524e-05
9.81433e-05
-3.61081e-05
0.000115233
-4.24112e-05
0.000131808
-4.8341e-05
0.000147894
-5.3944e-05
0.000163501
-5.92457e-05
0.000178635
-6.42596e-05
0.000193301
-6.89924e-05
0.000207506
-7.34469e-05
0.00022126
-7.76252e-05
0.000234577
-8.15286e-05
0.000247471
-8.51592e-05
0.000259954
-8.8519e-05
0.000272035
-9.161e-05
0.000283721
-9.44339e-05
0.000295011
-9.69918e-05
-9.92746e-05
2.26217e-05
-4.18955e-06
4.39298e-05
-1.20517e-05
6.38046e-05
-1.9113e-05
8.26521e-05
-2.55129e-05
0.000100737
-3.14192e-05
0.000118207
-3.69417e-05
0.000135137
-4.21488e-05
0.000151562
-4.70807e-05
0.000167497
-5.17596e-05
0.000182949
-5.61969e-05
0.000197921
-6.03968e-05
0.000212416
-6.43603e-05
0.000226437
-6.8086e-05
0.000239986
-7.15718e-05
0.000253065
-7.48151e-05
0.000265674
-7.78131e-05
0.000277809
-8.05629e-05
0.000289463
-8.30617e-05
0.000300627
-8.53069e-05
-8.73053e-05
2.3255e-05
-3.47848e-06
4.51668e-05
-1.00162e-05
6.5592e-05
-1.59064e-05
8.49323e-05
-2.12602e-05
0.000103459
-2.62131e-05
0.000121329
-3.08549e-05
0.000138629
-3.52416e-05
0.0001554
-3.94066e-05
0.000171663
-4.3368e-05
0.000187425
-4.71343e-05
0.000202688
-5.07083e-05
0.000217451
-5.40888e-05
0.000231709
-5.72724e-05
0.000245457
-6.02548e-05
0.000258687
-6.30307e-05
0.000271389
-6.55946e-05
0.000283551
-6.79409e-05
0.000295159
-7.0064e-05
0.000306198
-7.19594e-05
-7.36432e-05
2.39005e-05
-2.70258e-06
4.64344e-05
-7.79014e-06
6.74342e-05
-1.23894e-05
8.72933e-05
-1.65826e-05
0.000106287
-2.0472e-05
0.000124583
-2.41262e-05
0.000142275
-2.75883e-05
0.000159411
-3.08837e-05
0.000176017
-3.40261e-05
0.000192101
-3.70217e-05
0.000207663
-3.98714e-05
0.000222698
-4.25731e-05
0.000237196
-4.51227e-05
0.000251146
-4.75146e-05
0.000264533
-4.97427e-05
0.000277341
-5.18005e-05
0.000289551
-5.36815e-05
0.000301144
-5.53795e-05
0.000312102
-5.68892e-05
-5.8229e-05
2.45509e-05
-1.86155e-06
4.77173e-05
-5.3716e-06
6.93093e-05
-8.55574e-06
8.97106e-05
-1.1468e-05
0.0001092
-1.41768e-05
0.00012795
-1.67285e-05
0.000146065
-1.91525e-05
0.000163599
-2.1466e-05
0.00018058
-2.36782e-05
0.000197017
-2.57927e-05
0.00021291
-2.78097e-05
0.00022825
-2.97268e-05
0.000243025
-3.15401e-05
0.000257216
-3.32446e-05
0.000270807
-3.48349e-05
0.000283774
-3.63051e-05
0.000296096
-3.76494e-05
0.000307751
-3.88623e-05
0.000318716
-3.99393e-05
-4.08954e-05
2.52004e-05
-9.55284e-07
4.90031e-05
-2.75915e-06
7.11993e-05
-4.40054e-06
9.21635e-05
-5.90594e-06
0.000112176
-7.30967e-06
0.000131416
-8.63518e-06
0.000149993
-9.89733e-06
0.000167968
-1.11049e-05
0.000185372
-1.22624e-05
0.000202215
-1.33716e-05
0.000218495
-1.44322e-05
0.000234202
-1.54426e-05
0.000249321
-1.64006e-05
0.000263832
-1.73029e-05
0.000277712
-1.81463e-05
0.000290935
-1.89274e-05
0.000303476
-1.96425e-05
0.00031531
-2.02884e-05
0.000326415
-2.08624e-05
-2.13727e-05
2.58605e-05
5.02852e-05
7.30724e-05
9.45934e-05
0.000115131
0.000134871
0.000153927
0.000172364
0.000190214
0.000207489
0.000224188
0.0002403
0.000255808
0.000270688
0.000284916
0.000298465
0.000311306
0.000323413
0.000334761
)
;

boundaryField
{
    inlet
    {
        type            calculated;
        value           uniform 0;
    }
    outlet
    {
        type            calculated;
        value           nonuniform 0();
    }
    flap
    {
        type            calculated;
        value           nonuniform 0();
    }
    upperWall
    {
        type            calculated;
        value           nonuniform List<scalar> 
20
(
0
0
0
0
0
0
0
0
0
0
0
0
-1.00595e-14
0
0
-9.2008e-15
0
0
0
0
)
;
    }
    lowerWall
    {
        type            calculated;
        value           nonuniform 0();
    }
    frontAndBack
    {
        type            empty;
        value           nonuniform 0();
    }
    procBoundary0to1
    {
        type            processor;
        value           nonuniform List<scalar> 
18
(
0.000167856
0.000194382
-0.000113856
0.000212195
0.000231565
0.000248368
0.000262772
0.000274868
0.000284872
0.000293107
0.000299975
0.000305908
0.000311354
0.000316751
0.000322528
0.000329107
0.000336907
0.000345467
)
;
    }
    procBoundary0to3
    {
        type            processor;
        value           nonuniform List<scalar> 
34
(
4.94885e-06
1.40128e-05
2.44892e-05
2.30987e-05
3.5926e-05
3.20024e-05
4.72813e-05
4.07703e-05
5.86787e-05
4.93196e-05
7.00148e-05
5.74705e-05
8.10056e-05
6.50021e-05
6.71591e-05
9.58571e-05
7.2353e-05
0.000103265
7.67103e-05
7.35809e-05
0.000107116
7.64807e-05
7.05781e-05
0.000106083
7.40014e-05
0.000113552
7.88902e-05
7.34299e-05
0.000119928
8.18899e-05
7.84349e-05
0.000138244
9.04624e-05
8.87479e-05
)
;
    }
}


// ************************************************************************* //
