/*--------------------------------*- C++ -*----------------------------------*\
| =========                 |                                                 |
| \\      /  F ield         | OpenFOAM: The Open Source CFD Toolbox           |
|  \\    /   O peration     | Version:  dev                                   |
|   \\  /    A nd           | Web:      www.OpenFOAM.org                      |
|    \\/     M anipulation  |                                                 |
\*---------------------------------------------------------------------------*/
FoamFile
{
    version     2.0;
    format      ascii;
    class       surfaceScalarField;
    location    "4.69";
    object      phi;
}
// * * * * * * * * * * * * * * * * * * * * * * * * * * * * * * * * * * * * * //

dimensions      [0 3 -1 0 0 0 0];

internalField   nonuniform List<scalar> 
865
(
0.0791345
0.0105478
0.068045
0.0110897
0.0564788
0.011567
0.044536
0.0119438
0.0323621
0.0121748
0.0201535
0.0122093
0.00817618
0.0119778
-0.000276901
0.00845329
-0.000276849
0.0970162
0.0208448
0.0860753
0.0220307
0.0745372
0.0231058
0.0624848
0.0239972
0.0500659
0.0245947
0.0375578
0.0247182
0.0256071
0.0239289
0.013201
0.0208596
0.0129242
0.105291
0.030461
0.0949588
0.0323623
0.0839058
0.0341595
0.0721456
0.0357584
0.059724
0.0370171
0.0467211
0.0377217
0.033078
0.0375724
0.0177542
0.0361836
0.0306784
0.109439
0.0396036
0.0995346
0.0422666
0.0888065
0.044888
0.0771763
0.0473893
0.0645493
0.0496448
0.0508069
0.0514646
0.0357461
0.0526336
0.018841
0.0530888
0.0495194
0.111685
0.0485308
0.101939
0.0520121
0.0912793
0.0555473
0.0795614
0.0591077
0.0666053
0.0626014
0.0522192
0.0658511
0.0362474
0.0686057
0.0187072
0.070629
0.0682267
0.113127
0.0574091
0.103352
0.0617861
0.0925575
0.0663415
0.080597
0.0710684
0.0672703
0.0759283
0.0523979
0.0807237
0.0359097
0.0850939
0.0182283
0.0883104
0.086455
0.114334
0.0663203
0.10445
0.071668
0.0934418
0.077349
0.0811754
0.0833344
0.0674875
0.089616
0.0522498
0.0959613
0.0354761
0.101868
0.0178169
0.105969
0.104272
0.115662
0.0752898
0.105662
0.0816652
0.0944705
0.0885395
0.081929
0.095875
0.0679146
0.10363
0.0523948
0.111481
0.0354309
0.118831
0.017733
0.123667
0.122005
0.117383
0.084279
0.107326
0.0917182
0.0960231
0.0998404
0.0832996
0.108597
0.0690497
0.117878
0.0533013
0.127228
0.0361235
0.136008
0.0181636
0.141627
0.140168
0.119723
0.0931739
0.109729
0.101708
0.0984441
0.111122
0.0856885
0.12135
0.0713408
0.132224
0.0554033
0.143164
0.037891
0.15352
0.0193125
0.160205
0.159481
0.122874
0.101807
0.113124
0.111452
0.102081
0.122161
0.0895277
0.1339
0.0752771
0.146472
0.0592206
0.159219
0.0412152
0.171524
0.0215445
0.179875
0.181025
0.126969
0.109971
0.117734
0.12068
0.107253
0.132636
0.0952626
0.145886
0.0814597
0.160272
0.0655182
0.175158
0.0469729
0.190068
0.0256884
0.201159
0.206713
0.132119
0.117415
0.123739
0.129051
0.114252
0.142116
0.103369
0.156764
0.0906648
0.172972
0.0755107
0.19031
0.0568798
0.208698
0.0337377
0.224301
0.240451
0.138376
0.123867
0.131227
0.136191
0.123268
0.150067
0.114258
0.165768
0.103771
0.183454
0.0909969
0.203082
0.0743605
0.225333
0.0508274
0.247834
0.291278
0.145528
0.129087
0.139957
0.141751
0.134064
0.155952
0.127797
0.172028
0.121036
0.190209
0.113352
0.210762
0.103696
0.234988
0.0872079
0.264321
0.378486
0.0032838
-0.00328414
0.00731448
-0.0040322
0.0110799
-0.00376996
0.0143593
-0.00328882
0.0171711
-0.00282734
0.0195686
-0.00241918
0.0216097
-0.00206804
0.0233406
-0.00176149
0.024777
-0.00146907
-0.00117424
0.00338337
-0.00666786
0.00713477
-0.00778518
0.010725
-0.00736487
0.0139516
-0.00652486
0.0167994
-0.00569081
0.019313
-0.00495441
0.0215412
-0.00432296
0.023521
-0.00377149
0.0252797
-0.00325991
-0.00276172
0.00325631
-0.00992454
0.00654091
-0.0110714
0.00958317
-0.0104119
0.0123066
-0.00925782
0.014712
-0.00811163
0.0168384
-0.00710201
0.0187264
-0.00623679
0.0204179
-0.00549215
0.0219441
-0.00481708
-0.00417545
0.0031323
-0.0130572
0.00592212
-0.013863
0.00838009
-0.0128746
0.010527
-0.0114141
0.0123908
-0.0099904
0.0140153
-0.00874661
0.0154344
-0.00768041
0.0167004
-0.00678569
0.0178479
-0.00599392
-0.00525857
0.00292962
-0.0159872
0.00518314
-0.0161182
0.00704406
-0.0147402
0.00858244
-0.0129616
0.00984865
-0.0112708
0.010891
-0.00980784
0.0117714
-0.00858366
0.0125448
-0.00758461
0.0132464
-0.00672291
-0.00593727
0.00261005
-0.0185977
0.00426704
-0.017777
0.00550783
-0.0159857
0.00639025
-0.0138527
0.00700461
-0.0118983
0.00744223
-0.0102629
0.00779024
-0.00895253
0.0080741
-0.00789195
0.00832105
-0.00699506
-0.00619577
0.00215302
-0.0207512
0.00314181
-0.0187676
0.00370164
-0.0165499
0.00388137
-0.0140405
0.00385765
-0.0118867
0.00375258
-0.0101736
0.00361415
-0.00883298
0.00346837
-0.00776749
0.00333783
-0.00688755
-0.00612382
0.00154196
-0.0222935
0.00178337
-0.0190107
0.00157914
-0.0163499
0.0010441
-0.0135129
0.000440067
-0.0112937
-0.000143993
-0.00960367
-0.000674765
-0.00831914
-0.00113451
-0.00732697
-0.00151372
-0.0065293
-0.00585402
0.000762548
-0.0230565
0.000146241
-0.018396
-0.000937446
-0.0152702
-0.00214667
-0.0123105
-0.00326557
-0.0101846
-0.0042503
-0.00863157
-0.00508058
-0.007504
-0.00576154
-0.00666334
-0.00630414
-0.0060058
-0.00545654
-0.000165146
-0.0228918
-0.00190678
-0.0166559
-0.00388404
-0.0132965
-0.00573019
-0.0104704
-0.0073358
-0.00858771
-0.00865617
-0.00732246
-0.00971298
-0.00646077
-0.0105474
-0.00584456
-0.0111987
-0.00537199
-0.0049712
-0.00131122
-0.0215809
-0.00440187
-0.0135667
-0.00737208
-0.0103295
-0.00987958
-0.00796837
-0.0118902
-0.00658489
-0.0134503
-0.00577248
-0.0146449
-0.00527837
-0.0155593
-0.00494454
-0.0162637
-0.00468368
-0.00443976
-0.00314018
-0.0184411
-0.00773431
-0.00897389
-0.0117063
-0.00636053
-0.0147346
-0.00494496
-0.0169871
-0.00433947
-0.0186341
-0.0041346
-0.0198372
-0.00408654
-0.0207333
-0.00406175
-0.0214176
-0.00401443
-0.00391812
-0.00618214
-0.0122593
-0.0124397
-0.00271757
-0.0171444
-0.00165866
-0.0203905
-0.00170343
-0.0225835
-0.002153
-0.024072
-0.00265462
-0.0251022
-0.00306686
-0.0258534
-0.00332293
-0.0264306
-0.00345154
-0.00347455
-0.0119947
-0.000264949
-0.0196002
0.00488665
-0.0242958
0.00303421
-0.0269465
0.000942835
-0.0284787
-0.000627001
-0.0294778
-0.00166366
-0.0301249
-0.00242977
-0.0306042
-0.00285546
-0.0310057
-0.0030637
-0.00316915
-0.020305
0.0200396
-0.0276051
0.0121854
-0.0325144
0.00794065
-0.0337974
0.00222144
-0.0339653
-0.000465165
-0.034372
-0.00126471
-0.0345461
-0.00226536
-0.0346427
-0.0027702
-0.0348531
-0.00286644
0.160057
0.132923
0.156337
0.14546
0.152946
0.159332
0.150186
0.17478
0.148551
0.191839
0.148735
0.210574
0.152212
0.231509
0.164227
0.252306
0.267722
0.274992
0.173654
0.13512
0.17206
0.14704
0.171437
0.159944
0.172376
0.173832
0.175762
0.188447
0.183005
0.203327
0.19691
0.217603
0.219313
0.229902
0.244101
0.242935
0.188227
0.13565
0.188643
0.146609
0.190434
0.158142
0.19418
0.170075
0.200545
0.182076
0.210214
0.193654
0.223739
0.204075
0.240214
0.213426
0.221658
0.262657
0.203131
0.205194
0.144531
0.208753
0.154569
0.214211
0.164607
0.221957
0.174322
0.232317
0.18329
0.245452
0.190938
0.26179
0.197087
0.200448
0.282999
0.221263
0.226048
0.232562
0.158082
0.241073
0.165803
0.251766
0.172591
0.264669
0.178032
0.279876
0.181878
0.183235
0.297087
0.249527
0.258386
0.268953
0.162019
0.281109
0.165872
0.294677
0.168306
0.168554
0.309357
0.284298
0.29563
0.307938
0.155994
0.155502
0.320987
0.320197
0.33193
0.164191
0.110801
0.0824869
0.0817037
0.0586636
0.0238232
0.236518
0.117218
0.21859
0.0996318
0.085178
0.192075
0.271563
0.108311
0.27059
0.100605
0.0940835
0.261684
0.291351
0.0999594
0.295294
0.0966616
0.0942859
0.295091
0.30504
0.0920056
0.311211
0.0904907
0.0900583
0.315438
0.316791
0.0845695
0.323521
0.0837606
0.0841505
0.329428
0.327677
0.0778778
0.334096
0.0773405
0.0779886
0.340257
0.337923
0.343805
0.0714573
0.0721266
0.349666
0.353067
0.358477
-0.0164628
0.0603248
-0.0394538
0.0351747
-0.0457795
0.0142633
-0.0413314
-0.00223125
-0.0390108
-0.00279197
-0.0400913
-0.000192189
-0.0397675
-0.00259887
-0.0389822
-0.00356705
-0.00272005
0.130193
0.122207
0.0780452
0.0873206
0.0295327
0.0627726
-0.0125242
0.039821
-0.0370788
0.0217564
-0.0437137
0.00643478
-0.0410067
-0.00531563
-0.0395585
-0.00502679
-0.000748158
0.227532
0.156358
0.18803
0.126821
0.149308
0.101491
0.109931
0.0791939
0.0713141
0.0603666
0.0316282
0.0461127
-0.00625859
0.0325614
-0.0315522
0.0202552
0.0091413
0.2815
0.169949
0.258763
0.149555
0.231459
0.128792
0.201057
0.109591
0.169209
0.0922077
0.13825
0.077064
0.107507
0.063294
0.0771474
0.0506033
0.0396524
0.314321
0.171065
0.304699
0.159175
0.288905
0.144583
0.268828
0.129664
0.245946
0.115083
0.221634
0.101368
0.196289
0.088629
0.170125
0.0767555
0.0659802
0.33538
0.165111
0.334812
0.159741
0.328485
0.150907
0.317583
0.14056
0.303143
0.129516
0.286132
0.118371
0.267277
0.107474
0.247062
0.0969586
0.0870217
0.349547
0.155819
0.354584
0.154701
0.355123
0.150364
0.35157
0.144108
0.344481
0.136598
0.334491
0.128352
0.322198
0.119756
0.308076
0.111069
0.102521
0.360035
0.145449
0.368028
0.146704
0.372977
0.145411
0.374753
0.142327
0.373496
0.137848
0.369499
0.132341
0.36312
0.126125
0.354711
0.119465
0.11259
0.368795
0.377983
0.137512
0.385356
0.138033
0.390557
0.137119
0.393458
0.134939
0.394084
0.131706
0.392568
0.127631
0.389104
0.122917
0.117755
0.386216
0.394638
0.401735
0.407268
0.129398
0.411108
0.127856
0.413231
0.125498
0.413684
0.122451
0.118851
0.41728
0.423103
0.427675
0.120916
0.430949
0.119166
0.116853
0.438106
0.443208
0.112718
)
;

boundaryField
{
    inlet
    {
        type            calculated;
        value           nonuniform 0();
    }
    outlet
    {
        type            calculated;
        value           nonuniform 0();
    }
    flap
    {
        type            calculated;
        value           nonuniform List<scalar> 
33
(
3.54371e-32
-4.00915e-51
4.62223e-32
-1.30963e-32
-4.93038e-32
4.93038e-32
0
9.24446e-33
0
9.86076e-32
-6.16298e-33
-9.86076e-32
-9.86076e-32
1.97215e-31
0
-2.00297e-31
0
0
0
0
2.46519e-32
0
-5.85483e-32
2.15704e-32
1.47911e-31
1.97215e-31
0
1.17097e-31
1.54074e-31
-9.86076e-32
0
0
0
)
;
    }
    upperWall
    {
        type            calculated;
        value           nonuniform 0();
    }
    lowerWall
    {
        type            calculated;
        value           uniform 0;
    }
    frontAndBack
    {
        type            empty;
        value           nonuniform 0();
    }
    procBoundary4to1
    {
        type            processor;
        value           nonuniform List<scalar> 
30
(
0.134705
-0.217931
0.141183
0.149771
-0.242345
0.150889
0.156935
-0.274127
0.151841
0.154535
-0.308906
0.144699
0.143765
0.0718818
-0.347707
0.0660958
0.0667142
0.135128
-0.376838
0.128129
0.129606
0.130015
-0.410314
0.122424
0.122024
-0.432077
0.114878
0.114053
-0.452366
0.107256
)
;
    }
    procBoundary4to2
    {
        type            processor;
        value           nonuniform List<scalar> 
11
(
-0.041455
0.046623
0.143783
0.226007
0.292564
0.34463
0.383926
0.412576
0.432935
0.447332
0.457819
)
;
    }
    procBoundary4to3
    {
        type            processor;
        value           nonuniform List<scalar> 
19
(
-0.0896835
-0.107314
-0.114908
-0.118583
-0.120614
-0.122008
-0.123248
-0.124635
-0.126377
-0.128623
-0.131513
-0.135141
-0.139573
-0.144838
-0.150759
-0.163907
-0.175865
-0.188771
-0.202201
)
;
    }
    procBoundary4to5
    {
        type            processor;
        value           nonuniform List<scalar> 
18
(
0.0259208
0.0268371
0.0233285
0.0189029
0.0138986
0.00855471
0.00324275
-0.00180501
-0.00672161
-0.0117027
-0.0168127
-0.0219558
-0.02689
-0.0313263
-0.0349988
-0.00303819
-0.0391418
-0.0415437
)
;
    }
}


// ************************************************************************* //
