/*--------------------------------*- C++ -*----------------------------------*\
| =========                 |                                                 |
| \\      /  F ield         | OpenFOAM: The Open Source CFD Toolbox           |
|  \\    /   O peration     | Version:  dev                                   |
|   \\  /    A nd           | Web:      www.OpenFOAM.org                      |
|    \\/     M anipulation  |                                                 |
\*---------------------------------------------------------------------------*/
FoamFile
{
    version     2.0;
    format      ascii;
    class       surfaceVectorField;
    location    "3.9";
    object      Uf;
}
// * * * * * * * * * * * * * * * * * * * * * * * * * * * * * * * * * * * * * //

dimensions      [0 1 -1 0 0 0 0];

internalField   nonuniform List<vector> 
882
(
(9.86718 1.23995e-20 5.45791)
(10.1144 4.49608e-21 5.63742)
(10.2139 -8.25491e-21 5.34739)
(10.2673 7.33781e-22 6.0958)
(10.3617 1.51261e-21 5.77438)
(10.5497 9.86224e-21 6.21924)
(10.4625 -1.13093e-20 5.48864)
(10.5296 -2.2086e-20 5.20385)
(10.646 1.08632e-20 5.90251)
(10.7046 3.32393e-22 5.59116)
(10.8722 2.20993e-21 6.3274)
(10.9172 1.75804e-20 5.9881)
(11.1479 -1.60506e-20 6.75767)
(11.1731 -7.69543e-22 6.38995)
(11.4773 -7.78678e-21 6.79009)
(10.774 -1.01861e-20 5.31012)
(10.8126 -1.07553e-20 5.03343)
(10.9788 7.18888e-21 5.68072)
(11.0069 3.40443e-22 5.38203)
(11.2221 1.45591e-20 6.05481)
(11.2353 8.11195e-22 5.73389)
(11.5079 7.71567e-21 6.42661)
(11.5013 1.2751e-20 6.0842)
(11.8397 7.18465e-21 6.78861)
(11.808 -2.28864e-21 6.42677)
(12.2195 6.96936e-21 7.13143)
(12.1572 2.72716e-21 6.75407)
(12.5495 -6.83794e-23 7.05703)
(11.0485 0 5.10848)
(11.0625 9.84585e-21 4.84176)
(11.2671 -6.21993e-21 5.43837)
(11.2695 0 5.15369)
(11.5193 -1.06024e-21 5.76635)
(11.5067 -6.21942e-21 5.46421)
(11.8073 2.49759e-21 6.08707)
(11.776 5.1196e-22 5.76882)
(12.1327 -6.87485e-21 6.3941)
(12.0787 2.17262e-21 6.06208)
(12.4955 -4.49295e-21 6.68003)
(12.4151 -6.15184e-21 6.33776)
(12.8939 -5.85399e-23 6.93668)
(12.7845 -6.01228e-22 6.58892)
(13.3241 7.56393e-21 7.15624)
(13.1793 -3.90055e-21 6.8083)
(13.6467 5.69614e-21 6.99012)
(13.7789 6.96013e-21 7.30387)
(11.2869 9.84501e-21 4.88945)
(11.2798 1.03311e-20 4.63375)
(11.5133 0 5.18188)
(11.4944 9.34255e-21 4.91166)
(11.7684 -4.61555e-21 5.46874)
(11.7351 1.12367e-21 5.18491)
(12.0533 1.77466e-22 5.74535)
(12.0027 -2.41348e-21 5.4495)
(12.3681 2.91321e-21 6.00641)
(12.2974 4.64717e-21 5.70085)
(12.7117 -2.16673e-21 6.24614)
(12.6185 -1.70492e-21 5.934)
(13.0817 -4.53965e-21 6.45851)
(12.9645 -1.03277e-21 6.1438)
(13.474 -5.81829e-21 6.63836)
(13.3285 -3.51263e-21 6.32505)
(13.7516 1.76461e-21 6.47434)
(13.883 -3.24715e-21 6.75932)
(11.4909 9.80689e-21 4.65782)
(11.466 -3.021e-22 4.4136)
(11.7205 1.04929e-20 4.91631)
(11.684 1.06667e-20 4.66042)
(11.9743 3.37885e-21 5.1669)
(11.9243 5.32479e-23 4.90046)
(12.2525 2.16282e-21 5.40566)
(12.1868 -1.96472e-21 5.13028)
(12.5543 -7.97443e-23 5.62832)
(12.4711 8.36471e-21 5.34619)
(12.8782 -5.40301e-22 5.83051)
(12.7759 -2.1169e-21 5.54433)
(13.2214 2.11364e-23 6.00788)
(13.0992 -5.00551e-22 5.7209)
(13.5803 4.25194e-21 6.15703)
(13.4353 5.08035e-22 5.87229)
(13.8201 2.89497e-21 5.99645)
(13.9503 1.44401e-21 6.25743)
(11.6628 5.69829e-22 4.41749)
(11.6229 -8.52084e-21 4.1848)
(11.8921 -2.77878e-23 4.64555)
(11.8413 1.289e-20 4.40351)
(12.1416 -5.42463e-21 4.8644)
(12.0782 -5.39472e-21 4.61418)
(12.4108 4.38784e-21 5.0708)
(12.3335 -2.34475e-21 4.81397)
(12.6985 6.27954e-21 5.26143)
(12.606 6.50128e-21 4.99993)
(13.003 -2.07621e-21 5.43302)
(12.8943 -2.12638e-21 5.16914)
(13.3217 0 5.58249)
(13.1964 -1.87577e-21 5.31883)
(13.6512 -8.80539e-22 5.70764)
(13.5074 5.58273e-21 5.44654)
(13.8593 -6.31782e-21 5.55106)
(13.9879 -5.39914e-22 5.79204)
(11.8051 4.09397e-21 4.17159)
(11.7528 4.36492e-23 3.95019)
(12.0315 7.39222e-21 4.37257)
(11.9691 -4.38506e-21 4.14367)
(12.2747 -2.24302e-21 4.56374)
(12.2009 3.87029e-21 4.3285)
(12.5336 -1.83103e-22 4.74253)
(12.4474 -1.90725e-21 4.50238)
(12.8071 -2.10898e-21 4.90637)
(12.7077 1.82437e-21 4.663)
(13.0931 -1.92112e-21 5.05287)
(12.98 -3.7708e-21 4.80818)
(13.3894 3.84672e-21 5.17987)
(13.2625 -1.76381e-21 4.93595)
(13.6932 6.48486e-23 5.28595)
(13.5509 7.62735e-21 5.04463)
(13.8743 -3.79803e-21 5.13358)
(14.0013 -6.60156e-21 5.35771)
(11.9204 -8.64231e-21 3.92259)
(11.8581 8.38608e-21 3.71206)
(12.1423 -7.99177e-21 4.09957)
(12.0706 -1.58442e-20 3.883)
(12.3778 4.214e-21 4.26666)
(12.2958 1.61841e-20 4.04515)
(12.6259 1.46968e-22 4.42185)
(12.533 -1.28691e-20 4.19665)
(12.8853 1.2029e-22 4.56318)
(12.7809 2.16324e-21 4.33576)
(13.1541 -3.60745e-21 4.68893)
(13.038 -7.54247e-21 4.46086)
(13.4302 2.12095e-21 4.79761)
(13.3025 5.73826e-21 4.57056)
(13.7112 3.72086e-21 4.88835)
(13.5708 1.95581e-21 4.66375)
(13.8695 3.56568e-21 4.74015)
(13.9947 2.17382e-21 4.94997)
(12.0116 1.01112e-21 3.67239)
(11.9413 0 3.4722)
(12.2277 8.91694e-21 3.82814)
(12.1487 4.58715e-23 3.62305)
(12.4549 -1.31424e-21 3.97428)
(12.3667 6.98207e-21 3.76527)
(12.692 -1.08043e-20 4.10923)
(12.5942 -1.55243e-20 3.89743)
(12.9378 -5.68656e-21 4.23155)
(12.83 5.57903e-21 4.01819)
(13.1905 2.03353e-21 4.33999)
(13.0728 -3.76949e-21 4.12638)
(13.4484 5.57711e-21 4.43356)
(13.3208 7.44189e-21 4.22104)
(13.7095 1.79688e-21 4.51175)
(13.5712 -1.3102e-22 4.30144)
(13.8483 -3.43851e-21 4.36753)
(13.9716 1.70056e-22 4.56509)
(11.8818 4.82802e-22 3.27761)
(11.8124 -1.49937e-20 3.09196)
(12.0815 -9.89442e-22 3.42243)
(12.0048 7.56461e-21 3.23197)
(12.291 -1.93631e-21 3.55941)
(12.2065 -9.89389e-22 3.36493)
(12.5095 -7.57273e-21 3.68726)
(12.4168 -4.36366e-23 3.48964)
(12.7358 1.25861e-21 3.80479)
(12.6346 -3.28126e-22 3.605)
(12.9687 7.5423e-21 3.91093)
(12.8588 3.90236e-22 3.71002)
(13.2067 1.77133e-21 4.00481)
(13.0882 8.90206e-22 3.80384)
(13.4482 1.59012e-21 4.08576)
(13.3213 9.55908e-21 3.88583)
(13.6915 -5.41795e-21 4.15352)
(13.5557 -1.0559e-20 3.95553)
(13.8138 -1.05748e-21 4.01302)
(13.935 -1.02626e-20 4.19998)
(11.9382 -7.74057e-21 3.04588)
(11.8635 -1.57148e-20 2.86861)
(12.1327 7.5642e-21 3.17374)
(12.0512 1.55222e-20 2.9924)
(12.3353 9.49811e-22 3.2941)
(12.2467 8.97852e-22 3.1094)
(12.545 7.37691e-21 3.40596)
(12.4491 9.49769e-22 3.21867)
(12.7608 -1.21731e-21 3.50841)
(12.6575 8.22676e-21 3.31939)
(12.9816 -6.42274e-21 3.60068)
(12.8708 -8.39017e-21 3.4108)
(13.2061 8.86652e-21 3.68217)
(13.0878 4.00227e-23 3.49232)
(13.4328 -2.89788e-21 3.75246)
(13.3074 7.11624e-21 3.56352)
(13.6604 -6.08489e-21 3.81143)
(13.5274 -9.82956e-21 3.62414)
(13.7687 1.01157e-20 3.67433)
(13.8876 2.86378e-21 3.85207)
(11.9791 8.11109e-21 2.81442)
(11.9003 1.52186e-22 2.64506)
(12.1679 8.69373e-21 2.92707)
(12.083 7.52173e-21 2.7542)
(12.3634 8.97811e-22 3.03268)
(12.272 -6.44063e-21 2.85694)
(12.5645 1.82096e-21 3.13048)
(12.4667 7.91165e-21 2.95256)
(12.7703 8.78512e-22 3.2198)
(12.666 1.81608e-21 3.04042)
(12.9798 -1.77109e-21 3.30008)
(12.869 8.16016e-22 3.12)
(13.1919 -1.7528e-21 3.37093)
(13.0746 5.80776e-21 3.19088)
(13.4053 7.98101e-24 3.43209)
(13.2819 -7.70072e-21 3.25279)
(13.619 6.69384e-21 3.48354)
(13.489 3.74691e-23 3.30561)
(13.7155 1.2283e-20 3.34951)
(13.8317 -1.12085e-20 3.51919)
(12.0066 -4.51865e-22 2.5839)
(11.925 -4.24946e-22 2.42196)
(12.1896 -7.98034e-21 2.68286)
(12.1024 -4.51839e-22 2.51784)
(12.3779 7.43695e-22 2.77533)
(12.285 -7.96511e-21 2.60779)
(12.5708 7.90599e-21 2.86071)
(12.4721 7.67618e-21 2.69127)
(12.7672 1.75196e-21 2.93852)
(12.6628 -8.49105e-22 2.76779)
(12.9663 8.57869e-21 3.00836)
(12.8562 8.35651e-21 2.83698)
(13.1671 -2.86269e-22 3.06997)
(13.0515 -6.40684e-21 2.89858)
(13.3686 -7.67021e-21 3.12322)
(13.2476 6.16681e-21 2.9524)
(13.5697 5.76226e-21 3.16816)
(13.4433 -7.45258e-21 2.99842)
(13.6565 6.18955e-21 3.03683)
(13.7696 -2.63423e-20 3.19944)
(12.023 -4.24921e-22 2.35475)
(11.9396 6.54039e-21 2.19972)
(12.2001 -4.36855e-22 2.44137)
(12.1117 2.80231e-22 2.28356)
(12.3816 -8.64134e-22 2.52207)
(12.288 -1.36469e-20 2.362)
(12.5665 -1.29182e-21 2.59642)
(12.4679 5.80676e-21 2.43462)
(12.7542 5.91502e-21 2.66405)
(12.6505 -7.34535e-21 2.50106)
(12.9437 -6.9938e-21 2.72471)
(12.8352 1.89847e-20 2.56107)
(13.1343 2.02461e-22 2.77823)
(13.021 -2.65501e-20 2.61447)
(13.325 6.38479e-21 2.82454)
(13.2071 1.95829e-20 2.66118)
(13.515 -7.01458e-21 2.86375)
(13.3924 -6.76186e-21 2.7012)
(13.594 7.72881e-22 2.73474)
(13.7036 -7.32106e-22 2.89117)
(12.0304 7.26241e-21 2.12719)
(11.9461 1.34356e-20 1.97855)
(12.2018 -1.32505e-20 2.20263)
(12.113 -6.88658e-21 2.05143)
(12.3766 -6.8132e-21 2.27274)
(12.2833 -7.0401e-21 2.11944)
(12.5541 -3.93971e-22 2.33721)
(12.4564 5.99554e-21 2.18228)
(12.7337 6.04249e-21 2.39578)
(12.6316 -1.29559e-20 2.23969)
(12.9145 -1.04924e-21 2.44829)
(12.8082 1.85596e-20 2.29151)
(13.0958 -6.6965e-21 2.49463)
(12.9854 -1.32729e-20 2.33762)
(13.2769 6.11277e-21 2.5348)
(13.1626 1.28676e-20 2.37799)
(13.457 1.21414e-21 2.56891)
(13.3387 -1.5756e-22 2.41265)
(13.53 -5.84018e-21 2.44182)
(13.6356 1.24356e-21 2.59287)
(12.0307 -1.05717e-21 1.90129)
(11.9463 3.30963e-22 1.7585)
(12.1965 -5.26041e-22 1.96653)
(12.1082 -7.15027e-21 1.82131)
(12.3652 6.07983e-21 2.02705)
(12.2729 4.55838e-22 1.87982)
(12.5359 -6.87121e-21 2.08262)
(12.4397 6.28935e-21 1.93379)
(12.708 -1.32715e-22 2.13306)
(12.6081 -6.08248e-21 1.98305)
(12.881 6.03783e-21 2.17826)
(12.7774 4.33292e-22 2.02749)
(13.054 6.76685e-21 2.21818)
(12.947 6.25319e-21 2.06703)
(13.2265 6.44217e-21 2.25284)
(13.1162 6.76663e-21 2.10169)
(13.3979 -7.28968e-21 2.28235)
(13.2842 5.88214e-21 2.13152)
(13.4663 -1.29978e-20 2.15672)
(13.5675 -4.69388e-21 2.30317)
(12.0257 -5.9098e-21 1.67685)
(11.9419 -4.2167e-22 1.53942)
(12.1864 -6.14374e-21 1.73274)
(12.0991 -5.75132e-21 1.59296)
(12.3493 6.71352e-22 1.78451)
(12.2586 -1.23712e-20 1.64274)
(12.5138 7.09673e-21 1.83198)
(12.4198 1.30062e-20 1.6886)
(12.6793 -5.50155e-21 1.87504)
(12.5821 3.96944e-22 1.73043)
(12.8452 6.55024e-22 1.91362)
(12.7449 1.05174e-22 1.76814)
(13.0108 6.25297e-21 1.94772)
(12.9076 2.97662e-22 1.80172)
(13.1757 6.18996e-21 1.97738)
(13.0698 5.94844e-21 1.83118)
(13.3394 2.17397e-22 2.0027)
(13.2307 1.31853e-22 1.85658)
(13.4048 -4.12224e-22 1.87811)
(13.5013 -4.06131e-21 2.02063)
(12.0172 -2.59775e-22 1.45378)
(11.9346 6.24779e-21 1.32106)
(12.1732 -1.21298e-20 1.50102)
(12.0876 -1.20797e-20 1.36596)
(12.3309 2.6432e-22 1.54473)
(12.2424 -2.98848e-22 1.40765)
(12.4898 6.14359e-21 1.58477)
(12.3985 1.18754e-22 1.44603)
(12.6494 6.13927e-21 1.62107)
(12.5553 -3.72321e-22 1.481)
(12.809 -2.60703e-22 1.65361)
(12.7124 4.69683e-22 1.51253)
(12.9682 -1.40292e-23 1.68239)
(12.8692 -2.89639e-22 1.54061)
(13.1264 -2.58459e-22 1.70745)
(13.0252 5.72477e-21 1.56528)
(13.2833 -4.23865e-22 1.72891)
(13.1799 -6.20453e-21 1.5866)
(13.3471 5.81607e-21 1.60472)
(13.4384 -2.33086e-20 1.74416)
(12.0067 -5.8596e-21 1.23124)
(11.9257 -5.72145e-21 1.10298)
(12.1585 3.81755e-23 1.27043)
(12.0749 -6.12721e-21 1.13977)
(12.3116 -4.4787e-22 1.30664)
(12.2256 6.01998e-21 1.1739)
(12.4656 -6.55489e-21 1.33979)
(12.3773 -6.14349e-21 1.20528)
(12.62 -6.17911e-21 1.36983)
(12.5294 -1.99418e-22 1.23387)
(12.7742 4.39911e-22 1.39677)
(12.6816 -5.80812e-21 1.25965)
(12.9277 5.58826e-21 1.4206)
(12.8333 1.18176e-20 1.28261)
(13.0803 -3.67618e-22 1.44138)
(12.984 -1.13448e-20 1.30281)
(13.2314 1.86851e-22 1.45922)
(13.1334 -5.47449e-23 1.32028)
(13.2948 5.7869e-21 1.33516)
(13.3807 -3.01216e-22 1.47192)
(11.9957 -5.99584e-21 1.00958)
(11.9168 -6.54538e-22 0.884626)
(12.1438 0 1.04117)
(12.0628 -5.68336e-21 0.913725)
(12.293 1.85544e-22 1.07033)
(12.21 0 0.940696)
(12.4428 3.66146e-22 1.09702)
(12.3579 5.95708e-21 0.965484)
(12.5926 1.80279e-22 1.12121)
(12.5061 -1.14644e-20 0.988059)
(12.7422 5.84626e-21 1.1429)
(12.6541 5.52335e-21 1.00841)
(12.891 -5.52665e-21 1.16211)
(12.8015 2.66089e-22 1.02655)
(13.0388 -1.10226e-20 1.17889)
(12.9479 -5.90039e-21 1.04252)
(13.185 5.60788e-21 1.19333)
(13.0929 -5.43378e-21 1.05636)
(13.2494 1.13915e-20 1.0682)
(13.3294 1.71076e-20 1.20364)
(11.9856 -3.3496e-22 0.786356)
(11.9091 1.76095e-22 0.665318)
(12.1307 -5.68308e-21 0.810701)
(12.0524 -3.09529e-21 0.687028)
(12.2765 5.91153e-21 0.83316)
(12.1967 -4.88384e-23 0.707139)
(12.4228 -6.16098e-21 0.8537)
(12.3416 1.37876e-22 0.725613)
(12.5691 -5.99069e-21 0.872307)
(12.4866 -8.97425e-21 0.742433)
(12.7149 -1.92037e-22 0.888987)
(12.6312 8.47489e-21 0.757597)
(12.8598 -1.16901e-22 0.903762)
(12.7752 -8.49842e-21 0.771116)
(13.0036 -1.75041e-22 0.916669)
(12.9181 8.35789e-21 0.783015)
(13.1459 3.45591e-22 0.927778)
(13.0597 -1.09142e-20 0.793331)
(13.2122 8.47516e-21 0.802143)
(13.2864 3.45896e-21 0.935715)
(11.9776 -2.65137e-21 0.564065)
(11.9038 -5.63989e-21 0.444257)
(12.1201 2.67537e-21 0.581443)
(12.045 8.45321e-23 0.458784)
(12.2634 -5.96257e-21 0.597477)
(12.1872 2.6163e-21 0.472233)
(12.4069 -2.74412e-21 0.612147)
(12.3297 -8.54701e-21 0.484585)
(12.5503 5.84286e-21 0.625446)
(12.4723 3.02884e-21 0.49583)
(12.6931 -3.34581e-23 0.637381)
(12.6144 1.73633e-22 0.50597)
(12.835 1.82867e-22 0.64797)
(12.7559 -1.29954e-22 0.515019)
(12.9757 -2.64218e-21 0.657242)
(12.8962 5.62943e-21 0.522998)
(13.1148 -2.69211e-21 0.665251)
(13.0351 -8.29297e-21 0.529942)
(13.1848 2.87305e-21 0.535929)
(13.2521 1.98369e-21 0.670995)
(11.9729 -2.83756e-21 0.335815)
(11.8098 -4.57897e-23 0.220487)
(12.1137 2.40154e-23 0.346263)
(11.9476 -2.77266e-21 0.227912)
(12.2552 -3.16484e-23 0.355885)
(12.0864 2.73087e-21 0.234784)
(12.3967 -2.63369e-21 0.364672)
(12.2256 -2.04377e-21 0.241094)
(12.5381 -2.77763e-21 0.372625)
(12.3649 -6.66475e-22 0.246837)
(12.6788 7.48878e-23 0.379751)
(12.5038 -2.16444e-21 0.252017)
(12.8186 5.44868e-21 0.386066)
(12.642 2.11955e-21 0.256639)
(12.9571 -1.59131e-22 0.391593)
(12.7792 2.72821e-21 0.260715)
(13.0941 -2.62691e-21 0.396378)
(12.9151 -2.21139e-21 0.264259)
(13.0615 -5.76524e-22 0.267325)
(13.2294 8.36622e-23 0.399772)
(11.7839 2.04827e-23 0.111165)
(11.9197 0 0.115)
(12.0562 6.69653e-22 0.118547)
(12.193 -2.89164e-23 0.121799)
(12.3298 -3.86138e-23 0.124755)
(12.4662 -7.00538e-23 0.127416)
(12.6018 -6.66754e-22 0.129785)
(12.7362 6.25699e-22 0.131867)
(12.8693 -1.03878e-22 0.13368)
(13.0007 -5.6501e-22 0.134938)
(13.9105 6.44285e-23 7.05726)
(14.0878 -1.48107e-21 6.80337)
(13.9885 -2.24849e-21 6.53004)
(14.2958 1.41771e-21 6.84626)
(14.2137 7.24336e-22 6.57486)
(14.4039 2.40279e-21 6.60983)
(14.506 -5.40496e-22 6.8775)
(14.1349 -1.63652e-23 6.29446)
(14.0343 -7.34133e-22 6.04319)
(14.3221 1.70879e-21 6.33099)
(14.2376 1.43428e-21 6.08118)
(14.4093 2.36282e-21 6.11138)
(14.5111 3.13654e-21 6.36042)
(14.1554 7.33804e-22 5.8235)
(14.0541 -2.17747e-21 5.59078)
(14.3249 2.09161e-21 5.85487)
(14.2389 8.19119e-22 5.62335)
(14.3948 2.8058e-21 5.6496)
(14.4959 -1.62374e-22 5.88146)
(14.1542 -2.0976e-21 5.38476)
(14.0527 -1.51507e-21 5.16771)
(14.3087 1.52647e-21 5.41199)
(14.2217 9.62116e-23 5.19593)
(14.3642 4.21692e-21 5.21897)
(14.4644 1.9326e-21 5.43581)
(14.1351 7.42651e-22 4.97346)
(14.0337 1.7476e-23 4.76973)
(14.2768 2.79991e-21 4.99732)
(14.1891 0 4.79441)
(14.3203 1.46324e-21 4.8148)
(14.4195 5.75422e-21 5.01869)
(14.1013 -7.42924e-22 4.58564)
(14.0002 -5.74082e-21 4.39336)
(14.232 -1.38525e-21 4.6067)
(14.144 6.39884e-21 4.41508)
(14.2653 -2.09118e-21 4.43322)
(14.3635 -2.83188e-21 4.62595)
(14.0554 1.47133e-21 4.21807)
(13.955 -5.11012e-21 4.03568)
(14.1765 5.77863e-21 4.23676)
(14.0886 5.51227e-21 4.05489)
(14.2013 -2.94626e-23 4.0711)
(14.2984 -3.94616e-21 4.25414)
(13.9997 -1.05358e-21 3.86805)
(13.9005 -1.10175e-20 3.69429)
(14.1126 -3.69313e-22 3.88469)
(14.0252 -1.16127e-20 3.71131)
(14.1304 1.08836e-20 3.72583)
(14.226 5.91907e-21 3.9004)
(13.9366 -2.1825e-20 3.53332)
(13.8391 -3.37986e-20 3.3671)
(14.0422 -3.60101e-22 3.54815)
(13.9558 1.50189e-22 3.38221)
(14.0545 1.14339e-20 3.3952)
(14.1482 1.28491e-20 3.56235)
(13.8682 -1.16327e-20 3.21195)
(13.7728 -2.34007e-20 3.05232)
(13.9673 1.20923e-20 3.22516)
(13.8827 6.16634e-22 3.06572)
(13.9755 1.09454e-20 3.07732)
(14.0668 8.54252e-22 3.23797)
(13.7965 -1.10744e-20 2.90223)
(13.7038 -1.498e-23 2.74836)
(13.8899 -6.82953e-22 2.91396)
(13.8075 -2.51517e-22 2.76019)
(13.8953 -1.02143e-20 2.77052)
(13.9837 1.7851e-20 2.92547)
(13.7235 1.10726e-20 2.6026)
(13.634 3.42781e-22 2.45373)
(13.8119 -9.89327e-21 2.61298)
(13.7323 1.07006e-20 2.46413)
(13.8155 -2.08735e-20 2.47327)
(13.9006 -2.38256e-20 2.62326)
(13.6511 -1.63329e-22 2.31168)
(13.5653 -1.6184e-22 2.16705)
(13.735 -1.63325e-22 2.3208)
(13.6589 -1.65279e-22 2.17613)
(13.7381 9.95909e-21 2.18413)
(13.8193 -4.25044e-21 2.3299)
(13.581 -1.63795e-22 2.028)
(13.4994 -1.99968e-20 1.887)
(13.661 1.00797e-20 2.03592)
(13.5888 1.00611e-20 1.89482)
(13.6645 1.03541e-20 1.90175)
(13.7414 1.02511e-20 2.0439)
(13.5148 -9.83949e-21 1.75045)
(13.4379 -2.06222e-20 1.6122)
(13.5915 1.03385e-20 1.75725)
(13.5237 1.03046e-20 1.61883)
(13.5965 3.09138e-22 1.62473)
(13.6684 -3.4443e-21 1.76414)
(13.4542 -3.14773e-22 1.47718)
(13.3824 9.52934e-21 1.34139)
(13.528 1.53323e-22 1.48288)
(13.4652 -1.25525e-22 1.34688)
(13.5353 -9.68146e-21 1.35178)
(13.602 2.05836e-22 1.48869)
(13.4005 9.7968e-21 1.20793)
(13.3343 9.86201e-21 1.07304)
(13.4718 -1.00829e-20 1.21259)
(13.4146 -9.41939e-21 1.07741)
(13.4826 -6.49331e-22 1.0813)
(13.5435 -9.84084e-21 1.21736)
(13.3555 -9.63031e-21 0.939014)
(13.295 -8.32673e-23 0.805965)
(13.4249 1.36478e-22 0.942601)
(13.3733 -5.03572e-21 0.809241)
(13.4397 5e-21 0.812197)
(13.4945 1.62646e-20 0.946294)
(13.3197 4.68239e-21 0.673387)
(13.2659 1.49831e-22 0.538164)
(13.3876 -1.75983e-22 0.675987)
(13.3426 9.11555e-21 0.540321)
(13.4077 -9.25272e-21 0.542207)
(13.4558 -6.26964e-21 0.67866)
(13.2958 4.58202e-21 0.401119)
(13.1409 -7.0205e-23 0.268849)
(13.3625 4.09627e-23 0.402547)
(13.2159 4.63667e-21 0.269818)
(13.2796 -5.68685e-21 0.270728)
(13.4294 -6.12218e-21 0.404031)
(13.0654 -7.12622e-23 0.135397)
(13.1304 -1.10502e-21 0.135873)
(13.1955 -1.50573e-21 0.136412)
(14.7489 -1.00607e-21 6.65015)
(14.8973 2.77067e-21 6.38877)
(14.7214 -2.71287e-22 6.15161)
(15.2801 -2.3129e-21 6.36733)
(15.0539 7.15302e-22 6.15891)
(15.6449 -1.35998e-21 6.29648)
(15.4181 -1.16778e-21 6.12448)
(15.7728 -1.40366e-22 6.04556)
(14.8471 -2.42526e-21 5.91307)
(14.6782 -3.09384e-21 5.68709)
(15.2019 1.9338e-21 5.90771)
(14.9826 2.18481e-21 5.70084)
(15.5513 3.6556e-23 5.86624)
(15.3219 3.71923e-21 5.68413)
(15.8858 -1.20227e-21 5.78745)
(15.6628 -4.83185e-21 5.63405)
(16.1963 0 5.6728)
(15.9857 0 5.55096)
(16.2843 0 5.43657)
(14.7846 1.42313e-21 5.46711)
(14.6231 3.01503e-21 5.25324)
(15.1109 3.97628e-21 5.46959)
(14.9018 -2.77392e-21 5.26936)
(15.4377 -1.11587e-21 5.44473)
(15.2152 2.71451e-21 5.2622)
(15.7588 -3.71736e-21 5.39121)
(15.5352 1.05649e-21 5.22931)
(16.0679 0 5.30955)
(15.8461 -4.38962e-21 5.17063)
(16.359 -3.31468e-21 5.20112)
(16.1431 3.09121e-21 5.08693)
(16.6266 2.66381e-21 5.06809)
(16.4236 -1.59603e-21 4.97956)
(16.6836 5.78135e-21 4.85062)
(14.713 -1.10671e-21 5.04853)
(14.5582 1.60998e-21 4.84602)
(15.0131 -4.15694e-21 5.05501)
(14.8144 -5.65592e-21 4.86284)
(15.3163 4.96929e-21 5.04002)
(15.1036 2.91112e-21 4.8612)
(15.6185 4.88489e-22 5.00242)
(15.4017 3.71005e-21 4.83911)
(15.9154 -1.40625e-21 4.94238)
(15.6953 -2.16534e-21 4.79638)
(16.2027 4.96073e-21 4.86064)
(15.9813 7.20434e-21 4.73342)
(16.4761 1.41752e-21 4.75842)
(16.2581 -2.98272e-21 4.65099)
(16.7321 -4.30715e-22 4.63753)
(16.5225 3.2815e-21 4.55032)
(16.7714 -3.2276e-21 4.43318)
(14.6339 -2.86045e-21 4.65402)
(14.4851 -6.02146e-21 4.4617)
(14.9109 1.46015e-21 4.6627)
(14.7218 -1.9249e-21 4.47849)
(15.1921 1.62985e-21 4.65404)
(14.9895 2.26374e-21 4.48031)
(15.4746 1.1286e-21 4.62706)
(15.2669 1.35312e-21 4.46548)
(15.7554 6.42986e-21 4.58182)
(15.5424 2.38687e-21 4.43378)
(16.0315 -6.76816e-22 4.51873)
(15.8139 -1.01191e-21 4.38543)
(16.2996 -1.22237e-21 4.43855)
(16.0803 -4.68195e-21 4.32087)
(16.5571 5.69652e-22 4.34243)
(16.3397 7.48943e-21 4.2409)
(16.5894 -3.30568e-21 4.14669)
(14.5488 -5.30836e-21 4.28038)
(14.4055 2.8825e-21 4.09708)
(14.8057 -1.13205e-21 4.2903)
(14.6253 -5.75754e-21 4.1135)
(15.0671 2.02842e-21 4.28599)
(14.874 1.10188e-22 4.11759)
(15.331 2.62173e-21 4.26657)
(15.1328 2.6218e-21 4.10793)
(15.5953 -5.14875e-21 4.23202)
(15.3911 0 4.08428)
(15.8575 -5.02128e-21 4.18256)
(15.6474 -5.27315e-21 4.04674)
(16.1155 3.94992e-21 4.11868)
(15.9013 2.57457e-22 3.99554)
(16.3671 3.77818e-21 4.04116)
(16.1514 2.16779e-22 3.93121)
(16.3955 2.20228e-22 3.85456)
(14.4591 2.68765e-21 3.92483)
(14.321 6.19449e-21 3.74952)
(14.6983 -4.59597e-21 3.93541)
(14.5259 -5.26238e-21 3.76532)
(14.9422 6.82393e-22 3.93418)
(14.7581 6.8241e-22 3.77092)
(15.1893 0 3.92038)
(15.0002 0 3.76507)
(15.4379 0 3.89391)
(15.2429 4.58127e-21 3.74752)
(15.6862 0 3.85487)
(15.4848 -8.73905e-21 3.71828)
(15.9325 -3.56182e-21 3.80355)
(15.7259 4.16536e-21 3.67746)
(16.175 -3.42455e-21 3.74048)
(15.9653 -3.6478e-21 3.62538)
(16.2011 2.25556e-22 3.56262)
(14.3661 -1.53637e-21 3.58499)
(14.2331 -2.2859e-21 3.41675)
(14.5898 0 3.59581)
(14.425 7.12868e-22 3.43178)
(14.8183 0 3.5968)
(14.6425 6.73237e-22 3.43833)
(15.0503 4.58143e-21 3.58727)
(14.8699 4.91899e-21 3.43531)
(15.2846 -4.04427e-21 3.56707)
(15.0985 -4.71971e-21 3.42247)
(15.5196 -4.78472e-21 3.53623)
(15.3272 -1.56704e-22 3.39976)
(15.7541 4.26592e-21 3.49489)
(15.5562 6.62613e-23 3.36721)
(15.9867 0 3.4434)
(15.7848 3.70824e-21 3.32498)
(16.0115 -7.50728e-21 3.27349)
(14.2714 -5.47287e-23 3.25882)
(14.1435 5.7916e-21 3.09685)
(14.4814 1.40335e-21 3.26958)
(14.324 -1.11928e-20 3.11099)
(14.6963 5.60866e-21 3.27213)
(14.5286 5.4342e-21 3.11806)
(14.9148 -4.38132e-21 3.26584)
(14.7429 4.40877e-21 3.11712)
(15.1361 -8.48131e-22 3.25058)
(14.9588 -1.42415e-20 3.10793)
(15.359 4.80646e-21 3.22629)
(15.1755 1.35079e-20 3.09041)
(15.5824 -5.9283e-22 3.19303)
(15.3933 -2.77888e-22 3.06452)
(15.8051 -3.71252e-21 3.15101)
(15.6116 -3.3996e-21 3.03035)
(15.8293 -6.60962e-21 2.98815)
(14.1765 -5.10217e-21 2.94456)
(14.0539 1.26152e-20 2.78812)
(14.3745 -7.42044e-21 2.95501)
(14.2243 -1.83747e-20 2.80126)
(14.5772 4.23089e-21 2.95859)
(14.4175 5.03691e-21 2.80852)
(14.7838 -5.24655e-21 2.95477)
(14.6202 4.40748e-21 2.80907)
(14.9934 -2.14611e-22 2.94339)
(14.8248 -4.71327e-21 2.8027)
(15.2053 8.63383e-21 2.92437)
(15.0307 8.91671e-21 2.7893)
(15.4183 -3.07924e-21 2.8977)
(15.2382 3.94145e-21 2.76882)
(15.6316 -6.29069e-21 2.86351)
(15.447 -8.51422e-21 2.74127)
(15.6562 2.84742e-23 2.7068)
(14.083 -1.23902e-22 2.64058)
(13.9659 -3.4683e-22 2.48901)
(14.2703 -6.096e-21 2.65052)
(14.1274 -4.27866e-22 2.50107)
(14.4623 5.26682e-21 2.65474)
(14.3106 1.80837e-22 2.50824)
(14.6583 5.17315e-21 2.65276)
(14.503 1.06203e-20 2.50981)
(14.8575 4.30668e-21 2.64442)
(14.6976 -5.31271e-21 2.50559)
(15.0593 4.23168e-21 2.62964)
(14.8937 8.70057e-21 2.49547)
(15.2629 -1.32719e-21 2.60837)
(15.092 -4.38056e-21 2.47938)
(15.4675 -2.24608e-21 2.58067)
(15.2921 -6.91111e-22 2.45728)
(15.4932 -3.72141e-21 2.42927)
(13.9924 -7.46849e-22 2.34546)
(13.8812 -1.15489e-20 2.19807)
(14.1705 6.02699e-21 2.35474)
(14.0349 1.16878e-20 2.20899)
(14.353 5.44646e-21 2.35926)
(14.2092 -1.0584e-20 2.21585)
(14.5395 2.59013e-22 2.3586)
(14.3926 6.04374e-21 2.21806)
(14.7295 -1.15091e-21 2.35263)
(14.5783 -4.70824e-21 2.21545)
(14.9223 1.97453e-22 2.34125)
(14.7658 9.08737e-21 2.20792)
(15.1173 -3.82079e-21 2.32441)
(14.9558 -4.29824e-21 2.19538)
(15.3139 -2.1329e-21 2.30211)
(15.1479 2.46996e-22 2.17778)
(15.3417 -3.35815e-21 2.15518)
(13.9065 5.32308e-22 2.05769)
(13.8014 -1.06188e-20 1.91392)
(14.0763 -4.82173e-21 2.06617)
(13.9482 5.9267e-21 1.92363)
(14.2505 -1.03436e-20 2.07072)
(14.1148 -5.39551e-21 1.93001)
(14.4287 1.2149e-21 2.07098)
(14.2902 -1.23029e-22 1.93255)
(14.6105 5.44117e-21 2.06683)
(14.4682 7.50104e-22 1.93111)
(14.7953 4.807e-21 2.05817)
(14.6481 4.53982e-21 1.9256)
(14.9827 -2.41735e-22 2.04494)
(14.8306 0 1.91593)
(15.172 -9.20118e-22 2.02713)
(15.0158 -1.0431e-23 1.90205)
(15.2029 -4.6634e-22 1.88397)
(13.8266 -5.57351e-21 1.77615)
(13.7279 -5.62322e-21 1.63518)
(13.9893 5.60907e-21 1.78374)
(13.8688 4.5943e-22 1.64363)
(14.1563 4.97615e-21 1.7881)
(14.0288 5.57626e-21 1.64937)
(14.3272 -6.14295e-22 1.78894)
(14.1973 -6.15671e-22 1.65199)
(14.5018 -2.67206e-22 1.78616)
(14.3685 2.81121e-22 1.65137)
(14.6797 -2.73642e-22 1.77967)
(14.5418 -2.73658e-22 1.64742)
(14.8602 2.36866e-22 1.7694)
(14.7179 0 1.64007)
(15.0431 4.64744e-22 1.75533)
(14.8968 5.23877e-24 1.62926)
(15.078 3.93224e-21 1.61499)
(13.7542 3.26941e-22 1.49892)
(13.6621 5.2969e-21 1.36047)
(13.9108 3.34822e-22 1.50551)
(13.7981 -5.16872e-21 1.36762)
(14.0716 -1.60646e-24 1.5095)
(13.9524 0 1.3726)
(14.2364 2.7949e-22 1.51065)
(14.1151 2.88589e-22 1.3751)
(14.4048 2.87909e-22 1.50886)
(14.2805 2.89299e-22 1.375)
(14.5765 0 1.50408)
(14.4482 2.62359e-22 1.37224)
(14.7512 -2.37359e-22 1.49622)
(14.6187 3.89008e-21 1.36676)
(14.9284 3.46187e-21 1.48527)
(14.7922 -3.81654e-21 1.3585)
(14.9683 1.28368e-22 1.34744)
(13.6907 -6.87055e-24 1.22579)
(13.6056 1.06213e-20 1.08835)
(13.8421 -5.63647e-21 1.23133)
(13.7375 -1.08793e-20 1.09415)
(13.9977 2.90197e-22 1.23482)
(13.8871 0 1.09829)
(14.1573 2.98635e-22 1.23607)
(14.045 2.97206e-22 1.10049)
(14.3205 2.63853e-22 1.235)
(14.2056 3.87345e-21 1.10069)
(14.4871 4.159e-21 1.23157)
(14.3685 -1.2067e-22 1.09883)
(14.6567 4.09363e-22 1.22572)
(14.5344 -3.93967e-21 1.09486)
(14.8291 -7.32593e-21 1.2174)
(14.7035 2.06905e-22 1.08872)
(14.8752 -3.7546e-21 1.08041)
(13.6376 1.47514e-22 0.952883)
(13.5596 5.40233e-21 0.817369)
(13.7849 -5.36917e-21 0.957262)
(13.6882 -2.77633e-21 0.821787)
(13.9362 0 0.960092)
(13.8341 -6.03e-23 0.824981)
(14.0915 3.87255e-21 0.961229)
(13.9881 -2.13615e-21 0.826766)
(14.2505 3.57926e-21 0.960621)
(14.145 4.23262e-21 0.82708)
(14.4128 -8.32153e-21 0.95822)
(14.3041 -3.98413e-22 0.825885)
(14.5784 -4.24724e-21 0.953977)
(14.4663 -7.99618e-21 0.823137)
(14.7468 3.96029e-21 0.947864)
(14.6317 3.7341e-21 0.818798)
(14.8 0 0.812855)
(13.5958 2.67575e-21 0.683457)
(13.5255 4.28769e-23 0.545873)
(13.7399 2.58311e-21 0.686705)
(13.6516 2.65603e-21 0.548841)
(13.888 -2.20986e-21 0.688866)
(13.7947 -6.17597e-23 0.55108)
(14.04 -1.92103e-21 0.689832)
(13.9459 -2.32566e-21 0.552362)
(14.1957 2.73129e-22 0.689574)
(14.0998 2.27021e-21 0.552656)
(14.3548 1.19626e-22 0.688059)
(14.2562 -2.01825e-21 0.551955)
(14.5171 -1.04071e-22 0.685249)
(14.4156 1.22514e-22 0.550229)
(14.6824 -2.32031e-22 0.681124)
(14.5782 1.68468e-21 0.547449)
(14.7439 -1.65914e-21 0.543608)
(13.5672 -4.02462e-23 0.406808)
(13.3948 -6.67057e-23 0.272096)
(13.709 0 0.408771)
(13.5181 1.1862e-21 0.273844)
(13.8547 -1.37454e-22 0.410068)
(13.658 -5.74194e-22 0.275044)
(14.0043 1.85678e-21 0.410625)
(13.806 -6.73928e-22 0.275708)
(14.1576 2.8412e-23 0.410439)
(13.9567 2.50351e-21 0.275882)
(14.3144 -2.06697e-21 0.4095)
(14.1098 -2.06709e-21 0.275564)
(14.4744 1.91648e-21 0.407786)
(14.266 0 0.274727)
(14.6374 3.02794e-22 0.405283)
(14.4253 1.90833e-21 0.273356)
(14.5877 -1.7506e-21 0.271445)
(13.3293 1.15129e-21 0.13754)
(13.4671 6.37825e-22 0.138423)
(13.6089 -1.12124e-21 0.139064)
(13.7545 -8.79364e-23 0.139433)
(13.9037 4.68521e-22 0.139538)
(14.0562 0 0.139376)
(14.212 -5.46582e-23 0.138938)
(14.3708 -1.07542e-22 0.138218)
)
;

boundaryField
{
    inlet
    {
        type            calculated;
        value           nonuniform 0();
    }
    outlet
    {
        type            calculated;
        value           nonuniform 0();
    }
    flap
    {
        type            calculated;
        value           nonuniform 0();
    }
    upperWall
    {
        type            calculated;
        value           uniform (0 0 0);
    }
    lowerWall
    {
        type            calculated;
        value           nonuniform 0();
    }
    frontAndBack
    {
        type            empty;
        value           nonuniform 0();
    }
    procBoundary1to0
    {
        type            processor;
        value           nonuniform List<vector> 
18
(
(11.7128 7.86858e-21 3.73778)
(11.8074 5.06694e-22 3.50867)
(11.745 1.00182e-21 3.31421)
(11.6926 2.52595e-22 3.12629)
(11.7525 -1.54808e-20 2.91159)
(11.7976 7.35683e-21 2.69558)
(11.8297 0 2.47909)
(11.851 6.32712e-21 2.26271)
(11.8632 5.85049e-22 2.04682)
(11.8682 1.30126e-20 1.83161)
(11.8678 -1.894e-20 1.61704)
(11.8634 6.07463e-21 1.40314)
(11.8568 -1.17201e-20 1.18919)
(11.8491 -1.16655e-20 0.975641)
(11.8419 -1.59955e-22 0.760178)
(11.8361 -2.43697e-23 0.545376)
(11.8331 -2.44022e-23 0.324558)
(11.6494 -6.26539e-22 0.107049)
)
;
    }
    procBoundary1to2
    {
        type            processor;
        value           nonuniform List<vector> 
17
(
(16.9676 2.49252e-21 4.50028)
(16.8013 -3.66885e-21 4.23195)
(16.6101 -2.49124e-23 3.95111)
(16.4121 -2.5936e-21 3.66646)
(16.2159 3.28872e-21 3.38233)
(16.0259 -1.06294e-20 3.10064)
(15.8442 -2.28551e-21 2.82207)
(15.6722 1.91913e-21 2.54672)
(15.5113 -6.1292e-21 2.27446)
(15.3627 -4.76639e-22 2.0048)
(15.2278 1.9682e-23 1.73749)
(15.1077 7.40879e-21 1.47123)
(15.0039 -7.33131e-21 1.20663)
(14.9177 3.29785e-21 0.939884)
(14.8504 -1.00167e-22 0.67568)
(14.8032 -1.99357e-22 0.401992)
(14.5322 -4.27787e-24 0.137213)
)
;
    }
    procBoundary1to3
    {
        type            processor;
        value           nonuniform List<vector> 9((9.65614 1.25691e-20 5.28013) (9.99879 1.36549e-22 5.20224) (10.3154 -1.98306e-20 5.08943) (10.6031 -1.07568e-20 4.94723) (10.8606 0 4.78094) (11.0877 1.98286e-20 4.59542) (11.285 -4.76778e-23 4.39496) (11.4537 -5.68436e-22 4.18323) (11.5957 -8.14491e-21 3.96332));
    }
    procBoundary1to4
    {
        type            processor;
        value           nonuniform List<vector> 
30
(
(9.49291 9.19306e-21 5.52907)
(9.73166 1.11625e-20 5.74919)
(9.97891 3.38514e-21 5.92387)
(10.1315 1.10873e-20 6.4178)
(10.4659 -1.23353e-20 6.57503)
(10.7857 -1.98379e-20 6.67814)
(11.0779 -7.65063e-21 7.14476)
(11.4794 -9.90255e-21 7.18523)
(11.8346 4.72151e-21 7.17977)