/*--------------------------------*- C++ -*----------------------------------*\
| =========                 |                                                 |
| \\      /  F ield         | OpenFOAM: The Open Source CFD Toolbox           |
|  \\    /   O peration     | Version:  dev                                   |
|   \\  /    A nd           | Web:      www.OpenFOAM.org                      |
|    \\/     M anipulation  |                                                 |
\*---------------------------------------------------------------------------*/
FoamFile
{
    version     2.0;
    format      ascii;
    class       volVectorField;
    location    "3.55";
    object      Force;
}
// * * * * * * * * * * * * * * * * * * * * * * * * * * * * * * * * * * * * * //

dimensions      [1 1 -2 0 0 0 0];

internalField   uniform (0 0 0);

boundaryField
{
    inlet
    {
        type            calculated;
        value           uniform (0 0 0);
    }
    outlet
    {
        type            calculated;
        value           uniform (0 0 0);
    }
    flap
    {
        type            calculated;
        value           nonuniform List<vector> 
33
(
(3.78202 -7.17741e-23 -0.0672518)
(3.76575 1.26093e-18 -0.125962)
(3.75575 -4.68991e-22 -0.171579)
(3.74839 -7.45372e-23 -0.197164)
(3.73659 -2.52944e-18 -0.208273)
(3.71474 6.41144e-22 -0.207938)
(3.68089 -1.75092e-23 -0.1983)
(3.63502 1.6201e-17 -0.181158)
(3.57508 -5.68048e-22 -0.160603)
(3.4964 1.62032e-17 -0.141316)
(3.39014 -5.45128e-22 -0.125853)
(3.24227 0 -0.114668)
(3.02809 1.72741e-17 -0.105294)
(2.69435 1.61816e-17 -0.0923753)
(2.09051 -5.78323e-23 -0.0697039)
(0.0222885 7.92846e-18 0.538391)
(0.012565 1.60448e-17 0.330843)
(0.00319105 7.93867e-18 0.1232)
(-0.0105903 0 0.000155789)
(-0.00982385 1.43493e-42 0.000145151)
(-0.00879783 1.56356e-23 0.000101105)
(-0.00782644 5.77588e-26 1.59501e-05)
(-0.00734232 -4.97673e-21 -5.73925e-05)
(-0.00782784 -5.26703e-21 -7.06863e-05)
(-0.00973377 7.17465e-43 1.02161e-05)
(-0.0132094 -4.41454e-21 0.000185159)
(-0.0178633 1.14794e-41 0.000415069)
(-0.0229365 -3.38085e-23 0.000660458)
(-0.0278344 -5.01725e-25 0.00091705)
(-0.0329294 1.63721e-17 0.00134365)
(-0.0374629 1.63766e-17 0.00174972)
(-0.03852 -4.11116e-24 0.00210713)
(-0.0315498 1.66366e-17 0.00200227)
)
;
    }
    upperWall
    {
        type            calculated;
        value           uniform (0 0 0);
    }
    lowerWall
    {
        type            calculated;
        value           uniform (0 0 0);
    }
    frontAndBack
    {
        type            empty;
    }
}


// ************************************************************************* //
