/*--------------------------------*- C++ -*----------------------------------*\
| =========                 |                                                 |
| \\      /  F ield         | OpenFOAM: The Open Source CFD Toolbox           |
|  \\    /   O peration     | Version:  dev                                   |
|   \\  /    A nd           | Web:      www.OpenFOAM.org                      |
|    \\/     M anipulation  |                                                 |
\*---------------------------------------------------------------------------*/
FoamFile
{
    version     2.0;
    format      ascii;
    class       volVectorField;
    location    "2.12";
    object      Force;
}
// * * * * * * * * * * * * * * * * * * * * * * * * * * * * * * * * * * * * * //

dimensions      [1 1 -2 0 0 0 0];

internalField   uniform (0 0 0);

boundaryField
{
    inlet
    {
        type            calculated;
        value           uniform (0 0 0);
    }
    outlet
    {
        type            calculated;
        value           uniform (0 0 0);
    }
    flap
    {
        type            calculated;
        value           nonuniform List<vector> 
33
(
(2.72301 -5.85296e-22 -0.268913)
(2.63318 6.15839e-17 -0.622753)
(2.45391 -1.01521e-21 -0.92303)
(2.21684 8.54586e-22 -1.11016)
(1.96907 -1.91846e-17 -1.20323)
(1.74058 -5.87747e-39 -1.23003)
(1.54398 0 -1.21462)
(1.38212 -1.88079e-37 -1.17417)
(1.24899 3.93422e-21 -1.1178)
(1.13619 -1.9746e-22 -1.04962)
(1.03439 1.57136e-17 -0.97116)
(0.932057 -2.75872e-22 -0.880148)
(0.817821 2.04072e-17 -0.77213)
(0.680111 3.53494e-22 -0.639135)
(0.501824 1.14782e-17 -0.471184)
(0.507335 1.73653e-17 0.531378)
(0.304785 1.15407e-17 0.321984)
(0.113676 -8.30096e-22 0.120792)
(-0.0147704 -6.54686e-24 0.00151909)
(-0.0146611 -1.13299e-17 0.00348923)
(-0.0143877 -1.16414e-23 0.00545543)
(-0.0140308 8.95396e-40 0.00705354)
(-0.0136864 -2.30355e-23 0.00838699)
(-0.0134554 -4.70125e-20 0.00952251)
(-0.0134346 -3.4763e-23 0.0105603)
(-0.0137263 1.46124e-17 0.0116256)
(-0.0144971 2.70723e-23 0.0129065)
(-0.0159242 6.29062e-25 0.0146211)
(-0.018069 1.34507e-19 0.0168902)
(-0.0209264 1.61296e-17 0.0197786)
(-0.0242698 1.789e-19 0.0231974)
(-0.0272098 2.01444e-19 0.0263675)
(-0.0217697 1.65076e-19 0.0216199)
)
;
    }
    upperWall
    {
        type            calculated;
        value           uniform (0 0 0);
    }
    lowerWall
    {
        type            calculated;
        value           uniform (0 0 0);
    }
    frontAndBack
    {
        type            empty;
    }
}


// ************************************************************************* //
