/*--------------------------------*- C++ -*----------------------------------*\
| =========                 |                                                 |
| \\      /  F ield         | OpenFOAM: The Open Source CFD Toolbox           |
|  \\    /   O peration     | Version:  dev                                   |
|   \\  /    A nd           | Web:      www.OpenFOAM.org                      |
|    \\/     M anipulation  |                                                 |
\*---------------------------------------------------------------------------*/
FoamFile
{
    version     2.0;
    format      ascii;
    class       surfaceScalarField;
    location    "0.29";
    object      phi;
}
// * * * * * * * * * * * * * * * * * * * * * * * * * * * * * * * * * * * * * //

dimensions      [0 3 -1 0 0 0 0];

internalField   nonuniform List<scalar> 
5457
(
0.198405
0.0015935
0.196506
0.00189761
0.194276
0.00223047
0.191676
0.00259996
0.188707
0.00297037
0.185371
0.00333853
0.181662
0.00371221
0.177566
0.00409837
0.173068
0.00450172
0.168146
0.00492557
0.162777
0.0053723
0.156936
0.00584323
0.1506
0.00633817
0.143746
0.00685499
0.136358
0.00738906
0.128425
0.0079326
0.11995
0.0084742
0.11095
0.00899835
0.101463
0.0094854
0.0915491
0.00991189
0.0812956
0.0102514
0.0708174
0.0104762
0.0602564
0.0105592
0.0497789
0.010476
0.03957
0.0102078
0.0298266
0.00974265
0.0207474
0.00907875
0.0125208
0.00822635
0.00527847
0.00724227
0.00527844
0.199978
0.00161427
0.199272
0.00260243
0.198134
0.00336825
0.196596
0.00413829
0.194656
0.0049115
0.192313
0.00568392
0.189561
0.00646754
0.186387
0.0072753
0.182775
0.00811678
0.178705
0.00899913
0.174153
0.00992776
0.169092
0.0109062
0.163497
0.0119353
0.157341
0.0130125
0.1506
0.0141309
0.143255
0.0152776
0.135294
0.0164335
0.12672
0.0175716
0.117546
0.0186575
0.107807
0.0196493
0.0975567
0.0204993
0.0868744
0.0211565
0.0758619
0.0215698
0.0646432
0.0216932
0.0533594
0.0214905
0.0421588
0.0209425
0.0311809
0.0200563
0.020531
0.018876
0.0102123
0.0175609
0.0154907
0.199828
0.00178434
0.199181
0.00324844
0.19811
0.00443933
0.196665
0.00558318
0.194855
0.00672353
0.192676
0.00786527
0.190123
0.00902281
0.187188
0.0102134
0.183857
0.0114511
0.180113
0.0127472
0.175933
0.0141105
0.171294
0.0155476
0.16617
0.0170618
0.160531
0.0186522
0.154351
0.0203123
0.1476
0.0220284
0.140254
0.0237783
0.132294
0.0255297
0.123711
0.0272395
0.114504
0.0288543
0.10469
0.0303117
0.0943008
0.0315431
0.0833905
0.0324783
0.0720308
0.0330514
0.0603116
0.0332086
0.0483362
0.0329172
0.0362147
0.0321772
0.0240608
0.0310296
0.01199
0.0296316
0.0274807
0.199745
0.00203739
0.199099
0.00389364
0.198046
0.0054914
0.196626
0.00700434
0.19485
0.00850038
0.19272
0.00999787
0.190231
0.0115145
0.187377
0.0130706
0.184147
0.014684
0.180528
0.0163695
0.176503
0.018139
0.172051
0.0200021
0.16715
0.0219647
0.161775
0.0240287
0.155898
0.0261895
0.149491
0.0284355
0.142524
0.0307451
0.134966
0.0330858
0.126792
0.0354125
0.117976
0.0376677
0.108504
0.0397818
0.0983692
0.0416761
0.0875789
0.0432667
0.0761589
0.0444699
0.0641569
0.0452095
0.05165
0.0454234
0.0387568
0.04507
0.0256631
0.044123
0.0126781
0.0426166
0.0401587
0.199706
0.00232933
0.199052
0.00454641
0.198018
0.00652564
0.196623
0.0083988
0.194884
0.0102411
0.1928
0.0120834
0.19037
0.013948
0.187585
0.0158579
0.184438
0.0178341
0.180917
0.0198945
0.177005
0.0220539
0.172685
0.0243245
0.167937
0.0267149
0.162737
0.0292297
0.15706
0.0318674
0.150876
0.0346193
0.144154
0.0374671
0.136857
0.0403813
0.128948
0.0433199
0.120387
0.0462265
0.111136
0.0490313
0.101158
0.0516518
0.090428
0.053995
0.0789361
0.0559603
0.0667026
0.057442
0.0537952
0.05833
0.040358
0.0585067
0.0266472
0.0578336
0.0130839
0.0561799
0.0532426
0.199689
0.00263821
0.199033
0.00520119
0.19802
0.00753831
0.19666
0.00975865
0.194966
0.0119368
0.192939
0.0141125
0.190576
0.0163134
0.187871
0.0185652
0.184817
0.0208918
0.181401
0.023314
0.177608
0.0258494
0.173422
0.0285129
0.168823
0.0313161
0.163788
0.0342664
0.15829
0.037366
0.152299
0.0406101
0.145781
0.0439852
0.138694
0.0474672
0.130993
0.0510195
0.122626
0.0545916
0.113538
0.0581177
0.103672
0.061516
0.0929767
0.064688
0.0814194
0.0675162
0.0690004
0.0698599
0.0557822
0.0715474
0.041923
0.0723654
0.02771
0.0720463
0.01358
0.0703098
0.0668225
0.199684
0.00295186
0.199034
0.00584984
0.198047
0.00852491
0.196728
0.0110773
0.195087
0.013579
0.193126
0.0160754
0.190843
0.0185991
0.188232
0.0211792
0.185284
0.0238422
0.18199
0.0266117
0.178334
0.0295083
0.1743
0.0325496
0.169867
0.0357505
0.165013
0.039122
0.15971
0.0426703
0.153924
0.0463955
0.147619
0.05029
0.140749
0.0543367
0.13326
0.0585068
0.125092
0.062758
0.116176
0.0670321
0.106439
0.0712516
0.0958095
0.0753153
0.0842337
0.0790906
0.0716915
0.0824011
0.0582277
0.0850105
0.0439862
0.0866064
0.0292369
0.0867954
0.014364
0.0851826
0.0811865
0.199687
0.00326281
0.19905
0.00648489
0.198094
0.0094803
0.196823
0.0123484
0.195243
0.0151594
0.193358
0.0179623
0.191165
0.0207942
0.18866
0.0236871
0.185835
0.0266706
0.182679
0.0297708
0.179178
0.0330114
0.175317
0.0364132
0.171076
0.0399945
0.166429
0.0437701
0.161349
0.0477512
0.155801
0.0519435
0.149744
0.0563464
0.143129
0.0609509
0.135897
0.0657378
0.127978
0.0706755
0.119293
0.075716
0.109753
0.0807898
0.0992681
0.0857981
0.0877588
0.0905986
0.0751724
0.0949864
0.0615128
0.0986694
0.0468716
0.101247
0.0314571
0.10221
0.0155678
0.101072
0.0967543
0.199694
0.00356613
0.199077
0.00710008
0.198158
0.0103991
0.19694
0.013566
0.195429
0.0166705
0.193629
0.0197642
0.191538
0.0228877
0.189151
0.0260765
0.186462
0.0293625
0.183461
0.0327747
0.180135
0.0363398
0.176469
0.0400817
0.172443
0.0440224
0.168034
0.0481811
0.163212
0.0525742
0.157942
0.0572136
0.152182
0.0621066
0.145879
0.0672533
0.13897
0.0726458
0.131379
0.0782651
0.123017
0.0840767
0.11378
0.0900245
0.103557
0.0960196
0.0922325
0.101922
0.0797021
0.107516
0.0658963
0.112475
0.0508093
0.116334
0.0345405
0.118478
0.0172808
0.118331
0.114035
0.199705
0.00385831
0.199113
0.00769025
0.198235
0.0112762
0.197076
0.0147243
0.195642
0.0181053
0.193935
0.0214725
0.191955
0.0248699
0.189698
0.0283357
0.187159
0.0319044
0.184329
0.0356077
0.181196
0.039475
0.177746
0.0435336
0.173962
0.0478089
0.16982
0.0523249
0.165292
0.057103
0.160344
0.062162
0.154933
0.0675172
0.149007
0.0731789
0.142501
0.0791513
0.135334
0.0854304
0.127411
0.0919991
0.118612
0.0988215
0.1088
0.10583
0.0978146
0.112907
0.0854775
0.119852
0.0716058
0.126346
0.0560391
0.1319
0.0387032
0.135814
0.0196614
0.137373
0.133696
0.199719
0.00413671
0.199156
0.00825113
0.198324
0.0121068
0.19723
0.0158181
0.195878
0.0194573
0.194272
0.0230797
0.192412
0.0267317
0.190296
0.0304542
0.187919
0.034284
0.185274
0.0382554
0.182351
0.0424001
0.179139
0.0467486
0.17562
0.05133
0.171774
0.0561722
0.167576
0.0613021
0.162993
0.0667448
0.157987
0.0725238
0.152506
0.0786597
0.146486
0.0851699
0.139849
0.0920666
0.132493
0.0993545
0.124288
0.107025
0.115069
0.115047
0.104625
0.12335
0.0926855
0.131791
0.0789134
0.140117
0.0629183
0.147895
0.044335
0.154397
0.0229904
0.158718
0.156687
0.199735
0.00439926
0.199204
0.00877921
0.198423
0.0128866
0.197398
0.0168423
0.196135
0.0207207
0.194637
0.0245787
0.192905
0.028465
0.190939
0.0324225
0.188735
0.0364902
0.186288
0.0407045
0.183591
0.0450996
0.180634
0.0497085
0.177402
0.0545634
0.17388
0.0596961
0.170045
0.0651381
0.16587
0.0709206
0.161319
0.0770744
0.156349
0.08363
0.1509
0.0906177
0.144899
0.0980672
0.138246
0.106007
0.130806
0.114464
0.122396
0.123456
0.112759
0.132986
0.101529
0.143021
0.0881873
0.153458
0.0720272
0.164055
0.0521848
0.174239
0.0278919
0.18301
0.184579
0.199752
0.00464436
0.199257
0.00927155
0.19853
0.013612
0.197579
0.0177928
0.196409
0.0218905
0.195025
0.0259637
0.193428
0.0300626
0.191621
0.0342323
0.1896
0.0385134
0.187363
0.0429439
0.184904
0.0475602
0.182218
0.0523972
0.179293
0.0574898
0.176118
0.0628728
0.172676
0.0685817
0.168944
0.0746524
0.164897
0.0811222
0.160497
0.08803
0.155697
0.0954174
0.150433
0.103331
0.144616
0.111823
0.138122
0.120957
0.130767
0.13081
0.122272
0.141479
0.112208
0.153085
0.0998949
0.165771
0.0842586
0.179691
0.0636518
0.194846
0.0358724
0.21079
0.220451
0.19977
0.00487071
0.199313
0.00972578
0.198644
0.01428
0.19777
0.0186659
0.196697
0.0229625
0.195432
0.0272295
0.193977
0.0315188
0.192335
0.0358767
0.190505
0.0403454
0.188486
0.0449642
0.186278
0.0497706
0.183876
0.0548014
0.181274
0.0600932
0.178466
0.0656829
0.17544
0.0716087
0.172183
0.0779101
0.168677
0.0846287
0.164898
0.0918095
0.160812
0.0995032
0.156373
0.107769
0.151516
0.11668
0.146141
0.126331
0.140096
0.136855
0.133133
0.148441
0.124842
0.161376
0.114504
0.176108
0.100814
0.19338
0.0812398
0.21442
0.0506065
0.241423
0.271058
0.19979
0.00507717
0.199373
0.0101398
0.198763
0.0148877
0.19797
0.0194585
0.196999
0.023933
0.195857
0.0283721
0.194548
0.0328288
0.193076
0.0373504
0.191443
0.0419802
0.189651
0.0467581
0.187701
0.0517226
0.185593
0.0569114
0.183326
0.0623618
0.180898
0.0681121
0.178306
0.0742017
0.175546
0.0806716
0.172609
0.0875658
0.169487
0.0949324
0.166163
0.102826
0.162618
0.111314
0.158816
0.120481
0.154706
0.130441
0.1502
0.14136
0.145153
0.153488
0.139309
0.16722
0.132189
0.183227
0.122828
0.202742
0.108897
0.228351
0.0825618
0.267758
0.35362
-0.00979093
0.0097909
-0.0227294
0.0129383
-0.0376888
0.0149591
-0.0541906
0.016501
-0.0717965
0.0176047
-0.0901004
0.0183022
-0.1087
0.0185976
-0.127176
0.0184729
-0.145073
0.0178934
-0.161891
0.0168145
-0.177083
0.0151892
-0.190065
0.0129784
-0.20023
0.0101622
-0.206981
0.00674844
-0.209757
0.00277484
-0.20807
-0.00168842
-0.201565
-0.00650598
-0.190178
-0.0113864
-0.174152
-0.0160251
-0.153995
-0.0201557
-0.130434
-0.0235587
-0.104363
-0.0260678
-0.07679
-0.0275701
-0.0487482
-0.028038
-0.0211026
-0.0276416
0.00555937
-0.0266577
0.0308784
-0.0253146
0.0547133
-0.0238302
0.0774109
-0.0226927
-0.0236959
-0.0130793
0.0228701
-0.0274827
0.0273416
-0.043167
0.0306429
-0.0599835
0.0333168
-0.077676
0.035296
-0.095938
0.0365624
-0.11442
0.0370773
-0.132727
0.0367769
-0.150412
0.0355754
-0.166974
0.0333731
-0.181858
0.03007
-0.194466
0.0255833
-0.204178
0.0198712
-0.210385
0.0129523
-0.212522
0.00491061
-0.210132
-0.00407981
-0.20294
-0.0136991
-0.190934
-0.0233922
-0.174374
-0.0325837
-0.153775
-0.0407538
-0.129859
-0.0474722
-0.103499
-0.0524242
-0.0756407
-0.0554253
-0.0472067
-0.0564683
-0.0190182
-0.0558261
0.00805036
-0.0537221
0.0336467
-0.0509065
0.0578295
-0.0480084
0.080878
-0.0457364
-0.0461204
-0.0146414
0.0375115
-0.0300055
0.0427056
-0.045935
0.046572
-0.0625762
0.0499573
-0.0798646
0.0525833
-0.0976147
0.0543108
-0.115551
0.0550113
-0.133323
0.0545458
-0.150508
0.0527576
-0.166617
0.0494784
-0.181093
0.0445433
-0.19333
0.0378167
-0.202689
0.0292272
-0.208542
0.0188032
-0.210319
0.0066861
-0.207545
-0.00685512
-0.199969
-0.0212761
-0.187631
-0.0357305
-0.170838
-0.049375
-0.150135
-0.0614556
-0.126256
-0.0713494
-0.100064
-0.0786131
-0.0724744
-0.0830114
-0.0443693
-0.0845698
-0.0165436
-0.0836478
0.0101466
-0.0804081
0.0353509
-0.0761064
0.0591096
-0.0717625
0.0816401
-0.068262
-0.067571
-0.0153825
0.0528939
-0.0310534
0.0583764
-0.0468307
0.0623489
-0.0630155
0.0661414
-0.0796779
0.0692445
-0.0967381
0.0713694
-0.113995
0.0722659
-0.131144
0.0716925
-0.147789
0.069399
-0.163442
0.0651287
-0.177537
0.058635
-0.189438
0.049714
-0.198466
0.0382529
-0.203954
0.0242888
-0.205309
0.00803872
-0.202066
-0.0100996
-0.194041
-0.0293015
-0.181356
-0.048415
-0.164375
-0.0663548
-0.143667
-0.0821625
-0.119968
-0.0950459
-0.0941237
-0.104455
-0.0670151
-0.110117
-0.0394888
-0.112092
-0.0123252
-0.110807
0.0136935
-0.106423
0.0382189
-0.100627
0.0612972
-0.0948363
0.083056
-0.090016
-0.0879371
-0.0153472
0.0682411
-0.0306545
0.0736836
-0.0458684
0.0775624
-0.0613319
0.0816042
-0.0771756
0.0850871
-0.0933857
0.0875779
-0.109816
0.088694
-0.126201
0.0880748
-0.142164
0.085359
-0.157222
0.0801838
-0.170795
0.0722052
-0.182222
0.0611376
-0.190788
0.0468165
-0.195789
0.0292871
-0.196622
0.00886993
-0.192846
-0.0138765
-0.184367
-0.0377813
-0.1714
-0.0613819
-0.154366
-0.0833888
-0.133844
-0.102683
-0.110562
-0.118326
-0.0853301
-0.129684
-0.0589871
-0.136457
-0.032343
-0.138733
-0.00618985
-0.136957
0.018848
-0.131456
0.0424123
-0.124187
0.0645634
-0.116983
0.0853208
-0.110769
-0.107089
-0.0144567
0.0826978
-0.0287425
0.0879692
-0.0429607
0.0917802
-0.0573971
0.09604
-0.072181
0.0998699
-0.0873257
0.102721
-0.102719
0.104086
-0.118128
0.103481
-0.133199
0.100427
-0.147461
0.0944423
-0.16033
0.0850708
-0.171125
0.0719303
-0.179102
0.0547906
-0.183515
0.0336976
-0.18375
0.00910287
-0.179402
-0.0182256
-0.170504
-0.0466803
-0.157382
-0.0745038
-0.140501
-0.100269
-0.12043
-0.122752
-0.0978631
-0.140891
-0.0735594
-0.153985
-0.0483066
-0.161706
-0.0228455
-0.164191
0.00190989
-0.161708
0.0255966
-0.155139
0.0479942
-0.146581
0.0689883
-0.137972
0.0885282
-0.130304
-0.124877
-0.0127195
0.0954172
-0.0253631
0.100613
-0.038124
0.104541
-0.0511665
0.109082
-0.0645793
0.113282
-0.0783749
0.116515
-0.09246
0.118169
-0.106629
0.117648
-0.120555
0.114351
-0.133788
0.107672
-0.145749
0.097029
-0.155746
0.0819241
-0.163003
0.0620453
-0.166735
0.0374277
-0.166309
0.00867501
-0.161378
-0.0231584
-0.15215
-0.0559088
-0.139074
-0.08758
-0.122632
-0.116709
-0.103345
-0.142039
-0.0818412
-0.162392
-0.0588178
-0.177006
-0.0350168
-0.185504
-0.0111501
-0.188054
0.0119278
-0.184783
0.0339876
-0.177195
0.0549807
-0.16757
0.0745929
-0.15758
0.0927146
-0.148421
-0.141166
-0.0102809
0.105698
-0.0207121
0.111044
-0.0315336
0.115362
-0.0427584
0.120306
-0.0544192
0.124942
-0.0665132
0.128608
-0.0789565
0.13061
-0.0915682
0.130257
-0.104053
0.126833
-0.11599
0.119605
-0.126816
0.107853
-0.135833
0.0909385
-0.142239
0.0684482
-0.145212
0.040399
-0.144075
0.00753611
-0.138575
-0.0286602
-0.129168
-0.0653162
-0.116414
-0.100334
-0.100766
-0.132357
-0.082648
-0.160155
-0.0625897
-0.182449
-0.0412218
-0.198372
-0.0192193
-0.207504
0.00257764
-0.209848
0.0236853
-0.205887
0.0440002
-0.197506
0.0633416
-0.186907
0.0813522
-0.175586
0.0978723
-0.164936
-0.155837
-0.00732693
0.113025
-0.0151001
0.118817
-0.0235075
0.123769
-0.0324556
0.129254
-0.0419311
0.134416
-0.0519142
0.13859
-0.0623263
0.141021
-0.0730105
0.140939
-0.0837066
0.137527
-0.0940326
0.129929
-0.10346
0.117277
-0.111292
0.0987677
-0.116695
0.0738488
-0.118833
0.0425356
-0.116951
0.00565192
-0.110957
-0.0346553
-0.101606
-0.0746685
-0.0895272
-0.112413
-0.0750762
-0.146808
-0.0585478
-0.176683
-0.0403232
-0.200672
-0.0210125
-0.21768
-0.00124505
-0.227269
0.0181979
-0.229288
0.0371252
-0.224811
0.0555303
-0.215907
0.0729966
-0.204369
0.0892004
-0.191786
0.103955
-0.179687
-0.168797
-0.00408889
0.117114
-0.00888077
0.123609
-0.0144449
0.129333
-0.0206633
0.135471
-0.0275046
0.141257
-0.0349403
0.146024
-0.042898
0.148977
-0.0512425
0.149282
-0.0597497
0.146032
-0.0680911
0.138267
-0.075791
0.124974
-0.0821842
0.105158
-0.086403
0.0780651
-0.0876025
0.0437329
-0.0849528
0.0030004
-0.0786803
-0.0409291
-0.0697432
-0.0836064
-0.0587736
-0.123383
-0.0459383
-0.159643
-0.0314005
-0.19122
-0.0153826
-0.216688
0.00150346
-0.234564
0.0185353
-0.244298
0.0354379
-0.246187
0.0522018
-0.241571
0.0684486
-0.232151
0.0838205
-0.219737
0.0980318
-0.205993
0.110883
-0.192533
-0.179972
-0.000782798
0.117897
-0.00237239
0.125198
-0.00475022
0.13171
-0.00784543
0.138566
-0.0116434
0.145054
-0.0161177
0.150497
-0.0212078
0.154065
-0.0267932
0.154865
-0.0326749
0.151911
-0.0385915
0.144182
-0.0441415
0.130522
-0.0487487
0.109763
-0.0515793
0.0808934
-0.0516434
0.0437948
-0.0482117
-0.000433012
-0.0421218
-0.0470204
-0.034149
-0.09158
-0.0247898
-0.132742
-0.0139699
-0.170462
-0.00167606
-0.203513
0.011692
-0.230055
0.0256075
-0.248478
0.0399033
-0.258592
0.0543756
-0.260657
0.0687042
-0.255897
0.0825602
-0.246003
0.0956417
-0.232815
0.107702
-0.218049
0.118539
-0.203365
-0.189313
0.00251077
0.115386
0.00423001
0.123479
0.00523063
0.130709
0.00551963
0.138277
0.00506671
0.145506
0.00388045
0.151682
0.00200607
0.155938
-0.000444923
0.157314
-0.00329908
0.154763
-0.00633328
0.147213
-0.00925031
0.133437
-0.0116515
0.112162
-0.0128652
0.0821048
-0.0115314
0.0424589
-0.0074484
-0.00451779
-0.0020351
-0.0524351
0.00432722
-0.0979432
0.0116676
-0.140083
0.0201192
-0.178914
0.0296315
-0.213024
0.0400432
-0.240465
0.0512508
-0.259683
0.0628834
-0.270222
0.0746733
-0.272444
0.0863393
-0.26756
0.0976112
-0.257272
0.108244
-0.243444
0.118032
-0.227833
0.126779
-0.212107
-0.196798
0.00585096
0.109535
0.0109649
0.118365
0.0153798
0.126294
0.0191146
0.134541
0.0220892
0.14253
0.0242856
0.149484
0.025757
0.154465
0.0266278
0.156441
0.0270426
0.154346
0.027195
0.147058
0.0273181
0.133311
0.0278087
0.111669
0.0294544
0.0804569
0.0327008
0.0392104
0.0364634
-0.00828212
0.0402153
-0.0561884
0.0442486
-0.101978
0.0491614
-0.144996
0.055077
-0.184829
0.0619837
-0.21993
0.0697474
-0.248228
0.0781763
-0.268111
0.0869769
-0.279021
0.0959076
-0.281372
0.104748
-0.276398
0.113298
-0.265818
0.121374
-0.251517
0.128813
-0.235267
0.135433
-0.218723
-0.202431
0.00942104
0.100114
0.0179897
0.109796
0.0257126
0.118571
0.0328326
0.127421
0.0391763
0.136186
0.0446898
0.14397
0.0494604
0.149693
0.0536261
0.152274
0.0573353
0.150634
0.0607663
0.143625
0.0641401
0.129935
0.0678215
0.107985
0.0720746
0.0762016
0.0762495
0.0350336
0.0794081
-0.0114425
0.081766
-0.0585477
0.083974
-0.104187
0.0867456
-0.147769
0.0903828
-0.188466
0.0948779
-0.224425
0.10006
-0.253409
0.105714
-0.273764
0.111618
-0.284923
0.117601
-0.287353
0.123529
-0.282323
0.129284
-0.271571
0.134753
-0.256982
0.139818
-0.240328
0.144319
-0.223219
-0.206247
0.0135947
0.0865191
0.0254227
0.0979676
0.0362168
0.107777
0.046645
0.116992
0.0561462
0.126684
0.0647243
0.13539
0.0725548
0.141861
0.0798002
0.145026
0.0866142
0.143818
0.0931581
0.137079
0.0995996
0.123491
0.10605
0.101532
0.112154
0.0700955
0.116981
0.0302054
0.119886
-0.01435
0.121246
-0.0599084
0.122058
-0.105
0.123204
-0.148914
0.125021
-0.190284
0.127435
-0.226838
0.130226
-0.256199
0.1332
-0.276737
0.136229
-0.28795
0.139255
-0.290376
0.142257
-0.285322
0.145215
-0.274527
0.148091
-0.259854
0.150814
-0.243047
0.153247
-0.225648
-0.20831
0.207463
0.00527
0.207073
0.0105261
0.206505
0.0154533
0.205769
0.0201937
0.204871
0.0248301
0.203819
0.029424
0.20262
0.0340293
0.201278
0.038694
0.199798
0.0434616
0.198185
0.0483727
0.196444
0.0534658
0.194579
0.0587787
0.192593
0.0643489
0.190493
0.0702145
0.188281
0.0764147
0.185963
0.0829902
0.183545
0.0899845
0.181033
0.0974451
0.178433
0.105426
0.175753
0.113994
0.173002
0.123232
0.170188
0.133255
0.167323
0.144225
0.164427
0.156383
0.161549
0.170098
0.158822
0.185955
0.156686
0.204878
0.157038
0.227999
0.172166
0.252631
0.266373
0.259412
0.212505
0.00544381
0.212153
0.0108743
0.211642
0.0159619
0.210981
0.0208527
0.21018
0.0256308
0.209246
0.0303584
0.208186
0.0350895
0.207009
0.0398724
0.205721
0.0447506
0.204331
0.0497644
0.202847
0.054952
0.201277
0.0603504
0.199632
0.065996
0.197922
0.0719258
0.196161
0.0781769
0.194365
0.0847879
0.192551
0.0917986
0.190745
0.0992522
0.188975
0.107197
0.18728
0.115689
0.185715
0.124798
0.184355
0.134615
0.183319
0.145261
0.182806
0.156896
0.183182
0.169723
0.185193
0.183943
0.190485
0.199587
0.202153
0.216331
0.221603
0.233181
0.249246
0.23873
0.21767
0.00559656
0.217361
0.0111802
0.216912
0.0164076
0.216335
0.0214277
0.215639
0.0263258
0.214833
0.0311643
0.213926
0.0359968
0.212928
0.0408715
0.211849
0.0458313
0.210699
0.0509158
0.209491
0.0561618
0.208238
0.0616049
0.206956
0.0672797
0.205663
0.0732203
0.204381
0.0794607
0.203135
0.0860348
0.201958
0.0929767
0.200889
0.100321
0.199981
0.108106
0.199299
0.11637
0.198937
0.125161
0.199021
0.13453
0.199743
0.144539
0.201393
0.155246
0.204423
0.166693
0.209508
0.178858
0.217502
0.191593
0.229109
0.204724
0.243936
0.218354
0.22984
0.263341
0.222962
0.00572628
0.222698
0.0114402
0.222318
0.0167849
0.221831
0.0219118
0.221249
0.0269065
0.220582
0.0318313
0.219839
0.0367396
0.219034
0.0416782
0.218177
0.0466893
0.217283
0.0518109
0.216368
0.0570783
0.215451
0.0625244
0.214551
0.0681812
0.213694
0.0740789
0.212909
0.080247
0.212232
0.0867131
0.211706
0.0935036
0.211385
0.100643
0.211338
0.108154
0.211652
0.116057
0.212442
0.124371
0.213863
0.13311
0.216123
0.142278
0.219506
0.151863
0.22438
0.16182
0.231183
0.172055
0.240377
0.1824
0.252537
0.192564
0.268647
0.202244
0.209145
0.289342
0.228383
0.00583115
0.228169
0.0116504
0.227862
0.0170886
0.227473
0.0222982
0.227012
0.027365
0.226492
0.0323505
0.225925
0.0373073
0.225322
0.042281
0.2247
0.0473122
0.224076
0.052437
0.223468
0.0576879
0.222898
0.0630954
0.222394
0.0686874
0.221984
0.07449
0.221706
0.0805265
0.221603
0.0868178
0.221727
0.093381
0.222141
0.100229
0.222926
0.10737
0.22418
0.114804
0.226026
0.122526
0.228622
0.130515
0.232163
0.138738
0.236891
0.147135
0.243097
0.155615
0.251116
0.164035
0.261336
0.172181
0.274211
0.179689
0.290234
0.186222
0.190755
0.308624
0.233937
0.00590951
0.233775
0.0118078
0.233546
0.0173141
0.23326
0.0225811
0.232928
0.0276943
0.232564
0.032714
0.232179
0.0376914
0.23179
0.0426706
0.231413
0.0476903
0.231067
0.0527841
0.230775
0.0579816
0.230562
0.0633094
0.230459
0.0687919
0.230501
0.0744497
0.230729
0.0803001
0.231192
0.0863563
0.231948
0.0926263
0.233066
0.0991115
0.234631
0.105806
0.236743
0.112693
0.239523
0.119746
0.243116
0.126922
0.247695
0.134159
0.253459
0.141372
0.260634
0.148441
0.269466
0.155204
0.280199
0.161448
0.293007
0.166882
0.307976
0.171253
0.174116
0.324615
0.239625
0.00595991
0.239519
0.0119095
0.239372
0.0174573
0.239194
0.0227556
0.238997
0.0278886
0.238795
0.0329153
0.2386
0.0378851
0.23843
0.0428401
0.238305
0.0478166
0.238244
0.0528459
0.238273
0.0579539
0.23842
0.0631636
0.238719
0.0684946
0.239208
0.0739625
0.239931
0.0795784
0.24094
0.0853481
0.242297
0.0912709
0.244072
0.097338
0.246347
0.103531
0.249219
0.109822
0.2528
0.116167
0.257214
0.122509
0.262605
0.12877
0.269126
0.134852
0.276937
0.14063
0.28619
0.145951
0.297004
0.150634
0.309422
0.154464
0.323435
0.15724
0.158735
0.338817
0.245452
0.00598113
0.245403
0.0119531
0.245341
0.017515
0.245276
0.0228175
0.245219
0.0279433
0.245183
0.0329495
0.245183
0.0378835
0.245238
0.042785
0.245367
0.0476877
0.245593
0.0526199
0.245944
0.0576044
0.246448
0.0626601
0.247142
0.0678021
0.248066
0.0730407
0.249264
0.0783813
0.250791
0.0838228
0.252706
0.0893573
0.255077
0.0949676
0.257983
0.100627
0.26151
0.106296
0.265754
0.111924
0.270819
0.117445
0.276814
0.122775
0.283849
0.127817
0.292027
0.132453
0.30143
0.136549
0.312105
0.139959
0.324046
0.142524
0.337196
0.14409
0.144549
0.351381
0.25142
0.00597224
0.251431
0.0119368
0.251456
0.0174846
0.251506
0.0227638
0.251591
0.0278552
0.251725
0.0328136
0.251924
0.0376839
0.252204
0.0425035
0.252589
0.0473032
0.253101
0.052108
0.253768
0.0569375
0.254622
0.061807
0.255698
0.066727
0.257037
0.0717034
0.258684
0.0767361
0.260689
0.0818185
0.263111
0.0869366
0.266013
0.0920674
0.269463
0.0971778
0.273536
0.102224
0.278311
0.10715
0.283869
0.111888
0.290288
0.116357
0.29764
0.120465
0.305983
0.12411
0.315354
0.127179
0.325756
0.129558
0.337148
0.131132
0.349442
0.131796
0.131503
0.362488
0.257532
0.00593259
0.257603
0.0118594
0.257719
0.0173645
0.257885
0.0225928
0.258115
0.0276226
0.25842
0.0325062
0.258816
0.0372859
0.259322
0.0419963
0.259959
0.0466655
0.260752
0.0513153
0.261728
0.055962
0.262918
0.0606174
0.264358
0.0652882
0.266086
0.069976
0.268147
0.0746768
0.270587
0.0793795
0.273459
0.0840657
0.276819
0.0887086
0.280726
0.0932721
0.28524
0.0977104
0.290423
0.101968
0.296334
0.105979
0.303024
0.109668
0.310534
0.112956
0.318891
0.115753
0.328098
0.117973
0.338128
0.119528
0.348922
0.120338
0.360383
0.120336
0.119504
0.372382
0.263791
0.00586187
0.263924
0.0117203
0.264129
0.017154
0.264414
0.022304
0.264788
0.0272455
0.265263
0.0320281
0.265856
0.0366913
0.266583
0.0412671
0.267468
0.0457806
0.268532
0.0502506
0.269803
0.0546905
0.271312
0.0591087
0.273092
0.0635089
0.27518
0.0678891
0.277615
0.0722422
0.280442
0.0765542
0.283704
0.0808043
0.28745
0.0849636
0.291728
0.0889955
0.296585
0.0928548
0.302064
0.096489
0.308206
0.099838
0.31504
0.102836
0.322583
0.105413
0.330838
0.107499
0.339785
0.109026
0.349382
0.109931
0.35956
0.11016
0.370224
0.109671
0.108467
0.381261
0.270202
0.00576007
0.270396
0.0115194
0.270691
0.0168532
0.271092
0.0218979
0.271609
0.0267251
0.272252
0.0313816
0.273037
0.0359042
0.27398
0.040322
0.275103
0.0446572
0.276427
0.048926
0.277978
0.0531391
0.279784
0.0573022
0.281877
0.0614161
0.28429
0.0654767
0.287059
0.0694744
0.29022
0.0733937
0.293812
0.0772128
0.297874
0.0809029
0.302441
0.0844286
0.30755
0.0877476
0.313227
0.0908122
0.319497
0.0935693
0.326371
0.0959627
0.333849
0.0979358
0.341916
0.0994331
0.350539
0.100404
0.359667
0.100803
0.369229
0.100598
0.379136
0.0997646
0.0983154
0.389287
0.276766
0.00562748
0.277021
0.0112573
0.277405
0.0164633
0.277921
0.0213762
0.278578
0.0260643
0.279385
0.0305712
0.280355
0.0349307
0.281506
0.0391693
0.282855
0.0433067
0.284424
0.0473564
0.286235
0.0513269
0.288316
0.0552217
0.290692
0.0590397
0.293394
0.062775
0.296452
0.0664169
0.299897
0.0699494
0.303759
0.0733509
0.308069
0.0765941
0.312852
0.0796462
0.318131
0.0824695
0.323922
0.085022
0.330233
0.0872585
0.337065
0.0891324
0.344402
0.0905988
0.35222
0.0916156
0.360478
0.092146
0.369121
0.0921604
0.378079
0.0916393
0.38727
0.0905731
0.0889792
0.396606
0.283487
0.00546471
0.283802
0.0109353
0.284273
0.0159862
0.284901
0.0207421
0.285694
0.0252674
0.286658
0.0296026
0.287807
0.0337788
0.289155
0.0378196
0.290717
0.0417425
0.292513
0.045559
0.294564
0.0492753
0.296892
0.0528935
0.29952
0.0564111
0.302474
0.0598213
0.305778
0.0631131
0.309456
0.066271
0.313533
0.0692747
0.318028
0.0720993
0.322959
0.0747157
0.328338
0.0770911
0.33417
0.0791901
0.340454
0.0809753
0.347178
0.0824091
0.35432
0.0834572
0.361848
0.0840885
0.369716
0.0842776
0.377871
0.0840062
0.386245
0.0832648
0.394765
0.0820527
0.0803904
0.403353
0.29037
0.00527266
0.290742
0.010555
0.291297
0.0154246
0.292034
0.0199993
0.292956
0.0243397
0.294072
0.0284831
0.295389
0.0324578
0.296921
0.036285
0.298682
0.03998
0.300687
0.0435523
0.302954
0.047007
0.305502
0.0503447
0.30835
0.0535622
0.311518
0.0566526
0.315026
0.0596054
0.318891
0.062406
0.323129
0.0650364
0.327754
0.0674747
0.332774
0.0696959
0.338193
0.0716725
0.344008
0.0733756
0.350209
0.074775
0.356777
0.0758416
0.363685
0.0765498
0.370896
0.0768776
0.378365
0.0768086
0.386039
0.0763326
0.393856
0.0754473
0.40175
0.0741576
0.0724852
0.409655
0.297417
0.00505246
0.297845
0.0101188
0.29848
0.0147819
0.299321
0.0191528
0.300367
0.0232878
0.301624
0.0272212
0.3031
0.0309785
0.304803
0.0345788
0.306745
0.0380353
0.308939
0.0413563
0.311399
0.0445454
0.31414
0.0476027
0.317177
0.0505247
0.320524
0.0533049
0.324195
0.0559336
0.328203
0.0583982
0.332556
0.0606829
0.337261
0.0627694
0.34232
0.0646369
0.347729
0.0662633
0.35348
0.0676255
0.359555
0.0686998
0.365932
0.0694647
0.372581
0.0699018
0.379462
0.0699963
0.386532
0.0697384
0.39374
0.0691241
0.401032
0.0681556
0.408347
0.0668413
0.0652028
0.415629
0.304633
0.00480548
0.305113
0.0096292
0.305825
0.0140621
0.306763
0.018208
0.307927
0.0221189
0.309317
0.0258261
0.310938
0.0293526
0.312798
0.0327152
0.314905
0.0359257
0.317268
0.0389909
0.319898
0.0419139
0.322805
0.0446943
0.325999
0.0473289
0.329491
0.0498118
0.33329
0.0521347
0.3374
0.0542869
0.341827
0.0562554
0.346571
0.0580255
0.351627
0.0595804
0.356987
0.0609032
0.362637
0.0619757
0.368556
0.0627804
0.374719
0.0633018
0.381094
0.0635273
0.387642
0.0634477
0.394322
0.0630582
0.401087
0.0623589
0.407887
0.061355
0.414671
0.0600568
0.058485
0.421388
0.312021
0.00453323
0.312551
0.00908917
0.313336
0.0132697
0.314365
0.017171
0.315637
0.0208409
0.31715
0.0243078
0.318906
0.027592
0.320908
0.0307088
0.323163
0.0336681
0.325675
0.0364762
0.328451
0.0391353
0.331498
0.0416452
0.334823
0.044003
0.338429
0.046204
0.342321
0.0482413
0.346501
0.0501063
0.350967
0.051789
0.355714
0.0532777
0.360734
0.0545598
0.366014
0.0556224
0.371537
0.0564525
0.377281
0.0570371
0.383217
0.0573657
0.389313
0.0574305
0.395534
0.0572265
0.40184
0.0567523
0.408187
0.0560106
0.414533
0.0550087
0.420832
0.0537574
0.0522758
0.42704
0.319585
0.00423735
0.320163
0.00850185
0.321014
0.0124093
0.32213
0.0160481
0.323502
0.019462
0.325127
0.0226762
0.327005
0.0257091
0.329136
0.0285738
0.331521
0.0312794
0.334163
0.033831
0.337065
0.0362309
0.340229
0.0384789
0.343657
0.0405728
0.34735
0.0425089
0.351308
0.0442819
0.355528
0.0458856
0.360003
0.0473123
0.364727
0.0485535
0.369685
0.0496
0.374864
0.0504429
0.380244
0.0510728
0.385799
0.0514811
0.391504
0.051661
0.397326
0.0516082
0.403231
0.0513208
0.409183
0.0507997
0.415143
0.0500496
0.421073
0.0490782
0.426933
0.0478964
0.0465217
0.432687
0.32733
0.0039195
0.327951
0.00787043
0.328866
0.0114856
0.33006
0.0148457
0.331525
0.0179902
0.333253
0.0209415
0.335241
0.0237156
0.337486
0.0263242
0.339986
0.0287753
0.34274
0.0310733
0.345748
0.0332203
0.349007
0.0352166
0.352517
0.0370606
0.356274
0.0387497
0.360274
0.0402804
0.36451
0.0416481
0.368973
0.0428477
0.373652
0.0438733
0.378532
0.0447189
0.383595
0.0453784
0.388821
0.045846
0.394186
0.0461159
0.399662
0.0461846
0.405219
0.0460503
0.410826
0.0457131
0.41645
0.0451756
0.422055
0.0444433
0.427609
0.0435239
0.433076
0.0424281
0.0411714
0.438426
0.33526
0.00358131
0.335922
0.00719801
0.336895
0.0105033
0.338162
0.0135701
0.339711
0.0164334
0.341532
0.0191131
0.343619
0.0216228
0.345965
0.0239729
0.348566
0.0261702
0.351416
0.0282188
0.354512
0.0301208
0.357849
0.0318765
0.361422
0.0334853
0.365223
0.0349457
0.369246
0.0362554
0.373481
0.0374117
0.377915
0.0384115
0.382535
0.0392512
0.387326
0.0399271
0.392267
0.0404358
0.397338
0.0407739
0.402515
0.0409383
0.407772
0.0409274
0.41308
0.0407413
0.418411
0.0403816
0.423734
0.0398517
0.429019
0.0391573
0.434236
0.0383061
0.439355
0.0373076
0.0361753
0.444351
0.343381
0.0032243
0.34408
0.00648747
0.345106
0.00946668
0.34644
0.012227
0.348067
0.0147991
0.349973
0.0171999
0.352148