/*--------------------------------*- C++ -*----------------------------------*\
| =========                 |                                                 |
| \\      /  F ield         | OpenFOAM: The Open Source CFD Toolbox           |
|  \\    /   O peration     | Version:  dev                                   |
|   \\  /    A nd           | Web:      www.OpenFOAM.org                      |
|    \\/     M anipulation  |                                                 |
\*---------------------------------------------------------------------------*/
FoamFile
{
    version     2.0;
    format      ascii;
    class       volVectorField;
    location    "0.29";
    object      U;
}
// * * * * * * * * * * * * * * * * * * * * * * * * * * * * * * * * * * * * * //

dimensions      [0 1 -1 0 0 0 0];

internalField   nonuniform List<vector> 
2790
(
(9.93501 0 0.0202867)
(9.86406 0 0.0298547)
(9.76058 0 0.0366946)
(9.62847 -1.2545e-20 0.0435087)
(9.47565 -1.31766e-20 0.0504721)
(9.30457 1.36532e-20 0.0575744)
(9.11479 2.20007e-22 0.064947)
(8.90552 -1.45239e-20 0.0727408)
(8.67613 -2.34759e-22 0.0810794)
(8.42599 0 0.0900667)
(8.15431 0 0.0997926)
(7.86016 -1.37072e-22 0.110331)
(7.54258 -4.40593e-21 0.121734)
(7.20065 -2.99267e-21 0.134014)
(6.83364 6.20993e-22 0.147134)
(6.44108 0 0.160989)
(6.02298 0 0.175386)
(5.57997 -8.7655e-21 0.19003)
(5.11355 -3.06009e-21 0.204513)
(4.6262 0 0.218317)
(4.12162 6.94258e-21 0.230823)
(3.60484 7.16379e-21 0.241333)
(3.08225 0 0.249109)
(2.56165 0 0.253399)
(2.05221 0 0.253486)
(1.56432 0 0.248777)
(1.10964 3.64688e-20 0.239068)
(0.701358 0 0.224869)
(0.348528 6.31064e-19 0.2059)
(0.194353 -6.95845e-19 0.139613)
(9.99154 -4.62545e-20 0.042028)
(9.97348 -4.76587e-20 0.065049)
(9.92543 3.78867e-22 0.082768)
(9.8478 1.17328e-20 0.100825)
(9.7473 1.37421e-20 0.119643)
(9.6264 -1.42429e-20 0.13914)
(9.48484 8.62833e-22 0.159561)
(9.32196 -1.44156e-20 0.181233)
(9.13716 -1.50399e-20 0.204428)
(8.92982 0 0.229375)
(8.69917 -1.62724e-20 0.256274)
(8.44421 -1.73008e-20 0.285289)
(8.16388 5.64877e-21 0.316521)
(7.85707 3.59056e-21 0.349981)
(7.52276 5.93651e-23 0.385549)
(7.16009 2.7078e-21 0.42294)
(6.7685 1.32098e-22 0.461656)
(6.34792 5.86642e-21 0.50095)
(5.89886 0 0.5398)
(5.42269 0 0.576894)
(4.92168 0 0.610638)
(4.39928 8.54951e-20 0.639198)
(3.86011 -2.9631e-20 0.660547)
(3.31009 0 0.672552)
(2.75635 0 0.673072)
(2.20701 -3.42929e-20 0.660114)
(1.67071 -7.14737e-20 0.632112)
(1.15581 2.60093e-19 0.588259)
(0.667877 -3.23289e-19 0.527928)
(0.316427 2.81381e-19 0.394109)
(9.98853 1.20814e-22 0.0467902)
(9.96737 4.72845e-20 0.0806913)
(9.92112 0 0.109879)
(9.84792 -4.91119e-20 0.13964)
(9.75317 -5.23442e-20 0.170761)
(9.6395 0 0.203257)
(9.50693 -2.85448e-20 0.237442)
(9.35495 9.6853e-22 0.273773)
(9.1831 -1.4926e-20 0.312673)
(8.99089 -4.93677e-22 0.354521)
(8.77765 -1.59988e-20 0.399668)
(8.54251 3.27465e-22 0.44842)
(8.28445 1.13158e-21 0.501002)
(8.00233 -1.1597e-21 0.557506)
(7.69496 0 0.617841)
(7.36116 0 0.681668)
(6.99986 0 0.748329)
(6.61019 0 0.816789)
(6.19163 2.43473e-20 0.885583)
(5.7442 -5.06473e-20 0.952786)
(5.26858 2.63575e-20 1.01601)
(4.76632 -8.38554e-20 1.07245)
(4.23997 0 1.11894)
(3.69314 6.21729e-20 1.15207)
(3.13053 -2.58668e-19 1.16835)
(2.55774 1.00629e-19 1.16441)
(1.98085 3.51689e-20 1.13745)
(1.40603 5.46624e-20 1.08586)
(0.834847 1.65085e-19 1.01194)
(0.407222 -4.73396e-19 0.884884)
(9.98685 4.57829e-20 0.0542187)
(9.96349 3.68014e-22 0.100544)
(9.91718 -7.58494e-22 0.142526)
(9.84526 1.01957e-19 0.184327)
(9.75223 4.99107e-20 0.22731)
(9.64072 0 0.271889)
(9.51096 2.59055e-20 0.318561)
(9.3626 3.05001e-20 0.367946)
(9.19532 2.98925e-20 0.420643)
(9.00878 0 0.477207)
(8.80251 3.25334e-20 0.538159)
(8.57584 1.72736e-20 0.603974)
(8.32796 -2.74511e-22 0.675041)
(8.05793 0 0.75161)
(7.76472 0 0.833726)
(7.44718 0 0.921148)
(7.10414 -1.08768e-20 1.01326)
(6.73444 3.40119e-20 1.10899)
(6.33701 -4.74698e-20 1.20671)
(5.91101 7.51054e-20 1.30419)
(5.45596 -1.56234e-19 1.39859)
(4.9719 0 1.48646)
(4.45955 0 1.56379)
(3.9205 -1.20749e-19 1.62618)
(3.35724 -6.28143e-20 1.66902)
(2.77328 -6.69628e-20 1.68786)
(2.17296 1.3771e-19 1.67895)
(1.56222 1.78857e-20 1.64024)
(0.937291 1.73659e-19 1.57544)
(0.462412 4.73026e-19 1.44716)
(9.98608 -3.5908e-22 0.0631177)
(9.9616 1.10235e-21 0.12042)
(9.9153 -9.85257e-20 0.173774)
(9.8446 -4.81753e-20 0.226585)
(9.75343 5.11481e-20 0.280626)
(9.64421 5.2905e-20 0.336683)
(9.51723 1.73027e-21 0.395413)
(9.37219 -5.86813e-20 0.457536)
(9.20883 1.87124e-21 0.523762)
(9.02687 5.9708e-20 0.594766)
(8.82589 -3.21291e-20 0.671185)
(8.60535 -3.36777e-20 0.75361)
(8.36453 3.51975e-20 0.842554)
(8.10263 0 0.938395)
(7.8187 -4.87918e-21 1.04131)
(7.51169 4.99851e-21 1.15119)
(7.18045 4.25574e-20 1.26755)
(6.82372 -2.20024e-20 1.38938)
(6.44018 2.36212e-20 1.51511)
(6.02851 -2.42538e-20 1.64246)
(5.5875 2.05801e-19 1.76844)
(5.11614 0 1.88925)
(4.61382 0 2.00042)
(4.08052 1.19439e-19 2.09684)
(3.51703 1.25078e-19 2.17302)
(2.92515 0 2.22348)
(2.30776 1.36736e-19 2.24348)
(1.67043 -3.89792e-19 2.23007)
(1.00134 2.76802e-19 2.18776)
(0.484066 -7.65199e-19 2.07437)
(9.98576 -9.13312e-20 0.0726443)
(9.9609 1.46554e-21 0.140235)
(9.91503 9.47427e-20 0.204419)
(9.84585 -9.86581e-20 0.268107)
(9.75695 -5.11202e-20 0.333155)
(9.65053 -5.61852e-20 0.400583)
(9.52688 6.83449e-21 0.471183)
(9.38574 5.33267e-20 0.545766)
(9.22686 0 0.625148)
(9.04998 -6.15172e-20 0.710123)
(8.85472 3.20636e-20 0.801449)
(8.64054 3.34636e-20 0.899843)
(8.40677 -3.49613e-20 1.00595)
(8.1526 4.60216e-21 1.12028)
(7.87712 -4.71035e-21 1.24318)
(7.57926 0 1.37467)
(7.25782 -2.13527e-20 1.51444)
(6.91144 4.37689e-20 1.66167)
(6.5386 2.36911e-20 1.81492)
(6.13765 -9.44641e-20 1.97205)
(5.70683 -1.5134e-19 2.13009)
(5.24441 -1.04941e-19 2.28522)
(4.74875 -1.11868e-19 2.43271)
(4.21861 -1.28721e-22 2.567)
(3.6534 0 2.68187)
(3.05355 0 2.77082)
(2.42068 -1.63821e-21 2.82788)
(1.76093 2.77478e-19 2.84857)
(1.05852 1.45438e-19 2.83603)
(0.506051 -1.51671e-19 2.73682)
(9.98568 9.0625e-20 0.0823797)
(9.96098 2.18687e-21 0.159881)
(9.91598 -2.99069e-21 0.234389)
(9.84864 1.00156e-19 0.308569)
(9.76239 0 0.384253)
(9.65927 0 0.46263)
(9.53953 1.04841e-19 0.544645)
(9.40294 1.15725e-19 0.631222)
(9.24929 0 0.723288)
(9.07831 6.05637e-20 0.821753)
(8.88963 0 0.927496)
(8.68271 1.04153e-21 1.04136)
(8.45687 -1.06513e-21 1.16412)
(8.21128 -3.34654e-20 1.29645)
(7.94495 -7.06684e-21 1.43882)
(7.65677 -2.62892e-21 1.59146)
(7.34539 9.88441e-21 1.75425)
(7.00929 2.17017e-20 1.92659)
(6.64673 -2.2226e-20 2.10729)
(6.2557 1.8796e-19 2.29445)
(5.83398 0 2.48534)
(5.37916 -2.09979e-22 2.67626)
(4.88876 1.06971e-19 2.86249)
(4.36045 1.13988e-19 3.03823)
(3.79241 0 3.19666)
(3.18384 0 3.33025)
(2.5352 -2.61509e-19 3.43149)
(1.85318 1.33983e-19 3.49365)
(1.11723 -3.50736e-20 3.51722)
(0.53061 0 3.43173)
(9.98576 0 0.0920802)
(9.9616 0 0.179174)
(9.91787 0 0.263521)
(9.8527 -3.07167e-21 0.347746)
(9.76948 3.13971e-21 0.433654)
(9.67013 1.00601e-19 0.522557)
(9.55488 2.62799e-21 0.615543)
(9.4235 -1.08591e-19 0.713649)
(9.27582 -3.59627e-21 0.817908)
(9.11158 -6.42628e-20 0.929341)
(8.93042 3.88149e-21 1.04895)
(8.73179 -6.4859e-20 1.17772)
(8.515 -5.36138e-22 1.31656)
(8.27918 3.6165e-20 1.46631)
(8.02329 3.20269e-20 1.62763)
(7.74609 2.34551e-21 1.80097)
(7.44611 -3.04352e-20 1.98644)
(7.1216 -5.25005e-20 2.18372)
(6.77054 2.17234e-20 2.39196)
(6.39055 -9.24571e-20 2.60961)
(5.97889 -9.48049e-20 2.8343)
(5.53248 0 3.06267)
(5.04796 0 3.29021)
(4.5219 -1.10449e-19 3.51111)
(3.95114 1.1379e-19 3.71812)
(3.33352 -2.37397e-19 3.90263)
(2.66802 -1.22056e-19 4.0553)
(1.96175 -1.97425e-19 4.16653)
(1.1894 -1.03227e-19 4.2343)
(0.56092 1.42929e-19 4.18938)
(9.98594 0 0.101588)
(9.96262 0 0.197942)
(9.92049 0 0.291662)
(9.85783 -9.69521e-20 0.385458)
(9.77802 0 0.481137)
(9.6829 -1.03815e-19 0.580101)
(9.57266 -1.0736e-19 0.68356)
(9.44713 0 0.792662)
(9.30613 0 0.908544)
(9.14944 0 1.03234)
(8.97672 3.90341e-21 1.16519)
(8.78743 6.0724e-20 1.30819)
(8.58087 -2.1128e-21 1.46244)
(8.35616 2.15862e-21 1.62895)
(8.11221 -3.42613e-20 1.80859)
(7.84768 2.43311e-21 2.00206)
(7.56095 -4.87737e-21 2.20977)
(7.25008 4.14018e-20 2.43176)
(6.91275 2.15904e-20 2.66758)
(6.54618 2.29093e-20 2.91614)
(6.14709 4.78281e-20 3.17561)
(5.71166 -2.39995e-19 3.44317)
(5.23555 -5.17704e-20 3.71479)
(4.71403 2.0621e-19 3.98491)
(4.14233 1.09407e-19 4.24611)
(3.51641 2.3376e-19 4.48879)
(2.83311 2.44964e-19 4.70138)
(2.0998 -1.24647e-19 4.87012)
(1.29319 2.00416e-19 4.98495)
(0.61472 -1.39821e-19 4.95294)
(9.9862 1.79521e-19 0.110795)
(9.96393 -1.83491e-19 0.216036)
(9.92372 1.87358e-19 0.318661)
(9.86389 -9.56162e-20 0.421533)
(9.78785 -3.12486e-21 0.526485)
(9.69737 3.1931e-21 0.634992)
(9.59266 0 0.748371)
(9.47355 0 0.867875)
(9.33991 0 0.994745)
(9.19156 7.42178e-21 1.13023)
(9.02817 -3.72942e-21 1.27558)
(8.84925 -6.29843e-20 1.43206)
(8.65411 7.15144e-23 1.60092)
(8.44188 -4.24586e-21 1.78337)
(8.21145 7.06332e-20 1.98053)
(7.96144 0 2.19338)
(7.69013 -9.71136e-21 2.42268)
(7.3954 9.91249e-21 2.66888)
(7.07469 0 2.93204)
(6.72485 6.44167e-20 3.21169)
(6.34204 -2.22406e-20 3.5067)
(5.92169 1.88813e-19 3.81505)
(5.45834 0 4.13351)
(4.94576 -1.03011e-19 4.45724)
(4.37707 1.01977e-19 4.77907)
(3.74554 2.20952e-19 5.08881)
(3.04436 -4.59917e-19 5.3726)
(2.27672 5.98553e-19 5.61201)
(1.40803 6.40813e-20 5.78972)
(0.664073 -2.62787e-19 5.79031)
(9.98651 -1.2048e-21 0.119617)
(9.96548 1.8278e-19 0.23333)
(9.92745 -1.90269e-19 0.344378)
(9.87076 3.86584e-19 0.455804)
(9.7988 6.19927e-21 0.569492)
(9.71337 9.50168e-20 0.68698)
(9.61465 0 0.809677)
(9.50252 -6.83214e-21 0.938934)
(9.37687 6.97879e-21 1.07609)
(9.23758 0 1.2225)
(9.08438 0 1.37954)
(8.9168 6.29265e-20 1.54862)
(8.73423 -4.08638e-21 1.73116)
(8.53584 -6.67748e-20 1.92857)
(8.32055 3.08878e-21 2.14223)
(8.087 -5.70415e-22 2.37344)
(7.83342 3.77123e-20 2.62335)
(7.55764 0 2.89289)
(7.25692 1.01571e-20 3.18273)
(6.92782 -5.26269e-20 3.49315)
(6.56606 6.42504e-20 3.82393)
(6.16632 2.21706e-20 4.17416)
(5.72202 0 4.5419)
(5.22519 -9.11112e-20 4.92361)
(4.66638 -3.00501e-19 5.31327)
(4.03523 0 5.701)
(3.31985 0 6.07158)
(2.51841 -2.31248e-19 6.40249)
(1.58673 2.30367e-19 6.67103)
(0.74347 6.69331e-21 6.74131)
(9.98687 -1.28845e-21 0.127992)
(9.96723 0 0.249717)
(9.9316 1.84599e-19 0.368682)
(9.87831 -1.88075e-19 0.488119)
(9.81076 -2.04154e-19 0.609972)
(9.73073 -1.01367e-19 0.735838)
(9.63843 6.47156e-21 0.867206)
(9.53377 -1.00096e-19 1.00551)
(9.4167 -6.89888e-21 1.15219)
(9.28714 -1.21334e-19 1.30869)
(9.14491 1.17917e-19 1.47652)
(8.98961 1.29743e-19 1.65721)
(8.8207 0 1.85235)
(8.63745 6.65334e-20 2.06355)
(8.43889 -6.89394e-20 2.29245)
(8.22373 -6.99208e-20 2.5407)
(7.99029 -3.69654e-20 2.80985)
(7.73641 0 3.10138)
(7.45935 -3.84492e-20 3.41662)
(7.15558 -9.89779e-21 3.75674)
(6.82055 -5.22676e-20 4.12266)
(6.44838 -6.31937e-20 4.51493)
(6.03151 2.17779e-20 4.93343)
(5.56023 8.19189e-21 5.37688)
(5.02218 9.26751e-20 5.84171)
(4.40248 -6.55041e-19 6.32008)
(3.68251 1.9697e-19 6.797)
(2.85269 2.07686e-19 7.24547)
(1.8626 -4.45271e-19 7.62704)
(0.874541 1.19323e-19 7.80052)
(9.98727 -1.76398e-19 0.135868)
(9.96913 -1.78797e-19 0.265108)
(9.93608 -4.38188e-21 0.391461)
(9.88643 -1.79047e-19 0.518341)
(9.82354 3.75947e-19 0.647757)
(9.74923 -5.29622e-23 0.781361)
(9.66372 -6.16028e-23 0.92071)
(9.56696 2.25651e-19 1.06732)
(9.45896 -1.22662e-19 1.22269)
(9.33974 2.3351e-19 1.38838)
(9.20918 -1.17866e-19 1.56598)
(9.06702 -1.91171e-21 1.75718)
(8.91285 0 1.96369)
(8.74604 0 2.18733)
(8.56574 0 2.42999)
(8.37083 -7.1047e-21 2.69362)
(8.15984 7.00817e-20 2.98022)
(7.93083 -1.0571e-22 3.2918)
(7.68126 3.81333e-20 3.6304)
(7.40775 -1.85641e-20 3.99817)
(7.10583 -2.381e-20 4.39735)
(6.7695 4.63691e-20 4.83028)
(6.39068 0 5.29928)
(5.95835 1.93004e-19 5.80641)
(5.45741 -1.45903e-19 6.35251)
(4.86783 5.64046e-19 6.9351)
(4.16202 1.74558e-19 7.5442)
(3.31443 -1.60932e-19 8.15576)
(2.20307 2.5572e-21 8.75302)
(1.18751 -4.72039e-19 9.05228)
(9.9877 3.4724e-19 0.143208)
(9.97115 1.76031e-19 0.279432)
(9.94084 -1.80256e-19 0.412618)
(9.89501 1.87896e-19 0.546351)
(9.83702 -1.87103e-19 0.682705)
(9.76868 -2.09084e-19 0.823379)
(9.69027 -2.02537e-19 0.969988)
(9.60177 -9.24119e-20 1.12411)
(9.50329 1.08944e-19 1.28731)
(9.3949 5.52196e-21 1.46122)
(9.27661 -1.43179e-20 1.64752)
(9.14832 -1.99396e-21 1.84798)
(9.00979 -1.54211e-20 2.06451)
(8.86051 -1.81742e-22 2.29907)
(8.69978 -1.81818e-22 2.55377)
(8.52677 2.34119e-19 2.83084)
(8.34038 -8.71362e-20 3.13263)
(8.13906 -1.39673e-19 3.46168)
(7.92069 -1.82255e-20 3.82075)
(7.6824 5.6312e-20 4.21294)
(7.4203 3.86001e-20 4.64186)
(7.12903 1.91809e-20 5.11182)
(6.801 -3.67129e-20 5.62806)
(6.42529 -3.90004e-20 6.19692)
(5.98584 1.17495e-19 6.82593)
(5.45887 -1.97347e-19 7.52268)
(4.80945 2.89106e-20 8.29042)
(4.02463 3.08336e-19 9.10773)
(3.05717 0 9.86758)
(2.08061 0 10.0235)
(9.98815 -6.91592e-19 0.149981)
(9.97326 0 0.292637)
(9.94581 1.74215e-19 0.432082)
(9.90396 5.77975e-21 0.572057)
(9.85104 -1.95301e-19 0.714691)
(9.7889 2.02767e-19 0.861725)
(9.71784 2.02408e-19 1.01482)
(9.63791 0 1.1756)
(9.54928 2.11909e-19 1.3457)
(9.45214 -1.24529e-19 1.52678)
(9.3466 1.26415e-19 1.72059)
(9.2327 -2.33331e-19 1.92899)
(9.11036 0 2.154)
(8.97931 0 2.39776)
(8.83921 -1.59685e-20 2.66252)
(8.68955 -1.32426e-19 2.95071)
(8.52963 -1.15347e-19 3.26499)
(8.35842 2.56944e-19 3.60831)
(8.17451 1.74516e-20 3.98402)
(7.97595 3.55829e-20 4.39606)
(7.76006 6.89131e-20 4.84922)
(7.52305 1.05173e-19 5.34962)
(7.25945 7.48952e-20 5.90529)
(6.96108 1.39074e-19 6.52711)
(6.61498 1.02176e-19 7.23034)
(6.19842 -1.38317e-19 8.03683)
(5.65867 -2.26491e-19 8.97891)
(4.86996 4.08689e-19 10.1076)
(3.41505 -3.20797e-19 11.5406)
(1.11459 0 13.9942)
(-0.255841 -6.72021e-18 0.4974)
(-0.986162 0 0.498282)
(-1.83283 0 0.500067)
(-2.71767 0 0.501212)
(-3.64214 -1.32649e-20 0.49411)
(-4.5918 1.28243e-20 0.478498)
(-5.54995 -3.40412e-21 0.454756)
(-6.49782 -1.02558e-20 0.423159)
(-7.41454 1.38823e-20 0.383846)
(-8.27692 -1.50468e-20 0.336901)
(-9.0595 -2.68426e-21 0.282463)
(-9.73481 -1.08434e-20 0.220817)
(-10.2742 -1.76788e-21 0.152492)
(-10.6488 7.06933e-21 0.0782615)
(-10.8311 0 -0.00107138)
(-10.7971 0 -0.0849449)
(-10.5279 0 -0.17228)
(-10.0177 -1.2471e-21 -0.257459)
(-9.27551 4.79973e-21 -0.335043)
(-8.32358 1.05153e-21 -0.400497)
(-7.19611 6.97944e-22 -0.450346)
(-5.93639 -9.55851e-22 -0.482275)
(-4.59274 7.06887e-23 -0.495146)
(-3.21266 1.9019e-22 -0.489363)
(-1.83815 0 -0.467525)
(-0.445481 0 -0.432924)
(0.835152 0 -0.391975)
(2.02746 7.45614e-23 -0.352864)
(3.17328 0 -0.321931)
(4.54457 0 -0.327376)
(-0.468428 1.15849e-19 1.09978)
(-1.20633 0 1.14427)
(-2.07077 -2.61135e-20 1.19029)
(-2.97119 -5.23199e-20 1.2268)
(-3.90652 5.05157e-20 1.24454)
(-4.86158 2.60706e-20 1.24132)
(-5.82067 0 1.21582)
(-6.76583 1.3368e-20 1.16678)
(-7.67665 -1.40931e-20 1.09286)
(-8.53005 -1.3842e-20 0.992779)
(-9.30039 2.50788e-20 0.865652)
(-9.95979 -1.11704e-20 0.711396)
(-10.479 -2.89945e-20 0.531167)
(-10.8288 -7.03893e-21 0.327657)
(-10.9814 0 0.104851)
(-10.9123 -3.2753e-21 -0.132299)
(-10.6094 1.50771e-21 -0.372453)
(-10.0689 0 -0.600936)
(-9.3002 -1.39934e-20 -0.805003)
(-8.3257 0 -0.974395)
(-7.17884 1.28075e-20 -1.10185)
(-5.90167 1.07546e-21 -1.18338)
(-4.54104 -1.06462e-21 -1.21834)
(-3.14282 -5.25933e-21 -1.20992)
(-1.74633 0 -1.16624)
(-0.323964 9.15469e-23 -1.09523)
(0.963514 1.80286e-21 -1.01131)
(2.17724 2.2737e-22 -0.928664)
(3.33071 -2.7254e-24 -0.863145)
(4.70124 0 -0.860653)
(-0.456658 5.39362e-20 1.83592)
(-1.24501 -6.59426e-20 1.95397)
(-2.1427 2.58325e-20 2.01961)
(-3.04457 0 2.06757)
(-3.97213 -2.62668e-20 2.08604)
(-4.91358 -3.84615e-22 2.07092)
(-5.85582 -6.68171e-20 2.01917)
(-6.78267 9.64972e-21 1.92823)
(-7.67501 5.11942e-21 1.79563)
(-8.51057 2.62422e-20 1.61922)
(-9.26406 -2.84898e-20 1.39762)
(-9.9075 4.35582e-20 1.13089)
(-10.4111 1.44812e-20 0.821317)
(-10.7449 0 0.474078)
(-10.8806 -1.42312e-20 0.0973883)
(-10.7925 3.27224e-21 -0.297829)
(-10.471 7.4108e-21 -0.695073)
(-9.91371 -5.70062e-21 -1.07088)
(-9.13229 4.09527e-21 -1.40419)
(-8.15047 -4.3129e-21 -1.6781)
(-7.00217 -9.80882e-21 -1.88085)
(-5.72911 -2.84978e-21 -2.00652)
(-4.37747 1.61182e-21 -2.05535)
(-2.99258 3.60853e-21 -2.03426)
(-1.6119 3.58648e-22 -1.95765)
(-0.208386 -5.51989e-22 -1.83512)
(1.0542 -5.93087e-21 -1.69541)
(2.25384 6.94644e-22 -1.56086)
(3.37605 -8.10328e-25 -1.4512)
(4.71759 1.24876e-21 -1.41369)
(-0.439079 0 2.67217)
(-1.23545 -1.36192e-20 2.78498)
(-2.12681 1.26307e-20 2.8541)
(-3.01302 0 2.9031)
(-3.92083 -7.91179e-20 2.91636)
(-4.8392 3.90883e-20 2.88758)
(-5.7577 3.97703e-20 2.81149)
(-6.662 0 2.68348)
(-7.5341 0 2.49918)
(-8.35217 0 2.25474)
(-9.0906 1.49483e-20 1.94737)
(-9.72044 -1.46028e-20 1.57635)
(-10.2104 -3.04829e-20 1.144)
(-10.5288 -1.47729e-20 0.656841)
(-10.6456 1.40372e-20 0.126331)
(-10.5333 0 -0.431445)
(-10.1897 1.53438e-20 -0.988688)
(-9.61413 -1.17505e-20 -1.51267)
(-8.82091 9.56953e-21 -1.97503)
(-7.83529 0 -2.3532)
(-6.69155 0 -2.63156)
(-5.43085 0 -2.80264)
(-4.09847 0 -2.86779)
(-2.73889 0 -2.83745)
(-1.38481 1.58015e-20 -2.73068)
(-0.016616 0 -2.55639)
(1.20662 4.11649e-21 -2.3589)
(2.38012 -8.9755e-22 -2.17017)
(3.46105 -3.50775e-22 -2.01332)
(4.75796 -1.23935e-21 -1.93138)
(-0.406951 8.49471e-20 3.46814)
(-1.18172 2.6714e-20 3.59898)
(-2.04767 -1.38e-20 3.66642)
(-2.90025 -2.67202e-20 3.713)
(-3.77358 5.21132e-20 3.7198)
(-4.65659 0 3.67777)
(-5.54086 -1.74845e-21 3.57879)
(-6.41334 1.69569e-21 3.41549)
(-7.25684 0 3.18089)
(-8.04964 7.51059e-20 2.86876)
(-8.76563 1.47275e-20 2.47452)
(-9.37479 0 1.99657)
(-9.84439 3.04534e-20 1.43774)
(-10.1411 3.15537e-20 0.806965)
(-10.2339 -1.55122e-20 0.120902)
(-10.0933 1.44838e-20 -0.596588)
(-9.7266 -3.2327e-20 -1.30844)
(-9.13471 -1.17135e-20 -1.9734)
(-8.33495 -9.42653e-21 -2.55661)
(-7.3537 1.70542e-20 -3.03079)
(-6.225 -3.62436e-20 -3.37718)
(-4.98894 -4.81518e-21 -3.58726)
(-3.68964 4.75944e-21 -3.66397)
(-2.37 -1.26015e-21 -3.6214)
(-1.05399 -1.44269e-20 -3.4816)
(0.256667 0 -3.25531)
(1.4303 0 -3.00155)
(2.56395 0 -2.75986)
(3.59456 4.26312e-22 -2.55466)
(4.83162 1.96061e-21 -2.42287)
(-0.371096 -1.09877e-19 4.2493)
(-1.10173 2.76662e-20 4.37578)
(-1.91562 -1.37676e-22 4.44046)
(-2.71362 2.65003e-20 4.48457)
(-3.53417 1.38225e-20 4.48596)
(-4.36511 9.71565e-20 4.4328)
(-5.1996 -6.3337e-21 4.31391)
(-6.0257 2.17329e-20 4.11892)
(-6.82708 1.60286e-20 3.8379)
(-7.58241 -2.13634e-19 3.4619)
(-8.26529 -3.19665e-20 2.98416)
(-8.84484 -3.13157e-20 2.40182)
(-9.28688 0 1.71791)
(-9.55603 1.47715e-21 0.943489)
(-9.61972 3.05639e-20 0.100765)
(-9.44777 -3.04146e-20 -0.776702)
(-9.0589 1.34068e-20 -1.63967)
(-8.45564 2.39251e-20 -2.43939)
(-7.65816 0 -3.13597)
(-6.69309 -8.20135e-21 -3.69875)
(-5.59327 3.64911e-20 -4.10665)
(-4.39682 0 -4.35034)
(-3.14664 3.79726e-21 -4.43477)
(-1.88255 -3.75815e-21 -4.37754)
(-0.61458 0 -4.19944)
(0.608256 0 -3.92362)
(1.72916 -1.28714e-22 -3.6162)
(2.80871 1.25613e-22 -3.32278)
(3.78048 -7.28671e-23 -3.06812)
(4.94292 -1.94652e-21 -2.88271)
(-0.322596 1.16685e-19 4.96227)
(-0.993999 1.43029e-20 5.09221)
(-1.73263 -2.82218e-20 5.15678)
(-2.45494 -7.0428e-21 5.20023)
(-3.20214 1.19912e-19 5.19873)
(-3.96105 -1.10864e-19 5.13786)
(-4.72669 0 5.00329)
(-5.48843 0 4.78141)
(-6.23119 -1.56268e-19 4.45901)
(-6.93446 1.54749e-19 4.02397)
(-7.5719 6.38981e-20 3.46678)
(-8.11181 6.84339e-20 2.7828)
(-8.51842 0 1.97506)
(-8.75357 -6.82584e-20 1.05722)
(-8.782 3.36643e-20 0.058183)
(-8.5776 -8.1075e-21 -0.97569)
(-8.16982 -2.97015e-20 -1.98197)
(-7.56371 -5.30092e-20 -2.90645)
(-6.78115 1.04352e-20 -3.70606)
(-5.84764 -1.02105e-20 -4.34829)
(-4.79359 0 -4.8106)
(-3.65404 -5.03115e-20 -5.08247)
(-2.47077 0 -5.17081)
(-1.27669 2.83892e-20 -5.09594)
(-0.0755596 1.97792e-20 -4.87394)
(1.04019 0 -4.55399)
(2.10289 -1.41869e-20 -4.1974)
(3.11493 6.55226e-21 -3.85344)
(4.01975 -3.69766e-25 -3.54882)
(5.09439 3.61418e-25 -3.30783)
(-0.26457 -3.62196e-19 5.59572)
(-0.85259 -1.42265e-20 5.73059)
(-1.4999 2.80904e-20 5.79492)
(-2.1257 -6.51281e-20 5.84005)
(-2.77778 -7.63479e-20 5.8391)
(-3.44284 -1.46688e-19 5.77502)
(-4.11837 0 5.63023)
(-4.7955 0 5.38774)
(-5.46096 1.24678e-19 5.03073)
(-6.09566 0 4.54349)
(-6.67386 0 3.91311)
(-7.16322 -6.86847e-20 3.13237)
(-7.52607 3.61177e-20 2.20389)
(-7.72049 -5.57396e-22 1.14458)
(-7.70548 -1.74136e-20 -0.00831046)
(-7.47015 -4.15386e-20 -1.19195)
(-7.04984 6.13575e-20 -2.33008)
(-6.45328 5.31826e-20 -3.36623)
(-5.70188 0 -4.25655)
(-4.81831 8.19329e-20 -4.96816)
(-3.82887 -7.37756e-21 -5.47793)
(-2.76562 5.74612e-20 -5.77297)
(-1.66734 -4.53437e-20 -5.86165)
(-0.554234 6.35249e-21 -5.76363)
(0.540124 -1.96138e-20 -5.50015)
(1.56154 0 -5.13907)
(2.54848 -1.8431e-21 -4.73929)
(3.48125 -6.49133e-21 -4.34641)
(4.31116 0 -3.99212)
(5.2867 -8.51237e-22 -3.69519)
(-0.211339 2.3659e-19 6.11704)
(-0.698648 -4.68302e-22 6.26758)
(-1.22391 -1.44515e-20 6.33503)
(-1.73033 7.2219e-20 6.384)
(-2.265 0 6.38722)
(-2.8135 1.7982e-19 6.32509)
(-3.37648 -1.23289e-19 6.17658)
(-3.94731 6.168e-20 5.92111)
(-4.51507 0 5.53804)
(-5.06282 7.06472e-20 5.00763)
(-5.56632 0 4.31284)
(-5.99309 0 3.44265)
(-6.30327 -3.85805e-20 2.3983)
(-6.44986 -1.95202e-20 1.20099)
(-6.38349 -9.66717e-21 -0.100664)
(-6.11959 1.7297e-20 -1.42274)
(-5.69785 0 -2.67585)
(-5.12753 0 -3.80721)
(-4.42676 -2.33033e-20 -4.77485)
(-3.61354 -5.93858e-20 -5.54609)
(-2.70768 -7.08182e-20 -6.09672)
(-1.74206 -6.11887e-21 -6.41043)
(-0.743503 4.6982e-20 -6.49611)
(0.271852 3.07027e-20 -6.36734)
(1.22937 -4.14447e-20 -6.0734)
(2.16517 0 -5.67576)
(3.06133 1.61122e-20 -5.23585)
(3.9043 -4.80622e-22 -4.79644)
(4.65166 -3.49224e-21 -4.39383)
(5.51881 8.45759e-22 -4.04233)
(-0.127509 0 6.53652)
(-0.503911 -3.8579e-21 6.69038)
(-0.907391 6.11028e-20 6.75784)
(-1.27694 -1.83366e-19 6.81209)
(-1.67259 5.95573e-20 6.82316)
(-2.08199 0 6.76848)
(-2.51003 0 6.6233)
(-2.95245 -1.35605e-19 6.36343)
(-3.40103 1.3243e-19 5.96425)
(-3.84168 0 5.4017)
(-4.25295 7.56184e-20 4.65389)
(-4.60344 -7.86214e-20 3.7044)
(-4.85079 3.90185e-20 2.55093)
(-4.94123 1.72186e-20 1.2206)
(-4.81182 9.79321e-21 -0.220989)
(-4.52897 0 -1.66305)
(-4.1233 3.27422e-20 -3.00838)
(-3.60024 -3.16737e-20 -4.21585)
(-2.97218 -2.45579e-20 -5.24696)
(-2.2501 2.39182e-20 -6.06992)
(-1.44503 7.10232e-20 -6.6563)
(-0.597753 0 -6.98344)
(0.296613 4.8799e-21 -7.05832)
(1.15649 -6.8112e-20 -6.90728)
(2.00972 4.41381e-20 -6.58655)
(2.84198 3.27178e-20 -6.1591)
(3.63553 1.7694e-20 -5.68142)
(4.37892 -2.17714e-22 -5.19865)
(5.03657 3.76941e-21 -4.75031)
(5.78811 -2.77224e-24 -4.34726)
(-0.0588563 0 6.85044)
(-0.318272 -1.22895e-19 6.98922)
(-0.56979 -6.3254e-20 7.04689)
(-0.778469 2.47928e-19 7.10599)
(-1.01416 -1.21682e-19 7.12787)
(-1.26372 2.54022e-19 7.08597)
(-1.53628 -2.6159e-19 6.95119)
(-1.82949 -2.71931e-19 6.69562)
(-2.13763 0 6.29073)
(-2.44981 1.49298e-19 5.70801)
(-2.74909 -7.63803e-20 4.92012)
(-3.00768 7.9577e-20 3.9039)
(-3.1796 0 2.65067)
(-3.20199 -8.24124e-20 1.19569)
(-2.99412 4.16593e-20 -0.367279)
(-2.71624 0 -1.9018)
(-2.3507 3.43696e-20 -3.31423)
(-1.89795 -3.31881e-20 -4.58173)
(-1.36476 0 -5.66281)
(-0.752709 1.16153e-19 -6.52877)
(-0.063854 7.41292e-20 -7.14709)
(0.656628 -1.68323e-20 -7.47798)
(1.39014 -5.06069e-21 -7.54271)
(2.13104 7.42893e-20 -7.37754)
(2.86696 -4.90597e-20 -7.03732)
(3.58244 -2.92162e-20 -6.58259)
(4.26283 -4.18014e-20 -6.07054)
(4.89798 4.78998e-22 -5.54867)
(5.45966 0 -5.05846)
(6.09049 2.7565e-24 -4.60852)
(-0.0461074 0 6.9692)
(-0.177821 2.59207e-19 7.11914)
(-0.224358 6.31361e-19 7.18288)
(-0.249304 0 7.2485)
(-0.307369 0 7.28505)
(-0.380446 -5.10336e-19 7.26219)
(-0.481695 5.27157e-19 7.14559)
(-0.609092 2.77906e-19 6.90349)
(-0.758537 -1.39842e-19 6.50408)
(-0.921983 -1.50912e-19 5.91535)
(-1.08856 0 5.1055)
(-1.23832 0 4.04558)
(-1.31649 -2.1923e-20 2.71905)
(-1.2314 -4.48706e-20 1.1546)
(-0.955226 4.33907e-20 -0.52218)
(-0.724957 1.65102e-19 -2.11891)
(-0.42749 -3.58491e-20 -3.57424)
(-0.0646168 3.0964e-21 -4.89404)
(0.360228 1.45752e-19 -6.02168)
(0.848926 2.74689e-21 -6.91511)
(1.38997 -7.66348e-20 -7.54318)
(1.96791 0 -7.8839)
(2.57009 1.01248e-19 -7.94976)
(3.18084 -7.73193e-20 -7.77614)
(3.78653 4.95635e-20 -7.41903)
(4.37431 2.58189e-21 -6.94022)
(4.93259 -1.53407e-21 -6.3984)
(5.45255 2.51965e-20 -5.8428)
(5.9133 1.22526e-20 -5.3159)
(6.42053 1.7387e-21 -4.82518)
(0.0257917 0 6.90199)
(0.0408787 2.30171e-21 7.09237)
(0.14584 -2.47135e-19 7.15184)
(0.300582 0 7.2222)
(0.429513 0 7.27725)
(0.540164 2.51966e-19 7.2789)
(0.617602 -2.61354e-19 7.18721)
(0.664617 1.36858e-19 6.96671)
(0.685362 -7.22783e-20 6.58324)
(0.686657 0 6.00281)
(0.674683 -8.32251e-20 5.19138)
(0.660723 8.26781e-20 4.11284)
(0.71185 2.19932e-20 2.72472)
(0.949071 1.35764e-19 1.04492)
(1.21073 1.7806e-19 -0.684845)
(1.37072 -1.63724e-19 -2.30157)
(1.5761 1.50106e-19 -3.77719)
(1.8287 -3.15009e-20 -5.10924)
(2.13309 -8.30785e-20 -6.26707)
(2.49567 -7.29572e-20 -7.1987)
(2.90665 -2.15133e-20 -7.85489)
(3.35082 0 -8.21026)
(3.8146 2.44343e-21 -8.27758)
(4.28487 0 -8.09688)
(4.75069 0 -7.72566)
(5.20254 0 -7.22713)
(5.63211 2.18687e-20 -6.6612)
(6.03212 2.10256e-21 -6.07831)
(6.38871 1.47927e-21 -5.52109)
(6.77173 -1.78791e-21 -4.99687)
(0.0740236 1.87324e-18 6.88882)
(0.212677 0 6.92256)
(0.504053 4.06003e-21 6.93141)
(0.860002 -6.8851e-19 7.00856)
(1.18282 0 7.09229)
(1.47566 0 7.1269)
(1.72895 0 7.06637)
(1.94822 1.05625e-19 6.87169)
(2.13947 -6.58829e-20 6.50707)
(2.31013 -1.54982e-19 5.93761)
(2.46577 -2.32165e-19 5.128)
(2.61696 -8.29241e-20 4.0378)
(2.82028 8.78618e-20 2.63466)
(3.11396 -1.76739e-19 0.988017)
(3.33887 -1.73837e-19 -0.740315)
(3.44911 0 -2.38108)
(3.56792 -2.94139e-19 -3.88592)
(3.72507 0 -5.25436)
(3.9282 0 -6.45062)
(4.17802 0 -7.41302)
(4.4645 0 -8.08873)
(4.774 0 -8.45375)
(5.09515 -1.9344e-19 -8.52181)
(5.41904 0 -8.33524)
(5.73911 -2.79247e-21 -7.95322)
(6.05005 2.74761e-21 -7.44012)
(6.3472 0 -6.85665)
(6.6251 -2.72296e-20 -6.25377)
(6.87638 -2.77183e-20 -5.67356)
(7.13686 -6.58413e-23 -5.12402)
(-0.189752 -2.26626e-20 6.13379)
(0.115122 1.64671e-20 6.39917)
(0.7749 -8.39333e-19 6.45124)
(1.40253 2.20235e-19 6.5814)
(1.93437 0 6.72187)
(2.40408 1.16834e-19 6.80693)
(2.82323 0 6.78855)
(3.20415 1.62107e-19 6.62722)
(3.55598 -1.42903e-19 6.28734)
(3.88706 1.40916e-19 5.7344)
(4.20297 7.74846e-20 4.93252)
(4.51172 8.14468e-20 3.84146)
(4.83321 0 2.44815)
(5.15134 1.70862e-19 0.832832)
(5.3572 0 -0.847377)
(5.43233 1.56056e-19 -2.45463)
(5.48968 -2.10638e-19 -3.95892)
(5.57555 6.67348e-20 -5.34829)
(5.69872 2.62449e-20 -6.57196)
(5.8527 -2.13811e-19 -7.55696)
(6.02477 0 -8.2454)
(6.20345 1.10418e-19 -8.61482)
(6.38205 1.20752e-19 -8.68125)
(6.55779 -8.75313e-20 -8.48945)
(6.73005 3.90343e-21 -8.10005)
(6.89864 1.93753e-21 -7.57809)
(7.06289 -1.9109e-21 -6.98428)
(7.2194 -3.52647e-22 -6.36937)
(7.36652 1.48095e-20 -5.77416)
(7.50849 4.20622e-21 -5.20795)
(9.98864 -6.60202e-19 0.156262)
(9.97554 0 0.304876)
(9.95116 -1.73303e-19 0.450101)
(9.91358 -1.703e-19 0.595812)
(9.8661 1.76771e-19 0.744192)
(9.81057 -1.16887e-20 0.897012)
(9.74734 1.19348e-20 1.05597)
(9.67652 0 1.22271)
(9.59838 9.72509e-21 1.39891)
(9.5132 1.9388e-19 1.58627)
(9.42123 -1.08221e-19 1.78658)
(9.32266 1.25254e-19 2.00175)
(9.21759 -1.41235e-20 2.23387)
(9.10611 -1.1517e-19 2.48517)
(8.98822 1.03035e-19 2.75802)
(8.86383 1.52647e-20 3.05499)
(8.73274 1.5853e-19 3.37892)
(8.5946 -3.62997e-20 3.73304)
(8.44895 -3.2438e-20 4.12107)
(8.29513 1.28836e-19 4.54746)
(8.13222 -1.02624e-19 5.01779)
(7.95899 -7.07772e-20 5.53932)
(7.77373 -3.21406e-19 6.12191)
(7.57409 -1.34644e-19 6.77955)
(7.35676 0 7.53315)
(7.11803 0 8.41618)
(6.85736 2.33996e-19 9.48765)
(6.63296 -4.16575e-19 10.8657)
(6.75528 4.1823e-19 12.799)
(6.8341 2.18278e-19 15.9094)
(9.98916 3.23347e-19 0.162066)
(9.97792 2.1701e-24 0.316164)
(9.95675 -2.60283e-21 0.466661)
(9.92364 1.77088e-19 0.617554)
(9.88183 -5.46317e-21 0.771071)
(9.83318 0 0.929007)
(9.7781 1.15794e-20 1.09308)
(9.71677 -1.1821e-20 1.26495)
(9.64953 -1.84237e-19 1.44631)
(9.5768 -2.8477e-20 1.63887)
(9.49896 -8.77356e-23 1.84445)
(9.41639 1.31609e-20 2.06498)
(9.32944 0 2.30257)
(9.23846 8.46083e-20 2.55944)
(9.14383 2.52773e-20 2.83802)
(9.04592 0 3.14094)
(8.94511 0 3.47108)
(8.84186 -1.22581e-19 3.83174)
(8.73674 0 4.22668)
(8.63053 -1.25764e-19 4.66043)
(8.52432 0 5.13864)
(8.4198 -6.03848e-20 5.66861)
(8.31973 5.43919e-19 6.26018)
(8.22901 -1.13485e-19 6.92701)
(8.15696 8.78568e-21 7.68893)
(8.1235 1.07441e-19 8.57544)
(8.16943 3.23224e-19 9.6302)
(8.36839 0 10.9119)
(8.97246 -1.52897e-19 12.4458)
(9.59489 -2.34964e-19 14.1596)
(9.98971 2.41042e-21 0.167287)
(9.98042 3.10729e-19 0.326303)
(9.96259 3.20197e-19 0.481498)
(9.93413 -1.5875e-19 0.636966)
(9.8982 -1.7329e-19 0.794976)
(9.85667 1.83025e-19 0.957331)
(9.81 -1.766e-19 1.12575)
(9.75845 0 1.30189)
(9.70245 0 1.48744)
(9.64253 -1.93945e-19 1.68409)
(9.57923 -1.95159e-19 1.89365)
(9.51311 0 2.11804)
(9.44476 0 2.35931)
(9.37484 2.08795e-19 2.61967)
(9.30407 -1.09546e-19 2.90148)
(9.23329 2.44053e-19 3.2073)
(9.1635 -8.7051e-23 3.53993)
(9.09592 -2.83702e-20 3.90248)
(9.03213 0 4.29845)
(8.97424 0 4.73198)
(8.92514 0 5.20803)
(8.88904 5.71537e-20 5.73277)
(8.87224 -1.64769e-20 6.31402)
(8.88451 -1.01291e-19 6.96175)
(8.94136 1.0289e-19 7.68831)
(9.0676 -8.00382e-20 8.50769)
(9.30058 -2.4056e-19 9.43074)
(9.67133 0 10.455)
(10.3042 3.79213e-20 11.5414)
(11.1219 3.65816e-20 12.5938)
(9.99029 0 0.171861)
(9.983 -3.01152e-19 0.335169)
(9.96863 -3.17621e-19 0.494421)
(9.94494 1.70075e-19 0.653794)
(9.91505 -1.74257e-19 0.815578)
(9.8808 -3.44541e-19 0.981572)
(9.84274 1.32846e-20 1.15348)
(9.80119 -1.63067e-19 1.33294)
(9.75665 -1.12191e-20 1.52159)
(9.70977 2.30772e-20 1.72112)
(9.66124 1.67106e-19 1.93326)
(9.6118 -1.90811e-19 2.15987)
(9.56227 1.70098e-19 2.40294)
(9.51358 -1.78851e-19 2.66455)
(9.4668 -2.55802e-20 2.94694)
(9.4232 -1.85586e-19 3.25248)
(9.38431 2.62386e-20 3.58371)
(9.35202 -2.67014e-20 3.94337)
(9.32876 0 4.33443)
(9.31765 0 4.76024)