/*--------------------------------*- C++ -*----------------------------------*\
| =========                 |                                                 |
| \\      /  F ield         | OpenFOAM: The Open Source CFD Toolbox           |
|  \\    /   O peration     | Version:  dev                                   |
|   \\  /    A nd           | Web:      www.OpenFOAM.org                      |
|    \\/     M anipulation  |                                                 |
\*---------------------------------------------------------------------------*/
FoamFile
{
    version     2.0;
    format      ascii;
    class       volVectorField;
    location    "2.54";
    object      U;
}
// * * * * * * * * * * * * * * * * * * * * * * * * * * * * * * * * * * * * * //

dimensions      [0 1 -1 0 0 0 0];

internalField   nonuniform List<vector> 
465
(
(9.99443 -4.56322e-19 3.80652)
(10.2115 0 3.73554)
(10.351 4.31846e-19 4.0493)
(10.5244 -1.69106e-18 4.37738)
(10.4124 -4.22218e-19 3.64289)
(10.5635 4.24994e-19 3.92721)
(10.745 1.22885e-18 4.21954)
(10.9601 0 4.51596)
(11.2108 -3.75038e-19 4.81108)
(10.5956 4.13797e-19 3.53205)
(10.754 0 3.7876)
(10.9393 -3.96214e-19 4.04634)
(11.1531 0 4.30443)
(11.3963 3.71202e-19 4.55685)
(11.6692 3.5604e-19 4.79809)
(11.972 6.60834e-19 5.02142)
(10.7601 0 3.40649)
(10.9226 0 3.63486)
(11.1082 3.72942e-19 3.8629)
(11.3178 0 4.08709)
(11.5513 1.73529e-19 4.30308)
(11.8081 -1.76966e-19 4.50608)
(12.0874 -6.53047e-19 4.69102)
(12.3825 1.11619e-20 4.8513)
(12.7256 1.52699e-19 4.98515)
(10.9059 1.90177e-19 3.26949)
(11.0697 4.54853e-20 3.47278)
(11.2532 -3.68745e-19 3.67323)
(11.4564 -4.52865e-20 3.86778)
(11.679 0 4.05281)
(11.9198 -3.34509e-19 4.22436)
(12.177 -3.15311e-19 4.37847)
(12.4457 4.7985e-19 4.51076)
(12.7526 4.28052e-19 4.6194)
(11.0335 0 3.12394)
(11.1966 -3.97229e-19 3.3044)
(11.3761 3.92522e-19 3.48036)
(11.5718 0 3.64922)
(11.7829 0 3.80804)
(12.0079 1.01882e-20 3.95368)
(12.2451 4.86376e-19 4.08319)
(12.4902 -5.6838e-23 4.19363)
(12.7663 -1.50403e-19 4.28372)
(11.1438 -2.1433e-20 2.97221)
(11.3046 2.84324e-19 3.1321)
(11.479 -2.56058e-19 3.28649)
(11.6665 -3.27234e-19 3.4332)
(11.866 9.7997e-19 3.56988)
(12.0762 -1.73989e-19 3.69418)
(12.2951 -4.769e-19 3.80395)
(12.5194 -7.44318e-19 3.89717)
(12.7695 1.84417e-19 3.97312)
(11.238 -3.32742e-19 2.81622)
(11.3954 -3.29734e-19 2.9577)
(11.5639 -3.26081e-19 3.09317)
(11.7429 3.21818e-19 3.22082)
(11.9312 -1.62035e-19 3.33884)
(12.1275 1.57076e-19 3.44549)
(12.3301 0 3.53925)
(12.5362 5.83875e-19 3.61873)
(12.7639 -5.27323e-19 3.68364)
(11.3172 3.26382e-19 2.65746)
(11.4704 4.81967e-19 2.78256)
(11.6327 4.75083e-19 2.90146)
(11.8032 -3.16405e-19 3.01273)
(11.9808 -4.60136e-19 3.11499)
(12.1644 4.63052e-19 3.20698)
(12.3524 5.86905e-19 3.28761)
(12.5425 -1.17549e-18 3.35598)
(12.7512 1.15315e-18 3.41207)
(11.3826 1.58274e-19 2.49707)
(11.5312 0 2.60761)
(11.6871 -4.63696e-19 2.71204)
(11.8494 0 2.80923)
(12.0171 0 2.89814)
(12.1891 -2.97901e-19 2.97784)
(12.3641 0 3.04761)
(12.5401 5.65295e-19 3.10685)
(12.7325 -5.80571e-19 3.15575)
(11.2984 -4.13126e-21 2.23337)
(11.4356 0 2.3359)
(11.5793 1.49664e-19 2.43351)
(11.7288 1.68946e-21 2.52528)
(11.8833 0 2.61032)
(12.0418 0 2.68785)
(12.2034 9.10835e-22 2.7572)
(12.3668 -1.43216e-19 2.81788)
(12.5306 5.55273e-19 2.86952)
(12.7089 -1.11639e-18 2.91245)
(11.3439 -4.41375e-19 2.08366)
(11.4775 -2.89253e-19 2.17457)
(11.6163 1.48596e-19 2.26072)
(11.7596 -1.40286e-19 2.34137)
(11.9067 2.92444e-19 2.41586)
(12.0568 0 2.48361)
(12.209 1.42191e-19 2.54414)
(12.3622 7.62154e-19 2.59714)
(12.5152 -1.92723e-20 2.64239)
(12.6812 -1.1654e-18 2.68027)
(11.3799 2.84139e-19 1.93306)
(11.5096 0 2.01351)
(11.6435 0 2.08945)
(11.781 -2.78073e-19 2.16031)
(11.9213 2.84174e-19 2.22559)
(12.0636 0 2.28487)
(12.2073 0 2.33782)
(12.3515 -6.86792e-20 2.38424)
(12.4951 -6.02147e-19 2.42401)
(12.6504 5.48008e-19 2.45757)
(11.4075 -5.4719e-19 1.78198)
(11.5334 2.77927e-19 1.853)
(11.6626 -4.07814e-19 1.91982)
(11.7945 6.86282e-21 1.982)
(11.9284 2.7622e-19 2.03918)
(12.0638 0 2.09105)
(12.1999 0 2.13741)
(12.336 0 2.17812)
(12.4713 1.32929e-19 2.21314)
(12.6173 0 2.24292)
(11.428 1.39441e-19 1.63066)
(11.5501 1.36703e-19 1.69314)
(11.6748 3.97132e-19 1.75177)
(11.8015 -3.99316e-19 1.80622)
(11.9297 1.36327e-19 1.85622)
(12.0587 0 1.90157)
(12.188 0 1.94212)
(12.317 0 1.97782)
(12.445 -9.24403e-23 2.00865)
(12.5829 -5.08563e-19 2.03505)
(11.4425 5.1661e-19 1.47921)
(11.561 -2.60114e-21 1.53392)
(11.6814 -1.28911e-19 1.58516)
(11.8034 -1.29739e-19 1.63266)
(11.9263 5.74903e-19 1.67625)
(12.0496 -4.57011e-19 1.71578)
(12.1729 -5.06343e-19 1.75117)
(12.2956 4.53955e-19 1.78239)
(12.4172 -5.01579e-19 1.80947)
(12.548 5.13801e-19 1.83282)
(11.4521 1.24865e-19 1.32766)
(11.5672 -9.17964e-22 1.37527)
(11.6838 1.26116e-19 1.41976)
(11.8014 4.96854e-19 1.46098)
(11.9196 -9.41297e-19 1.49878)
(12.0379 5.07125e-19 1.53307)
(12.1558 0 1.5638)
(12.2731 1.52323e-22 1.59099)
(12.389 -6.21628e-20 1.61466)
(12.5137 -3.09812e-20 1.63521)
(11.458 -8.35848e-22 1.17583)
(11.57 -1.22329e-19 1.21687)
(11.6831 0 1.25519)
(11.7968 4.83265e-19 1.29065)
(11.9108 -9.77221e-19 1.32316)
(12.0246 9.76267e-19 1.35267)
(12.1379 -1.16987e-20 1.37916)
(12.2503 -9.73026e-19 1.40264)
(12.3615 9.70646e-19 1.42316)
(12.4808 -9.67923e-19 1.44109)
(11.4613 -2.31679e-19 1.02369)
(11.5704 2.39103e-19 1.05862)
(11.6803 0 1.0912)
(11.7906 0 1.12134)
(11.9009 0 1.14897)
(12.0109 4.10535e-19 1.17407)
(12.1202 -1.10155e-20 1.19663)
(12.2285 -9.19431e-19 1.21667)
(12.3355 4.49905e-19 1.23425)
(12.4503 5.91746e-20 1.24971)
(11.4629 1.72168e-19 0.870508)
(11.5696 -5.73943e-20 0.899696)
(11.6767 -2.28288e-19 0.926897)
(11.7841 1.75775e-19 0.952052)
(11.8913 2.28849e-19 0.975119)
(11.9979 -2.91807e-19 0.996084)
(12.1038 0 1.01495)
(12.2087 5.7851e-20 1.03175)
(12.3121 4.85738e-19 1.04653)
(12.4232 -4.96449e-19 1.05958)
(11.4638 -5.58199e-20 0.716726)
(11.5684 1.11812e-19 0.740442)
(11.6734 0 0.762534)
(11.7783 5.62864e-20 0.782962)
(11.8828 2.81038e-20 0.801701)
(11.9868 5.64122e-20 0.818746)
(12.0899 0 0.834109)
(12.1918 -4.74069e-19 0.847815)
(12.2924 4.55846e-19 0.859907)
(12.4003 4.58723e-19 0.870639)
(11.4653 0 0.560189)
(11.5683 -2.69611e-19 0.578635)
(11.6714 2.47273e-19 0.59581)
(11.7744 2.43606e-19 0.611688)
(11.8769 -2.21243e-19 0.626255)
(11.9787 0 0.63951)
(12.0796 2.1711e-19 0.651465)
(12.1793 -1.94527e-19 0.662141)
(12.2777 2.03413e-19 0.671573)
(12.3832 -4.38905e-19 0.679965)
(11.4683 2.08411e-19 0.40315)
(11.5701 -3.93413e-21 0.416429)
(11.6719 -2.40426e-19 0.428798)
(11.7734 1.83776e-19 0.440241)
(11.8744 -4.52508e-19 0.45075)
(11.9747 2.15497e-19 0.460325)
(12.074 1.33436e-20 0.468976)
(12.1721 -2.67283e-20 0.476719)
(12.2688 1.33662e-20 0.483578)
(12.3725 -1.33725e-20 0.489706)
(11.4735 -1.27725e-20 0.239927)
(11.5746 0 0.248031)
(11.6756 0 0.255572)
(11.7763 0 0.26254)
(11.8765 0 0.268933)
(11.9759 6.48022e-21 0.274754)
(12.0743 -1.29844e-20 0.280011)
(12.1714 0 0.28472)
(12.2672 -1.09348e-19 0.288897)
(12.3699 1.08439e-19 0.292649)
(11.2789 1.24724e-20 0.0784612)
(11.3756 0 0.0814328)
(11.4725 -4.97654e-20 0.0842028)
(11.5693 5.08758e-20 0.0867667)
(11.6658 0 0.0891219)
(11.7616 -6.32726e-21 0.0912685)
(11.8565 0 0.0932087)
(11.9505 5.02017e-20 0.0949468)
(12.0432 -4.49677e-20 0.0964866)
(12.1426 -3.17575e-21 0.0978692)
(12.9222 -1.2135e-19 5.04063)
(12.9267 -1.00958e-18 4.66459)
(13.0901 -6.00766e-20 4.69874)
(13.229 -5.56517e-20 4.72481)
(12.9219 0 4.32139)
(13.0676 9.97227e-19 4.35017)
(13.1913 -1.89297e-18 4.37245)
(12.9096 1.00058e-18 4.00509)
(13.0406 0 4.02982)
(13.1518 5.69028e-20 4.04924)
(12.891 9.60201e-19 3.71117)
(13.0098 -1.9073e-18 3.73277)
(13.1106 9.34463e-19 3.74996)
(12.8673 -9.81192e-19 3.43606)
(12.9757 9.33665e-19 3.45513)
(13.0677 -9.29736e-19 3.47052)
(12.8391 0 3.17684)
(12.9388 9.55412e-19 3.19383)
(13.0233 -9.22446e-19 3.20771)
(12.8074 9.55003e-19 2.93112)
(12.8995 -5.78712e-20 2.94635)
(12.9776 -8.94763e-19 2.95893)
(12.7727 9.40145e-19 2.69688)
(12.8583 2.84734e-20 2.71058)
(12.9308 0 2.72202)
(12.7358 0 2.47239)
(12.8158 0 2.48475)
(12.8835 0 2.49516)
(12.6975 -8.62338e-19 2.25616)
(12.7725 8.80736e-19 2.26731)
(12.8361 0 2.27679)
(12.6584 8.35801e-19 2.04688)
(12.7292 2.71904e-20 2.05693)
(12.7892 1.33751e-20 2.06553)
(12.6196 5.41332e-20 1.84335)
(12.6867 8.34236e-19 1.85237)
(12.7435 -8.4627e-19 1.86013)
(12.5818 -1.32417e-20 1.64452)
(12.6457 0 1.65257)
(12.6998 -1.28611e-20 1.65953)
(12.5459 8.24543e-19 1.44926)
(12.607 0 1.45636)
(12.6588 -8.03442e-19 1.46254)
(12.5128 0 1.25678)
(12.5716 1.25486e-20 1.26297)
(12.6213 0 1.26837)
(12.4836 -7.88843e-19 1.06558)
(12.5403 7.78283e-19 1.07085)
(12.5884 0 1.07547)
(12.4589 -1.55186e-18 0.875601)
(12.5141 7.71918e-19 0.879978)
(12.5608 0 0.883819)
(12.4405 -7.40765e-22 0.683855)
(12.4944 3.82273e-19 0.687295)
(12.54 0 0.69032)
(12.4287 3.72045e-19 0.492561)
(12.4818 -3.72477e-19 0.495091)
(12.5267 0 0.49732)
(12.4255 0 0.294353)
(12.4779 0 0.295814)
(12.5223 -1.36948e-21 0.297082)
(12.1966 8.72424e-20 0.0984605)
(12.2474 -1.08909e-21 0.0989328)
(12.2906 -8.49621e-20 0.0993424)
(13.4775 6.04686e-20 4.74903)
(13.4122 5.20305e-19 4.39543)
(13.6477 -2.36727e-21 4.39903)
(13.9072 5.12617e-20 4.37893)
(14.1657 3.37816e-19 4.33301)
(13.3502 4.94752e-19 4.07092)
(13.5621 -8.84752e-19 4.07773)
(13.7973 5.05573e-19 4.06621)
(14.0349 2.39741e-20 4.03412)
(14.2632 -1.07917e-20 3.98197)
(14.4795 0 3.91169)
(13.2902 -6.4398e-20 3.77045)
(13.4823 4.62826e-19 3.77922)
(13.6965 -5.10461e-19 3.77349)
(13.9146 -2.58439e-20 3.75111)
(14.1267 1.18721e-20 3.71211)
(14.3304 0 3.65767)
(14.5252 0 3.58935)
(14.7097 0 3.50887)
(13.2316 6.32017e-20 3.48993)
(13.407 0 3.49995)
(13.6031 0 3.49833)
(13.8039 -3.74277e-19 3.4831)
(14.0008 3.82401e-19 3.45402)
(14.1918 -3.37766e-19 3.41183)
(14.3765 6.32131e-19 3.35756)
(14.5538 -3.0513e-19 3.29246)
(14.7222 -2.886e-19 3.21794)
(13.1739 0 3.2261)
(13.3351 -5.27689e-19 3.23689)
(13.5156 8.96273e-19 3.23826)
(13.7014 -4.29614e-19 3.22844)
(13.8846 3.75305e-19 3.20705)
(14.0636 -3.70014e-19 3.17452)
(14.2383 -3.20089e-19 3.13156)
(14.4076 3.1532e-19 3.07904)
(14.5703 -2.69031e-19 3.01801)
(13.1168 5.13923e-19 2.97631)
(13.2658 5.91708e-20 2.98752)
(13.433 0 2.99108)
(13.6057 0 2.98539)
(13.7767 0 2.97001)
(13.9449 -3.56023e-19 2.94519)
(14.1102 3.12183e-20 2.9114)
(14.2716 3.2271e-19 2.86924)
(14.4282 -2.78693e-19 2.81949)
(13.0603 0 2.73841)
(13.1988 -4.64046e-19 2.74977)
(13.3545 4.56566e-19 2.75488)
(13.5157 -4.09167e-19 2.75233)
(13.6761 4.029e-19 2.74168)
(13.8346 2.82332e-21 2.72303)
(13.9912 3.32473e-19 2.6967)
(14.1452 -3.27746e-19 2.6631)
(14.2958 -3.75888e-20 2.62277)
(13.0045 0 2.51057)
(13.134 4.60312e-19 2.52185)
(13.2796 -4.52759e-19 2.52802)
(13.4309 0 2.52785)
(13.5818 0 2.52088)
(13.7317 -2.90803e-21 2.50716)
(13.8804 -1.09049e-20 2.48689)
(14.0277 -3.12936e-19 2.46034)
(14.1725 6.55288e-19 2.4279)
(12.9497 0 2.29119)
(13.0714 0 2.30221)
(13.2083 0 2.30906)
(13.3508 -4.06497e-19 2.31064)
(13.4935 4.00018e-19 2.30653)
(13.6356 -3.56757e-19 2.29674)
(13.7774 3.64788e-19 2.28136)
(13.9183 0 2.2606)
(14.0578 -1.86009e-20 2.23471)
(12.8965 0 2.07891)
(13.0113 -2.86744e-20 2.08952)
(13.1406 0 2.09672)
(13.2755 1.29224e-20 2.09955)
(13.411 0 2.09763)
(13.5462 3.58634e-19 2.09092)
(13.6817 -6.90259e-19 2.0795)
(13.8169 6.48377e-19 2.06347)
(13.9514 -3.11624e-19 2.04302)
(12.8453 -2.94911e-20 1.87246)
(12.9541 5.62847e-20 1.88252)
(13.0769 4.21243e-19 1.8898)
(13.2052 -4.26847e-19 1.89347)
(13.3342 3.7751e-19 1.89318)
(13.4635 -3.6858e-19 1.88887)
(13.5933 0 1.8806)
(13.7236 0 1.86842)
(13.8536 0 1.85243)
(12.7967 4.33188e-20 1.67077)
(12.9005 -2.76063e-20 1.68016)
(13.0175 4.15197e-19 1.68729)
(13.1401 -8.02272e-19 1.69145)
(13.2636 7.60987e-19 1.69231)
(13.3876 -7.23479e-19 1.68982)
(13.5125 1.40461e-20 1.68401)
(13.6382 -6.19123e-21 1.6749)
(13.7642 3.0959e-19 1.66256)
(12.7516 8.78946e-19 1.47264)
(12.851 -4.40099e-19 1.48125)
(12.9631 3.95511e-19 1.48804)
(13.0806 -3.95378e-19 1.49238)
(13.1993 0 1.494)
(13.3188 -5.58565e-21 1.49285)
(13.4394 0 1.48892)
(13.5611 3.3161e-19 1.48225)
(13.6835 -2.8813e-19 1.47286)
(12.7107 -4.25417e-19 1.27731)
(12.8063 4.18e-19 1.28503)
(12.9142 -3.94959e-19 1.2913)
(13.0275 3.85328e-19 1.29559)
(13.1421 3.62977e-19 1.29765)
(13.2576 -3.51507e-19 1.29744)
(13.3745 1.04383e-20 1.29495)
(13.4927 0 1.29018)
(13.612 -1.84513e-20 1.28318)
(12.6748 1.35954e-20 1.08319)
(12.7673 2.60932e-20 1.08994)
(12.8717 -3.87319e-19 1.09554)
(12.9814 3.89742e-19 1.09956)
(13.0925 0 1.10178)
(13.2047 3.38929e-19 1.10216)
(13.3184 -3.33287e-19 1.1007)
(13.4337 -3.04242e-19 1.09739)
(13.5503 5.86833e-19 1.09225)
(12.6449 -1.32629e-20 0.890277)
(12.7348 -1.91331e-20 0.895983)
(12.8363 -3.85379e-19 0.900802)
(12.9431 3.78715e-19 0.904382)
(13.0514 0 0.906549)
(13.1609 2.6507e-21 0.907267)
(13.2721 -3.25949e-19 0.906527)
(13.385 3.10815e-19 0.904323)
(13.4993 2.73999e-19 0.900658)
(12.6222 0 0.695438)
(12.71 -1.14665e-23 0.699991)
(12.8094 0 0.703884)
(12.9139 0 0.706845)
(13.0201 0 0.708739)
(13.1274 -2.58302e-21 0.709534)
(13.2366 0 0.709223)
(13.3476 -9.37641e-21 0.707799)
(13.4602 -2.69173e-19 0.705252)
(12.6077 -2.00112e-19 0.501093)
(12.6941 2.02619e-19 0.504481)
(12.7918 1.8387e-19 0.507415)
(12.8948 -1.80668e-19 0.509692)
(12.9994 1.67394e-19 0.511216)
(13.1053 -1.64563e-19 0.511969)
(13.213 0 0.51195)
(13.3227 -1.34657e-19 0.511157)
(13.4341 2.77657e-19 0.50958)
(12.6025 0 0.299272)
(12.6881 0 0.301356)
(12.7848 -1.41912e-21 0.30318)
(12.8868 -1.7072e-19 0.304582)
(12.9905 1.68439e-19 0.305516)
(13.0955 1.56665e-19 0.30598)
(13.2024 -1.52843e-19 0.305978)
(13.3113 0 0.305521)
(13.4221 0 0.30461)
(12.3682 -4.75952e-20 0.100108)
(12.4511 9.24688e-20 0.100919)
(12.5448 -4.35251e-20 0.101635)
(12.6438 -3.31096e-22 0.102184)
(12.7443 3.95759e-20 0.102554)
(12.8462 -2.41191e-21 0.10275)
(12.95 -7.35308e-20 0.102774)
(13.0556 1.23274e-21 0.102629)
(13.1631 3.37854e-20 0.102322)
)
;

boundaryField
{
    inlet
    {
        type            fixedValue;
        value           nonuniform 0();
    }
    outlet
    {
        type            zeroGradient;
    }
    flap
    {
        type            movingWallVelocity;
        value           nonuniform 0();
    }
    upperWall
    {
        type            noSlip;
    }
    lowerWall
    {
        type            noSlip;
    }
    frontAndBack
    {
        type            empty;
    }
    procBoundary1to0
    {
        type            processor;
        value           nonuniform List<vector> 
18
(
(11.1737 8.04162e-20 2.52766)
(11.242 -1.56827e-19 2.38162)
(11.242 -1.56827e-19 2.38162)
(11.1681 -2.29564e-19 2.12689)
(11.2161 0 1.98876)
(11.2549 0 1.84871)
(11.2855 -1.3671e-19 1.70723)
(11.309 3.97176e-19 1.56469)
(11.3265 2.55264e-19 1.42129)
(11.339 0 1.27716)
(11.3476 1.23781e-19 1.13222)
(11.3533 3.51028e-19 0.986512)
(11.3571 1.73396e-19 0.839413)
(11.3599 2.79257e-19 0.691441)
(11.3628 5.37778e-20 0.540509)
(11.3669 -5.24161e-20 0.388986)
(11.3727 0 0.23127)
(11.1827 0 0.0752942)
)
;
    }
    procBoundary1to2
    {
        type            processor;
        value           nonuniform List<vector> 
17
(
(14.8808 -4.57061e-19 3.13557)
(14.7252 -2.65607e-19 2.94966)
(14.5788 -1.88733e-20 2.76304)
(14.4418 0 2.57643)
(14.314 5.24789e-20 2.39011)
(14.1949 -3.46132e-20 2.2041)
(14.0844 3.59602e-20 2.01841)
(13.9828 -3.12579e-19 1.83284)
(13.89 1.79271e-20 1.64713)
(13.8061 -3.53058e-20 1.46087)
(13.7319 1.7375e-20 1.27399)
(13.6679 2.82958e-19 1.08532)
(13.6149 5.45753e-19 0.895558)
(13.5743 -2.9049e-19 0.701589)
(13.5472 1.34958e-20 0.507192)
(13.5346 8.00218e-21 0.303203)
(13.2724 -3.20351e-20 0.101828)
)
;
    }
    procBoundary1to3
    {
        type            processor;
        value           nonuniform List<vector> 9((9.90228 -4.78052e-19 3.48667) (10.1016 1.1154e-20 3.43816) (10.2887 1.02756e-20 3.36932) (10.4617 4.19908e-19 3.2826) (10.6193 0 3.18059) (10.7609 5.63933e-19 3.06598) (10.8866 -5.52859e-19 2.94134) (10.9969 0 2.80888) (11.0923 -4.26807e-20 2.67048));
    }
    procBoundary1to4
    {
        type            processor;
        value           nonuniform List<vector> 
30
(
(9.76341 -5.05837e-19 3.85252)
(10.1176 -9.38407e-19 4.14911)
(10.1176 -9.38407e-19 4.14911)
(10.2775 0 4.51378)
(10.7366 -1.22838e-18 4.71629)
(10.7366 -1.22838e-18 4.71629)
(10.9909 -4.73508e-20 5.0606)
(11.499 5.33451e-19 5.09883)
(11.499 5.33451e-19 5.09883)
(11.826 -5.1066e-19 5.36953)
(12.2953 3.33295e-19 5.21708)
(12.2953 3.33295e-19 5.21708)
(12.6813 -2.71136e-19 5.38657)
(12.906 8.80036e-19 5.45722)
(13.1073 8.59067e-19 5.08215)
(13.1073 8.59067e-19 5.08215)
(13.265 -9.6932e-19 5.11346)
(13.5472 6.15365e-20 5.13771)
(13.7407 5.78256e-20 4.74674)
(13.7407 5.78256e-20 4.74674)
(14.0264 1.01098e-19 4.7128)
(14.3042 2.13866e-20 4.64604)
(14.4095 3.46977e-19 4.26279)
(14.4095 3.46977e-19 4.26279)
(14.6354 -8.97136e-21 4.17136)
(14.6829 0 3.82556)
(14.6829 0 3.82556)
(14.8721 1.24118e-19 3.72603)
(14.8826 -2.88073e-21 3.41814)
(14.8826 -2.88073e-21 3.41814)
)
;
    }
}


// ************************************************************************* //
