/*--------------------------------*- C++ -*----------------------------------*\
| =========                 |                                                 |
| \\      /  F ield         | OpenFOAM: The Open Source CFD Toolbox           |
|  \\    /   O peration     | Version:  dev                                   |
|   \\  /    A nd           | Web:      www.OpenFOAM.org                      |
|    \\/     M anipulation  |                                                 |
\*---------------------------------------------------------------------------*/
FoamFile
{
    version     2.0;
    format      ascii;
    class       volVectorField;
    location    "0.98";
    object      cellDisplacement;
}
// * * * * * * * * * * * * * * * * * * * * * * * * * * * * * * * * * * * * * //

dimensions      [0 1 0 0 0 0 0];

internalField   nonuniform List<vector> 
465
(
(0.217976 0 -0.00390259)
(0.225701 0 -0.00365069)
(0.230964 0 -0.00339607)
(0.23398 0 -0.00315691)
(0.234922 0 -0.00291552)
(0.233914 0 -0.00269974)
(0.231032 0 -0.00249198)
(0.226313 0 -0.00229088)
(0.219782 0 -0.00208927)
(0.211447 0 -0.00190735)
(0.201264 0 -0.00173023)
(0.189182 0 -0.001557)
(0.175129 0 -0.00138558)
(0.159071 0 -0.00121095)
(0.140952 0 -0.0010434)
(0.120646 0 -0.000871962)
(0.0980628 0 -0.000696489)
(0.0731161 0 -0.000513079)
(0.0457132 0 -0.000318871)
(0.0156932 0 -0.000109669)
(0.219761 0 -0.0114787)
(0.227149 0 -0.0107491)
(0.23214 0 -0.0100077)
(0.234943 0 -0.00931706)
(0.235711 0 -0.0086293)
(0.234558 0 -0.00797914)
(0.231564 0 -0.00737034)
(0.226758 0 -0.00678221)
(0.22015 0 -0.006202)
(0.211743 0 -0.00565152)
(0.201512 0 -0.00512903)
(0.189394 0 -0.00461766)
(0.175322 0 -0.00411239)
(0.15923 0 -0.00360305)
(0.141072 0 -0.00309841)
(0.120746 0 -0.0025893)
(0.0981428 0 -0.0020692)
(0.0731803 0 -0.00152455)
(0.0457568 0 -0.000947616)
(0.01571 0 -0.000325944)
(0.22319 0 -0.0185782)
(0.229948 0 -0.0174295)
(0.234425 0 -0.0162663)
(0.236812 0 -0.0151544)
(0.237244 0 -0.0140733)
(0.235816 0 -0.0130229)
(0.232594 0 -0.0120252)
(0.227615 0 -0.01108)
(0.220869 0 -0.0101569)
(0.212335 0 -0.00925839)
(0.201995 0 -0.00839627)
(0.189801 0 -0.00756424)
(0.175675 0 -0.00674263)
(0.159544 0 -0.00592054)
(0.141334 0 -0.00509259)
(0.120939 0 -0.00425636)
(0.0982917 0 -0.00339816)
(0.073302 0 -0.00250395)
(0.0458377 0 -0.00155662)
(0.0157402 0 -0.000535462)
(0.228087 0 -0.0251906)
(0.233951 0 -0.0236616)
(0.237699 0 -0.022138)
(0.239486 0 -0.0206359)
(0.23944 0 -0.0191969)
(0.237626 0 -0.0178015)
(0.234081 0 -0.0164482)
(0.22884 0 -0.0151613)
(0.221892 0 -0.0139172)
(0.213195 0 -0.0127075)
(0.202702 0 -0.0115268)
(0.190379 0 -0.0103816)
(0.176168 0 -0.00926218)
(0.159968 0 -0.00814172)
(0.141691 0 -0.00701273)
(0.121243 0 -0.00586547)
(0.0985369 0 -0.00468243)
(0.0734765 0 -0.00345037)
(0.0459502 0 -0.00214533)
(0.0157816 0 -0.000738015)
(0.234205 0 -0.031289)
(0.238951 0 -0.0294179)
(0.241803 0 -0.0275773)
(0.242853 0 -0.0257478)
(0.242201 0 -0.0239751)
(0.239904 0 -0.0222712)
(0.235965 0 -0.0206122)
(0.230391 0 -0.0190043)
(0.223179 0 -0.0174645)
(0.21427 0 -0.0159672)
(0.203607 0 -0.0145035)
(0.191122 0 -0.0130657)
(0.17678 0 -0.011659)
(0.160491 0 -0.010256)
(0.142128 0 -0.00884096)
(0.121605 0 -0.00739954)
(0.0988259 0 -0.00591218)
(0.0736887 0 -0.0043581)
(0.0460862 0 -0.0027103)
(0.0158311 0 -0.000932399)
(0.241244 0 -0.0368406)
(0.244742 0 -0.0346945)
(0.246564 0 -0.0325688)
(0.246778 0 -0.0304703)
(0.245428 0 -0.0284067)
(0.242563 0 -0.0264169)
(0.238169 0 -0.0244855)
(0.232213 0 -0.0226007)
(0.22468 0 -0.0207824)
(0.215524 0 -0.0190237)
(0.204658 0 -0.0172996)
(0.192001 0 -0.0156016)
(0.177508 0 -0.0139221)
(0.161095 0 -0.0122531)
(0.142628 0 -0.0105693)
(0.122013 0 -0.00885126)
(0.0991484 0 -0.00707615)
(0.0739261 0 -0.00521796)
(0.0462368 0 -0.00324566)
(0.0158848 0 -0.00111652)
(0.248915 0 -0.0418432)
(0.251085 0 -0.0394788)
(0.251783 0 -0.0371016)
(0.251094 0 -0.0347711)
(0.249 0 -0.0324727)
(0.245506 0 -0.0302255)
(0.240611 0 -0.0280555)
(0.234248 0 -0.0259371)
(0.226362 0 -0.023871)
(0.216914 0 -0.0218655)
(0.205822 0 -0.0199044)
(0.192984 0 -0.0179702)
(0.178328 0 -0.0160485)
(0.161765 0 -0.0141331)
(0.143177 0 -0.0121987)
(0.122457 0 -0.0102217)
(0.0994963 0 -0.00817577)
(0.0741811 0 -0.00603085)
(0.0463974 0 -0.00375196)
(0.0159413 0 -0.00129059)
(0.256907 0 -0.0463014)
(0.257717 0 -0.043752)
(0.25728 0 -0.0411788)
(0.255647 0 -0.0386455)
(0.252781 0 -0.0361508)
(0.24864 0 -0.0336958)
(0.243205 0 -0.0313104)
(0.236409 0 -0.0289876)
(0.22817 0 -0.0267179)
(0.218417 0 -0.0244965)
(0.207069 0 -0.0223218)
(0.194026 0 -0.0201744)
(0.179195 0 -0.0180382)
(0.162477 0 -0.0158985)
(0.143757 0 -0.0137321)
(0.122924 0 -0.0115134)
(0.0998597 0 -0.00921332)
(0.0744461 0 -0.00679843)
(0.0465635 0 -0.0042302)
(0.0159996 0 -0.00145498)
(0.26492 0 -0.050211)
(0.264405 0 -0.0475147)
(0.262862 0 -0.0447963)
(0.260281 0 -0.0420928)
(0.25664 0 -0.0394354)
(0.251865 0 -0.0368215)
(0.24589 0 -0.0342603)
(0.238645 0 -0.0317621)
(0.230037 0 -0.0293172)
(0.219974 0 -0.0269185)
(0.208364 0 -0.0245583)
(0.195103 0 -0.0222209)
(0.180087 0 -0.0198894)
(0.163208 0 -0.0175457)
(0.144351 0 -0.015166)
(0.123398 0 -0.0127232)
(0.100226 0 -0.0101862)
(0.0747118 0 -0.00751862)
(0.0467287 0 -0.004679)
(0.0160573 0 -0.00160917)
(0.272711 0 -0.0535878)
(0.270924 0 -0.0507707)
(0.26833 0 -0.0479448)
(0.264863 0 -0.0451241)
(0.260478 0 -0.0423421)
(0.255083 0 -0.0396029)
(0.248588 0 -0.0369124)
(0.240901 0 -0.0342744)
(0.231921 0 -0.0316837)
(0.221546 0 -0.0291329)
(0.20967 0 -0.0266124)
(0.196185 0 -0.0241075)
(0.180979 0 -0.0216008)
(0.163937 0 -0.0190725)
(0.14494 0 -0.016498)
(0.123865 0 -0.013849)
(0.100585 0 -0.0110924)
(0.0749693 0 -0.0081899)
(0.0468875 0 -0.00509734)
(0.0161123 0 -0.0017528)
(0.28004 0 -0.0564396)
(0.277111 0 -0.0535484)
(0.273557 0 -0.0506495)
(0.269286 0 -0.0477584)
(0.264211 0 -0.0448943)
(0.258228 0 -0.0420653)
(0.251234 0 -0.0392763)
(0.24312 0 -0.0365292)
(0.233777 0 -0.0338202)
(0.223092 0 -0.0311422)
(0.210953 0 -0.0284848)
(0.197244 0 -0.0258339)
(0.181848 0 -0.023172)
(0.164643 0 -0.020478)
(0.145507 0 -0.0177269)
(0.124311 0 -0.0148893)
(0.100924 0 -0.0119308)
(0.0752106 0 -0.00881125)
(0.0470348 0 -0.00548455)
(0.0161628 0 -0.00188563)
(0.286737 0 -0.0587833)
(0.282844 0 -0.0558714)
(0.278452 0 -0.0529443)
(0.273459 0 -0.0500183)
(0.267757 0 -0.0471076)
(0.261232 0 -0.0442207)
(0.253769 0 -0.0413625)
(0.245251 0 -0.0385339)
(0.23556 0 -0.0357321)
(0.224577 0 -0.0329501)
(0.212182 0 -0.030178)
(0.198255 0 -0.0274016)
(0.182672 0 -0.0246034)
(0.165308 0 -0.0217622)
(0.146036 0 -0.0188524)
(0.124723 0 -0.0158437)
(0.101234 0 -0.0127007)
(0.0754283 0 -0.00938213)
(0.0471661 0 -0.00584024)
(0.0162073 0 -0.00200753)
(0.292741 0 -0.0606666)
(0.28804 0 -0.0577728)
(0.282933 0 -0.0548546)
(0.277308 0 -0.0519264)
(0.27105 0 -0.0490001)
(0.264035 0 -0.046084)
(0.256143 0 -0.0431828)
(0.24725 0 -0.0402977)
(0.237233 0 -0.0374262)
(0.225967 0 -0.034562)
(0.213328 0 -0.0316955)
(0.199192 0 -0.0288129)
(0.18343 0 -0.025897)
(0.165915 0 -0.0229262)
(0.146512 0 -0.0198749)
(0.125089 0 -0.0167122)
(0.101505 0 -0.0134021)
(0.0756156 0 -0.00990241)
(0.0472771 0 -0.0061643)
(0.0162444 0 -0.00211845)
(0.297993 0 -0.0621255)
(0.292638 0 -0.0592858)
(0.286938 0 -0.0564085)
(0.280778 0 -0.0535068)
(0.274036 0 -0.0505917)
(0.26659 0 -0.0476713)
(0.258313 0 -0.0447505)
(0.249079 0 -0.041831)
(0.238761 0 -0.0389107)
(0.227233 0 -0.0359842)
(0.214367 0 -0.0330422)
(0.200035 0 -0.0300715)
(0.184105 0 -0.0270551)
(0.166447 0 -0.0239717)
(0.146924 0 -0.0207955)
(0.125399 0 -0.0174956)
(0.101729 0 -0.0140355)
(0.0757667 0 -0.0103724)
(0.0473642 0 -0.00645688)
(0.0162727 0 -0.00221845)
(0.302466 0 -0.0631992)
(0.296605 0 -0.0604441)
(0.290429 0 -0.0576347)
(0.283826 0 -0.0547838)
(0.276677 0 -0.0519027)
(0.268857 0 -0.0489995)
(0.260242 0 -0.0460795)
(0.250705 0 -0.043145)
(0.240117 0 -0.0401947)
(0.228351 0 -0.0372238)
(0.215277 0 -0.0342236)
(0.200764 0 -0.0311815)
(0.18468 0 -0.0280811)
(0.166891 0 -0.0249012)
(0.147259 0 -0.0216162)
(0.125643 0 -0.0181952)
(0.101899 0 -0.0146017)
(0.0758762 0 -0.0107926)
(0.0474242 0 -0.00671831)
(0.0162912 0 -0.00230765)
(0.31228 0 -0.0665021)
(0.306237 0 -0.0639449)
(0.299995 0 -0.0613013)
(0.293443 0 -0.0585824)
(0.286479 0 -0.0558031)
(0.278989 0 -0.0529757)
(0.27085 0 -0.0501082)
(0.26194 0 -0.0472066)
(0.252132 0 -0.0442739)
(0.241302 0 -0.0413096)
(0.229319 0 -0.0383097)
(0.216055 0 -0.0352661)
(0.201377 0 -0.032167)
(0.185152 0 -0.0289964)
(0.167243 0 -0.0257336)
(0.147513 0 -0.0223532)
(0.125818 0 -0.0188248)
(0.102011 0 -0.0151117)
(0.0759417 0 -0.0111711)
(0.0474556 0 -0.00695366)
(0.0162995 0 -0.0023878)
(0.315554 0 -0.0667804)
(0.309284 0 -0.0643834)
(0.302789 0 -0.061876)
(0.295965 0 -0.0592695)
(0.288717 0 -0.0565794)
(0.280952 0 -0.0538242)
(0.272545 0 -0.0510089)
(0.263381 0 -0.0481417)
(0.253338 0 -0.0452264)
(0.242293 0 -0.0422632)
(0.230117 0 -0.0392488)
(0.216681 0 -0.0361758)
(0.201854 0 -0.0330332)
(0.185502 0 -0.0298055)
(0.167488 0 -0.0264727)
(0.147672 0 -0.0230099)
(0.125911 0 -0.0193869)
(0.102056 0 -0.0155676)
(0.0759554 0 -0.0115095)
(0.0474534 0 -0.00716378)
(0.0162958 0 -0.00245917)
(0.304903 0 -0.0621693)
(0.297907 0 -0.0596913)
(0.29047 0 -0.0571109)
(0.282505 0 -0.0544448)
(0.273891 0 -0.0516982)
(0.264518 0 -0.048879)
(0.254279 0 -0.0459949)
(0.24305 0 -0.0430466)
(0.230709 0 -0.0400315)
(0.217125 0 -0.0369427)
(0.202169 0 -0.03377)
(0.185708 0 -0.0304987)
(0.167605 0 -0.0271095)
(0.14772 0 -0.0235778)
(0.125908 0 -0.0198743)
(0.102023 0 -0.0159634)
(0.0759097 0 -0.0118033)
(0.047413 0 -0.00734587)
(0.0162784 0 -0.00252083)
(0.2917 0 -0.0574051)
(0.28359 0 -0.0548361)
(0.274828 0 -0.0521712)
(0.265315 0 -0.0494191)
(0.254926 0 -0.0465814)
(0.243546 0 -0.0436601)
(0.23107 0 -0.040657)
(0.217362 0 -0.0375648)
(0.202299 0 -0.034375)
(0.18575 0 -0.0310734)
(0.167577 0 -0.027641)
(0.147641 0 -0.0240543)
(0.125799 0 -0.0202844)
(0.101903 0 -0.0162968)
(0.0757979 0 -0.0120507)
(0.0473303 0 -0.0074989)
(0.0162461 0 -0.00257243)
(0.284209 0 -0.0550152)
(0.275344 0 -0.0524384)
(0.265718 0 -0.0497579)
(0.255222 0 -0.0469782)
(0.243754 0 -0.0441026)
(0.231181 0 -0.041126)
(0.21737 0 -0.0380412)
(0.202225 0 -0.0348465)
(0.185612 0 -0.0315274)
(0.167391 0 -0.0280651)
(0.147425 0 -0.024437)
(0.125572 0 -0.0206152)
(0.101686 0 -0.0165662)
(0.0756138 0 -0.0122504)
(0.0472014 0 -0.00762203)
(0.0161977 0 -0.00261368)
(0.265734 0 -0.0499088)
(0.255164 0 -0.0471934)
(0.24362 0 -0.0443676)
(0.230991 0 -0.0414308)
(0.217132 0 -0.0383712)
(0.201929 0 -0.0351836)
(0.185279 0 -0.0318598)
(0.167032 0 -0.0283803)
(0.147058 0 -0.0247242)
(0.125217 0 -0.020865)
(0.101366 0 -0.0167702)
(0.075352 0 -0.0124014)
(0.0470233 0 -0.00771462)
(0.016132 0 -0.0026444)
(0.243153 0 -0.044465)
(0.230478 0 -0.0415714)
(0.216594 0 -0.0385463)
(0.201398 0 -0.0353849)
(0.184745 0 -0.0320709)
(0.16649 0 -0.0285856)
(0.146531 0 -0.0249149)
(0.124727 0 -0.0210326)
(0.100936 0 -0.0169076)
(0.075008 0 -0.0125029)
(0.0467933 0 -0.00777622)
(0.0160483 0 -0.00266445)
(0.229658 0 -0.0415576)
(0.215771 0 -0.0385737)
(0.200578 0 -0.0354422)
(0.183961 0 -0.0321522)
(0.165758 0 -0.0286808)
(0.145836 0 -0.0250084)
(0.124093 0 -0.0211174)
(0.10039 0 -0.0169779)
(0.0745786 0 -0.0125545)
(0.0465098 0 -0.00780664)
(0.0159461 0 -0.00267377)
(0.19949 0 -0.0353639)
(0.18291 0 -0.0321029)
(0.16479 0 -0.0286583)
(0.144969 0 -0.0250047)
(0.123312 0 -0.0211188)
(0.0997253 0 -0.0169808)
(0.0740625 0 -0.0125563)
(0.0461722 0 -0.00780591)
(0.0158253 0 -0.00267241)
(0.181618 0 -0.0319305)
(0.163575 0 -0.0285174)
(0.143886 0 -0.0248964)
(0.12238 0 -0.0210371)
(0.0989394 0 -0.0169162)
(0.0734611 0 -0.0125086)
(0.0457815 0 -0.00777436)
(0.0156864 0 -0.00266052)
(0.142575 0 -0.0246826)
(0.121241 0 -0.0208627)
(0.0980347 0 -0.0167849)
(0.0727868 0 -0.012414)
(0.0453415 0 -0.00771279)
(0.0155304 0 -0.00263831)
(0.119943 0 -0.0206048)
(0.0969478 0 -0.0165763)
(0.0719816 0 -0.0122625)
(0.0448583 0 -0.00762237)
(0.01536 0 -0.00260629)
(0.0710402 0 -0.0120536)
(0.0442825 0 -0.00749478)
(0.0151837 0 -0.00256596)
(0.0436264 0 -0.00733223)
(0.0149568 0 -0.00250971)
(0.0146753 0 -0.00243694)
)
;

boundaryField
{
    inlet
    {
        type            cellMotion;
        value           nonuniform 0();
    }
    outlet
    {
        type            cellMotion;
        value           uniform (0 0 0);
    }
    flap
    {
        type            cellMotion;
        value           nonuniform 0();
    }
    upperWall
    {
        type            slip;
    }
    lowerWall
    {
        type            slip;
    }
    frontAndBack
    {
        type            empty;
    }
    procBoundary5to2
    {
        type            processor;
        value           nonuniform List<vector> 
34
(
(0.317921 0 -0.0667525)
(0.311548 0 -0.0645291)
(0.311548 0 -0.0645291)
(0.306354 0 -0.0622103)
(0.29926 0 -0.0598684)
(0.29926 0 -0.0598684)
(0.292408 0 -0.0574794)
(0.292408 0 -0.0574794)
(0.284354 0 -0.0549935)
(0.275431 0 -0.0525108)
(0.275431 0 -0.0525108)
(0.265355 0 -0.0498796)
(0.254744 0 -0.0472345)
(0.254744 0 -0.0472345)
(0.242349 0 -0.0444006)
(0.242349 0 -0.0444006)
(0.228526 0 -0.0413935)
(0.214658 0 -0.0384575)
(0.214658 0 -0.0384575)
(0.198138 0 -0.0351535)
(0.198138 0 -0.0351535)
(0.180089 0 -0.0316381)
(0.162147 0 -0.028267)
(0.162147 0 -0.028267)
(0.141093 0 -0.0243749)
(0.141093 0 -0.0243749)
(0.118494 0 -0.0202655)
(0.0957366 0 -0.016301)
(0.0957366 0 -0.016301)
(0.0700193 0 -0.0117972)
(0.0700193 0 -0.0117972)
(0.0428802 0 -0.00713307)
(0.0428802 0 -0.00713307)
(0.0144021 0 -0.00235816)
)
;
    }
    procBoundary5to4
    {
        type            processor;
        value           nonuniform List<vector> 
18
(
(0.207538 0 -0.00414772)
(0.209725 0 -0.0122089)
(0.213942 0 -0.0197524)
(0.21993 0 -0.0267263)
(0.227381 0 -0.0331184)
(0.235916 0 -0.0389228)
(0.245189 0 -0.044153)
(0.254828 0 -0.0488083)
(0.264444 0 -0.0528753)
(0.273724 0 -0.0563668)
(0.282375 0 -0.0592838)
(0.290209 0 -0.0616547)
(0.297138 0 -0.0635177)
(0.303114 0 -0.0649133)
(0.308125 0 -0.0658869)
(0.308125 0 -0.0658869)
(0.318206 0 -0.0689531)
(0.321668 0 -0.0690448)
)
;
    }
}


// ************************************************************************* //
