/*--------------------------------*- C++ -*----------------------------------*\
| =========                 |                                                 |
| \\      /  F ield         | OpenFOAM: The Open Source CFD Toolbox           |
|  \\    /   O peration     | Version:  dev                                   |
|   \\  /    A nd           | Web:      www.OpenFOAM.org                      |
|    \\/     M anipulation  |                                                 |
\*---------------------------------------------------------------------------*/
FoamFile
{
    version     2.0;
    format      ascii;
    class       surfaceScalarField;
    location    "3.48";
    object      meshPhi;
}
// * * * * * * * * * * * * * * * * * * * * * * * * * * * * * * * * * * * * * //

dimensions      [0 3 -1 0 0 0 0];

internalField   nonuniform List<scalar> 
881
(
6.03957e-07
4.2491e-08
1.54842e-06
1.18242e-07
3.08132e-06
1.75786e-07
5.29429e-06
2.13266e-07
8.12669e-06
2.31182e-07
1.14083e-05
2.30882e-07
1.4899e-05
2.14406e-07
1.83259e-05
1.84445e-07
2.14181e-05
1.44278e-07
2.39354e-05
9.76637e-08
2.56919e-05
4.86551e-08
2.6572e-05
1.31865e-09
2.65382e-05
-4.0606e-08
2.56305e-05
-7.40712e-08
2.39579e-05
-9.70479e-08
2.16826e-05
-1.08749e-07
1.89993e-05
-1.0969e-07
1.61132e-05
-1.01563e-07
1.32185e-05
-8.69262e-08
1.04818e-05
-6.87664e-08
-5.01105e-08
5.41752e-07
8.53508e-08
1.44042e-06
2.37506e-07
2.9452e-06
3.53115e-07
5.14556e-06
4.28504e-07
7.97981e-06
4.64693e-07
1.12761e-05
4.64359e-07
1.47918e-05
4.31559e-07
1.82516e-05
3.71643e-07
2.13811e-05
2.91142e-07
2.39371e-05
1.97566e-07
2.57303e-05
9.90292e-08
2.6642e-05
3.69942e-09
2.66324e-05
-8.08853e-08
2.57401e-05
-1.48553e-07
2.40736e-05
-1.95164e-07
2.17958e-05
-2.19069e-07
1.9103e-05
-2.21249e-07
1.62022e-05
-2.0507e-07
1.32894e-05
-1.75666e-07
1.05316e-05
-1.39056e-07
-1.01393e-07
4.61872e-07
1.28629e-07
1.29711e-06
3.5794e-07
2.75633e-06
5.32245e-07
4.92738e-06
6.46106e-07
7.74769e-06
7.01085e-07
1.10442e-05
7.01174e-07
1.4573e-05
6.52413e-07
1.80567e-05
5.6276e-07
2.12189e-05
4.41951e-07
2.38133e-05
3.01204e-07
2.56477e-05
1.52673e-07
2.66003e-05
8.63559e-09
2.66282e-05
-1.19529e-07
2.57674e-05
-2.22446e-07
2.41248e-05
-2.93763e-07
2.18623e-05
-3.30856e-07
1.91761e-05
-3.35066e-07
1.62742e-05
-3.11354e-07
1.33539e-05
-2.67392e-07
1.05837e-05
-2.12235e-07
-1.55255e-07
3.68545e-07
1.72346e-07
1.12453e-06
4.79623e-07
2.52092e-06
7.13352e-07
4.6448e-06
8.66381e-07
7.43297e-06
9.4084e-07
1.0712e-05
9.42027e-07
1.42374e-05
8.77919e-07
1.77314e-05
7.59019e-07
2.09164e-05
5.98187e-07
2.35446e-05
4.1027e-07
2.54213e-05
2.114e-07
2.64218e-05
1.79373e-08
2.64996e-05
-1.54882e-07
2.56875e-05
-2.94414e-07
2.40889e-05
-3.91975e-07
2.1863e-05
-4.43814e-07
1.92043e-05
-4.51468e-07
1.632e-05
-4.21343e-07
1.34079e-05
-3.63538e-07
1.06379e-05
-2.90091e-07
-2.13625e-07
2.49151e-07
2.16603e-07
9.01684e-07
6.02861e-07
2.21449e-06
8.96951e-07
4.27385e-06
1.09006e-06
7.01585e-06
1.18493e-06
1.02667e-05
1.18816e-06
1.37817e-05
1.10959e-06
1.72826e-05
9.62201e-07
2.04913e-05
7.61859e-07
2.31582e-05
5.26928e-07
2.50863e-05
2.77422e-07
2.61474e-05
3.37216e-08
2.6291e-05
-1.85081e-07
2.55453e-05
-3.63009e-07
2.40093e-05
-4.88911e-07
2.18382e-05
-5.57717e-07
1.92236e-05
-5.70936e-07
1.6371e-05
-5.36201e-07
1.34778e-05
-4.65859e-07
1.07152e-05
-3.74827e-07
-2.78903e-07
1.02851e-07
2.61503e-07
6.27481e-07
7.27957e-07
1.83579e-06
1.08354e-06
3.81312e-06
1.31787e-06
6.49465e-06
1.43432e-06
9.70615e-06
1.44079e-06
1.3203e-05
1.34897e-06
1.67069e-05
1.17416e-06
1.99392e-05
9.35107e-07
2.2649e-05
6.53551e-07
2.4637e-05
3.53243e-07
2.57713e-05
5.84847e-08
2.59967e-05
-2.07811e-07
2.53359e-05
-4.26282e-07
2.38823e-05
-5.83172e-07
2.1786e-05
-6.71869e-07
1.92344e-05
-6.93578e-07
1.643e-05
-6.56867e-07
1.35691e-05
-5.76073e-07
1.08232e-05
-4.68812e-07
-3.53819e-07
-7.10895e-08
3.07151e-07
3.00862e-07
8.55212e-07
1.38364e-06
1.27362e-06
3.26126e-06
1.55049e-06
5.86769e-06
1.68994e-06
9.02819e-06
1.70116e-06
1.24983e-05
1.59761e-06
1.60002e-05
1.3968e-06
1.92549e-05
1.12022e-06
2.2011e-05
7.92746e-07
2.40664e-05
4.41709e-07
2.52857e-05
9.51799e-08
2.56086e-05
-2.20187e-07
2.50516e-05
-4.8163e-07
2.37013e-05
-6.72654e-07
2.17014e-05
-7.84871e-07
1.92336e-05
-8.18857e-07
1.64962e-05
-7.83753e-07
1.36832e-05
-6.95539e-07
1.09659e-05
-5.74253e-07
-4.41101e-07
-2.73441e-07
3.53651e-07
-7.92974e-08
9.84926e-07
8.56839e-07
1.46765e-06
2.617e-06
1.78859e-06
5.13336e-06
1.95269e-06
8.23057e-06
1.97047e-06
1.16645e-05
1.85707e-06
1.5158e-05
1.63212e-06
1.84328e-05
1.3196e-06
2.12367e-05
9.47357e-07
2.33658e-05
5.46029e-07
2.46808e-05
1.47263e-07
2.5116e-05
-2.18677e-07
2.46812e-05
-5.25659e-07
2.34554e-05
-7.54353e-07
2.15743e-05
-8.94358e-07
1.92125e-05
-9.45267e-07
1.65628e-05
-9.1636e-07
1.38154e-05
-8.24813e-07
1.11403e-05
-6.92699e-07
-5.42986e-07
-5.05058e-07
4.01115e-07
-5.14195e-07
1.11741e-06
2.54268e-07
1.66612e-06
1.87925e-06
2.0328e-06
4.29035e-06
2.22342e-06
7.3113e-06
2.24985e-06
1.06985e-05
2.12888e-06
1.41761e-05
1.8821e-06
1.74666e-05
1.53577e-06
2.03179e-05
1.12043e-06
2.25247e-05
6.69751e-07
2.39442e-05
2.18701e-07
2.4505e-05
-1.9905e-07
2.42097e-05
-5.54087e-07
2.31286e-05
-8.24196e-07
2.13885e-05
-9.96747e-07
1.91555e-05
-1.06998e-06
1.6615e-05
-1.05284e-06
1.39523e-05
-9.63136e-07
1.13347e-05
-8.2447e-07
-6.6063e-07
-7.66952e-07
4.49664e-07
-1.00513e-06
1.25297e-06
-4.25046e-07
1.86946e-06
1.04732e-06
2.2837e-06
3.33784e-06
2.5029e-06
6.26896e-06
2.54036e-06
9.59774e-06
2.4145e-06
1.30499e-05
2.14868e-06
1.63498e-05
1.77125e-06
1.92459e-05
1.31513e-06
2.15319e-05
8.16699e-07
2.30617e-05
3.1392e-07
2.37588e-05
-1.56391e-07
2.36177e-05
-5.61701e-07
2.26998e-05
-8.76923e-07
2.11217e-05
-1.08703e-06
1.90395e-05
-1.18856e-06
1.66298e-05
-1.18958e-06
1.40711e-05
-1.10793e-06
1.15272e-05
-9.68078e-07
-7.93517e-07
-1.06039e-06
4.99433e-07
-1.55356e-06
1.39196e-06
-1.1818e-06
2.07809e-06
1.21096e-07
2.54178e-06
2.27578e-06
2.79175e-06
5.10292e-06
2.8429e-06
8.36035e-06
2.7152e-06
1.1776e-05
2.43368e-06
1.50764e-05
2.0285e-06
1.80118e-05
1.53464e-06
2.03752e-05
9.90846e-07
2.2018e-05
4.37691e-07
2.28582e-05
-8.51973e-08
2.28829e-05
-5.42409e-07
2.21434e-05
-9.06079e-07
2.07456e-05
-1.15869e-06
1.88342e-05
-1.29474e-06
1.65756e-05
-1.32091e-06
1.41403e-05
-1.25438e-06
1.16866e-05
-1.11977e-06
-9.38989e-07
-1.38708e-06
5.50586e-07
-2.16123e-06
1.53476e-06
-2.01626e-06
2.29244e-06
-8.98628e-07
2.8074e-06
1.10529e-06
3.09043e-06
3.81384e-06
3.15812e-06
6.9858e-06
3.03199e-06
1.03518e-05
2.73862e-06
1.36415e-05
2.30972e-06
1.66073e-05
1.78199e-06
1.90426e-05
1.19614e-06
2.07968e-05
5.94935e-07
2.1783e-05
2.04298e-08
2.19804e-05
-4.89417e-07
2.14306e-05
-9.04145e-07
2.02275e-05
-1.20373e-06
1.85039e-05
-1.38041e-06
1.64148e-05
-1.43898e-06
1.41209e-05
-1.3953e-06
1.17742e-05
-1.27327e-06
-1.092e-06
-1.74948e-06
6.03333e-07
-2.8304e-06
1.68183e-06
-2.92807e-06
2.51287e-06
-2.0099e-06
3.08079e-06
-1.71072e-07
3.39915e-06
2.40402e-06
3.48637e-06
5.47528e-06
3.36555e-06
8.77657e-06
3.06466e-06
1.20416e-05
2.61675e-06
1.50257e-05
2.05986e-06
1.75237e-05
1.43625e-06
1.93832e-05
7.90463e-07
2.05131e-05
1.66497e-07
2.08853e-05
-3.95527e-07
2.05312e-05
-8.62835e-07
1.95329e-05
-1.213e-06
1.80103e-05
-1.43586e-06
1.61061e-05
-1.53397e-06
1.39705e-05
-1.52118e-06
1.17476e-05
-1.4199e-06
-1.24517e-06
-2.1511e-06
6.57973e-07
-3.56426e-06
1.83381e-06
-3.91591e-06
2.73979e-06
-3.20928e-06
3.36198e-06
-1.54891e-06
3.71784e-06
8.77792e-07
3.82763e-06
3.83212e-06
3.71607e-06
7.05188e-06
3.41245e-06
1.02756e-05
2.95088e-06
1.32627e-05
2.37039e-06
1.58098e-05
1.71436e-06
1.77641e-05
1.02865e-06
1.90305e-05
3.58736e-07
1.95741e-05
-2.53569e-07
1.94166e-05
-7.73563e-07
1.8628e-05
-1.17663e-06
1.73155e-05
-1.45024e-06
1.56089e-05
-1.59442e-06
1.3647e-05
-1.6206e-06
1.15654e-05
-1.54887e-06
-1.38914e-06
-2.5611e-06
-4.34612e-06
-4.98415e-06
2.97259e-06
-4.49717e-06
3.65352e-06
-3.02824e-06
4.04881e-06
-7.65373e-07
4.18437e-06
2.05447e-06
4.08626e-06
5.17371e-06
3.78507e-06
8.33681e-06
3.31573e-06
1.13083e-05
2.71784e-06
1.38876e-05
2.03553e-06
1.59219e-05
1.31553e-06
1.73133e-05
6.04315e-07
1.80204e-05
-5.51476e-08
1.80558e-05
-6.26666e-07
1.7478e-05
-1.08377e-06
1.63813e-05
-1.41169e-06
1.48828e-05
-1.60794e-06
1.31102e-05
-1.68116e-06
1.11893e-05
-1.64862e-06
-1.51406e-06
-6.34789e-06
-6.11564e-06
3.9562e-06
-4.79991e-06
4.39862e-06
-2.63786e-06
4.56304e-06
1.30361e-07
4.48301e-06
3.24278e-06
4.18992e-06
6.44169e-06
3.71925e-06
9.48912e-06
3.11069e-06
1.21805e-05
2.40872e-06
1.4358e-05
1.66063e-06
1.59176e-05
9.13372e-07
1.68107e-05
2.10577e-07
1.70413e-05
-4.10561e-07
1.66589e-05
-9.22095e-07
1.57488e-05
-1.30729e-06
1.44199e-05
-1.56123e-06
1.27931e-05
-1.68983e-06
1.09896e-05
-1.70727e-06
-1.61053e-06
-7.83436e-06
-6.75619e-06
4.76408e-06
-4.74738e-06
4.96765e-06
-2.09676e-06
4.90982e-06
9.38113e-07
4.6311e-06
4.10302e-06
4.16635e-06
7.16257e-06
3.55454e-06
9.91108e-06
2.84019e-06
1.21885e-05
2.07102e-06
1.38866e-05
1.29396e-06
1.49508e-05
5.52761e-07
1.53767e-05
-1.14849e-07
1.52044e-05
-6.79851e-07
1.4509e-05
-1.12388e-06
1.339e-05
-1.43995e-06
1.19609e-05
-1.63161e-06
1.03366e-05
-1.71053e-06
-1.66749e-06
-8.9146e-06
-7.12673e-06
5.39165e-06
-4.61624e-06
5.36871e-06
-1.68905e-06
5.11011e-06
1.41315e-06
4.65951e-06
4.46007e-06
4.05259e-06
7.24369e-06
3.33389e-06
9.60241e-06
2.55169e-06
1.14249e-05
1.75236e-06
1.26507e-05
9.79193e-07
1.32681e-05
2.70014e-07
1.33078e-05
-3.45501e-07
1.28356e-05
-8.47734e-07
1.19425e-05
-1.22802e-06
1.07358e-05
-1.48824e-06
9.32851e-06
-1.63929e-06
-1.6709e-06
-9.74786e-06
-7.44666e-06
5.85197e-06
-4.65579e-06
5.62966e-06
-1.64912e-06
5.20152e-06
1.35864e-06
4.60818e-06
4.15196e-06
3.89344e-06
6.56928e-06
3.10731e-06
8.49715e-06
2.2945e-06
9.87017e-06
1.49733e-06
1.06695e-05
7.53304e-07
1.09176e-05
9.24257e-08
1.06708e-05
-4.64688e-07
1.00122e-05
-9.07897e-07
9.04356e-06
-1.23759e-06
7.87959e-06
-1.46433e-06
-1.58072e-06
-1.05601e-05
-7.98542e-06
6.17996e-06
-5.10778e-06
5.79625e-06
-2.16523e-06
5.22357e-06
6.08135e-07
4.52056e-06
3.0566e-06
3.74072e-06
5.06597e-06
2.92453e-06
6.56617e-06
2.11277e-06
7.53213e-06
1.34248e-06
7.97814e-06
6.43708e-07
7.95151e-06
3.80076e-08
7.52577e-06
-4.62863e-07
6.79431e-06
-8.56877e-07
5.86561e-06
-1.15104e-06
-1.33252e-06
-1.16139e-05
-8.95717e-06
-6.13564e-06
5.89025e-06
-3.4119e-06
5.21635e-06
-9.65251e-07
4.45256e-06
1.09653e-06
3.64429e-06
2.69764e-06
2.82863e-06
3.80807e-06
2.04244e-06
4.43428e-06
1.31538e-06
4.6139e-06
6.70147e-07
4.40921e-06
1.20138e-07
3.9002e-06
-3.29668e-07
3.17659e-06
-6.81193e-07
-9.14664e-07
-1.05414e-05
-7.93167e-06
5.9654e-06
-5.5226e-06
5.24288e-06
-3.44237e-06
4.45288e-06
-1.77401e-06
3.64485e-06
-5.48848e-07
2.85471e-06
2.31727e-07
2.11065e-06
5.95451e-07
1.43725e-06
5.92216e-07
8.48951e-07
2.86893e-07
3.53137e-07
-2.50181e-07
-4.87416e-08
-3.37773e-07
-1.29227e-05
-1.06266e-05
-8.58391e-06
5.33905e-06
-6.88721e-06
4.56154e-06
-5.58448e-06
3.77787e-06
-4.68301e-06
3.02836e-06
-4.16425e-06
2.33981e-06
-3.99087e-06
1.72557e-06
-4.11226e-06
1.19473e-06
-4.47189e-06
7.51318e-07
4.1113e-07
-1.4332e-05
-1.26724e-05
-1.1345e-05
4.7993e-06
-1.0361e-05
4.06373e-06
-9.72183e-06
3.37258e-06
-9.40072e-06
2.74599e-06
-9.36111e-06
2.19227e-06
-9.55847e-06
1.71809e-06
1.3352e-06
-1.78573e-05
-1.68482e-05
5.19239e-06
-1.61295e-05
4.52571e-06
-1.56972e-05
3.90055e-06
-1.55284e-05
3.33786e-06
-1.55895e-05
2.84627e-06
2.43202e-06
-2.41528e-05
-2.34286e-05
-2.29473e-05
5.16841e-06
-2.26923e-05
4.62003e-06
-2.26543e-05
4.12325e-06
3.68979e-06
-3.11769e-05
-3.0917e-05
-3.08398e-05
5.52213e-06
5.0876e-06
-4.01632e-05
)
;

boundaryField
{
    inlet
    {
        type            calculated;
        value           uniform 0;
    }
    outlet
    {
        type            calculated;
        value           nonuniform 0();
    }
    flap
    {
        type            calculated;
        value           nonuniform 0();
    }
    upperWall
    {
        type            calculated;
        value           nonuniform 0();
    }
    lowerWall
    {
        type            calculated;
        value           uniform 0;
    }
    frontAndBack
    {
        type            empty;
        value           nonuniform 0();
    }
    procBoundary3to0
    {
        type            processor;
        value           nonuniform List<scalar> 
34
(
7.10036e-07
1.98423e-06
5.29463e-06
3.2005e-06
7.66076e-06
4.25145e-06
9.58905e-06
5.11937e-06
1.11382e-05
5.80448e-06
1.24758e-05
6.32253e-06
1.38185e-05
6.7001e-06
6.40476e-06
1.31133e-05
6.55866e-06
1.53007e-05
6.6965e-06
6.06723e-06
1.62524e-05
6.23097e-06
5.53609e-06
1.91331e-05
5.8626e-06
2.51061e-05
6.33516e-06
5.74809e-06
3.16151e-05
6.46541e-06
5.98399e-06
4.01889e-05
6.9484e-06
6.55244e-06
)
;
    }
    procBoundary3to1
    {
        type            processor;
        value           nonuniform List<scalar> 9(4.6986e-06 2.18386e-06 -1.07479e-06 -5.10718e-06 -1.00117e-05 -1.58837e-05 -2.28212e-05 -3.09114e-05 -4.0195e-05);
    }
    procBoundary3to4
    {
        type            processor;
        value           nonuniform List<scalar> 
19
(
7.95966e-06
7.99692e-06
8.03975e-06
8.08995e-06
8.16484e-06
8.27311e-06
8.41975e-06
8.60324e-06
8.81348e-06
9.03082e-06
9.22664e-06
9.36547e-06
9.40846e-06
9.31778e-06
9.05968e-06
8.9343e-06
8.43276e-06
7.64116e-06
6.46607e-06
)
;
    }
}


// ************************************************************************* //
