/*--------------------------------*- C++ -*----------------------------------*\
| =========                 |                                                 |
| \\      /  F ield         | OpenFOAM: The Open Source CFD Toolbox           |
|  \\    /   O peration     | Version:  dev                                   |
|   \\  /    A nd           | Web:      www.OpenFOAM.org                      |
|    \\/     M anipulation  |                                                 |
\*---------------------------------------------------------------------------*/
FoamFile
{
    version     2.0;
    format      ascii;
    class       volScalarField;
    location    "1.21";
    object      p;
}
// * * * * * * * * * * * * * * * * * * * * * * * * * * * * * * * * * * * * * //

dimensions      [0 2 -2 0 0 0 0];

internalField   nonuniform List<scalar> 
465
(
123.405
121.055
118.602
115.608
118.871
116.406
113.476
110.05
106.112
116.856
114.416
111.581
108.336
104.683
100.646
96.2729
115.006
112.618
109.897
106.838
103.455
99.7735
95.8406
91.7097
87.5455
113.314
110.995
108.396
105.522
102.388
99.0239
95.471
91.7769
88.0684
111.769
109.53
107.056
104.358
101.453
98.3696
95.143
91.814
88.4816
110.36
108.206
105.857
103.325
100.627
97.7893
94.8424
91.82
88.8009
109.076
107.01
104.781
102.402
99.8899
97.2676
94.5611
91.7981
89.042
107.907
105.927
103.812
101.573
99.2273
96.7937
94.2943
91.7518
89.2178
106.843
104.947
102.937
100.826
98.6282
96.3597
94.0391
91.6851
89.3399
107.59
105.875
104.058
102.146
100.151
98.0838
95.9598
93.7941
91.602
89.4182
106.65
104.995
103.253
101.43
99.5384
97.5876
95.5902
93.5589
91.5063
89.4614
105.795
104.196
102.522
100.782
98.9827
97.1347
95.2481
93.3337
91.4019
89.4767
105.017
103.471
101.862
100.195
98.4786
96.7213
94.9319
93.1192
91.2921
89.4706
104.313
102.817
101.265
99.6646
98.0221
96.3448
94.6404
92.9164
91.1802
89.4486
103.679
102.228
100.729
99.1876
97.6103
96.0034
94.3733
92.7264
91.0691
89.4155
103.112
101.701
100.25
98.761
97.2412
95.6959
94.1305
92.5507
90.9617
89.3755
102.608
101.235
99.8248
98.3827
96.9133
95.4215
93.9122
92.3903
90.8604
89.3323
102.167
100.827
99.4536
98.0519
96.6262
95.1806
93.7197
92.2475
90.7682
89.29
101.787
100.475
99.134
97.7671
96.3786
94.9725
93.5525
92.1224
90.6858
89.2495
101.47
100.182
98.868
97.5305
96.1734
94.8003
93.4147
92.0199
90.6193
89.2184
101.212
99.9443
98.652
97.3383
96.0065
94.6599
93.3017
91.935
90.5626
89.1891
101.022
99.77
98.4953
97.2006
95.889
94.5636
93.2275
91.8835
90.5344
89.1841
100.889
99.6479
98.3848
97.1025
95.8039
94.4921
93.1699
91.84
90.5049
89.1674
100.839
99.6063
98.3518
97.0785
95.7895
94.4876
93.1756
91.856
90.5314
89.2039
83.7538
84.713
82.4242
80.4734
85.4757
83.424
81.6748
86.081
84.2227
82.6385
86.5586
84.86
83.4123
86.932
85.3669
84.0338
87.2209
85.7685
84.5326
87.4413
86.0849
84.9321
87.6062
86.3323
85.251
87.7266
86.5239
85.5045
87.8116
86.6708
85.705
87.8689
86.7819
85.8628
87.9047
86.8648
85.9863
87.925
86.9261
86.0829
87.9339
86.9707
86.1581
87.9369
87.0047
86.2182
87.9348
87.029
86.2649
87.9369
87.0536
86.3078
87.9332
87.0683
86.3382
87.9515
87.1012
86.3818
87.9476
87.1085
86.3989
88.0009
87.1721
86.4667
78.0318
79.4836
76.7608
73.6022
70.3523
80.6523
78.1673
75.2538
72.2103
69.2661
66.4603
81.5974
79.3141
76.6136
73.7593
70.9585
68.2475
65.6122
63.0495
82.3638
80.2536
77.7388
75.0552
72.3926
69.7837
67.2149
64.6833
62.1927
82.9863
81.0259
78.6736
76.1433
73.6105
71.1046
68.6119
66.1284
63.6591
83.4922
81.662
79.4526
77.0597
74.647
72.2414
69.8284
67.4034
64.971
83.903
82.1865
80.1029
77.833
75.5306
73.2205
70.8876
68.5263
66.1406
84.2362
82.6189
80.6464
78.4865
76.2848
74.0644
71.8095
69.5136
67.1795
84.506
82.9754
81.1008
79.0392
76.9289
74.7915
72.611
70.3796
68.0994
84.7239
83.2688
81.4807
79.5066
77.4786
75.4175
73.3066
71.1373
68.9112
84.8995
83.5101
81.7979
79.9015
77.9474
75.9554
73.9089
71.7984
69.6248
85.041
83.7085
82.0627
80.2349
78.3466
76.4169
74.4291
72.3732
70.2491
85.1548
83.8711
82.2832
80.5155
78.6852
76.811
74.8761
72.8699
70.7916
85.2476
84.0054
82.4673
80.7519
78.9722
77.1467
75.2586
73.2971
71.2604
85.3222
84.1147
82.619
80.9482
79.2121
77.4287
75.5814
73.6588
71.6589
85.3872
84.208
82.7479
81.1148
79.4155
77.6678
75.8553
73.9662
71.998
85.4366
84.2798
82.848
81.2454
79.5759
77.8571
76.0728
74.2113
72.2695
85.4917
84.3513
82.9421
81.3636
79.7175
78.0216
76.2599
74.4205
72.4999
85.5206
84.3901
82.9951
81.4329
79.8027
78.122
76.3752
74.5504
72.6438
85.5868
84.4568
83.0715
81.5212
79.9018
78.2311
76.4942
74.6792
72.7821
)
;

boundaryField
{
    inlet
    {
        type            zeroGradient;
    }
    outlet
    {
        type            fixedValue;
        value           nonuniform 0();
    }
    flap
    {
        type            zeroGradient;
    }
    upperWall
    {
        type            zeroGradient;
    }
    lowerWall
    {
        type            zeroGradient;
    }
    frontAndBack
    {
        type            empty;
    }
    procBoundary1to0
    {
        type            processor;
        value           nonuniform List<scalar> 
18
(
109.744
108.619
108.619
109.196
108.213
107.314
106.494
105.75
105.078
104.476
103.941
103.472
103.067
102.728
102.452
102.247
102.105
102.048
)
;
    }
    procBoundary1to2
    {
        type            processor;
        value           nonuniform List<scalar> 
17
(
59.744
61.2067
62.5351
63.7343
64.8115
65.7745
66.6317
67.3906
68.0587
68.6424
69.1492
69.5819
69.9508
70.2469
70.4972
70.6542
70.8015
)
;
    }
    procBoundary1to3
    {
        type            processor;
        value           nonuniform List<scalar> 9(125.277 123.035 120.914 118.926 117.074 115.357 113.773 112.314 110.974);
    }
    procBoundary1to4
    {
        type            processor;
        value           nonuniform List<scalar> 
30
(
125.906
121.014
121.014
118.005
112.02
112.02
107.795
101.674
101.674
96.7857
91.6226
91.6226
86.9115
82.5597
81.1694
81.1694
78.9689
76.2145
75.0247
75.0247
71.5856
68.1183
67.2659
67.2659
64.3834
63.7769
63.7769
61.2103
60.5616
60.5616
)
;
    }
}


// ************************************************************************* //
