/*--------------------------------*- C++ -*----------------------------------*\
| =========                 |                                                 |
| \\      /  F ield         | OpenFOAM: The Open Source CFD Toolbox           |
|  \\    /   O peration     | Version:  dev                                   |
|   \\  /    A nd           | Web:      www.OpenFOAM.org                      |
|    \\/     M anipulation  |                                                 |
\*---------------------------------------------------------------------------*/
FoamFile
{
    version     2.0;
    format      ascii;
    class       volScalarField;
    location    "1.21";
    object      p;
}
// * * * * * * * * * * * * * * * * * * * * * * * * * * * * * * * * * * * * * //

dimensions      [0 2 -2 0 0 0 0];

internalField   nonuniform List<scalar> 
465
(
112.167
110.359
108.206
105.593
108.69
106.559
104.037
101.112
97.7937
107.156
105.074
102.666
99.9342
96.9002
93.6049
90.1155
105.754
103.738
101.453
98.911
96.1323
93.1539
90.0313
86.8271
83.6902
104.475
102.536
100.378
98.0124
95.4613
92.7569
89.9454
87.0787
84.2658
103.309
101.454
99.4187
97.2161
94.8665
92.3986
89.8501
87.2621
84.7177
102.249
100.478
98.5591
96.5043
94.3325
92.0683
89.742
87.3861
85.0663
101.284
99.5962
97.785
95.8633
93.8477
91.7589
89.6215
87.4611
85.3303
100.407
98.7968
97.085
95.2828
93.4044
91.4669
89.4906
87.4957
85.525
99.6065
98.0706
96.4497
94.7544
92.9963
91.1897
89.3516
87.498
85.6636
100.265
98.8769
97.41
95.8719
94.2713
92.6186
90.9259
89.2071
87.4746
85.7571
99.5476
98.2116
96.8086
95.345
93.8284
92.2681
90.6749
89.0592
87.4312
85.8146
98.8927
97.6052
96.2606
94.8637
93.4217
91.9431
90.4365
88.9104
87.3727
85.8437
98.296
97.0533
95.7611
94.4241
93.0487
91.642
90.211
88.7626
87.3035
85.8507
97.7535
96.5519
95.3071
94.0237
92.7073
91.3637
89.9987
88.6181
87.2274
85.841
97.2623
96.0981
94.8961
93.6604
92.396
91.1076
89.8002
88.4787
87.1477
85.8192
96.8203
95.69
94.5262
93.3328
92.1139
90.8738
89.6166
88.3466
87.0674
85.7894
96.4261
95.3259
94.196
93.0396
91.8606
90.6625
89.449
88.2234
86.9892
85.7548
96.0791
95.0056
93.9053
92.7812
91.6367
90.4749
89.2989
88.1117
86.9162
85.7196
95.7783
94.7279
93.6531
92.5567
91.4417
90.3108
89.1667
88.012
86.8494
85.6845
95.5257
94.495
93.4419
92.3689
91.2787
90.1738
89.0566
87.9294
86.7946
85.6569
95.319
94.3044
93.2689
92.2149
91.1446
90.0605
88.9648
87.8594
86.7464
85.6294
95.1663
94.1646
93.1434
92.1047
91.0508
89.9837
88.9055
87.8183
86.7239
85.6255
95.0585
94.0654
93.0533
92.0244
90.9806
89.9241
88.8566
87.78
86.696
85.6068
95.0204
94.0344
93.0301
92.0093
90.9742
89.9265
88.8681
87.8008
86.7264
85.6461
80.9824
81.8265
80.1767
78.7673
82.495
80.9871
79.7007
83.0232
81.6329
80.4485
83.4378
82.1459
81.0477
83.7599
82.5517
81.5272
84.0073
82.8709
81.9102
84.1947
83.1204
82.2152
84.3337
83.3137
82.457
84.4341
83.4616
82.6476
84.5037
83.5732
82.7969
84.5492
83.6559
82.9128
84.5762
83.7158
83.0021
84.5895
83.7585
83.0705
84.593
83.7879
83.1226
84.5913
83.8092
83.1635
84.5851
83.8231
83.1943
84.5833
83.8387
83.2241
84.5759
83.846
83.2437
84.5918
83.8743
83.2803
84.5838
83.8764
83.2909
84.6391
83.9412
83.3592
76.999
78.0887
76.109
73.8794
71.621
78.9683
77.1333
75.0228
72.8404
70.7374
68.7304
79.6802
77.9728
75.9737
73.8719
71.8129
69.8144
67.854
65.9152
80.257
78.6631
76.7673
74.7469
72.742
70.7707
68.8123
66.8533
64.8855
80.7248
79.2318
77.4315
75.4911
73.5457
71.6133
69.6746
67.7172
65.7359
81.1041
79.701
77.9887
76.1251
74.2415
72.3553
70.4478
68.5077
66.531
81.4111
80.0883
78.4566
76.6661
74.8442
73.0081
71.1392
69.2267
67.2675
81.6591
80.4078
78.8497
77.1278
75.3661
73.5814
71.7553
69.877
67.9439
81.8588
80.671
79.1797
77.5217
75.8175
74.0838
72.3023
70.462
68.5603
82.019
80.8873
79.4565
77.8574
76.2074
74.523
72.786
70.9851
69.1178
82.1471
81.0647
79.6882
78.1429
76.5432
74.9055
73.2117
71.4502
69.6182
82.2493
81.2098
79.8817
78.3851
76.8316
75.2373
73.5844
71.8609
70.0637
82.3305
81.328
80.0427
78.5898
77.0779
75.5234
73.9083
72.2205
70.4566
82.3961
81.425
80.1771
78.7628
77.2881
75.7693
74.1886
72.5337
70.8008
82.448
81.503
80.2872
78.9064
77.4643
75.9769
74.4268
72.8013
71.0963
82.4941
81.5703
80.3816
79.0297
77.6155
76.1552
74.6316
73.032
71.3517
82.5281
81.6204
80.4534
79.125
77.7338
76.2958
74.7941
73.2159
71.5562
82.5723
81.6761
80.5266
79.2177
77.8452
76.4254
74.9418
73.3814
71.7391
82.592
81.7013
80.5625
79.2664
77.9064
76.4985
75.0266
73.4777
71.8466
82.6576
81.7663
80.6361
79.351
78.0009
76.6021
75.1394
73.5996
71.9776
)
;

boundaryField
{
    inlet
    {
        type            zeroGradient;
    }
    outlet
    {
        type            fixedValue;
        value           nonuniform 0();
    }
    flap
    {
        type            zeroGradient;
    }
    upperWall
    {
        type            zeroGradient;
    }
    lowerWall
    {
        type            zeroGradient;
    }
    frontAndBack
    {
        type            empty;
    }
    procBoundary1to0
    {
        type            processor;
        value           nonuniform List<scalar> 
18
(
101.905
101.048
101.048
101.567
100.81
100.118
99.4844
98.9077
98.3848
97.9139
97.4935
97.1233
96.8021
96.5321
96.3111
96.1467
96.0313
95.9866
)
;
    }
    procBoundary1to2
    {
        type            processor;
        value           nonuniform List<scalar> 
17
(
62.8991
63.7237
64.5131
65.2585
65.9538
66.5958
67.1828
67.7145
68.1915
68.6151
68.9881
69.3098
69.5887
69.8129
70.0123
70.1306
70.2702
)
;
    }
    procBoundary1to3
    {
        type            processor;
        value           nonuniform List<scalar> 9(113.859 112.11 110.464 108.929 107.504 106.188 104.976 103.862 102.84);
    }
    procBoundary1to4
    {
        type            processor;
        value           nonuniform List<scalar> 
30
(
114.105
110.026
110.026
107.355
102.479
102.479
98.8564
94.1293
94.1293
90.1992
86.5053
86.5053
82.9845
79.9272
79.1569
79.1569
77.5977
75.6403
74.8539
74.8539
72.4987
70.1764
69.4916
69.4916
67.5037
66.7932
66.7932
64.9046
63.986
63.986
)
;
    }
}


// ************************************************************************* //
