/*--------------------------------*- C++ -*----------------------------------*\
| =========                 |                                                 |
| \\      /  F ield         | OpenFOAM: The Open Source CFD Toolbox           |
|  \\    /   O peration     | Version:  dev                                   |
|   \\  /    A nd           | Web:      www.OpenFOAM.org                      |
|    \\/     M anipulation  |                                                 |
\*---------------------------------------------------------------------------*/
FoamFile
{
    version     2.0;
    format      ascii;
    class       surfaceVectorField;
    location    "0.29";
    object      Uf;
}
// * * * * * * * * * * * * * * * * * * * * * * * * * * * * * * * * * * * * * //

dimensions      [0 1 -1 0 0 0 0];

internalField   nonuniform List<vector> 
879
(
(-8.84326 -1.31182e-20 0.260524)
(-8.62815 -1.2976e-20 0.578343)
(-9.49309 3.37333e-21 0.200114)
(-9.33121 0 0.484572)
(-10.0029 1.30405e-22 0.132486)
(-9.90607 1.37558e-20 0.372074)
(-10.3425 -3.36724e-21 0.0584792)
(-10.3214 -1.67883e-20 0.242539)
(-10.4837 -1.3594e-21 -0.0210592)
(-10.5469 -6.46833e-21 0.0986273)
(-10.4018 1.54517e-21 -0.105379)
(-10.5556 3.64303e-22 -0.05602)
(-10.0789 3.01101e-21 -0.191738)
(-10.3279 1.1939e-20 -0.215955)
(-9.51137 1.13445e-21 -0.274783)
(-9.85635 0 -0.37104)
(-8.71131 1.16034e-21 -0.349145)
(-9.14703 2.36864e-22 -0.51152)
(-7.704 -3.43573e-22 -0.410472)
(-8.2204 4.847e-21 -0.629761)
(-6.52579 1.88571e-23 -0.455491)
(-7.10918 -2.0897e-21 -0.720282)
(-5.22143 3.47499e-22 -0.482043)
(-5.8558 3.43638e-22 -0.779761)
(-3.84133 -1.56399e-22 -0.489309)
(-4.50853 0 -0.806803)
(-2.43737 -3.82848e-23 -0.478576)
(-3.11533 -3.46731e-23 -0.80265)
(-1.05296 1.09246e-22 -0.452326)
(-1.71842 5.37652e-23 -0.77406)
(0.282307 -1.99133e-23 -0.415445)
(-0.289032 2.34218e-23 -0.730215)
(1.55034 1.27038e-25 -0.376028)
(1.00353 -1.02323e-22 -0.678299)
(2.74415 1.29869e-25 -0.341572)
(2.22679 -9.00966e-24 -0.624706)
(3.88114 0 -0.32935)
(3.3935 -1.89756e-23 -0.582086)
(4.78634 -2.26891e-23 -0.594505)
(-9.07988 0 0.808294)
(-8.73145 1.38407e-20 1.14626)
(-9.71223 1.02216e-20 0.656285)
(-9.41881 -2.67703e-20 0.956026)
(-10.2002 -2.62408e-21 0.476924)
(-9.97626 1.03363e-20 0.728062)
(-10.5132 -2.00316e-20 0.273227)
(-10.3718 -2.04277e-20 0.465841)
(-10.6229 -4.77164e-21 0.0496653)
(-10.5746 -6.52174e-21 0.174973)
(-10.506 1.08172e-20 -0.186379)
(-10.5566 1.82165e-21 -0.136179)
(-10.1486 9.06269e-21 -0.422481)
(-10.3017 5.98788e-21 -0.455097)
(-9.55005 -9.36122e-22 -0.6441)
(-9.80535 2.72981e-21 -0.762563)
(-8.72315 3.97672e-21 -0.838809)
(-9.07521 -7.63602e-21 -1.04032)
(-7.69355 3.04066e-21 -0.997008)
(-8.13264 8.13988e-21 -1.27354)
(-6.49747 -1.76183e-21 -1.11222)
(-7.01035 -3.18029e-21 -1.45156)
(-5.17857 0 -1.18119)
(-5.74997 1.38774e-22 -1.56825)
(-3.78416 1.54708e-22 -1.20418)
(-4.39858 -4.00634e-22 -1.622)
(-2.36057 5.73512e-23 -1.18621)
(-3.003 5.52993e-22 -1.61654)
(-0.94901 -6.04978e-23 -1.13434)
(-1.6022 -1.01998e-22 -1.56331)
(0.406652 -6.65715e-23 -1.05964)
(-0.169195 -4.52992e-23 -1.47159)
(1.68864 -1.03743e-22 -0.978112)
(1.11541 -1.38047e-22 -1.36407)
(2.89991 -1.24616e-23 -0.905576)
(2.34167 -2.0592e-23 -1.25855)
(4.0545 -4.16229e-23 -0.873029)
(3.49609 2.47936e-23 -1.17319)
(4.87297 -5.43403e-24 -1.15713)
(-9.03561 -1.19084e-20 1.29959)
(-8.62395 8.05672e-20 1.70132)
(-9.65173 -2.70697e-20 1.03668)
(-9.29624 -2.67699e-20 1.41532)
(-10.1238 -6.9168e-21 0.728829)
(-9.83919 0 1.07216)
(-10.4203 -7.07411e-21 0.382097)
(-10.2195 7.18465e-21 0.677045)
(-10.5128 0 0.0056373)
(-10.4048 -7.11549e-21 0.23891)
(-10.3772 -2.91493e-21 -0.387289)
(-10.3654 0 -0.229489)
(-10.0008 -2.82654e-22 -0.777038)
(-10.0892 -2.94822e-21 -0.707246)
(-9.38565 -3.82735e-21 -1.14051)
(-9.57414 4.84949e-21 -1.1652)
(-8.54704 -3.20675e-21 -1.45728)
(-8.83059 -2.389e-20 -1.57682)
(-7.51214 1.92072e-21 -1.71166)
(-7.88171 7.71882e-21 -1.92079)
(-6.31774 -1.21361e-21 -1.89346)
(-6.76075 -1.43808e-21 -2.18191)
(-5.00711 -2.55795e-22 -1.99832)
(-5.50881 6.10501e-23 -2.35187)
(-3.62609 -1.95848e-23 -2.02827)
(-4.17199 -1.4053e-21 -2.42941)
(-2.21888 4.00964e-22 -1.99274)
(-2.79644 1.11723e-21 -2.42108)
(-0.825411 -8.74308e-23 -1.90228)
(-1.41674 -4.88322e-22 -2.34246)
(0.511354 -1.36302e-22 -1.77602)
(-0.0135176 4.14244e-23 -2.20263)
(1.77377 -5.26904e-23 -1.64196)
(1.2402 1.8273e-22 -2.03937)
(2.96388 1.95105e-23 -1.52238)
(2.44538 -3.75158e-23 -1.88132)
(4.0926 6.99416e-23 -1.45102)
(3.56295 1.56747e-23 -1.75106)
(4.9018 2.25111e-23 -1.69533)
(-8.85019 6.75615e-20 1.80976)
(-8.36818 1.24533e-19 2.24513)
(-9.45247 0 1.44357)
(-9.02308 -1.3014e-19 1.8642)
(-9.9102 1.40651e-20 1.01298)
(-9.54923 8.74942e-20 1.40547)
(-10.1901 7.35251e-21 0.525945)
(-9.91151 -2.2221e-20 0.875862)
(-10.2625 -7.19609e-21 -0.0046612)
(-10.0758 3.62263e-20 0.288294)
(-10.1041 0 -0.558016)
(-10.0099 -2.81646e-20 -0.338931)
(-9.70553 2.07293e-21 -1.10377)
(-9.70918 0 -0.974692)
(-9.07302 -1.53901e-20 -1.60947)
(-9.17493 7.70981e-21 -1.57956)
(-8.22483 -1.28045e-20 -2.04784)
(-8.42069 -1.99439e-20 -2.11973)
(-7.18946 4.46344e-21 -2.3981)
(-7.47134 8.3077e-21 -2.56855)
(-6.0039 -6.44792e-23 -2.64699)
(-6.36027 -3.82766e-21 -2.90701)
(-4.71047 -1.05931e-21 -2.78945)
(-5.12768 1.24789e-21 -3.12529)
(-3.35336 -3.03328e-22 -2.82922)
(-3.81816 -2.01421e-23 -3.22289)
(-1.97502 2.459e-22 -2.77907)
(-2.47662 1.93376e-23 -3.20915)
(-0.614606 -3.61274e-22 -2.65115)
(-1.12964 -1.81688e-23 -3.10314)
(0.688607 3.5569e-22 -2.47217)
(0.222879 1.77046e-23 -2.91533)
(1.9171 2.29105e-22 -2.28343)
(1.4334 2.49418e-22 -2.69653)
(3.07322 -3.65653e-23 -2.11413)
(2.60416 -5.73503e-23 -2.48631)
(4.16337 -2.84135e-23 -1.99754)
(3.67513 -2.80969e-23 -2.30918)
(4.9601 3.33339e-23 -2.20635)
(-8.50625 -6.90785e-20 2.29646)
(-7.94579 5.45786e-20 2.77223)
(-9.08772 -4.62735e-20 1.82403)
(-8.57511 -5.67529e-20 2.29751)
(-9.52454 5.29173e-20 1.26687)
(-9.0773 8.74905e-20 1.72314)
(-9.78166 5.9888e-21 0.636343)
(-9.41527 -5.50317e-21 1.05786)
(-9.82904 1.5911e-20 -0.0487889)
(-9.55307 3.56325e-20 0.319581)
(-9.64456 -2.8485e-20 -0.759227)
(-9.45551 -8.63248e-20 -0.466803)
(-9.22344 5.58759e-21 -1.45473)
(-9.12938 3.37742e-20 -1.25778)
(-8.57667 3.04754e-21 -2.09457)
(-8.57857 -6.98434e-21 -2.00367)
(-7.7255 1.12008e-21 -2.64571)
(-7.82036 2.40432e-21 -2.66488)
(-6.69917 -7.79316e-23 -3.08331)
(-6.88059 3.89412e-21 -3.21089)
(-5.53416 -2.55911e-21 -3.3918)
(-5.79205 -3.8276e-21 -3.61969)
(-4.27113 2.32772e-21 -3.56603)
(-4.59321 3.87766e-21 -3.88065)
(-2.95214 3.0139e-22 -3.61162)
(-3.32667 -1.51961e-21 -3.99414)
(-1.61781 -2.4406e-22 -3.54379)
(-2.03501 -3.9655e-23 -3.97209)
(-0.307876 3.74893e-22 -3.37682)
(-0.731564 -5.89253e-23 -3.8356)
(0.946295 -8.86933e-23 -3.14598)
(0.540866 3.22259e-22 -3.60121)
(2.12676 1.04893e-24 -2.90416)
(1.70204 -2.27014e-22 -3.32799)
(3.23654 -4.92037e-23 -2.6852)
(2.82398 -5.6853e-23 -3.06705)
(4.27662 3.29583e-23 -2.51989)
(3.83927 -8.38709e-24 -2.84167)
(5.05493 -3.50246e-25 -2.68694)
(-7.97855 6.81872e-20 2.76521)
(-7.33585 1.241e-20 3.27486)
(-8.53069 7.43398e-20 2.18861)
(-7.92975 8.95887e-20 2.7089)
(-8.93985 3.06134e-20 1.5056)
(-8.40014 -6.53187e-20 2.02024)
(-9.16888 2.39737e-20 0.731041)
(-8.70746 7.87695e-20 1.21921)
(-9.18717 -6.55583e-20 -0.109355)
(-8.81369 -3.99231e-20 0.329855)
(-8.97442 -2.47407e-20 -0.97563)
(-8.68009 -2.68665e-20 -0.614652)
(-8.5323 2.12109e-20 -1.8161)
(-8.3296 2.69223e-20 -1.55548)
(-7.87748 -7.68313e-21 -2.58264)
(-7.768 6.88077e-22 -2.4335)
(-7.03363 5.21432e-21 -3.23828)
(-7.01634 5.15562e-21 -3.20569)
(-6.02943 0 -3.75539)
(-6.09993 0 -3.83963)
(-4.8998 2.52205e-21 -4.11687)
(-5.04996 0 -4.31091)
(-3.68289 -1.02596e-23 -4.31796)
(-3.90159 5.70372e-21 -4.60853)
(-2.41821 -1.8773e-21 -4.36617)
(-2.69577 -2.51685e-21 -4.7337)
(-1.14289 1.87298e-22 -4.27623)
(-1.46942 6.75443e-22 -4.70131)
(0.0971929 -9.53011e-23 -4.06879)
(-0.227577 -1.10011e-21 -4.52901)
(1.28378 1.96122e-22 -3.78956)
(0.942937 4.38533e-22 -4.25013)
(2.40595 -2.85585e-22 -3.49685)
(2.04815 -5.00407e-22 -3.92827)
(3.45787 1.13024e-23 -3.22815)
(3.10714 5.05308e-23 -3.61752)
(4.43705 -4.12012e-23 -3.01153)
(4.05802 4.3078e-24 -3.34298)
(5.18992 -3.30922e-23 -3.13336)
(-7.24867 3.16504e-20 3.2068)
(-6.52411 1.63632e-20 3.744)
(-7.76197 -4.82625e-20 2.5284)
(-7.07175 1.00979e-22 3.09125)
(-8.1362 -2.0116e-20 1.72039)
(-7.50206 -6.53146e-20 2.29146)
(-8.33203 1.66177e-20 0.801717)
(-7.77218 4.67336e-20 1.35625)
(-8.31779 -1.29775e-21 -0.192778)
(-7.84148 -8.38811e-20 0.316722)
(-8.07595 2.49678e-20 -1.20995)
(-7.66821 9.64665e-20 -0.78305)
(-7.61706 6.83511e-21 -2.18625)
(-7.29698 -6.67552e-20 -1.86495)
(-6.96406 1.3476e-20 -3.06822)
(-6.73403 4.148e-20 -2.86257)
(-6.14166 0 -3.81747)
(-6.00337 1.10025e-20 -3.73311)
(-5.17613 0 -4.40493)
(-5.12748 -1.07348e-20 -4.44441)
(-4.09928 3.11708e-21 -4.81238)
(-4.13506 -4.20128e-21 -4.97001)
(-2.94605 3.18842e-21 -5.03538)
(-3.05533 4.9827e-23 -5.29842)
(-1.75372 0 -5.08237)
(-1.92908 0 -5.43101)
(-0.557994 -5.60229e-22 -4.96621)
(-0.780122 -1.89982e-21 -5.38504)
(0.598278 -5.72906e-22 -4.7181)
(0.363446 -5.66578e-22 -5.17556)
(1.70355 -2.42258e-22 -4.39559)
(1.4356 0 -4.85457)
(2.75547 -1.86037e-22 -4.05558)
(2.47023 1.72336e-22 -4.49095)
(3.73827 4.85989e-23 -3.7375)
(3.4534 6.23423e-23 -4.1318)
(4.64648 1.28377e-23 -3.46823)
(4.33133 -6.43237e-23 -3.80795)
(5.36672 -8.10048e-25 -3.54217)
(-6.30524 -1.53645e-20 3.61262)
(-5.50372 -6.3169e-20 4.16961)
(-6.76947 -1.63864e-20 2.83696)
(-5.99325 1.5206e-21 3.43686)
(-7.10127 -7.9512e-22 1.90687)
(-6.3748 0 2.53132)
(-7.25934 -5.19837e-20 0.84568)
(-6.60077 1.67316e-20 1.46574)
(-7.20965 1.24607e-20 -0.299945)
(-6.62631 -4.36482e-20 0.278168)
(-6.93914 5.55131e-21 -1.46001)
(-6.4117 9.02249e-20 -0.971652)
(-6.47074 -3.1726e-20 -2.5591)
(-6.02697 -8.45758e-20 -2.18125)
(-5.83318 3.93552e-20 -3.54196)
(-5.47638 3.54483e-20 -3.2819)
(-5.04982 -3.35466e-23 -4.37205)
(-4.78477 1.10022e-20 -4.2358)
(-4.14227 -1.50104e-20 -5.02031)
(-3.96913 -1.03926e-21 -5.01312)
(-3.13722 -7.3614e-21 -5.46721)
(-3.05479 -5.08801e-21 -5.58531)
(-2.06641 -3.18382e-21 -5.70728)
(-2.06286 -3.14818e-21 -5.9391)
(-0.963718 -1.8784e-21 -5.74712)
(-1.0341 0 -6.07593)
(0.128645 -1.92112e-21 -5.60353)
(0.0193171 -2.87518e-21 -6.00966)
(1.1864 0 -5.31927)
(1.03518 8.1332e-22 -5.767)
(2.20448 4.2278e-22 -4.95798)
(2.01689 -3.49652e-22 -5.41132)
(3.17382 4.32264e-22 -4.57421)
(2.96458 6.72041e-22 -5.00944)
(4.07649 -7.61707e-23 -4.20784)
(3.86028 3.5324e-22 -4.60413)
(4.90453 -1.207e-22 -3.88589)
(4.65695 1.22597e-22 -4.23186)
(5.58513 1.31857e-24 -3.91045)
(-5.14446 -4.7282e-20 3.97332)
(-4.27643 -2.20283e-19 4.54034)
(-5.54828 1.79252e-20 3.10725)
(-4.69438 7.09353e-20 3.73719)
(-5.82936 1.76841e-20 2.06008)
(-5.01744 -1.92338e-20 2.73375)
(-5.94531 2.65535e-20 0.859923)
(-5.19125 1.78949e-20 1.54463)
(-5.85791 3.34077e-20 -0.430993)
(-5.16129 7.89175e-21 0.212691)
(-5.56202 -3.37819e-22 -1.72124)
(-4.90961 3.38398e-20 -1.1781)
(-5.09551 -1.76599e-20 -2.92535)
(-4.52481 -2.84977e-22 -2.49665)
(-4.49093 7.37654e-21 -3.99189)
(-4.00565 -2.46337e-20 -3.6799)
(-3.76677 9.58406e-21 -4.88932)
(-3.37389 -1.3835e-20 -4.70081)
(-2.93814 8.48352e-21 -5.58903)
(-2.63972 1.42663e-20 -5.53259)
(-2.02431 -8.43631e-22 -6.06924)
(-1.82212 -1.1064e-20 -6.14491)
(-1.056 0 -6.32135)
(-0.938609 -3.319e-22 -6.51852)
(-0.0648468 -9.47965e-22 -6.34918)
(-0.0212289 2.85694e-21 -6.65564)
(0.909935 -1.52175e-22 -6.18007)
(0.899462 -2.05741e-22 -6.56705)
(1.85878 4.7667e-22 -5.86713)
(1.79582 -4.21138e-23 -6.29753)
(2.7814 -1.51019e-22 -5.47168)
(2.67835 1.00113e-21 -5.91583)
(3.65695 5.75873e-22 -5.04679)
(3.52561 -8.3066e-22 -5.47775)
(4.46922 5.34466e-22 -4.63412)
(4.32319 5.09717e-22 -5.02914)
(5.2089 2.439e-22 -4.26095)
(5.03074 -3.35901e-23 -4.61052)
(5.84312 3.34957e-27 -4.23579)
(-3.77103 -1.08495e-19 4.27851)
(-2.8546 -8.639e-20 4.8428)
(-4.10107 3.45418e-20 3.33128)
(-3.1848 6.2542e-20 3.98209)
(-4.32175 -1.94615e-20 2.1741)
(-3.43687 -2.39074e-22 2.89168)
(-4.39021 -3.64508e-22 0.841167)
(-3.5476 -4.09333e-20 1.58915)
(-4.26332 8.51243e-21 -0.584444)
(-3.43775 9.08913e-20 0.11917)
(-3.95197 3.29724e-20 -1.98545)
(-3.1698 -2.9994e-20 -1.39545)
(-3.50514 -8.66755e-21 -3.27187)
(-2.80779 2.41576e-20 -2.79906)
(-2.95516 -4.67257e-20 -4.4038)
(-2.34566 -2.43851e-20 -4.04229)
(-2.31114 -9.47501e-21 -5.3566)
(-1.79591 -2.66873e-20 -5.11462)
(-1.5815 -6.07167e-21 -6.09995)
(-1.16395 2.85636e-20 -5.99018)
(-0.777558 -1.08904e-20 -6.60689)
(-0.455539 -1.10394e-21 -6.63732)
(0.069814 2.48885e-21 -6.86406)
(0.295013 -4.33607e-21 -7.02562)
(0.924385 3.64321e-21 -6.88028)
(1.07757 -2.47019e-21 -7.15545)
(1.77229 -7.72073e-23 -6.69257)
(1.85907 3.10629e-21 -7.05186)
(2.61306 4.7066e-22 -6.35637)
(2.64205 -8.55419e-22 -6.7676)
(3.42779 3.40951e-22 -5.93078)
(3.41011 4.01769e-22 -6.36132)
(4.19858 -9.58624e-22 -5.46772)
(4.14549 -4.94343e-22 -5.88998)
(4.91113 -8.51508e-23 -5.0118)
(4.83537 1.9656e-22 -5.40194)
(5.55549 -2.44878e-22 -4.59038)
(5.44676 -1.09409e-22 -4.94035)
(6.13699 1.1561e-24 -4.51636)
(-2.20026 8.04856e-20 4.51281)
(-1.26652 -2.34199e-21 5.06041)
(-2.43891 2.90612e-20 3.49449)
(-1.4904 -6.25346e-24 4.1582)
(-2.58826 -2.06636e-20 2.23496)
(-1.65441 2.99529e-20 2.9971)
(-2.59809 4.94981e-20 0.780066)
(-1.67648 -4.09305e-20 1.59139)
(-2.43052 5.19622e-20 -0.759741)
(-1.45991 9.16501e-20 -0.00307289)
(-2.12724 -3.94393e-20 -2.24482)
(-1.21837 -3.89827e-20 -1.60734)
(-1.72773 7.64802e-21 -3.58808)
(-0.910366 -8.44446e-21 -3.06978)
(-1.25751 -4.87638e-21 -4.76583)
(-0.533684 2.46631e-20 -4.35243)
(-0.713714 1.14157e-20 -5.76189)
(-0.0868325 -1.28523e-20 -5.46427)
(-0.0957821 3.34244e-20 -6.54362)
(0.425668 7.35426e-21 -6.37786)
(0.575997 5.10797e-21 -7.06855)
(1.00073 1.50376e-20 -7.04884)
(1.27509 -9.37385e-21 -7.32469)
(1.61009 -3.8858e-21 -7.44398)
(1.99305 -3.01521e-21 -7.33557)
(2.24935 -5.34875e-21 -7.57534)
(2.71959 2.39379e-21 -7.13687)
(2.90316 3.2112e-21 -7.46723)
(3.43869 -9.49905e-22 -6.78201)
(3.5584 -2.5107e-21 -7.16959)
(4.13389 -3.89312e-22 -6.32917)
(4.20014 -9.60661e-22 -6.74139)
(4.7901 6.3557e-22 -5.8319)
(4.8138 7.1965e-22 -6.24089)
(5.395 1.7319e-22 -5.33698)
(5.38801 -8.10769e-23 -5.71838)
(5.9385 1.36908e-22 -4.8718)
(5.89744 -2.2746e-23 -5.21851)
(6.46149 -1.8202e-23 -4.75094)
(-0.467287 -8.30176e-20 4.68241)
(0.439357 -3.63348e-20 5.17467)
(-0.593667 3.59642e-22 3.61994)
(0.346779 -4.85164e-21 4.24976)
(-0.660551 1.05295e-20 2.28112)
(0.300445 2.49149e-22 3.04187)
(-0.598465 0 0.714733)
(0.406455 1.07144e-20 1.54185)
(-0.396263 0 -0.92599)
(0.689956 -4.24467e-20 -0.1497)
(-0.125389 -8.34536e-21 -2.48143)
(0.875699 4.04209e-20 -1.79691)
(0.194497 9.13693e-21 -3.86983)
(1.09702 -1.73664e-20 -3.28698)
(0.564252 1.71212e-20 -5.07506)
(1.36833 3.23731e-20 -4.59661)
(0.990105 -1.65967e-20 -6.09614)
(1.69853 -1.48309e-20 -5.73828)
(1.46927 -1.07871e-20 -6.89415)
(2.08449 -2.27636e-20 -6.6786)
(1.99345 5.98916e-21 -7.43334)
(2.51823 5.80531e-21 -7.36998)
(2.55741 1.20153e-22 -7.70247)
(2.99229 -3.70384e-21 -7.78144)
(3.1424 8.52192e-22 -7.71494)
(3.49448 3.02729e-21 -7.91741)
(3.73497 -1.60908e-21 -7.50846)
(4.01019 3.04814e-21 -7.80594)
(4.321 -2.53883e-21 -7.13756)
(4.52713 -2.70986e-22 -7.49712)
(4.88698 1.29579e-22 -6.66139)
(5.03339 -6.6729e-22 -7.05075)
(5.42068 2.80527e-23 -6.135)
(5.51774 -5.89739e-22 -6.52622)
(5.91183 -2.9834e-22 -5.60655)
(5.97049 -5.14351e-22 -5.97525)
(6.35067 -1.60008e-22 -5.10351)
(6.37386 2.54889e-23 -5.44307)
(6.8101 8.48857e-23 -4.93892)
(1.35214 4.14442e-20 4.74735)
(2.19569 3.6116e-20 5.17015)
(1.37158 -5.19559e-21 3.65795)
(2.26034 4.89944e-21 4.2313)
(1.44883 1.33242e-22 2.25181)
(2.36302 3.10817e-20 2.9804)
(1.60845 -3.11009e-20 0.610135)
(2.58614 -4.10409e-20 1.42218)
(1.79667 -2.46504e-23 -1.06591)
(2.86167 -9.76531e-22 -0.2862)
(1.98583 3.19518e-20 -2.62617)
(2.9977 8.58856e-22 -1.92999)
(2.18984 6.11386e-21 -4.02984)
(3.12862 -2.63429e-20 -3.42613)
(2.43834 4.0122e-22 -5.2705)
(3.2956 4e-20 -4.76114)
(2.73763 -2.09064e-20 -6.32689)
(3.5115 -8.67966e-21 -5.93109)
(3.08671 -6.04206e-21 -7.15666)
(3.77669 -1.81967e-20 -6.89778)
(3.47874 -3.79536e-21 -7.71931)
(4.08402 5.29375e-21 -7.61016)
(3.90396 -8.90235e-22 -7.99979)
(4.42378 -3.83927e-21 -8.03583)
(4.34752 5.23447e-21 -8.01392)
(4.7847 -4.31776e-21 -8.17668)
(4.79724 4.44572e-21 -7.80148)
(5.15563 3.50249e-21 -8.06289)
(5.24204 1.63527e-21 -7.4179)
(5.52755 3.8962e-21 -7.74562)
(5.67189 -1.38747e-21 -6.9233)
(5.8924 2.412e-22 -7.2856)
(6.07763 -1.11557e-21 -6.37387)
(6.24271 2.23129e-22 -6.74307)
(6.45116 -2.14515e-22 -5.81841)
(6.57082 5.83515e-23 -6.17055)
(6.78352 2.90058e-22 -5.28461)
(6.86608 -4.1222e-23 -5.61308)
(7.17533 2.82226e-23 -5.08045)
(3.18717 -3.20018e-23 4.67591)
(3.92697 0 5.03905)
(3.36762 4.08814e-20 3.5733)
(4.15413 -4.82278e-21 4.09131)
(3.57749 -7.66716e-21 2.16577)
(4.40304 1.21882e-21 2.82141)
(3.78504 -1.14203e-20 0.542449)
(4.69382 -1.17512e-20 1.26847)
(3.9434 8.59671e-22 -1.12931)
(4.94583 3.64723e-20 -0.40122)
(4.06309 -5.7115e-20 -2.70737)
(5.0468 -3.01784e-20 -2.01497)
(4.17605 7.26531e-21 -4.13605)
(5.10912 -1.7294e-20 -3.5039)
(4.31768 3.09163e-20 -5.40514)
(5.19032 1.6674e-20 -4.85535)
(4.50307 -6.30136e-21 -6.49006)
(5.31032 1.33602e-20 -6.05074)
(4.73164 -6.93306e-21 -7.34389)
(5.46997 -6.02277e-21 -7.04136)
(4.99469 5.35434e-21 -7.92356)
(5.65989 9.68429e-21 -7.77127)
(5.28133 -7.26779e-21 -8.21317)
(5.86922 -7.74097e-21 -8.2072)
(5.58016 -6.12331e-21 -8.22896)
(6.08906 -3.96945e-21 -8.3512)
(5.88252 2.94853e-21 -8.01237)
(6.31304 3.16758e-22 -8.23549)
(6.18166 2.5645e-21 -7.61991)
(6.53717 2.99536e-21 -7.91259)
(6.47171 1.83857e-21 -7.11248)
(6.75826 -5.70869e-22 -7.44395)
(6.74697 1.4014e-21 -6.54683)
(6.97303 1.71667e-21 -6.89007)
(7.00164 2.32744e-22 -5.97178)
(7.17622 4.1666e-24 -6.30361)
(7.22783 -3.05581e-22 -5.41521)
(7.36369 -2.11772e-24 -5.7287)
(7.54925 -7.97903e-23 -5.17639)
(4.95799 -4.69191e-21 4.48379)
(5.5734 1.69513e-20 4.78855)
(5.27838 -4.45147e-20 3.382)
(5.9416 -2.15425e-20 3.84576)
(5.58217 -2.33022e-21 1.98986)
(6.30111 -5.70208e-20 2.5935)
(5.82299 3.55678e-20 0.404562)
(6.63056 7.75243e-20 1.09133)
(5.9689 4.21673e-21 -1.21877)
(6.86197 4.07986e-21 -0.506928)
(6.03852 9.49017e-21 -2.76348)
(6.93317 -1.66981e-20 -2.06508)
(6.08143 -7.73969e-21 -4.18932)
(6.95047 -7.56136e-21 -3.53431)
(6.14145 -8.21157e-22 -5.47667)
(6.97663 6.81566e-21 -4.89581)
(6.23561 1.35958e-20 -6.58502)
(7.0305 9.61705e-22 -6.11174)
(6.36003 1.06111e-20 -7.45774)
(7.10732 6.31613e-21 -7.11956)
(6.50357 -3.35667e-21 -8.04903)
(7.19446 4.8009e-21 -7.8591)
(6.65625 -4.39077e-21 -8.34365)
(7.28192 -3.91883e-21 -8.2983)
(6.81137 2.44513e-21 -8.35962)
(7.36543 6.26702e-21 -8.44157)
(6.96588 3.29001e-22 -8.14016)
(7.44524 1.11713e-21 -8.32345)
(7.11867 -9.55685e-23 -7.74276)
(7.52384 1.37534e-21 -7.99765)
(7.26876 -7.36719e-22 -7.22852)
(7.60375 -1.50967e-21 -7.5257)
(7.41418 3.36725e-22 -6.65405)
(7.68612 7.65675e-22 -6.96758)
(7.55157 -2.31275e-22 -6.06739)
(7.76832 -4.18471e-22 -6.37527)
(7.67416 2.25677e-22 -5.49659)
(7.8518 2.28549e-22 -5.79126)
(7.92058 1.46182e-22 -5.22833)
(6.18988 1.61038e-20 4.96691)
(6.6209 9.856e-21 5.0586)
(6.63907 1.166e-21 4.18098)
(7.12173 1.74815e-20 4.42482)
(7.06452 -3.34167e-20 3.10417)
(7.59755 -1.5191e-21 3.50883)
(7.43023 1.99926e-20 1.76434)
(8.02983 -1.80997e-20 2.31007)
(7.68355 4.68681e-20 0.259758)
(8.37987 2.08332e-20 0.898823)
(7.80686 -1.73834e-20 -1.28478)
(8.5948 -1.20566e-20 -0.599442)
(7.84151 -3.45309e-20 -2.78524)
(8.65918 -1.06405e-20 -2.09161)
(7.84705 7.38771e-21 -4.20418)
(8.67331 -1.17965e-20 -3.53946)
(7.86259 8.88011e-21 -5.50464)
(8.68841 2.18746e-20 -4.90725)
(7.89588 -6.52214e-21 -6.62797)
(8.71023 -6.52444e-21 -6.13436)
(7.93656 3.30249e-22 -7.50902)
(8.72532 -4.73215e-21 -7.14612)
(7.97261 4.4679e-21 -8.10185)
(8.72009 -3.54267e-21 -7.88181)
(7.99809 6.92838e-21 -8.39425)
(8.68948 4.09176e-21 -8.31372)
(8.01335 5.04386e-21 -8.40716)
(8.63722 5.57461e-21 -8.45034)
(8.02283 2.19305e-21 -8.18552)
(8.57226 1.05835e-22 -8.32857)
(8.03212 4.40245e-24 -7.78709)
(8.50496 -1.69557e-21 -8.00258)
(8.04561 -2.08294e-23 -7.27233)
(8.44408 -9.22131e-22 -7.53296)
(8.06516 1.17262e-23 -6.69674)
(8.39537 -1.49372e-23 -6.97811)
(8.0897 3.93047e-23 -6.10686)
(8.35885 3.81361e-23 -6.38833)
(8.11377 1.49195e-22 -5.53059)
(8.34061 4.95161e-22 -5.80383)
(8.29759 -1.57972e-22 -5.23917)
(7.59603 1.10592e-20 4.54258)
(8.13745 1.57095e-20 3.78824)
(8.63026 1.50693e-20 2.76309)
(9.03689 1.66044e-20 3.11017)
(9.03182 -1.82532e-20 1.50694)
(9.50585 -3.43805e-21 1.99234)
(9.29754 -3.87797e-20 0.106353)
(9.86422 -1.7474e-20 0.69286)
(9.43132 -5.27001e-21 -1.34955)
(10.0924 -1.79694e-20 -0.701441)
(9.48478 1.27441e-20 -2.80258)
(10.203 1.66736e-20 -2.13211)
(9.50882 2.60011e-21 -4.20965)
(10.2704 -1.09003e-20 -3.55766)
(9.52429 6.77548e-21 -5.51158)
(10.3181 1.282e-20 -4.91869)
(9.52477 -4.73384e-21 -6.63291)
(10.3336 -1.11693e-20 -6.13494)
(9.49584 -8.55831e-21 -7.50435)
(10.2986 -7.05363e-21 -7.12673)
(9.42969 -3.95534e-21 -8.08379)
(10.2047 2.24851e-21 -7.83834)
(9.32898 2.67015e-21 -8.36422)
(10.0567 -3.15888e-21 -8.24906)
(9.20399 6.53223e-22 -8.36995)
(9.86942 6.97511e-22 -8.37195)
(9.06828 -3.82252e-21 -8.1469)
(9.66168 -4.62348e-21 -8.24542)
(8.93486 -2.66166e-21 -7.75198)
(9.45202 -3.16503e-21 -7.92269)
(8.81361 -9.35418e-22 -7.24373)
(9.25528 6.89497e-23 -7.46199)
(8.71005 8.49328e-24 -6.67545)
(9.08129 -7.2212e-22 -6.91883)
(8.62516 4.94389e-22 -6.09126)
(8.93239 3.658e-23 -6.3408)
(8.55462 1.9566e-22 -5.51862)
(8.81809 2.33128e-23 -5.76518)
(8.67159 -1.57535e-22 -5.2081)
(9.96338 -1.41072e-21 2.3772)
(10.3799 -1.97225e-21 1.22309)
(10.6696 3.85128e-21 -0.0714367)
(11.1748 5.63421e-21 0.463765)
(10.8582 3.94306e-21 -1.44872)
(11.4585 -3.42297e-21 -0.847452)
(10.987 -6.86478e-21 -2.85905)
(11.6606 -6.72243e-21 -2.22968)
(11.0757 -8.54778e-22 -4.24261)
(11.8107 -7.26364e-22 -3.62331)
(11.1175 -5.09265e-21 -5.52058)
(11.8998 6.2157e-21 -4.949)
(11.0951 -1.36432e-20 -6.60992)
(11.9037 -6.21525e-21 -6.11931)
(10.9975 3.99458e-21 -7.44516)
(11.8083 -2.26044e-21 -7.05977)
(10.8274 3.17139e-21 -7.99189)
(11.6168 2.77582e-21 -7.72433)
(10.5999 -5.25706e-21 -8.24911)
(11.3472 3.11314e-21 -8.10002)
(10.3366 -4.57476e-21 -8.24357)
(11.0254 -2.40508e-21 -8.2034)
(10.0603 -3.98442e-21 -8.02062)
(10.6799 -2.47223e-21 -8.07255)
(9.79077 -4.52026e-22 -7.63464)
(10.336 -1.93875e-22 -7.75792)
(9.54272 3.02799e-22 -7.14079)
(10.0133 1.07538e-21 -7.31374)
(9.32454 -7.12034e-22 -6.58891)
(9.72464 -6.39413e-22 -6.79132)
(9.13861 -4.44938e-22 -6.01993)
(9.47395 3.74653e-23 -6.23452)
(8.9814 -3.32187e-22 -5.46031)
(9.27271 -4.93587e-22 -5.67726)
(9.03399 1.64856e-22 -5.13672)
(11.979 -1.59713e-21 -0.310049)
(12.2606 -1.42925e-20 -1.62609)
(12.933 -1.41575e-20 -1.0697)
(12.4846 -5.13756e-22 -2.98633)
(13.2044 -5.31918e-21 -2.4023)
(12.632 6.44624e-21 -4.31616)
(13.3938 4.87825e-21 -3.73426)
(12.6784 5.2063e-21 -5.53044)
(13.4728 -1.34459e-21 -4.98305)
(12.6079 5.32865e-21 -6.55098)
(13.4193 7.00011e-21 -6.0686)
(12.4213 -3.56025e-21 -7.32232)
(13.2302 -3.29741e-21 -6.92874)
(12.1355 2.68684e-21 -7.81896)
(12.922 -3.38734e-21 -7.52822)
(11.7777 6.13602e-21 -8.04462)
(12.5239 3.61501e-21 -7.86025)
(11.3795 -2.69987e-22 -8.02651)
(12.0706 -2.98495e-21 -7.94264)
(10.9709 1.33503e-21 -7.80736)
(11.5968 2.34632e-21 -7.81105)
(10.5767 1.32942e-21 -7.43723)
(11.1321 1.00486e-21 -7.51131)
(10.2145 1.4472e-22 -6.96645)
(10.6986 3.25628e-22 -7.09224)
(9.89443 1.08876e-22 -6.44039)
(10.3106 2.48709e-22 -6.59989)
(9.61934 0 -5.89605)
(9.97235 -5.23449e-23 -6.07363)
(9.38596 0 -5.35848)
(9.69618 -8.45994e-23 -5.54372)
(9.37874 -1.93145e-22 -5.02789)
(13.881 -5.21917e-21 -1.85373)
(14.1161 2.92541e-23 -3.14448)
(14.234 -2.97687e-21 -4.38594)
(15.0189 -1.57665e-21 -3.82475)
(14.2095 2.93439e-22 -5.50119)
(15.001 -2.21445e-22 -4.96434)
(14.0366 -1.57649e-21 -6.42548)
(14.8284 1.93899e-21 -5.94124)
(13.7284 -3.14845e-21 -7.11562)
(14.5094 -5.63556e-22 -6.70712)
(13.3123 -2.60872e-21 -7.55391)
(14.0692 1.21088e-21 -7.23603)
(12.8237 -5.55178e-21 -7.74669)
(13.5429 -3.59454e-21 -7.52508)
(12.2996 -4.40376e-22 -7.71956)
(12.9691 -1.50523e-21 -7.59128)
(11.7733 2.02534e-21 -7.51088)
(12.3843 4.0541e-21 -7.46626)
(11.2716 -1.49419e-23 -7.16503)
(11.8189 4.08913e-22 -7.19005)
(10.8131 4.29352e-22 -6.7265)
(11.2954 -2.09123e-22 -6.80518)
(10.4079 1.00863e-22 -6.2354)
(10.8275 -5.10226e-22 -6.35183)
(10.0586 -1.38061e-22 -5.72451)
(10.4193 2.10869e-22 -5.86452)
(9.76179 -2.79866e-22 -5.21708)
(10.0825 3.67539e-22 -5.36984)
(9.70138 1.26266e-23 -4.88559)
(15.7882 1.20041e-21 -4.37452)
(15.6191 1.42783e-21 -5.37618)
(15.2999 3.01113e-21 -6.19722)
(16.0223 -1.6822e-21 -5.70061)
(14.8508 3.77887e-21 -6.80569)
(15.5634 2.83692e-21 -6.37662)
(14.3038 2.64849e-22 -7.18976)
(14.9974 5.09123e-21 -6.84278)
(13.6963 4.8016e-22 -7.35666)
(14.3603 2.32495e-22 -7.09833)
(13.0656 2.95966e-21 -7.32907)
(13.6898 1.21014e-21 -7.15835)
(12.4446 2.48423e-21 -7.14005)
(13.0209 2.50979e-22 -7.04972)
(11.8593 2.19736e-22 -6.82767)
(12.382 7.194e-22 -6.80626)
(11.327 -1.15254e-21 -6.43015)
(11.794 -4.64251e-22 -6.46401)
(10.857 -4.20846e-22 -5.98214)
(11.269 -6.69171e-22 -6.0572)
(10.4509 7.25245e-22 -5.51211)
(10.8102 1.10942e-22 -5.61558)
(10.1047 6.30249e-22 -5.04142)
(10.4283 1.14231e-22 -5.16222)
(9.99929 2.55468e-22 -4.71467)
(16.2866 -1.95879e-21 -5.85243)
(15.7122 4.09276e-21 -6.39113)
(16.3189 1.63878e-21 -5.94376)
(15.0588 5.10058e-21 -6.73359)
(15.6602 4.24376e-21 -6.36175)
(14.3619 9.56979e-22 -6.88669)
(14.948 1.01415e-21 -6.5971)
(13.6562 -1.51944e-21 -6.86958)
(14.217 0 -6.66237)
(12.9718 -1.55441e-21 -6.70982)
(13.4984 -2.75861e-21 -6.5796)
(12.3318 4.04341e-23 -6.43917)
(12.8178 2.20083e-21 -6.3766)
(11.7517 4.13548e-23 -6.08973)
(12.1932 1.62936e-21 -6.08319)
(11.2388 -1.60075e-22 -5.69088)
(11.6349 -5.57755e-22 -5.72803)
(10.794 -5.06509e-22 -5.26707)
(11.1452 -1.1224e-23 -5.3364)
(10.413 -4.0901e-22 -4.83769)
(10.7337 -5.47387e-22 -4.92822)
(10.2718 -1.08701e-22 -4.52046)
(16.2693 1.73147e-21 -5.89397)
(15.554 1.68846e-22 -6.20902)
(14.8103 7.82852e-23 -6.3603)
(15.3083 7.83241e-23 -6.04932)
(14.0689 -1.20393e-21 -6.36323)
(14.5577 0 -6.12878)
(13.3563 9.73801e-22 -6.24007)
(13.8259 -2.40162e-21 -6.07832)
(12.6924 3.83627e-21 -6.01667)
(13.135 4.01716e-22 -5.92016)
(12.0903 1.06156e-21 -5.71945)
(12.5003 2.41278e-21 -5.67848)
(11.556 -4.18094e-22 -5.37299)
(11.9307 -2.1682e-23 -5.37692)
(11.0899 -4.21501e-23 -4.99814)
(11.4279 1.1831e-23 -5.03676)
(10.6874 -4.41087e-22 -4.61243)
(11.0008 -5.28099e-23 -4.6752)
(10.5196 -1.49518e-22 -4.30836)
(15.0615 0 -5.80687)
(14.3227 -1.16988e-21 -5.83545)
(14.7407 -2.92698e-21 -5.58419)
(13.6145 -3.04472e-21 -5.75223)
(14.027 -4.56466e-23 -5.56819)
(12.9542 -1.09612e-21 -5.57775)
(13.3521 -1.89149e-21 -5.45523)
(12.3528 1.36165e-21 -5.33338)
(12.7293 7.04801e-22 -5.26454)
(11.8157 4.1452e-22 -5.03949)
(12.1663 -4.39958e-22 -5.01538)
(11.3428 3.24114e-24 -4.71374)
(11.6648 3.23319e-22 -4.72555)
(10.9307 1.48072e-22 -4.37189)
(11.2335 4.13522e-22 -4.40987)
(10.7445 8.92734e-24 -4.0834)
(14.4514 -1.84798e-21 -5.30937)
(13.7727 1.17473e-21 -5.26529)
(13.1366 -1.07428e-22 -5.13767)
(13.492 -1.77037e-21 -4.99658)
(12.553 -1.10514e-21 -4.94359)
(12.8962 -1.19062e-21 -4.85315)
(12.0268 -5.62545e-22 -4.69974)
(12.3525 4.08166e-23 -4.65271)
(11.5587 7.6805e-22 -4.42105)
(11.863 1.58284e-22 -4.41004)
(11.146 2.78174e-22 -4.12156)
(11.4362 2.05226e-22 -4.13784)
(10.9483 2.45876e-22 -3.84994)
(13.2595 -2.89348e-21 -4.70767)
(12.7045 -4.51255e-23 -4.55907)
(13.0162 -1.19811e-22 -4.45253)
(12.1985 7.66739e-22 -4.36091)
(12.4995 1.18633e-22 -4.2956)
(11.743 -3.98994e-22 -4.12573)
(12.0288 -3.30334e-22 -4.09566)
(11.3367 -1.16168e-23 -3.86593)
(11.6127 -1.34942e-22 -3.86352)
(11.1327 1.53151e-22 -3.61166)
(12.8187 3.80413e-23 -4.18568)
(12.3383 -9.94517e-22 -4.02795)
(11.9006 -6.44471e-23 -3.83199)
(12.1675 4.74196e-22 -3.78628)
(11.5053 -3.30575e-22 -3.60858)
(11.7662 -2.78998e-22 -3.59031)
(11.2992 -8.49992e-23 -3.37155)
(12.0348 2.55412e-22 -3.54285)
(11.654 -2.1055e-22 -3.3523)
(11.8992 -2.18213e-22 -3.32078)
(11.4489 1.50435e-22 -3.1321)
(11.7846 1.41363e-22 -3.09935)
(11.5828 1.44709e-22 -2.89534)
)
;

boundaryField
{
    inlet
    {
        type            calculated;
        value           nonuniform 0();
    }
    outlet
    {
        type            calculated;
        value           nonuniform List<vector> 
30
(
(5.06873 0 -0.332547)
(5.1784 -4.53782e-23 -0.872833)
(5.16769 4.50223e-23 -1.43349)
(5.18415 0 -1.95775)
(5.2366 6.66675e-23 -2.45494)
(5.32876 -6.61849e-23 -2.91939)
(5.46309 0 -3.34782)
(5.64018 -1.62008e-24 -3.73702)
(5.85881 4.25717e-24 -4.08435)
(6.116 -4.25042e-24 -4.38768)
(6.40718 4.22633e-24 -4.64549)
(6.72634 -4.063e-23 -4.85682)
(7.06645 2.12504e-22 -5.02142)
(7.41972 -1.59581e-22 -5.13982)
(7.77823 0 -5.21352)
(8.13497 2.97963e-22 -5.24443)
(8.49663 -6.26833e-22 -5.23397)
(8.85088 3.25816e-22 -5.18186)
(9.19147 0 -5.09061)
(9.51336 -3.90967e-22 -4.96365)
(9.81321 4.24252e-22 -4.80549)
(10.0895 8.25958e-23 -4.62135)
(10.3425 -3.04633e-22 -4.41673)
(10.5734 4.56797e-24 -4.19692)
(10.7839 8.58548e-24 -3.96666)
(10.9757 4.84459e-22 -3.72996)
(11.15 -1.86199e-22 -3.49011)
(11.308 1.52371e-23 -3.2498)
(11.4505 2.85986e-22 -3.01127)
(11.5782 0 -2.77636)
)
;
    }
    flap
    {
        type            calculated;
        value           nonuniform 0();
    }
    upperWall
    {
        type            calculated;
        value           nonuniform 0();
    }
    lowerWall
    {
        type            calculated;
        value           uniform (0 0 0);
    }
    frontAndBack
    {
        type            empty;
        value           nonuniform 0();
    }
    procBoundary5to2
    {
        type            processor;
        value           nonuniform List<vector> 
34
(
(7.92557 1.44908e-20 4.5779)
(8.49901 0 3.9768)
(9.4439 5.03437e-22 3.3267)
(10.3437 5.14786e-22 2.68057)