/*--------------------------------*- C++ -*----------------------------------*\
| =========                 |                                                 |
| \\      /  F ield         | OpenFOAM: The Open Source CFD Toolbox           |
|  \\    /   O peration     | Version:  dev                                   |
|   \\  /    A nd           | Web:      www.OpenFOAM.org                      |
|    \\/     M anipulation  |                                                 |
\*---------------------------------------------------------------------------*/
FoamFile
{
    version     2.0;
    format      ascii;
    class       surfaceVectorField;
    location    "1.77";
    object      Uf;
}
// * * * * * * * * * * * * * * * * * * * * * * * * * * * * * * * * * * * * * //

dimensions      [0 1 -1 0 0 0 0];

internalField   nonuniform List<vector> 
5457
(
(9.91414 -7.61658e-23 0.0210096)
(9.9691 -3.5071e-20 0.0356049)
(9.82454 1.80501e-20 0.0259582)
(9.93372 1.73701e-21 0.0383635)
(9.72774 1.91123e-20 0.0297168)
(9.87726 1.20204e-21 0.0430932)
(9.62122 1.24453e-21 0.0335537)
(9.80472 -3.7989e-21 0.0492971)
(9.50507 1.14377e-20 0.0374415)
(9.72114 0 0.0558506)
(9.37958 5.021e-21 0.0414263)
(9.62769 -2.22995e-20 0.0626584)
(9.24456 -1.20074e-20 0.0456438)
(9.52392 5.8739e-21 0.0699598)
(9.09951 -1.26336e-20 0.0502135)
(9.40922 -6.1448e-21 0.0779581)
(8.94376 -1.33003e-20 0.0552366)
(9.28302 -1.29168e-20 0.0868004)
(8.77648 -1.39799e-20 0.0608192)
(9.14467 -4.27786e-23 0.0966421)
(8.59666 -7.03089e-21 0.0670829)
(8.99334 2.86013e-20 0.107668)
(8.40312 0 0.0741693)
(8.82799 -2.22166e-20 0.120093)
(8.19446 -1.06336e-21 0.0822403)
(8.64741 6.34441e-20 0.134171)
(7.96909 -1.02622e-21 0.091478)
(8.45015 -6.56756e-20 0.150187)
(7.7252 0 0.102094)
(8.23457 -7.04159e-20 0.168461)
(7.46076 0 0.114342)
(7.99877 7.28177e-20 0.189366)
(7.17348 1.05403e-20 0.128521)
(7.74065 0 0.21334)
(6.86079 5.52781e-20 0.144988)
(7.45781 2.05832e-20 0.240881)
(6.51985 -2.97113e-21 0.164155)
(7.14754 4.43394e-20 0.272556)
(6.14754 5.55554e-20 0.18649)
(6.80686 1.3839e-19 0.308986)
(5.74052 1.75116e-19 0.212517)
(6.43243 1.03448e-19 0.350792)
(5.29529 4.76061e-20 0.242853)
(6.02063 5.0623e-19 0.398602)
(4.80822 -1.44369e-19 0.278227)
(5.56761 1.66442e-19 0.453047)
(4.2756 5.35778e-21 0.319516)
(5.06919 -5.58425e-19 0.514681)
(3.69362 1.80988e-19 0.367803)
(4.52075 2.27817e-21 0.583905)
(3.05842 -3.29506e-21 0.424465)
(3.91716 -4.88693e-19 0.660828)
(2.36566 -3.33775e-19 0.491275)
(3.25194 4.94591e-19 0.744799)
(1.61045 -1.22639e-20 0.570394)
(2.5158 -2.67577e-19 0.83272)
(0.782382 1.06311e-19 0.633102)
(1.67406 1.35771e-19 0.915746)
(0.917176 -5.81113e-20 0.893868)
(10.007 -3.25674e-20 0.0407749)
(10.0007 7.09999e-20 0.0326591)
(9.98523 -1.5076e-20 0.0515264)
(9.99491 2.31824e-21 0.0476151)
(9.94979 -2.17503e-20 0.0602924)
(9.97127 -1.69625e-20 0.0587852)
(9.90215 -4.96414e-21 0.0697256)
(9.93171 -3.54462e-20 0.0712492)
(9.8424 -3.41781e-20 0.0797113)
(9.88009 7.00227e-23 0.0844851)
(9.77073 -2.08841e-20 0.0902978)
(9.81769 -2.22186e-20 0.0983452)
(9.68705 1.14862e-20 0.101771)
(9.74429 -1.15478e-20 0.113216)
(9.59102 -6.55808e-21 0.114397)
(9.65943 -2.44732e-20 0.129474)
(9.4821 5.83189e-22 0.128412)
(9.56263 3.20907e-20 0.147413)
(9.35958 4.30749e-20 0.144071)
(9.45336 6.77114e-21 0.167346)
(9.22257 1.24574e-20 0.161674)
(9.33089 9.28202e-20 0.18964)
(9.07 4.27716e-20 0.181572)
(9.19432 -2.87803e-20 0.214721)
(8.90059 -3.54558e-21 0.204169)
(9.04257 -6.41667e-21 0.243098)
(8.71284 -1.3515e-19 0.229923)
(8.87438 -6.46343e-20 0.275349)
(8.50503 4.97335e-21 0.259358)
(8.68825 -7.04196e-20 0.312125)
(8.27516 7.15661e-20 0.293089)
(8.48243 2.24534e-19 0.354191)
(8.021 1.03384e-20 0.33183)
(8.25499 -1.52007e-19 0.402449)
(7.73998 9.99673e-21 0.376397)
(8.00371 9.96666e-21 0.457929)
(7.42922 1.87169e-19 0.427718)
(7.72603 -1.72194e-19 0.521831)
(7.08543 1.85767e-19 0.48678)
(7.41912 4.06255e-19 0.595514)
(6.70498 4.41197e-19 0.554599)
(7.07963 3.39397e-19 0.680396)
(6.28382 6.21081e-19 0.632249)
(6.70367 1.12551e-18 0.777981)
(5.81746 -2.55733e-19 0.720848)
(6.28695 3.59534e-19 0.889911)
(5.30076 -5.5488e-19 0.821529)
(5.82442 -9.93501e-20 1.01789)
(4.72755 -6.74345e-19 0.935504)
(5.30978 -9.02009e-19 1.16369)
(4.08995 1.33067e-20 1.06416)
(4.73485 4.01441e-19 1.32924)
(3.37611 5.61939e-19 1.20978)
(4.08806 -6.43856e-19 1.51705)
(2.56365 -1.26464e-19 1.38032)
(3.35118 2.23932e-18 1.73171)
(1.59698 2.23693e-20 1.62804)
(2.4795 -2.20749e-18 1.98919)
(1.52568 -1.27113e-19 2.37051)
(10.0001 1.04599e-19 0.0420409)
(9.99856 -3.51175e-20 0.0326335)
(9.98227 0 0.0581557)
(9.99022 0 0.0552936)
(9.95059 -3.10317e-20 0.0726359)
(9.9677 -9.68058e-21 0.0729518)
(9.90789 -2.96583e-20 0.0881539)
(9.93112 3.04155e-20 0.0910928)
(9.85452 1.15969e-20 0.104732)
(9.88316 -3.17848e-20 0.11025)
(9.79049 -1.26736e-20 0.122472)
(9.82499 5.5708e-20 0.130435)
(9.71569 -4.77644e-20 0.141754)
(9.75664 -6.97892e-20 0.152107)
(9.62986 1.52532e-20 0.16296)
(9.67778 -3.35701e-23 0.175757)
(9.53255 3.7809e-20 0.186458)
(9.58799 1.29039e-20 0.201808)
(9.42317 5.81034e-20 0.212658)
(9.48683 0 0.230717)
(9.30096 4.92805e-20 0.242043)
(9.37373 -2.78016e-20 0.26301)
(9.16502 -7.76286e-20 0.275182)
(9.24794 5.21822e-20 0.299295)
(9.01426 -6.86366e-20 0.312744)
(9.10858 -1.87369e-19 0.340296)
(8.84739 0 0.355489)
(8.95465 1.29522e-19 0.386858)
(8.66293 1.54331e-19 0.404288)
(8.78489 0 0.439927)
(8.45916 -5.56605e-21 0.460173)
(8.59784 2.97393e-19 0.500614)
(8.23415 -1.4957e-19 0.524345)
(8.39195 -5.99486e-19 0.570236)
(7.98568 -1.75085e-19 0.59819)
(8.16543 2.76187e-19 0.65031)
(7.71121 5.62319e-20 0.683332)
(7.91612 -1.72134e-19 0.742631)
(7.40775 5.5864e-19 0.781579)
(7.64179 2.21531e-19 0.849346)
(7.07173 1.03564e-18 0.894854)
(7.33963 3.81261e-19 0.972827)
(6.69899 8.53549e-19 1.02527)
(7.00598 7.14886e-21 1.11563)
(6.28462 5.10215e-19 1.17518)
(6.63675 1.68855e-18 1.28074)
(5.82244 -4.52486e-19 1.34722)
(6.22686 -1.24759e-18 1.47167)
(5.30413 1.79878e-19 1.54465)
(5.76949 9.77448e-19 1.69266)
(4.71782 -2.51801e-19 1.77226)
(5.25511 9.6329e-19 1.94937)
(4.04499 1.02347e-18 2.03909)
(4.67004 -3.97558e-18 2.25065)
(3.25097 2.81504e-19 2.35985)
(3.98986 3.83719e-18 2.61512)
(2.31498 -2.25007e-18 2.84011)
(3.22168 1.19091e-20 3.05015)
(2.097 -5.34858e-21 3.8505)
(9.9954 -1.39126e-19 0.0463926)
(9.99724 -4.92966e-21 0.0345561)
(9.97766 -9.8957e-21 0.0694877)
(9.98668 1.38119e-20 0.062943)
(9.94665 5.25813e-20 0.090645)
(9.96369 -1.05957e-19 0.0868389)
(9.9048 2.69775e-20 0.112375)
(9.92794 1.51476e-19 0.110573)
(9.85272 1.4079e-20 0.135192)
(9.88118 -3.18655e-20 0.135429)
(9.79043 -3.94153e-21 0.159436)
(9.8244 8.86226e-20 0.161706)
(9.71785 -2.07264e-20 0.185621)
(9.75777 -4.64508e-20 0.189909)
(9.63482 -2.13678e-21 0.214259)
(9.68114 -2.44196e-20 0.220607)
(9.54103 -2.51421e-20 0.245864)
(9.59415 -2.61891e-20 0.254336)
(9.436 -8.64333e-20 0.281003)
(9.49643 1.06811e-19 0.291684)
(9.31915 -2.34903e-20 0.320325)
(9.38753 -8.45712e-20 0.333315)
(9.18977 -6.18902e-20 0.364584)
(9.26685 1.7709e-19 0.379977)
(9.04703 1.64795e-20 0.41468)
(9.13367 -2.39901e-19 0.43256)
(8.88993 1.27309e-19 0.47165)
(8.98729 2.60035e-19 0.492138)
(8.71728 1.48149e-19 0.536665)
(8.82679 -2.7179e-19 0.559933)
(8.52777 -3.11793e-19 0.611099)
(8.65095 2.84888e-19 0.637312)
(8.31993 -1.59265e-19 0.696576)
(8.45864 -4.56913e-19 0.7259)
(8.09209 2.71894e-19 0.794996)
(8.2486 3.15594e-19 0.82764)
(7.84237 -4.09559e-22 0.908634)
(8.01918 -2.92267e-19 0.944796)
(7.56859 4.67977e-20 1.04019)
(7.76878 -5.06306e-20 1.08016)
(7.26787 -6.50769e-19 1.19265)
(7.49564 4.95463e-19 1.2371)
(6.93665 8.61581e-19 1.36941)
(7.197 -7.80356e-19 1.41929)
(6.57057 -9.6614e-20 1.57455)
(6.86954 1.51996e-18 1.63112)
(6.16387 1.96264e-19 1.81315)
(6.50922 -7.57148e-19 1.87813)
(5.7084 1.76754e-18 2.09176)
(6.11046 9.1277e-19 2.16748)
(5.19225 -2.74632e-18 2.41991)
(5.6653 2.27838e-19 2.50893)
(4.59852 -1.20599e-18 2.81547)
(5.16387 -4.28396e-18 2.91652)
(3.88764 3.64075e-18 3.29161)
(4.57225 3.33456e-18 3.42498)
(3.13051 1.73047e-18 3.97144)
(4.02221 2.01801e-18 3.96542)
(2.75143 2.37076e-19 5.13537)
(9.99292 1.48493e-19 0.051664)
(9.99649 6.21234e-20 0.0375069)
(9.97455 -8.49507e-20 0.0804822)
(9.98465 1.84001e-20 0.0708642)
(9.94401 -1.55232e-21 0.107238)
(9.96129 -3.86494e-20 0.100526)
(9.90291 8.88348e-20 0.134346)
(9.9262 -2.98861e-20 0.129718)
(9.8519 4.51336e-20 0.162777)
(9.88061 -1.05127e-19 0.160118)
(9.791 4.3474e-20 0.193075)
(9.82519 4.43739e-20 0.192303)
(9.72021 -4.97058e-20 0.225824)
(9.76026 3.49537e-22 0.226822)
(9.6394 -4.84745e-20 0.261629)
(9.68578 -4.88799e-20 0.26431)
(9.54832 1.08306e-19 0.301108)
(9.60139 5.03578e-20 0.30542)
(9.44658 1.05195e-19 0.344949)
(9.50678 -5.26161e-20 0.35085)
(9.33367 1.208e-19 0.39392)
(9.4016 8.29672e-20 0.401381)
(9.20903 -8.35355e-21 0.448902)
(9.28537 8.93468e-20 0.457889)
(9.07202 1.24653e-20 0.51095)
(9.15746 -1.22428e-19 0.521368)
(8.92197 -1.48256e-19 0.581326)
(9.01737 -1.27567e-19 0.593045)
(8.75798 -1.25727e-19 0.661457)
(8.86453 -5.47453e-21 0.6744)
(8.57904 1.27399e-19 0.752959)
(8.6981 1.37023e-19 0.767035)
(8.3841 3.06761e-20 0.85777)
(8.51717 -3.07077e-19 0.872804)
(8.172 -2.58e-19 0.978189)
(8.3209 3.26383e-19 0.993985)
(7.94142 -3.39003e-19 1.11697)
(8.10827 -3.73061e-19 1.13324)
(7.691 4.05117e-19 1.27751)
(7.8781 -9.21343e-20 1.29378)
(7.41904 3.47883e-19 1.46381)
(7.6296 3.59345e-19 1.47969)
(7.1231 -9.27705e-20 1.68055)
(7.36139 -8.98022e-22 1.6958)
(6.80009 8.32397e-19 1.93342)
(7.07141 0 1.94777)
(6.44588 -1.86067e-20 2.22987)
(6.75737 9.19991e-19 2.24292)
(6.0548 -6.21465e-19 2.57977)
(6.41623 -8.34329e-19 2.59084)
(5.61861 -1.30621e-18 2.99635)
(6.04346 2.28373e-21 3.00462)
(5.13004 1.53464e-19 3.50333)
(5.63876 -1.61515e-18 3.4991)
(4.54116 1.76523e-18 4.10204)
(5.14569 1.7083e-18 4.1304)
(4.01699 0 4.89877)
(4.88041 -3.04273e-18 4.68782)
(3.48294 3.43357e-18 6.16053)
(9.99156 -6.88062e-20 0.0573843)
(9.99597 -7.50016e-20 0.0410206)
(9.97277 6.34102e-20 0.0913786)
(9.98359 1.59731e-19 0.0789708)
(9.94282 -6.68031e-20 0.12353)
(9.96025 -2.83087e-20 0.113958)
(9.90268 -2.25467e-19 0.156059)
(9.92594 1.94594e-20 0.148433)
(9.85294 -1.029e-19 0.190175)
(9.88167 -2.96299e-22 0.184214)
(9.7937 3.27305e-22 0.22654)
(9.8279 -4.39263e-20 0.222101)
(9.72498 2.32266e-22 0.265786)
(9.76501 -1.43442e-22 0.262697)
(9.64669 5.18884e-20 0.308595)
(9.69298 4.78512e-20 0.306714)
(9.55861 -1.1249e-19 0.355689)
(9.61153 1.52101e-19 0.354905)
(9.46043 -7.24377e-20 0.407858)
(9.52041 -1.05868e-19 0.408059)
(9.35174 5.16411e-20 0.46599)
(9.41935 -8.18612e-20 0.467058)
(9.23207 -2.85533e-20 0.531077)
(9.30799 -1.40405e-22 0.532901)
(9.10089 -2.62537e-19 0.604275)
(9.18587 0 0.606676)
(8.95777 1.7149e-20 0.687007)
(9.05248 -2.58244e-19 0.689677)
(8.80218 2.59903e-19 0.780938)
(8.90751 2.50074e-19 0.783543)
(8.63343 -3.04574e-19 0.88792)
(8.75057 -2.20794e-21 0.890139)
(8.45078 -1.76405e-21 1.01013)
(8.58099 -2.97192e-19 1.01153)
(8.2535 2.00836e-19 1.15019)
(8.39829 8.88829e-19 1.15022)
(8.0408 -1.22301e-19 1.31122)
(8.20202 -6.49255e-19 1.3092)
(7.81193 -1.31458e-19 1.49708)
(7.99151 4.04956e-20 1.49202)
(7.5663 5.83623e-21 1.71257)
(7.76664 -8.88113e-20 1.70317)
(7.30293 9.16763e-20 1.96343)
(7.52735 9.24979e-20 1.94829)
(7.02049 9.77568e-20 2.25676)
(7.2732 -7.37976e-19 2.23414)
(6.71738 9.6603e-20 2.60167)
(7.00405 8.42813e-19 2.56925)
(6.39165 -2.06945e-19 3.01023)
(6.72003 -1.53231e-18 2.96473)
(6.04009 -3.07198e-19 3.49726)
(6.42026 2.90585e-18 3.43569)
(5.66901 -1.01148e-19 4.08902)
(6.11851 -1.51124e-18 3.99269)
(5.21648 -2.91747e-18 4.76848)
(5.71916 0 4.72282)
(4.91462 3.19036e-18 5.59769)
(5.75553 -2.80666e-18 5.22283)
(4.2514 3.26225e-18 6.92315)
(9.99085 1.58222e-19 0.0633508)
(9.99566 8.74475e-21 0.0448302)
(9.97197 6.38425e-20 0.102169)
(9.98315 3.62383e-22 0.087117)
(9.94281 5.89967e-20 0.13946)
(9.96016 9.36106e-21 0.127049)
(9.90388 2.44327e-19 0.177231)
(9.92682 4.04476e-20 0.166604)
(9.85569 5.78453e-20 0.216799)
(9.88402 1.88242e-19 0.207582)
(9.79844 -4.35617e-20 0.258938)
(9.8322 -4.4084e-20 0.250938)
(9.73214 4.8442e-20 0.304353)
(9.77168 -9.1498e-20 0.297357)
(9.65675 1.50035e-19 0.353809)
(9.70246 -4.80413e-20 0.347622)
(9.57209 1.53986e-19 0.408119)
(9.62434 2.00593e-19 0.402559)
(9.47796 -1.14813e-19 0.468164)
(9.53717 1.06424e-19 0.463035)
(9.37406 -1.3232e-19 0.534936)
(9.44076 -2.72948e-19 0.530019)
(9.26005 2.84376e-20 0.609539)
(9.33485 1.43839e-19 0.604604)
(9.13551 0 0.69321)
(9.21918 1.21726e-19 0.688001)
(9.00006 -1.67563e-20 0.787449)
(9.09328 3.40024e-21 0.781578)
(8.85344 -1.62286e-20 0.894075)
(8.95694 -2.59146e-19 0.887018)
(8.69533 5.71973e-22 1.01516)
(8.81011 0 1.00635)
(8.52534 6.11131e-19 1.15311)
(8.65248 2.95288e-19 1.14187)
(8.34317 1.78593e-20 1.31076)
(8.48391 3.16861e-19 1.29624)
(8.14858 -4.77564e-19 1.49151)
(8.30443 -5.97369e-19 1.47266)
(7.94146 8.1423e-20 1.69954)
(8.11405 6.67524e-19 1.67495)
(7.72205 0 1.94011)
(7.91328 -6.59741e-19 1.90788)
(7.49082 -7.4289e-19 2.21967)
(7.70305 0 2.17749)
(7.24839 1.12409e-20 2.54627)
(7.48458 -7.35859e-19 2.49121)
(6.99597 -7.86762e-19 2.92999)
(7.25992 6.52126e-19 2.85828)
(6.73566 1.53645e-18 3.38389)
(7.0324 -1.52346e-18 3.29038)
(6.46906 1.79341e-18 3.92185)
(6.80399 3.04193e-18 3.8036)
(6.21617 -1.43671e-18 4.57073)
(6.6057 -1.57373e-18 4.39904)
(5.89859 1.64593e-19 5.29399)
(6.28889 2.2211e-18 5.20526)
(5.77476 1.06379e-19 6.09375)
(6.60682 -2.22863e-18 5.60027)
(5.01644 -4.50258e-20 7.45394)
(9.99057 -1.49404e-19 0.0694009)
(9.99552 8.74913e-21 0.0487529)
(9.97186 -5.39776e-20 0.112757)
(9.98316 -1.54926e-19 0.0951988)
(9.9436 -8.54272e-21 0.154912)
(9.96072 2.27843e-19 0.13975)
(9.90605 -1.26675e-20 0.197706)
(9.92848 -1.19781e-19 0.184155)
(9.85966 8.16757e-20 0.24249)
(9.88735 4.16384e-20 0.230113)
(9.80467 -9.2914e-20 0.290145)
(9.83771 0 0.278678)
(9.74113 -1.87203e-19 0.341453)
(9.77982 9.0142e-20 0.330643)
(9.66899 7.09549e-21 0.397245)
(9.71373 -8.24312e-22 0.386844)
(9.58819 1.51276e-19 0.4584)
(9.63932 -1.97342e-19 0.448155)
(9.4986 -5.8492e-20 0.525872)
(9.55652 1.04085e-19 0.515513)
(9.40002 1.04326e-20 0.600734)
(9.46523 -3.5684e-22 0.589961)
(9.29225 2.36821e-19 0.68419)
(9.3653 1.71224e-19 0.672666)
(9.175 1.23257e-19 0.777579)
(9.25659 1.21845e-19 0.764946)
(9.04802 -2.43213e-19 0.882455)
(9.13882 6.46003e-20 0.868257)
(8.91119 -2.39058e-19 1.0007)
(9.01191 -5.01062e-19 0.984299)
(8.76449 2.99113e-19 1.13455)
(8.87598 2.98849e-19 1.11517)
(8.60792 2.01378e-21 1.28657)
(8.73108 2.86159e-19 1.2633)
(8.44158 -3.10701e-19 1.45976)
(8.57745 -8.85519e-19 1.43152)
(8.26581 5.63372e-19 1.6577)
(8.41553 5.86525e-19 1.62312)
(8.08116 -8.55561e-20 1.88476)
(8.24602 6.09454e-19 1.84208)
(7.88868 -6.53646e-19 2.14645)
(8.07005 -6.59227e-19 2.09335)
(7.69004 0 2.44958)
(7.88946 0 2.38312)
(7.48774 -9.08785e-20 2.80259)
(7.70689 0 2.71905)
(7.28556 -9.06806e-20 3.2158)
(7.52635 -1.4429e-18 3.11055)
(7.08937 -4.50998e-20 3.70231)
(7.35413 2.69741e-18 3.56904)
(6.90439 -2.16888e-19 4.27346)
(7.19348 -1.37642e-18 4.11126)
(6.76256 1.97116e-18 4.95507)
(7.09461 -8.51414e-21 4.72466)
(6.57035 1.3987e-18 5.69424)
(6.84861 2.49518e-18 5.58641)
(6.56847 -2.14373e-18 6.43309)
(7.40642 -2.36594e-18 5.85843)
(5.74924 0 7.80121)
(9.99058 0 0.075415)
(9.99546 8.66156e-21 0.0526755)
(9.97225 1.35371e-19 0.123071)
(9.98346 -9.00569e-21 0.103122)
(9.94499 1.09243e-19 0.169825)
(9.96173 2.86766e-22 0.152016)
(9.90897 -6.21566e-20 0.217404)
(9.93073 1.1784e-19 0.201018)
(9.86458 -4.09091e-20 0.267158)
(9.89145 -4.17524e-20 0.251711)
(9.81208 1.84883e-19 0.320053)
(9.84417 -8.60017e-20 0.305216)
(9.75154 2.75017e-19 0.376946)
(9.78916 9.12757e-20 0.362424)
(9.683 -2.08891e-19 0.438713)
(9.7265 1.89666e-19 0.424209)
(9.60643 -2.39366e-19 0.506285)
(9.65617 -1.9859e-19 0.491489)
(9.5218 1.60433e-19 0.580683)
(9.57813 1.02757e-19 0.565258)
(9.429 1.63447e-19 0.663047)
(9.49238 5.45467e-20 0.646622)
(9.32793 5.53274e-20 0.754659)
(9.39887 3.6578e-22 0.736811)
(9.21848 6.21957e-20 0.856944)
(9.29759 -2.33614e-19 0.837205)
(9.10059 -2.01962e-19 0.971507)
(9.1885 2.41085e-19 0.949322)
(8.97431 4.86719e-20 1.10026)
(9.07166 -2.58464e-19 1.07489)
(8.83984 2.8593e-19 1.24551)
(8.94733 -2.60719e-19 1.21604)
(8.69753 -6.17057e-19 1.4099)
(8.81589 5.32064e-19 1.37526)
(8.54788 2.86076e-20 1.59655)
(8.67793 -6.18058e-19 1.55544)
(8.39173 6.33614e-19 1.80913)
(8.53431 1.19243e-18 1.75995)
(8.23029 2.4174e-20 2.05211)
(8.38629 -5.41143e-19 1.99283)
(8.06537 0 2.33106)
(8.23565 0 2.25905)
(7.89973 0 2.65285)
(8.08507 0 2.56476)
(7.73745 -1.35165e-18 3.02589)
(7.93838 0 2.91756)
(7.58443 1.3099e-18 3.46022)
(7.80112 -4.24701e-22 3.32668)
(7.44975 1.41779e-18 3.96815)
(7.68223 1.57595e-18 3.80261)
(7.34071 -1.1946e-18 4.558)
(7.58453 -1.62153e-18 4.3628)
(7.29793 4.52417e-19 5.25355)
(7.57764 7.16819e-19 4.97901)
(7.21889 3.08968e-19 5.99152)
(7.39319 -7.00239e-19 5.8786)
(7.28458 0 6.66315)
(8.1414 1.85741e-18 6.03593)
(6.4339 4.12352e-19 8.01551)
(9.99071 -7.45334e-22 0.0813113)
(9.99548 8.66676e-21 0.0565422)
(9.97295 -1.43958e-19 0.133049)
(9.98395 8.93251e-21 0.110807)
(9.94681 1.13507e-20 0.184142)
(9.96308 -1.51024e-19 0.163801)
(9.91246 1.35067e-19 0.236248)
(9.93348 -1.92189e-20 0.217126)
(9.87028 -8.7731e-20 0.290703)
(9.89622 1.22472e-19 0.272281)
(9.82049 -1.76354e-19 0.348542)
(9.85151 4.23452e-20 0.330439)
(9.76324 7.6192e-21 0.410677)
(9.79961 -6.4063e-22 0.392556)
(9.69862 1.93028e-19 0.478024)
(9.74069 1.6423e-21 0.459541)
(9.62667 1.49085e-19 0.551563)
(9.67474 9.80355e-20 0.532357)
(9.54738 -4.01895e-21 0.632368)
(9.60183 -4.95634e-20 0.612052)
(9.46077 -1.09568e-19 0.721631)
(9.522 -2.65731e-19 0.699766)
(9.36686 -2.92505e-19 0.820683)
(9.43531 1.6275e-19 0.796767)
(9.26572 -4.75452e-20 0.930995)
(9.34191 -5.20765e-19 0.904469)
(9.15748 1.77299e-19 1.05421)
(9.24196 1.18434e-19 1.02443)
(9.04234 -5.68062e-19 1.19226)
(9.13568 -2.59757e-21 1.15841)
(8.92074 -5.17705e-21 1.34746)
(9.02348 -3.05683e-19 1.30853)
(8.79331 5.1705e-19 1.5225)
(8.90603 5.4151e-19 1.47727)
(8.66097 5.6616e-19 1.72053)
(8.78424 1.73193e-20 1.66754)
(8.525 1.87487e-21 1.94524)
(8.65938 8.02106e-20 1.8827)
(8.3872 -5.61239e-19 2.20108)
(8.5332 -2.50485e-20 2.12676)
(8.25014 0 2.49353)
(8.40811 0 2.4046)
(8.1175 0 2.82929)
(8.2875 -1.19962e-18 2.7222)
(7.99461 1.34553e-18 3.21647)
(8.17619 1.05897e-18 3.08685)
(7.88901 2.69036e-19 3.66453)
(8.08089 1.41804e-18 3.50738)
(7.81214 -1.41791e-18 4.18477)
(8.01267 -1.25958e-18 3.99318)
(7.77249 2.37669e-19 4.78229)
(7.97276 1.08289e-18 4.56259)
(7.81447 -3.80279e-19 5.47957)
(8.04829 -2.02364e-18 5.17278)
(7.83873 -7.80743e-19 6.20882)
(7.92001 -1.24872e-19 6.09447)
(7.92571 2.07943e-18 6.82685)
(8.81105 1.84042e-18 6.16792)
(7.06792 3.54618e-20 8.14819)
(9.99097 1.83022e-20 0.0870291)
(9.99567 0 0.0602999)
(9.97394 -1.60162e-21 0.14263)
(9.98465 1.60251e-19 0.118185)
(9.94905 -1.7885e-19 0.197804)
(9.96481 -1.87448e-20 0.175038)
(9.91654 -2.90007e-20 0.254159)
(9.93682 3.73296e-20 0.232405)
(9.87673 2.51123e-19 0.313026)
(9.90174 4.04771e-20 0.291733)
(9.82989 2.17418e-19 0.375486)
(9.85977 1.70887e-19 0.35424)
(9.77619 -6.58492e-21 0.442489)
(9.81119 8.97321e-20 0.42091)
(9.71577 -9.18023e-20 0.514995)
(9.75621 -9.01473e-22 0.492691)
(9.64873 -1.03288e-19 0.59403)
(9.69489 -9.70033e-20 0.570596)
(9.57514 -3.15093e-19 0.680704)
(9.62736 9.99191e-20 0.655704)
(9.49509 1.35255e-20 0.776232)
(9.55375 -3.16113e-19 0.749178)
(9.40873 -7.60465e-20 0.881963)
(9.4742 2.19041e-19 0.852293)
(9.31632 -3.45542e-19 0.999392)
(9.38903 -1.18793e-19 0.966469)
(9.21813 -6.36725e-20 1.1302)
(9.29857 -2.37671e-19 1.09329)
(9.11456 2.55671e-19 1.27631)
(9.20317 4.21301e-19 1.23455)
(9.00624 2.51927e-19 1.44002)
(9.10347 -5.6169e-20 1.39232)
(8.8941 3.49518e-20 1.624)
(9.00035 6.41571e-20 1.56902)
(8.77942 -4.68053e-19 1.83134)
(8.89503 3.45889e-20 1.7675)
(8.66391 5.09029e-20 2.06568)
(8.78916 -5.66705e-19 1.99105)
(8.54991 5.37777e-19 2.33137)
(8.68491 6.79827e-19 2.24359)
(8.4406 -1.20445e-18 2.63369)
(8.58523 0 2.52983)
(8.34046 -1.4808e-19 2.97903)
(8.49414 -1.20091e-18 2.85546)
(8.2558 1.13389e-18 3.37501)
(8.41725 2.05779e-18 3.22734)
(8.19533 -7.61156e-20 3.83036)
(8.36209 -2.3107e-18 3.65378)
(8.17199 1.20047e-18 4.35559)
(8.34145 1.47529e-18 4.1431)
(8.1953 -9.97851e-19 4.95323)
(8.35456 1.377e-18 4.71479)
(8.30769 -1.58492e-18 5.64619)
(8.50214 -2.56801e-18 5.31616)
(8.43054 8.9711e-19 6.3645)
(8.42976 5.84339e-20 6.24352)
(8.5059 -4.47648e-19 6.96366)
(9.42185 1.28587e-18 6.28522)
(7.67063 -3.94804e-19 8.248)
(9.99145 1.45134e-19 0.0924957)
(9.99604 0 0.0638558)
(9.97529 1.39235e-19 0.151741)
(9.98554 4.21946e-22 0.125191)
(9.95186 1.98758e-19 0.210729)
(9.96688 1.84968e-19 0.185641)
(9.92137 1.06972e-19 0.271053)
(9.94069 9.97757e-22 0.246771)
(9.88411 -3.73215e-20 0.334034)
(9.90791 -8.29049e-20 0.309993)
(9.84036 4.15795e-20 0.400779)
(9.86884 2.94924e-19 0.376536)
(9.79036 9.37719e-20 0.472267)
(9.82375 -8.75341e-20 0.447403)
(9.73432 -7.69586e-21 0.549496)
(9.77287 4.9912e-22 0.523575)
(9.67238 1.09656e-19 0.633531)
(9.71635 -9.65725e-20 0.606099)
(9.6047 9.23725e-20 0.725503)
(9.6544 1.02744e-19 0.696083)
(9.53147 -1.02172e-19 0.826633)
(9.58723 -1.03888e-19 0.794702)
(9.45294 1.71171e-19 0.938266)
(9.51508 -2.14217e-19 0.903218)
(9.36951 -1.24406e-20 1.0619)
(9.43836 2.77928e-19 1.02303)
(9.28165 2.5609e-19 1.19924)
(9.35757 -2.90189e-19 1.15573)
(9.18992 1.03439e-19 1.3522)
(9.27327 3.66579e-19 1.30313)
(9.09516 -2.4315e-19 1.52298)
(9.18628 2.40159e-19 1.4672)
(8.99856 6.35372e-20 1.71416)
(9.0977 -5.00739e-19 1.65029)
(8.90172 -6.96213e-20 1.92874)
(9.00899 -1.28008e-19 1.85511)
(8.80672 7.07237e-20 2.17025)
(8.92209 -6.90747e-20 2.08486)
(8.71633 1.3751e-19 2.44287)
(8.83959 -1.30277e-19 2.34327)
(8.6343 0 2.7516)
(8.76485 -9.48638e-19 2.63481)
(8.56573 9.9674e-19 3.10239)
(8.70244 2.6051e-19 2.96481)
(8.51768 -1.35434e-18 3.50237)
(8.65859 1.93e-19 3.33964)
(8.49967 -8.20584e-19 3.95957)
(8.64142 -1.35279e-18 3.76711)
(8.52547 1.66003e-18 4.48388)
(8.66503 -3.87581e-19 4.2547)
(8.60633 0 5.07704)
(8.72728 0 4.82283)
(8.77689 -7.69639e-19 5.7639)
(8.9369 -7.7167e-19 5.41616)
(8.99785 4.00267e-19 6.47108)
(8.92673 -1.37697e-18 6.32929)
(9.05862 1.11135e-18 7.10917)
(9.98348 1.09116e-18 6.40804)
(8.28936 0 8.35142)
(9.99202 -1.44796e-19 0.0976484)
(9.99642 2.61747e-19 0.0671746)
(9.97686 5.01542e-20 0.160316)
(9.98651 -1.50901e-19 0.131782)
(9.95497 -1.66917e-20 0.22285)
(9.96912 -1.277e-19 0.195568)
(9.9266 -1.9069e-19 0.286855)
(9.94481 -1.94068e-19 0.260177)
(9.89202 2.56832e-19 0.353646)
(9.91445 -1.61581e-19 0.326996)
(9.85154 1.58751e-19 0.424337)
(9.87841 2.10752e-19 0.397245)
(9.80542 -1.79379e-19 0.499925)
(9.83698 -3.47822e-19 0.471943)
(9.75392 -9.01335e-20 0.581438)
(9.79037 -9.17815e-20 0.552092)
(9.69728 -1.00256e-19 0.669964)
(9.73884 0 0.638761)
(9.63571 -9.70398e-20 0.766652)
(9.68265 -1.96654e-19 0.733075)
(9.5695 -2.1769e-19 0.872722)
(9.6221 5.06182e-19 0.836214)
(9.499 -1.00518e-19 0.989489)
(9.55756 -2.13098e-19 0.949418)
(9.42473 -7.8486e-21 1.11843)
(9.48949 2.19064e-19 1.07404)
(9.34732 -1.71501e-19 1.26124)
(9.41849 -2.25008e-19 1.21165)
(9.26758 5.02025e-19 1.41977)
(9.34538 5.83747e-20 1.36401)
(9.18654 -2.4086e-20 1.59615)
(9.27117 1.15011e-18 1.53304)
(9.10558 -6.89524e-19 1.79281)
(9.19712 -4.42624e-19 1.72095)
(9.02652 -1.27112e-19 2.01265)
(9.12491 -1.00272e-18 1.93032)
(8.95179 -2.70462e-19 2.25898)
(9.05675 5.09069e-19 2.16415)
(8.88454 -1.22119e-18 2.53575)
(8.99551 -6.53785e-19 2.42594)
(8.82894 -6.94306e-19 2.84761)
(8.94494 -8.198e-19 2.71986)
(8.79062 -5.37e-19 3.20005)
(8.91002 2.5354e-19 3.05079)
(8.77719 2.11386e-19 3.59965)
(8.89745 4.42191e-19 3.42461)
(8.79877 -9.23015e-19 4.05388)
(8.91584 -9.14198e-19 3.84857)
(8.86958 -2.06746e-18 4.57238)
(8.98028 -1.06396e-18 4.32967)
(9.00382 -7.46312e-19 5.15749)
(9.08865 8.18352e-19 4.88804)
(9.22455 -1.13016e-18 5.83679)
(9.35121 -7.51868e-19 5.47366)
(9.54428 -7.19295e-19 6.5343)
(9.41582 2.41499e-18 6.34965)
(9.6367 -1.1797e-19 7.27724)
(10.5065 -1.23487e-18 6.53245)
(8.98079 0 8.48402)
(9.99257 2.47777e-19 0.102464)
(9.99675 2.60768e-19 0.0702669)
(9.97849 -3.28391e-19 0.168322)
(9.98751 -8.82891e-21 0.13792)
(9.95823 -3.06605e-19 0.234129)
(9.97148 -1.6659e-19 0.204784)
(9.93206 -1.64261e-19 0.301521)
(9.94915 -1.29989e-22 0.272584)
(9.90026 -2.00724e-19 0.371797)
(9.92129 -3.59506e-19 0.34269)
(9.86318 -3.06443e-19 0.446073)
(9.88838 -7.75624e-22 0.416301)
(9.82111 -2.55751e-19 0.525363)
(9.85071 -8.76885e-20 0.494449)
(9.77433 0 0.610711)
(9.80852 8.97823e-20 0.578152)
(9.72315 -9.96667e-20 0.703215)
(9.76212 -9.26989e-20 0.668488)
(9.66787 4.17934e-19 0.804029)
(9.71184 -2.10661e-21 0.766584)
(9.60887 5.00685e-19 0.91436)
(9.65806 1.06895e-19 0.873606)
(9.54661 1.13011e-19 1.03548)
(9.60126 4.14868e-19 0.99077)
(9.48165 -3.95992e-21 1.16883)
(9.54198 -2.10358e-19 1.11939)
(9.4148 8.54714e-21 1.31602)
(9.48087 1.09681e-19 1.26097)
(9.34704 7.19609e-19 1.47887)
(9.41895 -1.09188e-19 1.41716)
(9.27962 7.17412e-19 1.65939)
(9.3574 -1.00788e-19 1.58983)
(9.2141 -7.59397e-19 1.85989)
(9.29768 9.5588e-19 1.78105)
(9.15253 -3.5751e-19 2.08304)
(9.24164 -1.36168e-18 1.99321)
(9.09757 1.19912e-19 2.33194)
(9.19171 5.10605e-19 2.22909)
(9.05269 -2.54231e-19 2.61021)
(9.151 -1.40712e-19 2.4919)
(9.02237 1.25048e-19 2.92215)
(9.12353 3.84e-19 2.78543)
(9.01264 1.24207e-18 3.27272)
(9.11459 7.16357e-19 3.11412)
(9.03153 -6.61876e-19 3.6679)
(9.13125 4.90618e-20 3.48318)
(9.08969 -1.05922e-18 4.11469)
(9.1825 -1.96453e-18 3.89924)
(9.20165 1.78719e-18 4.62239)
(9.28409 1.40433e-18 4.36873)
(9.38539 8.78804e-19 5.19462)
(9.43559 7.69319e-19 4.90982)
(9.65328 3.07256e-18 5.86047)
(9.74248 -1.35413e-18 5.48399)
(10.0699 2.04503e-18 6.54749)
(9.89641 2.38362e-18 6.29806)
(10.285 -9.55683e-19 7.45202)
(10.9979 -1.51258e-18 6.62061)
(9.78298 1.15819e-19 8.66155)
(9.99315 -1.11495e-21 0.106926)
(9.99706 7.85955e-21 0.0731246)
(9.98022 1.49731e-19 0.175722)
(9.98857 8.2235e-21 0.143569)
(9.96169 1.43525e-19 0.244528)
(9.97399 1.32189e-19 0.213247)
(9.9378 -2.02525e-19 0.315012)
(9.95371 3.57198e-20 0.283958)
(9.90887 -1.52692e-19 0.388448)
(9.92847 2.16333e-20 0.357046)
(9.87526 2.16628e-19 0.465945)
(9.89877 -3.52388e-20 0.433671)
(9.83733 2.61281e-19 0.548536)
(9.86496 9.55183e-20 0.51488)
(9.7954 -5.95444e-21 0.637269)
(9.8273 1.75074e-19 0.601708)
(9.7498 6.37424e-21 0.733243)
(9.78614 -9.4604e-20 0.69523)
(9.70092 -3.11965e-19 0.837598)
(9.74189 1.86717e-19 0.796563)
(9.64922 2.5045e-20 0.95151)
(9.69497 -3.151e-19 0.906844)
(9.59525 8.3292e-20 1.07622)
(9.64597 3.25107e-19 1.02725)
(9.53968 -9.24362e-20 1.21311)
(9.59551 -2.27949e-19 1.15907)
(9.48338 -1.02535e-20 1.36371)
(9.54437 4.29693e-19 1.3037)
(9.4275 -9.3104e-19 1.52971)
(9.49365 -4.39646e-19 1.46269)
(9.37346 1.47119e-19 1.71303)
(9.44466 -1.77502e-19 1.63778)
(9.32302 3.38153e-19 1.91578)
(9.39904 4.13962e-19 1.8309)
(9.2784 -4.82341e-19 2.14043)
(9.3588 -4.95655e-19 2.04423)
(9.24246 2.46712e-19 2.3898)
(9.32654 -4.47269e-19 2.28028)
(9.21888 4.97315e-19 2.66715)
(9.30555 4.73999e-19 2.54195)
(9.2124 9.76427e-19 2.97632)
(9.30004 2.57175e-19 2.8326)
(9.22929 -4.68583e-19 3.3217)
(9.3155 2.49996e-18 3.15607)
(9.27788 -1.22675e-18 3.70854)
(9.35919 -2.52311e-18 3.51688)
(9.36929 4.30262e-19 4.14318)
(9.44036 3.98328e-19 3.9207)
(9.51824 4.0067e-19 4.63396)
(9.57496 4.49718e-19 4.37309)
(9.74653 -1.32684e-18 5.18591)
(9.76541 -5.29442e-20 4.88844)
(10.061 -2.02469e-18 5.82443)
(10.1069 -3.05137e-18 5.4407)
(10.5662 -7.00296e-19 6.48881)
(10.3573 2.50272e-19 6.16432)
(11.0161 -3.48784e-19 7.58744)
(11.4953 -8.73161e-19 6.56646)
(11.513 -8.10311e-20 8.68944)
(0.0797486 3.43526e-20 -0.0642079)
(0.0477789 2.77485e-20 -0.0573338)
(0.223254 1.95804e-20 -0.0633913)
(0.115589 1.06216e-20 -0.0801972)
(0.413545 5.60064e-21 -0.05152)
(0.289958 -5.14908e-20 -0.0748324)
(0.651211 1.09167e-22 -0.0439453)
(0.516448 5.56922e-20 -0.0723224)
(0.897714 1.25774e-21 -0.0402215)
(0.774083 -2.02402e-20 -0.070701)
(1.11564 -1.38599e-21 -0.0382287)
(1.01506 8.27716e-21 -0.0687922)
(1.30093 1.51075e-21 -0.0368769)
(1.2197 -9.72547e-21 -0.0669738)
(1.46189 0 -0.0358446)
(1.39206 -7.22713e-21 -0.06524)
(1.60494 0 -0.0348489)
(1.53957 3.84958e-21 -0.0633677)
(1.7335 1.01621e-21 -0.0336749)
(1.66791 -3.89925e-21 -0.061123)
(1.84959 4.19195e-23 -0.0322254)
(1.78118 4.97217e-21 -0.058483)
(1.95469 2.8924e-21 -0.0305179)
(1.88203 -8.80985e-21 -0.0555306)
(2.04988 7.63289e-21 -0.0285269)
(1.97214 -3.44732e-21 -0.0523514)
(2.1355 4.19379e-21 -0.0261228)
(2.05277 -7.0619e-21 -0.0487453)
(2.21106 1.95046e-23 -0.0233462)
(2.1244 -1.29983e-21 -0.044345)
(2.27656 -4.30046e-22 -0.0204579)
(2.18669 8.00806e-21 -0.0395129)
(2.33296 -2.52911e-21 -0.0175368)
(2.23982 0 -0.0348938)
(2.38079 -3.00353e-22 -0.0145383)
(2.285 -6.45637e-22 -0.0303074)
(2.42006 -9.80206e-24 -0.0118856)
(2.32277 5.97669e-22 -0.0254922)
(2.45234 -2.28639e-21 -0.0103626)
(2.35251 -4.76841e-21 -0.0214673)
(2.48136 0 -0.0102099)
(2.37496 0 -0.0197331)
(2.51102 0 -0.010855)
(2.39349 0 -0.0205285)
(2.54348 4.72485e-23 -0.0117899)
(2.41191 2.34863e-21 -0.02279)
(2.57944 -1.02084e-23 -0.0134733)
(2.43177 1.80762e-22 -0.0256332)
(2.62023 -3.58457e-22 -0.0172472)
(2.45278 -1.03271e-22 -0.0295026)
(2.66942 -3.13081e-22 -0.0244907)
(2.47504 1.12371e-22 -0.0360717)
(2.73313 0 -0.0358266)
(2.50143 -1.1405e-23 -0.0473018)
(2.81903 -1.93743e-22 -0.0504271)
(2.5388 -2.66759e-22 -0.0645851)
(2.93314 -3.50917e-22 -0.064147)
(2.59849 -1.36258e-21 -0.0871122)
(2.72173 -7.19908e-22 -0.106062)
(0.040202 -5.62465e-21 -0.0991574)
(0.0222571 6.45658e-20 -0.0972487)
(0.16443 -5.81633e-20 -0.122263)
(0.0433098 4.11082e-20 -0.147101)
(0.374998 -1.2511e-20 -0.118044)
(0.219109 -4.48597e-21 -0.153168)
(0.642394 3.4655e-20 -0.114941)
(0.445392 -3.13142e-20 -0.151324)
(0.910048 -1.30693e-20 -0.112146)
(0.698736 9.49279e-21 -0.147603)
(1.13719 4.24817e-22 -0.108722)
(0.927118 1.13234e-20 -0.142376)
(1.32262 -1.83457e-20 -0.104847)