/*--------------------------------*- C++ -*----------------------------------*\
| =========                 |                                                 |
| \\      /  F ield         | OpenFOAM: The Open Source CFD Toolbox           |
|  \\    /   O peration     | Version:  dev                                   |
|   \\  /    A nd           | Web:      www.OpenFOAM.org                      |
|    \\/     M anipulation  |                                                 |
\*---------------------------------------------------------------------------*/
FoamFile
{
    version     2.0;
    format      ascii;
    class       surfaceScalarField;
    location    "0.59";
    object      meshPhi;
}
// * * * * * * * * * * * * * * * * * * * * * * * * * * * * * * * * * * * * * //

dimensions      [0 3 -1 0 0 0 0];

internalField   nonuniform List<scalar> 
881
(
5.24197e-05
-1.16717e-05
-1.41213e-05
5.6096e-05
-1.29481e-05
6.59413e-05
-1.5386e-05
7.59562e-05
-1.79942e-05
-2.07289e-05
6.03536e-05
-1.44067e-05
6.98494e-05
-1.681e-05
7.95595e-05
-1.93643e-05
8.91523e-05
-2.20565e-05
-2.48234e-05
6.53978e-05
-1.60681e-05
7.44611e-05
-1.8422e-05
8.36847e-05
-2.09099e-05
9.28104e-05
-2.35156e-05
0.000101446
-2.61925e-05
0.000109055
-2.88685e-05
-3.1445e-05
7.13012e-05
-1.7953e-05
7.98965e-05
-2.02387e-05
8.85998e-05
-2.26413e-05
9.71347e-05
-2.51487e-05
0.000105207
-2.77119e-05
0.000112417
-3.02662e-05
0.000118441
-3.27454e-05
0.000122963
-3.50761e-05
-3.71577e-05
7.81713e-05
-2.00706e-05
8.62472e-05
-2.22675e-05
9.43823e-05
-2.45654e-05
0.000102313
-2.69558e-05
0.000109751
-2.93917e-05
0.000116373
-3.18152e-05
0.000121916
-3.41611e-05
0.000126088
-3.63563e-05
0.000128653
-3.83319e-05
-3.99923e-05
8.61243e-05
-2.24192e-05
9.36216e-05
-2.45057e-05
0.000101136
-2.66784e-05
0.00010842
-2.89331e-05
0.000115203
-3.12247e-05
0.000121203
-3.3499e-05
0.000126155
-3.56932e-05
0.000129796
-3.77365e-05
0.000131936
-3.9552e-05
0.000132346
-4.10602e-05
0.000130747
-4.21522e-05
-4.26972e-05
9.52818e-05
-2.49852e-05
0.000102135
-2.69374e-05
0.00010897
-2.8964e-05
0.000115558
-3.10645e-05
0.000121645
-3.31945e-05
0.000126971
-3.53018e-05
0.000131285
-3.7326e-05
0.000134342
-3.91979e-05
0.000135931
-4.08407e-05
0.000135869
-4.21701e-05
0.000133945
-4.30866e-05
0.000130046
-4.3498e-05
-4.32919e-05
0.000105763
-2.77374e-05
0.000111899
-2.95314e-05
0.000117992
-3.1391e-05
0.000123827
-3.33202e-05
0.000129165
-3.52731e-05
0.000133765
-3.71976e-05
0.000137385
-3.90355e-05
0.000139793
-4.07191e-05
0.000140781
-4.21719e-05
0.000140159
-4.33104e-05
0.00013775
-4.40415e-05
0.000133448
-4.42673e-05
0.000127143
-4.38912e-05
0.000118698
-4.27884e-05
-4.08185e-05
0.000117676
-3.06299e-05
0.000123012
-3.22357e-05
0.0001283
-3.39126e-05
0.000133324
-3.56576e-05
0.000137857
-3.74217e-05
0.000141672
-3.91516e-05
0.000144536
-4.07897e-05
0.000146228
-4.22701e-05
0.000146545
-4.35185e-05
0.0001453
-4.44537e-05
0.000142328
-4.4986e-05
0.0001375
-4.50201e-05
0.000130718
-4.44552e-05
0.000121871
-4.31779e-05
0.000110914
-4.10849e-05
-3.80626e-05
0.000131066
-3.35141e-05
0.00013555
-3.49602e-05
0.000139978
-3.64623e-05
0.000144136
-3.80217e-05
0.000147809
-3.9591e-05
0.000150778
-4.11187e-05
0.000152818
-4.25468e-05
0.000153721
-4.38121e-05
0.000153291
-4.48447e-05
0.000151347
-4.5566e-05
0.000147726
-4.58896e-05
0.000142293
-4.57228e-05
0.000134935
-4.49669e-05
0.000125554
-4.35164e-05
0.000114096
-4.1265e-05
0.000100508
-3.81119e-05
8.47165e-05
-3.39347e-05
-2.86079e-05
0.000145951
-3.62915e-05
0.000149576
-3.7627e-05
0.000153105
-3.89719e-05
0.000156343
-4.03497e-05
0.000159095
-4.17219e-05
0.000161152
-4.30417e-05
0.000162298
-4.42536e-05
0.000162336
-4.52967e-05
0.000161079
-4.61058e-05
0.000158352
-4.66064e-05
0.000153993
-4.6715e-05
0.000147864
-4.63427e-05
0.000139844
-4.53944e-05
0.000129837
-4.37701e-05
0.000117766
-4.13672e-05
0.000103577
-3.80823e-05
8.72095e-05
-3.38056e-05
6.86391e-05
-2.84382e-05
-2.18884e-05
0.000162445
-3.89832e-05
0.000165178
-4.01948e-05
0.000167755
-4.13806e-05
0.000170014
-4.25761e-05
0.000171775
-4.37486e-05
0.000172848
-4.48568e-05
0.000173029
-4.58493e-05
0.000172125
-4.66677e-05
0.000169958
-4.72501e-05
0.000166359
-4.75265e-05
0.00016117
-4.74179e-05
0.000154249
-4.68396e-05
0.000145475
-4.5701e-05
0.000134742
-4.39068e-05
0.000121968
-4.13587e-05
0.000107083
-3.79566e-05
9.00293e-05
-3.35987e-05
7.07743e-05
-2.81885e-05
4.92923e-05
-2.16393e-05
-1.38556e-05
0.000180698
-4.15369e-05
0.000182449
-4.26018e-05
0.000184
-4.36192e-05
0.000185205
-4.46284e-05
0.0001859
-4.55994e-05
0.00018591
-4.64943e-05
0.00018505
-4.72666e-05
0.000183128
-4.78615e-05
0.000179964
-4.82182e-05
0.000175399
-4.8271e-05
0.000169283
-4.79473e-05
0.000161475
-4.71671e-05
0.000151847
-4.58445e-05
0.000140292
-4.38892e-05
0.000126716
-4.12078e-05
0.000111044
-3.77049e-05
9.32117e-05
-3.32848e-05
7.3174e-05
-2.7855e-05
5.08992e-05
-2.13286e-05
2.63425e-05
-1.36211e-05
-4.76141e-06
0.000200778
-4.3851e-05
0.000201444
-4.47593e-05
0.00020188
-4.56024e-05
0.000201949
-4.6423e-05
0.000201498
-4.71925e-05
0.000200364
-4.78755e-05
0.000198378
-4.84297e-05
0.000195355
-4.88047e-05
0.00019111
-4.89415e-05
0.000185487
-4.87771e-05
0.000178348
-4.82455e-05
0.000169553
-4.72726e-05
0.000158973
-4.57775e-05
0.000146495
-4.36752e-05
0.00013202
-4.08775e-05
0.000115466
-3.72945e-05
9.67607e-05
-3.2836e-05
7.58502e-05
-2.74139e-05
5.26927e-05
-2.09447e-05
2.72416e-05
-1.3349e-05
-4.65989e-06
0.000222674
-4.58144e-05
0.000222161
-4.6564e-05
0.000221395
-4.72325e-05
0.000220244
-4.7866e-05
0.000218565
-4.84374e-05
0.000216204
-4.89137e-05
0.000213001
-4.92556e-05
0.000208788
-4.94175e-05
0.000203382
-4.93443e-05
0.000196616
-4.89751e-05
0.000188358
-4.82488e-05
0.000178478
-4.70981e-05
0.000166847
-4.54475e-05
0.000153348
-4.32178e-05
0.000137878
-4.03266e-05
0.000120346
-3.66894e-05
0.000100674
-3.22218e-05
7.88002e-05
-2.68404e-05
5.46728e-05
-2.04658e-05
2.82376e-05
-1.30226e-05
-4.54147e-06
0.000246316
-4.73091e-05
0.000244543
-4.79031e-05
0.000242493
-4.84017e-05
0.000240043
-4.88542e-05
0.000237056
-4.92353e-05
0.000233387
-4.95143e-05
0.000228884
-4.96551e-05
0.000223391
-4.96157e-05
0.000216739
-4.93465e-05
0.000208751
-4.87906e-05
0.000199286
-4.78891e-05
0.000188227
-4.65807e-05
0.00017545
-4.47976e-05
0.000160835
-4.24662e-05
0.000144274
-3.951e-05
0.000125671
-3.58506e-05
0.000104943
-3.14091e-05
8.20158e-05
-2.61074e-05
5.68315e-05
-1.98703e-05
2.93251e-05
-1.26255e-05
-4.39936e-06
0.000271575
-4.82117e-05
0.000268473
-4.86577e-05
0.00026507
-4.89958e-05
0.000261249
-4.92782e-05
0.000256882
-4.94814e-05
0.000251831
-4.95774e-05
0.000245953
-4.9533e-05
0.000239099
-4.931e-05
0.000231116
-4.88646e-05
0.000221829
-4.81444e-05
0.000211078
-4.70923e-05
0.000198751
-4.56534e-05
0.000184738
-4.37672e-05
0.000168917
-4.13661e-05
0.000151177
-3.838e-05
0.000131416
-3.47368e-05
0.000109545
-3.03631e-05
8.5481e-05
-2.51865e-05
5.9157e-05
-1.9136e-05
3.04967e-05
-1.21427e-05
-4.22797e-06
0.000298259
-4.8396e-05
0.000293775
-4.87053e-05
0.000288962
-4.88966e-05
0.000283711
-4.90242e-05
0.000277902
-4.90667e-05
0.000271405
-4.89988e-05
0.000264085
-4.87907e-05
0.000255801
-4.84077e-05
0.000246409
-4.78105e-05
0.000235749
-4.6953e-05
0.000223647
-4.57828e-05
0.000209979
-4.42476e-05
0.000194648
-4.22936e-05
0.00017754
-3.98613e-05
0.00015854
-3.6887e-05
0.000137542
-3.33048e-05
0.000114449
-2.90476e-05
8.91714e-05
-2.40483e-05
6.16321e-05
-1.8241e-05
3.17431e-05
-1.15601e-05
-4.02223e-06
0.000326107
-4.77354e-05
0.000320204
-4.79225e-05
0.000313941
-4.79848e-05
0.000307216
-4.79773e-05
0.000299918
-4.7881e-05
0.000291926
-4.76734e-05
0.000283112
-4.73279e-05
0.000273342
-4.68138e-05
0.00026248
-4.6096e-05
0.000250381
-4.5135e-05
0.000236872
-4.38838e-05
0.000221803
-4.2292e-05
0.000205088
-4.03124e-05
0.000186625
-3.78942e-05
0.000166297
-3.49802e-05
0.000143993
-3.15111e-05
0.00011961
-2.74259e-05
9.30533e-05
-2.26636e-05
6.42338e-05
-1.71633e-05
3.30524e-05
-1.08638e-05
-3.77737e-06
0.000354785
-4.61064e-05
0.000347446
-4.61887e-05
0.000339712
-4.61433e-05
0.000331488
-4.60244e-05
0.000322673
-4.58156e-05
0.000313155
-4.54972e-05
0.000302812
-4.50459e-05
0.000291519
-4.4435e-05
0.000279146
-4.36338e-05
0.000265561
-4.26085e-05
0.000250596
-4.13171e-05
0.000234086
-3.97139e-05
0.000215939
-3.77588e-05
0.00019607
-3.54079e-05
0.00017436
-3.26099e-05
0.000150697
-2.93127e-05
0.000124972
-2.54622e-05
9.70833e-05
-2.10037e-05
6.69326e-05
-1.5882e-05
3.44096e-05
-1.00409e-05
-3.48889e-06
0.00038388
-4.33914e-05
0.000375109
-4.33892e-05
0.000365904
-4.32605e-05
0.00035618
-4.30577e-05
0.000345843
-4.27668e-05
0.000334789
-4.23709e-05
0.000322906
-4.18501e-05
0.000310076
-4.11816e-05
0.000296174
-4.03391e-05
0.000281076
-3.92935e-05
0.00026463
-3.80099e-05
0.000246661
-3.64489e-05
0.000227058
-3.45747e-05
0.000205748
-3.23491e-05
0.000182622
-2.97287e-05
0.000157565
-2.66688e-05
0.000130463
-2.31225e-05
0.000101208
-1.90416e-05
6.96926e-05
-1.43773e-05
3.57963e-05
-9.07914e-06
-3.15262e-06
0.000412895
-3.94837e-05
0.00040272
-3.94193e-05
0.000392072
-3.92346e-05
0.000380872
-3.89786e-05
0.000369035
-3.86395e-05
0.000356464
-3.82034e-05
0.000343057
-3.76538e-05
0.0003287
-3.69717e-05
0.000313278
-3.61352e-05
0.00029667
-3.512e-05
0.000278742
-3.38986e-05
0.000259322
-3.24383e-05
0.000238265
-3.07054e-05
0.000215505
-2.86682e-05
0.000190954
-2.62929e-05
0.000164491
-2.35422e-05
0.000135999
-2.03759e-05
0.000105364
-1.67529e-05
7.24712e-05
-1.26315e-05
3.71911e-05
-7.96776e-06
-2.7649e-06
0.00044124
-3.42914e-05
0.00042972
-3.41891e-05
0.000417685
-3.39782e-05
0.000405065
-3.37024e-05
0.000391781
-3.33523e-05
0.000377746
-3.29167e-05
0.000362863
-3.23826e-05
0.000347027
-3.17348e-05
0.000330127
-3.0956e-05
0.000312048
-3.00267e-05
0.000292669
-2.89257e-05
0.000271823
-2.76263e-05
0.000249342
-2.60995e-05
0.000225159
-2.43209e-05
0.000199203
-2.2265e-05
0.000171351
-1.9901e-05
0.000141483
-1.71963e-05
0.000109479
-1.41174e-05
7.52208e-05
-1.063e-05
3.85701e-05
-6.69795e-06
-2.32276e-06
0.000468229
-2.77433e-05
0.000455456
-2.76288e-05
0.000442126
-2.74233e-05
0.000428178
-2.71631e-05
0.000413539
-2.68414e-05
0.00039813
-2.64498e-05
0.00038186
-2.59784e-05
0.00036463
-2.54159e-05
0.000346336
-2.47494e-05
0.000326866
-2.39644e-05
0.000306108
-2.30447e-05
0.000283896
-2.19698e-05
0.000260056
-2.0718e-05
0.000234514
-1.92734e-05
0.000207207
-1.76162e-05
0.000178012
-1.57213e-05
0.00014681
-1.35644e-05
0.000113477
-1.11201e-05
7.789e-05
-8.36238e-06
3.99076e-05
-5.26348e-06
-1.82412e-06
0.000493071
-1.9795e-05
0.000479175
-1.96947e-05
0.000464684
-1.95272e-05
0.000449543
-1.93195e-05
0.000433687
-1.90672e-05
0.000417042
-1.87644e-05
0.00039952
-1.84048e-05
0.00038103
-1.79806e-05
0.000361469
-1.74833e-05
0.000340731
-1.6903e-05
0.000318707
-1.62287e-05
0.000295243
-1.54468e-05
0.000270161
-1.45433e-05
0.000243362
-1.35097e-05
0.000214788
-1.23316e-05
0.000184332
-1.09901e-05
0.00015187
-9.46951e-06
0.000117277
-7.75309e-06
8.04271e-05
-5.82329e-06
4.11779e-05
-3.66149e-06
-1.2681e-06
0.00051487
-1.04362e-05
0.000500017
-1.03767e-05
0.000484545
-1.02802e-05
0.000468401
-1.01622e-05
0.000451521
-1.00204e-05
0.000433832
-9.85183e-06
0.000415253
-9.65324e-06
0.000395692
-9.42081e-06
0.000375049
-9.15017e-06
0.000353221
-8.83637e-06
0.000330094
-8.47377e-06
0.000305541
-8.0559e-06
0.000279383
-7.57615e-06
0.000251476
-7.03003e-06
0.000221764
-6.40991e-06
0.000190167
-5.70628e-06
0.000156556
-4.91146e-06
0.000120804
-4.01698e-06
8.27851e-05
-3.01404e-06
4.23574e-05
-1.89338e-06
-6.55346e-07
0.000532627
0.000517055
0.000500855
0.000483968
0.000466328
0.000447862
0.000428488
0.000408114
0.000386643
0.000363967
0.000339974
0.000314547
0.000287508
0.000258683
0.000228015
0.000195441
0.000160828
0.000124046
8.4968e-05
4.34572e-05
)
;

boundaryField
{
    inlet
    {
        type            calculated;
        value           nonuniform 0();
    }
    outlet
    {
        type            calculated;
        value           uniform 0;
    }
    flap
    {
        type            calculated;
        value           nonuniform 0();
    }
    upperWall
    {
        type            calculated;
        value           nonuniform List<scalar> 
21
(
0
0
0
0
0
0
0
0
0
0
0
9.41293e-15
0
0
0
0
0
-5.33913e-15
0
-1.11351e-14
0
)
;
    }
    lowerWall
    {
        type            calculated;
        value           nonuniform 0();
    }
    frontAndBack
    {
        type            empty;
        value           nonuniform 0();
    }
    procBoundary2to1
    {
        type            processor;
        value           nonuniform List<scalar> 
17
(
-0.000142171
-0.000159428
-0.000178574
-0.000199674
-0.000222683
-0.000247513
-0.000274023
-0.000302004
-0.000331181
-0.000361201
-0.000391632
-0.000421951
-0.000451545
-0.000479696
-0.000505574
-0.000528237
-0.000546626
)
;
    }
    procBoundary2to4
    {
        type            processor;
        value           nonuniform List<scalar> 
11
(
-4.27696e-05
-4.66514e-05
-5.12098e-05
-5.65799e-05
-6.28665e-05
-7.01848e-05
-7.86543e-05
-8.84038e-05
-9.95663e-05
-0.00011228
-0.00012652
)
;
    }
    procBoundary2to5
    {
        type            processor;
        value           nonuniform List<scalar> 
34
(
1.04923e-05
1.28741e-05
6.23667e-05
1.67134e-05
1.93731e-05
8.566e-05
2.34708e-05
9.80307e-05
2.75416e-05
3.00872e-05
0.000115285
3.3818e-05
3.58617e-05
0.000125686
3.8833e-05
0.0001293
4.1169e-05
4.16954e-05
0.000127054
4.25252e-05
0.000124044
4.22843e-05
4.03072e-05
0.000108094
3.78239e-05
9.77927e-05
3.39415e-05
2.85881e-05
6.67159e-05
2.20242e-05
4.78434e-05
1.40356e-05
2.5532e-05
4.85213e-06
)
;
    }
}


// ************************************************************************* //
