/*--------------------------------*- C++ -*----------------------------------*\
| =========                 |                                                 |
| \\      /  F ield         | OpenFOAM: The Open Source CFD Toolbox           |
|  \\    /   O peration     | Version:  dev                                   |
|   \\  /    A nd           | Web:      www.OpenFOAM.org                      |
|    \\/     M anipulation  |                                                 |
\*---------------------------------------------------------------------------*/
FoamFile
{
    version     2.0;
    format      ascii;
    class       volVectorField;
    location    "0.17";
    object      Force;
}
// * * * * * * * * * * * * * * * * * * * * * * * * * * * * * * * * * * * * * //

dimensions      [1 1 -2 0 0 0 0];

internalField   uniform (0 0 0);

boundaryField
{
    inlet
    {
        type            calculated;
        value           uniform (0 0 0);
    }
    outlet
    {
        type            calculated;
        value           uniform (0 0 0);
    }
    flap
    {
        type            calculated;
        value           nonuniform List<vector> 
33
(
(2.33841 1.66938e-17 -0.0594461)
(2.3115 -7.7556e-19 -0.0835467)
(2.28966 9.03272e-23 -0.082093)
(2.2664 -2.29589e-39 -0.0598361)
(2.24291 1.08827e-23 -0.0313965)
(2.21791 -1.04945e-22 -0.00962049)
(2.1852 -4.69243e-23 0.00131034)
(2.13599 -1.63534e-17 0.0032572)
(2.06554 1.63915e-17 -0.00315928)
(1.96894 2.01463e-23 -0.0077347)
(1.84566 1.62957e-17 -0.00354175)
(1.681 -9.90101e-41 0.00113194)
(1.44311 -3.50325e-46 0.00581614)
(1.06253 -6.23052e-25 0.00783312)
(0.337294 6.15588e-25 0.00850834)
(0.00108233 4.84289e-42 1.90088)
(-0.000509925 8.03038e-18 1.68889)
(0.00045327 3.64219e-24 1.35362)
(1.95553 1.56671e-17 -0.047397)
(1.98484 1.61247e-17 -0.0717003)
(2.01642 1.03819e-22 -0.0716852)
(2.0528 -6.88312e-19 -0.0547737)
(2.09325 3.51076e-19 -0.0301495)
(2.14095 1.65494e-17 -0.00863058)
(2.19634 4.59144e-23 0.00259911)
(2.25673 -3.28266e-23 0.00263606)
(2.32099 1.62947e-17 -0.00343859)
(2.38342 2.21733e-24 -0.00946555)
(2.43282 1.63817e-17 -0.00786359)
(2.45195 -1.1399e-23 0.000828248)
(2.4309 1.63656e-17 0.00292307)
(2.37122 1.25008e-20 0.00541728)
(2.2733 1.63309e-17 0.00553688)
)
;
    }
    upperWall
    {
        type            calculated;
        value           uniform (0 0 0);
    }
    lowerWall
    {
        type            calculated;
        value           uniform (0 0 0);
    }
    frontAndBack
    {
        type            empty;
    }
}


// ************************************************************************* //
