/*--------------------------------*- C++ -*----------------------------------*\
| =========                 |                                                 |
| \\      /  F ield         | OpenFOAM: The Open Source CFD Toolbox           |
|  \\    /   O peration     | Version:  dev                                   |
|   \\  /    A nd           | Web:      www.OpenFOAM.org                      |
|    \\/     M anipulation  |                                                 |
\*---------------------------------------------------------------------------*/
FoamFile
{
    version     2.0;
    format      ascii;
    class       surfaceScalarField;
    location    "2";
    object      phi;
}
// * * * * * * * * * * * * * * * * * * * * * * * * * * * * * * * * * * * * * //

dimensions      [0 3 -1 0 0 0 0];

internalField   nonuniform List<scalar> 
865
(
0.104024
0.00817411
0.0950761
0.00894674
0.0852482
0.00982594
0.0744136
0.0108326
0.0624152
0.0119967
0.0490466
0.0133673
0.0340073
0.0150386
0.0166411
0.0173657
0.016641
0.122726
0.0159631
0.114072
0.0175997
0.104404
0.0194921
0.0935198
0.0217143
0.0811241
0.0243907
0.0667545
0.0277354
0.0496327
0.0321595
0.0278098
0.0391882
0.0444507
0.129157
0.0231594
0.121059
0.0256955
0.111857
0.028692
0.101258
0.032311
0.0888032
0.0368442
0.0736814
0.0428557
0.0545856
0.0512544
0.0300633
0.0637102
0.0745139
0.131395
0.0300807
0.123549
0.0335394
0.114516
0.0377234
0.103902
0.0429231
0.0911496
0.0495941
0.0753796
0.0586242
0.054756
0.0718768
0.0291116
0.0893541
0.103625
0.132069
0.0369769
0.124208
0.0413984
0.115077
0.0468525
0.104238
0.0537589
0.0909731
0.0628574
0.0744812
0.0751143
0.0528661
0.0934907
0.0269769
0.115243
0.130602
0.132192
0.0439786
0.124158
0.0494315
0.114753
0.0562554
0.103537
0.0649723
0.0898006
0.0765916
0.072572
0.0923412
0.0500917
0.11597
0.0243642
0.14097
0.154966
0.132184
0.0511352
0.12392
0.0576946
0.114202
0.0659704
0.102514
0.0766586
0.0882417
0.0908616
0.0704738
0.110107
0.0473209
0.139121
0.0217495
0.16654
0.176716
0.132251
0.0584501
0.123761
0.0661837
0.113738
0.0759912
0.101678
0.0887162
0.0868123
0.105725
0.0685665
0.128351
0.0449929
0.162694
0.0195412
0.191991
0.196257
0.132533
0.0658998
0.123844
0.0748726
0.113547
0.0862866
0.101136
0.101125
0.0858308
0.121029
0.0671658
0.147015
0.0432159
0.186643
0.0180607
0.217146
0.214319
0.133149
0.0734251
0.12432
0.0837016
0.113831
0.0967748
0.101125
0.113829
0.0855528
0.1366
0.0664795
0.166087
0.0423096
0.210813
0.0176817
0.241775
0.232002
0.134213
0.0809313
0.125388
0.092528
0.11484
0.107323
0.102082
0.126587
0.0863567
0.152325
0.066808
0.185636
0.0428563
0.234766
0.0189229
0.26571
0.250926
0.135833
0.0882912
0.127167
0.101197
0.1168
0.117691
0.104229
0.13916
0.0884853
0.168069
0.0687545
0.205368
0.045673
0.25785
0.0225073
0.28888
0.273436
0.138083
0.0953813
0.129773
0.109511
0.119898
0.127569
0.107809
0.151251
0.0927382
0.183143
0.0740662
0.224045
0.0532385
0.278684
0.0310586
0.311065
0.304497
0.141051
0.102022
0.133391
0.117177
0.124348
0.136616
0.11349
0.162114
0.100661
0.195977
0.0855173
0.239197
0.0702836
0.293928
0.0513227
0.330033
0.355823
0.144543
0.108005
0.137748
0.12398
0.129998
0.144372
0.121473
0.170646
0.112575
0.204884
0.103976
0.247809
0.0994616
0.298455
0.0938032
0.3357
0.449631
0.000834309
-0.000833665
0.00265403
-0.00180716
0.0048295
-0.00211717
0.00700481
-0.00206958
0.00883234
-0.0017416
0.0103414
-0.00147541
0.0117065
-0.00135796
0.0130397
-0.0013275
0.0143914
-0.00133827
-0.0013442
0.000657395
-0.00149042
0.00245848
-0.00359409
0.00503914
-0.00463571
0.00761423
-0.00453783
0.00972197
-0.00376605
0.0114022
-0.00312427
0.0128583
-0.00280783
0.0142171
-0.00268029
0.0155191
-0.00262654
-0.00258297
0.000489705
-0.00197937
0.00209188
-0.00517909
0.00445094
-0.00692827
0.00662728
-0.00661127
0.00833208
-0.00539633
0.00963983
-0.00440428
0.0106938
-0.00385476
0.0115841
-0.00356296
0.0123425
-0.0033701
-0.00319751
0.000547145
-0.00252532
0.00201944
-0.00663028
0.00396471
-0.00880498
0.00549259
-0.0080465
0.006576
-0.00641797
0.00732227
-0.00512642
0.00780141
-0.00432412
0.00804946
-0.00379982
0.00808715
-0.00339058
-0.00301354
0.000728594
-0.00325179
0.00204127
-0.0079179
0.00339648
-0.0100939
0.00414195
-0.00871428
0.00448272
-0.00671016
0.00451929
-0.0051418
0.00426538
-0.00405742
0.00371101
-0.00323038
0.00286174
-0.00252145
-0.00188449
0.000959889
-0.00420812
0.00195283
-0.00888319
0.00252579
-0.0106076
0.00236944
-0.00849705
0.00184148
-0.00614439
0.0010101
-0.00429035
-0.000167942
-0.00286379
-0.00174562
-0.00163467
-0.00372044
-0.000524923
0.000503186
0.00114168
-0.00534461
0.00156428
-0.00927814
0.00112837
-0.0101232
-8.43762e-05
-0.00723888
-0.00167488
-0.00452353
-0.00362421
-0.00232058
-0.00600652
-0.000463115
-0.00878655
0.00116572
-0.0117271
0.00243853
0.00332337
0.00111105
-0.00644917
0.000653621
-0.00879584
-0.0010952
-0.00833771
-0.00352774
-0.00477339
-0.00628227
-0.00174364
-0.00938655
0.000804746
-0.0125836
0.00275438
-0.0154874
0.00409137
-0.0180367
0.00501132
0.00566127
0.000642433
-0.00708456
-0.00108507
-0.00704809
-0.00423813
-0.00515876
-0.00784771
-0.00114017
-0.0115282
0.00195826
-0.0148491
0.00414652
-0.0176931
0.00561977
-0.020228
0.00664874
-0.0225354
0.00734222
0.00777902
-0.000499308
-0.00657849
-0.00369341
-0.00383887
-0.00813718
-0.000697136
-0.0123209
0.00306084
-0.0158304
0.00548566
-0.0187921
0.00712793
-0.0214271
0.00827608
-0.0237895
0.00903374
-0.025899
0.00947502
0.00967107
-0.00240127
-0.00417144
-0.00696932
0.000739738
-0.0118258
0.00417218
-0.015669
0.00691773
-0.0188752
0.00870722
-0.0216909
0.00996176
-0.0241767
0.0107826
-0.0263551
0.0112343
-0.0282389
0.0113818
0.0112976
-0.00478689
0.000619834
-0.0100163
0.00597619
-0.0143944
0.00856011
-0.0179278
0.010463
-0.0209967
0.0117902
-0.0236779
0.0126597
-0.0259814
0.0131058
-0.0279236
0.0131981
-0.0295308
0.0130116
0.0126168
-0.00737071
0.00799345
-0.0120187
0.0106289
-0.0159072
0.0124567
-0.0192744
0.0138409
-0.0222063
0.0147355
-0.0247115
0.0151809
-0.0267778
0.0151908
-0.0284258
0.0148669
-0.0297032
0.0143112
0.0135881
-0.00952181
0.0175169
-0.0127018
0.0138125
-0.0163882
0.0161501
-0.0196429
0.0171058
-0.0224211
0.0175268
-0.0247271
0.0175025
-0.026499
0.016981
-0.0277775
0.0161658
-0.0286504
0.0152059
0.0141486
-0.00343347
0.0209515
-0.00843014
0.0188125
-0.0154628
0.0231892
-0.0189697
0.0206224
-0.0216875
0.0202573
-0.0237806
0.0196109
-0.0251163
0.0183345
-0.0258548
0.0169244
-0.0261785
0.015551
0.155614
0.113168
0.150033
0.12957
0.144372
0.150042
0.13923
0.175797
0.135925
0.208201
0.137383
0.246368
0.150664
0.285192
0.18106
0.305317
0.290394
0.340302
0.16543
0.117231
0.161609
0.133403
0.158591
0.153072
0.157409
0.176993
0.160547
0.205079
0.172442
0.234492
0.200803
0.256852
0.247075
0.25906
0.250496
0.286982
0.176769
0.119823
0.175
0.135186
0.174778
0.15331
0.177659
0.174129
0.186387
0.196372
0.204419
0.216484
0.233486
0.227806
0.266663
0.225901
0.21403
0.303141
0.189302
0.189565
0.134939
0.192058
0.150835
0.198411
0.167796
0.210771
0.184035
0.230707
0.196572
0.25687
0.201668
0.28528
0.197511
0.183438
0.315885
0.204856
0.20972
0.218567
0.158971
0.232622
0.170005
0.251941
0.17728
0.274599
0.179034
0.297765
0.174365
0.161316
0.319901
0.237377
0.251525
0.268925
0.159907
0.288023
0.159961
0.30683
0.155579
0.144011
0.324149
0.282987
0.299156
0.314967
0.13979
0.129642
0.329352
0.322662
0.334894
0.218914
0.121388
0.148789
0.0701263
0.0490008
0.0997882
0.286211
0.122163
0.269903
0.0864363
0.0713837
0.247521
0.318621
0.106687
0.318338
0.0867229
0.0795152
0.31021
0.327915
0.094664
0.332782
0.0818619
0.0789845
0.333318
0.330272
0.0843012
0.33713
0.0750104
0.0743351
0.341786
0.333048
0.0754114
0.339893
0.0681723
0.0685716
0.345664
0.336834
0.067938
0.342966
0.0620478
0.0629184
0.348628
0.341304
0.346725
0.0566337
0.0576994
0.351953
0.351184
0.355954
0.0506232
0.0701186
0.0168287
0.052611
-7.82949e-05
0.0401029
-0.0107987
0.0313526
-0.0162663
0.0257377
-0.0186601
0.0220204
-0.0196014
0.0192941
-0.0198595
0.017203
0.0155002
0.208122
0.109522
0.175057
0.0856812
0.147302
0.0678652
0.123142
0.0555228
0.102441
0.0464515
0.0850163
0.0394605
0.0704151
0.0339136
0.0582398
0.029399
0.02562
0.291784
0.127954
0.269481
0.107991
0.24729
0.0900646
0.226603
0.0762204
0.207724
0.065344
0.190689
0.0565108
0.17544
0.0491816
0.161867
0.0429919
0.0376581
0.328335
0.132945
0.318146
0.118189
0.305541
0.102679
0.292142
0.0896313
0.278834
0.0786663
0.266037
0.0693233
0.253973
0.0612645
0.242754
0.0542307
0.0480112
0.345144
0.129597
0.343551
0.119793
0.338703
0.107538
0.331945
0.096402
0.324179
0.0864455
0.315996
0.0775229
0.307768
0.0695107
0.299724
0.0622947
0.0557568
0.352975
0.122297
0.356424
0.116355
0.356798
0.107176
0.355026
0.0981872
0.351811
0.0896746
0.347657
0.0816928
0.342947
0.0742388
0.337963
0.0672977
0.0608604
0.357119
0.113816
0.363046
0.11044
0.366533
0.103701
0.368077
0.0966552
0.368143
0.0896232
0.367095
0.082756
0.365241
0.0761088
0.362835
0.0697229
0.0636663
0.360388
0.10539
0.367237
0.103603
0.372305
0.0986451
0.375799
0.0931733
0.377974
0.0874611
0.379073
0.0816712
0.379309
0.0758889
0.378853
0.070195
0.0646606
0.363927
0.370912
0.0966279
0.376622
0.092946
0.381115
0.0886911
0.384513
0.0840742
0.38696
0.0792375
0.38858
0.0742819
0.389499
0.0692915
0.0643229
0.37484
0.380705
0.385634
0.389676
0.0800424
0.392904
0.0760199
0.395397
0.0717996
0.39724
0.0674607
0.0630434
0.39449
0.398155
0.401184
0.0687795
0.403635
0.0650188
0.0611162
0.406691
0.409532
0.0587612
)
;

boundaryField
{
    inlet
    {
        type            calculated;
        value           nonuniform 0();
    }
    outlet
    {
        type            calculated;
        value           nonuniform 0();
    }
    flap
    {
        type            calculated;
        value           nonuniform List<scalar> 
33
(
6.93335e-33
0
0
-4.93038e-32
-1.84889e-32
0
1.47911e-31
2.46519e-32
-7.39557e-32
0
0
-9.86076e-32
0
0
0
-1.84889e-32
0
5.85483e-32
1.07579e-49
-1.38984e-49
1.2326e-32
4.93038e-32
0
0
0
-2.95823e-31
0
0
3.9443e-31
1.97215e-31
0
0
-2.95823e-31
)
;
    }
    upperWall
    {
        type            calculated;
        value           nonuniform 0();
    }
    lowerWall
    {
        type            calculated;
        value           uniform 0;
    }
    frontAndBack
    {
        type            empty;
        value           nonuniform 0();
    }
    procBoundary4to1
    {
        type            processor;
        value           nonuniform List<scalar> 
30
(
0.120818
-0.202649
0.132747
0.14599
-0.2271
0.148716
0.155883
-0.267718
0.144662
0.143816
-0.309103
0.12625
0.117425
0.061538
-0.346345
0.051801
0.0529382
0.0974258
-0.368044
0.0898413
0.0870904
0.083772
-0.39014
0.0757013
0.0723641
-0.403339
0.0654349
0.062185
-0.415372
0.0561087
)
;
    }
    procBoundary4to2
    {
        type            processor;
        value           nonuniform List<scalar> 
11
(
0.149851
0.232422
0.291999
0.332878
0.360047
0.377875
0.389851
0.398531
0.40557
0.411892
0.418029
)
;
    }
    procBoundary4to3
    {
        type            processor;
        value           nonuniform List<scalar> 
19
(
-0.112199
-0.130516
-0.136354
-0.138317
-0.138965
-0.139194
-0.139341
-0.139565
-0.139981
-0.140672
-0.141716
-0.143189
-0.145166
-0.147684
-0.150516
-0.160765
-0.16948
-0.179348
-0.190285
)
;
    }
    procBoundary4to5
    {
        type            processor;
        value           nonuniform List<scalar> 
18
(
0.0157537
0.0167765
0.0129764
0.00792375
0.00175459
-0.00608531
-0.014524
-0.0203512
-0.0246299
-0.0277683
-0.0298429
-0.0308279
-0.0306526
-0.0291896
-0.0262003
0.0141913
-0.019787
0.0481416
)
;
    }
}


// ************************************************************************* //
