/*--------------------------------*- C++ -*----------------------------------*\
| =========                 |                                                 |
| \\      /  F ield         | OpenFOAM: The Open Source CFD Toolbox           |
|  \\    /   O peration     | Version:  dev                                   |
|   \\  /    A nd           | Web:      www.OpenFOAM.org                      |
|    \\/     M anipulation  |                                                 |
\*---------------------------------------------------------------------------*/
FoamFile
{
    version     2.0;
    format      ascii;
    class       pointVectorField;
    location    "2";
    object      pointDisplacement;
}
// * * * * * * * * * * * * * * * * * * * * * * * * * * * * * * * * * * * * * //

dimensions      [0 1 0 0 0 0 0];

internalField   nonuniform List<vector> 
1062
(
(0.0792159 0 0)
(0.0704885 0 0)
(0.061375 0 0)
(0.0519908 0 0)
(0.0424798 0 0)
(0.0330391 0 0)
(0.0239845 0 0)
(0.0158839 0 0)
(0.0100662 0 0)
(1.19445e-09 0 0)
(0.0802303 0 -0.00113672)
(0.0716703 0 -0.0008178)
(0.0627628 0 -0.000414219)
(0.0536376 0 9.00924e-05)
(0.0444612 0 0.000714016)
(0.0354567 0 0.00147994)
(0.0269612 0 0.00241316)
(0.0195871 0 0.00352852)
(0.0148804 0 0.00471887)
(0.00704154 0 0.00667936)
(0.0832555 0 -0.00238461)
(0.0751878 0 -0.00177855)
(0.0668792 0 -0.00101387)
(0.0584956 0 -6.24105e-05)
(0.0502627 0 0.00110679)
(0.0425025 0 0.00252398)
(0.0356723 0 0.00420802)
(0.03046 0 0.00614219)
(0.0287434 0 0.00801387)
(0.0235445 0 0.0111229)
(0.0882525 0 -0.00384925)
(0.0809891 0 -0.00301783)
(0.0736567 0 -0.0019757)
(0.0664688 0 -0.000690643)
(0.0597199 0 0.000868245)
(0.0538506 0 0.0027173)
(0.0495679 0 0.00482002)
(0.0477867 0 0.00705447)
(0.0504364 0 0.00882825)
(0.0487904 0 0.0121447)
(0.0951414 0 -0.00562259)
(0.088978 0 -0.00465575)
(0.0829645 0 -0.00345295)
(0.0773851 0 -0.00199206)
(0.072632 0 -0.000264249)
(0.0692443 0 0.00171113)
(0.0680954 0 0.00382109)
(0.070531 0 0.00574452)
(0.0785134 0 0.00658328)
(0.0808378 0 0.00929339)
(0.103816 0 -0.00778373)
(0.0990252 0 -0.0067926)
(0.094639 0 -0.00557222)
(0.0910238 0 -0.00412327)
(0.0886671 0 -0.00247286)
(0.088285 0 -0.000717128)
(0.0908183 0 0.000937779)
(0.0978679 0 0.00196453)
(0.111617 0 0.00115543)
(0.11807 0 0.00265763)
(0.11414 0 -0.0103928)
(0.110962 0 -0.00950167)
(0.108482 0 -0.00842389)
(0.10715 0 -0.00719494)
(0.107531 0 -0.00588725)
(0.110476 0 -0.00468163)
(0.117143 0 -0.00393208)
(0.129143 0 -0.00433028)
(0.148706 0 -0.00731686)
(0.159155 0 -0.00743448)
(0.125971 0 -0.0134927)
(0.124607 0 -0.0128321)
(0.124264 0 -0.0120621)
(0.125465 0 -0.0112594)
(0.12889 0 -0.0105634)
(0.135439 0 -0.0102297)
(0.146476 0 -0.0107654)
(0.163631 0 -0.0130219)
(0.188897 0 -0.0185468)
(0.203 0 -0.0205254)
(0.139147 0 -0.0171066)
(0.139764 0 -0.0168072)
(0.141739 0 -0.0165069)
(0.145668 0 -0.0163289)
(0.152326 0 -0.0164814)
(0.16274 0 -0.0173214)
(0.178299 0 -0.0194628)
(0.200668 0 -0.0238999)
(0.23141 0 -0.0321538)
(0.248768 0 -0.0360307)
(0.153478 0 -0.0212335)
(0.15621 0 -0.0214228)
(0.160652 0 -0.0217473)
(0.167466 0 -0.0223803)
(0.177512 0 -0.0235996)
(0.191934 0 -0.0258599)
(0.212111 0 -0.0298635)
(0.239736 0 -0.0367187)
(0.275573 0 -0.04772)
(0.29583 0 -0.0534094)
(0.168757 0 -0.0258518)
(0.173701 0 -0.0266462)
(0.180718 0 -0.0277381)
(0.190526 0 -0.0293478)
(0.204086 0 -0.0318286)
(0.222578 0 -0.0357054)
(0.247448 0 -0.0417768)
(0.280321 0 -0.0511991)
(0.320753 0 -0.0648245)
(0.343722 0 -0.0721986)
(0.184759 0 -0.0309192)
(0.191962 0 -0.0324186)
(0.201596 0 -0.0343936)
(0.214452 0 -0.0371195)
(0.23155 0 -0.0410095)
(0.254151 0 -0.0466682)
(0.283819 0 -0.0549863)
(0.321815 0 -0.0670263)
(0.366278 0 -0.0830575)
(0.392125 0 -0.0919828)
(0.201242 0 -0.0363734)
(0.210696 0 -0.0386554)
(0.222929 0 -0.0416036)
(0.238796 0 -0.0455452)
(0.259382 0 -0.0509545)
(0.286118 0 -0.0585386)
(0.320585 0 -0.0692307)
(0.36343 0 -0.0838595)
(0.411341 0 -0.102044)
(0.440794 0 -0.112433)
(0.217946 0 -0.0421336)
(0.2296 0 -0.0452552)
(0.244344 0 -0.0492335)
(0.26308 0 -0.0544433)
(0.287026 0 -0.0614428)
(0.3177 0 -0.07101)
(0.356569 0 -0.084066)
(0.403668 0 -0.101162)
(0.454423 0 -0.121299)
(0.489548 0 -0.133283)
(0.234617 0 -0.0481078)
(0.248356 0 -0.0520952)
(0.26542 0 -0.0571137)
(0.286783 0 -0.0635951)
(0.313712 0 -0.072154)
(0.34762 0 -0.0835728)
(0.389784 0 -0.0987439)
(0.439683 0 -0.117973)
(0.492282 0 -0.139909)
(0.538242 0 -0.154292)
(0.251129 0 -0.0542409)
(0.266756 0 -0.059083)
(0.285882 0 -0.0651172)
(0.309476 0 -0.0728042)
(0.338646 0 -0.0827392)
(0.374585 0 -0.0956824)
(0.418116 0 -0.11245)
(0.467826 0 -0.133241)
(0.518186 0 -0.157135)
(0.586973 0 -0.1754)
(0.0792159 0 0)
(0.0704885 0 0)
(0.061375 0 0)
(0.0519908 0 0)
(0.0424798 0 0)
(0.0330391 0 0)
(0.0239845 0 0)
(0.0158839 0 0)
(0.0100662 0 0)
(0 0 0)
(0.0802303 0 -0.00113672)
(0.0716703 0 -0.0008178)
(0.0627628 0 -0.000414219)
(0.0536376 0 9.00924e-05)
(0.0444612 0 0.000714016)
(0.0354567 0 0.00147994)
(0.0269612 0 0.00241316)
(0.0195871 0 0.00352852)
(0.0148804 0 0.00471887)
(0.00704154 0 0.00667936)
(0.0832555 0 -0.00238461)
(0.0751878 0 -0.00177855)
(0.0668792 0 -0.00101387)
(0.0584956 0 -6.24105e-05)
(0.0502627 0 0.00110679)
(0.0425025 0 0.00252398)
(0.0356723 0 0.00420802)
(0.03046 0 0.00614219)
(0.0287434 0 0.00801387)
(0.0235445 0 0.0111229)
(0.0882525 0 -0.00384925)
(0.0809891 0 -0.00301783)
(0.0736567 0 -0.0019757)
(0.0664688 0 -0.000690643)
(0.0597199 0 0.000868245)
(0.0538506 0 0.0027173)
(0.0495679 0 0.00482002)
(0.0477867 0 0.00705447)
(0.0504364 0 0.00882825)
(0.0487904 0 0.0121447)
(0.0951414 0 -0.00562259)
(0.088978 0 -0.00465575)
(0.0829645 0 -0.00345295)
(0.0773851 0 -0.00199206)
(0.072632 0 -0.000264249)
(0.0692443 0 0.00171113)
(0.0680954 0 0.00382109)
(0.070531 0 0.00574452)
(0.0785134 0 0.00658328)
(0.0808378 0 0.00929339)
(0.103816 0 -0.00778373)
(0.0990252 0 -0.0067926)
(0.094639 0 -0.00557222)
(0.0910238 0 -0.00412327)
(0.0886671 0 -0.00247286)
(0.088285 0 -0.000717128)
(0.0908183 0 0.000937779)
(0.0978679 0 0.00196453)
(0.111617 0 0.00115543)
(0.11807 0 0.00265763)
(0.11414 0 -0.0103928)
(0.110962 0 -0.00950167)
(0.108482 0 -0.00842389)
(0.10715 0 -0.00719494)
(0.107531 0 -0.00588725)
(0.110476 0 -0.00468163)
(0.117143 0 -0.00393208)
(0.129143 0 -0.00433028)
(0.148706 0 -0.00731686)
(0.159155 0 -0.00743448)
(0.125971 0 -0.0134927)
(0.124607 0 -0.0128321)
(0.124264 0 -0.0120621)
(0.125465 0 -0.0112594)
(0.12889 0 -0.0105634)
(0.135439 0 -0.0102297)
(0.146476 0 -0.0107654)
(0.163631 0 -0.0130219)
(0.188897 0 -0.0185468)
(0.203 0 -0.0205254)
(0.139147 0 -0.0171066)
(0.139764 0 -0.0168072)
(0.141739 0 -0.0165069)
(0.145668 0 -0.0163289)
(0.152326 0 -0.0164814)
(0.16274 0 -0.0173214)
(0.178299 0 -0.0194628)
(0.200668 0 -0.0238999)
(0.23141 0 -0.0321538)
(0.248768 0 -0.0360307)
(0.153478 0 -0.0212335)
(0.15621 0 -0.0214228)
(0.160652 0 -0.0217473)
(0.167466 0 -0.0223803)
(0.177512 0 -0.0235996)
(0.191934 0 -0.0258599)
(0.212111 0 -0.0298635)
(0.239736 0 -0.0367187)
(0.275573 0 -0.04772)
(0.29583 0 -0.0534094)
(0.168757 0 -0.0258518)
(0.173701 0 -0.0266462)
(0.180718 0 -0.0277381)
(0.190526 0 -0.0293478)
(0.204086 0 -0.0318286)
(0.222578 0 -0.0357054)
(0.247448 0 -0.0417768)
(0.280321 0 -0.0511991)
(0.320753 0 -0.0648245)
(0.343722 0 -0.0721986)
(0.184759 0 -0.0309192)
(0.191962 0 -0.0324186)
(0.201596 0 -0.0343936)
(0.214452 0 -0.0371195)
(0.23155 0 -0.0410095)
(0.254151 0 -0.0466682)
(0.283819 0 -0.0549863)
(0.321815 0 -0.0670263)
(0.366278 0 -0.0830575)
(0.392125 0 -0.0919828)
(0.201242 0 -0.0363734)
(0.210696 0 -0.0386554)
(0.222929 0 -0.0416036)
(0.238796 0 -0.0455452)
(0.259382 0 -0.0509545)
(0.286118 0 -0.0585386)
(0.320585 0 -0.0692307)
(0.36343 0 -0.0838595)
(0.411341 0 -0.102044)
(0.440794 0 -0.112433)
(0.217946 0 -0.0421336)
(0.2296 0 -0.0452552)
(0.244344 0 -0.0492335)
(0.26308 0 -0.0544433)
(0.287026 0 -0.0614428)
(0.3177 0 -0.07101)
(0.356569 0 -0.084066)
(0.403668 0 -0.101162)
(0.454423 0 -0.121299)
(0.489548 0 -0.133283)
(0.234617 0 -0.0481078)
(0.248356 0 -0.0520952)
(0.26542 0 -0.0571137)
(0.286783 0 -0.0635951)
(0.313712 0 -0.072154)
(0.34762 0 -0.0835728)
(0.389784 0 -0.0987439)
(0.439683 0 -0.117973)
(0.492282 0 -0.139909)
(0.538242 0 -0.154292)
(0.251129 0 -0.0542409)
(0.266756 0 -0.059083)
(0.285882 0 -0.0651172)
(0.309476 0 -0.0728042)
(0.338646 0 -0.0827392)
(0.374585 0 -0.0956824)
(0.418116 0 -0.11245)
(0.467826 0 -0.133241)
(0.518186 0 -0.157135)
(0.586973 0 -0.1754)
(0 0 0)
(0.0223111 0 0)
(0.0533826 0 0)
(0.11084 0 0)
(0.185566 0 0)
(0.255896 0 0)
(0.309267 0 0)
(0.346319 0 0)
(0.371455 0 0)
(0.388251 0 0)
(0.399017 0 0)
(0.00576321 0 -0.00838079)
(0.0270543 0 -0.0103163)
(0.058898 0 -0.0136845)
(0.116372 0 -0.0177103)
(0.190109 0 -0.0211223)
(0.259124 0 -0.0229194)
(0.311506 0 -0.0233338)
(0.34793 0 -0.022965)
(0.372654 0 -0.0221954)
(0.389166 0 -0.0211759)
(0.399729 0 -0.0200061)
(0.019278 0 -0.0172611)
(0.0408266 0 -0.0211618)
(0.0748646 0 -0.0277388)
(0.132444 0 -0.0353302)
(0.203495 0 -0.0415685)
(0.268787 0 -0.044833)
(0.318248 0 -0.0456041)
(0.352768 0 -0.0448929)
(0.376244 0 -0.0433708)
(0.391897 0 -0.0413834)
(0.401847 0 -0.0390985)
(0.0405691 0 -0.0273193)
(0.0624523 0 -0.0330008)
(0.0994678 0 -0.0425157)
(0.156933 0 -0.0530472)
(0.22396 0 -0.0613393)
(0.283832 0 -0.0655559)
(0.328948 0 -0.0664918)
(0.360528 0 -0.0654313)
(0.38203 0 -0.0632087)
(0.396308 0 -0.0603086)
(0.405271 0 -0.0569843)
(0.0682672 0 -0.0390471)
(0.0906924 0 -0.0462249)
(0.130865 0 -0.0583416)
(0.187704 0 -0.0710906)
(0.249659 0 -0.0806086)
(0.303059 0 -0.0852316)
(0.342906 0 -0.0860522)
(0.370784 0 -0.0845391)
(0.389726 0 -0.081628)
(0.402193 0 -0.0778663)
(0.409862 0 -0.0736095)
(0.101272 0 -0.0526616)
(0.124318 0 -0.0610118)
(0.167372 0 -0.0753348)
(0.222797 0 -0.0894972)
(0.278863 0 -0.0993945)
(0.325235 0 -0.103888)
(0.359304 0 -0.104312)
(0.382988 0 -0.102205)
(0.398954 0 -0.0985671)
(0.409295 0 -0.0939976)
(0.415442 0 -0.0889278)
(0.138548 0 -0.0681191)
(0.162198 0 -0.0773287)
(0.207491 0 -0.0933679)
(0.260531 0 -0.108115)
(0.310069 0 -0.117604)
(0.349176 0 -0.121452)
(0.377277 0 -0.121217)
(0.396533 0 -0.118406)
(0.40929 0 -0.114017)
(0.417325 0 -0.108705)
(0.4218 0 -0.102926)
(0.17919 0 -0.0851909)
(0.203342 0 -0.0950019)
(0.24996 0 -0.112177)
(0.299506 0 -0.126664)
(0.342 0 -0.135044)
(0.373822 0 -0.137799)
(0.395983 0 -0.13666)
(0.410778 0 -0.133052)
(0.420287 0 -0.127938)
(0.425974 0 -0.121976)
(0.428704 0 -0.11559)
(0.222394 0 -0.10361)
(0.246915 0 -0.113783)
(0.293716 0 -0.13142)
(0.338542 0 -0.144792)
(0.373577 0 -0.151461)
(0.398249 0 -0.152781)
(0.414662 0 -0.15055)
(0.425159 0 -0.146096)
(0.431548 0 -0.140322)
(0.434937 0 -0.13381)
(0.435916 0 -0.126922)
(0.267499 0 -0.123073)
(0.292224 0 -0.133392)
(0.337801 0 -0.150693)
(0.376603 0 -0.162101)
(0.40389 0 -0.166581)
(0.421649 0 -0.166218)
(0.432674 0 -0.162801)
(0.439222 0 -0.157536)
(0.442722 0 -0.151186)
(0.443926 0 -0.144219)
(0.443201 0 -0.136933)
(0.313992 0 -0.143282)
(0.338652 0 -0.153514)
(0.3812 0 -0.169492)
(0.412613 0 -0.178101)
(0.432023 0 -0.180056)
(0.443296 0 -0.177906)
(0.449518 0 -0.173345)
(0.452592 0 -0.167364)
(0.453492 0 -0.16054)
(0.452676 0 -0.153227)
(0.45034 0 -0.145652)
(0.361448 0 -0.164001)
(0.385482 0 -0.173741)
(0.422614 0 -0.187131)
(0.445305 0 -0.192164)
(0.457052 0 -0.191462)
(0.462664 0 -0.187656)
(0.464866 0 -0.182126)
(0.464971 0 -0.175573)
(0.463572 0 -0.168395)
(0.460927 0 -0.160848)
(0.457113 0 -0.153093)
(0.409538 0 -0.185013)
(0.431509 0 -0.193374)
(0.46024 0 -0.202636)
(0.473509 0 -0.203645)
(0.478527 0 -0.200509)
(0.479554 0 -0.195352)
(0.478473 0 -0.18909)
(0.476077 0 -0.182148)
(0.472692 0 -0.174761)
(0.468438 0 -0.167097)
(0.46331 0 -0.159272)
(0.458011 0 -0.20614)
(0.474356 0 -0.211049)
(0.492098 0 -0.214809)
(0.496759 0 -0.212038)
(0.496404 0 -0.20698)
(0.493813 0 -0.200883)
(0.490078 0 -0.194188)
(0.485637 0 -0.18708)
(0.480619 0 -0.179663)
(0.475025 0 -0.172026)
(0.468782 0 -0.164247)
(0.506603 0 -0.227272)
(0.510603 0 -0.224407)
(0.517326 0 -0.222375)
(0.514974 0 -0.216724)
(0.5105 0 -0.210577)
(0.50517 0 -0.204138)
(0.499451 0 -0.197418)
(0.49347 0 -0.19042)
(0.487206 0 -0.18317)
(0.480568 0 -0.175713)
(0.473427 0 -0.168101)
(0.555313 0 -0.248394)
(0.537538 0 -0.225141)
(0.534301 0 -0.221938)
(0.527501 0 -0.2167)
(0.520508 0 -0.211109)
(0.513513 0 -0.205179)
(0.506555 0 -0.198909)
(0.499565 0 -0.192312)
(0.492434 0 -0.185422)
(0.48503 0 -0.178283)
(0.477202 0 -0.170945)
(0 0 0)
(0.0223111 0 0)
(0.0533826 0 0)
(0.11084 0 0)
(0.185566 0 0)
(0.255896 0 0)
(0.309267 0 0)
(0.346319 0 0)
(0.371455 0 0)
(0.388251 0 0)
(0.399017 0 0)
(0.00576321 0 -0.00838079)
(0.0270543 0 -0.0103163)
(0.058898 0 -0.0136845)
(0.116372 0 -0.0177103)
(0.190109 0 -0.0211223)
(0.259124 0 -0.0229194)
(0.311506 0 -0.0233338)
(0.34793 0 -0.022965)
(0.372654 0 -0.0221954)
(0.389166 0 -0.0211759)
(0.399729 0 -0.0200061)
(0.019278 0 -0.0172611)
(0.0408266 0 -0.0211618)
(0.0748646 0 -0.0277388)
(0.132444 0 -0.0353302)
(0.203495 0 -0.0415685)
(0.268787 0 -0.044833)
(0.318248 0 -0.0456041)
(0.352768 0 -0.0448929)
(0.376244 0 -0.0433708)
(0.391897 0 -0.0413834)
(0.401847 0 -0.0390985)
(0.0405691 0 -0.0273193)
(0.0624523 0 -0.0330008)
(0.0994678 0 -0.0425157)
(0.156933 0 -0.0530472)
(0.22396 0 -0.0613393)
(0.283832 0 -0.0655559)
(0.328948 0 -0.0664918)
(0.360528 0 -0.0654313)
(0.38203 0 -0.0632087)
(0.396308 0 -0.0603086)
(0.405271 0 -0.0569843)
(0.0682672 0 -0.0390471)
(0.0906924 0 -0.0462249)
(0.130865 0 -0.0583416)
(0.187704 0 -0.0710906)
(0.249659 0 -0.0806086)
(0.303059 0 -0.0852316)
(0.342906 0 -0.0860522)
(0.370784 0 -0.0845391)
(0.389726 0 -0.081628)
(0.402193 0 -0.0778663)
(0.409862 0 -0.0736095)
(0.101272 0 -0.0526616)
(0.124318 0 -0.0610118)
(0.167372 0 -0.0753348)
(0.222797 0 -0.0894972)
(0.278863 0 -0.0993945)
(0.325235 0 -0.103888)
(0.359304 0 -0.104312)
(0.382988 0 -0.102205)
(0.398954 0 -0.0985671)
(0.409295 0 -0.0939976)
(0.415442 0 -0.0889278)
(0.138548 0 -0.0681191)
(0.162198 0 -0.0773287)
(0.207491 0 -0.0933679)
(0.260531 0 -0.108115)
(0.310069 0 -0.117604)
(0.349176 0 -0.121452)
(0.377277 0 -0.121217)
(0.396533 0 -0.118406)
(0.40929 0 -0.114017)
(0.417325 0 -0.108705)
(0.4218 0 -0.102926)
(0.17919 0 -0.0851909)
(0.203342 0 -0.0950019)
(0.24996 0 -0.112177)
(0.299506 0 -0.126664)
(0.342 0 -0.135044)
(0.373822 0 -0.137799)
(0.395983 0 -0.13666)
(0.410778 0 -0.133052)
(0.420287 0 -0.127938)
(0.425974 0 -0.121976)
(0.428704 0 -0.11559)
(0.222394 0 -0.10361)
(0.246915 0 -0.113783)
(0.293716 0 -0.13142)
(0.338542 0 -0.144792)
(0.373577 0 -0.151461)
(0.398249 0 -0.152781)
(0.414662 0 -0.15055)
(0.425159 0 -0.146096)
(0.431548 0 -0.140322)
(0.434937 0 -0.13381)
(0.435916 0 -0.126922)
(0.267499 0 -0.123073)
(0.292224 0 -0.133392)
(0.337801 0 -0.150693)
(0.376603 0 -0.162101)
(0.40389 0 -0.166581)
(0.421649 0 -0.166218)
(0.432674 0 -0.162801)
(0.439222 0 -0.157536)
(0.442722 0 -0.151186)
(0.443926 0 -0.144219)
(0.443201 0 -0.136933)
(0.313992 0 -0.143282)
(0.338652 0 -0.153514)
(0.3812 0 -0.169492)
(0.412613 0 -0.178101)
(0.432023 0 -0.180056)
(0.443296 0 -0.177906)
(0.449518 0 -0.173345)
(0.452592 0 -0.167364)
(0.453492 0 -0.16054)
(0.452676 0 -0.153227)
(0.45034 0 -0.145652)
(0.361448 0 -0.164001)
(0.385482 0 -0.173741)
(0.422614 0 -0.187131)
(0.445305 0 -0.192164)
(0.457052 0 -0.191462)
(0.462664 0 -0.187656)
(0.464866 0 -0.182126)
(0.464971 0 -0.175573)
(0.463572 0 -0.168395)
(0.460927 0 -0.160848)
(0.457113 0 -0.153093)
(0.409538 0 -0.185013)
(0.431509 0 -0.193374)
(0.46024 0 -0.202636)
(0.473509 0 -0.203645)
(0.478527 0 -0.200509)
(0.479554 0 -0.195352)
(0.478473 0 -0.18909)
(0.476077 0 -0.182148)
(0.472692 0 -0.174761)
(0.468438 0 -0.167097)
(0.46331 0 -0.159272)
(0.458011 0 -0.20614)
(0.474356 0 -0.211049)
(0.492098 0 -0.214809)
(0.496759 0 -0.212038)
(0.496404 0 -0.20698)
(0.493813 0 -0.200883)
(0.490078 0 -0.194188)
(0.485637 0 -0.18708)
(0.480619 0 -0.179663)
(0.475025 0 -0.172026)
(0.468782 0 -0.164247)
(0.506603 0 -0.227272)
(0.510603 0 -0.224407)
(0.517326 0 -0.222375)
(0.514974 0 -0.216724)
(0.5105 0 -0.210577)
(0.50517 0 -0.204138)
(0.499451 0 -0.197418)
(0.49347 0 -0.19042)
(0.487206 0 -0.18317)
(0.480568 0 -0.175713)
(0.473427 0 -0.168101)
(0.555313 0 -0.248394)
(0.537538 0 -0.225141)
(0.534301 0 -0.221938)
(0.527501 0 -0.2167)
(0.520508 0 -0.211109)
(0.513513 0 -0.205179)
(0.506555 0 -0.198909)
(0.499565 0 -0.192312)
(0.492434 0 -0.185422)
(0.48503 0 -0.178283)
(0.477202 0 -0.170945)
(0.267417 0 -0.0605011)
(0.284695 0 -0.0661637)
(0.305527 0 -0.0731393)
(0.330711 0 -0.0818538)
(0.361119 0 -0.0928512)
(0.397538 0 -0.106786)
(0.43987 0 -0.12418)
(0.48541 0 -0.144802)
(0.527602 0 -0.167193)
(0.555627 0 -0.186985)
(0.283197 0 -0.0667655)
(0.301805 0 -0.0731685)
(0.323802 0 -0.0809205)
(0.349795 0 -0.0903944)
(0.380347 0 -0.102037)
(0.415585 0 -0.116245)
(0.454399 0 -0.133059)
(0.493272 0 -0.151577)
(0.526489 0 -0.169728)
(0.547616 0 -0.184088)
(0.298111 0 -0.0728682)
(0.317602 0 -0.0798654)
(0.340164 0 -0.0881757)
(0.366196 0 -0.0981009)
(0.395833 0 -0.109912)
(0.428558 0 -0.123694)
(0.462638 0 -0.139079)
(0.494779 0 -0.154965)
(0.521147 0 -0.169859)
(0.537609 0 -0.181363)
(0.311841 0 -0.0786474)
(0.33175 0 -0.0860651)
(0.354321 0 -0.0947054)
(0.37968 0 -0.104755)
(0.407551 0 -0.116289)
(0.43699 0 -0.129136)
(0.466185 0 -0.142743)
(0.492663 0 -0.156196)
(0.514079 0 -0.168543)
(0.527688 0 -0.177998)
(0.34406 0 -0.0916291)
(0.366128 0 -0.100364)
(0.39022 0 -0.110231)
(0.415776 0 -0.121144)
(0.441707 0 -0.132789)
(0.466519 0 -0.144649)
(0.488563 0 -0.156081)
(0.5064 0 -0.166465)
(0.518061 0 -0.174401)
(0.397982 0 -0.114503)
(0.420981 0 -0.124582)
(0.443608 0 -0.134984)
(0.464772 0 -0.145306)
(0.483393 0 -0.155104)
(0.49856 0 -0.163949)
(0.508764 0 -0.17072)
(0.44347 0 -0.136044)
(0.461672 0 -0.145062)
(0.477626 0 -0.153535)
(0.490735 0 -0.161155)
(0.499774 0 -0.167003)
(0.471506 0 -0.151531)
(0.482977 0 -0.158158)
(0.491047 0 -0.163258)
(0.267417 0 -0.0605011)
(0.284695 0 -0.0661637)
(0.305527 0 -0.0731393)
(0.330711 0 -0.0818538)
(0.361119 0 -0.0928512)
(0.397538 0 -0.106786)
(0.43987 0 -0.12418)
(0.48541 0 -0.144802)
(0.527602 0 -0.167193)
(0.555627 0 -0.186985)
(0.283197 0 -0.0667655)
(0.301805 0 -0.0731685)
(0.323802 0 -0.0809205)
(0.349795 0 -0.0903944)
(0.380347 0 -0.102037)
(0.415585 0 -0.116245)
(0.454399 0 -0.133059)
(0.493272 0 -0.151577)
(0.526489 0 -0.169728)
(0.547616 0 -0.184088)
(0.298111 0 -0.0728682)
(0.317602 0 -0.0798654)
(0.340164 0 -0.0881757)
(0.366196 0 -0.0981009)
(0.395833 0 -0.109912)
(0.428558 0 -0.123694)
(0.462638 0 -0.139079)
(0.494779 0 -0.154965)
(0.521147 0 -0.169859)
(0.537609 0 -0.181363)
(0.311841 0 -0.0786474)
(0.33175 0 -0.0860651)
(0.354321 0 -0.0947054)
(0.37968 0 -0.104755)
(0.407551 0 -0.116289)
(0.43699 0 -0.129136)
(0.466185 0 -0.142743)
(0.492663 0 -0.156196)
(0.514079 0 -0.168543)
(0.527688 0 -0.177998)
(0.34406 0 -0.0916291)
(0.366128 0 -0.100364)
(0.39022 0 -0.110231)
(0.415776 0 -0.121144)
(0.441707 0 -0.132789)
(0.466519 0 -0.144649)
(0.488563 0 -0.156081)
(0.5064 0 -0.166465)
(0.518061 0 -0.174401)
(0.397982 0 -0.114503)
(0.420981 0 -0.124582)
(0.443608 0 -0.134984)
(0.464772 0 -0.145306)
(0.483393 0 -0.155104)
(0.49856 0 -0.163949)
(0.508764 0 -0.17072)
(0.44347 0 -0.136044)
(0.461672 0 -0.145062)
(0.477626 0 -0.153535)
(0.490735 0 -0.161155)
(0.499774 0 -0.167003)
(0.471506 0 -0.151531)
(0.482977 0 -0.158158)
(0.491047 0 -0.163258)
(0.576543 0 -0.199809)
(0.565947 0 -0.22406)
(0.564375 0 -0.199872)
(0.563003 0 -0.207957)
(0.557599 0 -0.213641)
(0.555524 0 -0.193212)
(0.5566 0 -0.199274)
(0.554733 0 -0.204332)
(0.544552 0 -0.188336)
(0.547132 0 -0.192944)
(0.547671 0 -0.197323)
(0.53399 0 -0.183681)
(0.537113 0 -0.187508)
(0.538978 0 -0.191343)
(0.523871 0 -0.179197)
(0.527162 0 -0.182495)
(0.52971 0 -0.185903)
(0.51414 0 -0.174851)
(0.517425 0 -0.177743)
(0.520298 0 -0.180798)
(0.504739 0 -0.170606)
(0.507925 0 -0.173167)
(0.510916 0 -0.175919)
(0.495617 0 -0.166428)
(0.498651 0 -0.168708)
(0.501633 0 -0.171193)
(0.486721 0 -0.16228)
(0.489574 0 -0.164317)
(0.492467 0 -0.166562)
(0.576543 0 -0.199809)
(0.565947 0 -0.22406)
(0.564375 0 -0.199872)
(0.563003 0 -0.207957)
(0.557599 0 -0.213641)
(0.555524 0 -0.193212)
(0.5566 0 -0.199274)
(0.554733 0 -0.204332)
(0.544552 0 -0.188336)
(0.547132 0 -0.192944)
(0.547671 0 -0.197323)
(0.53399 0 -0.183681)
(0.537113 0 -0.187508)
(0.538978 0 -0.191343)
(0.523871 0 -0.179197)
(0.527162 0 -0.182495)
(0.52971 0 -0.185903)
(0.51414 0 -0.174851)
(0.517425 0 -0.177743)
(0.520298 0 -0.180798)
(0.504739 0 -0.170606)
(0.507925 0 -0.173167)
(0.510916 0 -0.175919)
(0.495617 0 -0.166428)
(0.498651 0 -0.168708)
(0.501633 0 -0.171193)
(0.486721 0 -0.16228)
(0.489574 0 -0.164317)
(0.492467 0 -0.166562)
(0.549838 0 -0.216362)
(0.542068 0 -0.215934)
(0.5342 0 -0.213248)
(0.526527 0 -0.209247)
(0.518973 0 -0.204388)
(0.511481 0 -0.198905)
(0.503964 0 -0.192931)
(0.496313 0 -0.186555)
(0.4884 0 -0.17985)
(0.549993 0 -0.208297)
(0.543482 0 -0.209649)
(0.536455 0 -0.208648)
(0.529202 0 -0.206035)
(0.521816 0 -0.202282)
(0.514314 0 -0.197688)
(0.506664 0 -0.192441)
(0.498795 0 -0.186674)
(0.490609 0 -0.180485)
(0.545698 0 -0.201358)
(0.54128 0 -0.203494)
(0.535616 0 -0.203572)
(0.529232 0 -0.202044)
(0.522396 0 -0.199275)
(0.515218 0 -0.195538)
(0.50772 0 -0.191033)
(0.499875 0 -0.185908)
(0.491619 0 -0.180274)
(0.538996 0 -0.1952)
(0.536528 0 -0.197668)
(0.532372 0 -0.198384)
(0.527096 0 -0.197636)
(0.52104 0 -0.19567)
(0.514395 0 -0.192695)
(0.507245 0 -0.188889)
(0.499604 0 -0.184393)
(0.49144 0 -0.17932)
(0.531039 0 -0.189527)
(0.530128 0 -0.192121)
(0.527345 0 -0.193227)
(0.523201 0 -0.193021)
(0.51803 0 -0.191677)
(0.512045 0 -0.189345)
(0.505371 0 -0.186163)
(0.49806 0 -0.182253)
(0.49011 0 -0.17772)
(0.522444 0 -0.184175)
(0.522683 0 -0.186781)
(0.521043 0 -0.188123)
(0.517928 0 -0.1883)
(0.513633 0 -0.187429)
(0.50836 0 -0.185621)
(0.502237 0 -0.182979)
(0.495337 0 -0.179597)
(0.487685 0 -0.175565)
(0.51354 0 -0.17905)
(0.51458 0 -0.181596)
(0.513839 0 -0.183068)
(0.5116 0 -0.183513)
(0.508103 0 -0.183003)
(0.503525 0 -0.181616)
(0.497979 0 -0.179426)
(0.491535 0 -0.176507)
(0.484237 0 -0.172931)
(0.504502 0 -0.174082)
(0.50607 0 -0.176525)
(0.505999 0 -0.178052)
(0.504471 0 -0.178676)
(0.501663 0 -0.178437)
(0.497717 0 -0.177384)
(0.492728 0 -0.17557)
(0.486759 0 -0.17305)
(0.479849 0 -0.169881)
(0.495421 0 -0.169218)
(0.497309 0 -0.17153)
(0.497712 0 -0.173059)
(0.496735 0 -0.173794)
(0.494497 0 -0.173752)
(0.491101 0 -0.172962)
(0.486624 0 -0.171457)
(0.481119 0 -0.169279)
(0.47461 0 -0.166468)
(0.486341 0 -0.164409)
(0.488393 0 -0.166576)
(0.48911 0 -0.168068)
(0.488542 0 -0.168863)
(0.486758 0 -0.16896)
(0.483826 0 -0.168372)
(0.479801 0 -0.16712)
(0.474722 0 -0.16523)
(0.4686 0 -0.162728)
(0.480003 0 -0.163869)
(0.478568 0 -0.164059)
(0.476014 0 -0.163625)
(0.472373 0 -0.162575)
(0.467669 0 -0.160923)
(0.461901 0 -0.158684)
(0.467765 0 -0.158719)
(0.464444 0 -0.157828)
(0.460062 0 -0.156373)
(0.454615 0 -0.154361)
(0.451998 0 -0.151589)
(0.446836 0 -0.149771)
(0.549838 0 -0.216362)
(0.542068 0 -0.215934)
(0.5342 0 -0.213248)
(0.526527 0 -0.209247)
(0.518973 0 -0.204388)
(0.511481 0 -0.198905)
(0.503964 0 -0.192931)
(0.496313 0 -0.186555)
(0.4884 0 -0.17985)
(0.549993 0 -0.208297)
(0.543482 0 -0.209649)
(0.536455 0 -0.208648)
(0.529202 0 -0.206035)
(0.521816 0 -0.202282)
(0.514314 0 -0.197688)
(0.506664 0 -0.192441)
(0.498795 0 -0.186674)
(0.490609 0 -0.180485)
(0.545698 0 -0.201358)
(0.54128 0 -0.203494)
(0.535616 0 -0.203572)
(0.529232 0 -0.202044)
(0.522396 0 -0.199275)
(0.515218 0 -0.195538)
(0.50772 0 -0.191033)
(0.499875 0 -0.185908)
(0.491619 0 -0.180274)
(0.538996 0 -0.1952)
(0.536528 0 -0.197668)
(0.532372 0 -0.198384)
(0.527096 0 -0.197636)
(0.52104 0 -0.19567)
(0.514395 0 -0.192695)
(0.507245 0 -0.188889)
(0.499604 0 -0.184393)
(0.49144 0 -0.17932)
(0.531039 0 -0.189527)
(0.530128 0 -0.192121)
(0.527345 0 -0.193227)
(0.523201 0 -0.193021)
(0.51803 0 -0.191677)
(0.512045 0 -0.189345)
(0.505371 0 -0.186163)
(0.49806 0 -0.182253)
(0.49011 0 -0.17772)
(0.522444 0 -0.184175)
(0.522683 0 -0.186781)
(0.521043 0 -0.188123)
(0.517928 0 -0.1883)
(0.513633 0 -0.187429)
(0.50836 0 -0.185621)
(0.502237 0 -0.182979)
(0.495337 0 -0.179597)
(0.487685 0 -0.175565)
(0.51354 0 -0.17905)
(0.51458 0 -0.181596)
(0.513839 0 -0.183068)
(0.5116 0 -0.183513)
(0.508103 0 -0.183003)
(0.503525 0 -0.181616)
(0.497979 0 -0.179426)
(0.491535 0 -0.176507)
(0.484237 0 -0.172931)
(0.504502 0 -0.174082)
(0.50607 0 -0.176525)
(0.505999 0 -0.178052)
(0.504471 0 -0.178676)
(0.501663 0 -0.178437)
(0.497717 0 -0.177384)
(0.492728 0 -0.17557)
(0.486759 0 -0.17305)
(0.479849 0 -0.169881)
(0.495421 0 -0.169218)
(0.497309 0 -0.17153)
(0.497712 0 -0.173059)
(0.496735 0 -0.173794)
(0.494497 0 -0.173752)
(0.491101 0 -0.172962)
(0.486624 0 -0.171457)
(0.481119 0 -0.169279)
(0.47461 0 -0.166468)
(0.486341 0 -0.164409)
(0.488393 0 -0.166576)
(0.48911 0 -0.168068)
(0.488542 0 -0.168863)
(0.486758 0 -0.16896)
(0.483826 0 -0.168372)
(0.479801 0 -0.16712)
(0.474722 0 -0.16523)
(0.4686 0 -0.162728)
(0.480003 0 -0.163869)
(0.478568 0 -0.164059)
(0.476014 0 -0.163625)
(0.472373 0 -0.162575)
(0.467669 0 -0.160923)
(0.461901 0 -0.158684)
(0.467765 0 -0.158719)
(0.464444 0 -0.157828)
(0.460062 0 -0.156373)
(0.454615 0 -0.154361)
(0.451998 0 -0.151589)
(0.446836 0 -0.149771)
)
;

boundaryField
{
    inlet
    {
        type            fixedValue;
        value           nonuniform 0();
    }
    outlet
    {
        type            fixedValue;
        value           nonuniform 0();
    }
    flap
    {
        type            fixedValue;
        value           nonuniform List<vector> 
68
(
(1.19445e-09 0 -1.33651e-09)
(0.00704154 0 0.00667936)
(0.00704154 0 0.00667936)
(0 0 0)
(0.0235445 0 0.0111229)
(0.0235445 0 0.0111229)
(0.0487904 0 0.0121447)
(0.0487904 0 0.0121447)
(0.0808378 0 0.00929339)
(0.0808378 0 0.00929339)
(0.11807 0 0.00265763)
(0.11807 0 0.00265763)
(0.159155 0 -0.00743448)
(0.159155 0 -0.00743448)
(0.203 0 -0.0205254)
(0.203 0 -0.0205254)
(0.248768 0 -0.0360307)
(0.248768 0 -0.0360307)
(0.29583 0 -0.0534094)
(0.29583 0 -0.0534094)
(0.343722 0 -0.0721986)
(0.343722 0 -0.0721986)
(0.392125 0 -0.0919828)
(0.392125 0 -0.0919828)
(0.440794 0 -0.112433)
(0.440794 0 -0.112433)
(0.489548 0 -0.133283)
(0.489548 0 -0.133283)
(0.538242 0 -0.154292)
(0.538242 0 -0.154292)
(0.586973 0 -0.1754)
(0.586973 0 -0.1754)
(0.576543 0 -0.199809)
(0.576543 0 -0.199809)
(0.565947 0 -0.22406)
(0.565947 0 -0.22406)
(0.555313 0 -0.248394)
(0.555313 0 -0.248394)
(0 0 0)
(0 0 0)
(0.00576321 0 -0.00838079)
(0.00576321 0 -0.00838079)
(0.019278 0 -0.0172611)
(0.019278 0 -0.0172611)
(0.0405691 0 -0.0273193)
(0.0405691 0 -0.0273193)
(0.0682672 0 -0.0390471)
(0.0682672 0 -0.0390471)
(0.101272 0 -0.0526616)
(0.101272 0 -0.0526616)
(0.138548 0 -0.0681191)
(0.138548 0 -0.0681191)
(0.17919 0 -0.0851909)
(0.17919 0 -0.0851909)
(0.222394 0 -0.10361)
(0.222394 0 -0.10361)
(0.267499 0 -0.123073)
(0.267499 0 -0.123073)
(0.313992 0 -0.143282)
(0.313992 0 -0.143282)
(0.361448 0 -0.164001)
(0.361448 0 -0.164001)
(0.409538 0 -0.185013)
(0.409538 0 -0.185013)
(0.458011 0 -0.20614)
(0.458011 0 -0.20614)
(0.506603 0 -0.227272)
(0.506603 0 -0.227272)
)
;
    }
    upperWall
    {
        type            slip;
    }
    lowerWall
    {
        type            slip;
    }
    frontAndBack
    {
        type            empty;
    }
    procBoundary4to1
    {
        type            processor;
    }
    procBoundary4to2
    {
        type            processor;
    }
    procBoundary4to3
    {
        type            processor;
    }
    procBoundary4to5
    {
        type            processor;
    }
}


// ************************************************************************* //
