/*--------------------------------*- C++ -*----------------------------------*\
| =========                 |                                                 |
| \\      /  F ield         | OpenFOAM: The Open Source CFD Toolbox           |
|  \\    /   O peration     | Version:  dev                                   |
|   \\  /    A nd           | Web:      www.OpenFOAM.org                      |
|    \\/     M anipulation  |                                                 |
\*---------------------------------------------------------------------------*/
FoamFile
{
    version     2.0;
    format      ascii;
    class       surfaceScalarField;
    location    "3.66";
    object      phi;
}
// * * * * * * * * * * * * * * * * * * * * * * * * * * * * * * * * * * * * * //

dimensions      [0 3 -1 0 0 0 0];

internalField   nonuniform List<scalar> 
881
(
-0.0495228
0.0146634
0.00755284
0.0148949
0.0390512
-0.00907723
0.0315255
-0.0277202
0.0246785
0.0202533
0.114224
0.0631404
0.0912681
0.0544824
0.0690923
0.0468552
0.0490615
0.0402854
0.0344203
0.204822
0.0840205
0.184193
0.0751122
0.163963
0.0670866
0.144441
0.0598092
0.125686
0.0531759
0.107751
0.0472195
0.0420447
0.281141
0.100321
0.264389
0.0918652
0.247489
0.083987
0.230644
0.0766555
0.213974
0.0698477
0.197603
0.0635923
0.181703
0.0579469
0.166347
0.0529034
0.0484217
0.342271
0.111619
0.330032
0.104105
0.317157
0.0968639
0.303869
0.0899446
0.290339
0.0833792
0.276721
0.0772117
0.263177
0.0714928
0.249842
0.0662404
0.236829
0.0614366
0.0570358
0.389086
0.11811
0.381374
0.111819
0.372703
0.105536
0.363293
0.0993558
0.353329
0.093345
0.342976
0.0875658
0.332396
0.0820749
0.321732
0.0769063
0.311104
0.0720656
0.300609
0.0675325
0.290312
0.0632677
0.0592262
0.423438
0.120407
0.41984
0.115418
0.415136
0.110242
0.409509
0.104984
0.403127
0.0997282
0.396146
0.0945488
0.388714
0.0895089
0.380967
0.0846544
0.373025
0.080009
0.364983
0.0755754
0.356911
0.0713404
0.348852
0.0672855
0.0633989
0.44773
0.11936
0.447554
0.115595
0.446276
0.111521
0.444027
0.107235
0.440935
0.102822
0.437128
0.0983571
0.432731
0.0939069
0.427863
0.0895238
0.42263
0.0852437
0.417119
0.0810869
0.411399
0.0770613
0.405514
0.0731704
0.39949
0.0694224
0.393338
0.0658385
0.062458
0.464526
0.115886
0.466955
0.113167
0.468395
0.110082
0.46892
0.106711
0.468615
0.103129
0.46757
0.0994038
0.465878
0.0955999
0.463632
0.0917706
0.460919
0.0879584
0.457811
0.084195
0.454369
0.0805035
0.450636
0.076904
0.446638
0.07342
0.442389
0.0700857
0.437896
0.0669501
0.0640799
0.476218
0.110819
0.480455
0.108931
0.483871
0.106668
0.486495
0.104089
0.488369
0.101255
0.489548
0.0982258
0.490093
0.0950558
0.490068
0.0917964
0.489536
0.0884915
0.488553
0.0851788
0.487166
0.0818908
0.485411
0.0786585
0.483313
0.0755165
0.48089
0.0725078
0.47815
0.0696879
0.4751
0.0671272
0.471748
0.0649123
0.0631434
0.484777
0.104818
0.490151
0.103558
0.49488
0.10194
0.498963
0.100007
0.502412
0.0978071
0.505253
0.0953863
0.507517
0.092792
0.509245
0.0900695
0.510475
0.0872615
0.511247
0.0844073
0.511594
0.0815439
0.511543
0.0787088
0.511116
0.0759429
0.510327
0.0732945
0.509191
0.0708224
0.507717
0.0685978
0.505922
0.0667038
0.503828
0.0652329
0.0642762
0.49164
0.0983375
0.497658
0.0975402
0.503185
0.096414
0.508203
0.0949901
0.512707
0.0933035
0.516703
0.0913918
0.520201
0.0892939
0.523222
0.0870489
0.525788
0.0846959
0.527921
0.0822739
0.529644
0.0798212
0.530974
0.0773778
0.531927
0.0749877
0.532518
0.0727015
0.53276
0.0705787
0.532665
0.068689
0.532253
0.0671119
0.531548
0.0659339
0.530577
0.0652413
0.065109
0.497732
0.091654
0.504077
0.0911965
0.510049
0.0904423
0.515626
0.0894135
0.520794
0.0881365
0.525545
0.086641
0.52988
0.0849591
0.533805
0.0831244
0.537329
0.0811719
0.540464
0.0791386
0.543221
0.0770626
0.545614
0.0749838
0.547653
0.072947
0.54935
0.0710027
0.550716
0.0692096
0.551767
0.0676346
0.552521
0.0663535
0.553001
0.0654481
0.553234
0.0650028
0.553239
0.0650981
0.0657896
0.503589
0.0849154
0.510076
0.0847099
0.51628
0.0842389
0.522176
0.0835183
0.527745
0.0825678
0.532975
0.0814112
0.537859
0.080075
0.542395
0.078588
0.546585
0.0769816
0.550433
0.0752897
0.553945
0.073549
0.557129
0.0717985
0.559992
0.0700818
0.562543
0.0684483
0.564796
0.0669542
0.566763
0.0656635
0.568464
0.0646477
0.569922
0.063985
0.57116
0.063758
0.5722
0.064052
0.064944
0.509494
0.0781936
0.516028
0.0781755
0.522345
0.0779218
0.52842
0.0774434
0.534233
0.0767552
0.539768
0.075876
0.545014
0.0748277
0.549966
0.0736354
0.554621
0.0723266
0.558977
0.0709319
0.563038
0.0694861
0.566808
0.0680266
0.570293
0.0665948
0.5735
0.0652377
0.576442
0.0640088
0.579133
0.0629685
0.581591
0.0621842
0.58384
0.0617303
0.585904
0.0616872
0.587807
0.0621416
0.0631843
0.515593
0.0715195
0.522129
0.0716392
0.528499
0.0715516
0.534679
0.0712638
0.540647
0.0707869
0.546386
0.0701356
0.551885
0.0693281
0.557134
0.0683857
0.562126
0.0673328
0.56686
0.0661969
0.571334
0.0650095
0.575552
0.0638061
0.579518
0.0626257
0.58324
0.0615124
0.586728
0.0605161
0.589999
0.0596934
0.59307
0.0591076
0.595965
0.0588287
0.598711
0.058934
0.601337
0.0595086
0.0606492
0.521977
0.0649035
0.528494
0.065121
0.534887
0.0651577
0.541132
0.0650181
0.547208
0.0647102
0.553097
0.0642455
0.558785
0.0636387
0.564261
0.062908
0.569517
0.0620748
0.574549
0.0611633
0.579354
0.0602018
0.583934
0.0592231
0.588292
0.0582636
0.592437
0.0573638
0.596378
0.0565701
0.600132
0.0559349
0.603716
0.0555169
0.607157
0.0553815
0.610482
0.0556015
0.613725
0.056258
0.0574473
0.528712
0.0583464
0.535204
0.0586281
0.541606
0.0587539
0.547897
0.0587263
0.554055
0.058551
0.560062
0.0582368
0.565903
0.0577955
0.571567
0.0572425
0.577043
0.0565961
0.582326
0.0558777
0.587412
0.0551124
0.592303
0.0543295
0.597
0.0535624
0.601511
0.0528484
0.605846
0.0522297
0.610021
0.0517542
0.614056
0.0514757
0.617976
0.0514546
0.621811
0.0517582
0.625599
0.0524618
0.0536572
0.535866
0.0518427
0.542332
0.0521602
0.548739
0.0523449
0.555066
0.0523979
0.561292
0.0523232
0.567399
0.0521273
0.573372
0.0518198
0.579199
0.0514134
0.584869
0.0509236
0.590374
0.0503693
0.595711
0.049772
0.600878
0.0491577
0.60588
0.0485565
0.610721
0.048002
0.615413
0.0475322
0.619971
0.0471903
0.624414
0.0470251
0.62877
0.0470912
0.63307
0.0474496
0.637354
0.0481689
0.0493336
0.543508
0.0453828
0.549954
0.0457119
0.556367
0.0459295
0.562727
0.0460358
0.569014
0.0460333
0.575212
0.0459271
0.581304
0.0457248
0.587278
0.0454366
0.593122
0.0450756
0.59883
0.0446578
0.604396
0.044202
0.609818
0.0437305
0.6151
0.0432699
0.620247
0.04285
0.625268
0.0425043
0.630181
0.0422713
0.635004
0.0421943
0.639765
0.0423218
0.644498
0.0427085
0.649242
0.0434149
0.0445182
0.551713
0.0389533
0.558149
0.0392735
0.564574
0.0395016
0.570969
0.0396375
0.577317
0.0396826
0.5836
0.0396407
0.589804
0.0395177
0.595914
0.0393219
0.601922
0.0390641
0.607818
0.0387577
0.613596
0.0384186
0.619256
0.0380657
0.624799
0.0377217
0.63023
0.0374127
0.63556
0.0371677
0.640804
0.0370201
0.645983
0.0370075
0.651124
0.0371723
0.656261
0.0375621
0.661436
0.0382295
0.0392422
0.560565
0.0325376
0.567004
0.0328316
0.57345
0.0330513
0.579888
0.0331964
0.586299
0.0332677
0.592668
0.0332679
0.59898
0.0332015
0.605223
0.0330752
0.611385
0.0328976
0.617458
0.0326796
0.623437
0.0324345
0.629319
0.0321779
0.635106
0.0319285
0.640804
0.0317083
0.646423
0.0315421
0.651977
0.0314578
0.657489
0.0314875
0.662985
0.0316671
0.6685
0.0320368
0.674078
0.0326416
0.0335413
0.57015
0.0261159
0.576609
0.0263691
0.583092
0.0265646
0.589582
0.0267016
0.596065
0.0267808
0.602524
0.0268041
0.608946
0.0267749
0.615318
0.0266981
0.62163
0.0265806
0.627873
0.0264309
0.634043
0.0262596
0.640135
0.0260793
0.646152
0.0259047
0.6521
0.0257534
0.657988
0.025646
0.663833
0.0256051
0.669654
0.025657
0.675481
0.0258307
0.681348
0.0261592
0.6873
0.026679
0.0274382
0.580572
0.0196654
0.587071
0.0198659
0.593607
0.0200239
0.600165
0.0201388
0.606731
0.0202109
0.613288
0.0202415
0.619825
0.020233
0.626328
0.0201891
0.632789
0.0201148
0.639197
0.0200164
0.645549
0.0199018
0.651841
0.0197805
0.658075
0.0196635
0.664256
0.0195643
0.670395
0.0194985
0.676508
0.0194838
0.682615
0.01954
0.688747
0.0196896
0.694937
0.0199585
0.701229
0.0203755
0.0209827
0.59193
0.0131594
0.598493
0.0132976
0.605104
0.0134077
0.611748
0.0134892
0.618412
0.0135423
0.62508
0.0135677
0.63174
0.0135672
0.63838
0.013543
0.64499
0.0134984
0.651563
0.0134377
0.658091
0.0133662
0.664575
0.0132901
0.671013
0.0132171
0.677413
0.0131563
0.683785
0.0131184
0.690144
0.0131153
0.696513
0.0131607
0.702922
0.0132704
0.709406
0.0134629
0.716011
0.0137589
0.0141875
0.60433
0.00657044
0.610983
0.00663921
0.617691
0.00669371
0.624441
0.0067337
0.631218
0.00675924
0.638009
0.00677074
0.644801
0.00676898
0.651583
0.00675518
0.658343
0.00673098
0.665075
0.00669856
0.671774
0.00666057
0.678436
0.00662031
0.685063
0.00658169
0.691661
0.00654952
0.698242
0.00652926
0.70482
0.00652696
0.711421
0.00654999
0.718073
0.00660725
0.724814
0.00671017
0.731685
0.00687575
0.00714584
0.607439
0.614072
0.62076
0.627488
0.634241
0.641005
0.647768
0.654516
0.66124
0.667931
0.674584
0.681196
0.68777
0.69431
0.70083
0.707347
0.713887
0.720483
0.727181
0.734044
)
;

boundaryField
{
    inlet
    {
        type            calculated;
        value           nonuniform 0();
    }
    outlet
    {
        type            calculated;
        value           nonuniform List<scalar> 
15
(
0.553005
0.573038
0.589559
0.603863
0.616918
0.629379
0.641668
0.654047
0.666701
0.679767
0.693391
0.707672
0.722794
0.738714
0.741177
)
;
    }
    flap
    {
        type            calculated;
        value           nonuniform 0();
    }
    upperWall
    {
        type            calculated;
        value           nonuniform List<scalar> 
21
(
0
0
0
0
-8.22561e-15
0
0
-4.4146e-15
0
0
0
9.70082e-15
0
0
0
0
0
0
0
0
0
)
;
    }
    lowerWall
    {
        type            calculated;
        value           nonuniform 0();
    }
    frontAndBack
    {
        type            empty;
        value           nonuniform 0();
    }
    procBoundary2to1
    {
        type            processor;
        value           nonuniform List<scalar> 
17
(
-0.478775
-0.485159
-0.491048
-0.49685
-0.502772
-0.508919
-0.515361
-0.522156
-0.529364
-0.53705
-0.545286
-0.554152
-0.563732
-0.574126
-0.585428
-0.597746
-0.600874
)
;
    }
    procBoundary2to4
    {
        type            processor;
        value           nonuniform List<scalar> 
11
(
0.0462267
-0.0392824
-0.138313
-0.225702
-0.29744
-0.353568
-0.395576
-0.425734
-0.446682
-0.46105
-0.47115
)
;
    }
    procBoundary2to5
    {
        type            processor;
        value           nonuniform List<scalar> 
34
(
-0.0113671
-0.00890953
-0.0481656
-0.00603462
-0.0105028
-0.0374695
-0.0164689
0.0311116
-0.0292824
-0.0251709
0.0908791
-0.0375459
-0.0337164
0.151643
-0.0444331
0.224227
-0.0529698
-0.0491648
0.280251
-0.0553733
0.340827
-0.0596868
-0.056176
0.387054
-0.0593393
0.433153
-0.061563
-0.05951
0.46811
-0.0619225
0.50147
-0.0639038
0.529366
-0.0655631
)
;
    }
}


// ************************************************************************* //
