/*--------------------------------*- C++ -*----------------------------------*\
| =========                 |                                                 |
| \\      /  F ield         | OpenFOAM: The Open Source CFD Toolbox           |
|  \\    /   O peration     | Version:  dev                                   |
|   \\  /    A nd           | Web:      www.OpenFOAM.org                      |
|    \\/     M anipulation  |                                                 |
\*---------------------------------------------------------------------------*/
FoamFile
{
    version     2.0;
    format      ascii;
    class       surfaceScalarField;
    location    "1.97";
    object      phi;
}
// * * * * * * * * * * * * * * * * * * * * * * * * * * * * * * * * * * * * * //

dimensions      [0 3 -1 0 0 0 0];

internalField   nonuniform List<scalar> 
881
(
0.197447
0.00254225
0.194908
0.00252889
0.192325
0.00257368
0.189635
0.00268349
0.186823
0.00280521
0.183889
0.00292979
0.180822
0.00306308
0.17761
0.00320976
0.174239
0.00337026
0.170694
0.00354647
0.166957
0.00374119
0.163004
0.00395914
0.158814
0.00419738
0.154363
0.00445933
0.149618
0.00475423
0.144543
0.0050842
0.139098
0.00545285
0.133234
0.00587113
0.126892
0.00634616
0.120014
0.00688137
0.00748683
0.199303
0.00322838
0.198105
0.00371652
0.196726
0.00394374
0.195183
0.00421972
0.193467
0.00451441
0.191573
0.00481883
0.189492
0.00514119
0.187216
0.0054833
0.184736
0.00584974
0.182039
0.00624475
0.17911
0.00667371
0.175931
0.00714394
0.17248
0.00765658
0.168729
0.00821841
0.164651
0.00884179
0.16021
0.0095344
0.155366
0.0103054
0.150071
0.0111726
0.144269
0.0121531
0.137892
0.0132614
0.0145197
0.199166
0.00405114
0.198048
0.00482457
0.196743
0.00523957
0.195295
0.00566113
0.193697
0.00610558
0.191943
0.00656836
0.190024
0.00705607
0.187934
0.00757088
0.185663
0.00811972
0.183201
0.00870861
0.180534
0.00934448
0.177649
0.0100344
0.174521
0.0107924
0.171121
0.0116274
0.167426
0.0125463
0.163404
0.0135663
0.159012
0.0147055
0.15421
0.0159825
0.148942
0.0174264
0.143134
0.0190726
0.0209577
0.199074
0.00496541
0.197962
0.00592689
0.196671
0.00652159
0.195236
0.00708961
0.193655
0.0076801
0.191922
0.00829532
0.190034
0.00894
0.187983
0.00961989
0.185759
0.0103425
0.183354
0.0111153
0.180756
0.0119466
0.177949
0.0128473
0.174913
0.0138358
0.171628
0.0149221
0.168068
0.0161156
0.164205
0.017439
0.160004
0.018916
0.155416
0.0205779
0.150383
0.0224653
0.144832
0.0246278
0.0271245
0.199028
0.00592662
0.197906
0.00703794
0.196625
0.00779415
0.1952
0.00850726
0.193634
0.00923982
0.191919
0.0100041
0.190052
0.0108035
0.188023
0.0116454
0.185826
0.0125388
0.18345
0.0134926
0.180885
0.0145154
0.178111
0.0156269
0.175111
0.0168431
0.171871
0.0181724
0.168361
0.0196354
0.164553
0.0212578
0.160411
0.0230676
0.155889
0.0251083
0.150926
0.0274349
0.145442
0.0301161
0.0332403
0.199003
0.00691265
0.197872
0.00815837
0.196602
0.00905545
0.195194
0.00990786
0.193646
0.0107814
0.191951
0.0116926
0.190106
0.0126447
0.188101
0.0136467
0.185929
0.0147095
0.183579
0.015844
0.181036
0.0170615
0.178287
0.0183822
0.175317
0.0198215
0.172105
0.0213941
0.168624
0.0231278
0.164839
0.0250533
0.16071
0.0272076
0.156193
0.0296346
0.151233
0.0324023
0.145735
0.0356192
0.0394027
0.19899
0.00791097
0.197855
0.00928317
0.196598
0.0103042
0.195208
0.0112901
0.193679
0.0123032
0.192008
0.0133579
0.190188
0.0144599
0.188211
0.0156198
0.186068
0.0168508
0.183747
0.018166
0.181229
0.0195826
0.178506
0.021111
0.175567
0.0227687
0.172386
0.0245855
0.168932
0.0265929
0.165171
0.0288262
0.161062
0.0313279
0.156547
0.0341606
0.151552
0.0374054
0.145993
0.0411836
0.0456543
0.19899
0.00890972
0.197859
0.0104037
0.196614
0.0115406
0.195241
0.0126553
0.193735
0.013802
0.192091
0.0149955
0.190302
0.0162438
0.188358
0.0175592
0.186251
0.0189564
0.183967
0.02045
0.181494
0.0220585
0.178817
0.0237939
0.175917
0.0256772
0.172773
0.0277405
0.16935
0.0300275
0.16561
0.0325792
0.161511
0.0354397
0.156989
0.038693
0.151959
0.0424451
0.146339
0.0468107
0.052
0.198998
0.00990005
0.197879
0.0115131
0.19665
0.0127604
0.195299
0.0139974
0.193823
0.0152713
0.192213
0.016599
0.190461
0.0179895
0.188558
0.0194577
0.186493
0.0210192
0.184255
0.0226876
0.181836
0.0244804
0.179212
0.0264235
0.176356
0.0285411
0.173248
0.0308596
0.169858
0.0334309
0.166147
0.0363034
0.16206
0.0395402
0.157545
0.0432205
0.152519
0.0474812
0.146864
0.052474
0.0584277
0.199012
0.0108771
0.197908
0.0126061
0.196702
0.0139572
0.195381
0.01531
0.193939
0.016706
0.192368
0.0181627
0.190661
0.0196903
0.188804
0.0213095
0.186786
0.0230345
0.184597
0.0248753
0.182224
0.0268556
0.179648
0.0290054
0.176845
0.0313519
0.173785
0.0339306
0.170444
0.0367854
0.16679
0.0399717
0.162757
0.0435874
0.158274
0.0477173
0.153267
0.0524997
0.147614
0.0581369
0.0648875
0.199029
0.0118366
0.197947
0.0136779
0.196768
0.0151272
0.195479
0.0165901
0.194074
0.0181034
0.192545
0.0196838
0.190881
0.0213473
0.18907
0.0231153
0.187104
0.024997
0.184971
0.0270065
0.182651
0.0291769
0.180133
0.0315278
0.177401
0.0340921
0.174424
0.0369197
0.171164
0.0400582
0.167576
0.0435753
0.163609
0.0475693
0.159185
0.0521566
0.15423
0.0574678
0.148635
0.0637424
0.0712972
0.199048
0.0127768
0.19799
0.0147256
0.19684
0.0162676
0.195587
0.0178351
0.194221
0.0194605
0.192737
0.0211607
0.191118
0.0229589
0.189358
0.0248683
0.187454
0.0268963
0.18539
0.0290684
0.183149
0.0314191
0.180716
0.0339644
0.178069
0.0367473
0.175176
0.0398234
0.172003
0.0432442
0.168498
0.0470964
0.164625
0.0514581
0.160319
0.0564786
0.155476
0.0623251
0.149987
0.0692434
0.0775927
0.199069
0.0136962
0.198038
0.0157462
0.196921
0.0173747
0.195708
0.0190399
0.194388
0.0207714
0.192954
0.0225865
0.191396
0.0245097
0.189704
0.0265524
0.187871
0.0287238
0.185886
0.0310507
0.183732
0.0335725
0.181385
0.0363148
0.178822
0.0393172
0.176018
0.0426374
0.172954
0.0463226
0.169586
0.0504799
0.165853
0.0552073
0.161696
0.060652
0.157021
0.0670159
0.151719
0.0745589
0.0836724
0.199096
0.0145892
0.198097
0.016734
0.19702
0.0184423
0.195853
0.020198
0.194585
0.0220297
0.193209
0.0239536
0.19172
0.0259911
0.190102
0.0281622
0.188344
0.0304751
0.186437
0.0329539
0.184364
0.0356438
0.182105
0.0385758
0.179647
0.0417811
0.176978
0.0453167
0.174055
0.0492579
0.170842
0.053709
0.167282
0.0587837
0.163319
0.0646323
0.158885
0.0714653
0.153878
0.0795799
0.0893806
0.19912
0.198154
0.197116
0.0194709
0.195994
0.0213098
0.194778
0.0232373
0.193457
0.0252647
0.192026
0.0274135
0.190472
0.0297075
0.188787
0.0321524
0.186957
0.0347791
0.184972
0.0376255
0.182827
0.0407214
0.180499
0.0441145
0.17796
0.0478643
0.17517
0.0520594
0.172116
0.056778
0.168758
0.0621586
0.165031
0.0683757
0.160886
0.0756263
0.156245
0.0842355
0.094614
0.204822
0.203721
0.0224011
0.202524
0.0244243
0.201226
0.026552
0.199819
0.0288105
0.198299
0.0312182
0.196658
0.0337841
0.194885
0.0365459
0.192968
0.0395378
0.190894
0.0427951
0.188641
0.0463701
0.186184
0.0503289
0.183516
0.0547382
0.180615
0.0596928
0.177425
0.0653647
0.173936
0.0718822
0.170113
0.0794654
0.165897
0.0884663
0.0992566
0.208839
0.20768
0.0255728
0.206429
0.0277921
0.205079
0.0301498
0.203627
0.0326592
0.202061
0.03534
0.200368
0.0382306
0.198537
0.0413622
0.196554
0.0447761
0.194418
0.0485078
0.192118
0.0526339
0.189636
0.0572298
0.186937
0.0624042
0.18401
0.0683065
0.18086
0.0750487
0.17746
0.0828811
0.173821
0.0921188
0.103131
0.213018
0.211833
0.0289661
0.210557
0.0314137
0.209181
0.0340229
0.207693
0.0368161
0.206088
0.0398255
0.204368
0.0430749
0.202527
0.0466121
0.200554
0.0504806
0.19844
0.0547509
0.196173
0.0595042
0.193745
0.0648422
0.191176
0.0708884
0.188451
0.0777884
0.185592
0.0857536
0.182661
0.0950632
0.106045
0.217418
0.216215
0.0326036
0.21492
0.0353046
0.213532
0.0381913
0.212055
0.0412906
0.210479
0.0446409
0.208799
0.0482852
0.207009
0.0522672
0.205111
0.0566501
0.203112
0.0615077
0.201016
0.0669457
0.198843
0.0730715
0.196627
0.0800169
0.194414
0.0879779
0.192312
0.0971756
0.107782
0.222056
0.220875
0.0364719
0.21962
0.0394318
0.218286
0.0426113
0.21686
0.0460543
0.215361
0.0497753
0.213795
0.0538267
0.212159
0.0582842
0.210472
0.0631959
0.208755
0.0686682
0.207041
0.0747922
0.205402
0.0816652
0.203916
0.0894717
0.202788
0.098311
0.108289
0.227068
0.225949
0.224763
0.0437828
0.223524
0.0472794
0.222246
0.0510408
0.220929
0.0551352
0.219591
0.0596175
0.218262
0.0645231
0.216968
0.0699631
0.215776
0.0759879
0.214759
0.0826873
0.214073
0.0901638
0.213945
0.0984438
0.107636
0.231509
0.230485
0.0482876
0.229447
0.0520648
0.228409
0.0561615
0.227407
0.0606114
0.226459
0.0654654
0.225624
0.0707966
0.224981
0.0766309
0.224631
0.0830389
0.224772
0.0900256
0.225586
0.097632
0.105883
0.237732
0.236959
0.236231
0.0568752
0.235576
0.0612551
0.235035
0.0659994
0.234689
0.0711365
0.234616
0.0767014
0.234963
0.0826906
0.235893
0.0890953
0.237574
0.0959506
0.103127
0.244379
0.244092
0.243993
0.0660887
0.244146
0.0709757
0.244647
0.0761942
0.245655
0.0816787
0.247292
0.0874555
0.249762
0.0934797
0.09951
0.253285
0.253928
0.0703231
0.254984
0.0751302
0.256587
0.0800696
0.258871
0.0851675
0.262046
0.0903018
0.0952121
0.263982
0.26556
0.267702
0.0779201
0.270574
0.0822899
0.274342
0.0865305
0.0904571
0.278978
0.282353
0.286524
0.0823558
0.0854752
0.298485
)
;

boundaryField
{
    inlet
    {
        type            calculated;
        value           nonuniform List<scalar> 
15
(
-0.2
-0.2
-0.2
-0.2
-0.2
-0.2
-0.2
-0.2
-0.2
-0.2
-0.2
-0.2
-0.2
-0.2
-0.2
)
;
    }
    outlet
    {
        type            calculated;
        value           nonuniform 0();
    }
    flap
    {
        type            calculated;
        value           nonuniform 0();
    }
    upperWall
    {
        type            calculated;
        value           nonuniform 0();
    }
    lowerWall
    {
        type            calculated;
        value           uniform 0;
    }
    frontAndBack
    {
        type            empty;
        value           nonuniform 0();
    }
    procBoundary3to0
    {
        type            processor;
        value           nonuniform List<scalar> 
34
(
0.0154575
0.0176899
-0.205841
0.02048
-0.20991
0.0234627
-0.21412
0.0266643
-0.218533
0.0300704
-0.223168
0.0337027
-0.22812
0.0375101
0.0405354
-0.23251
0.0447684
-0.238525
0.049064
0.0528219
-0.244784
0.0572648
0.0615282
-0.252944
0.0657347
-0.262855
0.0691841
0.0735425
-0.276325
0.0752579
0.0789088
-0.294094
0.0779608
0.0804051
)
;
    }
    procBoundary3to1
    {
        type            processor;
        value           nonuniform List<scalar> 9(0.202288 0.214603 0.227344 0.240334 0.25338 0.266345 0.279097 0.291506 0.303554);
    }
    procBoundary3to4
    {
        type            processor;
        value           nonuniform List<scalar> 
19
(
0.112528
0.130861
0.136697
0.138667
0.139328
0.139575
0.139745
0.139997
0.140441
0.14116
0.142232
0.1437
0.145649
0.148181
0.151024
0.161268
0.16996
0.179758
0.190584
)
;
    }
}


// ************************************************************************* //
