/*--------------------------------*- C++ -*----------------------------------*\
| =========                 |                                                 |
| \\      /  F ield         | OpenFOAM: The Open Source CFD Toolbox           |
|  \\    /   O peration     | Version:  dev                                   |
|   \\  /    A nd           | Web:      www.OpenFOAM.org                      |
|    \\/     M anipulation  |                                                 |
\*---------------------------------------------------------------------------*/
FoamFile
{
    version     2.0;
    format      ascii;
    class       pointVectorField;
    location    "1.06";
    object      pointDisplacement;
}
// * * * * * * * * * * * * * * * * * * * * * * * * * * * * * * * * * * * * * //

dimensions      [0 1 0 0 0 0 0];

internalField   nonuniform List<vector> 
1062
(
(0.0651517 0 0)
(0.0576532 0 0)
(0.0498483 0 0)
(0.0418534 0 0)
(0.0338139 0 0)
(0.025934 0 0)
(0.0185145 0 0)
(0.012025 0 0)
(0.00739089 0 0)
(0 0 0)
(0.0660227 0 -0.000207542)
(0.0586567 0 2.92713e-05)
(0.0510102 0 0.000319188)
(0.0432072 0 0.000670379)
(0.0353989 0 0.00109231)
(0.0277943 0 0.00159551)
(0.020709 0 0.00218884)
(0.0146641 0 0.00287164)
(0.0106497 0 0.00357449)
(0.00479222 0 0.004688)
(0.0686124 0 -0.000484473)
(0.0616335 0 -2.98331e-05)
(0.0544462 0 0.000525288)
(0.0471951 0 0.0011952)
(0.0400619 0 0.00199442)
(0.0332855 0 0.00293441)
(0.0271987 0 0.00402019)
(0.0223691 0 0.0052275)
(0.0199415 0 0.00638608)
(0.0156131 0 0.00810021)
(0.0728964 0 -0.000897904)
(0.0665517 0 -0.000262837)
(0.0601016 0 0.000509066)
(0.0537188 0 0.00143331)
(0.0476369 0 0.00252171)
(0.0421612 0 0.00377496)
(0.0376656 0 0.00517528)
(0.034672 0 0.00665358)
(0.0344034 0 0.00792851)
(0.0320085 0 0.00978575)
(0.0788039 0 -0.00150638)
(0.073337 0 -0.000745004)
(0.0678994 0 0.000173616)
(0.0626918 0 0.00126092)
(0.0579779 0 0.00252006)
(0.054136 0 0.00392921)
(0.0516417 0 0.00542664)
(0.0509895 0 0.00689234)
(0.0532428 0 0.00796225)
(0.0527807 0 0.00963615)
(0.0862439 0 -0.00236056)
(0.0818617 0 -0.00153715)
(0.0776812 0 -0.000554672)
(0.0739407 0 0.000587572)
(0.0709077 0 0.00187879)
(0.0689775 0 0.00327265)
(0.0687241 0 0.0046566)
(0.0706992 0 0.00585085)
(0.0756322 0 0.00645611)
(0.076995 0 0.00775583)
(0.0951189 0 -0.00350116)
(0.0920155 0 -0.00268961)
(0.0892948 0 -0.00173308)
(0.0872304 0 -0.000646657)
(0.0861352 0 0.000534211)
(0.0863843 0 0.00174051)
(0.0885363 0 0.0028229)
(0.093186 0 0.00354119)
(0.10078 0 0.00349808)
(0.103886 0 0.00430658)
(0.10528 0 -0.00495194)
(0.103637 0 -0.00423155)
(0.102571 0 -0.003398)
(0.102355 0 -0.00247919)
(0.103368 0 -0.0015396)
(0.105997 0 -0.000678774)
(0.110678 0 -6.33245e-05)
(0.117951 0 3.1672e-05)
(0.128074 0 -0.000764645)
(0.132808 0 -0.000528457)
(0.116575 0 -0.00672701)
(0.116521 0 -0.00617339)
(0.11726 0 -0.0055561)
(0.11908 0 -0.00491865)
(0.122338 0 -0.00434105)
(0.127442 0 -0.00395438)
(0.134725 0 -0.00393761)
(0.144577 0 -0.00456587)
(0.157024 0 -0.00615099)
(0.163211 0 -0.00650022)
(0.128824 0 -0.00882506)
(0.130471 0 -0.00851394)
(0.133119 0 -0.00819747)
(0.137098 0 -0.0079417)
(0.142716 0 -0.00783528)
(0.150346 0 -0.00802602)
(0.160261 0 -0.00870141)
(0.172637 0 -0.0101065)
(0.187169 0 -0.0124592)
(0.194641 0 -0.0133653)
(0.141807 0 -0.0112275)
(0.145234 0 -0.0112283)
(0.14987 0 -0.0112917)
(0.156056 0 -0.0114994)
(0.164099 0 -0.011955)
(0.17431 0 -0.012808)
(0.18686 0 -0.0142344)
(0.201675 0 -0.016426)
(0.21806 0 -0.0194838)
(0.22675 0 -0.0209005)
(0.155294 0 -0.0139048)
(0.160515 0 -0.0142731)
(0.167171 0 -0.0147842)
(0.175577 0 -0.0155252)
(0.186057 0 -0.0166136)
(0.198851 0 -0.0181892)
(0.213995 0 -0.0203947)
(0.231163 0 -0.0233501)
(0.249224 0 -0.0270295)
(0.259302 0 -0.0288941)
(0.169029 0 -0.0168127)
(0.176015 0 -0.0175927)
(0.184638 0 -0.018598)
(0.195205 0 -0.0199231)
(0.208038 0 -0.0216907)
(0.223312 0 -0.0240232)
(0.240957 0 -0.0270189)
(0.260391 0 -0.0307032)
(0.280036 0 -0.0349254)
(0.292142 0 -0.0372044)
(0.182728 0 -0.0198912)
(0.191378 0 -0.0211091)
(0.201814 0 -0.0226299)
(0.214359 0 -0.0245602)
(0.229314 0 -0.0270226)
(0.246811 0 -0.0301228)
(0.266736 0 -0.0339195)
(0.288248 0 -0.0383115)
(0.30944 0 -0.0430379)
(0.325163 0 -0.0457436)
(0.196081 0 -0.0230655)
(0.206215 0 -0.0247246)
(0.218227 0 -0.026758)
(0.232427 0 -0.0292799)
(0.249075 0 -0.0324122)
(0.268263 0 -0.036254)
(0.28984 0 -0.0408433)
(0.312778 0 -0.0459626)
(0.335353 0 -0.0512937)
(0.358226 0 -0.0544164)
(0.208917 0 -0.0262861)
(0.220292 0 -0.0283689)
(0.233548 0 -0.0308834)
(0.248936 0 -0.0339425)
(0.266627 0 -0.0376657)
(0.286602 0 -0.0421535)
(0.308526 0 -0.0474667)
(0.331173 0 -0.0534935)
(0.353021 0 -0.0603743)
(0.391337 0 -0.0631812)
(0.0651517 0 0)
(0.0576532 0 0)
(0.0498483 0 0)
(0.0418534 0 0)
(0.0338139 0 0)
(0.025934 0 0)
(0.0185145 0 0)
(0.012025 0 0)
(0.00739089 0 0)
(0 0 0)
(0.0660227 0 -0.000207542)
(0.0586567 0 2.92713e-05)
(0.0510102 0 0.000319188)
(0.0432072 0 0.000670379)
(0.0353989 0 0.00109231)
(0.0277943 0 0.00159551)
(0.020709 0 0.00218884)
(0.0146641 0 0.00287164)
(0.0106497 0 0.00357449)
(0.00479222 0 0.004688)
(0.0686124 0 -0.000484473)
(0.0616335 0 -2.98331e-05)
(0.0544462 0 0.000525288)
(0.0471951 0 0.0011952)
(0.0400619 0 0.00199442)
(0.0332855 0 0.00293441)
(0.0271987 0 0.00402019)
(0.0223691 0 0.0052275)
(0.0199415 0 0.00638608)
(0.0156131 0 0.00810021)
(0.0728964 0 -0.000897904)
(0.0665517 0 -0.000262837)
(0.0601016 0 0.000509066)
(0.0537188 0 0.00143331)
(0.0476369 0 0.00252171)
(0.0421612 0 0.00377496)
(0.0376656 0 0.00517528)
(0.034672 0 0.00665358)
(0.0344034 0 0.00792851)
(0.0320085 0 0.00978575)
(0.0788039 0 -0.00150638)
(0.073337 0 -0.000745004)
(0.0678994 0 0.000173616)
(0.0626918 0 0.00126092)
(0.0579779 0 0.00252006)
(0.054136 0 0.00392921)
(0.0516417 0 0.00542664)
(0.0509895 0 0.00689234)
(0.0532428 0 0.00796225)
(0.0527807 0 0.00963615)
(0.0862439 0 -0.00236056)
(0.0818617 0 -0.00153715)
(0.0776812 0 -0.000554672)
(0.0739407 0 0.000587572)
(0.0709077 0 0.00187879)
(0.0689775 0 0.00327265)
(0.0687241 0 0.0046566)
(0.0706992 0 0.00585085)
(0.0756322 0 0.00645611)
(0.076995 0 0.00775583)
(0.0951189 0 -0.00350116)
(0.0920155 0 -0.00268961)
(0.0892948 0 -0.00173308)
(0.0872304 0 -0.000646657)
(0.0861352 0 0.000534211)
(0.0863843 0 0.00174051)
(0.0885363 0 0.0028229)
(0.093186 0 0.00354119)
(0.10078 0 0.00349808)
(0.103886 0 0.00430658)
(0.10528 0 -0.00495194)
(0.103637 0 -0.00423155)
(0.102571 0 -0.003398)
(0.102355 0 -0.00247919)
(0.103368 0 -0.0015396)
(0.105997 0 -0.000678774)
(0.110678 0 -6.33245e-05)
(0.117951 0 3.1672e-05)
(0.128074 0 -0.000764645)
(0.132808 0 -0.000528457)
(0.116575 0 -0.00672701)
(0.116521 0 -0.00617339)
(0.11726 0 -0.0055561)
(0.11908 0 -0.00491865)
(0.122338 0 -0.00434105)
(0.127442 0 -0.00395438)
(0.134725 0 -0.00393761)
(0.144577 0 -0.00456587)
(0.157024 0 -0.00615099)
(0.163211 0 -0.00650022)
(0.128824 0 -0.00882506)
(0.130471 0 -0.00851394)
(0.133119 0 -0.00819747)
(0.137098 0 -0.0079417)
(0.142716 0 -0.00783528)
(0.150346 0 -0.00802602)
(0.160261 0 -0.00870141)
(0.172637 0 -0.0101065)
(0.187169 0 -0.0124592)
(0.194641 0 -0.0133653)
(0.141807 0 -0.0112275)
(0.145234 0 -0.0112283)
(0.14987 0 -0.0112917)
(0.156056 0 -0.0114994)
(0.164099 0 -0.011955)
(0.17431 0 -0.012808)
(0.18686 0 -0.0142344)
(0.201675 0 -0.016426)
(0.21806 0 -0.0194838)
(0.22675 0 -0.0209005)
(0.155294 0 -0.0139048)
(0.160515 0 -0.0142731)
(0.167171 0 -0.0147842)
(0.175577 0 -0.0155252)
(0.186057 0 -0.0166136)
(0.198851 0 -0.0181892)
(0.213995 0 -0.0203947)
(0.231163 0 -0.0233501)
(0.249224 0 -0.0270295)
(0.259302 0 -0.0288941)
(0.169029 0 -0.0168127)
(0.176015 0 -0.0175927)
(0.184638 0 -0.018598)
(0.195205 0 -0.0199231)
(0.208038 0 -0.0216907)
(0.223312 0 -0.0240232)
(0.240957 0 -0.0270189)
(0.260391 0 -0.0307032)
(0.280036 0 -0.0349254)
(0.292142 0 -0.0372044)
(0.182728 0 -0.0198912)
(0.191378 0 -0.0211091)
(0.201814 0 -0.0226299)
(0.214359 0 -0.0245602)
(0.229314 0 -0.0270226)
(0.246811 0 -0.0301228)
(0.266736 0 -0.0339195)
(0.288248 0 -0.0383115)
(0.30944 0 -0.0430379)
(0.325163 0 -0.0457436)
(0.196081 0 -0.0230655)
(0.206215 0 -0.0247246)
(0.218227 0 -0.026758)
(0.232427 0 -0.0292799)
(0.249075 0 -0.0324122)
(0.268263 0 -0.036254)
(0.28984 0 -0.0408433)
(0.312778 0 -0.0459626)
(0.335353 0 -0.0512937)
(0.358226 0 -0.0544164)
(0.208917 0 -0.0262861)
(0.220292 0 -0.0283689)
(0.233548 0 -0.0308834)
(0.248936 0 -0.0339425)
(0.266627 0 -0.0376657)
(0.286602 0 -0.0421535)
(0.308526 0 -0.0474667)
(0.331173 0 -0.0534935)
(0.353021 0 -0.0603743)
(0.391337 0 -0.0631812)
(0 0 0)
(0.0117779 0 0)
(0.0242382 0 0)
(0.044432 0 0)
(0.0704834 0 0)
(0.0992829 0 0)
(0.127599 0 0)
(0.153159 0 0)
(0.174912 0 0)
(0.192675 0 0)
(0.206687 0 0)
(0.00418099 0 -0.00545764)
(0.014966 0 -0.00582143)
(0.0276487 0 -0.00663554)
(0.0478709 0 -0.00752952)
(0.0737241 0 -0.00835775)
(0.102177 0 -0.00899724)
(0.130073 0 -0.00937612)
(0.155211 0 -0.00950276)
(0.176591 0 -0.00942194)
(0.194039 0 -0.00919517)
(0.207781 0 -0.00885781)
(0.0137092 0 -0.0108209)
(0.0242005 0 -0.0117247)
(0.037565 0 -0.0133294)
(0.0578673 0 -0.0150433)
(0.0831767 0 -0.0166022)
(0.110637 0 -0.0177863)
(0.137318 0 -0.0184713)
(0.161239 0 -0.0186726)
(0.181522 0 -0.0184874)
(0.198033 0 -0.0180205)
(0.210988 0 -0.0173342)
(0.0284434 0 -0.0163953)
(0.0387083 0 -0.0178401)
(0.0530435 0 -0.0201798)
(0.0733942 0 -0.0225976)
(0.097868 0 -0.0247382)
(0.123807 0 -0.0263106)
(0.148644 0 -0.0271891)
(0.170698 0 -0.0273892)
(0.189281 0 -0.0270483)
(0.204333 0 -0.026323)
(0.216067 0 -0.0253001)
(0.047422 0 -0.0224128)
(0.0576221 0 -0.0243044)
(0.0729913 0 -0.0272819)
(0.0933105 0 -0.0302649)
(0.116701 0 -0.0328175)
(0.140719 0 -0.0346053)
(0.163231 0 -0.0355299)
(0.182922 0 -0.0356349)
(0.199352 0 -0.0350863)
(0.212543 0 -0.0340768)
(0.22272 0 -0.0327297)
(0.0699118 0 -0.0290013)
(0.080099 0 -0.0312003)
(0.096427 0 -0.034697)
(0.116572 0 -0.038084)
(0.138631 0 -0.0408612)
(0.160404 0 -0.0426832)
(0.180221 0 -0.0434931)
(0.19721 0 -0.043398)
(0.211173 0 -0.0425891)
(0.222219 0 -0.0412725)
(0.230599 0 -0.0396024)
(0.0952524 0 -0.0361724)
(0.105429 0 -0.0385524)
(0.122533 0 -0.0424368)
(0.142267 0 -0.0460452)
(0.162696 0 -0.048839)
(0.181921 0 -0.0505046)
(0.198784 0 -0.0510512)
(0.212856 0 -0.0506559)
(0.224158 0 -0.0495315)
(0.232892 0 -0.047891)
(0.239331 0 -0.045901)
(0.122864 0 -0.0438474)
(0.132992 0 -0.0463205)
(0.150604 0 -0.0504526)
(0.169594 0 -0.0540852)
(0.188019 0 -0.0566719)
(0.204411 0 -0.0579919)
(0.218145 0 -0.0581447)
(0.229183 0 -0.0573633)
(0.237739 0 -0.0558797)
(0.244091 0 -0.053903)
(0.248531 0 -0.0516012)
(0.152226 0 -0.0519346)
(0.162248 0 -0.0544261)
(0.180028 0 -0.0586551)
(0.197836 0 -0.0620977)
(0.213833 0 -0.0642518)
(0.227116 0 -0.0650481)
(0.237597 0 -0.0646926)
(0.24556 0 -0.063461)
(0.251377 0 -0.0615927)
(0.255375 0 -0.0592826)
(0.257839 0 -0.0566851)
(0.182876 0 -0.0603152)
(0.192742 0 -0.0627759)
(0.210254 0 -0.0669274)
(0.22631 0 -0.0699337)
(0.2394 0 -0.0714288)
(0.249314 0 -0.0715453)
(0.256469 0 -0.0705949)
(0.261403 0 -0.0688782)
(0.264578 0 -0.0666228)
(0.266339 0 -0.0640018)
(0.266936 0 -0.0611436)
(0.214433 0 -0.0688777)
(0.224083 0 -0.0712723)
(0.24072 0 -0.0751128)
(0.254271 0 -0.0773854)
(0.263928 0 -0.077999)
(0.270273 0 -0.0773197)
(0.27413 0 -0.0757353)
(0.276178 0 -0.0735388)
(0.27691 0 -0.070927)
(0.276643 0 -0.0680396)
(0.275563 0 -0.0649756)
(0.246604 0 -0.0775676)
(0.255876 0 -0.0797947)
(0.270701 0 -0.082969)
(0.280803 0 -0.0841584)
(0.286562 0 -0.0837113)
(0.289275 0 -0.0821907)
(0.290005 0 -0.0799989)
(0.289463 0 -0.0773832)
(0.288075 0 -0.0744863)
(0.286071 0 -0.0714028)
(0.283553 0 -0.0681985)
(0.27919 0 -0.0863424)
(0.287499 0 -0.0881109)
(0.299056 0 -0.0900777)
(0.304716 0 -0.0898401)
(0.306352 0 -0.0882685)
(0.305675 0 -0.0859858)
(0.303699 0 -0.0833047)
(0.301023 0 -0.0803881)
(0.297919 0 -0.0773094)
(0.294502 0 -0.0741159)
(0.29079 0 -0.0708412)
(0.312058 0 -0.0951583)
(0.317539 0 -0.0956563)
(0.323935 0 -0.0957245)
(0.324658 0 -0.0939237)
(0.322529 0 -0.0913933)
(0.319097 0 -0.0885798)
(0.315068 0 -0.0856204)
(0.310792 0 -0.082565)
(0.306384 0 -0.0794251)
(0.301861 0 -0.0762107)
(0.297192 0 -0.0729348)
(0.345052 0 -0.103977)
(0.343179 0 -0.101107)
(0.343541 0 -0.0988887)
(0.339781 0 -0.0958775)
(0.334851 0 -0.0928884)
(0.32954 0 -0.0899343)
(0.324148 0 -0.0869677)
(0.318783 0 -0.0839558)
(0.313453 0 -0.0808789)
(0.308116 0 -0.0777306)
(0.302715 0 -0.0745181)
(0.378151 0 -0.112777)
(0.360559 0 -0.0994472)
(0.356094 0 -0.0976861)
(0.349846 0 -0.0952712)
(0.343491 0 -0.0927546)
(0.337222 0 -0.090149)
(0.331086 0 -0.0874456)
(0.325083 0 -0.0846415)
(0.319173 0 -0.0817361)
(0.313293 0 -0.0787326)
(0.307368 0 -0.0756421)
(0 0 0)
(0.0117779 0 0)
(0.0242382 0 0)
(0.044432 0 0)
(0.0704834 0 0)
(0.0992829 0 0)
(0.127599 0 0)
(0.153159 0 0)
(0.174912 0 0)
(0.192675 0 0)
(0.206687 0 0)
(0.00418099 0 -0.00545764)
(0.014966 0 -0.00582143)
(0.0276487 0 -0.00663554)
(0.0478709 0 -0.00752952)
(0.0737241 0 -0.00835775)
(0.102177 0 -0.00899724)
(0.130073 0 -0.00937612)
(0.155211 0 -0.00950276)
(0.176591 0 -0.00942194)
(0.194039 0 -0.00919517)
(0.207781 0 -0.00885781)
(0.0137092 0 -0.0108209)
(0.0242005 0 -0.0117247)
(0.037565 0 -0.0133294)
(0.0578673 0 -0.0150433)
(0.0831767 0 -0.0166022)
(0.110637 0 -0.0177863)
(0.137318 0 -0.0184713)
(0.161239 0 -0.0186726)
(0.181522 0 -0.0184874)
(0.198033 0 -0.0180205)
(0.210988 0 -0.0173342)
(0.0284434 0 -0.0163953)
(0.0387083 0 -0.0178401)
(0.0530435 0 -0.0201798)
(0.0733942 0 -0.0225976)
(0.097868 0 -0.0247382)
(0.123807 0 -0.0263106)
(0.148644 0 -0.0271891)
(0.170698 0 -0.0273892)
(0.189281 0 -0.0270483)
(0.204333 0 -0.026323)
(0.216067 0 -0.0253001)
(0.047422 0 -0.0224128)
(0.0576221 0 -0.0243044)
(0.0729913 0 -0.0272819)
(0.0933105 0 -0.0302649)
(0.116701 0 -0.0328175)
(0.140719 0 -0.0346053)
(0.163231 0 -0.0355299)
(0.182922 0 -0.0356349)
(0.199352 0 -0.0350863)
(0.212543 0 -0.0340768)
(0.22272 0 -0.0327297)
(0.0699118 0 -0.0290013)
(0.080099 0 -0.0312003)
(0.096427 0 -0.034697)
(0.116572 0 -0.038084)
(0.138631 0 -0.0408612)
(0.160404 0 -0.0426832)
(0.180221 0 -0.0434931)
(0.19721 0 -0.043398)
(0.211173 0 -0.0425891)
(0.222219 0 -0.0412725)
(0.230599 0 -0.0396024)
(0.0952524 0 -0.0361724)
(0.105429 0 -0.0385524)
(0.122533 0 -0.0424368)
(0.142267 0 -0.0460452)
(0.162696 0 -0.048839)
(0.181921 0 -0.0505046)
(0.198784 0 -0.0510512)
(0.212856 0 -0.0506559)
(0.224158 0 -0.0495315)
(0.232892 0 -0.047891)
(0.239331 0 -0.045901)
(0.122864 0 -0.0438474)
(0.132992 0 -0.0463205)
(0.150604 0 -0.0504526)
(0.169594 0 -0.0540852)
(0.188019 0 -0.0566719)
(0.204411 0 -0.0579919)
(0.218145 0 -0.0581447)
(0.229183 0 -0.0573633)
(0.237739 0 -0.0558797)
(0.244091 0 -0.053903)
(0.248531 0 -0.0516012)
(0.152226 0 -0.0519346)
(0.162248 0 -0.0544261)
(0.180028 0 -0.0586551)
(0.197836 0 -0.0620977)
(0.213833 0 -0.0642518)
(0.227116 0 -0.0650481)
(0.237597 0 -0.0646926)
(0.24556 0 -0.063461)
(0.251377 0 -0.0615927)
(0.255375 0 -0.0592826)
(0.257839 0 -0.0566851)
(0.182876 0 -0.0603152)
(0.192742 0 -0.0627759)
(0.210254 0 -0.0669274)
(0.22631 0 -0.0699337)
(0.2394 0 -0.0714288)
(0.249314 0 -0.0715453)
(0.256469 0 -0.0705949)
(0.261403 0 -0.0688782)
(0.264578 0 -0.0666228)
(0.266339 0 -0.0640018)
(0.266936 0 -0.0611436)
(0.214433 0 -0.0688777)
(0.224083 0 -0.0712723)
(0.24072 0 -0.0751128)
(0.254271 0 -0.0773854)
(0.263928 0 -0.077999)
(0.270273 0 -0.0773197)
(0.27413 0 -0.0757353)
(0.276178 0 -0.0735388)
(0.27691 0 -0.070927)
(0.276643 0 -0.0680396)
(0.275563 0 -0.0649756)
(0.246604 0 -0.0775676)
(0.255876 0 -0.0797947)
(0.270701 0 -0.082969)
(0.280803 0 -0.0841584)
(0.286562 0 -0.0837113)
(0.289275 0 -0.0821907)
(0.290005 0 -0.0799989)
(0.289463 0 -0.0773832)
(0.288075 0 -0.0744863)
(0.286071 0 -0.0714028)
(0.283553 0 -0.0681985)
(0.27919 0 -0.0863424)
(0.287499 0 -0.0881109)
(0.299056 0 -0.0900777)
(0.304716 0 -0.0898401)
(0.306352 0 -0.0882685)
(0.305675 0 -0.0859858)
(0.303699 0 -0.0833047)
(0.301023 0 -0.0803881)
(0.297919 0 -0.0773094)
(0.294502 0 -0.0741159)
(0.29079 0 -0.0708412)
(0.312058 0 -0.0951583)
(0.317539 0 -0.0956563)
(0.323935 0 -0.0957245)
(0.324658 0 -0.0939237)
(0.322529 0 -0.0913933)
(0.319097 0 -0.0885798)
(0.315068 0 -0.0856204)
(0.310792 0 -0.082565)
(0.306384 0 -0.0794251)
(0.301861 0 -0.0762107)
(0.297192 0 -0.0729348)
(0.345052 0 -0.103977)
(0.343179 0 -0.101107)
(0.343541 0 -0.0988887)
(0.339781 0 -0.0958775)
(0.334851 0 -0.0928884)
(0.32954 0 -0.0899343)
(0.324148 0 -0.0869677)
(0.318783 0 -0.0839558)
(0.313453 0 -0.0808789)
(0.308116 0 -0.0777306)
(0.302715 0 -0.0745181)
(0.378151 0 -0.112777)
(0.360559 0 -0.0994472)
(0.356094 0 -0.0976861)
(0.349846 0 -0.0952712)
(0.343491 0 -0.0927546)
(0.337222 0 -0.090149)
(0.331086 0 -0.0874456)
(0.325083 0 -0.0846415)
(0.319173 0 -0.0817361)
(0.313293 0 -0.0787326)
(0.307368 0 -0.0756421)
(0.221138 0 -0.0295184)
(0.233444 0 -0.0319843)
(0.247514 0 -0.0349125)
(0.263493 0 -0.0384046)
(0.281394 0 -0.0425596)
(0.300971 0 -0.0474542)
(0.321545 0 -0.0531212)
(0.341677 0 -0.0595123)
(0.359701 0 -0.0668762)
(0.372877 0 -0.0745451)
(0.232447 0 -0.0326702)
(0.24531 0 -0.0354488)
(0.259694 0 -0.0386843)
(0.275604 0 -0.0424512)
(0.292851 0 -0.0468014)
(0.310943 0 -0.0517435)
(0.328982 0 -0.0572157)
(0.345654 0 -0.0630837)
(0.359582 0 -0.069244)
(0.368713 0 -0.074874)
(0.242538 0 -0.0356336)
(0.25556 0 -0.0386304)
(0.269761 0 -0.0420404)
(0.285 0 -0.0458974)
(0.300933 0 -0.0502004)
(0.316969 0 -0.0549005)
(0.332285 0 -0.0598996)
(0.345915 0 -0.0650693)
(0.356881 0 -0.0702674)
(0.363665 0 -0.0747538)
(0.251221 0 -0.0383221)
(0.264024 0 -0.0414309)
(0.277619 0 -0.0448796)
(0.29177 0 -0.0486667)
(0.306095 0 -0.0527609)
(0.320057 0 -0.0570958)
(0.333014 0 -0.0615803)
(0.34426 0 -0.0660932)
(0.353113 0 -0.0704818)
(0.358547 0 -0.07413)
(0.270667 0 -0.0437883)
(0.283387 0 -0.0471697)
(0.29629 0 -0.0507907)
(0.309021 0 -0.0546088)
(0.321142 0 -0.058559)
(0.332164 0 -0.0625566)
(0.341567 0 -0.0664849)
(0.348904 0 -0.0702118)
(0.353479 0 -0.0732429)
(0.299033 0 -0.052358)
(0.310317 0 -0.0558843)
(0.320867 0 -0.0594636)
(0.33031 0 -0.0630152)
(0.338282 0 -0.0664375)
(0.34451 0 -0.0696319)
(0.348484 0 -0.0721979)
(0.319638 0 -0.0599283)
(0.327792 0 -0.0630791)
(0.334644 0 -0.0660731)
(0.340032 0 -0.0688385)
(0.343551 0 -0.0710435)
(0.33078 0 -0.0654691)
(0.335509 0 -0.0678842)
(0.338659 0 -0.0698012)
(0.221138 0 -0.0295184)
(0.233444 0 -0.0319843)
(0.247514 0 -0.0349125)
(0.263493 0 -0.0384046)
(0.281394 0 -0.0425596)
(0.300971 0 -0.0474542)
(0.321545 0 -0.0531212)
(0.341677 0 -0.0595123)
(0.359701 0 -0.0668762)
(0.372877 0 -0.0745451)
(0.232447 0 -0.0326702)
(0.24531 0 -0.0354488)
(0.259694 0 -0.0386843)
(0.275604 0 -0.0424512)
(0.292851 0 -0.0468014)
(0.310943 0 -0.0517435)
(0.328982 0 -0.0572157)
(0.345654 0 -0.0630837)
(0.359582 0 -0.069244)
(0.368713 0 -0.074874)
(0.242538 0 -0.0356336)
(0.25556 0 -0.0386304)
(0.269761 0 -0.0420404)
(0.285 0 -0.0458974)
(0.300933 0 -0.0502004)
(0.316969 0 -0.0549005)
(0.332285 0 -0.0598996)
(0.345915 0 -0.0650693)
(0.356881 0 -0.0702674)
(0.363665 0 -0.0747538)
(0.251221 0 -0.0383221)
(0.264024 0 -0.0414309)
(0.277619 0 -0.0448796)
(0.29177 0 -0.0486667)
(0.306095 0 -0.0527609)
(0.320057 0 -0.0570958)
(0.333014 0 -0.0615803)
(0.34426 0 -0.0660932)
(0.353113 0 -0.0704818)
(0.358547 0 -0.07413)
(0.270667 0 -0.0437883)
(0.283387 0 -0.0471697)
(0.29629 0 -0.0507907)
(0.309021 0 -0.0546088)
(0.321142 0 -0.058559)
(0.332164 0 -0.0625566)
(0.341567 0 -0.0664849)
(0.348904 0 -0.0702118)
(0.353479 0 -0.0732429)
(0.299033 0 -0.052358)
(0.310317 0 -0.0558843)
(0.320867 0 -0.0594636)
(0.33031 0 -0.0630152)
(0.338282 0 -0.0664375)
(0.34451 0 -0.0696319)
(0.348484 0 -0.0721979)
(0.319638 0 -0.0599283)
(0.327792 0 -0.0630791)
(0.334644 0 -0.0660731)
(0.340032 0 -0.0688385)
(0.343551 0 -0.0710435)
(0.33078 0 -0.0654691)
(0.335509 0 -0.0678842)
(0.338659 0 -0.0698012)
(0.387016 0 -0.0797516)
(0.382603 0 -0.0962387)
(0.377889 0 -0.0808467)
(0.377207 0 -0.0861611)
(0.37335 0 -0.0907173)
(0.372298 0 -0.0790587)
(0.372697 0 -0.0823796)
(0.37117 0 -0.0858215)
(0.366435 0 -0.0778267)
(0.367322 0 -0.0801346)
(0.367067 0 -0.0826866)
(0.36091 0 -0.0765388)
(0.361961 0 -0.0783197)
(0.362325 0 -0.0803159)
(0.355604 0 -0.0752107)
(0.356705 0 -0.0766609)
(0.357376 0 -0.0782957)
(0.350433 0 -0.0738507)
(0.351534 0 -0.0750695)
(0.35236 0 -0.0764495)
(0.34535 0 -0.0724587)
(0.346425 0 -0.0735042)
(0.347322 0 -0.0746927)
(0.340323 0 -0.0710297)
(0.341355 0 -0.0719391)
(0.342274 0 -0.0729765)
(0.335328 0 -0.0695567)
(0.336307 0 -0.0703555)
(0.337217 0 -0.0712693)
(0.387016 0 -0.0797516)
(0.382603 0 -0.0962387)
(0.377889 0 -0.0808467)
(0.377207 0 -0.0861611)
(0.37335 0 -0.0907173)
(0.372298 0 -0.0790587)
(0.372697 0 -0.0823796)
(0.37117 0 -0.0858215)
(0.366435 0 -0.0778267)
(0.367322 0 -0.0801346)
(0.367067 0 -0.0826866)
(0.36091 0 -0.0765388)
(0.361961 0 -0.0783197)
(0.362325 0 -0.0803159)
(0.355604 0 -0.0752107)
(0.356705 0 -0.0766609)
(0.357376 0 -0.0782957)
(0.350433 0 -0.0738507)
(0.351534 0 -0.0750695)
(0.35236 0 -0.0764495)
(0.34535 0 -0.0724587)
(0.346425 0 -0.0735042)
(0.347322 0 -0.0746927)
(0.340323 0 -0.0710297)
(0.341355 0 -0.0719391)
(0.342274 0 -0.0729765)
(0.335328 0 -0.0695567)
(0.336307 0 -0.0703555)
(0.337217 0 -0.0712693)
(0.3675 0 -0.0933658)
(0.361521 0 -0.0938723)
(0.355195 0 -0.0930327)
(0.348776 0 -0.0914688)
(0.34238 0 -0.0894776)
(0.336056 0 -0.0872031)
(0.32981 0 -0.0847186)
(0.323618 0 -0.0820647)
(0.317426 0 -0.0792676)
(0.367525 0 -0.0889041)
(0.362585 0 -0.09038)
(0.357141 0 -0.0904382)
(0.351346 0 -0.0896184)
(0.345343 0 -0.0882162)
(0.339229 0 -0.0864039)
(0.333054 0 -0.0842862)
(0.326826 0 -0.0819293)
(0.320521 0 -0.0793776)
(0.3651 0 -0.0853944)
(0.361488 0 -0.0871797)
(0.357021 0 -0.0877803)
(0.351993 0 -0.0875049)
(0.346571 0 -0.0865944)
(0.340868 0 -0.085208)
(0.334957 0 -0.083453)
(0.328871 0 -0.0814042)
(0.322612 0 -0.0791151)
(0.36144 0 -0.082591)
(0.358985 0 -0.0843453)
(0.355475 0 -0.0852096)
(0.351227 0 -0.0852993)
(0.346441 0 -0.0847679)
(0.341236 0 -0.0837422)
(0.335693 0 -0.0823167)
(0.329862 0 -0.0805626)
(0.323758 0 -0.0785345)
(0.357164 0 -0.0802234)
(0.355588 0 -0.0818332)
(0.352911 0 -0.0827828)
(0.349397 0 -0.0830932)
(0.345234 0 -0.0828361)
(0.340548 0 -0.0820989)
(0.335422 0 -0.0809562)
(0.329908 0 -0.0794689)
(0.324032 0 -0.0776869)
(0.352567 0 -0.0781096)
(0.351625 0 -0.0795582)
(0.349625 0 -0.0805004)
(0.346753 0 -0.0809266)
(0.343167 0 -0.0808571)
(0.338985 0 -0.0803408)
(0.334284 0 -0.0794312)
(0.329116 0 -0.0781759)
(0.323511 0 -0.076617)
(0.347789 0 -0.0761413)
(0.347295 0 -0.0774411)
(0.345818 0 -0.0783352)
(0.343485 0 -0.0788092)
(0.340411 0 -0.0788605)
(0.336694 0 -0.0785073)
(0.332403 0 -0.0777837)
(0.327585 0 -0.0767242)
(0.322269 0 -0.0753618)
(0.342898 0 -0.0742528)
(0.342713 0 -0.0754203)
(0.341633 0 -0.0762527)
(0.339735 0 -0.0767344)
(0.337099 0 -0.0768571)
(0.333796 0 -0.0766206)
(0.329886 0 -0.0760417)
(0.325406 0 -0.0751436)
(0.320381 0 -0.0739504)
(0.337926 0 -0.0724014)
(0.337949 0 -0.0734512)
(0.337163 0 -0.0742191)
(0.335608 0 -0.074687)
(0.333336 0 -0.0748465)
(0.330393 0 -0.0746907)
(0.326824 0 -0.0742221)
(0.322659 0 -0.0734544)
(0.317916 0 -0.0724042)
(0.332891 0 -0.0705566)
(0.333047 0 -0.0715011)
(0.332472 0 -0.0722047)
(0.331182 0 -0.0726482)
(0.329206 0 -0.0728227)
(0.326568 0 -0.0727192)
(0.323296 0 -0.0723327)
(0.319417 0 -0.0716692)
(0.314939 0 -0.0707383)
(0.326518 0 -0.0705989)
(0.324773 0 -0.0707736)
(0.322383 0 -0.0707007)
(0.319369 0 -0.0703746)
(0.315746 0 -0.0697942)
(0.311511 0 -0.0689622)
(0.317901 0 -0.0686296)
(0.31511 0 -0.0683474)
(0.311708 0 -0.0678317)
(0.307689 0 -0.0670807)
(0.307361 0 -0.0657808)
(0.30353 0 -0.0650955)
(0.3675 0 -0.0933658)
(0.361521 0 -0.0938723)
(0.355195 0 -0.0930327)
(0.348776 0 -0.0914688)
(0.34238 0 -0.0894776)
(0.336056 0 -0.0872031)
(0.32981 0 -0.0847186)
(0.323618 0 -0.0820647)
(0.317426 0 -0.0792676)
(0.367525 0 -0.0889041)
(0.362585 0 -0.09038)
(0.357141 0 -0.0904382)
(0.351346 0 -0.0896184)
(0.345343 0 -0.0882162)
(0.339229 0 -0.0864039)
(0.333054 0 -0.0842862)
(0.326826 0 -0.0819293)
(0.320521 0 -0.0793776)
(0.3651 0 -0.0853944)
(0.361488 0 -0.0871797)
(0.357021 0 -0.0877803)
(0.351993 0 -0.0875049)
(0.346571 0 -0.0865944)
(0.340868 0 -0.085208)
(0.334957 0 -0.083453)
(0.328871 0 -0.0814042)
(0.322612 0 -0.0791151)
(0.36144 0 -0.082591)
(0.358985 0 -0.0843453)
(0.355475 0 -0.0852096)
(0.351227 0 -0.0852993)
(0.346441 0 -0.0847679)
(0.341236 0 -0.0837422)
(0.335693 0 -0.0823167)
(0.329862 0 -0.0805626)
(0.323758 0 -0.0785345)
(0.357164 0 -0.0802234)
(0.355588 0 -0.0818332)
(0.352911 0 -0.0827828)
(0.349397 0 -0.0830932)
(0.345234 0 -0.0828361)
(0.340548 0 -0.0820989)
(0.335422 0 -0.0809562)
(0.329908 0 -0.0794689)
(0.324032 0 -0.0776869)
(0.352567 0 -0.0781096)
(0.351625 0 -0.0795582)
(0.349625 0 -0.0805004)
(0.346753 0 -0.0809266)
(0.343167 0 -0.0808571)
(0.338985 0 -0.0803408)
(0.334284 0 -0.0794312)
(0.329116 0 -0.0781759)
(0.323511 0 -0.076617)
(0.347789 0 -0.0761413)
(0.347295 0 -0.0774411)
(0.345818 0 -0.0783352)
(0.343485 0 -0.0788092)
(0.340411 0 -0.0788605)
(0.336694 0 -0.0785073)
(0.332403 0 -0.0777837)
(0.327585 0 -0.0767242)
(0.322269 0 -0.0753618)
(0.342898 0 -0.0742528)
(0.342713 0 -0.0754203)
(0.341633 0 -0.0762527)
(0.339735 0 -0.0767344)
(0.337099 0 -0.0768571)
(0.333796 0 -0.0766206)
(0.329886 0 -0.0760417)
(0.325406 0 -0.0751436)
(0.320381 0 -0.0739504)
(0.337926 0 -0.0724014)
(0.337949 0 -0.0734512)
(0.337163 0 -0.0742191)
(0.335608 0 -0.074687)
(0.333336 0 -0.0748465)
(0.330393 0 -0.0746907)
(0.326824 0 -0.0742221)
(0.322659 0 -0.0734544)
(0.317916 0 -0.0724042)
(0.332891 0 -0.0705566)
(0.333047 0 -0.0715011)
(0.332472 0 -0.0722047)
(0.331182 0 -0.0726482)
(0.329206 0 -0.0728227)
(0.326568 0 -0.0727192)
(0.323296 0 -0.0723327)
(0.319417 0 -0.0716692)
(0.314939 0 -0.0707383)
(0.326518 0 -0.0705989)
(0.324773 0 -0.0707736)
(0.322383 0 -0.0707007)
(0.319369 0 -0.0703746)
(0.315746 0 -0.0697942)
(0.311511 0 -0.0689622)
(0.317901 0 -0.0686296)
(0.31511 0 -0.0683474)
(0.311708 0 -0.0678317)
(0.307689 0 -0.0670807)
(0.307361 0 -0.0657808)
(0.30353 0 -0.0650955)
)
;

boundaryField
{
    inlet
    {
        type            fixedValue;
        value           nonuniform 0();
    }
    outlet
    {
        type            fixedValue;
        value           nonuniform 0();
    }
    flap
    {
        type            fixedValue;
        value           nonuniform List<vector> 
68
(
(0 0 0)
(0.00479222 0 0.004688)
(0.00479222 0 0.004688)
(0 0 0)
(0.0156131 0 0.00810021)
(0.0156131 0 0.00810021)
(0.0320085 0 0.00978575)
(0.0320085 0 0.00978575)
(0.0527807 0 0.00963615)
(0.0527807 0 0.00963615)
(0.076995 0 0.00775583)
(0.076995 0 0.00775583)
(0.103886 0 0.00430658)
(0.103886 0 0.00430658)
(0.132808 0 -0.000528457)
(0.132808 0 -0.000528457)
(0.163211 0 -0.00650022)
(0.163211 0 -0.00650022)
(0.194641 0 -0.0133653)
(0.194641 0 -0.0133653)
(0.22675 0 -0.0209005)
(0.22675 0 -0.0209005)
(0.259302 0 -0.0288941)
(0.259302 0 -0.0288941)
(0.292142 0 -0.0372044)
(0.292142 0 -0.0372044)
(0.325163 0 -0.0457436)
(0.325163 0 -0.0457436)
(0.358226 0 -0.0544164)
(0.358226 0 -0.0544164)
(0.391337 0 -0.0631812)
(0.391337 0 -0.0631812)
(0.387016 0 -0.0797516)
(0.387016 0 -0.0797516)
(0.382603 0 -0.0962387)
(0.382603 0 -0.0962387)
(0.378151 0 -0.112777)
(0.378151 0 -0.112777)
(0 0 0)
(0 0 0)
(0.00418099 0 -0.00545764)
(0.00418099 0 -0.00545764)
(0.0137092 0 -0.0108209)
(0.0137092 0 -0.0108209)
(0.0284434 0 -0.0163953)
(0.0284434 0 -0.0163953)
(0.047422 0 -0.0224128)
(0.047422 0 -0.0224128)
(0.0699118 0 -0.0290013)
(0.0699118 0 -0.0290013)
(0.0952524 0 -0.0361724)
(0.0952524 0 -0.0361724)
(0.122864 0 -0.0438474)
(0.122864 0 -0.0438474)
(0.152226 0 -0.0519346)
(0.152226 0 -0.0519346)
(0.182876 0 -0.0603152)
(0.182876 0 -0.0603152)
(0.214433 0 -0.0688777)
(0.214433 0 -0.0688777)
(0.246604 0 -0.0775676)
(0.246604 0 -0.0775676)
(0.27919 0 -0.0863424)
(0.27919 0 -0.0863424)
(0.312058 0 -0.0951583)
(0.312058 0 -0.0951583)
(0.345052 0 -0.103977)
(0.345052 0 -0.103977)
)
;
    }
    upperWall
    {
        type            slip;
    }
    lowerWall
    {
        type            slip;
    }
    frontAndBack
    {
        type            empty;
    }
    procBoundary4to1
    {
        type            processor;
    }
    procBoundary4to2
    {
        type            processor;
    }
    procBoundary4to3
    {
        type            processor;
    }
    procBoundary4to5
    {
        type            processor;
    }
}


// ************************************************************************* //
