/*--------------------------------*- C++ -*----------------------------------*\
| =========                 |                                                 |
| \\      /  F ield         | OpenFOAM: The Open Source CFD Toolbox           |
|  \\    /   O peration     | Version:  dev                                   |
|   \\  /    A nd           | Web:      www.OpenFOAM.org                      |
|    \\/     M anipulation  |                                                 |
\*---------------------------------------------------------------------------*/
FoamFile
{
    version     2.0;
    format      ascii;
    class       volVectorField;
    location    "0.58";
    object      Force;
}
// * * * * * * * * * * * * * * * * * * * * * * * * * * * * * * * * * * * * * //

dimensions      [1 1 -2 0 0 0 0];

internalField   uniform (0 0 0);

boundaryField
{
    inlet
    {
        type            calculated;
        value           nonuniform 0();
    }
    outlet
    {
        type            calculated;
        value           nonuniform 0();
    }
    flap
    {
        type            calculated;
        value           nonuniform List<vector> 
33
(
(3.30433 2.89526e-22 -0.255645)
(3.21042 -4.16275e-18 -0.51503)
(3.12212 -1.17606e-21 -0.700968)
(3.03368 8.3304e-18 -0.791906)
(2.96106 -1.63233e-17 -0.793986)
(2.91061 -1.86548e-21 -0.726999)
(2.87808 1.78803e-21 -0.61781)
(2.85641 -4.06644e-18 -0.481187)
(2.83512 1.47483e-17 -0.327356)
(2.80591 1.01026e-22 -0.173316)
(2.75608 -3.6655e-24 -0.0384249)
(2.66761 -1.10958e-22 0.0637435)
(2.51002 -5.06744e-22 0.124561)
(2.21532 1.62008e-17 0.140649)
(1.60236 1.27269e-22 0.108324)
(-0.0456515 2.8449e-19 0.843147)
(-0.046398 8.04574e-18 0.666992)
(-0.0234118 8.0352e-18 0.414728)
(0.0205173 9.18355e-41 -0.00155715)
(0.0185846 2.7556e-20 -0.00291103)
(0.0187947 -1.93836e-23 -0.00379199)
(0.0288624 -3.13345e-22 -0.00663482)
(0.0571149 1.60173e-19 -0.0138496)
(0.110491 1.70415e-17 -0.0255021)
(0.190875 -2.22561e-23 -0.0381467)
(0.291726 1.37364e-22 -0.0457615)
(0.397624 -5.51287e-24 -0.0423384)
(0.4866 -2.24189e-24 -0.0265497)
(0.539876 1.76023e-17 -0.0041816)
(0.551426 -1.73757e-17 0.0162528)
(0.527093 1.75727e-19 0.0286875)
(0.480441 -3.43607e-23 0.0322627)
(0.42585 1.59559e-17 0.0289147)
)
;
    }
    upperWall
    {
        type            calculated;
        value           nonuniform 0();
    }
    lowerWall
    {
        type            calculated;
        value           uniform (0 0 0);
    }
    frontAndBack
    {
        type            empty;
    }
    procBoundary4to1
    {
        type            processor;
        value           uniform (0 0 0);
    }
    procBoundary4to2
    {
        type            processor;
        value           uniform (0 0 0);
    }
    procBoundary4to3
    {
        type            processor;
        value           uniform (0 0 0);
    }
    procBoundary4to5
    {
        type            processor;
        value           uniform (0 0 0);
    }
}


// ************************************************************************* //
