/*--------------------------------*- C++ -*----------------------------------*\
| =========                 |                                                 |
| \\      /  F ield         | OpenFOAM: The Open Source CFD Toolbox           |
|  \\    /   O peration     | Version:  dev                                   |
|   \\  /    A nd           | Web:      www.OpenFOAM.org                      |
|    \\/     M anipulation  |                                                 |
\*---------------------------------------------------------------------------*/
FoamFile
{
    version     2.0;
    format      ascii;
    class       surfaceVectorField;
    location    "0.54";
    object      Uf;
}
// * * * * * * * * * * * * * * * * * * * * * * * * * * * * * * * * * * * * * //

dimensions      [0 1 -1 0 0 0 0];

internalField   nonuniform List<vector> 
5457
(
(9.91465 0 0.0239738)
(9.96099 0 0.039166)
(9.81507 0 0.0312892)
(9.9202 0 0.0469923)
(9.69943 0 0.0373628)
(9.85118 -3.66148e-21 0.0562155)
(9.56573 -1.99964e-21 0.0435933)
(9.75394 0 0.0669454)
(9.41386 -8.97021e-22 0.0500469)
(9.63613 -3.92953e-21 0.0782986)
(9.24387 -1.13397e-21 0.0567863)
(9.50049 5.10502e-21 0.0902106)
(9.05543 -3.22194e-21 0.0639564)
(9.34632 4.44984e-24 0.102912)
(8.84786 1.22973e-21 0.0717009)
(9.1725 -3.32564e-21 0.11663)
(8.62028 5.96101e-21 0.0801457)
(8.97814 6.93161e-21 0.131546)
(8.37164 6.21845e-21 0.0894113)
(8.76235 -2.31902e-21 0.14783)
(8.10076 -2.09812e-21 0.0996215)
(8.52408 -1.00287e-20 0.165656)
(7.80634 -4.52042e-21 0.110905)
(8.26209 5.16177e-21 0.185199)
(7.48698 0 0.123387)
(7.97505 -1.37127e-21 0.20663)
(7.1413 7.7417e-22 0.137188)
(7.66154 4.4913e-23 0.230092)
(6.76799 -1.24087e-20 0.152413)
(7.32018 -1.49653e-21 0.255686)
(6.36589 7.64691e-22 0.16914)
(6.94966 -6.42278e-20 0.283457)
(5.93418 1.31864e-20 0.187401)
(6.54892 6.61662e-20 0.313353)
(5.47253 0 0.207161)
(6.11723 6.98992e-21 0.34518)
(4.98134 0 0.228281)
(5.65444 -5.94682e-20 0.37857)
(4.46199 0 0.250467)
(5.16122 4.59022e-20 0.412892)
(3.91716 0 0.273214)
(4.63927 -1.31215e-19 0.447158)
(3.35124 -1.85414e-20 0.295725)
(4.09172 -1.35498e-19 0.479967)
(2.77056 -1.7998e-20 0.316732)
(3.52351 -7.74562e-22 0.509397)
(2.18399 0 0.334091)
(2.94165 0 0.532782)
(1.60351 4.2125e-20 0.343558)
(2.35569 0 0.546333)
(1.0459 4.10504e-20 0.335437)
(1.7781 8.34154e-20 0.543777)
(0.5377 0 0.288677)
(1.2246 -5.04613e-19 0.51231)
(0.126927 -3.53481e-19 0.168375)
(0.717999 1.3752e-18 0.424344)
(-0.0954238 -3.5509e-19 -0.0105712)
(0.296257 -1.04715e-18 0.228928)
(0.180184 1.79781e-18 -0.101043)
(9.99699 0 0.0500792)
(9.9889 6.89316e-21 0.0405442)
(9.9591 -3.71717e-21 0.0678084)
(9.97428 -7.08556e-21 0.0648661)
(9.89974 -3.60659e-21 0.0834303)
(9.93505 -9.29306e-24 0.0850693)
(9.82045 -1.99039e-21 0.099894)
(9.86829 -1.899e-21 0.106639)
(9.7211 2.20279e-21 0.117316)
(9.78047 3.91074e-21 0.129511)
(9.6016 6.16757e-21 0.135782)
(9.67444 6.84081e-24 0.153618)
(9.46163 -1.48864e-22 0.155589)
(9.54973 2.12038e-21 0.179345)
(9.30059 2.52438e-21 0.177043)
(9.40535 6.64912e-21 0.207106)
(9.11768 -1.48382e-21 0.20042)
(9.24054 4.76342e-21 0.237262)
(8.91191 -1.86783e-20 0.225982)
(9.05452 -1.54507e-20 0.270164)
(8.68213 -2.55377e-21 0.253994)
(8.84634 -1.01204e-20 0.306171)
(8.42703 8.218e-21 0.284718)
(8.61487 3.07931e-20 0.34565)
(8.14523 -1.30641e-21 0.31839)
(8.35884 -2.16357e-20 0.388953)
(7.83531 -2.25093e-21 0.355198)
(8.07691 9.86533e-26 0.436384)
(7.49588 -5.42113e-20 0.395258)
(7.7677 -5.06311e-20 0.488174)
(7.12567 2.96659e-21 0.438576)
(7.42988 -5.22402e-20 0.544447)
(6.7237 5.91235e-20 0.484982)
(7.06224 -1.47867e-21 0.605144)
(6.28942 -5.34397e-20 0.534071)
(6.66383 9.58327e-20 0.669935)
(5.82293 -1.21944e-20 0.585111)
(6.23413 -5.948e-20 0.738135)
(5.32527 -8.79002e-20 0.636915)
(5.77333 1.84299e-19 0.808559)
(4.79868 -2.67297e-19 0.687706)
(5.28245 -2.89893e-19 0.879308)
(4.24709 -1.15364e-19 0.734982)
(4.76364 -1.35515e-19 0.947585)
(3.67642 1.765e-20 0.775256)
(4.22075 -1.94605e-19 1.00949)
(3.09515 0 0.803599)
(3.65942 2.91157e-19 1.05955)
(2.51485 4.09908e-20 0.812657)
(3.08737 0 1.09002)
(1.95043 -4.69832e-19 0.790387)
(2.51447 -6.75131e-19 1.08935)
(1.41865 8.88862e-19 0.717165)
(1.9512 -1.32763e-18 1.03919)
(0.930264 6.64561e-19 0.569728)
(1.4063 2.88062e-18 0.912631)
(0.460086 1.20218e-18 0.327625)
(0.873533 -6.89767e-19 0.688896)
(0.496099 3.46007e-18 0.355911)
(9.98967 -3.93361e-22 0.0579381)
(9.98652 1.37595e-20 0.0452902)
(9.95508 -3.2625e-21 0.085292)
(9.96942 2.39576e-24 0.0811971)
(9.89931 1.67748e-21 0.111075)
(9.93125 -1.8028e-21 0.11219)
(9.82501 4.08677e-21 0.138268)
(9.8675 -3.78131e-21 0.143862)
(9.73248 1.65899e-21 0.167202)
(9.78364 5.87596e-21 0.177233)
(9.62159 -4.01212e-21 0.198055)
(9.6825 -4.07125e-21 0.212484)
(9.49208 8.9836e-21 0.231232)
(9.56389 6.29456e-23 0.250097)
(9.3435 8.85595e-21 0.267177)
(9.42702 -8.67488e-21 0.290616)
(9.17523 -9.49871e-21 0.306317)
(9.27127 9.19268e-21 0.334554)
(8.98646 -6.82055e-21 0.349088)
(9.09606 4.93543e-21 0.38243)
(8.7762 2.38059e-20 0.395939)
(8.90064 -1.22439e-20 0.434785)
(8.54332 1.93561e-22 0.447309)
(8.68409 6.28708e-20 0.492165)
(8.2866 -2.00296e-20 0.503609)
(8.44537 -1.95009e-20 0.555094)
(8.00471 -4.91006e-20 0.565179)
(8.1834 -4.63945e-20 0.624045)
(7.69633 -4.87171e-20 0.632257)
(7.897 -9.48257e-20 0.699412)
(7.36014 -5.60569e-20 0.704905)
(7.58498 4.8278e-20 0.78145)
(6.99498 3.64929e-20 0.782913)
(7.2462 -6.07809e-20 0.870173)
(6.59996 8.76281e-20 0.865687)
(6.87963 -2.1273e-20 0.965232)
(6.17461 1.40276e-19 0.952115)
(6.48446 1.13414e-19 1.06577)
(5.71916 -2.42448e-20 1.04035)
(6.06033 1.38341e-19 1.17027)
(5.23464 -1.56436e-19 1.12752)
(5.60744 -1.2715e-19 1.27621)
(4.72336 -2.15472e-19 1.20953)
(5.12654 0 1.37972)
(4.18914 8.44219e-20 1.28065)
(4.6196 -7.66033e-19 1.47532)
(3.6375 2.87404e-19 1.33298)
(4.08955 1.43582e-18 1.55536)
(3.07551 -7.23065e-19 1.35562)
(3.5402 -4.43811e-19 1.60935)
(2.5105 -1.53831e-18 1.33347)
(2.97612 -7.14148e-19 1.6232)
(1.9459 7.04629e-19 1.24715)
(2.40031 -8.21895e-19 1.57862)
(1.37409 1.50623e-18 1.08058)
(1.81254 1.34016e-18 1.45517)
(0.772558 1.65936e-18 0.845194)
(1.19131 1.43469e-18 1.24552)
(0.672982 1.83534e-20 0.972522)
(9.98536 1.39478e-20 0.0690784)
(9.98519 -6.88369e-21 0.052014)
(9.95092 1.42997e-21 0.107471)
(9.96629 -7.01501e-21 0.0974566)
(9.89615 -7.28624e-21 0.14422)
(9.92803 -1.6366e-20 0.138832)
(9.82305 -1.85443e-21 0.182065)
(9.86548 1.87139e-21 0.180484)
(9.73229 0 0.221827)
(9.78331 0 0.224047)
(9.62384 6.38586e-23 0.263978)
(9.68421 0 0.270064)
(9.49754 -1.77287e-20 0.309088)
(9.56821 2.52839e-20 0.319107)
(9.35309 -8.08549e-21 0.357752)
(9.43469 -4.37656e-20 0.371815)
(9.19007 2.35634e-20 0.410566)
(9.28313 3.6158e-20 0.428826)
(9.00789 -7.36723e-22 0.468149)
(9.11308 2.85939e-20 0.490797)
(8.80581 2.78753e-20 0.531132)
(8.92397 -1.96826e-20 0.558419)
(8.583 4.20144e-20 0.600133)
(8.71508 8.33381e-20 0.632378)
(8.33854 -4.62423e-20 0.675731)
(8.48565 -4.18527e-20 0.713325)
(8.07147 -9.28062e-20 0.758448)
(8.23487 -4.77539e-20 0.801876)
(7.78075 4.12517e-21 0.848688)
(7.96182 -4.63662e-20 0.898576)
(7.46535 4.20013e-20 0.946651)
(7.66562 4.92775e-20 1.00381)
(7.12425 -1.18142e-19 1.05221)
(7.34534 -9.7485e-20 1.11772)
(6.75655 6.15079e-21 1.16476)
(7.00007 9.9385e-21 1.24002)
(6.36153 1.11877e-19 1.28304)
(6.62893 3.268e-19 1.36983)
(5.93884 3.19375e-20 1.40488)
(6.23123 -2.33545e-19 1.50549)
(5.48852 3.10845e-20 1.52679)
(5.80655 2.79838e-19 1.64421)
(5.01118 -5.60637e-19 1.6436)
(5.35452 -2.63172e-19 1.78155)
(4.50811 6.10857e-19 1.74807)
(4.87515 4.51594e-19 1.91107)
(3.98107 6.83975e-19 1.83031)
(4.3686 9.78492e-20 2.02391)
(3.43192 -4.39155e-19 1.87727)
(3.83481 -1.24878e-20 2.10801)
(2.8613 0 1.87263)
(3.27347 0 2.14807)
(2.26613 -1.65072e-19 1.7983)
(2.68257 -1.54666e-19 2.12607)
(1.63763 1.26689e-18 1.64142)
(2.05942 -1.63763e-19 2.02401)
(0.969411 -1.50986e-19 1.42111)
(1.38794 1.33973e-18 1.83551)
(0.790421 -1.50085e-18 1.59471)
(9.98326 -2.78537e-20 0.0810314)
(9.98459 -1.37501e-20 0.0596962)
(9.94846 -2.49552e-20 0.129069)
(9.96472 -1.40567e-20 0.11389)
(9.89462 -6.94021e-21 0.175619)
(9.92653 7.27052e-21 0.165022)
(9.82285 3.69837e-21 0.223257)
(9.86523 1.49909e-20 0.216441)
(9.73382 0 0.273196)
(9.78488 0 0.269976)
(9.62759 2.55877e-20 0.326157)
(9.68798 0 0.326469)
(9.50408 -1.75169e-21 0.38282)
(9.57469 8.52284e-21 0.386599)
(9.36305 1.62801e-21 0.443877)
(9.44448 -3.48928e-20 0.451102)
(9.20414 4.10838e-20 0.510037)
(9.29687 1.80562e-20 0.520732)
(9.02685 8.96345e-21 0.582035)
(9.13145 4.26055e-20 0.596263)
(8.8306 3.72205e-20 0.660615)
(8.94774 -5.35482e-20 0.678509)
(8.61471 -2.28772e-21 0.7465)
(8.74516 5.45486e-21 0.768252)
(8.3785 -4.34514e-20 0.840378)
(8.52308 -5.70665e-21 0.866243)
(8.12122 -1.27962e-21 0.942889)
(8.28084 -4.1395e-21 0.973212)
(7.84211 9.02013e-23 1.05456)
(8.01771 4.50173e-25 1.08981)
(7.54037 -9.22542e-20 1.17572)
(7.73297 0 1.21656)
(7.21517 3.19419e-20 1.30635)
(7.42586 1.07211e-19 1.3537)
(6.86568 3.34839e-19 1.44591)
(7.09554 -8.97198e-20 1.5011)
(6.49106 -2.57915e-20 1.59314)
(6.7411 4.12128e-21 1.65795)
(6.09057 2.10381e-20 1.74579)
(6.36158 2.40266e-20 1.8226)
(5.66347 -2.08326e-20 1.90014)
(5.95599 -2.67321e-19 1.99226)
(5.20894 7.5633e-19 2.05058)
(5.52309 -1.26763e-18 2.1624)
(4.72604 -6.36104e-20 2.18911)
(5.06116 1.52433e-18 2.32622)
(4.21341 -6.01963e-19 2.30481)
(4.56807 -1.04765e-18 2.47431)
(3.66887 4.2695e-19 2.38342)
(4.04089 4.30704e-19 2.59381)
(3.08912 -1.5557e-19 2.40769)
(3.47589 -7.24729e-20 2.66818)
(2.46947 -1.53607e-19 2.35916)
(2.86865 -3.42599e-21 2.67803)
(1.80546 -8.28435e-20 2.22304)
(2.21693 -1.21316e-18 2.60351)
(1.10811 6.78195e-21 2.01571)
(1.51862 1.23002e-18 2.43073)
(0.879089 5.04305e-22 2.18771)
(9.98234 4.12293e-23 0.0933262)
(9.9844 0 0.0678017)
(9.94739 1.84897e-20 0.150395)
(9.96419 1.58435e-20 0.130391)
(9.89463 2.93156e-20 0.206422)
(9.92641 3.08052e-20 0.190686)
(9.82455 1.10717e-20 0.263796)
(9.86656 1.49328e-20 0.251555)
(9.73765 0 0.323873)
(9.78831 -1.1617e-20 0.314809)
(9.63409 -1.69425e-20 0.387514)
(9.69408 7.97622e-21 0.381465)
(9.51381 -2.52454e-20 0.455491)
(9.584 -2.49546e-20 0.452328)
(9.37662 -1.7704e-20 0.528598)
(9.45759 8.58714e-21 0.528239)
(9.22219 1.9924e-20 0.60765)
(9.31444 -9.04188e-21 0.610061)
(9.05006 -2.12582e-20 0.693496)
(9.15414 1.91507e-20 0.69868)
(8.85971 -8.45112e-20 0.78698)
(8.97626 -3.88917e-20 0.795001)
(8.65058 1.8723e-21 0.888919)
(8.78032 -3.10765e-20 0.899894)
(8.42206 3.36456e-20 1.0001)
(8.56574 4.2229e-20 1.0142)
(8.17351 -2.80416e-21 1.12128)
(8.33189 -2.70457e-21 1.13876)
(7.90426 -8.97916e-23 1.25307)
(8.07815 -9.10398e-23 1.27431)
(7.6136 2.00951e-19 1.39594)
(7.80377 0 1.42147)
(7.30078 -1.69165e-20 1.55)
(7.50803 1.98379e-19 1.58066)
(6.9649 -4.19431e-19 1.71485)
(7.19005 -6.69091e-21 1.75187)
(6.60498 5.40459e-20 1.88934)
(6.84878 -4.11118e-19 1.93447)
(6.21984 -2.67679e-19 2.07129)
(6.48289 2.29513e-19 2.12699)
(5.80801 -1.52707e-18 2.25711)
(6.09077 -1.23481e-20 2.32681)
(5.36745 -4.69586e-19 2.44115)
(5.67036 -1.01258e-18 2.52966)
(4.8954 5.12858e-19 2.61523)
(5.21845 1.02359e-18 2.72886)
(4.38821 -7.73631e-22 2.76794)
(4.73107 -6.6963e-20 2.91485)
(3.84109 -7.30073e-20 2.88402)
(4.20325 0 3.07418)
(3.24872 8.02863e-20 2.94443)
(3.62895 1.13451e-18 3.18873)
(2.60686 -1.06855e-18 2.92776)
(3.00273 1.62951e-19 3.23605)
(1.91632 1.09145e-19 2.81326)
(2.32305 -2.45661e-18 3.19136)
(1.19936 1.20359e-18 2.6063)
(1.60271 1.28644e-18 3.02975)
(0.940581 -7.47239e-20 2.75665)
(9.9821 1.60284e-20 0.105712)
(9.98441 2.71354e-20 0.0760179)
(9.94742 2.83728e-20 0.17141)
(9.96435 1.58026e-20 0.146761)
(9.8959 1.61948e-20 0.236521)
(9.92735 -5.40651e-21 0.21575)
(9.82776 -8.13864e-21 0.30331)
(9.86912 -7.4973e-21 0.285699)
(9.74339 -3.35611e-21 0.373173)
(9.79329 3.73336e-21 0.358336)
(9.64299 -5.09064e-22 0.447089)
(9.70215 -2.7034e-23 0.43479)
(9.5265 9.35522e-21 0.525941)
(9.5958 4.95914e-20 0.515995)
(9.39375 1.70033e-20 0.610633)
(9.47378 -8.38201e-21 0.602893)
(9.24442 -9.42342e-21 0.702093)
(9.33571 0 0.696449)
(9.07811 6.9954e-22 0.801263)
(9.1812 -2.3575e-23 0.797651)
(8.89434 1.46674e-20 0.909074)
(9.0099 9.73225e-21 0.907481)
(8.69261 1.02907e-20 1.02643)
(8.82135 -5.03517e-21 1.0269)
(8.47233 5.25841e-21 1.15422)
(8.615 5.28633e-21 1.15685)
(8.23288 4.3375e-23 1.29329)
(8.39024 5.48843e-21 1.29825)
(7.97358 0 1.44437)
(8.14644 0 1.45198)
(7.69368 0 1.60804)
(7.88278 0 1.61879)
(7.39231 2.06088e-19 1.7846)
(7.59842 -1.94546e-19 1.79922)
(7.06848 -3.09591e-21 1.97382)
(7.29237 4.12331e-19 1.99348)
(6.72085 -2.28034e-19 2.17478)
(6.96332 -2.15148e-19 2.20121)
(6.3477 4.81868e-19 2.38556)
(6.60944 -2.84432e-20 2.42125)
(5.94677 4.91475e-19 2.60291)
(6.2284 5.65924e-20 2.65136)
(5.51493 5.01955e-19 2.82153)
(5.81722 -9.44209e-19 2.88773)
(5.04785 4.33057e-19 3.03337)
(5.37142 9.79229e-19 3.12415)
(4.54003 -6.57797e-20 3.22682)
(4.88537 -6.63606e-20 3.3512)
(3.98488 1.21583e-18 3.38552)
(4.35225 0 3.55498)
(3.37569 1.21303e-18 3.48775)
(3.76406 1.20749e-18 3.71555)
(2.7089 -1.24022e-18 3.50709)
(3.11452 1.17494e-20 3.80628)
(1.98981 -1.25105e-18 3.41452)
(2.40188 -1.26329e-18 3.79551)
(1.24519 -9.22321e-21 3.19655)
(1.64919 -1.26716e-18 3.6471)
(0.972053 1.2494e-18 3.32677)
(9.98224 2.6748e-20 0.117988)
(9.98453 8.5463e-22 0.0841679)
(9.94822 -1.83099e-20 0.191977)
(9.96495 -2.86235e-20 0.162827)
(9.89813 -2.91366e-20 0.265775)
(9.92904 -5.02346e-20 0.240116)
(9.8322 4.54955e-21 0.341596)
(9.87271 -2.22683e-20 0.318742)
(9.75075 7.00948e-21 0.420855)
(9.7996 -1.52482e-20 0.400363)
(9.65397 5.07901e-20 0.504638)
(9.71195 -8.12093e-21 0.486201)
(9.5418 3.10268e-20 0.593939)
(9.60979 4.13795e-20 0.577308)
(9.41408 -2.52724e-20 0.689763)
(9.4927 -2.56347e-20 0.674723)
(9.27054 9.39964e-21 0.79313)
(9.36032 0 0.779505)
(9.1108 9.14399e-21 0.90507)
(9.21232 9.27282e-21 0.892725)
(8.93444 -1.01739e-20 1.0266)
(9.04839 -3.83188e-20 1.01545)
(8.74096 -9.90266e-21 1.15871)
(8.8681 3.9079e-20 1.14873)
(8.52979 5.51688e-21 1.3024)
(8.67089 9.3074e-20 1.29361)
(8.30031 5.37302e-21 1.45862)
(8.45618 -7.94254e-20 1.45112)
(8.05178 0 1.62825)
(8.22327 0 1.62227)
(7.78332 -1.97093e-19 1.81202)
(7.9713 1.86351e-19 1.80799)
(7.49392 1.91106e-20 2.0104)
(7.6993 -5.8813e-19 2.009)
(7.18231 1.92807e-19 2.22347)
(7.40601 2.05872e-19 2.22574)
(6.84676 -1.32027e-20 2.45064)
(7.08978 1.92424e-19 2.45827)
(6.48489 -4.52981e-19 2.69045)
(6.74832 3.33191e-21 2.70591)
(6.09354 -1.39061e-18 2.94013)
(6.37857 -4.62371e-19 2.96694)
(5.66849 -4.49502e-19 3.19498)
(5.97641 -4.8583e-19 3.23822)
(5.20396 4.70442e-19 3.44747)
(5.53614 1.93906e-20 3.51431)
(4.69268 0 3.68596)
(5.0505 0 3.78631)
(4.12609 0 3.89308)
(4.51045 0 4.04018)
(3.49575 0 4.04402)
(3.90559 0 4.2544)
(2.79779 -1.84406e-20 4.10621)
(3.22789 -5.16304e-19 4.39781)
(2.04041 -1.28269e-18 4.04122)
(2.47401 6.03464e-19 4.43069)
(1.25056 -7.84881e-20 3.8094)
(1.66822 -1.17106e-18 4.30643)
(0.973531 1.24082e-18 3.93778)
(9.98262 -5.49602e-20 0.130009)
(9.98475 -2.62822e-20 0.0921443)
(9.94953 -6.08771e-20 0.211962)
(9.96585 -8.81448e-22 0.17845)
(9.90116 -4.29679e-20 0.294053)
(9.93132 -3.5637e-20 0.263653)
(9.83773 -4.19637e-20 0.378495)
(9.87719 7.35127e-21 0.350534)
(9.75954 -3.02772e-20 0.466726)
(9.80712 -2.29889e-20 0.440712)
(9.66678 -1.6813e-20 0.559927)
(9.7233 -2.37426e-20 0.535481)
(9.55941 -1.62418e-20 0.6592)
(9.62576 -1.4114e-22 0.636006)
(9.4373 0 0.765636)
(9.5141 0 0.743415)
(9.30019 0 0.880341)
(9.388 -1.77568e-20 0.858849)
(9.14777 -3.88484e-20 1.00443)
(9.24717 -4.35483e-22 0.983455)
(8.97965 1.19811e-20 1.139)
(9.09137 -3.88133e-20 1.11839)
(8.79534 1.42814e-19 1.28516)
(8.92018 9.75787e-20 1.2648)
(8.59428 5.88459e-21 1.44399)
(8.73309 1.03103e-19 1.42384)
(8.37582 -8.38009e-20 1.61659)
(8.52949 -9.53899e-20 1.59666)
(8.13916 1.8879e-19 1.804)
(8.30861 0 1.78442)
(7.88336 -2.14281e-19 2.00715)
(8.06961 9.51078e-20 1.98823)
(7.60719 -3.9206e-19 2.22676)
(7.81139 -2.94396e-19 2.20907)
(7.30905 2.05151e-19 2.46326)
(7.53241 -3.07731e-21 2.44774)
(6.98678 2.06967e-19 2.71658)
(7.23068 4.09652e-19 2.70473)
(6.63744 -1.09096e-20 2.98584)
(6.90353 -2.20811e-19 2.97999)
(6.25695 4.42905e-19 3.269)
(6.54722 -2.4526e-19 3.27259)
(5.83984 -1.17742e-20 3.56219)
(6.15652 6.7861e-19 3.58032)
(5.37882 -4.51921e-19 3.85875)
(5.72442 -8.89737e-19 3.89881)
(4.86455 0 4.14757)
(5.2418 0 4.22029)
(4.28585 0 4.41071)
(4.69685 0 4.53136)
(3.63145 -5.20887e-19 4.62056)
(4.07582 0 4.80973)
(2.89504 1.18631e-19 4.73823)
(3.36681 -2.03394e-20 5.0205)
(2.08463 6.87373e-19 4.71522)
(2.56255 3.98595e-20 5.11532)
(1.22627 7.48396e-20 4.47843)
(1.67617 3.80649e-20 5.03644)
(0.950092 1.13954e-19 4.63435)
(9.9832 2.81384e-20 0.141666)
(9.98506 0 0.0998572)
(9.95129 2.38315e-20 0.231245)
(9.967 2.42977e-20 0.193517)
(9.90488 1.53008e-20 0.321217)
(9.93409 2.85394e-20 0.286239)
(9.84425 2.58824e-20 0.413845)
(9.88246 1.84274e-20 0.380926)
(9.76967 -1.6463e-20 0.510593)
(9.81575 7.61504e-21 0.479205)
(9.68131 -6.72578e-21 0.612729)
(9.73611 -7.95875e-21 0.582429)
(9.57918 1.61044e-20 0.721444)
(9.64358 1.00358e-22 0.691848)
(9.46318 -1.80058e-20 0.837916)
(9.5378 1.66496e-20 0.808678)
(9.33311 -1.79576e-20 0.963328)
(9.41849 -6.99838e-20 0.934136)
(9.18869 -9.15062e-22 1.09887)
(9.28545 -8.40251e-22 1.06944)
(9.02958 4.86225e-20 1.24574)
(9.13844 3.65017e-20 1.21583)
(8.85533 5.79293e-20 1.40515)
(8.97715 8.75143e-20 1.37456)
(8.6654 -7.49025e-22 1.5783)
(8.8011 -1.70011e-19 1.54688)
(8.45911 -1.03351e-20 1.76642)
(8.60967 8.22816e-20 1.7341)
(8.23564 -9.2577e-20 1.97074)
(8.4021 0 1.93752)
(7.99397 1.02746e-20 2.19242)
(8.17754 -9.14789e-20 2.15846)
(7.7327 9.82606e-20 2.43253)
(7.93475 2.62047e-19 2.39822)
(7.44999 2.06074e-19 2.69193)
(7.67209 -1.8933e-19 2.65801)
(7.14332 -2.51325e-20 2.97112)
(7.38735 4.26396e-19 2.93883)
(6.80925 -4.55725e-19 3.27003)
(7.07753 -4.13726e-19 3.24137)
(6.44291 -8.04736e-22 3.5876)
(6.73835 -2.44184e-19 3.56574)
(6.03763 -2.14089e-19 3.92121)
(6.36373 4.43372e-19 3.911)
(5.58443 -4.30216e-19 4.26559)
(5.94541 -4.60255e-19 4.2744)
(5.07152 0 4.61093)
(5.47218 2.17824e-21 4.6501)
(4.48422 0 4.93992)
(4.9291 -2.34161e-19 5.02656)
(3.80653 5.01445e-19 5.2236)
(4.29764 -5.94539e-20 5.38266)
(3.02609 -1.01547e-19 5.41754)
(3.55879 4.96982e-19 5.68206)
(2.14547 -6.11307e-19 5.46242)
(2.69729 -6.47993e-19 5.86836)
(1.18874 7.73331e-20 5.24356)
(1.69916 -7.27635e-20 5.87011)
(0.913506 -1.15051e-20 5.46712)
(9.98394 -3.49557e-21 0.152865)
(9.98543 2.82688e-20 0.107228)
(9.95341 2.90866e-20 0.249714)
(9.96838 -5.15758e-21 0.207934)
(9.9092 3.15043e-20 0.347133)
(9.93731 3.19803e-20 0.307757)
(9.85165 0 0.447482)
(9.88842 3.62864e-20 0.409776)
(9.78101 1.58946e-20 0.55227)
(9.82534 -7.48449e-21 0.515675)
(9.69742 -1.01944e-21 0.662825)
(9.7502 3.12385e-20 0.626849)
(9.60094 8.78058e-22 0.780419)
(9.66305 -3.22057e-20 0.744612)
(9.49152 -3.65228e-20 0.906306)
(9.56355 1.45799e-22 0.870253)
(9.369 -5.19286e-20 1.04174)
(9.45152 -5.22355e-20 1.00506)
(9.23318 3.70823e-20 1.18798)
(9.3268 -4.04768e-22 1.15033)
(9.08378 7.60834e-20 1.34633)
(9.18922 3.69986e-20 1.30735)
(8.92041 -1.43814e-19 1.51808)
(9.03856 5.81973e-20 1.47747)
(8.74258 -8.38019e-20 1.70459)
(8.87439 -1.99667e-19 1.66209)
(8.54963 9.16168e-20 1.90723)
(8.69614 9.28184e-20 1.86264)
(8.34074 0 2.12742)
(8.50314 -8.47784e-20 2.0806)
(8.11483 1.64594e-19 2.36659)
(8.29451 8.66143e-20 2.31752)
(7.87045 -3.07746e-20 2.62618)
(8.069 3.66478e-19 2.575)
(7.60566 3.78522e-20 2.90754)
(7.825 -3.51316e-19 2.85468)
(7.31774 2.88934e-20 3.21186)
(7.56027 3.91128e-19 3.15818)
(7.00285 -2.0024e-19 3.54004)
(7.2716 -3.85788e-19 3.48702)
(6.65561 2.06882e-19 3.89233)
(6.95445 -1.19993e-20 3.84253)
(6.2684 1.88919e-19 4.26778)
(6.6023 2.17455e-19 4.22541)
(5.83067 -2.37939e-20 4.66329)
(6.20596 -2.40264e-19 4.63517)
(5.328 -2.34904e-19 5.07163)
(5.75247 2.20437e-19 5.06893)
(4.74139 -2.92185e-19 5.47813)
(5.22373 -2.34581e-19 5.51897)
(4.04775 -5.88457e-20 5.85538)
(4.59526 -5.70375e-20 5.9684)
(3.22353 -6.52231e-20 6.15613)
(3.83712 2.98803e-20 6.38401)
(2.25699 -9.9375e-20 6.3106)
(2.91982 -3.28029e-20 6.70543)
(1.16348 -1.64768e-19 6.15311)
(1.78001 -3.56103e-20 6.84561)
(0.887319 -6.13212e-20 6.50309)
(9.9848 2.60926e-20 0.163528)
(9.98576 1.73781e-23 0.114206)
(9.95585 -1.68527e-21 0.267269)
(9.9699 -1.02043e-23 0.221607)
(9.91406 3.68261e-20 0.371683)
(9.9409 0 0.328102)
(9.85982 2.8182e-20 0.479265)
(9.89496 7.31504e-21 0.43697)
(9.79337 8.41376e-21 0.591583)
(9.83572 -7.48595e-21 0.54998)
(9.71488 -8.49708e-22 0.710014)
(9.76534 3.1011e-20 0.668567)
(9.62442 -3.24874e-20 0.835889)
(9.68389 -4.76302e-20 0.794088)
(9.522 -1.62851e-20 0.970527)
(9.59107 -1.63778e-20 0.927896)
(9.40754 0 1.11525)
(9.48675 3.4092e-20 1.07134)
(9.28088 0 1.27138)
(9.37087 3.38084e-22 1.22576)
(9.14184 1.9369e-20 1.44028)
(9.24333 -1.80506e-20 1.39252)
(8.99011 -9.47782e-22 1.62338)
(9.10397 4.94352e-22 1.57306)
(8.82527 -1.93176e-20 1.82216)
(8.95246 -1.93188e-20 1.76889)
(8.64675 -8.58705e-20 2.03814)
(8.78836 0 1.98156)
(8.45378 3.86921e-21 2.27294)
(8.61109 -2.22744e-20 2.21274)
(8.24533 2.9189e-19 2.52827)
(8.41986 1.87145e-21 2.46419)
(8.02003 3.79102e-20 2.80593)
(8.21356 2.03954e-19 2.73782)
(7.77597 1.02947e-20 3.1078)
(7.99069 -9.39297e-20 3.03569)
(7.51041 -3.17381e-20 3.43586)
(7.74916 7.59153e-20 3.36005)
(7.21946 -1.93668e-19 3.79207)
(7.48587 -3.88218e-19 3.71335)
(6.89754 6.40237e-22 4.17822)
(7.1964 2.20689e-19 4.0982)
(6.53662 -2.16629e-19 4.59554)
(6.87434 2.00739e-19 4.51723)
(6.12513 8.49636e-21 5.04398)
(6.51034 -3.6878e-19 4.97274)
(5.64651 2.16209e-19 5.52055)
(6.09066 3.23028e-19 5.466)
(5.07731 2.68243e-21 6.01618)
(5.59499 -1.0642e-19 5.99542)
(4.38551 3.28948e-20 6.50988)
(4.99334 5.84363e-20 6.55272)
(3.5306 6.23614e-20 6.95832)
(4.24236 2.99332e-20 7.11566)
(2.47235 3.21264e-20 7.28673)
(3.29054 -1.95751e-19 7.63145)
(1.19592 7.1899e-20 7.27032)
(1.99212 5.34158e-19 8.00491)
(0.919451 -1.79559e-19 7.83886)
(9.98569 -2.60846e-20 0.173593)
(9.98603 -1.97122e-21 0.120775)
(9.95852 1.67543e-21 0.283813)
(9.97152 5.08589e-21 0.234447)
(9.91933 -2.94021e-20 0.394765)
(9.94478 -3.47681e-21 0.347178)
(9.86859 -2.8554e-20 0.509078)
(9.90194 -2.89769e-20 0.462414)
(9.80656 1.56625e-20 0.628388)
(9.84674 -2.94748e-20 0.582009)
(9.73343 -1.68881e-20 0.754113)
(9.78136 1.54441e-20 0.707434)
(9.64933 -3.10914e-20 0.88763)
(9.70589 -5.72255e-23 0.840091)
(9.55431 3.46947e-20 1.03031)
(9.62009 -3.20983e-20 0.981377)
(9.44836 3.39923e-20 1.18353)
(9.52389 6.78091e-20 1.13269)
(9.33142 -1.79498e-20 1.34868)
(9.41731 -5.13988e-20 1.29541)
(9.20336 -3.66981e-20 1.52717)
(9.30036 -1.78949e-20 1.47096)
(9.06398 -1.81473e-20 1.72054)
(9.17293 -3.68185e-20 1.66086)
(8.91298 2.42489e-22 1.93036)
(9.03483 1.94308e-20 1.8667)
(8.7499 6.33792e-20 2.15833)
(8.88575 -7.89572e-20 2.09015)
(8.57414 -2.3975e-20 2.40625)
(8.72529 1.63684e-19 2.33303)
(8.38483 -8.38673e-20 2.67607)
(8.55285 -1.05568e-19 2.5973)
(8.18076 6.88691e-20 2.96995)
(8.36755 0 2.88513)
(7.96024 -2.63282e-20 3.29031)
(8.16816 1.56491e-19 3.19898)
(7.7208 -2.85628e-19 3.63987)
(7.95292 -1.82795e-19 3.54169)
(7.45885 3.25398e-20 4.02172)
(7.71921 -1.91958e-19 3.91657)
(7.16917 4.20869e-19 4.43929)
(7.46324 2.20325e-19 4.32752)
(6.8441 4.30576e-20 4.89631)
(7.1794 1.04911e-19 4.77909)
(6.47218 -4.69466e-20 5.39654)
(6.85931 -8.99613e-21 5.27669)
(6.03618 -4.54205e-21 5.94291)
(6.49021 5.2581e-21 5.82654)
(5.50983 -4.8778e-20 6.53546)
(6.0522 -1.066e-19 6.43518)
(4.85296 5.49792e-20 7.16683)
(5.5135 5.57835e-20 7.10784)
(4.00455 -2.32118e-19 7.81116)
(4.82054 -9.98903e-20 7.84441)
(2.87729 3.37615e-19 8.40932)
(3.89751 -7.93875e-20 8.6243)
(1.37395 3.34701e-19 8.68662)
(2.47035 5.75594e-19 9.38422)
(1.11708 -2.51233e-19 9.63656)
(9.98662 2.93418e-20 0.183015)
(9.98631 5.22282e-20 0.126917)
(9.96133 -2.15688e-22 0.299265)
(9.97322 3.38519e-21 0.246392)
(9.92493 -3.42583e-21 0.416287)
(9.94888 -2.75729e-20 0.364901)
(9.87785 -2.99045e-20 0.536824)
(9.90932 3.58138e-21 0.486017)
(9.82044 -2.90584e-20 0.662566)
(9.85835 -3.65836e-20 0.611651)
(9.75292 3.20556e-20 0.794973)
(9.79818 -3.77199e-20 0.743317)
(9.67547 -1.50782e-21 0.935461)
(9.72895 5.50422e-20 0.882454)
(9.5882 2.36536e-21 1.08544)
(9.65046 1.60649e-20 1.03049)
(9.49117 -1.91701e-20 1.24634)
(9.56272 3.37165e-20 1.18886)
(9.38442 -5.08932e-20 1.41956)
(9.46585 -1.75408e-20 1.35898)
(9.26789 -1.82379e-20 1.60662)
(9.35993 1.79208e-20 1.54233)
(9.14151 1.46912e-21 1.80909)
(9.24497 -3.62604e-20 1.74046)
(9.00511 -6.10347e-20 2.02865)
(9.12092 7.54047e-20 1.95502)
(8.85842 2.42359e-20 2.2671)
(8.98764 -1.17434e-19 2.18779)
(8.70104 7.89459e-20 2.5264)
(8.84495 1.0112e-19 2.44067)
(8.53236 -2.0424e-20 2.80873)
(8.69249 -8.86477e-23 2.71579)
(8.35149 8.94412e-20 3.11655)
(8.52973 1.04566e-19 3.01554)
(8.15711 -3.55804e-21 3.45273)
(8.35585 8.88499e-20 3.34269)
(7.9473 -8.90788e-20 3.82067)
(8.16964 -2.65278e-19 3.70053)
(7.71921 0 4.22445)
(7.96927 1.33313e-19 4.09308)
(7.46865 -9.72746e-20 4.66906)
(7.75207 -4.47139e-20 4.52528)
(7.1893 5.19203e-20 5.16069)
(7.51402 -1.42202e-19 5.00338)
(6.87149 4.3689e-20 5.70712)
(7.24906 1.92472e-19 5.53557)
(6.50002 -9.81415e-20 6.31814)
(6.94777 -1.45046e-19 6.13284)
(6.05021 0 7.00571)
(6.59504 -4.5258e-20 6.8103)
(5.48021 -1.01452e-19 7.78383)
(6.16558 0 7.58938)
(4.7153 5.46816e-20 8.66521)
(5.61131 -2.29427e-19 8.50233)
(3.61289 1.84384e-19 9.66171)
(4.86053 1.89895e-19 9.59716)
(1.89295 3.57588e-20 10.5618)
(3.50059 -6.90859e-20 10.9642)
(1.78909 0 12.2463)
(9.98762 2.55818e-20 0.191753)
(9.98665 2.67598e-20 0.132597)
(9.96431 -2.44579e-20 0.313557)
(9.97501 1.57788e-21 0.257404)
(9.93082 -2.00986e-20 0.436157)
(9.95316 3.22072e-20 0.381202)
(9.8876 -3.66657e-21 0.562383)
(9.91703 3.15726e-22 0.507687)
(9.835 -4.52688e-20 0.693967)
(9.87046 1.34827e-20 0.6388)
(9.77332 -1.34417e-20 0.832405)
(9.8157 -1.00101e-20 0.776092)
(9.70278 7.20819e-20 0.979147)
(9.75295 2.08516e-21 0.921033)
(9.62355 4.76554e-20 1.13563)
(9.68205 6.40171e-20 1.07508)
(9.53578 3.46767e-20 1.30331)
(9.60311 -3.10045e-20 1.23967)
(9.43958 5.17501e-20 1.48363)
(9.51633 3.47218e-20 1.41626)
(9.33504 -7.86667e-22 1.67813)
(9.42189 1.77578e-20 1.60635)
(9.22219 3.91079e-20 1.88844)
(9.31993 3.23721e-20 1.81152)
(9.10103 1.66531e-20 2.11629)
(9.21055 2.24782e-20 2.03345)
(8.97151 -3.79613e-20 2.36356)
(9.09383 -5.69134e-20 2.27396)
(8.83349 2.08273e-20 2.63232)
(8.96982 3.68444e-20 2.53502)
(8.68667 1.26188e-19 2.9249)
(8.83849 -1.66072e-20 2.81885)
(8.53059 1.03933e-19 3.24398)
(8.69968 8.71017e-20 3.12796)
(8.3645 -1.76692e-19 3.59274)
(8.55313 3.97117e-22 3.46531)
(8.18726 -3.85407e-20 3.97508)
(8.39835 -1.78613e-19 3.83448)
(7.99715 8.66107e-20 4.39579)
(8.23455 1.35149e-19 4.23988)
(7.79158 -9.07203e-20 4.86104)
(8.06057 -4.48393e-20 4.68709)
(7.56665 1.66215e-21 5.37891)
(7.87465 -4.68539e-20 5.1834)
(7.31636 -1.57955e-23 5.96046)
(7.67421 2.74626e-20 5.73872)
(7.03112 -9.09182e-20 6.62141)
(7.45551 -2.42854e-20 6.36709)
(6.69491 -4.46534e-20 7.38504)
(7.21298 -2.93068e-21 7.08944)
(6.27897 -1.31415e-19 8.2887)
(6.93895 0 7.93909)
(5.726 -8.87741e-20 9.39825)
(6.61984 -7.18379e-20 8.97557)
(4.89947 -6.32826e-20 10.8821)
(6.28923 5.07722e-20 10.3226)
(3.32858 -1.00827e-19 13.1908)
(5.86445 -7.45744e-20 12.3928)
(5.10224 6.11964e-20 16.62)
(-0.203984 4.22625e-20 0.232435)
(-0.0696554 2.01254e-20 0.17391)
(-0.830898 -5.10371e-20 0.403814)
(-0.589702 4.23099e-20 0.514789)
(-1.68159 -3.94737e-20 0.472213)
(-1.40275 -1.57951e-19 0.666819)
(-2.65162 4.16472e-20 0.497417)
(-2.33322 1.23454e-19 0.747741)
(-3.68158 -1.37258e-20 0.501277)
(-3.3356 2.45774e-20 0.790493)
(-4.73714 -1.3881e-20 0.492805)
(-4.37206 -5.72891e-20 0.808927)
(-5.79662 1.97621e-20 0.476222)
(-5.4188 1.27141e-19 0.80989)
(-6.84475 1.26341e-20 0.453837)
(-6.45908 -4.72704e-20 0.797388)
(-7.86973 -6.87519e-21 0.426984)
(-7.4803 -8.02095e-21 0.774029)
(-8.86139 9.22676e-22 0.396399)
(-8.47201 -1.14056e-20 0.741482)
(-9.80994 7.34847e-21 0.362463)
(-9.42437 2.84429e-20 0.700717)
(-10.7052 7.48134e-21 0.32534)
(-10.3277 -4.26963e-20 0.652245)
(-11.5363 0 0.285074)
(-11.1714 0 0.59627)
(-12.2913 0 0.241658)
(-11.9442 5.73299e-22 0.532858)
(-12.9572 -9.53118e-21 0.195057)
(-12.6335 -3.62854e-20 0.462065)
(-13.5206 -9.6708e-21 0.145212)
(-13.2259 -9.81278e-21 0.383968)
(-13.9669 -9.68338e-21 0.0920338)
(-13.7076 4.93705e-21 0.298728)
(-14.2814 -9.97476e-21 0.0353396)
(-14.0641 5.14971e-21 0.206667)
(-14.4491 0 -0.025315)
(-14.2812 0 0.108185)
(-14.4546 4.48127e-21 -0.0908663)
(-14.3437 5.00188e-21 0.00352408)
(-14.2807 4.5704e-21 -0.163049)
(-14.2351 1.39575e-20 -0.107973)
(-13.911 0 -0.243784)
(-13.9465 -8.45032e-21 -0.225327)
(-13.328 -3.0694e-21 -0.336017)
(-13.4632 -7.49504e-21 -0.348732)
(-12.5072 -3.12865e-21 -0.445624)
(-12.7679 -6.61581e-21 -0.482092)
(-11.4106 0 -0.582645)
(-11.8351 -5.05748e-21 -0.632397)
(-9.98065 0 -0.766092)
(-10.6189 0 -0.809903)
(-8.12148 9.21146e-23 -1.03826)
(-9.03262 -2.11418e-21 -1.03449)
(-5.61827 9.37967e-23 -1.4907)
(-6.9302 1.25811e-21 -1.36878)
(-1.95452 0 -2.37755)
(-4.12291 1.28499e-23 -1.96937)
(0.191792 0 -3.05639)
(-0.506928 2.03106e-20 0.637616)
(-0.239808 -1.12474e-20 0.670294)
(-1.20494 -7.35961e-20 0.913362)
(-0.836174 1.03626e-20 1.11734)
(-2.06079 9.62613e-21 1.06085)
(-1.66436 -2.61521e-19 1.36031)
(-3.01259 1.07199e-19 1.14326)
(-2.57384 2.52087e-19 1.49941)
(-4.01506 -2.11398e-20 1.18484)
(-3.53776 1.89127e-21 1.57364)
(-5.03877 7.84946e-20 1.19813)
(-4.5268 -1.67675e-20 1.60372)
(-6.06378 6.31067e-20 1.19)
(-5.52158 1.61108e-19 1.6011)
(-7.07549 -6.76993e-20 1.16477)
(-6.5078 -6.72611e-20 1.57279)
(-8.06234 -1.17233e-20 1.12525)
(-7.47429 9.27183e-20 1.52348)
(-9.01417 1.62911e-20 1.0732)
(-8.41137 -1.27024e-19 1.45624)
(-9.9211 -2.03182e-20 1.00964)
(-9.30971 2.84631e-20 1.3729)
(-10.773 -5.04726e-20 0.935038)
(-10.1599 -3.53174e-20 1.27449)
(-11.5589 5.67934e-22 0.849566)
(-10.9519 0 1.16138)
(-12.2671 -3.50963e-20 0.753258)
(-11.6746 1.80216e-20 1.03364)
(-12.8847 -3.67756e-20 0.646171)