/*--------------------------------*- C++ -*----------------------------------*\
| =========                 |                                                 |
| \\      /  F ield         | OpenFOAM: The Open Source CFD Toolbox           |
|  \\    /   O peration     | Version:  dev                                   |
|   \\  /    A nd           | Web:      www.OpenFOAM.org                      |
|    \\/     M anipulation  |                                                 |
\*---------------------------------------------------------------------------*/
FoamFile
{
    version     2.0;
    format      ascii;
    class       pointVectorField;
    location    "0.92";
    object      pointDisplacement;
}
// * * * * * * * * * * * * * * * * * * * * * * * * * * * * * * * * * * * * * //

dimensions      [0 1 0 0 0 0 0];

internalField   nonuniform List<vector> 
1030
(
(0 0 0)
(0.0210729 0 0)
(0.0398268 0 0)
(0.0557475 0 0)
(0.0691216 0 0)
(0.0802136 0 0)
(0.0892532 0 0)
(0.0964512 0 0)
(0.101989 0 0)
(0.106019 0 0)
(0.108672 0 0)
(0.110062 0 0)
(0.110291 0 0)
(0.109448 0 0)
(0.107611 0 0)
(0.10485 0 0)
(0.101228 0 0)
(0.0968039 0 0)
(0.0916329 0 0)
(0.0857719 0 0)
(0.0792823 0 0)
(0.0722292 0 0)
(0 0 0)
(0.0210844 0 -0.000109225)
(0.0398502 0 -0.000207977)
(0.0557831 0 -0.000294833)
(0.069171 0 -0.00037189)
(0.080278 0 -0.000440846)
(0.0893327 0 -0.000502719)
(0.096548 0 -0.000558172)
(0.102107 0 -0.000607656)
(0.10616 0 -0.000651209)
(0.108839 0 -0.000688892)
(0.11026 0 -0.000719645)
(0.110523 0 -0.000742118)
(0.109719 0 -0.000755431)
(0.107927 0 -0.000757999)
(0.105218 0 -0.000747755)
(0.101657 0 -0.00072212)
(0.097303 0 -0.000677792)
(0.0922125 0 -0.000610391)
(0.0864444 0 -0.000515128)
(0.0800641 0 -0.000385923)
(0.0731409 0 -0.000214435)
(0 0 0)
(0.0211211 0 -0.000218726)
(0.0399229 0 -0.000416549)
(0.0558914 0 -0.000590619)
(0.0693169 0 -0.000745086)
(0.0804656 0 -0.000882845)
(0.0895681 0 -0.00100646)
(0.0968378 0 -0.0011178)
(0.102458 0 -0.00121732)
(0.10658 0 -0.00130502)
(0.109338 0 -0.00138059)
(0.110848 0 -0.00144252)
(0.111213 0 -0.00148879)
(0.110527 0 -0.00151731)
(0.108871 0 -0.00152497)
(0.106317 0 -0.0015078)
(0.102935 0 -0.00146096)
(0.0987909 0 -0.00137833)
(0.0939434 0 -0.00125187)
(0.0884544 0 -0.00107204)
(0.0823985 0 -0.000827231)
(0.0758597 0 -0.000502758)
(0 0 0)
(0.021182 0 -0.000328084)
(0.040043 0 -0.000624934)
(0.05607 0 -0.000886277)
(0.0695556 0 -0.00111835)
(0.0807723 0 -0.00132569)
(0.0899556 0 -0.00151212)
(0.0973165 0 -0.00168029)
(0.103038 0 -0.00183097)
(0.107275 0 -0.00196414)
(0.110163 0 -0.00207866)
(0.11182 0 -0.00217334)
(0.112356 0 -0.00224628)
(0.111865 0 -0.00229384)
(0.110432 0 -0.00231159)
(0.108135 0 -0.00229393)
(0.105048 0 -0.00223432)
(0.101247 0 -0.00212463)
(0.0967987 0 -0.00195438)
(0.0917732 0 -0.00171002)
(0.086252 0 -0.00137544)
(0.0803421 0 -0.000933012)
(0 0 0)
(0.0212662 0 -0.000436913)
(0.0402096 0 -0.000832435)
(0.0563173 0 -0.00118086)
(0.0698879 0 -0.00149057)
(0.0812004 0 -0.00176814)
(0.0904936 0 -0.00201833)
(0.0979786 0 -0.0022443)
(0.103839 0 -0.00244747)
(0.108235 0 -0.00262797)
(0.111302 0 -0.00278453)
(0.113166 0 -0.00291592)
(0.113937 0 -0.00301989)
(0.113716 0 -0.00309204)
(0.112592 0 -0.00312703)
(0.110648 0 -0.00311794)
(0.107967 0 -0.00305737)
(0.104633 0 -0.00293617)
(0.100728 0 -0.00274221)
(0.0963368 0 -0.00246057)
(0.0915536 0 -0.00207345)
(0.0865026 0 -0.00156236)
(0 0 0)
(0.0213733 0 -0.000545339)
(0.0404216 0 -0.00103906)
(0.0566307 0 -0.00147416)
(0.0703092 0 -0.00186148)
(0.0817438 0 -0.00220948)
(0.0911749 0 -0.00252393)
(0.0988156 0 -0.00280869)
(0.104852 0 -0.00306584)
(0.109447 0 -0.00329593)
(0.112743 0 -0.00349811)
(0.114867 0 -0.00367079)
(0.115935 0 -0.00381119)
(0.116053 0 -0.00391485)
(0.115318 0 -0.00397625)
(0.113821 0 -0.00398818)
(0.111653 0 -0.00394241)
(0.108906 0 -0.00382914)
(0.105678 0 -0.00363641)
(0.102075 0 -0.00335038)
(0.0982107 0 -0.00295502)
(0.0942284 0 -0.00243399)
(0 0 0)
(0.0214978 0 -0.000653358)
(0.0406691 0 -0.00124483)
(0.0570034 0 -0.00176644)
(0.0708156 0 -0.00223166)
(0.0823977 0 -0.00265057)
(0.091994 0 -0.00303013)
(0.0998207 0 -0.00337502)
(0.106068 0 -0.00368811)
(0.110902 0 -0.00397051)
(0.11447 0 -0.00422177)
(0.116904 0 -0.00444032)
(0.118325 0 -0.0046233)
(0.118846 0 -0.00476643)
(0.118574 0 -0.00486471)
(0.117613 0 -0.00491196)
(0.116056 0 -0.00489905)
(0.114005 0 -0.00481572)
(0.111578 0 -0.00465276)
(0.108901 0 -0.00439936)
(0.106112 0 -0.00404329)
(0.103372 0 -0.0035738)
(0 0 0)
(0.0216385 0 -0.000760563)
(0.0409502 0 -0.00144951)
(0.0574325 0 -0.00205791)
(0.0714028 0 -0.00260146)
(0.0831564 0 -0.003092)
(0.0929437 0 -0.00353775)
(0.100985 0 -0.00394434)
(0.107475 0 -0.00431558)
(0.112585 0 -0.00465334)
(0.116466 0 -0.0049576)
(0.119256 0 -0.00522718)
(0.121083 0 -0.00545951)
(0.122065 0 -0.00565055)
(0.12232 0 -0.00579651)
(0.121963 0 -0.00589259)
(0.1211 0 -0.0059303)
(0.119845 0 -0.00590123)
(0.118331 0 -0.00579899)
(0.116703 0 -0.00561655)
(0.115124 0 -0.00534888)
(0.113781 0 -0.00499347)
(0 0 0)
(0.0217982 0 -0.000866631)
(0.0412697 0 -0.00165249)
(0.057917 0 -0.00234746)
(0.0720634 0 -0.00296934)
(0.0840097 0 -0.00353194)
(0.0940108 0 -0.00404481)
(0.102292 0 -0.00451444)
(0.109054 0 -0.00494591)
(0.114472 0 -0.00534203)
(0.118702 0 -0.00570329)
(0.121889 0 -0.00602925)
(0.124167 0 -0.00631806)
(0.125663 0 -0.00656667)
(0.126503 0 -0.00677236)
(0.126813 0 -0.00693142)
(0.126712 0 -0.00703772)
(0.126336 0 -0.0070872)
(0.12583 0 -0.00707662)
(0.125352 0 -0.00700301)
(0.125089 0 -0.00686927)
(0.125261 0 -0.00668508)
(0 0 0)
(0.0219754 0 -0.000971588)
(0.041624 0 -0.00185328)
(0.0584504 0 -0.0026339)
(0.0727887 0 -0.00333378)
(0.0849467 0 -0.00396866)
(0.0951816 0 -0.0045494)
(0.103726 0 -0.0050839)
(0.110787 0 -0.00557827)
(0.116542 0 -0.00603581)
(0.121152 0 -0.00645807)
(0.12477 0 -0.00684578)
(0.127539 0 -0.00719825)
(0.129594 0 -0.00751413)
(0.13107 0 -0.00779147)
(0.1321 0 -0.00802824)
(0.132821 0 -0.00822191)
(0.133381 0 -0.00837163)
(0.133947 0 -0.00847937)
(0.134697 0 -0.00854946)
(0.135824 0 -0.0085903)
(0.13757 0 -0.00862266)
(0 0 0)
(0.0221638 0 -0.00107524)
(0.0420013 0 -0.00205153)
(0.059024 0 -0.00291711)
(0.0735727 0 -0.00369491)
(0.0859603 0 -0.0044024)
(0.0964492 0 -0.00505195)
(0.105279 0 -0.00565339)
(0.112662 0 -0.00621327)
(0.118777 0 -0.00673501)
(0.123793 0 -0.00722209)
(0.127871 0 -0.00767664)
(0.131161 0 -0.00809941)
(0.133809 0 -0.00849092)
(0.135954 0 -0.00885011)
(0.137743 0 -0.00917787)
(0.139333 0 -0.0094764)
(0.140874 0 -0.0097468)
(0.142548 0 -0.00999618)
(0.144559 0 -0.0102369)
(0.147116 0 -0.0104855)
(0.150458 0 -0.0107695)
(0 0 0)
(0.0223609 0 -0.0011771)
(0.0423976 0 -0.00224684)
(0.0596327 0 -0.003197)
(0.0744091 0 -0.00405268)
(0.087042 0 -0.00483304)
(0.0978023 0 -0.00555214)
(0.106935 0 -0.00622117)
(0.114654 0 -0.00684775)
(0.121147 0 -0.00743669)
(0.126592 0 -0.00799274)
(0.131152 0 -0.00851867)
(0.134986 0 -0.00901762)
(0.138252 0 -0.00949271)
(0.141094 0 -0.00994381)
(0.143667 0 -0.0103744)
(0.146142 0 -0.0107906)
(0.148689 0 -0.011199)
(0.151494 0 -0.0116103)
(0.154766 0 -0.0120421)
(0.158737 0 -0.0125197)
(0.16364 0 -0.0130763)
(0 0 0)
(0.0225692 0 -0.00127713)
(0.0428169 0 -0.00243906)
(0.0602746 0 -0.00347299)
(0.0752896 0 -0.00440609)
(0.0881804 0 -0.00525934)
(0.0992234 0 -0.0060482)
(0.108669 0 -0.00678504)
(0.116739 0 -0.00747951)
(0.12363 0 -0.00813867)
(0.12952 0 -0.0087673)
(0.134576 0 -0.00936894)
(0.138972 0 -0.00994969)
(0.14287 0 -0.0105145)
(0.146423 0 -0.0110662)
(0.149794 0 -0.0116099)
(0.153155 0 -0.0121539)
(0.1567 0 -0.0127117)
(0.160619 0 -0.0132979)
(0.165124 0 -0.0139345)
(0.170438 0 -0.01465)
(0.176789 0 -0.015482)
(0 0 0)
(0.0227869 0 -0.00137526)
(0.0432546 0 -0.0026278)
(0.0609428 0 -0.00374426)
(0.0762057 0 -0.00475406)
(0.0893641 0 -0.00567998)
(0.100698 0 -0.00653863)
(0.110468 0 -0.00734436)
(0.118904 0 -0.00810869)
(0.126202 0 -0.00883929)
(0.132542 0 -0.00954224)
(0.138108 0 -0.0102238)
(0.143075 0 -0.0108914)
(0.14761 0 -0.0115511)
(0.151876 0 -0.0122093)
(0.156037 0 -0.0128725)
(0.16027 0 -0.0135521)
(0.164773 0 -0.0142643)
(0.169744 0 -0.0150287)
(0.175389 0 -0.0158702)
(0.181916 0 -0.0168189)
(0.18953 0 -0.0179121)
(0 0 0)
(0.0230116 0 -0.00147114)
(0.0437056 0 -0.00281236)
(0.0616301 0 -0.0040098)
(0.0771482 0 -0.00509533)
(0.0905818 0 -0.00609348)
(0.102215 0 -0.00702233)
(0.112322 0 -0.00789843)
(0.121131 0 -0.00873383)
(0.128839 0 -0.0095369)
(0.135637 0 -0.0103161)
(0.141716 0 -0.0110805)
(0.147253 0 -0.0118378)
(0.152414 0 -0.0125948)
(0.157366 0 -0.0133602)
(0.16228 0 -0.0141438)
(0.167338 0 -0.0149594)
(0.172733 0 -0.0158256)
(0.178657 0 -0.0167635)
(0.185297 0 -0.0177983)
(0.192856 0 -0.0189633)
(0.201488 0 -0.0202894)
(0 0 0)
(0.0232426 0 -0.00156524)
(0.0441688 0 -0.00299368)
(0.0623357 0 -0.00427125)
(0.0781187 0 -0.00543226)
(0.0918378 0 -0.00650253)
(0.10378 0 -0.00750191)
(0.114227 0 -0.00844853)
(0.123411 0 -0.00935552)
(0.131537 0 -0.0102334)
(0.138798 0 -0.0110913)
(0.145385 0 -0.0119395)
(0.151475 0 -0.0127862)
(0.15723 0 -0.0136389)
(0.162827 0 -0.0145094)
(0.168446 0 -0.0154114)
(0.174268 0 -0.0163608)
(0.180478 0 -0.017377)
(0.187234 0 -0.0184782)
(0.194715 0 -0.0196907)
(0.203094 0 -0.0210461)
(0.212472 0 -0.022568)
(0 0 0)
(0.0210729 0 0)
(0.0398268 0 0)
(0.0557475 0 0)
(0.0691216 0 0)
(0.0802136 0 0)
(0.0892532 0 0)
(0.0964512 0 0)
(0.101989 0 0)
(0.106019 0 0)
(0.108672 0 0)
(0.110062 0 0)
(0.110291 0 0)
(0.109448 0 0)
(0.107611 0 0)
(0.10485 0 0)
(0.101228 0 0)
(0.0968039 0 0)
(0.0916329 0 0)
(0.0857719 0 0)
(0.0792823 0 0)
(0.0722292 0 0)
(0 0 0)
(0.0210844 0 -0.000109225)
(0.0398502 0 -0.000207977)
(0.0557831 0 -0.000294833)
(0.069171 0 -0.00037189)
(0.080278 0 -0.000440846)
(0.0893327 0 -0.000502719)
(0.096548 0 -0.000558172)
(0.102107 0 -0.000607656)
(0.10616 0 -0.000651209)
(0.108839 0 -0.000688892)
(0.11026 0 -0.000719645)
(0.110523 0 -0.000742118)
(0.109719 0 -0.000755431)
(0.107927 0 -0.000757999)
(0.105218 0 -0.000747755)
(0.101657 0 -0.00072212)
(0.097303 0 -0.000677792)
(0.0922125 0 -0.000610391)
(0.0864444 0 -0.000515128)
(0.0800641 0 -0.000385923)
(0.0731409 0 -0.000214435)
(0 0 0)
(0.0211211 0 -0.000218726)
(0.0399229 0 -0.000416549)
(0.0558914 0 -0.000590619)
(0.0693169 0 -0.000745086)
(0.0804656 0 -0.000882845)
(0.0895681 0 -0.00100646)
(0.0968378 0 -0.0011178)
(0.102458 0 -0.00121732)
(0.10658 0 -0.00130502)
(0.109338 0 -0.00138059)
(0.110848 0 -0.00144252)
(0.111213 0 -0.00148879)
(0.110527 0 -0.00151731)
(0.108871 0 -0.00152497)
(0.106317 0 -0.0015078)
(0.102935 0 -0.00146096)
(0.0987909 0 -0.00137833)
(0.0939434 0 -0.00125187)
(0.0884544 0 -0.00107204)
(0.0823985 0 -0.000827231)
(0.0758597 0 -0.000502758)
(0 0 0)
(0.021182 0 -0.000328084)
(0.040043 0 -0.000624934)
(0.05607 0 -0.000886277)
(0.0695556 0 -0.00111835)
(0.0807723 0 -0.00132569)
(0.0899556 0 -0.00151212)
(0.0973165 0 -0.00168029)
(0.103038 0 -0.00183097)
(0.107275 0 -0.00196414)
(0.110163 0 -0.00207866)
(0.11182 0 -0.00217334)
(0.112356 0 -0.00224628)
(0.111865 0 -0.00229384)
(0.110432 0 -0.00231159)
(0.108135 0 -0.00229393)
(0.105048 0 -0.00223432)
(0.101247 0 -0.00212463)
(0.0967987 0 -0.00195438)
(0.0917732 0 -0.00171002)
(0.086252 0 -0.00137544)
(0.0803421 0 -0.000933012)
(0 0 0)
(0.0212662 0 -0.000436913)
(0.0402096 0 -0.000832435)
(0.0563173 0 -0.00118086)
(0.0698879 0 -0.00149057)
(0.0812004 0 -0.00176814)
(0.0904936 0 -0.00201833)
(0.0979786 0 -0.0022443)
(0.103839 0 -0.00244747)
(0.108235 0 -0.00262797)
(0.111302 0 -0.00278453)
(0.113166 0 -0.00291592)
(0.113937 0 -0.00301989)
(0.113716 0 -0.00309204)
(0.112592 0 -0.00312703)
(0.110648 0 -0.00311794)
(0.107967 0 -0.00305737)
(0.104633 0 -0.00293617)
(0.100728 0 -0.00274221)
(0.0963368 0 -0.00246057)
(0.0915536 0 -0.00207345)
(0.0865026 0 -0.00156236)
(0 0 0)
(0.0213733 0 -0.000545339)
(0.0404216 0 -0.00103906)
(0.0566307 0 -0.00147416)
(0.0703092 0 -0.00186148)
(0.0817438 0 -0.00220948)
(0.0911749 0 -0.00252393)
(0.0988156 0 -0.00280869)
(0.104852 0 -0.00306584)
(0.109447 0 -0.00329593)
(0.112743 0 -0.00349811)
(0.114867 0 -0.00367079)
(0.115935 0 -0.00381119)
(0.116053 0 -0.00391485)
(0.115318 0 -0.00397625)
(0.113821 0 -0.00398818)
(0.111653 0 -0.00394241)
(0.108906 0 -0.00382914)
(0.105678 0 -0.00363641)
(0.102075 0 -0.00335038)
(0.0982107 0 -0.00295502)
(0.0942284 0 -0.00243399)
(0 0 0)
(0.0214978 0 -0.000653358)
(0.0406691 0 -0.00124483)
(0.0570034 0 -0.00176644)
(0.0708156 0 -0.00223166)
(0.0823977 0 -0.00265057)
(0.091994 0 -0.00303013)
(0.0998207 0 -0.00337502)
(0.106068 0 -0.00368811)
(0.110902 0 -0.00397051)
(0.11447 0 -0.00422177)
(0.116904 0 -0.00444032)
(0.118325 0 -0.0046233)
(0.118846 0 -0.00476643)
(0.118574 0 -0.00486471)
(0.117613 0 -0.00491196)
(0.116056 0 -0.00489905)
(0.114005 0 -0.00481572)
(0.111578 0 -0.00465276)
(0.108901 0 -0.00439936)
(0.106112 0 -0.00404329)
(0.103372 0 -0.0035738)
(0 0 0)
(0.0216385 0 -0.000760563)
(0.0409502 0 -0.00144951)
(0.0574325 0 -0.00205791)
(0.0714028 0 -0.00260146)
(0.0831564 0 -0.003092)
(0.0929437 0 -0.00353775)
(0.100985 0 -0.00394434)
(0.107475 0 -0.00431558)
(0.112585 0 -0.00465334)
(0.116466 0 -0.0049576)
(0.119256 0 -0.00522718)
(0.121083 0 -0.00545951)
(0.122065 0 -0.00565055)
(0.12232 0 -0.00579651)
(0.121963 0 -0.00589259)
(0.1211 0 -0.0059303)
(0.119845 0 -0.00590123)
(0.118331 0 -0.00579899)
(0.116703 0 -0.00561655)
(0.115124 0 -0.00534888)
(0.113781 0 -0.00499347)
(0 0 0)
(0.0217982 0 -0.000866631)
(0.0412697 0 -0.00165249)
(0.057917 0 -0.00234746)
(0.0720634 0 -0.00296934)
(0.0840097 0 -0.00353194)
(0.0940108 0 -0.00404481)
(0.102292 0 -0.00451444)
(0.109054 0 -0.00494591)
(0.114472 0 -0.00534203)
(0.118702 0 -0.00570329)
(0.121889 0 -0.00602925)
(0.124167 0 -0.00631806)
(0.125663 0 -0.00656667)
(0.126503 0 -0.00677236)
(0.126813 0 -0.00693142)
(0.126712 0 -0.00703772)
(0.126336 0 -0.0070872)
(0.12583 0 -0.00707662)
(0.125352 0 -0.00700301)
(0.125089 0 -0.00686927)
(0.125261 0 -0.00668508)
(0 0 0)
(0.0219754 0 -0.000971588)
(0.041624 0 -0.00185328)
(0.0584504 0 -0.0026339)
(0.0727887 0 -0.00333378)
(0.0849467 0 -0.00396866)
(0.0951816 0 -0.0045494)
(0.103726 0 -0.0050839)
(0.110787 0 -0.00557827)
(0.116542 0 -0.00603581)
(0.121152 0 -0.00645807)
(0.12477 0 -0.00684578)
(0.127539 0 -0.00719825)
(0.129594 0 -0.00751413)
(0.13107 0 -0.00779147)
(0.1321 0 -0.00802824)
(0.132821 0 -0.00822191)
(0.133381 0 -0.00837163)
(0.133947 0 -0.00847937)
(0.134697 0 -0.00854946)
(0.135824 0 -0.0085903)
(0.13757 0 -0.00862266)
(0 0 0)
(0.0221638 0 -0.00107524)
(0.0420013 0 -0.00205153)
(0.059024 0 -0.00291711)
(0.0735727 0 -0.00369491)
(0.0859603 0 -0.0044024)
(0.0964492 0 -0.00505195)
(0.105279 0 -0.00565339)
(0.112662 0 -0.00621327)
(0.118777 0 -0.00673501)
(0.123793 0 -0.00722209)
(0.127871 0 -0.00767664)
(0.131161 0 -0.00809941)
(0.133809 0 -0.00849092)
(0.135954 0 -0.00885011)
(0.137743 0 -0.00917787)
(0.139333 0 -0.0094764)
(0.140874 0 -0.0097468)
(0.142548 0 -0.00999618)
(0.144559 0 -0.0102369)
(0.147116 0 -0.0104855)
(0.150458 0 -0.0107695)
(0 0 0)
(0.0223609 0 -0.0011771)
(0.0423976 0 -0.00224684)
(0.0596327 0 -0.003197)
(0.0744091 0 -0.00405268)
(0.087042 0 -0.00483304)
(0.0978023 0 -0.00555214)
(0.106935 0 -0.00622117)
(0.114654 0 -0.00684775)
(0.121147 0 -0.00743669)
(0.126592 0 -0.00799274)
(0.131152 0 -0.00851867)
(0.134986 0 -0.00901762)
(0.138252 0 -0.00949271)
(0.141094 0 -0.00994381)
(0.143667 0 -0.0103744)
(0.146142 0 -0.0107906)
(0.148689 0 -0.011199)
(0.151494 0 -0.0116103)
(0.154766 0 -0.0120421)
(0.158737 0 -0.0125197)
(0.16364 0 -0.0130763)
(0 0 0)
(0.0225692 0 -0.00127713)
(0.0428169 0 -0.00243906)
(0.0602746 0 -0.00347299)
(0.0752896 0 -0.00440609)
(0.0881804 0 -0.00525934)
(0.0992234 0 -0.0060482)
(0.108669 0 -0.00678504)
(0.116739 0 -0.00747951)
(0.12363 0 -0.00813867)
(0.12952 0 -0.0087673)
(0.134576 0 -0.00936894)
(0.138972 0 -0.00994969)
(0.14287 0 -0.0105145)
(0.146423 0 -0.0110662)
(0.149794 0 -0.0116099)
(0.153155 0 -0.0121539)
(0.1567 0 -0.0127117)
(0.160619 0 -0.0132979)
(0.165124 0 -0.0139345)
(0.170438 0 -0.01465)
(0.176789 0 -0.015482)
(0 0 0)
(0.0227869 0 -0.00137526)
(0.0432546 0 -0.0026278)
(0.0609428 0 -0.00374426)
(0.0762057 0 -0.00475406)
(0.0893641 0 -0.00567998)
(0.100698 0 -0.00653863)
(0.110468 0 -0.00734436)
(0.118904 0 -0.00810869)
(0.126202 0 -0.00883929)
(0.132542 0 -0.00954224)
(0.138108 0 -0.0102238)
(0.143075 0 -0.0108914)
(0.14761 0 -0.0115511)
(0.151876 0 -0.0122093)
(0.156037 0 -0.0128725)
(0.16027 0 -0.0135521)
(0.164773 0 -0.0142643)
(0.169744 0 -0.0150287)
(0.175389 0 -0.0158702)
(0.181916 0 -0.0168189)
(0.18953 0 -0.0179121)
(0 0 0)
(0.0230116 0 -0.00147114)
(0.0437056 0 -0.00281236)
(0.0616301 0 -0.0040098)
(0.0771482 0 -0.00509533)
(0.0905818 0 -0.00609348)
(0.102215 0 -0.00702233)
(0.112322 0 -0.00789843)
(0.121131 0 -0.00873383)
(0.128839 0 -0.0095369)
(0.135637 0 -0.0103161)
(0.141716 0 -0.0110805)
(0.147253 0 -0.0118378)
(0.152414 0 -0.0125948)
(0.157366 0 -0.0133602)
(0.16228 0 -0.0141438)
(0.167338 0 -0.0149594)
(0.172733 0 -0.0158256)
(0.178657 0 -0.0167635)
(0.185297 0 -0.0177983)
(0.192856 0 -0.0189633)
(0.201488 0 -0.0202894)
(0 0 0)
(0.0232426 0 -0.00156524)
(0.0441688 0 -0.00299368)
(0.0623357 0 -0.00427125)
(0.0781187 0 -0.00543226)
(0.0918378 0 -0.00650253)
(0.10378 0 -0.00750191)
(0.114227 0 -0.00844853)
(0.123411 0 -0.00935552)
(0.131537 0 -0.0102334)
(0.138798 0 -0.0110913)
(0.145385 0 -0.0119395)
(0.151475 0 -0.0127862)
(0.15723 0 -0.0136389)
(0.162827 0 -0.0145094)
(0.168446 0 -0.0154114)
(0.174268 0 -0.0163608)
(0.180478 0 -0.017377)
(0.187234 0 -0.0184782)
(0.194715 0 -0.0196907)
(0.203094 0 -0.0210461)
(0.212472 0 -0.022568)
(0.0446487 0 -0.00317351)
(0.0630688 0 -0.00453136)
(0.079121 0 -0.0057678)
(0.0931298 0 -0.00690995)
(0.105387 0 -0.00797984)
(0.116179 0 -0.00899693)
(0.125747 0 -0.00997661)
(0.134294 0 -0.0109305)
(0.142014 0 -0.0118681)
(0.149097 0 -0.0128)
(0.155717 0 -0.013735)
(0.162041 0 -0.014683)
(0.168257 0 -0.0156594)
(0.174543 0 -0.0166795)
(0.181067 0 -0.0177592)
(0.187982 0 -0.0189145)
(0.195431 0 -0.0201632)
(0.203577 0 -0.0215316)
(0.212539 0 -0.0230443)
(0.222387 0 -0.0247213)
(0.0638193 0 -0.00478755)
(0.0801409 0 -0.00609823)
(0.0944424 0 -0.00731212)
(0.107021 0 -0.00845298)
(0.118165 0 -0.00954136)
(0.128119 0 -0.0105942)
(0.137082 0 -0.0116234)
(0.145247 0 -0.0126394)
(0.152804 0 -0.0136535)
(0.15993 0 -0.0146758)
(0.166805 0 -0.0157201)
(0.173609 0 -0.016802)
(0.180499 0 -0.0179349)
(0.187617 0 -0.0191319)
(0.195096 0 -0.0204074)
(0.203076 0 -0.0217815)
(0.211682 0 -0.023276)
(0.220985 0 -0.0249078)
(0.231023 0 -0.026693)
(0.0811644 0 -0.00642044)
(0.095769 0 -0.00770607)
(0.108672 0 -0.00891762)
(0.120164 0 -0.0100771)
(0.130496 0 -0.0112024)
(0.139861 0 -0.0123052)
(0.148451 0 -0.0133971)
(0.156459 0 -0.0144911)
(0.164069 0 -0.0156001)
(0.171459 0 -0.0167381)
(0.178781 0 -0.0179172)
(0.186165 0 -0.0191475)
(0.193745 0 -0.0204425)
(0.201643 0 -0.0218171)
(0.209981 0 -0.0232898)
(0.21884 0 -0.0248758)
(0.228248 0 -0.0265854)
(0.23821 0 -0.0284292)
(0.0970898 0 -0.0080884)
(0.110317 0 -0.0093692)
(0.122154 0 -0.0105985)
(0.132846 0 -0.0117937)
(0.142591 0 -0.0129673)
(0.151585 0 -0.0141331)
(0.160023 0 -0.0153051)
(0.168078 0 -0.0164961)
(0.175907 0 -0.0177173)
(0.183642 0 -0.0189778)
(0.191406 0 -0.0202885)
(0.199325 0 -0.0216628)
(0.207504 0 -0.0231141)
(0.216029 0 -0.0246562)
(0.224948 0 -0.0262987)
(0.234264 0 -0.0280476)
(0.243945 0 -0.0299068)
(0.111934 0 -0.00980356)
(0.124102 0 -0.0110995)
(0.135134 0 -0.012361)
(0.145239 0 -0.0136027)
(0.154611 0 -0.0148388)
(0.163429 0 -0.0160818)
(0.171855 0 -0.017343)
(0.18003 0 -0.0186323)
(0.188081 0 -0.0199593)
(0.196128 0 -0.021335)
(0.204273 0 -0.0227704)
(0.212601 0 -0.0242759)
(0.221169 0 -0.0258607)
(0.230001 0 -0.0275306)
(0.239079 0 -0.0292876)
(0.248346 0 -0.0311297)
(0.125979 0 -0.0115739)
(0.137331 0 -0.0128979)
(0.147762 0 -0.0142021)
(0.157459 0 -0.0154998)
(0.166591 0 -0.0168028)
(0.175311 0 -0.0181218)
(0.183756 0 -0.0194671)
(0.192046 0 -0.0208479)
(0.200282 0 -0.0222733)
(0.208552 0 -0.0237521)
(0.216919 0 -0.0252915)
(0.225419 0 -0.026897)
(0.234056 0 -0.0285709)
(0.242798 0 -0.0303116)
(0.251576 0 -0.0321133)
(0.150094 0 -0.0147517)
(0.160062 0 -0.0161017)
(0.169451 0 -0.0174552)
(0.178407 0 -0.0188225)
(0.187057 0 -0.0202129)
(0.19551 0 -0.0216347)
(0.203854 0 -0.0230953)
(0.212161 0 -0.024601)
(0.220478 0 -0.0261565)
(0.228825 0 -0.0277641)
(0.237192 0 -0.0294233)
(0.24554 0 -0.0311296)
(0.253801 0 -0.0328763)
(0.162384 0 -0.0166356)
(0.171982 0 -0.0180311)
(0.181119 0 -0.0194371)
(0.189913 0 -0.0208619)
(0.198461 0 -0.0223125)
(0.206843 0 -0.0237946)
(0.215114 0 -0.0253126)
(0.223311 0 -0.0268688)
(0.231443 0 -0.0284634)
(0.239495 0 -0.0300935)
(0.247423 0 -0.0317533)
(0.255169 0 -0.0334358)
(0.183429 0 -0.0199583)
(0.192312 0 -0.0214072)
(0.200898 0 -0.0228752)
(0.209257 0 -0.0243666)
(0.217435 0 -0.025884)
(0.225461 0 -0.0274282)
(0.233338 0 -0.0289975)
(0.241047 0 -0.0305877)
(0.248552 0 -0.0321927)
(0.255797 0 -0.0338038)
(0.202825 0 -0.0233176)
(0.211114 0 -0.0248077)
(0.219156 0 -0.0263137)
(0.226975 0 -0.0278353)
(0.234571 0 -0.0293695)
(0.241929 0 -0.0309119)
(0.249016 0 -0.0324557)
(0.255783 0 -0.0339911)
(0.212438 0 -0.0251147)
(0.220314 0 -0.0266004)
(0.227901 0 -0.0280909)
(0.235205 0 -0.0295828)
(0.242211 0 -0.0310712)
(0.248896 0 -0.0325497)
(0.255216 0 -0.0340077)
(0.228291 0 -0.028196)
(0.235299 0 -0.0296401)
(0.241962 0 -0.0310704)
(0.248264 0 -0.0324808)
(0.25417 0 -0.0338615)
(0.241245 0 -0.0309132)
(0.247184 0 -0.0322541)
(0.252707 0 -0.0335577)
(0.0446487 0 -0.00317351)
(0.0630688 0 -0.00453136)
(0.079121 0 -0.0057678)
(0.0931298 0 -0.00690995)
(0.105387 0 -0.00797984)
(0.116179 0 -0.00899693)
(0.125747 0 -0.00997661)
(0.134294 0 -0.0109305)
(0.142014 0 -0.0118681)
(0.149097 0 -0.0128)
(0.155717 0 -0.013735)
(0.162041 0 -0.014683)
(0.168257 0 -0.0156594)
(0.174543 0 -0.0166795)
(0.181067 0 -0.0177592)
(0.187982 0 -0.0189145)
(0.195431 0 -0.0201632)
(0.203577 0 -0.0215316)
(0.212539 0 -0.0230443)
(0.222387 0 -0.0247213)
(0.0638193 0 -0.00478755)
(0.0801409 0 -0.00609823)
(0.0944424 0 -0.00731212)
(0.107021 0 -0.00845298)
(0.118165 0 -0.00954136)
(0.128119 0 -0.0105942)
(0.137082 0 -0.0116234)
(0.145247 0 -0.0126394)
(0.152804 0 -0.0136535)
(0.15993 0 -0.0146758)
(0.166805 0 -0.0157201)
(0.173609 0 -0.016802)
(0.180499 0 -0.0179349)
(0.187617 0 -0.0191319)
(0.195096 0 -0.0204074)
(0.203076 0 -0.0217815)
(0.211682 0 -0.023276)
(0.220985 0 -0.0249078)
(0.231023 0 -0.026693)
(0.0811644 0 -0.00642044)
(0.095769 0 -0.00770607)
(0.108672 0 -0.00891762)
(0.120164 0 -0.0100771)
(0.130496 0 -0.0112024)
(0.139861 0 -0.0123052)
(0.148451 0 -0.0133971)
(0.156459 0 -0.0144911)
(0.164069 0 -0.0156001)
(0.171459 0 -0.0167381)
(0.178781 0 -0.0179172)
(0.186165 0 -0.0191475)
(0.193745 0 -0.0204425)
(0.201643 0 -0.0218171)
(0.209981 0 -0.0232898)
(0.21884 0 -0.0248758)
(0.228248 0 -0.0265854)
(0.23821 0 -0.0284292)
(0.0970898 0 -0.0080884)
(0.110317 0 -0.0093692)
(0.122154 0 -0.0105985)
(0.132846 0 -0.0117937)
(0.142591 0 -0.0129673)
(0.151585 0 -0.0141331)
(0.160023 0 -0.0153051)
(0.168078 0 -0.0164961)
(0.175907 0 -0.0177173)
(0.183642 0 -0.0189778)
(0.191406 0 -0.0202885)
(0.199325 0 -0.0216628)
(0.207504 0 -0.0231141)
(0.216029 0 -0.0246562)
(0.224948 0 -0.0262987)
(0.234264 0 -0.0280476)
(0.243945 0 -0.0299068)
(0.111934 0 -0.00980356)
(0.124102 0 -0.0110995)
(0.135134 0 -0.012361)
(0.145239 0 -0.0136027)
(0.154611 0 -0.0148388)
(0.163429 0 -0.0160818)
(0.171855 0 -0.017343)
(0.18003 0 -0.0186323)
(0.188081 0 -0.0199593)
(0.196128 0 -0.021335)
(0.204273 0 -0.0227704)
(0.212601 0 -0.0242759)
(0.221169 0 -0.0258607)
(0.230001 0 -0.0275306)
(0.239079 0 -0.0292876)
(0.248346 0 -0.0311297)
(0.125979 0 -0.0115739)
(0.137331 0 -0.0128979)
(0.147762 0 -0.0142021)
(0.157459 0 -0.0154998)
(0.166591 0 -0.0168028)
(0.175311 0 -0.0181218)
(0.183756 0 -0.0194671)
(0.192046 0 -0.0208479)
(0.200282 0 -0.0222733)
(0.208552 0 -0.0237521)
(0.216919 0 -0.0252915)
(0.225419 0 -0.026897)
(0.234056 0 -0.0285709)
(0.242798 0 -0.0303116)
(0.251576 0 -0.0321133)
(0.150094 0 -0.0147517)
(0.160062 0 -0.0161017)
(0.169451 0 -0.0174552)
(0.178407 0 -0.0188225)
(0.187057 0 -0.0202129)
(0.19551 0 -0.0216347)
(0.203854 0 -0.0230953)
(0.212161 0 -0.024601)
(0.220478 0 -0.0261565)
(0.228825 0 -0.0277641)
(0.237192 0 -0.0294233)
(0.24554 0 -0.0311296)
(0.253801 0 -0.0328763)
(0.162384 0 -0.0166356)
(0.171982 0 -0.0180311)
(0.181119 0 -0.0194371)
(0.189913 0 -0.0208619)
(0.198461 0 -0.0223125)
(0.206843 0 -0.0237946)
(0.215114 0 -0.0253126)
(0.223311 0 -0.0268688)
(0.231443 0 -0.0284634)
(0.239495 0 -0.0300935)
(0.247423 0 -0.0317533)
(0.255169 0 -0.0334358)
(0.183429 0 -0.0199583)
(0.192312 0 -0.0214072)
(0.200898 0 -0.0228752)
(0.209257 0 -0.0243666)
(0.217435 0 -0.025884)
(0.225461 0 -0.0274282)
(0.233338 0 -0.0289975)
(0.241047 0 -0.0305877)
(0.248552 0 -0.0321927)
(0.255797 0 -0.0338038)
(0.202825 0 -0.0233176)
(0.211114 0 -0.0248077)
(0.219156 0 -0.0263137)
(0.226975 0 -0.0278353)
(0.234571 0 -0.0293695)
(0.241929 0 -0.0309119)
(0.249016 0 -0.0324557)
(0.255783 0 -0.0339911)
(0.212438 0 -0.0251147)
(0.220314 0 -0.0266004)
(0.227901 0 -0.0280909)
(0.235205 0 -0.0295828)
(0.242211 0 -0.0310712)
(0.248896 0 -0.0325497)
(0.255216 0 -0.0340077)
(0.228291 0 -0.028196)
(0.235299 0 -0.0296401)
(0.241962 0 -0.0310704)
(0.248264 0 -0.0324808)
(0.25417 0 -0.0338615)
(0.241245 0 -0.0309132)
(0.247184 0 -0.0322541)
(0.252707 0 -0.0335577)
)
;

boundaryField
{
    inlet
    {
        type            fixedValue;
        value           uniform (0 0 0);
    }
    outlet
    {
        type            fixedValue;
        value           nonuniform 0();
    }
    flap
    {
        type            fixedValue;
        value           nonuniform 0();
    }
    upperWall
    {
        type            slip;
    }
    lowerWall
    {
        type            slip;
    }
    frontAndBack
    {
        type            empty;
    }
    procBoundary3to0
    {
        type            processor;
    }
    procBoundary3to1
    {
        type            processor;
    }
    procBoundary3to4
    {
        type            processor;
    }
}


// ************************************************************************* //
