/*--------------------------------*- C++ -*----------------------------------*\
| =========                 |                                                 |
| \\      /  F ield         | OpenFOAM: The Open Source CFD Toolbox           |
|  \\    /   O peration     | Version:  dev                                   |
|   \\  /    A nd           | Web:      www.OpenFOAM.org                      |
|    \\/     M anipulation  |                                                 |
\*---------------------------------------------------------------------------*/
FoamFile
{
    version     2.0;
    format      ascii;
    class       pointVectorField;
    location    "3.71";
    object      pointDisplacement;
}
// * * * * * * * * * * * * * * * * * * * * * * * * * * * * * * * * * * * * * //

dimensions      [0 1 0 0 0 0 0];

internalField   nonuniform List<vector> 
1034
(
(0 0 0)
(0.00140835 0 -8.82544e-05)
(0.00269698 0 -0.00017039)
(0 0 0)
(0.00140835 0 -8.82544e-05)
(0.00269698 0 -0.00017039)
(0 0 0)
(0.00139396 0 -9.19935e-05)
(0.0026695 0 -0.000177574)
(0.00380175 0 -0.000256222)
(0 0 0)
(0.00137826 0 -9.54091e-05)
(0.00263952 0 -0.000184148)
(0.00375918 0 -0.000265628)
(0.00475218 0 -0.000341719)
(0 0 0)
(0.00136131 0 -9.84439e-05)
(0.00260718 0 -0.000189997)
(0.00371322 0 -0.000274014)
(0.00469409 0 -0.000352357)
(0.0055626 0 -0.000426571)
(0 0 0)
(0.0013431 0 -0.000101066)
(0.00257251 0 -0.000195048)
(0.003664 0 -0.000281255)
(0.00463185 0 -0.000361547)
(0.00548862 0 -0.000437437)
(0.00624525 0 -0.000510198)
(0 0 0)
(0.00132364 0 -0.000103244)
(0.00253551 0 -0.000199242)
(0.0036116 0 -0.000287255)
(0.00456569 0 -0.000369141)
(0.00540997 0 -0.000446389)
(0.0061551 0 -0.000520212)
(0.00681068 0 -0.000591681)
(0 0 0)
(0.00130292 0 -0.000104952)
(0.00249619 0 -0.000202533)
(0.00355605 0 -0.000291947)
(0.00449572 0 -0.000375039)
(0.00532696 0 -0.000453283)
(0.00606011 0 -0.000527851)
(0.00670453 0 -0.000599755)
(0.00726853 0 -0.00066983)
(0.00775887 0 -0.000738667)
(0 0 0)
(0.00128098 0 -0.00010617)
(0.00245461 0 -0.000204878)
(0.00349739 0 -0.000295275)
(0.00442201 0 -0.000379173)
(0.00523979 0 -0.000458018)
(0.00596073 0 -0.000532968)
(0.00659382 0 -0.000604961)
(0.007147 0 -0.000674751)
(0.00762704 0 -0.00074289)
(0.00803961 0 -0.000809838)
(0 0 0)
(0.00125791 0 -0.000106876)
(0.00241094 0 -0.000206237)
(0.00343591 0 -0.000297182)
(0.00434493 0 -0.000381473)
(0.00514887 0 -0.000460517)
(0.00585738 0 -0.000535433)
(0.00647909 0 -0.000607109)
(0.00702161 0 -0.000676238)
(0.00749164 0 -0.000743309)
(0.00789487 0 -0.000808697)
(0.0082362 0 -0.00087266)
(0.00851993 0 -0.000935284)
(0 0 0)
(0.00123382 0 -0.000107051)
(0.0023654 0 -0.000206577)
(0.0033719 0 -0.000297622)
(0.00426486 0 -0.000381887)
(0.00505467 0 -0.000460726)
(0.00575061 0 -0.000535209)
(0.00636098 0 -0.000606173)
(0.00689315 0 -0.000674252)
(0.00735359 0 -0.000739898)
(0.00774802 0 -0.000803404)
(0.00808137 0 -0.00086494)
(0.00835797 0 -0.000924527)
(0.00858157 0 -0.000982028)
(0.00875538 0 -0.00103716)
(0 0 0)
(0.0012088 0 -0.000106687)
(0.00231815 0 -0.000205879)
(0.0033056 0 -0.000296573)
(0.00418209 0 -0.000380391)
(0.00495755 0 -0.000458628)
(0.00564087 0 -0.000532296)
(0.00624005 0 -0.000602177)
(0.0067622 0 -0.000668852)
(0.00721367 0 -0.000732725)
(0.00760008 0 -0.00079404)
(0.00792639 0 -0.000852902)
(0.00819704 0 -0.000909258)
(0.00841597 0 -0.000962915)
(0.00858666 0 -0.00101354)
(0.00871218 0 -0.00106069)
(0 0 0)
(0.00118295 0 -0.000105779)
(0.00226938 0 -0.000204138)
(0.00323728 0 -0.000294027)
(0.00409698 0 -0.000376984)
(0.00485793 0 -0.00045423)
(0.00552865 0 -0.000526718)
(0.00611683 0 -0.000595174)
(0.00662937 0 -0.000660129)
(0.00707249 0 -0.000721937)
(0.00745173 0 -0.000780799)
(0.00777208 0 -0.000836773)
(0.00803802 0 -0.000889771)
(0.00825365 0 -0.000939574)
(0.00842275 0 -0.000985813)
(0.00854876 0 -0.00102802)
(0.00863497 0 -0.0010656)
(0.00868478 0 -0.00109782)
(0 0 0)
(0.00115638 0 -0.000104328)
(0.00221932 0 -0.000201357)
(0.00316724 0 -0.000289992)
(0.00400991 0 -0.00037168)
(0.00475626 0 -0.000447562)
(0.00541445 0 -0.000518528)
(0.00599188 0 -0.000585248)
(0.00649526 0 -0.000648203)
(0.00693065 0 -0.000707706)
(0.00730355 0 -0.00076392)
(0.00761893 0 -0.00081687)
(0.00788137 0 -0.000866451)
(0.00809506 0 -0.000912434)
(0.00826392 0 -0.000954471)
(0.00839171 0 -0.000992104)
(0.00848203 0 -0.00102479)
(0.00853847 0 -0.0010519)
(0.00856474 0 -0.00107275)
(0.00856471 0 -0.00108661)
(0 0 0)
(0.00112923 0 -0.000102343)
(0.0021682 0 -0.000197548)
(0.00309584 0 -0.000284491)
(0.00392129 0 -0.000364513)
(0.00465302 0 -0.000438675)
(0.00529881 0 -0.0005078)
(0.00586579 0 -0.000572503)
(0.00636044 0 -0.000633218)
(0.00678872 0 -0.000690224)
(0.00715604 0 -0.000743652)
(0.00746739 0 -0.000793511)
(0.00772737 0 -0.000839687)
(0.00794026 0 -0.00088196)
(0.00811011 0 -0.000920015)
(0.00824081 0 -0.000953447)
(0.00833613 0 -0.00098179)
(0.00839987 0 -0.00100451)
(0.00843583 0 -0.00102106)
(0.00844783 0 -0.00103092)
(0.00843981 0 -0.00103359)
(0.00841563 0 -0.0010287)
(0 0 0)
(0.00110165 0 -9.98344e-05)
(0.00211631 0 -0.000192736)
(0.00302343 0 -0.000277558)
(0.00383156 0 -0.000355531)
(0.00454871 0 -0.000427635)
(0.00518228 0 -0.000494624)
(0.00573911 0 -0.000557059)
(0.0062255 0 -0.000615334)
(0.00664724 0 -0.000669693)
(0.0070097 0 -0.00072025)
(0.00731782 0 -0.000767002)
(0.00757623 0 -0.000809843)
(0.00778926 0 -0.000848573)
(0.00796104 0 -0.000882917)
(0.00809552 0 -0.000912534)
(0.00819658 0 -0.000937041)
(0.00826801 0 -0.000956023)
(0.00831362 0 -0.000969071)
(0.00833722 0 -0.000975797)
(0.00834258 0 -0.000975888)
(0.0083331 0 -0.000969213)
(0 0 0)
(0.00107379 0 -9.68185e-05)
(0.00206391 0 -0.000186951)
(0.0029504 0 -0.000269236)
(0.00374121 0 -0.000344795)
(0.00444388 0 -0.000414522)
(0.00506543 0 -0.000479103)
(0.00561244 0 -0.000539049)
(0.00609099 0 -0.000594714)
(0.00650674 0 -0.000646317)
(0.00686496 0 -0.000693958)
(0.00717055 0 -0.000737633)
(0.00742812 0 -0.000777249)
(0.00764203 0 -0.000812636)
(0.00781642 0 -0.000843566)
(0.00795527 0 -0.000869764)
(0.00806246 0 -0.000890931)
(0.00814177 0 -0.000906758)
(0.00819692 0 -0.000916954)
(0.0082316 0 -0.000921265)
(0.00824923 0 -0.000919552)
(0.00825292 0 -0.000911823)
(0 0 0)
(0.00104581 0 -9.33145e-05)
(0.00201132 0 -0.000180228)
(0.00287717 0 -0.000259578)
(0.00365073 0 -0.000332374)
(0.00433906 0 -0.000399424)
(0.00494885 0 -0.000461349)
(0.00548637 0 -0.000518609)
(0.0059575 0 -0.000571525)
(0.00636775 0 -0.000620293)
(0.00672227 0 -0.000665005)
(0.00702591 0 -0.000705662)
(0.00728322 0 -0.00074219)
(0.00749855 0 -0.000774453)
(0.00767601 0 -0.000802273)
(0.00781957 0 -0.000825438)
(0.00793304 0 -0.000843729)
(0.00802014 0 -0.000856931)
(0.00808445 0 -0.000864855)
(0.00812951 0 -0.000867356)
(0.00815831 0 -0.000864448)
(0 0 0)
(0.00101788 0 -8.93437e-05)
(0.00195886 0 -0.000172608)
(0.00280417 0 -0.00024864)
(0.00356063 0 -0.000318341)
(0.00423485 0 -0.000382432)
(0.00483315 0 -0.00044147)
(0.00536152 0 -0.00049587)
(0.00582563 0 -0.000545919)
(0.0062308 0 -0.000591798)
(0.00658209 0 -0.000633591)
(0.00688423 0 -0.00067131)
(0.00714173 0 -0.000704902)
(0.00735885 0 -0.000734265)
(0.00753966 0 -0.000759269)
(0.00768806 0 -0.000779765)
(0.00780776 0 -0.000795601)
(0.00790237 0 -0.000806645)
(0.00797533 0 -0.000812793)
(0.00802993 0 -0.000813991)
(0.0080689 0 -0.000810344)
(0 0 0)
(0.000990194 0 -8.49281e-05)
(0.00190687 0 -0.000164132)
(0.00273187 0 -0.000236481)
(0.00347147 0 -0.000302768)
(0.00413185 0 -0.000363633)
(0.00471897 0 -0.000419572)
(0.00523853 0 -0.000470954)
(0.00569598 0 -0.000518037)
(0.00609647 0 -0.000560986)
(0.0064449 0 -0.000599885)
(0.00674591 0 -0.000634754)
(0.00700389 0 -0.000665562)
(0.00722304 0 -0.000692243)
(0.00740732 0 -0.000714708)
(0.00756052 0 -0.000732862)
(0.00768627 0 -0.000746616)
(0.00778801 0 -0.000755901)
(0.007869 0 -0.000760683)
(0.00793234 0 -0.000760972)
(0.00798052 0 -0.000756936)
(0 0 0)
(0.000962933 0 -8.00889e-05)
(0.00185568 0 -0.000154838)
(0.00266072 0 -0.000223153)
(0.00338381 0 -0.000285723)
(0.0040307 0 -0.000343109)
(0.00460698 0 -0.000395746)
(0.00511809 0 -0.000443963)
(0.00556922 0 -0.00048799)
(0.00596537 0 -0.000527979)
(0.00631125 0 -0.000564011)
(0.00661139 0 -0.000596118)
(0.00687006 0 -0.000624289)
(0.00709133 0 -0.000648488)
(0.00727907 0 -0.000668664)
(0.00743694 0 -0.000684766)
(0.00756843 0 -0.000696757)
(0.00767682 0 -0.000704618)
(0.00776521 0 -0.000708367)
(0.00783649 0 -0.00070806)
(0.00789291 0 -0.000703908)
(0 0 0)
(0.000936298 0 -7.48456e-05)
(0.00180568 0 -0.000144763)
(0.00259126 0 -0.000208704)
(0.00329828 0 -0.000267263)
(0.00393208 0 -0.000320923)
(0.00449791 0 -0.000370065)
(0.00500093 0 -0.000414975)
(0.00544609 0 -0.00045586)
(0.00583818 0 -0.000492857)
(0.00618177 0 -0.000526048)
(0.00648121 0 -0.000555472)
(0.00674067 0 -0.000581135)
(0.00696408 0 -0.000603028)
(0.00715517 0 -0.000621131)
(0.00731748 0 -0.00063543)
(0.00745433 0 -0.000645925)
(0.00756886 0 -0.000652637)
(0.00766398 0 -0.000655619)
(0.00774241 0 -0.00065496)
(0.00780616 0 -0.000650896)
(0 0 0)
(0.000910498 0 -6.92137e-05)
(0.00175726 0 -0.000133933)
(0.00252401 0 -0.00019317)
(0.00321552 0 -0.000247429)
(0.00383673 0 -0.000297121)
(0.00439255 0 -0.000342573)
(0.00488786 0 -0.000384035)
(0.00532737 0 -0.000421687)
(0.00571568 0 -0.000455655)
(0.00605718 0 -0.000486018)
(0.00635606 0 -0.000512821)
(0.00661634 0 -0.000536084)
(0.00684182 0 -0.000555818)
(0.00703608 0 -0.000572027)
(0.00720252 0 -0.000584727)
(0.00734431 0 -0.000593943)
(0.00746442 0 -0.000599725)
(0.00756561 0 -0.000602149)
(0.00765043 0 -0.000601324)
(0.00772066 0 -0.000597497)
(0 0 0)
(0.000885757 0 -6.32035e-05)
(0.00171083 0 -0.000122366)
(0.00245955 0 -0.000176573)
(0.00313624 0 -0.000226242)
(0.00374545 0 -0.00027172)
(0.00429177 0 -0.000313284)
(0.00477978 0 -0.000351146)
(0.00521399 0 -0.000385465)
(0.00559877 0 -0.000416352)
(0.00593834 0 -0.000443881)
(0.00623674 0 -0.000468102)
(0.00649782 0 -0.000489044)
(0.00672524 0 -0.000506732)
(0.00692244 0 -0.000521189)
(0.00709266 0 -0.000532448)
(0.00723894 0 -0.000540554)
(0.00736408 0 -0.000545575)
(0.00747069 0 -0.0005476)
(0.00756116 0 -0.000546745)
(0.00763708 0 -0.00054326)
(0 0 0)
(0.000862317 0 -5.68185e-05)
(0.00166686 0 -0.000110066)
(0.00239854 0 -0.000158911)
(0.00306124 0 -0.000203695)
(0.00365914 0 -0.000244705)
(0.00419653 0 -0.000282169)
(0.00467772 0 -0.000316267)
(0.00510699 0 -0.000347132)
(0.0054885 0 -0.000374863)
(0.0058263 0 -0.000399528)
(0.00612426 0 -0.000421175)
(0.00638608 0 -0.000439842)
(0.00661527 0 -0.00045556)
(0.00681514 0 -0.000468364)
(0.00698877 0 -0.000478298)
(0.00713906 0 -0.000485419)
(0.00726867 0 -0.000489801)
(0.00738007 0 -0.00049154)
(0.0074755 0 -0.000490753)
(0.00755638 0 -0.00048768)
(0 0 0)
(0.000840448 0 -5.00538e-05)
(0.00162586 0 -9.70202e-05)
(0.00234168 0 -0.000140162)
(0.00299139 0 -0.000179752)
(0.00357882 0 -0.00021602)
(0.00410795 0 -0.000249153)
(0.00458286 0 -0.000279296)
(0.00500757 0 -0.000306562)
(0.00538608 0 -0.000331033)
(0.00572225 0 -0.00035277)
(0.00601981 0 -0.000371818)
(0.00628229 0 -0.000388216)
(0.00651307 0 -0.000401999)
(0.0067153 0 -0.000413206)
(0.00689196 0 -0.000421887)
(0.00704579 0 -0.000428102)
(0.00717932 0 -0.000431927)
(0.0072949 0 -0.000433455)
(0.00739463 0 -0.000432798)
(0.00747979 0 -0.00043018)
(0 0 0)
(0.000820458 0 -4.28948e-05)
(0.00158841 0 -8.31973e-05)
(0.0022898 0 -0.000120274)
(0.00292771 0 -0.000154337)
(0.00350565 0 -0.000185565)
(0.00402732 0 -0.000214105)
(0.00449654 0 -0.000240072)
(0.00491716 0 -0.000263557)
(0.00529297 0 -0.000284626)
(0.00562768 0 -0.00030333)
(0.00592485 0 -0.00031971)
(0.0061879 0 -0.000333801)
(0.00642006 0 -0.000345639)
(0.00662436 0 -0.000355261)
(0.00680364 0 -0.000362716)
(0.00696053 0 -0.000368063)
(0.00709744 0 -0.000371373)
(0.0072166 0 -0.000372731)
(0.00732001 0 -0.000372238)
(0.0074088 0 -0.000370095)
(0 0 0)
(0.000802706 0 -3.53154e-05)
(0.00155521 0 -6.85432e-05)
(0.00224386 0 -9.91632e-05)
(0.0028714 0 -0.000127332)
(0.00344101 0 -0.000153184)
(0.00395614 0 -0.00017683)
(0.0044204 0 -0.000198358)
(0.00483744 0 -0.000217835)
(0.00521089 0 -0.000235313)
(0.00554432 0 -0.000250832)
(0.00584115 0 -0.000264425)
(0.00610468 0 -0.000276121)
(0.006338 0 -0.000285952)
(0.00654405 0 -0.000293952)
(0.00672554 0 -0.000300162)
(0.006885 0 -0.000304636)
(0.00702475 0 -0.000307434)
(0.0071469 0 -0.000308631)
(0.00725338 0 -0.000308311)
(0.0073452 0 -0.000306646)
(0 0 0)
(0.000787629 0 -2.72773e-05)
(0.00152707 0 -5.298e-05)
(0.00220502 0 -7.67086e-05)
(0.00282388 0 -9.85724e-05)
(0.00338654 0 -0.000118666)
(0.00389622 0 -0.000137066)
(0.00435635 0 -0.000153836)
(0.00477042 0 -0.000169022)
(0.00514192 0 -0.000182662)
(0.00547429 0 -0.000194784)
(0.00577083 0 -0.000205411)
(0.00603473 0 -0.000214566)
(0.006269 0 -0.000222272)
(0.00647646 0 -0.000228557)
(0.00665974 0 -0.000233454)
(0.00682128 0 -0.000237004)
(0.00696332 0 -0.000239256)
(0.00708788 0 -0.000240268)
(0.00719682 0 -0.000240107)
(0.00729106 0 -0.000238908)
(0 0 0)
(0.000775781 0 -1.87287e-05)
(0.00150504 0 -3.6403e-05)
(0.00217473 0 -5.27508e-05)
(0.00278691 0 -6.78402e-05)
(0.00334424 0 -8.17301e-05)
(0.00384976 0 -9.44693e-05)
(0.00430674 0 -0.000106096)
(0.00471855 0 -0.00011664)
(0.00508856 0 -0.000126124)
(0.00542011 0 -0.000134564)
(0.00571643 0 -0.000141976)
(0.00598061 0 -0.000148373)
(0.00621559 0 -0.00015377)
(0.00642411 0 -0.000158186)
(0.00660874 0 -0.000161643)
(0.00677184 0 -0.000164169)
(0.00691559 0 -0.000165797)
(0.00704196 0 -0.000166567)
(0.00715274 0 -0.000166526)
(0.00724878 0 -0.000165767)
(0 0 0)
(0.000767901 0 -9.60438e-06)
(0.00149048 0 -1.86801e-05)
(0.00215481 0 -2.70888e-05)
(0.00276269 0 -3.48626e-05)
(0.0033166 0 -4.20293e-05)
(0.00381945 0 -4.86122e-05)
(0.00427441 0 -5.46291e-05)
(0.00468477 0 -6.00938e-05)
(0.00505382 0 -6.50164e-05)
(0.00538486 0 -6.94047e-05)
(0.00568103 0 -7.32651e-05)
(0.0059454 0 -7.66037e-05)
(0.00618083 0 -7.94276e-05)
(0.00639003 0 -8.17454e-05)
(0.00657551 0 -8.35682e-05)
(0.0067396 0 -8.49097e-05)
(0.00688444 0 -8.57869e-05)
(0.00701195 0 -8.62203e-05)
(0.0071239 0 -8.62335e-05)
(0.0072211 0 -8.58735e-05)
(0 0 0)
(0.000765175 0 0)
(0.00148536 0 0)
(0.00214779 0 0)
(0.00275415 0 0)
(0.00330685 0 0)
(0.00380876 0 0)
(0.004263 0 0)
(0.00467284 0 0)
(0.00504156 0 0)
(0.00537241 0 0)
(0.00566853 0 0)
(0.00593295 0 0)
(0.00616854 0 0)
(0.00637797 0 0)
(0.00656375 0 0)
(0.00672818 0 0)
(0.00687339 0 0)
(0.00700131 0 0)
(0.00711367 0 0)
(0.00721127 0 0)
(0 0 0)
(0.00139396 0 -9.19935e-05)
(0.0026695 0 -0.000177574)
(0.00380175 0 -0.000256222)
(0 0 0)
(0.00137826 0 -9.54091e-05)
(0.00263952 0 -0.000184148)
(0.00375918 0 -0.000265628)
(0.00475218 0 -0.000341719)
(0 0 0)
(0.00136131 0 -9.84439e-05)
(0.00260718 0 -0.000189997)
(0.00371322 0 -0.000274014)
(0.00469409 0 -0.000352357)
(0.0055626 0 -0.000426571)
(0 0 0)
(0.0013431 0 -0.000101066)
(0.00257251 0 -0.000195048)
(0.003664 0 -0.000281255)
(0.00463185 0 -0.000361547)
(0.00548862 0 -0.000437437)
(0.00624525 0 -0.000510198)
(0 0 0)
(0.00132364 0 -0.000103244)
(0.00253551 0 -0.000199242)
(0.0036116 0 -0.000287255)
(0.00456569 0 -0.000369141)
(0.00540997 0 -0.000446389)
(0.0061551 0 -0.000520212)
(0.00681068 0 -0.000591681)
(0 0 0)
(0.00130292 0 -0.000104952)
(0.00249619 0 -0.000202533)
(0.00355605 0 -0.000291947)
(0.00449572 0 -0.000375039)
(0.00532696 0 -0.000453283)
(0.00606011 0 -0.000527851)
(0.00670453 0 -0.000599755)
(0.00726853 0 -0.00066983)
(0.00775887 0 -0.000738667)
(0 0 0)
(0.00128098 0 -0.00010617)
(0.00245461 0 -0.000204878)
(0.00349739 0 -0.000295275)
(0.00442201 0 -0.000379173)
(0.00523979 0 -0.000458018)
(0.00596073 0 -0.000532968)
(0.00659382 0 -0.000604961)
(0.007147 0 -0.000674751)
(0.00762704 0 -0.00074289)
(0.00803961 0 -0.000809838)
(0 0 0)
(0.00125791 0 -0.000106876)
(0.00241094 0 -0.000206237)
(0.00343591 0 -0.000297182)
(0.00434493 0 -0.000381473)
(0.00514887 0 -0.000460517)
(0.00585738 0 -0.000535433)
(0.00647909 0 -0.000607109)
(0.00702161 0 -0.000676238)
(0.00749164 0 -0.000743309)
(0.00789487 0 -0.000808697)
(0.0082362 0 -0.00087266)
(0.00851993 0 -0.000935284)
(0 0 0)
(0.00123382 0 -0.000107051)
(0.0023654 0 -0.000206577)
(0.0033719 0 -0.000297622)
(0.00426486 0 -0.000381887)
(0.00505467 0 -0.000460726)
(0.00575061 0 -0.000535209)
(0.00636098 0 -0.000606173)
(0.00689315 0 -0.000674252)
(0.00735359 0 -0.000739898)
(0.00774802 0 -0.000803404)
(0.00808137 0 -0.00086494)
(0.00835797 0 -0.000924527)
(0.00858157 0 -0.000982028)
(0.00875538 0 -0.00103716)
(0 0 0)
(0.0012088 0 -0.000106687)
(0.00231815 0 -0.000205879)
(0.0033056 0 -0.000296573)
(0.00418209 0 -0.000380391)
(0.00495755 0 -0.000458628)
(0.00564087 0 -0.000532296)
(0.00624005 0 -0.000602177)
(0.0067622 0 -0.000668852)
(0.00721367 0 -0.000732725)
(0.00760008 0 -0.00079404)
(0.00792639 0 -0.000852902)
(0.00819704 0 -0.000909258)
(0.00841597 0 -0.000962915)
(0.00858666 0 -0.00101354)
(0.00871218 0 -0.00106069)
(0 0 0)
(0.00118295 0 -0.000105779)
(0.00226938 0 -0.000204138)
(0.00323728 0 -0.000294027)
(0.00409698 0 -0.000376984)
(0.00485793 0 -0.00045423)
(0.00552865 0 -0.000526718)
(0.00611683 0 -0.000595174)
(0.00662937 0 -0.000660129)
(0.00707249 0 -0.000721937)
(0.00745173 0 -0.000780799)
(0.00777208 0 -0.000836773)
(0.00803802 0 -0.000889771)
(0.00825365 0 -0.000939574)
(0.00842275 0 -0.000985813)
(0.00854876 0 -0.00102802)
(0.00863497 0 -0.0010656)
(0.00868478 0 -0.00109782)
(0 0 0)
(0.00115638 0 -0.000104328)
(0.00221932 0 -0.000201357)
(0.00316724 0 -0.000289992)
(0.00400991 0 -0.00037168)
(0.00475626 0 -0.000447562)
(0.00541445 0 -0.000518528)
(0.00599188 0 -0.000585248)
(0.00649526 0 -0.000648203)
(0.00693065 0 -0.000707706)
(0.00730355 0 -0.00076392)
(0.00761893 0 -0.00081687)
(0.00788137 0 -0.000866451)
(0.00809506 0 -0.000912434)
(0.00826392 0 -0.000954471)
(0.00839171 0 -0.000992104)
(0.00848203 0 -0.00102479)
(0.00853847 0 -0.0010519)
(0.00856474 0 -0.00107275)
(0.00856471 0 -0.00108661)
(0 0 0)
(0.00112923 0 -0.000102343)
(0.0021682 0 -0.000197548)
(0.00309584 0 -0.000284491)
(0.00392129 0 -0.000364513)
(0.00465302 0 -0.000438675)
(0.00529881 0 -0.0005078)
(0.00586579 0 -0.000572503)
(0.00636044 0 -0.000633218)
(0.00678872 0 -0.000690224)
(0.00715604 0 -0.000743652)
(0.00746739 0 -0.000793511)
(0.00772737 0 -0.000839687)
(0.00794026 0 -0.00088196)
(0.00811011 0 -0.000920015)
(0.00824081 0 -0.000953447)
(0.00833613 0 -0.00098179)
(0.00839987 0 -0.00100451)
(0.00843583 0 -0.00102106)
(0.00844783 0 -0.00103092)
(0.00843981 0 -0.00103359)
(0.00841563 0 -0.0010287)
(0 0 0)
(0.00110165 0 -9.98344e-05)
(0.00211631 0 -0.000192736)
(0.00302343 0 -0.000277558)
(0.00383156 0 -0.000355531)
(0.00454871 0 -0.000427635)
(0.00518228 0 -0.000494624)
(0.00573911 0 -0.000557059)
(0.0062255 0 -0.000615334)
(0.00664724 0 -0.000669693)
(0.0070097 0 -0.00072025)
(0.00731782 0 -0.000767002)
(0.00757623 0 -0.000809843)
(0.00778926 0 -0.000848573)
(0.00796104 0 -0.000882917)
(0.00809552 0 -0.000912534)
(0.00819658 0 -0.000937041)
(0.00826801 0 -0.000956023)
(0.00831362 0 -0.000969071)
(0.00833722 0 -0.000975797)
(0.00834258 0 -0.000975888)
(0.0083331 0 -0.000969213)
(0 0 0)
(0.00107379 0 -9.68185e-05)
(0.00206391 0 -0.000186951)
(0.0029504 0 -0.000269236)
(0.00374121 0 -0.000344795)
(0.00444388 0 -0.000414522)
(0.00506543 0 -0.000479103)
(0.00561244 0 -0.000539049)
(0.00609099 0 -0.000594714)
(0.00650674 0 -0.000646317)
(0.00686496 0 -0.000693958)
(0.00717055 0 -0.000737633)
(0.00742812 0 -0.000777249)
(0.00764203 0 -0.000812636)
(0.00781642 0 -0.000843566)
(0.00795527 0 -0.000869764)
(0.00806246 0 -0.000890931)
(0.00814177 0 -0.000906758)
(0.00819692 0 -0.000916954)
(0.0082316 0 -0.000921265)
(0.00824923 0 -0.000919552)
(0.00825292 0 -0.000911823)
(0 0 0)
(0.00104581 0 -9.33145e-05)
(0.00201132 0 -0.000180228)
(0.00287717 0 -0.000259578)
(0.00365073 0 -0.000332374)
(0.00433906 0 -0.000399424)
(0.00494885 0 -0.000461349)
(0.00548637 0 -0.000518609)
(0.0059575 0 -0.000571525)
(0.00636775 0 -0.000620293)
(0.00672227 0 -0.000665005)
(0.00702591 0 -0.000705662)
(0.00728322 0 -0.00074219)
(0.00749855 0 -0.000774453)
(0.00767601 0 -0.000802273)
(0.00781957 0 -0.000825438)
(0.00793304 0 -0.000843729)
(0.00802014 0 -0.000856931)
(0.00808445 0 -0.000864855)
(0.00812951 0 -0.000867356)
(0.00815831 0 -0.000864448)
(0 0 0)
(0.00101788 0 -8.93437e-05)
(0.00195886 0 -0.000172608)
(0.00280417 0 -0.00024864)
(0.00356063 0 -0.000318341)
(0.00423485 0 -0.000382432)
(0.00483315 0 -0.00044147)
(0.00536152 0 -0.00049587)
(0.00582563 0 -0.000545919)
(0.0062308 0 -0.000591798)
(0.00658209 0 -0.000633591)
(0.00688423 0 -0.00067131)
(0.00714173 0 -0.000704902)
(0.00735885 0 -0.000734265)
(0.00753966 0 -0.000759269)
(0.00768806 0 -0.000779765)
(0.00780776 0 -0.000795601)
(0.00790237 0 -0.000806645)
(0.00797533 0 -0.000812793)
(0.00802993 0 -0.000813991)
(0.0080689 0 -0.000810344)
(0 0 0)
(0.000990194 0 -8.49281e-05)
(0.00190687 0 -0.000164132)
(0.00273187 0 -0.000236481)
(0.00347147 0 -0.000302768)
(0.00413185 0 -0.000363633)
(0.00471897 0 -0.000419572)
(0.00523853 0 -0.000470954)
(0.00569598 0 -0.000518037)
(0.00609647 0 -0.000560986)
(0.0064449 0 -0.000599885)
(0.00674591 0 -0.000634754)
(0.00700389 0 -0.000665562)
(0.00722304 0 -0.000692243)
(0.00740732 0 -0.000714708)
(0.00756052 0 -0.000732862)
(0.00768627 0 -0.000746616)
(0.00778801 0 -0.000755901)
(0.007869 0 -0.000760683)
(0.00793234 0 -0.000760972)
(0.00798052 0 -0.000756936)
(0 0 0)
(0.000962933 0 -8.00889e-05)
(0.00185568 0 -0.000154838)
(0.00266072 0 -0.000223153)
(0.00338381 0 -0.000285723)
(0.0040307 0 -0.000343109)
(0.00460698 0 -0.000395746)
(0.00511809 0 -0.000443963)
(0.00556922 0 -0.00048799)
(0.00596537 0 -0.000527979)
(0.00631125 0 -0.000564011)
(0.00661139 0 -0.000596118)
(0.00687006 0 -0.000624289)
(0.00709133 0 -0.000648488)
(0.00727907 0 -0.000668664)
(0.00743694 0 -0.000684766)
(0.00756843 0 -0.000696757)
(0.00767682 0 -0.000704618)
(0.00776521 0 -0.000708367)
(0.00783649 0 -0.00070806)
(0.00789291 0 -0.000703908)
(0 0 0)
(0.000936298 0 -7.48456e-05)
(0.00180568 0 -0.000144763)
(0.00259126 0 -0.000208704)
(0.00329828 0 -0.000267263)
(0.00393208 0 -0.000320923)
(0.00449791 0 -0.000370065)
(0.00500093 0 -0.000414975)
(0.00544609 0 -0.00045586)
(0.00583818 0 -0.000492857)
(0.00618177 0 -0.000526048)
(0.00648121 0 -0.000555472)
(0.00674067 0 -0.000581135)
(0.00696408 0 -0.000603028)
(0.00715517 0 -0.000621131)
(0.00731748 0 -0.00063543)
(0.00745433 0 -0.000645925)
(0.00756886 0 -0.000652637)
(0.00766398 0 -0.000655619)
(0.00774241 0 -0.00065496)
(0.00780616 0 -0.000650896)
(0 0 0)
(0.000910498 0 -6.92137e-05)
(0.00175726 0 -0.000133933)
(0.00252401 0 -0.00019317)
(0.00321552 0 -0.000247429)
(0.00383673 0 -0.000297121)
(0.00439255 0 -0.000342573)
(0.00488786 0 -0.000384035)
(0.00532737 0 -0.000421687)
(0.00571568 0 -0.000455655)
(0.00605718 0 -0.000486018)
(0.00635606 0 -0.000512821)
(0.00661634 0 -0.000536084)
(0.00684182 0 -0.000555818)
(0.00703608 0 -0.000572027)
(0.00720252 0 -0.000584727)
(0.00734431 0 -0.000593943)
(0.00746442 0 -0.000599725)
(0.00756561 0 -0.000602149)
(0.00765043 0 -0.000601324)
(0.00772066 0 -0.000597497)
(0 0 0)
(0.000885757 0 -6.32035e-05)
(0.00171083 0 -0.000122366)
(0.00245955 0 -0.000176573)
(0.00313624 0 -0.000226242)
(0.00374545 0 -0.00027172)
(0.00429177 0 -0.000313284)
(0.00477978 0 -0.000351146)
(0.00521399 0 -0.000385465)
(0.00559877 0 -0.000416352)
(0.00593834 0 -0.000443881)
(0.00623674 0 -0.000468102)
(0.00649782 0 -0.000489044)
(0.00672524 0 -0.000506732)
(0.00692244 0 -0.000521189)
(0.00709266 0 -0.000532448)
(0.00723894 0 -0.000540554)
(0.00736408 0 -0.000545575)
(0.00747069 0 -0.0005476)
(0.00756116 0 -0.000546745)
(0.00763708 0 -0.00054326)
(0 0 0)
(0.000862317 0 -5.68185e-05)
(0.00166686 0 -0.000110066)
(0.00239854 0 -0.000158911)
(0.00306124 0 -0.000203695)
(0.00365914 0 -0.000244705)
(0.00419653 0 -0.000282169)
(0.00467772 0 -0.000316267)
(0.00510699 0 -0.000347132)
(0.0054885 0 -0.000374863)
(0.0058263 0 -0.000399528)
(0.00612426 0 -0.000421175)
(0.00638608 0 -0.000439842)
(0.00661527 0 -0.00045556)
(0.00681514 0 -0.000468364)
(0.00698877 0 -0.000478298)
(0.00713906 0 -0.000485419)
(0.00726867 0 -0.000489801)
(0.00738007 0 -0.00049154)
(0.0074755 0 -0.000490753)
(0.00755638 0 -0.00048768)
(0 0 0)
(0.000840448 0 -5.00538e-05)
(0.00162586 0 -9.70202e-05)
(0.00234168 0 -0.000140162)
(0.00299139 0 -0.000179752)
(0.00357882 0 -0.00021602)
(0.00410795 0 -0.000249153)
(0.00458286 0 -0.000279296)
(0.00500757 0 -0.000306562)
(0.00538608 0 -0.000331033)
(0.00572225 0 -0.00035277)
(0.00601981 0 -0.000371818)
(0.00628229 0 -0.000388216)
(0.00651307 0 -0.000401999)
(0.0067153 0 -0.000413206)
(0.00689196 0 -0.000421887)
(0.00704579 0 -0.000428102)
(0.00717932 0 -0.000431927)
(0.0072949 0 -0.000433455)
(0.00739463 0 -0.000432798)
(0.00747979 0 -0.00043018)
(0 0 0)
(0.000820458 0 -4.28948e-05)
(0.00158841 0 -8.31973e-05)
(0.0022898 0 -0.000120274)
(0.00292771 0 -0.000154337)
(0.00350565 0 -0.000185565)
(0.00402732 0 -0.000214105)
(0.00449654 0 -0.000240072)
(0.00491716 0 -0.000263557)
(0.00529297 0 -0.000284626)
(0.00562768 0 -0.00030333)
(0.00592485 0 -0.00031971)
(0.0061879 0 -0.000333801)
(0.00642006 0 -0.000345639)
(0.00662436 0 -0.000355261)
(0.00680364 0 -0.000362716)
(0.00696053 0 -0.000368063)
(0.00709744 0 -0.000371373)
(0.0072166 0 -0.000372731)
(0.00732001 0 -0.000372238)
(0.0074088 0 -0.000370095)
(0 0 0)
(0.000802706 0 -3.53154e-05)
(0.00155521 0 -6.85432e-05)
(0.00224386 0 -9.91632e-05)
(0.0028714 0 -0.000127332)
(0.00344101 0 -0.000153184)
(0.00395614 0 -0.00017683)
(0.0044204 0 -0.000198358)
(0.00483744 0 -0.000217835)
(0.00521089 0 -0.000235313)
(0.00554432 0 -0.000250832)
(0.00584115 0 -0.000264425)
(0.00610468 0 -0.000276121)
(0.006338 0 -0.000285952)
(0.00654405 0 -0.000293952)
(0.00672554 0 -0.000300162)
(0.006885 0 -0.000304636)
(0.00702475 0 -0.000307434)
(0.0071469 0 -0.000308631)
(0.00725338 0 -0.000308311)
(0.0073452 0 -0.000306646)
(0 0 0)
(0.000787629 0 -2.72773e-05)
(0.00152707 0 -5.298e-05)
(0.00220502 0 -7.67086e-05)
(0.00282388 0 -9.85724e-05)
(0.00338654 0 -0.000118666)
(0.00389622 0 -0.000137066)
(0.00435635 0 -0.000153836)
(0.00477042 0 -0.000169022)
(0.00514192 0 -0.000182662)
(0.00547429 0 -0.000194784)
(0.00577083 0 -0.000205411)
(0.00603473 0 -0.000214566)
(0.006269 0 -0.000222272)
(0.00647646 0 -0.000228557)
(0.00665974 0 -0.000233454)
(0.00682128 0 -0.000237004)
(0.00696332 0 -0.000239256)
(0.00708788 0 -0.000240268)
(0.00719682 0 -0.000240107)
(0.00729106 0 -0.000238908)
(0 0 0)
(0.000775781 0 -1.87287e-05)
(0.00150504 0 -3.6403e-05)
(0.00217473 0 -5.27508e-05)
(0.00278691 0 -6.78402e-05)
(0.00334424 0 -8.17301e-05)
(0.00384976 0 -9.44693e-05)
(0.00430674 0 -0.000106096)
(0.00471855 0 -0.00011664)
(0.00508856 0 -0.000126124)
(0.00542011 0 -0.000134564)
(0.00571643 0 -0.000141976)
(0.00598061 0 -0.000148373)
(0.00621559 0 -0.00015377)
(0.00642411 0 -0.000158186)
(0.00660874 0 -0.000161643)
(0.00677184 0 -0.000164169)
(0.00691559 0 -0.000165797)
(0.00704196 0 -0.000166567)
(0.00715274 0 -0.000166526)
(0.00724878 0 -0.000165767)
(0 0 0)
(0.000767901 0 -9.60438e-06)
(0.00149048 0 -1.86801e-05)
(0.00215481 0 -2.70888e-05)
(0.00276269 0 -3.48626e-05)
(0.0033166 0 -4.20293e-05)
(0.00381945 0 -4.86122e-05)
(0.00427441 0 -5.46291e-05)
(0.00468477 0 -6.00938e-05)
(0.00505382 0 -6.50164e-05)
(0.00538486 0 -6.94047e-05)
(0.00568103 0 -7.32651e-05)
(0.0059454 0 -7.66037e-05)
(0.00618083 0 -7.94276e-05)
(0.00639003 0 -8.17454e-05)
(0.00657551 0 -8.35682e-05)
(0.0067396 0 -8.49097e-05)
(0.00688444 0 -8.57869e-05)
(0.00701195 0 -8.62203e-05)
(0.0071239 0 -8.62335e-05)
(0.0072211 0 -8.58735e-05)
(0 0 0)
(0.000765175 0 0)
(0.00148536 0 0)
(0.00214779 0 0)
(0.00275415 0 0)
(0.00330685 0 0)
(0.00380876 0 0)
(0.004263 0 0)
(0.00467284 0 0)
(0.00504156 0 0)
(0.00537241 0 0)
(0.00566853 0 0)
(0.00593295 0 0)
(0.00616854 0 0)
(0.00637797 0 0)
(0.00656375 0 0)
(0.00672818 0 0)
(0.00687339 0 0)
(0.00700131 0 0)
(0.00711367 0 0)
(0.00721127 0 0)
)
;

boundaryField
{
    inlet
    {
        type            fixedValue;
        value           uniform (0 0 0);
    }
    outlet
    {
        type            fixedValue;
        value           nonuniform 0();
    }
    flap
    {
        type            fixedValue;
        value           nonuniform 0();
    }
    upperWall
    {
        type            slip;
    }
    lowerWall
    {
        type            slip;
    }
    frontAndBack
    {
        type            empty;
    }
    procBoundary0to1
    {
        type            processor;
    }
    procBoundary0to3
    {
        type            processor;
    }
}


// ************************************************************************* //
