/*--------------------------------*- C++ -*----------------------------------*\
| =========                 |                                                 |
| \\      /  F ield         | OpenFOAM: The Open Source CFD Toolbox           |
|  \\    /   O peration     | Version:  dev                                   |
|   \\  /    A nd           | Web:      www.OpenFOAM.org                      |
|    \\/     M anipulation  |                                                 |
\*---------------------------------------------------------------------------*/
FoamFile
{
    version     2.0;
    format      ascii;
    class       pointVectorField;
    location    "2.97";
    object      pointDisplacement;
}
// * * * * * * * * * * * * * * * * * * * * * * * * * * * * * * * * * * * * * //

dimensions      [0 1 0 0 0 0 0];

internalField   nonuniform List<vector> 
1062
(
(0.053907 0 0)
(0.0479551 0 0)
(0.0416871 0 0)
(0.0351991 0 0)
(0.0286201 0 0)
(0.0221206 0 0)
(0.0159485 0 0)
(0.0104959 0 0)
(0.0065371 0 0)
(0 0 0)
(0.0546131 0 0.000209307)
(0.0487762 0 0.000378479)
(0.0426448 0 0.000586857)
(0.0363168 0 0.000842477)
(0.0299294 0 0.00115456)
(0.0236645 0 0.00153387)
(0.0177868 0 0.00199201)
(0.0127284 0 0.00253119)
(0.00929111 0 0.00309678)
(0.00437919 0 0.00410025)
(0.0567079 0 0.000372371)
(0.0512019 0 0.000696681)
(0.0454637 0 0.00109482)
(0.0396063 0 0.00157951)
(0.0337854 0 0.0021642)
(0.0282069 0 0.00286293)
(0.0231599 0 0.00368532)
(0.019135 0 0.00461325)
(0.0169715 0 0.00551685)
(0.0135469 0 0.00692626)
(0.0601575 0 0.000445421)
(0.0551806 0 0.000897136)
(0.0500616 0 0.00144716)
(0.0449433 0 0.0021086)
(0.0400085 0 0.00289267)
(0.0354946 0 0.00380563)
(0.0317026 0 0.00483922)
(0.0291065 0 0.00593725)
(0.0285128 0 0.00689922)
(0.0267565 0 0.00828573)
(0.0648998 0 0.000390524)
(0.0606465 0 0.000930736)
(0.0563543 0 0.0015812)
(0.0521892 0 0.00235088)
(0.0483721 0 0.00324183)
(0.0451734 0 0.00424297)
(0.0428976 0 0.00531858)
(0.0419355 0 0.00637691)
(0.0429519 0 0.00718047)
(0.0426865 0 0.0082981)
(0.0708243 0 0.000179255)
(0.0674697 0 0.000762582)
(0.0641974 0 0.00145423)
(0.0611734 0 0.00225647)
(0.0586438 0 0.00315807)
(0.0568985 0 0.00412602)
(0.0562273 0 0.00509721)
(0.0569218 0 0.00595957)
(0.0594223 0 0.00648147)
(0.0603772 0 0.00725268)
(0.0778116 0 -0.000208141)
(0.0754852 0 0.000371117)
(0.0733809 0 0.00104366)
(0.07166 0 0.00180328)
(0.0705443 0 0.00262682)
(0.0703127 0 0.0034612)
(0.0712242 0 0.00422307)
(0.0734592 0 0.00479771)
(0.0772096 0 0.00499382)
(0.079105 0 0.00542078)
(0.085736 0 -0.00078238)
(0.0845328 0 -0.00025282)
(0.0836919 0 0.000345835)
(0.0833726 0 0.000997239)
(0.0837439 0 0.00166895)
(0.0850332 0 0.00229649)
(0.0874414 0 0.00278786)
(0.0910258 0 0.00304029)
(0.0957454 0 0.00292232)
(0.0983204 0 0.00303158)
(0.0944231 0 -0.00154175)
(0.0944186 0 -0.00110424)
(0.0948998 0 -0.000626772)
(0.0960109 0 -0.000134494)
(0.097884 0 0.00033281)
(0.100666 0 0.000708782)
(0.104449 0 0.000907283)
(0.109168 0 0.000847807)
(0.114586 0 0.000463201)
(0.117611 0 0.000315261)
(0.103668 0 -0.00247367)
(0.104909 0 -0.002165)
(0.106735 0 -0.00184685)
(0.109271 0 -0.00155003)
(0.112615 0 -0.00131757)
(0.116822 0 -0.00120972)
(0.121847 0 -0.00129498)
(0.127502 0 -0.00162502)
(0.133399 0 -0.0022106)
(0.136692 0 -0.00254708)
(0.113259 0 -0.00355806)
(0.115745 0 -0.00340622)
(0.118898 0 -0.0032745)
(0.122821 0 -0.00319553)
(0.127571 0 -0.00320962)
(0.133108 0 -0.00336367)
(0.139258 0 -0.00370148)
(0.145707 0 -0.00424368)
(0.151947 0 -0.00496045)
(0.155409 0 -0.00541656)
(0.122966 0 -0.00476706)
(0.126646 0 -0.00479033)
(0.131061 0 -0.0048608)
(0.136288 0 -0.00500898)
(0.142345 0 -0.00526732)
(0.149112 0 -0.00566383)
(0.156305 0 -0.00621325)
(0.163494 0 -0.00690552)
(0.170053 0 -0.00768928)
(0.173726 0 -0.0081953)
(0.132538 0 -0.00606536)
(0.137316 0 -0.00627289)
(0.142873 0 -0.00655077)
(0.14927 0 -0.00692524)
(0.156493 0 -0.00741778)
(0.164374 0 -0.00803484)
(0.172559 0 -0.00875975)
(0.180528 0 -0.00955059)
(0.187514 0 -0.0103495)
(0.191702 0 -0.0108421)
(0.141734 0 -0.00741446)
(0.147459 0 -0.00780516)
(0.15398 0 -0.00828578)
(0.161347 0 -0.00887792)
(0.16953 0 -0.00959258)
(0.178348 0 -0.0104169)
(0.18744 0 -0.0113041)
(0.196264 0 -0.0121735)
(0.203908 0 -0.0129563)
(0.209451 0 -0.0133549)
(0.150328 0 -0.00877359)
(0.156798 0 -0.00933597)
(0.164048 0 -0.0100049)
(0.172111 0 -0.0107985)
(0.180946 0 -0.0117222)
(0.190383 0 -0.0127549)
(0.200104 0 -0.0138343)
(0.209649 0 -0.0148382)
(0.218123 0 -0.0156268)
(0.227064 0 -0.0157595)
(0.158181 0 -0.0101117)
(0.165168 0 -0.0108272)
(0.17287 0 -0.0116611)
(0.18129 0 -0.01263)
(0.190361 0 -0.013741)
(0.199901 0 -0.014984)
(0.209605 0 -0.0163339)
(0.219047 0 -0.0177593)
(0.227581 0 -0.019323)
(0.2447 0 -0.0181374)
(0.053907 0 0)
(0.0479551 0 0)
(0.0416871 0 0)
(0.0351991 0 0)
(0.0286201 0 0)
(0.0221206 0 0)
(0.0159485 0 0)
(0.0104959 0 0)
(0.0065371 0 0)
(0 0 0)
(0.0546131 0 0.000209307)
(0.0487762 0 0.000378479)
(0.0426448 0 0.000586857)
(0.0363168 0 0.000842477)
(0.0299294 0 0.00115456)
(0.0236645 0 0.00153387)
(0.0177868 0 0.00199201)
(0.0127284 0 0.00253119)
(0.00929111 0 0.00309678)
(0.00437919 0 0.00410025)
(0.0567079 0 0.000372371)
(0.0512019 0 0.000696681)
(0.0454637 0 0.00109482)
(0.0396063 0 0.00157951)
(0.0337854 0 0.0021642)
(0.0282069 0 0.00286293)
(0.0231599 0 0.00368532)
(0.019135 0 0.00461325)
(0.0169715 0 0.00551685)
(0.0135469 0 0.00692626)
(0.0601575 0 0.000445421)
(0.0551806 0 0.000897136)
(0.0500616 0 0.00144716)
(0.0449433 0 0.0021086)
(0.0400085 0 0.00289267)
(0.0354946 0 0.00380563)
(0.0317026 0 0.00483922)
(0.0291065 0 0.00593725)
(0.0285128 0 0.00689922)
(0.0267565 0 0.00828573)
(0.0648998 0 0.000390524)
(0.0606465 0 0.000930736)
(0.0563543 0 0.0015812)
(0.0521892 0 0.00235088)
(0.0483721 0 0.00324183)
(0.0451734 0 0.00424297)
(0.0428976 0 0.00531858)
(0.0419355 0 0.00637691)
(0.0429519 0 0.00718047)
(0.0426865 0 0.0082981)
(0.0708243 0 0.000179255)
(0.0674697 0 0.000762582)
(0.0641974 0 0.00145423)
(0.0611734 0 0.00225647)
(0.0586438 0 0.00315807)
(0.0568985 0 0.00412602)
(0.0562273 0 0.00509721)
(0.0569218 0 0.00595957)
(0.0594223 0 0.00648147)
(0.0603772 0 0.00725268)
(0.0778116 0 -0.000208141)
(0.0754852 0 0.000371117)
(0.0733809 0 0.00104366)
(0.07166 0 0.00180328)
(0.0705443 0 0.00262682)
(0.0703127 0 0.0034612)
(0.0712242 0 0.00422307)
(0.0734592 0 0.00479771)
(0.0772096 0 0.00499382)
(0.079105 0 0.00542078)
(0.085736 0 -0.00078238)
(0.0845328 0 -0.00025282)
(0.0836919 0 0.000345835)
(0.0833726 0 0.000997239)
(0.0837439 0 0.00166895)
(0.0850332 0 0.00229649)
(0.0874414 0 0.00278786)
(0.0910258 0 0.00304029)
(0.0957454 0 0.00292232)
(0.0983204 0 0.00303158)
(0.0944231 0 -0.00154175)
(0.0944186 0 -0.00110424)
(0.0948998 0 -0.000626772)
(0.0960109 0 -0.000134494)
(0.097884 0 0.00033281)
(0.100666 0 0.000708782)
(0.104449 0 0.000907283)
(0.109168 0 0.000847807)
(0.114586 0 0.000463201)
(0.117611 0 0.000315261)
(0.103668 0 -0.00247367)
(0.104909 0 -0.002165)
(0.106735 0 -0.00184685)
(0.109271 0 -0.00155003)
(0.112615 0 -0.00131757)
(0.116822 0 -0.00120972)
(0.121847 0 -0.00129498)
(0.127502 0 -0.00162502)
(0.133399 0 -0.0022106)
(0.136692 0 -0.00254708)
(0.113259 0 -0.00355806)
(0.115745 0 -0.00340622)
(0.118898 0 -0.0032745)
(0.122821 0 -0.00319553)
(0.127571 0 -0.00320962)
(0.133108 0 -0.00336367)
(0.139258 0 -0.00370148)
(0.145707 0 -0.00424368)
(0.151947 0 -0.00496045)
(0.155409 0 -0.00541656)
(0.122966 0 -0.00476706)
(0.126646 0 -0.00479033)
(0.131061 0 -0.0048608)
(0.136288 0 -0.00500898)
(0.142345 0 -0.00526732)
(0.149112 0 -0.00566383)
(0.156305 0 -0.00621325)
(0.163494 0 -0.00690552)
(0.170053 0 -0.00768928)
(0.173726 0 -0.0081953)
(0.132538 0 -0.00606536)
(0.137316 0 -0.00627289)
(0.142873 0 -0.00655077)
(0.14927 0 -0.00692524)
(0.156493 0 -0.00741778)
(0.164374 0 -0.00803484)
(0.172559 0 -0.00875975)
(0.180528 0 -0.00955059)
(0.187514 0 -0.0103495)
(0.191702 0 -0.0108421)
(0.141734 0 -0.00741446)
(0.147459 0 -0.00780516)
(0.15398 0 -0.00828578)
(0.161347 0 -0.00887792)
(0.16953 0 -0.00959258)
(0.178348 0 -0.0104169)
(0.18744 0 -0.0113041)
(0.196264 0 -0.0121735)
(0.203908 0 -0.0129563)
(0.209451 0 -0.0133549)
(0.150328 0 -0.00877359)
(0.156798 0 -0.00933597)
(0.164048 0 -0.0100049)
(0.172111 0 -0.0107985)
(0.180946 0 -0.0117222)
(0.190383 0 -0.0127549)
(0.200104 0 -0.0138343)
(0.209649 0 -0.0148382)
(0.218123 0 -0.0156268)
(0.227064 0 -0.0157595)
(0.158181 0 -0.0101117)
(0.165168 0 -0.0108272)
(0.17287 0 -0.0116611)
(0.18129 0 -0.01263)
(0.190361 0 -0.013741)
(0.199901 0 -0.014984)
(0.209605 0 -0.0163339)
(0.219047 0 -0.0177593)
(0.227581 0 -0.019323)
(0.2447 0 -0.0181374)
(0 0 0)
(0.00914258 0 0)
(0.0170035 0 0)
(0.0283987 0 0)
(0.0418416 0 0)
(0.0559869 0 0)
(0.0698819 0 0)
(0.0828525 0 0)
(0.094483 0 0)
(0.104622 0 0)
(0.113239 0 0)
(0.00389334 0 -0.00456455)
(0.0117803 0 -0.00437621)
(0.0195972 0 -0.00452842)
(0.0308262 0 -0.00459172)
(0.0440101 0 -0.00458297)
(0.057871 0 -0.00450676)
(0.0714969 0 -0.00438115)
(0.0842173 0 -0.00421233)
(0.095627 0 -0.00401222)
(0.10558 0 -0.00380015)
(0.114035 0 -0.00358033)
(0.0122232 0 -0.00863177)
(0.0192517 0 -0.00854132)
(0.0270052 0 -0.00884696)
(0.0377797 0 -0.00897911)
(0.0502523 0 -0.00895891)
(0.06334 0 -0.00881519)
(0.0762057 0 -0.00857612)
(0.0882035 0 -0.00825221)
(0.0989798 0 -0.0078704)
(0.108389 0 -0.00746124)
(0.116365 0 -0.00703089)
(0.0245072 0 -0.0123783)
(0.0306217 0 -0.0124208)
(0.0382923 0 -0.0128563)
(0.0484024 0 -0.0130515)
(0.0598681 0 -0.0130278)
(0.0718394 0 -0.0128305)
(0.0835628 0 -0.0124908)
(0.0944714 0 -0.0120302)
(0.104282 0 -0.0114908)
(0.112837 0 -0.0109033)
(0.120066 0 -0.0102828)
(0.0396205 0 -0.0159094)
(0.0449441 0 -0.0160483)
(0.0524461 0 -0.0165625)
(0.0617645 0 -0.016797)
(0.0720674 0 -0.0167708)
(0.0826977 0 -0.0165246)
(0.0930259 0 -0.0160957)
(0.102602 0 -0.0155185)
(0.111194 0 -0.0148391)
(0.118657 0 -0.0140941)
(0.124941 0 -0.0133101)
(0.0567011 0 -0.0192885)
(0.0613389 0 -0.0194563)
(0.0685677 0 -0.0199976)
(0.0770215 0 -0.0202399)
(0.0860863 0 -0.0201972)
(0.0952588 0 -0.0198985)
(0.104057 0 -0.0193877)
(0.112148 0 -0.0187078)
(0.119348 0 -0.0179029)
(0.125561 0 -0.0170209)
(0.130756 0 -0.0160972)
(0.0750418 0 -0.0225059)
(0.0790733 0 -0.0226551)
(0.0859217 0 -0.0231822)
(0.0934685 0 -0.0234029)
(0.101268 0 -0.0233247)
(0.108939 0 -0.0229659)
(0.116144 0 -0.0223732)
(0.122665 0 -0.0215967)
(0.128382 0 -0.0206807)
(0.133252 0 -0.0196792)
(0.137261 0 -0.018634)
(0.0940774 0 -0.0255144)
(0.0975613 0 -0.0256397)
(0.103937 0 -0.0261274)
(0.11055 0 -0.0263043)
(0.117076 0 -0.0261703)
(0.123231 0 -0.0257378)
(0.128819 0 -0.0250573)
(0.133739 0 -0.024186)
(0.137943 0 -0.0231714)
(0.141428 0 -0.022066)
(0.144201 0 -0.0209151)
(0.113353 0 -0.0283016)
(0.116354 0 -0.0284096)
(0.122186 0 -0.0288453)
(0.127841 0 -0.0289598)
(0.133072 0 -0.0287467)
(0.1377 0 -0.0282214)
(0.141666 0 -0.0274424)
(0.144989 0 -0.0264751)
(0.147687 0 -0.0253702)
(0.149787 0 -0.0241755)
(0.151324 0 -0.0229365)
(0.132529 0 -0.0308679)
(0.135128 0 -0.0309791)
(0.140361 0 -0.0313537)
(0.145004 0 -0.031381)
(0.148888 0 -0.0310574)
(0.151957 0 -0.0304141)
(0.154306 0 -0.0295242)
(0.156061 0 -0.0284605)
(0.157294 0 -0.0272737)
(0.158058 0 -0.0260054)
(0.158406 0 -0.0246974)
(0.151395 0 -0.0332479)
(0.153675 0 -0.0333788)
(0.158225 0 -0.0336706)
(0.161737 0 -0.0335665)
(0.16417 0 -0.0330893)
(0.165638 0 -0.0323013)
(0.166386 0 -0.0312908)
(0.166629 0 -0.0301345)
(0.166477 0 -0.0288787)
(0.165999 0 -0.0275562)
(0.165239 0 -0.0261998)
(0.169868 0 -0.0355111)
(0.171858 0 -0.0356424)
(0.175542 0 -0.0357931)
(0.177692 0 -0.0354833)
(0.178521 0 -0.0348014)
(0.17836 0 -0.0338498)
(0.17756 0 -0.0327216)
(0.176385 0 -0.0314864)
(0.174972 0 -0.0301811)
(0.17338 0 -0.0288267)
(0.171628 0 -0.0274446)
(0.187975 0 -0.0377285)
(0.189511 0 -0.0377687)
(0.191935 0 -0.0376572)
(0.192372 0 -0.0370425)
(0.191448 0 -0.0361182)
(0.189687 0 -0.0350089)
(0.187466 0 -0.033789)
(0.185043 0 -0.0325055)
(0.182546 0 -0.0311794)
(0.180007 0 -0.0298197)
(0.177416 0 -0.0284373)
(0.205809 0 -0.0399647)
(0.206149 0 -0.0396349)
(0.206656 0 -0.039071)
(0.205035 0 -0.0380794)
(0.202358 0 -0.0369366)
(0.199179 0 -0.0357261)
(0.195796 0 -0.0344734)
(0.192391 0 -0.0331907)
(0.189048 0 -0.0318819)
(0.185767 0 -0.0305474)
(0.182517 0 -0.0291916)
(0.223466 0 -0.0422545)
(0.220308 0 -0.0407825)
(0.218426 0 -0.0396322)
(0.214835 0 -0.0383707)
(0.210759 0 -0.0371618)
(0.20657 0 -0.035974)
(0.202413 0 -0.0347771)
(0.198364 0 -0.0335575)
(0.194447 0 -0.0323098)
(0.190643 0 -0.0310324)
(0.186911 0 -0.0297279)
(0.241122 0 -0.0445996)
(0.229486 0 -0.0390818)
(0.225812 0 -0.0385162)
(0.221266 0 -0.0376823)
(0.21659 0 -0.0367607)
(0.211963 0 -0.0357769)
(0.207451 0 -0.0347357)
(0.203077 0 -0.0336411)
(0.198837 0 -0.0324963)
(0.194706 0 -0.0313052)
(0.190644 0 -0.0300735)
(0 0 0)
(0.00914258 0 0)
(0.0170035 0 0)
(0.0283987 0 0)
(0.0418416 0 0)
(0.0559869 0 0)
(0.0698819 0 0)
(0.0828525 0 0)
(0.094483 0 0)
(0.104622 0 0)
(0.113239 0 0)
(0.00389334 0 -0.00456455)
(0.0117803 0 -0.00437621)
(0.0195972 0 -0.00452842)
(0.0308262 0 -0.00459172)
(0.0440101 0 -0.00458297)
(0.057871 0 -0.00450676)
(0.0714969 0 -0.00438115)
(0.0842173 0 -0.00421233)
(0.095627 0 -0.00401222)
(0.10558 0 -0.00380015)
(0.114035 0 -0.00358033)
(0.0122232 0 -0.00863177)
(0.0192517 0 -0.00854132)
(0.0270052 0 -0.00884696)
(0.0377797 0 -0.00897911)
(0.0502523 0 -0.00895891)
(0.06334 0 -0.00881519)
(0.0762057 0 -0.00857612)
(0.0882035 0 -0.00825221)
(0.0989798 0 -0.0078704)
(0.108389 0 -0.00746124)
(0.116365 0 -0.00703089)
(0.0245072 0 -0.0123783)
(0.0306217 0 -0.0124208)
(0.0382923 0 -0.0128563)
(0.0484024 0 -0.0130515)
(0.0598681 0 -0.0130278)
(0.0718394 0 -0.0128305)
(0.0835628 0 -0.0124908)
(0.0944714 0 -0.0120302)
(0.104282 0 -0.0114908)
(0.112837 0 -0.0109033)
(0.120066 0 -0.0102828)
(0.0396205 0 -0.0159094)
(0.0449441 0 -0.0160483)
(0.0524461 0 -0.0165625)
(0.0617645 0 -0.016797)
(0.0720674 0 -0.0167708)
(0.0826977 0 -0.0165246)
(0.0930259 0 -0.0160957)
(0.102602 0 -0.0155185)
(0.111194 0 -0.0148391)
(0.118657 0 -0.0140941)
(0.124941 0 -0.0133101)
(0.0567011 0 -0.0192885)
(0.0613389 0 -0.0194563)
(0.0685677 0 -0.0199976)
(0.0770215 0 -0.0202399)
(0.0860863 0 -0.0201972)
(0.0952588 0 -0.0198985)
(0.104057 0 -0.0193877)
(0.112148 0 -0.0187078)
(0.119348 0 -0.0179029)
(0.125561 0 -0.0170209)
(0.130756 0 -0.0160972)
(0.0750418 0 -0.0225059)
(0.0790733 0 -0.0226551)
(0.0859217 0 -0.0231822)
(0.0934685 0 -0.0234029)
(0.101268 0 -0.0233247)
(0.108939 0 -0.0229659)
(0.116144 0 -0.0223732)
(0.122665 0 -0.0215967)
(0.128382 0 -0.0206807)
(0.133252 0 -0.0196792)
(0.137261 0 -0.018634)
(0.0940774 0 -0.0255144)
(0.0975613 0 -0.0256397)
(0.103937 0 -0.0261274)
(0.11055 0 -0.0263043)
(0.117076 0 -0.0261703)
(0.123231 0 -0.0257378)
(0.128819 0 -0.0250573)
(0.133739 0 -0.024186)
(0.137943 0 -0.0231714)
(0.141428 0 -0.022066)
(0.144201 0 -0.0209151)
(0.113353 0 -0.0283016)
(0.116354 0 -0.0284096)
(0.122186 0 -0.0288453)
(0.127841 0 -0.0289598)
(0.133072 0 -0.0287467)
(0.1377 0 -0.0282214)
(0.141666 0 -0.0274424)
(0.144989 0 -0.0264751)
(0.147687 0 -0.0253702)
(0.149787 0 -0.0241755)
(0.151324 0 -0.0229365)
(0.132529 0 -0.0308679)
(0.135128 0 -0.0309791)
(0.140361 0 -0.0313537)
(0.145004 0 -0.031381)
(0.148888 0 -0.0310574)
(0.151957 0 -0.0304141)
(0.154306 0 -0.0295242)
(0.156061 0 -0.0284605)
(0.157294 0 -0.0272737)
(0.158058 0 -0.0260054)
(0.158406 0 -0.0246974)
(0.151395 0 -0.0332479)
(0.153675 0 -0.0333788)
(0.158225 0 -0.0336706)
(0.161737 0 -0.0335665)
(0.16417 0 -0.0330893)
(0.165638 0 -0.0323013)
(0.166386 0 -0.0312908)
(0.166629 0 -0.0301345)
(0.166477 0 -0.0288787)
(0.165999 0 -0.0275562)
(0.165239 0 -0.0261998)
(0.169868 0 -0.0355111)
(0.171858 0 -0.0356424)
(0.175542 0 -0.0357931)
(0.177692 0 -0.0354833)
(0.178521 0 -0.0348014)
(0.17836 0 -0.0338498)
(0.17756 0 -0.0327216)
(0.176385 0 -0.0314864)
(0.174972 0 -0.0301811)
(0.17338 0 -0.0288267)
(0.171628 0 -0.0274446)
(0.187975 0 -0.0377285)
(0.189511 0 -0.0377687)
(0.191935 0 -0.0376572)
(0.192372 0 -0.0370425)
(0.191448 0 -0.0361182)
(0.189687 0 -0.0350089)
(0.187466 0 -0.033789)
(0.185043 0 -0.0325055)
(0.182546 0 -0.0311794)
(0.180007 0 -0.0298197)
(0.177416 0 -0.0284373)
(0.205809 0 -0.0399647)
(0.206149 0 -0.0396349)
(0.206656 0 -0.039071)
(0.205035 0 -0.0380794)
(0.202358 0 -0.0369366)
(0.199179 0 -0.0357261)
(0.195796 0 -0.0344734)
(0.192391 0 -0.0331907)
(0.189048 0 -0.0318819)
(0.185767 0 -0.0305474)
(0.182517 0 -0.0291916)
(0.223466 0 -0.0422545)
(0.220308 0 -0.0407825)
(0.218426 0 -0.0396322)
(0.214835 0 -0.0383707)
(0.210759 0 -0.0371618)
(0.20657 0 -0.035974)
(0.202413 0 -0.0347771)
(0.198364 0 -0.0335575)
(0.194447 0 -0.0323098)
(0.190643 0 -0.0310324)
(0.186911 0 -0.0297279)
(0.241122 0 -0.0445996)
(0.229486 0 -0.0390818)
(0.225812 0 -0.0385162)
(0.221266 0 -0.0376823)
(0.21659 0 -0.0367607)
(0.211963 0 -0.0357769)
(0.207451 0 -0.0347357)
(0.203077 0 -0.0336411)
(0.198837 0 -0.0324963)
(0.194706 0 -0.0313052)
(0.190644 0 -0.0300735)
(0.165219 0 -0.0114067)
(0.17248 0 -0.0122495)
(0.180331 0 -0.0132141)
(0.18873 0 -0.0143156)
(0.19756 0 -0.0155628)
(0.206589 0 -0.0169589)
(0.215479 0 -0.0185203)
(0.223788 0 -0.0203192)
(0.231019 0 -0.0225772)
(0.23645 0 -0.0254565)
(0.171289 0 -0.012618)
(0.178574 0 -0.0135538)
(0.186282 0 -0.0146054)
(0.194324 0 -0.0157834)
(0.202534 0 -0.0170941)
(0.210653 0 -0.0185424)
(0.218346 0 -0.0201454)
(0.22522 0 -0.0219477)
(0.230835 0 -0.02403)
(0.234453 0 -0.0262746)
(0.176287 0 -0.0137087)
(0.183394 0 -0.0147024)
(0.190746 0 -0.0157989)
(0.198226 0 -0.0170038)
(0.205654 0 -0.0183203)
(0.212788 0 -0.0197511)
(0.219334 0 -0.0213028)
(0.224967 0 -0.0229878)
(0.229366 0 -0.0248368)
(0.231991 0 -0.0266647)
(0.18025 0 -0.0146649)
(0.187045 0 -0.0156874)
(0.193926 0 -0.0167965)
(0.20077 0 -0.0179945)
(0.20741 0 -0.0192817)
(0.213625 0 -0.0206536)
(0.219173 0 -0.0221047)
(0.223819 0 -0.0236332)
(0.227356 0 -0.025248)
(0.229425 0 -0.0267489)
(0.189692 0 -0.0165152)
(0.19606 0 -0.0176143)
(0.202269 0 -0.0187826)
(0.208167 0 -0.0200156)
(0.213567 0 -0.0213027)
(0.218289 0 -0.0226343)
(0.222178 0 -0.0240042)
(0.225107 0 -0.0254068)
(0.226831 0 -0.0266548)
(0.202956 0 -0.0193902)
(0.208179 0 -0.0205523)
(0.212882 0 -0.0217442)
(0.21694 0 -0.022956)
(0.220251 0 -0.0241779)
(0.222739 0 -0.0253968)
(0.224229 0 -0.0264493)
(0.211759 0 -0.0220176)
(0.215284 0 -0.023116)
(0.218147 0 -0.0242044)
(0.220304 0 -0.025268)
(0.221619 0 -0.0261678)
(0.215918 0 -0.0241169)
(0.217818 0 -0.0250502)
(0.218997 0 -0.0258286)
(0.165219 0 -0.0114067)
(0.17248 0 -0.0122495)
(0.180331 0 -0.0132141)
(0.18873 0 -0.0143156)
(0.19756 0 -0.0155628)
(0.206589 0 -0.0169589)
(0.215479 0 -0.0185203)
(0.223788 0 -0.0203192)
(0.231019 0 -0.0225772)
(0.23645 0 -0.0254565)
(0.171289 0 -0.012618)
(0.178574 0 -0.0135538)
(0.186282 0 -0.0146054)
(0.194324 0 -0.0157834)
(0.202534 0 -0.0170941)
(0.210653 0 -0.0185424)
(0.218346 0 -0.0201454)
(0.22522 0 -0.0219477)
(0.230835 0 -0.02403)
(0.234453 0 -0.0262746)
(0.176287 0 -0.0137087)
(0.183394 0 -0.0147024)
(0.190746 0 -0.0157989)
(0.198226 0 -0.0170038)
(0.205654 0 -0.0183203)
(0.212788 0 -0.0197511)
(0.219334 0 -0.0213028)
(0.224967 0 -0.0229878)
(0.229366 0 -0.0248368)
(0.231991 0 -0.0266647)
(0.18025 0 -0.0146649)
(0.187045 0 -0.0156874)
(0.193926 0 -0.0167965)
(0.20077 0 -0.0179945)
(0.20741 0 -0.0192817)
(0.213625 0 -0.0206536)
(0.219173 0 -0.0221047)
(0.223819 0 -0.0236332)
(0.227356 0 -0.025248)
(0.229425 0 -0.0267489)
(0.189692 0 -0.0165152)
(0.19606 0 -0.0176143)
(0.202269 0 -0.0187826)
(0.208167 0 -0.0200156)
(0.213567 0 -0.0213027)
(0.218289 0 -0.0226343)
(0.222178 0 -0.0240042)
(0.225107 0 -0.0254068)
(0.226831 0 -0.0266548)
(0.202956 0 -0.0193902)
(0.208179 0 -0.0205523)
(0.212882 0 -0.0217442)
(0.21694 0 -0.022956)
(0.220251 0 -0.0241779)
(0.222739 0 -0.0253968)
(0.224229 0 -0.0264493)
(0.211759 0 -0.0220176)
(0.215284 0 -0.023116)
(0.218147 0 -0.0242044)
(0.220304 0 -0.025268)
(0.221619 0 -0.0261678)
(0.215918 0 -0.0241169)
(0.217818 0 -0.0250502)
(0.218997 0 -0.0258286)
(0.243541 0 -0.0270144)
(0.242363 0 -0.0357292)
(0.238719 0 -0.0284274)
(0.238459 0 -0.0313194)
(0.236359 0 -0.0340826)
(0.235856 0 -0.0282493)
(0.235926 0 -0.030007)
(0.234964 0 -0.0319911)
(0.232983 0 -0.028098)
(0.233199 0 -0.0292794)
(0.232821 0 -0.0306902)
(0.230234 0 -0.0278482)
(0.230507 0 -0.0287214)
(0.230406 0 -0.0297698)
(0.227545 0 -0.0275324)
(0.227841 0 -0.0282166)
(0.227883 0 -0.0290355)
(0.224879 0 -0.0271715)
(0.225184 0 -0.027729)
(0.225303 0 -0.0283935)
(0.222219 0 -0.0267759)
(0.222523 0 -0.0272425)
(0.222689 0 -0.0277969)
(0.219553 0 -0.0263493)
(0.219851 0 -0.0267471)
(0.220041 0 -0.0272188)
(0.216871 0 -0.0258926)
(0.217157 0 -0.0262366)
(0.217359 0 -0.0266438)
(0.243541 0 -0.0270144)
(0.242363 0 -0.0357292)
(0.238719 0 -0.0284274)
(0.238459 0 -0.0313194)
(0.236359 0 -0.0340826)
(0.235856 0 -0.0282493)
(0.235926 0 -0.030007)
(0.234964 0 -0.0319911)
(0.232983 0 -0.028098)
(0.233199 0 -0.0292794)
(0.232821 0 -0.0306902)
(0.230234 0 -0.0278482)
(0.230507 0 -0.0287214)
(0.230406 0 -0.0297698)
(0.227545 0 -0.0275324)
(0.227841 0 -0.0282166)
(0.227883 0 -0.0290355)
(0.224879 0 -0.0271715)
(0.225184 0 -0.027729)
(0.225303 0 -0.0283935)
(0.222219 0 -0.0267759)
(0.222523 0 -0.0272425)
(0.222689 0 -0.0277969)
(0.219553 0 -0.0263493)
(0.219851 0 -0.0267471)
(0.220041 0 -0.0272188)
(0.216871 0 -0.0258926)
(0.217157 0 -0.0262366)
(0.217359 0 -0.0266438)
(0.232843 0 -0.0358901)
(0.228968 0 -0.0364738)
(0.224686 0 -0.0363801)
(0.220203 0 -0.0359188)
(0.215662 0 -0.0352398)
(0.211146 0 -0.0344168)
(0.206701 0 -0.0334883)
(0.202336 0 -0.0324755)
(0.198038 0 -0.0313927)
(0.232739 0 -0.033799)
(0.229632 0 -0.0347541)
(0.22604 0 -0.035039)
(0.222087 0 -0.0349113)
(0.217917 0 -0.0345047)
(0.213636 0 -0.0338999)
(0.209313 0 -0.0331471)
(0.204983 0 -0.0322785)
(0.200654 0 -0.0313163)
(0.23144 0 -0.0322236)
(0.229074 0 -0.0332822)
(0.226124 0 -0.0337735)
(0.222732 0 -0.0338683)
(0.219018 0 -0.0336723)
(0.215083 0 -0.0332555)
(0.211002 0 -0.0326665)
(0.206824 0 -0.0319396)
(0.202567 0 -0.0311)
(0.229551 0 -0.031021)
(0.227792 0 -0.032032)
(0.225401 0 -0.0326123)
(0.22252 0 -0.0328449)
(0.219256 0 -0.0328014)
(0.215696 0 -0.0325356)
(0.211909 0 -0.0320883)
(0.207944 0 -0.0314912)
(0.203831 0 -0.0307684)
(0.227358 0 -0.03006)
(0.226053 0 -0.0309673)
(0.224126 0 -0.0315607)
(0.221692 0 -0.0318672)
(0.218839 0 -0.0319266)
(0.215642 0 -0.0317754)
(0.212161 0 -0.0314448)
(0.20844 0 -0.0309605)
(0.204509 0 -0.030344)
(0.224992 0 -0.0292442)
(0.224019 0 -0.0300397)
(0.222462 0 -0.0306067)
(0.220405 0 -0.0309429)
(0.217916 0 -0.031066)
(0.215053 0 -0.0309976)
(0.211867 0 -0.0307588)
(0.208396 0 -0.0303692)
(0.204666 0 -0.0298459)
(0.222518 0 -0.0285141)
(0.221784 0 -0.0292071)
(0.220517 0 -0.0297301)
(0.21877 0 -0.0300685)
(0.216592 0 -0.0302267)
(0.214028 0 -0.0302148)
(0.211117 0 -0.0300457)
(0.207888 0 -0.0297328)
(0.204362 0 -0.029289)
(0.219963 0 -0.0278321)
(0.219402 0 -0.0284364)
(0.218358 0 -0.0289101)
(0.216863 0 -0.0292351)
(0.214948 0 -0.0294084)
(0.212645 0 -0.0294328)
(0.20998 0 -0.0293147)
(0.206977 0 -0.0290624)
(0.203651 0 -0.0286846)
(0.217341 0 -0.0271742)
(0.216906 0 -0.0277026)
(0.216035 0 -0.0281276)
(0.21474 0 -0.0284313)
(0.213043 0 -0.0286067)
(0.210962 0 -0.0286524)
(0.208516 0 -0.0285704)
(0.205719 0 -0.0283647)
(0.202581 0 -0.0280406)
(0.214663 0 -0.026524)
(0.214318 0 -0.0269878)
(0.213576 0 -0.027367)
(0.212442 0 -0.0276457)
(0.210923 0 -0.0278152)
(0.20903 0 -0.0278716)
(0.206773 0 -0.0278138)
(0.20416 0 -0.0276431)
(0.201194 0 -0.0273619)
(0.209995 0 -0.0268672)
(0.208622 0 -0.0270261)
(0.206886 0 -0.0270859)
(0.204792 0 -0.0270437)
(0.20234 0 -0.0268986)
(0.199529 0 -0.0266511)
(0.204561 0 -0.0262895)
(0.202604 0 -0.0262566)
(0.200293 0 -0.0261301)
(0.197621 0 -0.0259088)
(0.198049 0 -0.0253343)
(0.195498 0 -0.0251333)
(0.232843 0 -0.0358901)
(0.228968 0 -0.0364738)
(0.224686 0 -0.0363801)
(0.220203 0 -0.0359188)
(0.215662 0 -0.0352398)
(0.211146 0 -0.0344168)
(0.206701 0 -0.0334883)
(0.202336 0 -0.0324755)
(0.198038 0 -0.0313927)
(0.232739 0 -0.033799)
(0.229632 0 -0.0347541)
(0.22604 0 -0.035039)
(0.222087 0 -0.0349113)
(0.217917 0 -0.0345047)
(0.213636 0 -0.0338999)
(0.209313 0 -0.0331471)
(0.204983 0 -0.0322785)
(0.200654 0 -0.0313163)
(0.23144 0 -0.0322236)
(0.229074 0 -0.0332822)
(0.226124 0 -0.0337735)
(0.222732 0 -0.0338683)
(0.219018 0 -0.0336723)
(0.215083 0 -0.0332555)
(0.211002 0 -0.0326665)
(0.206824 0 -0.0319396)
(0.202567 0 -0.0311)
(0.229551 0 -0.031021)
(0.227792 0 -0.032032)
(0.225401 0 -0.0326123)
(0.22252 0 -0.0328449)
(0.219256 0 -0.0328014)
(0.215696 0 -0.0325356)
(0.211909 0 -0.0320883)
(0.207944 0 -0.0314912)
(0.203831 0 -0.0307684)
(0.227358 0 -0.03006)
(0.226053 0 -0.0309673)
(0.224126 0 -0.0315607)
(0.221692 0 -0.0318672)
(0.218839 0 -0.0319266)
(0.215642 0 -0.0317754)
(0.212161 0 -0.0314448)
(0.20844 0 -0.0309605)
(0.204509 0 -0.030344)
(0.224992 0 -0.0292442)
(0.224019 0 -0.0300397)
(0.222462 0 -0.0306067)
(0.220405 0 -0.0309429)
(0.217916 0 -0.031066)
(0.215053 0 -0.0309976)
(0.211867 0 -0.0307588)
(0.208396 0 -0.0303692)
(0.204666 0 -0.0298459)
(0.222518 0 -0.0285141)
(0.221784 0 -0.0292071)
(0.220517 0 -0.0297301)
(0.21877 0 -0.0300685)
(0.216592 0 -0.0302267)
(0.214028 0 -0.0302148)
(0.211117 0 -0.0300457)
(0.207888 0 -0.0297328)
(0.204362 0 -0.029289)
(0.219963 0 -0.0278321)
(0.219402 0 -0.0284364)
(0.218358 0 -0.0289101)
(0.216863 0 -0.0292351)
(0.214948 0 -0.0294084)
(0.212645 0 -0.0294328)
(0.20998 0 -0.0293147)
(0.206977 0 -0.0290624)
(0.203651 0 -0.0286846)
(0.217341 0 -0.0271742)
(0.216906 0 -0.0277026)
(0.216035 0 -0.0281276)
(0.21474 0 -0.0284313)
(0.213043 0 -0.0286067)
(0.210962 0 -0.0286524)
(0.208516 0 -0.0285704)
(0.205719 0 -0.0283647)
(0.202581 0 -0.0280406)
(0.214663 0 -0.026524)
(0.214318 0 -0.0269878)
(0.213576 0 -0.027367)
(0.212442 0 -0.0276457)
(0.210923 0 -0.0278152)
(0.20903 0 -0.0278716)
(0.206773 0 -0.0278138)
(0.20416 0 -0.0276431)
(0.201194 0 -0.0273619)
(0.209995 0 -0.0268672)
(0.208622 0 -0.0270261)
(0.206886 0 -0.0270859)
(0.204792 0 -0.0270437)
(0.20234 0 -0.0268986)
(0.199529 0 -0.0266511)
(0.204561 0 -0.0262895)
(0.202604 0 -0.0262566)
(0.200293 0 -0.0261301)
(0.197621 0 -0.0259088)
(0.198049 0 -0.0253343)
(0.195498 0 -0.0251333)
)
;

boundaryField
{
    inlet
    {
        type            fixedValue;
        value           nonuniform 0();
    }
    outlet
    {
        type            fixedValue;
        value           nonuniform 0();
    }
    flap
    {
        type            fixedValue;
        value           nonuniform List<vector> 
68
(
(0 0 0)
(0.00437919 0 0.00410025)
(0.00437919 0 0.00410025)
(0 0 0)
(0.0135469 0 0.00692626)
(0.0135469 0 0.00692626)
(0.0267565 0 0.00828573)
(0.0267565 0 0.00828573)
(0.0426865 0 0.0082981)
(0.0426865 0 0.0082981)
(0.0603772 0 0.00725268)
(0.0603772 0 0.00725268)
(0.079105 0 0.00542078)
(0.079105 0 0.00542078)
(0.0983204 0 0.00303158)
(0.0983204 0 0.00303158)
(0.117611 0 0.000315261)
(0.117611 0 0.000315261)
(0.136692 0 -0.00254708)
(0.136692 0 -0.00254708)
(0.155409 0 -0.00541656)
(0.155409 0 -0.00541656)
(0.173726 0 -0.0081953)
(0.173726 0 -0.0081953)
(0.191702 0 -0.0108421)
(0.191702 0 -0.0108421)
(0.209451 0 -0.0133549)
(0.209451 0 -0.0133549)
(0.227064 0 -0.0157595)
(0.227064 0 -0.0157595)
(0.2447 0 -0.0181374)
(0.2447 0 -0.0181374)
(0.243541 0 -0.0270144)
(0.243541 0 -0.0270144)
(0.242363 0 -0.0357292)
(0.242363 0 -0.0357292)
(0.241122 0 -0.0445996)
(0.241122 0 -0.0445996)
(0 0 0)
(0 0 0)
(0.00389334 0 -0.00456455)
(0.00389334 0 -0.00456455)
(0.0122232 0 -0.00863177)
(0.0122232 0 -0.00863177)
(0.0245072 0 -0.0123783)
(0.0245072 0 -0.0123783)
(0.0396205 0 -0.0159094)
(0.0396205 0 -0.0159094)
(0.0567011 0 -0.0192885)
(0.0567011 0 -0.0192885)
(0.0750418 0 -0.0225059)
(0.0750418 0 -0.0225059)
(0.0940774 0 -0.0255144)
(0.0940774 0 -0.0255144)
(0.113353 0 -0.0283016)
(0.113353 0 -0.0283016)
(0.132529 0 -0.0308679)
(0.132529 0 -0.0308679)
(0.151395 0 -0.0332479)
(0.151395 0 -0.0332479)
(0.169868 0 -0.0355111)
(0.169868 0 -0.0355111)
(0.187975 0 -0.0377285)
(0.187975 0 -0.0377285)
(0.205809 0 -0.0399647)
(0.205809 0 -0.0399647)
(0.223466 0 -0.0422545)
(0.223466 0 -0.0422545)
)
;
    }
    upperWall
    {
        type            slip;
    }
    lowerWall
    {
        type            slip;
    }
    frontAndBack
    {
        type            empty;
    }
    procBoundary4to1
    {
        type            processor;
    }
    procBoundary4to2
    {
        type            processor;
    }
    procBoundary4to3
    {
        type            processor;
    }
    procBoundary4to5
    {
        type            processor;
    }
}


// ************************************************************************* //
