/*--------------------------------*- C++ -*----------------------------------*\
| =========                 |                                                 |
| \\      /  F ield         | OpenFOAM: The Open Source CFD Toolbox           |
|  \\    /   O peration     | Version:  dev                                   |
|   \\  /    A nd           | Web:      www.OpenFOAM.org                      |
|    \\/     M anipulation  |                                                 |
\*---------------------------------------------------------------------------*/
FoamFile
{
    version     2.0;
    format      ascii;
    class       surfaceScalarField;
    location    "0.37";
    object      meshPhi;
}
// * * * * * * * * * * * * * * * * * * * * * * * * * * * * * * * * * * * * * //

dimensions      [0 3 -1 0 0 0 0];

internalField   nonuniform List<scalar> 
881
(
7.19304e-06
7.66629e-07
1.3205e-05
2.16634e-06
1.75169e-05
3.31797e-06
2.00329e-05
4.20967e-06
2.0817e-05
4.85781e-06
2.00498e-05
5.28327e-06
1.79969e-05
5.50745e-06
1.49794e-05
5.55021e-06
1.13467e-05
5.43633e-06
7.449e-06
5.19421e-06
3.61059e-06
4.85131e-06
1.0683e-07
4.43465e-06
-2.85306e-06
3.97013e-06
-5.13629e-06
3.48158e-06
-6.68864e-06
2.99003e-06
-7.52851e-06
2.51316e-06
-7.734e-06
2.06502e-06
-7.42521e-06
1.65577e-06
-6.74491e-06
1.29286e-06
-5.84073e-06
9.81096e-07
7.20076e-07
7.26894e-06
1.53664e-06
1.33423e-05
4.34229e-06
1.77003e-05
6.65098e-06
2.025e-05
8.43922e-06
2.10554e-05
9.73944e-06
2.02977e-05
1.05911e-05
1.82438e-05
1.10369e-05
1.52159e-05
1.11215e-05
1.15649e-05
1.08953e-05
7.64319e-06
1.04129e-05
3.77732e-06
9.72856e-06
2.45055e-07
8.89631e-06
-2.7423e-06
7.96789e-06
-5.05041e-06
6.99093e-06
-6.62411e-06
6.00744e-06
-7.48147e-06
5.05283e-06
-7.70077e-06
4.15535e-06
-7.40231e-06
3.33567e-06
-6.72836e-06
2.60804e-06
-5.82452e-06
1.98135e-06
1.4557e-06
7.36064e-06
2.31061e-06
1.35117e-05
6.52954e-06
1.79345e-05
1.00018e-05
2.05389e-05
1.26925e-05
2.13894e-05
1.46498e-05
2.06666e-05
1.59296e-05
1.86383e-05
1.65958e-05
1.5627e-05
1.67232e-05
1.19831e-05
1.63886e-05
8.05919e-06
1.56697e-05
4.18235e-06
1.46473e-05
6.31088e-07
1.34023e-05
-2.38237e-06
1.2012e-05
-4.72254e-06
1.05476e-05
-6.33292e-06
9.07214e-06
-7.23003e-06
7.63844e-06
-7.4903e-06
6.28903e-06
-7.23185e-06
5.05576e-06
-6.5947e-06
3.95958e-06
-5.72241e-06
3.01267e-06
2.21627e-06
7.46002e-06
3.08493e-06
1.37011e-05
8.71776e-06
1.82049e-05
1.33543e-05
2.08837e-05
1.69487e-05
2.18031e-05
1.95654e-05
2.11435e-05
2.1279e-05
1.91709e-05
2.21755e-05
1.62068e-05
2.2354e-05
1.25999e-05
2.19165e-05
8.70069e-06
2.09662e-05
4.83432e-06
1.96105e-05
1.27795e-06
1.79566e-05
-1.75679e-06
1.61075e-05
-4.13402e-06
1.41575e-05
-5.79566e-06
1.21902e-05
-6.75534e-06
1.02758e-05
-7.08544e-06
8.47089e-06
-6.89931e-06
6.81827e-06
-6.33279e-06
5.34682e-06
-5.52591e-06
4.0734e-06
3.00012e-06
7.58386e-06
3.85661e-06
1.3939e-05
1.08984e-05
1.85467e-05
1.6695e-05
2.13221e-05
2.11903e-05
2.23322e-05
2.44659e-05
2.17575e-05
2.66172e-05
1.98622e-05
2.77517e-05
1.69653e-05
2.79891e-05
1.34131e-05
2.74551e-05
9.55287e-06
2.628e-05
5.70666e-06
2.45978e-05
2.14917e-06
2.25418e-05
-9.09362e-07
2.02398e-05
-3.33297e-06
1.7809e-05
-5.0617e-06
1.5353e-05
-6.10543e-06
1.29592e-05
-6.53099e-06
1.06978e-05
-6.4452e-06
8.6224e-06
-5.97706e-06
6.77033e-06
-5.26004e-06
5.16435e-06
3.808e-06
7.73224e-06
4.62443e-06
1.4225e-05
1.30679e-05
1.89585e-05
2.00185e-05
2.18512e-05
2.54103e-05
2.29723e-05
2.93428e-05
2.25022e-05
3.19318e-05
2.07033e-05
3.33063e-05
1.78918e-05
3.3607e-05
1.44103e-05
3.29837e-05
1.06017e-05
3.15924e-05
6.78403e-06
2.95931e-05
3.22844e-06
2.71446e-05
1.4307e-07
2.43989e-05
-2.33635e-06
2.14955e-05
-4.14779e-06
1.85573e-05
-5.29651e-06
1.56883e-05
-5.8425e-06
1.29722e-05
-5.88413e-06
1.04733e-05
-5.54094e-06
8.23758e-06
-4.93747e-06
6.29364e-06
4.6474e-06
7.90477e-06
5.38726e-06
1.45577e-05
1.5223e-05
1.94375e-05
2.33196e-05
2.24669e-05
2.96019e-05
2.37175e-05
3.4188e-05
2.337e-05
3.72143e-05
2.1685e-05
3.88307e-05
1.89751e-05
3.92001e-05
1.55782e-05
3.84956e-05
1.18323e-05
3.68981e-05
8.04991e-06
3.4593e-05
4.4981e-06
3.17637e-05
1.38216e-06
2.85857e-05
-1.16271e-06
2.522e-05
-3.07217e-06
2.18081e-05
-4.34619e-06
1.84699e-05
-5.03659e-06
1.53023e-05
-5.23144e-06
1.23803e-05
-5.03889e-06
9.75832e-06
-4.57256e-06
7.47126e-06
5.52796e-06
8.10111e-06
6.1442e-06
1.49357e-05
1.73611e-05
1.9981e-05
2.65938e-05
2.31645e-05
3.37591e-05
2.45612e-05
3.89943e-05
2.43524e-05
4.24566e-05
2.27965e-05
4.43176e-05
2.02022e-05
4.47617e-05
1.69021e-05
4.39852e-05
1.3228e-05
4.21932e-05
9.48644e-06
3.95952e-05
5.93933e-06
3.63989e-05
2.78859e-06
3.28022e-05
1.68655e-07
2.89864e-05
-1.85376e-06
2.51113e-05
-3.27267e-06
2.13116e-05
-4.13067e-06
1.76973e-05
-4.50395e-06
1.4354e-05
-4.48745e-06
1.13444e-05
-4.18188e-06
8.70982e-06
6.46241e-06
8.32098e-06
6.89451e-06
1.5358e-05
1.94798e-05
2.05861e-05
2.98371e-05
2.39392e-05
3.78761e-05
2.54964e-05
4.37546e-05
2.54399e-05
4.76514e-05
2.40261e-05
4.97594e-05
2.15593e-05
5.02849e-05
1.8366e-05
4.94467e-05
1.47711e-05
4.74731e-05
1.10744e-05
4.45972e-05
7.53186e-06
4.10495e-05
4.34166e-06
3.70495e-05
1.63712e-06
3.27982e-05
-5.12544e-07
2.84721e-05
-2.09502e-06
2.42209e-05
-3.14278e-06
2.01665e-05
-3.7189e-06
1.64053e-05
-3.90357e-06
1.30086e-05
-3.78275e-06
1.00236e-05
7.46594e-06
8.56438e-06
7.63748e-06
1.58235e-05
2.15768e-05
2.12499e-05
3.30449e-05
2.47856e-05
4.19462e-05
2.65151e-05
4.84605e-05
2.6622e-05
5.27889e-05
2.53609e-05
5.51461e-05
2.3031e-05
5.57601e-05
1.99524e-05
5.48714e-05
1.64423e-05
5.27305e-05
1.2793e-05
4.95931e-05
9.25412e-06
4.57115e-05
6.01948e-06
4.13258e-05
3.22116e-06
3.66554e-05
9.30836e-07
3.18932e-05
-8.32572e-07
2.72023e-05
-2.09091e-06
2.27167e-05
-2.89309e-06
1.85433e-05
-3.30345e-06
1.47624e-05
-3.39182e-06
1.14268e-05
8.55459e-06
8.83168e-06
8.37245e-06
1.63317e-05
2.36496e-05
2.19693e-05
3.62121e-05
2.56977e-05
4.5961e-05
2.76085e-05
5.31011e-05
2.78874e-05
5.78568e-05
2.67868e-05
6.04649e-05
2.4601e-05
6.11744e-05
2.16428e-05
6.02469e-05
1.82211e-05
5.79543e-05
1.46204e-05
5.45733e-05
1.10834e-05
5.03772e-05
7.7992e-06
4.56254e-05
4.89853e-06
4.05547e-05
2.45543e-06
3.53733e-05
4.95489e-07
3.02572e-05
-9.92418e-07
2.53511e-05
-2.04237e-06
2.07718e-05
-2.70185e-06
1.66098e-05
-3.02369e-06
1.29254e-05
9.73777e-06
9.12395e-06
9.0985e-06
1.68822e-05
2.56945e-05
2.27406e-05
3.93304e-05
2.66685e-05
4.99078e-05
2.87663e-05
5.76599e-05
2.92224e-05
6.28357e-05
2.82874e-05
6.56943e-05
2.62502e-05
6.65057e-05
2.34157e-05
6.55514e-05
2.00843e-05
6.31234e-05
1.6532e-05
5.95183e-05
1.29944e-05
5.50287e-05
9.65578e-06
4.99325e-05
6.64525e-06
4.4483e-05
4.0392e-06
3.89022e-05
1.8698e-06
3.33787e-05
1.36601e-07
2.80675e-05
-1.18025e-06
2.30938e-05
-2.11064e-06
1.85571e-05
-2.6894e-06
1.45275e-05
1.10264e-05
9.44343e-06
9.81569e-06
1.74764e-05
2.77104e-05
2.35609e-05
4.23947e-05
2.76913e-05
5.37763e-05
2.99785e-05
6.21232e-05
3.06143e-05
6.77099e-05
2.98474e-05
7.08178e-05
2.79608e-05
7.17374e-05
2.52515e-05
7.07693e-05
2.20107e-05
6.82237e-05
1.85056e-05
6.44158e-05
1.49647e-05
5.96565e-05
1.15673e-05
5.42406e-05
8.44089e-06
4.84365e-05
5.66407e-06
4.24798e-05
3.2755e-06
3.65703e-05
1.2852e-06
3.08737e-05
-3.13367e-07
2.55238e-05
-1.5336e-06
2.0627e-05
-2.3921e-06
1.62616e-05
1.24519e-05
9.79424e-06
1.05264e-05
1.81179e-05
2.97025e-05
2.44286e-05
4.54085e-05
2.87614e-05
5.75672e-05
3.12381e-05
6.64905e-05
3.2054e-05
7.24785e-05
3.14561e-05
7.58353e-05
2.97216e-05
7.68714e-05
2.71384e-05
7.5905e-05
2.39883e-05
7.32627e-05
2.05296e-05
6.92767e-05
1.69835e-05
6.42748e-05
1.35246e-05
5.85674e-05
1.02785e-05
5.24369e-05
7.32599e-06
4.6131e-05
4.7119e-06
3.98604e-05
2.45605e-06
3.38001e-05
5.64651e-07
2.80927e-05
-9.61021e-07
2.28508e-05
-2.12099e-06
1.81567e-05
1.40363e-05
1.0142e-05
1.87899e-05
2.53522e-05
4.83764e-05
2.98834e-05
6.13193e-05
3.25491e-05
7.08009e-05
3.35456e-05
7.71827e-05
3.31181e-05
8.07892e-05
3.15376e-05
8.19513e-05
2.90822e-05
8.10032e-05
2.60234e-05
7.8285e-05
2.2611e-05
7.41446e-05
1.90588e-05
6.89258e-05
1.55366e-05
6.29531e-05
1.21685e-05
5.65217e-05
9.03722e-06
4.98903e-05
6.19325e-06
4.32794e-05
3.66546e-06
3.68726e-05
1.4718e-06
3.08198e-05
-3.72834e-07
2.52392e-05
-1.85304e-06
2.02151e-05
1.57738e-05
2.73099e-05
3.2256e-05
6.50491e-05
3.52116e-05
7.5127e-05
3.64314e-05
8.1893e-05
3.6164e-05
8.57517e-05
3.46842e-05
8.70504e-05
3.22692e-05
8.61373e-05
2.9189e-05
8.33626e-05
2.56943e-05
7.90882e-05
2.19999e-05
7.36737e-05
1.82771e-05
6.74571e-05
1.46529e-05
6.07448e-05
1.12155e-05
5.38055e-05
8.02292e-06
4.68687e-05
5.11376e-06
4.01257e-05
2.51781e-06
3.37334e-05
2.63679e-07
2.78158e-05
-1.6172e-06
2.24622e-05
1.76994e-05
3.43402e-05
3.76097e-05
7.94108e-05
3.90424e-05
8.66217e-05
3.89508e-05
9.0727e-05
3.76041e-05
9.21755e-05
3.52713e-05
9.13189e-05
3.22149e-05
8.85103e-05
2.86849e-05
8.41249e-05
2.48942e-05
7.85399e-05
2.10132e-05
7.21051e-05
1.71708e-05
6.51366e-05
1.34595e-05
5.79125e-05
9.94444e-06
5.06703e-05
6.67335e-06
4.36088e-05
3.68683e-06
3.6891e-05
1.02562e-06
3.0647e-05
-1.26479e-06
2.49736e-05
1.98995e-05
4.0144e-05
4.18529e-05
9.12749e-05
4.19363e-05
9.57087e-05
4.07344e-05
9.73137e-05
3.84928e-05
9.65438e-05
3.54626e-05
9.37291e-05
3.18982e-05
8.92598e-05
2.80111e-05
8.35363e-05
2.39705e-05
7.6917e-05
1.99074e-05
6.97259e-05
1.59191e-05
6.22494e-05
1.20778e-05
5.47328e-05
8.43993e-06
4.73813e-05
5.05527e-06
4.03636e-05
1.97381e-06
3.38155e-05
-7.50312e-07
2.78403e-05
2.24761e-05
4.48177e-05
4.51432e-05
0.000100602
4.40949e-05
0.000102482
4.19587e-05
0.000101831
3.89557e-05
9.90411e-05
3.53608e-05
9.45147e-05
3.13818e-05
8.86905e-05
2.71853e-05
8.19274e-05
2.29055e-05
7.45537e-05
1.86447e-05
6.6864e-05
1.44822e-05
5.91109e-05
1.04827e-05
5.15058e-05
6.70341e-06
4.42221e-05
3.20014e-06
3.73996e-05
2.84011e-08
3.11477e-05
2.55166e-05
4.85174e-05
4.77207e-05
0.000107571
4.57054e-05
0.00010722
4.27232e-05
0.00010447
3.91069e-05
9.99049e-05
3.50471e-05
9.40274e-05
3.07051e-05
8.71686e-05
2.62199e-05
7.96585e-05
2.1699e-05
7.18009e-05
1.72299e-05
6.38555e-05
1.28847e-05
5.60406e-05
8.72729e-06
4.85328e-05
4.81787e-06
4.14739e-05
1.21231e-06
3.49758e-05
2.90873e-05
5.14747e-05
4.97136e-05
4.68071e-05
0.000109932
4.31751e-05
0.000105456
3.90559e-05
9.95661e-05
3.45848e-05
9.26683e-05
2.99141e-05
8.50726e-05
2.51534e-05
7.70977e-05
2.04014e-05
6.90089e-05
1.57374e-05
6.10347e-05
1.12314e-05
5.3353e-05
6.94863e-06
4.61052e-05
2.95043e-06
3.94033e-05
3.3285e-05
5.11674e-05
4.76192e-05
0.000111024
4.34666e-05
0.000105341
3.88857e-05
9.84486e-05
3.40597e-05
9.08193e-05
2.90855e-05
8.27824e-05
2.40831e-05
7.45998e-05
1.91374e-05
6.65224e-05
1.43229e-05
5.87242e-05
9.71003e-06
5.13442e-05
5.36586e-06
4.44936e-05
3.81982e-05
5.23254e-05
4.82865e-05
4.36882e-05
0.000104428
3.87393e-05
9.69432e-05
3.35759e-05
8.8873e-05
2.83645e-05
8.06367e-05
2.31836e-05
7.25192e-05
1.81093e-05
6.46676e-05
1.32169e-05
5.7217e-05
8.57606e-06
5.02786e-05
4.38606e-05
4.89154e-05
4.39952e-05
3.87174e-05
9.5296e-05
3.33357e-05
8.71274e-05
2.79764e-05
7.90193e-05
2.26978e-05
7.11823e-05
1.75835e-05
6.37231e-05
1.27038e-05
5.67583e-05
5.02737e-05
4.45285e-05
3.90955e-05
9.39123e-05
3.36191e-05
8.60156e-05
2.81929e-05
7.82463e-05
2.29221e-05
7.08341e-05
1.78657e-05
6.39005e-05
5.73996e-05
4.55978e-05
4.01752e-05
3.47104e-05
8.57642e-05
2.9344e-05
7.85272e-05
2.41698e-05
7.16476e-05
6.51615e-05
4.22274e-05
3.69232e-05
3.17273e-05
7.98722e-05
7.34737e-05
4.05114e-05
)
;

boundaryField
{
    inlet
    {
        type            calculated;
        value           uniform 0;
    }
    outlet
    {
        type            calculated;
        value           nonuniform 0();
    }
    flap
    {
        type            calculated;
        value           nonuniform 0();
    }
    upperWall
    {
        type            calculated;
        value           nonuniform 0();
    }
    lowerWall
    {
        type            calculated;
        value           uniform 0;
    }
    frontAndBack
    {
        type            empty;
        value           nonuniform 0();
    }
    procBoundary3to0
    {
        type            processor;
        value           nonuniform List<scalar> 
34
(
1.11898e-05
3.16151e-05
-2.01434e-05
5.12036e-05
-2.88839e-05
6.85448e-05
-3.63701e-05
8.33608e-05
-4.26159e-05
9.5516e-05
-4.77165e-05
0.000105001
-5.18003e-05
0.000111911
0.000112288
-5.37603e-05
0.00011489
-5.55406e-05
0.000115844
0.000110897
-5.32995e-05
0.000109845
0.000103033
-4.9675e-05
0.000101519
-5.08111e-05
0.000100294
9.31193e-05
-4.74974e-05
9.30457e-05
8.642e-05
-4.55315e-05
8.7879e-05
8.18599e-05
)
;
    }
    procBoundary3to1
    {
        type            processor;
        value           nonuniform List<scalar> 9(-1.95999e-06 -6.36596e-07 1.40494e-06 4.2726e-06 8.1113e-06 1.30464e-05 1.91912e-05 2.66456e-05 3.54368e-05);
    }
    procBoundary3to4
    {
        type            processor;
        value           nonuniform List<scalar> 
19
(
-4.74559e-06
-4.73799e-06
-4.66935e-06
-4.53231e-06
-4.34674e-06
-4.12477e-06
-3.88032e-06
-3.62975e-06
-3.39052e-06
-3.18e-06
-3.01343e-06
-2.90225e-06
-2.85131e-06
-2.8517e-06
-2.87798e-06
-3.00285e-06
-3.03602e-06
-2.95699e-06
-2.66513e-06
)
;
    }
}


// ************************************************************************* //
