/*--------------------------------*- C++ -*----------------------------------*\
| =========                 |                                                 |
| \\      /  F ield         | OpenFOAM: The Open Source CFD Toolbox           |
|  \\    /   O peration     | Version:  dev                                   |
|   \\  /    A nd           | Web:      www.OpenFOAM.org                      |
|    \\/     M anipulation  |                                                 |
\*---------------------------------------------------------------------------*/
FoamFile
{
    version     2.0;
    format      ascii;
    class       volVectorField;
    location    "1.57";
    object      cellDisplacement;
}
// * * * * * * * * * * * * * * * * * * * * * * * * * * * * * * * * * * * * * //

dimensions      [0 1 0 0 0 0 0];

internalField   nonuniform List<vector> 
465
(
(0.315596 0 -0.0792482)
(0.326797 0 -0.0842961)
(0.346627 0 -0.0920239)
(0.368226 0 -0.10074)
(0.336316 0 -0.0887071)
(0.355398 0 -0.0963705)
(0.375634 0 -0.10478)
(0.396649 0 -0.11387)
(0.417699 0 -0.123412)
(0.344072 0 -0.0923908)
(0.362127 0 -0.0998314)
(0.380864 0 -0.107816)
(0.399801 0 -0.116199)
(0.418326 0 -0.124769)
(0.435794 0 -0.133283)
(0.451557 0 -0.141466)
(0.350128 0 -0.0953227)
(0.367029 0 -0.102445)
(0.384172 0 -0.109906)
(0.401134 0 -0.117562)
(0.417471 0 -0.125251)
(0.432705 0 -0.132778)
(0.446394 0 -0.139943)
(0.458168 0 -0.146553)
(0.467706 0 -0.152389)
(0.35461 0 -0.0975128)
(0.370264 0 -0.104235)
(0.385846 0 -0.11114)
(0.401041 0 -0.118113)
(0.4155 0 -0.125015)
(0.428869 0 -0.131692)
(0.440875 0 -0.138014)
(0.451237 0 -0.143821)
(0.459714 0 -0.148938)
(0.357616 0 -0.0989639)
(0.372034 0 -0.105257)
(0.386186 0 -0.111625)
(0.399821 0 -0.117969)
(0.412674 0 -0.124177)
(0.424496 0 -0.130133)
(0.435084 0 -0.135732)
(0.444256 0 -0.140858)
(0.45183 0 -0.145378)
(0.359322 0 -0.0997191)
(0.372576 0 -0.105584)
(0.385433 0 -0.111444)
(0.397696 0 -0.117217)
(0.409163 0 -0.12281)
(0.419686 0 -0.128147)
(0.429092 0 -0.133135)
(0.437237 0 -0.137677)
(0.444023 0 -0.14169)
(0.359909 0 -0.0998274)
(0.372085 0 -0.105276)
(0.383779 0 -0.110665)
(0.394842 0 -0.115923)
(0.405127 0 -0.120979)
(0.414519 0 -0.12577)
(0.422903 0 -0.130226)
(0.430173 0 -0.134272)
(0.436263 0 -0.137849)
(0.359536 0 -0.0993291)
(0.370723 0 -0.104382)
(0.381376 0 -0.109333)
(0.391382 0 -0.114127)
(0.400647 0 -0.118711)
(0.40907 0 -0.123027)
(0.416559 0 -0.127015)
(0.423062 0 -0.130632)
(0.428532 0 -0.133831)
(0.35834 0 -0.0982552)
(0.368626 0 -0.102933)
(0.378346 0 -0.107482)
(0.387434 0 -0.111862)
(0.395803 0 -0.116023)
(0.403367 0 -0.119914)
(0.410078 0 -0.123497)
(0.415906 0 -0.12674)
(0.42082 0 -0.129608)
(0.346456 0 -0.0921928)
(0.356442 0 -0.096628)
(0.365909 0 -0.100954)
(0.374813 0 -0.105139)
(0.383084 0 -0.109142)
(0.390646 0 -0.112918)
(0.397457 0 -0.116432)
(0.403484 0 -0.119658)
(0.408713 0 -0.122573)
(0.413124 0 -0.125149)
(0.344679 0 -0.0903378)
(0.353949 0 -0.0944611)
(0.362693 0 -0.098463)
(0.370861 0 -0.10231)
(0.378389 0 -0.105963)
(0.385238 0 -0.109392)
(0.391382 0 -0.112572)
(0.396804 0 -0.115482)
(0.401498 0 -0.118105)
(0.405451 0 -0.120422)
(0.342344 0 -0.087934)
(0.350977 0 -0.0917647)
(0.359065 0 -0.0954603)
(0.366555 0 -0.0989881)
(0.37342 0 -0.102322)
(0.379636 0 -0.105438)
(0.385188 0 -0.108317)
(0.390069 0 -0.110944)
(0.394281 0 -0.113307)
(0.397817 0 -0.115392)
(0.339563 0 -0.0849826)
(0.347614 0 -0.0885318)
(0.35509 0 -0.0919336)
(0.361972 0 -0.0951649)
(0.368244 0 -0.0982048)
(0.373895 0 -0.101036)
(0.378919 0 -0.103642)
(0.383316 0 -0.106014)
(0.387093 0 -0.108143)
(0.390249 0 -0.110018)
(0.336417 0 -0.0814695)
(0.343926 0 -0.0847456)
(0.350852 0 -0.0878693)
(0.357189 0 -0.090823)
(0.362931 0 -0.0935909)
(0.368077 0 -0.0961592)
(0.372627 0 -0.098517)
(0.376589 0 -0.100656)
(0.379972 0 -0.102572)
(0.38278 0 -0.104256)
(0.332997 0 -0.0773823)
(0.340008 0 -0.0803895)
(0.346436 0 -0.0832458)
(0.352283 0 -0.0859366)
(0.35755 0 -0.0884494)
(0.362243 0 -0.0907735)
(0.36637 0 -0.0929011)
(0.36994 0 -0.0948264)
(0.372966 0 -0.0965467)
(0.375457 0 -0.0980548)
(0.329392 0 -0.0726915)
(0.33595 0 -0.0754343)
(0.341929 0 -0.0780311)
(0.347335 0 -0.0804697)
(0.352177 0 -0.0827401)
(0.356466 0 -0.0848342)
(0.360211 0 -0.086746)
(0.363429 0 -0.0884719)
(0.366133 0 -0.0900101)
(0.368334 0 -0.0913556)
(0.325694 0 -0.0673598)
(0.331845 0 -0.0698401)
(0.33742 0 -0.072182)
(0.342432 0 -0.0743754)
(0.346895 0 -0.0764121)
(0.350821 0 -0.078286)
(0.354227 0 -0.0799927)
(0.357128 0 -0.0815298)
(0.359542 0 -0.0828966)
(0.361482 0 -0.0840892)
(0.322001 0 -0.0613398)
(0.327788 0 -0.0635559)
(0.333005 0 -0.0656435)
(0.337668 0 -0.0675943)
(0.341793 0 -0.0694019)
(0.345398 0 -0.0710613)
(0.348502 0 -0.0725695)
(0.351121 0 -0.0739248)
(0.353275 0 -0.0751274)
(0.35498 0 -0.0761741)
(0.318419 0 -0.0545724)
(0.323886 0 -0.0565178)
(0.328788 0 -0.058347)
(0.333143 0 -0.0600532)
(0.336973 0 -0.0616313)
(0.340297 0 -0.0630775)
(0.343135 0 -0.0643893)
(0.345506 0 -0.0655661)
(0.347431 0 -0.066608)
(0.348927 0 -0.0675128)
(0.315062 0 -0.0469846)
(0.320254 0 -0.0486469)
(0.324884 0 -0.0502079)
(0.328975 0 -0.0516619)
(0.332551 0 -0.0530048)
(0.335632 0 -0.0542336)
(0.33824 0 -0.0553467)
(0.340396 0 -0.0563434)
(0.342123 0 -0.0572244)
(0.343437 0 -0.0579877)
(0.312059 0 -0.0384871)
(0.31702 0 -0.0398467)
(0.321423 0 -0.0411224)
(0.325294 0 -0.0423096)
(0.328656 0 -0.043405)
(0.331534 0 -0.0444063)
(0.33395 0 -0.0453122)
(0.335927 0 -0.0461224)
(0.337486 0 -0.0468374)
(0.338647 0 -0.0474556)
(0.309549 0 -0.0289708)
(0.314328 0 -0.029999)
(0.318551 0 -0.0309634)
(0.322247 0 -0.0318606)
(0.325441 0 -0.0326879)
(0.328158 0 -0.0334438)
(0.330422 0 -0.0341271)
(0.332255 0 -0.0347376)
(0.333681 0 -0.0352757)
(0.334719 0 -0.0357402)
(0.307692 0 -0.0183028)
(0.31234 0 -0.018959)
(0.316436 0 -0.0195747)
(0.320007 0 -0.0201475)
(0.323081 0 -0.0206757)
(0.325684 0 -0.0211581)
(0.327838 0 -0.021594)
(0.329569 0 -0.0219833)
(0.330899 0 -0.0223261)
(0.331849 0 -0.0226217)
(0.306666 0 -0.00633658)
(0.311245 0 -0.0065661)
(0.315272 0 -0.00678155)
(0.318776 0 -0.00698207)
(0.321785 0 -0.00716701)
(0.324325 0 -0.00733593)
(0.326421 0 -0.00748856)
(0.328096 0 -0.00762482)
(0.329374 0 -0.00774477)
(0.330276 0 -0.00784808)
(0.473324 0 -0.156191)
(0.464807 0 -0.152292)
(0.467776 0 -0.154352)
(0.470322 0 -0.156228)
(0.45645 0 -0.148353)
(0.459174 0 -0.150188)
(0.461545 0 -0.15187)
(0.448209 0 -0.14434)
(0.450698 0 -0.145979)
(0.452888 0 -0.14749)
(0.440051 0 -0.140218)
(0.442316 0 -0.141686)
(0.444324 0 -0.143043)
(0.431953 0 -0.135953)
(0.434004 0 -0.13727)
(0.435833 0 -0.13849)
(0.4239 0 -0.131511)
(0.425751 0 -0.132694)
(0.427406 0 -0.133792)
(0.415889 0 -0.126859)
(0.41755 0 -0.127921)
(0.419038 0 -0.128909)
(0.407924 0 -0.121959)
(0.409408 0 -0.122913)
(0.410736 0 -0.123802)
(0.40002 0 -0.116772)
(0.401338 0 -0.117629)
(0.402515 0 -0.118428)
(0.392201 0 -0.111257)
(0.393364 0 -0.112026)
(0.394397 0 -0.112742)
(0.384501 0 -0.105367)
(0.38552 0 -0.106055)
(0.386419 0 -0.106696)
(0.376964 0 -0.0990477)
(0.377849 0 -0.0996623)
(0.378623 0 -0.100234)
(0.369646 0 -0.0922393)
(0.370408 0 -0.0927855)
(0.371065 0 -0.0932934)
(0.362615 0 -0.0848706)
(0.363264 0 -0.0853528)
(0.363814 0 -0.0858009)
(0.355952 0 -0.0768582)
(0.356498 0 -0.0772798)
(0.356951 0 -0.0776711)
(0.349754 0 -0.0681028)
(0.350209 0 -0.0684658)
(0.350575 0 -0.0688024)
(0.344138 0 -0.0584844)
(0.344514 0 -0.0587896)
(0.344803 0 -0.0590723)
(0.339242 0 -0.0478573)
(0.339549 0 -0.0481037)
(0.339773 0 -0.0483318)
(0.335229 0 -0.0360416)
(0.335482 0 -0.0362263)
(0.335653 0 -0.0363971)
(0.332298 0 -0.0228133)
(0.332511 0 -0.0229306)
(0.332645 0 -0.023039)
(0.330691 0 -0.00791509)
(0.330883 0 -0.00795605)
(0.330996 0 -0.00799388)
(0.4735 0 -0.158761)
(0.464563 0 -0.154158)
(0.467307 0 -0.156636)
(0.468801 0 -0.158519)
(0.469049 0 -0.159761)
(0.455715 0 -0.149556)
(0.458377 0 -0.151822)
(0.459938 0 -0.153578)
(0.460371 0 -0.154775)
(0.459689 0 -0.155394)
(0.457916 0 -0.155424)
(0.446942 0 -0.144909)
(0.449467 0 -0.146974)
(0.451015 0 -0.148598)
(0.451542 0 -0.149732)
(0.451039 0 -0.150353)
(0.449506 0 -0.150444)
(0.446945 0 -0.149998)
(0.44336 0 -0.149014)
(0.438235 0 -0.140174)
(0.440584 0 -0.142051)
(0.442062 0 -0.143542)
(0.442613 0 -0.144601)
(0.442214 0 -0.145203)
(0.440845 0 -0.145328)
(0.438496 0 -0.144963)
(0.435155 0 -0.144102)
(0.430809 0 -0.142742)
(0.429588 0 -0.135311)
(0.431739 0 -0.137012)
(0.433104 0 -0.138372)
(0.433626 0 -0.13935)
(0.433269 0 -0.139918)
(0.432005 0 -0.140056)
(0.429808 0 -0.139747)
(0.426656 0 -0.138981)
(0.422526 0 -0.13775)
(0.421003 0 -0.130278)
(0.422941 0 -0.131815)
(0.424166 0 -0.13305)
(0.424618 0 -0.133943)
(0.424257 0 -0.134468)
(0.423045 0 -0.134604)
(0.42095 0 -0.134331)
(0.417939 0 -0.133638)
(0.413981 0 -0.132512)
(0.41249 0 -0.125034)
(0.414207 0 -0.12642)
(0.415272 0 -0.127534)
(0.415627 0 -0.128342)
(0.415225 0 -0.128818)
(0.414026 0 -0.128941)
(0.411989 0 -0.128691)
(0.409078 0 -0.128053)
(0.405255 0 -0.127014)
(0.404063 0 -0.119535)
(0.40556 0 -0.120781)
(0.406454 0 -0.121781)
(0.40669 0 -0.122506)
(0.406221 0 -0.122931)
(0.405002 0 -0.123033)
(0.402991 0 -0.122796)
(0.400145 0 -0.122201)
(0.396422 0 -0.121235)
(0.39575 0 -0.113736)
(0.397028 0 -0.114851)
(0.397747 0 -0.115746)
(0.397851 0 -0.11639)
(0.397295 0 -0.116762)
(0.396033 0 -0.116841)
(0.39402 0 -0.116609)
(0.39121 0 -0.116048)
(0.38756 0 -0.115144)
(0.387586 0 -0.107585)
(0.388651 0 -0.108581)
(0.389193 0 -0.109376)
(0.389159 0 -0.109944)
(0.388503 0 -0.110264)
(0.38718 0 -0.110318)
(0.385143 0 -0.110087)
(0.382347 0 -0.109554)
(0.378745 0 -0.108706)
(0.379615 0 -0.101026)
(0.380476 0 -0.101911)
(0.380844 0 -0.102613)
(0.380668 0 -0.10311)
(0.379905 0 -0.103381)
(0.378509 0 -0.10341)
(0.376434 0 -0.103179)
(0.373633 0 -0.102672)
(0.37006 0 -0.101874)
(0.371893 0 -0.0939959)
(0.372562 0 -0.0947773)
(0.372761 0 -0.0953935)
(0.372445 0 -0.0958231)
(0.37157 0 -0.0960491)
(0.370094 0 -0.0960546)
(0.367969 0 -0.0958237)
(0.365151 0 -0.0953414)
(0.361591 0 -0.0945938)
(0.364491 0 -0.0864195)
(0.364978 0 -0.0871046)
(0.365016 0 -0.0876405)
(0.364564 0 -0.0880083)
(0.363579 0 -0.0881925)
(0.362019 0 -0.0881778)
(0.359839 0 -0.0879495)
(0.356993 0 -0.0874937)
(0.353434 0 -0.0867973)
(0.357489 0 -0.0782104)
(0.357809 0 -0.0788046)
(0.357698 0 -0.0792655)
(0.357116 0 -0.0795763)
(0.356024 0 -0.079723)
(0.35438 0 -0.0796921)
(0.35214 0 -0.0794701)
(0.349261 0 -0.0790444)
(0.345696 0 -0.0784031)
(0.350988 0 -0.0692653)
(0.351156 0 -0.0697728)
(0.350908 0 -0.0701629)
(0.350206 0 -0.070421)
(0.349013 0 -0.0705348)
(0.347287 0 -0.0704922)
(0.344989 0 -0.0702816)
(0.342073 0 -0.0698916)
(0.338496 0 -0.0693116)
(0.345106 0 -0.0594602)
(0.345138 0 -0.0598833)
(0.344767 0 -0.0602056)
(0.343958 0 -0.0604146)
(0.342672 0 -0.0604999)
(0.340872 0 -0.060451)
(0.338517 0 -0.060258)
(0.335565 0 -0.059911)
(0.331971 0 -0.0594011)
(0.339983 0 -0.048644)
(0.3399 0 -0.0489829)
(0.339423 0 -0.0492388)
(0.338519 0 -0.0494014)
(0.337153 0 -0.0494622)
(0.335286 0 -0.0494128)
(0.33288 0 -0.0492448)
(0.329893 0 -0.0489503)
(0.326283 0 -0.0485218)
(0.335788 0 -0.0366303)
(0.335611 0 -0.0368823)
(0.335048 0 -0.0370711)
(0.334068 0 -0.0371888)
(0.332634 0 -0.0372289)
(0.330712 0 -0.037185)
(0.328263 0 -0.0370509)
(0.325247 0 -0.0368205)
(0.321622 0 -0.0364884)
(0.332725 0 -0.0231866)
(0.33248 0 -0.0233455)
(0.331855 0 -0.0234637)
(0.330818 0 -0.0235361)
(0.329336 0 -0.0235586)
(0.327373 0 -0.023527)
(0.324891 0 -0.0234373)
(0.321852 0 -0.0232859)
(0.318214 0 -0.0230691)
(0.331046 0 -0.00804526)
(0.330764 0 -0.00810048)
(0.330104 0 -0.00814136)
(0.329036 0 -0.00816609)
(0.327526 0 -0.00817321)
(0.32554 0 -0.00816129)
(0.323041 0 -0.00812895)
(0.319989 0 -0.00807488)
(0.316343 0 -0.00799785)
)
;

boundaryField
{
    inlet
    {
        type            cellMotion;
        value           nonuniform 0();
    }
    outlet
    {
        type            cellMotion;
        value           nonuniform 0();
    }
    flap
    {
        type            cellMotion;
        value           nonuniform 0();
    }
    upperWall
    {
        type            slip;
    }
    lowerWall
    {
        type            slip;
    }
    frontAndBack
    {
        type            empty;
    }
    procBoundary1to0
    {
        type            processor;
        value           nonuniform List<vector> 
18
(
(0.347928 0 -0.0942301)
(0.347575 0 -0.0934941)
(0.347575 0 -0.0934941)
(0.336013 0 -0.0876857)
(0.334911 0 -0.0861194)
(0.333204 0 -0.0839976)
(0.330984 0 -0.0813156)
(0.328367 0 -0.0780738)
(0.325435 0 -0.0742531)
(0.322273 0 -0.0698269)
(0.318977 0 -0.0647609)
(0.315643 0 -0.0590113)
(0.312379 0 -0.0525239)
(0.309297 0 -0.0452314)
(0.306524 0 -0.0370517)
(0.304197 0 -0.0278849)
(0.302469 0 -0.0176101)
(0.301513 0 -0.00609445)
)
;
    }
    procBoundary1to2
    {
        type            processor;
        value           nonuniform List<vector> 
17
(
(0.425448 0 -0.14089)
(0.417398 0 -0.136055)
(0.40905 0 -0.130951)
(0.400486 0 -0.125569)
(0.391786 0 -0.11989)
(0.383029 0 -0.113889)
(0.374295 0 -0.107532)
(0.365671 0 -0.100777)
(0.357246 0 -0.0935717)
(0.34912 0 -0.0858519)
(0.341402 0 -0.0775385)
(0.334214 0 -0.0685349)
(0.327695 0 -0.0587224)
(0.32201 0 -0.0479549)
(0.317348 0 -0.036051)
(0.313939 0 -0.0227849)
(0.312066 0 -0.00789715)
)
;
    }
    procBoundary1to3
    {
        type            processor;
        value           nonuniform List<vector> 9((0.297735 0 -0.0727198) (0.308857 0 -0.0775069) (0.318599 0 -0.0817965) (0.326905 0 -0.0855189) (0.333732 0 -0.0886113) (0.339125 0 -0.0910507) (0.343138 0 -0.0928222) (0.345845 0 -0.0939217) (0.347395 0 -0.0943811));
    }
    procBoundary1to4
    {
        type            processor;
        value           nonuniform List<vector> 
30
(
(0.302808 0 -0.0736608)
(0.335739 0 -0.0868243)
(0.335739 0 -0.0868243)
(0.358335 0 -0.0956328)
(0.391255 0 -0.110428)
(0.391255 0 -0.110428)
(0.415071 0 -0.120958)
(0.437865 0 -0.133073)
(0.437865 0 -0.133073)
(0.456214 0 -0.142484)
(0.465063 0 -0.149046)
(0.465063 0 -0.149046)
(0.475868 0 -0.155751)
(0.482067 0 -0.160093)
(0.476547 0 -0.158513)
(0.476547 0 -0.158513)
(0.479253 0 -0.16061)
(0.482539 0 -0.163414)
(0.476244 0 -0.161459)
(0.476244 0 -0.161459)
(0.477564 0 -0.163458)
(0.477512 0 -0.164717)
(0.468098 0 -0.16035)
(0.468098 0 -0.16035)
(0.466002 0 -0.160285)
(0.455077 0 -0.154867)
(0.455077 0 -0.154867)
(0.451193 0 -0.153728)
(0.438753 0 -0.147498)
(0.438753 0 -0.147498)
)
;
    }
}


// ************************************************************************* //
