/*--------------------------------*- C++ -*----------------------------------*\
| =========                 |                                                 |
| \\      /  F ield         | OpenFOAM: The Open Source CFD Toolbox           |
|  \\    /   O peration     | Version:  dev                                   |
|   \\  /    A nd           | Web:      www.OpenFOAM.org                      |
|    \\/     M anipulation  |                                                 |
\*---------------------------------------------------------------------------*/
FoamFile
{
    version     2.0;
    format      ascii;
    class       volVectorField;
    location    "2.8";
    object      cellDisplacement;
}
// * * * * * * * * * * * * * * * * * * * * * * * * * * * * * * * * * * * * * //

dimensions      [0 1 0 0 0 0 0];

internalField   nonuniform List<vector> 
2790
(
(0.00966374 0 -2.59555e-05)
(0.0276017 0 -7.43911e-05)
(0.0429411 0 -0.000116752)
(0.0559054 0 -0.000154035)
(0.0667305 0 -0.00018706)
(0.0756218 0 -0.000216482)
(0.082767 0 -0.000242207)
(0.0883348 0 -0.000264587)
(0.0924678 0 -0.000283668)
(0.0952894 0 -0.000299351)
(0.0969071 0 -0.0003114)
(0.0974153 0 -0.000319169)
(0.0968981 0 -0.000322146)
(0.0954303 0 -0.00031963)
(0.0930793 0 -0.000310728)
(0.0899077 0 -0.000294364)
(0.0859757 0 -0.000269319)
(0.0813482 0 -0.000234612)
(0.0760809 0 -0.000187407)
(0.070233 0 -0.000126158)
(0.0638739 0 -4.87033e-05)
(0.0570794 0 4.76175e-05)
(0.0499343 0 0.000165793)
(0.0425329 0 0.000309183)
(0.0350123 0 0.000482795)
(0.027541 0 0.000691209)
(0.0203442 0 0.000940335)
(0.013757 0 0.00123598)
(0.00831715 0 0.00157621)
(0.00517144 0 0.00191225)
(0.00967689 0 -7.79564e-05)
(0.0276396 0 -0.000223453)
(0.0430029 0 -0.00035073)
(0.0559926 0 -0.000462796)
(0.0668459 0 -0.000562092)
(0.0757662 0 -0.00065077)
(0.0829422 0 -0.000728247)
(0.0885462 0 -0.000795784)
(0.0927203 0 -0.000853498)
(0.0955888 0 -0.000901104)
(0.09726 0 -0.000938026)
(0.0978286 0 -0.000962149)
(0.0973804 0 -0.000972077)
(0.0959912 0 -0.000965743)
(0.0937298 0 -0.000940509)
(0.0906597 0 -0.000893171)
(0.0868393 0 -0.000819883)
(0.0823393 0 -0.000716517)
(0.0772229 0 -0.000578293)
(0.0715439 0 -0.00039904)
(0.0653799 0 -0.000172468)
(0.0588134 0 0.000109205)
(0.0519416 0 0.000454624)
(0.0448571 0 0.00087479)
(0.0377015 0 0.00138065)
(0.0306727 0 0.00198273)
(0.0240076 0 0.00269266)
(0.0180798 0 0.00351713)
(0.0135504 0 0.00443462)
(0.0116156 0 0.00526628)
(0.0097041 0 -0.000130197)
(0.0277172 0 -0.000373266)
(0.0431282 0 -0.000585979)
(0.0561687 0 -0.000773413)
(0.0670794 0 -0.000939537)
(0.0760564 0 -0.00108645)
(0.083293 0 -0.00121605)
(0.0889689 0 -0.00132945)
(0.0932247 0 -0.0014267)
(0.0961859 0 -0.00150734)
(0.0979628 0 -0.00157102)
(0.0986504 0 -0.0016134)
(0.0983382 0 -0.00163279)
(0.0971041 0 -0.00162586)
(0.0950195 0 -0.00158837)
(0.092151 0 -0.00151523)
(0.0885628 0 -0.00140038)
(0.0843204 0 -0.00123648)
(0.0794954 0 -0.00101746)
(0.0741468 0 -0.000733044)
(0.0683645 0 -0.000374136)
(0.062238 0 7.14377e-05)
(0.0558731 0 0.000616838)
(0.0493973 0 0.00127663)
(0.0429739 0 0.00206321)
(0.0368245 0 0.00298757)
(0.0312191 0 0.00405576)
(0.0265194 0 0.00525918)
(0.0234359 0 0.00652099)
(0.0233307 0 0.00752989)
(0.00974599 0 -0.000182488)
(0.0278345 0 -0.000523295)
(0.0433157 0 -0.000821612)
(0.056431 0 -0.00108473)
(0.0674168 0 -0.00131813)
(0.0764788 0 -0.00152391)
(0.0838147 0 -0.00170665)
(0.0895986 0 -0.0018671)
(0.0939759 0 -0.00200535)
(0.0970749 0 -0.00212064)
(0.0990043 0 -0.00221116)
(0.099867 0 -0.0022745)
(0.0997556 0 -0.00230724)
(0.0987504 0 -0.0023048)
(0.0969265 0 -0.00226164)
(0.0943554 0 -0.00217118)
(0.0911068 0 -0.00202574)
(0.0872523 0 -0.00181656)
(0.0828684 0 -0.00153443)
(0.0780251 0 -0.0011677)
(0.0728077 0 -0.000703333)
(0.0673285 0 -0.000128483)
(0.0617049 0 0.000571206)
(0.0560744 0 0.00141061)
(0.0506641 0 0.0023989)
(0.0457247 0 0.00353882)
(0.0415879 0 0.00481649)
(0.0386304 0 0.00618779)
(0.0373921 0 0.00752694)
(0.0394046 0 0.00840593)
(0.00980291 0 -0.000234808)
(0.0279897 0 -0.000672776)
(0.0435612 0 -0.00105636)
(0.0567759 0 -0.00139511)
(0.0678644 0 -0.00169636)
(0.0770387 0 -0.00196317)
(0.0845023 0 -0.00220029)
(0.0904281 0 -0.00240933)
(0.0949646 0 -0.00259058)
(0.0982423 0 -0.002743)
(0.100374 0 -0.00286369)
(0.101469 0 -0.00295239)
(0.101622 0 -0.00300404)
(0.100917 0 -0.00301315)
(0.0994353 0 -0.00297323)
(0.0972533 0 -0.00287671)
(0.0944476 0 -0.00271484)
(0.0910957 0 -0.00247763)
(0.0872746 0 -0.00215363)
(0.0830889 0 -0.00173295)
(0.0786196 0 -0.00119989)
(0.0739901 0 -0.000541985)
(0.0693494 0 0.000251716)
(0.0648441 0 0.00119442)
(0.0606907 0 0.00228881)
(0.0572005 0 0.00351887)
(0.0547839 0 0.00484049)
(0.0538552 0 0.00616368)
(0.0547998 0 0.00733793)
(0.0589251 0 0.00786596)
(0.00985846 0 -0.000286778)
(0.0281657 0 -0.000821906)
(0.0438617 0 -0.00129122)
(0.0572023 0 -0.00170595)
(0.068417 0 -0.00207428)
(0.077727 0 -0.00240237)
(0.0853455 0 -0.00269489)
(0.0914444 0 -0.00295405)
(0.0961755 0 -0.00318047)
(0.0996728 0 -0.00337326)
(0.102056 0 -0.00353028)
(0.103436 0 -0.00364987)
(0.103912 0 -0.00372722)
(0.103574 0 -0.00375644)
(0.10251 0 -0.00373058)
(0.100802 0 -0.00364164)
(0.098537 0 -0.00348057)
(0.0958011 0 -0.0032372)
(0.0926838 0 -0.00290048)
(0.0892807 0 -0.00245778)
(0.0857086 0 -0.00189772)
(0.0820911 0 -0.00120835)
(0.0786178 0 -0.000385269)
(0.0754727 0 0.000574231)
(0.0728525 0 0.00166272)
(0.0710578 0 0.00285151)
(0.0705219 0 0.00406457)
(0.07175 0 0.00516043)
(0.075031 0 0.0059684)
(0.0810827 0 0.00602037)
(0.00992776 0 -0.000338522)
(0.028377 0 -0.000970879)
(0.0442149 0 -0.00152596)
(0.0576934 0 -0.00201674)
(0.069059 0 -0.00245288)
(0.0785386 0 -0.00284361)
(0.0863394 0 -0.00319307)
(0.0926419 0 -0.00350447)
(0.0976018 0 -0.00377891)
(0.101357 0 -0.00401581)
(0.104033 0 -0.00421327)
(0.105746 0 -0.00436986)
(0.1066 0 -0.00448065)
(0.106691 0 -0.00453974)
(0.106112 0 -0.0045402)
(0.104956 0 -0.00447417)
(0.103318 0 -0.00433314)
(0.101287 0 -0.00410648)
(0.0989878 0 -0.00378746)
(0.096505 0 -0.00336173)
(0.0939833 0 -0.00282299)
(0.0915587 0 -0.00216263)
(0.0894051 0 -0.00137949)
(0.0877415 0 -0.000484292)
(0.0868454 0 0.00049405)
(0.086977 0 0.00151097)
(0.0884572 0 0.00247846)
(0.0918646 0 0.00321162)
(0.0973854 0 0.0035228)
(0.105195 0 0.0030399)
(0.0100088 0 -0.000389916)
(0.0286199 0 -0.00111878)
(0.0446169 0 -0.00175922)
(0.0582549 0 -0.00232615)
(0.0697954 0 -0.00283192)
(0.079466 0 -0.00328661)
(0.0874732 0 -0.00369455)
(0.094007 0 -0.00406043)
(0.0992267 0 -0.00438595)
(0.103274 0 -0.00467091)
(0.106279 0 -0.00491327)
(0.10837 0 -0.00511349)
(0.10965 0 -0.0052661)
(0.110223 0 -0.0053656)
(0.110191 0 -0.00540561)
(0.109655 0 -0.00537899)
(0.108724 0 -0.00527941)
(0.107501 0 -0.00509783)
(0.106099 0 -0.0048259)
(0.104633 0 -0.0044548)
(0.103276 0 -0.00398466)
(0.102186 0 -0.00341394)
(0.10152 0 -0.00274654)
(0.101498 0 -0.00200068)
(0.102438 0 -0.00122578)
(0.104604 0 -0.000489408)
(0.10822 0 0.000115728)
(0.113768 0 0.000389701)
(0.12132 0 0.000146047)
(0.130705 0 -0.000876823)
(0.0101003 0 -0.000441095)
(0.0288927 0 -0.00126612)
(0.0450663 0 -0.00199188)
(0.0588826 0 -0.00263527)
(0.0706189 0 -0.00321103)
(0.0804963 0 -0.00372901)
(0.0887293 0 -0.00419652)
(0.0955184 0 -0.00461892)
(0.101025 0 -0.00499846)
(0.105394 0 -0.00533564)
(0.10877 0 -0.00563033)
(0.111277 0 -0.00588139)
(0.113025 0 -0.00608454)
(0.114128 0 -0.00623536)
(0.114693 0 -0.00632852)
(0.114829 0 -0.0063576)
(0.114668 0 -0.00632034)
(0.114325 0 -0.00621017)
(0.113914 0 -0.00602005)
(0.113577 0 -0.00574696)
(0.113472 0 -0.00539192)
(0.113777 0 -0.00496227)
(0.114723 0 -0.00447984)
(0.116511 0 -0.00396974)
(0.119363 0 -0.00348042)
(0.123631 0 -0.00311243)
(0.129461 0 -0.00296134)
(0.137063 0 -0.00320035)
(0.146458 0 -0.00400843)
(0.157153 0 -0.00552619)
(0.0102013 0 -0.000491946)
(0.0291934 0 -0.00141264)
(0.0455595 0 -0.00222358)
(0.0595687 0 -0.00294345)
(0.0715092 0 -0.0035892)
(0.0816124 0 -0.0041715)
(0.0900994 0 -0.00470062)
(0.0971671 0 -0.00518191)
(0.102985 0 -0.00561864)
(0.107706 0 -0.00601239)
(0.111478 0 -0.00636425)
(0.114431 0 -0.00667276)
(0.116681 0 -0.006935)
(0.11835 0 -0.00714805)
(0.119557 0 -0.00730831)
(0.120429 0 -0.00741337)
(0.121085 0 -0.0074588)
(0.12165 0 -0.00744091)
(0.122285 0 -0.0073627)
(0.123143 0 -0.00722567)
(0.12437 0 -0.00703356)
(0.12616 0 -0.00680052)
(0.128774 0 -0.00656023)
(0.132434 0 -0.0063543)
(0.137288 0 -0.00622744)
(0.143694 0 -0.00629404)
(0.151732 0 -0.00665332)
(0.161333 0 -0.00743167)
(0.1724 0 -0.00877665)
(0.184132 0 -0.0107147)
(0.0103099 0 -0.00054233)
(0.0295191 0 -0.001558)
(0.0460895 0 -0.00245274)
(0.0603029 0 -0.00324854)
(0.0724647 0 -0.00396461)
(0.0828128 0 -0.00461353)
(0.0915696 0 -0.00520581)
(0.0989346 0 -0.00574816)
(0.105083 0 -0.00624503)
(0.110175 0 -0.00669891)
(0.114369 0 -0.00711314)
(0.117794 0 -0.00748575)
(0.120572 0 -0.0078152)
(0.122835 0 -0.0081007)
(0.12471 0 -0.00834018)
(0.12635 0 -0.00853719)
(0.127859 0 -0.0086852)
(0.129393 0 -0.00878806)
(0.131103 0 -0.00884919)
(0.133152 0 -0.00887556)
(0.135752 0 -0.00888688)
(0.139103 0 -0.00890365)
(0.14339 0 -0.00895395)
(0.148908 0 -0.00910184)
(0.155822 0 -0.00940073)
(0.164357 0 -0.00994945)
(0.174537 0 -0.0108422)
(0.186118 0 -0.0121628)
(0.198729 0 -0.0139916)
(0.211269 0 -0.0162585)
(0.0104244 0 -0.000592094)
(0.0298507 0 -0.00170109)
(0.0466382 0 -0.00267904)
(0.0610805 0 -0.00355126)
(0.0734794 0 -0.00433809)
(0.0840857 0 -0.0050542)
(0.0931258 0 -0.00571092)
(0.100803 0 -0.00631625)
(0.107299 0 -0.006876)
(0.112779 0 -0.00739346)
(0.117414 0 -0.00787524)
(0.121324 0 -0.00831746)
(0.124646 0 -0.00872132)
(0.127523 0 -0.00908887)
(0.130097 0 -0.0094218)
(0.132505 0 -0.00972134)
(0.134873 0 -0.00998743)
(0.13739 0 -0.0102315)
(0.140189 0 -0.0104574)
(0.143454 0 -0.0106791)
(0.147415 0 -0.010924)
(0.15229 0 -0.0112242)
(0.158243 0 -0.0116087)
(0.165597 0 -0.0121533)
(0.174528 0 -0.0129196)
(0.1851 0 -0.0139742)
(0.197352 0 -0.0154087)
(0.210868 0 -0.0172496)
(0.224958 0 -0.019493)
(0.238181 0 -0.0219942)
(0.0105441 0 -0.000640916)
(0.0301999 0 -0.0018418)
(0.0472153 0 -0.00290263)
(0.0618949 0 -0.00385079)
(0.0745426 0 -0.00470851)
(0.0854179 0 -0.00549222)
(0.0947515 0 -0.00621441)
(0.102752 0 -0.00688429)
(0.109606 0 -0.00750938)
(0.115493 0 -0.00809549)
(0.120574 0 -0.00864692)
(0.124979 0 -0.0091637)
(0.128851 0 -0.00964774)
(0.132349 0 -0.0101053)
(0.135625 0 -0.0105411)
(0.138804 0 -0.0109557)
(0.142043 0 -0.0113563)
(0.145501 0 -0.0117519)
(0.149375 0 -0.012162)
(0.153853 0 -0.0126056)
(0.159108 0 -0.0131039)
(0.165408 0 -0.013706)
(0.172962 0 -0.014454)
(0.182035 0 -0.0154184)
(0.192797 0 -0.0166647)
(0.20526 0 -0.0182405)
(0.219448 0 -0.0202147)
(0.234816 0 -0.0225499)
(0.250397 0 -0.0251448)
(0.264353 0 -0.0278043)
(0.0106697 0 -0.00068896)
(0.030565 0 -0.00198036)
(0.0478147 0 -0.00312279)
(0.0627386 0 -0.00414619)
(0.0756439 0 -0.0050746)
(0.0867962 0 -0.00592613)
(0.0964305 0 -0.00671448)
(0.104762 0 -0.00744994)
(0.111988 0 -0.00814287)
(0.118285 0 -0.00879977)
(0.123812 0 -0.00942408)
(0.128715 0 -0.0100199)
(0.133151 0 -0.0105923)
(0.137263 0 -0.011145)
(0.141214 0 -0.0116872)
(0.145153 0 -0.0122258)
(0.149237 0 -0.012771)
(0.153617 0 -0.0133321)
(0.158516 0 -0.0139375)
(0.164112 0 -0.0146107)
(0.170573 0 -0.0153759)
(0.17818 0 -0.0162909)
(0.187149 0 -0.0174062)
(0.197702 0 -0.018789)
(0.209977 0 -0.0205019)
(0.224036 0 -0.0225959)
(0.239821 0 -0.0251014)
(0.25678 0 -0.027926)
(0.273809 0 -0.0308571)
(0.288797 0 -0.0336525)
(0.0108021 0 -0.000736374)
(0.0309428 0 -0.00211635)
(0.0484298 0 -0.00333875)
(0.0636039 0 -0.00443644)
(0.0767727 0 -0.00543505)
(0.0882077 0 -0.00635434)
(0.0981466 0 -0.00720932)
(0.10682 0 -0.00801323)
(0.11442 0 -0.00877531)
(0.121118 0 -0.00950197)
(0.127091 0 -0.0102016)
(0.132493 0 -0.0108801)
(0.137484 0 -0.0115448)
(0.142205 0 -0.0121994)
(0.14681 0 -0.0128527)
(0.151474 0 -0.0135198)
(0.156346 0 -0.0142116)
(0.161603 0 -0.0149458)
(0.167439 0 -0.0157494)
(0.174024 0 -0.0166491)
(0.181563 0 -0.0176828)
(0.190284 0 -0.0189032)
(0.200403 0 -0.0203683)
(0.212089 0 -0.0221419)
(0.225443 0 -0.0242858)
(0.240519 0 -0.0268544)
(0.257185 0 -0.0298654)
(0.274924 0 -0.0332147)
(0.292666 0 -0.0365859)
(0.309171 0 -0.0396858)
(0.0066389 0 -0.00238334)
(0.0135832 0 -0.00263954)
(0.0268594 0 -0.00290649)
(0.0453456 0 -0.00318092)
(0.066878 0 -0.00338946)
(0.0893183 0 -0.00352204)
(0.110752 0 -0.00357151)
(0.129971 0 -0.00355346)
(0.146552 0 -0.00347679)
(0.160325 0 -0.00334473)
(0.171366 0 -0.00318587)
(0.179898 0 -0.00301687)
(0.186138 0 -0.00284138)
(0.190294 0 -0.0026767)
(0.192508 0 -0.00249255)
(0.192895 0 -0.00231951)
(0.191548 0 -0.00213794)
(0.188529 0 -0.00197463)
(0.183864 0 -0.00180512)
(0.177552 0 -0.00164634)
(0.169559 0 -0.0014941)
(0.159887 0 -0.00134302)
(0.148484 0 -0.00119567)
(0.135249 0 -0.00104985)
(0.120114 0 -0.000904021)
(0.103014 0 -0.000757133)
(0.0838775 0 -0.00060618)
(0.0626603 0 -0.000444931)
(0.0392641 0 -0.000276363)
(0.0134987 0 -9.50073e-05)
(0.0121812 0 -0.00716291)
(0.0194808 0 -0.00790424)
(0.0329532 0 -0.00872736)
(0.0511998 0 -0.00948372)
(0.0722208 0 -0.0100726)
(0.0940384 0 -0.0104561)
(0.114785 0 -0.0105823)
(0.133346 0 -0.0105003)
(0.149336 0 -0.010269)
(0.16259 0 -0.00988084)
(0.173223 0 -0.00943197)
(0.181411 0 -0.00892589)
(0.187378 0 -0.00841606)
(0.1913 0 -0.0078993)
(0.193326 0 -0.00737205)
(0.193563 0 -0.00684789)
(0.192094 0 -0.00632498)
(0.18898 0 -0.00583503)
(0.18424 0 -0.00534654)
(0.177861 0 -0.00487958)
(0.169819 0 -0.00443241)
(0.160106 0 -0.00398394)
(0.148666 0 -0.00354823)
(0.1354 0 -0.00311664)
(0.120235 0 -0.00268435)
(0.103107 0 -0.00224918)
(0.0839717 0 -0.00179679)
(0.0627462 0 -0.00132172)
(0.0393118 0 -0.000821299)
(0.0135159 0 -0.000282399)
(0.0225135 0 -0.0119536)
(0.0306541 0 -0.01318)
(0.0444148 0 -0.0145205)
(0.0621631 0 -0.0156787)
(0.082356 0 -0.0165906)
(0.102974 0 -0.0171315)
(0.122419 0 -0.0172921)
(0.139761 0 -0.0171153)
(0.154649 0 -0.0167095)
(0.166947 0 -0.0160858)
(0.176791 0 -0.0153642)
(0.184319 0 -0.0145476)
(0.189751 0 -0.0137175)
(0.193227 0 -0.012858)
(0.194898 0 -0.0120095)
(0.194847 0 -0.0111576)
(0.193147 0 -0.0103245)
(0.189846 0 -0.00952179)
(0.184957 0 -0.00874101)
(0.178449 0 -0.00798343)
(0.170313 0 -0.00725105)
(0.160526 0 -0.00652627)
(0.149012 0 -0.00581657)
(0.135685 0 -0.00511177)
(0.12046 0 -0.00440363)
(0.103303 0 -0.00368788)
(0.0841524 0 -0.00294523)
(0.0628804 0 -0.00216977)
(0.0393958 0 -0.00134903)
(0.0135465 0 -0.000463961)
(0.037044 0 -0.0168979)
(0.0462915 0 -0.0185839)
(0.0602209 0 -0.0203103)
(0.0773688 0 -0.0217971)
(0.0963807 0 -0.0229304)
(0.115352 0 -0.0235352)
(0.133081 0 -0.0236708)
(0.148758 0 -0.0233771)
(0.162128 0 -0.0227738)
(0.173113 0 -0.0219238)
(0.181843 0 -0.0209282)
(0.188452 0 -0.0198322)
(0.193123 0 -0.0186949)
(0.19598 0 -0.0175353)
(0.197144 0 -0.0163791)
(0.196689 0 -0.0152372)
(0.19466 0 -0.014116)
(0.191091 0 -0.0130265)
(0.185986 0 -0.0119709)
(0.179302 0 -0.0109413)
(0.17102 0 -0.00993299)
(0.161117 0 -0.00895512)
(0.149504 0 -0.00798794)
(0.136095 0 -0.00702421)
(0.120799 0 -0.00605314)
(0.103588 0 -0.00506592)
(0.0843884 0 -0.00404878)
(0.0630573 0 -0.0029848)
(0.0395086 0 -0.00185652)
(0.0135873 0 -0.00063859)
(0.0550515 0 -0.022086)
(0.065397 0 -0.0241519)
(0.0793872 0 -0.0261644)
(0.0958394 0 -0.0278731)
(0.113364 0 -0.0290829)
(0.130446 0 -0.0296842)
(0.146121 0 -0.0297201)
(0.1598 0 -0.0292669)
(0.171347 0 -0.0284524)
(0.180743 0 -0.0273704)
(0.18812 0 -0.0261167)
(0.193602 0 -0.0247565)
(0.197339 0 -0.0233422)
(0.199431 0 -0.0219073)
(0.199968 0 -0.0204729)
(0.199009 0 -0.019065)
(0.196569 0 -0.0176803)
(0.192664 0 -0.0163284)
(0.187288 0 -0.0150197)
(0.180389 0 -0.013741)
(0.171918 0 -0.0124833)
(0.161856 0 -0.0112604)
(0.150125 0 -0.0100515)
(0.136614 0 -0.00884431)
(0.121235 0 -0.00762551)
(0.103948 0 -0.00638115)
(0.0846746 0 -0.00510181)
(0.0632695 0 -0.00376271)
(0.0396436 0 -0.00234107)
(0.0136353 0 -0.000805314)
(0.0758533 0 -0.0275496)
(0.0870821 0 -0.0298784)
(0.101065 0 -0.032085)
(0.116654 0 -0.0338898)
(0.132493 0 -0.0350649)
(0.147489 0 -0.0355665)
(0.160851 0 -0.0354212)
(0.172313 0 -0.0347628)
(0.181834 0 -0.0337198)
(0.189458 0 -0.0324032)
(0.195318 0 -0.0309055)
(0.19953 0 -0.0293004)
(0.20221 0 -0.0276369)
(0.203434 0 -0.0259548)
(0.203251 0 -0.0242682)
(0.201715 0 -0.0226236)
(0.198802 0 -0.0210021)
(0.194504 0 -0.0194102)
(0.188813 0 -0.0178733)
(0.181659 0 -0.0163682)
(0.172978 0 -0.0148884)
(0.162733 0 -0.0134322)
(0.150853 0 -0.0119974)
(0.137221 0 -0.0105635)
(0.121754 0 -0.00911457)
(0.104377 0 -0.00763205)
(0.0850036 0 -0.00610406)
(0.0635108 0 -0.00450359)
(0.039796 0 -0.00280276)
(0.0136892 0 -0.000964171)
(0.0988438 0 -0.0332636)
(0.110738 0 -0.0357619)
(0.124536 0 -0.0380492)
(0.139019 0 -0.0398086)
(0.153001 0 -0.0408353)
(0.165691 0 -0.0411268)
(0.176606 0 -0.0407418)
(0.185732 0 -0.0398382)
(0.193116 0 -0.0385522)
(0.198869 0 -0.0370025)
(0.203124 0 -0.0352757)
(0.205986 0 -0.0334475)
(0.207538 0 -0.031563)
(0.207831 0 -0.0296648)
(0.206878 0 -0.0277617)
(0.204709 0 -0.0259001)
(0.201283 0 -0.0240709)
(0.196557 0 -0.02227)
(0.190509 0 -0.02052)
(0.183072 0 -0.0188111)
(0.174164 0 -0.0171304)
(0.163721 0 -0.015469)
(0.151667 0 -0.0138265)
(0.137897 0 -0.0121831)
(0.122317 0 -0.0105201)
(0.104838 0 -0.00881767)
(0.0853622 0 -0.00705623)
(0.063773 0 -0.0052082)
(0.0399608 0 -0.00324211)
(0.0137472 0 -0.00111534)
(0.123499 0 -0.0391693)
(0.13582 0 -0.0417509)
(0.149193 0 -0.0440035)
(0.162304 0 -0.0455845)
(0.174195 0 -0.0463409)
(0.184384 0 -0.0463144)
(0.192793 0 -0.0456381)
(0.199528 0 -0.0444611)
(0.204742 0 -0.0429252)
(0.208601 0 -0.0411495)
(0.211228 0 -0.0392124)
(0.212719 0 -0.0371853)
(0.213119 0 -0.0351078)
(0.21246 0 -0.0330232)
(0.210722 0 -0.0309412)
(0.207886 0 -0.0288853)
(0.203922 0 -0.026874)
(0.198759 0 -0.0248992)
(0.192338 0 -0.0229642)
(0.184592 0 -0.0210732)
(0.175433 0 -0.0192126)
(0.164779 0 -0.0173719)
(0.152543 0 -0.0155422)
(0.138621 0 -0.0137064)
(0.122914 0 -0.0118448)
(0.105322 0 -0.00993581)
(0.0857384 0 -0.00795551)
(0.064047 0 -0.00587429)
(0.0401321 0 -0.00365761)
(0.0138072 0 -0.00125828)
(0.149365 0 -0.0451902)
(0.161859 0 -0.0477742)
(0.174505 0 -0.0498729)
(0.185913 0 -0.0511388)
(0.195457 0 -0.0515055)
(0.203007 0 -0.0510805)
(0.208863 0 -0.050064)
(0.213212 0 -0.048596)
(0.216291 0 -0.0468135)
(0.218299 0 -0.044827)
(0.219339 0 -0.0427025)
(0.219489 0 -0.0405043)
(0.218758 0 -0.0382616)
(0.217159 0 -0.0360202)
(0.214645 0 -0.0337896)
(0.211158 0 -0.0315814)
(0.20665 0 -0.0294173)
(0.201038 0 -0.0272932)
(0.194242 0 -0.0252086)
(0.18618 0 -0.0231617)
(0.176757 0 -0.0211424)
(0.165881 0 -0.0191398)
(0.153455 0 -0.0171414)
(0.139373 0 -0.0151301)
(0.123529 0 -0.0130855)
(0.105816 0 -0.0109843)
(0.0861213 0 -0.00879974)
(0.0643244 0 -0.00650012)
(0.0403045 0 -0.00404812)
(0.0138672 0 -0.00139256)
(0.176062 0 -0.0512449)
(0.18846 0 -0.053755)
(0.199967 0 -0.0555609)
(0.209257 0 -0.0563621)
(0.21618 0 -0.0562284)
(0.221016 0 -0.0553511)
(0.224295 0 -0.0539602)
(0.226327 0 -0.0522032)
(0.227375 0 -0.050191)
(0.227639 0 -0.0480193)
(0.227183 0 -0.045735)
(0.226078 0 -0.0433993)
(0.224292 0 -0.0410309)
(0.221806 0 -0.0386668)
(0.218548 0 -0.0363189)
(0.21444 0 -0.0339975)
(0.209404 0 -0.0317132)
(0.203347 0 -0.0294664)
(0.196176 0 -0.0272552)
(0.187795 0 -0.0250754)
(0.178103 0 -0.0229181)
(0.166999 0 -0.0207717)
(0.154379 0 -0.0186223)
(0.140131 0 -0.0164521)
(0.124146 0 -0.01424)
(0.106309 0 -0.0119613)
(0.0865005 0 -0.00958735)
(0.0645974 0 -0.00708436)
(0.0404729 0 -0.00441274)
(0.0139255 0 -0.00151789)
(0.203282 0 -0.0572726)
(0.215246 0 -0.0596119)
(0.22501 0 -0.0609323)
(0.231667 0 -0.0611009)
(0.235708 0 -0.0603726)
(0.237814 0 -0.0590227)
(0.238585 0 -0.0572633)
(0.238458 0 -0.0552423)
(0.237643 0 -0.0530328)
(0.236337 0 -0.050715)
(0.234557 0 -0.0483162)
(0.232329 0 -0.045881)
(0.2296 0 -0.0434289)
(0.226305 0 -0.0409812)
(0.222357 0 -0.0385496)
(0.217661 0 -0.0361427)
(0.21212 0 -0.0337665)
(0.205632 0 -0.031422)
(0.198093 0 -0.0291068)
(0.189398 0 -0.0268157)
(0.179439 0 -0.02454)
(0.168108 0 -0.0222677)
(0.155292 0 -0.0199842)
(0.140878 0 -0.0176712)
(0.12475 0 -0.015307)
(0.106787 0 -0.0128657)
(0.0868663 0 -0.0103172)
(0.0648588 0 -0.00762612)
(0.0406328 0 -0.00475087)
(0.0139804 0 -0.00163403)
(0.230797 0 -0.0632399)
(0.241725 0 -0.0652172)
(0.248854 0 -0.0657699)
(0.252327 0 -0.065142)
(0.253315 0 -0.0637747)
(0.252768 0 -0.0619748)
(0.251255 0 -0.0599028)
(0.24924 0 -0.057679)
(0.246855 0 -0.0553364)
(0.244223 0 -0.0529234)
(0.241331 0 -0.0504612)
(0.238142 0 -0.0479727)
(0.234584 0 -0.0454732)
(0.230568 0 -0.0429765)
(0.225993 0 -0.040492)
(0.220753 0 -0.0380265)
(0.214741 0 -0.0355841)
(0.207845 0 -0.0331653)
(0.199954 0 -0.0307675)
(0.190955 0 -0.0283852)
(0.180736 0 -0.0260095)
(0.169181 0 -0.0236286)
(0.156173 0 -0.0212274)
(0.141595 0 -0.0187874)
(0.125325 0 -0.016286)
(0.10724 0 -0.0136969)
(0.0872095 0 -0.0109888)
(0.0651017 0 -0.00812484)
(0.0407801 0 -0.00506211)
(0.0140304 0 -0.00174084)
(0.258324 0 -0.0690857)
(0.26696 0 -0.0702787)
(0.27032 0 -0.0697131)
(0.27023 0 -0.0682067)
(0.268235 0 -0.0662572)
(0.265367 0 -0.064117)
(0.262021 0 -0.061851)
(0.258508 0 -0.0595125)
(0.254903 0 -0.0571145)
(0.251222 0 -0.0546715)
(0.247421 0 -0.0521942)
(0.243432 0 -0.0496946)
(0.239166 0 -0.0471828)
(0.234521 0 -0.0446685)
(0.229391 0 -0.0421592)
(0.223661 0 -0.0396603)
(0.217217 0 -0.0371749)
(0.209942 0 -0.0347032)
(0.201721 0 -0.0322426)
(0.192435 0 -0.0297876)
(0.181966 0 -0.0273295)
(0.170196 0 -0.0248564)
(0.157004 0 -0.0223532)
(0.142267 0 -0.0198011)
(0.12586 0 -0.0171773)
(0.107656 0 -0.0144549)
(0.0875217 0 -0.0116019)
(0.0653202 0 -0.00858034)
(0.0409109 0 -0.00534632)
(0.0140744 0 -0.00183828)
(0.284842 0 -0.0744748)
(0.288983 0 -0.0741182)
(0.287713 0 -0.0722153)
(0.284351 0 -0.0699984)
(0.280032 0 -0.0677096)
(0.27545 0 -0.0654185)
(0.270829 0 -0.0631105)
(0.266266 0 -0.060774)
(0.261766 0 -0.0584004)
(0.257292 0 -0.0559887)
(0.252778 0 -0.0535431)
(0.248143 0 -0.0510707)
(0.24329 0 -0.0485788)
(0.238113 0 -0.0460751)
(0.232501 0 -0.043566)
(0.226338 0 -0.0410564)
(0.219507 0 -0.0385488)
(0.211888 0 -0.0360437)
(0.203362 0 -0.0335385)
(0.193808 0 -0.0310279)
(0.183106 0 -0.0285035)
(0.171133 0 -0.0259537)
(0.157765 0 -0.0233633)
(0.142878 0 -0.0207136)
(0.126342 0 -0.0179817)
(0.108026 0 -0.0151402)
(0.0877954 0 -0.0121567)
(0.0655087 0 -0.00899275)
(0.0410218 0 -0.00560356)
(0.0141111 0 -0.00192637)
(0.306242 0 -0.0779411)
(0.305363 0 -0.0754755)
(0.300074 0 -0.0726727)
(0.294404 0 -0.0702904)
(0.288725 0 -0.0680826)
(0.283178 0 -0.065918)
(0.277793 0 -0.0637357)
(0.272567 0 -0.0615119)
(0.267464 0 -0.0592379)
(0.262423 0 -0.0569119)
(0.257378 0 -0.0545394)
(0.252244 0 -0.0521279)
(0.24692 0 -0.049684)
(0.241304 0 -0.0472152)
(0.235286 0 -0.0447283)
(0.228749 0 -0.0422279)
(0.221578 0 -0.0397168)
(0.213651 0 -0.0371955)
(0.20485 0 -0.0346621)
(0.195052 0 -0.0321116)
(0.184135 0 -0.0295359)
(0.171974 0 -0.0269238)
(0.158443 0 -0.0242602)
(0.143415 0 -0.0215267)
(0.126759 0 -0.0187003)
(0.108341 0 -0.0157536)
(0.0880236 0 -0.0126539)
(0.0656622 0 -0.00936243)
(0.0411099 0 -0.00583402)
(0.0141396 0 -0.00200516)
(0.0109246 0 -0.000782498)
(0.0313192 0 -0.00225055)
(0.0490649 0 -0.00355355)
(0.0644985 0 -0.00472575)
(0.0779395 0 -0.00579504)
(0.0896664 0 -0.00678299)
(0.0999255 0 -0.00770653)
(0.108947 0 -0.0085805)
(0.116916 0 -0.00941295)
(0.124028 0 -0.0102145)
(0.13045 0 -0.0109924)
(0.136349 0 -0.0117565)
(0.141879 0 -0.0125148)
(0.147193 0 -0.0132753)
(0.152438 0 -0.0140457)
(0.1578 0 -0.0148461)
(0.163416 0 -0.0156883)
(0.169476 0 -0.0165963)
(0.176154 0 -0.0175968)
(0.183604 0 -0.0187191)
(0.192039 0 -0.0200077)
(0.201636 0 -0.021512)
(0.21258 0 -0.0232917)
(0.22497 0 -0.025404)
(0.238828 0 -0.0279066)
(0.254122 0 -0.030859)
(0.270546 0 -0.0342963)
(0.287429 0 -0.0382443)
(0.30342 0 -0.0427838)
(0.317606 0 -0.0488197)
(0.0110546 0 -0.000828789)
(0.0317144 0 -0.00238555)
(0.0497267 0 -0.00376968)
(0.0654296 0 -0.00501716)
(0.0791531 0 -0.0061583)
(0.0911816 0 -0.00721631)
(0.101767 0 -0.00820967)
(0.111137 0 -0.00915366)
(0.11949 0 -0.0100594)
(0.127016 0 -0.0109385)
(0.13389 0 -0.0117991)
(0.14028 0 -0.0126516)
(0.14634 0 -0.0135067)
(0.152217 0 -0.0143732)
(0.158085 0 -0.0152658)
(0.164101 0 -0.0162008)
(0.170399 0 -0.0171932)
(0.177171 0 -0.0182708)
(0.184568 0 -0.0194597)
(0.192725 0 -0.0207899)
(0.201833 0 -0.0223075)
(0.212016 0 -0.0240564)
(0.223399 0 -0.026091)
(0.235983 0 -0.0284544)
(0.249679 0 -0.0311899)
(0.264296 0 -0.0343369)
(0.279291 0 -0.0378912)
(0.293797 0 -0.0418294)
(0.306689 0 -0.0461343)
(0.316968 0 -0.0509431)
(0.0111901 0 -0.000874788)
(0.0321219 0 -0.00251953)
(0.050406 0 -0.00398436)
(0.0663839 0 -0.00530702)
(0.0803941 0 -0.00651995)
(0.0927285 0 -0.00764837)
(0.103642 0 -0.00871198)
(0.113363 0 -0.00972707)
(0.122096 0 -0.0107066)
(0.130029 0 -0.0116628)
(0.137342 0 -0.0126063)
(0.144211 0 -0.01355)
(0.150779 0 -0.0145029)
(0.157188 0 -0.0154754)
(0.163627 0 -0.0164875)
(0.170227 0 -0.0175528)
(0.177117 0 -0.0186876)
(0.184485 0 -0.0199227)
(0.192447 0 -0.0212811)
(0.201113 0 -0.0227911)
(0.210638 0 -0.0244963)
(0.221084 0 -0.0264309)
(0.232499 0 -0.0286379)
(0.24477 0 -0.0311356)
(0.257706 0 -0.0339445)
(0.270976 0 -0.0370669)
(0.283998 0 -0.0404654)
(0.296057 0 -0.0441026)
(0.306355 0 -0.0479486)
(0.31408 0 -0.0519699)
(0.0113286 0 -0.000920061)
(0.0325366 0 -0.00265139)
(0.051095 0 -0.00419581)
(0.0673511 0 -0.00559302)
(0.0816501 0 -0.00687727)
(0.0942893 0 -0.00807547)
(0.105529 0 -0.00920913)
(0.115599 0 -0.0102954)
(0.124703 0 -0.0113485)
(0.13303 0 -0.0123816)
(0.140771 0 -0.0134082)
(0.148099 0 -0.0144426)
(0.155132 0 -0.0154901)
(0.162025 0 -0.0165648)
(0.168974 0 -0.0176912)
(0.176073 0 -0.0188772)
(0.183446 0 -0.0201406)
(0.191276 0 -0.0215152)
(0.19963 0 -0.0230154)
(0.208594 0 -0.0246678)
(0.218276 0 -0.0265091)
(0.22867 0 -0.0285594)
(0.239735 0 -0.0308435)
(0.2513 0 -0.0333621)
(0.263134 0 -0.036118)
(0.274877 0 -0.0390921)
(0.286041 0 -0.0422451)
(0.296086 0 -0.0455396)
(0.304388 0 -0.0488993)
(0.31041 0 -0.0522562)
(0.0114679 0 -0.000964142)
(0.0329534 0 -0.00277993)
(0.0517857 0 -0.00440212)
(0.0683184 0 -0.00587228)
(0.0829054 0 -0.00722682)
(0.0958459 0 -0.00849373)
(0.107405 0 -0.00969597)
(0.117814 0 -0.0108525)
(0.127278 0 -0.0119778)
(0.135991 0 -0.0130878)
(0.144144 0 -0.0141976)
(0.151882 0 -0.0153165)
(0.159333 0 -0.0164537)
(0.166665 0 -0.0176267)
(0.174043 0 -0.0188567)
(0.181538 0 -0.0201489)
(0.189294 0 -0.0215267)
(0.197432 0 -0.0230136)
(0.205992 0 -0.0246207)
(0.215045 0 -0.026372)
(0.224632 0 -0.0282913)
(0.234702 0 -0.0303878)
(0.245172 0 -0.0326723)
(0.255861 0 -0.03514)
(0.266522 0 -0.0377776)
(0.276831 0 -0.0405581)
(0.286416 0 -0.04345)
(0.294825 0 -0.0463891)
(0.301631 0 -0.0492972)
(0.306535 0 -0.0521212)
(0.0116056 0 -0.00100651)
(0.0333669 0 -0.00290377)
(0.0524695 0 -0.00460115)
(0.0692724 0 -0.00614176)
(0.0841418 0 -0.00756449)
(0.0973768 0 -0.00889839)
(0.109245 0 -0.0101672)
(0.11998 0 -0.0113916)
(0.129795 0 -0.0125889)
(0.13888 0 -0.0137742)
(0.147401 0 -0.0149609)
(0.155503 0 -0.0161584)
(0.163326 0 -0.0173794)
(0.171035 0 -0.018643)
(0.178745 0 -0.0199609)
(0.186544 0 -0.0213442)
(0.194549 0 -0.0228126)
(0.20283 0 -0.0243792)
(0.211434 0 -0.0260585)
(0.220394 0 -0.0278661)
(0.229705 0 -0.0298147)
(0.239304 0 -0.0319092)
(0.249075 0 -0.0341485)
(0.258845 0 -0.0365216)
(0.268385 0 -0.0390089)
(0.277442 0 -0.0415877)
(0.285687 0 -0.0442095)
(0.292786 0 -0.0468084)
(0.298491 0 -0.049334)
(0.302631 0 -0.0517328)
(0.0117395 0 -0.0010468)
(0.0337736 0 -0.003022)
(0.053137 0 -0.00479053)
(0.070198 0 -0.00639801)
(0.0853418 0 -0.00788609)
(0.0988579 0 -0.00928396)
(0.111032 0 -0.0106186)
(0.122091 0 -0.0119102)
(0.132233 0 -0.0131756)
(0.141641 0 -0.0144288)
(0.150483 0 -0.0156845)
(0.158904 0 -0.0169538)
(0.167043 0 -0.01825)
(0.17504 0 -0.0195886)
(0.182989 0 -0.0209787)
(0.190984 0 -0.0224328)
(0.199109 0 -0.0239651)
(0.207417 0 -0.0255866)
(0.215941 0 -0.027308)
(0.224684 0 -0.0291383)
(0.233616 0 -0.0310826)
(0.242663 0 -0.0331404)
(0.251707 0 -0.0353042)
(0.260585 0 -0.0375591)
(0.269123 0 -0.0398889)
(0.277082 0 -0.0422578)
(0.284201 0 -0.0446147)
(0.290277 0 -0.0469164)
(0.295155 0 -0.0491203)
(0.298741 0 -0.05118)
(0.0118644 0 -0.00108404)
(0.0341387 0 -0.00313014)
(0.0537519 0 -0.00496525)
(0.0710777 0 -0.00663711)
(0.0864876 0 -0.0081871)
(0.100285 0 -0.00964674)
(0.112744 0 -0.0110431)
(0.124089 0 -0.0123955)
(0.134518 0 -0.0137217)
(0.14421 0 -0.0150362)
(0.153329 0 -0.0163535)
(0.162017 0 -0.0176855)
(0.170403 0 -0.0190448)
(0.178606 0 -0.0204431)
(0.186718 0 -0.0218904)
(0.194819 0 -0.0233971)
(0.202971 0 -0.0249731)
(0.211214 0 -0.0266269)
(0.219563 0 -0.0283649)
(0.228006 0 -0.0301909)
(0.236498 0 -0.0321049)
(0.244964 0 -0.0341022)
(0.253293 0 -0.0361719)
(0.261361 0 -0.038302)
(0.268995 0 -0.0404662)
(0.275997 0 -0.0426252)
(0.2822 0 -0.0447443)
(0.287468 0 -0.0467884)
(0.291708 0 -0.0487226)
(0.29487 0 -0.0505095)
(0.0119772 0 -0.00111735)
(0.0344759 0 -0.00322767)
(0.0543233 0 -0.00512383)
(0.0718935 0 -0.00685435)
(0.0875525 0 -0.00846111)
(0.101606 0 -0.00997675)
(0.114321 0 -0.0114278)
(0.125922 0 -0.0128348)
(0.136605 0 -0.0142154)
(0.146545 0 -0.0155844)
(0.155896 0 -0.0169553)
(0.164797 0 -0.01834)
(0.173368 0 -0.0197501)
(0.181714 0 -0.0211957)
(0.189919 0 -0.0226857)
(0.198049 0 -0.024228)
(0.206153 0 -0.0258295)
(0.214258 0 -0.0274955)
(0.222366 0 -0.0292289)
(0.230457 0 -0.0310298)
(0.238482 0 -0.0328945)
(0.24637 0 -0.0348155)
(0.254038 0 -0.0367849)
(0.26136 0 -0.0387823)
(0.268183 0 -0.0407776)
(0.274379 0 -0.0427437)
(0.279832 0 -0.0446517)
(0.284452 0 -0.0464733)
(0.288185 0 -0.0481807)
(0.291007 0 -0.0497452)
(0.0120765 0 -0.00114622)
(0.0347771 0 -0.00331278)
(0.0548365 0 -0.00526265)
(0.0726278 0 -0.00704497)
(0.0885132 0 -0.00870211)
(0.102798 0 -0.0102672)
(0.115742 0 -0.0117667)
(0.127569 0 -0.0132216)
(0.138471 0 -0.0146494)
(0.148618 0 -0.0160648)
(0.158159 0 -0.0174808)
(0.167224 0 -0.0189085)