/*--------------------------------*- C++ -*----------------------------------*\
| =========                 |                                                 |
| \\      /  F ield         | OpenFOAM: The Open Source CFD Toolbox           |
|  \\    /   O peration     | Version:  dev                                   |
|   \\  /    A nd           | Web:      www.OpenFOAM.org                      |
|    \\/     M anipulation  |                                                 |
\*---------------------------------------------------------------------------*/
FoamFile
{
    version     2.0;
    format      ascii;
    class       volVectorField;
    location    "2.8";
    object      cellDisplacement;
}
// * * * * * * * * * * * * * * * * * * * * * * * * * * * * * * * * * * * * * //

dimensions      [0 1 0 0 0 0 0];

internalField   nonuniform List<vector> 
2790
(
(0.00976383 0 -2.69011e-05)
(0.0278812 0 -7.70613e-05)
(0.0433601 0 -0.000120856)
(0.0564256 0 -0.000159309)
(0.0673176 0 -0.000193261)
(0.0762455 0 -0.000223393)
(0.0834013 0 -0.000249616)
(0.0889578 0 -0.000272306)
(0.0930618 0 -0.000291526)
(0.0958406 0 -0.00030719)
(0.0974057 0 -0.000319082)
(0.0978553 0 -0.000326565)
(0.0972771 0 -0.000329162)
(0.0957491 0 -0.0003262)
(0.0933415 0 -0.00031682)
(0.0901197 0 -0.000300036)
(0.0861504 0 -0.000275178)
(0.0814902 0 -0.000239558)
(0.0761958 0 -0.000191978)
(0.0703298 0 -0.000130506)
(0.0639611 0 -5.29226e-05)
(0.0571641 0 4.34492e-05)
(0.0500215 0 0.00016165)
(0.0426244 0 0.000305131)
(0.0351071 0 0.000479073)
(0.0276361 0 0.000688239)
(0.0204342 0 0.000938777)
(0.0138349 0 0.00123681)
(0.00837717 0 0.00158079)
(0.0052182 0 0.00192163)
(0.00977758 0 -8.08018e-05)
(0.0279208 0 -0.000231489)
(0.0434242 0 -0.000363083)
(0.0565158 0 -0.000478672)
(0.0674366 0 -0.000580764)
(0.0763938 0 -0.000671591)
(0.0835807 0 -0.000750572)
(0.0891735 0 -0.000819055)
(0.0933187 0 -0.000877197)
(0.0961442 0 -0.000924758)
(0.0977623 0 -0.00096122)
(0.0982718 0 -0.000984492)
(0.0977618 0 -0.000993281)
(0.0963116 0 -0.00098561)
(0.0939923 0 -0.000958904)
(0.0908679 0 -0.000909988)
(0.0870096 0 -0.000835384)
(0.0824808 0 -0.000731122)
(0.0773343 0 -0.000591963)
(0.0716361 0 -0.000412055)
(0.065462 0 -0.000185094)
(0.0588934 0 9.67189e-05)
(0.0520257 0 0.000442154)
(0.0449484 0 0.000862494)
(0.0377991 0 0.0013692)
(0.0307757 0 0.00197328)
(0.0241135 0 0.00268693)
(0.0181841 0 0.00351748)
(0.0136523 0 0.00444417)
(0.0117275 0 0.00528586)
(0.00980517 0 -0.000134958)
(0.0279993 0 -0.000386716)
(0.0435511 0 -0.000606659)
(0.056694 0 -0.000800004)
(0.0676725 0 -0.00097082)
(0.0766867 0 -0.00112127)
(0.0839345 0 -0.00125339)
(0.0895995 0 -0.00136839)
(0.0938264 0 -0.00146638)
(0.0967445 0 -0.00154698)
(0.098468 0 -0.00160992)
(0.0990958 0 -0.0016509)
(0.0987211 0 -0.00166839)
(0.0974251 0 -0.00165924)
(0.0952816 0 -0.00161931)
(0.0923594 0 -0.00154352)
(0.0887259 0 -0.00142552)
(0.0844518 0 -0.00126067)
(0.0795982 0 -0.00104026)
(0.0742297 0 -0.000754702)
(0.0684365 0 -0.000395099)
(0.0623079 0 5.07236e-05)
(0.055949 0 0.000596077)
(0.0494863 0 0.00125574)
(0.0430738 0 0.00204308)
(0.0369391 0 0.00296973)
(0.0313528 0 0.00404231)
(0.0266744 0 0.00525325)
(0.0236132 0 0.00652587)
(0.0235527 0 0.00754406)
(0.00984757 0 -0.00018917)
(0.0281179 0 -0.000542171)
(0.0437405 0 -0.000850637)
(0.056959 0 -0.00112208)
(0.0680131 0 -0.00136208)
(0.0771126 0 -0.00157279)
(0.0844602 0 -0.0017591)
(0.0902338 0 -0.00192185)
(0.0945825 0 -0.00206121)
(0.0976383 0 -0.00217647)
(0.0995138 0 -0.00226593)
(0.100316 0 -0.00232729)
(0.100141 0 -0.0023574)
(0.0990722 0 -0.0023519)
(0.0971881 0 -0.00230538)
(0.094562 0 -0.00221142)
(0.0912662 0 -0.00206252)
(0.0873741 0 -0.00185084)
(0.0829597 0 -0.00156651)
(0.0780945 0 -0.00119808)
(0.0728645 0 -0.000732598)
(0.0673826 0 -0.000157296)
(0.0617671 0 0.000542286)
(0.0561631 0 0.00138049)
(0.0507639 0 0.00236872)
(0.0458495 0 0.0035101)
(0.0417506 0 0.00479102)
(0.0388465 0 0.00616781)
(0.0376697 0 0.00751554)
(0.0397749 0 0.00839948)
(0.00990516 0 -0.000243414)
(0.0282747 0 -0.000697052)
(0.0439885 0 -0.00109369)
(0.0573076 0 -0.00144317)
(0.0684648 0 -0.00175299)
(0.0776769 0 -0.00202618)
(0.085153 0 -0.00226795)
(0.0910692 0 -0.00248004)
(0.0955775 0 -0.0026628)
(0.098812 0 -0.00281531)
(0.100889 0 -0.00293469)
(0.101923 0 -0.00302084)
(0.10201 0 -0.00306914)
(0.101241 0 -0.00307438)
(0.0996964 0 -0.00303025)
(0.0974571 0 -0.00292935)
(0.0946009 0 -0.00276322)
(0.0912066 0 -0.00252231)
(0.0873509 0 -0.00219509)
(0.0831402 0 -0.001772)
(0.0786553 0 -0.0012373)
(0.0740196 0 -0.000578536)
(0.0693799 0 0.00021569)
(0.0649003 0 0.00115576)
(0.0607848 0 0.00224707)
(0.0573306 0 0.0034773)
(0.0549738 0 0.00479908)
(0.054136 0 0.00612255)
(0.055206 0 0.00729812)
(0.0594874 0 0.00782156)
(0.0099613 0 -0.000297297)
(0.0284523 0 -0.000851568)
(0.0442918 0 -0.00133684)
(0.0577384 0 -0.00176476)
(0.0690224 0 -0.00214361)
(0.0783703 0 -0.00247947)
(0.0860024 0 -0.00277776)
(0.0920927 0 -0.00304076)
(0.0967962 0 -0.00326917)
(0.100251 0 -0.00346226)
(0.102579 0 -0.00361793)
(0.103895 0 -0.00373437)
(0.104304 0 -0.00380769)
(0.1039 0 -0.00383228)
(0.102771 0 -0.00380139)
(0.101003 0 -0.00370721)
(0.0986832 0 -0.00354088)
(0.0959001 0 -0.00329268)
(0.0927437 0 -0.00295174)
(0.0893108 0 -0.0025057)
(0.0857192 0 -0.0019434)
(0.0820917 0 -0.00125287)
(0.0786195 0 -0.000430032)
(0.0754856 0 0.00052766)
(0.0729202 0 0.00161139)
(0.0711851 0 0.00279616)
(0.0707293 0 0.00400516)
(0.0720904 0 0.00509364)
(0.0755738 0 0.00588792)
(0.0818854 0 0.00591273)
(0.0100314 0 -0.000350948)
(0.0286654 0 -0.00100592)
(0.0446481 0 -0.00157986)
(0.0582351 0 -0.0020863)
(0.0696703 0 -0.00253503)
(0.0791875 0 -0.00293483)
(0.0870037 0 -0.00329125)
(0.0932989 0 -0.00360737)
(0.0982321 0 -0.00388437)
(0.101945 0 -0.0041219)
(0.104566 0 -0.00431823)
(0.106213 0 -0.00447089)
(0.106998 0 -0.00457702)
(0.10702 0 -0.0046308)
(0.106374 0 -0.0046255)
(0.105155 0 -0.00455343)
(0.103457 0 -0.00440599)
(0.101373 0 -0.0041733)
(0.0990292 0 -0.00384893)
(0.096511 0 -0.0034188)
(0.0939656 0 -0.00287713)
(0.0915291 0 -0.00221543)
(0.0893771 0 -0.0014327)
(0.0877332 0 -0.000540307)
(0.0868798 0 0.000433375)
(0.0870857 0 0.00144216)
(0.088671 0 0.00239925)
(0.0922595 0 0.00311322)
(0.0980669 0 0.00338722)
(0.106279 0 0.00283692)
(0.0101136 0 -0.000404246)
(0.0289102 0 -0.00115915)
(0.045053 0 -0.00182126)
(0.0588035 0 -0.00240638)
(0.0704138 0 -0.00292711)
(0.0801204 0 -0.0033919)
(0.088146 0 -0.00380814)
(0.0946742 0 -0.0041797)
(0.0998684 0 -0.00450842)
(0.103875 0 -0.00479447)
(0.106827 0 -0.00503649)
(0.108845 0 -0.00523146)
(0.110055 0 -0.00537893)
(0.110557 0 -0.00547258)
(0.110456 0 -0.00550623)
(0.109854 0 -0.00547301)
(0.108858 0 -0.0053657)
(0.107577 0 -0.00517715)
(0.106123 0 -0.00489857)
(0.104613 0 -0.00452166)
(0.103227 0 -0.00404754)
(0.102122 0 -0.00347503)
(0.101456 0 -0.002808)
(0.101466 0 -0.00206728)
(0.102431 0 -0.00129598)
(0.104681 0 -0.000571635)
(0.10844 0 1.34579e-05)
(0.114225 0 0.000251373)
(0.122164 0 -6.27523e-05)
(0.132092 0 -0.00120556)
(0.010207 0 -0.000457348)
(0.0291848 0 -0.00131182)
(0.0455045 0 -0.00206195)
(0.0594404 0 -0.00272608)
(0.0712421 0 -0.00331771)
(0.081155 0 -0.00384804)
(0.0894119 0 -0.00432549)
(0.0961975 0 -0.00475463)
(0.101679 0 -0.00513806)
(0.106009 0 -0.00547667)
(0.109325 0 -0.00576987)
(0.111761 0 -0.00601648)
(0.113439 0 -0.0062145)
(0.114469 0 -0.0063591)
(0.114963 0 -0.00644544)
(0.115035 0 -0.00646807)
(0.114796 0 -0.00642099)
(0.114393 0 -0.00630333)
(0.113922 0 -0.00610521)
(0.113536 0 -0.00582538)
(0.113394 0 -0.00546522)
(0.113675 0 -0.00503272)
(0.114607 0 -0.00454833)
(0.116413 0 -0.00404268)
(0.119312 0 -0.00356244)
(0.123686 0 -0.00321208)
(0.129716 0 -0.00309615)
(0.137604 0 -0.00339073)
(0.147488 0 -0.00430856)
(0.158844 0 -0.00599945)
(0.0103112 0 -0.000510161)
(0.0294872 0 -0.00146367)
(0.0459973 0 -0.00230148)
(0.0601258 0 -0.0030443)
(0.0721373 0 -0.00370735)
(0.0822844 0 -0.00430475)
(0.0907943 0 -0.00484514)
(0.0978599 0 -0.00533426)
(0.103654 0 -0.00577565)
(0.108334 0 -0.00617109)
(0.112045 0 -0.00652108)
(0.114927 0 -0.00682573)
(0.117107 0 -0.00708292)
(0.118702 0 -0.00728943)
(0.119834 0 -0.00744223)
(0.120626 0 -0.00753798)
(0.12121 0 -0.00757488)
(0.121718 0 -0.00755032)
(0.122278 0 -0.00746168)
(0.123082 0 -0.00731735)
(0.124267 0 -0.00711963)
(0.126039 0 -0.00688532)
(0.128615 0 -0.00664057)
(0.132275 0 -0.0064371)
(0.13721 0 -0.00632634)
(0.143742 0 -0.00641744)
(0.152026 0 -0.00682828)
(0.161985 0 -0.00768876)
(0.173637 0 -0.00918284)
(0.186113 0 -0.0113367)
(0.010426 0 -0.000562601)
(0.0298133 0 -0.00161369)
(0.0465244 0 -0.00253817)
(0.0608628 0 -0.00335959)
(0.0731021 0 -0.00409564)
(0.0834978 0 -0.00476107)
(0.0922785 0 -0.005366)
(0.0996431 0 -0.00591738)
(0.10577 0 -0.00641981)
(0.110821 0 -0.00687608)
(0.114949 0 -0.00728774)
(0.118305 0 -0.00765726)
(0.121014 0 -0.00798216)
(0.123201 0 -0.00826094)
(0.125 0 -0.00849307)
(0.126539 0 -0.00867705)
(0.12798 0 -0.00881747)
(0.129442 0 -0.0089116)
(0.131087 0 -0.00896445)
(0.133078 0 -0.0089833)
(0.135625 0 -0.00898748)
(0.13894 0 -0.00900159)
(0.143208 0 -0.00905258)
(0.148751 0 -0.00920825)
(0.155769 0 -0.00953111)
(0.164421 0 -0.0101081)
(0.174878 0 -0.0110677)
(0.18691 0 -0.0125016)
(0.200187 0 -0.0145134)
(0.213527 0 -0.0170248)
(0.010534 0 -0.000613707)
(0.0301449 0 -0.00176135)
(0.0470825 0 -0.00277262)
(0.0616466 0 -0.00367266)
(0.0741267 0 -0.00448181)
(0.0847838 0 -0.00521601)
(0.0938499 0 -0.00588686)
(0.101529 0 -0.00650258)
(0.108005 0 -0.00706892)
(0.113445 0 -0.00758974)
(0.118008 0 -0.00806769)
(0.121857 0 -0.00850874)
(0.12511 0 -0.00890864)
(0.127906 0 -0.009269)
(0.130392 0 -0.00959263)
(0.13271 0 -0.00988196)
(0.135 0 -0.0101389)
(0.137431 0 -0.0103721)
(0.140175 0 -0.0105924)
(0.14339 0 -0.0108092)
(0.14728 0 -0.0110452)
(0.152106 0 -0.0113418)
(0.158073 0 -0.0117343)
(0.165454 0 -0.0122895)
(0.174477 0 -0.0130833)
(0.185214 0 -0.0141837)
(0.197798 0 -0.0157049)
(0.211835 0 -0.0176864)
(0.226643 0 -0.0201365)
(0.240703 0 -0.0229002)
(0.0106499 0 -0.000664024)
(0.0304954 0 -0.00190712)
(0.0476675 0 -0.00300424)
(0.0624689 0 -0.00398258)
(0.0752003 0 -0.00486475)
(0.0861292 0 -0.00566823)
(0.0954922 0 -0.00640612)
(0.103498 0 -0.00708794)
(0.110335 0 -0.00772071)
(0.116175 0 -0.00830939)
(0.121192 0 -0.00886018)
(0.125538 0 -0.00937595)
(0.129344 0 -0.00985728)
(0.132755 0 -0.0103067)
(0.135933 0 -0.010732)
(0.139034 0 -0.0111392)
(0.142195 0 -0.0115317)
(0.145575 0 -0.0119188)
(0.149377 0 -0.0123206)
(0.15379 0 -0.0127582)
(0.158993 0 -0.0132533)
(0.165276 0 -0.0138594)
(0.172861 0 -0.0146228)
(0.181937 0 -0.0155974)
(0.192786 0 -0.0168755)
(0.205493 0 -0.018521)
(0.220062 0 -0.0206041)
(0.235997 0 -0.0231022)
(0.252305 0 -0.0259156)
(0.267114 0 -0.02885)
(0.0107718 0 -0.00071356)
(0.0308604 0 -0.00205053)
(0.0482743 0 -0.00323233)
(0.0633217 0 -0.00428833)
(0.0763124 0 -0.00524325)
(0.0875209 0 -0.00611619)
(0.0971891 0 -0.00692191)
(0.10553 0 -0.00767121)
(0.112736 0 -0.0083725)
(0.118986 0 -0.00903188)
(0.124463 0 -0.00965898)
(0.129305 0 -0.0102538)
(0.133666 0 -0.0108223)
(0.137704 0 -0.0113707)
(0.141564 0 -0.0119042)
(0.145418 0 -0.0124349)
(0.149431 0 -0.012974)
(0.153746 0 -0.0135306)
(0.158551 0 -0.0141252)
(0.164074 0 -0.0147919)
(0.170516 0 -0.0155621)
(0.17813 0 -0.0164883)
(0.187135 0 -0.0176254)
(0.197706 0 -0.0190275)
(0.210127 0 -0.0207906)
(0.224472 0 -0.0229723)
(0.24068 0 -0.0256084)
(0.258227 0 -0.0286147)
(0.27594 0 -0.0317666)
(0.291755 0 -0.0348446)
(0.0108979 0 -0.000762109)
(0.0312363 0 -0.00219111)
(0.0488975 0 -0.00345617)
(0.0641971 0 -0.0045889)
(0.0774523 0 -0.00561599)
(0.0889453 0 -0.0065582)
(0.0989239 0 -0.00743216)
(0.107604 0 -0.00824985)
(0.115183 0 -0.00902128)
(0.121851 0 -0.0097554)
(0.12778 0 -0.0104592)
(0.133113 0 -0.0111359)
(0.138025 0 -0.0117959)
(0.142677 0 -0.0124484)
(0.147211 0 -0.0130982)
(0.151786 0 -0.0137571)
(0.156593 0 -0.0144449)
(0.161786 0 -0.0151769)
(0.167531 0 -0.015972)
(0.174068 0 -0.0168722)
(0.181599 0 -0.0179151)
(0.190346 0 -0.0191534)
(0.200497 0 -0.0206443)
(0.212263 0 -0.0224564)
(0.225829 0 -0.0246714)
(0.241247 0 -0.0273498)
(0.258383 0 -0.0305137)
(0.276728 0 -0.0340644)
(0.295084 0 -0.0376565)
(0.312288 0 -0.0410381)
(0.00672468 0 -0.00241463)
(0.0137842 0 -0.00267922)
(0.0273695 0 -0.00295981)
(0.0464419 0 -0.00325446)
(0.0687965 0 -0.00348748)
(0.0921036 0 -0.0036447)
(0.114293 0 -0.0036958)
(0.134113 0 -0.00368358)
(0.151093 0 -0.00360819)
(0.165079 0 -0.003474)
(0.176179 0 -0.00331879)
(0.184705 0 -0.0031531)
(0.190893 0 -0.00296717)
(0.194918 0 -0.002768)
(0.196981 0 -0.00258706)
(0.197205 0 -0.00239472)
(0.195686 0 -0.00222103)
(0.192477 0 -0.00203909)
(0.187604 0 -0.00186936)
(0.181063 0 -0.00171158)
(0.172853 0 -0.00154685)
(0.162925 0 -0.00139047)
(0.151193 0 -0.00123725)
(0.137663 0 -0.00108597)
(0.122276 0 -0.000934997)
(0.10489 0 -0.000781846)
(0.0854162 0 -0.000624332)
(0.0637697 0 -0.000459927)
(0.0398951 0 -0.000286127)
(0.0136991 0 -9.86357e-05)
(0.0123126 0 -0.00725749)
(0.0197403 0 -0.00802438)
(0.0335498 0 -0.00889188)
(0.0524071 0 -0.00970635)
(0.074269 0 -0.010369)
(0.096908 0 -0.0107933)
(0.118393 0 -0.0109505)
(0.137543 0 -0.0108841)
(0.153909 0 -0.0106562)
(0.167364 0 -0.0102608)
(0.178041 0 -0.00979687)
(0.186216 0 -0.009295)
(0.192108 0 -0.00874717)
(0.195904 0 -0.00817634)
(0.197787 0 -0.00763224)
(0.197862 0 -0.00707914)
(0.196227 0 -0.00655783)
(0.192925 0 -0.00603484)
(0.187968 0 -0.00553508)
(0.181371 0 -0.00506028)
(0.173118 0 -0.00458417)
(0.163144 0 -0.00412361)
(0.151376 0 -0.00367081)
(0.137817 0 -0.00322293)
(0.122405 0 -0.00277576)
(0.104996 0 -0.00232178)
(0.0854981 0 -0.00185445)
(0.0638226 0 -0.00136624)
(0.0399148 0 -0.000850215)
(0.0137005 0 -0.000292368)
(0.0227235 0 -0.0121129)
(0.0310295 0 -0.0133881)
(0.0451787 0 -0.0148075)
(0.0635825 0 -0.0160595)
(0.0845909 0 -0.0170695)
(0.106018 0 -0.0176786)
(0.126188 0 -0.0178957)
(0.144063 0 -0.0177428)
(0.159275 0 -0.0173346)
(0.171742 0 -0.0167065)
(0.181603 0 -0.0159382)
(0.189112 0 -0.0151156)
(0.194449 0 -0.0142221)
(0.197808 0 -0.0133158)
(0.199337 0 -0.0124242)
(0.19913 0 -0.0115432)
(0.197267 0 -0.0106891)
(0.193782 0 -0.00985535)
(0.188675 0 -0.00904613)
(0.181959 0 -0.00826473)
(0.173612 0 -0.00750105)
(0.163556 0 -0.00675355)
(0.151722 0 -0.00601575)
(0.138107 0 -0.00528404)
(0.122646 0 -0.00455286)
(0.105192 0 -0.00380977)
(0.0856507 0 -0.00304392)
(0.0639201 0 -0.00224257)
(0.0399871 0 -0.00139491)
(0.0137426 0 -0.000479841)
(0.0373636 0 -0.0171318)
(0.0468489 0 -0.0189012)
(0.0612302 0 -0.0207404)
(0.07908 0 -0.0223578)
(0.0989037 0 -0.0236041)
(0.1187 0 -0.0243212)
(0.137051 0 -0.0245032)
(0.153197 0 -0.024242)
(0.166811 0 -0.0236131)
(0.177917 0 -0.0227494)
(0.186641 0 -0.0217007)
(0.193217 0 -0.0205764)
(0.197786 0 -0.0193748)
(0.200529 0 -0.0181571)
(0.201559 0 -0.0169504)
(0.200949 0 -0.0157637)
(0.198759 0 -0.0146058)
(0.195012 0 -0.0134804)
(0.189691 0 -0.0123835)
(0.182803 0 -0.0113187)
(0.174316 0 -0.0102825)
(0.164146 0 -0.00926541)
(0.152218 0 -0.00825895)
(0.138521 0 -0.00725752)
(0.122987 0 -0.00625601)
(0.105469 0 -0.00523714)
(0.0858707 0 -0.00418599)
(0.0640889 0 -0.00308499)
(0.0401048 0 -0.00191723)
(0.0137897 0 -0.000659771)
(0.0555129 0 -0.0224112)
(0.0661894 0 -0.0246006)
(0.0807153 0 -0.0267634)
(0.0979367 0 -0.0286382)
(0.116267 0 -0.0299779)
(0.134087 0 -0.0306894)
(0.150277 0 -0.0307611)
(0.164342 0 -0.0303324)
(0.176055 0 -0.0294804)
(0.185524 0 -0.0283606)
(0.192883 0 -0.0270541)
(0.198315 0 -0.0256432)
(0.201957 0 -0.0241713)
(0.203941 0 -0.0226732)
(0.204351 0 -0.0211829)
(0.203239 0 -0.0197179)
(0.200641 0 -0.0182842)
(0.196566 0 -0.0168908)
(0.190977 0 -0.01553)
(0.183869 0 -0.0142037)
(0.175204 0 -0.0129136)
(0.164889 0 -0.0116459)
(0.152846 0 -0.010389)
(0.139044 0 -0.00913239)
(0.123414 0 -0.00787571)
(0.105814 0 -0.00659605)
(0.0861475 0 -0.00527455)
(0.0643197 0 -0.00388996)
(0.0402682 0 -0.00241875)
(0.0138454 0 -0.000832224)
(0.0764914 0 -0.0279848)
(0.0881561 0 -0.0304774)
(0.102771 0 -0.0328711)
(0.11916 0 -0.0348637)
(0.135748 0 -0.0361699)
(0.151341 0 -0.0367514)
(0.165155 0 -0.0366427)
(0.176904 0 -0.0359862)
(0.186543 0 -0.0349061)
(0.194201 0 -0.0335372)
(0.200031 0 -0.0319822)
(0.20418 0 -0.0303129)
(0.206775 0 -0.028593)
(0.207895 0 -0.0268445)
(0.207597 0 -0.0251018)
(0.205909 0 -0.0233873)
(0.20284 0 -0.0217058)
(0.198383 0 -0.0200703)
(0.192486 0 -0.0184711)
(0.18512 0 -0.0169045)
(0.176243 0 -0.0153813)
(0.165757 0 -0.0138833)
(0.153585 0 -0.0123971)
(0.139664 0 -0.0109077)
(0.123913 0 -0.009412)
(0.106215 0 -0.00788691)
(0.086467 0 -0.0063099)
(0.0645689 0 -0.00465605)
(0.0404359 0 -0.00289744)
(0.0139049 0 -0.000997044)
(0.099695 0 -0.033824)
(0.11214 0 -0.0365262)
(0.126646 0 -0.0390297)
(0.141912 0 -0.0409817)
(0.15657 0 -0.042135)
(0.169751 0 -0.0424838)
(0.181032 0 -0.0421199)
(0.190348 0 -0.0411996)
(0.197803 0 -0.0398706)
(0.203553 0 -0.0382569)
(0.207772 0 -0.0364692)
(0.210557 0 -0.0345639)
(0.212039 0 -0.0326248)
(0.212235 0 -0.0306567)
(0.211172 0 -0.0286924)
(0.20886 0 -0.0267587)
(0.205276 0 -0.0248556)
(0.200401 0 -0.0230053)
(0.194168 0 -0.0211962)
(0.186521 0 -0.0194206)
(0.177404 0 -0.0176871)
(0.166725 0 -0.0159797)
(0.154398 0 -0.0142837)
(0.140341 0 -0.0125836)
(0.124465 0 -0.0108668)
(0.10666 0 -0.00911169)
(0.0868175 0 -0.00729356)
(0.0648332 0 -0.00538437)
(0.0406078 0 -0.00335216)
(0.0139661 0 -0.00115361)
(0.124592 0 -0.0398642)
(0.137567 0 -0.0426847)
(0.151702 0 -0.0451749)
(0.165559 0 -0.0469458)
(0.17804 0 -0.0478143)
(0.188642 0 -0.0478329)
(0.197295 0 -0.0471505)
(0.204135 0 -0.045938)
(0.209381 0 -0.0443515)
(0.213201 0 -0.0424991)
(0.215801 0 -0.0405037)
(0.217218 0 -0.0383961)
(0.217553 0 -0.0362566)
(0.2168 0 -0.0340999)
(0.214946 0 -0.0319432)
(0.211991 0 -0.0298233)
(0.207876 0 -0.0277357)
(0.20256 0 -0.0256999)
(0.195967 0 -0.0237084)
(0.188024 0 -0.0217547)
(0.178654 0 -0.0198362)
(0.167765 0 -0.0179407)
(0.155265 0 -0.0160534)
(0.14106 0 -0.0141576)
(0.125052 0 -0.0122363)
(0.107131 0 -0.0102668)
(0.0871861 0 -0.00822246)
(0.0651061 0 -0.00607258)
(0.0407816 0 -0.00378174)
(0.0140275 0 -0.00130146)
(0.15072 0 -0.0460256)
(0.163953 0 -0.0488776)
(0.177388 0 -0.0512261)
(0.189479 0 -0.0526681)
(0.199511 0 -0.0531236)
(0.207394 0 -0.0527281)
(0.213382 0 -0.0516817)
(0.217769 0 -0.0501627)
(0.22086 0 -0.0483264)
(0.22282 0 -0.0462593)
(0.223832 0 -0.044071)
(0.223924 0 -0.041799)
(0.22312 0 -0.039484)
(0.221434 0 -0.0371697)
(0.218809 0 -0.0348603)
(0.215211 0 -0.0325872)
(0.210568 0 -0.0303526)
(0.204807 0 -0.0281637)
(0.197843 0 -0.0260171)
(0.189591 0 -0.0239066)
(0.179958 0 -0.0218258)
(0.16885 0 -0.0197628)
(0.156165 0 -0.0177025)
(0.141802 0 -0.0156274)
(0.125656 0 -0.0135178)
(0.107614 0 -0.0113495)
(0.0875614 0 -0.00909422)
(0.0653803 0 -0.00671888)
(0.0409537 0 -0.00418513)
(0.0140878 0 -0.0014402)
(0.177688 0 -0.0522292)
(0.190897 0 -0.0550309)
(0.203183 0 -0.0570834)
(0.21306 0 -0.0580317)
(0.220353 0 -0.0579542)
(0.225416 0 -0.0570833)
(0.228766 0 -0.0556527)
(0.230788 0 -0.0538304)
(0.231852 0 -0.0517649)
(0.232086 0 -0.0495202)
(0.23159 0 -0.047164)
(0.230435 0 -0.0447564)
(0.228583 0 -0.0423141)
(0.226017 0 -0.0398769)
(0.222663 0 -0.0374554)
(0.218447 0 -0.0350652)
(0.213284 0 -0.0327117)
(0.207082 0 -0.0303982)
(0.199747 0 -0.028122)
(0.191181 0 -0.0258771)
(0.181283 0 -0.0236553)
(0.169949 0 -0.0214445)
(0.157074 0 -0.0192292)
(0.142548 0 -0.0169913)
(0.126261 0 -0.0147093)
(0.108096 0 -0.0123579)
(0.0879326 0 -0.00990713)
(0.0656486 0 -0.0073219)
(0.0411202 0 -0.00456149)
(0.0141455 0 -0.00156957)
(0.205196 0 -0.0584204)
(0.218023 0 -0.0610647)
(0.228503 0 -0.0626047)
(0.235616 0 -0.0628765)
(0.239906 0 -0.0621698)
(0.242129 0 -0.0607989)
(0.242962 0 -0.0590004)
(0.242819 0 -0.0569119)
(0.242011 0 -0.0546432)
(0.240689 0 -0.0522596)
(0.238876 0 -0.0497901)
(0.236606 0 -0.0472846)
(0.233822 0 -0.0447615)
(0.230456 0 -0.0422427)
(0.22642 0 -0.0397402)
(0.221621 0 -0.0372642)
(0.21596 0 -0.0348194)
(0.209332 0 -0.0324075)
(0.201634 0 -0.0300256)
(0.192758 0 -0.0276679)
(0.182595 0 -0.0253252)
(0.171037 0 -0.0229854)
(0.15797 0 -0.0206327)
(0.143281 0 -0.0182484)
(0.126852 0 -0.0158099)
(0.108563 0 -0.0132909)
(0.0882897 0 -0.0106601)
(0.0659043 0 -0.00788075)
(0.0412771 0 -0.00491025)
(0.0141994 0 -0.00168934)
(0.233027 0 -0.06457)
(0.244825 0 -0.0668427)
(0.252541 0 -0.0675603)
(0.256323 0 -0.0669833)
(0.257463 0 -0.0656082)
(0.256963 0 -0.0637693)
(0.25551 0 -0.0616571)
(0.253506 0 -0.059375)
(0.251121 0 -0.0569711)
(0.24848 0 -0.0544951)
(0.245567 0 -0.0519675)
(0.242346 0 -0.0494124)
(0.23874 0 -0.0468453)
(0.23466 0 -0.0442804)
(0.230004 0 -0.0417276)
(0.224668 0 -0.0391941)
(0.21854 0 -0.0366839)
(0.211509 0 -0.0341975)
(0.203462 0 -0.0317322)
(0.194287 0 -0.0292819)
(0.183867 0 -0.0268375)
(0.172088 0 -0.0243866)
(0.158833 0 -0.0219134)
(0.143982 0 -0.0193986)
(0.127413 0 -0.0168192)
(0.109003 0 -0.0141479)
(0.0886235 0 -0.0113525)
(0.0661407 0 -0.0083949)
(0.0414205 0 -0.00523107)
(0.0142482 0 -0.00179941)
(0.260908 0 -0.0706141)
(0.270325 0 -0.0720515)
(0.274099 0 -0.0715768)
(0.274179 0 -0.0700722)
(0.272287 0 -0.0680982)
(0.269453 0 -0.0659138)
(0.266158 0 -0.0636045)
(0.262672 0 -0.0612148)
(0.259079 0 -0.0587615)
(0.255397 0 -0.0562607)
(0.251583 0 -0.0537232)
(0.247567 0 -0.0511614)
(0.24326 0 -0.0485859)
(0.238558 0 -0.0460068)
(0.233352 0 -0.0434318)
(0.22753 0 -0.0408666)
(0.220975 0 -0.0383145)
(0.21357 0 -0.0357757)
(0.205196 0 -0.0332474)
(0.195736 0 -0.0307236)
(0.185071 0 -0.0281953)
(0.17308 0 -0.0256503)
(0.159642 0 -0.0230726)
(0.144635 0 -0.0204428)
(0.127933 0 -0.0177376)
(0.109407 0 -0.0149291)
(0.0889255 0 -0.0119842)
(0.0663518 0 -0.00886422)
(0.0415468 0 -0.00552382)
(0.0142907 0 -0.00189973)
(0.28784 0 -0.0762185)
(0.292514 0 -0.0759922)
(0.291503 0 -0.0741063)
(0.288239 0 -0.0718598)
(0.283993 0 -0.0695358)
(0.279459 0 -0.0672052)
(0.274881 0 -0.0648561)
(0.270348 0 -0.0624741)
(0.265864 0 -0.0600512)
(0.261394 0 -0.0575875)
(0.256873 0 -0.0550871)
(0.252216 0 -0.0525572)
(0.247327 0 -0.0500058)
(0.242097 0 -0.0474408)
(0.236414 0 -0.0448688)
(0.230163 0 -0.042295)
(0.223224 0 -0.0397223)
(0.215478 0 -0.0371508)
(0.206804 0 -0.0345779)
(0.197079 0 -0.0319981)
(0.186183 0 -0.0294026)
(0.173992 0 -0.0267792)
(0.160382 0 -0.0241122)
(0.145227 0 -0.0213824)
(0.128398 0 -0.018566)
(0.109763 0 -0.0156349)
(0.0891883 0 -0.0125557)
(0.0665324 0 -0.00928887)
(0.041653 0 -0.0057886)
(0.0143258 0 -0.00199036)
(0.309881 0 -0.0800079)
(0.309085 0 -0.0774062)
(0.303868 0 -0.074544)
(0.298257 0 -0.0721224)
(0.292632 0 -0.0698825)
(0.287128 0 -0.0676851)
(0.28178 0 -0.0654675)
(0.276581 0 -0.0632042)
(0.271494 0 -0.0608865)
(0.266463 0 -0.0585145)
(0.261415 0 -0.0560928)
(0.256261 0 -0.0536284)
(0.250904 0 -0.0511291)
(0.245238 0 -0.0486027)
(0.239152 0 -0.0460557)
(0.232531 0 -0.0434933)
(0.225255 0 -0.0409186)
(0.217204 0 -0.038332)
(0.208257 0 -0.0357313)
(0.198291 0 -0.0331114)
(0.187183 0 -0.0304639)
(0.174806 0 -0.0277769)
(0.161036 0 -0.0250351)
(0.145743 0 -0.0222192)
(0.128797 0 -0.0193057)
(0.110064 0 -0.0162664)
(0.0894049 0 -0.0130675)
(0.0666776 0 -0.00966931)
(0.041736 0 -0.00602569)
(0.0143525 0 -0.00207137)
(0.011029 0 -0.000810353)
(0.0316261 0 -0.00233088)
(0.0495431 0 -0.00367903)
(0.0651034 0 -0.00488867)
(0.0786304 0 -0.0059884)
(0.0904151 0 -0.00700051)
(0.100712 0 -0.00794403)
(0.10974 0 -0.0088317)
(0.117704 0 -0.00967624)
(0.124795 0 -0.0104878)
(0.131171 0 -0.0112714)
(0.137006 0 -0.0120362)
(0.14246 0 -0.0127909)
(0.147707 0 -0.0135493)
(0.152892 0 -0.0143202)
(0.158166 0 -0.0151139)
(0.163727 0 -0.0159553)
(0.169716 0 -0.0168613)
(0.176328 0 -0.0178606)
(0.183758 0 -0.0189911)
(0.192205 0 -0.020296)
(0.201853 0 -0.021827)
(0.212853 0 -0.0236413)
(0.225385 0 -0.0258111)
(0.239522 0 -0.0284067)
(0.255222 0 -0.0314917)
(0.272172 0 -0.0351048)
(0.289726 0 -0.0392862)
(0.306469 0 -0.0441127)
(0.321561 0 -0.0505755)
(0.0111654 0 -0.000858562)
(0.032031 0 -0.00247068)
(0.0502131 0 -0.00390224)
(0.0660439 0 -0.00518949)
(0.07985 0 -0.00636276)
(0.0919407 0 -0.00744772)
(0.102568 0 -0.00846293)
(0.111949 0 -0.00942227)
(0.120306 0 -0.0103422)
(0.127815 0 -0.0112315)
(0.134647 0 -0.0120988)
(0.140977 0 -0.0129552)
(0.146967 0 -0.0138093)
(0.152794 0 -0.0146776)
(0.158591 0 -0.0155695)
(0.164536 0 -0.0165028)
(0.170791 0 -0.0174985)
(0.1775 0 -0.018577)
(0.184856 0 -0.0197722)
(0.193021 0 -0.0211189)
(0.202169 0 -0.0226617)
(0.212436 0 -0.0244477)
(0.223911 0 -0.0265279)
(0.236699 0 -0.0289674)
(0.250731 0 -0.0318143)
(0.265797 0 -0.0351108)
(0.281335 0 -0.0388492)
(0.296451 0 -0.0430071)
(0.309922 0 -0.0475353)
(0.320692 0 -0.0525549)
(0.0113048 0 -0.00090608)
(0.0324448 0 -0.0026086)
(0.0508974 0 -0.00412276)
(0.0670056 0 -0.00548731)
(0.0811071 0 -0.00673513)
(0.0935071 0 -0.00789325)
(0.104453 0 -0.00897958)
(0.114194 0 -0.0100129)
(0.122947 0 -0.0110099)
(0.130871 0 -0.0119788)
(0.138148 0 -0.0129307)
(0.144951 0 -0.0138774)
(0.151464 0 -0.0148339)
(0.157837 0 -0.0158123)
(0.164203 0 -0.0168244)
(0.17075 0 -0.0178931)
(0.177615 0 -0.0190365)
(0.18493 0 -0.0202764)
(0.19288 0 -0.0216492)
(0.201585 0 -0.0231846)
(0.211182 0 -0.0249246)
(0.221745 0 -0.0269064)
(0.23329 0 -0.0291693)
(0.245818 0 -0.0317593)
(0.259119 0 -0.0346895)
(0.272825 0 -0.0379595)
(0.286321 0 -0.0415226)
(0.298858 0 -0.0453326)
(0.30959 0 -0.0493453)
(0.317644 0 -0.0535049)
(0.0114473 0 -0.000952831)
(0.0328657 0 -0.00274432)
(0.0515919 0 -0.00433996)
(0.0679813 0 -0.00578113)
(0.0823783 0 -0.00710271)
(0.0950848 0 -0.00833232)
(0.106357 0 -0.00949052)
(0.116461 0 -0.0105995)
(0.125598 0 -0.0116734)
(0.133926 0 -0.012722)
(0.141631 0 -0.0137582)
(0.148886 0 -0.0147947)
(0.15589 0 -0.0158523)
(0.16276 0 -0.0169372)
(0.169633 0 -0.0180636)
(0.176706 0 -0.0192604)
(0.184075 0 -0.0205385)
(0.19186 0 -0.0219206)
(0.20024 0 -0.0234453)
(0.209272 0 -0.0251318)
(0.219056 0 -0.0270173)
(0.22959 0 -0.0291229)
(0.240831 0 -0.0314741)
(0.252674 0 -0.0340908)
(0.264847 0 -0.036962)
(0.276969 0 -0.0400664)
(0.288522 0 -0.0433562)
(0.29895 0 -0.0467902)
(0.30759 0 -0.0502801)
(0.313863 0 -0.0537385)
(0.011592 0 -0.00099846)
(0.0332896 0 -0.0028767)
(0.0522882 0 -0.00455185)
(0.0689592 0 -0.00606821)
(0.0836504 0 -0.00746233)
(0.096663 0 -0.00876285)
(0.108263 0 -0.00999254)
(0.118723 0 -0.0111765)
(0.128228 0 -0.0123259)
(0.136942 0 -0.0134528)
(0.145048 0 -0.014571)
(0.152737 0 -0.0156975)
(0.160185 0 -0.0168506)
(0.167489 0 -0.0180347)
(0.174809 0 -0.0192696)
(0.18231 0 -0.0205799)
(0.190057 0 -0.0219736)
(0.198187 0 -0.0234775)
(0.206811 0 -0.0251186)
(0.215952 0 -0.0269104)
(0.225662 0 -0.0288802)
(0.23589 0 -0.0310376)
(0.246558 0 -0.0333953)
(0.257504 0 -0.0359541)
(0.268462 0 -0.0386952)
(0.279088 0 -0.0415869)
(0.288999 0 -0.0445948)
(0.29772 0 -0.047649)
(0.304795 0 -0.0506596)
(0.309905 0 -0.0535659)
(0.0117401 0 -0.0010429)
(0.0337124 0 -0.00300448)
(0.0529761 0 -0.00475608)
(0.0699262 0 -0.00634544)
(0.0849077 0 -0.00781018)
(0.09822 0 -0.00917992)
(0.110153 0 -0.0104816)
(0.120956 0 -0.0117376)
(0.130803 0 -0.0129593)
(0.139878 0 -0.0141616)
(0.148359 0 -0.015359)
(0.156449 0 -0.0165725)
(0.164278 0 -0.0178119)
(0.171957 0 -0.0190873)
(0.179649 0 -0.0204202)
(0.187462 0 -0.0218244)
(0.195475 0 -0.0233132)
(0.203794 0 -0.0249085)
(0.212471 0 -0.0266247)
(0.221531 0 -0.0284766)
(0.230973 0 -0.0304784)
(0.240734 0 -0.0326351)
(0.250701 0 -0.0349468)
(0.260701 0 -0.0374032)
(0.270497 0 -0.0399812)
(0.279826 0 -0.042657)
(0.288346 0 -0.0453779)
(0.295698 0 -0.048071)
(0.301624 0 -0.0506807)
(0.305939 0 -0.0531496)
(0.0118661 0 -0.00108356)
(0.0341057 0 -0.00312453)
(0.0536468 0 -0.00495091)
(0.0708726 0 -0.00661065)
(0.0861397 0 -0.00814363)
(0.0997561 0 -0.00958152)
(0.112003 0 -0.0109517)
(0.123114 0 -0.0122741)
(0.133283 0 -0.0135646)
(0.142688 0 -0.0148378)
(0.151523 0 -0.0161117)
(0.159958 0 -0.0174029)
(0.168104 0 -0.0187192)
(0.17609 0 -0.0200745)
(0.18405 0 -0.0214863)
(0.192066 0 -0.0229645)
(0.200221 0 -0.0245233)
(0.208583 0 -0.0261774)
(0.217187 0 -0.0279382)
(0.226036 0 -0.0298149)
(0.235101 0 -0.031813)
(0.244306 0 -0.0339317)
(0.253531 0 -0.0361638)
(0.262615 0 -0.0384937)
(0.271377 0 -0.0409048)
(0.279569 0 -0.0433587)
(0.286917 0 -0.0457992)
(0.293204 0 -0.0481797)
(0.298267 0 -0.0504549)
(0.302006 0 -0.0525758)
(0.0119905 0 -0.0011218)
(0.0344869 0 -0.00323733)
(0.0542914 0 -0.00513382)
(0.0717835 0 -0.00686012)
(0.0873255 0 -0.00845773)
(0.101228 0 -0.0099595)
(0.113764 0 -0.0113924)
(0.125165 0 -0.0127776)
(0.135631 0 -0.0141321)
(0.145343 0 -0.0154719)
(0.15448 0 -0.0168139)
(0.163187 0 -0.0181702)
(0.171589 0 -0.0195523)
(0.179802 0 -0.0209728)
(0.187935 0 -0.0224448)
(0.196067 0 -0.0239787)
(0.204264 0 -0.0255852)
(0.212571 0 -0.0272744)
(0.221005 0 -0.0290534)
(0.229557 0 -0.0309266)
(0.238179 0 -0.0328937)
(0.246794 0 -0.0349492)
(0.255288 0 -0.0370821)
(0.263541 0 -0.039281)
(0.271372 0 -0.0415181)
(0.278572 0 -0.0437504)
(0.284967 0 -0.0459411)
(0.290413 0 -0.0480526)
(0.29481 0 -0.0500482)
(0.298107 0 -0.0518891)
(0.0121075 0 -0.00115654)
(0.0348425 0 -0.0033397)
(0.0548918 0 -0.00530004)
(0.0726337 0 -0.00708734)
(0.0884326 0 -0.00874425)
(0.102599 0 -0.0103044)
(0.1154 0 -0.0117948)
(0.127067 0 -0.0132372)
(0.137798 0 -0.0146494)
(0.147773 0 -0.0160475)
(0.157156 0 -0.0174464)
(0.166085 0 -0.0188584)
(0.174682 0 -0.0202948)
(0.183052 0 -0.0217665)
(0.191288 0 -0.0232841)
(0.199459 0 -0.0248562)
(0.207617 0 -0.0264909)
(0.215792 0 -0.0281941)
(0.22399 0 -0.0299695)
(0.232189 0 -0.0318174)
(0.24034 0 -0.033734)
(0.248366 0 -0.0357102)
(0.256187 0 -0.0377387)
(0.263673 0 -0.039799)
(0.270667 0 -0.0418587)
(0.277033 0 -0.0438887)
(0.282649 0 -0.0458588)
(0.287421 0 -0.0477389)
(0.29129 0 -0.0495002)
(0.294231 0 -0.0511126)
(0.0122121 0 -0.0011868)
(0.0351616 0 -0.00342912)
(0.0554329 0 -0.00544574)
(0.0734033 0 -0.00728717)
(0.0894368 0 -0.00899682)
(0.103842 0 -0.0106088)
(0.116882 0 -0.0121502)
(0.128785 0 -0.0136431)
(0.139747 0 -0.0151056)
(0.149942 0 -0.0165533)
(0.159525 0 -0.0180002)