/*--------------------------------*- C++ -*----------------------------------*\
| =========                 |                                                 |
| \\      /  F ield         | OpenFOAM: The Open Source CFD Toolbox           |
|  \\    /   O peration     | Version:  dev                                   |
|   \\  /    A nd           | Web:      www.OpenFOAM.org                      |
|    \\/     M anipulation  |                                                 |
\*---------------------------------------------------------------------------*/
FoamFile
{
    version     2.0;
    format      ascii;
    class       volVectorField;
    location    "3.15";
    object      U;
}
// * * * * * * * * * * * * * * * * * * * * * * * * * * * * * * * * * * * * * //

dimensions      [0 1 -1 0 0 0 0];

internalField   nonuniform List<vector> 
465
(
(0.752631 4.75616e-21 0.01403)
(0.720967 -3.53809e-21 0.0129484)
(0.690972 1.08926e-21 0.0110878)
(0.664057 0 0.00923452)
(0.639873 0 0.00797433)
(0.616712 0 0.00764984)
(0.592332 0 0.00822296)
(0.56506 -8.04959e-22 0.0092227)
(0.534772 1.11652e-21 0.00989132)
(0.503487 -3.59049e-22 0.00936371)
(0.475337 6.43051e-22 0.00713785)
(0.455038 0 0.00353743)
(0.44626 0 -0.000644545)
(0.451103 0 -0.00503205)
(0.470444 -3.07784e-22 -0.0100096)
(0.505336 -9.07379e-23 -0.0156398)
(0.557567 0 -0.0209952)
(0.627058 1.95404e-23 -0.0260244)
(0.713002 -1.92064e-23 -0.0311155)
(0.833641 0 -0.0351013)
(0.813755 -2.41932e-21 0.0289324)
(0.790278 -1.14968e-21 0.0301834)
(0.764766 1.08724e-21 0.0285671)
(0.738886 -4.03557e-21 0.0260006)
(0.712764 2.10986e-21 0.0241821)
(0.685178 7.32009e-21 0.0243277)
(0.654206 -1.6306e-22 0.026544)
(0.618431 -4.06364e-21 0.0295065)
(0.578175 7.91582e-22 0.0311445)
(0.536149 1.3971e-21 0.0295834)
(0.49726 -6.42971e-22 0.0240951)
(0.466278 0 0.0158242)
(0.444534 0 0.00696086)
(0.430221 9.32826e-22 -0.000978465)
(0.420187 2.1504e-22 -0.00848656)
(0.410294 3.33251e-22 -0.0171335)
(0.408572 3.81458e-22 -0.029026)
(0.427797 -3.46054e-22 -0.0455316)
(0.469479 -4.86079e-23 -0.0653147)
(0.542609 9.85997e-24 -0.0809161)
(0.646953 -1.66413e-20 0.041505)
(0.619112 2.33835e-20 0.0456572)
(0.586748 -6.38417e-21 0.0452935)
(0.550682 1.23897e-20 0.04314)
(0.511086 -1.37986e-20 0.0418718)
(0.466945 0 0.0436931)
(0.416294 0 0.0492828)
(0.35728 0 0.0573571)
(0.290517 0 0.0646682)
(0.217864 -2.80424e-21 0.0665599)
(0.141809 1.29669e-21 0.060434)
(0.0677297 1.13282e-21 0.0481398)
(0.00657452 -1.11417e-21 0.0335474)
(-0.0333108 -1.43609e-21 0.0185318)
(-0.0495279 2.86364e-24 0.00186162)
(-0.047259 3.66825e-22 -0.019446)
(-0.0327942 -5.31688e-22 -0.0454969)
(-0.00633689 1.15672e-21 -0.0725939)
(0.0213507 1.98934e-23 -0.0972588)
(0.0385592 -1.95068e-23 -0.116742)
(0.367615 -3.90275e-20 0.0615959)
(0.317168 9.6048e-21 0.0703837)
(0.256217 -1.0615e-23 0.0757385)
(0.183791 4.14732e-21 0.0803159)
(0.101199 3.91321e-21 0.0853262)
(0.0118655 7.19557e-21 0.0923528)
(-0.0738089 -3.61986e-21 0.10211)
(-0.150718 3.15181e-21 0.11204)
(-0.219425 2.85866e-21 0.117013)
(-0.2813 -1.48236e-21 0.112789)
(-0.335886 -1.20278e-21 0.0983968)
(-0.38009 5.9575e-21 0.0757765)
(-0.410724 1.0159e-21 0.0485641)
(-0.427351 5.64955e-23 0.0204039)
(-0.432256 1.67468e-21 -0.00636582)
(-0.429469 -1.34132e-21 -0.0319227)
(-0.424994 8.26484e-22 -0.0572424)
(-0.420802 -5.41524e-22 -0.081596)
(-0.42071 1.94469e-23 -0.104101)
(-0.424528 1.32397e-22 -0.123113)
(-0.057441 2.07159e-20 0.110678)
(-0.139092 2.3564e-20 0.123958)
(-0.223328 -4.3892e-21 0.134605)
(-0.308471 0 0.142107)
(-0.393383 0 0.146506)
(-0.473626 3.65133e-21 0.149262)
(-0.545476 -3.43462e-21 0.151765)
(-0.606101 0 0.153095)
(-0.655283 -3.0039e-21 0.149837)
(-0.694318 2.79376e-21 0.138453)
(-0.724784 -2.58308e-21 0.11769)
(-0.748243 2.2632e-21 0.0893732)
(-0.766157 -4.34707e-21 0.0574494)
(-0.779754 0 0.0258552)
(-0.789561 -1.61085e-21 -0.00321441)
(-0.795279 2.9252e-24 -0.0302253)
(-0.801676 -1.05335e-21 -0.0559787)
(-0.810191 -5.97318e-22 -0.0800282)
(-0.821278 2.96211e-22 -0.102488)
(-0.830504 -4.4427e-22 -0.120942)
(-0.505961 4.88913e-21 0.171093)
(-0.588721 1.81341e-20 0.183556)
(-0.667496 -2.21407e-20 0.191561)
(-0.74134 0 0.19511)
(-0.810095 -3.85699e-21 0.194646)
(-0.872551 -3.64228e-21 0.191578)
(-0.926914 0 0.18715)
(-0.971761 0 0.180885)
(-1.00707 0 0.170472)
(-1.03445 -2.78645e-21 0.153382)
(-1.05652 0 0.128835)
(-1.07585 -2.35453e-21 0.0984615)
(-1.09387 0 0.065327)
(-1.11068 -1.86908e-21 0.0323852)
(-1.12555 7.40013e-22 0.00178616)
(-1.13716 6.17242e-24 -0.0258684)
(-1.1503 -4.48719e-22 -0.0512012)
(-1.16708 7.47532e-22 -0.0745928)
(-1.18526 -4.44692e-22 -0.0964663)
(-1.19719 2.92856e-22 -0.113764)
(-0.891003 -1.30918e-20 0.227984)
(-0.964329 4.6777e-20 0.235877)
(-1.03129 -4.01328e-21 0.238675)
(-1.09193 1.66762e-20 0.237057)
(-1.14686 3.85309e-21 0.231699)
(-1.19631 -1.41361e-20 0.223733)
(-1.2398 2.38819e-20 0.214065)
(-1.27675 -6.50825e-21 0.202346)
(-1.30734 0 0.186996)
(-1.33297 5.3818e-21 0.166335)
(-1.35573 -2.72813e-21 0.139877)
(-1.37739 -9.37345e-23 0.108755)
(-1.39857 -2.20908e-21 0.0751783)
(-1.41903 3.72611e-21 0.0414919)
(-1.43836 0 0.00983686)
(-1.45566 0 -0.018172)
(-1.47465 -1.01345e-21 -0.0428255)
(-1.49854 -1.44989e-22 -0.0653822)
(-1.52275 1.07267e-22 -0.0865035)
(-1.53677 -2.3563e-22 -0.1027)
(-1.20551 4.80173e-20 0.278955)
(-1.26997 -1.59022e-21 0.280838)
(-1.32764 -4.38648e-20 0.27804)
(-1.3795 -1.58866e-20 0.271565)
(-1.4267 -6.9454e-21 0.262174)
(-1.46996 6.14824e-22 0.250659)
(-1.50935 1.7089e-20 0.237479)
(-1.54462 0 0.222222)
(-1.57593 5.76233e-21 0.203706)
(-1.60419 -3.05996e-22 0.180746)
(-1.63069 -1.02725e-20 0.153036)
(-1.65658 2.42723e-21 0.121404)
(-1.68222 4.19978e-21 0.0874587)
(-1.70742 -1.19358e-22 0.0531541)
(-1.73205 -1.70919e-21 0.0207367)
(-1.75592 0 -0.00753814)
(-1.78005 2.26055e-21 -0.0314338)
(-1.80987 -7.31373e-23 -0.0528201)
(-1.83973 -1.385e-22 -0.0730537)
(-1.85566 2.70996e-22 -0.088412)
(-1.46462 -6.81552e-20 0.325252)
(-1.52353 5.47354e-20 0.320859)
(-1.57618 -2.64495e-20 0.31299)
(-1.62406 0 0.302559)
(-1.66847 2.23831e-20 0.290166)
(-1.71023 -1.45018e-20 0.276198)
(-1.74953 -6.69823e-21 0.260671)
(-1.78626 0 0.24303)
(-1.82048 1.20279e-22 0.222327)
(-1.85281 1.63814e-20 0.197757)
(-1.88409 -7.82309e-21 0.169111)
(-1.91507 2.1456e-21 0.136992)
(-1.94602 -2.19953e-21 0.10268)
(-1.97678 1.73037e-21 0.0679541)
(-2.00732 -4.86623e-21 0.035045)
(-2.03794 0 0.0063921)
(-2.06923 2.42259e-21 -0.0169664)
(-2.10449 -4.20114e-22 -0.0370277)
(-2.13986 3.24113e-23 -0.0561889)
(-2.15776 -3.23772e-23 -0.0710047)
(-1.68394 -4.92065e-20 0.368983)
(-1.74018 1.80244e-20 0.35865)
(-1.79097 -8.50973e-21 0.346401)
(-1.83791 1.55593e-20 0.332818)
(-1.88227 -6.14611e-22 0.318167)
(-1.92482 -5.79921e-22 0.302385)
(-1.96581 -1.34734e-20 0.285135)
(-2.00529 9.97963e-23 0.265791)
(-2.04336 1.1134e-22 0.243575)
(-2.08048 -5.44383e-21 0.217881)
(-2.11727 5.04381e-21 0.18857)
(-2.15429 2.2138e-21 0.156109)
(-2.19174 -2.18769e-21 0.121569)
(-2.22947 3.67587e-21 0.0866146)
(-2.2673 3.15813e-21 0.0534365)
(-2.3054 0 0.0244016)
(-2.34496 -1.99136e-21 0.00102766)
(-2.38673 1.46019e-21 -0.018098)
(-2.42555 -1.29369e-22 -0.0360739)
(-2.44551 0 -0.0503758)
(-1.87353 3.90518e-20 0.411586)
(-1.92858 -1.77732e-20 0.395928)
(-1.97898 -1.63286e-20 0.379914)
(-2.02624 1.59752e-20 0.363677)
(-2.07154 -7.28294e-21 0.347163)
(-2.11571 -6.70341e-21 0.329999)
(-2.15916 1.3285e-20 0.311559)
(-2.20205 -1.64929e-22 0.291104)
(-2.24455 5.45111e-21 0.267947)
(-2.28705 -5.50721e-21 0.241611)
(-2.33005 2.41548e-21 0.211989)
(-2.37397 2.20177e-21 0.179445)
(-2.41891 -4.15096e-21 0.144884)
(-2.4647 -1.95221e-21 0.109841)
(-2.51086 -1.68761e-21 0.0764098)
(-2.55726 -2.00187e-21 0.046883)
(-2.60544 -5.62089e-22 0.0229817)
(-2.65656 -1.32612e-21 0.00410337)
(-2.70152 2.90534e-23 -0.0128242)
(-2.72171 -2.91712e-23 -0.0264908)
(-2.03707 1.7669e-21 0.45353)
(-2.09108 4.45571e-20 0.433307)
(-2.14128 8.07545e-21 0.413974)
(-2.18891 -7.58736e-21 0.395458)
(-2.23521 1.4447e-22 0.37752)
(-2.28119 1.32141e-20 0.359474)
(-2.3274 -6.78288e-21 0.340397)
(-2.37409 -6.1566e-21 0.319423)
(-2.42145 -1.58653e-22 0.295904)
(-2.46983 -1.0626e-20 0.269446)
(-2.51969 2.68695e-21 0.239947)
(-2.57138 -2.2122e-21 0.207677)
(-2.62497 0 0.173397)
(-2.68023 -3.65532e-21 0.138473)
(-2.73628 -3.13731e-21 0.104847)
(-2.79258 2.5681e-21 0.0748251)
(-2.85088 -1.9337e-21 0.0503572)
(-2.91232 -1.21942e-22 0.0313069)
(-2.96668 -5.21968e-22 0.0151416)
(-2.99218 4.04506e-22 0.00253951)
(-2.17174 3.56889e-20 0.494476)
(-2.22397 -3.48506e-20 0.470637)
(-2.27326 7.58041e-21 0.448462)
(-2.32051 -7.72041e-21 0.428065)
(-2.36717 7.14422e-21 0.409237)
(-2.41453 -1.42632e-22 0.390958)
(-2.46325 -6.1759e-21 0.371912)
(-2.51354 1.18754e-20 0.35106)
(-2.56556 -1.52217e-22 0.327784)
(-2.61965 0 0.301787)
(-2.67635 -2.38185e-21 0.272976)
(-2.7361 1.5673e-22 0.241518)
(-2.79898 2.14158e-21 0.207983)
(-2.86458 5.59294e-21 0.173461)
(-2.93156 4.81285e-21 0.139636)
(-2.99864 0 0.108827)
(-3.06701 1.9299e-21 0.0833142)
(-3.13728 -1.17464e-22 0.0635881)
(-3.19827 7.81965e-22 0.0477832)
(-3.22663 -4.3029e-22 0.0361321)
(-2.26757 1.80831e-20 0.533596)
(-2.31661 0 0.507365)
(-2.3634 0 0.482714)
(-2.40833 1.43657e-20 0.460801)
(-2.45341 -1.40486e-20 0.44179)
(-2.5004 -6.59012e-21 0.424127)
(-2.54997 1.21499e-20 0.405875)
(-2.60207 -1.16648e-20 0.385772)
(-2.65672 1.22682e-22 0.36332)
(-2.71435 5.39257e-21 0.338394)
(-2.77567 4.98672e-21 0.310936)
(-2.84136 0 0.280964)
(-2.9116 0 0.248751)
(-2.98578 -3.64978e-21 0.215)
(-3.06229 -3.15085e-21 0.181043)
(-3.1393 -5.64339e-22 0.149104)
(-3.21712 5.54956e-22 0.121857)
(-3.29564 1.13673e-22 0.100806)
(-3.36318 -1.11908e-22 0.0851868)
(-3.39504 3.38934e-22 0.0747339)
(-2.30725 -8.29929e-21 0.569632)
(-2.35162 -2.3462e-20 0.542215)
(-2.39336 3.74518e-20 0.514921)
(-2.43244 -4.76914e-22 0.491592)
(-2.47229 -1.36582e-20 0.473244)
(-2.51557 0 0.457211)
(-2.56266 -6.0953e-21 0.440467)
(-2.61291 -5.66173e-21 0.42155)
(-2.66609 -5.47477e-21 0.400317)
(-2.72285 2.46866e-21 0.37701)
(-2.78436 -4.8319e-21 0.35167)
(-2.85181 2.31494e-21 0.324088)
(-2.92578 0 0.294136)
(-3.00589 3.69595e-21 0.262051)
(-3.09046 -3.23797e-23 0.22867)
(-3.17717 0 0.195828)
(-3.26517 -1.9234e-21 0.166367)
(-3.35327 5.54373e-23 0.142994)
(-3.4288 -1.14647e-21 0.126374)
(-3.4651 -3.38849e-22 0.115983)
(-2.23029 -4.99523e-21 0.617863)
(-2.26404 -7.9663e-21 0.602313)
(-2.30411 7.52486e-21 0.574637)
(-2.33761 -2.08707e-20 0.54305)
(-2.36548 2.64994e-20 0.517883)
(-2.39494 -1.27635e-20 0.501634)
(-2.43048 5.8753e-21 0.48879)
(-2.47155 -5.75042e-21 0.474296)
(-2.51623 1.07958e-20 0.456807)
(-2.56404 -1.03445e-20 0.437099)
(-2.61628 -4.93869e-21 0.416108)
(-2.67518 2.3819e-21 0.393991)
(-2.74283 2.231e-21 0.370222)
(-2.82066 1.9145e-21 0.344124)
(-2.90881 -5.44174e-21 0.315293)
(-3.00553 3.06554e-21 0.283806)
(-3.10747 0 0.250658)
(-3.21165 1.85269e-21 0.218465)
(-3.3147 0 0.191347)
(-3.4023 1.04132e-21 0.172318)
(-3.44495 1.03499e-23 0.161178)
(-2.03805 1.5211e-20 0.656609)
(-2.08723 -5.92107e-22 0.65751)
(-2.13616 -1.39229e-20 0.615163)
(-2.16223 1.29566e-20 0.566215)
(-2.1736 -1.2669e-20 0.534436)
(-2.18768 0 0.522618)
(-2.21278 -5.58416e-21 0.515931)
(-2.24559 1.08037e-20 0.504887)
(-2.28148 -1.14161e-22 0.489142)
(-2.31992 8.80837e-23 0.471543)
(-2.36381 4.82567e-21 0.454233)
(-2.41715 -6.79488e-21 0.437564)
(-2.48356 1.03557e-22 0.420542)
(-2.56573 2.05119e-21 0.401706)
(-2.66474 3.63769e-21 0.379626)
(-2.77904 -3.84763e-21 0.352988)
(-2.90387 4.18882e-22 0.321157)
(-3.03283 2.69775e-22 0.285944)
(-3.15859 2.27988e-21 0.253304)
(-3.264 -9.50706e-24 0.230732)
(-3.31597 9.59498e-24 0.219766)
(-1.72441 -6.26233e-21 0.549159)
(-1.7665 3.09116e-21 0.521478)
(-1.77187 5.97447e-21 0.521659)
(-1.78154 5.5389e-21 0.538792)
(-1.80789 -5.30554e-21 0.545829)
(-1.83898 -4.94103e-21 0.536476)
(-1.86586 -4.91567e-21 0.519048)
(-1.88989 4.78335e-21 0.502061)
(-1.91803 2.31676e-21 0.489672)
(-1.9577 -2.27119e-21 0.481698)
(-2.01532 0 0.475704)
(-2.09601 -3.11486e-21 0.468774)
(-2.2034 -4.50874e-21 0.457923)
(-2.33759 6.28401e-21 0.439845)
(-2.4926 0 0.41145)
(-2.65693 1.87748e-22 0.372732)
(-2.81601 -2.41537e-21 0.331366)
(-2.94717 0 0.302397)
(-3.01303 1.9751e-22 0.29246)
(-0.287337 -2.86315e-21 0.602529)
(-0.696166 -2.80539e-21 0.547085)
(-0.927551 -5.00695e-21 0.527144)
(-1.05636 1.47061e-20 0.513337)
(-1.12189 6.22807e-23 0.503591)
(-1.15426 -4.70609e-21 0.500889)
(-1.17443 -4.62551e-21 0.50546)
(-1.19747 -2.22742e-21 0.514945)
(-1.23348 7.63895e-21 0.526943)
(-1.29021 2.968e-21 0.539487)
(-1.37618 8.76771e-22 0.549196)
(-1.49988 -4.01153e-21 0.549076)
(-1.66332 -2.68697e-21 0.529797)
(-1.85946 0 0.486851)
(-2.06593 -2.34822e-21 0.431186)
(-2.24313 -2.07377e-23 0.391108)
(-2.33719 -3.02367e-23 0.38249)
(2.78006 -1.52324e-20 1.074)
(2.16367 9.85345e-21 0.908069)
(1.62474 0 0.77198)
(1.16326 0 0.66589)
(0.781847 0 0.591884)
(0.485486 4.54075e-21 0.550729)
(0.272101 -4.5798e-21 0.538928)
(0.126021 -3.2471e-21 0.549799)
(0.0223488 4.26807e-21 0.576267)
(-0.0655951 -9.99467e-22 0.611258)
(-0.161902 0 0.64525)
(-0.286453 2.65226e-21 0.664517)
(-0.452377 0 0.652264)
(-0.665267 -1.87804e-22 0.598703)
(-0.918642 0 0.528059)
(-1.12679 -1.62865e-22 0.506012)
(5.27513 2.26255e-21 1.31001)
(4.69756 -2.23392e-21 1.14827)
(4.15983 0 1.01106)
(3.66445 -4.57872e-21 0.897969)
(3.21499 8.88294e-21 0.810196)
(2.81586 -1.08205e-21 0.750272)
(2.47156 -3.04754e-21 0.720051)
(2.18377 4.03679e-21 0.717668)
(1.94698 1.99047e-22 0.7355)
(1.74646 -1.95939e-22 0.760388)
(1.56055 4.12106e-25 0.776089)
(1.36544 2.4497e-21 0.76824)
(1.14708 0 0.73319)
(0.827292 2.47165e-24 0.716086)
(7.61548 1.1383e-21 1.47555)
(7.10776 3.18929e-21 1.33363)
(6.62102 -8.99428e-21 1.21544)
(6.15729 0 1.12095)
(5.71989 2.55144e-22 1.04998)
(5.31355 -4.07737e-21 1.00156)
(4.94334 3.52676e-21 0.972971)
(4.61209 4.95094e-23 0.958694)
(4.31704 4.40733e-21 0.950297)
(4.0475 0 0.93922)
(3.79313 -9.04872e-24 0.923022)
(3.45412 6.55403e-24 0.923181)
(10.1731 3.17923e-22 1.74041)
(9.73589 4.45684e-21 1.6055)
(9.30897 6.92431e-23 1.49364)
(8.89461 -6.83391e-23 1.4038)
(8.49574 0 1.33404)
(8.11586 -3.39185e-21 1.2811)
(7.75821 0 1.24039)
(7.42438 3.60665e-22 1.2066)
(7.11252 -3.00285e-21 1.1757)
(6.82215 6.18612e-23 1.14863)
(6.46758 0 1.13666)
(11.9693 0 1.82096)
(11.6232 0 1.71943)
(11.285 0 1.63665)
(10.9572 -4.08713e-22 1.5695)
(10.6419 8.25789e-23 1.51395)
(10.3402 -8.27445e-21 1.46581)
(10.0515 2.47335e-21 1.42233)
(9.77807 0 1.38416)
(9.44774 0 1.35548)
(13.8026 -6.91275e-21 1.97632)
(13.5425 6.14841e-21 1.88549)
(13.2878 0 1.80929)
(13.04 6.82236e-22 1.74443)
(12.7998 3.71775e-21 1.68764)
(12.5668 3.08616e-21 1.63665)
(12.3431 1.59693e-21 1.5912)
(12.0691 -3.93306e-22 1.55135)
(15.0798 -4.70631e-21 1.99098)
(14.9043 0 1.9208)
(14.7324 5.34016e-22 1.85908)
(14.5638 -3.31031e-21 1.80397)
(14.3999 1.07094e-22 1.7547)
(14.1943 2.66467e-22 1.70982)
(16.2655 2.09575e-21 2.04149)
(16.1585 6.17813e-22 1.97786)
(16.0519 -6.09597e-22 1.92142)
(15.9464 -1.68809e-21 1.87142)
(15.8095 4.28977e-23 1.82635)
(17.0902 1.42414e-21 1.99171)
(17.0368 9.54646e-23 1.94345)
(16.9628 -8.00545e-22 1.90134)
(17.7508 -1.27831e-22 1.97549)
(17.7311 8.11357e-22 1.93807)
(18.201 1.81356e-21 1.94138)
)
;

boundaryField
{
    inlet
    {
        type            fixedValue;
        value           nonuniform 0();
    }
    outlet
    {
        type            zeroGradient;
    }
    flap
    {
        type            movingWallVelocity;
        value           nonuniform 0();
    }
    upperWall
    {
        type            noSlip;
    }
    lowerWall
    {
        type            noSlip;
    }
    frontAndBack
    {
        type            empty;
    }
    procBoundary5to2
    {
        type            processor;
        value           nonuniform List<vector> 
34
(
(-1.32526 0 0.617035)
(-1.59715 3.2735e-21 0.58738)
(-1.59715 3.2735e-21 0.58738)
(1.01064 3.15537e-21 0.926079)
(0.321904 3.04075e-21 0.734471)
(0.321904 3.04075e-21 0.734471)
(3.47271 -5.06886e-21 1.27223)
(3.47271 -5.06886e-21 1.27223)
(6.54373 -2.44131e-21 1.71297)
(5.89103 4.63536e-21 1.49761)
(5.89103 4.63536e-21 1.49761)
(8.688 2.53097e-21 1.83179)
(8.14269 -1.21357e-21 1.64141)
(8.14269 -1.21357e-21 1.64141)
(10.6188 6.78791e-22 1.8988)
(10.6188 6.78791e-22 1.8988)
(12.6755 -7.39684e-21 2.08738)
(12.3209 -5.37622e-21 1.94327)
(12.3209 -5.37622e-21 1.94327)
(14.0659 -1.38186e-21 2.08442)
(14.0659 -1.38186e-21 2.08442)
(15.4385 -5.47387e-21 2.16689)
(15.2583 5.94407e-21 2.07216)
(15.2583 5.94407e-21 2.07216)
(16.373 -9.45971e-21 2.11377)
(16.373 -9.45971e-21 2.11377)
(17.192 4.91358e-21 2.11029)
(17.142 1.44387e-21 2.04717)
(17.142 1.44387e-21 2.04717)
(17.7602 -1.65199e-21 2.02034)
(17.7602 -1.65199e-21 2.02034)
(18.1758 1.56438e-21 1.97346)
(18.1758 1.56438e-21 1.97346)
(18.456 1.46069e-21 1.91667)
)
;
    }
    procBoundary5to4
    {
        type            processor;
        value           nonuniform List<vector> 
18
(
(0.78263 0 0.0133938)
(0.831869 -1.07409e-20 0.0228163)
(0.668758 -2.08065e-20 0.0299894)
(0.410619 -2.0186e-20 0.0453295)
(0.0205536 4.06909e-20 0.0927431)
(-0.42139 -4.7419e-20 0.153051)
(-0.812189 3.5457e-21 0.213293)
(-1.13361 0 0.270591)
(-1.39781 -9.35059e-20 0.324671)
(-1.62018 -4.02934e-20 0.376433)
(-1.81184 5.02715e-20 0.426614)
(-1.97772 3.92742e-20 0.475143)
(-2.11609 9.63394e-21 0.521013)
(-2.21781 8.8831e-21 0.562357)
(-2.26562 -2.30633e-20 0.596271)
(-2.26562 -2.30633e-20 0.596271)
(-2.22165 -1.31194e-20 0.637543)
(-2.04617 -2.08942e-20 0.599296)
)
;
    }
}


// ************************************************************************* //
