/*--------------------------------*- C++ -*----------------------------------*\
| =========                 |                                                 |
| \\      /  F ield         | OpenFOAM: The Open Source CFD Toolbox           |
|  \\    /   O peration     | Version:  dev                                   |
|   \\  /    A nd           | Web:      www.OpenFOAM.org                      |
|    \\/     M anipulation  |                                                 |
\*---------------------------------------------------------------------------*/
FoamFile
{
    version     2.0;
    format      ascii;
    class       surfaceScalarField;
    location    "2.67";
    object      meshPhi;
}
// * * * * * * * * * * * * * * * * * * * * * * * * * * * * * * * * * * * * * //

dimensions      [0 3 -1 0 0 0 0];

internalField   nonuniform List<scalar> 
881
(
-0.000118171
2.0019e-05
2.7677e-05
-0.000128964
2.6725e-05
-0.000152645
3.47475e-05
-0.000177837
4.4304e-05
5.52575e-05
-0.000142036
3.38758e-05
-0.000165048
4.21049e-05
-0.000189473
5.16133e-05
-0.000214672
6.23839e-05
7.4131e-05
-0.00015735
4.13939e-05
-0.000179451
4.96856e-05
-0.000202714
5.90334e-05
-0.000226585
6.93949e-05
-0.000250133
8.05644e-05
-0.000271981
9.21647e-05
0.000103604
-0.000174723
4.91683e-05
-0.000195717
5.73925e-05
-0.000217641
6.64663e-05
-0.000239866
7.63711e-05
-0.00026167
8.68769e-05
-0.000282022
9.76365e-05
-0.000299911
0.000108274
-0.000314162
0.000118352
0.000127262
-0.000193921
5.70526e-05
-0.000213628
6.51001e-05
-0.000234042
7.38107e-05
-0.000254546
8.31901e-05
-0.000274416
9.30121e-05
-0.000292769
0.000102971
-0.000308831
0.000112707
-0.000321635
0.000121806
-0.000330359
0.000129898
0.000136478
-0.00021465
6.48869e-05
-0.000232925
7.26706e-05
-0.000251696
8.09533e-05
-0.00027037
8.97625e-05
-0.000288261
9.88811e-05
-0.00030459
0.000108028
-0.000318566
0.000116871
-0.000329351
0.000125035
-0.00033633
0.000132126
-0.000338623
0.000137769
-0.000335071
0.000141492
0.000142765
-0.000236593
7.25206e-05
-0.000253327
7.99708e-05
-0.000270363
8.77821e-05
-0.000287136
9.59962e-05
-0.000302999
0.000104405
-0.000317236
0.000112746
-0.000329103
0.000120713
-0.000337846
0.000127961
-0.000342772
0.000134127
-0.000343289
0.000138837
-0.000338651
0.000141691
-0.000328512
0.00014238
0.000140569
-0.000259444
7.98257e-05
-0.00027456
8.6884e-05
-0.00028981
9.41973e-05
-0.000304647
0.000101809
-0.00031846
0.000109516
-0.000330581
0.000117071
-0.000340319
0.00012419
-0.000346985
0.000130555
-0.000349925
0.000135833
-0.000348551
0.000139679
-0.000342306
0.000141746
-0.000330958
0.000141714
-0.00031417
0.000139331
-0.000291451
0.000134302
0.000126331
-0.000282928
8.67182e-05
-0.000296375
9.33081e-05
-0.000309828
0.000100114
-0.000322735
0.000107134
-0.000334506
0.000114163
-0.00034452
0.000120963
-0.000352135
0.00012727
-0.000356718
0.000132795
-0.000357671
0.000137233
-0.000354451
0.000140268
-0.000346594
0.000141591
-0.000333779
0.00014091
-0.000315842
0.000137963
-0.000292554
0.000132502
-0.000264015
0.000124362
0.000113397
-0.000306661
9.28404e-05
-0.000318537
9.90872e-05
-0.000330262
0.000105451
-0.000341288
0.000111925
-0.000351056
0.000118312
-0.00035899
0.000124395
-0.000364504
0.000129933
-0.000367022
0.000134662
-0.000365998
0.000138306
-0.000360944
0.000140581
-0.000351448
0.000141206
-0.000337207
0.000139913
-0.000318029
0.00013646
-0.000293797
0.000130626
-0.000264642
0.000122236
-0.000230676
0.000111173
-0.000191938
9.73127e-05
8.05531e-05
-0.000330349
9.81115e-05
-0.000340927
0.000104191
-0.00035106
0.000110197
-0.00036028
0.00011617
-0.000368094
0.000121952
-0.000373985
0.000127355
-0.000377427
0.000132162
-0.0003779
0.000136138
-0.000374915
0.000139034
-0.000368033
0.000140594
-0.000356886
0.000140566
-0.000341197
0.000138705
-0.000320788
0.000134788
-0.000295579
0.000128615
-0.000265623
0.000120021
-0.00023109
0.000108878
-0.000192132
9.50816e-05
-0.000149095
7.85859e-05
5.93867e-05
-0.000354337
0.000102972
-0.000363739
0.000108801
-0.000372346
0.000114426
-0.000379801
0.0001199
-0.00038569
0.000125092
-0.000389561
0.000129836
-0.000390948
0.000133942
-0.000389391
0.0001372
-0.000384454
0.000139389
-0.000375746
0.000140277
-0.000362938
0.000139637
-0.000345783
0.00013725
-0.000324118
0.000132909
-0.000297879
0.000126433
-0.000267105
0.000117667
-0.000231923
0.000106487
-0.000192528
9.27994e-05
-0.000149245
7.65517e-05
-0.000102435
5.77393e-05
3.63497e-05
-0.000379338
0.000107603
-0.000387388
0.000113038
-0.00039439
0.000118201
-0.000400041
0.000123141
-0.000403984
0.000127731
-0.000405826
0.000131823
-0.000405156
0.000135247
-0.000401568
0.000137816
-0.000394676
0.000139329
-0.000384133
0.000139584
-0.000369648
0.000138372
-0.000351001
0.000135498
-0.000328047
0.000130773
-0.00030073
0.000124032
-0.00026908
0.00011513
-0.000233212
0.000103951
-0.000193314
9.04085e-05
-0.000149658
7.44482e-05
-0.000102593
5.60542e-05
-5.23922e-05
3.5224e-05
1.21808e-05
-0.000405836
0.000111947
-0.000412261
0.000116892
-0.000417487
0.000121513
-0.000421229
0.000125871
-0.000423159
0.000129839
-0.000422926
0.000133274
-0.000420167
0.000136026
-0.000414524
0.000137925
-0.000405656
0.000138793
-0.000393257
0.000138447
-0.000377069
0.000136703
-0.000356895
0.000133381
-0.00033261
0.000128313
-0.000304162
0.000121347
-0.000271578
0.000112351
-0.00023496
0.000101215
-0.000194482
8.78584e-05
-0.000150386
7.22276e-05
-0.00010298
5.43029e-05
-5.25376e-05
3.40796e-05
1.17746e-05
-0.000434106
0.000115876
-0.00043864
0.000120263
-0.000441896
0.000124283
-0.000443586
0.000128012
-0.000443395
0.00013133
-0.000441009
0.000134102
-0.000436105
0.000136187
-0.000428362
0.000137435
-0.00041748
0.000137685
-0.000403188
0.000136774
-0.000385257
0.000134535
-0.000363514
0.000130808
-0.000337846
0.000125441
-0.000308208
0.000118297
-0.000274624
0.000109253
-0.000237184
9.82086e-05
-0.000196046
8.50875e-05
-0.000151425
6.98376e-05
-0.0001036
5.24362e-05
-5.28181e-05
3.28744e-05
1.13513e-05
-0.000464318
0.00011919
-0.000466732
0.000122968
-0.000467817
0.000126344
-0.000467285
0.00012941
-0.000464843
0.000132059
-0.000460205
0.000134162
-0.000453077
0.000135591
-0.000443173
0.000136209
-0.000430224
0.000135873
-0.000413989
0.000134434
-0.000394265
0.000131744
-0.000370899
0.000127661
-0.000343789
0.000122047
-0.000312896
0.000114777
-0.00027824
0.000105741
-0.0002399
9.48471e-05
-0.000198016
8.20222e-05
-0.00015278
6.72161e-05
-0.000104443
5.04037e-05
-5.32195e-05
3.15706e-05
1.08953e-05
-0.000496499
0.000121585
-0.000496599
0.00012473
-0.00049533
0.000127443
-0.000492412
0.000129828
-0.000487589
0.000131804
-0.000480593
0.000133249
-0.000471157
0.000134043
-0.000459021
0.000134063
-0.000443942
0.000133179
-0.000425707
0.00013126
-0.000404133
0.000128174
-0.000379083
0.000123792
-0.000350467
0.000117992
-0.000318248
0.000110663
-0.000282441
0.000101704
-0.000243117
9.10309e-05
-0.000200398
7.85766e-05
-0.000154453
6.42923e-05
-0.000105504
4.81507e-05
-5.3734e-05
3.01318e-05
1.03934e-05
-0.000530513
0.000122672
-0.000528136
0.000125181
-0.000524369
0.000127241
-0.000518948
0.000128963
-0.000511633
0.000130281
-0.000502187
0.000131097
-0.000490362
0.000131295
-0.000475925
0.000130763
-0.000458655
0.000129387
-0.00043836
0.000127049
-0.000414876
0.000123632
-0.00038808
0.000119024
-0.00035789
0.000113116
-0.00032427
0.000105807
-0.000287234
9.70088e-05
-0.00024684
8.6645e-05
-0.000203193
7.46533e-05
-0.000156442
6.09872e-05
-0.000106779
4.56176e-05
-5.43576e-05
2.85202e-05
9.83235e-06
-0.000566077
0.000122003
-0.000561121
0.000123898
-0.00055477
0.000125342
-0.000546771
0.000126447
-0.00053689
0.000127151
-0.000524922
0.000127387
-0.000510648
0.000127048
-0.000493853
0.000126031
-0.000474339
0.000124235
-0.00045193
0.000121558
-0.000426481
0.000117897
-0.000397879
0.000113152
-0.000366049
0.00010723
-0.000330957
0.000100041
-0.000292611
9.15074e-05
-0.000251061
8.15606e-05
-0.000206395
7.01441e-05
-0.00015874
5.7214e-05
-0.000108263
4.27405e-05
-5.50862e-05
2.66961e-05
9.1984e-06
-0.000602803
0.000119092
-0.000595238
0.000120424
-0.000586265
0.000121307
-0.000575657
0.000121866
-0.000563184
0.000122032
-0.000548659
0.000121759
-0.0005319
0.000120965
-0.000512713
0.000119552
-0.000490918
0.000117433
-0.000466358
0.000114517
-0.000438899
0.000110718
-0.00040844
0.000105949
-0.000374911
0.000100129
-0.00033828
9.31812e-05
-0.00029855
8.50377e-05
-0.000255761
7.56383e-05
-0.000209987
6.49327e-05
-0.000161335
5.28805e-05
-0.000109945
3.94519e-05
-5.59147e-05
2.46178e-05
8.4774e-06
-0.000640214
0.000113437
-0.000630069
0.000114277
-0.000618494
0.000114678
-0.000605295
0.000114782
-0.000590252
0.000114514
-0.000573181
0.000113833
-0.000553938
0.00011269
-0.000532355
0.000110993
-0.00050827
0.000108668
-0.000481539
0.000105638
-0.000452044
0.000101831
-0.000419692
9.71727e-05
-0.000384419
9.15949e-05
-0.000346192
8.50332e-05
-0.000305012
7.74296e-05
-0.00026091
6.87327e-05
-0.000213946
5.88988e-05
-0.000164208
4.78915e-05
-0.000111815
3.56827e-05
-5.68362e-05
2.22433e-05
7.65506e-06
-0.000677766
0.00010455
-0.00066513
0.000104987
-0.000651034
0.000105009
-0.000635308
0.000104761
-0.000617758
0.00010418
-0.000598205
0.000103225
-0.000576522
0.000101858
-0.000552576
0.000100012
-0.000526221
9.76229e-05
-0.000497331
9.46277e-05
-0.000465797
9.09658e-05
-0.000431537
8.65777e-05
-0.000394491
8.1407e-05
-0.000354628
7.54011e-05
-0.000311945
6.85124e-05
-0.000266465
6.06985e-05
-0.000218238
5.19225e-05
-0.000167334
4.21533e-05
-0.000113853
3.13655e-05
-5.78423e-05
1.95317e-05
6.71759e-06
-0.000714872
9.19755e-05
-0.00069989
9.2113e-05
-0.00068341
9.18751e-05
-0.000665281
9.13992e-05
-0.000645335
9.06403e-05
-0.000623399
8.95559e-05
-0.000599364
8.8117e-05
-0.000573128
8.62801e-05
-0.000544563
8.39918e-05
-0.000513555
8.12024e-05
-0.00048001
7.78636e-05
-0.000443851
7.39289e-05
-0.000405027
6.93542e-05
-0.000363506
6.40984e-05
-0.000319284
5.81243e-05
-0.000272377
5.13985e-05
-0.000222826
4.38918e-05
-0.000170688
3.55788e-05
-0.000116044
2.64381e-05
-5.89239e-05
1.64457e-05
5.65243e-06
-0.000750909
7.53292e-05
-0.000733774
7.52801e-05
-0.000715098
7.49132e-05
-0.00069475
7.43502e-05
-0.000672576
7.35586e-05
-0.000648402
7.24936e-05
-0.000622144
7.1149e-05
-0.000593733
6.95036e-05
-0.000563056
6.75031e-05
-0.000530011
6.51117e-05
-0.000494515
6.22946e-05
-0.0004565
5.90179e-05
-0.000415918
5.52498e-05
-0.000372741
5.09607e-05
-0.000326963
4.61234e-05
-0.000278596
4.07137e-05
-0.000227673
3.47101e-05
-0.000174242
2.80938e-05
-0.00011837
2.08481e-05
-6.00728e-05
1.29542e-05
4.4493e-06
-0.000785206
5.43421e-05
-0.000766159
5.42152e-05
-0.000745519
5.38513e-05
-0.000723171
5.33448e-05
-0.000698984
5.26769e-05
-0.000672792
5.18012e-05
-0.000644507
5.07299e-05
-0.000614087
4.94639e-05
-0.000581443
4.79483e-05
-0.000546486
4.61603e-05
-0.00050914
4.40782e-05
-0.000469346
4.16806e-05
-0.000427059
3.89474e-05
-0.000382254
3.58595e-05
-0.000334926
3.23999e-05
-0.000285083
2.8553e-05
-0.000232754
2.43051e-05
-0.000177981
1.96439e-05
-0.000120822
1.45584e-05
-6.12845e-05
9.03599e-06
3.1013e-06
-0.000817035
2.88894e-05
-0.000796359
2.87904e-05
-0.000774038
2.85599e-05
-0.000749965
2.8253e-05
-0.000724031
2.78607e-05
-0.000696101
2.73579e-05
-0.000666058
2.67525e-05
-0.000633859
2.60471e-05
-0.000599455
2.52126e-05
-0.000562763
2.42374e-05
-0.000523717
2.31107e-05
-0.000482262
2.18222e-05
-0.000438359
2.03623e-05
-0.000391987
1.87219e-05
-0.000343138
1.68928e-05
-0.000291822
1.48677e-05
-0.000238066
1.26399e-05
-0.000181908
1.02036e-05
-0.000123404
7.55355e-06
-6.25602e-05
4.68359e-06
1.60641e-06
-0.000844394
-0.000822517
-0.00079896
-0.000773611
-0.000746374
-0.000717123
-0.000685721
-0.000652129
-0.00061632
-0.000578214
-0.00053775
-0.000494876
-0.000449556
-0.00040177
-0.000351512
-0.000298792
-0.000243635
-0.00018608
-0.000126183
-6.39549e-05
)
;

boundaryField
{
    inlet
    {
        type            calculated;
        value           nonuniform 0();
    }
    outlet
    {
        type            calculated;
        value           uniform 0;
    }
    flap
    {
        type            calculated;
        value           nonuniform 0();
    }
    upperWall
    {
        type            calculated;
        value           nonuniform List<scalar> 
21
(
0
0
0
0
0
0
0
0
0
0
0
0
4.42672e-15
0
4.57312e-15
0
0
0
0
0
0
)
;
    }
    lowerWall
    {
        type            calculated;
        value           nonuniform 0();
    }
    frontAndBack
    {
        type            empty;
        value           nonuniform 0();
    }
    procBoundary2to1
    {
        type            processor;
        value           nonuniform List<scalar> 
17
(
0.000318889
0.000343583
0.000369678
0.000397686
0.000427759
0.000460011
0.000494431
0.000530834
0.000568884
0.00060813
0.000648032
0.000687983
0.000727348
0.000765455
0.000801574
0.000834923
0.00086336
)
;
    }
    procBoundary2to4
    {
        type            processor;
        value           nonuniform List<scalar> 
11
(
9.63906e-05
0.000107288
0.00012069
0.000136523
0.000154623
0.00017474
0.000196557
0.000219737
0.000243967
0.000269043
0.00029428
)
;
    }
    procBoundary2to5
    {
        type            processor;
        value           nonuniform List<scalar> 
34
(
-1.3796e-05
-2.08244e-05
-0.000142101
-3.70094e-05
-4.76198e-05
-0.000203524
-6.70046e-05
-0.000239148
-8.61685e-05
-9.76876e-05
-0.000290796
-0.000114184
-0.000123108
-0.00032352
-0.000134092
-0.000333507
-0.000140684
-0.00014186
-0.00032526
-0.000141004
-0.000312191
-0.000135706
-0.000127465
-0.000262996
-0.000115159
-0.000230226
-9.93476e-05
-8.21328e-05
-0.000148904
-6.08711e-05
-0.000102361
-3.74273e-05
-5.23425e-05
-1.2587e-05
)
;
    }
}


// ************************************************************************* //
