/*--------------------------------*- C++ -*----------------------------------*\
| =========                 |                                                 |
| \\      /  F ield         | OpenFOAM: The Open Source CFD Toolbox           |
|  \\    /   O peration     | Version:  dev                                   |
|   \\  /    A nd           | Web:      www.OpenFOAM.org                      |
|    \\/     M anipulation  |                                                 |
\*---------------------------------------------------------------------------*/
FoamFile
{
    version     2.0;
    format      ascii;
    class       volVectorField;
    location    "0.11";
    object      cellDisplacement;
}
// * * * * * * * * * * * * * * * * * * * * * * * * * * * * * * * * * * * * * //

dimensions      [0 1 0 0 0 0 0];

internalField   nonuniform List<vector> 
465
(
(0.0039027 0 0.00706158)
(0.00385212 0 0.0072959)
(0.00383846 0 0.00772531)
(0.00381641 0 0.00818265)
(0.00380408 0 0.00745025)
(0.00378977 0 0.00785086)
(0.0037668 0 0.00826365)
(0.00373416 0 0.00867983)
(0.00369036 0 0.00908472)
(0.00375912 0 0.00753488)
(0.00374569 0 0.00790089)
(0.00372413 0 0.00826661)
(0.00369421 0 0.00862243)
(0.00365576 0 0.00895461)
(0.00360922 0 0.00924509)
(0.00355643 0 0.00947231)
(0.0037173 0 0.00756009)
(0.00370607 0 0.00788989)
(0.00368761 0 0.00821033)
(0.00366234 0 0.00851236)
(0.00363093 0 0.00878438)
(0.00359469 0 0.00901266)
(0.003556 0 0.00918246)
(0.00351868 0 0.00928009)
(0.00348791 0 0.00929585)
(0.00367831 0 0.00753528)
(0.00367022 0 0.0078299)
(0.0036559 0 0.00810909)
(0.00363619 0 0.00836502)
(0.00361218 0 0.00858852)
(0.00358548 0 0.00876966)
(0.0035584 0 0.00889878)
(0.00353392 0 0.00896789)
(0.00351556 0 0.00897241)
(0.00364157 0 0.00746841)
(0.00363718 0 0.00773043)
(0.00362747 0 0.00797329)
(0.0036135 0 0.00819062)
(0.00359651 0 0.00837552)
(0.0035781 0 0.00852108)
(0.00356022 0 0.00862115)
(0.00354513 0 0.0086713)
(0.00353515 0 0.00866966)
(0.00360636 0 0.00736593)
(0.00360591 0 0.00759861)
(0.00360088 0 0.00781015)
(0.00359239 0 0.00799563)
(0.00358168 0 0.00815)
(0.00357018 0 0.00826863)
(0.00355948 0 0.00834776)
(0.00355122 0 0.00838509)
(0.00354696 0 0.00838021)
(0.00357198 0 0.00723275)
(0.00357544 0 0.00743953)
(0.00357488 0 0.00762445)
(0.00357139 0 0.00778381)
(0.0035661 0 0.00791407)
(0.00356024 0 0.00801222)
(0.00355507 0 0.00807607)
(0.00355178 0 0.00810462)
(0.00355144 0 0.00809821)
(0.00353773 0 0.0070724)
(0.00354494 0 0.00725662)
(0.0035485 0 0.00741907)
(0.00354941 0 0.00755708)
(0.00354869 0 0.00766824)
(0.00354738 0 0.00775068)
(0.00354645 0 0.00780326)
(0.00354679 0 0.00782573)
(0.00354914 0 0.00781882)
(0.00350308 0 0.00688725)
(0.00351377 0 0.00705194)
(0.003521 0 0.0071955)
(0.00352571 0 0.00731602)
(0.0035288 0 0.00741196)
(0.00353111 0 0.00748225)
(0.00353342 0 0.00752641)
(0.00353641 0 0.00754464)
(0.0035406 0 0.00753784)
(0.00344956 0 0.006512)
(0.00346763 0 0.00667864)
(0.00348146 0 0.0068265)
(0.00349192 0 0.00695413)
(0.00349987 0 0.00706027)
(0.00350608 0 0.007144)
(0.00351126 0 0.00720478)
(0.00351605 0 0.00724257)
(0.00352096 0 0.00725782)
(0.0035264 0 0.00725149)
(0.00341042 0 0.00629574)
(0.00343117 0 0.00644715)
(0.00344776 0 0.00658042)
(0.00346101 0 0.00669456)
(0.00347167 0 0.00678879)
(0.00348042 0 0.00686261)
(0.00348787 0 0.00691585)
(0.00349454 0 0.00694875)
(0.00350086 0 0.00696189)
(0.00350712 0 0.00695623)
(0.00337047 0 0.0060547)
(0.00339359 0 0.00619255)
(0.00341258 0 0.00631311)
(0.0034282 0 0.00641573)
(0.00344111 0 0.00649997)
(0.00345192 0 0.00656563)
(0.00346116 0 0.00661282)
(0.00346926 0 0.00664189)
(0.00347657 0 0.00665353)
(0.00348336 0 0.00664863)
(0.00332974 0 0.00578829)
(0.00335493 0 0.00591399)
(0.00337598 0 0.00602335)
(0.00339359 0 0.006116)
(0.00340836 0 0.00619174)
(0.00342083 0 0.0062506)
(0.00343146 0 0.0062928)
(0.00344063 0 0.00631883)
(0.00344866 0 0.00632937)
(0.00345576 0 0.00632527)
(0.00328839 0 0.00549533)
(0.00331537 0 0.00561)
(0.00333818 0 0.00570937)
(0.00335745 0 0.00579325)
(0.00337374 0 0.00586163)
(0.00338753 0 0.00591466)
(0.00339925 0 0.00595269)
(0.00340922 0 0.00597622)
(0.00341774 0 0.00598593)
(0.00342501 0 0.00598262)
(0.00324673 0 0.00517407)
(0.00327523 0 0.00527857)
(0.00329952 0 0.00536885)
(0.00332016 0 0.00544486)
(0.00333769 0 0.00550672)
(0.00335254 0 0.00555466)
(0.00336509 0 0.00558907)
(0.00337565 0 0.00561048)
(0.0033845 0 0.00561953)
(0.00339182 0 0.00561696)
(0.00320517 0 0.00482221)
(0.00323497 0 0.00491714)
(0.00326048 0 0.00499896)
(0.00328226 0 0.00506774)
(0.00330078 0 0.00512366)
(0.00331646 0 0.005167)
(0.00332965 0 0.00519818)
(0.00334065 0 0.00521771)
(0.0033497 0 0.0052262)
(0.003357 0 0.00522432)
(0.00316428 0 0.00443686)
(0.00319515 0 0.00452256)
(0.00322168 0 0.00459632)
(0.00324438 0 0.00465826)
(0.0032637 0 0.0047086)
(0.00328002 0 0.00474765)
(0.0032937 0 0.00477583)
(0.003305 0 0.00479361)
(0.00331418 0 0.00480157)
(0.00332141 0 0.00480031)
(0.00312473 0 0.00401452)
(0.00315649 0 0.00409108)
(0.00318385 0 0.00415691)
(0.00320729 0 0.00421218)
(0.00322724 0 0.00425711)
(0.00324407 0 0.00429201)
(0.00325811 0 0.00431728)
(0.00326963 0 0.00433336)
(0.00327886 0 0.00434077)
(0.003286 0 0.00434005)
(0.00308733 0 0.00355095)
(0.00311982 0 0.00361822)
(0.00314785 0 0.00367605)
(0.00317188 0 0.0037246)
(0.00319232 0 0.00376409)
(0.00320954 0 0.00379482)
(0.00322385 0 0.00381716)
(0.00323551 0 0.0038315)
(0.00324476 0 0.00383829)
(0.00325179 0 0.00383803)
(0.00305302 0 0.00304117)
(0.00308609 0 0.00309873)
(0.00311465 0 0.00314822)
(0.00313915 0 0.00318977)
(0.00315998 0 0.00322362)
(0.0031775 0 0.00325001)
(0.003192 0 0.00326927)
(0.00320375 0 0.00328174)
(0.00321299 0 0.00328781)
(0.0032199 0 0.0032879)
(0.00302287 0 0.00247925)
(0.0030564 0 0.00252639)
(0.00308538 0 0.00256693)
(0.00311024 0 0.00260101)
(0.00313136 0 0.00262879)
(0.0031491 0 0.00265051)
(0.00316374 0 0.00266642)
(0.00317555 0 0.00267681)
(0.00318476 0 0.002682)
(0.00319157 0 0.00268233)
(0.00299809 0 0.00185821)
(0.00303197 0 0.00189388)
(0.00306126 0 0.00192459)
(0.00308639 0 0.00195042)
(0.00310773 0 0.00197152)
(0.00312562 0 0.00198804)
(0.00314036 0 0.0020002)
(0.0031522 0 0.0020082)
(0.00316139 0 0.0020123)
(0.00316811 0 0.00201273)
(0.00298004 0 0.00116976)
(0.00301416 0 0.00119255)
(0.00304366 0 0.00121217)
(0.00306897 0 0.0012287)
(0.00309046 0 0.00124222)
(0.00310846 0 0.00125284)
(0.00312326 0 0.00126068)
(0.00313513 0 0.00126588)
(0.00314429 0 0.00126859)
(0.00315094 0 0.00126899)
(0.00297021 0 0.000404094)
(0.00300446 0 0.000412066)
(0.00303408 0 0.00041894)
(0.00305949 0 0.000424735)
(0.00308106 0 0.000429481)
(0.00309912 0 0.000433213)
(0.00311396 0 0.000435976)
(0.00312583 0 0.000437818)
(0.00313498 0 0.000438794)
(0.0031416 0 0.000438965)
(0.0034741 0 0.00924415)
(0.00350893 0 0.00892733)
(0.00350736 0 0.00888269)
(0.0035089 0 0.00882347)
(0.00353305 0 0.0086304)
(0.00353367 0 0.0085928)
(0.00353647 0 0.00854369)
(0.00354772 0 0.00834599)
(0.00354964 0 0.008314)
(0.00355309 0 0.00827269)
(0.003554 0 0.00806835)
(0.00355669 0 0.00804089)
(0.00356041 0 0.00800575)
(0.00355281 0 0.00779272)
(0.0035559 0 0.007769)
(0.00355968 0 0.00773881)
(0.00354494 0 0.007515)
(0.00354821 0 0.00749441)
(0.0035519 0 0.00746827)
(0.00353109 0 0.00723151)
(0.0035344 0 0.00721354)
(0.00353793 0 0.00719078)
(0.00351196 0 0.00693875)
(0.00351521 0 0.00692304)
(0.00351855 0 0.00690312)
(0.00348821 0 0.00663335)
(0.00349136 0 0.00661958)
(0.00349447 0 0.00660209)
(0.00346054 0 0.00631193)
(0.00346355 0 0.00629986)
(0.00346643 0 0.00628446)
(0.00342965 0 0.00597101)
(0.0034325 0 0.00596043)
(0.00343516 0 0.00594687)
(0.0033963 0 0.0056069)
(0.00339899 0 0.00559765)
(0.00340143 0 0.00558572)
(0.0033613 0 0.00521565)
(0.00336382 0 0.00520759)
(0.00336606 0 0.00519714)
(0.00332552 0 0.00479291)
(0.00332788 0 0.00478594)
(0.00332994 0 0.00477684)
(0.00328992 0 0.00433382)
(0.00329213 0 0.00432787)
(0.00329402 0 0.00432003)
(0.00325554 0 0.00383288)
(0.00325761 0 0.00382788)
(0.00325935 0 0.00382125)
(0.0032235 0 0.00328377)
(0.00322545 0 0.00327969)
(0.00322706 0 0.00327422)
(0.00319502 0 0.00267917)
(0.00319688 0 0.00267598)
(0.00319838 0 0.00267167)
(0.00317145 0 0.00201051)
(0.00317322 0 0.00200821)
(0.00317465 0 0.00200508)
(0.00315421 0 0.00126767)
(0.00315592 0 0.00126629)
(0.00315728 0 0.00126437)
(0.00314483 0 0.000438534)
(0.00314651 0 0.000438074)
(0.00314783 0 0.000437432)
(0.00351636 0 0.00871188)
(0.00354427 0 0.00845192)
(0.00356545 0 0.00828368)
(0.00359754 0 0.00807409)
(0.0036393 0 0.00783023)
(0.0035608 0 0.00819599)
(0.00357858 0 0.00805586)
(0.00360399 0 0.00788034)
(0.00363624 0 0.00767395)
(0.00367385 0 0.00744133)
(0.00371449 0 0.00718896)
(0.00356777 0 0.00794077)
(0.00358277 0 0.0078224)
(0.00360305 0 0.00767352)
(0.00362809 0 0.00749687)
(0.00365679 0 0.00729596)
(0.00368762 0 0.00707493)
(0.00371843 0 0.00683818)
(0.00374688 0 0.00659072)
(0.00356655 0 0.00768317)
(0.00357923 0 0.00758201)
(0.00359545 0 0.00745438)
(0.00361483 0 0.00730196)
(0.00363657 0 0.0071272)
(0.00365956 0 0.00693246)
(0.00368223 0 0.00672106)
(0.0037027 0 0.0064972)
(0.00371917 0 0.00626379)
(0.00355823 0 0.0074202)
(0.00356892 0 0.00733289)
(0.00358186 0 0.00722244)
(0.00359673 0 0.00708985)
(0.00361292 0 0.00693669)
(0.00362958 0 0.00676433)
(0.00364552 0 0.00657516)
(0.00365926 0 0.00637261)
(0.00366928 0 0.00615901)
(0.0035437 0 0.00714894)
(0.00355268 0 0.00707295)
(0.00356291 0 0.0069766)
(0.00357413 0 0.00686039)
(0.00358582 0 0.00672531)
(0.00359733 0 0.00657206)
(0.0036077 0 0.00640235)
(0.00361575 0 0.00621891)
(0.0036202 0 0.00602356)
(0.00352376 0 0.00686648)
(0.00353126 0 0.00679989)
(0.00353924 0 0.00671525)
(0.00354745 0 0.00661276)
(0.00355547 0 0.00649298)
(0.00356274 0 0.00635617)
(0.00356848 0 0.00620353)
(0.00357171 0 0.00603719)
(0.00357138 0 0.00585859)
(0.00349915 0 0.00656986)
(0.00350537 0 0.00651121)
(0.00351145 0 0.00643645)
(0.00351717 0 0.00634558)
(0.00352215 0 0.0062389)
(0.0035259 0 0.00611636)
(0.00352777 0 0.00597877)
(0.00352695 0 0.00582782)
(0.00352251 0 0.00566456)
(0.00347062 0 0.00625603)
(0.00347571 0 0.00620417)
(0.00348019 0 0.00613787)
(0.00348382 0 0.00605702)
(0.00348627 0 0.00596169)
(0.00348708 0 0.00585167)
(0.00348571 0 0.00572748)
(0.00348145 0 0.00559043)
(0.0034735 0 0.0054413)
(0.0034389 0 0.00592176)
(0.00344301 0 0.0058758)
(0.00344612 0 0.00581687)
(0.00344799 0 0.00574477)
(0.00344832 0 0.00565945)
(0.00344668 0 0.00556055)
(0.00344257 0 0.00544843)
(0.0034354 0 0.00532407)
(0.00342446 0 0.00518804)
(0.00340475 0 0.00556355)
(0.00340802 0 0.00552282)
(0.00340996 0 0.00547043)
(0.00341035 0 0.00540612)
(0.00340889 0 0.00532975)
(0.00340518 0 0.00524091)
(0.00339878 0 0.0051398)
(0.00338915 0 0.00502718)
(0.00337564 0 0.00490344)
(0.00336902 0 0.00517763)
(0.00337155 0 0.00514161)
(0.00337249 0 0.00509513)
(0.00337162 0 0.00503788)
(0.00336866 0 0.00496969)
(0.00336322 0 0.00489011)
(0.00335487 0 0.00479922)
(0.00334316 0 0.00469763)
(0.00332748 0 0.00458558)
(0.00333257 0 0.00475977)
(0.00333446 0 0.0047281)
(0.00333455 0 0.00468708)
(0.00333262 0 0.00463639)
(0.00332839 0 0.00457583)
(0.00332149 0 0.00450492)
(0.00331152 0 0.00442372)
(0.00329805 0 0.00433267)
(0.00328052 0 0.00423193)
(0.00329637 0 0.00430526)
(0.00329771 0 0.00427769)
(0.00329708 0 0.00424184)
(0.00329426 0 0.00419741)
(0.00328897 0 0.00414415)
(0.00328084 0 0.00408155)
(0.00326951 0 0.00400969)
(0.00325456 0 0.00392893)
(0.00323548 0 0.00383936)
(0.00326145 0 0.00380868)
(0.00326233 0 0.00378508)
(0.0032611 0 0.00375429)
(0.00325754 0 0.00371604)
(0.00325138 0 0.00367016)
(0.00324221 0 0.00361548)
(0.00322973 0 0.0035528)
(0.00321355 0 0.0034823)
(0.00319319 0 0.003404)
(0.00322895 0 0.00326381)
(0.00322945 0 0.00324413)
(0.00322772 0 0.00321835)
(0.00322355 0 0.00318623)
(0.00321663 0 0.00314738)
(0.00320661 0 0.00310089)
(0.00319322 0 0.00304772)
(0.00317604 0 0.00298783)
(0.00315462 0 0.00292121)
(0.0032001 0 0.00266342)
(0.00320028 0 0.00264772)
(0.00319814 0 0.00262708)
(0.00319347 0 0.00260133)
(0.00318594 0 0.00256926)
(0.00317526 0 0.00253159)
(0.00316114 0 0.00248843)
(0.00314316 0 0.00243973)
(0.00312089 0 0.0023855)
(0.00317622 0 0.00199903)
(0.00317616 0 0.00198744)
(0.00317371 0 0.00197214)
(0.00316864 0 0.00195284)
(0.00316064 0 0.00192855)
(0.00314947 0 0.00190024)
(0.00313479 0 0.0018678)
(0.00311621 0 0.00183119)
(0.0030933 0 0.00179039)
(0.00315876 0 0.00126066)
(0.00315853 0 0.00125352)
(0.00315585 0 0.00124413)
(0.00315049 0 0.00123132)
(0.0031422 0 0.00121593)
(0.00313068 0 0.00119797)
(0.00311562 0 0.00117739)
(0.00309662 0 0.00115415)
(0.00307326 0 0.00112824)
(0.00314926 0 0.000436188)
(0.00314893 0 0.000433816)
(0.00314613 0 0.00043076)
(0.00314062 0 0.000426046)
(0.00313217 0 0.000420594)
(0.00312047 0 0.000414302)
(0.0031052 0 0.000407117)
(0.00308598 0 0.000399015)
(0.00306239 0 0.000389987)
)
;

boundaryField
{
    inlet
    {
        type            cellMotion;
        value           nonuniform 0();
    }
    outlet
    {
        type            cellMotion;
        value           nonuniform 0();
    }
    flap
    {
        type            cellMotion;
        value           nonuniform 0();
    }
    upperWall
    {
        type            slip;
    }
    lowerWall
    {
        type            slip;
    }
    frontAndBack
    {
        type            empty;
    }
    procBoundary1to0
    {
        type            processor;
        value           nonuniform List<vector> 
18
(
(0.0035258 0 0.00686912)
(0.00348795 0 0.0067034)
(0.00348795 0 0.0067034)
(0.00342623 0 0.006328)
(0.00338461 0 0.00612722)
(0.0033424 0 0.00590023)
(0.00329966 0 0.00564665)
(0.00325656 0 0.00536553)
(0.00321338 0 0.00505537)
(0.00317053 0 0.00471411)
(0.00312855 0 0.00433909)
(0.00308809 0 0.00392705)
(0.00304995 0 0.00347405)
(0.00301504 0 0.00297535)
(0.00298442 0 0.00242536)
(0.00295929 0 0.00181744)
(0.002941 0 0.00114375)
(0.00293104 0 0.000394996)
)
;
    }
    procBoundary1to2
    {
        type            processor;
        value           nonuniform List<vector> 
17
(
(0.00372976 0 0.00602329)
(0.00367402 0 0.00593644)
(0.00361975 0 0.005818)
(0.00356637 0 0.00566902)
(0.00351352 0 0.00548998)
(0.00346106 0 0.0052808)
(0.00340904 0 0.00504084)
(0.00335767 0 0.00476891)
(0.00330732 0 0.00446328)
(0.0032585 0 0.00412163)
(0.0032119 0 0.00374103)
(0.0031683 0 0.00331788)
(0.00312866 0 0.00284783)
(0.00309408 0 0.00232569)
(0.00306583 0 0.00174537)
(0.00304534 0 0.00109966)
(0.00303422 0 0.000380025)
)
;
    }
    procBoundary1to3
    {
        type            processor;
        value           nonuniform List<vector> 9((0.00390762 0 0.0066552) (0.00385789 0 0.00689517) (0.00381009 0 0.0070661) (0.00376438 0 0.00717465) (0.00372087 0 0.00722749) (0.00367941 0 0.0072314) (0.00363967 0 0.00719265) (0.00360116 0 0.00711661) (0.0035634 0 0.00700768));
    }
    procBoundary1to4
    {
        type            processor;
        value           nonuniform List<vector> 
30
(
(0.00395467 0 0.00673804)
(0.00389104 0 0.00750808)
(0.00389104 0 0.00750808)
(0.00387247 0 0.00800035)
(0.00378419 0 0.00866233)
(0.00378419 0 0.00866233)
(0.00373867 0 0.0091513)
(0.00363403 0 0.00945627)
(0.00363403 0 0.00945627)
(0.00356521 0 0.00976461)
(0.00350166 0 0.00961355)
(0.00350166 0 0.00961355)
(0.00345229 0 0.00964966)
(0.00342668 0 0.00959108)
(0.00346884 0 0.00919052)
(0.00346884 0 0.00919052)
(0.00346803 0 0.00911784)
(0.0034743 0 0.00897945)
(0.0035418 0 0.00850658)
(0.0035418 0 0.00850658)
(0.00358285 0 0.00825274)
(0.00363738 0 0.0079614)
(0.00368834 0 0.0075596)
(0.00368834 0 0.0075596)
(0.00374119 0 0.00727089)
(0.00375514 0 0.00692354)
(0.00375514 0 0.00692354)
(0.00379294 0 0.00665018)
(0.00377073 0 0.00633601)
(0.00377073 0 0.00633601)
)
;
    }
}


// ************************************************************************* //
