/*--------------------------------*- C++ -*----------------------------------*\
| =========                 |                                                 |
| \\      /  F ield         | OpenFOAM: The Open Source CFD Toolbox           |
|  \\    /   O peration     | Version:  dev                                   |
|   \\  /    A nd           | Web:      www.OpenFOAM.org                      |
|    \\/     M anipulation  |                                                 |
\*---------------------------------------------------------------------------*/
FoamFile
{
    version     2.0;
    format      ascii;
    class       pointVectorField;
    location    "0.11";
    object      pointDisplacement;
}
// * * * * * * * * * * * * * * * * * * * * * * * * * * * * * * * * * * * * * //

dimensions      [0 1 0 0 0 0 0];

internalField   nonuniform List<vector> 
1028
(
(0.00416676 0 0.000773559)
(0.00423505 0 0.000794017)
(0.00417282 0 0.000771025)
(0.00423807 0 0.000789893)
(0.00429782 0 0.000806287)
(0.00435173 0 0.000820024)
(0.00417135 0 0.000766409)
(0.00423356 0 0.00078383)
(0.00428986 0 0.000798811)
(0.00434004 0 0.000811219)
(0.00438386 0 0.00082093)
(0.00442104 0 0.000827836)
(0.00416307 0 0.000759904)
(0.00422239 0 0.000776028)
(0.00427553 0 0.000789784)
(0.00432242 0 0.000801074)
(0.00436294 0 0.000809822)
(0.00439695 0 0.000815977)
(0.00442439 0 0.000819514)
(0.00444519 0 0.000820447)
(0.00414868 0 0.000751665)
(0.00420531 0 0.000766638)
(0.00425562 0 0.000779332)
(0.00429962 0 0.000789684)
(0.00433731 0 0.000797658)
(0.00436869 0 0.000803242)
(0.00439379 0 0.000806458)
(0.00441267 0 0.000807367)
(0.00442545 0 0.000806083)
(0.00443183 0 0.000803301)
(0.00412874 0 0.00074179)
(0.00418292 0 0.000755748)
(0.00423071 0 0.000767526)
(0.00427219 0 0.00077709)
(0.00430748 0 0.000784436)
(0.00433666 0 0.000789582)
(0.00435985 0 0.000792579)
(0.00437718 0 0.00079351)
(0.00438885 0 0.000792501)
(0.00439465 0 0.000790155)
(0.00410375 0 0.000730339)
(0.00415573 0 0.000743402)
(0.00420129 0 0.000754389)
(0.0042406 0 0.000763289)
(0.00427384 0 0.00077012)
(0.00430118 0 0.000774922)
(0.00432279 0 0.000777764)
(0.00433888 0 0.000778738)
(0.00434966 0 0.00077797)
(0.004355 0 0.000775986)
(0.00407415 0 0.000717334)
(0.00412417 0 0.000729608)
(0.00416777 0 0.000739909)
(0.00420521 0 0.000748243)
(0.00423671 0 0.000754647)
(0.0042625 0 0.000759174)
(0.0042828 0 0.0007619)
(0.00429786 0 0.000762924)
(0.00430793 0 0.000762363)
(0.0043129 0 0.000760678)
(0.00404035 0 0.000702769)
(0.00408861 0 0.000714344)
(0.00413051 0 0.000724044)
(0.00416633 0 0.000731892)
(0.00419635 0 0.000737934)
(0.00422084 0 0.000742233)
(0.00424005 0 0.000744871)
(0.00425426 0 0.000745942)
(0.00426374 0 0.000745558)
(0.00426841 0 0.000744124)
(0.00400273 0 0.000686616)
(0.00404945 0 0.000697562)
(0.00408986 0 0.00070673)
(0.00412428 0 0.000714151)
(0.00415303 0 0.000719881)
(0.00417642 0 0.000723987)
(0.00419472 0 0.000726551)
(0.00420822 0 0.000727665)
(0.0042172 0 0.000727432)
(0.00422162 0 0.000726212)
(0.00396169 0 0.00066882)
(0.00400703 0 0.000679193)
(0.00404613 0 0.00068788)
(0.00407934 0 0.000694921)
(0.00410701 0 0.000700375)
(0.00412946 0 0.000704311)
(0.00414699 0 0.00070681)
(0.0041599 0 0.00070796)
(0.00416847 0 0.000707856)
(0.00417267 0 0.000706819)
(0.00386697 0 0.000637843)
(0.00391761 0 0.000649299)
(0.00396172 0 0.000659143)
(0.00399967 0 0.000667388)
(0.00403183 0 0.000674083)
(0.00405857 0 0.000679286)
(0.00408022 0 0.000683068)
(0.00409709 0 0.000685505)
(0.0041095 0 0.000686683)
(0.00411772 0 0.00068669)
(0.00412174 0 0.000685809)
(0.00382137 0 0.000617058)
(0.00387088 0 0.000627945)
(0.0039139 0 0.000637291)
(0.00395083 0 0.000645125)
(0.00398208 0 0.000651497)
(0.00400801 0 0.000656467)
(0.00402898 0 0.000660104)
(0.00404529 0 0.000662481)
(0.00405727 0 0.000663678)
(0.0040652 0 0.000663778)
(0.00406906 0 0.000663035)
(0.00377342 0 0.000594279)
(0.0038219 0 0.000604618)
(0.00386396 0 0.000613493)
(0.00390001 0 0.000620937)
(0.00393046 0 0.000627004)
(0.0039557 0 0.000631753)
(0.00397607 0 0.00063525)
(0.00399191 0 0.000637564)
(0.00400352 0 0.000638772)
(0.00401119 0 0.000638951)
(0.00401492 0 0.000638327)
(0.00372358 0 0.000569359)
(0.00377115 0 0.000579164)
(0.00381236 0 0.000587584)
(0.00384763 0 0.000594653)
(0.00387739 0 0.000600425)
(0.00390202 0 0.000604957)
(0.00392189 0 0.000608314)
(0.00393732 0 0.000610562)
(0.00394861 0 0.000611772)
(0.00395606 0 0.000612015)
(0.00395968 0 0.000611496)
(0.0036724 0 0.000542128)
(0.00371915 0 0.000551405)
(0.0037596 0 0.000559375)
(0.00379419 0 0.000566073)
(0.00382335 0 0.000571552)
(0.00384746 0 0.000575868)
(0.00386688 0 0.000579082)
(0.00388195 0 0.000581257)
(0.00389297 0 0.000582459)
(0.00390023 0 0.000582754)
(0.00390374 0 0.000582326)
(0.00362045 0 0.000512388)
(0.00366647 0 0.000521129)
(0.00370626 0 0.000528645)
(0.00374025 0 0.000534968)
(0.00376888 0 0.00054015)
(0.00379254 0 0.000544244)
(0.00381158 0 0.000547308)
(0.00382634 0 0.000549401)
(0.00383712 0 0.000550584)
(0.00384421 0 0.000550921)
(0.00384763 0 0.000550573)
(0.00356841 0 0.000479902)
(0.00361378 0 0.000488092)
(0.00365298 0 0.000495138)
(0.00368645 0 0.000501074)
(0.00371461 0 0.000505947)
(0.00373787 0 0.000509808)
(0.00375658 0 0.000512711)
(0.00377107 0 0.000514711)
(0.00378165 0 0.000515864)
(0.0037886 0 0.00051623)
(0.00379194 0 0.000515953)
(0.00351702 0 0.000444396)
(0.0035618 0 0.000452005)
(0.00360048 0 0.000458558)
(0.00363349 0 0.000464085)
(0.00366125 0 0.00046863)
(0.00368417 0 0.000472241)
(0.00370259 0 0.000474967)
(0.00371685 0 0.00047686)
(0.00372725 0 0.000477971)
(0.00373407 0 0.000478355)
(0.00373733 0 0.000478139)
(0.0034671 0 0.000405545)
(0.00351137 0 0.000412532)
(0.0035496 0 0.000418557)
(0.0035822 0 0.000423644)
(0.00360962 0 0.000427834)
(0.00363223 0 0.000431172)
(0.00365041 0 0.000433701)
(0.00366447 0 0.00043547)
(0.00367471 0 0.000436525)
(0.00368142 0 0.000436914)
(0.00368462 0 0.000436751)
(0.00341959 0 0.000362969)
(0.00346341 0 0.00036928)
(0.00350124 0 0.000374728)
(0.00353351 0 0.000379333)
(0.00356062 0 0.000383134)
(0.00358298 0 0.000386168)
(0.00360094 0 0.000388476)
(0.00361483 0 0.000390099)
(0.00362494 0 0.000391081)
(0.00363155 0 0.000391464)
(0.0036347 0 0.000391346)
(0.00337554 0 0.000316223)
(0.00341897 0 0.000321788)
(0.00345647 0 0.000326596)
(0.00348844 0 0.000330666)
(0.00351531 0 0.00033403)
(0.00353745 0 0.000336722)
(0.00355524 0 0.000338776)
(0.00356898 0 0.00034023)
(0.00357898 0 0.00034112)
(0.00358551 0 0.000341483)
(0.00358861 0 0.000341403)
(0.00333612 0 0.000264783)
(0.00337923 0 0.00026951)
(0.00341646 0 0.0002736)
(0.00344819 0 0.000277067)
(0.00347485 0 0.000279937)
(0.00349682 0 0.000282238)
(0.00351446 0 0.000284)
(0.00352808 0 0.000285252)
(0.00353799 0 0.000286027)
(0.00354445 0 0.000286357)
(0.00354751 0 0.000286307)
(0.00330266 0 0.000208028)
(0.00334552 0 0.000211806)
(0.00338253 0 0.000215078)
(0.00341408 0 0.000217856)
(0.00344057 0 0.000220159)
(0.00346241 0 0.000222009)
(0.00347993 0 0.00022343)
(0.00349347 0 0.000224444)
(0.0035033 0 0.000225078)
(0.00350971 0 0.000225356)
(0.00351274 0 0.00022533)
(0.00327663 0 0.000145227)
(0.00331932 0 0.000147915)
(0.00335617 0 0.000150246)
(0.00338758 0 0.000152227)
(0.00341397 0 0.000153872)
(0.00343571 0 0.000155197)
(0.00345315 0 0.000156216)
(0.00346662 0 0.000156947)
(0.00347641 0 0.000157407)
(0.00348278 0 0.000157614)
(0.00348578 0 0.000157605)
(0.00325971 0 7.55151e-05)
(0.00330229 0 7.69367e-05)
(0.00333906 0 7.81712e-05)
(0.00337039 0 7.92216e-05)
(0.00339671 0 8.0095e-05)
(0.00341839 0 8.0799e-05)
(0.00343578 0 8.13419e-05)
(0.00344921 0 8.17324e-05)
(0.00345897 0 8.19798e-05)
(0.00346532 0 8.20932e-05)
(0.00346831 0 8.20922e-05)
(0.00325375 0 0)
(0.00329629 0 0)
(0.00333302 0 0)
(0.00336433 0 0)
(0.00339063 0 0)
(0.00341229 0 0)
(0.00342967 0 0)
(0.00344309 0 0)
(0.00345283 0 0)
(0.00345918 0 0)
(0.00346217 0 0)
(0.00416676 0 0.000773559)
(0.00423505 0 0.000794017)
(0.00417282 0 0.000771025)
(0.00423807 0 0.000789893)
(0.00429782 0 0.000806287)
(0.00435173 0 0.000820024)
(0.00417135 0 0.000766409)
(0.00423356 0 0.00078383)
(0.00428986 0 0.000798811)
(0.00434004 0 0.000811219)
(0.00438386 0 0.00082093)
(0.00442104 0 0.000827836)
(0.00416307 0 0.000759904)
(0.00422239 0 0.000776028)
(0.00427553 0 0.000789784)
(0.00432242 0 0.000801074)
(0.00436294 0 0.000809822)
(0.00439695 0 0.000815977)
(0.00442439 0 0.000819514)
(0.00444519 0 0.000820447)
(0.00414868 0 0.000751665)
(0.00420531 0 0.000766638)
(0.00425562 0 0.000779332)
(0.00429962 0 0.000789684)
(0.00433731 0 0.000797658)
(0.00436869 0 0.000803242)
(0.00439379 0 0.000806458)
(0.00441267 0 0.000807367)
(0.00442545 0 0.000806083)
(0.00443183 0 0.000803301)
(0.00412874 0 0.00074179)
(0.00418292 0 0.000755748)
(0.00423071 0 0.000767526)
(0.00427219 0 0.00077709)
(0.00430748 0 0.000784436)
(0.00433666 0 0.000789582)
(0.00435985 0 0.000792579)
(0.00437718 0 0.00079351)
(0.00438885 0 0.000792501)
(0.00439465 0 0.000790155)
(0.00410375 0 0.000730339)
(0.00415573 0 0.000743402)
(0.00420129 0 0.000754389)
(0.0042406 0 0.000763289)
(0.00427384 0 0.00077012)
(0.00430118 0 0.000774922)
(0.00432279 0 0.000777764)
(0.00433888 0 0.000778738)
(0.00434966 0 0.00077797)
(0.004355 0 0.000775986)
(0.00407415 0 0.000717334)
(0.00412417 0 0.000729608)
(0.00416777 0 0.000739909)
(0.00420521 0 0.000748243)
(0.00423671 0 0.000754647)
(0.0042625 0 0.000759174)
(0.0042828 0 0.0007619)
(0.00429786 0 0.000762924)
(0.00430793 0 0.000762363)
(0.0043129 0 0.000760678)
(0.00404035 0 0.000702769)
(0.00408861 0 0.000714344)
(0.00413051 0 0.000724044)
(0.00416633 0 0.000731892)
(0.00419635 0 0.000737934)
(0.00422084 0 0.000742233)
(0.00424005 0 0.000744871)
(0.00425426 0 0.000745942)
(0.00426374 0 0.000745558)
(0.00426841 0 0.000744124)
(0.00400273 0 0.000686616)
(0.00404945 0 0.000697562)
(0.00408986 0 0.00070673)
(0.00412428 0 0.000714151)
(0.00415303 0 0.000719881)
(0.00417642 0 0.000723987)
(0.00419472 0 0.000726551)
(0.00420822 0 0.000727665)
(0.0042172 0 0.000727432)
(0.00422162 0 0.000726212)
(0.00396169 0 0.00066882)
(0.00400703 0 0.000679193)
(0.00404613 0 0.00068788)
(0.00407934 0 0.000694921)
(0.00410701 0 0.000700375)
(0.00412946 0 0.000704311)
(0.00414699 0 0.00070681)
(0.0041599 0 0.00070796)
(0.00416847 0 0.000707856)
(0.00417267 0 0.000706819)
(0.00386697 0 0.000637843)
(0.00391761 0 0.000649299)
(0.00396172 0 0.000659143)
(0.00399967 0 0.000667388)
(0.00403183 0 0.000674083)
(0.00405857 0 0.000679286)
(0.00408022 0 0.000683068)
(0.00409709 0 0.000685505)
(0.0041095 0 0.000686683)
(0.00411772 0 0.00068669)
(0.00412174 0 0.000685809)
(0.00382137 0 0.000617058)
(0.00387088 0 0.000627945)
(0.0039139 0 0.000637291)
(0.00395083 0 0.000645125)
(0.00398208 0 0.000651497)
(0.00400801 0 0.000656467)
(0.00402898 0 0.000660104)
(0.00404529 0 0.000662481)
(0.00405727 0 0.000663678)
(0.0040652 0 0.000663778)
(0.00406906 0 0.000663035)
(0.00377342 0 0.000594279)
(0.0038219 0 0.000604618)
(0.00386396 0 0.000613493)
(0.00390001 0 0.000620937)
(0.00393046 0 0.000627004)
(0.0039557 0 0.000631753)
(0.00397607 0 0.00063525)
(0.00399191 0 0.000637564)
(0.00400352 0 0.000638772)
(0.00401119 0 0.000638951)
(0.00401492 0 0.000638327)
(0.00372358 0 0.000569359)
(0.00377115 0 0.000579164)
(0.00381236 0 0.000587584)
(0.00384763 0 0.000594653)
(0.00387739 0 0.000600425)
(0.00390202 0 0.000604957)
(0.00392189 0 0.000608314)
(0.00393732 0 0.000610562)
(0.00394861 0 0.000611772)
(0.00395606 0 0.000612015)
(0.00395968 0 0.000611496)
(0.0036724 0 0.000542128)
(0.00371915 0 0.000551405)
(0.0037596 0 0.000559375)
(0.00379419 0 0.000566073)
(0.00382335 0 0.000571552)
(0.00384746 0 0.000575868)
(0.00386688 0 0.000579082)
(0.00388195 0 0.000581257)
(0.00389297 0 0.000582459)
(0.00390023 0 0.000582754)
(0.00390374 0 0.000582326)
(0.00362045 0 0.000512388)
(0.00366647 0 0.000521129)
(0.00370626 0 0.000528645)
(0.00374025 0 0.000534968)
(0.00376888 0 0.00054015)
(0.00379254 0 0.000544244)
(0.00381158 0 0.000547308)
(0.00382634 0 0.000549401)
(0.00383712 0 0.000550584)
(0.00384421 0 0.000550921)
(0.00384763 0 0.000550573)
(0.00356841 0 0.000479902)
(0.00361378 0 0.000488092)
(0.00365298 0 0.000495138)
(0.00368645 0 0.000501074)
(0.00371461 0 0.000505947)
(0.00373787 0 0.000509808)
(0.00375658 0 0.000512711)
(0.00377107 0 0.000514711)
(0.00378165 0 0.000515864)
(0.0037886 0 0.00051623)
(0.00379194 0 0.000515953)
(0.00351702 0 0.000444396)
(0.0035618 0 0.000452005)
(0.00360048 0 0.000458558)
(0.00363349 0 0.000464085)
(0.00366125 0 0.00046863)
(0.00368417 0 0.000472241)
(0.00370259 0 0.000474967)
(0.00371685 0 0.00047686)
(0.00372725 0 0.000477971)
(0.00373407 0 0.000478355)
(0.00373733 0 0.000478139)
(0.0034671 0 0.000405545)
(0.00351137 0 0.000412532)
(0.0035496 0 0.000418557)
(0.0035822 0 0.000423644)
(0.00360962 0 0.000427834)
(0.00363223 0 0.000431172)
(0.00365041 0 0.000433701)
(0.00366447 0 0.00043547)
(0.00367471 0 0.000436525)
(0.00368142 0 0.000436914)
(0.00368462 0 0.000436751)
(0.00341959 0 0.000362969)
(0.00346341 0 0.00036928)
(0.00350124 0 0.000374728)
(0.00353351 0 0.000379333)
(0.00356062 0 0.000383134)
(0.00358298 0 0.000386168)
(0.00360094 0 0.000388476)
(0.00361483 0 0.000390099)
(0.00362494 0 0.000391081)
(0.00363155 0 0.000391464)
(0.0036347 0 0.000391346)
(0.00337554 0 0.000316223)
(0.00341897 0 0.000321788)
(0.00345647 0 0.000326596)
(0.00348844 0 0.000330666)
(0.00351531 0 0.00033403)
(0.00353745 0 0.000336722)
(0.00355524 0 0.000338776)
(0.00356898 0 0.00034023)
(0.00357898 0 0.00034112)
(0.00358551 0 0.000341483)
(0.00358861 0 0.000341403)
(0.00333612 0 0.000264783)
(0.00337923 0 0.00026951)
(0.00341646 0 0.0002736)
(0.00344819 0 0.000277067)
(0.00347485 0 0.000279937)
(0.00349682 0 0.000282238)
(0.00351446 0 0.000284)
(0.00352808 0 0.000285252)
(0.00353799 0 0.000286027)
(0.00354445 0 0.000286357)
(0.00354751 0 0.000286307)
(0.00330266 0 0.000208028)
(0.00334552 0 0.000211806)
(0.00338253 0 0.000215078)
(0.00341408 0 0.000217856)
(0.00344057 0 0.000220159)
(0.00346241 0 0.000222009)
(0.00347993 0 0.00022343)
(0.00349347 0 0.000224444)
(0.0035033 0 0.000225078)
(0.00350971 0 0.000225356)
(0.00351274 0 0.00022533)
(0.00327663 0 0.000145227)
(0.00331932 0 0.000147915)
(0.00335617 0 0.000150246)
(0.00338758 0 0.000152227)
(0.00341397 0 0.000153872)
(0.00343571 0 0.000155197)
(0.00345315 0 0.000156216)
(0.00346662 0 0.000156947)
(0.00347641 0 0.000157407)
(0.00348278 0 0.000157614)
(0.00348578 0 0.000157605)
(0.00325971 0 7.55151e-05)
(0.00330229 0 7.69367e-05)
(0.00333906 0 7.81712e-05)
(0.00337039 0 7.92216e-05)
(0.00339671 0 8.0095e-05)
(0.00341839 0 8.0799e-05)
(0.00343578 0 8.13419e-05)
(0.00344921 0 8.17324e-05)
(0.00345897 0 8.19798e-05)
(0.00346532 0 8.20932e-05)
(0.00346831 0 8.20922e-05)
(0.00325375 0 0)
(0.00329629 0 0)
(0.00333302 0 0)
(0.00336433 0 0)
(0.00339063 0 0)
(0.00341229 0 0)
(0.00342967 0 0)
(0.00344309 0 0)
(0.00345283 0 0)
(0.00345918 0 0)
(0.00346217 0 0)
(0.00443362 0 0.000800451)
(0.00439626 0 0.000787714)
(0.0043962 0 0.000785355)
(0.00439443 0 0.000781908)
(0.00435648 0 0.000773877)
(0.00435641 0 0.000771816)
(0.00435476 0 0.00076878)
(0.00431427 0 0.000758841)
(0.0043142 0 0.000757028)
(0.00431267 0 0.000754337)
(0.00426968 0 0.000742515)
(0.00426962 0 0.000740911)
(0.00426818 0 0.000738511)
(0.00422282 0 0.000724796)
(0.00422275 0 0.00072337)
(0.00422139 0 0.00072122)
(0.00417381 0 0.000705569)
(0.00417374 0 0.000704296)
(0.00417245 0 0.000702364)
(0.00412282 0 0.000684705)
(0.00412276 0 0.000683567)
(0.00412153 0 0.000681826)
(0.0040701 0 0.000662057)
(0.00407003 0 0.000661038)
(0.00406885 0 0.000659468)
(0.00401592 0 0.000637461)
(0.00401585 0 0.000636548)
(0.00401472 0 0.000635132)
(0.00396063 0 0.00061073)
(0.00396057 0 0.000609912)
(0.00395947 0 0.000608635)
(0.00390466 0 0.00058165)
(0.0039046 0 0.00058092)
(0.00390354 0 0.000579769)
(0.00384852 0 0.000549978)
(0.00384846 0 0.000549327)
(0.00384744 0 0.000548294)
(0.0037928 0 0.000515432)
(0.00379273 0 0.000514854)
(0.00379174 0 0.000513931)
(0.00373817 0 0.000477687)
(0.00373811 0 0.000477177)
(0.00373714 0 0.000476357)
(0.00368543 0 0.000436362)
(0.00368537 0 0.000435918)
(0.00368442 0 0.000435196)
(0.00363549 0 0.000391017)
(0.00363543 0 0.000390634)
(0.00363451 0 0.000390009)
(0.00358938 0 0.000341131)
(0.00358932 0 0.000340808)
(0.00358841 0 0.000340277)
(0.00354827 0 0.00028609)
(0.00354821 0 0.000285827)
(0.00354732 0 0.000285391)
(0.00351349 0 0.000225166)
(0.00351343 0 0.000224965)
(0.00351255 0 0.000224626)
(0.00348652 0 0.000157494)
(0.00348646 0 0.000157356)
(0.00348559 0 0.000157121)
(0.00346905 0 8.2037e-05)
(0.00346898 0 8.19656e-05)
(0.00346812 0 8.1843e-05)
(0.0034629 0 0)
(0.00346283 0 0)
(0.00346197 0 0)
(0.00443362 0 0.000800451)
(0.00439626 0 0.000787714)
(0.0043962 0 0.000785355)
(0.00439443 0 0.000781908)
(0.00435648 0 0.000773877)
(0.00435641 0 0.000771816)
(0.00435476 0 0.00076878)
(0.00431427 0 0.000758841)
(0.0043142 0 0.000757028)
(0.00431267 0 0.000754337)
(0.00426968 0 0.000742515)
(0.00426962 0 0.000740911)
(0.00426818 0 0.000738511)
(0.00422282 0 0.000724796)
(0.00422275 0 0.00072337)
(0.00422139 0 0.00072122)
(0.00417381 0 0.000705569)
(0.00417374 0 0.000704296)
(0.00417245 0 0.000702364)
(0.00412282 0 0.000684705)
(0.00412276 0 0.000683567)
(0.00412153 0 0.000681826)
(0.0040701 0 0.000662057)
(0.00407003 0 0.000661038)
(0.00406885 0 0.000659468)
(0.00401592 0 0.000637461)
(0.00401585 0 0.000636548)
(0.00401472 0 0.000635132)
(0.00396063 0 0.00061073)
(0.00396057 0 0.000609912)
(0.00395947 0 0.000608635)
(0.00390466 0 0.00058165)
(0.0039046 0 0.00058092)
(0.00390354 0 0.000579769)
(0.00384852 0 0.000549978)
(0.00384846 0 0.000549327)
(0.00384744 0 0.000548294)
(0.0037928 0 0.000515432)
(0.00379273 0 0.000514854)
(0.00379174 0 0.000513931)
(0.00373817 0 0.000477687)
(0.00373811 0 0.000477177)
(0.00373714 0 0.000476357)
(0.00368543 0 0.000436362)
(0.00368537 0 0.000435918)
(0.00368442 0 0.000435196)
(0.00363549 0 0.000391017)
(0.00363543 0 0.000390634)
(0.00363451 0 0.000390009)
(0.00358938 0 0.000341131)
(0.00358932 0 0.000340808)
(0.00358841 0 0.000340277)
(0.00354827 0 0.00028609)
(0.00354821 0 0.000285827)
(0.00354732 0 0.000285391)
(0.00351349 0 0.000225166)
(0.00351343 0 0.000224965)
(0.00351255 0 0.000224626)
(0.00348652 0 0.000157494)
(0.00348646 0 0.000157356)
(0.00348559 0 0.000157121)
(0.00346905 0 8.2037e-05)
(0.00346898 0 8.19656e-05)
(0.00346812 0 8.1843e-05)
(0.0034629 0 0)
(0.00346283 0 0)
(0.00346197 0 0)
(0.0043884 0 0.00077603)
(0.00434918 0 0.000763541)
(0.00433812 0 0.000756261)
(0.00432175 0 0.000747561)
(0.00429984 0 0.000737447)
(0.00430746 0 0.000749641)
(0.00429712 0 0.00074304)
(0.00428177 0 0.000735074)
(0.00426117 0 0.000725734)
(0.00423508 0 0.000715019)
(0.00420328 0 0.000702935)
(0.00426328 0 0.00073428)
(0.00425354 0 0.000728273)
(0.00423905 0 0.00072096)
(0.00421955 0 0.000712322)
(0.00419477 0 0.000702347)
(0.00416445 0 0.000691031)
(0.00412834 0 0.000678377)
(0.00408618 0 0.000664393)
(0.00421676 0 0.000717393)
(0.00420752 0 0.000711908)
(0.00419375 0 0.000705178)
(0.00417517 0 0.000697176)
(0.00415151 0 0.000687884)
(0.00412248 0 0.000677287)
(0.00408777 0 0.00066538)
(0.00404711 0 0.000652164)
(0.00400019 0 0.000637665)
(0.00416804 0 0.000698892)
(0.00415922 0 0.000693871)
(0.00414605 0 0.000687664)
(0.00412826 0 0.00068024)
(0.00410555 0 0.000671574)
(0.00407761 0 0.000661648)
(0.00404414 0 0.000650448)
(0.0040048 0 0.000637967)
(0.00395926 0 0.000624221)
(0.0041173 0 0.000678669)
(0.00410884 0 0.000674064)
(0.00409618 0 0.00066833)
(0.00407905 0 0.000661435)
(0.00405715 0 0.000653348)
(0.00403016 0 0.000644046)
(0.00399775 0 0.00063351)
(0.00395956 0 0.000621727)
(0.00391526 0 0.000608707)
(0.00406479 0 0.000656593)
(0.00405663 0 0.000652364)
(0.00404441 0 0.000647064)
(0.00402785 0 0.000640656)
(0.00400664 0 0.000633107)
(0.00398046 0 0.00062439)
(0.00394897 0 0.000614483)
(0.00391179 0 0.000603367)
(0.00386858 0 0.000591048)
(0.00401079 0 0.000632513)
(0.00400289 0 0.000628628)
(0.00399105 0 0.000623726)
(0.00397497 0 0.000617771)
(0.00395436 0 0.000610728)
(0.00392888 0 0.000602565)
(0.00389819 0 0.000593258)
(0.0038619 0 0.000582785)
(0.00381965 0 0.000571147)
(0.00395567 0 0.00060625)
(0.003948 0 0.000602683)
(0.00393647 0 0.000598154)
(0.00392081 0 0.000592625)
(0.00390071 0 0.00058606)
(0.00387584 0 0.000578428)
(0.00384585 0 0.000569699)
(0.00381033 0 0.00055985)
(0.00376895 0 0.000548881)
(0.00389985 0 0.000577601)
(0.00389237 0 0.00057433)
(0.00388113 0 0.000570152)
(0.00386583 0 0.000565029)
(0.00384617 0 0.000558924)
(0.00382183 0 0.000551804)
(0.00379244 0 0.00054364)
(0.00375761 0 0.000534405)
(0.00371699 0 0.000524098)
(0.00384384 0 0.000546328)
(0.00383653 0 0.000543337)
(0.00382553 0 0.000539494)
(0.00381054 0 0.000534762)
(0.00379127 0 0.000529104)
(0.00376739 0 0.000522487)
(0.00373853 0 0.000514881)
(0.0037043 0 0.000506258)
(0.00366436 0 0.000496616)
(0.00378822 0 0.000512155)
(0.00378107 0 0.000509433)
(0.00377027 0 0.000505915)
(0.00375556 0 0.000501566)
(0.00373663 0 0.000496349)
(0.00371314 0 0.000490232)
(0.00368475 0 0.000483185)
(0.00365106 0 0.00047518)
(0.00361171 0 0.000466216)
(0.0037337 0 0.000474765)
(0.00372668 0 0.000472303)
(0.00371606 0 0.000469105)
(0.00370159 0 0.000465136)
(0.00368294 0 0.000460362)
(0.00365981 0 0.00045475)
(0.00363182 0 0.000448272)
(0.00359859 0 0.000440902)
(0.00355978 0 0.000432636)
(0.00368105 0 0.000433782)
(0.00367415 0 0.000431579)
(0.00366369 0 0.000428701)
(0.00364942 0 0.000425117)
(0.00363103 0 0.000420793)
(0.00360819 0 0.000415701)
(0.00358056 0 0.000409813)
(0.00354773 0 0.000403102)
(0.00350939 0 0.000395568)
(0.00363119 0 0.00038877)
(0.00362439 0 0.000386827)
(0.00361407 0 0.000384276)
(0.00359997 0 0.000381088)
(0.00358179 0 0.000377234)
(0.00355922 0 0.000372685)
(0.00353189 0 0.000367416)
(0.00349941 0 0.000361405)
(0.00346147 0 0.000354649)
(0.00358515 0 0.000339216)
(0.00357843 0 0.000337539)
(0.00356822 0 0.000335328)
(0.00355427 0 0.000332556)
(0.00353628 0 0.000329198)
(0.00351392 0 0.000325228)
(0.00348685 0 0.000320623)
(0.00345466 0 0.000315364)
(0.00341707 0 0.000309449)
(0.0035441 0 0.000284512)
(0.00353745 0 0.000283115)
(0.00352734 0 0.000281264)
(0.0035135 0 0.000278939)
(0.00349566 0 0.000276115)
(0.00347348 0 0.000272772)
(0.00344661 0 0.00026889)
(0.00341468 0 0.000264454)
(0.00337736 0 0.000259461)
(0.00350936 0 0.00022394)
(0.00350276 0 0.000222841)
(0.00349272 0 0.000221382)
(0.00347899 0 0.000219543)
(0.00346126 0 0.000217306)
(0.00343922 0 0.000214655)
(0.00341251 0 0.000211575)
(0.00338077 0 0.000208051)
(0.00334368 0 0.000204085)
(0.00348243 0 0.000156641)
(0.00347587 0 0.000155871)
(0.00346588 0 0.000154844)
(0.00345221 0 0.000153547)
(0.00343456 0 0.000151967)
(0.00341262 0 0.000150093)
(0.00338603 0 0.000147914)
(0.00335442 0 0.000145421)
(0.0033175 0 0.000142614)
(0.00346497 0 8.15921e-05)
(0.00345843 0 8.11886e-05)
(0.00344848 0 8.06493e-05)
(0.00343485 0 7.99673e-05)
(0.00341725 0 7.91359e-05)
(0.00339536 0 7.8149e-05)
(0.00336885 0 7.70011e-05)
(0.00333731 0 7.56875e-05)
(0.00330048 0 7.42083e-05)
(0.00345882 0 0)
(0.00345229 0 0)
(0.00344235 0 0)
(0.00342873 0 0)
(0.00341115 0 0)
(0.00338929 0 0)
(0.00336279 0 0)
(0.00333129 0 0)
(0.00329448 0 0)
(0.0043884 0 0.00077603)
(0.00434918 0 0.000763541)
(0.00433812 0 0.000756261)
(0.00432175 0 0.000747561)
(0.00429984 0 0.000737447)
(0.00430746 0 0.000749641)
(0.00429712 0 0.00074304)
(0.00428177 0 0.000735074)
(0.00426117 0 0.000725734)
(0.00423508 0 0.000715019)
(0.00420328 0 0.000702935)
(0.00426328 0 0.00073428)
(0.00425354 0 0.000728273)
(0.00423905 0 0.00072096)
(0.00421955 0 0.000712322)
(0.00419477 0 0.000702347)
(0.00416445 0 0.000691031)
(0.00412834 0 0.000678377)
(0.00408618 0 0.000664393)
(0.00421676 0 0.000717393)
(0.00420752 0 0.000711908)
(0.00419375 0 0.000705178)
(0.00417517 0 0.000697176)
(0.00415151 0 0.000687884)
(0.00412248 0 0.000677287)
(0.00408777 0 0.00066538)
(0.00404711 0 0.000652164)
(0.00400019 0 0.000637665)
(0.00416804 0 0.000698892)
(0.00415922 0 0.000693871)
(0.00414605 0 0.000687664)
(0.00412826 0 0.00068024)
(0.00410555 0 0.000671574)
(0.00407761 0 0.000661648)
(0.00404414 0 0.000650448)
(0.0040048 0 0.000637967)
(0.00395926 0 0.000624221)
(0.0041173 0 0.000678669)
(0.00410884 0 0.000674064)
(0.00409618 0 0.00066833)
(0.00407905 0 0.000661435)
(0.00405715 0 0.000653348)
(0.00403016 0 0.000644046)
(0.00399775 0 0.00063351)
(0.00395956 0 0.000621727)
(0.00391526 0 0.000608707)
(0.00406479 0 0.000656593)
(0.00405663 0 0.000652364)
(0.00404441 0 0.000647064)
(0.00402785 0 0.000640656)
(0.00400664 0 0.000633107)
(0.00398046 0 0.00062439)
(0.00394897 0 0.000614483)
(0.00391179 0 0.000603367)
(0.00386858 0 0.000591048)
(0.00401079 0 0.000632513)
(0.00400289 0 0.000628628)
(0.00399105 0 0.000623726)
(0.00397497 0 0.000617771)
(0.00395436 0 0.000610728)
(0.00392888 0 0.000602565)
(0.00389819 0 0.000593258)
(0.0038619 0 0.000582785)
(0.00381965 0 0.000571147)
(0.00395567 0 0.00060625)
(0.003948 0 0.000602683)
(0.00393647 0 0.000598154)
(0.00392081 0 0.000592625)
(0.00390071 0 0.00058606)
(0.00387584 0 0.000578428)
(0.00384585 0 0.000569699)
(0.00381033 0 0.00055985)
(0.00376895 0 0.000548881)
(0.00389985 0 0.000577601)
(0.00389237 0 0.00057433)
(0.00388113 0 0.000570152)
(0.00386583 0 0.000565029)
(0.00384617 0 0.000558924)
(0.00382183 0 0.000551804)
(0.00379244 0 0.00054364)
(0.00375761 0 0.000534405)
(0.00371699 0 0.000524098)
(0.00384384 0 0.000546328)
(0.00383653 0 0.000543337)
(0.00382553 0 0.000539494)
(0.00381054 0 0.000534762)
(0.00379127 0 0.000529104)
(0.00376739 0 0.000522487)
(0.00373853 0 0.000514881)
(0.0037043 0 0.000506258)
(0.00366436 0 0.000496616)
(0.00378822 0 0.000512155)
(0.00378107 0 0.000509433)
(0.00377027 0 0.000505915)
(0.00375556 0 0.000501566)
(0.00373663 0 0.000496349)
(0.00371314 0 0.000490232)
(0.00368475 0 0.000483185)
(0.00365106 0 0.00047518)
(0.00361171 0 0.000466216)
(0.0037337 0 0.000474765)
(0.00372668 0 0.000472303)
(0.00371606 0 0.000469105)
(0.00370159 0 0.000465136)
(0.00368294 0 0.000460362)
(0.00365981 0 0.00045475)
(0.00363182 0 0.000448272)
(0.00359859 0 0.000440902)
(0.00355978 0 0.000432636)
(0.00368105 0 0.000433782)
(0.00367415 0 0.000431579)
(0.00366369 0 0.000428701)
(0.00364942 0 0.000425117)
(0.00363103 0 0.000420793)
(0.00360819 0 0.000415701)
(0.00358056 0 0.000409813)
(0.00354773 0 0.000403102)
(0.00350939 0 0.000395568)
(0.00363119 0 0.00038877)
(0.00362439 0 0.000386827)
(0.00361407 0 0.000384276)
(0.00359997 0 0.000381088)
(0.00358179 0 0.000377234)
(0.00355922 0 0.000372685)
(0.00353189 0 0.000367416)
(0.00349941 0 0.000361405)
(0.00346147 0 0.000354649)
(0.00358515 0 0.000339216)
(0.00357843 0 0.000337539)
(0.00356822 0 0.000335328)
(0.00355427 0 0.000332556)
(0.00353628 0 0.000329198)
(0.00351392 0 0.000325228)
(0.00348685 0 0.000320623)
(0.00345466 0 0.000315364)
(0.00341707 0 0.000309449)
(0.0035441 0 0.000284512)
(0.00353745 0 0.000283115)
(0.00352734 0 0.000281264)
(0.0035135 0 0.000278939)
(0.00349566 0 0.000276115)
(0.00347348 0 0.000272772)
(0.00344661 0 0.00026889)
(0.00341468 0 0.000264454)
(0.00337736 0 0.000259461)
(0.00350936 0 0.00022394)
(0.00350276 0 0.000222841)
(0.00349272 0 0.000221382)
(0.00347899 0 0.000219543)
(0.00346126 0 0.000217306)
(0.00343922 0 0.000214655)
(0.00341251 0 0.000211575)
(0.00338077 0 0.000208051)
(0.00334368 0 0.000204085)
(0.00348243 0 0.000156641)
(0.00347587 0 0.000155871)
(0.00346588 0 0.000154844)
(0.00345221 0 0.000153547)
(0.00343456 0 0.000151967)
(0.00341262 0 0.000150093)
(0.00338603 0 0.000147914)
(0.00335442 0 0.000145421)
(0.0033175 0 0.000142614)
(0.00346497 0 8.15921e-05)
(0.00345843 0 8.11886e-05)
(0.00344848 0 8.06493e-05)
(0.00343485 0 7.99673e-05)
(0.00341725 0 7.91359e-05)
(0.00339536 0 7.8149e-05)
(0.00336885 0 7.70011e-05)
(0.00333731 0 7.56875e-05)
(0.00330048 0 7.42083e-05)
(0.00345882 0 0)
(0.00345229 0 0)
(0.00344235 0 0)
(0.00342873 0 0)
(0.00341115 0 0)
(0.00338929 0 0)
(0.00336279 0 0)
(0.00333129 0 0)
(0.00329448 0 0)
)
;

boundaryField
{
    inlet
    {
        type            fixedValue;
        value           nonuniform 0();
    }
    outlet
    {
        type            fixedValue;
        value           nonuniform 0();
    }
    flap
    {
        type            fixedValue;
        value           nonuniform 0();
    }
    upperWall
    {
        type            slip;
    }
    lowerWall
    {
        type            slip;
    }
    frontAndBack
    {
        type            empty;
    }
    procBoundary1to0
    {
        type            processor;
    }
    procBoundary1to2
    {
        type            processor;
    }
    procBoundary1to3
    {
        type            processor;
    }
    procBoundary1to4
    {
        type            processor;
    }
}


// ************************************************************************* //
