/*--------------------------------*- C++ -*----------------------------------*\
| =========                 |                                                 |
| \\      /  F ield         | OpenFOAM: The Open Source CFD Toolbox           |
|  \\    /   O peration     | Version:  dev                                   |
|   \\  /    A nd           | Web:      www.OpenFOAM.org                      |
|    \\/     M anipulation  |                                                 |
\*---------------------------------------------------------------------------*/
FoamFile
{
    version     2.0;
    format      ascii;
    class       surfaceScalarField;
    location    "3.86";
    object      phi;
}
// * * * * * * * * * * * * * * * * * * * * * * * * * * * * * * * * * * * * * //

dimensions      [0 3 -1 0 0 0 0];

internalField   nonuniform List<scalar> 
5457
(
0.198351
0.00164504
0.196377
0.00197098
0.194045
0.00232907
0.191316
0.00272589
0.188189
0.00312516
0.184663
0.00352318
0.180734
0.00392767
0.176386
0.00434579
0.171602
0.00478258
0.166359
0.00524191
0.160632
0.00572703
0.154391
0.00624058
0.147606
0.00678429
0.140248
0.00735863
0.132286
0.0079622
0.123696
0.00859103
0.11446
0.00923767
0.104571
0.00989006
0.094042
0.0105304
0.0829096
0.0111338
0.0712431
0.0116679
0.0591529
0.0120917
0.0467978
0.0123564
0.0343913
0.0124075
0.0221983
0.0121938
0.0104762
0.0117227
-0.000629884
0.0111065
-0.00631008
0.00568039
-0.00660886
0.000298849
-0.00660884
0.199905
0.00173697
0.199113
0.00275873
0.197867
0.00357249
0.196195
0.00439519
0.194093
0.00522428
0.191559
0.00605511
0.188585
0.00689942
0.185159
0.00777037
0.181262
0.00867806
0.176873
0.00963049
0.171965
0.0106345
0.166509
0.0116956
0.160475
0.012818
0.153831
0.014003
0.146545
0.0152488
0.138588
0.0165486
0.129939
0.0178885
0.120584
0.0192461
0.110529
0.020587
0.099801
0.0218632
0.0884602
0.0230102
0.0766078
0.0239456
0.0643976
0.0245679
0.0520496
0.0247565
0.0398776
0.0243666
0.0284112
0.0231897
0.0188198
0.0206983
0.00927332
0.015227
0.00154318
0.00802906
-0.00506564
0.199756
0.0019773
0.199025
0.00348625
0.197849
0.0047455
0.196276
0.00596554
0.194311
0.00718653
0.191952
0.00841248
0.189192
0.00965742
0.186022
0.0109387
0.182427
0.012271
0.17839
0.0136664
0.173889
0.0151353
0.168898
0.0166865
0.163389
0.0183267
0.157332
0.0200596
0.150698
0.0218841
0.143454
0.0237929
0.135574
0.0257695
0.127037
0.0277849
0.117831
0.0297943
0.107964
0.0317323
0.0974658
0.0335095
0.0864045
0.0350083
0.0748947
0.0360791
0.0631168
0.0365355
0.0513437
0.0361406
0.0399613
0.0345726
0.0293274
0.0313326
0.0189307
0.0256239
0.00952173
0.0174381
0.0044561
0.199674
0.00229924
0.198945
0.00421237
0.19779
0.0058978
0.196243
0.0075095
0.194317
0.00910983
0.192012
0.0107158
0.189323
0.0123445
0.186244
0.014016
0.182765
0.0157486
0.178872
0.0175576
0.174551
0.0194563
0.169781
0.021456
0.164542
0.0235656
0.158811
0.0257906
0.152564
0.0281317
0.145776
0.0305822
0.138421
0.0331253
0.130477
0.0357303
0.121925
0.0383478
0.112755
0.0409038
0.102971
0.0432944
0.0926018
0.0453794
0.0817065
0.0469758
0.0703916
0.0478515
0.058817
0.047716
0.0471804
0.0462099
0.0356335
0.0428799
0.0241159
0.0371416
0.012678
0.0288761
0.0171341
0.199637
0.00265835
0.198901
0.00494481
0.197766
0.00703035
0.196248
0.00902401
0.194362
0.0109934
0.192109
0.0129674
0.189484
0.0149673
0.186483
0.0170155
0.183097
0.019133
0.179316
0.0213376
0.175126
0.0236448
0.170514
0.0260677
0.165463
0.0286168
0.159955
0.0312989
0.153971
0.0341158
0.147492
0.0370621
0.140497
0.040122
0.132963
0.0432659
0.124867
0.0464445
0.11619
0.0495828
0.106913
0.052573
0.0970279
0.0552661
0.0865414
0.0574637
0.0754836
0.0589104
0.0639127
0.0592877
0.0519113
0.0582119
0.0395569
0.0552347
0.0268523
0.0498464
0.0137837
0.0419447
0.0309179
0.199622
0.00303247
0.198886
0.00567737
0.197775
0.00813892
0.196295
0.0105006
0.194458
0.0128278
0.192266
0.0151574
0.189716
0.0175155
0.186803
0.0199269
0.18352
0.0224148
0.179857
0.0249992
0.175804
0.0276974
0.171347
0.030524
0.166473
0.0334908
0.161166
0.0366058
0.155411
0.0398719
0.149189
0.0432852
0.14248
0.0468321
0.135262
0.0504854
0.127508
0.0541996
0.119188
0.0579045
0.110266
0.0614966
0.100703
0.0648303
0.0904615
0.0677067
0.0795092
0.0698639
0.0678298
0.070968
0.0554326
0.0706097
0.0423541
0.0683136
0.0286522
0.0635485
0.0144895
0.0561074
0.0454074
0.19962
0.00340921
0.198892
0.00640136
0.197809
0.00921846
0.196375
0.0119322
0.194596
0.0146039
0.192476
0.0172753
0.190013
0.0199771
0.187201
0.0227366
0.184036
0.025579
0.180508
0.0285264
0.176606
0.0315977
0.172321
0.0348093
0.167637
0.0381741
0.162542
0.0417015
0.157018
0.0453962
0.151048
0.0492562
0.144611
0.053271
0.137679
0.0574178
0.130223
0.0616576
0.1222
0.0659287
0.11356
0.0701385
0.104238
0.0741535
0.094161
0.0777856
0.0832478
0.0807783
0.0714256
0.0827911
0.0586488
0.0833872
0.0449272
0.0820356
0.030366
0.0781099
0.0152618
0.0712117
0.0606693
0.199625
0.00378088
0.198914
0.00710892
0.197865
0.0102634
0.196483
0.013312
0.194771
0.016313
0.192733
0.019311
0.190368
0.0223404
0.187672
0.0254313
0.184639
0.0286106
0.181261
0.0319025
0.177531
0.0353276
0.173436
0.0389039
0.168964
0.0426461
0.1641
0.0465654
0.158828
0.0506686
0.153129
0.0549569
0.146977
0.0594238
0.140343
0.0640529
0.133189
0.0688138
0.125462
0.0736565
0.117098
0.0785042
0.108012
0.0832419
0.0980974
0.0877013
0.087235
0.0916419
0.0753006
0.0947265
0.0621939
0.0964946
0.0478827
0.0963472
0.0324717
0.0935211
0.0163078
0.0873758
0.0769771
0.199635
0.00414233
0.198947
0.00779347
0.197939
0.0112679
0.196614
0.0146337
0.194978
0.0179472
0.193031
0.021255
0.190775
0.0245946
0.188207
0.0279984
0.18532
0.0314955
0.18211
0.0351115
0.178568
0.0388692
0.174683
0.0427881
0.170444
0.046885
0.165837
0.0511733
0.160843
0.0556628
0.155443
0.0603585
0.149608
0.0652597
0.143305
0.0703574
0.136488
0.0756319
0.129098
0.081048
0.121056
0.0865484
0.112257
0.0920422
0.102571
0.0973894
0.0918368
0.102377
0.0798767
0.106688
0.0665185
0.109853
0.051649
0.111217
0.0353035
0.109867
0.0178014
0.104878
0.0947785
0.199649
0.00448982
0.198989
0.0084496
0.198027
0.0122266
0.196767
0.0158911
0.195212
0.0194992
0.193366
0.0230986
0.191229
0.0267295
0.188799
0.0304265
0.186073
0.0342204
0.183045
0.0381386
0.179708
0.0422056
0.176053
0.0464427
0.172069
0.050869
0.167742
0.0555004
0.163055
0.0603502
0.157987
0.0654281
0.152508
0.0707397
0.146582
0.0762851
0.140158
0.0820569
0.133171
0.0880369
0.125531
0.0941905
0.117118
0.100457
0.107776
0.106733
0.0973042
0.11285
0.0854603
0.118532
0.0719726
0.123342
0.0565879
0.126602
0.0391795
0.127275
0.0199434
0.124114
0.114722
0.199665
0.00482056
0.199039
0.00907287
0.198127
0.0131345
0.196937
0.0170788
0.195471
0.0209624
0.193733
0.0248342
0.191724
0.0287363
0.189444
0.0327053
0.186889
0.0367737
0.184057
0.0409704
0.18094
0.0453214
0.177532
0.0498502
0.173824
0.0545777
0.169802
0.0595227
0.16545
0.0647023
0.160748
0.0701311
0.155667
0.0758217
0.15017
0.0817838
0.144205
0.0880234
0.137703
0.094541
0.130568
0.101327
0.122669
0.108357
0.11383
0.115574
0.10381
0.122872
0.0922915
0.130052
0.0788737
0.13676
0.0630901
0.142386
0.0445128
0.145853
0.0230369
0.14559
0.137759
0.199684
0.00513234
0.199094
0.00965961
0.198238
0.0139872
0.197122
0.0181918
0.195751
0.022331
0.194128
0.0264548
0.192255
0.030607
0.190133
0.0348257
0.187761
0.0391448
0.185135
0.0435948
0.182253
0.0482031
0.179108
0.0529946
0.175694
0.0579925
0.171998
0.0632182
0.168009
0.0686924
0.163707
0.0744345
0.159066
0.0804642
0.15405
0.0868005
0.148612
0.0934631
0.142684
0.100471
0.136169
0.107843
0.128936
0.115592
0.120793
0.123719
0.111468
0.132198
0.100573
0.140948
0.0875564
0.149778
0.0716644
0.158279
0.0519627
0.165555
0.0276531
0.1699
0.165412
0.199705
0.00542342
0.199154
0.0102068
0.198357
0.0147809
0.19732
0.0192258
0.196048
0.0236
0.194546
0.0279546
0.192817
0.0323347
0.190861
0.0367798
0.188679
0.041325
0.186271
0.0460017
0.183635
0.0508387
0.180767
0.0558622
0.177663
0.0610972
0.174314
0.0665674
0.170711
0.0722964
0.166838
0.0783083
0.162675
0.0846286
0.158191
0.0912853
0.153346
0.0983102
0.148079
0.105741
0.142303
0.113621
0.135894
0.122003
0.128665
0.13095
0.120335
0.14053
0.110469
0.150815
0.0983872
0.16186
0.0830117
0.173655
0.0626563
0.185911
0.0349888
0.197568
0.200401
0.199727
0.00569245
0.199218
0.0107121
0.198483
0.0155126
0.197529
0.020177
0.196361
0.024765
0.194984
0.0293287
0.193403
0.033914
0.19162
0.0385614
0.189637
0.0433069
0.187455
0.0481829
0.185074
0.0532188
0.182494
0.058442
0.179713
0.0638786
0.176726
0.0695541
0.173529
0.0754945
0.170111
0.0817272
0.166458
0.0882825
0.16255
0.0951952
0.158355
0.102507
0.153828
0.11027
0.148901
0.118549
0.143472
0.127434
0.137385
0.137039
0.130387
0.147529
0.122067
0.159136
0.111715
0.172214
0.0980421
0.187328
0.0785309
0.205422
0.0478357
0.228263
0.248237
0.19975
0.0059385
0.199284
0.0111738
0.198614
0.01618
0.197745
0.0210428
0.196684
0.025823
0.195437
0.0305733
0.194009
0.0353403
0.192404
0.0401654
0.190624
0.045085
0.188674
0.0501319
0.186556
0.0553361
0.184273
0.0607254
0.181825
0.0663267
0.179213
0.0721663
0.176437
0.0782716
0.173493
0.084672
0.170376
0.0914007
0.167076
0.0984966
0.163577
0.106008
0.159854
0.113994
0.155868
0.122538
0.151557
0.131746
0.146823
0.141774
0.141505
0.152848
0.135324
0.165319
0.127774
0.179764
0.11785
0.197253
0.103184
0.220089
0.0756218
0.255826
0.323858
0.00466912
-0.00466911
0.00918982
-0.00452067
0.0130057
-0.00381582
0.0160003
-0.00299438
0.0182107
-0.00221015
0.0197152
-0.00150412
0.020602
-0.000886266
0.020967
-0.000364419
0.0209212
4.63799e-05
0.0205881
0.000333517
0.0200789
0.000509526
0.0194783
0.000600653
0.0188527
0.000625385
0.0182556
0.000596526
0.0177278
0.000527015
0.0172944
0.000432292
0.0169628
0.000330152
0.0167236
0.000237641
0.0165579
0.000164009
0.0164516
0.00010446
0.016407
4.28809e-05
0.0164413
-3.58503e-05
0.0165685
-0.000128504
0.0167837
-0.000216115
0.0170731
-0.000289941
0.0174366
-0.000363529
0.017901
-0.00046385
0.0185089
-0.000606932
0.0192778
-0.000767371
-0.00080973
0.00425789
-0.00892699
0.008489
-0.00875175
0.0121345
-0.00746125
0.0151106
-0.00597028
0.0174656
-0.00456487
0.0192665
-0.00330459
0.0205802
-0.00219953
0.0214708
-0.00125446
0.0219889
-0.000471098
0.0221919
0.00013105
0.0221686
0.000533018
0.0220094
0.000759879
0.0217863
0.000848311
0.0215528
0.000829479
0.0213429
0.000736083
0.0211709
0.000603223
0.0210323
0.000467392
0.0209083
0.000359958
0.0207771
0.000293526
0.020628
0.000251768
0.0204695
0.000199667
0.0203191
0.000113014
0.0201887
5.62789e-07
0.0200794
-0.000107723
0.0199836
-0.000194651
0.0198956
-0.000275608
0.0198326
-0.00040031
0.0198449
-0.00061821
0.0200138
-0.000934813
-0.00123296
0.00357857
-0.0125056
0.0070414
-0.0122145
0.00995146
-0.0103712
0.0123448
-0.00836346
0.0142853
-0.00650509
0.015821
-0.00483988
0.0169956
-0.00337367
0.0178529
-0.00211112
0.0184429
-0.00106057
0.0188034
-0.00022893
0.0189677
0.000369049
0.0189907
0.000736819
0.0189274
0.000911453
0.0188138
0.000942507
0.0186662
0.000882948
0.0184837
0.000784516
0.0182528
0.000696907
0.0179497
0.000661479
0.0175484
0.000693102
0.0170338
0.000764576
0.0164111
0.000820671
0.0157102
0.000812305
0.0149895
0.000719978
0.0143213
0.000559548
0.0137672
0.000358976
0.0133569
0.00013469
0.0130668
-0.000109689
0.0129074
-0.000457805
0.012935
-0.000960849
-0.00158285
0.00282822
-0.0153338
0.00531744
-0.0147037
0.00728301
-0.0123367
0.00889778
-0.00997804
0.0102328
-0.00783988
0.0113208
-0.00592749
0.0121895
-0.00424187
0.0128581
-0.0027791
0.0133464
-0.00154833
0.0136612
-0.000543149
0.0137836
0.000246864
0.0137346
0.000785921
0.0135631
0.00108274
0.0132821
0.001223
0.0128757
0.00128848
0.0123212
0.00133797
0.0116172
0.00139948
0.0108027
0.00147435
0.00994408
0.00155
0.00910448
0.0016024
0.0083284
0.00159504
0.00764504
0.00149413
0.00707156
0.00129218
0.00661359
0.00101661
0.00626205
0.000710039
0.00599931
0.000397439
0.00580641
8.37369e-05
0.00565759
-0.000307949
0.00555977
-0.000861493
-0.00168583
0.00190006
-0.0172338
0.00325721
-0.0160608
0.00416331
-0.0132427
0.00487729
-0.0106918
0.00546156
-0.00842387
0.00593988
-0.00640542
0.00633703
-0.00463853
0.00666132
-0.00310282
0.00682687
-0.00171327
0.00673511
-0.000450878
0.0064619
0.000520366
0.00610237
0.0011455
0.00565122
0.00153368
0.00510331
0.0017704
0.00447505
0.00191593
0.00380053
0.00201137
0.00312056
0.00207806
0.00247222
0.0021211
0.00188473
0.00213575
0.0013757
0.00210966
0.000944866
0.00202417
0.000572425
0.00186504
0.000228334
0.00163502
-0.00010997
0.00135402
-0.000445737
0.00104535
-0.000768157
0.000719888
-0.00105623
0.000372351
-0.00135146
-1.16503e-05
-0.00162157
-0.000589824
-0.00143699
0.000778321
-0.0180121
0.000893502
-0.016176
0.000712806
-0.0130619
0.000448166
-0.010427
0.000155191
-0.00813062
-0.000146856
-0.00610299
-0.000492017
-0.00429289
-0.000931662
-0.00266261
-0.0013841
-0.00126023
-0.00172496
-0.000109501
-0.00200148
0.000797175
-0.0023058
0.00144988
-0.00266087
0.00188855
-0.003055
0.00216403
-0.00346574
0.00232586
-0.00386968
0.00241418
-0.00424964
0.00245664
-0.00459766
0.00246751
-0.00491384
0.0024502
-0.00520596
0.00240002
-0.00549073
0.00230726
-0.00579061
0.00216342
-0.00612388
0.00196706
-0.00649411
0.00172338
-0.00688791
0.00143871
-0.00728592
0.00111795
-0.00767589
0.000762896
-0.00802861
0.000342158
-0.0083544
-0.000262434
-0.000999644
-0.000520051
-0.0174921
-0.00165932
-0.0150367
-0.00292317
-0.011798
-0.00417278
-0.00917724
-0.00534955
-0.00695358
-0.00641326
-0.00503891
-0.00732728
-0.00337839
-0.00804709
-0.00194224
-0.00858784
-0.000718877
-0.00897934
0.000282519
-0.00925533
0.00107346
-0.00948237
0.00167697
-0.00969274
0.00209871
-0.00989834
0.00236914
-0.0101016
0.00252836
-0.0103035
0.00261491
-0.0105068
0.00265859
-0.0107179
0.00267701
-0.0109455
0.00267611
-0.0111998
0.0026525
-0.0114909
0.00259667
-0.0118265
0.00249751
-0.012207
0.00234636
-0.0126224
0.002138
-0.0130549
0.0018708
-0.0134868
0.0015499
-0.0139055
0.00118224
-0.0143026
0.000740343
-0.0147189
0.000155488
-0.000467435
-0.00187992
-0.0156121
-0.00418722
-0.0127293
-0.00641609
-0.00956901
-0.00846364
-0.00712952
-0.0102523
-0.00516464
-0.0117459
-0.00354495
-0.0129364
-0.0021874
-0.013841
-0.00103712
-0.0144913
-6.79687e-05
-0.0149353
0.000727016
-0.0152335
0.00137198
-0.0154363
0.00187985
-0.0155853
0.00224746
-0.0157105
0.00249381
-0.0158336
0.00265067
-0.0159716
0.00275182
-0.0161381
0.0028237
-0.0163434
0.00288072
-0.0165942
0.00292521
-0.0168935
0.00295004
-0.0172407
0.00294223
-0.0176317
0.00288704
-0.018058
0.00277141
-0.0185068
0.00258598
-0.0189648
0.00232846
-0.0194236
0.00200878
-0.0198811
0.00164039
-0.0203407
0.00120118
-0.0208245
0.00064088
0.000117768
-0.00316787
-0.0124443
-0.00657016
-0.00932701
-0.00965064
-0.00648844
-0.0123197
-0.00446032
-0.0145344
-0.00294969
-0.0163132
-0.0017658
-0.0177004
-0.000799748
-0.018741
4.06176e-06
-0.0194805
0.0006721
-0.0199923
0.00123934
-0.0203466
0.00172656
-0.020589
0.00212233
-0.0207639
0.00242217
-0.0209087
0.00263809
-0.021054
0.0027951
-0.0212238
0.00292054
-0.0214353
0.00303374
-0.0216975
0.00314136
-0.0220125
0.00323851
-0.0223768
0.00331257
-0.0227835
0.00334727
-0.0232239
0.00332604
-0.0236882
0.00323451
-0.024166
0.00306301
-0.0246495
0.00281167
-0.0251369
0.00249626
-0.0256343
0.00213848
-0.0261629
0.00173099
-0.0267675
0.00124722
0.000817551
-0.00447055
-0.0079737
-0.0089549
-0.00484264
-0.0128151
-0.00262818
-0.0159849
-0.00129031
-0.0185175
-0.000416828
-0.020492
0.000209057
-0.0219913
0.000699962
-0.0231038
0.00111708
-0.0239243
0.00149318
-0.0245287
0.00184426
-0.0249697
0.00216782
-0.0252973
0.0024499
-0.0255549
0.0026796
-0.0257795
0.00286213
-0.0260026
0.00301734
-0.0262499
0.00316667
-0.0265384
0.00332092
-0.0268756
0.0034769
-0.0272601
0.00362137
-0.027686
0.00373675
-0.0281454
0.00380503
-0.0286305
0.00380972
-0.0291339
0.00373684
-0.0296494
0.00357775
-0.0301735
0.0033355
-0.0307078
0.00303076
-0.0312605
0.00269191
-0.0318529
0.00232465
-0.0325229
0.00191896
0.00158411
-0.00614171
-0.00183199
-0.0117989
0.000814632
-0.0162689
0.00184181
-0.0197232
0.00216419
-0.0223743
0.00223453
-0.0244048
0.00223986
-0.0259704
0.00226606
-0.0271773
0.00232443
-0.0280984
0.00241483
-0.0287986
0.00254493
-0.0293408
0.00271029
-0.0297773
0.0028864
-0.0301464
0.00304844
-0.0304785
0.00319363
-0.0308021
0.00334005
-0.031143
0.0035064
-0.0315191
0.00369563
-0.0319376
0.00389379
-0.0323968
0.00407894
-0.0328911
0.00422935
-0.0334143
0.00432663
-0.0339611
0.0043551
-0.0345263
0.00430099
-0.0351047
0.00415548
-0.0356919
0.00392247
-0.0362862
0.00362529
-0.036892
0.00329847
-0.0375279
0.00296185
-0.0382303
0.00262322
0.00238487
-0.00805198
0.00622
-0.0146122
0.00737492
-0.0195189
0.00674853
-0.023237
0.00588245
-0.0260592
0.00505698
-0.0282054
0.00438633
-0.0298586
0.00391974
-0.0311459
0.0036122
-0.0321456
0.00341511
-0.0329292
0.00332897
-0.0335693
0.00335054
-0.0341188
0.00343583
-0.0346057
0.00353506
-0.0350485
0.00363577
-0.0354703
0.00376101
-0.0358989
0.00393376
-0.0363549
0.00415026
-0.0368463
0.00438356
-0.0373704
0.00460134
-0.0379206
0.00477796
-0.0384915
0.00489595
-0.0390792
0.00494141
-0.0396802
0.00490094
-0.0402903
0.00476501
-0.0409055
0.00453747
-0.0415239
0.00424394
-0.0421501
0.00392553
-0.0428025
0.00361566
-0.0435135
0.00333611
0.0031738
-0.00996087
0.0161809
-0.0177681
0.0151822
-0.0232338
0.0122143
-0.0271167
0.00976543
-0.0299737
0.00791422
-0.0320899
0.00650283
-0.0337205
0.00555074
-0.0350243
0.00491651
-0.0360576
0.00444891
-0.0368817
0.00415338
-0.0375836
0.00405266
-0.0382204
0.00407245
-0.0388015
0.00411581
-0.0393248
0.00415838
-0.0398079
0.00424317
-0.0402854
0.00441006
-0.0407854
0.00464876
-0.0413166
0.00491317
-0.0418736
0.00515674
-0.0424478
0.00535045
-0.0430337
0.00548037
-0.0436303
0.0055367
-0.0442374
0.00550709
-0.0448537
0.00538072
-0.0454767
0.00516027
-0.0461049
0.00487257
-0.0467433
0.00456486
-0.0474083
0.00428202
-0.0481241
0.00405393
0.00394407
-0.0132947
0.0294756
-0.0225528
0.0244403
-0.0280807
0.0177422
-0.0315494
0.0132343
-0.0341351
0.0105001
-0.0359857
0.00835376
-0.0374146
0.00697997
-0.0386459
0.00614834
-0.039647
0.00545047
-0.0404328
0.00493949
-0.0411269
0.00474686
-0.0418047
0.00475004
-0.0424431
0.00475378
-0.0430038
0.00471832
-0.0434984
0.00473677
-0.043979
0.00488938
-0.0444873
0.00515564
-0.0450318
0.00545605
-0.0455997
0.00572306
-0.0461772
0.00592631
-0.0467592
0.00606089
-0.0473489
0.00612512
-0.047951
0.00610829
-0.0485676
0.00599674
-0.0491974
0.00578998
-0.0498385
0.00551418
-0.0504946
0.00522187
-0.0511786
0.00496753
-0.0519055
0.00478291
0.00472124
-0.0196581
0.0491336
-0.0302691
0.0350512
-0.0348678
0.022341
-0.036405
0.0147715
-0.0383524
0.0124477
-0.0396851
0.00968673
-0.0406316
0.00792679
-0.0417123
0.00722943
-0.042627
0.00636559
-0.0432609
0.00557364
-0.0438435
0.00532946
-0.044518
0.00542432
-0.0451923
0.00542748
-0.0457558
0.00528112
-0.0462133
0.00519315
-0.0466553
0.00533013
-0.047149
0.0056478
-0.0476964
0.00600189
-0.0482683
0.00629337
-0.0488406
0.00649703
-0.0494088
0.00662761
-0.049983
0.00669816
-0.0505751
0.0066995
-0.0511909
0.00661203
-0.0518304
0.00642945
-0.0524905
0.00617484
-0.0531722
0.00590459
-0.0538854
0.00568237
-0.0546369
0.00553651
0.00551809
0.207425
0.00616841
0.20699
0.011605
0.206364
0.0168024
0.205555
0.0218483
0.204571
0.0268045
0.203418
0.0317243
0.202101
0.0366547
0.200628
0.0416372
0.199003
0.0467088
0.197232
0.0519022
0.19532
0.0572474
0.193273
0.0627722
0.191096
0.0685034
0.188795
0.0744677
0.186375
0.0806923
0.183841
0.0872072
0.181197
0.0940459
0.178447
0.101248
0.175592
0.108864
0.172633
0.116955
0.169567
0.125605
0.166389
0.134927
0.163087
0.145078
0.15965
0.156287
0.15607
0.1689
0.152388
0.183447
0.148871
0.20077
0.147137
0.221823
0.15904
0.243923
0.254608
0.22829
0.21247
0.00637665
0.212076
0.0119952
0.21151
0.0173646
0.210781
0.022574
0.209897
0.0276858
0.208865
0.0327536
0.207693
0.0378246
0.206388
0.0429403
0.204959
0.0481374
0.203412
0.0534482
0.201756
0.0589024
0.200001
0.0645272
0.198156
0.0703484
0.196232
0.0763918
0.194242
0.0826836
0.192198
0.0892521
0.190116
0.0961289
0.188015
0.103351
0.185916
0.110964
0.183849
0.119024
0.181852
0.127604
0.179981
0.1368
0.178326
0.146734
0.177041
0.157574
0.176418
0.169524
0.177075
0.182792
0.180407
0.197439
0.188992
0.213238
0.203742
0.229173
0.24352
0.214831
0.217639
0.0065609
0.21729
0.0123401
0.21679
0.0178603
0.216149
0.0232119
0.215375
0.0284572
0.214476
0.03365
0.213461
0.0388374
0.212339
0.0440603
0.21112
0.0493548
0.209815
0.0547526
0.208435
0.0602821
0.206992
0.0659692
0.205502
0.0718384
0.203981
0.0779133
0.202448
0.0842176
0.200925
0.0907763
0.199439
0.0976167
0.198022
0.10477
0.196716
0.112272
0.195576
0.120166
0.194677
0.128505
0.194127
0.137352
0.194083
0.14678
0.194792
0.156867
0.196642
0.167676
0.200218
0.179216
0.20627
0.191388
0.215429
0.20408
0.227382
0.21722
0.227743
0.243159
0.222934
0.00671902
0.222634
0.0126356
0.222207
0.0182838
0.221661
0.0237545
0.221005
0.0291099
0.220249
0.0344033
0.219403
0.0396811
0.218478
0.044984
0.217485
0.0503465
0.216437
0.0557992
0.215349
0.061369
0.214238
0.06708
0.213123
0.0729541
0.212025
0.079012
0.210969
0.0852737
0.209987
0.0917595
0.209115
0.09849
0.208399
0.105488
0.207895
0.112777
0.207678
0.120384
0.207847
0.128338
0.208535
0.136666
0.209924
0.145393
0.212264
0.154529
0.215886
0.164055
0.221196
0.173908
0.228635
0.183949
0.238792
0.193923
0.252558
0.203455
0.210089
0.270212
0.228358
0.006849
0.228111
0.012878
0.227761
0.0186298
0.227317
0.024195
0.226789
0.0296355
0.226186
0.0350036
0.22552
0.0403451
0.224802
0.0456994
0.224048
0.0510996
0.223272
0.0565744
0.222491
0.062149
0.221726
0.0678448
0.220999
0.0736808
0.220338
0.0796739
0.219773
0.0858396
0.219341
0.092192
0.219088
0.0987445
0.219068
0.105509
0.219348
0.112498
0.220015
0.119719
0.221176
0.127178
0.22297
0.134874
0.225573
0.142791
0.229209
0.150895
0.234147
0.159118
0.240711
0.167345
0.249282
0.17538
0.26032
0.182886
0.274277
0.189499
0.194069
0.290297
0.233915
0.00694905
0.233725
0.013064
0.233457
0.0188935
0.233121
0.0245274
0.232726
0.0300267
0.232285
0.0354428
0.231807
0.0408201
0.231309
0.0461964
0.230803
0.0516032
0.23031
0.0570671
0.229847
0.0626109
0.229438
0.0682532
0.22911
0.0740092
0.228892
0.0798919
0.228821
0.0859114
0.228938
0.0920756
0.229294
0.0983897
0.229949
0.104856
0.230975
0.111473
0.23246
0.118235
0.234513
0.125127
0.237265
0.132124
0.240873
0.139184
0.245526
0.146244
0.251439
0.153207
0.258853
0.159931
0.268014
0.16622
0.279108
0.171792
0.292229
0.176378
0.179472
0.306826
0.239608
0.00701756
0.239476
0.0131905
0.239295
0.0190706
0.239072
0.0247462
0.238818
0.0302772
0.238545
0.0357137
0.238264
0.0410983
0.237992
0.0464669
0.237744
0.0518493
0.237541
0.0572697
0.237403
0.0627479
0.237356
0.0682995
0.237429
0.0739361
0.237655
0.0796661
0.238073
0.0854943
0.238727
0.0914223
0.23967
0.0974477
0.240964
0.103564
0.242681
0.109758
0.244906
0.116011
0.24774
0.122295
0.251297
0.128568
0.255711
0.134772
0.261127
0.140829
0.267701
0.146634
0.275583
0.15205
0.284895
0.156909
0.29569
0.160998
0.307961
0.164108
0.166009
0.321424
0.245438
0.00705316
0.245368
0.0132549
0.245277
0.0191575
0.245172
0.0248471
0.245064
0.030382
0.244965
0.0358106
0.244887
0.0411737
0.244847
0.0465052
0.244862
0.0518325
0.244953
0.0571775
0.245143
0.0625569
0.245459
0.0679829
0.245931
0.0734637
0.246594
0.0790032
0.247488
0.0846011
0.248658
0.0902532
0.250156
0.0959504
0.252043
0.101678
0.254386
0.107416
0.257263
0.113136
0.260761
0.118798
0.264976
0.124354
0.270011
0.129739
0.27597
0.134872
0.282952
0.139653
0.291041
0.143963
0.300286
0.147665
0.310681
0.150604
0.322165
0.152624
0.153642
0.334531
0.25141
0.00705475
0.251404
0.0132553
0.251406
0.0191513
0.251422
0.0248265
0.251464
0.0303371
0.251542
0.0357296
0.251671
0.0410426
0.251866
0.0463078
0.252147
0.0515504
0.252533
0.0567894
0.253051
0.0620388
0.253725
0.0673076
0.254589
0.0726001
0.255676
0.0779164
0.257026
0.0832518
0.258682
0.0885971
0.260696
0.0939378
0.263121
0.0992539
0.26602
0.104519
0.269459
0.109698
0.273509
0.114749
0.278245
0.119619
0.283741
0.124244
0.290066
0.128548
0.297277
0.132443
0.305408
0.135832
0.314464
0.138609
0.324404
0.140665
0.335133
0.141895
0.142289
0.346486
0.257526
0.00702149
0.257586
0.0131901
0.257683
0.01905
0.257823
0.024682
0.258016
0.03014
0.258275
0.0354682
0.258612
0.0407031
0.259043
0.0458739
0.259589
0.0510033
0.260269
0.0561079
0.261108
0.0611987
0.262134
0.0662818
0.263375
0.0713582
0.264867
0.0764244
0.266647
0.0814722
0.268756
0.0864885
0.27124
0.091455
0.274146
0.096348
0.277529
0.101137
0.281441
0.105787
0.285939
0.110252
0.291076
0.114483
0.296902
0.118419
0.303456
0.121995
0.310763
0.125137
0.318826
0.12777
0.32762
0.129815
0.337085
0.131201
0.347118
0.131862
0.13182
0.357587
0.26379
0.00695287
0.263916
0.0130583
0.264109
0.0188524
0.264374
0.0244124
0.264721
0.0297897
0.26516
0.035026
0.265705
0.0401554
0.266372
0.0452048
0.267179
0.0501945
0.268147
0.0551385
0.269299
0.0600452
0.270663
0.0649179
0.272265
0.0697551
0.274139
0.0745503
0.276319
0.0792926
0.278842
0.0839661
0.281747
0.0885504
0.285076
0.0930196
0.288871
0.0973429
0.293174
0.101484
0.298026
0.105401
0.303462
0.109048
0.309511
0.112372
0.316189
0.115318
0.323499
0.117828
0.331422
0.119847
0.339918
0.121319
0.348919
0.1222
0.358329
0.122452
0.122113
0.368036
0.270205
0.00684868
0.270398
0.0128596
0.270687
0.0185581
0.271077
0.0240175
0.271577
0.0292864
0.272196
0.034404
0.272946
0.0394019
0.273844
0.0443046
0.274907
0.04913
0.276154
0.0538898
0.277608
0.0585902
0.279293
0.0632321
0.281236
0.0678118
0.283465
0.0723208
0.286012
0.0767462
0.288907
0.0810708
0.292185
0.085273
0.295878
0.0893269
0.300019
0.0932023
0.304639
0.0968653
0.309763
0.100278
0.315412
0.103399
0.321598
0.106186
0.328322
0.108595
0.33557
0.110581
0.343312
0.112105
0.351499
0.113132
0.360064
0.113635
0.368919
0.113596
0.11306
0.377971
0.276774
0.00670901
0.277033
0.0125943
0.277418
0.0181676
0.277933
0.0234982
0.278584
0.0286318
0.279379
0.0336049
0.280332
0.0384467
0.281455
0.0431792
0.282765
0.0478181
0.28428
0.0523731
0.28602
0.0568484
0.288008
0.0612431
0.290268
0.0655518
0.292823
0.0697647
0.295701
0.073868
0.298928
0.077844
0.30253
0.0816713
0.306532
0.085325
0.310958
0.088777
0.315827
0.0919969
0.321154
0.0949517
0.326946
0.0976073
0.333204
0.0999288
0.339917
0.101883
0.34706
0.103438
0.354598
0.104567
0.362479
0.10525
0.370641
0.105473
0.379005
0.105232
0.104571
0.387494
0.283501
0.00653424
0.283826
0.0122629
0.284306
0.0176822
0.284942
0.0228566
0.285741
0.027829
0.286709
0.0326331
0.287857
0.0372957
0.289197
0.0418366
0.290744
0.0462694
0.292514
0.0506019
0.294524
0.0548367
0.296794
0.0589717
0.299345
0.0630004
0.302197
0.0669124
0.305371
0.0706936
0.308888
0.0743268
0.312768
0.0777915
0.317028
0.0810651
0.321683
0.0841223
0.326743
0.0869367
0.332214
0.089481
0.338094
0.0917276
0.344374
0.0936497
0.351034
0.0952229
0.358046
0.096426
0.365371
0.0972425
0.372959
0.0976616
0.380752
0.0976798
0.388683
0.0973003
0.0965676
0.396686
0.290388
0.00632503
0.290778
0.011867
0.291351
0.0171038
0.292106
0.0220957
0.293049
0.0268821
0.294184
0.0314943
0.29552
0.0359564
0.297068
0.0402863
0.298839
0.0444958
0.300848
0.0485911
0.30311
0.0525736
0.30564
0.0564402
0.308456
0.0601839
0.311573
0.0637943
0.315009
0.0672578
0.318777
0.0705582
0.322892
0.0736768
0.327363
0.0765935
0.332199
0.0792866
0.337401
0.081734
0.342969
0.0839137
0.348893
0.0858043
0.355156
0.0873863
0.361737
0.0886428
0.368602
0.0895605
0.375714
0.0901307
0.383025
0.0903501
0.390483
0.0902212
0.39803
0.0897522
0.0889849
0.405612
0.297441
0.00608228
0.297893
0.0114081
0.298556
0.0164353
0.299427
0.0212192
0.300508
0.0257963
0.301804
0.0301951
0.303319
0.0344375
0.305063
0.0385394
0.307046
0.0425109
0.309278
0.0463571
0.311772
0.0500784
0.314539
0.0536712
0.317594
0.0571286
0.320947
0.0604404
0.32461
0.063594
0.328593
0.0665748
0.332903
0.0693664
0.337545
0.0719514
0.34252
0.0743118
0.347824
0.0764297
0.35345
0.0782881
0.359383
0.0798713
0.365604
0.0811656
0.372086
0.0821603
0.378798
0.0828483
0.385702
0.0832267
0.392755
0.0832968
0.39991
0.0830653
0.407119
0.082543
0.0817687
0.414334
0.304663
0.00580708
0.305175
0.0108884
0.305925
0.0156797
0.306907
0.0202317
0.308121
0.0245776
0.309568
0.0287433
0.311254
0.0327487
0.313183
0.0366076
0.315362
0.040329
0.3178
0.0439167
0.320506
0.0473708
0.323489
0.0506874
0.326756
0.0538599
0.330317
0.056879
0.334177
0.0597334
0.338341
0.0624101
0.342812
0.0648952
0.347588
0.0671743
0.352667
0.0692329
0.358039
0.0710571
0.363693
0.0726343
0.369611
0.0739536
0.37577
0.075006
0.382144
0.0757859
0.388702
0.0762905
0.395407
0.076521
0.402222
0.076482
0.409104
0.0761824
0.416012
0.0756342
0.0748727
0.422907
0.312057
0.00550069
0.312627
0.0103104
0.31346
0.0148409
0.314548
0.0191382
0.315888
0.0232326
0.31748
0.0271473
0.319325
0.0309
0.321426
0.0345032
0.323788
0.0379644
0.326415
0.0412869
0.329314
0.0444702
0.332489
0.0475107
0.335946
0.0504023
0.339687
0.0531368
0.343715
0.0557041
0.348031
0.0580936
0.352632
0.0602935
0.357514
0.0622923
0.362667
0.0640788
0.368081
0.0656427
0.37374
0.0669751
0.379625
0.0680689
0.385712
0.0689193
0.391973
0.069524
0.39838
0.0698836
0.404898
0.0700019
0.411494
0.0698856
0.418131
0.0695446
0.424774
0.0689912
0.0682574
0.431388
0.319628
0.00516447
0.320254
0.00967659
0.321165
0.0139227
0.322354
0.0179442
0.323813
0.0217681
0.32554
0.0254156
0.327534
0.0289021
0.329795
0.0322387
0.332325
0.0354318
0.335125
0.0384842
0.338198
0.0413953
0.341546
0.0441618
0.345168
0.0467782
0.349066
0.0492375
0.353238
0.0515314
0.35768
0.0536509
0.362386
0.0555868
0.367347
0.0573301
0.372553
0.0588724
0.377989
0.0602065
0.383637
0.0613266
0.389477
0.0622289
0.395485
0.0629113
0.401634
0.0633743
0.407897
0.0636206
0.414243
0.0636557
0.42064
0.0634874
0.427058
0.0631259
0.433465
0.0625833
0.0618881
0.439834
0.327379
0.0047998
0.328058
0.00898976
0.329045
0.0129292
0.330328
0.016655
0.331899
0.0201914
0.333753
0.023557
0.335886
0.0267654
0.338295
0.0298263
0.340979
0.0327452
0.343936
0.0355245
0.347165
0.0381635
0.350666
0.0406595
0.354435
0.0430078
0.358469
0.0452025
0.362762
0.0472368
0.367308
0.0491037
0.372098
0.0507959