/*--------------------------------*- C++ -*----------------------------------*\
| =========                 |                                                 |
| \\      /  F ield         | OpenFOAM: The Open Source CFD Toolbox           |
|  \\    /   O peration     | Version:  dev                                   |
|   \\  /    A nd           | Web:      www.OpenFOAM.org                      |
|    \\/     M anipulation  |                                                 |
\*---------------------------------------------------------------------------*/
FoamFile
{
    version     2.0;
    format      ascii;
    class       surfaceScalarField;
    location    "2.22";
    object      phi;
}
// * * * * * * * * * * * * * * * * * * * * * * * * * * * * * * * * * * * * * //

dimensions      [0 3 -1 0 0 0 0];

internalField   nonuniform List<scalar> 
879
(
0.206875
0.0155485
0.0183774
0.211915
0.0163421
0.211043
0.0192697
0.0217075
0.217087
0.017109
0.216251
0.0201269
0.215328
0.022645
0.025193
0.222393
0.01784
0.221603
0.0209392
0.220731
0.0235324
0.219767
0.0261646
0.0288519
0.227831
0.0185305
0.227091
0.0217023
0.226275
0.0243643
0.225381
0.0270669
0.224411
0.0298239
0.0326724
0.233405
0.0191759
0.232721
0.0224096
0.231974
0.0251278
0.231168
0.0278832
0.230295
0.0306999
0.229344
0.0336191
0.0366563
0.239123
0.0197643
0.238508
0.0230497
0.237841
0.0258125
0.237126
0.0286091
0.236354
0.0314758
0.23552
0.0344505
0.234635
0.0375321
0.233704
0.0407343
0.0440965
0.244985
0.0202901
0.244444
0.023616
0.243869
0.0264068
0.243258
0.029232
0.242602
0.0321366
0.241906
0.0351459
0.24118
0.0382499
0.240424
0.0414767
0.239634
0.0448659
0.0484338
0.250991
0.0207486
0.25054
0.0240938
0.25007
0.0268969
0.249571
0.0297441
0.249044
0.0326708
0.248501
0.0356893
0.247943
0.0388015
0.247369
0.0420382
0.246793
0.0454247
0.246228
0.0489758
0.245689
0.0527319
0.0566886
0.257154
0.0211269
0.256803
0.024473
0.256441
0.0272803
0.256066
0.0301336
0.255686
0.0330596
0.255305
0.0360718
0.254927
0.0391759
0.254556
0.0423987
0.254207
0.045758
0.253896
0.0492664
0.253654
0.0529488
0.253515
0.0567994
0.253504
0.060864
0.0651311
0.263475
0.0214141
0.263229
0.0247484
0.262984
0.0275487
0.262748
0.0303857
0.262529
0.033288
0.262324
0.036281
0.262134
0.0393635
0.261977
0.0425478
0.261869
0.0458536
0.261829
0.0492884
0.261894
0.0528621
0.26209
0.0565776
0.26246
0.0604668
0.263071
0.0644917
0.0686212
0.269953
0.0216038
0.269822
0.0249106
0.269711
0.0276836
0.269622
0.0304926
0.269567
0.033355
0.269549
0.0363045
0.269565
0.0393484
0.269632
0.0424755
0.269776
0.0456993
0.270023
0.0490263
0.270399
0.0524676
0.270935
0.0560199
0.271694
0.059683
0.272735
0.0634256
0.274114
0.0672173
0.275931
0.0710551
0.0748681
0.276594
0.0216882
0.276586
0.0249504
0.27662
0.0276757
0.276694
0.0304382
0.276811
0.0332516
0.276981
0.0361426
0.277212
0.0391204
0.277523
0.0421625
0.277931
0.0452841
0.278463
0.0484831
0.279155
0.05176
0.280045
0.0551116
0.281195
0.0585123
0.282659
0.0619405
0.284483
0.0653709
0.286741
0.0687757
0.28948
0.0721084
0.292742
0.0753119
0.0783256
0.283405
0.0216543
0.283535
0.0248545
0.283716
0.0275216
0.283954
0.0302217
0.284252
0.0329694
0.284623
0.0357825
0.285081
0.0386685
0.285639
0.0416053
0.286319
0.0446
0.287147
0.0476473
0.288167
0.0507286
0.289424
0.0538408
0.290955
0.0569645
0.292804
0.0600733
0.295012
0.0631454
0.297622
0.0661474
0.300678
0.0690349
0.304216
0.0717572
0.308266
0.0742599
0.312844
0.0764821
0.0783578
0.290377
0.0215032
0.290656
0.024611
0.291
0.0272064
0.29141
0.0298353
0.291899
0.0324986
0.292479
0.0352156
0.293167
0.0379891
0.293982
0.0407944
0.294949
0.0436324
0.296094
0.0464987
0.297445
0.0493697
0.299043
0.0522335
0.300917
0.0550782
0.303098
0.0578783
0.305623
0.060606
0.308528
0.0632281
0.311844
0.0657048
0.315595
0.0679924
0.319797
0.0700455
0.324451
0.0718167
0.297523
0.0212276
0.297953
0.0242179
0.298467
0.0267224
0.299068
0.0292602
0.299757
0.0318296
0.300555
0.0344336
0.30149
0.0370659
0.302577
0.0397144
0.303833
0.0423801
0.30528
0.0450516
0.306942
0.0477049
0.308845
0.0503251
0.311019
0.0528962
0.313493
0.0553951
0.316294
0.0577945
0.319449
0.0600632
0.322977
0.0621664
0.326893
0.0640669
0.331203
0.0657271
0.067125
0.304852
0.020813
0.305435
0.0236736
0.306126
0.0260642
0.306927
0.028487
0.307836
0.030943
0.308873
0.0334151
0.310062
0.0358919
0.311412
0.0383752
0.312939
0.0408602
0.314664
0.0433302
0.316608
0.0457624
0.318792
0.0481394
0.321241
0.0504441
0.323977
0.052655
0.327019
0.0547469
0.330384
0.056692
0.334084
0.0584606
0.338123
0.0600221
0.342498
0.0613465
0.0624333
0.312368
0.0202469
0.31312
0.0229615
0.313999
0.0252198
0.315005
0.0275117
0.316142
0.0298314
0.31742
0.0321581
0.31885
0.0344791
0.320449
0.0367907
0.322233
0.0390863
0.324222
0.0413494
0.326431
0.0435591
0.328876
0.0456972
0.331576
0.047746
0.334545
0.0496856
0.337798
0.0514938
0.341342
0.0531466
0.345181
0.0546196
0.349312
0.055889
0.353725
0.0569328
0.0577531
0.32008
0.0195117
0.321016
0.0220671
0.322088
0.0241848
0.323299
0.0263326
0.324655
0.0285032
0.326163
0.0306738
0.327833
0.0328299
0.329677
0.0349638
0.331712
0.0370661
0.333952
0.0391215
0.33641
0.0411112
0.339097
0.0430176
0.342025
0.0448236
0.345205
0.0465109
0.348642
0.0480603
0.352339
0.0494521
0.356295
0.0506668
0.3605
0.0516864
0.364941
0.0524953
0.0530952
0.32798
0.0186017
0.329105
0.0209851
0.330373
0.0229549
0.331792
0.024948
0.333367
0.0269584
0.335104
0.0289634
0.337011
0.0309471
0.339097
0.0328986
0.341374
0.0348068
0.343855
0.036657
0.346547
0.0384327
0.349459
0.0401175
0.352598
0.0416954
0.355967
0.0431505
0.359569
0.0444665
0.363401
0.0456275
0.367457
0.0466185
0.371724
0.0474262
0.376187
0.04804
0.0484606
0.336067
0.0175161
0.337385
0.0197123
0.338855
0.0215253
0.340484
0.0233551
0.342279
0.0251964
0.344244
0.027028
0.346384
0.0288333
0.348707
0.0305997
0.351221
0.0323147
0.353933
0.0339646
0.356849
0.0355344
0.359973
0.0370096
0.363308
0.0383758
0.366853
0.0396192
0.370605
0.0407267
0.374559
0.0416855
0.378705
0.0424845
0.383029
0.0431143
0.387512
0.0435681
0.0438456
0.344347
0.0162536
0.345859
0.0182468
0.347533
0.0198931
0.349375
0.0215515
0.35139
0.0232166
0.353582
0.0248687
0.355954
0.0264912
0.35851
0.0280709
0.361255
0.029595
0.364192
0.0310504
0.367325
0.0324238
0.370652
0.0337023
0.374173
0.0348735
0.377885
0.0359259
0.38178
0.0368486
0.38585
0.037632
0.390082
0.0382681
0.394462
0.0387506
0.39897
0.0390753
0.0392414
0.352825
0.0148128
0.354532
0.0165873
0.356412
0.0180564
0.358469
0.0195358
0.360704
0.0210185
0.363122
0.022486
0.365723
0.0239226
0.368509
0.0253151
0.371482
0.026651
0.374641
0.0279183
0.377985
0.029105
0.381511
0.0301999
0.385215
0.0311925
0.38909
0.0320733
0.393126
0.0328337
0.397313
0.0334665
0.401635
0.033966
0.406077
0.0343283
0.410621
0.0345514
0.034634
0.361505
0.0131917
0.363409
0.0147319
0.365497
0.0160138
0.367769
0.0173068
0.370226
0.0186014
0.372869
0.01988
0.375699
0.0211282
0.378714
0.0223336
0.381913
0.0234844
0.385292
0.0245696
0.388847
0.0255788
0.392572
0.0265025
0.39646
0.0273317
0.400501
0.0280588
0.404683
0.0286771
0.408993
0.0291814
0.413415
0.0295678
0.417933
0.0298341
0.422529
0.0299797
0.030003
0.370392
0.0113881
0.372497
0.0126779
0.374795
0.0137631
0.377283
0.0148631
0.379963
0.015964
0.382833
0.0170494
0.385893
0.0181069
0.389138
0.019125
0.392564
0.0200933
0.396165
0.0210019
0.399935
0.0218419
0.403864
0.0226051
0.407942
0.0232845
0.412157
0.0238737
0.416496
0.0243679
0.420943
0.0247631
0.425482
0.0250569
0.430096
0.0252482
0.434766
0.0253373
0.0253225
0.379495
0.00939779
0.381804
0.0104204
0.384314
0.0113023
0.38702
0.0122034
0.389924
0.0131046
0.393024
0.0139922
0.396315
0.014856
0.399794
0.0156861
0.403452
0.0164733
0.407282
0.0172091
0.411274
0.0178861
0.415417
0.0184978
0.419697
0.0190383
0.424102
0.019503
0.428615
0.019888
0.43322
0.0201905
0.4379
0.0204091
0.442637
0.0205434
0.447411
0.0205941
0.0205594
0.388822
0.00721154
0.391344
0.00795168
0.39407
0.00862767
0.396997
0.0093242
0.400129
0.0100191
0.403463
0.0107037
0.406992
0.0113702
0.410711
0.0120102
0.414609
0.012616
0.418678
0.0131807
0.422905
0.0136987
0.427277
0.0141648
0.431779
0.0145747
0.436395
0.0149247
0.441108
0.0152121
0.4459
0.015435
0.450752
0.0155925
0.455647
0.0156845
0.460564
0.0157119
0.015673
0.398397
0.00480301
0.401134
0.00526931
0.404071
0.0057427
0.407221
0.00622522
0.410584
0.00670472
0.414156
0.00717898
0.417931
0.0076421
0.421899
0.00808711
0.426051
0.00850812
0.430375
0.00890035
0.434857
0.00925968
0.439482
0.00958256
0.444233
0.00986592
0.449092
0.0101073
0.45404
0.0103049
0.459059
0.0104573
0.464127
0.0105642
0.469226
0.0106254
0.474335
0.0106418
0.010612
0.408297
0.00207277
0.411247
0.00237582
0.414396
0.00264764
0.417768
0.00290598
0.421361
0.00316268
0.425171
0.00341873
0.429192
0.00366976
0.433416
0.00391136
0.437832
0.00414022
0.442425
0.00435377
0.447182
0.00454981
0.452084
0.00472645
0.457114
0.00488205
0.462251
0.00501534
0.467476
0.00512532
0.472767
0.00521138
0.478102
0.00527322
0.483461
0.0053109
0.488821
0.00532478
0.00531416
0.41745
0.419884
0.422587
0.425547
0.428763
0.432234
0.435955
0.439917
0.444107
0.44851
0.453109
0.457885
0.462816
0.46788
0.473054
0.478313
0.483635
0.488993
0.494365
)
;

boundaryField
{
    inlet
    {
        type            calculated;
        value           nonuniform List<scalar> 
30
(
-0.20766
-0.212683
-0.217828
-0.223097
-0.228493
-0.23402
-0.239681
-0.245479
-0.251417
-0.257499
-0.263728
-0.270107
-0.276641
-0.283333
-0.290186
-0.297206
-0.304395
-0.311758
-0.3193
-0.327023
-0.334934
-0.343036
-0.351334
-0.359832
-0.368536
-0.377451
-0.386582
-0.395933
-0.40551
-0.415319
)
;
    }
    outlet
    {
        type            calculated;
        value           nonuniform 0();
    }
    flap
    {
        type            calculated;
        value           nonuniform 0();
    }
    upperWall
    {
        type            calculated;
        value           nonuniform List<scalar> 
20
(
0
0
0
0
0
0
0
1.17171e-14
0
0
0
0
0
0
0
0
0
0
0
0
)
;
    }
    lowerWall
    {
        type            calculated;
        value           nonuniform 0();
    }
    frontAndBack
    {
        type            empty;
        value           nonuniform 0();
    }
    procBoundary0to1
    {
        type            processor;
        value           nonuniform List<scalar> 
18
(
0.317947
0.329531
0.0732655
0.335885
0.347184
0.358403
0.3696
0.380827
0.392137
0.403588
0.415247
0.427182
0.439473
0.452205
0.465485
0.479435
0.494162
0.499726
)
;
    }
    procBoundary0to3
    {
        type            processor;
        value           nonuniform List<scalar> 
34
(
-0.0147391
-0.0174603
0.205977
-0.0207277
0.210076
-0.0241643
0.214305
-0.0277979
0.218712
-0.0316222
0.223355
-0.0356391
0.228315
-0.0398196
-0.0431406
0.232724
-0.0476518
0.238826
-0.0522207
-0.0562498
0.245218
-0.0608833
-0.0653415
0.253682
-0.0695654
0.263987
-0.0728971
-0.0772273
0.278266
-0.0785934
-0.0821818
0.29658
-0.0810741
-0.0834757
)
;
    }
}


// ************************************************************************* //
