/*--------------------------------*- C++ -*----------------------------------*\
| =========                 |                                                 |
| \\      /  F ield         | OpenFOAM: The Open Source CFD Toolbox           |
|  \\    /   O peration     | Version:  dev                                   |
|   \\  /    A nd           | Web:      www.OpenFOAM.org                      |
|    \\/     M anipulation  |                                                 |
\*---------------------------------------------------------------------------*/
FoamFile
{
    version     2.0;
    format      ascii;
    class       surfaceScalarField;
    location    "1.83";
    object      meshPhi;
}
// * * * * * * * * * * * * * * * * * * * * * * * * * * * * * * * * * * * * * //

dimensions      [0 3 -1 0 0 0 0];

internalField   nonuniform List<scalar> 
5457
(
2.79952e-05
-3.74281e-08
5.21778e-05
-1.00113e-07
7.20625e-05
-1.32188e-07
8.8416e-05
-1.27469e-07
0.000101789
-9.22709e-08
0.000112441
-3.53893e-08
0.000120359
3.52534e-08
0.000125336
1.11686e-07
0.000127091
1.88922e-07
0.000125389
2.64822e-07
0.000120158
3.37391e-07
0.000111593
4.06893e-07
0.000100177
4.74173e-07
8.66568e-05
5.39803e-07
7.19526e-05
6.03405e-07
5.70406e-05
6.63254e-07
4.28326e-05
7.15914e-07
3.00728e-05
7.56763e-07
1.92726e-05
7.81041e-07
1.06692e-05
7.85153e-07
4.80277e-06
7.52603e-07
1.50721e-06
6.69208e-07
-2.38908e-07
5.55539e-07
-9.81311e-07
4.37089e-07
-1.07636e-06
3.22614e-07
-8.32539e-07
2.18135e-07
-4.87956e-07
1.30001e-07
-1.9938e-07
6.36934e-08
-4.49652e-08
2.27512e-08
4.24993e-09
2.79932e-05
-7.67404e-08
5.21748e-05
-2.05266e-07
7.20648e-05
-2.71513e-07
8.84388e-05
-2.6323e-07
0.000101859
-1.93266e-07
0.000112593
-7.97705e-08
0.000120632
5.88485e-08
0.000125763
2.11679e-07
0.000127688
3.68655e-07
0.000126152
5.19569e-07
0.000121065
6.62952e-07
0.0001126
7.99532e-07
0.000101231
9.31245e-07
8.76999e-05
1.05961e-06
7.29309e-05
1.18436e-06
5.79115e-05
1.30276e-06
4.35685e-05
1.40836e-06
3.06629e-05
1.49201e-06
1.9723e-05
1.54418e-06
1.10095e-05
1.55722e-06
5.02264e-06
1.49801e-06
1.63314e-06
1.33652e-06
-1.47734e-07
1.11162e-06
-9.21006e-07
8.7566e-07
-1.03914e-06
6.47761e-07
-8.10498e-07
4.39349e-07
-4.75412e-07
2.62622e-07
-1.93664e-07
1.28908e-07
-4.28062e-08
4.61328e-08
8.40961e-09
2.8003e-05
-1.19446e-07
5.21949e-05
-3.19623e-07
7.20994e-05
-4.24224e-07
8.85034e-05
-4.1517e-07
0.000101982
-3.1207e-07
0.000112813
-1.42788e-07
0.000120995
6.50091e-08
0.000126314
2.93558e-07
0.000128466
5.26754e-07
0.000127175
7.49734e-07
0.000122329
9.59723e-07
0.000114076
1.15771e-06
0.000102867
1.34704e-06
8.94281e-05
1.53084e-06
7.46754e-05
1.70983e-06
5.95965e-05
1.88206e-06
4.51279e-05
2.03911e-06
3.20461e-05
2.16767e-06
2.08977e-05
2.25387e-06
1.19621e-05
2.28562e-06
5.75041e-06
2.21174e-06
2.17851e-06
1.98219e-06
2.62591e-07
1.65261e-06
-6.31552e-07
1.30433e-06
-8.50209e-07
9.67607e-07
-6.97918e-07
6.58647e-07
-4.15551e-07
3.94953e-07
-1.67569e-07
1.9365e-07
-3.25561e-08
6.85385e-08
1.16573e-08
2.80265e-05
-1.67047e-07
5.22408e-05
-4.47293e-07
7.21682e-05
-5.96463e-07
8.8608e-05
-5.90988e-07
0.00010215
-4.57417e-07
0.000113085
-2.33809e-07
0.000121422
4.35247e-08
0.000126957
3.46143e-07
0.000129382
6.51064e-07
0.000128408
9.41331e-07
0.000123899
1.21089e-06
0.000115974
1.46067e-06
0.000105054
1.69593e-06
9.18345e-05
1.92238e-06
7.7206e-05
2.14254e-06
6.21428e-05
2.35898e-06
4.75839e-05
2.56298e-06
3.43176e-05
2.7372e-06
2.29086e-05
2.86508e-06
1.36529e-05
2.93012e-06
7.11733e-06
2.85881e-06
3.26419e-06
2.57582e-06
1.09699e-06
2.15252e-06
-2.41529e-08
1.70171e-06
-4.40071e-07
1.26586e-06
-4.47675e-07
8.65541e-07
-2.79648e-07
5.21094e-07
-1.04612e-07
2.54419e-07
-4.36401e-09
8.67894e-08
1.21014e-08
2.80611e-05
-2.21165e-07
5.23071e-05
-5.92806e-07
7.22641e-05
-7.94678e-07
8.87471e-05
-7.9785e-07
0.000102365
-6.3725e-07
0.000113425
-3.61587e-07
0.000121954
-1.71624e-08
0.00012776
3.57248e-07
0.000130531
7.30994e-07
0.000129965
1.08257e-06
0.000125903
1.40234e-06
0.000118427
1.69094e-06
0.000107916
1.95608e-06
9.50267e-05
2.20756e-06
8.06093e-05
2.45258e-06
6.5616e-05
2.69774e-06
5.09868e-05
2.93714e-06
3.75204e-05
3.15358e-06
2.58013e-05
3.3284e-06
1.61515e-05
3.44142e-06
9.1993e-06
3.39114e-06
4.95716e-06
3.07256e-06
2.4285e-06
2.57171e-06
9.76304e-07
2.03264e-06
2.6505e-07
1.51056e-06
1.50334e-09
1.0333e-06
-3.06323e-08
6.23549e-07
1.38738e-08
3.03753e-07
5.47939e-08
9.74612e-08
7.29248e-09
2.81059e-05
-2.83312e-07
5.23922e-05
-7.60302e-07
7.23864e-05
-1.02448e-06
8.892e-05
-1.0423e-06
0.000102624
-8.58986e-07
0.000113827
-5.3395e-07
0.000122579
-1.24679e-07
0.000128701
3.19228e-07
0.000131886
7.58382e-07
0.00013182
1.16467e-06
0.000128314
1.52374e-06
0.000121412
1.83526e-06
0.000111441
2.11012e-06
9.90064e-05
2.36363e-06
8.49116e-05
2.61134e-06
7.00737e-05
2.86227e-06
5.54242e-05
3.11698e-06
4.17689e-05
3.3638e-06
2.97134e-05
3.58363e-06
1.96189e-05
3.75204e-06
1.2171e-05
3.73844e-06
7.42979e-06
3.40524e-06
4.41669e-06
2.85041e-06
2.51106e-06
2.24706e-06
1.38899e-06
1.65825e-06
7.54827e-07
1.12073e-06
4.02608e-07
6.68566e-07
2.24516e-07
3.20325e-07
1.62651e-07
9.14184e-08
-6.19214e-09
2.81612e-05
-3.54371e-07
5.24958e-05
-9.51939e-07
7.25369e-05
-1.2894e-06
8.91305e-05
-1.32979e-06
0.00010293
-1.12867e-06
0.000114293
-7.57186e-07
0.000123295
-2.85193e-07
0.000129777
2.25962e-07
0.00013344
7.27044e-07
0.000133961
1.18127e-06
0.000131123
1.56761e-06
0.000124924
1.8836e-06
0.000115633
2.14399e-06
0.000103793
2.37006e-06
9.01541e-05
2.58435e-06
7.55888e-05
2.80915e-06
6.10038e-05
3.05359e-06
4.72041e-05
3.31002e-06
3.48185e-05
3.5608e-06
2.42573e-05
3.77848e-06
1.62522e-05
3.8087e-06
1.0904e-05
3.48155e-06
7.26997e-06
2.90376e-06
4.76271e-06
2.27249e-06
3.08587e-06
1.65159e-06
1.94084e-06
1.07929e-06
1.12591e-06
6.11564e-07
5.98725e-07
2.66846e-07
3.43758e-07
4.93851e-08
-3.3433e-08
2.82307e-05
-4.34917e-07
5.26258e-05
-1.16928e-06
7.27247e-05
-1.59203e-06
8.93878e-05
-1.66353e-06
0.000103293
-1.44975e-06
0.000114831
-1.03506e-06
0.000124108
-5.02638e-07
0.000130991
7.327e-08
0.000135193
6.32831e-07
0.000136385
1.12841e-06
0.000134324
1.52948e-06
0.000128959
1.82927e-06
0.000120494
2.04794e-06
0.000109403
2.2126e-06
9.63686e-05
2.35251e-06
8.22118e-05
2.5073e-06
6.78119e-05
2.69884e-06
5.39625e-05
2.93038e-06
4.13074e-05
3.18133e-06
3.03025e-05
3.42496e-06
2.17059e-05
3.49221e-06
1.56509e-05
3.18615e-06
1.12536e-05
2.6203e-06
7.97386e-06
2.00634e-06
5.5631e-06
1.4035e-06
3.73152e-06
8.42865e-07
2.28844e-06
3.93189e-07
1.2407e-06
9.26735e-08
6.23061e-07
-5.40634e-08
-7.99108e-08
2.83179e-05
-5.25546e-07
5.27881e-05
-1.41403e-06
7.29541e-05
-1.93443e-06
8.96931e-05
-2.04523e-06
0.000103712
-1.82424e-06
0.000115436
-1.36984e-06
0.000125008
-7.79421e-07
0.000132326
-1.41608e-07
0.00013712
4.73425e-07
0.000139059
1.00484e-06
0.000137877
1.40884e-06
0.000133472
1.67548e-06
0.000125984
1.82305e-06
0.000115815
1.88458e-06
0.000103566
1.90557e-06
8.9995e-05
1.93435e-06
7.59413e-05
2.00958e-06
6.21873e-05
2.15853e-06
4.93812e-05
2.36257e-06
3.80118e-05
2.58916e-06
2.88274e-05
2.66678e-06
2.19821e-05
2.38913e-06
1.66886e-05
1.86774e-06
1.24614e-05
1.32029e-06
9.10075e-06
7.99195e-07
6.3691e-06
3.17362e-07
4.09071e-06
-6.19589e-08
2.26335e-06
-2.55788e-07
1.00833e-06
-2.3944e-07
-1.47095e-07
2.84238e-05
-6.26581e-07
5.29834e-05
-1.68691e-06
7.32245e-05
-2.31743e-06
9.00444e-05
-2.47583e-06
0.000104182
-2.25322e-06
0.000116101
-1.76273e-06
0.000125981
-1.1166e-06
0.000133756
-4.16732e-07
0.000139181
2.51636e-07
0.000141933
8.11567e-07
0.000141725
1.20837e-06
0.000138409
1.42731e-06
0.000132059
1.47309e-06
0.000122997
1.38537e-06
0.000111744
1.2295e-06
9.89822e-05
1.06915e-06
8.54815e-05
9.6201e-07
7.201e-05
9.49146e-07
5.92271e-05
1.03216e-06
4.76442e-05
1.17039e-06
3.79284e-05
1.20808e-06
3.02361e-05
9.58674e-07
2.39323e-05
5.12382e-07
1.85993e-05
7.35699e-08
1.40692e-05
-3.05357e-07
1.01799e-05
-6.31367e-07
6.75135e-06
-8.40694e-07
3.72834e-06
-8.04021e-07
1.46465e-06
-4.94322e-07
-2.23505e-07
2.8549e-05
-7.38378e-07
5.32118e-05
-1.98874e-06
7.35352e-05
-2.74179e-06
9.04398e-05
-2.95593e-06
0.000104699
-2.73735e-06
0.000116817
-2.21446e-06
0.000127015
-1.51416e-06
0.000135265
-7.50987e-07
0.000141356
-3.17195e-08
0.000144978
5.50254e-07
0.000145829
9.31773e-07
0.000143729
1.08405e-06
0.00013868
1.00068e-06
0.000130913
7.27535e-07
0.000120867
3.41172e-07
0.000109146
-7.86125e-08
9.6457e-05
-4.4942e-07
8.35232e-05
-7.21816e-07
7.10103e-05
-8.66541e-07
5.94438e-05
-9.13868e-07
4.9318e-05
-9.87496e-07
4.07636e-05
-1.22755e-06
3.33714e-05
-1.57512e-06
2.68103e-05
-1.87411e-06
2.09288e-05
-2.07654e-06
1.55532e-05
-2.15961e-06
1.04663e-05
-2.03291e-06
5.64929e-06
-1.57215e-06
1.94545e-06
-8.08336e-07
-3.01939e-07
2.86942e-05
-8.61023e-07
5.34736e-05
-2.31952e-06
7.38862e-05
-3.20689e-06
9.0879e-05
-3.4844e-06
0.000105263
-3.2755e-06
0.000117584
-2.72425e-06
0.000128108
-1.9723e-06
0.000136852
-1.14998e-06
0.000143639
-3.80802e-07
0.000148172
2.25388e-07
0.000150149
5.867e-07
0.000149363
6.59881e-07
0.000145749
4.32519e-07
0.000139456
-5.65498e-08
0.00013084
-7.23961e-07
0.000120422
-1.47871e-06
0.000108847
-2.21483e-06
9.67681e-05
-2.84941e-06
8.48343e-05
-3.34003e-06
7.35882e-05
-3.7001e-06
6.32608e-05
-3.98546e-06
5.38989e-05
-4.25981e-06
4.53927e-05
-4.50036e-06
3.75408e-05
-4.64188e-06
3.0141e-05
-4.63743e-06
2.28957e-05
-4.39627e-06
1.54965e-05
-3.77389e-06
8.14967e-06
-2.67356e-06
2.57872e-06
-1.30074e-06
-4.54171e-07
2.88589e-05
-9.93873e-07
5.37683e-05
-2.67718e-06
7.42774e-05
-3.70889e-06
9.13635e-05
-4.05613e-06
0.000105876
-3.86257e-06
0.000118404
-3.28768e-06
0.000129259
-2.48831e-06
0.000138503
-1.61187e-06
0.000145994
-7.91536e-07
0.00015146
-1.5568e-07
0.000154606
1.89475e-07
0.000155202
1.83574e-07
0.000153139
-1.97979e-07
0.000148496
-9.31717e-07
0.000141546
-1.93321e-06
0.000132713
-3.08643e-06
0.000122554
-4.26865e-06
0.000111675
-5.36767e-06
0.000100696
-6.33559e-06
9.01523e-05
-7.15728e-06
7.99206e-05
-7.77825e-06
6.98875e-05
-8.15187e-06
6.03133e-05
-8.30428e-06
5.1142e-05
-8.2752e-06
4.20627e-05
-8.02303e-06
3.2591e-05
-7.40728e-06
2.21675e-05
-6.15254e-06
1.14444e-05
-4.17302e-06
3.65238e-06
-2.06179e-06
-7.62181e-07
2.90399e-05
-1.13617e-06
5.409e-05
-3.05927e-06
7.4701e-05
-4.24296e-06
9.1885e-05
-4.66457e-06
0.000106531
-4.4921e-06
0.00011927
-3.89887e-06
0.000130454
-3.05666e-06
0.000140186
-2.12647e-06
0.000148372
-1.25384e-06
0.000154777
-5.86319e-07
0.000159114
-2.47895e-07
0.000161148
-3.28211e-07
0.000160741
-8.7305e-07
0.000157899
-1.86102e-06
0.000152802
-3.21392e-06
0.000145799
-4.80831e-06
0.000137365
-6.50325e-06
0.000128063
-8.17031e-06
0.000118463
-9.73846e-06
0.000109055
-1.11581e-05
9.92865e-05
-1.22502e-05
8.88057e-05
-1.2808e-05
7.8266e-05
-1.29076e-05
6.77614e-05
-1.26981e-05
5.6863e-05
-1.21584e-05
4.47455e-05
-1.10471e-05
3.05138e-05
-8.92348e-06
1.5604e-05
-5.8306e-06
5.19621e-06
-2.89475e-06
-1.19386e-06
2.92221e-05
-1.26381e-06
5.44219e-05
-3.42771e-06
7.51415e-05
-4.79569e-06
9.24233e-05
-5.31011e-06
0.000107202
-5.16255e-06
0.000120149
-4.55729e-06
0.000131654
-3.67836e-06
0.000141861
-2.69504e-06
0.000150726
-1.7711e-06
0.000158056
-1.06945e-06
0.000163591
-7.3051e-07
0.000167089
-8.70937e-07
0.000168381
-1.55796e-06
0.000167427
-2.78666e-06
0.000164336
-4.48529e-06
0.000159388
-6.546e-06
0.000152985
-8.80522e-06
0.000145623
-1.11142e-05
0.000137825
-1.33795e-05
0.000130023
-1.55186e-05
0.000121149
-1.72146e-05
0.000110514
-1.80554e-05
9.91317e-05
-1.81296e-05
8.72793e-05
-1.77142e-05
7.43043e-05
-1.67539e-05
5.89643e-05
-1.48745e-05
4.03015e-05
-1.16245e-05
2.06988e-05
-7.279e-06
6.91267e-06
-3.3862e-06
-1.90691e-06
4.14049e-07
-2.44244e-08
3.31398e-07
-4.68142e-08
-7.84285e-06
1.92689e-07
-2.96557e-05
8.27909e-07
-4.67107e-05
1.76029e-06
-4.47978e-05
2.63123e-06
-3.05838e-05
3.58268e-06
-1.24891e-05
5.11456e-06
6.13731e-06
7.22013e-06
2.42983e-05
9.52365e-06
4.1832e-05
1.1607e-05
5.86815e-05
1.32421e-05
7.43196e-05
1.43976e-05
8.82326e-05
1.49775e-05
9.9923e-05
1.49307e-05
0.000108989
1.42908e-05
0.000115177
1.31646e-05
0.000118402
1.17035e-05
0.000118733
1.00718e-05
0.00011636
8.41763e-06
0.000111552
6.85507e-06
0.000104611
5.45702e-06
9.58389e-05
4.25744e-06
8.55084e-05
3.26056e-06
7.38469e-05
2.45094e-06
6.10316e-05
1.80157e-06
4.71877e-05
1.28029e-06
3.23997e-05
8.53539e-07
1.66672e-05
4.84903e-07
1.5651e-07
5.08856e-07
-5.27248e-08
1.94815e-07
-6.36323e-08
-9.2913e-06
4.62368e-07
-3.20317e-05
1.73429e-06
-4.82109e-05
3.59749e-06
-4.50377e-05
5.30695e-06
-3.0103e-05
7.28846e-06
-1.16667e-05
1.03547e-05
7.16991e-06
1.44609e-05
2.54637e-05
1.90117e-05
4.30781e-05
2.31195e-05
5.99487e-05
2.63169e-05
7.55697e-05
2.8544e-05
8.94353e-05
2.96313e-05
0.000101053
2.94844e-05
0.000110028
2.81784e-05
0.000116111
2.59278e-05
0.000119224
2.30317e-05
0.00011944
1.98113e-05
0.000116957
1.65552e-05
0.000112044
1.34842e-05
0.000105009
1.07384e-05
9.61529e-05
8.38228e-06
8.57499e-05
6.42311e-06
7.40266e-05
4.83087e-06
6.11591e-05
3.55279e-06
4.72715e-05
2.52607e-06
3.24474e-05
1.68511e-06
1.66863e-05
9.58175e-07
3.0954e-07
6.05979e-07
-7.95005e-08
-4.98094e-07
-4.70223e-09
-1.22431e-05
8.91963e-07
-3.50576e-05
2.77967e-06
-4.83182e-05
5.43421e-06
-4.30535e-05
7.89344e-06
-2.76151e-05
1.09112e-05
-9.31242e-06
1.54779e-05
9.28737e-06
2.14962e-05
2.73813e-05
2.81819e-05
4.48177e-05
3.41923e-05
6.15064e-05
3.88264e-05
7.69595e-05
4.20044e-05
9.0673e-05
4.35135e-05
0.000102155
4.32274e-05
0.00011101
4.12674e-05
0.000116986
3.79493e-05
0.000120004
3.37065e-05
0.000120133
2.90031e-05
0.000117568
2.42539e-05
0.000112577
1.97753e-05
0.000105466
1.57687e-05
9.65382e-05
1.23251e-05
8.60664e-05
9.45569e-06
7.42775e-05
7.11952e-06
6.13481e-05
5.24082e-06
4.74029e-05
3.72914e-06
3.25263e-05
2.48944e-06
1.67203e-05
1.41658e-06
4.57942e-07
6.08136e-07
-8.35675e-08
-1.99145e-06
2.03478e-07
-1.60423e-05
1.52399e-06
-3.68808e-05
3.80443e-06
-4.56114e-05
6.83894e-06
-3.82548e-05
1.0006e-05
-2.30104e-05
1.41954e-05
-5.54301e-06
2.0249e-05
1.22777e-05
2.80857e-05
2.97831e-05
3.67498e-05
4.67474e-05
4.44902e-05
6.30381e-05
5.04016e-05
7.8177e-05
5.43999e-05
9.16505e-05
5.62549e-05
0.000102959
5.5819e-05
0.000111693
5.32598e-05
0.000117592
4.89812e-05
0.00012056
4.35316e-05
0.000120658
3.74986e-05
0.000118066
3.14058e-05
0.000113048
2.56529e-05
0.000105901
2.04978e-05
9.69304e-05
1.6053e-05
8.64092e-05
1.23362e-05
7.45639e-05
9.30273e-06
6.15737e-05
6.85652e-06
4.75657e-05
4.88333e-06
3.26274e-05
3.26211e-06
1.67653e-05
1.85708e-06
6.00569e-07
4.12953e-07
-4.21618e-08
-4.14312e-06
5.44329e-07
-1.93675e-05
2.21896e-06
-3.61468e-05
4.66569e-06
-4.01216e-05
7.76151e-06
-3.14512e-05
1.16065e-05
-1.70776e-05
1.70684e-05
-9.01775e-07
2.45699e-05
1.58394e-05
3.40846e-05
3.25468e-05
4.45171e-05
4.88792e-05
5.37843e-05
6.46531e-05
6.08033e-05
7.93991e-05
6.54974e-05
9.25862e-05
6.7636e-05
0.0001037
6.70587e-05
0.000112311
6.39798e-05
0.000118142
5.88746e-05
0.000121081
5.23822e-05
0.000121169
4.51964e-05
0.000118572
3.79301e-05
0.000113543
3.10531e-05
0.000106373
2.48791e-05
9.7367e-05
1.95301e-05
8.68004e-05
1.50353e-05
7.4896e-05
1.13593e-05
6.18384e-05
8.38454e-06
4.7759e-05
5.97754e-06
3.27491e-05
3.99535e-06
1.68201e-05
2.27488e-06
7.35767e-07
-5.2616e-08
5.26018e-08
-6.39982e-06
9.01186e-07
-2.08269e-05
2.73318e-06
-3.23294e-05
5.22918e-06
-3.24111e-05
8.38893e-06
-2.35109e-05
1.29095e-05
-1.05232e-05
1.95351e-05
4.13843e-06
2.83812e-05
1.96778e-05
3.93942e-05
3.54933e-05
5.13356e-05
5.11186e-05
6.18986e-05
6.63199e-05
6.98522e-05
8.06363e-05
7.51307e-05
9.35155e-05
7.75085e-05
0.000104427
7.6815e-05
0.000112915
7.33189e-05
0.000118681
6.75401e-05
0.000121602
6.01811e-05
0.000121693
5.20317e-05
0.000119103
4.37729e-05
0.000114077
3.59274e-05
0.000106899
2.88633e-05
9.78602e-05
2.27258e-05
8.72394e-05
1.75353e-05
7.52702e-05
1.32706e-05
6.2138e-05
9.81134e-06
4.79786e-05
7.00194e-06
3.28881e-05
4.68245e-06
1.68834e-05
2.66601e-06
8.62169e-07
-7.47446e-07
1.8501e-07
-7.9921e-06
1.17389e-06
-1.97077e-05
2.97517e-06
-2.61419e-05
5.47816e-06
-2.37589e-05
8.86066e-06
-1.54282e-05
1.40375e-05
-4.02238e-06
2.16256e-05
9.1448e-06
3.16587e-05
2.35288e-05
4.3948e-05
3.84706e-05
5.71269e-05
5.33956e-05
6.87467e-05
6.80285e-05
7.74661e-05
8.19155e-05
8.32347e-05
9.44855e-05
8.58222e-05
0.000105201
8.50412e-05
0.000113593
8.12159e-05
0.000119319
7.49206e-05
0.000122223
6.689e-05
0.000122316
5.79667e-05
0.000119729
4.8898e-05
0.000114693
4.02491e-05
0.000107504
3.2416e-05
9.84359e-05
2.55984e-05
8.7748e-05
1.9812e-05
7.56981e-05
1.50211e-05
6.24786e-05
1.11219e-05
4.82267e-05
7.94508e-06
3.30441e-05
5.31557e-06
1.69541e-05
3.02595e-06
9.78393e-07
-1.45938e-06
2.9621e-07
-8.32925e-06
1.26843e-06
-1.63616e-05
2.97424e-06
-1.89758e-05
5.52435e-06
-1.54759e-05
9.24205e-06
-8.03487e-06
1.5004e-05
1.93189e-06
2.33785e-05
1.38241e-05
3.44077e-05
2.72151e-05
4.77354e-05
4.13854e-05
6.18952e-05
5.56783e-05
7.43446e-05
6.97963e-05
8.36656e-05
8.33097e-05
8.98228e-05
9.56121e-05
9.25989e-05
0.000106134
9.17863e-05
0.000114426
8.7708e-05
0.000120119
8.10222e-05
0.000123006
7.25036e-05
0.000123087
6.29929e-05
0.000120486
5.32902e-05
0.000115423
4.4001e-05
0.000108189
3.55368e-05
9.90703e-05
2.8133e-05
8.83161e-05
2.18347e-05
7.61769e-05
1.6592e-05
6.28574e-05
1.23017e-05
4.85002e-05
8.79616e-06
3.32141e-05
5.8873e-06
1.70299e-05
3.35053e-06
1.0833e-06
-1.88382e-06
3.28313e-07
-7.29754e-06
1.17192e-06
-1.18877e-05
2.83206e-06
-1.21681e-05
5.50437e-06
-8.39088e-06
9.57032e-06
-1.77181e-06
1.58281e-05
7.11742e-06
2.48543e-05
1.80574e-05
3.66753e-05
3.06736e-05
5.08171e-05
4.42342e-05
6.57233e-05
5.80241e-05
7.88067e-05
7.17084e-05
8.85942e-05
8.48979e-05
9.50282e-05
9.69728e-05
9.79459e-05
0.000107316
9.71513e-05
0.000115462
9.29248e-05
0.000121062
8.59621e-05
0.000123903
7.70863e-05
0.000123951
6.7152e-05
0.000121319
5.69737e-05
0.000116221
4.71868e-05
0.000108927
3.82276e-05
9.97331e-05
3.03417e-05
8.89037e-05
2.36034e-05
7.66752e-05
1.7975e-05
6.32515e-05
1.33466e-05
4.87842e-05
9.55194e-06
3.33898e-05
6.3953e-06
1.71077e-05
3.6385e-06
1.17639e-06
-1.89004e-06
2.98258e-07
-5.38979e-06
1.03659e-06
-7.47008e-06
2.70274e-06
-6.54432e-06
5.5052e-06
-2.78764e-06
9.89301e-06
3.30088e-06
1.65956e-05
1.15485e-05
2.61566e-05
2.18794e-05
3.8581e-05
3.39635e-05
5.33395e-05
4.70812e-05
6.87881e-05
6.05007e-05
8.23269e-05
7.38504e-05
9.24623e-05
8.67347e-05
9.90895e-05
9.85608e-05
0.000102084
0.000108726
0.000101288
0.000116719
9.69856e-05
0.000122191
8.98533e-05
0.000124944
8.07332e-05
0.000124926
7.05066e-05
0.000122237
5.99893e-05
0.00011708
4.98325e-05
0.000109719
4.04901e-05
0.000100442
3.2223e-05
8.95184e-05
2.51257e-05
7.71891e-05
1.91727e-05
6.36562e-05
1.42563e-05
4.90755e-05
1.02117e-05
3.357e-05
6.83889e-06
1.71875e-05
3.88934e-06
1.25738e-06
-1.59336e-06
2.56063e-07
-3.34338e-06
9.84289e-07
-3.83487e-06
2.62278e-06
-2.29286e-06
5.51769e-06
1.46598e-06
1.0241e-05
7.37207e-06
1.73965e-05
1.53843e-05
2.74195e-05
2.54187e-05
4.03068e-05
3.71978e-05
5.55156e-05
5.00153e-05
7.13521e-05
6.3143e-05
8.51782e-05
7.62295e-05
9.5501e-05
8.88576e-05
0.00010222
0.000100441
0.000105223
0.000110404
0.000104389
0.000118233
0.000100026
0.000123565
9.2792e-05
0.000126195
8.35278e-05
0.000126071
7.31183e-05
0.000123287
6.23772e-05
0.000118038
5.19621e-05
0.000110583
4.23383e-05
0.000101204
3.37808e-05
9.0171e-05
2.64006e-05
7.77276e-05
2.01837e-05
6.40762e-05
1.50288e-05
4.93762e-05
1.07738e-05
3.37554e-05
7.21678e-06
1.72694e-05
4.10225e-06
1.32605e-06
-1.18053e-06
2.41379e-07
-1.63973e-06
1.02581e-06
-1.11857e-06
2.56347e-06
8.60328e-07
5.56856e-06
4.77156e-06
1.06647e-05
1.07796e-05
1.83e-05
1.88486e-05
2.87804e-05
2.88387e-05
4.20698e-05
4.04955e-05
5.76174e-05
5.3148e-05
7.37013e-05
6.60653e-05
8.76412e-05
7.89294e-05
9.79615e-05
9.1339e-05
0.000104622
0.000102703
0.000107543
0.000112446
0.00010663
0.00012007
0.000102201
0.000125214
9.49016e-05
0.000127673
8.55614e-05
0.000127397
7.50539e-05
0.000124474
6.41834e-05
0.000119097
5.36054e-05
0.000111518
4.37908e-05
0.000102014
3.50251e-05
9.08553e-05
2.74323e-05
7.82847e-05
2.10102e-05
6.45061e-05
1.56649e-05
4.96813e-05
1.12384e-05
3.39427e-05
7.52911e-06
1.73518e-05
4.27738e-06
1.38246e-06
-8.02479e-07
2.72929e-07
-4.06991e-07
1.13386e-06
8.70039e-07
2.60959e-06
3.3546e-06
5.80631e-06
7.61257e-06
1.12861e-05
1.39096e-05
1.94163e-05
2.22052e-05
3.03814e-05
3.23362e-05
4.40765e-05
4.40394e-05
5.99279e-05
5.66391e-05
7.61349e-05
6.94122e-05
8.99676e-05
8.20857e-05
0.000100063
9.42794e-05
0.000106501
0.000105403
0.00010923
0.00011489
0.000108171
0.000122258
0.000103648
0.000127156
9.62951e-05
0.000129387
8.69211e-05
0.000128904
7.63789e-05
0.000125797
6.5455e-05
0.000120251
5.47953e-05
0.000112517
4.48695e-05
0.000102865
3.59693e-05
9.15641e-05
2.82291e-05
7.88543e-05
2.1657e-05
6.49405e-05
1.61674e-05
4.99867e-05
1.16073e-05
3.41287e-05
7.77707e-06
1.74331e-05
4.41554e-06
1.42689e-06
-4.59332e-07
3.00288e-07
4.90428e-07
1.28494e-06
2.43881e-06
2.90884e-06
5.62307e-06
6.46043e-06
1.04366e-05
1.23598e-05
1.7154e-05
2.09759e-05
2.57774e-05
3.24168e-05
3.61665e-05
4.65224e-05
4.806e-05
6.27252e-05
6.06717e-05
7.89789e-05
7.32945e-05
9.2378e-05
8.57792e-05
0.000101947
9.77403e-05
0.000108007
0.000108585
0.000110431
0.000117761
0.000109146
0.000124809
0.000104484
0.000129396
9.70686e-05
0.000131336
8.76839e-05
0.000130589
7.71534e-05
0.000127246
6.62377e-05
0.000121492
5.55652e-05
0.00011357
4.55984e-05
0.000103748
3.66305e-05
9.2288e-05
2.88028e-05
7.94286e-05
2.21322e-05
6.53735e-05
1.65416e-05
5.02878e-05
1.18839e-05
3.43103e-05
7.96294e-06
1.75117e-05
4.51811e-06
1.45986e-06
3.88229e-08
2.31656e-07
1.58645e-06
1.71186e-06
4.19903e-06
3.77009e-06
8.15531e-06
7.82491e-06
1.36361e-05
1.41938e-05
2.08499e-05
2.32469e-05
2.98489e-05
3.50804e-05
4.0549e-05
4.9556e-05
5.26591e-05
6.59551e-05
6.52587e-05
8.18905e-05
7.77187e-05
9.46263e-05
9.00084e-05
0.000103639
0.0001017
0.000109256
0.000112202
0.000111267
0.000120997
0.00010966
0.000127651
0.0001048
0.000131855
9.73019e-05
0.000133439
8.79179e-05
0.000132373
7.74344e-05
0.00012875
6.65782e-05
0.000122753
5.59528e-05
0.00011462
4.60073e-05
0.000104613
3.70316e-05
9.29882e-05
2.91706e-05
7.99781e-05
2.24489e-05
6.57844e-05
1.67971e-05
5.05718e-05
1.2075e-05
3.44808e-05
8.09126e-06
1.75851e-05
4.58793e-06
1.4821e-06
3.05143e-05
-1.3581e-06
5.68516e-05
-3.7259e-06
7.85051e-05
-5.31167e-06
9.65677e-05
-5.9806e-06
0.000112069
-5.88318e-06
0.000125748
-5.27239e-06
0.000138043
-4.36484e-06
0.000149148
-3.33331e-06
0.000159066
-2.35711e-06
0.000167636
-1.6088e-06
0.000174621
-1.2482e-06
0.000179781
-1.41856e-06
0.000182927
-2.21e-06
0.000183987
-3.65332e-06
0.000183029
-5.68377e-06
0.000180248
-8.19185e-06
0.000175984
-1.1014e-05
0.000170708
-1.4005e-05
0.000164912
-1.70366e-05
0.000158982
-1.99854e-05
0.000151215
-2.24022e-05
0.000140344
-2.36189e-05
0.000127739
-2.36704e-05
0.000113867
-2.29154e-05
9.77895e-05
-2.12864e-05
7.80852e-05
-1.84226e-05
5.41532e-05
-1.40587e-05
2.93187e-05
-8.76566e-06
1.11133e-05
-4.3204e-06
-1.70313e-06
1.52415e-06
3.14122e-05
-1.43838e-06
5.85637e-05
-3.9631e-06
8.09014e-05
-5.73075e-06
9.95266e-05
-6.60215e-06
0.000115563
-6.63592e-06
0.000129821
-6.05038e-06
0.000142771
-5.11764e-06
0.000154649
-4.04237e-06
0.000165503
-3.0056e-06
0.000175223
-2.19084e-06
0.000183604
-1.77851e-06
0.000190427
-1.94169e-06
0.000195509
-2.79879e-06
0.000198736
-4.39349e-06
0.000200128
-6.68817e-06
0.000199831
-9.58285e-06
0.000198132
-1.29238e-05
0.000195445
-1.65654e-05
0.000192225
-2.03473e-05
0.000188844
-2.41351e-05
0.000183001
-2.73654e-05
0.000172425
-2.90426e-05
0.000158641
-2.89836e-05
0.000142554
-2.76638e-05
0.000123173
-2.51798e-05
9.92979e-05
-2.12862e-05
7.10286e-05
-1.60091e-05
4.23592e-05
-1.02264e-05
2.04301e-05
-5.59819e-06
-2.85289e-06
9.00145e-06
3.23357e-05
-1.51673e-06
6.03322e-05
-4.18184e-06
8.3406e-05
-6.07543e-06
0.000102632
-7.10902e-06
0.000119196
-7.33462e-06
0.000134042
-6.86221e-06
0.000147677
-5.93096e-06
0.000160343
-4.81021e-06
0.000172147
-3.70721e-06
0.00018304
-2.81208e-06
0.00019285
-2.32322e-06
0.000201371
-2.42784e-06
0.000208422
-3.26991e-06
0.000213876
-4.91511e-06
0.000217729
-7.37257e-06
0.000220083
-1.05493e-05
0.000221167
-1.42898e-05
0.000221337
-1.84504e-05
0.000221036
-2.28625e-05
0.0002207
-2.74085e-05
0.000217774
-3.15275e-05
0.000207943
-3.375e-05
0.000192668
-3.3427e-05
0.000174148
-3.13372e-05
0.000151327
-2.78181e-05
0.000123649
-2.2817e-05
9.20051e-05
-1.67564e-05
6.0638e-05
-1.06387e-05
3.57279e-05
-5.66977e-06
-2.76594e-06
2.13643e-05
3.32877e-05
-1.59093e-06
6.21663e-05
-4.39314e-06
8.60361e-05
-6.40007e-06
0.000105947
-7.53911e-06
0.000123046
-7.91563e-06
0.000138416
-7.61957e-06
0.000152728
-6.77895e-06
0.000166203
-5.64162e-06
0.000178973
-4.47267e-06
0.000191048
-3.4799e-06
0.000202264
-2.86987e-06
0.000212448
-2.84589e-06
0.000221434
-3.57427e-06
0.000229115
-5.16614e-06
0.000235446
-7.64622e-06
0.000240467
-1.09209e-05
0.000244368
-1.48647e-05
0.000247453
-1.93225e-05
0.000250147
-2.41098e-05
0.000252975
-2.91147e-05
0.000253507
-3.38069e-05
0.000245308
-3.6536e-05
0.000229104
-3.62282e-05
0.000208012
-3.33713e-05
0.000181682
-2.85423e-05
0.000150843
-2.23407e-05
0.000116973
-1.56286e-05
8.43275e-05
-9.37065e-06
5.80426e-05
-4.33455e-06
-1.57437e-06
4.19402e-05
3.42667e-05
-1.6611e-06
6.40671e-05
-4.59462e-06
8.87855e-05
-6.71882e-06
0.000109481
-7.95604e-06
0.000127236
-8.42699e-06
0.000143109
-8.26978e-06
0.00015799
-7.58695e-06
0.000172223
-6.52201e-06
0.000185946
-5.30433e-06
0.000199185
-4.18208e-06
0.000211751
-3.39929e-06
0.000223525
-3.18203e-06
0.000234378
-3.70921e-06
0.000244187
-5.11105e-06
0.000252869
-7.42405e-06
0.000260436
-1.05799e-05
0.000267013
-1.44728e-05
0.00027281
-1.89085e-05
0.000278171
-2.36782e-05
0.000283494
-2.85719e-05
0.000286107
-3.29403e-05
0.000280019
-3.55369e-05
0.000264929
-3.54256e-05
0.000242533
-3.23495e-05
0.00021378
-2.66764e-05
0.000180714
-1.95513e-05
0.000145815
-1.23423e-05
0.000113269
-6.03222e-06
8.68384e-05
-1.03121e-06
1.47979e-06
6.98157e-05
3.52792e-05
-1.72722e-06
6.60396e-05
-4.78734e-06
9.16528e-05
-7.0298e-06
0.000113203
-8.37462e-06
0.000131769
-8.93872e-06
0.0001483
-8.86937e-06
0.000163695
-8.30198e-06
0.000178532
-7.33957e-06
0.000193083
-6.12741e-06
0.000207402
-4.90565e-06
0.000221266
-3.92826e-06
0.000234523
-3.44265e-06
0.000247083
-3.65939e-06
0.000258809
-4.71939e-06
0.000269613
-6.67908e-06
0.000279466
-9.48592e-06
0.00028838
-1.30207e-05
0.000296449
-1.70708e-05
0.000303812
-2.13635e-05
0.000310479
-2.55599e-05
0.00031308
-2.89565e-05
0.000307657
-3.05951e-05
0.000294261
-2.98937e-05
0.000273295
-2.67063e-05
0.000245473
-2.11809e-05
0.000212551
-1.40469e-05
0.000178329
-6.69077e-06
0.000146932
-3.29692e-07
0.000121227
4.66871e-06
6.9422e-06
0.000104051
3.63332e-05
-1.78923e-06
6.80886e-05
-4.97097e-06
9.464e-05
-7.33201e-06
0.000117096
-8.79096e-06
0.000136551
-9.46341e-06
0.000153924
-9.48291e-06
0.000169994
-8.98549e-06
0.000185426
-8.08045e-06
0.000200616
-6.89706e-06
0.000215769
-5.62189e-06
0.000230761
-4.44595e-06
0.000245342
-3.62671e-06
0.000259402
-3.42879e-06
0.000272788
-4.01472e-06
0.000285389
-5.44578e-06
0.000297127
-7.67377e-06
0.000307906
-1.05562e-05
0.000317656
-1.38649e-05
0.000326269
-1.72733e-05
0.000333393
-2.03867e-05
0.000335262
-2.25459e-05
0.000328885
-2.29228e-05
0.000315579
-2.115e-05
0.000296706
-1.74371e-05
0.000272228
-1.20695e-05
0.000242923
-5.45593e-06
0.000212384
1.49269e-06
0.00018382
7.80094e-06
0.000159926
1.29534e-05
1.51042e-05
0.000143381
3.74208e-05
-1.84703e-06
7.02062e-05
-5.14421e-06
9.77386e-05
-7.62324e-06
0.00012115
-9.20131e-06
0.000141534
-9.99241e-06
0.000159821
-1.01225e-05
0.000176744
-9.71013e-06
0.000192925
-8.8563e-06
0.000208737
-7.68131e-06
0.000224484
-6.33087e-06
0.000240304
-4.95581e-06
0.000255971
-3.77712e-06
0.00027128
-3.06426e-06
0.000286014
-3.04402e-06
0.000300008
-3.81016e-06
0.000313164
-5.28041e-06
0.000325274
-7.27615e-06
0.000336089
-9.55933e-06
0.000345315
-1.18093e-05
0.000352327
-1.35733e-05
0.0003535
-1.42782e-05
0.000346224
-1.3439e-05
0.000332596
-1.08507e-05
0.000314767
-6.61323e-06
0.000292983
-1.05852e-06
0.000268441
5.25585e-06
0.000243552
1.16838e-05
0.000220022
1.77761e-05
0.000199925
2.31569e-05
2.55643e-05
0.000185808
3.85327e-05
-1.90048e-06
7.23854e-05
-5.30628e-06
0.000100944
-7.90221e-06
0.00012536
-9.60567e-06
0.00014672
-1.05274e-05
0.000165942
-1.07837e-05
0.00018376
-1.04749e-05
0.000200754
-9.68968e-06
0.000217289
-8.52769e-06
0.000233644
-7.1073e-06
0.00025007
-5.56218e-06
0.000266482
-4.04746e-06
0.000282718
-2.77347e-06
0.000298468
-2.00492e-06
0.000313425
-1.93539e-06
0.000327511
-2.51122e-06
0.00034041
-3.46635e-06
0.000351736
-4.56499e-06
0.000361055
-5.51182e-06
0.000367582
-5.80052e-06
0.000368148
-5.06134e-06
0.000360694
-3.18194e-06
0.00034754
2.06294e-08
0.000330769
4.62512e-06
0.00031114
1.02914e-05
0.000290321
1.64754e-05
0.000270068
2.26651e-05
0.00025167
2.85893e-05
0.000236315
3.40629e-05
3.66796e-05
0.000225841
3.96685e-05
-1.9495e-06
7.46268e-05
-5.45694e-06
0.000104256
-8.16839e-06
0.000129716
-1.0003e-05
0.000152083
-1.10644e-05
0.00017226
-1.1456e-05
0.000190968
-1.12663e-05
0.000208766
-1.05722e-05
0.000226038
-9.44691e-06
0.00024304
-7.9854e-06
0.000259976
-6.30909e-06
0.000276869
-4.52932e-06
0.000293677
-2.79927e-06
0.000310089
-1.28699e-06
0.000325673
-2.0428e-07
0.000340273
3.4472e-07
0.000353486
5.47074e-07
0.000364864
6.42751e-07
0.000373899
1.01369e-06
0.00037978
2.13139e-06
0.000379977
4.10299e-06
0.000372937
6.80344e-06
0.00036086
1.04554e-05
0.000345768
1.52777e-05
0.00032865
2.09786e-05
0.000310931
2.70779e-05
0.000294044
3.31612e-05
0.000279219
3.90176e-05
0.000267164
4.45041e-05
4.71054e-05
0.00025886
4.08234e-05
-1.99351e-06
7.69179e-05
-5.59499e-06
0.000107654
-8.41904e-06
0.000134188
-1.03848e-05
0.000157587
-1.15915e-05
0.000178738
-1.2132e-05
0.000198342
-1.20805e-05
0.000216928
-1.14976e-05
0.00023488
-1.04314e-05
0.000252454
-8.95937e-06
0.000269816
-7.18366e-06
0.000287023
-5.1942e-06
0.000304054
-3.11856e-06
0.000320741
-1.05231e-06