/*--------------------------------*- C++ -*----------------------------------*\
| =========                 |                                                 |
| \\      /  F ield         | OpenFOAM: The Open Source CFD Toolbox           |
|  \\    /   O peration     | Version:  dev                                   |
|   \\  /    A nd           | Web:      www.OpenFOAM.org                      |
|    \\/     M anipulation  |                                                 |
\*---------------------------------------------------------------------------*/
FoamFile
{
    version     2.0;
    format      ascii;
    class       volScalarField;
    location    "1.83";
    object      p;
}
// * * * * * * * * * * * * * * * * * * * * * * * * * * * * * * * * * * * * * //

dimensions      [0 2 -2 0 0 0 0];

internalField   nonuniform List<scalar> 
2790
(
70.9556
70.7673
70.8528
71.1599
71.596
72.1305
72.7631
73.4966
74.3322
75.2696
76.3096
77.4548
78.7079
80.0713
81.5474
83.1382
84.8448
86.6668
88.602
90.6449
92.7858
95.009
97.2914
99.6005
101.892
104.107
106.174
108.001
109.48
110.453
70.806
70.7124
70.8181
71.1235
71.5577
72.091
72.7213
73.4515
74.2825
75.2143
76.2477
77.3851
78.6291
79.9819
81.4459
83.0227
84.7135
86.5178
88.4335
90.4555
92.5744
94.7758
97.038
99.3304
101.611
103.825
105.901
107.753
109.275
110.375
70.67
70.65
70.7738
71.0717
71.4979
72.0242
72.6463
73.3661
74.1846
75.1016
76.1177
77.2346
78.4544
79.7789
81.2094
82.747
84.3916
86.142
87.9949
89.9441
91.9795
94.086
96.2418
98.4163
100.567
102.639
104.558
106.22
107.465
107.81
70.5351
70.5538
70.6918
70.9839
71.4013
71.9189
72.5304
73.237
74.0392
74.9367
75.9294
77.0187
78.2058
79.4914
80.8759
82.3588
83.9388
85.6127
87.3751
89.2176
91.1273
93.086
95.0686
97.0393
98.9484
100.725
102.263
103.383
103.868
102.09
70.3921
70.4318
70.5823
70.8715
71.2799
71.7865
72.3846
73.0741
73.8553
74.7276
75.6906
76.7446
77.89
79.1265
80.453
81.8676
83.3668
84.9451
86.5945
88.3032
90.0544
91.8245
93.5813
95.2794
96.8527
98.2009
99.1658
99.4255
98.8943
94.0536
70.2369
70.2883
70.4475
70.7334
71.1313
71.624
72.2051
72.8739
73.6298
74.472
75.3995
76.4117
77.508
78.6868
79.9456
81.2805
82.6859
84.1535
85.672
87.2257
88.7926
90.3422
91.8327
93.2046
94.3693
95.1889
95.4504
94.6354
93.1003
84.9601
70.0672
70.1251
70.289
70.5704
70.9564
71.4331
71.9946
72.6393
73.3663
74.174
75.0608
76.0253
77.0656
78.179
79.3612
80.6065
81.9067
83.2508
84.6239
86.0055
87.368
88.673
89.8676
90.8757
91.5841
91.8149
91.316
89.3184
86.9395
75.8078
69.8819
69.9432
70.1085
70.3837
70.7564
71.2151
71.7543
72.3719
73.0663
73.8354
74.6768
75.5882
76.5665
77.6076
78.7056
79.8527
81.0384
82.2487
83.4647
84.6613
85.8045
86.848
87.727
88.3489
88.5765
88.194
86.9378
83.7391
80.7081
67.166
69.6806
69.7435
69.9074
70.1745
70.5326
70.9714
71.4859
72.0735
72.732
73.4587
74.2506
75.1042
76.0153
76.9784
77.9858
79.0279
80.0916
81.1597
82.2099
83.2121
84.1263
84.8977
85.4506
85.6771
85.4196
84.4269
82.4528
78.0998
74.5628
59.2335
69.4634
69.5265
69.687
69.9443
70.2862
70.7033
71.1909
71.746
72.3657
73.047
73.7856
74.5774
75.417
76.2973
77.2092
78.1407
79.0766
79.9968
80.8752
81.6773
82.3571
82.8522
83.0771
82.9101
82.1778
80.5959
77.9583
72.5359
68.545
51.9792
69.2309
69.2931
69.4484
69.6944
70.0187
70.4125
70.8712
71.3916
71.9702
72.6031
73.2855
74.0122
74.7768
75.5706
76.3829
77.2
78.0043
78.7731
79.4766
80.0762
80.5208
80.7411
80.6429
80.0934
78.9061
76.7661
73.5162
67.1275
62.6084
45.2407
68.9835
69.0442
69.193
69.4262
69.7315
70.1006
70.5289
71.0126
71.5479
72.1302
72.754
73.413
74.0997
74.8043
75.5145
76.2149
76.8857
77.5014
78.0296
78.4279
78.6404
78.5926
78.1826
77.2682
75.6526
72.9918
69.1606
61.9196
56.6536
38.7387
68.7221
68.7808
68.9219
69.1411
69.4262
69.7693
70.1657
70.6112
71.1015
71.6313
72.1946
72.784
73.3911
74.0049
74.6116
75.1943
75.7311
76.1947
76.5499
76.751
76.7386
76.4336
75.7286
74.4731
72.461
69.3215
64.9242
56.9623
50.6052
32.0633
68.4476
68.5038
68.6363
68.8405
69.1043
69.4203
69.7837
70.1897
70.6336
71.1096
71.611
72.1298
72.6562
73.1784
73.6814
74.1467
74.5511
74.8653
75.0519
75.063
74.8362
74.2894
73.311
71.7442
69.3744
65.8107
60.8798
52.3596
44.5306
24.6486
68.161
68.2143
68.3376
68.5258
68.7675
69.0556
69.385
69.7506
70.1471
70.5686
71.0075
71.455
71.9007
72.3315
72.7317
73.0816
73.3566
73.526
73.551
73.3818
72.9545
72.1851
70.9598
69.1188
66.4425
62.5353
57.1606
48.3135
38.863
15.6993
-3.74455
-3.737
-3.74371
-3.7787
-3.85617
-3.96409
-4.07468
-4.17154
-4.24985
-4.30875
-4.34719
-4.36304
-4.35346
-4.31604
-4.24812
-4.14515
-4.00153
-3.81404
-3.58317
-3.31041
-2.99613
-2.64186
-2.25486
-1.84901
-1.4409
-1.04564
-0.677508
-0.354909
-0.104765
0.0482902
-3.75233
-3.74778
-3.75802
-3.79504
-3.87416
-3.98208
-4.09171
-4.18748
-4.26505
-4.32366
-4.36208
-4.37801
-4.36848
-4.33138
-4.26443
-4.16259
-4.01947
-3.83171
-3.60061
-3.32785
-3.01269
-2.6552
-2.26281
-1.8511
-1.43787
-1.03741
-0.661664
-0.327644
-0.0675973
0.0694951
-3.76452
-3.76299
-3.77964
-3.82192
-3.90485
-4.01271
-4.12013
-4.21348
-4.28929
-4.34682
-4.38473
-4.40047
-4.39063
-4.35376
-4.28843
-4.18883
-4.04697
-3.85872
-3.62718
-3.35584
-3.04304
-2.68441
-2.28439
-1.86052
-1.43521
-1.02654
-0.647865
-0.315093
-0.0601135
0.0676275
-3.78084
-3.78197
-3.80771
-3.85791
-3.94552
-4.05228
-4.15581
-4.24515
-4.3179
-4.3734
-4.41037
-4.4258
-4.41524
-4.37796
-4.31396
-4.21747
-4.07893
-3.89064
-3.65441
-3.37753
-3.06385
-2.71161
-2.31946
-1.8987
-1.47156
-1.0589
-0.677808
-0.345756
-0.0906049
0.0337976
-3.80154
-3.8045
-3.84143
-3.90076
-3.99191
-4.09546
-4.19325
-4.27692
-4.34537
-4.3982
-4.434
-4.44928
-4.43806
-4.39948
-4.33431
-4.23736
-4.10221
-3.92515
-3.70052
-3.42717
-3.11146
-2.75778
-2.3683
-1.95411
-1.53321
-1.12295
-0.741573
-0.410777
-0.158056
-0.0230974
-3.82664
-3.83
-3.87901
-3.94666
-4.03832
-4.13609
-4.22697
-4.30464
-4.36857
-4.41882
-4.45303
-4.46773
-4.45722
-4.42029
-4.35927
-4.2684
-4.13842
-3.96524
-3.74784
-3.48508
-3.1791
-2.8333
-2.45216
-2.04752
-1.63445
-1.22774
-0.846422
-0.512082
-0.251773
-0.0770337
-3.85583
-3.85713
-3.91718
-3.99021
-4.07895
-4.16922
-4.25389
-4.32835
-4.39095
-4.43979
-4.47192
-4.48587
-4.47937
-4.44825
-4.39066
-4.30439
-4.18286
-4.02074
-3.81543
-3.56599
-3.27356
-2.94074
-2.57257
-2.17943
-1.77328
-1.36851
-0.983689
-0.640461
-0.359088
-0.12252
-3.88824
-3.88368
-3.95197
-4.02618
-4.11161
-4.19711
-4.27889
-4.35214
-4.41508
-4.46653
-4.50043
-4.51346
-4.5062
-4.47875
-4.42905
-4.35297
-4.24386
-4.09599
-3.90612
-3.67315
-3.39764
-3.08119
-2.72816
-2.34565
-1.94301
-1.53504
-1.13986
-0.778374
-0.462584
-0.160937
-3.9216
-3.90748
-3.98156
-4.05624
-4.14048
-4.22497
-4.30774
-4.3863
-4.45241
-4.50242
-4.5343
-4.5466
-4.54085
-4.51884
-4.47944
-4.41738
-4.32455
-4.19399
-4.02204
-3.80791
-3.55184
-3.2541
-2.91588
-2.5406
-2.13649
-1.71795
-1.30344
-0.913361
-0.554583
-0.192457
-3.95154
-3.92968
-4.00918
-4.08687
-4.17245
-4.26254
-4.35027
-4.4309
-4.49986
-4.55081
-4.58063
-4.59034
-4.58496
-4.56937
-4.54334
-4.4996
-4.42699
-4.31628
-4.16369
-3.96958
-3.73434
-3.45604
-3.13114
-2.75889
-2.34668
-1.90898
-1.46545
-1.03734
-0.631373
-0.216871
-3.97166
-3.95684
-4.04242
-4.12539
-4.2165
-4.31078
-4.40551
-4.49306
-4.56568
-4.61605
-4.64114
-4.64493
-4.63767
-4.62919
-4.6204
-4.60044
-4.55247
-4.46345
-4.33001
-4.15555
-3.94181
-3.68325
-3.36979
-2.9958
-2.56772
-2.10136
-1.61904
-1.14488
-0.69043
-0.233676
-3.98199
-3.99656
-4.08689
-4.17561
-4.27369
-4.37816
-4.48247
-4.57754
-4.65325
-4.70053
-4.71627
-4.70842
-4.69521
-4.69438
-4.70837
-4.71986
-4.70205
-4.63559
-4.51858
-4.36132
-4.16956
-3.93219
-3.62902
-3.24809
-2.79501
-2.2895
-1.75878
-1.23183
-0.729116
-0.241995
-3.99905
-4.05065
-4.14638
-4.24449
-4.35414
-4.47086
-4.58574
-4.68771
-4.76469
-4.80512
-4.80478
-4.77628
-4.75021
-4.75761
-4.80301
-4.85754
-4.87754
-4.83306
-4.72565
-4.58015
-4.41138
-4.19993
-3.90815
-3.51406
-3.0246
-2.46787
-1.87931
-1.29432
-0.744279
-0.240273
-4.04212
-4.13267
-4.23712
-4.34583
-4.46582
-4.59459
-4.71819
-4.82411
-4.89945
-4.929
-4.90431
-4.84161
-4.79102
-4.80753
-4.89811
-5.01362
-5.08279
-5.05756
-4.94573
-4.80178
-4.65923
-4.48417
-4.20771
-3.79213
-3.25132
-2.62912
-1.97391
-1.32859
-0.733139
-0.225372
-4.62771
-4.261
-4.38185
-4.47842
-4.59892
-4.74022
-4.86804
-4.9743
-5.04881
-5.06961
-5.0144
-4.89695
-4.80084
-4.82726
-4.98435
-5.18762
-5.32285
-5.31113
-5.16866
-5.0085
-4.89957
-4.77992
-4.52534
-4.07572
-3.46372
-2.76024
-2.03218
-1.3303
-0.696348
-0.193201
67.8576
67.9077
68.0209
68.1922
68.4107
68.6697
68.9638
69.2875
69.6352
70.0007
70.3756
70.7505
71.1143
71.4532
71.7505
71.9855
72.1329
72.1608
72.0295
71.6883
71.0728
70.0987
68.653
66.5776
63.6567
59.514
53.8723
45.081
34.5914
4.53805
67.5339
67.5805
67.6829
67.8361
68.0301
68.2585
68.5158
68.7959
69.0932
69.4009
69.7102
70.0111
70.2919
70.5381
70.7324
70.8535
70.8755
70.7662
70.4854
69.9827
69.1945
68.039
66.4076
64.1513
61.0715
56.8468
51.2497
43.1904
34.4344
29.4743
67.1923
67.2351
67.326
67.4602
67.6287
67.8255
68.0449
68.2802
68.5259
68.775
69.0179
69.2443
69.442
69.5962
69.6892
69.6992
69.6003
69.3604
68.9399
68.2898
67.3489
66.0407
64.2656
61.8918
58.755
54.6261
49.4243
42.8143
36.2529
34.5287
66.8335
66.8721
66.951
67.0654
67.2075
67.3719
67.5524
67.7422
67.9357
68.1256
68.3019
68.454
68.5696
68.6335
68.6278
68.531
68.3172
67.9553
67.4071
66.626
65.5553
64.1264
62.2527
59.8267
56.7296
52.8271
48.1344
42.5946
36.4175
31.3192
66.4581
66.4924
66.5587
66.6526
66.7677
66.8991
67.0401
67.1839
67.3249
67.4557
67.5657
67.6445
67.6795
67.6558
67.5552
67.3569
67.0359
66.5622
65.9
65.0064
63.8309
62.3144
60.3863
57.9663
54.9766
51.3484
47.1081
42.2508
36.7226
31.6471
66.0672
66.0968
66.15
66.2231
66.3109
66.4087
66.5098
66.6074
66.6963
66.7683
66.813
66.82
66.777
66.6689
66.4785
66.1853
65.7656
65.1917
64.4305
63.4438
62.1885
60.6162
58.6728
56.3019
53.4573
50.1095
46.286
42.0319
37.3852
33.0024
65.6619
65.6866
65.7262
65.7782
65.8385
65.9025
65.9636
66.0154
66.0525
66.0667
66.0476
65.9851
65.8672
65.6792
65.4044
65.0237
64.5152
63.8533
63.0087
61.9483
60.6371
59.0374
57.1094
54.8167
52.1359
49.0622
45.6264
41.8866
37.8934
33.9742
65.2435
65.2629
65.2888
65.3195
65.3522
65.3824
65.4038
65.4105
65.3968
65.3544
65.2736
65.1445
64.9555
64.6925
64.3398
63.8799
63.2926
62.5555
61.643
60.5275
59.182
57.5782
55.6888
53.4927
50.9822
48.1649
45.0703
41.7474
38.2407
34.7463
64.8136
64.8275
64.8393
64.8488
64.854
64.8507
64.8331
64.7956
64.7323
64.6351
64.4952
64.303
64.0472
63.7147
63.2912
62.7605
62.105
61.3055
60.3398
59.1864
57.8251
56.236
54.4015
52.3121
49.9689
47.3849
44.5869
41.6164
38.5159
35.4195
64.3738
64.3819
64.3797
64.3681
64.346
64.3098
64.2542
64.1737
64.0623
63.9127
63.7168
63.4653
63.1474
62.7515
62.2644
61.6718
60.9587
60.1088
59.1038
57.9275
56.5659
55.0055
53.2367
51.2574
49.0735
46.6998
44.1614
41.4936
38.7342
35.9793
63.9259
63.9282
63.912
63.8793
63.8307
63.7624
63.6698
63.5478
63.3905
63.1911
62.9424
62.6358
62.2612
61.808
61.2648
60.6192
59.8586
58.9695
57.9376
56.7515
55.4017
53.8801
52.1832
50.313
48.278
46.0934
43.782
41.3732
38.8991
36.4324
63.4721
63.4683
63.4383
63.385
63.3104
63.2112
63.083
62.9214
62.7204
62.4741
62.1764
61.8192
61.3932
60.8891
60.2971
59.607
58.8084
57.8904
56.8426
55.6572
54.3285
52.8529
51.2305
49.4656
47.5681
45.5527
43.4395
41.2532
39.0202
36.7979
63.0144
63.0047
62.961
62.8876
62.7879
62.6589
62.4969
62.2978
62.0556
61.7655
61.4228
61.0197
60.5478
59.9991
59.3654
58.6388
57.811
56.8733
55.8188
54.6427
53.3422
51.9167
50.3685
48.7036
46.932
45.0676
43.1278
41.1333
39.106
37.0913
62.5554
62.5398
62.4827
62.3897
62.266
62.1087
61.9147
61.6803
61.3997
61.0693
60.6854
60.2412
59.7289
59.1416
58.473
57.7175
56.8682
55.919
54.8654
53.7051
52.4375
51.064
49.5883
48.0171
46.3601
44.6301
42.8422
41.0136
39.1625
37.3251
62.0977
62.076
62.0059
61.8942
61.7476
61.5636
61.3394
61.0721
60.7562
60.3891
59.9682
59.4873
58.9399
58.3199
57.6228
56.8452
55.9814
55.0273
53.9808
52.8411
51.6093
50.2881
48.8818
47.3975
45.8445
44.2341
42.5793
40.8947
39.1951
37.5097
61.6442
61.616
61.5334
61.4044
61.2359
61.0266
60.7745
60.4768
60.1286
59.7284
59.2744
58.7615
58.1838
57.5366
56.8174
56.0234
55.151
54.1976
53.1628
52.0471
50.8525
49.5824
48.2419
46.8378
45.3786
43.8745
42.3367
40.7772
39.2084
37.6538
61.1977
61.1629
61.0682
60.923
60.734
60.501
60.2231
59.8978
59.5204
59.0904
58.6074
58.0666
57.4632
56.7943
56.0582
55.2532
54.3771
53.4289
52.4092
51.3193
50.162
48.9413
47.6624
46.3317
44.9571
43.5474
42.1123
40.662
39.2064
37.7648
60.761
60.7198
60.6136
60.4531
60.2451
59.9902
59.6887
59.3382
58.9347
58.4785
57.9701
57.4055
56.7811
56.0951
55.3467
54.535
53.6593
52.7196
51.7171
50.654
49.5336
48.3599
47.138
45.8742
44.5755
43.2496
41.9048
40.5496
39.1923
37.8485
60.3374
60.2899
60.1729
59.998
59.7724
59.4975
59.1745
58.8013
58.3747
57.8958
57.3655
56.7809
56.1395
55.4405
54.6837
53.8691
52.9969
52.068
51.0842
50.0481
48.9632
47.8336
46.6643
45.461
44.2302
42.9785
41.713
40.4409
39.169
37.9101
59.9301
59.8766
59.7494
59.5613
59.3193
59.0261
58.6837
58.2902
57.8436
57.3453
56.7965
56.1953
55.5405
54.8319
54.07
53.2554
52.3891
51.4725
50.508
49.4984
48.4473
47.3587
46.2374
45.0888
43.9184
42.7323
41.5364
40.3367
39.139
37.9538
59.5428
59.4834
59.3464
59.146
58.8893
58.5796
58.2197
57.8083
57.3444
56.8298
56.2655
55.651
54.9858
54.2706
53.5062
52.6938
51.8349
50.9315
49.9863
49.0022
47.9828
46.932
45.8543
44.7546
43.638
42.5095
41.3745
40.2379
39.1046
37.9832
59.1791
59.1139
58.9676
58.7555
58.4857
58.1617
57.7863
57.3592
56.8805
56.3521
55.7751
55.15
54.4772
53.7576
52.9927
52.1841
51.3337
50.4439
49.5174
48.5575
47.5674
46.551
45.5125
44.4564
43.3872
42.3093
41.2273
40.1454
39.0679
38.0018
58.8428
58.772
58.6166
58.3936
58.1121
57.7758
57.3868
56.9461
56.4549
55.9149
55.3277
54.6944
54.016
53.2939
52.53
51.7262
50.8848
50.0084
49.0998
48.1622
47.1988
46.2135
45.2099
44.1922
43.1645
42.1307
41.0946
40.06
39.0306
38.0119
58.5378
58.4614
58.2975
58.0645
57.7725
57.4251
57.0245
56.5724
56.0706
55.5211
54.9258
54.2863
53.6041
52.8811
52.1192
51.3209
50.4885
49.6249
48.7328
47.8155
46.8763
45.9184
44.9456
43.9615
42.9697
41.9739
40.9774
39.9834
38.995
38.0171
58.2685
58.1866
58.0143
57.7718
57.4704
57.1133
56.7028
56.2411
55.7305
55.1733
54.5716
53.9274
53.2427
52.5196
51.7605
50.9677
50.144
49.2921
48.4151
47.5159
46.5977
45.6638
44.7176
43.7623
42.8014
41.8379
40.8748
39.9152
38.9615
38.0177
58.0396
57.9519
57.7706
57.5192
57.2095
56.8444
56.4258
55.9563
55.4387
54.8754
54.2689
53.6215
52.9354
52.213
51.4568
50.6694
49.8536
49.0123
48.1484
47.2649
46.3649
45.4514
44.5276
43.5966
42.6615
41.7251
40.79
39.859
38.9342
38.0191
57.8568
57.7619
57.5703
57.31
56.9928
56.6206
56.195
55.719
55.1956
54.6276
54.0175
53.3678
52.681
51.9597
51.2064
50.424
49.6151
48.7829
47.93
47.0596
46.1746
45.2778
44.3724
43.4611
42.5468
41.6322
40.7195
39.8113
38.9094
38.0168
57.7274
57.6207
57.4174
57.1502
56.828
56.4506
56.0197
55.5387
55.011
54.4394
53.8267
53.1754
52.4883
51.7679
51.0171
50.2387
49.4355
48.6105
47.7664
46.9064
46.0331
45.1495
44.2584
43.3626
42.4646
41.5669
40.6718
39.7814
38.8978
38.0233
57.6636
57.5261
57.3046
57.032
56.7072
56.3266
55.8923
55.4084
54.8783
54.3049
53.6909
53.0391
52.3523
51.6331
50.8844
50.1091
49.3101
48.4902
47.6523
46.7994
45.9342
45.0594
44.178
43.2924
42.4051
41.5186
40.6349
39.7561
38.884
38.0206
57.6944
57.5041
57.2598
56.9812
56.6531
56.2689
55.8314
55.3449
54.8129
54.2382
53.6234
52.9713
52.2848
51.5665
50.8194
50.0464
49.2502
48.4338
47.6001
46.7519
45.8919
45.023
44.1476
43.2685
42.3881
41.5085
40.6318
39.7601
38.895
38.0381
-81.5649
-54.3999
-26.3159
23.1173
19.2948
16.2071
25.3133
16.9887
12.2966
22.7861
17.6767
14.6323
26.1254
22.4297
19.5958
28.6166
25.484
22.9138
30.1779
27.5221
25.3281
31.4716
29.2063
27.3222
32.5641
30.5918
28.9449
33.4571
31.7165
30.2603
34.186
32.6366
31.3377
34.782
33.3922
32.2247
35.2693
34.0136
32.957
35.6674
34.5254
33.5631
35.9922
34.9474
34.0659
36.2568
35.2954
34.4833
36.4715
35.5822
34.8299
36.645
35.8179
35.1175
36.7844
36.0112
35.3557
36.8956
36.1693
35.5527
36.9836
36.298
35.7152
37.053
36.4026
35.849
37.1069
36.4869
35.9586
37.1496
36.5558
36.0489
37.1818
36.61
36.1214
37.21
36.6566
36.183
37.2285
36.69
36.2288
37.2525
36.7255
36.2731
37.2607
36.7421
36.2966
37.2904
36.7804
36.339
-0.611385
-2.7605
-4.45449
-4.67436
-4.83934
-4.99897
-5.10608
-5.19655
-5.26612
-5.27541
-5.16657
-4.94363
-4.75684
-4.79385
-5.05253
-5.38474
-5.61257
-5.60662
-5.39062
-5.17495
-5.11488
-5.083
-4.8567
-4.35309
-3.64273
-2.84013
-2.03564
-1.28593
-0.630447
-0.145535
10.1883
0.273593
-3.75703
-4.41028
-4.45516
-4.6005
-4.81459
-5.03172
-5.20856
-5.27483
-5.12661
-4.7945
-4.57413
-4.71132
-5.13933
-5.64557
-5.99547
-5.93778
-5.56753
-5.30564
-5.33842
-5.41318
-5.18664
-4.58632
-3.74993
-2.83974
-1.96425
-1.18101
-0.526874
-0.0871898
7.90858
2.0074
-1.0433
-2.15417
-2.77945
-3.40746
-3.9897
-4.45193
-4.77192
-4.92048
-4.87553
-4.71762
-4.62396
-4.76743
-5.23345
-5.84973
-6.16914
-5.91704
-5.44971
-5.27956
-5.51319
-5.72172
-5.43526
-4.69156
-3.72817
-2.73547
-1.82051
-1.0327
-0.405053
-0.0409601
11.1727
6.95776
3.7925
1.67053
0.146418
-1.07809
-2.07093
-2.83778
-3.39363
-3.75276
-3.94158
-4.03734
-4.17046
-4.47331
-4.97034
-5.4732
-5.69718
-5.59519
-5.44552
-5.50237
-5.61618
-5.4709
-4.97625
-4.20366
-3.29143
-2.37496
-1.5384
-0.828302
-0.28653
-0.047285
16.0791
12.1745
8.64398
5.79913
3.62815
1.93174
0.570452
-0.516848
-1.36522
-2.00657
-2.48213
-2.85844
-3.22664
-3.66266
-4.16163
-4.612
-4.87871
-4.94386
-4.92903
-4.93872
-4.90651
-4.68125
-4.21479
-3.5647
-2.80447
-2.01289
-1.26751
-0.637667
-0.194079
-0.0893261
19.8045
16.309
12.8013
9.71997
7.23166
5.2241
3.56731
2.19323
1.06511
0.148944
-0.596829
-1.22553
-1.79714
-2.35571
-2.89993
-3.37608
-3.71686
-3.90592
-3.99601
-4.03958
-4.00933
-3.8189
-3.41233
-2.82955
-2.16803
-1.50625
-0.903958
-0.42227
-0.119965
-0.0947256
22.6964
19.6455
16.3638
13.3014
10.697
8.5098
6.64668
5.05255
3.69683
2.55018
1.57706
0.736696
-0.0113003
-0.695781
-1.32067
-1.86214
-2.28727
-2.58528
-2.7772
-2.88454
-2.89217
-2.7573
-2.45745
-2.02113
-1.51547
-1.01774
-0.583282
-0.251129
-0.0612162
-0.0771017
25.0541
22.3674
19.3572
16.4277
13.8332
11.5777
9.60129
7.86504
6.34734
5.02679
3.87653
2.86668
1.96937
1.16436
0.445263
-0.1794
-0.695161
-1.09583
-1.38843
-1.5811
-1.66807
-1.63325
-1.47157
-1.20457
-0.875605
-0.53916
-0.24993
-0.0480032
0.0412167
-0.0214932
26.9559
24.565
21.8247
19.0807
16.5747
14.3334
12.3202
10.5107
8.89266
7.45312
6.17401
5.03471
4.01602
3.10338
2.28979
1.57635
0.968267
0.46838
0.0741853
-0.218198
-0.408264
-0.492421
-0.473543
-0.36956
-0.212807
-0.0420843
0.0988446
0.174123
0.163992
0.0466237
28.4953
26.3516
23.8611
21.3169
18.9383
16.7612
14.7638
12.9328
11.2638
9.75142
8.385
7.15126
6.03729
5.03287
4.13173
3.33183
2.63386
2.03827
1.54335
1.14616
0.844439
0.635853
0.513626
0.462066
0.456431
0.467076
0.464414
0.418895
0.310826
0.128865
29.7568
27.8216
25.5533
23.2024
20.9649
18.8783
16.9298
15.1133
13.4303
11.881
10.4607
9.16161
7.97555
6.89581
5.91756
5.03794
4.25561
3.56945
2.97747
2.47665
2.06328
1.7324
1.47575
1.27969
1.12501
0.989193
0.849778
0.684334
0.476621
0.217309
30.7981
29.0402
26.967
24.7951
22.6991
20.7152
18.8351
17.0569
15.386
13.8266
12.3783
11.0372
9.79895
8.6597
7.61598
6.66534
5.80598
5.03596
4.35282
3.75329
3.23303
2.7862
2.40443
2.07586
1.78515
1.5147
1.24676
0.964626
0.654442
0.307159
31.6613
30.0558
28.1537
26.1442
24.1838
22.3058
20.5042
18.779
17.138
15.5878
14.1307
12.7661
11.4924
10.3078
9.21028
8.19827
7.27018
6.42398
5.65698
4.96573
4.3458
3.7913
3.29438
2.84479
2.42994
2.03571
1.64771
1.25261
0.838342
0.395997
32.3795
30.9058
29.1538
27.2905
25.4566
23.6825
21.9631
20.2992
18.6993
17.1716
15.7201
14.3464
13.0507
11.833
10.6928
9.6293
8.64127
7.727
6.88407
6.10911
5.39779
4.74457
4.14236
3.58233
3.05398
2.54563
2.04528
1.54144
1.02347
0.482441
32.9785
31.6192
29.9991
28.2665
26.5489
24.8739
23.2364
21.6374
20.0854
18.5889
17.1533
15.7812
14.4745
13.2344
12.0616
10.9561
9.91687
8.94281
8.03202
7.18156
6.38738
5.6444
4.94633
4.28557
3.65318
3.03931
2.43363
1.82588
1.20629
0.565801
33.4789
32.2192
30.7149
29.0989
27.4871
25.9047
24.3464
22.8128
21.3119
19.8521
18.4394
17.0773
15.7683
14.5148
13.3181
12.1789
11.0969
10.0714
9.10076
8.1828
7.31407
6.48999
5.70495
4.95237
4.22456
3.51301
2.80862
2.10207
1.38415
0.645641
33.8974
32.7242
31.3216
29.8092
28.2931
26.7961
25.3127
23.843
22.3941
20.9741
19.5889
18.2425
16.9381
15.6783
14.4652
13.2999
12.1829
11.1136
10.0911
9.11342
8.17799
7.28092
6.41724
5.58112
4.76586
3.96397
3.16732
2.36732
1.55521
0.721685
34.2472
33.1495
31.8361
30.4155
28.9854
27.5664
26.1528
24.744
23.3463
21.9671
20.6121
19.2854
17.9905
16.7302
15.5069
14.3222
13.177
12.0712
11.0041
9.97432
8.97969
8.01717
7.08257
6.17065
5.2754
4.39017
3.50759
2.61972
1.71819
0.793709
34.5394
33.5075
32.2724
30.933
29.5796
28.2312
26.8818
25.5301
24.1816
22.8429
21.5193
20.2148
18.9328
17.6764
16.4481
15.2496
14.0823
12.9463
11.8414
10.7664
9.71973
8.69892
7.70056
6.72002
5.75185
4.79001
3.8278
2.8578
1.87204
0.861354
34.7833
33.8087
32.6421
31.3742
30.0891
28.8041
27.5131
26.2143
24.9121
23.6125
22.3203
21.0392
19.7725
18.5232
17.2938
16.0863
14.902
13.7415
12.6048
11.491
10.399
9.32664
8.27122
7.22876
6.19437
5.16248
4.1269
3.0807
2.01626
0.924588
34.9864
34.0615
32.9547
31.7497
30.525
29.2966
28.0582
26.8076
25.5485
24.2859
23.0241
21.7667
20.5166
19.2766
18.0492
16.8363
15.6394
14.4592
13.296
12.1493
11.018
9.90045
8.79421
7.6961
6.60185
5.50629
4.4036
3.28725
2.14996
0.9831
35.1553
34.2734
33.2186
32.0686
30.897
29.7187
28.5274
27.3204
26.1005
24.8723
23.6395
22.4052
21.172
19.9427
18.7194
17.5041
16.2981
15.1025
13.9176
12.743
11.578
10.421
9.27
8.12228
6.97423
5.8212
4.65766
3.47733
2.27324
1.03707
35.295
34.4501
33.4403
32.3381
31.2128
30.0785
28.9288
27.7606
26.5761
25.3793
24.1733
22.961
21.7446
20.5264
19.3086
18.093
16.8808
15.6732
14.4706
13.2726
12.0787
10.8877
9.69762
8.50613
7.31013
6.10558
4.88725
3.64909
2.38441
1.08535
35.411
34.5976
33.6264
32.5653
31.48
30.384
29.2706
28.1365
26.9835
25.8148
24.6333
23.4412
22.2407
21.0338
19.8223
18.6079
17.3918
16.1751
14.958
13.7406
12.5224
11.3022
10.0785
8.84902
7.61099
6.36082
5.09377
3.8041
2.48509
1.12928
35.5054
34.7185
33.78
32.7538
31.7026
30.6392
29.557
28.4524
27.3266
26.1826
25.0227
23.849
22.663
21.4667
20.2617
19.0493
17.8308
16.607
15.3784
14.145
12.9064
11.6616
10.4092
9.14705
7.87258
6.5825
5.27266
3.93768
2.5711
1.16606
35.5844
34.8194
33.9081
32.911
31.8883
30.8522
29.7963
28.7165
27.614
26.4911
25.3499
24.1921
23.0191
21.8325
20.6336
19.4237
18.2039
16.975
15.7375
14.4913
13.2361
11.9709
10.6944
9.40491
8.09972
6.77572
5.42922
4.05511
2.64754
1.19945
35.6451
34.8975
34.0077
33.034
32.0343
31.0202
29.9854
28.9258
27.8421
26.7365
25.6106
24.466
23.3037
22.1252
20.9317
19.7242
18.5036
17.2708
16.0262
14.7699
13.5012
12.2194
10.9234
9.61144
8.28109
6.92925
5.55235
4.14587
2.70487
1.22283
35.6992
34.9645
34.0915
33.1358
32.1537
31.1566
30.1381
29.0942
28.0251
26.9329
25.819
24.6847
23.531
22.359
21.1698
19.9643
18.7433
17.5076
16.2579
14.9941
13.7152
12.4203
11.1091
9.77968
8.42965
7.05587
5.65466
4.22229
2.75413
1.24363
35.7308
35.0039
34.1418
33.1984
32.2283
31.2426
30.235
29.2016
28.1423
27.0591
25.9533
24.8259
23.6779
22.5103
21.324
20.1199
18.8985
17.6604
16.4075
15.1393
13.8531
12.5489
11.2271
9.88598
8.52266
7.13403
5.71648
4.2664
2.77942
1.25021
35.7723
35.0439
34.1872
33.2514
32.2883
31.3088
30.3071
29.2791
28.225
27.1464
26.0446
24.9205
23.7752
22.6094
21.4241
20.2202
18.9977
17.7573
16.502
15.2309
13.9395
12.6289
11.3006
9.95197
8.57975
7.18138
5.7538
4.29233
2.79097
1.24003
)
;

boundaryField
{
    inlet
    {
        type            zeroGradient;
    }
    outlet
    {
        type            fixedValue;
        value           uniform 0;
    }
    flap
    {
        type            zeroGradient;
    }
    upperWall
    {
        type            zeroGradient;
    }
    lowerWall
    {
        type            zeroGradient;
    }
    frontAndBack
    {
        type            empty;
    }
}


// ************************************************************************* //
