/*--------------------------------*- C++ -*----------------------------------*\
| =========                 |                                                 |
| \\      /  F ield         | OpenFOAM: The Open Source CFD Toolbox           |
|  \\    /   O peration     | Version:  dev                                   |
|   \\  /    A nd           | Web:      www.OpenFOAM.org                      |
|    \\/     M anipulation  |                                                 |
\*---------------------------------------------------------------------------*/
FoamFile
{
    version     2.0;
    format      ascii;
    class       pointVectorField;
    location    "0.58";
    object      pointDisplacement;
}
// * * * * * * * * * * * * * * * * * * * * * * * * * * * * * * * * * * * * * //

dimensions      [0 1 0 0 0 0 0];

internalField   nonuniform List<vector> 
1028
(
(0.0993289 0 -0.0095235)
(0.101197 0 -0.00996783)
(0.0994031 0 -0.00959085)
(0.101126 0 -0.00998975)
(0.102634 0 -0.0103583)
(0.103905 0 -0.0106835)
(0.099306 0 -0.0096053)
(0.100907 0 -0.00996267)
(0.102299 0 -0.0102862)
(0.103473 0 -0.0105658)
(0.104424 0 -0.0107914)
(0.105159 0 -0.0109544)
(0.0990621 0 -0.00957647)
(0.100561 0 -0.00989721)
(0.10186 0 -0.0101829)
(0.102956 0 -0.0104262)
(0.103853 0 -0.0106201)
(0.104559 0 -0.0107593)
(0.105092 0 -0.010841)
(0.105476 0 -0.0108654)
(0.0986893 0 -0.00951167)
(0.100102 0 -0.00980075)
(0.101325 0 -0.0100552)
(0.102359 0 -0.0102697)
(0.103211 0 -0.0104398)
(0.103892 0 -0.0105625)
(0.104416 0 -0.0106371)
(0.104804 0 -0.0106652)
(0.105076 0 -0.0106515)
(0.105235 0 -0.0106112)
(0.0982012 0 -0.0094162)
(0.0995416 0 -0.00967825)
(0.100701 0 -0.00990699)
(0.101684 0 -0.0100987)
(0.102498 0 -0.0102508)
(0.103155 0 -0.0103618)
(0.103669 0 -0.0104321)
(0.104055 0 -0.010464)
(0.104329 0 -0.0104616)
(0.104491 0 -0.010436)
(0.0976079 0 -0.0092937)
(0.0988868 0 -0.0095328)
(0.0999925 0 -0.00974035)
(0.100932 0 -0.00991394)
(0.101713 0 -0.0100521)
(0.102348 0 -0.0101545)
(0.102849 0 -0.010222)
(0.103229 0 -0.0102571)
(0.103501 0 -0.0102633)
(0.103662 0 -0.0102486)
(0.0969179 0 -0.00914649)
(0.0981439 0 -0.00936609)
(0.0992035 0 -0.0095561)
(0.100105 0 -0.00971503)
(0.100857 0 -0.00984223)
(0.101471 0 -0.00993798)
(0.101958 0 -0.0100035)
(0.10233 0 -0.010041)
(0.102597 0 -0.0100534)
(0.102755 0 -0.0100466)
(0.0961383 0 -0.00897585)
(0.0973185 0 -0.0091788)
(0.0983381 0 -0.00935413)
(0.0992059 0 -0.00950099)
(0.0999317 0 -0.00961931)
(0.100526 0 -0.00970968)
(0.100998 0 -0.00977342)
(0.10136 0 -0.0098125)
(0.10162 0 -0.00982943)
(0.101773 0 -0.00982845)
(0.0952763 0 -0.00878235)
(0.0964162 0 -0.00897091)
(0.0974005 0 -0.00913374)
(0.0982384 0 -0.00927045)
(0.0989399 0 -0.0093813)
(0.0995148 0 -0.00946708)
(0.0999729 0 -0.00952909)
(0.100323 0 -0.00956907)
(0.100575 0 -0.00958915)
(0.100723 0 -0.00959234)
(0.0943389 0 -0.00856585)
(0.0954431 0 -0.0087418)
(0.0963958 0 -0.00889377)
(0.0972067 0 -0.00902172)
(0.0978857 0 -0.0091261)
(0.0984424 0 -0.00920777)
(0.0988859 0 -0.00926797)
(0.0992251 0 -0.00930826)
(0.0994681 0 -0.00933041)
(0.099609 0 -0.00933658)
(0.0921046 0 -0.00813907)
(0.0933337 0 -0.00832569)
(0.0944056 0 -0.00849039)
(0.0953298 0 -0.00863274)
(0.096116 0 -0.00875291)
(0.0967741 0 -0.00885149)
(0.0973134 0 -0.00892934)
(0.0977428 0 -0.00898761)
(0.0980704 0 -0.00902769)
(0.098304 0 -0.00905111)
(0.098438 0 -0.00905936)
(0.0910706 0 -0.00788545)
(0.0922681 0 -0.00806068)
(0.093311 0 -0.00821517)
(0.0942092 0 -0.0083488)
(0.0949728 0 -0.00846192)
(0.0956115 0 -0.00855515)
(0.0961343 0 -0.00862934)
(0.0965499 0 -0.00868555)
(0.096866 0 -0.008725)
(0.09709 0 -0.00874904)
(0.097217 0 -0.00875868)
(0.0899818 0 -0.0076045)
(0.0911506 0 -0.00776913)
(0.0921673 0 -0.00791422)
(0.0930419 0 -0.00803984)
(0.0937847 0 -0.00814642)
(0.0944054 0 -0.0082346)
(0.0949127 0 -0.0083052)
(0.0953149 0 -0.0083592)
(0.0956198 0 -0.00839769)
(0.0958342 0 -0.00842184)
(0.0959541 0 -0.00843234)
(0.0888483 0 -0.00729449)
(0.0899911 0 -0.00744911)
(0.090984 0 -0.00758539)
(0.0918372 0 -0.00770347)
(0.092561 0 -0.00780384)
(0.0931648 0 -0.00788715)
(0.0936575 0 -0.00795418)
(0.094047 0 -0.00800582)
(0.0943409 0 -0.00804306)
(0.094546 0 -0.00806693)
(0.0946588 0 -0.00807788)
(0.087682 0 -0.00695336)
(0.0888012 0 -0.00709834)
(0.0897725 0 -0.00722615)
(0.0906061 0 -0.00733698)
(0.0913123 0 -0.00743134)
(0.0919006 0 -0.00750986)
(0.0923795 0 -0.00757327)
(0.092757 0 -0.0076224)
(0.0930404 0 -0.00765814)
(0.0932363 0 -0.00768142)
(0.0933421 0 -0.0076925)
(0.0864962 0 -0.00657861)
(0.0875938 0 -0.00671412)
(0.0885455 0 -0.00683362)
(0.0893612 0 -0.00693732)
(0.0900513 0 -0.00702572)
(0.0906251 0 -0.00709943)
(0.0910911 0 -0.00715913)
(0.0914573 0 -0.00720559)
(0.0917306 0 -0.00723961)
(0.0919178 0 -0.00726204)
(0.0920168 0 -0.007273)
(0.0853058 0 -0.00616725)
(0.0863839 0 -0.00629327)
(0.0873176 0 -0.00640444)
(0.0881171 0 -0.00650097)
(0.0887924 0 -0.00658334)
(0.0893529 0 -0.00665214)
(0.089807 0 -0.00670799)
(0.0901624 0 -0.00675161)
(0.0904264 0 -0.00678371)
(0.0906052 0 -0.00680505)
(0.0906977 0 -0.00681569)
(0.0841279 0 -0.00571577)
(0.0851883 0 -0.00583208)
(0.0861058 0 -0.00593472)
(0.0868905 0 -0.00602389)
(0.0875523 0 -0.00610006)
(0.0881006 0 -0.00616375)
(0.0885436 0 -0.00621556)
(0.0888892 0 -0.00625612)
(0.0891443 0 -0.00628608)
(0.0893153 0 -0.00630614)
(0.0894016 0 -0.00631628)
(0.0829816 0 -0.00522005)
(0.0840261 0 -0.00532621)
(0.0849291 0 -0.00541994)
(0.0857004 0 -0.00550141)
(0.08635 0 -0.00557106)
(0.0868872 0 -0.00562937)
(0.0873203 0 -0.00567686)
(0.0876568 0 -0.00571411)
(0.0879037 0 -0.00574172)
(0.0880674 0 -0.00576029)
(0.0881479 0 -0.00576978)
(0.0818887 0 -0.00467523)
(0.082919 0 -0.00477059)
(0.0838091 0 -0.00485484)
(0.0845685 0 -0.0049281)
(0.0852073 0 -0.00499078)
(0.0857346 0 -0.00504329)
(0.0861586 0 -0.00508612)
(0.0864869 0 -0.00511977)
(0.0867264 0 -0.00514476)
(0.0868834 0 -0.00516163)
(0.0869587 0 -0.00517033)
(0.0808736 0 -0.0040756)
(0.0818916 0 -0.00415927)
(0.0827704 0 -0.00423322)
(0.0835195 0 -0.00429758)
(0.0841488 0 -0.00435267)
(0.0846674 0 -0.00439886)
(0.0850835 0 -0.00443658)
(0.0854045 0 -0.00446624)
(0.0856374 0 -0.00448831)
(0.0857884 0 -0.00450326)
(0.0858589 0 -0.00451102)
(0.0799637 0 -0.00341443)
(0.0809714 0 -0.00348522)
(0.0818407 0 -0.00354783)
(0.082581 0 -0.00360234)
(0.0832023 0 -0.00364904)
(0.0837135 0 -0.00368822)
(0.0841228 0 -0.00372024)
(0.0844376 0 -0.00374545)
(0.0846649 0 -0.00376424)
(0.0848107 0 -0.003777)
(0.0848771 0 -0.00378366)
(0.0791902 0 -0.0026838)
(0.0801895 0 -0.00274017)
(0.0810512 0 -0.00279006)
(0.0817845 0 -0.00283353)
(0.0823993 0 -0.00287079)
(0.0829045 0 -0.00290208)
(0.0833082 0 -0.00292766)
(0.083618 0 -0.00294783)
(0.0838406 0 -0.00296287)
(0.0839822 0 -0.00297311)
(0.0840451 0 -0.00297849)
(0.0785878 0 -0.00187431)
(0.0795809 0 -0.00191429)
(0.080437 0 -0.00194971)
(0.0811651 0 -0.00198059)
(0.0817751 0 -0.00200708)
(0.0822759 0 -0.00202934)
(0.0826755 0 -0.00204755)
(0.0829815 0 -0.00206192)
(0.0832006 0 -0.00207265)
(0.083339 0 -0.00207996)
(0.0833992 0 -0.00208382)
(0.0781956 0 -0.00097486)
(0.079185 0 -0.000995963)
(0.0800376 0 -0.00101467)
(0.0807626 0 -0.001031)
(0.0813696 0 -0.00104501)
(0.0818676 0 -0.00105679)
(0.0822647 0 -0.00106643)
(0.0825683 0 -0.00107404)
(0.0827851 0 -0.00107973)
(0.0829215 0 -0.00108362)
(0.0829801 0 -0.00108569)
(0.0780573 0 0)
(0.0790454 0 0)
(0.0798968 0 0)
(0.0806207 0 0)
(0.0812267 0 0)
(0.0817237 0 0)
(0.0821199 0 0)
(0.0824227 0 0)
(0.0826388 0 0)
(0.0827745 0 0)
(0.0828325 0 0)
(0.0993289 0 -0.0095235)
(0.101197 0 -0.00996783)
(0.0994031 0 -0.00959085)
(0.101126 0 -0.00998975)
(0.102634 0 -0.0103583)
(0.103905 0 -0.0106835)
(0.099306 0 -0.0096053)
(0.100907 0 -0.00996267)
(0.102299 0 -0.0102862)
(0.103473 0 -0.0105658)
(0.104424 0 -0.0107914)
(0.105159 0 -0.0109544)
(0.0990621 0 -0.00957647)
(0.100561 0 -0.00989721)
(0.10186 0 -0.0101829)
(0.102956 0 -0.0104262)
(0.103853 0 -0.0106201)
(0.104559 0 -0.0107593)
(0.105092 0 -0.010841)
(0.105476 0 -0.0108654)
(0.0986893 0 -0.00951167)
(0.100102 0 -0.00980075)
(0.101325 0 -0.0100552)
(0.102359 0 -0.0102697)
(0.103211 0 -0.0104398)
(0.103892 0 -0.0105625)
(0.104416 0 -0.0106371)
(0.104804 0 -0.0106652)
(0.105076 0 -0.0106515)
(0.105235 0 -0.0106112)
(0.0982012 0 -0.0094162)
(0.0995416 0 -0.00967825)
(0.100701 0 -0.00990699)
(0.101684 0 -0.0100987)
(0.102498 0 -0.0102508)
(0.103155 0 -0.0103618)
(0.103669 0 -0.0104321)
(0.104055 0 -0.010464)
(0.104329 0 -0.0104616)
(0.104491 0 -0.010436)
(0.0976079 0 -0.0092937)
(0.0988868 0 -0.0095328)
(0.0999925 0 -0.00974035)
(0.100932 0 -0.00991394)
(0.101713 0 -0.0100521)
(0.102348 0 -0.0101545)
(0.102849 0 -0.010222)
(0.103229 0 -0.0102571)
(0.103501 0 -0.0102633)
(0.103662 0 -0.0102486)
(0.0969179 0 -0.00914649)
(0.0981439 0 -0.00936609)
(0.0992035 0 -0.0095561)
(0.100105 0 -0.00971503)
(0.100857 0 -0.00984223)
(0.101471 0 -0.00993798)
(0.101958 0 -0.0100035)
(0.10233 0 -0.010041)
(0.102597 0 -0.0100534)
(0.102755 0 -0.0100466)
(0.0961383 0 -0.00897585)
(0.0973185 0 -0.0091788)
(0.0983381 0 -0.00935413)
(0.0992059 0 -0.00950099)
(0.0999317 0 -0.00961931)
(0.100526 0 -0.00970968)
(0.100998 0 -0.00977342)
(0.10136 0 -0.0098125)
(0.10162 0 -0.00982943)
(0.101773 0 -0.00982845)
(0.0952763 0 -0.00878235)
(0.0964162 0 -0.00897091)
(0.0974005 0 -0.00913374)
(0.0982384 0 -0.00927045)
(0.0989399 0 -0.0093813)
(0.0995148 0 -0.00946708)
(0.0999729 0 -0.00952909)
(0.100323 0 -0.00956907)
(0.100575 0 -0.00958915)
(0.100723 0 -0.00959234)
(0.0943389 0 -0.00856585)
(0.0954431 0 -0.0087418)
(0.0963958 0 -0.00889377)
(0.0972067 0 -0.00902172)
(0.0978857 0 -0.0091261)
(0.0984424 0 -0.00920777)
(0.0988859 0 -0.00926797)
(0.0992251 0 -0.00930826)
(0.0994681 0 -0.00933041)
(0.099609 0 -0.00933658)
(0.0921046 0 -0.00813907)
(0.0933337 0 -0.00832569)
(0.0944056 0 -0.00849039)
(0.0953298 0 -0.00863274)
(0.096116 0 -0.00875291)
(0.0967741 0 -0.00885149)
(0.0973134 0 -0.00892934)
(0.0977428 0 -0.00898761)
(0.0980704 0 -0.00902769)
(0.098304 0 -0.00905111)
(0.098438 0 -0.00905936)
(0.0910706 0 -0.00788545)
(0.0922681 0 -0.00806068)
(0.093311 0 -0.00821517)
(0.0942092 0 -0.0083488)
(0.0949728 0 -0.00846192)
(0.0956115 0 -0.00855515)
(0.0961343 0 -0.00862934)
(0.0965499 0 -0.00868555)
(0.096866 0 -0.008725)
(0.09709 0 -0.00874904)
(0.097217 0 -0.00875868)
(0.0899818 0 -0.0076045)
(0.0911506 0 -0.00776913)
(0.0921673 0 -0.00791422)
(0.0930419 0 -0.00803984)
(0.0937847 0 -0.00814642)
(0.0944054 0 -0.0082346)
(0.0949127 0 -0.0083052)
(0.0953149 0 -0.0083592)
(0.0956198 0 -0.00839769)
(0.0958342 0 -0.00842184)
(0.0959541 0 -0.00843234)
(0.0888483 0 -0.00729449)
(0.0899911 0 -0.00744911)
(0.090984 0 -0.00758539)
(0.0918372 0 -0.00770347)
(0.092561 0 -0.00780384)
(0.0931648 0 -0.00788715)
(0.0936575 0 -0.00795418)
(0.094047 0 -0.00800582)
(0.0943409 0 -0.00804306)
(0.094546 0 -0.00806693)
(0.0946588 0 -0.00807788)
(0.087682 0 -0.00695336)
(0.0888012 0 -0.00709834)
(0.0897725 0 -0.00722615)
(0.0906061 0 -0.00733698)
(0.0913123 0 -0.00743134)
(0.0919006 0 -0.00750986)
(0.0923795 0 -0.00757327)
(0.092757 0 -0.0076224)
(0.0930404 0 -0.00765814)
(0.0932363 0 -0.00768142)
(0.0933421 0 -0.0076925)
(0.0864962 0 -0.00657861)
(0.0875938 0 -0.00671412)
(0.0885455 0 -0.00683362)
(0.0893612 0 -0.00693732)
(0.0900513 0 -0.00702572)
(0.0906251 0 -0.00709943)
(0.0910911 0 -0.00715913)
(0.0914573 0 -0.00720559)
(0.0917306 0 -0.00723961)
(0.0919178 0 -0.00726204)
(0.0920168 0 -0.007273)
(0.0853058 0 -0.00616725)
(0.0863839 0 -0.00629327)
(0.0873176 0 -0.00640444)
(0.0881171 0 -0.00650097)
(0.0887924 0 -0.00658334)
(0.0893529 0 -0.00665214)
(0.089807 0 -0.00670799)
(0.0901624 0 -0.00675161)
(0.0904264 0 -0.00678371)
(0.0906052 0 -0.00680505)
(0.0906977 0 -0.00681569)
(0.0841279 0 -0.00571577)
(0.0851883 0 -0.00583208)
(0.0861058 0 -0.00593472)
(0.0868905 0 -0.00602389)
(0.0875523 0 -0.00610006)
(0.0881006 0 -0.00616375)
(0.0885436 0 -0.00621556)
(0.0888892 0 -0.00625612)
(0.0891443 0 -0.00628608)
(0.0893153 0 -0.00630614)
(0.0894016 0 -0.00631628)
(0.0829816 0 -0.00522005)
(0.0840261 0 -0.00532621)
(0.0849291 0 -0.00541994)
(0.0857004 0 -0.00550141)
(0.08635 0 -0.00557106)
(0.0868872 0 -0.00562937)
(0.0873203 0 -0.00567686)
(0.0876568 0 -0.00571411)
(0.0879037 0 -0.00574172)
(0.0880674 0 -0.00576029)
(0.0881479 0 -0.00576978)
(0.0818887 0 -0.00467523)
(0.082919 0 -0.00477059)
(0.0838091 0 -0.00485484)
(0.0845685 0 -0.0049281)
(0.0852073 0 -0.00499078)
(0.0857346 0 -0.00504329)
(0.0861586 0 -0.00508612)
(0.0864869 0 -0.00511977)
(0.0867264 0 -0.00514476)
(0.0868834 0 -0.00516163)
(0.0869587 0 -0.00517033)
(0.0808736 0 -0.0040756)
(0.0818916 0 -0.00415927)
(0.0827704 0 -0.00423322)
(0.0835195 0 -0.00429758)
(0.0841488 0 -0.00435267)
(0.0846674 0 -0.00439886)
(0.0850835 0 -0.00443658)
(0.0854045 0 -0.00446624)
(0.0856374 0 -0.00448831)
(0.0857884 0 -0.00450326)
(0.0858589 0 -0.00451102)
(0.0799637 0 -0.00341443)
(0.0809714 0 -0.00348522)
(0.0818407 0 -0.00354783)
(0.082581 0 -0.00360234)
(0.0832023 0 -0.00364904)
(0.0837135 0 -0.00368822)
(0.0841228 0 -0.00372024)
(0.0844376 0 -0.00374545)
(0.0846649 0 -0.00376424)
(0.0848107 0 -0.003777)
(0.0848771 0 -0.00378366)
(0.0791902 0 -0.0026838)
(0.0801895 0 -0.00274017)
(0.0810512 0 -0.00279006)
(0.0817845 0 -0.00283353)
(0.0823993 0 -0.00287079)
(0.0829045 0 -0.00290208)
(0.0833082 0 -0.00292766)
(0.083618 0 -0.00294783)
(0.0838406 0 -0.00296287)
(0.0839822 0 -0.00297311)
(0.0840451 0 -0.00297849)
(0.0785878 0 -0.00187431)
(0.0795809 0 -0.00191429)
(0.080437 0 -0.00194971)
(0.0811651 0 -0.00198059)
(0.0817751 0 -0.00200708)
(0.0822759 0 -0.00202934)
(0.0826755 0 -0.00204755)
(0.0829815 0 -0.00206192)
(0.0832006 0 -0.00207265)
(0.083339 0 -0.00207996)
(0.0833992 0 -0.00208382)
(0.0781956 0 -0.00097486)
(0.079185 0 -0.000995963)
(0.0800376 0 -0.00101467)
(0.0807626 0 -0.001031)
(0.0813696 0 -0.00104501)
(0.0818676 0 -0.00105679)
(0.0822647 0 -0.00106643)
(0.0825683 0 -0.00107404)
(0.0827851 0 -0.00107973)
(0.0829215 0 -0.00108362)
(0.0829801 0 -0.00108569)
(0.0780573 0 0)
(0.0790454 0 0)
(0.0798968 0 0)
(0.0806207 0 0)
(0.0812267 0 0)
(0.0817237 0 0)
(0.0821199 0 0)
(0.0824227 0 0)
(0.0826388 0 0)
(0.0827745 0 0)
(0.0828325 0 0)
(0.105307 0 -0.0105694)
(0.104563 0 -0.0104067)
(0.1046 0 -0.0103783)
(0.104619 0 -0.0103377)
(0.103734 0 -0.0102282)
(0.103769 0 -0.0102074)
(0.103787 0 -0.0101762)
(0.102825 0 -0.0100329)
(0.102858 0 -0.0100176)
(0.102874 0 -0.00999357)
(0.10184 0 -0.00981954)
(0.101872 0 -0.00980842)
(0.101885 0 -0.00978981)
(0.100786 0 -0.00958701)
(0.100816 0 -0.00957901)
(0.100827 0 -0.00956455)
(0.0996687 0 -0.00933389)
(0.0996958 0 -0.00932824)
(0.0997037 0 -0.00931698)
(0.0984937 0 -0.00905859)
(0.0985179 0 -0.00905472)
(0.098523 0 -0.00904593)
(0.0972684 0 -0.0087593)
(0.0972897 0 -0.00875677)
(0.0972916 0 -0.00874989)
(0.0960012 0 -0.00843395)
(0.0960194 0 -0.00843242)
(0.0960182 0 -0.00842704)
(0.0947015 0 -0.00808017)
(0.0947167 0 -0.00807938)
(0.0947122 0 -0.00807516)
(0.0933804 0 -0.00769522)
(0.0933926 0 -0.00769498)
(0.0933849 0 -0.00769167)
(0.0920509 0 -0.00727597)
(0.0920601 0 -0.00727611)
(0.0920492 0 -0.00727351)
(0.0907277 0 -0.00681876)
(0.090734 0 -0.00681916)
(0.09072 0 -0.00681713)
(0.0894277 0 -0.00631933)
(0.0894312 0 -0.00631992)
(0.0894142 0 -0.00631832)
(0.0881703 0 -0.00577273)
(0.0881713 0 -0.00577341)
(0.0881515 0 -0.00577216)
(0.0869777 0 -0.00517309)
(0.0869763 0 -0.00517382)
(0.0869538 0 -0.00517284)
(0.0858749 0 -0.00451353)
(0.0858713 0 -0.00451424)
(0.0858465 0 -0.00451348)
(0.0848904 0 -0.00378584)
(0.0848849 0 -0.00378649)
(0.0848581 0 -0.00378592)
(0.0840563 0 -0.00298026)
(0.0840492 0 -0.00298081)
(0.0840206 0 -0.0029804)
(0.0834087 0 -0.00208511)
(0.0834004 0 -0.00208552)
(0.0833705 0 -0.00208525)
(0.0829885 0 -0.00108638)
(0.0829793 0 -0.00108661)
(0.0829486 0 -0.00108646)
(0.0828405 0 0)
(0.082831 0 0)
(0.0827999 0 0)
(0.105307 0 -0.0105694)
(0.104563 0 -0.0104067)
(0.1046 0 -0.0103783)
(0.104619 0 -0.0103377)
(0.103734 0 -0.0102282)
(0.103769 0 -0.0102074)
(0.103787 0 -0.0101762)
(0.102825 0 -0.0100329)
(0.102858 0 -0.0100176)
(0.102874 0 -0.00999357)
(0.10184 0 -0.00981954)
(0.101872 0 -0.00980842)
(0.101885 0 -0.00978981)
(0.100786 0 -0.00958701)
(0.100816 0 -0.00957901)
(0.100827 0 -0.00956455)
(0.0996687 0 -0.00933389)
(0.0996958 0 -0.00932824)
(0.0997037 0 -0.00931698)
(0.0984937 0 -0.00905859)
(0.0985179 0 -0.00905472)
(0.098523 0 -0.00904593)
(0.0972684 0 -0.0087593)
(0.0972897 0 -0.00875677)
(0.0972916 0 -0.00874989)
(0.0960012 0 -0.00843395)
(0.0960194 0 -0.00843242)
(0.0960182 0 -0.00842704)
(0.0947015 0 -0.00808017)
(0.0947167 0 -0.00807938)
(0.0947122 0 -0.00807516)
(0.0933804 0 -0.00769522)
(0.0933926 0 -0.00769498)
(0.0933849 0 -0.00769167)
(0.0920509 0 -0.00727597)
(0.0920601 0 -0.00727611)
(0.0920492 0 -0.00727351)
(0.0907277 0 -0.00681876)
(0.090734 0 -0.00681916)
(0.09072 0 -0.00681713)
(0.0894277 0 -0.00631933)
(0.0894312 0 -0.00631992)
(0.0894142 0 -0.00631832)
(0.0881703 0 -0.00577273)
(0.0881713 0 -0.00577341)
(0.0881515 0 -0.00577216)
(0.0869777 0 -0.00517309)
(0.0869763 0 -0.00517382)
(0.0869538 0 -0.00517284)
(0.0858749 0 -0.00451353)
(0.0858713 0 -0.00451424)
(0.0858465 0 -0.00451348)
(0.0848904 0 -0.00378584)
(0.0848849 0 -0.00378649)
(0.0848581 0 -0.00378592)
(0.0840563 0 -0.00298026)
(0.0840492 0 -0.00298081)
(0.0840206 0 -0.0029804)
(0.0834087 0 -0.00208511)
(0.0834004 0 -0.00208552)
(0.0833705 0 -0.00208525)
(0.0829885 0 -0.00108638)
(0.0829793 0 -0.00108661)
(0.0829486 0 -0.00108646)
(0.0828405 0 0)
(0.082831 0 0)
(0.0827999 0 0)
(0.104591 0 -0.0102716)
(0.103755 0 -0.0101229)
(0.103638 0 -0.0100507)
(0.103424 0 -0.00996802)
(0.103103 0 -0.00987595)
(0.10284 0 -0.00995014)
(0.102718 0 -0.00988834)
(0.102501 0 -0.00981436)
(0.102178 0 -0.00972897)
(0.10174 0 -0.00963234)
(0.101175 0 -0.00952405)
(0.101848 0 -0.00975415)
(0.101724 0 -0.00970085)
(0.101505 0 -0.00963452)
(0.101181 0 -0.00955557)
(0.100745 0 -0.00946405)
(0.100184 0 -0.00935966)
(0.0994888 0 -0.00924171)
(0.0986469 0 -0.00910917)
(0.100787 0 -0.009535)
(0.10066 0 -0.00948866)
(0.100439 0 -0.00942894)
(0.100116 0 -0.00935599)
(0.0996808 0 -0.00926974)
(0.0991246 0 -0.00916987)
(0.0984361 0 -0.00905579)
(0.0976039 0 -0.00892675)
(0.0966171 0 -0.00878208)
(0.0996606 0 -0.00929227)
(0.0995312 0 -0.00925167)
(0.0993087 0 -0.00919765)
(0.0989853 0 -0.00913017)
(0.0985522 0 -0.00904904)
(0.0979999 0 -0.00895392)
(0.0973177 0 -0.0088443)
(0.0964943 0 -0.00871948)
(0.0955186 0 -0.00857898)
(0.0984765 0 -0.00902509)
(0.0983443 0 -0.00898924)
(0.0981201 0 -0.00894016)
(0.0977964 0 -0.00887765)
(0.0973646 0 -0.00880141)
(0.0968155 0 -0.00871106)
(0.0961386 0 -0.00860611)
(0.0953228 0 -0.00848595)
(0.0943571 0 -0.00835016)
(0.0972417 0 -0.00873217)
(0.0971064 0 -0.00870029)
(0.0968803 0 -0.00865551)
(0.096556 0 -0.00859751)
(0.0961251 0 -0.00852591)
(0.0955785 0 -0.00844028)
(0.0949061 0 -0.00834013)
(0.0940968 0 -0.00822489)
(0.0931398 0 -0.00809422)
(0.0959645 0 -0.00841184)
(0.0958259 0 -0.00838332)
(0.0955977 0 -0.00834232)
(0.0952724 0 -0.00828844)
(0.094842 0 -0.00822124)
(0.0942974 0 -0.00814025)
(0.0936287 0 -0.00804497)
(0.092825 0 -0.00793485)
(0.0918757 0 -0.00780961)
(0.0946547 0 -0.00806204)
(0.0945127 0 -0.00803638)
(0.0942821 0 -0.00799875)
(0.0939556 0 -0.00794868)
(0.0935252 0 -0.00788568)
(0.092982 0 -0.00780927)
(0.0923163 0 -0.00771892)
(0.0915174 0 -0.00761409)
(0.0905749 0 -0.00749457)
(0.0933236 0 -0.00768026)
(0.093178 0 -0.0076571)
(0.0929448 0 -0.00762251)
(0.0926168 0 -0.00757601)
(0.0921861 0 -0.00751707)
(0.0916439 0 -0.00744519)
(0.0909807 0 -0.00735984)
(0.0901858 0 -0.0072605)
(0.0892493 0 -0.00714697)
(0.091984 0 -0.00726355)
(0.0918349 0 -0.0072426)
(0.0915989 0 -0.00721083)
(0.0912692 0 -0.00716772)
(0.0908379 0 -0.00711276)
(0.0902963 0 -0.00704542)
(0.089635 0 -0.00696519)
(0.0888436 0 -0.00687154)
(0.0879125 0 -0.00676432)
(0.090651 0 -0.0068084)
(0.0904982 0 -0.00678946)
(0.0902595 0 -0.00676034)
(0.0899279 0 -0.00672054)
(0.0894957 0 -0.00666953)
(0.0889544 0 -0.00660681)
(0.0882947 0 -0.00653186)
(0.0875063 0 -0.00644418)
(0.0865798 0 -0.00634364)
(0.0893416 0 -0.00631068)
(0.0891853 0 -0.0062936)
(0.0889438 0 -0.00626706)
(0.0886103 0 -0.00623054)
(0.088177 0 -0.00618355)
(0.0876357 0 -0.00612559)
(0.0869771 0 -0.00605617)
(0.0861912 0 -0.0059748)
(0.0852689 0 -0.0058814)
(0.0880754 0 -0.00576549)
(0.0879157 0 -0.00575021)
(0.0876714 0 -0.00572622)
(0.0873359 0 -0.00569305)
(0.0869015 0 -0.00565022)
(0.0863599 0 -0.00559725)
(0.0857022 0 -0.00553369)
(0.0849184 0 -0.00545909)
(0.0839996 0 -0.00537338)
(0.0868745 0 -0.00516708)
(0.0867116 0 -0.00515357)
(0.0864647 0 -0.00513219)
(0.0861272 0 -0.0051025)
(0.0856915 0 -0.00506405)
(0.0851496 0 -0.00501642)
(0.0844925 0 -0.00495918)
(0.0837103 0 -0.00489192)
(0.0827946 0 -0.00481459)
(0.0857642 0 -0.00450858)
(0.0855984 0 -0.00449688)
(0.085349 0 -0.00447824)
(0.0850096 0 -0.00445225)
(0.0845727 0 -0.00441854)
(0.0840302 0 -0.0043767)
(0.0833734 0 -0.00432636)
(0.0825925 0 -0.00426717)
(0.0816794 0 -0.00419908)
(0.0847731 0 -0.00378188)
(0.0846046 0 -0.00377208)
(0.084353 0 -0.00375637)
(0.0840118 0 -0.00373442)
(0.0835736 0 -0.00370589)
(0.0830306 0 -0.00367045)
(0.0823739 0 -0.00362777)
(0.081594 0 -0.00357756)
(0.080683 0 -0.0035198)
(0.0839334 0 -0.00297724)
(0.0837626 0 -0.00296949)
(0.0835091 0 -0.00295702)
(0.0831663 0 -0.00293955)
(0.082727 0 -0.00291681)
(0.0821833 0 -0.00288855)
(0.0815266 0 -0.0028545)
(0.0807473 0 -0.00281443)
(0.0798378 0 -0.00276833)
(0.0832815 0 -0.00208304)
(0.083109 0 -0.00207756)
(0.0828539 0 -0.00206872)
(0.0825098 0 -0.00205633)
(0.0820696 0 -0.00204018)
(0.0815252 0 -0.00202009)
(0.0808683 0 -0.00199589)
(0.0800893 0 -0.00196741)
(0.0791808 0 -0.00193465)
(0.0828584 0 -0.0010853)
(0.0826847 0 -0.00108241)
(0.0824286 0 -0.00107775)
(0.0820836 0 -0.00107119)
(0.0816426 0 -0.00106266)
(0.0810978 0 -0.00105203)
(0.0804406 0 -0.00103924)
(0.0796617 0 -0.00102418)
(0.0787536 0 -0.00100686)
(0.0827093 0 0)
(0.0825352 0 0)
(0.0822787 0 0)
(0.0819334 0 0)
(0.0814921 0 0)
(0.0809471 0 0)
(0.0802898 0 0)
(0.0795108 0 0)
(0.0786028 0 0)
(0.104591 0 -0.0102716)
(0.103755 0 -0.0101229)
(0.103638 0 -0.0100507)
(0.103424 0 -0.00996802)
(0.103103 0 -0.00987595)
(0.10284 0 -0.00995014)
(0.102718 0 -0.00988834)
(0.102501 0 -0.00981436)
(0.102178 0 -0.00972897)
(0.10174 0 -0.00963234)
(0.101175 0 -0.00952405)
(0.101848 0 -0.00975415)
(0.101724 0 -0.00970085)
(0.101505 0 -0.00963452)
(0.101181 0 -0.00955557)
(0.100745 0 -0.00946405)
(0.100184 0 -0.00935966)
(0.0994888 0 -0.00924171)
(0.0986469 0 -0.00910917)
(0.100787 0 -0.009535)
(0.10066 0 -0.00948866)
(0.100439 0 -0.00942894)
(0.100116 0 -0.00935599)
(0.0996808 0 -0.00926974)
(0.0991246 0 -0.00916987)
(0.0984361 0 -0.00905579)
(0.0976039 0 -0.00892675)
(0.0966171 0 -0.00878208)
(0.0996606 0 -0.00929227)
(0.0995312 0 -0.00925167)
(0.0993087 0 -0.00919765)
(0.0989853 0 -0.00913017)
(0.0985522 0 -0.00904904)
(0.0979999 0 -0.00895392)
(0.0973177 0 -0.0088443)
(0.0964943 0 -0.00871948)
(0.0955186 0 -0.00857898)
(0.0984765 0 -0.00902509)
(0.0983443 0 -0.00898924)
(0.0981201 0 -0.00894016)
(0.0977964 0 -0.00887765)
(0.0973646 0 -0.00880141)
(0.0968155 0 -0.00871106)
(0.0961386 0 -0.00860611)
(0.0953228 0 -0.00848595)
(0.0943571 0 -0.00835016)
(0.0972417 0 -0.00873217)
(0.0971064 0 -0.00870029)
(0.0968803 0 -0.00865551)
(0.096556 0 -0.00859751)
(0.0961251 0 -0.00852591)
(0.0955785 0 -0.00844028)
(0.0949061 0 -0.00834013)
(0.0940968 0 -0.00822489)
(0.0931398 0 -0.00809422)
(0.0959645 0 -0.00841184)
(0.0958259 0 -0.00838332)
(0.0955977 0 -0.00834232)
(0.0952724 0 -0.00828844)
(0.094842 0 -0.00822124)
(0.0942974 0 -0.00814025)
(0.0936287 0 -0.00804497)
(0.092825 0 -0.00793485)
(0.0918757 0 -0.00780961)
(0.0946547 0 -0.00806204)
(0.0945127 0 -0.00803638)
(0.0942821 0 -0.00799875)
(0.0939556 0 -0.00794868)
(0.0935252 0 -0.00788568)
(0.092982 0 -0.00780927)
(0.0923163 0 -0.00771892)
(0.0915174 0 -0.00761409)
(0.0905749 0 -0.00749457)
(0.0933236 0 -0.00768026)
(0.093178 0 -0.0076571)
(0.0929448 0 -0.00762251)
(0.0926168 0 -0.00757601)
(0.0921861 0 -0.00751707)
(0.0916439 0 -0.00744519)
(0.0909807 0 -0.00735984)
(0.0901858 0 -0.0072605)
(0.0892493 0 -0.00714697)
(0.091984 0 -0.00726355)
(0.0918349 0 -0.0072426)
(0.0915989 0 -0.00721083)
(0.0912692 0 -0.00716772)
(0.0908379 0 -0.00711276)
(0.0902963 0 -0.00704542)
(0.089635 0 -0.00696519)
(0.0888436 0 -0.00687154)
(0.0879125 0 -0.00676432)
(0.090651 0 -0.0068084)
(0.0904982 0 -0.00678946)
(0.0902595 0 -0.00676034)
(0.0899279 0 -0.00672054)
(0.0894957 0 -0.00666953)
(0.0889544 0 -0.00660681)
(0.0882947 0 -0.00653186)
(0.0875063 0 -0.00644418)
(0.0865798 0 -0.00634364)
(0.0893416 0 -0.00631068)
(0.0891853 0 -0.0062936)
(0.0889438 0 -0.00626706)
(0.0886103 0 -0.00623054)
(0.088177 0 -0.00618355)
(0.0876357 0 -0.00612559)
(0.0869771 0 -0.00605617)
(0.0861912 0 -0.0059748)
(0.0852689 0 -0.0058814)
(0.0880754 0 -0.00576549)
(0.0879157 0 -0.00575021)
(0.0876714 0 -0.00572622)
(0.0873359 0 -0.00569305)
(0.0869015 0 -0.00565022)
(0.0863599 0 -0.00559725)
(0.0857022 0 -0.00553369)
(0.0849184 0 -0.00545909)
(0.0839996 0 -0.00537338)
(0.0868745 0 -0.00516708)
(0.0867116 0 -0.00515357)
(0.0864647 0 -0.00513219)
(0.0861272 0 -0.0051025)
(0.0856915 0 -0.00506405)
(0.0851496 0 -0.00501642)
(0.0844925 0 -0.00495918)
(0.0837103 0 -0.00489192)
(0.0827946 0 -0.00481459)
(0.0857642 0 -0.00450858)
(0.0855984 0 -0.00449688)
(0.085349 0 -0.00447824)
(0.0850096 0 -0.00445225)
(0.0845727 0 -0.00441854)
(0.0840302 0 -0.0043767)
(0.0833734 0 -0.00432636)
(0.0825925 0 -0.00426717)
(0.0816794 0 -0.00419908)
(0.0847731 0 -0.00378188)
(0.0846046 0 -0.00377208)
(0.084353 0 -0.00375637)
(0.0840118 0 -0.00373442)
(0.0835736 0 -0.00370589)
(0.0830306 0 -0.00367045)
(0.0823739 0 -0.00362777)
(0.081594 0 -0.00357756)
(0.080683 0 -0.0035198)
(0.0839334 0 -0.00297724)
(0.0837626 0 -0.00296949)
(0.0835091 0 -0.00295702)
(0.0831663 0 -0.00293955)
(0.082727 0 -0.00291681)
(0.0821833 0 -0.00288855)
(0.0815266 0 -0.0028545)
(0.0807473 0 -0.00281443)
(0.0798378 0 -0.00276833)
(0.0832815 0 -0.00208304)
(0.083109 0 -0.00207756)
(0.0828539 0 -0.00206872)
(0.0825098 0 -0.00205633)
(0.0820696 0 -0.00204018)
(0.0815252 0 -0.00202009)
(0.0808683 0 -0.00199589)
(0.0800893 0 -0.00196741)
(0.0791808 0 -0.00193465)
(0.0828584 0 -0.0010853)
(0.0826847 0 -0.00108241)
(0.0824286 0 -0.00107775)
(0.0820836 0 -0.00107119)
(0.0816426 0 -0.00106266)
(0.0810978 0 -0.00105203)
(0.0804406 0 -0.00103924)
(0.0796617 0 -0.00102418)
(0.0787536 0 -0.00100686)
(0.0827093 0 0)
(0.0825352 0 0)
(0.0822787 0 0)
(0.0819334 0 0)
(0.0814921 0 0)
(0.0809471 0 0)
(0.0802898 0 0)
(0.0795108 0 0)
(0.0786028 0 0)
)
;

boundaryField
{
    inlet
    {
        type            fixedValue;
        value           nonuniform 0();
    }
    outlet
    {
        type            fixedValue;
        value           nonuniform 0();
    }
    flap
    {
        type            fixedValue;
        value           nonuniform 0();
    }
    upperWall
    {
        type            slip;
    }
    lowerWall
    {
        type            slip;
    }
    frontAndBack
    {
        type            empty;
    }
    procBoundary1to0
    {
        type            processor;
    }
    procBoundary1to2
    {
        type            processor;
    }
    procBoundary1to3
    {
        type            processor;
    }
    procBoundary1to4
    {
        type            processor;
    }
}


// ************************************************************************* //
