/*--------------------------------*- C++ -*----------------------------------*\
| =========                 |                                                 |
| \\      /  F ield         | OpenFOAM: The Open Source CFD Toolbox           |
|  \\    /   O peration     | Version:  dev                                   |
|   \\  /    A nd           | Web:      www.OpenFOAM.org                      |
|    \\/     M anipulation  |                                                 |
\*---------------------------------------------------------------------------*/
FoamFile
{
    version     2.0;
    format      ascii;
    class       pointVectorField;
    location    "1.16";
    object      pointDisplacement;
}
// * * * * * * * * * * * * * * * * * * * * * * * * * * * * * * * * * * * * * //

dimensions      [0 1 0 0 0 0 0];

internalField   nonuniform List<vector> 
1030
(
(0.3538 0 -0.0928687)
(0.346948 0 -0.0897067)
(0.339844 0 -0.0863808)
(0.355757 0 -0.0926063)
(0.348859 0 -0.0896968)
(0.341651 0 -0.0865876)
(0.334059 0 -0.0833068)
(0.325995 0 -0.0798778)
(0.356724 0 -0.091979)
(0.349893 0 -0.0893275)
(0.342683 0 -0.0864451)
(0.335037 0 -0.0833619)
(0.326881 0 -0.080103)
(0.318127 0 -0.0766894)
(0.356772 0 -0.0910427)
(0.350086 0 -0.0886426)
(0.342955 0 -0.0859869)
(0.335332 0 -0.0831059)
(0.327154 0 -0.0800251)
(0.318346 0 -0.0767654)
(0.308823 0 -0.0733442)
(0.298486 0 -0.0697742)
(0.355975 0 -0.0898464)
(0.34949 0 -0.0876827)
(0.342495 0 -0.085246)
(0.334953 0 -0.0825649)
(0.326814 0 -0.079664)
(0.318009 0 -0.0765638)
(0.30846 0 -0.0732811)
(0.298081 0 -0.0698288)
(0.286771 0 -0.066216)
(0.274427 0 -0.0624476)
(0.354409 0 -0.0884309)
(0.348158 0 -0.0864833)
(0.34134 0 -0.0842524)
(0.333925 0 -0.0817637)
(0.325869 0 -0.0790398)
(0.317113 0 -0.0760999)
(0.307587 0 -0.0729599)
(0.297209 0 -0.0696322)
(0.285887 0 -0.0661255)
(0.273523 0 -0.0624448)
(0.260011 0 -0.0585913)
(0.35215 0 -0.0868282)
(0.346148 0 -0.085074)
(0.339533 0 -0.0830324)
(0.332276 0 -0.080725)
(0.324339 0 -0.0781716)
(0.31567 0 -0.0753894)
(0.306203 0 -0.0723929)
(0.295865 0 -0.0691935)
(0.284569 0 -0.0657994)
(0.272222 0 -0.0622152)
(0.258724 0 -0.0584418)
(0.243967 0 -0.0544765)
(0.227838 0 -0.0503116)
(0.349268 0 -0.0850625)
(0.34352 0 -0.0834785)
(0.33712 0 -0.081608)
(0.330041 0 -0.0794687)
(0.32225 0 -0.0770769)
(0.313696 0 -0.0744473)
(0.30432 0 -0.0715925)
(0.294053 0 -0.0685227)
(0.282816 0 -0.0652451)
(0.27052 0 -0.061764)
(0.257069 0 -0.05808)
(0.24236 0 -0.0541901)
(0.226285 0 -0.0500871)
(0.208729 0 -0.0457598)
(0.345831 0 -0.0831506)
(0.340331 0 -0.0817143)
(0.334149 0 -0.0799968)
(0.32726 0 -0.0780112)
(0.31963 0 -0.0757705)
(0.311213 0 -0.0732866)
(0.301954 0 -0.07057)
(0.291786 0 -0.0676292)
(0.280635 0 -0.0644704)
(0.268418 0 -0.0610971)
(0.255044 0 -0.0575096)
(0.240415 0 -0.0537049)
(0.224425 0 -0.049676)
(0.206965 0 -0.0454118)
(0.187919 0 -0.0408974)
(0.167165 0 -0.0361121)
(0.341903 0 -0.0811027)
(0.336638 0 -0.0797938)
(0.330671 0 -0.0782118)
(0.323976 0 -0.0763657)
(0.316518 0 -0.074265)
(0.308252 0 -0.0719189)
(0.299127 0 -0.0693357)
(0.28908 0 -0.066522)
(0.27804 0 -0.0634829)
(0.265928 0 -0.0602208)
(0.252657 0 -0.0567357)
(0.238134 0 -0.0530244)
(0.222259 0 -0.0490801)
(0.204924 0 -0.0448923)
(0.18602 0 -0.0404467)
(0.165429 0 -0.035724)
(0.143032 0 -0.0307009)
(0.337544 0 -0.0789239)
(0.332499 0 -0.0777249)
(0.326738 0 -0.0762623)
(0.320233 0 -0.0745418)
(0.31295 0 -0.07257)
(0.304846 0 -0.0703534)
(0.295869 0 -0.067898)
(0.285959 0 -0.0652088)
(0.27505 0 -0.0622892)
(0.263064 0 -0.0591409)
(0.24992 0 -0.0557631)
(0.235528 0 -0.0521525)
(0.219792 0 -0.0483024)
(0.202611 0 -0.044203)
(0.183878 0 -0.0398405)
(0.16348 0 -0.0351972)
(0.141304 0 -0.030251)
(0.11723 0 -0.0249759)
(0.0911368 0 -0.0193405)
(0.33282 0 -0.0766172)
(0.327972 0 -0.0755116)
(0.322402 0 -0.0741537)
(0.316081 0 -0.072546)
(0.308972 0 -0.0706925)
(0.301032 0 -0.0685971)
(0.292212 0 -0.0662638)
(0.282452 0 -0.0636958)
(0.271688 0 -0.0608951)
(0.259848 0 -0.0578624)
(0.246851 0 -0.0545962)
(0.232612 0 -0.051093)
(0.21704 0 -0.0473461)
(0.200037 0 -0.0433463)
(0.181502 0 -0.0390806)
(0.161326 0 -0.0345326)
(0.139401 0 -0.0296818)
(0.115613 0 -0.0245041)
(0.089847 0 -0.0189711)
(0.0619882 0 -0.0130509)
(0.327784 0 -0.07418)
(0.32311 0 -0.0731541)
(0.317716 0 -0.0718879)
(0.311567 0 -0.0703815)
(0.304628 0 -0.0686364)
(0.296853 0 -0.0666545)
(0.288194 0 -0.0644377)
(0.278593 0 -0.0619876)
(0.267986 0 -0.0593049)
(0.256305 0 -0.0563893)
(0.243473 0 -0.0532387)
(0.229407 0 -0.049849)
(0.21402 0 -0.0462141)
(0.197218 0 -0.0423247)
(0.178905 0 -0.038169)
(0.158978 0 -0.0337317)
(0.137332 0 -0.028994)
(0.11386 0 -0.0239338)
(0.0884531 0 -0.0185253)
(0.0610026 0 -0.0127395)
(0.0313692 0 -0.00653773)
(0.322488 0 -0.071606)
(0.31797 0 -0.0706488)
(0.312732 0 -0.0694631)
(0.306743 0 -0.068048)
(0.299965 0 -0.0664027)
(0.292353 0 -0.0645273)
(0.283856 0 -0.0624219)
(0.274419 0 -0.0600868)
(0.263979 0 -0.0575213)
(0.252469 0 -0.0547243)
(0.239815 0 -0.0516929)
(0.225938 0 -0.0484231)
(0.210755 0 -0.0449084)
(0.194175 0 -0.0411402)
(0.176106 0 -0.0371075)
(0.156451 0 -0.032796)
(0.13511 0 -0.0281888)
(0.111981 0 -0.0232658)
(0.0869622 0 -0.0180035)
(0.0599513 0 -0.012376)
(0.0308175 0 -0.00634839)
(0 0 0)
(0.316984 0 -0.0688861)
(0.312599 0 -0.0679874)
(0.307502 0 -0.0668738)
(0.301661 0 -0.0655418)
(0.295036 0 -0.0639892)
(0.28758 0 -0.0622144)
(0.279244 0 -0.0602163)
(0.269973 0 -0.0579937)
(0.259705 0 -0.0555451)
(0.248374 0 -0.0528683)
(0.23591 0 -0.0499602)
(0.222236 0 -0.0468162)
(0.207272 0 -0.0434302)
(0.190931 0 -0.039794)
(0.173126 0 -0.0358971)
(0.153764 0 -0.0317267)
(0.132751 0 -0.0272674)
(0.10999 0 -0.0225009)
(0.085385 0 -0.0174064)
(0.0588411 0 -0.0119607)
(0.0302362 0 -0.00613264)
(0 0 0)
(0.311317 0 -0.0660061)
(0.307051 0 -0.0651595)
(0.302082 0 -0.0641117)
(0.296374 0 -0.0628561)
(0.289891 0 -0.0613904)
(0.282585 0 -0.0597118)
(0.274407 0 -0.0578178)
(0.265302 0 -0.0557062)
(0.255208 0 -0.0533748)
(0.244063 0 -0.0508205)
(0.231797 0 -0.0480399)
(0.218337 0 -0.0450283)
(0.203604 0 -0.0417796)
(0.187518 0 -0.0382862)
(0.169993 0 -0.0345383)
(0.150942 0 -0.0305243)
(0.130276 0 -0.0262302)
(0.107903 0 -0.0216398)
(0.0837343 0 -0.0167345)
(0.0576808 0 -0.011494)
(0.0296295 0 -0.00589061)
(0 0 0)
(0.305541 0 -0.0629498)
(0.30138 0 -0.0621512)
(0.296524 0 -0.0611633)
(0.290938 0 -0.0599802)
(0.284587 0 -0.0585976)
(0.277424 0 -0.057012)
(0.269398 0 -0.0552203)
(0.260456 0 -0.0532193)
(0.250538 0 -0.0510062)
(0.239581 0 -0.0485775)
(0.227519 0 -0.0459295)
(0.214279 0 -0.0430572)
(0.199788 0 -0.039955)
(0.183967 0 -0.0366156)
(0.166735 0 -0.0330301)
(0.14801 0 -0.029188)
(0.127707 0 -0.0250769)
(0.10574 0 -0.0206823)
(0.0820251 0 -0.015988)
(0.0564809 0 -0.0109761)
(0.0290029 0 -0.00562245)
(0 0 0)
(0.299708 0 -0.0596965)
(0.295637 0 -0.0589432)
(0.290885 0 -0.0580132)
(0.285412 0 -0.0569003)
(0.279182 0 -0.0555983)
(0.272153 0 -0.0541043)
(0.264274 0 -0.0524143)
(0.255491 0 -0.0505248)
(0.245747 0 -0.0484324)
(0.234979 0 -0.0461333)
(0.223123 0 -0.0436237)
(0.210109 0 -0.0408987)
(0.195865 0 -0.0379528)
(0.180318 0 -0.0347794)
(0.163389 0 -0.0313703)
(0.145 0 -0.0277163)
(0.125071 0 -0.0238063)
(0.103522 0 -0.0196277)
(0.0802744 0 -0.0151663)
(0.0552533 0 -0.0104068)
(0.0283626 0 -0.0053281)
(0 0 0)
(0.293884 0 -0.0562238)
(0.289888 0 -0.0555157)
(0.285229 0 -0.0546424)
(0.279858 0 -0.0535975)
(0.27374 0 -0.052376)
(0.266836 0 -0.0509737)
(0.259096 0 -0.0493866)
(0.250467 0 -0.0476108)
(0.240893 0 -0.0456428)
(0.230312 0 -0.0434788)
(0.218662 0 -0.0411146)
(0.205875 0 -0.0385458)
(0.191882 0 -0.0357671)
(0.176612 0 -0.0327726)
(0.159991 0 -0.0295549)
(0.141945 0 -0.0261059)
(0.122397 0 -0.0224159)
(0.101274 0 -0.0184741)
(0.0785013 0 -0.0142682)
(0.0540111 0 -0.00978526)
(0.0277154 0 -0.00500724)
(0 0 0)
(0.288133 0 -0.052506)
(0.284199 0 -0.0518427)
(0.279618 0 -0.0510256)
(0.274342 0 -0.05005)
(0.268329 0 -0.0489105)
(0.261539 0 -0.0476013)
(0.25393 0 -0.0461196)
(0.245449 0 -0.0444615)
(0.236039 0 -0.0426232)
(0.225641 0 -0.040601)
(0.214194 0 -0.0383908)
(0.201633 0 -0.0359886)
(0.18789 0 -0.0333894)
(0.172898 0 -0.0305878)
(0.156586 0 -0.0275777)
(0.138883 0 -0.0243517)
(0.119719 0 -0.0209017)
(0.0990227 0 -0.0172184)
(0.0767273 0 -0.0132916)
(0.0527692 0 -0.00911022)
(0.0270688 0 -0.00465924)
(0 0 0)
(0.282524 0 -0.0485097)
(0.278639 0 -0.0478924)
(0.274128 0 -0.0471348)
(0.268939 0 -0.0462312)
(0.26302 0 -0.0451752)
(0.256335 0 -0.0439624)
(0.248848 0 -0.0425907)
(0.240506 0 -0.0410561)
(0.231254 0 -0.0393547)
(0.221033 0 -0.0374829)
(0.209783 0 -0.0354371)
(0.197442 0 -0.0332134)
(0.183946 0 -0.0308076)
(0.169228 0 -0.0282148)
(0.153221 0 -0.0254299)
(0.135858 0 -0.0224465)
(0.117073 0 -0.0192579)
(0.0967997 0 -0.0158563)
(0.0749759 0 -0.0122332)
(0.0515438 0 -0.00837962)
(0.0264314 0 -0.00428311)
(0 0 0)
(0.277135 0 -0.044196)
(0.273291 0 -0.0436279)
(0.268838 0 -0.0429327)
(0.263721 0 -0.0421033)
(0.257886 0 -0.0411352)
(0.251301 0 -0.0400259)
(0.243928 0 -0.0387715)
(0.235717 0 -0.0373684)
(0.226613 0 -0.0358132)
(0.21656 0 -0.0341028)
(0.205499 0 -0.0322337)
(0.193371 0 -0.0302028)
(0.180112 0 -0.0280062)
(0.165659 0 -0.02564)
(0.149949 0 -0.0230998)
(0.132917 0 -0.0203805)
(0.1145 0 -0.0174765)
(0.0946386 0 -0.0143814)
(0.0732736 0 -0.0110885)
(0.0503531 0 -0.00759057)
(0.0258123 0 -0.00387745)
(0 0 0)
(0.272052 0 -0.0395195)
(0.268239 0 -0.039004)
(0.26383 0 -0.0383747)
(0.258776 0 -0.037625)
(0.253024 0 -0.0367533)
(0.24653 0 -0.0357559)
(0.239259 0 -0.0346274)
(0.231167 0 -0.033366)
(0.2222 0 -0.0319687)
(0.212304 0 -0.0304329)
(0.201421 0 -0.0287556)
(0.189492 0 -0.026934)
(0.176458 0 -0.0249652)
(0.162257 0 -0.022846)
(0.146829 0 -0.0205726)
(0.130112 0 -0.0181412)
(0.112047 0 -0.0155473)
(0.0925771 0 -0.0127859)
(0.0716498 0 -0.00985174)
(0.0492173 0 -0.00673924)
(0.0252218 0 -0.00344038)
(0 0 0)
(0.267372 0 -0.0344257)
(0.263581 0 -0.0339679)
(0.259209 0 -0.0334113)
(0.25421 0 -0.0327512)
(0.248532 0 -0.0319849)
(0.242118 0 -0.0311075)
(0.234936 0 -0.0301157)
(0.22695 0 -0.0290088)
(0.218108 0 -0.0277841)
(0.208355 0 -0.0264392)
(0.197634 0 -0.0249716)
(0.18589 0 -0.0233793)
(0.173063 0 -0.0216599)
(0.159095 0 -0.0198108)
(0.143927 0 -0.0178294)
(0.127502 0 -0.0157127)
(0.109763 0 -0.0134573)
(0.0906581 0 -0.0110595)
(0.0701377 0 -0.00851539)
(0.0481593 0 -0.00582075)
(0.0246716 0 -0.00296951)
(0 0 0)
(0.263199 0 -0.0288449)
(0.259428 0 -0.0284531)
(0.255088 0 -0.0279787)
(0.250135 0 -0.0274182)
(0.244514 0 -0.0267676)
(0.238169 0 -0.026023)
(0.231067 0 -0.0251834)
(0.223175 0 -0.0242478)
(0.214442 0 -0.023214)
(0.204814 0 -0.0220799)
(0.194238 0 -0.020844)
(0.182657 0 -0.0195044)
(0.170014 0 -0.0180596)
(0.156254 0 -0.0165078)
(0.141319 0 -0.0148471)
(0.125155 0 -0.0130755)
(0.107709 0 -0.0111906)
(0.0889302 0 -0.00918982)
(0.0687749 0 -0.00707028)
(0.0472048 0 -0.00482912)
(0.024175 0 -0.00246189)
(0 0 0)
(0.259662 0 -0.0226942)
(0.255906 0 -0.022379)
(0.25159 0 -0.0219981)
(0.246673 0 -0.0215487)
(0.241098 0 -0.0210273)
(0.23481 0 -0.0204333)
(0.227776 0 -0.0197665)
(0.219963 0 -0.0190237)
(0.211321 0 -0.0182035)
(0.201799 0 -0.0173049)
(0.191343 0 -0.0163267)
(0.1799 0 -0.0152679)
(0.167413 0 -0.0141276)
(0.153829 0 -0.0129048)
(0.139091 0 -0.0115981)
(0.123149 0 -0.0102065)
(0.10595 0 -0.00872826)
(0.0874496 0 -0.00716187)
(0.0676055 0 -0.00550547)
(0.0463844 0 -0.00375718)
(0.0237475 0 -0.001914)
(0 0 0)
(0.25691 0 -0.0158766)
(0.253162 0 -0.0156503)
(0.248862 0 -0.0153775)
(0.243968 0 -0.0150558)
(0.23843 0 -0.0146828)
(0.232193 0 -0.0142614)
(0.225213 0 -0.013791)
(0.217457 0 -0.0132663)
(0.208884 0 -0.0126873)
(0.199442 0 -0.0120537)
(0.189079 0 -0.011365)
(0.177742 0 -0.0106207)
(0.165376 0 -0.00982038)
(0.151927 0 -0.00896356)
(0.137343 0 -0.00804966)
(0.121573 0 -0.00707802)
(0.104567 0 -0.00604785)
(0.0862828 0 -0.00495825)
(0.0666816 0 -0.00380821)
(0.0457341 0 -0.00259666)
(0.0234077 0 -0.00132181)
(0 0 0)
(0.255113 0 -0.00827408)
(0.25137 0 -0.00815322)
(0.24708 0 -0.00800795)
(0.2422 0 -0.00783699)
(0.236687 0 -0.00763935)
(0.230486 0 -0.0074171)
(0.22354 0 -0.00716936)
(0.215819 0 -0.00689317)
(0.207289 0 -0.00658888)
(0.197899 0 -0.00625631)
(0.187596 0 -0.00589532)
(0.176327 0 -0.00550578)
(0.164038 0 -0.00508755)
(0.150678 0 -0.0046405)
(0.136193 0 -0.00416442)
(0.120534 0 -0.00365909)
(0.103653 0 -0.00312421)
(0.0855099 0 -0.0025594)
(0.0660672 0 -0.00196426)
(0.0452992 0 -0.00133834)
(0.023179 0 -0.000680814)
(0 0 0)
(0.254476 0 0)
(0.250735 0 0)
(0.246448 0 0)
(0.241574 0 0)
(0.23607 0 0)
(0.229879 0 0)
(0.222945 0 0)
(0.215237 0 0)
(0.206723 0 0)
(0.19735 0 0)
(0.187068 0 0)
(0.175823 0 0)
(0.163563 0 0)
(0.150233 0 0)
(0.135784 0 0)
(0.120164 0 0)
(0.103329 0 0)
(0.0852354 0 0)
(0.0658497 0 0)
(0.0451465 0 0)
(0.0231022 0 0)
(0 0 0)
(0.3538 0 -0.0928687)
(0.346948 0 -0.0897067)
(0.339844 0 -0.0863808)
(0.355757 0 -0.0926063)
(0.348859 0 -0.0896968)
(0.341651 0 -0.0865876)
(0.334059 0 -0.0833068)
(0.325995 0 -0.0798778)
(0.356724 0 -0.091979)
(0.349893 0 -0.0893275)
(0.342683 0 -0.0864451)
(0.335037 0 -0.0833619)
(0.326881 0 -0.080103)
(0.318127 0 -0.0766894)
(0.356772 0 -0.0910427)
(0.350086 0 -0.0886426)
(0.342955 0 -0.0859869)
(0.335332 0 -0.0831059)
(0.327154 0 -0.0800251)
(0.318346 0 -0.0767654)
(0.308823 0 -0.0733442)
(0.298486 0 -0.0697742)
(0.355975 0 -0.0898464)
(0.34949 0 -0.0876827)
(0.342495 0 -0.085246)
(0.334953 0 -0.0825649)
(0.326814 0 -0.079664)
(0.318009 0 -0.0765638)
(0.30846 0 -0.0732811)
(0.298081 0 -0.0698288)
(0.286771 0 -0.066216)
(0.274427 0 -0.0624476)
(0.354409 0 -0.0884309)
(0.348158 0 -0.0864833)
(0.34134 0 -0.0842524)
(0.333925 0 -0.0817637)
(0.325869 0 -0.0790398)
(0.317113 0 -0.0760999)
(0.307587 0 -0.0729599)
(0.297209 0 -0.0696322)
(0.285887 0 -0.0661255)
(0.273523 0 -0.0624448)
(0.260011 0 -0.0585913)
(0.35215 0 -0.0868282)
(0.346148 0 -0.085074)
(0.339533 0 -0.0830324)
(0.332276 0 -0.080725)
(0.324339 0 -0.0781716)
(0.31567 0 -0.0753894)
(0.306203 0 -0.0723929)
(0.295865 0 -0.0691935)
(0.284569 0 -0.0657994)
(0.272222 0 -0.0622152)
(0.258724 0 -0.0584418)
(0.243967 0 -0.0544765)
(0.227838 0 -0.0503116)
(0.349268 0 -0.0850625)
(0.34352 0 -0.0834785)
(0.33712 0 -0.081608)
(0.330041 0 -0.0794687)
(0.32225 0 -0.0770769)
(0.313696 0 -0.0744473)
(0.30432 0 -0.0715925)
(0.294053 0 -0.0685227)
(0.282816 0 -0.0652451)
(0.27052 0 -0.061764)
(0.257069 0 -0.05808)
(0.24236 0 -0.0541901)
(0.226285 0 -0.0500871)
(0.208729 0 -0.0457598)
(0.345831 0 -0.0831506)
(0.340331 0 -0.0817143)
(0.334149 0 -0.0799968)
(0.32726 0 -0.0780112)
(0.31963 0 -0.0757705)
(0.311213 0 -0.0732866)
(0.301954 0 -0.07057)
(0.291786 0 -0.0676292)
(0.280635 0 -0.0644704)
(0.268418 0 -0.0610971)
(0.255044 0 -0.0575096)
(0.240415 0 -0.0537049)
(0.224425 0 -0.049676)
(0.206965 0 -0.0454118)
(0.187919 0 -0.0408974)
(0.167165 0 -0.0361121)
(0.341903 0 -0.0811027)
(0.336638 0 -0.0797938)
(0.330671 0 -0.0782118)
(0.323976 0 -0.0763657)
(0.316518 0 -0.074265)
(0.308252 0 -0.0719189)
(0.299127 0 -0.0693357)
(0.28908 0 -0.066522)
(0.27804 0 -0.0634829)
(0.265928 0 -0.0602208)
(0.252657 0 -0.0567357)
(0.238134 0 -0.0530244)
(0.222259 0 -0.0490801)
(0.204924 0 -0.0448923)
(0.18602 0 -0.0404467)
(0.165429 0 -0.035724)
(0.143032 0 -0.0307009)
(0.337544 0 -0.0789239)
(0.332499 0 -0.0777249)
(0.326738 0 -0.0762623)
(0.320233 0 -0.0745418)
(0.31295 0 -0.07257)
(0.304846 0 -0.0703534)
(0.295869 0 -0.067898)
(0.285959 0 -0.0652088)
(0.27505 0 -0.0622892)
(0.263064 0 -0.0591409)
(0.24992 0 -0.0557631)
(0.235528 0 -0.0521525)
(0.219792 0 -0.0483024)
(0.202611 0 -0.044203)
(0.183878 0 -0.0398405)
(0.16348 0 -0.0351972)
(0.141304 0 -0.030251)
(0.11723 0 -0.0249759)
(0.0911368 0 -0.0193405)
(0.33282 0 -0.0766172)
(0.327972 0 -0.0755116)
(0.322402 0 -0.0741537)
(0.316081 0 -0.072546)
(0.308972 0 -0.0706925)
(0.301032 0 -0.0685971)
(0.292212 0 -0.0662638)
(0.282452 0 -0.0636958)
(0.271688 0 -0.0608951)
(0.259848 0 -0.0578624)
(0.246851 0 -0.0545962)
(0.232612 0 -0.051093)
(0.21704 0 -0.0473461)
(0.200037 0 -0.0433463)
(0.181502 0 -0.0390806)
(0.161326 0 -0.0345326)
(0.139401 0 -0.0296818)
(0.115613 0 -0.0245041)
(0.089847 0 -0.0189711)
(0.0619882 0 -0.0130509)
(0.327784 0 -0.07418)
(0.32311 0 -0.0731541)
(0.317716 0 -0.0718879)
(0.311567 0 -0.0703815)
(0.304628 0 -0.0686364)
(0.296853 0 -0.0666545)
(0.288194 0 -0.0644377)
(0.278593 0 -0.0619876)
(0.267986 0 -0.0593049)
(0.256305 0 -0.0563893)
(0.243473 0 -0.0532387)
(0.229407 0 -0.049849)
(0.21402 0 -0.0462141)
(0.197218 0 -0.0423247)
(0.178905 0 -0.038169)
(0.158978 0 -0.0337317)
(0.137332 0 -0.028994)
(0.11386 0 -0.0239338)
(0.0884531 0 -0.0185253)
(0.0610026 0 -0.0127395)
(0.0313692 0 -0.00653773)
(0.322488 0 -0.071606)
(0.31797 0 -0.0706488)
(0.312732 0 -0.0694631)
(0.306743 0 -0.068048)
(0.299965 0 -0.0664027)
(0.292353 0 -0.0645273)
(0.283856 0 -0.0624219)
(0.274419 0 -0.0600868)
(0.263979 0 -0.0575213)
(0.252469 0 -0.0547243)
(0.239815 0 -0.0516929)
(0.225938 0 -0.0484231)
(0.210755 0 -0.0449084)
(0.194175 0 -0.0411402)
(0.176106 0 -0.0371075)
(0.156451 0 -0.032796)
(0.13511 0 -0.0281888)
(0.111981 0 -0.0232658)
(0.0869622 0 -0.0180035)
(0.0599513 0 -0.012376)
(0.0308175 0 -0.00634839)
(0 0 0)
(0.316984 0 -0.0688861)
(0.312599 0 -0.0679874)
(0.307502 0 -0.0668738)
(0.301661 0 -0.0655418)
(0.295036 0 -0.0639892)
(0.28758 0 -0.0622144)
(0.279244 0 -0.0602163)
(0.269973 0 -0.0579937)
(0.259705 0 -0.0555451)
(0.248374 0 -0.0528683)
(0.23591 0 -0.0499602)
(0.222236 0 -0.0468162)
(0.207272 0 -0.0434302)
(0.190931 0 -0.039794)
(0.173126 0 -0.0358971)
(0.153764 0 -0.0317267)
(0.132751 0 -0.0272674)
(0.10999 0 -0.0225009)
(0.085385 0 -0.0174064)
(0.0588411 0 -0.0119607)
(0.0302362 0 -0.00613264)
(0 0 0)
(0.311317 0 -0.0660061)
(0.307051 0 -0.0651595)
(0.302082 0 -0.0641117)
(0.296374 0 -0.0628561)
(0.289891 0 -0.0613904)
(0.282585 0 -0.0597118)
(0.274407 0 -0.0578178)
(0.265302 0 -0.0557062)
(0.255208 0 -0.0533748)
(0.244063 0 -0.0508205)
(0.231797 0 -0.0480399)
(0.218337 0 -0.0450283)
(0.203604 0 -0.0417796)
(0.187518 0 -0.0382862)
(0.169993 0 -0.0345383)
(0.150942 0 -0.0305243)
(0.130276 0 -0.0262302)
(0.107903 0 -0.0216398)
(0.0837343 0 -0.0167345)
(0.0576808 0 -0.011494)
(0.0296295 0 -0.00589061)
(0 0 0)
(0.305541 0 -0.0629498)
(0.30138 0 -0.0621512)
(0.296524 0 -0.0611633)
(0.290938 0 -0.0599802)
(0.284587 0 -0.0585976)
(0.277424 0 -0.057012)
(0.269398 0 -0.0552203)
(0.260456 0 -0.0532193)
(0.250538 0 -0.0510062)
(0.239581 0 -0.0485775)
(0.227519 0 -0.0459295)
(0.214279 0 -0.0430572)
(0.199788 0 -0.039955)
(0.183967 0 -0.0366156)
(0.166735 0 -0.0330301)
(0.14801 0 -0.029188)
(0.127707 0 -0.0250769)
(0.10574 0 -0.0206823)
(0.0820251 0 -0.015988)
(0.0564809 0 -0.0109761)
(0.0290029 0 -0.00562245)
(0 0 0)
(0.299708 0 -0.0596965)
(0.295637 0 -0.0589432)
(0.290885 0 -0.0580132)
(0.285412 0 -0.0569003)
(0.279182 0 -0.0555983)
(0.272153 0 -0.0541043)
(0.264274 0 -0.0524143)
(0.255491 0 -0.0505248)
(0.245747 0 -0.0484324)
(0.234979 0 -0.0461333)
(0.223123 0 -0.0436237)
(0.210109 0 -0.0408987)
(0.195865 0 -0.0379528)
(0.180318 0 -0.0347794)
(0.163389 0 -0.0313703)
(0.145 0 -0.0277163)
(0.125071 0 -0.0238063)
(0.103522 0 -0.0196277)
(0.0802744 0 -0.0151663)
(0.0552533 0 -0.0104068)
(0.0283626 0 -0.0053281)
(0 0 0)
(0.293884 0 -0.0562238)
(0.289888 0 -0.0555157)
(0.285229 0 -0.0546424)
(0.279858 0 -0.0535975)
(0.27374 0 -0.052376)
(0.266836 0 -0.0509737)
(0.259096 0 -0.0493866)
(0.250467 0 -0.0476108)
(0.240893 0 -0.0456428)
(0.230312 0 -0.0434788)
(0.218662 0 -0.0411146)
(0.205875 0 -0.0385458)
(0.191882 0 -0.0357671)
(0.176612 0 -0.0327726)
(0.159991 0 -0.0295549)
(0.141945 0 -0.0261059)
(0.122397 0 -0.0224159)
(0.101274 0 -0.0184741)
(0.0785013 0 -0.0142682)
(0.0540111 0 -0.00978526)
(0.0277154 0 -0.00500724)
(0 0 0)
(0.288133 0 -0.052506)
(0.284199 0 -0.0518427)
(0.279618 0 -0.0510256)
(0.274342 0 -0.05005)
(0.268329 0 -0.0489105)
(0.261539 0 -0.0476013)
(0.25393 0 -0.0461196)
(0.245449 0 -0.0444615)
(0.236039 0 -0.0426232)
(0.225641 0 -0.040601)
(0.214194 0 -0.0383908)
(0.201633 0 -0.0359886)
(0.18789 0 -0.0333894)
(0.172898 0 -0.0305878)
(0.156586 0 -0.0275777)
(0.138883 0 -0.0243517)
(0.119719 0 -0.0209017)
(0.0990227 0 -0.0172184)
(0.0767273 0 -0.0132916)
(0.0527692 0 -0.00911022)
(0.0270688 0 -0.00465924)
(0 0 0)
(0.282524 0 -0.0485097)
(0.278639 0 -0.0478924)
(0.274128 0 -0.0471348)
(0.268939 0 -0.0462312)
(0.26302 0 -0.0451752)
(0.256335 0 -0.0439624)
(0.248848 0 -0.0425907)
(0.240506 0 -0.0410561)
(0.231254 0 -0.0393547)
(0.221033 0 -0.0374829)
(0.209783 0 -0.0354371)
(0.197442 0 -0.0332134)
(0.183946 0 -0.0308076)
(0.169228 0 -0.0282148)
(0.153221 0 -0.0254299)
(0.135858 0 -0.0224465)
(0.117073 0 -0.0192579)
(0.0967997 0 -0.0158563)
(0.0749759 0 -0.0122332)
(0.0515438 0 -0.00837962)
(0.0264314 0 -0.00428311)
(0 0 0)
(0.277135 0 -0.044196)
(0.273291 0 -0.0436279)
(0.268838 0 -0.0429327)
(0.263721 0 -0.0421033)
(0.257886 0 -0.0411352)
(0.251301 0 -0.0400259)
(0.243928 0 -0.0387715)
(0.235717 0 -0.0373684)
(0.226613 0 -0.0358132)
(0.21656 0 -0.0341028)
(0.205499 0 -0.0322337)
(0.193371 0 -0.0302028)
(0.180112 0 -0.0280062)
(0.165659 0 -0.02564)
(0.149949 0 -0.0230998)
(0.132917 0 -0.0203805)
(0.1145 0 -0.0174765)
(0.0946386 0 -0.0143814)
(0.0732736 0 -0.0110885)
(0.0503531 0 -0.00759057)
(0.0258123 0 -0.00387745)
(0 0 0)
(0.272052 0 -0.0395195)
(0.268239 0 -0.039004)
(0.26383 0 -0.0383747)
(0.258776 0 -0.037625)
(0.253024 0 -0.0367533)
(0.24653 0 -0.0357559)
(0.239259 0 -0.0346274)
(0.231167 0 -0.033366)
(0.2222 0 -0.0319687)
(0.212304 0 -0.0304329)
(0.201421 0 -0.0287556)
(0.189492 0 -0.026934)
(0.176458 0 -0.0249652)
(0.162257 0 -0.022846)
(0.146829 0 -0.0205726)
(0.130112 0 -0.0181412)
(0.112047 0 -0.0155473)
(0.0925771 0 -0.0127859)
(0.0716498 0 -0.00985174)
(0.0492173 0 -0.00673924)
(0.0252218 0 -0.00344038)
(0 0 0)
(0.267372 0 -0.0344257)
(0.263581 0 -0.0339679)
(0.259209 0 -0.0334113)
(0.25421 0 -0.0327512)
(0.248532 0 -0.0319849)
(0.242118 0 -0.0311075)
(0.234936 0 -0.0301157)
(0.22695 0 -0.0290088)
(0.218108 0 -0.0277841)
(0.208355 0 -0.0264392)
(0.197634 0 -0.0249716)
(0.18589 0 -0.0233793)
(0.173063 0 -0.0216599)
(0.159095 0 -0.0198108)
(0.143927 0 -0.0178294)
(0.127502 0 -0.0157127)
(0.109763 0 -0.0134573)
(0.0906581 0 -0.0110595)
(0.0701377 0 -0.00851539)
(0.0481593 0 -0.00582075)
(0.0246716 0 -0.00296951)
(0 0 0)
(0.263199 0 -0.0288449)
(0.259428 0 -0.0284531)
(0.255088 0 -0.0279787)
(0.250135 0 -0.0274182)
(0.244514 0 -0.0267676)
(0.238169 0 -0.026023)
(0.231067 0 -0.0251834)
(0.223175 0 -0.0242478)
(0.214442 0 -0.023214)
(0.204814 0 -0.0220799)
(0.194238 0 -0.020844)
(0.182657 0 -0.0195044)
(0.170014 0 -0.0180596)
(0.156254 0 -0.0165078)
(0.141319 0 -0.0148471)
(0.125155 0 -0.0130755)
(0.107709 0 -0.0111906)
(0.0889302 0 -0.00918982)
(0.0687749 0 -0.00707028)
(0.0472048 0 -0.00482912)
(0.024175 0 -0.00246189)
(0 0 0)
(0.259662 0 -0.0226942)
(0.255906 0 -0.022379)
(0.25159 0 -0.0219981)
(0.246673 0 -0.0215487)
(0.241098 0 -0.0210273)
(0.23481 0 -0.0204333)
(0.227776 0 -0.0197665)
(0.219963 0 -0.0190237)
(0.211321 0 -0.0182035)
(0.201799 0 -0.0173049)
(0.191343 0 -0.0163267)
(0.1799 0 -0.0152679)
(0.167413 0 -0.0141276)
(0.153829 0 -0.0129048)
(0.139091 0 -0.0115981)
(0.123149 0 -0.0102065)
(0.10595 0 -0.00872826)
(0.0874496 0 -0.00716187)
(0.0676055 0 -0.00550547)
(0.0463844 0 -0.00375718)
(0.0237475 0 -0.001914)
(0 0 0)
(0.25691 0 -0.0158766)
(0.253162 0 -0.0156503)
(0.248862 0 -0.0153775)
(0.243968 0 -0.0150558)
(0.23843 0 -0.0146828)
(0.232193 0 -0.0142614)
(0.225213 0 -0.013791)
(0.217457 0 -0.0132663)
(0.208884 0 -0.0126873)
(0.199442 0 -0.0120537)
(0.189079 0 -0.011365)
(0.177742 0 -0.0106207)
(0.165376 0 -0.00982038)
(0.151927 0 -0.00896356)
(0.137343 0 -0.00804966)
(0.121573 0 -0.00707802)
(0.104567 0 -0.00604785)
(0.0862828 0 -0.00495825)
(0.0666816 0 -0.00380821)
(0.0457341 0 -0.00259666)
(0.0234077 0 -0.00132181)
(0 0 0)
(0.255113 0 -0.00827408)
(0.25137 0 -0.00815322)
(0.24708 0 -0.00800795)
(0.2422 0 -0.00783699)
(0.236687 0 -0.00763935)
(0.230486 0 -0.0074171)
(0.22354 0 -0.00716936)
(0.215819 0 -0.00689317)
(0.207289 0 -0.00658888)
(0.197899 0 -0.00625631)
(0.187596 0 -0.00589532)
(0.176327 0 -0.00550578)
(0.164038 0 -0.00508755)
(0.150678 0 -0.0046405)
(0.136193 0 -0.00416442)
(0.120534 0 -0.00365909)
(0.103653 0 -0.00312421)
(0.0855099 0 -0.0025594)
(0.0660672 0 -0.00196426)
(0.0452992 0 -0.00133834)
(0.023179 0 -0.000680814)
(0 0 0)
(0.254476 0 0)
(0.250735 0 0)
(0.246448 0 0)
(0.241574 0 0)
(0.23607 0 0)
(0.229879 0 0)
(0.222945 0 0)
(0.215237 0 0)
(0.206723 0 0)
(0.19735 0 0)
(0.187068 0 0)
(0.175823 0 0)
(0.163563 0 0)
(0.150233 0 0)
(0.135784 0 0)
(0.120164 0 0)
(0.103329 0 0)
(0.0852354 0 0)
(0.0658497 0 0)
(0.0451465 0 0)
(0.0231022 0 0)
(0 0 0)
)
;

boundaryField
{
    inlet
    {
        type            fixedValue;
        value           nonuniform 0();
    }
    outlet
    {
        type            fixedValue;
        value           uniform (0 0 0);
    }
    flap
    {
        type            fixedValue;
        value           nonuniform 0();
    }
    upperWall
    {
        type            slip;
    }
    lowerWall
    {
        type            slip;
    }
    frontAndBack
    {
        type            empty;
    }
    procBoundary2to1
    {
        type            processor;
    }
    procBoundary2to4
    {
        type            processor;
    }
    procBoundary2to5
    {
        type            processor;
    }
}


// ************************************************************************* //
