/*--------------------------------*- C++ -*----------------------------------*\
| =========                 |                                                 |
| \\      /  F ield         | OpenFOAM: The Open Source CFD Toolbox           |
|  \\    /   O peration     | Version:  dev                                   |
|   \\  /    A nd           | Web:      www.OpenFOAM.org                      |
|    \\/     M anipulation  |                                                 |
\*---------------------------------------------------------------------------*/
FoamFile
{
    version     2.0;
    format      ascii;
    class       surfaceScalarField;
    location    "1.05";
    object      phi;
}
// * * * * * * * * * * * * * * * * * * * * * * * * * * * * * * * * * * * * * //

dimensions      [0 3 -1 0 0 0 0];

internalField   nonuniform List<scalar> 
5457
(
0.197832
0.00215987
0.195538
0.00229003
0.193072
0.00247045
0.190381
0.00270209
0.187459
0.00293823
0.184303
0.00317522
0.180905
0.00341855
0.177251
0.00367193
0.173328
0.00393856
0.169115
0.00422207
0.164594
0.00452475
0.159743
0.00484893
0.154539
0.00519689
0.148956
0.0055713
0.142968
0.00597366
0.136545
0.00640629
0.129657
0.00687157
0.122271
0.00737009
0.114355
0.00790219
0.105875
0.00846738
0.0968027
0.00906278
0.0871139
0.00968147
0.0767953
0.0103131
0.0658481
0.0109433
0.0542898
0.0115555
0.0421604
0.0121276
0.0295422
0.0126171
0.0166114
0.0129302
0.00400225
0.0126089
0.00400219
0.199622
0.00252863
0.198637
0.00327158
0.197353
0.00375892
0.195792
0.00427335
0.193949
0.00479822
0.19182
0.0053241
0.189398
0.00586023
0.186676
0.00641358
0.183638
0.0069909
0.18027
0.0076004
0.176553
0.00824614
0.172467
0.00893307
0.16799
0.00966641
0.163099
0.0104506
0.157765
0.0112928
0.151957
0.0121975
0.145645
0.0131672
0.138792
0.0142068
0.131362
0.0153184
0.123315
0.0165023
0.114611
0.0177561
0.105212
0.0190737
0.0950788
0.0204405
0.084186
0.021832
0.0725151
0.0232236
0.0600604
0.0245804
0.0468607
0.0258156
0.0330467
0.0267436
0.0186839
0.0269715
0.022686
0.199478
0.00304086
0.198566
0.00418044
0.197355
0.00497331
0.195893
0.00574662
0.194177
0.00653069
0.192205
0.00731608
0.189972
0.00811402
0.187468
0.00893664
0.18468
0.00979415
0.181595
0.010696
0.178197
0.0116487
0.174468
0.01266
0.170389
0.0137384
0.165937
0.0148917
0.161084
0.016131
0.155801
0.0174637
0.150055
0.018896
0.143808
0.0204377
0.137016
0.0220964
0.129628
0.0238775
0.121591
0.0257829
0.112842
0.027815
0.103306
0.0299709
0.0928985
0.0322354
0.0815153
0.0346038
0.0690236
0.0370701
0.0552502
0.0395877
0.0398865
0.0421066
0.0218151
0.0450426
0.044501
0.199387
0.00364394
0.198478
0.00508512
0.197281
0.00617426
0.195832
0.00720668
0.194139
0.00824048
0.1922
0.00927526
0.190011
0.0103237
0.187562
0.0114048
0.184841
0.0125313
0.181838
0.01371
0.178541
0.0149511
0.174935
0.0162649
0.171003
0.017663
0.166726
0.0191574
0.162081
0.0207617
0.157042
0.0224867
0.151577
0.0243438
0.14565
0.0263486
0.139215
0.0285169
0.132216
0.0308634
0.124583
0.0334055
0.116233
0.036157
0.107059
0.0391383
0.0969264
0.0423638
0.0856612
0.0458657
0.0729867
0.0497423
0.0585006
0.0540723
0.0417181
0.0588883
0.0221082
0.064652
0.0666092
0.19934
0.00429328
0.198423
0.00599773
0.197236
0.00736475
0.1958
0.00865373
0.194127
0.00993031
0.192214
0.0112081
0.190055
0.0125044
0.187639
0.01384
0.184959
0.0152285
0.182002
0.0166779
0.178759
0.0182005
0.175215
0.0198086
0.171355
0.0215165
0.167162
0.0233391
0.162614
0.0252959
0.157683
0.0274012
0.152342
0.0296683
0.146553
0.0321209
0.14027
0.0347843
0.133435
0.0376859
0.125967
0.0408623
0.117765
0.0443503
0.108687
0.04821
0.0985436
0.0525023
0.0871236
0.057282
0.0741254
0.0627378
0.0590557
0.0691403
0.041321
0.076622
0.0212869
0.0846857
0.0878959
0.199317
0.00496589
0.198391
0.00691794
0.197216
0.00854321
0.195801
0.0100796
0.194155
0.011593
0.192273
0.0131105
0.190146
0.0146528
0.187768
0.0162385
0.18513
0.0178835
0.182221
0.0196001
0.179026
0.0214014
0.175534
0.023301
0.171729
0.0253157
0.167594
0.0274647
0.163104
0.0297712
0.158235
0.0322544
0.152954
0.034933
0.14722
0.0378375
0.140986
0.0410034
0.134179
0.0444793
0.126716
0.0483146
0.118485
0.0525722
0.109329
0.0573583
0.0990285
0.0627972
0.0872905
0.0690158
0.0738499
0.0761754
0.0583372
0.0846508
0.0401341
0.0948239
0.0201599
0.104659
0.108056
0.199307
0.00564754
0.198378
0.00784084
0.197217
0.00970728
0.195828
0.0114792
0.194213
0.0132242
0.192366
0.0149785
0.190279
0.0167613
0.187947
0.0185921
0.185359
0.0204895
0.182502
0.02247
0.179364
0.0245477
0.175928
0.0267375
0.17218
0.0290594
0.168098
0.0315378
0.163663
0.034193
0.158846
0.0370555
0.153604
0.0401575
0.147896
0.0435292
0.141664
0.0472202
0.134833
0.0512963
0.127307
0.0558288
0.118946
0.0609235
0.109595
0.0667015
0.099058
0.0733274
0.0870019
0.081067
0.0730967
0.090077
0.0571787
0.100566
0.0387835
0.113218
0.0190642
0.124378
0.12712
0.199306
0.00632935
0.198383
0.00875809
0.19724
0.0108518
0.195879
0.0128506
0.194298
0.014822
0.192491
0.0168063
0.190452
0.018823
0.188172
0.0208934
0.185643
0.0230382
0.182848
0.025279
0.179774
0.0276306
0.176405
0.0301083
0.172723
0.0327379
0.168707
0.0355457
0.164333
0.0385546
0.159568
0.0418053
0.154369
0.04534
0.148686
0.0491956
0.142447
0.0534431
0.135575
0.0581546
0.127968
0.0634232
0.119479
0.069402
0.109916
0.0762556
0.0990634
0.0841726
0.0866828
0.0934419
0.0724099
0.104346
0.0561392
0.116834
0.0375915
0.131763
0.0181625
0.143806
0.145282
0.19931
0.00700611
0.198398
0.00966358
0.197279
0.0119722
0.195951
0.0141889
0.194409
0.0163809
0.192648
0.0185875
0.190664
0.0208307
0.188445
0.0231346
0.185979
0.0255235
0.183254
0.0280201
0.180255
0.0306388
0.176967
0.033401
0.173365
0.0363373
0.169429
0.0394743
0.165128
0.0428438
0.160428
0.0464913
0.155285
0.050466
0.149642
0.0548231
0.143426
0.0596429
0.136541
0.065025
0.128857
0.0710937
0.120249
0.0779988
0.110526
0.0859683
0.0994157
0.0952751
0.0867233
0.106128
0.072165
0.118899
0.0556196
0.133376
0.0369457
0.150435
0.0177407
0.16301
0.163022
0.199318
0.00767419
0.198422
0.0105518
0.197331
0.0130638
0.19604
0.0154896
0.194542
0.0178956
0.192834
0.0203167
0.19091
0.0227785
0.188758
0.0253096
0.186364
0.0279384
0.183718
0.0306827
0.18081
0.0335585
0.177614
0.0366018
0.174107
0.0398434
0.170267
0.0433087
0.16606
0.0470404
0.161449
0.0510881
0.156391
0.0555084
0.150814
0.0603846
0.144645
0.0657963
0.137796
0.0718585
0.130122
0.0787546
0.121454
0.0866539
0.111637
0.095774
0.100417
0.106486
0.087526
0.119011
0.0727396
0.133679
0.0559955
0.150116
0.0372486
0.169179
0.0181095
0.182148
0.181131
0.199331
0.00832797
0.198457
0.0114166
0.197398
0.014124
0.196146
0.0167508
0.194697
0.0193608
0.193048
0.021987
0.191191
0.0246597
0.189113
0.0274111
0.186803
0.03027
0.184252
0.0332523
0.181442
0.0363816
0.178349
0.039701
0.174954
0.0432398
0.171231
0.0470273
0.167141
0.0511211
0.162648
0.0555687
0.157707
0.0604352
0.152249
0.0658267
0.146183
0.0718468
0.139415
0.078611
0.131841
0.0863146
0.123269
0.0952124
0.113494
0.105536
0.102304
0.117666
0.0894003
0.131907
0.0745809
0.148492
0.0578107
0.166881
0.0390744
0.187913
0.0197593
0.201462
0.20089
0.199347
0.00896381
0.1985
0.0122548
0.197474
0.0151499
0.196265
0.0179678
0.194872
0.0207705
0.193288
0.0235921
0.191505
0.0264669
0.189511
0.0294298
0.187297
0.0325075
0.184849
0.03572
0.182146
0.0390987
0.179172
0.0426841
0.175907
0.0465072
0.17232
0.0506111
0.168377
0.0550572
0.164043
0.0598919
0.15926
0.0652047
0.153969
0.0711027
0.148097
0.0777029
0.141523
0.0851706
0.13414
0.0936828
0.125813
0.103525
0.11629
0.115045
0.105379
0.128565
0.0928212
0.144455
0.0783789
0.162927
0.0619033
0.183351
0.0433881
0.206425
0.023656
0.221193
0.224546
0.199365
0.0095805
0.198545
0.0130641
0.197558
0.0161366
0.196399
0.0191346
0.195066
0.0221193
0.193554
0.0251257
0.191853
0.0281932
0.18995
0.0313574
0.187838
0.0346434
0.185503
0.0380762
0.182925
0.0416933
0.180086
0.0455329
0.176972
0.0496267
0.173545
0.0540371
0.169779
0.0588173
0.165641
0.064021
0.161077
0.0697565
0.156023
0.0761431
0.150416
0.0832945
0.144177
0.0913958
0.137163
0.100681
0.129263
0.111409
0.120294
0.124
0.11009
0.138755
0.0984359
0.156098
0.0850315
0.176323
0.0695247
0.198852
0.0519643
0.223982
0.0319093
0.241247
0.256456
0.199385
0.0101752
0.198596
0.0138412
0.197652
0.0170792
0.196549
0.0202454
0.195283
0.0234011
0.193847
0.0265836
0.19223
0.0298346
0.190427
0.0331866
0.188428
0.0366674
0.186218
0.0403079
0.183777
0.0441522
0.181091
0.0482312
0.178144
0.0525807
0.17491
0.0572731
0.17136
0.0623634
0.167453
0.0679212
0.163159
0.0740395
0.15843
0.0808593
0.153191
0.0885196
0.147403
0.0971698
0.140966
0.107103
0.133767
0.118591
0.12574
0.132011
0.116775
0.147706
0.106746
0.166115
0.0954861
0.187574
0.0826138
0.211719
0.0682416
0.238352
0.0492333
0.260254
0.305689
0.199405
0.0107487
0.198647
0.0145854
0.197747
0.0179765
0.196701
0.0212992
0.195502
0.0246156
0.194141
0.0279653
0.192614
0.0313872
0.190915
0.0349121
0.189033
0.0385743
0.186952
0.0424122
0.184657
0.0464675
0.182137
0.050765
0.179371
0.0553562
0.176339
0.0603087
0.173025
0.0656763
0.169392
0.0715484
0.165404
0.0780188
0.161047
0.085206
0.156281
0.0932728
0.15105
0.102387
0.145328
0.112809
0.139083
0.124819
0.13235
0.138727
0.125166
0.154875
0.117653
0.173616
0.110061
0.195156
0.102585
0.219189
0.0958087
0.245125
0.0854145
0.270648
0.391105
0.00738712
-0.00738783
0.0127271
-0.00534345
0.0174162
-0.00470013
0.0214242
-0.00403052
0.0243941
-0.0030026
0.0258785
-0.00152074
0.0256438
0.000200968
0.0238091
0.00180552
0.020631
0.00315215
0.0163899
0.00421901
0.0113569
0.00501563
0.00577665
0.00556485
-0.000111986
0.00587352
-0.00609984
0.0059738
-0.01203
0.00591836
-0.0177414
0.00570305
-0.0230589
0.00531379
-0.0278009
0.00474377
-0.0317899
0.00399667
-0.0348551
0.00307919
-0.0368284
0.00199333
-0.0375176
0.000715021
-0.036652
-0.000834497
-0.0338969
-0.00271946
-0.0289471
-0.00491023
-0.0215002
-0.00740405
-0.0109518
-0.010503
0.00432849
-0.0152329
0.0261324
-0.0217549
-0.0267109
0.00350698
-0.0108956
0.00675425
-0.00859442
0.00931337
-0.00727074
0.0106375
-0.00537754
0.0103478
-0.00274544
0.00848808
0.000303413
0.00539839
0.00325784
0.00131336
0.00586217
-0.00359343
0.0080336
-0.00914165
0.00974518
-0.0151823
0.0110387
-0.0215632
0.0119302
-0.0281427
0.0124376
-0.0347744
0.0125912
-0.0412861
0.012418
-0.0474938
0.0119021
-0.0532217
0.0110377
-0.0582911
0.00981473
-0.0625228
0.00823581
-0.0657403
0.00631045
-0.0677789
0.00405173
-0.0684701
0.00143186
-0.0676356
-0.00163814
-0.0651252
-0.00519433
-0.0607912
-0.00920494
-0.0544615
-0.0136911
-0.0459913
-0.018928
-0.035816
-0.0253609
-0.0250111
-0.0325108
-0.0387684
0.00102019
-0.0119166
0.00160994
-0.00918816
0.00130689
-0.00697953
-0.000311206
-0.00378209
-0.00312776
3.99436e-05
-0.00683075
0.00397293
-0.0112695
0.00766586
-0.0163626
0.0109283
-0.0220014
0.013648
-0.0281029
0.0158248
-0.0345596
0.0174774
-0.0412587
0.0186133
-0.048096
0.019259
-0.0549434
0.0194238
-0.0616488
0.0191108
-0.0680555
0.0182999
-0.0739995
0.0169773
-0.079314
0.0151302
-0.0838331
0.0127618
-0.0873901
0.0098806
-0.0898295
0.00651041
-0.0910205
0.00264788
-0.0908735
-0.00175477
-0.0893349
-0.00669804
-0.0863599
-0.012141
-0.0819635
-0.0180452
-0.0763571
-0.0244895
-0.070176
-0.0314951
-0.0641382
-0.0385
-0.0444401
-0.000973544
-0.010944
-0.00283256
-0.00733334
-0.00565976
-0.00416419
-0.00939395
-6.95078e-05
-0.0137872
0.0044045
-0.0186982
0.00885373
-0.0240678
0.0130075
-0.0298147
0.01665
-0.0358946
0.0197045
-0.0422788
0.0221874
-0.0489194
0.0240996
-0.0557509
0.025428
-0.0626919
0.0261833
-0.0696359
0.0263523
-0.0764533
0.025915
-0.0830023
0.024839
-0.0891327
0.0231025
-0.0946856
0.0206833
-0.0995012
0.0175836
-0.103426
0.0138179
-0.106314
0.00941675
-0.108066
0.00442372
-0.108647
-0.00114435
-0.10806
-0.00725018
-0.106333
-0.0138302
-0.103581
-0.0207557
-0.100104
-0.0279218
-0.0964238
-0.0351287
-0.0930258
-0.0418496
-0.0471975
-0.00272822
-0.00821671
-0.00665687
-0.00340905
-0.0113519
0.000519282
-0.01654
0.00509865
-0.0220686
0.00990764
-0.0278479
0.0146065
-0.033792
0.0189267
-0.0398991
0.0227339
-0.0461945
0.0259777
-0.0526867
0.0286584
-0.0593671
0.030761
-0.0662091
0.0322525
-0.073152
0.0331088
-0.0801054
0.0332893
-0.0869578
0.0327534
-0.0935784
0.0314491
-0.0998252
0.0293432
-0.105553
0.0264104
-0.11061
0.0226458
-0.114863
0.0180826
-0.118191
0.0127622
-0.120509
0.00676513
-0.121806
0.000181155
-0.122107
-0.00691559
-0.121484
-0.0144164
-0.120089
-0.0221097
-0.118213
-0.0297535
-0.116262
-0.0370336
-0.114625
-0.0434397
-0.0482354
-0.00423611
-0.00398162
-0.00979279
0.00214325
-0.0158084
0.00652398
-0.0220513
0.0113237
-0.0283575
0.016192
-0.0346229
0.0208492
-0.0408365
0.0251184
-0.0470638
0.02894
-0.0533817
0.0322745
-0.0598344
0.0350904
-0.0664416
0.037349
-0.0731994
0.0389918
-0.0800662
0.0399573
-0.0869659
0.0401719
-0.0937985
0.0395711
-0.100448
0.0380872
-0.10678
0.0356681
-0.112665
0.0322935
-0.11797
0.0279554
-0.12257
0.0226933
-0.126359
0.016567
-0.129251
0.00967945
-0.131209
0.0021668
-0.132287
-0.00580449
-0.132614
-0.0140537
-0.132331
-0.0223525
-0.13169
-0.0303512
-0.131015
-0.0376638
-0.130629
-0.0437783
-0.0481182
-0.00544411
0.00146144
-0.0122194
0.00891425
-0.0192058
0.0135005
-0.0261129
0.0182156
-0.0327713
0.022832
-0.0391656
0.0272242
-0.0453749
0.0313085
-0.0515152
0.0350607
-0.0576948
0.0384342
-0.0639877
0.0413633
-0.0704323
0.043774
-0.0770357
0.0455762
-0.0837695
0.0466721
-0.0905712
0.0469558
-0.0973485
0.0463329
-0.103999
0.0447257
-0.110407
0.0420677
-0.116448
0.038332
-0.122002
0.0335134
-0.126949
0.0276495
-0.131184
0.0208168
-0.134625
0.0131423
-0.137242
0.0048104
-0.139075
-0.00394065
-0.140239
-0.0128534
-0.140886
-0.0216667
-0.141228
-0.0299672
-0.141531
-0.0373156
-0.142074
-0.0431896
-0.0471642
-0.00635876
0.00781913
-0.0140517
0.0166032
-0.0215902
0.0210302
-0.0286864
0.025299
-0.035285
0.0294154
-0.0414868
0.0334097
-0.0474503
0.0372548
-0.053326
0.0409184
-0.0592382
0.0443276
-0.0652759
0.0473815
-0.071488
0.0499665
-0.077888
0.0519566
-0.0844522
0.0532168
-0.091128
0.0536133
-0.0978386
0.0530273
-0.104491
0.0513649
-0.110982
0.0485507
-0.117197
0.0445439
-0.123019
0.0393377
-0.128332
0.0329705
-0.133031
0.0255302
-0.137034
0.0171654
-0.140297
0.00809821
-0.142833
-0.00137435
-0.14474
-0.0109116
-0.146176
-0.0201924
-0.147319
-0.0287832
-0.148395
-0.0361961
-0.149645
-0.0418934
-0.0455767
-0.0070154
0.0148335
-0.0152523
0.0248366
-0.0228392
0.0286099
-0.0296387
0.032088
-0.035789
0.0355531
-0.0415116
0.0391182
-0.0470209
0.0427488
-0.0524852
0.0463661
-0.0580321
0.0498566
-0.0637493
0.0530798
-0.0696857
0.0558833
-0.0758548
0.0581058
-0.0822348
0.0595771
-0.088781
0.060141
-0.0954305
0.0596604
-0.102101
0.058022
-0.108697
0.055138
-0.115112
0.0509547
-0.121232
0.0454585
-0.126939
0.0386856
-0.132127
0.0307306
-0.136701
0.0217588
-0.1406
0.0120211
-0.143805
0.00185981
-0.146384
-0.00829842
-0.148506
-0.0180337
-0.150318
-0.0269308
-0.152017
-0.0344545
-0.153819
-0.0400457
-0.0435077
-0.00743089
0.0222634
-0.0156866
0.0330892
-0.0227311
0.0356484
-0.0287402
0.0380886
-0.0340916
0.0408939
-0.0390976
0.0441118
-0.0439934
0.0476306
-0.0489449
0.0513021
-0.0540673
0.0549619
-0.0594341
0.0584281
-0.0650782
0.0615082
-0.0710054
0.0640132
-0.0771991
0.0657511
-0.0836238
0.0665471
-0.0902252
0.0662452
-0.0969315
0.0647146
-0.103655
0.0618522
-0.110294
0.057589
-0.116735
0.0518997
-0.122858
0.0448151
-0.128548
0.0364328
-0.133702
0.0269311
-0.138241
0.0165833
-0.142123
0.00576965
-0.145363
-0.00502602
-0.148098
-0.0152623
-0.150484
-0.0245055
-0.152698
-0.0321988
-0.154941
-0.0377581
-0.0410644
-0.00751623
0.0297788
-0.0150871
0.0406576
-0.0209035
0.0414599
-0.0256683
0.0428462
-0.0299499
0.0451663
-0.0340827
0.0482335
-0.0382857
0.0518207
-0.0426884
0.05569
-0.0473689
0.059626
-0.0523694
0.0634106
-0.0577087
0.0668286
-0.0633889
0.0696738
-0.0693986
0.0717413
-0.0757087
0.0728387
-0.0822733
0.0727932
-0.0890303
0.071458
-0.0959008
0.0687129
-0.102788
0.0644708
-0.109579
0.0586914
-0.116155
0.0513959
-0.12239
0.0426795
-0.128167
0.032725
-0.133381
0.0218196
-0.13795
0.0103658
-0.141829
-0.00111627
-0.145114
-0.0119421
-0.148006
-0.0215744
-0.150659
-0.0295051
-0.153266
-0.0351082
-0.0383178
-0.00704198
0.0368201
-0.0129329
0.0465465
-0.0168264
0.0453493
-0.0200393
0.046053
-0.0231508
0.0482695
-0.0263909
0.0514634
-0.0299057
0.0553232
-0.0337591
0.0595292
-0.0379865
0.0638373
-0.0426048
0.0680114
-0.0476259
0.0718313
-0.0530526
0.0750814
-0.0588754
0.077545
-0.0650701
0.0790152
-0.0715989
0.0793057
-0.0784109
0.0782565
-0.0854385
0.0757306
-0.0925927
0.0716195
-0.0997649
0.0658633
-0.106832
0.0584675
-0.113655
0.0495138
-0.12009
0.0391758
-0.125994
0.0277445
-0.131249
0.0156466
-0.135796
0.00346171
-0.139657
-0.00804728
-0.143021
-0.0181726
-0.146065
-0.0264217
-0.148985
-0.0321452
-0.0353101
-0.00531083
0.0421303
-0.00829687
0.0495307
-0.00994292
0.0469917
-0.0116521
0.0477566
-0.0136816
0.0502914
-0.0161003
0.0538724
-0.0189447
0.0581558
-0.0222395
0.0628102
-0.0259965
0.0675787
-0.0302178
0.0722158
-0.034906
0.0765015
-0.0400648
0.0802215
-0.045685
0.0831467
-0.0517457
0.0850582
-0.0582174
0.0857615
-0.0650638
0.0850895
-0.0722339
0.082891
-0.0796493
0.0790293
-0.0872057
0.073419
-0.0947761
0.0660424
-0.102209
0.0569565
-0.109331
0.046313
-0.115973
0.0344075
-0.121999
0.0216975
-0.127306
0.00879828
-0.131803
-0.00351792
-0.135625
-0.0143135
-0.139035
-0.0229728
-0.142246
-0.0288925
-0.0320573
-0.00131145
0.0434413
-0.000561018
0.0487785
-0.000193439
0.0466206
-0.000728814
0.0482865
-0.00178204
0.0513372
-0.00338098
0.0554618
-0.0055452
0.0603085
-0.00826774
0.0655193
-0.0115413
0.070837
-0.0153482
0.0760063
-0.0196783
0.0808143
-0.0245412
0.0850666
-0.0299252
0.0885128
-0.0358077
0.0909237
-0.0421671
0.0921056
-0.0489863
0.0918959
-0.0562409
0.0901362
-0.0638664
0.0866494
-0.0717702
0.081322
-0.0798335
0.07411
-0.0879078
0.0650401
-0.0958018
0.0542216
-0.103312
0.0419377
-0.110248
0.0286576
-0.116406
0.0149845
-0.121587
0.0016951
-0.125876
-0.00998949
-0.129658
-0.0191526
-0.133165
-0.0253448
-0.0285527
0.00765769
0.035783
0.0116688
0.0447655
0.0117139
0.0465718
0.0119701
0.0480249
0.0120317
0.0512682
0.0113961
0.0560882
0.0100142
0.0616792
0.00793718
0.067583
0.00520857
0.0735506
0.00184568
0.0793532
-0.00213567
0.084779
-0.00669249
0.0896063
-0.0117892
0.0935925
-0.0174237
0.0965421
-0.0235752
0.0982424
-0.0302485
0.0985569
-0.0374674
0.0973461
-0.045178
0.0943548
-0.0533105
0.0894537
-0.0617728
0.0825763
-0.0704511
0.0737275
-0.07914
0.0629245
-0.0875783
0.0503949
-0.0954886
0.0365913
-0.102599
0.0221226
-0.10875
0.00787684
-0.113785
-0.00491932
-0.117991
-0.01491
-0.121833
-0.0214625
-0.0247632
0.207073
0.0113115
0.20633
0.0153116
0.205453
0.0188496
0.204436
0.0223226
0.203274
0.0257939
0.201957
0.0293032
0.200484
0.0328868
0.198849
0.0365742
0.197041
0.0404099
0.195041
0.0444379
0.192844
0.0486859
0.190441
0.0531858
0.18781
0.0579987
0.184934
0.0631908
0.181802
0.0688099
0.178406
0.074941
0.174712
0.0817062
0.170718
0.0891896
0.166428
0.0975518
0.16181
0.106992
0.15691
0.117694
0.151814
0.129896
0.146691
0.143832
0.141829
0.159721
0.13776
0.177671
0.135412
0.197493
0.136294
0.218301
0.142866
0.23855
0.158727
0.254787
0.262288
0.287545
0.212112
0.0118572
0.211397
0.0160083
0.210555
0.0196839
0.209584
0.0232982
0.208478
0.0269149
0.207231
0.0305723
0.205841
0.0343033
0.204302
0.0381421
0.2026
0.0421407
0.200728
0.0463364
0.198679
0.0507588
0.196438
0.0554466
0.194002
0.060449
0.19136
0.065842
0.188498
0.0716757
0.185427
0.0780107
0.182148
0.0849803
0.178658
0.0926724
0.174985
0.101215
0.171187
0.110777
0.167379
0.121487
0.163753
0.133503
0.160639
0.146925
0.158576
0.161766
0.158463
0.177769
0.161736
0.194211
0.170453
0.209578
0.187544
0.221457
0.214593
0.227738
0.234869
0.242014
0.217279
0.0123792
0.216599
0.0166685
0.215801
0.0204728
0.214882
0.0242184
0.213844
0.0279662
0.212683
0.031755
0.211393
0.0356202
0.209963
0.039601
0.208392
0.0437421
0.206676
0.0480806
0.204799
0.0526612
0.202758
0.0575093
0.200555
0.0626684
0.19819
0.0682192
0.19567
0.0742019
0.193003
0.0806799
0.190211
0.0877692
0.187326
0.0955519
0.184415
0.104117
0.181602
0.113579
0.179068
0.124007
0.1771
0.135453
0.176149
0.147855
0.176894
0.161003
0.180257
0.174391
0.187317
0.187139
0.198821
0.198067
0.214522
0.205755
0.232391
0.20987
0.211471
0.25579
0.222574
0.0128734
0.221934
0.0172881
0.221186
0.02121
0.220332
0.0250713
0.219378
0.028931
0.218316
0.0328361
0.217136
0.0368269
0.215835
0.0409321
0.214417
0.0451904
0.212872
0.0496556
0.211191
0.054369
0.209387
0.0593375
0.207459
0.0646154
0.205417
0.0702752
0.20329
0.0763387
0.201087
0.0828868
0.198853
0.0900034
0.196663
0.0977379
0.194621
0.106153
0.192889
0.115303
0.191705
0.125179
0.191418
0.135722
0.192497
0.146755
0.195528
0.157953
0.201099
0.168805
0.209627
0.1786
0.221074
0.186615
0.234978
0.191848
0.251153
0.193695
0.191333
0.271292
0.228
0.0133363
0.227404
0.0178619
0.226718
0.0218844
0.225945
0.025842
0.225085
0.0297982
0.22413
0.0338081
0.223073
0.0379077
0.221921
0.0421144
0.220672
0.0464706
0.219319
0.0510393
0.217867
0.0558501
0.21633
0.0608995
0.214717
0.0662494
0.213048
0.0719611
0.211356
0.0780421
0.209672
0.0845784
0.208062
0.091616
0.206629
0.0991696
0.205505
0.107272
0.204889
0.115912
0.205037
0.125021
0.206273
0.13447
0.20896
0.144049
0.213469
0.153426
0.220094
0.162165
0.228939
0.169745
0.239917
0.17563
0.252698
0.179064
0.266756
0.179637
0.176532
0.281558
0.233561
0.0137637
0.233018
0.0183816
0.232403
0.0224853
0.231719
0.0265228
0.230961
0.0305615
0.230127
0.034656
0.229215
0.0388415
0.228224
0.0431333
0.227159
0.0475659
0.226026
0.0522038
0.224832
0.0570736
0.223596
0.062163
0.222333
0.0675354
0.221073
0.0732394
0.219853
0.0792764
0.218725
0.0857162
0.217783
0.0925625
0.217145
0.0998092
0.216955
0.107459
0.217412
0.11545
0.218732
0.123692
0.221157
0.132032
0.224934
0.140256
0.230279
0.148065
0.237331
0.155099
0.246089
0.160976
0.256427
0.165286
0.267901
0.167587
0.279799
0.167737
0.164669
0.291662
0.239262
0.0141492
0.238779
0.018839
0.238244
0.0230054
0.237656
0.0271055
0.237014
0.0312073
0.236318
0.0353643
0.235561
0.0396177
0.234746
0.0439724
0.23389
0.0484508
0.232999
0.0531251
0.232089
0.0580137
0.231181
0.0630992
0.230295
0.0684456
0.22947
0.0740848
0.228751
0.0800113
0.228219
0.0862594
0.227974
0.0928149
0.228122
0.0996642
0.228806
0.106775
0.230184
0.114069
0.232427
0.121442
0.235714
0.128734
0.240214
0.135742
0.246029
0.142237
0.25319
0.147926
0.261679
0.152477
0.271308
0.155649
0.281621
0.15727
0.292093
0.157264
0.154399
0.302363
0.245106
0.0144862
0.244691
0.0192266
0.244243
0.0234358
0.243763
0.0275787
0.243249
0.0317239
0.242697
0.0359272
0.242107
0.0402251
0.241493
0.0446084
0.240865
0.0491051
0.240235
0.0537835
0.239633
0.0586448
0.239077
0.0636832
0.238593
0.0689547
0.238231
0.0744689
0.238046
0.0802132
0.238121
0.0861977
0.238541
0.0924047
0.239404
0.0988057
0.240837
0.105345
0.242967
0.111938
0.245931
0.118473
0.249853
0.124803
0.254818
0.130766
0.26087
0.136173
0.268023
0.140762
0.276191
0.144301
0.285149
0.146685
0.294557
0.147856
0.304047
0.147772
0.145211
0.313234
0.251097
0.0147679
0.250758
0.0195359
0.250408
0.0237666
0.250045
0.027933
0.249662
0.032107
0.249263
0.0363347
0.248862
0.0406415
0.248468
0.045023
0.248086
0.0495109
0.247745
0.0541511
0.247474
0.0589435
0.247287
0.0638971
0.247223
0.0690438
0.247335
0.074379
0.247676
0.0798902
0.248317
0.0855717
0.249337
0.0913954
0.250831
0.0973182
0.252904
0.103276
0.255657
0.109185
0.259188
0.114939
0.263561
0.120424
0.268817
0.125502
0.275002
0.12998
0.28209
0.133666
0.289926
0.136457
0.298307
0.138298
0.307
0.139159
0.315734
0.139034
0.136786
0.324157
0.257239
0.0149869
0.256984
0.0197588
0.256738
0.0239912
0.256496
0.0281626
0.256259
0.0323426
0.256035
0.0365651
0.25584
0.0408496
0.255679
0.0452018
0.255567
0.0496455
0.255533
0.0542099
0.255598
0.0589039
0.255785
0.0637362
0.256137
0.0687154
0.256704
0.0738341
0.257536
0.0790766
0.2587
0.0844231
0.260269
0.0898389
0.262322
0.0952739
0.264942
0.100662
0.268208
0.105922
0.272173
0.110974
0.276867
0.115727
0.282339
0.120025
0.2886
0.123713
0.295555
0.126705
0.303066
0.128941
0.310978
0.130381
0.319111
0.131022
0.327267
0.130874
0.128904
0.335147
0.263535
0.0151357
0.263372
0.0198876
0.263236
0.0241024
0.263128
0.0282562
0.263053
0.0324131
0.26302
0.036602
0.26304
0.0408394
0.263126
0.0451325
0.263292
0.0494994
0.263562
0.0539618
0.263961
0.0585289
0.264518
0.0632031
0.265274
0.0679822
0.266275
0.0728542
0.267571
0.0777988
0.269221
0.0827895
0.271285
0.0877878
0.273827
0.0927418
0.276909
0.0975867
0.280587
0.102248
0.284891
0.106673
0.289846
0.110771
0.295477
0.114392
0.301738
0.117449
0.308537
0.119902
0.315768
0.121707
0.323303
0.122843
0.331001
0.12332
0.338717
0.123155
0.12142
0.3462
0.269989
0.0152073
0.269924
0.0199152
0.269909
0.0240901
0.269946
0.0282019
0.270041
0.0323103
0.270204
0.0364399
0.270447
0.040604
0.270781
0.0448107
0.271225
0.0490733
0.271799
0.053407
0.272532
0.0578183
0.273453
0.0623041
0.2746
0.0668561
0.276016
0.0714583
0.277745
0.0760872
0.279838
0.0807122
0.282344
0.085295
0.28531
0.089786
0.288782
0.0941224
0.292796
0.0982407
0.297376
0.102096
0.302539
0.10561
0.308261
0.10867
0.314487
0.111222
0.321144
0.113243
0.328142
0.114707
0.335377
0.115607
0.342738
0.115957
0.350113
0.115778
0.114239
0.357293
0.276602
0.0151963
0.276641
0.0198354
0.276754
0.0239474
0.276942
0.0279931
0.277214
0.0320279
0.277578
0.036073
0.278047
0.0401394
0.278634
0.044234
0.279355
0.0483661
0.280233
0.052546
0.281294
0.0567761
0.282568
0.0610494
0.28409
0.0653535
0.285897
0.0696697
0.288028
0.0739735
0.290523
0.0782315
0.293421
0.0824104
0.29675
0.0864665
0.300551
0.0903305
0.304846
0.0939524
0.309649
0.0972988
0.314958
0.100305
0.320734
0.102896
0.326921
0.105036
0.333457
0.106708
0.340265
0.107899
0.347261
0.10861
0.354357
0.10886
0.361467
0.108667
0.107293
0.368414
0.283379
0.0150977
0.283527
0.0196425
0.283773
0.0236681
0.284119
0.0276239
0.284572
0.0315608
0.285141
0.0354976
0.285838
0.0394431
0.286677
0.0434018
0.287674
0.0473794
0.288852
0.0513824
0.290233
0.0554103
0.291847
0.0594523
0.293724
0.0634941
0.295895
0.0675143
0.298392
0.0714919
0.301241
0.0753964
0.304478
0.079185
0.308134
0.0828205
0.312225
0.0862486
0.316758
0.0894262
0.321737
0.0923261
0.32715
0.0948982
0.332955
0.097095
0.339102
0.098892
0.345535
0.100277
0.35219
0.101245
0.358996
0.101804
0.365885
0.101972
0.372786
0.101765
0.100529
0.379551
0.290321
0.0149074
0.290584
0.019332
0.290967
0.0232478
0.291474
0.0270899
0.292112
0.0309055
0.292888
0.0347112
0.293814
0.0385141
0.294904
0.0423152
0.296173
0.0461168
0.297643
0.0499229
0.299334
0.053732
0.301272
0.0575283
0.303481
0.0612996
0.305981
0.0650278
0.308805
0.0686815
0.311978
0.0722349
0.315526
0.0756482
0.31947
0.078886
0.32381
0.081916
0.328541
0.0847021
0.333659
0.0872147
0.339147
0.0894167
0.344969
0.0912785
0.351079
0.0927861
0.357427
0.0939319
0.363957
0.0947168
0.370613
0.0951501
0.377336
0.0952489
0.384073
0.0950286
0.0939103
0.390692
0.297432
0.0146215
0.297813
0.0189
0.298337
0.022683
0.299008
0.0263885
0.299832
0.03006
0.300817
0.0337128
0.301972
0.0373521
0.303309
0.0409769
0.304844
0.0445851
0.306597
0.0481759
0.308585
0.0517531
0.310822
0.0553024
0.313333
0.0587989
0.316144
0.0622288
0.319274
0.0655617
0.322749
0.0687703
0.326576
0.0718305
0.330759
0.0747102
0.335302
0.0773804
0.340195
0.0798154
0.345427
0.0819888
0.350979
0.0838722
0.356813
0.085449
0.362892
0.0867116
0.36917
0.0876569
0.375601
0.0882886
0.382136
0.0886169
0.388728
0.0886581
0.395331
0.0884256
0.0874089
0.401834
0.304717
0.0142371
0.305218
0.0183439
0.305885
0.0219716
0.306721
0.0255187
0.30773
0.0290248
0.308923
0.0325023
0.310309
0.0359554
0.311892
0.0393881
0.313681
0.0427956
0.315697
0.046162
0.317962
0.0494931
0.320486
0.0527852
0.323288
0.0560047
0.326392
0.0591332
0.329807
0.0621544
0.333543
0.0650426
0.337606
0.0677743
0.341997
0.0703245
0.346713
0.0726692
0.351744
0.07479
0.357074
0.0766657
0.362677
0.0782744
0.368524
0.0796073
0.374578
0.0806615
0.380801
0.0814373
0.387151
0.0819402
0.393589
0.0821807
0.400074
0.0821733
0.40657
0.0819302
0.0810029
0.412977
0.312178
0.0137513
0.312802
0.0176609
0.313614
0.0211116
0.314614
0.0244799
0.315809
0.0278012
0.317205
0.0310841
0.318812
0.0343329
0.320634
0.0375568
0.322674
0.0407498
0.324947
0.0438874
0.327474
0.0469671
0.330273
0.0499893
0.33335
0.0529312
0.336716
0.0557721
0.34038
0.0584947
0.344348
0.0610792
0.348621
0.0635056
0.353196
0.0657534
0.358064
0.067804
0.363213
0.0696445
0.368625
0.0712586
0.374276
0.0726291
0.380135
0.0737522
0.386171
0.0746285
0.39235
0.0752606
0.398636
0.075655
0.404996
0.0758217
0.411395
0.075774
0.417803
0.0755227
0.0746753
0.42413
0.319819
0.0131618
0.320569
0.0168491
0.321527
0.0201015
0.322693
0.0232711
0.324071
0.0263896
0.325666
0.0294631
0.327483
0.0324962
0.32953
0.0354957
0.331815
0.0384545
0.334343
0.0413532
0.337124
0.0441828
0.340173
0.0469388
0.343498
0.0496061
0.347104
0.0521667
0.350996
0.0546045
0.355173
0.0569031
0.359634
0.0590461
0.364371
0.0610172
0.369373
0.0628021
0.374627
0.0643924
0.380112
0.0657762
0.385805
0.0669393
0.391679
0.0678812
0.397703
0.0686053
0.403849
0.0691153
0.410086
0.0694182
0.416384
0.0695235
0.422714
0.0694432
0.429048
0.0691867
0.0684123
0.43531
0.327644
0.0124677
0.328519
0.0159082
0.329623
0.0189415
0.330954
0.0218934
0.332514
0.0247919
0.334304
0.0276425
0.336328
0.0304482
0.338593
0.0332118
0.341107
0.0359264
0.343872
0.0385772
0.346893
0.0411533
0.35018
0.0436468
0.353735
0.046046
0.357563
0.048336
0.361662
0.050503
0.366029
0.0525334
0.370659
0.0544138
0.375542
0.0561319
0.380665
0.0576766
0.386012
0.0590436
0.391565
0.0602238
0.3973
0.0612056
0.403191
0.0619908
0.409211
0.0625844
0.415335
0.0629908
0.421534
0.0632169
0.427784
0.0632719
0.434058
0.0631662
0.440333
0.0629082
0.062202
0.446541
0.335656
0.0116686
0.336656
0.0148386
0.337904
0.0176331
0.339398
0.0203494
0.341135
0.0230126
0.343116
0.0256267
0.345342
0.0281932
0.347819
0.0307115
0.350551
0.0331752
0.35354
0.0355727
0.356787
0.0378933
0.360296
0.0401279
0.364067
0.0422661
0.368099
0.0442961
0.372389
0.0462062
0.376931
0.0479852
0.381716