/*--------------------------------*- C++ -*----------------------------------*\
| =========                 |                                                 |
| \\      /  F ield         | OpenFOAM: The Open Source CFD Toolbox           |
|  \\    /   O peration     | Version:  dev                                   |
|   \\  /    A nd           | Web:      www.OpenFOAM.org                      |
|    \\/     M anipulation  |                                                 |
\*---------------------------------------------------------------------------*/
FoamFile
{
    version     2.0;
    format      ascii;
    class       pointVectorField;
    location    "3.29";
    object      pointDisplacement;
}
// * * * * * * * * * * * * * * * * * * * * * * * * * * * * * * * * * * * * * //

dimensions      [0 1 0 0 0 0 0];

internalField   nonuniform List<vector> 
5828
(
(0 0 0)
(0.00806965 0 0)
(0.0153432 0 0)
(0.0216278 0 0)
(0.0269973 0 0)
(0.0315231 0 0)
(0.0352711 0 0)
(0.038301 0 0)
(0.0406662 0 0)
(0.0424146 0 0)
(0.0435887 0 0)
(0.0442259 0 0)
(0.0443594 0 0)
(0.044019 0 0)
(0.0432312 0 0)
(0.042021 0 0)
(0.0404123 0 0)
(0.0384293 0 0)
(0.0360975 0 0)
(0.0334461 0 0)
(0.0305091 0 0)
(0.0273275 0 0)
(0.0239517 0 0)
(0.0204433 0 0)
(0.0168784 0 0)
(0.0133505 0 0)
(0.00997507 0 0)
(0.00689708 0 0)
(0.00430906 0 0)
(0.00250885 0 0)
(0 0 0)
(0 0 0)
(0.00807475 0 -2.61576e-06)
(0.0153538 0 -4.68062e-06)
(0.0216439 0 -5.89484e-06)
(0.0270192 0 -6.08543e-06)
(0.0315514 0 -5.09044e-06)
(0.0353065 0 -2.74035e-06)
(0.0383443 0 1.15407e-06)
(0.0407185 0 6.81056e-06)
(0.0424773 0 1.44825e-05)
(0.0436631 0 2.44646e-05)
(0.0443139 0 3.70975e-05)
(0.044463 0 5.27713e-05)
(0.0441403 0 7.19275e-05)
(0.0433729 0 9.50587e-05)
(0.0421859 0 0.000122705)
(0.0406035 0 0.000155445)
(0.03865 0 0.000193885)
(0.0363514 0 0.000238653)
(0.0337367 0 0.000290383)
(0.0308401 0 0.000349692)
(0.0277027 0 0.000417165)
(0.0243748 0 0.000493347)
(0.0209182 0 0.000578747)
(0.0174094 0 0.000673842)
(0.0139434 0 0.000779061)
(0.0106377 0 0.000894657)
(0.00764124 0 0.00102017)
(0.00515099 0 0.00115232)
(0.00346193 0 0.00127696)
(0.00144758 0 0.00150027)
(0 0 0)
(0.00809117 0 -5.30877e-06)
(0.0153864 0 -9.5165e-06)
(0.021693 0 -1.20287e-05)
(0.0270856 0 -1.25058e-05)
(0.0316367 0 -1.06301e-05)
(0.0354128 0 -6.06903e-06)
(0.0384742 0 1.54856e-06)
(0.0408754 0 1.26498e-05)
(0.0426648 0 2.77313e-05)
(0.0438858 0 4.73712e-05)
(0.044577 0 7.22367e-05)
(0.0447724 0 0.000103092)
(0.0445027 0 0.000140802)
(0.0437959 0 0.000186331)
(0.0426778 0 0.000240736)
(0.0411736 0 0.000305147)
(0.0393082 0 0.000380739)
(0.037108 0 0.000468724)
(0.0346027 0 0.000570319)
(0.0318265 0 0.000686677)
(0.0288206 0 0.000818841)
(0.0256352 0 0.000967699)
(0.0223321 0 0.00113393)
(0.0189887 0 0.00131792)
(0.0157024 0 0.00151955)
(0.0125955 0 0.00173765)
(0.00982247 0 0.00196854)
(0.0075841 0 0.00220208)
(0.00615817 0 0.00240953)
(0.00446333 0 0.002706)
(0 0 0)
(0.0081183 0 -8.15276e-06)
(0.0154403 0 -1.46563e-05)
(0.0217741 0 -1.86312e-05)
(0.0271954 0 -1.95841e-05)
(0.0317778 0 -1.70537e-05)
(0.0355886 0 -1.05575e-05)
(0.0386892 0 4.43205e-07)
(0.0411347 0 1.65681e-05)
(0.0429748 0 3.85378e-05)
(0.0442539 0 6.71899e-05)
(0.0450116 0 0.000103492)
(0.0452833 0 0.000148549)
(0.045101 0 0.000203612)
(0.0444938 0 0.000270074)
(0.0434891 0 0.000349465)
(0.0421136 0 0.000443416)
(0.0403933 0 0.000553589)
(0.0383554 0 0.000681699)
(0.0360303 0 0.000829447)
(0.0334526 0 0.000998382)
(0.0306635 0 0.00118978)
(0.0277124 0 0.00140455)
(0.0246603 0 0.00164298)
(0.0215839 0 0.00190455)
(0.0185817 0 0.00218731)
(0.0157788 0 0.0024867)
(0.0133304 0 0.00279319)
(0.0114299 0 0.00308777)
(0.0103237 0 0.00333138)
(0.00896676 0 0.00362362)
(0 0 0)
(0.00815589 0 -1.12175e-05)
(0.0155149 0 -2.02406e-05)
(0.0218863 0 -2.59198e-05)
(0.0273474 0 -2.76265e-05)
(0.031973 0 -2.47742e-05)
(0.0358318 0 -1.67491e-05)
(0.0389863 0 -2.86625e-06)
(0.0414931 0 1.76619e-05)
(0.043403 0 4.57504e-05)
(0.0447619 0 8.24632e-05)
(0.0456111 0 0.000129026)
(0.0459877 0 0.000186839)
(0.0459254 0 0.000257484)
(0.0454551 0 0.000342714)
(0.0446058 0 0.000444469)
(0.0434071 0 0.000564819)
(0.0418865 0 0.000705785)
(0.0400717 0 0.000869458)
(0.0379945 0 0.00105792)
(0.0356902 0 0.00127294)
(0.0331995 0 0.00151578)
(0.0305705 0 0.00178699)
(0.0278612 0 0.00208598)
(0.0251432 0 0.00241056)
(0.0225133 0 0.00275622)
(0.020096 0 0.00311404)
(0.0180394 0 0.00346791)
(0.0165209 0 0.00379125)
(0.0157529 0 0.00404085)
(0.0146759 0 0.00430049)
(0 0 0)
(0.00820351 0 -1.45676e-05)
(0.0156095 0 -2.63999e-05)
(0.0220284 0 -3.40962e-05)
(0.0275397 0 -3.69169e-05)
(0.0322199 0 -3.41734e-05)
(0.0361393 0 -2.51457e-05)
(0.0393619 0 -9.02985e-06)
(0.0419457 0 1.5098e-05)
(0.0439433 0 4.83095e-05)
(0.0454025 0 9.18513e-05)
(0.0463665 0 0.000147154)
(0.0468744 0 0.000215854)
(0.0469625 0 0.000299791)
(0.0466636 0 0.000400981)
(0.0460082 0 0.000521698)
(0.0450286 0 0.000664287)
(0.0437556 0 0.000830997)
(0.0422189 0 0.00102426)
(0.0404512 0 0.00124639)
(0.0384887 0 0.00149917)
(0.0363715 0 0.00178365)
(0.0341459 0 0.00209977)
(0.0318661 0 0.00244577)
(0.0295954 0 0.0028177)
(0.027417 0 0.00320833)
(0.0254485 0 0.0036045)
(0.0238302 0 0.0039848)
(0.0227172 0 0.00431792)
(0.0222909 0 0.00456067)
(0.0214373 0 0.00479328)
(0 0 0)
(0.00826059 0 -1.82611e-05)
(0.0157227 0 -3.3251e-05)
(0.0221986 0 -4.33408e-05)
(0.02777 0 -4.77086e-05)
(0.0325155 0 -4.55922e-05)
(0.0365072 0 -3.61948e-05)
(0.0398108 0 -1.86256e-05)
(0.0424862 0 8.13791e-06)
(0.0445881 0 4.52776e-05)
(0.046166 0 9.41736e-05)
(0.0472661 0 0.000156396)
(0.0479291 0 0.000233744)
(0.0481935 0 0.000328211)
(0.0480952 0 0.000441946)
(0.0476677 0 0.000577426)
(0.0469441 0 0.000737144)
(0.0459595 0 0.000923561)
(0.0447482 0 0.0011393)
(0.0433434 0 0.00138669)
(0.0417821 0 0.00166738)
(0.0401042 0 0.00198214)
(0.0383536 0 0.00233029)
(0.0365803 0 0.00270899)
(0.034841 0 0.00311268)
(0.0331968 0 0.00353169)
(0.0317387 0 0.00394997)
(0.0305978 0 0.00434289)
(0.0299129 0 0.00467686)
(0.0298375 0 0.00491004)
(0.0291834 0 0.00513508)
(0 0 0)
(0.00832646 0 -2.23478e-05)
(0.0158534 0 -4.08944e-05)
(0.0223948 0 -5.38085e-05)
(0.0280353 0 -6.02189e-05)
(0.0328559 0 -5.93219e-05)
(0.0369307 0 -5.02776e-05)
(0.0403271 0 -3.21442e-05)
(0.0431074 0 -3.84221e-06)
(0.0453282 0 3.58658e-05)
(0.0470412 0 8.84435e-05)
(0.0482946 0 0.000155526)
(0.049132 0 0.000238935)
(0.0495939 0 0.000340737)
(0.0497206 0 0.000463167)
(0.0495499 0 0.000608722)
(0.0491168 0 0.000779965)
(0.0484588 0 0.000979479)
(0.0476138 0 0.00120982)
(0.0466179 0 0.00147315)
(0.0455091 0 0.00177096)
(0.044327 0 0.00210367)
(0.0431133 0 0.0024701)
(0.041912 0 0.00286666)
(0.0407708 0 0.00328647)
(0.0397361 0 0.00371821)
(0.0388604 0 0.0041447)
(0.0382474 0 0.00454023)
(0.0380245 0 0.0048701)
(0.0383229 0 0.00509271)
(0.037891 0 0.00532466)
(0 0 0)
(0.00840031 0 -2.68684e-05)
(0.0159999 0 -4.94119e-05)
(0.0226147 0 -6.5625e-05)
(0.0283325 0 -7.46236e-05)
(0.033237 0 -7.55973e-05)
(0.0374044 0 -6.77002e-05)
(0.0409041 0 -4.99773e-05)
(0.0438007 0 -2.13336e-05)
(0.046152 0 1.94792e-05)
(0.0480121 0 7.39071e-05)
(0.0494322 0 0.000143577)
(0.05046 0 0.000230265)
(0.0511394 0 0.000336006)
(0.0515136 0 0.000463048)
(0.0516239 0 0.000613768)
(0.051509 0 0.000790645)
(0.0512086 0 0.000996171)
(0.0507635 0 0.00123268)
(0.0502136 0 0.00150209)
(0.049599 0 0.0018056)
(0.0489596 0 0.0021433)
(0.0483348 0 0.0025136)
(0.0477622 0 0.00291249)
(0.0472776 0 0.00333254)
(0.0469139 0 0.00376175)
(0.0466977 0 0.00418303)
(0.0466829 0 0.00457127)
(0.0469689 0 0.00489081)
(0.0476749 0 0.00509837)
(0.0475093 0 0.00533909)
(0 0 0)
(0.00848126 0 -3.18533e-05)
(0.0161603 0 -5.88645e-05)
(0.0228554 0 -7.8884e-05)
(0.0286577 0 -9.10525e-05)
(0.0336538 0 -9.45896e-05)
(0.0379222 0 -8.86846e-05)
(0.0415341 0 -7.24071e-05)
(0.0445548 0 -4.46747e-05)
(0.0470441 0 -4.28578e-06)
(0.0490609 0 5.00839e-05)
(0.0506609 0 0.000119968)
(0.051894 0 0.000207074)
(0.0528074 0 0.000313301)
(0.0534464 0 0.000440733)
(0.0538559 0 0.000591513)
(0.0540781 0 0.000767876)
(0.0541556 0 0.000972072)
(0.0541332 0 0.00120608)
(0.0540549 0 0.0014714)
(0.0539634 0 0.00176886)
(0.0539003 0 0.00209816)
(0.0539037 0 0.00245744)
(0.0540061 0 0.00284265)
(0.054233 0 0.00324655)
(0.0546009 0 0.00365761)
(0.0551166 0 0.00405944)
(0.0557787 0 0.0044282)
(0.0566395 0 0.00472761)
(0.0577934 0 0.00491117)
(0.0579482 0 0.00515049)
(0 0 0)
(0.0085683 0 -3.73218e-05)
(0.0163328 0 -6.92906e-05)
(0.023114 0 -9.36438e-05)
(0.0290068 0 -0.000109585)
(0.0341011 0 -0.000116402)
(0.0384776 0 -0.000113363)
(0.0422072 0 -9.95788e-05)
(0.0453561 0 -7.40211e-05)
(0.0479903 0 -3.56428e-05)
(0.0501743 0 1.67305e-05)
(0.051965 0 8.44759e-05)
(0.0534144 0 0.000169108)
(0.0545717 0 0.000272327)
(0.0554855 0 0.000395949)
(0.0562054 0 0.0005417)
(0.0567761 0 0.000711412)
(0.0572417 0 0.000907001)
(0.0576529 0 0.00112991)
(0.0580584 0 0.00138107)
(0.0585039 0 0.00166076)
(0.0590344 0 0.0019682)
(0.0596883 0 0.00230132)
(0.0604958 0 0.0026563)
(0.061475 0 0.00302672)
(0.0626285 0 0.00340259)
(0.0639389 0 0.00376908)
(0.0653625 0 0.00410421)
(0.0668867 0 0.0043715)
(0.0685342 0 0.00452066)
(0.0690693 0 0.00473541)
(0 0 0)
(0.0086604 0 -4.32812e-05)
(0.0165152 0 -8.07049e-05)
(0.0233872 0 -0.000109926)
(0.0293753 0 -0.00013025)
(0.0345731 0 -0.000141063)
(0.0390619 0 -0.000141746)
(0.0429112 0 -0.00013148)
(0.0461928 0 -0.000109382)
(0.0489804 0 -7.4614e-05)
(0.0513386 0 -2.61531e-05)
(0.0533259 0 3.71574e-05)
(0.0549972 0 0.000116513)
(0.0564032 0 0.000213338)
(0.0575953 0 0.000329145)
(0.0586266 0 0.000465129)
(0.0595459 0 0.000622415)
(0.060402 0 0.000802354)
(0.0612485 0 0.00100589)
(0.0621352 0 0.0012333)
(0.0631132 0 0.00148406)
(0.0642342 0 0.0017566)
(0.0655388 0 0.00204853)
(0.0670574 0 0.00235631)
(0.0688061 0 0.00267473)
(0.0707792 0 0.00299611)
(0.0729399 0 0.00330902)
(0.0752114 0 0.00359533)
(0.0774979 0 0.00382001)
(0.0796976 0 0.00392891)
(0.0806896 0 0.0041064)
(0 0 0)
(0.00875643 0 -4.97268e-05)
(0.0167052 0 -9.30971e-05)
(0.0236715 0 -0.000127713)
(0.0297581 0 -0.00015302)
(0.0350624 0 -0.000168533)
(0.0396651 0 -0.000173748)
(0.0436367 0 -0.000168014)
(0.0470568 0 -0.000150664)
(0.050002 0 -0.000121029)
(0.0525369 0 -7.82877e-05)
(0.0547226 0 -2.15618e-05)
(0.0566158 0 4.99697e-05)
(0.0582679 0 0.000137327)
(0.0597337 0 0.00024161)
(0.0610685 0 0.000363524)
(0.0623268 0 0.000503369)
(0.0635656 0 0.000661481)
(0.0648362 0 0.000838118)
(0.0661882 0 0.00103286)
(0.0676778 0 0.00124446)
(0.0693625 0 0.00147022)
(0.0712894 0 0.00170677)
(0.0734914 0 0.00195062)
(0.0759885 0 0.00219754)
(0.0787769 0 0.00244264)
(0.0818143 0 0.00267981)
(0.0850017 0 0.00289915)
(0.0881552 0 0.00307345)
(0.0910005 0 0.003146)
(0.0926303 0 0.00329425)
(0 0 0)
(0.00885524 0 -5.66418e-05)
(0.0169005 0 -0.000106433)
(0.0239634 0 -0.000146952)
(0.0301504 0 -0.000177821)
(0.0355618 0 -0.000198712)
(0.0402793 0 -0.000209253)
(0.0443767 0 -0.000209029)
(0.0479379 0 -0.000197614)
(0.051041 0 -0.000174512)
(0.0537519 0 -0.000139154)
(0.0561337 0 -9.0993e-05)
(0.0582419 0 -2.95061e-05)
(0.0601305 0 4.57903e-05)
(0.0618598 0 0.000135337)
(0.0634872 0 0.000239323)
(0.06507 0 0.000357366)
(0.0666676 0 0.000488767)
(0.0683323 0 0.00063264)
(0.0701181 0 0.000787399)
(0.07208 0 0.000951095)
(0.0742782 0 0.00111995)
(0.076766 0 0.00128897)
(0.0795801 0 0.00145376)
(0.0827489 0 0.00161)
(0.0862792 0 0.00175453)
(0.0901406 0 0.00188694)
(0.0942407 0 0.00201061)
(0.0983404 0 0.00212074)
(0.101974 0 0.00216998)
(0.10474 0 0.00233754)
(0 0 0)
(0.00895567 0 -6.3998e-05)
(0.0170989 0 -0.000120654)
(0.0242594 0 -0.000167551)
(0.0305473 0 -0.000204524)
(0.0360654 0 -0.000231432)
(0.0408978 0 -0.000248052)
(0.0451219 0 -0.000254228)
(0.0488242 0 -0.000249809)
(0.0520834 0 -0.000234503)
(0.0549666 0 -0.000208002)
(0.0575372 0 -0.000170091)
(0.0598505 0 -0.000120632)
(0.0619652 0 -5.96896e-05)
(0.0639449 0 1.25152e-05)
(0.065848 0 9.55051e-05)
(0.0677319 0 0.000188222)
(0.0696545 0 0.000289121)
(0.0716713 0 0.000396104)
(0.0738383 0 0.000506194)
(0.0762112 0 0.000616032)
(0.0788486 0 0.000720742)
(0.0818007 0 0.000813781)
(0.085107 0 0.00088853)
(0.088802 0 0.000938443)
(0.0929025 0 0.000958412)
(0.0973959 0 0.000948375)
(0.102221 0 0.000921178)
(0.107149 0 0.00091291)
(0.111653 0 0.000937374)
(0.116896 0 0.0012932)
(0 0 0)
(0.00905709 0 -7.17862e-05)
(0.0172991 0 -0.000135773)
(0.024558 0 -0.000189543)
(0.0309469 0 -0.000233157)
(0.0365707 0 -0.000266708)
(0.0415173 0 -0.000290166)
(0.0458691 0 -0.000303636)
(0.0497123 0 -0.000307238)
(0.0531247 0 -0.000300914)
(0.0561748 0 -0.000284643)
(0.0589257 0 -0.000258481)
(0.0614355 0 -0.000222799)
(0.0637657 0 -0.000178246)
(0.0659796 0 -0.000125582)
(0.0681359 0 -6.59593e-05)
(0.0702913 0 -1.14228e-06)
(0.0725023 0 6.64639e-05)
(0.0748238 0 0.000133686)
(0.0773099 0 0.000196357)
(0.0800175 0 0.00024934)
(0.0829975 0 0.000286562)
(0.0862884 0 0.000300172)
(0.0899264 0 0.000280615)
(0.0939403 0 0.000217202)
(0.0983404 0 9.79524e-05)
(0.103107 0 -9.0199e-05)
(0.108169 0 -0.000361072)
(0.113304 0 -0.000728317)
(0.11813 0 -0.00128427)
(0.129065 0 0.000200451)
(0 0 0)
(0.00806965 0 0)
(0.0153432 0 0)
(0.0216278 0 0)
(0.0269973 0 0)
(0.0315231 0 0)
(0.0352711 0 0)
(0.038301 0 0)
(0.0406662 0 0)
(0.0424146 0 0)
(0.0435887 0 0)
(0.0442259 0 0)
(0.0443594 0 0)
(0.044019 0 0)
(0.0432312 0 0)
(0.042021 0 0)
(0.0404123 0 0)
(0.0384293 0 0)
(0.0360975 0 0)
(0.0334461 0 0)
(0.0305091 0 0)
(0.0273275 0 0)
(0.0239517 0 0)
(0.0204433 0 0)
(0.0168784 0 0)
(0.0133505 0 0)
(0.00997507 0 0)
(0.00689708 0 0)
(0.00430906 0 0)
(0.00250885 0 0)
(0 0 0)
(0 0 0)
(0.00807475 0 -2.61576e-06)
(0.0153538 0 -4.68062e-06)
(0.0216439 0 -5.89484e-06)
(0.0270192 0 -6.08543e-06)
(0.0315514 0 -5.09044e-06)
(0.0353065 0 -2.74035e-06)
(0.0383443 0 1.15407e-06)
(0.0407185 0 6.81056e-06)
(0.0424773 0 1.44825e-05)
(0.0436631 0 2.44646e-05)
(0.0443139 0 3.70975e-05)
(0.044463 0 5.27713e-05)
(0.0441403 0 7.19275e-05)
(0.0433729 0 9.50587e-05)
(0.0421859 0 0.000122705)
(0.0406035 0 0.000155445)
(0.03865 0 0.000193885)
(0.0363514 0 0.000238653)
(0.0337367 0 0.000290383)
(0.0308401 0 0.000349692)
(0.0277027 0 0.000417165)
(0.0243748 0 0.000493347)
(0.0209182 0 0.000578747)
(0.0174094 0 0.000673842)
(0.0139434 0 0.000779061)
(0.0106377 0 0.000894657)
(0.00764124 0 0.00102017)
(0.00515099 0 0.00115232)
(0.00346193 0 0.00127696)
(0.00144758 0 0.00150027)
(0 0 0)
(0.00809117 0 -5.30877e-06)
(0.0153864 0 -9.5165e-06)
(0.021693 0 -1.20287e-05)
(0.0270856 0 -1.25058e-05)
(0.0316367 0 -1.06301e-05)
(0.0354128 0 -6.06903e-06)
(0.0384742 0 1.54856e-06)
(0.0408754 0 1.26498e-05)
(0.0426648 0 2.77313e-05)
(0.0438858 0 4.73712e-05)
(0.044577 0 7.22367e-05)
(0.0447724 0 0.000103092)
(0.0445027 0 0.000140802)
(0.0437959 0 0.000186331)
(0.0426778 0 0.000240736)
(0.0411736 0 0.000305147)
(0.0393082 0 0.000380739)
(0.037108 0 0.000468724)
(0.0346027 0 0.000570319)
(0.0318265 0 0.000686677)
(0.0288206 0 0.000818841)
(0.0256352 0 0.000967699)
(0.0223321 0 0.00113393)
(0.0189887 0 0.00131792)
(0.0157024 0 0.00151955)
(0.0125955 0 0.00173765)
(0.00982247 0 0.00196854)
(0.0075841 0 0.00220208)
(0.00615817 0 0.00240953)
(0.00446333 0 0.002706)
(0 0 0)
(0.0081183 0 -8.15276e-06)
(0.0154403 0 -1.46563e-05)
(0.0217741 0 -1.86312e-05)
(0.0271954 0 -1.95841e-05)
(0.0317778 0 -1.70537e-05)
(0.0355886 0 -1.05575e-05)
(0.0386892 0 4.43205e-07)
(0.0411347 0 1.65681e-05)
(0.0429748 0 3.85378e-05)
(0.0442539 0 6.71899e-05)
(0.0450116 0 0.000103492)
(0.0452833 0 0.000148549)
(0.045101 0 0.000203612)
(0.0444938 0 0.000270074)
(0.0434891 0 0.000349465)
(0.0421136 0 0.000443416)
(0.0403933 0 0.000553589)
(0.0383554 0 0.000681699)
(0.0360303 0 0.000829447)
(0.0334526 0 0.000998382)
(0.0306635 0 0.00118978)
(0.0277124 0 0.00140455)
(0.0246603 0 0.00164298)
(0.0215839 0 0.00190455)
(0.0185817 0 0.00218731)
(0.0157788 0 0.0024867)
(0.0133304 0 0.00279319)
(0.0114299 0 0.00308777)
(0.0103237 0 0.00333138)
(0.00896676 0 0.00362362)
(0 0 0)
(0.00815589 0 -1.12175e-05)
(0.0155149 0 -2.02406e-05)
(0.0218863 0 -2.59198e-05)
(0.0273474 0 -2.76265e-05)
(0.031973 0 -2.47742e-05)
(0.0358318 0 -1.67491e-05)
(0.0389863 0 -2.86625e-06)
(0.0414931 0 1.76619e-05)
(0.043403 0 4.57504e-05)
(0.0447619 0 8.24632e-05)
(0.0456111 0 0.000129026)
(0.0459877 0 0.000186839)
(0.0459254 0 0.000257484)
(0.0454551 0 0.000342714)
(0.0446058 0 0.000444469)
(0.0434071 0 0.000564819)
(0.0418865 0 0.000705785)
(0.0400717 0 0.000869458)
(0.0379945 0 0.00105792)
(0.0356902 0 0.00127294)
(0.0331995 0 0.00151578)
(0.0305705 0 0.00178699)
(0.0278612 0 0.00208598)
(0.0251432 0 0.00241056)
(0.0225133 0 0.00275622)
(0.020096 0 0.00311404)
(0.0180394 0 0.00346791)
(0.0165209 0 0.00379125)
(0.0157529 0 0.00404085)
(0.0146759 0 0.00430049)
(0 0 0)
(0.00820351 0 -1.45676e-05)
(0.0156095 0 -2.63999e-05)
(0.0220284 0 -3.40962e-05)
(0.0275397 0 -3.69169e-05)
(0.0322199 0 -3.41734e-05)
(0.0361393 0 -2.51457e-05)
(0.0393619 0 -9.02985e-06)
(0.0419457 0 1.5098e-05)
(0.0439433 0 4.83095e-05)
(0.0454025 0 9.18513e-05)
(0.0463665 0 0.000147154)
(0.0468744 0 0.000215854)
(0.0469625 0 0.000299791)
(0.0466636 0 0.000400981)
(0.0460082 0 0.000521698)
(0.0450286 0 0.000664287)
(0.0437556 0 0.000830997)
(0.0422189 0 0.00102426)
(0.0404512 0 0.00124639)
(0.0384887 0 0.00149917)
(0.0363715 0 0.00178365)
(0.0341459 0 0.00209977)
(0.0318661 0 0.00244577)
(0.0295954 0 0.0028177)
(0.027417 0 0.00320833)
(0.0254485 0 0.0036045)
(0.0238302 0 0.0039848)
(0.0227172 0 0.00431792)
(0.0222909 0 0.00456067)
(0.0214373 0 0.00479328)
(0 0 0)
(0.00826059 0 -1.82611e-05)
(0.0157227 0 -3.3251e-05)
(0.0221986 0 -4.33408e-05)
(0.02777 0 -4.77086e-05)
(0.0325155 0 -4.55922e-05)
(0.0365072 0 -3.61948e-05)
(0.0398108 0 -1.86256e-05)
(0.0424862 0 8.13791e-06)
(0.0445881 0 4.52776e-05)
(0.046166 0 9.41736e-05)
(0.0472661 0 0.000156396)
(0.0479291 0 0.000233744)
(0.0481935 0 0.000328211)
(0.0480952 0 0.000441946)
(0.0476677 0 0.000577426)
(0.0469441 0 0.000737144)
(0.0459595 0 0.000923561)
(0.0447482 0 0.0011393)
(0.0433434 0 0.00138669)
(0.0417821 0 0.00166738)
(0.0401042 0 0.00198214)
(0.0383536 0 0.00233029)
(0.0365803 0 0.00270899)
(0.034841 0 0.00311268)
(0.0331968 0 0.00353169)
(0.0317387 0 0.00394997)
(0.0305978 0 0.00434289)
(0.0299129 0 0.00467686)
(0.0298375 0 0.00491004)
(0.0291834 0 0.00513508)
(0 0 0)
(0.00832646 0 -2.23478e-05)
(0.0158534 0 -4.08944e-05)
(0.0223948 0 -5.38085e-05)
(0.0280353 0 -6.02189e-05)
(0.0328559 0 -5.93219e-05)
(0.0369307 0 -5.02776e-05)
(0.0403271 0 -3.21442e-05)
(0.0431074 0 -3.84221e-06)
(0.0453282 0 3.58658e-05)
(0.0470412 0 8.84435e-05)
(0.0482946 0 0.000155526)
(0.049132 0 0.000238935)
(0.0495939 0 0.000340737)
(0.0497206 0 0.000463167)
(0.0495499 0 0.000608722)
(0.0491168 0 0.000779965)
(0.0484588 0 0.000979479)
(0.0476138 0 0.00120982)
(0.0466179 0 0.00147315)
(0.0455091 0 0.00177096)
(0.044327 0 0.00210367)
(0.0431133 0 0.0024701)
(0.041912 0 0.00286666)
(0.0407708 0 0.00328647)
(0.0397361 0 0.00371821)
(0.0388604 0 0.0041447)
(0.0382474 0 0.00454023)
(0.0380245 0 0.0048701)
(0.0383229 0 0.00509271)
(0.037891 0 0.00532466)
(0 0 0)
(0.00840031 0 -2.68684e-05)
(0.0159999 0 -4.94119e-05)
(0.0226147 0 -6.5625e-05)
(0.0283325 0 -7.46236e-05)
(0.033237 0 -7.55973e-05)
(0.0374044 0 -6.77002e-05)
(0.0409041 0 -4.99773e-05)
(0.0438007 0 -2.13336e-05)
(0.046152 0 1.94792e-05)
(0.0480121 0 7.39071e-05)
(0.0494322 0 0.000143577)
(0.05046 0 0.000230265)
(0.0511394 0 0.000336006)
(0.0515136 0 0.000463048)
(0.0516239 0 0.000613768)
(0.051509 0 0.000790645)
(0.0512086 0 0.000996171)
(0.0507635 0 0.00123268)
(0.0502136 0 0.00150209)
(0.049599 0 0.0018056)
(0.0489596 0 0.0021433)
(0.0483348 0 0.0025136)
(0.0477622 0 0.00291249)
(0.0472776 0 0.00333254)
(0.0469139 0 0.00376175)
(0.0466977 0 0.00418303)
(0.0466829 0 0.00457127)
(0.0469689 0 0.00489081)
(0.0476749 0 0.00509837)
(0.0475093 0 0.00533909)
(0 0 0)
(0.00848126 0 -3.18533e-05)
(0.0161603 0 -5.88645e-05)
(0.0228554 0 -7.8884e-05)
(0.0286577 0 -9.10525e-05)
(0.0336538 0 -9.45896e-05)
(0.0379222 0 -8.86846e-05)
(0.0415341 0 -7.24071e-05)
(0.0445548 0 -4.46747e-05)
(0.0470441 0 -4.28578e-06)
(0.0490609 0 5.00839e-05)
(0.0506609 0 0.000119968)
(0.051894 0 0.000207074)
(0.0528074 0 0.000313301)
(0.0534464 0 0.000440733)
(0.0538559 0 0.000591513)
(0.0540781 0 0.000767876)
(0.0541556 0 0.000972072)
(0.0541332 0 0.00120608)
(0.0540549 0 0.0014714)
(0.0539634 0 0.00176886)
(0.0539003 0 0.00209816)
(0.0539037 0 0.00245744)
(0.0540061 0 0.00284265)
(0.054233 0 0.00324655)
(0.0546009 0 0.00365761)
(0.0551166 0 0.00405944)
(0.0557787 0 0.0044282)
(0.0566395 0 0.00472761)
(0.0577934 0 0.00491117)
(0.0579482 0 0.00515049)
(0 0 0)
(0.0085683 0 -3.73218e-05)
(0.0163328 0 -6.92906e-05)
(0.023114 0 -9.36438e-05)
(0.0290068 0 -0.000109585)
(0.0341011 0 -0.000116402)
(0.0384776 0 -0.000113363)
(0.0422072 0 -9.95788e-05)
(0.0453561 0 -7.40211e-05)
(0.0479903 0 -3.56428e-05)
(0.0501743 0 1.67305e-05)
(0.051965 0 8.44759e-05)
(0.0534144 0 0.000169108)
(0.0545717 0 0.000272327)
(0.0554855 0 0.000395949)
(0.0562054 0 0.0005417)
(0.0567761 0 0.000711412)
(0.0572417 0 0.000907001)
(0.0576529 0 0.00112991)
(0.0580584 0 0.00138107)
(0.0585039 0 0.00166076)
(0.0590344 0 0.0019682)
(0.0596883 0 0.00230132)
(0.0604958 0 0.0026563)
(0.061475 0 0.00302672)
(0.0626285 0 0.00340259)
(0.0639389 0 0.00376908)
(0.0653625 0 0.00410421)
(0.0668867 0 0.0043715)
(0.0685342 0 0.00452066)
(0.0690693 0 0.00473541)
(0 0 0)
(0.0086604 0 -4.32812e-05)
(0.0165152 0 -8.07049e-05)
(0.0233872 0 -0.000109926)
(0.0293753 0 -0.00013025)
(0.0345731 0 -0.000141063)
(0.0390619 0 -0.000141746)
(0.0429112 0 -0.00013148)
(0.0461928 0 -0.000109382)
(0.0489804 0 -7.4614e-05)
(0.0513386 0 -2.61531e-05)
(0.0533259 0 3.71574e-05)
(0.0549972 0 0.000116513)
(0.0564032 0 0.000213338)
(0.0575953 0 0.000329145)
(0.0586266 0 0.000465129)
(0.0595459 0 0.000622415)
(0.060402 0 0.000802354)
(0.0612485 0 0.00100589)
(0.0621352 0 0.0012333)
(0.0631132 0 0.00148406)
(0.0642342 0 0.0017566)
(0.0655388 0 0.00204853)
(0.0670574 0 0.00235631)
(0.0688061 0 0.00267473)
(0.0707792 0 0.00299611)
(0.0729399 0 0.00330902)
(0.0752114 0 0.00359533)
(0.0774979 0 0.00382001)
(0.0796976 0 0.00392891)
(0.0806896 0 0.0041064)
(0 0 0)
(0.00875643 0 -4.97268e-05)
(0.0167052 0 -9.30971e-05)
(0.0236715 0 -0.000127713)
(0.0297581 0 -0.00015302)
(0.0350624 0 -0.000168533)
(0.0396651 0 -0.000173748)
(0.0436367 0 -0.000168014)
(0.0470568 0 -0.000150664)
(0.050002 0 -0.000121029)
(0.0525369 0 -7.82877e-05)
(0.0547226 0 -2.15618e-05)
(0.0566158 0 4.99697e-05)
(0.0582679 0 0.000137327)
(0.0597337 0 0.00024161)
(0.0610685 0 0.000363524)
(0.0623268 0 0.000503369)
(0.0635656 0 0.000661481)
(0.0648362 0 0.000838118)
(0.0661882 0 0.00103286)
(0.0676778 0 0.00124446)
(0.0693625 0 0.00147022)
(0.0712894 0 0.00170677)
(0.0734914 0 0.00195062)
(0.0759885 0 0.00219754)
(0.0787769 0 0.00244264)
(0.0818143 0 0.00267981)
(0.0850017 0 0.00289915)
(0.0881552 0 0.00307345)
(0.0910005 0 0.003146)
(0.0926303 0 0.00329425)
(0 0 0)
(0.00885524 0 -5.66418e-05)
(0.0169005 0 -0.000106433)
(0.0239634 0 -0.000146952)
(0.0301504 0 -0.000177821)
(0.0355618 0 -0.000198712)
(0.0402793 0 -0.000209253)
(0.0443767 0 -0.000209029)
(0.0479379 0 -0.000197614)
(0.051041 0 -0.000174512)
(0.0537519 0 -0.000139154)
(0.0561337 0 -9.0993e-05)
(0.0582419 0 -2.95061e-05)
(0.0601305 0 4.57903e-05)
(0.0618598 0 0.000135337)
(0.0634872 0 0.000239323)
(0.06507 0 0.000357366)
(0.0666676 0 0.000488767)
(0.0683323 0 0.00063264)
(0.0701181 0 0.000787399)
(0.07208 0 0.000951095)
(0.0742782 0 0.00111995)
(0.076766 0 0.00128897)
(0.0795801 0 0.00145376)
(0.0827489 0 0.00161)
(0.0862792 0 0.00175453)
(0.0901406 0 0.00188694)
(0.0942407 0 0.00201061)
(0.0983404 0 0.00212074)
(0.101974 0 0.00216998)
(0.10474 0 0.00233754)
(0 0 0)
(0.00895567 0 -6.3998e-05)
(0.0170989 0 -0.000120654)
(0.0242594 0 -0.000167551)
(0.0305473 0 -0.000204524)
(0.0360654 0 -0.000231432)
(0.0408978 0 -0.000248052)
(0.0451219 0 -0.000254228)
(0.0488242 0 -0.000249809)
(0.0520834 0 -0.000234503)
(0.0549666 0 -0.000208002)
(0.0575372 0 -0.000170091)
(0.0598505 0 -0.000120632)
(0.0619652 0 -5.96896e-05)
(0.0639449 0 1.25152e-05)
(0.065848 0 9.55051e-05)
(0.0677319 0 0.000188222)
(0.0696545 0 0.000289121)
(0.0716713 0 0.000396104)
(0.0738383 0 0.000506194)
(0.0762112 0 0.000616032)
(0.0788486 0 0.000720742)
(0.0818007 0 0.000813781)
(0.085107 0 0.00088853)
(0.088802 0 0.000938443)
(0.0929025 0 0.000958412)
(0.0973959 0 0.000948375)
(0.102221 0 0.000921178)
(0.107149 0 0.00091291)
(0.111653 0 0.000937374)
(0.116896 0 0.0012932)
(0 0 0)
(0.00905709 0 -7.17862e-05)
(0.0172991 0 -0.000135773)
(0.024558 0 -0.000189543)
(0.0309469 0 -0.000233157)
(0.0365707 0 -0.000266708)
(0.0415173 0 -0.000290166)
(0.0458691 0 -0.000303636)
(0.0497123 0 -0.000307238)
(0.0531247 0 -0.000300914)
(0.0561748 0 -0.000284643)
(0.0589257 0 -0.000258481)
(0.0614355 0 -0.000222799)
(0.0637657 0 -0.000178246)
(0.0659796 0 -0.000125582)
(0.0681359 0 -6.59593e-05)
(0.0702913 0 -1.14228e-06)
(0.0725023 0 6.64639e-05)
(0.0748238 0 0.000133686)
(0.0773099 0 0.000196357)
(0.0800175 0 0.00024934)
(0.0829975 0 0.000286562)
(0.0862884 0 0.000300172)
(0.0899264 0 0.000280615)
(0.0939403 0 0.000217202)
(0.0983404 0 9.79524e-05)
(0.103107 0 -9.0199e-05)
(0.108169 0 -0.000361072)
(0.113304 0 -0.000728317)
(0.11813 0 -0.00128427)
(0.129065 0 0.000200451)
(0 0 0)
(0.00280858 0 0)
(0.00518549 0 0)
(0.00877279 0 0)
(0.0132435 0 0)
(0.0182881 0 0)
(0.0236209 0 0)
(0.0289906 0 0)
(0.0341911 0 0)
(0.0390663 0 0)
(0.0435048 0 0)
(0.0474334 0 0)
(0.0508081 0 0)
(0.0536043 0 0)
(0.0558092 0 0)
(0.0574161 0 0)
(0.0584206 0 0)
(0.0588183 0 0)
(0.0586022 0 0)
(0.0577621 0 0)
(0.0562829 0 0)
(0.0541452 0 0)
(0.0513241 0 0)
(0.0477904 0 0)
(0.0435098 0 0)
(0.0384437 0 0)
(0.0325499 0 0)
(0.0257829 0 0)
(0.0180951 0 0)
(0.00943459 0 0)
(0 0 0)
(0.00133586 0 -0.00145662)
(0.00374768 0 -0.00134519)
(0.00608416 0 -0.00133401)
(0.0096224 0 -0.00131933)
(0.0140418 0 -0.00130584)
(0.019032 0 -0.00129016)
(0.0243062 0 -0.00126834)
(0.029613 0 -0.00123781)
(0.034748 0 -0.00119791)
(0.0395577 0 -0.00114957)
(0.0439332 0 -0.0010946)
(0.0478031 0 -0.00103507)
(0.0511243 0 -0.000972902)
(0.053873 0 -0.000909834)
(0.0560364 0 -0.000847227)
(0.0576074 0 -0.000785921)
(0.0585811 0 -0.000726401)
(0.0589524 0 -0.000668949)
(0.0587142 0 -0.000613676)
(0.0578552 0 -0.000560523)
(0.0563603 0 -0.000509302)
(0.0542092 0 -0.000459724)
(0.051377 0 -0.000411416)
(0.0478337 0 -0.000363935)
(0.0435449 0 -0.000316762)
(0.0384718 0 -0.000269298)
(0.0325718 0 -0.000220848)
(0.0257992 0 -0.000170601)
(0.018106 0 -0.000117599)
(0.00944007 0 -6.067e-05)
(0 0 0)
(0.00425566 0 -0.00270819)
(0.0064263 0 -0.00261176)
(0.00869016 0 -0.00261257)
(0.0121141 0 -0.00260315)
(0.0163983 0 -0.00258872)
(0.0212358 0 -0.00256415)
(0.0263398 0 -0.00252365)
(0.0314611 0 -0.00246371)
(0.0364015 0 -0.002384)
(0.0410162 0 -0.00228716)
(0.0452042 0 -0.00217721)
(0.0488994 0 -0.00205841)
(0.0520619 0 -0.00193456)
(0.0546696 0 -0.0018091)
(0.0567098 0 -0.00168476)
(0.0581742 0 -0.00156309)
(0.0590563 0 -0.00144496)
(0.0593497 0 -0.00133092)
(0.0590454 0 -0.00122119)
(0.0581308 0 -0.00111564)
(0.056589 0 -0.00101389)
(0.0543984 0 -0.000915363)
(0.0515329 0 -0.000819321)
(0.0479614 0 -0.000724878)
(0.0436486 0 -0.000631008)
(0.0385547 0 -0.000536523)
(0.0326363 0 -0.000440042)
(0.025847 0 -0.000339954)
(0.0181381 0 -0.000234352)
(0.00945642 0 -0.000120909)
(0 0 0)
(0.00863188 0 -0.00381748)
(0.0105909 0 -0.00378559)
(0.0128074 0 -0.00382211)
(0.0161024 0 -0.0038399)
(0.0202021 0 -0.00383896)
(0.0248101 0 -0.00381312)
(0.0296461 0 -0.0037572)
(0.0344677 0 -0.00366839)
(0.0390904 0 -0.0035481)
(0.0433871 0 -0.00340198)
(0.04727 0 -0.00323682)
(0.0506813 0 -0.0030592)
(0.0535858 0 -0.00287449)
(0.0559647 0 -0.00268789)
(0.0578055 0 -0.00250355)
(0.059097 0 -0.00232333)
(0.0598305 0 -0.00214833)
(0.0599972 0 -0.00197935)
(0.0595856 0 -0.00181675)
(0.0585804 0 -0.00166026)
(0.0569622 0 -0.00150933)
(0.0547073 0 -0.00136307)
(0.0517874 0 -0.00122039)
(0.0481699 0 -0.00108)
(0.0438177 0 -0.000940353)
(0.0386898 0 -0.000799706)
(0.0327416 0 -0.000656009)
(0.0259251 0 -0.000506868)
(0.0181905 0 -0.000349453)
(0.0094831 0 -0.000180304)
(0 0 0)
(0.0141958 0 -0.00486268)
(0.0160348 0 -0.00490503)
(0.0182441 0 -0.00498688)
(0.0214223 0 -0.00504188)
(0.0253125 0 -0.00506075)
(0.0296327 0 -0.00503592)
(0.0341104 0 -0.00496297)
(0.0385206 0 -0.00484184)
(0.04271 0 -0.00467814)
(0.0465764 0 -0.00448107)
(0.0500482 0 -0.00426035)
(0.0530786 0 -0.00402492)
(0.0556392 0 -0.00378176)
(0.0577137 0 -0.00353692)
(0.0592874 0 -0.00329524)
(0.0603466 0 -0.00305917)
(0.0608799 0 -0.00282978)
(0.0608756 0 -0.0026082)
(0.0603194 0 -0.00239501)
(0.0591918 0 -0.0021897)
(0.0574703 0 -0.00199151)
(0.0551282 0 -0.00179927)
(0.0521346 0 -0.00161156)
(0.0484545 0 -0.00142666)
(0.0440488 0 -0.00124257)
(0.0388746 0 -0.00105701)
(0.0328854 0 -0.000867276)
(0.0260318 0 -0.000670228)
(0.0182622 0 -0.000462145)
(0.00951957 0 -0.00023847)
(0 0 0)
(0.0208033 0 -0.00591598)
(0.0226024 0 -0.00601944)
(0.0248436 0 -0.00614322)
(0.02792 0 -0.00623108)
(0.0315817 0 -0.00626453)
(0.0355529 0 -0.00623353)
(0.0395748 0 -0.0061345)
(0.0434678 0 -0.00597321)
(0.0471224 0 -0.0057612)
(0.0504612 0 -0.00551082)
(0.053432 0 -0.00523434)
(0.0560005 0 -0.00494258)
(0.0581467 0 -0.00464431)
(0.0598533 0 -0.00434539)
(0.0611024 0 -0.00405019)
(0.0618797 0 -0.00376207)
(0.0621705 0 -0.00348231)
(0.0619592 0 -0.00321187)
(0.0612261 0 -0.00295109)
(0.0599484 0 -0.00269961)
(0.0581001 0 -0.00245665)
(0.0556505 0 -0.00222067)
(0.052566 0 -0.00198997)
(0.0488085 0 -0.00176242)
(0.0443364 0 -0.00153561)
(0.0391046 0 -0.00130672)
(0.0330646 0 -0.00107247)
(0.0261648 0 -0.000828996)
(0.0183514 0 -0.00057172)
(0.00956499 0 -0.000295045)
(0 0 0)
(0.0283842 0 -0.0070297)
(0.0301919 0 -0.00716807)
(0.0324868 0 -0.00732096)
(0.0354582 0 -0.00742563)
(0.0388506 0 -0.00745702)
(0.0423914 0 -0.00740327)
(0.0458633 0 -0.00726478)
(0.0491514 0 -0.00705453)
(0.0521845 0 -0.00678855)
(0.0549141 0 -0.00648237)