/*--------------------------------*- C++ -*----------------------------------*\
| =========                 |                                                 |
| \\      /  F ield         | OpenFOAM: The Open Source CFD Toolbox           |
|  \\    /   O peration     | Version:  dev                                   |
|   \\  /    A nd           | Web:      www.OpenFOAM.org                      |
|    \\/     M anipulation  |                                                 |
\*---------------------------------------------------------------------------*/
FoamFile
{
    version     2.0;
    format      ascii;
    class       volVectorField;
    location    "0.56";
    object      Force;
}
// * * * * * * * * * * * * * * * * * * * * * * * * * * * * * * * * * * * * * //

dimensions      [1 1 -2 0 0 0 0];

internalField   uniform (0 0 0);

boundaryField
{
    inlet
    {
        type            calculated;
        value           nonuniform 0();
    }
    outlet
    {
        type            calculated;
        value           nonuniform 0();
    }
    flap
    {
        type            calculated;
        value           nonuniform List<vector> 
33
(
(3.91126 6.6102e-21 -9.91058)
(4.58761 4.37128e-17 3.61684)
(3.478 -2.73661e-18 -0.390947)
(4.41143 6.30307e-22 -0.270951)
(3.61039 -1.38581e-17 -0.0798847)
(4.41491 1.79164e-17 0.0305816)
(4.17728 -1.70512e-17 -0.161287)
(3.76879 -3.03579e-24 -0.0867626)
(4.18611 -6.76982e-22 -0.211023)
(3.98534 3.49316e-22 0.0686951)
(4.15978 1.93836e-21 -0.581113)
(2.96413 1.05339e-17 1.41714)
(3.61154 -4.2283e-17 -0.388418)
(5.15971 6.58182e-21 -4.57186)
(14.6883 2.05892e-20 4.95463)
(-0.0435192 4.25825e-18 0.19657)
(0.577558 2.16879e-18 0.514837)
(0.994946 1.69954e-17 0.806472)
(0.160849 9.18355e-40 -0.498071)
(0.382268 7.50042e-23 0.145666)
(0.279148 1.48122e-17 -0.042549)
(0.3553 -1.21507e-23 0.0123411)
(0.427213 2.27136e-21 0.00288155)
(0.527343 1.75665e-24 -0.0332716)
(0.644779 1.64018e-17 0.0176417)
(0.7896 -1.43852e-22 0.00808742)
(0.807202 2.9535e-23 -0.0750735)
(0.940689 -2.43744e-23 0.0691005)
(0.951848 1.51572e-17 -0.0792329)
(1.07754 -1.53121e-17 0.0699527)
(1.25579 2.36654e-21 0.272969)
(1.57082 1.06847e-17 -0.685455)
(4.63315 5.75745e-17 1.46165)
)
;
    }
    upperWall
    {
        type            calculated;
        value           nonuniform 0();
    }
    lowerWall
    {
        type            calculated;
        value           uniform (0 0 0);
    }
    frontAndBack
    {
        type            empty;
    }
    procBoundary4to1
    {
        type            processor;
        value           uniform (0 0 0);
    }
    procBoundary4to2
    {
        type            processor;
        value           uniform (0 0 0);
    }
    procBoundary4to3
    {
        type            processor;
        value           uniform (0 0 0);
    }
    procBoundary4to5
    {
        type            processor;
        value           uniform (0 0 0);
    }
}


// ************************************************************************* //
