/*--------------------------------*- C++ -*----------------------------------*\
| =========                 |                                                 |
| \\      /  F ield         | OpenFOAM: The Open Source CFD Toolbox           |
|  \\    /   O peration     | Version:  dev                                   |
|   \\  /    A nd           | Web:      www.OpenFOAM.org                      |
|    \\/     M anipulation  |                                                 |
\*---------------------------------------------------------------------------*/
FoamFile
{
    version     2.0;
    format      ascii;
    class       volScalarField;
    location    "5";
    object      p;
}
// * * * * * * * * * * * * * * * * * * * * * * * * * * * * * * * * * * * * * //

dimensions      [0 2 -2 0 0 0 0];

internalField   nonuniform List<scalar> 
465
(
-0.275465
-1.49015
-1.09191
-1.41438
-0.405408
0.314332
0.366512
0.0854662
0.172739
-0.213942
-0.925041
2.59087
1.83314
1.2975
0.78464
0.482362
0.781559
1.33608
5.29181
4.13874
3.2692
2.61474
2.18024
2.02738
2.01544
1.81683
1.4404
8.42911
6.96818
5.79644
4.8654
4.14767
3.65535
3.33267
3.02717
2.71153
2.59542
11.7924
10.0796
8.63632
7.43437
6.45413
5.68765
5.09462
4.59566
4.16852
3.90255
3.86136
3.93448
15.169
13.2707
11.6164
10.1915
8.9814
7.9709
7.13193
6.42524
5.83655
5.39572
5.1192
4.94524
4.77613
18.4123
16.3947
14.5905
12.9928
11.5916
10.3746
9.32426
8.41972
7.64847
7.01325
6.51117
6.10743
5.74895
5.40781
5.08885
21.4344
19.3518
17.4496
15.7265
14.1774
12.7943
11.5666
10.4816
9.52824
8.70033
7.98883
7.37083
6.81255
6.28625
5.77552
5.25535
24.1928
22.0853
20.1268
18.3193
16.6616
15.1493
13.7762
12.534
11.4142
10.4084
9.50607
8.6896
7.93454
7.21599
6.51146
5.79315
5.01866
4.134
26.677
24.573
22.5891
20.7298
18.9958
17.3858
15.8965
14.5228
13.2581
12.0946
11.0222
10.0264
9.08842
8.18683
7.29942
6.40044
5.45744
4.43406
3.30077
28.8958
26.8144
24.8274
22.9402
21.1554
19.4735
17.8934
16.4123
15.0253
13.7259
12.5051
11.3512
10.2489
9.18062
8.12662
7.06505
5.97132
4.82061
3.59466
2.29232
30.8676
28.8208
26.8456
24.9479
23.1315
21.3985
19.749
18.1818
16.6935
15.279
13.9309
12.6397
11.393
10.1763
8.97314
7.7657
6.53514
5.26378
3.93929
2.56079
1.14864
32.6136
30.6082
28.6546
26.7588
24.9256
23.1578
21.4564
19.8212
18.2501
16.7394
15.2832
13.8739
12.5013
11.1539
9.81795
8.47915
7.12265
5.73491
4.30624
2.83397
1.34024
34.1547
32.1943
30.2686
28.384
26.545
24.7549
23.0155
21.3274
19.6894
18.0988
16.5514
15.0408
13.5591
12.0967
10.6426
9.18486
7.71138
6.2109
4.67454
3.09716
1.49986
35.5105
33.5963
31.7028
29.8355
27.9987
26.1961
24.4299
22.7012
21.0096
19.3533
17.7291
16.132
14.5557
12.9923
11.4327
9.86683
8.28439
6.67528
5.03055
3.34272
1.63034
36.6991
34.831
32.9716
31.1254
29.2966
27.4889
25.7048
23.9457
22.2117
20.5016
18.813
17.1422
15.484
13.8318
12.1779
10.5137
8.83008
7.11743
5.36648
3.56792
1.73714
37.737
35.9136
34.0884
32.2654
30.4487
28.6414
26.8462
25.0648
23.2976
21.5438
19.8016
18.0681
16.339
14.6088
12.871
11.1178
9.34073
7.53072
5.67811
3.77236
1.82572
38.639
36.8576
35.0657
33.2669
31.4646
29.6616
27.8603
26.0632
24.2706
22.4815
20.6948
18.9082
17.1181
15.3198
13.5075
11.6741
9.81184
7.91168
5.96383
3.95709
1.9007
39.4171
37.6745
35.9141
34.1391
32.3525
30.5563
28.7529
26.945
25.133
23.3158
21.4925
19.6611
17.8188
15.9614
14.0835
12.1788
10.2395
8.25722
6.22189
4.12209
1.9644
40.0832
38.3756
36.6443
34.892
33.1211
31.3334
29.5308
27.7156
25.8889
24.0497
22.1965
20.3279
18.4414
16.5332
14.5984
12.6308
10.6233
8.56743
6.45331
4.26944
2.01968
40.644
38.9673
37.2623
35.5308
33.7748
31.9961
30.196
28.3763
26.5386
24.6822
22.805
20.9056
18.9821
17.0308
15.0471
13.0252
10.9581
8.83765
6.65403
4.39592
2.06492
41.1117
39.4617
37.7796
36.0663
34.3239
32.554
30.7574
28.9356
27.0901
25.2201
23.3239
21.3999
19.446
17.459
15.4345
13.3668
11.2492
9.07353
6.83017
4.50788
2.10532
41.4829
39.8549
38.1913
36.4933
34.7624
33.0001
31.2071
29.3846
27.5332
25.6527
23.7416
21.7982
19.8201
17.8044
15.7467
13.6416
11.4824
9.26108
6.96824
4.59299
2.13237
41.7783
40.1674
38.5186
36.8328
35.1114
33.3557
31.5663
29.7435
27.8879
25.9999
24.0783
22.1205
20.1242
18.0866
16.0035
13.8695
11.678
9.42092
7.08885
4.67074
2.16026
41.9682
40.3685
38.7294
37.0519
35.3369
33.5856
31.7987
29.9757
28.117
26.2241
24.2956
22.328
20.3191
18.2665
16.1659
14.012
11.7979
9.51576
7.15596
4.70792
2.1651
42.1034
40.5099
38.8762
37.203
35.4913
33.7421
31.956
30.1325
28.272
26.3761
24.4432
22.4701
20.4543
18.3933
16.2831
14.118
11.8914
9.59461
7.21728
4.74625
2.16545
)
;

boundaryField
{
    inlet
    {
        type            zeroGradient;
    }
    outlet
    {
        type            fixedValue;
        value           uniform 0;
    }
    flap
    {
        type            zeroGradient;
    }
    upperWall
    {
        type            zeroGradient;
    }
    lowerWall
    {
        type            zeroGradient;
    }
    frontAndBack
    {
        type            empty;
    }
    procBoundary2to1
    {
        type            processor;
        value           nonuniform List<scalar> 
17
(
28.8945
31.0644
32.979
34.6639
36.1433
37.4389
38.5701
39.554
40.406
41.1387
41.7644
42.29
42.7277
43.0745
43.3506
43.5279
43.656
)
;
    }
    procBoundary2to4
    {
        type            processor;
        value           nonuniform List<scalar> 
11
(
0.225014
-0.0491349
1.21534
3.66466
6.74346
10.1975
13.7932
17.3224
20.6475
23.6966
26.4446
)
;
    }
    procBoundary2to5
    {
        type            processor;
        value           nonuniform List<scalar> 
34
(
-0.758688
-1.05861
-1.45748
-1.45748
-0.644245
-0.360614
-0.360614
-0.518913
-0.518913
1.0719
1.26116
1.26116
0.440177
1.43534
1.43534
2.80501
2.80501
3.12836
3.93481
3.93481
4.58546
4.58546
4.42902
4.78034
4.78034
4.67102
4.67102
3.94313
3.09066
3.09066
2.052
2.052
0.928113
0.928113
)
;
    }
}


// ************************************************************************* //
