/*--------------------------------*- C++ -*----------------------------------*\
| =========                 |                                                 |
| \\      /  F ield         | OpenFOAM: The Open Source CFD Toolbox           |
|  \\    /   O peration     | Version:  dev                                   |
|   \\  /    A nd           | Web:      www.OpenFOAM.org                      |
|    \\/     M anipulation  |                                                 |
\*---------------------------------------------------------------------------*/
FoamFile
{
    version     2.0;
    format      ascii;
    class       surfaceVectorField;
    location    "5";
    object      Uf;
}
// * * * * * * * * * * * * * * * * * * * * * * * * * * * * * * * * * * * * * //

dimensions      [0 1 -1 0 0 0 0];

internalField   nonuniform List<vector> 
881
(
(-0.608988 0 -0.413321)
(2.16397 0 0.74136)
(1.59079 8.12095e-22 0.222628)
(4.56067 8.15528e-22 1.22951)
(6.73308 0 1.84939)
(3.41687 -1.80438e-20 0.769189)
(5.92336 8.36002e-22 1.46245)
(2.02935 4.34399e-21 0.23554)
(4.87192 3.94391e-22 1.13947)
(3.49235 8.58386e-22 0.841943)
(8.14129 0 2.18898)
(9.83058 -6.00874e-21 2.76879)
(7.30095 1.18923e-21 1.81419)
(9.11879 4.5315e-21 2.38976)
(6.47375 2.11989e-21 1.50505)
(8.37649 -9.31753e-22 2.05316)
(5.69566 1.8234e-21 1.2222)
(7.60286 1.59348e-20 1.72246)
(6.90819 -3.32765e-20 1.37916)
(10.8408 -1.60154e-21 2.98635)
(12.0475 7.89481e-21 3.45029)
(10.2142 3.53045e-21 2.63385)
(11.5292 9.27363e-22 3.09421)
(9.57894 -1.97683e-21 2.30987)
(10.9815 -5.50138e-21 2.76355)
(8.92608 -1.56129e-21 1.98416)
(10.4115 -8.2778e-21 2.44819)
(8.22982 -7.12298e-22 1.66279)
(9.82753 -7.15804e-22 2.14053)
(7.49992 5.2621e-21 1.40267)
(9.21197 -1.4254e-21 1.86382)
(8.56228 7.85195e-21 1.64135)
(12.764 1.04694e-20 3.57281)
(13.5667 2.77783e-20 3.91251)
(12.325 -8.77192e-21 3.24523)
(13.2315 -4.40527e-21 3.59757)
(11.8562 -1.19353e-20 2.93169)
(12.8572 4.35579e-22 3.29607)
(11.3601 -7.58301e-21 2.62718)
(12.4509 -3.11232e-21 3.00653)
(10.8334 -1.43273e-21 2.34298)
(12.0167 0 2.7269)
(10.2856 1.8002e-21 2.09954)
(11.5544 -1.15949e-20 2.46866)
(9.74082 5.43966e-21 1.88806)
(11.0724 -1.31596e-20 2.24325)
(9.20484 6.82863e-22 1.6661)
(10.5848 1.16741e-21 2.03336)
(10.0998 1.05032e-20 1.81082)
(14.0536 1.32355e-20 3.95289)
(14.5361 -1.34222e-21 4.18227)
(13.7843 6.20423e-21 3.6656)
(14.3587 1.45008e-20 3.91613)
(13.477 1.13963e-20 3.38625)
(14.139 6.34473e-21 3.65445)
(13.1362 5.17071e-21 3.11645)
(13.8827 5.19544e-21 3.39918)
(12.7628 -1.01826e-20 2.86149)
(13.5933 -1.77802e-20 3.15192)
(12.3635 -3.06669e-20 2.62795)
(13.2732 7.52553e-22 2.91896)
(11.9522 -2.10309e-20 2.41163)
(12.9292 -5.45816e-21 2.70532)
(11.5326 9.05731e-21 2.19778)
(12.5704 0 2.50389)
(11.0903 9.19425e-21 1.98389)
(12.198 -1.20285e-20 2.30266)
(11.8017 -1.15325e-20 2.10604)
(14.8523 -5.25301e-22 4.15625)
(15.0937 -4.16887e-21 4.29194)
(14.7263 1.48267e-20 3.91614)
(15.0426 -1.70206e-20 4.07526)
(14.5605 0 3.67834)
(14.9514 4.81813e-20 3.85724)
(14.3583 -1.78704e-20 3.44562)
(14.8233 0 3.64102)
(14.1223 -5.53747e-21 3.22152)
(14.6611 -9.24634e-21 3.42939)
(13.8575 3.03363e-20 3.00982)
(14.4676 1.31467e-20 3.22621)
(13.5717 1.79033e-20 2.81019)
(14.2475 3.80571e-20 3.03435)
(13.2676 -2.12008e-20 2.61776)
(14.0058 2.53585e-20 2.8518)
(12.9394 -3.31228e-20 2.43147)
(13.7435 -1.76796e-20 2.67457)
(12.5832 4.21631e-21 2.2589)
(13.4567 -1.42684e-21 2.50529)
(12.2066 3.55369e-21 2.10726)
(13.1443 1.23739e-20 2.3528)
(12.8129 -1.24604e-20 2.22067)
(15.2893 -2.09688e-20 4.21704)
(15.3609 7.07193e-22 4.27804)
(15.2747 1.55951e-20 4.02335)
(15.4031 -3.27704e-20 4.10682)
(15.2233 4.92467e-20 3.82771)
(15.4104 3.37219e-20 3.931)
(15.1371 9.62577e-21 3.63319)
(15.3844 0 3.75371)
(15.0185 9.78675e-21 3.44292)
(15.3268 9.83602e-21 3.57779)
(14.8707 2.01651e-20 3.25983)
(15.2397 1.17386e-20 3.40617)
(14.6979 4.59891e-20 3.08491)
(15.1257 -4.46621e-20 3.24119)
(14.502 3.0444e-20 2.91706)
(14.9879 3.25251e-20 3.0832)
(14.2815 1.58368e-20 2.75657)
(14.8271 1.40474e-20 2.93167)
(14.0356 6.60115e-21 2.60757)
(14.6425 1.13493e-20 2.7885)
(13.7685 -2.97896e-21 2.47448)
(14.4344 -2.12469e-20 2.65817)
(13.4855 1.9337e-20 2.35687)
(14.2067 -2.58195e-20 2.54329)
(13.9629 6.98957e-21 2.44197)
(15.4762 -1.07903e-20 4.17048)
(15.4375 -6.0933e-20 4.1762)
(15.5415 -1.61786e-20 4.01814)
(15.5425 4.9461e-20 4.04358)
(15.5757 -1.64508e-20 3.86152)
(15.6196 -1.65287e-20 3.90495)
(15.5797 0 3.70344)
(15.6691 0 3.76297)
(15.5548 1.18005e-20 3.54665)
(15.6915 0 3.62021)
(15.5028 -5.433e-20 3.39362)
(15.6879 1.20543e-20 3.47915)
(15.4259 -6.1794e-20 3.2459)
(15.6599 -6.97624e-20 3.34194)
(15.3254 1.51809e-20 3.10416)
(15.609 -1.26581e-20 3.20987)
(15.2014 9.49512e-21 2.96959)
(15.5359 3.19755e-20 3.08379)
(15.0544 -1.6579e-20 2.84492)
(15.441 -9.26097e-21 2.96541)
(14.8865 -4.46424e-20 2.73295)
(15.325 7.82879e-21 2.85751)
(14.7008 -4.00593e-20 2.63438)
(15.1901 -1.40804e-20 2.76219)
(14.4984 -1.20065e-20 2.54837)
(15.0387 -1.20913e-20 2.67962)
(14.2784 0 2.47542)
(14.8716 6.46833e-21 2.60946)
(14.689 -1.94893e-20 2.5531)
(15.503 -1.51658e-21 4.04949)
(15.3993 -5.14026e-20 4.01706)
(15.6206 5.05277e-20 3.93144)
(15.5426 5.07615e-20 3.91523)
(15.7139 0 3.80823)
(15.6648 0 3.80718)
(15.7827 0 3.68223)
(15.7656 -4.03336e-20 3.69507)
(15.8275 0 3.55579)
(15.8447 7.60657e-20 3.5811)
(15.8491 -1.37438e-21 3.43107)
(15.9026 -3.24715e-21 3.4674)
(15.8484 -2.06774e-20 3.30985)
(15.9397 -4.31267e-21 3.35592)
(15.8264 3.01621e-21 3.19349)
(15.9569 -4.51168e-20 3.24824)
(15.7834 1.35718e-20 3.08352)
(15.9547 4.90798e-20 3.14571)
(15.7201 1.56994e-20 2.98196)
(15.9337 -3.0951e-20 3.04997)
(15.638 4.03668e-20 2.89091)
(15.8945 4.69954e-20 2.96305)
(15.5391 1.49606e-20 2.81155)
(15.8387 3.26149e-20 2.88672)
(15.4248 6.51423e-21 2.74432)
(15.7681 -1.73956e-20 2.82187)
(15.2958 -1.29384e-20 2.68998)
(15.684 2.26017e-20 2.76892)
(15.1539 -4.33781e-20 2.65002)
(15.5876 -7.3798e-21 2.72876)
(15.4812 -2.62793e-20 2.70248)
(15.4368 0 3.88131)
(15.2995 1.41408e-19 3.82396)
(15.5851 0 3.79018)
(15.4631 -1.13712e-19 3.74572)
(15.7154 -4.05339e-20 3.6939)
(15.6116 5.37617e-20 3.66166)
(15.8271 3.5167e-20 3.59444)
(15.7442 -4.13969e-20 3.57356)
(15.92 7.45226e-20 3.49376)
(15.8604 7.80788e-20 3.48327)
(15.9943 -6.13383e-21 3.39377)
(15.9601 -3.33334e-21 3.39259)
(16.0502 -2.85649e-20 3.29619)
(16.0433 2.99696e-20 3.30325)
(16.0883 1.73715e-23 3.20254)
(16.1104 -8.75659e-20 3.21682)
(16.1089 5.0225e-21 3.11437)
(16.1618 -3.15508e-21 3.13475)
(16.1127 -6.73932e-22 3.03342)
(16.1978 2.189e-21 3.05858)
(16.1007 3.93261e-20 2.96138)
(16.2191 -2.15293e-21 2.98995)
(16.0743 5.77595e-22 2.89954)
(16.2269 1.80212e-20 2.93038)
(16.0351 -1.66197e-21 2.84873)
(16.2226 -1.78578e-20 2.88091)
(15.9844 2.89904e-20 2.80968)
(16.2076 1.03528e-21 2.8422)
(15.9241 1.05148e-20 2.78307)
(16.1835 1.29642e-20 2.81485)
(15.857 -2.37703e-20 2.76896)
(16.1522 3.47721e-20 2.79917)
(15.7867 -4.22632e-21 2.76586)
(16.1167 -6.40277e-21 2.79453)
(16.08 6.24746e-21 2.79863)
(15.3231 3.01393e-20 3.68589)
(15.1714 3.76943e-19 3.61269)
(15.487 -6.21348e-20 3.61526)
(15.3437 -2.42472e-19 3.55229)
(15.638 5.49067e-20 3.53992)
(15.5055 5.51638e-20 3.48665)
(15.7755 0 3.4615)
(15.6558 4.84376e-20 3.41731)
(15.899 0 3.38167)
(15.7941 -7.17772e-20 3.34582)
(16.0082 3.31333e-20 3.30206)
(15.9201 -6.18268e-20 3.2737)
(16.1033 -2.8109e-20 3.22423)
(16.0338 3.70628e-20 3.20246)
(16.1844 -9.28594e-20 3.14964)
(16.1351 5.4843e-21 3.13353)
(16.2517 -6.17416e-21 3.07977)
(16.2242 -3.40731e-20 3.06831)
(16.306 7.26276e-22 3.01611)
(16.3016 2.48457e-20 3.00819)
(16.3478 -2.44309e-20 2.96011)
(16.3679 -2.20105e-20 2.95459)
(16.3785 0 2.91298)
(16.4239 2.38027e-20 2.90879)
(16.3993 -1.55887e-20 2.87559)
(16.4707 0 2.87178)
(16.4115 -1.578e-20 2.84855)
(16.5097 -1.58913e-20 2.84424)
(16.4171 3.7684e-20 2.83215)
(16.5424 0 2.82658)
(16.4182 5.3915e-20 2.82608)
(16.5705 2.5636e-20 2.81879)
(16.4174 3.94322e-21 2.82889)
(16.5961 -7.69355e-21 2.82011)
(16.4169 1.3656e-21 2.83771)
(16.6212 -1.21737e-20 2.82866)
(16.6474 -1.28699e-20 2.84138)
(15.1891 1.10416e-19 3.47611)
(15.0335 1.21019e-19 3.39265)
(15.3593 -1.28477e-19 3.42111)
(15.2079 1.25574e-19 3.34592)
(15.5203 4.86725e-20 3.36189)
(15.3749 -8.42789e-21 3.29454)
(15.6717 -2.26317e-20 3.29986)
(15.5337 4.17308e-20 3.23981)
(15.8129 -1.3544e-19 3.23645)
(15.684 -7.94201e-20 3.18305)
(15.9436 -5.99366e-20 3.17303)
(15.8254 -6.53522e-20 3.12557)
(16.0639 7.22269e-20 3.111)
(15.9577 4.24308e-20 3.06866)
(16.1737 6.68146e-20 3.05169)
(16.081 3.18075e-20 3.01365)
(16.2734 -3.35428e-21 2.99645)
(16.1953 -3.37356e-21 2.96179)
(16.3633 2.58979e-21 2.94659)
(16.3011 3.17973e-20 2.91434)
(16.4442 2.64591e-20 2.90335)
(16.3988 -5.19249e-20 2.87252)
(16.5169 2.42764e-20 2.86779)
(16.4891 -2.46689e-20 2.83742)
(16.5826 0 2.84072)
(16.5731 2.31103e-20 2.80993)
(16.6426 0 2.82263)
(16.6519 0 2.79068)
(16.6984 -1.30126e-20 2.81367)
(16.7267 0 2.77997)
(16.7517 -3.71369e-20 2.81342)
(16.7991 -6.5809e-21 2.7777)
(16.8042 -2.42368e-20 2.82066)
(16.8705 -2.81285e-21 2.7832)
(16.8573 -2.72541e-20 2.83328)
(16.9423 -5.41536e-21 2.79504)
(16.9114 -2.75195e-20 2.8485)
(17.0152 5.80425e-22 2.8111)
(17.0891 0 2.82899)
(15.0491 1.36413e-19 3.25923)
(14.8948 -1.38239e-19 3.16885)
(15.2203 2.51552e-19 3.21642)
(15.0678 2.61212e-19 3.13286)
(15.3852 -1.65886e-20 3.16983)
(15.2357 -1.26514e-19 3.09273)
(15.5431 -1.39354e-20 3.12067)
(15.3978 1.08031e-19 3.04954)
(15.6937 -7.85097e-21 3.07013)
(15.5539 -3.0867e-20 3.00442)
(15.8368 3.73411e-20 3.01943)
(15.7036 -3.27539e-22 2.95849)
(15.9724 1.15052e-21 2.9698)
(15.8467 4.01387e-20 2.91291)
(16.1004 -3.94226e-20 2.92246)
(15.9834 -3.96384e-20 2.86883)
(16.2212 3.19833e-20 2.8786)
(16.1136 -3.43399e-20 2.82742)
(16.335 -2.25194e-20 2.83938)
(16.2379 3.5546e-20 2.78976)
(16.4425 -1.05146e-19 2.80586)
(16.3565 -2.81329e-20 2.75692)
(16.5446 -2.69283e-20 2.77897)
(16.4702 -2.53512e-20 2.72985)
(16.6421 2.35656e-20 2.75942)
(16.5798 2.37208e-20 2.70934)
(16.7361 0 2.74764)
(16.6863 0 2.69593)
(16.828 6.72572e-21 2.74373)
(16.7908 -1.87629e-20 2.6899)
(16.9191 2.89873e-20 2.74732)
(16.8945 6.85371e-21 2.69118)
(17.0104 1.69551e-20 2.75753)
(16.9985 9.20174e-21 2.69927)
(17.103 2.34154e-20 2.77287)
(17.1036 -1.07461e-21 2.71317)
(17.1968 2.92247e-20 2.79156)
(17.2105 1.22693e-20 2.73152)
(17.291 -4.47055e-21 2.81148)
(17.3185 -1.10954e-21 2.75282)
(17.4552 -5.56807e-21 2.77562)
(14.9104 -1.86564e-20 3.03914)
(14.7601 -8.16977e-22 2.9439)
(15.08 -1.18419e-19 3.00603)
(14.9299 0 2.91647)
(15.2452 -3.60522e-21 2.96952)
(15.0964 -1.20919e-19 2.88532)
(15.4055 9.37191e-20 2.93061)
(15.2589 1.19226e-19 2.85138)
(15.5607 -2.36304e-20 2.89034)
(15.4172 2.06032e-21 2.8156)
(15.7105 1.74849e-21 2.84976)
(15.571 -1.17352e-19 2.77897)
(15.8549 0 2.80994)
(15.7201 1.57795e-19 2.74246)
(15.994 -3.45314e-20 2.77199)
(15.8646 -1.25836e-19 2.7071)
(16.1279 -3.2182e-20 2.73694)
(16.0047 -1.54329e-20 2.67389)
(16.2571 3.11038e-20 2.70584)
(16.1405 3.57669e-20 2.64383)
(16.3822 5.37842e-20 2.67959)
(16.2727 5.78663e-20 2.61782)
(16.5037 2.55973e-20 2.65903)
(16.4018 -3.43113e-21 2.59672)
(16.6227 0 2.64476)
(16.5284 0 2.58121)
(16.7399 -1.8891e-20 2.6372)
(16.6535 -2.26543e-20 2.57179)
(16.8566 -1.91252e-20 2.63645)
(16.778 -1.87821e-20 2.56875)
(16.9736 -1.34431e-20 2.6423)
(16.9028 1.75551e-20 2.57209)
(17.0918 -9.08168e-21 2.65413)
(17.0289 -8.70661e-21 2.58149)
(17.212 -1.30093e-20 2.67102)
(17.157 2.09222e-20 2.59635)
(17.334 -1.89221e-20 2.69189)
(17.2873 -1.79044e-20 2.61582)
(17.4574 -1.35767e-21 2.71553)
(17.4193 -2.12233e-21 2.63908)
(17.5885 4.81114e-21 2.6656)
(14.7766 1.82449e-20 2.81787)
(14.6311 1.63047e-19 2.71899)
(14.9433 0 2.79257)
(14.7972 -2.77198e-19 2.69847)
(15.107 0 2.76416)
(14.9611 7.64065e-21 2.67459)
(15.2675 2.76677e-20 2.73353)
(15.1225 1.23233e-19 2.64813)
(15.4244 -9.15225e-20 2.70157)
(15.281 -2.69822e-20 2.61994)
(15.5775 3.7012e-20 2.6692)
(15.4364 -2.20699e-19 2.59087)
(15.7269 3.46473e-20 2.63731)
(15.5887 3.05982e-19 2.56177)
(15.8725 -1.08568e-19 2.60686)
(15.7377 -1.07056e-19 2.53348)
(16.0146 5.31866e-20 2.57878)
(15.8837 1.91831e-20 2.50687)
(16.1535 6.28416e-20 2.55395)
(16.0269 5.20286e-20 2.48281)
(16.2898 4.50719e-22 2.53321)
(16.1678 -1.33571e-21 2.46211)
(16.4241 -2.97741e-20 2.51727)
(16.3068 -5.99221e-20 2.44552)
(16.5572 -2.28014e-20 2.5067)
(16.4446 -2.19893e-21 2.43365)
(16.6897 -2.25474e-20 2.50188)
(16.5819 -2.54643e-20 2.42697)
(16.8227 1.81604e-20 2.50298)
(16.7196 5.62749e-22 2.42578)
(16.9569 2.30153e-20 2.50991)
(16.8585 1.8017e-20 2.43017)
(17.0931 2.16473e-20 2.52234)
(16.9992 3.34183e-20 2.44)
(17.2318 1.6629e-20 2.53972)
(17.1424 -4.92725e-21 2.45493)
(17.3731 -9.91252e-22 2.56148)
(17.2886 0 2.47454)
(17.5167 2.83165e-21 2.58702)
(17.4369 -1.24841e-20 2.4984)
(17.6287 5.91224e-21 2.52657)
(14.6488 -1.30634e-19 2.59623)
(14.5083 1.48443e-19 2.4944)
(14.8122 -2.75391e-19 2.57727)
(14.6705 -1.65477e-19 2.4795)
(14.9737 1.3164e-19 2.55548)
(14.8315 4.81129e-22 2.46158)
(15.133 7.04188e-20 2.53161)
(14.991 1.0174e-21 2.44127)
(15.2901 -1.55357e-19 2.50646)
(15.1487 -2.89213e-20 2.41931)
(15.4446 4.40893e-20 2.4808)
(15.3044 -2.02253e-19 2.39647)
(15.5966 1.69216e-19 2.45543)
(15.4581 2.48591e-19 2.37345)
(15.746 2.13519e-20 2.43111)
(15.6096 -8.43185e-20 2.35098)
(15.8932 1.72846e-20 2.40864)
(15.7593 4.06534e-21 2.32977)
(16.0384 -1.26585e-20 2.38883)
(15.9072 1.13293e-19 2.31059)
(16.1821 -6.20183e-20 2.37238)
(16.0537 -9.90383e-20 2.29414)
(16.3247 -3.27808e-20 2.35994)
(16.1993 3.01058e-20 2.28108)
(16.467 -4.37828e-21 2.35203)
(16.3446 -1.6435e-21 2.27197)
(16.6096 -2.2283e-21 2.34904)
(16.4901 -1.47283e-21 2.26726)
(16.7533 0 2.35117)
(16.6365 1.92814e-20 2.26724)
(16.8988 2.845e-20 2.35846)
(16.7847 -3.72482e-20 2.27208)
(17.0468 6.86102e-21 2.37078)
(16.9351 2.99057e-20 2.28179)
(17.1978 -2.2197e-20 2.38787)
(17.0885 -2.23544e-20 2.29623)
(17.352 -1.15603e-20 2.40947)
(17.2452 0 2.31523)
(17.5094 -1.17143e-20 2.43536)
(17.4046 -5.93718e-22 2.33864)
(17.6118 5.68684e-21 2.36682)
(14.5272 1.1938e-19 2.37434)
(14.3917 0 2.27015)
(14.687 1.14e-19 2.36057)
(14.5501 1.57324e-19 2.25976)
(14.846 -1.33546e-19 2.34425)
(14.708 -7.54842e-21 2.24671)
(15.0038 -1.00342e-19 2.32597)
(14.8653 -8.79653e-21 2.23148)
(15.1601 -7.34338e-20 2.30644)
(15.0216 -2.01134e-19 2.21467)
(15.315 -1.9179e-21 2.28635)
(15.1769 5.94905e-21 2.19697)
(15.4682 -4.49976e-21 2.26635)
(15.331 1.7446e-19 2.17901)
(15.62 -1.03941e-19 2.2471)
(15.484 -1.80407e-19 2.16136)
(15.7704 1.00264e-19 2.22928)
(15.6358 2.56752e-20 2.14463)
(15.9197 2.90693e-20 2.21356)
(15.7868 7.75872e-20 2.12949)
(16.0682 -7.18948e-21 2.20059)
(15.9372 -6.87385e-20 2.11654)
(16.2165 6.26821e-20 2.19093)
(16.0873 3.07489e-20 2.10636)
(16.3651 1.34203e-21 2.18506)
(16.2377 6.2459e-22 2.09944)
(16.5145 2.01905e-20 2.18336)
(16.3889 2.4603e-20 2.09621)
(16.6655 -1.77762e-20 2.18607)
(16.5414 1.97885e-20 2.09699)
(16.8187 -3.70911e-20 2.19332)
(16.696 1.49005e-20 2.10197)
(16.9746 8.96015e-22 2.20512)
(16.8531 -3.03984e-20 2.11126)
(17.1339 0 2.22141)
(17.0134 -5.30236e-21 2.12489)
(17.2968 1.12475e-20 2.24211)
(17.1774 5.25001e-21 2.14281)
(17.4636 1.71185e-20 2.26723)
(17.3446 1.14603e-20 2.16503)
(17.5625 1.32361e-22 2.19208)
(14.4118 3.54842e-20 2.15225)
(14.2816 0 2.04621)
(14.5682 3.60968e-20 2.14265)
(14.4361 1.57203e-19 2.03937)
(14.7245 1.20436e-19 2.13078)
(14.591 -1.36352e-19 2.03021)
(14.8804 -1.08142e-19 2.11711)
(14.7459 2.14611e-21 2.0191)
(15.0356 -1.24066e-19 2.10225)
(14.9006 -2.28833e-19 2.00653)
(15.1901 1.8341e-19 2.08677)
(15.055 2.09801e-19 1.99309)
(15.3439 1.4972e-21 2.07125)
(15.209 7.28645e-20 1.97931)
(15.497 -5.17857e-20 2.05621)
(15.3626 -9.50883e-20 1.96566)
(15.6495 1.23034e-21 2.04225)
(15.5158 2.07917e-20 1.95267)
(15.8015 -1.97443e-20 2.02995)
(15.6688 7.31514e-20 1.9409)
(15.9535 -3.18745e-20 2.01987)
(15.8218 -5.52913e-20 1.93088)
(16.1058 -3.23347e-20 2.01249)
(15.9751 -1.77025e-20 1.92308)
(16.2588 2.39516e-20 2.00826)
(16.1292 -2.88566e-20 1.91797)
(16.4132 2.42816e-20 2.00753)
(16.2845 -1.102e-21 1.91593)
(16.5693 5.3477e-20 2.01059)
(16.4415 2.22645e-20 1.91727)
(16.728 2.27176e-20 2.0176)
(16.6008 1.91833e-20 1.92224)
(16.8896 -3.72592e-20 2.02869)
(16.7628 -3.09842e-20 1.93099)
(17.0547 -1.46556e-22 2.04388)
(16.9282 -5.44158e-21 1.94361)
(17.2238 5.35123e-21 2.06324)
(17.0975 -7.876e-21 1.96019)
(17.3974 -5.56165e-21 2.08684)
(17.2705 3.80387e-21 1.98079)
(17.4959 -5.67894e-21 2.00598)
(14.3032 1.21491e-19 1.93005)
(14.1783 -6.62107e-21 1.8225)
(14.4562 -1.33571e-20 1.9237)
(14.3292 1.17556e-19 1.81836)
(14.6097 -2.60715e-19 1.91538)
(14.481 -2.76193e-19 1.81225)
(14.7635 -1.16763e-19 1.90545)
(14.6335 -1.39771e-19 1.80442)
(14.9173 1.04489e-19 1.89438)
(14.7863 6.80616e-21 1.79526)
(15.0711 9.92715e-20 1.8827)
(14.9395 8.097e-21 1.78526)
(15.2249 -2.26357e-20 1.87088)
(15.0931 1.03507e-19 1.77489)
(15.3786 -2.29955e-20 1.85937)
(15.2467 -1.12728e-19 1.76458)
(15.5324 9.34792e-20 1.84865)
(15.4006 8.83875e-20 1.75472)
(15.6863 3.93531e-20 1.83921)
(15.5548 9.54257e-20 1.74576)
(15.8407 -4.15551e-20 1.83154)
(15.7097 -7.41974e-20 1.73817)
(15.9959 -1.39334e-20 1.82606)
(15.8653 4.7237e-20 1.73236)
(16.1522 -5.51291e-20 1.82318)
(16.0221 -2.86663e-20 1.72874)
(16.3102 -3.64571e-21 1.82323)
(16.1805 -2.39283e-22 1.72765)
(16.4703 -1.28613e-20 1.82649)
(16.3409 -2.14428e-20 1.72941)
(16.6331 -3.4944e-20 1.83318)
(16.5038 -1.88241e-20 1.73426)
(16.799 1.16958e-21 1.84344)
(16.6696 -1.66925e-20 1.74238)
(16.9686 -1.33514e-20 1.8574)
(16.839 0 1.75392)
(17.1425 -9.65594e-21 1.87515)
(17.0125 -4.41689e-21 1.769)
(17.3211 3.88516e-21 1.89682)
(17.1899 1.01594e-20 1.78772)
(17.4212 0 1.81064)
(14.2017 -1.34235e-20 1.7075)
(14.0822 1.46027e-19 1.59875)
(14.3514 -1.43614e-19 1.70365)
(14.2296 -6.76199e-21 1.59663)
(14.5021 -1.55037e-19 1.69809)
(14.3785 -1.39862e-19 1.59283)
(14.6537 -1.60693e-20 1.69109)
(14.5285 -7.65488e-22 1.58756)
(14.8059 -9.21323e-20 1.68305)
(14.6793 1.13034e-19 1.58109)
(14.9588 1.03826e-20 1.67443)
(14.8312 -2.19167e-19 1.57382)
(15.1121 1.56477e-20 1.66564)
(14.9838 1.06241e-19 1.56622)
(15.2659 -2.69604e-21 1.65706)
(15.1372 -2.05542e-19 1.55864)
(15.4204 9.02451e-20 1.64903)
(15.2913 9.67914e-20 1.55136)
(15.5755 -1.75189e-20 1.64196)
(15.4463 8.15922e-20 1.54471)
(15.7316 1.44316e-20 1.63627)
(15.6023 -1.78829e-20 1.5391)
(15.8889 3.36127e-20 1.63236)
(15.7596 3.33645e-20 1.53492)
(16.0478 2.69898e-20 1.63057)
(15.9184 9.38049e-22 1.53251)
(16.2086 -1.80747e-20 1.63121)
(16.0792 3.88211e-20 1.53218)
(16.3717 -2.76013e-20 1.63456)
(16.2422 -2.34346e-20 1.53421)
(16.5377 -1.50327e-22 1.64084)
(16.4079 1.79105e-20 1.53885)
(16.7071 -1.82414e-20 1.65021)
(16.5768 1.34603e-20 1.54628)
(16.8803 9.23532e-21 1.66283)
(16.7494 -1.29066e-20 1.55667)
(17.058 1.56539e-20 1.67882)
(16.9263 5.4777e-21 1.57016)
(17.2407 6.39017e-21 1.69832)
(17.1073 1.05244e-20 1.58685)
(17.3433 0 1.60731)
(14.1076 1.56214e-19 1.48465)
(13.9935 3.17379e-19 1.37466)
(14.2542 0 1.48262)
(14.1377 -1.27932e-19 1.37395)
(14.4022 1.54271e-20 1.47915)
(14.2838 1.26279e-19 1.37183)
(14.5516 1.29259e-19 1.47447)
(14.4314 3.13137e-20 1.36851)
(14.7021 -1.02516e-20 1.46883)
(14.5804 1.01479e-19 1.36416)
(14.8537 -1.27749e-19 1.46264)
(14.7306 -1.01416e-19 1.35906)
(15.0062 -1.14134e-19 1.45629)
(14.8821 -9.73537e-20 1.35363)
(15.1599 -1.09919e-19 1.45007)
(15.035 2.41725e-21 1.34819)
(15.3146 8.81987e-20 1.44423)
(15.189 -1.3496e-20 1.34295)
(15.4704 8.33048e-20 1.4391)
(15.3442 1.44449e-19 1.33818)
(15.6277 4.98341e-22 1.43504)
(15.501 5.25042e-20 1.33419)
(15.7865 5.05827e-22 1.4324)
(15.6594 -6.58663e-20 1.33132)
(15.9472 1.22654e-20 1.43148)
(15.8197 -1.28862e-20 1.32985)
(16.1102 3.45719e-20 1.43256)
(15.9822 5.25155e-20 1.33008)
(16.2757 2.24441e-20 1.4359)
(16.1472 2.25769e-20 1.33225)
(16.4443 3.20155e-20 1.44169)
(16.3152 0 1.33657)
(16.6165 1.94734e-20 1.45012)
(16.4865 6.09895e-22 1.34324)
(16.7927 -1.71281e-20 1.46135)
(16.6618 1.23213e-20 1.35241)
(16.9736 1.28851e-22 1.4755)
(16.8415 -7.9971e-21 1.36423)
(17.1597 4.18565e-21 1.4927)
(17.0256 1.94868e-21 1.37881)
(17.2654 0 1.39663)
(14.0213 3.56184e-20 1.26059)
(13.9126 1.23889e-20 1.14983)
(14.165 -3.92838e-21 1.25981)
(14.0539 -1.34119e-19 1.15001)
(14.3105 1.44695e-19 1.25786)
(14.1973 2.62602e-19 1.14906)
(14.4577 1.25704e-21 1.25492)
(14.3427 7.92506e-22 1.14716)
(14.6065 1.21968e-20 1.25116)
(14.4897 -7.44051e-22 1.14443)
(14.7567 -7.03183e-20 1.24686)
(14.6384 -7.6265e-20 1.14103)
(14.9083 2.00846e-20 1.24236)
(14.7888 2.6828e-21 1.13725)
(15.0614 1.01667e-19 1.23794)
(14.9409 1.22122e-19 1.13342)
(15.2161 4.08557e-20 1.23383)
(15.0945 -1.09053e-20 1.12979)
(15.3723 1.14765e-19 1.23024)
(15.2497 1.21563e-20 1.12652)
(15.5302 -1.30886e-20 1.22747)
(15.4069 7.05305e-20 1.12382)
(15.6901 -8.06798e-20 1.2258)
(15.5659 -1.16888e-19 1.12196)
(15.8521 2.70216e-20 1.2255)
(15.7272 3.05563e-20 1.12121)
(16.0167 4.07907e-20 1.22683)
(15.891 5.10761e-20 1.12179)
(16.1841 0 1.22999)
(16.0576 -1.43515e-20 1.12393)
(16.3548 -3.21879e-20 1.23517)
(16.2273 -3.85186e-20 1.12782)
(16.5292 -6.97117e-21 1.24256)
(16.4006 4.78301e-22 1.13363)
(16.7079 2.20546e-20 1.2523)
(16.578 7.16972e-21 1.14152)
(16.8914 -6.2436e-21 1.26452)
(16.76 5.55245e-21 1.15162)
(17.0803 -2.26219e-21 1.27934)
(16.9467 3.99788e-21 1.16403)
(17.1896 0 1.17923)
(13.943 -1.58619e-19 1.03619)
(13.84 -2.29928e-19 0.923803)
(14.084 1.3074e-19 1.03622)
(13.9786 6.37774e-20 0.924466)
(14.2271 1.20661e-19 1.03535)
(14.1196 7.90016e-20 0.924273)
(14.3723 -1.23059e-21 1.0337)
(14.2628 -1.55812e-20 0.923337)
(14.5194 -8.99297e-20 1.03137)
(14.4081 1.45931e-20 0.921749)
(14.6682 -2.96908e-21 1.02854)
(14.5552 -1.2658e-19 0.919594)
(14.8189 1.04872e-19 1.02548)
(14.7044 1.53314e-19 0.91706)
(14.9713 9.39141e-21 1.02247)
(14.8556 -4.72147e-20 0.914467)
(15.1256 -4.08713e-20 1.01973)
(15.0086 2.01215e-20 0.912064)
(15.2819 -3.45186e-20 1.0174)
(15.1637 -9.86168e-20 0.909947)
(15.4401 -3.20598e-20 1.01566)
(15.3209 8.80607e-20 0.908231)
(15.6006 -5.80332e-21 1.01475)
(15.4803 -8.36889e-20 0.907122)
(15.7636 5.48061e-20 1.0149)
(15.6423 4.49261e-20 0.906846)
(15.9294 -4.14738e-21 1.01633)
(15.8069 8.80439e-21 0.907602)
(16.0982 -5.33538e-20 1.01922)
(15.9746 -4.83518e-20 0.909567)
(16.2706 -5.78095e-21 1.02374)
(16.1457 -2.76994e-20 0.912907)
(16.4468 1.4861e-20 1.03005)
(16.3205 4.29674e-20 0.917771)
(16.6275 -9.79096e-21 1.03828)
(16.4996 -6.79801e-21 0.924292)
(16.8132 1.61101e-20 1.04854)
(16.6835 3.74112e-22 0.932587)
(17.0044 6.40582e-21 1.06093)
(16.8723 7.80587e-22 0.942738)
(17.1177 -5.58679e-22 0.955108)
(13.8735 -8.13058e-21 0.808421)
(13.7762 -7.5383e-20 0.696071)
(14.0121 1.02673e-20 0.808846)
(13.9125 6.84434e-20 0.696905)
(14.1531 -5.88672e-20 0.808585)
(14.0513 -5.91574e-20 0.69711)
(14.2963 0 0.807716)
(14.1925 0 0.696748)
(14.4418 -1.98882e-20 0.806311)
(14.3361 0 0.695879)
(14.5893 2.79238e-20 0.804485)
(14.4819 -7.33103e-21 0.694565)
(14.7389 1.47141e-21 0.802459)
(14.6298 -4.12721e-21 0.692967)
(14.8905 -3.77001e-20 0.800485)
(14.78 4.75077e-20 0.691341)
(15.0443 -3.66082e-20 0.798712)
(14.9323 -3.23935e-20 0.689851)
(15.2003 2.32906e-20 0.797228)
(15.087 -1.69834e-21 0.688543)
(15.3587 3.87131e-20 0.796169)
(15.244 3.63928e-20 0.687512)
(15.5196 -3.43238e-20 0.79572)
(15.4035 -4.25095e-20 0.686922)
(15.6832 -1.45232e-21 0.796064)
(15.5658 -7.18252e-21 0.686937)
(15.8497 -3.53277e-20 0.797369)
(15.731 1.10229e-20 0.687705)
(16.0196 -2.25161e-20 0.799789)
(15.8995 -4.01507e-20 0.68936)
(16.1932 2.08331e-20 0.803467)
(16.0715 1.2138e-20 0.692036)
(16.3709 2.16881e-20 0.808535)
(16.2475 1.61087e-20 0.695854)
(16.5531 3.54584e-21 0.815113)
(16.428 2.56536e-21 0.700932)
(16.7405 -1.51325e-20 0.823302)
(16.6133 -1.70605e-20 0.707379)
(16.9335 -5.15148e-21 0.83321)
(16.8038 -2.61632e-21 0.715293)
(17.0513 8.2397e-22 0.725074)
(13.8131 0 0.581915)
(13.7214 -6.778e-20 0.465972)
(13.9497 0 0.582556)
(13.8557 6.46348e-20 0.466719)
(14.0887 0 0.582695)
(13.9926 -6.03999e-20 0.467035)
(14.2302 0 0.582379)
(14.1321 6.31028e-20 0.46696)
(14.3741 1.30868e-20 0.581656)
(14.2742 -3.41999e-21 0.466531)
(14.5203 -4.03113e-20 0.58062)
(14.4186 1.01741e-20 0.465787)
(14.6688 4.20395e-20 0.579462)
(14.5652 -5.18155e-20 0.464861)
(14.8195 5.47205e-20 0.578359)
(14.7144 1.14587e-19 0.463934)
(14.9727 2.79134e-21 0.577384)
(14.866 -7.06939e-20 0.46309)
(15.1283 1.09528e-20 0.576581)
(15.02 5.6628e-20 0.462343)
(15.2865 -4.53294e-20 0.576064)
(15.1766 -7.63464e-20 0.461768)
(15.4475 -1.5386e-20 0.575977)
(15.3359 1.60152e-20 0.461482)
(15.6114 5.32878e-21 0.576449)
(15.4982 9.54126e-21 0.461599)
(15.7784 7.24629e-21 0.577594)
(15.6637 -2.81546e-22 0.462217)
(15.949 -5.69058e-21 0.579525)
(15.8325 -1.04214e-20 0.463428)
(16.1235 7.19074e-21 0.582351)
(16.0052 1.24394e-20 0.465321)
(16.3022 -3.29968e-21 0.586179)
(16.1819 9.29281e-21 0.467988)
(16.4857 -1.82531e-20 0.591112)
(16.3633 -1.08295e-20 0.471519)
(16.6745 -4.51572e-21 0.59724)
(16.5497 -5.23522e-21 0.476007)
(16.8691 4.53907e-21 0.604651)
(16.7415 4.35109e-23 0.481523)
(16.9903 8.94146e-24 0.488296)
(13.7621 -4.40219e-21 0.346231)
(13.558 -6.96845e-20 0.232634)
(13.8968 5.43432e-21 0.346632)
(13.6895 6.84331e-20 0.233022)
(14.0342 1.64299e-21 0.346728)
(13.8236 -7.69106e-20 0.233195)
(14.1741 6.1114e-20 0.346546)
(13.9603 7.59196e-20 0.233171)
(14.3166 -6.6808e-21 0.346116)
(14.0997 1.28835e-20 0.23297)
(14.4616 -2.67792e-22 0.345497)
(14.2414 -1.92467e-20 0.232616)
(14.6089 1.90816e-20 0.344806)
(14.3854 5.93192e-21 0.232156)
(14.7588 -1.01646e-20 0.344151)
(14.532 5.83947e-21 0.231674)
(14.9111 -1.80825e-20 0.343572)
(14.6812 -2.14069e-20 0.231243)
(15.0661 -3.00732e-20 0.343093)
(14.8328 9.70237e-21 0.230867)
(15.2239 -1.53996e-20 0.342774)
(14.987 -2.68655e-20 0.230557)
(15.3846 4.15985e-20 0.342711)
(15.1441 2.47907e-20 0.230375)
(15.5484 3.92403e-21 0.342992)
(15.3041 2.72795e-20 0.230396)
(15.7156 -1.8279e-20 0.343692)
(15.4674 -2.00585e-20 0.230678)
(15.8864 7.62586e-21 0.34488)
(15.6341 -4.89434e-21 0.231267)
(16.0613 1.46618e-20 0.346624)
(15.8046 1.05027e-20 0.23221)
(16.2407 1.99628e-21 0.349001)
(15.9793 1.87052e-21 0.233561)
(16.4249 2.29157e-21 0.352106)
(16.1587 -1.04622e-21 0.235388)
(16.6146 -6.85098e-22 0.356067)
(16.3433 3.8763e-21 0.237801)
(16.8101 -4.42822e-21 0.361127)
(16.5336 -3.07065e-21 0.241005)
(16.7808 -1.39702e-21 0.245717)
(13.4805 2.01018e-21 0.117919)
(13.6113 -1.28457e-20 0.118119)
(13.7447 -4.07121e-21 0.118208)
(13.8807 2.77858e-20 0.118193)
(14.0192 6.94162e-22 0.118084)
(14.1601 -1.3433e-20 0.117899)
(14.3034 -7.63708e-21 0.117671)
(14.4491 -5.06665e-21 0.117435)
(14.5974 6.49469e-21 0.117215)
(14.7482 1.38193e-20 0.117019)
(14.9017 1.33432e-20 0.116862)
(15.0581 1.00922e-20 0.116776)
(15.2175 3.71147e-21 0.116801)
(15.3802 -6.63923e-21 0.116967)
(15.5465 -2.31202e-21 0.117297)
(15.7168 -2.52403e-21 0.117817)
(15.8915 -1.22656e-21 0.118559)
(16.0711 5.50995e-22 0.119575)
(16.2564 1.63927e-21 0.120958)
(16.4481 0 0.122989)
)
;

boundaryField
{
    inlet
    {
        type            calculated;
        value           nonuniform 0();
    }
    outlet
    {
        type            calculated;
        value           nonuniform List<vector> 
15
(
(17.3839 -9.0054e-21 2.82169)
(17.5813 -2.15687e-21 2.7282)
(17.6627 1.16733e-20 2.60102)
(17.6706 0 2.44974)
(17.6353 1.1523e-20 2.28128)
(17.5765 -1.12128e-20 2.10011)
(17.5057 0 1.90903)
(17.4297 0 1.70932)
(17.3522 0 1.50241)
(17.2757 0 1.28771)
(17.2024 0 1.06793)
(17.1331 -1.13169e-21 0.838828)
(17.0708 2.82937e-21 0.608858)
(17.0118 -2.76034e-21 0.364089)
(16.6482 0 0.124264)
)
;
    }
    flap
    {
        type            calculated;
        value           nonuniform 0();
    }
    upperWall
    {
        type            calculated;
        value           uniform (0 0 0);
    }
    lowerWall
    {
        type            calculated;
        value           nonuniform 0();
    }
    frontAndBack
    {
        type            empty;
        value           nonuniform 0();
    }
    procBoundary2to1
    {
        type            processor;
        value           nonuniform List<vector> 
17
(
(15.1472 2.26295e-19 3.75019)
(15.0107 3.75392e-19 3.52549)
(14.8723 -1.17487e-19 3.29707)
(14.737 -8.30337e-21 3.06788)
(14.6075 8.11317e-21 2.8393)
(14.4841 3.12241e-19 2.61169)
(14.3668 -1.6792e-19 2.38503)
(14.2557 0 2.15921)
(14.1511 0 1.93413)
(14.0534 -1.76997e-19 1.70944)
(13.9628 3.32584e-19 1.48506)
(13.8796 1.45091e-19 1.26002)
(13.8042 -1.58029e-19 1.03509)
(13.7374 -6.60088e-20 0.807213)
(13.6793 7.76284e-20 0.580729)
(13.6301 -6.8112e-20 0.345502)
(13.3524 0 0.117598)
)
;
    }
    procBoundary2to4
    {
        type            processor;
        value           nonuniform List<vector> 
11
(
(0.491163 -6.08475e-22 -0.0618146)
(5.53577 -1.04456e-21 1.62182)
(8.96345 9.63974e-22 2.61065)
(11.4415 2.1235e-21 3.37373)
(13.1622 1.56408e-20 3.91588)
(14.2772 1.28794e-20 4.24506)
(14.9342 2.96263e-21 4.39477)
(15.265 1.09148e-20 4.40517)
(15.3793 -6.76217e-20 4.31545)
(15.3615 -6.62467e-20 4.15993)
(15.2713 3.27025e-20 3.96536)
)
;
    }
    procBoundary2to5
    {
        type            processor;
        value           nonuniform List<vector> 
34
(
(-1.05423 -2.05164e-21 -0.410325)
(-1.27093 -4.15799e-21 -0.294396)
(-1.04985 -1.97428e-21 -0.559485)
(0.96981 -2.79131e-21 -0.28503)
(-0.0622303 1.4105e-21 -0.514775)
(0.674686 -6.44776e-22 -0.254135)
(2.50541 2.79974e-22 0.420792)
(4.83265 -3.58712e-22 0.887544)
(6.1548 9.42614e-23 1.0758)
(5.1032 5.29004e-21 0.847192)
(6.77117 7.46005e-22 1.21966)
(7.8949 -3.30496e-21 1.43774)
(7.3012 -1.98294e-20 1.19211)
(8.64252 -7.40541e-22 1.41725)
(9.59257 -2.27723e-21 1.58471)
(10.616 0 1.78934)
(11.3761 1.58848e-20 1.93302)
(10.9328 -2.10091e-20 1.78982)
(11.8205 -2.25108e-20 1.97292)
(12.4695 8.95609e-21 2.10195)
(13.1869 1.82801e-20 2.25101)
(13.7028 0 2.35192)
(13.4235 -5.18452e-21 2.2755)
(14.0412 0 2.41848)
(14.4925 -2.33447e-20 2.51315)