/*--------------------------------*- C++ -*----------------------------------*\
| =========                 |                                                 |
| \\      /  F ield         | OpenFOAM: The Open Source CFD Toolbox           |
|  \\    /   O peration     | Version:  dev                                   |
|   \\  /    A nd           | Web:      www.OpenFOAM.org                      |
|    \\/     M anipulation  |                                                 |
\*---------------------------------------------------------------------------*/
FoamFile
{
    version     2.0;
    format      ascii;
    class       volVectorField;
    location    "2";
    object      cellDisplacement;
}
// * * * * * * * * * * * * * * * * * * * * * * * * * * * * * * * * * * * * * //

dimensions      [0 1 0 0 0 0 0];

internalField   nonuniform List<vector> 
465
(
(0.327776 0 -0.084956)
(0.339341 0 -0.0901245)
(0.360114 0 -0.0983418)
(0.38272 0 -0.107564)
(0.349126 0 -0.0946027)
(0.369106 0 -0.102724)
(0.390284 0 -0.111599)
(0.412084 0 -0.121067)
(0.433685 0 -0.130856)
(0.357113 0 -0.0983286)
(0.376024 0 -0.106198)
(0.395522 0 -0.114556)
(0.415068 0 -0.123227)
(0.434069 0 -0.132005)
(0.45187 0 -0.140639)
(0.467827 0 -0.148852)
(0.363352 0 -0.101274)
(0.380977 0 -0.108758)
(0.398736 0 -0.116519)
(0.416229 0 -0.124422)
(0.432991 0 -0.132291)
(0.448538 0 -0.13993)
(0.462431 0 -0.147137)
(0.474317 0 -0.153728)
(0.483899 0 -0.159493)
(0.36791 0 -0.103425)
(0.384172 0 -0.110451)
(0.400301 0 -0.117619)
(0.415968 0 -0.124807)
(0.430812 0 -0.131871)
(0.444479 0 -0.138654)
(0.456688 0 -0.145022)
(0.467174 0 -0.150824)
(0.475718 0 -0.155897)
(0.370932 0 -0.104805)
(0.385887 0 -0.111364)
(0.400525 0 -0.117964)
(0.414584 0 -0.124501)
(0.427792 0 -0.130856)
(0.439893 0 -0.136912)
(0.450682 0 -0.142561)
(0.459986 0 -0.147694)
(0.467643 0 -0.15219)
(0.372627 0 -0.105473)
(0.386358 0 -0.111574)
(0.39965 0 -0.117641)
(0.412298 0 -0.123587)
(0.424099 0 -0.129319)
(0.434881 0 -0.134751)
(0.444478 0 -0.139789)
(0.452761 0 -0.144349)
(0.45964 0 -0.148352)
(0.373181 0 -0.105481)
(0.385785 0 -0.111141)
(0.397868 0 -0.116714)
(0.409276 0 -0.122128)
(0.419879 0 -0.127318)
(0.429526 0 -0.132204)
(0.438087 0 -0.136709)
(0.445493 0 -0.14078)
(0.451682 0 -0.144358)
(0.372759 0 -0.104871)
(0.384333 0 -0.110114)
(0.39533 0 -0.115229)
(0.405669 0 -0.120173)
(0.415225 0 -0.124881)
(0.423872 0 -0.129282)
(0.431537 0 -0.133326)
(0.438178 0 -0.136974)
(0.44375 0 -0.140183)
(0.371506 0 -0.103676)
(0.382148 0 -0.108529)
(0.392191 0 -0.113231)
(0.401569 0 -0.117743)
(0.410196 0 -0.122016)
(0.417972 0 -0.125991)
(0.424855 0 -0.129631)
(0.430818 0 -0.132911)
(0.435834 0 -0.135797)
(0.359199 0 -0.097301)
(0.369543 0 -0.101917)
(0.379338 0 -0.106405)
(0.388537 0 -0.110731)
(0.397072 0 -0.114856)
(0.404866 0 -0.118734)
(0.411873 0 -0.122329)
(0.418063 0 -0.125614)
(0.423422 0 -0.128569)
(0.427933 0 -0.131169)
(0.357373 0 -0.0953146)
(0.366977 0 -0.0996054)
(0.376021 0 -0.103756)
(0.384459 0 -0.107734)
(0.392228 0 -0.111501)
(0.399289 0 -0.115026)
(0.405614 0 -0.118283)
(0.411188 0 -0.121252)
(0.416004 0 -0.123918)
(0.420054 0 -0.126262)
(0.354974 0 -0.0927567)
(0.36393 0 -0.0967504)
(0.372286 0 -0.100582)
(0.380023 0 -0.104232)
(0.387108 0 -0.107672)
(0.393518 0 -0.110878)
(0.399238 0 -0.113832)
(0.40426 0 -0.116518)
(0.408586 0 -0.118926)
(0.412213 0 -0.12104)
(0.352118 0 -0.089631)
(0.360458 0 -0.0933301)
(0.368191 0 -0.0968633)
(0.375303 0 -0.10021)
(0.381779 0 -0.103351)
(0.387609 0 -0.106269)
(0.392787 0 -0.108947)
(0.397314 0 -0.111377)
(0.401197 0 -0.113552)
(0.404436 0 -0.115459)
(0.348894 0 -0.0859293)
(0.356666 0 -0.0893416)
(0.36383 0 -0.0925882)
(0.37038 0 -0.0956512)
(0.376311 0 -0.098515)
(0.381621 0 -0.101166)
(0.386313 0 -0.103593)
(0.390394 0 -0.10579)
(0.393874 0 -0.107751)
(0.396758 0 -0.109469)
(0.345387 0 -0.0816268)
(0.352641 0 -0.08476)
(0.359289 0 -0.0877309)
(0.365332 0 -0.0905244)
(0.370773 0 -0.0931279)
(0.375618 0 -0.0955309)
(0.379874 0 -0.0977256)
(0.383552 0 -0.0997069)
(0.386666 0 -0.101472)
(0.389225 0 -0.103015)
(0.341687 0 -0.0766913)
(0.348472 0 -0.0795511)
(0.354654 0 -0.0822546)
(0.360242 0 -0.0847893)
(0.365244 0 -0.0871451)
(0.369671 0 -0.089314)
(0.373534 0 -0.0912901)
(0.376849 0 -0.0930701)
(0.379632 0 -0.0946527)
(0.381893 0 -0.0960327)
(0.33789 0 -0.0710817)
(0.344252 0 -0.0736701)
(0.350016 0 -0.0761109)
(0.355196 0 -0.0783937)
(0.359805 0 -0.0805103)
(0.363858 0 -0.0824546)
(0.367371 0 -0.0842223)
(0.370359 0 -0.0858112)
(0.372843 0 -0.0872209)
(0.374834 0 -0.0884475)
(0.334095 0 -0.0647458)
(0.34008 0 -0.0670609)
(0.345472 0 -0.0692393)
(0.35029 0 -0.0712725)
(0.35455 0 -0.0731539)
(0.358271 0 -0.0748788)
(0.36147 0 -0.076444)
(0.364168 0 -0.0778482)
(0.366382 0 -0.0790915)
(0.36813 0 -0.080171)
(0.330412 0 -0.0576194)
(0.336064 0 -0.059654)
(0.341129 0 -0.0615651)
(0.345628 0 -0.063346)
(0.349582 0 -0.0649912)
(0.353011 0 -0.0664971)
(0.355935 0 -0.0678613)
(0.358375 0 -0.0690831)
(0.360352 0 -0.070163)
(0.361883 0 -0.0710985)
(0.326957 0 -0.0496235)
(0.332323 0 -0.0513641)
(0.337106 0 -0.052997)
(0.341331 0 -0.0545168)
(0.34502 0 -0.0559191)
(0.348196 0 -0.057201)
(0.350882 0 -0.0583607)
(0.353099 0 -0.0593978)
(0.354869 0 -0.060313)
(0.356211 0 -0.0611042)
(0.323863 0 -0.040662)
(0.328989 0 -0.0420873)
(0.333536 0 -0.0434235)
(0.337531 0 -0.0446662)
(0.340999 0 -0.0458118)
(0.343964 0 -0.0468581)
(0.34645 0 -0.0478038)
(0.348479 0 -0.0486485)
(0.350075 0 -0.0493928)
(0.351258 0 -0.0500352)
(0.321275 0 -0.0306179)
(0.32621 0 -0.0316969)
(0.330571 0 -0.0327084)
(0.334384 0 -0.0336488)
(0.337676 0 -0.0345154)
(0.340473 0 -0.0353064)
(0.3428 0 -0.0360209)
(0.34468 0 -0.0366586)
(0.346137 0 -0.03722)
(0.347191 0 -0.0377037)
(0.319357 0 -0.0193492)
(0.324157 0 -0.0200386)
(0.328384 0 -0.020685)
(0.332067 0 -0.0212861)
(0.335234 0 -0.02184)
(0.337911 0 -0.0223457)
(0.340124 0 -0.0228022)
(0.341897 0 -0.0232095)
(0.343254 0 -0.0235677)
(0.344216 0 -0.0238761)
(0.318297 0 -0.00670023)
(0.323024 0 -0.00694153)
(0.327179 0 -0.00716792)
(0.330792 0 -0.00737853)
(0.333891 0 -0.00757266)
(0.336503 0 -0.00774987)
(0.338654 0 -0.00790988)
(0.340369 0 -0.00805259)
(0.341671 0 -0.00817808)
(0.342583 0 -0.00828599)
(0.48951 0 -0.163217)
(0.480831 0 -0.159197)
(0.483805 0 -0.161215)
(0.486349 0 -0.163047)
(0.472299 0 -0.155128)
(0.475038 0 -0.156934)
(0.477417 0 -0.158583)
(0.463873 0 -0.150979)
(0.466384 0 -0.152598)
(0.468588 0 -0.154084)
(0.455523 0 -0.146714)
(0.457815 0 -0.148169)
(0.459841 0 -0.149509)
(0.447227 0 -0.1423)
(0.449309 0 -0.143609)
(0.451158 0 -0.144818)
(0.438973 0 -0.137703)
(0.440854 0 -0.138882)
(0.44253 0 -0.139972)
(0.430756 0 -0.132885)
(0.432448 0 -0.133948)
(0.433957 0 -0.134932)
(0.422582 0 -0.12781)
(0.424096 0 -0.128767)
(0.425444 0 -0.129654)
(0.414468 0 -0.122435)
(0.415813 0 -0.123297)
(0.417007 0 -0.124095)
(0.406436 0 -0.116714)
(0.407624 0 -0.11749)
(0.408672 0 -0.118208)
(0.398522 0 -0.110598)
(0.399562 0 -0.111294)
(0.400473 0 -0.111938)
(0.39077 0 -0.104027)
(0.391673 0 -0.10465)
(0.392455 0 -0.105226)
(0.383237 0 -0.0969362)
(0.384013 0 -0.0974918)
(0.384676 0 -0.0980035)
(0.375993 0 -0.0892488)
(0.376653 0 -0.0897406)
(0.377206 0 -0.0901928)
(0.369122 0 -0.0808746)
(0.369676 0 -0.0813057)
(0.370128 0 -0.0817014)
(0.362726 0 -0.0717071)
(0.363185 0 -0.0720792)
(0.363546 0 -0.0724202)
(0.356923 0 -0.061618)
(0.357299 0 -0.0619316)
(0.357581 0 -0.0622185)
(0.351858 0 -0.0504517)
(0.352163 0 -0.0507056)
(0.352378 0 -0.0509375)
(0.347702 0 -0.038017)
(0.347951 0 -0.0382077)
(0.34811 0 -0.0383817)
(0.344663 0 -0.0240756)
(0.34487 0 -0.024197)
(0.34499 0 -0.0243076)
(0.342994 0 -0.00835586)
(0.343179 0 -0.00839829)
(0.343277 0 -0.00843693)
(0.489515 0 -0.165508)
(0.480436 0 -0.160815)
(0.483166 0 -0.163206)
(0.484633 0 -0.164996)
(0.484842 0 -0.166138)
(0.471425 0 -0.156107)
(0.474083 0 -0.158303)
(0.475622 0 -0.159979)
(0.476019 0 -0.161089)
(0.475286 0 -0.161613)
(0.473445 0 -0.161542)
(0.462475 0 -0.151341)
(0.465001 0 -0.15335)
(0.466532 0 -0.154906)
(0.467025 0 -0.155964)
(0.466469 0 -0.156498)
(0.464864 0 -0.156496)
(0.46221 0 -0.155949)
(0.458507 0 -0.154855)
(0.453578 0 -0.146477)
(0.455933 0 -0.148308)
(0.457395 0 -0.149742)
(0.457913 0 -0.150734)
(0.45746 0 -0.151258)
(0.456016 0 -0.151297)
(0.453569 0 -0.150836)
(0.450104 0 -0.14987)
(0.445605 0 -0.148396)
(0.444732 0 -0.141472)
(0.446889 0 -0.143137)
(0.448241 0 -0.144448)
(0.448728 0 -0.145367)
(0.448316 0 -0.145866)
(0.446974 0 -0.145924)
(0.444676 0 -0.145526)
(0.441395 0 -0.144661)
(0.437108 0 -0.143321)
(0.435941 0 -0.136286)
(0.437884 0 -0.137794)
(0.439094 0 -0.138987)
(0.439511 0 -0.139828)
(0.439093 0 -0.140291)
(0.437801 0 -0.140354)
(0.4356 0 -0.139999)
(0.432458 0 -0.139212)
(0.42834 0 -0.137983)
(0.427214 0 -0.130876)
(0.428934 0 -0.132237)
(0.429983 0 -0.133317)
(0.4303 0 -0.134079)
(0.429838 0 -0.134499)
(0.428556 0 -0.134555)
(0.426412 0 -0.134228)
(0.423367 0 -0.133503)
(0.419381 0 -0.132367)
(0.41857 0 -0.125195)
(0.420065 0 -0.126421)
(0.42094 0 -0.127391)
(0.421135 0 -0.128075)
(0.420603 0 -0.128449)
(0.419298 0 -0.128491)
(0.417176 0 -0.128181)
(0.414193 0 -0.127505)
(0.410306 0 -0.126447)
(0.410035 0 -0.119196)
(0.411308 0 -0.120295)
(0.412002 0 -0.121163)
(0.412062 0 -0.121771)
(0.411439 0 -0.122097)
(0.410088 0 -0.122119)
(0.40796 0 -0.12182)
(0.405011 0 -0.121183)
(0.401193 0 -0.120192)
(0.401645 0 -0.112823)
(0.4027 0 -0.113804)
(0.403213 0 -0.114576)
(0.40313 0 -0.115112)
(0.402403 0 -0.11539)
(0.400987 0 -0.115392)
(0.398833 0 -0.115099)
(0.395894 0 -0.114494)
(0.392121 0 -0.113564)
(0.393448 0 -0.106015)
(0.394293 0 -0.106888)
(0.394626 0 -0.10757)
(0.394396 0 -0.108037)
(0.393558 0 -0.10827)
(0.392065 0 -0.108251)
(0.389869 0 -0.107962)
(0.386922 0 -0.107387)
(0.383176 0 -0.106513)
(0.3855 0 -0.0987043)
(0.386146 0 -0.0994755)
(0.386305 0 -0.100074)
(0.38593 0 -0.100477)
(0.384976 0 -0.100667)
(0.383398 0 -0.100629)
(0.381149 0 -0.100345)
(0.378182 0 -0.0997999)
(0.374446 0 -0.0989803)
(0.377873 0 -0.0908104)
(0.378332 0 -0.0914868)
(0.378325 0 -0.0920067)
(0.377809 0 -0.0923507)
(0.37674 0 -0.0925029)
(0.375074 0 -0.0924478)
(0.372765 0 -0.0921705)
(0.369767 0 -0.091657)
(0.366031 0 -0.090894)
(0.370653 0 -0.0822402)
(0.370938 0 -0.0828271)
(0.370776 0 -0.083274)
(0.370125 0 -0.0835635)
(0.368944 0 -0.0836815)
(0.367191 0 -0.0836139)
(0.36482 0 -0.0833474)
(0.361786 0 -0.0828691)
(0.358041 0 -0.0821668)
(0.363942 0 -0.0728832)
(0.364069 0 -0.0733846)
(0.363765 0 -0.0737627)
(0.362989 0 -0.0740021)
(0.361703 0 -0.0740904)
(0.359864 0 -0.0740153)
(0.357431 0 -0.0737648)
(0.354358 0 -0.0733275)
(0.350598 0 -0.0726926)
(0.357862 0 -0.0626069)
(0.35785 0 -0.0630252)
(0.357418 0 -0.0633374)
(0.35653 0 -0.0635305)
(0.355147 0 -0.0635938)
(0.35323 0 -0.0635166)
(0.350737 0 -0.0632889)
(0.347625 0 -0.0629006)
(0.343848 0 -0.0623424)
(0.352562 0 -0.0512504)
(0.352429 0 -0.0515857)
(0.351887 0 -0.0518335)
(0.350901 0 -0.0519832)
(0.349433 0 -0.0520259)
(0.347447 0 -0.051953)
(0.3449 0 -0.051756)
(0.341751 0 -0.0514269)
(0.337956 0 -0.0509579)
(0.348216 0 -0.0386157)
(0.347986 0 -0.0388653)
(0.347355 0 -0.0390482)
(0.346288 0 -0.0391561)
(0.344751 0 -0.0391824)
(0.342706 0 -0.0391205)
(0.340114 0 -0.0389641)
(0.336933 0 -0.038707)
(0.333121 0 -0.0383433)
(0.345039 0 -0.0244559)
(0.344738 0 -0.0246135)
(0.344041 0 -0.0247281)
(0.342916 0 -0.0247943)
(0.341327 0 -0.0248079)
(0.339239 0 -0.0247647)
(0.336613 0 -0.0246606)
(0.333408 0 -0.0244917)
(0.329582 0 -0.0242543)
(0.343295 0 -0.00848864)
(0.342955 0 -0.00854345)
(0.342222 0 -0.0085831)
(0.341064 0 -0.00860568)
(0.339447 0 -0.00860971)
(0.337335 0 -0.0085937)
(0.334689 0 -0.00855623)
(0.33147 0 -0.00849595)
(0.327636 0 -0.00841159)
)
;

boundaryField
{
    inlet
    {
        type            cellMotion;
        value           nonuniform 0();
    }
    outlet
    {
        type            cellMotion;
        value           nonuniform 0();
    }
    flap
    {
        type            cellMotion;
        value           nonuniform 0();
    }
    upperWall
    {
        type            slip;
    }
    lowerWall
    {
        type            slip;
    }
    frontAndBack
    {
        type            empty;
    }
    procBoundary1to0
    {
        type            processor;
        value           nonuniform List<vector> 
18
(
(0.360731 0 -0.0995599)
(0.360355 0 -0.0987201)
(0.360355 0 -0.0987201)
(0.348371 0 -0.0925966)
(0.347242 0 -0.090909)
(0.345484 0 -0.0886419)
(0.343227 0 -0.0858054)
(0.340555 0 -0.082385)
(0.337554 0 -0.0783588)
(0.334316 0 -0.0736975)
(0.330935 0 -0.0683631)
(0.327514 0 -0.0623079)
(0.32416 0 -0.0554724)
(0.320992 0 -0.047784)
(0.318137 0 -0.0391542)
(0.315739 0 -0.029476)
(0.313957 0 -0.0186199)
(0.312969 0 -0.00644512)
)
;
    }
    procBoundary1to2
    {
        type            processor;
        value           nonuniform List<vector> 
17
(
(0.440047 0 -0.146413)
(0.431779 0 -0.141501)
(0.423206 0 -0.136303)
(0.414408 0 -0.130807)
(0.405464 0 -0.124993)
(0.396454 0 -0.118833)
(0.387462 0 -0.112291)
(0.378575 0 -0.105322)
(0.369888 0 -0.0978697)
(0.361503 0 -0.089866)
(0.353532 0 -0.0812262)
(0.346101 0 -0.0718472)
(0.339355 0 -0.0616032)
(0.333464 0 -0.0503399)
(0.328628 0 -0.0378662)
(0.325087 0 -0.0239441)
(0.323139 0 -0.0083017)
)
;
    }
    procBoundary1to3
    {
        type            processor;
        value           nonuniform List<vector> 9((0.308956 0 -0.0779129) (0.320497 0 -0.0828551) (0.330588 0 -0.0872583) (0.339173 0 -0.0910533) (0.346227 0 -0.0941877) (0.351788 0 -0.0966352) (0.355895 0 -0.0983764) (0.358646 0 -0.0994191) (0.360208 0 -0.099802));
    }
    procBoundary1to4
    {
        type            processor;
        value           nonuniform List<vector> 
30
(
(0.314539 0 -0.0791975)
(0.348969 0 -0.0930806)
(0.348969 0 -0.0930806)
(0.372649 0 -0.102444)
(0.406765 0 -0.117748)
(0.406765 0 -0.117748)
(0.431316 0 -0.128622)
(0.454217 0 -0.140654)
(0.454217 0 -0.140654)
(0.47275 0 -0.150088)
(0.481431 0 -0.1564)
(0.481431 0 -0.1564)
(0.492229 0 -0.162997)
(0.498386 0 -0.167227)
(0.492721 0 -0.165482)
(0.492721 0 -0.165482)
(0.49541 0 -0.16752)
(0.498669 0 -0.170231)
(0.492232 0 -0.168101)
(0.492232 0 -0.168101)
(0.493517 0 -0.169989)
(0.493421 0 -0.171136)
(0.483838 0 -0.166622)
(0.483838 0 -0.166622)
(0.481673 0 -0.166446)
(0.470516 0 -0.160875)
(0.470516 0 -0.160875)
(0.466515 0 -0.159619)
(0.453749 0 -0.153217)
(0.453749 0 -0.153217)
)
;
    }
}


// ************************************************************************* //
