/*--------------------------------*- C++ -*----------------------------------*\
| =========                 |                                                 |
| \\      /  F ield         | OpenFOAM: The Open Source CFD Toolbox           |
|  \\    /   O peration     | Version:  dev                                   |
|   \\  /    A nd           | Web:      www.OpenFOAM.org                      |
|    \\/     M anipulation  |                                                 |
\*---------------------------------------------------------------------------*/
FoamFile
{
    version     2.0;
    format      ascii;
    class       surfaceVectorField;
    location    "2";
    object      Uf;
}
// * * * * * * * * * * * * * * * * * * * * * * * * * * * * * * * * * * * * * //

dimensions      [0 1 -1 0 0 0 0];

internalField   nonuniform List<vector> 
882
(
(10.1762 4.18119e-20 3.15343)
(10.33 -1.26628e-20 3.25539)
(10.339 -2.89718e-20 3.08014)
(10.4839 3.35916e-19 3.5304)
(10.4798 8.41481e-21 3.33661)
(10.6516 -6.14918e-19 3.60163)
(10.4898 -1.03453e-20 3.16134)
(10.4877 3.33896e-19 2.99138)
(10.6489 -9.63184e-19 3.4083)
(10.634 -1.94278e-19 3.22283)
(10.8385 -6.20246e-19 3.65936)
(10.8072 -4.85829e-19 3.45792)
(11.0606 0 3.90996)
(11.0092 0 3.69289)
(11.2412 0 3.9229)
(10.6334 1.52368e-19 3.05333)
(10.6219 0 2.8898)
(10.7942 3.02272e-19 3.27334)
(10.7705 2.97123e-19 3.09711)
(10.9807 1.48976e-19 3.49297)
(10.9421 7.8726e-21 3.30433)
(11.1936 0 3.70799)
(11.1375 -1.67924e-20 3.50782)
(11.4326 0 3.91348)
(11.3567 2.81103e-19 3.70357)
(11.6961 -2.5596e-19 4.10344)
(11.5985 2.55033e-19 3.88699)
(11.8607 -6.50962e-21 4.05237)
(10.7607 1.46474e-19 2.93427)
(10.7412 -1.41141e-19 2.77784)
(10.9207 -3.52252e-21 3.12912)
(10.8899 8.08717e-20 2.96246)
(11.102 -1.62122e-19 3.32057)
(11.0578 -2.18271e-19 3.14442)
(11.3044 2.71577e-19 3.50499)
(11.2451 -1.72218e-20 3.32046)
(11.5271 5.41969e-19 3.67853)
(11.4512 2.84432e-19 3.48731)
(11.7683 5.07636e-19 3.83684)
(11.6744 -2.42441e-19 3.64145)
(12.0247 4.87792e-19 3.97457)
(11.9126 3.73869e-19 3.77885)
(12.2904 2.31301e-19 4.08722)
(12.1598 2.40658e-19 3.89444)
(12.4379 1.14337e-19 3.98695)
(12.5608 -6.25114e-20 4.16651)
(10.8723 -2.10165e-19 2.80683)
(10.8461 -2.12995e-19 2.65783)
(11.0295 -1.38167e-19 2.97875)
(10.9929 2.73426e-19 2.82162)
(11.2041 -6.98671e-20 3.14542)
(11.1558 -1.04194e-19 2.9811)
(11.3956 -4.03853e-21 3.30385)
(11.3343 3.30879e-20 3.1335)
(11.6027 -5.21501e-19 3.45103)
(11.5274 -1.35195e-19 3.27616)
(11.8236 -3.7503e-19 3.58381)
(11.7334 -6.33845e-19 3.40645)
(12.0552 1.20119e-19 3.69854)
(11.9503 3.63238e-19 3.52158)
(12.2935 1.18628e-19 3.79167)
(12.1736 -3.5534e-19 3.61825)
(12.4218 3.77565e-21 3.69505)
(12.5333 1.38702e-19 3.85707)
(10.9688 2.82333e-19 2.67337)
(10.937 -6.97193e-20 2.53186)
(11.1219 3.09544e-19 2.82478)
(11.0807 3.51431e-19 2.67685)
(11.2891 1.36638e-21 2.96993)
(11.2377 -3.33941e-20 2.81655)
(11.4697 -1.02065e-19 3.1064)
(11.4071 1.60862e-19 2.94868)
(11.6621 -2.5286e-19 3.23187)
(11.5878 -8.57606e-21 3.07117)
(11.8646 1.28402e-19 3.34405)
(11.7782 -1.2129e-19 3.18203)
(12.0748 -1.29549e-19 3.44054)
(11.9763 2.45072e-19 3.27933)
(12.2894 -4.67286e-19 3.51874)
(12.1787 -2.47821e-20 3.36092)
(12.4017 -3.46748e-19 3.42585)
(12.5038 -1.3915e-19 3.57389)
(11.0511 0 2.53592)
(11.0147 -1.61875e-20 2.40178)
(11.1992 0 2.66915)
(11.1545 -3.12966e-19 2.5299)
(11.3587 1.3025e-19 2.79571)
(11.305 6.32951e-20 2.65228)
(11.5286 2.56101e-19 2.91365)
(11.4654 -1.16733e-19 2.76709)
(11.7076 1.25558e-19 3.02121)
(11.6345 1.29098e-19 2.87272)
(11.8938 6.10203e-22 3.11675)
(11.8108 0 2.9677)
(12.0853 3.48858e-19 3.19864)
(11.9924 2.32245e-19 3.05063)
(12.2795 1.02435e-19 3.26513)
(12.1767 3.458e-19 3.12018)
(12.3784 -2.36554e-19 3.17587)
(12.4725 4.0006e-19 3.31238)
(11.1204 -3.37059e-19 2.39615)
(11.0804 -1.66184e-20 2.26907)
(11.2629 -2.48061e-19 2.51332)
(11.2156 -7.48584e-20 2.38216)
(11.4146 -1.90382e-19 2.62379)
(11.3595 -5.51651e-20 2.48943)
(11.5744 -2.46443e-19 2.72605)
(11.5111 -2.53171e-19 2.58941)
(11.7411 0 2.81877)
(11.6694 0 2.68086)
(11.9129 2.38224e-19 2.90075)
(11.8329 -2.26561e-19 2.7627)
(12.0881 2.30172e-19 2.97091)
(12.0001 3.55044e-19 2.83398)
(12.2648 0 3.02806)
(12.1688 0 2.89384)
(12.3524 5.51019e-20 2.94215)
(12.4399 -6.28804e-20 3.06906)
(11.1778 2.52845e-19 2.25529)
(11.135 -8.90418e-20 2.13485)
(11.3146 1.23222e-19 2.35833)
(11.2652 4.30416e-19 2.23461)
(11.4586 -1.19863e-19 2.45492)
(11.4025 -1.20541e-19 2.32871)
(11.6089 0 2.54385)
(11.5458 1.17787e-19 2.41597)
(11.7642 -2.3281e-19 2.62412)
(11.6941 1.14036e-19 2.49542)
(11.9232 -1.03991e-19 2.6949)
(11.8462 -2.31908e-19 2.56629)
(12.0844 1.17391e-19 2.7555)
(12.0007 1.20805e-19 2.62796)
(12.2461 5.69005e-20 2.80513)
(12.1558 0 2.67991)
(12.324 5.64666e-20 2.72223)
(12.4059 9.89774e-20 2.84107)
(11.2245 9.31145e-20 2.11418)
(11.1794 -9.13738e-20 1.99989)
(11.3555 1.80119e-19 2.20483)
(11.3047 6.67879e-20 2.08789)
(11.4922 1.23567e-19 2.28941)
(11.4355 2.71715e-21 2.1705)
(11.6337 2.34589e-19 2.36698)
(11.571 2.32901e-19 2.24681)
(11.7788 1.13624e-19 2.43675)
(11.7102 4.70115e-21 2.31607)
(11.9264 0 2.49819)
(11.852 0 2.37772)
(12.0752 0 2.55088)
(11.9953 2.14126e-19 2.43137)
(12.224 1.1682e-22 2.59429)
(12.1387 -2.19361e-19 2.47675)
(12.2936 -2.6176e-19 2.51408)
(12.3708 7.59867e-23 2.62605)
(11.1415 -1.46126e-19 1.88883)
(11.0991 -2.06579e-19 1.78291)
(11.2616 -1.18476e-19 1.97344)
(11.2146 0 1.86481)
(11.3868 -1.15317e-19 2.05322)
(11.335 -1.18409e-19 1.94243)
(11.5166 1.15217e-19 2.12736)
(11.4597 0 2.01497)
(11.6499 -3.30034e-21 2.19515)
(11.5879 4.84905e-21 2.08178)
(11.7859 -1.11799e-19 2.25603)
(11.7188 9.9192e-20 2.14231)
(11.9234 2.2008e-19 2.30962)
(11.8515 -2.72793e-19 2.19615)
(12.0615 -1.25383e-20 2.35569)
(11.9849 2.19273e-19 2.24307)
(12.1991 -4.87767e-19 2.39389)
(12.118 -1.7186e-19 2.28291)
(12.2615 -3.20616e-19 2.31601)
(12.3346 3.19365e-19 2.42211)
(11.1742 -5.66033e-20 1.75865)
(11.13 -5.63342e-20 1.65755)
(11.2899 0 1.83343)
(11.2416 -1.0674e-19 1.72997)
(11.4098 0 1.90367)
(11.3573 1.08175e-19 1.79839)
(11.5331 -1.13209e-19 1.96871)
(11.4762 -3.81908e-21 1.86213)
(11.659 1.09989e-19 2.02805)
(11.5977 -3.29212e-19 1.92068)
(11.7866 -6.68957e-20 2.08131)
(11.7211 2.19422e-19 1.97367)
(11.9152 -2.71858e-19 2.12823)
(11.8456 -2.26746e-19 2.02083)
(12.0438 5.42262e-20 2.16869)
(11.9704 -5.20802e-20 2.062)
(12.1717 -1.68325e-21 2.20245)
(12.0945 2.24142e-21 2.09712)
(12.228 -2.03969e-19 2.12657)
(12.2975 4.40521e-19 2.22763)
(11.1994 -1.07815e-19 1.62852)
(11.1543 1.07166e-19 1.53199)
(11.3108 4.41985e-21 1.6944)
(11.2619 -2.13685e-19 1.59576)
(11.4255 1.04128e-19 1.75616)
(11.3729 3.19866e-19 1.65588)
(11.5428 -2.25926e-19 1.81325)
(11.4864 1.00651e-19 1.71184)
(11.6619 -2.15724e-19 1.86528)
(11.6017 -2.21701e-19 1.7632)
(11.7821 5.42198e-20 1.91196)
(11.7183 0 1.80965)
(11.9028 -9.18356e-22 1.95315)
(11.8355 1.05262e-19 1.85102)
(12.0231 -1.05131e-19 1.98878)
(11.9526 -2.28593e-21 1.88722)
(12.1425 -2.06304e-19 2.01871)
(12.0688 -5.306e-20 1.91824)
(12.1936 -1.28767e-19 1.9445)
(12.2598 4.09168e-19 2.04123)
(11.2186 -1.57269e-21 1.49876)
(11.1726 1.08231e-19 1.40634)
(11.3257 1.10593e-19 1.55663)
(11.2765 -4.99658e-21 1.46242)
(11.4354 3.16174e-19 1.61077)
(11.383 1.12682e-19 1.51509)
(11.547 1.04457e-19 1.66082)
(11.4913 3.07041e-19 1.56408)
(11.6599 0 1.70643)
(11.601 -1.53986e-19 1.60905)
(11.7735 5.25932e-20 1.74739)
(11.7114 1.98232e-19 1.64975)
(11.887 1.03548e-19 1.78358)
(11.8221 -1.50611e-19 1.68604)
(12 5.09371e-20 1.815)
(11.9323 -1.43876e-19 1.71788)
(12.112 2.59779e-20 1.84156)
(12.0416 2.50384e-19 1.7453)
(12.1588 1.95164e-19 1.7687)
(12.2219 -4.73888e-19 1.8617)
(11.2322 1.04735e-19 1.36935)
(11.1856 -9.78407e-20 1.28059)
(11.3354 -2.73937e-21 1.42012)
(11.286 3.97047e-19 1.32982)
(11.4404 1.03481e-19 1.4675)
(11.3883 -4.97652e-19 1.3759)
(11.5468 4.11372e-20 1.51125)
(11.4919 4.03656e-19 1.41867)
(11.6541 5.00079e-20 1.55115)
(11.5964 -2.07175e-19 1.45792)
(11.7616 -1.09584e-20 1.58702)
(11.7014 2.03361e-19 1.49348)
(11.8689 -4.04336e-19 1.61879)
(11.8062 -2.57199e-19 1.52524)
(11.9755 6.17135e-20 1.64648)
(11.9105 -3.92934e-19 1.55321)
(12.0809 4.23641e-19 1.67003)
(12.0137 2.13743e-19 1.5774)
(12.1243 5.59522e-19 1.59822)
(12.1843 -8.03635e-19 1.68803)
(11.241 2.02606e-19 1.24028)
(11.1941 -1.01049e-19 1.1549)
(11.3405 -1.11887e-19 1.28468)
(11.2912 2.04515e-19 1.19787)
(11.4413 -1.88449e-19 1.32603)
(11.3897 -4.03636e-19 1.23802)
(11.543 1.47885e-19 1.36416)
(11.4891 2.51553e-19 1.27522)
(11.6452 -4.91215e-20 1.39893)
(11.589 -2.38821e-19 1.30934)
(11.7474 -5.02399e-20 1.43024)
(11.689 1.92684e-19 1.34028)
(11.8492 -2.45779e-19 1.45806)
(11.7887 -5.01594e-20 1.36797)
(11.9501 -2.35418e-19 1.48239)
(11.8877 -1.96655e-19 1.39243)
(12.0497 3.51203e-19 1.5032)
(11.9855 -2.54172e-19 1.41369)
(12.0903 5.87271e-19 1.43212)
(12.1475 -1.96091e-19 1.51922)
(11.2458 -9.8914e-20 1.11159)
(11.1991 -5.23549e-22 1.02925)
(11.3419 -9.56751e-20 1.15018)
(11.2931 -9.83574e-20 1.06647)
(11.4389 4.88707e-20 1.18607)
(11.388 1.36978e-19 1.1012)
(11.5364 -1.46083e-19 1.21913)
(11.4836 -1.38773e-19 1.13335)
(11.6341 1.00368e-20 1.24929)
(11.5794 -1.93378e-19 1.16283)
(11.7316 1.92388e-19 1.27649)
(11.6751 1.51643e-19 1.18958)
(11.8285 0 1.30071)
(11.7702 -2.05781e-19 1.21357)
(11.9244 -2.15919e-19 1.32197)
(11.8646 1.86978e-19 1.23483)
(12.019 -1.53594e-20 1.34027)
(11.9578 -1.9253e-19 1.25338)
(12.0575 1.96424e-19 1.26958)
(12.1119 1.27851e-19 1.35445)
(11.2477 0 0.983087)
(11.2013 0 0.903514)
(11.3406 1.40815e-19 1.01633)
(11.2924 1.77507e-19 0.935406)
(11.4341 -5.60365e-20 1.04722)
(11.3842 4.90237e-20 0.965148)
(11.5279 -1.87434e-19 1.07566)
(11.4764 -1.50408e-20 0.99266)
(11.6216 -4.75019e-20 1.10162)
(11.5686 -1.82057e-19 1.01789)
(11.7149 -2.57734e-19 1.12505)
(11.6604 -2.35463e-21 1.04079)
(11.8075 -1.32174e-20 1.14597)
(11.7516 -2.11326e-19 1.06138)
(11.8991 2.10431e-19 1.1644)
(11.842 3.69762e-19 1.07966)
(11.9894 2.3001e-20 1.18033)
(11.9311 -3.35607e-19 1.09568)
(12.0265 1.9318e-19 1.10977)
(12.0781 0 1.19277)
(11.2473 1.82511e-19 0.854721)
(11.2015 8.75612e-20 0.777468)
(11.3374 8.31158e-20 0.883002)
(11.2901 3.11299e-19 0.804386)
(11.4278 9.1096e-20 0.909262)
(11.3792 -2.70643e-19 0.829474)
(11.5183 -9.66474e-21 0.933445)
(11.4683 -3.39133e-20 0.852675)
(11.6086 -1.35507e-19 0.955519)
(11.5573 -1.03423e-20 0.873954)
(11.6983 4.51603e-20 0.975475)
(11.6459 4.63831e-20 0.893293)
(11.7872 1.82832e-19 0.993327)
(11.7337 1.41452e-22 0.910699)
(11.875 -1.92094e-19 1.00911)
(11.8206 1.60789e-19 0.926198)
(11.9615 -1.62268e-19 1.02282)
(11.9062 -3.91192e-19 0.939831)
(11.9979 1.76705e-19 0.951889)
(12.0465 1.15846e-19 1.03358)
(11.2456 2.20031e-19 0.725805)
(11.2007 9.00609e-20 0.650814)
(11.3332 -5.26522e-20 0.749428)
(11.2871 1.74766e-19 0.67303)
(11.4209 -3.9912e-19 0.771356)
(11.3737 -2.23804e-19 0.693729)
(11.5086 -3.46175e-20 0.791552)
(11.4603 -4.11726e-19 0.71287)
(11.5958 1.76725e-19 0.809997)
(11.5466 3.7471e-19 0.730432)
(11.6824 6.46749e-23 0.826692)
(11.6323 0 0.746406)
(11.7682 -2.2429e-20 0.841654)
(11.7173 -1.46895e-19 0.760804)
(11.8528 -4.43375e-20 0.854916)
(11.8012 1.70961e-19 0.773652)
(11.9362 -4.4368e-20 0.866478)
(11.884 -1.18331e-20 0.784986)
(11.9725 1.56194e-19 0.795055)
(12.018 4.66136e-21 0.875604)
(11.2434 4.35143e-20 0.596745)
(11.1997 8.23019e-20 0.523158)
(11.3289 -1.33119e-21 0.615936)
(11.2842 4.35314e-20 0.540874)
(11.4143 -2.36806e-19 0.63375)
(11.3688 1.70963e-20 0.557378)
(11.4995 9.52799e-21 0.650162)
(11.4533 -2.56966e-19 0.572643)
(11.5843 1.92832e-19 0.665162)
(11.5373 1.77877e-19 0.586654)
(11.6683 -1.51231e-19 0.678756)
(11.6207 -2.06152e-20 0.599412)
(11.7514 5.21875e-20 0.690962)
(11.7033 -1.51291e-19 0.610927)
(11.8333 2.04412e-19 0.701812)
(11.7848 1.99186e-19 0.621223)
(11.914 1.94756e-19 0.711305)
(11.8652 1.84881e-19 0.630334)
(11.9511 -1.469e-19 0.638471)
(11.9932 -2.91346e-19 0.71884)
(11.2417 8.23298e-20 0.465585)
(11.1993 8.4758e-20 0.394021)
(11.3253 6.25182e-20 0.480519)
(11.2823 1.98134e-20 0.407365)
(11.4089 -3.56648e-21 0.494381)
(11.3653 8.24684e-20 0.419796)
(11.4922 -8.37564e-20 0.507153)
(11.448 1.45647e-20 0.431298)
(11.5749 -4.18672e-20 0.518831)
(11.5303 -9.20233e-20 0.44186)
(11.6568 -2.06238e-20 0.529422)
(11.6119 -1.23338e-21 0.451484)
(11.7378 0 0.538941)
(11.6925 1.00147e-20 0.46018)
(11.8176 1.7906e-19 0.547414)
(11.7722 1.00254e-20 0.467964)
(11.8962 -1.64919e-19 0.55484)
(11.8506 1.84261e-19 0.474859)
(11.9345 -3.36142e-19 0.481024)
(11.9733 1.7268e-19 0.560755)
(11.2411 2.03999e-20 0.334354)
(11.2001 0 0.262827)
(11.3234 4.03411e-20 0.345107)
(11.282 -4.65099e-20 0.271855)
(11.4056 1.01236e-19 0.355096)
(11.3638 -1.68722e-20 0.28027)
(11.4873 6.13135e-21 0.36431)
(11.4453 1.59465e-19 0.288059)
(11.5684 -5.0193e-20 0.372748)
(11.5262 -8.75276e-20 0.295217)
(11.6487 3.03699e-20 0.380414)
(11.6065 2.06677e-20 0.301747)
(11.728 2.0353e-20 0.387321)
(11.6858 6.03136e-22 0.307656)
(11.8062 1.52045e-20 0.393485)
(11.764 6.05517e-22 0.312959)
(11.8831 1.0199e-20 0.398905)
(11.8411 -7.17701e-20 0.317673)
(11.9235 1.55955e-19 0.321913)
(11.9586 3.9055e-22 0.40324)
(11.2421 -6.89274e-20 0.198093)
(11.1038 1.88428e-20 0.129442)
(11.3235 -1.05543e-19 0.204667)
(11.183 -5.9604e-20 0.134117)
(11.4047 4.2959e-20 0.210767)
(11.2622 -3.85613e-20 0.138471)
(11.4854 6.31968e-20 0.216389)
(11.3412 9.91105e-20 0.142499)
(11.5654 -1.45494e-20 0.221534)
(11.4197 -2.93348e-20 0.146198)
(11.6446 -1.00122e-20 0.226206)
(11.4975 0 0.14957)
(11.7229 -1.97524e-20 0.230416)
(11.5745 -1.002e-20 0.152621)
(11.8 -8.90554e-20 0.234179)
(11.6505 -2.87763e-20 0.155359)
(11.8758 7.74733e-20 0.237498)
(11.7254 -6.49392e-20 0.157794)
(11.8056 1.55597e-19 0.159993)
(11.9502 9.94498e-20 0.240136)
(11.0429 2.84947e-20 0.0641602)
(11.1199 9.37641e-21 0.0665707)
(11.1968 1.91922e-20 0.0688086)
(11.2735 3.88787e-21 0.0708708)
(11.3497 -1.43535e-20 0.0727565)
(11.4252 0 0.0744668)
(11.4999 -1.93051e-20 0.076005)
(11.5737 -3.89978e-21 0.0773749)
(11.6462 1.4437e-20 0.0785795)
(11.7175 -8.7907e-20 0.0795088)
(12.5967 -1.36216e-21 4.02647)
(12.6561 -3.16052e-19 3.88184)
(12.5626 -6.23599e-23 3.72791)
(12.7764 -3.42079e-19 3.90245)
(12.693 -3.59841e-19 3.75127)
(12.8039 -2.96653e-20 3.76833)
(12.8988 1.46455e-19 3.91458)
(12.613 -4.66923e-20 3.59509)
(12.5276 3.63872e-19 3.45383)
(12.7201 -4.4321e-20 3.61317)
(12.6441 -7.29798e-19 3.47419)
(12.7432 3.54471e-19 3.48948)
(12.8289 6.75223e-20 3.62493)
(12.5705 -3.41394e-19 3.33082)
(12.4918 3.74098e-19 3.20007)
(12.6667 -3.3648e-19 3.34692)
(12.5967 -7.46175e-19 3.21808)
(12.6861 6.15485e-20 3.23193)
(12.7642 6.64793e-19 3.35823)
(12.5284 -4.65398e-20 3.0853)
(12.4552 -1.69373e-21 2.96334)
(12.6154 -3.49785e-19 3.09981)
(12.5504 3.80084e-19 2.97944)
(12.6315 -7.31668e-19 2.99209)
(12.7036 -3.01217e-19 3.11063)
(12.4865 4.34354e-19 2.85552)
(12.4178 4.69062e-20 2.74096)
(12.5658 4.6277e-21 2.86869)
(12.5048 1.16406e-20 2.75547)
(12.5789 1.05962e-20 2.76707)
(12.646 -4.11366e-19 2.87901)
(12.4446 -3.85219e-19 2.639)
(12.3797 3.64894e-19 2.53074)
(12.5172 1.77463e-20 2.65102)
(12.4597 -3.8609e-19 2.54389)
(12.5278 7.4835e-19 2.55457)
(12.5907 5.34293e-19 2.66084)
(12.4025 3.65986e-19 2.43376)
(12.341 7.24892e-19 2.3309)
(12.4695 3.46101e-19 2.44476)
(12.4149 -7.61662e-21 2.34285)
(12.4778 -1.6071e-20 2.35268)
(12.5373 3.48848e-19 2.45406)
(12.3604 3.42281e-19 2.23815)
(12.3018 7.35381e-19 2.13992)
(12.4225 -3.78355e-19 2.24822)
(12.3705 -7.8015e-21 2.15078)
(12.4289 -4.06712e-20 2.15983)
(12.4853 -5.11414e-19 2.25698)
(12.3183 3.77422e-19 2.05073)
(12.2625 2.25547e-20 1.95647)
(12.3762 3.3861e-19 2.05994)
(12.3266 3.43238e-19 1.96635)
(12.3811 6.73503e-19 1.97465)
(12.4346 3.10012e-19 2.06816)
(12.2766 -1.22186e-20 1.87028)
(12.2234 -1.04649e-18 1.77944)
(12.3309 6.81881e-19 1.87869)
(12.2836 6.88713e-19 1.7884)
(12.3347 3.28253e-19 1.796)
(12.3855 3.37426e-19 1.88634)
(12.2358 -3.34757e-19 1.69575)
(12.185 -1.02641e-18 1.60782)
(12.2868 3.31051e-19 1.7034)
(12.2417 3.35236e-19 1.61591)
(12.2899 9.5897e-21 1.62282)
(12.3381 -1.38627e-20 1.71047)
(12.1961 -3.46911e-19 1.52615)
(12.1478 -3.42568e-19 1.44067)
(12.2443 9.96213e-21 1.53307)
(12.2015 -4.88993e-22 1.44794)
(12.2471 9.03158e-22 1.45418)
(12.2927 -8.44582e-20 1.53955)
(12.158 1.01865e-20 1.36062)
(12.1121 0 1.27713)
(12.2037 -9.80882e-21 1.36683)
(12.1632 1.02745e-20 1.2836)
(12.2066 -1.05773e-20 1.28918)
(12.2497 8.28205e-20 1.37272)
(12.1219 0 1.19821)
(12.0786 -9.68053e-21 1.11637)
(12.1655 9.768e-21 1.20372)
(12.1274 0 1.12206)
(12.1688 9.89991e-21 1.12699)
(12.2093 1.30747e-20 1.20899)
(12.0884 -9.77656e-21 1.03831)
(12.0479 4.22207e-21 0.957538)
(12.1302 0 1.04313)
(12.0948 -4.66966e-21 0.962453)
(12.1345 0 0.966722)
(12.1722 -1.11925e-19 1.04777)
(12.0584 9.56819e-21 0.879634)
(12.0207 -2.8659e-19 0.799833)
(12.0986 -4.73352e-21 0.88375)
(12.0659 -2.89569e-19 0.80398)
(12.1043 2.8483e-19 0.807594)
(12.139 0 0.887744)
(12.0323 -5.94409e-19 0.722182)
(11.9979 -2.15996e-20 0.642272)
(12.0713 4.44783e-22 0.725606)
(12.0418 -2.93234e-19 0.645635)
(12.079 1.92766e-20 0.648565)
(12.1103 2.83996e-19 0.728943)
(12.0113 2.92012e-19 0.563382)
(11.9802 2.95154e-19 0.484044)
(12.0492 -2.78364e-19 0.566078)
(12.023 -2.71305e-19 0.48662)
(12.0594 -8.83122e-21 0.488879)
(12.0872 -2.68117e-19 0.568715)
(11.9958 -2.78471e-19 0.405172)
(11.9683 -2.98789e-21 0.32381)
(12.0329 2.88153e-21 0.407157)
(12.0104 -4.1742e-19 0.325549)
(12.0461 2.82411e-19 0.327041)
(12.0702 3.69346e-19 0.409102)
(11.9868 -1.41301e-19 0.241264)
(11.8491 -6.52431e-20 0.161121)
(12.0234 -1.39471e-19 0.242393)
(11.89 -7.51266e-20 0.161908)
(11.9247 0 0.162616)
(12.0601 -4.96722e-20 0.243498)
(11.7527 2.77966e-21 0.0798731)
(11.7877 6.75941e-20 0.0802194)
(11.8229 -2.30781e-20 0.0805683)
(12.9982 3.85784e-19 3.78067)
(13.0431 2.29914e-19 3.63186)
(12.917 3.79282e-19 3.50288)
(13.2571 -1.40614e-19 3.62186)
(13.1007 -3.72058e-19 3.50288)
(13.4658 -1.79983e-19 3.59192)
(13.3019 1.40956e-19 3.48688)
(13.5024 -1.68428e-19 3.45312)
(12.9571 -2.0752e-19 3.36785)
(12.8428 4.42757e-19 3.24584)
(13.1511 -9.2459e-20 3.36392)
(13.0091 -4.60949e-19 3.24934)
(13.3423 1.55372e-19 3.34394)
(13.1925 3.42592e-19 3.24026)
(13.5279 -1.59938e-19 3.30831)
(13.3772 -1.73241e-19 3.21675)
(13.7057 -1.20791e-19 3.25854)
(13.5548 6.77889e-21 3.17918)
(13.7234 -1.20867e-19 3.12908)
(12.8786 2.07927e-19 3.12194)
(12.774 3.97822e-19 3.00615)
(13.0553 -2.52988e-20 3.12217)
(12.9254 -1.89606e-19 3.01199)
(13.2307 1.18729e-20 3.10939)
(13.0933 -2.08728e-20 3.00783)
(13.4028 -5.51765e-21 3.08362)
(13.2637 -4.02153e-22 2.99186)
(13.5695 8.99017e-21 3.0458)
(13.4291 -4.51439e-21 2.9641)
(13.7294 1.22318e-20 2.9972)
(13.588 -1.34152e-19 2.92552)
(13.8812 1.15585e-19 2.93924)
(13.7402 1.31183e-19 2.87739)
(13.885 1.09621e-19 2.82102)
(12.8057 8.35863e-21 2.89133)
(12.7092 1.46081e-19 2.78104)
(12.9676 -1.88098e-19 2.89447)
(12.848 3.33564e-20 2.78844)
(13.1291 -3.37782e-20 2.88699)
(13.0024 -1.99425e-19 2.78782)
(13.2888 6.79204e-22 2.86871)
(13.1601 -1.46437e-19 2.77752)
(13.445 -1.48845e-19 2.8402)
(13.3144 2.90692e-19 2.75731)
(13.5963 -1.70108e-20 2.8023)
(13.4639 -2.8388e-19 2.72783)
(13.7416 1.25511e-19 2.75602)
(13.6085 2.51754e-19 2.68994)
(13.88 0 2.70249)
(13.7477 -1.24107e-19 2.64462)
(13.8805 -1.06992e-19 2.59289)
(12.7374 1.7973e-19 2.6737)
(12.6477 -1.7259e-19 2.56826)
(12.8865 2.36775e-20 2.67888)
(12.7757 1.83488e-19 2.57667)
(13.0359 -3.15856e-19 2.67532)
(12.9183 -3.27495e-19 2.57861)
(13.1844 1.43055e-19 2.66278)
(13.0648 1.63113e-19 2.57257)
(13.3308 1.63006e-19 2.64158)
(13.209 1.51976e-19 2.55822)
(13.4738 -1.83177e-20 2.61226)
(13.3497 -1.45472e-19 2.53595)
(13.6124 2.70975e-21 2.57553)
(13.487 1.2861e-19 2.50636)
(13.7458 -2.34245e-19 2.5322)
(13.6204 -1.27344e-19 2.47013)
(13.7489 -1.09822e-19 2.42803)
(12.6728 -1.76252e-19 2.46712)
(12.5889 -2.00599e-19 2.36596)
(12.8107 -1.69014e-19 2.47368)
(12.7074 -1.77888e-19 2.37495)
(12.9495 1.55707e-19 2.47304)
(12.8399 3.38661e-19 2.37871)
(13.0881 1.72614e-19 2.4649)
(12.9764 4.30312e-22 2.37588)
(13.2255 -1.58615e-19 2.44944)
(13.1115 -1.59649e-19 2.36607)
(13.3607 0 2.42701)
(13.2443 0 2.34952)
(13.4929 0 2.39807)
(13.3746 0 2.32663)
(13.6212 0 2.36322)
(13.5022 -1.20886e-19 2.29788)
(13.6262 2.17922e-20 2.26384)
(12.6111 -2.02693e-19 2.26997)
(12.5323 -2.40062e-19 2.17258)
(12.7394 3.33958e-19 2.27742)
(12.6426 -2.04819e-19 2.18184)
(12.8688 1.84858e-19 2.27891)
(12.7662 5.23537e-19 2.18686)
(12.9986 -3.37519e-19 2.27414)
(12.894 -3.39261e-19 2.18641)
(13.128 -1.08082e-22 2.26318)
(13.021 2.20277e-21 2.1801)
(13.256 0 2.24626)
(13.1464 2.25013e-21 2.16807)
(13.382 -1.21656e-19 2.22368)
(13.2704 0 2.15059)
(13.5052 -1.01223e-19 2.19585)
(13.3924 1.20234e-19 2.12798)
(13.5119 -2.18665e-19 2.10065)
(12.5521 -2.43034e-19 2.08085)
(12.4778 -3.86876e-19 1.98678)
(12.6719 -2.30151e-20 2.08882)
(12.581 3.47863e-19 1.99605)
(12.7932 0 2.09183)
(12.6968 -2.35296e-21 2.00188)
(12.9152 2.3124e-21 2.08961)
(12.8169 -3.1589e-19 2.00318)
(13.0372 4.60833e-21 2.08218)
(12.9367 4.69933e-21 1.99957)
(13.1587 2.29459e-21 2.06965)
(13.0555 1.02566e-22 1.9911)
(13.2789 2.45769e-19 2.05223)
(13.1734 0 1.97796)
(13.3972 6.39783e-21 2.03021)
(13.2903 4.96078e-19 1.96037)
(13.4054 -7.34323e-19 1.93862)
(12.4956 2.02527e-19 1.89857)
(12.4255 -1.7004e-19 1.80741)
(12.6081 3.73151e-19 1.90675)
(12.5225 4.71022e-20 1.81649)
(12.7221 -3.22512e-19 1.91081)
(12.6314 3.26143e-19 1.82278)
(12.8372 -3.19934e-19 1.91049)
(12.7447 -6.48445e-19 1.82532)
(12.9527 1.70923e-22 1.90578)
(12.8581 1.23665e-20 1.82374)
(13.0682 -2.24447e-21 1.89675)
(12.9709 2.86639e-19 1.81805)
(13.183 2.46903e-19 1.88351)
(13.0834 -8.4088e-21 1.80838)
(13.2967 -2.39785e-19 1.86627)
(13.1954 2.51881e-19 1.79488)
(13.3064 -2.54408e-19 1.77775)
(12.4418 -3.34255e-19 1.72209)
(12.3756 -1.66349e-19 1.63345)
(12.5478 -7.36213e-21 1.73023)
(12.4671 -5.16971e-19 1.64219)
(12.6555 9.34465e-21 1.73495)
(12.5701 6.80944e-19 1.64866)
(12.7644 -3.2069e-19 1.73601)
(12.6774 -6.29167e-19 1.65202)
(12.8741 3.00424e-19 1.73339)
(12.785 3.1524e-19 1.65193)
(12.9842 2.86359e-19 1.72711)
(12.8925 2.94252e-19 1.64839)
(13.0941 -8.58047e-21 1.71724)
(13.0001 -4.01897e-22 1.64147)
(13.2034 2.4693e-19 1.7039)
(13.1076 0 1.63127)
(13.2147 2.3737e-19 1.61791)
(12.3909 -3.49021e-19 1.55045)
(12.3283 -7.45049e-21 1.46398)
(12.4912 1.69104e-19 1.55836)
(12.4151 -1.7904e-20 1.47224)
(12.5933 5.34848e-20 1.56343)
(12.5128 2.51863e-20 1.47866)
(12.6968 4.43891e-21 1.56544)
(12.6148 -3.08875e-19 1.48251)
(12.8013 3.09191e-19 1.56438)
(12.7174 5.97159e-19 1.48348)
(12.9065 6.01095e-21 1.56022)
(12.8201 -2.84499e-19 1.48155)
(13.0119 8.38375e-21 1.55302)
(12.9232 2.65338e-19 1.47677)
(13.1172 -1.46618e-20 1.54285)
(13.0267 -2.53409e-19 1.46919)
(13.1302 -2.97079e-20 1.45891)
(12.3429 3.32375e-19 1.38279)
(12.2839 1.67639e-19 1.2981)
(12.4384 -1.66203e-19 1.39032)
(12.3665 2.80626e-21 1.30577)
(12.5355 -3.39634e-19 1.39548)
(12.4597 -1.85633e-19 1.31195)
(12.6343 2.80654e-19 1.39811)
(12.5571 -4.90753e-21 1.31602)
(12.7342 6.62805e-21 1.39816)
(12.6552 5.74918e-19 1.31768)
(12.835 -2.99233e-20 1.39562)
(12.7537 -5.67769e-19 1.31693)
(12.9364 7.40218e-21 1.39051)
(12.8529 2.63865e-19 1.31378)
(13.038 -2.7357e-19 1.38286)
(12.9527 -2.60301e-19 1.30827)
(13.0529 -7.45927e-22 1.30045)
(12.2983 -1.63987e-19 1.21816)
(12.2428 -1.67021e-19 1.13497)
(12.3895 -1.43334e-20 1.22516)
(12.3219 -1.63698e-19 1.14194)
(12.4824 1.5421e-19 1.23021)
(12.4111 3.12401e-19 1.14773)
(12.577 2.84638e-19 1.23316)
(12.5045 2.31766e-21 1.15178)
(12.6728 1.01448e-20 1.23397)
(12.5987 5.68406e-19 1.15385)
(12.7698 -2.83944e-19 1.23261)
(12.6935 -2.93048e-19 1.15391)
(12.8676 0 1.2291)
(12.7892 -2.55602e-19 1.15198)
(12.966 1.44607e-20 1.22344)
(12.8858 7.58507e-21 1.14807)
(12.9831 1.47733e-20 1.1422)
(12.2576 -1.69392e-19 1.05595)
(12.2057 -1.71711e-19 0.97373)
(12.345 1.63397e-19 1.06231)
(12.2817 1.60657e-19 0.979922)
(12.4343 1.63286e-19 1.06707)
(12.3674 -1.4157e-19 0.985182)
(12.5252 2.81292e-19 1.07011)
(12.4574 1.4726e-19 0.989037)
(12.6176 2.76292e-19 1.07139)
(12.5483 4.20862e-19 0.991272)
(12.7112 -2.6462e-19 1.07088)
(12.64 -1.22313e-20 0.991857)
(12.8059 -2.53601e-19 1.06858)
(12.7326 -3.94081e-19 0.990799)
(12.9014 7.75098e-21 1.06448)
(12.8264 4.02623e-22 0.988105)
(12.921 0 0.983789)
(12.2213 1.57132e-19 0.894854)
(12.1731 -1.54064e-19 0.813541)
(12.3056 -1.45841e-19 0.900461)
(12.2465 3.17282e-19 0.818878)
(12.3917 -1.63875e-19 0.904782)
(12.3294 -4.58191e-19 0.823488)
(12.4796 2.84561e-19 0.907708)
(12.4165 2.92759e-19 0.826984)
(12.569 1.34224e-19 0.909204)
(12.5046 1.39398e-19 0.829182)
(12.6597 -1.36623e-19 0.909247)
(12.5935 -1.31238e-19 0.830052)
(12.7516 -1.41642e-19 0.907821)
(12.6836 -1.03838e-20 0.829597)
(12.8446 -7.55223e-21 0.904924)
(12.7749 -3.04878e-22 0.827817)
(12.8672 0 0.824717)
(12.1901 -2.96753e-21 0.734927)
(12.1458 -4.6485e-22 0.653482)
(12.2718 1.32252e-20 0.739705)
(12.2171 1.61019e-19 0.657888)
(12.3553 -4.172e-21 0.743472)
(12.2977 -1.50404e-19 0.661755)
(12.4406 1.46937e-19 0.746138)
(12.3824 1.20226e-20 0.664761)
(12.5275 -1.27471e-19 0.747673)
(12.4682 1.33799e-19 0.666756)
(12.6158 -4.10277e-21 0.748056)
(12.5549 -1.3036e-19 0.667715)
(12.7054 1.34896e-19 0.747268)
(12.6428 1.08172e-20 0.667638)
(12.7962 7.46371e-21 0.745305)
(12.7321 1.16284e-19 0.666521)
(12.8226 0 0.664363)
(12.1649 1.62125e-19 0.573479)
(12.1246 1.58372e-19 0.492571)
(12.2445 0 0.57732)
(12.1943 0 0.495987)
(12.326 -1.36798e-19 0.580393)
(12.2731 1.38448e-19 0.499012)
(12.4092 -4.31511e-21 0.58263)
(12.3559 -1.45118e-19 0.501413)
(12.494 1.37148e-19 0.584006)
(12.4399 -1.18134e-19 0.503068)
(12.5804 -1.18374e-19 0.584503)
(12.5248 1.24322e-19 0.503955)
(12.6682 -1.08436e-20 0.584102)
(12.6111 -1.21248e-19 0.504074)
(12.7573 1.11335e-19 0.582798)
(12.6988 1.12159e-19 0.50342)
(12.7879 -1.06625e-19 0.501989)
(12.1463 -4.87021e-21 0.412639)
(12.1103 -7.90144e-20 0.329675)
(12.2244 1.39356e-19 0.415526)
(12.1788 1.41818e-19 0.332008)
(12.3043 1.36208e-19 0.417872)
(12.2562 7.29453e-20 0.334143)
(12.386 -2.63191e-19 0.419624)
(12.3377 6.01176e-20 0.335855)
(12.4693 -1.37446e-19 0.420768)
(12.4203 -3.27834e-19 0.337057)
(12.5542 1.27373e-19 0.421289)
(12.504 1.28357e-19 0.337745)
(12.6406 0 0.421174)
(12.5891 0 0.337919)
(12.7283 -1.07423e-19 0.420417)
(12.6756 0 0.337575)
(12.7636 -1.55486e-19 0.336709)
(12.1352 6.57779e-20 0.245591)
(11.9871 -1.10972e-19 0.163651)
(12.2122 7.46216e-20 0.247382)
(12.0537 1.81368e-19 0.164996)
(12.2909 -6.11276e-21 0.248843)
(12.1289 -7.12176e-20 0.166119)
(12.3715 3.04985e-21 0.249926)
(12.2082 6.73083e-20 0.166976)
(12.4538 -6.48946e-20 0.250631)
(12.2886 -6.54396e-20 0.16757)
(12.5377 0 0.250957)
(12.3701 0 0.167903)
(12.6231 0 0.250897)
(12.4529 0 0.16797)
(12.71 -4.57999e-20 0.250443)
(12.5372 0 0.167764)
(12.6229 -4.84383e-20 0.167283)
(11.8947 -6.12432e-22 0.0812863)
(11.9684 3.69016e-20 0.0819418)
(12.0439 1.06306e-21 0.0824706)
(12.1211 -1.19315e-22 0.0828489)
(12.2 -1.21444e-22 0.0830809)
(12.2804 0 0.083168)
(12.3623 0 0.0831069)
(12.4455 -1.5724e-21 0.0828943)
)
;

boundaryField
{
    inlet
    {
        type            calculated;
        value           nonuniform 0();
    }
    outlet
    {
        type            calculated;
        value           nonuniform 0();
    }
    flap
    {
        type            calculated;
        value           nonuniform 0();
    }
    upperWall
    {
        type            calculated;
        value           uniform (0 0 0);
    }
    lowerWall
    {
        type            calculated;
        value           nonuniform 0();
    }
    frontAndBack
    {
        type            empty;
        value           nonuniform 0();
    }
    procBoundary1to0
    {
        type            processor;
        value           nonuniform List<vector> 
18
(
(11.0492 1.57505e-20 2.14718)
(11.1001 -2.25063e-19 2.01853)
(11.0603 -2.83183e-19 1.90751)
(11.0271 -2.65447e-19 1.80034)
(11.0631 -5.27261e-22 1.68013)
(11.0919 2.16907e-19 1.55907)
(11.1145 2.77572e-21 1.43747)
(11.1314 -1.00868e-19 1.31539)
(11.1433 1.92873e-19 1.19299)
(11.1511 -1.91279e-19 1.07043)
(11.1558 -9.23997e-20 0.947594)
(11.158 -4.44383e-20 0.824501)
(11.1585 2.20611e-19 0.700548)
(11.1583 -4.02649e-20 0.576218)
(11.1581 1.65977e-19 0.449607)
(11.1588 -1.17543e-19 0.322857)
(11.1607 2.83114e-20 0.191055)
(10.9662 6.59065e-20 0.0615823)
)
;
    }
    procBoundary1to2
    {
        type            processor;
        value           nonuniform List<vector> 
17
(
(14.0109 0 2.64295)
(13.8734 -1.16541e-19 2.48323)
(13.745 0 2.32317)
(13.6251 -1.17532e-19 2.16331)
(13.5131 -4.66035e-21 2.00396)
(13.4087 -9.4162e-19 1.84528)
(13.3117 4.79508e-19 1.68729)
(13.222 -7.96453e-22 1.52983)
(13.1397 -2.87781e-20 1.37277)
(13.0647 -2.0022e-19 1.2157)
(12.9974 -2.26215e-19 1.05863)
(12.9383 1.3308e-20 0.90058)
(12.888 -1.09585e-19 0.742178)
(12.8474 6.41531e-21 0.580593)
(12.8173 -2.11841e-19 0.419016)
(12.7981 -4.85173e-20 0.249595)
(12.5299 -1.59823e-21 0.0825285)
)
;
    }
    procBoundary1to3
    {
        type            processor;
        value           nonuniform List<vector> 9((10.0439 1.13459e-18 3.04767) (10.207 -1.07056e-18 2.99291) (10.3583 6.75283e-19 2.92177) (10.4967 3.1258e-19 2.8365) (10.6214 -3.11114e-19 2.7394) (10.7326 -4.34727e-19 2.63266) (10.8303 2.14239e-19 2.51827) (10.9151 0 2.39816) (10.9878 -2.73265e-19 2.27404));
    }
    procBoundary1to4
    {
        type            processor;
        value           nonuniform List<vector> 
30
(
(10.0008 3.71424e-19 3.20871)
(10.1547 2.43975e-20 3.33239)
(10.3079 -2.98395e-20 3.43508)
(10.4744 -3.40377e-19 3.73131)
(10.6734 6.28439e-19 3.81552)
(10.858 6.35698e-19 3.87189)
(11.1013 -7.115e-20 4.14204)
(11.3159 1.31122e-19 4.15411)
(11.5025 1.30597e-19 4.14219)
(11.7915 -6.39085e-19 4.34252)
(11.9801 2.44391e-19 4.26989)
(12.1348 7.18994e-19 4.19184)
(12.4483 -1.16496e-19 4.30606)
(12.6295 -4.63525e-20 4.35484)
(12.7 -1.34442e-21 4.19608)