/*--------------------------------*- C++ -*----------------------------------*\
| =========                 |                                                 |
| \\      /  F ield         | OpenFOAM: The Open Source CFD Toolbox           |
|  \\    /   O peration     | Version:  dev                                   |
|   \\  /    A nd           | Web:      www.OpenFOAM.org                      |
|    \\/     M anipulation  |                                                 |
\*---------------------------------------------------------------------------*/
FoamFile
{
    version     2.0;
    format      ascii;
    class       volVectorField;
    location    "2.31";
    object      cellDisplacement;
}
// * * * * * * * * * * * * * * * * * * * * * * * * * * * * * * * * * * * * * //

dimensions      [0 1 0 0 0 0 0];

internalField   nonuniform List<vector> 
2790
(
(0.0125007 0 -5.99476e-05)
(0.0356277 0 -0.000171224)
(0.0552406 0 -0.000268005)
(0.0716607 0 -0.000352925)
(0.0852403 0 -0.000428044)
(0.0962897 0 -0.000494891)
(0.105077 0 -0.000554582)
(0.111826 0 -0.000609153)
(0.116738 0 -0.000656159)
(0.119998 0 -0.000696922)
(0.121756 0 -0.00073122)
(0.122145 0 -0.000758524)
(0.121281 0 -0.000778057)
(0.119268 0 -0.000788798)
(0.116199 0 -0.000789497)
(0.112159 0 -0.00077866)
(0.107229 0 -0.000754365)
(0.101481 0 -0.000714276)
(0.0949892 0 -0.000655618)
(0.0878275 0 -0.000575105)
(0.080073 0 -0.000468868)
(0.0718103 0 -0.000332375)
(0.0631314 0 -0.000160103)
(0.0541424 0 5.44971e-05)
(0.0449716 0 0.000319067)
(0.0357834 0 0.000642589)
(0.0268046 0 0.00103696)
(0.0184528 0 0.00152287)
(0.0114072 0 0.00210837)
(0.00741441 0 0.00272028)
(0.0125173 0 -0.000180182)
(0.035677 0 -0.000514718)
(0.0553221 0 -0.0008058)
(0.0717743 0 -0.00106137)
(0.0853873 0 -0.00128757)
(0.0964731 0 -0.00148901)
(0.105303 0 -0.0016687)
(0.112095 0 -0.00182811)
(0.117055 0 -0.00196919)
(0.12037 0 -0.00209202)
(0.122191 0 -0.00219567)
(0.122651 0 -0.00227859)
(0.121868 0 -0.00233848)
(0.119946 0 -0.00237237)
(0.116981 0 -0.00237658)
(0.11306 0 -0.00234684)
(0.108265 0 -0.00227753)
(0.102672 0 -0.00216187)
(0.0963601 0 -0.0019918)
(0.089406 0 -0.00175788)
(0.081894 0 -0.001449)
(0.073919 0 -0.00105241)
(0.0655869 0 -0.000552446)
(0.0570241 0 6.93869e-05)
(0.0483914 0 0.000834491)
(0.0399049 0 0.00176686)
(0.0318015 0 0.00289891)
(0.0245344 0 0.00425219)
(0.0189863 0 0.00580928)
(0.0173812 0 0.00726937)
(0.0125507 0 -0.000300562)
(0.0357755 0 -0.000858714)
(0.0554843 0 -0.00134459)
(0.0720004 0 -0.00177152)
(0.0856797 0 -0.00214963)
(0.0968373 0 -0.00248672)
(0.105743 0 -0.00278756)
(0.112624 0 -0.0030531)
(0.117687 0 -0.00329035)
(0.121115 0 -0.0034977)
(0.123062 0 -0.00367367)
(0.123665 0 -0.00381584)
(0.123042 0 -0.00392061)
(0.121303 0 -0.00398314)
(0.118545 0 -0.00399754)
(0.114861 0 -0.0039574)
(0.110336 0 -0.00385377)
(0.105055 0 -0.00367591)
(0.0990994 0 -0.00341132)
(0.092558 0 -0.0030454)
(0.0855248 0 -0.00256107)
(0.0781145 0 -0.00194007)
(0.0704542 0 -0.00115939)
(0.062699 0 -0.00019269)
(0.0550522 0 0.000989064)
(0.0478385 0 0.00241124)
(0.0414475 0 0.00409269)
(0.0364003 0 0.00601916)
(0.0335113 0 0.0081136)
(0.0355342 0 0.00970862)
(0.0126003 0 -0.000420483)
(0.0359216 0 -0.00120147)
(0.0557256 0 -0.00188164)
(0.0723365 0 -0.00247985)
(0.0861139 0 -0.00300991)
(0.0973784 0 -0.00348316)
(0.106401 0 -0.00390666)
(0.113415 0 -0.00428429)
(0.118628 0 -0.00462086)
(0.122223 0 -0.00491625)
(0.124358 0 -0.00516892)
(0.125172 0 -0.00537588)
(0.124789 0 -0.00553245)
(0.123321 0 -0.00563224)
(0.120869 0 -0.00566722)
(0.117535 0 -0.00563032)
(0.113411 0 -0.00550958)
(0.108589 0 -0.00529126)
(0.103162 0 -0.0049597)
(0.0972322 0 -0.00449699)
(0.090903 0 -0.00388149)
(0.0843281 0 -0.00309529)
(0.0776651 0 -0.00211244)
(0.0711104 0 -0.000906248)
(0.0649092 0 0.000551276)
(0.0594256 0 0.00227383)
(0.0552371 0 0.00423592)
(0.0532064 0 0.00633389)
(0.0541711 0 0.00836961)
(0.0604382 0 0.00936581)
(0.0126651 0 -0.000539826)
(0.0361133 0 -0.00154269)
(0.0560435 0 -0.00241657)
(0.0727795 0 -0.00318624)
(0.0866853 0 -0.00386846)
(0.098091 0 -0.00447876)
(0.10727 0 -0.00502649)
(0.114458 0 -0.00551759)
(0.119867 0 -0.00595644)
(0.12368 0 -0.00634381)
(0.12606 0 -0.00667837)
(0.127151 0 -0.00695695)
(0.127081 0 -0.00717424)
(0.125968 0 -0.00732272)
(0.123915 0 -0.00739152)
(0.121038 0 -0.0073765)
(0.117438 0 -0.0072623)
(0.113217 0 -0.00703358)
(0.108483 0 -0.00667352)
(0.10336 0 -0.0061642)
(0.0979675 0 -0.00548278)
(0.0924662 0 -0.0046072)
(0.0870721 0 -0.00351953)
(0.0820202 0 -0.00219906)
(0.0776956 0 -0.000647677)
(0.0744722 0 0.00112634)
(0.0729821 0 0.00305794)
(0.0742625 0 0.00493313)
(0.0796873 0 0.00630632)
(0.0906738 0 0.00609266)
(0.0127448 0 -0.000659024)
(0.036349 0 -0.00188367)
(0.0564371 0 -0.00295149)
(0.0733257 0 -0.00389054)
(0.087388 0 -0.00472511)
(0.0989687 0 -0.00547365)
(0.10834 0 -0.00614757)
(0.115743 0 -0.00675455)
(0.121391 0 -0.0072995)
(0.125471 0 -0.00778398)
(0.128152 0 -0.00820711)
(0.129583 0 -0.00856616)
(0.129898 0 -0.00885572)
(0.129222 0 -0.00906838)
(0.12767 0 -0.00919509)
(0.125356 0 -0.00922535)
(0.122396 0 -0.00914596)
(0.118907 0 -0.00894194)
(0.115011 0 -0.00859685)
(0.110857 0 -0.0080956)
(0.106601 0 -0.00741994)
(0.10241 0 -0.00654774)
(0.0985639 0 -0.00547672)
(0.0953329 0 -0.00419709)
(0.0931185 0 -0.00272971)
(0.0924997 0 -0.00114955)
(0.0942113 0 0.000403196)
(0.0991154 0 0.00165998)
(0.109086 0 0.00190933)
(0.125034 0 2.70503e-05)
(0.0128393 0 -0.000777903)
(0.0366261 0 -0.0022239)
(0.0568867 0 -0.00348508)
(0.0739571 0 -0.00459424)
(0.0882181 0 -0.00558317)
(0.100008 0 -0.00647209)
(0.109608 0 -0.00727506)
(0.117264 0 -0.00800159)
(0.123194 0 -0.00865758)
(0.12759 0 -0.00924552)
(0.130625 0 -0.0097652)
(0.132454 0 -0.010215)
(0.13322 0 -0.0105899)
(0.133055 0 -0.0108829)
(0.132087 0 -0.0110873)
(0.130431 0 -0.0111882)
(0.128219 0 -0.0111756)
(0.125582 0 -0.0110361)
(0.122656 0 -0.0107548)
(0.119627 0 -0.0103254)
(0.116673 0 -0.00973319)
(0.114003 0 -0.00896767)
(0.111912 0 -0.00803487)
(0.110775 0 -0.00696087)
(0.111008 0 -0.00579254)
(0.113239 0 -0.00464643)
(0.118379 0 -0.00376972)
(0.127385 0 -0.00353382)
(0.14183 0 -0.00473739)
(0.16256 0 -0.00856716)
(0.0129466 0 -0.000895677)
(0.0369414 0 -0.00256123)
(0.0574026 0 -0.00401511)
(0.0746833 0 -0.0052969)
(0.089169 0 -0.00644149)
(0.101199 0 -0.00747288)
(0.11106 0 -0.00840782)
(0.119006 0 -0.00925779)
(0.125258 0 -0.0100301)
(0.130013 0 -0.0107282)
(0.133449 0 -0.0113528)
(0.135733 0 -0.0119044)
(0.13701 0 -0.0123785)
(0.137421 0 -0.0127685)
(0.137094 0 -0.0130651)
(0.13618 0 -0.0132644)
(0.134812 0 -0.0133544)
(0.133143 0 -0.0133261)
(0.131327 0 -0.013169)
(0.129559 0 -0.0128789)
(0.128058 0 -0.0124535)
(0.127081 0 -0.0118995)
(0.126949 0 -0.011239)
(0.128076 0 -0.0105226)
(0.130984 0 -0.00984723)
(0.136386 0 -0.00939269)
(0.145096 0 -0.00944192)
(0.158474 0 -0.0105604)
(0.177325 0 -0.0134681)
(0.202448 0 -0.0193525)
(0.0130656 0 -0.00101217)
(0.0372921 0 -0.00289522)
(0.057979 0 -0.00454071)
(0.0754937 0 -0.00599433)
(0.0902283 0 -0.00729493)
(0.102525 0 -0.00847008)
(0.112678 0 -0.00953931)
(0.120945 0 -0.0105162)
(0.127553 0 -0.0114099)
(0.132706 0 -0.0122251)
(0.136586 0 -0.0129625)
(0.139372 0 -0.0136279)
(0.141214 0 -0.0142163)
(0.142264 0 -0.0147232)
(0.142667 0 -0.0151438)
(0.142569 0 -0.0154714)
(0.142126 0 -0.0156994)
(0.141512 0 -0.0158258)
(0.140901 0 -0.0158461)
(0.140514 0 -0.0157651)
(0.140595 0 -0.0155923)
(0.141448 0 -0.015353)
(0.143419 0 -0.0150881)
(0.147023 0 -0.0148948)
(0.152776 0 -0.0148941)
(0.161484 0 -0.0153344)
(0.173989 0 -0.0165593)
(0.191673 0 -0.0192339)
(0.214968 0 -0.0240456)
(0.244014 0 -0.0319563)
(0.0131952 0 -0.00112717)
(0.037675 0 -0.00322535)
(0.05861 0 -0.00506099)
(0.0763807 0 -0.00668565)
(0.0913867 0 -0.00814253)
(0.103975 0 -0.00946275)
(0.114446 0 -0.0106687)
(0.123063 0 -0.0117763)
(0.130061 0 -0.0127966)
(0.135648 0 -0.0137369)
(0.140021 0 -0.0146023)
(0.143355 0 -0.0153942)
(0.14581 0 -0.0161122)
(0.14755 0 -0.016755)
(0.148738 0 -0.0173228)
(0.149519 0 -0.017807)
(0.150062 0 -0.0182068)
(0.150581 0 -0.0185332)
(0.151268 0 -0.0187886)
(0.152346 0 -0.0189819)
(0.154097 0 -0.0191398)
(0.156907 0 -0.0193207)
(0.161121 0 -0.0195776)
(0.167273 0 -0.0200336)
(0.176048 0 -0.0208876)
(0.188159 0 -0.0224013)
(0.204718 0 -0.0250434)
(0.226522 0 -0.0293822)
(0.254197 0 -0.0361994)
(0.286652 0 -0.0460075)
(0.0133353 0 -0.00124107)
(0.038089 0 -0.00355263)
(0.0592931 0 -0.00557757)
(0.0773408 0 -0.00737312)
(0.0926405 0 -0.00898718)
(0.105544 0 -0.0104543)
(0.116359 0 -0.0117999)
(0.125354 0 -0.0130423)
(0.13277 0 -0.0141949)
(0.138826 0 -0.0152682)
(0.143726 0 -0.0162709)
(0.147638 0 -0.0171995)
(0.150744 0 -0.0180611)
(0.153213 0 -0.0188567)
(0.15521 0 -0.0195864)
(0.156921 0 -0.0202567)
(0.15853 0 -0.0208718)
(0.160236 0 -0.0214402)
(0.162285 0 -0.0219831)
(0.16489 0 -0.0225131)
(0.168408 0 -0.0230855)
(0.173207 0 -0.0237647)
(0.179737 0 -0.0246512)
(0.188551 0 -0.0258939)
(0.200357 0 -0.0277256)
(0.216022 0 -0.0304874)
(0.236577 0 -0.0346759)
(0.26251 0 -0.0408015)
(0.294403 0 -0.0496299)
(0.329775 0 -0.0611458)
(0.0134849 0 -0.00135359)
(0.0385306 0 -0.00387626)
(0.0600216 0 -0.00608911)
(0.0783649 0 -0.00805502)
(0.093978 0 -0.00982677)
(0.107218 0 -0.0114424)
(0.118398 0 -0.0129301)
(0.127793 0 -0.0143109)
(0.135652 0 -0.0156003)
(0.142201 0 -0.0168125)
(0.147642 0 -0.0179551)
(0.152157 0 -0.0190297)
(0.155944 0 -0.0200494)
(0.159176 0 -0.021016)
(0.16204 0 -0.0219377)
(0.164717 0 -0.0228206)
(0.167424 0 -0.0236815)
(0.17034 0 -0.0245257)
(0.173758 0 -0.0253941)
(0.177953 0 -0.026324)
(0.183266 0 -0.0273749)
(0.190085 0 -0.0286321)
(0.198915 0 -0.0302256)
(0.21043 0 -0.032365)
(0.225262 0 -0.0352847)
(0.244464 0 -0.0394151)
(0.268796 0 -0.0452019)
(0.298945 0 -0.0532279)
(0.334826 0 -0.0640048)
(0.372725 0 -0.0770363)
(0.013641 0 -0.00146376)
(0.0389926 0 -0.00419364)
(0.0607842 0 -0.00659156)
(0.0794378 0 -0.00872595)
(0.0953805 0 -0.0106548)
(0.108973 0 -0.0124193)
(0.120535 0 -0.0140508)
(0.130348 0 -0.0155726)
(0.138666 0 -0.0170022)
(0.145729 0 -0.0183595)
(0.151735 0 -0.0196515)
(0.15689 0 -0.0208884)
(0.161384 0 -0.0220795)
(0.165401 0 -0.0232327)
(0.169152 0 -0.024365)
(0.172802 0 -0.025479)
(0.176601 0 -0.0266061)
(0.180765 0 -0.027766)
(0.185563 0 -0.0289987)
(0.191347 0 -0.0303731)
(0.198429 0 -0.0319505)
(0.207248 0 -0.0338442)
(0.218395 0 -0.0362297)
(0.232454 0 -0.0393088)
(0.250272 0 -0.0434113)
(0.272738 0 -0.0489417)
(0.300705 0 -0.0563972)
(0.334869 0 -0.0663468)
(0.374388 0 -0.0789649)
(0.41458 0 -0.0933951)
(0.0138021 0 -0.00157129)
(0.0394709 0 -0.00450398)
(0.0615737 0 -0.00708368)
(0.0805498 0 -0.00938417)
(0.0968368 0 -0.0114694)
(0.110796 0 -0.0133827)
(0.122755 0 -0.0151593)
(0.132998 0 -0.0168249)
(0.141802 0 -0.0184034)
(0.149398 0 -0.0199121)
(0.155991 0 -0.0213621)
(0.161797 0 -0.0227692)
(0.167004 0 -0.0241406)
(0.171808 0 -0.0254903)
(0.176438 0 -0.0268435)
(0.181085 0 -0.0282142)
(0.185988 0 -0.0296328)
(0.191382 0 -0.0311318)
(0.197568 0 -0.0327661)
(0.204874 0 -0.0346064)
(0.213668 0 -0.0367443)
(0.224429 0 -0.0393182)
(0.237726 0 -0.0425161)
(0.254186 0 -0.0465765)
(0.274676 0 -0.0518613)
(0.30002 0 -0.058783)
(0.331223 0 -0.0679096)
(0.368821 0 -0.0797424)
(0.411379 0 -0.0941302)
(0.453832 0 -0.110044)
(0.0139667 0 -0.00167588)
(0.0399623 0 -0.00480654)
(0.0623841 0 -0.00756432)
(0.081698 0 -0.0100311)
(0.0983439 0 -0.0122723)
(0.112681 0 -0.0143346)
(0.12505 0 -0.0162576)
(0.135744 0 -0.0180704)
(0.145041 0 -0.0198003)
(0.153173 0 -0.0214632)
(0.160355 0 -0.0230754)
(0.166802 0 -0.0246523)
(0.172726 0 -0.026213)
(0.178336 0 -0.0277761)
(0.183851 0 -0.0293656)
(0.189477 0 -0.0310044)
(0.195457 0 -0.0327287)
(0.202053 0 -0.0345842)
(0.209567 0 -0.0366343)
(0.218316 0 -0.038956)
(0.228708 0 -0.0416634)
(0.241264 0 -0.0449263)
(0.256469 0 -0.0489229)
(0.275056 0 -0.0539517)
(0.297722 0 -0.0603463)
(0.325387 0 -0.0685904)
(0.358931 0 -0.0792547)
(0.398596 0 -0.0927928)
(0.442409 0 -0.108812)
(0.487078 0 -0.126732)
(0.0112301 0 -0.003813)
(0.0258832 0 -0.0048008)
(0.058325 0 -0.00617071)
(0.109037 0 -0.00761982)
(0.168428 0 -0.00878517)
(0.223099 0 -0.00941469)
(0.266208 0 -0.00957555)
(0.297909 0 -0.00945047)
(0.320581 0 -0.0091485)
(0.336393 0 -0.00874014)
(0.346931 0 -0.00826564)
(0.353302 0 -0.00775749)
(0.356255 0 -0.00722659)
(0.356293 0 -0.00668207)
(0.353735 0 -0.00617351)
(0.348759 0 -0.00569169)
(0.341458 0 -0.00523581)
(0.331872 0 -0.00480432)
(0.32 0 -0.00439485)
(0.305815 0 -0.00400438)
(0.289271 0 -0.00362951)
(0.270304 0 -0.00326651)
(0.248843 0 -0.00291139)
(0.224806 0 -0.00255992)
(0.198109 0 -0.00220755)
(0.168662 0 -0.00184935)
(0.136378 0 -0.00147987)
(0.101167 0 -0.00109294)
(0.0629567 0 -0.000681619)
(0.021531 0 -0.000235905)
(0.0191516 0 -0.0116724)
(0.0353439 0 -0.0146557)
(0.0686002 0 -0.0185259)
(0.118856 0 -0.0226824)
(0.176645 0 -0.0259984)
(0.229294 0 -0.0277005)
(0.270761 0 -0.0281247)
(0.301304 0 -0.0277508)
(0.323155 0 -0.0268651)
(0.338375 0 -0.0256717)
(0.348478 0 -0.0242835)
(0.354527 0 -0.0227995)
(0.357237 0 -0.0212439)
(0.357095 0 -0.0196927)
(0.354397 0 -0.0182179)
(0.34931 0 -0.0168153)
(0.341919 0 -0.0154846)
(0.33226 0 -0.014222)
(0.320328 0 -0.0130211)
(0.306094 0 -0.0118735)
(0.289509 0 -0.0107696)
(0.270508 0 -0.00969861)
(0.249017 0 -0.00864906)
(0.224956 0 -0.00760866)
(0.198237 0 -0.00656413)
(0.168771 0 -0.00550101)
(0.136469 0 -0.00440327)
(0.101239 0 -0.00325273)
(0.0630069 0 -0.00202887)
(0.0215515 0 -0.00070221)
(0.0340889 0 -0.0200454)
(0.052999 0 -0.0250003)
(0.0876536 0 -0.031189)
(0.137208 0 -0.0376194)
(0.191964 0 -0.0425127)
(0.240971 0 -0.0449872)
(0.279459 0 -0.0455191)
(0.307841 0 -0.0448785)
(0.328126 0 -0.0434343)
(0.342207 0 -0.0415097)
(0.351469 0 -0.0392681)
(0.356893 0 -0.0368877)
(0.359138 0 -0.0344179)
(0.358645 0 -0.0319854)
(0.355673 0 -0.0296427)
(0.350368 0 -0.0274037)
(0.342801 0 -0.0252715)
(0.332999 0 -0.0232416)
(0.32095 0 -0.0213048)
(0.306619 0 -0.0194484)
(0.289953 0 -0.0176575)
(0.270885 0 -0.0159154)
(0.249339 0 -0.0142041)
(0.22523 0 -0.0125038)
(0.198471 0 -0.0107935)
(0.168969 0 -0.00904968)
(0.136632 0 -0.00724652)
(0.101367 0 -0.00535453)
(0.0630948 0 -0.00334038)
(0.0215866 0 -0.00115609)
(0.055277 0 -0.0293605)
(0.0773546 0 -0.0361108)
(0.113784 0 -0.04446)
(0.162056 0 -0.0526224)
(0.212786 0 -0.0584848)
(0.257139 0 -0.0614004)
(0.291692 0 -0.0618917)
(0.317105 0 -0.0608595)
(0.33521 0 -0.0588543)
(0.347689 0 -0.0562404)
(0.355768 0 -0.0532438)
(0.360299 0 -0.0500219)
(0.361879 0 -0.0467533)
(0.36088 0 -0.0435309)
(0.35751 0 -0.0404122)
(0.351887 0 -0.0374199)
(0.344064 0 -0.03456)
(0.334053 0 -0.0318278)
(0.321833 0 -0.0292122)
(0.307361 0 -0.0266972)
(0.290578 0 -0.0242636)
(0.271413 0 -0.0218896)
(0.249786 0 -0.0195513)
(0.225608 0 -0.0172226)
(0.19879 0 -0.0148752)
(0.169235 0 -0.0124776)
(0.136849 0 -0.00999481)
(0.101535 0 -0.00738683)
(0.0632081 0 -0.00460853)
(0.0216304 0 -0.0015947)
(0.0817466 0 -0.039874)
(0.107139 0 -0.0483226)
(0.145159 0 -0.0584364)
(0.191565 0 -0.067724)
(0.237645 0 -0.0740419)
(0.276671 0 -0.076976)
(0.306662 0 -0.0772444)
(0.328551 0 -0.0757341)
(0.344041 0 -0.0731424)
(0.354559 0 -0.0698545)
(0.361163 0 -0.066144)
(0.364592 0 -0.062191)
(0.365349 0 -0.0582127)
(0.36371 0 -0.0542936)
(0.359834 0 -0.0504897)
(0.353806 0 -0.0468275)
(0.345656 0 -0.0433148)
(0.335377 0 -0.0399471)
(0.322938 0 -0.0367118)
(0.308285 0 -0.0335905)
(0.291352 0 -0.0305605)
(0.272063 0 -0.0275958)
(0.250332 0 -0.0246676)
(0.226067 0 -0.0217443)
(0.199173 0 -0.0187909)
(0.169553 0 -0.0157689)
(0.137106 0 -0.0126349)
(0.101731 0 -0.00933948)
(0.0633374 0 -0.00582669)
(0.0216794 0 -0.00201564)
(0.112606 0 -0.0516997)
(0.141176 0 -0.0617099)
(0.180358 0 -0.0731587)
(0.224233 0 -0.0829542)
(0.265099 0 -0.0891449)
(0.298406 0 -0.0916906)
(0.323492 0 -0.0914857)
(0.341566 0 -0.0894485)
(0.354145 0 -0.0862492)
(0.36245 0 -0.0822995)
(0.367399 0 -0.0779223)
(0.369602 0 -0.0733595)
(0.369412 0 -0.0687714)
(0.367029 0 -0.0642496)
(0.362562 0 -0.0598499)
(0.356057 0 -0.0556003)
(0.347519 0 -0.0515096)
(0.336922 0 -0.0475736)
(0.324222 0 -0.0437786)
(0.309354 0 -0.0401045)
(0.292243 0 -0.0365258)
(0.272806 0 -0.0330133)
(0.250951 0 -0.0295339)
(0.226583 0 -0.0260513)
(0.199601 0 -0.022525)
(0.169903 0 -0.01891)
(0.137386 0 -0.0151556)
(0.101941 0 -0.0112038)
(0.0634747 0 -0.00698924)
(0.0217305 0 -0.00241686)
(0.147052 0 -0.0648146)
(0.178469 0 -0.0761984)
(0.218132 0 -0.0884875)
(0.258679 0 -0.0981422)
(0.293864 0 -0.103663)
(0.321273 0 -0.105464)
(0.341342 0 -0.104577)
(0.355465 0 -0.101904)
(0.364996 0 -0.0980733)
(0.37101 0 -0.0935272)
(0.37425 0 -0.0886067)
(0.37514 0 -0.0835225)
(0.373922 0 -0.0784191)
(0.370722 0 -0.0733863)
(0.365598 0 -0.0684778)
(0.35856 0 -0.0637216)
(0.349587 0 -0.0591267)
(0.338634 0 -0.054689)
(0.325639 0 -0.0503943)
(0.310528 0 -0.046221)
(0.293216 0 -0.0421421)
(0.273612 0 -0.0381253)
(0.251618 0 -0.0341344)
(0.227132 0 -0.0301291)
(0.200052 0 -0.0260643)
(0.170269 0 -0.0218894)
(0.137674 0 -0.0175473)
(0.102156 0 -0.0129726)
(0.0636126 0 -0.00809149)
(0.021781 0 -0.00279669)
(0.184389 0 -0.0791074)
(0.218187 0 -0.0916218)
(0.257396 0 -0.104173)
(0.293698 0 -0.113029)
(0.322822 0 -0.117405)
(0.344318 0 -0.118174)
(0.359429 0 -0.116443)
(0.36963 0 -0.113061)
(0.37617 0 -0.108626)
(0.379945 0 -0.103577)
(0.381467 0 -0.0982001)
(0.381012 0 -0.0926834)
(0.378724 0 -0.0871562)
(0.374665 0 -0.0817011)
(0.368844 0 -0.0763679)
(0.361236 0 -0.0711833)
(0.351795 0 -0.0661559)
(0.340456 0 -0.0612817)
(0.327141 0 -0.0565462)
(0.311765 0 -0.0519272)
(0.294235 0 -0.0473963)
(0.274449 0 -0.0429192)
(0.252304 0 -0.0384569)
(0.227693 0 -0.0339662)
(0.200506 0 -0.0293984)
(0.170633 0 -0.0246981)
(0.137958 0 -0.0198025)
(0.102364 0 -0.0146399)
(0.0637444 0 -0.00912969)
(0.0218286 0 -0.00315381)
(0.22403 0 -0.094417)
(0.25963 0 -0.107756)
(0.297148 0 -0.119881)
(0.328206 0 -0.12729)
(0.350991 0 -0.130132)
(0.36669 0 -0.129664)
(0.37704 0 -0.12699)
(0.383549 0 -0.122897)
(0.387313 0 -0.117936)
(0.38896 0 -0.112464)
(0.388812 0 -0.106716)
(0.387026 0 -0.100855)
(0.383665 0 -0.0949928)
(0.378734 0 -0.0892007)
(0.372197 0 -0.0835233)
(0.364001 0 -0.077985)
(0.354072 0 -0.0725941)
(0.342329 0 -0.0673464)
(0.328679 0 -0.0622275)
(0.313025 0 -0.057215)
(0.295264 0 -0.0522797)
(0.275289 0 -0.047386)
(0.252985 0 -0.0424924)
(0.228241 0 -0.0375541)
(0.200945 0 -0.0325194)
(0.170979 0 -0.0273291)
(0.138224 0 -0.0219153)
(0.102556 0 -0.0162014)
(0.0638642 0 -0.010101)
(0.0218711 0 -0.00348725)
(0.265518 0 -0.110566)
(0.302153 0 -0.124325)
(0.336352 0 -0.135183)
(0.361156 0 -0.140538)
(0.377472 0 -0.14157)
(0.387629 0 -0.139755)
(0.393619 0 -0.13614)
(0.396847 0 -0.131418)
(0.398106 0 -0.126016)
(0.397787 0 -0.120208)
(0.396065 0 -0.114178)
(0.393001 0 -0.10806)
(0.388599 0 -0.101948)
(0.382808 0 -0.0959002)
(0.375561 0 -0.0899548)
(0.366773 0 -0.0841336)
(0.356351 0 -0.0784446)
(0.344197 0 -0.0728834)
(0.330205 0 -0.0674363)
(0.314266 0 -0.0620809)
(0.29627 0 -0.0567878)
(0.2761 0 -0.0515207)
(0.253634 0 -0.046235)
(0.228755 0 -0.0408866)
(0.201348 0 -0.0354216)
(0.171292 0 -0.0297773)
(0.13846 0 -0.0238815)
(0.102723 0 -0.0176537)
(0.0639667 0 -0.0110035)
(0.0219069 0 -0.00379636)
(0.308533 0 -0.127398)
(0.344989 0 -0.140947)
(0.373795 0 -0.149523)
(0.391486 0 -0.152329)
(0.401423 0 -0.151418)
(0.406561 0 -0.148295)
(0.408814 0 -0.143861)
(0.409227 0 -0.138625)
(0.408284 0 -0.132886)
(0.406195 0 -0.126838)
(0.403029 0 -0.120617)
(0.398774 0 -0.114326)
(0.39339 0 -0.10805)
(0.386777 0 -0.101823)
(0.37884 0 -0.0956808)
(0.369473 0 -0.0896428)
(0.358567 0 -0.0837168)
(0.346005 0 -0.0778989)
(0.331672 0 -0.0721758)
(0.315449 0 -0.0665259)
(0.297217 0 -0.06092)
(0.276857 0 -0.0553222)
(0.254228 0 -0.0496812)
(0.229212 0 -0.04396)
(0.201699 0 -0.0381015)
(0.17156 0 -0.0320398)
(0.138656 0 -0.0256983)
(0.102858 0 -0.0189948)
(0.0640476 0 -0.0118359)
(0.0219349 0 -0.00408086)
(0.352836 0 -0.144762)
(0.38691 0 -0.156984)
(0.407969 0 -0.162182)
(0.418089 0 -0.162165)
(0.42224 0 -0.159419)
(0.423216 0 -0.155204)
(0.42241 0 -0.150132)
(0.420468 0 -0.144532)
(0.417633 0 -0.138578)
(0.413994 0 -0.132394)
(0.409538 0 -0.126074)
(0.404196 0 -0.119687)
(0.397892 0 -0.113305)
(0.390515 0 -0.10697)
(0.381929 0 -0.100695)
(0.372013 0 -0.0945021)
(0.360642 0 -0.0883972)
(0.347688 0 -0.082377)
(0.333025 0 -0.0764288)
(0.316525 0 -0.0705319)
(0.298065 0 -0.0646584)
(0.27753 0 -0.0587761)
(0.254749 0 -0.0528307)
(0.229592 0 -0.0467731)
(0.201979 0 -0.040558)
(0.171769 0 -0.0341161)
(0.138804 0 -0.0273646)
(0.102951 0 -0.0202235)
(0.0641037 0 -0.0125981)
(0.0219547 0 -0.00434084)
(0.397878 0 -0.162312)
(0.425706 0 -0.171313)
(0.437062 0 -0.172266)
(0.440263 0 -0.169633)
(0.439791 0 -0.165431)
(0.437517 0 -0.160433)
(0.434252 0 -0.154948)
(0.430352 0 -0.14914)
(0.425932 0 -0.143103)
(0.420975 0 -0.136891)
(0.415408 0 -0.130563)
(0.409125 0 -0.124169)
(0.402003 0 -0.117752)
(0.393926 0 -0.111363)
(0.384746 0 -0.105016)
(0.374323 0 -0.0987254)
(0.362518 0 -0.092496)
(0.349195 0 -0.0863247)
(0.334219 0 -0.0801998)
(0.317456 0 -0.0741013)
(0.298775 0 -0.0680022)
(0.278044 0 -0.0618687)
(0.255119 0 -0.0556585)
(0.229864 0 -0.0493112)
(0.202167 0 -0.0427785)
(0.171912 0 -0.0359984)
(0.138902 0 -0.0288812)
(0.102997 0 -0.0213396)
(0.0641347 0 -0.0132908)
(0.0219682 0 -0.00457694)
(0.441503 0 -0.17882)
(0.457825 0 -0.182102)
(0.460282 0 -0.179076)
(0.458071 0 -0.174435)
(0.454044 0 -0.169289)
(0.449277 0 -0.163907)
(0.444127 0 -0.158305)
(0.438703 0 -0.152494)
(0.43302 0 -0.146507)
(0.426996 0 -0.140371)
(0.420512 0 -0.134122)
(0.413436 0 -0.127796)
(0.405628 0 -0.12143)
(0.396945 0 -0.115056)
(0.387237 0 -0.108695)
(0.376355 0 -0.10236)
(0.364155 0 -0.0960553)
(0.350492 0 -0.0897795)
(0.335226 0 -0.0835215)
(0.318218 0 -0.0772627)
(0.299331 0 -0.0709771)
(0.278427 0 -0.0646309)
(0.255366 0 -0.0581818)
(0.230011 0 -0.051577)
(0.202235 0 -0.0447619)
(0.171906 0 -0.0376715)
(0.138866 0 -0.0302273)
(0.102973 0 -0.022336)
(0.0641411 0 -0.0139127)
(0.0219886 0 -0.00479226)
(0.476787 0 -0.190555)
(0.482597 0 -0.187643)
(0.477406 0 -0.181538)
(0.471277 0 -0.176126)
(0.464809 0 -0.17091)
(0.458334 0 -0.165656)
(0.451886 0 -0.160248)
(0.44541 0 -0.15465)
(0.438821 0 -0.148867)
(0.431997 0 -0.142919)
(0.424799 0 -0.136836)
(0.417084 0 -0.130648)
(0.408704 0 -0.12439)
(0.399508 0 -0.118088)
(0.389345 0 -0.111764)
(0.378061 0 -0.105432)
(0.365509 0 -0.0990974)
(0.351541 0 -0.0927594)
(0.336013 0 -0.0864086)
(0.318783 0 -0.0800278)
(0.299709 0 -0.0735924)
(0.278652 0 -0.0670695)
(0.255471 0 -0.0604183)
(0.230027 0 -0.0535887)
(0.202187 0 -0.0465249)
(0.171811 0 -0.0391612)
(0.138753 0 -0.0314204)
(0.102868 0 -0.0232134)
(0.0640348 0 -0.0144468)
(0.0219308 0 -0.00496859)
(0.0141377 0 -0.00177956)
(0.040475 0 -0.00510723)
(0.0632473 0 -0.00804535)
(0.0829128 0 -0.0106791)
(0.0999182 0 -0.013076)
(0.114647 0 -0.0152891)
(0.127443 0 -0.0173616)
(0.138599 0 -0.0193245)
(0.148393 0 -0.0212049)
(0.157076 0 -0.0230278)
(0.164861 0 -0.0248098)
(0.171978 0 -0.0265723)
(0.178635 0 -0.0283339)
(0.185051 0 -0.0301196)
(0.191443 0 -0.0319564)
(0.198039 0 -0.0338767)
(0.205083 0 -0.0359225)
(0.212838 0 -0.0381467)
(0.221611 0 -0.0406216)
(0.231726 0 -0.0434354)
(0.243634 0 -0.0467303)
(0.25774 0 -0.0506512)
(0.27464 0 -0.0554364)
(0.294873 0 -0.0613393)
(0.31915 0 -0.0687348)
(0.348238 0 -0.0781013)
(0.382639 0 -0.0899648)
(0.421779 0 -0.104699)
(0.462724 0 -0.122331)
(0.499649 0 -0.143186)
(0.0143145 0 -0.00188281)
(0.041008 0 -0.0054074)
(0.0641445 0 -0.00852623)
(0.0841758 0 -0.0113266)
(0.101557 0 -0.0138809)
(0.116693 0 -0.0162469)
(0.129934 0 -0.0184729)
(0.141566 0 -0.0205901)
(0.151887 0 -0.0226323)
(0.161142 0 -0.0246231)
(0.169553 0 -0.0265844)
(0.177351 0 -0.0285415)
(0.184734 0 -0.0305092)
(0.191958 0 -0.0325284)
(0.199232 0 -0.0346261)
(0.206777 0 -0.036838)
(0.214841 0 -0.0392117)
(0.223707 0 -0.0418133)
(0.233668 0 -0.044719)
(0.245058 0 -0.0480298)
(0.258268 0 -0.0518803)
(0.273699 0 -0.0564289)
(0.291893 0 -0.0619153)
(0.313234 0 -0.0685606)
(0.338356 0 -0.0767413)
(0.367648 0 -0.0868395)
(0.400822 0 -0.09912)
(0.436297 0 -0.113538)
(0.470133 0 -0.129219)
(0.496803 0 -0.144312)
(0.0144916 0 -0.00198352)
(0.0415495 0 -0.00570152)
(0.0650601 0 -0.00899878)
(0.0854691 0 -0.0119651)
(0.103239 0 -0.0146774)
(0.118802 0 -0.0172007)
(0.132505 0 -0.0195834)
(0.144634 0 -0.0218595)
(0.15549 0 -0.0240672)
(0.165311 0 -0.0262269)
(0.174345 0 -0.028371)
(0.182809 0 -0.0305222)
(0.190931 0 -0.0327088)
(0.19895 0 -0.0349674)
(0.207065 0 -0.0373264)
(0.215514 0 -0.039831)
(0.224541 0 -0.0425327)
(0.234432 0 -0.0455059)
(0.245448 0 -0.0488235)
(0.257939 0 -0.0526022)
(0.272196 0 -0.0569531)
(0.288675 0 -0.0620677)
(0.307648 0 -0.0681031)
(0.329501 0 -0.0753016)
(0.35457 0 -0.0839422)
(0.382697 0 -0.0942054)
(0.412918 0 -0.10604)
(0.443168 0 -0.119023)
(0.470019 0 -0.132074)
(0.490412 0 -0.144162)
(0.0146654 0 -0.00208074)
(0.0420966 0 -0.00598881)
(0.065995 0 -0.00946279)
(0.0867918 0 -0.0125936)
(0.104975 0 -0.0154657)
(0.120974 0 -0.0181472)
(0.135132 0 -0.020685)
(0.147756 0 -0.0231193)
(0.159139 0 -0.0254898)
(0.16954 0 -0.0278258)
(0.179197 0 -0.0301558)
(0.188326 0 -0.0325066)
(0.197159 0 -0.0349105)
(0.205936 0 -0.0374067)
(0.214859 0 -0.0400284)
(0.22415 0 -0.0428202)
(0.234067 0 -0.0458436)
(0.244846 0 -0.049162)
(0.256794 0 -0.0528719)
(0.270134 0 -0.0570539)
(0.285208 0 -0.0618471)
(0.302301 0 -0.0673935)
(0.321566 0 -0.0738147)
(0.343285 0 -0.0813197)
(0.367425 0 -0.0900478)
(0.393351 0 -0.0999521)
(0.419858 0 -0.110801)
(0.445017 0 -0.122038)
(0.46661 0 -0.13291)
(0.48279 0 -0.142765)
(0.0148608 0 -0.00217771)
(0.0426693 0 -0.00627062)
(0.0669417 0 -0.00991476)
(0.088131 0 -0.0132072)
(0.106725 0 -0.0162355)
(0.123157 0 -0.0190698)
(0.137778 0 -0.0217632)
(0.150907 0 -0.0243592)
(0.162832 0 -0.0268971)
(0.173806 0 -0.0294092)
(0.184057 0 -0.031921)
(0.193826 0 -0.0344691)
(0.203349 0 -0.0370902)
(0.212846 0 -0.0398206)
(0.222502 0 -0.0426918)
(0.232559 0 -0.0457583)
(0.243266 0 -0.0490847)
(0.254816 0 -0.0527242)
(0.267489 0 -0.0567715)
(0.281456 0 -0.0612952)
(0.29704 0 -0.0664344)
(0.314314 0 -0.0722591)
(0.333426 0 -0.0788927)
(0.354423 0 -0.0864496)
(0.376943 0 -0.0949204)
(0.400162 0 -0.10413)
(0.422967 0 -0.113791)
(0.443923 0 -0.123442)
(0.461673 0 -0.132607)
(0.475 0 -0.140779)
(0.0150476 0 -0.00226944)
(0.0432297 0 -0.00653865)
(0.0678832 0 -0.0103477)
(0.0894664 0 -0.0137971)
(0.108467 0 -0.016977)
(0.125341 0 -0.0199643)
(0.140446 0 -0.0228152)
(0.154074 0 -0.0255715)
(0.166513 0 -0.02827)
(0.178029 0 -0.0309499)
(0.188871 0 -0.0336456)
(0.199262 0 -0.0363894)
(0.209429 0 -0.0392201)
(0.219579 0 -0.0421713)
(0.229904 0 -0.04528)
(0.240657 0 -0.0486088)
(0.252004 0 -0.0521983)
(0.264187 0 -0.0561239)
(0.277358 0 -0.0604392)
(0.291738 0 -0.065236)
(0.307484 0 -0.0705974)
(0.324587 0 -0.0765631)
(0.343127 0 -0.0832262)
(0.36293 0 -0.0906027)
(0.383447 0 -0.0985761)
(0.403923 0 -0.106952)
(0.423477 0 -0.115469)
(0.441126 0 -0.123793)
(0.456015 0 -0.131604)
(0.467335 0 -0.138499)
(0.0152213 0 -0.00235429)
(0.0437746 0 -0.00679138)
(0.068815 0 -0.0107594)
(0.0907932 0 -0.0143602)
(0.110214 0 -0.0176895)
(0.127526 0 -0.0208254)
(0.143087 0 -0.0238253)
(0.15719 0 -0.0267324)
(0.170141 0 -0.0295916)
(0.182199 0 -0.0324396)
(0.193601 0 -0.0353128)
(0.204574 0 -0.0382449)
(0.21533 0 -0.0412714)
(0.226071 0 -0.0444301)
(0.236991 0 -0.0477592)
(0.248312 0 -0.0513154)
(0.26018 0 -0.0551353)
(0.272806 0 -0.0592876)
(0.28628 0 -0.0638075)
(0.300817 0 -0.0687851)
(0.316427 0 -0.0742513)
(0.333075 0 -0.0802328)
(0.350714 0 -0.0867644)
(0.369008 0 -0.0937792)
(0.387434 0 -0.10114)
(0.405414 0 -0.108685)
(0.422276 0 -0.116198)
(0.437339 0 -0.12343)
(0.450026 0 -0.130141)
(0.459836 0 -0.136038)
(0.0154129 0 -0.00243658)
(0.0443292 0 -0.00703066)
(0.0697264 0 -0.0111449)
(0.0920927 0 -0.014889)
(0.11192 0 -0.0183595)
(0.129663 0 -0.0216376)
(0.14568 0 -0.0247823)
(0.160256 0 -0.027837)
(0.173697 0 -0.0308499)
(0.186262 0 -0.033858)
(0.198193 0 -0.0368991)
(0.209698 0 -0.0400067)
(0.220983 0 -0.0432147)
(0.232237 0 -0.0465584)
(0.243669 0 -0.050086)
(0.255421 0 -0.0538277)
(0.26768 0 -0.0578377)
(0.280567 0 -0.0621552)
(0.294169 0 -0.066816)
(0.308623 0 -0.0718813)
(0.323859 0 -0.07735)
(0.3398 0 -0.0832262)
(0.356284 0 -0.0894872)
(0.372967 0 -0.0960436)
(0.389449 0 -0.102785)
(0.405264 0 -0.109565)
(0.419911 0 -0.116211)
(0.432921 0 -0.122538)
(0.443891 0 -0.128355)
(0.452509 0 -0.133459)
(0.0155896 0 -0.00251036)
(0.044852 0 -0.00724694)
(0.0705968 0 -0.011496)
(0.0933499 0 -0.0153757)
(0.113595 0 -0.0189827)
(0.131755 0 -0.0223947)
(0.148192 0 -0.0256724)
(0.163229 0 -0.0288689)
(0.177143 0 -0.0320272)
(0.190175 0 -0.0351825)
(0.202587 0 -0.0383785)
(0.214572 0 -0.0416454)
(0.226322 0 -0.0450165)
(0.238014 0 -0.0485245)
(0.249843 0 -0.0522137)
(0.261913 0 -0.0561053)
(0.274424 0 -0.0602577)
(0.287418 0 -0.0646843)
(0.30096 0 -0.0694123)
(0.315124 0 -0.0744787)
(0.329787 0 -0.0798562)
(0.344825 0 -0.0855231)
(0.360056 0 -0.091436)
(0.375207 0 -0.0975187)
(0.389946 0 -0.103669)
(0.403908 0 -0.109763)
(0.416729 0 -0.115664)
(0.428079 0 -0.121232)
(0.437679 0 -0.126319)
(0.445323 0 -0.130778)
(0.0157518 0 -0.0025748)
(0.0453429 0 -0.0074383)
(0.0714489 0 -0.0118134)
(0.0945773 0 -0.0158175)
(0.115192 0 -0.0195441)
(0.133751 0 -0.0230791)
(0.150616 0 -0.0264849)
(0.166086 0 -0.0298121)
(0.180417 0 -0.0330984)
(0.193888 0 -0.0363895)
(0.206735 0 -0.0397253)
(0.219133 0 -0.0431308)
(0.231276 0 -0.0466418)
(0.24333 0 -0.0502888)
(0.255445 0 -0.0541033)
(0.267735 0 -0.0581099)
(0.280352 0 -0.0623517)
(0.293302 0 -0.0668286)
(0.306625 0 -0.0715571)
(0.320315 0 -0.0765413)
(0.334245 0 -0.0817466)
(0.348305 0 -0.0871466)
(0.362321 0 -0.092692)
(0.376062 0 -0.0983107)
(0.38926 0 -0.103913)
(0.401642 0 -0.109397)
(0.412954 0 -0.114663)
(0.42294 0 -0.119591)
(0.431406 0 -0.124066)
(0.438236 0 -0.127995)
(0.0158982 0 -0.0026288)
(0.0457889 0 -0.00759999)
(0.0722405 0 -0.0120864)
(0.0957323 0 -0.0162011)
(0.11672 0 -0.020038)
(0.135653 0 -0.023683)