/*--------------------------------*- C++ -*----------------------------------*\
| =========                 |                                                 |
| \\      /  F ield         | OpenFOAM: The Open Source CFD Toolbox           |
|  \\    /   O peration     | Version:  dev                                   |
|   \\  /    A nd           | Web:      www.OpenFOAM.org                      |
|    \\/     M anipulation  |                                                 |
\*---------------------------------------------------------------------------*/
FoamFile
{
    version     2.0;
    format      ascii;
    class       volVectorField;
    location    "3.36";
    object      U;
}
// * * * * * * * * * * * * * * * * * * * * * * * * * * * * * * * * * * * * * //

dimensions      [0 1 -1 0 0 0 0];

internalField   nonuniform List<vector> 
465
(
(10.0023 0 0.132128)
(9.98573 -2.08285e-20 0.265581)
(10.0028 4.37111e-21 0.136844)
(9.98786 2.02352e-20 0.275074)
(9.96281 -1.61389e-20 0.413897)
(10.0034 -2.25184e-23 0.141061)
(9.99008 -1.74566e-20 0.283559)
(9.96798 1.78861e-20 0.426657)
(9.94214 0 0.571468)
(10.004 -4.14075e-21 0.144728)
(9.99236 -1.69404e-20 0.290931)
(9.9733 1.51899e-20 0.437725)
(9.95177 4.44561e-21 0.586189)
(9.92636 3.6638e-20 0.737976)
(10.0046 2.63989e-23 0.1478)
(9.99468 8.22494e-21 0.2971)
(9.97872 -1.26482e-20 0.446968)
(9.96157 -4.33818e-21 0.598435)
(9.94173 0 0.753127)
(9.91826 -1.14091e-21 0.912586)
(10.0052 7.79786e-21 0.150233)
(9.99703 0 0.301981)
(9.9842 -4.10079e-21 0.454261)
(9.97147 -4.17864e-21 0.608044)
(9.95723 0 0.764912)
(9.94051 0 0.926367)
(9.9218 2.26514e-21 1.09379)
(10.0058 -7.51558e-21 0.151991)
(9.99938 2.31594e-20 0.305499)
(9.98969 -7.94747e-21 0.459493)
(9.98138 4.0782e-21 0.61487)
(9.97272 0 0.773156)
(9.96272 3.41371e-20 0.9358)
(9.95187 3.49653e-20 1.10413)
(9.94102 -1.42992e-19 1.27936)
(9.93091 1.48503e-19 1.46266)
(10.0064 7.33586e-21 0.153039)
(10.0017 -2.25043e-20 0.307588)
(9.99514 2.30265e-20 0.462566)
(9.9912 -2.36008e-20 0.618788)
(9.98806 0 0.77771)
(9.98469 -8.2282e-21 0.940719)
(9.98157 -6.76193e-20 1.10907)
(9.97957 7.77581e-20 1.28391)
(9.97945 -7.06234e-20 1.46631)
(9.98194 9.05033e-21 1.65726)
(10.007 3.545e-21 0.153351)
(10.004 -1.81052e-20 0.308194)
(10.0005 -7.42216e-21 0.463403)
(10.0009 7.66152e-21 0.619698)
(10.0031 0 0.778458)
(10.0062 8.03118e-21 0.940995)
(10.0106 0 1.10849)
(10.0172 -6.6909e-20 1.282)
(10.0267 5.98225e-20 1.46249)
(10.0399 -8.75348e-21 1.65083)
(10.0576 6.19492e-20 1.84782)
(10.0808 -8.14392e-20 2.05415)
(10.0075 -1.36949e-20 0.152907)
(10.0062 3.52007e-20 0.307276)
(10.0057 -1.43573e-20 0.461944)
(10.0103 0 0.617527)
(10.0178 0 0.775316)
(10.0272 0 0.936542)
(10.0388 0 1.1023)
(10.0536 -7.66259e-23 1.27355)
(10.0724 8.34591e-23 1.45116)
(10.0957 -8.36251e-21 1.63587)
(10.1245 0 1.82834)
(10.1596 0 2.02911)
(10.2023 0 2.2386)
(10.2536 0 2.45713)
(10.008 1.33705e-20 0.151691)
(10.0084 -1.71088e-20 0.304808)
(10.0108 1.75415e-20 0.458149)
(10.0193 -1.42735e-20 0.612228)
(10.0319 -7.30108e-21 0.768237)
(10.0473 1.49789e-20 0.927319)
(10.0659 -1.53249e-20 1.09047)
(10.0885 2.33714e-20 1.25857)
(10.1159 -5.57396e-20 1.43236)
(10.1488 4.06901e-20 1.61247)
(10.1878 -1.64298e-20 1.79942)
(10.234 0 1.9936)
(10.2883 0 2.19528)
(10.3519 -1.72476e-20 2.40457)
(10.4258 1.77361e-20 2.62144)
(10.0085 -2.52201e-23 0.149697)
(10.0105 -1.23239e-20 0.300775)
(10.0156 2.54074e-21 0.452003)
(10.028 3.12273e-20 0.603784)
(10.0454 1.41652e-20 0.75721)
(10.0664 -1.44958e-20 0.91333)
(10.0916 2.96295e-20 1.07305)
(10.1216 -1.51341e-20 1.23713)
(10.1571 -1.53775e-20 1.40623)
(10.1987 6.26132e-20 1.58084)
(10.2473 2.83507e-23 1.76136)
(10.3035 -1.89336e-22 1.94806)
(10.3682 -6.56925e-20 2.14103)
(10.4426 1.66421e-20 2.34026)
(10.5275 1.69741e-20 2.54554)
(10.6241 -4.25958e-20 2.75646)
(10.7336 2.58278e-20 2.97241)
(10.009 0 0.146925)
(10.0124 2.56354e-20 0.295177)
(10.0202 0 0.443507)
(10.0362 -1.36056e-20 0.592207)
(10.0581 -1.36994e-20 0.742261)
(10.0845 1.04783e-20 0.894623)
(10.1158 -1.78411e-20 1.0501)
(10.1526 7.32003e-21 1.20936)
(10.1956 -7.38739e-21 1.37294)
(10.2453 -4.54572e-20 1.54125)
(10.3024 1.55714e-20 1.71455)
(10.3675 -2.33769e-20 1.89298)
(10.4415 0 2.07654)
(10.5252 -1.59291e-20 2.26507)
(10.6195 1.63177e-20 2.45822)
(10.7253 -1.62227e-20 2.65549)
(10.8434 0 2.85614)
(10.9748 1.63955e-20 3.05925)
(11.1203 -6.61865e-20 3.26365)
(10.0094 -9.05096e-21 0.143381)
(10.0142 -9.36556e-21 0.288029)
(10.0244 -6.36531e-21 0.432686)
(10.0439 1.29739e-20 0.577534)
(10.07 1.326e-20 0.72345)
(10.1013 -1.36577e-20 0.871289)
(10.1382 1.04754e-20 1.02176)
(10.1813 -1.22965e-20 1.17544)
(10.2311 1.80698e-20 1.33277)
(10.2881 2.74525e-20 1.49404)
(10.3528 1.49584e-20 1.65943)
(10.4259 1.51795e-20 1.82897)
(10.5079 -7.60807e-21 2.00255)
(10.5996 2.33296e-20 2.17991)
(10.7017 -1.04993e-23 2.36062)
(10.8149 3.16898e-20 2.54409)
(10.9399 -3.14422e-20 2.72955)
(11.0772 2.2596e-22 2.91603)
(11.2274 -1.58281e-20 3.10238)
(11.3909 0 3.28726)
(11.568 0 3.46916)
(10.0098 1.18011e-20 0.139077)
(10.0159 0 0.279359)
(10.0284 0 0.419583)
(10.051 -1.26707e-20 0.559831)
(10.081 -1.29501e-20 0.700871)
(10.1169 3.44523e-23 0.843459)
(10.1589 -1.34481e-20 0.988215)
(10.2077 9.81859e-23 1.13562)
(10.2636 1.39535e-20 1.28602)
(10.327 -1.42558e-20 1.43962)
(10.3985 1.44132e-20 1.59652)
(10.4784 0 1.75665)
(10.5673 0 1.91983)
(10.6657 0 2.08573)
(10.7742 -3.01282e-20 2.25386)
(10.8932 0 2.42359)
(11.0232 0 2.59414)
(11.1647 1.54478e-20 2.76455)
(11.3178 2.16654e-22 2.93374)
(11.4828 0 3.10048)
(11.6597 -1.21277e-19 3.2634)
(10.0101 0 0.134033)
(10.0174 -1.16648e-20 0.269204)
(10.032 1.19209e-20 0.40426)
(10.0575 1.22362e-20 0.539187)
(10.091 -1.2472e-20 0.674644)
(10.131 2.55708e-20 0.811295)
(10.1777 1.29406e-20 0.949671)
(10.2316 1.31771e-20 1.09017)
(10.2929 0 1.23304)
(10.362 -4.10304e-20 1.37844)
(10.4392 1.40165e-20 1.52636)
(10.525 4.22615e-20 1.67669)
(10.6196 0 1.82919)
(10.7235 0 1.98347)
(10.837 1.46301e-20 2.13903)
(10.9604 0 2.29522)
(11.0941 0 2.45128)
(11.2382 0 2.60631)
(11.3928 1.32464e-19 2.75931)
(11.5578 -2.37287e-19 2.90917)
(10.0104 -5.52316e-21 0.128273)
(10.0188 5.65636e-21 0.257615)
(10.0353 -1.16309e-20 0.386795)
(10.0634 1.18026e-20 0.51571)
(10.1001 0 0.644919)
(10.1438 1.22965e-20 0.774992)
(10.1946 -6.24284e-23 0.906378)
(10.2529 -6.41123e-20 1.03939)
(10.319 2.61306e-20 1.17423)
(10.393 2.63762e-20 1.31095)
(10.4752 -4.04529e-20 1.44952)
(10.5658 -1.36825e-20 1.58977)
(10.665 0 1.73141)
(10.7732 0 1.87404)
(10.8906 0 2.01716)
(11.0172 -5.6183e-20 2.16012)
(11.1533 5.732e-20 2.30222)
(11.2988 0 2.44261)
(11.4536 1.42458e-20 2.58041)
(11.6175 0 2.71463)
(10.0107 0 0.121825)
(10.02 2.18908e-20 0.24465)
(10.0383 -2.24861e-20 0.367278)
(10.0686 2.29017e-20 0.489528)
(10.1081 0 0.611861)
(10.1551 1.18597e-20 0.734764)
(10.2096 -4.79227e-23 0.858606)
(10.2718 -4.94786e-20 0.983635)
(10.3419 1.00879e-19 1.10998)
(10.4201 -1.31134e-20 1.23766)
(10.5064 -6.50876e-20 1.36658)
(10.6009 0 1.49655)
(10.7039 0 1.62726)
(10.8154 -6.68696e-20 1.7583)
(10.9356 6.70413e-22 1.88919)
(11.0643 7.43435e-22 2.01931)
(11.2017 6.90893e-20 2.14802)
(11.3475 0 2.27455)
(11.5016 -1.55085e-22 2.39813)
(11.6637 0 2.51791)
(10.0109 -1.0388e-20 0.114722)
(10.0211 -3.81562e-23 0.230375)
(10.0409 -1.09319e-20 0.345808)
(10.0733 -1.11767e-20 0.460776)
(10.1153 1.13247e-20 0.575651)
(10.1651 0 0.690838)
(10.2226 -1.18592e-20 0.806638)
(10.2882 0 0.923236)
(10.3618 4.86844e-20 1.04071)
(10.4434 2.44367e-20 1.15904)
(10.533 -3.78571e-20 1.2781)
(10.6308 0 1.39767)
(10.7366 5.12448e-20 1.51745)
(10.8506 -7.80389e-20 1.63704)
(10.9726 -5.15097e-20 1.75597)
(11.1026 9.33392e-20 1.87369)
(11.2403 -1.33804e-20 1.98961)
(11.3857 -9.27389e-20 2.10306)
(11.5384 9.4695e-20 2.21336)
(11.6979 -1.0641e-19 2.3198)
(10.011 1.00779e-20 0.106997)
(10.0221 -1.03204e-20 0.214857)
(10.0431 -3.16306e-20 0.322491)
(10.0773 -1.06997e-20 0.429601)
(10.1214 1.10153e-20 0.536478)
(10.1737 5.60401e-20 0.643452)
(10.2339 -3.44891e-20 0.750762)
(10.3023 4.64285e-20 0.85854)
(10.3787 -5.92704e-20 0.966822)
(10.4632 -2.40275e-20 1.07556)
(10.5555 -6.06135e-20 1.1846)
(10.6557 4.71687e-22 1.29372)
(10.7636 5.01353e-20 1.40263)
(10.8793 -1.26608e-20 1.51095)
(11.0024 -1.00999e-19 1.61825)
(11.1328 2.17681e-19 1.72403)
(11.2704 -1.1663e-19 1.82776)
(11.4146 -1.15717e-19 1.92887)
(11.5653 1.78974e-21 2.02678)
(11.722 1.91858e-21 2.1209)
(10.0111 9.75138e-21 0.0986842)
(10.0229 0 0.198166)
(10.0451 3.0761e-20 0.297433)
(10.0808 -2.21524e-23 0.396148)
(10.1268 0 0.49453)
(10.1811 -5.44263e-20 0.59284)
(10.2436 1.58125e-22 0.691261)
(10.3142 1.15301e-20 0.78988)
(10.393 6.89792e-20 0.888702)
(10.4797 5.8058e-20 0.98765)
(10.5741 2.31889e-20 1.08657)
(10.6761 -3.61121e-20 1.18525)
(10.7855 0 1.28339)
(10.9022 -1.21546e-20 1.38066)
(11.0258 0 1.47665)
(11.1561 8.61845e-20 1.57095)
(11.2929 -8.80459e-20 1.66308)
(11.4357 0 1.75255)
(11.584 1.25464e-20 1.83889)
(11.7375 0 1.9216)
(10.0112 -5.88162e-23 0.0898152)
(10.0235 0 0.180369)
(10.0468 0 0.270737)
(10.0838 -1.02017e-20 0.360562)
(10.1313 1.03431e-20 0.449993)
(10.1874 0 0.53923)
(10.2517 -1.08068e-20 0.628407)
(10.3242 -7.75627e-23 0.717575)
(10.4048 -2.22548e-20 0.806711)
(10.4933 0 0.895726)
(10.5892 6.82123e-20 0.984468)
(10.6925 -1.00953e-21 1.07272)
(10.8029 1.06554e-20 1.16023)
(10.92 1.07679e-20 1.24667)
(11.0437 -8.41934e-20 1.33171)
(11.1735 9.56503e-20 1.41497)
(11.3091 -2.05745e-19 1.49604)
(11.45 1.82584e-19 1.57453)
(11.5959 -9.8669e-20 1.65003)
(11.7462 0 1.72214)
(10.0113 9.17035e-21 0.0804186)
(10.0241 -9.44447e-21 0.161525)
(10.0483 0 0.242499)
(10.0864 0 0.322976)
(10.1352 -4.02629e-20 0.403041)
(10.1926 8.21156e-20 0.482837)
(10.2585 -1.06623e-20 0.562454)
(10.3325 -6.39077e-20 0.641911)
(10.4146 2.15978e-20 0.72117)
(10.5043 0 0.800134)
(10.6014 -8.83136e-20 0.878653)
(10.7055 7.9065e-20 0.956531)
(10.8164 -1.14097e-20 1.03353)
(10.9336 -7.98375e-20 1.10938)
(11.0569 8.16082e-20 1.18378)
(11.1859 1.17198e-20 1.2564)
(11.3201 1.05109e-19 1.32692)
(11.4591 -9.51733e-20 1.395)
(11.6024 -1.19144e-20 1.4603)
(11.7495 0 1.52252)
(10.0113 -2.69701e-23 0.0705144)
(10.0246 9.16045e-21 0.141681)
(10.0495 1.87129e-20 0.212801)
(10.0886 -6.71485e-20 0.28351)
(10.1384 2.94047e-20 0.353833)
(10.1971 -9.94692e-21 0.423857)
(10.2641 1.01829e-20 0.493634)
(10.3393 2.06496e-20 0.563163)
(10.4224 -1.05182e-20 0.632391)
(10.5131 -1.06074e-20 0.701219)
(10.611 1.08165e-20 0.769507)
(10.7156 -8.68445e-20 0.837077)
(10.8266 8.87532e-20 0.90372)
(10.9437 -9.98215e-20 0.969199)
(11.0664 7.9327e-20 1.03326)
(11.1943 0 1.09563)
(11.327 1.13843e-20 1.15604)
(11.464 1.02661e-19 1.21422)
(11.6048 -1.4955e-21 1.2699)
(11.7489 -8.18685e-20 1.32284)
(10.0114 0 0.0601076)
(10.0251 8.90351e-21 0.120859)
(10.0507 3.64625e-20 0.181703)
(10.0905 -9.47608e-21 0.242267)
(10.1413 -4.76178e-20 0.302501)
(10.2008 4.83828e-20 0.362436)
(10.2688 9.60613e-21 0.422095)
(10.3449 -1.03351e-20 0.481464)
(10.4289 -3.07373e-20 0.540483)
(10.5202 1.03667e-20 0.59906)
(10.6185 0 0.657066)
(10.7234 1.05786e-20 0.714348)
(10.8344 0 0.770726)
(10.9511 0 0.826003)
(11.073 5.51311e-21 0.879965)
(11.1998 0 0.932394)
(11.331 -1.66686e-20 0.983067)
(11.466 -8.86347e-20 1.03177)
(11.6044 1.43449e-21 1.07829)
(11.7457 7.95904e-20 1.12244)
(10.0114 -8.46796e-21 0.0491721)
(10.0256 -1.73656e-20 0.0990458)
(10.0519 1.77359e-20 0.149241)
(10.0924 -2.26967e-20 0.199351)
(10.1439 4.65614e-21 0.249234)
(10.2042 0 0.298869)
(10.2728 2.86394e-20 0.348252)
(10.3496 -3.91522e-20 0.39735)
(10.4341 -9.93299e-21 0.446097)
(10.5259 -4.50432e-20 0.494403)
(10.6244 -3.50807e-20 0.542158)
(10.7294 1.59781e-19 0.589229)
(10.8401 -8.38813e-20 0.635469)
(10.9564 7.85202e-20 0.680717)
(11.0776 4.25419e-21 0.724805)
(11.2033 -8.6335e-20 0.767558)
(11.333 8.57885e-20 0.808805)
(11.4662 -1.30535e-21 0.848377)
(11.6025 -8.80734e-20 0.886117)
(11.7413 5.47722e-21 0.921879)
(10.0116 1.24062e-20 0.037608)
(10.0263 1.25928e-23 0.0761715)
(10.0534 0 0.11535)
(10.0946 -3.08259e-20 0.154583)
(10.1467 4.67558e-21 0.193657)
(10.2075 3.67982e-20 0.232555)
(10.2767 0 0.271277)
(10.354 0 0.309781)
(10.4389 -3.84149e-20 0.348002)
(10.531 5.24086e-21 0.385856)
(10.6296 3.48712e-20 0.423249)
(10.7345 -5.02969e-21 0.460071)
(10.845 -8.07498e-20 0.496204)
(10.9607 8.76642e-20 0.531519)
(11.0811 -5.16855e-21 0.565883)
(11.2058 -7.77282e-20 0.599162)
(11.3342 8.99811e-20 0.631224)
(11.4659 8.40309e-20 0.661944)
(11.6003 -8.57945e-20 0.691203)
(11.737 -1.06959e-20 0.718895)
(10.0119 1.2075e-20 0.0250898)
(10.0275 4.10429e-21 0.0523304)
(10.0554 -2.94752e-20 0.0807947)
(10.0971 1.72321e-20 0.10938)
(10.1496 0 0.137778)
(10.2109 -3.56545e-20 0.166009)
(10.2805 3.65e-20 0.194089)
(10.3581 0 0.221979)
(10.4433 3.7421e-20 0.249625)
(10.5355 -3.82806e-20 0.276966)
(10.6342 -2.41218e-21 0.303938)
(10.739 0 0.330465)
(10.8492 0 0.356465)
(10.9645 0 0.381849)
(11.0843 4.7663e-20 0.406524)
(11.2081 -4.8594e-20 0.430398)
(11.3354 2.56005e-21 0.45338)
(11.4658 4.09609e-20 0.475383)
(11.5988 -8.04123e-20 0.496329)
(11.7338 4.4658e-20 0.516143)
(10.0132 3.92309e-21 0.0102013)
(10.0311 1.91044e-24 0.0248318)
(10.06 -2.05809e-21 0.0415802)
(10.1021 1.67386e-20 0.0587236)
(10.1547 -1.50067e-20 0.0758767)
(10.2162 1.52017e-20 0.0930476)
(10.286 -1.77925e-20 0.110217)
(10.3637 0 0.127323)
(10.4489 -1.82418e-20 0.144302)
(10.5411 3.71618e-20 0.161101)
(10.6397 2.09207e-20 0.177668)
(10.7442 -7.62686e-20 0.19395)
(10.8541 7.95544e-20 0.209891)
(10.969 -1.67759e-21 0.225434)
(11.0882 -4.20577e-20 0.240519)
(11.2113 4.19062e-20 0.25509)
(11.3379 -4.27718e-20 0.269092)
(11.4673 -4.12217e-20 0.282474)
(11.5992 3.82731e-20 0.295188)
(11.733 -3.78273e-20 0.307193)
(10.0009 0 0.000925988)
(10.0082 0 0.0047022)
(10.0248 -6.00638e-21 0.00974838)
(10.0539 4.09992e-21 0.015101)
(10.0941 -2.08885e-21 0.0205702)
(10.1437 2.1285e-21 0.0261548)
(10.2021 -8.63259e-21 0.0318344)
(10.269 8.83702e-21 0.0375709)
(10.3439 8.90893e-21 0.0433306)
(10.4264 -9.11554e-21 0.0490861)
(10.5158 0 0.0548129)
(10.6117 0 0.0604862)
(10.7134 7.01487e-21 0.0660808)
(10.8205 -1.78593e-20 0.0715714)
(10.9325 1.92358e-20 0.0769325)
(11.0488 -1.28366e-22 0.0821396)
(11.1688 -1.36264e-22 0.0871688)
(11.2921 -8.68665e-21 0.0919981)
(11.4182 -9.83034e-21 0.0966072)
(11.5464 1.00375e-20 0.100978)
)
;

boundaryField
{
    inlet
    {
        type            fixedValue;
        value           uniform (10 0 0);
    }
    outlet
    {
        type            zeroGradient;
    }
    flap
    {
        type            movingWallVelocity;
        value           nonuniform 0();
    }
    upperWall
    {
        type            noSlip;
    }
    lowerWall
    {
        type            noSlip;
    }
    frontAndBack
    {
        type            empty;
    }
    procBoundary0to1
    {
        type            processor;
        value           nonuniform List<vector> 
18
(
(11.7588 0 3.64638)
(11.8481 -2.74528e-19 3.42103)
(11.7331 -1.19737e-19 3.05469)
(11.7331 -1.19737e-19 3.05469)
(11.7903 0 2.84426)
(11.8332 -1.37978e-20 2.63303)
(11.8639 1.13393e-20 2.42167)
(11.884 -1.05215e-19 2.21065)
(11.8956 -1.93686e-21 2.00022)
(11.9004 -1.2243e-20 1.7905)
(11.8999 -9.45422e-20 1.58137)
(11.8957 1.16472e-20 1.3728)
(11.8894 0 1.16404)
(11.8821 0 0.955536)
(11.8755 9.04848e-20 0.744928)
(11.8704 -5.2418e-21 0.534764)
(11.8683 0 0.318455)
(11.6765 -9.91954e-21 0.105094)
)
;
    }
    procBoundary0to3
    {
        type            processor;
        value           nonuniform List<vector> 
34
(
(10.0017 0 0.126997)
(9.9837 -1.93299e-20 0.255238)
(9.95783 -1.89916e-20 0.399609)
(9.95783 -1.89916e-20 0.399609)
(9.93276 3.80223e-20 0.554448)
(9.93276 3.80223e-20 0.554448)
(9.91125 0 0.719662)
(9.91125 0 0.719662)
(9.89616 3.63443e-20 0.894664)
(9.89616 3.63443e-20 0.894664)
(9.89162 2.32159e-21 1.07825)
(9.89162 2.32159e-21 1.07825)
(9.90191 0 1.26848)
(9.90191 0 1.26848)
(9.88159 -7.45021e-20 1.45165)
(9.92227 -4.61999e-21 1.65512)
(9.92227 -4.61999e-21 1.65512)
(9.9879 -9.14394e-21 1.85767)
(9.9879 -9.14394e-21 1.85767)
(9.99833 -9.31142e-21 2.06842)
(10.1107 -9.24228e-21 2.27043)
(10.1107 -9.24228e-21 2.27043)
(10.1484 0 2.49716)
(10.3149 7.23152e-20 2.68485)
(10.3149 7.23152e-20 2.68485)
(10.5114 1.75721e-20 2.84566)
(10.5114 1.75721e-20 2.84566)
(10.6102 -1.81162e-20 3.07677)
(10.857 0 3.19254)
(10.857 0 3.19254)
(10.9957 -1.67781e-20 3.41574)
(11.2806 -3.28459e-20 3.46793)
(11.2806 -3.28459e-20 3.46793)
(11.4563 6.52068e-20 3.67045)
)
;
    }
}


// ************************************************************************* //
