/*--------------------------------*- C++ -*----------------------------------*\
| =========                 |                                                 |
| \\      /  F ield         | OpenFOAM: The Open Source CFD Toolbox           |
|  \\    /   O peration     | Version:  dev                                   |
|   \\  /    A nd           | Web:      www.OpenFOAM.org                      |
|    \\/     M anipulation  |                                                 |
\*---------------------------------------------------------------------------*/
FoamFile
{
    version     2.0;
    format      ascii;
    class       surfaceScalarField;
    location    "0.39";
    object      meshPhi;
}
// * * * * * * * * * * * * * * * * * * * * * * * * * * * * * * * * * * * * * //

dimensions      [0 3 -1 0 0 0 0];

internalField   nonuniform List<scalar> 
865
(
-1.18379e-06
3.16839e-07
-7.38041e-07
2.07334e-07
-4.19437e-07
1.28296e-07
-2.13641e-07
7.40939e-08
-9.49189e-08
3.90964e-08
-3.50662e-08
1.8217e-08
-9.72081e-09
7.07762e-09
-1.55735e-09
2.08295e-09
4.83455e-10
-1.15302e-06
6.4117e-07
-7.15085e-07
4.20297e-07
-4.04174e-07
2.60643e-07
-2.04704e-07
1.50966e-07
-9.05105e-08
7.99579e-08
-3.34096e-08
3.74133e-08
-9.37563e-09
1.45723e-08
-1.59021e-09
4.25499e-09
7.23721e-10
-1.07714e-06
9.77722e-07
-6.65021e-07
6.42214e-07
-3.73785e-07
3.99089e-07
-1.87986e-07
2.31594e-07
-8.234e-08
1.22754e-07
-2.99493e-08
5.72479e-08
-8.18321e-09
2.19772e-08
-1.35865e-09
6.1926e-09
9.82112e-10
-9.5546e-07
1.32588e-06
-5.88398e-07
8.72438e-07
-3.29214e-07
5.43008e-07
-1.64413e-07
3.15387e-07
-7.1235e-08
1.67044e-07
-2.54459e-08
7.75999e-08
-6.74916e-09
2.95315e-08
-1.10056e-09
8.21804e-09
1.31523e-09
-7.96111e-07
1.68665e-06
-4.89654e-07
1.11168e-06
-2.7293e-07
6.92855e-07
-1.35454e-07
4.02597e-07
-5.8173e-08
2.13009e-07
-2.05524e-08
9.86678e-08
-5.39154e-09
3.73912e-08
-8.75281e-10
1.03676e-08
1.6247e-09
-6.05863e-07
2.06517e-06
-3.73887e-07
1.36396e-06
-2.08625e-07
8.51404e-07
-1.03559e-07
4.94909e-07
-4.45198e-08
2.61538e-07
-1.57911e-08
1.20828e-07
-4.18029e-09
4.56436e-08
-6.92207e-10
1.26267e-08
2.00377e-09
-3.92767e-07
2.46863e-06
-2.47418e-07
1.63491e-06
-1.40984e-07
1.02255e-06
-7.1879e-08
5.94615e-07
-3.20906e-08
3.13705e-07
-1.19935e-08
1.44423e-07
-3.38775e-09
5.43079e-08
-6.07991e-10
1.49493e-08
2.33524e-09
-1.66754e-07
2.90685e-06
-1.18243e-07
1.93244e-06
-7.61451e-08
1.21187e-06
-4.4742e-08
7.05005e-07
-2.3566e-08
3.71053e-07
-1.05365e-08
1.69993e-07
-3.54702e-09
6.35409e-08
-7.5287e-10
1.73929e-08
2.68935e-09
6.05286e-08
3.39192e-06
3.88007e-09
2.26662e-06
-2.20245e-08
1.4267e-06
-2.80717e-08
8.30529e-07
-2.28028e-08
4.35609e-07
-1.34544e-08
1.98076e-07
-5.43172e-09
7.33084e-08
-1.2988e-09
1.98605e-08
3.11544e-09
2.7575e-07
3.93738e-06
1.07204e-07
2.64949e-06
1.11697e-08
1.67656e-06
-3.00603e-08
9.77547e-07
-3.54272e-08
5.10634e-07
-2.37822e-08
2.29699e-07
-1.01837e-08
8.36351e-08
-2.47193e-09
2.22299e-08
3.3735e-09
4.63708e-07
4.55179e-06
1.7781e-07
3.09005e-06
1.04812e-08
1.96989e-06
-6.20301e-08
1.15293e-06
-6.98231e-08
6.00696e-07
-4.61431e-08
2.67055e-07
-1.93629e-08
9.51261e-08
-4.40566e-09
2.46845e-08
3.96791e-09
6.0892e-07
5.24364e-06
2.00521e-07
3.59814e-06
-3.99697e-08
2.31719e-06
-1.40067e-07
1.36644e-06
-1.39942e-07
7.13198e-07
-8.95525e-08
3.14503e-07
-3.65038e-08
1.09584e-07
-7.66377e-09
2.77408e-08
3.59245e-09
7.00587e-07
6.0342e-06
1.61164e-07
4.19459e-06
-1.60149e-07
2.73804e-06
-2.91447e-07
1.6352e-06
-2.78833e-07
8.59883e-07
-1.86119e-07
3.75443e-07
-8.39053e-08
1.22617e-07
-2.19162e-08
2.1611e-08
-3.84667e-09
7.3451e-07
6.92449e-06
4.8763e-08
4.87494e-06
-3.70471e-07
3.22202e-06
-5.48537e-07
1.94138e-06
-5.32271e-07
1.01663e-06
-3.90139e-07
4.23055e-07
-2.09234e-07
1.09209e-07
-7.15694e-08
-1.48103e-08
-3.43869e-08
7.13818e-07
7.89022e-06
-1.3582e-07
5.60847e-06
-6.69394e-07
3.73344e-06
-9.05408e-07
2.24951e-06
-8.90938e-07
1.16135e-06
-7.04697e-07
4.66127e-07
-4.56273e-07
1.07611e-07
-2.59914e-07
-3.78585e-08
2.1989e-08
9.93403e-10
8.30913e-11
5.43321e-09
1.02981e-09
1.73551e-08
3.66527e-09
4.09399e-08
9.66303e-09
8.11946e-08
2.0845e-08
1.4502e-07
3.93249e-08
2.43337e-07
6.74469e-08
3.93639e-07
1.0775e-07
6.22644e-07
1.62937e-07
2.36103e-07
7.33386e-10
3.6386e-10
4.28403e-09
2.03817e-09
1.38646e-08
7.35344e-09
3.27902e-08
1.94854e-08
6.52185e-08
4.2145e-08
1.17484e-07
7.95673e-08
2.0031e-07
1.36403e-07
3.31284e-07
2.17705e-07
5.36641e-07
3.2886e-07
4.76014e-07
2.67979e-10
5.08354e-10
1.60304e-09
3.20882e-09
5.14379e-09
1.14661e-08
1.2325e-08
3.0172e-08
2.57478e-08
6.50341e-08
5.08694e-08
1.2248e-07
9.82911e-08
2.09485e-07
1.86337e-07
3.33554e-07
3.42805e-07
5.02596e-07
7.25717e-07
-6.32331e-10
7.11087e-10
-3.16149e-09
4.44469e-09
-9.79572e-09
1.59091e-08
-2.20594e-08
4.18042e-08
-3.96356e-08
8.99245e-08
-5.82251e-08
1.69024e-07
-6.708e-08
2.88477e-07
-4.62536e-08
4.58101e-07
3.54484e-08
6.88055e-07
9.90267e-07
-1.96108e-09
9.21866e-10
-9.97267e-09
5.7831e-09
-3.08854e-08
2.07192e-08
-7.01464e-08
5.44408e-08
-1.30359e-07
1.17063e-07
-2.08671e-07
2.19892e-07
-2.93857e-07
3.74758e-07
-3.63447e-07
5.93604e-07
-3.81829e-07
8.88538e-07
1.27404e-06
-3.72532e-09
1.14849e-09
-1.89285e-08
7.23791e-09
-5.8479e-08
2.59284e-08
-1.32696e-07
6.81618e-08
-2.47646e-07
1.46707e-07
-4.02016e-07
2.75774e-07
-5.83664e-07
4.69803e-07
-7.66618e-07
7.42686e-07
-9.09507e-07
1.10807e-06
1.58251e-06
-6.00142e-09
1.4141e-09
-3.03321e-08
8.83798e-09
-9.32981e-08
3.15661e-08
-2.11054e-07
8.30167e-08
-3.93633e-07
1.79086e-07
-6.41172e-07
3.37435e-07
-9.39912e-07
5.75394e-07
-1.25912e-06
9.08597e-07
-1.55006e-06
1.35171e-06
1.92255e-06
-8.8577e-09
1.70035e-09
-4.45205e-08
1.05311e-08
-1.36241e-07
3.75237e-08
-3.07041e-07
9.89633e-08
-5.71409e-07
2.14481e-07
-9.3059e-07
4.0588e-07
-1.36803e-06
6.9373e-07
-1.84652e-06
1.09512e-06
-2.30809e-06
1.62504e-06
2.30159e-06
-1.23628e-08
2.03199e-09
-6.17891e-08
1.2202e-08
-1.883e-07
4.36567e-08
-4.23063e-07
1.16149e-07
-7.85365e-07
2.53695e-07
-1.27659e-06
4.82978e-07
-1.87548e-06
8.28087e-07
-2.53614e-06
1.30711e-06
-3.18925e-06
1.93447e-06
2.72738e-06
-1.65004e-08
1.70576e-09
-8.24978e-08
1.35963e-08
-2.51284e-07
5.01833e-08
-5.637e-07
1.35678e-07
-1.04342e-06
2.99152e-07
-1.68978e-06
5.72902e-07
-2.47396e-06
9.84534e-07
-3.3388e-06
1.5523e-06
-4.20161e-06
2.28901e-06
3.20979e-06
-2.12106e-08
1.68422e-09
-1.07815e-07
1.48003e-08
-3.29862e-07
5.84422e-08
-7.38676e-07
1.60407e-07
-1.35997e-06
3.55757e-07
-2.18708e-06
6.82975e-07
-3.18014e-06
1.17255e-06
-4.26867e-06
1.84157e-06
-5.35508e-06
2.70002e-06
3.7601e-06
-2.80621e-08
2.54932e-09
-1.43631e-07
1.71861e-08
-4.3724e-07
7.16624e-08
-9.68675e-07
1.96059e-07
-1.75991e-06
4.32427e-07
-2.79287e-06
8.25254e-07
-4.01429e-06
1.40629e-06
-5.34044e-06
2.18962e-06
-6.65834e-06
3.18156e-06
4.39113e-06
-4.25302e-08
4.75793e-09
-2.06581e-07
2.35188e-08
-6.04113e-07
9.43736e-08
-1.29385e-06
2.5145e-07
-2.28394e-06
5.43252e-07
-3.54084e-06
1.018e-06
-5.00016e-06
1.70606e-06
-6.56959e-06
2.61669e-06
-8.12205e-06
3.75255e-06
5.12015e-06
-9.10602e-08
2.23814e-08
-3.49818e-07
4.51068e-08
-9.04412e-07
1.37594e-07
-1.78923e-06
3.43105e-07
-2.99168e-06
7.12075e-07
-4.46957e-06
1.28951e-06
-6.15799e-06
2.10052e-06
-7.96659e-06
3.14948e-06
-9.762e-06
4.43735e-06
5.96937e-06
-2.72222e-07
3.75481e-08
-6.85409e-07
1.23532e-07
-1.43496e-06
2.36415e-07
-2.52118e-06
4.99599e-07
-3.92214e-06
9.66417e-07
-5.59753e-06
1.66973e-06
-7.49132e-06
2.62102e-06
-9.53127e-06
3.81924e-06
-1.1544e-05
5.26572e-06
6.78994e-07
8.95365e-06
-3.83804e-07
6.42529e-06
-1.06218e-06
4.31123e-06
-1.36561e-06
2.61258e-06
-1.34607e-06
1.36476e-06
-1.11131e-06
5.8974e-07
-8.14844e-07
2.15822e-07
-5.9027e-07
6.77325e-08
-5.45738e-10
-2.34239e-07
6.41734e-07
1.01899e-05
-6.49389e-07
7.42402e-06
-1.49243e-06
5.07634e-06
-1.88933e-06
3.1618e-06
-1.89955e-06
1.74076e-06
-1.65656e-06
8.50557e-07
-1.33999e-06
4.09208e-07
-1.07917e-06
2.16982e-07
9.71918e-08
-9.24724e-07
6.68772e-07
1.16978e-05
-8.91032e-07
8.72665e-06
-1.95181e-06
6.17117e-06
-2.51231e-06
4.04461e-06
-2.64303e-06
2.41793e-06
-2.49142e-06
1.33963e-06
-2.24895e-06
7.33752e-07
-2.05423e-06
4.06601e-07
1.75224e-07
-1.99657e-06
8.34603e-07
-1.0561e-06
1.04588e-05
-2.40416e-06
7.7428e-06
-3.21552e-06
5.42166e-06
-3.57818e-06
3.57694e-06
-3.63351e-06
2.26976e-06
-3.57843e-06
1.44696e-06
-3.57684e-06
9.55825e-07
6.42985e-07
-3.7411e-06
-1.02598e-06
-2.76194e-06
-3.9248e-06
7.41501e-06
-4.61725e-06
5.3952e-06
-4.98472e-06
3.87028e-06
-5.23391e-06
2.84587e-06
-5.5356e-06
2.23001e-06
1.91491e-06
-5.98233e-06
-4.43501e-06
-5.5835e-06
-6.358e-06
6.17309e-06
-6.98323e-06
4.9821e-06
-7.64423e-06
4.23779e-06
3.88686e-06
-8.4002e-06
-7.41034e-06
-8.50917e-06
-9.55629e-06
6.71315e-06
6.20005e-06
-1.06052e-05
-1.07819e-05
-1.21974e-05
-1.75967e-07
-2.74745e-09
-2.08683e-07
-2.02843e-08
-1.96597e-08
-3.41122e-07
-8.85211e-07
1.97553e-08
-9.22117e-07
-4.28027e-09
-1.29666e-08
-1.07445e-06
-2.06276e-06
1.18125e-08
-2.17111e-06
-2.64378e-08
-2.17163e-08
-2.34913e-06
-3.97256e-06
2.3305e-07
-4.13889e-06
2.1944e-07
2.47068e-07
-4.29418e-06
-6.39274e-06
8.99724e-07
-6.62527e-06
9.34203e-07
9.56206e-07
-6.75418e-06
-8.99237e-06
1.88643e-06
-9.30091e-06
1.93928e-06
1.93867e-06
-9.42137e-06
-1.13549e-05
2.97343e-06
-1.17375e-05
3.00415e-06
2.99522e-06
-1.18817e-05
-1.31291e-05
-1.35564e-05
4.11465e-06
4.12775e-06
-1.37386e-05
-1.41807e-05
-1.45121e-05
-7.32717e-07
1.12335e-07
-1.32419e-06
2.15405e-07
-2.28063e-06
3.90422e-07
-3.59278e-06
7.50259e-07
-5.22918e-06
1.34855e-06
-7.14394e-06
2.20188e-06
-9.28795e-06
3.30774e-06
-1.16142e-05
4.66313e-06
6.27366e-06
-1.49209e-06
1.46809e-07
-2.25986e-06
3.16048e-07
-3.39922e-06
6.27676e-07
-4.90658e-06
1.14604e-06
-6.7344e-06
1.91457e-06
-8.82869e-06
2.93761e-06
-1.11437e-05
4.20555e-06
-1.3647e-05
5.71823e-06
7.49085e-06
-2.80578e-06
2.4538e-07
-3.66667e-06
5.78448e-07
-4.91763e-06
1.08756e-06
-6.54421e-06
1.79643e-06
-8.4893e-06
2.7421e-06
-1.06897e-05
3.92958e-06
-1.30893e-05
5.35262e-06
-1.56477e-05
7.01737e-06
8.94805e-06
-4.71608e-06
8.71524e-07
-5.58751e-06
1.32199e-06
-6.86078e-06
1.98091e-06
-8.50454e-06
2.83782e-06
-1.04644e-05
3.92112e-06
-1.26704e-05
5.23809e-06
-1.50522e-05
6.79285e-06
-1.75504e-05
8.60042e-06
1.06874e-05
-7.10121e-06
2.25917e-06
-7.91036e-06
2.69542e-06
-9.12797e-06
3.4007e-06
-1.07031e-05
4.33148e-06
-1.2578e-05
5.49831e-06
-1.46821e-05
6.90971e-06
-1.69396e-05
8.57724e-06
-1.92753e-05
1.05205e-05
1.27634e-05
-9.69257e-06
4.17579e-06
-1.04008e-05
4.57332e-06
-1.15057e-05
5.28622e-06
-1.29455e-05
6.25894e-06
-1.46596e-05
7.48876e-06
-1.65766e-05
8.98462e-06
-1.86188e-05
1.07629e-05
-2.07049e-05
1.28436e-05
1.52419e-05
-1.21124e-05
6.33503e-06
-1.27247e-05
6.79221e-06
-1.3697e-05
7.56498e-06
-1.49648e-05
8.60751e-06
-1.64687e-05
9.92198e-06
-1.81382e-05
1.15203e-05
-1.98966e-05
1.3423e-05
-2.16639e-05
1.56502e-05
1.82028e-05
-1.39687e-05
8.75162e-06
-1.45128e-05
9.37728e-06
-1.53697e-05
1.02829e-05
-1.64589e-05
1.14416e-05
-1.77258e-05
1.28756e-05
-1.91103e-05
1.46034e-05
-2.05384e-05
1.66469e-05
-2.19346e-05
1.90265e-05
2.17275e-05
-1.48713e-05
-1.54226e-05
1.25593e-05
-1.62091e-05
1.3606e-05
-1.7131e-05
1.49015e-05
-1.8144e-05
1.64723e-05
-1.92218e-05
1.83424e-05
-2.0288e-05
2.05308e-05
-2.1278e-05
2.30541e-05
2.58815e-05
-1.49583e-05
-1.58189e-05
-1.66799e-05
-1.74659e-05
2.0836e-05
-1.82106e-05
2.28397e-05
-1.88837e-05
2.51552e-05
-1.94452e-05
2.77933e-05
3.07067e-05
-1.52545e-05
-1.57756e-05
-1.60794e-05
3.05603e-05
-1.61876e-05
3.32799e-05
3.62166e-05
-1.14607e-05
-1.12221e-05
4.23752e-05
)
;

boundaryField
{
    inlet
    {
        type            calculated;
        value           nonuniform 0();
    }
    outlet
    {
        type            calculated;
        value           nonuniform 0();
    }
    flap
    {
        type            calculated;
        value           uniform 0;
    }
    upperWall
    {
        type            calculated;
        value           nonuniform 0();
    }
    lowerWall
    {
        type            calculated;
        value           uniform 0;
    }
    frontAndBack
    {
        type            empty;
        value           nonuniform 0();
    }
    procBoundary4to1
    {
        type            processor;
        value           nonuniform List<scalar> 
30
(
1.35799e-05
-1.28368e-06
1.26387e-05
9.84678e-06
2.77126e-06
9.89711e-06
7.82383e-06
6.06849e-06
8.92198e-06
7.6184e-06
9.24363e-06
9.51295e-06
8.75325e-06
4.12604e-06
1.36423e-05
5.58983e-06
5.60232e-06
1.17941e-05
1.42124e-05
1.66261e-05
1.77415e-05
1.91402e-05
1.45029e-05
2.60075e-05
2.8128e-05
1.13182e-05
3.66099e-05
3.94265e-05
4.05715e-06
4.89164e-05
)
;
    }
    procBoundary4to2
    {
        type            processor;
        value           nonuniform List<scalar> 
11
(
-1.80007e-05
-1.97193e-05
-2.11875e-05
-2.23076e-05
-2.29033e-05
-2.27698e-05
-2.16826e-05
-1.94058e-05
-1.56947e-05
-1.03105e-05
-2.91075e-06
)
;
    }
    procBoundary4to3
    {
        type            processor;
        value           nonuniform List<scalar> 
19
(
1.71131e-06
1.66831e-06
1.55864e-06
1.38023e-06
1.14457e-06
8.60146e-07
5.36707e-07
1.8614e-07
-1.77945e-07
-5.40427e-07
-8.84301e-07
-1.19272e-06
-1.45638e-06
-1.67578e-06
-1.85731e-06
-2.08885e-06
-2.33039e-06
-2.6713e-06
-3.1998e-06
)
;
    }
    procBoundary4to5
    {
        type            processor;
        value           nonuniform List<scalar> 
18
(
9.12225e-07
8.0739e-07
5.69217e-07
1.91154e-07
-3.20701e-07
-9.65197e-07
-1.74296e-06
-2.65628e-06
-3.7075e-06
-4.89991e-06
-6.23678e-06
-7.71786e-06
-9.34234e-06
-1.11105e-05
-1.29606e-05
6.96737e-06
-1.38629e-05
-1.60268e-05
)
;
    }
}


// ************************************************************************* //
