/*--------------------------------*- C++ -*----------------------------------*\
| =========                 |                                                 |
| \\      /  F ield         | OpenFOAM: The Open Source CFD Toolbox           |
|  \\    /   O peration     | Version:  dev                                   |
|   \\  /    A nd           | Web:      www.OpenFOAM.org                      |
|    \\/     M anipulation  |                                                 |
\*---------------------------------------------------------------------------*/
FoamFile
{
    version     2.0;
    format      ascii;
    class       volVectorField;
    location    "4.33";
    object      U;
}
// * * * * * * * * * * * * * * * * * * * * * * * * * * * * * * * * * * * * * //

dimensions      [0 1 -1 0 0 0 0];

internalField   nonuniform List<vector> 
2790
(
(9.93502 1.19031e-21 0.0194371)
(9.86722 -1.83396e-21 0.0280416)
(9.77014 6.28366e-22 0.0340482)
(9.64698 0 0.0401354)
(9.50507 0 0.0464458)
(9.34661 0 0.0529629)
(9.17086 0 0.0598202)
(8.97676 -6.00105e-21 0.0671764)
(8.76344 1.24033e-20 0.075169)
(8.52998 -1.61519e-20 0.0839247)
(8.27529 1.66812e-20 0.0935724)
(7.9981 3.48934e-21 0.104247)
(7.69697 0 0.116088)
(7.37042 0 0.129237)
(7.0169 0 0.14383)
(6.63493 8.28317e-21 0.15999)
(6.22315 -3.49333e-20 0.177811)
(5.7805 2.6938e-20 0.197337)
(5.30636 0 0.218541)
(4.80079 -8.00042e-20 0.241284)
(4.26481 8.25407e-20 0.265276)
(3.70069 0 0.290018)
(3.11226 2.26676e-20 0.314753)
(2.50533 4.72522e-20 0.338418)
(1.88787 4.91303e-20 0.3597)
(1.26892 5.09203e-20 0.378074)
(0.676546 0 0.396947)
(-0.103097 -5.38951e-20 0.152536)
(-0.274504 -5.47104e-20 -0.282862)
(-0.0608879 0 -0.362551)
(9.99313 -5.94869e-22 0.0393485)
(9.97978 0 0.059484)
(9.93955 1.88332e-21 0.0746926)
(9.87212 5.19582e-21 0.0905719)
(9.78361 5.40295e-21 0.10745)
(9.67631 7.885e-23 0.125216)
(9.54969 -8.55566e-21 0.144125)
(9.4028 -2.38783e-20 0.164521)
(9.23482 4.93179e-20 0.186712)
(9.04488 -5.44189e-20 0.210978)
(8.83194 2.31341e-20 0.237605)
(8.59473 5.22936e-20 0.26688)
(8.33185 -5.01093e-20 0.29909)
(8.04178 1.50167e-20 0.3345)
(7.72292 -6.32053e-20 0.373328)
(7.37369 -7.5161e-20 0.415714)
(6.99259 1.35829e-19 0.461671)
(6.57833 8.94253e-21 0.511012)
(6.13002 1.87911e-19 0.563273)
(5.64735 -1.94145e-19 0.617618)
(5.13093 3.69516e-19 0.672702)
(4.58253 3.38885e-19 0.72653)
(4.00555 3.35374e-19 0.776321)
(3.40552 -3.68711e-19 0.818326)
(2.79092 -4.81262e-20 0.847626)
(2.17473 -9.48488e-19 0.857545)
(1.58009 1.64428e-18 0.836643)
(0.992091 -1.63772e-18 0.706348)
(0.550574 1.61477e-19 0.464962)
(0.136439 1.68845e-18 -0.241207)
(9.99022 2.12365e-24 0.0421987)
(9.97396 -2.4365e-21 0.0714622)
(9.93577 -1.25471e-21 0.0965462)
(9.87298 -1.03764e-20 0.122711)
(9.79047 3.21056e-20 0.150616)
(9.69062 -2.20292e-20 0.180227)
(9.57319 -8.57382e-21 0.211874)
(9.43741 0 0.246043)
(9.28259 0 0.283207)
(9.10804 0 0.323823)
(8.9129 0 0.36836)
(8.6961 -1.3758e-20 0.417302)
(8.45641 -1.36973e-19 0.471136)
(8.19249 2.38923e-19 0.530328)
(7.90287 -1.39169e-19 0.595273)
(7.58602 0 0.666256)
(7.24042 0 0.743372)
(6.8646 0 0.826399)
(6.45727 -3.69621e-20 0.914668)
(6.01755 3.87335e-19 1.0069)
(5.54516 -6.83357e-19 1.10097)
(5.04064 -8.36011e-20 1.19363)
(4.50583 7.02431e-19 1.28021)
(3.9443 -8.59244e-19 1.35421)
(3.3621 0 1.4066)
(2.76855 8.81103e-19 1.42429)
(2.17792 -8.04755e-19 1.3857)
(1.58892 -1.66317e-18 1.23685)
(1.00167 1.59763e-18 0.952645)
(0.612441 -1.67844e-18 0.488112)
(9.98849 -2.36987e-21 0.0476112)
(9.96994 4.86461e-21 0.087554)
(9.9316 0 0.123853)
(9.87003 0 0.160632)
(9.78919 2.13985e-20 0.199131)
(9.69142 -2.19764e-20 0.239697)
(9.57674 1.14026e-20 0.282835)
(9.44453 0 0.329191)
(9.29429 -1.22259e-20 0.379416)
(9.12551 5.10854e-20 0.434153)
(8.93758 -1.58579e-19 0.494052)
(8.7297 1.36367e-19 0.559787)
(8.50098 -1.00493e-19 0.632042)
(8.2504 -4.60522e-20 0.711485)
(7.97689 1.68961e-19 0.798716)
(7.67926 0 0.894208)
(7.35631 0 0.998235)
(7.0068 3.48488e-20 1.1107)
(6.62944 7.2643e-20 1.23095)
(6.22313 -3.80788e-20 1.35754)
(5.78703 -7.16213e-19 1.488)
(5.3206 -6.54745e-19 1.61836)
(4.82396 0 1.74274)
(4.29806 8.93721e-20 1.85269)
(3.7448 0 1.93631)
(3.16696 0 1.97695)
(2.56786 1.58686e-18 1.95055)
(1.94329 -3.26642e-18 1.81626)
(1.25931 1.7853e-18 1.55287)
(0.717326 -1.10398e-19 1.12168)
(9.98767 -2.36325e-21 0.0545394)
(9.96786 0 0.103749)
(9.9294 1.0015e-20 0.149897)
(9.86889 1.03772e-20 0.196297)
(9.7897 1.21129e-22 0.244605)
(9.69399 -2.19137e-20 0.295536)
(9.58186 -5.68874e-21 0.349734)
(9.45279 -1.17497e-20 0.407941)
(9.30633 1.22034e-20 0.470919)
(9.14208 0 0.539428)
(8.95954 1.30906e-20 0.614236)
(8.7581 -1.36397e-20 0.696134)
(8.53706 0 0.785934)
(8.29565 -2.0751e-19 0.884436)
(8.03309 2.43111e-19 0.99238)
(7.74848 0 1.11038)
(7.44093 -3.30499e-20 1.23885)
(7.10951 -3.46205e-20 1.37789)
(6.75308 4.35308e-19 1.52693)
(6.37046 -5.94524e-19 1.68461)
(5.96046 1.55633e-19 1.84838)
(5.52176 6.52129e-19 2.01409)
(5.05298 -6.69116e-19 2.17536)
(4.55267 0 2.32298)
(4.01896 0 2.44398)
(3.44907 1.69229e-18 2.52092)
(2.8389 9.99226e-21 2.53128)
(2.1823 -1.59882e-18 2.4438)
(1.43672 -1.03671e-19 2.2414)
(0.800745 5.13953e-22 1.88707)
(9.98729 7.07726e-21 0.0621476)
(9.96695 -4.83913e-21 0.119944)
(9.92874 1.99792e-20 0.175426)
(9.86951 -2.565e-20 0.231342)
(9.79231 3.72543e-20 0.289432)
(9.69911 -9.31219e-20 0.350633)
(9.59 1.09634e-20 0.415708)
(9.46453 5.84032e-20 0.485481)
(9.32232 -9.75208e-20 0.560811)
(9.163 1.1261e-19 0.642566)
(8.98616 -1.30561e-20 0.731628)
(8.79127 1.35818e-19 0.828898)
(8.57773 -1.11655e-19 0.935297)
(8.34492 2.34839e-19 1.05173)
(8.09223 -2.71301e-19 1.17907)
(7.8189 -2.53722e-19 1.31805)
(7.52413 2.93131e-19 1.46923)
(7.20713 4.8066e-19 1.63286)
(6.86691 7.85378e-20 1.80863)
(6.50219 -5.84852e-19 1.99533)
(6.11142 -7.67751e-20 2.19064)
(5.69268 7.97383e-20 2.3906)
(5.24333 -1.32491e-18 2.58899)
(4.76002 2.73291e-18 2.77681)
(4.23824 1.28149e-20 2.94146)
(3.6716 -3.11623e-18 3.06614)
(3.05169 3.03348e-18 3.13012)
(2.37224 9.4018e-21 3.10706)
(1.59183 -1.6183e-18 2.98001)
(0.889356 1.00198e-21 2.70782)
(9.98716 -4.71289e-21 0.0700262)
(9.96681 1.13904e-23 0.136062)
(9.92922 0 0.200415)
(9.87154 -1.54116e-20 0.265511)
(9.79666 2.6376e-20 0.333047)
(9.70639 4.92585e-20 0.404121)
(9.6008 -5.62332e-20 0.479633)
(9.47951 0 0.560503)
(9.34218 -1.20395e-20 0.647686)
(9.18851 -1.25151e-20 0.742152)
(9.01811 -2.58228e-20 0.844883)
(8.83053 -2.68967e-20 0.956878)
(8.62521 -2.24e-19 1.07915)
(8.40165 2.00892e-19 1.2127)
(8.15925 2.98667e-20 1.35849)
(7.8973 5.63066e-19 1.51743)
(7.615 -5.13646e-19 1.69021)
(7.31152 -4.72677e-19 1.87725)
(6.98586 5.53495e-19 2.07849)
(6.63656 0 2.2931)
(6.26175 -1.20583e-18 2.51917)
(5.85887 -2.48549e-18 2.75328)
(5.42427 1.28085e-18 2.98992)
(4.95309 0 3.22087)
(4.43891 -1.30101e-18 3.43461)
(3.8734 1.42277e-18 3.61558)
(3.24562 0 3.74403)
(2.54923 -9.48452e-20 3.79492)
(1.74867 -3.22179e-18 3.74687)
(0.989997 3.52341e-18 3.55086)
(9.98719 0 0.0779393)
(9.96718 1.27506e-23 0.151945)
(9.93058 4.94798e-21 0.224731)
(9.87473 5.09672e-21 0.298607)
(9.80248 0 0.375217)
(9.71554 4.36019e-20 0.455772)
(9.61396 4.53657e-20 0.541295)
(9.49742 -1.97142e-19 0.6328)
(9.36561 9.55831e-20 0.731329)
(9.21829 -9.97445e-20 0.83794)
(9.05514 1.02391e-19 0.95371)
(8.87573 2.6526e-20 1.07973)
(8.67959 2.21785e-19 1.21711)
(8.46623 -4.28522e-19 1.36693)
(8.23502 1.76349e-19 1.53031)
(7.98527 3.71419e-19 1.7083)
(7.7162 -5.69551e-19 1.90176)
(7.42684 5.96547e-19 2.11133)
(7.116 -5.43675e-19 2.33726)
(6.78201 0 2.57918)
(6.42258 0 2.83581)
(6.03455 0 3.10455)
(5.61342 0 3.38095)
(5.15309 1.2232e-18 3.65805)
(4.64557 -1.42025e-18 3.92566)
(4.08115 1.39228e-18 4.16957)
(3.44717 -1.51787e-18 4.37052)
(2.73587 1.85281e-19 4.50268)
(1.91965 -2.9828e-18 4.53695)
(1.105 3.116e-18 4.41271)
(9.98732 -1.40313e-20 0.085737)
(9.96793 1.44033e-20 0.167442)
(9.93262 -1.48367e-23 0.248247)
(9.87889 -4.5861e-20 0.330483)
(9.80958 4.18365e-20 0.415764)
(9.72634 4.33903e-20 0.505372)
(9.62924 -1.34117e-19 0.600436)
(9.51796 1.03444e-19 0.702057)
(9.39228 5.54741e-23 0.811358)
(9.252 -1.22824e-20 0.929481)
(9.09685 2.55446e-20 1.05759)
(8.92647 -2.64374e-20 1.19687)
(8.74045 0 1.34852)
(8.53829 2.27155e-19 1.51375)
(8.31937 -2.03258e-19 1.6938)
(8.08303 -4.26079e-19 1.8899)
(7.82846 6.23544e-19 2.10312)
(7.55457 -5.86393e-19 2.33437)
(7.25993 5.33275e-19 2.5843)
(6.94263 -1.04533e-18 2.85311)
(6.59997 -1.13178e-20 3.14029)
(6.22819 -1.10355e-18 3.44431)
(5.82205 0 3.76208)
(5.37439 7.93567e-20 4.08825)
(4.87571 -8.03263e-20 4.41431)
(4.31458 -8.28355e-20 4.72745)
(3.67646 8.74113e-20 5.00888)
(2.95007 -2.95977e-18 5.23134)
(2.11567 2.91194e-18 5.35592)
(1.23771 -4.78619e-20 5.30636)
(9.98752 1.86494e-20 0.0933167)
(9.96896 -9.56129e-21 0.182422)
(9.93522 -9.8351e-21 0.270841)
(9.88387 5.05397e-21 0.361001)
(9.8178 4.7053e-20 0.454508)
(9.73862 -3.21861e-20 0.5527)
(9.6464 0 0.656789)
(9.54088 8.05579e-20 0.767958)
(9.42188 -1.89232e-19 0.887403)
(9.28926 3.1815e-19 1.01634)
(9.14283 -2.2632e-19 1.15603)
(8.98227 -2.09804e-19 1.30772)
(8.80726 2.14819e-19 1.47274)
(8.61732 -2.77698e-20 1.65242)
(8.41187 -2.86923e-20 1.84812)
(8.19029 0 2.06126)
(7.95174 -6.18918e-20 2.29317)
(7.69505 5.74266e-19 2.5451)
(7.41865 -5.22398e-19 2.81817)
(7.12041 1.01952e-18 3.11326)
(6.7973 -1.18034e-18 3.43077)
(6.44507 -1.22636e-18 3.77044)
(6.05781 1.10557e-18 4.13084)
(5.62735 0 4.50867)
(5.1427 7.91274e-20 4.89767)
(4.58996 2.06668e-21 5.28699)
(3.9517 8.17578e-20 5.65884)
(3.21026 2.70443e-18 5.98499)
(2.35108 -2.83484e-18 6.21596)
(1.39497 6.99427e-20 6.25496)
(9.98777 -4.65148e-21 0.100604)
(9.9702 0 0.196775)
(9.93825 4.9056e-21 0.292397)
(9.88954 -1.00796e-20 0.390026)
(9.82698 3.64322e-20 0.491285)
(9.75219 -5.34164e-20 0.597553)
(9.66524 8.85346e-20 0.710114)
(9.56591 -9.06815e-20 0.830219)
(9.4541 2.34773e-20 0.959134)
(9.32972 -2.42307e-20 1.09814)
(9.19265 2.50969e-20 1.24857)
(9.04267 2.33268e-19 1.41177)
(8.8795 -2.46503e-20 1.58916)
(8.70276 -1.64198e-19 1.78219)
(8.51195 2.82173e-22 1.99238)
(8.30649 0 2.22132)
(8.08557 0 2.47063)
(7.84803 4.37864e-19 2.74195)
(7.5923 -5.11161e-19 3.03694)
(7.31612 0 3.3572)
(7.01632 1.15779e-18 3.70422)
(6.68837 1.11141e-18 4.07917)
(6.32586 7.22505e-20 4.48261)
(5.91977 -1.17505e-18 4.91383)
(5.45757 1.19997e-18 5.36973)
(4.92242 2.39924e-21 5.84283)
(4.29236 -8.03252e-20 6.31803)
(3.53933 4.13898e-20 6.76803)
(2.6479 1.02445e-20 7.13389)
(1.58982 -1.02644e-21 7.29324)
(9.98806 -4.61605e-21 0.107541)
(9.97161 1.89864e-20 0.21041)
(9.94166 4.29444e-23 0.312808)
(9.89582 -5.52149e-20 0.417435)
(9.83702 -5.32685e-21 0.525945)
(9.76689 3.1843e-20 0.639751)
(9.68555 -7.70198e-20 0.760193)
(9.59282 1.01446e-19 0.888586)
(9.48864 -9.3582e-20 1.02625)
(9.37302 1.19772e-19 1.17453)
(9.2459 -2.46806e-20 1.33481)
(9.10715 -2.56435e-20 1.50853)
(8.9566 2.64525e-20 1.69719)
(8.79397 1.63839e-19 1.90237)
(8.61889 -1.94835e-19 2.12572)
(8.43086 -4.62959e-19 2.36902)
(8.22918 4.43301e-19 2.63416)
(8.01283 -4.89787e-19 2.92321)
(7.78034 4.99694e-19 3.23835)
(7.52957 0 3.58201)
(7.25745 6.52462e-20 3.95677)
(6.95951 6.66925e-20 4.36543)
(6.62926 1.10417e-18 4.81084)
(6.25727 -1.12509e-18 5.29549)
(5.82982 1.14723e-18 5.82062)
(5.32708 -2.26491e-18 6.38444)
(4.72125 1.15899e-18 6.97823)
(3.96915 0 7.58082)
(3.04321 -1.00424e-20 8.12988)
(1.84795 -2.09534e-20 8.47585)
(9.98839 4.61336e-21 0.114084)
(9.97317 1.41879e-20 0.223249)
(9.94537 -2.42364e-20 0.33198)
(9.90259 0 0.443118)
(9.84777 5.14698e-21 0.558352)
(9.78258 1.05989e-20 0.67913)
(9.70714 6.55728e-20 0.806834)
(9.62134 -8.94747e-20 0.942828)
(9.5252 -1.04308e-19 1.08848)
(9.41878 9.48275e-20 1.24519)
(9.30212 2.46115e-20 1.41438)
(9.17519 2.02792e-19 1.59756)
(9.03794 -2.07344e-19 1.79631)
(8.89024 2.68519e-19 2.01229)
(8.73186 -2.196e-19 2.2473)
(8.56246 0 2.5033)
(8.38154 2.92865e-20 2.78243)
(8.18831 0 3.0871)
(7.9816 -4.90514e-19 3.42005)
(7.75963 5.30728e-19 3.78446)
(7.51976 -6.46163e-20 4.18402)
(7.25809 -9.81683e-20 4.62319)
(6.96871 3.27024e-20 5.10727)
(6.64275 0 5.64242)
(6.26649 -3.34448e-20 6.23553)
(5.81843 -3.36606e-20 6.8933)
(5.26548 1.87757e-20 7.6195)
(4.54605 -1.69065e-20 8.41069)
(3.6035 -1.69511e-20 9.22153)
(2.22324 0 9.89971)
(9.98874 6.88218e-21 0.120198)
(9.97484 1.41215e-20 0.23523)
(9.94934 -1.44613e-20 0.349831)
(9.90978 0 0.466975)
(9.85914 0 0.588392)
(9.7991 0 0.715552)
(9.72982 1.08424e-20 0.849875)
(9.65124 -8.92763e-20 0.992759)
(9.56345 1.83298e-19 1.14561)
(9.4666 -1.05878e-19 1.30986)
(9.36083 1.2083e-20 1.48697)
(9.24623 0 1.6785)
(9.12286 -2.06043e-19 1.88607)
(8.99076 2.102e-19 2.11142)
(8.8499 -4.61914e-19 2.35645)
(8.70015 4.43845e-19 2.62327)
(8.5413 0 2.91421)
(8.3729 -2.89557e-20 3.232)
(8.19424 4.78033e-19 3.57979)
(8.00417 -5.47486e-19 3.9614)
(7.80088 -3.06399e-20 4.38151)
(7.58157 4.7408e-20 4.84602)
(7.34191 -3.2332e-20 5.36252)
(7.075 1.03888e-18 5.9409)
(6.76967 -1.00609e-18 6.5942)
(6.4067 -9.89718e-19 7.33987)
(5.95352 1.055e-18 8.20096)
(5.33591 1.00192e-18 9.21062)
(4.45589 1.24619e-21 10.395)
(2.83905 -1.05633e-18 11.7671)
(9.98911 2.28564e-21 0.125855)
(9.97659 -2.33278e-21 0.246299)
(9.9535 1.92334e-20 0.366289)
(9.91732 1.98277e-20 0.488918)
(9.87101 -4.05451e-20 0.61595)
(9.8163 0 0.748875)
(9.75339 -8.60831e-20 0.889137)
(9.68227 8.81361e-20 1.03816)
(9.6031 0 1.19738)
(9.51612 1.8732e-19 1.36823)
(9.42158 -1.91643e-19 1.55222)
(9.31968 1.97885e-19 1.7509)
(9.21064 -4.18002e-19 1.96595)
(9.09467 -4.01254e-20 2.19913)
(8.97195 2.66177e-19 2.45242)
(8.84265 2.71314e-20 2.728)
(8.70687 -4.7556e-19 3.02834)
(8.56463 4.99103e-19 3.35635)
(8.41581 0 3.71546)
(8.2601 2.99203e-20 4.10992)
(8.09687 5.09985e-19 4.54505)
(7.92499 4.68762e-19 5.02775)
(7.74265 -4.91417e-19 5.56725)
(7.54676 -2.31331e-20 6.17621)
(7.33211 0 6.87267)
(7.08898 -2.73145e-20 7.68373)
(6.8007 2.81968e-20 8.65252)
(6.41515 8.59477e-19 9.85955)
(5.85692 -8.97491e-19 11.4758)
(3.98277 4.97717e-20 14.5366)
(0.141105 0 -0.152554)
(0.332291 0 -0.145695)
(0.537965 0 -0.120736)
(0.726877 4.85811e-23 -0.0957281)
(0.885423 -3.24358e-23 -0.0741785)
(1.01374 1.84604e-23 -0.055856)
(1.11535 0 -0.0399948)
(1.19275 -1.57118e-23 -0.0260179)
(1.24715 2.15861e-23 -0.0135945)
(1.27941 8.73103e-24 -0.00272758)
(1.29092 8.7832e-24 0.00610527)
(1.28513 -6.72171e-24 0.012194)
(1.26661 0 0.0153401)
(1.24092 0 0.0157728)
(1.21381 -1.87819e-23 0.0140975)
(1.19014 -1.00754e-23 0.0110787)
(1.17327 2.79722e-23 0.00740729)
(1.16489 0 0.00356979)
(1.16609 0 -7.3837e-05)
(1.17624 0 -0.00321155)
(1.19389 -1.38535e-23 -0.00573355)
(1.2176 0 -0.00771392)
(1.24599 -1.34268e-23 -0.00924876)
(1.27783 1.31663e-23 -0.0103449)
(1.3119 1.16972e-23 -0.0109311)
(1.34691 0 -0.0109524)
(1.38152 -1.60307e-23 -0.0105073)
(1.41473 0 -0.00990198)
(1.44621 3.17503e-25 -0.00932203)
(1.48122 2.40812e-24 -0.00821325)
(0.108234 2.256e-21 -0.312134)
(0.294333 -2.33612e-21 -0.310826)
(0.487529 1.68271e-21 -0.266893)
(0.666749 -1.67558e-21 -0.21991)
(0.821863 3.24524e-23 -0.178763)
(0.953711 -1.8476e-23 -0.143426)
(1.06567 0 -0.112376)
(1.16016 7.25476e-23 -0.0843413)
(1.23844 -2.46765e-22 -0.0585831)
(1.3013 -2.76683e-23 -0.0349584)
(1.34934 -1.6242e-22 -0.0140115)
(1.38268 -2.02501e-23 0.00319494)
(1.40185 3.46232e-23 0.0150411)
(1.4107 7.54727e-24 0.0205492)
(1.4153 0 0.0201532)
(1.42056 5.77852e-23 0.015485)
(1.42962 -1.50781e-23 0.00845952)
(1.44359 -7.42202e-23 0.000490477)
(1.46236 5.10124e-23 -0.00734112)
(1.48556 -4.89215e-23 -0.0141917)
(1.51248 -1.15359e-23 -0.0196287)
(1.54186 -5.55164e-23 -0.0236221)
(1.57229 8.53905e-25 -0.0263803)
(1.6026 2.65322e-23 -0.0281324)
(1.63187 -3.52867e-23 -0.0289633)
(1.65931 -9.08766e-24 -0.0288239)
(1.68407 2.49073e-23 -0.0277437)
(1.70534 2.35057e-24 -0.0260555)
(1.72282 -2.30667e-24 -0.0241216)
(1.73998 -2.71402e-24 -0.0206615)
(0.0770137 -3.78236e-21 -0.486978)
(0.231039 4.86997e-23 -0.483953)
(0.389238 0 -0.419884)
(0.537652 0 -0.351364)
(0.66648 -2.56317e-23 -0.291379)
(0.77745 0 -0.239884)
(0.873668 0 -0.194683)
(0.957145 1.04096e-23 -0.153945)
(1.02915 -4.25979e-22 -0.116557)
(1.09057 1.85064e-22 -0.0822078)
(1.14216 -1.94344e-22 -0.0514004)
(1.18493 -1.24261e-22 -0.0253485)
(1.22065 8.71919e-23 -0.00573983)
(1.24955 2.95937e-23 0.00554885)
(1.27245 0 0.00812649)
(1.29218 2.50396e-23 0.00377105)
(1.3111 3.41324e-23 -0.00473292)
(1.33099 9.41524e-23 -0.0147987)
(1.35193 -9.23044e-23 -0.0246734)
(1.37354 1.66813e-22 -0.0332175)
(1.39511 -2.43171e-23 -0.0397277)
(1.41571 0 -0.0438894)
(1.4343 2.73701e-23 -0.0457427)
(1.44995 -5.42476e-23 -0.0455323)
(1.4621 -2.48868e-23 -0.043487)
(1.47051 0 -0.0397498)
(1.47499 -3.27786e-23 -0.0346096)
(1.47538 0 -0.0289346)
(1.4723 1.18904e-24 -0.0241523)
(1.46736 -1.1652e-24 -0.0200066)
(0.0513641 0 -0.636291)
(0.164256 2.24711e-21 -0.621181)
(0.281921 -2.21846e-21 -0.535108)
(0.395836 0 -0.448422)
(0.493018 2.91207e-23 -0.374142)
(0.576909 3.49925e-22 -0.31115)
(0.65047 -7.02633e-22 -0.256421)
(0.715268 -1.19865e-22 -0.207556)
(0.772699 5.18029e-22 -0.163123)
(0.823885 -4.87049e-22 -0.122419)
(0.869483 -4.18124e-22 -0.0857808)
(0.909919 -4.38668e-23 -0.0548851)
(0.9457 3.05697e-23 -0.0317301)
(0.977162 1.68443e-23 -0.0176013)
(1.00429 -5.68791e-23 -0.0124899)
(1.02711 -1.49327e-22 -0.0147375)
(1.04597 3.15574e-23 -0.0214968)
(1.06089 5.64185e-23 -0.0298585)
(1.0717 1.91408e-22 -0.0375893)
(1.07846 -1.17117e-22 -0.0433424)
(1.08171 5.64029e-23 -0.046545)
(1.08252 -6.12978e-23 -0.0472986)
(1.08222 0 -0.0461766)
(1.08215 0 -0.0438637)
(1.08329 4.87044e-23 -0.0407823)
(1.08605 4.31504e-23 -0.0369107)
(1.09003 4.72997e-23 -0.031984)
(1.09348 -1.41437e-23 -0.0262954)
(1.09429 0 -0.0217178)
(1.08759 9.48468e-24 -0.0203302)
(0.0295887 1.62922e-21 -0.757813)
(0.0943644 -2.94702e-22 -0.722435)
(0.16941 -5.85925e-22 -0.614397)
(0.247793 -6.35995e-22 -0.514251)
(0.310358 -4.66999e-22 -0.430175)
(0.363075 4.5286e-22 -0.359346)
(0.408546 -1.09467e-21 -0.298566)
(0.448459 1.15162e-21 -0.244862)
(0.484268 0 -0.196847)
(0.517858 7.4865e-23 -0.153788)
(0.550096 -4.9959e-22 -0.115348)
(0.580165 1.93372e-22 -0.0822041)
(0.606726 2.31096e-22 -0.0558859)
(0.628929 4.43412e-23 -0.0379052)
(0.646553 1.33383e-22 -0.0285947)
(0.659735 -1.05113e-22 -0.0264802)
(0.668991 -7.36955e-23 -0.0288748)
(0.675329 -9.18038e-23 -0.0331396)
(0.680151 3.37923e-22 -0.0375589)
(0.68493 -3.47287e-22 -0.0413741)
(0.690805 1.13483e-22 -0.0443647)
(0.698295 5.95939e-23 -0.0464903)
(0.707281 1.22988e-22 -0.0476976)
(0.717167 0 -0.0478212)
(0.726995 4.86645e-23 -0.046528)
(0.735246 -1.82563e-22 -0.0432603)
(0.740526 0 -0.0373279)
(0.743303 0 -0.0290068)
(0.740682 -2.47801e-24 -0.021345)
(0.72202 -7.08574e-24 -0.0209116)
(0.0134002 0 -0.847621)
(0.0217242 -7.46132e-24 -0.784641)
(0.0559536 -1.21634e-22 -0.656289)
(0.0982252 1.1849e-22 -0.546228)
(0.124918 -6.20893e-23 -0.455071)
(0.144246 -1.29355e-21 -0.379115)
(0.158295 1.19044e-21 -0.314203)
(0.169704 7.99742e-24 -0.257476)
(0.179299 1.30379e-21 -0.207145)
(0.189447 -7.13061e-22 -0.162484)
(0.201156 5.53955e-22 -0.123126)
(0.214768 -4.10975e-23 -0.089703)
(0.229841 6.8515e-23 -0.0635461)
(0.245411 -1.3078e-22 -0.0455732)
(0.260683 1.3187e-22 -0.0356185)
(0.275206 -5.44655e-23 -0.0324129)
(0.289036 0 -0.0340422)
(0.302627 0 -0.0385272)
(0.316595 -1.10404e-22 -0.0442039)
(0.33134 -1.20973e-22 -0.0497926)
(0.346807 0 -0.0543378)
(0.362468 0 -0.0572132)
(0.37747 1.27811e-22 -0.0580924)
(0.390804 -2.52751e-22 -0.056833)
(0.401296 -1.15441e-22 -0.0532789)
(0.407588 9.18173e-23 -0.0470568)
(0.408434 -7.82815e-23 -0.0377495)
(0.403603 -1.07196e-23 -0.0259989)
(0.392879 1.31679e-23 -0.0157938)
(0.373245 -2.59319e-24 -0.0162201)
(0.00217215 3.75979e-24 -0.900757)
(-0.0526112 -1.10446e-24 -0.805539)
(-0.0544736 1.11613e-23 -0.662426)
(-0.049579 0 -0.545804)
(-0.0583126 6.2571e-23 -0.449365)
(-0.0718421 7.8054e-23 -0.370531)
(-0.0871527 0 -0.305257)
(-0.101523 -8.88125e-23 -0.250305)
(-0.112622 -1.36036e-21 -0.203341)
(-0.11891 1.24635e-21 -0.162807)
(-0.119959 3.87613e-22 -0.12777)
(-0.115174 -3.38389e-22 -0.0982115)
(-0.105049 0 -0.0748205)
(-0.0908463 1.78036e-22 -0.0583155)
(-0.074055 -3.7029e-22 -0.0488545)
(-0.0559995 1.27364e-22 -0.0456895)
(-0.0375209 0 -0.0472843)
(-0.019004 -5.49827e-22 -0.0517506)
(-0.000507687 6.47224e-23 -0.0572877)
(0.0177127 3.82264e-22 -0.0624057)
(0.0353399 -4.06322e-22 -0.0660885)
(0.0519579 0 -0.0677547)
(0.0669739 -2.81465e-22 -0.0671125)
(0.0796217 2.62174e-22 -0.0639869)
(0.0888825 3.12049e-24 -0.0580935)
(0.0934427 1.10504e-22 -0.0488956)
(0.0918208 -7.95407e-24 -0.0360278)
(0.0827171 0 -0.0208906)
(0.0661073 7.5892e-23 -0.00879942)
(0.051422 2.10635e-23 -0.00612061)
(-0.00901608 -3.76519e-24 -0.91372)
(-0.125701 0 -0.784343)
(-0.161537 -1.11951e-23 -0.632904)
(-0.19637 -1.33624e-21 -0.513358)
(-0.238341 1.30674e-21 -0.417387)
(-0.278875 9.43993e-23 -0.341808)
(-0.315574 0 -0.281385)
(-0.346135 0 -0.232251)
(-0.369649 8.17352e-23 -0.191331)
(-0.385856 3.89791e-22 -0.156681)
(-0.394503 5.34078e-22 -0.127357)
(-0.395736 1.4125e-22 -0.103096)
(-0.390367 -1.38282e-22 -0.0840865)
(-0.3798 4.32617e-23 -0.0706008)
(-0.365729 -8.38466e-23 -0.0626689)
(-0.349707 -2.46074e-22 -0.059834)
(-0.3328 3.02599e-22 -0.0610653)
(-0.315541 1.04554e-22 -0.0648917)
(-0.298158 1.20675e-22 -0.0696928)
(-0.280839 1.33073e-22 -0.0740382)
(-0.263904 1.41408e-22 -0.0768972)
(-0.247844 0 -0.0776062)
(-0.233366 1.44266e-22 -0.0757199)
(-0.221399 0 -0.0708333)
(-0.213126 -1.23846e-22 -0.0624367)
(-0.209921 1.2148e-22 -0.0499486)
(-0.213435 4.69808e-23 -0.0333125)
(-0.225541 5.17605e-23 -0.0145691)
(-0.245807 -8.25272e-23 0.000641475)
(-0.261606 -5.37958e-23 0.00778815)
(-0.0230651 -1.95069e-21 -0.885539)
(-0.197118 3.93434e-21 -0.724139)
(-0.269548 -1.99442e-21 -0.568189)
(-0.343236 0 -0.450021)
(-0.414015 -1.44173e-21 -0.361776)
(-0.476607 1.40998e-21 -0.295268)
(-0.529495 0 -0.244274)
(-0.57244 -1.20331e-21 -0.20402)
(-0.605626 1.17664e-21 -0.171295)
(-0.629544 7.24769e-22 -0.144124)
(-0.644828 -3.00865e-22 -0.121483)
(-0.65225 1.56932e-22 -0.102992)
(-0.652875 7.15485e-23 -0.0886095)
(-0.648117 1.70588e-23 -0.0783944)
(-0.639547 4.50775e-23 -0.0723928)
(-0.628496 0 -0.0704798)
(-0.615756 9.4719e-23 -0.0720959)
(-0.601665 -3.73612e-22 -0.0761018)
(-0.58641 4.78349e-22 -0.0809611)
(-0.570354 0 -0.0851604)
(-0.554153 3.19087e-22 -0.087551)
(-0.538663 -3.1271e-22 -0.0873707)
(-0.524864 0 -0.0840628)
(-0.513852 -1.53452e-22 -0.0770979)
(-0.506773 1.5049e-22 -0.0658934)
(-0.504899 -3.32666e-22 -0.0499253)
(-0.509897 5.72233e-23 -0.0293819)
(-0.523726 1.47823e-23 -0.0066804)
(-0.543281 -1.07103e-22 0.012284)
(-0.556139 5.71987e-23 0.0227147)
(-0.036435 2.40411e-21 -0.814569)
(-0.268945 -4.45205e-24 -0.613301)
(-0.383519 -4.60291e-23 -0.462871)
(-0.49367 -3.13778e-21 -0.358509)
(-0.591271 2.97452e-21 -0.285542)
(-0.673804 0 -0.233726)
(-0.741443 0 -0.195955)
(-0.79529 -1.25472e-22 -0.167351)
(-0.836863 0 -0.144661)
(-0.867782 4.94812e-22 -0.125988)
(-0.889478 4.54374e-22 -0.110504)
(-0.903108 4.64494e-24 -0.0980042)
(-0.909795 2.20747e-22 -0.088447)
(-0.910865 -1.76869e-22 -0.0817984)
(-0.907772 -2.65468e-22 -0.0781884)
(-0.901665 1.02721e-22 -0.0778622)
(-0.893054 5.36712e-22 -0.0807005)
(-0.882033 -1.05039e-21 -0.0857713)
(-0.868789 5.01164e-22 -0.0914267)
(-0.853937 -3.21079e-22 -0.0959169)
(-0.838524 3.14554e-22 -0.0979608)
(-0.8237 0 -0.096807)
(-0.810477 1.78568e-22 -0.0919485)
(-0.799751 -1.75077e-22 -0.0828747)
(-0.792414 -1.57089e-22 -0.0690038)
(-0.789651 2.93882e-22 -0.0498573)
(-0.793422 1.31507e-22 -0.0257772)
(-0.806088 0 0.000562905)
(-0.823795 8.41239e-23 0.0234305)
(-0.834465 1.34506e-23 0.0374233)
(-0.044602 0 -0.684389)
(-0.340958 -2.90312e-21 -0.451925)
(-0.508718 2.92492e-21 -0.320877)
(-0.656239 1.74028e-21 -0.239594)
(-0.780851 -1.70313e-21 -0.189432)
(-0.881944 9.24337e-23 -0.158261)
(-0.962195 -1.40318e-22 -0.138015)
(-1.0249 -6.45851e-22 -0.123755)
(-1.07318 2.5254e-22 -0.112608)
(-1.10978 4.89102e-22 -0.103162)
(-1.13679 2.92345e-23 -0.095134)
(-1.15562 -3.60471e-23 -0.0888244)
(-1.16729 -4.03433e-23 -0.0843655)
(-1.17305 -5.01821e-22 -0.0815965)
(-1.17447 5.43245e-22 -0.080678)
(-1.17272 1.56909e-22 -0.0823092)
(-1.16802 2.52764e-22 -0.0869166)
(-1.16006 -4.41158e-22 -0.093724)
(-1.14885 -9.05291e-22 -0.100779)
(-1.13519 6.01431e-22 -0.105935)
(-1.12046 3.69465e-22 -0.107807)
(-1.10599 0 -0.105831)
(-1.09269 -1.99242e-22 -0.0997057)
(-1.08121 1.95344e-22 -0.0889583)
(-1.07231 0 -0.0728971)
(-1.06735 0 -0.0509281)
(-1.06882 3.06705e-22 -0.0234058)
(-1.0793 0 0.00685552)
(-1.09521 0 0.0341253)
(-1.10423 -3.57662e-23 0.0518569)
(-0.0549744 -3.90367e-21 -0.49042)
(-0.422418 3.87029e-21 -0.248926)
(-0.659657 0 -0.145216)
(-0.845663 0 -0.0958561)
(-0.994008 -1.61202e-21 -0.0768634)
(-1.10883 2.9143e-21 -0.0724934)
(-1.19693 -1.12651e-21 -0.0734976)
(-1.26443 0 -0.075551)
(-1.31608 0 -0.0769502)
(-1.35558 -1.7322e-23 -0.077119)
(-1.38564 -1.13501e-23 -0.0765688)
(-1.40772 3.14172e-23 -0.0764805)
(-1.42249 8.23387e-23 -0.0773533)
(-1.43106 0 -0.0786958)
(-1.43534 -1.2854e-22 -0.0804967)
(-1.43677 -3.79607e-22 -0.0841014)
(-1.43519 -9.159e-23 -0.0908272)
(-1.42949 4.52933e-22 -0.100092)
(-1.41925 1.23865e-21 -0.10933)
(-1.4055 8.61096e-23 -0.115689)
(-1.39013 -1.13125e-21 -0.117674)
(-1.37476 3.95584e-22 -0.115122)
(-1.36019 6.90746e-22 -0.108084)
(-1.34681 -4.42784e-22 -0.0960982)
(-1.33531 4.29176e-22 -0.0782229)
(-1.32736 -2.06441e-22 -0.0536148)
(-1.32599 -3.06184e-22 -0.0225691)
(-1.33399 -4.83203e-23 0.0120114)
(-1.34802 3.55764e-23 0.0440897)
(-1.35577 -4.10326e-23 0.0656116)
(-0.11325 7.07588e-21 -0.198653)
(-0.605867 -6.96108e-21 0.0762355)
(-0.916353 0 0.102103)
(-1.11652 0 0.0775643)
(-1.26021 -1.38101e-22 0.0447633)
(-1.36547 -1.32217e-21 0.0146849)
(-1.44533 2.01278e-21 -0.00939264)
(-1.50769 -7.05325e-22 -0.0274859)
(-1.55704 1.79067e-23 -0.0409759)
(-1.59518 -5.90037e-23 -0.0505277)
(-1.62499 0 -0.056925)
(-1.6478 0 -0.0626655)
(-1.66336 -8.23321e-23 -0.0690453)
(-1.67236 0 -0.0747544)
(-1.67742 4.59686e-22 -0.0790185)
(-1.68073 -3.08777e-22 -0.0841659)
(-1.68154 0 -0.0931564)
(-1.67732 0 -0.105743)
(-1.66681 8.66052e-24 -0.11818)
(-1.65153 -7.43123e-22 -0.1263)
(-1.63432 -4.63397e-23 -0.128498)
(-1.61725 4.81219e-22 -0.1254)
(-1.60086 -1.96035e-22 -0.117657)
(-1.58514 2.48595e-22 -0.104773)
(-1.57065 0 -0.0853638)
(-1.55941 -5.15784e-22 -0.0581747)
(-1.55497 0 -0.023373)
(-1.56049 0 0.0159979)
(-1.57282 1.92721e-22 0.0532856)
(-1.57965 5.27527e-23 0.078684)
(-0.227618 2.02629e-20 0.39215)
(-0.810548 1.65962e-22 0.479005)
(-1.18444 -1.36534e-20 0.360327)
(-1.39177 9.48595e-21 0.231519)
(-1.52688 -3.83928e-21 0.148451)
(-1.62075 0 0.0908772)
(-1.68913 0 0.0469403)
(-1.74129 -1.813e-24 0.0149142)
(-1.78153 1.53504e-22 -0.00921771)
(-1.8135 -4.35947e-22 -0.0268324)
(-1.83974 7.25487e-23 -0.038471)
(-1.86128 -3.3222e-22 -0.0487019)
(-1.87599 1.10193e-22 -0.0607303)
(-1.88325 0 -0.0713187)
(-1.88714 3.04085e-24 -0.0773782)
(-1.89166 3.70478e-22 -0.0828138)
(-1.89519 -3.62243e-22 -0.0938395)
(-1.89253 0 -0.110881)
(-1.88093 -6.61216e-22 -0.127958)
(-1.86284 3.4382e-22 -0.138406)
(-1.84297 1.37257e-21 -0.140563)
(-1.82402 -4.16631e-22 -0.136644)
(-1.80595 -7.58138e-22 -0.128309)
(-1.78793 -2.82153e-22 -0.114907)
(-1.77035 0 -0.094279)
(-1.75562 1.1292e-21 -0.064539)
(-1.74798 0 -0.0256682)
(-1.75106 -3.99599e-22 0.0190343)
(-1.76193 3.70946e-23 0.0620084)
(-1.76818 8.91621e-24 0.091485)
(-0.427561 -1.77706e-20 1.17619)
(-1.09627 8.08167e-22 1.09351)
(-1.5437 2.15375e-21 0.646976)
(-1.71107 4.29513e-22 0.33248)
(-1.78884 -1.13907e-21 0.229388)
(-1.8531 1.31452e-21 0.159622)
(-1.90329 0 0.0880592)
(-1.94151 1.65187e-22 0.0439202)
(-1.97221 -1.83092e-22 0.0160018)
(-1.99512 -2.00786e-23 -0.00735276)
(-2.01503 0 -0.022669)
(-2.0349 0 -0.0350835)
(-2.0487 -5.40366e-23 -0.053273)
(-2.05224 0 -0.0701258)
(-2.05269 -1.4675e-22 -0.076849)
(-2.05845 4.89476e-22 -0.0798175)
(-2.06648 -3.33351e-22 -0.0920479)
(-2.06651 0 -0.115385)
(-2.05305 0 -0.139534)
(-2.03048 -4.11674e-22 -0.152966)
(-2.00707 -9.86257e-22 -0.154219)
(-1.98651 -6.91059e-23 -0.148768)
(-1.96734 -6.58966e-22 -0.139938)
(-1.94731 0 -0.126598)
(-1.92649 3.43728e-22 -0.10522)
(-1.90794 -1.52558e-21 -0.0729775)
(-1.8969 4.88913e-22 -0.0296645)
(-1.8976 3.99248e-22 0.0210042)
(-1.90741 -2.27196e-22 0.0702907)
(-1.91341 -1.11951e-22 0.104227)
(9.98951 1.09352e-20 0.131123)
(9.97845 -1.23234e-20 0.256605)
(9.95791 -2.29504e-21 0.381591)
(9.92529 -2.35786e-21 0.509282)
(9.88355 -4.84602e-21 0.64147)
(9.83443 0 0.779659)
(9.77822 0 0.925305)
(9.71495 8.46056e-20 1.07985)
(9.64486 -7.57695e-20 1.24472)
(9.5683 1.78668e-19 1.42138)
(9.4856 -3.8903e-19 1.61131)
(9.39712 -1.25239e-20 1.8161)
(9.30323 2.04473e-19 2.03739)
(9.20434 -1.97817e-19 2.27697)
(9.10088 1.63944e-19 2.53682)
(8.99332 -2.60517e-20 2.81913)
(8.88216 2.66238e-20 3.12642)
(8.76794 -1.35813e-20 3.46162)
(8.65127 0 3.82828)
(8.53282 0 4.23073)
(8.4134 0 4.67449)
(8.29399 0 5.16673)
(8.17603 -4.49539e-19 5.71709)
(8.0617 4.9054e-19 6.33898)
(7.95487 -2.72028e-20 7.05173)
(7.86303 2.79149e-20 7.88483)
(7.80728 2.28579e-20 8.88597)
(7.84192 8.9485e-20 10.1398)
(8.51023 -1.00988e-19 11.7502)
(9.00753 2.92112e-20 14.6804)
(9.98993 5.29348e-22 0.13601)
(9.98042 1.09052e-21 0.266153)
(9.96257 -3.35347e-21 0.395723)
(9.9337 2.30066e-21 0.528019)
(9.89673 2.37767e-21 0.664856)
(9.85346 -7.52023e-20 0.80774)
(9.80421 7.45197e-20 0.95813)
(9.74908 5.09081e-21 1.11747)
(9.68838 -1.57592e-20 1.28717)
(9.62256 0 1.4687)
(9.55208 1.11012e-20 1.66351)
(9.47743 1.13875e-20 1.87316)
(9.39916 -1.15408e-20 2.09926)
(9.31787 1.19552e-20 2.34357)
(9.23424 1.22305e-20 2.608)
(9.14909 0 2.89469)
(9.06331 -4.04296e-19 3.20606)
(8.97801 6.89098e-22 3.54496)
(8.89452 4.18779e-19 3.91473)
(8.81452 0 4.3195)
(8.74026 6.56571e-21 4.76438)
(8.67483 4.23605e-19 5.2559)
(8.62277 -4.03418e-19 5.80259)
(8.59123 -2.68893e-20 6.41576)
(8.59224 2.64135e-20 7.11062)
(8.64739 -4.84176e-20 7.9075)
(8.80031 4.22556e-20 8.83189)
(9.08067 -5.89439e-21 9.91309)
(9.80673 0 11.0989)
(10.4728 6.84686e-20 12.2623)
(9.99039 -2.7309e-24 0.14043)