/*--------------------------------*- C++ -*----------------------------------*\
| =========                 |                                                 |
| \\      /  F ield         | OpenFOAM: The Open Source CFD Toolbox           |
|  \\    /   O peration     | Version:  dev                                   |
|   \\  /    A nd           | Web:      www.OpenFOAM.org                      |
|    \\/     M anipulation  |                                                 |
\*---------------------------------------------------------------------------*/
FoamFile
{
    version     2.0;
    format      ascii;
    class       volScalarField;
    location    "0.4";
    object      p;
}
// * * * * * * * * * * * * * * * * * * * * * * * * * * * * * * * * * * * * * //

dimensions      [0 2 -2 0 0 0 0];

internalField   nonuniform List<scalar> 
465
(
70.6401
70.6775
69.9718
69.9992
70.1044
69.2646
69.2816
69.363
69.5571
68.5196
68.526
68.583
68.7405
68.9678
67.7386
67.7341
67.7664
67.8865
68.0651
68.2664
66.9235
66.9082
66.9153
66.9978
67.1272
67.2682
67.4075
66.0769
66.0507
66.0327
66.0775
66.1579
66.2387
66.3067
66.3555
66.3745
65.2016
65.1646
65.1218
65.1292
65.161
65.1825
65.1806
65.1487
65.0765
64.9499
64.301
64.2535
64.1862
64.1568
64.1411
64.1047
64.0347
63.9247
63.7648
63.5413
63.2381
62.8373
63.3789
63.321
63.2301
63.1649
63.103
63.0105
62.875
62.6903
62.4471
62.132
61.7299
61.2235
60.5939
59.8199
62.4393
62.3716
62.2578
62.1582
62.0518
61.9057
61.7077
61.4524
61.1308
60.7305
60.2372
59.6348
58.906
58.0314
56.99
61.4868
61.4099
61.2743
61.1417
60.993
60.7961
60.5394
60.2179
59.8236
59.345
58.7688
58.0806
57.2644
56.3033
55.1788
53.8715
52.361
60.5265
60.4408
60.2847
60.121
59.9325
59.688
59.3765
58.994
58.5331
57.9835
57.3332
56.5693
55.6778
54.644
53.4521
52.0861
50.5293
48.7655
46.7791
59.5636
59.4697
59.2945
59.1018
58.8762
58.5876
58.2258
57.7874
57.2664
56.6534
55.9379
55.1086
54.1536
53.0603
51.8159
50.4071
48.8212
47.0458
45.0698
42.8838
40.4806
58.6038
58.5024
58.3096
58.0901
57.8302
57.5013
57.0937
56.6052
56.0305
55.3618
54.5899
53.7054
52.698
51.5578
50.2741
48.837
47.2366
45.4643
43.5128
41.3763
39.0517
57.6528
57.5447
57.3359
57.092
56.8009
56.4355
55.987
55.4538
54.8321
54.1152
53.2956
52.3652
51.3162
50.1403
48.8295
47.3764
45.7741
44.0169
42.1004
40.0223
56.717
56.6029
56.3797
56.1137
55.7947
55.3967
54.9119
54.3397
53.6774
52.9196
52.0604
51.0933
50.0121
48.8108
47.4835
46.025
44.4309
42.698
40.8246
38.8104
55.8027
55.6833
55.4474
55.1618
54.818
54.3913
53.8748
53.2691
52.5723
51.7806
50.8893
49.8936
48.789
47.5711
46.2363
44.7811
43.2033
41.5018
39.6767
37.7298
54.9166
54.7926
54.5457
54.2428
53.8772
53.4255
52.882
52.2478
51.5224
50.7032
49.7867
48.7697
47.6492
46.4225
45.0875
43.6426
42.0873
40.422
38.6485
36.7698
54.0655
53.9376
53.6811
53.3633
52.9788
52.5059
51.9394
51.2815
50.5329
49.6919
48.7564
47.7245
46.5946
45.3654
44.0362
42.6069
41.0784
39.4524
37.7317
35.9205
53.2563
53.1252
52.8606
52.5299
52.1293
51.6384
51.0529
50.3759
49.6087
48.7511
47.802
46.7607
45.6266
44.4
43.0811
41.6712
40.1722
38.5868
36.9188
35.1729
52.4963
52.3624
52.0911
51.7494
51.3353
50.8294
50.2284
49.536
48.7547
47.8849
46.9267
45.8803
44.7465
43.5262
42.2209
40.8328
39.3646
37.8198
36.2029
34.519
51.7927
51.6566
51.3796
51.0286
50.6031
50.0849
49.4716
48.7673
47.9753
47.097
46.1334
45.0856
43.9551
42.7439
41.4542
40.0889
38.6516
37.1463
35.5778
33.9515
51.1532
51.0152
50.7333
50.3744
49.9393
49.4112
48.7881
48.0748
47.2752
46.3916
45.4255
44.3789
43.254
42.0535
40.7804
39.4381
38.0306
36.5624
35.0387
33.465
50.5858
50.446
50.1595
49.7935
49.3504
48.8143
48.1836
47.4636
46.6588
45.7719
44.8054
43.7617
42.6437
41.4546
40.1979
38.8775
37.4978
36.0636
34.5802
33.0533
50.0987
49.9569
49.6655
49.2929
48.8431
48.3008
47.6645
46.9399
46.1318
45.2437
44.2782
43.2386
42.128
40.9502
39.709
38.4087
37.054
35.6499
34.2017
32.7151
49.7015
49.5564
49.2585
48.8789
48.4229
47.8752
47.2344
46.5062
45.696
44.8075
43.8438
42.8085
41.7051
40.5376
39.3102
38.0274
36.6941
35.3154
33.8966
32.4436
49.4053
49.2529
48.9466
48.5614
48.1014
47.5501
46.906
46.1754
45.364
44.4757
43.514
42.4825
41.3853
40.2264
39.0103
37.7417
36.4255
35.0669
33.6714
32.2446
49.2269
49.0478
48.7244
48.3337
47.8716
47.3183
46.6724
45.9408
45.1293
44.242
43.2825
42.2546
41.1623
40.01
38.8023
37.5439
36.2399
34.8955
33.5161
32.1074
49.2066
48.9754
48.6273
48.2293
47.7636
47.207
46.5584
45.8252
45.0132
44.1262
43.1679
42.1422
41.053
39.905
38.7025
37.4505
36.1539
34.818
33.4482
32.0502
)
;

boundaryField
{
    inlet
    {
        type            zeroGradient;
    }
    outlet
    {
        type            fixedValue;
        value           nonuniform 0();
    }
    flap
    {
        type            zeroGradient;
    }
    upperWall
    {
        type            zeroGradient;
    }
    lowerWall
    {
        type            zeroGradient;
    }
    frontAndBack
    {
        type            empty;
    }
    procBoundary0to1
    {
        type            processor;
        value           nonuniform List<scalar> 
18
(
37.8562
36.5386
37.7821
37.7821
36.6576
35.6646
34.7906
34.0241
33.355
32.7742
32.2737
31.8476
31.489
31.1964
30.9624
30.7926
30.6753
30.6297
)
;
    }
    procBoundary0to3
    {
        type            processor;
        value           nonuniform List<scalar> 
34
(
71.2643
71.3113
70.8056
70.8056
70.3341
70.3341
69.8325
69.8325
69.2293
69.2293
68.4776
68.4776
67.5387
67.5387
67.6514
66.3494
66.3494
64.7526
64.7526
64.4659
62.3184
62.3184
61.6589
58.8779
58.8779
55.759
55.759
54.3139
50.6264
50.6264
48.647
44.5558
44.5558
42.0835
)
;
    }
}


// ************************************************************************* //
