/*--------------------------------*- C++ -*----------------------------------*\
| =========                 |                                                 |
| \\      /  F ield         | OpenFOAM: The Open Source CFD Toolbox           |
|  \\    /   O peration     | Version:  dev                                   |
|   \\  /    A nd           | Web:      www.OpenFOAM.org                      |
|    \\/     M anipulation  |                                                 |
\*---------------------------------------------------------------------------*/
FoamFile
{
    version     2.0;
    format      ascii;
    class       volVectorField;
    location    "2.59";
    object      cellDisplacement;
}
// * * * * * * * * * * * * * * * * * * * * * * * * * * * * * * * * * * * * * //

dimensions      [0 1 0 0 0 0 0];

internalField   nonuniform List<vector> 
2790
(
(0.0109544 0 -4.29661e-05)
(0.0312569 0 -0.000122934)
(0.0485448 0 -0.00019272)
(0.0630688 0 -0.000254236)
(0.0751163 0 -0.000308358)
(0.0849503 0 -0.000356331)
(0.0927927 0 -0.00039888)
(0.0988348 0 -0.000436444)
(0.103245 0 -0.000468757)
(0.106173 0 -0.00049583)
(0.107748 0 -0.000517392)
(0.108083 0 -0.000532937)
(0.107278 0 -0.000541753)
(0.105424 0 -0.000542939)
(0.102603 0 -0.000535527)
(0.0988965 0 -0.000519313)
(0.0943731 0 -0.000490496)
(0.0890999 0 -0.000448272)
(0.0831462 0 -0.000390666)
(0.0765837 0 -0.000315321)
(0.0694891 0 -0.000219593)
(0.0619473 0 -0.000100575)
(0.0540558 0 4.47762e-05)
(0.0459254 0 0.000219794)
(0.0376857 0 0.000428036)
(0.0295265 0 0.000674611)
(0.0216964 0 0.000963209)
(0.0145582 0 0.00129697)
(0.00869866 0 0.00167032)
(0.00535577 0 0.00202701)
(0.0109693 0 -0.00012905)
(0.0313016 0 -0.000369265)
(0.0486209 0 -0.000578925)
(0.0631745 0 -0.000763972)
(0.0752509 0 -0.000926715)
(0.0851183 0 -0.0010711)
(0.0929984 0 -0.00119928)
(0.099082 0 -0.00131273)
(0.103538 0 -0.0014104)
(0.106518 0 -0.0014925)
(0.108152 0 -0.00155823)
(0.108553 0 -0.00160611)
(0.107824 0 -0.00163402)
(0.106056 0 -0.00163925)
(0.103328 0 -0.00161847)
(0.099727 0 -0.00156806)
(0.0953286 0 -0.00148407)
(0.0901959 0 -0.00136102)
(0.0844025 0 -0.0011928)
(0.0780232 0 -0.000972507)
(0.071139 0 -0.000692459)
(0.0638398 0 -0.000344163)
(0.0562356 0 8.10536e-05)
(0.048452 0 0.000592878)
(0.0406177 0 0.00120292)
(0.0329289 0 0.00192034)
(0.0256646 0 0.00275032)
(0.0192083 0 0.00369288)
(0.0142876 0 0.0047205)
(0.0122428 0 0.0056311)
(0.0109997 0 -0.000215551)
(0.0313918 0 -0.000616869)
(0.048775 0 -0.000967187)
(0.0633868 0 -0.00127464)
(0.0755202 0 -0.00154626)
(0.0854548 0 -0.00178762)
(0.0934101 0 -0.00200213)
(0.0995763 0 -0.00219296)
(0.104123 0 -0.00235725)
(0.107206 0 -0.00249609)
(0.108956 0 -0.00260822)
(0.109489 0 -0.00269122)
(0.10891 0 -0.00274175)
(0.10731 0 -0.0027554)
(0.104775 0 -0.00272673)
(0.101389 0 -0.00264862)
(0.0972328 0 -0.00251777)
(0.0923786 0 -0.00232436)
(0.0869027 0 -0.00205858)
(0.0808858 0 -0.00170962)
(0.0744155 0 -0.00126559)
(0.0675864 0 -0.00071312)
(0.0605325 0 -4.01444e-05)
(0.0533949 0 0.000767988)
(0.0463495 0 0.00172497)
(0.0396252 0 0.00283746)
(0.0335278 0 0.00410456)
(0.0284222 0 0.00551253)
(0.0250448 0 0.00697239)
(0.0251278 0 0.00811984)
(0.0110455 0 -0.000302138)
(0.0315261 0 -0.000864778)
(0.0489904 0 -0.0013559)
(0.0636898 0 -0.00178633)
(0.0759207 0 -0.00216782)
(0.0859562 0 -0.00250714)
(0.0940246 0 -0.00280895)
(0.100311 0 -0.00307541)
(0.10499 0 -0.00330761)
(0.108226 0 -0.00350549)
(0.110148 0 -0.00366711)
(0.110877 0 -0.00378934)
(0.110517 0 -0.0038678)
(0.109167 0 -0.00389678)
(0.106916 0 -0.00386932)
(0.103851 0 -0.00377793)
(0.100058 0 -0.0036146)
(0.0956176 0 -0.00336825)
(0.0906136 0 -0.00302654)
(0.0851363 0 -0.00257599)
(0.0792873 0 -0.00200231)
(0.0731718 0 -0.00128935)
(0.0669231 0 -0.00042104)
(0.0607186 0 0.000615344)
(0.0547558 0 0.0018317)
(0.0493597 0 0.00322485)
(0.0448939 0 0.00477333)
(0.0418097 0 0.00641811)
(0.0406136 0 0.00802554)
(0.0433448 0 0.00905057)
(0.0111057 0 -0.000388323)
(0.0317029 0 -0.00111161)
(0.0492791 0 -0.00174338)
(0.064095 0 -0.00229888)
(0.0764496 0 -0.00279115)
(0.0866172 0 -0.00322966)
(0.0948274 0 -0.0036202)
(0.101273 0 -0.00396452)
(0.106135 0 -0.0042678)
(0.109573 0 -0.00452852)
(0.111723 0 -0.00474444)
(0.112708 0 -0.00491198)
(0.112639 0 -0.0050261)
(0.111617 0 -0.00508006)
(0.109736 0 -0.00506556)
(0.107093 0 -0.00497501)
(0.103776 0 -0.00479778)
(0.0998775 0 -0.00452158)
(0.0954896 0 -0.00413255)
(0.0907131 0 -0.00361566)
(0.0856567 0 -0.0029547)
(0.0804756 0 -0.00213786)
(0.0753021 0 -0.0011476)
(0.0703407 0 2.43169e-05)
(0.0658134 0 0.00138472)
(0.062041 0 0.00291752)
(0.0595238 0 0.00456111)
(0.0588755 0 0.00619175)
(0.0605664 0 0.0076331)
(0.066158 0 0.00821425)
(0.0111795 0 -0.000474032)
(0.0319204 0 -0.00135721)
(0.0496375 0 -0.00212928)
(0.0645963 0 -0.00280975)
(0.0770996 0 -0.00341303)
(0.0874289 0 -0.0039516)
(0.0958157 0 -0.00443279)
(0.10246 0 -0.00486058)
(0.107545 0 -0.00523872)
(0.111232 0 -0.00556685)
(0.113661 0 -0.00584287)
(0.114961 0 -0.00606305)
(0.115248 0 -0.00622222)
(0.114629 0 -0.00631301)
(0.113199 0 -0.00632522)
(0.11107 0 -0.00625356)
(0.108337 0 -0.00608507)
(0.105101 0 -0.00580743)
(0.101468 0 -0.00540662)
(0.0975536 0 -0.00486805)
(0.0934858 0 -0.00417725)
(0.089411 0 -0.00332002)
(0.0855164 0 -0.00228832)
(0.0820308 0 -0.00108074)
(0.0792623 0 0.00028702)
(0.0774922 0 0.00178626)
(0.077203 0 0.00333436)
(0.0792379 0 0.00472382)
(0.0841754 0 0.00568564)
(0.092867 0 0.00554135)
(0.0112665 0 -0.000559579)
(0.0321768 0 -0.00160249)
(0.0500636 0 -0.00251505)
(0.0651886 0 -0.00331891)
(0.0778638 0 -0.00403342)
(0.0883834 0 -0.00467319)
(0.096979 0 -0.00524698)
(0.103857 0 -0.00576035)
(0.109201 0 -0.006217)
(0.113178 0 -0.0066174)
(0.115934 0 -0.00695986)
(0.117601 0 -0.00724087)
(0.118305 0 -0.00745587)
(0.118159 0 -0.00759784)
(0.11727 0 -0.00765831)
(0.115744 0 -0.00762699)
(0.113689 0 -0.00749285)
(0.111225 0 -0.00724596)
(0.108469 0 -0.00687298)
(0.105542 0 -0.00635925)
(0.10263 0 -0.0057009)
(0.0998647 0 -0.00488272)
(0.0974648 0 -0.00390513)
(0.0956815 0 -0.00277662)
(0.0948352 0 -0.00152883)
(0.0953797 0 -0.000239644)
(0.0977167 0 0.000993086)
(0.10254 0 0.00193249)
(0.110801 0 0.00216201)
(0.122859 0 0.00104733)
(0.0113662 0 -0.000644848)
(0.0324692 0 -0.00184709)
(0.050538 0 -0.00289958)
(0.0658542 0 -0.00382733)
(0.0787376 0 -0.00465473)
(0.0894765 0 -0.00539753)
(0.0983114 0 -0.00606646)
(0.105455 0 -0.00666854)
(0.111095 0 -0.00720812)
(0.115403 0 -0.00768655)
(0.118529 0 -0.00810281)
(0.120613 0 -0.00845365)
(0.121789 0 -0.00873627)
(0.122176 0 -0.00894409)
(0.121898 0 -0.00907115)
(0.121053 0 -0.00910296)
(0.11976 0 -0.00903034)
(0.118169 0 -0.00884984)
(0.116409 0 -0.00854979)
(0.114618 0 -0.00811929)
(0.11297 0 -0.00755349)
(0.11166 0 -0.00685206)
(0.110927 0 -0.00602537)
(0.111078 0 -0.0051023)
(0.112407 0 -0.00412338)
(0.115386 0 -0.00319131)
(0.120613 0 -0.00248333)
(0.128447 0 -0.0022127)
(0.140136 0 -0.00292707)
(0.155609 0 -0.00519921)
(0.0114767 0 -0.000729273)
(0.032794 0 -0.00208947)
(0.0510692 0 -0.0032814)
(0.0666007 0 -0.00433482)
(0.0797137 0 -0.00527613)
(0.0906973 0 -0.0061237)
(0.0997992 0 -0.00689026)
(0.107237 0 -0.00758439)
(0.113206 0 -0.00821145)
(0.117881 0 -0.00877389)
(0.121418 0 -0.00927168)
(0.123961 0 -0.00970133)
(0.125656 0 -0.0100638)
(0.126628 0 -0.010352)
(0.127006 0 -0.0105604)
(0.126911 0 -0.0106799)
(0.126472 0 -0.0107033)
(0.125839 0 -0.0106262)
(0.125162 0 -0.0104427)
(0.124609 0 -0.0101499)
(0.124365 0 -0.00974832)
(0.12465 0 -0.00924806)
(0.125735 0 -0.00867193)
(0.127936 0 -0.0080636)
(0.131658 0 -0.00750412)
(0.137261 0 -0.00709425)
(0.145467 0 -0.00707676)
(0.156632 0 -0.0076959)
(0.171807 0 -0.00952879)
(0.190595 0 -0.0130824)
(0.0115969 0 -0.000812718)
(0.0331482 0 -0.0023293)
(0.051651 0 -0.00365984)
(0.0674172 0 -0.00483832)
(0.0807789 0 -0.00589383)
(0.0920289 0 -0.00684728)
(0.101421 0 -0.00771347)
(0.10918 0 -0.00850262)
(0.115505 0 -0.0092214)
(0.120576 0 -0.00987363)
(0.124559 0 -0.0104612)
(0.12761 0 -0.0109841)
(0.12987 0 -0.0114396)
(0.131471 0 -0.0118233)
(0.132558 0 -0.0121334)
(0.133266 0 -0.0123642)
(0.133737 0 -0.0125118)
(0.13413 0 -0.0125749)
(0.134612 0 -0.0125532)
(0.135378 0 -0.0124527)
(0.136623 0 -0.0122803)
(0.138604 0 -0.0120605)
(0.141643 0 -0.0118377)
(0.146045 0 -0.0116647)
(0.152254 0 -0.0116497)
(0.160764 0 -0.0119455)
(0.172064 0 -0.0127746)
(0.186845 0 -0.0144956)
(0.205375 0 -0.0175487)
(0.227259 0 -0.0224398)
(0.0117266 0 -0.000895434)
(0.0335307 0 -0.00256729)
(0.0522804 0 -0.00403596)
(0.0682998 0 -0.00533948)
(0.0819289 0 -0.00650993)
(0.093466 0 -0.0075708)
(0.103171 0 -0.00853902)
(0.111273 0 -0.00942656)
(0.117979 0 -0.0102416)
(0.123474 0 -0.0109894)
(0.127936 0 -0.011675)
(0.131527 0 -0.0123008)
(0.134381 0 -0.012861)
(0.136644 0 -0.0133543)
(0.138481 0 -0.0137853)
(0.140035 0 -0.014151)
(0.141461 0 -0.0144515)
(0.142928 0 -0.0146894)
(0.144612 0 -0.0148694)
(0.146766 0 -0.0150159)
(0.14957 0 -0.0151377)
(0.153325 0 -0.0152765)
(0.158356 0 -0.0154878)
(0.165071 0 -0.0158636)
(0.173864 0 -0.0165147)
(0.185376 0 -0.0176568)
(0.199931 0 -0.0194902)
(0.218396 0 -0.0224598)
(0.240267 0 -0.026831)
(0.264965 0 -0.0330441)
(0.0118647 0 -0.000977225)
(0.033938 0 -0.00280285)
(0.052951 0 -0.00440883)
(0.0692399 0 -0.00583711)
(0.0831528 0 -0.00712297)
(0.0949944 0 -0.00829252)
(0.105031 0 -0.00936491)
(0.113497 0 -0.0103539)
(0.120603 0 -0.0112693)
(0.126543 0 -0.0121175)
(0.131504 0 -0.0129077)
(0.135645 0 -0.013641)
(0.13912 0 -0.0143177)
(0.142089 0 -0.0149402)
(0.144705 0 -0.0155102)
(0.147133 0 -0.0160322)
(0.149543 0 -0.0165116)
(0.152116 0 -0.0169573)
(0.155055 0 -0.0173839)
(0.158593 0 -0.0178159)
(0.162971 0 -0.0182839)
(0.168538 0 -0.0188511)
(0.175607 0 -0.019581)
(0.184615 0 -0.0205871)
(0.196077 0 -0.0220274)
(0.210497 0 -0.0241025)
(0.22844 0 -0.0270918)
(0.250454 0 -0.0313811)
(0.275736 0 -0.0371468)
(0.302953 0 -0.0446066)
(0.0120086 0 -0.00105743)
(0.0343638 0 -0.00303418)
(0.053653 0 -0.00477557)
(0.0702239 0 -0.00632744)
(0.0844334 0 -0.00772831)
(0.096593 0 -0.009007)
(0.106975 0 -0.0101849)
(0.115819 0 -0.0112778)
(0.123341 0 -0.0122974)
(0.129752 0 -0.0132549)
(0.135232 0 -0.0141567)
(0.139943 0 -0.0150063)
(0.144059 0 -0.0158104)
(0.147749 0 -0.0165747)
(0.151151 0 -0.0172973)
(0.154466 0 -0.0179946)
(0.15787 0 -0.0186758)
(0.161556 0 -0.0193562)
(0.165746 0 -0.0200602)
(0.170672 0 -0.0208188)
(0.17663 0 -0.0216834)
(0.183943 0 -0.0227203)
(0.193022 0 -0.0240334)
(0.204272 0 -0.0257403)
(0.218312 0 -0.028048)
(0.235576 0 -0.0311534)
(0.256859 0 -0.0354121)
(0.282186 0 -0.0410578)
(0.310701 0 -0.0482049)
(0.340201 0 -0.0568198)
(0.0121582 0 -0.00113627)
(0.0348065 0 -0.00326181)
(0.0543835 0 -0.00513707)
(0.071248 0 -0.00681167)
(0.0857659 0 -0.00832741)
(0.0982557 0 -0.00971586)
(0.108995 0 -0.0110008)
(0.118231 0 -0.0122)
(0.126186 0 -0.0133276)
(0.13308 0 -0.0143988)
(0.139082 0 -0.0154167)
(0.144369 0 -0.0163888)
(0.149133 0 -0.0173286)
(0.153533 0 -0.0182408)
(0.15774 0 -0.0191337)
(0.161945 0 -0.0200227)
(0.166333 0 -0.0209235)
(0.171109 0 -0.0218584)
(0.176517 0 -0.0228632)
(0.182789 0 -0.0239747)
(0.190273 0 -0.0252688)
(0.199272 0 -0.0268175)
(0.210201 0 -0.0287383)
(0.223576 0 -0.0311984)
(0.239892 0 -0.0343885)
(0.259781 0 -0.0385829)
(0.283928 0 -0.0441269)
(0.312074 0 -0.0511457)
(0.343349 0 -0.059642)
(0.375097 0 -0.069434)
(0.0123122 0 -0.0012135)
(0.0352623 0 -0.00348506)
(0.0551362 0 -0.00549219)
(0.0723034 0 -0.00728824)
(0.0871384 0 -0.00891826)
(0.0999674 0 -0.0104166)
(0.111074 0 -0.0118095)
(0.120708 0 -0.0131166)
(0.1291 0 -0.0143534)
(0.136472 0 -0.0155377)
(0.143 0 -0.0166762)
(0.148879 0 -0.0177808)
(0.154292 0 -0.0188639)
(0.159404 0 -0.0199339)
(0.164401 0 -0.0210053)
(0.169471 0 -0.022096)
(0.174815 0 -0.0232288)
(0.18064 0 -0.0244312)
(0.187222 0 -0.0257549)
(0.194779 0 -0.02724)
(0.203641 0 -0.0289656)
(0.214184 0 -0.0310388)
(0.226772 0 -0.0335768)
(0.241958 0 -0.0367785)
(0.260154 0 -0.0408348)
(0.282091 0 -0.0460827)
(0.308066 0 -0.0527884)
(0.337876 0 -0.0611339)
(0.370488 0 -0.0709929)
(0.404709 0 -0.0824826)
(0.00720606 0 -0.00263893)
(0.015805 0 -0.0030933)
(0.0342726 0 -0.00374837)
(0.0629797 0 -0.00453321)
(0.0991772 0 -0.0052869)
(0.137588 0 -0.00587284)
(0.173098 0 -0.00624048)
(0.202945 0 -0.00636279)
(0.226457 0 -0.00631949)
(0.244291 0 -0.00616546)
(0.257329 0 -0.00588689)
(0.266365 0 -0.00557917)
(0.272072 0 -0.00524574)
(0.274922 0 -0.00489791)
(0.27526 0 -0.00454332)
(0.273319 0 -0.00420172)
(0.269244 0 -0.00385964)
(0.263131 0 -0.00352208)
(0.254999 0 -0.00321205)
(0.244828 0 -0.0029189)
(0.232589 0 -0.00263891)
(0.218231 0 -0.0023691)
(0.20169 0 -0.00210647)
(0.182893 0 -0.00184791)
(0.161757 0 -0.00159006)
(0.138195 0 -0.0013293)
(0.112118 0 -0.00106164)
(0.083437 0 -0.000782586)
(0.0520731 0 -0.000487041)
(0.0178492 0 -0.000167981)
(0.0130865 0 -0.00804638)
(0.0224463 0 -0.00940939)
(0.0416368 0 -0.0113859)
(0.0705349 0 -0.0136608)
(0.106365 0 -0.0158532)
(0.143898 0 -0.0175114)
(0.17829 0 -0.0185032)
(0.207053 0 -0.0188256)
(0.229662 0 -0.0186293)
(0.246773 0 -0.0181222)
(0.259258 0 -0.0173238)
(0.26789 0 -0.016418)
(0.273285 0 -0.0154382)
(0.275895 0 -0.0144183)
(0.276047 0 -0.0133744)
(0.273967 0 -0.0123787)
(0.269785 0 -0.0113753)
(0.263583 0 -0.0104103)
(0.255375 0 -0.00950616)
(0.245145 0 -0.00864722)
(0.232856 0 -0.00782453)
(0.218458 0 -0.00702988)
(0.201883 0 -0.00625483)
(0.183057 0 -0.00549035)
(0.161896 0 -0.00472674)
(0.138311 0 -0.00395339)
(0.112213 0 -0.00315859)
(0.0835115 0 -0.00232908)
(0.0521239 0 -0.00144985)
(0.0178691 0 -0.000500126)
(0.0242852 0 -0.013773)
(0.0353167 0 -0.0161513)
(0.0557023 0 -0.0194008)
(0.0849347 0 -0.0230523)
(0.119998 0 -0.0264318)
(0.155798 0 -0.0289133)
(0.188075 0 -0.0302966)
(0.214813 0 -0.0306936)
(0.235723 0 -0.0302803)
(0.251504 0 -0.029369)
(0.262961 0 -0.0280746)
(0.270817 0 -0.0266035)
(0.275613 0 -0.0250192)
(0.277763 0 -0.0233771)
(0.277562 0 -0.0217134)
(0.275208 0 -0.0200918)
(0.270815 0 -0.018498)
(0.264439 0 -0.0169764)
(0.256089 0 -0.0155289)
(0.245743 0 -0.0141455)
(0.23336 0 -0.0128152)
(0.218883 0 -0.011526)
(0.202242 0 -0.010265)
(0.183361 0 -0.00901786)
(0.162151 0 -0.00776924)
(0.138524 0 -0.00650213)
(0.112387 0 -0.00519759)
(0.0836452 0 -0.00383418)
(0.0522139 0 -0.00238749)
(0.0179036 0 -0.000823656)
(0.0404109 0 -0.0201033)
(0.0536617 0 -0.0235587)
(0.0754694 0 -0.0280022)
(0.105087 0 -0.0328727)
(0.138929 0 -0.0371453)
(0.172269 0 -0.0401175)
(0.201622 0 -0.0416312)
(0.225578 0 -0.0418863)
(0.244186 0 -0.0411967)
(0.258142 0 -0.0398683)
(0.268196 0 -0.0381034)
(0.274972 0 -0.0360998)
(0.278927 0 -0.0339536)
(0.280425 0 -0.0317344)
(0.27973 0 -0.029523)
(0.276985 0 -0.0273396)
(0.272285 0 -0.0252278)
(0.26566 0 -0.0232)
(0.257106 0 -0.0212573)
(0.246593 0 -0.0193913)
(0.234073 0 -0.0175899)
(0.219483 0 -0.015838)
(0.202747 0 -0.0141191)
(0.183785 0 -0.0124143)
(0.162506 0 -0.0107033)
(0.138818 0 -0.00896316)
(0.112624 0 -0.00716841)
(0.0838256 0 -0.00528999)
(0.0523331 0 -0.00329479)
(0.0179482 0 -0.00113668)
(0.0609037 0 -0.027251)
(0.076599 0 -0.031777)
(0.100037 0 -0.0373723)
(0.129819 0 -0.0431798)
(0.1619 0 -0.047988)
(0.192094 0 -0.0510875)
(0.217911 0 -0.0524644)
(0.238596 0 -0.0524094)
(0.254502 0 -0.0513424)
(0.266293 0 -0.0495686)
(0.27468 0 -0.0473701)
(0.280133 0 -0.0448709)
(0.283055 0 -0.0422058)
(0.28376 0 -0.0394792)
(0.28245 0 -0.0367739)
(0.279224 0 -0.0341192)
(0.274136 0 -0.0315443)
(0.267196 0 -0.0290615)
(0.258385 0 -0.0266711)
(0.247661 0 -0.0243651)
(0.234966 0 -0.0221299)
(0.22023 0 -0.0199485)
(0.203374 0 -0.0178012)
(0.184309 0 -0.0156653)
(0.162942 0 -0.0135161)
(0.139176 0 -0.0113255)
(0.11291 0 -0.00906196)
(0.0840409 0 -0.00668956)
(0.0524734 0 -0.00416724)
(0.0179999 0 -0.00143756)
(0.0852396 0 -0.0353645)
(0.103467 0 -0.0409512)
(0.128602 0 -0.047605)
(0.157995 0 -0.0539772)
(0.187603 0 -0.0588599)
(0.214112 0 -0.0617228)
(0.236012 0 -0.0627154)
(0.253175 0 -0.0622417)
(0.266133 0 -0.0607312)
(0.275571 0 -0.0585113)
(0.282084 0 -0.0558562)
(0.286046 0 -0.0528913)
(0.287819 0 -0.049774)
(0.287638 0 -0.0466175)
(0.285626 0 -0.0434867)
(0.28184 0 -0.0404174)
(0.2763 0 -0.0374339)
(0.268992 0 -0.0345467)
(0.259878 0 -0.0317555)
(0.248905 0 -0.0290516)
(0.236004 0 -0.0264205)
(0.221096 0 -0.0238435)
(0.204096 0 -0.0212981)
(0.18491 0 -0.0187589)
(0.163439 0 -0.0161969)
(0.139581 0 -0.0135797)
(0.11323 0 -0.0108704)
(0.0842802 0 -0.0080269)
(0.0526273 0 -0.00500094)
(0.0180559 0 -0.00172491)
(0.112939 0 -0.0445183)
(0.133683 0 -0.0511325)
(0.160204 0 -0.0586138)
(0.188483 0 -0.0651278)
(0.214949 0 -0.069652)
(0.237337 0 -0.0719464)
(0.255099 0 -0.0723459)
(0.268605 0 -0.0713282)
(0.278516 0 -0.0693136)
(0.285526 0 -0.0666565)
(0.29005 0 -0.0635435)
(0.292467 0 -0.0601666)
(0.293045 0 -0.0566707)
(0.291916 0 -0.0531465)
(0.289144 0 -0.0496532)
(0.284745 0 -0.0462267)
(0.278706 0 -0.0428882)
(0.270988 0 -0.0396463)
(0.261537 0 -0.0365)
(0.250284 0 -0.0334398)
(0.237151 0 -0.0304506)
(0.22205 0 -0.0275119)
(0.204888 0 -0.0245995)
(0.185565 0 -0.0216852)
(0.163977 0 -0.0187369)
(0.140016 0 -0.0157181)
(0.113573 0 -0.0125873)
(0.0845328 0 -0.00929699)
(0.052788 0 -0.00579265)
(0.0181136 0 -0.00199756)
(0.143572 0 -0.0547191)
(0.166651 0 -0.0622601)
(0.193848 0 -0.0701851)
(0.220221 0 -0.0763973)
(0.242849 0 -0.0801411)
(0.260812 0 -0.0815922)
(0.274363 0 -0.0812416)
(0.284226 0 -0.0796003)
(0.291139 0 -0.0770638)
(0.295695 0 -0.0739421)
(0.298275 0 -0.0704331)
(0.299179 0 -0.0667146)
(0.29855 0 -0.0629005)
(0.29645 0 -0.0590693)
(0.292889 0 -0.0552734)
(0.287846 0 -0.0515453)
(0.281277 0 -0.0479036)
(0.273122 0 -0.0443554)
(0.263309 0 -0.0408983)
(0.251756 0 -0.0375227)
(0.238372 0 -0.0342123)
(0.223062 0 -0.0309459)
(0.205724 0 -0.0276974)
(0.186252 0 -0.0244367)
(0.164537 0 -0.0211289)
(0.140466 0 -0.0177343)
(0.113923 0 -0.0142073)
(0.0847891 0 -0.0104957)
(0.0529493 0 -0.00653972)
(0.0181709 0 -0.00225456)
(0.176746 0 -0.0659056)
(0.201792 0 -0.0741832)
(0.228666 0 -0.082057)
(0.25207 0 -0.0874397)
(0.270297 0 -0.0900608)
(0.283679 0 -0.0904712)
(0.293083 0 -0.0892752)
(0.299437 0 -0.0869695)
(0.303496 0 -0.0839246)
(0.305742 0 -0.0803813)
(0.306515 0 -0.0765453)
(0.305968 0 -0.0725454)
(0.304162 0 -0.0684734)
(0.301099 0 -0.0643944)
(0.296747 0 -0.0603527)
(0.29105 0 -0.0563766)
(0.28394 0 -0.0524816)
(0.275334 0 -0.0486731)
(0.265144 0 -0.0449481)
(0.253276 0 -0.0412962)
(0.239629 0 -0.0377009)
(0.224099 0 -0.0341399)
(0.206576 0 -0.0305862)
(0.186948 0 -0.0270078)
(0.1651 0 -0.0233677)
(0.140914 0 -0.0196235)
(0.114269 0 -0.0157264)
(0.0850395 0 -0.01162)
(0.0531052 0 -0.00724009)
(0.0182256 0 -0.00249521)
(0.212097 0 -0.077951)
(0.238501 0 -0.0866647)
(0.263698 0 -0.0938676)
(0.282965 0 -0.0978778)
(0.296385 0 -0.0991212)
(0.305177 0 -0.0983838)
(0.310621 0 -0.0963143)
(0.31374 0 -0.0933713)
(0.315214 0 -0.0898625)
(0.315421 0 -0.0859883)
(0.314543 0 -0.0818928)
(0.312645 0 -0.0776744)
(0.309724 0 -0.0734045)
(0.305735 0 -0.0691348)
(0.300612 0 -0.0649015)
(0.294271 0 -0.0607281)
(0.286621 0 -0.0566272)
(0.277562 0 -0.0526024)
(0.266991 0 -0.0486502)
(0.254804 0 -0.0447599)
(0.240888 0 -0.0409145)
(0.225132 0 -0.0370914)
(0.20742 0 -0.0332625)
(0.187632 0 -0.0293949)
(0.165649 0 -0.0254497)
(0.141347 0 -0.0213824)
(0.114599 0 -0.0171415)
(0.0852756 0 -0.0126674)
(0.0532502 0 -0.00789227)
(0.0182759 0 -0.00271897)
(0.249294 0 -0.0906881)
(0.276046 0 -0.0993656)
(0.297825 0 -0.105143)
(0.311926 0 -0.107328)
(0.320262 0 -0.107027)
(0.324615 0 -0.105128)
(0.326498 0 -0.102257)
(0.326828 0 -0.0987753)
(0.326095 0 -0.0949037)
(0.324517 0 -0.0907781)
(0.322169 0 -0.0864942)
(0.319046 0 -0.0821219)
(0.315096 0 -0.0777133)
(0.310242 0 -0.073308)
(0.304386 0 -0.0689345)
(0.297427 0 -0.0646117)
(0.289252 0 -0.0603495)
(0.279749 0 -0.0561496)
(0.268803 0 -0.0520084)
(0.256297 0 -0.0479155)
(0.242115 0 -0.0438536)
(0.226133 0 -0.0397995)
(0.208231 0 -0.0357249)
(0.188284 0 -0.0315959)
(0.166166 0 -0.0273727)
(0.141749 0 -0.0230089)
(0.114902 0 -0.0184508)
(0.0854892 0 -0.0136365)
(0.0533796 0 -0.00849528)
(0.0183201 0 -0.00292552)
(0.288005 0 -0.103918)
(0.313328 0 -0.111763)
(0.329633 0 -0.115267)
(0.337863 0 -0.115342)
(0.341085 0 -0.113471)
(0.341541 0 -0.110562)
(0.340479 0 -0.107053)
(0.33853 0 -0.103177)
(0.335961 0 -0.0990576)
(0.332865 0 -0.094771)
(0.329242 0 -0.0903746)
(0.325036 0 -0.0859135)
(0.320163 0 -0.081424)
(0.314517 0 -0.0769355)
(0.307984 0 -0.0724699)
(0.300444 0 -0.0680424)
(0.291773 0 -0.0636604)
(0.281844 0 -0.0593234)
(0.270533 0 -0.0550292)
(0.257719 0 -0.0507676)
(0.243276 0 -0.0465211)
(0.227074 0 -0.0422658)
(0.208985 0 -0.0379737)
(0.188883 0 -0.0336108)
(0.166635 0 -0.029136)
(0.142109 0 -0.0245019)
(0.115168 0 -0.0196534)
(0.0856732 0 -0.0145265)
(0.0534889 0 -0.00904864)
(0.0183567 0 -0.00311471)
(0.327638 0 -0.117305)
(0.348406 0 -0.122961)
(0.357299 0 -0.123436)
(0.359538 0 -0.121403)
(0.358436 0 -0.118256)
(0.355831 0 -0.114612)
(0.352484 0 -0.11069)
(0.348741 0 -0.10659)
(0.34469 0 -0.10235)
(0.340343 0 -0.0979989)
(0.335646 0 -0.093567)
(0.33051 0 -0.0890811)
(0.324827 0 -0.0845658)
(0.318477 0 -0.0800429)
(0.311331 0 -0.0755297)
(0.303259 0 -0.0710384)
(0.294129 0 -0.0665755)
(0.283798 0 -0.0621351)
(0.272142 0 -0.057721)
(0.259035 0 -0.0533226)
(0.244343 0 -0.0489217)
(0.22793 0 -0.0444932)
(0.209663 0 -0.0400109)
(0.189413 0 -0.0354405)
(0.167042 0 -0.0307402)
(0.142414 0 -0.0258617)
(0.115388 0 -0.0207491)
(0.0858213 0 -0.0153374)
(0.0535744 0 -0.00955231)
(0.0183845 0 -0.00328656)
(0.366265 0 -0.129896)
(0.377963 0 -0.131445)
(0.379299 0 -0.128844)
(0.376599 0 -0.125172)
(0.37235 0 -0.121251)
(0.367526 0 -0.117253)
(0.362483 0 -0.113182)
(0.357361 0 -0.109035)
(0.352166 0 -0.104806)
(0.346829 0 -0.100487)
(0.341261 0 -0.0960945)
(0.335355 0 -0.0916442)
(0.328989 0 -0.0871544)
(0.322032 0 -0.0826423)
(0.314348 0 -0.0781223)
(0.305803 0 -0.0736056)
(0.296264 0 -0.0691003)
(0.285573 0 -0.0645979)
(0.273594 0 -0.0600943)
(0.260213 0 -0.0555888)
(0.245292 0 -0.0510624)
(0.228679 0 -0.0464864)
(0.210243 0 -0.0418395)
(0.189857 0 -0.0370876)
(0.167374 0 -0.0321868)
(0.142653 0 -0.0270894)
(0.115554 0 -0.0217389)
(0.0859279 0 -0.0160696)
(0.0536329 0 -0.0100067)
(0.0184025 0 -0.00344124)
(0.397545 0 -0.138668)
(0.400598 0 -0.135485)
(0.395191 0 -0.130539)
(0.389083 0 -0.126323)
(0.382792 0 -0.122388)
(0.376547 0 -0.118511)
(0.370403 0 -0.114589)
(0.364338 0 -0.110581)
(0.35832 0 -0.106479)
(0.35225 0 -0.10228)
(0.346017 0 -0.0979942)
(0.339503 0 -0.0936345)
(0.332582 0 -0.0892168)
(0.325119 0 -0.0847565)
(0.316978 0 -0.0802669)
(0.308021 0 -0.0757582)
(0.298109 0 -0.071237)
(0.287098 0 -0.0667038)
(0.274843 0 -0.0621471)
(0.261218 0 -0.0575641)
(0.246095 0 -0.0529423)
(0.229305 0 -0.0482511)
(0.210708 0 -0.0434637)
(0.190202 0 -0.0385558)
(0.16762 0 -0.0334783)
(0.142819 0 -0.0281867)
(0.115659 0 -0.022624)
(0.0859884 0 -0.0167242)
(0.0536619 0 -0.0104125)
(0.0184098 0 -0.00357902)
(0.0124705 0 -0.0012898)
(0.0357327 0 -0.00370604)
(0.0559144 0 -0.00584441)
(0.0733951 0 -0.00776188)
(0.0885581 0 -0.00950675)
(0.101738 0 -0.0111162)
(0.113223 0 -0.0126192)
(0.123266 0 -0.014037)
(0.132113 0 -0.0153899)
(0.139979 0 -0.0166933)
(0.147048 0 -0.017959)
(0.153521 0 -0.0192017)
(0.159582 0 -0.020435)
(0.165402 0 -0.0216711)
(0.171178 0 -0.0229303)
(0.177103 0 -0.0242345)
(0.183377 0 -0.0256113)
(0.190226 0 -0.027098)
(0.197895 0 -0.0287439)
(0.206637 0 -0.0306083)
(0.216769 0 -0.0327768)
(0.228628 0 -0.0353567)
(0.242644 0 -0.0385038)
(0.259185 0 -0.0423816)
(0.27873 0 -0.0472339)
(0.301748 0 -0.0533673)
(0.328144 0 -0.0610056)
(0.357464 0 -0.0704693)
(0.388043 0 -0.0821356)
(0.416295 0 -0.096941)
(0.012635 0 -0.00136604)
(0.0362219 0 -0.00392722)
(0.0567253 0 -0.00619768)
(0.0745334 0 -0.0082379)
(0.0900379 0 -0.0100994)
(0.103582 0 -0.0118224)
(0.115463 0 -0.0134388)
(0.125937 0 -0.0149725)
(0.13525 0 -0.0164456)
(0.14361 0 -0.0178713)
(0.151225 0 -0.0192696)
(0.158297 0 -0.0206567)
(0.16501 0 -0.0220482)
(0.171535 0 -0.023459)
(0.178076 0 -0.024914)
(0.184821 0 -0.0264376)
(0.191989 0 -0.0280665)
(0.199797 0 -0.0298418)
(0.208459 0 -0.031811)
(0.21825 0 -0.0340468)
(0.229485 0 -0.0366465)
(0.242426 0 -0.0397071)
(0.257478 0 -0.0433949)
(0.274859 0 -0.0478474)
(0.294977 0 -0.0533118)
(0.317866 0 -0.0599908)
(0.343056 0 -0.0680246)
(0.369466 0 -0.0774924)
(0.394422 0 -0.0879909)
(0.414579 0 -0.0987292)
(0.0128029 0 -0.00144121)
(0.0367227 0 -0.00414573)
(0.0575574 0 -0.00654757)
(0.0757025 0 -0.00871042)
(0.0915558 0 -0.0106888)
(0.105472 0 -0.0125257)
(0.117759 0 -0.0142573)
(0.128668 0 -0.0159082)
(0.138439 0 -0.0175005)
(0.147307 0 -0.0190552)
(0.155476 0 -0.0205914)
(0.163139 0 -0.0221263)
(0.170482 0 -0.023678)
(0.177683 0 -0.0252654)
(0.184953 0 -0.0269182)
(0.192474 0 -0.0286629)
(0.200467 0 -0.0305423)
(0.209126 0 -0.0325962)
(0.218662 0 -0.034877)
(0.229359 0 -0.0374699)
(0.241421 0 -0.0404467)
(0.255143 0 -0.043928)
(0.270758 0 -0.0480381)
(0.288412 0 -0.0529085)
(0.308258 0 -0.0587152)
(0.329911 0 -0.0655159)
(0.352597 0 -0.0733051)
(0.374839 0 -0.0818541)
(0.394539 0 -0.0906683)
(0.409726 0 -0.0992765)
(0.0129705 0 -0.00151422)
(0.0372264 0 -0.00435868)
(0.0583982 0 -0.00688964)
(0.0768865 0 -0.00917372)
(0.093091 0 -0.0112678)
(0.10739 0 -0.0132208)
(0.12009 0 -0.0150686)
(0.131436 0 -0.0168377)
(0.141675 0 -0.0185525)
(0.151045 0 -0.020237)
(0.159744 0 -0.02191)
(0.167979 0 -0.0235934)
(0.175933 0 -0.0253069)
(0.183778 0 -0.0270706)
(0.191732 0 -0.0289201)
(0.199968 0 -0.0308827)
(0.208682 0 -0.0329975)
(0.218083 0 -0.0353159)
(0.228346 0 -0.0378847)
(0.239726 0 -0.0407878)
(0.252357 0 -0.0440839)
(0.266508 0 -0.047893)
(0.282216 0 -0.0522839)
(0.299553 0 -0.0573684)
(0.318363 0 -0.0632138)
(0.338032 0 -0.069763)
(0.357694 0 -0.0768962)
(0.376098 0 -0.0843387)
(0.391932 0 -0.0917685)
(0.403835 0 -0.0987676)
(0.0131368 0 -0.0015848)
(0.0377299 0 -0.00456529)
(0.0592442 0 -0.00722284)
(0.0780817 0 -0.00962647)
(0.0946549 0 -0.011837)
(0.109336 0 -0.0139048)
(0.122433 0 -0.0158658)
(0.134213 0 -0.0177526)
(0.144908 0 -0.0195886)
(0.154771 0 -0.0214029)
(0.163996 0 -0.0232144)
(0.172778 0 -0.0250449)
(0.181298 0 -0.0269154)
(0.189751 0 -0.0288541)
(0.198318 0 -0.0308897)
(0.207185 0 -0.033058)
(0.216517 0 -0.035392)
(0.226517 0 -0.0379458)
(0.237341 0 -0.0407668)
(0.249164 0 -0.043919)
(0.262106 0 -0.0474631)
(0.276294 0 -0.0514774)
(0.291667 0 -0.055999)
(0.308188 0 -0.0610953)
(0.325466 0 -0.0667311)
(0.342893 0 -0.0728109)
(0.359722 0 -0.0791877)
(0.375075 0 -0.0856505)
(0.388049 0 -0.0919496)
(0.397756 0 -0.0977317)
(0.0132979 0 -0.00165206)
(0.0382255 0 -0.00476338)
(0.0600858 0 -0.00754402)
(0.0792733 0 -0.0100641)
(0.0962096 0 -0.0123876)
(0.111262 0 -0.0145655)
(0.124762 0 -0.0166405)
(0.136971 0 -0.0186436)
(0.148119 0 -0.0206003)
(0.158459 0 -0.0225428)
(0.168168 0 -0.0244861)
(0.177463 0 -0.0264591)
(0.186518 0 -0.028483)
(0.195518 0 -0.0305878)
(0.204627 0 -0.0327982)
(0.214024 0 -0.0351516)
(0.223873 0 -0.0376851)
(0.234326 0 -0.0404407)
(0.245516 0 -0.0434628)
(0.257553 0 -0.0467988)
(0.27051 0 -0.0504961)
(0.284399 0 -0.0545954)
(0.299116 0 -0.0591141)
(0.314463 0 -0.0640499)
(0.330033 0 -0.0693366)
(0.345333 0 -0.0748824)
(0.359763 0 -0.0805483)
(0.372733 0 -0.0861818)
(0.383579 0 -0.091558)
(0.39174 0 -0.0964074)
(0.0134473 0 -0.00171447)
(0.038705 0 -0.00495035)
(0.0609143 0 -0.00784969)
(0.0804479 0 -0.0104818)
(0.0977408 0 -0.0129141)
(0.113174 0 -0.015201)
(0.127072 0 -0.0173876)
(0.13968 0 -0.0195012)
(0.151267 0 -0.0215765)
(0.162054 0 -0.02364)
(0.172225 0 -0.0257111)
(0.181993 0 -0.0278203)
(0.191528 0 -0.0299882)
(0.201008 0 -0.0322449)
(0.210594 0 -0.0346183)
(0.220415 0 -0.037133)
(0.23065 0 -0.0398336)
(0.2414 0 -0.0427491)
(0.252763 0 -0.0459159)
(0.264794 0 -0.0493644)
(0.277511 0 -0.0531243)
(0.290848 0 -0.057205)
(0.304652 0 -0.061599)
(0.318692 0 -0.0662756)
(0.332631 0 -0.0711724)
(0.34606 0 -0.0761984)
(0.358529 0 -0.0812371)
(0.369592 0 -0.0861559)
(0.378811 0 -0.0907737)
(0.385846 0 -0.0949087)
(0.0136106 0 -0.00177492)
(0.0391894 0 -0.00512742)
(0.0617219 0 -0.00813645)
(0.0815911 0 -0.0108743)
(0.0992272 0 -0.0134096)
(0.115034 0 -0.0158023)
(0.129318 0 -0.0180944)
(0.142323 0 -0.020316)
(0.154324 0 -0.0225042)
(0.165515 0 -0.02468)
(0.176113 0 -0.0268718)
(0.186313 0 -0.0291076)
(0.196283 0 -0.031411)
(0.206171 0 -0.0338032)
(0.216124 0 -0.0363127)
(0.226264 0 -0.0389623)
(0.23676 0 -0.0417953)
(0.247651 0 -0.0448246)
(0.259008 0 -0.0480781)
(0.270836 0 -0.0515688)
(0.2831 0 -0.0553063)
(0.295705 0 -0.059284)
(0.308503 0 -0.0634848)
(0.321273 0 -0.0678684)
(0.33373 0 -0.0723724)
(0.34555 0 -0.076915)
(0.35641 0 -0.0814053)
(0.365959 0 -0.0857179)
(0.373906 0 -0.0897172)
(0.380072 0 -0.0932881)
(0.0137543 0 -0.00182849)
(0.0396413 0 -0.00528794)
(0.0624971 0 -0.00839993)
(0.0826905 0 -0.0112363)
(0.100673 0 -0.01387)
(0.116839 0 -0.016362)
(0.131473 0 -0.0187508)
(0.144854 0 -0.0210742)
(0.157237 0 -0.0233657)
(0.168815 0 -0.0256492)
(0.179807 0 -0.0279545)
(0.190387 0 -0.0303045)
(0.200708 0 -0.0327216)
(0.210915 0 -0.0352276)
(0.221146 0 -0.0378485)
(0.231518 0 -0.0406083)
(0.242138 0 -0.0435331)
(0.253023 0 -0.0466279)
(0.2642 0 -0.0499069)
(0.275654 0 -0.0533735)
(0.287338 0 -0.0570283)
(0.299155 0 -0.0608578)
(0.310953 0 -0.0648346)
(0.322538 0 -0.0689153)
(0.333679 0 -0.0730423)
(0.344148 0 -0.0771551)
(0.353668 0 -0.0811613)
(0.361981 0 -0.0849546)
(0.368924 0 -0.0884503)
(0.374391 0 -0.0915665)
(0.0139078 0 -0.00187843)
(0.0400862 0 -0.00543355)
(0.0632318 0 -0.00863615)
(0.0837272 0 -0.0115611)
(0.102036 0 -0.014285)
(0.118545 0 -0.0168675)
(0.133531 0 -0.0193489)
(0.147253 0 -0.0217644)
(0.159981 0 -0.0241497)
(0.171923 0 -0.026533)
(0.183246 0 -0.0289352)
(0.194144 0 -0.0313837)
(0.204749 0 -0.0338961)
(0.215207 0 -0.0364965)
(0.225638 0 -0.0392061)
(0.236128 0 -0.042041)
(0.246724 0 -0.0450098)
(0.257452 0 -0.0481185)
(0.268327 0 -0.0513742)
(0.279323 0 -0.0547753)
(0.290381 0 -0.0583128)
(0.301401 0 -0.0619671)
(0.312247 0 -0.065707)
(0.322749 0 -0.0694886)
(0.332758 0 -0.073273)