/*--------------------------------*- C++ -*----------------------------------*\
| =========                 |                                                 |
| \\      /  F ield         | OpenFOAM: The Open Source CFD Toolbox           |
|  \\    /   O peration     | Version:  dev                                   |
|   \\  /    A nd           | Web:      www.OpenFOAM.org                      |
|    \\/     M anipulation  |                                                 |
\*---------------------------------------------------------------------------*/
FoamFile
{
    version     2.0;
    format      ascii;
    class       surfaceScalarField;
    location    "2.83";
    object      phi;
}
// * * * * * * * * * * * * * * * * * * * * * * * * * * * * * * * * * * * * * //

dimensions      [0 3 -1 0 0 0 0];

internalField   nonuniform List<scalar> 
5457
(
0.197912
0.00206521
0.195616
0.00227534
0.19307
0.00252732
0.190233
0.00281888
0.187113
0.00310462
0.183722
0.00337871
0.180064
0.00364975
0.176135
0.00392637
0.171926
0.0042125
0.167423
0.0045113
0.162611
0.00482485
0.157472
0.00515611
0.151983
0.0055086
0.146119
0.00588467
0.139852
0.00628649
0.133154
0.00671586
0.125994
0.00717474
0.118343
0.00766321
0.110172
0.00817917
0.101458
0.00872007
0.0921795
0.00928057
0.0823274
0.00985169
0.0719068
0.010419
0.0609414
0.0109633
0.0494803
0.0114591
0.0376166
0.011862
0.0255242
0.0120911
0.0135656
0.0119579
0.00273398
0.0108313
0.0027339
0.199693
0.00235034
0.198704
0.00324343
0.197339
0.00387316
0.195635
0.00450484
0.1936
0.00512374
0.191244
0.00572203
0.188572
0.00631389
0.185582
0.00691389
0.182267
0.00753054
0.178615
0.00817103
0.174614
0.00883908
0.170246
0.009541
0.16549
0.0102849
0.160319
0.0110755
0.154708
0.0119176
0.148626
0.0128156
0.142043
0.0137731
0.134924
0.014794
0.127237
0.0158755
0.118949
0.0170134
0.110031
0.0182009
0.10046
0.0194228
0.0902213
0.0206558
0.0793143
0.0218682
0.0677533
0.0230181
0.055585
0.0240285
0.0429126
0.0247623
0.0299022
0.0249675
0.0164679
0.0242652
0.0192017
0.199549
0.00277942
0.198634
0.00413748
0.197345
0.0051429
0.195744
0.00608832
0.193846
0.00700605
0.191657
0.00789799
0.189181
0.00878161
0.186418
0.0096737
0.183363
0.0105879
0.180008
0.0115344
0.176339
0.0125208
0.17234
0.0135569
0.167992
0.0146533
0.16327
0.0158179
0.158148
0.0170592
0.152597
0.018385
0.146584
0.0198023
0.140071
0.0213188
0.13302
0.0229356
0.125389
0.0246507
0.117131
0.0264616
0.108197
0.0283564
0.0985376
0.0303136
0.0880931
0.0323107
0.076796
0.0343133
0.0645645
0.0362583
0.0512792
0.0380464
0.0366764
0.0395696
0.0198118
0.0411295
0.0390134
0.199458
0.00329971
0.198548
0.00502731
0.197276
0.0063956
0.195693
0.00765279
0.193822
0.00886118
0.19167
0.0100368
0.189243
0.0112007
0.186541
0.0123724
0.183561
0.0135695
0.1803
0.0148039
0.176744
0.0160893
0.172879
0.0174387
0.168689
0.0188624
0.164155
0.0203727
0.159253
0.0219817
0.153955
0.0237011
0.148231
0.0255428
0.142045
0.0275178
0.135353
0.0296366
0.128107
0.031903
0.12025
0.0343217
0.111707
0.0368992
0.102395
0.0396247
0.0922073
0.0424963
0.0809959
0.0455229
0.0685428
0.0487098
0.0545461
0.052042
0.0386438
0.0554713
0.0203225
0.0594504
0.0593359
0.199413
0.0038658
0.198494
0.0059253
0.197237
0.00763401
0.195674
0.00919744
0.193828
0.0106913
0.191707
0.0121446
0.189316
0.013582
0.186658
0.0150271
0.183728
0.0165009
0.180522
0.0180175
0.177029
0.0195943
0.173238
0.0212469
0.169132
0.0229876
0.164693
0.0248321
0.159899
0.0267961
0.154724
0.0288955
0.149135
0.0311477
0.143098
0.0335683
0.136569
0.0361755
0.129492
0.0389868
0.121798
0.0420189
0.113394
0.0453032
0.104156
0.0488615
0.0939456
0.0527057
0.0825803
0.0568865
0.0697847
0.0615041
0.0551897
0.066636
0.0384467
0.0722137
0.0197089
0.078188
0.0790447
0.19939
0.00445453
0.198467
0.00682917
0.197226
0.00885555
0.19569
0.0107157
0.193875
0.0124896
0.191791
0.0142151
0.189443
0.0159202
0.186832
0.0176334
0.183955
0.0193789
0.180805
0.0211742
0.177374
0.0230378
0.173649
0.024988
0.169615
0.0270417
0.16525
0.0292173
0.160533
0.0315341
0.155435
0.0340121
0.149922
0.0366773
0.143952
0.0395528
0.13748
0.0426571
0.130447
0.0460276
0.122766
0.0497037
0.114341
0.0537294
0.105022
0.0581794
0.0946186
0.0631082
0.082926
0.0685778
0.0697096
0.0747195
0.0546502
0.0816945
0.0374373
0.0894261
0.0187433
0.0968819
0.097788
0.199381
0.00505278
0.19846
0.00773064
0.197241
0.0100557
0.195735
0.0122037
0.193956
0.0142518
0.191915
0.0162425
0.189616
0.0182088
0.18706
0.0201839
0.184245
0.022195
0.181162
0.024263
0.177803
0.0264088
0.174153
0.0286538
0.170195
0.0310186
0.165908
0.033525
0.161266
0.0361968
0.156237
0.0390611
0.150783
0.0421484
0.144861
0.045489
0.138417
0.0491123
0.131375
0.0530777
0.123631
0.0574515
0.115082
0.0622801
0.105594
0.0676671
0.0949485
0.0737532
0.0828961
0.0806293
0.0692497
0.088365
0.0538202
0.0971235
0.0364164
0.10683
0.0179237
0.115375
0.115712
0.199382
0.00565078
0.198471
0.0086231
0.197276
0.0112317
0.195805
0.0136566
0.194069
0.0159703
0.192079
0.018218
0.189838
0.0204386
0.187348
0.0226685
0.184604
0.0249383
0.1816
0.0272732
0.178323
0.0296964
0.17476
0.0322325
0.170891
0.0349061
0.166693
0.0377435
0.162138
0.0407725
0.157187
0.0440322
0.151799
0.0475533
0.145931
0.0513724
0.139511
0.055544
0.13246
0.060137
0.124667
0.0652499
0.115985
0.0709648
0.106281
0.0773718
0.095378
0.0846557
0.0830193
0.0929877
0.0690026
0.102381
0.0532689
0.112857
0.0357911
0.124308
0.017471
0.133695
0.133183
0.19939
0.00624178
0.198493
0.00950157
0.197325
0.0123813
0.195893
0.0150699
0.194208
0.0176376
0.192278
0.020133
0.190105
0.0226001
0.187691
0.0250763
0.18503
0.0275978
0.182115
0.0301933
0.178933
0.0328876
0.175471
0.0357097
0.171706
0.0386884
0.167614
0.0418558
0.163162
0.0452456
0.158313
0.0489008
0.153026
0.0528588
0.147237
0.0571765
0.140863
0.0619312
0.133822
0.0671875
0.126018
0.0730596
0.117284
0.0797022
0.10743
0.087227
0.0963076
0.0957787
0.0837054
0.10559
0.0694038
0.116683
0.0534262
0.128835
0.0358575
0.141876
0.0175524
0.152
0.150735
0.199402
0.00682131
0.198525
0.0103603
0.197388
0.0135005
0.196001
0.0164381
0.194375
0.0192459
0.192513
0.0219794
0.190417
0.0246843
0.188086
0.0273996
0.185516
0.0301652
0.182702
0.0330113
0.179631
0.0359677
0.176285
0.0390687
0.172645
0.0423458
0.168681
0.0458392
0.164356
0.0495919
0.159636
0.0536403
0.154477
0.0580367
0.148811
0.0628585
0.142552
0.0682029
0.135592
0.0741578
0.127835
0.0808234
0.119137
0.0884047
0.109282
0.0970838
0.0980831
0.10698
0.0853506
0.118324
0.0708892
0.131145
0.0547324
0.144993
0.037001
0.159608
0.0184366
0.170565
0.169172
0.199418
0.00738618
0.198567
0.0111943
0.197466
0.0145832
0.19613
0.0177549
0.194569
0.0207896
0.192781
0.0237509
0.190769
0.0266836
0.18853
0.0296302
0.186062
0.0326289
0.183363
0.0357131
0.180416
0.038922
0.177205
0.0422928
0.173706
0.0458613
0.169893
0.0496711
0.165732
0.0537722
0.161183
0.0582096
0.156189
0.0630494
0.150693
0.068371
0.14462
0.0742889
0.137854
0.0809349
0.130267
0.0884189
0.121724
0.0969533
0.112046
0.106765
0.100999
0.118029
0.0883739
0.130952
0.0739673
0.145554
0.0577441
0.161217
0.0397576
0.177596
0.0205533
0.189769
0.189725
0.199436
0.00793451
0.198614
0.0119987
0.197557
0.0156225
0.196278
0.0190162
0.194782
0.0222666
0.193074
0.0254422
0.191154
0.0285906
0.189019
0.0317552
0.186669
0.034974
0.184098
0.0382853
0.181291
0.0417355
0.17823
0.0453647
0.174892
0.0492147
0.171252
0.0533284
0.167288
0.0577559
0.162954
0.0625631
0.158192
0.0678301
0.152935
0.0736443
0.147123
0.0801156
0.140663
0.0874061
0.133404
0.0956876
0.125226
0.105137
0.115974
0.116023
0.105394
0.128613
0.093252
0.143097
0.0792738
0.159535
0.0632733
0.17722
0.0450688
0.195802
0.0248083
0.21003
0.214534
0.199456
0.00846402
0.198669
0.0127695
0.19766
0.0166136
0.196441
0.0202173
0.195018
0.0236707
0.193397
0.0270463
0.191577
0.0303961
0.189557
0.0337636
0.187336
0.03719
0.184902
0.0407184
0.182246
0.0443956
0.179355
0.0482656
0.176207
0.052377
0.172775
0.0567771
0.169035
0.0615141
0.164957
0.0666604
0.160488
0.072317
0.155561
0.0785883
0.150122
0.0855687
0.144095
0.0934455
0.137357
0.102435
0.129813
0.11269
0.121312
0.12453
0.111631
0.1383
0.100536
0.154196
0.087694
0.172381
0.0726558
0.192261
0.0547642
0.213695
0.0333052
0.23149
0.247839
0.199478
0.0089722
0.198729
0.0135036
0.197773
0.017553
0.196619
0.0213525
0.195276
0.0249951
0.193748
0.0285563
0.192037
0.032092
0.190141
0.0356482
0.188055
0.0392687
0.185771
0.0430003
0.183282
0.0468875
0.180579
0.0509763
0.177644
0.0553241
0.174454
0.059982
0.170985
0.0650009
0.16721
0.0704529
0.163092
0.0764528
0.158587
0.0831096
0.153643
0.0905277
0.148197
0.0989039
0.142205
0.108438
0.135575
0.119329
0.128205
0.131909
0.119985
0.146527
0.110753
0.163435
0.100246
0.182893
0.0878096
0.2047
0.0723513
0.229155
0.0511532
0.252689
0.298992
0.199501
0.0094593
0.19879
0.0142011
0.197886
0.01844
0.196801
0.0224196
0.19554
0.0262369
0.194109
0.0299691
0.192509
0.0336757
0.190739
0.0374055
0.188795
0.0412039
0.186673
0.0451184
0.184366
0.049196
0.181865
0.0534835
0.179156
0.0580434
0.176227
0.0629251
0.173063
0.0681808
0.169633
0.0738997
0.165913
0.0801894
0.161893
0.0871451
0.157533
0.0949024
0.152808
0.103642
0.147733
0.113526
0.142269
0.124804
0.136422
0.137766
0.130248
0.15271
0.123803
0.169887
0.117144
0.189557
0.110011
0.211837
0.101869
0.237299
0.0884584
0.266099
0.38745
0.000991336
-0.000990853
0.00344324
-0.00244962
0.00633463
-0.00288425
0.00879451
-0.00244474
0.0104275
-0.00160848
0.0112059
-0.000745954
0.0113117
-6.90009e-05
0.0109765
0.000373314
0.0103973
0.000617193
0.00971106
0.000719514
0.00899945
0.000737124
0.00829997
0.000720243
0.00761162
0.000706593
0.00691809
0.000709189
0.00621835
0.00071234
0.00552069
0.000706544
0.00480346
0.000721712
0.00400924
0.000793675
0.00310591
0.00089727
0.00215091
0.00094306
0.00128048
0.000852478
0.000640947
0.000615626
0.00033251
0.000278752
0.000412691
-0.000115363
0.00090384
-0.000531436
0.00178414
-0.00092519
0.00304636
-0.00131116
0.00474222
-0.00174825
0.00691465
-0.00222774
-0.00254108
0.00123852
-0.00222886
0.00357583
-0.00478453
0.00628614
-0.00558718
0.00864268
-0.00478585
0.0103191
-0.00326027
0.0112788
-0.00167347
0.0116264
-0.000380385
0.01151
0.000527128
0.0111001
0.00106406
0.0105348
0.00131757
0.00989822
0.00139904
0.00923107
0.00140792
0.00853432
0.00142158
0.00780217
0.00145711
0.00705817
0.00146914
0.0063292
0.00144465
0.00559028
0.0014654
0.00476985
0.00161388
0.00383873
0.00182262
0.00286087
0.00190928
0.00195296
0.00174275
0.00119764
0.00134733
0.000579293
0.000867662
2.59311e-05
0.000403033
-0.000420781
-0.000124817
-0.000603828
-0.000786867
-0.000381937
-0.00158186
0.000358007
-0.00254048
0.00171049
-0.00363545
-0.00448195
0.00156471
-0.00379303
0.00368757
-0.00690482
0.00580509
-0.00769709
0.00747137
-0.0064366
0.00852618
-0.00429084
0.00900784
-0.00212408
0.00901792
-0.00035583
0.00865953
0.000921108
0.00805771
0.00170103
0.00729869
0.00210823
0.00643583
0.00228683
0.00548922
0.00237488
0.00443775
0.00249143
0.00327029
0.00264069
0.00203386
0.00271886
0.000789248
0.002699
-0.000481059
0.00274113
-0.00185227
0.00298554
-0.0033715
0.00333679
-0.00502873
0.00355558
-0.00676173
0.0034588
-0.00844775
0.00301038
-0.00989093
0.00228201
-0.0108968
0.00137446
-0.011411
0.000349842
-0.0114211
-0.000821122
-0.0109073
-0.00214402
-0.00998681
-0.00351297
-0.00889816
-0.00477903
-0.00575974
0.00190562
-0.00569807
0.00377389
-0.00877038
0.0052108
-0.00912624
0.00604136
-0.00725187
0.00628899
-0.0045153
0.0060647
-0.00187072
0.0054305
0.000310509
0.00447465
0.00190997
0.00332434
0.00288411
0.002008
0.00345457
0.000520771
0.00379837
-0.00115071
0.00406672
-0.00302583
0.00438527
-0.00511605
0.00474759
-0.00739417
0.005011
-0.0097665
0.00508193
-0.0120526
0.00503365
-0.0140761
0.00501041
-0.0157752
0.00503183
-0.0171782
0.0049487
-0.0183139
0.00457859
-0.0191686
0.00384304
-0.0197083
0.00279376
-0.0199217
0.00155421
-0.0198362
0.000225449
-0.0195421
-0.00115889
-0.0191665
-0.00256739
-0.0188124
-0.00391855
-0.0185051
-0.00514077
-0.00608981
0.00199232
-0.00768976
0.00347499
-0.0102502
0.0041285
-0.00977197
0.00399788
-0.00710653
0.00328961
-0.00378545
0.00196987
-0.000524454
0.000195357
0.00211415
-0.00175002
0.00388537
-0.00382315
0.0049873
-0.00606339
0.00572289
-0.00846378
0.00622238
-0.0109557
0.00657904
-0.0134313
0.00688002
-0.0158038
0.0071375
-0.018042
0.00726407
-0.0201257
0.00717725
-0.0219888
0.00690427
-0.0235428
0.0065671
-0.0247405
0.00622663
-0.0255976
0.00579715
-0.0261738
0.00514002
-0.0265451
0.00419337
-0.0267807
0.00300242
-0.0269247
0.00166566
-0.0269954
0.00025808
-0.0270167
-0.00118035
-0.0270296
-0.00260161
-0.0270643
-0.00393464
-0.0271435
-0.00511542
-0.00599763
0.00170633
-0.00939542
0.00255826
-0.0110992
0.00220545
-0.00941151
0.000799791
-0.00568705
-0.00160441
-0.00136166
-0.00453504
0.00242984
-0.00732928
0.0049343
-0.00994372
0.00652672
-0.0125116
0.00758245
-0.0150644
0.00830168
-0.0175961
0.00877698
-0.0200593
0.00906284
-0.0223778
0.00921813
-0.0244783
0.00925608
-0.0263233
0.00912491
-0.0279228
0.00878955
-0.0292972
0.0082874
-0.0304392
0.00771297
-0.0313291
0.00711502
-0.0319801
0.0064408
-0.0324523
0.00559876
-0.0328239
0.00454527
-0.0331515
0.00330428
-0.0334518
0.00193445
-0.0337196
0.000488909
-0.0339584
-0.000983423
-0.0341921
-0.0024142
-0.0344446
-0.00373214
-0.0347495
-0.00486366
-0.00566204
0.00103383
-0.0104286
0.000804113
-0.0108666
-0.00115666
-0.00744344
-0.0046186
-0.00221249
-0.00854664
0.00258375
-0.0119477
0.00585162
-0.0149288
0.00793814
-0.0177086
0.00933045
-0.0203472
0.0102456
-0.0228526
0.0108312
-0.0252174
0.0111639
-0.0274166
0.0112827
-0.0294045
0.0112261
-0.0311404
0.0110107
-0.0326282
0.0106295
-0.0339098
0.0100849
-0.035027
0.00941458
-0.0359935
0.00868472
-0.0368044
0.00792569
-0.0374714
0.00710182
-0.0380344
0.00614964
-0.0385397
0.00503226
-0.0390139
0.00375395
-0.0394591
0.00234934
-0.0398725
0.000866403
-0.0402636
-0.000633137
-0.0406531
-0.00207009
-0.0410637
-0.00337064
-0.0415294
-0.00445041
-0.00517615
-0.000146792
-0.0102811
-0.00217652
-0.00883403
-0.00626739
-0.00334582
-0.0110288
0.00256017
-0.0151096
0.00667959
-0.0185357
0.00929569
-0.0215952
0.0110175
-0.0243703
0.0121267
-0.0269114
0.0128089
-0.0292402
0.0131822
-0.0313614
0.0133065
-0.0332669
0.0132088
-0.0349506
0.0129302
-0.0364211
0.0125006
-0.0377034
0.0119293
-0.0388384
0.0112348
-0.0398669
0.0104541
-0.0408038
0.00962813
-0.0416477
0.00877073
-0.0424043
0.0078538
-0.0430926
0.00682714
-0.0437339
0.00565649
-0.0443393
0.00433605
-0.0449087
0.00288959
-0.045444
0.001367
-0.0459617
-0.000155198
-0.0464793
-0.0015968
-0.0470167
-0.00288151
-0.0476053
-0.00391347
-0.00458102
-0.0019634
-0.00831695
-0.0061782
-0.00461658
-0.0117686
0.00225064
-0.0167145
0.00751585
-0.0207767
0.0107547
-0.0242742
0.0128087
-0.0273114
0.0140721
-0.0299784
0.0148124
-0.0323452
0.0151958
-0.0344506
0.0153083
-0.0363216
0.0151982
-0.0379875
0.0148954
-0.0394695
0.0144327
-0.04079
0.013841
-0.0419795
0.0131369
-0.0430728
0.0123437
-0.0440995
0.0114928
-0.0450703
0.0106065
-0.0459836
0.00968638
-0.0468389
0.00870563
-0.0476427
0.00762143
-0.0484037
0.00640167
-0.0491265
0.00503685
-0.0498114
0.00354645
-0.0504619
0.00198396
-0.0510906
0.000434777
-0.0517145
-0.00101618
-0.0523576
-0.00228564
-0.0530459
-0.00327598
-0.0038964
-0.0041338
-0.00418248
-0.0106389
0.00189096
-0.0167894
0.00840643
-0.0217265
0.0124612
-0.02585
0.0148893
-0.0292914
0.0162634
-0.0321905
0.0169865
-0.0346652
0.017304
-0.0368059
0.0173548
-0.0386842
0.017206
-0.0403535
0.0168876
-0.0418544
0.0164168
-0.0432172
0.0158161
-0.0444674
0.0151113
-0.0456322
0.0143203
-0.0467379
0.0134656
-0.0478022
0.0125699
-0.0488304
0.0116431
-0.0498194
0.0106787
-0.0507658
0.0096497
-0.0516714
0.00851856
-0.0525396
0.00725523
-0.0533724
0.00584878
-0.0541691
0.00431641
-0.0549292
0.00271157
-0.055655
0.00112304
-0.0563703
-0.000343114
-0.0571052
-0.00159702
-0.0578786
-0.00255241
-0.00313222
-0.00724642
0.00306457
-0.0150599
0.00970661
-0.0213017
0.0146528
-0.0263595
0.0175261
-0.0304016
0.0189409
-0.0336445
0.019518
-0.0362879
0.0196434
-0.0384988
0.0195304
-0.0403998
0.0192728
-0.0420763
0.0189008
-0.0435874
0.0184181
-0.0449764
0.0178259
-0.0462742
0.0171343
-0.0475028
0.01636
-0.048682
0.0155183
-0.0498275
0.0146276
-0.0509466
0.0137023
-0.0520391
0.0127446
-0.0531002
0.011744
-0.0541266
0.0106746
-0.0551191
0.00950364
-0.0560807
0.0082032
-0.0570132
0.00676155
-0.0579155
0.00519304
-0.0587828
0.00354751
-0.0596126
0.00191636
-0.0604196
0.000422783
-0.0612342
-0.000827711
-0.0620852
-0.00175022
-0.00229046
-0.01048
0.0135451
-0.019222
0.0184505
-0.025772
0.0212067
-0.0306998
0.0224602
-0.0344442
0.0226937
-0.037332
0.0224163
-0.0396208
0.0219447
-0.0415153
0.0214391
-0.0431581
0.0209315
-0.0446378
0.0203979
-0.0460102
0.0198094
-0.0473139
0.0191493
-0.0485741
0.0184146
-0.0498057
0.0176115
-0.0510182
0.0167495
-0.0522153
0.0158413
-0.0533952
0.0148957
-0.054552
0.0139109
-0.0556793
0.012876
-0.0567751
0.0117697
-0.0578429
0.0105649
-0.0588888
0.00923648
-0.0599173
0.00777125
-0.0609269
0.0061781
-0.0619088
0.00449911
-0.0628495
0.00282164
-0.0637458
0.00127903
-0.0646338
1.6039e-05
-0.0655632
-0.000868654
-0.00137227
-0.014405
0.0279507
-0.0238804
0.0279276
-0.0301966
0.0275264
-0.0347038
0.0269729
-0.0379572
0.0259547
-0.0403366
0.0248053
-0.0421536
0.0237732
-0.0436524
0.0229513
-0.0449896
0.0222838
-0.0462466
0.0216717
-0.0474662
0.0210471
-0.0486747
0.0203771
-0.049888
0.0196476
-0.0511121
0.0188552
-0.0523462
0.0180021
-0.0535825
0.0170941
-0.0548093
0.0161361
-0.0560146
0.0151259
-0.0571897
0.0140562
-0.0583343
0.0129141
-0.0594568
0.0116815
-0.0605698
0.0103376
-0.0616835
0.00886708
-0.062799
0.00727
-0.0639036
0.00557447
-0.0649713
0.00385497
-0.0659823
0.00225097
-0.0669546
0.00094515
-0.0679585
8.84545e-05
-0.000368025
-0.0186597
0.0466108
-0.0283826
0.0376521
-0.0341555
0.0333026
-0.0381435
0.0309661
-0.0407622
0.0285806
-0.042462
0.0265142
-0.0436602
0.0249823
-0.0446684
0.0239723
-0.0456437
0.0232736
-0.0466334
0.0226775
-0.0476509
0.0220821
-0.0487059
0.0214507
-0.0498054
0.0207662
-0.0509493
0.0200181
-0.0521305
0.0192013
-0.0533345
0.0183143
-0.0545405
0.0173556
-0.0557288
0.0163239
-0.0568868
0.0152195
-0.0580138
0.0140413
-0.0591232
0.0127855
-0.0602368
0.0114401
-0.0613758
0.00998906
-0.0625501
0.0084215
-0.0637486
0.00674477
-0.0649356
0.00500853
-0.0660685
0.0033459
-0.0671449
0.0019794
-0.0682217
0.00111934
0.000770712
-0.0179169
0.0645283
-0.0286395
0.0483764
-0.0359843
0.0406508
-0.0399258
0.0349127
-0.0418872
0.030549
-0.0428203
0.027456
-0.0433472
0.0255198
-0.0438864
0.0245237
-0.0445488
0.02395
-0.0452882
0.0234323
-0.0460724
0.0228831
-0.0469021
0.0222983
-0.0477855
0.0216681
-0.0487243
0.0209752
-0.0497135
0.020208
-0.050744
0.0193605
-0.051798
0.0184226
-0.0528517
0.0173872
-0.0538865
0.0162596
-0.0548982
0.0150534
-0.0559007
0.013783
-0.0569214
0.0124501
-0.0579917
0.011043
-0.0591345
0.00954236
-0.060349
0.00793189
-0.0615968
0.00622391
-0.0628119
0.00452401
-0.0639611
0.00308741
-0.0650732
0.00218654
0.00205545
0.207173
0.00993503
0.206483
0.0148774
0.205612
0.0192956
0.204568
0.0234449
0.203358
0.0274266
0.201989
0.0313196
0.200461
0.0351863
0.198775
0.0390773
0.19693
0.0430385
0.194925
0.0471181
0.192755
0.0513654
0.190408
0.0558341
0.187879
0.0605815
0.185167
0.0656485
0.182269
0.0710937
0.179155
0.0770295
0.175822
0.0835387
0.17229
0.0906924
0.168546
0.0986617
0.164616
0.107585
0.160573
0.117582
0.156478
0.128913
0.152488
0.141768
0.148882
0.156327
0.146078
0.172701
0.144752
0.19089
0.145829
0.210764
0.150918
0.232213
0.164348
0.252669
0.267979
0.283819
0.212213
0.0103944
0.211558
0.0155208
0.210735
0.0201034
0.209753
0.0244086
0.208619
0.0285404
0.207339
0.0325798
0.205916
0.0365911
0.204352
0.0406252
0.202649
0.0447299
0.200806
0.0489542
0.198821
0.0533474
0.196686
0.0579715
0.194405
0.0628689
0.191992
0.0680717
0.189439
0.0736598
0.186739
0.0797445
0.18392
0.0863726
0.181016
0.0936123
0.178051
0.101641
0.17512
0.110529
0.172346
0.12037
0.169903
0.131371
0.168114
0.143572
0.167462
0.156993
0.168651
0.171522
0.17274
0.186809
0.181302
0.202207
0.197036
0.216481
0.221485
0.228221
0.243301
0.246161
0.217379
0.0108333
0.216764
0.0161245
0.215999
0.0208542
0.215092
0.0252993
0.214047
0.0295653
0.212872
0.033735
0.211571
0.0378721
0.210151
0.0420286
0.208612
0.0462553
0.206957
0.0506002
0.205184
0.0551166
0.203295
0.0598606
0.201313
0.0648557
0.199249
0.0701433
0.197096
0.0758235
0.194885
0.0819692
0.192669
0.0886023
0.190481
0.0958139
0.188415
0.103721
0.186614
0.112344
0.185234
0.121764
0.184565
0.132057
0.185002
0.143152
0.187061
0.154949
0.191414
0.167181
0.198827
0.179404
0.209969
0.19107
0.225107
0.201344
0.243055
0.210274
0.218845
0.267512
0.222673
0.0112481
0.222106
0.0166811
0.221408
0.0215392
0.220585
0.0261064
0.219643
0.0304888
0.218587
0.0347703
0.217427
0.0390125
0.216168
0.0432689
0.214815
0.0475941
0.213368
0.0520364
0.211832
0.0566462
0.210232
0.061459
0.208592
0.0664977
0.206915
0.0718267
0.205217
0.0775304
0.203561
0.0836356
0.202008
0.0901684
0.200616
0.0972192
0.199524
0.104826
0.198888
0.112994
0.198906
0.12176
0.199889
0.131091
0.202186
0.140873
0.20622
0.150932
0.212442
0.160972
0.221236
0.17062
0.232867
0.179445
0.247436
0.186778
0.26541
0.192301
0.195205
0.28905
0.228101
0.0116326
0.227587
0.0171853
0.226964
0.0221503
0.226237
0.0268179
0.22541
0.0312981
0.224489
0.0356716
0.223485
0.0399961
0.222404
0.0443309
0.221251
0.0487313
0.220035
0.0532402
0.218778
0.0578955
0.217507
0.0627255
0.216237
0.0677677
0.214982
0.0730857
0.213796
0.078724
0.212746
0.0846947
0.211892
0.0910337
0.211333
0.0977901
0.211207
0.104964
0.211669
0.112544
0.21293
0.120512
0.215251
0.128787
0.218915
0.137228
0.224231
0.145633
0.231475
0.153742
0.240887
0.161219
0.252678
0.167661
0.266881
0.172578
0.283511
0.175674
0.176149
0.302567
0.233667
0.0119793
0.233214
0.0176303
0.232675
0.0226779
0.232053
0.027425
0.231351
0.0319827
0.230579
0.0364253
0.229745
0.04081
0.228857
0.0451993
0.227929
0.0496426
0.226981
0.0541748
0.226037
0.0588294
0.225118
0.0636389
0.224243
0.0686413
0.223452
0.0738787
0.222808
0.0793731
0.222372
0.0851382
0.222216
0.0911986
0.222453
0.0975646
0.223208
0.10422
0.224633
0.111131
0.226917
0.118242
0.23027
0.12545
0.234907
0.132608
0.241033
0.139524
0.248831
0.145959
0.258455
0.151606
0.269954
0.156169
0.283151
0.159387
0.297782
0.161045
0.160201
0.313732
0.239375
0.0122812
0.238993
0.0180053
0.238546
0.023114
0.238037
0.0279207
0.237472
0.0325315
0.236861
0.0370175
0.236214
0.0414379
0.235542
0.0458508
0.234868
0.0502986
0.234213
0.0548155
0.233596
0.059435
0.233043
0.0641853
0.232585
0.0690953
0.232274
0.0741905
0.232165
0.079485
0.232323
0.0849859
0.232831
0.0906986
0.233793
0.0966124
0.235328
0.102695
0.237574
0.108897
0.240685
0.115144
0.244813
0.121339
0.250106
0.127332
0.25672
0.132926
0.264768
0.137924
0.27428
0.142106
0.285177
0.145282
0.297275
0.147295
0.310348
0.147976
0.146338
0.324215
0.245227
0.0125308
0.244924
0.0183024
0.244578
0.023451
0.244193
0.0282935
0.243778
0.0329314
0.243343
0.0374348
0.2429
0.0418624
0.242464
0.0462666
0.242057
0.0506872
0.2417
0.0551566
0.241418
0.0597041
0.241241
0.0643535
0.241207
0.0691243
0.241365
0.0740308
0.241774
0.0790784
0.242499
0.0842651
0.243622
0.0895825
0.245237
0.0950061
0.247449
0.100493
0.250374
0.105983
0.254125
0.111406
0.258809
0.11667
0.264548
0.121609
0.271435
0.126053
0.279501
0.129871
0.2887
0.132919
0.298931
0.13506
0.310047
0.136186
0.321843
0.136186
0.13415
0.334035
0.251224
0.0127232
0.251009
0.0185144
0.250774
0.0236783
0.250526
0.0285316
0.250271
0.0331714
0.250023
0.0376663
0.249795
0.0420726
0.249604
0.0464389
0.24947
0.0508025
0.249417
0.0551921
0.249475
0.0596323
0.249675
0.0641418
0.250059
0.0687333
0.250675
0.0734126
0.251578
0.0781763
0.252832
0.083014
0.254512
0.0879077
0.2567
0.0928253
0.259484
0.0977183
0.262952
0.102524
0.267188
0.107182
0.272279
0.111592
0.278306
0.115597
0.28529
0.119083
0.293211
0.121963
0.302013
0.124129
0.311596
0.125486
0.321822
0.125968
0.332505
0.12551
0.123309
0.343351
0.25737
0.0128541
0.257248
0.0186349
0.257134
0.0237876
0.25703
0.0286262
0.256947
0.0332427
0.256895
0.0377031
0.256889
0.042061
0.256949
0.0463615
0.257094
0.0506392
0.25735
0.054919
0.257748
0.0592202
0.25832
0.0635568
0.259108
0.067936
0.260159
0.0723565
0.261525
0.0768093
0.263263
0.0812777
0.265439
0.0857364
0.26812
0.0901498
0.271376
0.0944694
0.275273
0.0986364
0.279877
0.102588
0.285254
0.106229
0.291422
0.109442
0.29837
0.112147
0.306068
0.114277
0.31445
0.115758
0.323418
0.116527
0.332847
0.116548
0.342576
0.115789
0.113546
0.352344
0.263667
0.0129195
0.263645
0.0186586
0.263657
0.0237727
0.263706
0.0285701
0.263801
0.0331378
0.263952
0.0375382
0.264176
0.0418217
0.26449
0.0460304
0.264917
0.0501958
0.265481
0.0543382
0.266214
0.0584725
0.267148
0.0626096
0.268322
0.0667518
0.26978
0.0708914
0.27157
0.0750154
0.273743
0.0791046
0.276352
0.0831305
0.279452
0.0870553
0.283094
0.0908333
0.287326
0.0944118
0.292197
0.0977265
0.297738
0.100698
0.303945
0.103247
0.310787
0.105316
0.318225
0.10685
0.32619
0.107802
0.334592
0.108135
0.343317
0.107831
0.352235
0.106879
0.104668
0.361119
0.270118
0.0129159
0.2702
0.0185814
0.270344
0.0236287
0.270552
0.0283582
0.270829
0.0328517
0.271189
0.037167
0.271645
0.0413514
0.272216
0.0454442
0.272923
0.0494736
0.273791
0.0534548
0.274851
0.057399
0.276132
0.0613162
0.277669
0.0652036
0.279505
0.0690483
0.281679
0.0728359
0.284235
0.076546
0.287217
0.0801498
0.290665
0.0836107
0.294616
0.0868866
0.299103
0.0899312
0.304153
0.0926847
0.309776
0.0950835
0.315952
0.0970806
0.322645
0.098632
0.329809
0.0996961
0.337376
0.100243
0.345265
0.100255
0.353377
0.0997269
0.361603
0.0986607
0.0965238
0.369753
0.276727
0.0128406
0.276916
0.0184002
0.277196
0.0233523
0.277565
0.0279873
0.278029
0.0323812
0.2786
0.0365872
0.27929
0.0406495
0.280116
0.044605
0.281099
0.048477
0.282264
0.0522756
0.283637
0.0560131
0.285243
0.0596979
0.287119
0.0633176
0.2893
0.0668592
0.291819
0.0703112
0.294711
0.0736515
0.298008
0.0768518
0.301741
0.079879
0.305935
0.0826955
0.31061
0.0852612
0.315774
0.0875271
0.321418
0.0894467
0.327518
0.0909884
0.334037
0.0921208
0.340926
0.0928154
0.348121
0.0930555
0.355549
0.0928344
0.363127
0.0921565
0.370764
0.0910312
0.0889936
0.3783
0.283497
0.0126909
0.283796
0.0181129
0.284212
0.0229417
0.284745
0.0274558
0.285398
0.0317251
0.28618
0.0357984
0.287101
0.0397192
0.288175
0.0435203
0.289425
0.0472144
0.290875
0.0508138
0.292543
0.054333
0.294459
0.0577718
0.296651
0.0611158
0.299147
0.0643555
0.301973
0.0674797
0.305156
0.0704655
0.308719
0.073287
0.312683
0.075915
0.317063
0.0783176
0.321866
0.0804608
0.327089
0.0823084
0.332713
0.0838287
0.338709
0.0849976
0.345044
0.0857931
0.351666
0.0861994
0.35852
0.0862089
0.365538
0.0858225
0.372651
0.0850502
0.379783
0.0839052
0.0819808
0.386801
0.290431
0.0124652
0.29084
0.0177183
0.291395
0.0223965
0.292091
0.0267644
0.292931
0.0308856
0.293919
0.0348064
0.295064
0.0385677
0.296382
0.0421938
0.297894
0.0456924
0.299616
0.0490812
0.301567
0.052372
0.303773
0.0555567
0.306255
0.0586256
0.309033
0.0615711
0.312128
0.0643794
0.31556
0.0670301
0.319344
0.0695006
0.323493
0.0717664
0.32801
0.0738014
0.332895
0.0755782
0.338135
0.0770705
0.343711
0.0782573
0.349591
0.0791217
0.355739
0.0796497
0.36211
0.0798338
0.368652
0.0796731
0.375307
0.0791735
0.382015
0.0783477
0.388715
0.077211
0.0754071
0.395293
0.297532
0.0121622
0.298053
0.017216
0.298746
0.0217174
0.299603
0.0259152
0.300625
0.0298671
0.301814
0.0336165
0.303181
0.0371977
0.304739
0.0406291
0.306503
0.0439215
0.308485
0.0470911
0.310703
0.0501457
0.313175
0.0530778
0.315916
0.055878
0.318943
0.0585382
0.322272
0.061046
0.325915
0.0633841
0.329881
0.0655336
0.334172
0.0674743
0.338789
0.0691859
0.343722
0.0706467
0.348955
0.0718391
0.354465
0.0727501
0.360222
0.073368
0.366191
0.0736856
0.372328
0.073701
0.378588
0.0734179
0.384921
0.0728451
0.391277
0.0719968
0.397605
0.0708886
0.0692084
0.403808
0.304804
0.0117811
0.305436
0.0166065
0.306265
0.0209056
0.307282
0.0249107
0.308483
0.0286731
0.309871
0.032231
0.311455
0.0356137
0.313243
0.0388385
0.315243
0.0419171
0.317468
0.0448616
0.319931
0.047677
0.322645
0.0503583
0.325621
0.0528969
0.32887
0.0552846
0.332403
0.0575105
0.336224
0.0595605
0.340338
0.0614192
0.344741
0.063071
0.349428
0.0645004
0.354385
0.0656912
0.359593
0.066632
0.365029
0.0673163
0.370663
0.0677371
0.37646
0.0678914
0.382383
0.0677816
0.388392
0.067414
0.394442
0.0667992
0.400492
0.0659518
0.406498
0.064887
0.0633314
0.412379
0.31225
0.0113214
0.312993
0.0158906
0.313957
0.0199631
0.31513
0.0237536
0.316507
0.027307
0.318089
0.0306564
0.319879
0.033827
0.321883
0.0368354
0.324106
0.0396928
0.326557
0.0424083
0.329246
0.0449853
0.332181
0.0474203
0.335368
0.0497065
0.338814
0.0518362
0.342523
0.0537999
0.346497
0.0555866
0.350732
0.0571844
0.355222
0.0585815
0.359958
0.0597668
0.364922
0.0607284
0.370096
0.06146
0.375454
0.0619599
0.380969
0.0622248
0.386608
0.062255
0.392339
0.0620552
0.398123
0.0616335
0.403926
0.0610012
0.40971
0.0601725
0.41544
0.0591619
0.0577302
0.421044
0.319875
0.0107829
0.320728
0.0150697
0.321824
0.0188927
0.32315
0.0224481
0.324697
0.0257744
0.326464
0.0289004
0.32845
0.0318477
0.330658
0.0346317
0.333091
0.0372626
0.335753
0.0397475
0.338649
0.0420889
0.341785
0.0442844
0.345162
0.0463289
0.348783
0.0482157
0.352646
0.0499372
0.356749
0.051485
0.361085
0.0528501
0.365644
0.0540242
0.370415
0.0549998
0.375377
0.0557685
0.380511
0.0563277
0.385794
0.0566796
0.391198
0.0568236
0.396694
0.0567619
0.402253
0.0565008
0.407841
0.0560493
0.413428
0.0554187
0.418983
0.0546225
0.424476
0.0536741
0.0523648
0.429845
0.327682
0.0101658
0.328643
0.0141456
0.329868
0.0176975
0.331342
0.0209987
0.333054
0.0240818
0.334998
0.0269711
0.337171
0.0296857
0.339572
0.0322389
0.342201
0.0346399
0.345059
0.0368944
0.348146
0.0390045
0.351465
0.0409687
0.355013
0.0427832
0.358789
0.0444427
0.362788
0.0459416
0.367003
0.0472734
0.371424
0.0484321
0.376041
0.0494121
0.380837
0.0502087
0.385793
0.0508164
0.390888
0.0512352
0.396101
0.0514702
0.401406
0.0515226
0.406776
0.0513957
0.412184
0.0510969