/*--------------------------------*- C++ -*----------------------------------*\
| =========                 |                                                 |
| \\      /  F ield         | OpenFOAM: The Open Source CFD Toolbox           |
|  \\    /   O peration     | Version:  dev                                   |
|   \\  /    A nd           | Web:      www.OpenFOAM.org                      |
|    \\/     M anipulation  |                                                 |
\*---------------------------------------------------------------------------*/
FoamFile
{
    version     2.0;
    format      ascii;
    class       pointVectorField;
    location    "1.33";
    object      pointDisplacement;
}
// * * * * * * * * * * * * * * * * * * * * * * * * * * * * * * * * * * * * * //

dimensions      [0 1 0 0 0 0 0];

internalField   nonuniform List<vector> 
1034
(
(0 0 0)
(0.02856 0 -0.00428426)
(0.0541285 0 -0.00816151)
(0 0 0)
(0.02856 0 -0.00428426)
(0.0541285 0 -0.00816151)
(0 0 0)
(0.0289216 0 -0.00454189)
(0.0548511 0 -0.00865834)
(0.0772268 0 -0.0123109)
(0 0 0)
(0.0292952 0 -0.00479694)
(0.0555988 0 -0.00915107)
(0.0783565 0 -0.0130232)
(0.0980724 0 -0.0165237)
(0 0 0)
(0.0296782 0 -0.00504769)
(0.0563664 0 -0.00963647)
(0.0795173 0 -0.0137264)
(0.0996477 0 -0.0174345)
(0.117234 0 -0.0208558)
(0 0 0)
(0.030064 0 -0.00529122)
(0.0571435 0 -0.0101095)
(0.0806954 0 -0.0144136)
(0.101245 0 -0.0183258)
(0.119278 0 -0.0219467)
(0.135192 0 -0.02535)
(0 0 0)
(0.0304457 0 -0.00552443)
(0.0579197 0 -0.0105648)
(0.0818768 0 -0.0150774)
(0.10285 0 -0.01919)
(0.121336 0 -0.0230084)
(0.137732 0 -0.0266096)
(0.152392 0 -0.0300562)
(0 0 0)
(0.0308188 0 -0.00574524)
(0.0586902 0 -0.0109991)
(0.0830614 0 -0.0157148)
(0.104465 0 -0.0200239)
(0.123404 0 -0.0240355)
(0.140279 0 -0.0278302)
(0.155447 0 -0.0314746)
(0.169233 0 -0.0350252)
(0.181921 0 -0.0385298)
(0 0 0)
(0.0311956 0 -0.00595464)
(0.0594571 0 -0.0114103)
(0.0842395 0 -0.0163201)
(0.106072 0 -0.0208177)
(0.125452 0 -0.0250141)
(0.142794 0 -0.0289945)
(0.15846 0 -0.0328297)
(0.172775 0 -0.0365792)
(0.186026 0 -0.0402945)
(0.198475 0 -0.0440218)
(0 0 0)
(0.0315695 0 -0.00614928)
(0.0602054 0 -0.0117913)
(0.0853857 0 -0.016882)
(0.107636 0 -0.0215568)
(0.127452 0 -0.025929)
(0.145259 0 -0.0300893)
(0.161417 0 -0.0341096)
(0.176245 0 -0.0380501)
(0.190027 0 -0.0419636)
(0.203019 0 -0.0458969)
(0.215457 0 -0.0498939)
(0.227567 0 -0.0540009)
(0 0 0)
(0.0319173 0 -0.0063224)
(0.0609136 0 -0.0121337)
(0.0864866 0 -0.0173922)
(0.109152 0 -0.0222335)
(0.129399 0 -0.0267723)
(0.147659 0 -0.0311025)
(0.164284 0 -0.035295)
(0.179594 0 -0.0394129)
(0.193878 0 -0.0435116)
(0.207383 0 -0.0476383)
(0.220335 0 -0.0518355)
(0.232956 0 -0.0561502)
(0.245453 0 -0.0606298)
(0.258008 0 -0.0653188)
(0 0 0)
(0.0322474 0 -0.00647372)
(0.0615929 0 -0.012436)
(0.087541 0 -0.0178451)
(0.110605 0 -0.0228375)
(0.131267 0 -0.0275287)
(0.149954 0 -0.0320125)
(0.16702 0 -0.0363628)
(0.182792 0 -0.0406459)
(0.197548 0 -0.0449158)
(0.21152 0 -0.0492165)
(0.224931 0 -0.0535915)
(0.238003 0 -0.0580896)
(0.250922 0 -0.0627525)
(0.263858 0 -0.0676209)
(0.276988 0 -0.0727464)
(0 0 0)
(0.0325563 0 -0.00660037)
(0.0622313 0 -0.0126912)
(0.0885296 0 -0.0182296)
(0.111963 0 -0.023353)
(0.133017 0 -0.0281783)
(0.152116 0 -0.0328013)
(0.16961 0 -0.0372962)
(0.185809 0 -0.0417259)
(0.200986 0 -0.0461444)
(0.215378 0 -0.0505977)
(0.229201 0 -0.0551293)
(0.242658 0 -0.059782)
(0.255916 0 -0.0645924)
(0.269145 0 -0.0696021)
(0.282504 0 -0.0748559)
(0.296114 0 -0.0803901)
(0.310071 0 -0.0862367)
(0 0 0)
(0.0328258 0 -0.00669598)
(0.0627978 0 -0.0128879)
(0.0894292 0 -0.0185337)
(0.113221 0 -0.023769)
(0.134647 0 -0.0287101)
(0.154133 0 -0.0334532)
(0.172017 0 -0.0380708)
(0.188601 0 -0.0426245)
(0.204162 0 -0.0471705)
(0.218927 0 -0.0517528)
(0.233099 0 -0.0564117)
(0.24687 0 -0.0611871)
(0.260396 0 -0.0661112)
(0.273833 0 -0.0712218)
(0.287321 0 -0.0765559)
(0.300959 0 -0.0821402)
(0.314817 0 -0.0879949)
(0.328938 0 -0.0941341)
(0.343343 0 -0.100567)
(0 0 0)
(0.0330651 0 -0.00675981)
(0.0633078 0 -0.0130242)
(0.0902414 0 -0.0187503)
(0.114363 0 -0.0240733)
(0.136134 0 -0.0291068)
(0.155968 0 -0.0339451)
(0.174208 0 -0.0386622)
(0.191148 0 -0.043319)
(0.207049 0 -0.0479673)
(0.222127 0 -0.0526482)
(0.236588 0 -0.0574038)
(0.25061 0 -0.0622692)
(0.26433 0 -0.0672701)
(0.277891 0 -0.0724396)
(0.291418 0 -0.0778072)
(0.304989 0 -0.0833905)
(0.318651 0 -0.0891981)
(0.332435 0 -0.0952366)
(0.346357 0 -0.101508)
(0.36037 0 -0.10799)
(0.374351 0 -0.114628)
(0 0 0)
(0.0332715 0 -0.00678863)
(0.0637526 0 -0.013093)
(0.0909487 0 -0.0188678)
(0.115362 0 -0.0242488)
(0.137453 0 -0.0293496)
(0.157612 0 -0.0342593)
(0.176169 0 -0.0390495)
(0.19342 0 -0.0437812)
(0.209614 0 -0.0485032)
(0.224955 0 -0.0532536)
(0.239645 0 -0.0580726)
(0.253849 0 -0.0629917)
(0.267692 0 -0.0680313)
(0.2813 0 -0.073217)
(0.294787 0 -0.078574)
(0.308215 0 -0.0841109)
(0.321606 0 -0.0898245)
(0.334994 0 -0.0957182)
(0.34837 0 -0.101781)
(0.361651 0 -0.10797)
(0.374725 0 -0.114228)
(0 0 0)
(0.033426 0 -0.0067757)
(0.0641021 0 -0.0130823)
(0.0915408 0 -0.0188755)
(0.116225 0 -0.0242862)
(0.138602 0 -0.0294246)
(0.159046 0 -0.0343758)
(0.177877 0 -0.0392083)
(0.195396 0 -0.043985)
(0.211839 0 -0.0487506)
(0.227391 0 -0.0535379)
(0.242248 0 -0.0583842)
(0.256571 0 -0.0633193)
(0.270474 0 -0.0683597)
(0.284066 0 -0.0735234)
(0.297449 0 -0.0788282)
(0.310662 0 -0.0842732)
(0.323726 0 -0.0898528)
(0.336663 0 -0.0955614)
(0.349431 0 -0.101371)
(0.361952 0 -0.107235)
(0.374146 0 -0.113105)
(0 0 0)
(0.033541 0 -0.00672057)
(0.0643779 0 -0.0129904)
(0.0920244 0 -0.018766)
(0.116941 0 -0.0241713)
(0.139557 0 -0.0293119)
(0.160249 0 -0.0342723)
(0.179324 0 -0.0391174)
(0.197068 0 -0.0439063)
(0.213711 0 -0.0486812)
(0.229426 0 -0.0534712)
(0.244397 0 -0.0583092)
(0.258777 0 -0.0632207)
(0.272675 0 -0.068221)
(0.286201 0 -0.073326)
(0.299424 0 -0.0785402)
(0.312364 0 -0.0838531)
(0.32505 0 -0.0892594)
(0.33748 0 -0.0947423)
(0.349607 0 -0.100267)
(0.36138 0 -0.105794)
(0 0 0)
(0.0336151 0 -0.00661985)
(0.0645732 0 -0.0128102)
(0.0923795 0 -0.0185258)
(0.117492 0 -0.0238881)
(0.140321 0 -0.0289967)
(0.161226 0 -0.0339314)
(0.180504 0 -0.0387539)
(0.198431 0 -0.0435192)
(0.215223 0 -0.0482667)
(0.231052 0 -0.0530233)
(0.246091 0 -0.0578168)
(0.260477 0 -0.0626667)
(0.274318 0 -0.0675874)
(0.287723 0 -0.0725926)
(0.300734 0 -0.0776777)
(0.313358 0 -0.082824)
(0.325614 0 -0.0880195)
(0.337501 0 -0.0932449)
(0.348991 0 -0.0984692)
(0.360052 0 -0.103658)
(0 0 0)
(0.0336297 0 -0.00646677)
(0.0646744 0 -0.0125323)
(0.092616 0 -0.0181473)
(0.117888 0 -0.0234256)
(0.140891 0 -0.0284621)
(0.161971 0 -0.0333331)
(0.181416 0 -0.0380957)
(0.199482 0 -0.0427985)
(0.216375 0 -0.0474788)
(0.232273 0 -0.0521639)
(0.247343 0 -0.0568771)
(0.261695 0 -0.061629)
(0.275442 0 -0.0664329)
(0.288672 0 -0.0712977)
(0.301412 0 -0.0762113)
(0.313671 0 -0.0811543)
(0.325468 0 -0.0861103)
(0.33681 0 -0.0910603)
(0.347687 0 -0.0959772)
(0.358076 0 -0.100829)
(0 0 0)
(0.0336109 0 -0.00626311)
(0.0646984 0 -0.0121535)
(0.0927353 0 -0.0176208)
(0.118131 0 -0.0227707)
(0.141267 0 -0.0276914)
(0.162485 0 -0.0324566)
(0.182067 0 -0.0371204)
(0.200231 0 -0.0417201)
(0.217182 0 -0.0462912)
(0.233112 0 -0.0508637)
(0.248176 0 -0.0554574)
(0.262468 0 -0.0600771)
(0.276076 0 -0.0647266)
(0.289072 0 -0.069409)
(0.301489 0 -0.0741129)
(0.313354 0 -0.0788213)
(0.324689 0 -0.0835169)
(0.335506 0 -0.0881793)
(0.3458 0 -0.0927837)
(0.35556 0 -0.0973016)
(0 0 0)
(0.0335561 0 -0.00600525)
(0.0646478 0 -0.0116675)
(0.0927434 0 -0.0169372)
(0.118228 0 -0.0219114)
(0.141466 0 -0.0266717)
(0.162786 0 -0.031285)
(0.182462 0 -0.0358035)
(0.200699 0 -0.0402605)
(0.217684 0 -0.0446821)
(0.233612 0 -0.0490983)
(0.248627 0 -0.0535285)
(0.262808 0 -0.0579731)
(0.276224 0 -0.0624288)
(0.288945 0 -0.0668934)
(0.301022 0 -0.0713582)
(0.31249 0 -0.0758076)
(0.323373 0 -0.0802239)
(0.333686 0 -0.0845869)
(0.343431 0 -0.0888739)
(0.352605 0 -0.0930595)
(0 0 0)
(0.0334671 0 -0.00568998)
(0.0645261 0 -0.0110683)
(0.0926457 0 -0.0160878)
(0.118187 0 -0.0208355)
(0.141501 0 -0.0253867)
(0.1629 0 -0.0298024)
(0.182632 0 -0.0341259)
(0.20091 0 -0.0383922)
(0.217917 0 -0.0426249)
(0.233809 0 -0.046843)
(0.248717 0 -0.0510629)
(0.262726 0 -0.0552862)
(0.275913 0 -0.0595084)
(0.28835 0 -0.063724)
(0.300088 0 -0.0679228)
(0.311168 0 -0.0720903)
(0.321616 0 -0.0762094)
(0.331451 0 -0.0802609)
(0.340683 0 -0.0842244)
(0.349316 0 -0.0880781)
(0 0 0)
(0.0333446 0 -0.00531456)
(0.0643388 0 -0.0103503)
(0.092454 0 -0.0150628)
(0.118036 0 -0.0195321)
(0.141406 0 -0.0238217)
(0.162857 0 -0.0279873)
(0.182628 0 -0.0320683)
(0.200914 0 -0.0360934)
(0.21789 0 -0.040087)
(0.233697 0 -0.0440623)
(0.248456 0 -0.0480293)
(0.262268 0 -0.0519907)
(0.275216 0 -0.0559418)
(0.287367 0 -0.0598751)
(0.298776 0 -0.0637798)
(0.309483 0 -0.0676417)
(0.319518 0 -0.0714447)
(0.328906 0 -0.0751709)
(0.33766 0 -0.0788016)
(0.345801 0 -0.0823208)
(0 0 0)
(0.0331935 0 -0.00487564)
(0.0641157 0 -0.0095102)
(0.0922158 0 -0.0138578)
(0.117817 0 -0.0179894)
(0.141225 0 -0.0219625)
(0.162697 0 -0.0258225)
(0.182465 0 -0.0296075)
(0.200712 0 -0.0333416)
(0.217605 0 -0.0370443)
(0.23329 0 -0.0407285)
(0.24789 0 -0.0443998)
(0.261503 0 -0.0480585)
(0.274213 0 -0.0517001)
(0.286086 0 -0.0553166)
(0.297179 0 -0.058897)
(0.307534 0 -0.0624278)
(0.317186 0 -0.0658939)
(0.326161 0 -0.0692788)
(0.334481 0 -0.0725654)
(0.342177 0 -0.0757424)
(0 0 0)
(0.0330522 0 -0.00437496)
(0.0638917 0 -0.00854415)
(0.0919707 0 -0.012466)
(0.117567 0 -0.0161988)
(0.140969 0 -0.0197953)
(0.162417 0 -0.0232938)
(0.182131 0 -0.0267263)
(0.200304 0 -0.0301159)
(0.217098 0 -0.0334774)
(0.232655 0 -0.0368202)
(0.247093 0 -0.0401479)
(0.260511 0 -0.0434598)
(0.27299 0 -0.0467509)
(0.284601 0 -0.0500131)
(0.295398 0 -0.0532359)
(0.305428 0 -0.0564068)
(0.31473 0 -0.0595118)
(0.323333 0 -0.0625364)
(0.331265 0 -0.0654654)
(0.338562 0 -0.0682889)
(0 0 0)
(0.0329487 0 -0.00381228)
(0.0636971 0 -0.00744966)
(0.0917214 0 -0.0108804)
(0.117271 0 -0.0141523)
(0.140618 0 -0.01731)
(0.162009 0 -0.020388)
(0.181657 0 -0.0234119)
(0.199746 0 -0.0264)
(0.216437 0 -0.0293645)
(0.231865 0 -0.0323121)
(0.246147 0 -0.0352451)
(0.259379 0 -0.0381618)
(0.271644 0 -0.041057)
(0.283012 0 -0.0439232)
(0.29354 0 -0.0467505)
(0.303278 0 -0.0495276)
(0.312267 0 -0.0522423)
(0.320541 0 -0.0548816)
(0.328131 0 -0.0574328)
(0.335076 0 -0.0598873)
(0 0 0)
(0.0328555 0 -0.00318295)
(0.0635015 0 -0.00622256)
(0.0914329 0 -0.00909542)
(0.116909 0 -0.011843)
(0.140193 0 -0.0145008)
(0.161521 0 -0.0170962)
(0.181099 0 -0.0196497)
(0.199106 0 -0.0221757)
(0.215696 0 -0.0246835)
(0.231002 0 -0.0271779)
(0.245139 0 -0.0296601)
(0.258203 0 -0.0321278)
(0.270276 0 -0.0345763)
(0.281429 0 -0.0369985)
(0.291721 0 -0.0393859)
(0.301204 0 -0.0417286)
(0.309921 0 -0.0440161)
(0.317911 0 -0.0462375)
(0.325208 0 -0.048382)
(0.331853 0 -0.0504424)
(0 0 0)
(0.0327327 0 -0.00248317)
(0.0632712 0 -0.00485903)
(0.0911166 0 -0.00711001)
(0.116523 0 -0.00926823)
(0.139747 0 -0.0113607)
(0.161014 0 -0.0134082)
(0.180526 0 -0.0154261)
(0.198457 0 -0.017425)
(0.214956 0 -0.0194118)
(0.230156 0 -0.0213896)
(0.244167 0 -0.0233588)
(0.257087 0 -0.0253172)
(0.268997 0 -0.0272605)
(0.279969 0 -0.029183)
(0.290064 0 -0.0310775)
(0.299335 0 -0.0329359)
(0.307828 0 -0.0347496)
(0.315584 0 -0.03651)
(0.32264 0 -0.0382085)
(0.329037 0 -0.039839)
(0 0 0)
(0.0326077 0 -0.0017159)
(0.0630469 0 -0.003361)
(0.0908189 0 -0.00492355)
(0.116167 0 -0.00642541)
(0.139339 0 -0.00788492)
(0.160556 0 -0.00931609)
(0.180013 0 -0.0107293)
(0.197881 0 -0.0121315)
(0.214308 0 -0.0135272)
(0.229422 0 -0.0149184)
(0.243335 0 -0.0163049)
(0.256142 0 -0.0176851)
(0.267926 0 -0.0190556)
(0.278759 0 -0.0204121)
(0.288703 0 -0.0217495)
(0.297812 0 -0.0230617)
(0.306134 0 -0.0243427)
(0.313711 0 -0.0255861)
(0.320583 0 -0.0267858)
(0.326793 0 -0.027937)
(0 0 0)
(0.0325103 0 -0.000882732)
(0.0628755 0 -0.00173054)
(0.090596 0 -0.00253754)
(0.115904 0 -0.00331481)
(0.139041 0 -0.00407166)
(0.160223 0 -0.00481523)
(0.179643 0 -0.00555071)
(0.197469 0 -0.00628168)
(0.213848 0 -0.00701031)
(0.228906 0 -0.00773751)
(0.242755 0 -0.00846316)
(0.255489 0 -0.00918623)
(0.267191 0 -0.00990495)
(0.277934 0 -0.0106169)
(0.28778 0 -0.0113194)
(0.296785 0 -0.0120091)
(0.304997 0 -0.0126828)
(0.31246 0 -0.013337)
(0.319214 0 -0.0139683)
(0.325304 0 -0.0145743)
(0 0 0)
(0.0324922 0 0)
(0.062828 0 0)
(0.0905272 0 0)
(0.115819 0 0)
(0.138941 0 0)
(0.160109 0 0)
(0.179515 0 0)
(0.197325 0 0)
(0.213686 0 0)
(0.228724 0 0)
(0.242549 0 0)
(0.255256 0 0)
(0.26693 0 0)
(0.27764 0 0)
(0.287452 0 0)
(0.296419 0 0)
(0.304592 0 0)
(0.312015 0 0)
(0.318728 0 0)
(0.324775 0 0)
(0 0 0)
(0.0289216 0 -0.00454189)
(0.0548511 0 -0.00865834)
(0.0772268 0 -0.0123109)
(0 0 0)
(0.0292952 0 -0.00479694)
(0.0555988 0 -0.00915107)
(0.0783565 0 -0.0130232)
(0.0980724 0 -0.0165237)
(0 0 0)
(0.0296782 0 -0.00504769)
(0.0563664 0 -0.00963647)
(0.0795173 0 -0.0137264)
(0.0996477 0 -0.0174345)
(0.117234 0 -0.0208558)
(0 0 0)
(0.030064 0 -0.00529122)
(0.0571435 0 -0.0101095)
(0.0806954 0 -0.0144136)
(0.101245 0 -0.0183258)
(0.119278 0 -0.0219467)
(0.135192 0 -0.02535)
(0 0 0)
(0.0304457 0 -0.00552443)
(0.0579197 0 -0.0105648)
(0.0818768 0 -0.0150774)
(0.10285 0 -0.01919)
(0.121336 0 -0.0230084)
(0.137732 0 -0.0266096)
(0.152392 0 -0.0300562)
(0 0 0)
(0.0308188 0 -0.00574524)
(0.0586902 0 -0.0109991)
(0.0830614 0 -0.0157148)
(0.104465 0 -0.0200239)
(0.123404 0 -0.0240355)
(0.140279 0 -0.0278302)
(0.155447 0 -0.0314746)
(0.169233 0 -0.0350252)
(0.181921 0 -0.0385298)
(0 0 0)
(0.0311956 0 -0.00595464)
(0.0594571 0 -0.0114103)
(0.0842395 0 -0.0163201)
(0.106072 0 -0.0208177)
(0.125452 0 -0.0250141)
(0.142794 0 -0.0289945)
(0.15846 0 -0.0328297)
(0.172775 0 -0.0365792)
(0.186026 0 -0.0402945)
(0.198475 0 -0.0440218)
(0 0 0)
(0.0315695 0 -0.00614928)
(0.0602054 0 -0.0117913)
(0.0853857 0 -0.016882)
(0.107636 0 -0.0215568)
(0.127452 0 -0.025929)
(0.145259 0 -0.0300893)
(0.161417 0 -0.0341096)
(0.176245 0 -0.0380501)
(0.190027 0 -0.0419636)
(0.203019 0 -0.0458969)
(0.215457 0 -0.0498939)
(0.227567 0 -0.0540009)
(0 0 0)
(0.0319173 0 -0.0063224)
(0.0609136 0 -0.0121337)
(0.0864866 0 -0.0173922)
(0.109152 0 -0.0222335)
(0.129399 0 -0.0267723)
(0.147659 0 -0.0311025)
(0.164284 0 -0.035295)
(0.179594 0 -0.0394129)
(0.193878 0 -0.0435116)
(0.207383 0 -0.0476383)
(0.220335 0 -0.0518355)
(0.232956 0 -0.0561502)
(0.245453 0 -0.0606298)
(0.258008 0 -0.0653188)
(0 0 0)
(0.0322474 0 -0.00647372)
(0.0615929 0 -0.012436)
(0.087541 0 -0.0178451)
(0.110605 0 -0.0228375)
(0.131267 0 -0.0275287)
(0.149954 0 -0.0320125)
(0.16702 0 -0.0363628)
(0.182792 0 -0.0406459)
(0.197548 0 -0.0449158)
(0.21152 0 -0.0492165)
(0.224931 0 -0.0535915)
(0.238003 0 -0.0580896)
(0.250922 0 -0.0627525)
(0.263858 0 -0.0676209)
(0.276988 0 -0.0727464)
(0 0 0)
(0.0325563 0 -0.00660037)
(0.0622313 0 -0.0126912)
(0.0885296 0 -0.0182296)
(0.111963 0 -0.023353)
(0.133017 0 -0.0281783)
(0.152116 0 -0.0328013)
(0.16961 0 -0.0372962)
(0.185809 0 -0.0417259)
(0.200986 0 -0.0461444)
(0.215378 0 -0.0505977)
(0.229201 0 -0.0551293)
(0.242658 0 -0.059782)
(0.255916 0 -0.0645924)
(0.269145 0 -0.0696021)
(0.282504 0 -0.0748559)
(0.296114 0 -0.0803901)
(0.310071 0 -0.0862367)
(0 0 0)
(0.0328258 0 -0.00669598)
(0.0627978 0 -0.0128879)
(0.0894292 0 -0.0185337)
(0.113221 0 -0.023769)
(0.134647 0 -0.0287101)
(0.154133 0 -0.0334532)
(0.172017 0 -0.0380708)
(0.188601 0 -0.0426245)
(0.204162 0 -0.0471705)
(0.218927 0 -0.0517528)
(0.233099 0 -0.0564117)
(0.24687 0 -0.0611871)
(0.260396 0 -0.0661112)
(0.273833 0 -0.0712218)
(0.287321 0 -0.0765559)
(0.300959 0 -0.0821402)
(0.314817 0 -0.0879949)
(0.328938 0 -0.0941341)
(0.343343 0 -0.100567)
(0 0 0)
(0.0330651 0 -0.00675981)
(0.0633078 0 -0.0130242)
(0.0902414 0 -0.0187503)
(0.114363 0 -0.0240733)
(0.136134 0 -0.0291068)
(0.155968 0 -0.0339451)
(0.174208 0 -0.0386622)
(0.191148 0 -0.043319)
(0.207049 0 -0.0479673)
(0.222127 0 -0.0526482)
(0.236588 0 -0.0574038)
(0.25061 0 -0.0622692)
(0.26433 0 -0.0672701)
(0.277891 0 -0.0724396)
(0.291418 0 -0.0778072)
(0.304989 0 -0.0833905)
(0.318651 0 -0.0891981)
(0.332435 0 -0.0952366)
(0.346357 0 -0.101508)
(0.36037 0 -0.10799)
(0.374351 0 -0.114628)
(0 0 0)
(0.0332715 0 -0.00678863)
(0.0637526 0 -0.013093)
(0.0909487 0 -0.0188678)
(0.115362 0 -0.0242488)
(0.137453 0 -0.0293496)
(0.157612 0 -0.0342593)
(0.176169 0 -0.0390495)
(0.19342 0 -0.0437812)
(0.209614 0 -0.0485032)
(0.224955 0 -0.0532536)
(0.239645 0 -0.0580726)
(0.253849 0 -0.0629917)
(0.267692 0 -0.0680313)
(0.2813 0 -0.073217)
(0.294787 0 -0.078574)
(0.308215 0 -0.0841109)
(0.321606 0 -0.0898245)
(0.334994 0 -0.0957182)
(0.34837 0 -0.101781)
(0.361651 0 -0.10797)
(0.374725 0 -0.114228)
(0 0 0)
(0.033426 0 -0.0067757)
(0.0641021 0 -0.0130823)
(0.0915408 0 -0.0188755)
(0.116225 0 -0.0242862)
(0.138602 0 -0.0294246)
(0.159046 0 -0.0343758)
(0.177877 0 -0.0392083)
(0.195396 0 -0.043985)
(0.211839 0 -0.0487506)
(0.227391 0 -0.0535379)
(0.242248 0 -0.0583842)
(0.256571 0 -0.0633193)
(0.270474 0 -0.0683597)
(0.284066 0 -0.0735234)
(0.297449 0 -0.0788282)
(0.310662 0 -0.0842732)
(0.323726 0 -0.0898528)
(0.336663 0 -0.0955614)
(0.349431 0 -0.101371)
(0.361952 0 -0.107235)
(0.374146 0 -0.113105)
(0 0 0)
(0.033541 0 -0.00672057)
(0.0643779 0 -0.0129904)
(0.0920244 0 -0.018766)
(0.116941 0 -0.0241713)
(0.139557 0 -0.0293119)
(0.160249 0 -0.0342723)
(0.179324 0 -0.0391174)
(0.197068 0 -0.0439063)
(0.213711 0 -0.0486812)
(0.229426 0 -0.0534712)
(0.244397 0 -0.0583092)
(0.258777 0 -0.0632207)
(0.272675 0 -0.068221)
(0.286201 0 -0.073326)
(0.299424 0 -0.0785402)
(0.312364 0 -0.0838531)
(0.32505 0 -0.0892594)
(0.33748 0 -0.0947423)
(0.349607 0 -0.100267)
(0.36138 0 -0.105794)
(0 0 0)
(0.0336151 0 -0.00661985)
(0.0645732 0 -0.0128102)
(0.0923795 0 -0.0185258)
(0.117492 0 -0.0238881)
(0.140321 0 -0.0289967)
(0.161226 0 -0.0339314)
(0.180504 0 -0.0387539)
(0.198431 0 -0.0435192)
(0.215223 0 -0.0482667)
(0.231052 0 -0.0530233)
(0.246091 0 -0.0578168)
(0.260477 0 -0.0626667)
(0.274318 0 -0.0675874)
(0.287723 0 -0.0725926)
(0.300734 0 -0.0776777)
(0.313358 0 -0.082824)
(0.325614 0 -0.0880195)
(0.337501 0 -0.0932449)
(0.348991 0 -0.0984692)
(0.360052 0 -0.103658)
(0 0 0)
(0.0336297 0 -0.00646677)
(0.0646744 0 -0.0125323)
(0.092616 0 -0.0181473)
(0.117888 0 -0.0234256)
(0.140891 0 -0.0284621)
(0.161971 0 -0.0333331)
(0.181416 0 -0.0380957)
(0.199482 0 -0.0427985)
(0.216375 0 -0.0474788)
(0.232273 0 -0.0521639)
(0.247343 0 -0.0568771)
(0.261695 0 -0.061629)
(0.275442 0 -0.0664329)
(0.288672 0 -0.0712977)
(0.301412 0 -0.0762113)
(0.313671 0 -0.0811543)
(0.325468 0 -0.0861103)
(0.33681 0 -0.0910603)
(0.347687 0 -0.0959772)
(0.358076 0 -0.100829)
(0 0 0)
(0.0336109 0 -0.00626311)
(0.0646984 0 -0.0121535)
(0.0927353 0 -0.0176208)
(0.118131 0 -0.0227707)
(0.141267 0 -0.0276914)
(0.162485 0 -0.0324566)
(0.182067 0 -0.0371204)
(0.200231 0 -0.0417201)
(0.217182 0 -0.0462912)
(0.233112 0 -0.0508637)
(0.248176 0 -0.0554574)
(0.262468 0 -0.0600771)
(0.276076 0 -0.0647266)
(0.289072 0 -0.069409)
(0.301489 0 -0.0741129)
(0.313354 0 -0.0788213)
(0.324689 0 -0.0835169)
(0.335506 0 -0.0881793)
(0.3458 0 -0.0927837)
(0.35556 0 -0.0973016)
(0 0 0)
(0.0335561 0 -0.00600525)
(0.0646478 0 -0.0116675)
(0.0927434 0 -0.0169372)
(0.118228 0 -0.0219114)
(0.141466 0 -0.0266717)
(0.162786 0 -0.031285)
(0.182462 0 -0.0358035)
(0.200699 0 -0.0402605)
(0.217684 0 -0.0446821)
(0.233612 0 -0.0490983)
(0.248627 0 -0.0535285)
(0.262808 0 -0.0579731)
(0.276224 0 -0.0624288)
(0.288945 0 -0.0668934)
(0.301022 0 -0.0713582)
(0.31249 0 -0.0758076)
(0.323373 0 -0.0802239)
(0.333686 0 -0.0845869)
(0.343431 0 -0.0888739)
(0.352605 0 -0.0930595)
(0 0 0)
(0.0334671 0 -0.00568998)
(0.0645261 0 -0.0110683)
(0.0926457 0 -0.0160878)
(0.118187 0 -0.0208355)
(0.141501 0 -0.0253867)
(0.1629 0 -0.0298024)
(0.182632 0 -0.0341259)
(0.20091 0 -0.0383922)
(0.217917 0 -0.0426249)
(0.233809 0 -0.046843)
(0.248717 0 -0.0510629)
(0.262726 0 -0.0552862)
(0.275913 0 -0.0595084)
(0.28835 0 -0.063724)
(0.300088 0 -0.0679228)
(0.311168 0 -0.0720903)
(0.321616 0 -0.0762094)
(0.331451 0 -0.0802609)
(0.340683 0 -0.0842244)
(0.349316 0 -0.0880781)
(0 0 0)
(0.0333446 0 -0.00531456)
(0.0643388 0 -0.0103503)
(0.092454 0 -0.0150628)
(0.118036 0 -0.0195321)
(0.141406 0 -0.0238217)
(0.162857 0 -0.0279873)
(0.182628 0 -0.0320683)
(0.200914 0 -0.0360934)
(0.21789 0 -0.040087)
(0.233697 0 -0.0440623)
(0.248456 0 -0.0480293)
(0.262268 0 -0.0519907)
(0.275216 0 -0.0559418)
(0.287367 0 -0.0598751)
(0.298776 0 -0.0637798)
(0.309483 0 -0.0676417)
(0.319518 0 -0.0714447)
(0.328906 0 -0.0751709)
(0.33766 0 -0.0788016)
(0.345801 0 -0.0823208)
(0 0 0)
(0.0331935 0 -0.00487564)
(0.0641157 0 -0.0095102)
(0.0922158 0 -0.0138578)
(0.117817 0 -0.0179894)
(0.141225 0 -0.0219625)
(0.162697 0 -0.0258225)
(0.182465 0 -0.0296075)
(0.200712 0 -0.0333416)
(0.217605 0 -0.0370443)
(0.23329 0 -0.0407285)
(0.24789 0 -0.0443998)
(0.261503 0 -0.0480585)
(0.274213 0 -0.0517001)
(0.286086 0 -0.0553166)
(0.297179 0 -0.058897)
(0.307534 0 -0.0624278)
(0.317186 0 -0.0658939)
(0.326161 0 -0.0692788)
(0.334481 0 -0.0725654)
(0.342177 0 -0.0757424)
(0 0 0)
(0.0330522 0 -0.00437496)
(0.0638917 0 -0.00854415)
(0.0919707 0 -0.012466)
(0.117567 0 -0.0161988)
(0.140969 0 -0.0197953)
(0.162417 0 -0.0232938)
(0.182131 0 -0.0267263)
(0.200304 0 -0.0301159)
(0.217098 0 -0.0334774)
(0.232655 0 -0.0368202)
(0.247093 0 -0.0401479)
(0.260511 0 -0.0434598)
(0.27299 0 -0.0467509)
(0.284601 0 -0.0500131)
(0.295398 0 -0.0532359)
(0.305428 0 -0.0564068)
(0.31473 0 -0.0595118)
(0.323333 0 -0.0625364)
(0.331265 0 -0.0654654)
(0.338562 0 -0.0682889)
(0 0 0)
(0.0329487 0 -0.00381228)
(0.0636971 0 -0.00744966)
(0.0917214 0 -0.0108804)
(0.117271 0 -0.0141523)
(0.140618 0 -0.01731)
(0.162009 0 -0.020388)
(0.181657 0 -0.0234119)
(0.199746 0 -0.0264)
(0.216437 0 -0.0293645)
(0.231865 0 -0.0323121)
(0.246147 0 -0.0352451)
(0.259379 0 -0.0381618)
(0.271644 0 -0.041057)
(0.283012 0 -0.0439232)
(0.29354 0 -0.0467505)
(0.303278 0 -0.0495276)
(0.312267 0 -0.0522423)
(0.320541 0 -0.0548816)
(0.328131 0 -0.0574328)
(0.335076 0 -0.0598873)
(0 0 0)
(0.0328555 0 -0.00318295)
(0.0635015 0 -0.00622256)
(0.0914329 0 -0.00909542)
(0.116909 0 -0.011843)
(0.140193 0 -0.0145008)
(0.161521 0 -0.0170962)
(0.181099 0 -0.0196497)
(0.199106 0 -0.0221757)
(0.215696 0 -0.0246835)
(0.231002 0 -0.0271779)
(0.245139 0 -0.0296601)
(0.258203 0 -0.0321278)
(0.270276 0 -0.0345763)
(0.281429 0 -0.0369985)
(0.291721 0 -0.0393859)
(0.301204 0 -0.0417286)
(0.309921 0 -0.0440161)
(0.317911 0 -0.0462375)
(0.325208 0 -0.048382)
(0.331853 0 -0.0504424)
(0 0 0)
(0.0327327 0 -0.00248317)
(0.0632712 0 -0.00485903)
(0.0911166 0 -0.00711001)
(0.116523 0 -0.00926823)
(0.139747 0 -0.0113607)
(0.161014 0 -0.0134082)
(0.180526 0 -0.0154261)
(0.198457 0 -0.017425)
(0.214956 0 -0.0194118)
(0.230156 0 -0.0213896)
(0.244167 0 -0.0233588)
(0.257087 0 -0.0253172)
(0.268997 0 -0.0272605)
(0.279969 0 -0.029183)
(0.290064 0 -0.0310775)
(0.299335 0 -0.0329359)
(0.307828 0 -0.0347496)
(0.315584 0 -0.03651)
(0.32264 0 -0.0382085)
(0.329037 0 -0.039839)
(0 0 0)
(0.0326077 0 -0.0017159)
(0.0630469 0 -0.003361)
(0.0908189 0 -0.00492355)
(0.116167 0 -0.00642541)
(0.139339 0 -0.00788492)
(0.160556 0 -0.00931609)
(0.180013 0 -0.0107293)
(0.197881 0 -0.0121315)
(0.214308 0 -0.0135272)
(0.229422 0 -0.0149184)
(0.243335 0 -0.0163049)
(0.256142 0 -0.0176851)
(0.267926 0 -0.0190556)
(0.278759 0 -0.0204121)
(0.288703 0 -0.0217495)
(0.297812 0 -0.0230617)
(0.306134 0 -0.0243427)
(0.313711 0 -0.0255861)
(0.320583 0 -0.0267858)
(0.326793 0 -0.027937)
(0 0 0)
(0.0325103 0 -0.000882732)
(0.0628755 0 -0.00173054)
(0.090596 0 -0.00253754)
(0.115904 0 -0.00331481)
(0.139041 0 -0.00407166)
(0.160223 0 -0.00481523)
(0.179643 0 -0.00555071)
(0.197469 0 -0.00628168)
(0.213848 0 -0.00701031)
(0.228906 0 -0.00773751)
(0.242755 0 -0.00846316)
(0.255489 0 -0.00918623)
(0.267191 0 -0.00990495)
(0.277934 0 -0.0106169)
(0.28778 0 -0.0113194)
(0.296785 0 -0.0120091)
(0.304997 0 -0.0126828)
(0.31246 0 -0.013337)
(0.319214 0 -0.0139683)
(0.325304 0 -0.0145743)
(0 0 0)
(0.0324922 0 0)
(0.062828 0 0)
(0.0905272 0 0)
(0.115819 0 0)
(0.138941 0 0)
(0.160109 0 0)
(0.179515 0 0)
(0.197325 0 0)
(0.213686 0 0)
(0.228724 0 0)
(0.242549 0 0)
(0.255256 0 0)
(0.26693 0 0)
(0.27764 0 0)
(0.287452 0 0)
(0.296419 0 0)
(0.304592 0 0)
(0.312015 0 0)
(0.318728 0 0)
(0.324775 0 0)
)
;

boundaryField
{
    inlet
    {
        type            fixedValue;
        value           uniform (0 0 0);
    }
    outlet
    {
        type            fixedValue;
        value           nonuniform 0();
    }
    flap
    {
        type            fixedValue;
        value           nonuniform 0();
    }
    upperWall
    {
        type            slip;
    }
    lowerWall
    {
        type            slip;
    }
    frontAndBack
    {
        type            empty;
    }
    procBoundary0to1
    {
        type            processor;
    }
    procBoundary0to3
    {
        type            processor;
    }
}


// ************************************************************************* //
