/*--------------------------------*- C++ -*----------------------------------*\
| =========                 |                                                 |
| \\      /  F ield         | OpenFOAM: The Open Source CFD Toolbox           |
|  \\    /   O peration     | Version:  dev                                   |
|   \\  /    A nd           | Web:      www.OpenFOAM.org                      |
|    \\/     M anipulation  |                                                 |
\*---------------------------------------------------------------------------*/
FoamFile
{
    version     2.0;
    format      ascii;
    class       pointVectorField;
    location    "4.65";
    object      pointDisplacement;
}
// * * * * * * * * * * * * * * * * * * * * * * * * * * * * * * * * * * * * * //

dimensions      [0 1 0 0 0 0 0];

internalField   nonuniform List<vector> 
5828
(
(0 0 0)
(0.0149009 0 0)
(0.0282414 0 0)
(0.0396583 0 0)
(0.0493215 0 0)
(0.0573977 0 0)
(0.064035 0 0)
(0.0693621 0 0)
(0.0734921 0 0)
(0.0765242 0 0)
(0.0785468 0 0)
(0.0796372 0 0)
(0.0798623 0 0)
(0.0792808 0 0)
(0.077945 0 0)
(0.0759026 0 0)
(0.0731976 0 0)
(0.0698722 0 0)
(0.0659686 0 0)
(0.0615308 0 0)
(0.0566063 0 0)
(0.0512494 0 0)
(0.0455235 0 0)
(0.039505 0 0)
(0.0332881 0 0)
(0.0269945 0 0)
(0.0207905 0 0)
(0.0149215 0 0)
(0.00976269 0 0)
(0.0060295 0 0)
(0 0 0)
(0 0 0)
(0.0149097 0 -4.43416e-05)
(0.0282597 0 -8.44703e-05)
(0.0396861 0 -0.000119632)
(0.0493588 0 -0.000150385)
(0.0574456 0 -0.000177141)
(0.0640947 0 -0.000200196)
(0.0694354 0 -0.000219588)
(0.0735807 0 -0.000235321)
(0.07663 0 -0.000247015)
(0.0786724 0 -0.000254124)
(0.0797857 0 -0.00025621)
(0.0800372 0 -0.00025254)
(0.0794859 0 -0.00024217)
(0.078185 0 -0.000223937)
(0.0761825 0 -0.000196432)
(0.0735232 0 -0.000157965)
(0.0702503 0 -0.000106517)
(0.066407 0 -3.96968e-05)
(0.0620383 0 4.53305e-05)
(0.0571934 0 0.000151936)
(0.0519282 0 0.000284123)
(0.0463089 0 0.000446618)
(0.0404158 0 0.000645002)
(0.0343474 0 0.000885884)
(0.0282307 0 0.00117712)
(0.0222376 0 0.00152793)
(0.0166326 0 0.00194818)
(0.0118258 0 0.00243645)
(0.00854709 0 0.00294055)
(0.00394913 0 0.00380912)
(0 0 0)
(0.0149382 0 -8.8826e-05)
(0.0283168 0 -0.000169236)
(0.0397713 0 -0.00023975)
(0.0494721 0 -0.000301469)
(0.0575898 0 -0.00035522)
(0.0642744 0 -0.000401639)
(0.0696552 0 -0.000440761)
(0.0738456 0 -0.00047241)
(0.0769457 0 -0.000496062)
(0.0790467 0 -0.000510866)
(0.0802281 0 -0.000515831)
(0.0805578 0 -0.000509503)
(0.0800964 0 -0.000490048)
(0.0788986 0 -0.000455216)
(0.0770144 0 -0.000402285)
(0.0744908 0 -0.000327996)
(0.0713733 0 -0.000228475)
(0.067708 0 -9.91654e-05)
(0.0635435 0 6.52955e-05)
(0.0589332 0 0.000271224)
(0.0539377 0 0.000526039)
(0.0486316 0 0.000838323)
(0.0431063 0 0.00121783)
(0.0374748 0 0.00167545)
(0.0318814 0 0.00222287)
(0.0265104 0 0.0028723)
(0.0216427 0 0.00363117)
(0.0177546 0 0.00447877)
(0.0155963 0 0.00529682)
(0.0122669 0 0.00654055)
(0 0 0)
(0.0149858 0 -0.000133555)
(0.0284121 0 -0.000254505)
(0.0399132 0 -0.000360537)
(0.0496595 0 -0.000453383)
(0.0578282 0 -0.000534448)
(0.0645712 0 -0.000604725)
(0.0700169 0 -0.000664157)
(0.0742805 0 -0.000712179)
(0.0774652 0 -0.000748457)
(0.079664 0 -0.000772108)
(0.0809579 0 -0.000781467)
(0.0814166 0 -0.000774436)
(0.0811034 0 -0.000748403)
(0.0800754 0 -0.000700183)
(0.0783859 0 -0.000625943)
(0.0760853 0 -0.000521108)
(0.0732228 0 -0.000380278)
(0.0698493 0 -0.000197189)
(0.0660192 0 3.54139e-05)
(0.0617917 0 0.000325926)
(0.0572335 0 0.000684047)
(0.052431 0 0.0011206)
(0.0474929 0 0.00164707)
(0.0425527 0 0.00227493)
(0.0377817 0 0.00301397)
(0.0333902 0 0.0038696)
(0.0296491 0 0.00483306)
(0.0270274 0 0.00585102)
(0.0262593 0 0.00674482)
(0.0243987 0 0.00800538)
(0 0 0)
(0.0150523 0 -0.000178468)
(0.0285425 0 -0.000340153)
(0.0401052 0 -0.000481809)
(0.0499162 0 -0.000605951)
(0.0581578 0 -0.000714701)
(0.0649817 0 -0.000809203)
(0.0705152 0 -0.00088948)
(0.0748794 0 -0.000955007)
(0.0781821 0 -0.00100543)
(0.0805166 0 -0.00103966)
(0.0819655 0 -0.00105561)
(0.082602 0 -0.00105071)
(0.0824924 0 -0.00102172)
(0.0816979 0 -0.000964759)
(0.0802759 0 -0.000875159)
(0.0782815 0 -0.000747397)
(0.0757687 0 -0.000574981)
(0.0727951 0 -0.000350576)
(0.0694227 0 -6.5903e-05)
(0.0657204 0 0.000288293)
(0.0617624 0 0.00072255)
(0.0576421 0 0.0012481)
(0.0534804 0 0.00187517)
(0.0494358 0 0.00261157)
(0.0457084 0 0.00345922)
(0.0425343 0 0.00440825)
(0.0401828 0 0.0054269)
(0.0390282 0 0.00643093)
(0.039697 0 0.00720873)
(0.0391906 0 0.00826519)
(0 0 0)
(0.0151374 0 -0.000223457)
(0.0287069 0 -0.000425887)
(0.0403451 0 -0.000603348)
(0.0502389 0 -0.000759207)
(0.058573 0 -0.000896101)
(0.0654978 0 -0.00101531)
(0.0711437 0 -0.0011172)
(0.0756367 0 -0.00120164)
(0.0790882 0 -0.00126804)
(0.0815932 0 -0.00131503)
(0.083237 0 -0.00134037)
(0.0840966 0 -0.00134118)
(0.0842424 0 -0.00131383)
(0.0837405 0 -0.00125399)
(0.0826536 0 -0.00115653)
(0.0810425 0 -0.00101542)
(0.0789661 0 -0.000823526)
(0.0764904 0 -0.000573188)
(0.0736874 0 -0.000256037)
(0.0706362 0 0.000136964)
(0.0674268 0 0.000615181)
(0.0641566 0 0.00118775)
(0.0609477 0 0.00186156)
(0.0579674 0 0.00263824)
(0.0554389 0 0.00350709)
(0.0536117 0 0.00443951)
(0.0527416 0 0.00538099)
(0.0531026 0 0.00622896)
(0.0551262 0 0.00677491)
(0.0557621 0 0.00754217)
(0 0 0)
(0.0152374 0 -0.000268456)
(0.0289009 0 -0.000511609)
(0.0406327 0 -0.000725117)
(0.0506264 0 -0.000913169)
(0.0590692 0 -0.00107875)
(0.0661143 0 -0.00122348)
(0.0718954 0 -0.00134812)
(0.076543 0 -0.00145288)
(0.0801717 0 -0.00153714)
(0.0828793 0 -0.00159941)
(0.0847546 0 -0.00163741)
(0.0858788 0 -0.00164811)
(0.0863273 0 -0.00162776)
(0.0861713 0 -0.00157185)
(0.0854805 0 -0.0014752)
(0.0843232 0 -0.00133189)
(0.0827656 0 -0.00113482)
(0.080879 0 -0.00087637)
(0.0787414 0 -0.000548624)
(0.0764445 0 -0.000144055)
(0.0740964 0 0.000343645)
(0.0718063 0 0.000919271)
(0.0697008 0 0.00158413)
(0.0679301 0 0.00233276)
(0.0667124 0 0.00314207)
(0.0662974 0 0.00396545)
(0.0668955 0 0.00473184)
(0.0686856 0 0.00533589)
(0.0718801 0 0.00560149)
(0.0734197 0 0.00606584)
(0 0 0)
(0.0153522 0 -0.000313467)
(0.0291232 0 -0.0005975)
(0.0409652 0 -0.000847271)
(0.0510744 0 -0.00106779)
(0.059641 0 -0.00126264)
(0.0668236 0 -0.00143373)
(0.0727605 0 -0.00158228)
(0.0775863 0 -0.00170898)
(0.081418 0 -0.00181321)
(0.084357 0 -0.00189355)
(0.0864963 0 -0.0019478)
(0.0879219 0 -0.00197301)
(0.0887143 0 -0.00196552)
(0.0889505 0 -0.00192094)
(0.0887079 0 -0.00183448)
(0.0880643 0 -0.00170084)
(0.0870969 0 -0.0015139)
(0.0858808 0 -0.00126663)
(0.0844971 0 -0.000952085)
(0.0830444 0 -0.000564676)
(0.0816452 0 -0.000102205)
(0.0804268 0 0.000434204)
(0.0795197 0 0.00103883)
(0.0790631 0 0.00169792)
(0.0792324 0 0.00237995)
(0.0802378 0 0.0030265)
(0.0822366 0 0.00355837)
(0.0852963 0 0.00388072)
(0.0894185 0 0.00386748)
(0.0916264 0 0.00404265)
(0 0 0)
(0.0154854 0 -0.000358553)
(0.0293749 0 -0.000683508)
(0.0413361 0 -0.000969581)
(0.0515751 0 -0.00122285)
(0.0602816 0 -0.00144767)
(0.067618 0 -0.00164624)
(0.0737305 0 -0.00182019)
(0.0787562 0 -0.00197061)
(0.082814 0 -0.00209712)
(0.0860102 0 -0.0021985)
(0.0884423 0 -0.00227283)
(0.0902014 0 -0.00231745)
(0.0913733 0 -0.002329)
(0.0920401 0 -0.0023034)
(0.0922875 0 -0.00223665)
(0.092204 0 -0.00212464)
(0.0918757 0 -0.00196255)
(0.0913864 0 -0.001745)
(0.0908274 0 -0.00146739)
(0.0902953 0 -0.00112597)
(0.0899187 0 -0.000722372)
(0.0898396 0 -0.00026422)
(0.0901839 0 0.000236276)
(0.0910857 0 0.00075725)
(0.0926672 0 0.00126207)
(0.0950651 0 0.0016895)
(0.0983609 0 0.00196272)
(0.102503 0 0.00200656)
(0.107312 0 0.00175043)
(0.109977 0 0.00168674)
(0 0 0)
(0.0156306 0 -0.000403533)
(0.0296494 0 -0.000769306)
(0.0417405 0 -0.00109188)
(0.0521246 0 -0.00137844)
(0.060987 0 -0.00163386)
(0.0684916 0 -0.00186084)
(0.0747947 0 -0.0020616)
(0.0800374 0 -0.00223753)
(0.0843408 0 -0.00238862)
(0.0878155 0 -0.00251405)
(0.0905641 0 -0.00261231)
(0.0926827 0 -0.00268123)
(0.0942629 0 -0.00271808)
(0.0953938 0 -0.00271953)
(0.0961661 0 -0.00268225)
(0.0966772 0 -0.00260359)
(0.0970224 0 -0.0024806)
(0.0972946 0 -0.00231005)
(0.0975964 0 -0.00209039)
(0.0980315 0 -0.00182103)
(0.0987274 0 -0.00150693)
(0.0998227 0 -0.00116046)
(0.101438 0 -0.00079931)
(0.10369 0 -0.000450381)
(0.106662 0 -0.000153062)
(0.110406 0 3.66817e-05)
(0.114887 0 5.58602e-05)
(0.119938 0 -0.000146237)
(0.125235 0 -0.000590347)
(0.128187 0 -0.000833589)
(0 0 0)
(0.0157814 0 -0.000448248)
(0.0299443 0 -0.000854906)
(0.0421798 0 -0.0012143)
(0.0527179 0 -0.00153443)
(0.0617446 0 -0.00182067)
(0.0694296 0 -0.00207671)
(0.0759369 0 -0.00230542)
(0.0814102 0 -0.00250846)
(0.0859741 0 -0.00268631)
(0.0897433 0 -0.00283861)
(0.0928255 0 -0.00296443)
(0.095322 0 -0.0030623)
(0.0973307 0 -0.00313035)
(0.0989496 0 -0.00316661)
(0.100273 0 -0.00316846)
(0.101403 0 -0.00313451)
(0.102444 0 -0.00306411)
(0.103497 0 -0.00295648)
(0.104671 0 -0.00281306)
(0.106084 0 -0.00263734)
(0.107861 0 -0.0024376)
(0.110128 0 -0.00222909)
(0.112995 0 -0.00203286)
(0.116553 0 -0.00187681)
(0.120864 0 -0.00179984)
(0.125888 0 -0.00184613)
(0.131456 0 -0.00205596)
(0.13729 0 -0.00245408)
(0.142947 0 -0.00302491)
(0.146089 0 -0.00338744)
(0 0 0)
(0.0159376 0 -0.000492733)
(0.0302577 0 -0.000940354)
(0.0426461 0 -0.00133659)
(0.0533428 0 -0.00169024)
(0.0625437 0 -0.0020077)
(0.0704221 0 -0.00229367)
(0.077145 0 -0.00255148)
(0.0828599 0 -0.00278319)
(0.0876957 0 -0.00298985)
(0.0917711 0 -0.00317166)
(0.0951986 0 -0.00332844)
(0.0980846 0 -0.0034595)
(0.100533 0 -0.00356394)
(0.102646 0 -0.00364106)
(0.104532 0 -0.00369038)
(0.106294 0 -0.00371156)
(0.108035 0 -0.00370523)
(0.109864 0 -0.00367371)
(0.1119 0 -0.00362162)
(0.114268 0 -0.00355628)
(0.117093 0 -0.00348891)
(0.120485 0 -0.0034365)
(0.124543 0 -0.00342125)
(0.12934 0 -0.00346909)
(0.134906 0 -0.00361279)
(0.14112 0 -0.00387944)
(0.147704 0 -0.00428294)
(0.154274 0 -0.00482159)
(0.160267 0 -0.00546011)
(0.163629 0 -0.00587571)
(0 0 0)
(0.0161015 0 -0.000537042)
(0.0305843 0 -0.00102537)
(0.0431313 0 -0.00145829)
(0.053993 0 -0.0018458)
(0.063378 0 -0.00219512)
(0.0714602 0 -0.00251168)
(0.0784066 0 -0.00279944)
(0.0843712 0 -0.00306123)
(0.0894867 0 -0.00329859)
(0.0938752 0 -0.00351225)
(0.0976543 0 -0.00370296)
(0.100935 0 -0.00387091)
(0.103823 0 -0.00401614)
(0.106432 0 -0.00413952)
(0.108878 0 -0.00424286)
(0.11126 0 -0.00432676)
(0.113681 0 -0.00439317)
(0.116259 0 -0.00444746)
(0.119116 0 -0.00449717)
(0.122385 0 -0.00455323)
(0.126184 0 -0.00462925)
(0.130612 0 -0.00474273)
(0.135755 0 -0.00491553)
(0.141677 0 -0.00517037)
(0.148371 0 -0.00552823)
(0.155659 0 -0.00599627)
(0.163214 0 -0.00656169)
(0.170562 0 -0.00719326)
(0.176994 0 -0.00784945)
(0.180854 0 -0.00825237)
(0 0 0)
(0.016267 0 -0.000580817)
(0.0309147 0 -0.00110945)
(0.0436303 0 -0.00157905)
(0.0546659 0 -0.00200068)
(0.0642384 0 -0.00238239)
(0.0725291 0 -0.00273008)
(0.0797064 0 -0.00304856)
(0.085926 0 -0.00334142)
(0.0913231 0 -0.00361071)
(0.096026 0 -0.00385809)
(0.100157 0 -0.00408512)
(0.103829 0 -0.00429295)
(0.107156 0 -0.00448292)
(0.110255 0 -0.00465753)
(0.11324 0 -0.00481929)
(0.116209 0 -0.00497018)
(0.119271 0 -0.00511475)
(0.122545 0 -0.00526052)
(0.126154 0 -0.00541727)
(0.130235 0 -0.00559958)
(0.134898 0 -0.00582267)
(0.140223 0 -0.00610322)
(0.146288 0 -0.00646227)
(0.153151 0 -0.00691913)
(0.160774 0 -0.00748328)
(0.16897 0 -0.00814365)
(0.17742 0 -0.00886121)
(0.185621 0 -0.00956717)
(0.192715 0 -0.0102092)
(0.197874 0 -0.0105152)
(0 0 0)
(0.0164278 0 -0.000623711)
(0.0312454 0 -0.00119236)
(0.0441361 0 -0.0016985)
(0.0553527 0 -0.00215409)
(0.0651176 0 -0.00256841)
(0.0736187 0 -0.0029479)
(0.0810293 0 -0.00329793)
(0.0875042 0 -0.00362253)
(0.0931826 0 -0.00392472)
(0.0981985 0 -0.00420731)
(0.102676 0 -0.00447248)
(0.106733 0 -0.00472239)
(0.110486 0 -0.00495989)
(0.114053 0 -0.00518816)
(0.117539 0 -0.00541018)
(0.121049 0 -0.00563024)
(0.124696 0 -0.00585516)
(0.128595 0 -0.00609406)
(0.132865 0 -0.0063585)
(0.137641 0 -0.00666556)
(0.143018 0 -0.00703108)
(0.149054 0 -0.0074709)
(0.15582 0 -0.00800539)
(0.163357 0 -0.00865162)
(0.171617 0 -0.00941368)
(0.180423 0 -0.0102725)
(0.189502 0 -0.0111751)
(0.198428 0 -0.0120109)
(0.206352 0 -0.0126578)
(0.214776 0 -0.0126938)
(0 0 0)
(0.0165894 0 -0.000666186)
(0.0315781 0 -0.00127452)
(0.0446445 0 -0.00181703)
(0.0560472 0 -0.00230671)
(0.0660121 0 -0.00275378)
(0.0747274 0 -0.00316556)
(0.0823706 0 -0.00354785)
(0.0891006 0 -0.00390523)
(0.0950615 0 -0.00424174)
(0.100388 0 -0.00456094)
(0.105205 0 -0.00486572)
(0.109633 0 -0.00515921)
(0.113791 0 -0.00544524)
(0.11779 0 -0.00572763)
(0.121736 0 -0.00601069)
(0.125738 0 -0.00630067)
(0.129905 0 -0.00660575)
(0.134346 0 -0.00693635)
(0.139176 0 -0.00730576)
(0.14451 0 -0.00773077)
(0.15042 0 -0.00822686)
(0.156952 0 -0.00881044)
(0.164153 0 -0.00950089)
(0.172039 0 -0.0103151)
(0.180535 0 -0.0112584)
(0.189454 0 -0.0123228)
(0.198541 0 -0.0134923)
(0.207402 0 -0.0147423)
(0.215423 0 -0.0161402)
(0.231703 0 -0.0148677)
(0 0 0)
(0.0149009 0 0)
(0.0282414 0 0)
(0.0396583 0 0)
(0.0493215 0 0)
(0.0573977 0 0)
(0.064035 0 0)
(0.0693621 0 0)
(0.0734921 0 0)
(0.0765242 0 0)
(0.0785468 0 0)
(0.0796372 0 0)
(0.0798623 0 0)
(0.0792808 0 0)
(0.077945 0 0)
(0.0759026 0 0)
(0.0731976 0 0)
(0.0698722 0 0)
(0.0659686 0 0)
(0.0615308 0 0)
(0.0566063 0 0)
(0.0512494 0 0)
(0.0455235 0 0)
(0.039505 0 0)
(0.0332881 0 0)
(0.0269945 0 0)
(0.0207905 0 0)
(0.0149215 0 0)
(0.00976269 0 0)
(0.0060295 0 0)
(0 0 0)
(0 0 0)
(0.0149097 0 -4.43416e-05)
(0.0282597 0 -8.44703e-05)
(0.0396861 0 -0.000119632)
(0.0493588 0 -0.000150385)
(0.0574456 0 -0.000177141)
(0.0640947 0 -0.000200196)
(0.0694354 0 -0.000219588)
(0.0735807 0 -0.000235321)
(0.07663 0 -0.000247015)
(0.0786724 0 -0.000254124)
(0.0797857 0 -0.00025621)
(0.0800372 0 -0.00025254)
(0.0794859 0 -0.00024217)
(0.078185 0 -0.000223937)
(0.0761825 0 -0.000196432)
(0.0735232 0 -0.000157965)
(0.0702503 0 -0.000106517)
(0.066407 0 -3.96968e-05)
(0.0620383 0 4.53305e-05)
(0.0571934 0 0.000151936)
(0.0519282 0 0.000284123)
(0.0463089 0 0.000446618)
(0.0404158 0 0.000645002)
(0.0343474 0 0.000885884)
(0.0282307 0 0.00117712)
(0.0222376 0 0.00152793)
(0.0166326 0 0.00194818)
(0.0118258 0 0.00243645)
(0.00854709 0 0.00294055)
(0.00394913 0 0.00380912)
(0 0 0)
(0.0149382 0 -8.8826e-05)
(0.0283168 0 -0.000169236)
(0.0397713 0 -0.00023975)
(0.0494721 0 -0.000301469)
(0.0575898 0 -0.00035522)
(0.0642744 0 -0.000401639)
(0.0696552 0 -0.000440761)
(0.0738456 0 -0.00047241)
(0.0769457 0 -0.000496062)
(0.0790467 0 -0.000510866)
(0.0802281 0 -0.000515831)
(0.0805578 0 -0.000509503)
(0.0800964 0 -0.000490048)
(0.0788986 0 -0.000455216)
(0.0770144 0 -0.000402285)
(0.0744908 0 -0.000327996)
(0.0713733 0 -0.000228475)
(0.067708 0 -9.91654e-05)
(0.0635435 0 6.52955e-05)
(0.0589332 0 0.000271224)
(0.0539377 0 0.000526039)
(0.0486316 0 0.000838323)
(0.0431063 0 0.00121783)
(0.0374748 0 0.00167545)
(0.0318814 0 0.00222287)
(0.0265104 0 0.0028723)
(0.0216427 0 0.00363117)
(0.0177546 0 0.00447877)
(0.0155963 0 0.00529682)
(0.0122669 0 0.00654055)
(0 0 0)
(0.0149858 0 -0.000133555)
(0.0284121 0 -0.000254505)
(0.0399132 0 -0.000360537)
(0.0496595 0 -0.000453383)
(0.0578282 0 -0.000534448)
(0.0645712 0 -0.000604725)
(0.0700169 0 -0.000664157)
(0.0742805 0 -0.000712179)
(0.0774652 0 -0.000748457)
(0.079664 0 -0.000772108)
(0.0809579 0 -0.000781467)
(0.0814166 0 -0.000774436)
(0.0811034 0 -0.000748403)
(0.0800754 0 -0.000700183)
(0.0783859 0 -0.000625943)
(0.0760853 0 -0.000521108)
(0.0732228 0 -0.000380278)
(0.0698493 0 -0.000197189)
(0.0660192 0 3.54139e-05)
(0.0617917 0 0.000325926)
(0.0572335 0 0.000684047)
(0.052431 0 0.0011206)
(0.0474929 0 0.00164707)
(0.0425527 0 0.00227493)
(0.0377817 0 0.00301397)
(0.0333902 0 0.0038696)
(0.0296491 0 0.00483306)
(0.0270274 0 0.00585102)
(0.0262593 0 0.00674482)
(0.0243987 0 0.00800538)
(0 0 0)
(0.0150523 0 -0.000178468)
(0.0285425 0 -0.000340153)
(0.0401052 0 -0.000481809)
(0.0499162 0 -0.000605951)
(0.0581578 0 -0.000714701)
(0.0649817 0 -0.000809203)
(0.0705152 0 -0.00088948)
(0.0748794 0 -0.000955007)
(0.0781821 0 -0.00100543)
(0.0805166 0 -0.00103966)
(0.0819655 0 -0.00105561)
(0.082602 0 -0.00105071)
(0.0824924 0 -0.00102172)
(0.0816979 0 -0.000964759)
(0.0802759 0 -0.000875159)
(0.0782815 0 -0.000747397)
(0.0757687 0 -0.000574981)
(0.0727951 0 -0.000350576)
(0.0694227 0 -6.5903e-05)
(0.0657204 0 0.000288293)
(0.0617624 0 0.00072255)
(0.0576421 0 0.0012481)
(0.0534804 0 0.00187517)
(0.0494358 0 0.00261157)
(0.0457084 0 0.00345922)
(0.0425343 0 0.00440825)
(0.0401828 0 0.0054269)
(0.0390282 0 0.00643093)
(0.039697 0 0.00720873)
(0.0391906 0 0.00826519)
(0 0 0)
(0.0151374 0 -0.000223457)
(0.0287069 0 -0.000425887)
(0.0403451 0 -0.000603348)
(0.0502389 0 -0.000759207)
(0.058573 0 -0.000896101)
(0.0654978 0 -0.00101531)
(0.0711437 0 -0.0011172)
(0.0756367 0 -0.00120164)
(0.0790882 0 -0.00126804)
(0.0815932 0 -0.00131503)
(0.083237 0 -0.00134037)
(0.0840966 0 -0.00134118)
(0.0842424 0 -0.00131383)
(0.0837405 0 -0.00125399)
(0.0826536 0 -0.00115653)
(0.0810425 0 -0.00101542)
(0.0789661 0 -0.000823526)
(0.0764904 0 -0.000573188)
(0.0736874 0 -0.000256037)
(0.0706362 0 0.000136964)
(0.0674268 0 0.000615181)
(0.0641566 0 0.00118775)
(0.0609477 0 0.00186156)
(0.0579674 0 0.00263824)
(0.0554389 0 0.00350709)
(0.0536117 0 0.00443951)
(0.0527416 0 0.00538099)
(0.0531026 0 0.00622896)
(0.0551262 0 0.00677491)
(0.0557621 0 0.00754217)
(0 0 0)
(0.0152374 0 -0.000268456)
(0.0289009 0 -0.000511609)
(0.0406327 0 -0.000725117)
(0.0506264 0 -0.000913169)
(0.0590692 0 -0.00107875)
(0.0661143 0 -0.00122348)
(0.0718954 0 -0.00134812)
(0.076543 0 -0.00145288)
(0.0801717 0 -0.00153714)
(0.0828793 0 -0.00159941)
(0.0847546 0 -0.00163741)
(0.0858788 0 -0.00164811)
(0.0863273 0 -0.00162776)
(0.0861713 0 -0.00157185)
(0.0854805 0 -0.0014752)
(0.0843232 0 -0.00133189)
(0.0827656 0 -0.00113482)
(0.080879 0 -0.00087637)
(0.0787414 0 -0.000548624)
(0.0764445 0 -0.000144055)
(0.0740964 0 0.000343645)
(0.0718063 0 0.000919271)
(0.0697008 0 0.00158413)
(0.0679301 0 0.00233276)
(0.0667124 0 0.00314207)
(0.0662974 0 0.00396545)
(0.0668955 0 0.00473184)
(0.0686856 0 0.00533589)
(0.0718801 0 0.00560149)
(0.0734197 0 0.00606584)
(0 0 0)
(0.0153522 0 -0.000313467)
(0.0291232 0 -0.0005975)
(0.0409652 0 -0.000847271)
(0.0510744 0 -0.00106779)
(0.059641 0 -0.00126264)
(0.0668236 0 -0.00143373)
(0.0727605 0 -0.00158228)
(0.0775863 0 -0.00170898)
(0.081418 0 -0.00181321)
(0.084357 0 -0.00189355)
(0.0864963 0 -0.0019478)
(0.0879219 0 -0.00197301)
(0.0887143 0 -0.00196552)
(0.0889505 0 -0.00192094)
(0.0887079 0 -0.00183448)
(0.0880643 0 -0.00170084)
(0.0870969 0 -0.0015139)
(0.0858808 0 -0.00126663)
(0.0844971 0 -0.000952085)
(0.0830444 0 -0.000564676)
(0.0816452 0 -0.000102205)
(0.0804268 0 0.000434204)
(0.0795197 0 0.00103883)
(0.0790631 0 0.00169792)
(0.0792324 0 0.00237995)
(0.0802378 0 0.0030265)
(0.0822366 0 0.00355837)
(0.0852963 0 0.00388072)
(0.0894185 0 0.00386748)
(0.0916264 0 0.00404265)
(0 0 0)
(0.0154854 0 -0.000358553)
(0.0293749 0 -0.000683508)
(0.0413361 0 -0.000969581)
(0.0515751 0 -0.00122285)
(0.0602816 0 -0.00144767)
(0.067618 0 -0.00164624)
(0.0737305 0 -0.00182019)
(0.0787562 0 -0.00197061)
(0.082814 0 -0.00209712)
(0.0860102 0 -0.0021985)
(0.0884423 0 -0.00227283)
(0.0902014 0 -0.00231745)
(0.0913733 0 -0.002329)
(0.0920401 0 -0.0023034)
(0.0922875 0 -0.00223665)
(0.092204 0 -0.00212464)
(0.0918757 0 -0.00196255)
(0.0913864 0 -0.001745)
(0.0908274 0 -0.00146739)
(0.0902953 0 -0.00112597)
(0.0899187 0 -0.000722372)
(0.0898396 0 -0.00026422)
(0.0901839 0 0.000236276)
(0.0910857 0 0.00075725)
(0.0926672 0 0.00126207)
(0.0950651 0 0.0016895)
(0.0983609 0 0.00196272)
(0.102503 0 0.00200656)
(0.107312 0 0.00175043)
(0.109977 0 0.00168674)
(0 0 0)
(0.0156306 0 -0.000403533)
(0.0296494 0 -0.000769306)
(0.0417405 0 -0.00109188)
(0.0521246 0 -0.00137844)
(0.060987 0 -0.00163386)
(0.0684916 0 -0.00186084)
(0.0747947 0 -0.0020616)
(0.0800374 0 -0.00223753)
(0.0843408 0 -0.00238862)
(0.0878155 0 -0.00251405)
(0.0905641 0 -0.00261231)
(0.0926827 0 -0.00268123)
(0.0942629 0 -0.00271808)
(0.0953938 0 -0.00271953)
(0.0961661 0 -0.00268225)
(0.0966772 0 -0.00260359)
(0.0970224 0 -0.0024806)
(0.0972946 0 -0.00231005)
(0.0975964 0 -0.00209039)
(0.0980315 0 -0.00182103)
(0.0987274 0 -0.00150693)
(0.0998227 0 -0.00116046)
(0.101438 0 -0.00079931)
(0.10369 0 -0.000450381)
(0.106662 0 -0.000153062)
(0.110406 0 3.66817e-05)
(0.114887 0 5.58602e-05)
(0.119938 0 -0.000146237)
(0.125235 0 -0.000590347)
(0.128187 0 -0.000833589)
(0 0 0)
(0.0157814 0 -0.000448248)
(0.0299443 0 -0.000854906)
(0.0421798 0 -0.0012143)
(0.0527179 0 -0.00153443)
(0.0617446 0 -0.00182067)
(0.0694296 0 -0.00207671)
(0.0759369 0 -0.00230542)
(0.0814102 0 -0.00250846)
(0.0859741 0 -0.00268631)
(0.0897433 0 -0.00283861)
(0.0928255 0 -0.00296443)
(0.095322 0 -0.0030623)
(0.0973307 0 -0.00313035)
(0.0989496 0 -0.00316661)
(0.100273 0 -0.00316846)
(0.101403 0 -0.00313451)
(0.102444 0 -0.00306411)
(0.103497 0 -0.00295648)
(0.104671 0 -0.00281306)
(0.106084 0 -0.00263734)
(0.107861 0 -0.0024376)
(0.110128 0 -0.00222909)
(0.112995 0 -0.00203286)
(0.116553 0 -0.00187681)
(0.120864 0 -0.00179984)
(0.125888 0 -0.00184613)
(0.131456 0 -0.00205596)
(0.13729 0 -0.00245408)
(0.142947 0 -0.00302491)
(0.146089 0 -0.00338744)
(0 0 0)
(0.0159376 0 -0.000492733)
(0.0302577 0 -0.000940354)
(0.0426461 0 -0.00133659)
(0.0533428 0 -0.00169024)
(0.0625437 0 -0.0020077)
(0.0704221 0 -0.00229367)
(0.077145 0 -0.00255148)
(0.0828599 0 -0.00278319)
(0.0876957 0 -0.00298985)
(0.0917711 0 -0.00317166)
(0.0951986 0 -0.00332844)
(0.0980846 0 -0.0034595)
(0.100533 0 -0.00356394)
(0.102646 0 -0.00364106)
(0.104532 0 -0.00369038)
(0.106294 0 -0.00371156)
(0.108035 0 -0.00370523)
(0.109864 0 -0.00367371)
(0.1119 0 -0.00362162)
(0.114268 0 -0.00355628)
(0.117093 0 -0.00348891)
(0.120485 0 -0.0034365)
(0.124543 0 -0.00342125)
(0.12934 0 -0.00346909)
(0.134906 0 -0.00361279)
(0.14112 0 -0.00387944)
(0.147704 0 -0.00428294)
(0.154274 0 -0.00482159)
(0.160267 0 -0.00546011)
(0.163629 0 -0.00587571)
(0 0 0)
(0.0161015 0 -0.000537042)
(0.0305843 0 -0.00102537)
(0.0431313 0 -0.00145829)
(0.053993 0 -0.0018458)
(0.063378 0 -0.00219512)
(0.0714602 0 -0.00251168)
(0.0784066 0 -0.00279944)
(0.0843712 0 -0.00306123)
(0.0894867 0 -0.00329859)
(0.0938752 0 -0.00351225)
(0.0976543 0 -0.00370296)
(0.100935 0 -0.00387091)
(0.103823 0 -0.00401614)
(0.106432 0 -0.00413952)
(0.108878 0 -0.00424286)
(0.11126 0 -0.00432676)
(0.113681 0 -0.00439317)
(0.116259 0 -0.00444746)
(0.119116 0 -0.00449717)
(0.122385 0 -0.00455323)
(0.126184 0 -0.00462925)
(0.130612 0 -0.00474273)
(0.135755 0 -0.00491553)
(0.141677 0 -0.00517037)
(0.148371 0 -0.00552823)
(0.155659 0 -0.00599627)
(0.163214 0 -0.00656169)
(0.170562 0 -0.00719326)
(0.176994 0 -0.00784945)
(0.180854 0 -0.00825237)
(0 0 0)
(0.016267 0 -0.000580817)
(0.0309147 0 -0.00110945)
(0.0436303 0 -0.00157905)
(0.0546659 0 -0.00200068)
(0.0642384 0 -0.00238239)
(0.0725291 0 -0.00273008)
(0.0797064 0 -0.00304856)
(0.085926 0 -0.00334142)
(0.0913231 0 -0.00361071)
(0.096026 0 -0.00385809)
(0.100157 0 -0.00408512)
(0.103829 0 -0.00429295)
(0.107156 0 -0.00448292)
(0.110255 0 -0.00465753)
(0.11324 0 -0.00481929)
(0.116209 0 -0.00497018)
(0.119271 0 -0.00511475)
(0.122545 0 -0.00526052)
(0.126154 0 -0.00541727)
(0.130235 0 -0.00559958)
(0.134898 0 -0.00582267)
(0.140223 0 -0.00610322)
(0.146288 0 -0.00646227)
(0.153151 0 -0.00691913)
(0.160774 0 -0.00748328)
(0.16897 0 -0.00814365)
(0.17742 0 -0.00886121)
(0.185621 0 -0.00956717)
(0.192715 0 -0.0102092)
(0.197874 0 -0.0105152)
(0 0 0)
(0.0164278 0 -0.000623711)
(0.0312454 0 -0.00119236)
(0.0441361 0 -0.0016985)
(0.0553527 0 -0.00215409)
(0.0651176 0 -0.00256841)
(0.0736187 0 -0.0029479)
(0.0810293 0 -0.00329793)
(0.0875042 0 -0.00362253)
(0.0931826 0 -0.00392472)
(0.0981985 0 -0.00420731)
(0.102676 0 -0.00447248)
(0.106733 0 -0.00472239)
(0.110486 0 -0.00495989)
(0.114053 0 -0.00518816)
(0.117539 0 -0.00541018)
(0.121049 0 -0.00563024)
(0.124696 0 -0.00585516)
(0.128595 0 -0.00609406)
(0.132865 0 -0.0063585)
(0.137641 0 -0.00666556)
(0.143018 0 -0.00703108)
(0.149054 0 -0.0074709)
(0.15582 0 -0.00800539)
(0.163357 0 -0.00865162)
(0.171617 0 -0.00941368)
(0.180423 0 -0.0102725)
(0.189502 0 -0.0111751)
(0.198428 0 -0.0120109)
(0.206352 0 -0.0126578)
(0.214776 0 -0.0126938)
(0 0 0)
(0.0165894 0 -0.000666186)
(0.0315781 0 -0.00127452)
(0.0446445 0 -0.00181703)
(0.0560472 0 -0.00230671)
(0.0660121 0 -0.00275378)
(0.0747274 0 -0.00316556)
(0.0823706 0 -0.00354785)
(0.0891006 0 -0.00390523)
(0.0950615 0 -0.00424174)
(0.100388 0 -0.00456094)
(0.105205 0 -0.00486572)
(0.109633 0 -0.00515921)
(0.113791 0 -0.00544524)
(0.11779 0 -0.00572763)
(0.121736 0 -0.00601069)
(0.125738 0 -0.00630067)
(0.129905 0 -0.00660575)
(0.134346 0 -0.00693635)
(0.139176 0 -0.00730576)
(0.14451 0 -0.00773077)
(0.15042 0 -0.00822686)
(0.156952 0 -0.00881044)
(0.164153 0 -0.00950089)
(0.172039 0 -0.0103151)
(0.180535 0 -0.0112584)
(0.189454 0 -0.0123228)
(0.198541 0 -0.0134923)
(0.207402 0 -0.0147423)
(0.215423 0 -0.0161402)
(0.231703 0 -0.0148677)
(0 0 0)
(0.00819098 0 0)
(0.0152571 0 0)
(0.0255561 0 0)
(0.037785 0 0)
(0.0507372 0 0)
(0.063534 0 0)
(0.075576 0 0)
(0.0864724 0 0)
(0.0960125 0 0)
(0.104146 0 0)
(0.110891 0 0)
(0.116281 0 0)
(0.12036 0 0)
(0.123178 0 0)
(0.124791 0 0)
(0.125235 0 0)
(0.12453 0 0)
(0.122685 0 0)
(0.119695 0 0)
(0.115542 0 0)
(0.110199 0 0)
(0.103629 0 0)
(0.0957883 0 0)
(0.0866126 0 0)
(0.0760375 0 0)
(0.0639998 0 0)
(0.0504178 0 0)
(0.0352091 0 0)
(0.0182861 0 0)
(0 0 0)
(0.00350021 0 -0.00407466)
(0.0106167 0 -0.00391373)
(0.0176416 0 -0.00403321)
(0.0277981 0 -0.00407926)
(0.0398065 0 -0.00406768)
(0.0525072 0 -0.00399906)
(0.0650619 0 -0.00388813)
(0.0768783 0 -0.00374363)
(0.0875677 0 -0.00356823)
(0.0969292 0 -0.00337605)
(0.104913 0 -0.00318044)
(0.111529 0 -0.0029825)
(0.116808 0 -0.00278374)
(0.120792 0 -0.00258529)
(0.123535 0 -0.00239316)
(0.125086 0 -0.00221384)
(0.125479 0 -0.00204328)
(0.124731 0 -0.00187938)
(0.122851 0 -0.00172257)
(0.119832 0 -0.0015724)
(0.115655 0 -0.001428)
(0.110291 0 -0.00128829)
(0.103705 0 -0.00115241)
(0.0958516 0 -0.00101892)
(0.0866683 0 -0.000885901)
(0.076086 0 -0.000750975)
(0.0640377 0 -0.000613613)
(0.0504453 0 -0.000473054)
(0.0352288 0 -0.000325544)
(0.018297 0 -0.000167683)
(0 0 0)
(0.0111151 0 -0.00772874)
(0.0175081 0 -0.00764945)
(0.024479 0 -0.00789401)
(0.0342493 0 -0.0079948)
(0.0456411 0 -0.00797053)
(0.0576478 0 -0.00783707)
(0.06952 0 -0.00762303)
(0.0806837 0 -0.00734386)
(0.090774 0 -0.00700588)
(0.0996226 0 -0.00663605)
(0.107168 0 -0.00625635)
(0.113401 0 -0.00586967)
(0.118353 0 -0.00548009)
(0.122066 0 -0.00509472)
(0.124589 0 -0.00472487)
(0.125958 0 -0.00437459)
(0.126197 0 -0.00403928)
(0.125324 0 -0.00371762)
(0.12334 0 -0.00340958)
(0.120235 0 -0.00311417)
(0.115989 0 -0.0028297)
(0.110568 0 -0.00255402)
(0.103933 0 -0.00228447)
(0.0960411 0 -0.00201942)
(0.0868294 0 -0.00175658)
(0.0762236 0 -0.00149118)
(0.0641456 0 -0.00122029)
(0.0505243 0 -0.000940815)
(0.035285 0 -0.000647215)
(0.0183276 0 -0.000333371)
(0 0 0)
(0.0224406 0 -0.0111135)
(0.0280511 0 -0.0111443)
(0.0349642 0 -0.0114997)
(0.0441645 0 -0.0116521)
(0.0546623 0 -0.0116195)
(0.0656648 0 -0.0114334)
(0.0765111 0 -0.0111261)
(0.0866733 0 -0.0107213)
(0.0958511 0 -0.0102391)
(0.103905 0 -0.00971196)
(0.110754 0 -0.00916305)
(0.116383 0 -0.00860171)
(0.120825 0 -0.00803927)
(0.124115 0 -0.00748534)
(0.126286 0 -0.0069524)
(0.12736 0 -0.00644161)
(0.127354 0 -0.0059507)
(0.126278 0 -0.00548108)
(0.124128 0 -0.00503104)
(0.120887 0 -0.00459872)
(0.116528 0 -0.0041817)
(0.111016 0 -0.00377697)
(0.104306 0 -0.00338075)
(0.0963483 0 -0.00299043)
(0.0870822 0 -0.00260279)
(0.0764322 0 -0.00221235)
(0.0643169 0 -0.00181314)
(0.0506612 0 -0.00139863)
(0.0353818 0 -0.000962139)
(0.0183773 0 -0.000495533)
(0 0 0)
(0.0364955 0 -0.0143159)
(0.0414108 0 -0.0144234)
(0.0481937 0 -0.0148472)
(0.0566995 0 -0.0150304)
(0.0661537 0 -0.0149894)
(0.0759524 0 -0.0147583)
(0.0855293 0 -0.0143678)
(0.0944492 0 -0.0138499)
(0.102489 0 -0.0132399)
(0.109521 0 -0.0125712)
(0.115469 0 -0.0118708)
(0.120323 0 -0.0111555)
(0.124108 0 -0.0104404)
(0.126843 0 -0.00973566)
(0.128547 0 -0.00905209)
(0.12923 0 -0.00839405)
(0.1289 0 -0.00776201)
(0.127557 0 -0.00715648)
(0.125187 0 -0.00657523)
(0.121763 0 -0.00601572)
(0.117253 0 -0.00547489)
(0.111616 0 -0.00494908)
(0.104803 0 -0.00443406)
(0.096758 0 -0.00392566)
(0.0874164 0 -0.00341904)
(0.076703 0 -0.00290805)
(0.0645386 0 -0.00238501)
(0.0508411 0 -0.0018414)
(0.0355115 0 -0.00126782)
(0.0184441 0 -0.000653172)
(0 0 0)
(0.0524973 0 -0.0173819)
(0.056791 0 -0.017509)
(0.0633451 0 -0.0179558)
(0.0710795 0 -0.0181425)
(0.0794144 0 -0.0180821)
(0.0878859 0 -0.017801)
(0.0960513 0 -0.0173331)
(0.10359 0 -0.0167175)
(0.110336 0 -0.015994)
(0.116188 0 -0.0151987)
(0.121092 0 -0.0143658)
(0.125046 0 -0.0135179)
(0.128058 0 -0.0126692)
(0.130135 0 -0.0118309)
(0.13128 0 -0.0110122)
(0.131496 0 -0.0102227)
(0.130781 0 -0.00946531)
(0.129117 0 -0.00873726)
(0.126479 0 -0.00803655)
(0.122834 0 -0.00736028)
(0.11814 0 -0.00670496)
(0.11235 0 -0.00606645)
(0.10541 0 -0.00543995)
(0.0972578 0 -0.00482018)
(0.0878253 0 -0.00420096)
(0.0770345 0 -0.00357481)
(0.0648024 0 -0.00293289)
(0.0510441 0 -0.00226554)
(0.0356551 0 -0.00156105)
(0.0185194 0 -0.000804805)
(0 0 0)
(0.0697778 0 -0.0202966)
(0.0735117 0 -0.020405)
(0.0797358 0 -0.0208392)
(0.0866499 0 -0.0210045)
(0.0938276 0 -0.0209088)
(0.100913 0 -0.0205688)
(0.107599 0 -0.0200232)
(0.113678 0 -0.0193176)
(0.119038 0 -0.0184925)
(0.123612 0 -0.0175861)
(0.127382 0 -0.0166388)
(0.130353 0 -0.0156771)
(0.132515 0 -0.0147138)
(0.133864 0 -0.0137608)
(0.134389 0 -0.0128261)
(0.134082 0 -0.0119208)
(0.132932 0 -0.0110517)
(0.130906 0 -0.0102151)
(0.127965 0 -0.00940739)
(0.124067 0 -0.00862547)
(0.119162 0 -0.00786563)
(0.113196 0 -0.0071234)
(0.106109 0 -0.00639348)
(0.0978335 0 -0.00566973)