/*--------------------------------*- C++ -*----------------------------------*\
| =========                 |                                                 |
| \\      /  F ield         | OpenFOAM: The Open Source CFD Toolbox           |
|  \\    /   O peration     | Version:  dev                                   |
|   \\  /    A nd           | Web:      www.OpenFOAM.org                      |
|    \\/     M anipulation  |                                                 |
\*---------------------------------------------------------------------------*/
FoamFile
{
    version     2.0;
    format      ascii;
    class       volVectorField;
    location    "1.7";
    object      U;
}
// * * * * * * * * * * * * * * * * * * * * * * * * * * * * * * * * * * * * * //

dimensions      [0 1 -1 0 0 0 0];

internalField   nonuniform List<vector> 
465
(
(2.03024 0 -0.0395284)
(2.15983 0 -0.0374323)
(2.27717 0 -0.0350097)
(2.38266 0 -0.0321152)
(2.47601 0 -0.0287828)
(2.5571 0 -0.0252908)
(2.62632 -1.12993e-21 -0.0216252)
(2.68393 -1.2786e-21 -0.0177997)
(2.73028 0 -0.014659)
(2.76768 0 -0.0128981)
(2.79989 0 -0.0118177)
(2.82927 0 -0.0105289)
(2.85612 0 -0.00977896)
(2.88148 2.38673e-21 -0.0114089)
(2.909 0 -0.0165064)
(2.94429 0 -0.0249476)
(2.99387 0 -0.0361402)
(3.06493 5.42089e-23 -0.0494737)
(3.16408 -5.33418e-23 -0.0636436)
(3.32881 0 -0.073991)
(1.9656 2.00493e-21 -0.106027)
(2.0742 9.36357e-22 -0.100533)
(2.17068 -2.67365e-21 -0.0945938)
(2.25641 0 -0.0876535)
(2.33165 -2.28297e-21 -0.0795956)
(2.39602 -1.48118e-21 -0.0714418)
(2.45026 1.12414e-21 -0.0631491)
(2.4949 3.77869e-21 -0.0534473)
(2.52784 -3.92446e-22 -0.0439457)
(2.54825 3.85838e-22 -0.0386143)
(2.55978 0 -0.0379934)
(2.56593 0 -0.0382177)
(2.56476 0 -0.0360492)
(2.55184 -2.0838e-21 -0.0319762)
(2.52672 -5.32794e-21 -0.0288735)
(2.49418 -4.86803e-21 -0.0300124)
(2.46318 -1.50251e-22 -0.0383297)
(2.44791 4.34107e-21 -0.0576257)
(2.47003 -7.711e-23 -0.0928202)
(2.58486 -3.59903e-23 -0.143605)
(1.48952 -3.81892e-21 -0.169296)
(1.54505 5.22219e-21 -0.16046)
(1.58827 8.90435e-22 -0.151381)
(1.62087 -2.4564e-21 -0.141031)
(1.64357 -1.66528e-21 -0.128177)
(1.65302 1.95101e-21 -0.114797)
(1.64936 -4.96999e-21 -0.103183)
(1.63799 -7.01143e-21 -0.0904687)
(1.61159 0 -0.073168)
(1.55254 -4.54815e-22 -0.0526736)
(1.45939 4.48426e-22 -0.032958)
(1.35269 -4.41792e-21 -0.016506)
(1.25476 0 -0.0042664)
(1.17874 0 0.00180015)
(1.13182 -1.40205e-22 -0.000655106)
(1.11554 -1.12483e-22 -0.0156149)
(1.14042 9.54957e-21 -0.0503087)
(1.21882 -1.27146e-20 -0.112475)
(1.36056 1.92788e-22 -0.205748)
(1.58583 -7.35687e-23 -0.330362)
(0.946748 0 -0.208245)
(0.942766 -2.00405e-22 -0.194815)
(0.92557 0 -0.180966)
(0.895736 3.27594e-21 -0.166087)
(0.858846 2.5425e-21 -0.147098)
(0.803582 8.94039e-22 -0.12212)
(0.712808 4.99831e-21 -0.092575)
(0.604398 4.50836e-21 -0.058945)
(0.498184 7.08407e-21 -0.0229956)
(0.402658 6.43073e-21 0.00716564)
(0.328442 8.26015e-21 0.0240685)
(0.27701 1.3651e-20 0.0271094)
(0.246305 -9.96782e-21 0.0186165)
(0.239308 0 -8.48801e-05)
(0.253308 1.66733e-20 -0.0319146)
(0.312914 4.89645e-21 -0.084485)
(0.416279 -1.0504e-20 -0.159374)
(0.55574 8.93611e-21 -0.258315)
(0.731753 7.27158e-23 -0.381234)
(0.908927 -7.08158e-23 -0.53773)
(0.371024 1.588e-21 -0.220323)
(0.308789 -6.26991e-21 -0.200835)
(0.233805 1.52326e-21 -0.177822)
(0.136722 1.69541e-21 -0.150639)
(0.0295653 1.94923e-21 -0.118182)
(-0.0680226 0 -0.0840492)
(-0.153273 1.27977e-21 -0.0535599)
(-0.223149 -1.25976e-21 -0.0280567)
(-0.277826 -5.36351e-21 -0.00768438)
(-0.314692 -8.06823e-21 0.00621829)
(-0.33672 3.67802e-22 0.0105198)
(-0.342954 -9.14632e-21 0.00346003)
(-0.331382 9.91745e-21 -0.0152308)
(-0.30133 1.06355e-20 -0.0475352)
(-0.248084 -1.0028e-20 -0.0989005)
(-0.163681 -3.42487e-22 -0.171801)
(-0.0556047 -1.02562e-20 -0.266014)
(0.0775908 5.65709e-23 -0.385616)
(0.214813 1.55687e-22 -0.521792)
(0.293683 6.38611e-23 -0.680155)
(-0.205987 0 -0.199202)
(-0.308901 6.00184e-21 -0.174917)
(-0.408615 1.58737e-21 -0.148915)
(-0.500242 -1.56467e-21 -0.123004)
(-0.580716 4.01748e-21 -0.0978815)
(-0.649195 0 -0.0734452)
(-0.704866 0 -0.0505935)
(-0.743969 0 -0.031377)
(-0.767058 6.97882e-21 -0.017401)
(-0.77671 0 -0.0106445)
(-0.772236 -1.85148e-20 -0.0138918)
(-0.753126 9.57219e-21 -0.0292993)
(-0.720192 5.72613e-22 -0.0585484)
(-0.671187 -9.23314e-21 -0.104923)
(-0.602997 -6.61652e-22 -0.171991)
(-0.51912 0 -0.260675)
(-0.424345 9.58597e-21 -0.368869)
(-0.329401 -1.49925e-20 -0.490596)
(-0.258274 -5.66698e-23 -0.618031)
(-0.23737 5.55848e-23 -0.73896)
(-0.675493 2.99652e-21 -0.16811)
(-0.773302 -1.04035e-20 -0.148589)
(-0.85983 1.50331e-21 -0.127881)
(-0.934377 -6.95218e-21 -0.106692)
(-0.996123 -7.48532e-21 -0.0861078)
(-1.04344 8.11276e-21 -0.0672433)
(-1.07504 2.66302e-21 -0.0512451)
(-1.0933 -1.42455e-21 -0.0392699)
(-1.09868 -6.90333e-21 -0.0326991)
(-1.09115 0 -0.0336524)
(-1.07113 -3.54847e-22 -0.0446465)
(-1.03951 -1.94571e-20 -0.0677857)
(-0.997245 -1.03281e-20 -0.105754)
(-0.942962 -6.60564e-22 -0.161527)
(-0.878069 6.52752e-22 -0.237131)
(-0.806727 0 -0.332265)
(-0.734502 0 -0.44296)
(-0.673845 1.49032e-20 -0.560937)
(-0.644057 4.84151e-23 -0.673841)
(-0.646748 -4.77815e-23 -0.760488)
(-1.01809 2.74222e-21 -0.134214)
(-1.10299 0 -0.120614)
(-1.17482 -6.33182e-21 -0.105907)
(-1.23239 1.59372e-20 -0.0912696)
(-1.27517 6.46091e-21 -0.0777382)
(-1.304 1.92109e-21 -0.0660778)
(-1.32032 2.40248e-22 -0.0571324)
(-1.32455 -1.51002e-21 -0.052083)
(-1.31699 -2.00139e-21 -0.0525484)
(-1.29824 8.66868e-22 -0.0605045)
(-1.26945 -7.45458e-21 -0.0780694)
(-1.23217 7.31783e-21 -0.107593)
(-1.18679 1.15068e-20 -0.151785)
(-1.13471 -6.48023e-22 -0.213134)
(-1.07849 2.14652e-20 -0.292748)
(-1.02189 -1.9342e-20 -0.389322)
(-0.970857 -2.33257e-22 -0.49724)
(-0.936776 2.30484e-22 -0.60609)
(-0.932034 0 -0.70208)
(-0.945274 0 -0.765514)
(-1.25597 -8.36439e-21 -0.0995677)
(-1.32413 0 -0.0937485)
(-1.37751 6.25683e-21 -0.0863854)
(-1.41821 -7.0766e-21 -0.0788249)
(-1.44712 -1.05722e-20 -0.0723689)
(-1.46371 -1.63499e-20 -0.0678088)
(-1.46788 -1.35924e-21 -0.0657997)
(-1.46056 0 -0.0673908)
(-1.44291 1.40686e-20 -0.0741215)
(-1.41619 2.0658e-21 -0.0878273)
(-1.38196 1.86935e-20 -0.110551)
(-1.34159 -2.0437e-20 -0.144647)
(-1.29665 2.09163e-20 -0.192477)
(-1.2496 0 -0.25603)
(-1.20329 -2.03934e-20 -0.336078)
(-1.16112 1.89321e-20 -0.430674)
(-1.12849 0 -0.533122)
(-1.11452 0 -0.631671)
(-1.12558 6.90468e-21 -0.711695)
(-1.14417 0 -0.75751)
(-1.39396 2.67637e-21 -0.0675203)
(-1.44564 2.74877e-21 -0.0695839)
(-1.48569 -7.86464e-21 -0.0688261)
(-1.51457 3.68472e-21 -0.0677225)
(-1.53173 -1.98081e-21 -0.0682472)
(-1.53671 1.16236e-20 -0.0710116)
(-1.52982 -1.4169e-20 -0.0760035)
(-1.51241 0 -0.0837833)
(-1.48633 -1.60428e-20 -0.0957942)
(-1.45336 1.19149e-21 -0.113955)
(-1.41506 -2.44455e-21 -0.140376)
(-1.37323 2.15678e-20 -0.177047)
(-1.33043 -9.61805e-23 -0.225933)
(-1.28945 -2.03249e-20 -0.28875)
(-1.25316 2.01173e-20 -0.366249)
(-1.22448 -2.91621e-22 -0.456312)
(-1.20767 0 -0.551774)
(-1.20927 1.11424e-20 -0.640101)
(-1.23097 -6.89241e-21 -0.706354)
(-1.25259 0 -0.738948)
(-1.44824 -2.8297e-22 -0.0380965)
(-1.4855 -2.9102e-21 -0.0467141)
(-1.51279 7.76801e-21 -0.0517335)
(-1.53023 -1.64176e-21 -0.057074)
(-1.5363 0 -0.0650011)
(-1.53011 0 -0.0753745)
(-1.51252 -6.45593e-22 -0.087147)
(-1.48581 1.77345e-20 -0.100321)
(-1.45249 -1.98938e-20 -0.11643)
(-1.41437 -1.84714e-20 -0.137722)
(-1.3732 -2.23575e-20 -0.166162)
(-1.33135 6.75161e-22 -0.203372)
(-1.29157 -2.19282e-20 -0.250909)
(-1.25692 2.08843e-20 -0.310386)
(-1.2302 -1.97483e-20 -0.382775)
(-1.2139 6.41223e-23 -0.466315)
(-1.21093 -6.34896e-23 -0.553984)
(-1.22516 -4.1989e-24 -0.632882)
(-1.25481 -6.51678e-21 -0.687823)
(-1.27862 -4.12855e-24 -0.710306)
(-1.4264 2.18948e-21 -0.012093)
(-1.44693 -2.15769e-21 -0.0259084)
(-1.46101 0 -0.0350832)
(-1.46778 0 -0.0462752)
(-1.46371 0 -0.0620854)
(-1.44689 9.54998e-21 -0.0806011)
(-1.41891 1.4739e-20 -0.0988192)
(-1.38353 -1.55996e-20 -0.116196)
(-1.34391 1.89821e-20 -0.134919)
(-1.3022 1.70972e-20 -0.15774)
(-1.26014 2.23233e-20 -0.186571)
(-1.21971 3.5482e-22 -0.222555)
(-1.18371 -2.37237e-20 -0.266748)
(-1.15531 -1.73986e-22 -0.320622)
(-1.13741 0 -0.385607)
(-1.13231 0 -0.460876)
(-1.14167 1.55745e-20 -0.540224)
(-1.16697 -1.09657e-20 -0.610832)
(-1.20351 6.46622e-21 -0.65694)
(-1.22948 -4.37693e-21 -0.6715)
(-1.32686 0 0.00670835)
(-1.32729 4.17841e-21 -0.0082447)
(-1.32847 -1.46904e-21 -0.0179525)
(-1.32652 -6.49939e-21 -0.0338988)
(-1.31359 3.07559e-21 -0.0586753)
(-1.28596 -2.50903e-20 -0.0864696)
(-1.24689 1.57612e-21 -0.110662)
(-1.20241 1.15336e-21 -0.130339)
(-1.15814 2.0632e-20 -0.149292)
(-1.11586 -1.28275e-21 -0.171779)
(-1.07579 -2.46376e-20 -0.199703)
(-1.03903 2.56751e-20 -0.233267)
(-1.00825 -2.04419e-21 -0.272721)
(-0.986646 -2.33174e-23 -0.31931)
(-0.977081 1.62886e-22 -0.374978)
(-0.981903 -1.61442e-22 -0.440225)
(-1.00248 1.04837e-21 -0.510546)
(-1.03833 -1.23467e-20 -0.573935)
(-1.08217 3.69154e-23 -0.613713)
(-1.11118 9.28149e-21 -0.622199)
(-1.14424 0 0.0125227)
(-1.11973 -4.15201e-21 0.00578881)
(-1.10983 0 0.00237957)
(-1.10278 6.0467e-21 -0.0172219)
(-1.08186 0 -0.0540362)
(-1.04033 9.54259e-21 -0.0936416)
(-0.984564 1.74872e-20 -0.12257)
(-0.930501 -1.82654e-20 -0.140273)
(-0.884214 -4.33021e-20 -0.155611)
(-0.845042 -3.13524e-22 -0.175741)
(-0.810812 -2.91259e-21 -0.20199)
(-0.781383 -5.30496e-20 -0.232662)
(-0.759112 -2.81472e-21 -0.266817)
(-0.746966 -2.75562e-20 -0.305462)
(-0.747046 0 -0.350727)
(-0.761267 -3.06785e-22 -0.404252)
(-0.792448 2.23043e-21 -0.4643)
(-0.839362 1.23998e-20 -0.520936)
(-0.892564 1.64928e-22 -0.556857)
(-0.926753 7.8077e-22 -0.561215)
(-0.8702 -3.49155e-21 -0.0067377)
(-0.81492 0 0.0164191)
(-0.800646 3.50526e-21 0.0314566)
(-0.795175 -3.45591e-21 0.00785269)
(-0.763396 -1.1733e-21 -0.0490979)
(-0.69065 1.16079e-21 -0.106023)
(-0.611145 -1.57935e-20 -0.13489)
(-0.544896 1.94658e-20 -0.142451)
(-0.497518 2.27113e-20 -0.148338)
(-0.463387 -2.78073e-20 -0.163638)
(-0.436876 -2.96421e-21 -0.187313)
(-0.41777 -3.47505e-21 -0.214377)
(-0.408849 2.91914e-20 -0.242692)
(-0.412635 2.66214e-20 -0.27365)
(-0.429427 -2.9157e-20 -0.309367)
(-0.458293 2.58546e-20 -0.351217)
(-0.50166 -1.88563e-20 -0.399278)
(-0.561789 1.89821e-22 -0.448018)
(-0.62843 -1.88675e-22 -0.481941)
(-0.67247 1.02065e-21 -0.484528)
(-0.546666 3.22483e-22 -0.113877)
(-0.456512 4.79437e-21 -0.046076)
(-0.386577 -2.02769e-21 0.0566442)
(-0.391613 -7.09863e-22 0.0970055)
(-0.398419 3.31533e-21 0.0461613)
(-0.323153 -5.40204e-22 -0.0658136)
(-0.206721 5.34376e-22 -0.141724)
(-0.0913342 0 -0.149474)
(-0.00642592 9.28624e-23 -0.128122)
(0.0452127 -2.65005e-20 -0.116649)
(0.078529 2.71577e-20 -0.126406)
(0.10303 2.75857e-20 -0.147092)
(0.115272 -2.33542e-21 -0.16833)
(0.108945 -2.02061e-21 -0.188324)
(0.0812183 3.66974e-20 -0.21057)
(0.0327283 2.43741e-20 -0.239385)
(-0.0299989 4.21183e-21 -0.274876)
(-0.0966697 2.13192e-21 -0.311837)
(-0.177638 -1.03161e-21 -0.351265)
(-0.264223 2.32877e-20 -0.382406)
(-0.330137 -6.46427e-21 -0.384445)
(1.53208 -6.74732e-21 0.273575)
(0.777099 1.54158e-21 0.0647452)
(0.371092 -3.6995e-21 0.00559535)
(0.192309 -1.99535e-21 -0.0589268)
(0.30017 -9.92724e-23 -0.157458)
(0.464009 -7.08834e-21 -0.230917)
(0.543515 0 -0.239306)
(0.612443 3.48735e-22 -0.184147)
(0.669985 -3.45368e-22 -0.112159)
(0.715556 2.54079e-20 -0.0716152)
(0.760707 3.11291e-20 -0.0712734)
(0.810073 2.15371e-21 -0.0825935)
(0.850699 2.8812e-20 -0.085323)
(0.867086 -3.02324e-23 -0.0799301)
(0.848664 -7.01159e-20 -0.0772201)
(0.787904 0 -0.088375)
(0.689207 -2.79385e-20 -0.117353)
(0.550166 0 -0.165579)
(0.41333 0 -0.214281)
(0.29895 -2.21534e-20 -0.242084)
(0.173486 -1.25325e-22 -0.246001)
(4.85751 -3.83501e-21 1.05535)
(4.40949 0 0.851456)
(3.97188 2.26034e-23 0.625012)
(3.37619 1.95472e-20 0.374227)
(2.73769 0 0.160099)
(2.19893 0 0.0127339)
(1.83619 1.6666e-21 -0.0796656)
(1.71208 -3.22388e-20 -0.123913)
(1.70192 -2.98677e-20 -0.137454)
(1.72591 4.73401e-21 -0.121929)
(1.75498 -4.69684e-21 -0.0803077)
(1.77602 0 -0.0242168)
(1.78026 3.25075e-20 0.0322702)
(1.7615 -3.55484e-20 0.0793469)
(1.71258 0 0.111661)
(1.62534 0 0.12374)
(1.47746 1.12108e-21 0.104825)
(1.26051 -3.10186e-20 0.0479635)
(1.02518 9.20911e-21 -0.00982035)
(7.50057 7.87241e-22 1.38797)
(7.06608 -1.16524e-20 1.21833)
(6.63573 -1.04966e-21 1.0788)
(6.21839 0 0.948618)
(5.81557 0 0.808836)
(5.36654 2.84566e-20 0.64891)
(4.87991 0 0.491716)
(4.39582 0 0.361758)
(3.95992 5.64311e-21 0.272516)
(3.60437 -5.28274e-20 0.226171)
(3.33858 5.34337e-21 0.217044)
(3.15006 2.84471e-20 0.23567)
(3.01477 4.8904e-21 0.271748)
(2.90704 6.60068e-20 0.315336)
(2.80558 5.01821e-22 0.357766)
(2.70265 3.02062e-20 0.389428)
(2.52924 -9.13448e-21 0.394982)
(9.78159 0 1.82803)
(9.42231 -3.46086e-20 1.67408)
(9.06152 4.06035e-21 1.53131)
(8.6972 4.15804e-22 1.39947)
(8.32446 5.29905e-21 1.28395)
(7.9418 4.50966e-20 1.18747)
(7.55071 -4.94102e-21 1.10639)
(7.15411 -5.5294e-21 1.03367)
(6.75561 -4.28145e-21 0.964529)
(6.36082 4.76061e-20 0.899696)
(5.97941 -4.51837e-20 0.844692)
(5.62492 0 0.806261)
(5.3111 -6.40775e-20 0.788023)
(5.04665 0 0.787677)
(4.83632 0 0.797315)
(4.63033 8.4306e-21 0.810051)
(11.1533 1.02748e-20 2.02912)
(10.8634 -2.09154e-20 1.9159)
(10.5635 -3.76507e-20 1.81639)
(10.2538 7.63216e-21 1.73025)
(9.93591 0 1.65638)
(9.61252 0 1.59354)
(9.28623 9.5706e-20 1.54089)
(8.95997 -1.04273e-19 1.49788)
(8.63784 9.03895e-21 1.46368)
(8.32586 0 1.43685)
(8.03203 0 1.41559)
(7.76536 -1.29755e-21 1.3981)
(7.53943 1.90979e-21 1.38244)
(7.3153 -8.56778e-21 1.36467)
(12.1926 1.26795e-19 2.21602)
(11.9659 -5.96492e-20 2.14625)
(11.7325 4.15213e-20 2.08937)
(11.4948 1.26812e-20 2.04409)
(11.2551 -4.7434e-20 2.00863)
(11.0159 -1.38122e-20 1.98113)
(10.7805 5.37374e-20 1.95991)
(10.5535 7.29823e-20 1.94334)
(10.3403 4.39136e-21 1.92969)
(10.1471 -4.74684e-20 1.91675)
(9.98366 -2.85035e-20 1.90168)
(9.81999 0 1.87755)
(13.1716 2.85846e-20 2.44067)
(13.0197 -1.10174e-19 2.39859)
(12.8646 1.29731e-20 2.36707)
(12.7088 -1.29317e-20 2.34446)
(12.5546 4.59139e-20 2.32901)
(12.4049 0 2.31895)
(12.2632 -6.81937e-21 2.31234)
(12.1333 1.17511e-20 2.30695)
(12.0189 4.41391e-20 2.30011)
(11.926 2.48916e-20 2.28898)
(11.8366 0 2.26793)
(13.8092 -2.71234e-20 2.57442)
(13.7264 8.14368e-20 2.56153)
(13.6461 -1.13369e-20 2.55498)
(13.5706 1.1303e-20 2.55289)
(13.5023 2.62921e-21 2.55321)
(13.4436 0 2.55362)
(13.3967 0 2.55173)
(13.3645 0 2.54546)
(13.3413 0 2.53136)
(14.3974 -5.24242e-20 2.67929)
(14.3763 0 2.6784)
(14.3597 -4.48205e-20 2.68118)
(14.3494 -7.20376e-20 2.68569)
(14.3468 6.44016e-21 2.6899)
(14.3526 -5.15757e-20 2.6919)
(14.368 0 2.69039)
(14.3982 0 2.68364)
(14.8592 1.93346e-20 2.72667)
(14.8918 7.82345e-20 2.73333)
(14.9303 -6.94908e-20 2.73976)
(14.9749 9.69816e-20 2.74456)
(15.0257 -6.50194e-22 2.74697)
(15.0963 1.42254e-20 2.74643)
(15.212 -3.50195e-20 2.71865)
(15.2791 6.08184e-20 2.72606)
(15.3508 -4.28424e-20 2.73257)
(15.4265 -1.01958e-21 2.73778)
(15.5264 -2.96283e-20 2.74176)
(15.556 0 2.67549)
(15.6486 -1.51016e-21 2.68236)
(15.7686 3.23584e-20 2.6892)
(15.7539 0 2.59604)
(15.8874 -1.57355e-20 2.60432)
(15.9302 1.64399e-21 2.49832)
)
;

boundaryField
{
    inlet
    {
        type            fixedValue;
        value           nonuniform 0();
    }
    outlet
    {
        type            zeroGradient;
    }
    flap
    {
        type            movingWallVelocity;
        value           nonuniform 0();
    }
    upperWall
    {
        type            noSlip;
    }
    lowerWall
    {
        type            noSlip;
    }
    frontAndBack
    {
        type            empty;
    }
    procBoundary5to2
    {
        type            processor;
        value           nonuniform List<vector> 
34
(
(5.96345 -4.38324e-21 1.45501)
(5.38342 -1.10465e-20 1.2508)
(5.38342 -1.10465e-20 1.2508)
(8.35306 -6.9666e-21 1.8093)
(7.92678 -1.82548e-20 1.59116)
(7.92678 -1.82548e-20 1.59116)
(10.1364 2.9543e-20 1.99925)
(10.1364 2.9543e-20 1.99925)
(11.7079 -9.75685e-21 2.297)
(11.4347 -4.26641e-20 2.15591)
(11.4347 -4.26641e-20 2.15591)
(12.618 0 2.39523)
(12.4104 -4.36798e-20 2.29909)
(12.4104 -4.36798e-20 2.29909)
(13.3181 8.18502e-20 2.49462)
(13.3181 8.18502e-20 2.49462)
(13.9735 -6.24238e-20 2.62573)
(13.8923 -2.56617e-20 2.59534)
(13.8923 -2.56617e-20 2.59534)
(14.4216 0 2.68563)
(14.4216 0 2.68563)
(14.8089 -2.72019e-20 2.71934)
(14.8319 5.24316e-20 2.72145)
(14.8319 5.24316e-20 2.72145)
(15.1494 -2.33655e-20 2.71134)
(15.1494 -2.33655e-20 2.71134)
(15.3804 3.94124e-20 2.66073)
(15.4665 0 2.66821)
(15.4665 0 2.66821)
(15.6504 -4.59456e-20 2.58846)
(15.6504 -4.59456e-20 2.58846)
(15.7876 -5.57826e-21 2.48962)
(15.7876 -5.57826e-21 2.48962)
(15.9288 1.5392e-20 2.3785)
)
;
    }
    procBoundary5to4
    {
        type            processor;
        value           nonuniform List<vector> 
18
(
(1.88697 6.49759e-22 -0.0413421)
(1.84274 0 -0.111233)
(1.41946 0 -0.177844)
(0.936198 0 -0.220944)
(0.420548 -3.75896e-21 -0.237348)
(-0.106548 3.52139e-21 -0.220756)
(-0.568487 -6.19659e-21 -0.186585)
(-0.920012 3.18383e-21 -0.146596)
(-1.17155 -2.7818e-21 -0.103635)
(-1.32843 2.53262e-21 -0.0616016)
(-1.39796 2.20945e-21 -0.0231768)
(-1.39497 0 0.012073)
(-1.32077 -1.48596e-21 0.0390119)
(-1.17466 1.47499e-21 0.0496686)
(-0.957174 7.12231e-22 0.0264464)
(-0.957174 7.12231e-22 0.0264464)
(-0.718207 3.82423e-21 -0.0737356)
(2.30185 1.00433e-21 0.574924)
)
;
    }
}


// ************************************************************************* //
