/*--------------------------------*- C++ -*----------------------------------*\
| =========                 |                                                 |
| \\      /  F ield         | OpenFOAM: The Open Source CFD Toolbox           |
|  \\    /   O peration     | Version:  dev                                   |
|   \\  /    A nd           | Web:      www.OpenFOAM.org                      |
|    \\/     M anipulation  |                                                 |
\*---------------------------------------------------------------------------*/
FoamFile
{
    version     2.0;
    format      ascii;
    class       pointVectorField;
    location    "0.43";
    object      pointDisplacement;
}
// * * * * * * * * * * * * * * * * * * * * * * * * * * * * * * * * * * * * * //

dimensions      [0 1 0 0 0 0 0];

internalField   nonuniform List<vector> 
1028
(
(0.0628607 0 -0.00089064)
(0.0643433 0 -0.000994314)
(0.0632072 0 -0.000997392)
(0.0645999 0 -0.00110241)
(0.0659072 0 -0.00121727)
(0.0671097 0 -0.00134127)
(0.063387 0 -0.00108935)
(0.0646902 0 -0.00119363)
(0.0658962 0 -0.00130583)
(0.0669916 0 -0.00142538)
(0.0679617 0 -0.00155166)
(0.0687937 0 -0.00168433)
(0.0634198 0 -0.00116719)
(0.0646381 0 -0.00126941)
(0.0657528 0 -0.00137795)
(0.0667543 0 -0.00149227)
(0.0676327 0 -0.00161175)
(0.0683796 0 -0.0017359)
(0.0689891 0 -0.00186441)
(0.0694582 0 -0.00199696)
(0.0633244 0 -0.00123177)
(0.0644649 0 -0.0013311)
(0.0654984 0 -0.00143539)
(0.0664183 0 -0.00154402)
(0.0672186 0 -0.00165638)
(0.0678943 0 -0.00177188)
(0.0684426 0 -0.00188991)
(0.0688629 0 -0.00200975)
(0.0691568 0 -0.00213024)
(0.0693149 0 -0.00223532)
(0.0631179 0 -0.00128407)
(0.0641878 0 -0.00137995)
(0.0651494 0 -0.00147954)
(0.0659986 0 -0.00158225)
(0.0667323 0 -0.00168742)
(0.0673482 0 -0.00179441)
(0.0678458 0 -0.00190249)
(0.0682261 0 -0.00201078)
(0.0684918 0 -0.00211811)
(0.0686354 0 -0.00221057)
(0.0628137 0 -0.00132491)
(0.0638203 0 -0.00141691)
(0.0647185 0 -0.00151157)
(0.0655065 0 -0.00160826)
(0.0661834 0 -0.00170636)
(0.0667489 0 -0.00180519)
(0.067204 0 -0.00190399)
(0.067551 0 -0.00200189)
(0.0677935 0 -0.00209786)
(0.0679248 0 -0.00217978)
(0.0624231 0 -0.00135494)
(0.0633732 0 -0.0014428)
(0.0642157 0 -0.00153239)
(0.0649508 0 -0.00162312)
(0.065579 0 -0.00171437)
(0.0661017 0 -0.00180548)
(0.066521 0 -0.00189574)
(0.06684 0 -0.00198435)
(0.0670628 0 -0.00207044)
(0.0671836 0 -0.00214339)
(0.0619557 0 -0.00137469)
(0.0628558 0 -0.00145825)
(0.0636495 0 -0.00154276)
(0.0643386 0 -0.00162766)
(0.064925 0 -0.00171235)
(0.0654111 0 -0.00179624)
(0.0658 0 -0.00187868)
(0.0660952 0 -0.00195897)
(0.0663011 0 -0.00203641)
(0.0664128 0 -0.00210163)
(0.0614205 0 -0.00138463)
(0.0622761 0 -0.00146381)
(0.0630271 0 -0.00154329)
(0.0636762 0 -0.00162252)
(0.0642265 0 -0.001701)
(0.0646812 0 -0.00177817)
(0.065044 0 -0.00185345)
(0.0653188 0 -0.00192629)
(0.06551 0 -0.00199608)
(0.0656136 0 -0.00205457)
(0.0608255 0 -0.00138513)
(0.0616416 0 -0.00145989)
(0.062355 0 -0.00153442)
(0.0629693 0 -0.00160821)
(0.0634883 0 -0.0016808)
(0.0639159 0 -0.00175172)
(0.0642561 0 -0.00182047)
(0.0645132 0 -0.00188658)
(0.0646916 0 -0.00194959)
(0.0647878 0 -0.00200214)
(0.0592929 0 -0.00130593)
(0.0601784 0 -0.00137644)
(0.0609594 0 -0.0014468)
(0.0616396 0 -0.00151648)
(0.0622234 0 -0.00158505)
(0.0627152 0 -0.0016521)
(0.0631192 0 -0.00171721)
(0.0634399 0 -0.00177997)
(0.0636815 0 -0.00184)
(0.0638486 0 -0.00189691)
(0.0639382 0 -0.00194419)
(0.0586333 0 -0.00129216)
(0.0594865 0 -0.00135872)
(0.0602362 0 -0.0014247)
(0.0608871 0 -0.00148967)
(0.0614442 0 -0.00155324)
(0.0619122 0 -0.00161506)
(0.0622957 0 -0.00167477)
(0.0625992 0 -0.00173202)
(0.0628272 0 -0.00178651)
(0.0629843 0 -0.00183794)
(0.0630678 0 -0.0018805)
(0.0579328 0 -0.00126941)
(0.0587569 0 -0.00133198)
(0.059479 0 -0.00139366)
(0.0601041 0 -0.00145406)
(0.0606378 0 -0.00151286)
(0.0610849 0 -0.00156974)
(0.0614503 0 -0.0016244)
(0.0617388 0 -0.00167658)
(0.0619548 0 -0.001726)
(0.0621029 0 -0.00177245)
(0.0621809 0 -0.00181074)
(0.0571996 0 -0.00123763)
(0.0579977 0 -0.0012962)
(0.0586952 0 -0.00135364)
(0.0592977 0 -0.00140962)
(0.0598106 0 -0.00146384)
(0.0602394 0 -0.00151605)
(0.060589 0 -0.001566)
(0.0608642 0 -0.00161345)
(0.0610696 0 -0.00165822)
(0.0612096 0 -0.00170011)
(0.0612826 0 -0.00173453)
(0.0564424 0 -0.0011967)
(0.0572174 0 -0.00125126)
(0.0578932 0 -0.00130454)
(0.0584755 0 -0.00135621)
(0.0589703 0 -0.00140604)
(0.059383 0 -0.00145381)
(0.0597186 0 -0.00149931)
(0.0599821 0 -0.00154236)
(0.060178 0 -0.00158281)
(0.0603107 0 -0.00162052)
(0.060379 0 -0.00165139)
(0.0556711 0 -0.00114641)
(0.0564253 0 -0.00119696)
(0.0570818 0 -0.0012461)
(0.0576464 0 -0.00129357)
(0.0581252 0 -0.00133916)
(0.0585236 0 -0.00138269)
(0.0588469 0 -0.00142398)
(0.0591 0 -0.00146289)
(0.0592875 0 -0.00149931)
(0.0594136 0 -0.00153314)
(0.0594776 0 -0.00156073)
(0.0548959 0 -0.00108647)
(0.0556317 0 -0.00113296)
(0.0562711 0 -0.001178)
(0.0568201 0 -0.00122134)
(0.0572847 0 -0.00126279)
(0.0576706 0 -0.00130223)
(0.0579831 0 -0.0013395)
(0.058227 0 -0.00137449)
(0.0584069 0 -0.00140712)
(0.0585271 0 -0.00143732)
(0.0585872 0 -0.00146187)
(0.0541285 0 -0.00101645)
(0.054848 0 -0.00105883)
(0.0554723 0 -0.00109975)
(0.0560075 0 -0.00113898)
(0.0564597 0 -0.00117639)
(0.0568347 0 -0.00121184)
(0.0571376 0 -0.00124523)
(0.0573733 0 -0.00127648)
(0.0575465 0 -0.00130551)
(0.0576614 0 -0.00133228)
(0.057718 0 -0.00135397)
(0.0533817 0 -0.000935816)
(0.0540869 0 -0.000973985)
(0.0546981 0 -0.00101073)
(0.0552212 0 -0.00104585)
(0.0556626 0 -0.00107923)
(0.0560279 0 -0.00111077)
(0.0563224 0 -0.00114037)
(0.056551 0 -0.00116799)
(0.0567183 0 -0.00119356)
(0.0568285 0 -0.00121706)
(0.0568817 0 -0.00123604)
(0.05267 0 -0.000843889)
(0.0533627 0 -0.000877703)
(0.0539624 0 -0.000910171)
(0.0544751 0 -0.000941117)
(0.0549071 0 -0.000970445)
(0.0552641 0 -0.000998074)
(0.0555513 0 -0.00102394)
(0.0557737 0 -0.00104798)
(0.0559358 0 -0.00107018)
(0.0560418 0 -0.00109052)
(0.0560922 0 -0.00110689)
(0.0520092 0 -0.000739838)
(0.0526912 0 -0.000769087)
(0.0532812 0 -0.00079711)
(0.0537851 0 -0.000823755)
(0.0542091 0 -0.000848945)
(0.054559 0 -0.000872613)
(0.05484 0 -0.00089471)
(0.0550571 0 -0.000915199)
(0.0552148 0 -0.000934056)
(0.0553171 0 -0.000951274)
(0.0553649 0 -0.000965094)
(0.0514174 0 -0.000622654)
(0.0520906 0 -0.000647052)
(0.0526724 0 -0.000670385)
(0.053169 0 -0.000692526)
(0.0535864 0 -0.000713412)
(0.0539304 0 -0.000732993)
(0.0542063 0 -0.00075123)
(0.054419 0 -0.000768097)
(0.0545729 0 -0.000783579)
(0.0546721 0 -0.000797673)
(0.0547178 0 -0.000808954)
(0.0509146 0 -0.000491131)
(0.0515807 0 -0.000510293)
(0.0521562 0 -0.000528593)
(0.0526469 0 -0.00054593)
(0.0530591 0 -0.000562256)
(0.0533984 0 -0.000577532)
(0.0536703 0 -0.00059173)
(0.0538794 0 -0.000604832)
(0.0540303 0 -0.000616829)
(0.0541271 0 -0.000627721)
(0.0541709 0 -0.000636416)
(0.0505233 0 -0.000343837)
(0.0511843 0 -0.000357255)
(0.0517551 0 -0.000370058)
(0.0522416 0 -0.000382172)
(0.0526499 0 -0.000393563)
(0.0529859 0 -0.000404207)
(0.0532547 0 -0.000414082)
(0.0534612 0 -0.000423178)
(0.0536099 0 -0.000431489)
(0.0537048 0 -0.000439016)
(0.0537473 0 -0.000445012)
(0.0502688 0 -0.00017909)
(0.0509266 0 -0.0001861)
(0.0514946 0 -0.000192786)
(0.0519784 0 -0.000199107)
(0.0523844 0 -0.000205047)
(0.0527183 0 -0.00021059)
(0.0529853 0 -0.000215727)
(0.0531902 0 -0.000220452)
(0.0533375 0 -0.000224762)
(0.0534313 0 -0.000228659)
(0.053473 0 -0.000231759)
(0.050179 0 0)
(0.0508357 0 0)
(0.0514027 0 0)
(0.0518857 0 0)
(0.0522909 0 0)
(0.0526241 0 0)
(0.0528904 0 0)
(0.0530948 0 0)
(0.0532416 0 0)
(0.053335 0 0)
(0.0533764 0 0)
(0.0628607 0 -0.00089064)
(0.0643433 0 -0.000994314)
(0.0632072 0 -0.000997392)
(0.0645999 0 -0.00110241)
(0.0659072 0 -0.00121727)
(0.0671097 0 -0.00134127)
(0.063387 0 -0.00108935)
(0.0646902 0 -0.00119363)
(0.0658962 0 -0.00130583)
(0.0669916 0 -0.00142538)
(0.0679617 0 -0.00155166)
(0.0687937 0 -0.00168433)
(0.0634198 0 -0.00116719)
(0.0646381 0 -0.00126941)
(0.0657528 0 -0.00137795)
(0.0667543 0 -0.00149227)
(0.0676327 0 -0.00161175)
(0.0683796 0 -0.0017359)
(0.0689891 0 -0.00186441)
(0.0694582 0 -0.00199696)
(0.0633244 0 -0.00123177)
(0.0644649 0 -0.0013311)
(0.0654984 0 -0.00143539)
(0.0664183 0 -0.00154402)
(0.0672186 0 -0.00165638)
(0.0678943 0 -0.00177188)
(0.0684426 0 -0.00188991)
(0.0688629 0 -0.00200975)
(0.0691568 0 -0.00213024)
(0.0693149 0 -0.00223532)
(0.0631179 0 -0.00128407)
(0.0641878 0 -0.00137995)
(0.0651494 0 -0.00147954)
(0.0659986 0 -0.00158225)
(0.0667323 0 -0.00168742)
(0.0673482 0 -0.00179441)
(0.0678458 0 -0.00190249)
(0.0682261 0 -0.00201078)
(0.0684918 0 -0.00211811)
(0.0686354 0 -0.00221057)
(0.0628137 0 -0.00132491)
(0.0638203 0 -0.00141691)
(0.0647185 0 -0.00151157)
(0.0655065 0 -0.00160826)
(0.0661834 0 -0.00170636)
(0.0667489 0 -0.00180519)
(0.067204 0 -0.00190399)
(0.067551 0 -0.00200189)
(0.0677935 0 -0.00209786)
(0.0679248 0 -0.00217978)
(0.0624231 0 -0.00135494)
(0.0633732 0 -0.0014428)
(0.0642157 0 -0.00153239)
(0.0649508 0 -0.00162312)
(0.065579 0 -0.00171437)
(0.0661017 0 -0.00180548)
(0.066521 0 -0.00189574)
(0.06684 0 -0.00198435)
(0.0670628 0 -0.00207044)
(0.0671836 0 -0.00214339)
(0.0619557 0 -0.00137469)
(0.0628558 0 -0.00145825)
(0.0636495 0 -0.00154276)
(0.0643386 0 -0.00162766)
(0.064925 0 -0.00171235)
(0.0654111 0 -0.00179624)
(0.0658 0 -0.00187868)
(0.0660952 0 -0.00195897)
(0.0663011 0 -0.00203641)
(0.0664128 0 -0.00210163)
(0.0614205 0 -0.00138463)
(0.0622761 0 -0.00146381)
(0.0630271 0 -0.00154329)
(0.0636762 0 -0.00162252)
(0.0642265 0 -0.001701)
(0.0646812 0 -0.00177817)
(0.065044 0 -0.00185345)
(0.0653188 0 -0.00192629)
(0.06551 0 -0.00199608)
(0.0656136 0 -0.00205457)
(0.0608255 0 -0.00138513)
(0.0616416 0 -0.00145989)
(0.062355 0 -0.00153442)
(0.0629693 0 -0.00160821)
(0.0634883 0 -0.0016808)
(0.0639159 0 -0.00175172)
(0.0642561 0 -0.00182047)
(0.0645132 0 -0.00188658)
(0.0646916 0 -0.00194959)
(0.0647878 0 -0.00200214)
(0.0592929 0 -0.00130593)
(0.0601784 0 -0.00137644)
(0.0609594 0 -0.0014468)
(0.0616396 0 -0.00151648)
(0.0622234 0 -0.00158505)
(0.0627152 0 -0.0016521)
(0.0631192 0 -0.00171721)
(0.0634399 0 -0.00177997)
(0.0636815 0 -0.00184)
(0.0638486 0 -0.00189691)
(0.0639382 0 -0.00194419)
(0.0586333 0 -0.00129216)
(0.0594865 0 -0.00135872)
(0.0602362 0 -0.0014247)
(0.0608871 0 -0.00148967)
(0.0614442 0 -0.00155324)
(0.0619122 0 -0.00161506)
(0.0622957 0 -0.00167477)
(0.0625992 0 -0.00173202)
(0.0628272 0 -0.00178651)
(0.0629843 0 -0.00183794)
(0.0630678 0 -0.0018805)
(0.0579328 0 -0.00126941)
(0.0587569 0 -0.00133198)
(0.059479 0 -0.00139366)
(0.0601041 0 -0.00145406)
(0.0606378 0 -0.00151286)
(0.0610849 0 -0.00156974)
(0.0614503 0 -0.0016244)
(0.0617388 0 -0.00167658)
(0.0619548 0 -0.001726)
(0.0621029 0 -0.00177245)
(0.0621809 0 -0.00181074)
(0.0571996 0 -0.00123763)
(0.0579977 0 -0.0012962)
(0.0586952 0 -0.00135364)
(0.0592977 0 -0.00140962)
(0.0598106 0 -0.00146384)
(0.0602394 0 -0.00151605)
(0.060589 0 -0.001566)
(0.0608642 0 -0.00161345)
(0.0610696 0 -0.00165822)
(0.0612096 0 -0.00170011)
(0.0612826 0 -0.00173453)
(0.0564424 0 -0.0011967)
(0.0572174 0 -0.00125126)
(0.0578932 0 -0.00130454)
(0.0584755 0 -0.00135621)
(0.0589703 0 -0.00140604)
(0.059383 0 -0.00145381)
(0.0597186 0 -0.00149931)
(0.0599821 0 -0.00154236)
(0.060178 0 -0.00158281)
(0.0603107 0 -0.00162052)
(0.060379 0 -0.00165139)
(0.0556711 0 -0.00114641)
(0.0564253 0 -0.00119696)
(0.0570818 0 -0.0012461)
(0.0576464 0 -0.00129357)
(0.0581252 0 -0.00133916)
(0.0585236 0 -0.00138269)
(0.0588469 0 -0.00142398)
(0.0591 0 -0.00146289)
(0.0592875 0 -0.00149931)
(0.0594136 0 -0.00153314)
(0.0594776 0 -0.00156073)
(0.0548959 0 -0.00108647)
(0.0556317 0 -0.00113296)
(0.0562711 0 -0.001178)
(0.0568201 0 -0.00122134)
(0.0572847 0 -0.00126279)
(0.0576706 0 -0.00130223)
(0.0579831 0 -0.0013395)
(0.058227 0 -0.00137449)
(0.0584069 0 -0.00140712)
(0.0585271 0 -0.00143732)
(0.0585872 0 -0.00146187)
(0.0541285 0 -0.00101645)
(0.054848 0 -0.00105883)
(0.0554723 0 -0.00109975)
(0.0560075 0 -0.00113898)
(0.0564597 0 -0.00117639)
(0.0568347 0 -0.00121184)
(0.0571376 0 -0.00124523)
(0.0573733 0 -0.00127648)
(0.0575465 0 -0.00130551)
(0.0576614 0 -0.00133228)
(0.057718 0 -0.00135397)
(0.0533817 0 -0.000935816)
(0.0540869 0 -0.000973985)
(0.0546981 0 -0.00101073)
(0.0552212 0 -0.00104585)
(0.0556626 0 -0.00107923)
(0.0560279 0 -0.00111077)
(0.0563224 0 -0.00114037)
(0.056551 0 -0.00116799)
(0.0567183 0 -0.00119356)
(0.0568285 0 -0.00121706)
(0.0568817 0 -0.00123604)
(0.05267 0 -0.000843889)
(0.0533627 0 -0.000877703)
(0.0539624 0 -0.000910171)
(0.0544751 0 -0.000941117)
(0.0549071 0 -0.000970445)
(0.0552641 0 -0.000998074)
(0.0555513 0 -0.00102394)
(0.0557737 0 -0.00104798)
(0.0559358 0 -0.00107018)
(0.0560418 0 -0.00109052)
(0.0560922 0 -0.00110689)
(0.0520092 0 -0.000739838)
(0.0526912 0 -0.000769087)
(0.0532812 0 -0.00079711)
(0.0537851 0 -0.000823755)
(0.0542091 0 -0.000848945)
(0.054559 0 -0.000872613)
(0.05484 0 -0.00089471)
(0.0550571 0 -0.000915199)
(0.0552148 0 -0.000934056)
(0.0553171 0 -0.000951274)
(0.0553649 0 -0.000965094)
(0.0514174 0 -0.000622654)
(0.0520906 0 -0.000647052)
(0.0526724 0 -0.000670385)
(0.053169 0 -0.000692526)
(0.0535864 0 -0.000713412)
(0.0539304 0 -0.000732993)
(0.0542063 0 -0.00075123)
(0.054419 0 -0.000768097)
(0.0545729 0 -0.000783579)
(0.0546721 0 -0.000797673)
(0.0547178 0 -0.000808954)
(0.0509146 0 -0.000491131)
(0.0515807 0 -0.000510293)
(0.0521562 0 -0.000528593)
(0.0526469 0 -0.00054593)
(0.0530591 0 -0.000562256)
(0.0533984 0 -0.000577532)
(0.0536703 0 -0.00059173)
(0.0538794 0 -0.000604832)
(0.0540303 0 -0.000616829)
(0.0541271 0 -0.000627721)
(0.0541709 0 -0.000636416)
(0.0505233 0 -0.000343837)
(0.0511843 0 -0.000357255)
(0.0517551 0 -0.000370058)
(0.0522416 0 -0.000382172)
(0.0526499 0 -0.000393563)
(0.0529859 0 -0.000404207)
(0.0532547 0 -0.000414082)
(0.0534612 0 -0.000423178)
(0.0536099 0 -0.000431489)
(0.0537048 0 -0.000439016)
(0.0537473 0 -0.000445012)
(0.0502688 0 -0.00017909)
(0.0509266 0 -0.0001861)
(0.0514946 0 -0.000192786)
(0.0519784 0 -0.000199107)
(0.0523844 0 -0.000205047)
(0.0527183 0 -0.00021059)
(0.0529853 0 -0.000215727)
(0.0531902 0 -0.000220452)
(0.0533375 0 -0.000224762)
(0.0534313 0 -0.000228659)
(0.053473 0 -0.000231759)
(0.050179 0 0)
(0.0508357 0 0)
(0.0514027 0 0)
(0.0518857 0 0)
(0.0522909 0 0)
(0.0526241 0 0)
(0.0528904 0 0)
(0.0530948 0 0)
(0.0532416 0 0)
(0.053335 0 0)
(0.0533764 0 0)
(0.0693705 0 -0.00230848)
(0.0686866 0 -0.0022744)
(0.0687006 0 -0.00232457)
(0.0686845 0 -0.00238589)
(0.0679722 0 -0.00223597)
(0.0679856 0 -0.00228002)
(0.0679719 0 -0.00233383)
(0.0672275 0 -0.00219319)
(0.0672402 0 -0.00223214)
(0.0672283 0 -0.0022797)
(0.0664533 0 -0.00214597)
(0.0664651 0 -0.0021806)
(0.0664543 0 -0.00222286)
(0.0656509 0 -0.00209419)
(0.0656618 0 -0.00212509)
(0.0656516 0 -0.00216278)
(0.0648223 0 -0.00203763)
(0.0648321 0 -0.00206528)
(0.0648221 0 -0.00209898)
(0.0639698 0 -0.00197603)
(0.0639784 0 -0.00200081)
(0.0639684 0 -0.00203101)
(0.0630968 0 -0.00190908)
(0.0631042 0 -0.0019313)
(0.0630938 0 -0.00195838)
(0.0622074 0 -0.00183639)
(0.0622135 0 -0.00185632)
(0.0622027 0 -0.0018806)
(0.0613066 0 -0.00175752)
(0.0613116 0 -0.00177538)
(0.0613001 0 -0.00179713)
(0.0604008 0 -0.00167195)
(0.0604045 0 -0.00168792)
(0.0603923 0 -0.00170738)
(0.0594972 0 -0.00157907)
(0.0594998 0 -0.0015933)
(0.0594868 0 -0.00161064)
(0.0586048 0 -0.00147814)
(0.0586062 0 -0.00149077)
(0.0585924 0 -0.00150615)
(0.0577336 0 -0.00136831)
(0.057734 0 -0.00137944)
(0.0577194 0 -0.00139298)
(0.0568957 0 -0.00124856)
(0.056895 0 -0.00125826)
(0.0568796 0 -0.00127008)
(0.0561045 0 -0.00111766)
(0.0561029 0 -0.001126)
(0.0560868 0 -0.00113616)
(0.0553759 0 -0.000974162)
(0.0553734 0 -0.000981183)
(0.0553566 0 -0.000989728)
(0.0547275 0 -0.000816337)
(0.0547243 0 -0.000822048)
(0.0547068 0 -0.000828995)
(0.0541797 0 -0.000642092)
(0.0541758 0 -0.00064648)
(0.0541578 0 -0.000651811)
(0.0537553 0 -0.000448917)
(0.053751 0 -0.000451931)
(0.0537326 0 -0.000455589)
(0.0534805 0 -0.000233775)
(0.0534758 0 -0.000235328)
(0.0534571 0 -0.000237209)
(0.0533837 0 0)
(0.0533789 0 0)
(0.0533602 0 0)
(0.0693705 0 -0.00230848)
(0.0686866 0 -0.0022744)
(0.0687006 0 -0.00232457)
(0.0686845 0 -0.00238589)
(0.0679722 0 -0.00223597)
(0.0679856 0 -0.00228002)
(0.0679719 0 -0.00233383)
(0.0672275 0 -0.00219319)
(0.0672402 0 -0.00223214)
(0.0672283 0 -0.0022797)
(0.0664533 0 -0.00214597)
(0.0664651 0 -0.0021806)
(0.0664543 0 -0.00222286)
(0.0656509 0 -0.00209419)
(0.0656618 0 -0.00212509)
(0.0656516 0 -0.00216278)
(0.0648223 0 -0.00203763)
(0.0648321 0 -0.00206528)
(0.0648221 0 -0.00209898)
(0.0639698 0 -0.00197603)
(0.0639784 0 -0.00200081)
(0.0639684 0 -0.00203101)
(0.0630968 0 -0.00190908)
(0.0631042 0 -0.0019313)
(0.0630938 0 -0.00195838)
(0.0622074 0 -0.00183639)
(0.0622135 0 -0.00185632)
(0.0622027 0 -0.0018806)
(0.0613066 0 -0.00175752)
(0.0613116 0 -0.00177538)
(0.0613001 0 -0.00179713)
(0.0604008 0 -0.00167195)
(0.0604045 0 -0.00168792)
(0.0603923 0 -0.00170738)
(0.0594972 0 -0.00157907)
(0.0594998 0 -0.0015933)
(0.0594868 0 -0.00161064)
(0.0586048 0 -0.00147814)
(0.0586062 0 -0.00149077)
(0.0585924 0 -0.00150615)
(0.0577336 0 -0.00136831)
(0.057734 0 -0.00137944)
(0.0577194 0 -0.00139298)
(0.0568957 0 -0.00124856)
(0.056895 0 -0.00125826)
(0.0568796 0 -0.00127008)
(0.0561045 0 -0.00111766)
(0.0561029 0 -0.001126)
(0.0560868 0 -0.00113616)
(0.0553759 0 -0.000974162)
(0.0553734 0 -0.000981183)
(0.0553566 0 -0.000989728)
(0.0547275 0 -0.000816337)
(0.0547243 0 -0.000822048)
(0.0547068 0 -0.000828995)
(0.0541797 0 -0.000642092)
(0.0541758 0 -0.00064648)
(0.0541578 0 -0.000651811)
(0.0537553 0 -0.000448917)
(0.053751 0 -0.000451931)
(0.0537326 0 -0.000455589)
(0.0534805 0 -0.000233775)
(0.0534758 0 -0.000235328)
(0.0534571 0 -0.000237209)
(0.0533837 0 0)
(0.0533789 0 0)
(0.0533602 0 0)
(0.0685927 0 -0.00246886)
(0.06789 0 -0.0024068)
(0.0677072 0 -0.00248432)
(0.0674246 0 -0.00255429)
(0.0670395 0 -0.00261523)
(0.067154 0 -0.00234427)
(0.0669867 0 -0.00241309)
(0.0667267 0 -0.00247556)
(0.0663706 0 -0.0025304)
(0.0659156 0 -0.00257646)
(0.0653597 0 -0.0026128)
(0.0663859 0 -0.00228025)
(0.0662312 0 -0.00234152)
(0.0659897 0 -0.00239736)
(0.0656576 0 -0.00244663)
(0.0652313 0 -0.00248827)
(0.0647079 0 -0.00252139)
(0.0640844 0 -0.00254519)
(0.0633581 0 -0.00255904)
(0.0655877 0 -0.00221396)
(0.0654429 0 -0.00226863)
(0.0652164 0 -0.00231856)
(0.0649043 0 -0.00236275)
(0.0645023 0 -0.00240027)
(0.0640067 0 -0.00243026)
(0.0634139 0 -0.00245195)
(0.0627201 0 -0.0024647)
(0.0619223 0 -0.00246812)
(0.0647615 0 -0.00214473)
(0.0646246 0 -0.00219359)
(0.0644104 0 -0.00223822)
(0.0641147 0 -0.00227779)
(0.063733 0 -0.00231147)
(0.0632612 0 -0.00233845)
(0.0626949 0 -0.00235803)
(0.0620297 0 -0.00236955)
(0.0612618 0 -0.00237261)
(0.0639102 0 -0.00207196)
(0.0637795 0 -0.00211565)
(0.0635754 0 -0.00215554)
(0.0632932 0 -0.00219091)
(0.0629286 0 -0.00222101)
(0.0624768 0 -0.00224513)
(0.0619333 0 -0.00226259)
(0.0612929 0 -0.00227279)
(0.0605514 0 -0.0022753)
(0.0630374 0 -0.00199506)
(0.0629116 0 -0.00203413)
(0.0627156 0 -0.00206976)
(0.0624447 0 -0.0021013)
(0.0620942 0 -0.0021281)
(0.0616595 0 -0.00214951)
(0.0611353 0 -0.00216491)
(0.0605165 0 -0.00217372)
(0.0597982 0 -0.00217556)
(0.0621473 0 -0.00191345)
(0.0620254 0 -0.00194837)
(0.0618359 0 -0.00198014)
(0.0615743 0 -0.00200819)
(0.0612358 0 -0.00203194)
(0.0608154 0 -0.00205081)
(0.0603079 0 -0.00206424)
(0.0597077 0 -0.00207168)
(0.0590097 0 -0.00207278)
(0.0612454 0 -0.00182653)
(0.0611265 0 -0.00185768)
(0.0609423 0 -0.00188594)
(0.0606883 0 -0.00191081)
(0.0603597 0 -0.00193176)
(0.0599515 0 -0.00194827)
(0.0594582 0 -0.00195983)
(0.0588742 0 -0.00196594)
(0.058194 0 -0.00196628)
(0.060338 0 -0.00173361)
(0.0602213 0 -0.00176134)
(0.0600413 0 -0.00178641)
(0.0597936 0 -0.00180836)
(0.0594734 0 -0.00182673)
(0.0590755 0 -0.00184106)
(0.0585944 0 -0.00185088)
(0.0580242 0 -0.00185572)
(0.0573597 0 -0.00185532)
(0.0594326 0 -0.00163399)
(0.0593175 0 -0.00165858)
(0.059141 0 -0.00168071)
(0.0588984 0 -0.00169998)
(0.0585851 0 -0.00171599)
(0.0581959 0 -0.00172831)
(0.0577252 0 -0.00173652)
(0.0571671 0 -0.00174019)
(0.0565162 0 -0.0017391)
(0.0585381 0 -0.00152682)
(0.0584242 0 -0.00154851)
(0.0582503 0 -0.00156794)
(0.058012 0 -0.00158475)
(0.0577045 0 -0.00159859)
(0.0573226 0 -0.00160906)
(0.0568608 0 -0.00161579)
(0.056313 0 -0.0016184)
(0.055674 0 -0.00161669)
(0.0576648 0 -0.00141116)
(0.0575518 0 -0.00143016)
(0.05738 0 -0.00144708)
(0.0571451 0 -0.00146161)
(0.0568424 0 -0.00147344)
(0.0564667 0 -0.00148223)
(0.0560124 0 -0.00148762)
(0.0554735 0 -0.00148929)
(0.0548448 0 -0.00148708)
(0.0568247 0 -0.00128589)
(0.0567122 0 -0.00130236)
(0.056542 0 -0.00131694)
(0.0563099 0 -0.00132937)
(0.0560112 0 -0.00133935)
(0.0556406 0 -0.0013466)
(0.0551926 0 -0.0013508)
(0.0546613 0 -0.00135167)
(0.0540415 0 -0.00134906)
(0.0560314 0 -0.00114973)
(0.0559192 0 -0.00116379)
(0.0557503 0 -0.00117616)
(0.0555205 0 -0.00118661)
(0.0552249 0 -0.0011949)
(0.0548585 0 -0.00120075)
(0.0544159 0 -0.00120391)
(0.0538909 0 -0.00120411)
(0.0532787 0 -0.00120125)
(0.0553007 0 -0.00100112)
(0.0551887 0 -0.00101286)
(0.0550207 0 -0.00102313)
(0.0547926 0 -0.00103173)
(0.0544996 0 -0.00103843)
(0.0541366 0 -0.00104302)
(0.0536983 0 -0.00104528)
(0.0531787 0 -0.00104498)
(0.0525728 0 -0.00104204)
(0.0546505 0 -0.000838233)
(0.0545386 0 -0.000847719)
(0.0543712 0 -0.000855954)
(0.0541444 0 -0.000862777)
(0.0538533 0 -0.000868009)
(0.0534931 0 -0.00087147)
(0.0530583 0 -0.000872973)
(0.0525429 0 -0.000872334)
(0.0519421 0 -0.000869496)
(0.0541011 0 -0.000658885)
(0.0539891 0 -0.000666115)
(0.0538222 0 -0.000672349)
(0.0535963 0 -0.00067746)
(0.0533067 0 -0.000681308)
(0.0529486 0 -0.000683754)
(0.0525163 0 -0.000684653)
(0.0520042 0 -0.000683861)
(0.0514074 0 -0.000681339)
(0.0536756 0 -0.000460433)
(0.0535634 0 -0.000465364)
(0.0533968 0 -0.000469587)
(0.0531715 0 -0.000473012)
(0.0528829 0 -0.000475544)
(0.0525261 0 -0.000477084)
(0.0520958 0 -0.000477532)
(0.0515859 0 -0.00047679)
(0.0509919 0 -0.000474831)
(0.0533998 0 -0.000239696)
(0.0532876 0 -0.000242221)
(0.053121 0 -0.000244371)
(0.0528961 0 -0.0002461)
(0.0526081 0 -0.000247356)
(0.0522521 0 -0.000248091)
(0.0518228 0 -0.000248251)
(0.0513143 0 -0.000247786)
(0.050722 0 -0.00024668)
(0.0533027 0 0)
(0.0531905 0 0)
(0.053024 0 0)
(0.0527991 0 0)
(0.0525112 0 0)
(0.0521555 0 0)
(0.0517266 0 0)
(0.0512185 0 0)
(0.0506267 0 0)
(0.0685927 0 -0.00246886)
(0.06789 0 -0.0024068)
(0.0677072 0 -0.00248432)
(0.0674246 0 -0.00255429)
(0.0670395 0 -0.00261523)
(0.067154 0 -0.00234427)
(0.0669867 0 -0.00241309)
(0.0667267 0 -0.00247556)
(0.0663706 0 -0.0025304)
(0.0659156 0 -0.00257646)
(0.0653597 0 -0.0026128)
(0.0663859 0 -0.00228025)
(0.0662312 0 -0.00234152)
(0.0659897 0 -0.00239736)
(0.0656576 0 -0.00244663)
(0.0652313 0 -0.00248827)
(0.0647079 0 -0.00252139)
(0.0640844 0 -0.00254519)
(0.0633581 0 -0.00255904)
(0.0655877 0 -0.00221396)
(0.0654429 0 -0.00226863)
(0.0652164 0 -0.00231856)
(0.0649043 0 -0.00236275)
(0.0645023 0 -0.00240027)
(0.0640067 0 -0.00243026)
(0.0634139 0 -0.00245195)
(0.0627201 0 -0.0024647)
(0.0619223 0 -0.00246812)
(0.0647615 0 -0.00214473)
(0.0646246 0 -0.00219359)
(0.0644104 0 -0.00223822)
(0.0641147 0 -0.00227779)
(0.063733 0 -0.00231147)
(0.0632612 0 -0.00233845)
(0.0626949 0 -0.00235803)
(0.0620297 0 -0.00236955)
(0.0612618 0 -0.00237261)
(0.0639102 0 -0.00207196)
(0.0637795 0 -0.00211565)
(0.0635754 0 -0.00215554)
(0.0632932 0 -0.00219091)
(0.0629286 0 -0.00222101)
(0.0624768 0 -0.00224513)
(0.0619333 0 -0.00226259)
(0.0612929 0 -0.00227279)
(0.0605514 0 -0.0022753)
(0.0630374 0 -0.00199506)
(0.0629116 0 -0.00203413)
(0.0627156 0 -0.00206976)
(0.0624447 0 -0.0021013)
(0.0620942 0 -0.0021281)
(0.0616595 0 -0.00214951)
(0.0611353 0 -0.00216491)
(0.0605165 0 -0.00217372)
(0.0597982 0 -0.00217556)
(0.0621473 0 -0.00191345)
(0.0620254 0 -0.00194837)
(0.0618359 0 -0.00198014)
(0.0615743 0 -0.00200819)
(0.0612358 0 -0.00203194)
(0.0608154 0 -0.00205081)
(0.0603079 0 -0.00206424)
(0.0597077 0 -0.00207168)
(0.0590097 0 -0.00207278)
(0.0612454 0 -0.00182653)
(0.0611265 0 -0.00185768)
(0.0609423 0 -0.00188594)
(0.0606883 0 -0.00191081)
(0.0603597 0 -0.00193176)
(0.0599515 0 -0.00194827)
(0.0594582 0 -0.00195983)
(0.0588742 0 -0.00196594)
(0.058194 0 -0.00196628)
(0.060338 0 -0.00173361)
(0.0602213 0 -0.00176134)
(0.0600413 0 -0.00178641)
(0.0597936 0 -0.00180836)
(0.0594734 0 -0.00182673)
(0.0590755 0 -0.00184106)
(0.0585944 0 -0.00185088)
(0.0580242 0 -0.00185572)
(0.0573597 0 -0.00185532)
(0.0594326 0 -0.00163399)
(0.0593175 0 -0.00165858)
(0.059141 0 -0.00168071)
(0.0588984 0 -0.00169998)
(0.0585851 0 -0.00171599)
(0.0581959 0 -0.00172831)
(0.0577252 0 -0.00173652)
(0.0571671 0 -0.00174019)
(0.0565162 0 -0.0017391)
(0.0585381 0 -0.00152682)
(0.0584242 0 -0.00154851)
(0.0582503 0 -0.00156794)
(0.058012 0 -0.00158475)
(0.0577045 0 -0.00159859)
(0.0573226 0 -0.00160906)
(0.0568608 0 -0.00161579)
(0.056313 0 -0.0016184)
(0.055674 0 -0.00161669)
(0.0576648 0 -0.00141116)
(0.0575518 0 -0.00143016)
(0.05738 0 -0.00144708)
(0.0571451 0 -0.00146161)
(0.0568424 0 -0.00147344)
(0.0564667 0 -0.00148223)
(0.0560124 0 -0.00148762)
(0.0554735 0 -0.00148929)
(0.0548448 0 -0.00148708)
(0.0568247 0 -0.00128589)
(0.0567122 0 -0.00130236)
(0.056542 0 -0.00131694)
(0.0563099 0 -0.00132937)
(0.0560112 0 -0.00133935)
(0.0556406 0 -0.0013466)
(0.0551926 0 -0.0013508)
(0.0546613 0 -0.00135167)
(0.0540415 0 -0.00134906)
(0.0560314 0 -0.00114973)
(0.0559192 0 -0.00116379)
(0.0557503 0 -0.00117616)
(0.0555205 0 -0.00118661)
(0.0552249 0 -0.0011949)
(0.0548585 0 -0.00120075)
(0.0544159 0 -0.00120391)
(0.0538909 0 -0.00120411)
(0.0532787 0 -0.00120125)
(0.0553007 0 -0.00100112)
(0.0551887 0 -0.00101286)
(0.0550207 0 -0.00102313)
(0.0547926 0 -0.00103173)
(0.0544996 0 -0.00103843)
(0.0541366 0 -0.00104302)
(0.0536983 0 -0.00104528)
(0.0531787 0 -0.00104498)
(0.0525728 0 -0.00104204)
(0.0546505 0 -0.000838233)
(0.0545386 0 -0.000847719)
(0.0543712 0 -0.000855954)
(0.0541444 0 -0.000862777)
(0.0538533 0 -0.000868009)
(0.0534931 0 -0.00087147)
(0.0530583 0 -0.000872973)
(0.0525429 0 -0.000872334)
(0.0519421 0 -0.000869496)
(0.0541011 0 -0.000658885)
(0.0539891 0 -0.000666115)
(0.0538222 0 -0.000672349)
(0.0535963 0 -0.00067746)
(0.0533067 0 -0.000681308)
(0.0529486 0 -0.000683754)
(0.0525163 0 -0.000684653)
(0.0520042 0 -0.000683861)
(0.0514074 0 -0.000681339)
(0.0536756 0 -0.000460433)
(0.0535634 0 -0.000465364)
(0.0533968 0 -0.000469587)
(0.0531715 0 -0.000473012)
(0.0528829 0 -0.000475544)
(0.0525261 0 -0.000477084)
(0.0520958 0 -0.000477532)
(0.0515859 0 -0.00047679)
(0.0509919 0 -0.000474831)
(0.0533998 0 -0.000239696)
(0.0532876 0 -0.000242221)
(0.053121 0 -0.000244371)
(0.0528961 0 -0.0002461)
(0.0526081 0 -0.000247356)
(0.0522521 0 -0.000248091)
(0.0518228 0 -0.000248251)
(0.0513143 0 -0.000247786)
(0.050722 0 -0.00024668)
(0.0533027 0 0)
(0.0531905 0 0)
(0.053024 0 0)
(0.0527991 0 0)
(0.0525112 0 0)
(0.0521555 0 0)
(0.0517266 0 0)
(0.0512185 0 0)
(0.0506267 0 0)
)
;

boundaryField
{
    inlet
    {
        type            fixedValue;
        value           nonuniform 0();
    }
    outlet
    {
        type            fixedValue;
        value           nonuniform 0();
    }
    flap
    {
        type            fixedValue;
        value           nonuniform 0();
    }
    upperWall
    {
        type            slip;
    }
    lowerWall
    {
        type            slip;
    }
    frontAndBack
    {
        type            empty;
    }
    procBoundary1to0
    {
        type            processor;
    }
    procBoundary1to2
    {
        type            processor;
    }
    procBoundary1to3
    {
        type            processor;
    }
    procBoundary1to4
    {
        type            processor;
    }
}


// ************************************************************************* //
