/*--------------------------------*- C++ -*----------------------------------*\
| =========                 |                                                 |
| \\      /  F ield         | OpenFOAM: The Open Source CFD Toolbox           |
|  \\    /   O peration     | Version:  dev                                   |
|   \\  /    A nd           | Web:      www.OpenFOAM.org                      |
|    \\/     M anipulation  |                                                 |
\*---------------------------------------------------------------------------*/
FoamFile
{
    version     2.0;
    format      ascii;
    class       volVectorField;
    location    "1.24";
    object      U;
}
// * * * * * * * * * * * * * * * * * * * * * * * * * * * * * * * * * * * * * //

dimensions      [0 1 -1 0 0 0 0];

internalField   nonuniform List<vector> 
465
(
(5.41891 0 0.233032)
(4.94582 0 0.264822)
(4.43253 -4.68422e-19 0.301341)
(3.87662 1.13536e-18 0.343389)
(3.27577 -6.66894e-19 0.392053)
(2.62751 -1.72783e-19 0.448859)
(1.92854 0 0.516051)
(1.16509 -1.05196e-18 0.595955)
(0.47538 -2.27495e-18 0.587961)
(6.38324 0 0.606178)
(5.9305 -1.45007e-19 0.686018)
(5.43326 1.37481e-18 0.775468)
(4.88738 -1.39117e-19 0.875309)
(4.28767 1.79052e-20 0.986565)
(3.62681 -1.49846e-18 1.1108)
(2.89266 -2.73795e-18 1.2512)
(2.04375 5.06164e-18 1.41989)
(1.18899 -2.92924e-18 1.65926)
(6.78658 -1.10161e-18 0.983431)
(6.383 1.55729e-18 1.11862)
(5.93683 0 1.27135)
(5.44223 -2.47215e-18 1.44362)
(4.89112 5.05718e-18 1.63821)
(4.27141 -4.84212e-18 1.85992)
(3.56346 3.24696e-18 2.11894)
(2.74172 0 2.42187)
(1.7179 -5.64439e-18 2.94325)
(7.01325 -7.97407e-19 1.31418)
(6.6539 -2.76573e-21 1.4992)
(6.25765 2.86593e-19 1.71065)
(5.81837 0 1.95272)
(5.32741 4.29829e-18 2.23112)
(4.77238 -5.53524e-18 2.55449)
(4.12727 -6.24644e-19 2.94357)
(3.44261 4.5205e-18 3.36092)
(2.27925 6.53712e-19 4.19491)
(7.18622 -2.63199e-19 1.61529)
(6.86468 -2.72756e-19 1.84388)
(6.51348 -2.81589e-19 2.10703)
(6.12768 5.18177e-18 2.41116)
(5.70032 -4.06336e-18 2.76493)
(5.22382 -4.11329e-18 3.17872)
(4.65837 4.92648e-18 3.68706)
(4.18436 2.16604e-19 4.15806)
(2.90416 9.93364e-18 5.2842)
(7.3497 0 1.89188)
(7.06269 2.61241e-19 2.15828)
(6.75371 -4.34093e-18 2.46611)
(6.42002 3.83334e-18 2.8235)
(6.05728 -2.74682e-19 3.24115)
(5.667 0 3.72764)
(5.18246 -2.91397e-19 4.3386)
(4.95141 6.58503e-20 4.79877)
(3.57357 -1.37587e-19 6.17121)
(7.51918 -2.46112e-19 2.14596)
(7.26574 -2.56503e-19 2.44481)
(6.99806 0 2.79037)
(6.71589 2.60013e-19 3.19179)
(6.41739 -3.9402e-18 3.66106)
(6.11619 3.61e-20 4.20072)
(5.70548 4.03923e-18 4.89765)
(5.71973 7.25949e-18 5.29672)
(4.26089 -8.47226e-18 6.86646)
(7.69902 1.22755e-19 2.37801)
(7.47928 3.93287e-18 2.7042)
(7.25291 -3.97258e-18 3.08086)
(7.02198 -3.14791e-19 3.51738)
(6.78622 0 4.02665)
(6.57391 4.74735e-19 4.60125)
(6.22717 0 5.36883)
(6.4711 0 5.677)
(4.94619 7.52547e-18 7.40849)
(7.88935 1.98412e-18 2.58772)
(7.70353 -7.53159e-18 2.93628)
(7.51852 3.79626e-18 3.33775)
(7.3385 3.83307e-18 3.80121)
(7.16323 -4.19547e-18 4.34038)
(7.03801 -3.98488e-18 4.93475)
(6.74666 3.4063e-18 5.75883)
(7.19899 5.8305e-18 5.96444)
(5.62187 -7.18253e-18 7.84136)
(8.0888 1.10628e-19 2.7746)
(7.937 2.23214e-19 3.14075)
(7.79266 0 3.56094)
(7.66246 -3.5495e-18 4.04379)
(7.54515 4.79535e-18 4.60414)
(7.50397 -3.24142e-18 5.20658)
(7.26398 3.1142e-18 6.07262)
(7.90457 2.73082e-18 6.17908)
(6.28904 0 8.19061)
(8.29533 6.75384e-18 2.9382)
(8.17783 -3.66839e-18 3.31759)
(8.07321 4.2308e-19 3.75084)
(7.991 -2.50107e-18 4.24616)
(7.92893 -7.44478e-19 4.81951)
(7.96673 1.31038e-19 5.42158)
(7.77964 2.83624e-18 6.3122)
(8.58538 -5.06615e-18 6.3415)
(6.94933 6.62933e-18 8.46095)
(8.50595 -3.2964e-18 3.07811)
(8.42266 -3.2743e-18 3.46661)
(8.35711 2.84897e-18 3.90792)
(8.32117 -2.35687e-20 4.40951)
(8.31166 0 4.98771)
(8.42133 -2.70425e-18 5.5842)
(8.29516 7.40558e-18 6.47668)
(9.23087 -2.33075e-18 6.47558)
(7.60258 -2.33596e-18 8.66319)
(8.71755 0 3.19428)
(8.66704 -3.88865e-18 3.58753)
(8.63942 2.33103e-18 4.03205)
(8.64757 -3.6636e-18 4.53388)
(8.68805 1.03971e-19 5.10885)
(8.8612 5.07505e-18 5.69682)
(8.80888 1.97614e-18 6.56263)
(9.8297 -7.74859e-18 6.60134)
(8.2748 5.50517e-18 8.82224)
(8.9281 -3.76047e-18 3.28716)
(8.9081 3.75432e-18 3.68074)
(8.91596 7.35334e-19 4.12328)
(8.96497 1.36628e-18 4.61935)
(9.05289 0 5.18279)
(9.28036 0 5.75847)
(9.31651 1.91792e-18 6.56518)
(10.3758 -3.4162e-18 6.7142)
(9.02484 1.81635e-18 8.96729)
(9.13585 -2.18288e-18 3.35792)
(9.14413 -1.40882e-18 3.74769)
(9.18405 -1.35973e-18 4.18289)
(9.26991 1.23299e-18 4.66694)
(9.40175 -2.46096e-18 5.20945)
(9.6735 6.49469e-20 5.76437)
(9.80836 1.94469e-18 6.48118)
(10.8682 3.11892e-18 6.75933)
(9.88376 0 9.14253)
(0.184465 2.78012e-19 -0.191024)
(0.428354 -2.51701e-22 -0.156979)
(0.746477 0 -0.124586)
(1.13938 0 -0.109882)
(1.62124 -2.09937e-19 -0.108208)
(2.14747 0 -0.110311)
(2.64225 0 -0.110481)
(3.07168 -3.57933e-20 -0.107004)
(3.43347 1.11997e-19 -0.10101)
(3.73722 3.71545e-20 -0.093899)
(0.0401522 -6.94779e-19 -0.268454)
(0.236075 -2.54962e-19 -0.253208)
(0.541221 0 -0.235421)
(0.924095 0 -0.240831)
(1.38316 2.09309e-19 -0.256574)
(1.86273 0 -0.26695)
(2.29248 1.31079e-19 -0.265134)
(2.64782 -1.28881e-21 -0.252129)
(2.93127 -2.20573e-19 -0.232158)
(3.15071 1.00398e-21 -0.208635)
(-0.0326888 1.39267e-19 -0.356871)
(0.0624689 9.87192e-19 -0.359799)
(0.316322 8.46922e-19 -0.359091)
(0.640443 7.98865e-19 -0.373288)
(1.02557 -4.1841e-19 -0.39364)
(1.40665 -9.40463e-19 -0.40346)
(1.72511 7.86121e-19 -0.394546)
(1.96702 -2.82262e-19 -0.369796)
(2.13875 -2.90266e-19 -0.334499)
(2.24992 2.94007e-19 -0.292674)
(-0.0686089 -1.66959e-18 -0.423147)
(-0.0737315 2.34129e-21 -0.429836)
(0.136499 -8.38197e-19 -0.455789)
(0.396364 1.60711e-18 -0.478684)
(0.695988 -1.28514e-18 -0.499221)
(0.9679 1.19594e-18 -0.502137)
(1.16999 6.60218e-20 -0.481795)
(1.30075 -2.8183e-19 -0.443027)
(1.37019 -2.9083e-19 -0.392359)
(1.39065 0 -0.33415)
(-0.0812308 1.67267e-18 -0.47779)
(-0.187292 9.28099e-19 -0.479151)
(-0.00776739 0 -0.53394)
(0.187731 -1.17749e-22 -0.556367)
(0.393858 -1.32752e-18 -0.569963)
(0.554934 -2.46798e-19 -0.561087)
(0.650515 -2.01984e-19 -0.526984)
(0.688428 -3.33469e-22 -0.474818)
(0.6811 9.84496e-22 -0.411899)
(0.640631 8.81662e-19 -0.342477)
(-0.0700176 0 -0.528347)
(-0.287562 0 -0.516755)
(-0.124938 -8.24634e-19 -0.590195)
(-0.000299541 0 -0.604445)
(0.113655 0 -0.604685)
(0.17718 -5.12364e-19 -0.579953)
(0.185953 2.76833e-19 -0.533181)
(0.154942 8.68447e-19 -0.472274)
(0.0981111 0 -0.403002)
(0.025081 -5.90249e-19 -0.328312)
(-0.0294191 -5.50765e-19 -0.583911)
(-0.37402 -1.75553e-18 -0.543493)
(-0.228821 2.50383e-18 -0.623086)
(-0.170614 0 -0.620075)
(-0.139544 -9.79045e-19 -0.601874)
(-0.155886 1.06794e-18 -0.562142)
(-0.209616 -1.42437e-19 -0.507234)
(-0.282266 0 -0.44456)
(-0.362556 0 -0.375895)
(-0.445996 0 -0.301755)
(0.0541101 5.5215e-19 -0.661134)
(-0.449883 1.71468e-18 -0.551681)
(-0.319716 0 -0.629504)
(-0.323328 0 -0.602936)
(-0.36153 -2.58757e-19 -0.565583)
(-0.434213 1.12158e-18 -0.516963)
(-0.52193 -2.04935e-18 -0.462445)
(-0.611464 1.19677e-18 -0.403302)
(-0.697412 -5.97129e-19 -0.338269)
(-0.779779 -3.0233e-19 -0.266546)
(0.20283 -1.31478e-20 -0.778893)
(-0.52556 3.39706e-18 -0.528139)
(-0.399308 -1.77149e-18 -0.607486)
(-0.45821 0 -0.55558)
(-0.544048 2.73818e-19 -0.505587)
(-0.645766 0 -0.455832)
(-0.745109 -2.61555e-21 -0.406509)
(-0.834717 6.13597e-19 -0.353833)
(-0.914624 3.90504e-21 -0.293876)
(-0.988104 -4.50332e-21 -0.225345)
(0.405693 2.1281e-18 -0.935391)
(-0.60561 1.72135e-18 -0.465931)
(-0.471106 -2.81685e-18 -0.555052)
(-0.570181 -2.67324e-19 -0.484752)
(-0.679267 1.16874e-18 -0.431243)
(-0.786771 -1.50842e-18 -0.387052)
(-0.879319 9.28711e-19 -0.346717)
(-0.955986 -1.2365e-18 -0.302086)
(-1.0208 0 -0.247513)
(-1.07906 0 -0.181789)
(0.638541 0 -1.10685)
(-0.710277 -1.79034e-18 -0.359644)
(-0.542501 5.10957e-19 -0.482277)
(-0.656703 1.44549e-18 -0.402641)
(-0.762958 -1.20822e-18 -0.353188)
(-0.855358 3.12162e-19 -0.319791)
(-0.925964 0 -0.290996)
(-0.978844 -6.37114e-19 -0.254453)
(-1.0207 6.28714e-19 -0.203831)
(-1.05834 -6.32441e-19 -0.139023)
(0.860322 0 -1.26291)
(-0.87429 9.41004e-19 -0.218266)
(-0.620683 5.55218e-19 -0.417137)
(-0.716035 -1.23672e-18 -0.326703)
(-0.791909 2.54093e-18 -0.283765)
(-0.851046 -1.27678e-18 -0.264445)
(-0.886531 0 -0.247771)
(-0.905781 -6.51189e-19 -0.21745)
(-0.917574 6.40683e-19 -0.167548)
(-0.929834 6.3056e-19 -0.0999174)
(1.0323 2.13533e-18 -1.40012)
(-1.05758 -1.03155e-18 -0.101328)
(-0.688879 -1.50634e-19 -0.389446)
(-0.737046 -1.29797e-18 -0.273794)
(-0.761484 1.29e-18 -0.23443)
(-0.77421 0 -0.231411)
(-0.762473 0 -0.226592)
(-0.737898 0 -0.197849)
(-0.713096 0 -0.143307)
(-0.69577 -6.61816e-19 -0.0679682)
(1.30183 -1.09847e-18 -1.4786)
(-1.10865 1.05782e-18 0.00691424)
(-0.698465 1.45507e-18 -0.368141)
(-0.694544 -1.28664e-18 -0.237588)
(-0.667862 6.76221e-19 -0.204226)
(-0.626891 -6.62028e-19 -0.229298)
(-0.553281 0 -0.239274)
(-0.473334 0 -0.203787)
(-0.406421 -6.84006e-19 -0.135964)
(-0.356363 6.59631e-19 -0.0467936)
(1.93793 -2.0178e-19 -0.754812)
(-1.08168 -1.1412e-18 -0.334962)
(-0.599157 1.87211e-18 -0.347725)
(-0.562272 -3.11192e-19 -0.173364)
(-0.509541 3.3899e-19 -0.198396)
(-0.406746 0 -0.29571)
(-0.250493 0 -0.307878)
(-0.105307 0 -0.240705)
(0.00492732 1.72922e-18 -0.148367)
(0.0870866 3.55841e-19 -0.0410227)
(9.34524 -1.32986e-18 3.40758)
(9.3807 3.92008e-18 3.7896)
(9.45025 -1.27206e-18 4.21215)
(9.5691 0 4.67703)
(9.73963 0 5.1878)
(10.0439 -3.89599e-18 5.70803)
(10.2809 0 6.30622)
(11.4329 -2.92101e-18 6.61506)
(12.7676 0 9.3488)
(9.54951 1.27454e-18 3.43465)
(9.6097 0 3.80481)
(9.70531 -2.31322e-18 4.20933)
(9.85063 2.2508e-18 4.64765)
(10.0489 3.97348e-18 5.11681)
(10.3644 -3.46987e-20 5.58492)
(10.6467 0 6.0459)
(11.3216 2.81701e-18 6.28201)
(12.1183 0 6.96912)
(9.74583 -1.17633e-18 3.44018)
(9.82695 0 3.79472)
(9.94351 0 4.17683)
(10.1068 2.03061e-18 4.58341)
(10.3181 -3.91514e-18 5.00601)
(10.6153 1.73645e-18 5.41561)
(10.8893 0 5.76186)
(11.2132 -2.89633e-18 5.94839)
(11.8387 1.51922e-18 6.38244)
(9.93214 2.25284e-20 3.42497)
(10.0297 2.17351e-18 3.76095)
(10.1613 -1.05793e-18 4.11783)
(10.3341 -1.95634e-18 4.49044)
(10.5473 0 4.86735)
(10.819 -1.31248e-18 5.2255)
(11.0956 -4.13439e-19 5.51705)
(11.3585 -7.26554e-19 5.72215)
(11.8651 -7.62271e-19 6.13187)
(10.2172 -2.06358e-18 3.7062)
(10.3583 1.00791e-18 4.03655)
(10.5344 3.35586e-20 4.37534)
(10.7443 -4.36486e-19 4.7109)
(10.9955 2.17241e-18 5.02619)
(11.2673 1.55558e-18 5.2868)
(11.5178 0 5.47386)
(11.8746 -7.72941e-19 5.73033)
(10.7102 1.39854e-18 4.24395)
(10.9138 4.47558e-19 4.54274)
(11.1466 -1.68807e-18 4.81989)
(11.3987 -1.61871e-18 5.05158)
(11.6333 0 5.21672)
(11.9126 1.52536e-18 5.38355)
(11.2747 2.66552e-20 4.61171)
(11.5052 0 4.81947)
(11.7267 0 4.97615)
(11.973 0 5.11257)
(11.8047 -7.99345e-19 4.74514)
(12.0304 1.17445e-18 4.86907)
(12.237 1.68326e-18 8.06526)
(9.17625 7.64201e-19 6.21681)
(5.02962 -1.17235e-19 5.07323)
(11.6095 6.00075e-19 5.08116)
(11.0401 1.55836e-18 4.07973)
(10.2634 -1.4967e-18 3.593)
(12.0899 -6.01734e-19 6.02953)
(12.1558 -2.98429e-19 5.66259)
(11.954 0 5.3159)
(12.1505 0 6.14105)
(12.288 3.05212e-19 6.00752)
(12.2827 0 5.81259)
(12.0817 0 5.77676)
(12.2389 -2.99001e-19 5.75547)
(12.3318 -3.1241e-19 5.69803)
(12.0776 -5.32809e-20 5.44306)
(12.226 -2.59125e-18 5.47075)
(12.3389 1.58168e-18 5.4766)
(12.1137 -3.33624e-19 5.17033)
(12.2427 0 5.20916)
(12.3466 0 5.23496)
(12.1553 -1.36079e-18 4.9225)
(12.2694 0 4.96267)
(12.3627 0 4.9948)
(12.298 2.68438e-18 4.72985)
(12.3838 -1.31916e-18 4.76548)
(1.57342 0 3.02836)
(1.21828 -3.81584e-20 0.820502)
(0.3389 1.5797e-19 -0.226871)
(-0.22234 -3.13486e-19 -0.555105)
(-0.0205262 1.75441e-20 -0.562802)
(0.131844 0 -0.542375)
(0.259252 3.441e-19 -0.438332)
(0.403178 0 -0.297077)
(0.529914 -1.17776e-18 -0.175897)
(8.98162 1.80756e-19 3.10326)
(7.93056 3.43656e-20 2.53164)
(6.58189 -1.38256e-19 1.90489)
(5.20834 0 1.2678)
(3.83663 2.05485e-20 0.582865)
(2.57426 0 -0.024419)
(1.66981 -3.24716e-19 -0.386011)
(1.32471 -3.38305e-19 -0.4354)
(1.28092 8.20335e-19 -0.320968)
(11.3053 0 4.74083)
(10.5742 1.54117e-19 4.08346)
(9.65457 4.54657e-20 3.40414)
(8.63526 -3.66875e-20 2.77016)
(7.60959 -1.37917e-19 2.19435)
(6.60199 0 1.66743)
(5.61334 -7.85804e-20 1.16687)
(4.59003 4.71149e-19 0.66592)
(3.652 2.48467e-19 0.262865)
(12.0857 0 5.38847)
(11.7454 -1.4417e-19 4.86807)
(11.2433 -3.04775e-19 4.31769)
(10.6133 4.48268e-19 3.78588)
(9.90264 -6.49505e-20 3.27663)
(9.13246 -3.75007e-20 2.78349)
(8.31235 -3.47247e-19 2.31296)
(7.45381 -3.11934e-19 1.87726)
(6.57681 -2.99381e-19 1.48245)
(12.3827 0 5.49052)
(12.299 0 5.17749)
(12.0843 8.08237e-20 4.80741)
(11.745 1.22932e-21 4.41678)
(11.3021 -1.44606e-19 4.01828)
(10.7729 -1.52828e-19 3.6175)
(10.1683 2.89065e-19 3.22362)
(9.49725 3.6511e-19 2.84431)
(8.7699 2.289e-19 2.48467)
(12.4812 -6.83184e-19 5.40446)
(12.5356 8.595e-19 5.24461)
(12.5003 -1.60031e-19 5.02374)
(12.363 -1.17185e-21 4.76551)
(12.1277 -2.99764e-19 4.48416)
(11.8041 4.45603e-19 4.18879)
(11.3997 0 3.88775)
(10.9203 1.45507e-19 3.58823)
(10.3725 -4.31283e-19 3.29621)
(12.5069 0 5.23253)
(12.6228 -1.66675e-19 5.17057)
(12.6881 -4.30654e-21 5.0584)
(12.6804 0 4.90848)
(12.5931 -1.96018e-20 4.73144)
(12.4289 -7.63294e-20 4.53549)
(12.1911 0 4.32771)
(11.8823 -2.86449e-19 4.11432)
(11.506 2.86285e-19 3.90039)
(12.5176 0 5.02685)
(12.6539 0 5.02296)
(12.7679 -7.43539e-19 4.98361)
(12.8353 6.95693e-19 4.91375)
(12.8449 1.89053e-20 4.81977)
(12.7946 -5.19625e-19 4.70758)
(12.6844 5.1747e-19 4.58241)
(12.5142 0 4.44892)
(12.2847 0 4.31095)
(12.5294 0 4.81565)
(12.6688 -1.78337e-19 4.84466)
(12.8027 -4.96807e-19 4.85069)
(12.9097 -9.82544e-20 4.83511)
(12.9777 1.23872e-18 4.80137)
(13.0031 -1.24413e-18 4.75331)
(12.9841 1.23993e-18 4.69443)
(12.9188 -1.13477e-18 4.62782)
(12.8061 8.31464e-19 4.55606)
(12.6802 -1.23948e-18 4.65456)
(12.8209 6.91202e-19 4.6882)
(12.9472 1.62564e-19 4.70758)
(13.0486 9.62135e-21 4.71471)
(13.1214 3.70956e-20 4.71217)
(13.1638 -7.37699e-20 4.70235)
(13.1734 0 4.68722)
(13.1482 0 4.66835)
(13.0887 0 4.5852)
(13.1904 0 4.61325)
(13.2725 6.44194e-19 4.6374)
(13.3331 -8.66409e-20 4.65907)
(13.3701 -5.48464e-19 4.67926)
(13.3403 -5.87175e-19 4.52256)
(13.4347 6.88063e-20 4.56881)
(13.5145 0 4.61576)
(13.6096 5.3973e-19 4.49891)
)
;

boundaryField
{
    inlet
    {
        type            fixedValue;
        value           nonuniform 0();
    }
    outlet
    {
        type            zeroGradient;
    }
    flap
    {
        type            movingWallVelocity;
        value           nonuniform List<vector> 
33
(
(-6.19213e-16 -2.77556e-14 -6.18182e-15)
(-3.06146e-15 0 -1.31659e-14)
(6.56522e-32 -2.77556e-14 -2.33569e-32)
(0 0 0)
(-1.67952e-15 -2.77556e-14 -2.97208e-15)
(0 0 0)
(-4.97936e-15 0 -6.65646e-15)
(-3.85278e-14 -2.77556e-14 -4.66061e-14)
(0 0 0)
(5.54846e-14 0 5.72294e-14)
(-1.01253e-31 -2.77556e-14 1.05581e-31)
(5.52134e-14 0 4.97693e-14)
(0 -2.77556e-14 0)
(0 0 0)
(-5.45638e-14 0 -4.52992e-14)
(5.46462e-14 -1.92544e-31 -6.52726e-14)
(0 0 0)
(-4.53713e-14 0 5.45772e-14)
(-4.08181e-16 0 -4.11694e-15)
(-3.10006e-15 4.77117e-33 -1.31468e-14)
(8.81545e-15 2.74681e-32 2.4596e-14)
(-1.06291e-14 -2.77556e-14 -2.28005e-14)
(-4.76141e-14 -2.77556e-14 -8.40486e-14)
(0 0 0)
(2.66364e-14 2.77556e-14 3.55579e-14)
(-1.12832e-14 0 -1.36331e-14)
(0 0 0)
(0 0 0)
(0 0 0)
(-5.5206e-14 2.77556e-14 -4.96991e-14)
(0 0 0)
(-5.46644e-14 -2.77556e-14 -4.58525e-14)
(-6.57626e-14 0 -5.45563e-14)
)
;
    }
    upperWall
    {
        type            noSlip;
    }
    lowerWall
    {
        type            noSlip;
    }
    frontAndBack
    {
        type            empty;
    }
    procBoundary4to1
    {
        type            processor;
        value           nonuniform List<vector> 
30
(
(10.1071 -1.05226e-18 3.39054)
(10.1071 -1.05226e-18 3.39054)
(10.3887 0 3.63342)
(10.5349 0 3.9372)
(10.5349 0 3.9372)
(10.8634 8.85614e-19 4.10093)
(11.0587 2.63557e-20 4.36726)
(11.0587 2.63557e-20 4.36726)
(11.3843 1.23575e-18 4.40602)
(11.5964 -4.14171e-19 4.5946)
(11.5964 -4.14171e-19 4.5946)
(11.8696 -1.57481e-18 4.51918)
(12.0788 1.592e-18 4.6365)
(12.1934 -3.6733e-19 4.68835)
(12.1934 -3.6733e-19 4.68835)
(12.325 -1.35824e-18 4.5069)
(12.4055 1.13507e-18 4.54524)
(12.5431 -7.5174e-19 4.60639)
(12.5431 -7.5174e-19 4.60639)
(12.6911 -8.96777e-19 4.45904)
(12.8334 -7.54233e-19 4.50984)
(12.9689 7.43927e-19 4.5514)
(12.9689 7.43927e-19 4.5514)
(13.114 0 4.42836)
(13.2331 -5.92243e-19 4.47617)
(13.2331 -5.92243e-19 4.47617)
(13.3848 -3.62676e-20 4.37349)
(13.5011 4.75104e-19 4.43508)
(13.5011 4.75104e-19 4.43508)
(13.6734 -5.85424e-19 4.34421)
)
;
    }
    procBoundary4to2
    {
        type            processor;
        value           nonuniform List<vector> 
11
(
(2.98639 3.30298e-19 0.0806586)
(5.70669 -3.02393e-19 1.1346)
(8.00021 -7.48657e-20 2.15234)
(9.76492 0 3.01676)
(11.0666 -2.84385e-19 3.68933)
(11.9976 2.6619e-19 4.17092)
(12.6457 5.38202e-19 4.48085)
(13.0867 0 4.64682)
(13.382 0 4.69863)
(13.5784 0 4.66387)
(13.7094 -3.74363e-19 4.56549)
)
;
    }
    procBoundary4to3
    {
        type            processor;
        value           nonuniform List<vector> 
19
(
(5.85436 -6.76592e-20 0.205347)
(6.79516 1.99116e-19 0.535221)
(7.1522 -1.16981e-18 0.86406)
(7.34027 -1.03645e-18 1.1522)
(7.48167 0 1.41618)
(7.61678 2.45194e-19 1.6604)
(7.75865 1.67165e-18 1.88633)
(7.91057 -1.76183e-18 2.09421)
(8.07241 -1.93373e-18 2.2836)
(8.24282 0 2.45386)
(8.41996 1.91139e-18 2.60449)
(8.60145 -3.07092e-18 2.73512)
(8.78502 1.17957e-18 2.84572)
(8.9689 0 2.93651)
(9.15101 0 3.00826)
(9.33516 0 3.062)
(9.51633 -6.35115e-19 3.09665)
(9.69239 1.80916e-18 3.11299)
(9.8616 -1.1543e-18 3.11126)
)
;
    }
    procBoundary4to5
    {
        type            processor;
        value           nonuniform List<vector> 
18
(
(3.99154 3.71356e-20 -0.0857989)
(3.31299 0 -0.182404)
(2.30838 1.43793e-19 -0.246065)
(1.37186 -2.90704e-19 -0.270378)
(0.576714 4.35072e-19 -0.268233)
(-0.0576151 -8.85121e-19 -0.249734)
(-0.530773 2.91914e-19 -0.223492)
(-0.859843 0 -0.189446)
(-1.05819 0 -0.15006)
(-1.13493 0 -0.10741)
(-1.09676 6.2286e-19 -0.0633736)
(-0.948109 -9.32677e-19 -0.0193744)
(-0.690662 0 0.0221539)
(-0.325117 0 0.0586211)
(0.145618 1.68921e-19 0.0856602)
(0.642853 8.26432e-19 -0.0491723)
(0.642853 8.26432e-19 -0.0491723)
(1.33787 1.64699e-19 -0.134508)
)
;
    }
}


// ************************************************************************* //
