/*--------------------------------*- C++ -*----------------------------------*\
| =========                 |                                                 |
| \\      /  F ield         | OpenFOAM: The Open Source CFD Toolbox           |
|  \\    /   O peration     | Version:  dev                                   |
|   \\  /    A nd           | Web:      www.OpenFOAM.org                      |
|    \\/     M anipulation  |                                                 |
\*---------------------------------------------------------------------------*/
FoamFile
{
    version     2.0;
    format      ascii;
    class       volVectorField;
    location    "1.79";
    object      cellDisplacement;
}
// * * * * * * * * * * * * * * * * * * * * * * * * * * * * * * * * * * * * * //

dimensions      [0 1 0 0 0 0 0];

internalField   nonuniform List<vector> 
465
(
(0.0125841 0 -7.07252e-05)
(0.0358667 0 -0.000201884)
(0.0556092 0 -0.000315895)
(0.0721371 0 -0.000415951)
(0.0858061 0 -0.000504542)
(0.0969284 0 -0.000583512)
(0.105774 0 -0.000654086)
(0.112574 0 -0.000717139)
(0.117525 0 -0.000774834)
(0.120802 0 -0.000823712)
(0.122563 0 -0.000865173)
(0.122943 0 -0.000898722)
(0.122057 0 -0.00092351)
(0.12001 0 -0.000938431)
(0.116896 0 -0.000942129)
(0.112802 0 -0.000932996)
(0.107808 0 -0.000908963)
(0.101989 0 -0.000867516)
(0.0954191 0 -0.000805687)
(0.0881735 0 -0.00071999)
(0.0803301 0 -0.000606375)
(0.0126007 0 -0.000212545)
(0.0359158 0 -0.000606791)
(0.0556906 0 -0.000949634)
(0.0722507 0 -0.00125069)
(0.0859533 0 -0.0015174)
(0.0971122 0 -0.00175534)
(0.105998 0 -0.00196817)
(0.112845 0 -0.00215805)
(0.117845 0 -0.00232569)
(0.121176 0 -0.00247248)
(0.123001 0 -0.00259768)
(0.123451 0 -0.00269944)
(0.122646 0 -0.00277524)
(0.12069 0 -0.00282183)
(0.11768 0 -0.00283525)
(0.113705 0 -0.00281089)
(0.108846 0 -0.0027427)
(0.103183 0 -0.00262338)
(0.0967935 0 -0.00244432)
(0.0897567 0 -0.00219546)
(0.0821574 0 -0.00186516)
(0.0126347 0 -0.000354497)
(0.0360158 0 -0.00101218)
(0.0558551 0 -0.00158438)
(0.0724797 0 -0.0020872)
(0.0862492 0 -0.0025329)
(0.0974807 0 -0.00293095)
(0.106446 0 -0.00328748)
(0.11338 0 -0.00360581)
(0.118478 0 -0.00388519)
(0.121924 0 -0.00413272)
(0.123876 0 -0.00434499)
(0.124469 0 -0.004519)
(0.123825 0 -0.00465078)
(0.122052 0 -0.00473511)
(0.119248 0 -0.00476559)
(0.115509 0 -0.00473534)
(0.110921 0 -0.0046347)
(0.105569 0 -0.00445213)
(0.0995372 0 -0.00417419)
(0.0929148 0 -0.00378531)
(0.085797 0 -0.00326747)
(0.0126851 0 -0.000495899)
(0.0361643 0 -0.00141608)
(0.0560998 0 -0.002217)
(0.0728202 0 -0.00292147)
(0.0866886 0 -0.00354615)
(0.0980281 0 -0.00410476)
(0.107112 0 -0.00460601)
(0.114177 0 -0.00505505)
(0.119425 0 -0.00545409)
(0.123039 0 -0.00580678)
(0.125178 0 -0.00611107)
(0.125983 0 -0.00636347)
(0.125577 0 -0.00655889)
(0.124075 0 -0.00669047)
(0.121577 0 -0.00674943)
(0.118188 0 -0.00672823)
(0.114 0 -0.00661402)
(0.109107 0 -0.00639197)
(0.103606 0 -0.00604521)
(0.0975964 0 -0.00555454)
(0.0911863 0 -0.00489683)
(0.0127511 0 -0.000636604)
(0.0363592 0 -0.00181814)
(0.0564225 0 -0.00284708)
(0.0732692 0 -0.00375333)
(0.087267 0 -0.00455716)
(0.0987488 0 -0.0052772)
(0.10799 0 -0.00592481)
(0.115228 0 -0.0065071)
(0.120672 0 -0.00702811)
(0.124504 0 -0.00749041)
(0.12689 0 -0.00789259)
(0.127971 0 -0.00823096)
(0.127878 0 -0.00849984)
(0.12673 0 -0.00869133)
(0.124631 0 -0.00879337)
(0.121698 0 -0.00880174)
(0.118034 0 -0.00869998)
(0.113742 0 -0.00847152)
(0.108933 0 -0.00809811)
(0.103734 0 -0.00756059)
(0.0982649 0 -0.00683445)
(0.0128324 0 -0.00077712)
(0.036599 0 -0.00221985)
(0.0568222 0 -0.00347705)
(0.0738228 0 -0.00458261)
(0.0879784 0 -0.00556572)
(0.0996362 0 -0.00644847)
(0.10907 0 -0.00724456)
(0.116523 0 -0.00796319)
(0.122206 0 -0.00861001)
(0.126308 0 -0.00918767)
(0.128994 0 -0.00969531)
(0.130415 0 -0.0101295)
(0.130706 0 -0.0104846)
(0.129995 0 -0.0107533)
(0.128397 0 -0.0109257)
(0.126025 0 -0.0109894)
(0.123 0 -0.0109312)
(0.119439 0 -0.010735)
(0.115469 0 -0.0103826)
(0.11124 0 -0.00985806)
(0.106912 0 -0.00914171)
(0.0129287 0 -0.00091724)
(0.0368812 0 -0.00262063)
(0.057279 0 -0.00410536)
(0.0744633 0 -0.00541103)
(0.0888189 0 -0.0065757)
(0.100687 0 -0.00762356)
(0.11035 0 -0.00857136)
(0.118056 0 -0.00943051)
(0.124023 0 -0.0102085)
(0.128441 0 -0.0109087)
(0.131483 0 -0.0115309)
(0.133302 0 -0.0120724)
(0.134043 0 -0.0125279)
(0.133841 0 -0.0128919)
(0.132828 0 -0.0131571)
(0.131111 0 -0.0133035)
(0.128832 0 -0.0133242)
(0.126123 0 -0.0132043)
(0.12312 0 -0.0129263)
(0.120017 0 -0.0124849)
(0.116997 0 -0.0118646)
(0.0130383 0 -0.00105604)
(0.0372024 0 -0.00301794)
(0.0578036 0 -0.00472938)
(0.0752002 0 -0.00623807)
(0.0897821 0 -0.00758576)
(0.101891 0 -0.00880105)
(0.111817 0 -0.00990382)
(0.119813 0 -0.0109078)
(0.126103 0 -0.0118228)
(0.130882 0 -0.0126531)
(0.134328 0 -0.0133997)
(0.1366 0 -0.0140606)
(0.137849 0 -0.0146314)
(0.138223 0 -0.0151091)
(0.137856 0 -0.0154845)
(0.136871 0 -0.0157423)
(0.135435 0 -0.0158822)
(0.133693 0 -0.0158906)
(0.131806 0 -0.0157571)
(0.12996 0 -0.0154731)
(0.128397 0 -0.0150412)
(0.0131598 0 -0.0011933)
(0.0375598 0 -0.00341128)
(0.05839 0 -0.00534812)
(0.0760229 0 -0.00705884)
(0.0908554 0 -0.00858988)
(0.103233 0 -0.00997408)
(0.11345 0 -0.0112344)
(0.121769 0 -0.0123867)
(0.128418 0 -0.0134444)
(0.133597 0 -0.0144125)
(0.13749 0 -0.0152935)
(0.140263 0 -0.016087)
(0.142072 0 -0.0167884)
(0.143082 0 -0.0174013)
(0.143435 0 -0.0179166)
(0.143276 0 -0.018327)
(0.142766 0 -0.018627)
(0.142075 0 -0.0188117)
(0.141405 0 -0.0188841)
(0.140927 0 -0.0188325)
(0.140954 0 -0.018687)
(0.0132923 0 -0.00132879)
(0.0379502 0 -0.0038)
(0.0590321 0 -0.00596053)
(0.0769236 0 -0.00787232)
(0.0920297 0 -0.00958697)
(0.1047 0 -0.0111416)
(0.115236 0 -0.0125622)
(0.123905 0 -0.0138664)
(0.130947 0 -0.0150728)
(0.136562 0 -0.0161868)
(0.140941 0 -0.017213)
(0.14426 0 -0.0181537)
(0.14669 0 -0.0190101)
(0.14839 0 -0.0197802)
(0.14952 0 -0.0204623)
(0.150247 0 -0.0210566)
(0.150729 0 -0.0215557)
(0.151153 0 -0.0219627)
(0.151764 0 -0.0222967)
(0.152779 0 -0.0225649)
(0.154489 0 -0.0227961)
(0.0134343 0 -0.00146226)
(0.0383701 0 -0.0041834)
(0.0597241 0 -0.00656551)
(0.0778943 0 -0.00867724)
(0.0932951 0 -0.0105756)
(0.106283 0 -0.0123022)
(0.117161 0 -0.0138863)
(0.126215 0 -0.015352)
(0.133682 0 -0.0167144)
(0.139765 0 -0.0179825)
(0.144664 0 -0.0191644)
(0.148569 0 -0.0202663)
(0.151659 0 -0.0212937)
(0.154087 0 -0.0222399)
(0.156035 0 -0.0231126)
(0.157672 0 -0.0239122)
(0.159203 0 -0.0246516)
(0.160832 0 -0.0253404)
(0.162787 0 -0.0259956)
(0.165354 0 -0.0266532)
(0.168805 0 -0.0273455)
(0.0135861 0 -0.00159408)
(0.0388185 0 -0.00456249)
(0.0604635 0 -0.00716464)
(0.0789316 0 -0.00947575)
(0.0946473 0 -0.0115585)
(0.107974 0 -0.013459)
(0.119226 0 -0.0152109)
(0.128689 0 -0.0168422)
(0.136598 0 -0.018365)
(0.143173 0 -0.0197947)
(0.14862 0 -0.0211412)
(0.153137 0 -0.0224155)
(0.156903 0 -0.0236225)
(0.160087 0 -0.0247626)
(0.162894 0 -0.0258524)
(0.165505 0 -0.0268987)
(0.168122 0 -0.0279144)
(0.170988 0 -0.028927)
(0.17431 0 -0.0299509)
(0.178435 0 -0.0310521)
(0.183693 0 -0.0322916)
(0.0137463 0 -0.00172391)
(0.0392913 0 -0.00493624)
(0.0612434 0 -0.00775625)
(0.0800254 0 -0.0102656)
(0.0960733 0 -0.0125326)
(0.109759 0 -0.0146083)
(0.121399 0 -0.0165294)
(0.131281 0 -0.0183245)
(0.139652 0 -0.0200118)
(0.146741 0 -0.0216098)
(0.152754 0 -0.0231289)
(0.157906 0 -0.0245874)
(0.162377 0 -0.0259913)
(0.16636 0 -0.0273515)
(0.170052 0 -0.0286819)
(0.173656 0 -0.0299996)
(0.177363 0 -0.031317)
(0.181458 0 -0.0326826)
(0.186195 0 -0.0341334)
(0.191891 0 -0.0357327)
(0.198935 0 -0.0375757)
(0.0139118 0 -0.00185062)
(0.0397812 0 -0.00530165)
(0.0620526 0 -0.00833575)
(0.0811606 0 -0.0110407)
(0.0975539 0 -0.0134906)
(0.111612 0 -0.0157415)
(0.123655 0 -0.0178329)
(0.133972 0 -0.0197953)
(0.142819 0 -0.0216508)
(0.150439 0 -0.0234241)
(0.157051 0 -0.0251309)
(0.162857 0 -0.0267853)
(0.168052 0 -0.0283999)
(0.172844 0 -0.0299939)
(0.177422 0 -0.0315797)
(0.181999 0 -0.033181)
(0.18683 0 -0.0348383)
(0.19216 0 -0.0365906)
(0.198292 0 -0.0385004)
(0.205516 0 -0.0406321)
(0.21431 0 -0.0431251)
(0.0140813 0 -0.00197387)
(0.0402842 0 -0.00565778)
(0.062885 0 -0.00890168)
(0.082328 0 -0.0117992)
(0.0990771 0 -0.0144297)
(0.113521 0 -0.0168559)
(0.125978 0 -0.0191183)
(0.136742 0 -0.0212509)
(0.14609 0 -0.0232841)
(0.154262 0 -0.0252404)
(0.16148 0 -0.0271413)
(0.167941 0 -0.0289969)
(0.173859 0 -0.0308306)
(0.179439 0 -0.0326609)
(0.184906 0 -0.0345182)
(0.190484 0 -0.0364335)
(0.19642 0 -0.0384488)
(0.20294 0 -0.0406018)
(0.210397 0 -0.0429837)
(0.219127 0 -0.0456843)
(0.229582 0 -0.0488486)
(0.0637505 0 -0.00946306)
(0.0835406 0 -0.0125531)
(0.100667 0 -0.0153691)
(0.115519 0 -0.0179742)
(0.128408 0 -0.0204118)
(0.139643 0 -0.0227214)
(0.149509 0 -0.0249381)
(0.158237 0 -0.0270809)
(0.16606 0 -0.029177)
(0.173185 0 -0.0312426)
(0.179841 0 -0.0333086)
(0.186242 0 -0.0353994)
(0.192607 0 -0.0375457)
(0.199175 0 -0.0397896)
(0.206162 0 -0.0421661)
(0.213884 0 -0.0447537)
(0.222639 0 -0.0476311)
(0.232793 0 -0.050912)
(0.244811 0 -0.0547606)
(0.0848285 0 -0.0133133)
(0.10235 0 -0.0163179)
(0.117615 0 -0.0191037)
(0.130953 0 -0.021721)
(0.142676 0 -0.0242119)
(0.153066 0 -0.0266132)
(0.162363 0 -0.028949)
(0.170812 0 -0.031252)
(0.178636 0 -0.0335464)
(0.186052 0 -0.0358604)
(0.193278 0 -0.0382243)
(0.20052 0 -0.0406669)
(0.208048 0 -0.043246)
(0.216106 0 -0.046014)
(0.224994 0 -0.0490508)
(0.234964 0 -0.0524268)
(0.246455 0 -0.0562943)
(0.259894 0 -0.060818)
(0.104077 0 -0.0172564)
(0.11977 0 -0.0202245)
(0.133567 0 -0.0230233)
(0.145786 0 -0.0256976)
(0.156713 0 -0.0282894)
(0.166605 0 -0.0308302)
(0.175701 0 -0.0333507)
(0.184222 0 -0.0358801)
(0.192379 0 -0.0384444)
(0.200392 0 -0.0410787)
(0.208519 0 -0.043835)
(0.216988 0 -0.0467603)
(0.226054 0 -0.0499181)
(0.235999 0 -0.0533887)
(0.24712 0 -0.0572684)
(0.259802 0 -0.0616999)
(0.274457 0 -0.0668557)
(0.121967 0 -0.0213295)
(0.136232 0 -0.0243109)
(0.148966 0 -0.0271757)
(0.160452 0 -0.0299651)
(0.170939 0 -0.0327137)
(0.180663 0 -0.0354507)
(0.189852 0 -0.0382093)
(0.198739 0 -0.0410285)
(0.207553 0 -0.0439493)
(0.216529 0 -0.0470205)
(0.225866 0 -0.0502821)
(0.235872 0 -0.0538238)
(0.246798 0 -0.0577214)
(0.258921 0 -0.062072)
(0.272608 0 -0.0670219)
(0.288234 0 -0.0727393)
(0.138953 0 -0.0255825)
(0.152203 0 -0.0286378)
(0.164229 0 -0.0316209)
(0.175289 0 -0.0345702)
(0.185633 0 -0.0375246)
(0.195497 0 -0.040522)
(0.205103 0 -0.0435998)
(0.214674 0 -0.0468018)
(0.224411 0 -0.0501671)
(0.234584 0 -0.0537678)
(0.245446 0 -0.0576778)
(0.257217 0 -0.0619688)
(0.270184 0 -0.0667484)
(0.284664 0 -0.0721506)
(0.300974 0 -0.0783295)
(0.155433 0 -0.0300591)
(0.167993 0 -0.0332343)
(0.179635 0 -0.0363899)
(0.190599 0 -0.0395645)
(0.201112 0 -0.0427969)
(0.21138 0 -0.04612)
(0.221641 0 -0.0495872)
(0.232112 0 -0.0532471)
(0.243029 0 -0.0571644)
(0.254628 0 -0.0614113)
(0.267123 0 -0.0660618)
(0.280745 0 -0.071208)
(0.295779 0 -0.0769775)
(0.312531 0 -0.0835251)
(0.183947 0 -0.0381565)
(0.195485 0 -0.0415384)
(0.206595 0 -0.0449908)
(0.2175 0 -0.0485563)
(0.228416 0 -0.0522821)
(0.239534 0 -0.0562132)
(0.2511 0 -0.0604198)
(0.263322 0 -0.0649684)
(0.276364 0 -0.0699181)
(0.290458 0 -0.0753642)
(0.305873 0 -0.0814329)
(0.322732 0 -0.0882054)
(0.20024 0 -0.0434203)
(0.211927 0 -0.0470881)
(0.223413 0 -0.0508795)
(0.234897 0 -0.0548381)
(0.246588 0 -0.0590174)
(0.258692 0 -0.063477)
(0.271393 0 -0.0682765)
(0.284846 0 -0.0734742)
(0.29926 0 -0.0791601)
(0.314774 0 -0.0854068)
(0.331473 0 -0.0922783)
(0.22903 0 -0.0530451)
(0.241029 0 -0.057219)
(0.253191 0 -0.0616112)
(0.265722 0 -0.0662832)
(0.278778 0 -0.0712866)
(0.292496 0 -0.0766734)
(0.307011 0 -0.082504)
(0.32241 0 -0.0888285)
(0.338784 0 -0.0957109)
(0.259267 0 -0.0639463)
(0.272112 0 -0.0687861)
(0.285391 0 -0.0739383)
(0.299221 0 -0.0794468)
(0.313658 0 -0.0853393)
(0.328812 0 -0.0916723)
(0.344675 0 -0.0984631)
(0.277799 0 -0.070936)
(0.291202 0 -0.0761914)
(0.304988 0 -0.0817499)
(0.319232 0 -0.087644)
(0.33399 0 -0.0939042)
(0.349203 0 -0.100519)
(0.309791 0 -0.083548)
(0.323732 0 -0.0893827)
(0.337978 0 -0.0955015)
(0.352405 0 -0.101858)
(0.340795 0 -0.0964384)
(0.354368 0 -0.102484)
)
;

boundaryField
{
    inlet
    {
        type            cellMotion;
        value           uniform (0 0 0);
    }
    outlet
    {
        type            cellMotion;
        value           nonuniform 0();
    }
    flap
    {
        type            cellMotion;
        value           nonuniform 0();
    }
    upperWall
    {
        type            slip;
    }
    lowerWall
    {
        type            slip;
    }
    frontAndBack
    {
        type            empty;
    }
    procBoundary3to0
    {
        type            processor;
        value           nonuniform List<vector> 
34
(
(0.0142569 0 -0.00209565)
(0.0408069 0 -0.00601033)
(0.0408069 0 -0.00601033)
(0.064661 0 -0.0100264)
(0.064661 0 -0.0100264)
(0.0861553 0 -0.0140667)
(0.0861553 0 -0.0140667)
(0.105835 0 -0.0181787)
(0.105835 0 -0.0181787)
(0.124205 0 -0.0224161)
(0.124205 0 -0.0224161)
(0.141684 0 -0.0268214)
(0.141684 0 -0.0268214)
(0.158645 0 -0.031432)
(0.171748 0 -0.0348005)
(0.171748 0 -0.0348005)
(0.188143 0 -0.0398343)
(0.188143 0 -0.0398343)
(0.204839 0 -0.0451902)
(0.217025 0 -0.0490482)
(0.217025 0 -0.0490482)
(0.234315 0 -0.0550239)
(0.246723 0 -0.0593747)
(0.246723 0 -0.0593747)
(0.264764 0 -0.0659796)
(0.264764 0 -0.0659796)
(0.282793 0 -0.0727087)
(0.296174 0 -0.0780012)
(0.296174 0 -0.0780012)
(0.313661 0 -0.0848196)
(0.327187 0 -0.090533)
(0.327187 0 -0.090533)
(0.342515 0 -0.0967125)
(0.355242 0 -0.102432)
)
;
    }
    procBoundary3to1
    {
        type            processor;
        value           nonuniform List<vector> 9((0.319463 0 -0.0854793) (0.331141 0 -0.0909597) (0.34114 0 -0.0957737) (0.349455 0 -0.09986) (0.356113 0 -0.103178) (0.361158 0 -0.105698) (0.364699 0 -0.10743) (0.366851 0 -0.108388) (0.367797 0 -0.108623));
    }
    procBoundary3to4
    {
        type            processor;
        value           nonuniform List<vector> 
19
(
(0.071973 0 -0.000460183)
(0.0740906 0 -0.00144028)
(0.078299 0 -0.00260185)
(0.0845296 0 -0.00405395)
(0.0926889 0 -0.00589585)
(0.10265 0 -0.00820744)
(0.11427 0 -0.0110515)
(0.12737 0 -0.0144647)
(0.141775 0 -0.0184671)
(0.15726 0 -0.0230454)
(0.173601 0 -0.02817)
(0.190543 0 -0.0337819)
(0.207819 0 -0.0398034)
(0.225167 0 -0.0461393)
(0.242294 0 -0.0526689)
(0.259225 0 -0.0593873)
(0.275793 0 -0.0662189)
(0.291563 0 -0.0729594)
(0.306204 0 -0.0794321)
)
;
    }
}


// ************************************************************************* //
