/*--------------------------------*- C++ -*----------------------------------*\
| =========                 |                                                 |
| \\      /  F ield         | OpenFOAM: The Open Source CFD Toolbox           |
|  \\    /   O peration     | Version:  dev                                   |
|   \\  /    A nd           | Web:      www.OpenFOAM.org                      |
|    \\/     M anipulation  |                                                 |
\*---------------------------------------------------------------------------*/
FoamFile
{
    version     2.0;
    format      ascii;
    class       volVectorField;
    location    "1.67";
    object      cellDisplacement;
}
// * * * * * * * * * * * * * * * * * * * * * * * * * * * * * * * * * * * * * //

dimensions      [0 1 0 0 0 0 0];

internalField   nonuniform List<vector> 
465
(
(0.48507 0 -0.185141)
(0.475993 0 -0.178268)
(0.485393 0 -0.184718)
(0.476226 0 -0.178337)
(0.466381 0 -0.171602)
(0.455741 0 -0.164575)
(0.484586 0 -0.183549)
(0.475456 0 -0.177673)
(0.465591 0 -0.171381)
(0.454893 0 -0.164735)
(0.443249 0 -0.157785)
(0.482678 0 -0.181727)
(0.473689 0 -0.176349)
(0.463902 0 -0.170504)
(0.453232 0 -0.164252)
(0.441586 0 -0.157644)
(0.428855 0 -0.150722)
(0.414925 0 -0.143516)
(0.47972 0 -0.179335)
(0.470953 0 -0.174436)
(0.46132 0 -0.169028)
(0.450754 0 -0.163171)
(0.439173 0 -0.156914)
(0.426482 0 -0.150296)
(0.412578 0 -0.14335)
(0.397348 0 -0.136097)
(0.380675 0 -0.128549)
(0.47578 0 -0.176448)
(0.467291 0 -0.171996)
(0.457871 0 -0.167007)
(0.447469 0 -0.161536)
(0.436013 0 -0.155629)
(0.423419 0 -0.149324)
(0.409593 0 -0.142649)
(0.394433 0 -0.135629)
(0.377828 0 -0.128275)
(0.359663 0 -0.120591)
(0.470938 0 -0.173129)
(0.462761 0 -0.169087)
(0.453596 0 -0.164491)
(0.443403 0 -0.15939)
(0.432121 0 -0.153827)
(0.419673 0 -0.147833)
(0.405974 0 -0.141438)
(0.390929 0 -0.134662)
(0.374436 0 -0.127519)
(0.356387 0 -0.120013)
(0.336671 0 -0.112144)
(0.315175 0 -0.1039)
(0.465256 0 -0.169421)
(0.457435 0 -0.165759)
(0.448544 0 -0.161522)
(0.438592 0 -0.156771)
(0.427524 0 -0.151539)
(0.415263 0 -0.145854)
(0.401732 0 -0.139741)
(0.386844 0 -0.133217)
(0.370504 0 -0.126297)
(0.352611 0 -0.118987)
(0.33306 0 -0.111284)
(0.311743 0 -0.103181)
(0.288547 0 -0.0946597)
(0.458823 0 -0.165363)
(0.451345 0 -0.162031)
(0.442767 0 -0.158134)
(0.433079 0 -0.153708)
(0.422261 0 -0.148799)
(0.410221 0 -0.143415)
(0.396892 0 -0.137581)
(0.382196 0 -0.131314)
(0.366045 0 -0.124627)
(0.348344 0 -0.117526)
(0.328996 0 -0.110009)
(0.307896 0 -0.102069)
(0.284939 0 -0.0936919)
(0.260017 0 -0.0848554)
(0.233022 0 -0.0755314)
(0.45172 0 -0.160977)
(0.444583 0 -0.157945)
(0.436321 0 -0.154354)
(0.426944 0 -0.150246)
(0.416398 0 -0.145641)
(0.404592 0 -0.140543)
(0.391488 0 -0.134982)
(0.377012 0 -0.128972)
(0.361081 0 -0.122525)
(0.343606 0 -0.115644)
(0.324494 0 -0.108329)
(0.303647 0 -0.100574)
(0.280964 0 -0.0923657)
(0.256343 0 -0.0836847)
(0.229681 0 -0.0745055)
(0.200874 0 -0.064795)
(0.444068 0 -0.156297)
(0.437249 0 -0.153531)
(0.429305 0 -0.150222)
(0.420228 0 -0.146402)
(0.409961 0 -0.142078)
(0.398425 0 -0.13726)
(0.385562 0 -0.131964)
(0.371328 0 -0.12621)
(0.355643 0 -0.120006)
(0.338422 0 -0.113355)
(0.319577 0 -0.106257)
(0.299015 0 -0.0987062)
(0.27664 0 -0.0906903)
(0.252356 0 -0.0821924)
(0.226064 0 -0.0731897)
(0.197667 0 -0.0636537)
(0.167069 0 -0.0535502)
(0.13418 0 -0.042841)
(0.435955 0 -0.151336)
(0.42943 0 -0.148803)
(0.421785 0 -0.145748)
(0.412991 0 -0.142186)
(0.402998 0 -0.138126)
(0.391742 0 -0.133573)
(0.379163 0 -0.128542)
(0.365188 0 -0.123041)
(0.34977 0 -0.117084)
(0.332828 0 -0.110672)
(0.314277 0 -0.103804)
(0.294029 0 -0.0964749)
(0.271993 0 -0.0886738)
(0.248077 0 -0.0803857)
(0.222189 0 -0.0715905)
(0.194237 0 -0.0622631)
(0.16413 0 -0.0523737)
(0.131783 0 -0.0418885)
(0.0971121 0 -0.0307694)
(0.427463 0 -0.146094)
(0.421199 0 -0.143765)
(0.413826 0 -0.140935)
(0.40531 0 -0.137611)
(0.39557 0 -0.133789)
(0.38458 0 -0.129485)
(0.372312 0 -0.12472)
(0.358643 0 -0.11948)
(0.343508 0 -0.113771)
(0.326864 0 -0.107605)
(0.30863 0 -0.100979)
(0.288721 0 -0.0938888)
(0.267051 0 -0.0863239)
(0.243534 0 -0.0782714)
(0.218081 0 -0.0697135)
(0.190606 0 -0.0606285)
(0.161024 0 -0.0509906)
(0.129254 0 -0.0407706)
(0.0952208 0 -0.0299358)
(0.0588618 0 -0.0184545)
(0.418674 0 -0.140568)
(0.412637 0 -0.138416)
(0.405505 0 -0.135784)
(0.397234 0 -0.132674)
(0.387767 0 -0.129085)
(0.377074 0 -0.125034)
(0.365072 0 -0.120509)
(0.351719 0 -0.115526)
(0.336913 0 -0.110077)
(0.320581 0 -0.104163)
(0.302681 0 -0.0977905)
(0.283132 0 -0.0909548)
(0.261853 0 -0.0836469)
(0.238759 0 -0.075855)
(0.213768 0 -0.0675638)
(0.186798 0 -0.0587544)
(0.157771 0 -0.0494049)
(0.126611 0 -0.0394902)
(0.0932467 0 -0.0289831)
(0.0576229 0 -0.017857)
(0.0195793 0 -0.00605011)
(0.409671 0 -0.134747)
(0.40383 0 -0.132751)
(0.396916 0 -0.130299)
(0.388885 0 -0.12739)
(0.379689 0 -0.124026)
(0.369239 0 -0.120194)
(0.357507 0 -0.115908)
(0.344465 0 -0.111179)
(0.330006 0 -0.105995)
(0.314036 0 -0.10035)
(0.296483 0 -0.0942426)
(0.277311 0 -0.0876776)
(0.256439 0 -0.0806472)
(0.23379 0 -0.0731406)
(0.209284 0 -0.0651449)
(0.182844 0 -0.0566439)
(0.154397 0 -0.0476192)
(0.123872 0 -0.0380498)
(0.0912044 0 -0.0279132)
(0.0563434 0 -0.0171877)
(0.0191412 0 -0.00581964)
(0.400537 0 -0.128612)
(0.394862 0 -0.126756)
(0.388141 0 -0.124468)
(0.380324 0 -0.121744)
(0.371357 0 -0.118582)
(0.361178 0 -0.114975)
(0.349748 0 -0.110938)
(0.336986 0 -0.106451)
(0.322845 0 -0.101526)
(0.30725 0 -0.0961583)
(0.290095 0 -0.0903374)
(0.271309 0 -0.0840589)
(0.25086 0 -0.0773263)
(0.228671 0 -0.0701299)
(0.204667 0 -0.0624584)
(0.178776 0 -0.0542986)
(0.150929 0 -0.045635)
(0.12106 0 -0.0364507)
(0.0891105 0 -0.0267272)
(0.0550336 0 -0.0164475)
(0.0186937 0 -0.00556555)
(0.391354 0 -0.122139)
(0.38582 0 -0.120408)
(0.379268 0 -0.118272)
(0.371648 0 -0.115725)
(0.362908 0 -0.112761)
(0.352995 0 -0.109379)
(0.341812 0 -0.105563)
(0.329329 0 -0.101323)
(0.315522 0 -0.0966681)
(0.300279 0 -0.0915811)
(0.283537 0 -0.0860611)
(0.26519 0 -0.0800967)
(0.245171 0 -0.0736826)
(0.223452 0 -0.0668216)
(0.199962 0 -0.0595036)
(0.174632 0 -0.0517178)
(0.147399 0 -0.043452)
(0.118201 0 -0.0346926)
(0.0869834 0 -0.0254251)
(0.0537049 0 -0.0156365)
(0.0182407 0 -0.00528791)
(0.382209 0 -0.115291)
(0.37679 0 -0.113677)
(0.370385 0 -0.111684)
(0.362941 0 -0.109304)
(0.354404 0 -0.106531)
(0.344714 0 -0.103358)
(0.333805 0 -0.0997796)
(0.321637 0 -0.0958057)
(0.308128 0 -0.0914147)
(0.29323 0 -0.0866165)
(0.276867 0 -0.0814042)
(0.258972 0 -0.0757732)
(0.239434 0 -0.0697111)
(0.218188 0 -0.0632113)
(0.195215 0 -0.0562761)
(0.170453 0 -0.0488981)
(0.143841 0 -0.0410675)
(0.115321 0 -0.0327737)
(0.0848435 0 -0.0240058)
(0.0523698 0 -0.0147541)
(0.0177864 0 -0.00498649)
(0.373188 0 -0.108024)
(0.367863 0 -0.106521)
(0.361585 0 -0.104667)
(0.354299 0 -0.102451)
(0.345951 0 -0.0998671)
(0.336485 0 -0.0969095)
(0.325845 0 -0.0935748)
(0.313931 0 -0.0898473)
(0.300715 0 -0.0857338)
(0.286175 0 -0.0812438)
(0.270195 0 -0.0763581)
(0.252714 0 -0.0710746)
(0.23367 0 -0.0653903)
(0.212945 0 -0.0592918)
(0.190479 0 -0.0527672)
(0.166284 0 -0.045832)
(0.140293 0 -0.0384757)
(0.112452 0 -0.0306898)
(0.0827131 0 -0.0224662)
(0.0510421 0 -0.0137986)
(0.0173354 0 -0.00466076)
(0.364386 0 -0.100283)
(0.359137 0 -0.098889)
(0.352967 0 -0.0971705)
(0.345821 0 -0.0951184)
(0.337644 0 -0.0927248)
(0.328378 0 -0.0899828)
(0.317961 0 -0.0868863)
(0.306327 0 -0.0834275)
(0.293436 0 -0.0796178)
(0.279218 0 -0.0754434)
(0.263606 0 -0.070901)
(0.246536 0 -0.0659883)
(0.227955 0 -0.0607046)
(0.207727 0 -0.0550266)
(0.185795 0 -0.0489582)
(0.162171 0 -0.0425072)
(0.136797 0 -0.0356676)
(0.109627 0 -0.0284342)
(0.0806169 0 -0.020802)
(0.0497369 0 -0.0127674)
(0.0168929 0 -0.00430982)
(0.355903 0 -0.0919977)
(0.350715 0 -0.0907138)
(0.344637 0 -0.089134)
(0.337615 0 -0.0872491)
(0.329593 0 -0.0850513)
(0.320514 0 -0.0825338)
(0.310319 0 -0.0796911)
(0.298947 0 -0.0765188)
(0.28634 0 -0.0730154)
(0.272439 0 -0.0691762)
(0.257179 0 -0.0649985)
(0.240499 0 -0.0604796)
(0.222335 0 -0.0556167)
(0.202624 0 -0.0504051)
(0.181256 0 -0.0448372)
(0.158178 0 -0.0389105)
(0.133402 0 -0.0326312)
(0.106883 0 -0.0259974)
(0.0785822 0 -0.0190062)
(0.0484709 0 -0.0116566)
(0.0164642 0 -0.00393236)
(0.347852 0 -0.0830832)
(0.342711 0 -0.0819142)
(0.336712 0 -0.080479)
(0.329799 0 -0.0787689)
(0.321917 0 -0.0767765)
(0.313009 0 -0.0744955)
(0.303018 0 -0.0719209)
(0.291883 0 -0.0690484)
(0.279544 0 -0.0658745)
(0.265941 0 -0.0623945)
(0.251017 0 -0.0586086)
(0.234709 0 -0.0545152)
(0.216955 0 -0.0501123)
(0.197696 0 -0.0453978)
(0.176875 0 -0.040371)
(0.154377 0 -0.0350242)
(0.130159 0 -0.0293498)
(0.104262 0 -0.0233663)
(0.0766389 0 -0.0170699)
(0.0472626 0 -0.0104607)
(0.0160557 0 -0.00352663)
(0.340358 0 -0.0734349)
(0.335255 0 -0.0723893)
(0.329321 0 -0.0711086)
(0.322502 0 -0.0695851)
(0.314744 0 -0.0678122)
(0.305992 0 -0.0657844)
(0.296186 0 -0.0634974)
(0.285267 0 -0.060948)
(0.273173 0 -0.0581337)
(0.259841 0 -0.0550375)
(0.245228 0 -0.0516758)
(0.22927 0 -0.0480452)
(0.211906 0 -0.0441441)
(0.193079 0 -0.0399718)
(0.172744 0 -0.0355298)
(0.15077 0 -0.0308019)
(0.127112 0 -0.0257963)
(0.101807 0 -0.0205227)
(0.0748207 0 -0.014981)
(0.0461325 0 -0.00917287)
(0.0156741 0 -0.00309034)
(0.333564 0 -0.0629243)
(0.32849 0 -0.0620143)
(0.32261 0 -0.0609025)
(0.315872 0 -0.0595823)
(0.308222 0 -0.0580482)
(0.299607 0 -0.0562957)
(0.289969 0 -0.0543215)
(0.279254 0 -0.0521244)
(0.267355 0 -0.0496928)
(0.254248 0 -0.047018)
(0.239935 0 -0.0441267)
(0.2243 0 -0.0410054)
(0.207288 0 -0.0376542)
(0.188846 0 -0.0340733)
(0.168921 0 -0.0302626)
(0.14746 0 -0.0262215)
(0.124358 0 -0.0219493)
(0.0995805 0 -0.0174481)
(0.0731688 0 -0.0127255)
(0.0451051 0 -0.00778476)
(0.0153275 0 -0.00262076)
(0.327639 0 -0.0513927)
(0.322586 0 -0.050635)
(0.316749 0 -0.0497118)
(0.310077 0 -0.0486176)
(0.302518 0 -0.0473479)
(0.294016 0 -0.0458991)
(0.284517 0 -0.0442685)
(0.273966 0 -0.0424543)
(0.262249 0 -0.0404452)
(0.24936 0 -0.03825)
(0.235297 0 -0.0358786)
(0.21994 0 -0.0333205)
(0.203236 0 -0.0305768)
(0.185131 0 -0.0276486)
(0.165574 0 -0.0245372)
(0.144514 0 -0.0212438)
(0.12191 0 -0.0177711)
(0.097654 0 -0.0141199)
(0.0717283 0 -0.0102862)
(0.0442066 0 -0.00628607)
(0.0150244 0 -0.00211453)
(0.322779 0 -0.038643)
(0.317741 0 -0.0380603)
(0.311937 0 -0.0373521)
(0.305316 0 -0.0365142)
(0.297827 0 -0.0355435)
(0.289416 0 -0.0344371)
(0.280028 0 -0.033193)
(0.269609 0 -0.0318089)
(0.258049 0 -0.0302758)
(0.245345 0 -0.0286193)
(0.231484 0 -0.026829)
(0.216353 0 -0.0248986)
(0.1999 0 -0.0228307)
(0.182072 0 -0.0206273)
(0.16282 0 -0.0182902)
(0.142098 0 -0.0158218)
(0.119875 0 -0.0132254)
(0.0960318 0 -0.0104946)
(0.0705354 0 -0.00763903)
(0.0434644 0 -0.00466378)
(0.0147746 0 -0.00156755)
(0.319224 0 -0.024429)
(0.314195 0 -0.0240513)
(0.308413 0 -0.0235934)
(0.301829 0 -0.0230527)
(0.294389 0 -0.0224272)
(0.286041 0 -0.0217153)
(0.276728 0 -0.0209155)
(0.266394 0 -0.020026)
(0.254975 0 -0.0190449)
(0.242428 0 -0.0179937)
(0.228699 0 -0.0168548)
(0.213726 0 -0.015629)
(0.197453 0 -0.0143184)
(0.179825 0 -0.0129245)
(0.160793 0 -0.0114491)
(0.14031 0 -0.00989379)
(0.118334 0 -0.00825994)
(0.0948294 0 -0.00654837)
(0.0696902 0 -0.00476529)
(0.0429243 0 -0.00290558)
(0.0145918 0 -0.0009757)
(0.31727 0 -0.00846867)
(0.312245 0 -0.00833512)
(0.306475 0 -0.00817347)
(0.299909 0 -0.00798291)
(0.292497 0 -0.00776279)
(0.284183 0 -0.00751262)
(0.274914 0 -0.00723204)
(0.264632 0 -0.00692088)
(0.253283 0 -0.00657976)
(0.24081 0 -0.00621117)
(0.22716 0 -0.00581365)
(0.212276 0 -0.00538701)
(0.196101 0 -0.00493168)
(0.178582 0 -0.00444827)
(0.159671 0 -0.00393743)
(0.13932 0 -0.00339986)
(0.11749 0 -0.00283627)
(0.0941565 0 -0.00224775)
(0.0691977 0 -0.00163418)
(0.042613 0 -0.000995434)
(0.0144865 0 -0.000334017)
)
;

boundaryField
{
    inlet
    {
        type            cellMotion;
        value           nonuniform 0();
    }
    outlet
    {
        type            cellMotion;
        value           uniform (0 0 0);
    }
    flap
    {
        type            cellMotion;
        value           nonuniform 0();
    }
    upperWall
    {
        type            slip;
    }
    lowerWall
    {
        type            slip;
    }
    frontAndBack
    {
        type            empty;
    }
    procBoundary2to1
    {
        type            processor;
        value           nonuniform List<vector> 
17
(
(0.441391 0 -0.153336)
(0.432654 0 -0.147918)
(0.423658 0 -0.142242)
(0.414485 0 -0.136292)
(0.405214 0 -0.130047)
(0.395924 0 -0.123475)
(0.386697 0 -0.116538)
(0.377615 0 -0.109188)
(0.368769 0 -0.101366)
(0.360258 0 -0.0929985)
(0.352188 0 -0.0839979)
(0.344684 0 -0.0742563)
(0.337887 0 -0.063642)
(0.331961 0 -0.0519923)
(0.327103 0 -0.0391057)
(0.323551 0 -0.0247298)
(0.321599 0 -0.00857534)
)
;
    }
    procBoundary2to4
    {
        type            processor;
        value           nonuniform List<vector> 
11
(
(0.49364 0 -0.191664)
(0.49399 0 -0.190673)
(0.493066 0 -0.188934)
(0.490931 0 -0.186563)
(0.487669 0 -0.183659)
(0.483375 0 -0.180305)
(0.47813 0 -0.176562)
(0.472038 0 -0.172478)
(0.465216 0 -0.168092)
(0.457764 0 -0.163427)
(0.449789 0 -0.158504)
)
;
    }
    procBoundary2to5
    {
        type            processor;
        value           nonuniform List<vector> 
34
(
(0.483614 0 -0.184724)
(0.474778 0 -0.177396)
(0.466281 0 -0.171112)
(0.466281 0 -0.171112)
(0.455801 0 -0.16373)
(0.444183 0 -0.157303)
(0.444183 0 -0.157303)
(0.430545 0 -0.150574)
(0.430545 0 -0.150574)
(0.416654 0 -0.143129)
(0.399679 0 -0.136049)
(0.399679 0 -0.136049)
(0.382991 0 -0.128331)
(0.362442 0 -0.120712)
(0.362442 0 -0.120712)
(0.339825 0 -0.112578)
(0.339825 0 -0.112578)
(0.318192 0 -0.104222)
(0.291783 0 -0.0952648)
(0.291783 0 -0.0952648)
(0.263363 0 -0.0856987)
(0.263363 0 -0.0856987)
(0.236076 0 -0.0762646)
(0.203846 0 -0.0656841)
(0.203846 0 -0.0656841)
(0.169825 0 -0.0545169)
(0.169825 0 -0.0545169)
(0.136432 0 -0.0436264)
(0.098909 0 -0.0314826)
(0.098909 0 -0.0314826)
(0.0600513 0 -0.0189796)
(0.0600513 0 -0.0189796)
(0.0200047 0 -0.00625671)
(0.0200047 0 -0.00625671)
)
;
    }
}


// ************************************************************************* //
