/*--------------------------------*- C++ -*----------------------------------*\
| =========                 |                                                 |
| \\      /  F ield         | OpenFOAM: The Open Source CFD Toolbox           |
|  \\    /   O peration     | Version:  dev                                   |
|   \\  /    A nd           | Web:      www.OpenFOAM.org                      |
|    \\/     M anipulation  |                                                 |
\*---------------------------------------------------------------------------*/
FoamFile
{
    version     2.0;
    format      ascii;
    class       surfaceVectorField;
    location    "1.67";
    object      Uf;
}
// * * * * * * * * * * * * * * * * * * * * * * * * * * * * * * * * * * * * * //

dimensions      [0 1 -1 0 0 0 0];

internalField   nonuniform List<vector> 
881
(
(5.39963 -1.37658e-21 1.27429)
(7.32595 4.42131e-22 1.77611)
(6.77566 -3.0952e-21 1.5435)
(8.76707 -1.49845e-21 2.09089)
(10.1248 7.4477e-21 2.50412)
(8.2786 8.38546e-23 1.85333)
(9.69346 9.66722e-21 2.26845)
(7.7943 2.15814e-21 1.62673)
(9.26405 3.81852e-20 2.04355)
(8.83228 3.39299e-20 1.83176)
(11.0934 1.89732e-20 2.70585)
(11.9846 1.89381e-20 3.01665)
(10.7258 4.85588e-20 2.48107)
(11.6843 -5.23245e-21 2.79944)
(10.3474 7.11428e-20 2.26895)
(11.3708 4.77986e-22 2.59315)
(9.95686 3.32254e-20 2.07319)
(11.043 4.60705e-20 2.39953)
(10.7006 8.53573e-21 2.22266)
(12.6013 -7.2366e-21 3.12544)
(13.1392 -1.54656e-20 3.33857)
(12.3583 -6.0195e-20 2.92639)
(12.9601 -2.03486e-20 3.1504)
(12.0964 -3.30476e-20 2.73834)
(12.7607 -4.29061e-20 2.97143)
(11.8164 1.82258e-20 2.56373)
(12.5418 -2.63349e-20 2.80339)
(11.521 4.60811e-22 2.4048)
(12.305 8.81356e-21 2.64894)
(11.2135 -4.62227e-20 2.26193)
(12.0528 -8.78365e-21 2.50958)
(11.7881 5.63802e-21 2.38481)
(13.5124 -2.90215e-20 3.37403)
(13.7984 4.495e-21 3.50638)
(13.3793 -1.9488e-21 3.20596)
(13.7193 -3.61686e-20 3.35024)
(13.2245 -3.85952e-20 3.04671)
(13.618 2.06581e-21 3.20098)
(13.0497 -3.91015e-20 2.89841)
(13.4964 1.19026e-20 3.06045)
(12.8573 0 2.76297)
(13.3561 -7.43134e-20 2.93071)
(12.6501 4.53214e-20 2.64112)
(13.1996 2.32912e-20 2.81322)
(12.4301 -8.39124e-21 2.53249)
(13.0294 2.5036e-20 2.7083)
(12.1987 -8.06244e-20 2.43637)
(12.8474 3.0497e-20 2.61557)
(12.6552 -4.64352e-20 2.53457)
(14.0123 -1.09502e-21 3.48855)
(14.1293 -7.33436e-21 3.55819)
(13.9668 -3.21608e-20 3.35145)
(14.1256 -3.43131e-20 3.43236)
(13.9002 5.37245e-20 3.22093)
(14.1013 3.65634e-20 3.31125)
(13.8143 -2.22577e-20 3.09896)
(14.058 -7.38606e-21 3.19678)
(13.7112 -5.27141e-20 2.98721)
(13.9974 6.08712e-21 3.09076)
(13.5932 2.32926e-21 2.88664)
(13.9217 7.91578e-20 2.99458)
(13.4626 6.49077e-20 2.79746)
(13.833 -4.5463e-20 2.90892)
(13.3212 6.7448e-20 2.71948)
(13.7333 6.98651e-20 2.83387)
(13.1708 -1.7728e-21 2.65234)
(13.6245 -2.09232e-20 2.76919)
(13.5084 6.22286e-20 2.71438)
(14.2451 -4.0683e-20 3.50464)
(14.2561 -7.76877e-20 3.52826)
(14.2638 3.4739e-20 3.39522)
(14.305 3.98504e-20 3.42864)
(14.264 -2.57102e-20 3.29046)
(14.3363 -3.58292e-20 3.33205)
(14.2471 2.20648e-20 3.19217)
(14.3513 -3.16626e-20 3.2403)
(14.215 1.40593e-19 3.10191)
(14.3516 5.74023e-20 3.15506)
(14.1697 3.25252e-20 3.02073)
(14.3389 4.0862e-21 3.07763)
(14.1131 -4.37456e-20 2.94914)
(14.3149 3.22516e-20 3.00881)
(14.0473 -1.97006e-20 2.88725)
(14.2817 -1.98951e-20 2.94896)
(13.974 4.3365e-20 2.83478)
(14.2409 -4.91352e-20 2.89803)
(13.8951 8.0859e-20 2.79108)
(14.1945 -2.14522e-20 2.8556)
(13.8127 2.52049e-21 2.75515)
(14.1442 -2.67668e-21 2.8209)
(14.092 -3.4068e-20 2.79282)
(14.3159 2.4547e-21 3.45276)
(14.2651 -5.72299e-20 3.44423)
(14.3782 -3.1494e-20 3.36642)
(14.348 1.18723e-19 3.36605)
(14.4252 -4.20077e-20 3.28321)
(14.4167 -4.25231e-20 3.2896)
(14.4582 2.60369e-21 3.20482)
(14.4722 -4.38229e-20 3.21656)
(14.4786 -8.29695e-20 3.13266)
(14.5159 6.08711e-21 3.14845)
(14.4881 2.65492e-21 3.06776)
(14.549 -5.76175e-20 3.08645)
(14.4884 5.76842e-20 3.01078)
(14.5731 -2.61536e-20 3.03136)
(14.4813 -4.9629e-20 2.96194)
(14.5898 0 2.9837)
(14.4684 -1.16852e-19 2.92109)
(14.6008 -3.47057e-21 2.94354)
(14.4515 -1.08128e-19 2.88769)
(14.6076 -7.28179e-20 2.91053)
(14.4323 -3.98805e-20 2.86085)
(14.6119 -4.16969e-20 2.88401)
(14.4126 5.54474e-20 2.83941)
(14.6153 1.52822e-21 2.86304)
(14.6194 2.10567e-20 2.84639)
(14.2958 5.85456e-20 3.35665)
(14.2117 -1.472e-19 3.32618)
(14.3856 1.11107e-19 3.28878)
(14.315 1.23779e-19 3.26506)
(14.4633 -4.40359e-20 3.22286)
(14.4074 -1.22104e-20 3.20467)
(14.5301 -4.1256e-20 3.16042)
(14.4894 -1.12541e-19 3.14654)
(14.5869 3.35064e-20 3.10272)
(14.5622 7.74613e-20 3.09202)
(14.6352 -8.81652e-20 3.05074)
(14.6268 2.90668e-20 3.04217)
(14.6764 -8.64845e-20 3.00515)
(14.6844 -8.72801e-20 2.99777)
(14.7119 4.80199e-20 2.96629)
(14.7364 0 2.9594)
(14.7434 4.40744e-20 2.93406)
(14.7844 4.89647e-20 2.9272)
(14.7722 -4.45915e-21 2.90802)
(14.8295 4.22675e-20 2.90089)
(14.7998 0 2.88744)
(14.8733 4.71742e-20 2.87994)
(14.8277 -3.47266e-20 2.87133)
(14.9169 0 2.86358)
(14.8571 -6.85518e-20 2.85846)
(14.9616 2.1182e-20 2.8508)
(14.889 -6.3283e-20 2.84744)
(15.0083 -2.00905e-20 2.84036)
(15.0579 -2.21925e-21 2.83094)
(14.229 -8.55187e-20 3.23292)
(14.1285 -2.19077e-20 3.18737)
(14.3352 -1.13684e-22 3.17963)
(14.2435 1.39029e-19 3.13977)
(14.4321 -8.0361e-20 3.12733)
(14.35 -8.6013e-21 3.0921)
(14.5205 5.49195e-21 3.0774)
(14.4486 -1.62195e-19 3.04572)
(14.6013 7.39125e-20 3.03098)
(14.5401 1.83732e-21 3.00186)
(14.6756 3.26024e-20 2.98893)
(14.6254 -3.63135e-20 2.96147)
(14.7446 0 2.95192)
(14.7053 1.32747e-19 2.92523)
(14.8095 0 2.92035)
(14.7811 -6.35885e-20 2.89372)
(14.8716 4.75797e-20 2.89417)
(14.8542 0 2.86718)
(14.9323 9.56781e-20 2.87305)
(14.9255 -5.59003e-21 2.84542)
(14.9925 4.80756e-20 2.85641)
(14.9962 -1.97529e-20 2.82802)
(15.0535 5.71402e-20 2.84346)
(15.0672 4.70196e-20 2.8144)
(15.1162 7.22819e-20 2.83318)
(15.1395 8.19949e-20 2.80373)
(15.1811 4.32921e-20 2.82442)
(15.2138 -2.12052e-20 2.79503)
(15.2489 2.87304e-20 2.81598)
(15.2904 -2.63247e-21 2.78722)
(15.3698 -1.20307e-20 2.77925)
(14.1409 2.05676e-19 3.09209)
(14.0333 1.04667e-19 3.03581)
(14.2563 1.33318e-19 3.0504)
(14.1544 -8.36136e-21 2.99906)
(14.3647 -8.95878e-20 3.0089)
(14.2691 -4.6885e-21 2.96159)
(14.4665 -1.69421e-19 2.96881)
(14.3776 -3.93331e-20 2.92458)
(14.5627 -1.10811e-19 2.93117)
(14.4809 3.97928e-20 2.88912)
(14.6538 6.31144e-20 2.89679)
(14.5794 -7.11992e-20 2.85614)
(14.741 7.13957e-20 2.86623)
(14.6738 6.92562e-20 2.82625)
(14.8253 -6.48425e-20 2.83989)
(14.7652 1.43112e-21 2.7999)
(14.9078 -5.46108e-20 2.81787)
(14.8546 4.32966e-21 2.77738)
(14.9895 -1.24408e-19 2.79992)
(14.943 -2.9839e-21 2.75869)
(15.0713 -2.24842e-20 2.78562)
(15.0312 -7.05902e-20 2.74353)
(15.154 7.1557e-20 2.77435)
(15.12 4.9133e-21 2.73143)
(15.2383 -1.25952e-20 2.76531)
(15.2101 4.35315e-21 2.72178)
(15.3247 -6.87844e-20 2.7576)
(15.302 -5.91514e-20 2.7138)
(15.4134 -4.43961e-20 2.75028)
(15.3959 -1.69115e-20 2.70669)
(15.5044 1.61598e-20 2.74253)
(15.492 -1.01651e-20 2.69965)
(15.5973 3.63467e-20 2.73377)
(15.59 4.13697e-20 2.69205)
(15.6895 -6.4597e-20 2.68354)
(14.0446 -1.12953e-19 2.94039)
(13.9345 -7.21861e-21 2.87619)
(14.165 -1.50118e-19 2.90808)
(14.0586 -1.07905e-19 2.84822)
(14.28 4.77398e-20 2.87531)
(14.1777 -9.13939e-20 2.81906)
(14.3901 1.74196e-19 2.84313)
(14.2923 9.31517e-20 2.7897)
(14.4957 8.27075e-20 2.81249)
(14.4026 4.24568e-20 2.76108)
(14.5976 -6.79359e-20 2.78416)
(14.5094 0 2.73407)
(14.6965 -1.34375e-21 2.75862)
(14.6131 -6.9264e-20 2.70924)
(14.7932 7.25428e-20 2.73623)
(14.7145 1.33554e-19 2.68696)
(14.8888 5.76159e-20 2.71715)
(14.8145 -1.792e-19 2.66752)
(14.9839 5.38699e-20 2.70131)
(14.9138 2.22937e-19 2.65104)
(15.0794 -4.41246e-20 2.68841)
(15.0132 -1.07762e-19 2.63736)
(15.1758 -6.47479e-20 2.67798)
(15.1132 -5.91051e-23 2.62614)
(15.2737 -4.23355e-20 2.66942)
(15.2144 -1.29045e-19 2.61693)
(15.3734 -6.07712e-21 2.66206)
(15.3172 -4.95938e-21 2.60918)
(15.475 1.84145e-20 2.65522)
(15.4218 -2.33708e-21 2.60228)
(15.5783 1.48948e-20 2.6483)
(15.528 -2.6105e-20 2.59569)
(15.6831 -6.08269e-20 2.64091)
(15.6358 2.58557e-20 2.58895)
(15.7889 -5.0522e-20 2.63297)
(15.7447 -1.87337e-20 2.58186)
(15.8544 5.61878e-20 2.57454)
(13.9464 0 2.7815)
(13.8363 0 2.71125)
(14.0692 -4.77839e-20 2.75686)
(13.9613 0 2.69045)
(14.1879 -4.83457e-20 2.73128)
(14.0827 7.45443e-20 2.66814)
(14.3028 -4.12258e-20 2.70566)
(14.2006 -1.87513e-19 2.64515)
(14.4143 -4.16943e-20 2.68081)
(14.3153 4.80268e-20 2.62228)
(14.5229 0 2.65741)
(14.4272 4.15576e-20 2.60025)
(14.6293 6.53551e-20 2.63595)
(14.5369 0 2.57959)
(14.7341 -1.19243e-19 2.61673)
(14.6448 1.33594e-19 2.56068)
(14.838 -1.7173e-20 2.59998)
(14.7517 -2.88361e-19 2.5438)
(14.9417 6.32443e-20 2.58572)
(14.8581 2.29908e-19 2.52911)
(15.0458 -6.44873e-20 2.57377)
(14.9646 -8.33065e-21 2.51657)
(15.1508 -6.36754e-20 2.56381)
(15.0718 4.52152e-20 2.50599)
(15.2571 -9.27525e-20 2.55542)
(15.18 -2.40921e-20 2.49705)
(15.3649 -9.96957e-22 2.54812)
(15.2895 7.40793e-20 2.48936)
(15.4743 -4.76788e-20 2.54146)
(15.4005 4.6591e-20 2.48253)
(15.5851 -1.57628e-20 2.53502)
(15.513 -5.84867e-20 2.47618)
(15.6972 7.00019e-20 2.52853)
(15.6267 1.59468e-21 2.47001)
(15.8101 8.97792e-20 2.522)
(15.7415 3.87702e-20 2.4639)
(15.9235 2.9835e-20 2.5157)
(15.8571 3.48884e-20 2.45797)
(15.9729 1.59913e-20 2.45258)
(13.8491 0 2.61762)
(13.7403 -1.13951e-19 2.54262)
(13.9727 1.24193e-19 2.5993)
(13.8651 1.40694e-19 2.5277)
(14.0933 -6.32646e-20 2.57971)
(13.9873 1.01494e-19 2.51107)
(14.211 -1.00468e-19 2.55961)
(14.1069 -2.41537e-19 2.49342)
(14.3262 1.33727e-19 2.53967)
(14.2242 4.69532e-20 2.47541)
(14.4391 4.23741e-20 2.52048)
(14.3395 -4.02565e-20 2.45764)
(14.5504 6.75653e-20 2.50247)
(14.453 7.44801e-20 2.44058)
(14.6605 -3.19304e-20 2.48597)
(14.5652 3.14992e-20 2.42459)
(14.77 -4.43718e-20 2.47122)
(14.6767 -1.33529e-19 2.40996)
(14.8793 1.61141e-19 2.45832)
(14.7879 2.40788e-19 2.39689)
(14.989 1.03652e-19 2.4472)
(14.8992 5.07923e-20 2.38543)
(15.0995 8.73885e-20 2.43766)
(15.011 1.68711e-21 2.37549)
(15.2111 1.45808e-19 2.42943)
(15.1238 8.89192e-20 2.36686)
(15.324 1.23709e-19 2.4222)
(15.2377 5.29481e-20 2.3593)
(15.4382 3.75118e-20 2.41566)
(15.3529 3.22e-20 2.35258)
(15.5537 -4.17442e-20 2.40955)
(15.4693 -6.10326e-20 2.34645)
(15.6702 -3.11669e-20 2.40372)
(15.5869 1.23573e-20 2.34072)
(15.7877 -1.75423e-20 2.39817)
(15.7055 -1.95298e-20 2.33532)
(15.9059 2.10178e-20 2.39312)
(15.8251 -5.84903e-20 2.33036)
(16.0247 1.86087e-20 2.38898)
(15.9452 1.05374e-21 2.32609)
(16.0973 4.14529e-24 2.32335)
(13.7542 2.55156e-20 2.45008)
(13.6472 -1.1697e-19 2.37131)
(13.8776 1.18209e-19 2.43697)
(13.7711 1.17167e-19 2.36117)
(13.9989 -7.47951e-20 2.42239)
(13.8932 7.53714e-20 2.34923)
(14.1181 -9.57892e-20 2.40694)
(14.0136 -1.02586e-19 2.33605)
(14.2355 -1.30083e-19 2.39119)
(14.1323 -4.86007e-20 2.32216)
(14.3512 -9.45401e-21 2.37564)
(14.2496 -4.38095e-20 2.30806)
(14.4658 3.83293e-20 2.36069)
(14.3657 3.64759e-20 2.29417)
(14.5795 -6.96894e-20 2.34664)
(14.4808 -3.75026e-21 2.28082)
(14.6927 1.5241e-19 2.33374)
(14.5955 -1.36149e-19 2.26828)
(14.8059 1.31137e-19 2.32216)
(14.7099 1.86952e-19 2.25676)
(14.9195 -5.30825e-20 2.31191)
(14.8246 -2.24014e-19 2.2464)
(15.0337 1.55188e-21 2.30291)
(14.9398 -4.23277e-20 2.23719)
(15.1489 -5.8681e-21 2.29497)
(15.0557 4.72662e-20 2.22902)
(15.2652 -4.0697e-20 2.28793)
(15.1727 -4.87728e-21 2.22175)
(15.3826 -6.74334e-20 2.28159)
(15.2908 -1.08178e-19 2.21526)
(15.5012 -6.76659e-21 2.27581)
(15.41 2.97313e-20 2.20941)
(15.621 2.48955e-20 2.27049)
(15.5304 5.14283e-20 2.20407)
(15.7417 -6.08366e-20 2.26565)
(15.652 -2.10506e-20 2.19922)
(15.8634 -7.98859e-20 2.26146)
(15.7746 -3.18423e-20 2.19496)
(15.986 -1.79849e-20 2.25822)
(15.898 1.7523e-21 2.19148)
(16.0548 -9.3218e-22 2.18948)
(13.6621 -2.74192e-20 2.27976)
(13.5575 0 2.19797)
(13.7847 7.40628e-20 2.27089)
(13.68 -2.17348e-19 2.19167)
(13.9059 5.0255e-20 2.26044)
(13.8014 1.41646e-19 2.18356)
(14.0258 -5.53463e-20 2.2489)
(13.9218 1.48078e-19 2.17408)
(14.1444 3.98105e-20 2.23673)
(14.0412 4.32602e-20 2.16366)
(14.262 1.75089e-21 2.22437)
(14.1596 1.255e-19 2.15272)
(14.3787 -5.87503e-21 2.21217)
(14.2773 -8.43837e-20 2.14164)
(14.4948 -6.9383e-20 2.20039)
(14.3945 7.32624e-20 2.13069)
(14.6108 -1.0692e-19 2.18927)
(14.5114 -7.80918e-21 2.12009)
(14.7268 -1.7018e-19 2.17901)
(14.6282 -6.61303e-20 2.11009)
(14.8431 -2.16469e-19 2.16972)
(14.7454 -2.30886e-19 2.10089)
(14.96 2.90302e-21 2.16137)
(14.863 -4.28216e-20 2.09253)
(15.0779 4.93357e-20 2.15389)
(14.9814 9.90087e-20 2.08494)
(15.1967 -7.22779e-20 2.14718)
(15.1007 3.91391e-20 2.0781)
(15.3166 -1.08558e-20 2.14117)
(15.2211 -9.70998e-20 2.07198)
(15.4377 8.91661e-20 2.13575)
(15.3427 4.76661e-20 2.06649)
(15.56 5.52058e-21 2.13088)
(15.4654 -2.5177e-20 2.06155)
(15.6834 8.86147e-21 2.12659)
(15.5894 -1.17781e-21 2.05716)
(15.808 5.13985e-20 2.12303)
(15.7147 2.75996e-20 2.05343)
(15.9339 2.10812e-20 2.12041)
(15.841 4.35784e-21 2.05051)
(16.0017 0 2.04904)
(13.5734 -1.90656e-19 2.10722)
(13.4715 2.58193e-19 2.02302)
(13.6947 -1.55073e-19 2.10176)
(13.5922 -1.93819e-19 2.01975)
(13.8153 2.4199e-19 2.09468)
(13.7125 2.44487e-19 2.01471)
(13.9352 2.51376e-19 2.08639)
(13.8324 4.68205e-21 2.00825)
(14.0544 1.296e-19 2.07727)
(13.9519 4.62873e-20 2.00073)
(14.173 4.10905e-20 2.06768)
(14.0708 4.15341e-20 1.99248)
(14.2911 -6.20454e-21 2.05792)
(14.1895 -4.44414e-20 1.98385)
(14.409 1.38175e-19 2.0482)
(14.308 3.98649e-20 1.97503)
(14.5269 3.53006e-20 2.03878)
(14.4265 1.01794e-19 1.96622)
(14.645 -1.25327e-19 2.02988)
(14.5451 -6.69812e-20 1.95771)
(14.7634 -5.59997e-20 2.02164)
(14.6641 5.2208e-20 1.94975)
(14.8825 5.31583e-20 2.01406)
(14.7837 -5.29179e-20 1.94233)
(15.0024 8.96509e-20 2.00714)
(14.904 8.20018e-22 1.93541)
(15.1234 1.62224e-20 2.0009)
(15.0253 4.02327e-20 1.9291)
(15.2454 -3.95781e-20 1.9953)
(15.1478 4.63846e-20 1.92344)
(15.3687 -6.84894e-20 1.99028)
(15.2714 -8.11719e-20 1.91836)
(15.4932 -3.25255e-20 1.98582)
(15.3963 -1.58167e-20 1.91381)
(15.6191 1.75378e-20 1.98198)
(15.5225 1.83878e-20 1.90985)
(15.7463 -2.02542e-20 1.9789)
(15.6502 -1.25338e-20 1.90659)
(15.875 -1.71538e-20 1.97674)
(15.7792 -1.72644e-20 1.90413)
(15.9434 0 1.90304)
(13.4884 2.64098e-19 1.93288)
(13.3895 8.33171e-21 1.84672)
(13.6081 2.07813e-19 1.93009)
(13.5083 -2.69319e-20 1.84578)
(13.7277 5.60724e-21 1.92573)
(13.6272 2.11834e-19 1.84316)
(13.8471 -2.06852e-19 1.92009)
(13.7463 -4.00682e-19 1.83913)
(13.9664 -4.41016e-20 1.91351)
(13.8653 2.13719e-19 1.83398)
(14.0854 -4.46385e-20 1.90627)
(13.9843 4.1521e-20 1.82798)
(14.2044 1.2827e-21 1.89864)
(14.1034 0 1.82141)
(14.3235 1.2977e-21 1.89079)
(14.2229 2.37256e-21 1.81448)
(14.4427 0 1.88297)
(14.3424 -3.51205e-20 1.80734)
(14.5623 1.13184e-19 1.87542)
(14.4621 0 1.80027)
(14.6825 5.7461e-20 1.86827)
(14.5826 1.15364e-19 1.79347)
(14.8034 -1.0772e-19 1.86152)
(14.7039 -5.80558e-20 1.78697)
(14.9252 -5.07303e-20 1.85523)
(14.8259 -2.78511e-21 1.7808)
(15.048 7.11347e-20 1.84951)
(14.9489 4.3079e-20 1.77508)
(15.172 6.13533e-21 1.84438)
(15.0731 3.47145e-20 1.7699)
(15.2973 -2.82631e-20 1.8398)
(15.1986 -8.16647e-20 1.76527)
(15.4239 3.59037e-20 1.83578)
(15.3255 5.34327e-20 1.76118)
(15.552 -1.19138e-20 1.8324)
(15.4538 -2.42932e-20 1.75769)
(15.6816 -9.37537e-21 1.82976)
(15.5837 9.93551e-21 1.75487)
(15.813 0 1.82798)
(15.7151 -3.26997e-21 1.75281)
(15.8826 0 1.75202)
(13.4075 -2.89757e-19 1.75694)
(13.3119 -2.63652e-19 1.66923)
(13.5255 -2.75528e-20 1.75621)
(13.4287 -4.23347e-20 1.67001)
(13.6439 -1.93081e-19 1.75397)
(13.5461 1.7896e-19 1.66923)
(13.7625 1.89868e-20 1.75048)
(13.6641 -5.66565e-19 1.66712)
(13.8814 3.05098e-19 1.74597)
(13.7824 3.86496e-19 1.66388)
(14.0005 8.81659e-20 1.74067)
(13.9012 4.61066e-20 1.65971)
(14.1199 1.12413e-21 1.73483)
(14.0204 3.73793e-20 1.65483)
(14.2397 -3.4262e-20 1.72864)
(14.1402 -4.07638e-20 1.64949)
(14.3599 -3.58149e-20 1.72231)
(14.2604 -1.05475e-19 1.64388)
(14.4807 0 1.71603)
(14.381 3.39659e-20 1.63813)
(14.6022 0 1.7099)
(14.5027 0 1.63238)
(14.7246 4.88277e-20 1.704)
(14.6252 0 1.62679)
(14.8479 9.27861e-20 1.69843)
(14.7485 2.72388e-21 1.62145)
(14.9723 5.81355e-21 1.69327)
(14.873 8.55844e-20 1.61641)
(15.0979 -5.3268e-20 1.68861)
(14.9987 -4.10711e-21 1.61174)
(15.225 -2.69315e-22 1.68449)
(15.1258 1.73747e-20 1.60754)
(15.3536 -6.94414e-21 1.68094)
(15.2544 -1.20784e-20 1.60389)
(15.4837 -2.45474e-21 1.67803)
(15.3846 2.04004e-20 1.60085)
(15.6156 1.64559e-20 1.6758)
(15.5167 1.71112e-20 1.59845)
(15.7494 -3.3393e-21 1.67434)
(15.6504 9.4583e-21 1.59674)
(15.821 9.36386e-22 1.59618)
(13.3313 -1.40812e-20 1.57961)
(13.2392 0 1.49059)
(13.4475 1.65285e-19 1.58037)
(13.354 -2.1589e-19 1.49254)
(13.5645 -1.89426e-19 1.57974)
(13.4698 5.98608e-19 1.49309)
(13.6821 -2.08374e-19 1.57792)
(13.5864 -7.6978e-19 1.4924)
(13.8004 1.27357e-19 1.57507)
(13.7039 3.60055e-19 1.49062)
(13.9193 -5.86222e-21 1.57137)
(13.8222 3.97236e-20 1.48792)
(14.0388 -4.02094e-21 1.56704)
(13.9412 3.59758e-20 1.48447)
(14.1589 -1.12607e-19 1.5623)
(14.061 -4.30417e-20 1.48052)
(14.2797 -3.65792e-20 1.5573)
(14.1815 -1.72277e-19 1.47623)
(14.4012 3.46368e-20 1.55215)
(14.3028 1.32532e-19 1.47164)
(14.5238 0 1.54698)
(14.4251 -2.95005e-20 1.46686)
(14.6473 -4.74311e-20 1.54198)
(14.5486 -7.73849e-20 1.46214)
(14.7719 -6.25433e-21 1.5372)
(14.6731 1.83654e-21 1.45764)
(14.8976 7.71313e-20 1.53268)
(14.7988 5.31266e-22 1.45331)
(15.0247 6.80888e-20 1.52848)
(14.9259 -1.0962e-21 1.44918)
(15.1533 5.77203e-21 1.52476)
(15.0544 1.78048e-21 1.44539)
(15.2837 1.53893e-20 1.52163)
(15.1846 -1.4791e-21 1.44213)
(15.4158 4.05746e-20 1.51913)
(15.3167 2.27411e-20 1.43948)
(15.5499 1.00593e-20 1.51726)
(15.4506 -1.52798e-20 1.43744)
(15.6861 1.23576e-20 1.51607)
(15.5865 1.0132e-20 1.43602)
(15.7601 9.61836e-22 1.43562)
(13.2601 -2.02822e-19 1.40079)
(13.1717 0 1.31077)
(13.3745 2.12316e-19 1.40254)
(13.2844 -2.07143e-19 1.31343)
(13.4899 3.06918e-20 1.40304)
(13.3985 4.52733e-19 1.31484)
(13.6065 -2.08882e-19 1.40243)
(13.5138 -4.25553e-19 1.31513)
(13.7239 2.76565e-19 1.40084)
(13.6303 1.70878e-19 1.31442)
(13.8423 8.27728e-20 1.39844)
(13.7478 1.68822e-19 1.31287)
(13.9616 -2.54509e-21 1.39543)
(13.8663 -1.24054e-19 1.31064)
(14.0817 -1.01662e-19 1.39195)
(13.9859 7.17765e-20 1.3079)
(14.2027 -4.58413e-21 1.38808)
(14.1064 -2.41136e-19 1.30469)
(14.3248 6.97828e-20 1.38389)
(14.2281 1.66044e-19 1.30102)
(14.4481 -1.08108e-19 1.37959)
(14.351 -3.0933e-20 1.29705)
(14.5726 -2.8326e-20 1.3754)
(14.4752 -1.03827e-19 1.29313)
(14.6983 8.9098e-21 1.37136)
(14.6007 1.25533e-19 1.28938)
(14.8254 -7.97233e-20 1.36745)
(14.7275 -8.28772e-20 1.28573)
(14.9539 -6.92071e-20 1.36374)
(14.8558 -3.27525e-20 1.28218)
(15.084 -5.61956e-21 1.36042)
(14.9857 3.4137e-20 1.27886)
(15.2159 5.61947e-21 1.35766)
(15.1173 2.70096e-20 1.276)
(15.3498 -3.38511e-20 1.35551)
(15.2509 -2.15719e-20 1.27373)
(15.4858 -1.56169e-20 1.35393)
(15.3866 -1.26888e-20 1.27203)
(15.6241 -3.06868e-21 1.35294)
(15.5244 -1.31817e-20 1.27086)
(15.7006 0 1.27059)
(13.1942 0 1.22071)
(13.1095 -1.10774e-19 1.12962)
(13.3067 2.60015e-20 1.22305)
(13.2203 1.09304e-19 1.13261)
(13.4206 2.22327e-21 1.22428)
(13.3327 -9.7561e-20 1.13452)
(13.5359 -4.75647e-20 1.2245)
(13.4466 1.4224e-19 1.13543)
(13.6523 6.01191e-20 1.22386)
(13.5619 -7.07305e-20 1.13547)
(13.77 -3.77412e-20 1.22249)
(13.6785 8.52639e-20 1.13475)
(13.8889 -5.16433e-20 1.22056)
(13.7964 -4.84632e-20 1.13343)
(14.0088 -6.52115e-20 1.21812)
(13.9156 -2.03258e-20 1.13162)
(14.13 -7.40273e-20 1.21514)
(14.0362 -7.56248e-20 1.12927)
(14.2525 6.64302e-20 1.21173)
(14.158 -5.78939e-20 1.12631)
(14.3763 -2.5096e-20 1.2082)
(14.2811 3.26004e-20 1.12305)
(14.5015 4.97863e-20 1.20477)
(14.4058 -2.01947e-20 1.11988)
(14.6281 3.5248e-20 1.20144)
(14.532 1.25945e-19 1.11685)
(14.7562 -3.56032e-20 1.19818)
(14.6596 -4.09358e-20 1.11386)
(14.8859 7.21477e-20 1.19504)
(14.7889 5.12542e-21 1.11088)
(15.0173 6.7818e-20 1.19221)
(14.9199 2.25046e-20 1.10805)
(15.1506 0 1.18987)
(15.0528 2.55673e-21 1.10559)
(15.286 0 1.18808)
(15.1878 3.30359e-20 1.1037)
(15.4237 -1.0212e-20 1.1868)
(15.325 0 1.10233)
(15.5639 -1.03476e-20 1.18599)
(15.4646 -1.64818e-22 1.10136)
(15.6431 0 1.10109)
(13.134 -3.17181e-21 1.03865)
(13.053 -7.8868e-21 0.946942)
(13.2446 -1.32364e-20 1.04121)
(13.162 2.15457e-19 0.949933)
(13.357 4.13139e-20 1.04282)
(13.2727 -1.32044e-19 0.952013)
(13.4709 1.22948e-19 1.04355)
(13.3851 8.72207e-20 0.953246)
(13.5863 -4.82198e-20 1.04352)
(13.4992 -9.27387e-20 0.953715)
(13.7032 7.70314e-20 1.04285)
(13.6149 0 0.953525)
(13.8215 -1.68425e-20 1.04168)
(13.732 7.86707e-20 0.952816)
(13.9412 -2.98847e-20 1.04001)
(13.8507 -7.89189e-20 0.951691)
(14.0623 -5.93163e-20 1.03773)
(13.9713 6.7592e-20 0.950023)
(14.1849 -9.46273e-20 1.03497)
(14.093 -1.4467e-19 0.947718)
(14.309 3.86974e-20 1.0321)
(14.216 3.41369e-20 0.94513)
(14.4345 5.52333e-20 1.02934)
(14.3409 -7.0473e-20 0.942646)
(14.5617 5.09658e-20 1.02665)
(14.4675 7.72822e-20 0.940251)
(14.6906 0 1.02396)
(14.5957 2.08888e-20 0.937828)
(14.8212 -4.61682e-20 1.0213)
(14.7258 0 0.935363)
(14.9537 -4.40959e-20 1.01886)
(14.8577 -3.26803e-20 0.932943)
(15.0883 3.59034e-20 1.0169)
(14.9916 -1.16597e-20 0.930867)
(15.2251 3.3679e-20 1.01546)
(15.1279 8.84151e-21 0.929386)
(15.3643 1.03199e-20 1.01441)
(15.2667 -3.26337e-21 0.928353)
(15.5062 1.04596e-20 1.01368)
(15.4079 6.80353e-22 0.927563)
(15.5884 4.49607e-21 0.927377)
(13.0795 2.12178e-19 0.855559)
(13.0026 1.09242e-19 0.762398)
(13.1884 1.00884e-19 0.858086)
(13.1098 1.12508e-19 0.765135)
(13.2992 -8.96025e-20 0.859819)
(13.219 -4.48699e-21 0.767135)
(13.4118 -1.3088e-19 0.860817)
(13.33 -7.55651e-20 0.768443)
(13.5261 -4.51275e-20 0.861158)
(13.4428 -1.19289e-19 0.769115)
(13.642 0 0.860947)
(13.5575 9.38096e-20 0.769222)
(13.7597 1.80966e-20 0.860294)
(13.6737 0 0.768854)
(13.879 1.8333e-20 0.859201)
(13.7918 3.63391e-20 0.768099)
(13.9999 -1.57075e-20 0.857582)
(13.9121 0 0.766921)
(14.1223 -1.59093e-20 0.85553)
(14.0336 -8.43158e-22 0.765277)
(14.2464 -7.59835e-20 0.853352)
(14.1564 0 0.763379)
(14.3722 -5.08224e-20 0.851231)
(14.2813 -5.21365e-20 0.761466)
(14.4998 4.74408e-20 0.849136)
(14.4082 2.65976e-20 0.759557)
(14.6292 2.13045e-20 0.847006)
(14.5369 -1.94918e-20 0.757622)
(14.7606 1.44928e-20 0.844842)
(14.6677 -1.80309e-20 0.755655)
(14.8941 2.42401e-22 0.842801)
(14.8003 1.47738e-20 0.753675)
(15.0297 -3.99388e-20 0.841188)
(14.9348 -1.46815e-20 0.7519)
(15.1678 -2.89639e-20 0.840128)
(15.0722 -2.5859e-20 0.750641)
(15.3086 -1.33496e-20 0.839419)
(15.2124 4.32007e-21 0.749879)
(15.4521 -5.64062e-21 0.838888)
(15.3549 -5.24775e-21 0.749354)
(15.537 5.78604e-23 0.749173)
(13.0314 6.45722e-21 0.668744)
(12.9585 -9.73739e-20 0.575543)
(13.1388 6.60165e-21 0.670951)
(13.0642 1.95124e-19 0.577815)
(13.2482 1.15391e-20 0.67253)
(13.1719 -9.72218e-20 0.57953)
(13.3594 -6.27244e-20 0.67352)
(13.2816 -7.61099e-20 0.580716)
(13.4726 1.90178e-20 0.673968)
(13.3933 1.06387e-20 0.581405)
(13.5876 9.58769e-20 0.673928)
(13.5069 1.7436e-19 0.58163)
(13.7045 1.8001e-20 0.673462)
(13.6223 -4.22693e-21 0.581405)
(13.8232 1.82381e-20 0.672623)
(13.7398 -7.06637e-20 0.580793)
(13.9438 1.52604e-20 0.671455)
(13.8596 0 0.579937)
(14.066 1.54597e-20 0.670021)
(13.9806 4.43823e-20 0.578906)
(14.19 2.5489e-20 0.668409)
(14.1032 -4.23045e-20 0.577661)
(14.3159 2.58002e-20 0.666708)
(14.2281 2.60146e-20 0.57621)
(14.4437 -4.11893e-20 0.66498)
(14.3551 3.27122e-20 0.574664)
(14.5737 -5.98533e-20 0.663262)
(14.484 -2.44994e-20 0.573138)
(14.7056 -1.83889e-20 0.661558)
(14.6152 -1.99479e-20 0.571705)
(14.8397 0 0.659888)
(14.7484 0 0.570317)
(14.9761 0 0.658441)
(14.8834 6.33904e-21 0.568885)
(15.1151 7.62623e-21 0.657479)
(15.0213 0 0.567701)
(15.2569 1.27191e-20 0.656983)
(15.1623 1.5297e-20 0.567141)
(15.4016 6.78588e-22 0.656684)
(15.3059 3.6531e-22 0.566999)
(15.4894 -4.48517e-21 0.567111)
(12.9898 9.02889e-20 0.482127)
(12.921 -1.54199e-19 0.385817)
(13.0958 9.4902e-20 0.483928)
(13.0253 2.5048e-19 0.38745)
(13.2039 -1.881e-19 0.485276)
(13.1317 -5.49846e-20 0.388706)
(13.314 -2.44189e-21 0.486191)
(13.2402 -1.35488e-19 0.389599)
(13.4261 1.67072e-19 0.486694)
(13.3508 1.45367e-19 0.390144)
(13.5402 7.51161e-20 0.486788)
(13.4635 3.05051e-20 0.390345)
(13.6563 -9.42632e-20 0.486484)
(13.578 -4.35802e-21 0.390173)
(13.7744 -9.10706e-20 0.485888)
(13.6947 -9.61224e-20 0.389668)
(13.8944 2.90319e-20 0.48518)
(13.8136 0 0.389062)
(14.0163 -1.3241e-20 0.484382)
(13.9341 5.77906e-20 0.388491)
(14.1401 -4.31928e-20 0.483369)
(14.0565 -5.79754e-20 0.387764)
(14.2659 3.29828e-20 0.482136)
(14.1811 0 0.386744)
(14.3938 5.12042e-20 0.48084)
(14.3079 2.25763e-20 0.385584)
(14.5238 1.67605e-20 0.479624)
(14.4367 2.30944e-20 0.384478)
(14.6561 -1.29981e-21 0.478521)
(14.5678 -5.63582e-21 0.383521)
(14.7906 6.38969e-21 0.477434)
(14.7012 -1.05401e-20 0.382664)
(14.9275 6.46191e-21 0.476348)
(14.8368 1.01507e-20 0.381714)
(15.0671 7.58176e-21 0.475559)
(14.9747 2.47751e-21 0.380796)
(15.2095 2.80627e-21 0.475286)
(15.116 2.60833e-22 0.380339)
(15.3552 -4.93351e-21 0.475285)
(15.2604 -4.95763e-21 0.380332)
(15.4446 -1.04654e-21 0.380521)
(12.9551 1.35042e-21 0.287102)
(12.7703 -5.23436e-20 0.192296)
(13.0598 1.03025e-19 0.288176)
(12.872 3.43022e-20 0.193086)
(13.1666 1.26107e-21 0.288973)
(12.9759 6.98962e-20 0.193676)
(13.2756 1.04081e-20 0.289501)
(13.082 -4.61887e-20 0.194072)
(13.3867 7.11065e-21 0.289764)
(13.1901 5.25036e-20 0.194277)
(13.4999 -5.0671e-20 0.289746)
(13.3002 -5.10619e-20 0.194288)
(13.6152 -4.29372e-21 0.289442)
(13.4123 -1.73175e-20 0.194084)
(13.7324 -4.35147e-21 0.288963)
(13.5264 1.68783e-20 0.193691)
(13.8516 2.83696e-20 0.288495)
(13.6425 1.49568e-20 0.19327)
(13.9729 1.40927e-20 0.288033)
(13.7604 1.41354e-20 0.192916)
(14.0963 -1.48342e-20 0.287398)
(13.8803 -2.12571e-20 0.192483)
(14.2217 -1.10819e-20 0.286552)
(14.0022 6.25898e-21 0.191846)
(14.3493 -6.24675e-21 0.28565)
(14.1262 -1.13018e-20 0.191098)
(14.4791 6.67651e-22 0.284838)
(14.2522 3.04641e-22 0.190381)
(14.6113 -1.50363e-20 0.284155)
(14.3804 -4.21962e-21 0.189751)
(14.7459 -7.02152e-21 0.283533)
(14.511 -6.66167e-21 0.189225)
(14.8829 6.28772e-21 0.282898)
(14.6438 5.52549e-21 0.188741)
(15.0226 -4.85419e-21 0.282397)
(14.7788 -1.20979e-21 0.188214)
(15.1653 -7.46551e-21 0.282289)
(14.917 -7.51504e-21 0.187847)
(15.3111 -1.05153e-21 0.282659)
(15.0583 0 0.187991)
(15.239 2.74385e-23 0.189)
(12.6823 -2.03787e-20 0.0964747)
(12.7833 -6.70792e-22 0.0967901)
(12.8863 2.36515e-20 0.0969913)
(12.9914 -5.0812e-21 0.09708)
(13.0986 -5.15548e-21 0.0970552)
(13.2076 -1.74518e-20 0.0969089)
(13.3186 3.77308e-21 0.0966404)
(13.4314 3.68286e-20 0.0963009)
(13.546 3.42998e-22 0.0959672)
(13.6626 -2.14904e-20 0.0956298)
(13.7811 -1.28106e-22 0.0952091)
(13.9016 6.38517e-21 0.0946891)
(14.0239 -4.85008e-21 0.0941333)
(14.1482 -4.63159e-21 0.0935987)
(14.2747 4.51161e-21 0.0931064)
(14.4034 5.96274e-21 0.0926512)
(14.5346 -2.11256e-21 0.0922086)
(14.6682 -3.85523e-21 0.0917937)
(14.8045 0 0.0915235)
(14.9442 1.02809e-21 0.0916457)
)
;

boundaryField
{
    inlet
    {
        type            calculated;
        value           nonuniform 0();
    }
    outlet
    {
        type            calculated;
        value           nonuniform List<vector> 
15
(
(16.1451 1.79869e-21 2.38744)
(16.1106 -1.83951e-21 2.25714)
(16.062 0 2.11962)
(16.0062 0 1.97618)
(15.9469 0 1.82759)
(15.886 0 1.67408)
(15.8252 1.89827e-21 1.5159)
(15.7655 0 1.35284)
(15.7074 0 1.18593)
(15.6515 0 1.01361)
(15.5991 9.11159e-21 0.838844)
(15.5495 -8.85681e-21 0.6567)
(15.5044 0 0.475412)
(15.46 -2.11983e-21 0.28304)
(15.0882 2.07252e-21 0.0918716)
)
;
    }
    flap
    {
        type            calculated;
        value           nonuniform 0();
    }
    upperWall
    {
        type            calculated;
        value           uniform (0 0 0);
    }
    lowerWall
    {
        type            calculated;
        value           nonuniform 0();
    }
    frontAndBack
    {
        type            empty;
        value           nonuniform 0();
    }
    procBoundary2to1
    {
        type            processor;
        value           nonuniform List<vector> 
17
(
(13.9185 -1.23262e-19 2.97114)
(13.8194 0 2.8043)
(13.7225 -1.29164e-19 2.63393)
(13.6287 -1.14731e-19 2.46112)
(13.5383 -1.62394e-20 2.28657)
(13.4516 1.58616e-20 2.1107)
(13.3687 5.11068e-19 1.93379)
(13.29 -5.24721e-19 1.75595)
(13.216 1.57242e-20 1.57729)
(13.147 0 1.39765)
(13.0833 -7.77004e-21 1.21716)
(13.025 -2.27901e-19 1.03507)
(12.9724 2.24087e-19 0.852191)
(12.9261 -4.24367e-23 0.665879)
(12.8861 1.44287e-20 0.479855)
(12.8527 -5.24627e-20 0.28574)
(12.5836 -2.268e-20 0.0960431)
)
;
    }
    procBoundary2to4
    {
        type            processor;
        value           nonuniform List<vector> 
11
(
(6.01621 -1.62822e-20 1.50632)
(9.26621 1.47899e-20 2.3417)
(11.4517 7.05075e-21 2.94364)
(12.8247 1.05058e-20 3.33474)
(13.6221 -6.12413e-20 3.54936)
(14.0349 1.45147e-19 3.63032)
(14.2064 -1.43082e-19 3.61673)
(14.2373 -1.47711e-20 3.54035)
(14.1933 7.37484e-21 3.42476)
(14.1131 -3.74815e-19 3.28568)
(14.018 2.21296e-19 3.13264)
)
;
    }
    procBoundary2to5
    {
        type            processor;
        value           nonuniform List<vector> 
34
(
(3.37857 6.11176e-21 0.835162)
(2.76298 -2.31097e-21 0.64663)
(4.83076 -1.63351e-21 1.05336)
(6.26009 6.99027e-22 1.31839)
(5.77522 2.01707e-20 1.10385)
(7.30788 -1.87966e-20 1.41993)
(8.3915 -2.10249e-20 1.63972)
(9.55658 3.27896e-20 1.89654)
(10.3464 2.50191e-20 2.06436)
(9.98374 -3.01198e-21 1.92244)
(10.8954 -4.65906e-20 2.13395)
(11.5127 -6.19291e-20 2.27338)
(11.2271 -8.68269e-20 2.17461)
(11.9574 -2.58661e-20 2.35218)
(12.4545 1.87378e-20 2.46474)
(13.0135 4.71841e-20 2.59533)
(13.3871 6.50014e-20 2.66859)
(13.2628 -5.48899e-20 2.63055)
(13.7289 -5.11709e-20 2.72565)
(14.0397 3.71432e-20 2.76996)
(14.394 5.44235e-20 2.82195)
(14.6253 -3.31984e-20 2.83263)