/*--------------------------------*- C++ -*----------------------------------*\
| =========                 |                                                 |
| \\      /  F ield         | OpenFOAM: The Open Source CFD Toolbox           |
|  \\    /   O peration     | Version:  dev                                   |
|   \\  /    A nd           | Web:      www.OpenFOAM.org                      |
|    \\/     M anipulation  |                                                 |
\*---------------------------------------------------------------------------*/
FoamFile
{
    version     2.0;
    format      ascii;
    class       surfaceVectorField;
    location    "2.4";
    object      Uf;
}
// * * * * * * * * * * * * * * * * * * * * * * * * * * * * * * * * * * * * * //

dimensions      [0 1 -1 0 0 0 0];

internalField   nonuniform List<vector> 
881
(
(9.91212 8.07233e-23 0.0219291)
(9.97248 -7.31363e-22 0.0366964)
(9.81737 7.43847e-22 0.0275841)
(9.93175 7.60284e-22 0.0408916)
(9.71275 1.35899e-20 0.0320014)
(9.86651 -6.35659e-21 0.0469476)
(9.59615 -1.18524e-21 0.0364935)
(9.78436 6.63377e-21 0.0544006)
(9.4677 1.22713e-21 0.0410617)
(9.68968 1.38114e-20 0.0622557)
(9.32782 6.51768e-21 0.0457276)
(9.58293 1.45318e-20 0.070391)
(9.17656 -1.56572e-20 0.0506133)
(9.4637 1.51834e-20 0.0789784)
(9.01363 -1.64572e-20 0.0558551)
(9.33172 -3.66746e-23 0.088232)
(8.83845 6.40059e-22 0.0615726)
(9.18668 8.23625e-21 0.0983441)
(8.65027 1.80614e-20 0.0678745)
(9.02799 8.75594e-21 0.109487)
(8.44817 -6.86869e-22 0.0748737)
(8.85491 9.29629e-21 0.121837)
(8.23108 -9.46137e-21 0.0827008)
(8.66647 -9.63333e-21 0.135592)
(7.99773 -6.80145e-22 0.09151)
(8.46154 0 0.150985)
(7.7467 -2.08667e-21 0.101478)
(8.23883 -7.53742e-24 0.168277)
(7.47637 -1.38115e-21 0.112807)
(7.99686 8.96928e-20 0.187767)
(7.18491 -6.32955e-21 0.12572)
(7.73394 1.54833e-21 0.209784)
(6.87035 -6.11809e-21 0.140469)
(7.44821 -1.06749e-20 0.234685)
(6.53054 -4.26385e-20 0.157338)
(7.13759 8.03417e-20 0.262845)
(6.1632 1.72538e-20 0.176649)
(6.79982 -7.85988e-20 0.294673)
(5.76591 5.66758e-20 0.198742)
(6.43254 3.33216e-20 0.330579)
(6.0332 -5.53911e-20 0.370919)
(10.0045 0 0.0434771)
(10.0038 -4.65859e-20 0.0347603)
(9.97738 -6.494e-21 0.0563083)
(9.99261 -6.06447e-21 0.0525605)
(9.9339 -1.30381e-20 0.0670161)
(9.96021 5.06147e-20 0.0664015)
(9.87589 2.17816e-20 0.0783658)
(9.91097 -5.96361e-20 0.0813975)
(9.80354 2.71421e-20 0.0903217)
(9.84819 2.34598e-23 0.0972578)
(9.71717 2.32185e-20 0.102866)
(9.77253 5.80708e-20 0.113782)
(9.61695 3.05084e-20 0.116243)
(9.6838 -5.29356e-20 0.13124)
(9.50271 2.4811e-20 0.130759)
(9.58183 -2.37774e-20 0.150029)
(9.37403 1.63708e-20 0.146695)
(9.46639 -1.65795e-20 0.170525)
(9.23028 0 0.164318)
(9.33704 8.7484e-20 0.193075)
(9.07064 0 0.183913)
(9.19312 -7.25723e-20 0.218042)
(8.89412 0 0.205801)
(9.03381 9.55072e-21 0.245832)
(8.69954 6.73715e-22 0.230352)
(8.8581 0 0.276906)
(8.48555 9.33392e-20 0.257985)
(8.66483 6.6215e-22 0.31179)
(8.2506 9.10601e-20 0.289177)
(8.45265 9.38672e-20 0.351085)
(7.99292 -3.02286e-21 0.324454)
(8.22002 1.54848e-21 0.39548)
(7.71053 7.73103e-20 0.364374)
(7.96521 -4.3406e-21 0.445723)
(7.40126 4.1665e-20 0.409543)
(7.68619 1.31518e-19 0.502606)
(7.06272 -6.07443e-20 0.46061)
(7.38078 1.70031e-20 0.567011)
(6.69232 -7.99787e-20 0.5182)
(7.04667 4.1024e-21 0.639871)
(6.68113 4.80849e-19 0.722067)
(9.99755 -5.18748e-20 0.0464432)
(10.0015 2.82371e-21 0.0357929)
(9.97441 5.22744e-20 0.0659643)
(9.98794 -9.08647e-21 0.0625832)
(9.93487 1.67971e-21 0.0836896)
(9.95686 6.34635e-21 0.0842081)
(9.88199 -8.02134e-20 0.102424)
(9.91068 5.28282e-20 0.106147)
(9.81631 3.20932e-20 0.12229)
(9.85168 4.46408e-24 0.129187)
(9.73805 -2.02778e-20 0.143293)
(9.78057 3.20005e-22 0.153274)
(9.64731 -1.06687e-19 0.165761)
(9.69731 -1.50875e-20 0.178743)
(9.54396 -6.50396e-20 0.190138)
(9.60181 -9.52064e-20 0.206127)
(9.42768 5.6454e-20 0.216856)
(9.49392 4.92689e-20 0.23595)
(9.29797 1.19559e-20 0.246348)
(9.37329 3.50214e-20 0.268707)
(9.15416 -6.1561e-20 0.279084)
(9.23945 -3.82169e-22 0.304925)
(8.9954 9.38319e-21 0.315597)
(9.09175 1.90164e-20 0.345194)
(8.82071 0 0.356492)
(8.92937 -9.94429e-21 0.390185)
(8.6289 2.80221e-21 0.40246)
(8.75138 0 0.440656)
(8.41866 2.70783e-21 0.4543)
(8.55667 -6.69774e-22 0.49748)
(8.18843 4.70428e-23 0.512916)
(8.34398 0 0.561678)
(7.93644 5.1965e-20 0.579269)
(8.11194 -1.18874e-20 0.634393)
(7.66068 1.04732e-19 0.654399)
(7.85879 5.09122e-20 0.716815)
(7.359 8.14213e-20 0.739476)
(7.58261 7.97765e-20 0.810273)
(7.02888 5.71678e-19 0.835717)
(7.28147 4.75556e-19 0.916315)
(6.9529 1.33131e-19 1.03654)
(9.99285 4.54309e-20 0.0525024)
(10 4.94673e-20 0.0387873)
(9.97 -5.46462e-20 0.0802784)
(9.9845 9.0521e-21 0.0724938)
(9.93127 5.84678e-20 0.105968)
(9.95318 -6.3199e-20 0.101664)
(9.87929 1.31947e-19 0.132168)
(9.90788 5.3024e-20 0.130503)
(9.81503 -3.17631e-20 0.159479)
(9.85018 2.77603e-20 0.160465)
(9.73875 5.1849e-21 0.188161)
(9.7807 -5.78097e-20 0.191814)
(9.65054 -5.17338e-21 0.218695)
(9.69948 1.2093e-19 0.224985)
(9.55033 2.18258e-20 0.251672)
(9.60652 -9.53608e-20 0.260601)
(9.43792 2.75808e-20 0.287677)
(9.50175 1.48205e-19 0.299291)
(9.31299 2.20314e-20 0.327295)
(9.38493 -8.70332e-20 0.341672)
(9.17505 8.05817e-20 0.371169)
(9.25571 2.17495e-19 0.388402)
(9.02349 -8.17217e-22 0.420024)
(9.11361 -3.11734e-19 0.440232)
(8.85754 -9.7746e-21 0.47468)
(8.95803 3.16406e-19 0.498011)
(8.67633 -3.4827e-21 0.53607)
(8.78823 1.26279e-20 0.562692)
(8.47884 -3.36699e-21 0.605272)
(8.6034 -1.7768e-19 0.635362)
(8.26393 -1.21394e-20 0.683545)
(8.40254 0 0.717297)
(8.03021 -1.1896e-20 0.772255)
(8.18475 1.19094e-20 0.810009)
(7.77609 2.64593e-20 0.872845)
(7.94875 3.76384e-19 0.915075)
(7.49985 4.79899e-19 0.986988)
(7.69292 -4.91428e-19 1.03416)
(7.19954 3.29132e-20 1.11661)
(7.41584 4.47191e-19 1.16935)
(7.11567 -4.59302e-19 1.32303)
(9.99043 1.23077e-20 0.0594313)
(9.99933 9.238e-20 0.0427916)
(9.96711 -1.04822e-21 0.0941635)
(9.98257 2.41146e-20 0.0826104)
(9.929 -6.62266e-20 0.126759)
(9.95098 7.53058e-20 0.118854)
(9.8779 -5.17136e-20 0.159601)
(9.90651 -1.31478e-19 0.154466)
(9.8149 0 0.193707)
(9.85015 -2.74095e-20 0.191152)
(9.74032 6.14053e-20 0.229604)
(9.78232 0 0.229531)
(9.6542 2.66304e-20 0.267888)
(9.70311 6.04297e-20 0.27017)
(9.55653 3.56354e-20 0.309227)
(9.61261 -1.25788e-19 0.313754)
(9.44717 2.9296e-20 0.354293)
(9.51079 1.97838e-22 0.360994)
(9.32589 1.13953e-19 0.40378)
(9.39747 -3.45526e-20 0.412606)
(9.19232 -1.84276e-19 0.45846)
(9.27237 1.45329e-19 0.469373)
(9.04597 1.64238e-20 0.519206)
(9.13513 -3.21381e-19 0.532183)
(8.88627 3.33661e-19 0.587)
(8.98529 3.26534e-19 0.602028)
(8.71254 -1.64841e-19 0.662952)
(8.82228 2.3591e-21 0.680022)
(8.52404 -1.71431e-19 0.748336)
(8.64549 1.73813e-19 0.767423)
(8.31996 2.42299e-20 0.844673)
(8.45416 -3.56184e-19 0.865681)
(8.09939 4.05974e-19 0.953693)
(8.24765 -3.6561e-19 0.976575)
(7.86116 -1.54436e-19 1.07719)
(8.02536 7.65572e-19 1.10208)
(7.60398 -5.09973e-19 1.21721)
(7.78603 -5.39056e-20 1.24419)
(7.32647 -5.78777e-20 1.37626)
(7.5285 -4.23532e-19 1.40534)
(7.25166 -5.70667e-20 1.5886)
(9.98916 1.02891e-19 0.0667802)
(9.99896 1.71065e-22 0.0473282)
(9.96541 1.01605e-19 0.107908)
(9.98156 -9.56662e-20 0.0929169)
(9.928 5.73952e-21 0.147183)
(9.95 -9.99421e-20 0.135742)
(9.87807 -1.0509e-19 0.186675)
(9.90651 1.30753e-19 0.177898)
(9.81661 -2.68741e-20 0.227601)
(9.85171 2.69962e-20 0.221121)
(9.74397 1.8743e-22 0.270685)
(9.78577 5.70053e-20 0.2663)
(9.66026 -9.5544e-20 0.316615)
(9.70885 1.83951e-22 0.314147)
(9.56547 -1.58897e-19 0.366117)
(9.62113 -3.1674e-20 0.365409)
(9.45951 -6.43157e-20 0.419941)
(9.52262 -1.31208e-19 0.42087)
(9.34219 0 0.478887)
(9.41319 1.35493e-19 0.481338)
(9.21325 0 0.543848)
(9.29259 1.43009e-19 0.547699)
(9.07229 0 0.615833)
(9.16057 -1.47736e-19 0.620961)
(8.91888 -1.04473e-20 0.695964)
(9.01684 3.86846e-20 0.702235)
(8.7525 3.43858e-19 0.785508)
(8.86093 -1.02796e-20 0.792773)
(8.57258 -1.92984e-20 0.88589)
(8.69245 3.48387e-19 0.893996)
(8.37853 -7.46343e-19 0.99879)
(8.51074 -3.56398e-19 1.00748)
(8.16987 1.11346e-20 1.12623)
(8.31535 -7.49574e-19 1.13512)
(7.94592 8.53748e-19 1.2704)
(8.10616 7.47196e-19 1.27921)
(7.70577 2.83021e-20 1.43366)
(7.88245 1.2458e-18 1.44218)
(7.44846 -4.18005e-19 1.61896)
(7.64327 -1.25138e-18 1.62675)
(7.38807 0 1.83645)
(9.98851 -2.00298e-19 0.0743657)
(9.99875 -9.80332e-20 0.0521367)
(9.96468 -2.97385e-19 0.121534)
(9.9812 -6.22853e-21 0.103267)
(9.92815 2.98924e-20 0.167184)
(9.95004 1.16197e-20 0.15225)
(9.87963 2.608e-19 0.213103)
(9.90774 1.05149e-19 0.200692)
(9.81994 1.11537e-19 0.260602)
(9.85467 5.41487e-20 0.250258)
(9.7495 5.59315e-20 0.310564)
(9.79087 -2.81105e-23 0.302006)
(9.66847 6.3462e-20 0.363782)
(9.71656 5.91814e-20 0.356774)
(9.5769 -5.75087e-21 0.421056)
(9.63196 -1.24257e-19 0.415388)
(9.47474 7.34701e-20 0.483225)
(9.53717 6.31045e-20 0.478704)
(9.36184 2.78736e-19 0.551178)
(9.43211 2.02967e-19 0.54762)
(9.23801 -9.75162e-21 0.625905)
(9.31654 2.13412e-19 0.623103)
(9.10299 -1.05974e-19 0.708523)
(9.19032 -1.47864e-19 0.706237)
(8.95651 3.80664e-20 0.800278)
(9.05331 2.47769e-22 0.798243)
(8.7982 0 0.902586)
(8.90516 3.22044e-19 0.900503)
(8.62762 0 1.01702)
(8.74566 -3.31742e-19 1.0146)
(8.44431 -3.65447e-19 1.14534)
(8.57439 3.50079e-19 1.14226)
(8.24801 8.37396e-21 1.28972)
(8.39098 -1.08476e-18 1.28538)
(8.03851 1.14626e-18 1.4527)
(8.19547 7.56478e-19 1.44644)
(7.81529 -6.5515e-20 1.63702)
(7.98776 8.31323e-19 1.62833)
(7.57783 -8.18054e-19 1.84594)
(7.7672 -8.53178e-19 1.83404)
(7.53372 0 2.06738)
(9.98826 9.78314e-20 0.0820125)
(9.99865 -5.74403e-21 0.0570484)
(9.96475 3.03267e-19 0.134915)
(9.9813 1.25364e-19 0.113486)
(9.9293 8.88537e-20 0.186628)
(9.95085 5.05031e-20 0.168291)
(9.88238 -1.02629e-19 0.238733)
(9.90993 -7.85676e-20 0.222761)
(9.82473 -5.84896e-20 0.292571)
(9.85884 -6.26317e-22 0.278442)
(9.75679 4.34409e-21 0.349142)
(9.79749 5.57997e-20 0.336494)
(9.6788 -1.31991e-19 0.409333)
(9.72615 -5.85612e-20 0.397867)
(9.59087 -5.19948e-20 0.474026)
(9.6451 -1.86727e-19 0.463469)
(9.493 1.95217e-19 0.544139)
(9.55448 1.28963e-19 0.534229)
(9.38508 1.37761e-19 0.620647)
(9.45428 3.39598e-22 0.611135)
(9.26698 6.91343e-20 0.704608)
(9.34432 6.99693e-20 0.695228)
(9.13854 -3.91122e-20 0.797215)
(9.22455 0 0.787636)
(8.99962 2.89489e-19 0.899818)
(9.09487 -3.85012e-20 0.889667)
(8.85002 -1.98071e-20 1.01396)
(8.95512 4.93346e-21 1.00281)
(8.68953 2.86078e-20 1.14138)
(8.80518 3.25031e-19 1.12876)
(8.51788 -3.90019e-19 1.28394)
(8.64504 -3.33006e-19 1.26939)
(8.33492 -3.11392e-19 1.44387)
(8.47455 -3.72232e-19 1.42671)
(8.14071 4.42688e-19 1.62394)
(8.29364 -3.42671e-19 1.60323)
(7.93517 2.28457e-20 1.82724)
(8.10274 7.82611e-19 1.80214)
(7.71822 -2.493e-20 2.05728)
(7.90172 -7.87244e-19 2.02677)
(7.69084 8.09194e-19 2.28106)
(9.98828 2.42562e-20 0.0895801)
(9.99878 -1.81709e-19 0.0619507)
(9.96535 -1.29049e-19 0.147934)
(9.9817 2.3806e-20 0.12346)
(9.93116 -1.1964e-19 0.20542)
(9.95215 -1.24486e-19 0.183784)
(9.88608 2.50572e-20 0.263458)
(9.91284 1.49054e-22 0.244)
(9.83078 1.14825e-19 0.323371)
(9.86397 -5.47125e-20 0.305518)
(9.76573 -9.23452e-21 0.386246)
(9.80541 1.68638e-19 0.369574)
(9.69121 -1.15674e-19 0.453058)
(9.73742 2.34123e-19 0.43721)
(9.60737 0 0.524771)
(9.6603 -1.21743e-19 0.509416)
(9.51425 -6.82748e-20 0.602376)
(9.57427 -6.3486e-20 0.587196)
(9.41183 -6.63454e-20 0.686926)
(9.47931 -1.33254e-19 0.671595)
(9.30005 -3.61374e-22 0.779546)
(9.37545 -3.47004e-19 0.763726)
(9.17882 0 0.881485)
(9.26269 5.74858e-19 0.864785)
(9.04808 -3.22567e-19 0.994172)
(9.14095 2.98964e-21 0.976136)
(8.90776 3.54432e-19 1.11922)
(9.01026 -6.27139e-19 1.09933)
(8.75792 -4.5591e-20 1.25847)
(8.8706 6.57951e-19 1.23609)
(8.59861 -3.16515e-19 1.41394)
(8.72223 -6.84325e-19 1.38842)
(8.42985 -4.02559e-19 1.58794)
(8.56535 3.53486e-19 1.5585)
(8.25187 9.1752e-21 1.78336)
(8.39989 -7.42019e-19 1.74887)
(8.06503 -4.47071e-20 2.00358)
(8.2266 7.58929e-19 1.96287)
(7.86967 6.00675e-20 2.25232)
(8.04607 -7.68726e-19 2.20413)
(7.85883 1.59722e-18 2.47672)
(9.98855 -1.78271e-19 0.0969752)
(9.99912 -4.30556e-22 0.0667354)
(9.96631 2.52988e-20 0.160518)
(9.98236 0 0.133147)
(9.93349 -2.0718e-21 0.223471)
(9.95378 2.47769e-20 0.198675)
(9.89048 -8.07427e-20 0.287143)
(9.91626 -1.28274e-19 0.264302)
(9.83782 3.43632e-21 0.352824)
(9.86984 -1.61711e-19 0.331349)
(9.77599 4.13363e-19 0.421669)
(9.81431 5.5263e-20 0.401087)
(9.70528 2.21716e-19 0.494734)
(9.74994 1.19653e-19 0.474631)
(9.62588 -1.84289e-19 0.573059)
(9.67705 -1.21135e-19 0.553047)
(9.53786 -1.29707e-19 0.657693)
(9.59593 -1.26003e-19 0.637416)
(9.44129 -4.17644e-19 0.749733)
(9.50665 -3.89474e-22 0.728798)
(9.33628 2.4329e-19 0.850373)
(9.4093 -3.47056e-19 0.828345)
(9.22281 5.69302e-19 0.960927)
(9.30402 2.90628e-19 0.937351)
(9.10091 -3.11145e-19 1.08288)
(9.19079 3.69739e-19 1.05722)
(8.97067 -3.05019e-19 1.21788)
(9.06981 7.36978e-20 1.18955)
(8.83227 0 1.36782)
(8.9412 -3.94576e-19 1.33609)
(8.68597 0 1.53484)
(8.80533 6.59964e-19 1.49888)
(8.53208 0 1.72135)
(8.66267 -6.76074e-19 1.68025)
(8.37105 2.47911e-20 1.9303)
(8.51338 0 1.8828)
(8.20368 1.81923e-20 2.16526)
(8.3584 -4.29238e-20 2.10987)
(8.03082 7.88412e-19 2.43018)
(8.19911 7.36216e-19 2.36536)
(8.03629 7.92219e-19 2.65351)
(9.989 1.77951e-19 0.104132)
(9.99953 -9.63641e-21 0.0713324)
(9.96757 0 0.172628)
(9.98322 1.75158e-19 0.142492)
(9.93623 -1.04641e-19 0.240725)
(9.95577 -7.21203e-23 0.212924)
(9.89541 -2.09947e-19 0.309693)
(9.92018 2.28859e-19 0.283609)
(9.84558 -1.05703e-19 0.380811)
(9.87636 -1.1864e-21 0.355849)
(9.78717 -2.37494e-19 0.455277)
(9.82407 -1.11511e-19 0.430928)
(9.72051 -2.27837e-19 0.534206)
(9.76356 -2.32351e-19 0.510007)
(9.64583 -6.28859e-20 0.618705)
(9.69514 1.21122e-19 0.594213)
(9.5633 5.49523e-21 0.709868)
(9.61926 -6.25348e-20 0.684668)
(9.47307 6.47483e-20 0.80882)
(9.53608 -6.3529e-20 0.782468)
(9.37529 -2.89708e-19 0.916809)
(9.44566 0 0.888807)
(9.27006 9.16761e-20 1.03521)
(9.34825 -5.66448e-19 1.00504)
(9.15755 7.51013e-19 1.16553)
(9.24399 2.92027e-19 1.13259)
(9.03801 -2.18377e-20 1.30948)
(9.13316 9.09949e-19 1.27306)
(8.91175 2.79605e-19 1.46896)
(9.01612 -6.26886e-19 1.42827)
(8.77917 -3.18831e-20 1.64618)
(8.89335 -6.42426e-20 1.60028)
(8.64082 -6.68938e-19 1.84362)
(8.76546 -1.70104e-20 1.79146)
(8.49741 -6.81895e-20 2.06423)
(8.63303 -8.46371e-20 2.0045)
(8.35017 6.82409e-19 2.31169)
(8.49709 -7.24902e-19 2.24259)
(8.20043 7.43704e-19 2.59016)
(8.35958 1.36811e-18 2.50985)
(8.22164 3.67837e-21 2.81076)
(9.98953 -9.04354e-21 0.110991)
(9.99993 -1.90594e-19 0.0757111)
(9.96912 1.71336e-19 0.184201)
(9.98424 -1.12219e-20 0.151404)
(9.93942 3.38312e-19 0.257124)
(9.95813 -7.21764e-23 0.22645)
(9.90095 4.33344e-19 0.33104)
(9.92466 3.30903e-19 0.301848)
(9.85414 -9.02696e-21 0.407245)
(9.88361 -2.10498e-19 0.378921)
(9.79939 -1.08556e-19 0.486962)
(9.83478 -1.1065e-19 0.458978)
(9.73703 1.23089e-19 0.571345)
(9.77835 4.73582e-22 0.543207)
(9.66736 1.18376e-19 0.661539)
(9.71467 1.19814e-19 0.632753)
(9.59066 -1.31637e-19 0.758681)
(9.64433 1.23242e-19 0.728763)
(9.50713 -1.27407e-19 0.863939)
(9.5675 -8.30186e-22 0.8324)
(9.41694 -2.85598e-19 0.978598)
(9.48428 0 0.944902)
(9.32032 -3.53649e-19 1.10406)
(9.39503 -2.81489e-19 1.06762)
(9.21757 4.59362e-19 1.24183)
(9.3001 -5.04299e-19 1.202)
(9.10907 2.84511e-19 1.39364)
(9.19976 4.51202e-19 1.34963)
(8.99532 -9.64203e-19 1.56144)
(9.0946 -3.1014e-19 1.51235)
(8.87695 -4.98671e-20 1.74744)
(8.9853 2.96114e-19 1.69225)
(8.75473 5.68386e-19 1.9542)
(8.87255 7.46051e-19 1.89169)
(8.62963 -7.48085e-19 2.18459)
(8.75748 2.21303e-21 2.11339)
(8.50312 -2.50082e-20 2.4423)
(8.64123 -1.33495e-18 2.36046)
(8.37694 6.21646e-19 2.73167)
(8.5259 7.13091e-19 2.63707)
(8.41317 0 2.94793)
(9.99015 -1.89492e-19 0.117492)
(10.0003 1.9026e-19 0.0798363)
(9.97095 -1.82587e-19 0.195149)
(9.98538 -1.75023e-19 0.159803)
(9.9431 -7.90296e-22 0.272576)
(9.9608 2.17092e-19 0.239164)
(9.90717 -3.23902e-19 0.351087)
(9.9296 -1.02365e-19 0.318926)
(9.86358 -3.10391e-19 0.432015)
(9.89149 -5.44285e-20 0.400468)
(9.8127 4.69489e-22 0.516605)
(9.84629 1.05065e-21 0.485134)
(9.75487 -7.80923e-22 0.606017)
(9.7941 1.13122e-19 0.574112)
(9.69047 1.24717e-19 0.701417)
(9.7354 -6.60427e-23 0.668532)
(9.61983 2.52228e-19 0.80399)
(9.67082 -1.20464e-19 0.769584)
(9.54317 1.2679e-19 0.914941)
(9.60052 2.55291e-19 0.878499)
(9.46077 0 1.03556)
(9.52474 -1.30859e-19 0.996507)
(9.37303 -4.35502e-19 1.16726)
(9.44392 0 1.12493)
(9.28036 -5.00414e-19 1.31155)
(9.35855 -5.70454e-19 1.26523)
(9.18322 -1.5415e-19 1.47016)
(9.26903 2.86076e-19 1.41903)
(9.08229 9.58877e-19 1.64502)
(9.17603 1.45435e-19 1.58812)
(8.9784 1.09919e-18 1.83834)
(9.08044 1.48864e-18 1.77455)
(8.8726 1.72708e-19 2.05265)
(8.98313 -6.23097e-19 1.98063)
(8.76623 -5.94665e-19 2.29086)
(8.88559 -7.24905e-20 2.20907)
(8.66088 -5.84809e-19 2.5566)
(8.78924 -2.18763e-20 2.463)
(8.55861 8.67413e-20 2.85425)
(8.69622 -5.76923e-19 2.74657)
(8.60891 6.68168e-19 3.0645)
(9.99081 1.97993e-19 0.123588)
(10.0007 1.89745e-19 0.0836867)
(9.97293 2.33227e-19 0.205395)
(9.9866 -1.71962e-19 0.167643)
(9.94707 1.09045e-19 0.286997)
(9.96365 2.48833e-20 0.251006)
(9.91381 1.68304e-19 0.369746)
(9.93481 -3.02197e-19 0.334787)
(9.87357 2.58346e-19 0.455028)
(9.89971 2.62887e-19 0.420435)
(9.82668 1.15803e-19 0.544097)
(9.8582 1.09049e-19 0.509338)
(9.77355 1.1197e-19 0.638094)
(9.81045 5.63962e-22 0.602638)
(9.71463 -2.47488e-19 0.738199)
(9.75695 1.16996e-19 0.701443)
(9.65024 -1.11627e-19 0.845647)
(9.69829 -2.26997e-21 0.807016)
(9.58068 -8.46739e-21 0.961665)
(9.63473 8.31716e-22 0.920619)
(9.50636 -1.29043e-19 1.08752)
(9.56664 -9.53894e-22 1.04344)
(9.42776 -1.42885e-19 1.2246)
(9.49449 0 1.17678)
(9.3454 2.27759e-19 1.37446)
(9.41885 -4.18115e-19 1.32213)
(9.25989 5.84398e-19 1.53877)
(9.34032 5.04916e-19 1.48109)
(9.17203 6.90425e-19 1.71943)
(9.25969 7.69172e-20 1.65536)
(9.08286 -2.55736e-19 1.91857)
(9.17798 4.6639e-19 1.84694)
(8.99365 -8.63583e-19 2.13868)
(9.09634 -8.61818e-19 2.05809)
(8.90596 5.03269e-19 2.38266)
(9.01634 -2.46443e-21 2.29143)
(8.82169 -1.36236e-20 2.6541)
(8.93962 6.58276e-19 2.55008)
(8.74337 8.46412e-21 2.95733)
(8.86857 -8.25225e-19 2.83805)
(8.80658 -2.87527e-19 3.15997)
(9.9915 -1.87134e-19 0.129254)
(9.975 -3.76274e-19 0.21491)
(9.95118 -3.93218e-19 0.300357)
(9.96668 -2.63773e-19 0.261953)
(9.92062 -1.9672e-19 0.386989)
(9.94029 -2.97908e-19 0.349415)
(9.88377 1.10607e-19 0.476244)
(9.90825 1.56537e-22 0.438805)
(9.84101 -8.18254e-21 0.569372)
(9.87055 6.00733e-20 0.531526)
(9.79279 7.54244e-21 0.667489)
(9.82744 -3.24975e-19 0.628678)
(9.73953 3.60604e-19 0.771796)
(9.77931 -9.95636e-20 0.731386)
(9.68158 1.10486e-19 0.883567)
(9.72675 3.60032e-19 0.840965)
(9.61935 8.261e-21 1.00402)
(9.67014 -3.61544e-19 0.958656)
(9.55331 1.28325e-19 1.13438)
(9.60993 1.32792e-19 1.08562)
(9.484 -2.81112e-19 1.27604)
(9.54664 0 1.22314)
(9.41206 -1.29795e-19 1.43052)
(9.48091 -5.40057e-19 1.37267)
(9.33829 -8.30444e-21 1.59944)
(9.41354 6.72289e-19 1.53575)
(9.26364 -1.43753e-19 1.78462)
(9.34546 -6.92303e-19 1.71403)
(9.18932 -1.52143e-19 1.98815)
(9.27779 6.94109e-19 1.90942)
(9.11672 7.84176e-21 2.21242)
(9.21191 -1.34119e-20 2.12412)
(9.0475 1.56828e-19 2.46024)
(9.14952 3.03398e-19 2.36069)
(8.98385 -1.59668e-19 2.73501)
(9.09233 5.79298e-19 2.62205)
(8.92893 -1.12118e-18 3.04097)
(9.04308 -1.18059e-18 2.91183)
(9.00597 -1.02094e-19 3.23451)
(9.9557 -1.64708e-19 0.312864)
(9.92801 -9.3313e-20 0.403099)
(9.94634 4.14697e-20 0.36323)
(9.89473 -5.24531e-20 0.495996)
(9.91755 1.61644e-22 0.456102)
(9.85636 -2.68656e-19 0.592804)
(9.88393 -5.22927e-20 0.552305)
(9.81333 -4.36925e-19 0.694638)
(9.84574 1.93241e-19 0.652954)
(9.76601 -1.01711e-19 0.802723)
(9.80322 -3.30583e-19 0.75921)
(9.71481 -1.27906e-19 0.918333)
(9.75704 3.37016e-19 0.872377)
(9.66024 -2.34442e-19 1.04264)
(9.70775 -2.40124e-19 0.993647)
(9.60283 0 1.17687)
(9.6558 9.30009e-22 1.12415)
(9.54321 -2.65896e-19 1.32235)
(9.60178 -2.40601e-19 1.26517)
(9.48214 2.85017e-19 1.48056)
(9.54644 -2.65883e-19 1.41807)
(9.42057 -2.79321e-20 1.65305)
(9.4907 4.17037e-19 1.5843)
(9.35961 1.65449e-19 1.84155)
(9.43563 -5.60733e-19 1.76544)
(9.30057 8.46752e-19 2.04806)
(9.38245 5.84307e-19 1.96331)
(9.24505 2.90516e-19 2.27492)
(9.33271 4.15409e-19 2.18)
(9.19489 7.39767e-19 2.52474)
(9.28831 -2.62372e-19 2.41796)
(9.15247 -4.53855e-19 2.80057)
(9.25127 1.42448e-18 2.67981)
(9.12126 -1.40889e-19 3.1063)
(9.22453 -1.61067e-18 2.96863)
(9.21237 3.6497e-19 3.28851)
(9.93599 1.36975e-19 0.41803)
(9.90648 0 0.514228)
(9.92737 -4.62664e-20 0.471924)
(9.87263 4.22596e-19 0.61432)
(9.89799 9.55008e-20 0.57122)
(9.83489 3.00131e-19 0.71945)
(9.86481 1.22583e-19 0.674957)
(9.79363 1.21725e-19 0.830849)
(9.82802 2.00237e-19 0.784318)
(9.74936 2.20581e-19 0.949748)
(9.78841 4.36816e-19 0.900547)
(9.70264 2.02198e-21 1.07729)
(9.74661 9.34177e-22 1.02479)
(9.65409 -2.46012e-19 1.21466)
(9.70307 9.54612e-22 1.15816)
(9.60439 -2.40653e-19 1.36315)
(9.65846 -2.47015e-19 1.3019)
(9.55441 -1.31173e-19 1.52412)
(9.61366 0 1.45728)
(9.5052 -1.28197e-19 1.69904)
(9.56965 -1.31367e-19 1.62564)
(9.45798 -1.35042e-19 1.88954)
(9.5276 4.9718e-19 1.80846)
(9.41418 1.41659e-19 2.09751)
(9.48883 -5.14025e-19 2.00744)
(9.37559 -1.48404e-19 2.32513)
(9.455 1.66757e-20 2.22451)
(9.34443 4.27533e-19 2.57479)
(9.42816 -4.16456e-19 2.46185)
(9.32329 2.69795e-19 2.84916)
(9.4109 3.26332e-19 2.72181)
(9.31558 -1.1181e-18 3.15153)
(9.40627 -5.71209e-19 3.007)
(9.41812 -5.63674e-19 3.3208)
(9.91867 5.24983e-20 0.530723)
(9.88952 -2.1203e-19 0.633697)
(9.91257 1.89941e-19 0.588073)
(9.85725 2.02494e-20 0.741689)
(9.88454 -5.9232e-19 0.694448)
(9.82227 5.2425e-19 0.855912)
(9.85367 6.11962e-19 0.806416)
(9.78513 2.10545e-19 0.977532)
(9.82084 2.14855e-19 0.925145)
(9.74647 0 1.10766)
(9.78669 0 1.05173)
(9.70691 0 1.24744)
(9.75167 -2.16619e-19 1.18727)
(9.66726 0 1.3981)
(9.71658 2.20592e-19 1.33293)
(9.62846 0 1.56087)
(9.68239 2.27451e-19 1.48984)
(9.59166 5.09396e-19 1.73711)
(9.65013 0 1.65926)
(9.55814 1.12675e-19 1.92835)
(9.62105 5.10965e-19 1.84256)
(9.52943 -6.45385e-19 2.1363)
(9.59653 9.23458e-20 2.04128)
(9.50743 -2.56004e-19 2.36286)
(9.57838 -7.54772e-19 2.25711)
(9.49467 -5.27392e-19 2.61011)
(9.56866 4.96861e-19 2.4918)
(9.49404 -5.27518e-19 2.88041)
(9.57033 -2.87803e-19 2.74741)
(9.50891 0 3.17641)
(9.58655 0 3.02619)
(9.62094 -9.62443e-19 3.3307)
(9.90698 -2.0372e-19 0.650654)
(9.88034 1.89856e-20 0.761027)
(9.90487 -1.08526e-19 0.711195)
(9.85181 2.93436e-19 0.877529)
(9.88003 3.03062e-19 0.825248)
(9.82196 -1.61672e-21 1.00126)
(9.8541 -3.95782e-19 0.945888)
(9.79144 -2.22573e-19 1.1333)
(9.82766 2.01527e-19 1.07417)
(9.76096 9.66701e-21 1.27473)
(9.80123 -2.22424e-19 1.21117)
(9.73138 4.53958e-19 1.42666)
(9.7757 1.21498e-20 1.35789)
(9.70376 2.27933e-19 1.59021)
(9.75208 2.33662e-19 1.51538)
(9.67928 0 1.76663)
(9.73146 0 1.68478)
(9.6593 4.92773e-19 1.95732)
(9.71512 -4.52269e-19 1.86733)
(9.64544 -1.40843e-20 2.16375)
(9.70456 1.18259e-18 2.06438)
(9.6397 1.01213e-20 2.38746)
(9.70168 -5.02546e-19 2.27731)
(9.6446 7.50597e-19 2.63018)
(9.70857 7.35301e-19 2.50748)
(9.66317 2.51897e-19 2.89386)
(9.72806 4.83199e-19 2.75653)
(9.69888 -9.79182e-19 3.18056)
(9.76338 -5.97478e-21 3.02628)
(9.81816 -9.89803e-19 3.31844)
(9.90403 1.84325e-19 0.777251)
(9.88197 -4.05818e-19 0.895455)
(9.90691 4.58865e-19 0.840606)
(9.85945 -1.86301e-19 1.02067)
(9.88789 -4.05202e-19 0.962539)
(9.83711 2.01412e-19 1.15392)
(9.86914 1.11823e-20 1.09186)
(9.81572 -2.20039e-19 1.29621)
(9.8513 0 1.22954)
(9.79619 -2.14628e-19 1.4485)
(9.83529 -2.20162e-19 1.37648)
(9.77961 0 1.61181)
(9.82211 4.16356e-19 1.53359)
(9.76721 -4.63237e-19 1.78726)
(9.8129 -2.12907e-19 1.7019)
(9.76042 2.48243e-19 1.97606)
(9.80897 -2.50421e-19 1.88248)
(9.76095 6.91746e-19 2.17943)
(9.81189 4.86406e-19 2.07644)
(9.77085 2.34071e-19 2.39858)
(9.82358 0 2.28485)
(9.79249 4.63647e-19 2.63483)
(9.84614 2.35901e-19 2.50877)
(9.8288 2.2426e-19 2.88962)
(9.88213 9.67238e-21 2.74934)
(9.88322 -2.35506e-21 3.16438)
(9.93468 -2.2377e-19 3.00778)
(10.0073 -4.27408e-19 3.28502)
(9.91255 4.57826e-19 0.909484)
(9.89733 -2.01823e-19 1.03553)
(9.88311 -1.95609e-19 1.16927)
(9.91088 -3.88223e-19 1.10455)
(9.87073 0 1.3116)
(9.90152 -3.82766e-19 1.24213)
(9.86112 4.27084e-19 1.46334)
(9.89489 3.9231e-19 1.38843)
(9.85537 1.99528e-19 1.6254)
(9.89192 4.249e-19 1.54422)
(9.85472 6.02682e-21 1.79875)
(9.89379 -6.24756e-19 1.71038)
(9.86064 -1.00265e-20 1.98437)
(9.90183 1.2598e-20 1.88781)
(9.87486 -2.21903e-19 2.18322)
(9.91759 -2.26818e-19 2.07735)
(9.89936 0 2.3962)
(9.94292 0 2.27981)
(9.93641 -2.28302e-19 2.62422)
(9.97984 -4.1897e-19 2.4959)
(9.98875 -4.4787e-19 2.86818)
(10.0307 -2.24984e-19 2.72628)
(10.0596 -6.58045e-19 3.12883)
(10.0985 4.07787e-19 2.97158)
(10.1862 -4.42783e-19 3.23195)
(9.9292 -5.80422e-19 1.17912)
(9.92566 1.93803e-20 1.32065)
(9.95159 -2.06676e-19 1.24875)
(9.92571 3.90312e-19 1.47096)
(9.95406 7.78181e-19 1.39355)
(9.93044 -4.1865e-19 1.63079)
(9.96096 -5.79228e-19 1.5471)
(9.94111 -6.20458e-19 1.80094)
(9.97344 1.67362e-19 1.71009)
(9.95915 -2.08969e-19 1.98218)
(9.99284 -1.80261e-20 1.88326)
(9.98617 0 2.1752)
(10.0206 0 2.06721)
(10.0241 -4.28125e-19 2.38061)
(10.0585 3.98546e-19 2.26246)
(10.075 -4.17799e-19 2.5989)
(10.1084 -1.03446e-18 2.4694)
(10.1414 6.494e-19 2.83043)
(10.1724 2.10133e-19 2.68819)
(10.2262 6.38093e-19 3.07534)
(10.2531 6.50639e-19 2.91894)
(10.3532 3.89242e-19 3.16119)
(9.9801 5.7161e-19 1.32324)
(9.98945 -2.14934e-19 1.47123)
(10.0042 2.10275e-20 1.62788)
(10.0286 -7.76228e-19 1.54217)
(10.0255 7.87345e-19 1.7938)
(10.0511 5.99011e-19 1.70104)
(10.0548 1.9672e-19 1.96957)
(10.0811 -3.65798e-19 1.86894)
(10.0936 4.07665e-19 2.15564)
(10.1199 3.80247e-19 2.04624)
(10.1436 -2.14808e-19 2.35229)
(10.1691 4.08593e-19 2.23324)
(10.2068 -3.99272e-19 2.55963)
(10.2305 -1.19909e-18 2.42994)
(10.2853 2.0628e-19 2.77753)
(10.3058 4.03586e-19 2.63609)
(10.3815 3.9753e-19 3.00564)
(10.3973 -1.88105e-19 2.85138)
(10.5071 2.05476e-20 3.0749)
(10.0759 -1.86451e-19 1.6167)
(10.1071 -5.82476e-19 1.77747)
(10.1468 -1.80579e-19 1.9468)
(10.1658 -2.227e-19 1.84509)
(10.1962 3.81102e-19 2.12493)
(10.2146 5.72041e-19 2.01485)
(10.257 -5.92345e-19 2.31188)
(10.2739 -7.70429e-22 2.19271)
(10.3307 -3.84649e-19 2.50734)
(10.3452 -5.9492e-19 2.37835)
(10.4192 1.97852e-21 2.71084)
(10.43 3.79705e-19 2.57118)
(10.5244 -5.78044e-19 2.92162)
(10.53 -3.73269e-19 2.77056)
(10.6469 -3.07175e-20 2.97534)
(10.2344 5.47181e-19 1.91427)
(10.2932 1.82762e-19 2.08366)
(10.304 3.59027e-19 1.97359)
(10.3633 6.70535e-22 2.26015)
(10.372 -3.46826e-19 2.14161)
(10.4458 1.85372e-19 2.44315)
(10.4518 3.50338e-19 2.31562)
(10.5423 -1.46724e-21 2.63187)
(10.5442 1.86282e-19 2.4948)
(10.6543 1.87813e-19 2.82533)
(10.6507 -1.84719e-19 2.6783)
(10.7724 3.70192e-19 2.86484)
(10.384 -1.82282e-19 2.03252)
(10.4618 9.51515e-21 2.19803)
(10.5515 3.51826e-19 2.36823)
(10.5494 5.24266e-19 2.24283)
(10.6541 0 2.5422)
(10.6478 -1.69454e-19 2.40838)
(10.7707 0 2.71882)
(10.7589 0 2.57639)
(10.8837 2.06449e-19 2.74556)
(10.6472 -8.7776e-21 2.28388)
(10.7543 -1.69968e-19 2.44345)
(10.8739 2.11499e-19 2.60401)
(10.8549 1.21298e-19 2.46651)
(10.9811 1.68853e-19 2.61938)
(10.9642 7.72277e-20 2.48259)
)
;

boundaryField
{
    inlet
    {
        type            calculated;
        value           uniform (10 0 0);
    }
    outlet
    {
        type            calculated;
        value           nonuniform 0();
    }
    flap
    {
        type            calculated;
        value           nonuniform 0();
    }
    upperWall
    {
        type            calculated;
        value           nonuniform 0();
    }
    lowerWall
    {
        type            calculated;
        value           uniform (0 0 0);
    }
    frontAndBack
    {
        type            empty;
        value           nonuniform 0();
    }
    procBoundary3to0
    {
        type            processor;
        value           nonuniform List<vector> 
34
(
(10.0011 3.21533e-19 0.087251)
(9.98789 -1.9798e-19 0.174901)
(9.9773 -8.11268e-20 0.223823)
(9.97007 -1.35811e-19 0.272293)
(9.96062 7.69163e-20 0.324468)
(9.95269 3.62797e-19 0.375891)
(9.94424 1.72266e-19 0.431579)
(9.93752 -3.14602e-19 0.486085)
(9.93125 -1.70888e-19 0.545235)
(9.92765 2.73633e-19 0.60264)
(9.92498 3.69636e-19 0.665005)
(9.92563 1.90325e-19 0.72502)
(9.92807 4.7281e-19 0.790162)
(9.93409 4.71488e-19 0.852266)
(9.92199 -1.81654e-19 0.97489)
(9.93538 -3.73074e-19 1.04563)
(9.95261 -1.92481e-19 1.11204)
(9.97503 1.91165e-19 1.18329)
(10.001 1.34666e-20 1.24924)
(10.0123 2.55212e-20 1.39174)
(10.0517 -5.49106e-19 1.46411)
(10.0943 -1.8914e-19 1.52945)
(10.1262 -1.89687e-21 1.68337)
(10.1854 3.68938e-19 1.75219)
(10.2465 1.98707e-19 1.8121)
(10.317 4.78828e-21 1.87247)
(10.3874 1.8007e-19 1.92308)
(10.4629 -3.57691e-19 2.08076)
(10.5519 1.67675e-19 2.12647)
(10.6378 4.11734e-19 2.16114)
(10.7406 -1.75506e-19 2.31334)
(10.843 1.22819e-19 2.33715)
(10.9389 1.2453e-19 2.35014)
(11.0654 -4.42197e-20 2.4879)
)
;
    }
    procBoundary3to1
    {
        type            processor;
        value           nonuniform List<vector> 9((9.95989 4.5421e-19 3.46033) (10.1526 -1.73227e-18 3.40642) (10.3324 1.08553e-20 3.33307) (10.4979 8.29219e-22 3.24282) (10.6482 -1.85738e-19 3.13824) (10.7829 2.7596e-19 3.02199) (10.9021 1.77397e-19 2.89656) (11.0065 4.17728e-19 2.76411) (11.0966 -4.59081e-20 2.62641));
    }
    procBoundary3to4
    {
        type            processor;
        value           nonuniform List<vector> 
19
(
(5.33628 0 0.223973)
(6.2873 1.35384e-19 0.582853)
(6.66741 1.59504e-18 0.94426)
(6.87263 -5.18901e-19 1.26369)
(7.02683 1.83414e-19 1.55723)
(7.17289 -2.33232e-19 1.82995)
(7.32569 1.02381e-18 2.0836)
(7.49006 0 2.31855)
(7.66651 8.03113e-19 2.53427)
(7.85359 1.59035e-18 2.72989)
(8.04972 7.77576e-19 2.90459)
(8.25306 -1.29226e-18 3.05774)