/*--------------------------------*- C++ -*----------------------------------*\
| =========                 |                                                 |
| \\      /  F ield         | OpenFOAM: The Open Source CFD Toolbox           |
|  \\    /   O peration     | Version:  dev                                   |
|   \\  /    A nd           | Web:      www.OpenFOAM.org                      |
|    \\/     M anipulation  |                                                 |
\*---------------------------------------------------------------------------*/
FoamFile
{
    version     2.0;
    format      ascii;
    class       pointVectorField;
    location    "0.97";
    object      pointDisplacement;
}
// * * * * * * * * * * * * * * * * * * * * * * * * * * * * * * * * * * * * * //

dimensions      [0 1 0 0 0 0 0];

internalField   nonuniform List<vector> 
5828
(
(0 0 0)
(0.0220827 0 0)
(0.0417066 0 0)
(0.0583266 0 0)
(0.0722482 0 0)
(0.0837545 0 0)
(0.0930917 0 0)
(0.100485 0 0)
(0.106129 0 0)
(0.110187 0 0)
(0.112801 0 0)
(0.114094 0 0)
(0.114175 0 0)
(0.113141 0 0)
(0.111075 0 0)
(0.108056 0 0)
(0.104152 0 0)
(0.0994285 0 0)
(0.093946 0 0)
(0.0877676 0 0)
(0.0809604 0 0)
(0.0735956 0 0)
(0.06575 0 0)
(0.0575103 0 0)
(0.0489798 0 0)
(0.0402885 0 0)
(0.0316119 0 0)
(0.0232316 0 0)
(0.0156701 0 0)
(0.01018 0 0)
(0 0 0)
(0 0 0)
(0.0220956 0 -0.000124768)
(0.0417326 0 -0.000237324)
(0.058366 0 -0.000335987)
(0.0723026 0 -0.000423155)
(0.0838251 0 -0.000500759)
(0.0931785 0 -0.000569953)
(0.10059 0 -0.000631472)
(0.106256 0 -0.000685793)
(0.110338 0 -0.000732877)
(0.11298 0 -0.00077245)
(0.114305 0 -0.000804259)
(0.114422 0 -0.000826759)
(0.113428 0 -0.00083806)
(0.11141 0 -0.000836798)
(0.108444 0 -0.000820796)
(0.104603 0 -0.000787304)
(0.0999508 0 -0.000732842)
(0.0945504 0 -0.00065285)
(0.0884666 0 -0.000542402)
(0.0817703 0 -0.000395344)
(0.0745369 0 -0.000203347)
(0.0668495 0 4.38432e-05)
(0.058804 0 0.000359318)
(0.0505181 0 0.000759795)
(0.0421462 0 0.00126665)
(0.0338933 0 0.00190803)
(0.0260687 0 0.00272125)
(0.0192558 0 0.00374235)
(0.0148851 0 0.00489863)
(0.00777985 0 0.00713139)
(0 0 0)
(0.0221362 0 -0.000249866)
(0.0418129 0 -0.000475354)
(0.0584855 0 -0.000673103)
(0.0724632 0 -0.000847857)
(0.0840309 0 -0.00100292)
(0.0934357 0 -0.00114119)
(0.100906 0 -0.00126476)
(0.106636 0 -0.00137408)
(0.110792 0 -0.00146908)
(0.113516 0 -0.00154915)
(0.114935 0 -0.00161331)
(0.115158 0 -0.0016592)
(0.114286 0 -0.00168383)
(0.112408 0 -0.00168412)
(0.109603 0 -0.0016558)
(0.105945 0 -0.00159367)
(0.101508 0 -0.00149128)
(0.0963558 0 -0.00134017)
(0.090556 0 -0.00113051)
(0.084189 0 -0.000850506)
(0.0773445 0 -0.000485431)
(0.0701223 0 -1.70317e-05)
(0.0626406 0 0.000577724)
(0.0550508 0 0.00132748)
(0.0475735 0 0.00226635)
(0.0405098 0 0.00343244)
(0.0342719 0 0.00486076)
(0.0295208 0 0.00655487)
(0.0279007 0 0.00827003)
(0.0239751 0 0.0111426)
(0 0 0)
(0.0222035 0 -0.00037484)
(0.0419456 0 -0.000713248)
(0.0586825 0 -0.00101019)
(0.0727261 0 -0.0012728)
(0.0843677 0 -0.00150625)
(0.0938593 0 -0.00171485)
(0.101426 0 -0.0019016)
(0.107265 0 -0.00206728)
(0.111542 0 -0.00221189)
(0.114403 0 -0.00233447)
(0.115977 0 -0.00243281)
(0.116377 0 -0.00250466)
(0.115707 0 -0.00254689)
(0.11406 0 -0.00255433)
(0.11152 0 -0.00252084)
(0.108166 0 -0.00243935)
(0.10408 0 -0.00230118)
(0.0993362 0 -0.00209529)
(0.0940085 0 -0.00180759)
(0.0881848 0 -0.00142157)
(0.0819778 0 -0.000919464)
(0.0755162 0 -0.000279482)
(0.0689513 0 0.00052526)
(0.0624752 0 0.00152652)
(0.0563702 0 0.00275662)
(0.0510594 0 0.0042355)
(0.0471409 0 0.00594821)
(0.045352 0 0.00781)
(0.0471632 0 0.00938666)
(0.046533 0 0.0119891)
(0 0 0)
(0.0222966 0 -0.000499277)
(0.0421295 0 -0.000950261)
(0.0589552 0 -0.00134624)
(0.073092 0 -0.0016968)
(0.0848377 0 -0.00200944)
(0.0944475 0 -0.00228956)
(0.102147 0 -0.00254069)
(0.108134 0 -0.00276432)
(0.112579 0 -0.00296068)
(0.11563 0 -0.00312869)
(0.117419 0 -0.00326573)
(0.118065 0 -0.00336924)
(0.117676 0 -0.00343547)
(0.116349 0 -0.00345816)
(0.114172 0 -0.00342962)
(0.111236 0 -0.00334179)
(0.10763 0 -0.00318482)
(0.103442 0 -0.00294582)
(0.0987621 0 -0.00260914)
(0.09369 0 -0.00215632)
(0.0883558 0 -0.00156843)
(0.0829227 0 -0.000824822)
(0.0775846 0 9.75531e-05)
(0.0725968 0 0.00122039)
(0.0682906 0 0.00255665)
(0.0651458 0 0.00409121)
(0.063913 0 0.00573412)
(0.0654453 0 0.00728032)
(0.0707575 0 0.00819417)
(0.0730322 0 0.00996338)
(0 0 0)
(0.0224148 0 -0.000623341)
(0.0423633 0 -0.00118644)
(0.059301 0 -0.00168107)
(0.0735562 0 -0.00211967)
(0.0854344 0 -0.00251184)
(0.0951931 0 -0.00286416)
(0.10306 0 -0.00318093)
(0.109233 0 -0.00346434)
(0.113889 0 -0.00371502)
(0.117179 0 -0.00393209)
(0.119241 0 -0.00411321)
(0.120198 0 -0.00425518)
(0.120162 0 -0.00435349)
(0.119239 0 -0.00440186)
(0.117526 0 -0.00439224)
(0.115119 0 -0.00431559)
(0.112116 0 -0.00416123)
(0.108623 0 -0.00391628)
(0.104749 0 -0.00356604)
(0.100615 0 -0.00309354)
(0.0963714 0 -0.00248185)
(0.0922093 0 -0.0017157)
(0.0883624 0 -0.000782185)
(0.0851391 0 0.000321355)
(0.0829485 0 0.00157208)
(0.0823002 0 0.00290818)
(0.0839163 0 0.00417318)
(0.0886472 0 0.00506048)
(0.0970488 0 0.00504643)
(0.101685 0 0.00579636)
(0 0 0)
(0.0225526 0 -0.000747048)
(0.0426367 0 -0.00142184)
(0.0597126 0 -0.00201505)
(0.0741144 0 -0.00254211)
(0.0861531 0 -0.00301449)
(0.0960902 0 -0.00344015)
(0.104156 0 -0.0038243)
(0.110554 0 -0.00416986)
(0.115462 0 -0.00447808)
(0.11904 0 -0.00474855)
(0.121427 0 -0.00497917)
(0.122754 0 -0.00516666)
(0.12314 0 -0.00530626)
(0.122698 0 -0.00539229)
(0.121539 0 -0.00541777)
(0.119764 0 -0.00537255)
(0.117479 0 -0.00524528)
(0.114809 0 -0.00502579)
(0.111885 0 -0.00470232)
(0.108853 0 -0.00426167)
(0.105886 0 -0.00369273)
(0.103202 0 -0.00298972)
(0.101083 0 -0.00215728)
(0.0998551 0 -0.00121462)
(0.099965 0 -0.000220568)
(0.101967 0 0.000707786)
(0.106448 0 0.00136785)
(0.114037 0 0.00142253)
(0.124834 0 0.000460129)
(0.131127 0 0.000231226)
(0 0 0)
(0.0227083 0 -0.000869954)
(0.0429474 0 -0.00165623)
(0.0601868 0 -0.00234845)
(0.0747623 0 -0.00296461)
(0.0869878 0 -0.00351815)
(0.0971315 0 -0.00401856)
(0.105428 0 -0.00447215)
(0.112084 0 -0.00488258)
(0.117285 0 -0.00525198)
(0.121193 0 -0.00558066)
(0.123956 0 -0.00586694)
(0.125708 0 -0.00610781)
(0.126576 0 -0.00629859)
(0.126683 0 -0.00643476)
(0.126153 0 -0.00651083)
(0.125097 0 -0.00651731)
(0.123635 0 -0.00644469)
(0.121907 0 -0.00628532)
(0.120061 0 -0.00603102)
(0.118274 0 -0.00567608)
(0.116744 0 -0.00521816)
(0.115705 0 -0.00466213)
(0.115483 0 -0.00403362)
(0.116435 0 -0.00337966)
(0.118971 0 -0.00278558)
(0.123613 0 -0.00240773)
(0.130806 0 -0.00247213)
(0.140818 0 -0.00327081)
(0.153235 0 -0.00502838)
(0.160409 0 -0.0060243)
(0 0 0)
(0.0228847 0 -0.000991709)
(0.0432999 0 -0.00188892)
(0.0607223 0 -0.00268004)
(0.0754919 0 -0.00338549)
(0.0879274 0 -0.00402083)
(0.0983033 0 -0.00459724)
(0.106858 0 -0.00512219)
(0.113804 0 -0.00560009)
(0.119331 0 -0.00603427)
(0.123609 0 -0.00642609)
(0.12679 0 -0.00677445)
(0.129017 0 -0.00707721)
(0.130424 0 -0.00733065)
(0.131144 0 -0.00753112)
(0.131308 0 -0.00767419)
(0.131044 0 -0.00775314)
(0.130496 0 -0.00776327)
(0.129813 0 -0.00769949)
(0.129155 0 -0.00755753)
(0.128725 0 -0.00733987)
(0.128756 0 -0.00705688)
(0.129511 0 -0.00672826)
(0.131304 0 -0.00639314)
(0.134514 0 -0.00612476)
(0.139521 0 -0.00603272)
(0.146718 0 -0.00628251)
(0.15635 0 -0.00708502)
(0.168276 0 -0.0086338)
(0.18163 0 -0.0109469)
(0.189099 0 -0.0123769)
(0 0 0)
(0.0230796 0 -0.00111208)
(0.0436893 0 -0.00211914)
(0.0613123 0 -0.0030085)
(0.0762943 0 -0.00380306)
(0.0889602 0 -0.00452058)
(0.099591 0 -0.00517402)
(0.108429 0 -0.00577224)
(0.115693 0 -0.00632092)
(0.121579 0 -0.00682431)
(0.126261 0 -0.00728434)
(0.129898 0 -0.00770131)
(0.132643 0 -0.00807463)
(0.13464 0 -0.00840254)
(0.136026 0 -0.00868152)
(0.136943 0 -0.00890878)
(0.137538 0 -0.00908247)
(0.137971 0 -0.00920152)
(0.138402 0 -0.00926462)
(0.139022 0 -0.00927604)
(0.140041 0 -0.00924476)
(0.141717 0 -0.00919273)
(0.144354 0 -0.009158)
(0.148234 0 -0.00918904)
(0.153713 0 -0.00937378)
(0.161141 0 -0.00983673)
(0.170736 0 -0.0107271)
(0.18247 0 -0.0121997)
(0.195827 0 -0.0143256)
(0.209634 0 -0.0169567)
(0.217143 0 -0.0185546)
(0 0 0)
(0.0232914 0 -0.0012311)
(0.0441124 0 -0.002347)
(0.0619523 0 -0.00333402)
(0.0771636 0 -0.00421764)
(0.0900783 0 -0.00501774)
(0.100985 0 -0.00574936)
(0.110131 0 -0.006423)
(0.11774 0 -0.00704609)
(0.124013 0 -0.00762305)
(0.129126 0 -0.00815596)
(0.133251 0 -0.00864775)
(0.136547 0 -0.00909973)
(0.139168 0 -0.00951138)
(0.14126 0 -0.00988157)
(0.142976 0 -0.0102099)
(0.144484 0 -0.0104994)
(0.14595 0 -0.0107521)
(0.147543 0 -0.0109709)
(0.149489 0 -0.0111702)
(0.152018 0 -0.0113683)
(0.155391 0 -0.0115952)
(0.159915 0 -0.0119003)
(0.165875 0 -0.0123455)
(0.173585 0 -0.0130228)
(0.183305 0 -0.0140502)
(0.195075 0 -0.0155414)
(0.208584 0 -0.0175707)
(0.22301 0 -0.0200929)
(0.237017 0 -0.0228616)
(0.244596 0 -0.0245117)
(0 0 0)
(0.0235186 0 -0.00134875)
(0.0445659 0 -0.00257248)
(0.0626375 0 -0.00365664)
(0.0780931 0 -0.00462924)
(0.0912726 0 -0.00551229)
(0.102474 0 -0.00632311)
(0.111949 0 -0.00707405)
(0.119924 0 -0.00777347)
(0.1266 0 -0.00842657)
(0.132168 0 -0.00903729)
(0.136807 0 -0.00961056)
(0.140682 0 -0.0101487)
(0.143949 0 -0.0106525)
(0.146777 0 -0.0111258)
(0.14933 0 -0.0115715)
(0.151775 0 -0.0119935)
(0.154298 0 -0.0124001)
(0.157091 0 -0.0128015)
(0.160386 0 -0.0132181)
(0.164431 0 -0.0136773)
(0.16949 0 -0.0142164)
(0.175843 0 -0.0148895)
(0.183798 0 -0.015771)
(0.193605 0 -0.0169475)
(0.205416 0 -0.0185144)
(0.21911 0 -0.0205376)
(0.234128 0 -0.023003)
(0.249431 0 -0.0257727)
(0.263579 0 -0.0285619)
(0.271405 0 -0.0302067)
(0 0 0)
(0.023758 0 -0.00146442)
(0.045044 0 -0.00279444)
(0.0633598 0 -0.00397473)
(0.0790711 0 -0.00503583)
(0.0925288 0 -0.00600224)
(0.104042 0 -0.00689353)
(0.113863 0 -0.00772325)
(0.122216 0 -0.00850053)
(0.129313 0 -0.0092322)
(0.135355 0 -0.00992545)
(0.140529 0 -0.0105861)
(0.144998 0 -0.011217)
(0.148931 0 -0.0118217)
(0.152511 0 -0.0124082)
(0.155915 0 -0.0129833)
(0.159308 0 -0.0135524)
(0.162892 0 -0.0141292)
(0.166883 0 -0.0147329)
(0.171511 0 -0.0153873)
(0.177027 0 -0.0161267)
(0.18369 0 -0.0169944)
(0.191762 0 -0.0180473)
(0.201541 0 -0.0193637)
(0.213216 0 -0.0210182)
(0.226845 0 -0.0230773)
(0.242177 0 -0.0255539)
(0.258493 0 -0.0283553)
(0.274628 0 -0.0312735)
(0.28903 0 -0.0340195)
(0.297595 0 -0.0356054)
(0 0 0)
(0.0240072 0 -0.00157776)
(0.0455423 0 -0.00301222)
(0.0641129 0 -0.00428741)
(0.0800925 0 -0.00543648)
(0.0938415 0 -0.00648662)
(0.105677 0 -0.00745906)
(0.115854 0 -0.00836858)
(0.124598 0 -0.00922569)
(0.13213 0 -0.0100393)
(0.138658 0 -0.0108181)
(0.144372 0 -0.0115694)
(0.149445 0 -0.0122984)
(0.154056 0 -0.0130121)
(0.158393 0 -0.0137201)
(0.162634 0 -0.0144314)
(0.166967 0 -0.0151582)
(0.171598 0 -0.0159182)
(0.176744 0 -0.016734)
(0.182635 0 -0.0176348)
(0.189518 0 -0.0186597)
(0.197643 0 -0.0198563)
(0.207255 0 -0.0212827)
(0.218602 0 -0.0230107)
(0.231825 0 -0.0251019)
(0.246899 0 -0.0275927)
(0.263498 0 -0.0304504)
(0.280873 0 -0.0335285)
(0.297842 0 -0.0365623)
(0.312751 0 -0.0392603)
(0.323313 0 -0.0407406)
(0 0 0)
(0.0242646 0 -0.00168871)
(0.0460571 0 -0.00322568)
(0.0648917 0 -0.00459443)
(0.0811496 0 -0.00583074)
(0.0951984 0 -0.00696415)
(0.107363 0 -0.00801755)
(0.117903 0 -0.00900744)
(0.127048 0 -0.00994598)
(0.135024 0 -0.0108442)
(0.142042 0 -0.0117114)
(0.1483 0 -0.0125563)
(0.153977 0 -0.0133876)
(0.159266 0 -0.0142157)
(0.16435 0 -0.0150508)
(0.169403 0 -0.0159028)
(0.17464 0 -0.016792)
(0.180262 0 -0.0177382)
(0.18648 0 -0.018767)
(0.193518 0 -0.0199112)
(0.201616 0 -0.0212134)
(0.211002 0 -0.0227225)
(0.221885 0 -0.0244935)
(0.234453 0 -0.0265882)
(0.248792 0 -0.0290552)
(0.264811 0 -0.031908)
(0.282147 0 -0.0350898)
(0.300109 0 -0.038437)
(0.317622 0 -0.0416509)
(0.33323 0 -0.0444059)
(0.348724 0 -0.045695)
(0 0 0)
(0.0245296 0 -0.00179775)
(0.0465881 0 -0.00343586)
(0.0656964 0 -0.00489738)
(0.0822425 0 -0.0062206)
(0.0965993 0 -0.00743727)
(0.1091 0 -0.00857237)
(0.120014 0 -0.00964412)
(0.129568 0 -0.0106657)
(0.137993 0 -0.0116499)
(0.145508 0 -0.0126086)
(0.152312 0 -0.0135512)
(0.158594 0 -0.0144886)
(0.16455 0 -0.0154344)
(0.170354 0 -0.0163985)
(0.176193 0 -0.0173948)
(0.182279 0 -0.0184464)
(0.188809 0 -0.0195755)
(0.195995 0 -0.020812)
(0.204039 0 -0.0221882)
(0.213161 0 -0.0237483)
(0.223551 0 -0.025538)
(0.235368 0 -0.0276061)
(0.248738 0 -0.0300047)
(0.26367 0 -0.0327684)
(0.279995 0 -0.0358983)
(0.297298 0 -0.0393423)
(0.314901 0 -0.0429882)
(0.331774 0 -0.0466781)
(0.34686 0 -0.0504689)
(0.374137 0 -0.0506825)
(0 0 0)
(0.0220827 0 0)
(0.0417066 0 0)
(0.0583266 0 0)
(0.0722482 0 0)
(0.0837545 0 0)
(0.0930917 0 0)
(0.100485 0 0)
(0.106129 0 0)
(0.110187 0 0)
(0.112801 0 0)
(0.114094 0 0)
(0.114175 0 0)
(0.113141 0 0)
(0.111075 0 0)
(0.108056 0 0)
(0.104152 0 0)
(0.0994285 0 0)
(0.093946 0 0)
(0.0877676 0 0)
(0.0809604 0 0)
(0.0735956 0 0)
(0.06575 0 0)
(0.0575103 0 0)
(0.0489798 0 0)
(0.0402885 0 0)
(0.0316119 0 0)
(0.0232316 0 0)
(0.0156701 0 0)
(0.01018 0 0)
(0 0 0)
(0 0 0)
(0.0220956 0 -0.000124768)
(0.0417326 0 -0.000237324)
(0.058366 0 -0.000335987)
(0.0723026 0 -0.000423155)
(0.0838251 0 -0.000500759)
(0.0931785 0 -0.000569953)
(0.10059 0 -0.000631472)
(0.106256 0 -0.000685793)
(0.110338 0 -0.000732877)
(0.11298 0 -0.00077245)
(0.114305 0 -0.000804259)
(0.114422 0 -0.000826759)
(0.113428 0 -0.00083806)
(0.11141 0 -0.000836798)
(0.108444 0 -0.000820796)
(0.104603 0 -0.000787304)
(0.0999508 0 -0.000732842)
(0.0945504 0 -0.00065285)
(0.0884666 0 -0.000542402)
(0.0817703 0 -0.000395344)
(0.0745369 0 -0.000203347)
(0.0668495 0 4.38432e-05)
(0.058804 0 0.000359318)
(0.0505181 0 0.000759795)
(0.0421462 0 0.00126665)
(0.0338933 0 0.00190803)
(0.0260687 0 0.00272125)
(0.0192558 0 0.00374235)
(0.0148851 0 0.00489863)
(0.00777985 0 0.00713139)
(0 0 0)
(0.0221362 0 -0.000249866)
(0.0418129 0 -0.000475354)
(0.0584855 0 -0.000673103)
(0.0724632 0 -0.000847857)
(0.0840309 0 -0.00100292)
(0.0934357 0 -0.00114119)
(0.100906 0 -0.00126476)
(0.106636 0 -0.00137408)
(0.110792 0 -0.00146908)
(0.113516 0 -0.00154915)
(0.114935 0 -0.00161331)
(0.115158 0 -0.0016592)
(0.114286 0 -0.00168383)
(0.112408 0 -0.00168412)
(0.109603 0 -0.0016558)
(0.105945 0 -0.00159367)
(0.101508 0 -0.00149128)
(0.0963558 0 -0.00134017)
(0.090556 0 -0.00113051)
(0.084189 0 -0.000850506)
(0.0773445 0 -0.000485431)
(0.0701223 0 -1.70317e-05)
(0.0626406 0 0.000577724)
(0.0550508 0 0.00132748)
(0.0475735 0 0.00226635)
(0.0405098 0 0.00343244)
(0.0342719 0 0.00486076)
(0.0295208 0 0.00655487)
(0.0279007 0 0.00827003)
(0.0239751 0 0.0111426)
(0 0 0)
(0.0222035 0 -0.00037484)
(0.0419456 0 -0.000713248)
(0.0586825 0 -0.00101019)
(0.0727261 0 -0.0012728)
(0.0843677 0 -0.00150625)
(0.0938593 0 -0.00171485)
(0.101426 0 -0.0019016)
(0.107265 0 -0.00206728)
(0.111542 0 -0.00221189)
(0.114403 0 -0.00233447)
(0.115977 0 -0.00243281)
(0.116377 0 -0.00250466)
(0.115707 0 -0.00254689)
(0.11406 0 -0.00255433)
(0.11152 0 -0.00252084)
(0.108166 0 -0.00243935)
(0.10408 0 -0.00230118)
(0.0993362 0 -0.00209529)
(0.0940085 0 -0.00180759)
(0.0881848 0 -0.00142157)
(0.0819778 0 -0.000919464)
(0.0755162 0 -0.000279482)
(0.0689513 0 0.00052526)
(0.0624752 0 0.00152652)
(0.0563702 0 0.00275662)
(0.0510594 0 0.0042355)
(0.0471409 0 0.00594821)
(0.045352 0 0.00781)
(0.0471632 0 0.00938666)
(0.046533 0 0.0119891)
(0 0 0)
(0.0222966 0 -0.000499277)
(0.0421295 0 -0.000950261)
(0.0589552 0 -0.00134624)
(0.073092 0 -0.0016968)
(0.0848377 0 -0.00200944)
(0.0944475 0 -0.00228956)
(0.102147 0 -0.00254069)
(0.108134 0 -0.00276432)
(0.112579 0 -0.00296068)
(0.11563 0 -0.00312869)
(0.117419 0 -0.00326573)
(0.118065 0 -0.00336924)
(0.117676 0 -0.00343547)
(0.116349 0 -0.00345816)
(0.114172 0 -0.00342962)
(0.111236 0 -0.00334179)
(0.10763 0 -0.00318482)
(0.103442 0 -0.00294582)
(0.0987621 0 -0.00260914)
(0.09369 0 -0.00215632)
(0.0883558 0 -0.00156843)
(0.0829227 0 -0.000824822)
(0.0775846 0 9.75531e-05)
(0.0725968 0 0.00122039)
(0.0682906 0 0.00255665)
(0.0651458 0 0.00409121)
(0.063913 0 0.00573412)
(0.0654453 0 0.00728032)
(0.0707575 0 0.00819417)
(0.0730322 0 0.00996338)
(0 0 0)
(0.0224148 0 -0.000623341)
(0.0423633 0 -0.00118644)
(0.059301 0 -0.00168107)
(0.0735562 0 -0.00211967)
(0.0854344 0 -0.00251184)
(0.0951931 0 -0.00286416)
(0.10306 0 -0.00318093)
(0.109233 0 -0.00346434)
(0.113889 0 -0.00371502)
(0.117179 0 -0.00393209)
(0.119241 0 -0.00411321)
(0.120198 0 -0.00425518)
(0.120162 0 -0.00435349)
(0.119239 0 -0.00440186)
(0.117526 0 -0.00439224)
(0.115119 0 -0.00431559)
(0.112116 0 -0.00416123)
(0.108623 0 -0.00391628)
(0.104749 0 -0.00356604)
(0.100615 0 -0.00309354)
(0.0963714 0 -0.00248185)
(0.0922093 0 -0.0017157)
(0.0883624 0 -0.000782185)
(0.0851391 0 0.000321355)
(0.0829485 0 0.00157208)
(0.0823002 0 0.00290818)
(0.0839163 0 0.00417318)
(0.0886472 0 0.00506048)
(0.0970488 0 0.00504643)
(0.101685 0 0.00579636)
(0 0 0)
(0.0225526 0 -0.000747048)
(0.0426367 0 -0.00142184)
(0.0597126 0 -0.00201505)
(0.0741144 0 -0.00254211)
(0.0861531 0 -0.00301449)
(0.0960902 0 -0.00344015)
(0.104156 0 -0.0038243)
(0.110554 0 -0.00416986)
(0.115462 0 -0.00447808)
(0.11904 0 -0.00474855)
(0.121427 0 -0.00497917)
(0.122754 0 -0.00516666)
(0.12314 0 -0.00530626)
(0.122698 0 -0.00539229)
(0.121539 0 -0.00541777)
(0.119764 0 -0.00537255)
(0.117479 0 -0.00524528)
(0.114809 0 -0.00502579)
(0.111885 0 -0.00470232)
(0.108853 0 -0.00426167)
(0.105886 0 -0.00369273)
(0.103202 0 -0.00298972)
(0.101083 0 -0.00215728)
(0.0998551 0 -0.00121462)
(0.099965 0 -0.000220568)
(0.101967 0 0.000707786)
(0.106448 0 0.00136785)
(0.114037 0 0.00142253)
(0.124834 0 0.000460129)
(0.131127 0 0.000231226)
(0 0 0)
(0.0227083 0 -0.000869954)
(0.0429474 0 -0.00165623)
(0.0601868 0 -0.00234845)
(0.0747623 0 -0.00296461)
(0.0869878 0 -0.00351815)
(0.0971315 0 -0.00401856)
(0.105428 0 -0.00447215)
(0.112084 0 -0.00488258)
(0.117285 0 -0.00525198)
(0.121193 0 -0.00558066)
(0.123956 0 -0.00586694)
(0.125708 0 -0.00610781)
(0.126576 0 -0.00629859)
(0.126683 0 -0.00643476)
(0.126153 0 -0.00651083)
(0.125097 0 -0.00651731)
(0.123635 0 -0.00644469)
(0.121907 0 -0.00628532)
(0.120061 0 -0.00603102)
(0.118274 0 -0.00567608)
(0.116744 0 -0.00521816)
(0.115705 0 -0.00466213)
(0.115483 0 -0.00403362)
(0.116435 0 -0.00337966)
(0.118971 0 -0.00278558)
(0.123613 0 -0.00240773)
(0.130806 0 -0.00247213)
(0.140818 0 -0.00327081)
(0.153235 0 -0.00502838)
(0.160409 0 -0.0060243)
(0 0 0)
(0.0228847 0 -0.000991709)
(0.0432999 0 -0.00188892)
(0.0607223 0 -0.00268004)
(0.0754919 0 -0.00338549)
(0.0879274 0 -0.00402083)
(0.0983033 0 -0.00459724)
(0.106858 0 -0.00512219)
(0.113804 0 -0.00560009)
(0.119331 0 -0.00603427)
(0.123609 0 -0.00642609)
(0.12679 0 -0.00677445)
(0.129017 0 -0.00707721)
(0.130424 0 -0.00733065)
(0.131144 0 -0.00753112)
(0.131308 0 -0.00767419)
(0.131044 0 -0.00775314)
(0.130496 0 -0.00776327)
(0.129813 0 -0.00769949)
(0.129155 0 -0.00755753)
(0.128725 0 -0.00733987)
(0.128756 0 -0.00705688)
(0.129511 0 -0.00672826)
(0.131304 0 -0.00639314)
(0.134514 0 -0.00612476)
(0.139521 0 -0.00603272)
(0.146718 0 -0.00628251)
(0.15635 0 -0.00708502)
(0.168276 0 -0.0086338)
(0.18163 0 -0.0109469)
(0.189099 0 -0.0123769)
(0 0 0)
(0.0230796 0 -0.00111208)
(0.0436893 0 -0.00211914)
(0.0613123 0 -0.0030085)
(0.0762943 0 -0.00380306)
(0.0889602 0 -0.00452058)
(0.099591 0 -0.00517402)
(0.108429 0 -0.00577224)
(0.115693 0 -0.00632092)
(0.121579 0 -0.00682431)
(0.126261 0 -0.00728434)
(0.129898 0 -0.00770131)
(0.132643 0 -0.00807463)
(0.13464 0 -0.00840254)
(0.136026 0 -0.00868152)
(0.136943 0 -0.00890878)
(0.137538 0 -0.00908247)
(0.137971 0 -0.00920152)
(0.138402 0 -0.00926462)
(0.139022 0 -0.00927604)
(0.140041 0 -0.00924476)
(0.141717 0 -0.00919273)
(0.144354 0 -0.009158)
(0.148234 0 -0.00918904)
(0.153713 0 -0.00937378)
(0.161141 0 -0.00983673)
(0.170736 0 -0.0107271)
(0.18247 0 -0.0121997)
(0.195827 0 -0.0143256)
(0.209634 0 -0.0169567)
(0.217143 0 -0.0185546)
(0 0 0)
(0.0232914 0 -0.0012311)
(0.0441124 0 -0.002347)
(0.0619523 0 -0.00333402)
(0.0771636 0 -0.00421764)
(0.0900783 0 -0.00501774)
(0.100985 0 -0.00574936)
(0.110131 0 -0.006423)
(0.11774 0 -0.00704609)
(0.124013 0 -0.00762305)
(0.129126 0 -0.00815596)
(0.133251 0 -0.00864775)
(0.136547 0 -0.00909973)
(0.139168 0 -0.00951138)
(0.14126 0 -0.00988157)
(0.142976 0 -0.0102099)
(0.144484 0 -0.0104994)
(0.14595 0 -0.0107521)
(0.147543 0 -0.0109709)
(0.149489 0 -0.0111702)
(0.152018 0 -0.0113683)
(0.155391 0 -0.0115952)
(0.159915 0 -0.0119003)
(0.165875 0 -0.0123455)
(0.173585 0 -0.0130228)
(0.183305 0 -0.0140502)
(0.195075 0 -0.0155414)
(0.208584 0 -0.0175707)
(0.22301 0 -0.0200929)
(0.237017 0 -0.0228616)
(0.244596 0 -0.0245117)
(0 0 0)
(0.0235186 0 -0.00134875)
(0.0445659 0 -0.00257248)
(0.0626375 0 -0.00365664)
(0.0780931 0 -0.00462924)
(0.0912726 0 -0.00551229)
(0.102474 0 -0.00632311)
(0.111949 0 -0.00707405)
(0.119924 0 -0.00777347)
(0.1266 0 -0.00842657)
(0.132168 0 -0.00903729)
(0.136807 0 -0.00961056)
(0.140682 0 -0.0101487)
(0.143949 0 -0.0106525)
(0.146777 0 -0.0111258)
(0.14933 0 -0.0115715)
(0.151775 0 -0.0119935)
(0.154298 0 -0.0124001)
(0.157091 0 -0.0128015)
(0.160386 0 -0.0132181)
(0.164431 0 -0.0136773)
(0.16949 0 -0.0142164)
(0.175843 0 -0.0148895)
(0.183798 0 -0.015771)
(0.193605 0 -0.0169475)
(0.205416 0 -0.0185144)
(0.21911 0 -0.0205376)
(0.234128 0 -0.023003)
(0.249431 0 -0.0257727)
(0.263579 0 -0.0285619)
(0.271405 0 -0.0302067)
(0 0 0)
(0.023758 0 -0.00146442)
(0.045044 0 -0.00279444)
(0.0633598 0 -0.00397473)
(0.0790711 0 -0.00503583)
(0.0925288 0 -0.00600224)
(0.104042 0 -0.00689353)
(0.113863 0 -0.00772325)
(0.122216 0 -0.00850053)
(0.129313 0 -0.0092322)
(0.135355 0 -0.00992545)
(0.140529 0 -0.0105861)
(0.144998 0 -0.011217)
(0.148931 0 -0.0118217)
(0.152511 0 -0.0124082)
(0.155915 0 -0.0129833)
(0.159308 0 -0.0135524)
(0.162892 0 -0.0141292)
(0.166883 0 -0.0147329)
(0.171511 0 -0.0153873)
(0.177027 0 -0.0161267)
(0.18369 0 -0.0169944)
(0.191762 0 -0.0180473)
(0.201541 0 -0.0193637)
(0.213216 0 -0.0210182)
(0.226845 0 -0.0230773)
(0.242177 0 -0.0255539)
(0.258493 0 -0.0283553)
(0.274628 0 -0.0312735)
(0.28903 0 -0.0340195)
(0.297595 0 -0.0356054)
(0 0 0)
(0.0240072 0 -0.00157776)
(0.0455423 0 -0.00301222)
(0.0641129 0 -0.00428741)
(0.0800925 0 -0.00543648)
(0.0938415 0 -0.00648662)
(0.105677 0 -0.00745906)
(0.115854 0 -0.00836858)
(0.124598 0 -0.00922569)
(0.13213 0 -0.0100393)
(0.138658 0 -0.0108181)
(0.144372 0 -0.0115694)
(0.149445 0 -0.0122984)
(0.154056 0 -0.0130121)
(0.158393 0 -0.0137201)
(0.162634 0 -0.0144314)
(0.166967 0 -0.0151582)
(0.171598 0 -0.0159182)
(0.176744 0 -0.016734)
(0.182635 0 -0.0176348)
(0.189518 0 -0.0186597)
(0.197643 0 -0.0198563)
(0.207255 0 -0.0212827)
(0.218602 0 -0.0230107)
(0.231825 0 -0.0251019)
(0.246899 0 -0.0275927)
(0.263498 0 -0.0304504)
(0.280873 0 -0.0335285)
(0.297842 0 -0.0365623)
(0.312751 0 -0.0392603)
(0.323313 0 -0.0407406)
(0 0 0)
(0.0242646 0 -0.00168871)
(0.0460571 0 -0.00322568)
(0.0648917 0 -0.00459443)
(0.0811496 0 -0.00583074)
(0.0951984 0 -0.00696415)
(0.107363 0 -0.00801755)
(0.117903 0 -0.00900744)
(0.127048 0 -0.00994598)
(0.135024 0 -0.0108442)
(0.142042 0 -0.0117114)
(0.1483 0 -0.0125563)
(0.153977 0 -0.0133876)
(0.159266 0 -0.0142157)
(0.16435 0 -0.0150508)
(0.169403 0 -0.0159028)
(0.17464 0 -0.016792)
(0.180262 0 -0.0177382)
(0.18648 0 -0.018767)
(0.193518 0 -0.0199112)
(0.201616 0 -0.0212134)
(0.211002 0 -0.0227225)
(0.221885 0 -0.0244935)
(0.234453 0 -0.0265882)
(0.248792 0 -0.0290552)
(0.264811 0 -0.031908)
(0.282147 0 -0.0350898)
(0.300109 0 -0.038437)
(0.317622 0 -0.0416509)
(0.33323 0 -0.0444059)
(0.348724 0 -0.045695)
(0 0 0)
(0.0245296 0 -0.00179775)
(0.0465881 0 -0.00343586)
(0.0656964 0 -0.00489738)
(0.0822425 0 -0.0062206)
(0.0965993 0 -0.00743727)
(0.1091 0 -0.00857237)
(0.120014 0 -0.00964412)
(0.129568 0 -0.0106657)
(0.137993 0 -0.0116499)
(0.145508 0 -0.0126086)
(0.152312 0 -0.0135512)
(0.158594 0 -0.0144886)
(0.16455 0 -0.0154344)
(0.170354 0 -0.0163985)
(0.176193 0 -0.0173948)
(0.182279 0 -0.0184464)
(0.188809 0 -0.0195755)
(0.195995 0 -0.020812)
(0.204039 0 -0.0221882)
(0.213161 0 -0.0237483)
(0.223551 0 -0.025538)
(0.235368 0 -0.0276061)
(0.248738 0 -0.0300047)
(0.26367 0 -0.0327684)
(0.279995 0 -0.0358983)
(0.297298 0 -0.0393423)
(0.314901 0 -0.0429882)
(0.331774 0 -0.0466781)
(0.34686 0 -0.0504689)
(0.374137 0 -0.0506825)
(0 0 0)
(0.0180599 0 0)
(0.0353508 0 0)
(0.060048 0 0)
(0.0880847 0 0)
(0.115841 0 0)
(0.141068 0 0)
(0.162829 0 0)
(0.18101 0 0)
(0.195794 0 0)
(0.207482 0 0)
(0.216388 0 0)
(0.222785 0 0)
(0.226903 0 0)
(0.228921 0 0)
(0.228974 0 0)
(0.227157 0 0)
(0.223528 0 0)
(0.218108 0 0)
(0.210902 0 0)
(0.201908 0 0)
(0.191084 0 0)
(0.178368 0 0)
(0.163696 0 0)
(0.146994 0 0)
(0.128169 0 0)
(0.107155 0 0)
(0.0838897 0 0)
(0.058258 0 0)
(0.0301197 0 0)
(0 0 0)
(0.00607479 0 -0.00801869)
(0.0223794 0 -0.00804031)
(0.0397332 0 -0.00893662)
(0.06403 0 -0.00949323)
(0.0914588 0 -0.00971279)
(0.11861 0 -0.00965946)
(0.143312 0 -0.00942515)
(0.164641 0 -0.00906439)
(0.182478 0 -0.00862613)
(0.196985 0 -0.00814966)
(0.208452 0 -0.00765406)
(0.217178 0 -0.00716049)
(0.223431 0 -0.00667722)
(0.227432 0 -0.00620878)
(0.229356 0 -0.00576573)
(0.22933 0 -0.00533203)
(0.227449 0 -0.00491678)
(0.223768 0 -0.00452876)
(0.218309 0 -0.00415824)
(0.211071 0 -0.00379601)
(0.202047 0 -0.00344635)
(0.191198 0 -0.00311186)
(0.178463 0 -0.00278704)
(0.163776 0 -0.0024678)
(0.147063 0 -0.00214828)
(0.128233 0 -0.00182506)
(0.107214 0 -0.00149293)
(0.0839358 0 -0.00114914)
(0.0582892 0 -0.000790041)
(0.0301381 0 -0.000407028)
(0 0 0)
(0.0200017 0 -0.0150973)
(0.0346308 0 -0.0157924)
(0.0521142 0 -0.0174066)
(0.0753556 0 -0.0183959)
(0.101169 0 -0.0187978)
(0.126646 0 -0.0187058)
(0.149862 0 -0.0182692)
(0.169957 0 -0.0175995)
(0.186794 0 -0.0167792)
(0.200495 0 -0.0158811)
(0.211312 0 -0.0149461)
(0.219512 0 -0.0140052)
(0.225338 0 -0.0130841)
(0.22899 0 -0.0121815)
(0.230631 0 -0.0113165)
(0.230378 0 -0.0104835)
(0.228309 0 -0.00967955)
(0.224475 0 -0.00891559)
(0.218896 0 -0.0081895)
(0.211564 0 -0.00748741)
(0.202456 0 -0.00680511)
(0.191535 0 -0.00614518)
(0.178738 0 -0.0055037)
(0.164005 0 -0.0048733)
(0.147257 0 -0.00424385)
(0.128402 0 -0.00360693)
(0.107362 0 -0.00295399)
(0.0840518 0 -0.00227669)
(0.0583685 0 -0.00156596)
(0.0301811 0 -0.000806961)
(0 0 0)
(0.040143 0 -0.0220976)
(0.0531078 0 -0.0231981)
(0.0705652 0 -0.0252753)
(0.0923087 0 -0.0265441)
(0.115888 0 -0.0270629)
(0.138996 0 -0.0269398)
(0.160046 0 -0.0263411)
(0.178307 0 -0.0254252)
(0.193628 0 -0.0242964)
(0.206084 0 -0.0230459)
(0.215884 0 -0.021741)
(0.223248 0 -0.0204114)
(0.228392 0 -0.0190994)
(0.23149 0 -0.0178121)
(0.232677 0 -0.0165633)
(0.23206 0 -0.0153671)
(0.229697 0 -0.0142141)
(0.225619 0 -0.0131036)
(0.219839 0 -0.0120406)
(0.212349 0 -0.0110203)
(0.203114 0 -0.0100309)
(0.192083 0 -0.00906689)
(0.17919 0 -0.00812218)
(0.164376 0 -0.00719031)
(0.147565 0 -0.00626212)
(0.12866 0 -0.00532483)
(0.107578 0 -0.0043649)
(0.0842224 0 -0.00336713)
(0.0584889 0 -0.00231698)
(0.0302461 0 -0.00119422)
(0 0 0)
(0.0646738 0 -0.0291431)
(0.0760658 0 -0.0303383)
(0.0931773 0 -0.0326124)
(0.113155 0 -0.034003)
(0.134202 0 -0.0345607)
(0.154593 0 -0.0343955)
(0.173095 0 -0.0336669)
(0.189133 0 -0.0325517)
(0.202564 0 -0.031175)
(0.213432 0 -0.0296311)
(0.221912 0 -0.0280083)
(0.22819 0 -0.0263484)
(0.232441 0 -0.0246936)
(0.234812 0 -0.0230716)
(0.235405 0 -0.0214862)
(0.2343 0 -0.0199564)
(0.231544 0 -0.0184874)
(0.227148 0 -0.0170691)
(0.221103 0 -0.0156974)
(0.213392 0 -0.0143759)
(0.203983 0 -0.0130998)
(0.192812 0 -0.0118551)
(0.179803 0 -0.0106283)
(0.164884 0 -0.00941158)
(0.147977 0 -0.00819691)
(0.128993 0 -0.00697172)
(0.107851 0 -0.00571737)
(0.0844391 0 -0.00441255)
(0.058642 0 -0.00303726)
(0.030328 0 -0.00156569)
(0 0 0)
(0.0920837 0 -0.0361531)
(0.101943 0 -0.0371985)
(0.118341 0 -0.0394604)
(0.136412 0 -0.0408395)
(0.15486 0 -0.0413653)
(0.172435 0 -0.0411338)
(0.188227 0 -0.0402902)
(0.201816 0 -0.0390022)
(0.213106 0 -0.0374129)
(0.222153 0 -0.0356264)
(0.229099 0 -0.0337327)
(0.234108 0 -0.0317959)
(0.237305 0 -0.0298492)
(0.238811 0 -0.0279344)
(0.2387 0 -0.026062)
(0.237012 0 -0.024238)
(0.233779 0 -0.0224798)
(0.229 0 -0.0207852)
(0.222641 0 -0.0191404)
(0.214664 0 -0.0175437)
(0.205034 0 -0.0159977)
(0.19369 0 -0.0144907)
(0.180542 0 -0.0130036)
(0.165503 0 -0.0115246)
(0.148482 0 -0.0100422)
(0.129399 0 -0.00854206)
(0.108179 0 -0.00700542)
(0.0846942 0 -0.0054081)
(0.0588203 0 -0.0037233)
(0.0304224 0 -0.00191951)
(0 0 0)
(0.121023 0 -0.0428452)
(0.129444 0 -0.0436932)
(0.144836 0 -0.0458245)
(0.160975 0 -0.0471122)
(0.176882 0 -0.0475521)
(0.191666 0 -0.04722)
(0.204703 0 -0.0462515)
(0.21574 0 -0.0448027)
(0.224757 0 -0.0430231)
(0.231849 0 -0.0410329)
(0.23713 0 -0.038914)
(0.24074 0 -0.036741)
(0.242776 0 -0.0345504)
(0.243322 0 -0.0323834)
(0.242427 0 -0.0302649)
(0.240093 0 -0.0281929)
(0.236323 0 -0.0261792)
(0.231104 0 -0.0242337)
(0.224391 0 -0.0223472)
(0.216119 0 -0.0205078)
(0.206238 0 -0.0187149)
(0.19469 0 -0.016963)
(0.181378 0 -0.0152351)
(0.1662 0 -0.0135143)
(0.149062 0 -0.0117851)
(0.129877 0 -0.0100286)
(0.108557 0 -0.00822569)
(0.0849799 0 -0.00635138)
(0.0590174 0 -0.00437349)
(0.0305256 0 -0.00225485)
(0 0 0)
(0.150351 0 -0.0490049)
(0.157596 0 -0.0497656)
(0.171832 0 -0.0517264)
(0.186075 0 -0.0528787)
(0.199524 0 -0.0531838)
(0.211569 0 -0.0527071)
(0.221861 0 -0.0515857)
(0.230334 0 -0.0499781)
(0.237038 0 -0.0480252)
(0.242107 0 -0.0458538)
(0.245658 0 -0.043546)
(0.247813 0 -0.0411757)
(0.248642 0 -0.038788)
(0.248178 0 -0.0364123)
(0.246446 0 -0.0340816)
(0.243429 0 -0.0318016)
(0.239088 0 -0.0295717)
(0.233393 0 -0.0274055)
(0.226293 0 -0.0253032)
(0.217705 0 -0.0232508)
(0.207559 0 -0.0212401)
(0.195785 0 -0.0192669)
(0.182286 0 -0.0173188)
(0.166954 0 -0.0153757)
(0.14969 0 -0.013419)
(0.130395 0 -0.0114271)
(0.108967 0 -0.0093775)
(0.085286 0 -0.00724282)
(0.0592269 0 -0.00498834)