/*--------------------------------*- C++ -*----------------------------------*\
| =========                 |                                                 |
| \\      /  F ield         | OpenFOAM: The Open Source CFD Toolbox           |
|  \\    /   O peration     | Version:  dev                                   |
|   \\  /    A nd           | Web:      www.OpenFOAM.org                      |
|    \\/     M anipulation  |                                                 |
\*---------------------------------------------------------------------------*/
FoamFile
{
    version     2.0;
    format      ascii;
    class       surfaceVectorField;
    location    "0.24";
    object      Uf;
}
// * * * * * * * * * * * * * * * * * * * * * * * * * * * * * * * * * * * * * //

dimensions      [0 1 -1 0 0 0 0];

internalField   nonuniform List<vector> 
879
(
(9.99009 -1.69033e-20 0.197652)
(9.99176 -9.10482e-21 0.135685)
(9.9815 -8.43274e-21 0.265191)
(9.99128 -4.32083e-22 0.204627)
(9.99225 1.62457e-20 0.140154)
(9.97474 9.23685e-21 0.335678)
(9.98361 -2.75138e-22 0.273881)
(9.96774 9.09095e-21 0.406104)
(9.99252 1.63947e-20 0.210833)
(9.99276 -7.06293e-21 0.144079)
(9.97836 -4.1831e-22 0.345782)
(9.9858 8.68172e-21 0.2815)
(9.95812 -1.75437e-20 0.480882)
(9.97286 -9.50957e-21 0.417272)
(9.95205 -1.65651e-20 0.554864)
(9.9938 -1.49534e-20 0.216191)
(9.99329 -1.5345e-20 0.147412)
(9.98208 -6.43952e-22 0.354478)
(9.98804 1.24496e-22 0.287953)
(9.96541 -8.51321e-21 0.492787)
(9.9781 7.31736e-21 0.426685)
(9.94427 -7.03858e-21 0.633897)
(9.96146 -8.41671e-22 0.567116)
(9.94041 9.00481e-21 0.711289)
(9.9951 9.92013e-23 0.220634)
(9.99384 7.42983e-21 0.150108)
(9.98587 8.28184e-21 0.361655)
(9.99032 -2.25227e-22 0.293154)
(9.97284 1.51651e-20 0.502545)
(9.98341 8.49371e-22 0.434219)
(9.95647 1.55897e-20 0.646092)
(9.971 6.13989e-21 0.576825)
(9.93722 8.99268e-21 0.79415)
(9.95531 9.50781e-21 0.722997)
(9.93781 5.27498e-22 0.874392)
(9.99641 7.08604e-21 0.224097)
(9.99439 7.50151e-21 0.152126)
(9.9897 -7.83258e-21 0.367213)
(9.99261 2.02713e-22 0.297025)
(9.98033 -8.38537e-21 0.510021)
(9.98874 -8.93155e-21 0.43976)
(9.96875 -8.62514e-23 0.655298)
(9.98057 -9.66879e-22 0.583845)
(9.95544 8.37817e-22 0.804865)
(9.97024 -5.69423e-21 0.731275)
(9.94093 4.10332e-21 0.960328)
(9.95923 9.47674e-22 0.883655)
(9.94807 -7.79275e-22 1.04253)
(9.99773 4.44062e-22 0.226525)
(9.99494 6.4762e-21 0.153432)
(9.99353 -9.31009e-22 0.37106)
(9.9949 4.43846e-22 0.299498)
(9.98781 -1.33158e-21 0.515092)
(9.99404 6.24543e-21 0.443211)
(9.98101 -6.71339e-21 0.661366)
(9.99008 -8.70761e-22 0.588055)
(9.9736 -5.57411e-21 0.811657)
(9.98506 -4.92847e-21 0.735977)
(9.96613 -4.05008e-21 0.967508)
(9.98045 -8.45823e-22 0.88852)
(9.95919 -8.64105e-22 1.13042)
(9.97682 -6.8144e-21 1.04715)
(9.95349 4.9482e-21 1.30191)
(9.97463 1.81441e-22 1.21334)
(9.9746 -8.95916e-22 1.38852)
(9.99903 6.47303e-21 0.227871)
(9.99549 3.04534e-22 0.153996)
(9.99732 7.79525e-21 0.373123)
(9.99715 -8.00389e-22 0.300518)
(9.99521 6.71291e-21 0.517659)
(9.99927 2.0075e-21 0.444495)
(9.99312 9.5251e-22 0.664178)
(9.99944 -8.90974e-22 0.589357)
(9.99151 -8.14847e-23 0.814391)
(9.99961 3.52542e-21 0.736992)
(9.99093 -3.67866e-21 0.969767)
(10.0013 -3.6013e-21 0.888868)
(9.99201 -5.7353e-21 1.13173)
(10.0049 1.72563e-21 1.04637)
(9.99547 -5.79819e-21 1.30167)
(10.0112 -3.91874e-21 1.21086)
(10.0021 -5.89955e-21 1.48099)
(10.0206 -5.61125e-21 1.38367)
(10.0343 -3.87206e-21 1.56611)
(10.0003 -7.14129e-21 0.228099)
(9.99603 -6.10054e-21 0.153796)
(10.001 -6.71808e-21 0.373343)
(9.99936 -1.20431e-21 0.300042)
(10.0025 -5.77541e-21 0.517647)
(10.0044 -4.34962e-21 0.443551)
(10.005 1.74648e-21 0.663644)
(10.0086 -2.14289e-24 0.587681)
(10.009 -7.79225e-23 0.812972)
(10.0138 1.09875e-22 0.734245)
(10.0151 1.93356e-21 0.967014)
(10.0214 -1.78311e-21 0.884629)
(10.0239 3.58414e-21 1.12709)
(10.0322 1.97842e-21 1.04012)
(10.0361 -3.72445e-21 1.2945)
(10.0464 6.86568e-21 1.20197)
(10.0526 -3.5369e-21 1.47049)
(10.0649 -1.92843e-21 1.37139)
(10.0744 9.47671e-23 1.65628)
(10.0886 3.70341e-21 1.54956)
(10.1025 0 1.85301)
(10.1185 1.79105e-21 1.73757)
(10.1558 1.78537e-21 1.9364)
(10.0016 -2.43348e-23 0.227179)
(9.99657 -5.34721e-21 0.152816)
(10.0047 1.22326e-21 0.371678)
(10.0015 -3.93884e-22 0.298041)
(10.0095 1.56998e-21 0.515004)
(10.0093 1.6066e-21 0.440345)
(10.0165 -1.67363e-21 0.65971)
(10.0174 1.53207e-21 0.582989)
(10.0259 -1.63485e-21 0.807349)
(10.0274 -3.24273e-21 0.727703)
(10.0384 -1.73541e-21 0.959212)
(10.0408 0 0.875781)
(10.0545 5.33847e-21 1.11651)
(10.0582 4.71109e-21 1.02841)
(10.0751 8.70262e-21 1.28042)
(10.08 3.90359e-22 1.18672)
(10.1008 5.48397e-21 1.45207)
(10.107 -1.49405e-21 1.3518)
(10.1328 5.43768e-21 1.6325)
(10.14 7.08952e-21 1.52468)
(10.172 3.62432e-21 1.82269)
(10.1801 8.60575e-21 1.70629)
(10.2197 5.55445e-21 2.0234)
(10.2284 -1.63887e-21 1.89744)
(10.2772 -1.13108e-22 2.23516)
(10.2861 1.05964e-20 2.0987)
(10.3546 -3.88216e-21 2.31034)
(10.0028 -5.72998e-21 0.225096)
(9.99709 -2.68816e-22 0.151049)
(10.0081 0 0.368104)
(10.0035 -1.41432e-21 0.294504)
(10.0163 1.57218e-21 0.509707)
(10.014 1.44554e-21 0.434861)
(10.0275 -6.84123e-23 0.652358)
(10.0257 7.40349e-21 0.575271)
(10.0421 -1.56682e-21 0.79752)
(10.0404 -1.60541e-21 0.71737)
(10.0606 6.60417e-21 0.946381)
(10.0592 6.03936e-21 0.862353)
(10.0836 -3.53634e-22 1.10005)
(10.0829 -2.69237e-21 1.0113)
(10.1119 -1.00477e-20 1.25956)
(10.1117 -3.64357e-21 1.16523)
(10.1462 1.45992e-22 1.42592)
(10.1465 -3.40995e-21 1.32509)
(10.1875 1.03345e-20 1.60002)
(10.1881 3.48053e-21 1.49177)
(10.2368 3.22642e-21 1.78264)
(10.2373 -2.78881e-21 1.66605)
(10.2951 3.53933e-21 1.97439)
(10.2954 -2.61221e-22 1.84857)
(10.364 6.75568e-21 2.17558)
(10.3634 4.32053e-22 2.0397)
(10.4446 -7.19062e-21 2.38617)
(10.4425 -1.16928e-22 2.23954)
(10.5342 -1.03055e-20 2.44775)
(10.0039 4.14686e-21 0.221846)
(9.99758 1.10062e-20 0.148494)
(10.0115 7.52157e-23 0.362618)
(10.0055 -8.18508e-21 0.28943)
(10.0227 7.42099e-21 0.501756)
(10.0185 2.86627e-21 0.427109)
(10.0379 5.82912e-21 0.641603)
(10.0337 2.73143e-22 0.564551)
(10.0573 6.18802e-21 0.783523)
(10.0526 2.86338e-21 0.703293)
(10.0815 -3.48355e-21 0.9286)
(10.0765 -2.64243e-21 0.844427)
(10.111 -6.06002e-21 1.07782)
(10.1059 -6.51896e-21 0.988925)
(10.1464 3.15436e-21 1.23212)
(10.1412 6.19821e-21 1.13768)
(10.1885 0 1.39233)
(10.1831 0 1.29153)
(10.2381 -9.95999e-21 1.55923)
(10.2323 3.02402e-21 1.45122)
(10.2963 -6.35744e-21 1.73344)
(10.2897 -3.7671e-21 1.61738)
(10.3641 -3.44246e-21 1.91537)
(10.3563 2.47449e-22 1.79048)
(10.4425 -6.60398e-21 2.10519)
(10.4331 -6.72927e-21 1.97077)
(10.533 -3.30928e-21 2.30267)
(10.5212 -3.07349e-21 2.15816)
(10.6367 1.81389e-21 2.50717)
(10.6219 1.33084e-21 2.35216)
(10.755 4.84235e-21 2.71759)
(10.7362 9.4886e-21 2.55186)
(10.8654 -6.07083e-21 2.75587)
(10.005 -1.63207e-21 0.217434)
(9.99806 8.84139e-22 0.145159)
(10.0146 -5.30519e-21 0.355235)
(10.0073 2.86556e-21 0.282838)
(10.0287 -4.45197e-21 0.491181)
(10.0226 1.41929e-21 0.417119)
(10.0476 -2.75947e-21 0.627498)
(10.041 -4.8442e-22 0.550881)
(10.0716 -6.17459e-21 0.765444)
(10.0639 2.93245e-21 0.685554)
(10.101 -5.75125e-21 0.905997)
(10.0925 -9.03711e-21 0.822128)
(10.1363 6.0335e-21 1.05003)
(10.1272 3.06771e-21 0.961464)
(10.1781 2.96536e-21 1.19836)
(10.1684 -2.69124e-21 1.10435)
(10.2272 3.09804e-21 1.35169)
(10.2166 0 1.25148)
(10.2843 9.36304e-21 1.51066)
(10.2725 -2.75082e-21 1.40349)
(10.3502 2.99642e-21 1.67574)
(10.337 9.29012e-21 1.56088)
(10.426 -3.12068e-21 1.84721)
(10.4109 -2.90835e-22 1.72398)
(10.5125 -3.12256e-21 2.02509)
(10.495 -5.86243e-21 1.8929)
(10.611 1.67081e-21 2.209)
(10.5904 -1.66233e-22 2.06744)
(10.7224 9.18161e-21 2.3982)
(10.698 3.25393e-21 2.24699)
(10.8479 -1.68392e-21 2.59147)
(10.8187 3.11496e-21 2.43056)
(10.9884 -7.52145e-21 2.78715)
(10.9536 -4.72612e-21 2.61668)
(11.1449 -8.52027e-21 2.98318)
(11.1034 -1.51721e-21 2.80351)
(11.2688 -7.03764e-21 2.9888)
(10.006 5.48097e-21 0.211879)
(9.99851 -9.46502e-21 0.141058)
(10.0175 9.75549e-21 0.345987)
(10.009 6.20169e-21 0.274757)
(10.0343 5.4814e-21 0.478038)
(10.0265 -1.27274e-21 0.404944)
(10.0567 5.34663e-21 0.610127)
(10.0478 2.82969e-21 0.534342)
(10.0847 0 0.743408)
(10.0744 -2.63564e-21 0.664273)
(10.1188 0 0.878753)
(10.1071 0 0.795624)
(10.1594 -5.86859e-21 1.01693)
(10.1466 0 0.929152)
(10.207 -5.72589e-21 1.15862)
(10.1929 -3.1004e-21 1.06553)
(10.2622 -5.99007e-21 1.30443)
(10.2467 2.72274e-21 1.20535)
(10.3257 -2.82696e-21 1.45487)
(10.3085 -8.73865e-21 1.34912)
(10.3982 5.92828e-21 1.61028)
(10.379 3.08353e-21 1.49723)
(10.4806 -3.09328e-21 1.77084)
(10.4589 2.28397e-22 1.6499)
(10.5737 -2.84058e-21 1.93642)
(10.549 -5.17162e-22 1.80714)
(10.6784 1.44597e-21 2.10658)
(10.65 -8.01005e-21 1.96864)
(10.7956 -2.96131e-21 2.28048)
(10.7628 2.69518e-21 2.13376)
(10.9259 7.49892e-24 2.45686)
(10.888 -2.81108e-21 2.30142)
(11.0703 1.42553e-21 2.63405)
(11.0263 2.75419e-21 2.4702)
(11.2293 0 2.81003)
(11.1783 0 2.63825)
(11.4034 -1.31684e-21 2.98244)
(11.3444 0 2.80343)
(11.5929 -6.87488e-22 3.14868)
(11.5249 -1.31658e-21 2.96334)
(11.7197 2.8711e-23 3.11541)
(10.0069 -8.7269e-21 0.205208)
(9.99893 -2.2681e-22 0.136213)
(10.0201 -5.10074e-21 0.334924)
(10.0105 -3.88341e-21 0.265232)
(10.0394 -3.98314e-21 0.462403)
(10.03 -6.12614e-21 0.390654)
(10.0649 -5.33776e-21 0.589606)
(10.054 -2.70965e-21 0.51504)
(10.0967 -2.6344e-21 0.717578)
(10.0838 2.28076e-21 0.6396)
(10.135 0 0.84709)
(10.1203 0 0.765122)
(10.1803 2.83268e-21 0.978803)
(10.164 0 0.892261)
(10.2329 5.55327e-21 1.1133)
(10.2148 2.83156e-21 1.02159)
(10.2934 -9.62041e-23 1.25106)
(10.2734 2.72352e-21 1.1536)
(10.3623 -2.69372e-21 1.3925)
(10.3401 -8.05094e-21 1.28869)
(10.4402 -2.75471e-21 1.53786)
(10.4156 2.84869e-21 1.42715)
(10.528 2.87365e-21 1.68721)
(10.5003 5.2179e-21 1.56913)
(10.6262 -5.80838e-21 1.84035)
(10.595 5.61899e-21 1.71454)
(10.7354 -6.74049e-21 1.99678)
(10.7002 -4.86543e-21 1.86303)
(10.8565 2.84768e-21 2.15562)
(10.8165 5.44263e-21 2.01391)
(10.9899 3.15666e-24 2.31561)
(10.9444 -5.23868e-21 2.16613)
(11.1361 1.29366e-21 2.47514)
(11.0844 6.20086e-23 2.31828)
(11.2955 0 2.63226)
(11.2368 1.1879e-21 2.46863)
(11.4682 0 2.78477)
(11.4016 3.37183e-21 2.61514)
(11.6542 -5.84996e-22 2.93026)
(11.5788 -8.90663e-21 2.75561)
(10.0077 4.72895e-21 0.197459)
(9.99932 9.85492e-21 0.130652)
(10.0225 -4.94177e-21 0.322112)
(10.0119 -5.73167e-22 0.254318)
(10.0441 -4.82013e-21 0.444377)
(10.0331 -2.25754e-22 0.374337)
(10.0724 5.10254e-21 0.566075)
(10.0595 2.33337e-21 0.493101)
(10.1074 4.97766e-21 0.688147)
(10.0922 2.64824e-21 0.61171)
(10.1495 0 0.811265)
(10.1321 -2.41384e-21 0.730855)
(10.1988 0 0.935992)
(10.1793 4.90216e-21 0.851097)
(10.2557 -6.59949e-23 1.06281)
(10.2341 -6.59736e-23 0.972914)
(10.3206 -5.4264e-21 1.19212)
(10.2967 -7.6484e-21 1.09671)
(10.394 -2.38662e-21 1.32422)
(10.3675 -5.36017e-21 1.22279)
(10.4763 1.1005e-20 1.45928)
(10.4469 5.34189e-21 1.35138)
(10.5682 8.03025e-21 1.5973)
(10.5353 1.07083e-20 1.48254)
(10.67 6.59461e-21 1.73803)
(10.6334 -3.69877e-21 1.61614)
(10.7825 7.61299e-21 1.88093)
(10.7414 1.15896e-20 1.75179)
(10.9058 -2.82843e-21 2.02512)
(10.8598 1.16645e-21 1.88882)
(11.0406 -5.17766e-21 2.16942)
(10.989 -3.97613e-21 2.0262)
(11.1869 -4.81823e-23 2.31226)
(11.129 -1.29579e-21 2.1626)
(11.3449 4.64153e-21 2.45184)
(11.2801 5.72268e-23 2.29641)
(11.5145 -5.74639e-21 2.58613)
(11.4421 8.84563e-21 2.42576)
(11.6148 -1.39967e-20 2.54864)
(10.0085 4.41244e-21 0.188676)
(9.99968 -3.48226e-21 0.124406)
(10.0247 4.25411e-21 0.307628)
(10.0132 -5.86982e-22 0.242079)
(10.0482 7.09913e-21 0.424075)
(10.0359 4.82432e-21 0.356095)
(10.079 -1.84164e-22 0.539696)
(10.0644 -2.2002e-21 0.468671)
(10.1169 -4.92179e-21 0.655332)
(10.0997 -2.50883e-21 0.5808)
(10.1622 2.60965e-21 0.771562)
(10.1424 -1.13167e-22 0.693081)
(10.215 4.83927e-21 0.888858)
(10.1927 5.02039e-21 0.805989)
(10.2755 -7.82618e-21 1.00762)
(10.2507 -6.75648e-23 0.919917)
(10.344 -7.57958e-21 1.12815)
(10.3166 -3.02673e-21 1.03519)
(10.421 2.54818e-21 1.2507)
(10.3906 -9.09091e-23 1.15205)
(10.5066 5.02923e-21 1.37535)
(10.473 -4.72931e-21 1.27064)
(10.6015 -1.30777e-21 1.50205)
(10.5643 2.48002e-21 1.39098)
(10.7058 1.41112e-21 1.63053)
(10.6646 -3.0696e-22 1.51291)
(10.82 4.9944e-21 1.76026)
(10.7742 3.77287e-21 1.63605)
(10.9444 0 1.89038)
(10.8935 -1.66084e-22 1.75972)
(11.079 0 2.01978)
(11.0226 -4.6502e-21 1.88298)
(11.224 -1.19013e-21 2.14701)
(11.1614 -5.45079e-21 2.0046)
(11.3793 4.36502e-21 2.27042)
(11.31 3.24693e-21 2.12309)
(11.5446 4.04211e-22 2.38816)
(11.4681 1.00969e-20 2.23677)
(11.6352 -8.61913e-21 2.34385)
(10.0091 -8.60695e-21 0.178911)
(10 -5.60133e-22 0.11751)
(10.0266 0 0.29156)
(10.0143 -4.17163e-21 0.228587)
(10.0518 -4.70077e-21 0.401627)
(10.0383 0 0.336038)
(10.0848 -4.58563e-21 0.510648)
(10.0687 -2.53115e-21 0.441905)
(10.1252 2.4161e-21 0.619369)
(10.1061 -2.21502e-21 0.547076)
(10.1732 2.3572e-21 0.72828)
(10.1512 2.41505e-21 0.652067)
(10.2289 0 0.837776)
(10.2042 2.23188e-21 0.757272)
(10.2923 4.85437e-21 0.948176)
(10.2648 2.25814e-21 0.863012)
(10.3637 4.65073e-21 1.05973)
(10.3333 4.77338e-21 0.969542)
(10.4434 -7.53891e-21 1.17259)
(10.4098 -6.97663e-21 1.07704)
(10.5315 -7.33983e-21 1.28683)
(10.4944 -2.83041e-21 1.18562)
(10.6283 3.50205e-21 1.40236)
(10.5875 3.25029e-21 1.29525)
(10.7341 2.109e-21 1.51888)
(10.6891 -5.48425e-21 1.40577)
(10.849 -1.50759e-21 1.63589)
(10.7994 4.27938e-21 1.51679)
(10.9731 -4.92344e-21 1.75261)
(10.9185 3.07313e-21 1.62771)
(11.1066 -1.02327e-20 1.86799)
(11.0465 -1.44971e-20 1.73764)
(11.2492 -9.09272e-22 1.98072)
(11.1831 -1.81181e-22 1.84548)
(11.4007 9.11847e-21 2.08932)
(11.3283 -4.80226e-22 1.94988)
(11.5607 8.59755e-22 2.19213)
(11.4816 7.77358e-21 2.04935)
(11.6425 -3.71224e-21 2.1423)
(10.0097 3.97857e-21 0.16822)
(10.0003 4.45787e-21 0.110003)
(10.0282 -4.16942e-21 0.274003)
(10.0153 1.81813e-21 0.213916)
(10.055 2.2206e-21 0.37717)
(10.0404 -2.05876e-21 0.314282)
(10.0897 -9.77346e-23 0.479117)
(10.0724 1.42477e-22 0.412965)
(10.1323 -2.21405e-21 0.580498)
(10.1116 -1.4551e-22 0.510753)
(10.1826 2.28662e-21 0.681727)
(10.1587 -4.24998e-21 0.608085)
(10.2406 4.54449e-21 0.783124)
(10.2138 4.44738e-21 0.705284)
(10.3063 2.18191e-21 0.884945)
(10.2765 2.0064e-22 0.802607)
(10.38 -7.12501e-21 0.987378)
(10.347 4.31913e-21 0.900252)
(10.4616 -2.15194e-21 1.09054)
(10.4252 -9.25979e-21 0.998356)
(10.5513 8.01553e-21 1.19446)
(10.5114 2.57489e-21 1.09698)
(10.6492 -5.95072e-21 1.29903)
(10.6054 3.36837e-21 1.1961)
(10.7555 -3.25731e-21 1.40397)
(10.7075 -9.26657e-21 1.29553)
(10.8702 8.9771e-21 1.50882)
(10.8176 1.57129e-21 1.39492)
(10.9932 -6.72481e-21 1.61285)
(10.9358 4.54035e-21 1.49372)
(11.1245 -4.20174e-21 1.71512)
(11.0618 -4.71432e-21 1.59115)
(11.2639 2.55617e-22 1.81448)
(11.1956 5.53344e-21 1.6862)
(11.411 -1.85928e-21 1.90958)
(11.3367 -4.15342e-21 1.7777)
(11.5653 3.09009e-21 1.99898)
(11.4848 -5.0881e-22 1.86432)
(11.6392 7.2867e-21 1.94469)
(10.0102 2.24424e-21 0.156659)
(10.0006 -7.8589e-21 0.101924)
(10.0296 3.96392e-21 0.255052)
(10.0161 6.23515e-21 0.198144)
(10.0577 -4.18589e-21 0.350844)
(10.0422 -2.10838e-21 0.290944)
(10.094 9.39527e-23 0.445293)
(10.0755 -4.11105e-21 0.382013)
(10.1383 -2.23227e-21 0.538965)
(10.1162 2.1741e-21 0.472044)
(10.1904 -2.03731e-21 0.632204)
(10.165 -2.802e-22 0.561403)
(10.2502 -2.56664e-24 0.72527)
(10.2217 -1.94716e-21 0.650351)
(10.3178 2.39197e-21 0.81836)
(10.286 -6.28602e-21 0.739091)
(10.393 2.13376e-21 0.911619)
(10.3579 8.71828e-21 0.827774)
(10.4758 -4.4222e-21 1.00513)
(10.4374 -4.33346e-21 0.9165)
(10.5664 -2.18491e-21 1.09889)
(10.5243 -4.22205e-21 1.00531)
(10.6648 -2.57606e-23 1.1928)
(10.6188 7.22487e-21 1.09416)
(10.7708 -4.32559e-21 1.2866)
(10.7207 -4.17996e-21 1.18288)
(10.8845 -2.97542e-21 1.37987)
(10.83 -5.35467e-21 1.27117)
(11.0058 6.60161e-21 1.47196)
(10.9465 6.18176e-21 1.35853)
(11.1344 5.25571e-21 1.56204)
(11.0701 3.90137e-22 1.44426)
(11.27 1.01813e-21 1.64909)
(11.2004 0 1.5275)
(11.4122 -2.76853e-21 1.73194)
(11.3371 4.66981e-21 1.60722)
(11.5605 3.79136e-21 1.80933)
(11.4797 -3.50198e-21 1.68226)
(11.6275 3.86702e-21 1.75144)
(10.0106 -3.76653e-21 0.144286)
(10.0008 7.34128e-22 0.0933079)
(10.0308 0 0.234805)
(10.0168 9.24402e-22 0.181343)
(10.06 -2.03268e-21 0.322788)
(10.0437 -1.88984e-21 0.266136)
(10.0975 -1.98305e-21 0.409359)
(10.0781 -3.9335e-21 0.349204)
(10.1432 4.17216e-21 0.495004)
(10.1201 3.89419e-21 0.43115)
(10.1968 -1.89174e-22 0.580003)
(10.1701 2.15596e-22 0.512273)
(10.258 -8.38379e-21 0.66456)
(10.228 -6.22703e-21 0.592779)
(10.3268 1.89017e-22 0.748828)
(10.2936 -4.22268e-21 0.672823)
(10.4031 2.09073e-21 0.832914)
(10.3664 4.31344e-21 0.75252)
(10.4867 -4.12722e-21 0.916875)
(10.4466 4.84991e-21 0.831941)
(10.5776 5.41446e-21 1.0007)
(10.5339 -2.15588e-21 0.911111)
(10.6757 2.97023e-21 1.08429)
(10.6282 3.3997e-21 0.989984)
(10.781 -5.23541e-21 1.16742)
(10.7294 -3.30475e-21 1.06842)
(10.8932 4.021e-21 1.24971)
(10.8373 2.77353e-21 1.14614)
(11.0121 -1.81951e-22 1.3306)
(10.9518 1.72613e-22 1.22271)
(11.1376 -4.99242e-21 1.40937)
(11.0725 -4.16225e-21 1.29755)
(11.2691 3.74075e-21 1.48513)
(11.1992 0 1.3699)
(11.4062 3.91849e-21 1.55687)
(11.3313 2.40846e-22 1.43886)
(11.5484 -3.42263e-21 1.62351)
(11.4683 3.4047e-21 1.50346)
(11.6097 -7.35241e-21 1.56267)
(10.011 5.52523e-21 0.131153)
(10.001 5.57808e-21 0.0841893)
(10.0318 -1.02363e-21 0.213351)
(10.0174 5.0915e-23 0.163579)
(10.0618 -3.83545e-21 0.293132)
(10.045 -1.90707e-21 0.239961)
(10.1004 2.08423e-21 0.37149)
(10.0802 -1.94805e-21 0.314683)
(10.1472 -1.5481e-22 0.448835)
(10.1232 2.15627e-21 0.388259)
(10.2019 -5.96705e-21 0.52539)
(10.1742 -2.12501e-21 0.460926)
(10.2642 -1.96484e-21 0.601311)
(10.2331 -3.86877e-21 0.532841)
(10.3338 0 0.676714)
(10.2994 7.65001e-21 0.60412)
(10.4107 7.14027e-21 0.751676)
(10.3729 -3.8737e-21 0.674848)
(10.4946 6.87093e-21 0.826236)
(10.4533 6.16954e-21 0.745075)
(10.5854 -4.21851e-21 0.90038)
(10.5405 -1.0494e-21 0.814815)
(10.6828 -3.02469e-21 0.974018)
(10.6342 -7.87687e-21 0.884027)
(10.7868 4.89894e-21 1.04695)
(10.7343 3.87938e-21 0.952587)
(10.8971 -1.16756e-21 1.11886)
(10.8406 3.92217e-21 1.02027)
(11.0135 -3.90204e-21 1.18928)
(10.9527 -4.99732e-21 1.0867)
(11.1355 9.53021e-22 1.25757)
(11.0704 9.76222e-22 1.15138)
(11.2628 -3.58426e-21 1.32298)
(11.1933 0 1.21368)
(11.3949 -2.84162e-22 1.38464)
(11.3208 -3.5835e-21 1.27283)
(11.5312 -6.22215e-22 1.44164)
(11.4525 3.63446e-21 1.32799)
(11.5877 -3.3525e-21 1.37831)
(10.0113 -5.26172e-23 0.117306)
(10.0012 1.74061e-21 0.0745941)
(10.0327 -8.66817e-22 0.190767)
(10.0179 -1.77975e-21 0.144905)
(10.0634 2.78383e-23 0.261991)
(10.0461 1.79364e-21 0.212505)
(10.1029 -1.87692e-21 0.331843)
(10.082 0 0.278574)
(10.1505 1.37253e-22 0.400657)
(10.1258 -1.87616e-21 0.343534)
(10.206 2.34511e-23 0.468603)
(10.1776 3.80287e-21 0.407563)
(10.269 5.97991e-21 0.535798)
(10.2371 -3.71307e-21 0.470774)
(10.3391 3.68172e-21 0.602326)
(10.3039 1.0631e-20 0.533252)
(10.4162 -4.86507e-21 0.668241)
(10.3776 -3.96712e-21 0.595055)
(10.5 -1.94106e-21 0.73357)
(10.458 -9.92303e-22 0.656219)
(10.5903 -4.79475e-21 0.798297)
(10.5448 -4.51069e-23 0.716752)
(10.6868 -8.06154e-22 0.862347)
(10.6377 -2.93712e-21 0.776618)
(10.7893 2.87817e-21 0.925558)
(10.7365 2.94834e-21 0.835717)
(10.8975 0 0.987659)
(10.8409 0 0.89386)
(11.011 0 1.04825)
(10.9506 0 0.950746)
(11.1296 0 1.10682)
(11.0652 0 1.00596)
(11.2527 0 1.16272)
(11.1843 -4.21888e-22 1.05895)
(11.3799 4.31962e-22 1.21522)
(11.3074 0 1.10911)
(11.5106 8.38548e-22 1.26354)
(11.434 4.31874e-22 1.15572)
(11.5635 4.16843e-22 1.19805)
(10.0115 -5.03986e-23 0.102778)
(10.0014 5.0606e-23 0.0645369)
(10.0334 9.46056e-22 0.167116)
(10.0184 -2.53128e-21 0.125355)
(10.0648 1.76401e-21 0.229463)
(10.047 2.65404e-21 0.183832)
(10.1049 0 0.29055)
(10.0836 1.70312e-21 0.240977)
(10.1532 1.87621e-21 0.350638)
(10.1279 0 0.297112)
(10.2092 -2.64402e-23 0.409849)
(10.1803 -7.29714e-22 0.352353)
(10.2726 1.05099e-21 0.468263)
(10.2402 -3.57652e-21 0.406774)
(10.3431 2.79561e-21 0.52594)
(10.3073 3.82036e-21 0.460435)
(10.4201 0 0.582917)
(10.381 7.09772e-21 0.513374)
(10.5036 9.5037e-22 0.63921)
(10.4612 8.00592e-22 0.565614)
(10.5931 1.85717e-21 0.694802)
(10.5473 -3.51172e-21 0.61716)
(10.6884 9.07329e-22 0.749635)
(10.6393 -3.42595e-21 0.667982)
(10.7892 0 0.803576)
(10.7366 3.54226e-21 0.718003)
(10.8952 0 0.856405)
(10.8391 0 0.767071)
(11.006 0 0.907798)
(10.9463 -3.33898e-21 0.814944)
(11.1212 -4.32154e-22 0.957322)
(11.0579 1.31995e-22 0.861282)
(11.2403 -4.21797e-22 1.00445)
(11.1735 3.73064e-21 0.905644)
(11.3629 0 1.04857)
(11.2925 -3.97398e-22 0.947511)
(11.4884 0 1.08904)
(11.4145 0 0.986304)
(11.5388 1.87412e-22 1.02142)
(10.0118 -2.49176e-21 0.0875789)
(10.0016 -8.32726e-22 0.0540109)
(10.0341 -7.74599e-22 0.142433)
(10.0189 7.2535e-22 0.104925)
(10.066 2.59127e-21 0.195616)
(10.0479 4.94252e-23 0.153974)
(10.1066 1.70245e-21 0.247712)
(10.085 -7.4229e-22 0.201966)
(10.1554 -2.66903e-21 0.298898)
(10.1299 0 0.249095)
(10.2119 -4.36813e-21 0.349247)
(10.1826 -3.51768e-21 0.295416)
(10.2755 -7.41222e-22 0.398815)
(10.2428 -1.76175e-21 0.340978)
(10.346 8.2257e-21 0.447641)
(10.3099 -1.55521e-21 0.385818)
(10.4229 7.9174e-21 0.49575)
(10.3836 1.07278e-20 0.429957)
(10.5058 -3.76879e-21 0.543151)
(10.4633 -3.4235e-21 0.473408)
(10.5945 -8.92269e-21 0.589835)
(10.5488 -1.10458e-21 0.516171)
(10.6885 -7.27175e-22 0.635754)
(10.6396 -1.53766e-21 0.558226)
(10.7876 3.54135e-21 0.680808)
(10.7355 -3.102e-21 0.599512)
(10.8914 -3.4203e-21 0.724821)
(10.8361 3.38319e-21 0.639914)
(10.9995 -3.20317e-21 0.767535)
(10.941 -3.01122e-21 0.679242)
(11.1115 4.39655e-21 0.808599)
(11.0498 3.29826e-21 0.717225)
(11.227 3.75517e-21 0.847583)
(11.1622 1.03129e-21 0.753512)
(11.3454 -3.97316e-22 0.883993)
(11.2775 2.61508e-21 0.787685)
(11.4662 1.91966e-22 0.917299)
(11.3953 -3.0803e-21 0.819278)
(11.515 2.66811e-21 0.847804)
(10.0121 2.47163e-21 0.0716847)
(10.0018 0 0.0429671)
(10.0349 1.56867e-21 0.116716)
(10.0195 1.6973e-21 0.0835514)
(10.0673 -3.36501e-21 0.160503)
(10.0491 -8.31219e-22 0.12293)
(10.1083 -2.4857e-21 0.203453)
(10.0866 -1.35819e-22 0.161596)
(10.1575 -8.70805e-22 0.245648)
(10.1319 -1.60834e-21 0.199569)
(10.2142 -8.49693e-22 0.287116)
(10.1849 2.3953e-21 0.236858)
(10.2779 -2.59679e-21 0.327882)
(10.2452 -1.65753e-21 0.273498)
(10.3483 1.00814e-21 0.367962)
(10.3124 -2.60434e-21 0.309511)
(10.4249 -8.90127e-22 0.407367)
(10.3858 3.54234e-21 0.344901)
(10.5072 -6.9382e-22 0.446097)
(10.465 -3.93464e-21 0.379672)
(10.5949 6.45942e-21 0.484144)
(10.5498 7.22431e-21 0.413823)
(10.6877 -3.97053e-21 0.521474)
(10.6396 -3.27617e-22 0.44734)
(10.7852 -3.2628e-21 0.558012)
(10.7341 -7.29702e-21 0.480179)
(10.8869 3.80054e-21 0.593625)
(10.8329 3.46473e-21 0.512255)
(10.9926 3.64822e-21 0.628114)
(10.9357 1.89574e-23 0.543424)
(11.1018 -1.49566e-22 0.661204)
(11.0421 2.85045e-21 0.573478)
(11.214 -1.35922e-22 0.692559)
(11.1515 -3.69553e-21 0.602148)
(11.3287 -1.34009e-22 0.721788)
(11.2636 3.47157e-21 0.629107)
(11.4454 -5.4371e-22 0.74847)
(11.3779 -3.15451e-21 0.653992)
(11.4937 5.29555e-21 0.676422)
(10.0125 -7.92513e-22 0.0550027)
(10.0021 -3.68446e-22 0.0312526)
(10.036 -7.61391e-22 0.0898789)
(10.0204 -1.16562e-21 0.061059)
(10.0688 2.4754e-21 0.123975)
(10.0506 7.65539e-24 0.0906295)
(10.1103 7.61829e-22 0.157463)
(10.0886 1.69516e-21 0.119843)
(10.1598 1.73656e-21 0.190361)
(10.1342 -2.03837e-21 0.148525)
(10.2167 1.56709e-21 0.22269)
(10.1874 2.94974e-21 0.176687)
(10.2805 -1.6649e-21 0.254466)
(10.2479 -2.09502e-21 0.20436)
(10.3507 -7.73356e-24 0.28569)
(10.3149 1.17473e-21 0.231542)
(10.4269 4.22087e-22 0.316359)
(10.3881 -3.36602e-23 0.258225)
(10.5086 4.17601e-21 0.34647)
(10.4669 -3.18518e-21 0.284405)
(10.5954 2.71565e-22 0.376013)
(10.551 5.78195e-21 0.31008)
(10.687 -3.73563e-21 0.404963)
(10.6398 -3.00325e-21 0.335241)
(10.783 -4.05031e-22 0.433263)
(10.7331 -1.97938e-23 0.35986)
(10.8829 -4.08808e-22 0.460814)
(10.8305 1.33907e-21 0.383876)
(10.9865 -7.97311e-22 0.487464)
(10.9315 -2.16649e-21 0.407187)
(11.0931 -7.82865e-22 0.513006)
(11.0357 -1.50353e-21 0.429641)
(11.2025 4.69362e-25 0.537182)
(11.1428 9.36258e-22 0.451042)
(11.3141 3.75908e-22 0.559693)
(11.2522 5.66261e-22 0.47115)
(11.4275 2.8271e-21 0.580216)
(11.3635 -2.76605e-21 0.489695)
(11.4761 5.8213e-21 0.506395)
(10.0134 -7.4635e-22 0.0374124)
(10.003 -7.36135e-22 0.0183794)
(10.0376 -3.6765e-22 0.0623275)
(10.0227 -3.81376e-22 0.0373462)
(10.0708 -7.9284e-22 0.0870792)
(10.0538 1.48331e-21 0.0571751)
(10.1126 -1.17398e-21 0.111395)
(10.0921 -7.89957e-22 0.0767818)
(10.1623 -7.95609e-22 0.135224)
(10.1378 -7.74262e-22 0.0960076)
(10.2193 -8.01951e-22 0.158602)
(10.1911 7.56806e-22 0.114929)
(10.2831 8.12221e-22 0.181544)
(10.2515 -1.76682e-23 0.133557)
(10.3532 1.14631e-21 0.204045)
(10.3185 1.0124e-21 0.151867)
(10.429 -3.72937e-21 0.226099)
(10.3914 -1.57569e-21 0.169837)
(10.5103 -1.53824e-21 0.247707)
(10.4697 -2.12007e-21 0.18746)
(10.5964 2.42819e-21 0.26887)
(10.5532 2.06851e-21 0.204737)
(10.687 8.04712e-22 0.289574)
(10.6412 -1.11322e-21 0.22166)
(10.7818 1.76755e-21 0.309788)
(10.7335 1.96023e-21 0.238213)
(10.8802 -4.61924e-22 0.329447)
(10.8296 7.141e-23 0.254358)
(10.982 -2.88868e-21 0.348449)
(10.9291 -9.05416e-23 0.270026)
(11.0867 2.58738e-22 0.366654)
(11.0317 -1.13105e-21 0.28512)
(11.1938 1.51559e-21 0.383881)
(11.1369 1.45346e-21 0.299506)
(11.3029 -2.65207e-21 0.39992)
(11.2442 9.63872e-23 0.313025)
(11.4135 3.03752e-22 0.414543)
(11.3532 -2.83263e-21 0.325495)
(11.4633 4.37509e-21 0.336725)
(10.0167 -3.5773e-22 0.0168504)
(9.99795 -2.64954e-23 0.00196227)
(10.0417 1.52422e-21 0.0307349)
(10.0138 -1.73829e-22 0.0122357)
(10.0753 1.48327e-21 0.0453396)
(10.0395 9.77741e-22 0.0225348)
(10.1173 -3.85419e-22 0.059897)
(10.0718 -3.66324e-22 0.0324121)
(10.1671 8.12758e-22 0.0742741)
(10.1116 -3.79637e-22 0.04211)
(10.2241 1.55738e-21 0.0884766)
(10.1591 1.19328e-21 0.0517234)
(10.2877 1.87562e-22 0.102483)
(10.2139 7.78047e-22 0.0612318)
(10.3575 -1.77468e-21 0.116258)
(10.2754 -3.90042e-22 0.0706005)
(10.433 7.23037e-23 0.129781)
(10.343 -1.57841e-21 0.0798123)
(10.5136 1.57452e-21 0.143041)
(10.4162 1.23793e-21 0.0888628)
(10.5991 -1.55916e-21 0.156034)
(10.4947 3.83272e-22 0.0977515)
(10.6888 7.09047e-23 0.168749)
(10.5779 -1.92988e-21 0.106476)
(10.7825 2.22487e-22 0.181163)
(10.6655 1.97136e-21 0.115029)
(10.8797 4.51244e-22 0.193236)
(10.757 -9.67961e-22 0.123389)
(10.9801 1.70892e-21 0.204903)
(10.8522 1.37924e-21 0.131521)
(11.0832 9.30992e-23 0.216078)
(10.9505 -3.52337e-22 0.139374)
(11.1885 -1.86701e-25 0.226648)
(11.0515 5.40855e-22 0.146874)
(11.2957 -8.88753e-23 0.236484)
(11.1549 -1.7715e-22 0.153937)
(11.4043 1.33953e-21 0.245446)
(11.2601 0 0.160466)
(11.3666 1.33927e-21 0.166357)
(10.002 1.66644e-22 0.00264019)
(10.0138 -7.38073e-22 0.00644396)
(10.0352 -9.18103e-22 0.0108452)
(10.0651 -3.61568e-22 0.0153674)
(10.1031 9.6403e-24 0.0199307)
(10.1487 3.94974e-22 0.0245275)
(10.2013 1.85748e-22 0.0291368)
(10.2605 -1.89764e-22 0.0337357)
(10.3258 -3.84211e-22 0.0383105)
(10.3968 1.76207e-23 0.0428552)
(10.473 2.98248e-24 0.047367)
(10.554 1.73573e-23 0.0518419)
(10.6394 7.51463e-22 0.0562709)
(10.7289 -1.69233e-23 0.060637)
(10.8219 -7.32123e-22 0.0649132)
(10.9182 1.0678e-22 0.0690615)
(11.0172 3.59427e-22 0.0730338)
(11.1185 -8.6409e-23 0.0767741)
(11.2216 0 0.080222)
)
;

boundaryField
{
    inlet
    {
        type            calculated;
        value           nonuniform List<vector> 
30
(
(10 0 0)
(10 0 0)
(10 0 0)
(10 0 0)
(10 0 0)
(10 0 0)
(10 0 0)
(10 0 0)
(10 0 0)
(10 0 0)
(10 0 0)
(10 0 0)
(10 0 0)
(10 0 0)
(10 0 0)
(10 0 0)
(10 0 0)
(10 0 0)
(10 0 0)
(10 0 0)
(10 0 0)
(10 0 0)
(10 0 0)
(10 0 0)
(10 0 0)
(10 0 0)
(10 0 0)
(10 0 0)
(10 0 0)
(10 0 0)
)
;
    }
    outlet
    {
        type            calculated;
        value           nonuniform 0();
    }
    flap
    {
        type            calculated;
        value           nonuniform 0();
    }
    upperWall
    {
        type            calculated;
        value           uniform (0 0 0);
    }
    lowerWall
    {
        type            calculated;
        value           nonuniform 0();
    }
    frontAndBack
    {
        type            empty;
        value           nonuniform 0();
    }
    procBoundary0to1
    {
        type            processor;
        value           nonuniform List<vector> 
18
(
(11.7979 1.14214e-21 3.30602)
(11.8532 -4.67387e-21 3.06626)
(11.7683 -4.96872e-21 2.8877)
(11.6954 -1.33994e-20 2.71295)
(11.7194 -4.87433e-21 2.4983)
(11.7288 -3.62413e-21 2.28746)
(11.7262 3.58954e-21 2.0812)
(11.7141 7.72656e-21 1.87997)
(11.695 -7.56231e-21 1.68393)
(11.6709 -7.47646e-21 1.49302)
(11.644 1.20245e-21 1.30689)
(11.6161 2.40278e-21 1.12519)
(11.5888 3.07899e-21 0.946963)
(11.5636 2.81685e-21 0.772178)
(11.5419 -1.25028e-22 0.598425)
(11.5251 2.99462e-21 0.427517)
(11.5137 2.6736e-21 0.253391)
(11.3259 0 0.0833161)
)
;
    }
    procBoundary0to3
    {
        type            processor;
        value           nonuniform List<vector> 
34
(
(9.99129 -1.67091e-20 0.130725)
(9.97947 -9.39796e-21 0.255531)
(9.97126 9.02849e-21 0.324296)
(9.96278 2.62605e-20 0.393322)
(9.95102 8.29204e-21 0.46698)
(9.94283 -1.77048e-20 0.540234)
(9.93227 -9.3258e-21 0.618886)
(9.92567 -3.25062e-23 0.696325)
(9.91909 7.95669e-22 0.779685)
(9.9164 7.87506e-22 0.860894)
(9.91558 1.05426e-21 0.948372)
(9.91899 4.54355e-21 1.03261)
(9.92578 2.94484e-21 1.12327)
(9.9372 2.85812e-21 1.20944)
(9.92727 -2.28379e-21 1.38594)
(9.94981 -2.20368e-21 1.48348)
(9.97759 -7.08926e-21 1.57415)
(10.0129 -1.71875e-21 1.67105)
(10.0532 2.15524e-21 1.75945)
(10.0784 -4.20267e-21 1.96487)
(10.1382 3.90344e-21 2.06164)
(10.2018 7.57365e-21 2.14685)
(10.2579 -1.72561e-21 2.36939)
(10.346 -7.31345e-21 2.45815)
(10.4354 -1.05427e-20 2.53224)
(10.5384 -1.21643e-20 2.60571)
(10.6399 -3.10309e-22 2.66356)