/*--------------------------------*- C++ -*----------------------------------*\
| =========                 |                                                 |
| \\      /  F ield         | OpenFOAM: The Open Source CFD Toolbox           |
|  \\    /   O peration     | Version:  dev                                   |
|   \\  /    A nd           | Web:      www.OpenFOAM.org                      |
|    \\/     M anipulation  |                                                 |
\*---------------------------------------------------------------------------*/
FoamFile
{
    version     2.0;
    format      ascii;
    class       volVectorField;
    location    "1";
    object      cellDisplacement;
}
// * * * * * * * * * * * * * * * * * * * * * * * * * * * * * * * * * * * * * //

dimensions      [0 1 0 0 0 0 0];

internalField   nonuniform List<vector> 
465
(
(0.0113286 0 -0.0009308)
(0.0324764 0 -0.00267683)
(0.0114665 0 -0.000985472)
(0.0328911 0 -0.00283583)
(0.0515588 0 -0.00448009)
(0.0116081 0 -0.00103941)
(0.0333151 0 -0.00299271)
(0.0522648 0 -0.00473135)
(0.0688162 0 -0.00630087)
(0.0117513 0 -0.00109213)
(0.0337433 0 -0.0031462)
(0.0529768 0 -0.00497746)
(0.0698219 0 -0.00663423)
(0.0846395 0 -0.00815797)
(0.0118955 0 -0.00114349)
(0.0341732 0 -0.0032958)
(0.0536894 0 -0.00521748)
(0.0708279 0 -0.00695966)
(0.0859619 0 -0.008567)
(0.0993936 0 -0.0100723)
(0.0120376 0 -0.00119266)
(0.0345978 0 -0.00343934)
(0.0543892 0 -0.00544786)
(0.0718187 0 -0.00727355)
(0.0872677 0 -0.00896241)
(0.101027 0 -0.0105482)
(0.113357 0 -0.0120564)
(0.0121756 0 -0.00123906)
(0.0350134 0 -0.00357532)
(0.0550907 0 -0.00566822)
(0.0727972 0 -0.0075731)
(0.0885401 0 -0.00933946)
(0.102622 0 -0.0110034)
(0.115278 0 -0.012589)
(0.126761 0 -0.0141212)
(0.137294 0 -0.0156213)
(0.0123083 0 -0.00128232)
(0.0354145 0 -0.00370244)
(0.0557667 0 -0.00587444)
(0.0737495 0 -0.00785438)
(0.0897807 0 -0.00969523)
(0.10416 0 -0.0114321)
(0.117121 0 -0.0130903)
(0.128918 0 -0.0146957)
(0.139797 0 -0.0162753)
(0.149953 0 -0.0178481)
(0.0124344 0 -0.00132198)
(0.0357957 0 -0.00381918)
(0.0564107 0 -0.00606438)
(0.0746708 0 -0.00811554)
(0.0909724 0 -0.0100246)
(0.105619 0 -0.0118275)
(0.118861 0 -0.0135524)
(0.130966 0 -0.0152288)
(0.142158 0 -0.0168807)
(0.152597 0 -0.018522)
(0.162446 0 -0.0201683)
(0.171866 0 -0.0218378)
(0.0125514 0 -0.00135729)
(0.0361486 0 -0.00392328)
(0.0570077 0 -0.00623416)
(0.0755209 0 -0.00834894)
(0.0920726 0 -0.0103189)
(0.106973 0 -0.0121821)
(0.120486 0 -0.013969)
(0.132861 0 -0.0157078)
(0.144304 0 -0.017419)
(0.154986 0 -0.0191194)
(0.165065 0 -0.0208248)
(0.174686 0 -0.0225501)
(0.183967 0 -0.0243076)
(0.193009 0 -0.0261081)
(0.0126536 0 -0.00138691)
(0.0364596 0 -0.00401112)
(0.0575373 0 -0.00637816)
(0.0762771 0 -0.00854756)
(0.0930566 0 -0.0105705)
(0.108188 0 -0.0124862)
(0.121937 0 -0.0143258)
(0.13454 0 -0.0161159)
(0.146197 0 -0.017877)
(0.15708 0 -0.0196262)
(0.167338 0 -0.0213785)
(0.177106 0 -0.0231469)
(0.186495 0 -0.0249427)
(0.195598 0 -0.0267751)
(0.204489 0 -0.0286523)
(0.0127373 0 -0.00140984)
(0.036719 0 -0.0040799)
(0.0579855 0 -0.00649203)
(0.0769229 0 -0.00870581)
(0.0939034 0 -0.0107723)
(0.109237 0 -0.0127312)
(0.123188 0 -0.0146136)
(0.135984 0 -0.016445)
(0.147819 0 -0.0182459)
(0.15886 0 -0.0200328)
(0.169251 0 -0.0218197)
(0.179118 0 -0.0236184)
(0.188564 0 -0.0254385)
(0.197674 0 -0.0272878)
(0.206514 0 -0.0291722)
(0.215134 0 -0.0310956)
(0.223561 0 -0.0330596)
(0.0128008 0 -0.0014254)
(0.0369213 0 -0.00412756)
(0.0583441 0 -0.00657254)
(0.0774485 0 -0.00881945)
(0.0946009 0 -0.010919)
(0.110107 0 -0.0129107)
(0.124227 0 -0.0148253)
(0.13718 0 -0.0166876)
(0.149156 0 -0.0185173)
(0.160316 0 -0.0203303)
(0.170797 0 -0.0221395)
(0.180719 0 -0.0239555)
(0.190177 0 -0.0257865)
(0.19925 0 -0.0276384)
(0.207997 0 -0.0295155)
(0.216462 0 -0.0314196)
(0.224672 0 -0.0333511)
(0.232633 0 -0.0353068)
(0.240331 0 -0.0372796)
(0.0128427 0 -0.00143292)
(0.0370625 0 -0.00415215)
(0.058607 0 -0.00661658)
(0.0778466 0 -0.00888431)
(0.09514 0 -0.0110053)
(0.110788 0 -0.0130185)
(0.125043 0 -0.0149541)
(0.13812 0 -0.0168361)
(0.150201 0 -0.0186831)
(0.161442 0 -0.0205103)
(0.171975 0 -0.0223296)
(0.181912 0 -0.0241502)
(0.191344 0 -0.025979)
(0.200343 0 -0.0278203)
(0.208966 0 -0.0296772)
(0.217248 0 -0.0315489)
(0.225225 0 -0.0334369)
(0.232902 0 -0.0353368)
(0.240253 0 -0.037237)
(0.247267 0 -0.0391302)
(0.25392 0 -0.0410067)
(0.0128623 0 -0.0014318)
(0.03714 0 -0.00415185)
(0.0587701 0 -0.00662116)
(0.0781118 0 -0.00889636)
(0.0955146 0 -0.0110263)
(0.111272 0 -0.0130488)
(0.125631 0 -0.0149936)
(0.1388 0 -0.0168833)
(0.150953 0 -0.0187359)
(0.16224 0 -0.0205651)
(0.172791 0 -0.0223822)
(0.182709 0 -0.0241949)
(0.192084 0 -0.0260094)
(0.200979 0 -0.0278274)
(0.20946 0 -0.0296537)
(0.217563 0 -0.0314871)
(0.225293 0 -0.0333215)
(0.232666 0 -0.0351528)
(0.239673 0 -0.0369731)
(0.246306 0 -0.0387739)
(0.252548 0 -0.0405455)
(0.012859 0 -0.00142145)
(0.0371525 0 -0.00412491)
(0.0588317 0 -0.00658349)
(0.0782421 0 -0.00885178)
(0.0957221 0 -0.010977)
(0.111557 0 -0.0129958)
(0.12599 0 -0.0149372)
(0.139221 0 -0.0168227)
(0.151415 0 -0.0186684)
(0.162717 0 -0.0204872)
(0.173256 0 -0.0222902)
(0.183125 0 -0.0240824)
(0.192424 0 -0.0258716)
(0.201216 0 -0.02766)
(0.209535 0 -0.0294445)
(0.217423 0 -0.0312249)
(0.224898 0 -0.0329966)
(0.231974 0 -0.0347542)
(0.238652 0 -0.0364903)
(0.244926 0 -0.0381967)
(0.0128331 0 -0.00140134)
(0.0371005 0 -0.00406975)
(0.0587922 0 -0.00650092)
(0.0782383 0 -0.00874697)
(0.095764 0 -0.010853)
(0.111644 0 -0.0128541)
(0.126122 0 -0.0147791)
(0.13939 0 -0.0166478)
(0.1516 0 -0.0184742)
(0.162885 0 -0.0202693)
(0.173391 0 -0.0220463)
(0.183212 0 -0.0238108)
(0.192413 0 -0.0255632)
(0.20106 0 -0.0273066)
(0.2092 0 -0.0290392)
(0.21687 0 -0.0307588)
(0.224093 0 -0.032461)
(0.230883 0 -0.0341401)
(0.237249 0 -0.0357894)
(0.243191 0 -0.0374011)
(0.0127851 0 -0.00137098)
(0.0369856 0 -0.00398491)
(0.0586546 0 -0.00637107)
(0.078105 0 -0.00857866)
(0.0956469 0 -0.0106503)
(0.111537 0 -0.0126181)
(0.126034 0 -0.0145121)
(0.139322 0 -0.0163515)
(0.151527 0 -0.0181464)
(0.162792 0 -0.0199087)
(0.173241 0 -0.0216472)
(0.182971 0 -0.0233682)
(0.192051 0 -0.0250728)
(0.200545 0 -0.0267617)
(0.208499 0 -0.0284334)
(0.215952 0 -0.0300849)
(0.222928 0 -0.0317118)
(0.229448 0 -0.0333086)
(0.235521 0 -0.034869)
(0.241155 0 -0.0363858)
(0.0127169 0 -0.00132986)
(0.0368119 0 -0.00386865)
(0.0584245 0 -0.00619096)
(0.0778499 0 -0.00834284)
(0.0953854 0 -0.0103644)
(0.111285 0 -0.0122868)
(0.125774 0 -0.014135)
(0.139035 0 -0.0159281)
(0.151208 0 -0.0176774)
(0.162425 0 -0.0193929)
(0.1728 0 -0.0210817)
(0.182426 0 -0.0227483)
(0.191376 0 -0.0243943)
(0.19971 0 -0.0260194)
(0.207478 0 -0.0276219)
(0.214718 0 -0.0291985)
(0.221458 0 -0.0307449)
(0.227721 0 -0.0322559)
(0.233522 0 -0.0337256)
(0.238873 0 -0.0351477)
(0.0126304 0 -0.0012776)
(0.0365842 0 -0.00371975)
(0.0581086 0 -0.00595843)
(0.0774809 0 -0.0080363)
(0.0949842 0 -0.00999072)
(0.110861 0 -0.0118507)
(0.125323 0 -0.0136389)
(0.138542 0 -0.0153721)
(0.150664 0 -0.0170619)
(0.161814 0 -0.018717)
(0.172101 0 -0.0203434)
(0.181614 0 -0.0219444)
(0.190427 0 -0.0235212)
(0.198601 0 -0.0250733)
(0.206185 0 -0.0265985)
(0.213219 0 -0.0280937)
(0.219735 0 -0.0295545)
(0.225759 0 -0.0309763)
(0.231308 0 -0.0323535)
(0.236401 0 -0.0336806)
(0.0125269 0 -0.00121394)
(0.0363079 0 -0.00353755)
(0.057716 0 -0.00567229)
(0.0770098 0 -0.00765719)
(0.0944569 0 -0.00952656)
(0.110288 0 -0.011307)
(0.124702 0 -0.0130189)
(0.137866 0 -0.0146774)
(0.149922 0 -0.0162934)
(0.160992 0 -0.0178744)
(0.171181 0 -0.0194254)
(0.180576 0 -0.0209491)
(0.18925 0 -0.0224462)
(0.197264 0 -0.0239158)
(0.20467 0 -0.0253557)
(0.211509 0 -0.0267627)
(0.217815 0 -0.0281328)
(0.223615 0 -0.0294616)
(0.228934 0 -0.0307442)
(0.233791 0 -0.0319756)
(0.0124094 0 -0.00113861)
(0.0359907 0 -0.00332106)
(0.0572584 0 -0.00533074)
(0.0764518 0 -0.00720284)
(0.0938226 0 -0.00896839)
(0.109589 0 -0.0106514)
(0.12394 0 -0.0122701)
(0.137036 0 -0.0138382)
(0.149016 0 -0.0153652)
(0.159997 0 -0.0168579)
(0.170081 0 -0.0183203)
(0.179355 0 -0.0197546)
(0.187892 0 -0.0211609)
(0.195752 0 -0.0225383)
(0.202988 0 -0.0238844)
(0.209642 0 -0.0251961)
(0.215752 0 -0.0264698)
(0.221349 0 -0.0277014)
(0.226457 0 -0.0288865)
(0.231101 0 -0.0300208)
(0.0122811 0 -0.00105135)
(0.0356418 0 -0.00306939)
(0.0567501 0 -0.00493213)
(0.0758258 0 -0.00667076)
(0.0931044 0 -0.00831286)
(0.108792 0 -0.00987979)
(0.123068 0 -0.0113877)
(0.136087 0 -0.0128485)
(0.147983 0 -0.0142708)
(0.158871 0 -0.0156602)
(0.168849 0 -0.0170201)
(0.178003 0 -0.018352)
(0.186406 0 -0.0196558)
(0.194119 0 -0.0209305)
(0.201195 0 -0.0221736)
(0.207679 0 -0.0233823)
(0.213609 0 -0.0245531)
(0.219019 0 -0.0256823)
(0.223937 0 -0.0267661)
(0.228389 0 -0.0278008)
(0.0121459 0 -0.000951918)
(0.0352724 0 -0.00278175)
(0.0562082 0 -0.00447494)
(0.0751541 0 -0.0060586)
(0.0923296 0 -0.00755677)
(0.107929 0 -0.00898804)
(0.122123 0 -0.0103665)
(0.135059 0 -0.0117024)
(0.146868 0 -0.013003)
(0.157661 0 -0.0142732)
(0.167534 0 -0.0155156)
(0.176573 0 -0.0167313)
(0.184848 0 -0.0179201)
(0.192424 0 -0.0190805)
(0.199352 0 -0.0202104)
(0.20568 0 -0.021307)
(0.211448 0 -0.0223673)
(0.21669 0 -0.0233878)
(0.221438 0 -0.0243653)
(0.225719 0 -0.0252963)
(0.0120083 0 -0.00084013)
(0.034895 0 -0.00245744)
(0.0556525 0 -0.0039578)
(0.0744627 0 -0.00536416)
(0.0915297 0 -0.00669697)
(0.107036 0 -0.00797203)
(0.121145 0 -0.00920126)
(0.133997 0 -0.0103934)
(0.145719 0 -0.0115544)
(0.156419 0 -0.0126882)
(0.166193 0 -0.013797)
(0.175123 0 -0.0148814)
(0.183281 0 -0.015941)
(0.190731 0 -0.0169743)
(0.197525 0 -0.0179793)
(0.203714 0 -0.0189534)
(0.209336 0 -0.0198939)
(0.214431 0 -0.0207978)
(0.219029 0 -0.0216621)
(0.223161 0 -0.022484)
(0.0118733 0 -0.000715809)
(0.0345244 0 -0.00209584)
(0.0551057 0 -0.00337941)
(0.0737812 0 -0.00458533)
(0.0907403 0 -0.00573041)
(0.106155 0 -0.00682762)
(0.12018 0 -0.00788673)
(0.132951 0 -0.00891484)
(0.14459 0 -0.00991684)
(0.155204 0 -0.0108958)
(0.164886 0 -0.0118532)
(0.173717 0 -0.0127895)
(0.181771 0 -0.0137041)
(0.189109 0 -0.0145956)
(0.195786 0 -0.0154621)
(0.201852 0 -0.0163014)
(0.207349 0 -0.0171109)
(0.212315 0 -0.017888)
(0.216785 0 -0.0186303)
(0.220788 0 -0.0193353)
(0.011747 0 -0.000578814)
(0.0341773 0 -0.00169639)
(0.054594 0 -0.00273861)
(0.0731438 0 -0.00372015)
(0.0900023 0 -0.00465412)
(0.105332 0 -0.00555067)
(0.119279 0 -0.00641743)
(0.131977 0 -0.00725989)
(0.143542 0 -0.0080818)
(0.154079 0 -0.00888544)
(0.16368 0 -0.00967189)
(0.172427 0 -0.0104413)
(0.18039 0 -0.0111929)
(0.187633 0 -0.0119256)
(0.194211 0 -0.0126377)
(0.200175 0 -0.0133271)
(0.205566 0 -0.0139919)
(0.210426 0 -0.0146297)
(0.214788 0 -0.0152385)
(0.218684 0 -0.0158163)
(0.0116362 0 -0.000429035)
(0.0338736 0 -0.00125865)
(0.0541478 0 -0.00203441)
(0.0725894 0 -0.00276681)
(0.0893615 0 -0.00346529)
(0.104618 0 -0.00413714)
(0.1185 0 -0.00478784)
(0.131136 0 -0.00542131)
(0.14264 0 -0.00604019)
(0.153114 0 -0.00664604)
(0.16265 0 -0.00723953)
(0.171327 0 -0.00782062)
(0.179218 0 -0.00838872)
(0.186385 0 -0.00894276)
(0.192885 0 -0.00948139)
(0.198767 0 -0.010003)
(0.204075 0 -0.010506)
(0.20885 0 -0.0109886)
(0.213128 0 -0.0114492)
(0.216941 0 -0.0118862)
(0.0115495 0 -0.000266412)
(0.0336374 0 -0.000782323)
(0.0538032 0 -0.001266)
(0.0721634 0 -0.00172379)
(0.088871 0 -0.00216137)
(0.104073 0 -0.00258319)
(0.117907 0 -0.00299255)
(0.130497 0 -0.00339182)
(0.141956 0 -0.00378255)
(0.152385 0 -0.00416565)
(0.161873 0 -0.00454147)
(0.170502 0 -0.00490989)
(0.178341 0 -0.00527048)
(0.185454 0 -0.00562248)
(0.191898 0 -0.00596499)
(0.197723 0 -0.00629693)
(0.202973 0 -0.00661717)
(0.207689 0 -0.00692459)
(0.211907 0 -0.00721806)
(0.215661 0 -0.00749656)
(0.0114985 0 -9.09679e-05)
(0.0334996 0 -0.000267325)
(0.0536047 0 -0.000432984)
(0.0719198 0 -0.000590061)
(0.0885919 0 -0.000740472)
(0.103765 0 -0.000885706)
(0.117572 0 -0.00102688)
(0.130137 0 -0.00116477)
(0.141572 0 -0.00129992)
(0.151976 0 -0.0014326)
(0.161439 0 -0.00156292)
(0.170041 0 -0.00169083)
(0.177853 0 -0.00181614)
(0.184938 0 -0.00193859)
(0.191352 0 -0.00205784)
(0.197146 0 -0.0021735)
(0.202365 0 -0.00228516)
(0.20705 0 -0.00239241)
(0.211237 0 -0.00249485)
(0.214959 0 -0.00259211)
)
;

boundaryField
{
    inlet
    {
        type            cellMotion;
        value           uniform (0 0 0);
    }
    outlet
    {
        type            cellMotion;
        value           nonuniform 0();
    }
    flap
    {
        type            cellMotion;
        value           nonuniform 0();
    }
    upperWall
    {
        type            slip;
    }
    lowerWall
    {
        type            slip;
    }
    frontAndBack
    {
        type            empty;
    }
    procBoundary0to1
    {
        type            processor;
        value           nonuniform List<vector> 
18
(
(0.260186 0 -0.0428554)
(0.258381 0 -0.0422779)
(0.250791 0 -0.0398652)
(0.250791 0 -0.0398652)
(0.248709 0 -0.0389679)
(0.246357 0 -0.037853)
(0.243788 0 -0.0365169)
(0.241054 0 -0.0349534)
(0.238208 0 -0.0331526)
(0.235305 0 -0.0311018)
(0.232404 0 -0.0287843)
(0.229566 0 -0.0261796)
(0.22686 0 -0.0232623)
(0.224361 0 -0.0200022)
(0.222153 0 -0.0163624)
(0.220327 0 -0.0122991)
(0.21899 0 -0.0077597)
(0.218257 0 -0.002684)
)
;
    }
    procBoundary0to3
    {
        type            processor;
        value           nonuniform List<vector> 
34
(
(0.0111973 0 -0.000876189)
(0.0320781 0 -0.00251788)
(0.0508671 0 -0.00422586)
(0.0508671 0 -0.00422586)
(0.0678211 0 -0.00596142)
(0.0678211 0 -0.00596142)
(0.0833169 0 -0.0077396)
(0.0833169 0 -0.0077396)
(0.0977429 0 -0.00958161)
(0.0977429 0 -0.00958161)
(0.111384 0 -0.0115002)
(0.111384 0 -0.0115002)
(0.124504 0 -0.0135108)
(0.124504 0 -0.0135108)
(0.134682 0 -0.0149296)
(0.147109 0 -0.0171143)
(0.147109 0 -0.0171143)
(0.159516 0 -0.019423)
(0.159516 0 -0.019423)
(0.168666 0 -0.0210207)
(0.180984 0 -0.023543)
(0.180984 0 -0.023543)
(0.189905 0 -0.0252956)
(0.201899 0 -0.0279621)
(0.201899 0 -0.0279621)
(0.213225 0 -0.0305806)
(0.213225 0 -0.0305806)
(0.221843 0 -0.0325639)
(0.231805 0 -0.035063)
(0.231805 0 -0.035063)
(0.239854 0 -0.0371011)
(0.247743 0 -0.0392615)
(0.247743 0 -0.0392615)
(0.254838 0 -0.0412423)
)
;
    }
}


// ************************************************************************* //
