/*--------------------------------*- C++ -*----------------------------------*\
| =========                 |                                                 |
| \\      /  F ield         | OpenFOAM: The Open Source CFD Toolbox           |
|  \\    /   O peration     | Version:  dev                                   |
|   \\  /    A nd           | Web:      www.OpenFOAM.org                      |
|    \\/     M anipulation  |                                                 |
\*---------------------------------------------------------------------------*/
FoamFile
{
    version     2.0;
    format      ascii;
    class       volVectorField;
    location    "1";
    object      cellDisplacement;
}
// * * * * * * * * * * * * * * * * * * * * * * * * * * * * * * * * * * * * * //

dimensions      [0 1 0 0 0 0 0];

internalField   nonuniform List<vector> 
465
(
(0.0130908 0 -0.00104195)
(0.0375034 0 -0.00299532)
(0.0132412 0 -0.00110285)
(0.0379528 0 -0.00317203)
(0.0594168 0 -0.00500833)
(0.013395 0 -0.00116271)
(0.0384139 0 -0.00334607)
(0.0601863 0 -0.00528694)
(0.0791292 0 -0.0070377)
(0.0135517 0 -0.0012214)
(0.0388844 0 -0.00351697)
(0.0609728 0 -0.00556111)
(0.0802386 0 -0.00740871)
(0.0971496 0 -0.00911133)
(0.0137107 0 -0.00127866)
(0.0393618 0 -0.00368397)
(0.0617722 0 -0.00582962)
(0.0813789 0 -0.00777398)
(0.0986391 0 -0.00956973)
(0.113917 0 -0.0112534)
(0.0138711 0 -0.00133421)
(0.0398418 0 -0.00384606)
(0.0625753 0 -0.00609054)
(0.0825178 0 -0.0081287)
(0.100121 0 -0.010014)
(0.11576 0 -0.0117861)
(0.129759 0 -0.013478)
(0.0140302 0 -0.0013873)
(0.0403165 0 -0.00400103)
(0.0633682 0 -0.00634027)
(0.0836386 0 -0.00846831)
(0.10158 0 -0.01044)
(0.117571 0 -0.0122973)
(0.13194 0 -0.0140742)
(0.144982 0 -0.0157993)
(0.156934 0 -0.0174925)
(0.0141837 0 -0.00143682)
(0.0407739 0 -0.00414572)
(0.0641319 0 -0.00657372)
(0.0847169 0 -0.0087861)
(0.102982 0 -0.0108391)
(0.119308 0 -0.0127763)
(0.134025 0 -0.0146323)
(0.147418 0 -0.0164358)
(0.159734 0 -0.0182095)
(0.171209 0 -0.0199768)
(0.0143254 0 -0.0014813)
(0.0411983 0 -0.00427611)
(0.0648428 0 -0.00678465)
(0.085722 0 -0.00907375)
(0.10429 0 -0.0112009)
(0.120927 0 -0.0132106)
(0.13596 0 -0.0151382)
(0.149672 0 -0.0170123)
(0.162306 0 -0.0188564)
(0.174084 0 -0.0206915)
(0.185192 0 -0.0225339)
(0.19579 0 -0.0243979)
(0.0144507 0 -0.00151963)
(0.0415775 0 -0.00438909)
(0.0654828 0 -0.00696821)
(0.0866309 0 -0.00932487)
(0.105475 0 -0.0115174)
(0.122394 0 -0.013591)
(0.137711 0 -0.0155811)
(0.151703 0 -0.0175164)
(0.164611 0 -0.0194204)
(0.176644 0 -0.0213127)
(0.187984 0 -0.0232094)
(0.198783 0 -0.0251243)
(0.20918 0 -0.0270701)
(0.219286 0 -0.0290568)
(0.014557 0 -0.00155105)
(0.0419035 0 -0.00448242)
(0.0660397 0 -0.00712086)
(0.087428 0 -0.00953477)
(0.106519 0 -0.0117829)
(0.123688 0 -0.0139105)
(0.139253 0 -0.0159534)
(0.153487 0 -0.0179397)
(0.166624 0 -0.0198925)
(0.178866 0 -0.0218306)
(0.190385 0 -0.0237692)
(0.201328 0 -0.0257212)
(0.211822 0 -0.0276972)
(0.221968 0 -0.0297056)
(0.231849 0 -0.0317533)
(0.014642 0 -0.00157483)
(0.0421696 0 -0.00455391)
(0.0665032 0 -0.00723916)
(0.0881002 0 -0.00969885)
(0.107406 0 -0.0119917)
(0.124791 0 -0.0141628)
(0.140569 0 -0.0162476)
(0.155006 0 -0.0182738)
(0.168329 0 -0.020264)
(0.180733 0 -0.0222358)
(0.192381 0 -0.0242037)
(0.203416 0 -0.0261791)
(0.213952 0 -0.0281709)
(0.224083 0 -0.0301859)
(0.233883 0 -0.0322284)
(0.2434 0 -0.0343003)
(0.252657 0 -0.0363992)
(0.0147038 0 -0.00159024)
(0.0423702 0 -0.00460144)
(0.0668647 0 -0.00731973)
(0.0886365 0 -0.00981262)
(0.108124 0 -0.0121382)
(0.125691 0 -0.0143413)
(0.141645 0 -0.0164564)
(0.156245 0 -0.018511)
(0.169712 0 -0.0205265)
(0.182234 0 -0.0225198)
(0.193967 0 -0.024504)
(0.205045 0 -0.0264895)
(0.215577 0 -0.0284836)
(0.225646 0 -0.0304908)
(0.235323 0 -0.0325149)
(0.244654 0 -0.0345558)
(0.253653 0 -0.0366091)
(0.262328 0 -0.0386697)
(0.270668 0 -0.0407296)
(0.0147409 0 -0.00159659)
(0.0425011 0 -0.00462301)
(0.0671176 0 -0.00735934)
(0.0890286 0 -0.00987173)
(0.108663 0 -0.0122173)
(0.126377 0 -0.0144398)
(0.14247 0 -0.0165731)
(0.157195 0 -0.0186435)
(0.170767 0 -0.0206722)
(0.183367 0 -0.0226745)
(0.195141 0 -0.0246619)
(0.206223 0 -0.0266448)
(0.216713 0 -0.0286287)
(0.226679 0 -0.0306145)
(0.236206 0 -0.0326082)
(0.245332 0 -0.0346084)
(0.254058 0 -0.0366063)
(0.262397 0 -0.038597)
(0.270346 0 -0.0405729)
(0.277888 0 -0.0425241)
(0.284996 0 -0.0444391)
(0.0147524 0 -0.00159324)
(0.0425595 0 -0.0046167)
(0.0672576 0 -0.00735489)
(0.0892712 0 -0.00987204)
(0.109018 0 -0.0122237)
(0.126844 0 -0.0144525)
(0.14304 0 -0.0165908)
(0.157851 0 -0.0186641)
(0.171493 0 -0.0206934)
(0.184137 0 -0.0226925)
(0.195912 0 -0.0246698)
(0.206965 0 -0.0266378)
(0.217391 0 -0.0286012)
(0.227243 0 -0.0305576)
(0.236592 0 -0.0325097)
(0.245477 0 -0.0344552)
(0.253917 0 -0.0363883)
(0.261923 0 -0.0383026)
(0.269493 0 -0.0401902)
(0.27662 0 -0.0420417)
(0.283287 0 -0.0438465)
(0.0147378 0 -0.00157959)
(0.0425442 0 -0.00458073)
(0.0672829 0 -0.0073035)
(0.0893622 0 -0.00980964)
(0.109186 0 -0.0121527)
(0.127091 0 -0.0143738)
(0.143357 0 -0.0165038)
(0.158214 0 -0.0185657)
(0.171895 0 -0.0205825)
(0.184562 0 -0.0225675)
(0.196326 0 -0.0245259)
(0.207319 0 -0.0264667)
(0.217634 0 -0.0283943)
(0.227339 0 -0.0303086)
(0.236491 0 -0.0322089)
(0.245132 0 -0.0340925)
(0.253285 0 -0.0359541)
(0.260965 0 -0.0377872)
(0.268176 0 -0.039584)
(0.274917 0 -0.041336)
(0.0146984 0 -0.0015551)
(0.0424567 0 -0.00451334)
(0.0671952 0 -0.00720216)
(0.0893036 0 -0.00968037)
(0.109171 0 -0.0119992)
(0.127124 0 -0.0141978)
(0.143433 0 -0.0163059)
(0.158329 0 -0.0183463)
(0.172016 0 -0.0203373)
(0.184655 0 -0.022292)
(0.196369 0 -0.0242174)
(0.207275 0 -0.0261194)
(0.217463 0 -0.0280011)
(0.227002 0 -0.0298627)
(0.235949 0 -0.0317025)
(0.244344 0 -0.0335172)
(0.252217 0 -0.0353018)
(0.259584 0 -0.03705)
(0.266457 0 -0.0387545)
(0.27284 0 -0.0404075)
(0.0146351 0 -0.00151934)
(0.0422998 0 -0.00441308)
(0.0669979 0 -0.00704839)
(0.0890995 0 -0.00948073)
(0.108978 0 -0.0117586)
(0.126947 0 -0.0139192)
(0.14327 0 -0.0159905)
(0.158169 0 -0.0179941)
(0.171836 0 -0.0199464)
(0.184426 0 -0.0218587)
(0.196066 0 -0.0237383)
(0.206865 0 -0.0255898)
(0.216912 0 -0.0274153)
(0.226276 0 -0.0292147)
(0.235013 0 -0.0309859)
(0.243167 0 -0.0327254)
(0.250768 0 -0.0344282)
(0.25784 0 -0.0360885)
(0.264397 0 -0.0376996)
(0.27045 0 -0.0392545)
(0.0145484 0 -0.00147186)
(0.0420759 0 -0.00427878)
(0.0666954 0 -0.00684025)
(0.088756 0 -0.00920802)
(0.108614 0 -0.0114275)
(0.126571 0 -0.0135336)
(0.142879 0 -0.0155526)
(0.157753 0 -0.0175044)
(0.171376 0 -0.0194036)
(0.183899 0 -0.0212607)
(0.195447 0 -0.0230821)
(0.206126 0 -0.0248716)
(0.216022 0 -0.0266307)
(0.225206 0 -0.0283589)
(0.233735 0 -0.0300538)
(0.241653 0 -0.0317119)
(0.248996 0 -0.0333285)
(0.255789 0 -0.0348981)
(0.262054 0 -0.0364148)
(0.267805 0 -0.0378725)
(0.0144402 0 -0.00141229)
(0.0417903 0 -0.00410925)
(0.0662959 0 -0.00657564)
(0.0882842 0 -0.00885922)
(0.108093 0 -0.0110021)
(0.126011 0 -0.0130365)
(0.14228 0 -0.0149868)
(0.157107 0 -0.0168712)
(0.170667 0 -0.018703)
(0.183106 0 -0.0204913)
(0.194548 0 -0.0222419)
(0.205097 0 -0.023958)
(0.214838 0 -0.0256405)
(0.223842 0 -0.0272884)
(0.232166 0 -0.0288995)
(0.239859 0 -0.0304701)
(0.246957 0 -0.031996)
(0.253491 0 -0.0334721)
(0.259486 0 -0.0348932)
(0.264961 0 -0.0362537)
(0.0143132 0 -0.00134033)
(0.0414504 0 -0.00390343)
(0.0658107 0 -0.00625268)
(0.0876985 0 -0.00843156)
(0.107434 0 -0.0104786)
(0.125289 0 -0.0124233)
(0.141498 0 -0.0142879)
(0.156259 0 -0.0160889)
(0.16974 0 -0.0178381)
(0.182084 0 -0.0195437)
(0.193412 0 -0.0212107)
(0.203825 0 -0.0228415)
(0.21341 0 -0.0244367)
(0.222236 0 -0.0259953)
(0.230364 0 -0.0275147)
(0.237842 0 -0.0289916)
(0.244711 0 -0.030422)
(0.251005 0 -0.0318013)
(0.256753 0 -0.0331249)
(0.261977 0 -0.034388)
(0.0141707 0 -0.0012557)
(0.0410653 0 -0.00366041)
(0.0652537 0 -0.00586964)
(0.0870174 0 -0.00792246)
(0.106657 0 -0.0098536)
(0.124432 0 -0.0116897)
(0.140564 0 -0.0134507)
(0.155244 0 -0.0151515)
(0.168635 0 -0.0168024)
(0.180875 0 -0.0184107)
(0.192084 0 -0.0199805)
(0.202361 0 -0.0215137)
(0.211791 0 -0.0230107)
(0.220446 0 -0.0244701)
(0.228386 0 -0.0258895)
(0.235663 0 -0.0272658)
(0.242321 0 -0.0285953)
(0.248394 0 -0.0298737)
(0.253916 0 -0.0310971)
(0.258914 0 -0.0322614)
(0.0140166 0 -0.00115817)
(0.0406459 0 -0.00337935)
(0.0646419 0 -0.00542496)
(0.0862628 0 -0.00732949)
(0.10579 0 -0.00912376)
(0.123469 0 -0.0108314)
(0.139512 0 -0.0124701)
(0.154102 0 -0.014053)
(0.167396 0 -0.0155891)
(0.179528 0 -0.0170845)
(0.190616 0 -0.0185427)
(0.200758 0 -0.0199653)
(0.210039 0 -0.0213521)
(0.218531 0 -0.0227018)
(0.226296 0 -0.0240121)
(0.233388 0 -0.0252799)
(0.23985 0 -0.0265019)
(0.245724 0 -0.0276745)
(0.251042 0 -0.0287939)
(0.255836 0 -0.0298567)
(0.0138554 0 -0.00104753)
(0.0402051 0 -0.00305952)
(0.063995 0 -0.00491716)
(0.0854607 0 -0.00665033)
(0.104865 0 -0.00828581)
(0.122439 0 -0.00984418)
(0.138385 0 -0.0113408)
(0.152878 0 -0.012787)
(0.166071 0 -0.0141905)
(0.178096 0 -0.0155565)
(0.189065 0 -0.0168877)
(0.199078 0 -0.0181854)
(0.208218 0 -0.019449)
(0.216558 0 -0.0206773)
(0.224162 0 -0.0218679)
(0.231084 0 -0.0230183)
(0.23737 0 -0.0241251)
(0.243063 0 -0.0251852)
(0.2482 0 -0.0261955)
(0.252811 0 -0.0271528)
(0.0136922 0 -0.000923606)
(0.0397575 0 -0.00270025)
(0.0633359 0 -0.00434488)
(0.0846409 0 -0.00588274)
(0.103917 0 -0.00733653)
(0.121382 0 -0.00872372)
(0.137228 0 -0.0100574)
(0.151624 0 -0.0113469)
(0.164718 0 -0.0125989)
(0.176637 0 -0.0138174)
(0.187494 0 -0.0150048)
(0.197385 0 -0.0161617)
(0.206395 0 -0.0172877)
(0.214598 0 -0.0183812)
(0.222056 0 -0.0194402)
(0.228825 0 -0.0204622)
(0.234956 0 -0.0214443)
(0.240489 0 -0.0223838)
(0.245465 0 -0.0232778)
(0.249918 0 -0.0241237)
(0.013533 0 -0.000786227)
(0.0393201 0 -0.00230092)
(0.0626908 0 -0.00370682)
(0.0838374 0 -0.00502453)
(0.102987 0 -0.00627268)
(0.120344 0 -0.00746558)
(0.136093 0 -0.00861393)
(0.150396 0 -0.00972543)
(0.163396 0 -0.0108053)
(0.175217 0 -0.0118569)
(0.185971 0 -0.0128818)
(0.195753 0 -0.0138805)
(0.204647 0 -0.0148522)
(0.212727 0 -0.0157956)
(0.220057 0 -0.0167088)
(0.226694 0 -0.0175895)
(0.232688 0 -0.0184353)
(0.238084 0 -0.0192436)
(0.242922 0 -0.0200121)
(0.247237 0 -0.0207385)
(0.0133845 0 -0.00063525)
(0.0389123 0 -0.00186096)
(0.0620898 0 -0.00300173)
(0.0830892 0 -0.00407359)
(0.102121 0 -0.00509104)
(0.119379 0 -0.00606527)
(0.135039 0 -0.00700459)
(0.149257 0 -0.00791498)
(0.162173 0 -0.00880046)
(0.173908 0 -0.00966347)
(0.184572 0 -0.0105052)
(0.194259 0 -0.0113256)
(0.203054 0 -0.0121243)
(0.21103 0 -0.0128997)
(0.218251 0 -0.0136504)
(0.224777 0 -0.0143742)
(0.230657 0 -0.0150691)
(0.235938 0 -0.0157331)
(0.240661 0 -0.0163639)
(0.244862 0 -0.0169599)
(0.0132548 0 -0.00047055)
(0.0385568 0 -0.00137986)
(0.0615677 0 -0.0022285)
(0.0824409 0 -0.00302789)
(0.101372 0 -0.00378846)
(0.118546 0 -0.00451822)
(0.134131 0 -0.00522315)
(0.148278 0 -0.00590749)
(0.161124 0 -0.00657409)
(0.172789 0 -0.00722459)
(0.183379 0 -0.00785972)
(0.19299 0 -0.00847944)
(0.201705 0 -0.0090831)
(0.209597 0 -0.00966965)
(0.216733 0 -0.0102377)
(0.223171 0 -0.0107856)
(0.228961 0 -0.0113118)
(0.234152 0 -0.0118146)
(0.238784 0 -0.0122924)
(0.242896 0 -0.0127436)
(0.0131537 0 -0.000292038)
(0.0382812 0 -0.000857232)
(0.0611658 0 -0.00138612)
(0.0819444 0 -0.00188559)
(0.100801 0 -0.00236193)
(0.117912 0 -0.00281998)
(0.133441 0 -0.00326336)
(0.147537 0 -0.00369462)
(0.160332 0 -0.00411544)
(0.171945 0 -0.00452677)
(0.182483 0 -0.00492898)
(0.192039 0 -0.00532195)
(0.200697 0 -0.00570522)
(0.208531 0 -0.00607801)
(0.215606 0 -0.00643938)
(0.221981 0 -0.00678826)
(0.227708 0 -0.00712353)
(0.232835 0 -0.00744405)
(0.237403 0 -0.00774876)
(0.241452 0 -0.00803667)
(0.0130945 0 -9.96886e-05)
(0.0381212 0 -0.000292839)
(0.0609352 0 -0.000473938)
(0.0816614 0 -0.000645283)
(0.100477 0 -0.000808985)
(0.117554 0 -0.000966674)
(0.133053 0 -0.00111956)
(0.14712 0 -0.0012685)
(0.159887 0 -0.00141405)
(0.171473 0 -0.00155652)
(0.181983 0 -0.00169601)
(0.19151 0 -0.00183246)
(0.200137 0 -0.00196568)
(0.20794 0 -0.00209541)
(0.214982 0 -0.00222127)
(0.221324 0 -0.00234289)
(0.227018 0 -0.00245986)
(0.232111 0 -0.00257175)
(0.236645 0 -0.00267818)
(0.24066 0 -0.0027788)
)
;

boundaryField
{
    inlet
    {
        type            cellMotion;
        value           uniform (0 0 0);
    }
    outlet
    {
        type            cellMotion;
        value           nonuniform 0();
    }
    flap
    {
        type            cellMotion;
        value           nonuniform 0();
    }
    upperWall
    {
        type            slip;
    }
    lowerWall
    {
        type            slip;
    }
    frontAndBack
    {
        type            empty;
    }
    procBoundary0to1
    {
        type            processor;
        value           nonuniform List<vector> 
18
(
(0.291639 0 -0.0463043)
(0.289472 0 -0.0455927)
(0.281179 0 -0.0430334)
(0.281179 0 -0.0430334)
(0.278734 0 -0.0420006)
(0.276008 0 -0.0407461)
(0.273058 0 -0.039265)
(0.269938 0 -0.0375489)
(0.266704 0 -0.0355866)
(0.263416 0 -0.0333633)
(0.260136 0 -0.0308604)
(0.256934 0 -0.0280551)
(0.253884 0 -0.0249199)
(0.251069 0 -0.0214215)
(0.248582 0 -0.01752)
(0.246528 0 -0.0131676)
(0.245023 0 -0.00830724)
(0.244199 0 -0.00287338)
)
;
    }
    procBoundary0to3
    {
        type            processor;
        value           nonuniform List<vector> 
34
(
(0.0129458 0 -0.000980811)
(0.0370706 0 -0.00281816)
(0.0586672 0 -0.00472583)
(0.0586672 0 -0.00472583)
(0.0780353 0 -0.00666033)
(0.0780353 0 -0.00666033)
(0.095686 0 -0.00864503)
(0.095686 0 -0.00864503)
(0.112078 0 -0.0107058)
(0.112078 0 -0.0107058)
(0.127537 0 -0.0128555)
(0.127537 0 -0.0128555)
(0.142416 0 -0.0151157)
(0.142416 0 -0.0151157)
(0.153981 0 -0.0167225)
(0.168044 0 -0.0191778)
(0.168044 0 -0.0191778)
(0.18203 0 -0.0217522)
(0.18203 0 -0.0217522)
(0.192363 0 -0.0235509)
(0.206026 0 -0.0262975)
(0.206026 0 -0.0262975)
(0.216025 0 -0.0282457)
(0.229194 0 -0.031093)
(0.229194 0 -0.031093)
(0.241518 0 -0.0338426)
(0.241518 0 -0.0338426)
(0.251009 0 -0.0359748)
(0.261662 0 -0.0385211)
(0.261662 0 -0.0385211)
(0.270401 0 -0.0406592)
(0.278649 0 -0.042779)
(0.278649 0 -0.042779)
(0.286238 0 -0.0448064)
)
;
    }
}


// ************************************************************************* //
