/*--------------------------------*- C++ -*----------------------------------*\
| =========                 |                                                 |
| \\      /  F ield         | OpenFOAM: The Open Source CFD Toolbox           |
|  \\    /   O peration     | Version:  dev                                   |
|   \\  /    A nd           | Web:      www.OpenFOAM.org                      |
|    \\/     M anipulation  |                                                 |
\*---------------------------------------------------------------------------*/
FoamFile
{
    version     2.0;
    format      ascii;
    class       volScalarField;
    location    "1";
    object      p;
}
// * * * * * * * * * * * * * * * * * * * * * * * * * * * * * * * * * * * * * //

dimensions      [0 2 -2 0 0 0 0];

internalField   nonuniform List<scalar> 
465
(
175.341
175.389
174.845
174.886
175.007
174.319
174.352
174.454
174.657
173.764
173.79
173.872
174.046
174.285
173.182
173.2
173.261
173.404
173.603
173.83
172.575
172.583
172.623
172.734
172.893
173.069
173.252
171.942
171.941
171.96
172.039
172.156
172.281
172.404
172.521
172.623
171.287
171.276
171.273
171.319
171.395
171.469
171.533
171.581
171.606
171.596
170.611
170.591
170.565
170.579
170.612
170.636
170.64
170.621
170.571
170.477
170.326
170.105
169.918
169.887
169.839
169.82
169.812
169.785
169.731
169.646
169.522
169.348
169.11
168.795
168.389
167.875
169.209
169.168
169.098
169.047
168.997
168.921
168.811
168.661
168.466
168.213
167.892
167.49
166.993
166.386
165.652
168.489
168.438
168.346
168.262
168.172
168.048
167.882
167.671
167.407
167.081
166.682
166.198
165.616
164.924
164.106
163.149
162.037
167.76
167.699
167.585
167.47
167.341
167.171
166.952
166.681
166.352
165.956
165.484
164.924
164.266
163.497
162.605
161.579
160.404
159.07
157.566
167.027
166.955
166.82
166.676
166.508
166.294
166.025
165.698
165.307
164.846
164.306
163.677
162.949
162.112
161.155
160.069
158.843
157.469
155.937
154.243
152.381
166.293
166.211
166.056
165.882
165.679
165.423
165.105
164.725
164.278
163.757
163.154
162.462
161.672
160.774
159.762
158.626
157.358
155.952
154.402
152.704
150.857
165.563
165.472
165.296
165.096
164.858
164.562
164.2
163.771
163.27
162.694
162.035
161.286
160.44
159.49
158.43
157.251
155.95
154.521
152.96
151.265
164.841
164.741
164.547
164.32
164.051
163.717
163.314
162.839
162.29
161.663
160.953
160.154
159.26
158.264
157.163
155.95
154.623
153.177
151.61
149.923
164.133
164.024
163.812
163.561
163.262
162.894
162.452
161.936
161.343
160.67
159.915
159.072
158.134
157.1
155.965
154.725
153.377
151.92
150.353
148.676
163.443
163.326
163.098
162.824
162.498
162.098
161.621
161.066
160.434
159.721
158.926
158.043
157.07
156.003
154.839
153.577
152.215
150.752
149.187
147.523
162.778
162.653
162.41
162.115
161.763
161.335
160.825
160.237
159.569
158.821
157.99
157.074
156.069
154.975
153.789
152.51
151.137
149.671
148.112
146.462
162.143
162.01
161.753
161.44
161.065
160.61
160.072
159.453
158.755
157.975
157.114
156.168
155.138
154.021
152.816
151.524
150.145
148.678
147.127
145.492
161.543
161.404
161.135
160.803
160.408
159.93
159.367
158.721
157.995
157.189
156.301
155.331
154.279
153.143
151.924
150.623
149.239
147.775
146.232
144.612
160.986
160.841
160.56
160.213
159.799
159.3
158.715
158.046
157.296
156.467
155.557
154.566
153.496
152.346
151.116
149.808
148.422
146.961
145.427
143.822
160.479
160.327
160.035
159.674
159.244
158.727
158.123
157.434
156.664
155.814
154.886
153.879
152.794
151.632
150.394
149.081
147.695
146.239
144.714
143.124
160.027
159.87
159.568
159.194
158.749
158.217
157.596
156.89
156.103
155.237
154.293
153.273
152.176
151.005
149.761
148.446
147.061
145.609
144.093
142.516
159.639
159.476
159.164
158.778
158.321
157.776
157.141
156.421
155.621
154.742
153.786
152.754
151.649
150.471
149.223
147.906
146.523
145.077
143.569
142.004
159.323
159.154
158.831
158.433
157.965
157.409
156.762
156.031
155.22
154.33
153.365
152.325
151.213
150.031
148.78
147.463
146.082
144.641
143.141
141.586
159.089
158.909
158.574
158.168
157.692
157.127
156.472
155.733
154.913
154.016
153.044
151.998
150.882
149.696
148.444
147.127
145.749
144.312
142.819
141.273
158.953
158.744
158.389
157.976
157.496
156.926
156.266
155.52
154.696
153.794
152.818
151.769
150.65
149.463
148.21
146.895
145.518
144.084
142.596
141.056
158.949
158.687
158.309
157.888
157.403
156.829
156.164
155.416
154.588
153.684
152.706
151.657
150.537
149.351
148.1
146.786
145.413
143.984
142.5
140.966
)
;

boundaryField
{
    inlet
    {
        type            zeroGradient;
    }
    outlet
    {
        type            fixedValue;
        value           nonuniform 0();
    }
    flap
    {
        type            zeroGradient;
    }
    upperWall
    {
        type            zeroGradient;
    }
    lowerWall
    {
        type            zeroGradient;
    }
    frontAndBack
    {
        type            empty;
    }
    procBoundary0to1
    {
        type            processor;
        value           nonuniform List<scalar> 
18
(
150.351
148.86
149.436
149.436
148.115
146.891
145.762
144.724
143.777
142.92
142.151
141.472
140.882
140.385
139.98
139.677
139.468
139.386
)
;
    }
    procBoundary0to3
    {
        type            processor;
        value           nonuniform List<scalar> 
34
(
175.805
175.86
175.528
175.528
175.239
175.239
174.935
174.935
174.56
174.56
174.072
174.072
173.437
173.437
173.616
172.697
172.697
171.535
171.535
171.411
169.796
169.796
169.384
167.235
167.235
164.775
164.775
163.737
160.755
160.755
159.289
155.883
155.883
154.013
)
;
    }
}


// ************************************************************************* //
