/*--------------------------------*- C++ -*----------------------------------*\
| =========                 |                                                 |
| \\      /  F ield         | OpenFOAM: The Open Source CFD Toolbox           |
|  \\    /   O peration     | Version:  dev                                   |
|   \\  /    A nd           | Web:      www.OpenFOAM.org                      |
|    \\/     M anipulation  |                                                 |
\*---------------------------------------------------------------------------*/
FoamFile
{
    version     2.0;
    format      ascii;
    class       volVectorField;
    location    "1";
    object      U;
}
// * * * * * * * * * * * * * * * * * * * * * * * * * * * * * * * * * * * * * //

dimensions      [0 1 -1 0 0 0 0];

internalField   nonuniform List<vector> 
465
(
(9.9904 0 0.102956)
(9.98094 0 0.200578)
(9.9906 0 0.106825)
(9.98248 -8.90922e-20 0.208128)
(9.96775 9.25746e-20 0.310734)
(9.9909 -4.17954e-20 0.110341)
(9.98417 1.29829e-19 0.215019)
(9.97176 4.4865e-19 0.321228)
(9.94965 1.86671e-19 0.431562)
(9.99126 -4.06126e-20 0.113434)
(9.98599 4.20315e-20 0.221188)
(9.97594 -7.00073e-19 0.330666)
(9.95698 0 0.444453)
(9.93155 3.74678e-19 0.563637)
(9.99159 -3.94567e-20 0.11605)
(9.98785 6.93118e-19 0.226572)
(9.98022 1.69762e-19 0.338953)
(9.96451 -1.75931e-19 0.455732)
(9.94338 -7.29896e-19 0.577923)
(9.91925 7.54129e-19 0.706583)
(9.99178 3.83281e-20 0.118174)
(9.98964 -6.75226e-19 0.231123)
(9.98444 0 0.346001)
(9.97206 -5.11108e-19 0.465246)
(9.95535 -5.30472e-19 0.589903)
(9.93643 -3.83084e-22 0.721075)
(9.91531 -1.02259e-21 0.860154)
(9.99172 -5.57372e-19 0.119837)
(9.99119 5.76609e-19 0.234812)
(9.98849 1.59973e-19 0.351716)
(9.97948 4.98537e-19 0.472874)
(9.96711 -3.43076e-19 0.599445)
(9.95333 -2.68496e-22 0.732611)
(9.93814 7.30119e-19 0.873702)
(9.92166 -7.52212e-19 1.02385)
(9.90442 3.87066e-19 1.18395)
(9.99142 5.79512e-19 0.121108)
(9.9925 -1.19667e-18 0.237607)
(9.99237 0 0.355988)
(9.98674 0 0.4785)
(9.97865 0 0.606428)
(9.96997 6.85019e-19 0.740994)
(9.96083 -7.05621e-19 0.883419)
(9.95136 0 1.03472)
(9.94194 0 1.19578)
(9.93294 0 1.36739)
(9.99105 0 0.122017)
(9.99375 2.15055e-21 0.239464)
(9.99623 0 0.358705)
(9.99402 -7.78973e-19 0.481998)
(9.99023 1.6125e-19 0.610701)
(9.98667 -6.66954e-19 0.746019)
(9.98357 1.37039e-18 0.889068)
(9.981 7.03358e-19 1.0408)
(9.97925 -7.2176e-19 1.20204)
(9.97884 0 1.37349)
(9.9805 -7.56817e-19 1.55585)
(9.98501 3.85664e-19 1.74995)
(9.99072 1.05542e-18 0.122537)
(9.99509 5.30004e-19 0.240301)
(10.0003 7.31445e-20 0.359743)
(10.0016 6.06873e-19 0.48322)
(10.0021 -6.24283e-19 0.612103)
(10.0036 -3.22497e-19 0.747534)
(10.0063 -6.65415e-19 0.890529)
(10.0104 -3.4175e-19 1.04198)
(10.016 1.0502e-18 1.20262)
(10.0239 -7.16165e-19 1.37305)
(10.0347 3.66314e-19 1.55385)
(10.0492 0 1.74568)
(10.0682 -1.11886e-21 1.94909)
(10.0928 -3.91271e-19 2.16434)
(9.99052 -1.06245e-18 0.122594)
(9.99664 -5.46844e-19 0.240005)
(10.0046 0 0.358974)
(10.0094 5.86448e-19 0.482054)
(10.014 2.69641e-21 0.610551)
(10.0204 6.2393e-19 0.745494)
(10.0287 6.41712e-19 0.887776)
(10.0391 0 1.03819)
(10.052 0 1.19739)
(10.068 0 1.36586)
(10.0878 -3.53724e-19 1.54408)
(10.1122 1.65991e-21 1.73253)
(10.1419 3.7017e-19 1.93158)
(10.1781 -2.11982e-21 2.14133)
(10.2216 -3.78995e-19 2.36178)
(9.99052 0 0.122086)
(9.99846 5.33242e-19 0.238459)
(10.0091 0 0.356341)
(10.0171 -5.71579e-19 0.478497)
(10.0257 1.17741e-18 0.606065)
(10.0366 -4.5635e-19 0.739881)
(10.0504 -1.24726e-18 0.880711)
(10.0672 1.59688e-19 1.02925)
(10.0873 -3.28144e-19 1.1861)
(10.1114 0 1.35167)
(10.14 6.83785e-19 1.52629)
(10.1739 1.58263e-22 1.7103)
(10.214 7.1375e-19 1.90393)
(10.261 -3.63373e-19 2.10712)
(10.3158 0 2.31969)
(10.3795 -7.45022e-19 2.54148)
(10.4532 5.63163e-19 2.772)
(9.99084 0 0.120894)
(10.0005 3.23014e-20 0.235622)
(10.0135 -3.34802e-20 0.351911)
(10.0245 -5.52431e-19 0.472601)
(10.0368 -1.28515e-18 0.598606)
(10.0524 -4.39663e-19 0.73056)
(10.0717 6.06082e-19 0.869118)
(10.0947 0 1.01493)
(10.1219 6.33531e-19 1.16854)
(10.1538 -3.23906e-19 1.33031)
(10.1909 -9.94841e-19 1.50039)
(10.2339 -7.01936e-22 1.67897)
(10.2837 0 1.86623)
(10.3409 -1.74639e-19 2.06197)
(10.4061 -1.75854e-19 2.26578)
(10.4803 3.19085e-21 2.4774)
(10.5646 -3.66728e-19 2.6963)
(10.6595 0 2.92152)
(10.7658 -4.6365e-20 3.15193)
(9.99142 9.7897e-19 0.118944)
(10.0023 -7.8509e-21 0.231539)
(10.0175 -3.24953e-20 0.345743)
(10.0314 5.72278e-19 0.464318)
(10.0476 5.55615e-19 0.588012)
(10.0679 7.40231e-20 0.717335)
(10.0925 7.30954e-20 0.852836)
(10.1217 -1.50451e-19 0.9951)
(10.1556 -6.17528e-19 1.14465)
(10.195 1.93701e-21 1.30176)
(10.2402 4.82823e-19 1.46644)
(10.2916 -1.64083e-19 1.63868)
(10.3503 1.66353e-19 1.81866)
(10.417 -1.69929e-19 2.00615)
(10.4917 3.45679e-19 2.20054)
(10.5754 4.64658e-20 2.40138)
(10.669 -4.43456e-20 2.60808)
(10.7731 -2.67027e-19 2.81976)
(10.8881 -2.70691e-19 3.03533)
(11.0142 -1.8326e-19 3.25359)
(11.1518 -7.35464e-19 3.47323)
(9.99196 -1.8918e-18 0.116245)
(10.004 -9.53842e-22 0.226243)
(10.0213 -4.88469e-19 0.337778)
(10.0383 1.62861e-20 0.453516)
(10.0582 -3.36482e-20 0.574139)
(10.083 4.8588e-19 0.700097)
(10.113 7.11451e-20 0.831834)
(10.1478 5.81549e-19 0.969811)
(10.188 5.95229e-19 1.11445)
(10.2344 1.85024e-21 1.26604)
(10.2873 0 1.42453)
(10.3466 0 1.58972)
(10.4134 3.21976e-19 1.76163)
(10.4885 2.86342e-19 1.94007)
(10.5718 4.181e-20 2.12444)
(10.6642 3.81791e-19 2.31403)
(10.7661 2.98219e-19 2.50818)
(10.8781 1.75741e-19 2.70612)
(11.0004 5.27716e-19 2.90687)
(11.1331 -3.85913e-21 3.10931)
(11.2762 3.84398e-22 3.31224)
(9.99235 3.66205e-21 0.112836)
(10.0056 0 0.219692)
(10.0251 9.82066e-19 0.327935)
(10.0449 0 0.440131)
(10.0684 -1.6314e-20 0.556933)
(10.0976 1.68075e-20 0.678797)
(10.1326 -5.50465e-19 0.806097)
(10.173 -6.02478e-19 0.939128)
(10.219 -5.44312e-19 1.07813)
(10.2718 1.7573e-21 1.22334)
(10.3316 0 1.37483)
(10.3983 0 1.53232)
(10.4726 -3.14315e-19 1.69555)
(10.5551 -3.19606e-19 1.86429)
(10.6462 0 2.038)
(10.7461 -1.63357e-19 2.21592)
(10.8554 -8.31343e-19 2.39734)
(10.9741 0 2.58154)
(11.1024 3.4147e-19 2.76763)
(11.2405 3.41375e-19 2.95461)
(9.99263 1.79102e-18 0.108745)
(10.007 -4.75137e-19 0.211842)
(10.0286 -4.63355e-19 0.316177)
(10.0513 0 0.424172)
(10.0781 0 0.536459)
(10.1113 8.14373e-21 0.653499)
(10.1509 5.28587e-19 0.77564)
(10.1965 0 0.903044)
(10.2483 -8.75961e-21 1.03577)
(10.307 6.00806e-19 1.17395)
(10.373 -1.83372e-20 1.31768)
(10.4463 -3.72025e-20 1.46674)
(10.5275 -2.64688e-19 1.6207)
(10.6168 0 1.77923)
(10.7146 -4.68708e-19 1.94183)
(10.8211 4.78966e-19 2.10778)
(10.9365 3.23643e-19 2.27639)
(11.0609 3.25067e-19 2.44693)
(11.1943 0 2.61861)
(11.3366 0 2.79053)
(9.99284 -8.73237e-19 0.103985)
(10.0084 4.49975e-19 0.202685)
(10.032 -4.63156e-19 0.302486)
(10.0573 -4.77777e-19 0.405656)
(10.0874 0 0.512803)
(10.1242 -3.16344e-20 0.624349)
(10.1679 5.51393e-19 0.74059)
(10.2183 0 0.861615)
(10.2755 0 0.987401)
(10.3398 -5.56971e-19 1.11797)
(10.4115 -7.08541e-20 1.25336)
(10.4907 7.25598e-20 1.39333)
(10.5779 1.89297e-21 1.53749)
(10.6732 -1.49365e-19 1.68541)
(10.7769 1.52739e-19 1.8366)
(10.8889 -3.07662e-19 1.9904)
(11.0095 3.11789e-19 2.14616)
(11.1385 -3.18031e-19 2.30318)
(11.2759 0 2.46072)
(11.4215 -6.43965e-19 2.61801)
(9.993 0 0.0985694)
(10.0097 0 0.192234)
(10.0352 9.02809e-19 0.286876)
(10.063 1.89085e-21 0.384608)
(10.096 0 0.486003)
(10.1362 6.14641e-20 0.591416)
(10.1838 -5.69584e-19 0.701071)
(10.2387 0 0.815017)
(10.3006 1.32046e-19 0.933206)
(10.3699 2.70502e-19 1.05559)
(10.4468 1.3685e-19 1.18211)
(10.5313 0 1.31252)
(10.6238 2.86988e-19 1.44644)
(10.7243 1.98834e-21 1.58344)
(10.8328 2.16236e-21 1.723)
(10.9495 6.01679e-19 1.86455)
(11.0743 -3.0493e-19 2.00747)
(11.2071 9.19007e-19 2.15112)
(11.3476 -6.25646e-19 2.29483)
(11.4956 0 2.43791)
(9.99313 0 0.0925125)
(10.0108 4.24679e-19 0.18051)
(10.0381 -4.40048e-19 0.269381)
(10.0682 4.53611e-19 0.361071)
(10.1039 0 0.456102)
(10.1473 -4.77597e-19 0.554759)
(10.1986 -4.89808e-19 0.657206)
(10.2574 0 0.763465)
(10.3236 -1.28218e-19 0.873472)
(10.3973 -1.31567e-19 0.987133)
(10.4787 -1.35042e-19 1.10431)
(10.5679 -1.36736e-19 1.22474)
(10.6649 2.78643e-19 1.34807)
(10.7698 0 1.47388)
(10.8825 5.71887e-19 1.60168)
(11.003 -2.92284e-19 1.73094)
(11.1312 -5.87615e-19 1.86108)
(11.2669 -2.94303e-19 1.99154)
(11.4097 6.08048e-19 2.12172)
(11.5595 -1.52479e-19 2.25101)
(9.99323 0 0.0858291)
(10.0119 -4.15069e-19 0.167547)
(10.0408 0 0.250048)
(10.073 -1.09993e-19 0.335104)
(10.1112 1.13387e-19 0.42318)
(10.1575 1.86936e-21 0.514496)
(10.212 3.59167e-19 0.609166)
(10.2743 1.21418e-19 0.707189)
(10.3443 4.99666e-19 0.808485)
(10.422 2.54473e-19 0.912925)
(10.5074 -2.60909e-19 1.02033)
(10.6005 -1.37253e-21 1.13044)
(10.7014 -2.69001e-19 1.2429)
(10.8099 2.75373e-19 1.35732)
(10.9261 -2.79631e-19 1.47325)
(11.0497 0 1.59021)
(11.1805 5.71067e-19 1.70768)
(11.3183 -2.94078e-19 1.82515)
(11.4628 5.85139e-19 1.94209)
(11.6136 -1.18867e-18 2.05799)
(9.99332 -3.91787e-19 0.0785355)
(10.0128 -5.04113e-20 0.153376)
(10.0432 1.56034e-19 0.228929)
(10.0773 -1.07271e-19 0.306787)
(10.1178 -1.10054e-19 0.387346)
(10.1668 3.40906e-19 0.470775)
(10.2241 1.16701e-19 0.557143)
(10.2896 -1.1905e-19 0.646429)
(10.3628 -7.28021e-19 0.738538)
(10.4438 1.10223e-21 0.833323)
(10.5326 -2.52417e-19 0.930584)
(10.6291 -1.47888e-21 1.03006)
(10.7332 -2.63177e-19 1.13143)
(10.8448 0 1.23431)
(10.9636 -5.39796e-19 1.33831)
(11.0896 8.26656e-19 1.44299)
(11.2225 -5.552e-19 1.5479)
(11.3618 8.46686e-19 1.65258)
(11.5074 -5.74918e-19 1.75658)
(11.6587 1.45086e-19 1.85945)
(9.99341 4.3101e-19 0.070647)
(10.0137 -4.91947e-20 0.138034)
(10.0454 4.04863e-19 0.206085)
(10.0812 -1.04222e-19 0.276209)
(10.1238 2.14503e-19 0.348732)
(10.175 1.10353e-19 0.423768)
(10.2349 -6.51962e-23 0.501351)
(10.303 -2.31476e-19 0.581441)
(10.3791 4.72426e-19 0.663936)
(10.4629 9.80175e-22 0.748678)
(10.5546 2.46537e-19 0.835464)
(10.6538 0 0.924042)
(10.7605 2.54195e-19 1.01411)
(10.8745 -2.60742e-19 1.10535)
(10.9955 -5.27471e-19 1.19737)
(11.1233 -2.68172e-19 1.28981)
(11.2576 0 1.38227)
(11.398 0 1.47436)
(11.5441 1.38829e-19 1.56568)
(11.6955 0 1.65587)
(9.99349 0 0.0621748)
(10.0145 9.5792e-20 0.121551)
(10.0475 -4.9456e-19 0.18158)
(10.0848 -1.01511e-19 0.243477)
(10.1291 2.08863e-19 0.307483)
(10.1823 1.06711e-19 0.373662)
(10.2443 2.20049e-19 0.442022)
(10.3147 -1.6534e-22 0.512509)
(10.3931 -4.60542e-19 0.585014)
(10.4794 4.69046e-19 0.659381)
(10.5733 -2.39951e-19 0.735413)
(10.6748 -2.42987e-19 0.812875)
(10.7836 4.96215e-19 0.891498)
(10.8994 -3.325e-22 0.970985)
(11.022 7.67533e-19 1.05102)
(11.1511 -5.22567e-19 1.13127)
(11.2863 1.31698e-19 1.2114)
(11.4272 0 1.29107)
(11.5735 -1.35725e-19 1.36995)
(11.7247 0 1.44775)
(9.99358 -3.63736e-19 0.0531186)
(10.0153 -4.67063e-19 0.103947)
(10.0493 2.8873e-19 0.15548)
(10.088 0 0.208704)
(10.1338 2.03233e-19 0.263753)
(10.1886 -6.99124e-22 0.320641)
(10.2525 -2.14259e-19 0.379357)
(10.3248 8.72723e-22 0.439842)
(10.4051 2.24188e-19 0.501989)
(10.4932 0 0.565651)
(10.589 0 0.630647)
(10.6923 0 0.696767)
(10.8026 -1.20549e-19 0.763777)
(10.9198 4.89187e-19 0.831419)
(11.0435 -4.0058e-21 0.899422)
(11.1734 -3.82162e-19 0.967507)
(11.3091 -1.28693e-19 1.03539)
(11.4502 0 1.1028)
(11.5963 0 1.16945)
(11.747 -3.97416e-19 1.23509)
(9.9937 3.55806e-19 0.0434501)
(10.0161 3.65354e-19 0.0852195)
(10.0512 -2.81792e-19 0.127846)
(10.091 9.66466e-20 0.172026)
(10.138 -1.98534e-19 0.217768)
(10.1942 2.03158e-19 0.265042)
(10.2595 -2.0787e-19 0.313818)
(10.3332 4.26193e-19 0.36403)
(10.415 -3.26762e-19 0.41557)
(10.5046 3.33566e-19 0.468303)
(10.6018 -3.40596e-19 0.52207)
(10.7063 1.14843e-19 0.576692)
(10.8178 1.16076e-19 0.631969)
(10.9359 -2.39913e-19 0.687691)
(11.0603 0 0.743634)
(11.1906 -1.23485e-19 0.79957)
(11.3265 0 0.855272)
(11.4675 -5.04387e-19 0.910515)
(11.6131 5.15896e-19 0.965082)
(11.763 -6.46797e-19 1.01877)
(9.99391 0 0.0330679)
(10.0171 -8.89469e-20 0.0653391)
(10.0532 2.74734e-19 0.0986884)
(10.094 0 0.13337)
(10.1421 1.93143e-19 0.169297)
(10.1993 9.84244e-20 0.206454)
(10.2657 -2.03374e-19 0.244824)
(10.3405 3.10867e-19 0.28434)
(10.4234 -4.24882e-19 0.3249)
(10.514 -1.07505e-19 0.366387)
(10.6121 3.32019e-19 0.408664)
(10.7174 1.12625e-19 0.451582)
(10.8295 -1.14356e-19 0.49498)
(10.9481 0 0.538686)
(11.0729 2.35516e-19 0.582523)
(11.2033 -1.21167e-19 0.62631)
(11.339 4.84772e-19 0.669869)
(11.4796 -4.74644e-21 0.713026)
(11.6246 -5.0541e-21 0.755611)
(11.7736 -1.0119e-18 0.797472)
(9.99437 -6.3521e-20 0.0216438)
(10.0186 -2.17428e-20 0.0444269)
(10.0557 -2.68206e-19 0.0687858)
(10.0972 0 0.0941414)
(10.1459 -1.88654e-19 0.120305)
(10.2039 -9.67074e-20 0.147315)
(10.271 0 0.17518)
(10.3465 -1.01286e-19 0.203844)
(10.4301 1.03484e-19 0.23323)
(10.5213 0 0.263254)
(10.62 2.14473e-19 0.293819)
(10.7257 -2.19871e-19 0.324823)
(10.8381 1.11641e-19 0.356148)
(10.9569 2.25893e-19 0.387676)
(11.0815 -1.87524e-21 0.419279)
(11.2118 -5.84786e-19 0.45083)
(11.3471 2.38289e-19 0.482204)
(11.487 -2.39272e-19 0.513276)
(11.6312 2.4553e-21 0.543928)
(11.7792 2.47758e-19 0.574052)
(9.9958 2.07085e-20 0.00792685)
(10.0223 -2.12312e-20 0.0200289)
(10.0604 8.72724e-20 0.0344511)
(10.1023 -4.47856e-20 0.0497458)
(10.1513 -4.58275e-20 0.0656312)
(10.2095 9.43991e-20 0.0821357)
(10.2768 1.44499e-19 0.0992364)
(10.3525 -9.88894e-20 0.116863)
(10.4362 5.03834e-20 0.134943)
(10.5276 -5.14159e-20 0.153406)
(10.6262 0 0.172186)
(10.7319 2.66944e-20 0.191208)
(10.8441 0 0.210397)
(10.9626 0 0.229675)
(11.0869 2.23583e-19 0.248962)
(11.2166 -2.28864e-19 0.268179)
(11.3512 -2.88874e-20 0.287249)
(11.4904 2.33142e-19 0.306098)
(11.6336 -2.38462e-19 0.324655)
(11.7805 0 0.342857)
(9.98179 8.08645e-20 0.000104305)
(9.99616 0 0.00311121)
(10.0207 0 0.00745561)
(10.0489 4.37562e-20 0.0122612)
(10.0848 -4.49033e-20 0.0173792)
(10.1308 0 0.0228154)
(10.1867 -4.71253e-20 0.0285493)
(10.2518 2.4029e-20 0.0345436)
(10.3256 -2.48228e-20 0.040763)
(10.4076 4.99606e-20 0.0471769)
(10.4977 -5.1364e-20 0.0537558)
(10.5953 -2.60915e-20 0.0604691)
(10.7002 0 0.0672853)
(10.8118 0 0.0741717)
(10.9298 0 0.0810954)
(11.0536 0 0.0880235)
(11.1828 8.44463e-20 0.0949238)
(11.3168 -5.75022e-20 0.101765)
(11.4553 5.76761e-20 0.108518)
(11.5977 -1.17345e-19 0.115155)
)
;

boundaryField
{
    inlet
    {
        type            fixedValue;
        value           uniform (10 0 0);
    }
    outlet
    {
        type            zeroGradient;
    }
    flap
    {
        type            movingWallVelocity;
        value           nonuniform 0();
    }
    upperWall
    {
        type            noSlip;
    }
    lowerWall
    {
        type            noSlip;
    }
    frontAndBack
    {
        type            empty;
    }
    procBoundary0to1
    {
        type            processor;
        value           nonuniform List<vector> 
18
(
(11.3007 3.68573e-19 3.69276)
(11.4297 -3.61254e-19 3.51436)
(11.3881 1.38499e-18 3.14139)
(11.3881 1.38499e-18 3.14139)
(11.4876 -3.35225e-19 2.96173)
(11.575 3.20537e-19 2.77421)
(11.6509 0 2.57966)
(11.7158 0 2.37882)
(11.7704 -1.20199e-18 2.17233)
(11.8155 5.81374e-19 1.96077)
(11.8519 -5.65817e-19 1.74455)
(11.8803 5.50822e-19 1.52414)
(11.9017 -5.42397e-19 1.29949)
(11.9167 -4.62642e-19 1.07139)
(11.9261 -1.02353e-18 0.838463)
(11.9305 -6.23901e-20 0.603544)
(11.9306 0 0.360644)
(11.7436 -5.96708e-20 0.121651)
)
;
    }
    procBoundary0to3
    {
        type            processor;
        value           nonuniform List<vector> 
34
(
(9.99025 0 0.0988154)
(9.97951 0 0.192463)
(9.96386 0 0.299279)
(9.96386 0 0.299279)
(9.94257 0 0.417215)
(9.94257 0 0.417215)
(9.92018 1.28353e-21 0.547237)
(9.92018 1.28353e-21 0.547237)
(9.9022 -2.08058e-21 0.689318)
(9.9022 -2.08058e-21 0.689318)
(9.89229 3.89229e-19 0.843071)
(9.89229 3.89229e-19 0.843071)
(9.89186 -3.88287e-19 1.00843)
(9.89186 -3.88287e-19 1.00843)
(9.8668 3.96785e-19 1.16682)
(9.88668 7.91939e-19 1.35486)
(9.88668 7.91939e-19 1.35486)
(9.92518 0 1.55037)
(9.92518 0 1.55037)
(9.91958 -3.98863e-19 1.74569)
(9.99314 -1.17984e-18 1.95654)
(9.99314 -1.17984e-18 1.95654)
(10.0059 4.03456e-19 2.17607)
(10.1242 3.07501e-21 2.3916)
(10.1242 3.07501e-21 2.3916)
(10.2736 -7.72478e-19 2.59289)
(10.2736 -7.72478e-19 2.59289)
(10.3354 -2.48733e-21 2.83435)
(10.5376 0 3.0104)
(10.5376 0 3.0104)
(10.6338 -3.86962e-19 3.25556)
(10.8841 -4.72463e-20 3.3863)
(10.8841 -4.72463e-20 3.3863)
(11.0146 -9.46411e-19 3.62317)
)
;
    }
}


// ************************************************************************* //
