/*--------------------------------*- C++ -*----------------------------------*\
| =========                 |                                                 |
| \\      /  F ield         | OpenFOAM: The Open Source CFD Toolbox           |
|  \\    /   O peration     | Version:  dev                                   |
|   \\  /    A nd           | Web:      www.OpenFOAM.org                      |
|    \\/     M anipulation  |                                                 |
\*---------------------------------------------------------------------------*/
FoamFile
{
    version     2.0;
    format      ascii;
    class       volVectorField;
    location    "3.36";
    object      cellDisplacement;
}
// * * * * * * * * * * * * * * * * * * * * * * * * * * * * * * * * * * * * * //

dimensions      [0 1 0 0 0 0 0];

internalField   nonuniform List<vector> 
465
(
(0.0797643 0 -0.000597999)
(0.0807785 0 -0.000922761)
(0.0833226 0 -0.00114221)
(0.0858193 0 -0.0014105)
(0.0814589 0 -0.00121761)
(0.0838126 0 -0.00145235)
(0.0860791 0 -0.00172939)
(0.0882167 0 -0.00205216)
(0.0901771 0 -0.00242332)
(0.0818495 0 -0.0014793)
(0.0840156 0 -0.00172129)
(0.086069 0 -0.0019992)
(0.0879753 0 -0.00231465)
(0.0896976 0 -0.00266819)
(0.0911993 0 -0.00305901)
(0.0924473 0 -0.00348418)
(0.0819946 0 -0.00170782)
(0.0839849 0 -0.00195095)
(0.0858464 0 -0.00222399)
(0.0875521 0 -0.00252709)
(0.0890744 0 -0.00285937)
(0.0903877 0 -0.0032186)
(0.0914701 0 -0.00360074)
(0.0923062 0 -0.00399946)
(0.0928882 0 -0.00440563)
(0.0819305 0 -0.00190349)
(0.0837622 0 -0.00214354)
(0.0854545 0 -0.00240779)
(0.0869876 0 -0.00269549)
(0.0883423 0 -0.0030049)
(0.0895012 0 -0.00333313)
(0.0904508 0 -0.0036759)
(0.0911827 0 -0.00402736)
(0.0916947 0 -0.00438007)
(0.0816944 0 -0.00206791)
(0.0833824 0 -0.00230161)
(0.0849261 0 -0.00255446)
(0.0863114 0 -0.00282511)
(0.0875254 0 -0.00311142)
(0.088557 0 -0.0034103)
(0.0893985 0 -0.00371769)
(0.0900465 0 -0.00402853)
(0.0905017 0 -0.0043369)
(0.0813129 0 -0.00220257)
(0.0828726 0 -0.00242763)
(0.0842865 0 -0.00266747)
(0.0855453 0 -0.00292044)
(0.0866407 0 -0.00318425)
(0.0875666 0 -0.00345592)
(0.0883193 0 -0.00373181)
(0.0888984 0 -0.00400773)
(0.0893067 0 -0.00427902)
(0.0808082 0 -0.00230892)
(0.0822542 0 -0.00252382)
(0.0835552 0 -0.00274982)
(0.0847056 0 -0.00298515)
(0.085701 0 -0.00322754)
(0.0865384 0 -0.00347429)
(0.0872172 0 -0.00372224)
(0.087739 0 -0.00396798)
(0.0881079 0 -0.00420788)
(0.0801993 0 -0.00238832)
(0.0815451 0 -0.00259215)
(0.0827481 0 -0.00280402)
(0.0838055 0 -0.00302215)
(0.0847159 0 -0.00324445)
(0.0854787 0 -0.00346851)
(0.0860954 0 -0.00369166)
(0.0865689 0 -0.00391112)
(0.086904 0 -0.00412403)
(0.0795023 0 -0.00244197)
(0.0807602 0 -0.00263425)
(0.0818781 0 -0.00283205)
(0.0828557 0 -0.00303371)
(0.0836935 0 -0.00323731)
(0.0843931 0 -0.00344077)
(0.0849571 0 -0.00364188)
(0.0853895 0 -0.00383839)
(0.0856951 0 -0.00402805)
(0.0774118 0 -0.002295)
(0.0787314 0 -0.00247081)
(0.0799125 0 -0.0026514)
(0.0809566 0 -0.00283545)
(0.0818655 0 -0.00302145)
(0.0826413 0 -0.00320773)
(0.083287 0 -0.00339249)
(0.083806 0 -0.00357393)
(0.0842031 0 -0.00375024)
(0.0844832 0 -0.00391967)
(0.0766502 0 -0.00230992)
(0.0779006 0 -0.00247572)
(0.0790143 0 -0.00264459)
(0.0799943 0 -0.0028153)
(0.0808439 0 -0.0029865)
(0.0815664 0 -0.00315672)
(0.0821657 0 -0.00332448)
(0.0826462 0 -0.00348827)
(0.0830127 0 -0.00364666)
(0.0832706 0 -0.00379827)
(0.0758333 0 -0.00230162)
(0.0770224 0 -0.00245718)
(0.0780769 0 -0.00261444)
(0.0790012 0 -0.00277227)
(0.0797994 0 -0.00292947)
(0.080476 0 -0.0030848)
(0.0810354 0 -0.00323701)
(0.0814826 0 -0.00338486)
(0.0818227 0 -0.00352721)
(0.0820609 0 -0.00366298)
(0.0749739 0 -0.00227021)
(0.0761089 0 -0.0024154)
(0.0771116 0 -0.00256121)
(0.0779874 0 -0.00270662)
(0.0787411 0 -0.00285058)
(0.079378 0 -0.00299203)
(0.079903 0 -0.00312993)
(0.0803212 0 -0.00326328)
(0.0806381 0 -0.00339115)
(0.080859 0 -0.00351269)
(0.074085 0 -0.00221555)
(0.0751724 0 -0.00235031)
(0.0761299 0 -0.00248485)
(0.0769634 0 -0.00261825)
(0.0776786 0 -0.00274963)
(0.0782811 0 -0.00287807)
(0.0787762 0 -0.00300271)
(0.0791693 0 -0.00312273)
(0.0794659 0 -0.00323741)
(0.0796713 0 -0.00334605)
(0.0731801 0 -0.00213731)
(0.0742258 0 -0.00226157)
(0.0751438 0 -0.00238497)
(0.0759407 0 -0.00250672)
(0.0766224 0 -0.00262605)
(0.0771951 0 -0.00274219)
(0.0776642 0 -0.00285443)
(0.0780354 0 -0.00296211)
(0.0783142 0 -0.00306463)
(0.0785058 0 -0.00316146)
(0.0722734 0 -0.00203488)
(0.0732827 0 -0.00214853)
(0.0741664 0 -0.00226088)
(0.0749315 0 -0.00237124)
(0.0755843 0 -0.00247893)
(0.0761311 0 -0.00258334)
(0.0765778 0 -0.00268385)
(0.0769299 0 -0.00277995)
(0.077193 0 -0.00287115)
(0.0773723 0 -0.00295703)
(0.0713803 0 -0.00190742)
(0.072358 0 -0.00201029)
(0.073212 0 -0.00211157)
(0.0739496 0 -0.00221067)
(0.0745775 0 -0.00230701)
(0.075102 0 -0.00240008)
(0.0755292 0 -0.00248937)
(0.0758648 0 -0.00257446)
(0.0761142 0 -0.00265498)
(0.0762826 0 -0.00273058)
(0.0705173 0 -0.00175381)
(0.0714678 0 -0.00184564)
(0.0722964 0 -0.00193572)
(0.0730104 0 -0.00202355)
(0.073617 0 -0.00210867)
(0.0741224 0 -0.00219062)
(0.0745329 0 -0.00226901)
(0.0748541 0 -0.00234349)
(0.0750916 0 -0.00241376)
(0.0752504 0 -0.00247956)
(0.0697029 0 -0.00157269)
(0.0706303 0 -0.00165305)
(0.0714372 0 -0.00173165)
(0.0721314 0 -0.00180806)
(0.0727198 0 -0.00188189)
(0.0732091 0 -0.00195277)
(0.0736054 0 -0.00202039)
(0.0739144 0 -0.00208445)
(0.0741416 0 -0.00214474)
(0.0742921 0 -0.00220105)
(0.0689573 0 -0.00136238)
(0.0698654 0 -0.0014307)
(0.0706545 0 -0.00149735)
(0.0713321 0 -0.00156197)
(0.0719055 0 -0.00162426)
(0.0723813 0 -0.00168392)
(0.0727658 0 -0.00174068)
(0.0730645 0 -0.00179434)
(0.0732831 0 -0.00184471)
(0.0734265 0 -0.00189163)
(0.0683032 0 -0.00112093)
(0.0691959 0 -0.0011764)
(0.0699705 0 -0.0012304)
(0.0706348 0 -0.00128266)
(0.0711961 0 -0.00133292)
(0.0716611 0 -0.00138096)
(0.0720359 0 -0.00142657)
(0.0723264 0 -0.00146959)
(0.0725378 0 -0.00150988)
(0.0726754 0 -0.00154733)
(0.067766 0 -0.000846043)
(0.0686469 0 -0.0008876)
(0.0694105 0 -0.000927996)
(0.0700647 0 -0.000967024)
(0.0706168 0 -0.0010045)
(0.0710734 0 -0.00104025)
(0.0714409 0 -0.00107414)
(0.0717249 0 -0.00110603)
(0.0719309 0 -0.00113585)
(0.0720639 0 -0.0011635)
(0.0673742 0 -0.000535142)
(0.068247 0 -0.000561383)
(0.0690031 0 -0.000586864)
(0.0696503 0 -0.000611454)
(0.0701961 0 -0.000635036)
(0.070647 0 -0.000657504)
(0.0710094 0 -0.000678768)
(0.0712891 0 -0.000698753)
(0.0714913 0 -0.000717399)
(0.071621 0 -0.000734658)
(0.06716 0 -0.000185318)
(0.0680285 0 -0.00019442)
(0.0687806 0 -0.000203254)
(0.0694242 0 -0.000211774)
(0.0699667 0 -0.000219939)
(0.0704146 0 -0.000227712)
(0.0707744 0 -0.000235062)
(0.0710517 0 -0.000241962)
(0.0712518 0 -0.000248393)
(0.0713798 0 -0.000254337)
(0.0931383 0 -0.00470866)
(0.0919193 0 -0.00464049)
(0.0920175 0 -0.00481022)
(0.092066 0 -0.00497732)
(0.0907047 0 -0.00456271)
(0.0907951 0 -0.00470949)
(0.0908425 0 -0.00485436)
(0.0894909 0 -0.00447652)
(0.089574 0 -0.00460469)
(0.0896189 0 -0.00473109)
(0.0882761 0 -0.00438177)
(0.088353 0 -0.00449451)
(0.0883952 0 -0.00460554)
(0.0870573 0 -0.00427756)
(0.0871279 0 -0.00437733)
(0.0871672 0 -0.00447583)
(0.0858349 0 -0.00416437)
(0.085899 0 -0.00425282)
(0.0859348 0 -0.00434008)
(0.0846111 0 -0.00404107)
(0.0846694 0 -0.00411972)
(0.0847017 0 -0.00419717)
(0.0833877 0 -0.00390658)
(0.0834408 0 -0.00397663)
(0.0834693 0 -0.00404546)
(0.0821682 0 -0.00375969)
(0.0822162 0 -0.00382213)
(0.0822411 0 -0.00388334)
(0.0809574 0 -0.00359903)
(0.0810006 0 -0.00365466)
(0.0810218 0 -0.00370908)
(0.0797615 0 -0.00342301)
(0.0798003 0 -0.00347251)
(0.0798178 0 -0.00352082)
(0.0785885 0 -0.00322987)
(0.0786231 0 -0.00327378)
(0.0786372 0 -0.00331652)
(0.0774482 0 -0.00301754)
(0.077479 0 -0.0030563)
(0.0774896 0 -0.00309393)
(0.0763523 0 -0.0027837)
(0.0763795 0 -0.00281766)
(0.076387 0 -0.00285055)
(0.0753146 0 -0.00252568)
(0.0753385 0 -0.0025551)
(0.0753431 0 -0.00258352)
(0.0743513 0 -0.00224041)
(0.0743724 0 -0.00226547)
(0.0743744 0 -0.00228962)
(0.0734815 0 -0.00192434)
(0.0735 0 -0.00194514)
(0.0734996 0 -0.00196513)
(0.0727268 0 -0.00157337)
(0.0727432 0 -0.0015899)
(0.0727407 0 -0.00160575)
(0.0721125 0 -0.00118268)
(0.0721272 0 -0.00119484)
(0.0721232 0 -0.00120647)
(0.0716677 0 -0.000746604)
(0.0716811 0 -0.000754163)
(0.071676 0 -0.000761383)
(0.0714254 0 -0.000258444)
(0.0714383 0 -0.00026104)
(0.0714325 0 -0.000263517)
(0.0920632 0 -0.00522665)
(0.0908477 0 -0.00507082)
(0.0906784 0 -0.00534564)
(0.0903291 0 -0.0055974)
(0.0897995 0 -0.00581944)
(0.0896291 0 -0.00492)
(0.0894864 0 -0.00516061)
(0.0891827 0 -0.00538313)
(0.0887152 0 -0.00558216)
(0.0880838 0 -0.00575326)
(0.08729 0 -0.00589307)
(0.0884068 0 -0.00477132)
(0.088283 0 -0.00498293)
(0.088014 0 -0.00517998)
(0.0875955 0 -0.00535808)
(0.087025 0 -0.00551337)
(0.0863015 0 -0.0056427)
(0.0854254 0 -0.00574371)
(0.0843974 0 -0.00581479)
(0.0871791 0 -0.00462234)
(0.0870689 0 -0.00480887)
(0.0868265 0 -0.00498356)
(0.0864466 0 -0.00514272)
(0.0859253 0 -0.00528301)
(0.0852596 0 -0.00540153)
(0.0844478 0 -0.00549594)
(0.0834883 0 -0.00556444)
(0.0823801 0 -0.00560583)
(0.0859463 0 -0.00446982)
(0.0858458 0 -0.00463498)
(0.0856237 0 -0.00479013)
(0.0852742 0 -0.00493225)
(0.0847923 0 -0.0050585)
(0.0841741 0 -0.00516631)
(0.083416 0 -0.00525345)
(0.0825149 0 -0.00531811)
(0.0814678 0 -0.00535887)
(0.0847109 0 -0.0043122)
(0.0846166 0 -0.00445868)
(0.0844095 0 -0.00459657)
(0.0840837 0 -0.00472334)
(0.0836335 0 -0.00483658)
(0.083054 0 -0.00493402)
(0.0823405 0 -0.00501361)
(0.0814887 0 -0.00507359)
(0.0804942 0 -0.00511249)
(0.0834755 0 -0.00414757)
(0.0833846 0 -0.00427759)
(0.0831885 0 -0.00440012)
(0.0828809 0 -0.00451303)
(0.0824559 0 -0.00461425)
(0.0819078 0 -0.00470179)
(0.0812313 0 -0.00477381)
(0.080421 0 -0.00482862)
(0.0794714 0 -0.00486479)
(0.0822437 0 -0.00397402)
(0.0821542 0 -0.0040894)
(0.0819658 0 -0.00419817)
(0.0816721 0 -0.00429852)
(0.0812669 0 -0.00438867)
(0.0807442 0 -0.00446687)
(0.0800981 0 -0.00453145)
(0.0793224 0 -0.00458088)
(0.0784109 0 -0.00461376)
(0.0810205 0 -0.00378955)
(0.0809309 0 -0.00389184)
(0.0807476 0 -0.00398822)
(0.0804643 0 -0.00407715)
(0.0800746 0 -0.0041571)
(0.0795724 0 -0.00422652)
(0.0789511 0 -0.00428394)
(0.0782042 0 -0.00432794)
(0.0773248 0 -0.00435721)
(0.0798124 0 -0.0035921)
(0.0797215 0 -0.00368258)
(0.0795414 0 -0.00376774)
(0.0792657 0 -0.00384626)
(0.078888 0 -0.00391681)
(0.0784019 0 -0.00397803)
(0.0778008 0 -0.00402861)
(0.0770777 0 -0.00406727)
(0.0762253 0 -0.0040928)
(0.0786275 0 -0.00337947)
(0.0785346 0 -0.00345921)
(0.0783561 0 -0.00353415)
(0.0780857 0 -0.00360313)
(0.0777171 0 -0.00366499)
(0.0772438 0 -0.00371857)
(0.0766589 0 -0.00376269)
(0.0759554 0 -0.0037962)
(0.0751255 0 -0.00381799)
(0.0774758 0 -0.00314924)
(0.0773803 0 -0.00321914)
(0.0772022 0 -0.00328469)
(0.0769353 0 -0.00334489)
(0.0765735 0 -0.00339873)
(0.0761101 0 -0.00344519)
(0.0755382 0 -0.00348324)
(0.0748505 0 -0.00351185)
(0.0740392 0 -0.00353002)
(0.0763692 0 -0.00289877)
(0.0762706 0 -0.00295957)
(0.076092 0 -0.00301643)
(0.0758273 0 -0.00306849)
(0.0754704 0 -0.00311489)
(0.0750145 0 -0.00315472)
(0.0744528 0 -0.0031871)
(0.073778 0 -0.00321111)
(0.072982 0 -0.00322586)
(0.0753214 0 -0.0026251)
(0.0752197 0 -0.00267736)
(0.07504 0 -0.0027261)
(0.0747765 0 -0.00277057)
(0.0744228 0 -0.00281003)
(0.0739726 0 -0.00284369)
(0.0734189 0 -0.00287078)
(0.0727542 0 -0.00289052)
(0.0719706 0 -0.00290211)
(0.074349 0 -0.00232486)
(0.0742441 0 -0.00236904)
(0.074063 0 -0.0024101)
(0.0737997 0 -0.00244741)
(0.0734483 0 -0.00248033)
(0.0730022 0 -0.00250822)
(0.0724545 0 -0.00253041)
(0.0717978 0 -0.00254621)
(0.071024 0 -0.00255496)
(0.073471 0 -0.00199423)
(0.073363 0 -0.0020306)
(0.0731802 0 -0.00206428)
(0.0729168 0 -0.00209476)
(0.0725666 0 -0.00212149)
(0.0721234 0 -0.00214395)
(0.0715801 0 -0.00216157)
(0.0709295 0 -0.00217379)
(0.0701635 0 -0.00218005)
(0.0727094 0 -0.00162878)
(0.0725987 0 -0.00165746)
(0.0724142 0 -0.00168394)
(0.0721502 0 -0.00170778)
(0.0718007 0 -0.00172856)
(0.0713593 0 -0.00174585)
(0.0708192 0 -0.00175921)
(0.0701731 0 -0.00176819)
(0.0694129 0 -0.00177233)
(0.0720895 0 -0.00122334)
(0.0719765 0 -0.00124429)
(0.0717905 0 -0.00126356)
(0.0715258 0 -0.00128082)
(0.0711765 0 -0.00129577)
(0.0707363 0 -0.00130809)
(0.0701984 0 -0.00131744)
(0.0695553 0 -0.0013235)
(0.0687993 0 -0.00132593)
(0.0716407 0 -0.000771842)
(0.071526 0 -0.000784794)
(0.0713388 0 -0.000796665)
(0.0710735 0 -0.000807252)
(0.0707241 0 -0.000816359)
(0.0702845 0 -0.000823785)
(0.0697478 0 -0.000829322)
(0.0691067 0 -0.000832763)
(0.0683533 0 -0.000833904)
(0.0713964 0 -0.000267103)
(0.0712807 0 -0.000271535)
(0.0710929 0 -0.000275587)
(0.0708271 0 -0.000279188)
(0.0704777 0 -0.000282271)
(0.0700383 0 -0.000284764)
(0.0695021 0 -0.000286597)
(0.068862 0 -0.000287697)
(0.0681099 0 -0.000287994)
)
;

boundaryField
{
    inlet
    {
        type            cellMotion;
        value           nonuniform 0();
    }
    outlet
    {
        type            cellMotion;
        value           nonuniform 0();
    }
    flap
    {
        type            cellMotion;
        value           nonuniform 0();
    }
    upperWall
    {
        type            slip;
    }
    lowerWall
    {
        type            slip;
    }
    frontAndBack
    {
        type            empty;
    }
    procBoundary1to0
    {
        type            processor;
        value           nonuniform List<vector> 
18
(
(0.0787128 0 -0.00219382)
(0.0781042 0 -0.00225651)
(0.0781042 0 -0.00225651)
(0.0759503 0 -0.00212485)
(0.0752587 0 -0.00214808)
(0.074504 0 -0.00214859)
(0.0736998 0 -0.00212636)
(0.0728598 0 -0.0020812)
(0.0719981 0 -0.00201273)
(0.0711293 0 -0.00192037)
(0.0702691 0 -0.00180331)
(0.0694347 0 -0.00166054)
(0.0686445 0 -0.0014908)
(0.0679191 0 -0.00129258)
(0.0672814 0 -0.00106412)
(0.0667567 0 -0.000803418)
(0.0663734 0 -0.000508196)
(0.0661635 0 -0.000175963)
)
;
    }
    procBoundary1to2
    {
        type            processor;
        value           nonuniform List<vector> 
17
(
(0.0811188 0 -0.00561886)
(0.0802693 0 -0.00537434)
(0.0793502 0 -0.00512875)
(0.0783744 0 -0.00488067)
(0.0773544 0 -0.00462842)
(0.076303 0 -0.00437009)
(0.075233 0 -0.00410358)
(0.074158 0 -0.00382652)
(0.0730927 0 -0.0035363)
(0.0720528 0 -0.00323)
(0.0710557 0 -0.00290433)
(0.0701207 0 -0.00255556)
(0.0692693 0 -0.0021794)
(0.0685257 0 -0.00177087)
(0.0679171 0 -0.00132416)
(0.0674744 0 -0.000832389)
(0.0672327 0 -0.000287374)
)
;
    }
    procBoundary1to3
    {
        type            processor;
        value           nonuniform List<vector> 9((0.0770898 0 -0.000449807) (0.0782286 0 -0.000746287) (0.0790532 0 -0.00102097) (0.0795972 0 -0.00127044) (0.0798947 0 -0.0014931) (0.0799767 0 -0.00168752) (0.0798751 0 -0.00185388) (0.0796163 0 -0.00199325) (0.0792226 0 -0.00210634));
    }
    procBoundary1to4
    {
        type            processor;
        value           nonuniform List<vector> 
30
(
(0.0783629 0 -0.000247786)
(0.0824829 0 -0.000791454)
(0.0824829 0 -0.000791454)
(0.0852136 0 -0.00103897)
(0.0882195 0 -0.00173301)
(0.0882195 0 -0.00173301)
(0.0904613 0 -0.00211519)
(0.0919097 0 -0.00284441)
(0.0919097 0 -0.00284441)
(0.0933658 0 -0.00331502)
(0.0934148 0 -0.0039377)
(0.0934148 0 -0.0039377)
(0.0940851 0 -0.00440906)
(0.0943653 0 -0.00476588)
(0.0932443 0 -0.00490665)
(0.0932443 0 -0.00490665)
(0.0932918 0 -0.00510178)
(0.0932762 0 -0.00539284)
(0.0918571 0 -0.00554271)
(0.0918571 0 -0.00554271)
(0.0914477 0 -0.00582814)
(0.0908386 0 -0.00607501)
(0.0890918 0 -0.00600663)
(0.0890918 0 -0.00600663)
(0.0882116 0 -0.0061557)
(0.0863363 0 -0.00599925)
(0.0863363 0 -0.00599925)
(0.0852264 0 -0.00607063)
(0.0832176 0 -0.00585486)
(0.0832176 0 -0.00585486)
)
;
    }
}


// ************************************************************************* //
