/*--------------------------------*- C++ -*----------------------------------*\
| =========                 |                                                 |
| \\      /  F ield         | OpenFOAM: The Open Source CFD Toolbox           |
|  \\    /   O peration     | Version:  dev                                   |
|   \\  /    A nd           | Web:      www.OpenFOAM.org                      |
|    \\/     M anipulation  |                                                 |
\*---------------------------------------------------------------------------*/
FoamFile
{
    version     2.0;
    format      ascii;
    class       surfaceScalarField;
    location    "1.47";
    object      meshPhi;
}
// * * * * * * * * * * * * * * * * * * * * * * * * * * * * * * * * * * * * * //

dimensions      [0 3 -1 0 0 0 0];

internalField   nonuniform List<scalar> 
879
(
-9.72257e-07
-4.60168e-07
-1.38889e-07
-8.87714e-07
-4.78265e-07
-4.48699e-06
-2.43029e-07
2.91907e-06
-8.97296e-07
-5.26715e-07
-4.41478e-06
-3.38103e-07
-1.20885e-05
2.77522e-06
9.49374e-06
-8.57608e-07
-6.01079e-07
-4.36036e-06
-5.29794e-07
-1.1932e-05
2.55601e-06
-2.40697e-05
9.23623e-06
1.94606e-05
-7.53914e-07
-7.07738e-07
-4.15882e-06
-8.21635e-07
-1.16676e-05
2.13577e-06
-2.36398e-05
8.76902e-06
-3.97792e-05
1.89354e-05
3.21199e-05
-5.62247e-07
-8.51539e-07
-3.77572e-06
-1.22913e-06
-1.10968e-05
1.50714e-06
-2.29108e-05
7.96529e-06
-3.88306e-05
1.80283e-05
-5.80645e-05
3.11277e-05
4.64618e-05
-2.60638e-07
-1.03596e-06
-3.16775e-06
-1.76186e-06
-1.01725e-05
6.54348e-07
-2.16702e-05
6.81882e-06
-3.73195e-05
1.6623e-05
-5.62896e-05
2.95296e-05
-7.74844e-05
4.47326e-05
-9.96236e-05
6.13059e-05
7.80987e-05
1.71043e-07
-1.26305e-06
-2.29664e-06
-2.4258e-06
-8.83649e-06
-4.32404e-07
-1.98505e-05
5.31159e-06
-3.50278e-05
1.47073e-05
-5.35941e-05
2.72371e-05
-7.4466e-05
4.21239e-05
-9.64211e-05
5.84345e-05
-0.000117948
7.51397e-05
9.10862e-05
7.52733e-07
-1.53337e-06
-1.1232e-06
-3.22353e-06
-7.034e-06
-1.7561e-06
-1.73779e-05
3.44366e-06
-3.18716e-05
1.22787e-05
-4.97818e-05
2.42509e-05
-7.00768e-05
3.86113e-05
-9.15448e-05
5.44525e-05
-0.000112891
7.07763e-05
-0.000132775
8.66121e-05
-0.000150016
0.000101075
0.000113253
1.50334e-06
-1.84606e-06
3.89011e-07
-4.15102e-06
-4.71495e-06
-3.30948e-06
-1.41892e-05
1.22454e-06
-2.77684e-05
9.34961e-06
-4.47586e-05
2.05862e-05
-6.41764e-05
3.42167e-05
-8.48575e-05
4.93702e-05
-0.000105572
6.51049e-05
-0.000125201
8.05001e-05
-0.000142671
9.46907e-05
-0.000157111
0.000107006
-0.000167802
0.000116915
0.00012387
2.43825e-06
-2.19734e-06
2.26962e-06
-5.19765e-06
-1.83615e-06
-5.07548e-06
-1.02291e-05
-1.32147e-06
-2.2652e-05
5.95275e-06
-3.84481e-05
1.62855e-05
-5.66824e-05
2.89944e-05
-7.62386e-05
4.32462e-05
-9.5973e-05
5.81556e-05
-0.000114792
7.2862e-05
-0.000131682
8.65531e-05
-0.000146011
9.85693e-05
-0.000157123
0.000108381
-0.000164667
0.000115741
0.000120428
3.57062e-06
-2.58159e-06
4.54355e-06
-6.34649e-06
1.63857e-06
-7.02694e-06
-5.45447e-06
-4.15579e-06
-1.64749e-05
2.14155e-06
-3.07949e-05
1.1414e-05
-4.75374e-05
2.30211e-05
-6.5631e-05
3.61778e-05
-8.39935e-05
5.00427e-05
-0.00010159
6.38157e-05
-0.000117466
7.67356e-05
-0.000130923
8.81684e-05
-0.000141369
9.76239e-05
-0.000148661
0.000104772
-0.000152472
0.00010956
-0.000152356
0.000111947
0.00011183
4.91044e-06
-2.99073e-06
7.22794e-06
-7.57274e-06
5.73482e-06
-9.12292e-06
1.67677e-07
-7.22506e-06
-9.20732e-06
-2.01396e-06
-2.1774e-05
6.06985e-06
-3.67105e-05
1.64123e-05
-5.30119e-05
2.82905e-05
-6.96281e-05
4.0915e-05
-8.55954e-05
5.35311e-05
-9.99995e-05
6.54389e-05
-0.00011212
7.60292e-05
-0.000121438
8.48465e-05
-0.000127628
9.15829e-05
-0.000130634
9.60991e-05
-0.000130251
9.83562e-05
-0.000126534
9.85147e-05
-0.000119722
9.68284e-05
9.33431e-05
6.46209e-06
-3.41242e-06
1.03314e-05
-8.844e-06
1.04624e-05
-1.13114e-05
6.6482e-06
-1.04515e-05
-8.39737e-07
-6.4154e-06
-1.13947e-05
3.73273e-07
-2.42254e-05
9.32488e-06
-3.84085e-05
1.97678e-05
-5.29339e-05
3.09779e-05
-6.68835e-05
4.22418e-05
-7.94134e-05
5.29215e-05
-8.98057e-05
6.24569e-05
-9.75803e-05
7.04175e-05
-0.000102394
7.65192e-05
-0.000104085
8.06051e-05
-0.000102581
8.26436e-05
-9.81055e-05
8.27333e-05
-9.07653e-05
8.10413e-05
-8.06205e-05
7.78104e-05
-6.78986e-05
7.32494e-05
6.70974e-05
8.22669e-06
-3.8345e-06
1.38596e-05
-1.0125e-05
1.58228e-05
-1.35348e-05
1.39756e-05
-1.37517e-05
8.61017e-06
-1.09479e-05
3.09572e-07
-5.53303e-06
-1.01521e-05
1.93714e-06
-2.19103e-05
1.08299e-05
-3.40369e-05
2.04881e-05
-4.56455e-05
3.02584e-05
-5.59705e-05
3.95522e-05
-6.43422e-05
4.78711e-05
-7.02811e-05
5.48158e-05
-7.34585e-05
6.01136e-05
-7.3683e-05
6.36102e-05
-7.09076e-05
6.5263e-05
-6.52331e-05
6.514e-05
-5.67971e-05
6.33926e-05
-4.58815e-05
6.02434e-05
-3.27166e-05
5.58888e-05
1.02037e-05
-4.24446e-06
1.78121e-05
-1.13774e-05
2.18122e-05
-1.57259e-05
2.21342e-05
-1.70315e-05
1.91035e-05
-1.54853e-05
1.32825e-05
-1.14854e-05
5.41231e-06
-5.55023e-06
-3.68202e-06
1.73296e-06
-1.31638e-05
9.76231e-06
-2.22079e-05
1.79548e-05
-3.00988e-05
2.57742e-05
-3.62296e-05
3.27672e-05
-4.01256e-05
3.85719e-05
-4.14651e-05
4.29301e-05
-4.00541e-05
4.56923e-05
-3.58364e-05
4.68116e-05
-2.88772e-05
4.63361e-05
-1.9325e-05
4.43929e-05
-7.42464e-06
4.1178e-05
3.69069e-05
1.23906e-05
-4.62729e-06
2.21785e-05
-1.25563e-05
2.84083e-05
-1.78086e-05
3.10879e-05
-2.01799e-05
3.05696e-05
-1.98776e-05
2.74086e-05
-1.72867e-05
2.23022e-05
-1.28911e-05
1.60239e-05
-7.22518e-06
9.34733e-06
-8.38032e-07
3.0195e-06
5.74462e-06
-2.28545e-06
1.20427e-05
-6.00632e-06
1.76445e-05
-7.69574e-06
2.22227e-05
-7.04226e-06
2.55423e-05
-3.8611e-06
2.74631e-05
1.90989e-06
2.79349e-05
1.02249e-05
2.69884e-05
2.09515e-05
2.47213e-05
3.38708e-05
2.12827e-05
1.69552e-05
1.4782e-05
-4.96806e-06
2.69357e-05
-1.36123e-05
3.55639e-05
-1.96961e-05
4.07529e-05
-2.30687e-05
4.28799e-05
-2.39524e-05
4.24976e-05
-2.27169e-05
4.02659e-05
-1.98129e-05
3.68994e-05
-1.5727e-05
3.31222e-05
-1.09539e-05
2.9618e-05
-5.96722e-06
2.70075e-05
-1.19573e-06
2.58109e-05
2.9938e-06
2.64388e-05
6.30938e-06
2.91821e-05
8.54002e-06
3.42154e-05
9.5567e-06
4.16038e-05
9.30809e-06
5.13163e-05
7.81178e-06
6.3243e-05
5.14174e-06
7.71954e-05
1.41693e-06
-3.00381e-06
1.73525e-05
-5.24434e-06
3.20261e-05
-1.44804e-05
4.31847e-05
-2.12837e-05
5.0992e-05
-2.55537e-05
5.58544e-05
-2.75263e-05
5.83225e-05
-2.75547e-05
5.90264e-05
-2.60546e-05
5.86322e-05
-2.34688e-05
5.78095e-05
-2.02411e-05
5.71877e-05
-1.67927e-05
5.73306e-05
-1.35033e-05
5.87131e-05
-1.06962e-05
6.1709e-05
-8.629e-06
6.65853e-05
-7.4889e-06
7.35049e-05
-7.39237e-06
8.25334e-05
-8.38948e-06
9.36516e-05
-1.04716e-05
0.00010677
-1.35819e-05
0.000121725
-1.76221e-05
-2.2166e-05
2.00494e-05
-5.43065e-06
3.73571e-05
-1.50928e-05
5.1141e-05
-2.24679e-05
6.16408e-05
-2.74981e-05
6.92971e-05
-3.04274e-05
7.46564e-05
-3.15912e-05
7.83226e-05
-3.13708e-05
8.09204e-05
-3.01653e-05
8.30657e-05
-2.83696e-05
8.53333e-05
-2.63555e-05
8.82342e-05
-2.44557e-05
9.21975e-05
-2.29527e-05
9.75611e-05
-2.20714e-05
0.000104567
-2.19755e-05
0.000113366
-2.27683e-05
0.000124022
-2.44967e-05
0.000136524
-2.71573e-05
0.000150801
-3.07055e-05
0.000166706
-3.50584e-05
-3.97389e-05
2.28173e-05
-5.50909e-06
4.28334e-05
-1.53961e-05
5.9305e-05
-2.31616e-05
7.25414e-05
-2.87812e-05
8.30166e-05
-3.25009e-05
9.12743e-05
-3.46358e-05
9.78937e-05
-3.55324e-05
0.000103461
-3.55473e-05
0.000108542
-3.50287e-05
0.00011366
-3.43015e-05
0.000119277
-3.36547e-05
0.000125778
-3.33324e-05
0.000133467
-3.35287e-05
0.000142562
-3.4385e-05
0.0001532
-3.59912e-05
0.000165442
-3.83892e-05
0.000179282
-4.15784e-05
0.000194662
-4.55225e-05
0.000211453
-5.01508e-05
-5.49532e-05
2.56106e-05
-5.46483e-06
4.83675e-05
-1.53454e-05
6.7553e-05
-2.32885e-05
8.35361e-05
-2.92954e-05
9.68193e-05
-3.3607e-05
0.000107945
-3.6515e-05
0.000117469
-3.8331e-05
0.000125943
-3.937e-05
0.000133887
-3.99358e-05
0.000141778
-4.03094e-05
0.000150031
-4.07389e-05
0.000158991
-4.1433e-05
0.000168931
-4.2557e-05
0.000180044
-4.42311e-05
0.000192454
-4.65319e-05
0.000206217
-4.94956e-05
0.000221333
-5.31221e-05
0.00023775
-5.73812e-05
0.000255354
-6.22113e-05
-6.70883e-05
2.83853e-05
-5.28559e-06
5.38717e-05
-1.4903e-05
7.57566e-05
-2.27841e-05
9.44575e-05
-2.89485e-05
0.000110501
-3.3625e-05
0.000124426
-3.70789e-05
0.000136772
-3.95865e-05
0.000148055
-4.14219e-05
0.000158755
-4.28471e-05
0.000169308
-4.41016e-05
0.000180086
-4.53958e-05
0.000191399
-4.69056e-05
0.000203489
-4.87696e-05
0.000216527
-5.10885e-05
0.000230624
-5.39261e-05
0.00024583
-5.73121e-05
0.000262145
-6.12458e-05
0.000279527
-6.57011e-05
0.000297868
-7.06237e-05
-7.54938e-05
3.10948e-05
-4.96205e-06
5.92539e-05
-1.40401e-05
8.37806e-05
-2.15985e-05
0.000105131
-2.76681e-05
0.000123848
-3.24595e-05
0.000140471
-3.62086e-05
0.00015552
-3.91551e-05
0.000169482
-4.1534e-05
0.000182803
-4.35666e-05
0.000195879
-4.54542e-05
0.000209048
-4.7372e-05
0.000222586
-4.94658e-05
0.000236706
-5.18499e-05
0.000251562
-5.46066e-05
0.000267249
-5.77877e-05
0.000283811
-6.14165e-05
0.000301247
-6.54912e-05
0.000319517
-6.99883e-05
0.000338525
-7.48598e-05
-7.96084e-05
3.36916e-05
-4.48857e-06
6.44196e-05
-1.27387e-05
9.14865e-05
-1.96993e-05
0.000115375
-2.54062e-05
0.000136642
-3.00462e-05
0.000155825
-3.38225e-05
0.000173426
-3.69378e-05
0.000189908
-3.95883e-05
0.000205687
-4.19568e-05
0.000221127
-4.42084e-05
0.000236532
-4.64858e-05
0.000252149
-4.89071e-05
0.00026817
-5.15642e-05
0.000284726
-5.45227e-05
0.000301901
-5.78234e-05
0.00031973
-6.14836e-05
0.000338211
-6.55002e-05
0.000357303
-6.9852e-05
0.000376917
-7.44968e-05
-7.89771e-05
3.61283e-05
-3.86371e-06
6.92743e-05
-1.09933e-05
9.8734e-05
-1.70743e-05
0.000125008
-2.21431e-05
0.000148661
-2.6357e-05
0.000170227
-2.98837e-05
0.000190197
-3.28882e-05
0.000209011
-3.55281e-05
0.000227061
-3.79493e-05
0.000244681
-4.02824e-05
0.00026215
-4.264e-05
0.000279691
-4.51144e-05
0.000297471
-4.77771e-05
0.000315606
-5.06787e-05
0.000334167
-5.38499e-05
0.000353181
-5.73028e-05
0.00037264
-6.10332e-05
0.000392503
-6.50226e-05
0.000412684
-6.92347e-05
-7.32696e-05
3.83592e-05
-3.09058e-06
7.3725e-05
-8.81184e-06
0.000105383
-1.37347e-05
0.000133842
-1.78914e-05
0.000159674
-2.14056e-05
0.000183409
-2.4407e-05
0.000205527
-2.70214e-05
0.000226454
-2.9368e-05
0.000246559
-3.15567e-05
0.000266155
-3.36853e-05
0.000285499
-3.58375e-05
0.000304792
-3.80817e-05
0.000324183
-4.04706e-05
0.000343775
-4.30411e-05
0.000363625
-4.5815e-05
0.000383751
-4.88002e-05
0.000404139
-5.19921e-05
0.000424746
-5.53753e-05
0.000445487
-5.89204e-05
-6.23035e-05
4.03416e-05
-2.17703e-06
7.76823e-05
-6.21682e-06
0.000111293
-9.71596e-06
0.000141688
-1.26993e-05
0.000169443
-1.52529e-05
0.000195085
-1.74656e-05
0.000219089
-1.94229e-05
0.000241869
-2.12053e-05
0.00026378
-2.28869e-05
0.000285119
-2.4533e-05
0.000306125
-2.61998e-05
0.000326983
-2.79329e-05
0.000347829
-2.97671e-05
0.000368751
-3.17267e-05
0.000389796
-3.38258e-05
0.000410975
-3.60688e-05
0.000432267
-3.84517e-05
0.000453624
-4.0963e-05
0.000474959
-4.35813e-05
-4.6078e-05
4.20394e-05
-1.1354e-06
8.1064e-05
-3.24511e-06
0.000116329
-5.07987e-06
0.000148352
-6.65405e-06
0.000177714
-8.01241e-06
0.000204946
-9.20032e-06
0.00023052
-1.02613e-05
0.000254844
-1.12362e-05
0.000278267
-1.21624e-05
0.000301073
-1.30731e-05
0.000323494
-1.39966e-05
0.000345703
-1.49559e-05
0.000367825
-1.59686e-05
0.00038994
-1.70467e-05
0.000412087
-1.81972e-05
0.000434269
-1.94221e-05
0.000456459
-2.07187e-05
0.000478606
-2.20804e-05
0.00050062
-2.34947e-05
-2.4846e-05
4.34504e-05
8.3818e-05
0.00012037
0.000153635
0.000184203
0.000212613
0.000239342
0.000264799
0.000289331
0.000313224
0.000336703
0.00035994
0.000383054
0.000406122
0.000429176
0.000452217
0.000475213
0.00049811
0.000520819
)
;

boundaryField
{
    inlet
    {
        type            calculated;
        value           uniform 0;
    }
    outlet
    {
        type            calculated;
        value           nonuniform 0();
    }
    flap
    {
        type            calculated;
        value           nonuniform 0();
    }
    upperWall
    {
        type            calculated;
        value           nonuniform List<scalar> 
20
(
0
0
0
0
0
0
0
0
0
0
0
0
0
0
0
0
-4.44131e-15
0
0
0
)
;
    }
    lowerWall
    {
        type            calculated;
        value           nonuniform 0();
    }
    frontAndBack
    {
        type            empty;
        value           nonuniform 0();
    }
    procBoundary0to1
    {
        type            processor;
        value           nonuniform List<scalar> 
18
(
-5.23548e-05
-1.71463e-05
5.02178e-05
6.34749e-06
4.82697e-05
9.22656e-05
0.000137441
0.000183036
0.000228365
0.000272808
0.000315818
0.000356926
0.000395734
0.0004319
0.000465115
0.000495057
0.0005213
0.000542133
)
;
    }
    procBoundary0to3
    {
        type            processor;
        value           nonuniform List<scalar> 
34
(
3.71178e-07
-3.12066e-07
-5.01958e-06
-3.40368e-06
-1.26932e-05
-1.00122e-05
-2.48084e-05
-2.00718e-05
-4.07631e-05
-3.29353e-05
-5.94486e-05
-4.76317e-05
-7.95184e-05
-6.31072e-05
-7.96247e-05
-0.000120665
-9.35765e-05
-0.000137179
-0.000105174
-0.00011625
-0.000163268
-0.000122336
-0.000127591
-0.000173901
-0.000127144
-0.000167718
-0.000122025
-0.000120531
-0.000148407
-0.000109366
-0.000104839
-0.000109855
-8.81549e-05
-8.12278e-05
)
;
    }
}


// ************************************************************************* //
