/*--------------------------------*- C++ -*----------------------------------*\
| =========                 |                                                 |
| \\      /  F ield         | OpenFOAM: The Open Source CFD Toolbox           |
|  \\    /   O peration     | Version:  dev                                   |
|   \\  /    A nd           | Web:      www.OpenFOAM.org                      |
|    \\/     M anipulation  |                                                 |
\*---------------------------------------------------------------------------*/
FoamFile
{
    version     2.0;
    format      ascii;
    class       volVectorField;
    location    "2.44";
    object      cellDisplacement;
}
// * * * * * * * * * * * * * * * * * * * * * * * * * * * * * * * * * * * * * //

dimensions      [0 1 0 0 0 0 0];

internalField   nonuniform List<vector> 
2790
(
(0.011764 0 -5.3506e-05)
(0.0335457 0 -0.00015294)
(0.0520499 0 -0.000239566)
(0.0675627 0 -0.000315736)
(0.0804045 0 -0.000383003)
(0.0908622 0 -0.000442827)
(0.0991818 0 -0.000496145)
(0.105576 0 -0.000543477)
(0.11023 0 -0.000584818)
(0.113308 0 -0.000620158)
(0.114951 0 -0.000649232)
(0.115284 0 -0.000671675)
(0.114418 0 -0.000688281)
(0.112449 0 -0.000694949)
(0.109466 0 -0.000691883)
(0.10555 0 -0.000677685)
(0.100776 0 -0.000650589)
(0.0952178 0 -0.000608623)
(0.0889485 0 -0.000549342)
(0.0820416 0 -0.000469897)
(0.0745742 0 -0.000367009)
(0.0666306 0 -0.000236947)
(0.0583055 0 -7.55316e-05)
(0.04971 0 0.000121802)
(0.0409783 0 0.000359914)
(0.0322782 0 0.000644316)
(0.0238767 0 0.000983569)
(0.0161575 0 0.00138255)
(0.00975438 0 0.00183816)
(0.00611013 0 0.00228379)
(0.0117801 0 -0.000160746)
(0.0335935 0 -0.000459519)
(0.0521298 0 -0.000719885)
(0.0676739 0 -0.000949009)
(0.0805473 0 -0.00115138)
(0.0910402 0 -0.00133151)
(0.099399 0 -0.00149222)
(0.105836 0 -0.00163515)
(0.110539 0 -0.00176017)
(0.113671 0 -0.00186734)
(0.115375 0 -0.00195585)
(0.115777 0 -0.00202407)
(0.114986 0 -0.00206972)
(0.113106 0 -0.0020908)
(0.110224 0 -0.00208362)
(0.106421 0 -0.00204364)
(0.101776 0 -0.0019656)
(0.0963657 0 -0.00184392)
(0.090266 0 -0.00167143)
(0.0835547 0 -0.00143989)
(0.0763143 0 -0.00113984)
(0.0686363 0 -0.000760532)
(0.0606262 0 -0.000289942)
(0.0524111 0 0.000285073)
(0.0441525 0 0.000978187)
(0.0360193 0 0.0018065)
(0.0282892 0 0.00278197)
(0.0214017 0 0.0039058)
(0.0161333 0 0.00515085)
(0.0141679 0 0.00627224)
(0.0118123 0 -0.000268053)
(0.0336891 0 -0.000766337)
(0.0522896 0 -0.00120068)
(0.0678958 0 -0.00158344)
(0.0808318 0 -0.0019214)
(0.0913952 0 -0.00222258)
(0.0998323 0 -0.00249167)
(0.106356 0 -0.00273174)
(0.111154 0 -0.00294205)
(0.114394 0 -0.00312312)
(0.11622 0 -0.0032737)
(0.116759 0 -0.00339093)
(0.116123 0 -0.00346935)
(0.114419 0 -0.0035099)
(0.111736 0 -0.00350491)
(0.10816 0 -0.00344696)
(0.103772 0 -0.00332737)
(0.098655 0 -0.00313806)
(0.0928916 0 -0.00286751)
(0.0865674 0 -0.00250297)
(0.0797743 0 -0.00202991)
(0.0726157 0 -0.00143203)
(0.0652125 0 -0.000691415)
(0.0577128 0 0.000211171)
(0.0503285 0 0.00129336)
(0.0433065 0 0.0025713)
(0.0369763 0 0.00404623)
(0.0317735 0 0.00570406)
(0.0284353 0 0.00745542)
(0.0292341 0 0.00881578)
(0.0118602 0 -0.000375486)
(0.0338308 0 -0.0010736)
(0.0525285 0 -0.00168225)
(0.068226 0 -0.00221662)
(0.0812536 0 -0.00269001)
(0.0919219 0 -0.00311257)
(0.100476 0 -0.00349072)
(0.107128 0 -0.00382975)
(0.112067 0 -0.00412702)
(0.115466 0 -0.00438453)
(0.117472 0 -0.00460075)
(0.118215 0 -0.00477233)
(0.117811 0 -0.00489436)
(0.116368 0 -0.00496306)
(0.113981 0 -0.0049705)
(0.110743 0 -0.00490737)
(0.106733 0 -0.00476117)
(0.102052 0 -0.00452421)
(0.0967863 0 -0.00418058)
(0.0910361 0 -0.00371469)
(0.0849076 0 -0.00310885)
(0.0785227 0 -0.00234385)
(0.0720261 0 -0.00139955)
(0.0655874 0 -0.000254513)
(0.0594387 0 0.00110753)
(0.0539067 0 0.00268996)
(0.0494939 0 0.00446654)
(0.0467933 0 0.00635952)
(0.0463688 0 0.00822719)
(0.050502 0 0.00932417)
(0.011924 0 -0.000482925)
(0.0340174 0 -0.00138097)
(0.0528285 0 -0.00216388)
(0.0686475 0 -0.00285057)
(0.0818097 0 -0.00346083)
(0.0926179 0 -0.00400625)
(0.101327 0 -0.004495)
(0.108144 0 -0.00493134)
(0.113267 0 -0.00531789)
(0.116876 0 -0.00565563)
(0.119119 0 -0.00594267)
(0.12013 0 -0.00617538)
(0.120029 0 -0.00634859)
(0.118927 0 -0.00645632)
(0.116929 0 -0.00649005)
(0.114136 0 -0.00644023)
(0.110637 0 -0.00629401)
(0.106526 0 -0.00603676)
(0.101911 0 -0.00565302)
(0.0969082 0 -0.00512739)
(0.0916414 0 -0.00444107)
(0.0862527 0 -0.00357456)
(0.0809144 0 -0.00250937)
(0.0758722 0 -0.00123554)
(0.0713727 0 0.000255635)
(0.0677756 0 0.00195537)
(0.0656069 0 0.0038052)
(0.0658065 0 0.00562247)
(0.0691215 0 0.00714681)
(0.0770741 0 0.00749569)
(0.0120023 0 -0.000589711)
(0.0342466 0 -0.00168661)
(0.0532016 0 -0.00264348)
(0.0691719 0 -0.00348496)
(0.0824961 0 -0.00423329)
(0.0934761 0 -0.00490319)
(0.102369 0 -0.00550444)
(0.109392 0 -0.00604117)
(0.114749 0 -0.00652142)
(0.118618 0 -0.00694467)
(0.121152 0 -0.00730925)
(0.122492 0 -0.00761153)
(0.122762 0 -0.00784611)
(0.12208 0 -0.00800605)
(0.120555 0 -0.00808225)
(0.118301 0 -0.00806622)
(0.115425 0 -0.00794601)
(0.112017 0 -0.00770142)
(0.108192 0 -0.00731706)
(0.104102 0 -0.00678306)
(0.0998887 0 -0.00608133)
(0.095719 0 -0.00519569)
(0.0917968 0 -0.00411365)
(0.0883767 0 -0.00283129)
(0.085813 0 -0.00136762)
(0.0845871 0 0.000224612)
(0.0851516 0 0.00186637)
(0.0884486 0 0.00330865)
(0.0957745 0 0.00406672)
(0.108063 0 0.00322372)
(0.0120942 0 -0.00069573)
(0.0345164 0 -0.00199027)
(0.0536432 0 -0.0031205)
(0.069791 0 -0.00411626)
(0.0833037 0 -0.00500303)
(0.0944853 0 -0.00579855)
(0.103597 0 -0.00651478)
(0.110866 0 -0.00715898)
(0.116497 0 -0.00773775)
(0.120671 0 -0.00825242)
(0.123548 0 -0.00870206)
(0.125273 0 -0.00908341)
(0.125979 0 -0.00939123)
(0.125787 0 -0.00961842)
(0.124814 0 -0.00975479)
(0.123189 0 -0.00979577)
(0.121023 0 -0.0097269)
(0.118438 0 -0.00953378)
(0.115558 0 -0.00920185)
(0.112526 0 -0.00871691)
(0.10953 0 -0.00807064)
(0.106752 0 -0.0072515)
(0.104483 0 -0.00626916)
(0.102968 0 -0.00512678)
(0.102605 0 -0.00386467)
(0.103919 0 -0.00257272)
(0.107629 0 -0.00143147)
(0.114364 0 -0.000693612)
(0.125858 0 -0.00105679)
(0.142666 0 -0.00346162)
(0.0121987 0 -0.000800847)
(0.0348241 0 -0.00229159)
(0.0541483 0 -0.0035944)
(0.0704984 0 -0.00474406)
(0.0842251 0 -0.00576973)
(0.0956363 0 -0.00669218)
(0.104999 0 -0.00752578)
(0.112547 0 -0.00828007)
(0.118487 0 -0.00896188)
(0.123007 0 -0.00957398)
(0.126273 0 -0.0101167)
(0.128435 0 -0.0105874)
(0.129633 0 -0.0109818)
(0.129999 0 -0.0112939)
(0.129664 0 -0.0115171)
(0.128751 0 -0.0116418)
(0.12739 0 -0.0116571)
(0.125724 0 -0.0115546)
(0.123905 0 -0.011325)
(0.122065 0 -0.0109511)
(0.120446 0 -0.0104404)
(0.119255 0 -0.00978931)
(0.118776 0 -0.00901347)
(0.119357 0 -0.00815148)
(0.121479 0 -0.00728258)
(0.125615 0 -0.00651624)
(0.132594 0 -0.00610998)
(0.143274 0 -0.00643017)
(0.158911 0 -0.00818835)
(0.180103 0 -0.0123976)
(0.0123156 0 -0.000905409)
(0.0351685 0 -0.00259159)
(0.0547144 0 -0.00406682)
(0.0712913 0 -0.00537079)
(0.085257 0 -0.00653655)
(0.0969252 0 -0.00758796)
(0.106569 0 -0.00854192)
(0.114427 0 -0.00941003)
(0.120713 0 -0.0102001)
(0.125617 0 -0.0109164)
(0.129314 0 -0.0115609)
(0.13196 0 -0.0121322)
(0.133702 0 -0.012627)
(0.134682 0 -0.0130409)
(0.135049 0 -0.0133727)
(0.13492 0 -0.013608)
(0.134437 0 -0.0137399)
(0.133778 0 -0.0137693)
(0.133102 0 -0.0136898)
(0.132585 0 -0.0134961)
(0.132461 0 -0.0131976)
(0.132996 0 -0.0128114)
(0.134493 0 -0.0123688)
(0.137359 0 -0.0119341)
(0.142085 0 -0.0116146)
(0.149332 0 -0.0116006)
(0.159772 0 -0.0121571)
(0.174619 0 -0.0138182)
(0.194391 0 -0.017199)
(0.219614 0 -0.0233013)
(0.0124442 0 -0.00100922)
(0.035547 0 -0.00288968)
(0.0553366 0 -0.00453685)
(0.0721621 0 -0.00599531)
(0.0863898 0 -0.00730212)
(0.0983396 0 -0.00848435)
(0.108291 0 -0.00956148)
(0.116488 0 -0.0105472)
(0.123149 0 -0.0114508)
(0.128472 0 -0.0122777)
(0.132638 0 -0.013033)
(0.135809 0 -0.013716)
(0.138139 0 -0.0143249)
(0.139774 0 -0.014856)
(0.140882 0 -0.0153129)
(0.141599 0 -0.0156875)
(0.142084 0 -0.0159771)
(0.142501 0 -0.0161802)
(0.14305 0 -0.0163023)
(0.143936 0 -0.0163499)
(0.145411 0 -0.0163431)
(0.147767 0 -0.0163128)
(0.151345 0 -0.0163108)
(0.156663 0 -0.0164502)
(0.164176 0 -0.0168515)
(0.174619 0 -0.0177598)
(0.188774 0 -0.0195128)
(0.207704 0 -0.0226796)
(0.231696 0 -0.0278669)
(0.260466 0 -0.0358114)
(0.0125819 0 -0.00111149)
(0.0359533 0 -0.00318371)
(0.0560053 0 -0.00500113)
(0.0730983 0 -0.00661319)
(0.0876073 0 -0.00806106)
(0.0998594 0 -0.00937505)
(0.11014 0 -0.0105774)
(0.1187 0 -0.011684)
(0.125762 0 -0.0127057)
(0.131529 0 -0.0136488)
(0.136196 0 -0.0145236)
(0.139925 0 -0.0153294)
(0.142881 0 -0.016067)
(0.145229 0 -0.0167387)
(0.147124 0 -0.0173436)
(0.148733 0 -0.0178838)
(0.150233 0 -0.0183632)
(0.151776 0 -0.0187778)
(0.15361 0 -0.0191514)
(0.155959 0 -0.0194994)
(0.159096 0 -0.0198541)
(0.163361 0 -0.0202711)
(0.169133 0 -0.0208237)
(0.176913 0 -0.0216389)
(0.18735 0 -0.0229185)
(0.201076 0 -0.0249076)
(0.219105 0 -0.0280526)
(0.242044 0 -0.0328427)
(0.270175 0 -0.0399044)
(0.301957 0 -0.0495265)
(0.0127274 0 -0.001212)
(0.0363836 0 -0.00347306)
(0.0567144 0 -0.00545874)
(0.0740915 0 -0.00722332)
(0.088899 0 -0.00881207)
(0.101471 0 -0.0102586)
(0.112101 0 -0.011588)
(0.121045 0 -0.0128187)
(0.12853 0 -0.0139635)
(0.134776 0 -0.015034)
(0.139973 0 -0.0160374)
(0.144288 0 -0.0169766)
(0.147899 0 -0.017856)
(0.150988 0 -0.018684)
(0.153695 0 -0.0194549)
(0.156225 0 -0.0201841)
(0.158755 0 -0.0208779)
(0.161478 0 -0.0215468)
(0.164634 0 -0.0222161)
(0.168477 0 -0.0229166)
(0.173306 0 -0.0236964)
(0.179501 0 -0.0246325)
(0.187495 0 -0.0258293)
(0.197813 0 -0.0274402)
(0.211123 0 -0.0296941)
(0.22823 0 -0.0329176)
(0.250033 0 -0.0375564)
(0.276963 0 -0.0440678)
(0.309017 0 -0.052964)
(0.343341 0 -0.0640522)
(0.0128806 0 -0.00131105)
(0.0368366 0 -0.00375851)
(0.0574616 0 -0.00591094)
(0.0751384 0 -0.00782738)
(0.0902604 0 -0.00955722)
(0.10317 0 -0.0111374)
(0.114166 0 -0.0125958)
(0.123514 0 -0.013954)
(0.131446 0 -0.0152273)
(0.138189 0 -0.0164304)
(0.143929 0 -0.0175691)
(0.148849 0 -0.0186506)
(0.153129 0 -0.0196814)
(0.156964 0 -0.0206753)
(0.160524 0 -0.0216372)
(0.163992 0 -0.0225771)
(0.167572 0 -0.0235125)
(0.171478 0 -0.0244641)
(0.17596 0 -0.0254656)
(0.181295 0 -0.0265616)
(0.1878 0 -0.027814)
(0.195914 0 -0.0293312)
(0.206056 0 -0.0312279)
(0.218885 0 -0.0337185)
(0.234993 0 -0.0370322)
(0.255365 0 -0.0415769)
(0.280675 0 -0.0477509)
(0.311448 0 -0.0560318)
(0.347061 0 -0.0666533)
(0.383646 0 -0.079054)
(0.0130401 0 -0.00140834)
(0.0373082 0 -0.00403923)
(0.05824 0 -0.00635638)
(0.0762295 0 -0.00842356)
(0.0916791 0 -0.0102942)
(0.104938 0 -0.0120085)
(0.116314 0 -0.0135972)
(0.12608 0 -0.0150854)
(0.134471 0 -0.0164899)
(0.141711 0 -0.017825)
(0.148009 0 -0.0191052)
(0.153546 0 -0.0203377)
(0.158522 0 -0.0215359)
(0.163121 0 -0.0227107)
(0.167539 0 -0.023878)
(0.171937 0 -0.0250432)
(0.176564 0 -0.0262413)
(0.181643 0 -0.0275001)
(0.187432 0 -0.0288619)
(0.194227 0 -0.0303859)
(0.202376 0 -0.0321528)
(0.212297 0 -0.0342783)
(0.224532 0 -0.0369319)
(0.239619 0 -0.0403108)
(0.258365 0 -0.0447394)
(0.281556 0 -0.0505872)
(0.309931 0 -0.0582969)
(0.343969 0 -0.0683101)
(0.38248 0 -0.0805471)
(0.421293 0 -0.0943051)
(0.0132028 0 -0.00150297)
(0.0377913 0 -0.00431281)
(0.0590388 0 -0.00679136)
(0.0773502 0 -0.00900697)
(0.0931366 0 -0.0110171)
(0.106753 0 -0.012865)
(0.118518 0 -0.014584)
(0.128712 0 -0.016204)
(0.137568 0 -0.0177422)
(0.145329 0 -0.019219)
(0.152196 0 -0.020647)
(0.158358 0 -0.0220376)
(0.164031 0 -0.0234108)
(0.16938 0 -0.0247724)
(0.174628 0 -0.0261501)
(0.179966 0 -0.027561)
(0.185624 0 -0.0290382)
(0.191838 0 -0.0306192)
(0.198876 0 -0.0323566)
(0.207063 0 -0.0343263)
(0.216754 0 -0.0366228)
(0.228379 0 -0.0393797)
(0.242457 0 -0.0427782)
(0.259544 0 -0.0470426)
(0.280464 0 -0.0525334)
(0.305809 0 -0.0595937)
(0.336365 0 -0.0687248)
(0.37233 0 -0.0803209)
(0.412167 0 -0.0941469)
(0.453396 0 -0.109892)
(0.0087253 0 -0.00314803)
(0.0198533 0 -0.00384917)
(0.0447986 0 -0.00489688)
(0.0849038 0 -0.00612702)
(0.134818 0 -0.00723946)
(0.184406 0 -0.00800278)
(0.226228 0 -0.00833291)
(0.258322 0 -0.00833395)
(0.281899 0 -0.00813155)
(0.298813 0 -0.00780813)
(0.310505 0 -0.00741232)
(0.318034 0 -0.0069765)
(0.322142 0 -0.00651813)
(0.323342 0 -0.00604951)
(0.321978 0 -0.00557716)
(0.318261 0 -0.00513776)
(0.3123 0 -0.00472251)
(0.304147 0 -0.0043296)
(0.293812 0 -0.00395694)
(0.281273 0 -0.00360194)
(0.26649 0 -0.0032616)
(0.249403 0 -0.00293261)
(0.229943 0 -0.00261138)
(0.20803 0 -0.00229411)
(0.183579 0 -0.00197669)
(0.156503 0 -0.00165467)
(0.12671 0 -0.00132312)
(0.0941123 0 -0.000976507)
(0.0586324 0 -0.000608538)
(0.0200697 0 -0.000210343)
(0.0154328 0 -0.00964934)
(0.0277389 0 -0.0117779)
(0.0536979 0 -0.0148622)
(0.0939956 0 -0.0184423)
(0.143029 0 -0.0216)
(0.191021 0 -0.0236646)
(0.231237 0 -0.0245684)
(0.262055 0 -0.0244974)
(0.284725 0 -0.0238886)
(0.300986 0 -0.0229366)
(0.312199 0 -0.0217774)
(0.31937 0 -0.0205043)
(0.323208 0 -0.0191647)
(0.324205 0 -0.017793)
(0.322686 0 -0.0164449)
(0.318847 0 -0.0151695)
(0.312789 0 -0.0139595)
(0.304558 0 -0.0128112)
(0.294158 0 -0.0117194)
(0.281566 0 -0.0106769)
(0.266739 0 -0.00967542)
(0.249615 0 -0.00870536)
(0.230124 0 -0.00775649)
(0.208185 0 -0.00681774)
(0.183712 0 -0.00587714)
(0.156615 0 -0.00492166)
(0.126803 0 -0.00393681)
(0.0941852 0 -0.00290625)
(0.0586828 0 -0.00181144)
(0.0200899 0 -0.000626176)
(0.0282234 0 -0.0166508)
(0.0429183 0 -0.0203466)
(0.0705672 0 -0.0253553)
(0.111117 0 -0.0309819)
(0.158362 0 -0.0357408)
(0.20341 0 -0.0387174)
(0.240664 0 -0.0398918)
(0.269148 0 -0.0396713)
(0.290143 0 -0.0386424)
(0.305167 0 -0.0370913)
(0.315461 0 -0.0352191)
(0.321945 0 -0.0331751)
(0.325262 0 -0.031021)
(0.325867 0 -0.0288456)
(0.32405 0 -0.0267286)
(0.319973 0 -0.0247003)
(0.313725 0 -0.0227658)
(0.305339 0 -0.020923)
(0.294813 0 -0.0191647)
(0.282119 0 -0.0174806)
(0.267206 0 -0.0158576)
(0.250011 0 -0.0142812)
(0.23046 0 -0.0127352)
(0.20847 0 -0.011202)
(0.183954 0 -0.00966263)
(0.156818 0 -0.008096)
(0.12697 0 -0.00647873)
(0.0943152 0 -0.00478432)
(0.0587714 0 -0.00298266)
(0.0201247 0 -0.00103106)
(0.0466581 0 -0.0245496)
(0.0643934 0 -0.0298482)
(0.0941743 0 -0.0367192)
(0.13473 0 -0.0439674)
(0.179335 0 -0.0497678)
(0.220329 0 -0.0531745)
(0.253673 0 -0.0543247)
(0.279106 0 -0.05387)
(0.297805 0 -0.0523909)
(0.311109 0 -0.050256)
(0.320112 0 -0.0477089)
(0.325626 0 -0.0449587)
(0.328209 0 -0.0420819)
(0.328259 0 -0.0392076)
(0.326009 0 -0.0364018)
(0.321589 0 -0.0336988)
(0.315065 0 -0.0311098)
(0.306455 0 -0.0286339)
(0.295747 0 -0.0262631)
(0.282902 0 -0.0239845)
(0.267864 0 -0.0217817)
(0.250566 0 -0.0196355)
(0.230929 0 -0.017525)
(0.208866 0 -0.0154267)
(0.184286 0 -0.0133151)
(0.157095 0 -0.011162)
(0.127195 0 -0.00893585)
(0.0944881 0 -0.00660061)
(0.0588869 0 -0.00411553)
(0.0201688 0 -0.00142253)
(0.0700992 0 -0.03362)
(0.0911528 0 -0.0404913)
(0.12319 0 -0.0490629)
(0.163139 0 -0.057421)
(0.204249 0 -0.0636541)
(0.240471 0 -0.0670084)
(0.269411 0 -0.0679174)
(0.291291 0 -0.0670838)
(0.307257 0 -0.0651094)
(0.318484 0 -0.0623989)
(0.32593 0 -0.059255)
(0.330244 0 -0.0558421)
(0.331925 0 -0.0523413)
(0.331281 0 -0.04885)
(0.328485 0 -0.0454361)
(0.32363 0 -0.0421352)
(0.316755 0 -0.0389614)
(0.30786 0 -0.0359149)
(0.296918 0 -0.032987)
(0.28388 0 -0.030163)
(0.268684 0 -0.0274236)
(0.251254 0 -0.0247463)
(0.231506 0 -0.0221056)
(0.20935 0 -0.0194734)
(0.18469 0 -0.0168184)
(0.157428 0 -0.0141058)
(0.127462 0 -0.0112965)
(0.0946912 0 -0.00834621)
(0.0590204 0 -0.00520424)
(0.0202188 0 -0.00179847)
(0.0979387 0 -0.044016)
(0.122327 0 -0.0523917)
(0.156181 0 -0.0622853)
(0.194711 0 -0.071174)
(0.231619 0 -0.0772596)
(0.26273 0 -0.080209)
(0.286975 0 -0.0806346)
(0.305022 0 -0.0792904)
(0.317996 0 -0.0767752)
(0.326949 0 -0.0735253)
(0.332633 0 -0.0698124)
(0.335601 0 -0.065831)
(0.33626 0 -0.0617824)
(0.334817 0 -0.0577554)
(0.331386 0 -0.0538125)
(0.326022 0 -0.0499889)
(0.318734 0 -0.0462993)
(0.309502 0 -0.0427444)
(0.298283 0 -0.0393151)
(0.285017 0 -0.0359954)
(0.269632 0 -0.0327638)
(0.252044 0 -0.0295951)
(0.232165 0 -0.0264602)
(0.209898 0 -0.0233268)
(0.185144 0 -0.0201586)
(0.157799 0 -0.0169152)
(0.127758 0 -0.0135509)
(0.0949128 0 -0.0100135)
(0.059164 0 -0.00624384)
(0.0202718 0 -0.00215709)
(0.129572 0 -0.0557534)
(0.157045 0 -0.0654799)
(0.191963 0 -0.0762199)
(0.228143 0 -0.0850293)
(0.260285 0 -0.0904727)
(0.28606 0 -0.092676)
(0.305508 0 -0.0924134)
(0.31963 0 -0.0904528)
(0.329542 0 -0.0873857)
(0.336091 0 -0.0835946)
(0.339919 0 -0.0793559)
(0.341488 0 -0.074907)
(0.341052 0 -0.0703968)
(0.338739 0 -0.0659151)
(0.334611 0 -0.0615208)
(0.328682 0 -0.0572474)
(0.320933 0 -0.0531093)
(0.311324 0 -0.0491073)
(0.299794 0 -0.045232)
(0.286271 0 -0.0414663)
(0.270672 0 -0.0377874)
(0.252907 0 -0.0341675)
(0.23288 0 -0.030575)
(0.210489 0 -0.0269741)
(0.185629 0 -0.0233243)
(0.158192 0 -0.0195803)
(0.128067 0 -0.0156905)
(0.095142 0 -0.011596)
(0.0593107 0 -0.00723017)
(0.0203251 0 -0.00249691)
(0.164404 0 -0.068734)
(0.194494 0 -0.0795686)
(0.229482 0 -0.0906031)
(0.262295 0 -0.0987184)
(0.289179 0 -0.103081)
(0.309533 0 -0.10427)
(0.324232 0 -0.103167)
(0.334521 0 -0.100538)
(0.341367 0 -0.0968896)
(0.345527 0 -0.0925866)
(0.347545 0 -0.0879214)
(0.347698 0 -0.0830793)
(0.346135 0 -0.0781878)
(0.342916 0 -0.0733297)
(0.338054 0 -0.0685587)
(0.331525 0 -0.0639057)
(0.323284 0 -0.0593843)
(0.313268 0 -0.0549949)
(0.301402 0 -0.0507277)
(0.2876 0 -0.0465651)
(0.27177 0 -0.0424832)
(0.253813 0 -0.0384525)
(0.233624 0 -0.0344395)
(0.211098 0 -0.0304054)
(0.186124 0 -0.0263065)
(0.158589 0 -0.022093)
(0.128377 0 -0.0177086)
(0.0953686 0 -0.0130886)
(0.0594537 0 -0.0081599)
(0.0203763 0 -0.00281674)
(0.201857 0 -0.0827775)
(0.233921 0 -0.0943998)
(0.267733 0 -0.10509)
(0.296115 0 -0.111914)
(0.317353 0 -0.114835)
(0.332331 0 -0.114826)
(0.342488 0 -0.112808)
(0.349079 0 -0.109465)
(0.353023 0 -0.105259)
(0.354977 0 -0.100538)
(0.355261 0 -0.0955212)
(0.354031 0 -0.090362)
(0.351349 0 -0.0851666)
(0.347219 0 -0.0800072)
(0.341609 0 -0.074931)
(0.334464 0 -0.0699657)
(0.325714 0 -0.0651233)
(0.315275 0 -0.0604038)
(0.303057 0 -0.0557972)
(0.288963 0 -0.0512855)
(0.27289 0 -0.0468442)
(0.254729 0 -0.0424427)
(0.234372 0 -0.0380459)
(0.211704 0 -0.0336133)
(0.186612 0 -0.0290982)
(0.158975 0 -0.0244473)
(0.128674 0 -0.0196001)
(0.095583 0 -0.0144873)
(0.059587 0 -0.00903046)
(0.0204233 0 -0.00311569)
(0.241408 0 -0.0976644)
(0.274619 0 -0.109669)
(0.305687 0 -0.119262)
(0.328581 0 -0.124236)
(0.343927 0 -0.125459)
(0.353701 0 -0.124149)
(0.3596 0 -0.121198)
(0.362834 0 -0.117184)
(0.364226 0 -0.112523)
(0.36417 0 -0.107464)
(0.362842 0 -0.102175)
(0.3603 0 -0.0967759)
(0.356541 0 -0.0913517)
(0.351522 0 -0.0859627)
(0.345175 0 -0.0806492)
(0.337416 0 -0.075435)
(0.328153 0 -0.0703307)
(0.317286 0 -0.0653356)
(0.304711 0 -0.0604397)
(0.290318 0 -0.0556253)
(0.273996 0 -0.0508671)
(0.255628 0 -0.0461336)
(0.235096 0 -0.0413894)
(0.212285 0 -0.0365927)
(0.187073 0 -0.0316946)
(0.159335 0 -0.0266386)
(0.128946 0 -0.0213613)
(0.0957765 0 -0.0157892)
(0.0597052 0 -0.00983999)
(0.0204643 0 -0.00339312)
(0.282638 0 -0.113193)
(0.315793 0 -0.124999)
(0.342159 0 -0.132595)
(0.358637 0 -0.135254)
(0.368059 0 -0.134647)
(0.372975 0 -0.13205)
(0.375132 0 -0.12825)
(0.375545 0 -0.123706)
(0.37472 0 -0.118692)
(0.372882 0 -0.113387)
(0.370093 0 -0.10791)
(0.366342 0 -0.102348)
(0.361575 0 -0.0967679)
(0.355712 0 -0.0912174)
(0.348655 0 -0.0857301)
(0.3403 0 -0.0803265)
(0.330535 0 -0.0750156)
(0.319245 0 -0.0697963)
(0.306315 0 -0.0646589)
(0.291626 0 -0.0595857)
(0.275056 0 -0.0545517)
(0.256479 0 -0.0495235)
(0.235773 0 -0.0444674)
(0.212819 0 -0.0393409)
(0.18749 0 -0.0340928)
(0.159655 0 -0.0286644)
(0.129183 0 -0.0229896)
(0.0959411 0 -0.0169925)
(0.0598034 0 -0.0105873)
(0.0204975 0 -0.00364865)
(0.32521 0 -0.129181)
(0.356252 0 -0.139803)
(0.37567 0 -0.144411)
(0.38516 0 -0.14448)
(0.389018 0 -0.142111)
(0.389822 0 -0.138421)
(0.388944 0 -0.133971)
(0.387013 0 -0.129039)
(0.384307 0 -0.123789)
(0.380931 0 -0.118342)
(0.376854 0 -0.112763)
(0.372016 0 -0.107115)
(0.36633 0 -0.101447)
(0.359685 0 -0.0957984)
(0.351964 0 -0.0901964)
(0.343043 0 -0.0846584)
(0.332798 0 -0.0791921)
(0.321101 0 -0.0737964)
(0.307826 0 -0.0684619)
(0.292847 0 -0.0631717)
(0.276039 0 -0.0579017)
(0.257257 0 -0.0526131)
(0.236379 0 -0.0472796)
(0.213287 0 -0.0418569)
(0.187849 0 -0.0362921)
(0.159923 0 -0.0305233)
(0.129375 0 -0.024484)
(0.0960699 0 -0.0180961)
(0.059877 0 -0.0112718)
(0.0205213 0 -0.00388212)
(0.368539 0 -0.145297)
(0.393888 0 -0.153058)
(0.404399 0 -0.153856)
(0.407265 0 -0.151468)
(0.406572 0 -0.147683)
(0.404192 0 -0.143218)
(0.400921 0 -0.138351)
(0.397095 0 -0.133204)
(0.392829 0 -0.127846)
(0.388138 0 -0.122346)
(0.382957 0 -0.116751)
(0.377174 0 -0.111089)
(0.370674 0 -0.105398)
(0.363329 0 -0.0997105)
(0.355004 0 -0.0940487)
(0.345564 0 -0.0884277)
(0.334871 0 -0.0828544)
(0.322792 0 -0.0773277)
(0.309192 0 -0.071839)
(0.29394 0 -0.0663727)
(0.276912 0 -0.0609087)
(0.25794 0 -0.0554058)
(0.23689 0 -0.0498278)
(0.213669 0 -0.044142)
(0.188135 0 -0.0382936)
(0.160128 0 -0.0322155)
(0.129513 0 -0.0258444)
(0.0961567 0 -0.0191001)
(0.0599221 0 -0.0118935)
(0.0205346 0 -0.00409356)
(0.410555 0 -0.160432)
(0.425224 0 -0.163053)
(0.427286 0 -0.160188)
(0.42489 0 -0.155913)
(0.420772 0 -0.151232)
(0.415981 0 -0.146381)
(0.410889 0 -0.141378)
(0.405604 0 -0.136215)
(0.400124 0 -0.1309)
(0.394379 0 -0.125454)
(0.388285 0 -0.119915)
(0.38171 0 -0.114305)
(0.374516 0 -0.108651)
(0.366562 0 -0.102979)
(0.357705 0 -0.097308)
(0.347799 0 -0.0916515)
(0.336702 0 -0.0860158)
(0.324273 0 -0.0804005)
(0.310372 0 -0.0747976)
(0.294862 0 -0.0691924)
(0.277607 0 -0.0635637)
(0.258459 0 -0.0578819)
(0.237277 0 -0.0521015)
(0.213943 0 -0.0461872)
(0.188337 0 -0.0400917)
(0.160266 0 -0.033743)
(0.129591 0 -0.0270722)
(0.096197 0 -0.0200052)
(0.0599346 0 -0.0124526)
(0.0205364 0 -0.00428324)
(0.444519 0 -0.171114)
(0.449314 0 -0.168061)
(0.444027 0 -0.162376)
(0.437887 0 -0.157409)
(0.431473 0 -0.152678)
(0.425071 0 -0.14795)
(0.418739 0 -0.143115)
(0.412438 0 -0.138131)
(0.406084 0 -0.132993)
(0.399572 0 -0.127713)
(0.392779 0 -0.122315)
(0.385572 0 -0.116825)
(0.377809 0 -0.111265)
(0.369343 0 -0.105658)
(0.360027 0 -0.100023)
(0.349714 0 -0.0943733)
(0.338259 0 -0.0887152)
(0.325516 0 -0.0830488)
(0.311343 0 -0.0773676)
(0.295598 0 -0.0716576)
(0.278142 0 -0.0658981)
(0.258829 0 -0.0600601)
(0.23752 0 -0.054105)
(0.214084 0 -0.0479929)
(0.188384 0 -0.0416744)
(0.160264 0 -0.0350882)
(0.129597 0 -0.0281637)
(0.096194 0 -0.0208142)
(0.0599115 0 -0.0129501)
(0.0205266 0 -0.00445172)
(0.0133698 0 -0.00159629)
(0.0382895 0 -0.00458325)
(0.0598664 0 -0.00722269)
(0.0785128 0 -0.00958678)
(0.0946496 0 -0.0117373)
(0.108636 0 -0.0137204)
(0.120811 0 -0.0155757)
(0.131452 0 -0.0173321)
(0.140794 0 -0.0190099)
(0.149089 0 -0.0206344)
(0.156529 0 -0.0222152)
(0.163318 0 -0.0237691)
(0.169679 0 -0.025321)
(0.175798 0 -0.026886)
(0.181888 0 -0.0284896)
(0.188148 0 -0.0301568)
(0.194806 0 -0.0319245)
(0.202116 0 -0.0338406)
(0.210348 0 -0.0359656)
(0.219846 0 -0.0383921)
(0.230936 0 -0.0412164)
(0.244088 0 -0.0445998)
(0.259716 0 -0.0487089)
(0.278482 0 -0.0538275)
(0.300883 0 -0.0602369)
(0.327509 0 -0.0683336)
(0.358817 0 -0.0785913)
(0.394433 0 -0.0914314)
(0.431835 0 -0.107015)
(0.465861 0 -0.125836)
(0.0135431 0 -0.00168937)
(0.0388077 0 -0.00485349)
(0.0607298 0 -0.00765476)
(0.0797293 0 -0.0101694)
(0.0962343 0 -0.0124628)
(0.110617 0 -0.0145859)
(0.123218 0 -0.0165811)
(0.134311 0 -0.0184766)
(0.144148 0 -0.0202972)
(0.15298 0 -0.0220708)
(0.161004 0 -0.0238115)
(0.168444 0 -0.0255418)
(0.17551 0 -0.0272851)
(0.182396 0 -0.0290617)
(0.189309 0 -0.0308994)
(0.19647 0 -0.0328326)
(0.204104 0 -0.0349022)
(0.212456 0 -0.0371611)
(0.221818 0 -0.0396834)
(0.232484 0 -0.0425545)
(0.244843 0 -0.0459043)
(0.259219 0 -0.0498601)
(0.276098 0 -0.0546308)
(0.295942 0 -0.0604581)
(0.319032 0 -0.067575)
(0.345773 0 -0.0763487)
(0.376011 0 -0.0870773)
(0.40832 0 -0.0997605)
(0.439025 0 -0.113603)
(0.46345 0 -0.127171)
(0.0137197 0 -0.00178098)
(0.0393385 0 -0.00512015)
(0.0616168 0 -0.00808213)
(0.0809805 0 -0.0107471)
(0.097867 0 -0.0131844)
(0.112653 0 -0.0154475)
(0.12568 0 -0.0175802)
(0.137235 0 -0.0196172)
(0.147583 0 -0.0215877)
(0.156963 0 -0.0235163)
(0.165581 0 -0.0254229)
(0.173664 0 -0.0273329)
(0.181416 0 -0.0292702)
(0.189048 0 -0.0312626)
(0.196768 0 -0.033341)
(0.204785 0 -0.035542)
(0.213318 0 -0.0379089)
(0.222625 0 -0.0405044)
(0.233003 0 -0.0434125)
(0.244691 0 -0.0467096)
(0.258057 0 -0.0505307)
(0.273352 0 -0.0549898)
(0.291032 0 -0.0603023)
(0.311254 0 -0.0666166)
(0.334207 0 -0.0741514)
(0.359862 0 -0.0831141)
(0.3874 0 -0.0935088)
(0.414765 0 -0.104891)
(0.43902 0 -0.116396)
(0.457614 0 -0.127257)
(0.0138949 0 -0.00186967)
(0.039872 0 -0.0053796)
(0.0625158 0 -0.00849978)
(0.0822497 0 -0.0113128)
(0.0995243 0 -0.0138928)
(0.114718 0 -0.0162959)
(0.128188 0 -0.0185708)
(0.140225 0 -0.0207535)
(0.151085 0 -0.0228755)
(0.160999 0 -0.0249582)
(0.170201 0 -0.0270319)
(0.178914 0 -0.0291235)
(0.187345 0 -0.0312594)
(0.195691 0 -0.0334673)
(0.204157 0 -0.0357805)
(0.212967 0 -0.0382438)
(0.222324 0 -0.0409004)
(0.2325 0 -0.0438243)
(0.243705 0 -0.0470775)
(0.256236 0 -0.0507645)
(0.270295 0 -0.0549715)
(0.286179 0 -0.0598402)
(0.304121 0 -0.0655171)
(0.324098 0 -0.07209)
(0.346125 0 -0.0797078)
(0.369757 0 -0.0883915)
(0.393787 0 -0.0978945)
(0.416458 0 -0.107734)
(0.435953 0 -0.117347)
(0.45061 0 -0.126172)
(0.0140649 0 -0.00195454)
(0.0404057 0 -0.00563098)
(0.0634246 0 -0.00890665)
(0.0835332 0 -0.0118652)
(0.101201 0 -0.0145861)
(0.11682 0 -0.0171304)
(0.130735 0 -0.0195473)
(0.143235 0 -0.0218717)
(0.15459 0 -0.0241406)
(0.165046 0 -0.0263823)
(0.17483 0 -0.028626)
(0.184151 0 -0.0308979)
(0.193213 0 -0.0332259)
(0.202227 0 -0.0356437)
(0.211392 0 -0.0381869)
(0.220925 0 -0.0409028)
(0.231017 0 -0.0438355)
(0.241896 0 -0.047049)
(0.25377 0 -0.0506104)
(0.266885 0 -0.0546147)
(0.281351 0 -0.0591223)
(0.297433 0 -0.0642675)
(0.315143 0 -0.0701208)
(0.334362 0 -0.0767311)
(0.354874 0 -0.0841359)
(0.375966 0 -0.0922031)
(0.396551 0 -0.100647)
(0.415433 0 -0.109119)
(0.431438 0 -0.117233)
(0.443462 0 -0.124533)
(0.0142559 0 -0.00203886)
(0.0409609 0 -0.00587577)
(0.0643356 0 -0.00929929)
(0.084816 0 -0.0123991)
(0.102877 0 -0.0152573)
(0.118919 0 -0.0179395)
(0.133265 0 -0.0204928)
(0.146236 0 -0.0229608)
(0.158095 0 -0.025379)
(0.169075 0 -0.0277767)
(0.179402 0 -0.0301831)
(0.189299 0 -0.0326305)
(0.198967 0 -0.0351482)
(0.208591 0 -0.0377665)
(0.218387 0 -0.0405281)
(0.228539 0 -0.0434727)
(0.239239 0 -0.046651)
(0.250656 0 -0.0501103)
(0.263027 0 -0.0539327)
(0.276467 0 -0.058172)
(0.291072 0 -0.0628876)
(0.306982 0 -0.0681695)
(0.324069 0 -0.0740318)
(0.34212 0 -0.0804746)
(0.360752 0 -0.0874411)
(0.379287 0 -0.0947638)
(0.396932 0 -0.102222)
(0.41285 0 -0.109551)
(0.426249 0 -0.116464)
(0.43642 0 -0.122607)
(0.0144381 0 -0.00211779)
(0.0415001 0 -0.00610609)
(0.0652323 0 -0.0096712)
(0.0860771 0 -0.0129058)
(0.104533 0 -0.0158987)
(0.120997 0 -0.0187156)
(0.135784 0 -0.0214045)
(0.149214 0 -0.0240119)
(0.161543 0 -0.0265719)
(0.173025 0 -0.0291203)
(0.183882 0 -0.0316874)
(0.194315 0 -0.0343022)
(0.20452 0 -0.0369949)
(0.214696 0 -0.0398008)
(0.225043 0 -0.0427622)
(0.235709 0 -0.0459103)
(0.246881 0 -0.0492963)
(0.258701 0 -0.0529631)
(0.27136 0 -0.0569794)
(0.284896 0 -0.0613742)
(0.299357 0 -0.0661901)
(0.314784 0 -0.0714773)
(0.330946 0 -0.0772015)
(0.347573 0 -0.0833222)
(0.364278 0 -0.0897535)
(0.380534 0 -0.096354)
(0.395737 0 -0.102939)
(0.409337 0 -0.109324)
(0.420759 0 -0.115269)
(0.42954 0 -0.12051)
(0.0146105 0 -0.00219053)
(0.0420209 0 -0.00632039)
(0.0661115 0 -0.01002)
(0.0873343 0 -0.0133857)
(0.106174 0 -0.0165065)
(0.123033 0 -0.019449)
(0.13824 0 -0.0222666)
(0.152116 0 -0.0250078)
(0.164914 0 -0.0277075)
(0.176868 0 -0.0303988)
(0.188198 0 -0.0331129)
(0.199117 0 -0.0358826)
(0.20982 0 -0.0387407)
(0.220488 0 -0.0417207)
(0.231273 0 -0.0448509)
(0.24236 0 -0.0481766)
(0.253873 0 -0.051731)
(0.26593 0 -0.0555513)
(0.278677 0 -0.0596915)
(0.292092 0 -0.0641591)
(0.306178 0 -0.0689776)
(0.320861 0 -0.0741492)
(0.335904 0 -0.0796239)
(0.351065 0 -0.0853532)
(0.366 0 -0.0912486)
(0.380293 0 -0.0971869)
(0.393507 0 -0.103023)
(0.405239 0 -0.108609)
(0.415105 0 -0.11376)
(0.422813 0 -0.118292)
(0.0147701 0 -0.00225593)
(0.0425145 0 -0.00651528)
(0.0669583 0 -0.0103402)
(0.0885447 0 -0.0138273)
(0.107748 0 -0.0170652)
(0.124998 0 -0.0201283)
(0.14063 0 -0.023071)
(0.154933 0 -0.0259389)
(0.168148 0 -0.0287643)
(0.180538 0 -0.0315875)
(0.192318 0 -0.0344413)
(0.203689 0 -0.0373575)
(0.214822 0 -0.0403625)
(0.225883 0 -0.043488)
(0.237018 0 -0.0467614)
(0.248412 0 -0.0502295)
(0.260131 0 -0.0539076)
(0.272266 0 -0.0578254)
(0.284919 0 -0.0620208)
(0.298021 0 -0.0664818)
(0.311522 0 -0.0712079)
(0.325314 0 -0.0761806)
(0.339212 0 -0.0813584)
(0.352983 0 -0.0866819)
(0.366338 0 -0.092067)
(0.378952 0 -0.097408)
(0.390533 0 -0.102603)
(0.400764 0 -0.107519)
(0.409376 0 -0.112014)
(0.416214 0 -0.115974)
(0.0149101 0 -0.00231201)
(0.0429721 0 -0.00668701)
(0.0677622 0 -0.0106264)
(0.0896975 0 -0.0142241)
(0.109268 0 -0.0175727)
(0.126891 0 -0.0207467)
(0.142911 0 -0.0238027)
(0.157613 0 -0.0267855)
(0.171229 0 -0.0297289)
(0.184029 0 -0.032676)
(0.196211 0 -0.0356549)
(0.207958 0 -0.0386948)
(0.219439 0 -0.0418227)
(0.230815 0 -0.0450686)
(0.242226 0 -0.0484609)
(0.253803 0 -0.0520299)
(0.265593 0 -0.0557843)
(0.277665 0 -0.0597457)
(0.290049 0 -0.0639256)
(0.30267 0 -0.0683057)
(0.315476 0 -0.0728784)
(0.328356 0 -0.0776176)
(0.341145 0 -0.0824794)
(0.35364 0 -0.0874043)
(0.365608 0 -0.0923177)
(0.376806 0 -0.097134)
(0.387011 0 -0.101767)
(0.396001 0 -0.106112)
(0.403597 0 -0.110069)
(0.409706 0 -0.113556)
(0.0150645 0 -0.00236335)
(0.0434217 0 -0.00683763)