/*--------------------------------*- C++ -*----------------------------------*\
| =========                 |                                                 |
| \\      /  F ield         | OpenFOAM: The Open Source CFD Toolbox           |
|  \\    /   O peration     | Version:  dev                                   |
|   \\  /    A nd           | Web:      www.OpenFOAM.org                      |
|    \\/     M anipulation  |                                                 |
\*---------------------------------------------------------------------------*/
FoamFile
{
    version     2.0;
    format      ascii;
    class       volVectorField;
    location    "0.74";
    object      Force;
}
// * * * * * * * * * * * * * * * * * * * * * * * * * * * * * * * * * * * * * //

dimensions      [1 1 -2 0 0 0 0];

internalField   uniform (0 0 0);

boundaryField
{
    inlet
    {
        type            calculated;
        value           nonuniform 0();
    }
    outlet
    {
        type            calculated;
        value           nonuniform 0();
    }
    flap
    {
        type            calculated;
        value           nonuniform List<vector> 
33
(
(3.92557 1.28033e-18 -0.135514)
(3.9055 1.52339e-17 -0.309239)
(3.87806 -5.13503e-18 -0.479953)
(3.83567 1.62045e-22 -0.623476)
(3.77279 -1.13838e-24 -0.743654)
(3.68871 -2.85275e-21 -0.843388)
(3.58483 9.82975e-18 -0.924763)
(3.46423 -9.40395e-38 -0.986197)
(3.3294 -6.12447e-23 -1.02599)
(3.1817 -4.14665e-21 -1.04254)
(3.02167 0 -1.03497)
(2.8427 0 -1.00341)
(2.6299 1.58828e-17 -0.945605)
(2.35506 -3.21673e-21 -0.852746)
(1.95257 -9.27738e-23 -0.708162)
(0.0811291 -3.00247e-19 0.21842)
(-0.00272569 -5.87747e-39 -0.00699709)
(-0.0896227 -8.94881e-22 -0.242093)
(-1.34882 1.16229e-39 0.0463177)
(-1.35488 -9.55132e-19 0.107806)
(-1.3565 2.72028e-23 0.168974)
(-1.34836 1.90181e-18 0.220528)
(-1.32858 1.33301e-17 0.263891)
(-1.2976 -1.8439e-18 0.299365)
(-1.25718 1.18374e-17 0.327452)
(-1.20928 -1.55394e-17 0.348068)
(-1.15611 1.17549e-38 0.360705)
(-1.10009 2.05712e-38 0.365361)
(-1.04352 4.61388e-23 0.362892)
(-0.989911 -4.82714e-23 0.355443)
(-0.943616 -1.24025e-21 0.34585)
(-0.908568 1.75005e-17 0.336395)
(-0.887304 2.00609e-17 0.330045)
)
;
    }
    upperWall
    {
        type            calculated;
        value           nonuniform 0();
    }
    lowerWall
    {
        type            calculated;
        value           uniform (0 0 0);
    }
    frontAndBack
    {
        type            empty;
    }
    procBoundary4to1
    {
        type            processor;
        value           uniform (0 0 0);
    }
    procBoundary4to2
    {
        type            processor;
        value           uniform (0 0 0);
    }
    procBoundary4to3
    {
        type            processor;
        value           uniform (0 0 0);
    }
    procBoundary4to5
    {
        type            processor;
        value           uniform (0 0 0);
    }
}


// ************************************************************************* //
