/*--------------------------------*- C++ -*----------------------------------*\
| =========                 |                                                 |
| \\      /  F ield         | OpenFOAM: The Open Source CFD Toolbox           |
|  \\    /   O peration     | Version:  dev                                   |
|   \\  /    A nd           | Web:      www.OpenFOAM.org                      |
|    \\/     M anipulation  |                                                 |
\*---------------------------------------------------------------------------*/
FoamFile
{
    version     2.0;
    format      ascii;
    class       surfaceScalarField;
    location    "3";
    object      meshPhi;
}
// * * * * * * * * * * * * * * * * * * * * * * * * * * * * * * * * * * * * * //

dimensions      [0 3 -1 0 0 0 0];

internalField   nonuniform List<scalar> 
5457
(
5.34541e-06
5.77229e-08
1.20177e-05
1.34069e-07
2.09559e-05
1.20928e-07
3.23215e-05
2.47563e-09
4.55247e-05
-2.15434e-07
5.95176e-05
-5.13225e-07
7.30489e-05
-8.62513e-07
8.48697e-05
-1.22995e-06
9.39036e-05
-1.58026e-06
9.93754e-05
-1.87872e-06
0.00010088
-2.09601e-06
9.84083e-05
-2.2118e-06
9.23321e-05
-2.21565e-06
8.33349e-05
-2.10878e-06
7.23105e-05
-1.90389e-06
6.02402e-05
-1.62332e-06
4.80713e-05
-1.29589e-06
3.66132e-05
-9.52822e-07
2.64669e-05
-6.23491e-07
1.79852e-05
-3.31529e-07
1.16002e-05
-1.09556e-07
7.23911e-06
1.8821e-08
4.28183e-06
7.5552e-08
2.35818e-06
9.28907e-08
1.19084e-06
8.58261e-08
5.36982e-07
6.53483e-08
2.05492e-07
4.11738e-08
5.98932e-08
2.05631e-08
1.12686e-08
7.52208e-09
1.44341e-09
5.09338e-06
1.2024e-07
1.15961e-05
2.81215e-07
2.04533e-05
2.6083e-07
3.18149e-05
2.75543e-08
4.5082e-05
-4.06729e-07
5.91942e-05
-1.00284e-06
7.28863e-05
-1.704e-06
8.48922e-05
-2.44285e-06
9.41151e-05
-3.14802e-06
9.97631e-05
-3.75095e-06
0.000101416
-4.19333e-06
9.90516e-05
-4.43318e-06
9.30348e-05
-4.44878e-06
8.40493e-05
-4.24192e-06
7.29949e-05
-3.83752e-06
6.08639e-05
-3.28003e-06
4.86166e-05
-2.62712e-06
3.70754e-05
-1.94153e-06
2.68537e-05
-1.28262e-06
1.83192e-05
-6.98696e-07
1.18673e-05
-2.52877e-07
7.44062e-06
9.25928e-09
4.44791e-06
1.2813e-07
2.48831e-06
1.6729e-07
1.28685e-06
1.57734e-07
6.01259e-07
1.2097e-07
2.4197e-07
7.6224e-08
7.55393e-08
3.78649e-08
1.57116e-08
1.36958e-08
2.57031e-09
4.7927e-06
1.90132e-07
1.10751e-05
4.48679e-07
1.97978e-05
4.3101e-07
3.11035e-05
9.05889e-08
4.43886e-05
-5.54403e-07
5.85834e-05
-1.44539e-06
7.24142e-05
-2.49732e-06
8.46052e-05
-3.60866e-06
9.40435e-05
-4.672e-06
9.99203e-05
-5.58635e-06
0.000101798
-6.26478e-06
9.96385e-05
-6.64233e-06
9.37906e-05
-6.68516e-06
8.49293e-05
-6.39457e-06
7.39511e-05
-5.80658e-06
6.18503e-05
-4.98669e-06
4.95934e-05
-4.02059e-06
3.80118e-05
-3.002e-06
2.77286e-05
-2.02017e-06
1.91211e-05
-1.14857e-06
1.25611e-05
-4.77594e-07
8.00888e-06
-7.20757e-08
4.90398e-06
1.22171e-07
2.83458e-06
1.96102e-07
1.53174e-06
1.96282e-07
7.57604e-07
1.54098e-07
3.26489e-07
9.77758e-08
1.09893e-07
4.83965e-08
2.48118e-08
1.72831e-08
3.12608e-09
4.46251e-06
2.6944e-07
1.04807e-05
6.42619e-07
1.90144e-05
6.41986e-07
3.02047e-05
2.06723e-07
4.34483e-05
-6.38415e-07
5.76713e-05
-1.81558e-06
7.15961e-05
-3.21159e-06
8.39482e-05
-4.69257e-06
9.36102e-05
-6.11763e-06
9.97568e-05
-7.35262e-06
0.000101931
-8.28103e-06
0.000100075
-8.81528e-06
9.45147e-05
-8.90855e-06
8.5907e-05
-8.56025e-06
7.51329e-05
-7.81561e-06
6.31773e-05
-6.75923e-06
5.10033e-05
-5.50294e-06
3.94437e-05
-4.16995e-06
2.91272e-05
-2.87841e-06
2.0438e-05
-1.72664e-06
1.37346e-05
-8.28973e-07
8.99032e-06
-2.66399e-07
5.68338e-06
2.40392e-08
3.41792e-06
1.54262e-07
1.9364e-06
1.83987e-07
1.01006e-06
1.53473e-07
4.60064e-07
9.94365e-08
1.62953e-07
4.91974e-08
3.81398e-08
1.73047e-08
2.95302e-09
4.04284e-06
3.60827e-07
9.71573e-06
8.70791e-07
1.79958e-05
9.06237e-07
2.90221e-05
3.92786e-07
4.219e-05
-6.37614e-07
5.64248e-05
-2.08803e-06
7.04476e-05
-3.81851e-06
8.29854e-05
-5.66502e-06
9.29183e-05
-7.45482e-06
9.9404e-05
-9.02039e-06
0.000101963
-1.02156e-05
0.000100511
-1.09305e-05
9.53473e-05
-1.11043e-05
8.71009e-05
-1.07326e-05
7.663e-05
-9.86736e-06
6.49035e-05
-8.60963e-06
5.2876e-05
-7.0948e-06
4.13775e-05
-5.47313e-06
3.1041e-05
-3.89005e-06
2.2263e-05
-2.46838e-06
1.53778e-05
-1.34255e-06
1.03694e-05
-6.05721e-07
6.77577e-06
-1.92193e-07
4.22951e-06
2.23323e-08
2.49207e-06
1.07578e-07
1.35037e-06
1.11068e-07
6.36354e-07
7.69918e-08
2.31466e-07
3.85095e-08
5.45495e-08
1.32537e-08
2.00465e-09
3.52894e-06
4.66911e-07
8.7737e-06
1.1407e-06
1.67344e-05
1.2357e-06
2.75473e-05
6.64849e-07
4.06028e-05
-5.32081e-07
5.48274e-05
-2.23925e-06
6.895e-05
-4.29202e-06
8.16974e-05
-6.49807e-06
9.19429e-05
-8.65321e-06
9.88306e-05
-1.05582e-05
0.000101857
-1.20387e-05
0.000100908
-1.29618e-05
9.6249e-05
-1.32514e-05
8.84733e-05
-1.28974e-05
7.8409e-05
-1.19558e-05
6.70022e-05
-1.05404e-05
5.51945e-05
-8.8072e-06
4.38075e-05
-6.93078e-06
3.34736e-05
-5.08066e-06
2.4605e-05
-3.40235e-06
1.74997e-05
-2.04665e-06
1.21506e-05
-1.11487e-06
8.18399e-06
-5.45624e-07
5.27073e-06
-2.13273e-07
3.19583e-06
-4.19316e-08
1.77212e-06
2.19898e-08
8.48203e-07
2.85277e-08
3.10576e-07
1.59972e-08
7.23204e-08
5.27553e-09
3.88222e-10
2.91713e-06
5.90212e-07
7.64902e-06
1.45942e-06
1.52233e-05
1.64141e-06
2.57707e-05
1.03799e-06
3.86762e-05
-3.02577e-07
5.2868e-05
-2.24647e-06
6.70859e-05
-4.60594e-06
8.00579e-05
-7.16184e-06
9.06499e-05
-9.68013e-06
9.79952e-05
-1.19321e-05
0.000101566
-1.37161e-05
0.000101214
-1.48766e-05
9.71646e-05
-1.53208e-05
8.99689e-05
-1.50309e-05
8.04174e-05
-1.40632e-05
6.94264e-05
-1.25408e-05
5.79191e-05
-1.06364e-05
4.67068e-05
-8.54604e-06
3.64146e-05
-6.46079e-06
2.74637e-05
-4.54518e-06
2.01002e-05
-2.9596e-06
1.43266e-05
-1.80986e-06
9.8922e-06
-1.04798e-06
6.52374e-06
-5.59528e-07
4.03071e-06
-2.67933e-07
2.26005e-06
-1.14655e-07
1.08411e-06
-4.52363e-08
3.93928e-07
-1.72269e-08
8.94353e-08
-5.88898e-09
-1.66384e-09
2.20314e-06
7.33149e-07
6.33555e-06
1.83346e-06
1.34558e-05
2.13332e-06
2.36828e-05
1.52557e-06
3.63957e-05
6.80704e-08
5.05286e-05
-2.08857e-06
6.48318e-05
-4.73539e-06
7.80351e-05
-7.6277e-06
8.8999e-05
-1.05031e-05
9.68474e-05
-1.3106e-05
0.00010103
-1.52102e-05
0.000101361
-1.66378e-05
9.80214e-05
-1.7279e-05
9.15134e-05
-1.71036e-05
8.25814e-05
-1.61644e-05
7.21051e-05
-1.45906e-05
6.09812e-05
-1.2567e-05
5.00102e-05
-1.03067e-05
3.98134e-05
-8.0212e-06
3.0807e-05
-5.89269e-06
2.31546e-05
-4.08232e-06
1.68707e-05
-2.69308e-06
1.1866e-05
-1.70028e-06
7.94977e-06
-1.01531e-06
4.96252e-06
-5.67259e-07
2.78805e-06
-2.94924e-07
1.3273e-06
-1.40731e-07
4.73922e-07
-5.86903e-08
1.03933e-07
-1.90634e-08
-3.88912e-09
1.38162e-06
8.97656e-07
4.82521e-06
2.26873e-06
1.14226e-05
2.7212e-06
2.12755e-05
2.14037e-06
3.37519e-05
5.94738e-07
4.77921e-05
-1.74756e-06
6.21593e-05
-4.65696e-06
7.55903e-05
-7.86602e-06
8.69418e-05
-1.10875e-05
9.53275e-05
-1.40418e-05
0.000100176
-1.64797e-05
0.000101264
-1.82021e-05
9.87266e-05
-1.90813e-05
9.30103e-05
-1.90723e-05
8.48031e-05
-1.82201e-05
7.49412e-05
-1.66546e-05
6.42888e-05
-1.45685e-05
5.36268e-05
-1.21873e-05
4.3576e-05
-9.73879e-06
3.45486e-05
-7.42314e-06
2.65894e-05
-5.39626e-06
1.97158e-05
-3.74981e-06
1.40416e-05
-2.49005e-06
9.4889e-06
-1.5694e-06
5.94011e-06
-9.29608e-07
3.31949e-06
-5.10061e-07
1.55704e-06
-2.51767e-07
5.42492e-07
-1.04938e-07
1.14119e-07
-3.28786e-08
-6.02782e-09
4.46013e-07
1.08567e-06
3.10828e-06
2.771e-06
9.11326e-06
3.41374e-06
1.85394e-05
2.89315e-06
3.07366e-05
1.29079e-06
4.46467e-05
-1.2064e-06
5.90453e-05
-4.34901e-06
7.26834e-05
-7.84968e-06
8.44227e-05
-1.14012e-05
9.33655e-05
-1.47024e-05
9.89182e-05
-1.7482e-05
0.000100821
-1.95205e-05
9.91619e-05
-2.06715e-05
9.43294e-05
-2.08759e-05
8.69474e-05
-2.01692e-05
7.77985e-05
-1.86752e-05
6.77082e-05
-1.65875e-05
5.74291e-05
-1.41396e-05
4.75726e-05
-1.15715e-05
3.85515e-05
-9.0977e-06
3.02746e-05
-6.86481e-06
2.27466e-05
-4.94803e-06
1.63199e-05
-3.39104e-06
1.10583e-05
-2.20074e-06
6.8971e-06
-1.33859e-06
3.81027e-06
-7.47914e-07
1.7516e-06
-3.70626e-07
5.92329e-07
-1.52239e-07
1.18659e-07
-4.6063e-08
-7.87792e-09
-6.12438e-07
1.29963e-06
1.17397e-06
3.34607e-06
6.51836e-06
4.21796e-06
1.54637e-05
3.79244e-06
2.73369e-05
2.16744e-06
4.10759e-05
-4.50787e-07
5.54666e-05
-3.79389e-06
6.92773e-05
-7.55696e-06
8.13844e-05
-1.14161e-05
9.08836e-05
-1.50519e-05
9.71583e-05
-1.81732e-05
9.9914e-05
-2.05411e-05
9.91877e-05
-2.19908e-05
9.5309e-05
-2.24493e-05
8.88377e-05
-2.19409e-05
8.04936e-05
-2.05789e-05
7.10516e-05
-1.85512e-05
6.12291e-05
-1.60935e-05
5.16172e-05
-1.34529e-05
4.2626e-05
-1.08548e-05
3.40258e-05
-8.43161e-06
2.58009e-05
-6.23907e-06
1.85654e-05
-4.36398e-06
1.25524e-05
-2.87916e-06
7.7597e-06
-1.77272e-06
4.21726e-06
-9.94811e-07
1.89146e-06
-4.89835e-07
6.17422e-07
-1.97417e-07
1.1631e-07
-5.7677e-08
-9.3108e-09
-1.80518e-06
1.54132e-06
-9.91964e-07
3.99855e-06
3.62863e-06
5.1394e-06
1.20387e-05
4.84448e-06
2.35376e-05
3.2337e-06
3.70579e-05
5.31609e-07
5.13952e-05
-2.97617e-06
6.53346e-05
-6.96799e-06
7.77716e-05
-1.11052e-05
8.78036e-05
-1.50545e-05
9.47938e-05
-1.85081e-05
9.84138e-05
-2.12096e-05
9.86496e-05
-2.29777e-05
9.57699e-05
-2.37244e-05
9.02706e-05
-2.34589e-05
8.28047e-05
-2.22813e-05
7.40846e-05
-2.03709e-05
6.47825e-05
-1.79598e-05
5.54611e-05
-1.52962e-05
4.65234e-05
-1.26115e-05
3.76081e-05
-1.00212e-05
2.86774e-05
-7.55965e-06
2.0617e-05
-5.35982e-06
1.38538e-05
-3.56897e-06
8.45592e-06
-2.20836e-06
4.50312e-06
-1.23751e-06
1.96026e-06
-6.03442e-07
6.12186e-07
-2.38491e-07
1.05044e-07
-6.72511e-08
-1.02575e-08
-3.14497e-06
1.81221e-06
-3.40637e-06
4.73235e-06
4.3642e-07
6.18225e-06
8.26081e-06
6.05259e-06
1.93302e-05
4.49321e-06
3.25737e-05
1.74754e-06
4.68008e-05
-1.88352e-06
6.08143e-05
-6.06454e-06
7.35274e-05
-1.04443e-05
8.40457e-05
-1.46777e-05
9.17184e-05
-1.84445e-05
9.61851e-05
-2.14735e-05
9.73827e-05
-2.35688e-05
9.55198e-05
-2.46261e-05
9.1027e-05
-2.46373e-05
8.44852e-05
-2.36881e-05
7.65381e-05
-2.19465e-05
6.78059e-05
-1.96362e-05
5.88141e-05
-1.7001e-05
4.99534e-05
-1.42723e-05
4.0753e-05
-1.15466e-05
3.11554e-05
-8.83771e-06
2.23096e-05
-6.32511e-06
1.48516e-05
-4.23407e-06
8.92111e-06
-2.62395e-06
4.63477e-06
-1.46535e-06
1.94213e-06
-7.07769e-07
5.68284e-07
-2.75022e-07
7.99393e-08
-7.49204e-08
-1.07334e-08
-4.64561e-06
2.1145e-06
-6.08348e-06
5.55088e-06
-3.05904e-06
7.34675e-06
4.13455e-06
7.41474e-06
1.47233e-05
5.94266e-06
2.7626e-05
3.1929e-06
4.16681e-05
-5.15965e-07
5.56815e-05
-4.83887e-06
6.85978e-05
-9.41713e-06
7.95324e-05
-1.38963e-05
8.78268e-05
-1.79463e-05
9.30931e-05
-2.12847e-05
9.52215e-05
-2.37019e-05
9.43626e-05
-2.50775e-05
9.08787e-05
-2.53869e-05
8.5275e-05
-2.47006e-05
7.81258e-05
-2.31721e-05
6.99959e-05
-2.10128e-05
6.13683e-05
-1.84584e-05
5.26168e-05
-1.57346e-05
4.31912e-05
-1.2917e-05
3.30221e-05
-9.99987e-06
2.34941e-05
-7.20681e-06
1.54517e-05
-4.84047e-06
9.1008e-06
-3.00075e-06
4.58056e-06
-1.67018e-06
1.81463e-06
-8.00628e-07
4.66769e-07
-3.07594e-07
2.79024e-08
-8.18112e-08
-1.10551e-08
-6.15952e-06
2.40053e-06
-8.93612e-06
6.38056e-06
-6.87116e-06
8.61259e-06
-3.44047e-07
8.93896e-06
9.71151e-06
7.58802e-06
2.22104e-05
4.8747e-06
3.59834e-05
1.1325e-06
4.99004e-05
-3.2819e-06
6.29245e-05
-8.00716e-06
7.41817e-05
-1.2685e-05
8.30108e-05
-1.69783e-05
8.90007e-05
-2.0596e-05
9.2e-05
-2.33173e-05
9.21012e-05
-2.50075e-05
8.95964e-05
-2.56267e-05
8.49176e-05
-2.52291e-05
7.85707e-05
-2.39517e-05
7.10614e-05
-2.19906e-05
6.28322e-05
-1.95698e-05
5.42441e-05
-1.69065e-05
4.46947e-05
-1.40555e-05
3.41052e-05
-1.09883e-05
2.40562e-05
-7.9655e-06
1.55843e-05
-5.36443e-06
8.95193e-06
-3.32666e-06
4.30558e-06
-1.84676e-06
1.53685e-06
-8.7876e-07
2.57484e-07
-3.32429e-07
-1.01313e-07
-8.67004e-08
-8.48596e-09
-2.91886e-07
-1.18637e-10
-1.5766e-06
-3.48288e-09
-5.3159e-06
-1.12635e-08
-1.28926e-05
-3.45653e-08
-2.51094e-05
-7.5551e-08
-4.1947e-05
-1.26539e-07
-6.27094e-05
-1.6268e-07
-8.64242e-05
-1.42273e-07
-0.000112195
-3.84766e-08
-0.000136861
1.86232e-07
-0.000157975
5.96059e-07
-0.000176792
1.19678e-06
-0.000194158
1.92775e-06
-0.00020981
2.73087e-06
-0.000223401
3.57847e-06
-0.000234527
4.40967e-06
-0.000242736
5.15511e-06
-0.000247598
5.776e-06
-0.000248755
6.25202e-06
-0.000245934
6.55698e-06
-0.000238952
6.67522e-06
-0.000227735
6.61199e-06
-0.000212331
6.37774e-06
-0.000192872
5.98769e-06
-0.000169499
5.44895e-06
-0.000142393
4.76709e-06
-0.000111737
3.94406e-06
-7.76444e-05
2.98647e-06
-4.01551e-05
1.89231e-06
6.58934e-07
-3.03649e-07
-6.87199e-10
-1.63879e-06
-7.52301e-09
-5.45974e-06
-2.57948e-08
-1.3104e-05
-7.38994e-08
-2.53325e-05
-1.55402e-07
-4.20864e-05
-2.52157e-07
-6.26503e-05
-3.13837e-07
-8.60743e-05
-2.69118e-07
-0.000111455
-5.61126e-08
-0.000135989
4.1297e-07
-0.000157119
1.23934e-06
-0.000175847
2.41955e-06
-0.000193239
3.86054e-06
-0.000208991
5.46067e-06
-0.000222706
7.13599e-06
-0.000233962
8.77399e-06
-0.000242308
1.02498e-05
-0.000247296
1.14728e-05
-0.000248547
1.23944e-05
-0.00024579
1.29836e-05
-0.000238843
1.32137e-05
-0.000227643
1.30962e-05
-0.000212254
1.26429e-05
-0.000192806
1.18661e-05
-0.000169446
1.07941e-05
-0.000142352
9.44697e-06
-0.000111699
7.82589e-06
-7.76098e-05
5.93292e-06
-4.01313e-05
3.761e-06
1.31007e-06
-3.17858e-07
-1.15216e-09
-1.70456e-06
-1.18562e-08
-5.57153e-06
-4.1725e-08
-1.3166e-05
-1.13035e-07
-2.51775e-05
-2.28787e-07
-4.15008e-05
-3.57586e-07
-6.14436e-05
-4.26944e-07
-8.41553e-05
-3.39236e-07
-0.000108809
7.45658e-09
-0.000132907
7.37133e-07
-0.000153887
1.96642e-06
-0.000172571
3.69346e-06
-0.000190111
5.81253e-06
-0.000206133
8.17223e-06
-0.000220168
1.06208e-05
-0.000231747
1.30022e-05
-0.000240407
1.51586e-05
-0.000245688
1.69531e-05
-0.000247201
1.83016e-05
-0.000244665
1.91594e-05
-0.000237905
1.94978e-05
-0.000226864
1.93268e-05
-0.000211605
1.86621e-05
-0.000192262
1.75221e-05
-0.000169004
1.59462e-05
-0.000142011
1.39637e-05
-0.000111444
1.15815e-05
-7.74303e-05
8.79106e-06
-4.00327e-05
5.57676e-06
1.9434e-06
-3.30113e-07
-1.54255e-09
-1.74845e-06
-1.59152e-08
-5.58937e-06
-5.62034e-08
-1.29792e-05
-1.46343e-07
-2.4515e-05
-2.84924e-07
-4.00623e-05
-4.26642e-07
-5.90128e-05
-4.77725e-07
-8.06658e-05
-3.12094e-07
-0.000104305
2.01201e-07
-0.000127663
1.19719e-06
-0.00014835
2.80894e-06
-0.000167079
5.05404e-06
-0.000184877
7.80028e-06
-0.000201308
1.0853e-05
-0.000215823
1.40013e-05
-0.000227897
1.70523e-05
-0.000237042
1.98268e-05
-0.000242778
2.21475e-05
-0.000244711
2.38979e-05
-0.000242547
2.50102e-05
-0.000236117
2.54532e-05
-0.000225366
2.52314e-05
-0.000210354
2.43673e-05
-0.000191222
2.28925e-05
-0.000168154
2.08476e-05
-0.000141345
1.8265e-05
-0.00011095
1.51582e-05
-7.70879e-05
1.15149e-05
-3.98525e-05
7.30891e-06
2.54739e-06
-3.39809e-07
-1.92991e-09
-1.77005e-06
-1.95274e-08
-5.52858e-06
-6.8032e-08
-1.26042e-05
-1.70627e-07
-2.34964e-05
-3.17337e-07
-3.80701e-05
-4.48336e-07
-5.5828e-05
-4.49441e-07
-7.62125e-05
-1.70257e-07
-9.86163e-05
5.37807e-07
-0.000121057
1.80938e-06
-0.0001414
3.79115e-06
-0.000160211
6.51869e-06
-0.000178313
9.82689e-06
-0.000195211
1.34934e-05
-0.000210298
1.72688e-05
-0.000222976
2.09184e-05
-0.000232715
2.42407e-05
-0.000239018
2.70326e-05
-0.000241471
2.91447e-05
-0.000239774
3.04906e-05
-0.000233757
3.10319e-05
-0.000223371
3.07683e-05
-0.000208681
2.97248e-05
-0.000189831
2.79412e-05
-0.000167013
2.54599e-05
-0.000140436
2.23152e-05
-0.000110262
1.85255e-05
-7.66152e-05
1.40804e-05
-3.96083e-05
8.94142e-06
3.11654e-06
-3.4478e-07
-2.3119e-09
-1.76178e-06
-2.23837e-08
-5.38112e-06
-7.58977e-08
-1.205e-05
-1.81914e-07
-2.21835e-05
-3.18786e-07
-3.56754e-05
-4.11579e-07
-5.21377e-05
-3.28977e-07
-7.11352e-05
9.6246e-08
-9.21843e-05
1.02284e-06
-0.000113624
2.58573e-06
-0.000133598
4.92854e-06
-0.00015249
8.09125e-06
-0.000170898
1.18935e-05
-0.000188267
1.60897e-05
-0.000203955
2.04154e-05
-0.000217297
2.45944e-05
-0.000227689
2.83872e-05
-0.000234613
3.1585e-05
-0.000237644
3.4015e-05
-0.000236471
3.55691e-05
-0.000230924
3.62006e-05
-0.000220959
3.59023e-05
-0.000206643
3.46987e-05
-0.000188131
3.26344e-05
-0.000165613
2.97532e-05
-0.000139304
2.60909e-05
-0.000109393
2.16688e-05
-7.60237e-05
1.64763e-05
-3.93085e-05
1.04666e-05
3.64857e-06
-3.43371e-07
-2.64325e-09
-1.72014e-06
-2.38396e-08
-5.15019e-06
-7.78848e-08
-1.13474e-05
-1.75914e-07
-2.06648e-05
-2.82524e-07
-3.30458e-05
-3.07796e-07
-4.81979e-05
-1.0823e-07
-6.57904e-05
4.92186e-07
-8.54663e-05
1.65793e-06
-0.00010589
3.52437e-06
-0.00012548
6.2169e-06
-0.000144433
9.76686e-06
-0.000163119
1.3997e-05
-0.000180926
1.86428e-05
-0.000197176
2.34303e-05
-0.000211165
2.80627e-05
-0.000222222
3.22603e-05
-0.000229782
3.57963e-05
-0.000233405
3.84919e-05
-0.000232775
4.02255e-05
-0.000227725
4.09376e-05
-0.000218213
4.061e-05
-0.000204306
3.92636e-05
-0.000186163
3.6947e-05
-0.000163977
3.37066e-05
-0.000137971
2.95782e-05
-0.000108366
2.45787e-05
-7.53289e-05
1.86949e-05
-3.89593e-05
1.18782e-05
4.14101e-06
-3.35168e-07
-2.76405e-09
-1.6483e-06
-2.32067e-08
-4.85379e-06
-7.19177e-08
-1.05502e-05
-1.48522e-07
-1.90523e-05
-2.02792e-07
-3.03594e-05
-1.31175e-07
-4.42615e-05
2.16144e-07
-6.05232e-05
1.01689e-06
-7.88962e-05
2.4394e-06
-9.83384e-05
4.61239e-06
-0.000117537
7.63722e-06
-0.000136515
1.15328e-05
-0.000155422
1.61283e-05
-0.000173604
2.11493e-05
-0.00019034
2.63122e-05
-0.000204894
3.13107e-05
-0.000216559
3.58462e-05
-0.000224725
3.96644e-05
-0.000228921
4.25766e-05
-0.000228825
4.44551e-05
-0.00022427
4.52319e-05
-0.000215214
4.48783e-05
-0.000201724
4.34069e-05
-0.000183961
4.08681e-05
-0.000162132
3.731e-05
-0.000136474
3.27644e-05
-0.000107221
2.72414e-05
-7.45562e-05
2.07271e-05
-3.85714e-05
1.31718e-05
4.59232e-06
-3.21287e-07
-2.55592e-09
-1.55561e-06
-1.98766e-08
-4.52208e-06
-5.59874e-08
-9.72843e-06
-9.62326e-08
-1.74675e-05
-7.61874e-08
-2.77881e-05
1.17998e-07
-4.05596e-05
6.39005e-07
-5.56326e-05
1.66248e-06
-7.28348e-05
3.35516e-06
-9.13724e-05
5.83333e-06
-0.000110184
9.17296e-06
-0.000129141
1.3376e-05
-0.000148188
1.82757e-05
-0.000166652
2.36002e-05
-0.000183773
2.90605e-05
-0.000198781
3.43423e-05
-0.000210947
3.91396e-05
-0.000219634
4.31846e-05
-0.000224348
4.62733e-05
-0.000224749
4.82644e-05
-0.000220659
4.90851e-05
-0.000212037
4.87053e-05
-0.000198952
4.71286e-05
-0.000181575
4.43982e-05
-0.000160128
4.05586e-05
-0.000134853
3.56381e-05
-0.000105986
2.96446e-05
-7.3725e-05
2.2565e-05
-3.81579e-05
1.43448e-05
5.00232e-06
-3.04093e-07
-1.92239e-09
-1.45564e-06
-1.32816e-08
-4.19198e-06
-2.81075e-08
-8.95417e-06
-1.61217e-08
-1.60224e-05
9.89817e-08
-2.5489e-05
4.37635e-07
-3.72961e-05
1.15331e-06
-5.13618e-05
2.41757e-06
-6.75634e-05
4.39044e-06
-8.53039e-05
7.17126e-06
-0.000103742
1.08073e-05
-0.000122622
1.52791e-05
-0.000141722
2.04256e-05
-0.000160356
2.5987e-05
-0.000177739
3.16716e-05
-0.000193075
3.71623e-05
-0.000205613
4.21492e-05
-0.000214703
4.63596e-05
-0.000219838
4.95794e-05
-0.000220664
5.16556e-05
-0.000216988
5.25035e-05
-0.000208762
5.20941e-05
-0.000196065
5.04279e-05
-0.000179074
4.75323e-05
-0.000158017
4.34456e-05
-0.000133138
3.81943e-05
-0.000104674
3.17855e-05
-7.28412e-05
2.42043e-05
-3.772e-05
1.5392e-05
5.36844e-06
-2.86636e-07
-7.92753e-10
-1.36434e-06
-2.74296e-09
-3.90361e-06
1.38437e-08
-8.29805e-06
9.41222e-08
-1.48215e-05
3.23064e-07
-2.36022e-05
8.24848e-07
-3.46395e-05
1.75185e-06
-4.7899e-05
3.26991e-06
-6.3294e-05
5.53027e-06
-8.03631e-05
8.60963e-06
-9.84378e-05
1.2519e-05
-0.000117185
1.72207e-05
-0.000136247
2.25642e-05
-0.000154931
2.8302e-05
-0.000172438
3.41438e-05
-0.000187959
3.97742e-05
-0.000200731
4.48845e-05
-0.000210093
4.92007e-05
-0.000215529
5.25032e-05
-0.000216682
5.46341e-05
-0.000213348
5.54956e-05
-0.00020547
5.50527e-05
-0.000193131
5.33059e-05
-0.00017651
5.02695e-05
-0.000155836
4.59719e-05
-0.000131352
4.04358e-05
-0.0001033
3.36654e-05
-7.1903e-05
2.56433e-05
-3.72436e-05
1.63088e-05
5.68809e-06
-2.72466e-07
8.92375e-10
-1.30029e-06
1.27728e-08
-3.70113e-06
7.22884e-08
-7.83304e-06
2.36225e-07
-1.39642e-05
5.9521e-07
-2.22461e-05
1.27529e-06
-3.27181e-05
2.42642e-06
-4.53785e-05
4.20782e-06
-6.01645e-05
6.76021e-06
-7.66908e-05
1.01317e-05
-9.44119e-05
1.42905e-05
-0.000112967
1.91866e-05
-0.000131903
2.46845e-05
-0.000150515
3.05455e-05
-0.000168003
3.6484e-05
-0.000183556
4.21908e-05
-0.00019641
4.73632e-05
-0.000205902
5.17302e-05
-0.000211512
5.50709e-05
-0.000212881
5.72238e-05
-0.0002098
5.80848e-05
-0.000202209
5.76081e-05
-0.000190189
5.57872e-05
-0.000173915
5.26297e-05
-0.000153609
4.81537e-05
-0.000129516
4.23754e-05
-0.000101876
3.52943e-05
-7.09132e-05
2.68889e-05
-3.67235e-05
1.70986e-05
5.96216e-06
-2.67669e-07
3.42639e-09
-1.28979e-06
3.52068e-08
-3.63913e-06
1.5044e-07
-7.63929e-06
4.12354e-07
-1.35451e-05
9.15602e-07
-2.15171e-05
1.7868e-06
-3.16234e-05
3.17312e-06
-4.38849e-05
5.22716e-06
-5.82499e-05
8.07763e-06
-7.43546e-05
1.1737e-05
-9.17318e-05
1.61242e-05
-0.000110037
2.11821e-05
-0.000128754
2.67945e-05
-0.000147169
3.27299e-05
-0.000164491
3.87094e-05
-0.00017992
4.44346e-05
-0.0001927
4.96128e-05
-0.000202177
5.39798e-05
-0.00020783
5.73173e-05
-0.0002093
5.94619e-05
-0.00020638
6.03058e-05
-0.000199011
5.9793e-05
-0.000187265
5.79051e-05
-0.000171306
5.46431e-05
-0.000151352
5.00172e-05
-0.000127642
4.4035e-05
-0.000100414
3.66902e-05
-6.98858e-05
2.79564e-05
-3.61741e-05
1.77744e-05
6.19617e-06
-2.93586e-07
8.71015e-09
-1.38376e-06
6.96421e-08
-3.79953e-06
2.55585e-07
-7.81927e-06
6.32274e-07
-1.36717e-05
1.29712e-06
-2.15138e-05
2.37511e-06
-3.1435e-05
4.00924e-06
-4.34747e-05
6.34614e-06
-5.75893e-05
9.50511e-06
-7.33759e-05
1.34503e-05
-9.04101e-05
1.80385e-05
-0.000108405
2.32205e-05
-0.000126807
2.89076e-05
-0.000144899
3.48699e-05
-0.000161912
4.08368e-05
-0.000177064
4.65253e-05
-0.000189619
5.16567e-05
-0.000198936
5.59769e-05
-0.000204504
5.92725e-05
-0.000205967
6.13804e-05
-0.000203121
6.2189e-05
-0.000195905
6.16337e-05
-0.000184381
5.96852e-05
-0.000168703
5.63354e-05
-0.00014908
5.15855e-05
-0.000125744
4.54344e-05
-9.89266e-05
3.78694e-05
-6.8841e-05
2.88603e-05
-3.56191e-05
1.83485e-05
6.39552e-06
-4.74084e-07
4.58299e-08
-1.75467e-06
1.44836e-07
-4.36815e-06
4.24409e-07
-8.55025e-06
9.40309e-07
-1.44994e-05
1.78853e-06
-2.23606e-05
3.08935e-06
-3.22379e-05
4.98053e-06
-4.41949e-05
7.60579e-06
-5.81671e-05
1.10562e-05
-7.37009e-05
1.52497e-05
-9.04056e-05
2.00241e-05
-0.000108039
2.53217e-05
-0.000126032
3.10519e-05
-0.000143676
3.69942e-05
-0.000160236
4.28947e-05
-0.000174964
4.84933e-05
-0.000187148
5.35283e-05
-0.000196166
5.77578e-05
-0.000201526
6.09752e-05
-0.000202876
6.30191e-05
-0.000200018
6.37748e-05
-0.000192887
6.31699e-05
-0.000181535
6.11647e-05
-0.000166106
5.77409e-05
-0.000146794
5.28894e-05
-0.000123824
4.66002e-05
-9.74174e-05
3.88538e-05
-6.77848e-05
2.96166e-05
-3.50652e-05
1.883e-05
6.56297e-06
-7.67686e-06
2.62923e-06
-1.20563e-05
7.0991e-06
-1.13146e-05
9.86319e-06
-5.43011e-06
1.06075e-05
4.39983e-06
9.46194e-06
1.68825e-05
6.82611e-06
3.08186e-05
3.09668e-06
4.50619e-05
-1.36048e-06
5.85803e-05
-6.17986e-06
7.04878e-05
-1.10053e-05
8.00974e-05
-1.54972e-05
8.69638e-05
-1.93581e-05
9.08914e-05
-2.23586e-05
9.19185e-05
-2.43528e-05
9.02788e-05
-2.52862e-05
8.63481e-05
-2.51967e-05
8.05822e-05
-2.42035e-05
7.34452e-05
-2.24861e-05
6.53628e-05
-2.02537e-05
5.67065e-05
-1.77149e-05
4.68231e-05
-1.49048e-05
3.56072e-05
-1.17648e-05
2.48436e-05
-8.57817e-06
1.57883e-05
-5.79256e-06
8.76234e-06
-3.59498e-06
3.90694e-06
-1.99171e-06
1.07231e-06
-9.36809e-07
-1.82187e-07
-3.35357e-07
-4.76955e-07
-6.00652e-08
3.14369e-08
-3.12392e-07
-8.87381e-06
2.83989e-06
-1.46682e-05
7.71944e-06
-1.56217e-05
1.09561e-05
-1.10701e-05
1.22486e-05
-1.87689e-06
1.15171e-05
1.03205e-05
9.05929e-06
2.41248e-05
5.38793e-06
3.83929e-05
9.40822e-07
5.21092e-05
-3.91793e-06
6.44018e-05
-8.83721e-06
7.45706e-05
-1.34786e-05
8.21449e-05
-1.75407e-05
8.68899e-05
-2.07885e-05
8.87916e-05
-2.30671e-05
8.80233e-05
-2.43096e-05
8.48986e-05
-2.45377e-05
7.98171e-05
-2.38524e-05
7.32009e-05
-2.24164e-05
6.54665e-05
-2.04258e-05
5.69983e-05
-1.80834e-05
4.71382e-05
-1.54095e-05
3.56924e-05
-1.22988e-05
2.45519e-05
-9.02608e-06
1.51964e-05
-6.11002e-06
7.98505e-06
-3.79257e-06
3.03381e-06
-2.0888e-06
1.48429e-07
-9.50809e-07
-1.14139e-06
-2.78702e-07
-1.46772e-06
5.92372e-08
2.07039e-07
-1.45982e-06
-1.008e-05
3.06024e-06
-1.70554e-05
8.33661e-06
-1.94909e-05
1.19343e-05
-1.67189e-05
1.36919e-05
-8.83622e-06
1.35311e-05
2.78767e-06
1.1492e-05
1.6351e-05
7.98916e-06
3.05149e-05
3.60396e-06
4.4299e-05
-1.23254e-06
5.6851e-05
-6.18784e-06
6.74583e-05
-1.09252e-05
7.56289e-05
-1.51394e-05
8.10937e-05
-1.85933e-05
8.37911e-05
-2.11264e-05
8.3838e-05
-2.2661e-05
8.14903e-05
-2.32039e-05
7.7096e-05
-2.28391e-05
7.10478e-05
-2.17124e-05
6.37666e-05
-2.00097e-05
5.56692e-05
-1.7935e-05
4.61877e-05
-1.55243e-05
3.48117e-05
-1.25831e-05
2.34408e-05
-9.29748e-06
1.39203e-05
-6.29112e-06
6.58157e-06
-3.8883e-06
1.51319e-06
-2.09781e-06
-1.51953e-06
-8.72867e-07
-3.00005e-06
-1.10141e-07
-3.5581e-06
3.22327e-07
5.66043e-07
-3.81376e-06
-1.14087e-05
3.28575e-06
-1.95842e-05
8.97705e-06
-2.31909e-05
1.29227e-05
-2.19724e-05
1.5014e-05
-1.59005e-05
1.53287e-05
-5.5439e-06
1.38849e-05
7.48753e-06
1.08111e-05
2.14119e-05
6.60728e-06
3.51138e-05
1.85189e-06
4.77881e-05
-3.07908e-06
5.86943e-05
-7.85702e-06
6.7327e-05
-1.21685e-05
7.33891e-05
-1.57798e-05
7.67776e-05
-1.8528e-05
7.75603e-05
-2.03268e-05
7.59421e-05
-2.11703e-05
7.22273e-05
-2.11262e-05
6.67873e-05
-2.03237e-05
6.00489e-05
-1.89366e-05
5.24795e-05
-1.71683e-05
4.37142e-05
-1.50851e-05
3.28081e-05
-1.2452e-05
2.14114e-05
-9.3211e-06
1.17677e-05
-6.30275e-06
4.28371e-06
-3.82575e-06
-9.70245e-07
-1.95596e-06
-4.27818e-06
-6.42402e-07
-6.13642e-06
2.26939e-07
-7.1759e-06
7.81484e-07
1.15591e-06
-7.94282e-06
-1.28653e-05
3.51552e-06
-2.2382e-05
9.63261e-06
-2.71856e-05
1.39507e-05
-2.71843e-05
1.63641e-05
-2.27117e-05
1.70101e-05
-1.41397e-05
1.60594e-05
-2.31012e-06
1.35982e-05
1.10616e-05
9.85526e-06
2.45282e-05
5.3166e-06
3.71843e-05
4.59327e-07
4.82337e-05
-4.30653e-06
5.7176e-05
-8.65573e-06
6.36936e-05
-1.23698e-05
6.76497e-05
-1.52861e-05
6.90711e-05
-1.73124e-05
6.81202e-05
-1.84317e-05
6.50635e-05
-1.86964e-05
6.02485e-05
-1.82173e-05
5.40921e-05
-1.71491e-05
4.7073e-05
-1.5674e-05
3.89581e-05
-1.38351e-05
2.88528e-05
-1.14793e-05
1.79674e-05
-8.69211e-06
8.38565e-06
-5.9139e-06
7.6439e-07
-3.50326e-06
-4.75166e-06
-1.59525e-06
-8.446e-06
-1.93324e-07
-1.08431e-05
7.88433e-07
-1.25556e-05
1.47678e-06
1.99566e-06
-1.39907e-05
-1.44637e-05
3.74805e-06
-2.54604e-05
1.02991e-05
-3.1619e-05
1.50044e-05
-3.28639e-05
1.77707e-05
-2.96643e-05
1.87377e-05
-2.26909e-05
1.81271e-05
-1.25356e-05
1.61547e-05
-2.8167e-07
1.2994e-05
1.26086e-05
8.92438e-06
2.50097e-05
4.34491e-06
3.60464e-05
-3.1023e-07
4.51314e-05
-4.64239e-06
5.19493e-05
-8.40001e-06
5.63357e-05
-1.14323e-05
5.82858e-05
-1.36414e-05
5.79283e-05
-1.50028e-05
5.54944e-05
-1.55536e-05
5.12996e-05
-1.53855e-05
4.5727e-05
-1.4629e-05
3.92016e-05
-1.3434e-05
3.14774e-05
-1.18097e-05
2.21547e-05
-9.67414e-06
1.2243e-05
-7.21637e-06
3.18414e-06
-4.80545e-06
-4.37412e-06
-2.66062e-06
-1.01588e-05
-8.62183e-07
-1.43152e-05
5.57776e-07
-1.73376e-05
1.63112e-06
-1.97965e-05
2.44508e-06
3.09695e-06
-2.1949e-05
-1.62143e-05
3.98125e-06
-2.88398e-05
1.09706e-05
-3.65009e-05
1.60744e-05
-3.91569e-05
1.92125e-05
-3.72683e-05
2.05364e-05
-3.16044e-05
2.02609e-05
-2.29726e-05
1.8641e-05
-1.21558e-05
1.59222e-05
-3.57227e-07
1.2387e-05
1.13456e-05
8.329e-06
2.2124e-05
4.01787e-06
3.11833e-05
-1.825e-07
3.81365e-05
-3.92969e-06
4.2804e-05
-7.0218e-06
4.51601e-05
-9.3614e-06
4.53109e-05
-1.09224e-05
4.34537e-05
-1.17274e-05
3.98656e-05
-1.18494e-05
3.48837e-05
-1.13956e-05
2.88672e-05
-1.04903e-05
2.15977e-05
-9.14343e-06
1.29766e-05
-7.29623e-06
4.01053e-06
-5.14393e-06
-4.26633e-06
-3.04538e-06
-1.148e-05
-1.18279e-06
-1.74062e-05
4.16046e-07
-2.2073e-05
1.75121e-06
-2.57745e-05
2.84289e-06
-2.89691e-05
3.73516e-06
4.48626e-06
-3.17915e-05
-1.81246e-05
4.21246e-06
-3.25343e-05
1.16394e-05
-4.18504e-05
1.71484e-05
-4.60687e-05
2.06734e-05
-4.56616e-05
2.23775e-05
-4.13721e-05
2.2481e-05
-3.40897e-05
2.12359e-05
-2.4667e-05
1.89042e-05
-1.41785e-05
1.57949e-05
-3.54028e-06
1.22182e-05
6.60707e-06
8.37868e-06
1.53911e-05
4.51449e-06
2.22803e-05
9.37766e-07
2.70735e-05
-2.12567e-06
2.96941e-05
-4.54262e-06
3.02542e-05
-6.25259e-06
2.8915e-05
-7.27005e-06
2.59121e-05
-7.65281e-06
2.15363e-05
-7.48663e-06
1.60987e-05
-6.87408e-06
9.48479e-06
-5.83303e-06
1.68142e-06
-4.33219e-06
-6.40428e-06
-2.54873e-06
-1.39301e-05
-7.80431e-07
-2.06796e-05
8.25554e-07
-2.65694e-05
2.23752e-06
-3.16479e-05
3.45395e-06
-3.60301e-05
4.49899e-06
-4.00045e-05
5.40889e-06
6.21615e-06
-4.35466e-05
-2.01989e-05
4.43846e-06
-3.65517e-05
1.22964e-05
-4.76781e-05
1.82117e-05
-5.36128e-05
2.21334e-05
-5.48427e-05
2.42358e-05
-5.21083e-05
2.47443e-05
-4.62828e-05
2.39115e-05
-3.82701e-05
2.20047e-05
-2.90725e-05
1.93107e-05
-1.95647e-05
1.61249e-05
-1.03283e-05
1.2688e-05
-2.13471e-06
9.2254e-06
4.4758e-06
5.96305e-06
9.20631e-06
3.07968e-06
1.19195e-05
7.126e-07
1.27725e-05
-1.07186e-06
1.1875e-05
-2.25423e-06
9.41869e-06
-2.85829e-06
5.64988e-06
-2.95405e-06
8.38785e-07
-2.62445e-06
-5.02336e-06
-1.89828e-06
-1.1884e-05
-7.69779e-07
-1.9031e-05
6.18352e-07
-2.58273e-05
2.03649e-06
-3.21052e-05
3.3658e-06
-3.78263e-05
4.57565e-06
-4.30555e-05
5.65907e-06
-4.79194e-05
6.62918e-06
-5.2608e-05
7.51183e-06
8.32284e-06
-5.68534e-05
-2.24379e-05
4.65549e-06
-4.08938e-05
1.29307e-05
-5.39862e-05
1.92471e-05
-6.17911e-05
2.35687e-05
-6.48121e-05
2.60809e-05
-6.3789e-05
2.70134e-05
-5.95855e-05
2.66184e-05
-5.31089e-05
2.51604e-05
-4.52844e-05
2.29127e-05
-3.69511e-05
2.01443e-05
-2.87568e-05
1.70951e-05
-2.1356e-05
1.39936e-05
-1.52248e-05
1.1047e-05
-1.07541e-05
8.42543e-06
-8.10933e-06
6.23826e-06
-7.10912e-06
4.50327e-06
-7.65934e-06
3.23427e-06
-9.63636e-06
2.45452e-06
-1.28306e-05
2.13513e-06
-1.70076e-05
2.20744e-06
-2.20822e-05
2.62951e-06
-2.79629e-05
3.38471e-06