/*--------------------------------*- C++ -*----------------------------------*\
| =========                 |                                                 |
| \\      /  F ield         | OpenFOAM: The Open Source CFD Toolbox           |
|  \\    /   O peration     | Version:  dev                                   |
|   \\  /    A nd           | Web:      www.OpenFOAM.org                      |
|    \\/     M anipulation  |                                                 |
\*---------------------------------------------------------------------------*/
FoamFile
{
    version     2.0;
    format      ascii;
    class       volScalarField;
    location    "3";
    object      p;
}
// * * * * * * * * * * * * * * * * * * * * * * * * * * * * * * * * * * * * * //

dimensions      [0 2 -2 0 0 0 0];

internalField   nonuniform List<scalar> 
2790
(
133.548
133.664
134.124
134.811
135.653
136.634
137.754
139.011
140.402
141.921
143.566
145.332
147.216
149.211
151.308
153.495
155.758
158.08
160.437
162.797
165.128
167.388
169.531
171.506
173.259
174.742
175.913
176.743
177.229
177.438
133.373
133.586
134.067
134.752
135.59
136.57
137.686
138.938
140.322
141.835
143.471
145.229
147.103
149.088
151.174
153.351
155.604
157.917
160.267
162.625
164.956
167.224
169.381
171.377
173.161
174.682
175.897
176.779
177.327
177.756
133.195
133.48
133.98
134.655
135.481
136.45
137.554
138.791
140.158
141.649
143.262
144.993
146.837
148.789
150.84
152.978
155.19
157.46
159.766
162.082
164.377
166.615
168.755
170.752
172.56
174.137
175.452
176.5
177.299
178.047
132.998
133.321
133.834
134.499
135.313
136.268
137.356
138.573
139.915
141.379
142.959
144.653
146.457
148.362
150.362
152.444
154.596
156.8
159.038
161.286
163.515
165.694
167.788
169.759
171.57
173.189
174.598
175.791
176.743
177.557
132.775
133.118
133.64
134.298
135.097
136.035
137.102
138.293
139.605
141.032
142.571
144.219
145.969
147.816
149.75
151.761
153.836
155.957
158.108
160.265
162.406
164.502
166.525
168.443
170.226
171.85
173.293
174.533
175.479
176.115
132.521
132.873
133.401
134.05
134.833
135.749
136.79
137.95
139.224
140.607
142.097
143.689
145.378
147.154
149.011
150.938
152.921
154.943
156.989
159.038
161.069
163.057
164.981
166.813
168.528
170.099
171.498
172.682
173.53
173.887
132.233
132.591
133.118
133.758
134.522
135.413
136.423
137.546
138.776
140.11
141.543
143.071
144.687
146.383
148.152
149.982
151.859
153.768
155.692
157.613
159.512
161.369
163.161
164.868
166.463
167.92
169.201
170.25
170.962
171.046
131.913
132.27
132.795
133.423
134.166
135.028
136.002
137.083
138.265
139.541
140.911
142.368
143.903
145.508
147.178
148.899
150.657
152.436
154.221
155.994
157.739
159.435
161.061
162.596
164.017
165.294
166.387
167.235
167.786
167.637
131.559
131.914
132.433
133.047
133.766
134.596
135.531
136.565
137.692
138.907
140.206
141.583
143.029
144.536
146.095
147.694
149.32
150.955
152.582
154.186
155.75
157.252
158.671
159.984
161.167
162.19
163.017
163.587
163.928
163.549
131.173
131.523
132.035
132.634
133.326
134.119
135.011
135.994
137.063
138.21
139.433
140.724
142.073
143.472
144.91
146.376
147.856
149.331
150.781
152.192
153.546
154.818
155.982
157.013
157.884
158.563
159.02
159.198
159.218
158.528
130.755
131.1
131.602
132.184
132.846
133.601
134.446
135.375
136.38
137.455
138.597
139.795
141.039
142.322
143.632
144.954
146.275
147.572
148.826
150.022
151.134
152.135
152.991
153.67
154.138
154.354
154.292
153.895
153.385
152.155
130.307
130.648
131.138
131.699
132.33
133.043
133.839
134.71
135.648
136.648
137.702
138.801
139.935
141.096
142.268
143.437
144.585
145.689
146.73
147.686
148.527
149.212
149.702
149.952
149.906
149.505
148.709
147.444
146.027
143.777
129.83
130.168
130.644
131.181
131.779
132.45
133.194
134.005
134.872
135.792
136.754
137.749
138.769
139.801
140.829
141.835
142.799
143.696
144.508
145.205
145.742
146.071
146.138
145.875
145.192
143.984
142.156
139.56
136.56
132.283
129.326
129.662
130.123
130.633
131.197
131.824
132.515
133.261
134.056
134.892
135.759
136.648
137.548
138.446
139.323
140.16
140.931
141.613
142.183
142.599
142.808
142.748
142.344
141.492
140.051
137.83
134.601
129.988
124.173
115.511
128.798
129.131
129.575
130.059
130.587
131.169
131.803
132.484
133.204
133.955
134.724
135.504
136.282
137.042
137.763
138.424
138.997
139.458
139.777
139.902
139.767
139.298
138.393
136.905
134.624
131.231
126.256
118.804
108.102
88.5539
3.45923
3.46915
3.45539
3.40301
3.31574
3.20989
3.10098
2.99834
2.90445
2.81697
2.73308
2.65023
2.56521
2.47622
2.38391
2.28895
2.18923
2.08124
1.96564
1.8474
1.72866
1.60595
1.47382
1.32901
1.17272
1.00611
0.824644
0.62341
0.399612
0.149654
3.45606
3.46438
3.44384
3.38607
3.29719
3.19262
3.08641
2.98697
2.89597
2.81085
2.72928
2.64861
2.56462
2.47547
2.38325
2.28968
2.19148
2.08252
1.96457
1.84608
1.72921
1.6088
1.4781
1.33325
1.17654
1.01053
0.829097
0.62642
0.400108
0.14588
3.45827
3.46281
3.43188
3.3657
3.27354
3.17002
3.06725
2.97228
2.88525
2.80327
2.72505
2.64784
2.56472
2.47406
2.38172
2.29149
2.19679
2.08479
1.96089
1.84178
1.72875
1.61308
1.48545
1.33953
1.17845
1.00866
0.825126
0.620737
0.392999
0.137843
3.4694
3.46643
3.42285
3.34716
3.25122
3.14882
3.04983
2.95997
2.87663
2.7972
2.72275
2.65075
2.56747
2.47214
2.37904
2.29521
2.20806
2.09312
1.96028
1.83663
1.72227
1.60591
1.47761
1.33143
1.16963
0.996418
0.809582
0.60373
0.375536
0.126559
3.48772
3.4757
3.41994
3.33603
3.23738
3.13659
3.04085
2.9573
2.87703
2.79654
2.72537
2.66276
2.58229
2.47896
2.37924
2.29525
2.20971
2.09701
1.96381
1.83475
1.71285
1.58943
1.45593
1.30733
1.14386
0.967662
0.778458
0.572185
0.347005
0.113485
3.5121
3.49416
3.42979
3.3416
3.24329
3.14518
3.05059
2.97321
2.90202
2.81481
2.73254
2.66948
2.59705
2.4986
2.39591
2.30365
2.20981
2.09566
1.96351
1.82906
1.69738
1.56407
1.42281
1.26943
1.10305
0.923801
0.732609
0.527438
0.309844
0.0988638
3.55061
3.53298
3.46575
3.37819
3.28255
3.18726
3.09308
3.00303
2.9244
2.84538
2.76436
2.69145
2.61374
2.51919
2.41752
2.31778
2.21348
2.09352
1.95817
1.81637
1.67348
1.52853
1.37751
1.2174
1.0469
0.864777
0.672164
0.469961
0.265209
0.0826246
3.62322
3.60888
3.54083
3.44996
3.34888
3.24457
3.14304
3.04961
2.96316
2.88037
2.79946
2.72102
2.63716
2.54171
2.43899
2.33284
2.21901
2.09128
1.94931
1.79757
1.64114
1.48227
1.31943
1.15079
0.975153
0.79029
0.596975
0.400256
0.213386
0.0643662
3.74685
3.72426
3.64358
3.53638
3.41854
3.3027
3.19453
3.09527
3.00375
2.91694
2.83361
2.7516
2.66435
2.56724
2.46176
2.34902
2.2258
2.08854
1.93695
1.77287
1.60059
1.42512
1.24786
1.06852
0.886648
0.699641
0.506955
0.318077
0.153584
0.0434844
3.90848
3.85438
3.7457
3.61333
3.47925
3.35203
3.23617
3.13217
3.03812
2.95016
2.86583
2.78204
2.69317
2.59493
2.48651
2.36725
2.23441
2.08576
1.92131
1.74212
1.55178
1.35689
1.16188
0.968848
0.779006
0.59028
0.401597
0.22363
0.0846997
0.0194325
4.06609
3.97171
3.82254
3.66359
3.5127
3.37759
3.25858
3.15414
3.06153
2.97632
2.89445
2.81178
2.72327
2.62479
2.5139
2.38844
2.24567
2.08383
1.90323
1.70541
1.49417
1.27681
1.06037
0.850106
0.650013
0.45998
0.278523
0.11503
0.00554839
-0.00824967
4.19763
4.04214
3.84428
3.65855
3.50035
3.36797
3.25458
3.15647
3.07097
2.99353
2.91851
2.84058
2.755
2.65773
2.54524
2.41404
2.26092
2.0841
1.88416
1.66362
1.42738
1.18363
0.941675
0.710348
0.497271
0.3054
0.133509
-0.0101179
-0.0845393
-0.0400537
4.24898
3.99957
3.7581
3.56641
3.42574
3.31618
3.22062
3.13673
3.06517
3.00175
2.93869
2.86932
2.7894
2.69523
2.58241
2.44607
2.28204
2.08828
1.86565
1.61785
1.35143
1.07611
0.803673
0.546753
0.317408
0.122591
-0.0377454
-0.156054
-0.187188
-0.075919
4.08086
3.74394
3.50128
3.35366
3.27921
3.22534
3.15965
3.09552
3.04462
3.00284
2.95763
2.90022
2.82829
2.73927
2.62781
2.48713
2.31159
2.09859
1.8495
1.56939
1.26683
0.953712
0.644709
0.356661
0.106881
-0.0924432
-0.238739
-0.324715
-0.303474
-0.117307
3.45904
3.1702
2.99946
2.98131
3.05902
3.11752
3.08202
3.0345
3.01059
3.00103
2.9808
2.9372
2.87435
2.79249
2.68454
2.54063
2.35288
2.11805
1.83822
1.52029
1.17519
0.817444
0.465094
0.139652
-0.135416
-0.341073
-0.470256
-0.515878
-0.432564
-0.164117
128.237
128.566
128.993
129.449
129.94
130.474
131.05
131.663
132.305
132.967
133.636
134.302
134.953
135.569
136.131
136.61
136.98
137.215
137.274
137.097
136.611
135.723
134.308
132.177
129.048
124.47
117.674
106.975
88.9922
36.5742
127.636
127.961
128.371
128.797
129.248
129.732
130.247
130.789
131.351
131.92
132.484
133.033
133.552
134.021
134.416
134.708
134.873
134.878
134.673
134.195
133.361
132.068
130.172
127.46
123.619
118.152
110.248
98.334
81.809
60.0091
127
127.321
127.713
128.108
128.517
128.949
129.401
129.871
130.35
130.824
131.281
131.71
132.093
132.412
132.638
132.745
132.706
132.482
132.02
131.252
130.094
128.437
126.134
122.98
118.694
112.89
105.111
94.7952
82.6256
70.4877
126.33
126.646
127.021
127.383
127.748
128.126
128.516
128.912
129.305
129.683
130.032
130.339
130.587
130.754
130.814
130.739
130.501
130.057
129.351
128.318
126.874
124.914
122.304
118.871
114.403
108.653
101.404
92.4164
81.6166
69.2319
125.627
125.939
126.295
126.625
126.944
127.268
127.594
127.915
128.223
128.503
128.743
128.929
129.042
129.061
128.959
128.71
128.281
127.63
126.704
125.438
123.755
121.562
118.744
115.166
110.677
105.113
98.3282
90.153
80.4108
69.5694
124.893
125.201
125.538
125.834
126.108
126.377
126.639
126.885
127.106
127.289
127.422
127.488
127.47
127.345
127.089
126.674
126.069
125.23
124.109
122.647
120.776
118.415
115.473
111.848
107.432
102.12
95.8237
88.483
80.0889
71.1327
124.131
124.434
124.752
125.014
125.243
125.457
125.655
125.826
125.962
126.049
126.076
126.026
125.881
125.62
125.219
124.651
123.884
122.881
121.594
119.974
117.961
115.491
112.493
108.893
104.622
99.6183
93.8473
87.3148
80.0597
72.4179
123.343
123.641
123.94
124.168
124.352
124.512
124.646
124.743
124.795
124.79
124.714
124.552
124.288
123.899
123.363
122.656
121.747
120.601
119.179
117.436
115.325
112.796
109.796
106.276
102.194
97.5222
92.2544
86.4175
80.0568
73.4227
122.532
122.824
123.104
123.299
123.439
123.545
123.616
123.642
123.613
123.518
123.344
123.077
122.7
122.193
121.535
120.703
119.671
118.407
116.878
115.046
112.876
110.328
107.368
103.964
100.094
95.7493
90.9412
85.7042
80.0883
74.2933
121.702
121.988
122.248
122.411
122.508
122.562
122.572
122.529
122.422
122.241
121.975
121.61
121.13
120.515
119.747
118.807
117.672
116.312
114.702
112.811
110.613
108.079
105.188
101.921
98.2696
94.2387
89.8472
85.1327
80.1448
75.0408
120.855
121.136
121.377
121.508
121.563
121.567
121.519
121.409
121.228
120.967
120.615
120.159
119.584
118.873
118.009
116.978
115.758
114.324
112.656
110.732
108.531
106.036
103.233
100.114
96.6803
92.943
88.9251
84.6632
80.202
75.6656
119.997
120.272
120.494
120.595
120.61
120.566
120.462
120.29
120.039
119.703
119.271
118.733
118.073
117.278
116.333
115.225
113.936
112.448
110.743
108.806
106.624
104.184
101.481
98.5143
95.29
91.8229
88.137
84.2657
80.2479
76.1823
119.131
119.4
119.605
119.676
119.654
119.564
119.408
119.176
118.862
118.457
117.952
117.339
116.605
115.737
114.724
113.554
112.213
110.687
108.963
107.03
104.88
102.508
99.9115
97.0951
94.0681
90.847
87.4546
83.9206
80.2782
76.6063
118.263
118.525
118.713
118.757
118.699
118.566
118.361
118.075
117.701
117.234
116.665
115.985
115.186
114.257
113.188
111.969
110.59
109.041
107.312
105.396
103.29
100.992
98.5044
95.833
92.9896
89.9904
86.8568
83.6144
80.2913
76.951
117.396
117.653
117.824
117.842
117.751
117.579
117.328
116.992
116.565
116.042
115.415
114.679
113.824
112.844
111.73
110.475
109.07
107.509
105.786
103.898
101.843
99.6231
97.2421
94.7083
92.0336
89.2337
86.3277
83.3377
80.2872
77.2278
116.537
116.787
116.943
116.938
116.815
116.607
116.315
115.935
115.46
114.886
114.21
113.424
112.523
111.502
110.353
109.071
107.651
106.089
104.382
102.528
100.528
98.3868
96.1091
93.7039
91.1832
88.5614
85.8554
83.0842
80.2676
77.4474
115.691
115.935
116.076
116.049
115.899
115.657
115.328
114.907
114.39
113.773
113.053
112.227
111.288
110.234
109.059
107.76
106.334
104.779
103.093
101.278
99.3357
97.2715
95.0918
92.8058
90.4246
87.9614
85.4311
82.85
80.2346
77.6191
114.864
115.101
115.229
115.182
115.006
114.735
114.373
113.917
113.362
112.708
111.952
111.091
110.122
109.043
107.85
106.541
105.116
103.573
101.914
100.14
98.2558
96.2663
94.1787
92.0019
89.7465
87.4242
85.0482
82.6323
80.1905
77.7509
114.061
114.293
114.407
114.342
114.144
113.846
113.456
112.968
112.382
111.696
110.91
110.021
109.029
107.931
106.726
105.414
103.995
102.47
100.84
99.1085
97.2807
95.3621
93.3598
91.2825
89.1398
86.9423
84.7016
82.4294
80.1375
77.8493
113.29
113.515
113.618
113.536
113.318
112.998
112.582
112.068
111.454
110.742
109.931
109.02
108.01
106.9
105.689
104.379
102.97
101.464
99.8653
98.1766
96.403
94.5508
92.627
90.6396
88.5974
86.5101
84.3876
82.2402
80.078
77.9202
112.555
112.774
112.867
112.77
112.535
112.194
111.757
111.22
110.584
109.85
109.019
108.092
107.069
105.951
104.738
103.433
102.038
100.554
98.9865
97.3389
95.6167
93.8259
91.9733
90.0666
88.1137
86.1232
84.104
82.0648
80.0144
77.969
111.865
112.078
112.16
112.051
111.8
111.443
110.986
110.431
109.777
109.026
108.179
107.24
106.208
105.086
103.875
102.578
101.197
99.7364
98.1995
96.5911
94.9166
93.1819
91.3936
89.5587
87.6846
85.7789
83.8494
81.9039
79.95
78.0013
111.225
111.432
111.505
111.385
111.121
110.748
110.277
109.706
109.037
108.272
107.414
106.466
105.429
104.306
103.099
101.812
100.447
99.0086
97.5012
95.9294
94.2985
92.6145
90.8834
89.1119
87.3067
85.4746
83.6228
81.758
79.8868
78.0208
110.643
110.844
110.909
110.778
110.503
110.118
109.634
109.051
108.37
107.594
106.728
105.774
104.734
103.612
102.412
101.135
99.7863
98.3697
96.8898
95.3515
93.76
92.121
90.4403
88.7241
86.9786
85.2101
83.4249
81.629
79.8284
78.0328
110.127
110.322
110.378
110.238
109.953
109.558
109.064
108.47
107.78
106.997
106.124
105.166
104.126
103.007
101.813
100.547
99.2142
97.8178
96.3629
94.8545
93.2977
91.6979
90.0609
88.3922
86.6977
84.9832
83.2542
81.5164
79.775
78.0381
109.683
109.872
109.919
109.771
109.478
109.075
108.572
107.971
107.274
106.485
105.609
104.649
103.61
102.495
101.308
100.052
98.7334
97.3551
95.9223
94.4399
92.913
91.3468
89.7467
88.1181
86.4663
84.7968
83.1147
81.4251
79.7329
78.045
109.322
109.503
109.541
109.384
109.083
108.673
108.164
107.556
106.854
106.061
105.183
104.223
103.185
102.074
100.893
99.6474
98.3409
96.9783
95.5642
94.1035
92.6013
91.0626
89.4926
87.8964
86.2791
84.6457
83.001
81.3498
79.6964
78.0467
109.054
109.224
109.249
109.085
108.78
108.365
107.851
107.239
106.533
105.738
104.858
103.898
102.862
101.755
100.58
99.3423
98.0461
96.6962
95.2971
93.8539
92.3713
90.8543
89.308
87.7371
86.1467
84.5414
82.9259
81.3047
79.6819
78.0628
108.894
109.033
109.04
108.871
108.562
108.145
107.628
107.013
106.306
105.51
104.63
103.67
102.637
101.532
100.362
99.1306
97.8419
96.501
95.1125
93.6812
92.2121
90.7098
89.1794
87.6255
86.053
84.4663
82.8699
81.268
79.6647
78.0643
108.88
108.966
108.948
108.771
108.46
108.039
107.518
106.902
106.193
105.396
104.516
103.558
102.526
101.425
100.258
99.0309
97.7477
96.4131
95.0318
93.6086
92.1482
90.6555
89.1352
87.592
86.0305
84.4552
82.8705
81.2803
79.6887
78.0994
-72.0731
-43.4929
-14.3485
41.4843
35.8742
27.6651
55.0091
43.1319
33.2054
54.292
44.6142
37.6205
58.4808
51.0867
45.1925
62.3833
56.2805
51.1319
65.0506
59.8986
55.5188
67.145
62.7757
59.0577
68.8905
65.1348
61.9376
70.3274
67.0526
64.2666
71.5054
68.6166
66.1608
72.4742
69.8998
67.7124
73.2718
70.9568
68.9899
73.9282
71.8295
70.0461
74.4673
72.5507
70.9215
74.9094
73.1471
71.6484
75.2708
73.6402
72.2525
75.5652
74.0474
72.7545
75.8035
74.3828
73.1712
75.9949
74.6579
73.5166
76.1475
74.8828
73.8021
76.2693
75.0669
74.038
76.3655
75.2163
74.2317
76.4426
75.3386
74.3914
76.5022
75.4361
74.5204
76.5546
75.5197
74.6297
76.5912
75.5813
74.7125
76.6363
75.6452
74.7912
76.6547
75.6769
74.8347
76.7078
75.7422
74.9058
3.94788
1.81281
1.81788
2.23524
2.77946
3.09996
3.02684
2.96165
2.96702
3.00568
3.01957
2.98631
2.9309
2.85833
2.75706
2.61166
2.41096
2.15118
1.83561
1.4736
1.07891
0.669048
0.265828
-0.104089
-0.410301
-0.625313
-0.735419
-0.734034
-0.580344
-0.217392
11.3461
3.05322
2.84052
3.23861
3.56166
3.33264
2.84363
2.74041
2.85451
3.02177
3.09809
3.05704
3.00324
2.94384
2.85459
2.70996
2.49468
2.20532
1.84745
1.43399
0.982144
0.512417
0.0503859
-0.372057
-0.717273
-0.947717
-1.03923
-0.984205
-0.751689
-0.27861
19.7107
9.77966
6.63338
5.14886
4.16284
3.41917
3.15872
3.14777
3.22596
3.31828
3.25577
3.11068
3.05763
3.03198
2.9715
2.83412
2.60283
2.27917
1.87331
1.40322
0.889501
0.354589
-0.172774
-0.655529
-1.04806
-1.30026
-1.37224
-1.25211
-0.929732
-0.347961
28.3979
19.1024
13.4456
9.7345
7.14606
5.43895
4.47908
3.94125
3.64787
3.50866
3.40217
3.34495
3.32778
3.29351
3.19834
3.01643
2.74003
2.3716
1.91407
1.38311
0.803648
0.199501
-0.396258
-0.940417
-1.37876
-1.65033
-1.70346
-1.51913
-1.09985
-0.42377
37.211
28.4697
21.4802
16.1883
12.2865
9.47812
7.5083
6.1391
5.20416
4.58362
4.16813
3.89672
3.71336
3.56585
3.4069
3.19409
2.89532
2.49342
1.98669
1.39211
0.741805
0.0694533
-0.586648
-1.17913
-1.64991
-1.93553
-1.97995
-1.74954
-1.23309
-0.491833
44.3627
36.5977
29.3379
23.2424
18.442
14.7234
11.8638
9.69035
8.05999
6.84827
5.94452
5.26376
4.74141
4.32101
3.9475
3.56971
3.14652
2.65144
2.07436
1.42303
0.721707
0.00404785
-0.688321
-1.30447
-1.78457
-2.06599
-2.09498
-1.8398
-1.29748
-0.573597
49.9443
43.2889
36.3757
30.0996
24.8551
20.5535
17.0375
14.1904
11.9104
10.0966
8.6528
7.49645
6.5591
5.77868
5.09616
4.45817
3.82151
3.15651
2.44873
1.69993
0.927342
0.160154
-0.562528
-1.19219
-1.67307
-1.94893
-1.97459
-1.72995
-1.23561
-0.626021
54.403
48.6979
42.377
36.3131
30.9973
26.4312
22.5174
19.1892
16.3897
14.0523
12.1047
10.4773
9.10647
7.93262
6.89964
5.95674
5.06165
4.18357
3.30524
2.42404
1.5517
0.712244
-0.0601326
-0.723012
-1.22918
-1.53359
-1.60415
-1.43566
-1.06643
-0.635893
57.9643
53.0201
47.343
41.6875
36.541
31.9541
27.8729
24.2678
21.1173
18.3864
16.0276
13.9893
12.2197
10.6686
9.28756
8.03181
6.86294
5.75163
4.67978
3.64182
2.64468
1.70661
0.855069
0.124129
-0.449556
-0.833388
-1.0084
-0.981239
-0.796906
-0.582152
60.8137
56.4784
51.4047
46.2192
41.3646
36.9113
32.832
29.1196
25.7757
22.7887
20.1327
17.7738
15.6751
13.798
12.1041
10.5569
9.12396
7.77939
6.50616
5.29713
4.15544
3.09364
2.13197
1.29563
0.610801
0.0987102
-0.232235
-0.395681
-0.435407
-0.458072
63.1178
59.2742
54.7287
50.0012
45.4806
41.2411
37.2688
33.5682
30.1535
27.0285
24.1833
21.5989
19.2518
17.1153
15.1612
13.3618
11.6913
10.1288
8.65921
7.27513
5.97694
4.77239
3.67512
2.70228
1.87093
1.19313
0.66985
0.284427
-0.0020589
-0.275206
64.9998
61.5581
57.4627
53.1507
48.9624
44.9674
41.1575
37.5418
34.1406
30.9662
28.0195
25.2927
22.7729
20.4436
18.2858
16.2798
14.4067
12.6502
10.9983
9.44382
7.98561
6.62769
5.37838
4.2482
3.247
2.38004
1.64354
1.0202
0.476756
-0.0535256
66.5485
63.4394
59.7249
55.7792
51.9013
48.1533
44.5287
41.0374
37.7015
34.538
31.5542
28.7497
26.1197
23.6554
21.3454
19.177
17.1371
15.214
13.3983
11.6842
10.0694
8.55556
7.14689
5.84896
4.66626
3.59933
2.64152
1.77605
0.974678
0.186182
67.8302
64.9993
61.6083
57.9817
54.3847
50.872
47.4366
44.0874
40.8461
37.7314
34.7541
31.9189
29.2261
26.673
24.2539
21.9614
19.7875
17.7243
15.765
13.905
12.1419
10.4757
8.90772
7.44008
6.07351
4.80538
3.62741
2.52371
1.46995
0.426985
68.8953
66.2999
63.1844
59.8346
56.4881
53.1927
49.9403
46.7379
43.6056
40.562
37.6197
34.7861
32.0652
29.4582
26.9638
24.5789
22.299
20.1195
18.0361
16.0452
14.1448
12.3337
10.6116
8.97827
7.43184
5.96769
4.57666
3.24374
1.94742
0.65765
69.7828
67.3874
64.5079
61.3986
58.2739
55.1759
52.0954
49.037
46.0188
43.0582
40.1684
37.3581
34.6336
31.9988
29.4553
27.003
24.6404
22.3655
20.1757
18.0689
16.0432
14.0971
12.2293
10.438
8.71965
7.06852
5.47497
3.92474
2.39834
0.872386
70.523
68.2979
65.6216
62.7218
59.793
56.8727
53.9506
51.0294
48.1245
45.2521
42.4247
39.6519
36.9409
34.2972
31.7245
29.2248
26.7987
24.4462
22.1662
19.9576
17.819
15.749
13.7457
11.8061
9.92618
8.0992
6.31546
4.56134
2.81879
1.06937
71.1406
69.0609
66.5601
63.843
61.0868
58.3254
55.5477
52.7544
49.9586
47.1749
44.415
41.6882
39.0022
36.3633
33.7765
31.2451
28.7713
26.3563
24.0004
21.7034
19.4644
17.282
15.1541
13.0774
11.0472
9.05661
7.09586
5.15194
3.2079
1.24904
71.6564
69.7013
67.3518
64.7935
62.1889
59.5688
56.9214
54.2458
51.5529
48.8555
46.1644
43.4883
40.8347
38.2103
35.6206
33.0698
30.5612
28.0967
25.6777
23.3046
20.9769
18.6937
16.4526
14.2503
12.082
9.94042
7.81621
5.69683
3.56625
1.41264
72.0874
70.2398
68.0204
65.5994
63.1273
60.6321
58.1015
55.5329
52.9354
50.3201
47.6966
45.0729
42.456
39.8525
37.2681
34.7075
32.1743
29.6713
27.2003
24.7623
22.3574
19.9845
17.6417
15.3256
13.0312
10.7516
8.4776
6.19711
3.89496
1.56155
72.4467
70.6917
68.5845
66.2824
63.9257
61.5403
59.1133
56.641
54.1306
51.5918
49.033
46.4611
43.8828
41.3041
38.7307
36.1673
33.6178
31.0853
28.5721
26.0795
23.6076
21.156
18.7227
16.3043
13.8962
11.4914
9.08109
6.65374
4.19491
1.69663
72.7454
71.0696
69.0594
66.8601
64.6038
62.3142
59.9786
57.592
55.1602
52.6914
50.1929
47.6708
45.131
42.579
40.0202
37.4592
34.8998
32.3454
29.7983
27.2599
24.7309
22.2107
19.6976
17.1884
14.6785
12.1613
9.62811
7.06802
4.4672
1.81881
72.9925
71.3844
69.4575
67.3469
65.1771
62.9707
60.7148
58.4037
56.0417
53.636
51.1927
48.7171
46.2144
43.6895
41.1472
38.592
36.0276
33.4572
30.8832
28.3071
25.7296
23.1504
20.5677
17.9787
15.3787
12.7615
10.1188
7.43986
4.71164
1.92792
73.1974
71.6469
69.7908
67.7558
65.6601
63.5252
61.3382
59.0927
56.7919
54.442
52.0482
49.615
47.1467
44.648
42.1229
39.5757
37.0097
34.428
31.8329
29.226
26.608
23.9785
21.3361
18.6777
15.9992
13.2943
10.555
7.77105
4.92984
2.0252
73.3648
71.8625
70.0659
68.0946
66.0614
63.9872
61.8587
59.6692
57.4211
55.1196
52.7691
50.3735
47.9364
45.4618
42.9535
40.4151
37.8497
35.2603
32.649
30.0173
27.3658
24.6942
22.0011
19.2836
16.5375
13.7569
10.9339
8.05873
5.11905
2.10868
73.5048
72.0421
70.2945
68.3758
66.3946
64.3706
62.2909
60.1481
57.9442
55.6836
53.3701
51.0068
48.5969
46.1438
43.6508
41.1213
38.558
35.9635
33.3399
30.6885
28.0099
25.3038
22.5686
19.8017
16.9989
14.1544
11.2605
8.30762
5.28379
2.18185
73.6137
72.1826
70.474
68.5973
66.6575
64.6737
62.6329
60.5278
58.3597
56.1324
53.849
51.5123
49.1251
46.6901
44.2103
41.6887
39.1279
36.5302
33.8975
31.2309
28.5309
25.7973
23.0284
20.2216
17.3728
14.4762
11.5243
8.50774
5.41491
2.23828
73.7098
72.3027
70.6241
68.7794
66.8709
64.9173
62.9061
60.8298
58.6891
56.4874
54.2273
51.9112
49.5415
47.1207
44.6515
42.1364
39.5779
36.978
34.3385
31.6605
28.9444
26.1897
23.3949
20.5574
17.6729
14.7358
11.7386
8.6719
5.52432
2.28667
73.7684
72.3771
70.7187
68.896
67.0089
65.0759
63.0848
61.0279
58.9058
56.7213
54.477
52.175
49.8173
47.4062
44.9443
42.4338
39.8771
37.276
34.6322
31.9466
29.2197
26.4509
23.6386
20.7801
17.8712
14.9063
11.8777
8.77602
5.59007
2.31089
73.8392
72.4492
70.8016
68.9919
67.1168
65.1949
63.2145
61.1679
59.0552
56.8795
54.643
52.3477
49.9957
47.589
45.13
42.621
40.0642
37.4615
34.8143
32.1236
29.3899
26.6124
23.7898
20.9191
17.9963
15.0154
11.9686
8.84576
5.63354
2.31525
)
;

boundaryField
{
    inlet
    {
        type            zeroGradient;
    }
    outlet
    {
        type            fixedValue;
        value           uniform 0;
    }
    flap
    {
        type            zeroGradient;
    }
    upperWall
    {
        type            zeroGradient;
    }
    lowerWall
    {
        type            zeroGradient;
    }
    frontAndBack
    {
        type            empty;
    }
}


// ************************************************************************* //
