/*--------------------------------*- C++ -*----------------------------------*\
| =========                 |                                                 |
| \\      /  F ield         | OpenFOAM: The Open Source CFD Toolbox           |
|  \\    /   O peration     | Version:  dev                                   |
|   \\  /    A nd           | Web:      www.OpenFOAM.org                      |
|    \\/     M anipulation  |                                                 |
\*---------------------------------------------------------------------------*/
FoamFile
{
    version     2.0;
    format      ascii;
    class       pointVectorField;
    location    "3";
    object      pointDisplacement;
}
// * * * * * * * * * * * * * * * * * * * * * * * * * * * * * * * * * * * * * //

dimensions      [0 1 0 0 0 0 0];

internalField   nonuniform List<vector> 
5828
(
(0 0 0)
(0.0149551 0 0)
(0.0283407 0 0)
(0.0397942 0 0)
(0.0494918 0 0)
(0.0576026 0 0)
(0.0642741 0 0)
(0.0696362 0 0)
(0.0738025 0 0)
(0.0768727 0 0)
(0.0789352 0 0)
(0.0800669 0 0)
(0.0803342 0 0)
(0.0797948 0 0)
(0.0784999 0 0)
(0.0764956 0 0)
(0.0738248 0 0)
(0.0705281 0 0)
(0.0666466 0 0)
(0.0622232 0 0)
(0.0573044 0 0)
(0.0519434 0 0)
(0.0462024 0 0)
(0.0401566 0 0)
(0.0338997 0 0)
(0.0275522 0 0)
(0.0212798 0 0)
(0.0153254 0 0)
(0.0100696 0 0)
(0.00625381 0 0)
(0 0 0)
(0 0 0)
(0.0149642 0 -4.63522e-05)
(0.0283593 0 -8.83234e-05)
(0.0398217 0 -0.000125071)
(0.0495286 0 -0.00015724)
(0.05765 0 -0.000185364)
(0.0643334 0 -0.000209733)
(0.0697088 0 -0.000230427)
(0.0738904 0 -0.000247504)
(0.0769777 0 -0.000260599)
(0.0790599 0 -0.000269174)
(0.0802146 0 -0.00027282)
(0.0805082 0 -0.000270819)
(0.0799992 0 -0.000262231)
(0.0787393 0 -0.000245883)
(0.0767753 0 -0.000220333)
(0.0741506 0 -0.000183838)
(0.070907 0 -0.0001343)
(0.0670865 0 -6.92178e-05)
(0.0627331 0 1.43807e-05)
(0.0578952 0 0.000120042)
(0.0526278 0 0.000252016)
(0.0469958 0 0.000415401)
(0.0410786 0 0.000616274)
(0.0349747 0 0.000861876)
(0.0288112 0 0.00116088)
(0.0227614 0 0.00152344)
(0.0170859 0 0.00195988)
(0.0122016 0 0.00247046)
(0.00887047 0 0.00300209)
(0.00415634 0 0.00393647)
(0 0 0)
(0.0149941 0 -9.28562e-05)
(0.0284178 0 -0.000176979)
(0.0399067 0 -0.000250668)
(0.0496413 0 -0.000315212)
(0.0577943 0 -0.000371715)
(0.064513 0 -0.000420773)
(0.0699284 0 -0.000462498)
(0.074155 0 -0.000496819)
(0.0772928 0 -0.000523255)
(0.0794334 0 -0.000540986)
(0.080656 0 -0.000549068)
(0.0810279 0 -0.000546078)
(0.0806089 0 -0.000530192)
(0.0794525 0 -0.000499141)
(0.0776075 0 -0.000450147)
(0.0751194 0 -0.000379848)
(0.0720326 0 -0.000284221)
(0.0683919 0 -0.000158495)
(0.0642452 0 2.94797e-06)
(0.0596455 0 0.000206735)
(0.0546534 0 0.000460711)
(0.0493413 0 0.000774124)
(0.0438002 0 0.00115765)
(0.0381453 0 0.00162324)
(0.0325225 0 0.0021839)
(0.0271235 0 0.00285278)
(0.0222307 0 0.00363794)
(0.0183186 0 0.00451995)
(0.0161732 0 0.00537524)
(0.0128317 0 0.00669407)
(0 0 0)
(0.0150446 0 -0.000139613)
(0.0285163 0 -0.000266066)
(0.0400483 0 -0.000376846)
(0.0498286 0 -0.000474017)
(0.058034 0 -0.000559257)
(0.0648112 0 -0.000633504)
(0.0702913 0 -0.000696832)
(0.0745909 0 -0.000748832)
(0.0778131 0 -0.000789251)
(0.0800513 0 -0.00081728)
(0.0813861 0 -0.000831303)
(0.0818869 0 -0.000829264)
(0.081616 0 -0.00080858)
(0.0806298 0 -0.000766048)
(0.0789803 0 -0.000697758)
(0.0767166 0 -0.000599003)
(0.073887 0 -0.000464184)
(0.0705408 0 -0.000286722)
(0.0667318 0 -5.90211e-05)
(0.0625203 0 0.000227683)
(0.0579751 0 0.000583524)
(0.0531773 0 0.00102015)
(0.0482349 0 0.00155027)
(0.043289 0 0.00218647)
(0.0385138 0 0.00293966)
(0.0341282 0 0.0038158)
(0.0304182 0 0.0048066)
(0.0278465 0 0.00585751)
(0.0271653 0 0.00677985)
(0.0253766 0 0.0080968)
(0 0 0)
(0.0151123 0 -0.000186528)
(0.0286483 0 -0.000355407)
(0.040242 0 -0.000503413)
(0.0500877 0 -0.000633478)
(0.0583664 0 -0.000747836)
(0.0652239 0 -0.000847609)
(0.0707914 0 -0.000933029)
(0.0751915 0 -0.00100385)
(0.0785316 0 -0.00105979)
(0.0809051 0 -0.00109984)
(0.0823945 0 -0.00112198)
(0.0830726 0 -0.00112369)
(0.0830054 0 -0.00110182)
(0.0822531 0 -0.00105245)
(0.0808721 0 -0.000970854)
(0.0789165 0 -0.000851349)
(0.0764397 0 -0.000687248)
(0.0734966 0 -0.000470782)
(0.0701493 0 -0.00019327)
(0.0664679 0 0.000154896)
(0.0625324 0 0.000584371)
(0.0584331 0 0.00110707)
(0.0542858 0 0.00173505)
(0.0502578 0 0.00247687)
(0.046558 0 0.00333455)
(0.0434292 0 0.00429844)
(0.0411574 0 0.00533582)
(0.0401217 0 0.0063594)
(0.0409459 0 0.00714628)
(0.0405725 0 0.00823473)
(0 0 0)
(0.015197 0 -0.000233506)
(0.0288133 0 -0.000444931)
(0.0404858 0 -0.000630364)
(0.0504153 0 -0.000793632)
(0.0587857 0 -0.000937576)
(0.0657429 0 -0.00106331)
(0.0714222 0 -0.00117152)
(0.0759515 0 -0.0012626)
(0.0794403 0 -0.0013359)
(0.0819836 0 -0.00139013)
(0.0836673 0 -0.00142315)
(0.084568 0 -0.00143216)
(0.084756 0 -0.00141364)
(0.0842967 0 -0.0013633)
(0.0832519 0 -0.00127591)
(0.0816817 0 -0.00114532)
(0.0796457 0 -0.000964303)
(0.0772045 0 -0.000724534)
(0.0744298 0 -0.000417211)
(0.0714056 0 -3.3295e-05)
(0.068225 0 0.000436646)
(0.0649927 0 0.00100207)
(0.061825 0 0.00167151)
(0.0588884 0 0.00244723)
(0.0564207 0 0.00331766)
(0.0546816 0 0.00425322)
(0.0539365 0 0.00519719)
(0.0544659 0 0.00604344)
(0.0566846 0 0.0065745)
(0.0575032 0 0.0073488)
(0 0 0)
(0.0152983 0 -0.000280519)
(0.0290098 0 -0.000534564)
(0.0407769 0 -0.000757615)
(0.0508079 0 -0.000954429)
(0.059287 0 -0.00112833)
(0.0663619 0 -0.00128081)
(0.0721766 0 -0.00141308)
(0.0768617 0 -0.00152587)
(0.0805274 0 -0.00161842)
(0.0832726 0 -0.00168932)
(0.0851869 0 -0.00173645)
(0.0863514 0 -0.00175686)
(0.0868416 0 -0.00174699)
(0.0867287 0 -0.00170246)
(0.0860808 0 -0.00161796)
(0.0849657 0 -0.00148739)
(0.0834509 0 -0.00130374)
(0.0816044 0 -0.0010589)
(0.079502 0 -0.00074436)
(0.0772407 0 -0.000352714)
(0.0749315 0 0.000122269)
(0.0726925 0 0.000685474)
(0.0706504 0 0.00133873)
(0.0689514 0 0.00207691)
(0.0678253 0 0.00287569)
(0.0675329 0 0.00368626)
(0.0682911 0 0.00443456)
(0.0702776 0 0.00501183)
(0.0736705 0 0.00523853)
(0.0754256 0 0.00567995)
(0 0 0)
(0.0154161 0 -0.000327551)
(0.029236 0 -0.000624249)
(0.0411117 0 -0.000885068)
(0.0512588 0 -0.00111575)
(0.0598625 0 -0.00132001)
(0.0670752 0 -0.00150009)
(0.0730468 0 -0.00165777)
(0.0779107 0 -0.0017939)
(0.0817788 0 -0.00190781)
(0.0847542 0 -0.0019981)
(0.0869317 0 -0.00206289)
(0.0883961 0 -0.0020992)
(0.0892293 0 -0.00210372)
(0.089509 0 -0.00207238)
(0.0893102 0 -0.00200014)
(0.0887096 0 -0.00188152)
(0.087784 0 -0.00171033)
(0.0866133 0 -0.00147985)
(0.0852763 0 -0.00118255)
(0.0838692 0 -0.000812434)
(0.0825214 0 -0.000367878)
(0.081366 0 0.000149786)
(0.0805361 0 0.000734564)
(0.0801728 0 0.0013721)
(0.0804577 0 0.00202938)
(0.0816065 0 0.00264538)
(0.0837779 0 0.00313788)
(0.0870313 0 0.00340971)
(0.0913185 0 0.00333883)
(0.0937381 0 0.00345748)
(0 0 0)
(0.0155506 0 -0.000374592)
(0.02949 0 -0.000713853)
(0.0414862 0 -0.00101254)
(0.0517633 0 -0.00127746)
(0.0605072 0 -0.00151296)
(0.0678762 0 -0.00172179)
(0.0740244 0 -0.0019061)
(0.0790866 0 -0.00206703)
(0.083178 0 -0.00220423)
(0.0864081 0 -0.00231673)
(0.0888772 0 -0.00240298)
(0.0906751 0 -0.00246031)
(0.0918889 0 -0.00248567)
(0.0926001 0 -0.00247516)
(0.0928926 0 -0.00242469)
(0.0928541 0 -0.00233009)
(0.0925693 0 -0.00218633)
(0.0921287 0 -0.00198856)
(0.0916235 0 -0.00173202)
(0.0911462 0 -0.00141253)
(0.0908308 0 -0.00103234)
(0.0908238 0 -0.000599653)
(0.091254 0 -0.000127428)
(0.0922597 0 0.000361148)
(0.0939679 0 0.000827391)
(0.0965125 0 0.00120795)
(0.0999667 0 0.0014243)
(0.104265 0 0.00140119)
(0.109169 0 0.00107927)
(0.111993 0 0.000935607)
(0 0 0)
(0.0156955 0 -0.000421476)
(0.0297655 0 -0.000803279)
(0.0418967 0 -0.0011401)
(0.0523201 0 -0.00143978)
(0.0612194 0 -0.00170724)
(0.0687575 0 -0.00194567)
(0.0750955 0 -0.00215777)
(0.0803712 0 -0.00234485)
(0.0847045 0 -0.00250729)
(0.0882111 0 -0.00264491)
(0.0909957 0 -0.00275642)
(0.0931552 0 -0.00283996)
(0.09478 0 -0.00289265)
(0.0959558 0 -0.00291098)
(0.0967747 0 -0.00289202)
(0.0973333 0 -0.0028331)
(0.0977259 0 -0.00273113)
(0.0980489 0 -0.00258319)
(0.0984065 0 -0.0023879)
(0.0989023 0 -0.00214483)
(0.0996659 0 -0.00185945)
(0.100838 0 -0.00154474)
(0.102541 0 -0.00121934)
(0.104892 0 -0.000911371)
(0.107985 0 -0.000663288)
(0.111861 0 -0.000532056)
(0.116458 0 -0.000579097)
(0.121595 0 -0.00085249)
(0.126893 0 -0.00135697)
(0.129912 0 -0.00168341)
(0 0 0)
(0.0158476 0 -0.000468121)
(0.0300632 0 -0.000892598)
(0.0423423 0 -0.00126785)
(0.0529213 0 -0.00160246)
(0.061985 0 -0.00190203)
(0.0697038 0 -0.00217065)
(0.0762444 0 -0.00241168)
(0.0817483 0 -0.00262677)
(0.086341 0 -0.0028169)
(0.090142 0 -0.00298251)
(0.09326 0 -0.00312284)
(0.0957978 0 -0.00323679)
(0.0978506 0 -0.00332218)
(0.0995133 0 -0.00337682)
(0.100885 0 -0.00339894)
(0.102065 0 -0.00338699)
(0.103155 0 -0.00333989)
(0.104259 0 -0.00325736)
(0.105489 0 -0.0031412)
(0.106965 0 -0.00299546)
(0.108812 0 -0.00282892)
(0.111154 0 -0.00265724)
(0.114104 0 -0.00250248)
(0.117751 0 -0.00239348)
(0.12216 0 -0.00237095)
(0.12727 0 -0.00247865)
(0.132888 0 -0.00275334)
(0.138719 0 -0.00321387)
(0.144282 0 -0.00382789)
(0.147388 0 -0.00425425)
(0 0 0)
(0.016007 0 -0.000514582)
(0.0303804 0 -0.00098171)
(0.0428151 0 -0.00139535)
(0.0535549 0 -0.00176487)
(0.0627933 0 -0.00209691)
(0.0707055 0 -0.00239656)
(0.0774614 0 -0.00266775)
(0.0832065 0 -0.00291269)
(0.0880709 0 -0.00313274)
(0.0921782 0 -0.00332895)
(0.0956414 0 -0.00350137)
(0.098567 0 -0.00364952)
(0.101056 0 -0.00377234)
(0.103215 0 -0.00386947)
(0.105151 0 -0.00394083)
(0.106961 0 -0.00398554)
(0.108748 0 -0.00400424)
(0.110627 0 -0.00399974)
(0.112716 0 -0.00397707)
(0.115146 0 -0.00394439)
(0.118037 0 -0.00391328)
(0.121498 0 -0.00390079)
(0.125627 0 -0.00392996)
(0.130499 0 -0.00402772)
(0.136121 0 -0.00422476)
(0.142351 0 -0.00454626)
(0.148909 0 -0.00500326)
(0.155386 0 -0.00558553)
(0.161207 0 -0.0062441)
(0.164448 0 -0.00669279)
(0 0 0)
(0.0161684 0 -0.000560665)
(0.0307078 0 -0.0010703)
(0.0433074 0 -0.00152226)
(0.0542149 0 -0.0019269)
(0.0636382 0 -0.00229208)
(0.0717554 0 -0.00262362)
(0.0787356 0 -0.00292586)
(0.0847284 0 -0.00320172)
(0.0898709 0 -0.00345332)
(0.0942913 0 -0.00368239)
(0.0981055 0 -0.00388971)
(0.101424 0 -0.00407574)
(0.104356 0 -0.00424077)
(0.107014 0 -0.00438601)
(0.109506 0 -0.00451237)
(0.111928 0 -0.00462032)
(0.114391 0 -0.00471281)
(0.117014 0 -0.00479528)
(0.119918 0 -0.00487545)
(0.123242 0 -0.0049656)
(0.127101 0 -0.00507931)
(0.131582 0 -0.00523322)
(0.136774 0 -0.00544968)
(0.142738 0 -0.00575147)
(0.149434 0 -0.00615597)
(0.156675 0 -0.0066671)
(0.164132 0 -0.00726851)
(0.171314 0 -0.00792092)
(0.177521 0 -0.00857476)
(0.181204 0 -0.00898111)
(0 0 0)
(0.0163286 0 -0.000606119)
(0.0310398 0 -0.00115805)
(0.0438122 0 -0.00164829)
(0.0548973 0 -0.00208833)
(0.0645139 0 -0.00248724)
(0.0728413 0 -0.00285126)
(0.0800497 0 -0.00318517)
(0.0862953 0 -0.00349287)
(0.0917208 0 -0.00377751)
(0.0964568 0 -0.0040413)
(0.100623 0 -0.00428586)
(0.104333 0 -0.00451269)
(0.107704 0 -0.00472366)
(0.110849 0 -0.00492074)
(0.11387 0 -0.00510549)
(0.116872 0 -0.0052808)
(0.119971 0 -0.00545193)
(0.123283 0 -0.0056263)
(0.126933 0 -0.00581414)
(0.131062 0 -0.00603067)
(0.135767 0 -0.00629035)
(0.141122 0 -0.00660911)
(0.147206 0 -0.00700772)
(0.154064 0 -0.00750396)
(0.16164 0 -0.00810409)
(0.169738 0 -0.00879315)
(0.178033 0 -0.00952742)
(0.186017 0 -0.0102327)
(0.192858 0 -0.0108551)
(0.197803 0 -0.0111447)
(0 0 0)
(0.0164911 0 -0.000650912)
(0.0313758 0 -0.00124461)
(0.0443247 0 -0.00177294)
(0.0555941 0 -0.00224852)
(0.0654086 0 -0.00268114)
(0.0739479 0 -0.00307782)
(0.0813877 0 -0.00344423)
(0.0878902 0 -0.00378494)
(0.0936 0 -0.00410382)
(0.0986495 0 -0.00440375)
(0.103162 0 -0.00468721)
(0.107255 0 -0.0049567)
(0.111046 0 -0.00521517)
(0.114646 0 -0.00546534)
(0.118162 0 -0.00571035)
(0.121702 0 -0.00595515)
(0.125378 0 -0.00620658)
(0.129306 0 -0.00647359)
(0.133615 0 -0.00676946)
(0.138428 0 -0.0071097)
(0.14382 0 -0.00750827)
(0.149861 0 -0.00798198)
(0.156613 0 -0.00854969)
(0.164106 0 -0.00922599)
(0.172276 0 -0.0100117)
(0.180941 0 -0.0108838)
(0.189829 0 -0.0117852)
(0.198512 0 -0.0126023)
(0.206174 0 -0.0132174)
(0.214327 0 -0.0132302)
(0 0 0)
(0.0166563 0 -0.000695211)
(0.0317142 0 -0.00133024)
(0.0448457 0 -0.00189665)
(0.0563014 0 -0.00240772)
(0.0663133 0 -0.002874)
(0.0750701 0 -0.00330367)
(0.0827461 0 -0.00370333)
(0.0895052 0 -0.00407794)
(0.0954963 0 -0.00443191)
(0.100854 0 -0.00476901)
(0.105703 0 -0.00509253)
(0.110163 0 -0.0054058)
(0.11435 0 -0.0057125)
(0.118376 0 -0.00601658)
(0.122348 0 -0.00632274)
(0.126375 0 -0.00663727)
(0.130563 0 -0.00696824)
(0.135025 0 -0.00732593)
(0.139886 0 -0.00772549)
(0.14524 0 -0.0081811)
(0.151142 0 -0.00870606)
(0.157654 0 -0.00931804)
(0.164813 0 -0.0100343)
(0.172623 0 -0.0108687)
(0.180998 0 -0.0118234)
(0.189753 0 -0.0128873)
(0.198634 0 -0.0140407)
(0.207255 0 -0.0152564)
(0.215036 0 -0.0166028)
(0.230888 0 -0.0153139)
(0 0 0)
(0.0149551 0 0)
(0.0283407 0 0)
(0.0397942 0 0)
(0.0494918 0 0)
(0.0576026 0 0)
(0.0642741 0 0)
(0.0696362 0 0)
(0.0738025 0 0)
(0.0768727 0 0)
(0.0789352 0 0)
(0.0800669 0 0)
(0.0803342 0 0)
(0.0797948 0 0)
(0.0784999 0 0)
(0.0764956 0 0)
(0.0738248 0 0)
(0.0705281 0 0)
(0.0666466 0 0)
(0.0622232 0 0)
(0.0573044 0 0)
(0.0519434 0 0)
(0.0462024 0 0)
(0.0401566 0 0)
(0.0338997 0 0)
(0.0275522 0 0)
(0.0212798 0 0)
(0.0153254 0 0)
(0.0100696 0 0)
(0.00625381 0 0)
(0 0 0)
(0 0 0)
(0.0149642 0 -4.63522e-05)
(0.0283593 0 -8.83234e-05)
(0.0398217 0 -0.000125071)
(0.0495286 0 -0.00015724)
(0.05765 0 -0.000185364)
(0.0643334 0 -0.000209733)
(0.0697088 0 -0.000230427)
(0.0738904 0 -0.000247504)
(0.0769777 0 -0.000260599)
(0.0790599 0 -0.000269174)
(0.0802146 0 -0.00027282)
(0.0805082 0 -0.000270819)
(0.0799992 0 -0.000262231)
(0.0787393 0 -0.000245883)
(0.0767753 0 -0.000220333)
(0.0741506 0 -0.000183838)
(0.070907 0 -0.0001343)
(0.0670865 0 -6.92178e-05)
(0.0627331 0 1.43807e-05)
(0.0578952 0 0.000120042)
(0.0526278 0 0.000252016)
(0.0469958 0 0.000415401)
(0.0410786 0 0.000616274)
(0.0349747 0 0.000861876)
(0.0288112 0 0.00116088)
(0.0227614 0 0.00152344)
(0.0170859 0 0.00195988)
(0.0122016 0 0.00247046)
(0.00887047 0 0.00300209)
(0.00415634 0 0.00393647)
(0 0 0)
(0.0149941 0 -9.28562e-05)
(0.0284178 0 -0.000176979)
(0.0399067 0 -0.000250668)
(0.0496413 0 -0.000315212)
(0.0577943 0 -0.000371715)
(0.064513 0 -0.000420773)
(0.0699284 0 -0.000462498)
(0.074155 0 -0.000496819)
(0.0772928 0 -0.000523255)
(0.0794334 0 -0.000540986)
(0.080656 0 -0.000549068)
(0.0810279 0 -0.000546078)
(0.0806089 0 -0.000530192)
(0.0794525 0 -0.000499141)
(0.0776075 0 -0.000450147)
(0.0751194 0 -0.000379848)
(0.0720326 0 -0.000284221)
(0.0683919 0 -0.000158495)
(0.0642452 0 2.94797e-06)
(0.0596455 0 0.000206735)
(0.0546534 0 0.000460711)
(0.0493413 0 0.000774124)
(0.0438002 0 0.00115765)
(0.0381453 0 0.00162324)
(0.0325225 0 0.0021839)
(0.0271235 0 0.00285278)
(0.0222307 0 0.00363794)
(0.0183186 0 0.00451995)
(0.0161732 0 0.00537524)
(0.0128317 0 0.00669407)
(0 0 0)
(0.0150446 0 -0.000139613)
(0.0285163 0 -0.000266066)
(0.0400483 0 -0.000376846)
(0.0498286 0 -0.000474017)
(0.058034 0 -0.000559257)
(0.0648112 0 -0.000633504)
(0.0702913 0 -0.000696832)
(0.0745909 0 -0.000748832)
(0.0778131 0 -0.000789251)
(0.0800513 0 -0.00081728)
(0.0813861 0 -0.000831303)
(0.0818869 0 -0.000829264)
(0.081616 0 -0.00080858)
(0.0806298 0 -0.000766048)
(0.0789803 0 -0.000697758)
(0.0767166 0 -0.000599003)
(0.073887 0 -0.000464184)
(0.0705408 0 -0.000286722)
(0.0667318 0 -5.90211e-05)
(0.0625203 0 0.000227683)
(0.0579751 0 0.000583524)
(0.0531773 0 0.00102015)
(0.0482349 0 0.00155027)
(0.043289 0 0.00218647)
(0.0385138 0 0.00293966)
(0.0341282 0 0.0038158)
(0.0304182 0 0.0048066)
(0.0278465 0 0.00585751)
(0.0271653 0 0.00677985)
(0.0253766 0 0.0080968)
(0 0 0)
(0.0151123 0 -0.000186528)
(0.0286483 0 -0.000355407)
(0.040242 0 -0.000503413)
(0.0500877 0 -0.000633478)
(0.0583664 0 -0.000747836)
(0.0652239 0 -0.000847609)
(0.0707914 0 -0.000933029)
(0.0751915 0 -0.00100385)
(0.0785316 0 -0.00105979)
(0.0809051 0 -0.00109984)
(0.0823945 0 -0.00112198)
(0.0830726 0 -0.00112369)
(0.0830054 0 -0.00110182)
(0.0822531 0 -0.00105245)
(0.0808721 0 -0.000970854)
(0.0789165 0 -0.000851349)
(0.0764397 0 -0.000687248)
(0.0734966 0 -0.000470782)
(0.0701493 0 -0.00019327)
(0.0664679 0 0.000154896)
(0.0625324 0 0.000584371)
(0.0584331 0 0.00110707)
(0.0542858 0 0.00173505)
(0.0502578 0 0.00247687)
(0.046558 0 0.00333455)
(0.0434292 0 0.00429844)
(0.0411574 0 0.00533582)
(0.0401217 0 0.0063594)
(0.0409459 0 0.00714628)
(0.0405725 0 0.00823473)
(0 0 0)
(0.015197 0 -0.000233506)
(0.0288133 0 -0.000444931)
(0.0404858 0 -0.000630364)
(0.0504153 0 -0.000793632)
(0.0587857 0 -0.000937576)
(0.0657429 0 -0.00106331)
(0.0714222 0 -0.00117152)
(0.0759515 0 -0.0012626)
(0.0794403 0 -0.0013359)
(0.0819836 0 -0.00139013)
(0.0836673 0 -0.00142315)
(0.084568 0 -0.00143216)
(0.084756 0 -0.00141364)
(0.0842967 0 -0.0013633)
(0.0832519 0 -0.00127591)
(0.0816817 0 -0.00114532)
(0.0796457 0 -0.000964303)
(0.0772045 0 -0.000724534)
(0.0744298 0 -0.000417211)
(0.0714056 0 -3.3295e-05)
(0.068225 0 0.000436646)
(0.0649927 0 0.00100207)
(0.061825 0 0.00167151)
(0.0588884 0 0.00244723)
(0.0564207 0 0.00331766)
(0.0546816 0 0.00425322)
(0.0539365 0 0.00519719)
(0.0544659 0 0.00604344)
(0.0566846 0 0.0065745)
(0.0575032 0 0.0073488)
(0 0 0)
(0.0152983 0 -0.000280519)
(0.0290098 0 -0.000534564)
(0.0407769 0 -0.000757615)
(0.0508079 0 -0.000954429)
(0.059287 0 -0.00112833)
(0.0663619 0 -0.00128081)
(0.0721766 0 -0.00141308)
(0.0768617 0 -0.00152587)
(0.0805274 0 -0.00161842)
(0.0832726 0 -0.00168932)
(0.0851869 0 -0.00173645)
(0.0863514 0 -0.00175686)
(0.0868416 0 -0.00174699)
(0.0867287 0 -0.00170246)
(0.0860808 0 -0.00161796)
(0.0849657 0 -0.00148739)
(0.0834509 0 -0.00130374)
(0.0816044 0 -0.0010589)
(0.079502 0 -0.00074436)
(0.0772407 0 -0.000352714)
(0.0749315 0 0.000122269)
(0.0726925 0 0.000685474)
(0.0706504 0 0.00133873)
(0.0689514 0 0.00207691)
(0.0678253 0 0.00287569)
(0.0675329 0 0.00368626)
(0.0682911 0 0.00443456)
(0.0702776 0 0.00501183)
(0.0736705 0 0.00523853)
(0.0754256 0 0.00567995)
(0 0 0)
(0.0154161 0 -0.000327551)
(0.029236 0 -0.000624249)
(0.0411117 0 -0.000885068)
(0.0512588 0 -0.00111575)
(0.0598625 0 -0.00132001)
(0.0670752 0 -0.00150009)
(0.0730468 0 -0.00165777)
(0.0779107 0 -0.0017939)
(0.0817788 0 -0.00190781)
(0.0847542 0 -0.0019981)
(0.0869317 0 -0.00206289)
(0.0883961 0 -0.0020992)
(0.0892293 0 -0.00210372)
(0.089509 0 -0.00207238)
(0.0893102 0 -0.00200014)
(0.0887096 0 -0.00188152)
(0.087784 0 -0.00171033)
(0.0866133 0 -0.00147985)
(0.0852763 0 -0.00118255)
(0.0838692 0 -0.000812434)
(0.0825214 0 -0.000367878)
(0.081366 0 0.000149786)
(0.0805361 0 0.000734564)
(0.0801728 0 0.0013721)
(0.0804577 0 0.00202938)
(0.0816065 0 0.00264538)
(0.0837779 0 0.00313788)
(0.0870313 0 0.00340971)
(0.0913185 0 0.00333883)
(0.0937381 0 0.00345748)
(0 0 0)
(0.0155506 0 -0.000374592)
(0.02949 0 -0.000713853)
(0.0414862 0 -0.00101254)
(0.0517633 0 -0.00127746)
(0.0605072 0 -0.00151296)
(0.0678762 0 -0.00172179)
(0.0740244 0 -0.0019061)
(0.0790866 0 -0.00206703)
(0.083178 0 -0.00220423)
(0.0864081 0 -0.00231673)
(0.0888772 0 -0.00240298)
(0.0906751 0 -0.00246031)
(0.0918889 0 -0.00248567)
(0.0926001 0 -0.00247516)
(0.0928926 0 -0.00242469)
(0.0928541 0 -0.00233009)
(0.0925693 0 -0.00218633)
(0.0921287 0 -0.00198856)
(0.0916235 0 -0.00173202)
(0.0911462 0 -0.00141253)
(0.0908308 0 -0.00103234)
(0.0908238 0 -0.000599653)
(0.091254 0 -0.000127428)
(0.0922597 0 0.000361148)
(0.0939679 0 0.000827391)
(0.0965125 0 0.00120795)
(0.0999667 0 0.0014243)
(0.104265 0 0.00140119)
(0.109169 0 0.00107927)
(0.111993 0 0.000935607)
(0 0 0)
(0.0156955 0 -0.000421476)
(0.0297655 0 -0.000803279)
(0.0418967 0 -0.0011401)
(0.0523201 0 -0.00143978)
(0.0612194 0 -0.00170724)
(0.0687575 0 -0.00194567)
(0.0750955 0 -0.00215777)
(0.0803712 0 -0.00234485)
(0.0847045 0 -0.00250729)
(0.0882111 0 -0.00264491)
(0.0909957 0 -0.00275642)
(0.0931552 0 -0.00283996)
(0.09478 0 -0.00289265)
(0.0959558 0 -0.00291098)
(0.0967747 0 -0.00289202)
(0.0973333 0 -0.0028331)
(0.0977259 0 -0.00273113)
(0.0980489 0 -0.00258319)
(0.0984065 0 -0.0023879)
(0.0989023 0 -0.00214483)
(0.0996659 0 -0.00185945)
(0.100838 0 -0.00154474)
(0.102541 0 -0.00121934)
(0.104892 0 -0.000911371)
(0.107985 0 -0.000663288)
(0.111861 0 -0.000532056)
(0.116458 0 -0.000579097)
(0.121595 0 -0.00085249)
(0.126893 0 -0.00135697)
(0.129912 0 -0.00168341)
(0 0 0)
(0.0158476 0 -0.000468121)
(0.0300632 0 -0.000892598)
(0.0423423 0 -0.00126785)
(0.0529213 0 -0.00160246)
(0.061985 0 -0.00190203)
(0.0697038 0 -0.00217065)
(0.0762444 0 -0.00241168)
(0.0817483 0 -0.00262677)
(0.086341 0 -0.0028169)
(0.090142 0 -0.00298251)
(0.09326 0 -0.00312284)
(0.0957978 0 -0.00323679)
(0.0978506 0 -0.00332218)
(0.0995133 0 -0.00337682)
(0.100885 0 -0.00339894)
(0.102065 0 -0.00338699)
(0.103155 0 -0.00333989)
(0.104259 0 -0.00325736)
(0.105489 0 -0.0031412)
(0.106965 0 -0.00299546)
(0.108812 0 -0.00282892)
(0.111154 0 -0.00265724)
(0.114104 0 -0.00250248)
(0.117751 0 -0.00239348)
(0.12216 0 -0.00237095)
(0.12727 0 -0.00247865)
(0.132888 0 -0.00275334)
(0.138719 0 -0.00321387)
(0.144282 0 -0.00382789)
(0.147388 0 -0.00425425)
(0 0 0)
(0.016007 0 -0.000514582)
(0.0303804 0 -0.00098171)
(0.0428151 0 -0.00139535)
(0.0535549 0 -0.00176487)
(0.0627933 0 -0.00209691)
(0.0707055 0 -0.00239656)
(0.0774614 0 -0.00266775)
(0.0832065 0 -0.00291269)
(0.0880709 0 -0.00313274)
(0.0921782 0 -0.00332895)
(0.0956414 0 -0.00350137)
(0.098567 0 -0.00364952)
(0.101056 0 -0.00377234)
(0.103215 0 -0.00386947)
(0.105151 0 -0.00394083)
(0.106961 0 -0.00398554)
(0.108748 0 -0.00400424)
(0.110627 0 -0.00399974)
(0.112716 0 -0.00397707)
(0.115146 0 -0.00394439)
(0.118037 0 -0.00391328)
(0.121498 0 -0.00390079)
(0.125627 0 -0.00392996)
(0.130499 0 -0.00402772)
(0.136121 0 -0.00422476)
(0.142351 0 -0.00454626)
(0.148909 0 -0.00500326)
(0.155386 0 -0.00558553)
(0.161207 0 -0.0062441)
(0.164448 0 -0.00669279)
(0 0 0)
(0.0161684 0 -0.000560665)
(0.0307078 0 -0.0010703)
(0.0433074 0 -0.00152226)
(0.0542149 0 -0.0019269)
(0.0636382 0 -0.00229208)
(0.0717554 0 -0.00262362)
(0.0787356 0 -0.00292586)
(0.0847284 0 -0.00320172)
(0.0898709 0 -0.00345332)
(0.0942913 0 -0.00368239)
(0.0981055 0 -0.00388971)
(0.101424 0 -0.00407574)
(0.104356 0 -0.00424077)
(0.107014 0 -0.00438601)
(0.109506 0 -0.00451237)
(0.111928 0 -0.00462032)
(0.114391 0 -0.00471281)
(0.117014 0 -0.00479528)
(0.119918 0 -0.00487545)
(0.123242 0 -0.0049656)
(0.127101 0 -0.00507931)
(0.131582 0 -0.00523322)
(0.136774 0 -0.00544968)
(0.142738 0 -0.00575147)
(0.149434 0 -0.00615597)
(0.156675 0 -0.0066671)
(0.164132 0 -0.00726851)
(0.171314 0 -0.00792092)
(0.177521 0 -0.00857476)
(0.181204 0 -0.00898111)
(0 0 0)
(0.0163286 0 -0.000606119)
(0.0310398 0 -0.00115805)
(0.0438122 0 -0.00164829)
(0.0548973 0 -0.00208833)
(0.0645139 0 -0.00248724)
(0.0728413 0 -0.00285126)
(0.0800497 0 -0.00318517)
(0.0862953 0 -0.00349287)
(0.0917208 0 -0.00377751)
(0.0964568 0 -0.0040413)
(0.100623 0 -0.00428586)
(0.104333 0 -0.00451269)
(0.107704 0 -0.00472366)
(0.110849 0 -0.00492074)
(0.11387 0 -0.00510549)
(0.116872 0 -0.0052808)
(0.119971 0 -0.00545193)
(0.123283 0 -0.0056263)
(0.126933 0 -0.00581414)
(0.131062 0 -0.00603067)
(0.135767 0 -0.00629035)
(0.141122 0 -0.00660911)
(0.147206 0 -0.00700772)
(0.154064 0 -0.00750396)
(0.16164 0 -0.00810409)
(0.169738 0 -0.00879315)
(0.178033 0 -0.00952742)
(0.186017 0 -0.0102327)
(0.192858 0 -0.0108551)
(0.197803 0 -0.0111447)
(0 0 0)
(0.0164911 0 -0.000650912)
(0.0313758 0 -0.00124461)
(0.0443247 0 -0.00177294)
(0.0555941 0 -0.00224852)
(0.0654086 0 -0.00268114)
(0.0739479 0 -0.00307782)
(0.0813877 0 -0.00344423)
(0.0878902 0 -0.00378494)
(0.0936 0 -0.00410382)
(0.0986495 0 -0.00440375)
(0.103162 0 -0.00468721)
(0.107255 0 -0.0049567)
(0.111046 0 -0.00521517)
(0.114646 0 -0.00546534)
(0.118162 0 -0.00571035)
(0.121702 0 -0.00595515)
(0.125378 0 -0.00620658)
(0.129306 0 -0.00647359)
(0.133615 0 -0.00676946)
(0.138428 0 -0.0071097)
(0.14382 0 -0.00750827)
(0.149861 0 -0.00798198)
(0.156613 0 -0.00854969)
(0.164106 0 -0.00922599)
(0.172276 0 -0.0100117)
(0.180941 0 -0.0108838)
(0.189829 0 -0.0117852)
(0.198512 0 -0.0126023)
(0.206174 0 -0.0132174)
(0.214327 0 -0.0132302)
(0 0 0)
(0.0166563 0 -0.000695211)
(0.0317142 0 -0.00133024)
(0.0448457 0 -0.00189665)
(0.0563014 0 -0.00240772)
(0.0663133 0 -0.002874)
(0.0750701 0 -0.00330367)
(0.0827461 0 -0.00370333)
(0.0895052 0 -0.00407794)
(0.0954963 0 -0.00443191)
(0.100854 0 -0.00476901)
(0.105703 0 -0.00509253)
(0.110163 0 -0.0054058)
(0.11435 0 -0.0057125)
(0.118376 0 -0.00601658)
(0.122348 0 -0.00632274)
(0.126375 0 -0.00663727)
(0.130563 0 -0.00696824)
(0.135025 0 -0.00732593)
(0.139886 0 -0.00772549)
(0.14524 0 -0.0081811)
(0.151142 0 -0.00870606)
(0.157654 0 -0.00931804)
(0.164813 0 -0.0100343)
(0.172623 0 -0.0108687)
(0.180998 0 -0.0118234)
(0.189753 0 -0.0128873)
(0.198634 0 -0.0140407)
(0.207255 0 -0.0152564)
(0.215036 0 -0.0166028)
(0.230888 0 -0.0153139)
(0 0 0)
(0.00857903 0 0)
(0.0158981 0 0)
(0.0264765 0 0)
(0.0389301 0 0)
(0.0520198 0 0)
(0.0648736 0 0)
(0.07691 0 0)
(0.0877592 0 0)
(0.0972429 0 0)
(0.105332 0 0)
(0.112042 0 0)
(0.117399 0 0)
(0.121452 0 0)
(0.124262 0 0)
(0.125878 0 0)
(0.126328 0 0)
(0.125635 0 0)
(0.123802 0 0)
(0.120817 0 0)
(0.116662 0 0)
(0.111302 0 0)
(0.104691 0 0)
(0.0967863 0 0)
(0.0875371 0 0)
(0.0768692 0 0)
(0.0647108 0 0)
(0.050992 0 0)
(0.0356207 0 0)
(0.0185011 0 0)
(0 0 0)
(0.00369001 0 -0.00428071)
(0.0110918 0 -0.00409306)
(0.0183601 0 -0.00421341)
(0.0287772 0 -0.0042484)
(0.0409874 0 -0.00421784)
(0.0538079 0 -0.00412737)
(0.0664083 0 -0.00399474)
(0.0782082 0 -0.00383089)
(0.0888424 0 -0.00363765)
(0.0981482 0 -0.0034298)
(0.10609 0 -0.00322303)
(0.112671 0 -0.00301691)
(0.117915 0 -0.00280837)
(0.121877 0 -0.00260315)
(0.124615 0 -0.00241032)
(0.12617 0 -0.00222834)
(0.12657 0 -0.00205424)
(0.125834 0 -0.0018893)
(0.123965 0 -0.00173402)
(0.120953 0 -0.00158551)
(0.116775 0 -0.00144158)
(0.111396 0 -0.00130178)
(0.104768 0 -0.00116516)
(0.0968488 0 -0.00103102)
(0.0875898 0 -0.000897489)
(0.0769166 0 -0.000762523)
(0.064753 0 -0.0006237)
(0.0510251 0 -0.00047992)
(0.0356429 0 -0.000329756)
(0.0185127 0 -0.000169685)
(0 0 0)
(0.0116147 0 -0.0080883)
(0.0182125 0 -0.00798625)
(0.0254003 0 -0.00823084)
(0.0353777 0 -0.00830879)
(0.0469121 0 -0.00824718)
(0.0589938 0 -0.00807388)
(0.0708752 0 -0.00781948)
(0.0819929 0 -0.00749993)
(0.0920175 0 -0.00712943)
(0.100812 0 -0.00673532)
(0.108316 0 -0.00633572)
(0.114513 0 -0.00593163)
(0.119434 0 -0.00552742)
(0.123133 0 -0.00513353)
(0.125655 0 -0.00475974)
(0.127029 0 -0.00440505)
(0.127279 0 -0.00406492)
(0.126417 0 -0.00373954)
(0.124445 0 -0.00343057)
(0.121349 0 -0.00313638)
(0.117102 0 -0.00285287)
(0.111667 0 -0.0025788)
(0.104993 0 -0.00231062)
(0.0970359 0 -0.00204453)
(0.0877449 0 -0.00177926)
(0.0770495 0 -0.00151228)
(0.0648685 0 -0.00123871)
(0.0511168 0 -0.000954649)
(0.035706 0 -0.000656404)
(0.0185445 0 -0.000338011)
(0 0 0)
(0.0233185 0 -0.0115962)
(0.029062 0 -0.0116081)
(0.0361481 0 -0.0119573)
(0.0454781 0 -0.0120738)
(0.0560412 0 -0.0119884)
(0.0670516 0 -0.0117469)
(0.0778516 0 -0.0113854)
(0.0879401 0 -0.0109281)
(0.0970486 0 -0.0104042)
(0.105047 0 -0.00984596)
(0.111853 0 -0.00927112)
(0.117448 0 -0.00868755)
(0.121868 0 -0.00810868)
(0.125151 0 -0.00754436)
(0.127323 0 -0.00700244)
(0.128407 0 -0.00648563)
(0.128416 0 -0.00599138)
(0.127357 0 -0.00551767)
(0.12522 0 -0.00506521)
(0.121988 0 -0.00463294)
(0.117628 0 -0.00421667)
(0.112101 0 -0.00381367)
(0.105355 0 -0.00341898)
(0.0973382 0 -0.00302717)
(0.0879935 0 -0.00263586)
(0.0772525 0 -0.0022415)
(0.0650364 0 -0.00183832)
(0.0512499 0 -0.001419)
(0.0357958 0 -0.000976644)
(0.0185891 0 -0.000503327)
(0 0 0)
(0.0377638 0 -0.0149036)
(0.0427474 0 -0.0149832)
(0.0496403 0 -0.0153874)
(0.0581849 0 -0.0155202)
(0.0676173 0 -0.015414)
(0.0773441 0 -0.015114)
(0.0868242 0 -0.0146606)
(0.0956558 0 -0.0140888)
(0.103621 0 -0.0134336)
(0.110594 0 -0.0127287)
(0.116501 0 -0.011999)
(0.121329 0 -0.011261)
(0.125101 0 -0.0105289)
(0.127836 0 -0.00981193)
(0.129546 0 -0.00911675)
(0.130244 0 -0.00845123)
(0.129937 0 -0.00781646)
(0.128615 0 -0.00720794)
(0.12626 0 -0.00662465)
(0.122847 0 -0.00606457)
(0.118338 0 -0.00552395)
(0.112687 0 -0.0049987)
(0.10584 0 -0.00448351)
(0.0977401 0 -0.00397283)
(0.0883232 0 -0.003462)
(0.0775173 0 -0.00294557)
(0.0652466 0 -0.00241719)
(0.0514111 0 -0.00186764)
(0.0359029 0 -0.00128657)
(0.0186429 0 -0.000663307)
(0 0 0)
(0.0541358 0 -0.0180507)
(0.0584212 0 -0.0181275)
(0.0650036 0 -0.0185371)
(0.0726795 0 -0.0186596)
(0.080907 0 -0.0185261)
(0.0892415 0 -0.0181707)
(0.0972762 0 -0.0176376)
(0.104714 0 -0.0169693)
(0.111381 0 -0.0162015)
(0.117172 0 -0.0153687)
(0.122041 0 -0.0145062)
(0.12598 0 -0.013637)
(0.12899 0 -0.0127721)
(0.131076 0 -0.011922)
(0.132238 0 -0.011093)
(0.132476 0 -0.0102949)
(0.131787 0 -0.0095331)
(0.130148 0 -0.00880261)
(0.127531 0 -0.00810001)
(0.123898 0 -0.00742287)
(0.119207 0 -0.00676741)
(0.113405 0 -0.00612867)
(0.106435 0 -0.00550081)
(0.0982304 0 -0.00487782)
(0.0887245 0 -0.00425355)
(0.0778395 0 -0.00362082)
(0.0654967 0 -0.00297226)
(0.0515964 0 -0.00229787)
(0.0360285 0 -0.00158409)
(0.0187082 0 -0.000816927)
(0 0 0)
(0.0717215 0 -0.0209978)
(0.0753537 0 -0.0210342)
(0.0815106 0 -0.021415)
(0.0882748 0 -0.0215081)
(0.0952773 0 -0.0213385)
(0.102183 0 -0.0209275)
(0.108719 0 -0.020321)
(0.114695 0 -0.0195671)
(0.119977 0 -0.0187023)
(0.124499 0 -0.017762)
(0.128244 0 -0.0167869)
(0.131209 0 -0.0158053)
(0.133379 0 -0.0148276)
(0.134749 0 -0.0138645)
(0.135304 0 -0.012923)
(0.135028 0 -0.0120104)
(0.133906 0 -0.0111341)
(0.131908 0 -0.0102938)
(0.128991 0 -0.0094841)
(0.125108 0 -0.0087011)
(0.120209 0 -0.00794105)
(0.114236 0 -0.00719816)
(0.107121 0 -0.00646586)
(0.0987953 0 -0.00573785)
(0.0891872 0 -0.00500699)