/*--------------------------------*- C++ -*----------------------------------*\
| =========                 |                                                 |
| \\      /  F ield         | OpenFOAM: The Open Source CFD Toolbox           |
|  \\    /   O peration     | Version:  dev                                   |
|   \\  /    A nd           | Web:      www.OpenFOAM.org                      |
|    \\/     M anipulation  |                                                 |
\*---------------------------------------------------------------------------*/
FoamFile
{
    version     2.0;
    format      ascii;
    class       surfaceVectorField;
    location    "3";
    object      Uf;
}
// * * * * * * * * * * * * * * * * * * * * * * * * * * * * * * * * * * * * * //

dimensions      [0 1 -1 0 0 0 0];

internalField   nonuniform List<vector> 
5457
(
(9.91119 -4.47609e-23 0.0239977)
(9.97472 -8.29311e-21 0.0391677)
(9.80838 -5.61714e-22 0.0313265)
(9.92653 -5.71868e-22 0.046781)
(9.68938 0 0.0373966)
(9.84705 -9.46352e-21 0.0560548)
(9.55255 -2.60297e-21 0.0435428)
(9.7462 -9.82171e-21 0.0667024)
(9.39831 -7.94975e-21 0.0498085)
(9.62772 -1.02421e-20 0.0777662)
(9.22716 3.60872e-22 0.0562475)
(9.49173 -1.16045e-22 0.0892078)
(9.03924 2.49783e-21 0.0629832)
(9.33786 1.65089e-20 0.10123)
(8.83438 -2.83715e-21 0.070143)
(9.16592 1.73124e-20 0.114012)
(8.61217 1.59271e-21 0.0778488)
(8.97583 -2.37963e-20 0.127728)
(8.37201 1.54232e-21 0.0862227)
(8.76714 1.09373e-23 0.142559)
(8.11307 0 0.0953895)
(8.53911 0 0.158698)
(7.83441 0 0.105474)
(8.29089 0 0.176336)
(7.53494 0 0.1166)
(8.0215 -1.768e-21 0.195646)
(7.21355 3.20129e-20 0.128892)
(7.72984 0 0.216796)
(6.86907 -2.03222e-21 0.142475)
(7.41475 3.92446e-20 0.239942)
(6.50039 3.08684e-21 0.157464)
(7.07508 -3.25537e-20 0.265212)
(6.10648 -2.2154e-21 0.173966)
(6.70969 -1.18785e-19 0.292691)
(5.68649 4.19689e-20 0.192063)
(6.31755 1.22799e-19 0.322401)
(5.23985 -1.05652e-19 0.211786)
(5.89791 2.06982e-19 0.354276)
(4.76647 -9.18592e-20 0.233058)
(5.45028 -3.51739e-19 0.388049)
(4.267 8.10343e-20 0.255683)
(4.97454 4.16865e-20 0.423184)
(3.743 -2.29511e-20 0.27932)
(4.47149 -4.24048e-20 0.45888)
(3.19717 1.22173e-19 0.303376)
(3.9429 -3.13221e-19 0.493965)
(2.63383 -6.5975e-21 0.326869)
(3.39167 5.5528e-19 0.526666)
(2.05935 -3.50833e-19 0.348152)
(2.82234 -1.93137e-19 0.554394)
(1.48304 -2.03978e-19 0.364141)
(2.24158 -2.03767e-19 0.573255)
(0.918799 1.05095e-19 0.367294)
(1.65867 -9.21968e-19 0.576801)
(0.389841 1.06219e-19 0.320497)
(1.08805 1.03879e-18 0.551663)
(-0.0461914 1.15797e-19 0.00847109)
(0.511839 1.68411e-18 0.448642)
(0.217808 -3.7692e-18 -0.0479345)
(9.99838 -8.70416e-21 0.0497689)
(10.0043 -1.11158e-23 0.0398732)
(9.9602 -9.63157e-21 0.0675108)
(9.98382 -1.82294e-20 0.0641489)
(9.89988 -1.92918e-20 0.08307)
(9.93569 -9.49487e-21 0.0844597)
(9.81957 -1.74705e-20 0.0992315)
(9.86671 1.95763e-20 0.105843)
(9.71966 -2.23161e-21 0.116079)
(9.7794 -1.79413e-20 0.128133)
(9.60049 1.63188e-20 0.133685)
(9.67402 3.1702e-20 0.151319)
(9.46222 3.13375e-20 0.152286)
(9.55043 -2.1925e-20 0.17571)
(9.30481 -4.32571e-21 0.172148)
(9.40857 2.59237e-20 0.201617)
(9.12795 -2.49965e-20 0.193555)
(9.24846 -1.78485e-20 0.229393)
(8.93108 -1.53264e-21 0.216793)
(9.06971 4.52406e-20 0.259431)
(8.71343 0 0.242145)
(8.87166 2.19137e-21 0.292118)
(8.47408 -1.79605e-21 0.269884)
(8.65355 -5.38407e-20 0.327823)
(8.21201 -1.74028e-21 0.300271)
(8.41449 -3.51823e-21 0.36691)
(7.92609 7.84721e-21 0.333556)
(8.15346 7.33437e-21 0.409732)
(7.61516 7.6053e-21 0.369958)
(7.86935 1.15974e-19 0.456629)
(7.27801 -1.55776e-19 0.409647)
(7.561 -1.43429e-19 0.507893)
(6.91351 9.90201e-21 0.45271)
(7.22722 -1.1985e-19 0.563734)
(6.52069 2.89141e-19 0.499123)
(6.86687 -1.76368e-19 0.624231)
(6.09879 -4.71208e-20 0.548678)
(6.47899 1.08839e-19 0.689298)
(5.64739 -2.1229e-19 0.600835)
(6.06278 -1.39366e-19 0.758549)
(5.16662 -8.30107e-20 0.654634)
(5.61763 6.39591e-19 0.831079)
(4.65746 -3.36151e-19 0.708634)
(5.14348 3.31428e-19 0.90536)
(4.12196 1.31805e-19 0.760698)
(4.64109 -3.34068e-19 0.979133)
(3.56353 3.59938e-19 0.80764)
(4.11195 4.13632e-19 1.04901)
(2.98741 -4.74423e-20 0.844654)
(3.55862 -4.79616e-20 1.10994)
(2.40142 -9.28612e-19 0.863944)
(2.98496 -9.7176e-19 1.15422)
(1.81727 2.4629e-20 0.850931)
(2.39556 1.57714e-18 1.1689)
(1.25322 2.6159e-18 0.774983)
(1.79723 -2.32997e-18 1.12867)
(0.716324 -2.24599e-18 0.592778)
(1.15068 1.66929e-18 0.987807)
(0.738022 -1.90879e-18 0.662174)
(9.99115 -9.82393e-21 0.0569339)
(10.002 2.64751e-20 0.0437808)
(9.95662 -1.79229e-20 0.0843985)
(9.979 -3.78091e-24 0.0798743)
(9.90024 2.9902e-20 0.110103)
(9.93212 -1.60183e-23 0.111043)
(9.82534 1.84755e-20 0.1368)
(9.86647 1.96101e-20 0.142383)
(9.73268 1.68493e-20 0.164808)
(9.78333 -2.04311e-20 0.174892)
(9.62247 -7.44094e-21 0.194269)
(9.68304 1.58582e-20 0.208808)
(9.49492 -2.65579e-20 0.225474)
(9.56576 -1.10378e-20 0.244469)
(9.3501 1.16793e-20 0.258802)
(9.43157 5.72531e-21 0.282271)
(9.1878 5.34089e-20 0.294713)
(9.28055 1.16757e-23 0.322751)
(9.00755 4.82674e-20 0.333681)
(9.11242 5.60687e-20 0.366504)
(8.8087 -5.25556e-20 0.376164)
(8.92669 1.07306e-19 0.414081)
(8.59048 -5.47809e-20 0.422611)
(8.72279 -1.6052e-19 0.466017)
(8.352 5.72461e-21 0.473468)
(8.50002 1.74711e-21 0.522849)
(8.09224 1.17188e-19 0.52917)
(8.25755 -7.24498e-21 0.585121)
(7.81012 -3.90451e-20 0.590123)
(7.99447 1.31117e-19 0.653362)
(7.50445 -1.07208e-19 0.656656)
(7.70981 -1.43419e-19 0.728059)
(7.17405 -3.07068e-19 0.728972)
(7.4025 3.34456e-20 0.8096)
(6.81776 -3.52733e-19 0.807091)
(7.07144 -3.00313e-19 0.898203)
(6.43453 1.2418e-20 0.890765)
(6.71554 -2.77207e-19 0.993858)
(6.02346 7.23278e-19 0.979277)
(6.33379 -2.73577e-19 1.0962)
(5.58385 1.04994e-18 1.07122)
(5.92516 6.72197e-19 1.20425)
(5.11545 3.24369e-19 1.16436)
(5.48872 3.73719e-19 1.31614)
(4.61855 -4.30117e-20 1.25535)
(5.02382 -4.35748e-20 1.42894)
(4.09414 0 1.33926)
(4.52984 -7.11592e-19 1.53822)
(3.54381 -9.81153e-19 1.40881)
(4.00632 -7.42929e-19 1.63752)
(2.9694 1.5497e-18 1.453)
(3.45255 5.37894e-19 1.71739)
(2.37083 -7.90214e-19 1.45471)
(2.86569 2.49031e-18 1.76388)
(1.73857 -3.24419e-18 1.39026)
(2.24237 -3.2497e-18 1.75618)
(1.02666 1.90567e-18 1.241)
(1.52862 -1.06611e-19 1.67907)
(0.915792 1.74079e-18 1.4988)
(9.98669 3.58598e-20 0.067338)
(10.0007 1.80748e-23 0.0496541)
(9.9524 1.78959e-20 0.105997)
(9.97575 9.12468e-21 0.095499)
(9.89707 -9.96683e-21 0.142645)
(9.92884 9.45688e-21 0.137142)
(9.82346 -1.99709e-20 0.179783)
(9.8645 9.8032e-21 0.178312)
(9.73261 -2.08003e-20 0.218275)
(9.78305 -3.03866e-20 0.220756)
(9.62489 1.1802e-20 0.258518)
(9.68479 -1.06255e-20 0.265028)
(9.50064 2.15199e-20 0.300925)
(9.57022 3.28173e-20 0.311485)
(9.36 -6.03412e-21 0.346036)
(9.43947 0 0.360637)
(9.20288 3.56488e-21 0.394506)
(9.29261 -5.34153e-20 0.413186)
(9.02898 1.15908e-19 0.446996)
(9.1295 4.58977e-20 0.469869)
(8.83789 -4.90116e-21 0.504133)
(8.94983 1.0195e-19 0.531371)
(8.62907 -1.01465e-19 0.566536)
(8.75319 -1.06498e-19 0.598364)
(8.40189 -1.13626e-20 0.634831)
(8.53909 3.50078e-21 0.671529)
(8.15563 8.80581e-21 0.709646)
(8.30693 -7.34195e-21 0.751562)
(7.88949 2.25271e-20 0.791584)
(8.05609 -7.32613e-21 0.839154)
(7.60259 -1.12058e-23 0.881183)
(7.78584 1.43663e-22 0.934974)
(7.29395 3.51633e-20 0.978842)
(7.49538 -1.65055e-20 1.03961)
(6.96254 -2.24616e-19 1.08474)
(7.18382 6.61623e-22 1.15346)
(6.60728 -5.63978e-19 1.19876)
(6.85018 3.18521e-19 1.27668)
(6.22709 -3.12443e-19 1.32024)
(6.49338 -8.97873e-19 1.40903)
(5.82082 -8.89129e-21 1.44777)
(6.11222 -8.04922e-21 1.54968)
(5.38716 0 1.57885)
(5.70526 0 1.69686)
(4.92469 -7.20153e-19 1.7096)
(5.27072 0 1.84755)
(4.43167 -1.45579e-18 1.83435)
(4.80605 -7.11515e-19 1.99707)
(3.90565 7.83225e-19 1.94508)
(4.30794 -7.42488e-19 2.13874)
(3.34213 1.49668e-18 2.03058)
(3.77178 2.98632e-18 2.26347)
(2.73196 0 2.0756)
(3.1893 -3.0259e-18 2.35921)
(2.05738 -1.00222e-19 2.06371)
(2.55285 -1.04418e-19 2.40973)
(1.28738 -3.16107e-19 1.98784)
(1.80972 -1.48648e-18 2.40836)
(1.07993 6.70543e-18 2.33717)
(9.98447 -2.65791e-20 0.0785588)
(10 -1.76222e-20 0.056507)
(9.94987 6.7197e-22 0.127014)
(9.97406 -3.62302e-20 0.111272)
(9.89555 2.92243e-20 0.173443)
(9.92731 1.88801e-20 0.162776)
(9.82329 -1.31015e-21 0.220179)
(9.86427 1.96335e-20 0.213597)
(9.73414 -1.98801e-20 0.268513)
(9.78459 -8.08948e-20 0.265783)
(9.62867 1.11207e-20 0.319036)
(9.68859 4.18088e-20 0.320102)
(9.50729 1.07619e-20 0.372259)
(9.57682 1.09416e-20 0.376992)
(9.37009 -4.82461e-20 0.42886)
(9.4494 0 0.437136)
(9.21699 -9.49212e-21 0.489615)
(9.30643 -1.41934e-19 0.501363)
(9.04783 3.28134e-20 0.555292)
(9.14785 1.40046e-19 0.570495)
(8.86231 -2.94094e-21 0.626633)
(8.97342 -3.20328e-21 0.645334)
(8.66005 2.05252e-22 0.704373)
(8.78285 2.08525e-22 0.726677)
(8.44059 7.35625e-21 0.78926)
(8.57574 0 0.815315)
(8.20343 -2.34734e-20 0.882051)
(8.35168 7.24793e-21 0.912058)
(7.94801 -2.96209e-20 0.9835)
(8.11019 -2.55327e-19 1.01773)
(7.6737 -1.66026e-20 1.09432)
(7.85075 2.62599e-19 1.13315)
(7.37976 -5.07689e-20 1.21511)
(7.57275 -1.6441e-20 1.25909)
(7.06536 5.4857e-19 1.34623)
(7.27547 5.08198e-19 1.39616)
(6.72951 -3.20903e-20 1.48773)
(6.95806 1.71638e-20 1.54472)
(6.37109 -5.82049e-19 1.63921)
(6.6194 -5.90408e-19 1.70472)
(5.98869 0 1.79948)
(6.2582 7.53123e-20 1.87564)
(5.58035 0 1.96632)
(5.87274 0 2.05613)
(5.14335 0 2.13595)
(5.46049 -1.22766e-18 2.24363)
(4.67383 0 2.30278)
(5.01761 1.25637e-18 2.43385)
(4.16631 1.49113e-18 2.4593)
(4.53866 -8.6328e-20 2.62053)
(3.61258 -1.56868e-18 2.59556)
(4.0166 3.09266e-18 2.7957)
(3.0003 -3.12237e-18 2.69856)
(3.44068 -3.01003e-18 2.94897)
(2.3129 -1.48549e-18 2.75352)
(2.80261 -1.59984e-18 3.06512)
(1.53657 5.67388e-18 2.75183)
(2.06115 1.63331e-18 3.13166)
(1.2517 3.6112e-18 3.13934)
(9.98343 -2.75752e-20 0.0901277)
(9.99975 4.37375e-20 0.06382)
(9.94871 -1.70427e-20 0.147741)
(9.97344 9.0539e-21 0.127102)
(9.89555 9.28777e-21 0.203648)
(9.92718 5.62346e-20 0.187881)
(9.82498 -6.17002e-20 0.259958)
(9.86556 -5.81139e-20 0.248076)
(9.73799 -1.71269e-20 0.318097)
(9.78802 -6.0689e-20 0.309746)
(9.63526 4.11264e-20 0.378756)
(9.69481 8.37168e-20 0.373779)
(9.51717 0 0.442573)
(9.58631 -4.31928e-20 0.440768)
(9.3838 -9.59671e-20 0.510367)
(9.46266 0 0.511557)
(9.2351 1.2099e-20 0.58301)
(9.32409 -1.8835e-19 0.587074)
(9.07098 1.01808e-19 0.661361)
(9.17056 2.12202e-19 0.66821)
(8.8912 0 0.746276)
(9.00184 0 0.755883)
(8.69546 0 0.838604)
(8.81773 2.10877e-19 0.850997)
(8.4834 0 0.939195)
(8.61788 -2.16896e-19 0.954439)
(8.25463 -2.2861e-19 1.04892)
(8.40196 0 1.06712)
(8.00871 4.4482e-20 1.16867)
(8.16959 -4.62534e-19 1.18997)
(7.74514 2.5882e-19 1.29933)
(7.92032 5.21736e-19 1.32395)
(7.46332 5.50287e-19 1.44167)
(7.65363 -5.12742e-19 1.47002)
(7.16251 -2.96945e-20 1.59628)
(7.36888 1.63537e-18 1.62899)
(6.84177 -5.49723e-19 1.76344)
(7.06527 -1.13869e-18 1.80148)
(6.49988 7.63297e-20 1.94299)
(6.74158 -5.74169e-19 1.98771)
(6.13527 7.44177e-20 2.13423)
(6.39631 5.89516e-19 2.18747)
(5.74555 -1.24243e-18 2.33552)
(6.02759 -7.61222e-20 2.40006)
(5.32722 5.32326e-20 2.54378)
(5.63237 -1.38708e-18 2.62374)
(4.87504 1.15805e-18 2.75398)
(5.20619 1.3393e-18 2.85512)
(4.38173 1.53958e-18 2.95939)
(4.74215 1.34999e-18 3.08861)
(3.83758 1.61708e-18 3.15122)
(4.23183 2.3572e-19 3.31699)
(3.23002 -1.48195e-18 3.31713)
(3.66376 -7.83947e-20 3.53057)
(2.54434 1.51613e-18 3.43895)
(3.02899 -1.40063e-18 3.71299)
(1.77614 -4.54553e-19 3.4974)
(2.30249 2.95218e-18 3.83943)
(1.4302 -6.38425e-18 3.90346)
(9.98308 7.9882e-20 0.101809)
(9.99959 -1.73235e-20 0.0712897)
(9.94865 8.32291e-20 0.168156)
(9.97355 4.51375e-20 0.142809)
(9.89678 -1.31656e-20 0.233163)
(9.92811 9.40205e-21 0.212385)
(9.82823 -5.71661e-20 0.298739)
(9.86814 7.72417e-20 0.281597)
(9.74386 4.26011e-20 0.366326)
(9.79314 -3.99944e-20 0.352412)
(9.64435 -2.70091e-21 0.436725)
(9.70314 6.26591e-20 0.425815)
(9.53004 -4.25059e-20 0.51073)
(9.59834 6.48432e-20 0.502556)
(9.40104 -9.53776e-20 0.589286)
(9.47901 -8.9135e-20 0.583599)
(9.25739 1.80782e-20 0.673352)
(9.3455 -1.17076e-19 0.669956)
(9.099 1.0711e-19 0.76388)
(9.19769 9.67468e-20 0.762616)
(8.92567 2.14154e-19 0.861834)
(9.03541 2.01091e-19 0.862597)
(8.73715 -1.24452e-20 0.968156)
(8.85852 4.24753e-21 0.970902)
(8.53311 -2.13764e-19 1.08379)
(8.66671 3.23763e-21 1.08851)
(8.31324 -2.40747e-19 1.2097)
(8.45968 -4.48226e-19 1.2164)
(8.07717 2.88599e-20 1.34691)
(8.23712 -5.99521e-21 1.35564)
(7.82441 -2.64796e-19 1.49646)
(7.99854 -2.41716e-19 1.50734)
(7.5544 6.0198e-19 1.65933)
(7.7435 -1.48787e-20 1.67264)
(7.2664 4.89583e-19 1.83638)
(7.47132 1.12626e-18 1.85258)
(6.95941 -1.15588e-18 2.02814)
(7.18118 -6.23579e-21 2.04808)
(6.63203 -4.72266e-20 2.23476)
(6.87182 -5.69016e-19 2.25972)
(6.28245 4.31444e-19 2.45606)
(6.54133 -5.92674e-20 2.48764)
(5.908 -2.35395e-19 2.69122)
(6.18754 2.3822e-18 2.73183)
(5.50464 -7.37474e-20 2.93821)
(5.80714 -1.22812e-18 2.99157)
(5.06646 1.53033e-18 3.19293)
(5.39523 8.22781e-20 3.26463)
(4.58515 4.25643e-20 3.44924)
(4.94422 1.43743e-18 3.54636)
(4.05028 -1.45829e-18 3.69883)
(4.44465 -1.41909e-18 3.82991)
(3.44965 4.14544e-21 3.92866)
(3.88461 -1.8499e-21 4.1052)
(2.76888 4.41678e-20 4.11488)
(3.25281 9.38361e-20 4.35432)
(2.00513 -3.2651e-18 4.22207)
(2.54131 -4.64981e-20 4.53843)
(1.61248 -3.13816e-18 4.64575)
(9.98311 -5.0932e-20 0.113406)
(9.99951 -1.75655e-20 0.0787464)
(9.94938 -2.93693e-20 0.18812)
(9.97415 -7.17938e-20 0.158208)
(9.89908 1.00994e-19 0.261826)
(9.9299 -3.743e-20 0.236168)
(9.83286 9.24042e-20 0.336288)
(9.87183 1.35471e-19 0.314001)
(9.75151 -1.82392e-20 0.412957)
(9.79969 -3.98161e-20 0.393591)
(9.65562 1.30248e-19 0.492732)
(9.71327 -4.13992e-20 0.476001)
(9.54559 1.57564e-20 0.576534)
(9.61265 1.50758e-19 0.562087)
(9.42159 -1.11286e-19 0.665415)
(9.49823 -8.91784e-20 0.652921)
(9.28367 -3.50683e-20 0.760425)
(9.37039 -8.10634e-23 0.749627)
(9.13174 1.92331e-19 0.862612)
(9.22897 1.17631e-20 0.853292)
(8.96564 -1.18159e-20 0.973031)
(9.07385 2.13595e-19 0.965007)
(8.78518 1.9846e-20 1.09272)
(8.90497 -2.06944e-19 1.08587)
(8.59008 -2.37708e-19 1.2227)
(8.72208 2.10514e-19 1.21694)
(8.38003 -2.07279e-19 1.36406)
(8.52497 -4.50393e-19 1.35933)
(8.15465 -2.79944e-19 1.51794)
(8.3132 6.92835e-19 1.51419)
(7.91349 1.09308e-20 1.68555)
(8.08629 -9.74522e-19 1.6828)
(7.65595 5.24981e-19 1.8681)
(7.84383 4.9916e-19 1.86649)
(7.38126 6.15424e-19 2.06671)
(7.58515 3.76433e-22 2.06655)
(7.08838 5.75467e-19 2.28233)
(7.30927 5.76585e-19 2.28424)
(6.77566 -5.74821e-19 2.51551)
(7.01504 5.97354e-21 2.52069)
(6.44086 1.91859e-18 2.76657)
(6.70006 -5.75145e-19 2.77648)
(6.08098 1.35594e-18 3.03559)
(6.36165 2.46287e-18 3.05225)
(5.69164 -1.06078e-18 3.32168)
(5.9964 -1.18329e-18 3.34837)
(5.26653 0 3.62193)
(5.59884 1.18675e-18 3.6638)
(4.79677 -4.15633e-20 3.93099)
(5.16107 -1.20818e-18 3.99524)
(4.271 4.54451e-20 4.24038)
(4.67266 -9.69837e-22 4.33634)
(3.67661 8.82468e-20 4.53562)
(4.1207 8.60451e-20 4.67608)
(2.99808 2.68068e-21 4.78714)
(3.48953 -2.68038e-18 4.99523)
(2.22826 0 4.94111)
(2.78611 2.75048e-18 5.24228)
(1.79955 0 5.3932)
(9.9834 -3.91656e-20 0.124761)
(9.9996 1.12724e-19 0.0860738)
(9.95074 -7.93154e-20 0.207483)
(9.97509 -6.28552e-20 0.173126)
(9.90227 3.39007e-23 0.289504)
(9.93233 5.54474e-20 0.259105)
(9.83861 1.76877e-22 0.372464)
(9.87641 -3.83845e-20 0.345182)
(9.76059 -6.30287e-20 0.457817)
(9.80737 9.62428e-24 0.433126)
(9.66879 -1.77962e-20 0.546557)
(9.72494 -2.13066e-20 0.524099)
(9.5636 4.19948e-20 0.639699)
(9.62902 2.13373e-20 0.619067)
(9.44519 2.34562e-20 0.738407)
(9.52005 -8.86038e-20 0.7192)
(9.31361 4.69556e-20 0.843836)
(9.39842 9.14386e-20 0.82574)
(9.16878 3.604e-20 0.95711)
(9.26398 1.01016e-22 0.93985)
(9.01065 1.21823e-20 1.07935)
(9.11673 -2.44164e-20 1.06267)
(8.83909 -1.01372e-20 1.21169)
(8.95661 0 1.19536)
(8.6539 -1.15979e-20 1.35528)
(8.78354 -1.65132e-20 1.33912)
(8.45476 4.66148e-19 1.51132)
(8.59731 2.26062e-19 1.49518)
(8.2412 -2.42484e-20 1.68107)
(8.39744 2.33412e-19 1.66485)
(8.01274 -4.67025e-19 1.86592)
(8.18342 -4.75403e-19 1.84954)
(7.76884 -3.2434e-20 2.0673)
(7.95483 4.92862e-19 2.05075)
(7.50868 -3.16358e-20 2.28663)
(7.71104 -2.74009e-20 2.27003)
(7.23114 0 2.52538)
(7.45093 -1.02912e-18 2.50903)
(6.93442 0 2.78469)
(7.17337 5.11378e-19 2.76954)
(6.61581 0 3.06542)
(6.87577 -1.69094e-20 3.05287)
(6.2719 -1.12875e-19 3.36857)
(6.55493 0 3.36027)
(5.898 1.08704e-18 3.69439)
(6.20714 -1.2447e-18 3.69317)
(5.48734 -3.76415e-20 4.04144)
(5.82639 2.37933e-18 4.05192)
(5.03032 -1.16035e-18 4.40555)
(5.40428 -4.71735e-20 4.43492)
(4.51434 4.01489e-20 4.77816)
(4.92918 -1.16306e-18 4.83697)
(3.92508 -2.70241e-18 5.14337)
(4.38669 3.85044e-20 5.2465)
(3.24419 7.13548e-20 5.46697)
(3.75461 -2.68544e-18 5.64364)
(2.4565 2.67516e-18 5.67688)
(3.05072 2.75015e-18 5.96689)
(1.99836 0 6.17703)
(9.98392 8.62624e-20 0.135757)
(9.99992 -8.53489e-21 0.0931692)
(9.95254 7.39479e-20 0.226125)
(9.97626 2.67973e-20 0.187473)
(9.9061 1.54196e-20 0.316087)
(9.93515 5.54663e-20 0.281104)
(9.84524 -3.7912e-20 0.407129)
(9.88172 -7.65227e-20 0.375024)
(9.77091 4.14035e-20 0.500698)
(9.81611 -3.96028e-20 0.470832)
(9.68369 1.85408e-20 0.59792)
(9.73805 -4.08759e-20 0.569855)
(9.58383 -1.11035e-19 0.699918)
(9.64729 -2.13531e-20 0.673224)
(9.4715 -1.78454e-20 0.807941)
(9.54421 -7.12148e-22 0.782171)
(9.34678 4.32044e-20 0.923227)
(9.42925 -1.12996e-19 0.897994)
(9.20971 -6.07524e-20 1.04696)
(9.30238 6.9808e-20 1.02192)
(9.06027 -3.62651e-20 1.18032)
(9.16367 -1.24403e-20 1.15515)
(8.89841 -6.61308e-21 1.32452)
(9.01309 2.01997e-19 1.29889)
(8.72401 2.24658e-19 1.48085)
(8.85066 -2.00655e-19 1.45447)
(8.53678 -6.63186e-21 1.65068)
(8.67617 2.21315e-19 1.62326)
(8.33624 -2.27321e-19 1.83543)
(8.4892 2.28224e-19 1.8068)
(8.12186 4.9771e-19 2.03662)
(8.28937 -4.56967e-19 2.00661)
(7.8931 4.92323e-19 2.25589)
(8.07617 9.59824e-19 2.2243)
(7.64914 -1.03705e-18 2.49502)
(7.84892 -4.81557e-19 2.46176)
(7.38875 -5.01734e-19 2.75599)
(7.60654 -1.03509e-18 2.72106)
(7.11011 4.89574e-19 3.04071)
(7.34772 5.24756e-19 3.00461)
(6.81027 -1.67691e-20 3.35087)
(7.07012 -1.05667e-18 3.3147)
(6.48534 -1.14395e-18 3.68831)
(6.7703 -2.16368e-18 3.65341)
(6.13031 7.3968e-20 4.0546)
(6.44385 -1.57509e-20 4.02318)
(5.73772 2.35637e-18 4.45)
(6.08448 2.33883e-18 4.42618)
(5.29689 -5.45359e-20 4.87215)
(5.68305 2.17761e-20 4.86296)
(4.7935 -1.15691e-18 5.31338)
(5.22634 -2.41576e-20 5.33041)
(4.21014 3.81997e-20 5.75736)
(4.69779 -1.18722e-18 5.81787)
(3.52336 0 6.16683)
(4.06665 2.41919e-18 6.30655)
(2.70737 0 6.45375)
(3.35645 -2.49959e-18 6.72794)
(2.22307 -2.62981e-18 7.03051)
(9.9846 -6.75249e-20 0.146314)
(10.0004 -9.18413e-21 0.0999668)
(9.95461 8.74051e-21 0.243962)
(9.97758 2.66317e-20 0.201195)
(9.91043 -3.87715e-20 0.341457)
(9.93827 -9.15346e-20 0.302055)
(9.85273 -7.75489e-20 0.440114)
(9.88773 -7.61339e-20 0.403345)
(9.78248 -1.2191e-19 0.541389)
(9.8259 3.91152e-20 0.506512)
(9.70021 -8.04832e-20 0.646589)
(9.7525 -4.10873e-20 0.613079)
(9.60607 8.93426e-20 0.75695)
(9.66722 4.23839e-20 0.724362)
(9.50023 -9.75835e-20 0.87375)
(9.57042 1.27153e-21 0.841602)
(9.3829 -8.37282e-20 0.99827)
(9.46261 -1.36529e-19 0.966095)
(9.2542 1.16983e-19 1.13176)
(9.34385 7.04684e-20 1.09913)
(9.11418 2.29013e-19 1.27546)
(9.21431 2.43922e-20 1.24199)
(8.96282 2.38591e-21 1.43068)
(9.07402 2.02201e-19 1.39597)
(8.80001 -1.98452e-19 1.59883)
(8.92302 -1.94355e-19 1.56246)
(8.62556 4.56531e-19 1.78143)
(8.76107 -6.75693e-21 1.743)
(8.43913 -9.67349e-21 1.98012)
(8.58794 8.89452e-19 1.93926)
(8.24024 2.23165e-20 2.19655)
(8.40353 -9.18539e-19 2.15297)
(8.02829 -3.086e-20 2.43259)
(8.20723 4.68796e-19 2.38592)
(7.80243 -4.85247e-19 2.69037)
(7.99828 -4.86708e-19 2.64028)
(7.56141 8.51138e-21 2.97239)
(7.77578 7.53064e-21 2.91859)
(7.30352 -1.03892e-18 3.2814)
(7.53826 1.02042e-18 3.22375)
(7.02583 -3.21902e-18 3.62016)
(7.28388 -2.06761e-18 3.55916)
(6.72415 -1.01993e-18 3.99149)
(7.00925 -2.16981e-18 3.92807)
(6.39303 2.26917e-18 4.39845)
(6.70938 1.12337e-18 4.33406)
(6.02449 -1.3876e-20 4.84366)
(6.37789 1.14931e-18 4.78147)
(5.60656 5.49768e-20 5.32744)
(6.00518 8.10571e-21 5.27386)
(5.1225 -6.12743e-20 5.84452)
(5.57621 1.14606e-18 5.81156)
(4.55022 1.23351e-18 6.38054)
(5.07146 -2.35268e-18 6.38741)
(3.8581 -1.00614e-19 6.89791)
(4.44975 2.42575e-18 6.9872)
(3.00638 -5.13773e-18 7.29745)
(3.73504 -4.88422e-18 7.53954)
(2.49817 2.25697e-18 7.99162)
(9.98538 8.55061e-20 0.156372)
(10.0011 9.58733e-23 0.106421)
(9.95695 -7.56669e-20 0.260907)
(9.97905 1.77427e-20 0.214208)
(9.91529 -1.28677e-19 0.365464)
(9.94172 -9.12952e-20 0.321833)
(9.86109 4.25238e-20 0.471238)
(9.89439 -3.80443e-20 0.429986)
(9.7952 1.18677e-19 0.579717)
(9.8366 7.85849e-20 0.540026)
(9.71811 8.31492e-20 0.692393)
(9.76805 4.07377e-20 0.653643)
(9.63001 -4.63483e-20 0.810587)
(9.68852 1.67952e-19 0.772304)
(9.53112 -3.97728e-20 0.935568)
(9.59842 -2.59376e-19 0.897244)
(9.42169 2.07919e-20 1.06864)
(9.49821 1.11554e-19 1.02975)
(9.30192 -2.28592e-20 1.21112)
(9.38808 -2.30537e-20 1.17116)
(9.17195 0 1.36433)
(9.26827 0 1.32283)
(9.0318 0 1.52967)
(9.13887 0 1.48613)
(8.88139 0 1.70866)
(8.99998 -2.03157e-19 1.66258)
(8.72062 4.3777e-19 1.90293)
(8.85141 2.07895e-19 1.85379)
(8.54934 -4.15585e-20 2.11429)
(8.69314 8.36904e-19 2.06152)
(8.36724 -4.55721e-19 2.34462)
(8.52525 -1.33309e-18 2.28769)
(8.17371 2.27656e-21 2.59601)
(8.34719 -9.69318e-22 2.53439)
(7.96794 1.20285e-20 2.87097)
(8.1583 9.59766e-19 2.80405)
(7.7488 1.03061e-18 3.17245)
(7.95791 6.2319e-21 3.09958)
(7.51471 -3.42162e-20 3.50403)
(7.74458 5.25589e-19 3.42441)
(7.26306 -1.01791e-18 3.86967)
(7.51693 -1.02798e-18 3.78294)
(6.9898 0 4.2734)
(7.27208 -9.75173e-19 4.17973)
(6.68927 0 4.72014)
(7.00517 2.03773e-18 4.61988)
(6.35321 1.16732e-18 5.21551)
(6.71002 -2.05738e-18 5.11017)
(5.9688 1.11173e-18 5.7638)
(6.37718 3.16671e-18 5.65807)
(5.51665 -1.17224e-18 6.36463)
(5.99054 -1.08731e-18 6.2694)
(4.9685 -1.1112e-18 7.00992)
(5.52781 -1.1906e-18 6.94453)
(4.28054 -2.42126e-18 7.6673)
(4.93612 6.35817e-20 7.68027)
(3.39213 3.03867e-18 8.23717)
(4.2351 -2.31816e-18 8.41117)
(2.86704 2.76871e-18 9.11043)
(9.98628 -6.7405e-20 0.16587)
(10.0018 -1.44969e-19 0.112473)
(9.95956 2.75573e-22 0.276865)
(9.98068 -8.79448e-21 0.22645)
(9.92061 2.66183e-22 0.387984)
(9.94548 1.27492e-19 0.340345)
(9.87011 0 0.500374)
(9.90154 -3.74869e-20 0.454846)
(9.80877 0 0.615566)
(9.84795 0 0.571277)
(9.73712 1.27553e-19 0.735186)
(9.78444 0 0.691418)
(9.65541 -5.16374e-20 0.860622)
(9.71096 8.42953e-20 0.81686)
(9.56388 -1.02512e-19 0.993135)
(9.6279 -1.7271e-19 0.948859)
(9.46282 6.57525e-20 1.13404)
(9.5357 -1.10584e-19 1.08869)
(9.35249 1.43009e-22 1.28471)
(9.43465 4.33098e-19 1.2377)
(9.2331 0 1.44654)
(9.32507 -3.76083e-19 1.39732)
(9.10473 -2.06002e-19 1.62103)
(9.20711 3.87609e-19 1.56901)
(8.96746 9.95909e-21 1.80977)
(9.0809 -3.77542e-19 1.75434)
(8.82129 6.15124e-19 2.0145)
(8.94649 2.33721e-19 1.95501)
(8.66622 -4.8075e-19 2.23714)
(8.80405 4.31476e-19 2.17283)
(8.50207 -8.63704e-19 2.47977)
(8.65367 -8.71154e-19 2.40991)
(8.32844 9.67406e-19 2.74478)
(8.49504 -2.7993e-21 2.66858)
(8.14472 9.45909e-19 3.035)
(8.32785 9.04526e-19 2.95152)
(7.95005 -4.94773e-19 3.35382)
(8.15162 -5.23298e-21 3.26194)
(7.74302 -4.81555e-19 3.70552)
(7.96535 -4.86363e-19 3.60386)
(7.52161 -9.84532e-19 4.09517)
(7.76813 0 3.98237)
(7.28255 1.08431e-18 4.52829)
(7.55788 -9.48914e-19 4.40325)
(7.02061 -4.55769e-20 5.01195)
(7.33085 2.04432e-18 4.87338)
(6.72791 -2.65609e-20 5.55523)
(7.08189 -2.06444e-18 5.40216)
(6.39188 9.4008e-19 6.16783)
(6.8029 2.01268e-18 6.00152)
(5.99183 -1.10276e-18 6.85784)
(6.47901 -9.30904e-19 6.68487)
(5.49364 1.48422e-21 7.63066)
(6.08817 -1.19025e-19 7.46538)
(4.83782 1.3276e-19 8.47152)
(5.56838 1.78849e-21 8.36193)
(3.93013 -2.13968e-18 9.31032)
(4.9359 6.90403e-20 9.33719)
(3.4135 -2.18716e-18 10.4654)
(9.9873 -8.42477e-20 0.174749)
(10.0026 -1.39668e-22 0.118077)
(9.96242 1.2076e-19 0.291764)
(9.98251 -1.75179e-20 0.237861)
(9.9263 8.69127e-20 0.408941)
(9.94951 1.27267e-19 0.357531)
(9.87961 -3.68766e-20 0.527443)
(9.90909 -1.31027e-22 0.477869)
(9.82299 0 0.648827)
(9.85987 -7.67998e-20 0.600179)
(9.75702 -4.19784e-20 0.774809)
(9.80154 -3.13092e-23 0.726273)
(9.68199 -4.07025e-20 0.90685)
(9.73431 -1.22039e-22 0.857876)
(9.59814 -1.79879e-19 1.04621)
(9.65852 8.50504e-20 0.99627)
(9.50583 2.64627e-19 1.19419)
(9.57463 -3.08238e-19 1.14268)
(9.4054 4.55923e-20 1.35222)
(9.48305 4.33004e-19 1.29849)
(9.29709 2.18623e-20 1.52177)
(9.3841 -5.62801e-19 1.46517)
(9.18107 2.06298e-19 1.70436)
(9.27806 5.78832e-19 1.64426)
(9.05756 -1.46155e-19 1.90167)
(9.16511 -1.9906e-19 1.83733)
(8.92677 5.21083e-20 2.1155)
(9.04551 1.76095e-22 2.04611)
(8.78879 2.62291e-20 2.34785)
(8.91961 2.65592e-20 2.27253)
(8.64365 0 2.60101)
(8.78758 0 2.51881)
(8.49124 -5.74198e-20 2.87759)
(8.64946 0 2.78744)
(8.3313 -5.62677e-20 3.18067)
(8.50535 4.14889e-19 3.08126)
(8.1634 0 3.51404)
(8.35499 -4.50914e-19 3.40376)
(7.98663 0 3.88259)
(8.19824 0 3.75938)
(7.79978 2.95142e-20 4.29214)
(8.03491 -5.73277e-20 4.15368)
(7.60081 2.90682e-20 4.74966)
(7.86386 -8.76571e-20 4.59325)
(7.38596 0 5.26443)
(7.68331 9.33586e-19 5.08662)
(7.14917 0 5.84899)
(7.49046 -8.27618e-19 5.64549)
(6.88037 1.20633e-19 6.5193)
(7.28062 0 6.28587)
(6.56138 6.24938e-20 7.29515)
(7.04434 1.13214e-19 7.02927)
(6.15782 -1.17562e-19 8.20452)
(6.76787 -8.07918e-19 7.90537)
(5.59933 -6.09221e-20 9.27607)
(6.39558 7.21522e-19 8.96853)
(4.7475 -3.08483e-20 10.5672)
(5.97447 9.35181e-20 10.2584)
(4.3014 -1.37148e-18 12.1965)
(9.98839 6.63387e-20 0.182961)
(10.0033 1.33619e-19 0.123206)
(9.96548 -8.56864e-21 0.305554)
(9.98449 -1.71086e-20 0.248378)
(9.9323 3.80164e-20 0.428283)
(9.95382 -8.46342e-20 0.373348)
(9.88957 -4.13571e-20 0.552375)
(9.91701 3.80941e-20 0.498985)
(9.83782 -7.5635e-20 0.679399)
(9.87239 6.68181e-20 0.626655)
(9.77764 4.18392e-20 0.811132)
(9.81939 -7.48506e-20 0.758146)
(9.70943 1.26971e-19 0.949109)
(9.75851 8.04565e-20 0.895273)
(9.6335 -4.9027e-20 1.09458)
(9.69024 8.67136e-20 1.03935)
(9.55024 -1.29418e-19 1.24884)
(9.61499 -9.23758e-20 1.19157)
(9.46003 -1.89328e-19 1.41335)
(9.53319 -4.26691e-20 1.35332)
(9.36319 9.42758e-21 1.58963)
(9.44524 -1.90049e-19 1.52614)
(9.26001 1.63394e-19 1.77924)
(9.35156 2.3903e-19 1.71156)
(9.15083 -5.01317e-20 1.98384)
(9.25244 -2.08912e-19 1.91117)
(9.03599 -2.51007e-20 2.20529)
(9.14827 1.61758e-19 2.12671)
(8.9158 0 2.44569)
(9.03958 3.85866e-19 2.36017)
(8.79054 0 2.70743)
(8.92674 -4.42246e-19 2.6138)
(8.66045 4.77061e-19 2.99328)
(8.81018 0 2.89018)
(8.52568 1.27544e-20 3.30641)
(8.69039 4.81588e-19 3.19227)
(8.38636 -4.47395e-19 3.65095)
(8.56754 -4.60403e-19 3.52362)
(8.24249 -5.78798e-20 4.03212)
(8.44246 0 3.88886)
(8.09394 -1.749e-19 4.45616)
(8.3159 -4.74104e-21 4.29372)
(7.94027 8.25708e-19 4.93102)
(8.18805 4.01525e-20 4.74518)
(7.78022 9.86627e-20 5.46759)
(8.05963 8.48617e-19 5.25253)
(7.6115 -8.22552e-19 6.081)
(7.93141 -1.47739e-18 5.82861)
(7.42997 -5.65129e-21 6.79227)
(7.80447 4.23202e-19 6.49143)
(7.22706 -7.67898e-19 7.6321)
(7.67979 -1.23364e-20 7.26714)
(6.98325 2.61568e-20 8.6535)
(7.56434 -7.69887e-19 8.19676)
(6.64977 8.63677e-19 9.95241)
(7.44681 9.01253e-19 9.36443)
(6.10742 -1.23402e-18 12.0468)
(7.64518 -1.58611e-20 10.9176)
(7.04767 -1.26861e-18 14.5197)
(0.0713455 -9.39663e-22 -0.0514609)
(0.0438657 -4.85751e-22 -0.0607598)
(0.223207 -1.18709e-21 -0.0748)
(0.147104 1.07353e-22 -0.124033)
(0.392826 -2.23914e-22 -0.0694604)
(0.30314 5.48649e-20 -0.129141)
(0.536671 -7.57938e-22 -0.050858)
(0.456981 -5.30381e-20 -0.104596)
(0.637019 -1.49329e-21 -0.0298001)
(0.582179 -2.40365e-20 -0.0709134)
(0.692229 -7.28707e-22 -0.0115158)
(0.666801 -4.35338e-22 -0.0383015)
(0.709434 5.0636e-21 0.00182704)
(0.711011 2.37712e-20 -0.0117082)
(0.699365 3.07888e-22 0.010131)
(0.721558 1.52624e-20 0.00708742)
(0.672009 -5.05733e-21 0.0144242)
(0.70722 -5.47781e-21 0.0189017)
(0.635264 1.04256e-21 0.0158897)
(0.678185 -7.20731e-21 0.0252483)
(0.594889 -1.05685e-21 0.0156877)
(0.641672 -2.57125e-21 0.0276163)
(0.554099 -1.19484e-21 0.0148733)
(0.602314 -2.33659e-21 0.0277688)
(0.513765 3.63726e-23 0.014178)
(0.562108 -4.97285e-21 0.0273031)
(0.473262 -3.98093e-23 0.0139326)
(0.521062 -1.8056e-21 0.0272242)
(0.431541 9.85442e-23 0.0142622)
(0.478348 9.17292e-22 0.0278116)
(0.387224 -4.39279e-22 0.0152988)
(0.433006 1.60675e-21 0.029271)
(0.338341 -5.15228e-24 0.0170661)
(0.383732 3.48442e-22 0.0319645)
(0.283025 -3.45666e-22 0.0191005)
(0.328853 -3.43342e-22 0.0357865)
(0.221754 0 0.0202593)
(0.267505 -5.83671e-22 0.039203)
(0.159174 0 0.0193493)
(0.201706 5.53391e-22 0.0395906)
(0.102371 0 0.0160261)
(0.13713 -5.22674e-22 0.0355272)
(0.057515 -1.96785e-22 0.0109253)
(0.0801592 0 0.0277323)
(0.0282282 -3.70746e-22 0.00488498)
(0.0351204 -3.58223e-23 0.0178918)
(0.0167489 -1.73574e-22 -0.00185711)
(0.00389507 -5.76614e-23 0.00691291)
(0.0260712 -2.42677e-22 -0.00920345)
(-0.0140947 0 -0.0056198)
(0.05827 -5.29152e-23 -0.016487)
(-0.0187727 -2.48587e-22 -0.0191203)
(0.113514 3.30401e-22 -0.0235682)
(-0.00276882 6.1438e-22 -0.0324406)
(0.193271 1.33607e-22 -0.0309872)
(0.0391076 -1.42907e-23 -0.0463469)
(0.297593 3.81821e-23 -0.0379065)
(0.107583 7.19719e-24 -0.0600286)
(0.215574 -3.82142e-23 -0.0670747)
(0.0843863 4.37888e-22 -0.141647)
(0.0478433 6.23128e-20 -0.145915)
(0.224385 5.44718e-20 -0.192389)
(0.141765 -1.16554e-19 -0.242798)
(0.381083 -7.05862e-21 -0.180555)
(0.28255 1.67107e-19 -0.248415)
(0.519268 -7.68479e-20 -0.139006)
(0.417617 -1.05839e-19 -0.20332)
(0.622504 -1.95847e-20 -0.0906116)
(0.527086 -2.33809e-20 -0.141945)
(0.688489 2.49017e-20 -0.0467118)
(0.602569 1.75397e-21 -0.0825947)
(0.72154 3.40233e-20 -0.0118874)
(0.644658 -1.98827e-21 -0.0333869)
(0.727003 1.02315e-20 0.0129336)
(0.656926 3.15115e-20 0.00400726)
(0.711827 -7.32607e-21 0.0285228)
(0.645076 -1.97671e-20 0.0296248)
(0.683941 -1.08452e-20 0.0366824)
(0.61812 7.16383e-21 0.0443821)