/*--------------------------------*- C++ -*----------------------------------*\
| =========                 |                                                 |
| \\      /  F ield         | OpenFOAM: The Open Source CFD Toolbox           |
|  \\    /   O peration     | Version:  dev                                   |
|   \\  /    A nd           | Web:      www.OpenFOAM.org                      |
|    \\/     M anipulation  |                                                 |
\*---------------------------------------------------------------------------*/
FoamFile
{
    version     2.0;
    format      ascii;
    class       volVectorField;
    location    "0.87";
    object      U;
}
// * * * * * * * * * * * * * * * * * * * * * * * * * * * * * * * * * * * * * //

dimensions      [0 1 -1 0 0 0 0];

internalField   nonuniform List<vector> 
465
(
(5.2828 -7.88051e-20 6.47695)
(5.20435 0 6.38651)
(6.53139 6.90344e-20 6.52998)
(6.49965 -1.29318e-19 6.4613)
(6.45052 0 6.32882)
(6.3816 2.73105e-20 6.13424)
(7.8028 5.34404e-20 6.5596)
(7.78355 5.91994e-20 6.49625)
(7.76745 0 6.37789)
(7.743 3.38885e-20 6.20038)
(7.70421 0 5.96337)
(9.16411 -1.37326e-19 6.62109)
(9.10832 -7.2464e-21 6.52877)
(9.08524 3.20849e-21 6.40282)
(9.07584 -3.263e-20 6.23067)
(9.06662 0 6.00593)
(9.0487 -1.86459e-20 5.72635)
(9.01635 -3.23662e-22 5.39213)
(10.6425 7.35872e-20 6.75881)
(10.526 5.69703e-20 6.60751)
(10.4602 2.09743e-20 6.4454)
(10.4291 0 6.25641)
(10.4171 4.41221e-21 6.02912)
(10.4111 -3.17364e-20 5.75663)
(10.4005 0 5.43578)
(10.3775 -2.65947e-20 5.06625)
(10.3353 -6.37194e-20 4.64994)
(12.166 -3.4387e-20 6.95628)
(12.0167 5.77992e-20 6.74644)
(11.9107 -4.01552e-21 6.53564)
(11.843 -3.60734e-21 6.31214)
(11.8044 -2.6124e-20 6.06498)
(11.7839 2.63801e-20 5.78557)
(11.7702 -1.43652e-20 5.46828)
(11.7533 1.22538e-20 5.1105)
(11.724 1.81455e-20 4.71251)
(11.6739 -2.14343e-20 4.27743)
(13.5986 3.30086e-20 7.14543)
(13.4766 -5.55018e-20 6.90504)
(13.3726 4.82034e-20 6.65914)
(13.2915 -3.49729e-20 6.40301)
(13.2332 2.51392e-20 6.1304)
(13.1932 -1.31795e-20 5.83504)
(13.1644 1.00042e-20 5.51181)
(13.1386 -9.98617e-21 5.15755)
(13.1069 2.84618e-21 4.77152)
(13.0607 0 4.35574)
(12.9918 5.95423e-20 3.91522)
(12.8932 -6.709e-20 3.45815)
(14.8176 -1.26607e-19 7.25467)
(14.7765 1.84747e-19 7.01814)
(14.7273 4.0858e-20 6.76483)
(14.6785 -1.26792e-19 6.49519)
(14.6351 0 6.20783)
(14.5987 -2.29174e-20 5.90037)
(14.5676 2.08214e-20 5.57033)
(14.5378 0 5.216)
(14.5034 -3.80667e-21 4.83712)
(14.458 -5.4907e-21 4.43549)
(14.3948 2.48926e-20 4.0153)
(14.3077 -1.45588e-20 3.58336)
(14.192 -6.25394e-20 3.14895)
(15.7571 -3.56733e-20 7.24051)
(15.8235 -1.37713e-19 7.03337)
(15.865 1.70204e-20 6.79852)
(15.8885 1.30298e-19 6.53876)
(15.9 -2.23089e-20 6.25568)
(15.9032 7.86802e-20 5.94999)
(15.8998 0 5.62198)
(15.8895 0 5.2721)
(15.8699 -1.15932e-21 4.90152)
(15.8377 5.24501e-22 4.51271)
(15.7888 9.4931e-21 4.10977)
(15.7191 -9.40662e-21 3.69871)
(15.6254 -2.35509e-20 3.28735)
(15.5063 0 2.88483)
(15.3622 2.89375e-20 2.50083)
(16.4094 3.46338e-20 7.09266)
(16.5825 2.15351e-21 6.92722)
(16.7248 0 6.72693)
(16.8398 0 6.49481)
(16.9314 -9.88277e-20 6.23352)
(17.0028 6.41357e-20 5.94535)
(17.0563 0 5.63236)
(17.0931 0 5.29671)
(17.1131 0 4.94099)
(17.1154 -4.4164e-22 4.56858)
(17.0982 7.17195e-22 4.18395)
(17.0598 0 3.79285)
(16.9988 4.27905e-20 3.40225)
(16.9149 -1.99272e-20 3.02)
(16.8091 -2.00319e-20 2.65437)
(16.6842 1.20043e-20 2.31329)
(16.8077 -3.09274e-19 6.82601)
(17.0678 -3.12761e-20 6.70315)
(17.2998 -1.04992e-19 6.54286)
(17.5037 1.4694e-20 6.34722)
(17.6802 1.60518e-19 6.11862)
(17.8308 -1.30503e-19 5.85963)
(17.9565 5.76243e-20 5.57298)
(18.0585 -2.15936e-20 5.26169)
(18.137 2.05892e-20 4.92916)
(18.1922 -2.03562e-20 4.57945)
(18.2237 -2.64193e-21 4.21738)
(18.2313 -2.93231e-21 3.84863)
(18.215 -8.40987e-21 3.47972)
(18.1753 2.28712e-21 3.11777)
(18.114 -1.92058e-20 2.77012)
(18.0336 0 2.4439)
(17.9376 0 2.14558)
(17.83 3.3588e-20 1.88064)
(17.0056 -3.87528e-20 6.46953)
(17.325 0 6.38276)
(17.6234 -3.07028e-20 6.25978)
(17.8983 1.92246e-19 6.10139)
(18.148 -1.89262e-19 5.90905)
(18.3717 -2.79746e-20 5.68482)
(18.5688 9.8783e-20 5.43125)
(18.739 -2.0836e-20 5.15141)
(18.8823 4.12714e-20 4.84892)
(18.9985 0 4.52801)
(19.0877 1.22823e-20 4.19357)
(19.1499 -2.54742e-20 3.85117)
(19.1858 3.55576e-21 3.507)
(19.1964 7.00522e-21 3.16767)
(19.1835 0 2.83997)
(19.1497 0 2.53054)
(19.0982 1.27247e-20 2.24558)
(19.0323 8.91034e-21 1.99068)
(18.9556 -7.34651e-21 1.77087)
(17.0611 3.79314e-20 6.05591)
(17.412 -2.66295e-19 5.9957)
(17.7502 2.91639e-19 5.90287)
(18.0718 0 5.77711)
(18.3737 -1.28276e-19 5.61891)
(18.6533 -5.71841e-20 5.42947)
(18.9084 1.53848e-19 5.21075)
(19.1376 0 4.96537)
(19.3395 0 4.69664)
(19.5134 -3.99228e-20 4.40853)
(19.6587 0 4.10569)
(19.7754 -1.74994e-21 3.79339)
(19.8639 2.3116e-20 3.47741)
(19.9251 -1.48164e-20 3.16394)
(19.9606 -9.27195e-21 2.85931)
(19.9727 3.25174e-23 2.56982)
(19.9642 -1.44974e-20 2.30147)
(19.9381 -1.55354e-20 2.05991)
(19.8978 1.48946e-20 1.85041)
(19.8472 0 1.67816)
(17.025 0 5.61403)
(17.3851 0 5.57118)
(17.7394 0 5.50022)
(18.084 -2.97529e-20 5.40017)
(18.4151 -4.86828e-20 5.27077)
(18.7292 -4.36191e-21 5.11249)
(19.0233 -7.61281e-20 4.92657)
(19.2947 -8.48561e-20 4.71498)
(19.5412 2.16118e-19 4.48046)
(19.7611 -1.85295e-20 4.22645)
(19.9531 -3.91106e-20 3.9571)
(20.1166 0 3.67718)
(20.2513 0 3.39196)
(20.3578 9.79716e-21 3.10712)
(20.4372 5.38946e-21 2.82855)
(20.4912 2.10599e-21 2.56216)
(20.5222 5.58659e-21 2.31373)
(20.533 2.78266e-21 2.0888)
(20.5266 -3.54723e-21 1.89268)
(20.5071 -1.0661e-23 1.73058)
(20.4698 -1.01727e-22 1.60696)
(16.9355 0 5.16498)
(17.2897 2.83406e-19 5.13255)
(17.643 -5.6236e-20 5.07635)
(17.9918 7.23584e-21 4.99521)
(18.3325 -2.25783e-19 4.88848)
(18.6614 4.54607e-20 4.75613)
(18.9752 -4.039e-21 4.59883)
(19.2706 -3.3801e-20 4.41795)
(19.5448 -3.27397e-20 4.21559)
(19.7954 -5.57501e-20 3.99458)
(20.0205 0 3.75844)
(20.2188 0 3.51131)
(20.3893 -3.13347e-20 3.25785)
(20.5322 -2.48986e-20 3.00316)
(20.6477 1.93269e-20 2.75259)
(20.7373 0 2.51159)
(20.8026 -5.43363e-21 2.28558)
(20.8461 0 2.07986)
(20.8709 -9.65492e-21 1.89951)
(20.8805 0 1.74947)
(20.8776 -1.85098e-21 1.63385)
(16.8177 3.36026e-19 4.72156)
(17.1579 -2.89327e-19 4.69521)
(17.4999 3.17527e-19 4.64884)
(17.8407 3.17736e-20 4.58132)
(18.1772 -1.56719e-19 4.49193)
(18.5061 2.10647e-19 4.38039)
(18.8241 -1.25988e-19 4.24703)
(19.1279 1.65948e-19 4.09276)
(19.4145 6.77982e-20 3.91916)
(19.6811 5.454e-20 3.72847)
(19.9255 0 3.52358)
(20.1458 0 3.30798)
(20.3408 3.06046e-20 3.08568)
(20.5097 -7.83806e-22 2.86114)
(20.6526 -3.86406e-20 2.63909)
(20.7702 1.94837e-20 2.42445)
(20.8638 3.90622e-21 2.22216)
(20.9355 1.10042e-20 2.03708)
(20.9879 9.39646e-21 1.87392)
(21.0245 6.20766e-22 1.73717)
(21.0543 1.1862e-21 1.63041)
(16.6866 3.18445e-19 4.28998)
(17.0094 -3.50897e-19 4.26746)
(17.3353 -3.53763e-20 4.22799)
(17.6619 -3.11538e-20 4.17062)
(17.9865 -5.64093e-20 4.09468)
(18.3062 1.99931e-19 3.99986)
(18.6182 -1.96628e-19 3.8863)
(18.9195 1.58074e-19 3.75464)
(19.2071 -1.52433e-19 3.60606)
(19.4783 0 3.44235)
(19.7308 0 3.26583)
(19.9624 0 3.0794)
(20.1716 0 2.88644)
(20.3574 0 2.69075)
(20.5194 -2.37757e-22 2.49644)
(20.658 2.42564e-20 2.30782)
(20.7739 -1.07298e-20 2.12926)
(20.8689 1.46012e-20 1.96511)
(20.9453 3.49933e-21 1.81956)
(21.0063 -3.46457e-21 1.69657)
(21.0667 -4.5931e-21 1.59918)
(16.5502 0 3.87225)
(16.8554 -2.58519e-19 3.85255)
(17.164 3.25426e-19 3.81845)
(17.4741 3.28975e-20 3.76917)
(17.7835 2.28277e-19 3.70415)
(18.0899 -1.74594e-20 3.62313)
(18.3907 -1.53585e-19 3.52618)
(18.6833 0 3.41377)
(18.9651 -3.74398e-20 3.28685)
(19.2336 0 3.14681)
(19.4865 -1.13068e-19 2.99555)
(19.7218 1.11471e-19 2.83545)
(19.9378 -1.29767e-19 2.66932)
(20.1334 8.17326e-20 2.50036)
(20.308 -2.85383e-20 2.33206)
(20.4615 2.81929e-20 2.16812)
(20.5947 -1.82446e-20 2.01232)
(20.7087 1.65183e-20 1.86844)
(20.8056 0 1.74012)
(20.888 1.14569e-21 1.63075)
(20.9763 8.95807e-21 1.54289)
(16.4134 0 3.46813)
(16.7019 0 3.45086)
(16.9938 -2.75271e-19 3.42134)
(17.2876 2.38092e-19 3.37896)
(17.5814 0 3.32327)
(17.8733 0 3.25405)
(18.1611 1.43302e-19 3.17137)
(18.4426 -4.08346e-19 3.07561)
(18.7154 2.11934e-19 2.96753)
(18.9775 0 2.84825)
(19.2267 0 2.71932)
(19.4612 -2.89432e-20 2.58271)
(19.6793 4.59409e-20 2.44072)
(19.88 7.63612e-20 2.29602)
(20.0626 -3.90294e-20 2.15153)
(20.2268 -3.00113e-20 2.01037)
(20.3731 0 1.87576)
(20.5024 -1.61257e-20 1.7509)
(20.6166 0 1.6389)
(20.7176 1.33692e-21 1.54261)
(20.8304 -1.32161e-20 1.46419)
(16.2793 -3.34174e-19 3.07647)
(16.5526 0 3.06146)
(16.8292 -2.76213e-19 3.03608)
(17.1079 5.60044e-19 2.99984)
(17.3871 -2.2025e-19 2.95238)
(17.6651 0 2.89356)
(17.94 -5.18411e-20 2.82341)
(18.21 4.53182e-20 2.74227)
(18.4732 -8.34842e-20 2.65076)
(18.7275 -1.42724e-19 2.54979)
(18.9713 1.06363e-19 2.44064)
(19.2028 2.83289e-20 2.3249)
(19.4206 0 2.20448)
(19.6237 0 2.08158)
(19.8113 3.13651e-21 1.95862)
(19.9832 3.34333e-20 1.83818)
(20.1396 1.74703e-21 1.72297)
(20.2814 0 1.61566)
(20.4099 -1.43615e-20 1.51884)
(20.5268 0 1.43492)
(20.6609 2.73906e-21 1.36569)
(16.1504 3.31258e-19 2.69564)
(16.4101 0 2.68276)
(16.6731 0 2.66118)
(16.9383 2.5673e-19 2.6305)
(17.2043 -2.81712e-19 2.59045)
(17.4696 0 2.54091)
(17.7328 5.07774e-20 2.48193)
(17.9921 0 2.41379)
(18.2459 4.18135e-20 2.33697)
(18.4926 -1.07543e-19 2.25226)
(18.7305 1.77918e-19 2.16069)
(18.9584 0 2.06354)
(19.1748 -7.27836e-20 1.96238)
(19.3788 1.27678e-20 1.859)
(19.5697 -2.96589e-20 1.75539)
(19.7473 3.80346e-20 1.65369)
(19.9118 4.89284e-20 1.55609)
(20.0636 -2.11385e-21 1.46483)
(20.2039 1.40174e-20 1.38205)
(20.3341 1.60173e-21 1.30971)
(20.4863 1.85906e-21 1.24935)
(16.029 -2.93732e-19 2.32414)
(16.2768 2.89148e-19 2.31329)
(16.5278 -1.77182e-20 2.29523)
(16.7811 5.22444e-22 2.26964)
(17.0355 0 2.23631)
(17.2897 0 2.19515)
(17.5424 0 2.1462)
(17.7922 0 2.0897)
(18.0376 4.37845e-20 2.02606)
(18.2772 1.30667e-21 1.95589)
(18.5097 0 1.88003)
(18.7338 0 1.79952)
(18.9484 -5.46647e-20 1.71564)
(19.1526 -2.43076e-20 1.62982)
(19.3459 3.9491e-20 1.54367)
(19.5278 -1.94539e-21 1.45892)
(19.6986 -5.92584e-21 1.37738)
(19.8585 -6.70397e-20 1.30084)
(20.0087 -6.28978e-21 1.23106)
(20.1499 7.897e-21 1.16963)
(20.3173 -1.66147e-21 1.11785)
(15.917 -3.62901e-19 1.95954)
(16.1546 1.85219e-20 1.9506)
(16.3953 -2.55172e-19 1.93578)
(16.6384 2.68043e-19 1.91485)
(16.8828 2.35906e-19 1.88762)
(17.1274 -2.0347e-19 1.85405)
(17.371 2.61576e-20 1.81416)
(17.6125 0 1.76815)
(17.8506 -6.47979e-20 1.71634)
(18.084 1.11983e-19 1.65924)
(18.3116 -2.83448e-19 1.5975)
(18.5323 1.00939e-19 1.53195)
(18.7451 2.73265e-20 1.4636)
(18.9491 2.37663e-20 1.39361)
(19.144 2.11865e-20 1.32324)
(19.3293 1.7788e-20 1.25389)
(19.505 2.89776e-20 1.18698)
(19.6716 -1.06564e-21 1.12396)
(19.8296 0 1.06623)
(19.98 1.74401e-21 1.01508)
(20.1598 2.31499e-21 0.971568)
(15.8164 -1.25415e-22 1.60137)
(16.0453 1.84391e-20 1.59424)
(16.2773 2.52257e-19 1.58245)
(16.5118 -2.96825e-19 1.56582)
(16.7477 3.02455e-20 1.54423)
(16.9842 -2.77224e-20 1.51761)
(17.2203 -2.51495e-19 1.48601)
(17.4547 3.55933e-19 1.44958)
(17.6866 -1.36916e-19 1.40856)
(17.9147 1.51204e-19 1.36336)
(18.1381 -1.30505e-20 1.31447)
(18.3558 1.84099e-20 1.26256)
(18.5668 -1.189e-19 1.20839)
(18.7706 -2.11087e-20 1.15287)
(18.9666 -1.44875e-20 1.09698)
(19.1544 2.11498e-20 1.04179)
(19.3341 -2.83062e-20 0.988437)
(19.5058 2.20268e-20 0.938035)
(19.6703 8.25876e-21 0.891676)
(19.828 -1.7813e-21 0.850363)
(20.018 -2.18024e-21 0.814938)
(15.729 1.9145e-20 1.24433)
(15.9508 2.65393e-19 1.23885)
(16.1757 -2.61328e-19 1.22983)
(16.4031 0 1.21713)
(16.6322 -2.95853e-20 1.20067)
(16.862 0 1.18041)
(17.0918 5.1136e-20 1.15637)
(17.3206 -1.58714e-19 1.12867)
(17.5473 1.316e-20 1.09751)
(17.7711 1.28176e-20 1.06316)
(17.991 1.48314e-19 1.02602)
(18.2061 0 0.986562)
(18.4157 -5.3165e-20 0.945374)
(18.619 9.90564e-20 0.903121)
(18.8157 -8.47433e-20 0.860546)
(19.0054 7.13219e-20 0.818451)
(19.1881 -3.21409e-20 0.777677)
(19.3639 9.83917e-21 0.739072)
(19.5333 -1.77663e-20 0.703457)
(19.6968 0 0.67159)
(19.8943 -2.05486e-21 0.644139)
(15.6559 1.385e-19 0.89317)
(15.8721 -2.84567e-19 0.889358)
(16.0915 1.45198e-19 0.883055)
(16.3134 -1.22465e-19 0.874165)
(16.5371 1.34988e-19 0.862624)
(16.7619 -1.19702e-19 0.848408)
(16.9868 7.90544e-20 0.831539)
(17.2111 -1.16942e-20 0.812092)
(17.4339 -2.12321e-20 0.790202)
(17.6543 -1.95543e-20 0.766067)
(17.8714 8.50103e-20 0.739955)
(18.0845 -6.21452e-21 0.7122)
(18.2929 -5.91219e-20 0.683204)
(18.4959 3.40463e-20 0.653429)
(18.6931 -1.67337e-20 0.623394)
(18.8842 -3.86417e-20 0.593659)
(19.0691 -7.3231e-21 0.564812)
(19.248 -5.71601e-21 0.537455)
(19.4212 0 0.512176)
(19.5891 -5.14399e-21 0.489516)
(19.7929 2.00553e-21 0.469941)
(15.5989 -1.41365e-19 0.531404)
(15.811 0 0.528964)
(16.0263 -8.19141e-21 0.52504)
(16.2442 1.20258e-19 0.51958)
(16.464 -1.32489e-19 0.512549)
(16.685 1.33684e-20 0.503932)
(16.9064 -9.64298e-20 0.493746)
(17.1274 1.06228e-19 0.482035)
(17.3472 0 0.468881)
(17.565 2.87362e-20 0.454401)
(17.7801 -1.72903e-20 0.438753)
(17.9916 -5.15061e-20 0.422135)
(18.1989 7.7639e-20 0.404784)
(18.4014 -2.11639e-20 0.386974)
(18.5988 -1.72813e-20 0.36901)
(18.7906 -4.42646e-21 0.351228)
(18.9769 3.53453e-21 0.333985)
(19.1578 1.04655e-20 0.317656)
(19.3334 -4.81315e-21 0.30264)
(19.5042 5.91401e-21 0.289379)
(19.7112 -8.76935e-22 0.278497)
(15.3329 -3.69634e-20 0.18373)
(15.5402 3.35664e-20 0.182941)
(15.7505 -6.4507e-20 0.181611)
(15.9632 3.09841e-20 0.179718)
(16.1776 0 0.177248)
(16.393 -2.56428e-20 0.174195)
(16.6088 2.5202e-20 0.170564)
(16.8239 2.18419e-20 0.166368)
(17.0378 -2.14785e-20 0.161635)
(17.2494 -9.42944e-21 0.156405)
(17.4581 1.63812e-20 0.150734)
(17.6632 -2.37846e-20 0.144689)
(17.8638 6.80393e-21 0.138355)
(18.0595 5.96404e-21 0.131826)
(18.2498 1.473e-20 0.125212)
(18.4344 -5.11222e-21 0.118631)
(18.6131 3.54475e-21 0.112213)
(18.7862 -2.414e-21 0.106101)
(18.9539 4.0229e-21 0.100467)
(19.1168 -1.18049e-21 0.095547)
(19.3151 -4.32488e-22 0.0918927)
)
;

boundaryField
{
    inlet
    {
        type            fixedValue;
        value           nonuniform 0();
    }
    outlet
    {
        type            zeroGradient;
    }
    flap
    {
        type            movingWallVelocity;
        value           nonuniform 0();
    }
    upperWall
    {
        type            noSlip;
    }
    lowerWall
    {
        type            noSlip;
    }
    frontAndBack
    {
        type            empty;
    }
    procBoundary2to1
    {
        type            processor;
        value           nonuniform List<vector> 
17
(
(16.6684 3.50851e-19 6.52011)
(16.7016 3.55688e-19 6.08463)
(16.6632 0 5.63035)
(16.5837 -3.3946e-19 5.17526)
(16.482 2.98484e-19 4.7293)
(16.3688 3.84304e-19 4.29672)
(16.2502 -3.83355e-19 3.87848)
(16.1299 -3.20934e-19 3.47391)
(16.0107 -6.96322e-19 3.08174)
(15.8951 6.89475e-19 2.70031)
(15.7853 2.13698e-20 2.32817)
(15.6834 -3.50401e-19 1.96293)
(15.5914 -1.03593e-20 1.60409)
(15.511 1.01328e-20 1.24646)
(15.4434 -1.62282e-19 0.894614)
(15.3904 -3.12363e-19 0.532434)
(15.1292 -3.76644e-20 0.184005)
)
;
    }
    procBoundary2to4
    {
        type            processor;
        value           nonuniform List<vector> 
11
(
(5.33545 -8.68677e-20 6.50207)
(6.55299 9.59614e-20 6.53568)
(7.84479 0 6.57897)
(9.27631 0 6.70022)
(10.8226 3.75598e-20 6.91847)
(12.3559 -3.99089e-20 7.17531)
(13.7276 -6.79969e-20 7.38199)
(14.8392 -3.82623e-20 7.47155)
(15.6582 0 7.41589)
(16.2027 4.13122e-20 7.22001)
(16.5203 -3.12904e-19 6.90985)
)
;
    }
    procBoundary2to5
    {
        type            processor;
        value           nonuniform List<vector> 
34
(
(4.02379 -2.3246e-19 6.37476)
(3.88696 2.82628e-19 6.26118)
(5.10137 -5.64833e-20 6.23339)
(5.10137 -5.64833e-20 6.23339)
(4.97627 -4.16782e-20 6.02059)
(6.29297 1.25961e-20 5.87999)
(6.29297 1.25961e-20 5.87999)
(7.64834 1.63278e-20 5.66824)
(7.64834 1.63278e-20 5.66824)
(7.57422 -6.26622e-21 5.31698)
(8.96572 -1.69617e-20 5.005)
(8.96572 -1.69617e-20 5.005)
(8.89364 -7.45261e-20 4.56775)
(10.2683 -5.07562e-20 4.19097)
(10.2683 -5.07562e-20 4.19097)
(11.5957 1.00532e-19 3.81142)
(11.5957 1.00532e-19 3.81142)
(11.4822 -3.52439e-20 3.32415)
(12.7595 8.20899e-21 2.99581)
(12.7595 8.20899e-21 2.99581)
(14.0452 -1.98274e-20 2.72315)
(14.0452 -1.98274e-20 2.72315)
(13.8675 -7.22096e-21 2.31764)
(15.1959 1.543e-20 2.14457)
(15.1959 1.543e-20 2.14457)
(16.544 -9.06531e-20 2.00372)
(16.544 -9.06531e-20 2.00372)
(16.3933 -3.07473e-22 1.73109)
(17.7148 2.67753e-20 1.6536)
(17.7148 2.67753e-20 1.6536)
(18.8721 -1.39794e-20 1.59089)
(18.8721 -1.39794e-20 1.59089)
(19.7742 0 1.5477)
(19.7742 0 1.5477)
)
;
    }
}


// ************************************************************************* //
