/*--------------------------------*- C++ -*----------------------------------*\
| =========                 |                                                 |
| \\      /  F ield         | OpenFOAM: The Open Source CFD Toolbox           |
|  \\    /   O peration     | Version:  dev                                   |
|   \\  /    A nd           | Web:      www.OpenFOAM.org                      |
|    \\/     M anipulation  |                                                 |
\*---------------------------------------------------------------------------*/
FoamFile
{
    version     2.0;
    format      ascii;
    class       volVectorField;
    location    "0.36";
    object      Force;
}
// * * * * * * * * * * * * * * * * * * * * * * * * * * * * * * * * * * * * * //

dimensions      [1 1 -2 0 0 0 0];

internalField   uniform (0 0 0);

boundaryField
{
    inlet
    {
        type            calculated;
        value           nonuniform 0();
    }
    outlet
    {
        type            calculated;
        value           nonuniform 0();
    }
    flap
    {
        type            calculated;
        value           nonuniform List<vector> 
33
(
(2.41425 1.74929e-17 -0.0706101)
(2.39976 -4.79124e-23 -0.139968)
(2.38339 -9.89059e-23 -0.194292)
(2.36137 -1.59543e-18 -0.222855)
(2.33343 0 -0.228376)
(2.29953 3.82036e-38 -0.213805)
(2.25961 1.54959e-18 -0.184406)
(2.21295 1.58416e-17 -0.146292)
(2.15568 9.18355e-41 -0.105375)
(2.08156 -7.12974e-19 -0.0668951)
(1.9803 3.38677e-19 -0.0347189)
(1.83582 1.61741e-17 -0.011274)
(1.61896 1.61283e-17 0.00259668)
(1.26607 2.88579e-23 0.00874986)
(0.59743 -1.62849e-17 0.00911746)
(0.0020296 8.00979e-18 1.51824)
(-0.00534658 -5.9597e-24 1.31345)
(-0.000554975 -3.54706e-22 1.03747)
(1.36135 -4.75293e-19 -0.0403233)
(1.36821 9.48821e-19 -0.0797968)
(1.38039 -9.51264e-19 -0.112329)
(1.40357 1.60311e-17 -0.131886)
(1.43977 1.72801e-17 -0.14011)
(1.48905 0 -0.137528)
(1.54824 0 -0.125429)
(1.61063 -3.29883e-22 -0.105592)
(1.66834 5.59188e-19 -0.0807451)
(1.71301 1.67662e-17 -0.0545114)
(1.73894 -1.55488e-23 -0.0305281)
(1.74377 1.65931e-17 -0.0117465)
(1.72873 1.64506e-17 0.000227737)
(1.6986 1.63965e-17 0.0059372)
(1.6597 1.63382e-17 0.00573669)
)
;
    }
    upperWall
    {
        type            calculated;
        value           nonuniform 0();
    }
    lowerWall
    {
        type            calculated;
        value           uniform (0 0 0);
    }
    frontAndBack
    {
        type            empty;
    }
    procBoundary4to1
    {
        type            processor;
        value           uniform (0 0 0);
    }
    procBoundary4to2
    {
        type            processor;
        value           uniform (0 0 0);
    }
    procBoundary4to3
    {
        type            processor;
        value           uniform (0 0 0);
    }
    procBoundary4to5
    {
        type            processor;
        value           uniform (0 0 0);
    }
}


// ************************************************************************* //
