/*--------------------------------*- C++ -*----------------------------------*\
| =========                 |                                                 |
| \\      /  F ield         | OpenFOAM: The Open Source CFD Toolbox           |
|  \\    /   O peration     | Version:  dev                                   |
|   \\  /    A nd           | Web:      www.OpenFOAM.org                      |
|    \\/     M anipulation  |                                                 |
\*---------------------------------------------------------------------------*/
FoamFile
{
    version     2.0;
    format      ascii;
    class       volVectorField;
    location    "0.48";
    object      cellDisplacement;
}
// * * * * * * * * * * * * * * * * * * * * * * * * * * * * * * * * * * * * * //

dimensions      [0 1 0 0 0 0 0];

internalField   nonuniform List<vector> 
2790
(
(0.00387033 0 -4.41723e-07)
(0.011115 0 -1.22698e-06)
(0.017433 0 -1.79324e-06)
(0.0228973 0 -2.08899e-06)
(0.0275801 0 -2.06455e-06)
(0.031547 0 -1.665e-06)
(0.034856 0 -8.25331e-07)
(0.037559 0 5.33801e-07)
(0.0397014 0 2.51027e-06)
(0.0413231 0 5.22501e-06)
(0.0424588 0 8.82695e-06)
(0.0431383 0 1.34985e-05)
(0.043387 0 1.94616e-05)
(0.0432265 0 2.69886e-05)
(0.0426753 0 3.64167e-05)
(0.0417489 0 4.8148e-05)
(0.0404606 0 6.27018e-05)
(0.0388229 0 8.07159e-05)
(0.0368475 0 0.000102981)
(0.034547 0 0.000130483)
(0.031936 0 0.000164462)
(0.0290331 0 0.000206487)
(0.0258639 0 0.000258547)
(0.0224642 0 0.000323175)
(0.0188855 0 0.000403577)
(0.0152036 0 0.000503696)
(0.0115318 0 0.00062796)
(0.00804515 0 0.000779908)
(0.00504172 0 0.000957325)
(0.00317051 0 0.00113146)
(0.00387369 0 -1.33638e-06)
(0.0111252 0 -3.71466e-06)
(0.0174503 0 -5.43726e-06)
(0.0229222 0 -6.35166e-06)
(0.0276135 0 -6.31098e-06)
(0.03159 0 -5.15281e-06)
(0.0349101 0 -2.68489e-06)
(0.0376259 0 1.32732e-06)
(0.0397832 0 7.17299e-06)
(0.0414224 0 1.52092e-05)
(0.0425785 0 2.58755e-05)
(0.043282 0 3.97097e-05)
(0.0435589 0 5.73645e-05)
(0.0434316 0 7.96375e-05)
(0.0429196 0 0.000107523)
(0.0420391 0 0.000142179)
(0.040805 0 0.000185127)
(0.039231 0 0.000238213)
(0.0373309 0 0.000303714)
(0.0351192 0 0.000384452)
(0.0326133 0 0.000483941)
(0.0298352 0 0.000606567)
(0.0268145 0 0.000757801)
(0.0235926 0 0.000944445)
(0.0202283 0 0.0011748)
(0.0168085 0 0.00145852)
(0.013467 0 0.00180511)
(0.0104041 0 0.00221787)
(0.00794014 0 0.00267818)
(0.0066659 0 0.00309024)
(0.00388038 0 -2.26418e-06)
(0.0111454 0 -6.302e-06)
(0.0174845 0 -9.25121e-06)
(0.0229714 0 -1.08647e-05)
(0.0276796 0 -1.09047e-05)
(0.031675 0 -9.10848e-06)
(0.035017 0 -5.16491e-06)
(0.0377581 0 1.30511e-06)
(0.039945 0 1.07684e-05)
(0.0416187 0 2.38009e-05)
(0.0428153 0 4.11108e-05)
(0.0435664 0 6.35637e-05)
(0.0438994 0 9.22018e-05)
(0.0438374 0 0.000128287)
(0.0434031 0 0.000173434)
(0.0426134 0 0.000229387)
(0.0414861 0 0.000298577)
(0.0400378 0 0.000383863)
(0.0382857 0 0.000488725)
(0.0362484 0 0.000617422)
(0.0339484 0 0.000775148)
(0.0314136 0 0.00096822)
(0.0286812 0 0.00120422)
(0.0258015 0 0.00149207)
(0.0228439 0 0.00184178)
(0.0199056 0 0.00226343)
(0.0171491 0 0.00276463)
(0.0147891 0 0.00333634)
(0.0131212 0 0.00393227)
(0.0125841 0 0.00440725)
(0.00389041 0 -3.2457e-06)
(0.0111756 0 -9.05085e-06)
(0.0175355 0 -1.33407e-05)
(0.0230448 0 -1.57843e-05)
(0.0277778 0 -1.60634e-05)
(0.0318014 0 -1.38267e-05)
(0.0351757 0 -8.65836e-06)
(0.0379544 0 -5.2308e-08)
(0.0401849 0 1.26135e-05)
(0.0419096 0 3.01044e-05)
(0.0431659 0 5.33611e-05)
(0.043987 0 8.35333e-05)
(0.0444027 0 0.000121989)
(0.0444364 0 0.000170325)
(0.0441129 0 0.000230507)
(0.0434551 0 0.000304945)
(0.0424827 0 0.000396709)
(0.0412162 0 0.000509321)
(0.0396773 0 0.000647031)
(0.0378904 0 0.000814914)
(0.0358843 0 0.00101898)
(0.0336948 0 0.00126621)
(0.0313686 0 0.00156451)
(0.0289673 0 0.00192227)
(0.0265735 0 0.00234743)
(0.0242898 0 0.00284669)
(0.0222703 0 0.00341704)
(0.0207449 0 0.00403272)
(0.0199377 0 0.00462451)
(0.0200981 0 0.00503683)
(0.0039037 0 -4.29963e-06)
(0.0112155 0 -1.20174e-05)
(0.0176028 0 -1.7802e-05)
(0.0231415 0 -2.12529e-05)
(0.027907 0 -2.19863e-05)
(0.0319675 0 -1.95781e-05)
(0.0353841 0 -1.35269e-05)
(0.0382118 0 -3.22351e-06)
(0.0404993 0 1.20785e-05)
(0.0422905 0 3.32945e-05)
(0.0436242 0 6.15464e-05)
(0.044536 0 9.82156e-05)
(0.0450567 0 0.000144813)
(0.0452136 0 0.000203151)
(0.0450333 0 0.000275546)
(0.0445441 0 0.000364865)
(0.0437694 0 0.000474388)
(0.042734 0 0.000607966)
(0.041465 0 0.000770101)
(0.0399927 0 0.000965981)
(0.038353 0 0.00120145)
(0.0365895 0 0.00148289)
(0.0347576 0 0.00181676)
(0.032928 0 0.00220878)
(0.0311909 0 0.00266236)
(0.0296593 0 0.00317566)
(0.0284551 0 0.00373479)
(0.0277743 0 0.00430088)
(0.0277558 0 0.00479569)
(0.0284638 0 0.0050875)
(0.00392013 0 -5.44227e-06)
(0.0112648 0 -1.52508e-05)
(0.0176856 0 -2.27191e-05)
(0.0232602 0 -2.73955e-05)
(0.0280655 0 -2.88483e-05)
(0.0321709 0 -2.66003e-05)
(0.0356391 0 -2.00878e-05)
(0.0385264 0 -8.62749e-06)
(0.0408831 0 8.61429e-06)
(0.0427546 0 3.26539e-05)
(0.0441819 0 6.47274e-05)
(0.0452022 0 0.00010634)
(0.0458466 0 0.000159091)
(0.0461519 0 0.000224974)
(0.0461457 0 0.000306451)
(0.0458581 0 0.000406436)
(0.0453183 0 0.000528241)
(0.0445561 0 0.000675644)
(0.0436039 0 0.000852888)
(0.0424985 0 0.00106459)
(0.041282 0 0.00131556)
(0.0400041 0 0.00161044)
(0.0387258 0 0.00195289)
(0.0375217 0 0.00234437)
(0.036481 0 0.0027821)
(0.0357072 0 0.00325576)
(0.0353108 0 0.00374309)
(0.0353977 0 0.004199)
(0.0360182 0 0.00455337)
(0.0370882 0 0.00471661)
(0.0039395 0 -6.68714e-06)
(0.0113227 0 -1.87916e-05)
(0.0177828 0 -2.81618e-05)
(0.0233993 0 -3.43156e-05)
(0.0282509 0 -3.6794e-05)
(0.0324086 0 -3.50893e-05)
(0.0359366 0 -2.86018e-05)
(0.0388929 0 -1.66067e-05)
(0.0413295 0 1.77591e-06)
(0.0432938 0 2.76099e-05)
(0.0448287 0 6.21731e-05)
(0.0459732 0 0.000106983)
(0.0467621 0 0.000163785)
(0.0472341 0 0.000234516)
(0.0474249 0 0.000321482)
(0.0473648 0 0.000427551)
(0.0470894 0 0.00055576)
(0.0466321 0 0.000709457)
(0.0460313 0 0.000892184)
(0.0453293 0 0.00110744)
(0.0445731 0 0.00135833)
(0.0438155 0 0.00164708)
(0.0431191 0 0.00197389)
(0.0425566 0 0.00233549)
(0.0422062 0 0.00272325)
(0.0421513 0 0.00312056)
(0.0424805 0 0.00349918)
(0.0431984 0 0.00381789)
(0.0442767 0 0.00402495)
(0.045533 0 0.00407629)
(0.00396153 0 -8.04452e-06)
(0.0113885 0 -2.26708e-05)
(0.0178929 0 -3.4183e-05)
(0.0235567 0 -4.20917e-05)
(0.0284602 0 -4.59331e-05)
(0.0326766 0 -4.51929e-05)
(0.0362717 0 -3.92638e-05)
(0.039305 0 -2.74135e-05)
(0.0418307 0 -8.75864e-06)
(0.0438981 0 1.77592e-05)
(0.0455522 0 5.33938e-05)
(0.0468349 0 9.96101e-05)
(0.0477847 0 0.000158088)
(0.0484398 0 0.000230766)
(0.0488411 0 0.000319644)
(0.0490263 0 0.000427138)
(0.0490361 0 0.000555864)
(0.048904 0 0.000708462)
(0.0486749 0 0.000887475)
(0.0483957 0 0.00109492)
(0.0481169 0 0.00133186)
(0.0478896 0 0.00159794)
(0.0477741 0 0.00189)
(0.0478368 0 0.00220051)
(0.0481349 0 0.00251665)
(0.0487377 0 0.00281798)
(0.0496589 0 0.00307633)
(0.0508469 0 0.0032584)
(0.0522071 0 0.00333518)
(0.0535081 0 0.00330207)
(0.0039859 0 -9.5212e-06)
(0.0114611 0 -2.69089e-05)
(0.0180143 0 -4.08177e-05)
(0.0237297 0 -5.07755e-05)
(0.0286902 0 -5.63369e-05)
(0.0329705 0 -5.70061e-05)
(0.0366385 0 -5.21965e-05)
(0.0397555 0 -4.12023e-05)
(0.0423775 0 -2.31779e-05)
(0.0445559 0 2.8787e-06)
(0.0463383 0 3.81368e-05)
(0.0477688 0 8.3938e-05)
(0.0488898 0 0.000141792)
(0.0497422 0 0.000213378)
(0.0503664 0 0.000300495)
(0.0508083 0 0.000405086)
(0.0511077 0 0.000528911)
(0.0513084 0 0.000673629)
(0.0514567 0 0.000840805)
(0.051602 0 0.00103085)
(0.0517991 0 0.00124259)
(0.0520893 0 0.00147357)
(0.0525266 0 0.00171816)
(0.0531753 0 0.00196538)
(0.0540711 0 0.00220066)
(0.055231 0 0.00240323)
(0.0566036 0 0.00254913)
(0.0581119 0 0.00261518)
(0.0596099 0 0.0025923)
(0.0608594 0 0.00250477)
(0.00401219 0 -1.11203e-05)
(0.0115393 0 -3.15153e-05)
(0.0181448 0 -4.80822e-05)
(0.0239156 0 -6.03906e-05)
(0.0289369 0 -6.80373e-05)
(0.0332854 0 -7.05691e-05)
(0.0370308 0 -6.74476e-05)
(0.0402363 0 -5.80257e-05)
(0.0429599 0 -4.15337e-05)
(0.045255 0 -1.70715e-05)
(0.0471713 0 1.63924e-05)
(0.0487558 0 6.00125e-05)
(0.0500535 0 0.00011505)
(0.0511085 0 0.000182845)
(0.0519647 0 0.000264763)
(0.0526675 0 0.000362133)
(0.0532587 0 0.000476104)
(0.053791 0 0.00060727)
(0.0543104 0 0.000755906)
(0.0548662 0 0.000921175)
(0.0555077 0 0.00110012)
(0.0562833 0 0.00128787)
(0.0572408 0 0.00147776)
(0.0584156 0 0.0016585)
(0.0598228 0 0.00181457)
(0.061421 0 0.00192925)
(0.0631399 0 0.00198381)
(0.0648574 0 0.0019654)
(0.0663981 0 0.00187884)
(0.0675456 0 0.00176415)
(0.00403996 0 -1.28413e-05)
(0.0116219 0 -3.64883e-05)
(0.0182823 0 -5.59735e-05)
(0.0241113 0 -7.09325e-05)
(0.0291962 0 -8.10262e-05)
(0.0336159 0 -8.58676e-05)
(0.0374418 0 -8.49914e-05)
(0.0407391 0 -7.78378e-05)
(0.0435675 0 -6.3746e-05)
(0.0459823 0 -4.19559e-05)
(0.0480354 0 -1.16178e-05)
(0.0497759 0 2.81868e-05)
(0.0512515 0 7.84137e-05)
(0.0525085 0 0.000140008)
(0.0535934 0 0.00021383)
(0.054553 0 0.000300561)
(0.0554339 0 0.000400535)
(0.0562861 0 0.000513507)
(0.0571578 0 0.000638545)
(0.0580965 0 0.000773548)
(0.0591457 0 0.000914856)
(0.06036 0 0.00105627)
(0.0617754 0 0.00119005)
(0.0633957 0 0.00130669)
(0.0652125 0 0.00139356)
(0.067168 0 0.00143797)
(0.0691575 0 0.0014288)
(0.0710233 0 0.00136181)
(0.0725697 0 0.0012485)
(0.0736085 0 0.00113078)
(0.00406873 0 -1.46801e-05)
(0.0117074 0 -4.18156e-05)
(0.0184246 0 -6.44706e-05)
(0.0243135 0 -8.23694e-05)
(0.0294638 0 -9.52579e-05)
(0.0339564 0 -0.000102836)
(0.0378647 0 -0.000104733)
(0.0412552 0 -0.0001005)
(0.0441896 0 -8.96129e-05)
(0.0467247 0 -7.148e-05)
(0.0489143 0 -4.54651e-05)
(0.0508095 0 -1.09184e-05)
(0.0524596 0 3.27774e-05)
(0.053913 0 8.61444e-05)
(0.0552177 0 0.000149522)
(0.0564218 0 0.000222953)
(0.0575733 0 0.000306023)
(0.0587214 0 0.000397674)
(0.0599136 0 0.000496019)
(0.061196 0 0.000598044)
(0.0626116 0 0.000699347)
(0.0642004 0 0.000793958)
(0.0659864 0 0.000874757)
(0.0679685 0 0.000933842)
(0.0701186 0 0.000963065)
(0.0723644 0 0.000956084)
(0.0745813 0 0.000910222)
(0.0765887 0 0.000828811)
(0.0781694 0 0.000724088)
(0.0791408 0 0.000625925)
(0.00409799 0 -1.66292e-05)
(0.0117943 0 -4.74744e-05)
(0.0185691 0 -7.35355e-05)
(0.0245187 0 -9.46447e-05)
(0.0297352 0 -0.000110652)
(0.0343015 0 -0.000121361)
(0.0382923 0 -0.000126514)
(0.041776 0 -0.000125793)
(0.0448155 0 -0.000118827)
(0.0474694 0 -0.000105214)
(0.0497926 0 -8.45485e-05)
(0.0518376 0 -5.64657e-05)
(0.0536553 0 -2.06957e-05)
(0.0552949 0 2.28629e-05)
(0.0568054 0 7.40488e-05)
(0.0582352 0 0.000132321)
(0.0596323 0 0.000196615)
(0.0610441 0 0.00026519)
(0.0625165 0 0.000335468)
(0.0640924 0 0.000403883)
(0.06581 0 0.000465812)
(0.0677 0 0.000515755)
(0.0697776 0 0.000547804)
(0.0720358 0 0.000556546)
(0.0744392 0 0.000538511)
(0.0769129 0 0.000494327)
(0.0793324 0 0.000430603)
(0.0815154 0 0.000359675)
(0.0832256 0 0.000294084)
(0.0842346 0 0.000239487)
(0.00412723 0 -1.8678e-05)
(0.0118811 0 -5.34327e-05)
(0.0187135 0 -8.31143e-05)
(0.0247237 0 -0.000107679)
(0.0300061 0 -0.000127097)
(0.0346454 0 -0.000141288)
(0.0387178 0 -0.000150124)
(0.0422931 0 -0.000153427)
(0.0454353 0 -0.000150993)
(0.0482041 0 -0.000142618)
(0.0506555 0 -0.000128134)
(0.0528429 0 -0.000107457)
(0.0548178 0 -8.06549e-05)
(0.0566299 0 -4.80179e-05)
(0.0583281 0 -1.01561e-05)
(0.05996 0 3.18924e-05)
(0.0615725 0 7.65419e-05)
(0.0632106 0 0.000121541)
(0.0649168 0 0.000163877)
(0.0667295 0 0.000199735)
(0.0686811 0 0.000224585)
(0.0707943 0 0.000233559)
(0.0730774 0 0.000222023)
(0.0755197 0 0.000186788)
(0.0780856 0 0.000127963)
(0.0807093 0 5.15503e-05)
(0.083288 0 -2.76371e-05)
(0.0856709 0 -8.51724e-05)
(0.0876363 0 -9.72622e-05)
(0.0888697 0 -8.04332e-05)
(0.00415593 0 -2.08131e-05)
(0.0119663 0 -5.96495e-05)
(0.0188554 0 -9.31396e-05)
(0.0249251 0 -0.000121374)
(0.0302722 0 -0.000144454)
(0.0349829 0 -0.00016243)
(0.0391348 0 -0.000175307)
(0.0427986 0 -0.000183059)
(0.0460394 0 -0.00018565)
(0.0489176 0 -0.000183074)
(0.0514897 0 -0.000175393)
(0.0538097 0 -0.000162791)
(0.0559289 0 -0.00014564)
(0.0578968 0 -0.000124575)
(0.0597613 0 -0.000100579)
(0.0615688 0 -7.50803e-05)
(0.0633634 0 -5.00403e-05)
(0.0651869 0 -2.80321e-05)
(0.0670775 0 -1.22741e-05)
(0.069068 0 -6.58969e-06)
(0.071184 0 -1.52277e-05)
(0.0734407 0 -4.24196e-05)
(0.0758402 0 -9.18335e-05)
(0.0783678 0 -0.000165461)
(0.0809893 0 -0.000262031)
(0.0836496 0 -0.0003748)
(0.0862728 0 -0.000488068)
(0.088761 0 -0.000570945)
(0.0909725 0 -0.000570572)
(0.0926283 0 -0.000463762)
(0.00350711 0 -0.00115283)
(0.00617273 0 -0.00110657)
(0.0103533 0 -0.00101027)
(0.0152637 0 -0.000904068)
(0.02038 0 -0.000802621)
(0.0253799 0 -0.000711394)
(0.0300697 0 -0.000630409)
(0.0343488 0 -0.000559202)
(0.0381689 0 -0.000496919)
(0.0415105 0 -0.000442528)
(0.0443713 0 -0.000394996)
(0.0467554 0 -0.000353353)
(0.0486706 0 -0.000316742)
(0.050125 0 -0.000284413)
(0.0511251 0 -0.000255686)
(0.0516745 0 -0.000229866)
(0.0517735 0 -0.000206811)
(0.0514173 0 -0.00018597)
(0.0505974 0 -0.000167045)
(0.0493009 0 -0.000149752)
(0.0475105 0 -0.000133794)
(0.0452043 0 -0.000118894)
(0.0423555 0 -0.000104796)
(0.0389333 0 -9.12654e-05)
(0.0349021 0 -7.80706e-05)
(0.0302225 0 -6.49773e-05)
(0.0248509 0 -5.17356e-05)
(0.0187404 0 -3.80688e-05)
(0.0118417 0 -2.36595e-05)
(0.00409729 0 -8.11978e-06)
(0.00670777 0 -0.00329225)
(0.00914845 0 -0.00317097)
(0.0129637 0 -0.00291652)
(0.0174918 0 -0.00262654)
(0.0222583 0 -0.00234387)
(0.0269519 0 -0.00208687)
(0.0313739 0 -0.00185536)
(0.0354276 0 -0.00165003)
(0.0390604 0 -0.00146934)
(0.0422471 0 -0.0013108)
(0.0449797 0 -0.00117172)
(0.0472581 0 -0.00104948)
(0.0490859 0 -0.000941738)
(0.050468 0 -0.000846392)
(0.0514084 0 -0.000761545)
(0.0519081 0 -0.000684944)
(0.0519665 0 -0.000616659)
(0.0515765 0 -0.00055477)
(0.0507284 0 -0.00049852)
(0.0494086 0 -0.000447088)
(0.0475988 0 -0.000399588)
(0.0452765 0 -0.000355193)
(0.0424143 0 -0.000313158)
(0.0389809 0 -0.000272783)
(0.0349402 0 -0.000233387)
(0.0302524 0 -0.000194275)
(0.0248737 0 -0.000154704)
(0.0187568 0 -0.000113848)
(0.0118518 0 -7.07615e-05)
(0.00410081 0 -2.42862e-05)
(0.0122864 0 -0.00503397)
(0.0144747 0 -0.00488092)
(0.0177373 0 -0.00453764)
(0.0216286 0 -0.00412709)
(0.025788 0 -0.00371478)
(0.0299159 0 -0.00332695)
(0.0338435 0 -0.00297398)
(0.0374809 0 -0.00265717)
(0.0407655 0 -0.00237561)
(0.0436619 0 -0.00212649)
(0.0461529 0 -0.00190638)
(0.0482305 0 -0.00171175)
(0.0498915 0 -0.00153929)
(0.0511353 0 -0.00138604)
(0.0519609 0 -0.00124939)
(0.0523668 0 -0.00112669)
(0.0523467 0 -0.00101583)
(0.0518906 0 -0.000914631)
(0.0509874 0 -0.000822544)
(0.0496219 0 -0.000738255)
(0.0477742 0 -0.000660273)
(0.0454202 0 -0.000587259)
(0.0425316 0 -0.000518015)
(0.039076 0 -0.000451416)
(0.0350165 0 -0.000386358)
(0.0303126 0 -0.000321705)
(0.0249196 0 -0.000256239)
(0.0187897 0 -0.000188605)
(0.0118721 0 -0.000117244)
(0.0041078 0 -4.02434e-05)
(0.0195306 0 -0.00635443)
(0.0214221 0 -0.0061859)
(0.0240505 0 -0.00580688)
(0.0271802 0 -0.00533698)
(0.030565 0 -0.00485014)
(0.0339651 0 -0.00437902)
(0.0372589 0 -0.0039422)
(0.0403481 0 -0.00354447)
(0.043165 0 -0.00318627)
(0.0456656 0 -0.00286563)
(0.0478232 0 -0.00257945)
(0.0496209 0 -0.00232419)
(0.0510477 0 -0.00209632)
(0.0520959 0 -0.00189253)
(0.0527588 0 -0.00170985)
(0.0530298 0 -0.00154589)
(0.0528969 0 -0.00139672)
(0.0523479 0 -0.00126057)
(0.051365 0 -0.00113495)
(0.0499332 0 -0.00101982)
(0.0480304 0 -0.000913005)
(0.0456304 0 -0.000812727)
(0.0427033 0 -0.000717406)
(0.0392151 0 -0.000625545)
(0.0351281 0 -0.00053566)
(0.0304005 0 -0.000446208)
(0.0249867 0 -0.000355528)
(0.0188377 0 -0.000261758)
(0.0119016 0 -0.000162752)
(0.00411797 0 -5.58706e-05)
(0.0277349 0 -0.00728011)
(0.029294 0 -0.00710347)
(0.0312792 0 -0.00672435)
(0.0336197 0 -0.00624457)
(0.0361726 0 -0.00573152)
(0.0387984 0 -0.00522565)
(0.0413876 0 -0.00474507)
(0.0438517 0 -0.00429864)
(0.0461235 0 -0.00388963)
(0.0481544 0 -0.00351807)
(0.0499107 0 -0.00318225)
(0.0513678 0 -0.00287946)
(0.0525066 0 -0.00260662)
(0.0533126 0 -0.00236066)
(0.0537723 0 -0.00213856)
(0.0538719 0 -0.00193743)
(0.053596 0 -0.00175412)
(0.0529301 0 -0.00158711)
(0.0518489 0 -0.00143217)
(0.0503328 0 -0.00128888)
(0.0483598 0 -0.00115537)
(0.045901 0 -0.00102957)
(0.0429244 0 -0.000909631)
(0.0393946 0 -0.000793758)
(0.0352721 0 -0.000680134)
(0.0305139 0 -0.000566857)
(0.0250731 0 -0.000451852)
(0.0188994 0 -0.00033279)
(0.0119395 0 -0.000206969)
(0.00413099 0 -7.10602e-05)
(0.036306 0 -0.00785547)
(0.037515 0 -0.00767958)
(0.0388976 0 -0.00732602)
(0.0404972 0 -0.00687308)
(0.0422512 0 -0.00637472)
(0.0441152 0 -0.00587133)
(0.0459872 0 -0.00538084)
(0.0477982 0 -0.00491476)
(0.0494878 0 -0.00447928)
(0.0510076 0 -0.00407695)
(0.0523206 0 -0.00370802)
(0.0533965 0 -0.00337124)
(0.0542097 0 -0.00306447)
(0.0547395 0 -0.00278535)
(0.0549654 0 -0.00253123)
(0.0548673 0 -0.0022992)
(0.0544243 0 -0.00208631)
(0.0536188 0 -0.00189144)
(0.0524234 0 -0.00171145)
(0.0508093 0 -0.00154316)
(0.0487534 0 -0.00138541)
(0.0462248 0 -0.00123612)
(0.0431893 0 -0.00109328)
(0.0396095 0 -0.00095487)
(0.0354445 0 -0.000818802)
(0.0306496 0 -0.000682856)
(0.0251765 0 -0.000544595)
(0.0189732 0 -0.000401255)
(0.0119848 0 -0.000249622)
(0.00414651 0 -8.57184e-05)
(0.0447801 0 -0.00813223)
(0.0456509 0 -0.00797183)
(0.0465075 0 -0.00766462)
(0.0474609 0 -0.00726443)
(0.0485112 0 -0.00680976)
(0.0496569 0 -0.00633491)
(0.0508371 0 -0.00586026)
(0.0520049 0 -0.00539788)
(0.0531082 0 -0.00495657)
(0.0541038 0 -0.00454134)
(0.0549551 0 -0.0041546)
(0.0556289 0 -0.00379676)
(0.0560945 0 -0.00346683)
(0.0563267 0 -0.00316359)
(0.0562993 0 -0.00288509)
(0.055985 0 -0.00262859)
(0.0553611 0 -0.00239226)
(0.0543995 0 -0.00217375)
(0.0530736 0 -0.00197124)
(0.0513501 0 -0.00178102)
(0.0492011 0 -0.00160163)
(0.0465935 0 -0.00143106)
(0.0434912 0 -0.00126721)
(0.0398548 0 -0.00110791)
(0.0356413 0 -0.000950848)
(0.0308045 0 -0.000793542)
(0.0252944 0 -0.000633234)
(0.0190572 0 -0.000466772)
(0.0120361 0 -0.000290474)
(0.00416411 0 -9.97643e-05)
(0.0528324 0 -0.00817858)
(0.0534087 0 -0.00804816)
(0.0538366 0 -0.00780113)
(0.0542566 0 -0.00746754)
(0.0547121 0 -0.00707338)
(0.0552059 0 -0.00664416)
(0.0557465 0 -0.00620146)
(0.0563093 0 -0.00575949)
(0.0568468 0 -0.00532829)
(0.0573278 0 -0.00491482)
(0.0577195 0 -0.00452343)
(0.0579879 0 -0.00415614)
(0.0580975 0 -0.00381287)
(0.0580237 0 -0.00349411)
(0.0577336 0 -0.00319878)
(0.0571956 0 -0.00292467)
(0.0563798 0 -0.0026701)
(0.0552527 0 -0.00243264)
(0.0537847 0 -0.00221056)
(0.0519421 0 -0.00200128)
(0.049692 0 -0.0018029)
(0.0469985 0 -0.00161337)
(0.0438232 0 -0.00143053)
(0.0401245 0 -0.0012521)
(0.0358578 0 -0.00107561)
(0.0309748 0 -0.000898368)
(0.0254239 0 -0.000717335)
(0.0191494 0 -0.000529023)
(0.0120924 0 -0.000329327)
(0.00418335 0 -0.00011313)
(0.0602776 0 -0.00807361)
(0.0606238 0 -0.00798126)
(0.0607229 0 -0.00779831)
(0.0607143 0 -0.00753381)
(0.0606657 0 -0.0072038)
(0.0606077 0 -0.00682804)
(0.0605774 0 -0.00642605)
(0.0605738 0 -0.00601423)
(0.060581 0 -0.00560439)
(0.0605742 0 -0.00520383)
(0.0605249 0 -0.00481846)
(0.0604007 0 -0.00445186)
(0.0601667 0 -0.00410493)
(0.0597885 0 -0.00377834)
(0.0592328 0 -0.00347257)
(0.0584666 0 -0.00318663)
(0.0574513 0 -0.00291826)
(0.0561532 0 -0.00266602)
(0.0545385 0 -0.00242831)
(0.0525711 0 -0.00220309)
(0.0502146 0 -0.00198843)
(0.0474304 0 -0.0017823)
(0.0441777 0 -0.00158255)
(0.0404128 0 -0.00138683)
(0.0360892 0 -0.00119256)
(0.0311568 0 -0.000996889)
(0.0255621 0 -0.000796544)
(0.0192477 0 -0.000587744)
(0.0121523 0 -0.000366016)
(0.00420379 0 -0.000125757)
(0.067054 0 -0.00789305)
(0.0672381 0 -0.00783911)
(0.0670913 0 -0.00771345)
(0.0667354 0 -0.00750935)
(0.0662596 0 -0.00723675)
(0.0657313 0 -0.00691274)
(0.065202 0 -0.00655515)
(0.0646922 0 -0.00617917)
(0.0642178 0 -0.00579714)
(0.0637624 0 -0.0054174)
(0.0633022 0 -0.00504621)
(0.0628071 0 -0.00468777)
(0.062245 0 -0.00434467)
(0.061573 0 -0.00401755)
(0.0607575 0 -0.00370744)
(0.0597624 0 -0.00341415)
(0.0585489 0 -0.00313661)
(0.0570797 0 -0.00287367)
(0.0553172 0 -0.002624)
(0.053223 0 -0.00238593)
(0.0507576 0 -0.00215769)
(0.0478799 0 -0.00193735)
(0.0445471 0 -0.00172279)
(0.0407134 0 -0.00151165)
(0.0363305 0 -0.0013013)
(0.0313464 0 -0.00108876)
(0.025706 0 -0.000870571)
(0.0193498 0 -0.000642718)
(0.0122145 0 -0.000400403)
(0.00422496 0 -0.000137599)
(0.0731963 0 -0.00770217)
(0.0732698 0 -0.00767838)
(0.0729218 0 -0.00759205)
(0.0722612 0 -0.00742975)
(0.0714065 0 -0.00720058)
(0.0704597 0 -0.00692041)
(0.0694951 0 -0.00660482)
(0.0685554 0 -0.00626696)
(0.0676609 0 -0.00591739)
(0.0668074 0 -0.00556407)
(0.0659774 0 -0.00521316)
(0.0651433 0 -0.00486914)
(0.064272 0 -0.0045351)
(0.0633248 0 -0.00421284)
(0.0622642 0 -0.00390365)
(0.0610517 0 -0.003608)
(0.0596474 0 -0.00332559)
(0.0580114 0 -0.00305577)
(0.0561037 0 -0.00279754)
(0.0538836 0 -0.0025496)
(0.0513093 0 -0.00231041)
(0.0483377 0 -0.00207819)
(0.0449237 0 -0.0018509)
(0.0410201 0 -0.00162623)
(0.0365766 0 -0.00140152)
(0.0315398 0 -0.0011737)
(0.0258525 0 -0.000939191)
(0.0194537 0 -0.000693772)
(0.0122775 0 -0.000432378)
(0.00424641 0 -0.000148616)
(0.078803 0 -0.00755005)
(0.0787734 0 -0.00753739)
(0.0782079 0 -0.00746094)
(0.077239 0 -0.00731497)
(0.0760288 0 -0.0071124)
(0.0747093 0 -0.00686691)
(0.0733707 0 -0.00658968)
(0.0720651 0 -0.0062898)
(0.070816 0 -0.00597493)
(0.0696242 0 -0.00565156)
(0.0684757 0 -0.0053252)
(0.0673453 0 -0.00500027)
(0.0662007 0 -0.00468014)
(0.0650051 0 -0.00436726)
(0.0637203 0 -0.00406341)
(0.0623066 0 -0.00376958)
(0.0607231 0 -0.00348611)
(0.0589287 0 -0.00321284)
(0.0568816 0 -0.00294918)
(0.0545394 0 -0.00269417)
(0.0518586 0 -0.00244654)
(0.0487943 0 -0.00220469)
(0.0453 0 -0.00196671)
(0.0413267 0 -0.00173036)
(0.0368226 0 -0.001493)
(0.0317328 0 -0.00125151)
(0.0259986 0 -0.00100223)
(0.0195569 0 -0.000740772)
(0.01234 0 -0.000461853)
(0.00426765 0 -0.000158779)
(0.0839795 0 -0.00746122)
(0.0837712 0 -0.00742443)
(0.082898 0 -0.00731928)
(0.0815841 0 -0.00716528)
(0.0800362 0 -0.0069772)
(0.0783968 0 -0.0067612)
(0.0767537 0 -0.00652057)
(0.0751557 0 -0.00625874)
(0.0736237 0 -0.00597988)
(0.0721589 0 -0.00568861)
(0.0707488 0 -0.00538957)
(0.0693702 0 -0.00508693)
(0.0679924 0 -0.00478421)
(0.0665806 0 -0.00448425)
(0.065097 0 -0.00418925)
(0.063502 0 -0.00390069)
(0.0617548 0 -0.00361941)
(0.0598136 0 -0.00334573)
(0.0576357 0 -0.00307944)
(0.0551776 0 -0.00281994)
(0.0523948 0 -0.0025662)
(0.0492411 0 -0.00231686)
(0.0456686 0 -0.00207016)
(0.041627 0 -0.00182395)
(0.0370635 0 -0.00157562)
(0.0319215 0 -0.00132208)
(0.026141 0 -0.00105957)
(0.0196574 0 -0.000783617)
(0.0124007 0 -0.000488761)
(0.00428822 0 -0.000168062)
(0.0887122 0 -0.00741172)
(0.0881293 0 -0.00729426)
(0.0868228 0 -0.00712888)
(0.0851512 0 -0.00696159)
(0.0833189 0 -0.00679144)
(0.0814407 0 -0.00660852)
(0.0795814 0 -0.00640654)
(0.077776 0 -0.0061838)
(0.0760394 0 -0.00594176)
(0.0743712 0 -0.00568362)
(0.0727599 0 -0.00541338)
(0.0711844 0 -0.00513497)
(0.0696166 0 -0.00485195)
(0.0680237 0 -0.00456744)
(0.0663699 0 -0.00428397)
(0.0646166 0 -0.00400341)
(0.0627238 0 -0.00372703)
(0.0606499 0 -0.00345552)
(0.0583521 0 -0.00318907)
(0.0557865 0 -0.00292738)
(0.0529079 0 -0.0026697)
(0.0496694 0 -0.00241487)
(0.0460223 0 -0.00216131)
(0.0419152 0 -0.00190697)
(0.0372943 0 -0.00164934)
(0.032102 0 -0.00138531)
(0.0262768 0 -0.00111114)
(0.0197527 0 -0.000822241)
(0.0124581 0 -0.000513056)
(0.00430761 0 -0.00017645)
(0.0925252 0 -0.0072638)
(0.0913699 0 -0.00700826)
(0.0896524 0 -0.00681658)
(0.0877472 0 -0.0066794)
(0.0857688 0 -0.00655384)
(0.0837778 0 -0.00641639)
(0.0818122 0 -0.00625765)
(0.0798947 0 -0.00607511)
(0.0780359 0 -0.00586982)
(0.0762354 0 -0.00564467)
(0.0744845 0 -0.00540351)
(0.0727644 0 -0.00515007)
(0.0710505 0 -0.00488799)
(0.0693133 0 -0.00462054)
(0.0675195 0 -0.00435049)
(0.0656328 0 -0.00407999)
(0.0636143 0 -0.00381065)
(0.0614236 0 -0.00354348)
(0.0590185 0 -0.00327898)
(0.0563553 0 -0.00301713)
(0.0533887 0 -0.00275745)
(0.0500715 0 -0.00249898)
(0.0463544 0 -0.00224031)
(0.0421856 0 -0.00197952)
(0.0375104 0 -0.00171417)
(0.0322703 0 -0.00144121)
(0.0264029 0 -0.00115689)
(0.0198407 0 -0.00085661)
(0.0125107 0 -0.00053471)
(0.00432531 0 -0.00018393)
(0.00418411 0 -2.3069e-05)
(0.01205 0 -6.6218e-05)
(0.0189947 0 -0.000103712)
(0.0251231 0 -0.000135862)
(0.0305338 0 -0.000162879)
(0.0353144 0 -0.000184955)
(0.0395438 0 -0.000202234)
(0.0432935 0 -0.000214843)
(0.046629 0 -0.000222918)
(0.0496111 0 -0.000226643)
(0.0522968 0 -0.000226298)
(0.0547396 0 -0.000222309)
(0.0569904 0 -0.000215314)
(0.0590976 0 -0.000206232)
(0.0611077 0 -0.000196337)
(0.0630643 0 -0.00018733)
(0.0650087 0 -0.000181403)
(0.0669781 0 -0.000181271)
(0.0690056 0 -0.000190158)
(0.0711174 0 -0.000211705)
(0.0733322 0 -0.000249755)
(0.0756573 0 -0.000307947)
(0.0780878 0 -0.000389348)
(0.0806036 0 -0.000495781)
(0.083168 0 -0.000627277)
(0.0857276 0 -0.000782315)
(0.0882129 0 -0.000960607)
(0.0905393 0 -0.00117248)
(0.0926197 0 -0.0014667)
(0.0943626 0 -0.00197382)
(0.00421128 0 -2.54519e-05)
(0.012131 0 -7.3172e-05)
(0.0191298 0 -0.000114929)
(0.0253154 0 -0.000151205)
(0.0307883 0 -0.000182447)
(0.0356371 0 -0.000208937)
(0.0399416 0 -0.00023097)
(0.0437738 0 -0.000248824)
(0.0471995 0 -0.000262799)
(0.0502796 0 -0.000273263)
(0.0530706 0 -0.000280688)
(0.0556256 0 -0.000285711)
(0.0579942 0 -0.000289189)
(0.0602233 0 -0.000292256)
(0.062357 0 -0.000296386)
(0.0644358 0 -0.000303436)
(0.066497 0 -0.000315687)
(0.0685732 0 -0.000335835)
(0.0706913 0 -0.000366947)
(0.0728712 0 -0.000412341)
(0.075124 0 -0.000475386)
(0.0774497 0 -0.000559176)
(0.0798364 0 -0.000666388)
(0.0822583 0 -0.000799062)
(0.0846743 0 -0.0009588)
(0.0870288 0 -0.00114788)
(0.0892538 0 -0.00137347)
(0.0912694 0 -0.00165186)
(0.092973 0 -0.00201514)
(0.0942898 0 -0.00252766)
(0.00423657 0 -2.79267e-05)
(0.0122067 0 -8.03993e-05)
(0.019257 0 -0.000126636)
(0.0254972 0 -0.000167257)
(0.0310293 0 -0.000202879)
(0.0359431 0 -0.000234031)
(0.0403187 0 -0.00026108)
(0.0442285 0 -0.000284455)
(0.0477382 0 -0.000304611)
(0.0509083 0 -0.00032208)
(0.0537947 0 -0.000337501)
(0.0564492 0 -0.00035168)
(0.0589201 0 -0.000365638)
(0.0612522 0 -0.000380657)
(0.0634865 0 -0.00039832)
(0.0656603 0 -0.000420538)
(0.0678065 0 -0.000449561)
(0.0699526 0 -0.00048795)
(0.0721201 0 -0.00053851)
(0.0743225 0 -0.000604168)
(0.0765644 0 -0.000687816)
(0.0788398 0 -0.000792063)
(0.0811314 0 -0.000919274)
(0.0834104 0 -0.00107165)
(0.0856352 0 -0.00125198)
(0.0877547 0 -0.00146398)
(0.0896997 0 -0.00171386)
(0.0913919 0 -0.00201235)
(0.0927649 0 -0.00237975)
(0.0937687 0 -0.00286474)
(0.0042593 0 -3.04734e-05)
(0.0122752 0 -8.78438e-05)
(0.0193731 0 -0.000138706)
(0.0256643 0 -0.000183873)
(0.0312519 0 -0.000224069)
(0.0362265 0 -0.000259992)
(0.0406684 0 -0.000292258)
(0.0446499 0 -0.000321348)
(0.0482364 0 -0.00034786)
(0.0514877 0 -0.00037247)
(0.0544586 0 -0.000395953)
(0.0571995 0 -0.000419241)
(0.0597569 0 -0.000443468)
(0.0621729 0 -0.000469995)
(0.0644857 0 -0.000500438)
(0.0667289 0 -0.000536674)
(0.0689311 0 -0.000580835)
(0.0711152 0 -0.000635267)
(0.0732975 0 -0.000702453)
(0.0754864 0 -0.000784918)
(0.0776815 0 -0.000885099)
(0.0798727 0 -0.00100519)
(0.0820396 0 -0.00114719)
(0.0841571 0 -0.0013137)
(0.0861814 0 -0.00150665)
(0.0880593 0 -0.00172861)
(0.0897364 0 -0.00198347)
(0.0911592 0 -0.00227964)
(0.092282 0 -0.00263153)
(0.0930627 0 -0.00306393)
(0.00427879 0 -3.30676e-05)
(0.0123347 0 -9.54342e-05)
(0.0194752 0 -0.000151027)
(0.0258129 0 -0.000200847)
(0.0314515 0 -0.000245791)
(0.0364819 0 -0.000286629)
(0.0409843 0 -0.000324146)
(0.0450309 0 -0.000359063)
(0.0486862 0 -0.000391992)
(0.0520091 0 -0.000423755)
(0.0550532 0 -0.000455214)
(0.0578671 0 -0.00048739)
(0.0604952 0 -0.000521479)
(0.062977 0 -0.000558866)
(0.0653475 0 -0.000601133)
(0.0676369 0 -0.000650057)
(0.0698698 0 -0.000707591)
(0.072065 0 -0.000775814)
(0.0742347 0 -0.00085687)
(0.0763834 0 -0.000952885)
(0.0785079 0 -0.0010659)
(0.0805959 0 -0.00119774)
(0.0826277 0 -0.00135006)
(0.0845742 0 -0.0015244)
(0.0863957 0 -0.00172156)
(0.0880524 0 -0.00194379)
(0.0895036 0 -0.00219413)
(0.0907116 0 -0.00247782)
(0.0916447 0 -0.00280255)
(0.0922739 0 -0.00317641)
(0.00429441 0 -3.56809e-05)
(0.0123833 0 -0.000103087)
(0.0195605 0 -0.000163463)
(0.0259392 0 -0.000217996)
(0.0316234 0 -0.000267741)
(0.0367038 0 -0.000313615)
(0.0412604 0 -0.000356445)
(0.0453646 0 -0.000397108)
(0.0490802 0 -0.00043641)
(0.0524649 0 -0.000475216)
(0.0555705 0 -0.000514424)
(0.058444 0 -0.000555109)
(0.0611276 0 -0.00059849)
(0.0636582 0 -0.000645928)
(0.0660677 0 -0.00069892)
(0.068383 0 -0.000759093)
(0.0706253 0 -0.00082818)
(0.07281 0 -0.000907974)
(0.0749463 0 -0.00100027)
(0.0770365 0 -0.00110682)
(0.0790763 0 -0.0012293)
(0.0810517 0 -0.00136907)
(0.0829409 0 -0.00152681)
(0.0847188 0 -0.00170334)
(0.0863559 0 -0.00189955)
(0.0878214 0 -0.00211674)
(0.0890859 0 -0.00235671)
(0.0901232 0 -0.00262195)
(0.0909125 0 -0.00291497)
(0.0914375 0 -0.00323563)
(0.00430555 0 -3.8281e-05)
(0.0124193 0 -0.000110709)
(0.0196263 0 -0.000175861)
(0.0260397 0 -0.000235107)
(0.0317633 0 -0.000289651)
(0.0368873 0 -0.000340536)
(0.0414912 0 -0.000388712)
(0.0456452 0 -0.000435078)
(0.0494122 0 -0.000480565)
(0.0528484 0 -0.000526097)
(0.0560041 0 -0.000572715)
(0.0589243 0 -0.000621394)
(0.061649 0 -0.000673361)
(0.064213 0 -0.000729923)
(0.0666449 0 -0.000792449)
(0.0689687 0 -0.000862382)
(0.0712031 0 -0.000941218)
(0.0733607 0 -0.00103045)
(0.0754488 0 -0.00113154)
(0.0774685 0 -0.00124585)
(0.079416 0 -0.00137471)
(0.0812739 0 -0.0015187)
(0.0830229 0 -0.00167787)
(0.0846461 0 -0.00185308)
(0.0861206 0 -0.00204476)
(0.0874235 0 -0.00225336)
(0.0885342 0 -0.00247948)
(0.0894356 0 -0.00272356)
(0.090115 0 -0.00298507)
(0.090565 0 -0.00326085)
(0.00431169 0 -4.08319e-05)
(0.0124412 0 -0.000118195)
(0.0196701 0 -0.000188052)
(0.0261112 0 -0.000251945)