/*--------------------------------*- C++ -*----------------------------------*\
| =========                 |                                                 |
| \\      /  F ield         | OpenFOAM: The Open Source CFD Toolbox           |
|  \\    /   O peration     | Version:  dev                                   |
|   \\  /    A nd           | Web:      www.OpenFOAM.org                      |
|    \\/     M anipulation  |                                                 |
\*---------------------------------------------------------------------------*/
FoamFile
{
    version     2.0;
    format      ascii;
    class       surfaceScalarField;
    location    "4.9";
    object      phi;
}
// * * * * * * * * * * * * * * * * * * * * * * * * * * * * * * * * * * * * * //

dimensions      [0 3 -1 0 0 0 0];

internalField   nonuniform List<scalar> 
5457
(
0.197731
0.0020612
0.195368
0.00219535
0.19286
0.00238221
0.190149
0.0026204
0.187225
0.00286341
0.184084
0.00310692
0.180717
0.00335881
0.177113
0.0036209
0.173249
0.00389534
0.169102
0.00418849
0.164652
0.00450276
0.159875
0.00484017
0.154744
0.00520345
0.149227
0.00559519
0.143292
0.00601789
0.136904
0.00647384
0.130027
0.00696463
0.122624
0.00749101
0.114657
0.00805278
0.106092
0.00864812
0.0968975
0.00927305
0.087051
0.00992078
0.0765393
0.010581
0.0653651
0.0112383
0.0535536
0.0118696
0.0411646
0.0124394
0.0283123
0.0128918
0.0152322
0.0131043
0.00269165
0.0125411
0.00270619
0.199507
0.0023457
0.198446
0.00308844
0.197114
0.00358834
0.195531
0.00411389
0.193684
0.00464906
0.191568
0.00518642
0.189182
0.00573603
0.186514
0.00630526
0.183538
0.00690038
0.180237
0.00752959
0.176594
0.00819834
0.172586
0.00891204
0.168184
0.00967643
0.163361
0.0104971
0.158082
0.0113796
0.152313
0.0123296
0.146014
0.0133513
0.139146
0.0144474
0.131665
0.0156194
0.123531
0.0168658
0.114701
0.0181816
0.105139
0.0195568
0.0948138
0.0209748
0.0837039
0.0224108
0.0718064
0.0238242
0.0591515
0.0251443
0.0458335
0.0262486
0.0320988
0.026862
0.018321
0.0263158
0.0210355
0.199361
0.002775
0.19837
0.00391063
0.197109
0.00472425
0.19562
0.0055128
0.193898
0.00630872
0.191936
0.00711051
0.189736
0.0079256
0.187285
0.00877043
0.184557
0.00965584
0.181538
0.0105867
0.178216
0.0115726
0.174568
0.0126231
0.170569
0.0137468
0.166192
0.0149522
0.161407
0.0162486
0.156177
0.0176463
0.150463
0.0191538
0.144221
0.0207774
0.137404
0.0225232
0.129959
0.0243948
0.121828
0.0263921
0.112949
0.0285092
0.103257
0.0307331
0.0926787
0.033048
0.0811361
0.0354221
0.0685392
0.037791
0.0547722
0.0400525
0.0395516
0.0421022
0.0216809
0.0441749
0.0427268
0.199267
0.00329596
0.198277
0.00473093
0.197031
0.00584564
0.195558
0.00689475
0.19386
0.00794349
0.191932
0.0090007
0.189773
0.0100744
0.187372
0.0111852
0.18471
0.0123445
0.181776
0.0135587
0.178558
0.0148425
0.175036
0.0162073
0.17119
0.0176637
0.166997
0.0192233
0.162432
0.0208976
0.157461
0.0227041
0.152047
0.0246567
0.14615
0.0267643
0.13972
0.0290413
0.1327
0.0315001
0.125019
0.0341533
0.116594
0.037008
0.107327
0.0400636
0.0970969
0.0433283
0.0857508
0.0468187
0.0730512
0.0505439
0.0586472
0.0544915
0.0420801
0.0586815
0.0225046
0.0637238
0.065248
0.199217
0.00386369
0.198215
0.005562
0.196981
0.00695514
0.195525
0.00826051
0.193846
0.0095576
0.191944
0.0108645
0.189814
0.0121934
0.187447
0.0135635
0.184829
0.0149875
0.181948
0.0164783
0.17879
0.0180523
0.175336
0.0197219
0.17157
0.0215005
0.167469
0.0234021
0.163009
0.0254408
0.158162
0.0276384
0.152893
0.0300152
0.147162
0.0325864
0.140919
0.0353742
0.134105
0.0384017
0.126637
0.0417032
0.118413
0.0453076
0.109304
0.0492373
0.0991438
0.0535287
0.0877435
0.0582518
0.0748044
0.0635328
0.0598367
0.0694947
0.0423261
0.0761899
0.0221941
0.0838077
0.087475
0.199189
0.00445441
0.198178
0.00639998
0.19696
0.00805208
0.195522
0.00960735
0.193866
0.0111469
0.191992
0.0126974
0.189896
0.0142748
0.187571
0.0158963
0.185002
0.0175807
0.182173
0.0193454
0.17907
0.0212045
0.175678
0.0231742
0.171978
0.0252704
0.167947
0.02751
0.163559
0.0299108
0.158789
0.0324964
0.153601
0.0352931
0.147953
0.0383265
0.141791
0.0416282
0.135048
0.0452343
0.127642
0.0491954
0.119463
0.0535674
0.110351
0.0584235
0.100085
0.0638441
0.0884273
0.0699217
0.0751254
0.0768524
0.0597094
0.0849307
0.0415503
0.0943213
0.0213275
0.103953
0.10886
0.199172
0.00505532
0.19816
0.00723674
0.196962
0.0091315
0.195549
0.0109293
0.193919
0.0127048
0.192081
0.0144919
0.190026
0.0163108
0.187746
0.0181798
0.185229
0.0201206
0.182458
0.0221527
0.179419
0.0242923
0.176093
0.0265582
0.172462
0.028969
0.168503
0.031545
0.164188
0.034308
0.159487
0.0372847
0.154363
0.0405078
0.148769
0.0440131
0.142648
0.0478428
0.135915
0.0520588
0.128481
0.0567184
0.120237
0.0618972
0.111024
0.0677198
0.100597
0.0743437
0.0886317
0.0819097
0.0749004
0.090569
0.059086
0.100723
0.0405698
0.112774
0.0204441
0.123958
0.12938
0.199164
0.00565823
0.198156
0.00806552
0.196981
0.0101898
0.195595
0.0122219
0.193999
0.0142257
0.192201
0.0162417
0.190193
0.0182954
0.187966
0.020407
0.18551
0.0225979
0.182808
0.0248904
0.17984
0.0273055
0.176591
0.0298636
0.17304
0.0325861
0.169162
0.0354968
0.164928
0.038623
0.160303
0.0419958
0.155247
0.0456544
0.149707
0.0496461
0.143617
0.0540268
0.136893
0.0588761
0.129428
0.0642737
0.121073
0.0703384
0.111671
0.0772041
0.101025
0.085066
0.0887856
0.0941916
0.0746155
0.10472
0.0584112
0.116871
0.0396994
0.131386
0.019705
0.143773
0.14917
0.199169
0.00625568
0.198167
0.00888398
0.197007
0.0112277
0.195654
0.013482
0.1941
0.0157045
0.192347
0.0179419
0.190392
0.0202224
0.188226
0.0225684
0.185842
0.0250016
0.183219
0.0275482
0.180334
0.0302335
0.177172
0.0330784
0.173713
0.0361081
0.169931
0.0393504
0.165793
0.0428398
0.16126
0.0466126
0.156291
0.0507135
0.150828
0.0552033
0.144785
0.0601628
0.138081
0.0656738
0.130605
0.0718408
0.122191
0.0788357
0.112628
0.0868409
0.101721
0.0960344
0.0892126
0.106735
0.0746757
0.119234
0.0581081
0.133365
0.0391608
0.150193
0.0192241
0.163457
0.16847
0.199179
0.00684433
0.198185
0.00968872
0.197042
0.0122385
0.195733
0.0147003
0.194226
0.0171341
0.192523
0.0195857
0.190627
0.0220841
0.188531
0.0246542
0.186228
0.0273221
0.18369
0.0301166
0.180898
0.0330637
0.177837
0.0361881
0.174485
0.0395189
0.170817
0.0430868
0.166795
0.0469384
0.162375
0.0511123
0.157521
0.0556568
0.152164
0.0606538
0.146222
0.0661971
0.139592
0.0723953
0.132137
0.0793833
0.123726
0.0873282
0.114129
0.096502
0.103064
0.107142
0.0903355
0.11948
0.0755874
0.13394
0.0586944
0.150153
0.0394085
0.16928
0.0193569
0.183175
0.187876
0.199189
0.00742196
0.19821
0.0104724
0.197096
0.0132138
0.19583
0.0158726
0.194372
0.0185107
0.192725
0.0211674
0.190896
0.0238732
0.18888
0.0266573
0.186662
0.0295522
0.184218
0.0325841
0.181532
0.035782
0.178586
0.0391782
0.175357
0.0428015
0.171821
0.0466893
0.167938
0.0508933
0.163665
0.055459
0.158963
0.0604455
0.153755
0.0659565
0.147956
0.0720864
0.141474
0.0789648
0.134156
0.0867836
0.125826
0.095731
0.116315
0.10607
0.105329
0.118156
0.0925681
0.132234
0.0777345
0.148705
0.0606082
0.167126
0.041029
0.188585
0.0206271
0.20316
0.208494
0.199205
0.00798388
0.19825
0.0112298
0.197166
0.0141536
0.195937
0.0170006
0.194531
0.0198309
0.19295
0.0226808
0.191196
0.0255836
0.189267
0.028573
0.187144
0.031683
0.184806
0.0349405
0.182238
0.0383794
0.17942
0.0420343
0.17633
0.0459379
0.172947
0.0501355
0.169236
0.0546749
0.165146
0.0596146
0.160635
0.065035
0.155638
0.0710424
0.15005
0.0777566
0.143785
0.0853115
0.136726
0.0939168
0.128664
0.103854
0.119426
0.115352
0.108766
0.128829
0.096293
0.144672
0.0816722
0.163218
0.0646307
0.183952
0.045048
0.207811
0.0240601
0.223658
0.232458
0.199223
0.00852705
0.198297
0.0119584
0.197246
0.015056
0.196055
0.0180796
0.194706
0.0210882
0.193197
0.0241197
0.191526
0.027209
0.189688
0.0303925
0.187669
0.0337041
0.18545
0.0371764
0.183013
0.0408435
0.180339
0.0447395
0.177409
0.0489056
0.174209
0.0533921
0.170703
0.0582476
0.166837
0.0635445
0.162558
0.0693806
0.157817
0.075853
0.152544
0.0831003
0.146624
0.0913011
0.139958
0.100646
0.132396
0.111461
0.12371
0.124059
0.113703
0.138825
0.102025
0.156278
0.088332
0.176752
0.0721979
0.199803
0.0534097
0.226166
0.031868
0.244655
0.264114
0.199242
0.00905062
0.198346
0.0126556
0.197331
0.0159152
0.196187
0.0191029
0.194899
0.0222777
0.193465
0.0254789
0.191881
0.0287425
0.19014
0.0321059
0.188234
0.0356043
0.186149
0.0392762
0.183857
0.0431564
0.181345
0.0472751
0.178601
0.0516835
0.175604
0.0564382
0.172319
0.0615879
0.168716
0.0672121
0.164735
0.073421
0.160318
0.08032
0.155441
0.0880342
0.150015
0.0967831
0.143918
0.106788
0.137076
0.118325
0.129321
0.131802
0.120512
0.147583
0.110433
0.16623
0.0988772
0.188086
0.0853411
0.212982
0.069693
0.241317
0.0490117
0.264759
0.312762
0.19926
0.0095558
0.198394
0.0133208
0.197417
0.01673
0.196321
0.0200691
0.195096
0.0233978
0.193737
0.0267563
0.192242
0.0301808
0.190604
0.0337094
0.188822
0.0373786
0.186872
0.0412358
0.184727
0.0453123
0.182383
0.0496361
0.179831
0.0542686
0.177051
0.059263
0.174008
0.0646794
0.17068
0.0705959
0.167035
0.077116
0.163022
0.0843715
0.158601
0.092494
0.153755
0.101671
0.148411
0.112158
0.142531
0.124197
0.136103
0.138179
0.129089
0.154489
0.121567
0.173559
0.113706
0.195652
0.105556
0.220696
0.0979625
0.248367
0.0866067
0.275548
0.398778
0.00265267
-0.00272901
0.00599603
-0.0034785
0.0089278
-0.00323667
0.0111764
-0.00270996
0.0128414
-0.00219154
0.0141608
-0.00177564
0.0153627
-0.00148074
0.016594
-0.00129025
0.0178987
-0.00117324
0.0192516
-0.0010858
0.0206257
-0.000994881
0.0219623
-0.000876693
0.0232009
-0.000737048
0.024307
-0.000597057
0.0252399
-0.00042956
0.0259926
-0.000227871
0.0265846
-5.62298e-05
0.0270368
7.66494e-05
0.027403
0.000186888
0.027708
0.000259961
0.0279921
0.000280346
0.0283498
0.000244
0.0287556
0.000173778
0.0292026
9.0999e-05
0.0298274
1.03759e-06
0.0305621
-0.000102904
0.0312769
-0.000208086
0.0321277
-0.000296483
0.0332117
-0.00036676
-0.000423553
0.00283372
-0.00563867
0.00599963
-0.00679321
0.00884762
-0.00640296
0.0111397
-0.0054707
0.0129498
-0.00452692
0.0144937
-0.00376761
0.0159674
-0.00322695
0.0175027
-0.00287673
0.0191344
-0.00266627
0.0208341
-0.00251452
0.0225979
-0.00237891
0.0243892
-0.002225
0.0261581
-0.00203002
0.0278764
-0.00180996
0.0294901
-0.00152802
0.0309584
-0.00117747
0.0322568
-0.000832768
0.0333869
-0.00052172
0.0343968
-0.00026946
0.035308
-0.000113668
0.0361679
-5.96068e-05
0.0370806
-9.60049e-05
0.0380281
-0.000194036
0.0389818
-0.000315216
0.0400281
-0.000429829
0.0410871
-0.000542393
0.0420661
-0.000653201
0.0431091
-0.000751585
0.044289
-0.000836602
-0.000882238
0.00276016
-0.00847924
0.00555953
-0.00976828
0.00794609
-0.00913318
0.00981901
-0.0078253
0.0112969
-0.00652214
0.0125822
-0.00548182
0.0138417
-0.00474994
0.0151818
-0.00427289
0.016619
-0.00397831
0.0181302
-0.00378098
0.0197143
-0.00361879
0.0213412
-0.00344885
0.0229701
-0.00322703
0.0245923
-0.00294963
0.0261831
-0.0026092
0.0277283
-0.00221307
0.0292219
-0.00180755
0.0306419
-0.00141153
0.0319792
-0.00106351
0.0332004
-0.000819367
0.0343141
-0.000687123
0.0354055
-0.000645645
0.0364655
-0.000675241
0.0374568
-0.000738572
0.0384347
-0.00080285
0.0393706
-0.000869056
0.0402316
-0.000939509
0.0411098
-0.00101158
0.042057
-0.0010892
-0.00113333
0.00270801
-0.0112788
0.00511839
-0.0123925
0.00698742
-0.0113806
0.00835427
-0.009685
0.0094076
-0.00806827
0.0103416
-0.00680256
0.0112996
-0.00593136
0.0123391
-0.00536801
0.0134626
-0.00500379
0.0146681
-0.00476629
0.0159365
-0.00458245
0.0172472
-0.00439123
0.0185821
-0.00415724
0.0199406
-0.00386463
0.0213099
-0.00351359
0.0226686
-0.00310709
0.0240192
-0.00266928
0.0253546
-0.00223571
0.0266549
-0.00184053
0.027871
-0.0015274
0.0289743
-0.00130599
0.0300104
-0.00115645
0.0309743
-0.00107086
0.0318349
-0.00102345
0.0326135
-0.000985483
0.0333012
-0.000952878
0.0338942
-0.000931397
0.0344437
-0.000929619
0.0350017
-0.000966528
-0.00106053
0.0026238
-0.0140096
0.00459449
-0.0146238
0.00590884
-0.0131144
0.00672966
-0.0109996
0.00731243
-0.00909907
0.00783936
-0.00765087
0.00842928
-0.00665777
0.00910413
-0.00602754
0.00984318
-0.00562406
0.010654
-0.00535042
0.0115193
-0.00514283
0.0124306
-0.00494647
0.0133957
-0.00473161
0.0144104
-0.00447046
0.0154674
-0.0041458
0.0165448
-0.00375523
0.0176304
-0.003305
0.0187097
-0.0028333
0.0197469
-0.00237792
0.0207017
-0.00197753
0.0215522
-0.00165601
0.0223272
-0.00140796
0.0230353
-0.00122477
0.0236647
-0.00108328
0.0242264
-0.000959352
0.024723
-0.000849249
0.0251649
-0.000763214
0.0255869
-0.000715775
0.0260246
-0.000731643
-0.000858835
0.00245164
-0.016583
0.00390353
-0.016387
0.00461841
-0.0142813
0.00486448
-0.0117204
0.0049385
-0.00956077
0.00499928
-0.00796711
0.00515729
-0.00686542
0.00543041
-0.00617635
0.00575507
-0.00575884
0.0061358
-0.00548301
0.00658163
-0.00528051
0.00709137
-0.00510849
0.00767667
-0.00493453
0.00832584
-0.0047204
0.00903384
-0.00443852
0.00978961
-0.00408478
0.0105864
-0.00366713
0.0114244
-0.00321356
0.0122787
-0.00275408
0.0131151
-0.00231969
0.0139028
-0.00193891
0.0146357
-0.00161936
0.0153067
-0.00135229
0.0159034
-0.00111782
0.0164246
-0.000899732
0.0168702
-0.000697928
0.017245
-0.00052519
0.0175665
-0.000400433
0.0178556
-0.000353401
-0.00051787
0.00214282
-0.01886
0.00297363
-0.0175814
0.00302441
-0.0147926
0.0026658
-0.0117878
0.00219913
-0.00940582
0.00175224
-0.00771964
0.00145259
-0.00656266
0.00132185
-0.00585692
0.00126298
-0.00546271
0.00128307
-0.0052392
0.00140476
-0.00510475
0.00163292
-0.00500642
0.00196758
-0.00490564
0.00239895
-0.00476694
0.00292456
-0.00456367
0.00353643
-0.00428311
0.00422033
-0.00392812
0.00496563
-0.00351855
0.00574742
-0.00307521
0.0065282
-0.00262126
0.00726702
-0.00218269
0.00793699
-0.00177606
0.00852058
-0.0014017
0.00900575
-0.00104862
0.00938697
-0.000706703
0.0096562
-0.000374144
0.00980695
-6.36416e-05
0.00985278
0.000189477
0.00986917
0.000293529
9.07011e-05
0.00164421
-0.0206447
0.00172842
-0.0180783
0.00102822
-0.0145345
1.78003e-05
-0.0111255
-0.00100564
-0.00859615
-0.00194856
-0.00689848
-0.00267081
-0.00580588
-0.00315246
-0.0051843
-0.0034832
-0.00489135
-0.00367249
-0.00478594
-0.00372081
-0.00477219
-0.00363067
-0.00478764
-0.00341177
-0.00478998
-0.00307862
-0.00474463
-0.00264423
-0.00462387
-0.00212482
-0.00441191
-0.00153973
-0.00410699
-0.000909821
-0.00372367
-0.000258651
-0.00328124
0.000386507
-0.00280132
0.000991934
-0.00230413
0.00152395
-0.00180421
0.00195497
-0.00130755
0.00226998
-0.000817153
0.00246918
-0.000338227
0.00256882
0.000114658
0.0025873
0.000527705
0.00253348
0.000876709
0.00243274
0.00105405
0.000889157
0.000877486
-0.0216546
4.36483e-05
-0.0176914
-0.00149692
-0.0133879
-0.00322123
-0.00964893
-0.00479055
-0.00712571
-0.00612266
-0.00557013
-0.00716422
-0.00468971
-0.00791941
-0.00426624
-0.00843434
-0.00415185
-0.00875108
-0.00421822
-0.00889425
-0.00436123
-0.00888225
-0.00451254
-0.00873381
-0.00462846
-0.00846816
-0.0046793
-0.0081029
-0.00463749
-0.0076614
-0.00448263
-0.00717043
-0.00420853
-0.00665591
-0.0038288
-0.00613924
-0.00336748
-0.00564281
-0.00284615
-0.00519379
-0.00228066
-0.00481886
-0.00168526
-0.00453423
-0.00107613
-0.00434083
-0.000472085
-0.00421976
0.000101606
-0.0041498
0.000627974
-0.00411947
0.00110355
-0.00410964
0.00149714
-0.00409556
0.00169634
0.00159386
-0.000247028
-0.0215156
-0.00221569
-0.0161739
-0.00473115
-0.0111861
-0.00716909
-0.00734592
-0.00924691
-0.00503646
-0.0108831
-0.0038197
-0.0121473
-0.0032956
-0.0130862
-0.00318237
-0.0137118
-0.00332329
-0.0140936
-0.00360534
-0.0142758
-0.00392917
-0.0142952
-0.00422572
-0.0141792
-0.0044556
-0.0139511
-0.00459721
-0.013632
-0.00462506
-0.0132494
-0.00451285
-0.012833
-0.00425204
-0.012407
-0.00386052
-0.0119901
-0.00336821
-0.0115981
-0.00279956
-0.011248
-0.00216992
-0.0109548
-0.00149485
-0.0107269
-0.000797224
-0.0105597
-0.00010891
-0.0104423
0.000538052
-0.0103637
0.001127
-0.0103061
0.00164774
-0.010246
0.00206354
-0.0101779
0.00228114
0.00223679
-0.00185038
-0.0197368
-0.00523426
-0.013201
-0.00893023
-0.00769474
-0.0120874
-0.00421514
-0.0145737
-0.00245689
-0.0164192
-0.00179481
-0.0177813
-0.00175898
-0.0187612
-0.00204804
-0.0193926
-0.00250528
-0.0197542
-0.00303258
-0.0199047
-0.00354714
-0.0198984
-0.00398229
-0.0197728
-0.0043111
-0.0195476
-0.00453083
-0.0192385
-0.00462088
-0.0188732
-0.00454299
-0.0184875
-0.00428061
-0.0181075
-0.00386101
-0.0177435
-0.00332969
-0.0173996
-0.00271762
-0.0170834
-0.00203681
-0.0168078
-0.0012972
-0.0165846
-0.000522928
-0.0164164
0.000244791
-0.0162983
0.000966675
-0.0162165
0.00161669
-0.016145
0.00217297
-0.0160593
0.00260019
-0.0159644
0.00283543
0.00283638
-0.00417901
-0.0155852
-0.00949132
-0.00820567
-0.0145511
-0.00271511
-0.01839
-0.000316221
-0.0210368
0.000325087
-0.022783
0.000136008
-0.0239657
-0.00039492
-0.0247615
-0.00108629
-0.0252472
-0.00184369
-0.0254861
-0.0025995
-0.0255299
-0.00328952
-0.0254407
-0.00383853
-0.0252649
-0.00423373
-0.0250108
-0.00451038
-0.0246779
-0.00465717
-0.0242923
-0.00460939
-0.0239001
-0.00433078
-0.0235307
-0.00386499
-0.0231849
-0.00328626
-0.0228534
-0.00263565
-0.0225383
-0.00191387
-0.0222562
-0.00111647
-0.0220266
-0.000264521
-0.0218607
0.000592472
-0.0217531
0.00139821
-0.0216797
0.00210842
-0.0216065
0.0026911
-0.0215074
0.00311879
-0.0213898
0.00336315
0.00339436
-0.00753449
-0.00801117
-0.0157674
-0.000150739
-0.0218305
0.00337387
-0.0255352
0.00349855
-0.0277236
0.00265496
-0.0290791
0.0016549
-0.0299381
0.000626659
-0.0304854
-0.000379364
-0.0307997
-0.00136422
-0.0308985
-0.00232112
-0.0308054
-0.00318469
-0.0306019
-0.00382491
-0.0303597
-0.00423837
-0.0300653
-0.0045458
-0.0296841
-0.00475707
-0.0292412
-0.00474803
-0.0288097
-0.00443439
-0.0284313
-0.00389152
-0.0280921
-0.00324898
-0.0277621
-0.0025642
-0.027435
-0.00181412
-0.0271375
-0.000961417
-0.0269035
-1.99352e-05
-0.0267495
0.000943416
-0.0266645
0.00184476
-0.0266123
0.00261462
-0.0265483
0.00321266
-0.0264423
0.00362547
-0.0263001
0.00386217
0.00390654
-0.0132125
0.00537861
-0.0229025
0.00949569
-0.0288203
0.00937371
-0.0321491
0.00694267
-0.03383
0.00446074
-0.0348602
0.00282263
-0.0354858
0.00139439
-0.0357985
7.9506e-05
-0.035906
-0.00110315
-0.0358385
-0.00222172
-0.0355514
-0.00328793
-0.0351744
-0.00399898
-0.0348535
-0.00433615
-0.0345259
-0.00462883
-0.0340788
-0.00493704
-0.0335342
-0.00500222
-0.0330298
-0.00462436
-0.0326354
-0.00394693
-0.0323083
-0.00321195
-0.0319798
-0.00250286
-0.0316323
-0.00174575
-0.0313092
-0.000842191
-0.0310686
0.00020857
-0.0309355
0.00130664
-0.0308876
0.00232061
-0.0308717
0.0031502
-0.0308289
0.00374924
-0.0307211
0.00412505
-0.030551
0.00432885
0.00436658
-0.0203891
0.0262014
-0.030459
0.0195024
-0.0371402
0.0161095
-0.0399452
0.00983194
-0.0396745
0.00429018
-0.0400602
0.00332188
-0.0405177
0.00197509
-0.0405339
0.000227299
-0.0403337
-0.00116198
-0.0401008
-0.00229985
-0.0395604
-0.0036573
-0.0389225
-0.00444717
-0.0385339
-0.00451499
-0.0382269
-0.00470448
-0.0377091
-0.00520091
-0.0369944
-0.00543938
-0.0363718
-0.00494509
-0.035969
-0.00402291
-0.0356813
-0.00314714
-0.0353664
-0.00243909
-0.0349837
-0.00172303
-0.0346138
-0.000779623
-0.0343599
0.00041459
-0.0342577
0.00169229
-0.0342667
0.00284565
-0.0343077
0.00373564
-0.0343011
0.00431573
-0.0341973
0.00462324
-0.0339956
0.00475906
0.00476418
0.20692
0.0100513
0.206061
0.0139683
0.205098
0.0175186
0.204021
0.0210008
0.202825
0.024475
0.201506
0.0279819
0.200063
0.0315573
0.198493
0.035239
0.196791
0.0390706
0.194925
0.0431015
0.192882
0.0473549
0.190661
0.0518689
0.188251
0.0567011
0.185645
0.0619021
0.182818
0.0675468
0.179738
0.0737144
0.176395
0.0804911
0.172775
0.0880155
0.168848
0.0964355
0.164654
0.105882
0.160203
0.116604
0.155505
0.128841
0.150711
0.14287
0.14605
0.158974
0.142019
0.177318
0.139469
0.197811
0.139876
0.219756
0.146026
0.2416
0.161251
0.259692
0.272064
0.287392
0.211953
0.0105311
0.211115
0.0145879
0.21018
0.0182676
0.209141
0.0218811
0.207994
0.0254889
0.206738
0.0291323
0.205377
0.0328451
0.203906
0.0366668
0.20231
0.0406486
0.200563
0.0448304
0.19867
0.0492377
0.196629
0.0539157
0.194426
0.0589143
0.192051
0.0642913
0.189504
0.0701137
0.186767
0.0764681
0.183822
0.083442
0.180711
0.0911337
0.177471
0.0996763
0.174135
0.109204
0.170779
0.119909
0.167552
0.131963
0.164768
0.145493
0.162939
0.160562
0.162925
0.176992
0.166109
0.194171
0.174541
0.210751
0.190986
0.22452
0.216419
0.233622
0.244783
0.243185
0.217115
0.0109898
0.216305
0.0151724
0.215406
0.0189688
0.214413
0.0227003
0.213322
0.0264277
0.212142
0.0301926
0.210878
0.0340299
0.20952
0.03798
0.208045
0.0420896
0.206447
0.0463959
0.204732
0.0509333
0.202901
0.0557416
0.200942
0.0608742
0.198848
0.0663846
0.196628
0.0723302
0.194279
0.078802
0.191823
0.0858724
0.189343
0.0936019
0.186901
0.102107
0.184541
0.111517
0.182433
0.121918
0.180858
0.133381
0.180249
0.145882
0.181255
0.159256
0.184772
0.173082
0.191872
0.186581
0.20337
0.198687
0.219198
0.208099
0.237719
0.214543
0.219166
0.262919
0.222408
0.011422
0.221635
0.0157153
0.220778
0.019615
0.219838
0.0234498
0.218812
0.0272809
0.217714
0.0311516
0.216557
0.0350988
0.215324
0.0391595
0.213997
0.0433722
0.21257
0.0477798
0.211057
0.0524182
0.209458
0.0573249
0.207763
0.0625544
0.205991
0.0681435
0.204149
0.0741523
0.202248
0.0806585
0.200373
0.0876972
0.198597
0.0953391
0.196985
0.103665
0.195681
0.112731
0.194907
0.122548
0.194994
0.133082
0.196409
0.144195
0.199717
0.155602
0.205523
0.166854
0.214306
0.177306
0.226188
0.186273
0.240973
0.192779
0.258766
0.19626
0.195983
0.281586
0.22784
0.0118207
0.227112
0.0162103
0.226301
0.0202003
0.22542
0.0241217
0.224469
0.0280399
0.22346
0.0320009
0.222414
0.0360369
0.221323
0.0401833
0.220167
0.0444772
0.218929
0.0489635
0.217631
0.0536724
0.216288
0.0586423
0.214889
0.0639208
0.213467
0.0695302
0.212051
0.0755319
0.210671
0.0819771
0.209422
0.088883
0.208372
0.0963174
0.207636
0.104294
0.207418
0.112811
0.207937
0.121834
0.209513
0.131248
0.212529
0.140869
0.217364
0.150396
0.224355
0.159433
0.233706
0.167483
0.245483
0.174003
0.259528
0.178253
0.275523
0.179832
0.177931
0.29325
0.233405
0.0121826
0.232726
0.016654
0.231976
0.0207159
0.231168
0.0247062
0.230295
0.0286977
0.229381
0.0327295
0.228457
0.0368288
0.227525
0.0410336
0.226558
0.0453878
0.225516
0.0499288
0.224447
0.054672
0.22339
0.0596611
0.222323
0.0649359
0.221282
0.0705067
0.220328
0.0764287
0.219498
0.0827296
0.218882
0.0894144
0.218586
0.0965097
0.218748
0.103992
0.21955
0.111834
0.221193
0.119957
0.22394
0.128215
0.228063
0.136413
0.23381
0.14427
0.24136
0.151464
0.250796
0.157601
0.26212
0.162226
0.275009
0.16493
0.288905
0.165548
0.163001
0.303538
0.239099
0.0125053
0.238472
0.0170375
0.237799
0.0211523
0.237074
0.025199
0.236283
0.0292465
0.235478
0.0333232
0.234694
0.0374596
0.233934
0.0417009
0.233156
0.0460939
0.232327
0.0506533
0.231522
0.0553873
0.230777
0.0603518
0.230061
0.0655722
0.229429
0.0710462
0.228959
0.0768175
0.228688
0.0828954
0.228716
0.0892671
0.229159
0.0959279
0.23014
0.102841
0.231812
0.109954
0.234352
0.117158
0.23796
0.124305
0.242828
0.131204
0.249093
0.137629
0.256839
0.143315
0.266105
0.147915
0.27678
0.151135
0.288504
0.152811
0.300855
0.152846
0.150025
0.313555
0.244934
0.0127811
0.244364
0.017353
0.243756
0.0215098
0.24311
0.025598
0.242425
0.0296734
0.241751
0.0337683
0.241125
0.0379203
0.240544
0.0421789
0.239962
0.0465774
0.239375
0.051112
0.23886
0.0558017
0.238437
0.0606998
0.238091
0.0658124
0.23789
0.0711339
0.237905
0.0766915
0.238187
0.0824787
0.238829
0.0884728
0.239934
0.0946508
0.241613
0.100961
0.244003
0.107328
0.247246
0.113641
0.251484
0.119758
0.256827
0.12552
0.263348
0.130741
0.271108
0.135167
0.280072
0.138558
0.290048
0.140774
0.300762
0.141737
0.311905
0.141378
0.138539
0.323133
0.250907
0.0130094
0.250386
0.0176058
0.249838
0.0217853
0.24928
0.025887
0.248728
0.0299635
0.248204
0.0340552
0.247746
0.0382033
0.247352
0.0424512
0.246987
0.0468151
0.246665
0.0512909
0.246446
0.0559056
0.246349
0.0606929
0.246384
0.0656498
0.246612
0.070772
0.247096
0.0760673
0.247895
0.0815192
0.249091
0.0870978
0.250779
0.0927638
0.253058
0.0984575
0.256035
0.104097
0.259818
0.109574
0.264491
0.114772
0.270117
0.119557
0.276758
0.123741
0.28442
0.127136
0.292989
0.12962
0.302295
0.131112
0.312134
0.131564
0.322261
0.130949
0.128215
0.33234
0.257007
0.0131887
0.256531
0.0177866
0.256062
0.0219611
0.255614
0.0260499
0.255204
0.0301079
0.254843
0.0341769
0.25456
0.0382967
0.254359
0.0425005
0.254225
0.0467962
0.254176
0.0511853
0.254253
0.0556897
0.254484
0.0603266
0.254892
0.0650913
0.255531
0.0699759
0.256458
0.0749731
0.257734
0.0800596
0.259431
0.085199
0.26163
0.0903436
0.264412
0.0954321
0.267858
0.100383
0.272037
0.105103
0.277
0.109494
0.282804
0.113419
0.289468
0.116729
0.29693
0.119323
0.305079
0.121125
0.313777
0.122081
0.322858
0.122171
0.33213
0.121393
0.118809
0.341303
0.263252
0.0133094
0.262828
0.0178795
0.262449
0.0220246
0.262122
0.0260804
0.261855
0.0301003
0.261661
0.0341248
0.261559
0.0381894
0.261559
0.0423183
0.261661
0.046518
0.261883
0.0507918
0.262255
0.0551526
0.26281
0.0596077
0.263579
0.0641499
0.264608
0.0687665
0.265949
0.0734407
0.267659
0.078144
0.269801
0.082836
0.272441
0.0874649
0.275635
0.0919797
0.279436
0.0963047
0.2839
0.100342
0.289074
0.104007
0.294974
0.107192
0.301566
0.109803
0.308781
0.111774
0.316526
0.113053
0.324682
0.113611
0.333113
0.113446
0.341668
0.112569
0.110152
0.350102
0.269658
0.0133632
0.269292
0.0178797
0.269006
0.0219725
0.2688
0.025974
0.268678
0.0299341
0.268653
0.0338905
0.268738
0.0378733
0.268946
0.0419014
0.269285
0.0459798
0.269773
0.0501107
0.270438
0.0542995
0.271309
0.0585468
0.272422
0.0628423
0.273816
0.0671696
0.275538
0.0715057
0.277637
0.0758196
0.280166
0.0800689
0.28317
0.0842077
0.286689
0.0881905
0.290771
0.0919363
0.295459
0.0953553
0.300767
0.098387
0.306676
0.100963
0.313141
0.103015
0.320101
0.104496
0.327471
0.105373
0.335149
0.105636
0.343023
0.105294
0.350972
0.104363
0.102116
0.358792
0.276227
0.0133446
0.275925
0.0177831
0.275734
0.0218013
0.27565
0.0257264
0.275676
0.0296043
0.27582
0.0334686
0.276096
0.0373452
0.276514
0.041249
0.277089
0.0451829
0.277839
0.0491463
0.278788
0.0531393
0.279964
0.0571581
0.2814
0.0611893
0.283132
0.0652142
0.285199
0.0692057
0.28764
0.0731354
0.290491
0.0769645
0.293791
0.0806417
0.297583
0.0841193
0.301898
0.0873294
0.306742
0.0902097
0.312107
0.0927141
0.317969
0.0947886
0.324286
0.0963876
0.330995
0.0974798
0.338023
0.0980491
0.345281
0.0980949
0.352676
0.0976326
0.360113
0.0966814
0.0946014
0.367419
0.28296
0.0132493
0.282728
0.0175857
0.282634
0.0215074
0.282673
0.0253342
0.282847
0.0291073
0.283164
0.0328564
0.28363
0.0366041
0.284258
0.0403624
0.285066
0.044131
0.286072
0.0479057
0.287295
0.0516836
0.288759
0.0554587
0.290496
0.0592137
0.292534
0.062932
0.294901
0.0665877
0.297634
0.070143
0.300766
0.0735641
0.304328
0.0768035
0.308345
0.0798154
0.312823
0.0825558
0.317756
0.0849755
0.323131
0.0870342
0.32892
0.0886946
0.335078
0.089927
0.34155
0.090713
0.348268
0.0910467
0.355157
0.0909342
0.362141
0.0903936
0.369141
0.0894451
0.0875266
0.376013
0.289861
0.0130737
0.289702
0.017284
0.289707
0.0210877
0.289871
0.0247946
0.290194
0.0284413
0.290683
0.0320532
0.291338
0.0356511
0.292172
0.0392449
0.293207
0.0428299
0.294462
0.0463982
0.295947
0.0499451
0.29768
0.0534681
0.299685
0.0569492
0.301992
0.0603608
0.30463
0.063681
0.307626
0.066873
0.311007
0.0699029
0.314784
0.0727391
0.318965
0.0753412
0.323552
0.0776715
0.328533
0.0796936
0.333889
0.0813769
0.339588
0.0826959
0.345589
0.0836326
0.351838
0.0841779
0.358277
0.0843324
0.364843
0.0841065
0.371472
0.083519
0.378098
0.0825898
0.0808257
0.384602
0.296932
0.0128149
0.296849
0.0168751
0.296955
0.0205393
0.297242
0.0241058
0.297717
0.0276056
0.298378
0.0310604
0.299218
0.0344901
0.300246
0.0379017
0.301505
0.0412859
0.303006
0.0446358
0.30473
0.047948
0.306701
0.0512133
0.308954
0.0544148
0.311511
0.0575216
0.314397
0.0605102
0.317625
0.0633572
0.321205
0.0660312
0.325146
0.0685022
0.32945
0.0707389
0.33411
0.0727113
0.339111
0.0743925
0.344429
0.0757607
0.350031
0.0767992
0.355878
0.0774983
0.361922
0.0778552
0.368112
0.0778751
0.374395
0.0775702
0.380715
0.0769595
0.387021
0.0760615
0.0744443
0.393209
0.304176
0.012471
0.304172
0.0163568
0.30438
0.0198599
0.304788
0.0232655
0.305416
0.0265996
0.306259
0.0298815
0.307274
0.0331291
0.308483
0.0363406
0.30995
0.0395092
0.311679
0.0426344
0.313628
0.045708
0.315823
0.0487108
0.31831
0.0516266
0.321096
0.0544358
0.324193
0.0571142
0.32761
0.0596391
0.331354
0.0619852
0.335427
0.0641272
0.339822
0.0660402
0.344529
0.0677017
0.349529
0.0690921
0.354797
0.0701966
0.3603
0.0710055
0.366001
0.0715144
0.371859
0.0717252
0.377827
0.0716456
0.383861
0.0712887
0.389914
0.0706726
0.395943
0.0698145
0.068337
0.40186
0.311598
0.0120394
0.311676
0.0157273
0.311987
0.019048
0.312516
0.022272
0.31329
0.0254246
0.314306
0.028522
0.315499
0.0315728
0.316892
0.0345702
0.318549
0.0375142
0.320472
0.0404064
0.322635
0.0432324
0.325051
0.0459733
0.327746
0.0486138
0.330731
0.0511366
0.33401
0.0535214
0.33759
0.0557476
0.341469
0.0577943
0.345645
0.0596413
0.350108
0.0612693
0.354842
0.0626617
0.359828
0.0638051
0.365039
0.06469
0.370445
0.0653114
0.376011
0.0656693
0.3817
0.065768
0.387472
0.0656168
0.393288
0.065229
0.399109
0.0646214
0.4049
0.0638097
0.0624647
0.410583
0.319203
0.0115178
0.319367
0.0149858
0.319783
0.0181053
0.320438
0.0211299
0.321348
0.024085
0.322508
0.0269822
0.323875
0.0298213
0.325462
0.0325974
0.327303
0.0353121
0.329404
0.037964
0.33176
0.0405398
0.334374
0.0430224
0.337258
0.0453967
0.340419
0.0476469
0.343858
0.049756
0.347575
0.0517067
0.351567
0.0534819
0.355825
0.0550658
0.360337
0.0564439
0.365085
0.0576044
0.370049
0.0585386
0.375202
0.0592411
0.380516
0.0597106
0.385958
0.0599494
0.391496
0.0599638
0.397095
0.0597636
0.402721
0.0593616
0.408342
0.0587732
0.413926
0.0580127
0.0567938
0.419409
0.326994
0.0109052
0.327246
0.0141325
0.327767
0.0170341
0.328548
0.0198444
0.329588
0.0225851
0.330883
0.0252645
0.332414
0.0278808
0.334181
0.03043
0.3362
0.0329113
0.338476