/*--------------------------------*- C++ -*----------------------------------*\
| =========                 |                                                 |
| \\      /  F ield         | OpenFOAM: The Open Source CFD Toolbox           |
|  \\    /   O peration     | Version:  dev                                   |
|   \\  /    A nd           | Web:      www.OpenFOAM.org                      |
|    \\/     M anipulation  |                                                 |
\*---------------------------------------------------------------------------*/
FoamFile
{
    version     2.0;
    format      ascii;
    class       volVectorField;
    location    "4.9";
    object      U;
}
// * * * * * * * * * * * * * * * * * * * * * * * * * * * * * * * * * * * * * //

dimensions      [0 1 -1 0 0 0 0];

internalField   nonuniform List<vector> 
2790
(
(9.93381 -2.88781e-20 0.0185638)
(9.86615 -1.86951e-21 0.0256873)
(9.77369 1.94293e-21 0.0303027)
(9.66114 0 0.0350597)
(9.53488 -1.69143e-20 0.0400123)
(9.39652 0 0.0451218)
(9.24535 -9.21627e-21 0.0505208)
(9.08041 1.9357e-20 0.0563588)
(8.90084 -2.00393e-20 0.062757)
(8.70577 2.64457e-20 0.0698302)
(8.49417 2.63566e-22 0.0776998)
(8.26485 -2.29397e-20 0.0864953)
(8.01643 -9.44317e-23 0.0963599)
(7.74743 -3.16838e-21 0.107455)
(7.45625 5.36262e-20 0.119959)
(7.14116 -5.54396e-20 0.134059)
(6.8004 1.4656e-20 0.149942)
(6.43217 1.24269e-19 0.167792)
(6.03481 -1.28418e-19 0.187786)
(5.6068 1.37103e-19 0.210079)
(5.14693 -3.33545e-20 0.234773)
(4.65446 1.48498e-19 0.26189)
(4.12929 7.82936e-20 0.291334)
(3.57226 -2.47692e-19 0.322835)
(2.98536 -4.08471e-21 0.355862)
(2.37214 -9.18207e-20 0.389429)
(1.73801 3.62003e-19 0.421699)
(1.09274 0 0.447145)
(0.4007 0 0.414085)
(-0.148023 3.93305e-19 -0.199929)
(9.99717 3.24656e-20 0.0364259)
(9.98883 -3.73017e-21 0.0523073)
(9.95732 -1.54816e-20 0.0634354)
(9.90386 -1.6142e-20 0.0754087)
(9.83383 1.68663e-20 0.0883464)
(9.749 -3.51618e-20 0.10208)
(9.64891 2.75233e-20 0.116864)
(9.53276 -3.85099e-20 0.133026)
(9.39982 3.98398e-20 0.150842)
(9.2493 -1.56821e-20 0.17058)
(9.08027 9.89674e-20 0.192524)
(8.8916 -9.09889e-20 0.216973)
(8.68202 9.36266e-23 0.24426)
(8.45007 3.13857e-21 0.274753)
(8.19418 1.31367e-20 0.308843)
(7.91263 -2.22434e-19 0.346921)
(7.60359 -1.81575e-20 0.389346)
(7.26516 -3.42486e-20 0.436421)
(6.8955 3.16337e-19 0.488364)
(6.4928 5.38975e-19 0.545256)
(6.05547 -4.50936e-19 0.606938)
(5.58218 0 0.672905)
(5.0721 5.41257e-19 0.742171)
(4.52503 -7.15547e-19 0.813084)
(3.94167 1.65922e-19 0.883013)
(3.32391 8.6166e-20 0.94775)
(2.67511 0 1.0002)
(2.00369 -1.44954e-18 1.02558)
(1.26766 1.45108e-18 0.988435)
(0.785414 3.09243e-18 0.820309)
(9.99447 0 0.0368514)
(9.98354 0 0.0594755)
(9.95437 3.10127e-20 0.0779357)
(9.90573 -6.45594e-20 0.0976252)
(9.84173 -3.36456e-20 0.118986)
(9.76419 3.70121e-23 0.141893)
(9.67289 -5.49089e-20 0.16667)
(9.56718 0 0.19377)
(9.4464 -8.02189e-20 0.223621)
(9.30991 1.97993e-19 0.256653)
(9.15695 -2.72801e-19 0.293327)
(8.98658 3.64414e-19 0.334137)
(8.79768 -1.89342e-19 0.379643)
(8.58901 1.94661e-19 0.430469)
(8.35916 -2.20415e-19 0.487283)
(8.10661 0 0.55077)
(7.82965 0 0.621584)
(7.52644 5.14126e-19 0.700305)
(7.19506 -1.00647e-18 0.78741)
(6.83352 -8.43329e-21 0.883177)
(6.43976 4.77857e-19 0.987536)
(6.01169 1.43529e-19 1.09989)
(5.54726 1.21112e-18 1.21887)
(5.04445 3.28516e-19 1.34212)
(4.50115 -2.76026e-18 1.46576)
(3.91492 1.33513e-18 1.58367)
(3.28153 3.11489e-18 1.68618)
(2.59581 -5.98022e-18 1.75718)
(1.79659 -1.52555e-20 1.7773)
(1.08488 2.64894e-18 1.72474)
(9.99264 -7.18407e-21 0.039602)
(9.97929 2.23183e-20 0.0706566)
(9.9499 1.55472e-20 0.0979185)
(9.90233 6.46426e-20 0.125724)
(9.83978 1.06094e-22 0.155188)
(9.76404 1.05322e-19 0.18656)
(9.67509 2.5718e-22 0.220307)
(9.57244 -7.65357e-20 0.257029)
(9.45555 7.91294e-20 0.297315)
(9.32391 1.4615e-19 0.341761)
(9.17698 1.98993e-21 0.390989)
(9.01405 -1.8008e-19 0.445678)
(8.8343 0 0.506595)
(8.63677 1.23714e-20 0.574596)
(8.42042 0 0.650603)
(8.18411 -4.36654e-19 0.735591)
(7.92655 4.50115e-19 0.830532)
(7.64623 -5.91179e-20 0.936352)
(7.34155 8.14397e-19 1.05389)
(7.01071 -1.02952e-18 1.1838)
(6.65171 -1.22667e-18 1.3264)
(6.26214 -2.40224e-18 1.48144)
(5.83919 2.76351e-19 1.64784)
(5.37932 9.07426e-19 1.82338)
(4.87783 -3.14487e-19 2.00438)
(4.32805 0 2.18521)
(3.71909 -3.36146e-19 2.35782)
(3.03763 4.16061e-21 2.5112)
(2.22778 -5.83491e-18 2.63656)
(1.36642 5.88791e-18 2.77395)
(9.99162 0 0.0439013)
(9.97687 0 0.0820038)
(9.94728 3.09309e-20 0.116796)
(9.90055 -3.20898e-20 0.151777)
(9.83933 6.69223e-20 0.18859)
(9.76522 6.97308e-20 0.227861)
(9.67832 3.66513e-20 0.270177)
(9.57821 2.12769e-22 0.316217)
(9.46441 0 0.366678)
(9.3365 -4.12189e-20 0.422267)
(9.19404 1.73355e-19 0.483712)
(9.0365 -1.78917e-19 0.551811)
(8.86321 0 0.627483)
(8.67347 3.86109e-19 0.711751)
(8.46646 -4.07524e-19 0.805713)
(8.24139 2.67141e-20 0.910548)
(7.99738 0 1.0275)
(7.7333 5.86649e-20 1.1578)
(7.4479 2.44194e-19 1.30263)
(7.13974 0 1.46305)
(6.80709 -8.04728e-19 1.63988)
(6.44764 8.53807e-19 1.8335)
(6.05827 -2.58668e-19 2.04362)
(5.6347 -2.36552e-18 2.2689)
(5.17079 3.09036e-19 2.50685)
(4.65762 0 2.75379)
(4.08147 5.499e-18 3.00506)
(3.42562 -4.89934e-18 3.2559)
(2.66791 3.31522e-19 3.48845)
(1.69317 -6.97196e-19 3.8298)
(9.99101 9.98984e-20 0.0489616)
(9.97563 -7.38276e-20 0.0933901)
(9.94615 -1.84612e-19 0.135248)
(9.90042 3.19925e-20 0.177388)
(9.84079 -6.68204e-20 0.221606)
(9.76865 -6.9609e-20 0.268764)
(9.68416 1.45495e-19 0.319552)
(9.58696 -4.53119e-19 0.374719)
(9.47659 1.56733e-19 0.435059)
(9.35274 8.2052e-20 0.501374)
(9.21505 3.4428e-19 0.574487)
(9.06306 -1.817e-20 0.655307)
(8.89624 -3.82033e-19 0.744894)
(8.71404 3.04432e-21 0.844422)
(8.51582 0 0.955134)
(8.30096 -8.52758e-19 1.07836)
(8.06886 8.22447e-19 1.21556)
(7.81875 9.27711e-19 1.36827)
(7.54968 1.22461e-20 1.538)
(7.2605 -2.12351e-18 1.72622)
(6.94976 9.01943e-19 1.93428)
(6.61542 2.17477e-18 2.1633)
(6.25452 -4.4695e-18 2.41402)
(5.86268 2.29571e-18 2.68648)
(5.43338 0 2.97989)
(4.95745 3.01181e-19 3.29278)
(4.42175 -3.12349e-19 3.62299)
(3.80418 0 3.97171)
(3.14215 0 4.28907)
(2.07002 1.01634e-18 4.81652)
(9.99064 -9.98121e-20 0.0543882)
(9.97519 1.03355e-19 0.104784)
(9.9461 1.22856e-19 0.153307)
(9.90151 6.40325e-20 0.202376)
(9.84372 1.3319e-19 0.25375)
(9.77391 -2.08001e-19 0.308467)
(9.69226 1.43725e-19 0.367351)
(9.59843 7.52059e-20 0.431249)
(9.49206 -7.80885e-20 0.501039)
(9.37287 -4.08219e-20 0.577609)
(9.24058 0 0.661867)
(9.0948 6.63119e-20 0.754818)
(8.93511 -1.14371e-20 0.85764)
(8.76108 0 0.971637)
(8.57222 -8.06446e-19 1.09818)
(8.36804 8.03502e-19 1.23873)
(8.14806 5.45477e-20 1.3949)
(7.91175 -9.1093e-19 1.56846)
(7.65846 8.16954e-19 1.7613)
(7.38726 1.22838e-19 1.97527)
(7.09692 0 2.21229)
(6.78571 -1.84652e-18 2.47422)
(6.45112 4.60231e-18 2.76288)
(6.08923 2.00571e-20 3.07984)
(5.69385 -2.27702e-18 3.42605)
(5.2565 -4.96769e-18 3.80193)
(4.76694 9.43631e-18 4.20602)
(4.19171 -4.73993e-18 4.64647)
(3.64875 -4.67321e-18 5.02253)
(2.48843 -2.77716e-19 5.70986)
(9.99047 -2.26807e-19 0.0599474)
(9.97525 -2.64244e-19 0.116071)
(9.94684 -3.07114e-20 0.170895)
(9.90361 1.2728e-19 0.226587)
(9.84791 -4.63664e-19 0.284829)
(9.78077 2.75696e-19 0.346793)
(9.70232 1.00696e-21 0.413436)
(9.61232 -2.24154e-19 0.485691)
(9.51044 2.3261e-19 0.564511)
(9.3965 0 0.650858)
(9.27027 0 0.745715)
(9.13142 -4.39296e-20 0.85017)
(8.97961 -3.44107e-19 0.965504)
(8.81454 3.77678e-19 1.09313)
(8.63583 -7.94994e-19 1.23455)
(8.4432 -9.76579e-21 1.39135)
(8.23625 8.75886e-19 1.56528)
(8.0145 -5.51642e-20 1.75835)
(7.77759 -1.14397e-19 1.97273)
(7.52481 0 2.21071)
(7.25516 0 2.47472)
(6.96722 0 2.76737)
(6.65887 -1.34245e-19 3.09152)
(6.32699 0 3.45016)
(5.96633 0 3.84582)
(5.56905 -1.37017e-19 4.2804)
(5.12954 4.60458e-18 4.75129)
(4.59548 -4.47507e-18 5.27622)
(4.17898 2.71105e-19 5.69099)
(2.93692 0 6.51392)
(9.99051 5.86276e-22 0.0654848)
(9.97567 2.34482e-19 0.127134)
(9.94822 -2.43214e-19 0.18792)
(9.90664 6.34853e-20 0.249912)
(9.85326 6.67965e-20 0.314712)
(9.78906 -1.36708e-19 0.383594)
(9.71416 2.85415e-19 0.457628)
(9.62836 8.2343e-22 0.537823)
(9.53143 -1.53649e-19 0.625197)
(9.42324 -3.22306e-19 0.720778)
(9.30369 -3.12386e-21 0.825625)
(9.17246 3.88454e-19 0.940905)
(9.02925 4.49172e-20 1.06799)
(8.87391 7.53452e-19 1.20838)
(8.70617 -1.55693e-18 1.36365)
(8.52597 1.6193e-18 1.53553)
(8.33304 -8.5991e-19 1.72599)
(8.12696 8.15507e-20 1.93721)
(7.90752 1.13001e-19 2.17162)
(7.67428 0 2.43193)
(7.42654 0 2.72108)
(7.16321 -1.97439e-18 3.04238)
(6.88247 2.00591e-18 3.39961)
(6.58196 4.12001e-18 3.79701)
(6.2577 -4.16933e-18 4.23857)
(5.90209 6.86255e-20 4.72746)
(5.51534 4.06315e-18 5.25842)
(5.01921 -4.20133e-18 5.86225)
(4.7254 -2.63796e-19 6.30597)
(3.40622 0 7.2466)
(9.9906 2.25578e-19 0.0709016)
(9.97636 -2.6202e-19 0.137869)
(9.95007 2.7308e-19 0.204292)
(9.91035 6.31736e-20 0.272243)
(9.85951 -6.5548e-20 0.343271)
(9.7985 1.35931e-19 0.418716)
(9.72744 -1.4192e-19 0.49974)
(9.6462 2.21809e-19 0.587418)
(9.55462 -3.04878e-19 0.682827)
(9.45263 -3.98567e-19 0.787047)
(9.34026 3.28846e-19 0.901206)
(9.21724 3.86999e-19 1.02658)
(9.08333 -3.98934e-19 1.1646)
(8.93853 0 1.31683)
(8.78271 0 1.48489)
(8.61577 -8.00406e-19 1.67064)
(8.43771 8.29765e-19 1.87626)
(8.24845 -2.66742e-20 2.10416)
(8.04776 0 2.35698)
(7.83547 0 2.63776)
(7.61122 0 2.95002)
(7.37428 1.90087e-18 3.29777)
(7.12333 -2.05133e-18 3.68561)
(6.85648 0 4.11883)
(6.57106 0 4.60273)
(6.25933 -3.89024e-18 5.14213)
(5.92769 3.969e-18 5.72831)
(5.46698 0 6.40813)
(5.28554 -3.72611e-18 6.88363)
(3.8931 4.20551e-18 7.93443)
(9.9907 0 0.0761418)
(9.97721 4.642e-19 0.148184)
(9.95232 6.04195e-20 0.219928)
(9.91467 -1.87327e-19 0.293488)
(9.86658 -1.30649e-19 0.370391)
(9.80899 1.35103e-19 0.452024)
(9.74207 -7.58463e-22 0.539611)
(9.66573 4.38864e-19 0.634284)
(9.57986 -1.51033e-19 0.737179)
(9.48453 1.57408e-19 0.849418)
(9.37974 0 0.972182)
(9.26536 -7.65424e-19 1.10683)
(9.14136 -6.14707e-21 1.25488)
(9.0078 8.40422e-20 1.41793)
(8.86471 7.96142e-19 1.59769)
(8.71193 0 1.79607)
(8.54963 -1.2622e-20 2.01539)
(8.37818 0 2.25831)
(8.19746 -1.70935e-18 2.52772)
(8.00756 1.72851e-18 2.82694)
(7.80848 1.77827e-18 3.15999)
(7.59989 3.64368e-18 3.53158)
(7.38117 1.90773e-18 3.94714)
(7.15093 -3.84852e-18 4.41296)
(6.90749 -1.15086e-19 4.93555)
(6.64285 0 5.52225)
(6.3696 3.17995e-18 6.1614)
(5.94568 -3.63055e-18 6.91726)
(5.86456 0 7.44164)
(4.40331 -2.23459e-19 8.61328)
(9.99093 2.79108e-20 0.0811569)
(9.9782 -2.60199e-19 0.157998)
(9.95492 2.3963e-19 0.234727)
(9.91962 2.49879e-19 0.313545)
(9.87449 -3.88428e-19 0.395962)
(9.82053 1.34255e-19 0.48339)
(9.75799 1.40195e-19 0.577084)
(9.68686 1.46342e-19 0.678233)
(9.60708 -4.50322e-19 0.788035)
(9.5188 -7.81347e-20 0.907661)
(9.42198 -1.60917e-19 1.03831)
(9.31662 0 1.18139)
(9.20297 -6.94899e-19 1.33848)
(9.08116 7.11988e-19 1.51125)
(8.95131 -4.64175e-20 1.70148)
(8.81342 -7.65175e-19 1.91116)
(8.66786 8.79671e-19 2.14265)
(8.51511 0 2.39879)
(8.35555 1.71027e-18 2.68274)
(8.18944 2.07003e-20 2.9981)
(8.01709 -8.84446e-20 3.34926)
(7.83887 1.63882e-18 3.7416)
(7.65486 3.35655e-18 4.18136)
(7.4645 8.95311e-20 4.67591)
(7.26693 -3.6403e-18 5.23311)
(7.05401 0 5.86359)
(6.84473 4.34477e-19 6.55535)
(6.46682 -3.21989e-18 7.38943)
(6.47885 1.98994e-19 7.9949)
(4.95742 3.66806e-18 9.32885)
(9.99118 -2.77707e-20 0.0859121)
(9.97927 2.87116e-20 0.167245)
(9.95779 -2.39162e-19 0.248601)
(9.92501 -2.47518e-19 0.332323)
(9.88296 5.14958e-19 0.419894)
(9.83279 -5.81395e-22 0.512697)
(9.77487 0 0.612008)
(9.70924 -4.32231e-19 0.719084)
(9.63583 2.9685e-19 0.835195)
(9.55486 0 0.96155)
(9.46639 -3.19088e-19 1.09935)
(9.3705 1.64498e-19 1.24999)
(9.26758 0 1.41512)
(9.15793 6.17752e-19 1.59647)
(9.04177 -7.22761e-19 1.79587)
(8.91936 0 2.01535)
(8.79126 1.44101e-18 2.25736)
(8.65802 7.75625e-21 2.52477)
(8.52058 -3.36096e-18 2.82099)
(8.37949 1.63315e-18 3.14987)
(8.23536 -1.00449e-19 3.5161)
(8.08943 1.05879e-19 3.92554)
(7.94259 1.06379e-19 4.38515)
(7.79553 -3.3224e-18 4.90344)
(7.64875 3.53441e-18 5.48989)
(7.49421 0 6.15866)
(7.35771 0 6.90193)
(7.04741 0 7.81532)
(7.1594 -2.69977e-18 8.54719)
(5.59977 4.93689e-19 10.1366)
(9.99142 0 0.0903895)
(9.98045 0 0.175878)
(9.96082 -2.36924e-19 0.261487)
(9.93064 3.70433e-19 0.349758)
(9.89184 -3.83999e-19 0.442113)
(9.84566 -3.9757e-19 0.539849)
(9.79262 0 0.644259)
(9.73267 1.41989e-19 0.756703)
(9.6658 1.46935e-19 0.878519)
(9.59236 -4.5779e-19 1.01091)
(9.51252 4.72341e-19 1.15505)
(9.42645 1.31471e-21 1.31236)
(9.33455 -6.73342e-19 1.4845)
(9.23742 6.89478e-19 1.67326)
(9.13539 0 1.88046)
(9.02889 7.32065e-19 2.10816)
(8.91872 -5.60679e-19 2.35886)
(8.80569 0 2.63546)
(8.69096 -1.46017e-18 2.94143)
(8.57566 3.46229e-23 3.28089)
(8.46106 1.79835e-18 3.6587)
(8.34912 0 4.08089)
(8.2418 0 4.55495)
(8.14134 -3.51719e-18 5.09027)
(8.05067 3.12156e-18 5.69807)
(7.96339 -7.28725e-19 6.39556)
(7.91277 -6.89868e-19 7.18348)
(7.70806 0 8.16631)
(7.95369 -5.87245e-19 9.06968)
(6.40912 -7.77234e-19 11.1042)
(9.99178 0 0.094546)
(9.98186 0 0.18386)
(9.96402 2.36444e-19 0.27337)
(9.93645 0 0.365803)
(9.90106 -1.2726e-19 0.462519)
(9.85915 5.27227e-19 0.564722)
(9.81117 1.35887e-19 0.673734)
(9.75696 -1.4148e-19 0.791006)
(9.69676 -1.4634e-19 0.917908)
(9.63107 1.5125e-19 1.0556)
(9.56012 0 1.20528)
(9.48405 1.61085e-19 1.36836)
(9.40337 0 1.54648)
(9.31894 0 1.74141)
(9.23129 0 1.95502)
(9.14099 0 2.18937)
(9.04898 -1.6458e-18 2.4469)
(8.95656 1.48628e-18 2.73054)
(8.86493 0 3.04369)
(8.77583 1.52441e-18 3.39049)
(8.69152 -1.91811e-18 3.77585)
(8.61461 1.52595e-18 4.20572)
(8.54845 -1.53026e-18 4.68772)
(8.49704 3.79902e-19 5.23145)
(8.4667 2.8443e-18 5.84897)
(8.45597 -1.43867e-18 6.55885)
(8.50699 6.712e-19 7.37091)
(8.46013 0 8.38475)
(8.91335 5.75079e-19 9.45269)
(7.49714 6.77291e-19 12.3601)
(0.110346 2.35961e-21 -0.0897813)
(0.271985 4.56869e-21 -0.112547)
(0.473787 -8.27077e-21 -0.0941274)
(0.668302 -7.61447e-21 -0.0730867)
(0.838615 -7.2214e-21 -0.0569513)
(0.985942 0 -0.0457897)
(1.11655 8.97439e-21 -0.0384676)
(1.23378 -1.46547e-20 -0.03342)
(1.34088 7.47902e-21 -0.0295223)
(1.43911 0 -0.025895)
(1.52766 0 -0.0218988)
(1.60564 0 -0.0172343)
(1.6715 0 -0.0118935)
(1.72376 0 -0.00619687)
(1.76196 5.85256e-21 -0.000801667)
(1.78673 -1.92094e-21 0.0035188)
(1.80017 0 0.00620684)
(1.80568 -8.70543e-22 0.00716425)
(1.8068 4.23384e-21 0.0067377)
(1.80674 0 0.00535435)
(1.80816 -7.07743e-22 0.00331494)
(1.81335 6.97695e-22 0.000946624)
(1.82325 2.41525e-21 -0.00134091)
(1.83724 -2.1217e-21 -0.00318082)
(1.85449 0 -0.0043464)
(1.8733 1.49274e-21 -0.00482613)
(1.89192 0 -0.00481914)
(1.91 8.30742e-22 -0.00452269)
(1.92706 -4.97704e-22 -0.00405713)
(1.94631 0 -0.00365425)
(0.0936843 -1.17001e-20 -0.205829)
(0.238872 -4.53738e-21 -0.249151)
(0.443689 5.70215e-20 -0.214909)
(0.641803 -3.839e-20 -0.174742)
(0.821346 -7.21775e-21 -0.144144)
(0.982942 2.83262e-20 -0.123384)
(1.12867 -2.69151e-20 -0.109945)
(1.26099 2.90158e-20 -0.101008)
(1.38348 0 -0.0944178)
(1.49788 0 -0.0884096)
(1.60475 -1.88292e-22 -0.0815803)
(1.70487 1.58112e-20 -0.0731183)
(1.79714 0 -0.062962)
(1.88102 0 -0.0514119)
(1.95594 -1.16353e-20 -0.0391792)
(2.02105 7.65621e-21 -0.0274357)
(2.07616 0 -0.0174662)
(2.12218 7.09409e-21 -0.0102668)
(2.16102 -1.01018e-20 -0.00620592)
(2.19565 1.53391e-21 -0.00509969)
(2.22819 -9.90695e-23 -0.00640832)
(2.25965 -1.39293e-21 -0.00918395)
(2.29047 -3.53955e-21 -0.0123241)
(2.32025 3.23211e-21 -0.0149896)
(2.34892 0 -0.0166561)
(2.37593 -4.46998e-21 -0.0171392)
(2.40058 2.49933e-22 -0.016699)
(2.42295 -9.90169e-22 -0.0156325)
(2.44287 1.40509e-21 -0.0140227)
(2.46187 0 -0.0117523)
(0.0636517 -6.4581e-20 -0.346561)
(0.168153 7.02388e-20 -0.390321)
(0.363766 1.61109e-20 -0.342182)
(0.544896 -1.49788e-20 -0.285268)
(0.710209 -7.11077e-20 -0.24063)
(0.859778 1.12587e-19 -0.209665)
(0.993231 -1.21056e-19 -0.189002)
(1.11343 8.7509e-20 -0.175234)
(1.2243 -3.35498e-20 -0.165255)
(1.32776 7.70896e-21 -0.156499)
(1.42511 3.16653e-20 -0.147073)
(1.51772 -4.76187e-20 -0.135806)
(1.60607 1.58996e-20 -0.122254)
(1.68937 0 -0.106809)
(1.76777 7.76297e-21 -0.0902744)
(1.84088 -1.14123e-22 -0.0739077)
(1.90848 -1.66712e-22 -0.0591843)
(1.97039 -7.30621e-21 -0.0474942)
(2.02642 -1.45799e-22 -0.0396998)
(2.0771 -6.38864e-21 -0.0357869)
(2.12254 0 -0.0349182)
(2.16253 0 -0.0357865)
(2.19761 1.14632e-21 -0.0369985)
(2.22784 4.14823e-21 -0.0375869)
(2.25329 -1.46131e-22 -0.0370711)
(2.27403 2.16139e-21 -0.0353555)
(2.29009 0 -0.0327673)
(2.30171 0 -0.029633)
(2.30939 1.00111e-21 -0.0258908)
(2.3129 0 -0.0208389)
(0.033988 1.77654e-20 -0.485424)
(0.0852729 0 -0.508457)
(0.278459 -1.52747e-19 -0.447956)
(0.442059 1.16509e-19 -0.376862)
(0.589551 -4.22994e-20 -0.320642)
(0.720955 4.1922e-20 -0.281068)
(0.835971 6.10514e-20 -0.254242)
(0.937069 -5.81301e-20 -0.236696)
(1.02902 3.78918e-21 -0.224266)
(1.11444 2.35631e-20 -0.213857)
(1.19507 -1.63459e-20 -0.203199)
(1.27264 4.78523e-20 -0.190854)
(1.34799 0 -0.176133)
(1.42118 -1.60175e-20 -0.159245)
(1.49265 -1.58018e-20 -0.140912)
(1.56164 -1.5463e-20 -0.122488)
(1.62758 0 -0.105434)
(1.68979 0 -0.0910429)
(1.74734 0 -0.0800747)
(1.79952 9.51212e-21 -0.0724595)
(1.84551 -3.07706e-21 -0.0673398)
(1.88439 0 -0.0636058)
(1.9159 -2.32178e-21 -0.060178)
(1.93991 -2.00095e-21 -0.056213)
(1.95643 7.43779e-21 -0.0512945)
(1.96578 0 -0.0454201)
(1.96841 -5.09102e-22 -0.0389569)
(1.96501 5.02816e-22 -0.0323489)
(1.95686 -2.00113e-21 -0.0257839)
(1.94199 0 -0.0190711)
(0.0060343 -1.57546e-19 -0.621638)
(-0.00761691 0 -0.60596)
(0.191479 1.48095e-19 -0.535281)
(0.334801 -2.25716e-19 -0.452544)
(0.461579 9.63864e-20 -0.386839)
(0.570751 1.40676e-20 -0.339468)
(0.6631 1.77167e-21 -0.30703)
(0.741246 -5.98959e-20 -0.286526)
(0.810423 1.2209e-19 -0.272865)
(0.874839 -6.20052e-20 -0.261884)
(0.936394 1.59939e-20 -0.250973)
(0.996708 -1.61547e-20 -0.238584)
(1.05685 0 -0.223897)
(1.11691 3.23176e-20 -0.206982)
(1.1769 -1.85207e-22 -0.188484)
(1.23653 3.09495e-20 -0.169293)
(1.29495 -7.46939e-21 -0.150611)
(1.3506 -7.31152e-21 -0.133699)
(1.40211 6.77715e-21 -0.119259)
(1.44806 -1.98711e-20 -0.107305)
(1.48745 1.22693e-20 -0.097193)
(1.51945 0 -0.0880921)
(1.5438 7.74668e-21 -0.0792464)
(1.56063 2.82165e-22 -0.0700994)
(1.57039 -4.57132e-21 -0.0604635)
(1.57361 -8.51481e-22 -0.0505202)
(1.57086 0 -0.0407252)
(1.56274 3.47059e-21 -0.0316254)
(1.55023 -2.10758e-21 -0.0236572)
(1.52879 4.17908e-23 -0.0171354)
(-0.0183265 -1.34025e-19 -0.753966)
(-0.107883 1.22761e-19 -0.683461)
(0.101618 0 -0.605506)
(0.222067 0 -0.510393)
(0.325204 0 -0.434404)
(0.408136 1.06035e-19 -0.380096)
(0.473545 -1.15437e-19 -0.345257)
(0.527257 7.46652e-21 -0.323243)
(0.574038 6.29378e-20 -0.308923)
(0.617973 -7.8864e-20 -0.29819)
(0.661198 0 -0.288015)
(0.705299 1.65491e-20 -0.276607)
(0.751071 -1.66186e-20 -0.262995)
(0.798649 2.31e-22 -0.246959)
(0.847836 3.24464e-20 -0.22892)
(0.89807 3.17756e-20 -0.209677)
(0.948359 -3.04761e-20 -0.190217)
(0.997447 1.47247e-20 -0.171517)
(1.04388 -2.12456e-20 -0.154245)
(1.08596 2.00459e-20 -0.138658)
(1.1225 -5.70814e-21 -0.12443)
(1.15259 5.91176e-21 -0.110994)
(1.17571 2.48742e-22 -0.0978235)
(1.19168 9.1439e-21 -0.0845458)
(1.20051 1.76798e-21 -0.0710257)
(1.20223 4.69364e-21 -0.0574148)
(1.19688 -5.01738e-21 -0.0441255)
(1.18447 -6.88097e-21 -0.0317217)
(1.16555 1.89931e-21 -0.0209273)
(1.13215 1.36978e-21 -0.0130323)
(-0.0371443 2.39154e-19 -0.879812)
(-0.214765 -1.15689e-19 -0.741424)
(0.00855018 -1.0837e-19 -0.656921)
(0.101528 -2.67944e-20 -0.545517)
(0.175965 1.0716e-19 -0.461702)
(0.229638 -1.10525e-19 -0.404798)
(0.268415 1.14733e-19 -0.368585)
(0.298921 -7.64699e-21 -0.346638)
(0.325969 6.44005e-20 -0.333489)
(0.35299 -4.78303e-20 -0.324698)
(0.382093 8.22686e-20 -0.316856)
(0.414539 2.26536e-22 -0.307861)
(0.45064 1.67401e-20 -0.296604)
(0.490369 -3.35922e-20 -0.282695)
(0.533327 3.34863e-22 -0.266303)
(0.578696 -1.60829e-20 -0.248)
(0.625164 -1.56254e-20 -0.228601)
(0.671217 1.50508e-20 -0.208966)
(0.715117 1.43572e-20 -0.189704)
(0.755235 0 -0.171026)
(0.790011 -1.87749e-20 -0.152816)
(0.818183 6.08116e-21 -0.134786)
(0.838852 -1.04135e-20 -0.116746)
(0.851601 -9.1682e-21 -0.0985641)
(0.85624 1.82417e-21 -0.08025)
(0.852646 -8.26276e-21 -0.0619572)
(0.840534 -5.3713e-21 -0.0437933)
(0.818576 -4.01642e-21 -0.0258378)
(0.784605 2.70836e-22 -0.00987773)
(0.735403 -1.46532e-21 -0.00187237)
(-0.0490959 1.40838e-20 -0.995407)
(-0.326051 1.08279e-19 -0.778071)
(-0.0907697 0 -0.684903)
(-0.0338511 3.93192e-20 -0.558707)
(0.00967899 0 -0.469938)
(0.033743 3.57488e-21 -0.412211)
(0.0476391 -1.29734e-19 -0.377681)
(0.0584073 1.37773e-19 -0.359019)
(0.0704145 0 -0.349758)
(0.085974 6.79122e-20 -0.345019)
(0.106529 2.49385e-22 -0.341185)
(0.132563 -6.92813e-20 -0.335904)
(0.163749 5.17652e-20 -0.327973)
(0.199659 5.15472e-20 -0.316897)
(0.239483 -5.08178e-20 -0.302597)
(0.281976 -1.72801e-20 -0.28541)
(0.325585 -1.63529e-20 -0.266009)
(0.368511 -3.18725e-20 -0.245212)
(0.409068 7.90302e-21 -0.223609)
(0.445486 7.23376e-21 -0.201518)
(0.476113 0 -0.179027)
(0.499593 0 -0.156149)
(0.514972 -1.11612e-20 -0.132941)
(0.521652 -2.25196e-21 -0.109471)
(0.51926 -1.46611e-20 -0.0856971)
(0.507297 0 -0.0613218)
(0.483337 1.04436e-20 -0.0360463)
(0.446962 7.07047e-21 -0.0110247)
(0.404842 3.76998e-22 0.00885425)
(0.356626 0 0.0158207)
(-0.0552546 1.12203e-19 -1.09798)
(-0.440792 -1.0061e-19 -0.789892)
(-0.200454 -1.00444e-19 -0.685433)
(-0.187729 -1.67816e-20 -0.545708)
(-0.177924 -2.26292e-21 -0.456468)
(-0.182593 1.123e-19 -0.403254)
(-0.189813 1.4106e-19 -0.37585)
(-0.193868 -2.22853e-19 -0.364296)
(-0.191846 4.8315e-20 -0.361517)
(-0.182867 0 -0.362507)
(-0.166742 3.25783e-22 -0.363709)
(-0.143951 1.75295e-20 -0.362738)
(-0.115353 1.81952e-20 -0.358432)
(-0.081802 -3.52134e-20 -0.350287)
(-0.0443763 0 -0.337998)
(-0.00458134 3.40029e-20 -0.321661)
(0.0358817 0 -0.30184)
(0.0751026 3.19626e-20 -0.279483)
(0.111392 -1.5279e-20 -0.255232)
(0.14306 -7.15804e-21 -0.229425)
(0.168439 4.17666e-20 -0.202263)
(0.186092 1.9302e-20 -0.173989)
(0.194962 1.11904e-20 -0.144893)
(0.194483 0 -0.115167)
(0.184257 1.49523e-20 -0.084851)
(0.164253 1.96254e-21 -0.0540955)
(0.137855 1.14705e-20 -0.0238703)
(0.106401 -2.00239e-22 0.00347721)
(0.0719243 -4.69895e-21 0.0237937)
(0.039818 0 0.0324191)
(-0.0569736 8.83245e-20 -1.18601)
(-0.55338 -9.55736e-20 -0.764063)
(-0.328548 9.6283e-20 -0.646938)
(-0.365397 1.05154e-19 -0.50457)
(-0.391342 3.91279e-21 -0.425738)
(-0.420611 8.17047e-21 -0.384059)
(-0.443888 -1.28923e-19 -0.367683)
(-0.457848 1.63882e-20 -0.365977)
(-0.461646 1.69937e-20 -0.371532)
(-0.455861 1.77926e-20 -0.379376)
(-0.441522 -1.77679e-20 -0.386079)
(-0.420004 -3.68216e-20 -0.389433)
(-0.392666 -3.70492e-20 -0.388504)
(-0.360617 0 -0.382895)
(-0.325122 1.86998e-20 -0.372157)
(-0.287815 3.54909e-20 -0.356194)
(-0.250575 1.79955e-20 -0.335588)
(-0.215239 0 -0.311311)
(-0.183291 0 -0.284114)
(-0.1562 0 -0.254352)
(-0.135524 -2.80559e-20 -0.222273)
(-0.122673 -3.21771e-20 -0.188315)
(-0.118604 6.25271e-21 -0.153124)
(-0.12353 -2.17565e-20 -0.117459)
(-0.136319 0 -0.082156)
(-0.15458 1.54898e-20 -0.0480197)
(-0.177737 2.73924e-23 -0.0157976)
(-0.204512 8.3748e-22 0.0126466)
(-0.233747 4.73396e-21 0.0337783)
(-0.25637 -5.17549e-23 0.0449167)
(-0.0506643 -8.25786e-20 -1.24284)
(-0.651314 8.56285e-20 -0.676838)
(-0.490283 -5.63879e-21 -0.572235)
(-0.570696 0 -0.441798)
(-0.630399 0 -0.379935)
(-0.679232 1.50545e-20 -0.356171)
(-0.713219 6.64883e-20 -0.355326)
(-0.732255 -6.53393e-20 -0.366182)
(-0.737976 0 -0.381567)
(-0.732454 -1.78906e-20 -0.397052)
(-0.71769 0 -0.409536)
(-0.695784 -1.06981e-21 -0.416989)
(-0.668593 -1.17502e-21 -0.418955)
(-0.637266 -3.77921e-20 -0.415471)
(-0.602729 -1.82568e-20 -0.405884)
(-0.566784 3.67496e-20 -0.389663)
(-0.531857 -5.34114e-20 -0.367469)
(-0.49964 -1.72676e-20 -0.340693)
(-0.471193 2.52705e-20 -0.310321)
(-0.447549 -8.13763e-21 -0.276641)
(-0.430047 7.26084e-21 -0.239798)
(-0.420059 -7.16717e-21 -0.200444)
(-0.418255 -2.59157e-20 -0.15988)
(-0.423962 2.16856e-20 -0.119631)
(-0.435489 2.20497e-21 -0.0808094)
(-0.452055 -1.67344e-20 -0.0439821)
(-0.472831 -1.29729e-20 -0.0100372)
(-0.49688 -2.22847e-22 0.0191675)
(-0.52274 -5.30987e-21 0.0410024)
(-0.540758 5.48552e-23 0.0541807)
(-0.0439807 0 -1.21096)
(-0.737673 8.63043e-20 -0.546558)
(-0.684046 -8.3499e-20 -0.456369)
(-0.808046 1.07226e-19 -0.355544)
(-0.894382 -2.2552e-19 -0.322925)
(-0.955067 1.17022e-19 -0.324344)
(-0.992694 8.48797e-20 -0.342711)
(-1.0112 -8.4349e-20 -0.367911)
(-1.01456 0 -0.393814)
(-1.00611 3.76999e-20 -0.417057)
(-0.98841 0 -0.435136)
(-0.964166 3.79529e-20 -0.445972)
(-0.935895 7.74403e-20 -0.450005)
(-0.904032 -3.85022e-20 -0.448265)
(-0.868914 -3.95807e-20 -0.439604)
(-0.83289 -3.91977e-20 -0.422579)
(-0.798935 0 -0.398031)
(-0.768719 -3.7482e-20 -0.368247)
(-0.742584 8.65386e-21 -0.334649)
(-0.720888 3.42057e-20 -0.297301)
(-0.704801 -1.57432e-20 -0.25603)
(-0.69578 7.55729e-21 -0.211738)
(-0.694361 2.89922e-20 -0.166422)
(-0.699685 -3.54669e-22 -0.122088)
(-0.710858 -2.73411e-21 -0.0799335)
(-0.726776 0 -0.040669)
(-0.746119 -1.37213e-20 -0.00541914)
(-0.768542 0 0.0241488)
(-0.792048 1.12407e-20 0.0465267)
(-0.807358 5.84894e-23 0.0613451)
(-0.0616937 1.49211e-19 -1.05685)
(-0.824429 -7.22323e-20 -0.367238)
(-0.92078 0 -0.301121)
(-1.07756 -1.07395e-19 -0.249264)
(-1.17888 1.05977e-19 -0.260739)
(-1.24037 -1.55616e-20 -0.294852)
(-1.27277 -1.66725e-20 -0.33426)
(-1.28435 1.75818e-20 -0.374254)
(-1.2807 0 -0.410701)
(-1.26605 -7.65477e-20 -0.441174)
(-1.24278 0 -0.464225)
(-1.21405 4.05391e-20 -0.477184)
(-1.18306 4.06834e-20 -0.481928)
(-1.14956 -8.11479e-20 -0.48163)
(-1.11248 8.07806e-20 -0.47403)
(-1.07459 5.90954e-20 -0.455618)
(-1.0403 -6.00627e-20 -0.42761)
(-1.0113 3.73764e-20 -0.394121)
(-0.986671 0 -0.357371)
(-0.965752 -3.44373e-20 -0.316887)
(-0.949664 0 -0.271683)
(-0.940364 -3.73654e-21 -0.222665)
(-0.938848 -2.90371e-20 -0.172509)
(-0.944739 2.94602e-20 -0.123912)
(-0.956569 -1.25133e-21 -0.0785185)
(-0.972581 1.99844e-20 -0.0372471)
(-0.991294 1.36836e-20 -0.00114907)
(-1.01268 0 0.0285112)
(-1.03447 -5.76182e-21 0.0512247)
(-1.04798 -6.27133e-23 0.0671921)
(-0.144095 -5.50457e-20 -0.766442)
(-0.955226 7.09121e-20 -0.133481)
(-1.2033 1.59046e-20 -0.0990385)
(-1.37677 -3.45162e-20 -0.120733)
(-1.47924 -5.13473e-20 -0.205759)
(-1.52361 0 -0.278991)
(-1.53912 0 -0.333411)
(-1.53819 3.76868e-20 -0.388195)
(-1.52353 -3.6763e-20 -0.436019)
(-1.49975 3.87698e-20 -0.471168)
(-1.46818 -4.1135e-20 -0.497615)
(-1.43239 -4.04662e-20 -0.511015)
(-1.39842 8.4858e-20 -0.514543)
(-1.36364 -3.00113e-22 -0.515728)
(-1.32325 -6.23953e-20 -0.510052)
(-1.2813 2.08408e-20 -0.489576)
(-1.24547 4.02908e-20 -0.456267)
(-1.21758 0 -0.418)
(-1.19434 5.00228e-20 -0.378405)
(-1.17335 -9.5211e-21 -0.335735)
(-1.15603 4.55702e-20 -0.287064)
(-1.14585 -4.30179e-20 -0.23295)
(-1.14481 2.92873e-20 -0.177251)
(-1.1522 -2.60706e-20 -0.124024)
(-1.16546 0 -0.0756013)
(-1.18207 -1.86993e-20 -0.0328505)
(-1.2008 1.57924e-20 0.00364424)
(-1.2216 1.12932e-20 0.0331501)
(-1.24219 -6.77222e-23 0.055895)
(-1.25446 -4.42601e-21 0.0724576)
(-0.364646 0 -0.613074)
(-1.27745 -2.76467e-21 0.224128)
(-1.5334 5.78821e-21 0.252013)
(-1.72096 0 0.0237479)
(-1.78799 0 -0.206514)
(-1.77573 3.41393e-20 -0.285544)
(-1.76373 -3.33242e-20 -0.3332)
(-1.75368 -3.86035e-20 -0.414773)
(-1.72469 3.7681e-20 -0.475935)
(-1.68849 -4.16312e-20 -0.503971)
(-1.6495 3.30293e-22 -0.533842)
(-1.60706 0 -0.549713)
(-1.57157 -2.01553e-20 -0.548389)
(-1.53745 8.86009e-20 -0.55026)
(-1.49244 -4.40762e-20 -0.548634)
(-1.44335 6.74367e-20 -0.525619)
(-1.40493 0 -0.483912)
(-1.3792 1.06074e-20 -0.439151)
(-1.35819 -5.07274e-20 -0.397498)
(-1.33654 0 -0.354348)
(-1.31667 -3.68297e-20 -0.302687)
(-1.30497 3.43962e-20 -0.242488)
(-1.30486 0 -0.180002)
(-1.31465 -3.0254e-20 -0.121594)
(-1.3302 0 -0.0704325)
(-1.34795 0 -0.0268517)
(-1.36698 -3.32096e-20 0.00956819)
(-1.38753 -1.08356e-20 0.0387292)
(-1.40742 0 0.0611967)
(-1.41892 4.49395e-21 0.077779)
(9.99221 2.63115e-20 0.0984037)
(9.98339 -2.71928e-20 0.191314)
(9.96737 0 0.284472)
(9.94248 0 0.380724)
(9.91069 -1.20672e-19 0.4814)
(9.8733 -2.5167e-19 0.587681)
(9.83056 -3.90824e-19 0.700921)
(9.78231 0 0.822585)
(9.72909 0 0.954005)
(9.67153 -1.42986e-19 1.09633)
(9.60985 0 1.2508)
(9.54423 4.59034e-19 1.41886)
(9.47538 -6.25148e-19 1.60204)
(9.40416 1.59869e-19 1.802)
(9.33139 0 2.02065)
(9.25801 -1.67201e-19 2.2601)
(9.18496 0 2.52263)
(9.11391 1.72918e-19 2.81109)
(9.04644 1.75928e-18 3.12874)
(8.9848 -1.42486e-18 3.47947)
(8.93203 7.12596e-19 3.86795)
(8.89165 0 4.29981)
(8.86854 -3.44409e-19 4.78211)
(8.86878 0 5.32359)
(8.90246 -1.28485e-18 5.93514)
(8.97605 6.36638e-19 6.63265)
(9.14213 0 7.42844)
(9.30972 0 8.3912)
(10.2846 0 9.42342)
(11.3036 -2.45657e-19 12.5304)
(9.99264 4.07576e-19 0.101968)
(9.98494 0 0.198243)
(9.97093 0 0.294771)
(9.94899 1.13777e-19 0.394474)
(9.92102 2.36381e-19 0.498699)
(9.88828 -1.21679e-19 0.608665)
(9.85088 2.52749e-19 0.72573)
(9.8088 2.59454e-19 0.851272)
(9.7629 0 0.986569)
(9.71371 1.39002e-19 1.13282)
(9.66137 0 1.29129)
(9.60636 1.39317e-21 1.46338)
(9.54968 0 1.65056)
(9.49202 4.62284e-19 1.85434)
(9.43423 -1.26068e-18 2.07653)
(9.37783 8.04518e-19 2.31927)
(9.32397 0 2.58473)
(9.27437 -1.6715e-19 2.87545)
(9.23124 -3.3774e-19 3.19447)
(9.19722 0 3.54524)
(9.17588 9.93089e-19 3.93184)
(9.17169 2.65552e-18 4.35911)
(9.1908 -9.87161e-19 4.83278)
(9.24113 0 5.35937)
(9.33539 0 5.9461)
(9.48604 5.62425e-19 6.60115)
(9.74721 0 7.32638)
(10.0537 0 8.13484)
(10.7827 0 8.93989)
(11.6464 3.35802e-19 10.111)
(9.99303 -7.92655e-19 0.1052)
(9.98654 0 0.204527)
(9.97472 -3.17635e-19 0.304076)
(9.95589 -3.2977e-19 0.406837)
(9.93182 2.27481e-19 0.514215)
(9.90375 0 0.62747)
(9.8718 0 0.747889)
(9.83626 2.50248e-19 0.876716)
(9.79798 -5.17343e-19 1.01525)
(9.7573 0 1.16477)
(9.71441 5.49925e-19 1.32647)
(9.67017 -1.40891e-19 1.50159)
(9.6257 0 1.69159)
(9.58182 0 1.89798)