/*--------------------------------*- C++ -*----------------------------------*\
| =========                 |                                                 |
| \\      /  F ield         | OpenFOAM: The Open Source CFD Toolbox           |
|  \\    /   O peration     | Version:  dev                                   |
|   \\  /    A nd           | Web:      www.OpenFOAM.org                      |
|    \\/     M anipulation  |                                                 |
\*---------------------------------------------------------------------------*/
FoamFile
{
    version     2.0;
    format      ascii;
    class       surfaceScalarField;
    location    "0.45";
    object      meshPhi;
}
// * * * * * * * * * * * * * * * * * * * * * * * * * * * * * * * * * * * * * //

dimensions      [0 3 -1 0 0 0 0];

internalField   nonuniform List<scalar> 
881
(
3.88599e-05
-6.12692e-06
-7.76337e-06
4.14539e-05
-6.59124e-06
4.87003e-05
-8.23193e-06
5.60277e-05
-1.00578e-05
-1.2036e-05
4.45082e-05
-7.17529e-06
5.15282e-05
-8.81331e-06
5.86747e-05
-1.06248e-05
6.56971e-05
-1.25926e-05
-1.46743e-05
4.81494e-05
-7.89457e-06
5.48723e-05
-9.52558e-06
6.16924e-05
-1.13172e-05
6.84091e-05
-1.32498e-05
7.47221e-05
-1.52912e-05
8.02146e-05
-1.7391e-05
-1.94772e-05
5.23994e-05
-8.76423e-06
5.87924e-05
-1.0381e-05
6.5251e-05
-1.21428e-05
7.1559e-05
-1.40326e-05
7.74881e-05
-1.60174e-05
8.27291e-05
-1.80503e-05
8.70423e-05
-2.0081e-05
9.01899e-05
-2.20498e-05
-2.38754e-05
5.72979e-05
-9.79465e-06
6.33241e-05
-1.13866e-05
6.93789e-05
-1.31068e-05
7.5261e-05
-1.4941e-05
8.07459e-05
-1.6858e-05
8.55814e-05
-1.8816e-05
8.9575e-05
-2.0765e-05
9.25087e-05
-2.26465e-05
9.42203e-05
-2.44047e-05
-2.59609e-05
6.28865e-05
-1.09897e-05
6.85072e-05
-1.25424e-05
7.41207e-05
-1.42065e-05
7.95414e-05
-1.59715e-05
8.45634e-05
-1.78075e-05
8.89667e-05
-1.96756e-05
9.25515e-05
-2.15283e-05
9.5126e-05
-2.33099e-05
9.65609e-05
-2.49588e-05
9.66982e-05
-2.64106e-05
9.53299e-05
-2.75773e-05
-2.83529e-05
6.92136e-05
-1.23439e-05
7.43843e-05
-1.38398e-05
7.95197e-05
-1.54311e-05
8.4446e-05
-1.71118e-05
8.89744e-05
-1.8853e-05
9.29067e-05
-2.06172e-05
9.60504e-05
-2.2359e-05
9.82274e-05
-2.40252e-05
9.92896e-05
-2.55554e-05
9.91152e-05
-2.68826e-05
9.75542e-05
-2.79271e-05
9.45455e-05
-2.86154e-05
-2.88585e-05
7.6331e-05
-1.38388e-05
8.10015e-05
-1.52581e-05
8.56188e-05
-1.67592e-05
9.00175e-05
-1.83407e-05
9.40206e-05
-1.99737e-05
9.74455e-05
-2.16214e-05
0.000100111
-2.32395e-05
0.000101848
-2.47769e-05
0.000102507
-2.61754e-05
0.00010196
-2.73695e-05
0.000100089
-2.82855e-05
9.68335e-05
-2.88465e-05
9.21315e-05
-2.89769e-05
8.58944e-05
-2.85785e-05
-2.75413e-05
8.42848e-05
-1.54441e-05
8.84023e-05
-1.6762e-05
9.24614e-05
-1.81578e-05
9.62988e-05
-1.96278e-05
9.97448e-05
-2.11412e-05
0.000102628
-2.26615e-05
0.000104778
-2.41457e-05
0.000106032
-2.55439e-05
0.000106246
-2.68002e-05
0.000105292
-2.78527e-05
0.000103062
-2.86315e-05
9.94762e-05
-2.90617e-05
9.4479e-05
-2.90655e-05
8.8003e-05
-2.85549e-05
8.00277e-05
-2.74499e-05
-2.56641e-05
9.30788e-05
-1.7065e-05
9.66169e-05
-1.82907e-05
0.000100089
-1.95803e-05
0.000103334
-2.09338e-05
0.000106191
-2.23206e-05
0.000108497
-2.37055e-05
0.000110093
-2.50478e-05
0.000110825
-2.62993e-05
0.00011055
-2.74065e-05
0.000109145
-2.83107e-05
0.000106503
-2.89456e-05
0.000102539
-2.92393e-05
9.71861e-05
-2.91161e-05
9.03849e-05
-2.84952e-05
8.21059e-05
-2.72955e-05
7.2319e-05
-2.54403e-05
6.09743e-05
-2.28364e-05
-1.93879e-05
0.000102707
-1.86318e-05
0.000105676
-1.97889e-05
0.000108546
-2.09787e-05
0.000111172
-2.2215e-05
0.000113406
-2.34716e-05
0.000115099
-2.47166e-05
0.0001161
-2.59116e-05
0.000116268
-2.70118e-05
0.000115461
-2.79662e-05
0.000113555
-2.8718e-05
0.000110447
-2.92051e-05
0.00010605
-2.93599e-05
0.00010029
-2.91099e-05
9.31069e-05
-2.8379e-05
8.44552e-05
-2.70895e-05
7.42995e-05
-2.51635e-05
6.25953e-05
-2.25177e-05
4.93129e-05
-1.90777e-05
-1.47751e-05
0.000113252
-2.01448e-05
0.000115643
-2.12229e-05
0.000117886
-2.23099e-05
0.000119861
-2.34268e-05
0.000121437
-2.45512e-05
0.000122477
-2.56537e-05
0.000122841
-2.66991e-05
0.000122397
-2.76458e-05
0.000121011
-2.84458e-05
0.000118556
-2.90447e-05
0.000114927
-2.93838e-05
0.000110038
-2.94001e-05
0.000103815
-2.90256e-05
9.61895e-05
-2.8188e-05
8.71088e-05
-2.68133e-05
7.65268e-05
-2.48266e-05
6.43984e-05
-2.21516e-05
5.06867e-05
-1.8716e-05
3.53529e-05
-1.44563e-05
-9.30337e-06
0.000124847
-2.15648e-05
0.000126601
-2.25494e-05
0.000128172
-2.35273e-05
0.000129454
-2.45223e-05
0.000130328
-2.55131e-05
0.00013067
-2.64729e-05
0.000130351
-2.73688e-05
0.000129245
-2.81622e-05
0.000127226
-2.88088e-05
0.000124171
-2.92575e-05
0.000119967
-2.94519e-05
0.000114529
-2.93339e-05
0.000107781
-2.884e-05
9.96523e-05
-2.79019e-05
9.00824e-05
-2.64501e-05
7.90178e-05
-2.44136e-05
6.64088e-05
-2.17213e-05
5.22101e-05
-1.83049e-05
3.63779e-05
-1.41011e-05
1.88559e-05
-9.0498e-06
-3.17279e-06
0.000137566
-2.28275e-05
0.000138613
-2.37126e-05
0.000139454
-2.45785e-05
0.000139991
-2.54506e-05
0.000140115
-2.63086e-05
0.00013971
-2.71274e-05
0.000138657
-2.78766e-05
0.000136836
-2.85202e-05
0.000134128
-2.90172e-05
0.000130417
-2.93205e-05
0.000125586
-2.93776e-05
0.00011954
-2.91328e-05
0.000112205
-2.85274e-05
0.00010351
-2.74984e-05
9.33887e-05
-2.59806e-05
8.17821e-05
-2.39074e-05
6.86343e-05
-2.12126e-05
5.38933e-05
-1.78318e-05
3.75094e-05
-1.37049e-05
1.94249e-05
-8.77667e-06
-3.07244e-06
0.000151436
-2.38678e-05
0.000151707
-2.46527e-05
0.000151759
-2.54072e-05
0.000151495
-2.61583e-05
0.000150816
-2.68868e-05
0.000149613
-2.75689e-05
0.000147772
-2.81766e-05
0.000145181
-2.86766e-05
0.000141727
-2.90311e-05
0.000137299
-2.91969e-05
0.000131785
-2.91262e-05
0.000125077
-2.87659e-05
0.000117094
-2.80607e-05
0.000107768
-2.69531e-05
9.70339e-05
-2.53832e-05
8.48247e-05
-2.32894e-05
7.10792e-05
-2.06096e-05
5.57395e-05
-1.7284e-05
3.87503e-05
-1.32561e-05
2.00497e-05
-8.47449e-06
-2.96349e-06
0.000166441
-2.46222e-05
0.000165878
-2.53094e-05
0.000165082
-2.59563e-05
0.000163964
-2.6591e-05
0.000162428
-2.71955e-05
0.000160373
-2.77478e-05
0.000157691
-2.82219e-05
0.000154276
-2.85874e-05
0.000150019
-2.88093e-05
0.000144813
-2.88486e-05
0.000138555
-2.86617e-05
0.000131131
-2.81997e-05
0.000122443
-2.74096e-05
0.000112426
-2.62396e-05
0.000101016
-2.46354e-05
8.81443e-05
-2.25398e-05
7.37428e-05
-1.98959e-05
5.7748e-05
-1.6648e-05
4.00992e-05
-1.27435e-05
2.07292e-05
-8.13425e-06
-2.84198e-06
0.000182532
-2.50299e-05
0.000181081
-2.56238e-05
0.000179385
-2.61691e-05
0.000177361
-2.66944e-05
0.000174917
-2.71829e-05
0.000171959
-2.76144e-05
0.000168386
-2.79652e-05
0.000164093
-2.82076e-05
0.000158979
-2.83098e-05
0.000152939
-2.82363e-05
0.000145874
-2.79477e-05
0.000137677
-2.73997e-05
0.000128234
-2.65439e-05
0.000117469
-2.53315e-05
0.000105325
-2.37132e-05
9.17319e-05
-2.16379e-05
7.66179e-05
-1.90537e-05
5.99135e-05
-1.59092e-05
4.15521e-05
-1.21557e-05
2.14609e-05
-7.74805e-06
-2.70487e-06
0.000199612
-2.50335e-05
0.000197229
-2.554e-05
0.000194589
-2.59912e-05
0.000191613
-2.64156e-05
0.000188217
-2.6798e-05
0.00018431
-2.71199e-05
0.000179797
-2.73598e-05
0.00017458
-2.74929e-05
0.000168558
-2.74905e-05
0.000161633
-2.73206e-05
0.000153706
-2.69478e-05
0.000144678
-2.63332e-05
0.000134432
-2.54329e-05
0.00012287
-2.42004e-05
0.000109936
-2.25918e-05
9.5569e-05
-2.05625e-05
7.96901e-05
-1.80653e-05
6.22251e-05
-1.50533e-05
4.31016e-05
-1.14817e-05
2.22406e-05
-7.30859e-06
-2.54952e-06
0.000217534
-2.45798e-05
0.000214187
-2.50055e-05
0.000210568
-2.53711e-05
0.000206605
-2.57045e-05
0.000202219
-2.59919e-05
0.000197325
-2.62169e-05
0.000191833
-2.63603e-05
0.00018565
-2.63999e-05
0.000178679
-2.63102e-05
0.000170825
-2.60629e-05
0.00016199
-2.56265e-05
0.000152082
-2.49668e-05
0.000140985
-2.40443e-05
0.000128583
-2.28169e-05
0.000114815
-2.1246e-05
9.9627e-05
-1.92921e-05
8.29367e-05
-1.69126e-05
6.46656e-05
-1.40656e-05
4.47359e-05
-1.07105e-05
2.30624e-05
-6.80894e-06
-2.37348e-06
0.000236097
-2.36203e-05
0.000231765
-2.39718e-05
0.000227145
-2.42608e-05
0.000222172
-2.45138e-05
0.000216771
-2.47186e-05
0.000210863
-2.48608e-05
0.000204364
-2.49235e-05
0.000197185
-2.48871e-05
0.000189233
-2.47294e-05
0.000180416
-2.44256e-05
0.000170639
-2.39482e-05
0.000159811
-2.3267e-05
0.000147822
-2.23482e-05
0.00013455
-2.11552e-05
0.000119916
-1.96529e-05
0.000103866
-1.78061e-05
8.63259e-05
-1.55781e-05
6.72111e-05
-1.2932e-05
4.64389e-05
-9.83175e-06
2.3918e-05
-6.24251e-06
-2.17449e-06
0.000255036
-2.21112e-05
0.000249714
-2.23952e-05
0.000244087
-2.26168e-05
0.000238095
-2.28005e-05
0.000231669
-2.29358e-05
0.000224737
-2.30102e-05
0.000217217
-2.30091e-05
0.000209026
-2.29157e-05
0.000200076
-2.2711e-05
0.000190276
-2.23736e-05
0.000179535
-2.18799e-05
0.00016776
-2.12041e-05
0.000154855
-2.03181e-05
0.000140695
-1.91905e-05
0.000125173
-1.77892e-05
0.000108235
-1.60843e-05
8.98161e-05
-1.40449e-05
6.98304e-05
-1.16391e-05
4.81897e-05
-8.83535e-06
2.47968e-05
-5.60313e-06
-1.95042e-06
0.000274019
-2.00141e-05
0.000267721
-2.0237e-05
0.0002611
-2.04004e-05
0.0002541
-2.05261e-05
0.00024666
-2.06054e-05
0.000238709
-2.06277e-05
0.000230175
-2.05807e-05
0.000220976
-2.04505e-05
0.000211028
-2.02211e-05
0.000200244
-1.98747e-05
0.000188534
-1.93916e-05
0.000175807
-1.87502e-05
0.000161972
-1.79275e-05
0.000146912
-1.68975e-05
0.000130503
-1.5633e-05
0.000112668
-1.41085e-05
9.3356e-05
-1.22978e-05
7.24851e-05
-1.01743e-05
4.99626e-05
-7.71217e-06
2.56858e-05
-4.88513e-06
-1.69934e-06
0.000292642
-1.72964e-05
0.000285405
-1.74645e-05
0.000277826
-1.75786e-05
0.000269853
-1.76577e-05
0.00026143
-1.76947e-05
0.000252493
-1.76811e-05
0.000242973
-1.76068e-05
0.000232793
-1.74607e-05
0.000221872
-1.723e-05
0.000210125
-1.69004e-05
0.000197466
-1.6456e-05
0.000183802
-1.58798e-05
0.000169044
-1.5153e-05
0.00015309
-1.42559e-05
0.000135807
-1.31666e-05
0.000117088
-1.18625e-05
9.6884e-05
-1.03224e-05
7.513e-05
-8.52647e-06
5.17278e-05
-6.454e-06
2.65703e-05
-4.08352e-06
-1.41953e-06
0.000310425
-1.39327e-05
0.000302313
-1.40517e-05
0.000293837
-1.41254e-05
0.000284954
-1.41692e-05
0.00027561
-1.41777e-05
0.000265748
-1.41444e-05
0.0002553
-1.40618e-05
0.000244194
-1.39214e-05
0.000232352
-1.37134e-05
0.000219693
-1.34272e-05
0.000206129
-1.30509e-05
0.000191571
-1.25716e-05
0.000175929
-1.19755e-05
0.000159109
-1.1248e-05
0.000140977
-1.03723e-05
0.0001214
-9.33015e-06
0.00010033
-8.10605e-06
7.77151e-05
-6.68586e-06
5.34528e-05
-5.05401e-06
2.74341e-05
-3.19418e-06
-1.10964e-06
0.000326812
-9.90619e-06
0.000317918
-9.98143e-06
0.000308642
-1.00231e-05
0.000298943
-1.00426e-05
0.000288775
-1.00363e-05
0.000278081
-9.99959e-06
0.000266798
-9.92754e-06
0.000254856
-9.81434e-06
0.00024218
-9.65352e-06
0.00022869
-9.43787e-06
0.000214299
-9.15947e-06
0.000198921
-8.80973e-06
0.000182464
-8.37945e-06
0.000164835
-7.85896e-06
0.000145898
-7.23683e-06
0.000125511
-6.50055e-06
0.000103626
-5.63983e-06
8.01907e-05
-4.64551e-06
5.51057e-05
-3.50727e-06
2.82615e-05
-2.21425e-06
-7.68699e-07
0.000341171
-5.21034e-06
0.00033162
-5.2466e-06
0.000321675
-5.26439e-06
0.000311297
-5.27025e-06
0.000300441
-5.2622e-06
0.000289052
-5.23799e-06
0.000277069
-5.19503e-06
0.000264422
-5.13042e-06
0.000251038
-5.04089e-06
0.000236837
-4.92281e-06
0.000221735
-4.7722e-06
0.000205642
-4.58476e-06
0.00018847
-4.35589e-06
0.000170124
-4.08074e-06
0.000150462
-3.75355e-06
0.000129339
-3.36796e-06
0.000106706
-2.91883e-06
8.25124e-05
-2.40164e-06
5.66589e-05
-1.81131e-06
2.90389e-05
-1.14246e-06
-3.96372e-07
0.000352864
0.000342827
0.000332395
0.000321524
0.000310166
0.000298266
0.000285762
0.000272585
0.000258662
0.000243912
0.00022825
0.000211586
0.00019383
0.000174886
0.000154609
0.000132848
0.000109554
8.46783e-05
5.81201e-05
2.97759e-05
)
;

boundaryField
{
    inlet
    {
        type            calculated;
        value           nonuniform 0();
    }
    outlet
    {
        type            calculated;
        value           uniform 0;
    }
    flap
    {
        type            calculated;
        value           nonuniform 0();
    }
    upperWall
    {
        type            calculated;
        value           nonuniform List<scalar> 
21
(
0
-7.60076e-15
0
0
0
0
-4.2565e-15
0
0
4.55268e-15
0
4.75981e-15
0
0
0
0
0
0
0
0
0
)
;
    }
    lowerWall
    {
        type            calculated;
        value           nonuniform 0();
    }
    frontAndBack
    {
        type            empty;
        value           nonuniform 0();
    }
    procBoundary2to1
    {
        type            processor;
        value           nonuniform List<scalar> 
17
(
-9.9581e-05
-0.000110609
-0.00012278
-0.00013617
-0.00015078
-0.000166583
-0.00018352
-0.000201484
-0.00022032
-0.000239813
-0.000259683
-0.000279581
-0.000299083
-0.000317683
-0.000334794
-0.00034975
-0.000361869
)
;
    }
    procBoundary2to4
    {
        type            processor;
        value           nonuniform List<scalar> 
11
(
-3.17451e-05
-3.44687e-05
-3.77232e-05
-4.15875e-05
-4.61008e-05
-5.1304e-05
-5.72446e-05
-6.39786e-05
-7.15655e-05
-8.00749e-05
-8.94524e-05
)
;
    }
    procBoundary2to5
    {
        type            processor;
        value           nonuniform List<scalar> 
34
(
5.73904e-06
7.34135e-06
4.61433e-05
9.57082e-06
1.14976e-05
6.30688e-05
1.40896e-05
7.21321e-05
1.67882e-05
1.88406e-05
8.46171e-05
2.1465e-05
2.32477e-05
9.19566e-05
2.54285e-05
9.4481e-05
2.71785e-05
2.79216e-05
9.24208e-05
2.86017e-05
9.00148e-05
2.85107e-05
2.74406e-05
7.81308e-05
2.57449e-05
7.05296e-05
2.30676e-05
1.95592e-05
4.80577e-05
1.50151e-05
3.44184e-05
9.52188e-06
1.83378e-05
3.26788e-06
)
;
    }
}


// ************************************************************************* //
