/*--------------------------------*- C++ -*----------------------------------*\
| =========                 |                                                 |
| \\      /  F ield         | OpenFOAM: The Open Source CFD Toolbox           |
|  \\    /   O peration     | Version:  dev                                   |
|   \\  /    A nd           | Web:      www.OpenFOAM.org                      |
|    \\/     M anipulation  |                                                 |
\*---------------------------------------------------------------------------*/
FoamFile
{
    version     2.0;
    format      ascii;
    class       volVectorField;
    location    "1.72";
    object      U;
}
// * * * * * * * * * * * * * * * * * * * * * * * * * * * * * * * * * * * * * //

dimensions      [0 1 -1 0 0 0 0];

internalField   nonuniform List<vector> 
465
(
(5.50995 0 0.227448)
(5.04352 0 0.260054)
(4.53383 0 0.298001)
(3.97734 -1.22704e-19 0.342195)
(3.37058 6.45688e-19 0.393742)
(2.7099 -5.2623e-19 0.454005)
(1.99164 0 0.524495)
(1.20016 0 0.606528)
(0.542275 2.93708e-19 0.617928)
(6.48533 -9.38241e-21 0.593152)
(6.04111 4.3112e-19 0.67578)
(5.54957 9.25196e-19 0.769669)
(5.00526 -1.79429e-18 0.87584)
(4.40163 1.03398e-19 0.995333)
(3.72959 1.02063e-18 1.12927)
(2.97475 -2.61535e-19 1.28)
(2.08599 0 1.46208)
(1.22349 2.8042e-19 1.71361)
(6.87685 -2.02192e-19 0.959603)
(6.48297 1.074e-18 1.09887)
(6.04484 -8.82807e-19 1.25849)
(5.55549 1.87808e-18 1.44107)
(5.00543 -1.67379e-18 1.65003)
(4.38071 4.90357e-19 1.89075)
(3.65927 -3.30567e-18 2.17431)
(2.80134 7.99331e-18 2.51712)
(1.7572 -4.41411e-18 3.10054)
(7.09401 1.99921e-19 1.28025)
(6.74501 -2.09153e-19 1.46982)
(6.35877 0 1.68962)
(5.9286 -4.44827e-19 1.94497)
(5.44498 -4.67417e-19 2.2431)
(4.8945 -4.77521e-19 2.59514)
(4.25068 3.32969e-18 3.02619)
(3.55924 -7.18865e-18 3.50854)
(2.35876 4.09645e-18 4.4771)
(7.26298 1.53723e-18 1.57127)
(6.95288 -2.00086e-19 1.80427)
(6.61405 0 2.07621)
(6.24182 4.36378e-19 2.39525)
(5.82954 -4.35021e-19 2.77244)
(5.37041 0 3.22203)
(4.82471 -2.15428e-19 3.78757)
(4.39769 -1.91839e-19 4.32956)
(3.0576 6.93221e-18 5.66129)
(7.42643 -1.51886e-18 1.83722)
(7.15259 1.74697e-18 2.10723)
(6.85904 0 2.42324)
(6.54412 0 2.79541)
(6.20514 3.7699e-18 3.23753)
(5.84731 -3.1271e-18 3.76232)
(5.40028 -3.00622e-18 4.44034)
(5.27948 8.88989e-18 4.95375)
(3.82032 -7.02318e-18 6.5792)
(7.59786 0 2.07952)
(7.35981 0 2.38041)
(7.11102 0 2.73237)
(6.85315 3.13326e-18 3.14664)
(6.58697 9.06038e-20 3.6385)
(6.33366 -2.38785e-19 4.21355)
(5.97541 -2.97102e-18 4.98089)
(6.15408 0 5.39989)
(4.59908 1.88589e-19 7.23176)
(7.7803 0 2.29825)
(7.5783 -8.89288e-20 2.62423)
(7.37408 0 3.00436)
(7.17241 0 3.45005)
(6.97624 2.81233e-18 3.97737)
(6.82515 -2.85668e-18 4.57983)
(6.54274 -5.18569e-18 5.41488)
(6.98226 1.04385e-17 5.70785)
(5.35459 -5.36356e-18 7.66297)
(7.97301 2.60652e-21 2.49301)
(7.80715 8.71038e-20 2.83858)
(7.64691 2.77463e-18 3.23975)
(7.49976 -2.08217e-20 3.70729)
(7.36902 -2.72935e-18 4.25798)
(7.31364 6.30261e-19 4.86972)
(7.09557 -1.13466e-18 5.75347)
(7.74416 -3.13445e-18 5.92104)
(6.06344 0 7.93361)
(8.17384 7.72764e-20 2.66356)
(8.04376 2.61489e-18 3.02353)
(7.92628 -2.62543e-18 3.43926)
(7.83122 0 3.92047)
(7.76049 -6.11152e-19 4.4849)
(7.79166 -6.04442e-19 5.09393)
(7.63011 6.13813e-18 6.0101)
(8.43817 -4.38634e-19 6.0777)
(6.71893 -4.13886e-18 8.10507)
(8.3801 -2.30637e-19 2.80987)
(8.285 0 3.17945)
(8.20858 2.44799e-18 3.60397)
(8.16251 5.40254e-19 4.09206)
(8.14652 -2.86206e-18 4.66266)
(8.25373 2.03754e-18 5.26323)
(8.14534 -2.87171e-18 6.19631)
(9.07268 1.69966e-18 6.20742)
(7.32927 -3.12593e-18 8.23214)
(8.58919 2.49826e-18 2.93211)
(8.52782 -2.00967e-20 3.3069)
(8.49038 -2.89489e-18 3.73514)
(8.49001 -2.7666e-18 4.22452)
(8.52435 2.19015e-18 4.79517)
(8.69769 1.95862e-18 5.38705)
(8.64478 -1.54486e-18 6.31825)
(9.65776 0 6.33372)
(7.92798 -2.61437e-18 8.35413)
(8.79875 0 3.03079)
(8.76947 0 3.40675)
(8.76868 2.15659e-18 3.83411)
(8.81068 -2.09609e-18 4.31991)
(8.8923 8.85938e-19 4.88499)
(9.12328 0 5.47021)
(9.13579 4.12317e-18 6.37541)
(10.2022 -4.87149e-18 6.46732)
(8.5744 0 8.49315)
(9.00639 -3.73299e-18 3.10645)
(9.00733 3.57076e-20 3.47982)
(9.04067 1.56877e-18 3.90196)
(9.12162 9.36988e-19 4.37954)
(9.24811 -1.0513e-19 4.93233)
(9.52844 -1.58568e-18 5.5103)
(9.6224 0 6.3621)
(10.7126 4.13467e-18 6.58671)
(9.32379 -2.67808e-18 8.66995)
(9.20967 -1.53472e-18 3.16022)
(9.23865 1.95739e-18 3.52742)
(9.30329 -9.57719e-19 3.94)
(9.41931 8.34316e-19 4.40401)
(9.58755 1.56388e-18 4.93622)
(9.90842 -1.28066e-18 5.50012)
(10.098 1.19802e-18 6.27092)
(11.1861 -1.2502e-18 6.63335)
(10.1978 1.18857e-18 8.89777)
(0.0691379 -2.5118e-21 -0.0704749)
(0.162982 -2.28863e-21 -0.0747302)
(0.336867 1.88128e-21 -0.0604674)
(0.559092 -1.72786e-21 -0.0512115)
(0.821467 0 -0.0467469)
(1.08025 8.30656e-22 -0.0447019)
(1.30612 5.73558e-22 -0.0432309)
(1.50132 0 -0.0419448)
(1.67278 -8.5343e-22 -0.04068)
(1.82544 8.63637e-22 -0.0392921)
(0.0344211 5.29226e-23 -0.0955998)
(0.0907888 6.9357e-21 -0.131343)
(0.279198 -8.14969e-21 -0.127327)
(0.526228 3.92344e-21 -0.124559)
(0.813422 4.46045e-21 -0.124005)
(1.08435 -8.24023e-22 -0.122597)
(1.31179 1.92926e-21 -0.119466)
(1.50021 3.38362e-22 -0.115436)
(1.6582 -4.89731e-21 -0.111033)
(1.79303 -1.95081e-21 -0.106363)
(0.0116347 4.35436e-23 -0.127319)
(0.00775172 1.99041e-20 -0.189048)
(0.182148 1.69475e-20 -0.202192)
(0.401748 -8.07935e-21 -0.202515)
(0.650315 5.90037e-21 -0.202058)
(0.874411 -4.89751e-21 -0.199027)
(1.05276 -1.28257e-21 -0.193132)
(1.19153 0 -0.185784)
(1.29877 3.55537e-21 -0.177969)
(1.38225 1.14417e-20 -0.169998)
(0.000786028 0 -0.155205)
(-0.0575407 -2.05811e-20 -0.231083)
(0.0994307 8.54903e-22 -0.2646)
(0.281359 -9.42108e-21 -0.266319)
(0.477366 0 -0.264271)
(0.641885 4.82881e-21 -0.257584)
(0.759893 -8.76893e-21 -0.246996)
(0.838495 6.66731e-21 -0.234925)
(0.88623 4.92592e-22 -0.222888)
(0.911005 -1.8902e-20 -0.211039)
(-0.00401176 1.33036e-20 -0.184949)
(-0.113656 1.04106e-20 -0.263493)
(0.0250759 0 -0.315424)
(0.162726 0 -0.314331)
(0.298312 0 -0.307006)
(0.395501 2.25562e-21 -0.293973)
(0.446628 0 -0.276643)
(0.45928 7.02879e-21 -0.258481)
(0.443053 3.71969e-22 -0.241706)
(0.405978 0 -0.225961)
(-0.00451505 1.57653e-20 -0.22028)
(-0.166974 -2.49073e-20 -0.288788)
(-0.0480061 0 -0.352249)
(0.0376686 0 -0.341586)
(0.10737 2.71294e-20 -0.324038)
(0.131554 -2.02898e-20 -0.301315)
(0.112113 6.50385e-21 -0.275973)
(0.0597207 -7.29057e-21 -0.251285)
(-0.0184464 8.08701e-21 -0.228823)
(-0.115123 -8.18437e-21 -0.208121)
(-0.00179274 -4.91928e-20 -0.262259)
(-0.22045 7.72912e-20 -0.305457)
(-0.124726 0 -0.368787)
(-0.0997027 1.68943e-20 -0.340597)
(-0.100702 -4.34927e-21 -0.309247)
(-0.1514 1.23399e-20 -0.274038)
(-0.238416 -2.66382e-20 -0.241689)
(-0.345016 7.31716e-21 -0.214101)
(-0.459828 -3.16327e-20 -0.191451)
(-0.574827 0 -0.172601)
(0.00308 2.01722e-20 -0.310224)
(-0.274363 -5.67294e-20 -0.307626)
(-0.209793 6.33027e-20 -0.356987)
(-0.252818 -8.25763e-21 -0.305002)
(-0.326547 -8.28606e-21 -0.259215)
(-0.434413 3.30942e-21 -0.218285)
(-0.558933 7.0386e-21 -0.185641)
(-0.687474 0 -0.16151)
(-0.811055 2.42034e-20 -0.144319)
(-0.924434 -8.18669e-21 -0.131381)
(0.00967575 -8.52959e-20 -0.362526)
(-0.330159 9.7983e-20 -0.285331)
(-0.3066 -6.97986e-20 -0.308855)
(-0.414485 -1.03895e-20 -0.237327)
(-0.538644 3.03215e-21 -0.184883)
(-0.678062 1.10293e-20 -0.14432)
(-0.818721 -6.96581e-21 -0.116574)
(-0.952224 0 -0.099599)
(-1.07312 -1.71501e-20 -0.0907663)
(-1.1773 0 -0.0866661)
(0.0168219 4.46074e-20 -0.411819)
(-0.387525 3.37436e-21 -0.227611)
(-0.408865 -1.86693e-20 -0.227634)
(-0.561938 -3.18555e-21 -0.146499)
(-0.715072 -3.58132e-21 -0.0937622)
(-0.870353 0 -0.0568111)
(-1.01562 8.82745e-21 -0.036445)
(-1.14197 2.14616e-22 -0.0310395)
(-1.24704 3.41989e-20 -0.0353663)
(-1.33233 -8.798e-21 -0.0434106)
(0.018165 8.11956e-20 -0.434952)
(-0.443618 -6.03074e-20 -0.134379)
(-0.500691 -2.37526e-20 -0.123161)
(-0.680547 3.40321e-21 -0.0379204)
(-0.845876 3.72194e-21 0.0154547)
(-0.995194 0 0.0410398)
(-1.12661 -3.48069e-20 0.0451351)
(-1.23944 -1.74933e-20 0.0350135)
(-1.33122 0 0.0167253)
(-1.40217 0 -0.00318411)
(0.00493458 0 -0.393068)
(-0.465365 4.81334e-20 -0.0288112)
(-0.567831 -2.50661e-20 0.00432912)
(-0.747128 0 0.0894659)
(-0.900356 -3.486e-20 0.125289)
(-1.04142 5.30019e-20 0.136543)
(-1.16576 -1.15426e-22 0.127214)
(-1.26894 -1.97481e-20 0.102097)
(-1.34718 1.942e-20 0.0681297)
(-1.40083 2.01479e-20 0.0342718)
(0.0170505 -7.06726e-20 -0.258044)
(-0.447217 6.14435e-20 0.103139)
(-0.580344 -3.91347e-20 0.147909)
(-0.745729 -8.12888e-22 0.212745)
(-0.893633 1.71458e-20 0.240145)
(-1.03025 1.85326e-20 0.238867)
(-1.1478 1.30446e-21 0.212723)
(-1.23928 -3.14083e-20 0.168271)
(-1.29971 1.0556e-20 0.114638)
(-1.32981 -1.99871e-20 0.0640501)
(0.0449838 4.69406e-20 0.0735006)
(-0.378636 -7.40838e-20 0.219905)
(-0.534941 1.16851e-20 0.284544)
(-0.689643 3.95671e-20 0.342355)
(-0.836013 2.09218e-20 0.361853)
(-0.970322 -2.09718e-22 0.344642)
(-1.08038 0 0.297586)
(-1.15672 -1.18043e-20 0.229584)
(-1.19264 -1.30835e-20 0.151002)
(-1.18879 -1.07178e-20 0.0788109)
(0.624499 2.30856e-19 -1.17203)
(-0.441792 3.94327e-20 -0.205448)
(-0.416823 -7.65299e-20 0.440765)
(-0.584997 3.13858e-20 0.540943)
(-0.737855 -4.31395e-20 0.549999)
(-0.873269 2.19916e-20 0.500103)
(-0.973938 -1.28496e-20 0.41323)
(-1.03083 5.4162e-20 0.301258)
(-1.03416 1.16052e-20 0.174597)
(-0.979854 0 0.0628723)
(9.41384 1.84159e-18 3.19318)
(9.46924 -1.82416e-18 3.5505)
(9.56279 -8.44655e-19 3.94876)
(9.71016 -8.27631e-20 4.39291)
(9.91592 -2.93436e-18 4.89476)
(10.2672 0 5.43034)
(10.5588 0 6.09171)
(11.735 -1.48524e-18 6.49745)
(12.9243 2.50642e-18 9.12829)
(9.61341 -8.57512e-19 3.20421)
(9.6925 2.51527e-18 3.54768)
(9.81101 8.06365e-19 3.9266)
(9.98382 0 4.34416)
(10.2173 0 4.80555)
(10.5796 0 5.29233)
(10.921 4.11153e-19 5.82094)
(11.666 1.0567e-18 6.16471)
(12.4103 -7.30296e-19 6.92525)
(9.8059 -8.18786e-19 3.1944)
(9.90529 7.36518e-19 3.5206)
(10.044 -2.93942e-18 3.87598)
(10.2348 0 4.26133)
(10.4821 -6.17179e-19 4.67537)
(10.8275 -6.06729e-20 5.10166)
(11.1673 -4.86061e-19 5.50831)
(11.5866 9.82785e-19 5.79434)
(12.268 5.51317e-19 6.32713)
(9.98897 -7.44476e-19 3.16447)
(10.1048 -1.42595e-18 3.47064)
(10.2582 4.11019e-18 3.79928)
(10.4588 -1.26668e-18 4.14896)
(10.7088 6.31476e-19 4.51441)
(11.0289 0 4.88228)
(11.3718 -1.01673e-18 5.21671)
(11.7254 -6.99291e-19 5.49484)
(12.3361 -3.80956e-19 5.97654)
(10.2887 6.90646e-19 3.39992)
(10.4515 -1.30986e-18 3.70003)
(10.6554 0 4.01335)
(10.9018 8.5807e-19 4.33302)
(11.1998 2.63758e-19 4.64874)
(11.5344 9.22767e-19 4.93362)
(11.8668 0 5.16728)
(12.3343 3.84642e-19 5.47266)
(10.8262 0 3.86091)
(11.0648 1.29496e-19 4.13865)
(11.3416 -1.06188e-18 4.4069)
(11.651 -6.04693e-20 4.6466)
(11.9589 0 4.83549)
(12.3377 0 5.02911)
(11.457 8.42894e-19 4.16387)
(11.7381 5.83373e-19 4.36573)
(12.0234 0 4.52702)
(12.354 3.25497e-20 4.67041)
(12.0683 4.19133e-19 4.23665)
(12.3632 -1.06715e-18 4.35171)
(12.2804 -6.14747e-18 7.90691)
(9.08223 -1.40715e-19 6.16708)
(4.93105 -7.23876e-19 4.9487)
(11.8734 -4.70308e-19 5.22673)
(11.2802 1.14473e-19 4.40676)
(10.5299 1.057e-19 4.02213)
(12.5399 0 6.0644)
(12.6342 3.44334e-19 5.78554)
(12.4838 0 5.51707)
(12.68 0 6.0307)
(12.8792 -1.0778e-19 5.94076)
(12.9363 -3.62421e-19 5.79017)
(12.6101 -5.35506e-19 5.5468)
(12.833 5.63455e-19 5.54677)
(12.9853 0 5.50816)
(12.5662 0 5.10325)
(12.7741 0 5.13933)
(12.94 0 5.15037)
(12.5486 1.12809e-18 4.73234)
(12.7284 -6.42833e-19 4.77076)
(12.8782 -5.54486e-19 4.7933)
(12.5324 6.40588e-19 4.40122)
(12.6886 -1.37314e-18 4.43429)
(12.8203 6.22368e-19 4.45703)
(12.651 -6.86023e-19 4.12804)
(12.768 0 4.14956)
(0.485188 0 3.49309)
(1.01882 3.84072e-21 1.89765)
(0.978674 -4.09872e-21 0.985284)
(-0.123362 1.62875e-21 0.506804)
(-0.483197 9.08099e-21 0.388161)
(-0.657802 0 0.310923)
(-0.757494 -2.72088e-20 0.219972)
(-0.788876 -2.64489e-20 0.102874)
(-0.737009 -1.44678e-20 -0.0245815)
(9.15022 -6.39762e-20 3.68782)
(8.27362 0 3.20666)
(7.30355 0 2.7094)
(6.19754 7.23301e-21 2.25005)
(5.2084 -8.06095e-21 1.84056)
(4.36419 4.52364e-21 1.48425)
(3.63075 7.16649e-21 1.17729)
(2.98959 2.26726e-20 0.90533)
(2.43274 -2.70283e-20 0.650192)
(11.9647 -8.76866e-20 5.06958)
(11.4167 0 4.5198)
(10.7523 1.37843e-22 3.9696)
(10.0118 -6.1763e-21 3.48213)
(9.28233 0 3.0557)
(8.59187 1.81962e-22 2.67546)
(7.93519 -4.04079e-21 2.33107)
(7.30713 8.48225e-21 2.0166)
(6.70542 1.88471e-20 1.73589)
(12.8788 4.59007e-19 5.45071)
(12.7071 -2.21918e-19 5.02088)
(12.4258 5.90221e-20 4.57677)
(12.0582 5.72871e-21 4.16689)
(11.645 0 3.79343)
(11.2106 1.35418e-20 3.44588)
(10.7634 3.56087e-21 3.11917)
(10.3076 1.38851e-20 2.81406)
(9.84876 -4.6385e-22 2.53598)
(13.1567 0 5.33794)
(13.223 -5.4983e-20 5.07936)
(13.2038 -6.76653e-20 4.78103)
(13.1003 1.57371e-20 4.47713)
(12.9309 9.33255e-20 4.17896)
(12.7159 -3.06578e-20 3.88785)
(12.4676 0 3.60543)
(12.1934 -1.2206e-20 3.33529)
(11.8999 0 3.08172)
(13.1842 0 5.08492)
(13.366 2.69211e-19 4.94504)
(13.4954 -2.18049e-19 4.75732)
(13.557 0 4.54374)
(13.5551 -5.95019e-20 4.31789)
(13.5032 3.79106e-20 4.08696)
(13.412 2.62913e-20 3.85573)
(13.2883 -4.35941e-20 3.62853)
(13.1378 3.61408e-20 3.40917)
(13.1236 1.66606e-19 4.77737)
(13.3438 -7.14014e-20 4.70816)
(13.5418 0 4.59586)
(13.6939 0 4.45254)
(13.7949 0 4.28923)
(13.8515 0 4.11383)
(13.8709 -2.52354e-20 3.93187)
(13.858 4.17953e-20 3.74779)
(13.8168 5.45261e-20 3.56531)
(13.0455 1.56888e-19 4.46214)
(13.2658 6.97193e-20 4.43207)
(13.4844 0 4.36806)
(13.6759 -2.12327e-19 4.27518)
(13.8306 2.15403e-19 4.16074)
(13.9505 0 4.03126)
(14.0394 6.94444e-20 3.8918)
(14.1002 -6.91971e-20 3.74647)
(14.135 -4.81579e-20 3.59877)
(12.9706 -3.30224e-19 4.16381)
(13.177 2.46237e-19 4.15443)
(13.3924 0 4.11949)
(13.5938 3.29111e-20 4.06023)
(13.7702 -2.15044e-19 3.98096)
(13.9211 2.09211e-19 3.8865)
(14.0484 -2.34151e-20 3.78096)
(14.153 -4.16804e-20 3.66784)
(14.236 -9.09317e-20 3.55022)
(13.0911 3.93137e-19 3.888)
(13.2943 -3.89227e-19 3.87062)
(13.4913 -6.70837e-20 3.83343)
(13.6716 1.79166e-21 3.77883)
(13.834 0 3.71021)
(13.9789 -1.37103e-19 3.63074)
(14.1066 2.2517e-19 3.54324)
(14.217 -3.59758e-20 3.45033)
(13.5627 2.70116e-19 3.56978)
(13.7259 0 3.5203)
(13.8765 -5.30294e-20 3.46075)
(14.0142 -5.07101e-20 3.39337)
(14.1386 0 3.32031)
(13.7641 2.45274e-19 3.28201)
(13.9046 -1.40123e-19 3.23052)
(14.0349 -1.81748e-19 3.17344)
(13.9231 -2.09624e-19 3.01723)
)
;

boundaryField
{
    inlet
    {
        type            fixedValue;
        value           nonuniform 0();
    }
    outlet
    {
        type            zeroGradient;
    }
    flap
    {
        type            movingWallVelocity;
        value           nonuniform List<vector> 
33
(
(-4.79648e-16 0 -6.38128e-15)
(-4.89742e-15 -2.77556e-14 -2.54806e-14)
(0 0 0)
(-1.04504e-14 0 -2.34927e-14)
(1.69805e-15 -2.77556e-14 2.98316e-15)
(3.04726e-14 2.77556e-14 4.40247e-14)
(-3.81673e-14 -2.77556e-14 -4.70683e-14)
(-2.76591e-14 0 -3.00674e-14)
(0 -2.77556e-14 0)
(-5.52899e-14 0 -5.05595e-14)
(0 0 0)
(0 0 0)
(-3.32378e-14 -2.77556e-14 -2.72088e-14)
(0 0 0)
(0 0 0)
(5.43521e-14 0 -6.67954e-14)
(5.42469e-14 -5.55112e-14 -6.72909e-14)
(5.42756e-14 1.89482e-31 -6.71578e-14)
(0 0 0)
(-2.57646e-15 -5.55112e-14 -1.33817e-14)
(-1.61632e-14 5.06075e-32 -5.03193e-14)
(-2.301e-15 0 -5.16122e-15)
(-2.73038e-14 -2.77556e-14 -4.78501e-14)
(0 0 0)
(0 0 0)
(-5.3147e-14 0 -5.76891e-14)
(-2.77519e-14 0 -2.73053e-14)
(0 2.77556e-14 0)
(-5.49485e-14 -2.77556e-14 -4.76277e-14)
(0 0 0)
(-3.32366e-14 -2.77556e-14 -2.7209e-14)
(-1.21283e-13 0 -9.83721e-14)
(0 0 0)
)
;
    }
    upperWall
    {
        type            noSlip;
    }
    lowerWall
    {
        type            noSlip;
    }
    frontAndBack
    {
        type            empty;
    }
    procBoundary4to1
    {
        type            processor;
        value           nonuniform List<vector> 
30
(
(10.1606 0 3.11579)
(10.1606 0 3.11579)
(10.4559 0 3.31127)
(10.6235 1.24091e-18 3.58272)
(10.6235 1.24091e-18 3.58272)
(10.9733 -2.696e-19 3.69685)
(11.2009 2.3818e-19 3.93691)
(11.2009 2.3818e-19 3.93691)
(11.5506 0 3.92546)
(11.8063 0 4.09669)
(11.8063 0 4.09669)
(12.0975 -4.41239e-19 3.96085)
(12.3624 -2.1052e-19 4.05721)
(12.5125 6.70464e-19 4.09888)
(12.5125 6.70464e-19 4.09888)
(12.6135 -6.63796e-19 3.84677)
(12.7187 -5.63165e-20 3.86722)
(12.9014 3.68786e-19 3.88602)
(12.9014 3.68786e-19 3.88602)
(13.0106 3.25412e-19 3.63521)
(13.1997 -4.02749e-19 3.62907)
(13.3868 -3.41772e-20 3.60682)
(13.3868 -3.41772e-20 3.60682)
(13.455 -2.68925e-19 3.36123)
(13.6141 4.89284e-19 3.32616)
(13.6141 4.89284e-19 3.32616)
(13.652 -1.53404e-20 3.10015)
(13.7914 2.63416e-20 3.06135)
(13.7914 2.63416e-20 3.06135)
(13.8115 -2.04093e-19 2.85577)
)
;
    }
    procBoundary4to2
    {
        type            processor;
        value           nonuniform List<vector> 
11
(
(6.11958 0 1.49833)
(9.39373 0 2.28909)
(11.5946 0 2.84699)
(12.9663 3.00139e-20 3.19998)
(13.7514 -3.25878e-20 3.38705)
(14.1464 8.66057e-20 3.45148)
(14.2985 -1.1796e-19 3.43076)
(14.3107 6.93642e-20 3.35438)
(14.2497 1.08959e-19 3.24363)
(14.1546 -1.39694e-19 3.11249)
(14.0466 -2.4072e-19 2.96923)
)
;
    }
    procBoundary4to3
    {
        type            processor;
        value           nonuniform List<vector> 
19
(
(5.93665 5.00909e-20 0.199431)
(6.88687 -4.04143e-20 0.52076)
(7.23189 -7.65687e-19 0.838381)
(7.41066 7.51853e-19 1.11659)
(7.54776 2.2362e-18 1.37095)
(7.6819 1.79681e-19 1.60538)
(7.82426 -1.7736e-19 1.82083)
(7.97707 -8.44007e-20 2.01715)
(8.13975 8.30795e-20 2.19379)
(8.31046 0 2.35042)
(8.4869 1.50583e-19 2.48676)
(8.66687 -1.47751e-19 2.60276)
(8.84834 2.76429e-19 2.69869)
(9.02922 -2.40472e-18 2.77483)
(9.20739 -1.0198e-18 2.83211)
(9.38748 -4.66453e-19 2.87164)
(9.56493 4.47477e-19 2.89248)
(9.7377 0 2.89534)
(9.90391 1.57074e-20 2.88052)
)
;
    }
    procBoundary4to5
    {
        type            processor;
        value           nonuniform List<vector> 
18
(
(1.96289 -3.79821e-21 -0.0376828)
(1.91046 -1.20272e-22 -0.101482)
(1.44818 1.1576e-20 -0.161878)
(0.918646 -1.17238e-20 -0.198897)
(0.354251 1.21228e-20 -0.209668)
(-0.21726 -1.64036e-20 -0.187446)
(-0.684413 -8.26324e-21 -0.155035)
(-1.02538 -8.30511e-21 -0.119683)
(-1.26398 -8.42193e-21 -0.0834378)
(-1.40033 -1.72815e-20 -0.0502601)
(-1.45518 0 -0.0191882)
(-1.43512 0 0.00842252)
(-1.33873 0 0.0286235)
(-1.16076 1.00995e-20 0.0350096)
(-0.893744 -2.05608e-20 0.013306)
(-0.587101 -6.62933e-21 -0.0939533)
(-0.587101 -6.62933e-21 -0.0939533)
(1.7701 0 0.372585)
)
;
    }
}


// ************************************************************************* //
