/*--------------------------------*- C++ -*----------------------------------*\
| =========                 |                                                 |
| \\      /  F ield         | OpenFOAM: The Open Source CFD Toolbox           |
|  \\    /   O peration     | Version:  dev                                   |
|   \\  /    A nd           | Web:      www.OpenFOAM.org                      |
|    \\/     M anipulation  |                                                 |
\*---------------------------------------------------------------------------*/
FoamFile
{
    version     2.0;
    format      ascii;
    class       surfaceScalarField;
    location    "1.28";
    object      phi;
}
// * * * * * * * * * * * * * * * * * * * * * * * * * * * * * * * * * * * * * //

dimensions      [0 3 -1 0 0 0 0];

internalField   nonuniform List<scalar> 
865
(
0.104867
0.00832327
0.0957631
0.00910891
0.0857742
0.00999354
0.0747813
0.010997
0.0626353
0.0121491
0.0491363
0.0135012
0.0339761
0.0151616
0.0164928
0.0174839
0.016493
0.123422
0.0162849
0.114582
0.0179543
0.104715
0.019865
0.0936278
0.0220881
0.0810343
0.024746
0.0664904
0.0280473
0.049262
0.0323912
0.0275854
0.0391611
0.0440786
0.130095
0.0236336
0.121821
0.0262331
0.112416
0.029275
0.101592
0.0329164
0.0888977
0.0374434
0.07355
0.0433976
0.0543132
0.0516294
0.0298867
0.063588
0.0739655
0.132592
0.0306708
0.124602
0.034228
0.115388
0.0384935
0.104561
0.043748
0.0915749
0.0504328
0.0755666
0.059409
0.0548006
0.072397
0.0292451
0.0891438
0.103211
0.133478
0.0376458
0.12551
0.0422013
0.116242
0.0477664
0.105225
0.0547679
0.0917751
0.0638865
0.0751309
0.0760566
0.0534044
0.0941258
0.027664
0.114885
0.130875
0.133771
0.0446872
0.125682
0.0502961
0.116195
0.0572578
0.104866
0.0661005
0.0910026
0.0777526
0.073731
0.0933312
0.0512039
0.116656
0.0257518
0.140338
0.156626
0.13391
0.0518551
0.125634
0.058578
0.115907
0.0669903
0.104205
0.077806
0.0899134
0.0920459
0.0721816
0.111065
0.0489919
0.139849
0.0238355
0.165496
0.180461
0.134131
0.0591512
0.125651
0.0670634
0.115668
0.0769793
0.103697
0.0897821
0.0889781
0.106766
0.0709572
0.129086
0.0473096
0.163499
0.0221236
0.190685
0.202585
0.13458
0.0665352
0.125973
0.0756755
0.115761
0.0871972
0.103535
0.102014
0.0885184
0.121786
0.0702767
0.147327
0.0461181
0.187657
0.02067
0.216135
0.223255
0.13537
0.0739457
0.126715
0.0843337
0.116434
0.0974826
0.104018
0.114437
0.0888121
0.136997
0.0701746
0.165965
0.0453099
0.21252
0.0194668
0.241979
0.242721
0.136594
0.081293
0.128003
0.0929266
0.117765
0.107723
0.105354
0.126852
0.0899948
0.152363
0.0705358
0.185428
0.0449839
0.23807
0.0184406
0.26852
0.261161
0.138343
0.0884704
0.129925
0.101346
0.119886
0.117763
0.1077
0.139039
0.0923137
0.167753
0.072356
0.205389
0.0472923
0.263132
0.0205099
0.295299
0.281668
0.140688
0.0953537
0.132621
0.109415
0.123082
0.127302
0.111484
0.150636
0.0968881
0.182348
0.078158
0.224121
0.0562595
0.285029
0.0314622
0.320092
0.313125
0.143726
0.101771
0.13632
0.116821
0.127663
0.135959
0.117345
0.160953
0.104954
0.194735
0.0898181
0.239252
0.0746924
0.30015
0.0552742
0.339504
0.36839
0.147193
0.107555
0.14067
0.123344
0.133297
0.143331
0.12501
0.169238
0.116074
0.203664
0.107128
0.24819
0.103121
0.304146
0.0978464
0.344767
0.466224
0.00439322
-0.00439525
0.00847187
-0.00411278
0.0126888
-0.00435663
0.0176698
-0.0051605
0.0234898
-0.00584383
0.0295754
-0.00598183
0.0354819
-0.00580395
0.0411054
-0.00556181
0.0465492
-0.00541324
-0.00526181
0.00270837
-0.00710581
0.0064347
-0.0078778
0.0110072
-0.00907661
0.0163196
-0.0106471
0.0220622
-0.0115983
0.0276713
-0.0114838
0.0328528
-0.0108851
0.0376234
-0.0102733
0.042023
-0.00978415
-0.00931176
0.00184102
-0.00894928
0.00488529
-0.0109682
0.00917417
-0.0135182
0.0140136
-0.0156388
0.0187982
-0.0163734
0.0231047
-0.0156858
0.0268331
-0.014524
0.0300736
-0.013463
0.0328629
-0.0125496
-0.0116732
0.00149123
-0.0104437
0.00417096
-0.0137028
0.00813931
-0.0176355
0.0121209
-0.0197363
0.0155156
-0.0197391
0.0182185
-0.018297
0.0203324
-0.0165665
0.021978
-0.0150695
0.0232188
-0.0137732
-0.0125383
0.00140358
-0.0118525
0.0040432
-0.0164057
0.00757521
-0.0212996
0.0103109
-0.0225451
0.0120555
-0.021445
0.0130977
-0.0192677
0.013681
-0.0170988
0.0139282
-0.0152895
0.0139085
-0.0137428
-0.0122914
0.00155683
-0.0134186
0.00427181
-0.0191879
0.00700141
-0.0241307
0.00819793
-0.0237751
0.00828984
-0.021501
0.00783481
-0.0187654
0.00713631
-0.0163679
0.00632054
-0.0144564
0.00543764
-0.0128539
-0.0113584
0.00209768
-0.0155312
0.00455983
-0.0217125
0.00605136
-0.0256845
0.00562349
-0.0233541
0.00423595
-0.0200906
0.00258535
-0.0170918
0.000978186
-0.0147443
-0.000496492
-0.0129719
-0.00184223
-0.0115053
-0.0101155
0.00308739
-0.0186393
0.00459118
-0.0232645
0.00450823
-0.0256253
0.00255282
-0.0213919
1.86453e-05
-0.0175491
-0.00240119
-0.0146697
-0.00446339
-0.0126793
-0.00619065
-0.0112413
-0.00766597
-0.0100294
-0.00882687
0.00429597
-0.022959
0.00405348
-0.0230513
0.00222545
-0.0237935
-0.000928091
-0.0182247
-0.0040881
-0.0143907
-0.00676307
-0.0120059
-0.00889291
-0.0105579
-0.0105887
-0.00954904
-0.0119685
-0.00865195
-0.0076779
0.00492544
-0.0279061
0.00254575
-0.0206871
-0.000788064
-0.0204437
-0.00454394
-0.0144488
-0.00775552
-0.0111784
-0.0102657
-0.00951034
-0.0121605
-0.00867884
-0.0135892
-0.00813076
-0.0146871
-0.00756081
-0.00681856
0.00404573
-0.0319658
-0.000252742
-0.0164029
-0.00427056
-0.0164124
-0.00790599
-0.0107868
-0.0106969
-0.00837451
-0.0127288
-0.00748515
-0.0141337
-0.00728943
-0.0150823
-0.00719663
-0.0157293
-0.00692474
-0.00637784
0.000709131
-0.0326758
-0.00435362
-0.0113672
-0.0078149
-0.0129563
-0.010635
-0.00794159
-0.0126785
-0.00630504
-0.0139909
-0.00616487
-0.0146674
-0.00662011
-0.0149306
-0.00694625
-0.0149759
-0.00689217
-0.00645734
-0.00453266
-0.0281259
-0.00838218
-0.00755839
-0.0106407
-0.0107353
-0.0123233
-0.00625506
-0.0135047
-0.0051002
-0.013894
-0.00575888
-0.0135712
-0.00694052
-0.0129537
-0.00757118
-0.0122919
-0.00756536
-0.00712264
-0.00807402
-0.0200146
-0.010322
-0.00534075
-0.011759
-0.00936064
-0.0124733
-0.00557119
-0.0130109
-0.00456203
-0.0122862
-0.00647446
-0.0105991
-0.00862388
-0.00892475
-0.00924945
-0.00753744
-0.00896208
-0.00839488
-0.00438065
-0.0155873
-0.00715792
-0.00254803
-0.00884836
-0.00770714
-0.0099762
-0.00447939
-0.0105501
-0.00400545
-0.00837191
-0.0086575
-0.00499115
-0.0120071
-0.00243009
-0.0118157
-0.000579365
-0.0108218
0.158235
0.11254
0.152874
0.128702
0.147251
0.148951
0.141781
0.174704
0.137816
0.207621
0.138238
0.247755
0.151575
0.290791
0.184807
0.311515
0.291875
0.359139
0.167881
0.116488
0.163967
0.132611
0.160515
0.152398
0.158613
0.1766
0.160526
0.205699
0.170623
0.237641
0.198124
0.263267
0.246389
0.263223
0.249106
0.289132
0.178784
0.119218
0.176577
0.134811
0.175725
0.153242
0.177581
0.174735
0.184612
0.198656
0.200566
0.221668
0.228585
0.235223
0.261604
0.230174
0.211709
0.298975
0.190679
0.190397
0.135085
0.192062
0.151567
0.197007
0.169778
0.207442
0.188206
0.22558
0.203509
0.251083
0.209692
0.278996
0.202231
0.18223
0.308447
0.204961
0.208706
0.215988
0.162482
0.228279
0.175897
0.246405
0.185358
0.268727
0.187343
0.290933
0.179995
0.162442
0.310694
0.233994
0.246796
0.26356
0.168569
0.282332
0.168543
0.299968
0.162331
0.147494
0.314891
0.277976
0.293755
0.308434
0.147625
0.135202
0.320701
0.316609
0.327072
0.234362
0.124775
0.171431
0.0629286
0.0403226
0.131103
0.291325
0.12257
0.274619
0.0796264
0.0618983
0.253036
0.315538
0.105993
0.313399
0.0817548
0.0730032
0.302286
0.31954
0.0948839
0.322117
0.0791654
0.0753682
0.31974
0.319841
0.0857215
0.324689
0.0743031
0.0731796
0.326863
0.322594
0.078003
0.327714
0.0691689
0.0694507
0.331426
0.327121
0.071569
0.331832
0.0644434
0.065421
0.335844
0.3326
0.336889
0.0601398
0.0614626
0.340829
0.342692
0.346468
0.0649826
0.0505603
0.0332235
0.0292453
0.0104128
0.0151058
0.0017409
0.00417861
0.00275513
-0.00503412
0.00574217
-0.0116548
0.0075483
-0.0138212
0.00831174
-0.0125875
-0.0120041
0.215038
0.0885591
0.178906
0.0653896
0.146736
0.0472816
0.116807
0.0341049
0.0880276
0.0237378
0.0616451
0.0147184
0.0417852
0.00602899
0.0316357
-0.00244821
-0.00915972
0.279718
0.111117
0.253813
0.0912896
0.227841
0.0732507
0.203009
0.058932
0.17956
0.0471796
0.157278
0.0369918
0.135262
0.0280338
0.112672
0.0201309
0.0127723
0.309281
0.121559
0.2943
0.106258
0.27721
0.0903306
0.259121
0.0770115
0.240616
0.0656745
0.221879
0.0557179
0.203069
0.0468317
0.184422
0.0387649
0.0312947
0.324927
0.123473
0.318142
0.113025
0.308221
0.100236
0.29628
0.0889391
0.282969
0.0789717
0.268652
0.0700218
0.2536
0.0618701
0.237968
0.054384
0.0475023
0.334042
0.120833
0.332576
0.114468
0.327941
0.104852
0.321
0.095863
0.312323
0.0876326
0.302245
0.0800852
0.290993
0.0731069
0.278737
0.0666247
0.0606486
0.340412
0.116237
0.342061
0.112794
0.341034
0.105857
0.337852
0.0990259
0.33291
0.0925559
0.326487
0.0864909
0.318755
0.080823
0.309829
0.0755341
0.070624
0.346108
0.110931
0.349426
0.109449
0.350673
0.104585
0.350107
0.0995699
0.347971
0.0946714
0.344451
0.0899917
0.339679
0.0855773
0.333741
0.081455
0.0776395
0.351955
0.356126
0.105249
0.358738
0.101948
0.359903
0.0983816
0.359759
0.094794
0.358424
0.0913063
0.35599
0.0879927
0.352525
0.084902
0.0820701
0.362787
0.366218
0.368514
0.369752
0.0935334
0.37001
0.0910277
0.369352
0.0886317
0.367829
0.0864067
0.0843985
0.378846
0.380257
0.380925
0.087945
0.380892
0.0864222
0.0850823
0.391472
0.392577
0.0844845
)
;

boundaryField
{
    inlet
    {
        type            calculated;
        value           nonuniform 0();
    }
    outlet
    {
        type            calculated;
        value           nonuniform 0();
    }
    flap
    {
        type            calculated;
        value           nonuniform List<scalar> 
33
(
0
0
-2.46519e-32
0
0
0
0
9.86076e-32
0
9.86076e-32
0
0
-4.93038e-31
0
9.86076e-32
0
-4.93038e-32
9.86076e-32
7.70372e-34
0
2.46519e-32
0
-4.93038e-32
4.93038e-32
0
-1.47911e-31
0
-3.9443e-31
0
0
-2.95823e-31
-9.86076e-32
0
)
;
    }
    upperWall
    {
        type            calculated;
        value           nonuniform 0();
    }
    lowerWall
    {
        type            calculated;
        value           uniform 0;
    }
    frontAndBack
    {
        type            empty;
        value           nonuniform 0();
    }
    procBoundary4to1
    {
        type            processor;
        value           nonuniform List<scalar> 
30
(
0.120605
-0.203443
0.133559
0.147812
-0.225236
0.153712
0.163076
-0.263046
0.153618
0.152738
-0.304057
0.135049
0.124717
0.0660262
-0.338745
0.0561786
0.0576694
0.105417
-0.358176
0.100611
0.0984906
0.096062
-0.376642
0.0913061
0.0895961
-0.389809
0.0862627
0.0853003
-0.403452
0.0828892
)
;
    }
    procBoundary4to2
    {
        type            processor;
        value           nonuniform List<scalar> 
11
(
0.0907278
0.165887
0.221746
0.265576
0.299838
0.32671
0.348079
0.365485
0.380192
0.39316
0.405034
)
;
    }
    procBoundary4to3
    {
        type            processor;
        value           nonuniform List<scalar> 
19
(
-0.113185
-0.131379
-0.137439
-0.139624
-0.140448
-0.140808
-0.141073
-0.141423
-0.141961
-0.142778
-0.143939
-0.145519
-0.147571
-0.150144
-0.152981
-0.163225
-0.171837
-0.181521
-0.192075
)
;
    }
    procBoundary4to5
    {
        type            processor;
        value           nonuniform List<scalar> 
18
(
0.0518233
0.0460838
0.0352322
0.0240878
0.0136617
0.0045019
-0.00308935
-0.00895942
-0.0131229
-0.0155535
-0.0161798
-0.0149085
-0.0116397
-0.00627796
0.00124576
-0.0102323
0.0094839
0.0287799
)
;
    }
}


// ************************************************************************* //
