/*--------------------------------*- C++ -*----------------------------------*\
| =========                 |                                                 |
| \\      /  F ield         | OpenFOAM: The Open Source CFD Toolbox           |
|  \\    /   O peration     | Version:  dev                                   |
|   \\  /    A nd           | Web:      www.OpenFOAM.org                      |
|    \\/     M anipulation  |                                                 |
\*---------------------------------------------------------------------------*/
FoamFile
{
    version     2.0;
    format      ascii;
    class       surfaceVectorField;
    location    "1.38";
    object      Uf;
}
// * * * * * * * * * * * * * * * * * * * * * * * * * * * * * * * * * * * * * //

dimensions      [0 1 -1 0 0 0 0];

internalField   nonuniform List<vector> 
879
(
(9.995 -4.56274e-19 0.093262)
(9.99889 -7.02791e-21 0.0647175)
(9.99201 -2.24314e-19 0.12365)
(9.99558 2.29108e-19 0.0962065)
(9.99937 0 0.0666597)
(9.9878 -1.93767e-20 0.155854)
(9.99306 2.27479e-19 0.127274)
(9.98424 2.39849e-19 0.187389)
(9.99625 0 0.0988455)
(9.99994 0 0.0683505)
(9.98953 4.93346e-19 0.160073)
(9.99427 1.29986e-20 0.130497)
(9.98039 4.42405e-19 0.221962)
(9.98678 4.08253e-20 0.192013)
(9.97783 -2.55894e-19 0.255563)
(9.99709 1.34196e-20 0.101109)
(10.0004 -3.85897e-19 0.0697098)
(9.99161 -4.507e-19 0.163699)
(9.99564 2.59149e-20 0.133217)
(9.98426 -6.77794e-19 0.226858)
(9.98967 -4.97558e-19 0.195872)
(9.97527 -1.63336e-19 0.292646)
(9.98279 -2.02983e-19 0.260545)
(9.97439 6.05669e-20 0.328474)
(9.99785 -3.70147e-19 0.102926)
(10.0006 3.48216e-19 0.0707621)
(9.9938 -2.70821e-20 0.166635)
(9.99694 -1.75278e-19 0.135323)
(9.98831 -8.21904e-21 0.230818)
(9.99256 -3.79247e-20 0.198902)
(9.98157 2.85049e-20 0.297642)
(9.98771 2.42061e-19 0.264483)
(9.97376 0 0.368114)
(9.98185 0 0.333312)
(9.97499 2.84739e-19 0.406133)
(9.99844 5.44212e-19 0.104292)
(10.0007 3.92606e-19 0.0715604)
(9.99577 -1.8519e-19 0.168834)
(9.99818 2.14479e-21 0.136805)
(9.99213 2.20954e-19 0.233807)
(9.99527 2.53141e-21 0.201061)
(9.9877 2.11164e-19 0.301398)
(9.99246 2.69323e-19 0.267293)
(9.98273 2.93762e-19 0.372574)
(9.98933 1.05627e-19 0.336698)
(9.97755 4.65424e-19 0.448123)
(9.98567 1.26021e-19 0.409993)
(9.98227 9.25032e-21 0.488018)
(9.99912 -1.65837e-19 0.105209)
(10.001 -7.34877e-19 0.0720418)
(9.99772 1.94587e-19 0.170292)
(9.99956 2.37537e-20 0.137679)
(9.99585 5.41824e-20 0.235759)
(9.9981 2.53813e-21 0.202339)
(9.99387 1.60002e-19 0.303777)
(9.9973 -1.44743e-19 0.268832)
(9.99194 -6.63928e-20 0.37531)
(9.99693 -4.64573e-20 0.338447)
(9.99024 -3.42599e-19 0.451098)
(9.99653 -2.23719e-19 0.411899)
(9.98917 -1.10666e-19 0.531974)
(9.99677 -3.952e-19 0.48991)
(9.98912 -4.38592e-19 0.618713)
(9.99809 6.04324e-20 0.57334)
(10.0009 -4.94186e-19 0.662854)
(9.99997 -5.35381e-19 0.105613)
(10.0013 -3.62537e-19 0.0721152)
(9.99995 -1.73431e-19 0.170966)
(10.0009 7.55835e-21 0.137866)
(9.99987 -2.02682e-19 0.236617)
(10.0011 3.34933e-19 0.202686)
(10.0002 -3.55885e-19 0.30468)
(10.0023 1.56278e-19 0.269106)
(10.0012 -2.08779e-19 0.376206)
(10.0044 -1.09296e-19 0.338542)
(10.0029 -2.78394e-19 0.451898)
(10.0072 -3.2933e-21 0.411808)
(10.0056 -2.18139e-19 0.53248)
(10.0109 -6.49597e-20 0.489483)
(10.0099 2.3008e-21 0.618676)
(10.0161 -1.08897e-19 0.572313)
(10.0161 2.23399e-21 0.71102)
(10.0234 2.27519e-19 0.660897)
(10.0334 -2.2805e-19 0.755643)
(10.0007 1.96422e-19 0.105463)
(10.0016 3.32793e-19 0.0718215)
(10.0021 5.31665e-19 0.170791)
(10.0019 -1.58316e-19 0.137348)
(10.0038 7.01795e-19 0.236352)
(10.0038 1.74704e-19 0.202019)
(10.0064 4.0766e-19 0.304141)
(10.0071 -4.78478e-20 0.268117)
(10.0101 1.02213e-19 0.375302)
(10.0116 1.46591e-19 0.337046)
(10.015 2.15624e-19 0.450538)
(10.0173 2.00198e-19 0.40974)
(10.0214 4.70868e-20 0.530448)
(10.0244 2.14878e-19 0.486694)
(10.0298 1.22881e-19 0.615651)
(10.0334 -6.03261e-20 0.568488)
(10.0407 -9.5976e-21 0.706628)
(10.0451 2.32372e-19 0.655659)
(10.0548 1.27341e-20 0.803795)
(10.0598 -3.42315e-19 0.748606)
(10.0727 2.36753e-19 0.907576)
(10.0782 2.41217e-19 0.847758)
(10.1005 1.61274e-21 0.953516)
(10.0012 -3.41822e-20 0.104813)
(10.002 6.51684e-19 0.0712565)
(10.0038 -5.21536e-19 0.169756)
(10.0027 -3.35737e-20 0.136169)
(10.0074 -5.9589e-19 0.234914)
(10.0063 -1.61027e-19 0.200288)
(10.0122 -3.14667e-19 0.30214)
(10.0118 -2.47458e-19 0.265773)
(10.0186 2.47481e-19 0.372586)
(10.0185 -3.96548e-20 0.333892)
(10.0266 1.99537e-19 0.446977)
(10.0271 -8.77719e-20 0.405636)
(10.0366 1.03919e-19 0.525804)
(10.0375 5.23233e-20 0.481479)
(10.0489 5.24421e-20 0.609564)
(10.0501 -2.49984e-19 0.561841)
(10.0643 -1.09879e-19 0.698696)
(10.0658 2.08738e-19 0.647176)
(10.0831 -1.08027e-19 0.793612)
(10.085 -2.14644e-19 0.737867)
(10.1061 0 0.8947)
(10.108 0 0.834348)
(10.1336 0 1.00227)
(10.1353 -2.18278e-19 0.936957)
(10.1666 2.4068e-19 1.11656)
(10.1679 2.21371e-19 1.04585)
(10.2062 4.65416e-19 1.16123)
(10.0018 6.47845e-19 0.103692)
(10.0024 1.07384e-20 0.0703746)
(10.0054 3.35037e-19 0.167852)
(10.0037 6.53828e-19 0.134346)
(10.0109 1.95793e-19 0.232219)
(10.0086 3.18181e-20 0.19745)
(10.018 3.5891e-20 0.298591)
(10.0162 1.62327e-19 0.261988)
(10.0269 -3.83905e-19 0.368006)
(10.0253 8.20783e-20 0.329065)
(10.0378 -2.38448e-19 0.441169)
(10.0365 -2.91668e-19 0.399511)
(10.0512 -3.11827e-19 0.518523)
(10.0499 0 0.473838)
(10.0673 -8.88079e-20 0.600454)
(10.066 -1.16002e-19 0.5524)
(10.0867 1.01092e-19 0.68734)
(10.0855 2.13419e-19 0.635513)
(10.1099 -1.03785e-19 0.779577)
(10.1088 9.77608e-20 0.723547)
(10.1374 -2.24129e-19 0.87752)
(10.136 0 0.81694)
(10.1699 8.29903e-21 0.981398)
(10.1678 -1.27138e-20 0.91593)
(10.2078 4.51717e-19 1.09134)
(10.2051 1.29919e-20 1.02063)
(10.252 -9.73306e-21 1.20743)
(10.248 -9.40615e-20 1.13117)
(10.2975 -3.42295e-19 1.24745)
(10.0026 2.09343e-20 0.102051)
(10.0028 -3.22268e-19 0.0690369)
(10.0072 3.37761e-19 0.165096)
(10.0049 -2.87558e-19 0.131894)
(10.0142 -1.6318e-21 0.228286)
(10.0111 4.1421e-20 0.19364)
(10.0235 2.09251e-19 0.293475)
(10.0203 -4.29645e-20 0.25682)
(10.0348 1.75232e-19 0.361576)
(10.0315 2.72512e-19 0.322527)
(10.0485 -4.58699e-20 0.433176)
(10.0453 8.50133e-20 0.391395)
(10.0649 2.00904e-19 0.508674)
(10.0615 0 0.463864)
(10.0845 1.94938e-19 0.588384)
(10.0808 2.47191e-19 0.540211)
(10.1077 2.10095e-19 0.672634)
(10.1039 -4.79157e-20 0.620691)
(10.1349 2.04516e-19 0.761807)
(10.1309 4.04363e-19 0.705724)
(10.1666 2.17497e-19 0.856197)
(10.1619 0 0.795684)
(10.2033 -8.06513e-21 0.955959)
(10.1977 2.17911e-19 0.89066)
(10.2457 -5.48321e-19 1.06118)
(10.239 -2.21043e-19 0.990781)
(10.2942 -4.35228e-19 1.17184)
(10.286 -1.2876e-19 1.09613)
(10.3496 3.89003e-21 1.28769)
(10.3396 9.97321e-20 1.20646)
(10.4123 -3.39708e-19 1.40837)
(10.4003 1.11602e-19 1.32144)
(10.4681 -4.51573e-19 1.4407)
(10.0032 -6.38277e-19 0.0998588)
(10.0027 -4.78984e-21 0.0673205)
(10.009 -5.88753e-19 0.161527)
(10.006 -3.29211e-19 0.12872)
(10.0174 -1.55651e-21 0.223233)
(10.0134 2.06147e-20 0.188901)
(10.0283 2.3628e-20 0.286868)
(10.0241 -2.01859e-19 0.250421)
(10.0419 1.79201e-19 0.353289)
(10.0372 2.3042e-19 0.314329)
(10.0583 1.31873e-19 0.422998)
(10.0533 6.71986e-21 0.381249)
(10.0777 4.80243e-20 0.496281)
(10.0723 1.30949e-19 0.451532)
(10.1005 -2.65921e-21 0.573379)
(10.0946 4.7942e-20 0.525285)
(10.1272 1.51813e-19 0.654639)
(10.121 -1.41029e-19 0.602806)
(10.158 1.94432e-19 0.740426)
(10.1511 1.05124e-19 0.684561)
(10.1933 0 0.830924)
(10.1856 -2.8504e-19 0.770754)
(10.2338 0 0.926215)
(10.225 1.03011e-21 0.861387)
(10.2799 2.1052e-19 1.02638)
(10.2696 -9.84737e-20 0.956618)
(10.3321 4.20904e-19 1.13135)
(10.32 1.19224e-20 1.05648)
(10.3909 2.10516e-19 1.24078)
(10.3769 3.14785e-19 1.16068)
(10.4566 0 1.35427)
(10.4405 -3.9905e-19 1.26885)
(10.5298 0 1.47142)
(10.5108 1.00952e-19 1.38052)
(10.6109 1.05025e-19 1.59183)
(10.5883 -9.91371e-20 1.4953)
(10.6736 2.0615e-19 1.61283)
(10.0037 3.10034e-19 0.0971362)
(10.0027 -4.38399e-21 0.065311)
(10.0106 2.98368e-19 0.15711)
(10.0071 3.03783e-19 0.124803)
(10.0204 -1.86339e-19 0.217068)
(10.0155 9.40262e-21 0.183157)
(10.033 1.25947e-20 0.278829)
(10.0276 -2.90502e-20 0.242768)
(10.0486 5.25072e-20 0.343195)
(10.0426 3.0175e-20 0.304571)
(10.0673 6.20715e-21 0.410634)
(10.0606 -3.38076e-19 0.369159)
(10.0895 1.30704e-19 0.481341)
(10.0821 -1.61805e-19 0.436856)
(10.1153 -9.44145e-20 0.555505)
(10.1073 4.32355e-20 0.507682)
(10.1451 -1.89147e-19 0.633508)
(10.1364 -3.59125e-19 0.581983)
(10.179 -3.87585e-19 0.715639)
(10.1695 -2.76575e-19 0.660205)
(10.2175 -2.84592e-19 0.801942)
(10.2071 1.19912e-19 0.742358)
(10.2612 -9.99356e-20 0.892461)
(10.2495 1.88258e-19 0.828391)
(10.3104 -3.03321e-19 0.987294)
(10.2969 -1.01341e-19 0.918466)
(10.3656 -9.84653e-20 1.08633)
(10.3501 -2.05183e-19 1.01258)
(10.4272 -3.09503e-19 1.18923)
(10.4097 1.01988e-19 1.11047)
(10.4952 -2.97694e-19 1.29555)
(10.4755 -2.17414e-19 1.21179)
(10.5701 -8.4958e-23 1.40484)
(10.5475 1.51675e-19 1.31606)
(10.6519 3.15173e-21 1.51669)
(10.6259 -1.50543e-19 1.42283)
(10.741 1.01035e-19 1.63055)
(10.7112 1.50887e-19 1.53163)
(10.8377 4.01264e-19 1.74548)
(10.8035 -2.37563e-19 1.64168)
(10.9029 2.18591e-19 1.75189)
(10.0043 -9.05443e-21 0.0938658)
(10.0027 -4.49242e-21 0.0628672)
(10.0122 5.21585e-21 0.151848)
(10.0081 -2.58344e-22 0.120198)
(10.0232 1.70514e-19 0.209805)
(10.0176 5.0964e-21 0.176515)
(10.0373 -1.07463e-20 0.269398)
(10.031 3.10007e-19 0.233909)
(10.0547 -3.72241e-19 0.331375)
(10.0475 -1.65327e-19 0.293278)
(10.0756 -5.10144e-19 0.396175)
(10.0673 -5.11786e-20 0.355202)
(10.1002 -2.51258e-19 0.463961)
(10.0911 -1.40395e-19 0.41996)
(10.1286 -2.29157e-19 0.534904)
(10.1188 4.44324e-20 0.487576)
(10.1611 -4.49166e-19 0.609372)
(10.1503 -1.0087e-19 0.558381)
(10.1979 2.45032e-19 0.687567)
(10.1859 -1.82636e-19 0.63274)
(10.2393 6.06009e-19 0.769434)
(10.2264 2.47475e-19 0.710592)
(10.2857 1.87636e-19 0.854989)
(10.2714 1.92602e-19 0.79186)
(10.3375 0 0.944289)
(10.3212 2.24928e-19 0.876646)
(10.395 0 1.0372)
(10.3767 -4.58868e-20 0.964876)
(10.4586 1.98484e-19 1.13347)
(10.4381 -1.82778e-19 1.05632)
(10.5283 2.43283e-19 1.23271)
(10.5054 1.99215e-19 1.15079)
(10.6041 -1.67494e-21 1.33442)
(10.5784 4.91366e-20 1.24789)
(10.6862 -8.8053e-23 1.43804)
(10.6572 -4.98946e-20 1.34695)
(10.7748 -1.95809e-19 1.54295)
(10.7421 -1.34833e-19 1.44725)
(10.8699 -4.27676e-19 1.64828)
(10.8333 -6.50359e-20 1.54816)
(10.0048 4.52036e-21 0.0900546)
(10.0027 0 0.0600877)
(10.0136 -3.4249e-22 0.145775)
(10.0087 2.75569e-19 0.114928)
(10.0258 1.50076e-19 0.201486)
(10.0193 -4.66524e-21 0.168897)
(10.0413 1.49064e-19 0.258635)
(10.0341 7.79881e-21 0.223865)
(10.0603 1.64743e-19 0.317898)
(10.0521 0 0.280553)
(10.0832 3.28313e-19 0.37971)
(10.0734 1.45016e-19 0.339461)
(10.1099 1.63683e-19 0.444263)
(10.0991 1.88191e-19 0.400919)
(10.1407 1.76248e-19 0.511729)
(10.1291 0 0.465074)
(10.1755 1.73092e-19 0.582386)
(10.1627 1.76124e-19 0.532165)
(10.2147 -1.80605e-19 0.656351)
(10.2006 1.69776e-19 0.60238)
(10.2586 -1.77654e-19 0.733552)
(10.2434 -1.82473e-19 0.675667)
(10.3074 2.30964e-19 0.814002)
(10.2905 0 0.751972)
(10.3613 1.78406e-19 0.897699)
(10.3423 2.29572e-19 0.831365)
(10.4206 -2.33603e-19 0.984459)
(10.3997 1.27422e-19 0.913729)
(10.4855 -1.8339e-19 1.07408)
(10.4626 -5.42384e-20 0.998792)
(10.5561 0 1.16633)
(10.5305 -1.31994e-19 1.08649)
(10.6322 0 1.26067)
(10.6037 1.5513e-19 1.17654)
(10.7141 -1.88314e-19 1.35631)
(10.6826 1.14334e-20 1.26801)
(10.8018 -1.12214e-22 1.45258)
(10.7669 1.56983e-21 1.36008)
(10.8566 1.84656e-19 1.4523)
(10.0051 2.79289e-19 0.085787)
(10.0028 -4.98993e-22 0.0570691)
(10.0146 2.69133e-19 0.138896)
(10.0093 1.39393e-20 0.109049)
(10.028 -1.50531e-19 0.192056)
(10.0208 -4.25352e-21 0.160297)
(10.0449 -1.45192e-19 0.24654)
(10.0367 -1.45297e-19 0.212592)
(10.0654 -1.97505e-20 0.302842)
(10.0562 1.62122e-19 0.266407)
(10.0899 1.19597e-21 0.361345)
(10.0791 1.09569e-19 0.322032)
(10.1186 1.96892e-20 0.422351)
(10.1064 3.92047e-20 0.379884)
(10.1513 0 0.486083)
(10.138 -1.94575e-20 0.440282)
(10.1883 1.72755e-19 0.552708)
(10.1735 1.57597e-19 0.503406)
(10.2296 1.68091e-19 0.622236)
(10.2135 1.32659e-19 0.569302)
(10.2754 0 0.694579)
(10.2582 2.03778e-19 0.637884)
(10.326 -1.95182e-21 0.769747)
(10.307 0 0.709069)
(10.3817 1.77415e-19 0.847755)
(10.3603 -2.11903e-19 0.782891)
(10.4424 3.12648e-19 0.928453)
(10.4191 5.23399e-20 0.859345)
(10.5081 -1.13224e-21 1.01162)
(10.4828 1.37898e-19 0.938302)
(10.5789 2.67596e-20 1.097)
(10.5509 -1.34053e-19 1.01951)
(10.655 1.6733e-19 1.18401)
(10.6241 1.60484e-19 1.10245)
(10.7363 2.07058e-19 1.27185)
(10.7027 -1.61425e-21 1.18633)
(10.8228 1.91107e-19 1.35987)
(10.786 2.06963e-19 1.27053)
(10.8739 1.71407e-19 1.35459)
(10.0055 -2.72323e-19 0.0810733)
(10.0029 -2.69191e-22 0.0536895)
(10.0157 -2.6646e-19 0.131277)
(10.0099 -5.25378e-19 0.102609)
(10.0299 3.08865e-22 0.181579)
(10.0221 -4.3625e-21 0.15092)
(10.048 1.71521e-19 0.233115)
(10.0389 4.51181e-21 0.200146)
(10.0701 2.94733e-19 0.286236)
(10.0598 3.48063e-20 0.250765)
(10.096 1.48423e-19 0.341227)
(10.0842 -1.12375e-20 0.302997)
(10.1261 -1.10335e-21 0.398419)
(10.1129 1.56415e-19 0.357119)
(10.1605 1.42696e-19 0.458097)
(10.1458 -1.99966e-20 0.413427)
(10.1993 1.16328e-19 0.520431)
(10.1828 8.71987e-21 0.472193)
(10.2425 1.69323e-19 0.58539)
(10.2246 -4.1227e-20 0.53358)
(10.2899 2.03996e-19 0.652808)
(10.271 2.08148e-19 0.597428)
(10.3419 -2.15729e-19 0.722605)
(10.3211 -1.98431e-20 0.663487)
(10.3986 -3.41329e-19 0.794838)
(10.3754 -1.95808e-19 0.731718)
(10.4602 -1.27749e-19 0.869529)
(10.4347 -1.31163e-19 0.802281)
(10.5263 1.9315e-21 0.946455)
(10.4985 1.01831e-20 0.875232)
(10.597 2.67511e-21 1.02509)
(10.5667 1.57512e-19 0.950039)
(10.6727 -1.29599e-20 1.1048)
(10.6399 -1.659e-19 1.02588)
(10.7532 -2.26427e-21 1.18502)
(10.7177 1.51814e-19 1.10231)
(10.8382 1.86836e-19 1.26526)
(10.7996 1.11741e-20 1.17902)
(10.8855 -1.56871e-19 1.25546)
(10.0058 -2.62205e-19 0.0759194)
(10.003 2.41044e-19 0.0500473)
(10.0165 -2.53152e-19 0.122986)
(10.0102 -1.37111e-20 0.0956215)
(10.0315 0 0.170156)
(10.0231 2.49338e-22 0.140742)
(10.0508 -1.35649e-19 0.218392)
(10.0408 -2.57412e-22 0.186601)
(10.0742 -2.79436e-19 0.268072)
(10.0628 -1.39299e-19 0.233688)
(10.1015 -2.55824e-21 0.319441)
(10.0886 -2.81586e-19 0.282337)
(10.1329 1.36716e-19 0.372674)
(10.1187 -1.42796e-19 0.332666)
(10.1686 -1.57715e-19 0.427998)
(10.153 -1.44083e-19 0.384727)
(10.2088 -1.53249e-19 0.485726)
(10.191 -1.66759e-19 0.438839)
(10.2534 -1.4924e-21 0.545954)
(10.2339 9.39313e-21 0.495438)
(10.3022 -2.18457e-20 0.608448)
(10.2816 -1.54077e-19 0.554448)
(10.3552 9.40553e-22 0.67298)
(10.3327 1.32806e-19 0.615497)
(10.4123 2.03048e-20 0.739559)
(10.3875 2.08553e-20 0.678425)
(10.4738 1.04597e-20 0.808259)
(10.4467 1.21888e-21 0.743294)
(10.5398 1.69996e-19 0.878853)
(10.5102 4.32135e-21 0.810021)
(10.6105 -1.53339e-20 0.950738)
(10.5784 3.23753e-19 0.878098)
(10.6856 2.98547e-21 1.02334)
(10.6511 -1.71534e-19 0.946997)
(10.7649 1.6585e-19 1.0963)
(10.7278 8.78024e-21 1.01645)
(10.848 -3.42205e-19 1.16917)
(10.808 0 1.08607)
(10.8918 -2.61022e-19 1.15522)
(10.0059 4.94433e-19 0.070404)
(10.0033 2.45248e-19 0.046228)
(10.0171 2.46139e-19 0.114028)
(10.0104 2.53663e-19 0.0881556)
(10.0329 -1.75756e-23 0.15777)
(10.0239 2.18892e-21 0.129708)
(10.0531 -4.60132e-21 0.202448)
(10.0425 -1.26472e-21 0.17201)
(10.0775 -1.41986e-19 0.248423)
(10.0655 -6.37128e-21 0.215348)
(10.1062 -4.25289e-19 0.29596)
(10.0922 -1.81841e-21 0.260057)
(10.139 -4.31258e-19 0.34513)
(10.1236 -2.90219e-19 0.306376)
(10.1758 -1.53373e-19 0.396)
(10.1594 -3.46657e-21 0.35423)
(10.2169 5.00981e-22 0.448928)
(10.1982 -1.38842e-20 0.403688)
(10.2625 -1.4754e-19 0.504239)
(10.2415 -1.34291e-19 0.455296)
(10.3121 4.77046e-21 0.561797)
(10.2898 -1.56968e-19 0.509358)
(10.3656 1.53392e-19 0.621247)
(10.3413 6.22574e-21 0.565539)
(10.4228 1.25242e-21 0.682386)
(10.3963 1.51887e-19 0.623348)
(10.4841 -5.10576e-21 0.745111)
(10.4554 1.06679e-20 0.682526)
(10.5497 1.61991e-19 0.809183)
(10.5187 -1.5952e-20 0.742866)
(10.6198 1.63917e-19 0.874255)
(10.5864 1.37779e-20 0.804175)
(10.6939 -1.66062e-19 0.940032)
(10.6581 -3.8423e-20 0.866371)
(10.7716 -1.61864e-19 1.00613)
(10.7331 -2.81774e-19 0.929182)
(10.8528 8.38779e-20 1.07196)
(10.8116 7.87913e-20 0.99196)
(10.8935 8.34236e-20 1.05402)
(10.0063 -1.34148e-21 0.0645492)
(10.0036 -2.29049e-19 0.0420802)
(10.0177 1.99409e-21 0.10447)
(10.0108 1.16326e-19 0.0803185)
(10.034 8.90251e-22 0.144477)
(10.0247 1.98241e-21 0.117998)
(10.0551 -3.10183e-21 0.185367)
(10.044 -1.0266e-21 0.156378)
(10.0805 1.37559e-19 0.2274)
(10.0678 -4.07252e-21 0.195779)
(10.1102 1.36172e-19 0.270822)
(10.0954 1.412e-19 0.236344)
(10.1442 1.4979e-19 0.315778)
(10.1277 1.33901e-19 0.278357)
(10.182 1.39866e-19 0.362253)
(10.1646 1.48589e-19 0.32195)
(10.2237 -1.52517e-19 0.410445)
(10.2042 -4.58454e-21 0.367001)
(10.2694 -1.43947e-19 0.460787)
(10.2475 -7.48409e-21 0.413823)
(10.3191 -1.55695e-19 0.513356)
(10.2952 -5.55542e-22 0.462932)
(10.3725 4.55659e-21 0.567709)
(10.3466 -1.55775e-19 0.51406)
(10.4298 1.6171e-19 0.623371)
(10.4017 1.55049e-19 0.566436)
(10.4911 -4.62788e-22 0.680097)
(10.4609 6.44709e-20 0.619686)
(10.5564 -1.68622e-19 0.737762)
(10.524 8.23247e-20 0.673815)
(10.6254 -1.94373e-19 0.796277)
(10.5909 -1.22209e-19 0.728837)
(10.698 -1.57169e-19 0.85546)
(10.6611 -4.0094e-20 0.784638)
(10.774 -3.46729e-20 0.914836)
(10.7346 -8.11641e-20 0.840817)
(10.8533 7.82383e-20 0.973752)
(10.8115 2.31559e-19 0.896747)
(10.8915 -1.53497e-19 0.951889)
(10.0065 -1.06975e-19 0.0583273)
(10.0035 -1.23055e-19 0.0376591)
(10.0183 1.15618e-19 0.0943678)
(10.0113 5.58167e-21 0.0719896)
(10.0352 0 0.130377)
(10.0257 0 0.105624)
(10.0569 -2.03453e-21 0.167209)
(10.0455 -1.19468e-19 0.139842)
(10.0831 1.22709e-22 0.205074)
(10.07 1.2422e-19 0.175061)
(10.1136 1.3886e-19 0.244161)
(10.0984 -1.27049e-19 0.211283)
(10.1484 1.32658e-19 0.284779)
(10.131 1.36529e-19 0.248855)
(10.1869 0 0.326991)
(10.1681 1.30222e-19 0.288232)
(10.2287 1.44666e-19 0.370749)
(10.208 0 0.32921)
(10.2739 1.40052e-19 0.416277)
(10.251 1.44612e-19 0.371604)
(10.3231 -5.55654e-22 0.463686)
(10.2982 6.76394e-20 0.415623)
(10.3763 -1.17096e-21 0.512593)
(10.3494 0 0.461129)
(10.4336 5.51839e-20 0.56251)
(10.4047 -1.59358e-19 0.50766)
(10.4947 1.49629e-19 0.613256)
(10.4636 3.10709e-21 0.555006)
(10.5593 1.30287e-19 0.664822)
(10.5261 -4.80721e-20 0.603206)
(10.6273 3.6428e-20 0.717108)
(10.592 1.09846e-19 0.652186)
(10.6985 3.81945e-20 0.769811)
(10.6611 -2.53875e-22 0.701655)
(10.773 1.9244e-19 0.822441)
(10.7334 1.85135e-19 0.75118)
(10.8507 -6.58577e-21 0.874503)
(10.8088 8.12328e-20 0.800317)
(10.8871 -8.42267e-20 0.84872)
(10.0067 -7.20004e-21 0.0516983)
(10.0035 5.12505e-21 0.0330083)
(10.0191 -1.12925e-19 0.0836233)
(10.0117 -1.16399e-19 0.0630051)
(10.0366 -1.23119e-19 0.115465)
(10.0269 -7.06517e-21 0.0924453)
(10.0589 1.10719e-20 0.148055)
(10.0472 -6.03212e-21 0.122417)
(10.0856 -7.14508e-21 0.181621)
(10.0721 2.51661e-20 0.153368)
(10.1164 -1.28819e-19 0.216346)
(10.1007 -2.59085e-20 0.185354)
(10.1511 1.34038e-19 0.252646)
(10.1329 7.78022e-21 0.218689)
(10.1893 1.30068e-19 0.290668)
(10.1693 6.22334e-20 0.253829)
(10.2309 0 0.33014)
(10.2091 6.76077e-23 0.290549)
(10.276 7.01636e-20 0.37088)
(10.2522 -5.69141e-20 0.328308)
(10.3251 6.8206e-20 0.412864)
(10.2995 8.61742e-20 0.36695)
(10.3783 -1.62678e-19 0.455969)
(10.3509 -1.68541e-20 0.406581)
(10.4353 -2.13069e-19 0.500015)
(10.406 -2.64088e-19 0.447277)
(10.4958 -2.00368e-19 0.544879)
(10.4644 -2.03475e-20 0.488915)
(10.5595 -6.92556e-20 0.590444)
(10.5261 -1.46756e-19 0.531251)
(10.6265 7.2214e-20 0.636491)
(10.5912 3.94909e-21 0.574066)
(10.6968 1.50783e-19 0.682676)
(10.6594 -3.7493e-22 0.617098)
(10.7701 7.07187e-20 0.728618)
(10.7306 8.37805e-21 0.660034)
(10.8462 1.44332e-21 0.773998)
(10.8047 -7.57774e-20 0.702572)
(10.8812 1.4654e-19 0.744475)
(10.007 -1.07173e-19 0.0445982)
(10.0039 -1.10179e-19 0.028042)
(10.02 -7.28153e-21 0.0721269)
(10.0123 -1.06889e-19 0.0533199)
(10.0382 1.13044e-19 0.0997035)
(10.028 -3.80498e-22 0.0784358)
(10.0608 8.49547e-21 0.128066)
(10.0485 1.12484e-19 0.104246)
(10.0875 5.83497e-21 0.157494)
(10.0732 -2.22404e-19 0.131167)
(10.1177 1.14522e-19 0.188119)
(10.1015 1.02288e-19 0.159284)
(10.1515 -6.59584e-20 0.220171)
(10.133 1.55337e-20 0.188528)
(10.1892 -7.14676e-20 0.253729)
(10.1689 -1.96157e-19 0.219025)
(10.2309 -5.84907e-20 0.288477)
(10.2087 -1.543e-20 0.250724)
(10.2765 -4.03621e-20 0.324068)
(10.2525 2.08201e-20 0.283221)
(10.326 -1.27438e-21 0.360469)
(10.3003 -4.77924e-20 0.316358)
(10.3791 -1.21113e-19 0.397822)
(10.3516 -1.73348e-20 0.350407)
(10.4357 -6.59473e-20 0.436125)
(10.4063 -5.77954e-21 0.385521)
(10.4955 3.49447e-20 0.475151)
(10.4641 -3.0887e-20 0.421429)
(10.5585 -7.15573e-20 0.514626)
(10.5252 1.23659e-21 0.45776)
(10.6248 -7.08351e-20 0.554326)
(10.5896 -3.80218e-20 0.494312)
(10.694 -1.47063e-19 0.594023)
(10.6569 -6.83807e-20 0.530947)
(10.7661 -1.42343e-19 0.633469)
(10.727 -7.73242e-20 0.567472)
(10.8406 7.33884e-20 0.672433)
(10.7996 6.84494e-20 0.603662)
(10.8744 -6.60543e-20 0.639324)
(10.0075 -1.0988e-19 0.036986)
(10.0045 0 0.0225493)
(10.0209 -9.92487e-20 0.0600073)
(10.013 -8.44074e-21 0.0431511)
(10.0391 -4.51268e-22 0.0833822)
(10.0286 1.03836e-20 0.0640745)
(10.0613 -1.25683e-19 0.107721)
(10.0487 -1.40777e-20 0.0859679)
(10.0874 -1.22411e-19 0.133196)
(10.0729 6.40612e-20 0.108957)
(10.1172 4.33885e-22 0.159729)
(10.1009 -1.47178e-20 0.132924)
(10.1509 -1.18587e-19 0.187252)
(10.1326 1.50132e-20 0.157619)
(10.1888 -1.38296e-19 0.215772)
(10.1687 -8.85742e-20 0.183064)
(10.2308 6.61065e-20 0.245152)
(10.209 -7.70198e-22 0.209326)
(10.2769 1.30821e-20 0.275243)
(10.2532 6.62737e-20 0.236327)
(10.3265 -6.429e-20 0.306132)
(10.3009 -5.05201e-20 0.264131)
(10.3793 1.01361e-19 0.337946)
(10.3519 0 0.292872)
(10.4353 3.02951e-20 0.370551)
(10.406 6.9742e-20 0.322412)
(10.4946 -6.55607e-20 0.40363)
(10.4634 -1.0012e-19 0.352418)
(10.5571 3.57973e-20 0.436938)
(10.5239 1.30656e-19 0.382654)
(10.6225 -3.54919e-20 0.470348)
(10.5874 3.50159e-20 0.41302)
(10.6907 3.43473e-21 0.50373)
(10.6537 -3.70387e-21 0.44343)
(10.7613 1.39546e-19 0.536911)
(10.7225 1.37094e-19 0.473741)
(10.8342 -7.50426e-20 0.569703)
(10.7936 -6.33427e-20 0.503786)
(10.8666 -7.58064e-20 0.533406)
(10.0081 1.03941e-19 0.0289167)
(10.0048 0 0.0164726)
(10.0214 1.04079e-19 0.0476611)
(10.0135 1.06802e-19 0.0328071)
(10.039 -3.70597e-21 0.0670459)
(10.0288 5.21488e-20 0.0498477)
(10.0607 1.80914e-19 0.0873946)
(10.0487 -7.0084e-21 0.0677076)
(10.0866 1.7433e-19 0.108674)
(10.0728 1.32424e-19 0.086301)
(10.1168 3.24633e-22 0.130684)
(10.1011 -7.36504e-21 0.105543)
(10.1511 4.56459e-20 0.153287)
(10.1334 7.46275e-21 0.12529)
(10.1894 5.28414e-20 0.176525)
(10.1699 -1.92616e-20 0.14554)
(10.2318 -5.48313e-22 0.200486)
(10.2103 9.97233e-22 0.166444)
(10.2777 8.15831e-22 0.22525)
(10.2544 -4.53239e-20 0.188183)
(10.3269 1.56057e-20 0.250867)
(10.3016 9.13723e-22 0.210821)
(10.3792 -3.2542e-20 0.277217)
(10.3519 -6.09168e-20 0.234178)
(10.4347 -6.43898e-20 0.304035)
(10.4055 -3.25449e-20 0.257963)
(10.4934 1.0179e-19 0.331096)
(10.4623 9.18124e-20 0.28199)
(10.5551 1.29943e-19 0.358293)
(10.5221 7.0386e-20 0.306175)
(10.6195 6.77832e-20 0.385562)
(10.5847 -6.30238e-20 0.330468)
(10.6864 1.33798e-19 0.412803)
(10.6497 6.81551e-20 0.354789)
(10.7556 -7.16942e-20 0.439877)
(10.7171 6.7943e-20 0.379028)
(10.8269 -6.40944e-20 0.466641)
(10.7866 -1.37844e-19 0.403055)
(10.8579 1.02499e-19 0.426752)
(10.0082 3.25372e-21 0.0205528)
(10.0042 4.83235e-20 0.0101929)
(10.0216 5.33163e-20 0.0351732)
(10.0138 -4.61615e-20 0.0221231)
(10.0393 4.85031e-20 0.0504548)
(10.0294 -7.37311e-22 0.0352101)
(10.0612 -5.61927e-20 0.0663355)
(10.0498 -6.46739e-21 0.0487339)
(10.0876 -5.43997e-20 0.0827865)
(10.0742 -5.59572e-20 0.0626592)
(10.1181 0 0.0997208)
(10.1027 6.77935e-21 0.0770253)
(10.1527 -5.92638e-20 0.117089)
(10.1353 -2.75138e-20 0.0917392)
(10.1913 -7.24962e-20 0.135022)
(10.1719 -4.50763e-20 0.106832)
(10.2333 -4.50834e-20 0.153741)
(10.2121 -6.97243e-22 0.122627)
(10.2787 -4.51962e-20 0.173317)
(10.2555 2.7236e-20 0.139308)
(10.3272 -7.78152e-20 0.193585)
(10.302 -3.01147e-20 0.156665)
(10.3789 -6.09098e-20 0.214274)
(10.3519 -1.80065e-20 0.174386)
(10.4339 1.28175e-19 0.235196)
(10.4049 3.00959e-20 0.192305)
(10.4918 5.94611e-20 0.256275)
(10.461 9.7987e-20 0.210379)
(10.5525 -1.28204e-19 0.277476)
(10.5199 -9.57117e-20 0.228587)
(10.6157 -6.27459e-20 0.298738)
(10.5813 -3.41796e-20 0.246882)
(10.6813 3.17612e-22 0.319973)
(10.6451 -3.06508e-20 0.265197)
(10.749 0 0.341075)
(10.711 -3.07923e-20 0.283445)
(10.8186 3.35583e-20 0.361936)
(10.7789 3.19434e-20 0.301533)
(10.8485 6.47319e-20 0.319378)
(10.0087 -2.59014e-21 0.0118996)
(10.0039 -2.29628e-20 0.00340112)
(10.0226 -1.01417e-19 0.0225892)
(10.0156 -6.75197e-22 0.0107379)
(10.0407 -5.71794e-20 0.0339797)
(10.0322 -5.50938e-20 0.0197448)
(10.0632 -6.40583e-21 0.0455754)
(10.0529 -3.18484e-22 0.0288184)
(10.0898 7.01377e-21 0.0574094)
(10.0774 -1.60917e-20 0.0381321)
(10.1204 -2.15562e-20 0.0694689)
(10.106 6.95794e-21 0.0476487)
(10.155 -1.28638e-20 0.0818309)
(10.1386 -1.47731e-20 0.0573054)
(10.1932 2.88483e-20 0.0947569)
(10.1748 4.1865e-20 0.0674092)
(10.2347 7.37675e-20 0.10843)
(10.2142 -6.02118e-21 0.0782695)
(10.2794 4.28097e-20 0.122727)
(10.2568 5.24702e-20 0.0897606)
(10.3274 3.15009e-20 0.137374)
(10.3028 -8.32779e-22 0.101562)
(10.3786 7.57049e-20 0.152195)
(10.3521 4.58765e-20 0.113506)
(10.4328 -1.05875e-21 0.167148)
(10.4044 3.0887e-20 0.125566)
(10.4898 -6.1744e-20 0.18223)
(10.4596 -3.12625e-20 0.137745)
(10.5495 1.06075e-21 0.197413)
(10.5174 -4.63662e-20 0.150026)
(10.6115 -1.12993e-21 0.212645)
(10.5776 1.79604e-21 0.162371)
(10.6757 -6.27154e-20 0.227859)
(10.64 -3.16734e-20 0.174727)
(10.7418 2.06747e-21 0.242982)
(10.7045 -4.6491e-20 0.187036)
(10.8097 6.40028e-20 0.257943)
(10.7707 6.39207e-20 0.199237)
(10.8386 4.76404e-20 0.211277)
(10.0119 -2.09313e-20 0.000913743)
(9.99651 -5.13237e-20 -0.0061037)
(10.0263 4.63525e-20 0.00645819)
(10.0035 5.07989e-20 -0.00129191)
(10.0448 3.43121e-21 0.0131651)
(10.0138 -3.15682e-21 0.00370606)
(10.0675 -1.03119e-20 0.0201171)
(10.0274 6.47296e-21 0.00836367)
(10.0942 -1.60781e-20 0.0272402)
(10.0453 -3.97731e-21 0.0131257)
(10.1246 1.38214e-20 0.0344887)
(10.0677 0 0.0179233)
(10.1587 4.14624e-20 0.0420347)
(10.0941 2.68329e-20 0.0228036)
(10.1961 5.92128e-21 0.0501412)
(10.1241 2.79956e-20 0.028105)
(10.2368 -2.78554e-20 0.0587921)
(10.1577 -1.11379e-20 0.0338958)
(10.2808 7.56886e-21 0.0677401)
(10.1952 1.33442e-20 0.0399448)
(10.3282 1.39599e-20 0.0768024)
(10.2363 1.10391e-20 0.0460846)
(10.3786 -2.49539e-22 0.0859404)
(10.281 -1.63946e-22 0.052284)
(10.4319 -1.78908e-22 0.0951644)
(10.3288 -1.4249e-20 0.0585528)
(10.4878 -1.54116e-20 0.104467)
(10.3797 1.42037e-20 0.0648917)
(10.5462 -4.56543e-20 0.113821)
(10.4334 -2.2489e-20 0.0712852)
(10.6069 -2.96428e-20 0.123188)
(10.4896 -2.34407e-20 0.0777086)
(10.6696 -1.49211e-20 0.132524)
(10.5483 -1.42825e-20 0.0841322)
(10.7342 1.7142e-20 0.141786)
(10.6091 -1.50612e-20 0.0905248)
(10.8005 4.705e-20 0.150931)
(10.6718 3.19155e-20 0.0968552)
(10.7362 4.57715e-20 0.103096)
(9.99259 2.29766e-20 -0.0028513)
(9.99115 -1.83362e-22 -0.00175005)
(9.99543 0 9.36793e-05)
(10.0046 1.29597e-20 0.00213953)
(10.0183 1.25512e-20 0.00430938)
(10.0364 1.34482e-20 0.0065786)
(10.0584 1.30412e-20 0.00904928)
(10.0846 1.04258e-20 0.0118191)
(10.1149 3.1218e-20 0.0148208)
(10.1494 1.69135e-20 0.0179306)
(10.1878 -3.47573e-21 0.0210996)
(10.2298 -1.45667e-20 0.0243317)
(10.2751 5.49764e-22 0.0276294)
(10.3237 6.93306e-21 0.0309833)
(10.3751 3.63544e-22 0.034378)
(10.4293 -7.64096e-21 0.0377962)
(10.4859 -1.44463e-20 0.0412189)
(10.5447 9.81184e-23 0.0446272)
(10.6056 3.06184e-20 0.0480033)
)
;

boundaryField
{
    inlet
    {
        type            calculated;
        value           nonuniform List<vector> 
30
(
(10 0 0)
(10 0 0)
(10 0 0)
(10 0 0)
(10 0 0)
(10 0 0)
(10 0 0)
(10 0 0)
(10 0 0)
(10 0 0)
(10 0 0)
(10 0 0)
(10 0 0)
(10 0 0)
(10 0 0)
(10 0 0)
(10 0 0)
(10 0 0)
(10 0 0)
(10 0 0)
(10 0 0)
(10 0 0)
(10 0 0)
(10 0 0)
(10 0 0)
(10 0 0)
(10 0 0)
(10 0 0)
(10 0 0)
(10 0 0)
)
;
    }
    outlet
    {
        type            calculated;
        value           nonuniform 0();
    }
    flap
    {
        type            calculated;
        value           nonuniform 0();
    }
    upperWall
    {
        type            calculated;
        value           uniform (0 0 0);
    }
    lowerWall
    {
        type            calculated;
        value           nonuniform 0();
    }
    frontAndBack
    {
        type            empty;
        value           nonuniform 0();
    }
    procBoundary0to1
    {
        type            processor;
        value           nonuniform List<vector> 
18
(
(10.9417 3.93303e-19 1.86016)
(10.9714 -1.79061e-19 1.75292)
(10.9306 -1.9563e-19 1.6488)
(10.8952 1.74086e-19 1.54881)
(10.9141 1.81101e-19 1.44754)
(10.9273 -5.73546e-21 1.34494)
(10.9348 -4.20064e-19 1.24132)
(10.9374 8.17054e-20 1.13689)
(10.9357 -1.12626e-21 1.03168)
(10.9311 3.7584e-21 0.925637)
(10.9248 7.35523e-20 0.818577)
(10.9174 1.45121e-19 0.710724)
(10.9091 -2.1152e-19 0.601945)
(10.8999 1.72891e-19 0.492969)
(10.8898 -1.20835e-21 0.382463)
(10.8791 3.21949e-20 0.272676)
(10.8681 8.65229e-20 0.159922)
(10.6681 -8.85448e-21 0.0513315)
)
;
    }
    procBoundary0to3
    {
        type            processor;
        value           nonuniform List<vector> 
34
(
(9.9985 -1.42034e-20 0.0625731)
(9.99103 -6.8584e-19 0.119647)
(9.98616 -6.63497e-19 0.151125)
(9.98197 -4.61332e-19 0.182088)
(9.97698 2.17375e-20 0.21618)
(9.97317 2.19454e-19 0.249526)
(9.96903 -9.21053e-20 0.286425)
(9.96686 -3.61066e-21 0.322263)
(9.96463 5.83183e-20 0.362069)
(9.96436 -4.06043e-22 0.400443)
(9.96514 6.32629e-20 0.443042)