/*--------------------------------*- C++ -*----------------------------------*\
| =========                 |                                                 |
| \\      /  F ield         | OpenFOAM: The Open Source CFD Toolbox           |
|  \\    /   O peration     | Version:  dev                                   |
|   \\  /    A nd           | Web:      www.OpenFOAM.org                      |
|    \\/     M anipulation  |                                                 |
\*---------------------------------------------------------------------------*/
FoamFile
{
    version     2.0;
    format      ascii;
    class       surfaceScalarField;
    location    "3.89";
    object      meshPhi;
}
// * * * * * * * * * * * * * * * * * * * * * * * * * * * * * * * * * * * * * //

dimensions      [0 3 -1 0 0 0 0];

internalField   nonuniform List<scalar> 
881
(
-4.69307e-07
2.13412e-06
2.57988e-06
3.52307e-07
2.25193e-06
5.11336e-07
2.69623e-06
8.49768e-07
3.1558e-06
3.6191e-06
1.37223e-06
2.4187e-06
1.61978e-06
2.8597e-06
2.02222e-06
3.31778e-06
2.60754e-06
3.78494e-06
4.24964e-06
2.60146e-06
2.6413e-06
2.93476e-06
3.07778e-06
3.40986e-06
3.53193e-06
4.0443e-06
3.99526e-06
4.85115e-06
4.45819e-06
5.83446e-06
4.90903e-06
5.33404e-06
4.08042e-06
2.92681e-06
4.48374e-06
3.35601e-06
5.01745e-06
3.80224e-06
5.69638e-06
4.2577e-06
6.52503e-06
4.71257e-06
7.50054e-06
5.15587e-06
8.59586e-06
5.5773e-06
9.75734e-06
5.96635e-06
6.30972e-06
5.84433e-06
3.28024e-06
6.30061e-06
3.69811e-06
6.8762e-06
4.13154e-06
7.58186e-06
4.5737e-06
8.41842e-06
5.01521e-06
9.37572e-06
5.44582e-06
1.04286e-05
5.85506e-06
1.15344e-05
6.23195e-06
1.26404e-05
6.56684e-06
6.84662e-06
7.92615e-06
3.70403e-06
8.41538e-06
4.10528e-06
9.01365e-06
4.52017e-06
9.72626e-06
4.94315e-06
1.05508e-05
5.36525e-06
1.14735e-05
5.77676e-06
1.24675e-05
6.1673e-06
1.34917e-05
6.52584e-06
1.44996e-05
6.84102e-06
1.54203e-05
7.10137e-06
1.61517e-05
7.29078e-06
7.38956e-06
1.03574e-05
4.19729e-06
1.08546e-05
4.57543e-06
1.14533e-05
4.96525e-06
1.21517e-05
5.36284e-06
1.29426e-05
5.75942e-06
1.38106e-05
6.14547e-06
1.47276e-05
6.51086e-06
1.56531e-05
6.84454e-06
1.65369e-05
7.13471e-06
1.73208e-05
7.3687e-06
1.7925e-05
7.53143e-06
1.82805e-05
7.60878e-06
7.58309e-06
1.31658e-05
4.75445e-06
1.36422e-05
5.1023e-06
1.42148e-05
5.46026e-06
1.48756e-05
5.82626e-06
1.56107e-05
6.19144e-06
1.64022e-05
6.54618e-06
1.7222e-05
6.88048e-06
1.80292e-05
7.18334e-06
1.87741e-05
7.44273e-06
1.93985e-05
7.64568e-06
1.98331e-05
7.77774e-06
2.00188e-05
7.82352e-06
1.98757e-05
7.7674e-06
1.92939e-05
7.58792e-06
7.26007e-06
1.63707e-05
5.36542e-06
1.67968e-05
5.67439e-06
1.73147e-05
5.99455e-06
1.79116e-05
6.32362e-06
1.85681e-05
6.6523e-06
1.92614e-05
6.9708e-06
1.99621e-05
7.26886e-06
2.06301e-05
7.53556e-06
2.12169e-05
7.75908e-06
2.16659e-05
7.92649e-06
2.19136e-05
8.02355e-06
2.18957e-05
8.03489e-06
2.1548e-05
7.94385e-06
2.07868e-05
7.73073e-06
1.95558e-05
7.37655e-06
6.85965e-06
1.99753e-05
5.99988e-06
2.03269e-05
6.27189e-06
2.07646e-05
6.55283e-06
2.1271e-05
6.842e-06
2.18248e-05
7.13048e-06
2.23977e-05
7.40874e-06
2.29564e-05
7.66632e-06
2.34634e-05
7.89246e-06
2.38719e-05
8.07584e-06
2.4127e-05
8.2038e-06
2.41685e-05
8.26231e-06
2.39335e-05
8.23612e-06
2.33572e-05
8.10857e-06
2.237e-05
7.8611e-06
2.0922e-05
7.47414e-06
1.89527e-05
6.92783e-06
1.63798e-05
6.19671e-06
5.25289e-06
2.39732e-05
6.63416e-06
2.42341e-05
6.87559e-06
2.45694e-05
7.11828e-06
2.49606e-05
7.36618e-06
2.53858e-05
7.61185e-06
2.58143e-05
7.84665e-06
2.6209e-05
8.06062e-06
2.65332e-05
8.24311e-06
2.67428e-05
8.3832e-06
2.67846e-05
8.46874e-06
2.6601e-05
8.48606e-06
2.6131e-05
8.42023e-06
2.53122e-05
8.25492e-06
2.40815e-05
7.97226e-06
2.23828e-05
7.5531e-06
2.01661e-05
6.97699e-06
1.73689e-05
6.22062e-06
1.39602e-05
5.26093e-06
4.07428e-06
2.83684e-05
7.26432e-06
2.85195e-05
7.47169e-06
2.87296e-05
7.67457e-06
2.89809e-05
7.87967e-06
2.92508e-05
8.08062e-06
2.95096e-05
8.26972e-06
2.97194e-05
8.43788e-06
2.98404e-05
8.57482e-06
2.98303e-05
8.6697e-06
2.9639e-05
8.71091e-06
2.92113e-05
8.68544e-06
2.84886e-05
8.57884e-06
2.74109e-05
8.37528e-06
2.59185e-05
8.05753e-06
2.39553e-05
7.60696e-06
2.14693e-05
7.00351e-06
1.84092e-05
6.22535e-06
1.4745e-05
5.24988e-06
1.04492e-05
4.05444e-06
2.61273e-06
3.31669e-05
7.87338e-06
3.31818e-05
8.04243e-06
3.32413e-05
8.20343e-06
3.33275e-05
8.3644e-06
3.34169e-05
8.51953e-06
3.34808e-05
8.66178e-06
3.34835e-05
8.78293e-06
3.3382e-05
8.87335e-06
3.31318e-05
8.92227e-06
3.26873e-05
8.91844e-06
3.19967e-05
8.84968e-06
3.10036e-05
8.70228e-06
2.96501e-05
8.46101e-06
2.78788e-05
8.10932e-06
2.56348e-05
7.62924e-06
2.28664e-05
7.00145e-06
1.95268e-05
6.20517e-06
1.55803e-05
5.21863e-06
1.10014e-05
4.0192e-06
5.76377e-06
2.58285e-06
9.0684e-07
3.83591e-05
8.43598e-06
3.82109e-05
8.56537e-06
3.80942e-05
8.68374e-06
3.79903e-05
8.80023e-06
3.78753e-05
8.90941e-06
3.77206e-05
9.00478e-06
3.74923e-05
9.07879e-06
3.71479e-05
9.12264e-06
3.66395e-05
9.12608e-06
3.5923e-05
9.07797e-06
3.49512e-05
8.96675e-06
3.36703e-05
8.77971e-06
3.20244e-05
8.50244e-06
2.9958e-05
8.11911e-06
2.74174e-05
7.61257e-06
2.4352e-05
6.96434e-06
2.07164e-05
6.15465e-06
1.64731e-05
5.1626e-06
1.15932e-05
3.96638e-06
6.05603e-06
2.54318e-06
8.91537e-07
4.39219e-05
8.92547e-06
4.35861e-05
9.01579e-06
4.32693e-05
9.09232e-06
4.29517e-05
9.16524e-06
4.26094e-05
9.22952e-06
4.22137e-05
9.27918e-06
4.17313e-05
9.30723e-06
4.11225e-05
9.30568e-06
4.03395e-05
9.2651e-06
3.93351e-05
9.17473e-06
3.8065e-05
9.02339e-06
3.64798e-05
8.79925e-06
3.45257e-05
8.48895e-06
3.21488e-05
8.07754e-06
2.92967e-05
7.54878e-06
2.59198e-05
6.88514e-06
2.19731e-05
6.06787e-06
1.74182e-05
5.0771e-06
1.22247e-05
3.89195e-06
6.37122e-06
2.49077e-06
8.72146e-07
4.98217e-05
9.31449e-06
4.92772e-05
9.36773e-06
4.87386e-05
9.4046e-06
4.8186e-05
9.43617e-06
4.75954e-05
9.45786e-06
4.69383e-05
9.46423e-06
4.61818e-05
9.44891e-06
4.52885e-05
9.40456e-06
4.42139e-05
9.32266e-06
4.29076e-05
9.19327e-06
4.1324e-05
9.00554e-06
3.94194e-05
8.74822e-06
3.71425e-05
8.40915e-06
3.4441e-05
7.97454e-06
3.12636e-05
7.42909e-06
2.75616e-05
6.75631e-06
2.32902e-05
5.93855e-06
1.84102e-05
4.95701e-06
1.28898e-05
3.79192e-06
6.7055e-06
2.42264e-06
8.47441e-07
5.60154e-05
9.57541e-06
5.5244e-05
9.59468e-06
5.44651e-05
9.59528e-06
5.3659e-05
9.58894e-06
5.28017e-05
9.57161e-06
5.18655e-05
9.53839e-06
5.08182e-05
9.48354e-06
4.96235e-05
9.40043e-06
4.82405e-05
9.28142e-06
4.66186e-05
9.1175e-06
4.47094e-05
8.89825e-06
4.24721e-05
8.61308e-06
3.98597e-05
8.25103e-06
3.68212e-05
7.7995e-06
3.33064e-05
7.24425e-06
2.92673e-05
6.56994e-06
2.46591e-05
5.76007e-06
1.9442e-05
4.79704e-06
1.35825e-05
3.66223e-06
7.05453e-06
2.33606e-06
8.16401e-07
6.24495e-05
9.68074e-06
6.14364e-05
9.67007e-06
6.04021e-05
9.63881e-06
5.9327e-05
9.59916e-06
5.81881e-05
9.54755e-06
5.6958e-05
9.47969e-06
5.56058e-05
9.39049e-06
5.40964e-05
9.27401e-06
5.2391e-05
9.12347e-06
5.04415e-05
8.93067e-06
4.8197e-05
8.68604e-06
4.56167e-05
8.37991e-06
4.26583e-05
8.00224e-06
3.92725e-05
7.54151e-06
3.54102e-05
6.98476e-06
3.10241e-05
6.31789e-06
2.60693e-05
5.52566e-06
2.05052e-05
4.59176e-06
1.42966e-05
3.49883e-06
7.4145e-06
2.22845e-06
7.78108e-07
6.90596e-05
9.60357e-06
6.77936e-05
9.56777e-06
6.64922e-05
9.51e-06
6.51367e-05
9.44264e-06
6.37045e-05
9.36264e-06
6.21697e-05
9.26627e-06
6.05021e-05
9.1491e-06
5.8668e-05
9.00589e-06
5.66302e-05
8.83063e-06
5.43443e-05
8.61611e-06
5.17579e-05
8.35399e-06
4.88273e-05
8.03529e-06
4.55149e-05
7.65056e-06
4.17742e-05
7.18965e-06
3.75572e-05
6.64109e-06
3.28168e-05
5.99203e-06
2.75081e-05
5.22858e-06
2.15898e-05
4.33583e-06
1.50248e-05
3.29777e-06
7.78155e-06
2.09733e-06
7.31702e-07
7.57689e-05
9.31806e-06
7.42427e-05
9.26265e-06
7.26668e-05
9.18457e-06
7.10234e-05
9.09606e-06
6.9291e-05
8.99457e-06
6.74445e-05
8.87694e-06
6.54551e-05
8.73938e-06
6.32903e-05
8.57737e-06
6.09143e-05
8.38564e-06
5.82865e-05
8.15813e-06
5.5355e-05
7.88761e-06
5.20716e-05
7.56567e-06
4.84009e-05
7.18375e-06
4.43016e-05
6.73318e-06
3.97259e-05
6.20392e-06
3.46274e-05
5.58444e-06
2.89609e-05
4.86231e-06
2.26844e-05
4.02408e-06
1.57594e-05
3.0553e-06
8.15152e-06
1.94039e-06
6.76389e-07
8.24867e-05
8.80018e-06
8.06974e-05
8.73129e-06
7.88443e-05
8.63984e-06
7.69105e-05
8.53759e-06
7.48756e-05
8.42247e-06
7.27156e-05
8.29186e-06
7.0403e-05
8.1426e-06
6.79066e-05
7.97086e-06
6.51918e-05
7.77222e-06
6.22208e-05
7.54154e-06
5.89443e-05
7.27251e-06
5.53102e-05
6.95778e-06
5.12829e-05
6.59017e-06
4.68254e-05
6.16206e-06
4.18915e-05
5.66456e-06
3.6435e-05
5.08776e-06
3.04109e-05
4.42076e-06
2.37764e-05
3.65176e-06
1.64916e-05
2.76797e-06
8.51993e-06
1.75552e-06
6.11454e-07
8.91067e-05
8.02849e-06
8.70566e-05
7.9528e-06
8.49289e-05
7.85559e-06
8.27078e-05
7.74777e-06
8.03739e-05
7.62771e-06
7.79045e-05
7.49331e-06
7.52731e-05
7.34198e-06
7.245e-05
7.17062e-06
6.94019e-05
6.97555e-06
6.60924e-05
6.75248e-06
6.24762e-05
6.49617e-06
5.84997e-05
6.20079e-06
5.41228e-05
5.86024e-06
4.93123e-05
5.46756e-06
4.40253e-05
5.01535e-06
3.8216e-05
4.49544e-06
3.18391e-05
3.89859e-06
2.48514e-05
3.2147e-06
1.72117e-05
2.43279e-06
8.8819e-06
1.54092e-06
5.36288e-07
9.55046e-05
6.98517e-06
9.3202e-05
6.90985e-06
9.08087e-05
6.81505e-06
8.83099e-05
6.71045e-06
8.56873e-05
6.59483e-06
8.29193e-05
6.46657e-06
7.99807e-05
6.32365e-06
7.68428e-05
6.16362e-06
7.34734e-05
5.98357e-06
6.98371e-05
5.78008e-06
6.58932e-05
5.54914e-06
6.15887e-05
5.28619e-06
5.6876e-05
4.98584e-06
5.17239e-05
4.6423e-06
4.60953e-05
4.2499e-06
3.99441e-05
3.80216e-06
3.32248e-05
3.29147e-06
2.58939e-05
2.70956e-06
1.79095e-05
2.04741e-06
9.23225e-06
1.29518e-06
4.50419e-07
0.000101536
5.65729e-06
9.89963e-05
5.58985e-06
9.63536e-05
5.50604e-06
9.35944e-05
5.41393e-06
9.07014e-05
5.31263e-06
8.76539e-05
5.20099e-06
8.44278e-05
5.07752e-06
8.09954e-05
4.94041e-06
7.73254e-05
4.78752e-06
7.33834e-05
4.61629e-06
6.91315e-05
4.42385e-06
6.45182e-05
4.20663e-06
5.94904e-05
3.96029e-06
5.40174e-05
3.68067e-06
4.80661e-05
3.36363e-06
4.15906e-05
3.00416e-06
3.45458e-05
2.59642e-06
2.68877e-05
2.13409e-06
1.85743e-05
1.61027e-06
9.56566e-06
1.01741e-06
3.53556e-07
0.000107034
4.03816e-06
0.00010428
3.98629e-06
0.000101413
3.92228e-06
9.842e-05
3.85216e-06
9.52843e-05
3.77535e-06
9.19863e-05
3.69109e-06
8.85025e-05
3.59842e-06
8.48059e-05
3.49614e-06
8.08662e-05
3.38282e-06
7.66495e-05
3.25677e-06
7.21195e-05
3.11603e-06
6.72251e-05
2.95803e-06
6.19117e-05
2.78013e-06
5.61472e-05
2.57996e-06
4.99002e-05
2.35441e-06
4.31259e-05
2.09976e-06
3.57793e-05
1.81218e-06
2.78165e-05
1.48742e-06
1.91955e-05
1.12085e-06
9.87694e-06
7.07364e-07
2.45633e-07
0.000111808
2.1289e-06
0.000108871
2.10021e-06
0.000105814
2.06483e-06
0.000102624
2.02619e-06
9.9285e-05
1.98398e-06
9.57773e-05
1.93782e-06
9.20777e-05
1.88723e-06
8.81594e-05
1.83162e-06
8.39924e-05
1.77027e-06
7.95432e-05
1.70231e-06
7.47754e-05
1.62671e-06
6.96408e-05
1.542e-06
6.4084e-05
1.44723e-06
5.8067e-05
1.34169e-06
5.15594e-05
1.22331e-06
4.452e-05
1.08985e-06
3.69033e-05
9.39551e-07
2.86651e-05
7.70329e-07
1.97639e-05
5.79855e-07
1.01614e-05
3.65583e-07
1.26866e-07
0.000115666
0.00011259
0.000109392
0.000106057
0.000102568
9.89048e-05
9.50448e-05
9.09606e-05
8.66219e-05
8.19948e-05
7.7042e-05
7.17193e-05
6.59711e-05
5.97499e-05
5.30261e-05
4.57634e-05
3.7915e-05
2.94359e-05
2.02845e-05
1.04238e-05
)
;

boundaryField
{
    inlet
    {
        type            calculated;
        value           nonuniform 0();
    }
    outlet
    {
        type            calculated;
        value           uniform 0;
    }
    flap
    {
        type            calculated;
        value           nonuniform 0();
    }
    upperWall
    {
        type            calculated;
        value           nonuniform List<scalar> 
21
(
0
0
0
0
3.74737e-21
8.43533e-15
-8.63792e-15
-8.76927e-21
0
0
0
9.72437e-15
0
0
0
0
0
0
0
0
0
)
;
    }
    lowerWall
    {
        type            calculated;
        value           nonuniform 0();
    }
    frontAndBack
    {
        type            empty;
        value           nonuniform 0();
    }
    procBoundary2to1
    {
        type            processor;
        value           nonuniform List<scalar> 
17
(
-2.37605e-05
-2.82341e-05
-3.31429e-05
-3.84753e-05
-4.42021e-05
-5.02865e-05
-5.66822e-05
-6.33328e-05
-7.01706e-05
-7.7115e-05
-8.40713e-05
-9.09283e-05
-9.75562e-05
-0.000103804
-0.000109496
-0.000114433
-0.000118411
)
;
    }
    procBoundary2to4
    {
        type            processor;
        value           nonuniform List<scalar> 
11
(
3.70964e-07
-3.4984e-07
-1.26605e-06
-2.40458e-06
-3.80503e-06
-5.50626e-06
-7.54601e-06
-9.96e-06
-1.27787e-05
-1.60268e-05
-1.96967e-05
)
;
    }
    procBoundary2to5
    {
        type            processor;
        value           nonuniform List<scalar> 
34
(
-2.04702e-06
-2.48473e-06
-3.73562e-07
-3.03064e-06
-3.47342e-06
1.40182e-06
-4.06823e-06
3.39513e-06
-4.69445e-06
-5.10281e-06
6.94857e-06
-5.71927e-06
-6.04754e-06
1.0907e-05
-6.58572e-06
1.36407e-05
-7.04668e-06
-7.14111e-06
1.66006e-05
-7.37084e-06
1.82706e-05
-7.42346e-06
-7.09966e-06
1.8207e-05
-6.75465e-06
1.77708e-05
-6.14653e-06
-5.20748e-06
1.31788e-05
-4.06994e-06
9.90929e-06
-2.62975e-06
5.48508e-06
-9.19063e-07
)
;
    }
}


// ************************************************************************* //
